   Color/Form
        AMBER COLORED LIQUID
   from [1]HSDB

   Boiling Point
        108 DEG C @ 0.01 MM HG
   from [2]HSDB

   Density/Specific Gravity
        1.365 @ 20 DEG C/4 DEG C
   from [3]HSDB

   Octanol/Water Partition Coefficient
        log Kow = 5.23
   from [4]HSDB

   Solubilities

     * IN WATER: 50 MG/L @ 20 DEG C; GREATER THAN 1.2 KG/KG
       DICHLOROMETHANE, PROPAN-2-OL
     * SOL IN ACETONE, ALCOHOL, AROMATIC SOLVENTS, KEROSENE & CHLORINATED
       HYDROCARBONS
     * Slightly soluble in mineral oils
     * Water solubility = 0.59 mg/l at 20 deg C. [Bowman BT, Sans WW; J
       Environ Sci Health B18: 221-7 (1983)] [5]PubMed Abstract

   from [6]HSDB

   Spectral Properties
        INDEX OF REFRACTION: 1.561 @ 22 DEG C/D
   from [7]HSDB

   Vapor Pressure
        1.5X10-5 mm Hg at 20 deg C
   from [8]HSDB

   Other Chemical/Physical Properties
        Vapor pressure = 2X10-5 mm Hg at 20 deg C
   from [9]HSDB

   Computed Properties
   Molecular Weight                  333.598842 [g/mol]
   Molecular Formula                 C[10]H[12]Cl[3]O[2]PS
   XLogP3                            5.2
   H-Bond Donor                      0
   H-Bond Acceptor                   3
   Rotatable Bond Count              5
   Exact Mass                        331.93612
   MonoIsotopic Mass                 331.93612
   Topological Polar Surface Area    50.6
   Heavy Atom Count                  17
   Formal Charge                     0
   Complexity                        293
   Isotope Atom Count                0
   Defined Atom Stereocenter Count   0
   Undefined Atom Stereocenter Count 1
   Defined Bond Stereocenter Count   0
   Undefined Bond Stereocenter Count 0
   Covalently-Bonded Unit Count      1
   Feature 3D Ring Count             1
   Effective Rotor Count             5
   Conformer Sampling RMSD           0.6
   CID Conformer Count               [10]56

References

   1. http://toxnet.nlm.nih.gov/cgi-bin/sis/search/r?dbs+hsdb:@term+@rn+@rel+327-98-0
   2. http://toxnet.nlm.nih.gov/cgi-bin/sis/search/r?dbs+hsdb:@term+@rn+@rel+327-98-0
   3. http://toxnet.nlm.nih.gov/cgi-bin/sis/search/r?dbs+hsdb:@term+@rn+@rel+327-98-0
   4. http://toxnet.nlm.nih.gov/cgi-bin/sis/search/r?dbs+hsdb:@term+@rn+@rel+327-98-0
   5. http://www.ncbi.nlm.nih.gov/entrez/query.fcgi?cmd=Retrieve&db=pubmed&dopt=Abstract&list_uids=6853964
   6. http://toxnet.nlm.nih.gov/cgi-bin/sis/search/r?dbs+hsdb:@term+@rn+@rel+327-98-0
   7. http://toxnet.nlm.nih.gov/cgi-bin/sis/search/r?dbs+hsdb:@term+@rn+@rel+327-98-0
   8. http://toxnet.nlm.nih.gov/cgi-bin/sis/search/r?dbs+hsdb:@term+@rn+@rel+327-98-0
   9. http://toxnet.nlm.nih.gov/cgi-bin/sis/search/r?dbs+hsdb:@term+@rn+@rel+327-98-0
  10. http://pubchem.ncbi.nlm.nih.gov/vw3d/vw3d.cgi?cid=9477
