50599
  -OEChem-07051212522D

 29 31  0     1  0  0  0  0  0999 V2000
    4.4026    0.7369    0.0000 O   0  0  0  0  0  0  0  0  0  0  0  0
    5.3548    3.2384    0.0000 O   0  0  0  0  0  0  0  0  0  0  0  0
    2.8660   -3.8284    0.0000 O   0  0  0  0  0  0  0  0  0  0  0  0
    4.6783   -1.0237    0.0000 N   0  0  0  0  0  0  0  0  0  0  0  0
    2.8660   -0.8284    0.0000 N   0  0  0  0  0  0  0  0  0  0  0  0
    4.6783   -2.6332    0.0000 N   0  0  0  0  0  0  0  0  0  0  0  0
    2.0000   -2.3284    0.0000 N   0  0  0  0  0  0  0  0  0  0  0  0
    4.9889   -0.0732    0.0000 C   0  0  1  0  0  0  0  0  0  0  0  0
    5.9405    0.2342    0.0000 C   0  0  0  0  0  0  0  0  0  0  0  0
    5.9422    1.2342    0.0000 C   0  0  0  0  0  0  0  0  0  0  0  0
    4.9917    1.5449    0.0000 C   0  0  1  0  0  0  0  0  0  0  0  0
    4.6844    2.4964    0.0000 C   0  0  0  0  0  0  0  0  0  0  0  0
    3.7320   -1.3284    0.0000 C   0  0  0  0  0  0  0  0  0  0  0  0
    5.2619   -1.8284    0.0000 C   0  0  0  0  0  0  0  0  0  0  0  0
    3.7320   -2.3284    0.0000 C   0  0  0  0  0  0  0  0  0  0  0  0
    2.8660   -2.8284    0.0000 C   0  0  0  0  0  0  0  0  0  0  0  0
    2.0000   -1.3284    0.0000 C   0  0  0  0  0  0  0  0  0  0  0  0
    5.4266   -0.5123    0.0000 H   0  0  0  0  0  0  0  0  0  0  0  0
    6.0684   -0.3725    0.0000 H   0  0  0  0  0  0  0  0  0  0  0  0
    6.5572    0.2979    0.0000 H   0  0  0  0  0  0  0  0  0  0  0  0
    6.5587    1.1683    0.0000 H   0  0  0  0  0  0  0  0  0  0  0  0
    6.0722    1.8404    0.0000 H   0  0  0  0  0  0  0  0  0  0  0  0
    4.3795    1.6429    0.0000 H   0  0  0  0  0  0  0  0  0  0  0  0
    4.3035    2.9857    0.0000 H   0  0  0  0  0  0  0  0  0  0  0  0
    4.1364    2.2063    0.0000 H   0  0  0  0  0  0  0  0  0  0  0  0
    5.8819   -1.8284    0.0000 H   0  0  0  0  0  0  0  0  0  0  0  0
    2.8660   -0.2084    0.0000 H   0  0  0  0  0  0  0  0  0  0  0  0
    5.1642    3.8284    0.0000 H   0  0  0  0  0  0  0  0  0  0  0  0
    1.4631   -1.0184    0.0000 H   0  0  0  0  0  0  0  0  0  0  0  0
  1  8  1  0  0  0  0
  1 11  1  0  0  0  0
  2 12  1  0  0  0  0
  2 28  1  0  0  0  0
  3 16  2  0  0  0  0
  8  4  1  6  0  0  0
  4 13  1  0  0  0  0
  4 14  1  0  0  0  0
  5 13  1  0  0  0  0
  5 17  1  0  0  0  0
  5 27  1  0  0  0  0
  6 14  2  0  0  0  0
  6 15  1  0  0  0  0
  7 16  1  0  0  0  0
  7 17  2  0  0  0  0
  8  9  1  0  0  0  0
  8 18  1  0  0  0  0
  9 10  1  0  0  0  0
  9 19  1  0  0  0  0
  9 20  1  0  0  0  0
 10 11  1  0  0  0  0
 10 21  1  0  0  0  0
 10 22  1  0  0  0  0
 11 12  1  6  0  0  0
 11 23  1  0  0  0  0
 12 24  1  0  0  0  0
 12 25  1  0  0  0  0
 13 15  2  0  0  0  0
 14 26  1  0  0  0  0
 15 16  1  0  0  0  0
 17 29  1  0  0  0  0
M  END
> <PUBCHEM_COMPOUND_CID>
50599

> <PUBCHEM_COMPOUND_CANONICALIZED>
1

> <PUBCHEM_CACTVS_COMPLEXITY>
348

> <PUBCHEM_CACTVS_HBOND_ACCEPTOR>
4

> <PUBCHEM_CACTVS_HBOND_DONOR>
2

> <PUBCHEM_CACTVS_ROTATABLE_BOND>
2

> <PUBCHEM_CACTVS_SUBSKEYS>
AAADccBzsAAAAAAAAAAAAAAAAAAAAWJAAAAgAAAAAAAAAEABgAAAHgAQCAAACBzhlgYFsBfMFgCoAQdxdACAgC0XEKABUIGoVECBWApAyCAeQIAMAALDAGCwMAIAAAAAAAAAAAAAAAAAAAAAAAAAAAAAAA==

> <PUBCHEM_IUPAC_OPENEYE_NAME>
9-[(2R,5S)-5-(hydroxymethyl)tetrahydrofuran-2-yl]-3H-purin-6-one

> <PUBCHEM_IUPAC_CAS_NAME>
9-[(2R,5S)-5-(hydroxymethyl)-2-oxolanyl]-3H-purin-6-one

> <PUBCHEM_IUPAC_NAME>
9-[(2R,5S)-5-(hydroxymethyl)oxolan-2-yl]-3H-purin-6-one

> <PUBCHEM_IUPAC_SYSTEMATIC_NAME>
9-[(2R,5S)-5-(hydroxymethyl)oxolan-2-yl]-3H-purin-6-one

> <PUBCHEM_IUPAC_TRADITIONAL_NAME>
9-[(2R,5S)-5-methyloltetrahydrofuran-2-yl]-3H-purin-6-one

> <PUBCHEM_IUPAC_INCHI>
InChI=1S/C10H12N4O3/c15-3-6-1-2-7(17-6)14-5-13-8-9(14)11-4-12-10(8)16/h4-7,15H,1-3H2,(H,11,12,16)/t6-,7+/m0/s1

> <PUBCHEM_IUPAC_INCHIKEY>
BXZVVICBKDXVGW-NKWVEPMBSA-N

> <PUBCHEM_XLOGP3>
-1.2

> <PUBCHEM_EXACT_MASS>
236.09094

> <PUBCHEM_MOLECULAR_FORMULA>
C10H12N4O3

> <PUBCHEM_MOLECULAR_WEIGHT>
236.22728

> <PUBCHEM_OPENEYE_CAN_SMILES>
C1CC(OC1CO)N2C=NC3=C2NC=NC3=O

> <PUBCHEM_OPENEYE_ISO_SMILES>
C1C[C@@H](O[C@@H]1CO)N2C=NC3=C2NC=NC3=O

> <PUBCHEM_CACTVS_TPSA>
88.7

> <PUBCHEM_MONOISOTOPIC_WEIGHT>
236.09094

> <PUBCHEM_TOTAL_CHARGE>
0

> <PUBCHEM_HEAVY_ATOM_COUNT>
17

> <PUBCHEM_ATOM_DEF_STEREO_COUNT>
2

> <PUBCHEM_ATOM_UDEF_STEREO_COUNT>
0

> <PUBCHEM_BOND_DEF_STEREO_COUNT>
0

> <PUBCHEM_BOND_UDEF_STEREO_COUNT>
0

> <PUBCHEM_ISOTOPIC_ATOM_COUNT>
0

> <PUBCHEM_COMPONENT_COUNT>
1

> <PUBCHEM_CACTVS_TAUTO_COUNT>
3

> <PUBCHEM_COORDINATE_TYPE>
1
5
255

> <PUBCHEM_BONDANNOTATIONS>
11  12  6
13  15  8
15  16  8
4  13  8
4  14  8
8  4  6
5  13  8
5  17  8
6  14  8
6  15  8
7  16  8
7  17  8

$$$$

