1935
  -OEChem-07051212452D

 29 31  0     0  0  0  0  0  0999 V2000
    4.6660   -1.6377    0.0000 N   0  0  0  0  0  0  0  0  0  0  0  0
    4.6660    1.3623    0.0000 N   0  0  0  0  0  0  0  0  0  0  0  0
    7.3321   -0.1169    0.0000 C   0  0  0  0  0  0  0  0  0  0  0  0
    6.4260    0.3970    0.0000 C   0  0  0  0  0  0  0  0  0  0  0  0
    7.3321   -1.1585    0.0000 C   0  0  0  0  0  0  0  0  0  0  0  0
    5.5321   -0.1377    0.0000 C   0  0  0  0  0  0  0  0  0  0  0  0
    6.4260   -1.6723    0.0000 C   0  0  0  0  0  0  0  0  0  0  0  0
    5.5321   -1.1377    0.0000 C   0  0  0  0  0  0  0  0  0  0  0  0
    4.6660    0.3623    0.0000 C   0  0  0  0  0  0  0  0  0  0  0  0
    3.8000   -0.1377    0.0000 C   0  0  0  0  0  0  0  0  0  0  0  0
    3.8000   -1.1377    0.0000 C   0  0  0  0  0  0  0  0  0  0  0  0
    2.9061    0.3970    0.0000 C   0  0  0  0  0  0  0  0  0  0  0  0
    2.9061   -1.6723    0.0000 C   0  0  0  0  0  0  0  0  0  0  0  0
    2.0000   -0.1169    0.0000 C   0  0  0  0  0  0  0  0  0  0  0  0
    2.0000   -1.1585    0.0000 C   0  0  0  0  0  0  0  0  0  0  0  0
    7.9429   -0.2229    0.0000 H   0  0  0  0  0  0  0  0  0  0  0  0
    7.5411    0.4668    0.0000 H   0  0  0  0  0  0  0  0  0  0  0  0
    6.8196    0.8760    0.0000 H   0  0  0  0  0  0  0  0  0  0  0  0
    6.0214    0.8668    0.0000 H   0  0  0  0  0  0  0  0  0  0  0  0
    7.5411   -1.7422    0.0000 H   0  0  0  0  0  0  0  0  0  0  0  0
    7.9429   -1.0524    0.0000 H   0  0  0  0  0  0  0  0  0  0  0  0
    6.0214   -2.1421    0.0000 H   0  0  0  0  0  0  0  0  0  0  0  0
    6.8196   -2.1514    0.0000 H   0  0  0  0  0  0  0  0  0  0  0  0
    2.9132    1.0170    0.0000 H   0  0  0  0  0  0  0  0  0  0  0  0
    2.9132   -2.2923    0.0000 H   0  0  0  0  0  0  0  0  0  0  0  0
    5.2030    1.6723    0.0000 H   0  0  0  0  0  0  0  0  0  0  0  0
    4.1291    1.6723    0.0000 H   0  0  0  0  0  0  0  0  0  0  0  0
    1.4643    0.1952    0.0000 H   0  0  0  0  0  0  0  0  0  0  0  0
    1.4643   -1.4706    0.0000 H   0  0  0  0  0  0  0  0  0  0  0  0
  1  8  2  0  0  0  0
  1 11  1  0  0  0  0
  2  9  1  0  0  0  0
  2 26  1  0  0  0  0
  2 27  1  0  0  0  0
  3  4  1  0  0  0  0
  3  5  1  0  0  0  0
  3 16  1  0  0  0  0
  3 17  1  0  0  0  0
  4  6  1  0  0  0  0
  4 18  1  0  0  0  0
  4 19  1  0  0  0  0
  5  7  1  0  0  0  0
  5 20  1  0  0  0  0
  5 21  1  0  0  0  0
  6  8  1  0  0  0  0
  6  9  2  0  0  0  0
  7  8  1  0  0  0  0
  7 22  1  0  0  0  0
  7 23  1  0  0  0  0
  9 10  1  0  0  0  0
 10 11  1  0  0  0  0
 10 12  2  0  0  0  0
 11 13  2  0  0  0  0
 12 14  1  0  0  0  0
 12 24  1  0  0  0  0
 13 15  1  0  0  0  0
 13 25  1  0  0  0  0
 14 15  2  0  0  0  0
 14 28  1  0  0  0  0
 15 29  1  0  0  0  0
M  END
> <PUBCHEM_COMPOUND_CID>
1935

> <PUBCHEM_COMPOUND_CANONICALIZED>
1

> <PUBCHEM_CACTVS_COMPLEXITY>
229

> <PUBCHEM_CACTVS_HBOND_ACCEPTOR>
2

> <PUBCHEM_CACTVS_HBOND_DONOR>
1

> <PUBCHEM_CACTVS_ROTATABLE_BOND>
0

> <PUBCHEM_CACTVS_SUBSKEYS>
AAADccBzAAAAAAAAAAAAAAAAAAAAAAAAAAA8YIAAAAAAAACx8AAAHAAQAAAADAiBHgAwwPJIEACgAyRiRACCgCAhAiAImCAwZJgIIOLA0dGEJAhggADIyAcQgMAOAAAAAAACAAAAAAAAAAQAAAAAAAAAAA==

> <PUBCHEM_IUPAC_OPENEYE_NAME>
1,2,3,4-tetrahydroacridin-9-amine

> <PUBCHEM_IUPAC_CAS_NAME>
1,2,3,4-tetrahydroacridin-9-amine

> <PUBCHEM_IUPAC_NAME>
1,2,3,4-tetrahydroacridin-9-amine

> <PUBCHEM_IUPAC_SYSTEMATIC_NAME>
1,2,3,4-tetrahydroacridin-9-amine

> <PUBCHEM_IUPAC_TRADITIONAL_NAME>
1,2,3,4-tetrahydroacridin-9-ylamine

> <PUBCHEM_IUPAC_INCHI>
InChI=1S/C13H14N2/c14-13-9-5-1-3-7-11(9)15-12-8-4-2-6-10(12)13/h1,3,5,7H,2,4,6,8H2,(H2,14,15)

> <PUBCHEM_IUPAC_INCHIKEY>
YLJREFDVOIBQDA-UHFFFAOYSA-N

> <PUBCHEM_XLOGP3>
2.7

> <PUBCHEM_EXACT_MASS>
198.115698

> <PUBCHEM_MOLECULAR_FORMULA>
C13H14N2

> <PUBCHEM_MOLECULAR_WEIGHT>
198.26366

> <PUBCHEM_OPENEYE_CAN_SMILES>
C1CCC2=NC3=CC=CC=C3C(=C2C1)N

> <PUBCHEM_OPENEYE_ISO_SMILES>
C1CCC2=NC3=CC=CC=C3C(=C2C1)N

> <PUBCHEM_CACTVS_TPSA>
38.9

> <PUBCHEM_MONOISOTOPIC_WEIGHT>
198.115698

> <PUBCHEM_TOTAL_CHARGE>
0

> <PUBCHEM_HEAVY_ATOM_COUNT>
15

> <PUBCHEM_ATOM_DEF_STEREO_COUNT>
0

> <PUBCHEM_ATOM_UDEF_STEREO_COUNT>
0

> <PUBCHEM_BOND_DEF_STEREO_COUNT>
0

> <PUBCHEM_BOND_UDEF_STEREO_COUNT>
0

> <PUBCHEM_ISOTOPIC_ATOM_COUNT>
0

> <PUBCHEM_COMPONENT_COUNT>
1

> <PUBCHEM_CACTVS_TAUTO_COUNT>
10

> <PUBCHEM_COORDINATE_TYPE>
1
5
255

> <PUBCHEM_BONDANNOTATIONS>
1  11  8
1  8  8
10  11  8
10  12  8
11  13  8
12  14  8
13  15  8
14  15  8
6  8  8
6  9  8
9  10  8

$$$$

