4752
  -OEChem-06261200192D

103107  0     1  0  0  0  0  0999 V2000
    7.3525   -0.4273    0.0000 S   0  0  0  0  0  0  0  0  0  0  0  0
    9.2824    5.3796    0.0000 O   0  0  0  0  0  0  0  0  0  0  0  0
    7.4846    1.6798    0.0000 O   0  0  0  0  0  0  0  0  0  0  0  0
    6.7185    1.9387    0.0000 O   0  0  0  0  0  0  0  0  0  0  0  0
    3.8610   -4.3553    0.0000 O   0  0  0  0  0  0  0  0  0  0  0  0
    5.8525    1.4387    0.0000 O   0  0  0  0  0  0  0  0  0  0  0  0
   10.2279   -0.5781    0.0000 O   0  0  0  0  0  0  0  0  0  0  0  0
    3.3000   -0.1116    0.0000 O   0  0  0  0  0  0  0  0  0  0  0  0
   10.2446   -2.8490    0.0000 O   0  0  0  0  0  0  0  0  0  0  0  0
    2.5231   -5.0469    0.0000 O   0  0  0  0  0  0  0  0  0  0  0  0
    4.6786   -3.5747    0.0000 O   0  0  0  0  0  0  0  0  0  0  0  0
    8.3975   -3.8251    0.0000 O   0  0  0  0  0  0  0  0  0  0  0  0
    8.4505    2.9387    0.0000 N   0  0  0  0  0  0  0  0  0  0  0  0
    5.8525    3.4387    0.0000 N   0  0  0  0  0  0  0  0  0  0  0  0
    9.0112    0.2770    0.0000 N   0  0  0  0  0  0  0  0  0  0  0  0
    4.1204    1.4387    0.0000 N   0  0  0  0  0  0  0  0  0  0  0  0
    4.2869   -1.2242    0.0000 N   0  0  0  0  0  0  0  0  0  0  0  0
    6.2772   -1.8991    0.0000 N   0  0  0  0  0  0  0  0  0  0  0  0
    8.6441   -2.3585    0.0000 N   0  0  0  0  0  0  0  0  0  0  0  0
    6.1080   -3.1644    0.0000 N   0  0  0  0  0  0  0  0  0  0  0  0
    7.5845    3.4387    0.0000 C   0  0  3  0  0  0  0  0  0  0  0  0
    7.7937    4.4105    0.0000 C   0  0  0  0  0  0  0  0  0  0  0  0
    8.7824    4.5136    0.0000 C   0  0  3  0  0  0  0  0  0  0  0  0
    9.1876    3.6058    0.0000 C   0  0  0  0  0  0  0  0  0  0  0  0
    8.4505    1.9387    0.0000 C   0  0  0  0  0  0  0  0  0  0  0  0
    6.7185    2.9387    0.0000 C   0  0  0  0  0  0  0  0  0  0  0  0
    8.4773    1.0386    0.0000 C   0  0  3  0  0  0  0  0  0  0  0  0
    7.6113    0.5386    0.0000 C   0  0  0  0  0  0  0  0  0  0  0  0
    4.9864    2.9387    0.0000 C   0  0  3  0  0  0  0  0  0  0  0  0
    4.6204    0.5727    0.0000 C   0  0  3  0  0  0  0  0  0  0  0  0
    5.6204    0.5727    0.0000 C   0  0  0  0  0  0  0  0  0  0  0  0
    5.6204   -0.4273    0.0000 C   0  0  0  0  0  0  0  0  0  0  0  0
    4.6309   -2.0883    0.0000 C   0  0  3  0  0  0  0  0  0  0  0  0
    6.4864   -0.9273    0.0000 C   0  0  0  0  0  0  0  0  0  0  0  0
    4.1683   -2.9749    0.0000 C   0  0  0  0  0  0  0  0  0  0  0  0
    4.9864    1.9387    0.0000 C   0  0  0  0  0  0  0  0  0  0  0  0
    3.3243   -3.5113    0.0000 C   0  0  3  0  0  0  0  0  0  0  0  0
    9.2291   -0.6271    0.0000 C   0  0  0  0  0  0  0  0  0  0  0  0
    9.1008   -1.5483    0.0000 C   0  0  3  0  0  0  0  0  0  0  0  0
    4.2832   -0.2941    0.0000 C   0  0  0  0  0  0  0  0  0  0  0  0
    4.8834   -1.0944    0.0000 C   0  0  0  0  0  0  0  0  0  0  0  0
    4.1204    3.4387    0.0000 C   0  0  0  0  0  0  0  0  0  0  0  0
    5.2885   -2.0022    0.0000 C   0  0  0  0  0  0  0  0  0  0  0  0
   10.0482   -1.8684    0.0000 C   0  0  3  0  0  0  0  0  0  0  0  0
    5.2674   -2.7664    0.0000 C   0  0  0  0  0  0  0  0  0  0  0  0
    2.4805   -4.0478    0.0000 C   0  0  0  0  0  0  0  0  0  0  0  0
    2.7879   -2.6674    0.0000 C   0  0  0  0  0  0  0  0  0  0  0  0
    7.0360   -3.2269    0.0000 C   0  0  3  0  0  0  0  0  0  0  0  0
    3.8553   -0.9712    0.0000 C   0  0  0  0  0  0  0  0  0  0  0  0
    7.9224   -2.9452    0.0000 C   0  0  0  0  0  0  0  0  0  0  0  0
    4.6936   -2.8497    0.0000 C   0  0  0  0  0  0  0  0  0  0  0  0
   10.7991   -1.2080    0.0000 C   0  0  0  0  0  0  0  0  0  0  0  0
    3.2409   -1.8047    0.0000 C   0  0  0  0  0  0  0  0  0  0  0  0
    7.1559   -4.2196    0.0000 C   0  0  0  0  0  0  0  0  0  0  0  0
    3.6629   -2.7503    0.0000 C   0  0  0  0  0  0  0  0  0  0  0  0
    7.0834    3.8038    0.0000 H   0  0  0  0  0  0  0  0  0  0  0  0
    7.7946    5.0305    0.0000 H   0  0  0  0  0  0  0  0  0  0  0  0
    7.1772    4.4766    0.0000 H   0  0  0  0  0  0  0  0  0  0  0  0
    8.4450    5.0337    0.0000 H   0  0  0  0  0  0  0  0  0  0  0  0
    9.5530    3.1049    0.0000 H   0  0  0  0  0  0  0  0  0  0  0  0
    9.7240    3.9166    0.0000 H   0  0  0  0  0  0  0  0  0  0  0  0
    9.0657    1.2340    0.0000 H   0  0  0  0  0  0  0  0  0  0  0  0
    5.8525    4.0587    0.0000 H   0  0  0  0  0  0  0  0  0  0  0  0
    9.9024    5.3796    0.0000 H   0  0  0  0  0  0  0  0  0  0  0  0
    7.4508    1.1375    0.0000 H   0  0  0  0  0  0  0  0  0  0  0  0
    6.9913    0.5386    0.0000 H   0  0  0  0  0  0  0  0  0  0  0  0
    4.9864    3.5587    0.0000 H   0  0  0  0  0  0  0  0  0  0  0  0
    9.5763    0.5321    0.0000 H   0  0  0  0  0  0  0  0  0  0  0  0
    4.0022    0.5254    0.0000 H   0  0  0  0  0  0  0  0  0  0  0  0
    6.2404    0.5727    0.0000 H   0  0  0  0  0  0  0  0  0  0  0  0
    5.6204    1.1927    0.0000 H   0  0  0  0  0  0  0  0  0  0  0  0
    4.0117   -2.0567    0.0000 H   0  0  0  0  0  0  0  0  0  0  0  0
    4.3019   -3.5803    0.0000 H   0  0  0  0  0  0  0  0  0  0  0  0
    3.7116   -2.5556    0.0000 H   0  0  0  0  0  0  0  0  0  0  0  0
    3.5215    1.5992    0.0000 H   0  0  0  0  0  0  0  0  0  0  0  0
    9.3226   -2.1273    0.0000 H   0  0  0  0  0  0  0  0  0  0  0  0
    4.4304    3.9756    0.0000 H   0  0  0  0  0  0  0  0  0  0  0  0
    3.5835    3.7487    0.0000 H   0  0  0  0  0  0  0  0  0  0  0  0
    3.8104    2.9018    0.0000 H   0  0  0  0  0  0  0  0  0  0  0  0
    3.8187   -1.6306    0.0000 H   0  0  0  0  0  0  0  0  0  0  0  0
    6.6913   -2.3606    0.0000 H   0  0  0  0  0  0  0  0  0  0  0  0
    9.5826   -2.2779    0.0000 H   0  0  0  0  0  0  0  0  0  0  0  0
    2.2438   -3.4748    0.0000 H   0  0  0  0  0  0  0  0  0  0  0  0
    1.8751   -4.1814    0.0000 H   0  0  0  0  0  0  0  0  0  0  0  0
    9.1180   -2.7583    0.0000 H   0  0  0  0  0  0  0  0  0  0  0  0
    3.3111   -2.3348    0.0000 H   0  0  0  0  0  0  0  0  0  0  0  0
    2.4553   -2.1442    0.0000 H   0  0  0  0  0  0  0  0  0  0  0  0
    2.2647   -3.0000    0.0000 H   0  0  0  0  0  0  0  0  0  0  0  0
    6.6094   -3.6767    0.0000 H   0  0  0  0  0  0  0  0  0  0  0  0
    5.9518   -3.7644    0.0000 H   0  0  0  0  0  0  0  0  0  0  0  0
    3.6092   -0.4021    0.0000 H   0  0  0  0  0  0  0  0  0  0  0  0
    4.9528   -3.4129    0.0000 H   0  0  0  0  0  0  0  0  0  0  0  0
   11.2085   -1.6736    0.0000 H   0  0  0  0  0  0  0  0  0  0  0  0
   11.2647   -0.7986    0.0000 H   0  0  0  0  0  0  0  0  0  0  0  0
   10.3896   -0.7425    0.0000 H   0  0  0  0  0  0  0  0  0  0  0  0
    3.5742   -4.9050    0.0000 H   0  0  0  0  0  0  0  0  0  0  0  0
    2.6245   -1.7381    0.0000 H   0  0  0  0  0  0  0  0  0  0  0  0
    6.5404   -4.2940    0.0000 H   0  0  0  0  0  0  0  0  0  0  0  0
    7.2303   -4.8352    0.0000 H   0  0  0  0  0  0  0  0  0  0  0  0
    7.7715   -4.1453    0.0000 H   0  0  0  0  0  0  0  0  0  0  0  0
    3.3009   -3.2536    0.0000 H   0  0  0  0  0  0  0  0  0  0  0  0
   10.8320   -3.0474    0.0000 H   0  0  0  0  0  0  0  0  0  0  0  0
    2.0000   -5.3796    0.0000 H   0  0  0  0  0  0  0  0  0  0  0  0
  1 28  1  0  0  0  0
  1 34  1  0  0  0  0
  2 23  1  0  0  0  0
  2 64  1  0  0  0  0
  3 25  2  0  0  0  0
  4 26  2  0  0  0  0
  5 37  1  0  0  0  0
  5 96  1  0  0  0  0
  6 36  2  0  0  0  0
  7 38  2  0  0  0  0
  8 40  2  0  0  0  0
  9 44  1  0  0  0  0
  9102  1  0  0  0  0
 10 46  1  0  0  0  0
 10103  1  0  0  0  0
 11 45  2  0  0  0  0
 12 50  2  0  0  0  0
 13 21  1  0  0  0  0
 13 24  1  0  0  0  0
 13 25  1  0  0  0  0
 14 26  1  0  0  0  0
 14 29  1  0  0  0  0
 14 63  1  0  0  0  0
 15 27  1  0  0  0  0
 15 38  1  0  0  0  0
 15 68  1  0  0  0  0
 16 30  1  0  0  0  0
 16 36  1  0  0  0  0
 16 75  1  0  0  0  0
 17 33  1  0  0  0  0
 17 40  1  0  0  0  0
 17 80  1  0  0  0  0
 18 34  1  0  0  0  0
 18 43  1  0  0  0  0
 18 81  1  0  0  0  0
 19 39  1  0  0  0  0
 19 50  1  0  0  0  0
 19 85  1  0  0  0  0
 20 45  1  0  0  0  0
 20 48  1  0  0  0  0
 20 90  1  0  0  0  0
 21 22  1  0  0  0  0
 21 26  1  0  0  0  0
 21 56  1  0  0  0  0
 22 23  1  0  0  0  0
 22 57  1  0  0  0  0
 22 58  1  0  0  0  0
 23 24  1  0  0  0  0
 23 59  1  0  0  0  0
 24 60  1  0  0  0  0
 24 61  1  0  0  0  0
 25 27  1  0  0  0  0
 27 28  1  0  0  0  0
 27 62  1  0  0  0  0
 28 65  1  0  0  0  0
 28 66  1  0  0  0  0
 29 36  1  0  0  0  0
 29 42  1  0  0  0  0
 29 67  1  0  0  0  0
 30 31  1  0  0  0  0
 30 40  1  0  0  0  0
 30 69  1  0  0  0  0
 31 32  1  0  0  0  0
 31 70  1  0  0  0  0
 31 71  1  0  0  0  0
 32 34  2  0  0  0  0
 32 41  1  0  0  0  0
 33 35  1  0  0  0  0
 33 45  1  0  0  0  0
 33 72  1  0  0  0  0
 35 37  1  0  0  0  0
 35 73  1  0  0  0  0
 35 74  1  0  0  0  0
 37 46  1  0  0  0  0
 37 47  1  0  0  0  0
 38 39  1  0  0  0  0
 39 44  1  0  0  0  0
 39 76  1  0  0  0  0
 41 43  1  0  0  0  0
 41 49  2  0  0  0  0
 42 77  1  0  0  0  0
 42 78  1  0  0  0  0
 42 79  1  0  0  0  0
 43 51  2  0  0  0  0
 44 52  1  0  0  0  0
 44 82  1  0  0  0  0
 46 83  1  0  0  0  0
 46 84  1  0  0  0  0
 47 86  1  0  0  0  0
 47 87  1  0  0  0  0
 47 88  1  0  0  0  0
 48 50  1  0  0  0  0
 48 54  1  0  0  0  0
 48 89  1  0  0  0  0
 49 53  1  0  0  0  0
 49 91  1  0  0  0  0
 51 55  1  0  0  0  0
 51 92  1  0  0  0  0
 52 93  1  0  0  0  0
 52 94  1  0  0  0  0
 52 95  1  0  0  0  0
 53 55  2  0  0  0  0
 53 97  1  0  0  0  0
 54 98  1  0  0  0  0
 54 99  1  0  0  0  0
 54100  1  0  0  0  0
 55101  1  0  0  0  0
M  END
> <PUBCHEM_COMPOUND_CID>
4752

> <PUBCHEM_COMPOUND_CANONICALIZED>
1

> <PUBCHEM_CACTVS_COMPLEXITY>
1510

> <PUBCHEM_CACTVS_HBOND_ACCEPTOR>
12

> <PUBCHEM_CACTVS_HBOND_DONOR>
11

> <PUBCHEM_CACTVS_ROTATABLE_BOND>
4

> <PUBCHEM_CACTVS_SUBSKEYS>
AAADcfB//ABAAAAAAAAAAAAAAAAAAWLAAAAwAAAAAAAAAFgB8AAAHgQQCAAADHzl3gaywfPJkgioAyVyVACC0iBhCjAImbG4ZJgLcPbgkbGUYAhmtgD5yAe6ncKOgAAAAAACAAAAAAAAAAQAAAAAAAAAAA==

> <PUBCHEM_IUPAC_INCHI>
InChI=1S/C35H48N8O11S/c1-15-27(47)38-22-10-20-19-7-5-6-8-21(19)41-33(20)55-13-24(34(53)43-12-18(46)9-25(43)31(51)37-15)40-32(52)26(17(3)45)42-28(48)16(2)36-30(50)23(39-29(22)49)11-35(4,54)14-44/h5-8,15-18,22-26,41,44-46,54H,9-14H2,1-4H3,(H,36,50)(H,37,51)(H,38,47)(H,39,49)(H,40,52)(H,42,48)

> <PUBCHEM_IUPAC_INCHIKEY>
KPKZJLCSROULON-UHFFFAOYSA-N

> <PUBCHEM_XLOGP3_AA>
-1.7

> <PUBCHEM_EXACT_MASS>
788.316325

> <PUBCHEM_MOLECULAR_FORMULA>
C35H48N8O11S

> <PUBCHEM_MOLECULAR_WEIGHT>
788.86762

> <PUBCHEM_OPENEYE_CAN_SMILES>
CC1C(=O)NC2CC3=C(NC4=CC=CC=C34)SCC(C(=O)N5CC(CC5C(=O)N1)O)NC(=O)C(NC(=O)C(NC(=O)C(NC2=O)CC(C)(CO)O)C)C(C)O

> <PUBCHEM_OPENEYE_ISO_SMILES>
CC1C(=O)NC2CC3=C(NC4=CC=CC=C34)SCC(C(=O)N5CC(CC5C(=O)N1)O)NC(=O)C(NC(=O)C(NC(=O)C(NC2=O)CC(C)(CO)O)C)C(C)O

> <PUBCHEM_CACTVS_TPSA>
317

> <PUBCHEM_MONOISOTOPIC_WEIGHT>
788.316325

> <PUBCHEM_TOTAL_CHARGE>
0

> <PUBCHEM_HEAVY_ATOM_COUNT>
55

> <PUBCHEM_ATOM_DEF_STEREO_COUNT>
0

> <PUBCHEM_ATOM_UDEF_STEREO_COUNT>
10

> <PUBCHEM_BOND_DEF_STEREO_COUNT>
0

> <PUBCHEM_BOND_UDEF_STEREO_COUNT>
0

> <PUBCHEM_ISOTOPIC_ATOM_COUNT>
0

> <PUBCHEM_COMPONENT_COUNT>
1

> <PUBCHEM_CACTVS_TAUTO_COUNT>
324

> <PUBCHEM_COORDINATE_TYPE>
1
5
255

> <PUBCHEM_BONDANNOTATIONS>
18  34  8
18  43  8
23  2  3
21  22  3
27  28  3
29  42  3
30  31  3
32  34  8
32  41  8
33  35  3
39  38  3
41  43  8
41  49  8
43  51  8
48  54  3
49  53  8
37  5  3
51  55  8
53  55  8
44  9  3

$$$$

