   Color/Form
        Pale yellow crystals from 50% aq acetone
   from [1]HSDB

   Melting Point
        dec 243-244 deg C
   from [2]HSDB

   Dissociation Constants
        pKa = 8.2
   from [3]HSDB

   Octanol/Water Partition Coefficient
        log Kow = 0.10
   from [4]HSDB

   Solubilities

     * Very slightly soluble in ethanol and chloroform; sparingly soluble
       in dilute mineral acids; soluble in dilute alkali solutions
     * Insoluble in water

   from [5]HSDB

   Spectral Properties
        UV max (methanol): 276 nm (epsilon 1.82X10+4); (0.1N HCl): 280 nm
   (epsilon 1.73X10+4); (0.1N NaOH): 285 nm (epsilon 1.55X10+4)
   from [6]HSDB

   Other Chemical/Physical Properties
        Soly in water: 10 mg/ml /Sodium salt/
   from [7]HSDB

   Computed Properties
   Molecular Weight                  277.26258 [g/mol]
   Molecular Formula                 C[9]H[7]N[7]O[2]S
   XLogP3                            0.1
   H-Bond Donor                      1
   H-Bond Acceptor                   7
   Rotatable Bond Count              2
   Tautomer Count                    4
   Exact Mass                        277.038193
   MonoIsotopic Mass                 277.038193
   Topological Polar Surface Area    143
   Heavy Atom Count                  19
   Formal Charge                     0
   Complexity                        354
   Isotope Atom Count                0
   Defined Atom Stereocenter Count   0
   Undefined Atom Stereocenter Count 0
   Defined Bond Stereocenter Count   0
   Undefined Bond Stereocenter Count 0
   Covalently-Bonded Unit Count      1
   Feature 3D Acceptor Count         3
   Feature 3D Donor Count            1
   Feature 3D Anion Count            1
   Feature 3D Cation Count           3
   Feature 3D Ring Count             3
   Effective Rotor Count             3
   Conformer Sampling RMSD           0.6
   CID Conformer Count               [8]18

References

   1. http://toxnet.nlm.nih.gov/cgi-bin/sis/search/r?dbs+hsdb:@term+@rn+@rel+446-86-6
   2. http://toxnet.nlm.nih.gov/cgi-bin/sis/search/r?dbs+hsdb:@term+@rn+@rel+446-86-6
   3. http://toxnet.nlm.nih.gov/cgi-bin/sis/search/r?dbs+hsdb:@term+@rn+@rel+446-86-6
   4. http://toxnet.nlm.nih.gov/cgi-bin/sis/search/r?dbs+hsdb:@term+@rn+@rel+446-86-6
   5. http://toxnet.nlm.nih.gov/cgi-bin/sis/search/r?dbs+hsdb:@term+@rn+@rel+446-86-6
   6. http://toxnet.nlm.nih.gov/cgi-bin/sis/search/r?dbs+hsdb:@term+@rn+@rel+446-86-6
   7. http://toxnet.nlm.nih.gov/cgi-bin/sis/search/r?dbs+hsdb:@term+@rn+@rel+446-86-6
   8. http://pubchem.ncbi.nlm.nih.gov/vw3d/vw3d.cgi?cid=2265
