157354
  -OEChem-07051213032D

 53 51  0     1  0  0  0  0  0999 V2000
    5.4165    3.3100    0.0000 O   0  0  0  0  0  0  0  0  0  0  0  0
    7.1486    3.3100    0.0000 O   0  0  0  0  0  0  0  0  0  0  0  0
    7.1486    1.3100    0.0000 O   0  0  0  0  0  0  0  0  0  0  0  0
    5.4165    0.3100    0.0000 O   0  0  0  0  0  0  0  0  0  0  0  0
    3.6844    1.3100    0.0000 O   0  0  0  0  0  0  0  0  0  0  0  0
    8.8806    4.3100    0.0000 O   0  0  0  0  0  0  0  0  0  0  0  0
    5.4165    4.3100    0.0000 O   0  0  0  0  0  0  0  0  0  0  0  0
    3.6844    4.3100    0.0000 O   0  0  0  0  0  0  0  0  0  0  0  0
    7.1486    6.3100    0.0000 O   0  0  0  0  0  0  0  0  0  0  0  0
    5.4165    6.3100    0.0000 O   0  0  0  0  0  0  0  0  0  0  0  0
    8.8806    7.3100    0.0000 O   0  0  0  0  0  0  0  0  0  0  0  0
    6.2825    9.6200    0.0000 O   0  0  0  0  0  0  0  0  0  0  0  0
    0.5369    4.8100    0.0000 O   0  0  0  0  0  0  0  0  0  0  0  0
    6.2825    1.8100    0.0000 C   0  0  2  0  0  0  0  0  0  0  0  0
    5.4165    1.3100    0.0000 C   0  0  2  0  0  0  0  0  0  0  0  0
    4.5505    1.8100    0.0000 C   0  0  2  0  0  0  0  0  0  0  0  0
    6.2825    2.8100    0.0000 C   0  0  1  0  0  0  0  0  0  0  0  0
    4.5505    2.8100    0.0000 C   0  0  1  0  0  0  0  0  0  0  0  0
    7.1486    4.3100    0.0000 C   0  0  1  0  0  0  0  0  0  0  0  0
    8.0146    4.8100    0.0000 C   0  0  1  0  0  0  0  0  0  0  0  0
    6.2825    4.8100    0.0000 C   0  0  1  0  0  0  0  0  0  0  0  0
    3.6844    3.3100    0.0000 C   0  0  0  0  0  0  0  0  0  0  0  0
    8.0146    5.8100    0.0000 C   0  0  2  0  0  0  0  0  0  0  0  0
    6.2825    5.8100    0.0000 C   0  0  0  0  0  0  0  0  0  0  0  0
    8.8806    6.3100    0.0000 C   0  0  0  0  0  0  0  0  0  0  0  0
    6.2825    1.1900    0.0000 H   0  0  0  0  0  0  0  0  0  0  0  0
    5.9534    1.0000    0.0000 H   0  0  0  0  0  0  0  0  0  0  0  0
    6.2825    3.4300    0.0000 H   0  0  0  0  0  0  0  0  0  0  0  0
    4.5505    1.1900    0.0000 H   0  0  0  0  0  0  0  0  0  0  0  0
    4.5505    3.4300    0.0000 H   0  0  0  0  0  0  0  0  0  0  0  0
    7.6855    4.0000    0.0000 H   0  0  0  0  0  0  0  0  0  0  0  0
    8.5515    5.1200    0.0000 H   0  0  0  0  0  0  0  0  0  0  0  0
    6.2825    4.1900    0.0000 H   0  0  0  0  0  0  0  0  0  0  0  0
    3.0739    3.4177    0.0000 H   0  0  0  0  0  0  0  0  0  0  0  0
    3.4724    2.7274    0.0000 H   0  0  0  0  0  0  0  0  0  0  0  0
    7.4776    5.5000    0.0000 H   0  0  0  0  0  0  0  0  0  0  0  0
    7.1486    0.6900    0.0000 H   0  0  0  0  0  0  0  0  0  0  0  0
    4.8796    0.0000    0.0000 H   0  0  0  0  0  0  0  0  0  0  0  0
    3.1475    1.6200    0.0000 H   0  0  0  0  0  0  0  0  0  0  0  0
    6.8931    5.7023    0.0000 H   0  0  0  0  0  0  0  0  0  0  0  0
    6.4946    6.3926    0.0000 H   0  0  0  0  0  0  0  0  0  0  0  0
    9.0927    5.7274    0.0000 H   0  0  0  0  0  0  0  0  0  0  0  0
    9.4912    6.4177    0.0000 H   0  0  0  0  0  0  0  0  0  0  0  0
    9.4175    4.6200    0.0000 H   0  0  0  0  0  0  0  0  0  0  0  0
    4.8796    4.6200    0.0000 H   0  0  0  0  0  0  0  0  0  0  0  0
    3.1475    4.6200    0.0000 H   0  0  0  0  0  0  0  0  0  0  0  0
    7.1486    6.9300    0.0000 H   0  0  0  0  0  0  0  0  0  0  0  0
    5.4165    6.9300    0.0000 H   0  0  0  0  0  0  0  0  0  0  0  0
    9.4175    7.6200    0.0000 H   0  0  0  0  0  0  0  0  0  0  0  0
    6.8195    9.9300    0.0000 H   0  0  0  0  0  0  0  0  0  0  0  0
    5.7456    9.9300    0.0000 H   0  0  0  0  0  0  0  0  0  0  0  0
    1.0739    5.1200    0.0000 H   0  0  0  0  0  0  0  0  0  0  0  0
    0.0000    5.1200    0.0000 H   0  0  0  0  0  0  0  0  0  0  0  0
  1 17  1  0  0  0  0
  1 18  1  0  0  0  0
 17  2  1  1  0  0  0
 19  2  1  6  0  0  0
 14  3  1  6  0  0  0
  3 37  1  0  0  0  0
 15  4  1  1  0  0  0
  4 38  1  0  0  0  0
 16  5  1  1  0  0  0
  5 39  1  0  0  0  0
 20  6  1  1  0  0  0
  6 44  1  0  0  0  0
 21  7  1  6  0  0  0
  7 45  1  0  0  0  0
  8 22  1  0  0  0  0
  8 46  1  0  0  0  0
 23  9  1  1  0  0  0
  9 47  1  0  0  0  0
 10 24  1  0  0  0  0
 10 48  1  0  0  0  0
 11 25  1  0  0  0  0
 11 49  1  0  0  0  0
 12 50  1  0  0  0  0
 12 51  1  0  0  0  0
 13 52  1  0  0  0  0
 13 53  1  0  0  0  0
 14 15  1  0  0  0  0
 14 17  1  0  0  0  0
 14 26  1  0  0  0  0
 15 16  1  0  0  0  0
 15 27  1  0  0  0  0
 16 18  1  0  0  0  0
 16 29  1  0  0  0  0
 17 28  1  0  0  0  0
 18 22  1  1  0  0  0
 18 30  1  0  0  0  0
 19 20  1  0  0  0  0
 19 21  1  0  0  0  0
 19 31  1  0  0  0  0
 20 23  1  0  0  0  0
 20 32  1  0  0  0  0
 21 24  1  0  0  0  0
 21 33  1  0  0  0  0
 22 34  1  0  0  0  0
 22 35  1  0  0  0  0
 23 25  1  0  0  0  0
 23 36  1  0  0  0  0
 24 40  1  0  0  0  0
 24 41  1  0  0  0  0
 25 42  1  0  0  0  0
 25 43  1  0  0  0  0
M  END
> <PUBCHEM_COMPOUND_CID>
157354

> <PUBCHEM_COMPOUND_CANONICALIZED>
1

> <PUBCHEM_CACTVS_COMPLEXITY>
343

> <PUBCHEM_CACTVS_HBOND_ACCEPTOR>
13

> <PUBCHEM_CACTVS_HBOND_DONOR>
11

> <PUBCHEM_CACTVS_ROTATABLE_BOND>
8

> <PUBCHEM_CACTVS_SUBSKEYS>
AAADceBwPAAAAAAAAAAAAAAAAAAAAAAAAAAkAAAAAAAAAAAAAAAAGgAACAAACBSwgAMACAAABgAAAAAAAAAAAAAAAAAAAAAAAAAREAIAAAAiQAAFAAAHAAHAYAwAAAAAAAAAAAAAAAAAAAAAAAAAAAAAAA==

> <PUBCHEM_IUPAC_OPENEYE_NAME>
(2S,3R,4R,5R)-4-[(2S,3R,4S,5R,6R)-3,4,5-trihydroxy-6-(hydroxymethyl)tetrahydropyran-2-yl]oxyhexane-1,2,3,5,6-pentol dihydrate

> <PUBCHEM_IUPAC_CAS_NAME>
(2S,3R,4R,5R)-4-[[(2S,3R,4S,5R,6R)-3,4,5-trihydroxy-6-(hydroxymethyl)-2-oxanyl]oxy]hexane-1,2,3,5,6-pentol dihydrate

> <PUBCHEM_IUPAC_NAME>
(2S,3R,4R,5R)-4-[(2S,3R,4S,5R,6R)-3,4,5-trihydroxy-6-(hydroxymethyl)oxan-2-yl]oxyhexane-1,2,3,5,6-pentol dihydrate

> <PUBCHEM_IUPAC_SYSTEMATIC_NAME>
(2S,3R,4R,5R)-4-[(2S,3R,4S,5R,6R)-6-(hydroxymethyl)-3,4,5-tris(oxidanyl)oxan-2-yl]oxyhexane-1,2,3,5,6-pentol dihydrate

> <PUBCHEM_IUPAC_TRADITIONAL_NAME>
(2S,3R,4R,5R)-4-[(2S,3R,4S,5R,6R)-3,4,5-trihydroxy-6-methylol-tetrahydropyran-2-yl]oxyhexane-1,2,3,5,6-pentol dihydrate

> <PUBCHEM_IUPAC_INCHI>
InChI=1S/C12H24O11.2H2O/c13-1-4(16)7(18)11(5(17)2-14)23-12-10(21)9(20)8(19)6(3-15)22-12;;/h4-21H,1-3H2;2*1H2/t4-,5+,6+,7+,8-,9-,10+,11+,12-;;/m0../s1

> <PUBCHEM_IUPAC_INCHIKEY>
VAOUPFUEMFJHKI-MTURKXFLSA-N

> <PUBCHEM_EXACT_MASS>
380.152991

> <PUBCHEM_MOLECULAR_FORMULA>
C12H28O13

> <PUBCHEM_MOLECULAR_WEIGHT>
380.34292

> <PUBCHEM_OPENEYE_CAN_SMILES>
C(C1C(C(C(C(O1)OC(C(CO)O)C(C(CO)O)O)O)O)O)O.O.O

> <PUBCHEM_OPENEYE_ISO_SMILES>
C([C@@H]1[C@@H]([C@@H]([C@H]([C@@H](O1)O[C@H]([C@@H](CO)O)[C@@H]([C@H](CO)O)O)O)O)O)O.O.O

> <PUBCHEM_CACTVS_TPSA>
203

> <PUBCHEM_MONOISOTOPIC_WEIGHT>
380.152991

> <PUBCHEM_TOTAL_CHARGE>
0

> <PUBCHEM_HEAVY_ATOM_COUNT>
25

> <PUBCHEM_ATOM_DEF_STEREO_COUNT>
9

> <PUBCHEM_ATOM_UDEF_STEREO_COUNT>
0

> <PUBCHEM_BOND_DEF_STEREO_COUNT>
0

> <PUBCHEM_BOND_UDEF_STEREO_COUNT>
0

> <PUBCHEM_ISOTOPIC_ATOM_COUNT>
0

> <PUBCHEM_COMPONENT_COUNT>
3

> <PUBCHEM_CACTVS_TAUTO_COUNT>
1

> <PUBCHEM_COORDINATE_TYPE>
1
5
255

> <PUBCHEM_BONDANNOTATIONS>
18  22  5
17  2  5
19  2  6
14  3  6
15  4  5
16  5  5
20  6  5
21  7  6
23  9  5

$$$$

