46174018
  -OEChem-07051213112D

 53 54  0     1  0  0  0  0  0999 V2000
    4.2690    0.8450    0.0000 O   0  0  0  0  0  0  0  0  0  0  0  0
    6.0010    0.8450    0.0000 O   0  0  0  0  0  0  0  0  0  0  0  0
    6.0010   -0.1550    0.0000 O   0  0  0  0  0  0  0  0  0  0  0  0
    2.5369   -2.1550    0.0000 O   0  0  0  0  0  0  0  0  0  0  0  0
    4.2690   -3.1550    0.0000 O   0  0  0  0  0  0  0  0  0  0  0  0
    6.0010   -2.1550    0.0000 N   0  0  0  0  0  0  0  0  0  0  0  0
    2.5369   -0.1550    0.0000 N   0  0  0  0  0  0  0  0  0  0  0  0
    4.2690    2.8450    0.0000 N   0  0  0  0  0  0  0  0  0  0  0  0
    8.5991    1.3450    0.0000 N   0  0  0  0  0  0  0  0  0  0  0  0
    4.2690   -0.1550    0.0000 C   0  0  2  0  0  0  0  0  0  0  0  0
    3.4030   -0.6550    0.0000 C   0  0  2  0  0  0  0  0  0  0  0  0
    5.1350   -0.6550    0.0000 C   0  0  1  0  0  0  0  0  0  0  0  0
    5.1350   -1.6550    0.0000 C   0  0  2  0  0  0  0  0  0  0  0  0
    3.4030   -1.6550    0.0000 C   0  0  1  0  0  0  0  0  0  0  0  0
    4.2690   -2.1550    0.0000 C   0  0  1  0  0  0  0  0  0  0  0  0
    5.1350    1.3450    0.0000 C   0  0  1  0  0  0  0  0  0  0  0  0
    5.1350    2.3450    0.0000 C   0  0  1  0  0  0  0  0  0  0  0  0
    6.8671    1.3450    0.0000 C   0  0  1  0  0  0  0  0  0  0  0  0
    6.0010    2.8450    0.0000 C   0  0  0  0  0  0  0  0  0  0  0  0
    6.8671    2.3450    0.0000 C   0  0  0  0  0  0  0  0  0  0  0  0
    7.7331    0.8450    0.0000 C   0  0  2  0  0  0  0  0  0  0  0  0
    6.0010   -3.1550    0.0000 C   0  0  0  0  0  0  0  0  0  0  0  0
    7.7331   -0.1550    0.0000 C   0  0  0  0  0  0  0  0  0  0  0  0
    4.8059    0.1550    0.0000 H   0  0  0  0  0  0  0  0  0  0  0  0
    3.4030   -0.0350    0.0000 H   0  0  0  0  0  0  0  0  0  0  0  0
    5.1350   -0.0350    0.0000 H   0  0  0  0  0  0  0  0  0  0  0  0
    5.1350   -2.2750    0.0000 H   0  0  0  0  0  0  0  0  0  0  0  0
    3.4030   -2.2750    0.0000 H   0  0  0  0  0  0  0  0  0  0  0  0
    4.8059   -2.4650    0.0000 H   0  0  0  0  0  0  0  0  0  0  0  0
    5.1350    0.7250    0.0000 H   0  0  0  0  0  0  0  0  0  0  0  0
    5.1350    2.9650    0.0000 H   0  0  0  0  0  0  0  0  0  0  0  0
    6.8671    0.4950    0.0000 H   0  0  0  0  0  0  0  0  0  0  0  0
    6.3996    3.3200    0.0000 H   0  0  0  0  0  0  0  0  0  0  0  0
    5.6025    3.3200    0.0000 H   0  0  0  0  0  0  0  0  0  0  0  0
    7.4776    2.2373    0.0000 H   0  0  0  0  0  0  0  0  0  0  0  0
    7.0791    2.9276    0.0000 H   0  0  0  0  0  0  0  0  0  0  0  0
    6.5380   -1.8450    0.0000 H   0  0  0  0  0  0  0  0  0  0  0  0
    2.0000   -0.4650    0.0000 H   0  0  0  0  0  0  0  0  0  0  0  0
    2.5369    0.4650    0.0000 H   0  0  0  0  0  0  0  0  0  0  0  0
    7.7331    1.4650    0.0000 H   0  0  0  0  0  0  0  0  0  0  0  0
    6.5380   -0.4650    0.0000 H   0  0  0  0  0  0  0  0  0  0  0  0
    2.5369   -2.7750    0.0000 H   0  0  0  0  0  0  0  0  0  0  0  0
    3.7320   -3.4650    0.0000 H   0  0  0  0  0  0  0  0  0  0  0  0
    4.2690    3.4650    0.0000 H   0  0  0  0  0  0  0  0  0  0  0  0
    3.7320    2.5350    0.0000 H   0  0  0  0  0  0  0  0  0  0  0  0
    5.3810   -3.1550    0.0000 H   0  0  0  0  0  0  0  0  0  0  0  0
    6.0010   -3.7750    0.0000 H   0  0  0  0  0  0  0  0  0  0  0  0
    6.6210   -3.1550    0.0000 H   0  0  0  0  0  0  0  0  0  0  0  0
    7.1131   -0.1550    0.0000 H   0  0  0  0  0  0  0  0  0  0  0  0
    7.7331   -0.7750    0.0000 H   0  0  0  0  0  0  0  0  0  0  0  0
    8.3531   -0.1550    0.0000 H   0  0  0  0  0  0  0  0  0  0  0  0
    9.1360    1.0350    0.0000 H   0  0  0  0  0  0  0  0  0  0  0  0
    8.5991    1.9650    0.0000 H   0  0  0  0  0  0  0  0  0  0  0  0
 10  1  1  1  0  0  0
 16  1  1  6  0  0  0
  2 16  1  0  0  0  0
  2 18  1  0  0  0  0
 12  3  1  6  0  0  0
  3 41  1  0  0  0  0
 14  4  1  1  0  0  0
  4 42  1  0  0  0  0
 15  5  1  6  0  0  0
  5 43  1  0  0  0  0
 13  6  1  1  0  0  0
  6 22  1  0  0  0  0
  6 37  1  0  0  0  0
 11  7  1  6  0  0  0
  7 38  1  0  0  0  0
  7 39  1  0  0  0  0
 17  8  1  6  0  0  0
  8 44  1  0  0  0  0
  8 45  1  0  0  0  0
 21  9  1  1  0  0  0
  9 52  1  0  0  0  0
  9 53  1  0  0  0  0
 10 11  1  0  0  0  0
 10 12  1  0  0  0  0
 10 24  1  0  0  0  0
 11 14  1  0  0  0  0
 11 25  1  0  0  0  0
 12 13  1  0  0  0  0
 12 26  1  0  0  0  0
 13 15  1  0  0  0  0
 13 27  1  0  0  0  0
 14 15  1  0  0  0  0
 14 28  1  0  0  0  0
 15 29  1  0  0  0  0
 16 17  1  0  0  0  0
 16 30  1  0  0  0  0
 17 19  1  0  0  0  0
 17 31  1  0  0  0  0
 18 20  1  0  0  0  0
 18 21  1  0  0  0  0
 18 32  1  6  0  0  0
 19 20  1  0  0  0  0
 19 33  1  0  0  0  0
 19 34  1  0  0  0  0
 20 35  1  0  0  0  0
 20 36  1  0  0  0  0
 21 23  1  0  0  0  0
 21 40  1  0  0  0  0
 22 46  1  0  0  0  0
 22 47  1  0  0  0  0
 22 48  1  0  0  0  0
 23 49  1  0  0  0  0
 23 50  1  0  0  0  0
 23 51  1  0  0  0  0
M  END
> <PUBCHEM_COMPOUND_CID>
46174018

> <PUBCHEM_COMPOUND_CANONICALIZED>
1

> <PUBCHEM_CACTVS_COMPLEXITY>
390

> <PUBCHEM_CACTVS_HBOND_ACCEPTOR>
9

> <PUBCHEM_CACTVS_HBOND_DONOR>
7

> <PUBCHEM_CACTVS_ROTATABLE_BOND>
4

> <PUBCHEM_CACTVS_SUBSKEYS>
AAADceBzuAAAAAAAAAAAAAAAAAAAAAAAAAA0QAAAAAAAAAAAAAAAHgAQCAAACDzxgAcCCALABgAAAAAAAAAAAAAAAAAAAIAIAAATEAIAgAAnQAAHEAAXAAHw8C8AAAAAAAAAAAACAQAUAACgAAAAAAAAAA==

> <PUBCHEM_IUPAC_OPENEYE_NAME>
(1S,2S,3S,4R,5R,6S)-6-amino-5-[(2R,3R,6S)-3-amino-6-[(1S)-1-aminoethyl]tetrahydropyran-2-yl]oxy-3-(methylamino)cyclohexane-1,2,4-triol

> <PUBCHEM_IUPAC_CAS_NAME>
(1S,2S,3S,4R,5R,6S)-6-amino-5-[[(2R,3R,6S)-3-amino-6-[(1S)-1-aminoethyl]-2-oxanyl]oxy]-3-(methylamino)cyclohexane-1,2,4-triol

> <PUBCHEM_IUPAC_NAME>
(1S,2S,3S,4R,5R,6S)-6-amino-5-[(2R,3R,6S)-3-amino-6-[(1S)-1-aminoethyl]oxan-2-yl]oxy-3-(methylamino)cyclohexane-1,2,4-triol

> <PUBCHEM_IUPAC_SYSTEMATIC_NAME>
(1S,2S,3S,4R,5R,6S)-6-azanyl-5-[(2R,3R,6S)-3-azanyl-6-[(1S)-1-azanylethyl]oxan-2-yl]oxy-3-(methylamino)cyclohexane-1,2,4-triol

> <PUBCHEM_IUPAC_TRADITIONAL_NAME>
(1S,2S,3S,4R,5R,6S)-6-amino-5-[(2R,3R,6S)-3-amino-6-[(1S)-1-aminoethyl]tetrahydropyran-2-yl]oxy-3-(methylamino)cyclohexane-1,2,4-triol

> <PUBCHEM_IUPAC_INCHI>
InChI=1S/C14H30N4O5/c1-5(15)7-4-3-6(16)14(22-7)23-13-8(17)10(19)11(20)9(18-2)12(13)21/h5-14,18-21H,3-4,15-17H2,1-2H3/t5-,6+,7-,8-,9-,10-,11-,12+,13+,14+/m0/s1

> <PUBCHEM_IUPAC_INCHIKEY>
KBIFQFMZFNTDKE-DHPLRXPASA-N

> <PUBCHEM_XLOGP3_AA>
-4

> <PUBCHEM_EXACT_MASS>
334.22162

> <PUBCHEM_MOLECULAR_FORMULA>
C14H30N4O5

> <PUBCHEM_MOLECULAR_WEIGHT>
334.4118

> <PUBCHEM_OPENEYE_CAN_SMILES>
CC(C1CCC(C(O1)OC2C(C(C(C(C2O)NC)O)O)N)N)N

> <PUBCHEM_OPENEYE_ISO_SMILES>
C[C@@H]([C@@H]1CC[C@H]([C@H](O1)O[C@@H]2[C@H]([C@@H]([C@H]([C@@H]([C@H]2O)NC)O)O)N)N)N

> <PUBCHEM_CACTVS_TPSA>
169

> <PUBCHEM_MONOISOTOPIC_WEIGHT>
334.22162

> <PUBCHEM_TOTAL_CHARGE>
0

> <PUBCHEM_HEAVY_ATOM_COUNT>
23

> <PUBCHEM_ATOM_DEF_STEREO_COUNT>
10

> <PUBCHEM_ATOM_UDEF_STEREO_COUNT>
0

> <PUBCHEM_BOND_DEF_STEREO_COUNT>
0

> <PUBCHEM_BOND_UDEF_STEREO_COUNT>
0

> <PUBCHEM_ISOTOPIC_ATOM_COUNT>
0

> <PUBCHEM_COMPONENT_COUNT>
1

> <PUBCHEM_CACTVS_TAUTO_COUNT>
1

> <PUBCHEM_COORDINATE_TYPE>
1
5
255

> <PUBCHEM_BONDANNOTATIONS>
10  1  5
16  1  6
18  32  6
12  3  6
14  4  5
15  5  6
13  6  5
11  7  6
17  8  6
21  9  5

$$$$

