17395867
  -OEChem-06241222522D

 43 44  0     1  0  0  0  0  0999 V2000
    8.9282    2.1550    0.0000 Cl  0  0  0  0  0  0  0  0  0  0  0  0
    8.9282   -1.8450    0.0000 O   0  0  0  0  0  0  0  0  0  0  0  0
    4.5981    0.6550    0.0000 O   0  0  0  0  0  0  0  0  0  0  0  0
    6.3301   -0.3450    0.0000 N   0  0  3  0  0  0  0  0  0  0  0  0
    3.7320   -0.8450    0.0000 N   0  0  0  0  0  0  0  0  0  0  0  0
    7.1962   -0.8450    0.0000 C   0  0  0  0  0  0  0  0  0  0  0  0
    8.0622   -0.3450    0.0000 C   0  0  0  0  0  0  0  0  0  0  0  0
    5.4641   -0.8450    0.0000 C   0  0  0  0  0  0  0  0  0  0  0  0
    8.9282   -0.8450    0.0000 C   0  0  0  0  0  0  0  0  0  0  0  0
    9.7942   -0.3450    0.0000 C   0  0  0  0  0  0  0  0  0  0  0  0
    9.7942    0.6550    0.0000 C   0  0  0  0  0  0  0  0  0  0  0  0
    2.8660   -0.3450    0.0000 C   0  0  0  0  0  0  0  0  0  0  0  0
    8.0622    0.6550    0.0000 C   0  0  0  0  0  0  0  0  0  0  0  0
    4.5981   -0.3450    0.0000 C   0  0  0  0  0  0  0  0  0  0  0  0
    6.3301    0.6550    0.0000 C   0  0  0  0  0  0  0  0  0  0  0  0
    8.9282    1.1550    0.0000 C   0  0  0  0  0  0  0  0  0  0  0  0
   10.6882   -0.8797    0.0000 C   0  0  0  0  0  0  0  0  0  0  0  0
   10.6882    1.1897    0.0000 C   0  0  0  0  0  0  0  0  0  0  0  0
    2.0000   -0.8450    0.0000 C   0  0  0  0  0  0  0  0  0  0  0  0
    2.8660    0.6550    0.0000 C   0  0  0  0  0  0  0  0  0  0  0  0
   11.5942   -0.3658    0.0000 C   0  0  0  0  0  0  0  0  0  0  0  0
   11.5942    0.6758    0.0000 C   0  0  0  0  0  0  0  0  0  0  0  0
    6.7976   -1.3200    0.0000 H   0  0  0  0  0  0  0  0  0  0  0  0
    7.5947   -1.3200    0.0000 H   0  0  0  0  0  0  0  0  0  0  0  0
    5.0656   -1.3200    0.0000 H   0  0  0  0  0  0  0  0  0  0  0  0
    5.8626   -1.3200    0.0000 H   0  0  0  0  0  0  0  0  0  0  0  0
    2.8660   -0.9650    0.0000 H   0  0  0  0  0  0  0  0  0  0  0  0
    7.5252    0.9650    0.0000 H   0  0  0  0  0  0  0  0  0  0  0  0
    6.9501    0.6550    0.0000 H   0  0  0  0  0  0  0  0  0  0  0  0
    6.3301    1.2750    0.0000 H   0  0  0  0  0  0  0  0  0  0  0  0
    5.7101    0.6550    0.0000 H   0  0  0  0  0  0  0  0  0  0  0  0
    3.7320   -1.4650    0.0000 H   0  0  0  0  0  0  0  0  0  0  0  0
   10.6810   -1.4996    0.0000 H   0  0  0  0  0  0  0  0  0  0  0  0
   10.6810    1.8096    0.0000 H   0  0  0  0  0  0  0  0  0  0  0  0
    3.4860    0.6550    0.0000 H   0  0  0  0  0  0  0  0  0  0  0  0
    1.6900   -0.3081    0.0000 H   0  0  0  0  0  0  0  0  0  0  0  0
    1.4631   -1.1550    0.0000 H   0  0  0  0  0  0  0  0  0  0  0  0
    2.3100   -1.3819    0.0000 H   0  0  0  0  0  0  0  0  0  0  0  0
    2.8660    1.2750    0.0000 H   0  0  0  0  0  0  0  0  0  0  0  0
    2.2460    0.6550    0.0000 H   0  0  0  0  0  0  0  0  0  0  0  0
   12.1300   -0.6779    0.0000 H   0  0  0  0  0  0  0  0  0  0  0  0
   12.1300    0.9879    0.0000 H   0  0  0  0  0  0  0  0  0  0  0  0
    8.3913   -2.1550    0.0000 H   0  0  0  0  0  0  0  0  0  0  0  0
  1 16  1  0  0  0  0
  2  9  1  0  0  0  0
  2 43  1  0  0  0  0
  3 14  2  0  0  0  0
  4  6  1  0  0  0  0
  4  8  1  0  0  0  0
  4 15  1  0  0  0  0
  5 12  1  0  0  0  0
  5 14  1  0  0  0  0
  5 32  1  0  0  0  0
  6  7  1  0  0  0  0
  6 23  1  0  0  0  0
  6 24  1  0  0  0  0
  7  9  2  0  0  0  0
  7 13  1  0  0  0  0
  8 14  1  0  0  0  0
  8 25  1  0  0  0  0
  8 26  1  0  0  0  0
  9 10  1  0  0  0  0
 10 11  1  0  0  0  0
 10 17  2  0  0  0  0
 11 16  1  0  0  0  0
 11 18  2  0  0  0  0
 12 19  1  0  0  0  0
 12 20  1  0  0  0  0
 12 27  1  0  0  0  0
 13 16  2  0  0  0  0
 13 28  1  0  0  0  0
 15 29  1  0  0  0  0
 15 30  1  0  0  0  0
 15 31  1  0  0  0  0
 17 21  1  0  0  0  0
 17 33  1  0  0  0  0
 18 22  1  0  0  0  0
 18 34  1  0  0  0  0
 19 36  1  0  0  0  0
 19 37  1  0  0  0  0
 19 38  1  0  0  0  0
 20 35  1  0  0  0  0
 20 39  1  0  0  0  0
 20 40  1  0  0  0  0
 21 22  2  0  0  0  0
 21 41  1  0  0  0  0
 22 42  1  0  0  0  0
M  END
> <PUBCHEM_COMPOUND_CID>
17395867

> <PUBCHEM_COMPOUND_CANONICALIZED>
1

> <PUBCHEM_CACTVS_COMPLEXITY>
378

> <PUBCHEM_CACTVS_HBOND_ACCEPTOR>
3

> <PUBCHEM_CACTVS_HBOND_DONOR>
2

> <PUBCHEM_CACTVS_ROTATABLE_BOND>
5

> <PUBCHEM_CACTVS_SUBSKEYS>
AAADceB7MAAEAAAAAAAAAAAAAAAAAAAAAAAwYAAAAAAAAADBUAAAHgIQCAAADC7BmCQyBsPAAgCIAiFSEACCAAAgJQAIiICMDogIZiKDkzOUcAhm1hGImAeQwPAOwCADIAAZAACAQAZAADIAAAAAAAAAAA==

> <PUBCHEM_IUPAC_OPENEYE_NAME>
2-[(4-chloro-1-hydroxy-2-naphthyl)methyl-methyl-amino]-N-isopropyl-acetamide

> <PUBCHEM_IUPAC_CAS_NAME>
2-[(4-chloro-1-hydroxy-2-naphthalenyl)methyl-methylamino]-N-propan-2-ylacetamide

> <PUBCHEM_IUPAC_NAME>
2-[(4-chloro-1-hydroxynaphthalen-2-yl)methyl-methylamino]-N-propan-2-ylacetamide

> <PUBCHEM_IUPAC_SYSTEMATIC_NAME>
2-[(4-chloranyl-1-oxidanyl-naphthalen-2-yl)methyl-methyl-amino]-N-propan-2-yl-ethanamide

> <PUBCHEM_IUPAC_TRADITIONAL_NAME>
2-[(4-chloro-1-hydroxy-2-naphthyl)methyl-methyl-amino]-N-isopropyl-acetamide

> <PUBCHEM_IUPAC_INCHI>
InChI=1S/C17H21ClN2O2/c1-11(2)19-16(21)10-20(3)9-12-8-15(18)13-6-4-5-7-14(13)17(12)22/h4-8,11,22H,9-10H2,1-3H3,(H,19,21)

> <PUBCHEM_IUPAC_INCHIKEY>
IHJPMBLJCBJONZ-UHFFFAOYSA-N

> <PUBCHEM_XLOGP3_AA>
3.4

> <PUBCHEM_EXACT_MASS>
320.129156

> <PUBCHEM_MOLECULAR_FORMULA>
C17H21ClN2O2

> <PUBCHEM_MOLECULAR_WEIGHT>
320.81384

> <PUBCHEM_OPENEYE_CAN_SMILES>
CC(C)NC(=O)CN(C)CC1=C(C2=CC=CC=C2C(=C1)Cl)O

> <PUBCHEM_OPENEYE_ISO_SMILES>
CC(C)NC(=O)CN(C)CC1=C(C2=CC=CC=C2C(=C1)Cl)O

> <PUBCHEM_CACTVS_TPSA>
52.6

> <PUBCHEM_MONOISOTOPIC_WEIGHT>
320.129156

> <PUBCHEM_TOTAL_CHARGE>
0

> <PUBCHEM_HEAVY_ATOM_COUNT>
22

> <PUBCHEM_ATOM_DEF_STEREO_COUNT>
0

> <PUBCHEM_ATOM_UDEF_STEREO_COUNT>
0

> <PUBCHEM_BOND_DEF_STEREO_COUNT>
0

> <PUBCHEM_BOND_UDEF_STEREO_COUNT>
0

> <PUBCHEM_ISOTOPIC_ATOM_COUNT>
0

> <PUBCHEM_COMPONENT_COUNT>
1

> <PUBCHEM_CACTVS_TAUTO_COUNT>
4

> <PUBCHEM_COORDINATE_TYPE>
1
5
255

> <PUBCHEM_BONDANNOTATIONS>
10  11  8
10  17  8
11  16  8
11  18  8
13  16  8
17  21  8
18  22  8
21  22  8
7  13  8
7  9  8
9  10  8

$$$$

