6325833
  -OEChem-07051212552D

 69 72  0     1  0  0  0  0  0999 V2000
    6.8671   -5.6985    0.0000 S   0  0  0  0  0  0  0  0  0  0  0  0
    5.1350   -2.6985    0.0000 O   0  0  0  0  0  0  0  0  0  0  0  0
    4.2690   -1.1985    0.0000 O   0  0  0  0  0  0  0  0  0  0  0  0
    2.5369   -4.1985    0.0000 O   0  0  0  0  0  0  0  0  0  0  0  0
    4.2690   -5.1985    0.0000 O   0  0  0  0  0  0  0  0  0  0  0  0
    2.5369   -2.1985    0.0000 O   0  0  0  0  0  0  0  0  0  0  0  0
    6.0010   -5.1985    0.0000 O   0  0  0  0  0  0  0  0  0  0  0  0
    4.2690    0.8015    0.0000 O   0  0  0  0  0  0  0  0  0  0  0  0
    9.8969   -1.0646    0.0000 O   0  0  0  0  0  0  0  0  0  0  0  0
    9.8969    0.6675    0.0000 O   0  0  0  0  0  0  0  0  0  0  0  0
    7.7331   -6.1985    0.0000 O   0  5  0  0  0  0  0  0  0  0  0  0
    6.3671   -6.5646    0.0000 O   0  0  0  0  0  0  0  0  0  0  0  0
    7.3671   -4.8325    0.0000 O   0  0  0  0  0  0  0  0  0  0  0  0
    8.6988    6.1031    0.0000 O   0  0  0  0  0  0  0  0  0  0  0  0
    7.4096    4.9464    0.0000 O   0  0  0  0  0  0  0  0  0  0  0  0
   12.3486    3.3321    0.0000 O   0  0  0  0  0  0  0  0  0  0  0  0
   11.9914    5.0269    0.0000 O   0  0  0  0  0  0  0  0  0  0  0  0
    7.8133    0.6062    0.0000 N   0  3  0  0  0  0  0  0  0  0  0  0
   10.0344    4.6145    0.0000 N   0  0  0  0  0  0  0  0  0  0  0  0
    3.4030   -3.6985    0.0000 C   0  0  1  0  0  0  0  0  0  0  0  0
    4.2690   -4.1985    0.0000 C   0  0  1  0  0  0  0  0  0  0  0  0
    3.4030   -2.6985    0.0000 C   0  0  2  0  0  0  0  0  0  0  0  0
    5.1350   -3.6985    0.0000 C   0  0  1  0  0  0  0  0  0  0  0  0
    4.2690   -2.1985    0.0000 C   0  0  1  0  0  0  0  0  0  0  0  0
    8.3969   -0.1985    0.0000 C   0  0  1  0  0  0  0  0  0  0  0  0
    6.0010   -4.1985    0.0000 C   0  0  0  0  0  0  0  0  0  0  0  0
    7.8133   -1.0033    0.0000 C   0  0  0  0  0  0  0  0  0  0  0  0
    6.8671   -0.6985    0.0000 C   0  0  0  0  0  0  0  0  0  0  0  0
    6.8671    0.3015    0.0000 C   0  0  0  0  0  0  0  0  0  0  0  0
    5.1350   -0.6985    0.0000 C   0  0  0  0  0  0  0  0  0  0  0  0
    6.0010   -1.1985    0.0000 C   0  0  0  0  0  0  0  0  0  0  0  0
    6.0010    0.8015    0.0000 C   0  0  0  0  0  0  0  0  0  0  0  0
    5.1350    0.3015    0.0000 C   0  0  0  0  0  0  0  0  0  0  0  0
    8.1240    1.5567    0.0000 C   0  0  0  0  0  0  0  0  0  0  0  0
    9.3969   -0.1985    0.0000 C   0  0  0  0  0  0  0  0  0  0  0  0
    9.1024    1.7629    0.0000 C   0  0  0  0  0  0  0  0  0  0  0  0
    9.4131    2.7134    0.0000 C   0  0  0  0  0  0  0  0  0  0  0  0
    8.7453    3.4578    0.0000 C   0  0  0  0  0  0  0  0  0  0  0  0
    9.0559    4.4083    0.0000 C   0  0  2  0  0  0  0  0  0  0  0  0
   10.3916    2.9197    0.0000 C   0  0  0  0  0  0  0  0  0  0  0  0
   10.7023    3.8702    0.0000 C   0  0  0  0  0  0  0  0  0  0  0  0
    8.3881    5.1526    0.0000 C   0  0  0  0  0  0  0  0  0  0  0  0
   11.6808    4.0764    0.0000 C   0  0  0  0  0  0  0  0  0  0  0  0
    2.8660   -3.3885    0.0000 H   0  0  0  0  0  0  0  0  0  0  0  0
    4.8059   -4.5085    0.0000 H   0  0  0  0  0  0  0  0  0  0  0  0
    3.4030   -2.0785    0.0000 H   0  0  0  0  0  0  0  0  0  0  0  0
    5.6720   -3.3885    0.0000 H   0  0  0  0  0  0  0  0  0  0  0  0
    3.7320   -1.8885    0.0000 H   0  0  0  0  0  0  0  0  0  0  0  0
    8.6786    0.3538    0.0000 H   0  0  0  0  0  0  0  0  0  0  0  0
    6.6116   -4.3062    0.0000 H   0  0  0  0  0  0  0  0  0  0  0  0
    6.2131   -3.6159    0.0000 H   0  0  0  0  0  0  0  0  0  0  0  0
    7.5622   -1.5702    0.0000 H   0  0  0  0  0  0  0  0  0  0  0  0
    8.3507   -1.3125    0.0000 H   0  0  0  0  0  0  0  0  0  0  0  0
    6.0010   -1.8185    0.0000 H   0  0  0  0  0  0  0  0  0  0  0  0
    2.5369   -4.8185    0.0000 H   0  0  0  0  0  0  0  0  0  0  0  0
    3.7320   -5.5085    0.0000 H   0  0  0  0  0  0  0  0  0  0  0  0
    2.0000   -2.5085    0.0000 H   0  0  0  0  0  0  0  0  0  0  0  0
    6.0010    1.4215    0.0000 H   0  0  0  0  0  0  0  0  0  0  0  0
    7.7099    2.0182    0.0000 H   0  0  0  0  0  0  0  0  0  0  0  0
    9.5165    1.3015    0.0000 H   0  0  0  0  0  0  0  0  0  0  0  0
    8.1984    3.7498    0.0000 H   0  0  0  0  0  0  0  0  0  0  0  0
    8.3627    2.9698    0.0000 H   0  0  0  0  0  0  0  0  0  0  0  0
    9.2485    4.9976    0.0000 H   0  0  0  0  0  0  0  0  0  0  0  0
    4.2690    1.4215    0.0000 H   0  0  0  0  0  0  0  0  0  0  0  0
   10.8057    2.4582    0.0000 H   0  0  0  0  0  0  0  0  0  0  0  0
   10.2270    5.2038    0.0000 H   0  0  0  0  0  0  0  0  0  0  0  0
   10.5169   -1.0646    0.0000 H   0  0  0  0  0  0  0  0  0  0  0  0
    8.2847    6.5646    0.0000 H   0  0  0  0  0  0  0  0  0  0  0  0
   12.9553    3.4600    0.0000 H   0  0  0  0  0  0  0  0  0  0  0  0
  1  7  1  0  0  0  0
  1 11  1  0  0  0  0
  1 12  2  0  0  0  0
  1 13  2  0  0  0  0
  2 23  1  0  0  0  0
  2 24  1  0  0  0  0
 24  3  1  6  0  0  0
  3 30  1  0  0  0  0
 20  4  1  6  0  0  0
  4 55  1  0  0  0  0
 21  5  1  1  0  0  0
  5 56  1  0  0  0  0
 22  6  1  1  0  0  0
  6 57  1  0  0  0  0
  7 26  1  0  0  0  0
  8 33  1  0  0  0  0
  8 64  1  0  0  0  0
  9 35  1  0  0  0  0
  9 67  1  0  0  0  0
 10 35  2  0  0  0  0
 14 42  1  0  0  0  0
 14 68  1  0  0  0  0
 15 42  2  0  0  0  0
 16 43  1  0  0  0  0
 16 69  1  0  0  0  0
 17 43  2  0  0  0  0
 18 25  1  0  0  0  0
 18 29  1  0  0  0  0
 18 34  2  0  0  0  0
 19 39  1  0  0  0  0
 19 41  1  0  0  0  0
 19 66  1  0  0  0  0
 20 21  1  0  0  0  0
 20 22  1  0  0  0  0
 20 44  1  0  0  0  0
 21 23  1  0  0  0  0
 21 45  1  0  0  0  0
 22 24  1  0  0  0  0
 22 46  1  0  0  0  0
 23 26  1  6  0  0  0
 23 47  1  0  0  0  0
 24 48  1  0  0  0  0
 25 27  1  0  0  0  0
 25 35  1  6  0  0  0
 25 49  1  0  0  0  0
 26 50  1  0  0  0  0
 26 51  1  0  0  0  0
 27 28  1  0  0  0  0
 27 52  1  0  0  0  0
 27 53  1  0  0  0  0
 28 29  1  0  0  0  0
 28 31  2  0  0  0  0
 29 32  2  0  0  0  0
 30 31  1  0  0  0  0
 30 33  2  0  0  0  0
 31 54  1  0  0  0  0
 32 33  1  0  0  0  0
 32 58  1  0  0  0  0
 34 36  1  0  0  0  0
 34 59  1  0  0  0  0
 36 37  2  0  0  0  0
 36 60  1  0  0  0  0
 37 38  1  0  0  0  0
 37 40  1  0  0  0  0
 38 39  1  0  0  0  0
 38 61  1  0  0  0  0
 38 62  1  0  0  0  0
 39 42  1  6  0  0  0
 39 63  1  0  0  0  0
 40 41  2  0  0  0  0
 40 65  1  0  0  0  0
 41 43  1  0  0  0  0
M  CHG  2  11  -1  18   1
M  END
> <PUBCHEM_COMPOUND_CID>
6325833

> <PUBCHEM_COMPOUND_CANONICALIZED>
1

> <PUBCHEM_CACTVS_COMPLEXITY>
1300

> <PUBCHEM_CACTVS_HBOND_ACCEPTOR>
17

> <PUBCHEM_CACTVS_HBOND_DONOR>
8

> <PUBCHEM_CACTVS_ROTATABLE_BOND>
8

> <PUBCHEM_CACTVS_SUBSKEYS>
AAADceB7PgBAAAAAAAAAAAAAAAAAAWAAAAA0QIAAAAAAAFgBAAAAHgAQCAAADDzxmAcwzoPABgCoAjTzTDCCCAAhIgAAiIGe7NgfNjLGsbumeCvn0Bnf+Yf4+b+eIEABAgACQABAgAIEAASAAAAAAAAAAA==

> <PUBCHEM_IUPAC_OPENEYE_NAME>
[(2R,3S,4S,5R,6S)-6-[(2S)-2-carboxy-1-[(2E)-2-[(2R)-2,6-dicarboxy-2,3-dihydro-1H-pyridin-4-ylidene]ethylidene]-6-hydroxy-indolin-1-ium-5-yl]oxy-3,4,5-trihydroxy-tetrahydropyran-2-yl]methyl sulfate

> <PUBCHEM_IUPAC_CAS_NAME>
[(2R,3S,4S,5R,6S)-6-[[(2S)-2-carboxy-1-[(2E)-2-[(2R)-2,6-dicarboxy-2,3-dihydro-1H-pyridin-4-ylidene]ethylidene]-6-hydroxy-2,3-dihydroindol-1-ium-5-yl]oxy]-3,4,5-trihydroxy-2-oxanyl]methyl sulfate

> <PUBCHEM_IUPAC_NAME>
[(2R,3S,4S,5R,6S)-6-[[(2S)-2-carboxy-1-[(2E)-2-[(2R)-2,6-dicarboxy-2,3-dihydro-1H-pyridin-4-ylidene]ethylidene]-6-hydroxy-2,3-dihydroindol-1-ium-5-yl]oxy]-3,4,5-trihydroxyoxan-2-yl]methyl sulfate

> <PUBCHEM_IUPAC_SYSTEMATIC_NAME>
[(2R,3S,4S,5R,6S)-6-[[(2S)-2-carboxy-1-[(2E)-2-[(2R)-2,6-dicarboxy-2,3-dihydro-1H-pyridin-4-ylidene]ethylidene]-6-oxidanyl-2,3-dihydroindol-1-ium-5-yl]oxy]-3,4,5-tris(oxidanyl)oxan-2-yl]methyl sulfate

> <PUBCHEM_IUPAC_TRADITIONAL_NAME>
[(2R,3S,4S,5R,6S)-6-[(2S)-2-carboxy-1-[(2E)-2-[(2R)-2,6-dicarboxy-2,3-dihydro-1H-pyridin-4-ylidene]ethylidene]-6-hydroxy-indolin-1-ium-5-yl]oxy-3,4,5-trihydroxy-tetrahydropyran-2-yl]methyl sulfate

> <PUBCHEM_IUPAC_INCHI>
InChI=1S/C24H26N2O16S/c27-15-7-13-10(6-16(15)41-24-20(30)19(29)18(28)17(42-24)8-40-43(37,38)39)5-14(23(35)36)26(13)2-1-9-3-11(21(31)32)25-12(4-9)22(33)34/h1-3,6-7,12,14,17-20,24,28-30H,4-5,8H2,(H5,27,31,32,33,34,35,36,37,38,39)/t12-,14+,17-,18-,19+,20-,24-/m1/s1

> <PUBCHEM_IUPAC_INCHIKEY>
OZXPZOHWSFDUDY-RYGANQNKSA-N

> <PUBCHEM_XLOGP3_AA>
-2.5

> <PUBCHEM_EXACT_MASS>
630.100304

> <PUBCHEM_MOLECULAR_FORMULA>
C24H26N2O16S

> <PUBCHEM_MOLECULAR_WEIGHT>
630.53204

> <PUBCHEM_OPENEYE_CAN_SMILES>
C1C(NC(=CC1=CC=[N+]2C(CC3=CC(=C(C=C32)O)OC4C(C(C(C(O4)COS(=O)(=O)[O-])O)O)O)C(=O)O)C(=O)O)C(=O)O

> <PUBCHEM_OPENEYE_ISO_SMILES>
C\1[C@@H](NC(=C/C1=C/C=[N+]2[C@@H](CC3=CC(=C(C=C32)O)O[C@H]4[C@@H]([C@H]([C@@H]([C@H](O4)COS(=O)(=O)[O-])O)O)O)C(=O)O)C(=O)O)C(=O)O

> <PUBCHEM_CACTVS_TPSA>
301

> <PUBCHEM_MONOISOTOPIC_WEIGHT>
630.100304

> <PUBCHEM_TOTAL_CHARGE>
0

> <PUBCHEM_HEAVY_ATOM_COUNT>
43

> <PUBCHEM_ATOM_DEF_STEREO_COUNT>
7

> <PUBCHEM_ATOM_UDEF_STEREO_COUNT>
0

> <PUBCHEM_BOND_DEF_STEREO_COUNT>
1

> <PUBCHEM_BOND_UDEF_STEREO_COUNT>
0

> <PUBCHEM_ISOTOPIC_ATOM_COUNT>
0

> <PUBCHEM_COMPONENT_COUNT>
1

> <PUBCHEM_CACTVS_TAUTO_COUNT>
3

> <PUBCHEM_COORDINATE_TYPE>
1
5
255

> <PUBCHEM_BONDANNOTATIONS>
23  26  6
25  35  6
28  29  8
28  31  8
29  32  8
24  3  6
30  31  8
30  33  8
32  33  8
39  42  6
20  4  6
21  5  5
22  6  5

$$$$

