442670
  -OEChem-07051212592D

 39 41  0     1  0  0  0  0  0999 V2000
    6.3301    1.5479    0.0000 O   0  0  0  0  0  0  0  0  0  0  0  0
    6.3301   -1.4521    0.0000 O   0  0  0  0  0  0  0  0  0  0  0  0
    3.7320    1.0479    0.0000 O   0  0  0  0  0  0  0  0  0  0  0  0
    8.0785   -1.4867    0.0000 O   0  0  0  0  0  0  0  0  0  0  0  0
    9.8602    1.5721    0.0000 O   0  0  0  0  0  0  0  0  0  0  0  0
    2.0000   -1.9521    0.0000 O   0  0  0  0  0  0  0  0  0  0  0  0
    5.4641    0.0479    0.0000 C   0  0  3  0  0  0  0  0  0  0  0  0
    5.4641    1.0479    0.0000 C   0  0  0  0  0  0  0  0  0  0  0  0
    4.5981   -0.4521    0.0000 C   0  0  0  0  0  0  0  0  0  0  0  0
    6.3301   -0.4521    0.0000 C   0  0  0  0  0  0  0  0  0  0  0  0
    7.1962    0.0479    0.0000 C   0  0  0  0  0  0  0  0  0  0  0  0
    7.1962    1.0479    0.0000 C   0  0  0  0  0  0  0  0  0  0  0  0
    3.7320    0.0479    0.0000 C   0  0  0  0  0  0  0  0  0  0  0  0
    4.5981   -1.4521    0.0000 C   0  0  0  0  0  0  0  0  0  0  0  0
    8.0901   -0.4867    0.0000 C   0  0  0  0  0  0  0  0  0  0  0  0
    8.0901    1.5826    0.0000 C   0  0  0  0  0  0  0  0  0  0  0  0
    8.9962    1.0687    0.0000 C   0  0  0  0  0  0  0  0  0  0  0  0
    8.9962    0.0271    0.0000 C   0  0  0  0  0  0  0  0  0  0  0  0
    2.8660   -0.4521    0.0000 C   0  0  0  0  0  0  0  0  0  0  0  0
    3.7320   -1.9521    0.0000 C   0  0  0  0  0  0  0  0  0  0  0  0
    2.8660   -1.4521    0.0000 C   0  0  0  0  0  0  0  0  0  0  0  0
    2.8660    1.5479    0.0000 C   0  0  0  0  0  0  0  0  0  0  0  0
    9.8564    2.5721    0.0000 C   0  0  0  0  0  0  0  0  0  0  0  0
    5.4641   -0.5721    0.0000 H   0  0  0  0  0  0  0  0  0  0  0  0
    5.2520    1.6305    0.0000 H   0  0  0  0  0  0  0  0  0  0  0  0
    4.8535    0.9403    0.0000 H   0  0  0  0  0  0  0  0  0  0  0  0
    5.1350   -1.7621    0.0000 H   0  0  0  0  0  0  0  0  0  0  0  0
    8.0829    2.2026    0.0000 H   0  0  0  0  0  0  0  0  0  0  0  0
    9.5319   -0.2850    0.0000 H   0  0  0  0  0  0  0  0  0  0  0  0
    2.3291   -0.1421    0.0000 H   0  0  0  0  0  0  0  0  0  0  0  0
    3.7320   -2.5721    0.0000 H   0  0  0  0  0  0  0  0  0  0  0  0
    8.6118   -1.8028    0.0000 H   0  0  0  0  0  0  0  0  0  0  0  0
    3.1760    2.0849    0.0000 H   0  0  0  0  0  0  0  0  0  0  0  0
    2.3291    1.8579    0.0000 H   0  0  0  0  0  0  0  0  0  0  0  0
    2.5560    1.0110    0.0000 H   0  0  0  0  0  0  0  0  0  0  0  0
    2.0000   -2.5721    0.0000 H   0  0  0  0  0  0  0  0  0  0  0  0
   10.4764    2.5745    0.0000 H   0  0  0  0  0  0  0  0  0  0  0  0
    9.8540    3.1921    0.0000 H   0  0  0  0  0  0  0  0  0  0  0  0
    9.2364    2.5697    0.0000 H   0  0  0  0  0  0  0  0  0  0  0  0
  1  8  1  0  0  0  0
  1 12  1  0  0  0  0
  2 10  2  0  0  0  0
  3 13  1  0  0  0  0
  3 22  1  0  0  0  0
  4 15  1  0  0  0  0
  4 32  1  0  0  0  0
  5 17  1  0  0  0  0
  5 23  1  0  0  0  0
  6 21  1  0  0  0  0
  6 36  1  0  0  0  0
  7  8  1  0  0  0  0
  7  9  1  0  0  0  0
  7 10  1  0  0  0  0
  7 24  1  0  0  0  0
  8 25  1  0  0  0  0
  8 26  1  0  0  0  0
  9 13  2  0  0  0  0
  9 14  1  0  0  0  0
 10 11  1  0  0  0  0
 11 12  1  0  0  0  0
 11 15  2  0  0  0  0
 12 16  2  0  0  0  0
 13 19  1  0  0  0  0
 14 20  2  0  0  0  0
 14 27  1  0  0  0  0
 15 18  1  0  0  0  0
 16 17  1  0  0  0  0
 16 28  1  0  0  0  0
 17 18  2  0  0  0  0
 18 29  1  0  0  0  0
 19 21  2  0  0  0  0
 19 30  1  0  0  0  0
 20 21  1  0  0  0  0
 20 31  1  0  0  0  0
 22 33  1  0  0  0  0
 22 34  1  0  0  0  0
 22 35  1  0  0  0  0
 23 37  1  0  0  0  0
 23 38  1  0  0  0  0
 23 39  1  0  0  0  0
M  END
> <PUBCHEM_COMPOUND_CID>
442670

> <PUBCHEM_COMPOUND_CANONICALIZED>
1

> <PUBCHEM_CACTVS_COMPLEXITY>
427

> <PUBCHEM_CACTVS_HBOND_ACCEPTOR>
6

> <PUBCHEM_CACTVS_HBOND_DONOR>
2

> <PUBCHEM_CACTVS_ROTATABLE_BOND>
3

> <PUBCHEM_CACTVS_SUBSKEYS>
AAADceB4OAAAAAAAAAAAAAAAAAAAAAAAAAA0YIAAAAAAAACRQAAAGgAACAAADQSgmAIyBoAABgCIAqBSAAACCAAkIAAIiAEGCMgMJzaGNRqCeWCl4BUIuQfK7PzOoAAACAAIAABAAAAQABAAAAAAAAAAAA==

> <PUBCHEM_IUPAC_OPENEYE_NAME>
5-hydroxy-3-(4-hydroxy-2-methoxy-phenyl)-7-methoxy-chroman-4-one

> <PUBCHEM_IUPAC_CAS_NAME>
5-hydroxy-3-(4-hydroxy-2-methoxyphenyl)-7-methoxy-3,4-dihydro-2H-1-benzopyran-4-one

> <PUBCHEM_IUPAC_NAME>
5-hydroxy-3-(4-hydroxy-2-methoxyphenyl)-7-methoxy-2,3-dihydrochromen-4-one

> <PUBCHEM_IUPAC_SYSTEMATIC_NAME>
7-methoxy-3-(2-methoxy-4-oxidanyl-phenyl)-5-oxidanyl-2,3-dihydrochromen-4-one

> <PUBCHEM_IUPAC_TRADITIONAL_NAME>
5-hydroxy-3-(4-hydroxy-2-methoxy-phenyl)-7-methoxy-chroman-4-one

> <PUBCHEM_IUPAC_INCHI>
InChI=1S/C17H16O6/c1-21-10-6-13(19)16-15(7-10)23-8-12(17(16)20)11-4-3-9(18)5-14(11)22-2/h3-7,12,18-19H,8H2,1-2H3

> <PUBCHEM_IUPAC_INCHIKEY>
RYYWWFXWFMYKJM-UHFFFAOYSA-N

> <PUBCHEM_XLOGP3_AA>
2.9

> <PUBCHEM_EXACT_MASS>
316.094688

> <PUBCHEM_MOLECULAR_FORMULA>
C17H16O6

> <PUBCHEM_MOLECULAR_WEIGHT>
316.30534

> <PUBCHEM_OPENEYE_CAN_SMILES>
COC1=CC(=C2C(=C1)OCC(C2=O)C3=C(C=C(C=C3)O)OC)O

> <PUBCHEM_OPENEYE_ISO_SMILES>
COC1=CC(=C2C(=C1)OCC(C2=O)C3=C(C=C(C=C3)O)OC)O

> <PUBCHEM_CACTVS_TPSA>
85.2

> <PUBCHEM_MONOISOTOPIC_WEIGHT>
316.094688

> <PUBCHEM_TOTAL_CHARGE>
0

> <PUBCHEM_HEAVY_ATOM_COUNT>
23

> <PUBCHEM_ATOM_DEF_STEREO_COUNT>
0

> <PUBCHEM_ATOM_UDEF_STEREO_COUNT>
1

> <PUBCHEM_BOND_DEF_STEREO_COUNT>
0

> <PUBCHEM_BOND_UDEF_STEREO_COUNT>
0

> <PUBCHEM_ISOTOPIC_ATOM_COUNT>
0

> <PUBCHEM_COMPONENT_COUNT>
1

> <PUBCHEM_CACTVS_TAUTO_COUNT>
37

> <PUBCHEM_COORDINATE_TYPE>
1
5
255

> <PUBCHEM_BONDANNOTATIONS>
11  12  8
11  15  8
12  16  8
13  19  8
14  20  8
15  18  8
16  17  8
17  18  8
19  21  8
20  21  8
7  9  3
9  13  8
9  14  8

$$$$

