4232
  -OEChem-06251223582D

 90 98  0     0  0  0  0  0  0999 V2000
    2.4348    4.3827    0.0000 O   0  0  0  0  0  0  0  0  0  0  0  0
   12.5001    5.4702    0.0000 O   0  0  0  0  0  0  0  0  0  0  0  0
   12.3824   -5.4521    0.0000 O   0  0  0  0  0  0  0  0  0  0  0  0
   13.6076   -4.2278    0.0000 O   0  0  0  0  0  0  0  0  0  0  0  0
    3.6696    5.5973    0.0000 O   0  0  0  0  0  0  0  0  0  0  0  0
   13.6748    4.1974    0.0000 O   0  0  0  0  0  0  0  0  0  0  0  0
    2.5807   -4.4138    0.0000 O   0  0  0  0  0  0  0  0  0  0  0  0
    3.8654   -5.5755    0.0000 O   0  0  0  0  0  0  0  0  0  0  0  0
    7.9774    1.4152    0.0000 N   0  0  0  0  0  0  0  0  0  0  0  0
    6.5075    0.0457    0.0000 N   0  0  0  0  0  0  0  0  0  0  0  0
    9.5127    0.0457    0.0000 N   0  0  0  0  0  0  0  0  0  0  0  0
    8.0109   -1.3238    0.0000 N   0  0  0  0  0  0  0  0  0  0  0  0
    7.1755    2.0497    0.0000 C   0  0  0  0  0  0  0  0  0  0  0  0
    8.8129    2.0832    0.0000 C   0  0  0  0  0  0  0  0  0  0  0  0
    6.2078    1.7819    0.0000 C   0  0  0  0  0  0  0  0  0  0  0  0
    9.7806    1.7819    0.0000 C   0  0  0  0  0  0  0  0  0  0  0  0
    5.9399    0.8142    0.0000 C   0  0  0  0  0  0  0  0  0  0  0  0
   10.0802    0.8477    0.0000 C   0  0  0  0  0  0  0  0  0  0  0  0
    6.2413   -1.6570    0.0000 C   0  0  0  0  0  0  0  0  0  0  0  0
    7.4769    3.0174    0.0000 C   0  0  0  0  0  0  0  0  0  0  0  0
    8.4780    3.0174    0.0000 C   0  0  0  0  0  0  0  0  0  0  0  0
    9.8140   -1.6570    0.0000 C   0  0  0  0  0  0  0  0  0  0  0  0
    5.9399   -0.7228    0.0000 C   0  0  0  0  0  0  0  0  0  0  0  0
   10.1137   -0.6893    0.0000 C   0  0  0  0  0  0  0  0  0  0  0  0
    5.5066    2.4948    0.0000 C   0  0  0  0  0  0  0  0  0  0  0  0
   10.5154    2.4601    0.0000 C   0  0  0  0  0  0  0  0  0  0  0  0
    7.2090   -1.9583    0.0000 C   0  0  0  0  0  0  0  0  0  0  0  0
    8.8129   -1.9248    0.0000 C   0  0  0  0  0  0  0  0  0  0  0  0
    4.9723    0.5463    0.0000 C   0  0  0  0  0  0  0  0  0  0  0  0
   11.0496    0.5798    0.0000 C   0  0  0  0  0  0  0  0  0  0  0  0
    4.9723   -0.4549    0.0000 C   0  0  0  0  0  0  0  0  0  0  0  0
   11.0496   -0.4214    0.0000 C   0  0  0  0  0  0  0  0  0  0  0  0
    5.5706   -2.3987    0.0000 C   0  0  0  0  0  0  0  0  0  0  0  0
   10.5209   -2.3643    0.0000 C   0  0  0  0  0  0  0  0  0  0  0  0
    7.5103   -2.8925    0.0000 C   0  0  0  0  0  0  0  0  0  0  0  0
    8.5115   -2.8925    0.0000 C   0  0  0  0  0  0  0  0  0  0  0  0
    4.5385    2.2439    0.0000 C   0  0  0  0  0  0  0  0  0  0  0  0
    5.7733    3.4585    0.0000 C   0  0  0  0  0  0  0  0  0  0  0  0
   10.2955    3.4356    0.0000 C   0  0  0  0  0  0  0  0  0  0  0  0
   11.4702    2.1628    0.0000 C   0  0  0  0  0  0  0  0  0  0  0  0
    5.8776   -3.3504    0.0000 C   0  0  0  0  0  0  0  0  0  0  0  0
    4.5929   -2.1887    0.0000 C   0  0  0  0  0  0  0  0  0  0  0  0
   10.2618   -3.3301    0.0000 C   0  0  0  0  0  0  0  0  0  0  0  0
   11.4869   -2.1058    0.0000 C   0  0  0  0  0  0  0  0  0  0  0  0
    3.8373    2.9568    0.0000 C   0  0  0  0  0  0  0  0  0  0  0  0
    5.0721    4.1714    0.0000 C   0  0  0  0  0  0  0  0  0  0  0  0
   11.0304    4.1138    0.0000 C   0  0  0  0  0  0  0  0  0  0  0  0
   12.2051    2.8410    0.0000 C   0  0  0  0  0  0  0  0  0  0  0  0
    4.1041    3.9206    0.0000 C   0  0  0  0  0  0  0  0  0  0  0  0
   11.9852    3.8165    0.0000 C   0  0  0  0  0  0  0  0  0  0  0  0
   10.9687   -4.0375    0.0000 C   0  0  0  0  0  0  0  0  0  0  0  0
   12.1938   -2.8131    0.0000 C   0  0  0  0  0  0  0  0  0  0  0  0
    5.2068   -4.0921    0.0000 C   0  0  0  0  0  0  0  0  0  0  0  0
    3.9222   -2.9304    0.0000 C   0  0  0  0  0  0  0  0  0  0  0  0
   11.9347   -3.7790    0.0000 C   0  0  0  0  0  0  0  0  0  0  0  0
    4.2291   -3.8821    0.0000 C   0  0  0  0  0  0  0  0  0  0  0  0
    3.4028    4.6335    0.0000 C   0  0  0  0  0  0  0  0  0  0  0  0
   12.7200    4.4947    0.0000 C   0  0  0  0  0  0  0  0  0  0  0  0
   12.6415   -4.4863    0.0000 C   0  0  0  0  0  0  0  0  0  0  0  0
    3.5584   -4.6238    0.0000 C   0  0  0  0  0  0  0  0  0  0  0  0
    7.9790    0.7952    0.0000 H   0  0  0  0  0  0  0  0  0  0  0  0
    7.1094    3.5168    0.0000 H   0  0  0  0  0  0  0  0  0  0  0  0
    8.8349    3.5244    0.0000 H   0  0  0  0  0  0  0  0  0  0  0  0
    4.4788    0.9217    0.0000 H   0  0  0  0  0  0  0  0  0  0  0  0
   11.5430    0.9553    0.0000 H   0  0  0  0  0  0  0  0  0  0  0  0
    4.4788   -0.8303    0.0000 H   0  0  0  0  0  0  0  0  0  0  0  0
   11.5447   -0.7946    0.0000 H   0  0  0  0  0  0  0  0  0  0  0  0
    7.1454   -3.3937    0.0000 H   0  0  0  0  0  0  0  0  0  0  0  0
    8.8790   -3.3919    0.0000 H   0  0  0  0  0  0  0  0  0  0  0  0
    4.3731    1.6464    0.0000 H   0  0  0  0  0  0  0  0  0  0  0  0
    6.3735    3.6141    0.0000 H   0  0  0  0  0  0  0  0  0  0  0  0
    9.7036    3.6199    0.0000 H   0  0  0  0  0  0  0  0  0  0  0  0
   11.6066    1.5579    0.0000 H   0  0  0  0  0  0  0  0  0  0  0  0
    6.4837   -3.4806    0.0000 H   0  0  0  0  0  0  0  0  0  0  0  0
    4.4025   -1.5986    0.0000 H   0  0  0  0  0  0  0  0  0  0  0  0
    9.6629   -3.4904    0.0000 H   0  0  0  0  0  0  0  0  0  0  0  0
   11.6476   -1.5070    0.0000 H   0  0  0  0  0  0  0  0  0  0  0  0
    3.2371    2.8013    0.0000 H   0  0  0  0  0  0  0  0  0  0  0  0
    5.2375    4.7690    0.0000 H   0  0  0  0  0  0  0  0  0  0  0  0
   10.8941    4.7186    0.0000 H   0  0  0  0  0  0  0  0  0  0  0  0
   12.7971    2.6566    0.0000 H   0  0  0  0  0  0  0  0  0  0  0  0
   10.8080   -4.6363    0.0000 H   0  0  0  0  0  0  0  0  0  0  0  0
   12.7927   -2.6529    0.0000 H   0  0  0  0  0  0  0  0  0  0  0  0
    5.3972   -4.6822    0.0000 H   0  0  0  0  0  0  0  0  0  0  0  0
    3.3160   -2.8002    0.0000 H   0  0  0  0  0  0  0  0  0  0  0  0
    2.0000    4.8247    0.0000 H   0  0  0  0  0  0  0  0  0  0  0  0
   12.9558    5.8907    0.0000 H   0  0  0  0  0  0  0  0  0  0  0  0
   12.8207   -5.8907    0.0000 H   0  0  0  0  0  0  0  0  0  0  0  0
   14.0458   -4.6664    0.0000 H   0  0  0  0  0  0  0  0  0  0  0  0
    2.1649   -4.8737    0.0000 H   0  0  0  0  0  0  0  0  0  0  0  0
  1 57  1  0  0  0  0
  1 86  1  0  0  0  0
  2 58  1  0  0  0  0
  2 87  1  0  0  0  0
  3 59  1  0  0  0  0
  3 88  1  0  0  0  0
  4 59  1  0  0  0  0
  4 89  1  0  0  0  0
  5 57  2  0  0  0  0
  6 58  2  0  0  0  0
  7 60  1  0  0  0  0
  7 90  1  0  0  0  0
  8 60  2  0  0  0  0
  9 13  1  0  0  0  0
  9 14  1  0  0  0  0
  9 61  1  0  0  0  0
 10 17  1  0  0  0  0
 10 23  2  0  0  0  0
 11 18  1  0  0  0  0
 11 24  2  0  0  0  0
 12 27  1  0  0  0  0
 12 28  2  0  0  0  0
 13 15  1  0  0  0  0
 13 20  2  0  0  0  0
 14 16  1  0  0  0  0
 14 21  2  0  0  0  0
 15 17  2  0  0  0  0
 15 25  1  0  0  0  0
 16 18  2  0  0  0  0
 16 26  1  0  0  0  0
 17 29  1  0  0  0  0
 18 30  1  0  0  0  0
 19 23  1  0  0  0  0
 19 27  2  0  0  0  0
 19 33  1  0  0  0  0
 20 21  1  0  0  0  0
 20 62  1  0  0  0  0
 21 63  1  0  0  0  0
 22 24  1  0  0  0  0
 22 28  1  0  0  0  0
 22 34  2  0  0  0  0
 23 31  1  0  0  0  0
 24 32  1  0  0  0  0
 25 37  2  0  0  0  0
 25 38  1  0  0  0  0
 26 39  2  0  0  0  0
 26 40  1  0  0  0  0
 27 35  1  0  0  0  0
 28 36  1  0  0  0  0
 29 31  2  0  0  0  0
 29 64  1  0  0  0  0
 30 32  2  0  0  0  0
 30 65  1  0  0  0  0
 31 66  1  0  0  0  0
 32 67  1  0  0  0  0
 33 41  2  0  0  0  0
 33 42  1  0  0  0  0
 34 43  1  0  0  0  0
 34 44  1  0  0  0  0
 35 36  2  0  0  0  0
 35 68  1  0  0  0  0
 36 69  1  0  0  0  0
 37 45  1  0  0  0  0
 37 70  1  0  0  0  0
 38 46  2  0  0  0  0
 38 71  1  0  0  0  0
 39 47  1  0  0  0  0
 39 72  1  0  0  0  0
 40 48  2  0  0  0  0
 40 73  1  0  0  0  0
 41 53  1  0  0  0  0
 41 74  1  0  0  0  0
 42 54  2  0  0  0  0
 42 75  1  0  0  0  0
 43 51  2  0  0  0  0
 43 76  1  0  0  0  0
 44 52  2  0  0  0  0
 44 77  1  0  0  0  0
 45 49  2  0  0  0  0
 45 78  1  0  0  0  0
 46 49  1  0  0  0  0
 46 79  1  0  0  0  0
 47 50  2  0  0  0  0
 47 80  1  0  0  0  0
 48 50  1  0  0  0  0
 48 81  1  0  0  0  0
 49 57  1  0  0  0  0
 50 58  1  0  0  0  0
 51 55  1  0  0  0  0
 51 82  1  0  0  0  0
 52 55  1  0  0  0  0
 52 83  1  0  0  0  0
 53 56  2  0  0  0  0
 53 84  1  0  0  0  0
 54 56  1  0  0  0  0
 54 85  1  0  0  0  0
 55 59  2  0  0  0  0
 56 60  1  0  0  0  0
M  END
> <PUBCHEM_COMPOUND_CID>
4232

> <PUBCHEM_COMPOUND_CANONICALIZED>
1

> <PUBCHEM_CACTVS_COMPLEXITY>
2280

> <PUBCHEM_CACTVS_HBOND_ACCEPTOR>
11

> <PUBCHEM_CACTVS_HBOND_DONOR>
6

> <PUBCHEM_CACTVS_ROTATABLE_BOND>
6

> <PUBCHEM_CACTVS_SUBSKEYS>
AAADceB/vAAAAAAAAAAAAAAAAAAAAWIECAAwYMEAAAAAAAAB1AAAHgAQCAAADAiBngAwiJLJkgCoAyTyTACCgCAlIiAImSEwbNgIJvLAlZGEcQhk0AHI2YeYyPCOQAAAAAAAAACAAAAAAAAAAAAAAAAAAA==

> <PUBCHEM_IUPAC_OPENEYE_NAME>
4-[10,15-bis(4-carboxyphenyl)-20-[4-(dihydroxymethylene)cyclohexa-2,5-dien-1-ylidene]-23H-porphyrin-5-yl]benzoic acid

> <PUBCHEM_IUPAC_CAS_NAME>
4-[10,15-bis(4-carboxyphenyl)-20-[4-(dihydroxymethylidene)-1-cyclohexa-2,5-dienylidene]-23H-porphyrin-5-yl]benzoic acid

> <PUBCHEM_IUPAC_NAME>
4-[10,15-bis(4-carboxyphenyl)-20-[4-(dihydroxymethylidene)cyclohexa-2,5-dien-1-ylidene]-23H-porphyrin-5-yl]benzoic acid

> <PUBCHEM_IUPAC_SYSTEMATIC_NAME>
4-[20-[4-[bis(oxidanyl)methylidene]cyclohexa-2,5-dien-1-ylidene]-10,15-bis(4-carboxyphenyl)-23H-porphyrin-5-yl]benzoic acid

> <PUBCHEM_IUPAC_TRADITIONAL_NAME>
4-[10,15-bis(4-carboxyphenyl)-20-[4-(dihydroxymethylene)cyclohexa-2,5-dien-1-ylidene]-23H-porphin-5-yl]benzoic acid

> <PUBCHEM_IUPAC_INCHI>
InChI=1S/C48H30N4O8/c53-45(54)29-9-1-25(2-10-29)41-33-17-19-35(49-33)42(26-3-11-30(12-4-26)46(55)56)37-21-23-39(51-37)44(28-7-15-32(16-8-28)48(59)60)40-24-22-38(52-40)43(36-20-18-34(41)50-36)27-5-13-31(14-6-27)47(57)58/h1-24,49,57-58H,(H,53,54)(H,55,56)(H,59,60)

> <PUBCHEM_IUPAC_INCHIKEY>
IOOPAHPFWMGWNE-UHFFFAOYSA-N

> <PUBCHEM_XLOGP3_AA>
5.4

> <PUBCHEM_EXACT_MASS>
790.206364

> <PUBCHEM_MOLECULAR_FORMULA>
C48H30N4O8

> <PUBCHEM_MOLECULAR_WEIGHT>
790.7738

> <PUBCHEM_OPENEYE_CAN_SMILES>
C1=CC(=C(O)O)C=CC1=C2C3=NC(=C(C4=NC(=C(C5=CC=C(N5)C(=C6C=CC2=N6)C7=CC=C(C=C7)C(=O)O)C8=CC=C(C=C8)C(=O)O)C=C4)C9=CC=C(C=C9)C(=O)O)C=C3

> <PUBCHEM_OPENEYE_ISO_SMILES>
C1=CC(=C(O)O)C=CC1=C2C3=NC(=C(C4=NC(=C(C5=CC=C(N5)C(=C6C=CC2=N6)C7=CC=C(C=C7)C(=O)O)C8=CC=C(C=C8)C(=O)O)C=C4)C9=CC=C(C=C9)C(=O)O)C=C3

> <PUBCHEM_CACTVS_TPSA>
205

> <PUBCHEM_MONOISOTOPIC_WEIGHT>
790.206364

> <PUBCHEM_TOTAL_CHARGE>
0

> <PUBCHEM_HEAVY_ATOM_COUNT>
60

> <PUBCHEM_ATOM_DEF_STEREO_COUNT>
0

> <PUBCHEM_ATOM_UDEF_STEREO_COUNT>
0

> <PUBCHEM_BOND_DEF_STEREO_COUNT>
0

> <PUBCHEM_BOND_UDEF_STEREO_COUNT>
0

> <PUBCHEM_ISOTOPIC_ATOM_COUNT>
0

> <PUBCHEM_COMPONENT_COUNT>
1

> <PUBCHEM_CACTVS_TAUTO_COUNT>
2

> <PUBCHEM_COORDINATE_TYPE>
1
5
255

> <PUBCHEM_BONDANNOTATIONS>
10  17  8
10  23  8
11  18  8
11  24  8
12  27  8
12  28  8
13  15  8
13  20  8
14  16  8
14  21  8
15  17  8
16  18  8
17  29  8
18  30  8
19  23  8
19  27  8
20  21  8
22  24  8
22  28  8
23  31  8
24  32  8
25  37  8
25  38  8
26  39  8
26  40  8
27  35  8
28  36  8
29  31  8
30  32  8
33  41  8
33  42  8
34  43  8
34  44  8
35  36  8
37  45  8
38  46  8
39  47  8
40  48  8
41  53  8
42  54  8
43  51  8
44  52  8
45  49  8
46  49  8
47  50  8
48  50  8
51  55  8
52  55  8
53  56  8
54  56  8
9  13  8
9  14  8

$$$$

