5283544
  -OEChem-07051213102D

101101  0     0  0  0  0  0  0999 V2000
    2.0000   -9.2500    0.0000 O   0  0  0  0  0  0  0  0  0  0  0  0
    3.7320  -10.2500    0.0000 O   0  0  0  0  0  0  0  0  0  0  0  0
    2.0000   -7.2500    0.0000 O   0  0  0  0  0  0  0  0  0  0  0  0
    5.4641   -9.2500    0.0000 O   0  0  0  0  0  0  0  0  0  0  0  0
    7.1962   -1.2500    0.0000 C   0  0  0  0  0  0  0  0  0  0  0  0
    8.9282    1.7500    0.0000 C   0  0  0  0  0  0  0  0  0  0  0  0
    7.1962   -0.2500    0.0000 C   0  0  0  0  0  0  0  0  0  0  0  0
    8.9282    2.7500    0.0000 C   0  0  0  0  0  0  0  0  0  0  0  0
    8.0622    1.2500    0.0000 C   0  0  0  0  0  0  0  0  0  0  0  0
    6.3301   -1.7500    0.0000 C   0  0  0  0  0  0  0  0  0  0  0  0
    5.4641   -3.2500    0.0000 C   0  0  0  0  0  0  0  0  0  0  0  0
    5.4641   -4.2500    0.0000 C   0  0  0  0  0  0  0  0  0  0  0  0
   10.6603    4.7500    0.0000 C   0  0  0  0  0  0  0  0  0  0  0  0
    9.7942    4.2500    0.0000 C   0  0  0  0  0  0  0  0  0  0  0  0
    8.0622    0.2500    0.0000 C   0  0  0  0  0  0  0  0  0  0  0  0
   10.6603    5.7500    0.0000 C   0  0  0  0  0  0  0  0  0  0  0  0
    6.3301   -2.7500    0.0000 C   0  0  0  0  0  0  0  0  0  0  0  0
    9.7942    3.2500    0.0000 C   0  0  0  0  0  0  0  0  0  0  0  0
    4.5981   -4.7500    0.0000 C   0  0  0  0  0  0  0  0  0  0  0  0
    3.7320   -6.2500    0.0000 C   0  0  0  0  0  0  0  0  0  0  0  0
    4.5981   -5.7500    0.0000 C   0  0  0  0  0  0  0  0  0  0  0  0
   11.5263    6.2500    0.0000 C   0  0  0  0  0  0  0  0  0  0  0  0
   11.5263    7.2500    0.0000 C   0  0  0  0  0  0  0  0  0  0  0  0
    3.7320   -7.2500    0.0000 C   0  0  0  0  0  0  0  0  0  0  0  0
   12.3923    7.7500    0.0000 C   0  0  0  0  0  0  0  0  0  0  0  0
    7.1962    1.7500    0.0000 C   0  0  0  0  0  0  0  0  0  0  0  0
    5.4641   -1.2500    0.0000 C   0  0  0  0  0  0  0  0  0  0  0  0
    8.9282    4.7500    0.0000 C   0  0  0  0  0  0  0  0  0  0  0  0
    4.5981   -7.7500    0.0000 C   0  0  0  0  0  0  0  0  0  0  0  0
   12.3923    8.7500    0.0000 C   0  0  0  0  0  0  0  0  0  0  0  0
    3.7320   -4.2500    0.0000 C   0  0  0  0  0  0  0  0  0  0  0  0
    2.8660   -7.7500    0.0000 C   0  0  0  0  0  0  0  0  0  0  0  0
   10.6603    7.7500    0.0000 C   0  0  0  0  0  0  0  0  0  0  0  0
    4.5981   -8.7500    0.0000 C   0  0  0  0  0  0  0  0  0  0  0  0
    2.8660   -8.7500    0.0000 C   0  0  0  0  0  0  0  0  0  0  0  0
    3.7320   -9.2500    0.0000 C   0  0  0  0  0  0  0  0  0  0  0  0
   13.2583    9.2500    0.0000 C   0  0  0  0  0  0  0  0  0  0  0  0
    5.4641   -7.2500    0.0000 C   0  0  0  0  0  0  0  0  0  0  0  0
   13.2583   10.2500    0.0000 C   0  0  0  0  0  0  0  0  0  0  0  0
   14.1244   10.7500    0.0000 C   0  0  0  0  0  0  0  0  0  0  0  0
   12.3923   10.7500    0.0000 C   0  0  0  0  0  0  0  0  0  0  0  0
    2.0000  -10.2500    0.0000 C   0  0  0  0  0  0  0  0  0  0  0  0
    4.5981  -10.7500    0.0000 C   0  0  0  0  0  0  0  0  0  0  0  0
    7.4082   -1.8326    0.0000 H   0  0  0  0  0  0  0  0  0  0  0  0
    7.8067   -1.1423    0.0000 H   0  0  0  0  0  0  0  0  0  0  0  0
    9.1403    1.1674    0.0000 H   0  0  0  0  0  0  0  0  0  0  0  0
    9.5388    1.8577    0.0000 H   0  0  0  0  0  0  0  0  0  0  0  0
    6.9841    0.3326    0.0000 H   0  0  0  0  0  0  0  0  0  0  0  0
    6.5856   -0.3577    0.0000 H   0  0  0  0  0  0  0  0  0  0  0  0
    8.7162    3.3326    0.0000 H   0  0  0  0  0  0  0  0  0  0  0  0
    8.3176    2.6423    0.0000 H   0  0  0  0  0  0  0  0  0  0  0  0
    5.2520   -2.6674    0.0000 H   0  0  0  0  0  0  0  0  0  0  0  0
    4.8535   -3.3577    0.0000 H   0  0  0  0  0  0  0  0  0  0  0  0
    5.6762   -4.8326    0.0000 H   0  0  0  0  0  0  0  0  0  0  0  0
    6.0747   -4.1423    0.0000 H   0  0  0  0  0  0  0  0  0  0  0  0
   10.8723    4.1674    0.0000 H   0  0  0  0  0  0  0  0  0  0  0  0
   11.2708    4.8577    0.0000 H   0  0  0  0  0  0  0  0  0  0  0  0
    8.5991   -0.0600    0.0000 H   0  0  0  0  0  0  0  0  0  0  0  0
   10.4482    6.3326    0.0000 H   0  0  0  0  0  0  0  0  0  0  0  0
   10.0497    5.6423    0.0000 H   0  0  0  0  0  0  0  0  0  0  0  0
    6.8671   -3.0600    0.0000 H   0  0  0  0  0  0  0  0  0  0  0  0
   10.3312    2.9400    0.0000 H   0  0  0  0  0  0  0  0  0  0  0  0
    3.5200   -5.6674    0.0000 H   0  0  0  0  0  0  0  0  0  0  0  0
    3.1215   -6.3577    0.0000 H   0  0  0  0  0  0  0  0  0  0  0  0
    5.1350   -6.0600    0.0000 H   0  0  0  0  0  0  0  0  0  0  0  0
   12.0632    5.9400    0.0000 H   0  0  0  0  0  0  0  0  0  0  0  0
   12.6044    7.1674    0.0000 H   0  0  0  0  0  0  0  0  0  0  0  0
   13.0029    7.8577    0.0000 H   0  0  0  0  0  0  0  0  0  0  0  0
    7.5062    2.2869    0.0000 H   0  0  0  0  0  0  0  0  0  0  0  0
    6.6592    2.0600    0.0000 H   0  0  0  0  0  0  0  0  0  0  0  0
    6.8862    1.2131    0.0000 H   0  0  0  0  0  0  0  0  0  0  0  0
    5.7741   -0.7131    0.0000 H   0  0  0  0  0  0  0  0  0  0  0  0
    4.9272   -0.9400    0.0000 H   0  0  0  0  0  0  0  0  0  0  0  0
    5.1541   -1.7869    0.0000 H   0  0  0  0  0  0  0  0  0  0  0  0
    9.2382    5.2869    0.0000 H   0  0  0  0  0  0  0  0  0  0  0  0
    8.3913    5.0600    0.0000 H   0  0  0  0  0  0  0  0  0  0  0  0
    8.6182    4.2131    0.0000 H   0  0  0  0  0  0  0  0  0  0  0  0
   12.1803    9.3326    0.0000 H   0  0  0  0  0  0  0  0  0  0  0  0
   11.7817    8.6423    0.0000 H   0  0  0  0  0  0  0  0  0  0  0  0
    4.0420   -3.7131    0.0000 H   0  0  0  0  0  0  0  0  0  0  0  0
    3.1951   -3.9400    0.0000 H   0  0  0  0  0  0  0  0  0  0  0  0
    3.4220   -4.7869    0.0000 H   0  0  0  0  0  0  0  0  0  0  0  0
   10.9703    8.2869    0.0000 H   0  0  0  0  0  0  0  0  0  0  0  0
   10.1233    8.0600    0.0000 H   0  0  0  0  0  0  0  0  0  0  0  0
   10.3503    7.2131    0.0000 H   0  0  0  0  0  0  0  0  0  0  0  0
   13.7953    8.9400    0.0000 H   0  0  0  0  0  0  0  0  0  0  0  0
    5.7741   -7.7869    0.0000 H   0  0  0  0  0  0  0  0  0  0  0  0
    6.0010   -6.9400    0.0000 H   0  0  0  0  0  0  0  0  0  0  0  0
    5.1541   -6.7131    0.0000 H   0  0  0  0  0  0  0  0  0  0  0  0
   14.4344   10.2131    0.0000 H   0  0  0  0  0  0  0  0  0  0  0  0
   14.6613   11.0600    0.0000 H   0  0  0  0  0  0  0  0  0  0  0  0
   13.8144   11.2869    0.0000 H   0  0  0  0  0  0  0  0  0  0  0  0
   12.7023   11.2869    0.0000 H   0  0  0  0  0  0  0  0  0  0  0  0
   11.8554   11.0600    0.0000 H   0  0  0  0  0  0  0  0  0  0  0  0
   12.0823   10.2131    0.0000 H   0  0  0  0  0  0  0  0  0  0  0  0
    1.3800  -10.2500    0.0000 H   0  0  0  0  0  0  0  0  0  0  0  0
    2.0000  -10.8700    0.0000 H   0  0  0  0  0  0  0  0  0  0  0  0
    2.6200  -10.2500    0.0000 H   0  0  0  0  0  0  0  0  0  0  0  0
    4.2881  -11.2869    0.0000 H   0  0  0  0  0  0  0  0  0  0  0  0
    5.1350  -11.0600    0.0000 H   0  0  0  0  0  0  0  0  0  0  0  0
    4.9081  -10.2131    0.0000 H   0  0  0  0  0  0  0  0  0  0  0  0
  1 35  1  0  0  0  0
  1 42  1  0  0  0  0
  2 36  1  0  0  0  0
  2 43  1  0  0  0  0
  3 32  2  0  0  0  0
  4 34  2  0  0  0  0
  5  7  1  0  0  0  0
  5 10  1  0  0  0  0
  5 44  1  0  0  0  0
  5 45  1  0  0  0  0
  6  8  1  0  0  0  0
  6  9  1  0  0  0  0
  6 46  1  0  0  0  0
  6 47  1  0  0  0  0
  7 15  1  0  0  0  0
  7 48  1  0  0  0  0
  7 49  1  0  0  0  0
  8 18  1  0  0  0  0
  8 50  1  0  0  0  0
  8 51  1  0  0  0  0
  9 15  2  0  0  0  0
  9 26  1  0  0  0  0
 10 17  2  0  0  0  0
 10 27  1  0  0  0  0
 11 12  1  0  0  0  0
 11 17  1  0  0  0  0
 11 52  1  0  0  0  0
 11 53  1  0  0  0  0
 12 19  1  0  0  0  0
 12 54  1  0  0  0  0
 12 55  1  0  0  0  0
 13 14  1  0  0  0  0
 13 16  1  0  0  0  0
 13 56  1  0  0  0  0
 13 57  1  0  0  0  0
 14 18  2  0  0  0  0
 14 28  1  0  0  0  0
 15 58  1  0  0  0  0
 16 22  1  0  0  0  0
 16 59  1  0  0  0  0
 16 60  1  0  0  0  0
 17 61  1  0  0  0  0
 18 62  1  0  0  0  0
 19 21  2  0  0  0  0
 19 31  1  0  0  0  0
 20 21  1  0  0  0  0
 20 24  1  0  0  0  0
 20 63  1  0  0  0  0
 20 64  1  0  0  0  0
 21 65  1  0  0  0  0
 22 23  2  0  0  0  0
 22 66  1  0  0  0  0
 23 25  1  0  0  0  0
 23 33  1  0  0  0  0
 24 29  2  0  0  0  0
 24 32  1  0  0  0  0
 25 30  1  0  0  0  0
 25 67  1  0  0  0  0
 25 68  1  0  0  0  0
 26 69  1  0  0  0  0
 26 70  1  0  0  0  0
 26 71  1  0  0  0  0
 27 72  1  0  0  0  0
 27 73  1  0  0  0  0
 27 74  1  0  0  0  0
 28 75  1  0  0  0  0
 28 76  1  0  0  0  0
 28 77  1  0  0  0  0
 29 34  1  0  0  0  0
 29 38  1  0  0  0  0
 30 37  1  0  0  0  0
 30 78  1  0  0  0  0
 30 79  1  0  0  0  0
 31 80  1  0  0  0  0
 31 81  1  0  0  0  0
 31 82  1  0  0  0  0
 32 35  1  0  0  0  0
 33 83  1  0  0  0  0
 33 84  1  0  0  0  0
 33 85  1  0  0  0  0
 34 36  1  0  0  0  0
 35 36  2  0  0  0  0
 37 39  2  0  0  0  0
 37 86  1  0  0  0  0
 38 87  1  0  0  0  0
 38 88  1  0  0  0  0
 38 89  1  0  0  0  0
 39 40  1  0  0  0  0
 39 41  1  0  0  0  0
 40 90  1  0  0  0  0
 40 91  1  0  0  0  0
 40 92  1  0  0  0  0
 41 93  1  0  0  0  0
 41 94  1  0  0  0  0
 41 95  1  0  0  0  0
 42 96  1  0  0  0  0
 42 97  1  0  0  0  0
 42 98  1  0  0  0  0
 43 99  1  0  0  0  0
 43100  1  0  0  0  0
 43101  1  0  0  0  0
M  END
> <PUBCHEM_COMPOUND_CID>
5283544

> <PUBCHEM_COMPOUND_CANONICALIZED>
1

> <PUBCHEM_CACTVS_COMPLEXITY>
1200

> <PUBCHEM_CACTVS_HBOND_ACCEPTOR>
4

> <PUBCHEM_CACTVS_HBOND_DONOR>
0

> <PUBCHEM_CACTVS_ROTATABLE_BOND>
19

> <PUBCHEM_CACTVS_SUBSKEYS>
AAADcfB8OAAAAAAAAAAAAAAAAAAAAAAAAAAgAAAAAAAAAAAAAAAAGgAAAAAADASAgAICAAAABACIAqBSAAIACAAgIAAACAFAAEgAABIAAQQAAAAEwAAIAQKAAAAAAAAAAAAAAAAAAAAAAAAAAAAAAAAAAA==

> <PUBCHEM_IUPAC_OPENEYE_NAME>
2-[(2E,6E,10E,14E,18E)-3,7,11,15,19,23-hexamethyltetracosa-2,6,10,14,18,22-hexaenyl]-5,6-dimethoxy-3-methyl-1,4-benzoquinone

> <PUBCHEM_IUPAC_CAS_NAME>
2-[(2E,6E,10E,14E,18E)-3,7,11,15,19,23-hexamethyltetracosa-2,6,10,14,18,22-hexaenyl]-5,6-dimethoxy-3-methylcyclohexa-2,5-diene-1,4-dione

> <PUBCHEM_IUPAC_NAME>
2-[(2E,6E,10E,14E,18E)-3,7,11,15,19,23-hexamethyltetracosa-2,6,10,14,18,22-hexaenyl]-5,6-dimethoxy-3-methylcyclohexa-2,5-diene-1,4-dione

> <PUBCHEM_IUPAC_SYSTEMATIC_NAME>
2-[(2E,6E,10E,14E,18E)-3,7,11,15,19,23-hexamethyltetracosa-2,6,10,14,18,22-hexaenyl]-5,6-dimethoxy-3-methyl-cyclohexa-2,5-diene-1,4-dione

> <PUBCHEM_IUPAC_TRADITIONAL_NAME>
2-[(2E,6E,10E,14E,18E)-3,7,11,15,19,23-hexamethyltetracosa-2,6,10,14,18,22-hexaenyl]-5,6-dimethoxy-3-methyl-p-benzoquinone

> <PUBCHEM_IUPAC_INCHI>
InChI=1S/C39H58O4/c1-28(2)16-11-17-29(3)18-12-19-30(4)20-13-21-31(5)22-14-23-32(6)24-15-25-33(7)26-27-35-34(8)36(40)38(42-9)39(43-10)37(35)41/h16,18,20,22,24,26H,11-15,17,19,21,23,25,27H2,1-10H3/b29-18+,30-20+,31-22+,32-24+,33-26+

> <PUBCHEM_IUPAC_INCHIKEY>
GXNFPEOUKFOTKY-LPHQIWJTSA-N

> <PUBCHEM_XLOGP3_AA>
12

> <PUBCHEM_EXACT_MASS>
590.43351

> <PUBCHEM_MOLECULAR_FORMULA>
C39H58O4

> <PUBCHEM_MOLECULAR_WEIGHT>
590.87542

> <PUBCHEM_OPENEYE_CAN_SMILES>
CC1=C(C(=O)C(=C(C1=O)OC)OC)CC=C(C)CCC=C(C)CCC=C(C)CCC=C(C)CCC=C(C)CCC=C(C)C

> <PUBCHEM_OPENEYE_ISO_SMILES>
CC1=C(C(=O)C(=C(C1=O)OC)OC)C/C=C(\C)/CC/C=C(\C)/CC/C=C(\C)/CC/C=C(\C)/CC/C=C(\C)/CCC=C(C)C

> <PUBCHEM_CACTVS_TPSA>
52.6

> <PUBCHEM_MONOISOTOPIC_WEIGHT>
590.43351

> <PUBCHEM_TOTAL_CHARGE>
0

> <PUBCHEM_HEAVY_ATOM_COUNT>
43

> <PUBCHEM_ATOM_DEF_STEREO_COUNT>
0

> <PUBCHEM_ATOM_UDEF_STEREO_COUNT>
0

> <PUBCHEM_BOND_DEF_STEREO_COUNT>
5

> <PUBCHEM_BOND_UDEF_STEREO_COUNT>
0

> <PUBCHEM_ISOTOPIC_ATOM_COUNT>
0

> <PUBCHEM_COMPONENT_COUNT>
1

> <PUBCHEM_CACTVS_TAUTO_COUNT>
57

> <PUBCHEM_COORDINATE_TYPE>
1
5
255

$$$$

