   Color/Form

     * Colorless solid
     * Yellow solid
     * Off-white powder

   from [1]HSDB

   Odor
        Odorless
   from [2]HSDB

   Boiling Point
        Boiling point (760 mm Hg): Decomposes at 175-180 deg C (347-356
   deg F)
   from [3]HSDB

   Corrosivity
        Paraquat is corrosive to metals.
   from [4]HSDB

   Octanol/Water Partition Coefficient
        log Kow = -4.22 at pH 7.4
   from [5]HSDB

   Solubilities

     * Practically insoluble in organic solvents.
     * Soluble in water

   from [6]HSDB

   Other Chemical/Physical Properties

     * CONVERSION FACTORS: 1 MG/KG= 131 PPM; 1 PPM= 7.61 MG/CU M.
     * CONVERSION FACTORS: 1 MG/KG= 95 PPM; 1 PPM= 10.51 MG/CU M; MP:
       75-180 DEG C /PARAQUAT DICHLORIDE/
     * VP: Approximately 0 mm at 20 deg C
     * FAINT AMMONIACAL ODOR; HYGROSCOPIC; BP: DECOMP AT HIGH TEMP
       /PARAQUAT DICHLORIDE/
     * VAPOR PRESSURE OF SALTS IS VERY LOW, BELOW 1X10-7 MM HG /PARAQUAT
       SALTS/
     * WHITE CRYSTALLINE SOLID /PARAQUAT DICHLORIDE & DI(METHYL SULFATE)
       SALTS/
     * DARK RED SOLN /TECHNICAL PARAQUAT/
     * MP: decomposes at 340 deg C; log Kow = -4.50 (20 deg C); Density:
       1.24-1.26 at 20 deg C; Sollubility: In water, 6.2X10+5 mg/L at 25
       deg C; VP: less than 7.5X10-8 mm Hg (25 deg C) /Paraquat
       dichloride/
     * Colorless crystals; mp: 300 deg C (decomposes); very soluble in
       water, slightly soluble in lower alcohols. Insoluble in
       hydrocarbons. Hydrolyzed by alkali. Inactivated by inert clays and
       anionic surfactants; corrosive to metal; non-volatile /Paraquat
       dichloride/
     * Yellow solid. Very air-senstive needles from MeOH/Me2CO. MW 257.18.
       Insoluble in nonpolar solvents /Paraquat dichloride/
     * Colorless hygroscopic crystals or white to yellow hygroscopic
       crystalline powder. Water solution of paraquat chloride is dark
       red. MP: 175-180 deg C, BP: 300 deg C (decomposes), density: 1.25.
       Solubility in water: 70 g/ 100 mL at 20 deg C /Paraquat dihydride/
     * Yellow solid. /Paraquat bismethyl sulfide/
     * A solid. MP: 300 deg C (approximate decomposition) /Paraquat
       dimethyl sulfate/
     * Henry's Law constant: <4.09X10-14 atm-cu m/mole at 25 deg C (est)
     * Hydroxyl radical reaction rate constant = 2.12X10-11 cu
       cm/molec-sec at 25 deg C (est)

   from [7]HSDB

   Computed Properties
   Molecular Weight                  186.25296 [g/mol]
   Molecular Formula                 C[12]H[14]N[2]^+2
   XLogP3-AA                         1.7
   H-Bond Donor                      0
   H-Bond Acceptor                   0
   Rotatable Bond Count              1
   Exact Mass                        186.115698
   MonoIsotopic Mass                 186.115698
   Topological Polar Surface Area    7.8
   Heavy Atom Count                  14
   Formal Charge                     2
   Complexity                        145
   Isotope Atom Count                0
   Defined Atom Stereocenter Count   0
   Undefined Atom Stereocenter Count 0
   Defined Bond Stereocenter Count   0
   Undefined Bond Stereocenter Count 0
   Covalently-Bonded Unit Count      1
   Feature 3D Ring Count             2
   Effective Rotor Count             1
   Conformer Sampling RMSD           0.4
   CID Conformer Count               [8]2

References

   1. http://toxnet.nlm.nih.gov/cgi-bin/sis/search/r?dbs+hsdb:@term+@rn+@rel+4685-14-7
   2. http://toxnet.nlm.nih.gov/cgi-bin/sis/search/r?dbs+hsdb:@term+@rn+@rel+4685-14-7
   3. http://toxnet.nlm.nih.gov/cgi-bin/sis/search/r?dbs+hsdb:@term+@rn+@rel+4685-14-7
   4. http://toxnet.nlm.nih.gov/cgi-bin/sis/search/r?dbs+hsdb:@term+@rn+@rel+4685-14-7
   5. http://toxnet.nlm.nih.gov/cgi-bin/sis/search/r?dbs+hsdb:@term+@rn+@rel+4685-14-7
   6. http://toxnet.nlm.nih.gov/cgi-bin/sis/search/r?dbs+hsdb:@term+@rn+@rel+4685-14-7
   7. http://toxnet.nlm.nih.gov/cgi-bin/sis/search/r?dbs+hsdb:@term+@rn+@rel+4685-14-7
   8. http://pubchem.ncbi.nlm.nih.gov/vw3d/vw3d.cgi?cid=15939
