   Color/Form
        Orthorhombic plates, scales
   from [1]HSDB

   Boiling Point
        Sublimes @ 84 deg C
   from [2]HSDB

   Melting Point
        218 deg C
   from [3]HSDB

   Solubilities

     * Insol in cold water; somewhat sol in hot water; 1 g dissolves in 40
       ml acetone, 65 ml chloroform; 1 g dissolves in 560 ml ether, 150 ml
       ethyl acetate; sol in oils.
     * SOL IN CONCN SULFURIC ACID, ACETIC ACID
     * SLIGHTLY SOL IN BENZENE, ALCOHOL
     * In water, 31 mg/l @ 20 deg C.

   from [4]HSDB

   Spectral Properties

     * IR: 13498 (Sadtler Research Laboratories Prism Collection)
     * MASS: 1123 (National Bureau of Standards EPA-NIH Mass Spectra Data
       Base, NSRDS-NBS-63)

   from [5]HSDB

   Other Chemical/Physical Properties

     * Sublimes at about 110 deg C (12 mm Hg, 3-5 mm distance)
     * Hydrolyzed to cantharinic acid.

   from [6]HSDB

   Computed Properties
   Molecular Weight                  196.19988 [g/mol]
   Molecular Formula                 C[10]H[12]O[4]
   XLogP3-AA                         0.6
   H-Bond Donor                      0
   H-Bond Acceptor                   4
   Rotatable Bond Count              0
   Exact Mass                        196.073559
   MonoIsotopic Mass                 196.073559
   Topological Polar Surface Area    52.6
   Heavy Atom Count                  14
   Formal Charge                     0
   Complexity                        318
   Isotope Atom Count                0
   Defined Atom Stereocenter Count   4
   Undefined Atom Stereocenter Count 0
   Defined Bond Stereocenter Count   0
   Undefined Bond Stereocenter Count 0
   Covalently-Bonded Unit Count      1
   Feature 3D Acceptor Count         3
   Feature 3D Ring Count             2
   Effective Rotor Count             0.8
   Conformer Sampling RMSD           0.4
   CID Conformer Count               [7]1

References

   1. http://toxnet.nlm.nih.gov/cgi-bin/sis/search/r?dbs+hsdb:@term+@rn+@rel+56-25-7
   2. http://toxnet.nlm.nih.gov/cgi-bin/sis/search/r?dbs+hsdb:@term+@rn+@rel+56-25-7
   3. http://toxnet.nlm.nih.gov/cgi-bin/sis/search/r?dbs+hsdb:@term+@rn+@rel+56-25-7
   4. http://toxnet.nlm.nih.gov/cgi-bin/sis/search/r?dbs+hsdb:@term+@rn+@rel+56-25-7
   5. http://toxnet.nlm.nih.gov/cgi-bin/sis/search/r?dbs+hsdb:@term+@rn+@rel+56-25-7
   6. http://toxnet.nlm.nih.gov/cgi-bin/sis/search/r?dbs+hsdb:@term+@rn+@rel+56-25-7
   7. http://pubchem.ncbi.nlm.nih.gov/vw3d/vw3d.cgi?cid=5944
