47205504
  -OEChem-06241222592D

 34 35  0     0  0  0  0  0  0999 V2000
    9.6338   -3.4408    0.0000 S   0  0  0  0  0  0  0  0  0  0  0  0
    2.2788    1.6808    0.0000 O   0  0  0  0  0  0  0  0  0  0  0  0
    6.7500    0.7537    0.0000 O   0  0  0  0  0  0  0  0  0  0  0  0
    4.3126   -0.2755    0.0000 O   0  0  0  0  0  0  0  0  0  0  0  0
    6.2147   -0.8936    0.0000 N   0  0  0  0  0  0  0  0  0  0  0  0
    9.1338   -1.9020    0.0000 N   0  0  0  0  0  0  0  0  0  0  0  0
    4.8479    1.3717    0.0000 N   0  0  0  0  0  0  0  0  0  0  0  0
    3.0878    1.0930    0.0000 N   0  0  0  0  0  0  0  0  0  0  0  0
    7.3737   -2.1808    0.0000 C   0  0  0  0  0  0  0  0  0  0  0  0
    7.1658   -1.2026    0.0000 C   0  0  0  0  0  0  0  0  0  0  0  0
    8.3248   -2.4898    0.0000 C   0  0  0  0  0  0  0  0  0  0  0  0
    8.6338   -3.4408    0.0000 C   0  0  0  0  0  0  0  0  0  0  0  0
    9.9428   -2.4898    0.0000 C   0  0  0  0  0  0  0  0  0  0  0  0
    6.0068    0.0846    0.0000 C   0  0  0  0  0  0  0  0  0  0  0  0
    5.0558    0.3936    0.0000 C   0  0  0  0  0  0  0  0  0  0  0  0
    3.8968    1.6808    0.0000 C   0  0  0  0  0  0  0  0  0  0  0  0
   10.8939   -2.1808    0.0000 C   0  0  0  0  0  0  0  0  0  0  0  0
    3.5878    2.6318    0.0000 C   0  0  0  0  0  0  0  0  0  0  0  0
    2.5878    2.6318    0.0000 C   0  0  0  0  0  0  0  0  0  0  0  0
    2.0000    3.4408    0.0000 C   0  0  0  0  0  0  0  0  0  0  0  0
    6.7541   -2.2024    0.0000 H   0  0  0  0  0  0  0  0  0  0  0  0
    7.2874   -2.7947    0.0000 H   0  0  0  0  0  0  0  0  0  0  0  0
    7.7854   -1.1810    0.0000 H   0  0  0  0  0  0  0  0  0  0  0  0
    7.2521   -0.5886    0.0000 H   0  0  0  0  0  0  0  0  0  0  0  0
    5.7540   -1.3084    0.0000 H   0  0  0  0  0  0  0  0  0  0  0  0
    8.2694   -3.9424    0.0000 H   0  0  0  0  0  0  0  0  0  0  0  0
    5.3086    1.7866    0.0000 H   0  0  0  0  0  0  0  0  0  0  0  0
   11.0854   -2.7704    0.0000 H   0  0  0  0  0  0  0  0  0  0  0  0
   11.4835   -1.9892    0.0000 H   0  0  0  0  0  0  0  0  0  0  0  0
   10.7023   -1.5911    0.0000 H   0  0  0  0  0  0  0  0  0  0  0  0
    3.9522    3.1334    0.0000 H   0  0  0  0  0  0  0  0  0  0  0  0
    2.5016    3.8052    0.0000 H   0  0  0  0  0  0  0  0  0  0  0  0
    1.6356    3.9424    0.0000 H   0  0  0  0  0  0  0  0  0  0  0  0
    1.4984    3.0764    0.0000 H   0  0  0  0  0  0  0  0  0  0  0  0
  1 12  1  0  0  0  0
  1 13  1  0  0  0  0
  2  8  1  0  0  0  0
  2 19  1  0  0  0  0
  3 14  2  0  0  0  0
  4 15  2  0  0  0  0
  5 10  1  0  0  0  0
  5 14  1  0  0  0  0
  5 25  1  0  0  0  0
  6 11  1  0  0  0  0
  6 13  2  0  0  0  0
  7 15  1  0  0  0  0
  7 16  1  0  0  0  0
  7 27  1  0  0  0  0
  8 16  2  0  0  0  0
  9 10  1  0  0  0  0
  9 11  1  0  0  0  0
  9 21  1  0  0  0  0
  9 22  1  0  0  0  0
 10 23  1  0  0  0  0
 10 24  1  0  0  0  0
 11 12  2  0  0  0  0
 12 26  1  0  0  0  0
 13 17  1  0  0  0  0
 14 15  1  0  0  0  0
 16 18  1  0  0  0  0
 17 28  1  0  0  0  0
 17 29  1  0  0  0  0
 17 30  1  0  0  0  0
 18 19  2  0  0  0  0
 18 31  1  0  0  0  0
 19 20  1  0  0  0  0
 20 32  1  0  0  0  0
 20 33  1  0  0  0  0
 20 34  1  0  0  0  0
M  END
> <PUBCHEM_COMPOUND_CID>
47205504

> <PUBCHEM_COMPOUND_CANONICALIZED>
1

> <PUBCHEM_CACTVS_COMPLEXITY>
369

> <PUBCHEM_CACTVS_HBOND_ACCEPTOR>
6

> <PUBCHEM_CACTVS_HBOND_DONOR>
2

> <PUBCHEM_CACTVS_ROTATABLE_BOND>
4

> <PUBCHEM_CACTVS_SUBSKEYS>
AAADccBzsABAAAAAAAAAAAAAAAAAAWLAAAAAAAAAAAAAAAAB4AAAHgQUAAAACAzF1gSztZLYEAitAadydgCA8KBlKjghGLW+bFqAZAhgyaEUAIhCFwrgQEAAAAAAAAAAAAAAAAAAAAAAAAAAAAAAAAAAAA==

> <PUBCHEM_IUPAC_OPENEYE_NAME>
N'-(5-methylisoxazol-3-yl)-N-[2-(2-methylthiazol-4-yl)ethyl]oxamide

> <PUBCHEM_IUPAC_CAS_NAME>
N'-(5-methyl-3-isoxazolyl)-N-[2-(2-methyl-4-thiazolyl)ethyl]oxamide

> <PUBCHEM_IUPAC_NAME>
N'-(5-methyl-1,2-oxazol-3-yl)-N-[2-(2-methyl-1,3-thiazol-4-yl)ethyl]oxamide

> <PUBCHEM_IUPAC_SYSTEMATIC_NAME>
N'-(5-methyl-1,2-oxazol-3-yl)-N-[2-(2-methyl-1,3-thiazol-4-yl)ethyl]ethanediamide

> <PUBCHEM_IUPAC_TRADITIONAL_NAME>
N'-(5-methylisoxazol-3-yl)-N-[2-(2-methylthiazol-4-yl)ethyl]oxamide

> <PUBCHEM_IUPAC_INCHI>
InChI=1S/C12H14N4O3S/c1-7-5-10(16-19-7)15-12(18)11(17)13-4-3-9-6-20-8(2)14-9/h5-6H,3-4H2,1-2H3,(H,13,17)(H,15,16,18)

> <PUBCHEM_IUPAC_INCHIKEY>
UVSGXRRGXFHRLC-UHFFFAOYSA-N

> <PUBCHEM_XLOGP3_AA>
1.4

> <PUBCHEM_EXACT_MASS>
294.078661

> <PUBCHEM_MOLECULAR_FORMULA>
C12H14N4O3S

> <PUBCHEM_MOLECULAR_WEIGHT>
294.32956

> <PUBCHEM_OPENEYE_CAN_SMILES>
CC1=CC(=NO1)NC(=O)C(=O)NCCC2=CSC(=N2)C

> <PUBCHEM_OPENEYE_ISO_SMILES>
CC1=CC(=NO1)NC(=O)C(=O)NCCC2=CSC(=N2)C

> <PUBCHEM_CACTVS_TPSA>
125

> <PUBCHEM_MONOISOTOPIC_WEIGHT>
294.078661

> <PUBCHEM_TOTAL_CHARGE>
0

> <PUBCHEM_HEAVY_ATOM_COUNT>
20

> <PUBCHEM_ATOM_DEF_STEREO_COUNT>
0

> <PUBCHEM_ATOM_UDEF_STEREO_COUNT>
0

> <PUBCHEM_BOND_DEF_STEREO_COUNT>
0

> <PUBCHEM_BOND_UDEF_STEREO_COUNT>
0

> <PUBCHEM_ISOTOPIC_ATOM_COUNT>
0

> <PUBCHEM_COMPONENT_COUNT>
1

> <PUBCHEM_CACTVS_TAUTO_COUNT>
16

> <PUBCHEM_COORDINATE_TYPE>
1
5
255

> <PUBCHEM_BONDANNOTATIONS>
1  12  8
1  13  8
11  12  8
16  18  8
18  19  8
2  19  8
2  8  8
6  11  8
6  13  8
8  16  8

$$$$

