6324616
  -OEChem-07051213022D

 97100  0     1  0  0  0  0  0999 V2000
    7.1311   -2.4550    0.0000 O   0  0  0  0  0  0  0  0  0  0  0  0
    5.1514   -0.1090    0.0000 O   0  0  0  0  0  0  0  0  0  0  0  0
    2.9106   -2.6212    0.0000 O   0  0  0  0  0  0  0  0  0  0  0  0
    8.8592   -2.5725    0.0000 O   0  0  0  0  0  0  0  0  0  0  0  0
   11.2925   -1.2688    0.0000 O   0  0  0  0  0  0  0  0  0  0  0  0
   11.7655    0.6367    0.0000 O   0  0  0  0  0  0  0  0  0  0  0  0
    5.8260   -3.5937    0.0000 O   0  0  0  0  0  0  0  0  0  0  0  0
   10.6824   -1.1186    0.0000 O   0  0  0  0  0  0  0  0  0  0  0  0
   10.1625    3.8038    0.0000 O   0  0  0  0  0  0  0  0  0  0  0  0
    9.0541    0.0106    0.0000 O   0  0  0  0  0  0  0  0  0  0  0  0
    8.4141    3.8384    0.0000 O   0  0  0  0  0  0  0  0  0  0  0  0
    6.5367    0.3524    0.0000 O   0  0  0  0  0  0  0  0  0  0  0  0
    6.5985    1.8845    0.0000 N   0  0  0  0  0  0  0  0  0  0  0  0
    6.1084   -0.9161    0.0000 C   0  0  2  0  0  0  0  0  0  0  0  0
    5.1271   -1.1087    0.0000 C   0  0  1  0  0  0  0  0  0  0  0  0
    6.9385   -1.4737    0.0000 C   0  0  1  0  0  0  0  0  0  0  0  0
    4.5695   -1.9388    0.0000 C   0  0  1  0  0  0  0  0  0  0  0  0
    7.8364   -1.0336    0.0000 C   0  0  1  0  0  0  0  0  0  0  0  0
    3.5718   -1.8710    0.0000 C   0  0  2  0  0  0  0  0  0  0  0  0
    6.9412   -0.3626    0.0000 C   0  0  0  0  0  0  0  0  0  0  0  0
    8.6665   -1.5913    0.0000 C   0  0  2  0  0  0  0  0  0  0  0  0
    2.9143   -1.1175    0.0000 C   0  0  1  0  0  0  0  0  0  0  0  0
    4.4149   -2.9268    0.0000 C   0  0  0  0  0  0  0  0  0  0  0  0
    8.6926   -0.5170    0.0000 C   0  0  0  0  0  0  0  0  0  0  0  0
    2.0000   -0.7125    0.0000 C   0  0  0  0  0  0  0  0  0  0  0  0
    9.5645   -1.1512    0.0000 C   0  0  0  0  0  0  0  0  0  0  0  0
    3.2381   -0.1714    0.0000 C   0  0  0  0  0  0  0  0  0  0  0  0
    6.8073   -3.4011    0.0000 C   0  0  0  0  0  0  0  0  0  0  0  0
   10.3946   -1.7088    0.0000 C   0  0  0  0  0  0  0  0  0  0  0  0
    4.1361    0.2687    0.0000 C   0  0  0  0  0  0  0  0  0  0  0  0
   11.3604   -0.2711    0.0000 C   0  0  1  0  0  0  0  0  0  0  0  0
    9.8053   -2.8963    0.0000 C   0  0  0  0  0  0  0  0  0  0  0  0
    7.4649   -4.1546    0.0000 C   0  0  0  0  0  0  0  0  0  0  0  0
   10.1625    0.8038    0.0000 C   0  0  0  0  0  0  0  0  0  0  0  0
   10.3717   -0.1680    0.0000 C   0  0  0  0  0  0  0  0  0  0  0  0
   11.0285    1.3038    0.0000 C   0  0  0  0  0  0  0  0  0  0  0  0
    9.2965    1.3038    0.0000 C   0  0  0  0  0  0  0  0  0  0  0  0
   12.3308   -0.5125    0.0000 C   0  0  0  0  0  0  0  0  0  0  0  0
    4.2039    1.2664    0.0000 C   0  0  0  0  0  0  0  0  0  0  0  0
   11.0285    2.3038    0.0000 C   0  0  0  0  0  0  0  0  0  0  0  0
    9.2965    2.3038    0.0000 C   0  0  0  0  0  0  0  0  0  0  0  0
   10.1625    2.8038    0.0000 C   0  0  0  0  0  0  0  0  0  0  0  0
    8.4025    0.7691    0.0000 C   0  0  0  0  0  0  0  0  0  0  0  0
    8.4025    2.8384    0.0000 C   0  0  0  0  0  0  0  0  0  0  0  0
    5.1019    1.7065    0.0000 C   0  0  0  0  0  0  0  0  0  0  0  0
    7.4965    2.3246    0.0000 C   0  0  0  0  0  0  0  0  0  0  0  0
   11.8945    2.8038    0.0000 C   0  0  0  0  0  0  0  0  0  0  0  0
    7.4965    1.2830    0.0000 C   0  0  0  0  0  0  0  0  0  0  0  0
    5.9320    1.1488    0.0000 C   0  0  0  0  0  0  0  0  0  0  0  0
    5.1698    2.7042    0.0000 C   0  0  0  0  0  0  0  0  0  0  0  0
    6.0694   -0.2973    0.0000 H   0  0  0  0  0  0  0  0  0  0  0  0
    4.5193   -0.9863    0.0000 H   0  0  0  0  0  0  0  0  0  0  0  0
    6.4714   -1.8814    0.0000 H   0  0  0  0  0  0  0  0  0  0  0  0
    4.9771   -2.4060    0.0000 H   0  0  0  0  0  0  0  0  0  0  0  0
    7.7170   -0.4253    0.0000 H   0  0  0  0  0  0  0  0  0  0  0  0
    3.6647   -2.4840    0.0000 H   0  0  0  0  0  0  0  0  0  0  0  0
    7.2844   -0.8789    0.0000 H   0  0  0  0  0  0  0  0  0  0  0  0
    7.4576   -0.0194    0.0000 H   0  0  0  0  0  0  0  0  0  0  0  0
    6.5980    0.1538    0.0000 H   0  0  0  0  0  0  0  0  0  0  0  0
    8.2773   -2.0739    0.0000 H   0  0  0  0  0  0  0  0  0  0  0  0
    2.3576   -1.3903    0.0000 H   0  0  0  0  0  0  0  0  0  0  0  0
    3.8024   -2.8310    0.0000 H   0  0  0  0  0  0  0  0  0  0  0  0
    4.3191   -3.5394    0.0000 H   0  0  0  0  0  0  0  0  0  0  0  0
    5.0275   -3.0226    0.0000 H   0  0  0  0  0  0  0  0  0  0  0  0
    9.0130   -1.0478    0.0000 H   0  0  0  0  0  0  0  0  0  0  0  0
    9.2235   -0.1967    0.0000 H   0  0  0  0  0  0  0  0  0  0  0  0
    8.3723    0.0138    0.0000 H   0  0  0  0  0  0  0  0  0  0  0  0
    5.6957    0.1878    0.0000 H   0  0  0  0  0  0  0  0  0  0  0  0
    2.2511   -0.1456    0.0000 H   0  0  0  0  0  0  0  0  0  0  0  0
    1.4331   -0.4614    0.0000 H   0  0  0  0  0  0  0  0  0  0  0  0
    1.7489   -1.2794    0.0000 H   0  0  0  0  0  0  0  0  0  0  0  0
    9.6066   -0.5326    0.0000 H   0  0  0  0  0  0  0  0  0  0  0  0
    2.3028   -2.4987    0.0000 H   0  0  0  0  0  0  0  0  0  0  0  0
    2.7730    0.2386    0.0000 H   0  0  0  0  0  0  0  0  0  0  0  0
   10.3525   -2.3274    0.0000 H   0  0  0  0  0  0  0  0  0  0  0  0
    4.5014   -0.2322    0.0000 H   0  0  0  0  0  0  0  0  0  0  0  0
    9.6046   -3.4829    0.0000 H   0  0  0  0  0  0  0  0  0  0  0  0
   10.3919   -3.0971    0.0000 H   0  0  0  0  0  0  0  0  0  0  0  0
   10.0061   -2.3097    0.0000 H   0  0  0  0  0  0  0  0  0  0  0  0
    6.9978   -4.5622    0.0000 H   0  0  0  0  0  0  0  0  0  0  0  0
    7.8726   -4.6217    0.0000 H   0  0  0  0  0  0  0  0  0  0  0  0
    7.9320   -3.7469    0.0000 H   0  0  0  0  0  0  0  0  0  0  0  0
   12.1812   -1.1142    0.0000 H   0  0  0  0  0  0  0  0  0  0  0  0
   12.9325   -0.6622    0.0000 H   0  0  0  0  0  0  0  0  0  0  0  0
   12.4805    0.0892    0.0000 H   0  0  0  0  0  0  0  0  0  0  0  0
    3.6893    1.6121    0.0000 H   0  0  0  0  0  0  0  0  0  0  0  0
   12.2045    2.2668    0.0000 H   0  0  0  0  0  0  0  0  0  0  0  0
   12.4315    3.1138    0.0000 H   0  0  0  0  0  0  0  0  0  0  0  0
   11.5845    3.3407    0.0000 H   0  0  0  0  0  0  0  0  0  0  0  0
    6.9607    0.9709    0.0000 H   0  0  0  0  0  0  0  0  0  0  0  0
    6.2163    2.3727    0.0000 H   0  0  0  0  0  0  0  0  0  0  0  0
    5.7884    2.6621    0.0000 H   0  0  0  0  0  0  0  0  0  0  0  0
    5.2119    3.3227    0.0000 H   0  0  0  0  0  0  0  0  0  0  0  0
    4.5512    2.7462    0.0000 H   0  0  0  0  0  0  0  0  0  0  0  0
   10.6994    4.1138    0.0000 H   0  0  0  0  0  0  0  0  0  0  0  0
    9.6634    0.1253    0.0000 H   0  0  0  0  0  0  0  0  0  0  0  0
    7.8808    4.1546    0.0000 H   0  0  0  0  0  0  0  0  0  0  0  0
 16  1  1  1  0  0  0
  1 28  1  0  0  0  0
 15  2  1  1  0  0  0
  2 68  1  0  0  0  0
 19  3  1  1  0  0  0
  3 73  1  0  0  0  0
 21  4  1  6  0  0  0
  4 32  1  0  0  0  0
  5 29  1  0  0  0  0
  5 31  1  0  0  0  0
  6 31  1  0  0  0  0
  6 36  1  0  0  0  0
  7 28  2  0  0  0  0
  8 35  2  0  0  0  0
  9 42  1  0  0  0  0
  9 95  1  0  0  0  0
 10 43  1  0  0  0  0
 10 96  1  0  0  0  0
 11 44  1  0  0  0  0
 11 97  1  0  0  0  0
 12 49  2  0  0  0  0
 13 46  1  0  0  0  0
 13 49  1  0  0  0  0
 13 91  1  0  0  0  0
 14 15  1  0  0  0  0
 14 16  1  0  0  0  0
 14 20  1  1  0  0  0
 14 51  1  0  0  0  0
 15 17  1  0  0  0  0
 15 52  1  0  0  0  0
 16 18  1  0  0  0  0
 16 53  1  0  0  0  0
 17 19  1  0  0  0  0
 17 23  1  6  0  0  0
 17 54  1  0  0  0  0
 18 21  1  0  0  0  0
 18 24  1  6  0  0  0
 18 55  1  0  0  0  0
 19 22  1  0  0  0  0
 19 56  1  0  0  0  0
 20 57  1  0  0  0  0
 20 58  1  0  0  0  0
 20 59  1  0  0  0  0
 21 26  1  0  0  0  0
 21 60  1  0  0  0  0
 22 25  1  1  0  0  0
 22 27  1  0  0  0  0
 22 61  1  0  0  0  0
 23 62  1  0  0  0  0
 23 63  1  0  0  0  0
 23 64  1  0  0  0  0
 24 65  1  0  0  0  0
 24 66  1  0  0  0  0
 24 67  1  0  0  0  0
 25 69  1  0  0  0  0
 25 70  1  0  0  0  0
 25 71  1  0  0  0  0
 26 29  2  0  0  0  0
 26 72  1  0  0  0  0
 27 30  2  0  0  0  0
 27 74  1  0  0  0  0
 28 33  1  0  0  0  0
 29 75  1  0  0  0  0
 30 39  1  0  0  0  0
 30 76  1  0  0  0  0
 31 35  1  0  0  0  0
 31 38  1  1  0  0  0
 32 77  1  0  0  0  0
 32 78  1  0  0  0  0
 32 79  1  0  0  0  0
 33 80  1  0  0  0  0
 33 81  1  0  0  0  0
 33 82  1  0  0  0  0
 34 35  1  0  0  0  0
 34 36  2  0  0  0  0
 34 37  1  0  0  0  0
 36 40  1  0  0  0  0
 37 41  1  0  0  0  0
 37 43  2  0  0  0  0
 38 83  1  0  0  0  0
 38 84  1  0  0  0  0
 38 85  1  0  0  0  0
 39 45  2  0  0  0  0
 39 86  1  0  0  0  0
 40 42  2  0  0  0  0
 40 47  1  0  0  0  0
 41 42  1  0  0  0  0
 41 44  2  0  0  0  0
 43 48  1  0  0  0  0
 44 46  1  0  0  0  0
 45 49  1  0  0  0  0
 45 50  1  0  0  0  0
 46 48  2  0  0  0  0
 47 87  1  0  0  0  0
 47 88  1  0  0  0  0
 47 89  1  0  0  0  0
 48 90  1  0  0  0  0
 50 92  1  0  0  0  0
 50 93  1  0  0  0  0
 50 94  1  0  0  0  0
M  END
> <PUBCHEM_COMPOUND_CID>
6324616

> <PUBCHEM_COMPOUND_CANONICALIZED>
1

> <PUBCHEM_CACTVS_COMPLEXITY>
1330

> <PUBCHEM_CACTVS_HBOND_ACCEPTOR>
12

> <PUBCHEM_CACTVS_HBOND_DONOR>
6

> <PUBCHEM_CACTVS_ROTATABLE_BOND>
3

> <PUBCHEM_CACTVS_SUBSKEYS>
AAADcfB+PAAAAAAAAAAAAAAAAAAAASAAAAAwYAAAAAAAAEjBUAAAHgAQCAAADRyhmAIyzsLABgCIAqXSWAKCCAAlIgAIiAFHbMgeNzbWtZ+meWjn9B3c+Yf6/P/O6QADSgAYEADSAAaUADAgAAAAAAAAAA==

> <PUBCHEM_IUPAC_INCHI>
InChI=1S/C37H47NO12/c1-16-11-10-12-17(2)36(46)38-23-15-24(40)26-27(32(23)44)31(43)21(6)34-28(26)35(45)37(8,50-34)48-14-13-25(47-9)18(3)33(49-22(7)39)20(5)30(42)19(4)29(16)41/h10-16,18-20,25,29-30,33,40-44H,1-9H3,(H,38,46)/b11-10+,14-13+,17-12-/t16-,18+,19+,20+,25-,29-,30+,33+,37-/m0/s1

> <PUBCHEM_IUPAC_INCHIKEY>
HJYYPODYNSCCOU-ODRIEIDWSA-N

> <PUBCHEM_XLOGP3_AA>
4.9

> <PUBCHEM_EXACT_MASS>
697.309826

> <PUBCHEM_MOLECULAR_FORMULA>
C37H47NO12

> <PUBCHEM_MOLECULAR_WEIGHT>
697.76858

> <PUBCHEM_OPENEYE_CAN_SMILES>
CC1C=CC=C(C(=O)NC2=CC(=C3C(=C2O)C(=C(C4=C3C(=O)C(O4)(OC=CC(C(C(C(C(C(C1O)C)O)C)OC(=O)C)C)OC)C)C)O)O)C

> <PUBCHEM_OPENEYE_ISO_SMILES>
C[C@H]1/C=C/C=C(\C(=O)NC2=CC(=C3C(=C2O)C(=C(C4=C3C(=O)[C@](O4)(O/C=C/[C@@H]([C@H]([C@H]([C@@H]([C@@H]([C@@H]([C@H]1O)C)O)C)OC(=O)C)C)OC)C)C)O)O)/C

> <PUBCHEM_CACTVS_TPSA>
201

> <PUBCHEM_MONOISOTOPIC_WEIGHT>
697.309826

> <PUBCHEM_TOTAL_CHARGE>
0

> <PUBCHEM_HEAVY_ATOM_COUNT>
50

> <PUBCHEM_ATOM_DEF_STEREO_COUNT>
9

> <PUBCHEM_ATOM_UDEF_STEREO_COUNT>
0

> <PUBCHEM_BOND_DEF_STEREO_COUNT>
3

> <PUBCHEM_BOND_UDEF_STEREO_COUNT>
0

> <PUBCHEM_ISOTOPIC_ATOM_COUNT>
0

> <PUBCHEM_COMPONENT_COUNT>
1

> <PUBCHEM_CACTVS_TAUTO_COUNT>
712

> <PUBCHEM_COORDINATE_TYPE>
1
5
255

> <PUBCHEM_BONDANNOTATIONS>
16  1  5
14  20  5
17  23  6
18  24  6
15  2  5
22  25  5
19  3  5
31  38  5
34  36  8
34  37  8
36  40  8
37  41  8
37  43  8
21  4  6
40  42  8
41  42  8
41  44  8
43  48  8
44  46  8
46  48  8

$$$$

