5281612
  -OEChem-07051212582D

 34 36  0     0  0  0  0  0  0999 V2000
    7.1962    0.2704    0.0000 O   0  0  0  0  0  0  0  0  0  0  0  0
    8.9446   -2.7642    0.0000 O   0  0  0  0  0  0  0  0  0  0  0  0
    2.8660    1.7704    0.0000 O   0  0  0  0  0  0  0  0  0  0  0  0
    7.1962   -2.7296    0.0000 O   0  0  0  0  0  0  0  0  0  0  0  0
   10.7263    0.2945    0.0000 O   0  0  0  0  0  0  0  0  0  0  0  0
    4.5981    2.7704    0.0000 O   0  0  0  0  0  0  0  0  0  0  0  0
    8.0622   -1.2296    0.0000 C   0  0  0  0  0  0  0  0  0  0  0  0
    6.3301   -0.2296    0.0000 C   0  0  0  0  0  0  0  0  0  0  0  0
    8.0622   -0.2296    0.0000 C   0  0  0  0  0  0  0  0  0  0  0  0
    5.4641    0.2704    0.0000 C   0  0  0  0  0  0  0  0  0  0  0  0
    7.1962   -1.7296    0.0000 C   0  0  0  0  0  0  0  0  0  0  0  0
    6.3301   -1.2296    0.0000 C   0  0  0  0  0  0  0  0  0  0  0  0
    8.9561   -1.7643    0.0000 C   0  0  0  0  0  0  0  0  0  0  0  0
    8.9561    0.3051    0.0000 C   0  0  0  0  0  0  0  0  0  0  0  0
    5.4641    1.2704    0.0000 C   0  0  0  0  0  0  0  0  0  0  0  0
    4.5981   -0.2296    0.0000 C   0  0  0  0  0  0  0  0  0  0  0  0
    9.8622   -0.2088    0.0000 C   0  0  0  0  0  0  0  0  0  0  0  0
    9.8622   -1.2504    0.0000 C   0  0  0  0  0  0  0  0  0  0  0  0
    4.5981    1.7704    0.0000 C   0  0  0  0  0  0  0  0  0  0  0  0
    3.7320    1.2704    0.0000 C   0  0  0  0  0  0  0  0  0  0  0  0
    3.7320    0.2704    0.0000 C   0  0  0  0  0  0  0  0  0  0  0  0
    2.0000    1.2704    0.0000 C   0  0  0  0  0  0  0  0  0  0  0  0
    5.7932   -1.5396    0.0000 H   0  0  0  0  0  0  0  0  0  0  0  0
    8.9490    0.9250    0.0000 H   0  0  0  0  0  0  0  0  0  0  0  0
    6.0010    1.5804    0.0000 H   0  0  0  0  0  0  0  0  0  0  0  0
    4.5981   -0.8496    0.0000 H   0  0  0  0  0  0  0  0  0  0  0  0
   10.3979   -1.5625    0.0000 H   0  0  0  0  0  0  0  0  0  0  0  0
    3.1951   -0.0396    0.0000 H   0  0  0  0  0  0  0  0  0  0  0  0
    9.4779   -3.0804    0.0000 H   0  0  0  0  0  0  0  0  0  0  0  0
   11.2644   -0.0134    0.0000 H   0  0  0  0  0  0  0  0  0  0  0  0
    5.1350    3.0804    0.0000 H   0  0  0  0  0  0  0  0  0  0  0  0
    1.6900    1.8073    0.0000 H   0  0  0  0  0  0  0  0  0  0  0  0
    1.4631    0.9604    0.0000 H   0  0  0  0  0  0  0  0  0  0  0  0
    2.3100    0.7335    0.0000 H   0  0  0  0  0  0  0  0  0  0  0  0
  1  8  1  0  0  0  0
  1  9  1  0  0  0  0
  2 13  1  0  0  0  0
  2 29  1  0  0  0  0
  3 20  1  0  0  0  0
  3 22  1  0  0  0  0
  4 11  2  0  0  0  0
  5 17  1  0  0  0  0
  5 30  1  0  0  0  0
  6 19  1  0  0  0  0
  6 31  1  0  0  0  0
  7  9  1  0  0  0  0
  7 11  1  0  0  0  0
  7 13  2  0  0  0  0
  8 10  1  0  0  0  0
  8 12  2  0  0  0  0
  9 14  2  0  0  0  0
 10 15  2  0  0  0  0
 10 16  1  0  0  0  0
 11 12  1  0  0  0  0
 12 23  1  0  0  0  0
 13 18  1  0  0  0  0
 14 17  1  0  0  0  0
 14 24  1  0  0  0  0
 15 19  1  0  0  0  0
 15 25  1  0  0  0  0
 16 21  2  0  0  0  0
 16 26  1  0  0  0  0
 17 18  2  0  0  0  0
 18 27  1  0  0  0  0
 19 20  2  0  0  0  0
 20 21  1  0  0  0  0
 21 28  1  0  0  0  0
 22 32  1  0  0  0  0
 22 33  1  0  0  0  0
 22 34  1  0  0  0  0
M  END
> <PUBCHEM_COMPOUND_CID>
5281612

> <PUBCHEM_COMPOUND_CANONICALIZED>
1

> <PUBCHEM_CACTVS_COMPLEXITY>
462

> <PUBCHEM_CACTVS_HBOND_ACCEPTOR>
6

> <PUBCHEM_CACTVS_HBOND_DONOR>
3

> <PUBCHEM_CACTVS_ROTATABLE_BOND>
2

> <PUBCHEM_CACTVS_SUBSKEYS>
AAADccB4OAAAAAAAAAAAAAAAAAAAAAAAAAAwYIAAAAAAAACBQAAAGgAACAAADASAmAIyBoAABgCIAqBSAAACCAAkIAAIiAEGiMgNJzaGNRqCeWOl4BULuQfI7LzOIAABCAAIQABAAAIQABCAAAAAAAAAAA==

> <PUBCHEM_IUPAC_OPENEYE_NAME>
5,7-dihydroxy-2-(3-hydroxy-4-methoxy-phenyl)chromen-4-one

> <PUBCHEM_IUPAC_CAS_NAME>
5,7-dihydroxy-2-(3-hydroxy-4-methoxyphenyl)-1-benzopyran-4-one

> <PUBCHEM_IUPAC_NAME>
5,7-dihydroxy-2-(3-hydroxy-4-methoxyphenyl)chromen-4-one

> <PUBCHEM_IUPAC_SYSTEMATIC_NAME>
2-(4-methoxy-3-oxidanyl-phenyl)-5,7-bis(oxidanyl)chromen-4-one

> <PUBCHEM_IUPAC_TRADITIONAL_NAME>
5,7-dihydroxy-2-(3-hydroxy-4-methoxy-phenyl)chromone

> <PUBCHEM_IUPAC_INCHI>
InChI=1S/C16H12O6/c1-21-13-3-2-8(4-10(13)18)14-7-12(20)16-11(19)5-9(17)6-15(16)22-14/h2-7,17-19H,1H3

> <PUBCHEM_IUPAC_INCHIKEY>
MBNGWHIJMBWFHU-UHFFFAOYSA-N

> <PUBCHEM_XLOGP3>
1.7

> <PUBCHEM_EXACT_MASS>
300.063388

> <PUBCHEM_MOLECULAR_FORMULA>
C16H12O6

> <PUBCHEM_MOLECULAR_WEIGHT>
300.26288

> <PUBCHEM_OPENEYE_CAN_SMILES>
COC1=C(C=C(C=C1)C2=CC(=O)C3=C(C=C(C=C3O2)O)O)O

> <PUBCHEM_OPENEYE_ISO_SMILES>
COC1=C(C=C(C=C1)C2=CC(=O)C3=C(C=C(C=C3O2)O)O)O

> <PUBCHEM_CACTVS_TPSA>
96.2

> <PUBCHEM_MONOISOTOPIC_WEIGHT>
300.063388

> <PUBCHEM_TOTAL_CHARGE>
0

> <PUBCHEM_HEAVY_ATOM_COUNT>
22

> <PUBCHEM_ATOM_DEF_STEREO_COUNT>
0

> <PUBCHEM_ATOM_UDEF_STEREO_COUNT>
0

> <PUBCHEM_BOND_DEF_STEREO_COUNT>
0

> <PUBCHEM_BOND_UDEF_STEREO_COUNT>
0

> <PUBCHEM_ISOTOPIC_ATOM_COUNT>
0

> <PUBCHEM_COMPONENT_COUNT>
1

> <PUBCHEM_CACTVS_TAUTO_COUNT>
36

> <PUBCHEM_COORDINATE_TYPE>
1
5
255

> <PUBCHEM_BONDANNOTATIONS>
1  8  8
1  9  8
10  15  8
10  16  8
11  12  8
13  18  8
14  17  8
15  19  8
16  21  8
17  18  8
19  20  8
20  21  8
7  11  8
7  13  8
7  9  8
8  12  8
9  14  8

$$$$

