7141
  -OEChem-06261201492D

 31 33  0     0  0  0  0  0  0999 V2000
    2.5369    1.2927    0.0000 O   0  0  0  0  0  0  0  0  0  0  0  0
    6.0010   -0.7073    0.0000 N   0  0  0  0  0  0  0  0  0  0  0  0
    8.5991   -0.2073    0.0000 C   0  0  0  0  0  0  0  0  0  0  0  0
    8.5991    0.7927    0.0000 C   0  0  0  0  0  0  0  0  0  0  0  0
    6.8671   -0.2073    0.0000 C   0  0  0  0  0  0  0  0  0  0  0  0
    7.7331   -0.7073    0.0000 C   0  0  0  0  0  0  0  0  0  0  0  0
    7.7331    1.2927    0.0000 C   0  0  0  0  0  0  0  0  0  0  0  0
    6.8671    0.7927    0.0000 C   0  0  0  0  0  0  0  0  0  0  0  0
    5.1350   -0.2073    0.0000 C   0  0  0  0  0  0  0  0  0  0  0  0
    9.4931   -0.7420    0.0000 C   0  0  0  0  0  0  0  0  0  0  0  0
    9.4931    1.3273    0.0000 C   0  0  0  0  0  0  0  0  0  0  0  0
   10.3991   -0.2281    0.0000 C   0  0  0  0  0  0  0  0  0  0  0  0
   10.3991    0.8135    0.0000 C   0  0  0  0  0  0  0  0  0  0  0  0
    5.1350    0.7927    0.0000 C   0  0  0  0  0  0  0  0  0  0  0  0
    4.2690   -0.7073    0.0000 C   0  0  0  0  0  0  0  0  0  0  0  0
    4.2690    1.2927    0.0000 C   0  0  0  0  0  0  0  0  0  0  0  0
    3.4030   -0.2073    0.0000 C   0  0  0  0  0  0  0  0  0  0  0  0
    3.4030    0.7927    0.0000 C   0  0  0  0  0  0  0  0  0  0  0  0
    7.7331   -1.3273    0.0000 H   0  0  0  0  0  0  0  0  0  0  0  0
    7.7331    1.9127    0.0000 H   0  0  0  0  0  0  0  0  0  0  0  0
    6.3301    1.1027    0.0000 H   0  0  0  0  0  0  0  0  0  0  0  0
    6.0010   -1.3273    0.0000 H   0  0  0  0  0  0  0  0  0  0  0  0
    9.4859   -1.3620    0.0000 H   0  0  0  0  0  0  0  0  0  0  0  0
    9.4859    1.9473    0.0000 H   0  0  0  0  0  0  0  0  0  0  0  0
   10.9349   -0.5402    0.0000 H   0  0  0  0  0  0  0  0  0  0  0  0
   10.9349    1.1256    0.0000 H   0  0  0  0  0  0  0  0  0  0  0  0
    5.6720    1.1027    0.0000 H   0  0  0  0  0  0  0  0  0  0  0  0
    4.2690   -1.3273    0.0000 H   0  0  0  0  0  0  0  0  0  0  0  0
    4.2690    1.9127    0.0000 H   0  0  0  0  0  0  0  0  0  0  0  0
    2.8660   -0.5173    0.0000 H   0  0  0  0  0  0  0  0  0  0  0  0
    2.0000    0.9827    0.0000 H   0  0  0  0  0  0  0  0  0  0  0  0
  1 18  1  0  0  0  0
  1 31  1  0  0  0  0
  2  5  1  0  0  0  0
  2  9  1  0  0  0  0
  2 22  1  0  0  0  0
  3  4  1  0  0  0  0
  3  6  1  0  0  0  0
  3 10  2  0  0  0  0
  4  7  1  0  0  0  0
  4 11  2  0  0  0  0
  5  6  2  0  0  0  0
  5  8  1  0  0  0  0
  6 19  1  0  0  0  0
  7  8  2  0  0  0  0
  7 20  1  0  0  0  0
  8 21  1  0  0  0  0
  9 14  2  0  0  0  0
  9 15  1  0  0  0  0
 10 12  1  0  0  0  0
 10 23  1  0  0  0  0
 11 13  1  0  0  0  0
 11 24  1  0  0  0  0
 12 13  2  0  0  0  0
 12 25  1  0  0  0  0
 13 26  1  0  0  0  0
 14 16  1  0  0  0  0
 14 27  1  0  0  0  0
 15 17  2  0  0  0  0
 15 28  1  0  0  0  0
 16 18  2  0  0  0  0
 16 29  1  0  0  0  0
 17 18  1  0  0  0  0
 17 30  1  0  0  0  0
M  END
> <PUBCHEM_COMPOUND_CID>
7141

> <PUBCHEM_COMPOUND_CANONICALIZED>
1

> <PUBCHEM_CACTVS_COMPLEXITY>
260

> <PUBCHEM_CACTVS_HBOND_ACCEPTOR>
2

> <PUBCHEM_CACTVS_HBOND_DONOR>
2

> <PUBCHEM_CACTVS_ROTATABLE_BOND>
2

> <PUBCHEM_CACTVS_SUBSKEYS>
AAADccB6IAAAAAAAAAAAAAAAAAAAAAAAAAAwYMAAAAAAAADBVAAAHgAQCAAADAyBmAAwxsLAAgCAAiRCQACCAAAhIgAIiAAGbIgIJmLCkZOEcAhk0BHI2AewwIAOiEAAQAAQAAAQgACAACAAAAAAAAAAAA==

> <PUBCHEM_IUPAC_OPENEYE_NAME>
4-(2-naphthylamino)phenol

> <PUBCHEM_IUPAC_CAS_NAME>
4-(2-naphthalenylamino)phenol

> <PUBCHEM_IUPAC_NAME>
4-(naphthalen-2-ylamino)phenol

> <PUBCHEM_IUPAC_SYSTEMATIC_NAME>
4-(naphthalen-2-ylamino)phenol

> <PUBCHEM_IUPAC_TRADITIONAL_NAME>
4-(2-naphthylamino)phenol

> <PUBCHEM_IUPAC_INCHI>
InChI=1S/C16H13NO/c18-16-9-7-14(8-10-16)17-15-6-5-12-3-1-2-4-13(12)11-15/h1-11,17-18H

> <PUBCHEM_IUPAC_INCHIKEY>
RACMGQBQYYWANW-UHFFFAOYSA-N

> <PUBCHEM_XLOGP3>
4.2

> <PUBCHEM_EXACT_MASS>
235.099714

> <PUBCHEM_MOLECULAR_FORMULA>
C16H13NO

> <PUBCHEM_MOLECULAR_WEIGHT>
235.28052

> <PUBCHEM_OPENEYE_CAN_SMILES>
C1=CC=C2C=C(C=CC2=C1)NC3=CC=C(C=C3)O

> <PUBCHEM_OPENEYE_ISO_SMILES>
C1=CC=C2C=C(C=CC2=C1)NC3=CC=C(C=C3)O

> <PUBCHEM_CACTVS_TPSA>
32.3

> <PUBCHEM_MONOISOTOPIC_WEIGHT>
235.099714

> <PUBCHEM_TOTAL_CHARGE>
0

> <PUBCHEM_HEAVY_ATOM_COUNT>
18

> <PUBCHEM_ATOM_DEF_STEREO_COUNT>
0

> <PUBCHEM_ATOM_UDEF_STEREO_COUNT>
0

> <PUBCHEM_BOND_DEF_STEREO_COUNT>
0

> <PUBCHEM_BOND_UDEF_STEREO_COUNT>
0

> <PUBCHEM_ISOTOPIC_ATOM_COUNT>
0

> <PUBCHEM_COMPONENT_COUNT>
1

> <PUBCHEM_CACTVS_TAUTO_COUNT>
4

> <PUBCHEM_COORDINATE_TYPE>
1
5
255

> <PUBCHEM_BONDANNOTATIONS>
10  12  8
11  13  8
12  13  8
14  16  8
15  17  8
16  18  8
17  18  8
3  10  8
3  4  8
3  6  8
4  11  8
4  7  8
5  6  8
5  8  8
7  8  8
9  14  8
9  15  8

$$$$

