   Boiling Point
        135 to 137 deg C at 0.6 mm Hg
   from [1]HSDB

   Melting Point
        74-75 DEG C
   from [2]HSDB

   Dissociation Constants
        pKa = 8.77
   from [3]HSDB

   Octanol/Water Partition Coefficient
        log Kow= 0.20 @ pH 7.2
   from [4]HSDB

   Solubilities

     * SOL IN ALCOHOL, ETHYL ACETATE, ETHER
     * PRACTICALLY INSOL IN WATER, PETROLEUM ETHER
     * SOL IN CHLOROFORM

   from [5]HSDB

   Spectral Properties

     * MAX ABSORPTION (ACID (SALT)) & (BASE (SALT)): 257 NM (A= 8, 1%, 1
       CM)
     * Intense mass spectral peaks: 84 m/z, 91 m/z, 150 m/z

   from [6]HSDB

   Other Chemical/Physical Properties

     * ODORLESS; WHITE, FINE, CRYSTALLINE POWDER /METHYLPHENIDATE
       HYDROCHLORIDE/
     * INDEX OF REFRACTION: 1.558 (ALPHA); 1.581 (BETA); 1.585 (GAMMA)
       /METHYLPHENIDATE HYDROCHLORIDE/
     * CRYSTALS FROM 50% ALCOHOL
     * Crystals, melting point 224 to 226 deg C. pKa 8.9. Soluble in
       water, alcohol, chloroform. A 5% aqueous solution is neutral to
       litmus. /HYDROCHLORIDE/

   from [7]HSDB

   Computed Properties
   Molecular Weight                  233.30616 [g/mol]
   Molecular Formula                 C[14]H[19]NO[2]
   XLogP3                            0.2
   H-Bond Donor                      1
   H-Bond Acceptor                   3
   Rotatable Bond Count              4
   Exact Mass                        233.141579
   MonoIsotopic Mass                 233.141579
   Topological Polar Surface Area    38.3
   Heavy Atom Count                  17
   Formal Charge                     0
   Complexity                        249
   Isotope Atom Count                0
   Defined Atom Stereocenter Count   0
   Undefined Atom Stereocenter Count 2
   Defined Bond Stereocenter Count   0
   Undefined Bond Stereocenter Count 0
   Covalently-Bonded Unit Count      1
   Feature 3D Acceptor Count         1
   Feature 3D Donor Count            1
   Feature 3D Cation Count           1
   Feature 3D Ring Count             2
   Effective Rotor Count             5.2
   Conformer Sampling RMSD           0.6
   CID Conformer Count               [8]52

References

   1. http://toxnet.nlm.nih.gov/cgi-bin/sis/search/r?dbs+hsdb:@term+@rn+@rel+113-45-1
   2. http://toxnet.nlm.nih.gov/cgi-bin/sis/search/r?dbs+hsdb:@term+@rn+@rel+113-45-1
   3. http://toxnet.nlm.nih.gov/cgi-bin/sis/search/r?dbs+hsdb:@term+@rn+@rel+113-45-1
   4. http://toxnet.nlm.nih.gov/cgi-bin/sis/search/r?dbs+hsdb:@term+@rn+@rel+113-45-1
   5. http://toxnet.nlm.nih.gov/cgi-bin/sis/search/r?dbs+hsdb:@term+@rn+@rel+113-45-1
   6. http://toxnet.nlm.nih.gov/cgi-bin/sis/search/r?dbs+hsdb:@term+@rn+@rel+113-45-1
   7. http://toxnet.nlm.nih.gov/cgi-bin/sis/search/r?dbs+hsdb:@term+@rn+@rel+113-45-1
   8. http://pubchem.ncbi.nlm.nih.gov/vw3d/vw3d.cgi?cid=4158
