23724586
  -OEChem-07051213082D

 81 84  0     1  0  0  0  0  0999 V2000
    6.1733   -4.1911    0.0000 O   0  0  0  0  0  0  0  0  0  0  0  0
    2.5405   -1.0826    0.0000 O   0  0  0  0  0  0  0  0  0  0  0  0
    2.5244   -3.1742    0.0000 O   0  0  0  0  0  0  0  0  0  0  0  0
   10.8207    0.5953    0.0000 O   0  0  0  0  0  0  0  0  0  0  0  0
    9.7956    3.0344    0.0000 O   0  0  0  0  0  0  0  0  0  0  0  0
    7.9174   -0.1219    0.0000 C   0  0  1  0  0  0  0  0  0  0  0  0
    7.9174   -1.1219    0.0000 C   0  0  3  0  0  0  0  0  0  0  0  0
    7.0514   -1.6219    0.0000 C   0  0  1  0  0  0  0  0  0  0  0  0
    6.1854   -1.1219    0.0000 C   0  0  1  0  0  0  0  0  0  0  0  0
    5.2754   -1.6287    0.0000 C   0  0  2  0  0  0  0  0  0  0  0  0
    8.8637    0.1828    0.0000 C   0  0  2  0  0  0  0  0  0  0  0  0
    7.0514    0.3781    0.0000 C   0  0  0  0  0  0  0  0  0  0  0  0
    6.1854   -0.1219    0.0000 C   0  0  0  0  0  0  0  0  0  0  0  0
    8.8637   -1.4266    0.0000 C   0  0  0  0  0  0  0  0  0  0  0  0
    9.4473   -0.6219    0.0000 C   0  0  0  0  0  0  0  0  0  0  0  0
    5.2674   -2.6703    0.0000 C   0  0  1  0  0  0  0  0  0  0  0  0
    7.0675   -2.6634    0.0000 C   0  0  0  0  0  0  0  0  0  0  0  0
    4.3486   -1.0647    0.0000 C   0  0  0  0  0  0  0  0  0  0  0  0
    9.1743    1.1334    0.0000 C   0  0  1  0  0  0  0  0  0  0  0  0
    7.9174    0.8781    0.0000 C   0  0  0  0  0  0  0  0  0  0  0  0
    6.1694   -3.1912    0.0000 C   0  0  0  0  0  0  0  0  0  0  0  0
    4.3319   -3.2201    0.0000 C   0  0  0  0  0  0  0  0  0  0  0  0
    5.2831   -0.6288    0.0000 C   0  0  0  0  0  0  0  0  0  0  0  0
    3.4007   -1.5926    0.0000 C   0  0  2  0  0  0  0  0  0  0  0  0
    3.3923   -2.6776    0.0000 C   0  0  1  0  0  0  0  0  0  0  0  0
   10.1528    1.3396    0.0000 C   0  0  2  0  0  0  0  0  0  0  0  0
    8.5065    1.8777    0.0000 C   0  0  0  0  0  0  0  0  0  0  0  0
   10.4635    2.2901    0.0000 C   0  0  1  0  0  0  0  0  0  0  0  0
   11.4420    2.4963    0.0000 C   0  0  2  0  0  0  0  0  0  0  0  0
   11.7527    3.4468    0.0000 C   0  0  0  0  0  0  0  0  0  0  0  0
   12.1098    1.7520    0.0000 C   0  0  0  0  0  0  0  0  0  0  0  0
   12.7312    3.6531    0.0000 C   0  0  0  0  0  0  0  0  0  0  0  0
   11.0848    4.1911    0.0000 C   0  0  0  0  0  0  0  0  0  0  0  0
    7.9830   -1.7384    0.0000 H   0  0  0  0  0  0  0  0  0  0  0  0
    7.7908   -2.0412    0.0000 H   0  0  0  0  0  0  0  0  0  0  0  0
    6.9215   -0.6969    0.0000 H   0  0  0  0  0  0  0  0  0  0  0  0
    9.7034    0.3147    0.0000 H   0  0  0  0  0  0  0  0  0  0  0  0
    7.4500    0.8531    0.0000 H   0  0  0  0  0  0  0  0  0  0  0  0
    6.6529    0.8531    0.0000 H   0  0  0  0  0  0  0  0  0  0  0  0
    5.9733    0.4607    0.0000 H   0  0  0  0  0  0  0  0  0  0  0  0
    5.5748   -0.2296    0.0000 H   0  0  0  0  0  0  0  0  0  0  0  0
    8.6126   -1.9935    0.0000 H   0  0  0  0  0  0  0  0  0  0  0  0
    9.4010   -1.7358    0.0000 H   0  0  0  0  0  0  0  0  0  0  0  0
    9.9081   -1.0366    0.0000 H   0  0  0  0  0  0  0  0  0  0  0  0
    9.9081   -0.2072    0.0000 H   0  0  0  0  0  0  0  0  0  0  0  0
    5.2706   -3.5203    0.0000 H   0  0  0  0  0  0  0  0  0  0  0  0
    7.2855   -3.2438    0.0000 H   0  0  0  0  0  0  0  0  0  0  0  0
    7.6766   -2.5479    0.0000 H   0  0  0  0  0  0  0  0  0  0  0  0
    4.7568   -0.5980    0.0000 H   0  0  0  0  0  0  0  0  0  0  0  0
    3.9586   -0.5826    0.0000 H   0  0  0  0  0  0  0  0  0  0  0  0
    8.5676    1.0055    0.0000 H   0  0  0  0  0  0  0  0  0  0  0  0
    8.5374    0.8781    0.0000 H   0  0  0  0  0  0  0  0  0  0  0  0
    7.9174    1.4981    0.0000 H   0  0  0  0  0  0  0  0  0  0  0  0
    7.2974    0.8781    0.0000 H   0  0  0  0  0  0  0  0  0  0  0  0
    3.9346   -3.6960    0.0000 H   0  0  0  0  0  0  0  0  0  0  0  0
    4.7329   -3.6930    0.0000 H   0  0  0  0  0  0  0  0  0  0  0  0
    5.9031   -0.6335    0.0000 H   0  0  0  0  0  0  0  0  0  0  0  0
    5.2879   -0.0088    0.0000 H   0  0  0  0  0  0  0  0  0  0  0  0
    4.6631   -0.6240    0.0000 H   0  0  0  0  0  0  0  0  0  0  0  0
    2.8608   -1.8974    0.0000 H   0  0  0  0  0  0  0  0  0  0  0  0
    2.8572   -2.3645    0.0000 H   0  0  0  0  0  0  0  0  0  0  0  0
    9.9602    0.7503    0.0000 H   0  0  0  0  0  0  0  0  0  0  0  0
    8.9680    2.2917    0.0000 H   0  0  0  0  0  0  0  0  0  0  0  0
    8.0924    2.3391    0.0000 H   0  0  0  0  0  0  0  0  0  0  0  0
    8.0450    1.4636    0.0000 H   0  0  0  0  0  0  0  0  0  0  0  0
   10.6561    2.8794    0.0000 H   0  0  0  0  0  0  0  0  0  0  0  0
    2.0000   -1.3864    0.0000 H   0  0  0  0  0  0  0  0  0  0  0  0
    2.5220   -3.7942    0.0000 H   0  0  0  0  0  0  0  0  0  0  0  0
   11.2494    1.9070    0.0000 H   0  0  0  0  0  0  0  0  0  0  0  0
   11.4273    0.7231    0.0000 H   0  0  0  0  0  0  0  0  0  0  0  0
   11.9453    4.0362    0.0000 H   0  0  0  0  0  0  0  0  0  0  0  0
    9.9883    3.6237    0.0000 H   0  0  0  0  0  0  0  0  0  0  0  0
   11.6484    1.3380    0.0000 H   0  0  0  0  0  0  0  0  0  0  0  0
   12.5239    1.2906    0.0000 H   0  0  0  0  0  0  0  0  0  0  0  0
   12.5713    2.1661    0.0000 H   0  0  0  0  0  0  0  0  0  0  0  0
   11.5463    4.6052    0.0000 H   0  0  0  0  0  0  0  0  0  0  0  0
   10.6708    4.6526    0.0000 H   0  0  0  0  0  0  0  0  0  0  0  0
   10.6234    3.7771    0.0000 H   0  0  0  0  0  0  0  0  0  0  0  0
   12.8590    3.0464    0.0000 H   0  0  0  0  0  0  0  0  0  0  0  0
   13.3378    3.7809    0.0000 H   0  0  0  0  0  0  0  0  0  0  0  0
   12.6033    4.2597    0.0000 H   0  0  0  0  0  0  0  0  0  0  0  0
  1 21  2  0  0  0  0
 24  2  1  6  0  0  0
  2 67  1  0  0  0  0
 25  3  1  6  0  0  0
  3 68  1  0  0  0  0
 26  4  1  6  0  0  0
  4 70  1  0  0  0  0
 28  5  1  6  0  0  0
  5 72  1  0  0  0  0
  6  7  1  0  0  0  0
  6 11  1  0  0  0  0
  6 12  1  0  0  0  0
  6 20  1  1  0  0  0
  7  8  1  0  0  0  0
  7 14  1  0  0  0  0
  7 34  1  0  0  0  0
  8  9  1  0  0  0  0
  8 17  1  0  0  0  0
  8 35  1  1  0  0  0
  9 10  1  0  0  0  0
  9 13  1  0  0  0  0
  9 36  1  6  0  0  0
 10 16  1  0  0  0  0
 10 18  1  0  0  0  0
 10 23  1  1  0  0  0
 11 15  1  0  0  0  0
 11 19  1  0  0  0  0
 11 37  1  6  0  0  0
 12 13  1  0  0  0  0
 12 38  1  0  0  0  0
 12 39  1  0  0  0  0
 13 40  1  0  0  0  0
 13 41  1  0  0  0  0
 14 15  1  0  0  0  0
 14 42  1  0  0  0  0
 14 43  1  0  0  0  0
 15 44  1  0  0  0  0
 15 45  1  0  0  0  0
 16 21  1  0  0  0  0
 16 22  1  0  0  0  0
 16 46  1  6  0  0  0
 17 21  1  0  0  0  0
 17 47  1  0  0  0  0
 17 48  1  0  0  0  0
 18 24  1  0  0  0  0
 18 49  1  0  0  0  0
 18 50  1  0  0  0  0
 19 26  1  0  0  0  0
 19 27  1  6  0  0  0
 19 51  1  0  0  0  0
 20 52  1  0  0  0  0
 20 53  1  0  0  0  0
 20 54  1  0  0  0  0
 22 25  1  0  0  0  0
 22 55  1  0  0  0  0
 22 56  1  0  0  0  0
 23 57  1  0  0  0  0
 23 58  1  0  0  0  0
 23 59  1  0  0  0  0
 24 25  1  0  0  0  0
 24 60  1  0  0  0  0
 25 61  1  0  0  0  0
 26 28  1  0  0  0  0
 26 62  1  0  0  0  0
 27 63  1  0  0  0  0
 27 64  1  0  0  0  0
 27 65  1  0  0  0  0
 28 29  1  0  0  0  0
 28 66  1  0  0  0  0
 29 30  1  0  0  0  0
 29 31  1  6  0  0  0
 29 69  1  0  0  0  0
 30 32  1  0  0  0  0
 30 33  1  0  0  0  0
 30 71  1  0  0  0  0
 31 73  1  0  0  0  0
 31 74  1  0  0  0  0
 31 75  1  0  0  0  0
 32 79  1  0  0  0  0
 32 80  1  0  0  0  0
 32 81  1  0  0  0  0
 33 76  1  0  0  0  0
 33 77  1  0  0  0  0
 33 78  1  0  0  0  0
M  END
> <PUBCHEM_COMPOUND_CID>
23724586

> <PUBCHEM_COMPOUND_CANONICALIZED>
1

> <PUBCHEM_CACTVS_COMPLEXITY>
738

> <PUBCHEM_CACTVS_HBOND_ACCEPTOR>
5

> <PUBCHEM_CACTVS_HBOND_DONOR>
4

> <PUBCHEM_CACTVS_ROTATABLE_BOND>
5

> <PUBCHEM_CACTVS_SUBSKEYS>
AAADcfB4OAAAAAAAAAAAAAAAAAAAAYAAAAAwYMAAAAAAAGDAAAAAGgAACAAADxSggAICAAAAAgAIAIAQAAAAAAAAAAAAAAEAAAABEBIAAAAAQAAEAAABAAGKzPDPgAAAAAAAAADAAAYAACCAAQAACAAAAA==

> <PUBCHEM_IUPAC_OPENEYE_NAME>
(2R,3S,5S,8S,9S,10R,13S,17R)-17-[(1S,2R,3R,4S)-2,3-dihydroxy-1,4,5-trimethyl-hexyl]-2,3-dihydroxy-10,13-dimethyl-1,2,3,4,5,7,8,9,11,12,14,15,16,17-tetradecahydrocyclopenta[a]phenanthren-6-one

> <PUBCHEM_IUPAC_CAS_NAME>
(2R,3S,5S,8S,9S,10R,13S,17R)-17-[(2S,3R,4R,5S)-3,4-dihydroxy-5,6-dimethylheptan-2-yl]-2,3-dihydroxy-10,13-dimethyl-1,2,3,4,5,7,8,9,11,12,14,15,16,17-tetradecahydrocyclopenta[a]phenanthren-6-one

> <PUBCHEM_IUPAC_NAME>
(2R,3S,5S,8S,9S,10R,13S,17R)-17-[(2S,3R,4R,5S)-3,4-dihydroxy-5,6-dimethylheptan-2-yl]-2,3-dihydroxy-10,13-dimethyl-1,2,3,4,5,7,8,9,11,12,14,15,16,17-tetradecahydrocyclopenta[a]phenanthren-6-one

> <PUBCHEM_IUPAC_SYSTEMATIC_NAME>
(2R,3S,5S,8S,9S,10R,13S,17R)-17-[(2S,3R,4R,5S)-5,6-dimethyl-3,4-bis(oxidanyl)heptan-2-yl]-10,13-dimethyl-2,3-bis(oxidanyl)-1,2,3,4,5,7,8,9,11,12,14,15,16,17-tetradecahydrocyclopenta[a]phenanthren-6-one

> <PUBCHEM_IUPAC_TRADITIONAL_NAME>
(2R,3S,5S,8S,9S,10R,13S,17R)-17-[(1S,2R,3R,4S)-2,3-dihydroxy-1,4,5-trimethyl-hexyl]-2,3-dihydroxy-10,13-dimethyl-1,2,3,4,5,7,8,9,11,12,14,15,16,17-tetradecahydrocyclopenta[a]phenanthren-6-one

> <PUBCHEM_IUPAC_INCHI>
InChI=1S/C28H48O5/c1-14(2)15(3)25(32)26(33)16(4)18-7-8-19-17-11-22(29)21-12-23(30)24(31)13-28(21,6)20(17)9-10-27(18,19)5/h14-21,23-26,30-33H,7-13H2,1-6H3/t15-,16-,17-,18+,19?,20-,21+,23-,24+,25+,26+,27+,28+/m0/s1

> <PUBCHEM_IUPAC_INCHIKEY>
VYUIKSFYFRVQLF-YDGAQGAXSA-N

> <PUBCHEM_XLOGP3_AA>
4.7

> <PUBCHEM_EXACT_MASS>
464.350175

> <PUBCHEM_MOLECULAR_FORMULA>
C28H48O5

> <PUBCHEM_MOLECULAR_WEIGHT>
464.67772

> <PUBCHEM_OPENEYE_CAN_SMILES>
CC(C)C(C)C(C(C(C)C1CCC2C1(CCC3C2CC(=O)C4C3(CC(C(C4)O)O)C)C)O)O

> <PUBCHEM_OPENEYE_ISO_SMILES>
C[C@@H]([C@H]1CCC2[C@@]1(CC[C@H]3[C@H]2CC(=O)[C@@H]4[C@@]3(C[C@H]([C@H](C4)O)O)C)C)[C@H]([C@@H]([C@@H](C)C(C)C)O)O

> <PUBCHEM_CACTVS_TPSA>
98

> <PUBCHEM_MONOISOTOPIC_WEIGHT>
464.350175

> <PUBCHEM_TOTAL_CHARGE>
0

> <PUBCHEM_HEAVY_ATOM_COUNT>
33

> <PUBCHEM_ATOM_DEF_STEREO_COUNT>
12

> <PUBCHEM_ATOM_UDEF_STEREO_COUNT>
1

> <PUBCHEM_BOND_DEF_STEREO_COUNT>
0

> <PUBCHEM_BOND_UDEF_STEREO_COUNT>
0

> <PUBCHEM_ISOTOPIC_ATOM_COUNT>
0

> <PUBCHEM_COMPONENT_COUNT>
1

> <PUBCHEM_CACTVS_TAUTO_COUNT>
3

> <PUBCHEM_COORDINATE_TYPE>
1
5
255

> <PUBCHEM_BONDANNOTATIONS>
10  23  5
11  37  6
16  46  6
19  27  6
24  2  6
29  31  6
25  3  6
26  4  6
28  5  6
6  20  5
7  14  3
8  35  5
9  36  6

$$$$

