8243
  -OEChem-06261202412D

 18 17  0     0  0  0  0  0  0999 V2000
    5.6350    5.6200    0.0000 Na  0  3  0  0  0  0  0  0  0  0  0  0
    4.7690    5.1200    0.0000 O   0  5  0  0  0  0  0  0  0  0  0  0
    5.6350    3.6200    0.0000 O   0  0  0  0  0  0  0  0  0  0  0  0
    3.9030    2.6200    0.0000 C   0  0  0  0  0  0  0  0  0  0  0  0
    3.9030    3.6200    0.0000 C   0  0  0  0  0  0  0  0  0  0  0  0
    4.7690    2.1200    0.0000 C   0  0  0  0  0  0  0  0  0  0  0  0
    3.0369    2.1200    0.0000 C   0  0  0  0  0  0  0  0  0  0  0  0
    4.7690    1.1200    0.0000 C   0  0  0  0  0  0  0  0  0  0  0  0
    3.0369    1.1200    0.0000 C   0  0  0  0  0  0  0  0  0  0  0  0
    3.9030    0.6200    0.0000 C   0  0  0  0  0  0  0  0  0  0  0  0
    4.7690    4.1200    0.0000 C   0  0  0  0  0  0  0  0  0  0  0  0
    3.6909    4.2026    0.0000 H   0  0  0  0  0  0  0  0  0  0  0  0
    3.2924    3.5123    0.0000 H   0  0  0  0  0  0  0  0  0  0  0  0
    5.3059    2.4300    0.0000 H   0  0  0  0  0  0  0  0  0  0  0  0
    2.5000    2.4300    0.0000 H   0  0  0  0  0  0  0  0  0  0  0  0
    5.3059    0.8100    0.0000 H   0  0  0  0  0  0  0  0  0  0  0  0
    2.5000    0.8100    0.0000 H   0  0  0  0  0  0  0  0  0  0  0  0
    3.9030    0.0000    0.0000 H   0  0  0  0  0  0  0  0  0  0  0  0
  2 11  1  0  0  0  0
  3 11  2  0  0  0  0
  4  5  1  0  0  0  0
  4  6  2  0  0  0  0
  4  7  1  0  0  0  0
  5 11  1  0  0  0  0
  5 12  1  0  0  0  0
  5 13  1  0  0  0  0
  6  8  1  0  0  0  0
  6 14  1  0  0  0  0
  7  9  2  0  0  0  0
  7 15  1  0  0  0  0
  8 10  2  0  0  0  0
  8 16  1  0  0  0  0
  9 10  1  0  0  0  0
  9 17  1  0  0  0  0
 10 18  1  0  0  0  0
M  CHG  2   1   1   2  -1
M  END
> <PUBCHEM_COMPOUND_CID>
8243

> <PUBCHEM_COMPOUND_CANONICALIZED>
1

> <PUBCHEM_CACTVS_COMPLEXITY>
109

> <PUBCHEM_CACTVS_HBOND_ACCEPTOR>
2

> <PUBCHEM_CACTVS_HBOND_DONOR>
0

> <PUBCHEM_CACTVS_ROTATABLE_BOND>
1

> <PUBCHEM_CACTVS_SUBSKEYS>
AAADcYBwMCAAAAAAAAAAAAAAAAAAAAAAAAAwAAAAAAAAAAABAAAAGgAAAAAADACAmAAwCIAAAACIAiDSCAACAAAgAAAIiAEAAIgIIDKAFRCAIAAkwAEIiAeIyKCOAAAAAAAAAAAAAAAAAAAAAAAAAAAAAA==

> <PUBCHEM_IUPAC_OPENEYE_NAME>
sodium 2-phenylacetate

> <PUBCHEM_IUPAC_CAS_NAME>
sodium 2-phenylacetate

> <PUBCHEM_IUPAC_NAME>
sodium 2-phenylacetate

> <PUBCHEM_IUPAC_SYSTEMATIC_NAME>
sodium 2-phenylethanoate

> <PUBCHEM_IUPAC_TRADITIONAL_NAME>
sodium 2-phenylacetate

> <PUBCHEM_IUPAC_INCHI>
InChI=1S/C8H8O2.Na/c9-8(10)6-7-4-2-1-3-5-7;/h1-5H,6H2,(H,9,10);/q;+1/p-1

> <PUBCHEM_IUPAC_INCHIKEY>
HZOREEUASZHZBI-UHFFFAOYSA-M

> <PUBCHEM_EXACT_MASS>
158.034374

> <PUBCHEM_MOLECULAR_FORMULA>
C8H7NaO2

> <PUBCHEM_MOLECULAR_WEIGHT>
158.129749

> <PUBCHEM_OPENEYE_CAN_SMILES>
C1=CC=C(C=C1)CC(=O)[O-].[Na+]

> <PUBCHEM_OPENEYE_ISO_SMILES>
C1=CC=C(C=C1)CC(=O)[O-].[Na+]

> <PUBCHEM_CACTVS_TPSA>
40.1

> <PUBCHEM_MONOISOTOPIC_WEIGHT>
158.034374

> <PUBCHEM_TOTAL_CHARGE>
0

> <PUBCHEM_HEAVY_ATOM_COUNT>
11

> <PUBCHEM_ATOM_DEF_STEREO_COUNT>
0

> <PUBCHEM_ATOM_UDEF_STEREO_COUNT>
0

> <PUBCHEM_BOND_DEF_STEREO_COUNT>
0

> <PUBCHEM_BOND_UDEF_STEREO_COUNT>
0

> <PUBCHEM_ISOTOPIC_ATOM_COUNT>
0

> <PUBCHEM_COMPONENT_COUNT>
2

> <PUBCHEM_CACTVS_TAUTO_COUNT>
1

> <PUBCHEM_COORDINATE_TYPE>
1
5
255

> <PUBCHEM_BONDANNOTATIONS>
4  6  8
4  7  8
6  8  8
7  9  8
8  10  8
9  10  8

$$$$

