440112
  -OEChem-07051212482D

 17 17  0     0  0  0  0  0  0999 V2000
    2.0000    0.0406    0.0000 O   0  0  0  0  0  0  0  0  0  0  0  0
    2.0000   -1.9594    0.0000 O   0  0  0  0  0  0  0  0  0  0  0  0
    3.7320   -1.9594    0.0000 O   0  0  0  0  0  0  0  0  0  0  0  0
    3.7320    1.0406    0.0000 N   0  0  0  0  0  0  0  0  0  0  0  0
    3.2320    2.5794    0.0000 N   0  0  0  0  0  0  0  0  0  0  0  0
    3.7320    0.0406    0.0000 C   0  0  0  0  0  0  0  0  0  0  0  0
    4.5411    1.6284    0.0000 C   0  0  0  0  0  0  0  0  0  0  0  0
    2.9230    1.6284    0.0000 C   0  0  0  0  0  0  0  0  0  0  0  0
    2.8660   -0.4594    0.0000 C   0  0  0  0  0  0  0  0  0  0  0  0
    4.2320    2.5794    0.0000 C   0  0  0  0  0  0  0  0  0  0  0  0
    2.8660   -1.4594    0.0000 C   0  0  0  0  0  0  0  0  0  0  0  0
    3.9441   -0.5420    0.0000 H   0  0  0  0  0  0  0  0  0  0  0  0
    4.3426    0.1482    0.0000 H   0  0  0  0  0  0  0  0  0  0  0  0
    5.1307    1.4368    0.0000 H   0  0  0  0  0  0  0  0  0  0  0  0
    2.3334    1.4368    0.0000 H   0  0  0  0  0  0  0  0  0  0  0  0
    4.5965    3.0810    0.0000 H   0  0  0  0  0  0  0  0  0  0  0  0
    2.0000   -2.5794    0.0000 H   0  0  0  0  0  0  0  0  0  0  0  0
  1  9  2  0  0  0  0
  2 11  1  0  0  0  0
  2 17  1  0  0  0  0
  3 11  2  0  0  0  0
  4  6  1  0  0  0  0
  4  7  1  0  0  0  0
  4  8  1  0  0  0  0
  5  8  2  0  0  0  0
  5 10  1  0  0  0  0
  6  9  1  0  0  0  0
  6 12  1  0  0  0  0
  6 13  1  0  0  0  0
  7 10  2  0  0  0  0
  7 14  1  0  0  0  0
  8 15  1  0  0  0  0
  9 11  1  0  0  0  0
 10 16  1  0  0  0  0
M  END
> <PUBCHEM_COMPOUND_CID>
440112

> <PUBCHEM_COMPOUND_CANONICALIZED>
1

> <PUBCHEM_CACTVS_COMPLEXITY>
181

> <PUBCHEM_CACTVS_HBOND_ACCEPTOR>
4

> <PUBCHEM_CACTVS_HBOND_DONOR>
1

> <PUBCHEM_CACTVS_ROTATABLE_BOND>
3

> <PUBCHEM_CACTVS_SUBSKEYS>
AAADcYBjMAAAAAAAAAAAAAAAAAAAAWAAAAAAAAAAAAAAAAABgAAAHgAACAAACATBggQtmBcMEgCoAJC3bAIAgC0REqAJQAHYMACASAgACCAUQAAKAAKAACAAAAAAAAAAAAAAAAAAAAAAAAAAAAAAAAAAAA==

> <PUBCHEM_IUPAC_OPENEYE_NAME>
3-imidazol-1-yl-2-oxo-propanoic acid

> <PUBCHEM_IUPAC_CAS_NAME>
3-(1-imidazolyl)-2-oxopropanoic acid

> <PUBCHEM_IUPAC_NAME>
3-imidazol-1-yl-2-oxopropanoic acid

> <PUBCHEM_IUPAC_SYSTEMATIC_NAME>
3-imidazol-1-yl-2-oxidanylidene-propanoic acid

> <PUBCHEM_IUPAC_TRADITIONAL_NAME>
3-imidazol-1-yl-2-keto-propionic acid

> <PUBCHEM_IUPAC_INCHI>
InChI=1S/C6H6N2O3/c9-5(6(10)11)3-8-2-1-7-4-8/h1-2,4H,3H2,(H,10,11)

> <PUBCHEM_IUPAC_INCHIKEY>
TZKAUGKXAWURCX-UHFFFAOYSA-N

> <PUBCHEM_XLOGP3_AA>
-0.4

> <PUBCHEM_EXACT_MASS>
154.037842

> <PUBCHEM_MOLECULAR_FORMULA>
C6H6N2O3

> <PUBCHEM_MOLECULAR_WEIGHT>
154.12344

> <PUBCHEM_OPENEYE_CAN_SMILES>
C1=CN(C=N1)CC(=O)C(=O)O

> <PUBCHEM_OPENEYE_ISO_SMILES>
C1=CN(C=N1)CC(=O)C(=O)O

> <PUBCHEM_CACTVS_TPSA>
72.2

> <PUBCHEM_MONOISOTOPIC_WEIGHT>
154.037842

> <PUBCHEM_TOTAL_CHARGE>
0

> <PUBCHEM_HEAVY_ATOM_COUNT>
11

> <PUBCHEM_ATOM_DEF_STEREO_COUNT>
0

> <PUBCHEM_ATOM_UDEF_STEREO_COUNT>
0

> <PUBCHEM_BOND_DEF_STEREO_COUNT>
0

> <PUBCHEM_BOND_UDEF_STEREO_COUNT>
0

> <PUBCHEM_ISOTOPIC_ATOM_COUNT>
0

> <PUBCHEM_COMPONENT_COUNT>
1

> <PUBCHEM_CACTVS_TAUTO_COUNT>
2

> <PUBCHEM_COORDINATE_TYPE>
1
5
255

> <PUBCHEM_BONDANNOTATIONS>
4  7  8
4  8  8
5  10  8
5  8  8
7  10  8

$$$$

