   Color/Form

     * YELLOW, CRYSTALLINE POWDER
     * DARK YELLOW HYDRATE

   from [1]HSDB

   Odor
        ODORLESS OR PRACTICALLY ODORLESS
   from [2]HSDB

   Melting Point
        ABOVE 308 DEG C (DECOMP)
   from [3]HSDB

   Dissociation Constants
        pKa1 = 7.77, pKa2 = 11.17
   from [4]HSDB

   Octanol/Water Partition Coefficient
        Log Kow = 0.01 at pH 7.4
   from [5]HSDB

   Solubilities

     * INSOL IN WATER; SOL IN ALKALI
     * Soluble in boiling water (1 in 100), alkaline solutions (with
       decomposition), hot ethanol and ethanol (1 in 950); slightly
       soluble in dilute sulphuric acid; almost insoluble in water,
       acetone, chloroform and diethyl ether.
     * In water at 29.87 deg C = 6848 mg/l

   from [6]HSDB

   Spectral Properties

     * MAX ABSORPTION (ALC): 330 NM (LOG E= 4.28)
     * IR: 21467 (Sadtler Research Laboratories IR Grating Collection)
     * UV: 6602 (Sadtler Research Laboratories Spectral Collection)
     * MASS: 475 (National Bureau of Standards EPA-NIH Mass Spectra Data
       Base, NSRDS-NBS-63)
     * UV max (0.1N sodium hydroxide): 230, 312 nm; (0,1N hydrogen
       chloride): 222, 327 nm; (methanol): 216, 329 nm.

   from [7]HSDB

   Other Chemical/Physical Properties

     * MAX ABSORPTION: 327 NM (E= 21,300 @ PH 1.0): 312 NM (E= 19,600 @ PH
       11) /MONOHYDRATE/
     * BECOMES ANHYDROUS AT 140 DEG C; DECOMP AT 313-314 DEG C
       /MONOHYDRATE/
     * YELLOW PRISMS FROM WATER /MONOHYDRATE/
     * SOL IN 100 PARTS BOILING WATER /MONOHYDRATE/
     * SOL IN ALKALI SOLN WITH SLOW DECOMP /MONOHYDRATE/
     * Stability: Sensitive to oxidation and light

   from [8]HSDB

   Computed Properties
   Molecular Weight                  152.17706 [g/mol]
   Molecular Formula                 C[5]H[4]N[4]S
   XLogP3                            0
   H-Bond Donor                      2
   H-Bond Acceptor                   2
   Rotatable Bond Count              0
   Tautomer Count                    8
   Exact Mass                        152.015667
   MonoIsotopic Mass                 152.015667
   Topological Polar Surface Area    85.2
   Heavy Atom Count                  10
   Formal Charge                     0
   Complexity                        190
   Isotope Atom Count                0
   Defined Atom Stereocenter Count   0
   Undefined Atom Stereocenter Count 0
   Defined Bond Stereocenter Count   0
   Undefined Bond Stereocenter Count 0
   Covalently-Bonded Unit Count      1
   Feature 3D Acceptor Count         1
   Feature 3D Donor Count            2
   Feature 3D Cation Count           2
   Feature 3D Ring Count             2
   Effective Rotor Count             0
   Conformer Sampling RMSD           0.4
   CID Conformer Count               [9]1

References

   1. http://toxnet.nlm.nih.gov/cgi-bin/sis/search/r?dbs+hsdb:@term+@rn+@rel+50-44-2
   2. http://toxnet.nlm.nih.gov/cgi-bin/sis/search/r?dbs+hsdb:@term+@rn+@rel+50-44-2
   3. http://toxnet.nlm.nih.gov/cgi-bin/sis/search/r?dbs+hsdb:@term+@rn+@rel+50-44-2
   4. http://toxnet.nlm.nih.gov/cgi-bin/sis/search/r?dbs+hsdb:@term+@rn+@rel+50-44-2
   5. http://toxnet.nlm.nih.gov/cgi-bin/sis/search/r?dbs+hsdb:@term+@rn+@rel+50-44-2
   6. http://toxnet.nlm.nih.gov/cgi-bin/sis/search/r?dbs+hsdb:@term+@rn+@rel+50-44-2
   7. http://toxnet.nlm.nih.gov/cgi-bin/sis/search/r?dbs+hsdb:@term+@rn+@rel+50-44-2
   8. http://toxnet.nlm.nih.gov/cgi-bin/sis/search/r?dbs+hsdb:@term+@rn+@rel+50-44-2
   9. http://pubchem.ncbi.nlm.nih.gov/vw3d/vw3d.cgi?cid=667490
