443744
  -OEChem-07051213032D

 48 51  0     1  0  0  0  0  0999 V2000
    2.0000   -2.2846    0.0000 O   0  0  0  0  0  0  0  0  0  0  0  0
    3.7320   -3.2846    0.0000 O   0  0  0  0  0  0  0  0  0  0  0  0
    2.7858    2.0201    0.0000 N   0  0  3  0  0  0  0  0  0  0  0  0
    6.3741    2.2222    0.0000 N   0  0  0  0  0  0  0  0  0  0  0  0
    3.7320    0.7154    0.0000 C   0  0  2  0  0  0  0  0  0  0  0  0
    3.7320    1.7154    0.0000 C   0  0  2  0  0  0  0  0  0  0  0  0
    2.7858    0.4106    0.0000 C   0  0  0  0  0  0  0  0  0  0  0  0
    4.5981    0.2154    0.0000 C   0  0  0  0  0  0  0  0  0  0  0  0
    2.2022    1.2154    0.0000 C   0  0  0  0  0  0  0  0  0  0  0  0
    4.5981    2.2154    0.0000 C   0  0  0  0  0  0  0  0  0  0  0  0
    3.7320   -0.2846    0.0000 C   0  0  0  0  0  0  0  0  0  0  0  0
    5.4641    0.7154    0.0000 C   0  0  0  0  0  0  0  0  0  0  0  0
    5.4641    1.7154    0.0000 C   0  0  0  0  0  0  0  0  0  0  0  0
    2.4752    2.9706    0.0000 C   0  0  0  0  0  0  0  0  0  0  0  0
    4.5820    3.2569    0.0000 C   0  0  0  0  0  0  0  0  0  0  0  0
    2.8660   -0.7846    0.0000 C   0  0  0  0  0  0  0  0  0  0  0  0
    4.5981   -0.7846    0.0000 C   0  0  0  0  0  0  0  0  0  0  0  0
    5.4800    3.7846    0.0000 C   0  0  0  0  0  0  0  0  0  0  0  0
    2.8660   -1.7846    0.0000 C   0  0  0  0  0  0  0  0  0  0  0  0
    4.5981   -1.7846    0.0000 C   0  0  0  0  0  0  0  0  0  0  0  0
    6.3821    3.2638    0.0000 C   0  0  0  0  0  0  0  0  0  0  0  0
    3.7320   -2.2846    0.0000 C   0  0  0  0  0  0  0  0  0  0  0  0
    2.0000   -3.2846    0.0000 C   0  0  0  0  0  0  0  0  0  0  0  0
    4.5981   -3.7846    0.0000 C   0  0  0  0  0  0  0  0  0  0  0  0
    3.6421    2.5606    0.0000 H   0  0  0  0  0  0  0  0  0  0  0  0
    2.2484    0.1014    0.0000 H   0  0  0  0  0  0  0  0  0  0  0  0
    3.0369   -0.1563    0.0000 H   0  0  0  0  0  0  0  0  0  0  0  0
    4.1996   -0.2596    0.0000 H   0  0  0  0  0  0  0  0  0  0  0  0
    4.9966   -0.2596    0.0000 H   0  0  0  0  0  0  0  0  0  0  0  0
    1.7414    1.6301    0.0000 H   0  0  0  0  0  0  0  0  0  0  0  0
    1.7414    0.8006    0.0000 H   0  0  0  0  0  0  0  0  0  0  0  0
    5.6762    0.1328    0.0000 H   0  0  0  0  0  0  0  0  0  0  0  0
    6.0747    0.8230    0.0000 H   0  0  0  0  0  0  0  0  0  0  0  0
    3.0645    3.1632    0.0000 H   0  0  0  0  0  0  0  0  0  0  0  0
    2.2826    3.5599    0.0000 H   0  0  0  0  0  0  0  0  0  0  0  0
    1.8858    2.7780    0.0000 H   0  0  0  0  0  0  0  0  0  0  0  0
    4.0415    3.5606    0.0000 H   0  0  0  0  0  0  0  0  0  0  0  0
    2.3291   -0.4746    0.0000 H   0  0  0  0  0  0  0  0  0  0  0  0
    5.1350   -0.4746    0.0000 H   0  0  0  0  0  0  0  0  0  0  0  0
    5.4777    4.4046    0.0000 H   0  0  0  0  0  0  0  0  0  0  0  0
    5.1350   -2.0946    0.0000 H   0  0  0  0  0  0  0  0  0  0  0  0
    6.9203    3.5717    0.0000 H   0  0  0  0  0  0  0  0  0  0  0  0
    1.3800   -3.2846    0.0000 H   0  0  0  0  0  0  0  0  0  0  0  0
    2.0000   -3.9046    0.0000 H   0  0  0  0  0  0  0  0  0  0  0  0
    2.6200   -3.2846    0.0000 H   0  0  0  0  0  0  0  0  0  0  0  0
    4.2881   -4.3216    0.0000 H   0  0  0  0  0  0  0  0  0  0  0  0
    5.1350   -4.0946    0.0000 H   0  0  0  0  0  0  0  0  0  0  0  0
    4.9081   -3.2477    0.0000 H   0  0  0  0  0  0  0  0  0  0  0  0
  1 19  1  0  0  0  0
  1 23  1  0  0  0  0
  2 22  1  0  0  0  0
  2 24  1  0  0  0  0
  3  6  1  0  0  0  0
  3  9  1  0  0  0  0
  3 14  1  0  0  0  0
  4 13  1  0  0  0  0
  4 21  2  0  0  0  0
  5  6  1  0  0  0  0
  5  7  1  0  0  0  0
  5  8  1  0  0  0  0
  5 11  1  6  0  0  0
  6 10  1  0  0  0  0
  6 25  1  6  0  0  0
  7  9  1  0  0  0  0
  7 26  1  0  0  0  0
  7 27  1  0  0  0  0
  8 12  1  0  0  0  0
  8 28  1  0  0  0  0
  8 29  1  0  0  0  0
  9 30  1  0  0  0  0
  9 31  1  0  0  0  0
 10 13  2  0  0  0  0
 10 15  1  0  0  0  0
 11 16  2  0  0  0  0
 11 17  1  0  0  0  0
 12 13  1  0  0  0  0
 12 32  1  0  0  0  0
 12 33  1  0  0  0  0
 14 34  1  0  0  0  0
 14 35  1  0  0  0  0
 14 36  1  0  0  0  0
 15 18  2  0  0  0  0
 15 37  1  0  0  0  0
 16 19  1  0  0  0  0
 16 38  1  0  0  0  0
 17 20  2  0  0  0  0
 17 39  1  0  0  0  0
 18 21  1  0  0  0  0
 18 40  1  0  0  0  0
 19 22  2  0  0  0  0
 20 22  1  0  0  0  0
 20 41  1  0  0  0  0
 21 42  1  0  0  0  0
 23 43  1  0  0  0  0
 23 44  1  0  0  0  0
 23 45  1  0  0  0  0
 24 46  1  0  0  0  0
 24 47  1  0  0  0  0
 24 48  1  0  0  0  0
M  END
> <PUBCHEM_COMPOUND_CID>
443744

> <PUBCHEM_COMPOUND_CANONICALIZED>
1

> <PUBCHEM_CACTVS_COMPLEXITY>
445

> <PUBCHEM_CACTVS_HBOND_ACCEPTOR>
4

> <PUBCHEM_CACTVS_HBOND_DONOR>
0

> <PUBCHEM_CACTVS_ROTATABLE_BOND>
3

> <PUBCHEM_CACTVS_SUBSKEYS>
AAADceB7MAAAAAAAAAAAAAAAAAAAAWAAAAA8YIAAAAAAAFixwAAAHgAAAAAADizBngY+hpMIFACgAzRnRACCiCAxIiAI2CA+7JgNJuLE8ZuEMCpkwBHK6AeQ0PMPoAABAAAAQABQAAYACASAAAAAAAAAAA==

> <PUBCHEM_IUPAC_OPENEYE_NAME>
(3aS,9bR)-3a-(3,4-dimethoxyphenyl)-1-methyl-3,4,5,9b-tetrahydro-2H-pyrrolo[2,3-f]quinoline

> <PUBCHEM_IUPAC_CAS_NAME>
(3aS,9bR)-3a-(3,4-dimethoxyphenyl)-1-methyl-3,4,5,9b-tetrahydro-2H-pyrrolo[2,3-f]quinoline

> <PUBCHEM_IUPAC_NAME>
(3aS,9bR)-3a-(3,4-dimethoxyphenyl)-1-methyl-3,4,5,9b-tetrahydro-2H-pyrrolo[2,3-f]quinoline

> <PUBCHEM_IUPAC_SYSTEMATIC_NAME>
(3aS,9bR)-3a-(3,4-dimethoxyphenyl)-1-methyl-3,4,5,9b-tetrahydro-2H-pyrrolo[2,3-f]quinoline

> <PUBCHEM_IUPAC_TRADITIONAL_NAME>
(3aS,9bR)-3a-(3,4-dimethoxyphenyl)-1-methyl-3,4,5,9b-tetrahydro-2H-pyrrolo[2,3-f]quinoline

> <PUBCHEM_IUPAC_INCHI>
InChI=1S/C20H24N2O2/c1-22-12-10-20(14-6-7-17(23-2)18(13-14)24-3)9-8-16-15(19(20)22)5-4-11-21-16/h4-7,11,13,19H,8-10,12H2,1-3H3/t19-,20-/m0/s1

> <PUBCHEM_IUPAC_INCHIKEY>
VDUITLSRHOBYKB-PMACEKPBSA-N

> <PUBCHEM_XLOGP3_AA>
3

> <PUBCHEM_EXACT_MASS>
324.183778

> <PUBCHEM_MOLECULAR_FORMULA>
C20H24N2O2

> <PUBCHEM_MOLECULAR_WEIGHT>
324.41676

> <PUBCHEM_OPENEYE_CAN_SMILES>
CN1CCC2(C1C3=C(CC2)N=CC=C3)C4=CC(=C(C=C4)OC)OC

> <PUBCHEM_OPENEYE_ISO_SMILES>
CN1CC[C@]2([C@@H]1C3=C(CC2)N=CC=C3)C4=CC(=C(C=C4)OC)OC

> <PUBCHEM_CACTVS_TPSA>
34.6

> <PUBCHEM_MONOISOTOPIC_WEIGHT>
324.183778

> <PUBCHEM_TOTAL_CHARGE>
0

> <PUBCHEM_HEAVY_ATOM_COUNT>
24

> <PUBCHEM_ATOM_DEF_STEREO_COUNT>
2

> <PUBCHEM_ATOM_UDEF_STEREO_COUNT>
0

> <PUBCHEM_BOND_DEF_STEREO_COUNT>
0

> <PUBCHEM_BOND_UDEF_STEREO_COUNT>
0

> <PUBCHEM_ISOTOPIC_ATOM_COUNT>
0

> <PUBCHEM_COMPONENT_COUNT>
1

> <PUBCHEM_CACTVS_TAUTO_COUNT>
1

> <PUBCHEM_COORDINATE_TYPE>
1
5
255

> <PUBCHEM_BONDANNOTATIONS>
10  13  8
10  15  8
11  16  8
11  17  8
15  18  8
16  19  8
17  20  8
18  21  8
19  22  8
20  22  8
4  13  8
4  21  8
5  11  6
6  25  6

$$$$

