5282045
  -OEChem-07051213022D

114118  0     1  0  0  0  0  0999 V2000
   10.1271   -4.7514    0.0000 O   0  0  0  0  0  0  0  0  0  0  0  0
   10.3363    2.2204    0.0000 O   0  0  0  0  0  0  0  0  0  0  0  0
    8.7632    1.4276    0.0000 O   0  0  0  0  0  0  0  0  0  0  0  0
   11.2023   -2.2796    0.0000 O   0  0  0  0  0  0  0  0  0  0  0  0
   12.0683    2.2204    0.0000 O   0  0  0  0  0  0  0  0  0  0  0  0
    7.7382   -2.2796    0.0000 O   0  0  0  0  0  0  0  0  0  0  0  0
   10.3363    4.2204    0.0000 O   0  0  0  0  0  0  0  0  0  0  0  0
    8.6384   -5.7204    0.0000 O   0  0  0  0  0  0  0  0  0  0  0  0
   10.3363   -0.7796    0.0000 O   0  0  0  0  0  0  0  0  0  0  0  0
   12.9344   -2.2796    0.0000 O   0  0  0  0  0  0  0  0  0  0  0  0
    8.7332   -3.9466    0.0000 N   0  0  0  0  0  0  0  0  0  0  0  0
   12.0683    5.2204    0.0000 N   0  0  0  0  0  0  0  0  0  0  0  0
    4.9688    3.9972    0.0000 N   0  0  0  0  0  0  0  0  0  0  0  0
   10.3363   -3.7796    0.0000 C   0  0  1  0  0  0  0  0  0  0  0  0
    9.4703   -3.2796    0.0000 C   0  0  1  0  0  0  0  0  0  0  0  0
    9.4703    0.7204    0.0000 C   0  0  2  0  0  0  0  0  0  0  0  0
    9.4703   -2.2796    0.0000 C   0  0  2  0  0  0  0  0  0  0  0  0
   10.3363    1.2204    0.0000 C   0  0  1  0  0  0  0  0  0  0  0  0
    9.4703   -0.2796    0.0000 C   0  0  0  0  0  0  0  0  0  0  0  0
    8.6042   -0.7796    0.0000 C   0  0  2  0  0  0  0  0  0  0  0  0
   11.2023   -3.2796    0.0000 C   0  0  1  0  0  0  0  0  0  0  0  0
   11.2023    0.7204    0.0000 C   0  0  2  0  0  0  0  0  0  0  0  0
    8.6042   -1.7796    0.0000 C   0  0  0  0  0  0  0  0  0  0  0  0
   11.2023   -4.2796    0.0000 C   0  0  0  0  0  0  0  0  0  0  0  0
   11.2023    2.7204    0.0000 C   0  0  2  0  0  0  0  0  0  0  0  0
   11.2023    3.7204    0.0000 C   0  0  1  0  0  0  0  0  0  0  0  0
   12.0683    4.2204    0.0000 C   0  0  2  0  0  0  0  0  0  0  0  0
    8.5043    0.4616    0.0000 C   0  0  0  0  0  0  0  0  0  0  0  0
   10.3363   -1.7796    0.0000 C   0  0  0  0  0  0  0  0  0  0  0  0
   12.0683   -3.7796    0.0000 C   0  0  0  0  0  0  0  0  0  0  0  0
   12.9344    3.7204    0.0000 C   0  0  0  0  0  0  0  0  0  0  0  0
    9.1384   -4.8544    0.0000 C   0  0  0  0  0  0  0  0  0  0  0  0
    7.7382   -0.2796    0.0000 C   0  0  0  0  0  0  0  0  0  0  0  0
   11.2023   -0.2796    0.0000 C   0  0  0  0  0  0  0  0  0  0  0  0
   12.9344    2.7204    0.0000 C   0  0  1  0  0  0  0  0  0  0  0  0
   12.0683   -0.7796    0.0000 C   0  0  2  0  0  0  0  0  0  0  0  0
   12.0683    1.2204    0.0000 C   0  0  0  0  0  0  0  0  0  0  0  0
   12.0683   -1.7796    0.0000 C   0  0  0  0  0  0  0  0  0  0  0  0
   12.0683   -4.7796    0.0000 C   0  0  0  0  0  0  0  0  0  0  0  0
    7.7972    1.1687    0.0000 C   0  0  0  0  0  0  0  0  0  0  0  0
   13.8004    2.2204    0.0000 C   0  0  0  0  0  0  0  0  0  0  0  0
   12.9344   -0.2796    0.0000 C   0  0  0  0  0  0  0  0  0  0  0  0
   12.9344    5.7204    0.0000 C   0  0  0  0  0  0  0  0  0  0  0  0
   11.2023    5.7204    0.0000 C   0  0  0  0  0  0  0  0  0  0  0  0
    7.0901    1.8758    0.0000 C   0  0  0  0  0  0  0  0  0  0  0  0
    6.1242    1.6170    0.0000 C   0  0  0  0  0  0  0  0  0  0  0  0
    5.4171    2.3241    0.0000 C   0  0  0  0  0  0  0  0  0  0  0  0
    4.4512    2.0653    0.0000 C   0  0  0  0  0  0  0  0  0  0  0  0
    5.6759    3.2901    0.0000 C   0  0  0  0  0  0  0  0  0  0  0  0
    3.7441    2.7724    0.0000 C   0  0  0  0  0  0  0  0  0  0  0  0
    4.0029    3.7383    0.0000 C   0  0  0  0  0  0  0  0  0  0  0  0
    2.7422    2.4873    0.0000 C   0  0  0  0  0  0  0  0  0  0  0  0
    3.2778    4.4862    0.0000 C   0  0  0  0  0  0  0  0  0  0  0  0
    2.0000    3.2182    0.0000 C   0  0  0  0  0  0  0  0  0  0  0  0
    2.2696    4.2243    0.0000 C   0  0  0  0  0  0  0  0  0  0  0  0
    8.6933   -2.9348    0.0000 H   0  0  0  0  0  0  0  0  0  0  0  0
   10.0072   -2.5896    0.0000 H   0  0  0  0  0  0  0  0  0  0  0  0
    9.7994    1.5304    0.0000 H   0  0  0  0  0  0  0  0  0  0  0  0
    9.6823   -0.8622    0.0000 H   0  0  0  0  0  0  0  0  0  0  0  0
   10.0808   -0.1719    0.0000 H   0  0  0  0  0  0  0  0  0  0  0  0
    8.0673   -1.0896    0.0000 H   0  0  0  0  0  0  0  0  0  0  0  0
   11.7393   -2.9696    0.0000 H   0  0  0  0  0  0  0  0  0  0  0  0
   11.7393    0.4104    0.0000 H   0  0  0  0  0  0  0  0  0  0  0  0
    8.1266   -3.8188    0.0000 H   0  0  0  0  0  0  0  0  0  0  0  0
   10.8923   -4.8165    0.0000 H   0  0  0  0  0  0  0  0  0  0  0  0
   11.7393   -4.5896    0.0000 H   0  0  0  0  0  0  0  0  0  0  0  0
   11.5123   -3.7426    0.0000 H   0  0  0  0  0  0  0  0  0  0  0  0
   11.2023    2.1004    0.0000 H   0  0  0  0  0  0  0  0  0  0  0  0
   11.2023    4.3404    0.0000 H   0  0  0  0  0  0  0  0  0  0  0  0
   11.5314    4.5304    0.0000 H   0  0  0  0  0  0  0  0  0  0  0  0
    8.3439    1.0605    0.0000 H   0  0  0  0  0  0  0  0  0  0  0  0
    7.9055    0.3012    0.0000 H   0  0  0  0  0  0  0  0  0  0  0  0
    8.6648   -0.1372    0.0000 H   0  0  0  0  0  0  0  0  0  0  0  0
   10.6463   -2.3165    0.0000 H   0  0  0  0  0  0  0  0  0  0  0  0
   10.8732   -1.4696    0.0000 H   0  0  0  0  0  0  0  0  0  0  0  0
   10.0263   -1.2426    0.0000 H   0  0  0  0  0  0  0  0  0  0  0  0
   12.6789   -3.8872    0.0000 H   0  0  0  0  0  0  0  0  0  0  0  0
   12.2804   -3.1969    0.0000 H   0  0  0  0  0  0  0  0  0  0  0  0
   13.5449    3.6128    0.0000 H   0  0  0  0  0  0  0  0  0  0  0  0
   13.1464    4.3031    0.0000 H   0  0  0  0  0  0  0  0  0  0  0  0
    8.0482    0.2574    0.0000 H   0  0  0  0  0  0  0  0  0  0  0  0
    7.2013    0.0304    0.0000 H   0  0  0  0  0  0  0  0  0  0  0  0
    7.4282   -0.8165    0.0000 H   0  0  0  0  0  0  0  0  0  0  0  0
   12.9344    2.1004    0.0000 H   0  0  0  0  0  0  0  0  0  0  0  0
   12.0683   -0.1596    0.0000 H   0  0  0  0  0  0  0  0  0  0  0  0
   12.3783    0.6835    0.0000 H   0  0  0  0  0  0  0  0  0  0  0  0
   12.6053    1.5304    0.0000 H   0  0  0  0  0  0  0  0  0  0  0  0
   11.7583    1.7574    0.0000 H   0  0  0  0  0  0  0  0  0  0  0  0
   11.4483   -4.7796    0.0000 H   0  0  0  0  0  0  0  0  0  0  0  0
   12.0683   -5.3995    0.0000 H   0  0  0  0  0  0  0  0  0  0  0  0
   12.6883   -4.7796    0.0000 H   0  0  0  0  0  0  0  0  0  0  0  0
    7.2894    0.8131    0.0000 H   0  0  0  0  0  0  0  0  0  0  0  0
    8.0593    0.6068    0.0000 H   0  0  0  0  0  0  0  0  0  0  0  0
   13.4904    1.6835    0.0000 H   0  0  0  0  0  0  0  0  0  0  0  0
   14.3373    1.9104    0.0000 H   0  0  0  0  0  0  0  0  0  0  0  0
   14.1104    2.7574    0.0000 H   0  0  0  0  0  0  0  0  0  0  0  0
   13.2444   -0.8165    0.0000 H   0  0  0  0  0  0  0  0  0  0  0  0
   13.4713    0.0304    0.0000 H   0  0  0  0  0  0  0  0  0  0  0  0
   12.6244    0.2574    0.0000 H   0  0  0  0  0  0  0  0  0  0  0  0
   10.3363    4.8404    0.0000 H   0  0  0  0  0  0  0  0  0  0  0  0
   13.2444    5.1835    0.0000 H   0  0  0  0  0  0  0  0  0  0  0  0
   13.4713    6.0304    0.0000 H   0  0  0  0  0  0  0  0  0  0  0  0
   12.6244    6.2574    0.0000 H   0  0  0  0  0  0  0  0  0  0  0  0
   11.5123    6.2574    0.0000 H   0  0  0  0  0  0  0  0  0  0  0  0
   10.6654    6.0304    0.0000 H   0  0  0  0  0  0  0  0  0  0  0  0
   10.8923    5.1835    0.0000 H   0  0  0  0  0  0  0  0  0  0  0  0
    7.2506    2.4747    0.0000 H   0  0  0  0  0  0  0  0  0  0  0  0
    5.9637    1.0182    0.0000 H   0  0  0  0  0  0  0  0  0  0  0  0
    4.2907    1.4664    0.0000 H   0  0  0  0  0  0  0  0  0  0  0  0
    6.2748    3.4505    0.0000 H   0  0  0  0  0  0  0  0  0  0  0  0
    2.5887    1.8866    0.0000 H   0  0  0  0  0  0  0  0  0  0  0  0
    3.4452    5.0831    0.0000 H   0  0  0  0  0  0  0  0  0  0  0  0
    1.4018    3.0554    0.0000 H   0  0  0  0  0  0  0  0  0  0  0  0
    1.8329    4.6644    0.0000 H   0  0  0  0  0  0  0  0  0  0  0  0
  1 14  1  0  0  0  0
  1 32  1  0  0  0  0
 18  2  1  6  0  0  0
 25  2  1  1  0  0  0
 16  3  1  6  0  0  0
  3 40  1  0  0  0  0
  4 21  1  0  0  0  0
  4 38  1  0  0  0  0
  5 25  1  0  0  0  0
  5 35  1  0  0  0  0
  6 23  2  0  0  0  0
 26  7  1  6  0  0  0
  7100  1  0  0  0  0
  8 32  2  0  0  0  0
  9 34  2  0  0  0  0
 10 38  2  0  0  0  0
 11 15  1  0  0  0  0
 11 32  1  0  0  0  0
 11 64  1  0  0  0  0
 27 12  1  1  0  0  0
 12 43  1  0  0  0  0
 12 44  1  0  0  0  0
 13 49  2  0  0  0  0
 13 51  1  0  0  0  0
 14 15  1  0  0  0  0
 14 21  1  0  0  0  0
 14 24  1  6  0  0  0
 15 17  1  0  0  0  0
 15 56  1  1  0  0  0
 16 18  1  0  0  0  0
 16 19  1  0  0  0  0
 16 28  1  0  0  0  0
 17 23  1  0  0  0  0
 17 29  1  6  0  0  0
 17 57  1  0  0  0  0
 18 22  1  0  0  0  0
 18 58  1  0  0  0  0
 19 20  1  0  0  0  0
 19 59  1  0  0  0  0
 19 60  1  0  0  0  0
 20 23  1  0  0  0  0
 20 33  1  6  0  0  0
 20 61  1  0  0  0  0
 21 30  1  6  0  0  0
 21 62  1  0  0  0  0
 22 34  1  0  0  0  0
 22 37  1  1  0  0  0
 22 63  1  0  0  0  0
 24 65  1  0  0  0  0
 24 66  1  0  0  0  0
 24 67  1  0  0  0  0
 25 26  1  0  0  0  0
 25 68  1  0  0  0  0
 26 27  1  0  0  0  0
 26 69  1  0  0  0  0
 27 31  1  0  0  0  0
 27 70  1  0  0  0  0
 28 71  1  0  0  0  0
 28 72  1  0  0  0  0
 28 73  1  0  0  0  0
 29 74  1  0  0  0  0
 29 75  1  0  0  0  0
 29 76  1  0  0  0  0
 30 39  1  0  0  0  0
 30 77  1  0  0  0  0
 30 78  1  0  0  0  0
 31 35  1  0  0  0  0
 31 79  1  0  0  0  0
 31 80  1  0  0  0  0
 33 81  1  0  0  0  0
 33 82  1  0  0  0  0
 33 83  1  0  0  0  0
 34 36  1  0  0  0  0
 35 41  1  1  0  0  0
 35 84  1  0  0  0  0
 36 38  1  0  0  0  0
 36 42  1  1  0  0  0
 36 85  1  0  0  0  0
 37 86  1  0  0  0  0
 37 87  1  0  0  0  0
 37 88  1  0  0  0  0
 39 89  1  0  0  0  0
 39 90  1  0  0  0  0
 39 91  1  0  0  0  0
 40 45  1  0  0  0  0
 40 92  1  0  0  0  0
 40 93  1  0  0  0  0
 41 94  1  0  0  0  0
 41 95  1  0  0  0  0
 41 96  1  0  0  0  0
 42 97  1  0  0  0  0
 42 98  1  0  0  0  0
 42 99  1  0  0  0  0
 43101  1  0  0  0  0
 43102  1  0  0  0  0
 43103  1  0  0  0  0
 44104  1  0  0  0  0
 44105  1  0  0  0  0
 44106  1  0  0  0  0
 45 46  2  0  0  0  0
 45107  1  0  0  0  0
 46 47  1  0  0  0  0
 46108  1  0  0  0  0
 47 48  2  0  0  0  0
 47 49  1  0  0  0  0
 48 50  1  0  0  0  0
 48109  1  0  0  0  0
 49110  1  0  0  0  0
 50 51  1  0  0  0  0
 50 52  2  0  0  0  0
 51 53  2  0  0  0  0
 52 54  1  0  0  0  0
 52111  1  0  0  0  0
 53 55  1  0  0  0  0
 53112  1  0  0  0  0
 54 55  2  0  0  0  0
 54113  1  0  0  0  0
 55114  1  0  0  0  0
M  END
> <PUBCHEM_COMPOUND_CID>
5282045

> <PUBCHEM_COMPOUND_CANONICALIZED>
1

> <PUBCHEM_CACTVS_COMPLEXITY>
1410

> <PUBCHEM_CACTVS_HBOND_ACCEPTOR>
12

> <PUBCHEM_CACTVS_HBOND_DONOR>
2

> <PUBCHEM_CACTVS_ROTATABLE_BOND>
8

> <PUBCHEM_CACTVS_SUBSKEYS>
AAADcfB/PAAAAAAAAAAAAAAAAAAAAWAAAAA8SIAAAAAAAACx8AAAHgAQCAAADXzxngc+yPPIFgCoA7T3XACCgCAxAiAI2KE4ZJkbNP7IsZGvcAhmtgDf6Afa7PzOAAAAAAACAAAAAAAAAAQAAAAAAAAAAA==

> <PUBCHEM_IUPAC_OPENEYE_NAME>
(1R,2R,4R,6S,7R,8R,10R,13R,14S)-7-[(2S,3R,4S,6R)-4-(dimethylamino)-3-hydroxy-6-methyl-tetrahydropyran-2-yl]oxy-13-ethyl-2,4,6,8,10,14-hexamethyl-6-[(E)-3-(3-quinolyl)allyloxy]-12,15-dioxa-17-azabicyclo[12.3.0]heptadecane-3,9,11,16-tetrone

> <PUBCHEM_IUPAC_CAS_NAME>
(1R,2R,4R,6S,7R,8R,10R,13R,14S)-7-[[(2S,3R,4S,6R)-4-(dimethylamino)-3-hydroxy-6-methyl-2-oxanyl]oxy]-13-ethyl-2,4,6,8,10,14-hexamethyl-6-[(E)-3-(3-quinolinyl)prop-2-enoxy]-12,15-dioxa-17-azabicyclo[12.3.0]heptadecane-3,9,11,16-tetrone

> <PUBCHEM_IUPAC_NAME>
(1R,2R,4R,6S,7R,8R,10R,13R,14S)-7-[(2S,3R,4S,6R)-4-(dimethylamino)-3-hydroxy-6-methyloxan-2-yl]oxy-13-ethyl-2,4,6,8,10,14-hexamethyl-6-[(E)-3-quinolin-3-ylprop-2-enoxy]-12,15-dioxa-17-azabicyclo[12.3.0]heptadecane-3,9,11,16-tetrone

> <PUBCHEM_IUPAC_SYSTEMATIC_NAME>
(1R,2R,4R,6S,7R,8R,10R,13R,14S)-7-[(2S,3R,4S,6R)-4-(dimethylamino)-6-methyl-3-oxidanyl-oxan-2-yl]oxy-13-ethyl-2,4,6,8,10,14-hexamethyl-6-[(E)-3-quinolin-3-ylprop-2-enoxy]-12,15-dioxa-17-azabicyclo[12.3.0]heptadecane-3,9,11,16-tetrone

> <PUBCHEM_IUPAC_TRADITIONAL_NAME>
(1R,2R,4R,6S,7R,8R,10R,13R,14S)-7-[(2S,3R,4S,6R)-4-(dimethylamino)-3-hydroxy-6-methyl-tetrahydropyran-2-yl]oxy-13-ethyl-2,4,6,8,10,14-hexamethyl-6-[(E)-3-(3-quinolyl)allyloxy]-12,15-dioxa-17-azabicyclo[12.3.0]heptadecane-3,9,11,16-diquinone

> <PUBCHEM_IUPAC_INCHI>
InChI=1S/C42H59N3O10/c1-11-32-42(8)36(44-40(50)55-42)25(4)33(46)23(2)21-41(7,51-18-14-15-28-20-29-16-12-13-17-30(29)43-22-28)37(26(5)34(47)27(6)38(49)53-32)54-39-35(48)31(45(9)10)19-24(3)52-39/h12-17,20,22-27,31-32,35-37,39,48H,11,18-19,21H2,1-10H3,(H,44,50)/b15-14+/t23-,24-,25+,26+,27-,31+,32-,35-,36-,37-,39+,41+,42-/m1/s1

> <PUBCHEM_IUPAC_INCHIKEY>
PENDGIOBPJLVBT-HMMOOPTJSA-N

> <PUBCHEM_XLOGP3_AA>
5.4

> <PUBCHEM_EXACT_MASS>
765.420045

> <PUBCHEM_MOLECULAR_FORMULA>
C42H59N3O10

> <PUBCHEM_MOLECULAR_WEIGHT>
765.93196

> <PUBCHEM_OPENEYE_CAN_SMILES>
CCC1C2(C(C(C(=O)C(CC(C(C(C(=O)C(C(=O)O1)C)C)OC3C(C(CC(O3)C)N(C)C)O)(C)OCC=CC4=CC5=CC=CC=C5N=C4)C)C)NC(=O)O2)C

> <PUBCHEM_OPENEYE_ISO_SMILES>
CC[C@@H]1[C@@]2([C@@H]([C@H](C(=O)[C@@H](C[C@]([C@@H]([C@H](C(=O)[C@H](C(=O)O1)C)C)O[C@H]3[C@@H]([C@H](C[C@H](O3)C)N(C)C)O)(C)OC/C=C/C4=CC5=CC=CC=C5N=C4)C)C)NC(=O)O2)C

> <PUBCHEM_CACTVS_TPSA>
163

> <PUBCHEM_MONOISOTOPIC_WEIGHT>
765.420045

> <PUBCHEM_TOTAL_CHARGE>
0

> <PUBCHEM_HEAVY_ATOM_COUNT>
55

> <PUBCHEM_ATOM_DEF_STEREO_COUNT>
13

> <PUBCHEM_ATOM_UDEF_STEREO_COUNT>
0

> <PUBCHEM_BOND_DEF_STEREO_COUNT>
1

> <PUBCHEM_BOND_UDEF_STEREO_COUNT>
0

> <PUBCHEM_ISOTOPIC_ATOM_COUNT>
0

> <PUBCHEM_COMPONENT_COUNT>
1

> <PUBCHEM_CACTVS_TAUTO_COUNT>
30

> <PUBCHEM_COORDINATE_TYPE>
1
5
255

> <PUBCHEM_BONDANNOTATIONS>
27  12  5
13  49  8
13  51  8
14  24  6
15  56  5
17  29  6
18  2  6
25  2  5
20  33  6
21  30  6
22  37  5
16  3  6
35  41  5
36  42  5
47  48  8
47  49  8
48  50  8
50  51  8
50  52  8
51  53  8
52  54  8
53  55  8
54  55  8
26  7  6

$$$$

