163874
  -OEChem-07051213042D

100101  0     1  0  0  0  0  0999 V2000
   12.0495   -5.3156    0.0000 O   0  0  0  0  0  0  0  0  0  0  0  0
    9.1921    8.2430    0.0000 O   0  0  0  0  0  0  0  0  0  0  0  0
   10.1390   -8.3734    0.0000 O   0  0  0  0  0  0  0  0  0  0  0  0
    6.3698   -7.5906    0.0000 O   0  0  0  0  0  0  0  0  0  0  0  0
   12.7174   -6.0599    0.0000 O   0  0  0  0  0  0  0  0  0  0  0  0
    9.3316    0.3069    0.0000 N   0  0  0  0  0  0  0  0  0  0  0  0
    8.6173    3.6966    0.0000 N   0  0  0  0  0  0  0  0  0  0  0  0
   10.4032   -4.7775    0.0000 N   0  0  0  0  0  0  0  0  0  0  0  0
    9.7818   -6.6786    0.0000 N   0  0  0  0  0  0  0  0  0  0  0  0
    7.9029    7.0862    0.0000 N   0  0  0  0  0  0  0  0  0  0  0  0
    8.1820  -10.3953    0.0000 N   0  0  0  0  0  0  0  0  0  0  0  0
    7.8564    9.7316    0.0000 N   0  0  0  0  0  0  0  0  0  0  0  0
    4.2530    9.8572    0.0000 N   0  0  0  0  0  0  0  0  0  0  0  0
   13.0745   -7.7547    0.0000 N   0  0  0  0  0  0  0  0  0  0  0  0
    2.6067   10.3953    0.0000 N   0  0  0  0  0  0  0  0  0  0  0  0
    2.9639    8.7005    0.0000 N   0  0  0  0  0  0  0  0  0  0  0  0
   10.3567   -2.1322    0.0000 C   0  0  0  0  0  0  0  0  0  0  0  0
    9.6888   -1.3879    0.0000 C   0  0  0  0  0  0  0  0  0  0  0  0
   10.0460   -3.0827    0.0000 C   0  0  0  0  0  0  0  0  0  0  0  0
    9.9995   -0.4374    0.0000 C   0  0  0  0  0  0  0  0  0  0  0  0
    9.6423    1.2575    0.0000 C   0  0  0  0  0  0  0  0  0  0  0  0
    8.9744    2.0018    0.0000 C   0  0  0  0  0  0  0  0  0  0  0  0
   10.7138   -3.8270    0.0000 C   0  0  0  0  0  0  0  0  0  0  0  0
    9.2851    2.9523    0.0000 C   0  0  0  0  0  0  0  0  0  0  0  0
   10.7604   -6.4723    0.0000 C   0  0  2  0  0  0  0  0  0  0  0  0
    8.9279    4.6471    0.0000 C   0  0  0  0  0  0  0  0  0  0  0  0
    8.2601    5.3914    0.0000 C   0  0  0  0  0  0  0  0  0  0  0  0
    8.5708    6.3419    0.0000 C   0  0  0  0  0  0  0  0  0  0  0  0
    7.5457    8.7810    0.0000 C   0  0  1  0  0  0  0  0  0  0  0  0
   11.0710   -5.5218    0.0000 C   0  0  0  0  0  0  0  0  0  0  0  0
    6.5672    8.5748    0.0000 C   0  0  0  0  0  0  0  0  0  0  0  0
   11.4282   -7.2166    0.0000 C   0  0  0  0  0  0  0  0  0  0  0  0
    8.1820   -8.7858    0.0000 C   0  0  0  0  0  0  0  0  0  0  0  0
    8.4927   -7.8353    0.0000 C   0  0  0  0  0  0  0  0  0  0  0  0
    5.8994    9.3191    0.0000 C   0  0  0  0  0  0  0  0  0  0  0  0
    7.2358   -9.0906    0.0000 C   0  0  0  0  0  0  0  0  0  0  0  0
    8.2136    8.0367    0.0000 C   0  0  0  0  0  0  0  0  0  0  0  0
    9.4712   -7.6291    0.0000 C   0  0  0  0  0  0  0  0  0  0  0  0
    7.2358  -10.0906    0.0000 C   0  0  0  0  0  0  0  0  0  0  0  0
    8.7656   -9.5906    0.0000 C   0  0  0  0  0  0  0  0  0  0  0  0
    4.9209    9.1129    0.0000 C   0  0  0  0  0  0  0  0  0  0  0  0
    6.3698   -8.5906    0.0000 C   0  0  0  0  0  0  0  0  0  0  0  0
   12.4067   -7.0104    0.0000 C   0  0  0  0  0  0  0  0  0  0  0  0
    6.3698  -10.5906    0.0000 C   0  0  0  0  0  0  0  0  0  0  0  0
    5.5038   -9.0906    0.0000 C   0  0  0  0  0  0  0  0  0  0  0  0
    5.5038  -10.0906    0.0000 C   0  0  0  0  0  0  0  0  0  0  0  0
    3.2745    9.6510    0.0000 C   0  0  0  0  0  0  0  0  0  0  0  0
   10.9036   -2.4242    0.0000 H   0  0  0  0  0  0  0  0  0  0  0  0
   10.7392   -1.6443    0.0000 H   0  0  0  0  0  0  0  0  0  0  0  0
    9.1419   -1.0959    0.0000 H   0  0  0  0  0  0  0  0  0  0  0  0
    9.3063   -1.8758    0.0000 H   0  0  0  0  0  0  0  0  0  0  0  0
    9.4991   -2.7907    0.0000 H   0  0  0  0  0  0  0  0  0  0  0  0
    9.6634   -3.5706    0.0000 H   0  0  0  0  0  0  0  0  0  0  0  0
   10.5464   -0.7294    0.0000 H   0  0  0  0  0  0  0  0  0  0  0  0
   10.3820    0.0505    0.0000 H   0  0  0  0  0  0  0  0  0  0  0  0
   10.1892    0.9654    0.0000 H   0  0  0  0  0  0  0  0  0  0  0  0
   10.0248    1.7454    0.0000 H   0  0  0  0  0  0  0  0  0  0  0  0
    8.4275    2.2938    0.0000 H   0  0  0  0  0  0  0  0  0  0  0  0
    8.5919    1.5138    0.0000 H   0  0  0  0  0  0  0  0  0  0  0  0
   11.2608   -4.1190    0.0000 H   0  0  0  0  0  0  0  0  0  0  0  0
   11.0964   -3.3391    0.0000 H   0  0  0  0  0  0  0  0  0  0  0  0
    8.7250    0.1791    0.0000 H   0  0  0  0  0  0  0  0  0  0  0  0
    9.8320    2.6603    0.0000 H   0  0  0  0  0  0  0  0  0  0  0  0
    9.6677    3.4402    0.0000 H   0  0  0  0  0  0  0  0  0  0  0  0
   10.5677   -7.0617    0.0000 H   0  0  0  0  0  0  0  0  0  0  0  0
    9.4748    4.3551    0.0000 H   0  0  0  0  0  0  0  0  0  0  0  0
    9.3105    5.1350    0.0000 H   0  0  0  0  0  0  0  0  0  0  0  0
    7.7132    5.6834    0.0000 H   0  0  0  0  0  0  0  0  0  0  0  0
    7.8775    4.9035    0.0000 H   0  0  0  0  0  0  0  0  0  0  0  0
    8.0106    3.5687    0.0000 H   0  0  0  0  0  0  0  0  0  0  0  0
    9.7965   -4.9054    0.0000 H   0  0  0  0  0  0  0  0  0  0  0  0
    9.1177    6.0499    0.0000 H   0  0  0  0  0  0  0  0  0  0  0  0
    8.9533    6.8298    0.0000 H   0  0  0  0  0  0  0  0  0  0  0  0
    8.1524    8.9089    0.0000 H   0  0  0  0  0  0  0  0  0  0  0  0
    6.0409    8.2472    0.0000 H   0  0  0  0  0  0  0  0  0  0  0  0
    6.7985    7.9996    0.0000 H   0  0  0  0  0  0  0  0  0  0  0  0
   10.9018   -7.5443    0.0000 H   0  0  0  0  0  0  0  0  0  0  0  0
   11.6595   -7.7919    0.0000 H   0  0  0  0  0  0  0  0  0  0  0  0
    9.3678   -6.2171    0.0000 H   0  0  0  0  0  0  0  0  0  0  0  0
    8.4721   -7.2156    0.0000 H   0  0  0  0  0  0  0  0  0  0  0  0
    7.8789   -7.7480    0.0000 H   0  0  0  0  0  0  0  0  0  0  0  0
    6.4257    9.6468    0.0000 H   0  0  0  0  0  0  0  0  0  0  0  0
    5.6681    9.8944    0.0000 H   0  0  0  0  0  0  0  0  0  0  0  0
    7.2962    6.9584    0.0000 H   0  0  0  0  0  0  0  0  0  0  0  0
    9.3856   -9.5906    0.0000 H   0  0  0  0  0  0  0  0  0  0  0  0
    8.3746  -10.9846    0.0000 H   0  0  0  0  0  0  0  0  0  0  0  0
    4.3945    8.7853    0.0000 H   0  0  0  0  0  0  0  0  0  0  0  0
    5.1521    8.5376    0.0000 H   0  0  0  0  0  0  0  0  0  0  0  0
    7.4423   10.1930    0.0000 H   0  0  0  0  0  0  0  0  0  0  0  0
    8.4631    9.8594    0.0000 H   0  0  0  0  0  0  0  0  0  0  0  0
    6.3698  -11.2106    0.0000 H   0  0  0  0  0  0  0  0  0  0  0  0
    4.9668   -8.7806    0.0000 H   0  0  0  0  0  0  0  0  0  0  0  0
    4.9668  -10.4006    0.0000 H   0  0  0  0  0  0  0  0  0  0  0  0
   13.6812   -7.6269    0.0000 H   0  0  0  0  0  0  0  0  0  0  0  0
   12.8819   -8.3441    0.0000 H   0  0  0  0  0  0  0  0  0  0  0  0
    5.8328   -7.2806    0.0000 H   0  0  0  0  0  0  0  0  0  0  0  0
    2.0000   10.2674    0.0000 H   0  0  0  0  0  0  0  0  0  0  0  0
    2.7993   10.9846    0.0000 H   0  0  0  0  0  0  0  0  0  0  0  0
    2.3572    8.5726    0.0000 H   0  0  0  0  0  0  0  0  0  0  0  0
    3.3779    8.2390    0.0000 H   0  0  0  0  0  0  0  0  0  0  0  0
  1 30  2  0  0  0  0
  2 37  2  0  0  0  0
  3 38  2  0  0  0  0
  4 42  1  0  0  0  0
  4 96  1  0  0  0  0
  5 43  2  0  0  0  0
  6 20  1  0  0  0  0
  6 21  1  0  0  0  0
  6 62  1  0  0  0  0
  7 24  1  0  0  0  0
  7 26  1  0  0  0  0
  7 70  1  0  0  0  0
  8 23  1  0  0  0  0
  8 30  1  0  0  0  0
  8 71  1  0  0  0  0
 25  9  1  6  0  0  0
  9 38  1  0  0  0  0
  9 79  1  0  0  0  0
 10 28  1  0  0  0  0
 10 37  1  0  0  0  0
 10 84  1  0  0  0  0
 11 39  1  0  0  0  0
 11 40  1  0  0  0  0
 11 86  1  0  0  0  0
 29 12  1  6  0  0  0
 12 89  1  0  0  0  0
 12 90  1  0  0  0  0
 13 41  1  0  0  0  0
 13 47  2  0  0  0  0
 14 43  1  0  0  0  0
 14 94  1  0  0  0  0
 14 95  1  0  0  0  0
 15 47  1  0  0  0  0
 15 97  1  0  0  0  0
 15 98  1  0  0  0  0
 16 47  1  0  0  0  0
 16 99  1  0  0  0  0
 16100  1  0  0  0  0
 17 18  1  0  0  0  0
 17 19  1  0  0  0  0
 17 48  1  0  0  0  0
 17 49  1  0  0  0  0
 18 20  1  0  0  0  0
 18 50  1  0  0  0  0
 18 51  1  0  0  0  0
 19 23  1  0  0  0  0
 19 52  1  0  0  0  0
 19 53  1  0  0  0  0
 20 54  1  0  0  0  0
 20 55  1  0  0  0  0
 21 22  1  0  0  0  0
 21 56  1  0  0  0  0
 21 57  1  0  0  0  0
 22 24  1  0  0  0  0
 22 58  1  0  0  0  0
 22 59  1  0  0  0  0
 23 60  1  0  0  0  0
 23 61  1  0  0  0  0
 24 63  1  0  0  0  0
 24 64  1  0  0  0  0
 25 30  1  0  0  0  0
 25 32  1  0  0  0  0
 25 65  1  0  0  0  0
 26 27  1  0  0  0  0
 26 66  1  0  0  0  0
 26 67  1  0  0  0  0
 27 28  1  0  0  0  0
 27 68  1  0  0  0  0
 27 69  1  0  0  0  0
 28 72  1  0  0  0  0
 28 73  1  0  0  0  0
 29 31  1  0  0  0  0
 29 37  1  0  0  0  0
 29 74  1  0  0  0  0
 31 35  1  0  0  0  0
 31 75  1  0  0  0  0
 31 76  1  0  0  0  0
 32 43  1  0  0  0  0
 32 77  1  0  0  0  0
 32 78  1  0  0  0  0
 33 34  1  0  0  0  0
 33 36  1  0  0  0  0
 33 40  2  0  0  0  0
 34 38  1  0  0  0  0
 34 80  1  0  0  0  0
 34 81  1  0  0  0  0
 35 41  1  0  0  0  0
 35 82  1  0  0  0  0
 35 83  1  0  0  0  0
 36 39  2  0  0  0  0
 36 42  1  0  0  0  0
 39 44  1  0  0  0  0
 40 85  1  0  0  0  0
 41 87  1  0  0  0  0
 41 88  1  0  0  0  0
 42 45  2  0  0  0  0
 44 46  2  0  0  0  0
 44 91  1  0  0  0  0
 45 46  1  0  0  0  0
 45 92  1  0  0  0  0
 46 93  1  0  0  0  0
M  END
> <PUBCHEM_COMPOUND_CID>
163874

> <PUBCHEM_COMPOUND_CANONICALIZED>
1

> <PUBCHEM_CACTVS_COMPLEXITY>
982

> <PUBCHEM_CACTVS_HBOND_ACCEPTOR>
9

> <PUBCHEM_CACTVS_HBOND_DONOR>
11

> <PUBCHEM_CACTVS_ROTATABLE_BOND>
25

> <PUBCHEM_CACTVS_SUBSKEYS>
AAADcfB7+AAAAAAAAAAAAAAAAAAAAWAAAAAwAAAAAAAAAFgB8AAAHgAQCAAADCzBngQ9xvLJkgCoAzV3dACCgCExIiAI2aG+bJgIZvrC1bOUcAhm1hnI2Ae93ePegAAAAgAKAAAAAAAEABQAAAAAAAAAAA==

> <PUBCHEM_IUPAC_OPENEYE_NAME>
(2S)-N-[5-[3-[3-[[(2S)-2-amino-5-guanidino-pentanoyl]amino]propylamino]propylamino]pentyl]-2-[[2-(4-hydroxy-1H-indol-3-yl)acetyl]amino]butanediamide

> <PUBCHEM_IUPAC_CAS_NAME>
(2S)-N-[5-[3-[3-[[(2S)-2-amino-5-(diaminomethylideneamino)-1-oxopentyl]amino]propylamino]propylamino]pentyl]-2-[[2-(4-hydroxy-1H-indol-3-yl)-1-oxoethyl]amino]butanediamide

> <PUBCHEM_IUPAC_NAME>
(2S)-N-[5-[3-[3-[[(2S)-2-amino-5-(diaminomethylideneamino)pentanoyl]amino]propylamino]propylamino]pentyl]-2-[[2-(4-hydroxy-1H-indol-3-yl)acetyl]amino]butanediamide

> <PUBCHEM_IUPAC_SYSTEMATIC_NAME>
(2S)-N-[5-[3-[3-[[(2S)-2-azanyl-5-[bis(azanyl)methylideneamino]pentanoyl]amino]propylamino]propylamino]pentyl]-2-[2-(4-oxidanyl-1H-indol-3-yl)ethanoylamino]butanediamide

> <PUBCHEM_IUPAC_TRADITIONAL_NAME>
(2S)-N-[5-[3-[3-[[(2S)-2-amino-5-guanidino-pentanoyl]amino]propylamino]propylamino]pentyl]-2-[[2-(4-hydroxy-1H-indol-3-yl)acetyl]amino]succinamide

> <PUBCHEM_IUPAC_INCHI>
InChI=1S/C31H53N11O5/c32-22(8-5-16-40-31(34)35)29(46)38-17-7-14-37-13-6-12-36-11-2-1-3-15-39-30(47)24(19-26(33)44)42-27(45)18-21-20-41-23-9-4-10-25(43)28(21)23/h4,9-10,20,22,24,36-37,41,43H,1-3,5-8,11-19,32H2,(H2,33,44)(H,38,46)(H,39,47)(H,42,45)(H4,34,35,40)/t22-,24-/m0/s1

> <PUBCHEM_IUPAC_INCHIKEY>
ONYMEUPDKAAGRV-UPVQGACJSA-N

> <PUBCHEM_XLOGP3_AA>
-2.3

> <PUBCHEM_EXACT_MASS>
659.423114

> <PUBCHEM_MOLECULAR_FORMULA>
C31H53N11O5

> <PUBCHEM_MOLECULAR_WEIGHT>
659.82322

> <PUBCHEM_OPENEYE_CAN_SMILES>
C1=CC2=C(C(=C1)O)C(=CN2)CC(=O)NC(CC(=O)N)C(=O)NCCCCCNCCCNCCCNC(=O)C(CCCN=C(N)N)N

> <PUBCHEM_OPENEYE_ISO_SMILES>
C1=CC2=C(C(=C1)O)C(=CN2)CC(=O)N[C@@H](CC(=O)N)C(=O)NCCCCCNCCCNCCCNC(=O)[C@H](CCCN=C(N)N)N

> <PUBCHEM_CACTVS_TPSA>
281

> <PUBCHEM_MONOISOTOPIC_WEIGHT>
659.423114

> <PUBCHEM_TOTAL_CHARGE>
0

> <PUBCHEM_HEAVY_ATOM_COUNT>
47

> <PUBCHEM_ATOM_DEF_STEREO_COUNT>
2

> <PUBCHEM_ATOM_UDEF_STEREO_COUNT>
0

> <PUBCHEM_BOND_DEF_STEREO_COUNT>
0

> <PUBCHEM_BOND_UDEF_STEREO_COUNT>
0

> <PUBCHEM_ISOTOPIC_ATOM_COUNT>
0

> <PUBCHEM_COMPONENT_COUNT>
1

> <PUBCHEM_CACTVS_TAUTO_COUNT>
1000

> <PUBCHEM_COORDINATE_TYPE>
1
5
255

> <PUBCHEM_BONDANNOTATIONS>
11  39  8
11  40  8
29  12  6
33  36  8
33  40  8
36  39  8
36  42  8
39  44  8
42  45  8
44  46  8
45  46  8
25  9  6

$$$$

