   Color/Form
        Prisms from ether + petroleum ether /(-)-form/; crystals from
   ether + petroleum ether /(+-)-form/
   from [1]HSDB

   Melting Point
        54 deg C /(-)-form/; 67 deg C /(+-)-form/
   from [2]HSDB

   Octanol/Water Partition Coefficient
        log Kow = 4.55 (est)
   from [3]HSDB

   Solubilities

     * In water, 2.8 mg/L at 25 deg C (est)
     * Soluble in alcohol, chloroform, ether, hot water, alkali
       hydroxides; practically insoluble in petroleum ether /(-)-form/

   from [4]HSDB

   Spectral Properties
        Specific optical rotation: -14.5 deg at 15 deg C/D (c= 1.7 in
   ethanol) /(-)-form/; maximum absorption (alcohol): 242, 252, 318.5,
   335.5 nm (e x 10-3= 14.6, 21.6, 50.6, 60.3) /(+-)-form/
   from [5]HSDB

   Vapor Pressure
        3.34X10-8 mm Hg at 25 deg C (est)
   from [6]HSDB

   Other Chemical/Physical Properties

     * Transformed in light and air to yellow, oily resin
     * Rapidly decomposes at temperatures above 35 deg C
     * Henry's Law constant = 1.41X10-7 atm-cu m/mol at 25 deg C (est)
     * Hydroxyl radical reaction rate constant = 2.66X10-10 cu
       cm/molec-sec at 25 deg C (est)

   from [7]HSDB

   Computed Properties
   Molecular Weight                  258.35538 [g/mol]
   Molecular Formula                 C[17]H[22]O[2]
   XLogP3-AA                         3.3
   H-Bond Donor                      2
   H-Bond Acceptor                   2
   Rotatable Bond Count              8
   Exact Mass                        258.16198
   MonoIsotopic Mass                 258.16198
   Topological Polar Surface Area    40.5
   Heavy Atom Count                  19
   Formal Charge                     0
   Complexity                        429
   Isotope Atom Count                0
   Defined Atom Stereocenter Count   1
   Undefined Atom Stereocenter Count 0
   Defined Bond Stereocenter Count   3
   Undefined Bond Stereocenter Count 0
   Covalently-Bonded Unit Count      1
   Feature 3D Acceptor Count         2
   Feature 3D Donor Count            2
   Feature 3D Hydrophobe Count       1
   Effective Rotor Count             7
   Conformer Sampling RMSD           0.8
   CID Conformer Count               [8]107

References

   1. http://toxnet.nlm.nih.gov/cgi-bin/sis/search/r?dbs+hsdb:@term+@rn+@rel+505-75-9
   2. http://toxnet.nlm.nih.gov/cgi-bin/sis/search/r?dbs+hsdb:@term+@rn+@rel+505-75-9
   3. http://toxnet.nlm.nih.gov/cgi-bin/sis/search/r?dbs+hsdb:@term+@rn+@rel+505-75-9
   4. http://toxnet.nlm.nih.gov/cgi-bin/sis/search/r?dbs+hsdb:@term+@rn+@rel+505-75-9
   5. http://toxnet.nlm.nih.gov/cgi-bin/sis/search/r?dbs+hsdb:@term+@rn+@rel+505-75-9
   6. http://toxnet.nlm.nih.gov/cgi-bin/sis/search/r?dbs+hsdb:@term+@rn+@rel+505-75-9
   7. http://toxnet.nlm.nih.gov/cgi-bin/sis/search/r?dbs+hsdb:@term+@rn+@rel+505-75-9
   8. http://pubchem.ncbi.nlm.nih.gov/vw3d/vw3d.cgi?cid=25265910
