   Color/Form

     * Yellowish-brown oil
     * Colorless crystals

   from [1]HSDB

   Odor
        Aromatic solvent odor at room temp
   from [2]HSDB

   Melting Point
        60 deg C
   from [3]HSDB

   Density/Specific Gravity
        1.34 g/cu cm at 22 deg C
   from [4]HSDB

   Octanol/Water Partition Coefficient
        log Kow = 5.95
   from [5]HSDB

   Solubilities

     * >1000 g/L dichloromethane
     * In water, 3.0X10-3 mg/L at 20 deg C

   from [6]HSDB

   Spectral Properties
        Index of refraction: 1.5511 at 23 deg C/D
   from [7]HSDB

   Vapor Pressure
        1.50X10-10 mm Hg at 20 deg C
   from [8]HSDB

   Other Chemical/Physical Properties

     * Colorless oil; specific optical rotation: -15.0 deg at 20 deg C/D
       (concentration by volume= 1.0 g in 100 ml
       chloroform)/(1R)(3R)(alphaR)-cyfluthrin.
     * Contains <2% (R)-alpha-cyano-4-fluoro-3-phenoxybenzyl
       (1R)-cis-3-(2,2-dichlorovinyl)-2,2-dimethylcyclopropanecarboxylate
       + (S)-alpha, (1S)-cis-; 30-40% (S)-alpha, (1R)-cis- + (R)-alpha,
       (1S)-cis-; <3% (R)-alpha, (1R)-trans- + (S)-alpha, (1S)-trans-;
       53-67% (S)-alpha, (1R)-trans- + (R)-alpha, (1S)-trans- /Technical
       grade/
     * Crystals from m-hexane; mp: 68-69 deg C; specific optical rotation:
       -2.1 deg at 20 deg C/D (concentration by volume= 1.0 g in 100 ml
       chloroform) /(1R)(3S)(alpha S)-cyfluthrin/
     * Crystals; mp: 50-52 deg C; specific optical rotation: +24.5 deg at
       20 deg C/D (concentration by volume= 1.0 g in 100 ml chloroform)
       /(1R)(3R)(alpha S)- Cyfluthrin/
     * White powder with slight characteristic smell /Technical/
     * log Kow = 5.94 /diastereoisomer (S)-alpha, (1R)-cis- + (R)-alpha,
       (1S)-cis-/; log Kow = 5.91 /diastereoisomer (R)-alpha, (1R)-trans-
       + (S)-alpha, (1S)-trans-/
     * Thermally stable at room temperature
     * Henry's Law constant = 2.90X10-8 atm-cu m/mol at 20 deg C (est)
     * Hydroxyl radical reaction rate constant = 1.25X10-11 cu
       cm/molec-sec at 25 deg C (est)

   from [9]HSDB

   Computed Properties
   Molecular Weight                  434.287623 [g/mol]
   Molecular Formula                 C[22]H[18]Cl[2]FNO[3]
   XLogP3                            6.2
   H-Bond Donor                      0
   H-Bond Acceptor                   5
   Rotatable Bond Count              7
   Exact Mass                        433.064777
   MonoIsotopic Mass                 433.064777
   Topological Polar Surface Area    59.3
   Heavy Atom Count                  29
   Formal Charge                     0
   Complexity                        679
   Isotope Atom Count                0
   Defined Atom Stereocenter Count   0
   Undefined Atom Stereocenter Count 3
   Defined Bond Stereocenter Count   0
   Undefined Bond Stereocenter Count 0
   Covalently-Bonded Unit Count      1
   Feature 3D Acceptor Count         3
   Feature 3D Hydrophobe Count       1
   Feature 3D Ring Count             2
   Effective Rotor Count             7.6
   Conformer Sampling RMSD           1.4
   CID Conformer Count               [10]208

References

   1. http://toxnet.nlm.nih.gov/cgi-bin/sis/search/r?dbs+hsdb:@term+@rn+@rel+68359-37-5
   2. http://toxnet.nlm.nih.gov/cgi-bin/sis/search/r?dbs+hsdb:@term+@rn+@rel+68359-37-5
   3. http://toxnet.nlm.nih.gov/cgi-bin/sis/search/r?dbs+hsdb:@term+@rn+@rel+68359-37-5
   4. http://toxnet.nlm.nih.gov/cgi-bin/sis/search/r?dbs+hsdb:@term+@rn+@rel+68359-37-5
   5. http://toxnet.nlm.nih.gov/cgi-bin/sis/search/r?dbs+hsdb:@term+@rn+@rel+68359-37-5
   6. http://toxnet.nlm.nih.gov/cgi-bin/sis/search/r?dbs+hsdb:@term+@rn+@rel+68359-37-5
   7. http://toxnet.nlm.nih.gov/cgi-bin/sis/search/r?dbs+hsdb:@term+@rn+@rel+68359-37-5
   8. http://toxnet.nlm.nih.gov/cgi-bin/sis/search/r?dbs+hsdb:@term+@rn+@rel+68359-37-5
   9. http://toxnet.nlm.nih.gov/cgi-bin/sis/search/r?dbs+hsdb:@term+@rn+@rel+68359-37-5
  10. http://pubchem.ncbi.nlm.nih.gov/vw3d/vw3d.cgi?cid=104926
