   Color/Form
        Colorless, oily liquid.
   from [1]HSDB

   Odor

     * ODOR LIKE ALIPHATIC AMINES
     * Ammonia-like odor

   from [2]HSDB

   Boiling Point
        66-67 deg C
   from [3]HSDB

   Melting Point
        -65 deg C
   from [4]HSDB

   Density/Specific Gravity
        0.8039 at 25 deg C/25 deg C
   from [5]HSDB

   Dissociation Constants
        pKa= 8.22
   from [6]HSDB

   Heat of Combustion
        -15,500 Btu/lb= -8600 cal/g
   from [7]HSDB

   Heat of Vaporization
        Latent heat of vaporization: 250 Btu/lb= 139 cal/g
   from [8]HSDB

   Octanol/Water Partition Coefficient
        log Kow = 0.13 (est)
   from [9]HSDB

   Solubilities

     * Soluble in ethanol
     * Soluble in most organic solvents
     * In water, 1.0X10+6 mg/L (assigned, miscible)

   from [10]HSDB

   Spectral Properties

     * Index of refraction: 1.409 at 25 deg C/D
     * MASS: 115 (NIST/EPA/MSDC Mass Spectral Database, 1990 version)
     * IR: 145808 (Sadtler Research Laboratories Prism Collection)
     * NMR: 16993 (Sadtler Research Laboratories Spectral Collection)

   from [11]HSDB

   Vapor Density
        2.0 (AIR= 1)
   from [12]HSDB

   Vapor Pressure
        140 mm Hg at 25 deg C
   from [13]HSDB

   Viscosity
        0.491 cP at 25 deg C
   from [14]HSDB

   Other Chemical/Physical Properties

     * Reacts with carbonyl compounds, quinones and sulfonyl halides
     * Hydrolyzes in aq or hydrochloric acid solutions to give
       methylethanolamine; fumes in air
     * Henry's Law constant = 1.0X10-5 atm-cu m/mole at 25 deg C (est)
     * Hydroxyl radical reaction rate constant = 6.8X10-12 cu cm/molec-sec
       at 25 deg C (est)

   from [15]HSDB

   Computed Properties
   Molecular Weight                  57.09438 [g/mol]
   Molecular Formula                 C[3]H[7]N
   XLogP3-AA                         0
   H-Bond Donor                      1
   H-Bond Acceptor                   1
   Rotatable Bond Count              0
   Exact Mass                        57.057849
   MonoIsotopic Mass                 57.057849
   Topological Polar Surface Area    21.9
   Heavy Atom Count                  4
   Formal Charge                     0
   Complexity                        26.5
   Isotope Atom Count                0
   Defined Atom Stereocenter Count   0
   Undefined Atom Stereocenter Count 1
   Defined Bond Stereocenter Count   0
   Undefined Bond Stereocenter Count 0
   Covalently-Bonded Unit Count      1
   Feature 3D Donor Count            1
   Feature 3D Cation Count           1
   Effective Rotor Count             0.6
   Conformer Sampling RMSD           0.4
   CID Conformer Count               [16]2

References

   1. http://toxnet.nlm.nih.gov/cgi-bin/sis/search/r?dbs+hsdb:@term+@rn+@rel+75-55-8
   2. http://toxnet.nlm.nih.gov/cgi-bin/sis/search/r?dbs+hsdb:@term+@rn+@rel+75-55-8
   3. http://toxnet.nlm.nih.gov/cgi-bin/sis/search/r?dbs+hsdb:@term+@rn+@rel+75-55-8
   4. http://toxnet.nlm.nih.gov/cgi-bin/sis/search/r?dbs+hsdb:@term+@rn+@rel+75-55-8
   5. http://toxnet.nlm.nih.gov/cgi-bin/sis/search/r?dbs+hsdb:@term+@rn+@rel+75-55-8
   6. http://toxnet.nlm.nih.gov/cgi-bin/sis/search/r?dbs+hsdb:@term+@rn+@rel+75-55-8
   7. http://toxnet.nlm.nih.gov/cgi-bin/sis/search/r?dbs+hsdb:@term+@rn+@rel+75-55-8
   8. http://toxnet.nlm.nih.gov/cgi-bin/sis/search/r?dbs+hsdb:@term+@rn+@rel+75-55-8
   9. http://toxnet.nlm.nih.gov/cgi-bin/sis/search/r?dbs+hsdb:@term+@rn+@rel+75-55-8
  10. http://toxnet.nlm.nih.gov/cgi-bin/sis/search/r?dbs+hsdb:@term+@rn+@rel+75-55-8
  11. http://toxnet.nlm.nih.gov/cgi-bin/sis/search/r?dbs+hsdb:@term+@rn+@rel+75-55-8
  12. http://toxnet.nlm.nih.gov/cgi-bin/sis/search/r?dbs+hsdb:@term+@rn+@rel+75-55-8
  13. http://toxnet.nlm.nih.gov/cgi-bin/sis/search/r?dbs+hsdb:@term+@rn+@rel+75-55-8
  14. http://toxnet.nlm.nih.gov/cgi-bin/sis/search/r?dbs+hsdb:@term+@rn+@rel+75-55-8
  15. http://toxnet.nlm.nih.gov/cgi-bin/sis/search/r?dbs+hsdb:@term+@rn+@rel+75-55-8
  16. http://pubchem.ncbi.nlm.nih.gov/vw3d/vw3d.cgi?cid=6377
