7878
  -OEChem-06261202242D

 16 16  0     0  0  0  0  0  0999 V2000
    2.8660   -0.5670    0.0000 S   0  0  0  0  0  0  0  0  0  0  0  0
    2.8660    1.4330    0.0000 O   0  0  0  0  0  0  0  0  0  0  0  0
    2.3660   -1.4330    0.0000 O   0  0  0  0  0  0  0  0  0  0  0  0
    3.3660   -1.4330    0.0000 O   0  0  0  0  0  0  0  0  0  0  0  0
    2.0000   -0.0670    0.0000 C   0  0  0  0  0  0  0  0  0  0  0  0
    3.7320   -0.0670    0.0000 C   0  0  0  0  0  0  0  0  0  0  0  0
    2.0000    0.9330    0.0000 C   0  0  0  0  0  0  0  0  0  0  0  0
    3.7320    0.9330    0.0000 C   0  0  0  0  0  0  0  0  0  0  0  0
    1.3894    0.0407    0.0000 H   0  0  0  0  0  0  0  0  0  0  0  0
    1.7880   -0.6496    0.0000 H   0  0  0  0  0  0  0  0  0  0  0  0
    3.9441   -0.6496    0.0000 H   0  0  0  0  0  0  0  0  0  0  0  0
    4.3426    0.0407    0.0000 H   0  0  0  0  0  0  0  0  0  0  0  0
    1.7880    1.5156    0.0000 H   0  0  0  0  0  0  0  0  0  0  0  0
    1.3894    0.8254    0.0000 H   0  0  0  0  0  0  0  0  0  0  0  0
    4.3426    0.8254    0.0000 H   0  0  0  0  0  0  0  0  0  0  0  0
    3.9441    1.5156    0.0000 H   0  0  0  0  0  0  0  0  0  0  0  0
  1  3  2  0  0  0  0
  1  4  2  0  0  0  0
  1  5  1  0  0  0  0
  1  6  1  0  0  0  0
  2  7  1  0  0  0  0
  2  8  1  0  0  0  0
  5  7  1  0  0  0  0
  5  9  1  0  0  0  0
  5 10  1  0  0  0  0
  6  8  1  0  0  0  0
  6 11  1  0  0  0  0
  6 12  1  0  0  0  0
  7 13  1  0  0  0  0
  7 14  1  0  0  0  0
  8 15  1  0  0  0  0
  8 16  1  0  0  0  0
M  END
> <PUBCHEM_COMPOUND_CID>
7878

> <PUBCHEM_COMPOUND_CANONICALIZED>
1

> <PUBCHEM_CACTVS_COMPLEXITY>
141

> <PUBCHEM_CACTVS_HBOND_ACCEPTOR>
3

> <PUBCHEM_CACTVS_HBOND_DONOR>
0

> <PUBCHEM_CACTVS_ROTATABLE_BOND>
0

> <PUBCHEM_CACTVS_SUBSKEYS>
AAADccBgMABAAAAAAAAAAAAAAAAAAAAAAAAkAAAAAAAAAAAAAAAAGgQAAAAAAACkwAKAAAAABAoAAAAAAHBAAAAAABAAAAAAAAAAAAAAAAACAAAAAAAgAAAAAAAAAAAAAAAAAAAAAAAAAAAAAAAAAAAAAA==

> <PUBCHEM_IUPAC_OPENEYE_NAME>
1,4-oxathiane 4,4-dioxide

> <PUBCHEM_IUPAC_CAS_NAME>
1,4-oxathiane 4,4-dioxide

> <PUBCHEM_IUPAC_NAME>
1,4-oxathiane 4,4-dioxide

> <PUBCHEM_IUPAC_SYSTEMATIC_NAME>
1,4-oxathiane 4,4-dioxide

> <PUBCHEM_IUPAC_TRADITIONAL_NAME>
1,4-oxathiane 4,4-dioxide

> <PUBCHEM_IUPAC_INCHI>
InChI=1S/C4H8O3S/c5-8(6)3-1-7-2-4-8/h1-4H2

> <PUBCHEM_IUPAC_INCHIKEY>
WWRUZECKUVNAPB-UHFFFAOYSA-N

> <PUBCHEM_XLOGP3_AA>
-0.8

> <PUBCHEM_EXACT_MASS>
136.019415

> <PUBCHEM_MOLECULAR_FORMULA>
C4H8O3S

> <PUBCHEM_MOLECULAR_WEIGHT>
136.16952

> <PUBCHEM_OPENEYE_CAN_SMILES>
C1CS(=O)(=O)CCO1

> <PUBCHEM_OPENEYE_ISO_SMILES>
C1CS(=O)(=O)CCO1

> <PUBCHEM_CACTVS_TPSA>
51.8

> <PUBCHEM_MONOISOTOPIC_WEIGHT>
136.019415

> <PUBCHEM_TOTAL_CHARGE>
0

> <PUBCHEM_HEAVY_ATOM_COUNT>
8

> <PUBCHEM_ATOM_DEF_STEREO_COUNT>
0

> <PUBCHEM_ATOM_UDEF_STEREO_COUNT>
0

> <PUBCHEM_BOND_DEF_STEREO_COUNT>
0

> <PUBCHEM_BOND_UDEF_STEREO_COUNT>
0

> <PUBCHEM_ISOTOPIC_ATOM_COUNT>
0

> <PUBCHEM_COMPONENT_COUNT>
1

> <PUBCHEM_CACTVS_TAUTO_COUNT>
1

> <PUBCHEM_COORDINATE_TYPE>
1
5
255

$$$$

