5282274
  -OEChem-07051213042D

 48 47  0     0  0  0  0  0  0999 V2000
    6.3301    2.8100    0.0000 N   0  0  0  0  0  0  0  0  0  0  0  0
    3.7320    0.3100    0.0000 C   0  0  0  0  0  0  0  0  0  0  0  0
    2.8660    0.8100    0.0000 C   0  0  0  0  0  0  0  0  0  0  0  0
    3.7320   -0.6900    0.0000 C   0  0  0  0  0  0  0  0  0  0  0  0
    2.8660    1.8100    0.0000 C   0  0  0  0  0  0  0  0  0  0  0  0
    2.0000    2.3100    0.0000 C   0  0  0  0  0  0  0  0  0  0  0  0
    4.5981   -1.1900    0.0000 C   0  0  0  0  0  0  0  0  0  0  0  0
    2.0000    3.3100    0.0000 C   0  0  0  0  0  0  0  0  0  0  0  0
    4.5981   -2.1900    0.0000 C   0  0  0  0  0  0  0  0  0  0  0  0
    5.4641   -2.6900    0.0000 C   0  0  0  0  0  0  0  0  0  0  0  0
    6.3301   -2.1900    0.0000 C   0  0  0  0  0  0  0  0  0  0  0  0
    7.1962   -2.6900    0.0000 C   0  0  0  0  0  0  0  0  0  0  0  0
    8.0622   -2.1900    0.0000 C   0  0  0  0  0  0  0  0  0  0  0  0
    8.0622   -1.1900    0.0000 C   0  0  0  0  0  0  0  0  0  0  0  0
    8.9282   -0.6900    0.0000 C   0  0  0  0  0  0  0  0  0  0  0  0
    8.0622    0.8100    0.0000 C   0  0  0  0  0  0  0  0  0  0  0  0
    8.9282    0.3100    0.0000 C   0  0  0  0  0  0  0  0  0  0  0  0
    8.0622    1.8100    0.0000 C   0  0  0  0  0  0  0  0  0  0  0  0
    7.1962    2.3100    0.0000 C   0  0  0  0  0  0  0  0  0  0  0  0
    4.3426    0.2023    0.0000 H   0  0  0  0  0  0  0  0  0  0  0  0
    3.9441    0.8926    0.0000 H   0  0  0  0  0  0  0  0  0  0  0  0
    2.2554    0.9177    0.0000 H   0  0  0  0  0  0  0  0  0  0  0  0
    2.6540    0.2274    0.0000 H   0  0  0  0  0  0  0  0  0  0  0  0
    3.1215   -0.5823    0.0000 H   0  0  0  0  0  0  0  0  0  0  0  0
    3.5200   -1.2726    0.0000 H   0  0  0  0  0  0  0  0  0  0  0  0
    3.4766    1.7023    0.0000 H   0  0  0  0  0  0  0  0  0  0  0  0
    3.0781    2.3926    0.0000 H   0  0  0  0  0  0  0  0  0  0  0  0
    1.3894    2.4177    0.0000 H   0  0  0  0  0  0  0  0  0  0  0  0
    1.7880    1.7274    0.0000 H   0  0  0  0  0  0  0  0  0  0  0  0
    5.2087   -1.2977    0.0000 H   0  0  0  0  0  0  0  0  0  0  0  0
    4.8101   -0.6074    0.0000 H   0  0  0  0  0  0  0  0  0  0  0  0
    2.6200    3.3100    0.0000 H   0  0  0  0  0  0  0  0  0  0  0  0
    2.0000    3.9300    0.0000 H   0  0  0  0  0  0  0  0  0  0  0  0
    1.3800    3.3100    0.0000 H   0  0  0  0  0  0  0  0  0  0  0  0
    4.0611   -2.5000    0.0000 H   0  0  0  0  0  0  0  0  0  0  0  0
    5.4641   -3.3100    0.0000 H   0  0  0  0  0  0  0  0  0  0  0  0
    6.7287   -1.7150    0.0000 H   0  0  0  0  0  0  0  0  0  0  0  0
    5.9316   -1.7150    0.0000 H   0  0  0  0  0  0  0  0  0  0  0  0
    7.1962   -3.3100    0.0000 H   0  0  0  0  0  0  0  0  0  0  0  0
    8.5991   -2.5000    0.0000 H   0  0  0  0  0  0  0  0  0  0  0  0
    7.8501   -0.6074    0.0000 H   0  0  0  0  0  0  0  0  0  0  0  0
    7.4516   -1.2977    0.0000 H   0  0  0  0  0  0  0  0  0  0  0  0
    9.4651   -1.0000    0.0000 H   0  0  0  0  0  0  0  0  0  0  0  0
    7.4516    0.9177    0.0000 H   0  0  0  0  0  0  0  0  0  0  0  0
    7.8501    0.2274    0.0000 H   0  0  0  0  0  0  0  0  0  0  0  0
    9.4651    0.6200    0.0000 H   0  0  0  0  0  0  0  0  0  0  0  0
    8.6728    1.7023    0.0000 H   0  0  0  0  0  0  0  0  0  0  0  0
    8.2742    2.3926    0.0000 H   0  0  0  0  0  0  0  0  0  0  0  0
  1 19  3  0  0  0  0
  2  3  1  0  0  0  0
  2  4  1  0  0  0  0
  2 20  1  0  0  0  0
  2 21  1  0  0  0  0
  3  5  1  0  0  0  0
  3 22  1  0  0  0  0
  3 23  1  0  0  0  0
  4  7  1  0  0  0  0
  4 24  1  0  0  0  0
  4 25  1  0  0  0  0
  5  6  1  0  0  0  0
  5 26  1  0  0  0  0
  5 27  1  0  0  0  0
  6  8  1  0  0  0  0
  6 28  1  0  0  0  0
  6 29  1  0  0  0  0
  7  9  1  0  0  0  0
  7 30  1  0  0  0  0
  7 31  1  0  0  0  0
  8 32  1  0  0  0  0
  8 33  1  0  0  0  0
  8 34  1  0  0  0  0
  9 10  2  0  0  0  0
  9 35  1  0  0  0  0
 10 11  1  0  0  0  0
 10 36  1  0  0  0  0
 11 12  1  0  0  0  0
 11 37  1  0  0  0  0
 11 38  1  0  0  0  0
 12 13  2  0  0  0  0
 12 39  1  0  0  0  0
 13 14  1  0  0  0  0
 13 40  1  0  0  0  0
 14 15  1  0  0  0  0
 14 41  1  0  0  0  0
 14 42  1  0  0  0  0
 15 17  2  0  0  0  0
 15 43  1  0  0  0  0
 16 17  1  0  0  0  0
 16 18  1  0  0  0  0
 16 44  1  0  0  0  0
 16 45  1  0  0  0  0
 17 46  1  0  0  0  0
 18 19  1  0  0  0  0
 18 47  1  0  0  0  0
 18 48  1  0  0  0  0
M  END
> <PUBCHEM_COMPOUND_CID>
5282274

> <PUBCHEM_COMPOUND_CANONICALIZED>
1

> <PUBCHEM_CACTVS_COMPLEXITY>
301

> <PUBCHEM_CACTVS_HBOND_ACCEPTOR>
1

> <PUBCHEM_CACTVS_HBOND_DONOR>
0

> <PUBCHEM_CACTVS_ROTATABLE_BOND>
12

> <PUBCHEM_CACTVS_SUBSKEYS>
AAADceB6AAAAAAAAAAAAAAAAAAAAAAAAAAAAAAAAAAAAAAAAAAAAHAAAAAAACACBAAACAAAAAACQBCBCAAAAAAAgAAAICAAAAAgAgAIAAQAAAAAAgAAIAAsAgIAAAAAAAAAAAAAAAAAAAAAAAAAAAAAAAA==

> <PUBCHEM_IUPAC_OPENEYE_NAME>
(4Z,7Z,10Z)-octadeca-4,7,10-trienenitrile

> <PUBCHEM_IUPAC_CAS_NAME>
(4Z,7Z,10Z)-octadeca-4,7,10-trienenitrile

> <PUBCHEM_IUPAC_NAME>
(4Z,7Z,10Z)-octadeca-4,7,10-trienenitrile

> <PUBCHEM_IUPAC_SYSTEMATIC_NAME>
(4Z,7Z,10Z)-octadeca-4,7,10-trienenitrile

> <PUBCHEM_IUPAC_TRADITIONAL_NAME>
(4Z,7Z,10Z)-octadeca-4,7,10-trienenitrile

> <PUBCHEM_IUPAC_INCHI>
InChI=1S/C18H29N/c1-2-3-4-5-6-7-8-9-10-11-12-13-14-15-16-17-18-19/h8-9,11-12,14-15H,2-7,10,13,16-17H2,1H3/b9-8-,12-11-,15-14-

> <PUBCHEM_IUPAC_INCHIKEY>
IZQMXCVZGSWCLH-ORZIMQNZSA-N

> <PUBCHEM_XLOGP3_AA>
6.3

> <PUBCHEM_EXACT_MASS>
259.23

> <PUBCHEM_MOLECULAR_FORMULA>
C18H29N

> <PUBCHEM_MOLECULAR_WEIGHT>
259.42956

> <PUBCHEM_OPENEYE_CAN_SMILES>
CCCCCCCC=CCC=CCC=CCCC#N

> <PUBCHEM_OPENEYE_ISO_SMILES>
CCCCCCC/C=C\C/C=C\C/C=C\CCC#N

> <PUBCHEM_CACTVS_TPSA>
23.8

> <PUBCHEM_MONOISOTOPIC_WEIGHT>
259.23

> <PUBCHEM_TOTAL_CHARGE>
0

> <PUBCHEM_HEAVY_ATOM_COUNT>
19

> <PUBCHEM_ATOM_DEF_STEREO_COUNT>
0

> <PUBCHEM_ATOM_UDEF_STEREO_COUNT>
0

> <PUBCHEM_BOND_DEF_STEREO_COUNT>
3

> <PUBCHEM_BOND_UDEF_STEREO_COUNT>
0

> <PUBCHEM_ISOTOPIC_ATOM_COUNT>
0

> <PUBCHEM_COMPONENT_COUNT>
1

> <PUBCHEM_CACTVS_TAUTO_COUNT>
1

> <PUBCHEM_COORDINATE_TYPE>
1
5
255

$$$$

