   Color/Form

     * Mobile liquid
     * Colorless to amber liquid (Note: A solid below 32 degrees F).

   from [1]HSDB

   Odor

     * Agreeable odor
     * AROMATIC
     * Faint, fruity odor

   from [2]HSDB

   Boiling Point
        82 deg C @ 0.05 mm Hg; 124 deg C @ 1.1 mm Hg; 138 deg C @ 2.3 mm
   Hg
   from [3]HSDB

   Melting Point
        Solid below 32 deg F
   from [4]HSDB

   Corrosivity
        TEPP will attack some forms of plastics, rubber, and coatings.
   from [5]HSDB

   Density/Specific Gravity
        1.185 @ 20 deg C/4 deg C
   from [6]HSDB

   Solubilities

     * Miscible with glycerol, ethylene glycol, toluene, propylene glycol,
       acetone, methanol, benzene, carbon tetrachloride, xylene, ethanol,
       chloroform
     * Miscible in water

   from [7]HSDB

   Spectral Properties

     * Index of refraction: 1.4196 @ 20 deg C/D
     * Intense mass spectral peaks: 99 m/z (100%), 155 m/z (96%), 43 m/z
       (68%), 127 m/z (57%)
     * IR: 15007 (Sadtler Research Laboratories IR Grating Collection)
     * NMR: 7627 (Sadtler Research Laboratories Spectral Collection)
     * MASS: 60253 (NIST/EPA/MSDC Mass Spectral Database, 1990 Version)

   from [8]HSDB

   Vapor Pressure
        2.60X10-4 mm Hg at 25 deg C (extrapolated from 4.7X10-4 mm Hg at
   30 deg C)
   from [9]HSDB

   Other Chemical/Physical Properties

     * Density: about 1.2 @ 25 deg C; dark amber-colored mobile liquid
       /Technical product/
     * Hygroscopic
     * Crude: miscible with water and most solvents; practically insoluble
       in petroleum oils.
     * Quickly hydrolyzed by /water/, half-life at 25 deg C about 7 hr in
       a 50% vol/vol mixt
     * Henry's Law constant = 2.2X10-10 atm-cu m/mol at 25 deg C
       /Estimated/
     * Hydroxyl radical reaction rate constant = 7.7X10-11 cu-cm/molecule
       sec /Estimated/

   from [10]HSDB

   Computed Properties
   Molecular Weight                  290.187724 [g/mol]
   Molecular Formula                 C[8]H[20]O[7]P[2]
   XLogP3-AA                         0.4
   H-Bond Donor                      0
   H-Bond Acceptor                   7
   Rotatable Bond Count              10
   Exact Mass                        290.068426
   MonoIsotopic Mass                 290.068426
   Topological Polar Surface Area    80.3
   Heavy Atom Count                  17
   Formal Charge                     0
   Complexity                        246
   Isotope Atom Count                0
   Defined Atom Stereocenter Count   0
   Undefined Atom Stereocenter Count 0
   Defined Bond Stereocenter Count   0
   Undefined Bond Stereocenter Count 0
   Covalently-Bonded Unit Count      1
   Feature 3D Acceptor Count         2
   Effective Rotor Count             10
   Conformer Sampling RMSD           0.8
   CID Conformer Count               [11]247

References

   1. http://toxnet.nlm.nih.gov/cgi-bin/sis/search/r?dbs+hsdb:@term+@rn+@rel+107-49-3
   2. http://toxnet.nlm.nih.gov/cgi-bin/sis/search/r?dbs+hsdb:@term+@rn+@rel+107-49-3
   3. http://toxnet.nlm.nih.gov/cgi-bin/sis/search/r?dbs+hsdb:@term+@rn+@rel+107-49-3
   4. http://toxnet.nlm.nih.gov/cgi-bin/sis/search/r?dbs+hsdb:@term+@rn+@rel+107-49-3
   5. http://toxnet.nlm.nih.gov/cgi-bin/sis/search/r?dbs+hsdb:@term+@rn+@rel+107-49-3
   6. http://toxnet.nlm.nih.gov/cgi-bin/sis/search/r?dbs+hsdb:@term+@rn+@rel+107-49-3
   7. http://toxnet.nlm.nih.gov/cgi-bin/sis/search/r?dbs+hsdb:@term+@rn+@rel+107-49-3
   8. http://toxnet.nlm.nih.gov/cgi-bin/sis/search/r?dbs+hsdb:@term+@rn+@rel+107-49-3
   9. http://toxnet.nlm.nih.gov/cgi-bin/sis/search/r?dbs+hsdb:@term+@rn+@rel+107-49-3
  10. http://toxnet.nlm.nih.gov/cgi-bin/sis/search/r?dbs+hsdb:@term+@rn+@rel+107-49-3
  11. http://pubchem.ncbi.nlm.nih.gov/vw3d/vw3d.cgi?cid=7873
