24892786
  -OEChem-07051213082D

 45 47  0     1  0  0  0  0  0999 V2000
    6.2781    0.9078    0.0000 S   0  0  0  0  0  0  0  0  0  0  0  0
    7.9244    0.3698    0.0000 O   0  0  0  0  0  0  0  0  0  0  0  0
    8.8564    3.2213    0.0000 O   0  0  0  0  0  0  0  0  0  0  0  0
   10.1921    1.7327    0.0000 O   0  0  0  0  0  0  0  0  0  0  0  0
    6.8994    2.8089    0.0000 O   0  0  0  0  0  0  0  0  0  0  0  0
    9.2601   -1.1188    0.0000 O   0  0  0  0  0  0  0  0  0  0  0  0
    7.6138   -0.5808    0.0000 O   0  0  0  0  0  0  0  0  0  0  0  0
    4.6783   -2.8089    0.0000 N   0  0  0  0  0  0  0  0  0  0  0  0
    6.6353   -0.7870    0.0000 N   0  0  0  0  0  0  0  0  0  0  0  0
    8.5458    2.2708    0.0000 C   0  0  1  0  0  0  0  0  0  0  0  0
    9.2136    1.5265    0.0000 C   0  0  1  0  0  0  0  0  0  0  0  0
    7.5673    2.0646    0.0000 C   0  0  2  0  0  0  0  0  0  0  0  0
    8.9030    0.5760    0.0000 C   0  0  1  0  0  0  0  0  0  0  0  0
    7.2566    1.1141    0.0000 C   0  0  2  0  0  0  0  0  0  0  0  0
    9.5708   -0.1683    0.0000 C   0  0  0  0  0  0  0  0  0  0  0  0
    5.9674   -0.0427    0.0000 C   0  0  0  0  0  0  0  0  0  0  0  0
    4.9889   -0.2489    0.0000 C   0  0  0  0  0  0  0  0  0  0  0  0
    4.6783   -1.1994    0.0000 C   0  0  0  0  0  0  0  0  0  0  0  0
    3.7320   -1.5042    0.0000 C   0  0  0  0  0  0  0  0  0  0  0  0
    3.7320   -2.5042    0.0000 C   0  0  0  0  0  0  0  0  0  0  0  0
    5.2619   -2.0042    0.0000 C   0  0  0  0  0  0  0  0  0  0  0  0
    2.8660   -1.0042    0.0000 C   0  0  0  0  0  0  0  0  0  0  0  0
    2.8660   -3.0042    0.0000 C   0  0  0  0  0  0  0  0  0  0  0  0
    2.0000   -1.5042    0.0000 C   0  0  0  0  0  0  0  0  0  0  0  0
    2.0000   -2.5042    0.0000 C   0  0  0  0  0  0  0  0  0  0  0  0
    9.1524    2.3987    0.0000 H   0  0  0  0  0  0  0  0  0  0  0  0
    9.6277    1.0650    0.0000 H   0  0  0  0  0  0  0  0  0  0  0  0
    6.9606    1.9367    0.0000 H   0  0  0  0  0  0  0  0  0  0  0  0
    8.7104   -0.0133    0.0000 H   0  0  0  0  0  0  0  0  0  0  0  0
    7.0640    0.5247    0.0000 H   0  0  0  0  0  0  0  0  0  0  0  0
   10.1177   -0.4603    0.0000 H   0  0  0  0  0  0  0  0  0  0  0  0
    9.9534    0.3196    0.0000 H   0  0  0  0  0  0  0  0  0  0  0  0
    9.4631    3.3492    0.0000 H   0  0  0  0  0  0  0  0  0  0  0  0
   10.6062    1.2712    0.0000 H   0  0  0  0  0  0  0  0  0  0  0  0
    7.0920    3.3982    0.0000 H   0  0  0  0  0  0  0  0  0  0  0  0
    4.9684    0.3708    0.0000 H   0  0  0  0  0  0  0  0  0  0  0  0
    4.3751   -0.1615    0.0000 H   0  0  0  0  0  0  0  0  0  0  0  0
    9.6742   -1.5803    0.0000 H   0  0  0  0  0  0  0  0  0  0  0  0
    5.8819   -2.0042    0.0000 H   0  0  0  0  0  0  0  0  0  0  0  0
    4.8709   -3.3982    0.0000 H   0  0  0  0  0  0  0  0  0  0  0  0
    2.8660   -0.3842    0.0000 H   0  0  0  0  0  0  0  0  0  0  0  0
    2.8660   -3.6242    0.0000 H   0  0  0  0  0  0  0  0  0  0  0  0
    1.4631   -1.1942    0.0000 H   0  0  0  0  0  0  0  0  0  0  0  0
    1.4631   -2.8142    0.0000 H   0  0  0  0  0  0  0  0  0  0  0  0
    8.0279   -1.0422    0.0000 H   0  0  0  0  0  0  0  0  0  0  0  0
 14  1  1  1  0  0  0
  1 16  1  0  0  0  0
  2 13  1  0  0  0  0
  2 14  1  0  0  0  0
 10  3  1  1  0  0  0
  3 33  1  0  0  0  0
 11  4  1  6  0  0  0
  4 34  1  0  0  0  0
 12  5  1  6  0  0  0
  5 35  1  0  0  0  0
  6 15  1  0  0  0  0
  6 38  1  0  0  0  0
  7  9  1  0  0  0  0
  7 45  1  0  0  0  0
  8 20  1  0  0  0  0
  8 21  1  0  0  0  0
  8 40  1  0  0  0  0
  9 16  2  0  0  0  0
 10 11  1  0  0  0  0
 10 12  1  0  0  0  0
 10 26  1  0  0  0  0
 11 13  1  0  0  0  0
 11 27  1  0  0  0  0
 12 14  1  0  0  0  0
 12 28  1  0  0  0  0
 13 15  1  1  0  0  0
 13 29  1  0  0  0  0
 14 30  1  0  0  0  0
 15 31  1  0  0  0  0
 15 32  1  0  0  0  0
 16 17  1  0  0  0  0
 17 18  1  0  0  0  0
 17 36  1  0  0  0  0
 17 37  1  0  0  0  0
 18 19  1  0  0  0  0
 18 21  2  0  0  0  0
 19 20  1  0  0  0  0
 19 22  2  0  0  0  0
 20 23  2  0  0  0  0
 21 39  1  0  0  0  0
 22 24  1  0  0  0  0
 22 41  1  0  0  0  0
 23 25  1  0  0  0  0
 23 42  1  0  0  0  0
 24 25  2  0  0  0  0
 24 43  1  0  0  0  0
 25 44  1  0  0  0  0
M  END
> <PUBCHEM_COMPOUND_CID>
24892786

> <PUBCHEM_COMPOUND_CANONICALIZED>
1

> <PUBCHEM_CACTVS_COMPLEXITY>
482

> <PUBCHEM_CACTVS_HBOND_ACCEPTOR>
8

> <PUBCHEM_CACTVS_HBOND_DONOR>
6

> <PUBCHEM_CACTVS_ROTATABLE_BOND>
5

> <PUBCHEM_CACTVS_SUBSKEYS>
AAADceB7OABAAAAAAAAAAAAAAAAAAWAAAAA0QAAAAAAAAFgB8AAAHgQUCAAADBzl3ga8wPLZlgigAzRnRACCgCAxAjAI2aA4ZJgJMOLgkZGGYAhlkADryAfQ4MQOgAAAAAACAAAAAAAAAAQAAAAAAAAAAA==

> <PUBCHEM_IUPAC_OPENEYE_NAME>
[(2S,3R,4S,5S,6R)-3,4,5-trihydroxy-6-(hydroxymethyl)tetrahydropyran-2-yl] (1Z)-N-hydroxy-2-(1H-indol-3-yl)ethanimidothioate

> <PUBCHEM_IUPAC_CAS_NAME>
(1Z)-N-hydroxy-2-(1H-indol-3-yl)ethanimidothioic acid [(2S,3R,4S,5S,6R)-3,4,5-trihydroxy-6-(hydroxymethyl)-2-oxanyl] ester

> <PUBCHEM_IUPAC_NAME>
[(2S,3R,4S,5S,6R)-3,4,5-trihydroxy-6-(hydroxymethyl)oxan-2-yl] (1Z)-N-hydroxy-2-(1H-indol-3-yl)ethanimidothioate

> <PUBCHEM_IUPAC_SYSTEMATIC_NAME>
[(2S,3R,4S,5S,6R)-6-(hydroxymethyl)-3,4,5-tris(oxidanyl)oxan-2-yl] (1Z)-2-(1H-indol-3-yl)-N-oxidanyl-ethanimidothioate

> <PUBCHEM_IUPAC_TRADITIONAL_NAME>
(1Z)-N-hydroxy-2-(1H-indol-3-yl)thioacetimidic acid [(2S,3R,4S,5S,6R)-3,4,5-trihydroxy-6-methylol-tetrahydropyran-2-yl] ester

> <PUBCHEM_IUPAC_INCHI>
InChI=1S/C16H20N2O6S/c19-7-11-13(20)14(21)15(22)16(24-11)25-12(18-23)5-8-6-17-10-4-2-1-3-9(8)10/h1-4,6,11,13-17,19-23H,5,7H2/b18-12-/t11-,13-,14+,15-,16+/m1/s1

> <PUBCHEM_IUPAC_INCHIKEY>
CWNIQCOMWQROPA-PIAXYHQTSA-N

> <PUBCHEM_XLOGP3_AA>
0.5

> <PUBCHEM_EXACT_MASS>
368.104207

> <PUBCHEM_MOLECULAR_FORMULA>
C16H20N2O6S

> <PUBCHEM_MOLECULAR_WEIGHT>
368.4048

> <PUBCHEM_OPENEYE_CAN_SMILES>
C1=CC=C2C(=C1)C(=CN2)CC(=NO)SC3C(C(C(C(O3)CO)O)O)O

> <PUBCHEM_OPENEYE_ISO_SMILES>
C1=CC=C2C(=C1)C(=CN2)C/C(=N/O)/S[C@H]3[C@@H]([C@H]([C@@H]([C@H](O3)CO)O)O)O

> <PUBCHEM_CACTVS_TPSA>
164

> <PUBCHEM_MONOISOTOPIC_WEIGHT>
368.104207

> <PUBCHEM_TOTAL_CHARGE>
0

> <PUBCHEM_HEAVY_ATOM_COUNT>
25

> <PUBCHEM_ATOM_DEF_STEREO_COUNT>
5

> <PUBCHEM_ATOM_UDEF_STEREO_COUNT>
0

> <PUBCHEM_BOND_DEF_STEREO_COUNT>
1

> <PUBCHEM_BOND_UDEF_STEREO_COUNT>
0

> <PUBCHEM_ISOTOPIC_ATOM_COUNT>
0

> <PUBCHEM_COMPONENT_COUNT>
1

> <PUBCHEM_CACTVS_TAUTO_COUNT>
3

> <PUBCHEM_COORDINATE_TYPE>
1
5
255

> <PUBCHEM_BONDANNOTATIONS>
14  1  5
13  15  5
18  19  8
18  21  8
19  20  8
19  22  8
20  23  8
22  24  8
23  25  8
24  25  8
10  3  5
11  4  6
12  5  6
8  20  8
8  21  8

$$$$

