439752
  -OEChem-07051212472D

 24 25  0     0  0  0  0  0  0999 V2000
    4.6783    0.8092    0.0000 N   0  0  0  0  0  0  0  0  0  0  0  0
    7.7619   -0.8616    0.0000 N   0  0  0  0  0  0  0  0  0  0  0  0
    5.2619    0.0045    0.0000 C   0  0  0  0  0  0  0  0  0  0  0  0
    6.2619    0.0045    0.0000 C   0  0  0  0  0  0  0  0  0  0  0  0
    3.7320    0.5045    0.0000 C   0  0  0  0  0  0  0  0  0  0  0  0
    3.7320   -0.4955    0.0000 C   0  0  0  0  0  0  0  0  0  0  0  0
    4.6783   -0.8003    0.0000 C   0  0  0  0  0  0  0  0  0  0  0  0
    6.7619   -0.8616    0.0000 C   0  0  0  0  0  0  0  0  0  0  0  0
    2.8660    1.0044    0.0000 C   0  0  0  0  0  0  0  0  0  0  0  0
    2.8660   -0.9955    0.0000 C   0  0  0  0  0  0  0  0  0  0  0  0
    2.0000    0.5045    0.0000 C   0  0  0  0  0  0  0  0  0  0  0  0
    2.0000   -0.4955    0.0000 C   0  0  0  0  0  0  0  0  0  0  0  0
    6.8445    0.2165    0.0000 H   0  0  0  0  0  0  0  0  0  0  0  0
    6.1542    0.6150    0.0000 H   0  0  0  0  0  0  0  0  0  0  0  0
    4.8709    1.3985    0.0000 H   0  0  0  0  0  0  0  0  0  0  0  0
    4.8709   -1.3896    0.0000 H   0  0  0  0  0  0  0  0  0  0  0  0
    6.1793   -1.0736    0.0000 H   0  0  0  0  0  0  0  0  0  0  0  0
    6.8695   -1.4722    0.0000 H   0  0  0  0  0  0  0  0  0  0  0  0
    2.8660    1.6244    0.0000 H   0  0  0  0  0  0  0  0  0  0  0  0
    2.8660   -1.6156    0.0000 H   0  0  0  0  0  0  0  0  0  0  0  0
    1.4631    0.8145    0.0000 H   0  0  0  0  0  0  0  0  0  0  0  0
    1.4631   -0.8055    0.0000 H   0  0  0  0  0  0  0  0  0  0  0  0
    8.0719   -1.3985    0.0000 H   0  0  0  0  0  0  0  0  0  0  0  0
    8.0719   -0.3246    0.0000 H   0  0  0  0  0  0  0  0  0  0  0  0
  1  3  1  0  0  0  0
  1  5  1  0  0  0  0
  1 15  1  0  0  0  0
  2  8  1  0  0  0  0
  2 23  1  0  0  0  0
  2 24  1  0  0  0  0
  3  4  1  0  0  0  0
  3  7  2  0  0  0  0
  4  8  1  0  0  0  0
  4 13  1  0  0  0  0
  4 14  1  0  0  0  0
  5  6  1  0  0  0  0
  5  9  2  0  0  0  0
  6  7  1  0  0  0  0
  6 10  2  0  0  0  0
  7 16  1  0  0  0  0
  8 17  1  0  0  0  0
  8 18  1  0  0  0  0
  9 11  1  0  0  0  0
  9 19  1  0  0  0  0
 10 12  1  0  0  0  0
 10 20  1  0  0  0  0
 11 12  2  0  0  0  0
 11 21  1  0  0  0  0
 12 22  1  0  0  0  0
M  END
> <PUBCHEM_COMPOUND_CID>
439752

> <PUBCHEM_COMPOUND_CANONICALIZED>
1

> <PUBCHEM_CACTVS_COMPLEXITY>
147

> <PUBCHEM_CACTVS_HBOND_ACCEPTOR>
1

> <PUBCHEM_CACTVS_HBOND_DONOR>
2

> <PUBCHEM_CACTVS_ROTATABLE_BOND>
2

> <PUBCHEM_CACTVS_SUBSKEYS>
AAADccBzAAAAAAAAAAAAAAAAAAAAAWAAAAAwAAAAAAAAAFgB8AAAHAAQAAAADAjBHgQwwPLJkACgAyRiRACCgCAhAiAImaAwZJgIIOLA0ZGEIAhgkADIyAcQgIAOAAAAAAACAAAAAAAAAAQAAAAAAAAAAA==

> <PUBCHEM_IUPAC_OPENEYE_NAME>
2-(1H-indol-2-yl)ethanamine

> <PUBCHEM_IUPAC_CAS_NAME>
2-(1H-indol-2-yl)ethanamine

> <PUBCHEM_IUPAC_NAME>
2-(1H-indol-2-yl)ethanamine

> <PUBCHEM_IUPAC_SYSTEMATIC_NAME>
2-(1H-indol-2-yl)ethanamine

> <PUBCHEM_IUPAC_TRADITIONAL_NAME>
2-(1H-indol-2-yl)ethylamine

> <PUBCHEM_IUPAC_INCHI>
InChI=1S/C10H12N2/c11-6-5-9-7-8-3-1-2-4-10(8)12-9/h1-4,7,12H,5-6,11H2

> <PUBCHEM_IUPAC_INCHIKEY>
WRAUXDQDRDJTKM-UHFFFAOYSA-N

> <PUBCHEM_XLOGP3>
1.5

> <PUBCHEM_EXACT_MASS>
160.100048

> <PUBCHEM_MOLECULAR_FORMULA>
C10H12N2

> <PUBCHEM_MOLECULAR_WEIGHT>
160.21568

> <PUBCHEM_OPENEYE_CAN_SMILES>
C1=CC=C2C(=C1)C=C(N2)CCN

> <PUBCHEM_OPENEYE_ISO_SMILES>
C1=CC=C2C(=C1)C=C(N2)CCN

> <PUBCHEM_CACTVS_TPSA>
41.8

> <PUBCHEM_MONOISOTOPIC_WEIGHT>
160.100048

> <PUBCHEM_TOTAL_CHARGE>
0

> <PUBCHEM_HEAVY_ATOM_COUNT>
12

> <PUBCHEM_ATOM_DEF_STEREO_COUNT>
0

> <PUBCHEM_ATOM_UDEF_STEREO_COUNT>
0

> <PUBCHEM_BOND_DEF_STEREO_COUNT>
0

> <PUBCHEM_BOND_UDEF_STEREO_COUNT>
0

> <PUBCHEM_ISOTOPIC_ATOM_COUNT>
0

> <PUBCHEM_COMPONENT_COUNT>
1

> <PUBCHEM_CACTVS_TAUTO_COUNT>
1

> <PUBCHEM_COORDINATE_TYPE>
1
5
255

> <PUBCHEM_BONDANNOTATIONS>
1  3  8
1  5  8
10  12  8
11  12  8
3  7  8
5  6  8
5  9  8
6  10  8
6  7  8
9  11  8

$$$$

