   Color/Form

     * Clear, colorless liquid
     * Colorless liquid

   from [1]HSDB

   Odor

     * Pleasant odor
     * Sweet chloroform-like odor

   from [2]HSDB

   Boiling Point
        113-114 deg C at 760 mm Hg
   from [3]HSDB

   Melting Point
        -35 deg C
   from [4]HSDB

   Corrosivity

     * Uninhibited 1,1,2-trichloroethane is corrosive to aluminum, iron,
       and zinc at reflux temperatures.
     * 1,1,2-Trichloroethane is highly corrosive to aluminum, iron, and
       zinc. Addition of water increses the rate of corrosion.

   from [5]HSDB

   Density/Specific Gravity
        1.4416 at 20 deg C/4 deg C
   from [6]HSDB

   Heat of Vaporization
        40.24 kJ/mol at 25 deg C
   from [7]HSDB

   Octanol/Water Partition Coefficient
        log Kow = 1.89
   from [8]HSDB

   Solubilities

     * Miscible with alcohol, ethers and many organic liquids
     * In water, 4,590 mg/L at 25 deg C
     * ... Soluble in water (4.50 g/L at 20 deg C)

   from [9]HSDB

   Spectral Properties

     * Index of refraction: 1.4711 at 20 deg C/D
     * IR: 9721 (Sadtler Research Laboratories Prism Collection)
     * NMR: 2 (Varian Associates NMR Spectra Catalog)
     * MASS: 617 (Atlas of Mass Spectral Data, John Wiley & Sons, New
       York)

   from [10]HSDB

   Surface Tension
        34.02 mN/m at 25 deg C
   from [11]HSDB

   Vapor Density
        4.21 g/L (BP, 760 mm Hg)
   from [12]HSDB

   Vapor Pressure
        23 mm Hg at 25 deg C
   from [13]HSDB

   Viscosity
        1.69 cP at 25 deg C
   from [14]HSDB

   Other Chemical/Physical Properties

     * Saturated conc in air 136 g/cu m at 20 deg C, 225 g/cu m at 30 deg
       C.
     * PERCENT IN SATURATED AIR: 3.3 AT 25 DEG C
     * Partition coefficients at 37 deg C for 1,1,2-trichloroethane into
       blood= 38.6; into oil= 2,270. [Sato A, Nakajima T; Scand J Work
       Environ Health 13: 81-93 (1987)] [15]PubMed Abstract
     * Latent heat of evaporation at BP: 68.7 cal/g
     * Specific heat: 0.266 cal/g/20 deg C
     * Wt/gal: 12.04 lb at 20 deg C
     * In presence of water, hydrolysis occurs at
       /1,1,2-trichloroehtane's/ boiling point
     * Latent heat of vapor at 25 deg C: 301.4 J/g
     * Heat Capacity at 25 deg C: 150.9 J/mol K (liq); 89.0 J/mol K (gas)
     * Henry's Law constant = 8.24X10-4 atm-cu m/mole at 25 deg C
     * Hydroxyl radical reaction rate constant = 3.18X10-13 cu
       cm/molecule-sec at 22 deg C

   from [16]HSDB

   Computed Properties
   Molecular Weight                  133.40422 [g/mol]
   Molecular Formula                 C[2]H[3]Cl[3]
   XLogP3                            1.9
   H-Bond Donor                      0
   H-Bond Acceptor                   0
   Rotatable Bond Count              1
   Exact Mass                        131.930033
   MonoIsotopic Mass                 131.930033
   Topological Polar Surface Area    0
   Heavy Atom Count                  5
   Formal Charge                     0
   Complexity                        18.9
   Isotope Atom Count                0
   Defined Atom Stereocenter Count   0
   Undefined Atom Stereocenter Count 0
   Defined Bond Stereocenter Count   0
   Undefined Bond Stereocenter Count 0
   Covalently-Bonded Unit Count      1
   Effective Rotor Count             1
   Conformer Sampling RMSD           0.4
   CID Conformer Count               [17]3

References

   1. http://toxnet.nlm.nih.gov/cgi-bin/sis/search/r?dbs+hsdb:@term+@rn+@rel+79-00-5
   2. http://toxnet.nlm.nih.gov/cgi-bin/sis/search/r?dbs+hsdb:@term+@rn+@rel+79-00-5
   3. http://toxnet.nlm.nih.gov/cgi-bin/sis/search/r?dbs+hsdb:@term+@rn+@rel+79-00-5
   4. http://toxnet.nlm.nih.gov/cgi-bin/sis/search/r?dbs+hsdb:@term+@rn+@rel+79-00-5
   5. http://toxnet.nlm.nih.gov/cgi-bin/sis/search/r?dbs+hsdb:@term+@rn+@rel+79-00-5
   6. http://toxnet.nlm.nih.gov/cgi-bin/sis/search/r?dbs+hsdb:@term+@rn+@rel+79-00-5
   7. http://toxnet.nlm.nih.gov/cgi-bin/sis/search/r?dbs+hsdb:@term+@rn+@rel+79-00-5
   8. http://toxnet.nlm.nih.gov/cgi-bin/sis/search/r?dbs+hsdb:@term+@rn+@rel+79-00-5
   9. http://toxnet.nlm.nih.gov/cgi-bin/sis/search/r?dbs+hsdb:@term+@rn+@rel+79-00-5
  10. http://toxnet.nlm.nih.gov/cgi-bin/sis/search/r?dbs+hsdb:@term+@rn+@rel+79-00-5
  11. http://toxnet.nlm.nih.gov/cgi-bin/sis/search/r?dbs+hsdb:@term+@rn+@rel+79-00-5
  12. http://toxnet.nlm.nih.gov/cgi-bin/sis/search/r?dbs+hsdb:@term+@rn+@rel+79-00-5
  13. http://toxnet.nlm.nih.gov/cgi-bin/sis/search/r?dbs+hsdb:@term+@rn+@rel+79-00-5
  14. http://toxnet.nlm.nih.gov/cgi-bin/sis/search/r?dbs+hsdb:@term+@rn+@rel+79-00-5
  15. http://www.ncbi.nlm.nih.gov/entrez/query.fcgi?cmd=Retrieve&db=pubmed&dopt=Abstract&list_uids=3299685
  16. http://toxnet.nlm.nih.gov/cgi-bin/sis/search/r?dbs+hsdb:@term+@rn+@rel+79-00-5
  17. http://pubchem.ncbi.nlm.nih.gov/vw3d/vw3d.cgi?cid=6574
