26905
  -OEChem-07051212592D

 22 23  0     0  0  0  0  0  0999 V2000
    3.7320   -1.8623    0.0000 O   0  0  0  0  0  0  0  0  0  0  0  0
    5.4804    2.1723    0.0000 O   0  0  0  0  0  0  0  0  0  0  0  0
    5.4804   -1.8969    0.0000 O   0  0  0  0  0  0  0  0  0  0  0  0
    4.5981    0.6377    0.0000 C   0  0  0  0  0  0  0  0  0  0  0  0
    4.5981   -0.3623    0.0000 C   0  0  0  0  0  0  0  0  0  0  0  0
    2.8660    0.6377    0.0000 C   0  0  0  0  0  0  0  0  0  0  0  0
    3.7320    1.1377    0.0000 C   0  0  0  0  0  0  0  0  0  0  0  0
    3.7320   -0.8623    0.0000 C   0  0  0  0  0  0  0  0  0  0  0  0
    2.8660   -0.3623    0.0000 C   0  0  0  0  0  0  0  0  0  0  0  0
    5.4920    1.1724    0.0000 C   0  0  0  0  0  0  0  0  0  0  0  0
    5.4920   -0.8970    0.0000 C   0  0  0  0  0  0  0  0  0  0  0  0
    6.3981    0.6585    0.0000 C   0  0  0  0  0  0  0  0  0  0  0  0
    6.3981   -0.3831    0.0000 C   0  0  0  0  0  0  0  0  0  0  0  0
    2.0000    1.1377    0.0000 C   0  0  0  0  0  0  0  0  0  0  0  0
    3.7320    1.7577    0.0000 H   0  0  0  0  0  0  0  0  0  0  0  0
    2.3291   -0.6723    0.0000 H   0  0  0  0  0  0  0  0  0  0  0  0
    6.9338    0.9706    0.0000 H   0  0  0  0  0  0  0  0  0  0  0  0
    6.9338   -0.6952    0.0000 H   0  0  0  0  0  0  0  0  0  0  0  0
    2.3100    1.6746    0.0000 H   0  0  0  0  0  0  0  0  0  0  0  0
    1.4631    1.4477    0.0000 H   0  0  0  0  0  0  0  0  0  0  0  0
    1.6900    0.6008    0.0000 H   0  0  0  0  0  0  0  0  0  0  0  0
    3.1951   -2.1723    0.0000 H   0  0  0  0  0  0  0  0  0  0  0  0
  1  8  1  0  0  0  0
  1 22  1  0  0  0  0
  2 10  2  0  0  0  0
  3 11  2  0  0  0  0
  4  5  2  0  0  0  0
  4  7  1  0  0  0  0
  4 10  1  0  0  0  0
  5  8  1  0  0  0  0
  5 11  1  0  0  0  0
  6  7  2  0  0  0  0
  6  9  1  0  0  0  0
  6 14  1  0  0  0  0
  7 15  1  0  0  0  0
  8  9  2  0  0  0  0
  9 16  1  0  0  0  0
 10 12  1  0  0  0  0
 11 13  1  0  0  0  0
 12 13  2  0  0  0  0
 12 17  1  0  0  0  0
 13 18  1  0  0  0  0
 14 19  1  0  0  0  0
 14 20  1  0  0  0  0
 14 21  1  0  0  0  0
M  END
> <PUBCHEM_COMPOUND_CID>
26905

> <PUBCHEM_COMPOUND_CANONICALIZED>
1

> <PUBCHEM_CACTVS_COMPLEXITY>
306

> <PUBCHEM_CACTVS_HBOND_ACCEPTOR>
3

> <PUBCHEM_CACTVS_HBOND_DONOR>
1

> <PUBCHEM_CACTVS_ROTATABLE_BOND>
0

> <PUBCHEM_CACTVS_SUBSKEYS>
AAADccBwMAAAAAAAAAAAAAAAAAAAAAAAAAAwQAAAAAAAAACBAAAAGgAACAAADASAmAAyBoAAAgCIAqBSAAACAAAkIAAIiAEGCMgIJjaCFRKAcUAk4BEImYeLyPCOwAADAAAYAACAAAYAADAAAAAAAAAAAA==

> <PUBCHEM_IUPAC_OPENEYE_NAME>
5-hydroxy-7-methyl-naphthalene-1,4-dione

> <PUBCHEM_IUPAC_CAS_NAME>
5-hydroxy-7-methylnaphthalene-1,4-dione

> <PUBCHEM_IUPAC_NAME>
5-hydroxy-7-methylnaphthalene-1,4-dione

> <PUBCHEM_IUPAC_SYSTEMATIC_NAME>
7-methyl-5-oxidanyl-naphthalene-1,4-dione

> <PUBCHEM_IUPAC_TRADITIONAL_NAME>
5-hydroxy-7-methyl-1,4-naphthoquinone

> <PUBCHEM_IUPAC_INCHI>
InChI=1S/C11H8O3/c1-6-4-7-8(12)2-3-9(13)11(7)10(14)5-6/h2-5,14H,1H3

> <PUBCHEM_IUPAC_INCHIKEY>
OZUSCVSONBBWOR-UHFFFAOYSA-N

> <PUBCHEM_XLOGP3>
2.3

> <PUBCHEM_EXACT_MASS>
188.047344

> <PUBCHEM_MOLECULAR_FORMULA>
C11H8O3

> <PUBCHEM_MOLECULAR_WEIGHT>
188.17942

> <PUBCHEM_OPENEYE_CAN_SMILES>
CC1=CC(=C2C(=O)C=CC(=O)C2=C1)O

> <PUBCHEM_OPENEYE_ISO_SMILES>
CC1=CC(=C2C(=O)C=CC(=O)C2=C1)O

> <PUBCHEM_CACTVS_TPSA>
54.4

> <PUBCHEM_MONOISOTOPIC_WEIGHT>
188.047344

> <PUBCHEM_TOTAL_CHARGE>
0

> <PUBCHEM_HEAVY_ATOM_COUNT>
14

> <PUBCHEM_ATOM_DEF_STEREO_COUNT>
0

> <PUBCHEM_ATOM_UDEF_STEREO_COUNT>
0

> <PUBCHEM_BOND_DEF_STEREO_COUNT>
0

> <PUBCHEM_BOND_UDEF_STEREO_COUNT>
0

> <PUBCHEM_ISOTOPIC_ATOM_COUNT>
0

> <PUBCHEM_COMPONENT_COUNT>
1

> <PUBCHEM_CACTVS_TAUTO_COUNT>
12

> <PUBCHEM_COORDINATE_TYPE>
1
5
255

> <PUBCHEM_BONDANNOTATIONS>
4  5  8
4  7  8
5  8  8
6  7  8
6  9  8
8  9  8

$$$$

