   Color/Form

     * YELLOW LEAF FROM PETROLEUM ETHER
     * Colorless to yellow oil
     * Yellow liquid or solid

   from [1]HSDB

   Boiling Point
        214 DEG C @ 760 MM HG
   from [2]HSDB

   Melting Point
        15.5 DEG C
   from [3]HSDB

   Density/Specific Gravity
        0.9790 @ 21 DEG C/4 DEG C
   from [4]HSDB

   Dissociation Constants
        pKa= 4.53 at 25 deg C
   from [5]HSDB

   Octanol/Water Partition Coefficient
        log Kow = 1.83 at pH 7.4
   from [6]HSDB

   Solubilities

     * Sol in ether, carbon tetrachloride
     * SLIGHTLY SOL IN ETHANOL
     * Soluble in oxygenated solvents.
     * 5600 mg/l at 12 deg C in water

   from [7]HSDB

   Spectral Properties

     * Index of refraction: 1.5591 @ 21 deg C/D
     * IR: 6973 (Coblentz Society Spectral Collection)
     * UV: 5399 (Sadtler Research Laboratories Spectral Collection)
     * NMR: 3276 (Sadtler Research Laboratories Spectral Collection)
     * MAX ABSORPTION (ISOOCTANE): 236 NM (LOG E= 3.88); 288 NM (LOG E=
       3.39)
     * SADTLER REF NUMBER: 17112 (IR, PRISM)

   from [8]HSDB

   Vapor Pressure
        0.15 mm Hg at 25 deg C
   from [9]HSDB

   Other Chemical/Physical Properties

     * Forms more or less sol salts with the strong mineral acids
       /Xylidine/
     * All /isomers/ except ortho-4-xylidine are liquids above 20 deg C
       /Xylidine/

   from [10]HSDB

   Computed Properties
   Molecular Weight                  121.17964 [g/mol]
   Molecular Formula                 C[8]H[11]N
   XLogP3                            1.8
   H-Bond Donor                      1
   H-Bond Acceptor                   1
   Rotatable Bond Count              0
   Exact Mass                        121.089149
   MonoIsotopic Mass                 121.089149
   Topological Polar Surface Area    26
   Heavy Atom Count                  9
   Formal Charge                     0
   Complexity                        90.6
   Isotope Atom Count                0
   Defined Atom Stereocenter Count   0
   Undefined Atom Stereocenter Count 0
   Defined Bond Stereocenter Count   0
   Undefined Bond Stereocenter Count 0
   Covalently-Bonded Unit Count      1
   Feature 3D Donor Count            1
   Feature 3D Cation Count           1
   Feature 3D Ring Count             1
   Effective Rotor Count             0
   Conformer Sampling RMSD           0.4
   CID Conformer Count               [11]1

References

   1. http://toxnet.nlm.nih.gov/cgi-bin/sis/search/r?dbs+hsdb:@term+@rn+@rel+95-78-3
   2. http://toxnet.nlm.nih.gov/cgi-bin/sis/search/r?dbs+hsdb:@term+@rn+@rel+95-78-3
   3. http://toxnet.nlm.nih.gov/cgi-bin/sis/search/r?dbs+hsdb:@term+@rn+@rel+95-78-3
   4. http://toxnet.nlm.nih.gov/cgi-bin/sis/search/r?dbs+hsdb:@term+@rn+@rel+95-78-3
   5. http://toxnet.nlm.nih.gov/cgi-bin/sis/search/r?dbs+hsdb:@term+@rn+@rel+95-78-3
   6. http://toxnet.nlm.nih.gov/cgi-bin/sis/search/r?dbs+hsdb:@term+@rn+@rel+95-78-3
   7. http://toxnet.nlm.nih.gov/cgi-bin/sis/search/r?dbs+hsdb:@term+@rn+@rel+95-78-3
   8. http://toxnet.nlm.nih.gov/cgi-bin/sis/search/r?dbs+hsdb:@term+@rn+@rel+95-78-3
   9. http://toxnet.nlm.nih.gov/cgi-bin/sis/search/r?dbs+hsdb:@term+@rn+@rel+95-78-3
  10. http://toxnet.nlm.nih.gov/cgi-bin/sis/search/r?dbs+hsdb:@term+@rn+@rel+95-78-3
  11. http://pubchem.ncbi.nlm.nih.gov/vw3d/vw3d.cgi?cid=7259
