14537
  -OEChem-07051213112D

 14 14  0     0  0  0  0  0  0999 V2000
    6.0010    0.8450    0.0000 Cl  0  0  0  0  0  0  0  0  0  0  0  0
    2.5369   -1.1550    0.0000 Cl  0  0  0  0  0  0  0  0  0  0  0  0
    6.0010   -1.1550    0.0000 Cl  0  0  0  0  0  0  0  0  0  0  0  0
    4.2690   -2.1550    0.0000 Cl  0  0  0  0  0  0  0  0  0  0  0  0
    4.2690    1.8450    0.0000 O   0  0  0  0  0  0  0  0  0  0  0  0
    2.5369    0.8450    0.0000 O   0  0  0  0  0  0  0  0  0  0  0  0
    4.2690    0.8450    0.0000 C   0  0  0  0  0  0  0  0  0  0  0  0
    3.4030    0.3450    0.0000 C   0  0  0  0  0  0  0  0  0  0  0  0
    5.1350    0.3450    0.0000 C   0  0  0  0  0  0  0  0  0  0  0  0
    3.4030   -0.6550    0.0000 C   0  0  0  0  0  0  0  0  0  0  0  0
    5.1350   -0.6550    0.0000 C   0  0  0  0  0  0  0  0  0  0  0  0
    4.2690   -1.1550    0.0000 C   0  0  0  0  0  0  0  0  0  0  0  0
    4.8059    2.1550    0.0000 H   0  0  0  0  0  0  0  0  0  0  0  0
    2.0000    0.5350    0.0000 H   0  0  0  0  0  0  0  0  0  0  0  0
  1  9  1  0  0  0  0
  2 10  1  0  0  0  0
  3 11  1  0  0  0  0
  4 12  1  0  0  0  0
  5  7  1  0  0  0  0
  5 13  1  0  0  0  0
  6  8  1  0  0  0  0
  6 14  1  0  0  0  0
  7  8  2  0  0  0  0
  7  9  1  0  0  0  0
  8 10  1  0  0  0  0
  9 11  2  0  0  0  0
 10 12  2  0  0  0  0
 11 12  1  0  0  0  0
M  END
> <PUBCHEM_COMPOUND_CID>
14537

> <PUBCHEM_COMPOUND_CANONICALIZED>
1

> <PUBCHEM_CACTVS_COMPLEXITY>
150

> <PUBCHEM_CACTVS_HBOND_ACCEPTOR>
2

> <PUBCHEM_CACTVS_HBOND_DONOR>
2

> <PUBCHEM_CACTVS_ROTATABLE_BOND>
0

> <PUBCHEM_CACTVS_SUBSKEYS>
AAADcQBgMAAHAAAAAAAAAAAAAAAAAAAAAAAwAAAAAAAAAAABAAAACgIACAAACAYAkCAABoAAAgCAAABAAAACAAAgJEAAikAEi4gJJiKDEhKAcAEkwBEJmAeAQAAAACAQAQCASAQAQCACAQCQCAAAAAAAAA==

> <PUBCHEM_IUPAC_OPENEYE_NAME>
3,4,5,6-tetrachlorobenzene-1,2-diol

> <PUBCHEM_IUPAC_CAS_NAME>
3,4,5,6-tetrachlorobenzene-1,2-diol

> <PUBCHEM_IUPAC_NAME>
3,4,5,6-tetrachlorobenzene-1,2-diol

> <PUBCHEM_IUPAC_SYSTEMATIC_NAME>
3,4,5,6-tetrakis(chloranyl)benzene-1,2-diol

> <PUBCHEM_IUPAC_TRADITIONAL_NAME>
3,4,5,6-tetrachloropyrocatechol

> <PUBCHEM_IUPAC_INCHI>
InChI=1S/C6H2Cl4O2/c7-1-2(8)4(10)6(12)5(11)3(1)9/h11-12H

> <PUBCHEM_IUPAC_INCHIKEY>
RRBMVWQICIXSEO-UHFFFAOYSA-N

> <PUBCHEM_XLOGP3>
4.3

> <PUBCHEM_EXACT_MASS>
247.87794

> <PUBCHEM_MOLECULAR_FORMULA>
C6H2Cl4O2

> <PUBCHEM_MOLECULAR_WEIGHT>
247.89088

> <PUBCHEM_OPENEYE_CAN_SMILES>
C1(=C(C(=C(C(=C1Cl)Cl)Cl)Cl)O)O

> <PUBCHEM_OPENEYE_ISO_SMILES>
C1(=C(C(=C(C(=C1Cl)Cl)Cl)Cl)O)O

> <PUBCHEM_CACTVS_TPSA>
40.5

> <PUBCHEM_MONOISOTOPIC_WEIGHT>
245.88089

> <PUBCHEM_TOTAL_CHARGE>
0

> <PUBCHEM_HEAVY_ATOM_COUNT>
12

> <PUBCHEM_ATOM_DEF_STEREO_COUNT>
0

> <PUBCHEM_ATOM_UDEF_STEREO_COUNT>
0

> <PUBCHEM_BOND_DEF_STEREO_COUNT>
0

> <PUBCHEM_BOND_UDEF_STEREO_COUNT>
0

> <PUBCHEM_ISOTOPIC_ATOM_COUNT>
0

> <PUBCHEM_COMPONENT_COUNT>
1

> <PUBCHEM_CACTVS_TAUTO_COUNT>
4

> <PUBCHEM_COORDINATE_TYPE>
1
5
255

> <PUBCHEM_BONDANNOTATIONS>
10  12  8
11  12  8
7  8  8
7  9  8
8  10  8
9  11  8

$$$$

