   Color/Form
        Pale straw-colored liquid.
   from [1]HSDB

   Odor
        Odorless
   from [2]HSDB

   Boiling Point
        165 deg C at 0.02 mm Hg
   from [3]HSDB

   Melting Point
        13 deg C
   from [4]HSDB

   Density/Specific Gravity
        1.21 g/cu cm at 20 deg C
   from [5]HSDB

   Octanol/Water Partition Coefficient
        Log Kow = 4.5
   from [6]HSDB

   Solubilities

     * In water, 1 mg/l at pH 6.5
     * Miscible with acetone, cyclohexanone, hexane, methanol,
       dichloromethane, and xylene. In propylene glycol 24 g/l at 20 deg
       C.
     * In water, 2 ppm at ambient temperature.

   from [7]HSDB

   Vapor Pressure
        0.055 mPa at 20 deg C
   from [8]HSDB

   Other Chemical/Physical Properties

     * Resistant to decomposition by ultraviolet radiation.
     * Reasonably stable in acidic and neutral conditions, but rapidly
       hydrolyzed in alkaline media (pH 9).

   from [9]HSDB

   Computed Properties
   Molecular Weight                  383.36161 [g/mol]
   Molecular Formula                 C[19]H[20]F[3]NO[4]
   XLogP3                            4.5
   H-Bond Donor                      0
   H-Bond Acceptor                   8
   Rotatable Bond Count              9
   Exact Mass                        383.134443
   MonoIsotopic Mass                 383.134443
   Topological Polar Surface Area    57.6
   Heavy Atom Count                  27
   Formal Charge                     0
   Complexity                        453
   Isotope Atom Count                0
   Defined Atom Stereocenter Count   0
   Undefined Atom Stereocenter Count 1
   Defined Bond Stereocenter Count   0
   Undefined Bond Stereocenter Count 0
   Covalently-Bonded Unit Count      1
   Feature 3D Acceptor Count         2
   Feature 3D Hydrophobe Count       1
   Feature 3D Ring Count             2
   Effective Rotor Count             10
   Conformer Sampling RMSD           1
   CID Conformer Count               [10]230

References

   1. http://toxnet.nlm.nih.gov/cgi-bin/sis/search/r?dbs+hsdb:@term+@rn+@rel+69806-50-4
   2. http://toxnet.nlm.nih.gov/cgi-bin/sis/search/r?dbs+hsdb:@term+@rn+@rel+69806-50-4
   3. http://toxnet.nlm.nih.gov/cgi-bin/sis/search/r?dbs+hsdb:@term+@rn+@rel+69806-50-4
   4. http://toxnet.nlm.nih.gov/cgi-bin/sis/search/r?dbs+hsdb:@term+@rn+@rel+69806-50-4
   5. http://toxnet.nlm.nih.gov/cgi-bin/sis/search/r?dbs+hsdb:@term+@rn+@rel+69806-50-4
   6. http://toxnet.nlm.nih.gov/cgi-bin/sis/search/r?dbs+hsdb:@term+@rn+@rel+69806-50-4
   7. http://toxnet.nlm.nih.gov/cgi-bin/sis/search/r?dbs+hsdb:@term+@rn+@rel+69806-50-4
   8. http://toxnet.nlm.nih.gov/cgi-bin/sis/search/r?dbs+hsdb:@term+@rn+@rel+69806-50-4
   9. http://toxnet.nlm.nih.gov/cgi-bin/sis/search/r?dbs+hsdb:@term+@rn+@rel+69806-50-4
  10. http://pubchem.ncbi.nlm.nih.gov/vw3d/vw3d.cgi?cid=50897
