442824
  -OEChem-07051212592D

 52 56  0     1  0  0  0  0  0999 V2000
    6.0427   -0.6444    0.0000 O   0  0  0  0  0  0  0  0  0  0  0  0
    6.9608    1.9040    0.0000 O   0  0  0  0  0  0  0  0  0  0  0  0
    4.5204   -3.7242    0.0000 O   0  0  0  0  0  0  0  0  0  0  0  0
    3.4446    0.8556    0.0000 O   0  0  0  0  0  0  0  0  0  0  0  0
    2.5405   -0.6413    0.0000 O   0  0  0  0  0  0  0  0  0  0  0  0
    3.3202    3.9925    0.0000 O   0  0  0  0  0  0  0  0  0  0  0  0
    5.1236    5.0523    0.0000 O   0  0  0  0  0  0  0  0  0  0  0  0
    5.1767    0.8556    0.0000 C   0  0  2  0  0  0  0  0  0  0  0  0
    6.0427    0.3556    0.0000 C   0  0  1  0  0  0  0  0  0  0  0  0
    5.1767   -1.1444    0.0000 C   0  0  0  0  0  0  0  0  0  0  0  0
    5.1606    1.8971    0.0000 C   0  0  0  0  0  0  0  0  0  0  0  0
    4.3107    0.3556    0.0000 C   0  0  0  0  0  0  0  0  0  0  0  0
    5.1928   -2.1859    0.0000 C   0  0  0  0  0  0  0  0  0  0  0  0
    4.3107   -0.6444    0.0000 C   0  0  0  0  0  0  0  0  0  0  0  0
    6.9527    0.8624    0.0000 C   0  0  0  0  0  0  0  0  0  0  0  0
    5.9658   -2.8748    0.0000 C   0  0  0  0  0  0  0  0  0  0  0  0
    5.5511   -3.8236    0.0000 C   0  0  2  0  0  0  0  0  0  0  0  0
    4.2947   -2.7137    0.0000 C   0  0  0  0  0  0  0  0  0  0  0  0
    6.0587    2.4248    0.0000 C   0  0  0  0  0  0  0  0  0  0  0  0
    3.4007   -1.1513    0.0000 C   0  0  0  0  0  0  0  0  0  0  0  0
    3.3926   -2.1929    0.0000 C   0  0  0  0  0  0  0  0  0  0  0  0
    4.2087    2.4177    0.0000 C   0  0  0  0  0  0  0  0  0  0  0  0
    6.0578   -4.6858    0.0000 C   0  0  0  0  0  0  0  0  0  0  0  0
    6.0670    3.5098    0.0000 C   0  0  0  0  0  0  0  0  0  0  0  0
    4.1920    3.5026    0.0000 C   0  0  0  0  0  0  0  0  0  0  0  0
    5.1274    4.0523    0.0000 C   0  0  0  0  0  0  0  0  0  0  0  0
    5.5645   -5.5556    0.0000 C   0  0  0  0  0  0  0  0  0  0  0  0
    7.0577   -4.6781    0.0000 C   0  0  0  0  0  0  0  0  0  0  0  0
    3.3087    4.9925    0.0000 C   0  0  0  0  0  0  0  0  0  0  0  0
    5.9876    5.5556    0.0000 C   0  0  0  0  0  0  0  0  0  0  0  0
    4.4373    1.2749    0.0000 H   0  0  0  0  0  0  0  0  0  0  0  0
    6.7756   -0.0751    0.0000 H   0  0  0  0  0  0  0  0  0  0  0  0
    7.1573    0.2771    0.0000 H   0  0  0  0  0  0  0  0  0  0  0  0
    7.5644    0.9638    0.0000 H   0  0  0  0  0  0  0  0  0  0  0  0
    6.5047   -3.1815    0.0000 H   0  0  0  0  0  0  0  0  0  0  0  0
    6.3274   -2.3712    0.0000 H   0  0  0  0  0  0  0  0  0  0  0  0
    5.2177   -4.3464    0.0000 H   0  0  0  0  0  0  0  0  0  0  0  0
    2.8545   -2.5008    0.0000 H   0  0  0  0  0  0  0  0  0  0  0  0
    3.6778    2.0974    0.0000 H   0  0  0  0  0  0  0  0  0  0  0  0
    6.6052    3.8177    0.0000 H   0  0  0  0  0  0  0  0  0  0  0  0
    5.0252   -5.2498    0.0000 H   0  0  0  0  0  0  0  0  0  0  0  0
    5.2586   -6.0950    0.0000 H   0  0  0  0  0  0  0  0  0  0  0  0
    6.1038   -5.8615    0.0000 H   0  0  0  0  0  0  0  0  0  0  0  0
    2.0000   -0.9450    0.0000 H   0  0  0  0  0  0  0  0  0  0  0  0
    7.3719   -5.2126    0.0000 H   0  0  0  0  0  0  0  0  0  0  0  0
    7.3636   -4.1388    0.0000 H   0  0  0  0  0  0  0  0  0  0  0  0
    3.9286    4.9996    0.0000 H   0  0  0  0  0  0  0  0  0  0  0  0
    3.3015    5.6124    0.0000 H   0  0  0  0  0  0  0  0  0  0  0  0
    2.6887    4.9853    0.0000 H   0  0  0  0  0  0  0  0  0  0  0  0
    6.2997    5.0199    0.0000 H   0  0  0  0  0  0  0  0  0  0  0  0
    6.5234    5.8677    0.0000 H   0  0  0  0  0  0  0  0  0  0  0  0
    5.6756    6.0914    0.0000 H   0  0  0  0  0  0  0  0  0  0  0  0
  1  9  1  0  0  0  0
  1 10  1  0  0  0  0
  2 15  1  0  0  0  0
  2 19  1  0  0  0  0
  3 17  1  0  0  0  0
  3 18  1  0  0  0  0
  4 12  2  0  0  0  0
  5 20  1  0  0  0  0
  5 44  1  0  0  0  0
  6 25  1  0  0  0  0
  6 29  1  0  0  0  0
  7 26  1  0  0  0  0
  7 30  1  0  0  0  0
  8  9  1  0  0  0  0
  8 11  1  0  0  0  0
  8 12  1  0  0  0  0
  8 31  1  6  0  0  0
  9 15  1  0  0  0  0
  9 32  1  6  0  0  0
 10 13  1  0  0  0  0
 10 14  2  0  0  0  0
 11 19  1  0  0  0  0
 11 22  2  0  0  0  0
 12 14  1  0  0  0  0
 13 16  1  0  0  0  0
 13 18  2  0  0  0  0
 14 20  1  0  0  0  0
 15 33  1  0  0  0  0
 15 34  1  0  0  0  0
 16 17  1  0  0  0  0
 16 35  1  0  0  0  0
 16 36  1  0  0  0  0
 17 23  1  6  0  0  0
 17 37  1  0  0  0  0
 18 21  1  0  0  0  0
 19 24  2  0  0  0  0
 20 21  2  0  0  0  0
 21 38  1  0  0  0  0
 22 25  1  0  0  0  0
 22 39  1  0  0  0  0
 23 27  1  0  0  0  0
 23 28  2  0  0  0  0
 24 26  1  0  0  0  0
 24 40  1  0  0  0  0
 25 26  2  0  0  0  0
 27 41  1  0  0  0  0
 27 42  1  0  0  0  0
 27 43  1  0  0  0  0
 28 45  1  0  0  0  0
 28 46  1  0  0  0  0
 29 47  1  0  0  0  0
 29 48  1  0  0  0  0
 29 49  1  0  0  0  0
 30 50  1  0  0  0  0
 30 51  1  0  0  0  0
 30 52  1  0  0  0  0
M  END
> <PUBCHEM_COMPOUND_CID>
442824

> <PUBCHEM_COMPOUND_CANONICALIZED>
1

> <PUBCHEM_CACTVS_COMPLEXITY>
695

> <PUBCHEM_CACTVS_HBOND_ACCEPTOR>
7

> <PUBCHEM_CACTVS_HBOND_DONOR>
1

> <PUBCHEM_CACTVS_ROTATABLE_BOND>
3

> <PUBCHEM_CACTVS_SUBSKEYS>
AAADceB4OAAAAAAAAAAAAAAAAAAAASAAAAA0aIEAAAAAAEiRQAAAGgAACAAADRSgmAIyBoAABgCIAqBSAAACCAAkIAAAiAEGiMgNJzaGNRqCeWKl4BUKuQfK7PzOoQADCAAIQABCAAYQABCAAAAAAAAAAA==

> <PUBCHEM_IUPAC_INCHI>
InChI=1S/C23H22O7/c1-10(2)14-6-12-16(29-14)7-13(24)21-22(25)20-11-5-17(26-3)18(27-4)8-15(11)28-9-19(20)30-23(12)21/h5,7-8,14,19-20,24H,1,6,9H2,2-4H3/t14-,19-,20+/m1/s1

> <PUBCHEM_IUPAC_INCHIKEY>
ZPEHYKMRUBEPSQ-XMCHAPAWSA-N

> <PUBCHEM_XLOGP3>
4.3

> <PUBCHEM_EXACT_MASS>
410.136553

> <PUBCHEM_MOLECULAR_FORMULA>
C23H22O7

> <PUBCHEM_MOLECULAR_WEIGHT>
410.41658

> <PUBCHEM_OPENEYE_CAN_SMILES>
CC(=C)C1CC2=C3C(=C(C=C2O1)O)C(=O)C4C(O3)COC5=CC(=C(C=C45)OC)OC

> <PUBCHEM_OPENEYE_ISO_SMILES>
CC(=C)[C@H]1CC2=C3C(=C(C=C2O1)O)C(=O)[C@@H]4[C@H](O3)COC5=CC(=C(C=C45)OC)OC

> <PUBCHEM_CACTVS_TPSA>
83.4

> <PUBCHEM_MONOISOTOPIC_WEIGHT>
410.136553

> <PUBCHEM_TOTAL_CHARGE>
0

> <PUBCHEM_HEAVY_ATOM_COUNT>
30

> <PUBCHEM_ATOM_DEF_STEREO_COUNT>
3

> <PUBCHEM_ATOM_UDEF_STEREO_COUNT>
0

> <PUBCHEM_BOND_DEF_STEREO_COUNT>
0

> <PUBCHEM_BOND_UDEF_STEREO_COUNT>
0

> <PUBCHEM_ISOTOPIC_ATOM_COUNT>
0

> <PUBCHEM_COMPONENT_COUNT>
1

> <PUBCHEM_CACTVS_TAUTO_COUNT>
9

> <PUBCHEM_COORDINATE_TYPE>
1
5
255

> <PUBCHEM_BONDANNOTATIONS>
10  13  8
10  14  8
11  19  8
11  22  8
13  18  8
14  20  8
17  23  6
18  21  8
19  24  8
20  21  8
22  25  8
24  26  8
25  26  8
8  31  6
9  32  6

$$$$

