   Color/Form

     * Needles from alcohol; prisms from benzene
     * Long crystals
     * Soft, white needles

   from [1]HSDB

   Odor
        Penetrating bromine odor
   from [2]HSDB

   Taste
        Sweet
   from [3]HSDB

   Boiling Point
        286 deg C
   from [4]HSDB

   Melting Point
        94-96 deg C
   from [5]HSDB

   Density/Specific Gravity
        2.55 g/cu cm at 20 deg C
   from [6]HSDB

   Dissociation Constants
        pKa = 6.80
   from [7]HSDB

   Octanol/Water Partition Coefficient
        log Kow = 4.13
   from [8]HSDB

   Solubilities

     * Sol in alcohol, chloroform, ether, glycerol oils
     * Very soluble in ethanol; soluble in ether, benzene, carbon
       tetrachloride, chloroform, acetic acid
     * Sol in caustic alkaline solutions
     * In water, 70 mg/L at 15 deg C

   from [9]HSDB

   Spectral Properties

     * SADTLER REFERENCE NUMBER: 5323 (IR, PRISM); 466 (IR, GRATING); 1459
       (UV); 667 (NMR)
     * MASS: 70772 (NIST/EPA/MSDC Mass Spectral Database, 1990 version)
     * IR: 466 (Sadtler Research Laboratories IR Grating Collection)
     * UV: 1459 (Sadtler Research Laboratories Spectral Collection)
     * 1H NMR: 667 (Sadtler Research Laboratories Spectral Collection)

   from [10]HSDB

   Vapor Pressure
        3.03X10-4 mm Hg at 25 deg C (est)
   from [11]HSDB

   Other Chemical/Physical Properties

     * Henry's Law constant = 4.77X10-8 atm-cu m/mol at 25 deg C (est)
     * Hydroxyl radical reaction rate constant = 4.75X10-13 cu
       cm/molec-sec at 25 deg C (est)

   from [12]HSDB

   Computed Properties
   Molecular Weight                  330.79942 [g/mol]
   Molecular Formula                 C[6]H[3]Br[3]O
   XLogP3                            4.4
   H-Bond Donor                      1
   H-Bond Acceptor                   1
   Rotatable Bond Count              0
   Tautomer Count                    2
   Exact Mass                        329.771355
   MonoIsotopic Mass                 327.773401
   Topological Polar Surface Area    20.2
   Heavy Atom Count                  10
   Formal Charge                     0
   Complexity                        108
   Isotope Atom Count                0
   Defined Atom Stereocenter Count   0
   Undefined Atom Stereocenter Count 0
   Defined Bond Stereocenter Count   0
   Undefined Bond Stereocenter Count 0
   Covalently-Bonded Unit Count      1
   Feature 3D Donor Count            1
   Feature 3D Hydrophobe Count       3
   Feature 3D Ring Count             1
   Effective Rotor Count             0
   Conformer Sampling RMSD           0.4
   CID Conformer Count               [13]1

References

   1. http://toxnet.nlm.nih.gov/cgi-bin/sis/search/r?dbs+hsdb:@term+@rn+@rel+118-79-6
   2. http://toxnet.nlm.nih.gov/cgi-bin/sis/search/r?dbs+hsdb:@term+@rn+@rel+118-79-6
   3. http://toxnet.nlm.nih.gov/cgi-bin/sis/search/r?dbs+hsdb:@term+@rn+@rel+118-79-6
   4. http://toxnet.nlm.nih.gov/cgi-bin/sis/search/r?dbs+hsdb:@term+@rn+@rel+118-79-6
   5. http://toxnet.nlm.nih.gov/cgi-bin/sis/search/r?dbs+hsdb:@term+@rn+@rel+118-79-6
   6. http://toxnet.nlm.nih.gov/cgi-bin/sis/search/r?dbs+hsdb:@term+@rn+@rel+118-79-6
   7. http://toxnet.nlm.nih.gov/cgi-bin/sis/search/r?dbs+hsdb:@term+@rn+@rel+118-79-6
   8. http://toxnet.nlm.nih.gov/cgi-bin/sis/search/r?dbs+hsdb:@term+@rn+@rel+118-79-6
   9. http://toxnet.nlm.nih.gov/cgi-bin/sis/search/r?dbs+hsdb:@term+@rn+@rel+118-79-6
  10. http://toxnet.nlm.nih.gov/cgi-bin/sis/search/r?dbs+hsdb:@term+@rn+@rel+118-79-6
  11. http://toxnet.nlm.nih.gov/cgi-bin/sis/search/r?dbs+hsdb:@term+@rn+@rel+118-79-6
  12. http://toxnet.nlm.nih.gov/cgi-bin/sis/search/r?dbs+hsdb:@term+@rn+@rel+118-79-6
  13. http://pubchem.ncbi.nlm.nih.gov/vw3d/vw3d.cgi?cid=1483
