6427471
  -OEChem-07051213152D

 39 41  0     1  0  0  0  0  0999 V2000
    3.5749   -1.0413    0.0000 C   0  0  1  0  0  0  0  0  0  0  0  0
    3.0749   -0.1752    0.0000 C   0  0  2  0  0  0  0  0  0  0  0  0
    5.3069   -0.0413    0.0000 C   0  0  1  0  0  0  0  0  0  0  0  0
    5.5657    0.9247    0.0000 C   0  0  3  0  0  0  0  0  0  0  0  0
    4.8291    1.9073    0.0000 C   0  0  0  0  0  0  0  0  0  0  0  0
    2.9078   -1.7783    0.0000 C   0  0  0  0  0  0  0  0  0  0  0  0
    2.1030   -0.3844    0.0000 C   0  0  0  0  0  0  0  0  0  0  0  0
    2.0000   -1.3732    0.0000 C   0  0  0  0  0  0  0  0  0  0  0  0
    7.0116   -1.0859    0.0000 C   0  0  0  0  0  0  0  0  0  0  0  0
    4.0749   -1.9073    0.0000 C   0  0  0  0  0  0  0  0  0  0  0  0
    2.5749    0.6908    0.0000 C   0  0  0  0  0  0  0  0  0  0  0  0
    7.4304    0.4770    0.0000 C   0  0  0  0  0  0  0  0  0  0  0  0
    5.0481   -1.0072    0.0000 C   0  0  0  0  0  0  0  0  0  0  0  0
    7.7888   -0.4566    0.0000 C   0  0  0  0  0  0  0  0  0  0  0  0
    7.9750    1.3157    0.0000 C   0  0  0  0  0  0  0  0  0  0  0  0
    6.0327    1.6349    0.0000 H   0  0  0  0  0  0  0  0  0  0  0  0
    5.1469    2.4396    0.0000 H   0  0  0  0  0  0  0  0  0  0  0  0
    4.2160    1.9992    0.0000 H   0  0  0  0  0  0  0  0  0  0  0  0
    2.5970   -2.3148    0.0000 H   0  0  0  0  0  0  0  0  0  0  0  0
    3.4086   -2.1437    0.0000 H   0  0  0  0  0  0  0  0  0  0  0  0
    2.0370    0.2320    0.0000 H   0  0  0  0  0  0  0  0  0  0  0  0
    1.4830   -0.3853    0.0000 H   0  0  0  0  0  0  0  0  0  0  0  0
    1.3935   -1.2444    0.0000 H   0  0  0  0  0  0  0  0  0  0  0  0
    1.8082   -1.9628    0.0000 H   0  0  0  0  0  0  0  0  0  0  0  0
    6.6299   -1.5745    0.0000 H   0  0  0  0  0  0  0  0  0  0  0  0
    7.4538   -1.5205    0.0000 H   0  0  0  0  0  0  0  0  0  0  0  0
    3.5379   -2.2173    0.0000 H   0  0  0  0  0  0  0  0  0  0  0  0
    4.3849   -2.4442    0.0000 H   0  0  0  0  0  0  0  0  0  0  0  0
    4.6118   -1.5973    0.0000 H   0  0  0  0  0  0  0  0  0  0  0  0
    3.1118    1.0008    0.0000 H   0  0  0  0  0  0  0  0  0  0  0  0
    2.2649    1.2277    0.0000 H   0  0  0  0  0  0  0  0  0  0  0  0
    2.0379    0.3808    0.0000 H   0  0  0  0  0  0  0  0  0  0  0  0
    4.4492   -0.8467    0.0000 H   0  0  0  0  0  0  0  0  0  0  0  0
    4.8876   -1.6061    0.0000 H   0  0  0  0  0  0  0  0  0  0  0  0
    5.6470   -1.1676    0.0000 H   0  0  0  0  0  0  0  0  0  0  0  0
    8.3876   -0.6170    0.0000 H   0  0  0  0  0  0  0  0  0  0  0  0
    8.4950    0.9780    0.0000 H   0  0  0  0  0  0  0  0  0  0  0  0
    8.3127    1.8356    0.0000 H   0  0  0  0  0  0  0  0  0  0  0  0
    7.4551    1.6534    0.0000 H   0  0  0  0  0  0  0  0  0  0  0  0
  1  2  1  0  0  0  0
  1  3  1  0  0  0  0
  1  6  1  0  0  0  0
  1 10  1  6  0  0  0
  2  4  1  0  0  0  0
  2  7  1  0  0  0  0
  2 11  1  6  0  0  0
  3  5  1  0  0  0  0
  3  9  1  0  0  0  0
  3 13  1  6  0  0  0
  4  5  1  0  0  0  0
  4 12  1  0  0  0  0
  4 16  1  0  0  0  0
  5 17  1  0  0  0  0
  5 18  1  0  0  0  0
  6  8  1  0  0  0  0
  6 19  1  0  0  0  0
  6 20  1  0  0  0  0
  7  8  1  0  0  0  0
  7 21  1  0  0  0  0
  7 22  1  0  0  0  0
  8 23  1  0  0  0  0
  8 24  1  0  0  0  0
  9 14  1  0  0  0  0
  9 25  1  0  0  0  0
  9 26  1  0  0  0  0
 10 27  1  0  0  0  0
 10 28  1  0  0  0  0
 10 29  1  0  0  0  0
 11 30  1  0  0  0  0
 11 31  1  0  0  0  0
 11 32  1  0  0  0  0
 12 14  2  0  0  0  0
 12 15  1  0  0  0  0
 13 33  1  0  0  0  0
 13 34  1  0  0  0  0
 13 35  1  0  0  0  0
 14 36  1  0  0  0  0
 15 37  1  0  0  0  0
 15 38  1  0  0  0  0
 15 39  1  0  0  0  0
M  END
> <PUBCHEM_COMPOUND_CID>
6427471

> <PUBCHEM_COMPOUND_CANONICALIZED>
1

> <PUBCHEM_CACTVS_COMPLEXITY>
340

> <PUBCHEM_CACTVS_HBOND_ACCEPTOR>
0

> <PUBCHEM_CACTVS_HBOND_DONOR>
0

> <PUBCHEM_CACTVS_ROTATABLE_BOND>
0

> <PUBCHEM_CACTVS_SUBSKEYS>
AAADceBwAAAAAAAAAAAAAAAAAAAAAYMAAAAgAAAABAAYAAAAAAAAGAAAAAAADwCAAAACAAAAAACAAiBCAAAAAAAgAAAACAAAAAgAAAIAAQAAAAAAgAAIAAMAgMAPgAAAAAAAAAAAAAAAAAAAAQAACAAAAA==

> <PUBCHEM_IUPAC_INCHI>
InChI=1S/C15H24/c1-11-6-9-13(2)10-12(11)14(3)7-5-8-15(13,14)4/h6,12H,5,7-10H2,1-4H3/t12?,13-,14+,15-/m1/s1

> <PUBCHEM_IUPAC_INCHIKEY>
RMKQBFUAKZOVPQ-JALIKCBVSA-N

> <PUBCHEM_XLOGP3_AA>
4.8

> <PUBCHEM_EXACT_MASS>
204.187801

> <PUBCHEM_MOLECULAR_FORMULA>
C15H24

> <PUBCHEM_MOLECULAR_WEIGHT>
204.35106

> <PUBCHEM_OPENEYE_CAN_SMILES>
CC1=CCC2(CC1C3(C2(CCC3)C)C)C

> <PUBCHEM_OPENEYE_ISO_SMILES>
CC1=CC[C@@]2(CC1[C@]3([C@@]2(CCC3)C)C)C

> <PUBCHEM_CACTVS_TPSA>
0

> <PUBCHEM_MONOISOTOPIC_WEIGHT>
204.187801

> <PUBCHEM_TOTAL_CHARGE>
0

> <PUBCHEM_HEAVY_ATOM_COUNT>
15

> <PUBCHEM_ATOM_DEF_STEREO_COUNT>
3

> <PUBCHEM_ATOM_UDEF_STEREO_COUNT>
1

> <PUBCHEM_BOND_DEF_STEREO_COUNT>
0

> <PUBCHEM_BOND_UDEF_STEREO_COUNT>
0

> <PUBCHEM_ISOTOPIC_ATOM_COUNT>
0

> <PUBCHEM_COMPONENT_COUNT>
1

> <PUBCHEM_CACTVS_TAUTO_COUNT>
1

> <PUBCHEM_COORDINATE_TYPE>
1
5
255

> <PUBCHEM_BONDANNOTATIONS>
1  10  6
2  11  6
3  13  6
4  16  3

$$$$

