   Color/Form
        Colorless to faint yellow, oily liquid.
   from [1]HSDB

   Odor
        Slight, aromatic odor.
   from [2]HSDB

   Taste
        TASTE STRONG & BITTER
   from [3]HSDB

   Boiling Point
        340 deg C
   from [4]HSDB

   Melting Point
        -35 deg C
   from [5]HSDB

   Critical Temperature and Pressure
        CRITICAL TEMP: 932 DEG F= 500 DEG C= 773 DEG K; CRITICAL PRESSURE:
   250 PSIA= 17 ATM= 1.7 MN/SQ M
   from [6]HSDB

   Density/Specific Gravity
        1.0459 and 1.0465 at 20 deg C
   from [7]HSDB

   Heat of Combustion
        -13,300 BTU/LB= -7400 CAL/G= -310X10+5 JOULES/KG
   from [8]HSDB

   Heat of Vaporization
        17,747.0 cal/mole
   from [9]HSDB

   Octanol/Water Partition Coefficient
        log Kow = 4.9
   from [10]HSDB

   Solubilities

     * Very sol in acetone, benzene, alcohol, ether
     * Miscible in ethanol, ethyl ether, benzene; soluble in carbon
       tetrachloride
     * SOL IN MOST ORG SOLVENTS & OILS
     * 0.001% IN WATER @ 30 DEG C
     * 13 mg/L at 25 deg C in water
     * In water, 11.2 mg/L at 20 deg C

   from [11]HSDB

   Spectral Properties

     * Index of refraction: 1.4900 at 20 deg C/D
     * MAX ABSORPTION (ALCOHOL): 226 NM (LOG E= 3.98); 272 NM (LOG E=
       3.18)
     * SADTLER REFERENCE NUMBER: 285 (IR, GRATING)
     * 225 nm max methanol.
     * 274 max methanol.
     * IR: 1902 (Sadtler Research Laboratories Prism Collection)
     * Raman: 80 (Sadtler Research Laboratories Spectral Collection)
     * UV: 529 (Sadtler Research Laboratories Spectral Collection)
     * 1H NMR: 721 (Sadtler Research Laboratories Spectral Collection)
     * MASS: 26524 (NIST/EPA/MSDC Mass Spectral database, 1990 version)
     * Intense mass spectral peaks: 149 m/z (100%), 86 m/z (18%), 57 m/z
       (18%), 223 m/z (17%)
     * Intense mass spectral peaks: 205 m/z, 222 m/z, 278 m/z

   from [12]HSDB

   Surface Tension
        LIQUID SURFACE TENSION: 34 DYNES/CM= 0.034 N/M @ 20 DEG C
   from [13]HSDB

   Vapor Density
        9.58 (Air = 1)
   from [14]HSDB

   Vapor Pressure
        2.01X10-5 mm Hg at 25 deg C
   from [15]HSDB

   Viscosity
        0.203 poise at 20 deg C
   from [16]HSDB

   Other Chemical/Physical Properties

     * Distillation range: 227-235 deg C @ 37 mm Hg; wt/gal: 8.72 lb @ 68
       deg F
     * MORE SOL IN /PERSPIRATION/ THAN IN WATER & INCR SOL WITH PH RISE
     * Alkaline hydrolysis rate of di-n-butylphthalate in a solvent
       water-toluene binary mixture at 25 deg C was <3.0 x 10-8 sec -1
       (NaOH concn 0.186 M).
     * LIQUID-WATER INTERFACIAL TENSION: 27 DYNES/CM= 0.027 N/M @ 22.7 DEG
       C
     * CONVERSION FACTORS: 11.36 MG/CU M= APPROX 1 PPM
     * Vapor pressure = 14 mm Hg at 200 deg C
     * Vapor pressure = 1.1 mm Hg at 150 deg C
     * Vapor pressure = .14 x 10-4 torr at 25 deg C
     * ... Resistance to migration from polymers, low temperature
       flexibility ... compatibility with polar polymers and additives
       over a wide range of compositions. /Phthalate esters/
     * Phthalate esters would be expected to have UV maxima in the 230 nm
       and 270 nm regions. /Phthalate esters/
     * Henry's Law constant = 1.81X10-6 atm-cu m/mole at 25 deg C

   from [17]HSDB

   Computed Properties
   Molecular Weight                  278.34348 [g/mol]
   Molecular Formula                 C[16]H[22]O[4]
   XLogP3                            4.7
   H-Bond Donor                      0
   H-Bond Acceptor                   4
   Rotatable Bond Count              10
   Exact Mass                        278.151809
   MonoIsotopic Mass                 278.151809
   Topological Polar Surface Area    52.6
   Heavy Atom Count                  20
   Formal Charge                     0
   Complexity                        271
   Isotope Atom Count                0
   Defined Atom Stereocenter Count   0
   Undefined Atom Stereocenter Count 0
   Defined Bond Stereocenter Count   0
   Undefined Bond Stereocenter Count 0
   Covalently-Bonded Unit Count      1
   Feature 3D Acceptor Count         2
   Feature 3D Hydrophobe Count       2
   Feature 3D Ring Count             1
   Effective Rotor Count             10
   Conformer Sampling RMSD           1
   CID Conformer Count               [18]70

References

   1. http://toxnet.nlm.nih.gov/cgi-bin/sis/search/r?dbs+hsdb:@term+@rn+@rel+84-74-2
   2. http://toxnet.nlm.nih.gov/cgi-bin/sis/search/r?dbs+hsdb:@term+@rn+@rel+84-74-2
   3. http://toxnet.nlm.nih.gov/cgi-bin/sis/search/r?dbs+hsdb:@term+@rn+@rel+84-74-2
   4. http://toxnet.nlm.nih.gov/cgi-bin/sis/search/r?dbs+hsdb:@term+@rn+@rel+84-74-2
   5. http://toxnet.nlm.nih.gov/cgi-bin/sis/search/r?dbs+hsdb:@term+@rn+@rel+84-74-2
   6. http://toxnet.nlm.nih.gov/cgi-bin/sis/search/r?dbs+hsdb:@term+@rn+@rel+84-74-2
   7. http://toxnet.nlm.nih.gov/cgi-bin/sis/search/r?dbs+hsdb:@term+@rn+@rel+84-74-2
   8. http://toxnet.nlm.nih.gov/cgi-bin/sis/search/r?dbs+hsdb:@term+@rn+@rel+84-74-2
   9. http://toxnet.nlm.nih.gov/cgi-bin/sis/search/r?dbs+hsdb:@term+@rn+@rel+84-74-2
  10. http://toxnet.nlm.nih.gov/cgi-bin/sis/search/r?dbs+hsdb:@term+@rn+@rel+84-74-2
  11. http://toxnet.nlm.nih.gov/cgi-bin/sis/search/r?dbs+hsdb:@term+@rn+@rel+84-74-2
  12. http://toxnet.nlm.nih.gov/cgi-bin/sis/search/r?dbs+hsdb:@term+@rn+@rel+84-74-2
  13. http://toxnet.nlm.nih.gov/cgi-bin/sis/search/r?dbs+hsdb:@term+@rn+@rel+84-74-2
  14. http://toxnet.nlm.nih.gov/cgi-bin/sis/search/r?dbs+hsdb:@term+@rn+@rel+84-74-2
  15. http://toxnet.nlm.nih.gov/cgi-bin/sis/search/r?dbs+hsdb:@term+@rn+@rel+84-74-2
  16. http://toxnet.nlm.nih.gov/cgi-bin/sis/search/r?dbs+hsdb:@term+@rn+@rel+84-74-2
  17. http://toxnet.nlm.nih.gov/cgi-bin/sis/search/r?dbs+hsdb:@term+@rn+@rel+84-74-2
  18. http://pubchem.ncbi.nlm.nih.gov/vw3d/vw3d.cgi?cid=3026
