   Color/Form

     * Liquid
     * CLEAR, COLORLESS OR FAINTLY YELLOW LIQUID
     * Oily liquid

   from [1]HSDB

   Odor
        Very weak fruity odor
   from [2]HSDB

   Boiling Point
        62 deg C @ 9 mm Hg; 46 deg C @ 5 mm Hg; 183 deg C @ 760 mm Hg (by
   extrapolation)
   from [3]HSDB

   Melting Point
        -82 deg C
   from [4]HSDB

   Density/Specific Gravity
        1.055
   from [5]HSDB

   Solubilities

     * Solubility in water @ 25 deg C: 1.54% wt/wt; sol in vegetable oils;
       not very sol in mineral oils
     * Sol in ether
     * SOL IN ALCOHOL
     * Soluble in organic solvents, fuel and lubricants.

   from [6]HSDB

   Spectral Properties

     * Index of refraction: 1.3830 @ 25 deg C/D
     * MAX ABSORPTION (ALCOHOL): 243 NM (LOG E = 0.28); 255 NM (LOG E =
       0.33); 261 NM (LOG E = 0.30)
     * UV: 2-79 (Organic Electronic Spectral Data, Phillips et al, John
       Wiley & Sons, New York)

   from [7]HSDB

   Vapor Density
        6.4 (Air= 1)
   from [8]HSDB

   Vapor Pressure
        0.579 mm Hg @ 20 deg C
   from [9]HSDB

   Other Chemical/Physical Properties

     * Forms hydrogen fluoride in presence of moisture; decomp in water @
       pH about 2.5
     * DFP yields phosphate as a result of decomposition with sulfuric
       acid.
     * Oil/water partition coefficient: log= 0.93
     * Carbon tetrachloride/water partition coefficient: 1.57-1.58
     * The anhydride compd or oil solns are stable in glass containers at
       room temp.

   from [10]HSDB

   Computed Properties
   Molecular Weight                  184.145725 [g/mol]
   Molecular Formula                 C[6]H[14]FO[3]P
   XLogP3                            1.2
   H-Bond Donor                      0
   H-Bond Acceptor                   4
   Rotatable Bond Count              4
   Exact Mass                        184.066459
   MonoIsotopic Mass                 184.066459
   Topological Polar Surface Area    35.5
   Heavy Atom Count                  11
   Formal Charge                     0
   Complexity                        144
   Isotope Atom Count                0
   Defined Atom Stereocenter Count   0
   Undefined Atom Stereocenter Count 0
   Defined Bond Stereocenter Count   0
   Undefined Bond Stereocenter Count 0
   Covalently-Bonded Unit Count      1
   Feature 3D Acceptor Count         1
   Feature 3D Hydrophobe Count       2
   Effective Rotor Count             4
   Conformer Sampling RMSD           0.6
   CID Conformer Count               [11]45

References

   1. http://toxnet.nlm.nih.gov/cgi-bin/sis/search/r?dbs+hsdb:@term+@rn+@rel+55-91-4
   2. http://toxnet.nlm.nih.gov/cgi-bin/sis/search/r?dbs+hsdb:@term+@rn+@rel+55-91-4
   3. http://toxnet.nlm.nih.gov/cgi-bin/sis/search/r?dbs+hsdb:@term+@rn+@rel+55-91-4
   4. http://toxnet.nlm.nih.gov/cgi-bin/sis/search/r?dbs+hsdb:@term+@rn+@rel+55-91-4
   5. http://toxnet.nlm.nih.gov/cgi-bin/sis/search/r?dbs+hsdb:@term+@rn+@rel+55-91-4
   6. http://toxnet.nlm.nih.gov/cgi-bin/sis/search/r?dbs+hsdb:@term+@rn+@rel+55-91-4
   7. http://toxnet.nlm.nih.gov/cgi-bin/sis/search/r?dbs+hsdb:@term+@rn+@rel+55-91-4
   8. http://toxnet.nlm.nih.gov/cgi-bin/sis/search/r?dbs+hsdb:@term+@rn+@rel+55-91-4
   9. http://toxnet.nlm.nih.gov/cgi-bin/sis/search/r?dbs+hsdb:@term+@rn+@rel+55-91-4
  10. http://toxnet.nlm.nih.gov/cgi-bin/sis/search/r?dbs+hsdb:@term+@rn+@rel+55-91-4
  11. http://pubchem.ncbi.nlm.nih.gov/vw3d/vw3d.cgi?cid=5936
