442812
  -OEChem-07051212592D

 35 38  0     1  0  0  0  0  0999 V2000
    5.9065   -0.7228    0.0000 O   0  0  0  0  0  0  0  0  0  0  0  0
    8.0505    1.3457    0.0000 O   0  0  0  0  0  0  0  0  0  0  0  0
    3.7964   -1.3244    0.0000 O   0  0  0  0  0  0  0  0  0  0  0  0
    2.4170    0.1814    0.0000 O   0  0  0  0  0  0  0  0  0  0  0  0
   10.6901   -0.9985    0.0000 O   0  0  0  0  0  0  0  0  0  0  0  0
    6.4033    0.8105    0.0000 C   0  0  2  0  0  0  0  0  0  0  0  0
    6.7123   -0.1406    0.0000 C   0  0  2  0  0  0  0  0  0  0  0  0
    5.4092    0.8079    0.0000 C   0  0  0  0  0  0  0  0  0  0  0  0
    7.0724    1.5536    0.0000 C   0  0  0  0  0  0  0  0  0  0  0  0
    7.6904   -0.3485    0.0000 C   0  0  0  0  0  0  0  0  0  0  0  0
    5.1028   -0.1378    0.0000 C   0  0  0  0  0  0  0  0  0  0  0  0
    8.3596    0.3946    0.0000 C   0  0  0  0  0  0  0  0  0  0  0  0
    4.7276    1.5874    0.0000 C   0  0  0  0  0  0  0  0  0  0  0  0
    4.0936   -0.3696    0.0000 C   0  0  0  0  0  0  0  0  0  0  0  0
    7.9970   -1.3440    0.0000 C   0  0  0  0  0  0  0  0  0  0  0  0
    9.3816    0.1938    0.0000 C   0  0  0  0  0  0  0  0  0  0  0  0
    3.7133    1.3790    0.0000 C   0  0  0  0  0  0  0  0  0  0  0  0
    3.3942    0.3940    0.0000 C   0  0  0  0  0  0  0  0  0  0  0  0
    9.0142   -1.5684    0.0000 C   0  0  0  0  0  0  0  0  0  0  0  0
    9.7112   -0.7943    0.0000 C   0  0  0  0  0  0  0  0  0  0  0  0
    2.8210   -1.5444    0.0000 C   0  0  0  0  0  0  0  0  0  0  0  0
    6.0565    1.5865    0.0000 H   0  0  0  0  0  0  0  0  0  0  0  0
    6.8879   -0.9722    0.0000 H   0  0  0  0  0  0  0  0  0  0  0  0
    7.3046    2.1285    0.0000 H   0  0  0  0  0  0  0  0  0  0  0  0
    6.5466    1.8822    0.0000 H   0  0  0  0  0  0  0  0  0  0  0  0
    4.9255    2.1750    0.0000 H   0  0  0  0  0  0  0  0  0  0  0  0
    7.5768   -1.7999    0.0000 H   0  0  0  0  0  0  0  0  0  0  0  0
    9.7912    0.6593    0.0000 H   0  0  0  0  0  0  0  0  0  0  0  0
    3.2998    1.8410    0.0000 H   0  0  0  0  0  0  0  0  0  0  0  0
    9.2035   -2.1588    0.0000 H   0  0  0  0  0  0  0  0  0  0  0  0
    2.0000    0.6402    0.0000 H   0  0  0  0  0  0  0  0  0  0  0  0
    2.6845   -0.9396    0.0000 H   0  0  0  0  0  0  0  0  0  0  0  0
    2.2162   -1.6809    0.0000 H   0  0  0  0  0  0  0  0  0  0  0  0
    2.9574   -2.1492    0.0000 H   0  0  0  0  0  0  0  0  0  0  0  0
   10.8840   -1.5874    0.0000 H   0  0  0  0  0  0  0  0  0  0  0  0
  1  7  1  0  0  0  0
  1 11  1  0  0  0  0
  2  9  1  0  0  0  0
  2 12  1  0  0  0  0
  3 14  1  0  0  0  0
  3 21  1  0  0  0  0
  4 18  1  0  0  0  0
  4 31  1  0  0  0  0
  5 20  1  0  0  0  0
  5 35  1  0  0  0  0
  6  7  1  0  0  0  0
  6  8  1  0  0  0  0
  6  9  1  0  0  0  0
  6 22  1  1  0  0  0
  7 10  1  0  0  0  0
  7 23  1  1  0  0  0
  8 11  2  0  0  0  0
  8 13  1  0  0  0  0
  9 24  1  0  0  0  0
  9 25  1  0  0  0  0
 10 12  2  0  0  0  0
 10 15  1  0  0  0  0
 11 14  1  0  0  0  0
 12 16  1  0  0  0  0
 13 17  2  0  0  0  0
 13 26  1  0  0  0  0
 14 18  2  0  0  0  0
 15 19  2  0  0  0  0
 15 27  1  0  0  0  0
 16 20  2  0  0  0  0
 16 28  1  0  0  0  0
 17 18  1  0  0  0  0
 17 29  1  0  0  0  0
 19 20  1  0  0  0  0
 19 30  1  0  0  0  0
 21 32  1  0  0  0  0
 21 33  1  0  0  0  0
 21 34  1  0  0  0  0
M  END
> <PUBCHEM_COMPOUND_CID>
442812

> <PUBCHEM_COMPOUND_CANONICALIZED>
1

> <PUBCHEM_CACTVS_COMPLEXITY>
389

> <PUBCHEM_CACTVS_HBOND_ACCEPTOR>
5

> <PUBCHEM_CACTVS_HBOND_DONOR>
2

> <PUBCHEM_CACTVS_ROTATABLE_BOND>
1

> <PUBCHEM_CACTVS_SUBSKEYS>
AAADccB4OAAAAAAAAAAAAAAAAAAAASAAAAA0YIAAAAAAAEiRQAAAGgAACAAADRSgmAIyBoAABgCAAiBCAAACCAAgIAAIiAAGiIgNJyKGMRqCeCOlwBULuAfA4PwOoAABCAAIQABAAAIQABCAAAAAAAAAAA==

> <PUBCHEM_IUPAC_OPENEYE_NAME>
(6aR,11aR)-10-methoxy-6a,11a-dihydro-6H-benzofuro[3,2-c]chromene-3,9-diol

> <PUBCHEM_IUPAC_CAS_NAME>
(6aR,11aR)-10-methoxy-6a,11a-dihydro-6H-benzofuro[3,2-c][1]benzopyran-3,9-diol

> <PUBCHEM_IUPAC_NAME>
(6aR,11aR)-10-methoxy-6a,11a-dihydro-6H-[1]benzofuro[3,2-c]chromene-3,9-diol

> <PUBCHEM_IUPAC_SYSTEMATIC_NAME>
(6aR,11aR)-10-methoxy-6a,11a-dihydro-6H-[1]benzofuro[3,2-c]chromene-3,9-diol

> <PUBCHEM_IUPAC_TRADITIONAL_NAME>
(6aR,11aR)-10-methoxy-6a,11a-dihydro-6H-benzofuro[3,2-c]chromene-3,9-diol

> <PUBCHEM_IUPAC_INCHI>
InChI=1S/C16H14O5/c1-19-16-12(18)5-4-9-11-7-20-13-6-8(17)2-3-10(13)14(11)21-15(9)16/h2-6,11,14,17-18H,7H2,1H3/t11-,14-/m0/s1

> <PUBCHEM_IUPAC_INCHIKEY>
FPRVFTCYJRERLF-FZMZJTMJSA-N

> <PUBCHEM_XLOGP3_AA>
2.3

> <PUBCHEM_EXACT_MASS>
286.084124

> <PUBCHEM_MOLECULAR_FORMULA>
C16H14O5

> <PUBCHEM_MOLECULAR_WEIGHT>
286.27936

> <PUBCHEM_OPENEYE_CAN_SMILES>
COC1=C(C=CC2=C1OC3C2COC4=C3C=CC(=C4)O)O

> <PUBCHEM_OPENEYE_ISO_SMILES>
COC1=C(C=CC2=C1O[C@@H]3[C@H]2COC4=C3C=CC(=C4)O)O

> <PUBCHEM_CACTVS_TPSA>
68.2

> <PUBCHEM_MONOISOTOPIC_WEIGHT>
286.084124

> <PUBCHEM_TOTAL_CHARGE>
0

> <PUBCHEM_HEAVY_ATOM_COUNT>
21

> <PUBCHEM_ATOM_DEF_STEREO_COUNT>
2

> <PUBCHEM_ATOM_UDEF_STEREO_COUNT>
0

> <PUBCHEM_BOND_DEF_STEREO_COUNT>
0

> <PUBCHEM_BOND_UDEF_STEREO_COUNT>
0

> <PUBCHEM_ISOTOPIC_ATOM_COUNT>
0

> <PUBCHEM_COMPONENT_COUNT>
1

> <PUBCHEM_CACTVS_TAUTO_COUNT>
8

> <PUBCHEM_COORDINATE_TYPE>
1
5
255

> <PUBCHEM_BONDANNOTATIONS>
10  12  8
10  15  8
11  14  8
12  16  8
13  17  8
14  18  8
15  19  8
16  20  8
17  18  8
19  20  8
6  22  5
7  23  5
8  11  8
8  13  8

$$$$

