443821
  -OEChem-07051213032D

 42 44  0     0  0  0  0  0  0999 V2000
    6.4144    2.4329    0.0000 O   0  0  0  0  0  0  0  0  0  0  0  0
    4.6660    2.3983    0.0000 O   0  0  0  0  0  0  0  0  0  0  0  0
    4.6660   -1.6017    0.0000 O   0  0  0  0  0  0  0  0  0  0  0  0
    2.9176    2.4329    0.0000 O   0  0  0  0  0  0  0  0  0  0  0  0
    8.1923    2.4225    0.0000 O   0  0  0  0  0  0  0  0  0  0  0  0
    9.0564   -2.1291    0.0000 O   0  0  0  0  0  0  0  0  0  0  0  0
    7.3244   -2.1225    0.0000 O   0  0  0  0  0  0  0  0  0  0  0  0
    9.9243    2.4292    0.0000 O   0  0  0  0  0  0  0  0  0  0  0  0
    5.5321    0.8983    0.0000 C   0  0  0  0  0  0  0  0  0  0  0  0
    5.5321   -0.1017    0.0000 C   0  0  0  0  0  0  0  0  0  0  0  0
    7.3321   -0.1225    0.0000 C   0  0  0  0  0  0  0  0  0  0  0  0
    7.3321    0.9192    0.0000 C   0  0  0  0  0  0  0  0  0  0  0  0
    6.4260    1.4330    0.0000 C   0  0  0  0  0  0  0  0  0  0  0  0
    6.4260   -0.6363    0.0000 C   0  0  0  0  0  0  0  0  0  0  0  0
    3.8000    0.8983    0.0000 C   0  0  0  0  0  0  0  0  0  0  0  0
    3.8000   -0.1017    0.0000 C   0  0  0  0  0  0  0  0  0  0  0  0
    4.6660    1.3983    0.0000 C   0  0  0  0  0  0  0  0  0  0  0  0
    4.6660   -0.6017    0.0000 C   0  0  0  0  0  0  0  0  0  0  0  0
    8.1962   -0.6258    0.0000 C   0  0  0  0  0  0  0  0  0  0  0  0
    8.1962    1.4225    0.0000 C   0  0  0  0  0  0  0  0  0  0  0  0
    2.9061    1.4330    0.0000 C   0  0  0  0  0  0  0  0  0  0  0  0
    2.9061   -0.6363    0.0000 C   0  0  0  0  0  0  0  0  0  0  0  0
    9.0641    0.9258    0.0000 C   0  0  0  0  0  0  0  0  0  0  0  0
    2.0000    0.9192    0.0000 C   0  0  0  0  0  0  0  0  0  0  0  0
    2.0000   -0.1225    0.0000 C   0  0  0  0  0  0  0  0  0  0  0  0
    8.1923   -1.6258    0.0000 C   0  0  0  0  0  0  0  0  0  0  0  0
    9.9282    1.4292    0.0000 C   0  0  0  0  0  0  0  0  0  0  0  0
   10.7961    0.9325    0.0000 C   0  0  0  0  0  0  0  0  0  0  0  0
    6.4188   -1.2563    0.0000 H   0  0  0  0  0  0  0  0  0  0  0  0
    8.8063   -0.7358    0.0000 H   0  0  0  0  0  0  0  0  0  0  0  0
    8.4105   -0.0440    0.0000 H   0  0  0  0  0  0  0  0  0  0  0  0
    2.9132   -1.2563    0.0000 H   0  0  0  0  0  0  0  0  0  0  0  0
    8.6674    0.4494    0.0000 H   0  0  0  0  0  0  0  0  0  0  0  0
    9.4645    0.4524    0.0000 H   0  0  0  0  0  0  0  0  0  0  0  0
    1.4643    1.2312    0.0000 H   0  0  0  0  0  0  0  0  0  0  0  0
    1.4643   -0.4345    0.0000 H   0  0  0  0  0  0  0  0  0  0  0  0
    6.9478    2.7491    0.0000 H   0  0  0  0  0  0  0  0  0  0  0  0
    2.3843    2.7491    0.0000 H   0  0  0  0  0  0  0  0  0  0  0  0
   10.4882    0.3944    0.0000 H   0  0  0  0  0  0  0  0  0  0  0  0
   11.3343    0.6246    0.0000 H   0  0  0  0  0  0  0  0  0  0  0  0
   11.1041    1.4706    0.0000 H   0  0  0  0  0  0  0  0  0  0  0  0
    9.0540   -2.7491    0.0000 H   0  0  0  0  0  0  0  0  0  0  0  0
  1 13  1  0  0  0  0
  1 37  1  0  0  0  0
  2 17  2  0  0  0  0
  3 18  2  0  0  0  0
  4 21  1  0  0  0  0
  4 38  1  0  0  0  0
  5 20  2  0  0  0  0
  6 26  1  0  0  0  0
  6 42  1  0  0  0  0
  7 26  2  0  0  0  0
  8 27  2  0  0  0  0
  9 10  2  0  0  0  0
  9 13  1  0  0  0  0
  9 17  1  0  0  0  0
 10 14  1  0  0  0  0
 10 18  1  0  0  0  0
 11 12  1  0  0  0  0
 11 14  2  0  0  0  0
 11 19  1  0  0  0  0
 12 13  2  0  0  0  0
 12 20  1  0  0  0  0
 14 29  1  0  0  0  0
 15 16  2  0  0  0  0
 15 17  1  0  0  0  0
 15 21  1  0  0  0  0
 16 18  1  0  0  0  0
 16 22  1  0  0  0  0
 19 26  1  0  0  0  0
 19 30  1  0  0  0  0
 19 31  1  0  0  0  0
 20 23  1  0  0  0  0
 21 24  2  0  0  0  0
 22 25  2  0  0  0  0
 22 32  1  0  0  0  0
 23 27  1  0  0  0  0
 23 33  1  0  0  0  0
 23 34  1  0  0  0  0
 24 25  1  0  0  0  0
 24 35  1  0  0  0  0
 25 36  1  0  0  0  0
 27 28  1  0  0  0  0
 28 39  1  0  0  0  0
 28 40  1  0  0  0  0
 28 41  1  0  0  0  0
M  END
> <PUBCHEM_COMPOUND_CID>
443821

> <PUBCHEM_COMPOUND_CANONICALIZED>
1

> <PUBCHEM_CACTVS_COMPLEXITY>
713

> <PUBCHEM_CACTVS_HBOND_ACCEPTOR>
8

> <PUBCHEM_CACTVS_HBOND_DONOR>
3

> <PUBCHEM_CACTVS_ROTATABLE_BOND>
5

> <PUBCHEM_CACTVS_SUBSKEYS>
AAADccB4PAAAAAAAAAAAAAAAAAAAAAAAAAAwYMAAAAAAAADBQAAAGgAACAAADASAmAAyDoAAAgCIAqDSCAACAAAkIAAIiAEGCMgIJjaKFRKAcUAk4BEImYeL7vTuwAADAAAYAACAAAYAADAAAAAAAAAAAA==

> <PUBCHEM_IUPAC_OPENEYE_NAME>
2-[4,5-dihydroxy-9,10-dioxo-3-(3-oxobutanoyl)-2-anthryl]acetic acid

> <PUBCHEM_IUPAC_CAS_NAME>
2-[3-(1,3-dioxobutyl)-4,5-dihydroxy-9,10-dioxo-2-anthracenyl]acetic acid

> <PUBCHEM_IUPAC_NAME>
2-[4,5-dihydroxy-9,10-dioxo-3-(3-oxobutanoyl)anthracen-2-yl]acetic acid

> <PUBCHEM_IUPAC_SYSTEMATIC_NAME>
2-[4,5-bis(oxidanyl)-9,10-bis(oxidanylidene)-3-(3-oxidanylidenebutanoyl)anthracen-2-yl]ethanoic acid

> <PUBCHEM_IUPAC_TRADITIONAL_NAME>
2-(3-acetoacetyl-4,5-dihydroxy-9,10-diketo-2-anthryl)acetic acid

> <PUBCHEM_IUPAC_INCHI>
InChI=1S/C20H14O8/c1-8(21)5-13(23)15-9(7-14(24)25)6-11-17(19(15)27)20(28)16-10(18(11)26)3-2-4-12(16)22/h2-4,6,22,27H,5,7H2,1H3,(H,24,25)

> <PUBCHEM_IUPAC_INCHIKEY>
WTOVDVFGOSWBFR-UHFFFAOYSA-N

> <PUBCHEM_XLOGP3_AA>
1.7

> <PUBCHEM_EXACT_MASS>
382.068867

> <PUBCHEM_MOLECULAR_FORMULA>
C20H14O8

> <PUBCHEM_MOLECULAR_WEIGHT>
382.32036

> <PUBCHEM_OPENEYE_CAN_SMILES>
CC(=O)CC(=O)C1=C(C=C2C(=C1O)C(=O)C3=C(C2=O)C=CC=C3O)CC(=O)O

> <PUBCHEM_OPENEYE_ISO_SMILES>
CC(=O)CC(=O)C1=C(C=C2C(=C1O)C(=O)C3=C(C2=O)C=CC=C3O)CC(=O)O

> <PUBCHEM_CACTVS_TPSA>
146

> <PUBCHEM_MONOISOTOPIC_WEIGHT>
382.068867

> <PUBCHEM_TOTAL_CHARGE>
0

> <PUBCHEM_HEAVY_ATOM_COUNT>
28

> <PUBCHEM_ATOM_DEF_STEREO_COUNT>
0

> <PUBCHEM_ATOM_UDEF_STEREO_COUNT>
0

> <PUBCHEM_BOND_DEF_STEREO_COUNT>
0

> <PUBCHEM_BOND_UDEF_STEREO_COUNT>
0

> <PUBCHEM_ISOTOPIC_ATOM_COUNT>
0

> <PUBCHEM_COMPONENT_COUNT>
1

> <PUBCHEM_CACTVS_TAUTO_COUNT>
492

> <PUBCHEM_COORDINATE_TYPE>
1
5
255

> <PUBCHEM_BONDANNOTATIONS>
10  14  8
11  12  8
11  14  8
12  13  8
15  16  8
15  21  8
16  22  8
21  24  8
22  25  8
24  25  8
9  10  8
9  13  8

$$$$

