111306
  -OEChem-07051213152D

 18 18  0     1  0  0  0  0  0999 V2000
    4.7770   -1.1269    0.0000 O   0  0  0  0  0  0  0  0  0  0  0  0
    2.8090   -0.4275    0.0000 N   0  0  0  0  0  0  0  0  0  0  0  0
    5.3122    0.5204    0.0000 N   0  0  0  0  0  0  0  0  0  0  0  0
    3.6180    0.1603    0.0000 C   0  0  1  0  0  0  0  0  0  0  0  0
    3.3090    1.1114    0.0000 C   0  0  0  0  0  0  0  0  0  0  0  0
    2.3090    1.1114    0.0000 C   0  0  0  0  0  0  0  0  0  0  0  0
    2.0000    0.1603    0.0000 C   0  0  0  0  0  0  0  0  0  0  0  0
    4.5691   -0.1487    0.0000 C   0  0  0  0  0  0  0  0  0  0  0  0
    3.7150   -0.4521    0.0000 H   0  0  0  0  0  0  0  0  0  0  0  0
    3.9155    1.2403    0.0000 H   0  0  0  0  0  0  0  0  0  0  0  0
    3.2442    1.7280    0.0000 H   0  0  0  0  0  0  0  0  0  0  0  0
    2.3738    1.7280    0.0000 H   0  0  0  0  0  0  0  0  0  0  0  0
    1.7026    1.2403    0.0000 H   0  0  0  0  0  0  0  0  0  0  0  0
    1.4336    0.4125    0.0000 H   0  0  0  0  0  0  0  0  0  0  0  0
    1.6900   -0.3766    0.0000 H   0  0  0  0  0  0  0  0  0  0  0  0
    2.8090   -1.0475    0.0000 H   0  0  0  0  0  0  0  0  0  0  0  0
    5.9019    0.3288    0.0000 H   0  0  0  0  0  0  0  0  0  0  0  0
    5.1833    1.1269    0.0000 H   0  0  0  0  0  0  0  0  0  0  0  0
  1  8  2  0  0  0  0
  2  4  1  0  0  0  0
  2  7  1  0  0  0  0
  2 16  1  0  0  0  0
  3  8  1  0  0  0  0
  3 17  1  0  0  0  0
  3 18  1  0  0  0  0
  4  5  1  0  0  0  0
  4  8  1  1  0  0  0
  4  9  1  0  0  0  0
  5  6  1  0  0  0  0
  5 10  1  0  0  0  0
  5 11  1  0  0  0  0
  6  7  1  0  0  0  0
  6 12  1  0  0  0  0
  6 13  1  0  0  0  0
  7 14  1  0  0  0  0
  7 15  1  0  0  0  0
M  END
> <PUBCHEM_COMPOUND_CID>
111306

> <PUBCHEM_COMPOUND_CANONICALIZED>
1

> <PUBCHEM_CACTVS_COMPLEXITY>
103

> <PUBCHEM_CACTVS_HBOND_ACCEPTOR>
2

> <PUBCHEM_CACTVS_HBOND_DONOR>
2

> <PUBCHEM_CACTVS_ROTATABLE_BOND>
1

> <PUBCHEM_CACTVS_SUBSKEYS>
AAADccBjIAAAAAAAAAAAAAAAAAAAAWAAAAAAAAAAAAAAAAAAAAAAHgAQAAAACCjBgAQAAALAAAAIAAEQEAAAAAAAAAAAAIGIAAAAQBIAgCAUAAAAEACAAAAYAQAAAAAAAAAAAAAAAAAAAAAAAAAAAAAAAA==

> <PUBCHEM_IUPAC_OPENEYE_NAME>
(2S)-pyrrolidine-2-carboxamide

> <PUBCHEM_IUPAC_CAS_NAME>
(2S)-2-pyrrolidinecarboxamide

> <PUBCHEM_IUPAC_NAME>
(2S)-pyrrolidine-2-carboxamide

> <PUBCHEM_IUPAC_SYSTEMATIC_NAME>
(2S)-pyrrolidine-2-carboxamide

> <PUBCHEM_IUPAC_TRADITIONAL_NAME>
(2S)-pyrrolidine-2-carboxamide

> <PUBCHEM_IUPAC_INCHI>
InChI=1S/C5H10N2O/c6-5(8)4-2-1-3-7-4/h4,7H,1-3H2,(H2,6,8)/t4-/m0/s1

> <PUBCHEM_IUPAC_INCHIKEY>
VLJNHYLEOZPXFW-BYPYZUCNSA-N

> <PUBCHEM_XLOGP3>
-0.9

> <PUBCHEM_EXACT_MASS>
114.079313

> <PUBCHEM_MOLECULAR_FORMULA>
C5H10N2O

> <PUBCHEM_MOLECULAR_WEIGHT>
114.1457

> <PUBCHEM_OPENEYE_CAN_SMILES>
C1CC(NC1)C(=O)N

> <PUBCHEM_OPENEYE_ISO_SMILES>
C1C[C@H](NC1)C(=O)N

> <PUBCHEM_CACTVS_TPSA>
55.1

> <PUBCHEM_MONOISOTOPIC_WEIGHT>
114.079313

> <PUBCHEM_TOTAL_CHARGE>
0

> <PUBCHEM_HEAVY_ATOM_COUNT>
8

> <PUBCHEM_ATOM_DEF_STEREO_COUNT>
1

> <PUBCHEM_ATOM_UDEF_STEREO_COUNT>
0

> <PUBCHEM_BOND_DEF_STEREO_COUNT>
0

> <PUBCHEM_BOND_UDEF_STEREO_COUNT>
0

> <PUBCHEM_ISOTOPIC_ATOM_COUNT>
0

> <PUBCHEM_COMPONENT_COUNT>
1

> <PUBCHEM_CACTVS_TAUTO_COUNT>
3

> <PUBCHEM_COORDINATE_TYPE>
1
5
255

> <PUBCHEM_BONDANNOTATIONS>
4  8  5

$$$$

