   Color/Form
        Crystals from ethanol
   from [1]HSDB

   Melting Point
        110-115 deg C
   from [2]HSDB

   Dissociation Constants
        pKa1 = 2.70 (amine); pKa2 = 3.57 (carboxylic acid); pKa3 = 7.56
   (amine) (est)
   from [3]HSDB

   Octanol/Water Partition Coefficient
        log Kow = 1.70
   from [4]HSDB

   Solubilities
        In water, 6.96X10+4 mg/L at 25 deg C (est)
   from [5]HSDB

   Vapor Pressure
        2.98X10-11 mm Hg at 25 deg C (est)
   from [6]HSDB

   Other Chemical/Physical Properties

     * Crystals from isopropanol; mw 461.81; mp 225 deg C. Soluble in
       water /Cetirizine dihydrochloride/
     * MP 229.3 deg C. Specific optical rotation: -12.79 deg at 25 deg C/D
       (c = 1 in water) /Cetirizine (R)-form dihydrochloride/
     * Henry's Law constant = 4.19X10-17 cu cm/molec-sec at 25 deg C (est)
     * Hydroxyl radical reaction rate constant = 2.41X10-10 cu
       cm/molec-sec at 25 deg C (est)

   from [7]HSDB

   Computed Properties
   Molecular Weight                  388.8878 [g/mol]
   Molecular Formula                 C[21]H[25]ClN[2]O[3]
   XLogP3                            1.7
   H-Bond Donor                      1
   H-Bond Acceptor                   5
   Rotatable Bond Count              8
   Exact Mass                        388.15537
   MonoIsotopic Mass                 388.15537
   Topological Polar Surface Area    53
   Heavy Atom Count                  27
   Formal Charge                     0
   Complexity                        443
   Isotope Atom Count                0
   Defined Atom Stereocenter Count   0
   Undefined Atom Stereocenter Count 1
   Defined Bond Stereocenter Count   0
   Undefined Bond Stereocenter Count 0
   Covalently-Bonded Unit Count      1
   Feature 3D Acceptor Count         3
   Feature 3D Anion Count            1
   Feature 3D Cation Count           2
   Feature 3D Ring Count             3
   Effective Rotor Count             9.2
   Conformer Sampling RMSD           1
   CID Conformer Count               [8]64

References

   1. http://toxnet.nlm.nih.gov/cgi-bin/sis/search/r?dbs+hsdb:@term+@rn+@rel+83881-51-0
   2. http://toxnet.nlm.nih.gov/cgi-bin/sis/search/r?dbs+hsdb:@term+@rn+@rel+83881-51-0
   3. http://toxnet.nlm.nih.gov/cgi-bin/sis/search/r?dbs+hsdb:@term+@rn+@rel+83881-51-0
   4. http://toxnet.nlm.nih.gov/cgi-bin/sis/search/r?dbs+hsdb:@term+@rn+@rel+83881-51-0
   5. http://toxnet.nlm.nih.gov/cgi-bin/sis/search/r?dbs+hsdb:@term+@rn+@rel+83881-51-0
   6. http://toxnet.nlm.nih.gov/cgi-bin/sis/search/r?dbs+hsdb:@term+@rn+@rel+83881-51-0
   7. http://toxnet.nlm.nih.gov/cgi-bin/sis/search/r?dbs+hsdb:@term+@rn+@rel+83881-51-0
   8. http://pubchem.ncbi.nlm.nih.gov/vw3d/vw3d.cgi?cid=2678
