   Color/Form
        COLORLESS CRYSTALS
   from [1]HSDB

   Melting Point
        174-176 DEG C, RE-SOLIDIFIES & MELTS AGAIN @ 185-187 DEG C
   from [2]HSDB

   Corrosivity
        NON-CORROSIVE
   from [3]HSDB

   Solubilities
        AT 20 DEG C: 0.02 MG/L IN WATER; AT 20 DEG C (G/L): CARBON
   TETRACHLORIDE 300; CHLOROFORM 450; TETRACHLOROETHYLENE 255
   from [4]HSDB

   Spectral Properties
        Intense mass spectral peaks: 243 m/z (100%), 165 m/z (62%), 244
   m/z (34%), 166 m/z (11%)
   from [5]HSDB

   Vapor Pressure
        1.4X10-7 MM HG @ 20 DEG C
   from [6]HSDB

   Other Chemical/Physical Properties

     * LIGHT BROWN CRYSTALS, 90-95% PURE, MELTING @ 150 TO 170 DEG C,
       RE-SOLIDIFYING & MELTING AGAIN AT 170-185 DEG C /TECHNICAL GRADE/
     * Water solubility 0.02 ppm. /Trifenmorph/

   from [7]HSDB

   Computed Properties
   Molecular Weight                  329.43482 [g/mol]
   Molecular Formula                 C[23]H[23]NO
   XLogP3-AA                         4.6
   H-Bond Donor                      0
   H-Bond Acceptor                   2
   Rotatable Bond Count              4
   Exact Mass                        329.177964
   MonoIsotopic Mass                 329.177964
   Topological Polar Surface Area    12.5
   Heavy Atom Count                  25
   Formal Charge                     0
   Complexity                        339
   Isotope Atom Count                0
   Defined Atom Stereocenter Count   0
   Undefined Atom Stereocenter Count 0
   Defined Bond Stereocenter Count   0
   Undefined Bond Stereocenter Count 0
   Covalently-Bonded Unit Count      1
   Feature 3D Acceptor Count         1
   Feature 3D Cation Count           1
   Feature 3D Ring Count             4
   Effective Rotor Count             5.2
   Conformer Sampling RMSD           0.8
   CID Conformer Count               [8]1

References

   1. http://toxnet.nlm.nih.gov/cgi-bin/sis/search/r?dbs+hsdb:@term+@rn+@rel+1420-06-0
   2. http://toxnet.nlm.nih.gov/cgi-bin/sis/search/r?dbs+hsdb:@term+@rn+@rel+1420-06-0
   3. http://toxnet.nlm.nih.gov/cgi-bin/sis/search/r?dbs+hsdb:@term+@rn+@rel+1420-06-0
   4. http://toxnet.nlm.nih.gov/cgi-bin/sis/search/r?dbs+hsdb:@term+@rn+@rel+1420-06-0
   5. http://toxnet.nlm.nih.gov/cgi-bin/sis/search/r?dbs+hsdb:@term+@rn+@rel+1420-06-0
   6. http://toxnet.nlm.nih.gov/cgi-bin/sis/search/r?dbs+hsdb:@term+@rn+@rel+1420-06-0
   7. http://toxnet.nlm.nih.gov/cgi-bin/sis/search/r?dbs+hsdb:@term+@rn+@rel+1420-06-0
   8. http://pubchem.ncbi.nlm.nih.gov/vw3d/vw3d.cgi?cid=14993
