98570
  -OEChem-07051212462D

 50 53  0     1  0  0  0  0  0999 V2000
    2.0000   -2.1712    0.0000 O   0  0  0  0  0  0  0  0  0  0  0  0
    3.4519   -3.0094    0.0000 O   0  0  0  0  0  0  0  0  0  0  0  0
    8.0322    2.6068    0.0000 O   0  0  0  0  0  0  0  0  0  0  0  0
    6.2838    0.5722    0.0000 O   0  0  0  0  0  0  0  0  0  0  0  0
    9.8139    1.5963    0.0000 O   0  0  0  0  0  0  0  0  0  0  0  0
    5.4178    1.0722    0.0000 N   0  0  3  0  0  0  0  0  0  0  0  0
    4.5518    1.5722    0.0000 C   0  0  0  0  0  0  0  0  0  0  0  0
    3.6857    1.0722    0.0000 C   0  0  0  0  0  0  0  0  0  0  0  0
    6.2838    1.5722    0.0000 C   0  0  0  0  0  0  0  0  0  0  0  0
    3.6857    0.0722    0.0000 C   0  0  0  0  0  0  0  0  0  0  0  0
    7.1498    1.0722    0.0000 C   0  0  0  0  0  0  0  0  0  0  0  0
    7.1498    0.0722    0.0000 C   0  0  0  0  0  0  0  0  0  0  0  0
    4.5518   -0.4278    0.0000 C   0  0  0  0  0  0  0  0  0  0  0  0
    6.2838   -0.4278    0.0000 C   0  0  0  0  0  0  0  0  0  0  0  0
    5.4178    0.0722    0.0000 C   0  0  0  0  0  0  0  0  0  0  0  0
    2.7757   -0.4347    0.0000 C   0  0  0  0  0  0  0  0  0  0  0  0
    8.0438    1.6068    0.0000 C   0  0  0  0  0  0  0  0  0  0  0  0
    4.5678   -1.4694    0.0000 C   0  0  0  0  0  0  0  0  0  0  0  0
    4.5518    0.5721    0.0000 C   0  0  0  0  0  0  0  0  0  0  0  0
    2.7677   -1.4763    0.0000 C   0  0  0  0  0  0  0  0  0  0  0  0
    3.6698   -1.9971    0.0000 C   0  0  0  0  0  0  0  0  0  0  0  0
    8.0438   -0.4625    0.0000 C   0  0  0  0  0  0  0  0  0  0  0  0
    8.9498    1.0930    0.0000 C   0  0  0  0  0  0  0  0  0  0  0  0
    8.9498    0.0513    0.0000 C   0  0  0  0  0  0  0  0  0  0  0  0
    2.4220   -3.1167    0.0000 C   0  0  0  0  0  0  0  0  0  0  0  0
    8.8924    3.1167    0.0000 C   0  0  0  0  0  0  0  0  0  0  0  0
   10.6819    1.0996    0.0000 C   0  0  0  0  0  0  0  0  0  0  0  0
    4.9503    2.0471    0.0000 H   0  0  0  0  0  0  0  0  0  0  0  0
    4.1532    2.0471    0.0000 H   0  0  0  0  0  0  0  0  0  0  0  0
    3.4737    1.6548    0.0000 H   0  0  0  0  0  0  0  0  0  0  0  0
    3.0752    0.9645    0.0000 H   0  0  0  0  0  0  0  0  0  0  0  0
    6.6823    2.0471    0.0000 H   0  0  0  0  0  0  0  0  0  0  0  0
    5.8853    2.0471    0.0000 H   0  0  0  0  0  0  0  0  0  0  0  0
    5.8853   -0.9028    0.0000 H   0  0  0  0  0  0  0  0  0  0  0  0
    6.6823   -0.9028    0.0000 H   0  0  0  0  0  0  0  0  0  0  0  0
    2.2424   -0.1185    0.0000 H   0  0  0  0  0  0  0  0  0  0  0  0
    5.1083   -1.7731    0.0000 H   0  0  0  0  0  0  0  0  0  0  0  0
    4.2418    1.1090    0.0000 H   0  0  0  0  0  0  0  0  0  0  0  0
    4.0149    0.2620    0.0000 H   0  0  0  0  0  0  0  0  0  0  0  0
    4.8619    0.0352    0.0000 H   0  0  0  0  0  0  0  0  0  0  0  0
    8.0366   -1.0825    0.0000 H   0  0  0  0  0  0  0  0  0  0  0  0
    9.4856   -0.2607    0.0000 H   0  0  0  0  0  0  0  0  0  0  0  0
    1.8324   -3.3085    0.0000 H   0  0  0  0  0  0  0  0  0  0  0  0
    2.5507   -3.7232    0.0000 H   0  0  0  0  0  0  0  0  0  0  0  0
    9.2086    2.5834    0.0000 H   0  0  0  0  0  0  0  0  0  0  0  0
    9.4257    3.4329    0.0000 H   0  0  0  0  0  0  0  0  0  0  0  0
    8.5762    3.6500    0.0000 H   0  0  0  0  0  0  0  0  0  0  0  0
   10.3740    0.5615    0.0000 H   0  0  0  0  0  0  0  0  0  0  0  0
   11.2200    0.7917    0.0000 H   0  0  0  0  0  0  0  0  0  0  0  0
   10.9898    1.6378    0.0000 H   0  0  0  0  0  0  0  0  0  0  0  0
  1 20  1  0  0  0  0
  1 25  1  0  0  0  0
  2 21  1  0  0  0  0
  2 25  1  0  0  0  0
  3 17  1  0  0  0  0
  3 26  1  0  0  0  0
  4 15  2  0  0  0  0
  5 23  1  0  0  0  0
  5 27  1  0  0  0  0
  6  7  1  0  0  0  0
  6  9  1  0  0  0  0
  6 19  1  0  0  0  0
  7  8  1  0  0  0  0
  7 28  1  0  0  0  0
  7 29  1  0  0  0  0
  8 10  1  0  0  0  0
  8 30  1  0  0  0  0
  8 31  1  0  0  0  0
  9 11  1  0  0  0  0
  9 32  1  0  0  0  0
  9 33  1  0  0  0  0
 10 13  1  0  0  0  0
 10 16  2  0  0  0  0
 11 12  2  0  0  0  0
 11 17  1  0  0  0  0
 12 14  1  0  0  0  0
 12 22  1  0  0  0  0
 13 15  1  0  0  0  0
 13 18  2  0  0  0  0
 14 15  1  0  0  0  0
 14 34  1  0  0  0  0
 14 35  1  0  0  0  0
 16 20  1  0  0  0  0
 16 36  1  0  0  0  0
 17 23  2  0  0  0  0
 18 21  1  0  0  0  0
 18 37  1  0  0  0  0
 19 38  1  0  0  0  0
 19 39  1  0  0  0  0
 19 40  1  0  0  0  0
 20 21  2  0  0  0  0
 22 24  2  0  0  0  0
 22 41  1  0  0  0  0
 23 24  1  0  0  0  0
 24 42  1  0  0  0  0
 25 43  1  0  0  0  0
 25 44  1  0  0  0  0
 26 45  1  0  0  0  0
 26 46  1  0  0  0  0
 26 47  1  0  0  0  0
 27 48  1  0  0  0  0
 27 49  1  0  0  0  0
 27 50  1  0  0  0  0
M  END
> <PUBCHEM_COMPOUND_CID>
98570

> <PUBCHEM_COMPOUND_CANONICALIZED>
1

> <PUBCHEM_CACTVS_COMPLEXITY>
529

> <PUBCHEM_CACTVS_HBOND_ACCEPTOR>
6

> <PUBCHEM_CACTVS_HBOND_DONOR>
0

> <PUBCHEM_CACTVS_ROTATABLE_BOND>
2

> <PUBCHEM_CACTVS_SUBSKEYS>
AAADceB6OAAAAAAAAAAAAAAAAAAAASAAAAAwYAAAAAAAAEixQAAAHgAAAAAADATBmAcyDoMABACIAqBSAACCCAAkIAAIiAEOjMgdJjKEtRukMSpmwBGOqYe63fLOoAABAAAYQABAAAIAADCAAAAAAAAAAA==

> <PUBCHEM_IUPAC_INCHI>
InChI=1S/C21H23NO5/c1-22-7-6-14-9-19-20(27-12-26-19)10-15(14)17(23)8-13-4-5-18(24-2)21(25-3)16(13)11-22/h4-5,9-10H,6-8,11-12H2,1-3H3

> <PUBCHEM_IUPAC_INCHIKEY>
HYBRYAPKQCZIAE-UHFFFAOYSA-N

> <PUBCHEM_XLOGP3_AA>
2.9

> <PUBCHEM_EXACT_MASS>
369.157623

> <PUBCHEM_MOLECULAR_FORMULA>
C21H23NO5

> <PUBCHEM_MOLECULAR_WEIGHT>
369.41102

> <PUBCHEM_OPENEYE_CAN_SMILES>
CN1CCC2=CC3=C(C=C2C(=O)CC4=C(C1)C(=C(C=C4)OC)OC)OCO3

> <PUBCHEM_OPENEYE_ISO_SMILES>
CN1CCC2=CC3=C(C=C2C(=O)CC4=C(C1)C(=C(C=C4)OC)OC)OCO3

> <PUBCHEM_CACTVS_TPSA>
57.2

> <PUBCHEM_MONOISOTOPIC_WEIGHT>
369.157623

> <PUBCHEM_TOTAL_CHARGE>
0

> <PUBCHEM_HEAVY_ATOM_COUNT>
27

> <PUBCHEM_ATOM_DEF_STEREO_COUNT>
0

> <PUBCHEM_ATOM_UDEF_STEREO_COUNT>
0

> <PUBCHEM_BOND_DEF_STEREO_COUNT>
0

> <PUBCHEM_BOND_UDEF_STEREO_COUNT>
0

> <PUBCHEM_ISOTOPIC_ATOM_COUNT>
0

> <PUBCHEM_COMPONENT_COUNT>
1

> <PUBCHEM_CACTVS_TAUTO_COUNT>
2

> <PUBCHEM_COORDINATE_TYPE>
1
5
255

> <PUBCHEM_BONDANNOTATIONS>
10  13  8
10  16  8
11  12  8
11  17  8
12  22  8
13  18  8
16  20  8
17  23  8
18  21  8
20  21  8
22  24  8
23  24  8

$$$$

