14156
  -OEChem-06241222422D

 37 37  0     1  0  0  0  0  0999 V2000
    4.1840    0.0000    0.0000 Cl  0  5  0  0  0  0  0  0  0  0  0  0
    3.1350    2.8100    0.0000 O   0  0  0  0  0  0  0  0  0  0  0  0
    4.0010    5.3100    0.0000 O   0  0  0  0  0  0  0  0  0  0  0  0
    6.5991    3.8100    0.0000 N   0  3  0  0  0  0  0  0  0  0  0  0
    4.8671    3.8100    0.0000 N   0  0  0  0  0  0  0  0  0  0  0  0
    3.1350    3.8100    0.0000 C   0  0  3  0  0  0  0  0  0  0  0  0
    5.7331    4.3100    0.0000 C   0  0  0  0  0  0  0  0  0  0  0  0
    7.4651    4.3100    0.0000 C   0  0  0  0  0  0  0  0  0  0  0  0
    6.5991    5.8100    0.0000 C   0  0  0  0  0  0  0  0  0  0  0  0
    2.2690    4.3100    0.0000 C   0  0  0  0  0  0  0  0  0  0  0  0
    5.7331    5.3100    0.0000 C   0  0  0  0  0  0  0  0  0  0  0  0
    4.0010    4.3100    0.0000 C   0  0  0  0  0  0  0  0  0  0  0  0
    7.4651    5.3100    0.0000 C   0  0  0  0  0  0  0  0  0  0  0  0
    2.2690    5.3100    0.0000 C   0  0  0  0  0  0  0  0  0  0  0  0
    1.4030    3.8100    0.0000 C   0  0  0  0  0  0  0  0  0  0  0  0
    8.3312    3.8100    0.0000 C   0  0  0  0  0  0  0  0  0  0  0  0
    6.5991    6.8100    0.0000 C   0  0  0  0  0  0  0  0  0  0  0  0
    1.4030    5.8100    0.0000 C   0  0  0  0  0  0  0  0  0  0  0  0
    0.5369    4.3100    0.0000 C   0  0  0  0  0  0  0  0  0  0  0  0
    0.5369    5.3100    0.0000 C   0  0  0  0  0  0  0  0  0  0  0  0
    3.6720    3.5000    0.0000 H   0  0  0  0  0  0  0  0  0  0  0  0
    6.5991    3.1900    0.0000 H   0  0  0  0  0  0  0  0  0  0  0  0
    5.1962    5.6200    0.0000 H   0  0  0  0  0  0  0  0  0  0  0  0
    4.8671    3.1900    0.0000 H   0  0  0  0  0  0  0  0  0  0  0  0
    8.0021    5.6200    0.0000 H   0  0  0  0  0  0  0  0  0  0  0  0
    2.8059    5.6200    0.0000 H   0  0  0  0  0  0  0  0  0  0  0  0
    1.4030    3.1900    0.0000 H   0  0  0  0  0  0  0  0  0  0  0  0
    8.0212    3.2731    0.0000 H   0  0  0  0  0  0  0  0  0  0  0  0
    8.8681    3.5000    0.0000 H   0  0  0  0  0  0  0  0  0  0  0  0
    8.6412    4.3469    0.0000 H   0  0  0  0  0  0  0  0  0  0  0  0
    7.2191    6.8100    0.0000 H   0  0  0  0  0  0  0  0  0  0  0  0
    6.5991    7.4300    0.0000 H   0  0  0  0  0  0  0  0  0  0  0  0
    5.9791    6.8100    0.0000 H   0  0  0  0  0  0  0  0  0  0  0  0
    1.4030    6.4300    0.0000 H   0  0  0  0  0  0  0  0  0  0  0  0
    0.0000    4.0000    0.0000 H   0  0  0  0  0  0  0  0  0  0  0  0
    0.0000    5.6200    0.0000 H   0  0  0  0  0  0  0  0  0  0  0  0
    2.5981    2.5000    0.0000 H   0  0  0  0  0  0  0  0  0  0  0  0
  2  6  1  0  0  0  0
  2 37  1  0  0  0  0
  3 12  2  0  0  0  0
  4  7  1  0  0  0  0
  4  8  2  0  0  0  0
  4 22  1  0  0  0  0
  5  7  1  0  0  0  0
  5 12  1  0  0  0  0
  5 24  1  0  0  0  0
  6 10  1  0  0  0  0
  6 12  1  0  0  0  0
  6 21  1  0  0  0  0
  7 11  2  0  0  0  0
  8 13  1  0  0  0  0
  8 16  1  0  0  0  0
  9 11  1  0  0  0  0
  9 13  2  0  0  0  0
  9 17  1  0  0  0  0
 10 14  2  0  0  0  0
 10 15  1  0  0  0  0
 11 23  1  0  0  0  0
 13 25  1  0  0  0  0
 14 18  1  0  0  0  0
 14 26  1  0  0  0  0
 15 19  2  0  0  0  0
 15 27  1  0  0  0  0
 16 28  1  0  0  0  0
 16 29  1  0  0  0  0
 16 30  1  0  0  0  0
 17 31  1  0  0  0  0
 17 32  1  0  0  0  0
 17 33  1  0  0  0  0
 18 20  2  0  0  0  0
 18 34  1  0  0  0  0
 19 20  1  0  0  0  0
 19 35  1  0  0  0  0
 20 36  1  0  0  0  0
M  CHG  2   1  -1   4   1
M  END
> <PUBCHEM_COMPOUND_CID>
14156

> <PUBCHEM_COMPOUND_CANONICALIZED>
1

> <PUBCHEM_CACTVS_COMPLEXITY>
303

> <PUBCHEM_CACTVS_HBOND_ACCEPTOR>
3

> <PUBCHEM_CACTVS_HBOND_DONOR>
3

> <PUBCHEM_CACTVS_ROTATABLE_BOND>
3

> <PUBCHEM_CACTVS_SUBSKEYS>
AAADceBzMAAEAAAAAAAAAAAAAAAAAAAAAAA8QAAAAAAAAAABwAAAHgAQCAAADByhngIzsJLJkgCoAydydAKCgCmhAiAJmSFwbJiKNnLAnZGEcAhs1QPY2CeYyKCOAAAAAAAAAAAAAAAAAAAAAAAAAAAAAA==

> <PUBCHEM_IUPAC_OPENEYE_NAME>
N-(4,6-dimethylpyridin-1-ium-2-yl)-2-hydroxy-2-phenyl-acetamide chloride

> <PUBCHEM_IUPAC_CAS_NAME>
N-(4,6-dimethyl-2-pyridin-1-iumyl)-2-hydroxy-2-phenylacetamide chloride

> <PUBCHEM_IUPAC_NAME>
N-(4,6-dimethylpyridin-1-ium-2-yl)-2-hydroxy-2-phenylacetamide chloride

> <PUBCHEM_IUPAC_SYSTEMATIC_NAME>
N-(4,6-dimethylpyridin-1-ium-2-yl)-2-oxidanyl-2-phenyl-ethanamide chloride

> <PUBCHEM_IUPAC_TRADITIONAL_NAME>
N-(4,6-dimethylpyridin-1-ium-2-yl)-2-hydroxy-2-phenyl-acetamide chloride

> <PUBCHEM_IUPAC_INCHI>
InChI=1S/C15H16N2O2.ClH/c1-10-8-11(2)16-13(9-10)17-15(19)14(18)12-6-4-3-5-7-12;/h3-9,14,18H,1-2H3,(H,16,17,19);1H

> <PUBCHEM_IUPAC_INCHIKEY>
FBVZCGFKNFUCMS-UHFFFAOYSA-N

> <PUBCHEM_EXACT_MASS>
292.097855

> <PUBCHEM_MOLECULAR_FORMULA>
C15H17ClN2O2

> <PUBCHEM_MOLECULAR_WEIGHT>
292.76068

> <PUBCHEM_OPENEYE_CAN_SMILES>
CC1=CC(=[NH+]C(=C1)NC(=O)C(C2=CC=CC=C2)O)C.[Cl-]

> <PUBCHEM_OPENEYE_ISO_SMILES>
CC1=CC(=[NH+]C(=C1)NC(=O)C(C2=CC=CC=C2)O)C.[Cl-]

> <PUBCHEM_CACTVS_TPSA>
63.5

> <PUBCHEM_MONOISOTOPIC_WEIGHT>
292.097855

> <PUBCHEM_TOTAL_CHARGE>
0

> <PUBCHEM_HEAVY_ATOM_COUNT>
20

> <PUBCHEM_ATOM_DEF_STEREO_COUNT>
0

> <PUBCHEM_ATOM_UDEF_STEREO_COUNT>
1

> <PUBCHEM_BOND_DEF_STEREO_COUNT>
0

> <PUBCHEM_BOND_UDEF_STEREO_COUNT>
0

> <PUBCHEM_ISOTOPIC_ATOM_COUNT>
0

> <PUBCHEM_COMPONENT_COUNT>
2

> <PUBCHEM_CACTVS_TAUTO_COUNT>
14

> <PUBCHEM_COORDINATE_TYPE>
1
5
255

> <PUBCHEM_BONDANNOTATIONS>
10  14  8
10  15  8
14  18  8
15  19  8
18  20  8
19  20  8
6  2  3
4  7  8
4  8  8
7  11  8
8  13  8
9  11  8
9  13  8

$$$$

