   Melting Point
        124.5 deg C
   from [1]HSDB

   Dissociation Constants
        pKa = 1.84 (est)
   from [2]HSDB

   Octanol/Water Partition Coefficient
        log Kow = 2.71 (est)
   from [3]HSDB

   Solubilities

     * Soluble in ethyl ether
     * In water, 7.7X10+3 mg/L at 22 deg C

   from [4]HSDB

   Spectral Properties
        MASS: 59673 (NIST/EPA/MSDC Mass Spectral database, 1990 version);
   4531 (National Bureau of Standards)
   from [5]HSDB

   Vapor Pressure
        5.5X10-4 mm Hg at 25 deg C
   from [6]HSDB

   Other Chemical/Physical Properties

     * Henry's Law constant = 2.12X10-8 atm-cu m/mol at 25 deg C (est)
     * Hydroxyl radical reaction rate constant = 1.43X10-13 cu cm/molec
       sec at 25 deg C (est)

   from [7]HSDB

   Computed Properties
   Molecular Weight                  225.45652 [g/mol]
   Molecular Formula                 C[7]H[3]Cl[3]O[2]
   XLogP3                            2.9
   H-Bond Donor                      1
   H-Bond Acceptor                   2
   Rotatable Bond Count              1
   Exact Mass                        223.919862
   MonoIsotopic Mass                 223.919862
   Topological Polar Surface Area    37.3
   Heavy Atom Count                  12
   Formal Charge                     0
   Complexity                        186
   Isotope Atom Count                0
   Defined Atom Stereocenter Count   0
   Undefined Atom Stereocenter Count 0
   Defined Bond Stereocenter Count   0
   Undefined Bond Stereocenter Count 0
   Covalently-Bonded Unit Count      1
   Feature 3D Acceptor Count         2
   Feature 3D Anion Count            1
   Feature 3D Ring Count             1
   Effective Rotor Count             1
   Conformer Sampling RMSD           0.4
   CID Conformer Count               [8]1

References

   1. http://toxnet.nlm.nih.gov/cgi-bin/sis/search/r?dbs+hsdb:@term+@rn+@rel+50-31-7
   2. http://toxnet.nlm.nih.gov/cgi-bin/sis/search/r?dbs+hsdb:@term+@rn+@rel+50-31-7
   3. http://toxnet.nlm.nih.gov/cgi-bin/sis/search/r?dbs+hsdb:@term+@rn+@rel+50-31-7
   4. http://toxnet.nlm.nih.gov/cgi-bin/sis/search/r?dbs+hsdb:@term+@rn+@rel+50-31-7
   5. http://toxnet.nlm.nih.gov/cgi-bin/sis/search/r?dbs+hsdb:@term+@rn+@rel+50-31-7
   6. http://toxnet.nlm.nih.gov/cgi-bin/sis/search/r?dbs+hsdb:@term+@rn+@rel+50-31-7
   7. http://toxnet.nlm.nih.gov/cgi-bin/sis/search/r?dbs+hsdb:@term+@rn+@rel+50-31-7
   8. http://pubchem.ncbi.nlm.nih.gov/vw3d/vw3d.cgi?cid=5759
