92350
  -OEChem-07051213132D

 30 31  0     1  0  0  0  0  0999 V2000
    5.4921   -3.5194    0.0000 Cl  0  0  0  0  0  0  0  0  0  0  0  0
    2.0280   -3.5194    0.0000 Cl  0  0  0  0  0  0  0  0  0  0  0  0
    3.2601    1.0194    0.0000 O   0  0  0  0  0  0  0  0  0  0  0  0
    3.3940    2.5194    0.0000 O   0  0  0  0  0  0  0  0  0  0  0  0
    5.5202   -0.2407    0.0000 O   0  0  0  0  0  0  0  0  0  0  0  0
    2.0000   -0.2407    0.0000 O   0  0  0  0  0  0  0  0  0  0  0  0
    3.7601   -0.5194    0.0000 N   0  0  0  0  0  0  0  0  0  0  0  0
    4.2601    1.0194    0.0000 C   0  0  3  0  0  0  0  0  0  0  0  0
    4.5691    0.0684    0.0000 C   0  0  0  0  0  0  0  0  0  0  0  0
    4.2601    2.0194    0.0000 C   0  0  0  0  0  0  0  0  0  0  0  0
    5.2111    1.3284    0.0000 C   0  0  0  0  0  0  0  0  0  0  0  0
    2.9511    0.0684    0.0000 C   0  0  0  0  0  0  0  0  0  0  0  0
    3.7601   -1.5194    0.0000 C   0  0  0  0  0  0  0  0  0  0  0  0
    2.8940   -2.0194    0.0000 C   0  0  0  0  0  0  0  0  0  0  0  0
    4.6261   -2.0194    0.0000 C   0  0  0  0  0  0  0  0  0  0  0  0
    4.6261   -3.0194    0.0000 C   0  0  0  0  0  0  0  0  0  0  0  0
    2.8940   -3.0194    0.0000 C   0  0  0  0  0  0  0  0  0  0  0  0
    3.3940    3.5194    0.0000 C   0  0  0  0  0  0  0  0  0  0  0  0
    3.7601   -3.5194    0.0000 C   0  0  0  0  0  0  0  0  0  0  0  0
    4.8707    1.9118    0.0000 H   0  0  0  0  0  0  0  0  0  0  0  0
    4.4721    2.6020    0.0000 H   0  0  0  0  0  0  0  0  0  0  0  0
    5.4027    0.7388    0.0000 H   0  0  0  0  0  0  0  0  0  0  0  0
    5.8008    1.5200    0.0000 H   0  0  0  0  0  0  0  0  0  0  0  0
    5.0195    1.9181    0.0000 H   0  0  0  0  0  0  0  0  0  0  0  0
    2.3571   -1.7094    0.0000 H   0  0  0  0  0  0  0  0  0  0  0  0
    5.1630   -1.7094    0.0000 H   0  0  0  0  0  0  0  0  0  0  0  0
    4.0140    3.5194    0.0000 H   0  0  0  0  0  0  0  0  0  0  0  0
    3.3940    4.1394    0.0000 H   0  0  0  0  0  0  0  0  0  0  0  0
    2.7740    3.5194    0.0000 H   0  0  0  0  0  0  0  0  0  0  0  0
    3.7601   -4.1394    0.0000 H   0  0  0  0  0  0  0  0  0  0  0  0
  1 16  1  0  0  0  0
  2 17  1  0  0  0  0
  3  8  1  0  0  0  0
  3 12  1  0  0  0  0
  4 10  1  0  0  0  0
  4 18  1  0  0  0  0
  5  9  2  0  0  0  0
  6 12  2  0  0  0  0
  7  9  1  0  0  0  0
  7 12  1  0  0  0  0
  7 13  1  0  0  0  0
  8  9  1  0  0  0  0
  8 10  1  0  0  0  0
  8 11  1  0  0  0  0
 10 20  1  0  0  0  0
 10 21  1  0  0  0  0
 11 22  1  0  0  0  0
 11 23  1  0  0  0  0
 11 24  1  0  0  0  0
 13 14  2  0  0  0  0
 13 15  1  0  0  0  0
 14 17  1  0  0  0  0
 14 25  1  0  0  0  0
 15 16  2  0  0  0  0
 15 26  1  0  0  0  0
 16 19  1  0  0  0  0
 17 19  2  0  0  0  0
 18 27  1  0  0  0  0
 18 28  1  0  0  0  0
 18 29  1  0  0  0  0
 19 30  1  0  0  0  0
M  END
> <PUBCHEM_COMPOUND_CID>
92350

> <PUBCHEM_COMPOUND_CANONICALIZED>
1

> <PUBCHEM_CACTVS_COMPLEXITY>
382

> <PUBCHEM_CACTVS_HBOND_ACCEPTOR>
4

> <PUBCHEM_CACTVS_HBOND_DONOR>
0

> <PUBCHEM_CACTVS_ROTATABLE_BOND>
3

> <PUBCHEM_CACTVS_SUBSKEYS>
AAADccByOAAGAAAAAAAAAAAAAAAAAWAAAAAwAAAAAAAAAAABAAAAHgIAAAAADE6hkCIyyIMABACIACVSWAKCAAAhBwAAiAFAZogLICbBk5WNIAhipCDayAcQAAAAAAAAAAKAAAAAAAAABQAAAAAAAAAAAA==

> <PUBCHEM_IUPAC_OPENEYE_NAME>
3-(3,5-dichlorophenyl)-5-(methoxymethyl)-5-methyl-oxazolidine-2,4-dione

> <PUBCHEM_IUPAC_CAS_NAME>
3-(3,5-dichlorophenyl)-5-(methoxymethyl)-5-methyloxazolidine-2,4-dione

> <PUBCHEM_IUPAC_NAME>
3-(3,5-dichlorophenyl)-5-(methoxymethyl)-5-methyl-1,3-oxazolidine-2,4-dione

> <PUBCHEM_IUPAC_SYSTEMATIC_NAME>
3-[3,5-bis(chloranyl)phenyl]-5-(methoxymethyl)-5-methyl-1,3-oxazolidine-2,4-dione

> <PUBCHEM_IUPAC_TRADITIONAL_NAME>
3-(3,5-dichlorophenyl)-5-(methoxymethyl)-5-methyl-oxazolidine-2,4-quinone

> <PUBCHEM_IUPAC_INCHI>
InChI=1S/C12H11Cl2NO4/c1-12(6-18-2)10(16)15(11(17)19-12)9-4-7(13)3-8(14)5-9/h3-5H,6H2,1-2H3

> <PUBCHEM_IUPAC_INCHIKEY>
FTCOKXNKPOUEFH-UHFFFAOYSA-N

> <PUBCHEM_XLOGP3>
2.1

> <PUBCHEM_EXACT_MASS>
303.006513

> <PUBCHEM_MOLECULAR_FORMULA>
C12H11Cl2NO4

> <PUBCHEM_MOLECULAR_WEIGHT>
304.12604

> <PUBCHEM_OPENEYE_CAN_SMILES>
CC1(C(=O)N(C(=O)O1)C2=CC(=CC(=C2)Cl)Cl)COC

> <PUBCHEM_OPENEYE_ISO_SMILES>
CC1(C(=O)N(C(=O)O1)C2=CC(=CC(=C2)Cl)Cl)COC

> <PUBCHEM_CACTVS_TPSA>
55.8

> <PUBCHEM_MONOISOTOPIC_WEIGHT>
303.006513

> <PUBCHEM_TOTAL_CHARGE>
0

> <PUBCHEM_HEAVY_ATOM_COUNT>
19

> <PUBCHEM_ATOM_DEF_STEREO_COUNT>
0

> <PUBCHEM_ATOM_UDEF_STEREO_COUNT>
1

> <PUBCHEM_BOND_DEF_STEREO_COUNT>
0

> <PUBCHEM_BOND_UDEF_STEREO_COUNT>
0

> <PUBCHEM_ISOTOPIC_ATOM_COUNT>
0

> <PUBCHEM_COMPONENT_COUNT>
1

> <PUBCHEM_CACTVS_TAUTO_COUNT>
1

> <PUBCHEM_COORDINATE_TYPE>
1
5
255

> <PUBCHEM_BONDANNOTATIONS>
13  14  8
13  15  8
14  17  8
15  16  8
16  19  8
17  19  8
8  11  3

$$$$

