   Color/Form
        OILY LIQUID CONSISTING OF A MIXTURE OF CIS- & TRANS- ISOMERS
   from [1]HSDB

   Odor
        ODORLESS
   from [2]HSDB

   Taste
        BITTER
   from [3]HSDB

   Boiling Point
        154-157 DEG C @ 0.03 MM HG
   from [4]HSDB

   Octanol/Water Partition Coefficient
        log Kow = 0.67
   from [5]HSDB

   Solubilities
        In water, 31.57 mg/l at 25 deg C.
   from [6]HSDB

   Spectral Properties
        Intense mass spectral peaks: 58 m/z, 165 m/z, 279 m/z
   from [7]HSDB

   Other Chemical/Physical Properties

     * WHITE CRYSTALLINE SUBSTANCE; 1 G SOL IN 1 ML WATER, 2 ML ALCOHOL,
       10 ML CHLOROFORM /HYDROCHLORIDE/
     * Crystals, melting point 184 to 186 deg C, 188 to 189 deg C (a
       cis-trans mixture of approx 1:5) /HYDROCHLORIDE/
     * Crystals, melting point 161 to 164 deg C, 168 to 169 deg C
       /MALEATE/
     * Melting point 192 to 193 deg C /trans-HYDROCHLORIDE/
     * Crystals, melting point 209 to 210.5 deg C /cis-HYDROCHLORIDE/
     * White crystalline solid, readily soluble in water, lower alcohols,
       and chloroform. /DOXEPIN HYDROCHLORIDE/

   from [8]HSDB

   Computed Properties
   Molecular Weight                  279.37614 [g/mol]
   Molecular Formula                 C[19]H[21]NO
   XLogP3                            4.3
   H-Bond Donor                      0
   H-Bond Acceptor                   2
   Rotatable Bond Count              3
   Exact Mass                        279.162314
   MonoIsotopic Mass                 279.162314
   Topological Polar Surface Area    12.5
   Heavy Atom Count                  21
   Formal Charge                     0
   Complexity                        363
   Isotope Atom Count                0
   Defined Atom Stereocenter Count   0
   Undefined Atom Stereocenter Count 0
   Defined Bond Stereocenter Count   0
   Undefined Bond Stereocenter Count 1
   Covalently-Bonded Unit Count      1
   Feature 3D Acceptor Count         1
   Feature 3D Cation Count           1
   Feature 3D Ring Count             3
   Effective Rotor Count             3.4
   Conformer Sampling RMSD           0.6
   CID Conformer Count               [9]14

References

   1. http://toxnet.nlm.nih.gov/cgi-bin/sis/search/r?dbs+hsdb:@term+@rn+@rel+1668-19-5
   2. http://toxnet.nlm.nih.gov/cgi-bin/sis/search/r?dbs+hsdb:@term+@rn+@rel+1668-19-5
   3. http://toxnet.nlm.nih.gov/cgi-bin/sis/search/r?dbs+hsdb:@term+@rn+@rel+1668-19-5
   4. http://toxnet.nlm.nih.gov/cgi-bin/sis/search/r?dbs+hsdb:@term+@rn+@rel+1668-19-5
   5. http://toxnet.nlm.nih.gov/cgi-bin/sis/search/r?dbs+hsdb:@term+@rn+@rel+1668-19-5
   6. http://toxnet.nlm.nih.gov/cgi-bin/sis/search/r?dbs+hsdb:@term+@rn+@rel+1668-19-5
   7. http://toxnet.nlm.nih.gov/cgi-bin/sis/search/r?dbs+hsdb:@term+@rn+@rel+1668-19-5
   8. http://toxnet.nlm.nih.gov/cgi-bin/sis/search/r?dbs+hsdb:@term+@rn+@rel+1668-19-5
   9. http://pubchem.ncbi.nlm.nih.gov/vw3d/vw3d.cgi?cid=3158
