497203
  -OEChem-07051213092D

 35 38  0     1  0  0  0  0  0999 V2000
    2.8495    1.0820    0.0000 O   0  0  0  0  0  0  0  0  0  0  0  0
    6.1846    1.2491    0.0000 O   0  0  0  0  0  0  0  0  0  0  0  0
    4.3723   -1.8898    0.0000 C   0  0  2  0  0  0  0  0  0  0  0  0
    3.3836   -1.9929    0.0000 C   0  0  2  0  0  0  0  0  0  0  0  0
    4.5816   -0.9180    0.0000 C   0  0  1  0  0  0  0  0  0  0  0  0
    3.9673   -2.7981    0.0000 C   0  0  0  0  0  0  0  0  0  0  0  0
    3.7155   -0.4180    0.0000 C   0  0  2  0  0  0  0  0  0  0  0  0
    2.9785   -1.0851    0.0000 C   0  0  0  0  0  0  0  0  0  0  0  0
    5.4476   -0.4180    0.0000 C   0  0  0  0  0  0  0  0  0  0  0  0
    3.7155    0.5820    0.0000 C   0  0  2  0  0  0  0  0  0  0  0  0
    5.4476   -1.4180    0.0000 C   0  0  0  0  0  0  0  0  0  0  0  0
    5.4476    0.5820    0.0000 C   0  0  0  0  0  0  0  0  0  0  0  0
    4.5816    1.0820    0.0000 C   0  0  0  0  0  0  0  0  0  0  0  0
    2.0000   -0.8789    0.0000 C   0  0  0  0  0  0  0  0  0  0  0  0
    4.7908    2.0538    0.0000 C   0  0  0  0  0  0  0  0  0  0  0  0
    5.7795    2.1569    0.0000 C   0  0  0  0  0  0  0  0  0  0  0  0
    4.1229    2.7981    0.0000 C   0  0  0  0  0  0  0  0  0  0  0  0
    5.1803   -2.1538    0.0000 H   0  0  0  0  0  0  0  0  0  0  0  0
    2.6474   -2.4178    0.0000 H   0  0  0  0  0  0  0  0  0  0  0  0
    3.5362   -3.2437    0.0000 H   0  0  0  0  0  0  0  0  0  0  0  0
    4.4810   -3.1452    0.0000 H   0  0  0  0  0  0  0  0  0  0  0  0
    2.9386   -0.0733    0.0000 H   0  0  0  0  0  0  0  0  0  0  0  0
    5.6596   -1.0006    0.0000 H   0  0  0  0  0  0  0  0  0  0  0  0
    6.0582   -0.3103    0.0000 H   0  0  0  0  0  0  0  0  0  0  0  0
    3.7155    1.2020    0.0000 H   0  0  0  0  0  0  0  0  0  0  0  0
    5.1376   -1.9549    0.0000 H   0  0  0  0  0  0  0  0  0  0  0  0
    5.9845   -1.7280    0.0000 H   0  0  0  0  0  0  0  0  0  0  0  0
    5.7576   -0.8811    0.0000 H   0  0  0  0  0  0  0  0  0  0  0  0
    1.8074   -0.2895    0.0000 H   0  0  0  0  0  0  0  0  0  0  0  0
    1.5859   -1.3403    0.0000 H   0  0  0  0  0  0  0  0  0  0  0  0
    2.8495    1.7020    0.0000 H   0  0  0  0  0  0  0  0  0  0  0  0
    6.0895    2.6938    0.0000 H   0  0  0  0  0  0  0  0  0  0  0  0
    4.5844    3.2122    0.0000 H   0  0  0  0  0  0  0  0  0  0  0  0
    3.7088    3.2596    0.0000 H   0  0  0  0  0  0  0  0  0  0  0  0
    3.6614    2.3840    0.0000 H   0  0  0  0  0  0  0  0  0  0  0  0
 10  1  1  1  0  0  0
  1 31  1  0  0  0  0
  2 12  1  0  0  0  0
  2 16  1  0  0  0  0
  3  4  1  0  0  0  0
  3  5  1  0  0  0  0
  3  6  1  0  0  0  0
  3 18  1  1  0  0  0
  4  6  1  0  0  0  0
  4  8  1  0  0  0  0
  4 19  1  1  0  0  0
  5  7  1  0  0  0  0
  5  9  1  0  0  0  0
  5 11  1  6  0  0  0
  6 20  1  0  0  0  0
  6 21  1  0  0  0  0
  7  8  1  0  0  0  0
  7 10  1  0  0  0  0
  7 22  1  1  0  0  0
  8 14  2  0  0  0  0
  9 12  1  0  0  0  0
  9 23  1  0  0  0  0
  9 24  1  0  0  0  0
 10 13  1  0  0  0  0
 10 25  1  0  0  0  0
 11 26  1  0  0  0  0
 11 27  1  0  0  0  0
 11 28  1  0  0  0  0
 12 13  2  0  0  0  0
 13 15  1  0  0  0  0
 14 29  1  0  0  0  0
 14 30  1  0  0  0  0
 15 16  2  0  0  0  0
 15 17  1  0  0  0  0
 16 32  1  0  0  0  0
 17 33  1  0  0  0  0
 17 34  1  0  0  0  0
 17 35  1  0  0  0  0
M  END
> <PUBCHEM_COMPOUND_CID>
497203

> <PUBCHEM_COMPOUND_CANONICALIZED>
1

> <PUBCHEM_CACTVS_COMPLEXITY>
390

> <PUBCHEM_CACTVS_HBOND_ACCEPTOR>
2

> <PUBCHEM_CACTVS_HBOND_DONOR>
1

> <PUBCHEM_CACTVS_ROTATABLE_BOND>
0

> <PUBCHEM_CACTVS_SUBSKEYS>
AAADceBwMAAAAAAAAAAAAAAAGAAAAaIAAAAwYAAAAAAAAGgBgAAAGgAACAAADxSgmAIiBIAABkCIAohSgAACCAAkIAAAiAEECMgMNzaENRqCWSCl4BEIuQfK7PzPgAAAAAAAAADAAAYQADAAAQAACAAAAA==

> <PUBCHEM_IUPAC_INCHI>
InChI=1S/C15H18O2/c1-7-6-17-11-5-15(3)10-4-9(10)8(2)13(15)14(16)12(7)11/h6,9-10,13-14,16H,2,4-5H2,1,3H3/t9-,10-,13-,14+,15+/m1/s1

> <PUBCHEM_IUPAC_INCHIKEY>
XRDJYSVGPBJZSG-PSDLAXTLSA-N

> <PUBCHEM_XLOGP3_AA>
2.1

> <PUBCHEM_EXACT_MASS>
230.13068

> <PUBCHEM_MOLECULAR_FORMULA>
C15H18O2

> <PUBCHEM_MOLECULAR_WEIGHT>
230.30222

> <PUBCHEM_OPENEYE_CAN_SMILES>
CC1=COC2=C1C(C3C(=C)C4CC4C3(C2)C)O

> <PUBCHEM_OPENEYE_ISO_SMILES>
CC1=COC2=C1[C@@H]([C@H]3C(=C)[C@H]4C[C@H]4[C@@]3(C2)C)O

> <PUBCHEM_CACTVS_TPSA>
33.4

> <PUBCHEM_MONOISOTOPIC_WEIGHT>
230.13068

> <PUBCHEM_TOTAL_CHARGE>
0

> <PUBCHEM_HEAVY_ATOM_COUNT>
17

> <PUBCHEM_ATOM_DEF_STEREO_COUNT>
5

> <PUBCHEM_ATOM_UDEF_STEREO_COUNT>
0

> <PUBCHEM_BOND_DEF_STEREO_COUNT>
0

> <PUBCHEM_BOND_UDEF_STEREO_COUNT>
0

> <PUBCHEM_ISOTOPIC_ATOM_COUNT>
0

> <PUBCHEM_COMPONENT_COUNT>
1

> <PUBCHEM_CACTVS_TAUTO_COUNT>
1

> <PUBCHEM_COORDINATE_TYPE>
1
5
255

> <PUBCHEM_BONDANNOTATIONS>
10  1  5
12  13  8
13  15  8
15  16  8
2  12  8
2  16  8
3  18  5
4  19  5
5  11  6
7  22  5

$$$$

