12774
  -OEChem-07051213042D

 13 13  0     0  0  0  0  0  0999 V2000
    4.5032   -0.4197    0.0000 O   0  0  0  0  0  0  0  0  0  0  0  0
    7.0064    0.5282    0.0000 O   0  5  0  0  0  0  0  0  0  0  0  0
    6.4712   -1.1191    0.0000 O   0  0  0  0  0  0  0  0  0  0  0  0
    2.0000    0.5282    0.0000 O   0  0  0  0  0  0  0  0  0  0  0  0
    6.2633   -0.1410    0.0000 N   0  3  0  0  0  0  0  0  0  0  0  0
    5.3122    0.1681    0.0000 C   0  0  0  0  0  0  0  0  0  0  0  0
    3.6942    0.1681    0.0000 C   0  0  0  0  0  0  0  0  0  0  0  0
    5.0032    1.1191    0.0000 C   0  0  0  0  0  0  0  0  0  0  0  0
    4.0032    1.1191    0.0000 C   0  0  0  0  0  0  0  0  0  0  0  0
    2.7431   -0.1410    0.0000 C   0  0  0  0  0  0  0  0  0  0  0  0
    5.3676    1.6207    0.0000 H   0  0  0  0  0  0  0  0  0  0  0  0
    3.6388    1.6207    0.0000 H   0  0  0  0  0  0  0  0  0  0  0  0
    2.6142   -0.7474    0.0000 H   0  0  0  0  0  0  0  0  0  0  0  0
  1  6  1  0  0  0  0
  1  7  1  0  0  0  0
  2  5  1  0  0  0  0
  3  5  2  0  0  0  0
  4 10  2  0  0  0  0
  5  6  1  0  0  0  0
  6  8  2  0  0  0  0
  7  9  2  0  0  0  0
  7 10  1  0  0  0  0
  8  9  1  0  0  0  0
  8 11  1  0  0  0  0
  9 12  1  0  0  0  0
 10 13  1  0  0  0  0
M  CHG  2   2  -1   5   1
M  END
> <PUBCHEM_COMPOUND_CID>
12774

> <PUBCHEM_COMPOUND_CANONICALIZED>
1

> <PUBCHEM_CACTVS_COMPLEXITY>
152

> <PUBCHEM_CACTVS_HBOND_ACCEPTOR>
4

> <PUBCHEM_CACTVS_HBOND_DONOR>
0

> <PUBCHEM_CACTVS_ROTATABLE_BOND>
1

> <PUBCHEM_CACTVS_SUBSKEYS>
AAADcQBiOAAAAAAAAAAAAAAAAAAAASAAAAAAAAAAAAAAAAABgAAAHgAEAAAACAShkAIwhIAQRECJAKlS0wKCCAAsIgAoiAFGbMoMJjKEtZ+KGSDkwBEI6Ya8BwAAAAAAAAAAAAAAAAAAAAAAAAAAAAAAAA==

> <PUBCHEM_IUPAC_OPENEYE_NAME>
5-nitrofuran-2-carbaldehyde

> <PUBCHEM_IUPAC_CAS_NAME>
5-nitro-2-furancarboxaldehyde

> <PUBCHEM_IUPAC_NAME>
5-nitrofuran-2-carbaldehyde

> <PUBCHEM_IUPAC_SYSTEMATIC_NAME>
5-nitrofuran-2-carbaldehyde

> <PUBCHEM_IUPAC_TRADITIONAL_NAME>
5-nitrofurfural

> <PUBCHEM_IUPAC_INCHI>
InChI=1S/C5H3NO4/c7-3-4-1-2-5(10-4)6(8)9/h1-3H

> <PUBCHEM_IUPAC_INCHIKEY>
SXINBFXPADXIEY-UHFFFAOYSA-N

> <PUBCHEM_XLOGP3>
1

> <PUBCHEM_EXACT_MASS>
141.006208

> <PUBCHEM_MOLECULAR_FORMULA>
C5H3NO4

> <PUBCHEM_MOLECULAR_WEIGHT>
141.08162

> <PUBCHEM_OPENEYE_CAN_SMILES>
C1=C(OC(=C1)[N+](=O)[O-])C=O

> <PUBCHEM_OPENEYE_ISO_SMILES>
C1=C(OC(=C1)[N+](=O)[O-])C=O

> <PUBCHEM_CACTVS_TPSA>
76

> <PUBCHEM_MONOISOTOPIC_WEIGHT>
141.006208

> <PUBCHEM_TOTAL_CHARGE>
0

> <PUBCHEM_HEAVY_ATOM_COUNT>
10

> <PUBCHEM_ATOM_DEF_STEREO_COUNT>
0

> <PUBCHEM_ATOM_UDEF_STEREO_COUNT>
0

> <PUBCHEM_BOND_DEF_STEREO_COUNT>
0

> <PUBCHEM_BOND_UDEF_STEREO_COUNT>
0

> <PUBCHEM_ISOTOPIC_ATOM_COUNT>
0

> <PUBCHEM_COMPONENT_COUNT>
1

> <PUBCHEM_CACTVS_TAUTO_COUNT>
1

> <PUBCHEM_COORDINATE_TYPE>
1
5
255

> <PUBCHEM_BONDANNOTATIONS>
1  6  8
1  7  8
6  8  8
7  9  8
8  9  8

$$$$

