   Color/Form

     * Crystals from methanol
     * White, crystalline powder

   from [1]HSDB

   Melting Point
        256.5-257 deg C
   from [2]HSDB

   Dissociation Constants
        pKa1= 2.27; pKa2 = 9.25
   from [3]HSDB

   Octanol/Water Partition Coefficient
        log Kow = -1.56
   from [4]HSDB

   Solubilities

     * 0.2 mg/mL in alcohol
     * In water, 1,620 mg/L at 25 deg C

   from [5]HSDB

   Vapor Pressure
        7.5X10-15 mm Hg at 25 deg C /Estimated/
   from [6]HSDB

   Other Chemical/Physical Properties

     * Henry's Law constant = 3.2X10-22 atm-cu m/mol at 25 deg C
       /Estimated/
     * Hydroxyl radical reaction rate constant = 7.9X10-11 cu
       cm/molecule-sec at 25 deg C /Estimated/

   from [7]HSDB

   Computed Properties
   Molecular Weight                  225.20464 [g/mol]
   Molecular Formula                 C[8]H[11]N[5]O[3]
   XLogP3                            -1.6
   H-Bond Donor                      3
   H-Bond Acceptor                   4
   Rotatable Bond Count              4
   Tautomer Count                    9
   Exact Mass                        225.086189
   MonoIsotopic Mass                 225.086189
   Topological Polar Surface Area    115
   Heavy Atom Count                  16
   Formal Charge                     0
   Complexity                        308
   Isotope Atom Count                0
   Defined Atom Stereocenter Count   0
   Undefined Atom Stereocenter Count 0
   Defined Bond Stereocenter Count   0
   Undefined Bond Stereocenter Count 0
   Covalently-Bonded Unit Count      1
   Feature 3D Acceptor Count         3
   Feature 3D Donor Count            4
   Feature 3D Cation Count           1
   Feature 3D Ring Count             2
   Effective Rotor Count             4
   Conformer Sampling RMSD           0.6
   CID Conformer Count               [8]26

References

   1. http://toxnet.nlm.nih.gov/cgi-bin/sis/search/r?dbs+hsdb:@term+@rn+@rel+59277-89-3
   2. http://toxnet.nlm.nih.gov/cgi-bin/sis/search/r?dbs+hsdb:@term+@rn+@rel+59277-89-3
   3. http://toxnet.nlm.nih.gov/cgi-bin/sis/search/r?dbs+hsdb:@term+@rn+@rel+59277-89-3
   4. http://toxnet.nlm.nih.gov/cgi-bin/sis/search/r?dbs+hsdb:@term+@rn+@rel+59277-89-3
   5. http://toxnet.nlm.nih.gov/cgi-bin/sis/search/r?dbs+hsdb:@term+@rn+@rel+59277-89-3
   6. http://toxnet.nlm.nih.gov/cgi-bin/sis/search/r?dbs+hsdb:@term+@rn+@rel+59277-89-3
   7. http://toxnet.nlm.nih.gov/cgi-bin/sis/search/r?dbs+hsdb:@term+@rn+@rel+59277-89-3
   8. http://pubchem.ncbi.nlm.nih.gov/vw3d/vw3d.cgi?cid=2022
