17395548
  -OEChem-06241222512D

 53 54  0     0  0  0  0  0  0999 V2000
    6.3301   -2.5194    0.0000 S   0  0  0  0  0  0  0  0  0  0  0  0
   11.4693    3.5684    0.0000 O   0  0  0  0  0  0  0  0  0  0  0  0
    7.1962   -1.0194    0.0000 O   0  0  0  0  0  0  0  0  0  0  0  0
   10.6603   -0.0194    0.0000 O   0  0  0  0  0  0  0  0  0  0  0  0
    4.5981   -1.5194    0.0000 O   0  0  0  0  0  0  0  0  0  0  0  0
    8.9282   -1.0194    0.0000 N   0  0  0  0  0  0  0  0  0  0  0  0
    3.7320   -3.0194    0.0000 N   0  0  0  0  0  0  0  0  0  0  0  0
    9.7942    1.4806    0.0000 N   0  0  0  0  0  0  0  0  0  0  0  0
    2.8660   -2.5194    0.0000 C   0  0  0  0  0  0  0  0  0  0  0  0
    8.9282   -0.0194    0.0000 C   0  0  0  0  0  0  0  0  0  0  0  0
    8.0622   -2.5194    0.0000 C   0  0  0  0  0  0  0  0  0  0  0  0
    8.0622   -1.5194    0.0000 C   0  0  0  0  0  0  0  0  0  0  0  0
    7.1962   -3.0194    0.0000 C   0  0  0  0  0  0  0  0  0  0  0  0
    2.0000   -3.0194    0.0000 C   0  0  0  0  0  0  0  0  0  0  0  0
    2.8660   -1.5194    0.0000 C   0  0  0  0  0  0  0  0  0  0  0  0
    9.7942    0.4806    0.0000 C   0  0  0  0  0  0  0  0  0  0  0  0
    5.4641   -3.0194    0.0000 C   0  0  0  0  0  0  0  0  0  0  0  0
    9.7942   -1.5194    0.0000 C   0  0  0  0  0  0  0  0  0  0  0  0
    4.5981   -2.5194    0.0000 C   0  0  0  0  0  0  0  0  0  0  0  0
    8.9282   -3.0194    0.0000 C   0  0  0  0  0  0  0  0  0  0  0  0
   10.6603    1.9806    0.0000 C   0  0  0  0  0  0  0  0  0  0  0  0
    7.1962   -4.0194    0.0000 C   0  0  0  0  0  0  0  0  0  0  0  0
    8.9282   -4.0194    0.0000 C   0  0  0  0  0  0  0  0  0  0  0  0
   10.6603    2.9806    0.0000 C   0  0  0  0  0  0  0  0  0  0  0  0
    8.0622   -4.5194    0.0000 C   0  0  0  0  0  0  0  0  0  0  0  0
    9.8512    3.5684    0.0000 C   0  0  0  0  0  0  0  0  0  0  0  0
   10.1603    4.5194    0.0000 C   0  0  0  0  0  0  0  0  0  0  0  0
   11.1603    4.5194    0.0000 C   0  0  0  0  0  0  0  0  0  0  0  0
    2.8660   -3.1394    0.0000 H   0  0  0  0  0  0  0  0  0  0  0  0
    8.7162    0.5632    0.0000 H   0  0  0  0  0  0  0  0  0  0  0  0
    8.3176   -0.1271    0.0000 H   0  0  0  0  0  0  0  0  0  0  0  0
    3.7320   -3.6394    0.0000 H   0  0  0  0  0  0  0  0  0  0  0  0
    3.4860   -1.5194    0.0000 H   0  0  0  0  0  0  0  0  0  0  0  0
    1.6900   -2.4825    0.0000 H   0  0  0  0  0  0  0  0  0  0  0  0
    1.4631   -3.3294    0.0000 H   0  0  0  0  0  0  0  0  0  0  0  0
    2.3100   -3.5564    0.0000 H   0  0  0  0  0  0  0  0  0  0  0  0
    2.8660   -0.8994    0.0000 H   0  0  0  0  0  0  0  0  0  0  0  0
    2.2460   -1.5194    0.0000 H   0  0  0  0  0  0  0  0  0  0  0  0
    5.0656   -3.4944    0.0000 H   0  0  0  0  0  0  0  0  0  0  0  0
    5.8626   -3.4944    0.0000 H   0  0  0  0  0  0  0  0  0  0  0  0
    9.4842   -2.0564    0.0000 H   0  0  0  0  0  0  0  0  0  0  0  0
   10.3312   -1.8294    0.0000 H   0  0  0  0  0  0  0  0  0  0  0  0
   10.1042   -0.9825    0.0000 H   0  0  0  0  0  0  0  0  0  0  0  0
   10.8723    1.3980    0.0000 H   0  0  0  0  0  0  0  0  0  0  0  0
   11.2708    2.0882    0.0000 H   0  0  0  0  0  0  0  0  0  0  0  0
    9.4651   -2.7094    0.0000 H   0  0  0  0  0  0  0  0  0  0  0  0
    9.2573    1.7906    0.0000 H   0  0  0  0  0  0  0  0  0  0  0  0
    6.6592   -4.3294    0.0000 H   0  0  0  0  0  0  0  0  0  0  0  0
    9.4651   -4.3294    0.0000 H   0  0  0  0  0  0  0  0  0  0  0  0
    8.0622   -5.1394    0.0000 H   0  0  0  0  0  0  0  0  0  0  0  0
    9.2616    3.3768    0.0000 H   0  0  0  0  0  0  0  0  0  0  0  0
    9.7958    5.0210    0.0000 H   0  0  0  0  0  0  0  0  0  0  0  0
   11.5247    5.0210    0.0000 H   0  0  0  0  0  0  0  0  0  0  0  0
  1 13  1  0  0  0  0
  1 17  1  0  0  0  0
  2 24  1  0  0  0  0
  2 28  1  0  0  0  0
  3 12  2  0  0  0  0
  4 16  2  0  0  0  0
  5 19  2  0  0  0  0
  6 10  1  0  0  0  0
  6 12  1  0  0  0  0
  6 18  1  0  0  0  0
  7  9  1  0  0  0  0
  7 19  1  0  0  0  0
  7 32  1  0  0  0  0
  8 16  1  0  0  0  0
  8 21  1  0  0  0  0
  8 47  1  0  0  0  0
  9 14  1  0  0  0  0
  9 15  1  0  0  0  0
  9 29  1  0  0  0  0
 10 16  1  0  0  0  0
 10 30  1  0  0  0  0
 10 31  1  0  0  0  0
 11 12  1  0  0  0  0
 11 13  1  0  0  0  0
 11 20  2  0  0  0  0
 13 22  2  0  0  0  0
 14 34  1  0  0  0  0
 14 35  1  0  0  0  0
 14 36  1  0  0  0  0
 15 33  1  0  0  0  0
 15 37  1  0  0  0  0
 15 38  1  0  0  0  0
 17 19  1  0  0  0  0
 17 39  1  0  0  0  0
 17 40  1  0  0  0  0
 18 41  1  0  0  0  0
 18 42  1  0  0  0  0
 18 43  1  0  0  0  0
 20 23  1  0  0  0  0
 20 46  1  0  0  0  0
 21 24  1  0  0  0  0
 21 44  1  0  0  0  0
 21 45  1  0  0  0  0
 22 25  1  0  0  0  0
 22 48  1  0  0  0  0
 23 25  2  0  0  0  0
 23 49  1  0  0  0  0
 24 26  2  0  0  0  0
 25 50  1  0  0  0  0
 26 27  1  0  0  0  0
 26 51  1  0  0  0  0
 27 28  2  0  0  0  0
 27 52  1  0  0  0  0
 28 53  1  0  0  0  0
M  END
> <PUBCHEM_COMPOUND_CID>
17395548

> <PUBCHEM_COMPOUND_CANONICALIZED>
1

> <PUBCHEM_CACTVS_COMPLEXITY>
544

> <PUBCHEM_CACTVS_HBOND_ACCEPTOR>
5

> <PUBCHEM_CACTVS_HBOND_DONOR>
2

> <PUBCHEM_CACTVS_ROTATABLE_BOND>
9

> <PUBCHEM_CACTVS_SUBSKEYS>
AAADceB7OABAAAAAAAAAAAAAAAAAASAAAAAwAAAAAAAAAAABwAAAHgQQAAAADCzl2AayBYPABEiIAqlSkACCCAAkKBAIiJmODMgOZjKktTuXOSjk1hG4qYeYmQKOAAAAAAAEAAAAAAAAAAgAAAAAAAAAAA==

> <PUBCHEM_IUPAC_OPENEYE_NAME>
N-[2-(2-furylmethylamino)-2-oxo-ethyl]-2-[2-(isopropylamino)-2-oxo-ethyl]sulfanyl-N-methyl-benzamide

> <PUBCHEM_IUPAC_CAS_NAME>
N-[2-(2-furanylmethylamino)-2-oxoethyl]-N-methyl-2-[[2-oxo-2-(propan-2-ylamino)ethyl]thio]benzamide

> <PUBCHEM_IUPAC_NAME>
N-[2-(furan-2-ylmethylamino)-2-oxoethyl]-N-methyl-2-[2-oxo-2-(propan-2-ylamino)ethyl]sulfanylbenzamide

> <PUBCHEM_IUPAC_SYSTEMATIC_NAME>
N-[2-(furan-2-ylmethylamino)-2-oxidanylidene-ethyl]-N-methyl-2-[2-oxidanylidene-2-(propan-2-ylamino)ethyl]sulfanyl-benzamide

> <PUBCHEM_IUPAC_TRADITIONAL_NAME>
N-[2-(2-furfurylamino)-2-keto-ethyl]-2-[[2-(isopropylamino)-2-keto-ethyl]thio]-N-methyl-benzamide

> <PUBCHEM_IUPAC_INCHI>
InChI=1S/C20H25N3O4S/c1-14(2)22-19(25)13-28-17-9-5-4-8-16(17)20(26)23(3)12-18(24)21-11-15-7-6-10-27-15/h4-10,14H,11-13H2,1-3H3,(H,21,24)(H,22,25)

> <PUBCHEM_IUPAC_INCHIKEY>
AGZOVLAFEUHUAZ-UHFFFAOYSA-N

> <PUBCHEM_XLOGP3_AA>
2

> <PUBCHEM_EXACT_MASS>
403.156577

> <PUBCHEM_MOLECULAR_FORMULA>
C20H25N3O4S

> <PUBCHEM_MOLECULAR_WEIGHT>
403.4952

> <PUBCHEM_OPENEYE_CAN_SMILES>
CC(C)NC(=O)CSC1=CC=CC=C1C(=O)N(C)CC(=O)NCC2=CC=CO2

> <PUBCHEM_OPENEYE_ISO_SMILES>
CC(C)NC(=O)CSC1=CC=CC=C1C(=O)N(C)CC(=O)NCC2=CC=CO2

> <PUBCHEM_CACTVS_TPSA>
117

> <PUBCHEM_MONOISOTOPIC_WEIGHT>
403.156577

> <PUBCHEM_TOTAL_CHARGE>
0

> <PUBCHEM_HEAVY_ATOM_COUNT>
28

> <PUBCHEM_ATOM_DEF_STEREO_COUNT>
0

> <PUBCHEM_ATOM_UDEF_STEREO_COUNT>
0

> <PUBCHEM_BOND_DEF_STEREO_COUNT>
0

> <PUBCHEM_BOND_UDEF_STEREO_COUNT>
0

> <PUBCHEM_ISOTOPIC_ATOM_COUNT>
0

> <PUBCHEM_COMPONENT_COUNT>
1

> <PUBCHEM_CACTVS_TAUTO_COUNT>
4

> <PUBCHEM_COORDINATE_TYPE>
1
5
255

> <PUBCHEM_BONDANNOTATIONS>
11  13  8
11  20  8
13  22  8
2  24  8
2  28  8
20  23  8
22  25  8
23  25  8
24  26  8
26  27  8
27  28  8

$$$$

