56928169
  -OEChem-07051213152D

 72 74  0     1  0  0  0  0  0999 V2000
    8.8853    2.6465    0.0000 Cl  0  0  0  0  0  0  0  0  0  0  0  0
    3.6891    0.6464    0.0000 O   0  0  0  0  0  0  0  0  0  0  0  0
    2.8231   -1.8536    0.0000 O   0  0  0  0  0  0  0  0  0  0  0  0
    4.5552   -2.8535    0.0000 O   0  0  0  0  0  0  0  0  0  0  0  0
    5.5552    0.1464    0.0000 O   0  0  0  0  0  0  0  0  0  0  0  0
    5.7050    0.9734    0.0000 O   0  0  0  0  0  0  0  0  0  0  0  0
    7.8604    3.3536    0.0000 O   0  0  0  0  0  0  0  0  0  0  0  0
   10.6173    1.6464    0.0000 O   0  0  0  0  0  0  0  0  0  0  0  0
    4.5552   -0.8536    0.0000 N   0  0  0  0  0  0  0  0  0  0  0  0
    7.1532    1.6464    0.0000 N   0  0  0  0  0  0  0  0  0  0  0  0
    3.6891   -1.3536    0.0000 C   0  0  1  0  0  0  0  0  0  0  0  0
    2.8231    0.1464    0.0000 C   0  0  1  0  0  0  0  0  0  0  0  0
    2.8231   -0.8536    0.0000 C   0  0  0  0  0  0  0  0  0  0  0  0
    2.8231    1.1464    0.0000 C   0  0  2  0  0  0  0  0  0  0  0  0
    4.5552   -1.8536    0.0000 C   0  0  1  0  0  0  0  0  0  0  0  0
    3.7731    1.4910    0.0000 C   0  0  0  0  0  0  0  0  0  0  0  0
    2.0000    1.7143    0.0000 C   0  0  0  0  0  0  0  0  0  0  0  0
    4.5552    0.1464    0.0000 C   0  0  0  0  0  0  0  0  0  0  0  0
    5.4212   -1.3536    0.0000 C   0  0  0  0  0  0  0  0  0  0  0  0
    4.4802    2.1982    0.0000 C   0  0  0  0  0  0  0  0  0  0  0  0
    5.4461    1.9393    0.0000 C   0  0  2  0  0  0  0  0  0  0  0  0
    4.2214    3.1641    0.0000 C   0  0  0  0  0  0  0  0  0  0  0  0
    6.2872   -1.8536    0.0000 C   0  0  0  0  0  0  0  0  0  0  0  0
    6.1532    2.6465    0.0000 C   0  0  0  0  0  0  0  0  0  0  0  0
    3.6891   -3.3536    0.0000 C   0  0  0  0  0  0  0  0  0  0  0  0
    7.1532   -1.3536    0.0000 C   0  0  0  0  0  0  0  0  0  0  0  0
    7.1532    2.6465    0.0000 C   0  0  0  0  0  0  0  0  0  0  0  0
    8.0193   -1.8536    0.0000 C   0  0  0  0  0  0  0  0  0  0  0  0
    8.8853   -1.3536    0.0000 C   0  0  0  0  0  0  0  0  0  0  0  0
    8.8853   -0.3536    0.0000 C   0  0  0  0  0  0  0  0  0  0  0  0
    8.0193    1.1464    0.0000 C   0  0  0  0  0  0  0  0  0  0  0  0
    8.0193   -2.8535    0.0000 C   0  0  0  0  0  0  0  0  0  0  0  0
    8.0154    0.1442    0.0000 C   0  0  0  0  0  0  0  0  0  0  0  0
    9.7513    0.1464    0.0000 C   0  0  0  0  0  0  0  0  0  0  0  0
    8.8853    1.6464    0.0000 C   0  0  0  0  0  0  0  0  0  0  0  0
    9.7513    1.1464    0.0000 C   0  0  0  0  0  0  0  0  0  0  0  0
   11.4834    1.1464    0.0000 C   0  0  0  0  0  0  0  0  0  0  0  0
    1.9731    0.1464    0.0000 H   0  0  0  0  0  0  0  0  0  0  0  0
    2.2125   -0.7459    0.0000 H   0  0  0  0  0  0  0  0  0  0  0  0
    2.6111   -1.4362    0.0000 H   0  0  0  0  0  0  0  0  0  0  0  0
    2.9022    1.7614    0.0000 H   0  0  0  0  0  0  0  0  0  0  0  0
    4.0182   -2.1636    0.0000 H   0  0  0  0  0  0  0  0  0  0  0  0
    4.8652   -1.3905    0.0000 H   0  0  0  0  0  0  0  0  0  0  0  0
    4.2024    1.0437    0.0000 H   0  0  0  0  0  0  0  0  0  0  0  0
    2.3521    2.2246    0.0000 H   0  0  0  0  0  0  0  0  0  0  0  0
    1.4897    2.0664    0.0000 H   0  0  0  0  0  0  0  0  0  0  0  0
    1.6479    1.2040    0.0000 H   0  0  0  0  0  0  0  0  0  0  0  0
    2.8231   -2.4736    0.0000 H   0  0  0  0  0  0  0  0  0  0  0  0
    5.4212   -0.7336    0.0000 H   0  0  0  0  0  0  0  0  0  0  0  0
    6.0450    1.7789    0.0000 H   0  0  0  0  0  0  0  0  0  0  0  0
    4.8203    3.3246    0.0000 H   0  0  0  0  0  0  0  0  0  0  0  0
    4.0609    3.7630    0.0000 H   0  0  0  0  0  0  0  0  0  0  0  0
    3.6225    3.0036    0.0000 H   0  0  0  0  0  0  0  0  0  0  0  0
    6.2872   -2.4736    0.0000 H   0  0  0  0  0  0  0  0  0  0  0  0
    6.3137    3.2453    0.0000 H   0  0  0  0  0  0  0  0  0  0  0  0
    5.6163    2.9564    0.0000 H   0  0  0  0  0  0  0  0  0  0  0  0
    3.3791   -2.8166    0.0000 H   0  0  0  0  0  0  0  0  0  0  0  0
    3.1522   -3.6636    0.0000 H   0  0  0  0  0  0  0  0  0  0  0  0
    3.9991   -3.8905    0.0000 H   0  0  0  0  0  0  0  0  0  0  0  0
    7.1532   -0.7336    0.0000 H   0  0  0  0  0  0  0  0  0  0  0  0
    6.3038    0.8129    0.0000 H   0  0  0  0  0  0  0  0  0  0  0  0
    9.0974   -1.9362    0.0000 H   0  0  0  0  0  0  0  0  0  0  0  0
    9.4959   -1.2459    0.0000 H   0  0  0  0  0  0  0  0  0  0  0  0
    6.6163    1.3364    0.0000 H   0  0  0  0  0  0  0  0  0  0  0  0
    7.4785   -0.1658    0.0000 H   0  0  0  0  0  0  0  0  0  0  0  0
    7.3993   -2.8535    0.0000 H   0  0  0  0  0  0  0  0  0  0  0  0
    8.0193   -3.4736    0.0000 H   0  0  0  0  0  0  0  0  0  0  0  0
    8.6393   -2.8535    0.0000 H   0  0  0  0  0  0  0  0  0  0  0  0
   10.2883   -0.1636    0.0000 H   0  0  0  0  0  0  0  0  0  0  0  0
   11.1734    0.6095    0.0000 H   0  0  0  0  0  0  0  0  0  0  0  0
   12.0203    0.8364    0.0000 H   0  0  0  0  0  0  0  0  0  0  0  0
   11.7934    1.6834    0.0000 H   0  0  0  0  0  0  0  0  0  0  0  0
  1 35  1  0  0  0  0
  2 12  1  0  0  0  0
  2 18  1  0  0  0  0
 11  3  1  6  0  0  0
  3 48  1  0  0  0  0
 15  4  1  1  0  0  0
  4 25  1  0  0  0  0
  5 18  2  0  0  0  0
 21  6  1  6  0  0  0
  6 61  1  0  0  0  0
  7 27  2  0  0  0  0
  8 36  1  0  0  0  0
  8 37  1  0  0  0  0
  9 11  1  0  0  0  0
  9 18  1  0  0  0  0
  9 43  1  0  0  0  0
 10 27  1  0  0  0  0
 10 31  1  0  0  0  0
 10 64  1  0  0  0  0
 11 13  1  0  0  0  0
 11 15  1  0  0  0  0
 12 13  1  0  0  0  0
 12 14  1  0  0  0  0
 12 38  1  6  0  0  0
 13 39  1  0  0  0  0
 13 40  1  0  0  0  0
 14 16  1  0  0  0  0
 14 17  1  1  0  0  0
 14 41  1  0  0  0  0
 15 19  1  0  0  0  0
 15 42  1  0  0  0  0
 16 20  2  0  0  0  0
 16 44  1  0  0  0  0
 17 45  1  0  0  0  0
 17 46  1  0  0  0  0
 17 47  1  0  0  0  0
 19 23  2  0  0  0  0
 19 49  1  0  0  0  0
 20 21  1  0  0  0  0
 20 22  1  0  0  0  0
 21 24  1  0  0  0  0
 21 50  1  0  0  0  0
 22 51  1  0  0  0  0
 22 52  1  0  0  0  0
 22 53  1  0  0  0  0
 23 26  1  0  0  0  0
 23 54  1  0  0  0  0
 24 27  1  0  0  0  0
 24 55  1  0  0  0  0
 24 56  1  0  0  0  0
 25 57  1  0  0  0  0
 25 58  1  0  0  0  0
 25 59  1  0  0  0  0
 26 28  2  0  0  0  0
 26 60  1  0  0  0  0
 28 29  1  0  0  0  0
 28 32  1  0  0  0  0
 29 30  1  0  0  0  0
 29 62  1  0  0  0  0
 29 63  1  0  0  0  0
 30 33  2  0  0  0  0
 30 34  1  0  0  0  0
 31 33  1  0  0  0  0
 31 35  2  0  0  0  0
 32 66  1  0  0  0  0
 32 67  1  0  0  0  0
 32 68  1  0  0  0  0
 33 65  1  0  0  0  0
 34 36  2  0  0  0  0
 34 69  1  0  0  0  0
 35 36  1  0  0  0  0
 37 70  1  0  0  0  0
 37 71  1  0  0  0  0
 37 72  1  0  0  0  0
M  END
> <PUBCHEM_COMPOUND_CID>
56928169

> <PUBCHEM_COMPOUND_CANONICALIZED>
1

> <PUBCHEM_CACTVS_COMPLEXITY>
922

> <PUBCHEM_CACTVS_HBOND_ACCEPTOR>
7

> <PUBCHEM_CACTVS_HBOND_DONOR>
4

> <PUBCHEM_CACTVS_ROTATABLE_BOND>
2

> <PUBCHEM_CACTVS_SUBSKEYS>
AAADcfB7OAAEAAAAAAAAAAAAAAAAAAAAAAA8QAAAAAAAAAABAAAAHgIQCAAADR6hmCIyzoLABgCIAiVSWACCCAAhJkAIiAEGb4kPNjfFs5vNcChn9Bnb+AfY0PMOBAABQgAACBAIAAKEAAAQIAAAAAAAAA==

> <PUBCHEM_IUPAC_INCHI>
InChI=1S/C27H35ClN2O7/c1-15-7-6-8-23(36-5)27(34)14-22(37-26(33)30-27)17(3)10-16(2)20(31)13-24(32)29-19-11-18(9-15)12-21(35-4)25(19)28/h6-8,10-12,17,20,22-23,31,34H,9,13-14H2,1-5H3,(H,29,32)(H,30,33)/b8-6+,15-7+,16-10+/t17-,20-,22-,23+,27-/m0/s1

> <PUBCHEM_IUPAC_INCHIKEY>
LWEZDLMHKGUTCV-BNPWFJPTSA-N

> <PUBCHEM_XLOGP3_AA>
2.6

> <PUBCHEM_EXACT_MASS>
534.213279

> <PUBCHEM_MOLECULAR_FORMULA>
C27H35ClN2O7

> <PUBCHEM_MOLECULAR_WEIGHT>
535.029

> <PUBCHEM_OPENEYE_CAN_SMILES>
CC1C=C(C(CC(=O)NC2=C(C(=CC(=C2)CC(=CC=CC(C3(CC1OC(=O)N3)O)OC)C)OC)Cl)O)C

> <PUBCHEM_OPENEYE_ISO_SMILES>
C[C@H]1/C=C(/[C@H](CC(=O)NC2=C(C(=CC(=C2)C/C(=C/C=C/[C@H]([C@]3(C[C@@H]1OC(=O)N3)O)OC)/C)OC)Cl)O)\C

> <PUBCHEM_CACTVS_TPSA>
126

> <PUBCHEM_MONOISOTOPIC_WEIGHT>
534.213279

> <PUBCHEM_TOTAL_CHARGE>
0

> <PUBCHEM_HEAVY_ATOM_COUNT>
37

> <PUBCHEM_ATOM_DEF_STEREO_COUNT>
5

> <PUBCHEM_ATOM_UDEF_STEREO_COUNT>
0

> <PUBCHEM_BOND_DEF_STEREO_COUNT>
3

> <PUBCHEM_BOND_UDEF_STEREO_COUNT>
0

> <PUBCHEM_ISOTOPIC_ATOM_COUNT>
0

> <PUBCHEM_COMPONENT_COUNT>
1

> <PUBCHEM_CACTVS_TAUTO_COUNT>
6

> <PUBCHEM_COORDINATE_TYPE>
1
5
255

> <PUBCHEM_BONDANNOTATIONS>
12  38  6
14  17  5
11  3  6
30  33  8
30  34  8
31  33  8
31  35  8
34  36  8
35  36  8
15  4  5
21  6  6

$$$$

