   Color/Form

     * Dark red crystals from alcohol
     * Maroon powder

   from [1]HSDB

   Taste
        Bitter tasting
   from [2]HSDB

   Melting Point
        260-262 deg C (decomposes)
   from [3]HSDB

   Octanol/Water Partition Coefficient
        log Kow= -0.38 /Estimated/
   from [4]HSDB

   Solubilities

     * Solubility in 2-methoxyethanol is 20 mg/mL; ethanol, 2 mg/mL
     * Soluble in 750 parts chloroform at 20 deg C
     * Soluble in 20 parts water at 20 deg C

   from [5]HSDB

   Spectral Properties

     * UV max in water: 210, 285, 316, 343 nm (e 200-500, 5000-10000,
       50000, 40000)
     * lambda max: 506 nm
     * lambda max is 525 (296) nm in methanol

   from [6]HSDB

   Vapor Pressure
        1.2X10-12 mm Hg at 25 deg C /Estimated/
   from [7]HSDB

   Other Chemical/Physical Properties

     * Henry's Law constant= 1.8X10-20 atm-cu m/mole at 25 deg C
       /Estimated/
     * Hydroxyl radical reaction rate constant= 2.1X10-10 cu
       cm/molecule-sec at 25 deg C /Estimated/

   from [8]HSDB

   Computed Properties
   Molecular Weight                  394.3076 [g/mol]
   Molecular Formula                 C[21]H[20]BrN[3]
   H-Bond Donor                      2
   H-Bond Acceptor                   3
   Rotatable Bond Count              2
   Tautomer Count                    13
   Exact Mass                        393.08406
   MonoIsotopic Mass                 393.08406
   Topological Polar Surface Area    55.9
   Heavy Atom Count                  25
   Formal Charge                     0
   Complexity                        419
   Isotope Atom Count                0
   Defined Atom Stereocenter Count   0
   Undefined Atom Stereocenter Count 0
   Defined Bond Stereocenter Count   0
   Undefined Bond Stereocenter Count 0
   Covalently-Bonded Unit Count      2

References

   1. http://toxnet.nlm.nih.gov/cgi-bin/sis/search/r?dbs+hsdb:@term+@rn+@rel+1239-45-8
   2. http://toxnet.nlm.nih.gov/cgi-bin/sis/search/r?dbs+hsdb:@term+@rn+@rel+1239-45-8
   3. http://toxnet.nlm.nih.gov/cgi-bin/sis/search/r?dbs+hsdb:@term+@rn+@rel+1239-45-8
   4. http://toxnet.nlm.nih.gov/cgi-bin/sis/search/r?dbs+hsdb:@term+@rn+@rel+1239-45-8
   5. http://toxnet.nlm.nih.gov/cgi-bin/sis/search/r?dbs+hsdb:@term+@rn+@rel+1239-45-8
   6. http://toxnet.nlm.nih.gov/cgi-bin/sis/search/r?dbs+hsdb:@term+@rn+@rel+1239-45-8
   7. http://toxnet.nlm.nih.gov/cgi-bin/sis/search/r?dbs+hsdb:@term+@rn+@rel+1239-45-8
   8. http://toxnet.nlm.nih.gov/cgi-bin/sis/search/r?dbs+hsdb:@term+@rn+@rel+1239-45-8
