17395602
  -OEChem-06241222512D

 60 63  0     0  0  0  0  0  0999 V2000
   10.2615    0.4827    0.0000 S   0  0  0  0  0  0  0  0  0  0  0  0
    9.7615    1.3487    0.0000 O   0  0  0  0  0  0  0  0  0  0  0  0
   10.7615   -0.3834    0.0000 O   0  0  0  0  0  0  0  0  0  0  0  0
    6.7974   -2.5173    0.0000 O   0  0  0  0  0  0  0  0  0  0  0  0
    9.3954   -0.0173    0.0000 N   0  0  0  0  0  0  0  0  0  0  0  0
    7.6634   -1.0173    0.0000 N   0  0  0  0  0  0  0  0  0  0  0  0
    2.6166   -0.6809    0.0000 N   0  0  0  0  0  0  0  0  0  0  0  0
    3.1166    0.1851    0.0000 N   0  0  0  0  0  0  0  0  0  0  0  0
    8.5294    0.4827    0.0000 C   0  0  0  0  0  0  0  0  0  0  0  0
    9.3954   -1.0173    0.0000 C   0  0  0  0  0  0  0  0  0  0  0  0
    8.5294   -1.5173    0.0000 C   0  0  0  0  0  0  0  0  0  0  0  0
    7.6634   -0.0173    0.0000 C   0  0  0  0  0  0  0  0  0  0  0  0
   12.8595    0.9827    0.0000 C   0  0  0  0  0  0  0  0  0  0  0  0
   11.1275    0.9827    0.0000 C   0  0  0  0  0  0  0  0  0  0  0  0
   13.7535    0.4480    0.0000 C   0  0  0  0  0  0  0  0  0  0  0  0
   12.8595    1.9827    0.0000 C   0  0  0  0  0  0  0  0  0  0  0  0
   14.6595    0.9619    0.0000 C   0  0  0  0  0  0  0  0  0  0  0  0
   13.7535    2.5173    0.0000 C   0  0  0  0  0  0  0  0  0  0  0  0
   14.6595    2.0035    0.0000 C   0  0  0  0  0  0  0  0  0  0  0  0
   11.9935    0.4827    0.0000 C   0  0  0  0  0  0  0  0  0  0  0  0
    6.7974   -1.5173    0.0000 C   0  0  0  0  0  0  0  0  0  0  0  0
   11.1275    1.9827    0.0000 C   0  0  0  0  0  0  0  0  0  0  0  0
   11.9935    2.4827    0.0000 C   0  0  0  0  0  0  0  0  0  0  0  0
    5.9313   -1.0173    0.0000 C   0  0  0  0  0  0  0  0  0  0  0  0
    5.0653   -1.5173    0.0000 C   0  0  0  0  0  0  0  0  0  0  0  0
    4.1993   -1.0173    0.0000 C   0  0  0  0  0  0  0  0  0  0  0  0
    3.2857   -1.4241    0.0000 C   0  0  0  0  0  0  0  0  0  0  0  0
    4.0948   -0.0228    0.0000 C   0  0  0  0  0  0  0  0  0  0  0  0
    3.0778   -2.4022    0.0000 C   0  0  0  0  0  0  0  0  0  0  0  0
    4.8379    0.6463    0.0000 C   0  0  0  0  0  0  0  0  0  0  0  0
    9.6075   -1.5999    0.0000 H   0  0  0  0  0  0  0  0  0  0  0  0
   10.0060   -0.9097    0.0000 H   0  0  0  0  0  0  0  0  0  0  0  0
    8.9279    0.9576    0.0000 H   0  0  0  0  0  0  0  0  0  0  0  0
    8.1309    0.9576    0.0000 H   0  0  0  0  0  0  0  0  0  0  0  0
    8.1309   -1.9923    0.0000 H   0  0  0  0  0  0  0  0  0  0  0  0
    8.9279   -1.9923    0.0000 H   0  0  0  0  0  0  0  0  0  0  0  0
    7.4513    0.5653    0.0000 H   0  0  0  0  0  0  0  0  0  0  0  0
    7.0528   -0.1250    0.0000 H   0  0  0  0  0  0  0  0  0  0  0  0
   13.3489   -0.0218    0.0000 H   0  0  0  0  0  0  0  0  0  0  0  0
   14.1471   -0.0310    0.0000 H   0  0  0  0  0  0  0  0  0  0  0  0
   14.8686    0.3782    0.0000 H   0  0  0  0  0  0  0  0  0  0  0  0
   15.2704    1.0680    0.0000 H   0  0  0  0  0  0  0  0  0  0  0  0
   14.1471    2.9964    0.0000 H   0  0  0  0  0  0  0  0  0  0  0  0
   13.3489    2.9871    0.0000 H   0  0  0  0  0  0  0  0  0  0  0  0
   15.2704    1.8974    0.0000 H   0  0  0  0  0  0  0  0  0  0  0  0
   14.8686    2.5872    0.0000 H   0  0  0  0  0  0  0  0  0  0  0  0
   11.9935   -0.1373    0.0000 H   0  0  0  0  0  0  0  0  0  0  0  0
   10.5905    2.2927    0.0000 H   0  0  0  0  0  0  0  0  0  0  0  0
   11.9935    3.1027    0.0000 H   0  0  0  0  0  0  0  0  0  0  0  0
    6.3299   -0.5424    0.0000 H   0  0  0  0  0  0  0  0  0  0  0  0
    5.5328   -0.5424    0.0000 H   0  0  0  0  0  0  0  0  0  0  0  0
    4.6668   -1.9923    0.0000 H   0  0  0  0  0  0  0  0  0  0  0  0
    5.4638   -1.9923    0.0000 H   0  0  0  0  0  0  0  0  0  0  0  0
    2.0000   -0.7457    0.0000 H   0  0  0  0  0  0  0  0  0  0  0  0
    2.4714   -2.2733    0.0000 H   0  0  0  0  0  0  0  0  0  0  0  0
    2.9489   -3.0087    0.0000 H   0  0  0  0  0  0  0  0  0  0  0  0
    3.6843   -2.5311    0.0000 H   0  0  0  0  0  0  0  0  0  0  0  0
    5.2528    0.1856    0.0000 H   0  0  0  0  0  0  0  0  0  0  0  0
    5.2986    1.0612    0.0000 H   0  0  0  0  0  0  0  0  0  0  0  0
    4.4230    1.1071    0.0000 H   0  0  0  0  0  0  0  0  0  0  0  0
  1  2  2  0  0  0  0
  1  3  2  0  0  0  0
  1  5  1  0  0  0  0
  1 14  1  0  0  0  0
  4 21  2  0  0  0  0
  5  9  1  0  0  0  0
  5 10  1  0  0  0  0
  6 11  1  0  0  0  0
  6 12  1  0  0  0  0
  6 21  1  0  0  0  0
  7  8  1  0  0  0  0
  7 27  1  0  0  0  0
  7 54  1  0  0  0  0
  8 28  2  0  0  0  0
  9 12  1  0  0  0  0
  9 33  1  0  0  0  0
  9 34  1  0  0  0  0
 10 11  1  0  0  0  0
 10 31  1  0  0  0  0
 10 32  1  0  0  0  0
 11 35  1  0  0  0  0
 11 36  1  0  0  0  0
 12 37  1  0  0  0  0
 12 38  1  0  0  0  0
 13 15  1  0  0  0  0
 13 16  2  0  0  0  0
 13 20  1  0  0  0  0
 14 20  2  0  0  0  0
 14 22  1  0  0  0  0
 15 17  1  0  0  0  0
 15 39  1  0  0  0  0
 15 40  1  0  0  0  0
 16 18  1  0  0  0  0
 16 23  1  0  0  0  0
 17 19  1  0  0  0  0
 17 41  1  0  0  0  0
 17 42  1  0  0  0  0
 18 19  1  0  0  0  0
 18 43  1  0  0  0  0
 18 44  1  0  0  0  0
 19 45  1  0  0  0  0
 19 46  1  0  0  0  0
 20 47  1  0  0  0  0
 21 24  1  0  0  0  0
 22 23  2  0  0  0  0
 22 48  1  0  0  0  0
 23 49  1  0  0  0  0
 24 25  1  0  0  0  0
 24 50  1  0  0  0  0
 24 51  1  0  0  0  0
 25 26  1  0  0  0  0
 25 52  1  0  0  0  0
 25 53  1  0  0  0  0
 26 27  2  0  0  0  0
 26 28  1  0  0  0  0
 27 29  1  0  0  0  0
 28 30  1  0  0  0  0
 29 55  1  0  0  0  0
 29 56  1  0  0  0  0
 29 57  1  0  0  0  0
 30 58  1  0  0  0  0
 30 59  1  0  0  0  0
 30 60  1  0  0  0  0
M  END
> <PUBCHEM_COMPOUND_CID>
17395602

> <PUBCHEM_COMPOUND_CANONICALIZED>
1

> <PUBCHEM_CACTVS_COMPLEXITY>
702

> <PUBCHEM_CACTVS_HBOND_ACCEPTOR>
5

> <PUBCHEM_CACTVS_HBOND_DONOR>
1

> <PUBCHEM_CACTVS_ROTATABLE_BOND>
5

> <PUBCHEM_CACTVS_SUBSKEYS>
AAADceB7sABAAAAAAAAAAAAAAAAAAWAAAAA8YIAAAAAAAADBwAAAHgQYQAAADAjB3gQygZNjAAKqAyVyUHDSBBAgAAAYuTk4RJgIYDKA0dCUpABgngCIyAcYiYAekAAAgAAQAAAgAAEAACAAAAAAAAAAAA==

> <PUBCHEM_IUPAC_OPENEYE_NAME>
3-(3,5-dimethyl-1H-pyrazol-4-yl)-1-(4-tetralin-6-ylsulfonylpiperazin-1-yl)propan-1-one

> <PUBCHEM_IUPAC_CAS_NAME>
3-(3,5-dimethyl-1H-pyrazol-4-yl)-1-[4-(5,6,7,8-tetrahydronaphthalen-2-ylsulfonyl)-1-piperazinyl]-1-propanone

> <PUBCHEM_IUPAC_NAME>
3-(3,5-dimethyl-1H-pyrazol-4-yl)-1-[4-(5,6,7,8-tetrahydronaphthalen-2-ylsulfonyl)piperazin-1-yl]propan-1-one

> <PUBCHEM_IUPAC_SYSTEMATIC_NAME>
3-(3,5-dimethyl-1H-pyrazol-4-yl)-1-[4-(5,6,7,8-tetrahydronaphthalen-2-ylsulfonyl)piperazin-1-yl]propan-1-one

> <PUBCHEM_IUPAC_TRADITIONAL_NAME>
3-(3,5-dimethyl-1H-pyrazol-4-yl)-1-(4-tetralin-6-ylsulfonylpiperazino)propan-1-one

> <PUBCHEM_IUPAC_INCHI>
InChI=1S/C22H30N4O3S/c1-16-21(17(2)24-23-16)9-10-22(27)25-11-13-26(14-12-25)30(28,29)20-8-7-18-5-3-4-6-19(18)15-20/h7-8,15H,3-6,9-14H2,1-2H3,(H,23,24)

> <PUBCHEM_IUPAC_INCHIKEY>
SNKLQSINVVJPEU-UHFFFAOYSA-N

> <PUBCHEM_XLOGP3_AA>
2.7

> <PUBCHEM_EXACT_MASS>
430.203862

> <PUBCHEM_MOLECULAR_FORMULA>
C22H30N4O3S

> <PUBCHEM_MOLECULAR_WEIGHT>
430.5636

> <PUBCHEM_OPENEYE_CAN_SMILES>
CC1=C(C(=NN1)C)CCC(=O)N2CCN(CC2)S(=O)(=O)C3=CC4=C(CCCC4)C=C3

> <PUBCHEM_OPENEYE_ISO_SMILES>
CC1=C(C(=NN1)C)CCC(=O)N2CCN(CC2)S(=O)(=O)C3=CC4=C(CCCC4)C=C3

> <PUBCHEM_CACTVS_TPSA>
94.8

> <PUBCHEM_MONOISOTOPIC_WEIGHT>
430.203862

> <PUBCHEM_TOTAL_CHARGE>
0

> <PUBCHEM_HEAVY_ATOM_COUNT>
30

> <PUBCHEM_ATOM_DEF_STEREO_COUNT>
0

> <PUBCHEM_ATOM_UDEF_STEREO_COUNT>
0

> <PUBCHEM_BOND_DEF_STEREO_COUNT>
0

> <PUBCHEM_BOND_UDEF_STEREO_COUNT>
0

> <PUBCHEM_ISOTOPIC_ATOM_COUNT>
0

> <PUBCHEM_COMPONENT_COUNT>
1

> <PUBCHEM_CACTVS_TAUTO_COUNT>
1

> <PUBCHEM_COORDINATE_TYPE>
1
5
255

> <PUBCHEM_BONDANNOTATIONS>
13  16  8
13  20  8
14  20  8
14  22  8
16  23  8
22  23  8
26  27  8
26  28  8
7  27  8
7  8  8
8  28  8

$$$$

