   Color/Form

     * COLORLESS TO LIGHT YELLOW LIQUID
     * Moderately viscous, strongly refractive liquid

   from [1]HSDB

   Odor
        RESEMBLE ORANGE FLOWERS
   from [2]HSDB

   Taste
        SLIGHT, CHARACTERISTIC FATTY TASTE
   from [3]HSDB

   Boiling Point
        232.9 deg C at 760 mm Hg
   from [4]HSDB

   Melting Point
        6.4 deg C
   from [5]HSDB

   Corrosivity
        NON-CORROSIVE
   from [6]HSDB

   Critical Temperature and Pressure

     * Critical temp: 427 deg C; critical pressure: 22 atm
     * Critical temp = 690.00 deg K; Critical pressure = 2.3700X10+6 Pa

   from [7]HSDB

   Density/Specific Gravity
        0.8297 at 20 deg C/4 deg C
   from [8]HSDB

   Heat of Combustion
        -9980 cal/g
   from [9]HSDB

   Heat of Vaporization
        8.1318X10+7 J/kmol at melting point
   from [10]HSDB

   Octanol/Water Partition Coefficient
        log Kow= 4.57
   from [11]HSDB

   Solubilities

     * Soluble in carbon tetrachloride; miscible in ethanol, ether,
       acetone, benzene, chloroform
     * 1:3 IN 60% ALCOHOL
     * SOLUBLE IN GLACIAL ACETIC ACID
     * In water, 37 mg/L at 25 deg C

   from [12]HSDB

   Spectral Properties

     * SADTLER REFERENCE NUMBER: 159 (IR, PRISM); 10965 (IR, GRATING); 282
       (NMR, VARIAN)
     * Index of refraction = 1.43587 at 20 deg C/D
     * IR: 4811 (Coblentz Society Spectral Collection)
     * 1H NMR: 10207 (Sadtler Research Laboratories Spectral Collection)
     * Raman: 10207 (Sadtler Research Laboratories Spectral Collection)
     * 13C NMR: 412 (Johnson and Jankowski, Carbon-13 NMR Spectra, John
       Wiley $ Sons, New York)
     * MASS: 60918 (NIST/EPA/MSDC Mass Spectral database, 1990 version);
       116 (Aldermaston, Eight Peak Index of Mass Spectra, UK)

   from [13]HSDB

   Surface Tension
        28.9 dynes/cm at 20 deg C
   from [14]HSDB

   Vapor Density
        5.46 (AIR= 1)
   from [15]HSDB

   Vapor Pressure
        0.00851 mm Hg at 25 deg C
   from [16]HSDB

   Viscosity
        13.8 mPa-s at 20 deg C
   from [17]HSDB

   Other Chemical/Physical Properties

     * Solidifies /at 6.4 deg C/, forming rectangular plates or leaflets
     * BP: 115 to 120 deg C at 15 mm Hg; 109.5 deg C at 8 mm Hg
     * CONVERSION FACTORS: 1 MG/L= 154.5 PPM; 1 PPM= 6.47 MG/CU M AT 25
       DEG C, 760 MM HG
     * Liquid molar volume = 0.191772 cu m/kmol
     * Heat of formation = -4.0166X10+8 J/kmol
     * Heat of fusion = 3.7656X10+7 J/kmol (at melting pt)
     * Heat of combustion = -6.1170X10+9 J/kmol
     * Surface tension = 0.029742 N/m (at melting point)
     * Henry's Law constant = 3.2X10-5 atm-cu m/mol at 25 deg C
     * Hydroxyl radical reaction rate constant = 1.5X10-11 cu cm/molec-sec
       at 25 deg C (est)

   from [18]HSDB

   Computed Properties
   Molecular Weight                  158.28108 [g/mol]
   Molecular Formula                 C[10]H[22]O
   XLogP3                            4.6
   H-Bond Donor                      1
   H-Bond Acceptor                   1
   Rotatable Bond Count              8
   Exact Mass                        158.167065
   MonoIsotopic Mass                 158.167065
   Topological Polar Surface Area    20.2
   Heavy Atom Count                  11
   Formal Charge                     0
   Complexity                        61.9
   Isotope Atom Count                0
   Defined Atom Stereocenter Count   0
   Undefined Atom Stereocenter Count 0
   Defined Bond Stereocenter Count   0
   Undefined Bond Stereocenter Count 0
   Covalently-Bonded Unit Count      1
   Feature 3D Acceptor Count         1
   Feature 3D Donor Count            1
   Feature 3D Hydrophobe Count       1
   Effective Rotor Count             8
   Conformer Sampling RMSD           0.8
   CID Conformer Count               [19]191

References

   1. http://toxnet.nlm.nih.gov/cgi-bin/sis/search/r?dbs+hsdb:@term+@rn+@rel+112-30-1
   2. http://toxnet.nlm.nih.gov/cgi-bin/sis/search/r?dbs+hsdb:@term+@rn+@rel+112-30-1
   3. http://toxnet.nlm.nih.gov/cgi-bin/sis/search/r?dbs+hsdb:@term+@rn+@rel+112-30-1
   4. http://toxnet.nlm.nih.gov/cgi-bin/sis/search/r?dbs+hsdb:@term+@rn+@rel+112-30-1
   5. http://toxnet.nlm.nih.gov/cgi-bin/sis/search/r?dbs+hsdb:@term+@rn+@rel+112-30-1
   6. http://toxnet.nlm.nih.gov/cgi-bin/sis/search/r?dbs+hsdb:@term+@rn+@rel+112-30-1
   7. http://toxnet.nlm.nih.gov/cgi-bin/sis/search/r?dbs+hsdb:@term+@rn+@rel+112-30-1
   8. http://toxnet.nlm.nih.gov/cgi-bin/sis/search/r?dbs+hsdb:@term+@rn+@rel+112-30-1
   9. http://toxnet.nlm.nih.gov/cgi-bin/sis/search/r?dbs+hsdb:@term+@rn+@rel+112-30-1
  10. http://toxnet.nlm.nih.gov/cgi-bin/sis/search/r?dbs+hsdb:@term+@rn+@rel+112-30-1
  11. http://toxnet.nlm.nih.gov/cgi-bin/sis/search/r?dbs+hsdb:@term+@rn+@rel+112-30-1
  12. http://toxnet.nlm.nih.gov/cgi-bin/sis/search/r?dbs+hsdb:@term+@rn+@rel+112-30-1
  13. http://toxnet.nlm.nih.gov/cgi-bin/sis/search/r?dbs+hsdb:@term+@rn+@rel+112-30-1
  14. http://toxnet.nlm.nih.gov/cgi-bin/sis/search/r?dbs+hsdb:@term+@rn+@rel+112-30-1
  15. http://toxnet.nlm.nih.gov/cgi-bin/sis/search/r?dbs+hsdb:@term+@rn+@rel+112-30-1
  16. http://toxnet.nlm.nih.gov/cgi-bin/sis/search/r?dbs+hsdb:@term+@rn+@rel+112-30-1
  17. http://toxnet.nlm.nih.gov/cgi-bin/sis/search/r?dbs+hsdb:@term+@rn+@rel+112-30-1
  18. http://toxnet.nlm.nih.gov/cgi-bin/sis/search/r?dbs+hsdb:@term+@rn+@rel+112-30-1
  19. http://pubchem.ncbi.nlm.nih.gov/vw3d/vw3d.cgi?cid=8174
