3309
  -OEChem-06251223192D

 57 60  0     1  0  0  0  0  0999 V2000
    8.9030    0.1635    0.0000 O   0  0  0  0  0  0  0  0  0  0  0  0
    4.9889   -4.1718    0.0000 O   0  0  0  0  0  0  0  0  0  0  0  0
   10.5028    2.2708    0.0000 N   0  0  0  0  0  0  0  0  0  0  0  0
    5.2619   -2.4166    0.0000 N   0  0  0  0  0  0  0  0  0  0  0  0
    4.9889   -0.6613    0.0000 N   0  0  0  0  0  0  0  0  0  0  0  0
   11.4813    2.4770    0.0000 C   0  0  0  0  0  0  0  0  0  0  0  0
    9.8349    3.0151    0.0000 C   0  0  0  0  0  0  0  0  0  0  0  0
   11.7920    3.4275    0.0000 C   0  0  0  0  0  0  0  0  0  0  0  0
   10.1456    3.9656    0.0000 C   0  0  0  0  0  0  0  0  0  0  0  0
   11.1241    4.1718    0.0000 C   0  0  0  0  0  0  0  0  0  0  0  0
   10.1921    1.3203    0.0000 C   0  0  0  0  0  0  0  0  0  0  0  0
    4.6783   -1.6119    0.0000 C   0  0  3  0  0  0  0  0  0  0  0  0
    3.7320   -1.9166    0.0000 C   0  0  0  0  0  0  0  0  0  0  0  0
    3.7320   -2.9166    0.0000 C   0  0  0  0  0  0  0  0  0  0  0  0
    9.2136    1.1141    0.0000 C   0  0  0  0  0  0  0  0  0  0  0  0
    4.6783   -3.2213    0.0000 C   0  0  0  0  0  0  0  0  0  0  0  0
    6.2619   -2.4166    0.0000 C   0  0  0  0  0  0  0  0  0  0  0  0
    2.8660   -1.4166    0.0000 C   0  0  0  0  0  0  0  0  0  0  0  0
    5.9674   -0.4551    0.0000 C   0  0  0  0  0  0  0  0  0  0  0  0
    2.8660   -3.4166    0.0000 C   0  0  0  0  0  0  0  0  0  0  0  0
    6.7619   -3.2826    0.0000 C   0  0  0  0  0  0  0  0  0  0  0  0
    2.0000   -1.9166    0.0000 C   0  0  0  0  0  0  0  0  0  0  0  0
    7.9244   -0.0427    0.0000 C   0  0  0  0  0  0  0  0  0  0  0  0
    2.0000   -2.9166    0.0000 C   0  0  0  0  0  0  0  0  0  0  0  0
    6.6353   -1.1994    0.0000 C   0  0  0  0  0  0  0  0  0  0  0  0
    6.2781    0.4954    0.0000 C   0  0  0  0  0  0  0  0  0  0  0  0
    7.6138   -0.9932    0.0000 C   0  0  0  0  0  0  0  0  0  0  0  0
    7.2566    0.7016    0.0000 C   0  0  0  0  0  0  0  0  0  0  0  0
    9.2880    3.3071    0.0000 H   0  0  0  0  0  0  0  0  0  0  0  0
    9.4524    2.5272    0.0000 H   0  0  0  0  0  0  0  0  0  0  0  0
   11.5019    1.8574    0.0000 H   0  0  0  0  0  0  0  0  0  0  0  0
   12.0951    2.3897    0.0000 H   0  0  0  0  0  0  0  0  0  0  0  0
   10.1250    4.5853    0.0000 H   0  0  0  0  0  0  0  0  0  0  0  0
    9.5318    4.0530    0.0000 H   0  0  0  0  0  0  0  0  0  0  0  0
   12.3389    3.1355    0.0000 H   0  0  0  0  0  0  0  0  0  0  0  0
   12.1745    3.9154    0.0000 H   0  0  0  0  0  0  0  0  0  0  0  0
   11.6505    4.4995    0.0000 H   0  0  0  0  0  0  0  0  0  0  0  0
   10.8929    4.7471    0.0000 H   0  0  0  0  0  0  0  0  0  0  0  0
   10.2127    0.7006    0.0000 H   0  0  0  0  0  0  0  0  0  0  0  0
   10.8059    1.2329    0.0000 H   0  0  0  0  0  0  0  0  0  0  0  0
    4.2408   -1.1725    0.0000 H   0  0  0  0  0  0  0  0  0  0  0  0
    9.1930    1.7337    0.0000 H   0  0  0  0  0  0  0  0  0  0  0  0
    8.5998    1.2014    0.0000 H   0  0  0  0  0  0  0  0  0  0  0  0
    6.8445   -2.2045    0.0000 H   0  0  0  0  0  0  0  0  0  0  0  0
    6.1542   -1.8060    0.0000 H   0  0  0  0  0  0  0  0  0  0  0  0
    4.5749   -0.1999    0.0000 H   0  0  0  0  0  0  0  0  0  0  0  0
    2.8660   -0.7966    0.0000 H   0  0  0  0  0  0  0  0  0  0  0  0
    2.8660   -4.0366    0.0000 H   0  0  0  0  0  0  0  0  0  0  0  0
    6.2249   -3.5926    0.0000 H   0  0  0  0  0  0  0  0  0  0  0  0
    7.0719   -3.8196    0.0000 H   0  0  0  0  0  0  0  0  0  0  0  0
    7.2988   -2.9726    0.0000 H   0  0  0  0  0  0  0  0  0  0  0  0
    1.4631   -1.6066    0.0000 H   0  0  0  0  0  0  0  0  0  0  0  0
    1.4631   -3.2266    0.0000 H   0  0  0  0  0  0  0  0  0  0  0  0
    6.4427   -1.7887    0.0000 H   0  0  0  0  0  0  0  0  0  0  0  0
    5.8640    0.9569    0.0000 H   0  0  0  0  0  0  0  0  0  0  0  0
    8.0279   -1.4547    0.0000 H   0  0  0  0  0  0  0  0  0  0  0  0
    7.4492    1.2910    0.0000 H   0  0  0  0  0  0  0  0  0  0  0  0
  1 15  1  0  0  0  0
  1 23  1  0  0  0  0
  2 16  2  0  0  0  0
  3  6  1  0  0  0  0
  3  7  1  0  0  0  0
  3 11  1  0  0  0  0
  4 12  1  0  0  0  0
  4 16  1  0  0  0  0
  4 17  1  0  0  0  0
  5 12  1  0  0  0  0
  5 19  1  0  0  0  0
  5 46  1  0  0  0  0
  6  8  1  0  0  0  0
  6 31  1  0  0  0  0
  6 32  1  0  0  0  0
  7  9  1  0  0  0  0
  7 29  1  0  0  0  0
  7 30  1  0  0  0  0
  8 10  1  0  0  0  0
  8 35  1  0  0  0  0
  8 36  1  0  0  0  0
  9 10  1  0  0  0  0
  9 33  1  0  0  0  0
  9 34  1  0  0  0  0
 10 37  1  0  0  0  0
 10 38  1  0  0  0  0
 11 15  1  0  0  0  0
 11 39  1  0  0  0  0
 11 40  1  0  0  0  0
 12 13  1  0  0  0  0
 12 41  1  0  0  0  0
 13 14  1  0  0  0  0
 13 18  2  0  0  0  0
 14 16  1  0  0  0  0
 14 20  2  0  0  0  0
 15 42  1  0  0  0  0
 15 43  1  0  0  0  0
 17 21  1  0  0  0  0
 17 44  1  0  0  0  0
 17 45  1  0  0  0  0
 18 22  1  0  0  0  0
 18 47  1  0  0  0  0
 19 25  2  0  0  0  0
 19 26  1  0  0  0  0
 20 24  1  0  0  0  0
 20 48  1  0  0  0  0
 21 49  1  0  0  0  0
 21 50  1  0  0  0  0
 21 51  1  0  0  0  0
 22 24  2  0  0  0  0
 22 52  1  0  0  0  0
 23 27  2  0  0  0  0
 23 28  1  0  0  0  0
 24 53  1  0  0  0  0
 25 27  1  0  0  0  0
 25 54  1  0  0  0  0
 26 28  2  0  0  0  0
 26 55  1  0  0  0  0
 27 56  1  0  0  0  0
 28 57  1  0  0  0  0
M  END
> <PUBCHEM_COMPOUND_CID>
3309

> <PUBCHEM_COMPOUND_CANONICALIZED>
1

> <PUBCHEM_CACTVS_COMPLEXITY>
500

> <PUBCHEM_CACTVS_HBOND_ACCEPTOR>
4

> <PUBCHEM_CACTVS_HBOND_DONOR>
1

> <PUBCHEM_CACTVS_ROTATABLE_BOND>
7

> <PUBCHEM_CACTVS_SUBSKEYS>
AAADceB7MAAAAAAAAAAAAAAAAAAAAWAAAAA8YIAAAAAAAFgBQAAAHgAQAAAADAzhmAYzxoPABACIAiVSUACCCAAlIgAIiIEObMiOJjLEtZuHOSjs1xPY6ae8yICOgEAAAAAQAAAAgAAAACAAAAAAAAAAAA==

> <PUBCHEM_IUPAC_OPENEYE_NAME>
2-ethyl-3-[4-[2-(1-piperidyl)ethoxy]anilino]isoindolin-1-one

> <PUBCHEM_IUPAC_CAS_NAME>
2-ethyl-3-[4-[2-(1-piperidinyl)ethoxy]anilino]-3H-isoindol-1-one

> <PUBCHEM_IUPAC_NAME>
2-ethyl-3-[4-(2-piperidin-1-ylethoxy)anilino]-3H-isoindol-1-one

> <PUBCHEM_IUPAC_SYSTEMATIC_NAME>
2-ethyl-3-[[4-(2-piperidin-1-ylethoxy)phenyl]amino]-3H-isoindol-1-one

> <PUBCHEM_IUPAC_TRADITIONAL_NAME>
2-ethyl-3-[4-(2-piperidinoethoxy)anilino]isoindolin-1-one

> <PUBCHEM_IUPAC_INCHI>
InChI=1S/C23H29N3O2/c1-2-26-22(20-8-4-5-9-21(20)23(26)27)24-18-10-12-19(13-11-18)28-17-16-25-14-6-3-7-15-25/h4-5,8-13,22,24H,2-3,6-7,14-17H2,1H3

> <PUBCHEM_IUPAC_INCHIKEY>
ITIONVBQFUNVJV-UHFFFAOYSA-N

> <PUBCHEM_XLOGP3_AA>
4

> <PUBCHEM_EXACT_MASS>
379.225977

> <PUBCHEM_MOLECULAR_FORMULA>
C23H29N3O2

> <PUBCHEM_MOLECULAR_WEIGHT>
379.49526

> <PUBCHEM_OPENEYE_CAN_SMILES>
CCN1C(C2=CC=CC=C2C1=O)NC3=CC=C(C=C3)OCCN4CCCCC4

> <PUBCHEM_OPENEYE_ISO_SMILES>
CCN1C(C2=CC=CC=C2C1=O)NC3=CC=C(C=C3)OCCN4CCCCC4

> <PUBCHEM_CACTVS_TPSA>
44.8

> <PUBCHEM_MONOISOTOPIC_WEIGHT>
379.225977

> <PUBCHEM_TOTAL_CHARGE>
0

> <PUBCHEM_HEAVY_ATOM_COUNT>
28

> <PUBCHEM_ATOM_DEF_STEREO_COUNT>
0

> <PUBCHEM_ATOM_UDEF_STEREO_COUNT>
1

> <PUBCHEM_BOND_DEF_STEREO_COUNT>
0

> <PUBCHEM_BOND_UDEF_STEREO_COUNT>
0

> <PUBCHEM_ISOTOPIC_ATOM_COUNT>
0

> <PUBCHEM_COMPONENT_COUNT>
1

> <PUBCHEM_CACTVS_TAUTO_COUNT>
1

> <PUBCHEM_COORDINATE_TYPE>
1
5
255

> <PUBCHEM_BONDANNOTATIONS>
13  14  8
13  18  8
14  20  8
18  22  8
19  25  8
19  26  8
20  24  8
22  24  8
23  27  8
23  28  8
25  27  8
26  28  8
12  5  3

$$$$

