47204991
  -OEChem-06241222562D

 32 34  0     0  0  0  0  0  0999 V2000
    2.6454    4.3898    0.0000 O   0  0  0  0  0  0  0  0  0  0  0  0
    4.9483    0.4468    0.0000 O   0  0  0  0  0  0  0  0  0  0  0  0
    3.5471    1.4648    0.0000 N   0  0  0  0  0  0  0  0  0  0  0  0
    2.8660   -1.7966    0.0000 N   0  0  0  0  0  0  0  0  0  0  0  0
    3.6750   -1.2088    0.0000 N   0  0  0  0  0  0  0  0  0  0  0  0
    2.0570   -1.2088    0.0000 N   0  0  0  0  0  0  0  0  0  0  0  0
    4.1349    2.2738    0.0000 C   0  0  0  0  0  0  0  0  0  0  0  0
    3.7281    3.1874    0.0000 C   0  0  0  0  0  0  0  0  0  0  0  0
    3.3660   -0.2577    0.0000 C   0  0  0  0  0  0  0  0  0  0  0  0
    2.8660   -2.7966    0.0000 C   0  0  0  0  0  0  0  0  0  0  0  0
    3.9538    0.5513    0.0000 C   0  0  0  0  0  0  0  0  0  0  0  0
    4.2281    4.0534    0.0000 C   0  0  0  0  0  0  0  0  0  0  0  0
    2.7500    3.3953    0.0000 C   0  0  0  0  0  0  0  0  0  0  0  0
    2.3660   -0.2577    0.0000 C   0  0  0  0  0  0  0  0  0  0  0  0
    2.0000   -3.2966    0.0000 C   0  0  0  0  0  0  0  0  0  0  0  0
    3.7320   -3.2966    0.0000 C   0  0  0  0  0  0  0  0  0  0  0  0
    3.5590    4.7966    0.0000 C   0  0  0  0  0  0  0  0  0  0  0  0
    2.0000   -4.2966    0.0000 C   0  0  0  0  0  0  0  0  0  0  0  0
    3.7320   -4.2966    0.0000 C   0  0  0  0  0  0  0  0  0  0  0  0
    2.8660   -4.7966    0.0000 C   0  0  0  0  0  0  0  0  0  0  0  0
    4.5656    1.8279    0.0000 H   0  0  0  0  0  0  0  0  0  0  0  0
    4.6489    2.6206    0.0000 H   0  0  0  0  0  0  0  0  0  0  0  0
    2.9305    1.5296    0.0000 H   0  0  0  0  0  0  0  0  0  0  0  0
    4.8447    4.1182    0.0000 H   0  0  0  0  0  0  0  0  0  0  0  0
    2.2892    2.9804    0.0000 H   0  0  0  0  0  0  0  0  0  0  0  0
    2.0016    0.2439    0.0000 H   0  0  0  0  0  0  0  0  0  0  0  0
    1.4631   -2.9866    0.0000 H   0  0  0  0  0  0  0  0  0  0  0  0
    4.2690   -2.9866    0.0000 H   0  0  0  0  0  0  0  0  0  0  0  0
    3.6879    5.4030    0.0000 H   0  0  0  0  0  0  0  0  0  0  0  0
    1.4631   -4.6066    0.0000 H   0  0  0  0  0  0  0  0  0  0  0  0
    4.2690   -4.6066    0.0000 H   0  0  0  0  0  0  0  0  0  0  0  0
    2.8660   -5.4166    0.0000 H   0  0  0  0  0  0  0  0  0  0  0  0
  1 13  1  0  0  0  0
  1 17  1  0  0  0  0
  2 11  2  0  0  0  0
  3  7  1  0  0  0  0
  3 11  1  0  0  0  0
  3 23  1  0  0  0  0
  4  5  1  0  0  0  0
  4  6  1  0  0  0  0
  4 10  1  0  0  0  0
  5  9  2  0  0  0  0
  6 14  2  0  0  0  0
  7  8  1  0  0  0  0
  7 21  1  0  0  0  0
  7 22  1  0  0  0  0
  8 12  1  0  0  0  0
  8 13  2  0  0  0  0
  9 11  1  0  0  0  0
  9 14  1  0  0  0  0
 10 15  2  0  0  0  0
 10 16  1  0  0  0  0
 12 17  2  0  0  0  0
 12 24  1  0  0  0  0
 13 25  1  0  0  0  0
 14 26  1  0  0  0  0
 15 18  1  0  0  0  0
 15 27  1  0  0  0  0
 16 19  2  0  0  0  0
 16 28  1  0  0  0  0
 17 29  1  0  0  0  0
 18 20  2  0  0  0  0
 18 30  1  0  0  0  0
 19 20  1  0  0  0  0
 19 31  1  0  0  0  0
 20 32  1  0  0  0  0
M  END
> <PUBCHEM_COMPOUND_CID>
47204991

> <PUBCHEM_COMPOUND_CANONICALIZED>
1

> <PUBCHEM_CACTVS_COMPLEXITY>
333

> <PUBCHEM_CACTVS_HBOND_ACCEPTOR>
4

> <PUBCHEM_CACTVS_HBOND_DONOR>
1

> <PUBCHEM_CACTVS_ROTATABLE_BOND>
4

> <PUBCHEM_CACTVS_SUBSKEYS>
AAADccBzsAAAAAAAAAAAAAAAAAAAAWJAAAAwAAAAAAAAAAAB8AAAHgAYAAAADAjhngY8xJLABECqAz130ACSDAQmsgAYmIG+fMgMZjqE9ZuWOajmzhGI6cc0AAAIAAAAAAAAAAAAAAAAAAAAAAAAAAAAAA==

> <PUBCHEM_IUPAC_OPENEYE_NAME>
N-(3-furylmethyl)-2-phenyl-triazole-4-carboxamide

> <PUBCHEM_IUPAC_CAS_NAME>
N-(3-furanylmethyl)-2-phenyl-4-triazolecarboxamide

> <PUBCHEM_IUPAC_NAME>
N-(furan-3-ylmethyl)-2-phenyltriazole-4-carboxamide

> <PUBCHEM_IUPAC_SYSTEMATIC_NAME>
N-(furan-3-ylmethyl)-2-phenyl-1,2,3-triazole-4-carboxamide

> <PUBCHEM_IUPAC_TRADITIONAL_NAME>
N-(3-furfuryl)-2-phenyl-triazole-4-carboxamide

> <PUBCHEM_IUPAC_INCHI>
InChI=1S/C14H12N4O2/c19-14(15-8-11-6-7-20-10-11)13-9-16-18(17-13)12-4-2-1-3-5-12/h1-7,9-10H,8H2,(H,15,19)

> <PUBCHEM_IUPAC_INCHIKEY>
XOXYPMDBUJUDLC-UHFFFAOYSA-N

> <PUBCHEM_XLOGP3_AA>
2.1

> <PUBCHEM_EXACT_MASS>
268.096026

> <PUBCHEM_MOLECULAR_FORMULA>
C14H12N4O2

> <PUBCHEM_MOLECULAR_WEIGHT>
268.27068

> <PUBCHEM_OPENEYE_CAN_SMILES>
C1=CC=C(C=C1)N2N=CC(=N2)C(=O)NCC3=COC=C3

> <PUBCHEM_OPENEYE_ISO_SMILES>
C1=CC=C(C=C1)N2N=CC(=N2)C(=O)NCC3=COC=C3

> <PUBCHEM_CACTVS_TPSA>
73

> <PUBCHEM_MONOISOTOPIC_WEIGHT>
268.096026

> <PUBCHEM_TOTAL_CHARGE>
0

> <PUBCHEM_HEAVY_ATOM_COUNT>
20

> <PUBCHEM_ATOM_DEF_STEREO_COUNT>
0

> <PUBCHEM_ATOM_UDEF_STEREO_COUNT>
0

> <PUBCHEM_BOND_DEF_STEREO_COUNT>
0

> <PUBCHEM_BOND_UDEF_STEREO_COUNT>
0

> <PUBCHEM_ISOTOPIC_ATOM_COUNT>
0

> <PUBCHEM_COMPONENT_COUNT>
1

> <PUBCHEM_CACTVS_TAUTO_COUNT>
2

> <PUBCHEM_COORDINATE_TYPE>
1
5
255

> <PUBCHEM_BONDANNOTATIONS>
1  13  8
1  17  8
10  15  8
10  16  8
12  17  8
15  18  8
16  19  8
18  20  8
19  20  8
4  5  8
4  6  8
5  9  8
6  14  8
8  12  8
8  13  8
9  14  8

$$$$

