   Color/Form
        Colorless liquid
   from [1]HSDB

   Odor
        Mild amine odor
   from [2]HSDB

   Boiling Point
        202 deg C @ 760 mm Hg
   from [3]HSDB

   Melting Point
        -25 deg C
   from [4]HSDB

   Critical Temperature and Pressure
        Critical temperature = 451 deg C; Critical pressure = 4.78 MPa
   from [5]HSDB

   Density/Specific Gravity
        1.027 at 25 deg C/25 deg C
   from [6]HSDB

   Heat of Combustion
        719 Kcal/mol
   from [7]HSDB

   Heat of Vaporization
        127.3 Kcal/Kg
   from [8]HSDB

   Octanol/Water Partition Coefficient
        log Kow= -0.54
   from [9]HSDB

   pH
        pH = 7.7-8
   from [10]HSDB

   Solubilities

     * Miscible with castor oil.
     * Miscible with water, lower alcohols & ketones, ethyl acetate,
       chloroform and benzene.
     * Moderately soluble in aliphatic hydrocarbons and dissolves many
       organic and inorganic compounds.

   from [11]HSDB

   Spectral Properties

     * MAX ABSORPTION (METHANOL): 205 NM (LOG E= 3.46); INDEX OF
       REFRACTION: 1.4684 AT 20 DEG C/D; SADTLER REFERENCE NUMBER: 6528
       (IR, PRISM); 116 (VARIAN, NMR)
     * IR 6528 (Sadtler Research Laboratories Prism Collection)
     * UV 4-43 (Organic Electronic Spectral Data, Phillips et al, John
       Wiley & Sons, New York
     * NMR 116 (Varian Associates NMR Spectra Catalogue)
     * MASS 4006 (National Bureau of Standards EPA-NIH Mass Spectra Data
       Base, NSRDS-NBS-63

   from [12]HSDB

   Surface Tension
        40.7 dynes/cm
   from [13]HSDB

   Vapor Density
        3.4 (Air= 1)
   from [14]HSDB

   Vapor Pressure
        3.45X10-1 mm Hg @ 25 deg C
   from [15]HSDB

   Viscosity
        1.65 CP at 25 deg C
   from [16]HSDB

   Other Chemical/Physical Properties
        Hydroxy radical rate constant = 7.4X10-11 cu cm/molecule-sec @ 25
   deg C
   from [17]HSDB

   Computed Properties
   Molecular Weight                  99.13106 [g/mol]
   Molecular Formula                 C[5]H[9]NO
   XLogP3                            -0.5
   H-Bond Donor                      0
   H-Bond Acceptor                   1
   Rotatable Bond Count              0
   Tautomer Count                    2
   Exact Mass                        99.068414
   MonoIsotopic Mass                 99.068414
   Topological Polar Surface Area    20.3
   Heavy Atom Count                  7
   Formal Charge                     0
   Complexity                        90.1
   Isotope Atom Count                0
   Defined Atom Stereocenter Count   0
   Undefined Atom Stereocenter Count 0
   Defined Bond Stereocenter Count   0
   Undefined Bond Stereocenter Count 0
   Covalently-Bonded Unit Count      1
   Feature 3D Acceptor Count         1
   Feature 3D Ring Count             1
   Effective Rotor Count             0.8
   Conformer Sampling RMSD           0.4
   CID Conformer Count               [18]1

References

   1. http://toxnet.nlm.nih.gov/cgi-bin/sis/search/r?dbs+hsdb:@term+@rn+@rel+872-50-4
   2. http://toxnet.nlm.nih.gov/cgi-bin/sis/search/r?dbs+hsdb:@term+@rn+@rel+872-50-4
   3. http://toxnet.nlm.nih.gov/cgi-bin/sis/search/r?dbs+hsdb:@term+@rn+@rel+872-50-4
   4. http://toxnet.nlm.nih.gov/cgi-bin/sis/search/r?dbs+hsdb:@term+@rn+@rel+872-50-4
   5. http://toxnet.nlm.nih.gov/cgi-bin/sis/search/r?dbs+hsdb:@term+@rn+@rel+872-50-4
   6. http://toxnet.nlm.nih.gov/cgi-bin/sis/search/r?dbs+hsdb:@term+@rn+@rel+872-50-4
   7. http://toxnet.nlm.nih.gov/cgi-bin/sis/search/r?dbs+hsdb:@term+@rn+@rel+872-50-4
   8. http://toxnet.nlm.nih.gov/cgi-bin/sis/search/r?dbs+hsdb:@term+@rn+@rel+872-50-4
   9. http://toxnet.nlm.nih.gov/cgi-bin/sis/search/r?dbs+hsdb:@term+@rn+@rel+872-50-4
  10. http://toxnet.nlm.nih.gov/cgi-bin/sis/search/r?dbs+hsdb:@term+@rn+@rel+872-50-4
  11. http://toxnet.nlm.nih.gov/cgi-bin/sis/search/r?dbs+hsdb:@term+@rn+@rel+872-50-4
  12. http://toxnet.nlm.nih.gov/cgi-bin/sis/search/r?dbs+hsdb:@term+@rn+@rel+872-50-4
  13. http://toxnet.nlm.nih.gov/cgi-bin/sis/search/r?dbs+hsdb:@term+@rn+@rel+872-50-4
  14. http://toxnet.nlm.nih.gov/cgi-bin/sis/search/r?dbs+hsdb:@term+@rn+@rel+872-50-4
  15. http://toxnet.nlm.nih.gov/cgi-bin/sis/search/r?dbs+hsdb:@term+@rn+@rel+872-50-4
  16. http://toxnet.nlm.nih.gov/cgi-bin/sis/search/r?dbs+hsdb:@term+@rn+@rel+872-50-4
  17. http://toxnet.nlm.nih.gov/cgi-bin/sis/search/r?dbs+hsdb:@term+@rn+@rel+872-50-4
  18. http://pubchem.ncbi.nlm.nih.gov/vw3d/vw3d.cgi?cid=13387
