   Color/Form
        Clear, oil liquid
   from [1]HSDB

   Odor
        Slight odor
   from [2]HSDB

   Boiling Point
        370 deg C
   from [3]HSDB

   Melting Point
        -35 DEG C
   from [4]HSDB

   Density/Specific Gravity
        1.113-1.121 at 25 deg C/25 deg C
   from [5]HSDB

   Heat of Combustion
        -14,550 BTU/LB= -8,090 CAL/G= -338X10+5 JOULES/KG
   from [6]HSDB

   Octanol/Water Partition Coefficient
        log Kow = 4.73
   from [7]HSDB

   Solubilities
        In water, 2.69 mg/L at 25 deg C
   from [8]HSDB

   Spectral Properties
        INDEX OF REFRACTION: 1.535-1.540 @ 25 DEG C/D
   from [9]HSDB

   Vapor Density
        10.8 (Air = 1)
   from [10]HSDB

   Vapor Pressure
        8.25X10-6 mm Hg at 25 deg C
   from [11]HSDB

   Other Chemical/Physical Properties

     * VP: 8.6X10-6 mm Hg at 20 deg C
     * Conversion factor: l ppm= 12.8 mg/cu m
     * ... Resistance to migration from polymers, low temperature
       flexibility ... compatibility with polar polymers and additives
       over a wide range of compositions. /Phthalate esters/
     * MAXIMAL ACIDITY: 0.37 MEQ/100 G
     * Phthalate esters would be expected to have UV maxima in the 230 nm
       and 270 nm regions. /Phthalate esters/
     * Henry's Law constant = 1.26X10-6 atm-cu m/mol at 25 deg C (est)
     * Hydroxyl radical reaction rate constant = 1.10X10-11 cu
       cm/molec-sec at 25 deg C (est)

   from [12]HSDB

   Computed Properties
   Molecular Weight                  312.3597 [g/mol]
   Molecular Formula                 C[19]H[20]O[4]
   XLogP3                            4.9
   H-Bond Donor                      0
   H-Bond Acceptor                   4
   Rotatable Bond Count              9
   Exact Mass                        312.136159
   MonoIsotopic Mass                 312.136159
   Topological Polar Surface Area    52.6
   Heavy Atom Count                  23
   Formal Charge                     0
   Complexity                        374
   Isotope Atom Count                0
   Defined Atom Stereocenter Count   0
   Undefined Atom Stereocenter Count 0
   Defined Bond Stereocenter Count   0
   Undefined Bond Stereocenter Count 0
   Covalently-Bonded Unit Count      1
   Feature 3D Acceptor Count         2
   Feature 3D Hydrophobe Count       1
   Feature 3D Ring Count             2
   Effective Rotor Count             9
   Conformer Sampling RMSD           1
   CID Conformer Count               [13]204

References

   1. http://toxnet.nlm.nih.gov/cgi-bin/sis/search/r?dbs+hsdb:@term+@rn+@rel+85-68-7
   2. http://toxnet.nlm.nih.gov/cgi-bin/sis/search/r?dbs+hsdb:@term+@rn+@rel+85-68-7
   3. http://toxnet.nlm.nih.gov/cgi-bin/sis/search/r?dbs+hsdb:@term+@rn+@rel+85-68-7
   4. http://toxnet.nlm.nih.gov/cgi-bin/sis/search/r?dbs+hsdb:@term+@rn+@rel+85-68-7
   5. http://toxnet.nlm.nih.gov/cgi-bin/sis/search/r?dbs+hsdb:@term+@rn+@rel+85-68-7
   6. http://toxnet.nlm.nih.gov/cgi-bin/sis/search/r?dbs+hsdb:@term+@rn+@rel+85-68-7
   7. http://toxnet.nlm.nih.gov/cgi-bin/sis/search/r?dbs+hsdb:@term+@rn+@rel+85-68-7
   8. http://toxnet.nlm.nih.gov/cgi-bin/sis/search/r?dbs+hsdb:@term+@rn+@rel+85-68-7
   9. http://toxnet.nlm.nih.gov/cgi-bin/sis/search/r?dbs+hsdb:@term+@rn+@rel+85-68-7
  10. http://toxnet.nlm.nih.gov/cgi-bin/sis/search/r?dbs+hsdb:@term+@rn+@rel+85-68-7
  11. http://toxnet.nlm.nih.gov/cgi-bin/sis/search/r?dbs+hsdb:@term+@rn+@rel+85-68-7
  12. http://toxnet.nlm.nih.gov/cgi-bin/sis/search/r?dbs+hsdb:@term+@rn+@rel+85-68-7
  13. http://pubchem.ncbi.nlm.nih.gov/vw3d/vw3d.cgi?cid=2347
