   Color/Form

     * WHITE POWDER
     * White, crystalline powder

   from [1]HSDB

   Melting Point
        105-105.6 deg C
   from [2]HSDB

   Solubilities

     * INSOL IN WATER; 1.5% IN METHANOL; 7% IN XYLENE
     * SOL IN ACETONE
     * In water 1.3 mg/l (20 deg C). In dichloromethane >200, toluene 145,
       xylene 70, methanol 15, isopropanol 10.6, hexane 2.6 (all in g/l,
       20 deg C).

   from [3]HSDB

   Vapor Pressure
        1.57X10-7 mm Hg at 25 deg C
   from [4]HSDB

   Other Chemical/Physical Properties
        Vapor pressure = 1X10-6 mm Hg @ 20 deg C
   from [5]HSDB

   Computed Properties
   Molecular Weight                  333.230243 [g/mol]
   Molecular Formula                 C[9]H[11]Cl[2]FN[2]O[2]S[2]
   XLogP3                            3.6
   H-Bond Donor                      0
   H-Bond Acceptor                   6
   Rotatable Bond Count              5
   Exact Mass                        331.962303
   MonoIsotopic Mass                 331.962303
   Topological Polar Surface Area    74.3
   Heavy Atom Count                  18
   Formal Charge                     0
   Complexity                        367
   Isotope Atom Count                0
   Defined Atom Stereocenter Count   0
   Undefined Atom Stereocenter Count 0
   Defined Bond Stereocenter Count   0
   Undefined Bond Stereocenter Count 0
   Covalently-Bonded Unit Count      1
   Feature 3D Ring Count             1
   Effective Rotor Count             5
   Conformer Sampling RMSD           0.6
   CID Conformer Count               [6]14

References

   1. http://toxnet.nlm.nih.gov/cgi-bin/sis/search/r?dbs+hsdb:@term+@rn+@rel+1085-98-9
   2. http://toxnet.nlm.nih.gov/cgi-bin/sis/search/r?dbs+hsdb:@term+@rn+@rel+1085-98-9
   3. http://toxnet.nlm.nih.gov/cgi-bin/sis/search/r?dbs+hsdb:@term+@rn+@rel+1085-98-9
   4. http://toxnet.nlm.nih.gov/cgi-bin/sis/search/r?dbs+hsdb:@term+@rn+@rel+1085-98-9
   5. http://toxnet.nlm.nih.gov/cgi-bin/sis/search/r?dbs+hsdb:@term+@rn+@rel+1085-98-9
   6. http://pubchem.ncbi.nlm.nih.gov/vw3d/vw3d.cgi?cid=14145
