   Chemical and Physical Properties References

   [1]USDA ARS - USDA chemical properties
   from [2]ChemIDplus

   Color/Form

     * COLORLESS LIQUID
     * Colorless to brown liquid.

   from [3]HSDB

   Odor

     * Slight garlic odor
     * Slight, garlic-like odor.

   from [4]HSDB

   Boiling Point
        87 DEG C AT 0.01 MM HG
   from [5]HSDB

   Melting Point
        7 deg C
   from [6]HSDB

   Corrosivity
        NON-CORROSIVE
   from [7]HSDB

   Density/Specific Gravity
        1.250 AT 20 DEG C/4 DEG C
   from [8]HSDB

   Octanol/Water Partition Coefficient
        log Kow= 4.091
   from [9]HSDB

   Solubilities

     * READILY SOL IN GLYCERIDE OILS
     * SOL IN METHANOL, ETHANOL, ETHER, ACETONE, & MANY ORGANIC SOLVENTS,
       ESPECIALLY CHLORINATED HYDROCARBONS
     * Slightly sol in petroleum ether
     * Solubility (20 deg C): 2 mg/kg water; >1 kg/kg dichloromethane,
       propan-2-ol.
     * ... Slightly soluble in aliphatic solvents.
     * Very readily soluble in toluene. ... Soluble in n-hexane.

   from [10]HSDB

   Spectral Properties

     * INDEX OF REFRACTION: 1.5698 AT 20 DEG C/D
     * Intense mass spectral peaks: 278 m/z (100%), 125 m/z (42%), 109 m/z
       (41%), 168 m/z (34%)

   from [11]HSDB

   Vapor Pressure
        4 mPa at 20 deg C; 10 mPa at 30 deg C
   from [12]HSDB

   Other Chemical/Physical Properties

     * Brown oil 95-98% pure, with a weak garlic-like odor /Technical
       fenthion/
     * Bp: 105 deg C @ 0.01 mm Hg /Commercial product/
     * Yellow to tan oily liquid /Technical/
     * Henry's Law constant= 1.46X10-6 atm-cu m/mole (est)

   from [13]HSDB

   Computed Properties
   Molecular Weight                  278.328062 [g/mol]
   Molecular Formula                 C[10]H[15]O[3]PS[2]
   XLogP3                            4.1
   H-Bond Donor                      0
   H-Bond Acceptor                   5
   Rotatable Bond Count              5
   Exact Mass                        278.020023
   MonoIsotopic Mass                 278.020023
   Topological Polar Surface Area    85.1
   Heavy Atom Count                  16
   Formal Charge                     0
   Complexity                        254
   Isotope Atom Count                0
   Defined Atom Stereocenter Count   0
   Undefined Atom Stereocenter Count 0
   Defined Bond Stereocenter Count   0
   Undefined Bond Stereocenter Count 0
   Covalently-Bonded Unit Count      1
   Feature 3D Hydrophobe Count       1
   Feature 3D Ring Count             1
   Effective Rotor Count             5
   Conformer Sampling RMSD           0.6
   CID Conformer Count               [14]104

References

   1. http://www.ars.usda.gov/SP2UserFiles/ad_hoc/12755100DatabaseFiles/PesticidePropertiesDatabase/IndividualPesticideFiles/FENTHION.TXT
   2. http://chem.sis.nlm.nih.gov/chemidplus/
   3. http://toxnet.nlm.nih.gov/cgi-bin/sis/search/r?dbs+hsdb:@term+@rn+@rel+55-38-9
   4. http://toxnet.nlm.nih.gov/cgi-bin/sis/search/r?dbs+hsdb:@term+@rn+@rel+55-38-9
   5. http://toxnet.nlm.nih.gov/cgi-bin/sis/search/r?dbs+hsdb:@term+@rn+@rel+55-38-9
   6. http://toxnet.nlm.nih.gov/cgi-bin/sis/search/r?dbs+hsdb:@term+@rn+@rel+55-38-9
   7. http://toxnet.nlm.nih.gov/cgi-bin/sis/search/r?dbs+hsdb:@term+@rn+@rel+55-38-9
   8. http://toxnet.nlm.nih.gov/cgi-bin/sis/search/r?dbs+hsdb:@term+@rn+@rel+55-38-9
   9. http://toxnet.nlm.nih.gov/cgi-bin/sis/search/r?dbs+hsdb:@term+@rn+@rel+55-38-9
  10. http://toxnet.nlm.nih.gov/cgi-bin/sis/search/r?dbs+hsdb:@term+@rn+@rel+55-38-9
  11. http://toxnet.nlm.nih.gov/cgi-bin/sis/search/r?dbs+hsdb:@term+@rn+@rel+55-38-9
  12. http://toxnet.nlm.nih.gov/cgi-bin/sis/search/r?dbs+hsdb:@term+@rn+@rel+55-38-9
  13. http://toxnet.nlm.nih.gov/cgi-bin/sis/search/r?dbs+hsdb:@term+@rn+@rel+55-38-9
  14. http://pubchem.ncbi.nlm.nih.gov/vw3d/vw3d.cgi?cid=3346
