442894
  -OEChem-07051213002D

 25 27  0     0  0  0  0  0  0999 V2000
    5.5321    0.5000    0.0000 N   0  0  0  0  0  0  0  0  0  0  0  0
    4.6660   -1.0000    0.0000 N   0  0  0  0  0  0  0  0  0  0  0  0
    6.4783    0.8047    0.0000 C   0  0  0  0  0  0  0  0  0  0  0  0
    7.0619    0.0000    0.0000 C   0  0  0  0  0  0  0  0  0  0  0  0
    6.4783   -0.8047    0.0000 C   0  0  0  0  0  0  0  0  0  0  0  0
    5.5321   -0.5000    0.0000 C   0  0  0  0  0  0  0  0  0  0  0  0
    4.6660    1.0000    0.0000 C   0  0  0  0  0  0  0  0  0  0  0  0
    3.8000    0.5000    0.0000 C   0  0  0  0  0  0  0  0  0  0  0  0
    3.8000   -0.5000    0.0000 C   0  0  0  0  0  0  0  0  0  0  0  0
    2.9061    1.0347    0.0000 C   0  0  0  0  0  0  0  0  0  0  0  0
    2.9061   -1.0347    0.0000 C   0  0  0  0  0  0  0  0  0  0  0  0
    2.0000    0.5208    0.0000 C   0  0  0  0  0  0  0  0  0  0  0  0
    2.0000   -0.5208    0.0000 C   0  0  0  0  0  0  0  0  0  0  0  0
    7.0157    1.1140    0.0000 H   0  0  0  0  0  0  0  0  0  0  0  0
    6.2272    1.3716    0.0000 H   0  0  0  0  0  0  0  0  0  0  0  0
    7.5228   -0.4147    0.0000 H   0  0  0  0  0  0  0  0  0  0  0  0
    7.5228    0.4147    0.0000 H   0  0  0  0  0  0  0  0  0  0  0  0
    6.2272   -1.3716    0.0000 H   0  0  0  0  0  0  0  0  0  0  0  0
    7.0157   -1.1140    0.0000 H   0  0  0  0  0  0  0  0  0  0  0  0
    5.0646    1.4750    0.0000 H   0  0  0  0  0  0  0  0  0  0  0  0
    4.2675    1.4750    0.0000 H   0  0  0  0  0  0  0  0  0  0  0  0
    2.9132    1.6546    0.0000 H   0  0  0  0  0  0  0  0  0  0  0  0
    2.9132   -1.6546    0.0000 H   0  0  0  0  0  0  0  0  0  0  0  0
    1.4643    0.8329    0.0000 H   0  0  0  0  0  0  0  0  0  0  0  0
    1.4643   -0.8329    0.0000 H   0  0  0  0  0  0  0  0  0  0  0  0
  1  3  1  0  0  0  0
  1  6  1  0  0  0  0
  1  7  1  0  0  0  0
  2  6  2  0  0  0  0
  2  9  1  0  0  0  0
  3  4  1  0  0  0  0
  3 14  1  0  0  0  0
  3 15  1  0  0  0  0
  4  5  1  0  0  0  0
  4 16  1  0  0  0  0
  4 17  1  0  0  0  0
  5  6  1  0  0  0  0
  5 18  1  0  0  0  0
  5 19  1  0  0  0  0
  7  8  1  0  0  0  0
  7 20  1  0  0  0  0
  7 21  1  0  0  0  0
  8  9  1  0  0  0  0
  8 10  2  0  0  0  0
  9 11  2  0  0  0  0
 10 12  1  0  0  0  0
 10 22  1  0  0  0  0
 11 13  1  0  0  0  0
 11 23  1  0  0  0  0
 12 13  2  0  0  0  0
 12 24  1  0  0  0  0
 13 25  1  0  0  0  0
M  END
> <PUBCHEM_COMPOUND_CID>
442894

> <PUBCHEM_COMPOUND_CANONICALIZED>
1

> <PUBCHEM_CACTVS_COMPLEXITY>
234

> <PUBCHEM_CACTVS_HBOND_ACCEPTOR>
1

> <PUBCHEM_CACTVS_HBOND_DONOR>
0

> <PUBCHEM_CACTVS_ROTATABLE_BOND>
0

> <PUBCHEM_CACTVS_SUBSKEYS>
AAADccBzAAAAAAAAAAAAAAAAAAAAAWAAAAAwQAAAAAAAAECBAAAAHAAAAAAADAjBGAQxwIMAAACgAiZiZACCAAEgAgAJiAA4ZIgIICKA2ZGEIAhggACIyAcQgAAOAAAAAAACAAAAAAAAAAQAAAAAAAAAAA==

> <PUBCHEM_IUPAC_OPENEYE_NAME>
1,2,3,9-tetrahydropyrrolo[2,1-b]quinazoline

> <PUBCHEM_IUPAC_CAS_NAME>
1,2,3,9-tetrahydropyrrolo[2,1-b]quinazoline

> <PUBCHEM_IUPAC_NAME>
1,2,3,9-tetrahydropyrrolo[2,1-b]quinazoline

> <PUBCHEM_IUPAC_SYSTEMATIC_NAME>
1,2,3,9-tetrahydropyrrolo[2,1-b]quinazoline

> <PUBCHEM_IUPAC_TRADITIONAL_NAME>
1,2,3,9-tetrahydropyrrolo[2,1-b]quinazoline

> <PUBCHEM_IUPAC_INCHI>
InChI=1S/C11H12N2/c1-2-5-10-9(4-1)8-13-7-3-6-11(13)12-10/h1-2,4-5H,3,6-8H2

> <PUBCHEM_IUPAC_INCHIKEY>
WUFQLZTXIWKION-UHFFFAOYSA-N

> <PUBCHEM_XLOGP3_AA>
1

> <PUBCHEM_EXACT_MASS>
172.100048

> <PUBCHEM_MOLECULAR_FORMULA>
C11H12N2

> <PUBCHEM_MOLECULAR_WEIGHT>
172.22638

> <PUBCHEM_OPENEYE_CAN_SMILES>
C1CC2=NC3=CC=CC=C3CN2C1

> <PUBCHEM_OPENEYE_ISO_SMILES>
C1CC2=NC3=CC=CC=C3CN2C1

> <PUBCHEM_CACTVS_TPSA>
15.6

> <PUBCHEM_MONOISOTOPIC_WEIGHT>
172.100048

> <PUBCHEM_TOTAL_CHARGE>
0

> <PUBCHEM_HEAVY_ATOM_COUNT>
13

> <PUBCHEM_ATOM_DEF_STEREO_COUNT>
0

> <PUBCHEM_ATOM_UDEF_STEREO_COUNT>
0

> <PUBCHEM_BOND_DEF_STEREO_COUNT>
0

> <PUBCHEM_BOND_UDEF_STEREO_COUNT>
0

> <PUBCHEM_ISOTOPIC_ATOM_COUNT>
0

> <PUBCHEM_COMPONENT_COUNT>
1

> <PUBCHEM_CACTVS_TAUTO_COUNT>
2

> <PUBCHEM_COORDINATE_TYPE>
1
5
255

> <PUBCHEM_BONDANNOTATIONS>
10  12  8
11  13  8
12  13  8
8  10  8
8  9  8
9  11  8

$$$$

