439966
  -OEChem-07051212482D

 20 20  0     1  0  0  0  0  0999 V2000
    5.0298   -0.8189    0.0000 O   0  0  0  0  0  0  0  0  0  0  0  0
    2.4608   -0.5098    0.0000 O   0  0  0  0  0  0  0  0  0  0  0  0
    3.3548    1.2689    0.0000 O   0  0  0  0  0  0  0  0  0  0  0  0
    5.0868    2.2689    0.0000 O   0  0  0  0  0  0  0  0  0  0  0  0
    3.1330   -2.5789    0.0000 O   0  0  0  0  0  0  0  0  0  0  0  0
    5.3086   -2.5789    0.0000 O   0  0  0  0  0  0  0  0  0  0  0  0
    4.2208   -0.2311    0.0000 C   0  0  1  0  0  0  0  0  0  0  0  0
    3.4118   -0.8189    0.0000 C   0  0  1  0  0  0  0  0  0  0  0  0
    4.2208    0.7689    0.0000 C   0  0  2  0  0  0  0  0  0  0  0  0
    3.7208   -1.7699    0.0000 C   0  0  0  0  0  0  0  0  0  0  0  0
    5.0868    1.2689    0.0000 C   0  0  0  0  0  0  0  0  0  0  0  0
    4.7208   -1.7699    0.0000 C   0  0  0  0  0  0  0  0  0  0  0  0
    4.9782    0.1548    0.0000 H   0  0  0  0  0  0  0  0  0  0  0  0
    2.9734   -1.2573    0.0000 H   0  0  0  0  0  0  0  0  0  0  0  0
    4.2208    1.3889    0.0000 H   0  0  0  0  0  0  0  0  0  0  0  0
    5.2989    0.6863    0.0000 H   0  0  0  0  0  0  0  0  0  0  0  0
    5.6974    1.3766    0.0000 H   0  0  0  0  0  0  0  0  0  0  0  0
    2.0000   -0.9247    0.0000 H   0  0  0  0  0  0  0  0  0  0  0  0
    3.3548    1.8889    0.0000 H   0  0  0  0  0  0  0  0  0  0  0  0
    5.6238    2.5789    0.0000 H   0  0  0  0  0  0  0  0  0  0  0  0
  1  7  1  0  0  0  0
  1 12  1  0  0  0  0
  8  2  1  1  0  0  0
  2 18  1  0  0  0  0
  9  3  1  1  0  0  0
  3 19  1  0  0  0  0
  4 11  1  0  0  0  0
  4 20  1  0  0  0  0
  5 10  2  0  0  0  0
  6 12  2  0  0  0  0
  7  8  1  0  0  0  0
  7  9  1  0  0  0  0
  7 13  1  6  0  0  0
  8 10  1  0  0  0  0
  8 14  1  0  0  0  0
  9 11  1  0  0  0  0
  9 15  1  0  0  0  0
 10 12  1  0  0  0  0
 11 16  1  0  0  0  0
 11 17  1  0  0  0  0
M  END
> <PUBCHEM_COMPOUND_CID>
439966

> <PUBCHEM_COMPOUND_CANONICALIZED>
1

> <PUBCHEM_CACTVS_COMPLEXITY>
212

> <PUBCHEM_CACTVS_HBOND_ACCEPTOR>
6

> <PUBCHEM_CACTVS_HBOND_DONOR>
3

> <PUBCHEM_CACTVS_ROTATABLE_BOND>
2

> <PUBCHEM_CACTVS_SUBSKEYS>
AAADccBgOAAAAAAAAAAAAAAAAAAAASAAAAAAAAAAAAAAAAAAAAAAGgAACAAACBSggAIACAAABgAIAICQCAIAAAAAAAAAAAFAAAABEBYAAAQCQAAFIAADAAHKbARAAAAAAAAAAAAAAAAAAAAAAAAAAAAAAA==

> <PUBCHEM_IUPAC_OPENEYE_NAME>
(4S,5R)-5-[(1S)-1,2-dihydroxyethyl]-4-hydroxy-tetrahydrofuran-2,3-dione

> <PUBCHEM_IUPAC_CAS_NAME>
(4S,5R)-5-[(1S)-1,2-dihydroxyethyl]-4-hydroxyoxolane-2,3-dione

> <PUBCHEM_IUPAC_NAME>
(4S,5R)-5-[(1S)-1,2-dihydroxyethyl]-4-hydroxyoxolane-2,3-dione

> <PUBCHEM_IUPAC_SYSTEMATIC_NAME>
(4S,5R)-5-[(1S)-1,2-bis(oxidanyl)ethyl]-4-oxidanyl-oxolane-2,3-dione

> <PUBCHEM_IUPAC_TRADITIONAL_NAME>
(4S,5R)-5-[(1S)-1,2-dihydroxyethyl]-4-hydroxy-tetrahydrofuran-2,3-quinone

> <PUBCHEM_IUPAC_INCHI>
InChI=1S/C6H8O6/c7-1-2(8)5-3(9)4(10)6(11)12-5/h2-3,5,7-9H,1H2/t2-,3+,5+/m0/s1

> <PUBCHEM_IUPAC_INCHIKEY>
KRGQEOSDQHTZMX-GDGKWOGESA-N

> <PUBCHEM_XLOGP3_AA>
-1.5

> <PUBCHEM_EXACT_MASS>
176.032088

> <PUBCHEM_MOLECULAR_FORMULA>
C6H8O6

> <PUBCHEM_MOLECULAR_WEIGHT>
176.12412

> <PUBCHEM_OPENEYE_CAN_SMILES>
C(C(C1C(C(=O)C(=O)O1)O)O)O

> <PUBCHEM_OPENEYE_ISO_SMILES>
C([C@@H]([C@@H]1[C@@H](C(=O)C(=O)O1)O)O)O

> <PUBCHEM_CACTVS_TPSA>
104

> <PUBCHEM_MONOISOTOPIC_WEIGHT>
176.032088

> <PUBCHEM_TOTAL_CHARGE>
0

> <PUBCHEM_HEAVY_ATOM_COUNT>
12

> <PUBCHEM_ATOM_DEF_STEREO_COUNT>
3

> <PUBCHEM_ATOM_UDEF_STEREO_COUNT>
0

> <PUBCHEM_BOND_DEF_STEREO_COUNT>
0

> <PUBCHEM_BOND_UDEF_STEREO_COUNT>
0

> <PUBCHEM_ISOTOPIC_ATOM_COUNT>
0

> <PUBCHEM_COMPONENT_COUNT>
1

> <PUBCHEM_CACTVS_TAUTO_COUNT>
8

> <PUBCHEM_COORDINATE_TYPE>
1
5
255

> <PUBCHEM_BONDANNOTATIONS>
8  2  5
9  3  5
7  13  6

$$$$

