440868
  -OEChem-07051212512D

 24 23  0     1  0  0  0  0  0999 V2000
    5.6350   -1.4636    0.0000 O   0  0  0  0  0  0  0  0  0  0  0  0
    6.8671   -0.5976    0.0000 O   0  0  0  0  0  0  0  0  0  0  0  0
    6.0010    0.9024    0.0000 O   0  0  0  0  0  0  0  0  0  0  0  0
    2.5369   -1.0976    0.0000 O   0  0  0  0  0  0  0  0  0  0  0  0
    3.4030    0.4024    0.0000 O   0  0  0  0  0  0  0  0  0  0  0  0
    5.1350   -0.5976    0.0000 C   0  0  1  0  0  0  0  0  0  0  0  0
    4.6350    0.2685    0.0000 C   0  0  0  0  0  0  0  0  0  0  0  0
    4.2690   -1.0976    0.0000 C   0  0  0  0  0  0  0  0  0  0  0  0
    5.1350    1.1345    0.0000 C   0  0  0  0  0  0  0  0  0  0  0  0
    6.0010   -0.0976    0.0000 C   0  0  0  0  0  0  0  0  0  0  0  0
    4.6350    2.0005    0.0000 C   0  0  0  0  0  0  0  0  0  0  0  0
    3.4030   -0.5976    0.0000 C   0  0  0  0  0  0  0  0  0  0  0  0
    4.1601    0.6670    0.0000 H   0  0  0  0  0  0  0  0  0  0  0  0
    4.1601   -0.1301    0.0000 H   0  0  0  0  0  0  0  0  0  0  0  0
    3.8705   -1.5725    0.0000 H   0  0  0  0  0  0  0  0  0  0  0  0
    4.6675   -1.5725    0.0000 H   0  0  0  0  0  0  0  0  0  0  0  0
    5.6100    0.7360    0.0000 H   0  0  0  0  0  0  0  0  0  0  0  0
    5.6100    1.5330    0.0000 H   0  0  0  0  0  0  0  0  0  0  0  0
    5.1720    2.3105    0.0000 H   0  0  0  0  0  0  0  0  0  0  0  0
    4.3250    2.5375    0.0000 H   0  0  0  0  0  0  0  0  0  0  0  0
    4.0981    1.6905    0.0000 H   0  0  0  0  0  0  0  0  0  0  0  0
    5.3250   -2.0005    0.0000 H   0  0  0  0  0  0  0  0  0  0  0  0
    7.4040   -0.2876    0.0000 H   0  0  0  0  0  0  0  0  0  0  0  0
    2.0000   -0.7876    0.0000 H   0  0  0  0  0  0  0  0  0  0  0  0
  6  1  1  6  0  0  0
  1 22  1  0  0  0  0
  2 10  1  0  0  0  0
  2 23  1  0  0  0  0
  3 10  2  0  0  0  0
  4 12  1  0  0  0  0
  4 24  1  0  0  0  0
  5 12  2  0  0  0  0
  6  7  1  0  0  0  0
  6  8  1  0  0  0  0
  6 10  1  0  0  0  0
  7  9  1  0  0  0  0
  7 13  1  0  0  0  0
  7 14  1  0  0  0  0
  8 12  1  0  0  0  0
  8 15  1  0  0  0  0
  8 16  1  0  0  0  0
  9 11  1  0  0  0  0
  9 17  1  0  0  0  0
  9 18  1  0  0  0  0
 11 19  1  0  0  0  0
 11 20  1  0  0  0  0
 11 21  1  0  0  0  0
M  END
> <PUBCHEM_COMPOUND_CID>
440868

> <PUBCHEM_COMPOUND_CANONICALIZED>
1

> <PUBCHEM_CACTVS_COMPLEXITY>
188

> <PUBCHEM_CACTVS_HBOND_ACCEPTOR>
5

> <PUBCHEM_CACTVS_HBOND_DONOR>
3

> <PUBCHEM_CACTVS_ROTATABLE_BOND>
5

> <PUBCHEM_CACTVS_SUBSKEYS>
AAADccBgOAAAAAAAAAAAAAAAAAAAAAAAAAAAAAAAAAAAAAAAAAAAGgAACAAADESAgAACCAAAAgAIAACQCAIAAAAAAAAAAAFAAAABABYAAAAAQAAFIAABAAHLSAAOAAAAAAAAAAAAAAAAAAAAAAAAAAAAAA==

> <PUBCHEM_IUPAC_OPENEYE_NAME>
(2S)-2-hydroxy-2-propyl-butanedioic acid

> <PUBCHEM_IUPAC_CAS_NAME>
(2S)-2-hydroxy-2-propylbutanedioic acid

> <PUBCHEM_IUPAC_NAME>
(2S)-2-hydroxy-2-propylbutanedioic acid

> <PUBCHEM_IUPAC_SYSTEMATIC_NAME>
(2S)-2-oxidanyl-2-propyl-butanedioic acid

> <PUBCHEM_IUPAC_TRADITIONAL_NAME>
(2S)-2-hydroxy-2-propyl-succinic acid

> <PUBCHEM_IUPAC_INCHI>
InChI=1S/C7H12O5/c1-2-3-7(12,6(10)11)4-5(8)9/h12H,2-4H2,1H3,(H,8,9)(H,10,11)/t7-/m0/s1

> <PUBCHEM_IUPAC_INCHIKEY>
KLURIVUFKOVPER-ZETCQYMHSA-N

> <PUBCHEM_XLOGP3_AA>
-0.3

> <PUBCHEM_EXACT_MASS>
176.068473

> <PUBCHEM_MOLECULAR_FORMULA>
C7H12O5

> <PUBCHEM_MOLECULAR_WEIGHT>
176.16718

> <PUBCHEM_OPENEYE_CAN_SMILES>
CCCC(CC(=O)O)(C(=O)O)O

> <PUBCHEM_OPENEYE_ISO_SMILES>
CCC[C@](CC(=O)O)(C(=O)O)O

> <PUBCHEM_CACTVS_TPSA>
94.8

> <PUBCHEM_MONOISOTOPIC_WEIGHT>
176.068473

> <PUBCHEM_TOTAL_CHARGE>
0

> <PUBCHEM_HEAVY_ATOM_COUNT>
12

> <PUBCHEM_ATOM_DEF_STEREO_COUNT>
1

> <PUBCHEM_ATOM_UDEF_STEREO_COUNT>
0

> <PUBCHEM_BOND_DEF_STEREO_COUNT>
0

> <PUBCHEM_BOND_UDEF_STEREO_COUNT>
0

> <PUBCHEM_ISOTOPIC_ATOM_COUNT>
0

> <PUBCHEM_COMPONENT_COUNT>
1

> <PUBCHEM_CACTVS_TAUTO_COUNT>
1

> <PUBCHEM_COORDINATE_TYPE>
1
5
255

> <PUBCHEM_BONDANNOTATIONS>
6  1  6

$$$$

