   Color/Form

     * Pure dark red solid
     * Monoclinic rectangular plates and scales from petroleum ether

   from [1]HSDB

   Odor
        Highly volatile pungent odor
   from [2]HSDB

   Taste
        Burning taste detectable in 1 part in 100,000.
   from [3]HSDB

   Boiling Point
        210-220 deg C at 0.01 mm Hg
   from [4]HSDB

   Melting Point
        65 deg C
   from [5]HSDB

   Octanol/Water Partition Coefficient
        log Kow = 3.04 [LaHann TR et al; Proc West Pharmacol Soc 32: 201-4
   (1989)] [6]PubMed Abstract
   from [7]HSDB

   Solubilities

     * Practically insoluble in cold water. Freely soluble in alcohol,
       ether, benzene. Slightly soluble in carbon disulfide
     * Slightly sol in concentrated hydrochloric acid
     * Soluble in petroleum ether
     * In water, 10.3 mg/L at 25 deg C (est)

   from [8]HSDB

   Spectral Properties

     * MAX ABSORPTION (ALCOHOL): 227 NM (LOG E= 3.91); 281 NM (LOG E=
       3.43)
     * IR: 17226 (Sadtler Research Laboratories IR Grating Collection)
     * UV: 2-581 (Organic Electronic Spectral Data, Phillips et al, John
       Wiley & Sons, New York)
     * UV max: 227, 281 nm (epsilon 7000, 2500)

   from [9]HSDB

   Vapor Pressure
        1.3X10-8 mm Hg at 25 deg C (est)
   from [10]HSDB

   Other Chemical/Physical Properties

     * Henry's Law constant = 1.0X10-13 atm-cu m/mole at 25 deg C (est)
     * Hydroxyl radical reaction rate constant = 1.2X10-10 cu cm/mole-sec
       at 25 deg C (est)

   from [11]HSDB

   Computed Properties
   Molecular Weight                  305.41188 [g/mol]
   Molecular Formula                 C[18]H[27]NO[3]
   XLogP3-AA                         3.6
   H-Bond Donor                      2
   H-Bond Acceptor                   3
   Rotatable Bond Count              9
   Tautomer Count                    6
   Exact Mass                        305.199094
   MonoIsotopic Mass                 305.199094
   Topological Polar Surface Area    58.6
   Heavy Atom Count                  22
   Formal Charge                     0
   Complexity                        341
   Isotope Atom Count                0
   Defined Atom Stereocenter Count   0
   Undefined Atom Stereocenter Count 0
   Defined Bond Stereocenter Count   1
   Undefined Bond Stereocenter Count 0
   Covalently-Bonded Unit Count      1
   Feature 3D Acceptor Count         2
   Feature 3D Donor Count            2
   Feature 3D Hydrophobe Count       2
   Feature 3D Ring Count             1
   Effective Rotor Count             10
   Conformer Sampling RMSD           1
   CID Conformer Count               [12]209

References

   1. http://toxnet.nlm.nih.gov/cgi-bin/sis/search/r?dbs+hsdb:@term+@rn+@rel+404-86-4
   2. http://toxnet.nlm.nih.gov/cgi-bin/sis/search/r?dbs+hsdb:@term+@rn+@rel+404-86-4
   3. http://toxnet.nlm.nih.gov/cgi-bin/sis/search/r?dbs+hsdb:@term+@rn+@rel+404-86-4
   4. http://toxnet.nlm.nih.gov/cgi-bin/sis/search/r?dbs+hsdb:@term+@rn+@rel+404-86-4
   5. http://toxnet.nlm.nih.gov/cgi-bin/sis/search/r?dbs+hsdb:@term+@rn+@rel+404-86-4
   6. http://www.ncbi.nlm.nih.gov/entrez/query.fcgi?cmd=Retrieve&db=pubmed&dopt=Abstract&list_uids=2780588
   7. http://toxnet.nlm.nih.gov/cgi-bin/sis/search/r?dbs+hsdb:@term+@rn+@rel+404-86-4
   8. http://toxnet.nlm.nih.gov/cgi-bin/sis/search/r?dbs+hsdb:@term+@rn+@rel+404-86-4
   9. http://toxnet.nlm.nih.gov/cgi-bin/sis/search/r?dbs+hsdb:@term+@rn+@rel+404-86-4
  10. http://toxnet.nlm.nih.gov/cgi-bin/sis/search/r?dbs+hsdb:@term+@rn+@rel+404-86-4
  11. http://toxnet.nlm.nih.gov/cgi-bin/sis/search/r?dbs+hsdb:@term+@rn+@rel+404-86-4
  12. http://pubchem.ncbi.nlm.nih.gov/vw3d/vw3d.cgi?cid=1548943
