441709
  -OEChem-07051212552D

 58 63  0     1  0  0  0  0  0999 V2000
    3.5256    1.6272    0.0000 O   0  0  0  0  0  0  0  0  0  0  0  0
    5.3320   -0.0949    0.0000 O   0  0  0  0  0  0  0  0  0  0  0  0
    2.7884    0.0415    0.0000 N   0  0  3  0  0  0  0  0  0  0  0  0
    4.6631    0.0053    0.0000 C   0  0  2  0  0  0  0  0  0  0  0  0
    5.5731    0.5122    0.0000 C   0  0  1  0  0  0  0  0  0  0  0  0
    4.6551   -1.0363    0.0000 C   0  0  1  0  0  0  0  0  0  0  0  0
    6.4392    0.0122    0.0000 C   0  0  1  0  0  0  0  0  0  0  0  0
    3.7197   -1.5860    0.0000 C   0  0  2  0  0  0  0  0  0  0  0  0
    3.7363    0.5694    0.0000 C   0  0  3  0  0  0  0  0  0  0  0  0
    5.5572   -1.5571    0.0000 C   0  0  0  0  0  0  0  0  0  0  0  0
    6.4552   -1.0293    0.0000 C   0  0  0  0  0  0  0  0  0  0  0  0
    6.1126   -0.4647    0.0000 C   0  0  0  0  0  0  0  0  0  0  0  0
    5.5731    1.5122    0.0000 C   0  0  0  0  0  0  0  0  0  0  0  0
    7.3052    0.5122    0.0000 C   0  0  0  0  0  0  0  0  0  0  0  0
    6.4392    2.0122    0.0000 C   0  0  2  0  0  0  0  0  0  0  0  0
    6.0392    0.6122    0.0000 C   0  0  1  0  0  0  0  0  0  0  0  0
    2.7800   -1.0435    0.0000 C   0  0  0  0  0  0  0  0  0  0  0  0
    4.8276   -2.6322    0.0000 C   0  0  0  0  0  0  0  0  0  0  0  0
    6.2075   -1.9856    0.0000 C   0  0  0  0  0  0  0  0  0  0  0  0
    7.3052    1.5122    0.0000 C   0  0  0  0  0  0  0  0  0  0  0  0
    6.0392    1.4122    0.0000 C   0  0  0  0  0  0  0  0  0  0  0  0
    3.1224   -2.3880    0.0000 C   0  0  0  0  0  0  0  0  0  0  0  0
    2.0000    0.7775    0.0000 C   0  0  0  0  0  0  0  0  0  0  0  0
    2.4547    1.7555    0.0000 C   0  0  0  0  0  0  0  0  0  0  0  0
    5.3320    2.1193    0.0000 C   0  0  0  0  0  0  0  0  0  0  0  0
    4.8370    0.9372    0.0000 H   0  0  0  0  0  0  0  0  0  0  0  0
    4.6485   -1.8862    0.0000 H   0  0  0  0  0  0  0  0  0  0  0  0
    4.2444    0.9248    0.0000 H   0  0  0  0  0  0  0  0  0  0  0  0
    5.1599   -2.0331    0.0000 H   0  0  0  0  0  0  0  0  0  0  0  0
    5.9581   -2.0300    0.0000 H   0  0  0  0  0  0  0  0  0  0  0  0
    6.6732   -1.6097    0.0000 H   0  0  0  0  0  0  0  0  0  0  0  0
    7.0644   -0.9138    0.0000 H   0  0  0  0  0  0  0  0  0  0  0  0
    6.7314   -0.5038    0.0000 H   0  0  0  0  0  0  0  0  0  0  0  0
    6.2287    0.1443    0.0000 H   0  0  0  0  0  0  0  0  0  0  0  0
    5.3611    2.0948    0.0000 H   0  0  0  0  0  0  0  0  0  0  0  0
    4.9626    1.4045    0.0000 H   0  0  0  0  0  0  0  0  0  0  0  0
    7.5172   -0.0704    0.0000 H   0  0  0  0  0  0  0  0  0  0  0  0
    7.9158    0.6198    0.0000 H   0  0  0  0  0  0  0  0  0  0  0  0
    6.4392    2.8622    0.0000 H   0  0  0  0  0  0  0  0  0  0  0  0
    5.4664    0.8494    0.0000 H   0  0  0  0  0  0  0  0  0  0  0  0
    2.1700   -0.9327    0.0000 H   0  0  0  0  0  0  0  0  0  0  0  0
    2.5665   -1.6256    0.0000 H   0  0  0  0  0  0  0  0  0  0  0  0
    4.3490   -3.0262    0.0000 H   0  0  0  0  0  0  0  0  0  0  0  0
    5.1588   -3.1563    0.0000 H   0  0  0  0  0  0  0  0  0  0  0  0
    6.3983   -2.5755    0.0000 H   0  0  0  0  0  0  0  0  0  0  0  0
    6.8166   -1.8700    0.0000 H   0  0  0  0  0  0  0  0  0  0  0  0
    7.9158    1.4045    0.0000 H   0  0  0  0  0  0  0  0  0  0  0  0
    7.5172    2.0948    0.0000 H   0  0  0  0  0  0  0  0  0  0  0  0
    2.6251   -2.0176    0.0000 H   0  0  0  0  0  0  0  0  0  0  0  0
    2.7520   -2.8852    0.0000 H   0  0  0  0  0  0  0  0  0  0  0  0
    3.6196   -2.7583    0.0000 H   0  0  0  0  0  0  0  0  0  0  0  0
    1.4684    1.0965    0.0000 H   0  0  0  0  0  0  0  0  0  0  0  0
    1.6269    0.2823    0.0000 H   0  0  0  0  0  0  0  0  0  0  0  0
    2.5928    2.3600    0.0000 H   0  0  0  0  0  0  0  0  0  0  0  0
    1.8681    1.9564    0.0000 H   0  0  0  0  0  0  0  0  0  0  0  0
    5.4925   -0.6938    0.0000 H   0  0  0  0  0  0  0  0  0  0  0  0
    5.4925    2.7182    0.0000 H   0  0  0  0  0  0  0  0  0  0  0  0
    4.7332    1.9588    0.0000 H   0  0  0  0  0  0  0  0  0  0  0  0
  1  9  1  0  0  0  0
  1 24  1  0  0  0  0
 16  2  1  6  0  0  0
  2 56  1  0  0  0  0
  3  9  1  0  0  0  0
  3 17  1  0  0  0  0
  3 23  1  0  0  0  0
  4  5  1  0  0  0  0
  4  6  1  0  0  0  0
  4  9  1  0  0  0  0
  4 12  1  1  0  0  0
  5  7  1  0  0  0  0
  5 13  1  0  0  0  0
  5 26  1  1  0  0  0
  6  8  1  0  0  0  0
  6 10  1  0  0  0  0
  6 27  1  1  0  0  0
  7 11  1  1  0  0  0
  7 14  1  0  0  0  0
  7 16  1  0  0  0  0
  8 17  1  0  0  0  0
  8 18  1  0  0  0  0
  8 22  1  6  0  0  0
  9 28  1  0  0  0  0
 10 11  1  0  0  0  0
 10 29  1  0  0  0  0
 10 30  1  0  0  0  0
 11 31  1  0  0  0  0
 11 32  1  0  0  0  0
 12 19  1  0  0  0  0
 12 33  1  0  0  0  0
 12 34  1  0  0  0  0
 13 15  1  0  0  0  0
 13 35  1  0  0  0  0
 13 36  1  0  0  0  0
 14 20  1  0  0  0  0
 14 37  1  0  0  0  0
 14 38  1  0  0  0  0
 15 20  1  0  0  0  0
 15 21  1  0  0  0  0
 15 39  1  1  0  0  0
 16 21  1  0  0  0  0
 16 40  1  0  0  0  0
 17 41  1  0  0  0  0
 17 42  1  0  0  0  0
 18 19  1  0  0  0  0
 18 43  1  0  0  0  0
 18 44  1  0  0  0  0
 19 45  1  0  0  0  0
 19 46  1  0  0  0  0
 20 47  1  0  0  0  0
 20 48  1  0  0  0  0
 21 25  2  0  0  0  0
 22 49  1  0  0  0  0
 22 50  1  0  0  0  0
 22 51  1  0  0  0  0
 23 24  1  0  0  0  0
 23 52  1  0  0  0  0
 23 53  1  0  0  0  0
 24 54  1  0  0  0  0
 24 55  1  0  0  0  0
 25 57  1  0  0  0  0
 25 58  1  0  0  0  0
M  END
> <PUBCHEM_COMPOUND_CID>
441709

> <PUBCHEM_COMPOUND_CANONICALIZED>
1

> <PUBCHEM_CACTVS_COMPLEXITY>
634

> <PUBCHEM_CACTVS_HBOND_ACCEPTOR>
3

> <PUBCHEM_CACTVS_HBOND_DONOR>
1

> <PUBCHEM_CACTVS_ROTATABLE_BOND>
0

> <PUBCHEM_CACTVS_SUBSKEYS>
AAADcfB6MAAAAAAAAAAAAAAAAAAAAWAAAAA8YMGDAAAWAFjwAAAAHgAACAAADxThgAYCAAMABgCAAgBCAAAAAAAgAAAAAAAIAAgCFAIAgQAPQAAEgACQEAGQ8P4PgAAAAAAAAACAAAYAADAAAAAAAAAAAA==

> <PUBCHEM_IUPAC_INCHI>
InChI=1S/C22H33NO2/c1-14-15-4-8-21(18(14)24)9-5-16-20(2)6-3-7-22(16,17(21)12-15)19-23(13-20)10-11-25-19/h15-19,24H,1,3-13H2,2H3/t15-,16+,17+,18+,19?,20-,21-,22-/m0/s1

> <PUBCHEM_IUPAC_INCHIKEY>
KWVIBDAKHDJCNY-LHCLZMBSSA-N

> <PUBCHEM_XLOGP3_AA>
3.6

> <PUBCHEM_EXACT_MASS>
343.251129

> <PUBCHEM_MOLECULAR_FORMULA>
C22H33NO2

> <PUBCHEM_MOLECULAR_WEIGHT>
343.50292

> <PUBCHEM_OPENEYE_CAN_SMILES>
CC12CCCC3(C1CCC45C3CC(CC4)C(=C)C5O)C6N(C2)CCO6

> <PUBCHEM_OPENEYE_ISO_SMILES>
C[C@@]12CCC[C@@]3([C@@H]1CC[C@]45[C@H]3C[C@H](CC4)C(=C)[C@H]5O)C6N(C2)CCO6

> <PUBCHEM_CACTVS_TPSA>
32.7

> <PUBCHEM_MONOISOTOPIC_WEIGHT>
343.251129

> <PUBCHEM_TOTAL_CHARGE>
0

> <PUBCHEM_HEAVY_ATOM_COUNT>
25

> <PUBCHEM_ATOM_DEF_STEREO_COUNT>
7

> <PUBCHEM_ATOM_UDEF_STEREO_COUNT>
1

> <PUBCHEM_BOND_DEF_STEREO_COUNT>
0

> <PUBCHEM_BOND_UDEF_STEREO_COUNT>
0

> <PUBCHEM_ISOTOPIC_ATOM_COUNT>
0

> <PUBCHEM_COMPONENT_COUNT>
1

> <PUBCHEM_CACTVS_TAUTO_COUNT>
1

> <PUBCHEM_COORDINATE_TYPE>
1
5
255

> <PUBCHEM_BONDANNOTATIONS>
9  1  3
15  39  5
16  2  6
4  12  5
5  26  5
6  27  5
7  11  5
8  22  6

$$$$

