7098652
  -OEChem-07051213152D

 18 18  0     1  0  0  0  0  0999 V2000
    3.4699   -1.3362    0.0000 O   0  0  0  0  0  0  0  0  0  0  0  0
    2.5896    1.7110    0.0000 O   0  0  0  0  0  0  0  0  0  0  0  0
    2.0544    0.0637    0.0000 O   0  0  0  0  0  0  0  0  0  0  0  0
    4.5576    1.0116    0.0000 N   0  0  0  0  0  0  0  0  0  0  0  0
    4.0576   -0.5272    0.0000 C   0  0  1  0  0  0  0  0  0  0  0  0
    3.7486    0.4239    0.0000 C   0  0  1  0  0  0  0  0  0  0  0  0
    5.0576   -0.5272    0.0000 C   0  0  0  0  0  0  0  0  0  0  0  0
    5.3667    0.4239    0.0000 C   0  0  0  0  0  0  0  0  0  0  0  0
    2.7976    0.7329    0.0000 C   0  0  0  0  0  0  0  0  0  0  0  0
    3.4453   -0.4302    0.0000 H   0  0  0  0  0  0  0  0  0  0  0  0
    3.6516    1.0362    0.0000 H   0  0  0  0  0  0  0  0  0  0  0  0
    4.9928   -1.1438    0.0000 H   0  0  0  0  0  0  0  0  0  0  0  0
    5.6641   -0.6561    0.0000 H   0  0  0  0  0  0  0  0  0  0  0  0
    5.9331    0.1717    0.0000 H   0  0  0  0  0  0  0  0  0  0  0  0
    5.6767    0.9608    0.0000 H   0  0  0  0  0  0  0  0  0  0  0  0
    4.5576    1.6316    0.0000 H   0  0  0  0  0  0  0  0  0  0  0  0
    3.7220   -1.9026    0.0000 H   0  0  0  0  0  0  0  0  0  0  0  0
    2.0000    1.9026    0.0000 H   0  0  0  0  0  0  0  0  0  0  0  0
  5  1  1  1  0  0  0
  1 17  1  0  0  0  0
  2  9  1  0  0  0  0
  2 18  1  0  0  0  0
  3  9  2  0  0  0  0
  4  6  1  0  0  0  0
  4  8  1  0  0  0  0
  4 16  1  0  0  0  0
  5  6  1  0  0  0  0
  5  7  1  0  0  0  0
  5 10  1  0  0  0  0
  6  9  1  1  0  0  0
  6 11  1  0  0  0  0
  7  8  1  0  0  0  0
  7 12  1  0  0  0  0
  7 13  1  0  0  0  0
  8 14  1  0  0  0  0
  8 15  1  0  0  0  0
M  END
> <PUBCHEM_COMPOUND_CID>
7098652

> <PUBCHEM_COMPOUND_CANONICALIZED>
1

> <PUBCHEM_CACTVS_COMPLEXITY>
125

> <PUBCHEM_CACTVS_HBOND_ACCEPTOR>
4

> <PUBCHEM_CACTVS_HBOND_DONOR>
3

> <PUBCHEM_CACTVS_ROTATABLE_BOND>
1

> <PUBCHEM_CACTVS_SUBSKEYS>
AAADccBiMAAAAAAAAAAAAAAAAAAAAWAAAAAAAAAAAAAAAAAAAAAAHgAQCAAACDzhgAYACALAAgAIAACQCAAAAAAAAAAAAIGIAAACEBYAgCAEQAAHMACQAACYEQAAAAAAAAAAAAAAAAAAAAAAAAAAAAAAAA==

> <PUBCHEM_IUPAC_OPENEYE_NAME>
(2S,3R)-3-hydroxypyrrolidine-2-carboxylic acid

> <PUBCHEM_IUPAC_CAS_NAME>
(2S,3R)-3-hydroxy-2-pyrrolidinecarboxylic acid

> <PUBCHEM_IUPAC_NAME>
(2S,3R)-3-hydroxypyrrolidine-2-carboxylic acid

> <PUBCHEM_IUPAC_SYSTEMATIC_NAME>
(2S,3R)-3-oxidanylpyrrolidine-2-carboxylic acid

> <PUBCHEM_IUPAC_TRADITIONAL_NAME>
(2S,3R)-3-hydroxyproline

> <PUBCHEM_IUPAC_INCHI>
InChI=1S/C5H9NO3/c7-3-1-2-6-4(3)5(8)9/h3-4,6-7H,1-2H2,(H,8,9)/t3-,4+/m1/s1

> <PUBCHEM_IUPAC_INCHIKEY>
BJBUEDPLEOHJGE-DMTCNVIQSA-N

> <PUBCHEM_XLOGP3>
-3.2

> <PUBCHEM_EXACT_MASS>
131.058243

> <PUBCHEM_MOLECULAR_FORMULA>
C5H9NO3

> <PUBCHEM_MOLECULAR_WEIGHT>
131.12986

> <PUBCHEM_OPENEYE_CAN_SMILES>
C1CNC(C1O)C(=O)O

> <PUBCHEM_OPENEYE_ISO_SMILES>
C1CN[C@@H]([C@@H]1O)C(=O)O

> <PUBCHEM_CACTVS_TPSA>
69.6

> <PUBCHEM_MONOISOTOPIC_WEIGHT>
131.058243

> <PUBCHEM_TOTAL_CHARGE>
0

> <PUBCHEM_HEAVY_ATOM_COUNT>
9

> <PUBCHEM_ATOM_DEF_STEREO_COUNT>
2

> <PUBCHEM_ATOM_UDEF_STEREO_COUNT>
0

> <PUBCHEM_BOND_DEF_STEREO_COUNT>
0

> <PUBCHEM_BOND_UDEF_STEREO_COUNT>
0

> <PUBCHEM_ISOTOPIC_ATOM_COUNT>
0

> <PUBCHEM_COMPONENT_COUNT>
1

> <PUBCHEM_CACTVS_TAUTO_COUNT>
1

> <PUBCHEM_COORDINATE_TYPE>
1
5
255

> <PUBCHEM_BONDANNOTATIONS>
5  1  5
6  9  5

$$$$

