11954170
  -OEChem-07051213072D

 54 57  0     1  0  0  0  0  0999 V2000
    5.6489   -3.2406    0.0000 F   0  0  0  0  0  0  0  0  0  0  0  0
    8.6500    2.0839    0.0000 O   0  0  0  0  0  0  0  0  0  0  0  0
    2.0000   -2.2237    0.0000 O   0  0  0  0  0  0  0  0  0  0  0  0
   10.2963    1.5458    0.0000 O   0  0  0  0  0  0  0  0  0  0  0  0
    7.3931   -0.1714    0.0000 C   0  0  2  0  0  0  0  0  0  0  0  0
    7.3931    0.8286    0.0000 C   0  0  2  0  0  0  0  0  0  0  0  0
    6.5271   -0.6714    0.0000 C   0  0  1  0  0  0  0  0  0  0  0  0
    5.6610   -0.1714    0.0000 C   0  0  1  0  0  0  0  0  0  0  0  0
    4.7510   -0.6782    0.0000 C   0  0  2  0  0  0  0  0  0  0  0  0
    6.5271    1.3286    0.0000 C   0  0  0  0  0  0  0  0  0  0  0  0
    5.6610    0.8286    0.0000 C   0  0  0  0  0  0  0  0  0  0  0  0
    8.3393    1.1334    0.0000 C   0  0  2  0  0  0  0  0  0  0  0  0
    8.3393   -0.4761    0.0000 C   0  0  0  0  0  0  0  0  0  0  0  0
    6.5431   -1.7129    0.0000 C   0  0  0  0  0  0  0  0  0  0  0  0
    8.9229    0.3286    0.0000 C   0  0  0  0  0  0  0  0  0  0  0  0
    4.7430   -1.7198    0.0000 C   0  0  0  0  0  0  0  0  0  0  0  0
    5.6451   -2.2406    0.0000 C   0  0  1  0  0  0  0  0  0  0  0  0
    7.3931    1.8286    0.0000 C   0  0  0  0  0  0  0  0  0  0  0  0
    3.8242   -0.1141    0.0000 C   0  0  0  0  0  0  0  0  0  0  0  0
    4.7587    0.3218    0.0000 C   0  0  0  0  0  0  0  0  0  0  0  0
    2.8763   -0.6421    0.0000 C   0  0  0  0  0  0  0  0  0  0  0  0
    3.8076   -2.2695    0.0000 C   0  0  0  0  0  0  0  0  0  0  0  0
    2.8680   -1.7270    0.0000 C   0  0  0  0  0  0  0  0  0  0  0  0
    9.6285    2.2901    0.0000 C   0  0  0  0  0  0  0  0  0  0  0  0
    9.9391    3.2406    0.0000 C   0  0  0  0  0  0  0  0  0  0  0  0
    7.4830   -1.0166    0.0000 H   0  0  0  0  0  0  0  0  0  0  0  0
    7.2664   -1.0907    0.0000 H   0  0  0  0  0  0  0  0  0  0  0  0
    6.3972    0.2536    0.0000 H   0  0  0  0  0  0  0  0  0  0  0  0
    6.9256    1.8036    0.0000 H   0  0  0  0  0  0  0  0  0  0  0  0
    6.1285    1.8036    0.0000 H   0  0  0  0  0  0  0  0  0  0  0  0
    5.4490    1.4112    0.0000 H   0  0  0  0  0  0  0  0  0  0  0  0
    5.0504    0.7210    0.0000 H   0  0  0  0  0  0  0  0  0  0  0  0
    7.9018    1.5727    0.0000 H   0  0  0  0  0  0  0  0  0  0  0  0
    8.0883   -1.0430    0.0000 H   0  0  0  0  0  0  0  0  0  0  0  0
    8.8767   -0.7853    0.0000 H   0  0  0  0  0  0  0  0  0  0  0  0
    6.7612   -2.2933    0.0000 H   0  0  0  0  0  0  0  0  0  0  0  0
    7.1523   -1.5974    0.0000 H   0  0  0  0  0  0  0  0  0  0  0  0
    9.3838   -0.0861    0.0000 H   0  0  0  0  0  0  0  0  0  0  0  0
    9.3838    0.7434    0.0000 H   0  0  0  0  0  0  0  0  0  0  0  0
    5.1087   -2.5517    0.0000 H   0  0  0  0  0  0  0  0  0  0  0  0
    8.0131    1.8286    0.0000 H   0  0  0  0  0  0  0  0  0  0  0  0
    7.3931    2.4486    0.0000 H   0  0  0  0  0  0  0  0  0  0  0  0
    6.7731    1.8286    0.0000 H   0  0  0  0  0  0  0  0  0  0  0  0
    4.2324    0.3525    0.0000 H   0  0  0  0  0  0  0  0  0  0  0  0
    3.4343    0.3679    0.0000 H   0  0  0  0  0  0  0  0  0  0  0  0
    5.3787    0.3170    0.0000 H   0  0  0  0  0  0  0  0  0  0  0  0
    4.7635    0.9417    0.0000 H   0  0  0  0  0  0  0  0  0  0  0  0
    4.1388    0.3265    0.0000 H   0  0  0  0  0  0  0  0  0  0  0  0
    2.6718   -0.0568    0.0000 H   0  0  0  0  0  0  0  0  0  0  0  0
    2.2647   -0.7435    0.0000 H   0  0  0  0  0  0  0  0  0  0  0  0
    3.8100   -2.8895    0.0000 H   0  0  0  0  0  0  0  0  0  0  0  0
   10.5285    3.0480    0.0000 H   0  0  0  0  0  0  0  0  0  0  0  0
   10.1317    3.8300    0.0000 H   0  0  0  0  0  0  0  0  0  0  0  0
    9.3498    3.4332    0.0000 H   0  0  0  0  0  0  0  0  0  0  0  0
 17  1  1  6  0  0  0
 12  2  1  1  0  0  0
  2 24  1  0  0  0  0
  3 23  2  0  0  0  0
  4 24  2  0  0  0  0
  5  6  1  0  0  0  0
  5  7  1  0  0  0  0
  5 13  1  0  0  0  0
  5 26  1  6  0  0  0
  6 10  1  0  0  0  0
  6 12  1  0  0  0  0
  6 18  1  1  0  0  0
  7  8  1  0  0  0  0
  7 14  1  0  0  0  0
  7 27  1  1  0  0  0
  8  9  1  0  0  0  0
  8 11  1  0  0  0  0
  8 28  1  6  0  0  0
  9 16  1  0  0  0  0
  9 19  1  0  0  0  0
  9 20  1  1  0  0  0
 10 11  1  0  0  0  0
 10 29  1  0  0  0  0
 10 30  1  0  0  0  0
 11 31  1  0  0  0  0
 11 32  1  0  0  0  0
 12 15  1  0  0  0  0
 12 33  1  0  0  0  0
 13 15  1  0  0  0  0
 13 34  1  0  0  0  0
 13 35  1  0  0  0  0
 14 17  1  0  0  0  0
 14 36  1  0  0  0  0
 14 37  1  0  0  0  0
 15 38  1  0  0  0  0
 15 39  1  0  0  0  0
 16 17  1  0  0  0  0
 16 22  2  0  0  0  0
 17 40  1  0  0  0  0
 18 41  1  0  0  0  0
 18 42  1  0  0  0  0
 18 43  1  0  0  0  0
 19 21  1  0  0  0  0
 19 44  1  0  0  0  0
 19 45  1  0  0  0  0
 20 46  1  0  0  0  0
 20 47  1  0  0  0  0
 20 48  1  0  0  0  0
 21 23  1  0  0  0  0
 21 49  1  0  0  0  0
 21 50  1  0  0  0  0
 22 23  1  0  0  0  0
 22 51  1  0  0  0  0
 24 25  1  0  0  0  0
 25 52  1  0  0  0  0
 25 53  1  0  0  0  0
 25 54  1  0  0  0  0
M  END
> <PUBCHEM_COMPOUND_CID>
11954170

> <PUBCHEM_COMPOUND_CANONICALIZED>
1

> <PUBCHEM_CACTVS_COMPLEXITY>
641

> <PUBCHEM_CACTVS_HBOND_ACCEPTOR>
4

> <PUBCHEM_CACTVS_HBOND_DONOR>
0

> <PUBCHEM_CACTVS_ROTATABLE_BOND>
2

> <PUBCHEM_CACTVS_SUBSKEYS>
AAADceB4MQAAAAAAAAAAAAAAAAAAAYAAAAAwYIAAAAAAAGDAAAAAGwAAAAAADxSggAICCAAABACIAqDSCAAAAAAgAAAACAEAAEgAABIAAQACAAAEgAAIAQOIyPCPgAAAAAAAAACAAAQAACAAAIAADAAAAA==

> <PUBCHEM_IUPAC_OPENEYE_NAME>
[(6S,8R,9S,10R,13S,14S,17S)-6-fluoro-10,13-dimethyl-3-oxo-1,2,6,7,8,9,11,12,14,15,16,17-dodecahydrocyclopenta[a]phenanthren-17-yl] acetate

> <PUBCHEM_IUPAC_CAS_NAME>
acetic acid [(6S,8R,9S,10R,13S,14S,17S)-6-fluoro-10,13-dimethyl-3-oxo-1,2,6,7,8,9,11,12,14,15,16,17-dodecahydrocyclopenta[a]phenanthren-17-yl] ester

> <PUBCHEM_IUPAC_NAME>
[(6S,8R,9S,10R,13S,14S,17S)-6-fluoro-10,13-dimethyl-3-oxo-1,2,6,7,8,9,11,12,14,15,16,17-dodecahydrocyclopenta[a]phenanthren-17-yl] acetate

> <PUBCHEM_IUPAC_SYSTEMATIC_NAME>
[(6S,8R,9S,10R,13S,14S,17S)-6-fluoranyl-10,13-dimethyl-3-oxidanylidene-1,2,6,7,8,9,11,12,14,15,16,17-dodecahydrocyclopenta[a]phenanthren-17-yl] ethanoate

> <PUBCHEM_IUPAC_TRADITIONAL_NAME>
acetic acid [(6S,8R,9S,10R,13S,14S,17S)-6-fluoro-3-keto-10,13-dimethyl-1,2,6,7,8,9,11,12,14,15,16,17-dodecahydrocyclopenta[a]phenanthren-17-yl] ester

> <PUBCHEM_IUPAC_INCHI>
InChI=1S/C21H29FO3/c1-12(23)25-19-5-4-15-14-11-18(22)17-10-13(24)6-8-20(17,2)16(14)7-9-21(15,19)3/h10,14-16,18-19H,4-9,11H2,1-3H3/t14-,15-,16-,18-,19-,20+,21-/m0/s1

> <PUBCHEM_IUPAC_INCHIKEY>
WPNUMSNCHRJGOV-CWFJNAJYSA-N

> <PUBCHEM_XLOGP3>
3.6

> <PUBCHEM_EXACT_MASS>
348.210073

> <PUBCHEM_MOLECULAR_FORMULA>
C21H29FO3

> <PUBCHEM_MOLECULAR_WEIGHT>
348.451563

> <PUBCHEM_OPENEYE_CAN_SMILES>
CC(=O)OC1CCC2C1(CCC3C2CC(C4=CC(=O)CCC34C)F)C

> <PUBCHEM_OPENEYE_ISO_SMILES>
CC(=O)O[C@H]1CC[C@@H]2[C@@]1(CC[C@H]3[C@H]2C[C@@H](C4=CC(=O)CC[C@]34C)F)C

> <PUBCHEM_CACTVS_TPSA>
43.4

> <PUBCHEM_MONOISOTOPIC_WEIGHT>
348.210073

> <PUBCHEM_TOTAL_CHARGE>
0

> <PUBCHEM_HEAVY_ATOM_COUNT>
25

> <PUBCHEM_ATOM_DEF_STEREO_COUNT>
7

> <PUBCHEM_ATOM_UDEF_STEREO_COUNT>
0

> <PUBCHEM_BOND_DEF_STEREO_COUNT>
0

> <PUBCHEM_BOND_UDEF_STEREO_COUNT>
0

> <PUBCHEM_ISOTOPIC_ATOM_COUNT>
0

> <PUBCHEM_COMPONENT_COUNT>
1

> <PUBCHEM_CACTVS_TAUTO_COUNT>
2

> <PUBCHEM_COORDINATE_TYPE>
1
5
255

> <PUBCHEM_BONDANNOTATIONS>
17  1  6
12  2  5
5  26  6
6  18  5
7  27  5
8  28  6
9  20  5

$$$$

