   Color/Form

     * SOLIDIFIES TO LEAFY CRYSTALS WHEN COLD
     * Colorless
     * Oily liquid

   from [1]HSDB

   Odor

     * FAINT, FRUITY-ACID ODOR
     * UNPLEASANT AND IRRITATING ODOR
     * Slight odor

   from [2]HSDB

   Taste

     * Slightly sour taste
     * Slightly unpleasant rancid taste

   from [3]HSDB

   Boiling Point
        239 deg C
   from [4]HSDB

   Melting Point
        16.5 deg C
   from [5]HSDB

   Density/Specific Gravity
        0.910 at 20 deg C/4 deg C
   from [6]HSDB

   Dissociation Constants
        pKa = 4.895 at 25 deg C
   from [7]HSDB

   Heat of Combustion
        -4,799.9 kJ/mol
   from [8]HSDB

   Octanol/Water Partition Coefficient
        log Kow = 3.05
   from [9]HSDB

   Solubilities

     * Very slightly sol in water (0.068 g/100 g at 20 deg C); freely sol
       in alcohol, chloroform, ether, carbon disulfide, petroleum ether,
       glacial acetic acid
     * Miscible in ethanol, chloroform, acetonitrile
     * In water 789 mg/L at 30 deg C

   from [10]HSDB

   Spectral Properties

     * Index of refraction: 1.4285 at 20 deg C/D
     * IR: 5719 (Coblentz Society Spectral Collection)
     * 1H NMR: 157 (Sadtler Research Laboratories Spectral Collection)
     * Raman: 412 (Sadtler Research Laboratories Spectral Collection)
     * MASS: 27831 (NIST/EPA/MSDC Mass Spectral database, 1990 version)

   from [11]HSDB

   Surface Tension
        23.7 dyn/cm
   from [12]HSDB

   Vapor Pressure
        3.71X10-3 mm Hg at 25 deg C
   from [13]HSDB

   Viscosity
        5.74 mPa.sec
   from [14]HSDB

   Other Chemical/Physical Properties

     * VP: 1 MM HG AT 78.0 DEG C
     * Heat of fusion = 21.4 kJ/mol; Specific heat = 2.62 J/g (solid)
     * Henry's Law constant = 8.29X10-7 atm-cu mmol at 25 deg C (est)
     * Hydroxyl radical reaction rate constant = 8.35X10-12 cu
       cm/molec-sec at 25 deg C (est)

   from [15]HSDB

   Computed Properties
   Molecular Weight                  144.21144 [g/mol]
   Molecular Formula                 C[8]H[16]O[2]
   XLogP3                            3
   H-Bond Donor                      1
   H-Bond Acceptor                   2
   Rotatable Bond Count              6
   Exact Mass                        144.11503
   MonoIsotopic Mass                 144.11503
   Topological Polar Surface Area    37.3
   Heavy Atom Count                  10
   Formal Charge                     0
   Complexity                        89.3
   Isotope Atom Count                0
   Defined Atom Stereocenter Count   0
   Undefined Atom Stereocenter Count 0
   Defined Bond Stereocenter Count   0
   Undefined Bond Stereocenter Count 0
   Covalently-Bonded Unit Count      1
   Feature 3D Acceptor Count         2
   Feature 3D Anion Count            1
   Feature 3D Hydrophobe Count       3
   Effective Rotor Count             6
   Conformer Sampling RMSD           0.6
   CID Conformer Count               [16]167

References

   1. http://toxnet.nlm.nih.gov/cgi-bin/sis/search/r?dbs+hsdb:@term+@rn+@rel+124-07-2
   2. http://toxnet.nlm.nih.gov/cgi-bin/sis/search/r?dbs+hsdb:@term+@rn+@rel+124-07-2
   3. http://toxnet.nlm.nih.gov/cgi-bin/sis/search/r?dbs+hsdb:@term+@rn+@rel+124-07-2
   4. http://toxnet.nlm.nih.gov/cgi-bin/sis/search/r?dbs+hsdb:@term+@rn+@rel+124-07-2
   5. http://toxnet.nlm.nih.gov/cgi-bin/sis/search/r?dbs+hsdb:@term+@rn+@rel+124-07-2
   6. http://toxnet.nlm.nih.gov/cgi-bin/sis/search/r?dbs+hsdb:@term+@rn+@rel+124-07-2
   7. http://toxnet.nlm.nih.gov/cgi-bin/sis/search/r?dbs+hsdb:@term+@rn+@rel+124-07-2
   8. http://toxnet.nlm.nih.gov/cgi-bin/sis/search/r?dbs+hsdb:@term+@rn+@rel+124-07-2
   9. http://toxnet.nlm.nih.gov/cgi-bin/sis/search/r?dbs+hsdb:@term+@rn+@rel+124-07-2
  10. http://toxnet.nlm.nih.gov/cgi-bin/sis/search/r?dbs+hsdb:@term+@rn+@rel+124-07-2
  11. http://toxnet.nlm.nih.gov/cgi-bin/sis/search/r?dbs+hsdb:@term+@rn+@rel+124-07-2
  12. http://toxnet.nlm.nih.gov/cgi-bin/sis/search/r?dbs+hsdb:@term+@rn+@rel+124-07-2
  13. http://toxnet.nlm.nih.gov/cgi-bin/sis/search/r?dbs+hsdb:@term+@rn+@rel+124-07-2
  14. http://toxnet.nlm.nih.gov/cgi-bin/sis/search/r?dbs+hsdb:@term+@rn+@rel+124-07-2
  15. http://toxnet.nlm.nih.gov/cgi-bin/sis/search/r?dbs+hsdb:@term+@rn+@rel+124-07-2
  16. http://pubchem.ncbi.nlm.nih.gov/vw3d/vw3d.cgi?cid=379
