   Color/Form
        Colorless or almost colorless powder
   from [1]HSDB

   Odor
        Odorless
   from [2]HSDB

   Melting Point
        64 DEG C
   from [3]HSDB

   Octanol/Water Partition Coefficient
        log Kow= 4.40
   from [4]HSDB

   Solubilities

     * INSOL IN WATER; SOL IN ETHANOL, CHLOROFORM, ETHER, PETROLEUM ETHER
     * Soluble in alcohol and acetone; slightly soluble in water.

   from [5]HSDB

   Other Chemical/Physical Properties

     * BITTER, ACRID TASTE; PROLONGED ANESTHETIC ACTION WHEN APPLIED TO
       TONGUE /DIBUCAINE HYDROCHLORIDE/
     * Hydroscopic crystals; decomp @ 90-98 deg C; faintly alkaline to
       litmus (aq soln, 1 in 20); freely sol in alc, acetone, chloroform;
       sol in 0.5 part water; slightly sol in benzene, ethyl acetate,
       toluene (on warming); insol in ether, oils /Dibucaine
       hydrochloride/
     * Melting point: 62-65 deg C
     * Somewhat hygroscopic.

   from [6]HSDB

   Computed Properties
   Molecular Weight                  343.46316 [g/mol]
   Molecular Formula                 C[20]H[29]N[3]O[2]
   XLogP3                            4.4
   H-Bond Donor                      1
   H-Bond Acceptor                   4
   Rotatable Bond Count              10
   Tautomer Count                    2
   Exact Mass                        343.225977
   MonoIsotopic Mass                 343.225977
   Topological Polar Surface Area    54.5
   Heavy Atom Count                  25
   Formal Charge                     0
   Complexity                        387
   Isotope Atom Count                0
   Defined Atom Stereocenter Count   0
   Undefined Atom Stereocenter Count 0
   Defined Bond Stereocenter Count   0
   Undefined Bond Stereocenter Count 0
   Covalently-Bonded Unit Count      1
   Feature 3D Acceptor Count         1
   Feature 3D Donor Count            1
   Feature 3D Cation Count           1
   Feature 3D Hydrophobe Count       1
   Feature 3D Ring Count             2
   Effective Rotor Count             11
   Conformer Sampling RMSD           1
   CID Conformer Count               [7]118

References

   1. http://toxnet.nlm.nih.gov/cgi-bin/sis/search/r?dbs+hsdb:@term+@rn+@rel+85-79-0
   2. http://toxnet.nlm.nih.gov/cgi-bin/sis/search/r?dbs+hsdb:@term+@rn+@rel+85-79-0
   3. http://toxnet.nlm.nih.gov/cgi-bin/sis/search/r?dbs+hsdb:@term+@rn+@rel+85-79-0
   4. http://toxnet.nlm.nih.gov/cgi-bin/sis/search/r?dbs+hsdb:@term+@rn+@rel+85-79-0
   5. http://toxnet.nlm.nih.gov/cgi-bin/sis/search/r?dbs+hsdb:@term+@rn+@rel+85-79-0
   6. http://toxnet.nlm.nih.gov/cgi-bin/sis/search/r?dbs+hsdb:@term+@rn+@rel+85-79-0
   7. http://pubchem.ncbi.nlm.nih.gov/vw3d/vw3d.cgi?cid=3025
