441556
  -OEChem-07051212552D

 44 45  0     1  0  0  0  0  0999 V2000
    6.2781    0.3295    0.0000 O   0  0  0  0  0  0  0  0  0  0  0  0
    9.2136    0.9481    0.0000 O   0  0  0  0  0  0  0  0  0  0  0  0
    6.8994    2.2305    0.0000 O   0  0  0  0  0  0  0  0  0  0  0  0
    8.1886    3.3872    0.0000 O   0  0  0  0  0  0  0  0  0  0  0  0
   10.1456    3.7997    0.0000 O   0  0  0  0  0  0  0  0  0  0  0  0
    6.6353   -1.3654    0.0000 O   0  0  0  0  0  0  0  0  0  0  0  0
    4.6783   -3.3872    0.0000 N   0  0  0  0  0  0  0  0  0  0  0  0
    8.5458    1.6924    0.0000 C   0  0  1  0  0  0  0  0  0  0  0  0
    7.5673    1.4862    0.0000 C   0  0  1  0  0  0  0  0  0  0  0  0
    4.9889   -0.8273    0.0000 C   0  0  2  0  0  0  0  0  0  0  0  0
    8.8564    2.6430    0.0000 C   0  0  1  0  0  0  0  0  0  0  0  0
    4.6783   -1.7778    0.0000 C   0  0  0  0  0  0  0  0  0  0  0  0
    7.2566    0.5357    0.0000 C   0  0  0  0  0  0  0  0  0  0  0  0
    3.7320   -2.0825    0.0000 C   0  0  0  0  0  0  0  0  0  0  0  0
    3.7320   -3.0825    0.0000 C   0  0  0  0  0  0  0  0  0  0  0  0
    5.9674   -0.6210    0.0000 C   0  0  0  0  0  0  0  0  0  0  0  0
    5.2619   -2.5825    0.0000 C   0  0  0  0  0  0  0  0  0  0  0  0
    9.8349    2.8492    0.0000 C   0  0  0  0  0  0  0  0  0  0  0  0
    4.3211   -0.0830    0.0000 C   0  0  0  0  0  0  0  0  0  0  0  0
    2.8660   -1.5825    0.0000 C   0  0  0  0  0  0  0  0  0  0  0  0
    2.8660   -3.5825    0.0000 C   0  0  0  0  0  0  0  0  0  0  0  0
    2.0000   -2.0825    0.0000 C   0  0  0  0  0  0  0  0  0  0  0  0
    2.0000   -3.0825    0.0000 C   0  0  0  0  0  0  0  0  0  0  0  0
    8.3532    1.1031    0.0000 H   0  0  0  0  0  0  0  0  0  0  0  0
    6.9606    1.3584    0.0000 H   0  0  0  0  0  0  0  0  0  0  0  0
    5.1815   -0.2379    0.0000 H   0  0  0  0  0  0  0  0  0  0  0  0
    9.0490    3.2323    0.0000 H   0  0  0  0  0  0  0  0  0  0  0  0
    7.2772   -0.0840    0.0000 H   0  0  0  0  0  0  0  0  0  0  0  0
    7.8704    0.4483    0.0000 H   0  0  0  0  0  0  0  0  0  0  0  0
    5.8819   -2.5825    0.0000 H   0  0  0  0  0  0  0  0  0  0  0  0
    9.8555    2.2295    0.0000 H   0  0  0  0  0  0  0  0  0  0  0  0
   10.4488    2.7618    0.0000 H   0  0  0  0  0  0  0  0  0  0  0  0
    4.7826    0.3311    0.0000 H   0  0  0  0  0  0  0  0  0  0  0  0
    3.9070    0.3785    0.0000 H   0  0  0  0  0  0  0  0  0  0  0  0
    3.8596   -0.4970    0.0000 H   0  0  0  0  0  0  0  0  0  0  0  0
    4.8709   -3.9766    0.0000 H   0  0  0  0  0  0  0  0  0  0  0  0
    2.8660   -0.9625    0.0000 H   0  0  0  0  0  0  0  0  0  0  0  0
    2.8660   -4.2025    0.0000 H   0  0  0  0  0  0  0  0  0  0  0  0
    9.8203    1.0760    0.0000 H   0  0  0  0  0  0  0  0  0  0  0  0
    7.0920    2.8198    0.0000 H   0  0  0  0  0  0  0  0  0  0  0  0
    8.3812    3.9766    0.0000 H   0  0  0  0  0  0  0  0  0  0  0  0
    1.4631   -1.7725    0.0000 H   0  0  0  0  0  0  0  0  0  0  0  0
    1.4631   -3.3925    0.0000 H   0  0  0  0  0  0  0  0  0  0  0  0
   10.7523    3.9275    0.0000 H   0  0  0  0  0  0  0  0  0  0  0  0
  1 13  1  0  0  0  0
  1 16  1  0  0  0  0
  8  2  1  1  0  0  0
  2 39  1  0  0  0  0
  9  3  1  1  0  0  0
  3 40  1  0  0  0  0
 11  4  1  6  0  0  0
  4 41  1  0  0  0  0
  5 18  1  0  0  0  0
  5 44  1  0  0  0  0
  6 16  2  0  0  0  0
  7 15  1  0  0  0  0
  7 17  1  0  0  0  0
  7 36  1  0  0  0  0
  8  9  1  0  0  0  0
  8 11  1  0  0  0  0
  8 24  1  0  0  0  0
  9 13  1  0  0  0  0
  9 25  1  0  0  0  0
 10 12  1  0  0  0  0
 10 16  1  0  0  0  0
 10 19  1  1  0  0  0
 10 26  1  0  0  0  0
 11 18  1  0  0  0  0
 11 27  1  0  0  0  0
 12 14  1  0  0  0  0
 12 17  2  0  0  0  0
 13 28  1  0  0  0  0
 13 29  1  0  0  0  0
 14 15  1  0  0  0  0
 14 20  2  0  0  0  0
 15 21  2  0  0  0  0
 17 30  1  0  0  0  0
 18 31  1  0  0  0  0
 18 32  1  0  0  0  0
 19 33  1  0  0  0  0
 19 34  1  0  0  0  0
 19 35  1  0  0  0  0
 20 22  1  0  0  0  0
 20 37  1  0  0  0  0
 21 23  1  0  0  0  0
 21 38  1  0  0  0  0
 22 23  2  0  0  0  0
 22 42  1  0  0  0  0
 23 43  1  0  0  0  0
M  END
> <PUBCHEM_COMPOUND_CID>
441556

> <PUBCHEM_COMPOUND_CANONICALIZED>
1

> <PUBCHEM_CACTVS_COMPLEXITY>
393

> <PUBCHEM_CACTVS_HBOND_ACCEPTOR>
6

> <PUBCHEM_CACTVS_HBOND_DONOR>
5

> <PUBCHEM_CACTVS_ROTATABLE_BOND>
8

> <PUBCHEM_CACTVS_SUBSKEYS>
AAADceB6OAAAAAAAAAAAAAAAAAAAAWAAAAAwAAAAAAAAAFgB8AAAHgAQCAAADRzhngY+yPLJlgCoAzT3TACCgCAxAiAI2aE4ZJgJMPLAlZGGYAhl0AHLyAf8+euegAAAAAACAAAAAAAAAAQAAAAAAAAAAA==

> <PUBCHEM_IUPAC_OPENEYE_NAME>
[(2R,3R,4R)-2,3,4,5-tetrahydroxypentyl] (2R)-2-(1H-indol-3-yl)propanoate

> <PUBCHEM_IUPAC_CAS_NAME>
(2R)-2-(1H-indol-3-yl)propanoic acid [(2R,3R,4R)-2,3,4,5-tetrahydroxypentyl] ester

> <PUBCHEM_IUPAC_NAME>
[(2R,3R,4R)-2,3,4,5-tetrahydroxypentyl] (2R)-2-(1H-indol-3-yl)propanoate

> <PUBCHEM_IUPAC_SYSTEMATIC_NAME>
[(2R,3R,4R)-2,3,4,5-tetrakis(oxidanyl)pentyl] (2R)-2-(1H-indol-3-yl)propanoate

> <PUBCHEM_IUPAC_TRADITIONAL_NAME>
(2R)-2-(1H-indol-3-yl)propionic acid [(2R,3R,4R)-2,3,4,5-tetrahydroxypentyl] ester

> <PUBCHEM_IUPAC_INCHI>
InChI=1S/C16H21NO6/c1-9(11-6-17-12-5-3-2-4-10(11)12)16(22)23-8-14(20)15(21)13(19)7-18/h2-6,9,13-15,17-21H,7-8H2,1H3/t9-,13-,14-,15-/m1/s1

> <PUBCHEM_IUPAC_INCHIKEY>
YBXVDDODTFXOHM-SEWBAHNZSA-N

> <PUBCHEM_XLOGP3_AA>
-0.1

> <PUBCHEM_EXACT_MASS>
323.136887

> <PUBCHEM_MOLECULAR_FORMULA>
C16H21NO6

> <PUBCHEM_MOLECULAR_WEIGHT>
323.34104

> <PUBCHEM_OPENEYE_CAN_SMILES>
CC(C1=CNC2=CC=CC=C21)C(=O)OCC(C(C(CO)O)O)O

> <PUBCHEM_OPENEYE_ISO_SMILES>
C[C@H](C1=CNC2=CC=CC=C21)C(=O)OC[C@H]([C@@H]([C@@H](CO)O)O)O

> <PUBCHEM_CACTVS_TPSA>
123

> <PUBCHEM_MONOISOTOPIC_WEIGHT>
323.136887

> <PUBCHEM_TOTAL_CHARGE>
0

> <PUBCHEM_HEAVY_ATOM_COUNT>
23

> <PUBCHEM_ATOM_DEF_STEREO_COUNT>
4

> <PUBCHEM_ATOM_UDEF_STEREO_COUNT>
0

> <PUBCHEM_BOND_DEF_STEREO_COUNT>
0

> <PUBCHEM_BOND_UDEF_STEREO_COUNT>
0

> <PUBCHEM_ISOTOPIC_ATOM_COUNT>
0

> <PUBCHEM_COMPONENT_COUNT>
1

> <PUBCHEM_CACTVS_TAUTO_COUNT>
1

> <PUBCHEM_COORDINATE_TYPE>
1
5
255

> <PUBCHEM_BONDANNOTATIONS>
10  19  5
12  14  8
12  17  8
14  15  8
14  20  8
15  21  8
8  2  5
20  22  8
21  23  8
22  23  8
9  3  5
11  4  6
7  15  8
7  17  8

$$$$

