   Color/Form

     * Colorless plates or leaflets /recrystallized/ from acetic acid
     * Solution in concentrated sulfuric acid is red
     * Crystals may be monoclinic or orthorhombic
     * Light yellow to yellow crystalline powder or flakes [Aldrich;
       Product Specification Sheet, Dibenz

   from [1]HSDB

   Boiling Point
        524 deg C
   from [2]HSDB

   Melting Point
        269.5 deg C
   from [3]HSDB

   Density/Specific Gravity
        1.282 g/cu cm
   from [4]HSDB

   Octanol/Water Partition Coefficient
        log Kow = 6.75
   from [5]HSDB

   Solubilities

     * Soluble in acetone and carbon disulfide
     * Soluble in petroleum ether, benzene, toluene, xylene; soluble in
       most organic solvents and oils; slightly soluble in alcohol and
       ether
     * Soluble in cyclohexane
     * In water, 0.0005 mg/L at 27 deg C
     * In water, 2.49X10-3 mg/L at 25 deg C

   from [6]HSDB

   Spectral Properties

     * Max absorption (benzene): 290 nm (log e= 5.0); 300 nm (log e= 5.2);
       373 nm (log e= 3.0); 385 nm (log e= 2.6); 395 nm (log e= 3.1)
     * Maximum absorption: 215, 221, 231, 272, 285, 297, 319, 331, 347 NM
     * Intense mass spectral peaks: 278 m/z (100%), 279 m/z (24%), 139 m/z
       (24%), 276 m/z (16%)
     * IR: 2870 (Coblentz Society Spectral Collection)
     * UV: 5-739 (Organic Electronic Spectral Data, Phillips et al, John
       Wiley & Sons, New York)
     * MASS: 107143 (NIST/EPA/MSDC Mass Spectral Database 1990, version)

   from [7]HSDB

   Vapor Pressure
        9.55X10-10 mm Hg at 25 deg C
   from [8]HSDB

   Other Chemical/Physical Properties

     * Can be hydrogenated to the octadecahydro derivative; can be
       oxidized by chromic acid to dibenz(a,h)anthra-7,14-quinone and to
       anthraquinone-1,2,5,6-tetracarboxylic acid; can be oxidized by
       osmium tetroxide to 5,6-dihydro-5,6-dihydroxy-dibenz(a,h)anthracene
       and to dibenz(a,h)anthra-5,6-quinone
     * In benzene/ether dibenz(a,h)anthracene adds 2 atoms of lithium or
       sodium with the formation of blue compounds which yield methanol,
       7,14-dihydro-dibenz(a,h)anthracene and with CO2 the corresponding
       dicarboxylic acid; reduction with sodium gives octa-hydro
       derivative; electrophilic substitutions occur mainly in position 9
     * Undergoes photo-oxidation under indoor sunlight in solution
     * Relative density (water = 1): 1.28
     * Sublimes
     * Absorbs solar radiation strongly
     * Reddish needles from benzene; melting point: 214 deg C
       /Dibenz(a,h)anthracene picrate/
     * Henry's Law constant = 7.3X10-8 atm-cu m/mole at 25 deg C (est)
     * Peroxy radical rate constant = 1.5X10+4 M-1 hr-1 cu cm/molecule-sec
       at 25 deg C
     * Singlet oxygen rate constant = 5X10+8 M-1 hr-1 cu cm/molecule-sec
       at 25 deg C

   from [9]HSDB

   Computed Properties
   Molecular Weight                  278.34656 [g/mol]
   Molecular Formula                 C[22]H[14]
   XLogP3                            6.5
   H-Bond Donor                      0
   H-Bond Acceptor                   0
   Rotatable Bond Count              0
   Exact Mass                        278.10955
   MonoIsotopic Mass                 278.10955
   Topological Polar Surface Area    0
   Heavy Atom Count                  22
   Formal Charge                     0
   Complexity                        361
   Isotope Atom Count                0
   Defined Atom Stereocenter Count   0
   Undefined Atom Stereocenter Count 0
   Defined Bond Stereocenter Count   0
   Undefined Bond Stereocenter Count 0
   Covalently-Bonded Unit Count      1
   Feature 3D Ring Count             5
   Effective Rotor Count             0
   Conformer Sampling RMSD           0.6
   CID Conformer Count               [10]1

References

   1. http://toxnet.nlm.nih.gov/cgi-bin/sis/search/r?dbs+hsdb:@term+@rn+@rel+53-70-3
   2. http://toxnet.nlm.nih.gov/cgi-bin/sis/search/r?dbs+hsdb:@term+@rn+@rel+53-70-3
   3. http://toxnet.nlm.nih.gov/cgi-bin/sis/search/r?dbs+hsdb:@term+@rn+@rel+53-70-3
   4. http://toxnet.nlm.nih.gov/cgi-bin/sis/search/r?dbs+hsdb:@term+@rn+@rel+53-70-3
   5. http://toxnet.nlm.nih.gov/cgi-bin/sis/search/r?dbs+hsdb:@term+@rn+@rel+53-70-3
   6. http://toxnet.nlm.nih.gov/cgi-bin/sis/search/r?dbs+hsdb:@term+@rn+@rel+53-70-3
   7. http://toxnet.nlm.nih.gov/cgi-bin/sis/search/r?dbs+hsdb:@term+@rn+@rel+53-70-3
   8. http://toxnet.nlm.nih.gov/cgi-bin/sis/search/r?dbs+hsdb:@term+@rn+@rel+53-70-3
   9. http://toxnet.nlm.nih.gov/cgi-bin/sis/search/r?dbs+hsdb:@term+@rn+@rel+53-70-3
  10. http://pubchem.ncbi.nlm.nih.gov/vw3d/vw3d.cgi?cid=5889
