   Color/Form

     * ANHYDROUS OXALIC ACID, CRYSTALLIZED FROM GLACIAL ACETIC ACID IS
       ORTHORHOMBIC, CRYSTALS BEING PYRAMIDAL OR ELONGATED OCTAHEDRA
     * Colorless powder or granular solid [Note: The anhydrous form
       (COOH)2 is a white powder].

   from [1]HSDB

   Odor
        Odorless.
   from [2]HSDB

   Melting Point
        189.5 DEG C (DECOMPOSES)
   from [3]HSDB

   Density/Specific Gravity
        1.90 @ 17 DEG/4 DEG C, ALPHA
   from [4]HSDB

   Dissociation Constants
        pKa 1: 1.46; pKa 2: 4.40
   from [5]HSDB

   Heat of Combustion
        -245.61 KJ/mol
   from [6]HSDB

   Solubilities

     * 100 G AQ SOLN SATURATED @ 15 DEG C CONTAINS 6.71 G; 100 G AQ SOLN
       SATURATED @ 20 DEG C CONTAINS 8.34 G; 100 G AQ SOLN SATURATED @ 25
       DEG C CONTAINS 9.81 G
     * VERY SOL IN ETHANOL; SLIGHTLY SOL IN ETHER; INSOL IN BENZENE,
       CHLOROFORM, PETROLEUM ETHER
     * Water solubility of 220,000 mg/l at 25 deg C

   from [7]HSDB

   Spectral Properties

     * IR: 8279 (Sadtler Research Laboratories IR Grating Collection)
     * NMR: 17060 (Sadtler Research Laboratories Spectral Collection)
     * MASS: 52 (National Bureau of Standards EPA-NIH Mass Spectra Data
       Base, NSRDS-NBS-63)

   from [8]HSDB

   Vapor Pressure
        0.54 mm @ 105 deg C
   from [9]HSDB

   Other Chemical/Physical Properties

     * MP: 101-102 DEG C GIVING OFF WATER OF CRYSTALLIZATION & STARTING TO
       SUBLIME; K1= 5.36X10-2; K2= 5.3X10-5; DENSITY: 1.653 @ 18.5 DEG C/4
       DEG C; DENSITY OF 1% (WT/WT) AQ SOLN: 1.0035 @ 17.5 DEG C/4 DEG C;
       DENSITY OF 3% (WT/WT) AQ SOLN: 1.0105 @ 17.5 DEG C/4 DEG C; DENSITY
       OF 5% (WT/WT) AQ SOLN: 1.0175 @ 17.5 DEG C/4 DEG C; DENSITY OF 10%
       (WT/WT) AQ SOLN: 1.0350 @ 17.5 DEG C/4 DEG C; DENSITY OF 13%
       (WT/WT) AQ SOLN: 1.0455 @ 17.5 DEG C/4 DEG C /OXALIC ACID
       DIHYDRATE/
     * DISSOCIATION CONSTANT: 6.5X10-2 /OXALIC ACID DIHYDRATE/
     * SUBLIMES BEST @ 157 DEG C; @ HIGHER TEMP DECOMP INTO CO2, CARBON
       MONOXIDE, FORMIC ACID, & WATER; HYGROSCOPIC
     * MONOCLINIC TABLETS, PRISMS, OR GRANULES; 1 G DISSOLVES IN 7 ML
       WATER; 1 G DISSOLVES IN 2 ML BOILING WATER; 1 G DISSOLVES IN 2.5 ML
       ALCOHOL; 1 G DISSOLVES IN 1.8 ML BOILING ALCOHOL; 1 G DISSOLVES IN
       100 ML ETHER; 1 G DISSOLVES IN 5.5 ML GLYCEROL /OXALIC ACID
       DIHYDRATE/
     * Transparent, colorless crystals or white powder /Oxalic acid
       dihydrate/
     * Odorless /Oxalic acid dihydrate/
     * Heat of solution = -9.58 kJ/mole
     * Henry's Law constant: 1.4X10-10 atm-cu m/mole at 25 deg C
       (experimental) [Gaffney JS et al; Environ Sci Technol 21: 519-24
       (1987)] [10]PubMed Abstract

   from [11]HSDB

   Computed Properties
   Molecular Weight                  90.03488 [g/mol]
   Molecular Formula                 C[2]H[2]O[4]
   XLogP3-AA                         -0.3
   H-Bond Donor                      2
   H-Bond Acceptor                   4
   Rotatable Bond Count              1
   Exact Mass                        89.995309
   MonoIsotopic Mass                 89.995309
   Topological Polar Surface Area    74.6
   Heavy Atom Count                  6
   Formal Charge                     0
   Complexity                        71.5
   Isotope Atom Count                0
   Defined Atom Stereocenter Count   0
   Undefined Atom Stereocenter Count 0
   Defined Bond Stereocenter Count   0
   Undefined Bond Stereocenter Count 0
   Covalently-Bonded Unit Count      1
   Feature 3D Acceptor Count         4
   Feature 3D Anion Count            2
   Effective Rotor Count             1
   Conformer Sampling RMSD           0.4
   CID Conformer Count               [12]1

References

   1. http://toxnet.nlm.nih.gov/cgi-bin/sis/search/r?dbs+hsdb:@term+@rn+@rel+144-62-7
   2. http://toxnet.nlm.nih.gov/cgi-bin/sis/search/r?dbs+hsdb:@term+@rn+@rel+144-62-7
   3. http://toxnet.nlm.nih.gov/cgi-bin/sis/search/r?dbs+hsdb:@term+@rn+@rel+144-62-7
   4. http://toxnet.nlm.nih.gov/cgi-bin/sis/search/r?dbs+hsdb:@term+@rn+@rel+144-62-7
   5. http://toxnet.nlm.nih.gov/cgi-bin/sis/search/r?dbs+hsdb:@term+@rn+@rel+144-62-7
   6. http://toxnet.nlm.nih.gov/cgi-bin/sis/search/r?dbs+hsdb:@term+@rn+@rel+144-62-7
   7. http://toxnet.nlm.nih.gov/cgi-bin/sis/search/r?dbs+hsdb:@term+@rn+@rel+144-62-7
   8. http://toxnet.nlm.nih.gov/cgi-bin/sis/search/r?dbs+hsdb:@term+@rn+@rel+144-62-7
   9. http://toxnet.nlm.nih.gov/cgi-bin/sis/search/r?dbs+hsdb:@term+@rn+@rel+144-62-7
  10. http://www.ncbi.nlm.nih.gov/entrez/query.fcgi?cmd=Retrieve&db=pubmed&dopt=Abstract&list_uids=19994967
  11. http://toxnet.nlm.nih.gov/cgi-bin/sis/search/r?dbs+hsdb:@term+@rn+@rel+144-62-7
  12. http://pubchem.ncbi.nlm.nih.gov/vw3d/vw3d.cgi?cid=971
