441848
  -OEChem-07051212562D

 86 91  0     1  0  0  0  0  0999 V2000
   12.5892   -1.8766    0.0000 O   0  0  0  0  0  0  0  0  0  0  0  0
    9.9314   -3.4250    0.0000 O   0  0  0  0  0  0  0  0  0  0  0  0
   10.3571    0.9894    0.0000 O   0  0  0  0  0  0  0  0  0  0  0  0
   11.7232    1.6234    0.0000 O   0  0  0  0  0  0  0  0  0  0  0  0
    7.1961   -2.9290    0.0000 O   0  0  0  0  0  0  0  0  0  0  0  0
    8.6289   -0.2599    0.0000 O   0  0  0  0  0  0  0  0  0  0  0  0
   13.4889    3.0735    0.0000 O   0  0  0  0  0  0  0  0  0  0  0  0
    6.3359   -1.4256    0.0000 O   0  0  0  0  0  0  0  0  0  0  0  0
    5.4602   -3.9223    0.0000 O   0  0  0  0  0  0  0  0  0  0  0  0
    3.7320   -2.9156    0.0000 O   0  0  0  0  0  0  0  0  0  0  0  0
   14.7781    4.2302    0.0000 O   0  0  0  0  0  0  0  0  0  0  0  0
    2.8718   -1.4123    0.0000 O   0  0  0  0  0  0  0  0  0  0  0  0
   11.7232   -1.3766    0.0000 C   0  0  1  0  0  0  0  0  0  0  0  0
   12.5892   -0.8766    0.0000 C   0  0  1  0  0  0  0  0  0  0  0  0
   10.8571   -0.8766    0.0000 C   0  0  1  0  0  0  0  0  0  0  0  0
    9.9472   -1.3835    0.0000 C   0  0  2  0  0  0  0  0  0  0  0  0
   12.5892    0.1234    0.0000 C   0  0  1  0  0  0  0  0  0  0  0  0
    9.9391   -2.4251    0.0000 C   0  0  1  0  0  0  0  0  0  0  0  0
   11.7392   -2.4181    0.0000 C   0  0  0  0  0  0  0  0  0  0  0  0
   10.8571    0.1234    0.0000 C   0  0  1  0  0  0  0  0  0  0  0  0
   13.5354    0.4281    0.0000 C   0  0  2  0  0  0  0  0  0  0  0  0
   13.5354   -1.1813    0.0000 C   0  0  0  0  0  0  0  0  0  0  0  0
   10.8412   -2.9459    0.0000 C   0  0  0  0  0  0  0  0  0  0  0  0
   11.7232    0.6234    0.0000 C   0  0  0  0  0  0  0  0  0  0  0  0
    9.0203   -0.8194    0.0000 C   0  0  0  0  0  0  0  0  0  0  0  0
   14.1190   -0.3766    0.0000 C   0  0  0  0  0  0  0  0  0  0  0  0
    9.0037   -2.9748    0.0000 C   0  0  0  0  0  0  0  0  0  0  0  0
   12.5892    1.1234    0.0000 C   0  0  0  0  0  0  0  0  0  0  0  0
    8.0724   -1.3473    0.0000 C   0  0  0  0  0  0  0  0  0  0  0  0
    8.0641   -2.4323    0.0000 C   0  0  2  0  0  0  0  0  0  0  0  0
    9.6124   -0.4412    0.0000 C   0  0  0  0  0  0  0  0  0  0  0  0
   13.8461    1.3786    0.0000 C   0  0  0  0  0  0  0  0  0  0  0  0
   14.8246    1.5849    0.0000 C   0  0  0  0  0  0  0  0  0  0  0  0
   13.1782    2.1229    0.0000 C   0  0  0  0  0  0  0  0  0  0  0  0
    6.3320   -2.4256    0.0000 C   0  0  2  0  0  0  0  0  0  0  0  0
   15.1352    2.5354    0.0000 C   0  0  0  0  0  0  0  0  0  0  0  0
    5.4641   -2.9223    0.0000 C   0  0  2  0  0  0  0  0  0  0  0  0
   14.4674    3.2797    0.0000 C   0  0  0  0  0  0  0  0  0  0  0  0
    4.6000   -2.4189    0.0000 C   0  0  1  0  0  0  0  0  0  0  0  0
    5.4718   -0.9223    0.0000 C   0  0  1  0  0  0  0  0  0  0  0  0
    4.6038   -1.4190    0.0000 C   0  0  0  0  0  0  0  0  0  0  0  0
    5.4756    0.0777    0.0000 C   0  0  0  0  0  0  0  0  0  0  0  0
    2.8680   -2.4123    0.0000 C   0  0  0  0  0  0  0  0  0  0  0  0
    2.0000   -2.9089    0.0000 C   0  0  0  0  0  0  0  0  0  0  0  0
   12.4625   -1.7959    0.0000 H   0  0  0  0  0  0  0  0  0  0  0  0
   11.5933   -0.4516    0.0000 H   0  0  0  0  0  0  0  0  0  0  0  0
   11.9573   -2.9985    0.0000 H   0  0  0  0  0  0  0  0  0  0  0  0
   12.3484   -2.3026    0.0000 H   0  0  0  0  0  0  0  0  0  0  0  0
   10.2583   -0.0371    0.0000 H   0  0  0  0  0  0  0  0  0  0  0  0
   14.1479    0.5243    0.0000 H   0  0  0  0  0  0  0  0  0  0  0  0
   13.2844   -1.7483    0.0000 H   0  0  0  0  0  0  0  0  0  0  0  0
   14.0728   -1.4906    0.0000 H   0  0  0  0  0  0  0  0  0  0  0  0
   10.4439   -3.4218    0.0000 H   0  0  0  0  0  0  0  0  0  0  0  0
   11.2422   -3.4188    0.0000 H   0  0  0  0  0  0  0  0  0  0  0  0
    9.4285   -0.3527    0.0000 H   0  0  0  0  0  0  0  0  0  0  0  0
    8.6304   -0.3373    0.0000 H   0  0  0  0  0  0  0  0  0  0  0  0
   14.5799   -0.7913    0.0000 H   0  0  0  0  0  0  0  0  0  0  0  0
   14.5799    0.0381    0.0000 H   0  0  0  0  0  0  0  0  0  0  0  0
    8.6064   -3.4508    0.0000 H   0  0  0  0  0  0  0  0  0  0  0  0
    9.4047   -3.4477    0.0000 H   0  0  0  0  0  0  0  0  0  0  0  0
   13.2092    1.1234    0.0000 H   0  0  0  0  0  0  0  0  0  0  0  0
   12.5892    1.7434    0.0000 H   0  0  0  0  0  0  0  0  0  0  0  0
   11.9692    1.1234    0.0000 H   0  0  0  0  0  0  0  0  0  0  0  0
    7.8679   -0.7620    0.0000 H   0  0  0  0  0  0  0  0  0  0  0  0
    7.4608   -1.4487    0.0000 H   0  0  0  0  0  0  0  0  0  0  0  0
    8.0629   -3.0523    0.0000 H   0  0  0  0  0  0  0  0  0  0  0  0
    9.7248    0.1686    0.0000 H   0  0  0  0  0  0  0  0  0  0  0  0
   13.1261   -2.1866    0.0000 H   0  0  0  0  0  0  0  0  0  0  0  0
   10.4659   -3.7392    0.0000 H   0  0  0  0  0  0  0  0  0  0  0  0
   10.6671    1.5263    0.0000 H   0  0  0  0  0  0  0  0  0  0  0  0
   15.2386    1.1234    0.0000 H   0  0  0  0  0  0  0  0  0  0  0  0
   12.5716    1.9951    0.0000 H   0  0  0  0  0  0  0  0  0  0  0  0
    6.3296   -3.0456    0.0000 H   0  0  0  0  0  0  0  0  0  0  0  0
   15.7419    2.6632    0.0000 H   0  0  0  0  0  0  0  0  0  0  0  0
    5.9998   -3.2343    0.0000 H   0  0  0  0  0  0  0  0  0  0  0  0
    4.0642   -2.1069    0.0000 H   0  0  0  0  0  0  0  0  0  0  0  0
    6.0099   -0.6144    0.0000 H   0  0  0  0  0  0  0  0  0  0  0  0
    4.3940   -0.8355    0.0000 H   0  0  0  0  0  0  0  0  0  0  0  0
    3.9928   -1.5243    0.0000 H   0  0  0  0  0  0  0  0  0  0  0  0
    4.9221   -4.2302    0.0000 H   0  0  0  0  0  0  0  0  0  0  0  0
    6.0956    0.0753    0.0000 H   0  0  0  0  0  0  0  0  0  0  0  0
    5.4780    0.6977    0.0000 H   0  0  0  0  0  0  0  0  0  0  0  0
    4.8556    0.0801    0.0000 H   0  0  0  0  0  0  0  0  0  0  0  0
    1.6921   -2.3708    0.0000 H   0  0  0  0  0  0  0  0  0  0  0  0
    1.4619   -3.2168    0.0000 H   0  0  0  0  0  0  0  0  0  0  0  0
    2.3079   -3.4470    0.0000 H   0  0  0  0  0  0  0  0  0  0  0  0
 14  1  1  1  0  0  0
  1 68  1  0  0  0  0
 18  2  1  1  0  0  0
  2 69  1  0  0  0  0
 20  3  1  6  0  0  0
  3 70  1  0  0  0  0
  4 24  2  0  0  0  0
 30  5  1  1  0  0  0
 35  5  1  1  0  0  0
  6 31  2  0  0  0  0
  7 34  1  0  0  0  0
  7 38  1  0  0  0  0
  8 35  1  0  0  0  0
  8 40  1  0  0  0  0
 37  9  1  1  0  0  0
  9 80  1  0  0  0  0
 39 10  1  6  0  0  0
 10 43  1  0  0  0  0
 11 38  2  0  0  0  0
 12 43  2  0  0  0  0
 13 14  1  0  0  0  0
 13 15  1  0  0  0  0
 13 19  1  0  0  0  0
 13 45  1  1  0  0  0
 14 17  1  0  0  0  0
 14 22  1  0  0  0  0
 15 16  1  0  0  0  0
 15 20  1  0  0  0  0
 15 46  1  6  0  0  0
 16 18  1  0  0  0  0
 16 25  1  0  0  0  0
 16 31  1  1  0  0  0
 17 21  1  0  0  0  0
 17 24  1  0  0  0  0
 17 28  1  1  0  0  0
 18 23  1  0  0  0  0
 18 27  1  0  0  0  0
 19 23  1  0  0  0  0
 19 47  1  0  0  0  0
 19 48  1  0  0  0  0
 20 24  1  0  0  0  0
 20 49  1  0  0  0  0
 21 26  1  0  0  0  0
 21 32  1  1  0  0  0
 21 50  1  0  0  0  0
 22 26  1  0  0  0  0
 22 51  1  0  0  0  0
 22 52  1  0  0  0  0
 23 53  1  0  0  0  0
 23 54  1  0  0  0  0
 25 29  1  0  0  0  0
 25 55  1  0  0  0  0
 25 56  1  0  0  0  0
 26 57  1  0  0  0  0
 26 58  1  0  0  0  0
 27 30  1  0  0  0  0
 27 59  1  0  0  0  0
 27 60  1  0  0  0  0
 28 61  1  0  0  0  0
 28 62  1  0  0  0  0
 28 63  1  0  0  0  0
 29 30  1  0  0  0  0
 29 64  1  0  0  0  0
 29 65  1  0  0  0  0
 30 66  1  0  0  0  0
 31 67  1  0  0  0  0
 32 33  1  0  0  0  0
 32 34  2  0  0  0  0
 33 36  2  0  0  0  0
 33 71  1  0  0  0  0
 34 72  1  0  0  0  0
 35 37  1  0  0  0  0
 35 73  1  0  0  0  0
 36 38  1  0  0  0  0
 36 74  1  0  0  0  0
 37 39  1  0  0  0  0
 37 75  1  0  0  0  0
 39 41  1  0  0  0  0
 39 76  1  0  0  0  0
 40 41  1  0  0  0  0
 40 42  1  1  0  0  0
 40 77  1  0  0  0  0
 41 78  1  0  0  0  0
 41 79  1  0  0  0  0
 42 81  1  0  0  0  0
 42 82  1  0  0  0  0
 42 83  1  0  0  0  0
 43 44  1  0  0  0  0
 44 84  1  0  0  0  0
 44 85  1  0  0  0  0
 44 86  1  0  0  0  0
M  END
> <PUBCHEM_COMPOUND_CID>
441848

> <PUBCHEM_COMPOUND_CANONICALIZED>
1

> <PUBCHEM_CACTVS_COMPLEXITY>
1290

> <PUBCHEM_CACTVS_HBOND_ACCEPTOR>
12

> <PUBCHEM_CACTVS_HBOND_DONOR>
4

> <PUBCHEM_CACTVS_ROTATABLE_BOND>
6

> <PUBCHEM_CACTVS_SUBSKEYS>
AAADcfB8PAAAAAAAAAAAAAAAAAAAAYAAAAA0YMECAAAAAGDAAAAAGgAACAAAD1SwgAMCCAAABgCIAqjSiAIACAAgIAAICAFAAEgZFBYAIQAiUAAFoAAPoYPK7vzvgAAAAAAAAADCAAYQADAAAYAADAAAAA==

> <PUBCHEM_IUPAC_OPENEYE_NAME>
[(2S,3S,4R,6R)-2-[[(3S,5S,8R,9S,10S,11S,13R,14S,17R)-10-formyl-5,11,14-trihydroxy-13-methyl-12-oxo-17-(6-oxopyran-3-yl)-1,2,3,4,6,7,8,9,11,15,16,17-dodecahydrocyclopenta[a]phenanthren-3-yl]oxy]-3-hydroxy-6-methyl-tetrahydropyran-4-yl] acetate

> <PUBCHEM_IUPAC_CAS_NAME>
acetic acid [(2S,3S,4R,6R)-2-[[(3S,5S,8R,9S,10S,11S,13R,14S,17R)-10-formyl-5,11,14-trihydroxy-13-methyl-12-oxo-17-(6-oxo-3-pyranyl)-1,2,3,4,6,7,8,9,11,15,16,17-dodecahydrocyclopenta[a]phenanthren-3-yl]oxy]-3-hydroxy-6-methyl-4-oxanyl] ester

> <PUBCHEM_IUPAC_NAME>
[(2S,3S,4R,6R)-2-[[(3S,5S,8R,9S,10S,11S,13R,14S,17R)-10-formyl-5,11,14-trihydroxy-13-methyl-12-oxo-17-(6-oxopyran-3-yl)-1,2,3,4,6,7,8,9,11,15,16,17-dodecahydrocyclopenta[a]phenanthren-3-yl]oxy]-3-hydroxy-6-methyloxan-4-yl] acetate

> <PUBCHEM_IUPAC_SYSTEMATIC_NAME>
[(2S,3S,4R,6R)-2-[[(3S,5S,8R,9S,10S,11S,13R,14S,17R)-10-methanoyl-13-methyl-5,11,14-tris(oxidanyl)-12-oxidanylidene-17-(6-oxidanylidenepyran-3-yl)-1,2,3,4,6,7,8,9,11,15,16,17-dodecahydrocyclopenta[a]phenanthren-3-yl]oxy]-6-methyl-3-oxidanyl-oxan-4-yl] ethanoate

> <PUBCHEM_IUPAC_TRADITIONAL_NAME>
acetic acid [(2S,3S,4R,6R)-2-[[(3S,5S,8R,9S,10S,11S,13R,14S,17R)-10-formyl-5,11,14-trihydroxy-12-keto-17-(6-ketopyran-3-yl)-13-methyl-1,2,3,4,6,7,8,9,11,15,16,17-dodecahydrocyclopenta[a]phenanthren-3-yl]oxy]-3-hydroxy-6-methyl-tetrahydropyran-4-yl] ester

> <PUBCHEM_IUPAC_INCHI>
InChI=1S/C32H42O12/c1-16-12-22(43-17(2)34)25(36)28(42-16)44-19-6-9-30(15-33)24-21(7-10-31(30,39)13-19)32(40)11-8-20(18-4-5-23(35)41-14-18)29(32,3)27(38)26(24)37/h4-5,14-16,19-22,24-26,28,36-37,39-40H,6-13H2,1-3H3/t16-,19+,20-,21-,22-,24-,25+,26+,28+,29+,30+,31+,32+/m1/s1

> <PUBCHEM_IUPAC_INCHIKEY>
KWKQJZASURFCDP-ZPARAVGQSA-N

> <PUBCHEM_XLOGP3_AA>
0.1

> <PUBCHEM_EXACT_MASS>
618.267627

> <PUBCHEM_MOLECULAR_FORMULA>
C32H42O12

> <PUBCHEM_MOLECULAR_WEIGHT>
618.66868

> <PUBCHEM_OPENEYE_CAN_SMILES>
CC1CC(C(C(O1)OC2CCC3(C4C(CCC3(C2)O)C5(CCC(C5(C(=O)C4O)C)C6=COC(=O)C=C6)O)C=O)O)OC(=O)C

> <PUBCHEM_OPENEYE_ISO_SMILES>
C[C@@H]1C[C@H]([C@@H]([C@@H](O1)O[C@H]2CC[C@@]3([C@@H]4[C@@H](CC[C@@]3(C2)O)[C@]5(CC[C@@H]([C@]5(C(=O)[C@H]4O)C)C6=COC(=O)C=C6)O)C=O)O)OC(=O)C

> <PUBCHEM_CACTVS_TPSA>
186

> <PUBCHEM_MONOISOTOPIC_WEIGHT>
618.267627

> <PUBCHEM_TOTAL_CHARGE>
0

> <PUBCHEM_HEAVY_ATOM_COUNT>
44

> <PUBCHEM_ATOM_DEF_STEREO_COUNT>
13

> <PUBCHEM_ATOM_UDEF_STEREO_COUNT>
0

> <PUBCHEM_BOND_DEF_STEREO_COUNT>
0

> <PUBCHEM_BOND_UDEF_STEREO_COUNT>
0

> <PUBCHEM_ISOTOPIC_ATOM_COUNT>
0

> <PUBCHEM_COMPONENT_COUNT>
1

> <PUBCHEM_CACTVS_TAUTO_COUNT>
4

> <PUBCHEM_COORDINATE_TYPE>
1
5
255

> <PUBCHEM_BONDANNOTATIONS>
14  1  5
39  10  6
13  45  5
15  46  6
16  31  5
17  28  5
18  2  5
21  32  5
20  3  6
32  33  8
32  34  8
33  36  8
36  38  8
40  42  5
30  5  5
35  5  5
7  34  8
7  38  8
37  9  5

$$$$

