   Color/Form
        Colorless crystalline solid
   from [1]HSDB

   Odor
        Slight non-specific odor
   from [2]HSDB

   Melting Point
        118-130 deg C
   from [3]HSDB

   Density/Specific Gravity
        1.22 g/cu cm
   from [4]HSDB

   Octanol/Water Partition Coefficient
        log Kow = 2.90
   from [5]HSDB

   Solubilities

     * Soluble in alcohol, ketones
     * In water, 120 mg/L at 20 deg C

   from [6]HSDB

   Spectral Properties
        Maximum wavelength (lambda-max) = 224 nm
   from [7]HSDB

   Vapor Pressure
        3.1X10-10 mm Hg at 20 deg C
   from [8]HSDB

   Other Chemical/Physical Properties

     * Diastereoisomer A(1RS, 2SR) and diastereoisomer B(1RS, 2RS) ratio
       of A:B is 7:3
     * Diastereoisomer A: MP = 138.2 deg C; VP = 6X10-4 mPa at 20 deg C;
       SG/Density = 1.237 g/cu cm at 22 deg C; Kow (logP) = 3.08 at 25 deg
       C; Henry's Law constant = 3X10-6 Pa cu m mol-1 at 20 deg C;
       solubility = 62 mg/L in water at 20 deg C
     * Diastereoisomer B: MP = 133.5 deg C; VP = 4X10-4 mPa at 20 deg C;
       SG/Density = 1.299 g/cu cm at 22 deg C; Kow (logP) = 3.28 at 25 deg
       C; Henry's Law constant = 4X10-6 Pa cu m mol-1 at 20 deg C;
       solubility = 33 mg/L in water at 20 deg C
     * Henry's Law constant = 1.3X10-12 atm-cu m/mole at 25 deg C (est)

   from [9]HSDB

   Computed Properties
   Molecular Weight                  295.76462 [g/mol]
   Molecular Formula                 C[14]H[18]ClN[3]O[2]
   XLogP3                            3.1
   H-Bond Donor                      1
   H-Bond Acceptor                   4
   Rotatable Bond Count              5
   Exact Mass                        295.108755
   MonoIsotopic Mass                 295.108755
   Topological Polar Surface Area    60.2
   Heavy Atom Count                  20
   Formal Charge                     0
   Complexity                        303
   Isotope Atom Count                0
   Defined Atom Stereocenter Count   0
   Undefined Atom Stereocenter Count 2
   Defined Bond Stereocenter Count   0
   Undefined Bond Stereocenter Count 0
   Covalently-Bonded Unit Count      1
   Feature 3D Acceptor Count         2
   Feature 3D Donor Count            1
   Feature 3D Cation Count           2
   Feature 3D Hydrophobe Count       1
   Feature 3D Ring Count             2
   Effective Rotor Count             5
   Conformer Sampling RMSD           0.8
   CID Conformer Count               [10]53

References

   1. http://toxnet.nlm.nih.gov/cgi-bin/sis/search/r?dbs+hsdb:@term+@rn+@rel+55219-65-3
   2. http://toxnet.nlm.nih.gov/cgi-bin/sis/search/r?dbs+hsdb:@term+@rn+@rel+55219-65-3
   3. http://toxnet.nlm.nih.gov/cgi-bin/sis/search/r?dbs+hsdb:@term+@rn+@rel+55219-65-3
   4. http://toxnet.nlm.nih.gov/cgi-bin/sis/search/r?dbs+hsdb:@term+@rn+@rel+55219-65-3
   5. http://toxnet.nlm.nih.gov/cgi-bin/sis/search/r?dbs+hsdb:@term+@rn+@rel+55219-65-3
   6. http://toxnet.nlm.nih.gov/cgi-bin/sis/search/r?dbs+hsdb:@term+@rn+@rel+55219-65-3
   7. http://toxnet.nlm.nih.gov/cgi-bin/sis/search/r?dbs+hsdb:@term+@rn+@rel+55219-65-3
   8. http://toxnet.nlm.nih.gov/cgi-bin/sis/search/r?dbs+hsdb:@term+@rn+@rel+55219-65-3
   9. http://toxnet.nlm.nih.gov/cgi-bin/sis/search/r?dbs+hsdb:@term+@rn+@rel+55219-65-3
  10. http://pubchem.ncbi.nlm.nih.gov/vw3d/vw3d.cgi?cid=41368
