4118
  -OEChem-06251223542D

 76 77  0     1  0  0  0  0  0999 V2000
    6.3301   -4.2141    0.0000 O   0  0  0  0  0  0  0  0  0  0  0  0
    2.8660   -4.2141    0.0000 O   0  0  0  0  0  0  0  0  0  0  0  0
    4.5981   -5.2141    0.0000 O   0  0  0  0  0  0  0  0  0  0  0  0
   12.0981    3.1160    0.0000 O   0  0  0  0  0  0  0  0  0  0  0  0
   11.0981    4.8481    0.0000 O   0  0  0  0  0  0  0  0  0  0  0  0
    7.5981    0.5179    0.0000 N   0  3  3  0  0  0  0  0  0  0  0  0
    2.5981   -1.2141    0.0000 N   0  0  0  0  0  0  0  0  0  0  0  0
    4.5981   -1.2141    0.0000 C   0  0  3  0  0  0  0  0  0  0  0  0
    5.5981   -1.2141    0.0000 C   0  0  0  0  0  0  0  0  0  0  0  0
    4.5981   -0.2141    0.0000 C   0  0  0  0  0  0  0  0  0  0  0  0
    6.0981   -0.3481    0.0000 C   0  0  0  0  0  0  0  0  0  0  0  0
    7.0981   -0.3481    0.0000 C   0  0  0  0  0  0  0  0  0  0  0  0
    4.5981   -2.2141    0.0000 C   0  0  0  0  0  0  0  0  0  0  0  0
    8.0981    1.3840    0.0000 C   0  0  0  0  0  0  0  0  0  0  0  0
    5.4641    0.2859    0.0000 C   0  0  0  0  0  0  0  0  0  0  0  0
    3.7320    0.2859    0.0000 C   0  0  0  0  0  0  0  0  0  0  0  0
    8.4641    0.0179    0.0000 C   0  0  0  0  0  0  0  0  0  0  0  0
    3.5981   -1.2141    0.0000 C   0  0  0  0  0  0  0  0  0  0  0  0
    9.0981    1.3840    0.0000 C   0  0  0  0  0  0  0  0  0  0  0  0
    3.7320   -2.7141    0.0000 C   0  0  0  0  0  0  0  0  0  0  0  0
    5.4641   -2.7141    0.0000 C   0  0  0  0  0  0  0  0  0  0  0  0
    5.4641   -3.7141    0.0000 C   0  0  0  0  0  0  0  0  0  0  0  0
    3.7320   -3.7141    0.0000 C   0  0  0  0  0  0  0  0  0  0  0  0
    9.5981    2.2500    0.0000 C   0  0  0  0  0  0  0  0  0  0  0  0
    4.5981   -4.2141    0.0000 C   0  0  0  0  0  0  0  0  0  0  0  0
   10.5981    2.2500    0.0000 C   0  0  0  0  0  0  0  0  0  0  0  0
    9.0981    3.1160    0.0000 C   0  0  0  0  0  0  0  0  0  0  0  0
   11.0981    3.1160    0.0000 C   0  0  0  0  0  0  0  0  0  0  0  0
    9.5981    3.9820    0.0000 C   0  0  0  0  0  0  0  0  0  0  0  0
   10.5981    3.9820    0.0000 C   0  0  0  0  0  0  0  0  0  0  0  0
    7.1962   -3.7141    0.0000 C   0  0  0  0  0  0  0  0  0  0  0  0
    2.0000   -3.7141    0.0000 C   0  0  0  0  0  0  0  0  0  0  0  0
    3.7320   -5.7141    0.0000 C   0  0  0  0  0  0  0  0  0  0  0  0
   12.5981    2.2500    0.0000 C   0  0  0  0  0  0  0  0  0  0  0  0
   10.5981    5.7141    0.0000 C   0  0  0  0  0  0  0  0  0  0  0  0
    5.4904   -1.8247    0.0000 H   0  0  0  0  0  0  0  0  0  0  0  0
    6.1807   -1.4262    0.0000 H   0  0  0  0  0  0  0  0  0  0  0  0
    4.5981    0.4059    0.0000 H   0  0  0  0  0  0  0  0  0  0  0  0
    6.2057    0.2625    0.0000 H   0  0  0  0  0  0  0  0  0  0  0  0
    5.5155   -0.1360    0.0000 H   0  0  0  0  0  0  0  0  0  0  0  0
    6.9904   -0.9587    0.0000 H   0  0  0  0  0  0  0  0  0  0  0  0
    7.6807   -0.5601    0.0000 H   0  0  0  0  0  0  0  0  0  0  0  0
    7.0611    0.8279    0.0000 H   0  0  0  0  0  0  0  0  0  0  0  0
    8.2057    1.9946    0.0000 H   0  0  0  0  0  0  0  0  0  0  0  0
    7.5155    1.5960    0.0000 H   0  0  0  0  0  0  0  0  0  0  0  0
    5.7741   -0.2510    0.0000 H   0  0  0  0  0  0  0  0  0  0  0  0
    4.0420    0.8228    0.0000 H   0  0  0  0  0  0  0  0  0  0  0  0
    3.1951    0.5959    0.0000 H   0  0  0  0  0  0  0  0  0  0  0  0
    3.4220   -0.2510    0.0000 H   0  0  0  0  0  0  0  0  0  0  0  0
    6.0010    0.5959    0.0000 H   0  0  0  0  0  0  0  0  0  0  0  0
    5.1541    0.8228    0.0000 H   0  0  0  0  0  0  0  0  0  0  0  0
    8.1541   -0.5190    0.0000 H   0  0  0  0  0  0  0  0  0  0  0  0
    9.0010   -0.2921    0.0000 H   0  0  0  0  0  0  0  0  0  0  0  0
    8.7741    0.5549    0.0000 H   0  0  0  0  0  0  0  0  0  0  0  0
    8.9904    0.7734    0.0000 H   0  0  0  0  0  0  0  0  0  0  0  0
    9.6807    1.1719    0.0000 H   0  0  0  0  0  0  0  0  0  0  0  0
    3.1951   -2.4041    0.0000 H   0  0  0  0  0  0  0  0  0  0  0  0
    6.0010   -2.4041    0.0000 H   0  0  0  0  0  0  0  0  0  0  0  0
   10.9081    1.7131    0.0000 H   0  0  0  0  0  0  0  0  0  0  0  0
    8.4781    3.1160    0.0000 H   0  0  0  0  0  0  0  0  0  0  0  0
    9.2881    4.5190    0.0000 H   0  0  0  0  0  0  0  0  0  0  0  0
    7.5062   -4.2510    0.0000 H   0  0  0  0  0  0  0  0  0  0  0  0
    7.7331   -3.4041    0.0000 H   0  0  0  0  0  0  0  0  0  0  0  0
    6.8862   -3.1772    0.0000 H   0  0  0  0  0  0  0  0  0  0  0  0
    2.3100   -3.1772    0.0000 H   0  0  0  0  0  0  0  0  0  0  0  0
    1.4631   -3.4041    0.0000 H   0  0  0  0  0  0  0  0  0  0  0  0
    1.6900   -4.2510    0.0000 H   0  0  0  0  0  0  0  0  0  0  0  0
    3.4220   -5.1772    0.0000 H   0  0  0  0  0  0  0  0  0  0  0  0
    3.1951   -6.0241    0.0000 H   0  0  0  0  0  0  0  0  0  0  0  0
    4.0420   -6.2510    0.0000 H   0  0  0  0  0  0  0  0  0  0  0  0
   12.0611    1.9400    0.0000 H   0  0  0  0  0  0  0  0  0  0  0  0
   12.9081    1.7131    0.0000 H   0  0  0  0  0  0  0  0  0  0  0  0
   13.1350    2.5600    0.0000 H   0  0  0  0  0  0  0  0  0  0  0  0
   11.1350    6.0241    0.0000 H   0  0  0  0  0  0  0  0  0  0  0  0
   10.2881    6.2510    0.0000 H   0  0  0  0  0  0  0  0  0  0  0  0
   10.0611    5.4041    0.0000 H   0  0  0  0  0  0  0  0  0  0  0  0
  1 22  1  0  0  0  0
  1 31  1  0  0  0  0
  2 23  1  0  0  0  0
  2 32  1  0  0  0  0
  3 25  1  0  0  0  0
  3 33  1  0  0  0  0
  4 28  1  0  0  0  0
  4 34  1  0  0  0  0
  5 30  1  0  0  0  0
  5 35  1  0  0  0  0
  6 12  1  0  0  0  0
  6 14  1  0  0  0  0
  6 17  1  0  0  0  0
  6 43  1  0  0  0  0
  7 18  3  0  0  0  0
  8  9  1  0  0  0  0
  8 10  1  0  0  0  0
  8 13  1  0  0  0  0
  8 18  1  0  0  0  0
  9 11  1  0  0  0  0
  9 36  1  0  0  0  0
  9 37  1  0  0  0  0
 10 15  1  0  0  0  0
 10 16  1  0  0  0  0
 10 38  1  0  0  0  0
 11 12  1  0  0  0  0
 11 39  1  0  0  0  0
 11 40  1  0  0  0  0
 12 41  1  0  0  0  0
 12 42  1  0  0  0  0
 13 20  2  0  0  0  0
 13 21  1  0  0  0  0
 14 19  1  0  0  0  0
 14 44  1  0  0  0  0
 14 45  1  0  0  0  0
 15 46  1  0  0  0  0
 15 50  1  0  0  0  0
 15 51  1  0  0  0  0
 16 47  1  0  0  0  0
 16 48  1  0  0  0  0
 16 49  1  0  0  0  0
 17 52  1  0  0  0  0
 17 53  1  0  0  0  0
 17 54  1  0  0  0  0
 19 24  1  0  0  0  0
 19 55  1  0  0  0  0
 19 56  1  0  0  0  0
 20 23  1  0  0  0  0
 20 57  1  0  0  0  0
 21 22  2  0  0  0  0
 21 58  1  0  0  0  0
 22 25  1  0  0  0  0
 23 25  2  0  0  0  0
 24 26  2  0  0  0  0
 24 27  1  0  0  0  0
 26 28  1  0  0  0  0
 26 59  1  0  0  0  0
 27 29  2  0  0  0  0
 27 60  1  0  0  0  0
 28 30  2  0  0  0  0
 29 30  1  0  0  0  0
 29 61  1  0  0  0  0
 31 62  1  0  0  0  0
 31 63  1  0  0  0  0
 31 64  1  0  0  0  0
 32 65  1  0  0  0  0
 32 66  1  0  0  0  0
 32 67  1  0  0  0  0
 33 68  1  0  0  0  0
 33 69  1  0  0  0  0
 33 70  1  0  0  0  0
 34 71  1  0  0  0  0
 34 72  1  0  0  0  0
 34 73  1  0  0  0  0
 35 74  1  0  0  0  0
 35 75  1  0  0  0  0
 35 76  1  0  0  0  0
M  CHG  1   6   1
M  END
> <PUBCHEM_COMPOUND_CID>
4118

> <PUBCHEM_COMPOUND_CANONICALIZED>
1

> <PUBCHEM_CACTVS_COMPLEXITY>
639

> <PUBCHEM_CACTVS_HBOND_ACCEPTOR>
6

> <PUBCHEM_CACTVS_HBOND_DONOR>
1

> <PUBCHEM_CACTVS_ROTATABLE_BOND>
14

> <PUBCHEM_CACTVS_SUBSKEYS>
AAADcfB7OAAAAAAAAAAAAAAAAAAAAAAAAAAwYAAAAAAAAAABQAAAHgAQAAAADwTBmAYyBoPABACQBiBCAAACCAAgIAAIiIAOiIgNpyKEsRuEMCIl0BWKqA+Q8P4PoAABCAAAQABAAAIQAACAAAAAAAAAAA==

> <PUBCHEM_IUPAC_OPENEYE_NAME>
[4-cyano-5-methyl-4-(3,4,5-trimethoxyphenyl)hexyl]-[2-(3,4-dimethoxyphenyl)ethyl]-methyl-ammonium

> <PUBCHEM_IUPAC_CAS_NAME>
[4-cyano-5-methyl-4-(3,4,5-trimethoxyphenyl)hexyl]-[2-(3,4-dimethoxyphenyl)ethyl]-methylammonium

> <PUBCHEM_IUPAC_NAME>
[4-cyano-5-methyl-4-(3,4,5-trimethoxyphenyl)hexyl]-[2-(3,4-dimethoxyphenyl)ethyl]-methylazanium

> <PUBCHEM_IUPAC_SYSTEMATIC_NAME>
[4-cyano-5-methyl-4-(3,4,5-trimethoxyphenyl)hexyl]-[2-(3,4-dimethoxyphenyl)ethyl]-methyl-azanium

> <PUBCHEM_IUPAC_TRADITIONAL_NAME>
[4-cyano-5-methyl-4-(3,4,5-trimethoxyphenyl)hexyl]-homoveratryl-methyl-ammonium

> <PUBCHEM_IUPAC_INCHI>
InChI=1S/C28H40N2O5/c1-20(2)28(19-29,22-17-25(33-6)27(35-8)26(18-22)34-7)13-9-14-30(3)15-12-21-10-11-23(31-4)24(16-21)32-5/h10-11,16-18,20H,9,12-15H2,1-8H3/p+1

> <PUBCHEM_IUPAC_INCHIKEY>
XQLWNAFCTODIRK-UHFFFAOYSA-O

> <PUBCHEM_XLOGP3>
3.8

> <PUBCHEM_EXACT_MASS>
485.301547

> <PUBCHEM_MOLECULAR_FORMULA>
C28H41N2O5+

> <PUBCHEM_MOLECULAR_WEIGHT>
485.63554

> <PUBCHEM_OPENEYE_CAN_SMILES>
CC(C)C(CCC[NH+](C)CCC1=CC(=C(C=C1)OC)OC)(C#N)C2=CC(=C(C(=C2)OC)OC)OC

> <PUBCHEM_OPENEYE_ISO_SMILES>
CC(C)C(CCC[NH+](C)CCC1=CC(=C(C=C1)OC)OC)(C#N)C2=CC(=C(C(=C2)OC)OC)OC

> <PUBCHEM_CACTVS_TPSA>
74.4

> <PUBCHEM_MONOISOTOPIC_WEIGHT>
485.301547

> <PUBCHEM_TOTAL_CHARGE>
1

> <PUBCHEM_HEAVY_ATOM_COUNT>
35

> <PUBCHEM_ATOM_DEF_STEREO_COUNT>
0

> <PUBCHEM_ATOM_UDEF_STEREO_COUNT>
1

> <PUBCHEM_BOND_DEF_STEREO_COUNT>
0

> <PUBCHEM_BOND_UDEF_STEREO_COUNT>
0

> <PUBCHEM_ISOTOPIC_ATOM_COUNT>
0

> <PUBCHEM_COMPONENT_COUNT>
1

> <PUBCHEM_CACTVS_TAUTO_COUNT>
1

> <PUBCHEM_COORDINATE_TYPE>
1
5
255

> <PUBCHEM_BONDANNOTATIONS>
13  20  8
13  21  8
20  23  8
21  22  8
22  25  8
23  25  8
24  26  8
24  27  8
26  28  8
27  29  8
28  30  8
29  30  8
8  9  3

$$$$

