   Color/Form

     * NEEDLES FROM CYCLOHEXANE
     * WHITE POWDER

   from [1]HSDB

   Odor
        ESSENTIALLY ODORLESS
   from [2]HSDB

   Taste
        Slightly bitter
   from [3]HSDB

   Boiling Point
        118-122 DEG C @ 3 MM OF HG
   from [4]HSDB

   Melting Point
        96-98 DEG C
   from [5]HSDB

   pH
        PH OF SATURATED SOLN ABOUT 6.5
   from [6]HSDB

   Solubilities

     * 1 G SOL IN ABOUT 500 ML WATER
     * FREELY SOL IN ALC, CHLOROFORM, & ETHER
     * SLIGHTLY SOL IN HEXANE
     * Sol at 25 deg C in water 0.25%, ethanol 35.0%, hexane 2.0%, sesame
       oil 0.7%, 1,2-propylene glycol 22%.
     * 1 in 3 part of alcohol, 1 in 50 part of light petroleum, 1 in 4.6
       part of propylene glycol, and 1 in 140 part of sesame oil.

   from [7]HSDB

   Spectral Properties

     * INDEX OF REFRACTION: 1.530 ALPHA, 1.536 BETA, 1.546 GAMMA; OPTIC
       SIGN +
     * INDEX OF REFRACTION (20% IN PROPYLENE GLYCOL): 1.4441 @ 21.5 DEG
       C/D
     * Intense mass spectral peaks: 81 m/z, 95 m/z, 124 m/z, 167 m/z
     * Shows no optical activity.

   from [8]HSDB

   Other Chemical/Physical Properties

     * LOWERS SURFACE TENSION IN SATURATED AQ SOLN @ 22 DEG C BY 21%
     * PARTITION COEFFICIENT IN OIL/WATER IS 1.48 (THAT OF ETHYL CARBAMATE
       IS 0.14)
     * Stable in N sulfuric acid at 30 deg C, but decomposes at 40 deg C
       and in 0.02 N acid at 60 deg C. In 0.01 N sodium hydroxide, carbon
       dioxide is split off at 30 deg C.

   from [9]HSDB

   Computed Properties
   Molecular Weight                  167.20502 [g/mol]
   Molecular Formula                 C[9]H[13]NO[2]
   XLogP3-AA                         1.3
   H-Bond Donor                      1
   H-Bond Acceptor                   2
   Rotatable Bond Count              3
   Tautomer Count                    2
   Exact Mass                        167.094629
   MonoIsotopic Mass                 167.094629
   Topological Polar Surface Area    52.3
   Heavy Atom Count                  12
   Formal Charge                     0
   Complexity                        220
   Isotope Atom Count                0
   Defined Atom Stereocenter Count   0
   Undefined Atom Stereocenter Count 0
   Defined Bond Stereocenter Count   0
   Undefined Bond Stereocenter Count 0
   Covalently-Bonded Unit Count      1
   Feature 3D Acceptor Count         1
   Feature 3D Donor Count            1
   Feature 3D Hydrophobe Count       1
   Feature 3D Ring Count             1
   Effective Rotor Count             3.2
   Conformer Sampling RMSD           0.6
   CID Conformer Count               [10]9

References

   1. http://toxnet.nlm.nih.gov/cgi-bin/sis/search/r?dbs+hsdb:@term+@rn+@rel+126-52-3
   2. http://toxnet.nlm.nih.gov/cgi-bin/sis/search/r?dbs+hsdb:@term+@rn+@rel+126-52-3
   3. http://toxnet.nlm.nih.gov/cgi-bin/sis/search/r?dbs+hsdb:@term+@rn+@rel+126-52-3
   4. http://toxnet.nlm.nih.gov/cgi-bin/sis/search/r?dbs+hsdb:@term+@rn+@rel+126-52-3
   5. http://toxnet.nlm.nih.gov/cgi-bin/sis/search/r?dbs+hsdb:@term+@rn+@rel+126-52-3
   6. http://toxnet.nlm.nih.gov/cgi-bin/sis/search/r?dbs+hsdb:@term+@rn+@rel+126-52-3
   7. http://toxnet.nlm.nih.gov/cgi-bin/sis/search/r?dbs+hsdb:@term+@rn+@rel+126-52-3
   8. http://toxnet.nlm.nih.gov/cgi-bin/sis/search/r?dbs+hsdb:@term+@rn+@rel+126-52-3
   9. http://toxnet.nlm.nih.gov/cgi-bin/sis/search/r?dbs+hsdb:@term+@rn+@rel+126-52-3
  10. http://pubchem.ncbi.nlm.nih.gov/vw3d/vw3d.cgi?cid=3284
