   Melting Point
        107.5 to 108 deg C
   from [1]HSDB

   Dissociation Constants
        pKa = 8.09; also reported as 8.17
   from [2]HSDB

   Octanol/Water Partition Coefficient
        log Kow = 3.41
   from [3]HSDB

   Solubilities
        In water, 9.17X10-5 mg/L at 25 deg C, unbuffered (deionized) water
   from [4]HSDB

   Vapor Pressure
        1.31X10-7 mm Hg at 25 deg C (est)
   from [5]HSDB

   Other Chemical/Physical Properties

     * Partition coefficient: (oleyl alcohol/water) 1565; (n-heptane/pH
       7.4 buffer) 27.5
     * White, odorless crystalline powder, mp 258.5 deg C. Slightly
       soluble in acetone, chloroform, ether. Solubility (mg/L): water 40;
       alcohol 125 /Bupivacaine hydrochloride monohydrate/
     * Crystals from isopropanol, mp 255-257 deg C. Specific optical
       rotation: -80.9 deg at 25 deg C (c = 2 in methanol) /Bupivacaine
       (-) form/
     * Mp 255-257 deg C. Specific optical rotation: -12.3 deg at 25 deg C
       (c = 2 in water) /Bupivacaine (-) form hydrochloride/
     * Henry's Law constant = 1.79X10-10 atm-cu m/mol at 25 deg C (est)
     * Hydroxyl radical reaction rate constant = 1.33X10-10 cu
       cm/molec-sec at 25 deg C (est)

   from [6]HSDB

   Computed Properties
   Molecular Weight                  288.42772 [g/mol]
   Molecular Formula                 C[18]H[28]N[2]O
   XLogP3                            3.4
   H-Bond Donor                      1
   H-Bond Acceptor                   2
   Rotatable Bond Count              5
   Tautomer Count                    3
   Exact Mass                        288.220164
   MonoIsotopic Mass                 288.220164
   Topological Polar Surface Area    32.3
   Heavy Atom Count                  21
   Formal Charge                     0
   Complexity                        321
   Isotope Atom Count                0
   Defined Atom Stereocenter Count   0
   Undefined Atom Stereocenter Count 1
   Defined Bond Stereocenter Count   0
   Undefined Bond Stereocenter Count 0
   Covalently-Bonded Unit Count      1
   Feature 3D Acceptor Count         1
   Feature 3D Donor Count            1
   Feature 3D Cation Count           1
   Feature 3D Hydrophobe Count       1
   Feature 3D Ring Count             2
   Effective Rotor Count             7.2
   Conformer Sampling RMSD           0.8
   CID Conformer Count               [7]70

References

   1. http://toxnet.nlm.nih.gov/cgi-bin/sis/search/r?dbs+hsdb:@term+@rn+@rel+38396-39-3
   2. http://toxnet.nlm.nih.gov/cgi-bin/sis/search/r?dbs+hsdb:@term+@rn+@rel+38396-39-3
   3. http://toxnet.nlm.nih.gov/cgi-bin/sis/search/r?dbs+hsdb:@term+@rn+@rel+38396-39-3
   4. http://toxnet.nlm.nih.gov/cgi-bin/sis/search/r?dbs+hsdb:@term+@rn+@rel+38396-39-3
   5. http://toxnet.nlm.nih.gov/cgi-bin/sis/search/r?dbs+hsdb:@term+@rn+@rel+38396-39-3
   6. http://toxnet.nlm.nih.gov/cgi-bin/sis/search/r?dbs+hsdb:@term+@rn+@rel+38396-39-3
   7. http://pubchem.ncbi.nlm.nih.gov/vw3d/vw3d.cgi?cid=2474
