   Color/Form

     * Crystals from isopropyl alcohol
     * White crytals
     * Pure, colorless crystalline solid

   from [1]HSDB

   Melting Point
        106.1 deg C
   from [2]HSDB

   Density/Specific Gravity
        1.18 at 20 deg C
   from [3]HSDB

   Dissociation Constants
        pKa = 6.7 (est)
   from [4]HSDB

   Octanol/Water Partition Coefficient
        log Kow = 4.30
   from [5]HSDB

   Solubilities

     * Solubility at 25 deg C (g/L): acetone 240; chloroform 520; ethanol
       80; toluene 320
     * Solubility in benzene 370; hexane 20 (all in g/L, 25 deg C)
     * In water, 0.9 mg/L at 25 deg C

   from [6]HSDB

   Vapor Pressure
        9.4X10-6 mm Hg at 25 deg C
   from [7]HSDB

   Other Chemical/Physical Properties

     * White or pale yellow crystalline powder /Technical/
     * Henry's Law constant = 4.2X10-6 atm-cu m/mol at 25 deg C (est)
     * Hydroxyl radical reaction rate constant = 5.38X10-11 cu
       cm/molec-sec at 25 deg C (est)

   from [8]HSDB

   Computed Properties
   Molecular Weight                  305.43832 [g/mol]
   Molecular Formula                 C[16]H[23]N[3]OS
   XLogP3-AA                         3.8
   H-Bond Donor                      0
   H-Bond Acceptor                   3
   Rotatable Bond Count              3
   Exact Mass                        305.156183
   MonoIsotopic Mass                 305.156183
   Topological Polar Surface Area    61.2
   Heavy Atom Count                  21
   Formal Charge                     0
   Complexity                        408
   Isotope Atom Count                0
   Defined Atom Stereocenter Count   0
   Undefined Atom Stereocenter Count 0
   Defined Bond Stereocenter Count   0
   Undefined Bond Stereocenter Count 0
   Covalently-Bonded Unit Count      1
   Feature 3D Acceptor Count         1
   Feature 3D Hydrophobe Count       2
   Feature 3D Ring Count             2
   Effective Rotor Count             3.8
   Conformer Sampling RMSD           0.6
   CID Conformer Count               [9]4

References

   1. http://toxnet.nlm.nih.gov/cgi-bin/sis/search/r?dbs+hsdb:@term+@rn+@rel+69327-76-0
   2. http://toxnet.nlm.nih.gov/cgi-bin/sis/search/r?dbs+hsdb:@term+@rn+@rel+69327-76-0
   3. http://toxnet.nlm.nih.gov/cgi-bin/sis/search/r?dbs+hsdb:@term+@rn+@rel+69327-76-0
   4. http://toxnet.nlm.nih.gov/cgi-bin/sis/search/r?dbs+hsdb:@term+@rn+@rel+69327-76-0
   5. http://toxnet.nlm.nih.gov/cgi-bin/sis/search/r?dbs+hsdb:@term+@rn+@rel+69327-76-0
   6. http://toxnet.nlm.nih.gov/cgi-bin/sis/search/r?dbs+hsdb:@term+@rn+@rel+69327-76-0
   7. http://toxnet.nlm.nih.gov/cgi-bin/sis/search/r?dbs+hsdb:@term+@rn+@rel+69327-76-0
   8. http://toxnet.nlm.nih.gov/cgi-bin/sis/search/r?dbs+hsdb:@term+@rn+@rel+69327-76-0
   9. http://pubchem.ncbi.nlm.nih.gov/vw3d/vw3d.cgi?cid=50367
