12841
  -OEChem-06261207262D

 32 32  0     0  0  0  0  0  0999 V2000
    3.7320   -1.1900    0.0000 O   0  0  0  0  0  0  0  0  0  0  0  0
    2.0000   -3.1900    0.0000 O   0  0  0  0  0  0  0  0  0  0  0  0
    3.7320    2.8100    0.0000 C   0  0  0  0  0  0  0  0  0  0  0  0
    3.7320    1.8100    0.0000 C   0  0  0  0  0  0  0  0  0  0  0  0
    3.7320    3.8100    0.0000 C   0  0  0  0  0  0  0  0  0  0  0  0
    4.7320    2.8100    0.0000 C   0  0  0  0  0  0  0  0  0  0  0  0
    2.7320    2.8100    0.0000 C   0  0  0  0  0  0  0  0  0  0  0  0
    2.8660    1.3100    0.0000 C   0  0  0  0  0  0  0  0  0  0  0  0
    4.5981    1.3100    0.0000 C   0  0  0  0  0  0  0  0  0  0  0  0
    2.8660    0.3100    0.0000 C   0  0  0  0  0  0  0  0  0  0  0  0
    4.5981    0.3100    0.0000 C   0  0  0  0  0  0  0  0  0  0  0  0
    3.7320   -0.1900    0.0000 C   0  0  0  0  0  0  0  0  0  0  0  0
    2.8660   -1.6900    0.0000 C   0  0  0  0  0  0  0  0  0  0  0  0
    2.8660   -2.6900    0.0000 C   0  0  0  0  0  0  0  0  0  0  0  0
    4.3520    3.8100    0.0000 H   0  0  0  0  0  0  0  0  0  0  0  0
    2.7320    3.4300    0.0000 H   0  0  0  0  0  0  0  0  0  0  0  0
    2.1120    2.8100    0.0000 H   0  0  0  0  0  0  0  0  0  0  0  0
    2.7320    2.1900    0.0000 H   0  0  0  0  0  0  0  0  0  0  0  0
    4.7320    2.1900    0.0000 H   0  0  0  0  0  0  0  0  0  0  0  0
    5.3520    2.8100    0.0000 H   0  0  0  0  0  0  0  0  0  0  0  0
    4.7320    3.4300    0.0000 H   0  0  0  0  0  0  0  0  0  0  0  0
    3.7320    4.4300    0.0000 H   0  0  0  0  0  0  0  0  0  0  0  0
    3.1120    3.8100    0.0000 H   0  0  0  0  0  0  0  0  0  0  0  0
    2.3291    1.6200    0.0000 H   0  0  0  0  0  0  0  0  0  0  0  0
    5.1350    1.6200    0.0000 H   0  0  0  0  0  0  0  0  0  0  0  0
    2.3291    0.0000    0.0000 H   0  0  0  0  0  0  0  0  0  0  0  0
    5.1350    0.0000    0.0000 H   0  0  0  0  0  0  0  0  0  0  0  0
    2.6540   -1.1074    0.0000 H   0  0  0  0  0  0  0  0  0  0  0  0
    2.2554   -1.7977    0.0000 H   0  0  0  0  0  0  0  0  0  0  0  0
    3.0781   -3.2726    0.0000 H   0  0  0  0  0  0  0  0  0  0  0  0
    3.4766   -2.5823    0.0000 H   0  0  0  0  0  0  0  0  0  0  0  0
    2.0000   -3.8100    0.0000 H   0  0  0  0  0  0  0  0  0  0  0  0
  1 12  1  0  0  0  0
  1 13  1  0  0  0  0
  2 14  1  0  0  0  0
  2 32  1  0  0  0  0
  3  4  1  0  0  0  0
  3  5  1  0  0  0  0
  3  6  1  0  0  0  0
  3  7  1  0  0  0  0
  4  8  2  0  0  0  0
  4  9  1  0  0  0  0
  5 15  1  0  0  0  0
  5 22  1  0  0  0  0
  5 23  1  0  0  0  0
  6 19  1  0  0  0  0
  6 20  1  0  0  0  0
  6 21  1  0  0  0  0
  7 16  1  0  0  0  0
  7 17  1  0  0  0  0
  7 18  1  0  0  0  0
  8 10  1  0  0  0  0
  8 24  1  0  0  0  0
  9 11  2  0  0  0  0
  9 25  1  0  0  0  0
 10 12  2  0  0  0  0
 10 26  1  0  0  0  0
 11 12  1  0  0  0  0
 11 27  1  0  0  0  0
 13 14  1  0  0  0  0
 13 28  1  0  0  0  0
 13 29  1  0  0  0  0
 14 30  1  0  0  0  0
 14 31  1  0  0  0  0
M  END
> <PUBCHEM_COMPOUND_CID>
12841

> <PUBCHEM_COMPOUND_CANONICALIZED>
1

> <PUBCHEM_CACTVS_COMPLEXITY>
152

> <PUBCHEM_CACTVS_HBOND_ACCEPTOR>
2

> <PUBCHEM_CACTVS_HBOND_DONOR>
1

> <PUBCHEM_CACTVS_ROTATABLE_BOND>
4

> <PUBCHEM_CACTVS_SUBSKEYS>
AAADceBwMAAAAAAAAAAAAAAAAAAAAAAAAAAwAAAAAAAAAAABAAAAGgAACAAADgSgmAIyBoAABgCAAiBCAAACCAAgIAAIiAAGCIgNNiKEMRqCOCCkwBELqAeAwNAPoAAAAAAAAABAAAAAAAAAAAAAAAAAAA==

> <PUBCHEM_IUPAC_OPENEYE_NAME>
2-(4-tert-butylphenoxy)ethanol

> <PUBCHEM_IUPAC_CAS_NAME>
2-(4-tert-butylphenoxy)ethanol

> <PUBCHEM_IUPAC_NAME>
2-(4-tert-butylphenoxy)ethanol

> <PUBCHEM_IUPAC_SYSTEMATIC_NAME>
2-(4-tert-butylphenoxy)ethanol

> <PUBCHEM_IUPAC_TRADITIONAL_NAME>
2-(4-tert-butylphenoxy)ethanol

> <PUBCHEM_IUPAC_INCHI>
InChI=1S/C12H18O2/c1-12(2,3)10-4-6-11(7-5-10)14-9-8-13/h4-7,13H,8-9H2,1-3H3

> <PUBCHEM_IUPAC_INCHIKEY>
KGPFHDDLZCYWAO-UHFFFAOYSA-N

> <PUBCHEM_XLOGP3>
2.8

> <PUBCHEM_EXACT_MASS>
194.13068

> <PUBCHEM_MOLECULAR_FORMULA>
C12H18O2

> <PUBCHEM_MOLECULAR_WEIGHT>
194.27012

> <PUBCHEM_OPENEYE_CAN_SMILES>
CC(C)(C)C1=CC=C(C=C1)OCCO

> <PUBCHEM_OPENEYE_ISO_SMILES>
CC(C)(C)C1=CC=C(C=C1)OCCO

> <PUBCHEM_CACTVS_TPSA>
29.5

> <PUBCHEM_MONOISOTOPIC_WEIGHT>
194.13068

> <PUBCHEM_TOTAL_CHARGE>
0

> <PUBCHEM_HEAVY_ATOM_COUNT>
14

> <PUBCHEM_ATOM_DEF_STEREO_COUNT>
0

> <PUBCHEM_ATOM_UDEF_STEREO_COUNT>
0

> <PUBCHEM_BOND_DEF_STEREO_COUNT>
0

> <PUBCHEM_BOND_UDEF_STEREO_COUNT>
0

> <PUBCHEM_ISOTOPIC_ATOM_COUNT>
0

> <PUBCHEM_COMPONENT_COUNT>
1

> <PUBCHEM_CACTVS_TAUTO_COUNT>
1

> <PUBCHEM_COORDINATE_TYPE>
1
5
255

> <PUBCHEM_BONDANNOTATIONS>
10  12  8
11  12  8
4  8  8
4  9  8
8  10  8
9  11  8

$$$$

