9543084
  -OEChem-07051213112D

 31 35  0     1  0  0  0  0  0999 V2000
    2.9178    3.2527    0.0000 O   0  0  0  0  0  0  0  0  0  0  0  0
    5.6147   -2.2537    0.0000 O   0  0  0  0  0  0  0  0  0  0  0  0
    2.9180    2.2523    0.0000 C   0  0  3  0  0  0  0  0  0  0  0  0
    3.7841    2.7523    0.0000 C   0  0  3  0  0  0  0  0  0  0  0  0
    2.9180    1.2523    0.0000 C   0  0  0  0  0  0  0  0  0  0  0  0
    3.7841    0.7523    0.0000 C   0  0  0  0  0  0  0  0  0  0  0  0
    4.6501    2.2523    0.0000 C   0  0  0  0  0  0  0  0  0  0  0  0
    4.6501    1.2523    0.0000 C   0  0  0  0  0  0  0  0  0  0  0  0
    3.8001   -0.2892    0.0000 C   0  0  0  0  0  0  0  0  0  0  0  0
    2.0080    0.7454    0.0000 C   0  0  0  0  0  0  0  0  0  0  0  0
    2.9021   -0.8170    0.0000 C   0  0  0  0  0  0  0  0  0  0  0  0
    4.6772   -0.7520    0.0000 C   0  0  0  0  0  0  0  0  0  0  0  0
    5.5095    0.7575    0.0000 C   0  0  0  0  0  0  0  0  0  0  0  0
    2.0000   -0.2962    0.0000 C   0  0  0  0  0  0  0  0  0  0  0  0
    5.5230   -0.2341    0.0000 C   0  0  0  0  0  0  0  0  0  0  0  0
    4.7274   -1.7926    0.0000 C   0  0  0  0  0  0  0  0  0  0  0  0
    2.9282   -1.8584    0.0000 C   0  0  0  0  0  0  0  0  0  0  0  0
    3.8470   -2.3495    0.0000 C   0  0  0  0  0  0  0  0  0  0  0  0
    5.6590   -3.2527    0.0000 C   0  0  0  0  0  0  0  0  0  0  0  0
    2.2980    2.2522    0.0000 H   0  0  0  0  0  0  0  0  0  0  0  0
    4.0941    3.2892    0.0000 H   0  0  0  0  0  0  0  0  0  0  0  0
    5.1870    2.5623    0.0000 H   0  0  0  0  0  0  0  0  0  0  0  0
    1.4747    1.0616    0.0000 H   0  0  0  0  0  0  0  0  0  0  0  0
    6.0442    1.0715    0.0000 H   0  0  0  0  0  0  0  0  0  0  0  0
    1.4619   -0.6041    0.0000 H   0  0  0  0  0  0  0  0  0  0  0  0
    6.0659   -0.5335    0.0000 H   0  0  0  0  0  0  0  0  0  0  0  0
    2.4004   -2.1838    0.0000 H   0  0  0  0  0  0  0  0  0  0  0  0
    3.8696   -2.9691    0.0000 H   0  0  0  0  0  0  0  0  0  0  0  0
    5.0396   -3.2802    0.0000 H   0  0  0  0  0  0  0  0  0  0  0  0
    5.6865   -3.8721    0.0000 H   0  0  0  0  0  0  0  0  0  0  0  0
    6.2784   -3.2253    0.0000 H   0  0  0  0  0  0  0  0  0  0  0  0
  1  3  1  0  0  0  0
  1  4  1  0  0  0  0
  2 16  1  0  0  0  0
  2 19  1  0  0  0  0
  3  4  1  0  0  0  0
  3  5  1  0  0  0  0
  3 20  1  0  0  0  0
  4  7  1  0  0  0  0
  4 21  1  0  0  0  0
  5  6  2  0  0  0  0
  5 10  1  0  0  0  0
  6  8  1  0  0  0  0
  6  9  1  0  0  0  0
  7  8  2  0  0  0  0
  7 22  1  0  0  0  0
  8 13  1  0  0  0  0
  9 11  2  0  0  0  0
  9 12  1  0  0  0  0
 10 14  2  0  0  0  0
 10 23  1  0  0  0  0
 11 14  1  0  0  0  0
 11 17  1  0  0  0  0
 12 15  1  0  0  0  0
 12 16  2  0  0  0  0
 13 15  2  0  0  0  0
 13 24  1  0  0  0  0
 14 25  1  0  0  0  0
 15 26  1  0  0  0  0
 16 18  1  0  0  0  0
 17 18  2  0  0  0  0
 17 27  1  0  0  0  0
 18 28  1  0  0  0  0
 19 29  1  0  0  0  0
 19 30  1  0  0  0  0
 19 31  1  0  0  0  0
M  END
> <PUBCHEM_COMPOUND_CID>
9543084

> <PUBCHEM_COMPOUND_CANONICALIZED>
1

> <PUBCHEM_CACTVS_COMPLEXITY>
466

> <PUBCHEM_CACTVS_HBOND_ACCEPTOR>
2

> <PUBCHEM_CACTVS_HBOND_DONOR>
0

> <PUBCHEM_CACTVS_ROTATABLE_BOND>
1

> <PUBCHEM_CACTVS_SUBSKEYS>
AAADccB4MAAAAAAAAAAAAAAAEgAAAAAAAAAwYIEABAAAAADBUAAAGgAAAAAADBSgmAIyBsAABACAAiBCAAACCAAgIAAIiAAGCIgMJiKEMRqCMCAkwBEIqAeAwPAO4AADAAAYAADAAAYAADAAAAAAAAAAAA==

> <PUBCHEM_IUPAC_INCHI>
InChI=1S/C17H12O2/c1-18-13-7-4-9-2-6-12-16-10(8-14-17(12)19-14)3-5-11(13)15(9)16/h2-8,14,17H,1H3

> <PUBCHEM_IUPAC_INCHIKEY>
NKUNJGBFRAVFHT-UHFFFAOYSA-N

> <PUBCHEM_XLOGP3_AA>
3

> <PUBCHEM_EXACT_MASS>
248.08373

> <PUBCHEM_MOLECULAR_FORMULA>
C17H12O2

> <PUBCHEM_MOLECULAR_WEIGHT>
248.27598

> <PUBCHEM_OPENEYE_CAN_SMILES>
COC1=C2C=CC3=CC4C(O4)C5=C3C2=C(C=C5)C=C1

> <PUBCHEM_OPENEYE_ISO_SMILES>
COC1=C2C=CC3=CC4C(O4)C5=C3C2=C(C=C5)C=C1

> <PUBCHEM_CACTVS_TPSA>
21.8

> <PUBCHEM_MONOISOTOPIC_WEIGHT>
248.08373

> <PUBCHEM_TOTAL_CHARGE>
0

> <PUBCHEM_HEAVY_ATOM_COUNT>
19

> <PUBCHEM_ATOM_DEF_STEREO_COUNT>
0

> <PUBCHEM_ATOM_UDEF_STEREO_COUNT>
2

> <PUBCHEM_BOND_DEF_STEREO_COUNT>
0

> <PUBCHEM_BOND_UDEF_STEREO_COUNT>
0

> <PUBCHEM_ISOTOPIC_ATOM_COUNT>
0

> <PUBCHEM_COMPONENT_COUNT>
1

> <PUBCHEM_CACTVS_TAUTO_COUNT>
1

> <PUBCHEM_COORDINATE_TYPE>
1
5
255

> <PUBCHEM_BONDANNOTATIONS>
3  1  3
10  14  8
11  14  8
11  17  8
12  15  8
12  16  8
13  15  8
16  18  8
17  18  8
4  7  3
5  10  8
5  6  8
6  8  8
6  9  8
8  13  8
9  11  8
9  12  8

$$$$

