   Color/Form

     * White crystals
     * Colorless crystals

   from [1]HSDB

   Boiling Point
        Decomposes on distillation
   from [2]HSDB

   Melting Point
        167-169 deg C
   from [3]HSDB

   Corrosivity
        Non-corrosive
   from [4]HSDB

   Solubilities

     * Moderately soluble in most common organic solvents except petroleum
       ether.
     * 250 mg/l in water @ 20 deg C
     * 5 g/l in benzene @ 20 deg C
     * 30-35 g/l in chloroform @ 20 deg C
     * 10-15 g/l in ethanol @ 20 deg C

   from [5]HSDB

   Spectral Properties
        Intense mass spectral peaks: 135 m/z, 160 m/z, 251 m/z, 294 m/z
   from [6]HSDB

   Vapor Pressure
        Very low at room temperature
   from [7]HSDB

   Computed Properties
   Molecular Weight                  294.292622 [g/mol]
   Molecular Formula                 C[12]H[19]N[6]OP
   XLogP3-AA                         1.8
   H-Bond Donor                      1
   H-Bond Acceptor                   6
   Rotatable Bond Count              4
   Tautomer Count                    3
   Exact Mass                        294.135796
   MonoIsotopic Mass                 294.135796
   Topological Polar Surface Area    80.3
   Heavy Atom Count                  20
   Formal Charge                     0
   Complexity                        359
   Isotope Atom Count                0
   Defined Atom Stereocenter Count   0
   Undefined Atom Stereocenter Count 0
   Defined Bond Stereocenter Count   0
   Undefined Bond Stereocenter Count 0
   Covalently-Bonded Unit Count      1
   Feature 3D Acceptor Count         1
   Feature 3D Donor Count            1
   Feature 3D Cation Count           1
   Feature 3D Ring Count             2
   Effective Rotor Count             4
   Conformer Sampling RMSD           0.6
   CID Conformer Count               [8]13

References

   1. http://toxnet.nlm.nih.gov/cgi-bin/sis/search/r?dbs+hsdb:@term+@rn+@rel+1031-47-6
   2. http://toxnet.nlm.nih.gov/cgi-bin/sis/search/r?dbs+hsdb:@term+@rn+@rel+1031-47-6
   3. http://toxnet.nlm.nih.gov/cgi-bin/sis/search/r?dbs+hsdb:@term+@rn+@rel+1031-47-6
   4. http://toxnet.nlm.nih.gov/cgi-bin/sis/search/r?dbs+hsdb:@term+@rn+@rel+1031-47-6
   5. http://toxnet.nlm.nih.gov/cgi-bin/sis/search/r?dbs+hsdb:@term+@rn+@rel+1031-47-6
   6. http://toxnet.nlm.nih.gov/cgi-bin/sis/search/r?dbs+hsdb:@term+@rn+@rel+1031-47-6
   7. http://toxnet.nlm.nih.gov/cgi-bin/sis/search/r?dbs+hsdb:@term+@rn+@rel+1031-47-6
   8. http://pubchem.ncbi.nlm.nih.gov/vw3d/vw3d.cgi?cid=13943
