   Color/Form

     * COLORLESS GAS
     * GAS CONDENSES TO LIQ; SOLIDIFIES TO SNOW-WHITE MASS
     * Liquid is colorless.

   from [1]HSDB

   Odor
        ODORLESS GAS
   from [2]HSDB

   Taste
        TASTELESS GAS
   from [3]HSDB

   Boiling Point
        -195.79 DEG C /LIQ/
   from [4]HSDB

   Melting Point
        -210.01 DEG C /SOLID/
   from [5]HSDB

   Critical Temperature and Pressure
        CRITICAL TEMP: -147.1 DEG C; CRITICAL PRESSURE: 33.5 ATM
   from [6]HSDB

   Density/Specific Gravity
        1.251 g/L at 0 deg C and 1 atm; 0.96737 (air = 1); 0.804 (liquid),
   and 1.0265 (solid) /as per source/
   from [7]HSDB

   Heat of Vaporization
        Molar enthalpy of vaporization: 5.57 kJ/mol at -195.79 deg C
   from [8]HSDB

   Octanol/Water Partition Coefficient
        log Kow = 0.67
   from [9]HSDB

   Solubilities

     * 100 VOL WATER ABSORBS 2.4 VOL NITROGEN @ 0 DEG C; 100 VOL WATER
       ABSORBS 1.6 VOL NITROGEN @ 20 DEG C /GAS/
     * SOL IN LIQ AMMONIA; 1 VOL ALC DISSOLVES 0.1124 VOL NITROGEN @ 20
       DEG C
     * 2.33 CU M SOL IN 100 CC WATER @ 0 DEG C; 1.42 CU M SOL IN 100 CC
       WATER @ 40 DEG C

   from [10]HSDB

   Spectral Properties

     * Index of Refraction: 1.000296-1.000298 @ 0 deg C/D
     * Refractive index, gas 101.325 kPa n(d) at 25 deg C 1.0002732

   from [11]HSDB

   Surface Tension
        6.6 dynes/cm @ -183 deg C; 8.27 dynes/cm @ -193 deg C; 10.53
   dynes/cm @ -203 deg C
   from [12]HSDB

   Vapor Density
        VAPOR DENSITY @ NORMAL TEMP APPROX SAME AS AIR; COLD GAS AS IT
   COMES FROM LIQ IS HEAVIER THAN AIR /GAS/
   from [13]HSDB

   Vapor Pressure
        1 atm @ 77.347 deg K
   from [14]HSDB

   Viscosity
        156.3 micropoises @ -21.5 deg C; 170.7 micropoises @ 10.9 deg C;
   178.1 micropoises @ 27.4 deg C; 219.1 micropoises @ 127.2 deg C; 255.9
   micropoises @ 226.7 deg C; 279.7 micropoises @ 299 deg C; 337.4
   micropoises @ 490 deg C; 419.2 micropoises @ 825 deg C
   from [15]HSDB

   Other Chemical/Physical Properties

     * ATOMIC NUMBER: 7; VALENCES: 3, 5; ELEMENTAL STATE: N2; TWO
       NATURALLY OCCURRING ISOTOPES: 14 (99.635%), 15 (0.365%); FIVE
       SHORT-LIVED, ARTIFICIAL, RADIOACTIVE ISOTOPES: 12, 13, 16-18;
       CRITICAL DENSITY: 0.311 G/CU CM; HEAT OF DISSOCIATION OF NITROGEN
       MOLECULE (N2): 225.1 KCAL/MOLE
     * TWO ALLOTROPIC FORMS OF SOLID NITROGEN EXIST, WITH TRANSITION FROM
       ALPHA TO BETA FORM TAKING PLACE @ -237 DEG C
     * ATOMIC RADIUS: 0.70 A; IONIC (CRYSTAL) RADII: 1.32 A (-3 0XIDATION
       STATE); 0.27 A (+5 OXIDATION STATE); ELECTRONEGATIVITY (PAULING
       SCALE): 3.04; ORBITAL ELECTRONS: [HE]2S2-2P3
     * TRIPLE POINT TEMP: 63.1 DEG K; TRIPLE POINT PRESSURE: 0.127 ATM;
       HEAT OF FUSION: 6.1 CAL/G
     * Specific Heat: 0.249 cal/g/deg K @ 25 deg C (N2)
     * Ratio of specific heats of vapor (Gas): 1.3962
     * Critical compressibility factor= 0.2916.
     * Critical volume: 3.216 cu dm/kg
     * One mole of nitrogen /weighs/ 0.0280134 kg
     * Diffusivities of nitrogen in other gases at 101.325 kPa in argon at
       20 deg C is 0.194 sq cm/s; in carbon dioxide at 20 deg C is 0.163
       sq cm/s; in helium at 20 deg C is 0.705 sq cm/s; in hydrogen at 0
       deg C is 0.674 sq cm/s; in oxygen at 0 deg C is 0.181 sq cm/s.
     * Velocity of sound in nitrogen at 101.325 kPa at 0 deg C: 336.96
       m/s.
     * Dielectric constant, liquid at 70.15 k= 1.454; dielectric constant,
       gas at 101.325 kPa at 20 deg C= 1.0005480
     * Liquid surface tension 8.3 dynes/cm= 0.083 N/m at -193 deg C.
     * INERT GAS; DUE TO STABLE TRIPLE BOND STRUCTURE, NITROGEN MOLECULE
       SHOWS LITTLE ACTIVITY TOWARD OTHER ELEMENTS
     * Molar enthalpy of fusion: 0.71 kJ/mol at -210 deg C

   from [16]HSDB

   Computed Properties
   Molecular Weight                  28.0134 [g/mol]
   Molecular Formula                 N[2]
   XLogP3-AA                         0.1
   H-Bond Donor                      0
   H-Bond Acceptor                   2
   Rotatable Bond Count              0
   Exact Mass                        28.006148
   MonoIsotopic Mass                 28.006148
   Topological Polar Surface Area    47.6
   Heavy Atom Count                  2
   Formal Charge                     0
   Complexity                        8
   Isotope Atom Count                0
   Defined Atom Stereocenter Count   0
   Undefined Atom Stereocenter Count 0
   Defined Bond Stereocenter Count   0
   Undefined Bond Stereocenter Count 0
   Covalently-Bonded Unit Count      1
   Effective Rotor Count             0
   Conformer Sampling RMSD           0.4
   CID Conformer Count               [17]1

References

   1. http://toxnet.nlm.nih.gov/cgi-bin/sis/search/r?dbs+hsdb:@term+@rn+@rel+7727-37-9
   2. http://toxnet.nlm.nih.gov/cgi-bin/sis/search/r?dbs+hsdb:@term+@rn+@rel+7727-37-9
   3. http://toxnet.nlm.nih.gov/cgi-bin/sis/search/r?dbs+hsdb:@term+@rn+@rel+7727-37-9
   4. http://toxnet.nlm.nih.gov/cgi-bin/sis/search/r?dbs+hsdb:@term+@rn+@rel+7727-37-9
   5. http://toxnet.nlm.nih.gov/cgi-bin/sis/search/r?dbs+hsdb:@term+@rn+@rel+7727-37-9
   6. http://toxnet.nlm.nih.gov/cgi-bin/sis/search/r?dbs+hsdb:@term+@rn+@rel+7727-37-9
   7. http://toxnet.nlm.nih.gov/cgi-bin/sis/search/r?dbs+hsdb:@term+@rn+@rel+7727-37-9
   8. http://toxnet.nlm.nih.gov/cgi-bin/sis/search/r?dbs+hsdb:@term+@rn+@rel+7727-37-9
   9. http://toxnet.nlm.nih.gov/cgi-bin/sis/search/r?dbs+hsdb:@term+@rn+@rel+7727-37-9
  10. http://toxnet.nlm.nih.gov/cgi-bin/sis/search/r?dbs+hsdb:@term+@rn+@rel+7727-37-9
  11. http://toxnet.nlm.nih.gov/cgi-bin/sis/search/r?dbs+hsdb:@term+@rn+@rel+7727-37-9
  12. http://toxnet.nlm.nih.gov/cgi-bin/sis/search/r?dbs+hsdb:@term+@rn+@rel+7727-37-9
  13. http://toxnet.nlm.nih.gov/cgi-bin/sis/search/r?dbs+hsdb:@term+@rn+@rel+7727-37-9
  14. http://toxnet.nlm.nih.gov/cgi-bin/sis/search/r?dbs+hsdb:@term+@rn+@rel+7727-37-9
  15. http://toxnet.nlm.nih.gov/cgi-bin/sis/search/r?dbs+hsdb:@term+@rn+@rel+7727-37-9
  16. http://toxnet.nlm.nih.gov/cgi-bin/sis/search/r?dbs+hsdb:@term+@rn+@rel+7727-37-9
  17. http://pubchem.ncbi.nlm.nih.gov/vw3d/vw3d.cgi?cid=947
