11953926
  -OEChem-07051212562D

 57 61  0     1  0  0  0  0  0999 V2000
    2.6158    1.5257    0.0000 O   0  0  0  0  0  0  0  0  0  0  0  0
    6.6492   -0.4487    0.0000 O   0  0  0  0  0  0  0  0  0  0  0  0
    4.5250   -2.3333    0.0000 O   0  0  0  0  0  0  0  0  0  0  0  0
    6.0990   -1.6106    0.0000 O   0  0  0  0  0  0  0  0  0  0  0  0
    4.2186    2.4935    0.0000 N   0  3  1  0  0  0  0  0  0  0  0  0
    4.2790    1.9676    0.0000 N   0  0  0  0  0  0  0  0  0  0  0  0
    3.9700    1.0165    0.0000 C   0  0  2  0  0  0  0  0  0  0  0  0
    4.7790    0.4287    0.0000 C   0  0  1  0  0  0  0  0  0  0  0  0
    4.6861   -0.6088    0.0000 C   0  0  3  0  0  0  0  0  0  0  0  0
    6.1069    1.1216    0.0000 C   0  0  0  0  0  0  0  0  0  0  0  0
    3.7378   -1.0398    0.0000 C   0  0  1  0  0  0  0  0  0  0  0  0
    3.0120    0.6075    0.0000 C   0  0  2  0  0  0  0  0  0  0  0  0
    5.7146    2.5671    0.0000 C   0  0  0  0  0  0  0  0  0  0  0  0
    4.0172    1.3216    0.0000 C   0  0  0  0  0  0  0  0  0  0  0  0
    2.8951   -0.4275    0.0000 C   0  0  0  0  0  0  0  0  0  0  0  0
    5.5880    1.0165    0.0000 C   0  0  0  0  0  0  0  0  0  0  0  0
    3.8569    0.1434    0.0000 C   0  0  0  0  0  0  0  0  0  0  0  0
    3.5555    3.2421    0.0000 C   0  0  0  0  0  0  0  0  0  0  0  0
    5.2790    1.9676    0.0000 C   0  0  0  0  0  0  0  0  0  0  0  0
    5.6817   -0.7018    0.0000 C   0  0  0  0  0  0  0  0  0  0  0  0
    5.1034   -1.5176    0.0000 C   0  0  0  0  0  0  0  0  0  0  0  0
    6.3512    0.3077    0.0000 C   0  0  0  0  0  0  0  0  0  0  0  0
    2.8638    0.2609    0.0000 C   0  0  0  0  0  0  0  0  0  0  0  0
    6.2645    2.3047    0.0000 C   0  0  0  0  0  0  0  0  0  0  0  0
    7.1720    0.6129    0.0000 C   0  0  0  0  0  0  0  0  0  0  0  0
    7.2163    1.6227    0.0000 C   0  0  0  0  0  0  0  0  0  0  0  0
    2.2655   -0.5404    0.0000 C   0  0  0  0  0  0  0  0  0  0  0  0
    4.9422   -3.2421    0.0000 C   0  0  0  0  0  0  0  0  0  0  0  0
    6.3534    0.5527    0.0000 H   0  0  0  0  0  0  0  0  0  0  0  0
    6.6920    1.3266    0.0000 H   0  0  0  0  0  0  0  0  0  0  0  0
    3.6522   -1.8854    0.0000 H   0  0  0  0  0  0  0  0  0  0  0  0
    2.3987    0.5165    0.0000 H   0  0  0  0  0  0  0  0  0  0  0  0
    6.3230    2.6860    0.0000 H   0  0  0  0  0  0  0  0  0  0  0  0
    5.6397    3.1825    0.0000 H   0  0  0  0  0  0  0  0  0  0  0  0
    3.5360    1.7125    0.0000 H   0  0  0  0  0  0  0  0  0  0  0  0
    4.6300    1.2273    0.0000 H   0  0  0  0  0  0  0  0  0  0  0  0
    2.3000   -0.2536    0.0000 H   0  0  0  0  0  0  0  0  0  0  0  0
    2.6219   -0.9841    0.0000 H   0  0  0  0  0  0  0  0  0  0  0  0
    3.6774    2.1175    0.0000 H   0  0  0  0  0  0  0  0  0  0  0  0
    4.0196    3.6532    0.0000 H   0  0  0  0  0  0  0  0  0  0  0  0
    3.1444    3.7062    0.0000 H   0  0  0  0  0  0  0  0  0  0  0  0
    3.0914    2.8310    0.0000 H   0  0  0  0  0  0  0  0  0  0  0  0
    5.3843   -1.2458    0.0000 H   0  0  0  0  0  0  0  0  0  0  0  0
    5.6313   -0.0838    0.0000 H   0  0  0  0  0  0  0  0  0  0  0  0
    6.2303   -0.3004    0.0000 H   0  0  0  0  0  0  0  0  0  0  0  0
    2.0000    1.5977    0.0000 H   0  0  0  0  0  0  0  0  0  0  0  0
    2.3670    0.6318    0.0000 H   0  0  0  0  0  0  0  0  0  0  0  0
    6.3548    2.9181    0.0000 H   0  0  0  0  0  0  0  0  0  0  0  0
    7.0850   -0.8896    0.0000 H   0  0  0  0  0  0  0  0  0  0  0  0
    7.6733    0.2479    0.0000 H   0  0  0  0  0  0  0  0  0  0  0  0
    7.7738    1.8938    0.0000 H   0  0  0  0  0  0  0  0  0  0  0  0
    1.7687   -0.1695    0.0000 H   0  0  0  0  0  0  0  0  0  0  0  0
    1.8946   -1.0372    0.0000 H   0  0  0  0  0  0  0  0  0  0  0  0
    2.7623   -0.9113    0.0000 H   0  0  0  0  0  0  0  0  0  0  0  0
    4.3788   -3.5008    0.0000 H   0  0  0  0  0  0  0  0  0  0  0  0
    5.2009   -3.8055    0.0000 H   0  0  0  0  0  0  0  0  0  0  0  0
    5.5057   -2.9834    0.0000 H   0  0  0  0  0  0  0  0  0  0  0  0
 12  1  1  6  0  0  0
  1 46  1  0  0  0  0
  2 20  1  0  0  0  0
  2 49  1  0  0  0  0
  3 21  1  0  0  0  0
  3 28  1  0  0  0  0
  4 21  2  0  0  0  0
  5  7  1  0  0  0  0
  5 13  1  0  0  0  0
  5 14  1  0  0  0  0
  5 18  1  1  0  0  0
  7  6  1  1  0  0  0
  6 19  1  0  0  0  0
  6 39  1  0  0  0  0
  7  8  1  0  0  0  0
  7 12  1  0  0  0  0
  8  9  1  0  0  0  0
  8 10  1  0  0  0  0
  8 16  1  1  0  0  0
  9 11  1  0  0  0  0
  9 20  1  0  0  0  0
  9 21  1  0  0  0  0
 10 13  1  0  0  0  0
 10 29  1  0  0  0  0
 10 30  1  0  0  0  0
 11 15  1  0  0  0  0
 11 17  1  0  0  0  0
 11 31  1  6  0  0  0
 12 15  1  0  0  0  0
 12 32  1  0  0  0  0
 13 33  1  0  0  0  0
 13 34  1  0  0  0  0
 14 17  1  0  0  0  0
 14 35  1  0  0  0  0
 14 36  1  0  0  0  0
 15 37  1  0  0  0  0
 15 38  1  0  0  0  0
 16 19  1  0  0  0  0
 16 22  2  0  0  0  0
 17 23  2  0  0  0  0
 18 40  1  0  0  0  0
 18 41  1  0  0  0  0
 18 42  1  0  0  0  0
 19 24  2  0  0  0  0
 20 43  1  0  0  0  0
 20 44  1  0  0  0  0
 22 25  1  0  0  0  0
 22 45  1  0  0  0  0
 23 27  1  0  0  0  0
 23 47  1  0  0  0  0
 24 26  1  0  0  0  0
 24 48  1  0  0  0  0
 25 26  2  0  0  0  0
 25 50  1  0  0  0  0
 26 51  1  0  0  0  0
 27 52  1  0  0  0  0
 27 53  1  0  0  0  0
 27 54  1  0  0  0  0
 28 55  1  0  0  0  0
 28 56  1  0  0  0  0
 28 57  1  0  0  0  0
M  CHG  1   5   1
M  END
> <PUBCHEM_COMPOUND_CID>
11953926

> <PUBCHEM_COMPOUND_CANONICALIZED>
1

> <PUBCHEM_CACTVS_COMPLEXITY>
740

> <PUBCHEM_CACTVS_HBOND_ACCEPTOR>
5

> <PUBCHEM_CACTVS_HBOND_DONOR>
3

> <PUBCHEM_CACTVS_ROTATABLE_BOND>
3

> <PUBCHEM_CACTVS_SUBSKEYS>
AAADceB7OAAAAAAAAAAAAAAAAAAAAWLAAAAwYAAABYsWLFgBAAAAHgAQCAAADxzhmAYzyIPABgCIAiTSSACCAAAhAgAIiAEIZIiKMDbAkZGEYAhtsALYyCe8/f/fgAAAAAACAABQAAaAACQgAAAAAAAAAA==

> <PUBCHEM_IUPAC_INCHI>
InChI=1S/C22H29N2O4/c1-4-14-12-24(2)10-9-21-15-7-5-6-8-17(15)23-22(21,24)18(26)11-16(14)20(21,13-25)19(27)28-3/h4-8,16,18,23,25-26H,9-13H2,1-3H3/q+1/b14-4-/t16-,18-,20?,21-,22-,24-/m0/s1

> <PUBCHEM_IUPAC_INCHIKEY>
AFJPGVUCVDCFPM-OBYWIAIFSA-N

> <PUBCHEM_XLOGP3_AA>
0.7

> <PUBCHEM_EXACT_MASS>
385.212732

> <PUBCHEM_MOLECULAR_FORMULA>
C22H29N2O4+

> <PUBCHEM_MOLECULAR_WEIGHT>
385.47666

> <PUBCHEM_OPENEYE_CAN_SMILES>
CC=C1C[N+]2(CCC34C2(C(CC1C3(CO)C(=O)OC)O)NC5=CC=CC=C45)C

> <PUBCHEM_OPENEYE_ISO_SMILES>
C/C=C\1/C[N@@+]2(CC[C@@]34[C@@]2([C@H](C[C@@H]1C3(CO)C(=O)OC)O)NC5=CC=CC=C45)C

> <PUBCHEM_CACTVS_TPSA>
78.8

> <PUBCHEM_MONOISOTOPIC_WEIGHT>
385.212732

> <PUBCHEM_TOTAL_CHARGE>
1

> <PUBCHEM_HEAVY_ATOM_COUNT>
28

> <PUBCHEM_ATOM_DEF_STEREO_COUNT>
5

> <PUBCHEM_ATOM_UDEF_STEREO_COUNT>
1

> <PUBCHEM_BOND_DEF_STEREO_COUNT>
1

> <PUBCHEM_BOND_UDEF_STEREO_COUNT>
0

> <PUBCHEM_ISOTOPIC_ATOM_COUNT>
0

> <PUBCHEM_COMPONENT_COUNT>
1

> <PUBCHEM_CACTVS_TAUTO_COUNT>
1

> <PUBCHEM_COORDINATE_TYPE>
1
5
255

> <PUBCHEM_BONDANNOTATIONS>
12  1  6
11  31  6
16  19  8
16  22  8
19  24  8
22  25  8
24  26  8
25  26  8
5  18  5
7  6  5
8  16  5
9  20  3

$$$$

