254013
  -OEChem-07051213072D

 37 40  0     1  0  0  0  0  0999 V2000
    8.6500    2.4722    0.0000 O   0  0  0  0  0  0  0  0  0  0  0  0
    2.0000   -1.8353    0.0000 O   0  0  0  0  0  0  0  0  0  0  0  0
    5.6451   -1.8523    0.0000 N   0  0  0  0  0  0  0  0  0  0  0  0
    7.3931    1.2170    0.0000 C   0  0  2  0  0  0  0  0  0  0  0  0
    7.3931    0.2170    0.0000 C   0  0  1  0  0  0  0  0  0  0  0  0
    6.5271    1.7170    0.0000 C   0  0  0  0  0  0  0  0  0  0  0  0
    8.3393   -0.0877    0.0000 C   0  0  0  0  0  0  0  0  0  0  0  0
    8.3393    1.5217    0.0000 C   0  0  0  0  0  0  0  0  0  0  0  0
    6.5271   -0.2830    0.0000 C   0  0  0  0  0  0  0  0  0  0  0  0
    8.9229    0.7170    0.0000 C   0  0  0  0  0  0  0  0  0  0  0  0
    5.6610    1.2170    0.0000 C   0  0  0  0  0  0  0  0  0  0  0  0
    5.6610    0.2170    0.0000 C   0  0  0  0  0  0  0  0  0  0  0  0
    7.3931    2.2170    0.0000 C   0  0  0  0  0  0  0  0  0  0  0  0
    6.5431   -1.3245    0.0000 C   0  0  0  0  0  0  0  0  0  0  0  0
    4.7510   -0.2898    0.0000 C   0  0  0  0  0  0  0  0  0  0  0  0
    4.7430   -1.3314    0.0000 C   0  0  0  0  0  0  0  0  0  0  0  0
    3.8242    0.2742    0.0000 C   0  0  0  0  0  0  0  0  0  0  0  0
    3.8076   -1.8812    0.0000 C   0  0  0  0  0  0  0  0  0  0  0  0
    2.8763   -0.2537    0.0000 C   0  0  0  0  0  0  0  0  0  0  0  0
    2.8680   -1.3387    0.0000 C   0  0  0  0  0  0  0  0  0  0  0  0
    7.4830   -0.6282    0.0000 H   0  0  0  0  0  0  0  0  0  0  0  0
    6.9256    2.1920    0.0000 H   0  0  0  0  0  0  0  0  0  0  0  0
    6.1285    2.1920    0.0000 H   0  0  0  0  0  0  0  0  0  0  0  0
    8.0883   -0.6546    0.0000 H   0  0  0  0  0  0  0  0  0  0  0  0
    8.8767   -0.3970    0.0000 H   0  0  0  0  0  0  0  0  0  0  0  0
    9.3838    0.3023    0.0000 H   0  0  0  0  0  0  0  0  0  0  0  0
    9.3838    1.1317    0.0000 H   0  0  0  0  0  0  0  0  0  0  0  0
    5.4490    1.7996    0.0000 H   0  0  0  0  0  0  0  0  0  0  0  0
    5.0504    1.1093    0.0000 H   0  0  0  0  0  0  0  0  0  0  0  0
    8.0131    2.2170    0.0000 H   0  0  0  0  0  0  0  0  0  0  0  0
    7.3931    2.8370    0.0000 H   0  0  0  0  0  0  0  0  0  0  0  0
    6.7731    2.2170    0.0000 H   0  0  0  0  0  0  0  0  0  0  0  0
    7.0836   -1.6283    0.0000 H   0  0  0  0  0  0  0  0  0  0  0  0
    5.6475   -2.4722    0.0000 H   0  0  0  0  0  0  0  0  0  0  0  0
    3.8361    0.8941    0.0000 H   0  0  0  0  0  0  0  0  0  0  0  0
    3.8100   -2.5012    0.0000 H   0  0  0  0  0  0  0  0  0  0  0  0
    2.3430    0.0625    0.0000 H   0  0  0  0  0  0  0  0  0  0  0  0
  1  8  2  0  0  0  0
  2 20  2  0  0  0  0
  3 14  1  0  0  0  0
  3 16  1  0  0  0  0
  3 34  1  0  0  0  0
  4  5  1  0  0  0  0
  4  6  1  0  0  0  0
  4  8  1  0  0  0  0
  4 13  1  1  0  0  0
  5  7  1  0  0  0  0
  5  9  1  0  0  0  0
  5 21  1  6  0  0  0
  6 11  1  0  0  0  0
  6 22  1  0  0  0  0
  6 23  1  0  0  0  0
  7 10  1  0  0  0  0
  7 24  1  0  0  0  0
  7 25  1  0  0  0  0
  8 10  1  0  0  0  0
  9 12  1  0  0  0  0
  9 14  2  0  0  0  0
 10 26  1  0  0  0  0
 10 27  1  0  0  0  0
 11 12  1  0  0  0  0
 11 28  1  0  0  0  0
 11 29  1  0  0  0  0
 12 15  2  0  0  0  0
 13 30  1  0  0  0  0
 13 31  1  0  0  0  0
 13 32  1  0  0  0  0
 14 33  1  0  0  0  0
 15 16  1  0  0  0  0
 15 17  1  0  0  0  0
 16 18  2  0  0  0  0
 17 19  2  0  0  0  0
 17 35  1  0  0  0  0
 18 20  1  0  0  0  0
 18 36  1  0  0  0  0
 19 20  1  0  0  0  0
 19 37  1  0  0  0  0
M  END
> <PUBCHEM_COMPOUND_CID>
254013

> <PUBCHEM_COMPOUND_CANONICALIZED>
1

> <PUBCHEM_CACTVS_COMPLEXITY>
663

> <PUBCHEM_CACTVS_HBOND_ACCEPTOR>
3

> <PUBCHEM_CACTVS_HBOND_DONOR>
1

> <PUBCHEM_CACTVS_ROTATABLE_BOND>
0

> <PUBCHEM_CACTVS_SUBSKEYS>
AAADceB6MAAAAAAAAAAAAAAAAAAAAYAAAAAwQIAAAAAAAGCAAAAAHgAQAAAADwzBgAQCAALAAACIAqRWQACAAAAgAgAICIEIAEgIABIAAQAEAAAAgAAIgcMIiMCPgAAAAAAAAAAAAAAAACAAAAAACAAAAA==

> <PUBCHEM_IUPAC_OPENEYE_NAME>
(3aS,11aS)-11a-methyl-2,3,3a,5,10,11-hexahydrocyclopenta[i]phenanthridine-1,7-dione

> <PUBCHEM_IUPAC_CAS_NAME>
(3aS,11aS)-11a-methyl-2,3,3a,5,10,11-hexahydrocyclopenta[i]phenanthridine-1,7-dione

> <PUBCHEM_IUPAC_NAME>
(3aS,11aS)-11a-methyl-2,3,3a,5,10,11-hexahydrocyclopenta[i]phenanthridine-1,7-dione

> <PUBCHEM_IUPAC_SYSTEMATIC_NAME>
(3aS,11aS)-11a-methyl-2,3,3a,5,10,11-hexahydrocyclopenta[i]phenanthridine-1,7-dione

> <PUBCHEM_IUPAC_TRADITIONAL_NAME>
(3aS,11aS)-11a-methyl-2,3,3a,5,10,11-hexahydrocyclopenta[i]phenanthridine-1,7-quinone

> <PUBCHEM_IUPAC_INCHI>
InChI=1S/C17H17NO2/c1-17-7-6-11-12-3-2-10(19)8-15(12)18-9-13(11)14(17)4-5-16(17)20/h2-3,8-9,14,18H,4-7H2,1H3/t14-,17-/m0/s1

> <PUBCHEM_IUPAC_INCHIKEY>
CVFDJVLJUXMNJD-YOEHRIQHSA-N

> <PUBCHEM_XLOGP3_AA>
0.7

> <PUBCHEM_EXACT_MASS>
267.125929

> <PUBCHEM_MOLECULAR_FORMULA>
C17H17NO2

> <PUBCHEM_MOLECULAR_WEIGHT>
267.32238

> <PUBCHEM_OPENEYE_CAN_SMILES>
CC12CCC3=C4C=CC(=O)C=C4NC=C3C1CCC2=O

> <PUBCHEM_OPENEYE_ISO_SMILES>
C[C@]12CCC3=C4C=CC(=O)C=C4NC=C3[C@@H]1CCC2=O

> <PUBCHEM_CACTVS_TPSA>
46.2

> <PUBCHEM_MONOISOTOPIC_WEIGHT>
267.125929

> <PUBCHEM_TOTAL_CHARGE>
0

> <PUBCHEM_HEAVY_ATOM_COUNT>
20

> <PUBCHEM_ATOM_DEF_STEREO_COUNT>
2

> <PUBCHEM_ATOM_UDEF_STEREO_COUNT>
0

> <PUBCHEM_BOND_DEF_STEREO_COUNT>
0

> <PUBCHEM_BOND_UDEF_STEREO_COUNT>
0

> <PUBCHEM_ISOTOPIC_ATOM_COUNT>
0

> <PUBCHEM_COMPONENT_COUNT>
1

> <PUBCHEM_CACTVS_TAUTO_COUNT>
32

> <PUBCHEM_COORDINATE_TYPE>
1
5
255

> <PUBCHEM_BONDANNOTATIONS>
12  15  8
15  17  8
16  18  8
17  19  8
18  20  8
19  20  8
3  14  8
3  16  8
4  13  5
5  21  6
9  12  8
9  14  8

$$$$

