   Color/Form

     * White to off white powder
     * White solid

   from [1]HSDB

   Melting Point
        136-140 deg C
   from [2]HSDB

   Dissociation Constants
        pKa = 2.65 (amine)
   from [3]HSDB

   Octanol/Water Partition Coefficient
        log Kow = -0.43
   from [4]HSDB

   Solubilities
        About 112 mg/mL in water at 25 deg C
   from [5]HSDB

   Spectral Properties
        UV max = 287.8 at pH2; 280.0 at pH7; 279.8 at pH 11
   from [6]HSDB

   Vapor Pressure
        8.1X10-9 mm Hg at 25 deg C /Estimated/
   from [7]HSDB

   Other Chemical/Physical Properties

     * Henry's Law constant = 2.3X10-17 atm-cu m/mole at 25 deg C
       /Estimated/
     * Hydroxy radical reaction rate constant = 1.5X10-10 cu cm/molec-sec
       at 25 deg C /Estimated/
     * Ozone reaction rate constant = 4.6X10-18 cu cm/molec-sec at 25 deg
       C /Estimated/

   from [8]HSDB

   Computed Properties
   Molecular Weight                  247.246703 [g/mol]
   Molecular Formula                 C[8]H[10]FN[3]O[3]S
   XLogP3                            -0.6
   H-Bond Donor                      2
   H-Bond Acceptor                   5
   Rotatable Bond Count              2
   Tautomer Count                    3
   Exact Mass                        247.04269
   MonoIsotopic Mass                 247.04269
   Topological Polar Surface Area    113
   Heavy Atom Count                  16
   Formal Charge                     0
   Complexity                        374
   Isotope Atom Count                0
   Defined Atom Stereocenter Count   2
   Undefined Atom Stereocenter Count 0
   Defined Bond Stereocenter Count   0
   Undefined Bond Stereocenter Count 0
   Covalently-Bonded Unit Count      1
   Feature 3D Acceptor Count         3
   Feature 3D Donor Count            3
   Feature 3D Ring Count             2
   Effective Rotor Count             3
   Conformer Sampling RMSD           0.6
   CID Conformer Count               [9]12

References

   1. http://toxnet.nlm.nih.gov/cgi-bin/sis/search/r?dbs+hsdb:@term+@rn+@rel+143491-57-0
   2. http://toxnet.nlm.nih.gov/cgi-bin/sis/search/r?dbs+hsdb:@term+@rn+@rel+143491-57-0
   3. http://toxnet.nlm.nih.gov/cgi-bin/sis/search/r?dbs+hsdb:@term+@rn+@rel+143491-57-0
   4. http://toxnet.nlm.nih.gov/cgi-bin/sis/search/r?dbs+hsdb:@term+@rn+@rel+143491-57-0
   5. http://toxnet.nlm.nih.gov/cgi-bin/sis/search/r?dbs+hsdb:@term+@rn+@rel+143491-57-0
   6. http://toxnet.nlm.nih.gov/cgi-bin/sis/search/r?dbs+hsdb:@term+@rn+@rel+143491-57-0
   7. http://toxnet.nlm.nih.gov/cgi-bin/sis/search/r?dbs+hsdb:@term+@rn+@rel+143491-57-0
   8. http://toxnet.nlm.nih.gov/cgi-bin/sis/search/r?dbs+hsdb:@term+@rn+@rel+143491-57-0
   9. http://pubchem.ncbi.nlm.nih.gov/vw3d/vw3d.cgi?cid=60877
