245470
  -OEChem-07051213062D

 59 62  0     1  0  0  0  0  0999 V2000
    9.6851    2.2976    0.0000 O   0  0  0  0  0  0  0  0  0  0  0  0
    2.5357   -1.6459    0.0000 O   0  0  0  0  0  0  0  0  0  0  0  0
    7.0628   -0.0935    0.0000 C   0  0  2  0  0  0  0  0  0  0  0  0
    6.1968    0.4065    0.0000 C   0  0  1  0  0  0  0  0  0  0  0  0
    7.9288    0.4065    0.0000 C   0  0  1  0  0  0  0  0  0  0  0  0
    7.9288    1.4065    0.0000 C   0  0  1  0  0  0  0  0  0  0  0  0
    5.2868   -0.1004    0.0000 C   0  0  2  0  0  0  0  0  0  0  0  0
    5.2787   -1.1420    0.0000 C   0  0  1  0  0  0  0  0  0  0  0  0
    6.1968    1.4065    0.0000 C   0  0  0  0  0  0  0  0  0  0  0  0
    7.0789   -1.1350    0.0000 C   0  0  0  0  0  0  0  0  0  0  0  0
    8.8750    1.7112    0.0000 C   0  0  2  0  0  0  0  0  0  0  0  0
    7.0628    1.9065    0.0000 C   0  0  0  0  0  0  0  0  0  0  0  0
    6.1808   -1.6628    0.0000 C   0  0  1  0  0  0  0  0  0  0  0  0
    8.8750    0.1017    0.0000 C   0  0  0  0  0  0  0  0  0  0  0  0
    9.4586    0.9065    0.0000 C   0  0  0  0  0  0  0  0  0  0  0  0
    4.3599    0.4637    0.0000 C   0  0  0  0  0  0  0  0  0  0  0  0
    4.3433   -1.6917    0.0000 C   0  0  0  0  0  0  0  0  0  0  0  0
    7.9288    2.4065    0.0000 C   0  0  0  0  0  0  0  0  0  0  0  0
    5.2945    0.8996    0.0000 C   0  0  0  0  0  0  0  0  0  0  0  0
    3.4120   -0.0642    0.0000 C   0  0  0  0  0  0  0  0  0  0  0  0
    3.4037   -1.1492    0.0000 C   0  0  2  0  0  0  0  0  0  0  0  0
    8.5677    2.6628    0.0000 C   0  0  0  0  0  0  0  0  0  0  0  0
    6.1847   -2.6628    0.0000 C   0  0  0  0  0  0  0  0  0  0  0  0
    7.8022   -0.5128    0.0000 H   0  0  0  0  0  0  0  0  0  0  0  0
    6.9329    0.8315    0.0000 H   0  0  0  0  0  0  0  0  0  0  0  0
    8.0188   -0.4388    0.0000 H   0  0  0  0  0  0  0  0  0  0  0  0
    5.2820   -1.9920    0.0000 H   0  0  0  0  0  0  0  0  0  0  0  0
    5.9847    1.9891    0.0000 H   0  0  0  0  0  0  0  0  0  0  0  0
    5.5862    1.2988    0.0000 H   0  0  0  0  0  0  0  0  0  0  0  0
    7.2969   -1.7154    0.0000 H   0  0  0  0  0  0  0  0  0  0  0  0
    7.6880   -1.0195    0.0000 H   0  0  0  0  0  0  0  0  0  0  0  0
    7.4613    2.3814    0.0000 H   0  0  0  0  0  0  0  0  0  0  0  0
    6.6643    2.3814    0.0000 H   0  0  0  0  0  0  0  0  0  0  0  0
    6.7195   -1.9697    0.0000 H   0  0  0  0  0  0  0  0  0  0  0  0
    8.6240   -0.4652    0.0000 H   0  0  0  0  0  0  0  0  0  0  0  0
    9.4124   -0.2075    0.0000 H   0  0  0  0  0  0  0  0  0  0  0  0
    9.9195    0.4917    0.0000 H   0  0  0  0  0  0  0  0  0  0  0  0
    9.9195    1.3212    0.0000 H   0  0  0  0  0  0  0  0  0  0  0  0
    4.7681    0.9304    0.0000 H   0  0  0  0  0  0  0  0  0  0  0  0
    3.9700    0.9457    0.0000 H   0  0  0  0  0  0  0  0  0  0  0  0
    3.9460   -2.1677    0.0000 H   0  0  0  0  0  0  0  0  0  0  0  0
    4.7443   -2.1646    0.0000 H   0  0  0  0  0  0  0  0  0  0  0  0
    8.5488    2.4065    0.0000 H   0  0  0  0  0  0  0  0  0  0  0  0
    7.9288    3.0265    0.0000 H   0  0  0  0  0  0  0  0  0  0  0  0
    7.3088    2.4065    0.0000 H   0  0  0  0  0  0  0  0  0  0  0  0
    5.9145    0.8948    0.0000 H   0  0  0  0  0  0  0  0  0  0  0  0
    5.2993    1.5196    0.0000 H   0  0  0  0  0  0  0  0  0  0  0  0
    4.6745    0.9044    0.0000 H   0  0  0  0  0  0  0  0  0  0  0  0
    3.2075    0.5210    0.0000 H   0  0  0  0  0  0  0  0  0  0  0  0
    2.8004   -0.1656    0.0000 H   0  0  0  0  0  0  0  0  0  0  0  0
    3.4025   -1.7692    0.0000 H   0  0  0  0  0  0  0  0  0  0  0  0
    9.1577    2.8534    0.0000 H   0  0  0  0  0  0  0  0  0  0  0  0
    8.3771    3.2528    0.0000 H   0  0  0  0  0  0  0  0  0  0  0  0
    7.9777    2.4722    0.0000 H   0  0  0  0  0  0  0  0  0  0  0  0
    5.5647   -2.6652    0.0000 H   0  0  0  0  0  0  0  0  0  0  0  0
    6.1871   -3.2828    0.0000 H   0  0  0  0  0  0  0  0  0  0  0  0
    6.8047   -2.6604    0.0000 H   0  0  0  0  0  0  0  0  0  0  0  0
   10.2510    2.0444    0.0000 H   0  0  0  0  0  0  0  0  0  0  0  0
    2.0000   -1.3338    0.0000 H   0  0  0  0  0  0  0  0  0  0  0  0
 11  1  1  1  0  0  0
  1 58  1  0  0  0  0
 21  2  1  1  0  0  0
  2 59  1  0  0  0  0
  3  4  1  0  0  0  0
  3  5  1  0  0  0  0
  3 10  1  0  0  0  0
  3 24  1  1  0  0  0
  4  7  1  0  0  0  0
  4  9  1  0  0  0  0
  4 25  1  6  0  0  0
  5  6  1  0  0  0  0
  5 14  1  0  0  0  0
  5 26  1  6  0  0  0
  6 11  1  0  0  0  0
  6 12  1  0  0  0  0
  6 18  1  1  0  0  0
  7  8  1  0  0  0  0
  7 16  1  0  0  0  0
  7 19  1  1  0  0  0
  8 13  1  0  0  0  0
  8 17  1  0  0  0  0
  8 27  1  6  0  0  0
  9 12  1  0  0  0  0
  9 28  1  0  0  0  0
  9 29  1  0  0  0  0
 10 13  1  0  0  0  0
 10 30  1  0  0  0  0
 10 31  1  0  0  0  0
 11 15  1  0  0  0  0
 11 22  1  0  0  0  0
 12 32  1  0  0  0  0
 12 33  1  0  0  0  0
 13 23  1  1  0  0  0
 13 34  1  0  0  0  0
 14 15  1  0  0  0  0
 14 35  1  0  0  0  0
 14 36  1  0  0  0  0
 15 37  1  0  0  0  0
 15 38  1  0  0  0  0
 16 20  1  0  0  0  0
 16 39  1  0  0  0  0
 16 40  1  0  0  0  0
 17 21  1  0  0  0  0
 17 41  1  0  0  0  0
 17 42  1  0  0  0  0
 18 43  1  0  0  0  0
 18 44  1  0  0  0  0
 18 45  1  0  0  0  0
 19 46  1  0  0  0  0
 19 47  1  0  0  0  0
 19 48  1  0  0  0  0
 20 21  1  0  0  0  0
 20 49  1  0  0  0  0
 20 50  1  0  0  0  0
 21 51  1  0  0  0  0
 22 52  1  0  0  0  0
 22 53  1  0  0  0  0
 22 54  1  0  0  0  0
 23 55  1  0  0  0  0
 23 56  1  0  0  0  0
 23 57  1  0  0  0  0
M  END
> <PUBCHEM_COMPOUND_CID>
245470

> <PUBCHEM_COMPOUND_CANONICALIZED>
1

> <PUBCHEM_CACTVS_COMPLEXITY>
490

> <PUBCHEM_CACTVS_HBOND_ACCEPTOR>
2

> <PUBCHEM_CACTVS_HBOND_DONOR>
2

> <PUBCHEM_CACTVS_ROTATABLE_BOND>
0

> <PUBCHEM_CACTVS_SUBSKEYS>
AAADcfB4MAAAAAAAAAAAAAAAAAAAAYAAAAAwYMAAAAAAAGDAAAAAGgAACAAAD1SggAICAAAAAgAAAAAAAAAAAAAAAAAAAAAAAAAAEAIAAAAAQAAEAAAAAAGAwPAPgAAAAAAAAADAAAYAACAAAYAADAAAAA==

> <PUBCHEM_IUPAC_OPENEYE_NAME>
(3S,5R,6R,8R,9S,10S,13S,14S,17S)-6,10,13,17-tetramethyl-1,2,3,4,5,6,7,8,9,11,12,14,15,16-tetradecahydrocyclopenta[a]phenanthrene-3,17-diol

> <PUBCHEM_IUPAC_CAS_NAME>
(3S,5R,6R,8R,9S,10S,13S,14S,17S)-6,10,13,17-tetramethyl-1,2,3,4,5,6,7,8,9,11,12,14,15,16-tetradecahydrocyclopenta[a]phenanthrene-3,17-diol

> <PUBCHEM_IUPAC_NAME>
(3S,5R,6R,8R,9S,10S,13S,14S,17S)-6,10,13,17-tetramethyl-1,2,3,4,5,6,7,8,9,11,12,14,15,16-tetradecahydrocyclopenta[a]phenanthrene-3,17-diol

> <PUBCHEM_IUPAC_SYSTEMATIC_NAME>
(3S,5R,6R,8R,9S,10S,13S,14S,17S)-6,10,13,17-tetramethyl-1,2,3,4,5,6,7,8,9,11,12,14,15,16-tetradecahydrocyclopenta[a]phenanthrene-3,17-diol

> <PUBCHEM_IUPAC_TRADITIONAL_NAME>
(3S,5R,6R,8R,9S,10S,13S,14S,17S)-6,10,13,17-tetramethyl-1,2,3,4,5,6,7,8,9,11,12,14,15,16-tetradecahydrocyclopenta[a]phenanthrene-3,17-diol

> <PUBCHEM_IUPAC_INCHI>
InChI=1S/C21H36O2/c1-13-11-15-16(19(2)8-5-14(22)12-18(13)19)6-9-20(3)17(15)7-10-21(20,4)23/h13-18,22-23H,5-12H2,1-4H3/t13-,14+,15-,16+,17+,18-,19-,20+,21+/m1/s1

> <PUBCHEM_IUPAC_INCHIKEY>
JGPUZUZZOULXJW-AVFZXLMHSA-N

> <PUBCHEM_XLOGP3_AA>
4.6

> <PUBCHEM_EXACT_MASS>
320.27153

> <PUBCHEM_MOLECULAR_FORMULA>
C21H36O2

> <PUBCHEM_MOLECULAR_WEIGHT>
320.50934

> <PUBCHEM_OPENEYE_CAN_SMILES>
CC1CC2C(CCC3(C2CCC3(C)O)C)C4(C1CC(CC4)O)C

> <PUBCHEM_OPENEYE_ISO_SMILES>
C[C@@H]1C[C@@H]2[C@H](CC[C@]3([C@H]2CC[C@]3(C)O)C)[C@@]4([C@@H]1C[C@H](CC4)O)C

> <PUBCHEM_CACTVS_TPSA>
40.5

> <PUBCHEM_MONOISOTOPIC_WEIGHT>
320.27153

> <PUBCHEM_TOTAL_CHARGE>
0

> <PUBCHEM_HEAVY_ATOM_COUNT>
23

> <PUBCHEM_ATOM_DEF_STEREO_COUNT>
9

> <PUBCHEM_ATOM_UDEF_STEREO_COUNT>
0

> <PUBCHEM_BOND_DEF_STEREO_COUNT>
0

> <PUBCHEM_BOND_UDEF_STEREO_COUNT>
0

> <PUBCHEM_ISOTOPIC_ATOM_COUNT>
0

> <PUBCHEM_COMPONENT_COUNT>
1

> <PUBCHEM_CACTVS_TAUTO_COUNT>
1

> <PUBCHEM_COORDINATE_TYPE>
1
5
255

> <PUBCHEM_BONDANNOTATIONS>
11  1  5
13  23  5
21  2  5
3  24  5
4  25  6
5  26  6
6  18  5
7  19  5
8  27  6

$$$$

