12666
  -OEChem-06261207132D

 17 16  0     0  0  0  0  0  0999 V2000
    2.0000   -0.7500    0.0000 Cl  0  0  0  0  0  0  0  0  0  0  0  0
    2.3660    0.6160    0.0000 Cl  0  0  0  0  0  0  0  0  0  0  0  0
    2.8660   -0.2500    0.0000 Si  0  0  0  0  0  0  0  0  0  0  0  0
    6.3301    0.7500    0.0000 F   0  0  0  0  0  0  0  0  0  0  0  0
    5.9641   -0.6160    0.0000 F   0  0  0  0  0  0  0  0  0  0  0  0
    4.9641    1.1160    0.0000 F   0  0  0  0  0  0  0  0  0  0  0  0
    3.7320    0.2500    0.0000 C   0  0  0  0  0  0  0  0  0  0  0  0
    4.5981   -0.2500    0.0000 C   0  0  0  0  0  0  0  0  0  0  0  0
    3.3660   -1.1160    0.0000 C   0  0  0  0  0  0  0  0  0  0  0  0
    5.4641    0.2500    0.0000 C   0  0  0  0  0  0  0  0  0  0  0  0
    4.1306    0.7249    0.0000 H   0  0  0  0  0  0  0  0  0  0  0  0
    3.3335    0.7249    0.0000 H   0  0  0  0  0  0  0  0  0  0  0  0
    4.1996   -0.7249    0.0000 H   0  0  0  0  0  0  0  0  0  0  0  0
    4.9966   -0.7249    0.0000 H   0  0  0  0  0  0  0  0  0  0  0  0
    2.8291   -1.4260    0.0000 H   0  0  0  0  0  0  0  0  0  0  0  0
    3.6760   -1.6530    0.0000 H   0  0  0  0  0  0  0  0  0  0  0  0
    3.9030   -0.8060    0.0000 H   0  0  0  0  0  0  0  0  0  0  0  0
  1  3  1  0  0  0  0
  2  3  1  0  0  0  0
  3  7  1  0  0  0  0
  3  9  1  0  0  0  0
  4 10  1  0  0  0  0
  5 10  1  0  0  0  0
  6 10  1  0  0  0  0
  7  8  1  0  0  0  0
  7 11  1  0  0  0  0
  7 12  1  0  0  0  0
  8 10  1  0  0  0  0
  8 13  1  0  0  0  0
  8 14  1  0  0  0  0
  9 15  1  0  0  0  0
  9 16  1  0  0  0  0
  9 17  1  0  0  0  0
M  END
> <PUBCHEM_COMPOUND_CID>
12666

> <PUBCHEM_COMPOUND_CANONICALIZED>
1

> <PUBCHEM_CACTVS_COMPLEXITY>
112

> <PUBCHEM_CACTVS_HBOND_ACCEPTOR>
3

> <PUBCHEM_CACTVS_HBOND_DONOR>
0

> <PUBCHEM_CACTVS_ROTATABLE_BOND>
2

> <PUBCHEM_CACTVS_SUBSKEYS>
AAADcYBgAYgGAAAAAAAAAAAAAAAAAAAAAAAAAAAAAAAAAAAAAAAAGRAAAAAgCACAIBBCAAAAAAEAAAAAAAAAAAAAAAAAAAAAAAAAAAAAAAAAAAAAAAAAAAAAAAAAAAAAAAAAAAAAAAAAAAAAAAAAAAAAAA==

> <PUBCHEM_IUPAC_OPENEYE_NAME>
dichloro-methyl-(3,3,3-trifluoropropyl)silane

> <PUBCHEM_IUPAC_CAS_NAME>
dichloro-methyl-(3,3,3-trifluoropropyl)silane

> <PUBCHEM_IUPAC_NAME>
dichloro-methyl-(3,3,3-trifluoropropyl)silane

> <PUBCHEM_IUPAC_SYSTEMATIC_NAME>
bis(chloranyl)-methyl-[3,3,3-tris(fluoranyl)propyl]silane

> <PUBCHEM_IUPAC_TRADITIONAL_NAME>
dichloro-methyl-(3,3,3-trifluoropropyl)silane

> <PUBCHEM_IUPAC_INCHI>
InChI=1S/C4H7Cl2F3Si/c1-10(5,6)3-2-4(7,8)9/h2-3H2,1H3

> <PUBCHEM_IUPAC_INCHIKEY>
OHABWQNEJUUFAV-UHFFFAOYSA-N

> <PUBCHEM_EXACT_MASS>
209.964617

> <PUBCHEM_MOLECULAR_FORMULA>
C4H7Cl2F3Si

> <PUBCHEM_MOLECULAR_WEIGHT>
211.08509

> <PUBCHEM_OPENEYE_CAN_SMILES>
C[Si](CCC(F)(F)F)(Cl)Cl

> <PUBCHEM_OPENEYE_ISO_SMILES>
C[Si](CCC(F)(F)F)(Cl)Cl

> <PUBCHEM_CACTVS_TPSA>
0

> <PUBCHEM_MONOISOTOPIC_WEIGHT>
209.964617

> <PUBCHEM_TOTAL_CHARGE>
0

> <PUBCHEM_HEAVY_ATOM_COUNT>
10

> <PUBCHEM_ATOM_DEF_STEREO_COUNT>
0

> <PUBCHEM_ATOM_UDEF_STEREO_COUNT>
0

> <PUBCHEM_BOND_DEF_STEREO_COUNT>
0

> <PUBCHEM_BOND_UDEF_STEREO_COUNT>
0

> <PUBCHEM_ISOTOPIC_ATOM_COUNT>
0

> <PUBCHEM_COMPONENT_COUNT>
1

> <PUBCHEM_CACTVS_TAUTO_COUNT>
1

> <PUBCHEM_COORDINATE_TYPE>
1
5
255

$$$$

