638011
  -OEChem-07051212452D

 27 26  0     0  0  0  0  0  0999 V2000
    2.0000   -0.4400    0.0000 O   0  0  0  0  0  0  0  0  0  0  0  0
    5.4641   -0.4400    0.0000 C   0  0  0  0  0  0  0  0  0  0  0  0
    6.3301    0.0600    0.0000 C   0  0  0  0  0  0  0  0  0  0  0  0
    4.5981    0.0600    0.0000 C   0  0  0  0  0  0  0  0  0  0  0  0
    7.1962   -0.4400    0.0000 C   0  0  0  0  0  0  0  0  0  0  0  0
    8.0622    0.0600    0.0000 C   0  0  0  0  0  0  0  0  0  0  0  0
    4.5981    1.0600    0.0000 C   0  0  0  0  0  0  0  0  0  0  0  0
    3.7320   -0.4400    0.0000 C   0  0  0  0  0  0  0  0  0  0  0  0
    8.9282   -0.4400    0.0000 C   0  0  0  0  0  0  0  0  0  0  0  0
    8.0622    1.0600    0.0000 C   0  0  0  0  0  0  0  0  0  0  0  0
    2.8660    0.0600    0.0000 C   0  0  0  0  0  0  0  0  0  0  0  0
    5.0656   -0.9149    0.0000 H   0  0  0  0  0  0  0  0  0  0  0  0
    5.8626   -0.9149    0.0000 H   0  0  0  0  0  0  0  0  0  0  0  0
    6.7287    0.5349    0.0000 H   0  0  0  0  0  0  0  0  0  0  0  0
    5.9316    0.5349    0.0000 H   0  0  0  0  0  0  0  0  0  0  0  0
    7.1962   -1.0600    0.0000 H   0  0  0  0  0  0  0  0  0  0  0  0
    5.2181    1.0600    0.0000 H   0  0  0  0  0  0  0  0  0  0  0  0
    4.5981    1.6800    0.0000 H   0  0  0  0  0  0  0  0  0  0  0  0
    3.9781    1.0600    0.0000 H   0  0  0  0  0  0  0  0  0  0  0  0
    8.6182   -0.9769    0.0000 H   0  0  0  0  0  0  0  0  0  0  0  0
    9.4651   -0.7500    0.0000 H   0  0  0  0  0  0  0  0  0  0  0  0
    9.2382    0.0969    0.0000 H   0  0  0  0  0  0  0  0  0  0  0  0
    8.6822    1.0600    0.0000 H   0  0  0  0  0  0  0  0  0  0  0  0
    8.0622    1.6800    0.0000 H   0  0  0  0  0  0  0  0  0  0  0  0
    7.4422    1.0600    0.0000 H   0  0  0  0  0  0  0  0  0  0  0  0
    3.7320   -1.0600    0.0000 H   0  0  0  0  0  0  0  0  0  0  0  0
    2.8660    0.6800    0.0000 H   0  0  0  0  0  0  0  0  0  0  0  0
  1 11  2  0  0  0  0
  2  3  1  0  0  0  0
  2  4  1  0  0  0  0
  2 12  1  0  0  0  0
  2 13  1  0  0  0  0
  3  5  1  0  0  0  0
  3 14  1  0  0  0  0
  3 15  1  0  0  0  0
  4  7  1  0  0  0  0
  4  8  2  0  0  0  0
  5  6  2  0  0  0  0
  5 16  1  0  0  0  0
  6  9  1  0  0  0  0
  6 10  1  0  0  0  0
  7 17  1  0  0  0  0
  7 18  1  0  0  0  0
  7 19  1  0  0  0  0
  8 11  1  0  0  0  0
  8 26  1  0  0  0  0
  9 20  1  0  0  0  0
  9 21  1  0  0  0  0
  9 22  1  0  0  0  0
 10 23  1  0  0  0  0
 10 24  1  0  0  0  0
 10 25  1  0  0  0  0
 11 27  1  0  0  0  0
M  END
> <PUBCHEM_COMPOUND_CID>
638011

> <PUBCHEM_COMPOUND_CANONICALIZED>
1

> <PUBCHEM_CACTVS_COMPLEXITY>
171

> <PUBCHEM_CACTVS_HBOND_ACCEPTOR>
1

> <PUBCHEM_CACTVS_HBOND_DONOR>
0

> <PUBCHEM_CACTVS_ROTATABLE_BOND>
4

> <PUBCHEM_CACTVS_SUBSKEYS>
AAADceBwIAAAAAAAAAAAAAAAAAAAAAAAAAAAAAAAAAAAAAAAAAAAGgAAAAAADACggAICAAAAAACIAihSgAAAAAAgAAAACAAAAEgAAAIAAQAAAAAAgAAIAQIAAAAAAAAAAAAAAAAAAAAAAAAAAAAAAAAAAA==

> <PUBCHEM_IUPAC_OPENEYE_NAME>
(2E)-3,7-dimethylocta-2,6-dienal

> <PUBCHEM_IUPAC_CAS_NAME>
(2E)-3,7-dimethylocta-2,6-dienal

> <PUBCHEM_IUPAC_NAME>
(2E)-3,7-dimethylocta-2,6-dienal

> <PUBCHEM_IUPAC_SYSTEMATIC_NAME>
(2E)-3,7-dimethylocta-2,6-dienal

> <PUBCHEM_IUPAC_TRADITIONAL_NAME>
(2E)-3,7-dimethylocta-2,6-dienal

> <PUBCHEM_IUPAC_INCHI>
InChI=1S/C10H16O/c1-9(2)5-4-6-10(3)7-8-11/h5,7-8H,4,6H2,1-3H3/b10-7+

> <PUBCHEM_IUPAC_INCHIKEY>
WTEVQBCEXWBHNA-JXMROGBWSA-N

> <PUBCHEM_XLOGP3_AA>
3

> <PUBCHEM_EXACT_MASS>
152.120115

> <PUBCHEM_MOLECULAR_FORMULA>
C10H16O

> <PUBCHEM_MOLECULAR_WEIGHT>
152.23344

> <PUBCHEM_OPENEYE_CAN_SMILES>
CC(=CCCC(=CC=O)C)C

> <PUBCHEM_OPENEYE_ISO_SMILES>
CC(=CCC/C(=C/C=O)/C)C

> <PUBCHEM_CACTVS_TPSA>
17.1

> <PUBCHEM_MONOISOTOPIC_WEIGHT>
152.120115

> <PUBCHEM_TOTAL_CHARGE>
0

> <PUBCHEM_HEAVY_ATOM_COUNT>
11

> <PUBCHEM_ATOM_DEF_STEREO_COUNT>
0

> <PUBCHEM_ATOM_UDEF_STEREO_COUNT>
0

> <PUBCHEM_BOND_DEF_STEREO_COUNT>
1

> <PUBCHEM_BOND_UDEF_STEREO_COUNT>
0

> <PUBCHEM_ISOTOPIC_ATOM_COUNT>
0

> <PUBCHEM_COMPONENT_COUNT>
1

> <PUBCHEM_CACTVS_TAUTO_COUNT>
1

> <PUBCHEM_COORDINATE_TYPE>
1
5
255

$$$$

