47205755
  -OEChem-06241223002D

 45 47  0     1  0  0  0  0  0999 V2000
    5.3147   -1.1920    0.0000 O   0  0  0  0  0  0  0  0  0  0  0  0
    4.4487    0.3080    0.0000 N   0  0  0  0  0  0  0  0  0  0  0  0
    2.5000   -2.3944    0.0000 N   0  0  0  0  0  0  0  0  0  0  0  0
    2.0000   -1.5284    0.0000 N   0  0  0  0  0  0  0  0  0  0  0  0
    5.3147    1.8080    0.0000 C   0  0  3  0  0  0  0  0  0  0  0  0
    5.3147    0.8080    0.0000 C   0  0  3  0  0  0  0  0  0  0  0  0
    4.4487    2.3080    0.0000 C   0  0  3  0  0  0  0  0  0  0  0  0
    6.2087    2.3426    0.0000 C   0  0  0  0  0  0  0  0  0  0  0  0
    6.2087    0.2733    0.0000 C   0  0  0  0  0  0  0  0  0  0  0  0
    3.5827    1.8080    0.0000 C   0  0  0  0  0  0  0  0  0  0  0  0
    7.1147    1.8288    0.0000 C   0  0  0  0  0  0  0  0  0  0  0  0
    7.1147    0.7872    0.0000 C   0  0  0  0  0  0  0  0  0  0  0  0
    3.5827    0.8080    0.0000 C   0  0  0  0  0  0  0  0  0  0  0  0
    4.4487    3.3080    0.0000 C   0  0  0  0  0  0  0  0  0  0  0  0
    4.4487   -0.6920    0.0000 C   0  0  0  0  0  0  0  0  0  0  0  0
    3.5827   -1.1920    0.0000 C   0  0  0  0  0  0  0  0  0  0  0  0
    3.4782   -2.1865    0.0000 C   0  0  0  0  0  0  0  0  0  0  0  0
    2.6691   -0.7853    0.0000 C   0  0  0  0  0  0  0  0  0  0  0  0
    4.2213   -2.8557    0.0000 C   0  0  0  0  0  0  0  0  0  0  0  0
    2.0933   -3.3080    0.0000 C   0  0  0  0  0  0  0  0  0  0  0  0
    5.3100    2.4280    0.0000 H   0  0  0  0  0  0  0  0  0  0  0  0
    5.3100    0.1880    0.0000 H   0  0  0  0  0  0  0  0  0  0  0  0
    3.9118    2.6180    0.0000 H   0  0  0  0  0  0  0  0  0  0  0  0
    6.6023    2.8217    0.0000 H   0  0  0  0  0  0  0  0  0  0  0  0
    5.8041    2.8124    0.0000 H   0  0  0  0  0  0  0  0  0  0  0  0
    5.8041   -0.1965    0.0000 H   0  0  0  0  0  0  0  0  0  0  0  0
    6.6023   -0.2057    0.0000 H   0  0  0  0  0  0  0  0  0  0  0  0
    3.3706    2.3906    0.0000 H   0  0  0  0  0  0  0  0  0  0  0  0
    2.9721    1.7003    0.0000 H   0  0  0  0  0  0  0  0  0  0  0  0
    7.7256    1.7227    0.0000 H   0  0  0  0  0  0  0  0  0  0  0  0
    7.3238    2.4125    0.0000 H   0  0  0  0  0  0  0  0  0  0  0  0
    7.3238    0.2035    0.0000 H   0  0  0  0  0  0  0  0  0  0  0  0
    7.7256    0.8933    0.0000 H   0  0  0  0  0  0  0  0  0  0  0  0
    2.9721    0.9157    0.0000 H   0  0  0  0  0  0  0  0  0  0  0  0
    3.3706    0.2254    0.0000 H   0  0  0  0  0  0  0  0  0  0  0  0
    5.0687    3.3080    0.0000 H   0  0  0  0  0  0  0  0  0  0  0  0
    4.4487    3.9280    0.0000 H   0  0  0  0  0  0  0  0  0  0  0  0
    3.8287    3.3080    0.0000 H   0  0  0  0  0  0  0  0  0  0  0  0
    2.5402   -0.1788    0.0000 H   0  0  0  0  0  0  0  0  0  0  0  0
    3.8064   -3.3164    0.0000 H   0  0  0  0  0  0  0  0  0  0  0  0
    4.6820   -3.2705    0.0000 H   0  0  0  0  0  0  0  0  0  0  0  0
    4.6362   -2.3949    0.0000 H   0  0  0  0  0  0  0  0  0  0  0  0
    1.5269   -3.0558    0.0000 H   0  0  0  0  0  0  0  0  0  0  0  0
    1.8411   -3.8744    0.0000 H   0  0  0  0  0  0  0  0  0  0  0  0
    2.6597   -3.5602    0.0000 H   0  0  0  0  0  0  0  0  0  0  0  0
  1 15  2  0  0  0  0
  2  6  1  0  0  0  0
  2 13  1  0  0  0  0
  2 15  1  0  0  0  0
  3  4  1  0  0  0  0
  3 17  1  0  0  0  0
  3 20  1  0  0  0  0
  4 18  2  0  0  0  0
  5  6  1  0  0  0  0
  5  7  1  0  0  0  0
  5  8  1  0  0  0  0
  5 21  1  0  0  0  0
  6  9  1  0  0  0  0
  6 22  1  0  0  0  0
  7 10  1  0  0  0  0
  7 14  1  0  0  0  0
  7 23  1  0  0  0  0
  8 11  1  0  0  0  0
  8 24  1  0  0  0  0
  8 25  1  0  0  0  0
  9 12  1  0  0  0  0
  9 26  1  0  0  0  0
  9 27  1  0  0  0  0
 10 13  1  0  0  0  0
 10 28  1  0  0  0  0
 10 29  1  0  0  0  0
 11 12  1  0  0  0  0
 11 30  1  0  0  0  0
 11 31  1  0  0  0  0
 12 32  1  0  0  0  0
 12 33  1  0  0  0  0
 13 34  1  0  0  0  0
 13 35  1  0  0  0  0
 14 36  1  0  0  0  0
 14 37  1  0  0  0  0
 14 38  1  0  0  0  0
 15 16  1  0  0  0  0
 16 17  2  0  0  0  0
 16 18  1  0  0  0  0
 17 19  1  0  0  0  0
 18 39  1  0  0  0  0
 19 40  1  0  0  0  0
 19 41  1  0  0  0  0
 19 42  1  0  0  0  0
 20 43  1  0  0  0  0
 20 44  1  0  0  0  0
 20 45  1  0  0  0  0
M  END
> <PUBCHEM_COMPOUND_CID>
47205755

> <PUBCHEM_COMPOUND_CANONICALIZED>
1

> <PUBCHEM_CACTVS_COMPLEXITY>
373

> <PUBCHEM_CACTVS_HBOND_ACCEPTOR>
2

> <PUBCHEM_CACTVS_HBOND_DONOR>
0

> <PUBCHEM_CACTVS_ROTATABLE_BOND>
1

> <PUBCHEM_CACTVS_SUBSKEYS>
AAADceB7IAAAAAAAAAAAAAAAAAAAAWAAAAA8QAAAAAAAAACxgAAAHgAIAAAADSjBngQugJMIAACqAxV3VACQBAAlgAAQWCE4RFgAIJpAwMAEhYhADgDAQcEQgMAOgAAAAAAAAAAAAAAAAAQAAAAAAAAAAA==

> <PUBCHEM_IUPAC_OPENEYE_NAME>
(1,5-dimethylpyrazol-4-yl)-(4-methyl-3,4,4a,5,6,7,8,8a-octahydro-2H-quinolin-1-yl)methanone

> <PUBCHEM_IUPAC_CAS_NAME>
(1,5-dimethyl-4-pyrazolyl)-(4-methyl-3,4,4a,5,6,7,8,8a-octahydro-2H-quinolin-1-yl)methanone

> <PUBCHEM_IUPAC_NAME>
(1,5-dimethylpyrazol-4-yl)-(4-methyl-3,4,4a,5,6,7,8,8a-octahydro-2H-quinolin-1-yl)methanone

> <PUBCHEM_IUPAC_SYSTEMATIC_NAME>
(1,5-dimethylpyrazol-4-yl)-(4-methyl-3,4,4a,5,6,7,8,8a-octahydro-2H-quinolin-1-yl)methanone

> <PUBCHEM_IUPAC_TRADITIONAL_NAME>
(1,5-dimethylpyrazol-4-yl)-(4-methyl-3,4,4a,5,6,7,8,8a-octahydro-2H-quinolin-1-yl)methanone

> <PUBCHEM_IUPAC_INCHI>
InChI=1S/C16H25N3O/c1-11-8-9-19(15-7-5-4-6-13(11)15)16(20)14-10-17-18(3)12(14)2/h10-11,13,15H,4-9H2,1-3H3

> <PUBCHEM_IUPAC_INCHIKEY>
XMPWKOHXRZUZGK-UHFFFAOYSA-N

> <PUBCHEM_XLOGP3_AA>
2.7

> <PUBCHEM_EXACT_MASS>
275.199762

> <PUBCHEM_MOLECULAR_FORMULA>
C16H25N3O

> <PUBCHEM_MOLECULAR_WEIGHT>
275.3892

> <PUBCHEM_OPENEYE_CAN_SMILES>
CC1CCN(C2C1CCCC2)C(=O)C3=C(N(N=C3)C)C

> <PUBCHEM_OPENEYE_ISO_SMILES>
CC1CCN(C2C1CCCC2)C(=O)C3=C(N(N=C3)C)C

> <PUBCHEM_CACTVS_TPSA>
38.1

> <PUBCHEM_MONOISOTOPIC_WEIGHT>
275.199762

> <PUBCHEM_TOTAL_CHARGE>
0

> <PUBCHEM_HEAVY_ATOM_COUNT>
20

> <PUBCHEM_ATOM_DEF_STEREO_COUNT>
0

> <PUBCHEM_ATOM_UDEF_STEREO_COUNT>
3

> <PUBCHEM_BOND_DEF_STEREO_COUNT>
0

> <PUBCHEM_BOND_UDEF_STEREO_COUNT>
0

> <PUBCHEM_ISOTOPIC_ATOM_COUNT>
0

> <PUBCHEM_COMPONENT_COUNT>
1

> <PUBCHEM_CACTVS_TAUTO_COUNT>
1

> <PUBCHEM_COORDINATE_TYPE>
1
5
255

> <PUBCHEM_BONDANNOTATIONS>
16  17  8
16  18  8
3  17  8
3  4  8
4  18  8
5  8  3
6  9  3
7  14  3

$$$$

