   Color/Form

     * REDDISH-BROWN CRYSTALLINE POWDER
     * Red-brown powder
     * Burgundy crystalline powder

   from [1]HSDB

   Boiling Point
        2262 deg C
   from [2]HSDB

   Melting Point
        118-118.5 DEG C
   from [3]HSDB

   Solubilities

     * @ 15 DEG C: WATER 5.5%, CELLOSOLVE 6.0%, ABSOLUTE ETHANOL 4.75%,
       ANHYDROUS ETHYLENE GLYCOL 9.5%, XYLENE 0.005%; SLIGHTLY SOL IN
       ACETONE; PRACTICALLY INSOL IN BENZENE
     * Soluble in water and oxygenated solvents
     * In water = 20 mg/l; in ethanol = 9 mg/l; in methyl Cellosolve = 20
       mg/l

   from [4]HSDB

   Spectral Properties

     * Displays visual-transition interval from pH 4.0 (orange) to pH 7.0
       (yellow)
     * Max wavelength = 449 nm in water

   from [5]HSDB

   Other Chemical/Physical Properties

     * GIVES YELLOW SOLN IN CONCN SULFURIC ACID, ORANGE SOLN IN DIL
       SULFURIC ACID, AND IN NITRIC ACID
     * PALE YELLOW NEEDLES FROM WATER; SLIGHTLY SOL IN HOT WATER; SOL IN
       ALCOHOL, ETHER, CHLOROFORM, BENZENE /BASE/
     * Melting point: Decomposes at 235 deg C
     * Unstable to excessive heat in solution preparation

   from [6]HSDB

   Computed Properties
   Molecular Weight                  248.71142 [g/mol]
   Molecular Formula                 C[12]H[13]ClN[4]
   H-Bond Donor                      3
   H-Bond Acceptor                   4
   Rotatable Bond Count              2
   Tautomer Count                    12
   Exact Mass                        248.082874
   MonoIsotopic Mass                 248.082874
   Topological Polar Surface Area    76.8
   Heavy Atom Count                  17
   Formal Charge                     0
   Complexity                        235
   Isotope Atom Count                0
   Defined Atom Stereocenter Count   0
   Undefined Atom Stereocenter Count 0
   Defined Bond Stereocenter Count   0
   Undefined Bond Stereocenter Count 0
   Covalently-Bonded Unit Count      2

References

   1. http://toxnet.nlm.nih.gov/cgi-bin/sis/search/r?dbs+hsdb:@term+@rn+@rel+532-82-1
   2. http://toxnet.nlm.nih.gov/cgi-bin/sis/search/r?dbs+hsdb:@term+@rn+@rel+532-82-1
   3. http://toxnet.nlm.nih.gov/cgi-bin/sis/search/r?dbs+hsdb:@term+@rn+@rel+532-82-1
   4. http://toxnet.nlm.nih.gov/cgi-bin/sis/search/r?dbs+hsdb:@term+@rn+@rel+532-82-1
   5. http://toxnet.nlm.nih.gov/cgi-bin/sis/search/r?dbs+hsdb:@term+@rn+@rel+532-82-1
   6. http://toxnet.nlm.nih.gov/cgi-bin/sis/search/r?dbs+hsdb:@term+@rn+@rel+532-82-1
