854322
  -OEChem-06241222472D

 37 39  0     0  0  0  0  0  0999 V2000
   11.5542   -0.5520    0.0000 O   0  0  0  0  0  0  0  0  0  0  0  0
    8.0622   -0.5173    0.0000 O   0  0  0  0  0  0  0  0  0  0  0  0
    7.1962    0.9827    0.0000 O   0  0  0  0  0  0  0  0  0  0  0  0
    4.5981   -1.5173    0.0000 O   0  0  0  0  0  0  0  0  0  0  0  0
   13.3244   -0.5415    0.0000 O   0  0  0  0  0  0  0  0  0  0  0  0
    5.4641   -0.0173    0.0000 N   0  0  0  0  0  0  0  0  0  0  0  0
   10.6603    0.9827    0.0000 C   0  0  0  0  0  0  0  0  0  0  0  0
   10.6603   -0.0173    0.0000 C   0  0  0  0  0  0  0  0  0  0  0  0
    8.9282   -0.0173    0.0000 C   0  0  0  0  0  0  0  0  0  0  0  0
    9.7942   -0.5173    0.0000 C   0  0  0  0  0  0  0  0  0  0  0  0
    9.7942    1.4827    0.0000 C   0  0  0  0  0  0  0  0  0  0  0  0
    8.9282    0.9827    0.0000 C   0  0  0  0  0  0  0  0  0  0  0  0
   11.5542    1.5173    0.0000 C   0  0  0  0  0  0  0  0  0  0  0  0
    6.3301   -0.5173    0.0000 C   0  0  0  0  0  0  0  0  0  0  0  0
    3.7320   -0.0173    0.0000 C   0  0  0  0  0  0  0  0  0  0  0  0
   12.4603    1.0035    0.0000 C   0  0  0  0  0  0  0  0  0  0  0  0
    7.1962   -0.0173    0.0000 C   0  0  0  0  0  0  0  0  0  0  0  0
    4.5981   -0.5173    0.0000 C   0  0  0  0  0  0  0  0  0  0  0  0
   12.4603   -0.0381    0.0000 C   0  0  0  0  0  0  0  0  0  0  0  0
    3.7320    0.9827    0.0000 C   0  0  0  0  0  0  0  0  0  0  0  0
    2.8660   -0.5173    0.0000 C   0  0  0  0  0  0  0  0  0  0  0  0
    2.8660    1.4827    0.0000 C   0  0  0  0  0  0  0  0  0  0  0  0
    2.0000   -0.0173    0.0000 C   0  0  0  0  0  0  0  0  0  0  0  0
    2.0000    0.9827    0.0000 C   0  0  0  0  0  0  0  0  0  0  0  0
    9.7942   -1.1373    0.0000 H   0  0  0  0  0  0  0  0  0  0  0  0
    9.7942    2.1027    0.0000 H   0  0  0  0  0  0  0  0  0  0  0  0
    8.3913    1.2927    0.0000 H   0  0  0  0  0  0  0  0  0  0  0  0
   11.5470    2.1373    0.0000 H   0  0  0  0  0  0  0  0  0  0  0  0
    5.9316   -0.9923    0.0000 H   0  0  0  0  0  0  0  0  0  0  0  0
    6.7287   -0.9923    0.0000 H   0  0  0  0  0  0  0  0  0  0  0  0
    5.4641    0.6027    0.0000 H   0  0  0  0  0  0  0  0  0  0  0  0
   12.9960    1.3156    0.0000 H   0  0  0  0  0  0  0  0  0  0  0  0
    4.2690    1.2927    0.0000 H   0  0  0  0  0  0  0  0  0  0  0  0
    2.8660   -1.1373    0.0000 H   0  0  0  0  0  0  0  0  0  0  0  0
    2.8660    2.1027    0.0000 H   0  0  0  0  0  0  0  0  0  0  0  0
    1.4631   -0.3273    0.0000 H   0  0  0  0  0  0  0  0  0  0  0  0
    1.4631    1.2927    0.0000 H   0  0  0  0  0  0  0  0  0  0  0  0
  1  8  1  0  0  0  0
  1 19  1  0  0  0  0
  2  9  1  0  0  0  0
  2 17  1  0  0  0  0
  3 17  2  0  0  0  0
  4 18  2  0  0  0  0
  5 19  2  0  0  0  0
  6 14  1  0  0  0  0
  6 18  1  0  0  0  0
  6 31  1  0  0  0  0
  7  8  2  0  0  0  0
  7 11  1  0  0  0  0
  7 13  1  0  0  0  0
  8 10  1  0  0  0  0
  9 10  2  0  0  0  0
  9 12  1  0  0  0  0
 10 25  1  0  0  0  0
 11 12  2  0  0  0  0
 11 26  1  0  0  0  0
 12 27  1  0  0  0  0
 13 16  2  0  0  0  0
 13 28  1  0  0  0  0
 14 17  1  0  0  0  0
 14 29  1  0  0  0  0
 14 30  1  0  0  0  0
 15 18  1  0  0  0  0
 15 20  2  0  0  0  0
 15 21  1  0  0  0  0
 16 19  1  0  0  0  0
 16 32  1  0  0  0  0
 20 22  1  0  0  0  0
 20 33  1  0  0  0  0
 21 23  2  0  0  0  0
 21 34  1  0  0  0  0
 22 24  2  0  0  0  0
 22 35  1  0  0  0  0
 23 24  1  0  0  0  0
 23 36  1  0  0  0  0
 24 37  1  0  0  0  0
M  END
> <PUBCHEM_COMPOUND_CID>
854322

> <PUBCHEM_COMPOUND_CANONICALIZED>
1

> <PUBCHEM_CACTVS_COMPLEXITY>
524

> <PUBCHEM_CACTVS_HBOND_ACCEPTOR>
5

> <PUBCHEM_CACTVS_HBOND_DONOR>
1

> <PUBCHEM_CACTVS_ROTATABLE_BOND>
5

> <PUBCHEM_CACTVS_SUBSKEYS>
AAADccB6OAAAAAAAAAAAAAAAAAAAAAAAAAAwYIAAAAAAAACBQAAAHgAQAAAADATBmAQwDoLABACIAiHSGACCCAAkIAAIiIGODMgOJzKEtTuHOyjlxhWYqYeY6CyOIAAACAAIAABAAAAQABAAAAAAAAAAAA==

> <PUBCHEM_IUPAC_OPENEYE_NAME>
(2-oxochromen-7-yl) 2-benzamidoacetate

> <PUBCHEM_IUPAC_CAS_NAME>
2-benzamidoacetic acid (2-oxo-1-benzopyran-7-yl) ester

> <PUBCHEM_IUPAC_NAME>
(2-oxochromen-7-yl) 2-benzamidoacetate

> <PUBCHEM_IUPAC_SYSTEMATIC_NAME>
(2-oxidanylidenechromen-7-yl) 2-benzamidoethanoate

> <PUBCHEM_IUPAC_TRADITIONAL_NAME>
2-benzamidoacetic acid (2-ketochromen-7-yl) ester

> <PUBCHEM_IUPAC_INCHI>
InChI=1S/C18H13NO5/c20-16-9-7-12-6-8-14(10-15(12)24-16)23-17(21)11-19-18(22)13-4-2-1-3-5-13/h1-10H,11H2,(H,19,22)

> <PUBCHEM_IUPAC_INCHIKEY>
XZBPJFHJIGDDMQ-UHFFFAOYSA-N

> <PUBCHEM_XLOGP3_AA>
2.7

> <PUBCHEM_EXACT_MASS>
323.079373

> <PUBCHEM_MOLECULAR_FORMULA>
C18H13NO5

> <PUBCHEM_MOLECULAR_WEIGHT>
323.29952

> <PUBCHEM_OPENEYE_CAN_SMILES>
C1=CC=C(C=C1)C(=O)NCC(=O)OC2=CC3=C(C=C2)C=CC(=O)O3

> <PUBCHEM_OPENEYE_ISO_SMILES>
C1=CC=C(C=C1)C(=O)NCC(=O)OC2=CC3=C(C=C2)C=CC(=O)O3

> <PUBCHEM_CACTVS_TPSA>
81.7

> <PUBCHEM_MONOISOTOPIC_WEIGHT>
323.079373

> <PUBCHEM_TOTAL_CHARGE>
0

> <PUBCHEM_HEAVY_ATOM_COUNT>
24

> <PUBCHEM_ATOM_DEF_STEREO_COUNT>
0

> <PUBCHEM_ATOM_UDEF_STEREO_COUNT>
0

> <PUBCHEM_BOND_DEF_STEREO_COUNT>
0

> <PUBCHEM_BOND_UDEF_STEREO_COUNT>
0

> <PUBCHEM_ISOTOPIC_ATOM_COUNT>
0

> <PUBCHEM_COMPONENT_COUNT>
1

> <PUBCHEM_CACTVS_TAUTO_COUNT>
2

> <PUBCHEM_COORDINATE_TYPE>
1
5
255

> <PUBCHEM_BONDANNOTATIONS>
1  19  8
1  8  8
11  12  8
13  16  8
15  20  8
15  21  8
16  19  8
20  22  8
21  23  8
22  24  8
23  24  8
7  11  8
7  13  8
7  8  8
8  10  8
9  10  8
9  12  8

$$$$

