165258
  -OEChem-07051213102D

 45 46  0     1  0  0  0  0  0999 V2000
    7.3849   -1.6996    0.0000 O   0  0  0  0  0  0  0  0  0  0  0  0
    2.5369   -1.2932    0.0000 O   0  0  0  0  0  0  0  0  0  0  0  0
    6.0010    0.7068    0.0000 C   0  0  1  0  0  0  0  0  0  0  0  0
    6.0010   -0.2932    0.0000 C   0  0  2  0  0  0  0  0  0  0  0  0
    6.8950   -0.8279    0.0000 C   0  0  1  0  0  0  0  0  0  0  0  0
    5.1350   -0.7932    0.0000 C   0  0  0  0  0  0  0  0  0  0  0  0
    4.2690   -0.2932    0.0000 C   0  0  1  0  0  0  0  0  0  0  0  0
    5.1350    1.2068    0.0000 C   0  0  0  0  0  0  0  0  0  0  0  0
    6.8950    1.2414    0.0000 C   0  0  0  0  0  0  0  0  0  0  0  0
    4.2690    0.7068    0.0000 C   0  0  0  0  0  0  0  0  0  0  0  0
    7.8010   -0.3140    0.0000 C   0  0  0  0  0  0  0  0  0  0  0  0
    7.8010    0.7276    0.0000 C   0  0  0  0  0  0  0  0  0  0  0  0
    6.0010    1.7068    0.0000 C   0  0  0  0  0  0  0  0  0  0  0  0
    3.4030   -0.7932    0.0000 C   0  0  0  0  0  0  0  0  0  0  0  0
    6.3850   -1.6881    0.0000 C   0  0  0  0  0  0  0  0  0  0  0  0
    2.9030    0.0728    0.0000 C   0  0  0  0  0  0  0  0  0  0  0  0
    3.9030   -1.6592    0.0000 C   0  0  0  0  0  0  0  0  0  0  0  0
    5.9945   -1.1432    0.0000 H   0  0  0  0  0  0  0  0  0  0  0  0
    4.7365   -1.2682    0.0000 H   0  0  0  0  0  0  0  0  0  0  0  0
    5.5335   -1.2682    0.0000 H   0  0  0  0  0  0  0  0  0  0  0  0
    4.2690   -1.1432    0.0000 H   0  0  0  0  0  0  0  0  0  0  0  0
    5.5335    1.6817    0.0000 H   0  0  0  0  0  0  0  0  0  0  0  0
    4.7365    1.6817    0.0000 H   0  0  0  0  0  0  0  0  0  0  0  0
    7.2886    1.7205    0.0000 H   0  0  0  0  0  0  0  0  0  0  0  0
    6.4904    1.7112    0.0000 H   0  0  0  0  0  0  0  0  0  0  0  0
    4.0569    1.2894    0.0000 H   0  0  0  0  0  0  0  0  0  0  0  0
    3.6584    0.5991    0.0000 H   0  0  0  0  0  0  0  0  0  0  0  0
    8.0101   -0.8977    0.0000 H   0  0  0  0  0  0  0  0  0  0  0  0
    8.4119   -0.2079    0.0000 H   0  0  0  0  0  0  0  0  0  0  0  0
    8.4119    0.6215    0.0000 H   0  0  0  0  0  0  0  0  0  0  0  0
    8.0101    1.3113    0.0000 H   0  0  0  0  0  0  0  0  0  0  0  0
    6.6210    1.7068    0.0000 H   0  0  0  0  0  0  0  0  0  0  0  0
    6.0010    2.3268    0.0000 H   0  0  0  0  0  0  0  0  0  0  0  0
    5.3810    1.7068    0.0000 H   0  0  0  0  0  0  0  0  0  0  0  0
    5.8517   -1.3719    0.0000 H   0  0  0  0  0  0  0  0  0  0  0  0
    6.0688   -2.2214    0.0000 H   0  0  0  0  0  0  0  0  0  0  0  0
    6.9183   -2.0042    0.0000 H   0  0  0  0  0  0  0  0  0  0  0  0
    8.0049   -1.7068    0.0000 H   0  0  0  0  0  0  0  0  0  0  0  0
    3.4399    0.3828    0.0000 H   0  0  0  0  0  0  0  0  0  0  0  0
    2.5930    0.6098    0.0000 H   0  0  0  0  0  0  0  0  0  0  0  0
    2.3660   -0.2372    0.0000 H   0  0  0  0  0  0  0  0  0  0  0  0
    3.3660   -1.9692    0.0000 H   0  0  0  0  0  0  0  0  0  0  0  0
    4.2130   -2.1962    0.0000 H   0  0  0  0  0  0  0  0  0  0  0  0
    4.4399   -1.3492    0.0000 H   0  0  0  0  0  0  0  0  0  0  0  0
    2.0000   -0.9832    0.0000 H   0  0  0  0  0  0  0  0  0  0  0  0
  5  1  1  1  0  0  0
  1 38  1  0  0  0  0
  2 14  1  0  0  0  0
  2 45  1  0  0  0  0
  3  4  1  0  0  0  0
  3  8  1  0  0  0  0
  3  9  1  0  0  0  0
  3 13  1  6  0  0  0
  4  5  1  0  0  0  0
  4  6  1  0  0  0  0
  4 18  1  1  0  0  0
  5 11  1  0  0  0  0
  5 15  1  0  0  0  0
  6  7  1  0  0  0  0
  6 19  1  0  0  0  0
  6 20  1  0  0  0  0
  7 10  1  0  0  0  0
  7 14  1  0  0  0  0
  7 21  1  1  0  0  0
  8 10  1  0  0  0  0
  8 22  1  0  0  0  0
  8 23  1  0  0  0  0
  9 12  1  0  0  0  0
  9 24  1  0  0  0  0
  9 25  1  0  0  0  0
 10 26  1  0  0  0  0
 10 27  1  0  0  0  0
 11 12  1  0  0  0  0
 11 28  1  0  0  0  0
 11 29  1  0  0  0  0
 12 30  1  0  0  0  0
 12 31  1  0  0  0  0
 13 32  1  0  0  0  0
 13 33  1  0  0  0  0
 13 34  1  0  0  0  0
 14 16  1  0  0  0  0
 14 17  1  0  0  0  0
 15 35  1  0  0  0  0
 15 36  1  0  0  0  0
 15 37  1  0  0  0  0
 16 39  1  0  0  0  0
 16 40  1  0  0  0  0
 16 41  1  0  0  0  0
 17 42  1  0  0  0  0
 17 43  1  0  0  0  0
 17 44  1  0  0  0  0
M  END
> <PUBCHEM_COMPOUND_CID>
165258

> <PUBCHEM_COMPOUND_CANONICALIZED>
1

> <PUBCHEM_CACTVS_COMPLEXITY>
299

> <PUBCHEM_CACTVS_HBOND_ACCEPTOR>
2

> <PUBCHEM_CACTVS_HBOND_DONOR>
2

> <PUBCHEM_CACTVS_ROTATABLE_BOND>
1

> <PUBCHEM_CACTVS_SUBSKEYS>
AAADceBwMAAAAAAAAAAAAAAAAAAAAAAAAAAwYAAAAAAAAADAAAAAGgAACAAAD0SAgAACAAAAAgAAAAAAAAAAAAAAAAAAAAAAAAAAAAIAAAAAQAAEAAAAAAGA4PQPgAAAAAAAAACAAAYAADAAAAAAAAAAAA==

> <PUBCHEM_IUPAC_OPENEYE_NAME>
(1R,4aR,7R,8aR)-7-(1-hydroxy-1-methyl-ethyl)-1,4a-dimethyl-decalin-1-ol

> <PUBCHEM_IUPAC_CAS_NAME>
(1R,4aR,7R,8aR)-7-(2-hydroxypropan-2-yl)-1,4a-dimethyl-2,3,4,5,6,7,8,8a-octahydronaphthalen-1-ol

> <PUBCHEM_IUPAC_NAME>
(1R,4aR,7R,8aR)-7-(2-hydroxypropan-2-yl)-1,4a-dimethyl-2,3,4,5,6,7,8,8a-octahydronaphthalen-1-ol

> <PUBCHEM_IUPAC_SYSTEMATIC_NAME>
(1R,4aR,7R,8aR)-1,4a-dimethyl-7-(2-oxidanylpropan-2-yl)-2,3,4,5,6,7,8,8a-octahydronaphthalen-1-ol

> <PUBCHEM_IUPAC_TRADITIONAL_NAME>
(1R,4aR,7R,8aR)-7-(1-hydroxy-1-methyl-ethyl)-1,4a-dimethyl-decalin-1-ol

> <PUBCHEM_IUPAC_INCHI>
InChI=1S/C15H28O2/c1-13(2,16)11-6-9-14(3)7-5-8-15(4,17)12(14)10-11/h11-12,16-17H,5-10H2,1-4H3/t11-,12-,14-,15-/m1/s1

> <PUBCHEM_IUPAC_INCHIKEY>
LKKDASYGWYYFIK-QHSBEEBCSA-N

> <PUBCHEM_XLOGP3_AA>
3

> <PUBCHEM_EXACT_MASS>
240.20893

> <PUBCHEM_MOLECULAR_FORMULA>
C15H28O2

> <PUBCHEM_MOLECULAR_WEIGHT>
240.38162

> <PUBCHEM_OPENEYE_CAN_SMILES>
CC12CCCC(C1CC(CC2)C(C)(C)O)(C)O

> <PUBCHEM_OPENEYE_ISO_SMILES>
C[C@]12CCC[C@@]([C@@H]1C[C@@H](CC2)C(C)(C)O)(C)O

> <PUBCHEM_CACTVS_TPSA>
40.5

> <PUBCHEM_MONOISOTOPIC_WEIGHT>
240.20893

> <PUBCHEM_TOTAL_CHARGE>
0

> <PUBCHEM_HEAVY_ATOM_COUNT>
17

> <PUBCHEM_ATOM_DEF_STEREO_COUNT>
4

> <PUBCHEM_ATOM_UDEF_STEREO_COUNT>
0

> <PUBCHEM_BOND_DEF_STEREO_COUNT>
0

> <PUBCHEM_BOND_UDEF_STEREO_COUNT>
0

> <PUBCHEM_ISOTOPIC_ATOM_COUNT>
0

> <PUBCHEM_COMPONENT_COUNT>
1

> <PUBCHEM_CACTVS_TAUTO_COUNT>
1

> <PUBCHEM_COORDINATE_TYPE>
1
5
255

> <PUBCHEM_BONDANNOTATIONS>
5  1  5
3  13  6
4  18  5
7  21  5

$$$$

