   Color/Form
        Minute rods or needles from ethanol
   from [1]HSDB

   Melting Point
        298-300 deg C (decomposes)
   from [2]HSDB

   Octanol/Water Partition Coefficient
        log Kow = -1.70 (est)
   from [3]HSDB

   Solubilities

     * Solubilities: 2.5 g/100 mL in 50% boiling alcohol; 5.5 g/100 mL in
       water at 100 deg C
     * In water, 1X10+4 mg/L at 5 deg C

   from [4]HSDB

   Spectral Properties

     * Max absorption (water at pH 6.0): 278 nm
     * IR: 2:1092G (Aldrich Library of Infrared Spectra, Aldrich Chemical
       Co, Milwaukee, WI)
     * NMR: 8:70B (Aldrich Library of Mass Spectra, Aldrich Chemical Co,
       Milwaukee, WI)

   from [5]HSDB

   Vapor Pressure
        2.55X10-11 mm Hg at 25 deg C (est)
   from [6]HSDB

   Other Chemical/Physical Properties

     * Henry's Law constant = 2.1X10-18 atm-cu m/mol at 25 deg C (est)
     * Hydroxyl radical reaction rate constant = 2.39X10-10 cu
       cm/molec-sec at 25 deg C (est)
     * MP: 273 deg C (decomposes); specific optical rotation: +16.0 deg at
       22 deg C (c=1 in 4M HCl); -32 deg at 22 deg C (c=1 in H2O)
       /(S)-5-Hydroxytryptophan/
     * Crystals; specific optical rotation: -32.5 deg at 20 deg C/D
       (water); +16.0 deg at 20 deg C/D (4 N HCl) /l-form/
     * Crystals; specific optical rotation: +32.2 deg at 20 deg C/D
       (water) /d-form/

   from [7]HSDB

   Computed Properties
   Molecular Weight                  220.22458 [g/mol]
   Molecular Formula                 C[11]H[12]N[2]O[3]
   XLogP3                            -1.2
   H-Bond Donor                      4
   H-Bond Acceptor                   4
   Rotatable Bond Count              3
   Tautomer Count                    9
   Exact Mass                        220.084792
   MonoIsotopic Mass                 220.084792
   Topological Polar Surface Area    99.3
   Heavy Atom Count                  16
   Formal Charge                     0
   Complexity                        272
   Isotope Atom Count                0
   Defined Atom Stereocenter Count   0
   Undefined Atom Stereocenter Count 1
   Defined Bond Stereocenter Count   0
   Undefined Bond Stereocenter Count 0
   Covalently-Bonded Unit Count      1
   Feature 3D Acceptor Count         2
   Feature 3D Donor Count            3
   Feature 3D Anion Count            1
   Feature 3D Cation Count           2
   Feature 3D Ring Count             2
   Effective Rotor Count             3
   Conformer Sampling RMSD           0.6
   CID Conformer Count               [8]25

References

   1. http://toxnet.nlm.nih.gov/cgi-bin/sis/search/r?dbs+hsdb:@term+@rn+@rel+56-69-9
   2. http://toxnet.nlm.nih.gov/cgi-bin/sis/search/r?dbs+hsdb:@term+@rn+@rel+56-69-9
   3. http://toxnet.nlm.nih.gov/cgi-bin/sis/search/r?dbs+hsdb:@term+@rn+@rel+56-69-9
   4. http://toxnet.nlm.nih.gov/cgi-bin/sis/search/r?dbs+hsdb:@term+@rn+@rel+56-69-9
   5. http://toxnet.nlm.nih.gov/cgi-bin/sis/search/r?dbs+hsdb:@term+@rn+@rel+56-69-9
   6. http://toxnet.nlm.nih.gov/cgi-bin/sis/search/r?dbs+hsdb:@term+@rn+@rel+56-69-9
   7. http://toxnet.nlm.nih.gov/cgi-bin/sis/search/r?dbs+hsdb:@term+@rn+@rel+56-69-9
   8. http://pubchem.ncbi.nlm.nih.gov/vw3d/vw3d.cgi?cid=144
