   Color/Form

     * NEEDLES FROM DIMETHYLSULFOXIDE + WATER
     * WHITE OR NEARLY WHITE, CRYSTALLINE POWDER

   from [1]HSDB

   Odor
        SLIGHT CHARACTERISTIC ODOR
   from [2]HSDB

   Melting Point
        239-241 DEG C
   from [3]HSDB

   Dissociation Constants
        PKA: 7.4, KA: 8.6
   from [4]HSDB

   Solubilities

     * PRACTICALLY INSOL IN WATER; SOL IN ALKALINE SOLN
     * FREELY SOL IN PYRIDINE & IN 1 N NAOH; SOL IN ALCOHOL; SOL IN 2 N
       SODIUM CARBONATE; SLIGHTLY SOL IN ETHER

   from [5]HSDB

   Spectral Properties
        MAX ABSORPTION: 286 NM (A= 60, 1%, 1 CM); 295 NM (A= 56, 1%, 1 CM)
   from [6]HSDB

   Computed Properties
   Molecular Weight                  305.15884 [g/mol]
   Molecular Formula                 C[6]H[6]Cl[2]N[2]O[4]S[2]
   XLogP3-AA                         0.3
   H-Bond Donor                      2
   H-Bond Acceptor                   6
   Rotatable Bond Count              2
   Exact Mass                        303.914604
   MonoIsotopic Mass                 303.914604
   Topological Polar Surface Area    137
   Heavy Atom Count                  16
   Formal Charge                     0
   Complexity                        452
   Isotope Atom Count                0
   Defined Atom Stereocenter Count   0
   Undefined Atom Stereocenter Count 0
   Defined Bond Stereocenter Count   0
   Undefined Bond Stereocenter Count 0
   Covalently-Bonded Unit Count      1
   Feature 3D Acceptor Count         4
   Feature 3D Donor Count            2
   Feature 3D Ring Count             1
   Effective Rotor Count             2
   Conformer Sampling RMSD           0.6
   CID Conformer Count               [7]4

References

   1. http://toxnet.nlm.nih.gov/cgi-bin/sis/search/r?dbs+hsdb:@term+@rn+@rel+120-97-8
   2. http://toxnet.nlm.nih.gov/cgi-bin/sis/search/r?dbs+hsdb:@term+@rn+@rel+120-97-8
   3. http://toxnet.nlm.nih.gov/cgi-bin/sis/search/r?dbs+hsdb:@term+@rn+@rel+120-97-8
   4. http://toxnet.nlm.nih.gov/cgi-bin/sis/search/r?dbs+hsdb:@term+@rn+@rel+120-97-8
   5. http://toxnet.nlm.nih.gov/cgi-bin/sis/search/r?dbs+hsdb:@term+@rn+@rel+120-97-8
   6. http://toxnet.nlm.nih.gov/cgi-bin/sis/search/r?dbs+hsdb:@term+@rn+@rel+120-97-8
   7. http://pubchem.ncbi.nlm.nih.gov/vw3d/vw3d.cgi?cid=3038
