5281592
  -OEChem-07051212582D

 75 77  0     1  0  0  0  0  0999 V2000
    7.5496    0.0403    0.0000 O   0  0  0  0  0  0  0  0  0  0  0  0
    5.9531   -3.8080    0.0000 O   0  0  0  0  0  0  0  0  0  0  0  0
    4.8516   -2.6826    0.0000 O   0  0  0  0  0  0  0  0  0  0  0  0
    3.9749   -0.4942    0.0000 O   0  0  0  0  0  0  0  0  0  0  0  0
    7.0496   -2.5578    0.0000 N   0  0  0  0  0  0  0  0  0  0  0  0
    4.7176   -1.4505    0.0000 N   0  0  0  0  0  0  0  0  0  0  0  0
    6.0496   -0.8257    0.0000 N   0  0  0  0  0  0  0  0  0  0  0  0
    4.0836    1.1652    0.0000 N   0  0  0  0  0  0  0  0  0  0  0  0
    8.5496   -1.6917    0.0000 C   0  0  2  0  0  0  0  0  0  0  0  0
    7.5496   -1.6917    0.0000 C   0  0  1  0  0  0  0  0  0  0  0  0
    9.0496   -2.5578    0.0000 C   0  0  0  0  0  0  0  0  0  0  0  0
    5.2176   -2.3166    0.0000 C   0  0  2  0  0  0  0  0  0  0  0  0
    7.0496   -0.8257    0.0000 C   0  0  0  0  0  0  0  0  0  0  0  0
    9.0496   -0.8257    0.0000 C   0  0  0  0  0  0  0  0  0  0  0  0
    6.0836   -2.8166    0.0000 C   0  0  0  0  0  0  0  0  0  0  0  0
    4.3516   -2.8166    0.0000 C   0  0  0  0  0  0  0  0  0  0  0  0
    5.5496    0.0403    0.0000 C   0  0  1  0  0  0  0  0  0  0  0  0
   10.0495   -2.5578    0.0000 C   0  0  0  0  0  0  0  0  0  0  0  0
    3.4856   -2.3166    0.0000 C   0  0  0  0  0  0  0  0  0  0  0  0
    6.1583    0.8337    0.0000 C   0  0  0  0  0  0  0  0  0  0  0  0
    5.2176   -0.5845    0.0000 C   0  0  0  0  0  0  0  0  0  0  0  0
    3.7176   -1.4505    0.0000 C   0  0  0  0  0  0  0  0  0  0  0  0
    4.5836    0.2991    0.0000 C   0  0  0  0  0  0  0  0  0  0  0  0
    2.6195   -1.8166    0.0000 C   0  0  0  0  0  0  0  0  0  0  0  0
    4.3516   -1.8166    0.0000 C   0  0  0  0  0  0  0  0  0  0  0  0
    6.2888    1.8251    0.0000 C   0  0  0  0  0  0  0  0  0  0  0  0
    2.6195   -0.8166    0.0000 C   0  0  0  0  0  0  0  0  0  0  0  0
    4.3516   -0.8166    0.0000 C   0  0  0  0  0  0  0  0  0  0  0  0
    3.4856   -0.3166    0.0000 C   0  0  0  0  0  0  0  0  0  0  0  0
    2.6195    0.1834    0.0000 C   0  0  0  0  0  0  0  0  0  0  0  0
    7.2127    2.2078    0.0000 C   0  0  0  0  0  0  0  0  0  0  0  0
    5.4955    2.4339    0.0000 C   0  0  0  0  0  0  0  0  0  0  0  0
    3.0836    1.1652    0.0000 C   0  0  0  0  0  0  0  0  0  0  0  0
    7.3432    3.1992    0.0000 C   0  0  0  0  0  0  0  0  0  0  0  0
    5.6260    3.4253    0.0000 C   0  0  0  0  0  0  0  0  0  0  0  0
    6.5499    3.8080    0.0000 C   0  0  0  0  0  0  0  0  0  0  0  0
    4.3516   -3.5486    0.0000 C   0  0  0  0  0  0  0  0  0  0  0  0
    9.1695   -1.6917    0.0000 H   0  0  0  0  0  0  0  0  0  0  0  0
    7.9746   -2.4278    0.0000 H   0  0  0  0  0  0  0  0  0  0  0  0
    8.4669   -2.7698    0.0000 H   0  0  0  0  0  0  0  0  0  0  0  0
    9.1572   -3.1683    0.0000 H   0  0  0  0  0  0  0  0  0  0  0  0
    5.6560   -1.8782    0.0000 H   0  0  0  0  0  0  0  0  0  0  0  0
    7.4270   -3.0496    0.0000 H   0  0  0  0  0  0  0  0  0  0  0  0
    9.5865   -1.1357    0.0000 H   0  0  0  0  0  0  0  0  0  0  0  0
    9.3596   -0.2888    0.0000 H   0  0  0  0  0  0  0  0  0  0  0  0
    8.5126   -0.5157    0.0000 H   0  0  0  0  0  0  0  0  0  0  0  0
    3.9530   -3.2915    0.0000 H   0  0  0  0  0  0  0  0  0  0  0  0
    4.7501   -3.2915    0.0000 H   0  0  0  0  0  0  0  0  0  0  0  0
    6.1682   -0.0002    0.0000 H   0  0  0  0  0  0  0  0  0  0  0  0
    5.7396   -1.3626    0.0000 H   0  0  0  0  0  0  0  0  0  0  0  0
   10.0495   -3.1778    0.0000 H   0  0  0  0  0  0  0  0  0  0  0  0
   10.6695   -2.5578    0.0000 H   0  0  0  0  0  0  0  0  0  0  0  0
   10.0495   -1.9378    0.0000 H   0  0  0  0  0  0  0  0  0  0  0  0
    6.4914    0.3108    0.0000 H   0  0  0  0  0  0  0  0  0  0  0  0
    5.5855    1.0709    0.0000 H   0  0  0  0  0  0  0  0  0  0  0  0
    3.7176   -0.8305    0.0000 H   0  0  0  0  0  0  0  0  0  0  0  0
    3.0976   -1.4505    0.0000 H   0  0  0  0  0  0  0  0  0  0  0  0
    3.7176   -2.0705    0.0000 H   0  0  0  0  0  0  0  0  0  0  0  0
    5.7545   -0.8945    0.0000 H   0  0  0  0  0  0  0  0  0  0  0  0
    5.5276   -0.0476    0.0000 H   0  0  0  0  0  0  0  0  0  0  0  0
    4.6807   -0.2745    0.0000 H   0  0  0  0  0  0  0  0  0  0  0  0
    2.0826   -2.1266    0.0000 H   0  0  0  0  0  0  0  0  0  0  0  0
    4.8885   -0.5066    0.0000 H   0  0  0  0  0  0  0  0  0  0  0  0
    4.0836    1.7852    0.0000 H   0  0  0  0  0  0  0  0  0  0  0  0
    3.4856    0.3034    0.0000 H   0  0  0  0  0  0  0  0  0  0  0  0
    2.0000    0.2078    0.0000 H   0  0  0  0  0  0  0  0  0  0  0  0
    7.7046    1.8304    0.0000 H   0  0  0  0  0  0  0  0  0  0  0  0
    4.9227    2.1966    0.0000 H   0  0  0  0  0  0  0  0  0  0  0  0
    2.7866    1.7094    0.0000 H   0  0  0  0  0  0  0  0  0  0  0  0
    7.9160    3.4365    0.0000 H   0  0  0  0  0  0  0  0  0  0  0  0
    5.1341    3.8028    0.0000 H   0  0  0  0  0  0  0  0  0  0  0  0
    6.6308    4.4227    0.0000 H   0  0  0  0  0  0  0  0  0  0  0  0
    3.8147   -3.2387    0.0000 H   0  0  0  0  0  0  0  0  0  0  0  0
    4.0417   -4.0856    0.0000 H   0  0  0  0  0  0  0  0  0  0  0  0
    4.8886   -3.8586    0.0000 H   0  0  0  0  0  0  0  0  0  0  0  0
  1 13  2  0  0  0  0
  2 15  2  0  0  0  0
  3 25  1  0  0  0  0
  3 37  1  0  0  0  0
  4 23  2  0  0  0  0
  5 10  1  0  0  0  0
  5 15  1  0  0  0  0
  5 43  1  0  0  0  0
 12  6  1  6  0  0  0
  6 21  1  0  0  0  0
  6 22  1  0  0  0  0
  7 13  1  0  0  0  0
  7 17  1  0  0  0  0
  7 50  1  0  0  0  0
  8 23  1  0  0  0  0
  8 33  1  0  0  0  0
  8 64  1  0  0  0  0
  9 10  1  0  0  0  0
  9 11  1  0  0  0  0
  9 14  1  1  0  0  0
  9 38  1  0  0  0  0
 10 13  1  0  0  0  0
 10 39  1  1  0  0  0
 11 18  1  0  0  0  0
 11 40  1  0  0  0  0
 11 41  1  0  0  0  0
 12 15  1  0  0  0  0
 12 16  1  0  0  0  0
 12 42  1  0  0  0  0
 14 44  1  0  0  0  0
 14 45  1  0  0  0  0
 14 46  1  0  0  0  0
 16 19  1  0  0  0  0
 16 47  1  0  0  0  0
 16 48  1  0  0  0  0
 17 20  1  6  0  0  0
 17 23  1  0  0  0  0
 17 49  1  0  0  0  0
 18 51  1  0  0  0  0
 18 52  1  0  0  0  0
 18 53  1  0  0  0  0
 19 24  1  0  0  0  0
 19 25  2  0  0  0  0
 20 26  1  0  0  0  0
 20 54  1  0  0  0  0
 20 55  1  0  0  0  0
 21 59  1  0  0  0  0
 21 60  1  0  0  0  0
 21 61  1  0  0  0  0
 22 56  1  0  0  0  0
 22 57  1  0  0  0  0
 22 58  1  0  0  0  0
 24 27  2  0  0  0  0
 24 62  1  0  0  0  0
 25 28  1  0  0  0  0
 26 31  2  0  0  0  0
 26 32  1  0  0  0  0
 27 29  1  0  0  0  0
 27 30  1  0  0  0  0
 28 29  2  0  0  0  0
 28 63  1  0  0  0  0
 29 65  1  0  0  0  0
 30 33  2  0  0  0  0
 30 66  1  0  0  0  0
 31 34  1  0  0  0  0
 31 67  1  0  0  0  0
 32 35  2  0  0  0  0
 32 68  1  0  0  0  0
 33 69  1  0  0  0  0
 34 36  2  0  0  0  0
 34 70  1  0  0  0  0
 35 36  1  0  0  0  0
 35 71  1  0  0  0  0
 36 72  1  0  0  0  0
 37 73  1  0  0  0  0
 37 74  1  0  0  0  0
 37 75  1  0  0  0  0
M  END
> <PUBCHEM_COMPOUND_CID>
5281592

> <PUBCHEM_COMPOUND_CANONICALIZED>
1

> <PUBCHEM_CACTVS_COMPLEXITY>
795

> <PUBCHEM_CACTVS_HBOND_ACCEPTOR>
5

> <PUBCHEM_CACTVS_HBOND_DONOR>
3

> <PUBCHEM_CACTVS_ROTATABLE_BOND>
6

> <PUBCHEM_CACTVS_SUBSKEYS>
AAADcfB7uAAAAAAAAAAAAAAAAAAAAAAAAAAwYAAAAAAAAAABQAAAHgAQAAAADSzBmAYyBoPABACIAiFWUAACCAAgIgAIiIGOCIgMZjKEsTuUMCAk1hGIqAe43OLOIAACAAAIAABAAAQAABAAAAAAAAAAAA==

> <PUBCHEM_IUPAC_OPENEYE_NAME>
(3S,6S,9S,12Z)-9-benzyl-3-(dimethylamino)-17-methoxy-6-[(1S)-1-methylpropyl]-5,8,11-triazabicyclo[12.3.1]octadeca-1(17),12,14(18),15-tetraene-4,7,10-trione

> <PUBCHEM_IUPAC_CAS_NAME>
(3S,6S,9S,12Z)-6-[(2S)-butan-2-yl]-3-(dimethylamino)-17-methoxy-9-(phenylmethyl)-5,8,11-triazabicyclo[12.3.1]octadeca-1(17),12,14(18),15-tetraene-4,7,10-trione

> <PUBCHEM_IUPAC_NAME>
(3S,6S,9S,12Z)-9-benzyl-6-[(2S)-butan-2-yl]-3-(dimethylamino)-17-methoxy-5,8,11-triazabicyclo[12.3.1]octadeca-1(17),12,14(18),15-tetraene-4,7,10-trione

> <PUBCHEM_IUPAC_SYSTEMATIC_NAME>
(3S,6S,9S,12Z)-6-[(2S)-butan-2-yl]-3-(dimethylamino)-17-methoxy-9-(phenylmethyl)-5,8,11-triazabicyclo[12.3.1]octadeca-1(17),12,14(18),15-tetraene-4,7,10-trione

> <PUBCHEM_IUPAC_TRADITIONAL_NAME>
(3S,6S,9S,12Z)-9-benzyl-3-(dimethylamino)-17-methoxy-6-[(1S)-1-methylpropyl]-5,8,11-triazabicyclo[12.3.1]octadeca-1(17),12,14(18),15-tetraene-4,7,10-trione

> <PUBCHEM_IUPAC_INCHI>
InChI=1S/C29H38N4O4/c1-6-19(2)26-29(36)31-23(17-20-10-8-7-9-11-20)27(34)30-15-14-21-12-13-25(37-5)22(16-21)18-24(33(3)4)28(35)32-26/h7-16,19,23-24,26H,6,17-18H2,1-5H3,(H,30,34)(H,31,36)(H,32,35)/b15-14-/t19-,23-,24-,26-/m0/s1

> <PUBCHEM_IUPAC_INCHIKEY>
ZGVZGFFCCVLGFC-BTIMGDGLSA-N

> <PUBCHEM_XLOGP3_AA>
4.1

> <PUBCHEM_EXACT_MASS>
506.289306

> <PUBCHEM_MOLECULAR_FORMULA>
C29H38N4O4

> <PUBCHEM_MOLECULAR_WEIGHT>
506.63642

> <PUBCHEM_OPENEYE_CAN_SMILES>
CCC(C)C1C(=O)NC(C(=O)NC=CC2=CC(=C(C=C2)OC)CC(C(=O)N1)N(C)C)CC3=CC=CC=C3

> <PUBCHEM_OPENEYE_ISO_SMILES>
CC[C@H](C)[C@H]1C(=O)N[C@H](C(=O)N/C=C\C2=CC(=C(C=C2)OC)C[C@@H](C(=O)N1)N(C)C)CC3=CC=CC=C3

> <PUBCHEM_CACTVS_TPSA>
99.8

> <PUBCHEM_MONOISOTOPIC_WEIGHT>
506.289306

> <PUBCHEM_TOTAL_CHARGE>
0

> <PUBCHEM_HEAVY_ATOM_COUNT>
37

> <PUBCHEM_ATOM_DEF_STEREO_COUNT>
4

> <PUBCHEM_ATOM_UDEF_STEREO_COUNT>
0

> <PUBCHEM_BOND_DEF_STEREO_COUNT>
1

> <PUBCHEM_BOND_UDEF_STEREO_COUNT>
0

> <PUBCHEM_ISOTOPIC_ATOM_COUNT>
0

> <PUBCHEM_COMPONENT_COUNT>
1

> <PUBCHEM_CACTVS_TAUTO_COUNT>
27

> <PUBCHEM_COORDINATE_TYPE>
1
5
255

> <PUBCHEM_BONDANNOTATIONS>
10  39  5
17  20  6
19  24  8
19  25  8
24  27  8
25  28  8
26  31  8
26  32  8
27  29  8
28  29  8
31  34  8
32  35  8
34  36  8
35  36  8
12  6  6
9  14  5

$$$$

