5280714
  -OEChem-07051212492D

 56 56  0     1  0  0  0  0  0999 V2000
    9.0877   -4.1739    0.0000 O   0  0  0  0  0  0  0  0  0  0  0  0
   10.1755    1.1739    0.0000 O   0  0  0  0  0  0  0  0  0  0  0  0
    2.5896   -3.8543    0.0000 O   0  0  0  0  0  0  0  0  0  0  0  0
    3.1249   -2.2070    0.0000 O   0  0  0  0  0  0  0  0  0  0  0  0
    9.3665   -2.4139    0.0000 C   0  0  3  0  0  0  0  0  0  0  0  0
   10.1755   -1.8261    0.0000 C   0  0  2  0  0  0  0  0  0  0  0  0
    8.4154   -2.1048    0.0000 C   0  0  0  0  0  0  0  0  0  0  0  0
    7.6723   -2.7740    0.0000 C   0  0  0  0  0  0  0  0  0  0  0  0
    9.6755   -3.3649    0.0000 C   0  0  0  0  0  0  0  0  0  0  0  0
   10.9845   -2.4139    0.0000 C   0  0  0  0  0  0  0  0  0  0  0  0
    6.7212   -2.4650    0.0000 C   0  0  0  0  0  0  0  0  0  0  0  0
   10.1755   -0.8261    0.0000 C   0  0  0  0  0  0  0  0  0  0  0  0
   10.6755   -3.3649    0.0000 C   0  0  0  0  0  0  0  0  0  0  0  0
    5.9781   -3.1341    0.0000 C   0  0  0  0  0  0  0  0  0  0  0  0
   11.0415   -0.3261    0.0000 C   0  0  0  0  0  0  0  0  0  0  0  0
   11.0415    0.6739    0.0000 C   0  0  2  0  0  0  0  0  0  0  0  0
    5.0270   -2.8251    0.0000 C   0  0  0  0  0  0  0  0  0  0  0  0
   11.9075    1.1739    0.0000 C   0  0  0  0  0  0  0  0  0  0  0  0
   11.9075    2.1739    0.0000 C   0  0  0  0  0  0  0  0  0  0  0  0
   12.7736    2.6739    0.0000 C   0  0  0  0  0  0  0  0  0  0  0  0
    4.2839   -3.4942    0.0000 C   0  0  0  0  0  0  0  0  0  0  0  0
   12.7736    3.6739    0.0000 C   0  0  0  0  0  0  0  0  0  0  0  0
   13.6396    4.1739    0.0000 C   0  0  0  0  0  0  0  0  0  0  0  0
    3.3328   -3.1852    0.0000 C   0  0  0  0  0  0  0  0  0  0  0  0
    9.2335   -1.5743    0.0000 H   0  0  0  0  0  0  0  0  0  0  0  0
    9.6230   -1.5446    0.0000 H   0  0  0  0  0  0  0  0  0  0  0  0
    8.7065   -1.5574    0.0000 H   0  0  0  0  0  0  0  0  0  0  0  0
    7.9268   -1.7231    0.0000 H   0  0  0  0  0  0  0  0  0  0  0  0
    7.3812   -3.3214    0.0000 H   0  0  0  0  0  0  0  0  0  0  0  0
    8.1608   -3.1557    0.0000 H   0  0  0  0  0  0  0  0  0  0  0  0
   11.5741   -2.2223    0.0000 H   0  0  0  0  0  0  0  0  0  0  0  0
    7.0123   -1.9175    0.0000 H   0  0  0  0  0  0  0  0  0  0  0  0
    6.2326   -2.0832    0.0000 H   0  0  0  0  0  0  0  0  0  0  0  0
    9.6385   -0.5161    0.0000 H   0  0  0  0  0  0  0  0  0  0  0  0
   11.0399   -3.8665    0.0000 H   0  0  0  0  0  0  0  0  0  0  0  0
    5.6870   -3.6815    0.0000 H   0  0  0  0  0  0  0  0  0  0  0  0
    6.4666   -3.5158    0.0000 H   0  0  0  0  0  0  0  0  0  0  0  0
   11.5784   -0.6361    0.0000 H   0  0  0  0  0  0  0  0  0  0  0  0
   11.0415    1.2939    0.0000 H   0  0  0  0  0  0  0  0  0  0  0  0
    5.3181   -2.2776    0.0000 H   0  0  0  0  0  0  0  0  0  0  0  0
    4.5384   -2.4434    0.0000 H   0  0  0  0  0  0  0  0  0  0  0  0
   12.1196    0.5913    0.0000 H   0  0  0  0  0  0  0  0  0  0  0  0
   12.5181    1.2816    0.0000 H   0  0  0  0  0  0  0  0  0  0  0  0
   11.6955    2.7565    0.0000 H   0  0  0  0  0  0  0  0  0  0  0  0
   11.2969    2.0663    0.0000 H   0  0  0  0  0  0  0  0  0  0  0  0
   12.9856    2.0913    0.0000 H   0  0  0  0  0  0  0  0  0  0  0  0
   13.3841    2.7816    0.0000 H   0  0  0  0  0  0  0  0  0  0  0  0
    3.9928   -4.0416    0.0000 H   0  0  0  0  0  0  0  0  0  0  0  0
    4.7724   -3.8759    0.0000 H   0  0  0  0  0  0  0  0  0  0  0  0
   12.5615    4.2565    0.0000 H   0  0  0  0  0  0  0  0  0  0  0  0
   12.1630    3.5663    0.0000 H   0  0  0  0  0  0  0  0  0  0  0  0
   10.1755    1.7939    0.0000 H   0  0  0  0  0  0  0  0  0  0  0  0
   13.9496    3.6370    0.0000 H   0  0  0  0  0  0  0  0  0  0  0  0
   14.1765    4.4839    0.0000 H   0  0  0  0  0  0  0  0  0  0  0  0
   13.3296    4.7109    0.0000 H   0  0  0  0  0  0  0  0  0  0  0  0
    2.0000   -3.6627    0.0000 H   0  0  0  0  0  0  0  0  0  0  0  0
  1  9  2  0  0  0  0
 16  2  1  1  0  0  0
  2 52  1  0  0  0  0
  3 24  1  0  0  0  0
  3 56  1  0  0  0  0
  4 24  2  0  0  0  0
  5  6  1  0  0  0  0
  5  7  1  0  0  0  0
  5  9  1  0  0  0  0
  5 25  1  0  0  0  0
  6 10  1  0  0  0  0
  6 12  1  1  0  0  0
  6 26  1  0  0  0  0
  7  8  1  0  0  0  0
  7 27  1  0  0  0  0
  7 28  1  0  0  0  0
  8 11  1  0  0  0  0
  8 29  1  0  0  0  0
  8 30  1  0  0  0  0
  9 13  1  0  0  0  0
 10 13  2  0  0  0  0
 10 31  1  0  0  0  0
 11 14  1  0  0  0  0
 11 32  1  0  0  0  0
 11 33  1  0  0  0  0
 12 15  2  0  0  0  0
 12 34  1  0  0  0  0
 13 35  1  0  0  0  0
 14 17  1  0  0  0  0
 14 36  1  0  0  0  0
 14 37  1  0  0  0  0
 15 16  1  0  0  0  0
 15 38  1  0  0  0  0
 16 18  1  0  0  0  0
 16 39  1  0  0  0  0
 17 21  1  0  0  0  0
 17 40  1  0  0  0  0
 17 41  1  0  0  0  0
 18 19  1  0  0  0  0
 18 42  1  0  0  0  0
 18 43  1  0  0  0  0
 19 20  1  0  0  0  0
 19 44  1  0  0  0  0
 19 45  1  0  0  0  0
 20 22  1  0  0  0  0
 20 46  1  0  0  0  0
 20 47  1  0  0  0  0
 21 24  1  0  0  0  0
 21 48  1  0  0  0  0
 21 49  1  0  0  0  0
 22 23  1  0  0  0  0
 22 50  1  0  0  0  0
 22 51  1  0  0  0  0
 23 53  1  0  0  0  0
 23 54  1  0  0  0  0
 23 55  1  0  0  0  0
M  END
> <PUBCHEM_COMPOUND_CID>
5280714

> <PUBCHEM_COMPOUND_CANONICALIZED>
1

> <PUBCHEM_CACTVS_COMPLEXITY>
439

> <PUBCHEM_CACTVS_HBOND_ACCEPTOR>
4

> <PUBCHEM_CACTVS_HBOND_DONOR>
2

> <PUBCHEM_CACTVS_ROTATABLE_BOND>
13

> <PUBCHEM_CACTVS_SUBSKEYS>
AAADcfB4OAAAAAAAAAAAAAAAAAAAAQAAAAAAAAAAAAAAAAAAAAAAGgAACAAADRSggAICCAAAAgCIAKDSCAAAAAAgAAAICAEAAEgAFBIAAQAAUAAEgAAIEYOIyOCOgAAAAAAAAAAAAAAAAAAAAAAAAAAAAA==

> <PUBCHEM_IUPAC_OPENEYE_NAME>
7-[(2S)-2-[(E,3S)-3-hydroxyoct-1-enyl]-5-oxo-cyclopent-3-en-1-yl]heptanoic acid

> <PUBCHEM_IUPAC_CAS_NAME>
7-[(2S)-2-[(E,3S)-3-hydroxyoct-1-enyl]-5-oxo-1-cyclopent-3-enyl]heptanoic acid

> <PUBCHEM_IUPAC_NAME>
7-[(2S)-2-[(E,3S)-3-hydroxyoct-1-enyl]-5-oxocyclopent-3-en-1-yl]heptanoic acid

> <PUBCHEM_IUPAC_SYSTEMATIC_NAME>
7-[(5S)-2-oxidanylidene-5-[(E,3S)-3-oxidanyloct-1-enyl]cyclopent-3-en-1-yl]heptanoic acid

> <PUBCHEM_IUPAC_TRADITIONAL_NAME>
7-[(2S)-2-[(E,3S)-3-hydroxyoct-1-enyl]-5-keto-cyclopent-3-en-1-yl]enanthic acid

> <PUBCHEM_IUPAC_INCHI>
InChI=1S/C20H32O4/c1-2-3-6-9-17(21)14-12-16-13-15-19(22)18(16)10-7-4-5-8-11-20(23)24/h12-18,21H,2-11H2,1H3,(H,23,24)/b14-12+/t16-,17-,18?/m0/s1

> <PUBCHEM_IUPAC_INCHIKEY>
BGKHCLZFGPIKKU-BGEXMHJYSA-N

> <PUBCHEM_XLOGP3_AA>
4.4

> <PUBCHEM_EXACT_MASS>
336.23006

> <PUBCHEM_MOLECULAR_FORMULA>
C20H32O4

> <PUBCHEM_MOLECULAR_WEIGHT>
336.46568

> <PUBCHEM_OPENEYE_CAN_SMILES>
CCCCCC(C=CC1C=CC(=O)C1CCCCCCC(=O)O)O

> <PUBCHEM_OPENEYE_ISO_SMILES>
CCCCC[C@@H](/C=C/[C@H]1C=CC(=O)C1CCCCCCC(=O)O)O

> <PUBCHEM_CACTVS_TPSA>
74.6

> <PUBCHEM_MONOISOTOPIC_WEIGHT>
336.23006

> <PUBCHEM_TOTAL_CHARGE>
0

> <PUBCHEM_HEAVY_ATOM_COUNT>
24

> <PUBCHEM_ATOM_DEF_STEREO_COUNT>
2

> <PUBCHEM_ATOM_UDEF_STEREO_COUNT>
1

> <PUBCHEM_BOND_DEF_STEREO_COUNT>
1

> <PUBCHEM_BOND_UDEF_STEREO_COUNT>
0

> <PUBCHEM_ISOTOPIC_ATOM_COUNT>
0

> <PUBCHEM_COMPONENT_COUNT>
1

> <PUBCHEM_CACTVS_TAUTO_COUNT>
25

> <PUBCHEM_COORDINATE_TYPE>
1
5
255

> <PUBCHEM_BONDANNOTATIONS>
16  2  5
5  25  3
6  12  5

$$$$

