5282218
  -OEChem-07051213032D

100103  0     1  0  0  0  0  0999 V2000
    5.4646   -3.3371    0.0000 O   0  0  0  0  0  0  0  0  0  0  0  0
   18.6902    1.5971    0.0000 O   0  0  0  0  0  0  0  0  0  0  0  0
    2.0000   -4.3371    0.0000 O   0  0  0  0  0  0  0  0  0  0  0  0
   21.6832    3.6083    0.0000 O   0  0  0  0  0  0  0  0  0  0  0  0
    4.5981   -2.8371    0.0000 C   0  0  2  0  0  0  0  0  0  0  0  0
   18.8641    2.5823    0.0000 C   0  0  2  0  0  0  0  0  0  0  0  0
    4.5981   -3.8371    0.0000 C   0  0  1  0  0  0  0  0  0  0  0  0
   19.6302    1.9395    0.0000 C   0  0  1  0  0  0  0  0  0  0  0  0
    3.7320   -2.3371    0.0000 C   0  0  0  0  0  0  0  0  0  0  0  0
   19.0378    3.5671    0.0000 C   0  0  0  0  0  0  0  0  0  0  0  0
    3.7320   -4.3371    0.0000 C   0  0  0  0  0  0  0  0  0  0  0  0
   20.5699    2.2815    0.0000 C   0  0  0  0  0  0  0  0  0  0  0  0
    2.8660   -2.8371    0.0000 C   0  0  0  0  0  0  0  0  0  0  0  0
   19.9775    3.9091    0.0000 C   0  0  0  0  0  0  0  0  0  0  0  0
    2.8660   -3.8371    0.0000 C   0  0  2  0  0  0  0  0  0  0  0  0
   20.7435    3.2663    0.0000 C   0  0  2  0  0  0  0  0  0  0  0  0
    4.5981   -4.8371    0.0000 C   0  0  0  0  0  0  0  0  0  0  0  0
   20.3962    1.2967    0.0000 C   0  0  0  0  0  0  0  0  0  0  0  0
    5.0981   -1.9711    0.0000 C   0  0  0  0  0  0  0  0  0  0  0  0
   18.0981    3.2251    0.0000 C   0  0  0  0  0  0  0  0  0  0  0  0
    2.8660   -1.8371    0.0000 C   0  0  0  0  0  0  0  0  0  0  0  0
    3.7320   -1.3371    0.0000 C   0  0  0  0  0  0  0  0  0  0  0  0
   19.2114    4.5519    0.0000 C   0  0  0  0  0  0  0  0  0  0  0  0
   18.5378    4.4331    0.0000 C   0  0  0  0  0  0  0  0  0  0  0  0
    6.0981   -1.9711    0.0000 C   0  0  0  0  0  0  0  0  0  0  0  0
   17.0981    3.2251    0.0000 C   0  0  0  0  0  0  0  0  0  0  0  0
    6.5981   -1.1051    0.0000 C   0  0  0  0  0  0  0  0  0  0  0  0
   16.5981    4.0911    0.0000 C   0  0  0  0  0  0  0  0  0  0  0  0
    6.0981   -0.2390    0.0000 C   0  0  0  0  0  0  0  0  0  0  0  0
   17.0981    4.9571    0.0000 C   0  0  0  0  0  0  0  0  0  0  0  0
    7.5981   -1.1051    0.0000 C   0  0  0  0  0  0  0  0  0  0  0  0
   15.5981    4.0911    0.0000 C   0  0  0  0  0  0  0  0  0  0  0  0
    8.0981   -0.2390    0.0000 C   0  0  0  0  0  0  0  0  0  0  0  0
   15.0981    3.2251    0.0000 C   0  0  0  0  0  0  0  0  0  0  0  0
    9.0981   -0.2390    0.0000 C   0  0  0  0  0  0  0  0  0  0  0  0
   14.0981    3.2251    0.0000 C   0  0  0  0  0  0  0  0  0  0  0  0
    9.5981    0.6270    0.0000 C   0  0  0  0  0  0  0  0  0  0  0  0
   13.5981    2.3590    0.0000 C   0  0  0  0  0  0  0  0  0  0  0  0
    9.0981    1.4930    0.0000 C   0  0  0  0  0  0  0  0  0  0  0  0
   14.0981    1.4930    0.0000 C   0  0  0  0  0  0  0  0  0  0  0  0
   10.5981    0.6270    0.0000 C   0  0  0  0  0  0  0  0  0  0  0  0
   12.5981    2.3590    0.0000 C   0  0  0  0  0  0  0  0  0  0  0  0
   11.0981    1.4930    0.0000 C   0  0  0  0  0  0  0  0  0  0  0  0
   12.0981    1.4930    0.0000 C   0  0  0  0  0  0  0  0  0  0  0  0
    3.3335   -4.8121    0.0000 H   0  0  0  0  0  0  0  0  0  0  0  0
    4.1306   -4.8121    0.0000 H   0  0  0  0  0  0  0  0  0  0  0  0
   20.6775    1.6709    0.0000 H   0  0  0  0  0  0  0  0  0  0  0  0
   21.1899    2.2815    0.0000 H   0  0  0  0  0  0  0  0  0  0  0  0
    2.6540   -2.2545    0.0000 H   0  0  0  0  0  0  0  0  0  0  0  0
    2.2554   -2.9448    0.0000 H   0  0  0  0  0  0  0  0  0  0  0  0
   20.4524    4.3076    0.0000 H   0  0  0  0  0  0  0  0  0  0  0  0
   19.6675    4.4460    0.0000 H   0  0  0  0  0  0  0  0  0  0  0  0
    2.8660   -4.4571    0.0000 H   0  0  0  0  0  0  0  0  0  0  0  0
   20.8512    3.8769    0.0000 H   0  0  0  0  0  0  0  0  0  0  0  0
    3.9781   -4.8371    0.0000 H   0  0  0  0  0  0  0  0  0  0  0  0
    4.5981   -5.4571    0.0000 H   0  0  0  0  0  0  0  0  0  0  0  0
    5.2181   -4.8371    0.0000 H   0  0  0  0  0  0  0  0  0  0  0  0
   19.9977    0.8218    0.0000 H   0  0  0  0  0  0  0  0  0  0  0  0
   20.8712    0.8982    0.0000 H   0  0  0  0  0  0  0  0  0  0  0  0
   20.7947    1.7716    0.0000 H   0  0  0  0  0  0  0  0  0  0  0  0
    4.7881   -1.4342    0.0000 H   0  0  0  0  0  0  0  0  0  0  0  0
   18.4081    3.7620    0.0000 H   0  0  0  0  0  0  0  0  0  0  0  0
    3.1760   -1.3002    0.0000 H   0  0  0  0  0  0  0  0  0  0  0  0
    2.3291   -1.5271    0.0000 H   0  0  0  0  0  0  0  0  0  0  0  0
    2.5560   -2.3740    0.0000 H   0  0  0  0  0  0  0  0  0  0  0  0
    4.3520   -1.3371    0.0000 H   0  0  0  0  0  0  0  0  0  0  0  0
    3.7320   -0.7171    0.0000 H   0  0  0  0  0  0  0  0  0  0  0  0
    3.1120   -1.3371    0.0000 H   0  0  0  0  0  0  0  0  0  0  0  0
   19.8220    4.4442    0.0000 H   0  0  0  0  0  0  0  0  0  0  0  0
   19.3191    5.1625    0.0000 H   0  0  0  0  0  0  0  0  0  0  0  0
   18.6008    4.6596    0.0000 H   0  0  0  0  0  0  0  0  0  0  0  0
   19.0747    4.7431    0.0000 H   0  0  0  0  0  0  0  0  0  0  0  0
   18.2278    4.9700    0.0000 H   0  0  0  0  0  0  0  0  0  0  0  0
   18.0008    4.1231    0.0000 H   0  0  0  0  0  0  0  0  0  0  0  0
    2.0000   -4.9571    0.0000 H   0  0  0  0  0  0  0  0  0  0  0  0
   22.1581    3.2098    0.0000 H   0  0  0  0  0  0  0  0  0  0  0  0
    6.4081   -2.5080    0.0000 H   0  0  0  0  0  0  0  0  0  0  0  0
   16.7881    2.6881    0.0000 H   0  0  0  0  0  0  0  0  0  0  0  0
    6.6350    0.0710    0.0000 H   0  0  0  0  0  0  0  0  0  0  0  0
    5.7881    0.2979    0.0000 H   0  0  0  0  0  0  0  0  0  0  0  0
    5.5611   -0.5490    0.0000 H   0  0  0  0  0  0  0  0  0  0  0  0
   17.6350    4.6471    0.0000 H   0  0  0  0  0  0  0  0  0  0  0  0
   17.4081    5.4940    0.0000 H   0  0  0  0  0  0  0  0  0  0  0  0
   16.5611    5.2671    0.0000 H   0  0  0  0  0  0  0  0  0  0  0  0
    7.9081   -1.6420    0.0000 H   0  0  0  0  0  0  0  0  0  0  0  0
   15.2881    4.6280    0.0000 H   0  0  0  0  0  0  0  0  0  0  0  0
    7.7881    0.2979    0.0000 H   0  0  0  0  0  0  0  0  0  0  0  0
   15.4081    2.6881    0.0000 H   0  0  0  0  0  0  0  0  0  0  0  0
    9.4081   -0.7760    0.0000 H   0  0  0  0  0  0  0  0  0  0  0  0
   13.7881    3.7620    0.0000 H   0  0  0  0  0  0  0  0  0  0  0  0
    9.6350    1.8030    0.0000 H   0  0  0  0  0  0  0  0  0  0  0  0
    8.7881    2.0300    0.0000 H   0  0  0  0  0  0  0  0  0  0  0  0
    8.5611    1.1830    0.0000 H   0  0  0  0  0  0  0  0  0  0  0  0
   13.5611    1.1830    0.0000 H   0  0  0  0  0  0  0  0  0  0  0  0
   14.4081    0.9561    0.0000 H   0  0  0  0  0  0  0  0  0  0  0  0
   14.6350    1.8030    0.0000 H   0  0  0  0  0  0  0  0  0  0  0  0
   10.9081    0.0901    0.0000 H   0  0  0  0  0  0  0  0  0  0  0  0
   12.2881    2.8960    0.0000 H   0  0  0  0  0  0  0  0  0  0  0  0
   10.7881    2.0300    0.0000 H   0  0  0  0  0  0  0  0  0  0  0  0
   12.4081    0.9561    0.0000 H   0  0  0  0  0  0  0  0  0  0  0  0
  1  5  1  0  0  0  0
  1  7  1  0  0  0  0
  2  6  1  0  0  0  0
  2  8  1  0  0  0  0
 15  3  1  1  0  0  0
  3 75  1  0  0  0  0
 16  4  1  6  0  0  0
  4 76  1  0  0  0  0
  5  7  1  0  0  0  0
  5  9  1  0  0  0  0
  5 19  1  1  0  0  0
  6  8  1  0  0  0  0
  6 10  1  0  0  0  0
  6 20  1  6  0  0  0
  7 11  1  0  0  0  0
  7 17  1  1  0  0  0
  8 12  1  0  0  0  0
  8 18  1  6  0  0  0
  9 13  1  0  0  0  0
  9 21  1  0  0  0  0
  9 22  1  0  0  0  0
 10 14  1  0  0  0  0
 10 23  1  0  0  0  0
 10 24  1  0  0  0  0
 11 15  1  0  0  0  0
 11 45  1  0  0  0  0
 11 46  1  0  0  0  0
 12 16  1  0  0  0  0
 12 47  1  0  0  0  0
 12 48  1  0  0  0  0
 13 15  1  0  0  0  0
 13 49  1  0  0  0  0
 13 50  1  0  0  0  0
 14 16  1  0  0  0  0
 14 51  1  0  0  0  0
 14 52  1  0  0  0  0
 15 53  1  0  0  0  0
 16 54  1  0  0  0  0
 17 55  1  0  0  0  0
 17 56  1  0  0  0  0
 17 57  1  0  0  0  0
 18 58  1  0  0  0  0
 18 59  1  0  0  0  0
 18 60  1  0  0  0  0
 19 25  2  0  0  0  0
 19 61  1  0  0  0  0
 20 26  2  0  0  0  0
 20 62  1  0  0  0  0
 21 63  1  0  0  0  0
 21 64  1  0  0  0  0
 21 65  1  0  0  0  0
 22 66  1  0  0  0  0
 22 67  1  0  0  0  0
 22 68  1  0  0  0  0
 23 69  1  0  0  0  0
 23 70  1  0  0  0  0
 23 71  1  0  0  0  0
 24 72  1  0  0  0  0
 24 73  1  0  0  0  0
 24 74  1  0  0  0  0
 25 27  1  0  0  0  0
 25 77  1  0  0  0  0
 26 28  1  0  0  0  0
 26 78  1  0  0  0  0
 27 29  1  0  0  0  0
 27 31  2  0  0  0  0
 28 30  1  0  0  0  0
 28 32  2  0  0  0  0
 29 79  1  0  0  0  0
 29 80  1  0  0  0  0
 29 81  1  0  0  0  0
 30 82  1  0  0  0  0
 30 83  1  0  0  0  0
 30 84  1  0  0  0  0
 31 33  1  0  0  0  0
 31 85  1  0  0  0  0
 32 34  1  0  0  0  0
 32 86  1  0  0  0  0
 33 35  2  0  0  0  0
 33 87  1  0  0  0  0
 34 36  2  0  0  0  0
 34 88  1  0  0  0  0
 35 37  1  0  0  0  0
 35 89  1  0  0  0  0
 36 38  1  0  0  0  0
 36 90  1  0  0  0  0
 37 39  1  0  0  0  0
 37 41  2  0  0  0  0
 38 40  1  0  0  0  0
 38 42  2  0  0  0  0
 39 91  1  0  0  0  0
 39 92  1  0  0  0  0
 39 93  1  0  0  0  0
 40 94  1  0  0  0  0
 40 95  1  0  0  0  0
 40 96  1  0  0  0  0
 41 43  1  0  0  0  0
 41 97  1  0  0  0  0
 42 44  1  0  0  0  0
 42 98  1  0  0  0  0
 43 44  2  0  0  0  0
 43 99  1  0  0  0  0
 44100  1  0  0  0  0
M  END
> <PUBCHEM_COMPOUND_CID>
5282218

> <PUBCHEM_COMPOUND_CANONICALIZED>
1

> <PUBCHEM_CACTVS_COMPLEXITY>
1270

> <PUBCHEM_CACTVS_HBOND_ACCEPTOR>
4

> <PUBCHEM_CACTVS_HBOND_DONOR>
2

> <PUBCHEM_CACTVS_ROTATABLE_BOND>
10

> <PUBCHEM_CACTVS_SUBSKEYS>
AAADcfB8OAAAAAAAAAAAAAAAEiQAAAAAAAAwYAAABIkAAAAAAAAAGgAACAAADlSggAICAAAABgCAAiBCAAAAAAAgAAAICAAAAAgIFAIAIQACUAAFwAAIoAPA4PQPgAAAAAAAAABCAAYQADAAAAAAAAAAAA==

> <PUBCHEM_IUPAC_OPENEYE_NAME>
(1R,3S,6S)-6-[(1E,3E,5E,7E,9E,11E,13E,15Z,17E)-18-[(1R,3S,6S)-3-hydroxy-1,5,5-trimethyl-7-oxabicyclo[4.1.0]heptan-6-yl]-3,7,12,16-tetramethyl-octadeca-1,3,5,7,9,11,13,15,17-nonaenyl]-1,5,5-trimethyl-7-oxabicyclo[4.1.0]heptan-3-ol

> <PUBCHEM_IUPAC_CAS_NAME>
(1R,3S,6S)-6-[(1E,3E,5E,7E,9E,11E,13E,15Z,17E)-18-[(1R,3S,6S)-3-hydroxy-1,5,5-trimethyl-7-oxabicyclo[4.1.0]heptan-6-yl]-3,7,12,16-tetramethyloctadeca-1,3,5,7,9,11,13,15,17-nonaenyl]-1,5,5-trimethyl-7-oxabicyclo[4.1.0]heptan-3-ol

> <PUBCHEM_IUPAC_NAME>
(1R,3S,6S)-6-[(1E,3E,5E,7E,9E,11E,13E,15Z,17E)-18-[(1R,3S,6S)-3-hydroxy-1,5,5-trimethyl-7-oxabicyclo[4.1.0]heptan-6-yl]-3,7,12,16-tetramethyloctadeca-1,3,5,7,9,11,13,15,17-nonaenyl]-1,5,5-trimethyl-7-oxabicyclo[4.1.0]heptan-3-ol

> <PUBCHEM_IUPAC_SYSTEMATIC_NAME>
(1R,3S,6S)-1,5,5-trimethyl-6-[(1E,3E,5E,7E,9E,11E,13E,15Z,17E)-3,7,12,16-tetramethyl-18-[(1R,3S,6S)-1,5,5-trimethyl-3-oxidanyl-7-oxabicyclo[4.1.0]heptan-6-yl]octadeca-1,3,5,7,9,11,13,15,17-nonaenyl]-7-oxabicyclo[4.1.0]heptan-3-ol

> <PUBCHEM_IUPAC_TRADITIONAL_NAME>
(1R,3S,6S)-6-[(1E,3E,5E,7E,9E,11E,13E,15Z,17E)-18-[(1R,3S,6S)-3-hydroxy-1,5,5-trimethyl-7-oxabicyclo[4.1.0]heptan-6-yl]-3,7,12,16-tetramethyl-octadeca-1,3,5,7,9,11,13,15,17-nonaenyl]-1,5,5-trimethyl-7-oxabicyclo[4.1.0]heptan-3-ol

> <PUBCHEM_IUPAC_INCHI>
InChI=1S/C40H56O4/c1-29(17-13-19-31(3)21-23-39-35(5,6)25-33(41)27-37(39,9)43-39)15-11-12-16-30(2)18-14-20-32(4)22-24-40-36(7,8)26-34(42)28-38(40,10)44-40/h11-24,33-34,41-42H,25-28H2,1-10H3/b12-11+,17-13+,18-14+,23-21+,24-22+,29-15+,30-16+,31-19-,32-20+/t33-,34-,37+,38+,39-,40-/m0/s1

> <PUBCHEM_IUPAC_INCHIKEY>
SZCBXWMUOPQSOX-NLNQYMAJSA-N

> <PUBCHEM_XLOGP3_AA>
9.8

> <PUBCHEM_EXACT_MASS>
600.41786

> <PUBCHEM_MOLECULAR_FORMULA>
C40H56O4

> <PUBCHEM_MOLECULAR_WEIGHT>
600.87024

> <PUBCHEM_OPENEYE_CAN_SMILES>
CC(=CC=CC=C(C)C=CC=C(C)C=CC12C(CC(CC1(O2)C)O)(C)C)C=CC=C(C)C=CC34C(CC(CC3(O4)C)O)(C)C

> <PUBCHEM_OPENEYE_ISO_SMILES>
C/C(=C\C=C\C=C(/C)\C=C\C=C(\C)/C=C/[C@]12[C@](O1)(C[C@H](CC2(C)C)O)C)/C=C/C=C(\C)/C=C/[C@]34[C@](O3)(C[C@H](CC4(C)C)O)C

> <PUBCHEM_CACTVS_TPSA>
65.5

> <PUBCHEM_MONOISOTOPIC_WEIGHT>
600.41786

> <PUBCHEM_TOTAL_CHARGE>
0

> <PUBCHEM_HEAVY_ATOM_COUNT>
44

> <PUBCHEM_ATOM_DEF_STEREO_COUNT>
6

> <PUBCHEM_ATOM_UDEF_STEREO_COUNT>
0

> <PUBCHEM_BOND_DEF_STEREO_COUNT>
9

> <PUBCHEM_BOND_UDEF_STEREO_COUNT>
0

> <PUBCHEM_ISOTOPIC_ATOM_COUNT>
0

> <PUBCHEM_COMPONENT_COUNT>
1

> <PUBCHEM_CACTVS_TAUTO_COUNT>
1

> <PUBCHEM_COORDINATE_TYPE>
1
5
255

> <PUBCHEM_BONDANNOTATIONS>
15  3  5
16  4  6
5  19  5
6  20  6
7  17  5
8  18  6

$$$$

