   Color/Form
        Colorless microcrystals
   from [1]HSDB

   Melting Point
        217 deg C (decomposes)
   from [2]HSDB

   Dissociation Constants

     * pKa = 8.58
     * pKa1 = 8.64; pKa2 = 9.70
     * pKa1 = 8.55 (phenol); pKa2 = 10.32 (amine); pKa3 = 13.49 (phenol)
       (est)

   from [3]HSDB

   Octanol/Water Partition Coefficient
        log Kow = -1.24
   from [4]HSDB

   Solubilities

     * Slightly soluble in water, ethanol, diethyl ether; very soluble in
       alkali, dilute hydrochloric acid
     * In water, 1X10+6 mg/L /miscible/ (est)

   from [5]HSDB

   Spectral Properties

     * Specific optical rotation: -37.3 deg at 25 deg C/D (c = 5 in water
       with 1 equiv hydrochloric acid)
     * Unstable in light and air, especially at neutral and alkaline pH.
       Oxidation to noradrenochrome occurs in the presence of oxygen and
       such divalent metal ions as copper, manganese, and nickel.
     * Crystals; decomposes at 191 deg C; sparingly soluble in water; very
       slightly soluble in alcohol, ether; readily soluble in dilute
       acids, caustic. /dl-form/
     * MASS: 6578 (NIST/EPA/MSDC Mass Spectral Database 1990 version)
     * UV: 280 H2O pH 7 (HBCP)

   from [6]HSDB

   Vapor Pressure
        7.5X10-8 mm Hg at 25 deg C (est)
   from [7]HSDB

   Other Chemical/Physical Properties

     * Henry's Law constant = 3.2X10-19 atm-cu m/mol at 25 deg C (est)
     * Hydroxyl radical reaction rate constant = 9.5X10-11 cu cm/molec-sec
       at 25 deg C (est)

   from [8]HSDB

   Computed Properties
   Molecular Weight                  169.17784 [g/mol]
   Molecular Formula                 C[8]H[11]NO[3]
   XLogP3                            -1.2
   H-Bond Donor                      4
   H-Bond Acceptor                   4
   Rotatable Bond Count              2
   Tautomer Count                    10
   Exact Mass                        169.073893
   MonoIsotopic Mass                 169.073893
   Topological Polar Surface Area    86.7
   Heavy Atom Count                  12
   Formal Charge                     0
   Complexity                        142
   Isotope Atom Count                0
   Defined Atom Stereocenter Count   1
   Undefined Atom Stereocenter Count 0
   Defined Bond Stereocenter Count   0
   Undefined Bond Stereocenter Count 0
   Covalently-Bonded Unit Count      1
   Feature 3D Acceptor Count         1
   Feature 3D Donor Count            4
   Feature 3D Cation Count           1
   Feature 3D Ring Count             1
   Effective Rotor Count             2
   Conformer Sampling RMSD           0.6
   CID Conformer Count               [9]8

References

   1. http://toxnet.nlm.nih.gov/cgi-bin/sis/search/r?dbs+hsdb:@term+@rn+@rel+51-41-2
   2. http://toxnet.nlm.nih.gov/cgi-bin/sis/search/r?dbs+hsdb:@term+@rn+@rel+51-41-2
   3. http://toxnet.nlm.nih.gov/cgi-bin/sis/search/r?dbs+hsdb:@term+@rn+@rel+51-41-2
   4. http://toxnet.nlm.nih.gov/cgi-bin/sis/search/r?dbs+hsdb:@term+@rn+@rel+51-41-2
   5. http://toxnet.nlm.nih.gov/cgi-bin/sis/search/r?dbs+hsdb:@term+@rn+@rel+51-41-2
   6. http://toxnet.nlm.nih.gov/cgi-bin/sis/search/r?dbs+hsdb:@term+@rn+@rel+51-41-2
   7. http://toxnet.nlm.nih.gov/cgi-bin/sis/search/r?dbs+hsdb:@term+@rn+@rel+51-41-2
   8. http://toxnet.nlm.nih.gov/cgi-bin/sis/search/r?dbs+hsdb:@term+@rn+@rel+51-41-2
   9. http://pubchem.ncbi.nlm.nih.gov/vw3d/vw3d.cgi?cid=439260
