5398
  -OEChem-06261200402D

 60 61  0     1  0  0  0  0  0999 V2000
    7.5982   -1.2010    0.0000 O   0  0  0  0  0  0  0  0  0  0  0  0
    6.7322    2.2990    0.0000 O   0  0  0  0  0  0  0  0  0  0  0  0
    4.7769    0.0330    0.0000 O   0  0  0  0  0  0  0  0  0  0  0  0
    4.7770   -1.9670    0.0000 O   0  0  0  0  0  0  0  0  0  0  0  0
    5.8662    0.7990    0.0000 N   0  0  0  0  0  0  0  0  0  0  0  0
    5.8662   -1.2010    0.0000 N   0  0  0  0  0  0  0  0  0  0  0  0
    4.1341    1.7990    0.0000 N   0  0  0  0  0  0  0  0  0  0  0  0
    3.2681   -0.7010    0.0000 N   0  0  0  0  0  0  0  0  0  0  0  0
    6.7322    0.2990    0.0000 C   0  0  3  0  0  0  0  0  0  0  0  0
    7.5982    0.7990    0.0000 C   0  0  0  0  0  0  0  0  0  0  0  0
    8.4643    0.2990    0.0000 C   0  0  0  0  0  0  0  0  0  0  0  0
    6.7322   -0.7010    0.0000 C   0  0  0  0  0  0  0  0  0  0  0  0
    5.0002    2.2990    0.0000 C   0  0  3  0  0  0  0  0  0  0  0  0
    9.3303    0.7990    0.0000 C   0  0  0  0  0  0  0  0  0  0  0  0
    8.4643   -0.7010    0.0000 C   0  0  0  0  0  0  0  0  0  0  0  0
    5.8662    1.7990    0.0000 C   0  0  0  0  0  0  0  0  0  0  0  0
    5.0002    3.2990    0.0000 C   0  0  0  0  0  0  0  0  0  0  0  0
    5.0002   -0.7010    0.0000 C   0  0  0  0  0  0  0  0  0  0  0  0
    4.1341    0.7990    0.0000 C   0  0  0  0  0  0  0  0  0  0  0  0
    5.8662   -2.2010    0.0000 C   0  0  0  0  0  0  0  0  0  0  0  0
    3.2681    0.2990    0.0000 C   0  0  0  0  0  0  0  0  0  0  0  0
    3.2681    2.2990    0.0000 C   0  0  0  0  0  0  0  0  0  0  0  0
    4.1341   -1.2010    0.0000 C   0  0  0  0  0  0  0  0  0  0  0  0
    4.0002   -0.7010    0.0000 C   0  0  0  0  0  0  0  0  0  0  0  0
    3.5001   -1.5670    0.0000 C   0  0  0  0  0  0  0  0  0  0  0  0
    2.5001   -1.5669    0.0000 C   0  0  0  0  0  0  0  0  0  0  0  0
    3.9999   -2.4330    0.0000 C   0  0  0  0  0  0  0  0  0  0  0  0
    2.0000   -2.4328    0.0000 C   0  0  0  0  0  0  0  0  0  0  0  0
    3.4999   -3.2990    0.0000 C   0  0  0  0  0  0  0  0  0  0  0  0
    2.4998   -3.2989    0.0000 C   0  0  0  0  0  0  0  0  0  0  0  0
    6.7322    0.9190    0.0000 H   0  0  0  0  0  0  0  0  0  0  0  0
    7.9968    1.2740    0.0000 H   0  0  0  0  0  0  0  0  0  0  0  0
    7.1997    1.2740    0.0000 H   0  0  0  0  0  0  0  0  0  0  0  0
    8.4643    0.9190    0.0000 H   0  0  0  0  0  0  0  0  0  0  0  0
    5.4676    0.3241    0.0000 H   0  0  0  0  0  0  0  0  0  0  0  0
    4.4632    2.6090    0.0000 H   0  0  0  0  0  0  0  0  0  0  0  0
    7.8443   -0.7010    0.0000 H   0  0  0  0  0  0  0  0  0  0  0  0
    8.4643   -1.3210    0.0000 H   0  0  0  0  0  0  0  0  0  0  0  0
    9.0843   -0.7010    0.0000 H   0  0  0  0  0  0  0  0  0  0  0  0
    9.6403    0.2621    0.0000 H   0  0  0  0  0  0  0  0  0  0  0  0
    9.8672    1.1090    0.0000 H   0  0  0  0  0  0  0  0  0  0  0  0
    9.0203    1.3359    0.0000 H   0  0  0  0  0  0  0  0  0  0  0  0
    5.6202    3.2990    0.0000 H   0  0  0  0  0  0  0  0  0  0  0  0
    5.0002    3.9190    0.0000 H   0  0  0  0  0  0  0  0  0  0  0  0
    4.3802    3.2990    0.0000 H   0  0  0  0  0  0  0  0  0  0  0  0
    5.2462   -2.2010    0.0000 H   0  0  0  0  0  0  0  0  0  0  0  0
    5.8662   -2.8210    0.0000 H   0  0  0  0  0  0  0  0  0  0  0  0
    6.4862   -2.2010    0.0000 H   0  0  0  0  0  0  0  0  0  0  0  0
    3.0561    0.8816    0.0000 H   0  0  0  0  0  0  0  0  0  0  0  0
    2.6575    0.1913    0.0000 H   0  0  0  0  0  0  0  0  0  0  0  0
    3.5781    2.8359    0.0000 H   0  0  0  0  0  0  0  0  0  0  0  0
    2.7312    2.6090    0.0000 H   0  0  0  0  0  0  0  0  0  0  0  0
    2.9581    1.7621    0.0000 H   0  0  0  0  0  0  0  0  0  0  0  0
    2.7312   -1.0110    0.0000 H   0  0  0  0  0  0  0  0  0  0  0  0
    3.6902   -0.1640    0.0000 H   0  0  0  0  0  0  0  0  0  0  0  0
    2.1902   -1.0299    0.0000 H   0  0  0  0  0  0  0  0  0  0  0  0
    4.6199   -2.4331    0.0000 H   0  0  0  0  0  0  0  0  0  0  0  0
    1.3800   -2.4327    0.0000 H   0  0  0  0  0  0  0  0  0  0  0  0
    3.8098   -3.8360    0.0000 H   0  0  0  0  0  0  0  0  0  0  0  0
    2.1898   -3.8358    0.0000 H   0  0  0  0  0  0  0  0  0  0  0  0
  1 12  2  0  0  0  0
  2 16  2  0  0  0  0
  3 19  2  0  0  0  0
  4 23  2  0  0  0  0
  5  9  1  0  0  0  0
  5 16  1  0  0  0  0
  5 35  1  0  0  0  0
  6 12  1  0  0  0  0
  6 18  1  0  0  0  0
  6 20  1  0  0  0  0
  7 13  1  0  0  0  0
  7 19  1  0  0  0  0
  7 22  1  0  0  0  0
  8 21  1  0  0  0  0
  8 23  1  0  0  0  0
  8 54  1  0  0  0  0
  9 10  1  0  0  0  0
  9 12  1  0  0  0  0
  9 31  1  0  0  0  0
 10 11  1  0  0  0  0
 10 32  1  0  0  0  0
 10 33  1  0  0  0  0
 11 14  1  0  0  0  0
 11 15  1  0  0  0  0
 11 34  1  0  0  0  0
 13 16  1  0  0  0  0
 13 17  1  0  0  0  0
 13 36  1  0  0  0  0
 14 40  1  0  0  0  0
 14 41  1  0  0  0  0
 14 42  1  0  0  0  0
 15 37  1  0  0  0  0
 15 38  1  0  0  0  0
 15 39  1  0  0  0  0
 17 43  1  0  0  0  0
 17 44  1  0  0  0  0
 17 45  1  0  0  0  0
 18 23  1  0  0  0  0
 18 24  2  3  0  0  0
 19 21  1  0  0  0  0
 20 46  1  0  0  0  0
 20 47  1  0  0  0  0
 20 48  1  0  0  0  0
 21 49  1  0  0  0  0
 21 50  1  0  0  0  0
 22 51  1  0  0  0  0
 22 52  1  0  0  0  0
 22 53  1  0  0  0  0
 24 25  1  0  0  0  0
 24 55  1  0  0  0  0
 25 26  2  0  0  0  0
 25 27  1  0  0  0  0
 26 28  1  0  0  0  0
 26 56  1  0  0  0  0
 27 29  2  0  0  0  0
 27 57  1  0  0  0  0
 28 30  2  0  0  0  0
 28 58  1  0  0  0  0
 29 30  1  0  0  0  0
 29 59  1  0  0  0  0
 30 60  1  0  0  0  0
M  END
> <PUBCHEM_COMPOUND_CID>
5398

> <PUBCHEM_COMPOUND_CANONICALIZED>
1

> <PUBCHEM_CACTVS_COMPLEXITY>
697

> <PUBCHEM_CACTVS_HBOND_ACCEPTOR>
4

> <PUBCHEM_CACTVS_HBOND_DONOR>
2

> <PUBCHEM_CACTVS_ROTATABLE_BOND>
3

> <PUBCHEM_CACTVS_SUBSKEYS>
AAADceB7uAAAAAAAAAAAAAAAAAAAAAAAAAAwAAAAAAAAAAABAAAAHgAQAAAADSjBmAQyAIPAAACIAiVSUACCAAAgAgAIiIGIAMgIYDKAkTCUIAAglgCIiYcYgAAOAAAAAAAAAAAAAAAAAAAAAAAAAAAAAA==

> <PUBCHEM_IUPAC_OPENEYE_NAME>
12-benzylidene-3-isobutyl-1,6,7-trimethyl-1,4,7,10-tetrazacyclododecane-2,5,8,11-tetrone

> <PUBCHEM_IUPAC_CAS_NAME>
1,6,7-trimethyl-3-(2-methylpropyl)-12-(phenylmethylene)-1,4,7,10-tetrazacyclododecane-2,5,8,11-tetrone

> <PUBCHEM_IUPAC_NAME>
12-benzylidene-1,6,7-trimethyl-3-(2-methylpropyl)-1,4,7,10-tetrazacyclododecane-2,5,8,11-tetrone

> <PUBCHEM_IUPAC_SYSTEMATIC_NAME>
1,6,7-trimethyl-3-(2-methylpropyl)-12-(phenylmethylidene)-1,4,7,10-tetrazacyclododecane-2,5,8,11-tetrone

> <PUBCHEM_IUPAC_TRADITIONAL_NAME>
12-benzal-3-isobutyl-1,6,7-trimethyl-1,4,7,10-tetrazacyclododecane-2,5,8,11-diquinone

> <PUBCHEM_IUPAC_INCHI>
InChI=1S/C22H30N4O4/c1-14(2)11-17-22(30)26(5)18(12-16-9-7-6-8-10-16)21(29)23-13-19(27)25(4)15(3)20(28)24-17/h6-10,12,14-15,17H,11,13H2,1-5H3,(H,23,29)(H,24,28)

> <PUBCHEM_IUPAC_INCHIKEY>
SIIRBDOFKDACOK-UHFFFAOYSA-N

> <PUBCHEM_XLOGP3_AA>
2

> <PUBCHEM_EXACT_MASS>
414.226705

> <PUBCHEM_MOLECULAR_FORMULA>
C22H30N4O4

> <PUBCHEM_MOLECULAR_WEIGHT>
414.498

> <PUBCHEM_OPENEYE_CAN_SMILES>
CC1C(=O)NC(C(=O)N(C(=CC2=CC=CC=C2)C(=O)NCC(=O)N1C)C)CC(C)C

> <PUBCHEM_OPENEYE_ISO_SMILES>
CC1C(=O)NC(C(=O)N(C(=CC2=CC=CC=C2)C(=O)NCC(=O)N1C)C)CC(C)C

> <PUBCHEM_CACTVS_TPSA>
98.8

> <PUBCHEM_MONOISOTOPIC_WEIGHT>
414.226705

> <PUBCHEM_TOTAL_CHARGE>
0

> <PUBCHEM_HEAVY_ATOM_COUNT>
30

> <PUBCHEM_ATOM_DEF_STEREO_COUNT>
0

> <PUBCHEM_ATOM_UDEF_STEREO_COUNT>
2

> <PUBCHEM_BOND_DEF_STEREO_COUNT>
0

> <PUBCHEM_BOND_UDEF_STEREO_COUNT>
1

> <PUBCHEM_ISOTOPIC_ATOM_COUNT>
0

> <PUBCHEM_COMPONENT_COUNT>
1

> <PUBCHEM_CACTVS_TAUTO_COUNT>
36

> <PUBCHEM_COORDINATE_TYPE>
1
5
255

> <PUBCHEM_BONDANNOTATIONS>
13  17  3
18  24  1
25  26  8
25  27  8
26  28  8
27  29  8
28  30  8
29  30  8
9  10  3

$$$$

