   Color/Form
        Colorless gas [Note: Shipped as a nonliquefied or liquefied
   compressed gas].
   from [1]HSDB

   Odor
        Odorless
   from [2]HSDB

   Taste
        Tasteless
   from [3]HSDB

   Boiling Point
        -191.5 deg C
   from [4]HSDB

   Melting Point
        -205.02 deg C
   from [5]HSDB

   Critical Temperature and Pressure
        Critical Pressure: 35 Atmospheres; Critical Temperature: -139 deg
   C
   from [6]HSDB

   Density/Specific Gravity
        1.250 g/L at 0 deg C/4 deg C
   from [7]HSDB

   Heat of Combustion
        -4.343 BTU/lb = -2,412 cal/g = -101X10+5 joules/kg
   from [8]HSDB

   Heat of Vaporization
        Latent: 92.8 BTU/lb = 51.6 cal/g = 2.16X10+5 joules/kg
   from [9]HSDB

   Solubilities

     * Soluble in benzene
     * Freely absorbed by a concentrated solution of cuprous chloride in
       hydrochloric acid or ammonium hydroxide; Appreciably soluble in
       some organic solvents, such as ethyl acetate, chloroform, acetic
       acid; solubility in methanol and ethanol about 7 times as great as
       in water.
     * Sparingly soluble in water: 3.3 ml/100 ml at 0 deg C, 2.3 ml/100 ml
       at 20 deg C

   from [10]HSDB

   Spectral Properties
        Refractive index of gas = 1.0003364 at 273 K and 546.1 nm
   from [11]HSDB

   Surface Tension
        9.8 mN/m (of the liquid at 80 K)
   from [12]HSDB

   Vapor Density
        0.968 (Air = 1)
   from [13]HSDB

   Vapor Pressure
        1.55X10+8 mm Hg at 25 deg C
   from [14]HSDB

   Viscosity
        Viscosity gas at 273 K = 16.62 uN s/sq m
   from [15]HSDB

   Other Chemical/Physical Properties

     * Decomposes into carbon and carbon dioxide at 400-700 deg C, at
       lower temperatures when in contact with catalytic surfaces
     * Burns in air with bright blue flame; top pressure: 1500 psi; heat
       capacity at 20 deg C: 6.95 Cal/mole/deg C; heat value/cu m: 3033
       kcal; heat of formation: -26.39 Kcal/mol; above 800 deg C
       equilibrium reaction favors carbon monoxide formation; hopcalite (a
       mixture of the oxides of manganese and copper) catalyzes
       decomposition at room temp, as does palladium on silica gel
     * Specific vol: 13.8 cu ft/lb at 70 deg F
     * Triple point temp = 68.15 K at 15.35 kPa
     * Phase transition point = 61.55 K at 3.75 kPa
     * Density at critical point = 301.0 kg/cu m
     * Density of liquid = 788.6 kg/cu m at 81.63 K
     * Density of solid, hexagonal = 929 kg/cu m at 65 K
     * Heat capacity of gas at 298 K and 101.33 kPa; Cp = 29.142 J/mol-K,
       Cv = 20.769 J/mol-K
     * Heat capacity of the liquid = 60.351 J/mol-K at 76 K
     * Heat of vaporization = 6.042 kJ/mol at 81.63 K
     * Heat of fusion at triple point = 837.3 J/mol
     * Heat of sublimation at triple point = 7.366 kJ/mol
     * Heat of transition = 632.11 J/mol
     * Free energy of formation of gas at 298 K = -137.381 kJ/mol
     * Enthalpy of formation of gas = -110.63 kJ/mol
     * Entropy of gas = 197.89 J/mol-K at 298 K and 101.33 kPa
     * Thermal conductivity of gas (STP) = 23.15 mW/m-K
     * Thermal conductivity of liquid = 0.1428 W/m-K at 80 K
     * Dielectric constant of gas = 1.000634 at 298 K and 101.33 kPa
     * Electric conductivity of liquid = 9.43X10-19 S/m at 85 K
     * Henry's Law constant = 1.04 atm-cu m/mol at 25 deg C (reported as
       57978.5 atm/mol fraction)
     * Hydroxyl radical reaction rate constant = 2.4X10-13 cu cm/molec-sec
       at 25 deg C (est)

   from [16]HSDB

   Computed Properties
   Molecular Weight                  28.0101 [g/mol]
   Molecular Formula                 CO
   XLogP3-AA                         0.7
   H-Bond Donor                      0
   H-Bond Acceptor                   1
   Rotatable Bond Count              0
   Exact Mass                        27.994915
   MonoIsotopic Mass                 27.994915
   Topological Polar Surface Area    1
   Heavy Atom Count                  2
   Formal Charge                     0
   Complexity                        10
   Isotope Atom Count                0
   Defined Atom Stereocenter Count   0
   Undefined Atom Stereocenter Count 0
   Defined Bond Stereocenter Count   0
   Undefined Bond Stereocenter Count 0
   Covalently-Bonded Unit Count      1
   Effective Rotor Count             0
   Conformer Sampling RMSD           0.4
   CID Conformer Count               [17]1

References

   1. http://toxnet.nlm.nih.gov/cgi-bin/sis/search/r?dbs+hsdb:@term+@rn+@rel+630-08-0
   2. http://toxnet.nlm.nih.gov/cgi-bin/sis/search/r?dbs+hsdb:@term+@rn+@rel+630-08-0
   3. http://toxnet.nlm.nih.gov/cgi-bin/sis/search/r?dbs+hsdb:@term+@rn+@rel+630-08-0
   4. http://toxnet.nlm.nih.gov/cgi-bin/sis/search/r?dbs+hsdb:@term+@rn+@rel+630-08-0
   5. http://toxnet.nlm.nih.gov/cgi-bin/sis/search/r?dbs+hsdb:@term+@rn+@rel+630-08-0
   6. http://toxnet.nlm.nih.gov/cgi-bin/sis/search/r?dbs+hsdb:@term+@rn+@rel+630-08-0
   7. http://toxnet.nlm.nih.gov/cgi-bin/sis/search/r?dbs+hsdb:@term+@rn+@rel+630-08-0
   8. http://toxnet.nlm.nih.gov/cgi-bin/sis/search/r?dbs+hsdb:@term+@rn+@rel+630-08-0
   9. http://toxnet.nlm.nih.gov/cgi-bin/sis/search/r?dbs+hsdb:@term+@rn+@rel+630-08-0
  10. http://toxnet.nlm.nih.gov/cgi-bin/sis/search/r?dbs+hsdb:@term+@rn+@rel+630-08-0
  11. http://toxnet.nlm.nih.gov/cgi-bin/sis/search/r?dbs+hsdb:@term+@rn+@rel+630-08-0
  12. http://toxnet.nlm.nih.gov/cgi-bin/sis/search/r?dbs+hsdb:@term+@rn+@rel+630-08-0
  13. http://toxnet.nlm.nih.gov/cgi-bin/sis/search/r?dbs+hsdb:@term+@rn+@rel+630-08-0
  14. http://toxnet.nlm.nih.gov/cgi-bin/sis/search/r?dbs+hsdb:@term+@rn+@rel+630-08-0
  15. http://toxnet.nlm.nih.gov/cgi-bin/sis/search/r?dbs+hsdb:@term+@rn+@rel+630-08-0
  16. http://toxnet.nlm.nih.gov/cgi-bin/sis/search/r?dbs+hsdb:@term+@rn+@rel+630-08-0
  17. http://pubchem.ncbi.nlm.nih.gov/vw3d/vw3d.cgi?cid=281
