5280497
  -OEChem-07051212462D

 57 58  0     1  0  0  0  0  0999 V2000
    6.3371    5.0136    0.0000 O   0  0  0  0  0  0  0  0  0  0  0  0
    8.2035    3.2231    0.0000 O   0  0  0  0  0  0  0  0  0  0  0  0
   10.9061    0.7286    0.0000 O   0  0  0  0  0  0  0  0  0  0  0  0
    7.8412   -4.4071    0.0000 O   0  0  0  0  0  0  0  0  0  0  0  0
    6.1470   -4.0470    0.0000 O   0  0  0  0  0  0  0  0  0  0  0  0
    5.8593    3.0650    0.0000 C   0  0  2  0  0  0  0  0  0  0  0  0
    7.3945    1.8219    0.0000 C   0  0  1  0  0  0  0  0  0  0  0  0
    4.0274    2.8239    0.0000 C   0  0  0  0  0  0  0  0  0  0  0  0
    5.6005    4.0310    0.0000 C   0  0  1  0  0  0  0  0  0  0  0  0
    8.3080    2.2286    0.0000 C   0  0  1  0  0  0  0  0  0  0  0  0
    7.1866    0.8437    0.0000 C   0  0  0  0  0  0  0  0  0  0  0  0
    9.1740    1.7286    0.0000 C   0  0  0  0  0  0  0  0  0  0  0  0
    6.2355    0.5347    0.0000 C   0  0  0  0  0  0  0  0  0  0  0  0
   10.0401    2.2286    0.0000 C   0  0  0  0  0  0  0  0  0  0  0  0
   10.9061    1.7286    0.0000 C   0  0  2  0  0  0  0  0  0  0  0  0
    6.0276   -0.4434    0.0000 C   0  0  0  0  0  0  0  0  0  0  0  0
   11.7721    2.2286    0.0000 C   0  0  0  0  0  0  0  0  0  0  0  0
    6.7707   -1.1126    0.0000 C   0  0  0  0  0  0  0  0  0  0  0  0
   12.6381    1.7286    0.0000 C   0  0  0  0  0  0  0  0  0  0  0  0
   13.5042    2.2286    0.0000 C   0  0  0  0  0  0  0  0  0  0  0  0
    6.5628   -2.0907    0.0000 C   0  0  0  0  0  0  0  0  0  0  0  0
   14.3702    1.7286    0.0000 C   0  0  0  0  0  0  0  0  0  0  0  0
    7.3060   -2.7598    0.0000 C   0  0  0  0  0  0  0  0  0  0  0  0
   15.2362    2.2286    0.0000 C   0  0  0  0  0  0  0  0  0  0  0  0
    7.0980   -3.7380    0.0000 C   0  0  0  0  0  0  0  0  0  0  0  0
    6.0793    2.2440    0.0000 H   0  0  0  0  0  0  0  0  0  0  0  0
    7.8763    1.4317    0.0000 H   0  0  0  0  0  0  0  0  0  0  0  0
    3.8932    2.2185    0.0000 H   0  0  0  0  0  0  0  0  0  0  0  0
    3.5044    3.1570    0.0000 H   0  0  0  0  0  0  0  0  0  0  0  0
    5.3805    4.8520    0.0000 H   0  0  0  0  0  0  0  0  0  0  0  0
    8.8280    2.5663    0.0000 H   0  0  0  0  0  0  0  0  0  0  0  0
    7.8062    0.8221    0.0000 H   0  0  0  0  0  0  0  0  0  0  0  0
    7.2728    0.2298    0.0000 H   0  0  0  0  0  0  0  0  0  0  0  0
    9.1740    1.1086    0.0000 H   0  0  0  0  0  0  0  0  0  0  0  0
    5.7748    0.9496    0.0000 H   0  0  0  0  0  0  0  0  0  0  0  0
   10.0401    2.8486    0.0000 H   0  0  0  0  0  0  0  0  0  0  0  0
   10.3691    1.4186    0.0000 H   0  0  0  0  0  0  0  0  0  0  0  0
    5.4379   -0.6350    0.0000 H   0  0  0  0  0  0  0  0  0  0  0  0
   11.3736    2.7036    0.0000 H   0  0  0  0  0  0  0  0  0  0  0  0
   12.1706    2.7036    0.0000 H   0  0  0  0  0  0  0  0  0  0  0  0
    7.0993   -0.5868    0.0000 H   0  0  0  0  0  0  0  0  0  0  0  0
    7.3456   -1.3448    0.0000 H   0  0  0  0  0  0  0  0  0  0  0  0
   13.0367    1.2537    0.0000 H   0  0  0  0  0  0  0  0  0  0  0  0
   12.2396    1.2537    0.0000 H   0  0  0  0  0  0  0  0  0  0  0  0
   13.1056    2.7036    0.0000 H   0  0  0  0  0  0  0  0  0  0  0  0
   13.9027    2.7036    0.0000 H   0  0  0  0  0  0  0  0  0  0  0  0
    6.2343   -2.6165    0.0000 H   0  0  0  0  0  0  0  0  0  0  0  0
    5.9880   -1.8584    0.0000 H   0  0  0  0  0  0  0  0  0  0  0  0
   11.4430    0.4186    0.0000 H   0  0  0  0  0  0  0  0  0  0  0  0
   14.7687    1.2537    0.0000 H   0  0  0  0  0  0  0  0  0  0  0  0
   13.9717    1.2537    0.0000 H   0  0  0  0  0  0  0  0  0  0  0  0
    7.6345   -2.2340    0.0000 H   0  0  0  0  0  0  0  0  0  0  0  0
    7.8808   -2.9921    0.0000 H   0  0  0  0  0  0  0  0  0  0  0  0
   14.9262    2.7656    0.0000 H   0  0  0  0  0  0  0  0  0  0  0  0
   15.7731    2.5386    0.0000 H   0  0  0  0  0  0  0  0  0  0  0  0
   15.5462    1.6917    0.0000 H   0  0  0  0  0  0  0  0  0  0  0  0
    7.7123   -5.0136    0.0000 H   0  0  0  0  0  0  0  0  0  0  0  0
  1  6  1  0  0  0  0
  1  9  1  0  0  0  0
  2  9  1  0  0  0  0
  2 10  1  0  0  0  0
 15  3  1  6  0  0  0
  3 49  1  0  0  0  0
  4 25  1  0  0  0  0
  4 57  1  0  0  0  0
  5 25  2  0  0  0  0
  6  7  1  0  0  0  0
  6  8  1  0  0  0  0
  6 26  1  1  0  0  0
  7 10  1  0  0  0  0
  7 11  1  1  0  0  0
  7 27  1  0  0  0  0
  8  9  1  0  0  0  0
  8 28  1  0  0  0  0
  8 29  1  0  0  0  0
  9 30  1  6  0  0  0
 10 12  1  6  0  0  0
 10 31  1  0  0  0  0
 11 13  1  0  0  0  0
 11 32  1  0  0  0  0
 11 33  1  0  0  0  0
 12 14  2  0  0  0  0
 12 34  1  0  0  0  0
 13 16  2  0  0  0  0
 13 35  1  0  0  0  0
 14 15  1  0  0  0  0
 14 36  1  0  0  0  0
 15 17  1  0  0  0  0
 15 37  1  0  0  0  0
 16 18  1  0  0  0  0
 16 38  1  0  0  0  0
 17 19  1  0  0  0  0
 17 39  1  0  0  0  0
 17 40  1  0  0  0  0
 18 21  1  0  0  0  0
 18 41  1  0  0  0  0
 18 42  1  0  0  0  0
 19 20  1  0  0  0  0
 19 43  1  0  0  0  0
 19 44  1  0  0  0  0
 20 22  1  0  0  0  0
 20 45  1  0  0  0  0
 20 46  1  0  0  0  0
 21 23  1  0  0  0  0
 21 47  1  0  0  0  0
 21 48  1  0  0  0  0
 22 24  1  0  0  0  0
 22 50  1  0  0  0  0
 22 51  1  0  0  0  0
 23 25  1  0  0  0  0
 23 52  1  0  0  0  0
 23 53  1  0  0  0  0
 24 54  1  0  0  0  0
 24 55  1  0  0  0  0
 24 56  1  0  0  0  0
M  END
> <PUBCHEM_COMPOUND_CID>
5280497

> <PUBCHEM_COMPOUND_CANONICALIZED>
1

> <PUBCHEM_CACTVS_COMPLEXITY>
459

> <PUBCHEM_CACTVS_HBOND_ACCEPTOR>
5

> <PUBCHEM_CACTVS_HBOND_DONOR>
2

> <PUBCHEM_CACTVS_ROTATABLE_BOND>
12

> <PUBCHEM_CACTVS_SUBSKEYS>
AAADcfB4OAAAAAAAAAAAAAAAAABIAAAAAAAkSAAAAAAAAAAAAAAAGgAACAAADRSwgAMCCAAABgCIACDSCAAAAAAgAAAICAEAAAgQFBIAIQAiUAAFgAAMMAOI4AQOAAAAAAAAAAAAAAAAAAAAAAAAAAAAAA==

> <PUBCHEM_IUPAC_OPENEYE_NAME>
(Z)-7-[(1S,2S,3R,5S)-3-[(E,3S)-3-hydroxyoct-1-enyl]-4,6-dioxabicyclo[3.1.1]heptan-2-yl]hept-5-enoic acid

> <PUBCHEM_IUPAC_CAS_NAME>
(Z)-7-[(1S,2S,3R,5S)-3-[(E,3S)-3-hydroxyoct-1-enyl]-4,6-dioxabicyclo[3.1.1]heptan-2-yl]-5-heptenoic acid

> <PUBCHEM_IUPAC_NAME>
(Z)-7-[(1S,2S,3R,5S)-3-[(E,3S)-3-hydroxyoct-1-enyl]-4,6-dioxabicyclo[3.1.1]heptan-2-yl]hept-5-enoic acid

> <PUBCHEM_IUPAC_SYSTEMATIC_NAME>
(Z)-7-[(1S,2S,3R,5S)-3-[(E,3S)-3-oxidanyloct-1-enyl]-4,6-dioxabicyclo[3.1.1]heptan-2-yl]hept-5-enoic acid

> <PUBCHEM_IUPAC_TRADITIONAL_NAME>
(Z)-7-[(1S,2S,3R,5S)-3-[(E,3S)-3-hydroxyoct-1-enyl]-4,6-dioxabicyclo[3.1.1]heptan-2-yl]hept-5-enoic acid

> <PUBCHEM_IUPAC_INCHI>
InChI=1S/C20H32O5/c1-2-3-6-9-15(21)12-13-17-16(18-14-20(24-17)25-18)10-7-4-5-8-11-19(22)23/h4,7,12-13,15-18,20-21H,2-3,5-6,8-11,14H2,1H3,(H,22,23)/b7-4-,13-12+/t15-,16+,17+,18-,20+/m0/s1

> <PUBCHEM_IUPAC_INCHIKEY>
DSNBHJFQCNUKMA-SCKDECHMSA-N

> <PUBCHEM_XLOGP3_AA>
3.4

> <PUBCHEM_EXACT_MASS>
352.224974

> <PUBCHEM_MOLECULAR_FORMULA>
C20H32O5

> <PUBCHEM_MOLECULAR_WEIGHT>
352.46508

> <PUBCHEM_OPENEYE_CAN_SMILES>
CCCCCC(C=CC1C(C2CC(O2)O1)CC=CCCCC(=O)O)O

> <PUBCHEM_OPENEYE_ISO_SMILES>
CCCCC[C@@H](/C=C/[C@@H]1[C@H]([C@@H]2C[C@@H](O2)O1)C/C=C\CCCC(=O)O)O

> <PUBCHEM_CACTVS_TPSA>
76

> <PUBCHEM_MONOISOTOPIC_WEIGHT>
352.224974

> <PUBCHEM_TOTAL_CHARGE>
0

> <PUBCHEM_HEAVY_ATOM_COUNT>
25

> <PUBCHEM_ATOM_DEF_STEREO_COUNT>
5

> <PUBCHEM_ATOM_UDEF_STEREO_COUNT>
0

> <PUBCHEM_BOND_DEF_STEREO_COUNT>
2

> <PUBCHEM_BOND_UDEF_STEREO_COUNT>
0

> <PUBCHEM_ISOTOPIC_ATOM_COUNT>
0

> <PUBCHEM_COMPONENT_COUNT>
1

> <PUBCHEM_CACTVS_TAUTO_COUNT>
1

> <PUBCHEM_COORDINATE_TYPE>
1
5
255

> <PUBCHEM_BONDANNOTATIONS>
10  12  6
15  3  6
6  26  5
7  11  5
9  30  6

$$$$

