442306
  -OEChem-07051212572D

 47 49  0     1  0  0  0  0  0999 V2000
    7.2806    1.1756    0.0000 O   0  0  0  0  0  0  0  0  0  0  0  0
    3.7230    0.2340    0.0000 O   0  0  0  0  0  0  0  0  0  0  0  0
    4.8930   -1.3693    0.0000 O   0  0  0  0  0  0  0  0  0  0  0  0
    7.8718    2.8947    0.0000 O   0  0  0  0  0  0  0  0  0  0  0  0
    2.0000    0.6662    0.0000 O   0  0  0  0  0  0  0  0  0  0  0  0
    6.0922   -2.6191    0.0000 O   0  0  0  0  0  0  0  0  0  0  0  0
    5.4786    0.3078    0.0000 C   0  0  2  0  0  0  0  0  0  0  0  0
    6.3796    0.7417    0.0000 C   0  0  1  0  0  0  0  0  0  0  0  0
    4.5777    0.7417    0.0000 C   0  0  1  0  0  0  0  0  0  0  0  0
    5.6146   -0.6769    0.0000 C   0  0  2  0  0  0  0  0  0  0  0  0
    6.6021    1.7166    0.0000 C   0  0  2  0  0  0  0  0  0  0  0  0
    7.0647    0.0214    0.0000 C   0  0  0  0  0  0  0  0  0  0  0  0
    6.5929   -0.8536    0.0000 C   0  0  0  0  0  0  0  0  0  0  0  0
    4.3551    1.7166    0.0000 C   0  0  1  0  0  0  0  0  0  0  0  0
    5.9786    2.4984    0.0000 C   0  0  0  0  0  0  0  0  0  0  0  0
    4.5777   -0.1261    0.0000 C   0  0  0  0  0  0  0  0  0  0  0  0
    4.9786    2.4984    0.0000 C   0  0  0  0  0  0  0  0  0  0  0  0
    7.5770    1.9391    0.0000 C   0  0  0  0  0  0  0  0  0  0  0  0
    3.3648    1.8031    0.0000 C   0  0  0  0  0  0  0  0  0  0  0  0
    2.9749    0.8887    0.0000 C   0  0  0  0  0  0  0  0  0  0  0  0
    2.8504    2.6607    0.0000 C   0  0  0  0  0  0  0  0  0  0  0  0
    5.1318   -2.3403    0.0000 C   0  0  0  0  0  0  0  0  0  0  0  0
    4.4102   -3.0326    0.0000 C   0  0  0  0  0  0  0  0  0  0  0  0
    4.6147   -0.1075    0.0000 H   0  0  0  0  0  0  0  0  0  0  0  0
    5.0290   -0.4734    0.0000 H   0  0  0  0  0  0  0  0  0  0  0  0
    6.8069    2.3018    0.0000 H   0  0  0  0  0  0  0  0  0  0  0  0
    7.5765   -0.3286    0.0000 H   0  0  0  0  0  0  0  0  0  0  0  0
    7.4666    0.4935    0.0000 H   0  0  0  0  0  0  0  0  0  0  0  0
    6.4192   -1.4488    0.0000 H   0  0  0  0  0  0  0  0  0  0  0  0
    7.1665   -1.0889    0.0000 H   0  0  0  0  0  0  0  0  0  0  0  0
    4.0200    2.4978    0.0000 H   0  0  0  0  0  0  0  0  0  0  0  0
    6.5372    2.7674    0.0000 H   0  0  0  0  0  0  0  0  0  0  0  0
    5.8407    3.1029    0.0000 H   0  0  0  0  0  0  0  0  0  0  0  0
    4.3086    0.4325    0.0000 H   0  0  0  0  0  0  0  0  0  0  0  0
    4.0191   -0.3951    0.0000 H   0  0  0  0  0  0  0  0  0  0  0  0
    4.8467   -0.6847    0.0000 H   0  0  0  0  0  0  0  0  0  0  0  0
    5.1166    3.1029    0.0000 H   0  0  0  0  0  0  0  0  0  0  0  0
    4.4200    2.7674    0.0000 H   0  0  0  0  0  0  0  0  0  0  0  0
    7.6080    1.3199    0.0000 H   0  0  0  0  0  0  0  0  0  0  0  0
    8.1922    1.8620    0.0000 H   0  0  0  0  0  0  0  0  0  0  0  0
    7.7928    0.8263    0.0000 H   0  0  0  0  0  0  0  0  0  0  0  0
    3.1514    3.2027    0.0000 H   0  0  0  0  0  0  0  0  0  0  0  0
    2.2305    2.6504    0.0000 H   0  0  0  0  0  0  0  0  0  0  0  0
    8.4763    3.0326    0.0000 H   0  0  0  0  0  0  0  0  0  0  0  0
    3.9810   -2.5853    0.0000 H   0  0  0  0  0  0  0  0  0  0  0  0
    3.9628   -3.4619    0.0000 H   0  0  0  0  0  0  0  0  0  0  0  0
    4.8394   -3.4800    0.0000 H   0  0  0  0  0  0  0  0  0  0  0  0
  8  1  1  1  0  0  0
  1 41  1  0  0  0  0
  2  9  1  0  0  0  0
  2 20  1  0  0  0  0
 10  3  1  6  0  0  0
  3 22  1  0  0  0  0
  4 18  1  0  0  0  0
  4 44  1  0  0  0  0
  5 20  2  0  0  0  0
  6 22  2  0  0  0  0
  7  8  1  0  0  0  0
  7  9  1  0  0  0  0
  7 10  1  0  0  0  0
  7 16  1  6  0  0  0
  8 11  1  0  0  0  0
  8 12  1  0  0  0  0
  9 14  1  0  0  0  0
  9 24  1  1  0  0  0
 10 13  1  0  0  0  0
 10 25  1  0  0  0  0
 11 15  1  0  0  0  0
 11 18  1  6  0  0  0
 11 26  1  0  0  0  0
 12 13  1  0  0  0  0
 12 27  1  0  0  0  0
 12 28  1  0  0  0  0
 13 29  1  0  0  0  0
 13 30  1  0  0  0  0
 14 17  1  0  0  0  0
 14 19  1  0  0  0  0
 14 31  1  1  0  0  0
 15 17  1  0  0  0  0
 15 32  1  0  0  0  0
 15 33  1  0  0  0  0
 16 34  1  0  0  0  0
 16 35  1  0  0  0  0
 16 36  1  0  0  0  0
 17 37  1  0  0  0  0
 17 38  1  0  0  0  0
 18 39  1  0  0  0  0
 18 40  1  0  0  0  0
 19 20  1  0  0  0  0
 19 21  2  0  0  0  0
 21 42  1  0  0  0  0
 21 43  1  0  0  0  0
 22 23  1  0  0  0  0
 23 45  1  0  0  0  0
 23 46  1  0  0  0  0
 23 47  1  0  0  0  0
M  END
> <PUBCHEM_COMPOUND_CID>
442306

> <PUBCHEM_COMPOUND_CANONICALIZED>
1

> <PUBCHEM_CACTVS_COMPLEXITY>
557

> <PUBCHEM_CACTVS_HBOND_ACCEPTOR>
6

> <PUBCHEM_CACTVS_HBOND_DONOR>
2

> <PUBCHEM_CACTVS_ROTATABLE_BOND>
3

> <PUBCHEM_CACTVS_SUBSKEYS>
AAADceB4OAAAAAAAAAAAAAAAAAAAAaIAAAAAAAAABgAAAADQAAAAGgAACAAAD1SggAICCAAABgCIAgDSCAAAAAAgAAAAAAEAAEgAFBIAIQACQAAFwAAAIIHK6PyPgAAAAAAAAAAAAAAAAAAAAIQADAAAAA==

> <PUBCHEM_IUPAC_OPENEYE_NAME>
[(3aS,6R,6aR,9S,9aS,9bR)-6a-hydroxy-6-(hydroxymethyl)-9a-methyl-3-methylene-2-oxo-3a,4,5,6,7,8,9,9b-octahydroazuleno[8,7-b]furan-9-yl] acetate

> <PUBCHEM_IUPAC_CAS_NAME>
acetic acid [(3aS,6R,6aR,9S,9aS,9bR)-6a-hydroxy-6-(hydroxymethyl)-9a-methyl-3-methylene-2-oxo-3a,4,5,6,7,8,9,9b-octahydroazuleno[8,7-b]furan-9-yl] ester

> <PUBCHEM_IUPAC_NAME>
[(3aS,6R,6aR,9S,9aS,9bR)-6a-hydroxy-6-(hydroxymethyl)-9a-methyl-3-methylidene-2-oxo-3a,4,5,6,7,8,9,9b-octahydroazuleno[8,7-b]furan-9-yl] acetate

> <PUBCHEM_IUPAC_SYSTEMATIC_NAME>
[(3aS,6R,6aR,9S,9aS,9bR)-6-(hydroxymethyl)-9a-methyl-3-methylidene-6a-oxidanyl-2-oxidanylidene-3a,4,5,6,7,8,9,9b-octahydroazuleno[8,7-b]furan-9-yl] ethanoate

> <PUBCHEM_IUPAC_TRADITIONAL_NAME>
acetic acid [(3aS,6R,6aR,9S,9aS,9bR)-6a-hydroxy-2-keto-9a-methyl-3-methylene-6-methylol-3a,4,5,6,7,8,9,9b-octahydroazuleno[8,7-b]furan-9-yl] ester

> <PUBCHEM_IUPAC_INCHI>
InChI=1S/C17H24O6/c1-9-12-5-4-11(8-18)17(21)7-6-13(22-10(2)19)16(17,3)14(12)23-15(9)20/h11-14,18,21H,1,4-8H2,2-3H3/t11-,12+,13+,14-,16+,17-/m1/s1

> <PUBCHEM_IUPAC_INCHIKEY>
CLPRBVIHHFLWQY-SGXNCSQFSA-N

> <PUBCHEM_XLOGP3_AA>
1.5

> <PUBCHEM_EXACT_MASS>
324.157288

> <PUBCHEM_MOLECULAR_FORMULA>
C17H24O6

> <PUBCHEM_MOLECULAR_WEIGHT>
324.36886

> <PUBCHEM_OPENEYE_CAN_SMILES>
CC(=O)OC1CCC2(C1(C3C(CCC2CO)C(=C)C(=O)O3)C)O

> <PUBCHEM_OPENEYE_ISO_SMILES>
CC(=O)O[C@H]1CC[C@@]2([C@@]1([C@H]3[C@@H](CC[C@@H]2CO)C(=C)C(=O)O3)C)O

> <PUBCHEM_CACTVS_TPSA>
93.1

> <PUBCHEM_MONOISOTOPIC_WEIGHT>
324.157288

> <PUBCHEM_TOTAL_CHARGE>
0

> <PUBCHEM_HEAVY_ATOM_COUNT>
23

> <PUBCHEM_ATOM_DEF_STEREO_COUNT>
6

> <PUBCHEM_ATOM_UDEF_STEREO_COUNT>
0

> <PUBCHEM_BOND_DEF_STEREO_COUNT>
0

> <PUBCHEM_BOND_UDEF_STEREO_COUNT>
0

> <PUBCHEM_ISOTOPIC_ATOM_COUNT>
0

> <PUBCHEM_COMPONENT_COUNT>
1

> <PUBCHEM_CACTVS_TAUTO_COUNT>
1

> <PUBCHEM_COORDINATE_TYPE>
1
5
255

> <PUBCHEM_BONDANNOTATIONS>
8  1  5
11  18  6
14  31  5
10  3  6
7  16  6
9  24  5

$$$$

