   Color/Form

     * Colorless crystals...turns purple on contact with air
     * Leaflets from alcohol or water

   from [1]HSDB

   Odor
        Floral odor
   from [2]HSDB

   Boiling Point
        302 deg C
   from [3]HSDB

   Melting Point
        53.5 deg C
   from [4]HSDB

   Density/Specific Gravity
        1.16
   from [5]HSDB

   Dissociation Constants
        pKa = 4.35 @ 18 deg C
   from [6]HSDB

   Octanol/Water Partition Coefficient
        log Kow = 2.86 @ pH 7.5
   from [7]HSDB

   Solubilities

     * Sol in ethanol, ether, acetone
     * Sol in chloroform
     * Slightly sol in cold water; readily sol in hot water
     * SOL IN LIPIDS

   from [8]HSDB

   Spectral Properties

     * MAX ABSORPTION (ALCOHOL): 278 NM (LOG E= 4.24)
     * Intense mass spectral peaks: 169 m/z (100%), 168 m/z (35%), 170 m/z
       (25%), 167 m/z (22%)
     * IR: 1894 (Coblentz Society Spectral Collection)
     * UV: 6103 (Sadtler Research Laboratories Spectral Collection)
     * NMR: 4398 (Sadtler Research Laboratories Spectral Collection)
     * MASS: 27135 (NIST/EPA/MSDC Mass Spectral Database, 1990 Version)

   from [9]HSDB

   Vapor Density
        5.8 (air= 1) at boiling point of 4-aminodiphenyl
   from [10]HSDB

   Vapor Pressure
        5.79X10-4 mm Hg @ 25 deg C /Extrapolated/
   from [11]HSDB

   Other Chemical/Physical Properties

     * Henry's Law constant = 1.5X10-7 atm-cu m/mol @ 25 deg C /Estimated/
     * Hydroxyl radical reaction rate constant = 8.0X10-11 cu cm/molec-sec
       @ 25 deg C /Estimated/

   from [12]HSDB

   Computed Properties
   Molecular Weight                  169.22244 [g/mol]
   Molecular Formula                 C[12]H[11]N
   XLogP3                            2.9
   H-Bond Donor                      1
   H-Bond Acceptor                   1
   Rotatable Bond Count              1
   Exact Mass                        169.089149
   MonoIsotopic Mass                 169.089149
   Topological Polar Surface Area    26
   Heavy Atom Count                  13
   Formal Charge                     0
   Complexity                        141
   Isotope Atom Count                0
   Defined Atom Stereocenter Count   0
   Undefined Atom Stereocenter Count 0
   Defined Bond Stereocenter Count   0
   Undefined Bond Stereocenter Count 0
   Covalently-Bonded Unit Count      1
   Feature 3D Donor Count            1
   Feature 3D Cation Count           1
   Feature 3D Ring Count             2
   Effective Rotor Count             1
   Conformer Sampling RMSD           0.4
   CID Conformer Count               [13]2

References

   1. http://toxnet.nlm.nih.gov/cgi-bin/sis/search/r?dbs+hsdb:@term+@rn+@rel+92-67-1
   2. http://toxnet.nlm.nih.gov/cgi-bin/sis/search/r?dbs+hsdb:@term+@rn+@rel+92-67-1
   3. http://toxnet.nlm.nih.gov/cgi-bin/sis/search/r?dbs+hsdb:@term+@rn+@rel+92-67-1
   4. http://toxnet.nlm.nih.gov/cgi-bin/sis/search/r?dbs+hsdb:@term+@rn+@rel+92-67-1
   5. http://toxnet.nlm.nih.gov/cgi-bin/sis/search/r?dbs+hsdb:@term+@rn+@rel+92-67-1
   6. http://toxnet.nlm.nih.gov/cgi-bin/sis/search/r?dbs+hsdb:@term+@rn+@rel+92-67-1
   7. http://toxnet.nlm.nih.gov/cgi-bin/sis/search/r?dbs+hsdb:@term+@rn+@rel+92-67-1
   8. http://toxnet.nlm.nih.gov/cgi-bin/sis/search/r?dbs+hsdb:@term+@rn+@rel+92-67-1
   9. http://toxnet.nlm.nih.gov/cgi-bin/sis/search/r?dbs+hsdb:@term+@rn+@rel+92-67-1
  10. http://toxnet.nlm.nih.gov/cgi-bin/sis/search/r?dbs+hsdb:@term+@rn+@rel+92-67-1
  11. http://toxnet.nlm.nih.gov/cgi-bin/sis/search/r?dbs+hsdb:@term+@rn+@rel+92-67-1
  12. http://toxnet.nlm.nih.gov/cgi-bin/sis/search/r?dbs+hsdb:@term+@rn+@rel+92-67-1
  13. http://pubchem.ncbi.nlm.nih.gov/vw3d/vw3d.cgi?cid=7102
