   Boiling Point
        202-210 deg C @ 0.6 mm Hg
   from [1]HSDB

   Dissociation Constants
        pKa1= 3.9; pKa2= 8.1 /Dihydrochloride/
   from [2]HSDB

   Octanol/Water Partition Coefficient
        log Kow= 5.03 @ 25 deg C
   from [3]HSDB

   Solubilities

     * Freely sol in water /Dihydrochloride/
     * FREELY SOL IN WATER; SOL IN ALCOHOL; SPARINGLY SOL IN CHLOROFORM;
       INSOL IN ETHER & BENZENE /HYDROCHLORIDE/
     * In water, 12.2 mg/l @ 25 deg C

   from [4]HSDB

   Spectral Properties

     * Intense mass spectral peaks: 70 m/z, 113 m/z, 267 m/z, 407 m/z
     * UV max (ethanol): 258, 307.5 nm (log e=4.50, 3.50)

   from [5]HSDB

   Other Chemical/Physical Properties

     * Cream-colored, fine powder from absolute alcohol; MP: 242-243 deg
       C; pH of 5% aq soln= 2.2, Hygroscopic /Dihydrochloride/
     * MP: 193-194 deg C; crystals from alcohol /Dimaleate/
     * MP: 173-175 deg C /Sulfoxide dihydrochloride trihydrate/
     * PRACTICALLY ODORLESS & HAS BITTER TASTE; MELTS @ ABOUT 242 DEG C
       WITH DECOMP WHITE TO PALE-YELLOW, CRYSTALLINE POWDER
       /HYDROCHLORIDE/

   from [6]HSDB

   Computed Properties
   Molecular Weight                  407.49557 [g/mol]
   Molecular Formula                 C[21]H[24]F[3]N[3]S
   XLogP3                            5
   H-Bond Donor                      0
   H-Bond Acceptor                   7
   Rotatable Bond Count              4
   Exact Mass                        407.164303
   MonoIsotopic Mass                 407.164303
   Topological Polar Surface Area    35
   Heavy Atom Count                  28
   Formal Charge                     0
   Complexity                        510
   Isotope Atom Count                0
   Defined Atom Stereocenter Count   0
   Undefined Atom Stereocenter Count 0
   Defined Bond Stereocenter Count   0
   Undefined Bond Stereocenter Count 0
   Covalently-Bonded Unit Count      1
   Feature 3D Cation Count           3
   Feature 3D Ring Count             4
   Effective Rotor Count             6.6
   Conformer Sampling RMSD           0.8
   CID Conformer Count               [7]34

References

   1. http://toxnet.nlm.nih.gov/cgi-bin/sis/search/r?dbs+hsdb:@term+@rn+@rel+117-89-5
   2. http://toxnet.nlm.nih.gov/cgi-bin/sis/search/r?dbs+hsdb:@term+@rn+@rel+117-89-5
   3. http://toxnet.nlm.nih.gov/cgi-bin/sis/search/r?dbs+hsdb:@term+@rn+@rel+117-89-5
   4. http://toxnet.nlm.nih.gov/cgi-bin/sis/search/r?dbs+hsdb:@term+@rn+@rel+117-89-5
   5. http://toxnet.nlm.nih.gov/cgi-bin/sis/search/r?dbs+hsdb:@term+@rn+@rel+117-89-5
   6. http://toxnet.nlm.nih.gov/cgi-bin/sis/search/r?dbs+hsdb:@term+@rn+@rel+117-89-5
   7. http://pubchem.ncbi.nlm.nih.gov/vw3d/vw3d.cgi?cid=5566
