   Color/Form
        CRYSTALS FROM DIL ETHANOL
   from [1]HSDB

   Melting Point
        112.3-113.3 DEG C
   from [2]HSDB

   Octanol/Water Partition Coefficient
        Log P= 4.69
   from [3]HSDB

   Spectral Properties
        Intense mass spectral peaks: 96 m/z, 215 m/z, 287 m/z
   from [4]HSDB

   Other Chemical/Physical Properties

     * WHITE TO SLIGHTLY YELLOW, CRYSTALLINE POWDER; ODORLESS; SLIGHT
       BITTER TASTE; NONHYGROSCOPIC; 1 G SOL IN 1.5 ML METHANOL, 16 ML
       CHLOROFORM, 35 ML ALCOHOL, 275 ML WATER; PRACTICALLY INSOL IN ETHER
       /HCL/
     * CRYSTALS FROM ABSOLUTE ETHANOL + ETHER. UV MAX (0.1 N H2SO4):
       224,285 NM (E AT 1 CM AND 1%= 1,656,355) /HCL/

   from [5]HSDB

   Computed Properties
   Molecular Weight                  287.39814 [g/mol]
   Molecular Formula                 C[21]H[21]N
   XLogP3                            4.7
   H-Bond Donor                      0
   H-Bond Acceptor                   1
   Rotatable Bond Count              0
   Exact Mass                        287.1674
   MonoIsotopic Mass                 287.1674
   Topological Polar Surface Area    3.2
   Heavy Atom Count                  22
   Formal Charge                     0
   Complexity                        423
   Isotope Atom Count                0
   Defined Atom Stereocenter Count   0
   Undefined Atom Stereocenter Count 0
   Defined Bond Stereocenter Count   0
   Undefined Bond Stereocenter Count 0
   Covalently-Bonded Unit Count      1
   Feature 3D Cation Count           1
   Feature 3D Ring Count             4
   Effective Rotor Count             1
   Conformer Sampling RMSD           0.6
   CID Conformer Count               [6]2

References

   1. http://toxnet.nlm.nih.gov/cgi-bin/sis/search/r?dbs+hsdb:@term+@rn+@rel+129-03-3
   2. http://toxnet.nlm.nih.gov/cgi-bin/sis/search/r?dbs+hsdb:@term+@rn+@rel+129-03-3
   3. http://toxnet.nlm.nih.gov/cgi-bin/sis/search/r?dbs+hsdb:@term+@rn+@rel+129-03-3
   4. http://toxnet.nlm.nih.gov/cgi-bin/sis/search/r?dbs+hsdb:@term+@rn+@rel+129-03-3
   5. http://toxnet.nlm.nih.gov/cgi-bin/sis/search/r?dbs+hsdb:@term+@rn+@rel+129-03-3
   6. http://pubchem.ncbi.nlm.nih.gov/vw3d/vw3d.cgi?cid=2913
