   Color/Form

     * MONOCLINIC NEEDLES OR PRISMS (FROM WATER OR PETROLEUM ETHER)
     * COLORLESS NEEDLE-LIKE CRYSTALS
     * WHITE CRYSTALLINE SOLID

   from [1]HSDB

   Boiling Point
        185 deg C
   from [2]HSDB

   Melting Point
        72 DEG C
   from [3]HSDB

   Density/Specific Gravity
        Density = 1.018 at 15 deg C/4 deg C
   from [4]HSDB

   Dissociation Constants

     * PKA: 4.69
     * 2.0X10-5 @ 25 DEG C
     * pKa = 4.817 at 25 deg C

   from [5]HSDB

   Heat of Combustion
        2.00 MJ/mol
   from [6]HSDB

   Heat of Vaporization
        13,252.2 gcal/gmole
   from [7]HSDB

   Octanol/Water Partition Coefficient
        Log Kow = 0.72 /isomer not specified/
   from [8]HSDB

   Solubilities

     * VERY SOL IN WATER; SOL IN ETHER, ACETONE & IN HOT PETROLEUM ETHER
     * IN ETHANOL @ 25 DEG C: 52.5% WT/WT; ACETONE @ 25 DEG C: 53.0% W/W;
       IN TOLUENE @ 25 DEG C: 37.5% WT/WT
     * Water solubility: 8.6X10+4 mg/l at 25 deg C
     * 555 g/l in water at 20 deg C

   from [9]HSDB

   Spectral Properties

     * MAX ABSORPTION (ALC): 205 NM (LOG E= 4.20); INDEX OF REFRACTION:
       1.4249 @ 77 DEG C/D; SADTLER REF NUMBER: 749 (IR, PRISM); 8091 (IR,
       GRATING); 247 (UV); 61 (NMR, VARIAN)
     * IR: 5566 (Coblentz Society Spectral Collection)
     * UV: 247 (Sadtler Research Laboratories Spectral Collection)
     * MASS: 137 (Atlas of Mass Spectral Data, John Wiley & Sons, New
       York)

   from [10]HSDB

   Vapor Density
        2.97 (air= 1)
   from [11]HSDB

   Vapor Pressure
        24 Pa at 20 deg C
   from [12]HSDB

   Other Chemical/Physical Properties

     * EXISTS IN CIS & TRANS ISOMERIC FORMS, LATTER BEING STABLE ISOMER
       USED COMMERCIALLY; CIS FORM MELTS @ 15 DEG C & IS SOMETIMES CALLED
       ISOCROTONIC ACID
     * Heat of fusion: 25.32 cal/g
     * CAN REACT WITH OXIDIZING MATERIALS
     * MASS: 135 (Atlas of Mass Spectral Data, John Wiley & Sons, New
       York) /2-Butenoic acid (cis)/
     * Density = 0.9604 g/ cu cm at 77 deg C /TRANS ISOMER/
     * Density = 1.0267 g/ cu cm at 20 deg C /CIS ISOMER/
     * Boiling point = 169 deg C /CIS ISOMER/
     * Enthalpy of fusion = 12.57 kJ/mol /CIS ISOMER/
     * Enthalpy of fusion = 9.12 kJ/mol /TRANS ISOMER/
     * Liquid at room temperature and is miscible with water at 25 deg C
       /CIS ISOMER/
     * Solubility in water (g/l): at 0 deg C: 41.5; at 10 deg C: 54.6; at
       20 deg C: 76.1; at 25 deg C: 94; at 30 deg C: 122; at 40 deg C:
       656. /TRANS ISOMER/
     * Solubility at 25 deg C in ethanol: 52.5% w/w; acetone: 53.0% w/w;
       toluene: 37.5% w/w. /TRANS ISOMER/
     * Index of Refraction = 1.4249 at 77 deg C/D /TRANS ISOMER/
     * Index of Refraction = 1.4483 at 14 deg C/D /CIS ISOMER/
     * Monoclinic needles, prisms from water or ligroin /TRANS ISOMER/
     * BOILING POINT: 185 DEG C @ 760 MM HG; 128 DEG C @ 100 MM HG; 165.5
       DEG C @ 400 MM HG; 146 DEG C @ 200 MM HG; 116.7 DEG C @ 60 MM HG;
       80 DEG C @ 10 MM HG; 93 DEG C @ 20 MM HG; 107.8 DEG C @ 40 MM HG
       /TRANS ISOMER/
     * VAPOR PRESSURE = 0.19 MM HG @ 20 DEG C

   from [13]HSDB

   Computed Properties
   Molecular Weight                  86.08924 [g/mol]
   Molecular Formula                 C[4]H[6]O[2]
   XLogP3                            0.7
   H-Bond Donor                      1
   H-Bond Acceptor                   2
   Rotatable Bond Count              1
   Exact Mass                        86.036779
   MonoIsotopic Mass                 86.036779
   Topological Polar Surface Area    37.3
   Heavy Atom Count                  6
   Formal Charge                     0
   Complexity                        73.6
   Isotope Atom Count                0
   Defined Atom Stereocenter Count   0
   Undefined Atom Stereocenter Count 0
   Defined Bond Stereocenter Count   1
   Undefined Bond Stereocenter Count 0
   Covalently-Bonded Unit Count      1
   Feature 3D Acceptor Count         2
   Feature 3D Anion Count            1
   Feature 3D Hydrophobe Count       1
   Effective Rotor Count             1
   Conformer Sampling RMSD           0.4
   CID Conformer Count               [14]1

References

   1. http://toxnet.nlm.nih.gov/cgi-bin/sis/search/r?dbs+hsdb:@term+@rn+@rel+3724-65-0
   2. http://toxnet.nlm.nih.gov/cgi-bin/sis/search/r?dbs+hsdb:@term+@rn+@rel+3724-65-0
   3. http://toxnet.nlm.nih.gov/cgi-bin/sis/search/r?dbs+hsdb:@term+@rn+@rel+3724-65-0
   4. http://toxnet.nlm.nih.gov/cgi-bin/sis/search/r?dbs+hsdb:@term+@rn+@rel+3724-65-0
   5. http://toxnet.nlm.nih.gov/cgi-bin/sis/search/r?dbs+hsdb:@term+@rn+@rel+3724-65-0
   6. http://toxnet.nlm.nih.gov/cgi-bin/sis/search/r?dbs+hsdb:@term+@rn+@rel+3724-65-0
   7. http://toxnet.nlm.nih.gov/cgi-bin/sis/search/r?dbs+hsdb:@term+@rn+@rel+3724-65-0
   8. http://toxnet.nlm.nih.gov/cgi-bin/sis/search/r?dbs+hsdb:@term+@rn+@rel+3724-65-0
   9. http://toxnet.nlm.nih.gov/cgi-bin/sis/search/r?dbs+hsdb:@term+@rn+@rel+3724-65-0
  10. http://toxnet.nlm.nih.gov/cgi-bin/sis/search/r?dbs+hsdb:@term+@rn+@rel+3724-65-0
  11. http://toxnet.nlm.nih.gov/cgi-bin/sis/search/r?dbs+hsdb:@term+@rn+@rel+3724-65-0
  12. http://toxnet.nlm.nih.gov/cgi-bin/sis/search/r?dbs+hsdb:@term+@rn+@rel+3724-65-0
  13. http://toxnet.nlm.nih.gov/cgi-bin/sis/search/r?dbs+hsdb:@term+@rn+@rel+3724-65-0
  14. http://pubchem.ncbi.nlm.nih.gov/vw3d/vw3d.cgi?cid=637090
