17395717
  -OEChem-06241222522D

 48 49  0     1  0  0  0  0  0999 V2000
    2.0000   -3.0918    0.0000 Cl  0  0  0  0  0  0  0  0  0  0  0  0
    6.0875    0.5241    0.0000 S   0  0  0  0  0  0  0  0  0  0  0  0
    4.7026   -0.5973    0.0000 S   0  0  0  0  0  0  0  0  0  0  0  0
   10.2913    3.5784    0.0000 O   0  0  0  0  0  0  0  0  0  0  0  0
   10.4723    1.8558    0.0000 O   0  0  0  0  0  0  0  0  0  0  0  0
    6.9010    2.3512    0.0000 O   0  0  0  0  0  0  0  0  0  0  0  0
    8.4833    1.6467    0.0000 N   0  0  0  0  0  0  0  0  0  0  0  0
    3.7320   -2.0918    0.0000 N   0  0  0  0  0  0  0  0  0  0  0  0
    6.1808   -1.2554    0.0000 N   0  0  0  0  0  0  0  0  0  0  0  0
    5.5116   -1.9986    0.0000 N   0  0  0  0  0  0  0  0  0  0  0  0
    8.7090    4.2828    0.0000 C   0  0  0  0  0  0  0  0  0  0  0  0
    8.3022    3.3693    0.0000 C   0  0  0  0  0  0  0  0  0  0  0  0
    8.8900    2.5603    0.0000 C   0  0  3  0  0  0  0  0  0  0  0  0
    8.1212    5.0918    0.0000 C   0  0  0  0  0  0  0  0  0  0  0  0
    9.7035    4.3874    0.0000 C   0  0  0  0  0  0  0  0  0  0  0  0
    9.8845    2.6648    0.0000 C   0  0  0  0  0  0  0  0  0  0  0  0
    7.4888    1.5422    0.0000 C   0  0  0  0  0  0  0  0  0  0  0  0
    7.0820    0.6287    0.0000 C   0  0  0  0  0  0  0  0  0  0  0  0
   11.2858    3.6829    0.0000 C   0  0  0  0  0  0  0  0  0  0  0  0
    5.6808   -0.3894    0.0000 C   0  0  0  0  0  0  0  0  0  0  0  0
    3.7320   -3.0918    0.0000 C   0  0  0  0  0  0  0  0  0  0  0  0
    4.5981   -1.5918    0.0000 C   0  0  0  0  0  0  0  0  0  0  0  0
    2.8660   -3.5918    0.0000 C   0  0  0  0  0  0  0  0  0  0  0  0
    4.5981   -3.5918    0.0000 C   0  0  0  0  0  0  0  0  0  0  0  0
    2.8660   -4.5918    0.0000 C   0  0  0  0  0  0  0  0  0  0  0  0
    4.5981   -4.5918    0.0000 C   0  0  0  0  0  0  0  0  0  0  0  0
    3.7320   -5.0918    0.0000 C   0  0  0  0  0  0  0  0  0  0  0  0
    9.0734    3.7812    0.0000 H   0  0  0  0  0  0  0  0  0  0  0  0
    7.7882    3.7160    0.0000 H   0  0  0  0  0  0  0  0  0  0  0  0
    7.8715    2.9233    0.0000 H   0  0  0  0  0  0  0  0  0  0  0  0
    8.2734    2.4955    0.0000 H   0  0  0  0  0  0  0  0  0  0  0  0
    9.7683    3.7708    0.0000 H   0  0  0  0  0  0  0  0  0  0  0  0
    8.6228    5.4563    0.0000 H   0  0  0  0  0  0  0  0  0  0  0  0
    7.7567    5.5934    0.0000 H   0  0  0  0  0  0  0  0  0  0  0  0
    7.6196    4.7274    0.0000 H   0  0  0  0  0  0  0  0  0  0  0  0
   10.3201    4.4522    0.0000 H   0  0  0  0  0  0  0  0  0  0  0  0
    9.6387    5.0040    0.0000 H   0  0  0  0  0  0  0  0  0  0  0  0
    8.8477    1.1451    0.0000 H   0  0  0  0  0  0  0  0  0  0  0  0
    7.0388    0.0102    0.0000 H   0  0  0  0  0  0  0  0  0  0  0  0
    7.6836    0.4787    0.0000 H   0  0  0  0  0  0  0  0  0  0  0  0
   11.3506    3.0663    0.0000 H   0  0  0  0  0  0  0  0  0  0  0  0
   11.9024    3.7477    0.0000 H   0  0  0  0  0  0  0  0  0  0  0  0
   11.2210    4.2995    0.0000 H   0  0  0  0  0  0  0  0  0  0  0  0
    3.1951   -1.7818    0.0000 H   0  0  0  0  0  0  0  0  0  0  0  0
    5.1350   -3.2818    0.0000 H   0  0  0  0  0  0  0  0  0  0  0  0
    2.3291   -4.9018    0.0000 H   0  0  0  0  0  0  0  0  0  0  0  0
    5.1350   -4.9018    0.0000 H   0  0  0  0  0  0  0  0  0  0  0  0
    3.7320   -5.7118    0.0000 H   0  0  0  0  0  0  0  0  0  0  0  0
  1 23  1  0  0  0  0
  2 18  1  0  0  0  0
  2 20  1  0  0  0  0
  3 20  1  0  0  0  0
  3 22  1  0  0  0  0
  4 16  1  0  0  0  0
  4 19  1  0  0  0  0
  5 16  2  0  0  0  0
  6 17  2  0  0  0  0
  7 13  1  0  0  0  0
  7 17  1  0  0  0  0
  7 38  1  0  0  0  0
  8 21  1  0  0  0  0
  8 22  1  0  0  0  0
  8 44  1  0  0  0  0
  9 10  1  0  0  0  0
  9 20  2  0  0  0  0
 10 22  2  0  0  0  0
 11 12  1  0  0  0  0
 11 14  1  0  0  0  0
 11 15  1  0  0  0  0
 11 28  1  0  0  0  0
 12 13  1  0  0  0  0
 12 29  1  0  0  0  0
 12 30  1  0  0  0  0
 13 16  1  0  0  0  0
 13 31  1  0  0  0  0
 14 33  1  0  0  0  0
 14 34  1  0  0  0  0
 14 35  1  0  0  0  0
 15 32  1  0  0  0  0
 15 36  1  0  0  0  0
 15 37  1  0  0  0  0
 17 18  1  0  0  0  0
 18 39  1  0  0  0  0
 18 40  1  0  0  0  0
 19 41  1  0  0  0  0
 19 42  1  0  0  0  0
 19 43  1  0  0  0  0
 21 23  1  0  0  0  0
 21 24  2  0  0  0  0
 23 25  2  0  0  0  0
 24 26  1  0  0  0  0
 24 45  1  0  0  0  0
 25 27  1  0  0  0  0
 25 46  1  0  0  0  0
 26 27  2  0  0  0  0
 26 47  1  0  0  0  0
 27 48  1  0  0  0  0
M  END
> <PUBCHEM_COMPOUND_CID>
17395717

> <PUBCHEM_COMPOUND_CANONICALIZED>
1

> <PUBCHEM_CACTVS_COMPLEXITY>
501

> <PUBCHEM_CACTVS_HBOND_ACCEPTOR>
8

> <PUBCHEM_CACTVS_HBOND_DONOR>
2

> <PUBCHEM_CACTVS_ROTATABLE_BOND>
10

> <PUBCHEM_CACTVS_SUBSKEYS>
AAADceB7sABkAAAAAAAAAAAAAAAAAWAAAAAwAAAAAAAAAAABwAAAHgYYAAAADSrF0Caz2ILABAiuACXSeACSAQJhBxkNiIGIZoiKIDLBm7HFIAh0lgLYyCeYAAAMAAAAAAAAABAAAAAAAAAAIAAAAAAAAA==

> <PUBCHEM_IUPAC_OPENEYE_NAME>
methyl 2-[[2-[[5-(2-chloroanilino)-1,3,4-thiadiazol-2-yl]sulfanyl]acetyl]amino]-4-methyl-pentanoate

> <PUBCHEM_IUPAC_CAS_NAME>
2-[[2-[[5-(2-chloroanilino)-1,3,4-thiadiazol-2-yl]thio]-1-oxoethyl]amino]-4-methylpentanoic acid methyl ester

> <PUBCHEM_IUPAC_NAME>
methyl 2-[[2-[[5-(2-chloroanilino)-1,3,4-thiadiazol-2-yl]sulfanyl]acetyl]amino]-4-methylpentanoate

> <PUBCHEM_IUPAC_SYSTEMATIC_NAME>
methyl 2-[2-[[5-[(2-chlorophenyl)amino]-1,3,4-thiadiazol-2-yl]sulfanyl]ethanoylamino]-4-methyl-pentanoate

> <PUBCHEM_IUPAC_TRADITIONAL_NAME>
2-[[2-[[5-(2-chloroanilino)-1,3,4-thiadiazol-2-yl]thio]acetyl]amino]-4-methyl-valeric acid methyl ester

> <PUBCHEM_IUPAC_INCHI>
InChI=1S/C17H21ClN4O3S2/c1-10(2)8-13(15(24)25-3)19-14(23)9-26-17-22-21-16(27-17)20-12-7-5-4-6-11(12)18/h4-7,10,13H,8-9H2,1-3H3,(H,19,23)(H,20,21)

> <PUBCHEM_IUPAC_INCHIKEY>
VWEGAHPVCMEKDS-UHFFFAOYSA-N

> <PUBCHEM_XLOGP3_AA>
4.7

> <PUBCHEM_EXACT_MASS>
428.07436

> <PUBCHEM_MOLECULAR_FORMULA>
C17H21ClN4O3S2

> <PUBCHEM_MOLECULAR_WEIGHT>
428.95664

> <PUBCHEM_OPENEYE_CAN_SMILES>
CC(C)CC(C(=O)OC)NC(=O)CSC1=NN=C(S1)NC2=CC=CC=C2Cl

> <PUBCHEM_OPENEYE_ISO_SMILES>
CC(C)CC(C(=O)OC)NC(=O)CSC1=NN=C(S1)NC2=CC=CC=C2Cl

> <PUBCHEM_CACTVS_TPSA>
147

> <PUBCHEM_MONOISOTOPIC_WEIGHT>
428.07436

> <PUBCHEM_TOTAL_CHARGE>
0

> <PUBCHEM_HEAVY_ATOM_COUNT>
27

> <PUBCHEM_ATOM_DEF_STEREO_COUNT>
0

> <PUBCHEM_ATOM_UDEF_STEREO_COUNT>
1

> <PUBCHEM_BOND_DEF_STEREO_COUNT>
0

> <PUBCHEM_BOND_UDEF_STEREO_COUNT>
0

> <PUBCHEM_ISOTOPIC_ATOM_COUNT>
0

> <PUBCHEM_COMPONENT_COUNT>
1

> <PUBCHEM_CACTVS_TAUTO_COUNT>
4

> <PUBCHEM_COORDINATE_TYPE>
1
5
255

> <PUBCHEM_BONDANNOTATIONS>
10  22  8
13  12  3
21  23  8
21  24  8
23  25  8
24  26  8
25  27  8
26  27  8
3  20  8
3  22  8
9  10  8
9  20  8

$$$$

