146694
  -OEChem-07051212592D

 35 37  0     1  0  0  0  0  0999 V2000
    6.3301   -1.2296    0.0000 O   0  0  0  0  0  0  0  0  0  0  0  0
    8.9446   -2.7642    0.0000 O   0  0  0  0  0  0  0  0  0  0  0  0
    7.1962   -2.7296    0.0000 O   0  0  0  0  0  0  0  0  0  0  0  0
    2.8660    1.7704    0.0000 O   0  0  0  0  0  0  0  0  0  0  0  0
    4.5981    2.7704    0.0000 O   0  0  0  0  0  0  0  0  0  0  0  0
    6.3301   -0.2296    0.0000 C   0  0  2  0  0  0  0  0  0  0  0  0
    7.1962    0.2704    0.0000 C   0  0  0  0  0  0  0  0  0  0  0  0
    8.0622   -0.2296    0.0000 C   0  0  0  0  0  0  0  0  0  0  0  0
    5.4641    0.2704    0.0000 C   0  0  0  0  0  0  0  0  0  0  0  0
    8.0622   -1.2296    0.0000 C   0  0  0  0  0  0  0  0  0  0  0  0
    7.1962   -1.7296    0.0000 C   0  0  0  0  0  0  0  0  0  0  0  0
    8.9561    0.3051    0.0000 C   0  0  0  0  0  0  0  0  0  0  0  0
    5.4641    1.2704    0.0000 C   0  0  0  0  0  0  0  0  0  0  0  0
    4.5981   -0.2296    0.0000 C   0  0  0  0  0  0  0  0  0  0  0  0
    8.9561   -1.7643    0.0000 C   0  0  0  0  0  0  0  0  0  0  0  0
    9.8622   -0.2088    0.0000 C   0  0  0  0  0  0  0  0  0  0  0  0
    9.8622   -1.2504    0.0000 C   0  0  0  0  0  0  0  0  0  0  0  0
    4.5981    1.7704    0.0000 C   0  0  0  0  0  0  0  0  0  0  0  0
    3.7320    0.2704    0.0000 C   0  0  0  0  0  0  0  0  0  0  0  0
    3.7320    1.2704    0.0000 C   0  0  0  0  0  0  0  0  0  0  0  0
    2.0000    1.2704    0.0000 C   0  0  0  0  0  0  0  0  0  0  0  0
    5.7932   -0.5396    0.0000 H   0  0  0  0  0  0  0  0  0  0  0  0
    7.5947    0.7453    0.0000 H   0  0  0  0  0  0  0  0  0  0  0  0
    6.7976    0.7453    0.0000 H   0  0  0  0  0  0  0  0  0  0  0  0
    8.9490    0.9250    0.0000 H   0  0  0  0  0  0  0  0  0  0  0  0
    6.0010    1.5804    0.0000 H   0  0  0  0  0  0  0  0  0  0  0  0
    4.5981   -0.8496    0.0000 H   0  0  0  0  0  0  0  0  0  0  0  0
   10.3979    0.1033    0.0000 H   0  0  0  0  0  0  0  0  0  0  0  0
   10.3979   -1.5625    0.0000 H   0  0  0  0  0  0  0  0  0  0  0  0
    3.1951   -0.0396    0.0000 H   0  0  0  0  0  0  0  0  0  0  0  0
    9.4779   -3.0804    0.0000 H   0  0  0  0  0  0  0  0  0  0  0  0
    5.1350    3.0804    0.0000 H   0  0  0  0  0  0  0  0  0  0  0  0
    1.6900    1.8073    0.0000 H   0  0  0  0  0  0  0  0  0  0  0  0
    1.4631    0.9604    0.0000 H   0  0  0  0  0  0  0  0  0  0  0  0
    2.3100    0.7335    0.0000 H   0  0  0  0  0  0  0  0  0  0  0  0
  1  6  1  0  0  0  0
  1 11  1  0  0  0  0
  2 15  1  0  0  0  0
  2 31  1  0  0  0  0
  3 11  2  0  0  0  0
  4 20  1  0  0  0  0
  4 21  1  0  0  0  0
  5 18  1  0  0  0  0
  5 32  1  0  0  0  0
  6  7  1  0  0  0  0
  6  9  1  1  0  0  0
  6 22  1  0  0  0  0
  7  8  1  0  0  0  0
  7 23  1  0  0  0  0
  7 24  1  0  0  0  0
  8 10  2  0  0  0  0
  8 12  1  0  0  0  0
  9 13  2  0  0  0  0
  9 14  1  0  0  0  0
 10 11  1  0  0  0  0
 10 15  1  0  0  0  0
 12 16  2  0  0  0  0
 12 25  1  0  0  0  0
 13 18  1  0  0  0  0
 13 26  1  0  0  0  0
 14 19  2  0  0  0  0
 14 27  1  0  0  0  0
 15 17  2  0  0  0  0
 16 17  1  0  0  0  0
 16 28  1  0  0  0  0
 17 29  1  0  0  0  0
 18 20  2  0  0  0  0
 19 20  1  0  0  0  0
 19 30  1  0  0  0  0
 21 33  1  0  0  0  0
 21 34  1  0  0  0  0
 21 35  1  0  0  0  0
M  END
> <PUBCHEM_COMPOUND_CID>
146694

> <PUBCHEM_COMPOUND_CANONICALIZED>
1

> <PUBCHEM_CACTVS_COMPLEXITY>
385

> <PUBCHEM_CACTVS_HBOND_ACCEPTOR>
5

> <PUBCHEM_CACTVS_HBOND_DONOR>
2

> <PUBCHEM_CACTVS_ROTATABLE_BOND>
2

> <PUBCHEM_CACTVS_SUBSKEYS>
AAADccB4OAAAAAAAAAAAAAAAAAAAAAAAAAA0YIAAAAAAAACRQAAAGgAACAAADBSgmAIyDoAABgCIAiDSCAACCAAkIAAIiAEGiMgNJzaGNRqCcWMl4BELuQfI7PzOoAABAAAYQABAAAIAADCAAAAAAAAAAA==

> <PUBCHEM_IUPAC_OPENEYE_NAME>
(3R)-8-hydroxy-3-(3-hydroxy-4-methoxy-phenyl)isochroman-1-one

> <PUBCHEM_IUPAC_CAS_NAME>
(3R)-8-hydroxy-3-(3-hydroxy-4-methoxyphenyl)-3,4-dihydro-1H-2-benzopyran-1-one

> <PUBCHEM_IUPAC_NAME>
(3R)-8-hydroxy-3-(3-hydroxy-4-methoxyphenyl)-3,4-dihydroisochromen-1-one

> <PUBCHEM_IUPAC_SYSTEMATIC_NAME>
(3R)-3-(4-methoxy-3-oxidanyl-phenyl)-8-oxidanyl-3,4-dihydroisochromen-1-one

> <PUBCHEM_IUPAC_TRADITIONAL_NAME>
(3R)-8-hydroxy-3-(3-hydroxy-4-methoxy-phenyl)isochroman-1-one

> <PUBCHEM_IUPAC_INCHI>
InChI=1S/C16H14O5/c1-20-13-6-5-9(7-12(13)18)14-8-10-3-2-4-11(17)15(10)16(19)21-14/h2-7,14,17-18H,8H2,1H3/t14-/m1/s1

> <PUBCHEM_IUPAC_INCHIKEY>
PBILBHLAPJTJOT-CQSZACIVSA-N

> <PUBCHEM_XLOGP3_AA>
3.1

> <PUBCHEM_EXACT_MASS>
286.084124

> <PUBCHEM_MOLECULAR_FORMULA>
C16H14O5

> <PUBCHEM_MOLECULAR_WEIGHT>
286.27936

> <PUBCHEM_OPENEYE_CAN_SMILES>
COC1=C(C=C(C=C1)C2CC3=C(C(=CC=C3)O)C(=O)O2)O

> <PUBCHEM_OPENEYE_ISO_SMILES>
COC1=C(C=C(C=C1)[C@H]2CC3=C(C(=CC=C3)O)C(=O)O2)O

> <PUBCHEM_CACTVS_TPSA>
76

> <PUBCHEM_MONOISOTOPIC_WEIGHT>
286.084124

> <PUBCHEM_TOTAL_CHARGE>
0

> <PUBCHEM_HEAVY_ATOM_COUNT>
21

> <PUBCHEM_ATOM_DEF_STEREO_COUNT>
1

> <PUBCHEM_ATOM_UDEF_STEREO_COUNT>
0

> <PUBCHEM_BOND_DEF_STEREO_COUNT>
0

> <PUBCHEM_BOND_UDEF_STEREO_COUNT>
0

> <PUBCHEM_ISOTOPIC_ATOM_COUNT>
0

> <PUBCHEM_COMPONENT_COUNT>
1

> <PUBCHEM_CACTVS_TAUTO_COUNT>
39

> <PUBCHEM_COORDINATE_TYPE>
1
5
255

> <PUBCHEM_BONDANNOTATIONS>
10  15  8
12  16  8
13  18  8
14  19  8
15  17  8
16  17  8
18  20  8
19  20  8
6  9  5
8  10  8
8  12  8
9  13  8
9  14  8

$$$$

