8781
  -OEChem-06261203062D

 72 71  0     1  0  0  0  0  0999 V2000
   16.7224    2.0000    0.0000 O   0  0  0  0  0  0  0  0  0  0  0  0
    5.4641    1.5000    0.0000 O   0  0  0  0  0  0  0  0  0  0  0  0
    6.3301    3.0000    0.0000 O   0  0  0  0  0  0  0  0  0  0  0  0
   17.5885    0.5000    0.0000 O   0  0  0  0  0  0  0  0  0  0  0  0
   15.8564    0.5000    0.0000 C   0  0  0  0  0  0  0  0  0  0  0  0
   15.8564    1.5000    0.0000 C   0  0  3  0  0  0  0  0  0  0  0  0
   14.9904    0.0000    0.0000 C   0  0  0  0  0  0  0  0  0  0  0  0
   14.9904   -1.0000    0.0000 C   0  0  0  0  0  0  0  0  0  0  0  0
   14.9904    2.0000    0.0000 C   0  0  0  0  0  0  0  0  0  0  0  0
   10.6603    1.5000    0.0000 C   0  0  0  0  0  0  0  0  0  0  0  0
    9.7942    2.0000    0.0000 C   0  0  0  0  0  0  0  0  0  0  0  0
   11.5263    2.0000    0.0000 C   0  0  0  0  0  0  0  0  0  0  0  0
   14.1244   -1.5000    0.0000 C   0  0  0  0  0  0  0  0  0  0  0  0
    8.9282    1.5000    0.0000 C   0  0  0  0  0  0  0  0  0  0  0  0
   12.3923    1.5000    0.0000 C   0  0  0  0  0  0  0  0  0  0  0  0
    8.0622    2.0000    0.0000 C   0  0  0  0  0  0  0  0  0  0  0  0
   14.1244    1.5000    0.0000 C   0  0  0  0  0  0  0  0  0  0  0  0
   14.1244   -2.5000    0.0000 C   0  0  0  0  0  0  0  0  0  0  0  0
   13.2583    2.0000    0.0000 C   0  0  0  0  0  0  0  0  0  0  0  0
    7.1962    1.5000    0.0000 C   0  0  0  0  0  0  0  0  0  0  0  0
   13.2583   -3.0000    0.0000 C   0  0  0  0  0  0  0  0  0  0  0  0
   17.5885    1.5000    0.0000 C   0  0  0  0  0  0  0  0  0  0  0  0
    6.3301    2.0000    0.0000 C   0  0  0  0  0  0  0  0  0  0  0  0
    4.5981    2.0000    0.0000 C   0  0  0  0  0  0  0  0  0  0  0  0
   18.4545    2.0000    0.0000 C   0  0  0  0  0  0  0  0  0  0  0  0
    3.7320    1.5000    0.0000 C   0  0  0  0  0  0  0  0  0  0  0  0
    2.8660    2.0000    0.0000 C   0  0  0  0  0  0  0  0  0  0  0  0
    2.0000    1.5000    0.0000 C   0  0  0  0  0  0  0  0  0  0  0  0
   16.0685   -0.0826    0.0000 H   0  0  0  0  0  0  0  0  0  0  0  0
   16.4670    0.6077    0.0000 H   0  0  0  0  0  0  0  0  0  0  0  0
   16.5925    1.0750    0.0000 H   0  0  0  0  0  0  0  0  0  0  0  0
   14.7783    0.5826    0.0000 H   0  0  0  0  0  0  0  0  0  0  0  0
   14.3798   -0.1077    0.0000 H   0  0  0  0  0  0  0  0  0  0  0  0
   15.2024   -1.5826    0.0000 H   0  0  0  0  0  0  0  0  0  0  0  0
   15.6010   -0.8923    0.0000 H   0  0  0  0  0  0  0  0  0  0  0  0
   15.3889    2.4750    0.0000 H   0  0  0  0  0  0  0  0  0  0  0  0
   14.5919    2.4750    0.0000 H   0  0  0  0  0  0  0  0  0  0  0  0
   10.2617    1.0250    0.0000 H   0  0  0  0  0  0  0  0  0  0  0  0
   11.0588    1.0250    0.0000 H   0  0  0  0  0  0  0  0  0  0  0  0
   10.1928    2.4750    0.0000 H   0  0  0  0  0  0  0  0  0  0  0  0
    9.3957    2.4750    0.0000 H   0  0  0  0  0  0  0  0  0  0  0  0
   11.9248    2.4750    0.0000 H   0  0  0  0  0  0  0  0  0  0  0  0
   11.1278    2.4750    0.0000 H   0  0  0  0  0  0  0  0  0  0  0  0
   13.9123   -0.9174    0.0000 H   0  0  0  0  0  0  0  0  0  0  0  0
   13.5138   -1.6077    0.0000 H   0  0  0  0  0  0  0  0  0  0  0  0
    8.5297    1.0250    0.0000 H   0  0  0  0  0  0  0  0  0  0  0  0
    9.3267    1.0250    0.0000 H   0  0  0  0  0  0  0  0  0  0  0  0
   11.9938    1.0250    0.0000 H   0  0  0  0  0  0  0  0  0  0  0  0
   12.7908    1.0250    0.0000 H   0  0  0  0  0  0  0  0  0  0  0  0
    8.4607    2.4750    0.0000 H   0  0  0  0  0  0  0  0  0  0  0  0
    7.6636    2.4750    0.0000 H   0  0  0  0  0  0  0  0  0  0  0  0
   14.1244    0.8800    0.0000 H   0  0  0  0  0  0  0  0  0  0  0  0
   14.3364   -3.0826    0.0000 H   0  0  0  0  0  0  0  0  0  0  0  0
   14.7349   -2.3923    0.0000 H   0  0  0  0  0  0  0  0  0  0  0  0
   13.2583    2.6200    0.0000 H   0  0  0  0  0  0  0  0  0  0  0  0
    6.7976    1.0250    0.0000 H   0  0  0  0  0  0  0  0  0  0  0  0
    7.5947    1.0250    0.0000 H   0  0  0  0  0  0  0  0  0  0  0  0
   12.9483   -2.4631    0.0000 H   0  0  0  0  0  0  0  0  0  0  0  0
   12.7214   -3.3100    0.0000 H   0  0  0  0  0  0  0  0  0  0  0  0
   13.5683   -3.5369    0.0000 H   0  0  0  0  0  0  0  0  0  0  0  0
    4.9966    2.4750    0.0000 H   0  0  0  0  0  0  0  0  0  0  0  0
    4.1996    2.4750    0.0000 H   0  0  0  0  0  0  0  0  0  0  0  0
    3.3335    1.0250    0.0000 H   0  0  0  0  0  0  0  0  0  0  0  0
    4.1306    1.0250    0.0000 H   0  0  0  0  0  0  0  0  0  0  0  0
   18.7645    1.4631    0.0000 H   0  0  0  0  0  0  0  0  0  0  0  0
   18.9914    2.3100    0.0000 H   0  0  0  0  0  0  0  0  0  0  0  0
   18.1445    2.5369    0.0000 H   0  0  0  0  0  0  0  0  0  0  0  0
    3.2646    2.4750    0.0000 H   0  0  0  0  0  0  0  0  0  0  0  0
    2.4675    2.4750    0.0000 H   0  0  0  0  0  0  0  0  0  0  0  0
    1.6900    2.0369    0.0000 H   0  0  0  0  0  0  0  0  0  0  0  0
    1.4631    1.1900    0.0000 H   0  0  0  0  0  0  0  0  0  0  0  0
    2.3100    0.9631    0.0000 H   0  0  0  0  0  0  0  0  0  0  0  0
  1  6  1  0  0  0  0
  1 22  1  0  0  0  0
  2 23  1  0  0  0  0
  2 24  1  0  0  0  0
  3 23  2  0  0  0  0
  4 22  2  0  0  0  0
  5  6  1  0  0  0  0
  5  7  1  0  0  0  0
  5 29  1  0  0  0  0
  5 30  1  0  0  0  0
  6  9  1  0  0  0  0
  6 31  1  0  0  0  0
  7  8  1  0  0  0  0
  7 32  1  0  0  0  0
  7 33  1  0  0  0  0
  8 13  1  0  0  0  0
  8 34  1  0  0  0  0
  8 35  1  0  0  0  0
  9 17  1  0  0  0  0
  9 36  1  0  0  0  0
  9 37  1  0  0  0  0
 10 11  1  0  0  0  0
 10 12  1  0  0  0  0
 10 38  1  0  0  0  0
 10 39  1  0  0  0  0
 11 14  1  0  0  0  0
 11 40  1  0  0  0  0
 11 41  1  0  0  0  0
 12 15  1  0  0  0  0
 12 42  1  0  0  0  0
 12 43  1  0  0  0  0
 13 18  1  0  0  0  0
 13 44  1  0  0  0  0
 13 45  1  0  0  0  0
 14 16  1  0  0  0  0
 14 46  1  0  0  0  0
 14 47  1  0  0  0  0
 15 19  1  0  0  0  0
 15 48  1  0  0  0  0
 15 49  1  0  0  0  0
 16 20  1  0  0  0  0
 16 50  1  0  0  0  0
 16 51  1  0  0  0  0
 17 19  2  3  0  0  0
 17 52  1  0  0  0  0
 18 21  1  0  0  0  0
 18 53  1  0  0  0  0
 18 54  1  0  0  0  0
 19 55  1  0  0  0  0
 20 23  1  0  0  0  0
 20 56  1  0  0  0  0
 20 57  1  0  0  0  0
 21 58  1  0  0  0  0
 21 59  1  0  0  0  0
 21 60  1  0  0  0  0
 22 25  1  0  0  0  0
 24 26  1  0  0  0  0
 24 61  1  0  0  0  0
 24 62  1  0  0  0  0
 25 65  1  0  0  0  0
 25 66  1  0  0  0  0
 25 67  1  0  0  0  0
 26 27  1  0  0  0  0
 26 63  1  0  0  0  0
 26 64  1  0  0  0  0
 27 28  1  0  0  0  0
 27 68  1  0  0  0  0
 27 69  1  0  0  0  0
 28 70  1  0  0  0  0
 28 71  1  0  0  0  0
 28 72  1  0  0  0  0
M  END
> <PUBCHEM_COMPOUND_CID>
8781

> <PUBCHEM_COMPOUND_CANONICALIZED>
1

> <PUBCHEM_CACTVS_COMPLEXITY>
403

> <PUBCHEM_CACTVS_HBOND_ACCEPTOR>
4

> <PUBCHEM_CACTVS_HBOND_DONOR>
0

> <PUBCHEM_CACTVS_ROTATABLE_BOND>
21

> <PUBCHEM_CACTVS_SUBSKEYS>
AAADcfB4OAAAAAAAAAAAAAAAAAAAAAAAAAAAAAAAAAAAAAAAAAAAGgAAAAAACBSggAICCAAABACIACDSCAAAAAAgAAAICAEAAAgAABIAAQACAAAEwAAIAAOIyKCAAAAAAAAAAAAAAAAAAAAAAAAAAAAAAA==

> <PUBCHEM_IUPAC_OPENEYE_NAME>
butyl 12-acetoxyoctadec-9-enoate

> <PUBCHEM_IUPAC_CAS_NAME>
12-acetyloxy-9-octadecenoic acid butyl ester

> <PUBCHEM_IUPAC_NAME>
butyl 12-acetyloxyoctadec-9-enoate

> <PUBCHEM_IUPAC_SYSTEMATIC_NAME>
butyl 12-acetyloxyoctadec-9-enoate

> <PUBCHEM_IUPAC_TRADITIONAL_NAME>
12-acetoxyoctadec-9-enoic acid butyl ester

> <PUBCHEM_IUPAC_INCHI>
InChI=1S/C24H44O4/c1-4-6-8-15-18-23(28-22(3)25)19-16-13-11-9-10-12-14-17-20-24(26)27-21-7-5-2/h13,16,23H,4-12,14-15,17-21H2,1-3H3

> <PUBCHEM_IUPAC_INCHIKEY>
BEWFIPLBFJGWSR-UHFFFAOYSA-N

> <PUBCHEM_XLOGP3_AA>
7.9

> <PUBCHEM_EXACT_MASS>
396.32396

> <PUBCHEM_MOLECULAR_FORMULA>
C24H44O4

> <PUBCHEM_MOLECULAR_WEIGHT>
396.60376

> <PUBCHEM_OPENEYE_CAN_SMILES>
CCCCCCC(CC=CCCCCCCCC(=O)OCCCC)OC(=O)C

> <PUBCHEM_OPENEYE_ISO_SMILES>
CCCCCCC(CC=CCCCCCCCC(=O)OCCCC)OC(=O)C

> <PUBCHEM_CACTVS_TPSA>
52.6

> <PUBCHEM_MONOISOTOPIC_WEIGHT>
396.32396

> <PUBCHEM_TOTAL_CHARGE>
0

> <PUBCHEM_HEAVY_ATOM_COUNT>
28

> <PUBCHEM_ATOM_DEF_STEREO_COUNT>
0

> <PUBCHEM_ATOM_UDEF_STEREO_COUNT>
1

> <PUBCHEM_BOND_DEF_STEREO_COUNT>
0

> <PUBCHEM_BOND_UDEF_STEREO_COUNT>
1

> <PUBCHEM_ISOTOPIC_ATOM_COUNT>
0

> <PUBCHEM_COMPONENT_COUNT>
1

> <PUBCHEM_CACTVS_TAUTO_COUNT>
1

> <PUBCHEM_COORDINATE_TYPE>
1
5
255

> <PUBCHEM_BONDANNOTATIONS>
17  19  1
6  31  3

$$$$

