442295
  -OEChem-07051212572D

 63 65  0     1  0  0  0  0  0999 V2000
    4.6397   -2.2989    0.0000 O   0  0  0  0  0  0  0  0  0  0  0  0
    4.0037    1.8765    0.0000 O   0  0  0  0  0  0  0  0  0  0  0  0
    6.6021    0.3172    0.0000 O   0  0  0  0  0  0  0  0  0  0  0  0
    6.9696   -2.0760    0.0000 O   0  0  0  0  0  0  0  0  0  0  0  0
    6.0518   -3.3765    0.0000 O   0  0  0  0  0  0  0  0  0  0  0  0
    2.2716    1.8765    0.0000 O   0  0  0  0  0  0  0  0  0  0  0  0
    6.2167    2.0058    0.0000 O   0  0  0  0  0  0  0  0  0  0  0  0
    7.7930   -0.5521    0.0000 O   0  0  0  0  0  0  0  0  0  0  0  0
    3.6027   -0.8803    0.0000 C   0  0  2  0  0  0  0  0  0  0  0  0
    3.3802    0.0947    0.0000 C   0  0  2  0  0  0  0  0  0  0  0  0
    5.4047   -0.8803    0.0000 C   0  0  1  0  0  0  0  0  0  0  0  0
    4.5037   -1.3141    0.0000 C   0  0  1  0  0  0  0  0  0  0  0  0
    4.0037    0.8765    0.0000 C   0  0  2  0  0  0  0  0  0  0  0  0
    5.6272    0.0947    0.0000 C   0  0  2  0  0  0  0  0  0  0  0  0
    5.0037    0.8765    0.0000 C   0  0  0  0  0  0  0  0  0  0  0  0
    6.0898   -1.6006    0.0000 C   0  0  1  0  0  0  0  0  0  0  0  0
    2.3899    0.1812    0.0000 C   0  0  0  0  0  0  0  0  0  0  0  0
    2.7480   -1.3879    0.0000 C   0  0  0  0  0  0  0  0  0  0  0  0
    2.0000   -0.7332    0.0000 C   0  0  0  0  0  0  0  0  0  0  0  0
    5.6180   -2.4755    0.0000 C   0  0  0  0  0  0  0  0  0  0  0  0
    3.2219    1.5000    0.0000 C   0  0  0  0  0  0  0  0  0  0  0  0
    6.8138   -0.9107    0.0000 C   0  0  0  0  0  0  0  0  0  0  0  0
    2.6567   -2.3837    0.0000 C   0  0  0  0  0  0  0  0  0  0  0  0
    3.1377    2.3765    0.0000 C   0  0  0  0  0  0  0  0  0  0  0  0
    6.8969    1.2728    0.0000 C   0  0  0  0  0  0  0  0  0  0  0  0
    7.8211   -1.5517    0.0000 C   0  0  0  0  0  0  0  0  0  0  0  0
    7.8718    1.4953    0.0000 C   0  0  0  0  0  0  0  0  0  0  0  0
    3.1377    3.3765    0.0000 C   0  0  0  0  0  0  0  0  0  0  0  0
    8.7009   -2.0271    0.0000 C   0  0  0  0  0  0  0  0  0  0  0  0
    8.1666    2.4509    0.0000 C   0  0  0  0  0  0  0  0  0  0  0  0
    8.5520    0.7622    0.0000 C   0  0  0  0  0  0  0  0  0  0  0  0
    3.6398   -1.7294    0.0000 H   0  0  0  0  0  0  0  0  0  0  0  0
    3.0451    0.8758    0.0000 H   0  0  0  0  0  0  0  0  0  0  0  0
    6.2243   -0.6552    0.0000 H   0  0  0  0  0  0  0  0  0  0  0  0
    3.8167   -1.8146    0.0000 H   0  0  0  0  0  0  0  0  0  0  0  0
    5.8320    0.6799    0.0000 H   0  0  0  0  0  0  0  0  0  0  0  0
    5.5623    1.1455    0.0000 H   0  0  0  0  0  0  0  0  0  0  0  0
    4.8657    1.4810    0.0000 H   0  0  0  0  0  0  0  0  0  0  0  0
    2.5085    0.7898    0.0000 H   0  0  0  0  0  0  0  0  0  0  0  0
    1.7972    0.3631    0.0000 H   0  0  0  0  0  0  0  0  0  0  0  0
    1.3955   -0.8712    0.0000 H   0  0  0  0  0  0  0  0  0  0  0  0
    3.6084    1.9847    0.0000 H   0  0  0  0  0  0  0  0  0  0  0  0
    2.7371    1.8866    0.0000 H   0  0  0  0  0  0  0  0  0  0  0  0
    2.8353    1.0152    0.0000 H   0  0  0  0  0  0  0  0  0  0  0  0
    7.2414   -1.3596    0.0000 H   0  0  0  0  0  0  0  0  0  0  0  0
    7.2626   -0.4831    0.0000 H   0  0  0  0  0  0  0  0  0  0  0  0
    6.3861   -0.4619    0.0000 H   0  0  0  0  0  0  0  0  0  0  0  0
    2.0393   -2.3271    0.0000 H   0  0  0  0  0  0  0  0  0  0  0  0
    2.6000   -3.0011    0.0000 H   0  0  0  0  0  0  0  0  0  0  0  0
    3.2741   -2.4404    0.0000 H   0  0  0  0  0  0  0  0  0  0  0  0
    7.6890    0.9028    0.0000 H   0  0  0  0  0  0  0  0  0  0  0  0
    3.7577    3.3765    0.0000 H   0  0  0  0  0  0  0  0  0  0  0  0
    3.1377    3.9965    0.0000 H   0  0  0  0  0  0  0  0  0  0  0  0
    2.5177    3.3765    0.0000 H   0  0  0  0  0  0  0  0  0  0  0  0
    8.4062   -2.5726    0.0000 H   0  0  0  0  0  0  0  0  0  0  0  0
    9.2464   -2.3219    0.0000 H   0  0  0  0  0  0  0  0  0  0  0  0
    8.9956   -1.4817    0.0000 H   0  0  0  0  0  0  0  0  0  0  0  0
    8.7590    2.2681    0.0000 H   0  0  0  0  0  0  0  0  0  0  0  0
    8.3493    3.0433    0.0000 H   0  0  0  0  0  0  0  0  0  0  0  0
    7.5741    2.6336    0.0000 H   0  0  0  0  0  0  0  0  0  0  0  0
    8.0975    0.3405    0.0000 H   0  0  0  0  0  0  0  0  0  0  0  0
    8.9737    0.3077    0.0000 H   0  0  0  0  0  0  0  0  0  0  0  0
    9.0065    1.1839    0.0000 H   0  0  0  0  0  0  0  0  0  0  0  0
  1 12  1  0  0  0  0
  1 20  1  0  0  0  0
 13  2  1  1  0  0  0
  2 24  1  0  0  0  0
 14  3  1  6  0  0  0
  3 25  1  0  0  0  0
 16  4  1  6  0  0  0
  4 26  1  0  0  0  0
  5 20  2  0  0  0  0
  6 24  2  0  0  0  0
  7 25  2  0  0  0  0
  8 26  2  0  0  0  0
  9 10  1  0  0  0  0
  9 12  1  0  0  0  0
  9 18  1  0  0  0  0
  9 32  1  1  0  0  0
 10 13  1  0  0  0  0
 10 17  1  0  0  0  0
 10 33  1  6  0  0  0
 11 12  1  0  0  0  0
 11 14  1  0  0  0  0
 11 16  1  0  0  0  0
 11 34  1  6  0  0  0
 12 35  1  6  0  0  0
 13 15  1  0  0  0  0
 13 21  1  0  0  0  0
 14 15  1  0  0  0  0
 14 36  1  0  0  0  0
 15 37  1  0  0  0  0
 15 38  1  0  0  0  0
 16 20  1  0  0  0  0
 16 22  1  0  0  0  0
 17 19  1  0  0  0  0
 17 39  1  0  0  0  0
 17 40  1  0  0  0  0
 18 19  2  0  0  0  0
 18 23  1  0  0  0  0
 19 41  1  0  0  0  0
 21 42  1  0  0  0  0
 21 43  1  0  0  0  0
 21 44  1  0  0  0  0
 22 45  1  0  0  0  0
 22 46  1  0  0  0  0
 22 47  1  0  0  0  0
 23 48  1  0  0  0  0
 23 49  1  0  0  0  0
 23 50  1  0  0  0  0
 24 28  1  0  0  0  0
 25 27  1  0  0  0  0
 26 29  1  0  0  0  0
 27 30  1  0  0  0  0
 27 31  1  0  0  0  0
 27 51  1  0  0  0  0
 28 52  1  0  0  0  0
 28 53  1  0  0  0  0
 28 54  1  0  0  0  0
 29 55  1  0  0  0  0
 29 56  1  0  0  0  0
 29 57  1  0  0  0  0
 30 58  1  0  0  0  0
 30 59  1  0  0  0  0
 30 60  1  0  0  0  0
 31 61  1  0  0  0  0
 31 62  1  0  0  0  0
 31 63  1  0  0  0  0
M  END
> <PUBCHEM_COMPOUND_CID>
442295

> <PUBCHEM_COMPOUND_CANONICALIZED>
1

> <PUBCHEM_CACTVS_COMPLEXITY>
829

> <PUBCHEM_CACTVS_HBOND_ACCEPTOR>
8

> <PUBCHEM_CACTVS_HBOND_DONOR>
0

> <PUBCHEM_CACTVS_ROTATABLE_BOND>
7

> <PUBCHEM_CACTVS_SUBSKEYS>
AAADcfB4PAAAAAAAAAAAAAAAAAAAASIAAAAAAAAABgAAAACQAAAAGgAAAAAADVSggAICCAAABACIAiDSCAIAAAAgAAAACAFAAAgBABIAAQQCAAAFwAAKAAPK6PyOgAAAAAAAAAAAAAAAAAAAAAAAAAAAAA==

> <PUBCHEM_IUPAC_OPENEYE_NAME>
[(3S,3aR,4S,6S,6aR,9aS,9bS)-3,6-diacetoxy-3,6,9-trimethyl-2-oxo-4,5,6a,7,9a,9b-hexahydro-3aH-azuleno[4,5-b]furan-4-yl] 2-methylpropanoate

> <PUBCHEM_IUPAC_CAS_NAME>
2-methylpropanoic acid [(3S,3aR,4S,6S,6aR,9aS,9bS)-3,6-diacetyloxy-3,6,9-trimethyl-2-oxo-4,5,6a,7,9a,9b-hexahydro-3aH-azuleno[4,5-b]furan-4-yl] ester

> <PUBCHEM_IUPAC_NAME>
[(3S,3aR,4S,6S,6aR,9aS,9bS)-3,6-diacetyloxy-3,6,9-trimethyl-2-oxo-4,5,6a,7,9a,9b-hexahydro-3aH-azuleno[4,5-b]furan-4-yl] 2-methylpropanoate

> <PUBCHEM_IUPAC_SYSTEMATIC_NAME>
[(3S,3aR,4S,6S,6aR,9aS,9bS)-3,6-diacetyloxy-3,6,9-trimethyl-2-oxidanylidene-4,5,6a,7,9a,9b-hexahydro-3aH-azuleno[4,5-b]furan-4-yl] 2-methylpropanoate

> <PUBCHEM_IUPAC_TRADITIONAL_NAME>
2-methylpropionic acid [(3S,3aR,4S,6S,6aR,9aS,9bS)-3,6-diacetoxy-2-keto-3,6,9-trimethyl-4,5,6a,7,9a,9b-hexahydro-3aH-azuleno[4,5-b]furan-4-yl] ester

> <PUBCHEM_IUPAC_INCHI>
InChI=1S/C23H32O8/c1-11(2)20(26)28-16-10-22(6,30-13(4)24)15-9-8-12(3)17(15)19-18(16)23(7,21(27)29-19)31-14(5)25/h8,11,15-19H,9-10H2,1-7H3/t15-,16+,17-,18-,19+,22+,23+/m1/s1

> <PUBCHEM_IUPAC_INCHIKEY>
YNZANXMCWKBMJS-JMFNMADFSA-N

> <PUBCHEM_XLOGP3_AA>
2.7

> <PUBCHEM_EXACT_MASS>
436.209718

> <PUBCHEM_MOLECULAR_FORMULA>
C23H32O8

> <PUBCHEM_MOLECULAR_WEIGHT>
436.49538

> <PUBCHEM_OPENEYE_CAN_SMILES>
CC1=CCC2C1C3C(C(CC2(C)OC(=O)C)OC(=O)C(C)C)C(C(=O)O3)(C)OC(=O)C

> <PUBCHEM_OPENEYE_ISO_SMILES>
CC1=CC[C@@H]2[C@@H]1[C@H]3[C@@H]([C@H](C[C@]2(C)OC(=O)C)OC(=O)C(C)C)[C@](C(=O)O3)(C)OC(=O)C

> <PUBCHEM_CACTVS_TPSA>
105

> <PUBCHEM_MONOISOTOPIC_WEIGHT>
436.209718

> <PUBCHEM_TOTAL_CHARGE>
0

> <PUBCHEM_HEAVY_ATOM_COUNT>
31

> <PUBCHEM_ATOM_DEF_STEREO_COUNT>
7

> <PUBCHEM_ATOM_UDEF_STEREO_COUNT>
0

> <PUBCHEM_BOND_DEF_STEREO_COUNT>
0

> <PUBCHEM_BOND_UDEF_STEREO_COUNT>
0

> <PUBCHEM_ISOTOPIC_ATOM_COUNT>
0

> <PUBCHEM_COMPONENT_COUNT>
1

> <PUBCHEM_CACTVS_TAUTO_COUNT>
1

> <PUBCHEM_COORDINATE_TYPE>
1
5
255

> <PUBCHEM_BONDANNOTATIONS>
10  33  6
11  34  6
12  35  6
13  2  5
14  3  6
16  4  6
9  32  5

$$$$

