242345
  -OEChem-07051213062D

 69 72  0     1  0  0  0  0  0999 V2000
    2.0000   -4.2239    0.0000 O   0  0  0  0  0  0  0  0  0  0  0  0
    6.2735   -0.0891    0.0000 C   0  0  1  0  0  0  0  0  0  0  0  0
    6.2735   -1.0891    0.0000 C   0  0  2  0  0  0  0  0  0  0  0  0
    5.4075   -1.5891    0.0000 C   0  0  1  0  0  0  0  0  0  0  0  0
    4.5414   -1.0891    0.0000 C   0  0  1  0  0  0  0  0  0  0  0  0
    7.2197    0.2156    0.0000 C   0  0  2  0  0  0  0  0  0  0  0  0
    3.8044   -1.7562    0.0000 C   0  0  2  0  0  0  0  0  0  0  0  0
    5.4075    0.4109    0.0000 C   0  0  0  0  0  0  0  0  0  0  0  0
    7.2197   -1.3939    0.0000 C   0  0  0  0  0  0  0  0  0  0  0  0
    4.5414   -0.0891    0.0000 C   0  0  0  0  0  0  0  0  0  0  0  0
    5.1983   -2.5610    0.0000 C   0  0  0  0  0  0  0  0  0  0  0  0
    7.8033   -0.5891    0.0000 C   0  0  0  0  0  0  0  0  0  0  0  0
    4.2096   -2.6640    0.0000 C   0  0  0  0  0  0  0  0  0  0  0  0
    6.2735    0.9109    0.0000 C   0  0  0  0  0  0  0  0  0  0  0  0
    7.5304    1.1661    0.0000 C   0  0  1  0  0  0  0  0  0  0  0  0
    2.7763   -1.6330    0.0000 C   0  0  0  0  0  0  0  0  0  0  0  0
    3.3969   -0.8430    0.0000 C   0  0  0  0  0  0  0  0  0  0  0  0
    3.6146   -3.5115    0.0000 C   0  0  0  0  0  0  0  0  0  0  0  0
    2.1620   -2.4665    0.0000 C   0  0  0  0  0  0  0  0  0  0  0  0
    8.5089    1.3723    0.0000 C   0  0  0  0  0  0  0  0  0  0  0  0
    6.8625    1.9104    0.0000 C   0  0  0  0  0  0  0  0  0  0  0  0
    2.5840   -3.4121    0.0000 C   0  0  0  0  0  0  0  0  0  0  0  0
    8.8196    2.3228    0.0000 C   0  0  0  0  0  0  0  0  0  0  0  0
    9.7981    2.5291    0.0000 C   0  0  0  0  0  0  0  0  0  0  0  0
   10.1087    3.4796    0.0000 C   0  0  0  0  0  0  0  0  0  0  0  0
   11.0872    3.6858    0.0000 C   0  0  0  0  0  0  0  0  0  0  0  0
    9.4409    4.2239    0.0000 C   0  0  0  0  0  0  0  0  0  0  0  0
    6.3634   -1.9344    0.0000 H   0  0  0  0  0  0  0  0  0  0  0  0
    6.0945   -2.0896    0.0000 H   0  0  0  0  0  0  0  0  0  0  0  0
    3.7645   -0.7444    0.0000 H   0  0  0  0  0  0  0  0  0  0  0  0
    8.0594    0.3475    0.0000 H   0  0  0  0  0  0  0  0  0  0  0  0
    5.8060    0.8858    0.0000 H   0  0  0  0  0  0  0  0  0  0  0  0
    5.0089    0.8858    0.0000 H   0  0  0  0  0  0  0  0  0  0  0  0
    6.9687   -1.9608    0.0000 H   0  0  0  0  0  0  0  0  0  0  0  0
    7.7571   -1.7031    0.0000 H   0  0  0  0  0  0  0  0  0  0  0  0
    4.3294    0.4935    0.0000 H   0  0  0  0  0  0  0  0  0  0  0  0
    3.9309   -0.1968    0.0000 H   0  0  0  0  0  0  0  0  0  0  0  0
    5.1974   -3.1810    0.0000 H   0  0  0  0  0  0  0  0  0  0  0  0
    5.8148   -2.6270    0.0000 H   0  0  0  0  0  0  0  0  0  0  0  0
    8.2642   -1.0039    0.0000 H   0  0  0  0  0  0  0  0  0  0  0  0
    8.2642   -0.1744    0.0000 H   0  0  0  0  0  0  0  0  0  0  0  0
    6.8935    0.9109    0.0000 H   0  0  0  0  0  0  0  0  0  0  0  0
    6.2735    1.5309    0.0000 H   0  0  0  0  0  0  0  0  0  0  0  0
    5.6535    0.9109    0.0000 H   0  0  0  0  0  0  0  0  0  0  0  0
    7.7230    1.7554    0.0000 H   0  0  0  0  0  0  0  0  0  0  0  0
    2.9543   -1.0391    0.0000 H   0  0  0  0  0  0  0  0  0  0  0  0
    2.2217   -1.3560    0.0000 H   0  0  0  0  0  0  0  0  0  0  0  0
    3.9631   -0.5904    0.0000 H   0  0  0  0  0  0  0  0  0  0  0  0
    3.1442   -0.2768    0.0000 H   0  0  0  0  0  0  0  0  0  0  0  0
    2.8307   -1.0957    0.0000 H   0  0  0  0  0  0  0  0  0  0  0  0
    3.8738   -4.0747    0.0000 H   0  0  0  0  0  0  0  0  0  0  0  0
    1.7332   -2.0187    0.0000 H   0  0  0  0  0  0  0  0  0  0  0  0
    1.6474   -2.8124    0.0000 H   0  0  0  0  0  0  0  0  0  0  0  0
    8.5295    0.7527    0.0000 H   0  0  0  0  0  0  0  0  0  0  0  0
    9.1227    1.2850    0.0000 H   0  0  0  0  0  0  0  0  0  0  0  0
    7.3240    2.3245    0.0000 H   0  0  0  0  0  0  0  0  0  0  0  0
    6.4485    2.3719    0.0000 H   0  0  0  0  0  0  0  0  0  0  0  0
    6.4011    1.4964    0.0000 H   0  0  0  0  0  0  0  0  0  0  0  0
    8.7990    2.9425    0.0000 H   0  0  0  0  0  0  0  0  0  0  0  0
    8.2057    2.4102    0.0000 H   0  0  0  0  0  0  0  0  0  0  0  0
    9.8186    1.9094    0.0000 H   0  0  0  0  0  0  0  0  0  0  0  0
   10.4119    2.4417    0.0000 H   0  0  0  0  0  0  0  0  0  0  0  0
   10.3013    4.0689    0.0000 H   0  0  0  0  0  0  0  0  0  0  0  0
   11.2151    3.0791    0.0000 H   0  0  0  0  0  0  0  0  0  0  0  0
   11.6939    3.8137    0.0000 H   0  0  0  0  0  0  0  0  0  0  0  0
   10.9594    4.2925    0.0000 H   0  0  0  0  0  0  0  0  0  0  0  0
    9.9024    4.6380    0.0000 H   0  0  0  0  0  0  0  0  0  0  0  0
    9.0268    4.6854    0.0000 H   0  0  0  0  0  0  0  0  0  0  0  0
    8.9794    3.8098    0.0000 H   0  0  0  0  0  0  0  0  0  0  0  0
  1 22  2  0  0  0  0
  2  3  1  0  0  0  0
  2  6  1  0  0  0  0
  2  8  1  0  0  0  0
  2 14  1  1  0  0  0
  3  4  1  0  0  0  0
  3  9  1  0  0  0  0
  3 28  1  6  0  0  0
  4  5  1  0  0  0  0
  4 11  1  0  0  0  0
  4 29  1  1  0  0  0
  5  7  1  0  0  0  0
  5 10  1  0  0  0  0
  5 30  1  6  0  0  0
  6 12  1  0  0  0  0
  6 15  1  0  0  0  0
  6 31  1  6  0  0  0
  7 13  1  0  0  0  0
  7 16  1  0  0  0  0
  7 17  1  1  0  0  0
  8 10  1  0  0  0  0
  8 32  1  0  0  0  0
  8 33  1  0  0  0  0
  9 12  1  0  0  0  0
  9 34  1  0  0  0  0
  9 35  1  0  0  0  0
 10 36  1  0  0  0  0
 10 37  1  0  0  0  0
 11 13  1  0  0  0  0
 11 38  1  0  0  0  0
 11 39  1  0  0  0  0
 12 40  1  0  0  0  0
 12 41  1  0  0  0  0
 13 18  2  0  0  0  0
 14 42  1  0  0  0  0
 14 43  1  0  0  0  0
 14 44  1  0  0  0  0
 15 20  1  0  0  0  0
 15 21  1  6  0  0  0
 15 45  1  0  0  0  0
 16 19  1  0  0  0  0
 16 46  1  0  0  0  0
 16 47  1  0  0  0  0
 17 48  1  0  0  0  0
 17 49  1  0  0  0  0
 17 50  1  0  0  0  0
 18 22  1  0  0  0  0
 18 51  1  0  0  0  0
 19 22  1  0  0  0  0
 19 52  1  0  0  0  0
 19 53  1  0  0  0  0
 20 23  1  0  0  0  0
 20 54  1  0  0  0  0
 20 55  1  0  0  0  0
 21 56  1  0  0  0  0
 21 57  1  0  0  0  0
 21 58  1  0  0  0  0
 23 24  1  0  0  0  0
 23 59  1  0  0  0  0
 23 60  1  0  0  0  0
 24 25  1  0  0  0  0
 24 61  1  0  0  0  0
 24 62  1  0  0  0  0
 25 26  1  0  0  0  0
 25 27  1  0  0  0  0
 25 63  1  0  0  0  0
 26 64  1  0  0  0  0
 26 65  1  0  0  0  0
 26 66  1  0  0  0  0
 27 67  1  0  0  0  0
 27 68  1  0  0  0  0
 27 69  1  0  0  0  0
M  END
> <PUBCHEM_COMPOUND_CID>
242345

> <PUBCHEM_COMPOUND_CANONICALIZED>
1

> <PUBCHEM_CACTVS_COMPLEXITY>
616

> <PUBCHEM_CACTVS_HBOND_ACCEPTOR>
1

> <PUBCHEM_CACTVS_HBOND_DONOR>
0

> <PUBCHEM_CACTVS_ROTATABLE_BOND>
5

> <PUBCHEM_CACTVS_SUBSKEYS>
AAADcfB4IAAAAAAAAAAAAAAAAAAAAYMAAAAwQAAAAAAAAGAAAAAAGgAAAAAADwSAgAACAAAAAACIAqBSAAAAAAAgAAAACAEAAEgAABIAAQAAAAAAgAAIAQMIiMCPgAAAAAAAAACAAAQAACAAAQAACAAAAA==

> <PUBCHEM_IUPAC_OPENEYE_NAME>
(3R,3aR,5aS,5bR,10aS,10bS)-3-[(1R)-1,5-dimethylhexyl]-3a,5b-dimethyl-2,3,4,5,5a,6,7,10,10a,10b-decahydro-1H-cyclopenta[a]fluoren-8-one

> <PUBCHEM_IUPAC_CAS_NAME>
(3R,3aR,5aS,5bR,10aS,10bS)-3a,5b-dimethyl-3-[(2R)-6-methylheptan-2-yl]-2,3,4,5,5a,6,7,10,10a,10b-decahydro-1H-cyclopenta[a]fluoren-8-one

> <PUBCHEM_IUPAC_NAME>
(3R,3aR,5aS,5bR,10aS,10bS)-3a,5b-dimethyl-3-[(2R)-6-methylheptan-2-yl]-2,3,4,5,5a,6,7,10,10a,10b-decahydro-1H-cyclopenta[a]fluoren-8-one

> <PUBCHEM_IUPAC_SYSTEMATIC_NAME>
(3R,3aR,5aS,5bR,10aS,10bS)-3a,5b-dimethyl-3-[(2R)-6-methylheptan-2-yl]-2,3,4,5,5a,6,7,10,10a,10b-decahydro-1H-cyclopenta[a]fluoren-8-one

> <PUBCHEM_IUPAC_TRADITIONAL_NAME>
(3R,3aR,5aS,5bR,10aS,10bS)-3-[(1R)-1,5-dimethylhexyl]-3a,5b-dimethyl-2,3,4,5,5a,6,7,10,10a,10b-decahydro-1H-cyclopenta[a]fluoren-8-one

> <PUBCHEM_IUPAC_INCHI>
InChI=1S/C26H42O/c1-17(2)7-6-8-18(3)22-9-10-23-21-16-19-15-20(27)11-13-25(19,4)24(21)12-14-26(22,23)5/h15,17-18,21-24H,6-14,16H2,1-5H3/t18-,21+,22-,23+,24+,25+,26-/m1/s1

> <PUBCHEM_IUPAC_INCHIKEY>
GLUQJSAOAFURSM-GHSKVMHMSA-N

> <PUBCHEM_XLOGP3_AA>
8

> <PUBCHEM_EXACT_MASS>
370.323566

> <PUBCHEM_MOLECULAR_FORMULA>
C26H42O

> <PUBCHEM_MOLECULAR_WEIGHT>
370.61108

> <PUBCHEM_OPENEYE_CAN_SMILES>
CC(C)CCCC(C)C1CCC2C1(CCC3C2CC4=CC(=O)CCC34C)C

> <PUBCHEM_OPENEYE_ISO_SMILES>
C[C@H](CCCC(C)C)[C@H]1CC[C@@H]2[C@@]1(CC[C@H]3[C@H]2CC4=CC(=O)CC[C@]34C)C

> <PUBCHEM_CACTVS_TPSA>
17.1

> <PUBCHEM_MONOISOTOPIC_WEIGHT>
370.323566

> <PUBCHEM_TOTAL_CHARGE>
0

> <PUBCHEM_HEAVY_ATOM_COUNT>
27

> <PUBCHEM_ATOM_DEF_STEREO_COUNT>
7

> <PUBCHEM_ATOM_UDEF_STEREO_COUNT>
0

> <PUBCHEM_BOND_DEF_STEREO_COUNT>
0

> <PUBCHEM_BOND_UDEF_STEREO_COUNT>
0

> <PUBCHEM_ISOTOPIC_ATOM_COUNT>
0

> <PUBCHEM_COMPONENT_COUNT>
1

> <PUBCHEM_CACTVS_TAUTO_COUNT>
5

> <PUBCHEM_COORDINATE_TYPE>
1
5
255

> <PUBCHEM_BONDANNOTATIONS>
15  21  6
2  14  5
3  28  6
4  29  5
5  30  6
6  31  6
7  17  5

$$$$

