126451
  -OEChem-07051212582D

 41 45  0     1  0  0  0  0  0999 V2000
    8.1507    3.2891    0.0000 O   0  0  0  0  0  0  0  0  0  0  0  0
    8.0944    0.4770    0.0000 O   0  0  0  0  0  0  0  0  0  0  0  0
    4.6660    0.2554    0.0000 O   0  0  0  0  0  0  0  0  0  0  0  0
    6.4144   -2.7792    0.0000 O   0  0  0  0  0  0  0  0  0  0  0  0
    4.6660   -2.7446    0.0000 O   0  0  0  0  0  0  0  0  0  0  0  0
    2.9176    1.2900    0.0000 O   0  0  0  0  0  0  0  0  0  0  0  0
    8.1584    2.2892    0.0000 C   0  0  1  0  0  0  0  0  0  0  0  0
    7.6651    1.4193    0.0000 C   0  0  1  0  0  0  0  0  0  0  0  0
    7.2886    2.7825    0.0000 C   0  0  0  0  0  0  0  0  0  0  0  0
    6.6361    1.3040    0.0000 C   0  0  0  0  0  0  0  0  0  0  0  0
    9.1584    2.2969    0.0000 C   0  0  0  0  0  0  0  0  0  0  0  0
    6.4260    0.2901    0.0000 C   0  0  0  0  0  0  0  0  0  0  0  0
    7.3321   -0.2237    0.0000 C   0  0  0  0  0  0  0  0  0  0  0  0
    5.5321   -0.2446    0.0000 C   0  0  0  0  0  0  0  0  0  0  0  0
    7.3321   -1.2654    0.0000 C   0  0  0  0  0  0  0  0  0  0  0  0
    5.5321   -1.2446    0.0000 C   0  0  0  0  0  0  0  0  0  0  0  0
    6.4260   -1.7792    0.0000 C   0  0  0  0  0  0  0  0  0  0  0  0
    4.6660   -1.7446    0.0000 C   0  0  0  0  0  0  0  0  0  0  0  0
    3.8000   -0.2446    0.0000 C   0  0  0  0  0  0  0  0  0  0  0  0
    3.8000   -1.2446    0.0000 C   0  0  0  0  0  0  0  0  0  0  0  0
    2.9061    0.2901    0.0000 C   0  0  0  0  0  0  0  0  0  0  0  0
    2.9061   -1.7792    0.0000 C   0  0  0  0  0  0  0  0  0  0  0  0
    2.0000   -0.2237    0.0000 C   0  0  0  0  0  0  0  0  0  0  0  0
    2.0000   -1.2654    0.0000 C   0  0  0  0  0  0  0  0  0  0  0  0
    7.2746   -3.2891    0.0000 C   0  0  0  0  0  0  0  0  0  0  0  0
    7.1970    2.1288    0.0000 H   0  0  0  0  0  0  0  0  0  0  0  0
    6.8864    3.2543    0.0000 H   0  0  0  0  0  0  0  0  0  0  0  0
    6.8937    2.3045    0.0000 H   0  0  0  0  0  0  0  0  0  0  0  0
    6.6322    1.9240    0.0000 H   0  0  0  0  0  0  0  0  0  0  0  0
    6.0191    1.3653    0.0000 H   0  0  0  0  0  0  0  0  0  0  0  0
    9.1632    1.6769    0.0000 H   0  0  0  0  0  0  0  0  0  0  0  0
    9.7784    2.3016    0.0000 H   0  0  0  0  0  0  0  0  0  0  0  0
    9.1536    2.9168    0.0000 H   0  0  0  0  0  0  0  0  0  0  0  0
    7.8678   -1.5774    0.0000 H   0  0  0  0  0  0  0  0  0  0  0  0
    2.9132   -2.3992    0.0000 H   0  0  0  0  0  0  0  0  0  0  0  0
    1.4643    0.0883    0.0000 H   0  0  0  0  0  0  0  0  0  0  0  0
    1.4643   -1.5774    0.0000 H   0  0  0  0  0  0  0  0  0  0  0  0
    6.9584   -3.8224    0.0000 H   0  0  0  0  0  0  0  0  0  0  0  0
    7.8079   -3.6053    0.0000 H   0  0  0  0  0  0  0  0  0  0  0  0
    7.5908   -2.7558    0.0000 H   0  0  0  0  0  0  0  0  0  0  0  0
    2.3843    1.6062    0.0000 H   0  0  0  0  0  0  0  0  0  0  0  0
  1  7  1  0  0  0  0
  1  9  1  0  0  0  0
  2  8  1  0  0  0  0
  2 13  1  0  0  0  0
  3 14  1  0  0  0  0
  3 19  1  0  0  0  0
  4 17  1  0  0  0  0
  4 25  1  0  0  0  0
  5 18  2  0  0  0  0
  6 21  1  0  0  0  0
  6 41  1  0  0  0  0
  7  8  1  0  0  0  0
  7  9  1  0  0  0  0
  7 11  1  6  0  0  0
  8 10  1  0  0  0  0
  8 26  1  1  0  0  0
  9 27  1  0  0  0  0
  9 28  1  0  0  0  0
 10 12  1  0  0  0  0
 10 29  1  0  0  0  0
 10 30  1  0  0  0  0
 11 31  1  0  0  0  0
 11 32  1  0  0  0  0
 11 33  1  0  0  0  0
 12 13  1  0  0  0  0
 12 14  2  0  0  0  0
 13 15  2  0  0  0  0
 14 16  1  0  0  0  0
 15 17  1  0  0  0  0
 15 34  1  0  0  0  0
 16 17  2  0  0  0  0
 16 18  1  0  0  0  0
 18 20  1  0  0  0  0
 19 20  2  0  0  0  0
 19 21  1  0  0  0  0
 20 22  1  0  0  0  0
 21 23  2  0  0  0  0
 22 24  2  0  0  0  0
 22 35  1  0  0  0  0
 23 24  1  0  0  0  0
 23 36  1  0  0  0  0
 24 37  1  0  0  0  0
 25 38  1  0  0  0  0
 25 39  1  0  0  0  0
 25 40  1  0  0  0  0
M  END
> <PUBCHEM_COMPOUND_CID>
126451

> <PUBCHEM_COMPOUND_CANONICALIZED>
1

> <PUBCHEM_CACTVS_COMPLEXITY>
566

> <PUBCHEM_CACTVS_HBOND_ACCEPTOR>
6

> <PUBCHEM_CACTVS_HBOND_DONOR>
1

> <PUBCHEM_CACTVS_ROTATABLE_BOND>
2

> <PUBCHEM_CACTVS_SUBSKEYS>
AAADceB4OAAAAAAAAAAAAAAAEgAAASAAAAA0YIAAAAAAAEiRQAAAGgAACAAADFSgmAIyBoAABgCIAqBSAAACCAAkIAAIiAEGiMgNJzaGNRqCeWOl4BULuYfK7PzOIAADCAAIQABAAAYQABCAAAAAAAAAAA==

> <PUBCHEM_IUPAC_OPENEYE_NAME>
(2R)-10-hydroxy-5-methoxy-2-[(2R)-2-methyloxiran-2-yl]-1,2-dihydrofuro[2,3-c]xanthen-6-one

> <PUBCHEM_IUPAC_CAS_NAME>
(2R)-10-hydroxy-5-methoxy-2-[(2R)-2-methyl-2-oxiranyl]-1,2-dihydrofuro[2,3-c]xanthen-6-one

> <PUBCHEM_IUPAC_NAME>
(2R)-10-hydroxy-5-methoxy-2-[(2R)-2-methyloxiran-2-yl]-1,2-dihydrofuro[2,3-c]xanthen-6-one

> <PUBCHEM_IUPAC_SYSTEMATIC_NAME>
(2R)-5-methoxy-2-[(2R)-2-methyloxiran-2-yl]-10-oxidanyl-1,2-dihydrofuro[2,3-c]xanthen-6-one

> <PUBCHEM_IUPAC_TRADITIONAL_NAME>
(2R)-10-hydroxy-5-methoxy-2-[(2R)-2-methyloxiran-2-yl]-1,2-dihydrofuro[2,3-c]xanthen-6-one

> <PUBCHEM_IUPAC_INCHI>
InChI=1S/C19H16O6/c1-19(8-23-19)14-6-10-12(24-14)7-13(22-2)15-16(21)9-4-3-5-11(20)17(9)25-18(10)15/h3-5,7,14,20H,6,8H2,1-2H3/t14-,19-/m1/s1

> <PUBCHEM_IUPAC_INCHIKEY>
BBNDPXOGORGETN-AUUYWEPGSA-N

> <PUBCHEM_XLOGP3_AA>
2.5

> <PUBCHEM_EXACT_MASS>
340.094688

> <PUBCHEM_MOLECULAR_FORMULA>
C19H16O6

> <PUBCHEM_MOLECULAR_WEIGHT>
340.32674

> <PUBCHEM_OPENEYE_CAN_SMILES>
CC1(CO1)C2CC3=C4C(=C(C=C3O2)OC)C(=O)C5=C(O4)C(=CC=C5)O

> <PUBCHEM_OPENEYE_ISO_SMILES>
C[C@@]1(CO1)[C@H]2CC3=C4C(=C(C=C3O2)OC)C(=O)C5=C(O4)C(=CC=C5)O

> <PUBCHEM_CACTVS_TPSA>
77.5

> <PUBCHEM_MONOISOTOPIC_WEIGHT>
340.094688

> <PUBCHEM_TOTAL_CHARGE>
0

> <PUBCHEM_HEAVY_ATOM_COUNT>
25

> <PUBCHEM_ATOM_DEF_STEREO_COUNT>
2

> <PUBCHEM_ATOM_UDEF_STEREO_COUNT>
0

> <PUBCHEM_BOND_DEF_STEREO_COUNT>
0

> <PUBCHEM_BOND_UDEF_STEREO_COUNT>
0

> <PUBCHEM_ISOTOPIC_ATOM_COUNT>
0

> <PUBCHEM_COMPONENT_COUNT>
1

> <PUBCHEM_CACTVS_TAUTO_COUNT>
2

> <PUBCHEM_COORDINATE_TYPE>
1
5
255

> <PUBCHEM_BONDANNOTATIONS>
12  13  8
12  14  8
13  15  8
14  16  8
15  17  8
16  17  8
16  18  8
18  20  8
19  20  8
19  21  8
20  22  8
21  23  8
22  24  8
23  24  8
3  14  8
3  19  8
7  11  6
8  26  5

$$$$

