   Color/Form

     * Pale yellow liquid
     * Amber color, oily liquid

   from [1]HSDB

   Odor
        Garlic-like
   from [2]HSDB

   Boiling Point
        100 deg C @ 1.35X10-2 mm Hg
   from [3]HSDB

   Density/Specific Gravity
        1.455 @ 20 deg C
   from [4]HSDB

   Octanol/Water Partition Coefficient
        log Kow = 4.68
   from [5]HSDB

   Solubilities

     * Readily miscible with most organic solvents.
     * In water, 28 mg/l @ 25 deg C

   from [6]HSDB

   Vapor Pressure
        9.00X10-7 mm Hg @ 25 deg C
   from [7]HSDB

   Computed Properties
   Molecular Weight                  373.630762 [g/mol]
   Molecular Formula                 C[11]H[15]BrClO[3]PS
   XLogP3                            4.7
   H-Bond Donor                      0
   H-Bond Acceptor                   4
   Rotatable Bond Count              7
   Exact Mass                        371.935142
   MonoIsotopic Mass                 371.935142
   Topological Polar Surface Area    60.8
   Heavy Atom Count                  18
   Formal Charge                     0
   Complexity                        296
   Isotope Atom Count                0
   Defined Atom Stereocenter Count   0
   Undefined Atom Stereocenter Count 1
   Defined Bond Stereocenter Count   0
   Undefined Bond Stereocenter Count 0
   Covalently-Bonded Unit Count      1
   Feature 3D Acceptor Count         1
   Feature 3D Hydrophobe Count       2
   Feature 3D Ring Count             1
   Effective Rotor Count             7
   Conformer Sampling RMSD           0.8
   CID Conformer Count               [8]251

References

   1. http://toxnet.nlm.nih.gov/cgi-bin/sis/search/r?dbs+hsdb:@term+@rn+@rel+41198-08-7
   2. http://toxnet.nlm.nih.gov/cgi-bin/sis/search/r?dbs+hsdb:@term+@rn+@rel+41198-08-7
   3. http://toxnet.nlm.nih.gov/cgi-bin/sis/search/r?dbs+hsdb:@term+@rn+@rel+41198-08-7
   4. http://toxnet.nlm.nih.gov/cgi-bin/sis/search/r?dbs+hsdb:@term+@rn+@rel+41198-08-7
   5. http://toxnet.nlm.nih.gov/cgi-bin/sis/search/r?dbs+hsdb:@term+@rn+@rel+41198-08-7
   6. http://toxnet.nlm.nih.gov/cgi-bin/sis/search/r?dbs+hsdb:@term+@rn+@rel+41198-08-7
   7. http://toxnet.nlm.nih.gov/cgi-bin/sis/search/r?dbs+hsdb:@term+@rn+@rel+41198-08-7
   8. http://pubchem.ncbi.nlm.nih.gov/vw3d/vw3d.cgi?cid=38779
