   Color/Form
        Crystals from /ethyl acetate/.
   from [1]HSDB

   Melting Point
        161-162 deg C
   from [2]HSDB

   Spectral Properties
        Specific rotation = -27 deg at 20 deg C/D
   from [3]HSDB

   Other Chemical/Physical Properties
        Colorless, mostly crystalline solids that have been well
   characterized by physical and spectroscopic techniques. ... Soluble in
   moderately polar solvents, such as chloroform, diethyl ether, ethyl
   acetate, and acetone. ... generally stable /Trichothecenes/
   from [4]HSDB

   Computed Properties
   Molecular Weight                  366.40554 [g/mol]
   Molecular Formula                 C[19]H[26]O[7]
   XLogP3-AA                         0.2
   H-Bond Donor                      1
   H-Bond Acceptor                   7
   Rotatable Bond Count              5
   Exact Mass                        366.167853
   MonoIsotopic Mass                 366.167853
   Topological Polar Surface Area    94.6
   Heavy Atom Count                  26
   Formal Charge                     0
   Complexity                        687
   Isotope Atom Count                0
   Defined Atom Stereocenter Count   7
   Undefined Atom Stereocenter Count 0
   Defined Bond Stereocenter Count   0
   Undefined Bond Stereocenter Count 0
   Covalently-Bonded Unit Count      1
   Feature 3D Acceptor Count         5
   Feature 3D Donor Count            1
   Feature 3D Ring Count             2
   Effective Rotor Count             6.4
   Conformer Sampling RMSD           0.8
   CID Conformer Count               [5]3

References

   1. http://toxnet.nlm.nih.gov/cgi-bin/sis/search/r?dbs+hsdb:@term+@rn+@rel+2270-40-8
   2. http://toxnet.nlm.nih.gov/cgi-bin/sis/search/r?dbs+hsdb:@term+@rn+@rel+2270-40-8
   3. http://toxnet.nlm.nih.gov/cgi-bin/sis/search/r?dbs+hsdb:@term+@rn+@rel+2270-40-8
   4. http://toxnet.nlm.nih.gov/cgi-bin/sis/search/r?dbs+hsdb:@term+@rn+@rel+2270-40-8
   5. http://pubchem.ncbi.nlm.nih.gov/vw3d/vw3d.cgi?cid=15571694
