   Color/Form

     * CRYSTALS
     * WHITE, GRANULAR CRYSTALLINE SOLID
     * Colorless to white crystals or a granular powder.

   from [1]HSDB

   Odor
        Faint, benzaldehyde-like odor.
   from [2]HSDB

   Taste
        TASTELESS
   from [3]HSDB

   Melting Point
        103-106 DEG C
   from [4]HSDB

   Density/Specific Gravity
        1.334 @ 25 DEG C
   from [5]HSDB

   Heat of Combustion
        1551.7 kcal/mole
   from [6]HSDB

   Octanol/Water Partition Coefficient
        log Kow = 3.46
   from [7]HSDB

   Solubilities

     * SPARINGLY SOL IN WATER OR ALCOHOL; SOL IN BENZENE, CHLOROFORM,
       ETHER; 1 G DISSOLVES IN 40 ML CARBON DISULFIDE, IN ABOUT 50 ML
       OLIVE OIL
     * Water solubility = 9.10 mg/l at 25 deg C
     * Soluble in nearly all organic solvents; slightly soluble in
       alcohols, vegetable oils; slightly soluble in water
     * Slightly soluble in water; soluble in ethyl ether, ethanol, acetone

   from [8]HSDB

   Spectral Properties

     * INDEX OF REFRACTION: 1.543/D; SADTLER REF NUMBER: 332 (IR, PRISM);
       127 (IR, GRATING)
     * IR: 6113 (Coblentz Society Spectral Collection)
     * UV: 127 (Sadtler Research Laboratories Spectral Collection)
     * NMR: 7604 (Sadtler Research Laboratories Spectral Collection)

   from [9]HSDB

   Vapor Pressure
        < 0.1 torr at 20 deg C
   from [10]HSDB

   Other Chemical/Physical Properties
        ... Active oxygen approximately 6.5 percent
   from [11]HSDB

   Computed Properties
   Molecular Weight                  242.2268 [g/mol]
   Molecular Formula                 C[14]H[10]O[4]
   XLogP3-AA                         3.5
   H-Bond Donor                      0
   H-Bond Acceptor                   4
   Rotatable Bond Count              5
   Exact Mass                        242.057909
   MonoIsotopic Mass                 242.057909
   Topological Polar Surface Area    52.6
   Heavy Atom Count                  18
   Formal Charge                     0
   Complexity                        258
   Isotope Atom Count                0
   Defined Atom Stereocenter Count   0
   Undefined Atom Stereocenter Count 0
   Defined Bond Stereocenter Count   0
   Undefined Bond Stereocenter Count 0
   Covalently-Bonded Unit Count      1
   Feature 3D Acceptor Count         2
   Feature 3D Ring Count             2
   Effective Rotor Count             5
   Conformer Sampling RMSD           0.6
   CID Conformer Count               [12]83

References

   1. http://toxnet.nlm.nih.gov/cgi-bin/sis/search/r?dbs+hsdb:@term+@rn+@rel+94-36-0
   2. http://toxnet.nlm.nih.gov/cgi-bin/sis/search/r?dbs+hsdb:@term+@rn+@rel+94-36-0
   3. http://toxnet.nlm.nih.gov/cgi-bin/sis/search/r?dbs+hsdb:@term+@rn+@rel+94-36-0
   4. http://toxnet.nlm.nih.gov/cgi-bin/sis/search/r?dbs+hsdb:@term+@rn+@rel+94-36-0
   5. http://toxnet.nlm.nih.gov/cgi-bin/sis/search/r?dbs+hsdb:@term+@rn+@rel+94-36-0
   6. http://toxnet.nlm.nih.gov/cgi-bin/sis/search/r?dbs+hsdb:@term+@rn+@rel+94-36-0
   7. http://toxnet.nlm.nih.gov/cgi-bin/sis/search/r?dbs+hsdb:@term+@rn+@rel+94-36-0
   8. http://toxnet.nlm.nih.gov/cgi-bin/sis/search/r?dbs+hsdb:@term+@rn+@rel+94-36-0
   9. http://toxnet.nlm.nih.gov/cgi-bin/sis/search/r?dbs+hsdb:@term+@rn+@rel+94-36-0
  10. http://toxnet.nlm.nih.gov/cgi-bin/sis/search/r?dbs+hsdb:@term+@rn+@rel+94-36-0
  11. http://toxnet.nlm.nih.gov/cgi-bin/sis/search/r?dbs+hsdb:@term+@rn+@rel+94-36-0
  12. http://pubchem.ncbi.nlm.nih.gov/vw3d/vw3d.cgi?cid=7187
