   Color/Form

     * Yellowish oily liquid
     * GREENISH-YELLOW LIQUID

   from [1]HSDB

   Odor

     * PUNGENT, SPICY NOTE
     * Strong odor of cinnamon

   from [2]HSDB

   Taste

     * BURNING TASTE
     * SWEET TASTE

   from [3]HSDB

   Boiling Point
        253 DEG C @ 760 MM HG (SLIGHT DECOMP)
   from [4]HSDB

   Melting Point
        -7.5 DEG C
   from [5]HSDB

   Density/Specific Gravity
        1.048-1.052 at 25 deg C/25 deg C
   from [6]HSDB

   Octanol/Water Partition Coefficient
        log Kow = 1.90
   from [7]HSDB

   Solubilities

     * Dissolves in about 700 parts water, in about 7 volumes of 60%
       alcohol.
     * SOL IN ETHER, CHLOROFORM; INSOL IN PETROLEUM ETHER
     * Miscible with alcohol, ether, chloroform, oils
     * SOLUBILITY: 1:5 IN 60%, 1:25 IN 50%, 1:2.5 IN 70% ALC
     * In water, 1.42X10+3 mg/L at 25 deg C [Valvani SC et al; J Pharm Sci
       70: 502-7 (1981)] [8]PubMed Abstract

   from [9]HSDB

   Spectral Properties

     * MAX ABSORPTION (ALCOHOL): 291 NM (LOG E= 4.40)
     * SADTLER REF NUMBER: 1490 (IR, PRISM)
     * Index of refraction: 1.618-1.623 at 20 deg C/D

   from [10]HSDB

   Vapor Density
        VAPOR DENSITY: 4.6 (AIR= 1)
   from [11]HSDB

   Vapor Pressure
        2.89X10-2 mm Hg at 25 deg C
   from [12]HSDB

   Other Chemical/Physical Properties

     * THICKENS ON EXPOSURE TO AIR
     * ACID VALUE: 5 MAXIMUM
     * CONVERSION FACTORS: 1 MG/L= 185 PPM, 1 PPM= 5.4 MG/CU M
     * Yellow liquid; MP: -7.5 deg C; BP: 246 deg C; density: 1.0497 g/cu
       cm at 20 deg C; Index of refraction: 1.6195 at 20 deg C/D; slightly
       soluble in water; soluble in ethanol, ethyl ether, chloroform;
       insoluble in ligroin /trans-Cinnamaldehyde/
     * MP: 7.5 deg C; BP: 253 deg C decomposes; 137 deg C at 16 mm Hg;
       density 1.0497 at 20 deg C; Index of refraction: 1.6195 at 20 deg
       C/D; solubility: slightly soluble in water; soluble in ethanol,
       ethyl ether, chloroform; insoluble in ligroin (E-siomer)
     * MASS: 622 (Atlas of Mass Spectral Data, John Wiley & Sons, New
       York) (E-isomer)
     * IR: 18891 (Sadtler Research Laboratories IR Grating Collection)
       (E-isomer)
     * UV: 424 (Sadtler Research Laboratories Spectral Collection)
       (E-isomer)
     * Raman: 148 (Sadtler Research Laboratories Spectral Collection)
       (E-isomer)
     * 1H NMR: 101 (Sadtler Research Laboratories Spectral Collection)
       (E-isomer)
     * 13C NMR: 336 (Johnson and Jankowski, Carbon-13 NMR Spectra, John
       WIley & Sons, New York) (E-isomer)
     * Henry's Law constant = 3.5X10-6 atm-cu m/mol at 25 deg C (est)
     * Hydroxyl radical reaction rate constant = 3.8X10-11 cu cm/molec-sec
       at 25 deg C /cis-isomer/; 4.0X10-11 cu cm/molecule-sec
       /trans-isomers/ (est)
     * Ozone radical reaction rate constant = 1.7X10-18 cu cm/molec-sec at
       25 deg C /cis-isomer/; 3.4X10-18 cu cm/molec-sec at 25 deg C
       /trans-isomer/ (est)

   from [13]HSDB

   Computed Properties
   Molecular Weight                  132.15922 [g/mol]
   Molecular Formula                 C[9]H[8]O
   XLogP3                            1.9
   H-Bond Donor                      0
   H-Bond Acceptor                   1
   Rotatable Bond Count              2
   Exact Mass                        132.057515
   MonoIsotopic Mass                 132.057515
   Topological Polar Surface Area    17.1
   Heavy Atom Count                  10
   Formal Charge                     0
   Complexity                        121
   Isotope Atom Count                0
   Defined Atom Stereocenter Count   0
   Undefined Atom Stereocenter Count 0
   Defined Bond Stereocenter Count   1
   Undefined Bond Stereocenter Count 0
   Covalently-Bonded Unit Count      1
   Feature 3D Acceptor Count         1
   Feature 3D Ring Count             1
   Effective Rotor Count             2
   Conformer Sampling RMSD           0.4
   CID Conformer Count               [14]2

References

   1. http://toxnet.nlm.nih.gov/cgi-bin/sis/search/r?dbs+hsdb:@term+@rn+@rel+104-55-2
   2. http://toxnet.nlm.nih.gov/cgi-bin/sis/search/r?dbs+hsdb:@term+@rn+@rel+104-55-2
   3. http://toxnet.nlm.nih.gov/cgi-bin/sis/search/r?dbs+hsdb:@term+@rn+@rel+104-55-2
   4. http://toxnet.nlm.nih.gov/cgi-bin/sis/search/r?dbs+hsdb:@term+@rn+@rel+104-55-2
   5. http://toxnet.nlm.nih.gov/cgi-bin/sis/search/r?dbs+hsdb:@term+@rn+@rel+104-55-2
   6. http://toxnet.nlm.nih.gov/cgi-bin/sis/search/r?dbs+hsdb:@term+@rn+@rel+104-55-2
   7. http://toxnet.nlm.nih.gov/cgi-bin/sis/search/r?dbs+hsdb:@term+@rn+@rel+104-55-2
   8. http://www.ncbi.nlm.nih.gov/entrez/query.fcgi?cmd=Retrieve&db=pubmed&dopt=Abstract&list_uids=7241352
   9. http://toxnet.nlm.nih.gov/cgi-bin/sis/search/r?dbs+hsdb:@term+@rn+@rel+104-55-2
  10. http://toxnet.nlm.nih.gov/cgi-bin/sis/search/r?dbs+hsdb:@term+@rn+@rel+104-55-2
  11. http://toxnet.nlm.nih.gov/cgi-bin/sis/search/r?dbs+hsdb:@term+@rn+@rel+104-55-2
  12. http://toxnet.nlm.nih.gov/cgi-bin/sis/search/r?dbs+hsdb:@term+@rn+@rel+104-55-2
  13. http://toxnet.nlm.nih.gov/cgi-bin/sis/search/r?dbs+hsdb:@term+@rn+@rel+104-55-2
  14. http://pubchem.ncbi.nlm.nih.gov/vw3d/vw3d.cgi?cid=637511
