   Color/Form

     * White crystalline solid
     * CRYSTALLINE POWDER

   from [1]HSDB

   Odor
        Odorless
   from [2]HSDB

   Taste
        Slightly bitter
   from [3]HSDB

   Boiling Point
        Sublimes and dissociates to isocyanuric acid at higher />330 deg
   C/ temperatures
   from [4]HSDB

   Melting Point
        360 deg C
   from [5]HSDB

   Density/Specific Gravity
        1.75 deg 25 deg C/4 deg C 9 (anhydride); 1.66 at 25 deg C/4 deg C
   (dihydrate)
   from [6]HSDB

   Dissociation Constants
        pKa1 = 6.88; pKa2 = 11.40; pKa3 = 13.5
   from [7]HSDB

   Octanol/Water Partition Coefficient
        log Kow = 1.95 (est)
   from [8]HSDB

   pH
        pH of saturated aqueous solution @ room temperature = 4.8
   from [9]HSDB

   Solubilities

     * Slightly soluble in common organic solvents such as acetone,
       benzene, diethyl ether, ethanol, hexane. Solubility (%):
       dimethylformamide 7.2; diemthyl sulfoxide 17.4.
     * Soluble in hot alcohols, pyridine, concentrated HCL without
       decomposition; in aqueous solutions of NaOH and KOH. Insoluble in
       cold methanol, ether acetone, benzene chloroform.
     * Solubility in 96% H2SO4 (25 deg C): 14.1%
     * Solubility in water (%): 0.2 at 25 deg C; 2.6 at 90 deg C; 10.0 at
       150 deg C
     * In water, 2,000 mg/L at 25 deg C
     * In water, 2.593X10+3 mg/L at 25 deg C

   from [10]HSDB

   Spectral Properties
        UV max (0.1M HCl); 214 nm (log epsilon 3.38); UV max (0.1M
   phosphate buffer pH 7): 214 nm (log epsilon 4.00); UV max (0.1M NaOH);
   213 nm (log epsilon 4.64)
   from [11]HSDB

   Vapor Pressure
        4.41X10-11 mm Hg at 25 deg C (est)
   from [12]HSDB

   Other Chemical/Physical Properties

     * SOL IN PYRIDINE; INSOL IN ACETIC ACID; MAX ABSORPTION (WATER PH=
       8): 214 NM (LOG E= 4.01); DENSITY: 1.768 @ 0 DEG C; SADTLER
       REFERENCE NUMBER: 7027 (IR, PRISM) /DIHYDRATE/
     * 1 MG/L= 189 PPM; 1 PPM= 5.28 MG/CU M; TENDS TO FORM SUPERSATURATED
       SOLUTIONS
     * Forms dihydrate in aqueous solution; crystalizes as colorless
       monoclinic prisms that efforesce in dry air. Predominant tautomeric
       form in solid state and solution is keto form, isocyanuric acid; in
       basic solutions the enol form is more stable.
     * Henry's Law constant = 8.74X10-15 atm-cu m/mol at 25 deg C (est)
     * Hydroxyl radical reaction rate constant = 3.0X10-12 cu cm/molec-sec
       at 25 deg C (est)

   from [13]HSDB

   Computed Properties
   Molecular Weight                  129.07422 [g/mol]
   Molecular Formula                 C[3]H[3]N[3]O[3]
   XLogP3-AA                         -1.2
   H-Bond Donor                      3
   H-Bond Acceptor                   3
   Rotatable Bond Count              0
   Tautomer Count                    5
   Exact Mass                        129.017441
   MonoIsotopic Mass                 129.017441
   Topological Polar Surface Area    87.3
   Heavy Atom Count                  9
   Formal Charge                     0
   Complexity                        136
   Isotope Atom Count                0
   Defined Atom Stereocenter Count   0
   Undefined Atom Stereocenter Count 0
   Defined Bond Stereocenter Count   0
   Undefined Bond Stereocenter Count 0
   Covalently-Bonded Unit Count      1
   Feature 3D Acceptor Count         3
   Feature 3D Donor Count            3
   Feature 3D Ring Count             1
   Effective Rotor Count             0
   Conformer Sampling RMSD           0.4
   CID Conformer Count               [14]1

References

   1. http://toxnet.nlm.nih.gov/cgi-bin/sis/search/r?dbs+hsdb:@term+@rn+@rel+108-80-5
   2. http://toxnet.nlm.nih.gov/cgi-bin/sis/search/r?dbs+hsdb:@term+@rn+@rel+108-80-5
   3. http://toxnet.nlm.nih.gov/cgi-bin/sis/search/r?dbs+hsdb:@term+@rn+@rel+108-80-5
   4. http://toxnet.nlm.nih.gov/cgi-bin/sis/search/r?dbs+hsdb:@term+@rn+@rel+108-80-5
   5. http://toxnet.nlm.nih.gov/cgi-bin/sis/search/r?dbs+hsdb:@term+@rn+@rel+108-80-5
   6. http://toxnet.nlm.nih.gov/cgi-bin/sis/search/r?dbs+hsdb:@term+@rn+@rel+108-80-5
   7. http://toxnet.nlm.nih.gov/cgi-bin/sis/search/r?dbs+hsdb:@term+@rn+@rel+108-80-5
   8. http://toxnet.nlm.nih.gov/cgi-bin/sis/search/r?dbs+hsdb:@term+@rn+@rel+108-80-5
   9. http://toxnet.nlm.nih.gov/cgi-bin/sis/search/r?dbs+hsdb:@term+@rn+@rel+108-80-5
  10. http://toxnet.nlm.nih.gov/cgi-bin/sis/search/r?dbs+hsdb:@term+@rn+@rel+108-80-5
  11. http://toxnet.nlm.nih.gov/cgi-bin/sis/search/r?dbs+hsdb:@term+@rn+@rel+108-80-5
  12. http://toxnet.nlm.nih.gov/cgi-bin/sis/search/r?dbs+hsdb:@term+@rn+@rel+108-80-5
  13. http://toxnet.nlm.nih.gov/cgi-bin/sis/search/r?dbs+hsdb:@term+@rn+@rel+108-80-5
  14. http://pubchem.ncbi.nlm.nih.gov/vw3d/vw3d.cgi?cid=7956
