442345
  -OEChem-07051212572D

 88 94  0     1  0  0  0  0  0999 V2000
    6.4896    2.0543    0.0000 O   0  0  0  0  0  0  0  0  0  0  0  0
    6.4498    3.1113    0.0000 O   0  0  0  0  0  0  0  0  0  0  0  0
    5.4302    3.8563    0.0000 O   0  0  0  0  0  0  0  0  0  0  0  0
    8.1819    4.1113    0.0000 O   0  0  0  0  0  0  0  0  0  0  0  0
    4.7866   -1.1769    0.0000 O   0  0  0  0  0  0  0  0  0  0  0  0
    4.8208   -4.2210    0.0000 O   0  0  0  0  0  0  0  0  0  0  0  0
    9.0638   -0.4580    0.0000 N   0  0  3  0  0  0  0  0  0  0  0  0
    2.5282    0.3875    0.0000 N   0  0  3  0  0  0  0  0  0  0  0  0
    8.1658    0.0698    0.0000 C   0  0  2  0  0  0  0  0  0  0  0  0
    3.5032    0.4418    0.0000 C   0  0  1  0  0  0  0  0  0  0  0  0
    8.1819    1.1113    0.0000 C   0  0  0  0  0  0  0  0  0  0  0  0
    9.9659    0.0629    0.0000 C   0  0  0  0  0  0  0  0  0  0  0  0
    3.9389    1.2719    0.0000 C   0  0  0  0  0  0  0  0  0  0  0  0
    9.0479    1.6113    0.0000 C   0  0  0  0  0  0  0  0  0  0  0  0
    9.9579    1.1044    0.0000 C   0  0  0  0  0  0  0  0  0  0  0  0
    8.0995   -0.8653    0.0000 C   0  0  0  0  0  0  0  0  0  0  0  0
    2.0000    1.2088    0.0000 C   0  0  0  0  0  0  0  0  0  0  0  0
    3.4298    2.1052    0.0000 C   0  0  0  0  0  0  0  0  0  0  0  0
    2.4538    2.0734    0.0000 C   0  0  0  0  0  0  0  0  0  0  0  0
    3.4204   -0.4920    0.0000 C   0  0  0  0  0  0  0  0  0  0  0  0
    7.3158    1.6113    0.0000 C   0  0  0  0  0  0  0  0  0  0  0  0
    4.6604    1.8704    0.0000 C   0  0  0  0  0  0  0  0  0  0  0  0
    7.6785   -1.7030    0.0000 C   0  0  0  0  0  0  0  0  0  0  0  0
    9.0600   -1.4580    0.0000 C   0  0  0  0  0  0  0  0  0  0  0  0
    9.0479    2.6113    0.0000 C   0  0  0  0  0  0  0  0  0  0  0  0
    5.5566    2.1454    0.0000 C   0  0  0  0  0  0  0  0  0  0  0  0
    3.7032   -1.3858    0.0000 C   0  0  0  0  0  0  0  0  0  0  0  0
    3.9765    2.9451    0.0000 C   0  0  0  0  0  0  0  0  0  0  0  0
    2.0737   -0.5032    0.0000 C   0  0  0  0  0  0  0  0  0  0  0  0
    7.3158    2.6113    0.0000 C   0  0  0  0  0  0  0  0  0  0  0  0
    4.9786    2.9641    0.0000 C   0  0  0  0  0  0  0  0  0  0  0  0
    8.1819    3.1113    0.0000 C   0  0  0  0  0  0  0  0  0  0  0  0
    6.9677   -2.3142    0.0000 C   0  0  0  0  0  0  0  0  0  0  0  0
    6.0765   -2.6048    0.0000 C   0  0  0  0  0  0  0  0  0  0  0  0
    4.3081   -2.1019    0.0000 C   0  0  0  0  0  0  0  0  0  0  0  0
    5.1420   -2.5303    0.0000 C   0  0  0  0  0  0  0  0  0  0  0  0
    7.1482   -0.8592    0.0000 C   0  0  0  0  0  0  0  0  0  0  0  0
    3.1213   -2.1948    0.0000 C   0  0  0  0  0  0  0  0  0  0  0  0
    5.6302   -1.7138    0.0000 C   0  0  0  0  0  0  0  0  0  0  0  0
    6.1516   -0.8645    0.0000 C   0  0  0  0  0  0  0  0  0  0  0  0
    4.4845   -3.2792    0.0000 C   0  0  0  0  0  0  0  0  0  0  0  0
    3.5014   -3.1160    0.0000 C   0  0  0  0  0  0  0  0  0  0  0  0
    6.4498    4.1113    0.0000 C   0  0  0  0  0  0  0  0  0  0  0  0
    4.8833    4.6935    0.0000 C   0  0  0  0  0  0  0  0  0  0  0  0
    9.0479    4.6113    0.0000 C   0  0  0  0  0  0  0  0  0  0  0  0
    4.8297   -0.1778    0.0000 C   0  0  0  0  0  0  0  0  0  0  0  0
    7.3166    0.1064    0.0000 H   0  0  0  0  0  0  0  0  0  0  0  0
    4.3519    0.4891    0.0000 H   0  0  0  0  0  0  0  0  0  0  0  0
   10.1795   -0.5192    0.0000 H   0  0  0  0  0  0  0  0  0  0  0  0
   10.5759    0.1737    0.0000 H   0  0  0  0  0  0  0  0  0  0  0  0
   10.5695    1.0031    0.0000 H   0  0  0  0  0  0  0  0  0  0  0  0
   10.1624    1.6897    0.0000 H   0  0  0  0  0  0  0  0  0  0  0  0
    8.5051   -1.3342    0.0000 H   0  0  0  0  0  0  0  0  0  0  0  0
    7.5017   -0.7010    0.0000 H   0  0  0  0  0  0  0  0  0  0  0  0
    1.5084    1.5866    0.0000 H   0  0  0  0  0  0  0  0  0  0  0  0
    1.5436    0.7891    0.0000 H   0  0  0  0  0  0  0  0  0  0  0  0
    2.5400    2.6874    0.0000 H   0  0  0  0  0  0  0  0  0  0  0  0
    1.8636    2.2634    0.0000 H   0  0  0  0  0  0  0  0  0  0  0  0
    2.8706   -0.2054    0.0000 H   0  0  0  0  0  0  0  0  0  0  0  0
    4.0367   -0.4245    0.0000 H   0  0  0  0  0  0  0  0  0  0  0  0
    4.3658    2.4160    0.0000 H   0  0  0  0  0  0  0  0  0  0  0  0
    8.4400   -1.4556    0.0000 H   0  0  0  0  0  0  0  0  0  0  0  0
    9.0576   -2.0780    0.0000 H   0  0  0  0  0  0  0  0  0  0  0  0
    9.6800   -1.4603    0.0000 H   0  0  0  0  0  0  0  0  0  0  0  0
    9.5848    2.9213    0.0000 H   0  0  0  0  0  0  0  0  0  0  0  0
    3.6758    3.4874    0.0000 H   0  0  0  0  0  0  0  0  0  0  0  0
    1.5215   -0.2215    0.0000 H   0  0  0  0  0  0  0  0  0  0  0  0
    1.7920   -1.0555    0.0000 H   0  0  0  0  0  0  0  0  0  0  0  0
    2.6260   -0.7850    0.0000 H   0  0  0  0  0  0  0  0  0  0  0  0
    7.2719   -2.8544    0.0000 H   0  0  0  0  0  0  0  0  0  0  0  0
    3.9221   -2.5871    0.0000 H   0  0  0  0  0  0  0  0  0  0  0  0
    7.4466   -0.3158    0.0000 H   0  0  0  0  0  0  0  0  0  0  0  0
    2.5054   -2.1230    0.0000 H   0  0  0  0  0  0  0  0  0  0  0  0
    5.8475   -0.3242    0.0000 H   0  0  0  0  0  0  0  0  0  0  0  0
    3.1154   -3.6012    0.0000 H   0  0  0  0  0  0  0  0  0  0  0  0
    7.0698    4.1113    0.0000 H   0  0  0  0  0  0  0  0  0  0  0  0
    6.4498    4.7313    0.0000 H   0  0  0  0  0  0  0  0  0  0  0  0
    5.8298    4.1113    0.0000 H   0  0  0  0  0  0  0  0  0  0  0  0
    5.4024    5.0326    0.0000 H   0  0  0  0  0  0  0  0  0  0  0  0
    4.5442    5.2126    0.0000 H   0  0  0  0  0  0  0  0  0  0  0  0
    4.3642    4.3544    0.0000 H   0  0  0  0  0  0  0  0  0  0  0  0
    9.3579    4.0744    0.0000 H   0  0  0  0  0  0  0  0  0  0  0  0
    9.5848    4.9213    0.0000 H   0  0  0  0  0  0  0  0  0  0  0  0
    8.7379    5.1482    0.0000 H   0  0  0  0  0  0  0  0  0  0  0  0
    4.4193   -4.6935    0.0000 H   0  0  0  0  0  0  0  0  0  0  0  0
    5.4491   -0.2046    0.0000 H   0  0  0  0  0  0  0  0  0  0  0  0
    4.8564    0.4416    0.0000 H   0  0  0  0  0  0  0  0  0  0  0  0
    4.2103   -0.1511    0.0000 H   0  0  0  0  0  0  0  0  0  0  0  0
  1 21  1  0  0  0  0
  1 26  1  0  0  0  0
  2 30  1  0  0  0  0
  2 43  1  0  0  0  0
  3 31  1  0  0  0  0
  3 44  1  0  0  0  0
  4 32  1  0  0  0  0
  4 45  1  0  0  0  0
  5 39  1  0  0  0  0
  5 46  1  0  0  0  0
  6 41  1  0  0  0  0
  6 85  1  0  0  0  0
  7  9  1  0  0  0  0
  7 12  1  0  0  0  0
  7 24  1  0  0  0  0
  8 10  1  0  0  0  0
  8 17  1  0  0  0  0
  8 29  1  0  0  0  0
  9 11  1  0  0  0  0
  9 16  1  0  0  0  0
  9 47  1  6  0  0  0
 10 13  1  0  0  0  0
 10 20  1  0  0  0  0
 10 48  1  6  0  0  0
 11 14  1  0  0  0  0
 11 21  2  0  0  0  0
 12 15  1  0  0  0  0
 12 49  1  0  0  0  0
 12 50  1  0  0  0  0
 13 18  1  0  0  0  0
 13 22  2  0  0  0  0
 14 15  1  0  0  0  0
 14 25  2  0  0  0  0
 15 51  1  0  0  0  0
 15 52  1  0  0  0  0
 16 23  1  0  0  0  0
 16 53  1  0  0  0  0
 16 54  1  0  0  0  0
 17 19  1  0  0  0  0
 17 55  1  0  0  0  0
 17 56  1  0  0  0  0
 18 19  1  0  0  0  0
 18 28  2  0  0  0  0
 19 57  1  0  0  0  0
 19 58  1  0  0  0  0
 20 27  1  0  0  0  0
 20 59  1  0  0  0  0
 20 60  1  0  0  0  0
 21 30  1  0  0  0  0
 22 26  1  0  0  0  0
 22 61  1  0  0  0  0
 23 33  2  0  0  0  0
 23 37  1  0  0  0  0
 24 62  1  0  0  0  0
 24 63  1  0  0  0  0
 24 64  1  0  0  0  0
 25 32  1  0  0  0  0
 25 65  1  0  0  0  0
 26 31  2  0  0  0  0
 27 35  2  0  0  0  0
 27 38  1  0  0  0  0
 28 31  1  0  0  0  0
 28 66  1  0  0  0  0
 29 67  1  0  0  0  0
 29 68  1  0  0  0  0
 29 69  1  0  0  0  0
 30 32  2  0  0  0  0
 33 34  1  0  0  0  0
 33 70  1  0  0  0  0
 34 36  1  0  0  0  0
 34 39  2  0  0  0  0
 35 36  1  0  0  0  0
 35 71  1  0  0  0  0
 36 41  2  0  0  0  0
 37 40  2  0  0  0  0
 37 72  1  0  0  0  0
 38 42  2  0  0  0  0
 38 73  1  0  0  0  0
 39 40  1  0  0  0  0
 40 74  1  0  0  0  0
 41 42  1  0  0  0  0
 42 75  1  0  0  0  0
 43 76  1  0  0  0  0
 43 77  1  0  0  0  0
 43 78  1  0  0  0  0
 44 79  1  0  0  0  0
 44 80  1  0  0  0  0
 44 81  1  0  0  0  0
 45 82  1  0  0  0  0
 45 83  1  0  0  0  0
 45 84  1  0  0  0  0
 46 86  1  0  0  0  0
 46 87  1  0  0  0  0
 46 88  1  0  0  0  0
M  END
> <PUBCHEM_COMPOUND_CID>
442345

> <PUBCHEM_COMPOUND_CANONICALIZED>
1

> <PUBCHEM_CACTVS_COMPLEXITY>
1000

> <PUBCHEM_CACTVS_HBOND_ACCEPTOR>
8

> <PUBCHEM_CACTVS_HBOND_DONOR>
1

> <PUBCHEM_CACTVS_ROTATABLE_BOND>
4

> <PUBCHEM_CACTVS_SUBSKEYS>
AAADcfB/OAAAAAAAAAAAAAAAAAAAAAAAAAA8eMGCAAAAAACxVAAAHgAACAAADCzBmAYyBoMABgCAAiBCAACCCAAgIAAIiAAOjIgNJyKGsRuGeCrnwBWKuAfw8P8OoAADCAAYQABAAAYQADCAAAAAAAAAAA==

> <PUBCHEM_IUPAC_INCHI>
InChI=1S/C38H42N2O6/c1-39-13-11-24-19-33(43-4)34-21-26(24)29(39)17-22-7-9-31(41)27(15-22)28-16-23(8-10-32(28)42-3)18-30-36-25(12-14-40(30)2)20-35(44-5)37(45-6)38(36)46-34/h7-10,15-16,19-21,29-30,41H,11-14,17-18H2,1-6H3/t29-,30+/m1/s1

> <PUBCHEM_IUPAC_INCHIKEY>
HIQZXOFBXJICTD-IHLOFXLRSA-N

> <PUBCHEM_XLOGP3_AA>
6.4

> <PUBCHEM_EXACT_MASS>
622.304287

> <PUBCHEM_MOLECULAR_FORMULA>
C38H42N2O6

> <PUBCHEM_MOLECULAR_WEIGHT>
622.74988

> <PUBCHEM_OPENEYE_CAN_SMILES>
CN1CCC2=CC(=C3C=C2C1CC4=CC(=C(C=C4)O)C5=C(C=CC(=C5)CC6C7=C(O3)C(=C(C=C7CCN6C)OC)OC)OC)OC

> <PUBCHEM_OPENEYE_ISO_SMILES>
CN1CCC2=CC(=C3C=C2[C@H]1CC4=CC(=C(C=C4)O)C5=C(C=CC(=C5)C[C@H]6C7=C(O3)C(=C(C=C7CCN6C)OC)OC)OC)OC

> <PUBCHEM_CACTVS_TPSA>
72.9

> <PUBCHEM_MONOISOTOPIC_WEIGHT>
622.304287

> <PUBCHEM_TOTAL_CHARGE>
0

> <PUBCHEM_HEAVY_ATOM_COUNT>
46

> <PUBCHEM_ATOM_DEF_STEREO_COUNT>
2

> <PUBCHEM_ATOM_UDEF_STEREO_COUNT>
0

> <PUBCHEM_BOND_DEF_STEREO_COUNT>
0

> <PUBCHEM_BOND_UDEF_STEREO_COUNT>
0

> <PUBCHEM_ISOTOPIC_ATOM_COUNT>
0

> <PUBCHEM_COMPONENT_COUNT>
1

> <PUBCHEM_CACTVS_TAUTO_COUNT>
1

> <PUBCHEM_COORDINATE_TYPE>
1
5
255

> <PUBCHEM_BONDANNOTATIONS>
10  48  6
11  14  8
11  21  8
13  18  8
13  22  8
14  25  8
18  28  8
21  30  8
22  26  8
23  33  8
23  37  8
25  32  8
26  31  8
27  35  8
27  38  8
28  31  8
30  32  8
33  34  8
34  39  8
35  36  8
36  41  8
37  40  8
38  42  8
39  40  8
41  42  8
9  47  6

$$$$

