5281147
  -OEChem-07051212552D

 25 24  0     1  0  0  0  0  0999 V2000
    4.2690   -2.9050    0.0000 O   0  0  0  0  0  0  0  0  0  0  0  0
    2.5369   -1.9050    0.0000 O   0  0  0  0  0  0  0  0  0  0  0  0
    4.2690   -1.9050    0.0000 C   0  0  1  0  0  0  0  0  0  0  0  0
    3.4030   -1.4050    0.0000 C   0  0  0  0  0  0  0  0  0  0  0  0
    5.1350   -1.4050    0.0000 C   0  0  0  0  0  0  0  0  0  0  0  0
   13.7953    2.5950    0.0000 C   0  0  0  0  0  0  0  0  0  0  0  0
   12.9292    2.0950    0.0000 C   0  0  0  0  0  0  0  0  0  0  0  0
    6.0010   -0.9050    0.0000 C   0  0  0  0  0  0  0  0  0  0  0  0
   12.0632    2.5950    0.0000 C   0  0  0  0  0  0  0  0  0  0  0  0
    6.8671   -0.4050    0.0000 C   0  0  0  0  0  0  0  0  0  0  0  0
   11.1972    2.0950    0.0000 C   0  0  0  0  0  0  0  0  0  0  0  0
    7.7331    0.0950    0.0000 C   0  0  0  0  0  0  0  0  0  0  0  0
   10.3312    1.5950    0.0000 C   0  0  0  0  0  0  0  0  0  0  0  0
    8.5991    0.5950    0.0000 C   0  0  0  0  0  0  0  0  0  0  0  0
    9.4651    1.0950    0.0000 C   0  0  0  0  0  0  0  0  0  0  0  0
    4.8059   -2.2150    0.0000 H   0  0  0  0  0  0  0  0  0  0  0  0
    3.8015   -0.9301    0.0000 H   0  0  0  0  0  0  0  0  0  0  0  0
    3.0044   -0.9301    0.0000 H   0  0  0  0  0  0  0  0  0  0  0  0
    4.8059   -3.2150    0.0000 H   0  0  0  0  0  0  0  0  0  0  0  0
    2.0000   -1.5950    0.0000 H   0  0  0  0  0  0  0  0  0  0  0  0
   14.1053    2.0581    0.0000 H   0  0  0  0  0  0  0  0  0  0  0  0
   14.3322    2.9050    0.0000 H   0  0  0  0  0  0  0  0  0  0  0  0
   13.4853    3.1319    0.0000 H   0  0  0  0  0  0  0  0  0  0  0  0
   12.9292    1.4750    0.0000 H   0  0  0  0  0  0  0  0  0  0  0  0
   12.0632    3.2150    0.0000 H   0  0  0  0  0  0  0  0  0  0  0  0
  3  1  1  1  0  0  0
  1 19  1  0  0  0  0
  2  4  1  0  0  0  0
  2 20  1  0  0  0  0
  3  4  1  0  0  0  0
  3  5  1  0  0  0  0
  3 16  1  0  0  0  0
  4 17  1  0  0  0  0
  4 18  1  0  0  0  0
  5  8  3  0  0  0  0
  6  7  1  0  0  0  0
  6 21  1  0  0  0  0
  6 22  1  0  0  0  0
  6 23  1  0  0  0  0
  7  9  2  0  0  0  0
  7 24  1  0  0  0  0
  8 10  1  0  0  0  0
  9 11  1  0  0  0  0
  9 25  1  0  0  0  0
 10 12  3  0  0  0  0
 11 13  3  0  0  0  0
 12 14  1  0  0  0  0
 13 15  1  0  0  0  0
 14 15  3  0  0  0  0
M  END
> <PUBCHEM_COMPOUND_CID>
5281147

> <PUBCHEM_COMPOUND_CANONICALIZED>
1

> <PUBCHEM_CACTVS_COMPLEXITY>
485

> <PUBCHEM_CACTVS_HBOND_ACCEPTOR>
2

> <PUBCHEM_CACTVS_HBOND_DONOR>
2

> <PUBCHEM_CACTVS_ROTATABLE_BOND>
4

> <PUBCHEM_CACTVS_SUBSKEYS>
AAADccBwMAAAAAAAAAAAAAAAAAAAAAAAAAAAAAAAAAAAAAAAAAAAGgAACAAACBSggAICAAAAAgDAECBCAAgAAAAAAAAICAAAAAABEAAAAQAAQAAAAAABAAAAAAAAAAAAAAAAAAAAAAAAAAAAAAAAAAAAAA==

> <PUBCHEM_IUPAC_OPENEYE_NAME>
(E,2R)-tridec-11-en-3,5,7,9-tetrayne-1,2-diol

> <PUBCHEM_IUPAC_CAS_NAME>
(E,2R)-tridec-11-en-3,5,7,9-tetrayne-1,2-diol

> <PUBCHEM_IUPAC_NAME>
(E,2R)-tridec-11-en-3,5,7,9-tetrayne-1,2-diol

> <PUBCHEM_IUPAC_SYSTEMATIC_NAME>
(E,2R)-tridec-11-en-3,5,7,9-tetrayne-1,2-diol

> <PUBCHEM_IUPAC_TRADITIONAL_NAME>
(E,2R)-tridec-11-en-3,5,7,9-tetrayne-1,2-diol

> <PUBCHEM_IUPAC_INCHI>
InChI=1S/C13H10O2/c1-2-3-4-5-6-7-8-9-10-11-13(15)12-14/h2-3,13-15H,12H2,1H3/b3-2+/t13-/m1/s1

> <PUBCHEM_IUPAC_INCHIKEY>
CZFQZIRMRQWYEB-YWVDXFKGSA-N

> <PUBCHEM_XLOGP3_AA>
1.3

> <PUBCHEM_EXACT_MASS>
198.06808

> <PUBCHEM_MOLECULAR_FORMULA>
C13H10O2

> <PUBCHEM_MOLECULAR_WEIGHT>
198.2173

> <PUBCHEM_OPENEYE_CAN_SMILES>
CC=CC#CC#CC#CC#CC(CO)O

> <PUBCHEM_OPENEYE_ISO_SMILES>
C/C=C/C#CC#CC#CC#C[C@H](CO)O

> <PUBCHEM_CACTVS_TPSA>
40.5

> <PUBCHEM_MONOISOTOPIC_WEIGHT>
198.06808

> <PUBCHEM_TOTAL_CHARGE>
0

> <PUBCHEM_HEAVY_ATOM_COUNT>
15

> <PUBCHEM_ATOM_DEF_STEREO_COUNT>
1

> <PUBCHEM_ATOM_UDEF_STEREO_COUNT>
0

> <PUBCHEM_BOND_DEF_STEREO_COUNT>
1

> <PUBCHEM_BOND_UDEF_STEREO_COUNT>
0

> <PUBCHEM_ISOTOPIC_ATOM_COUNT>
0

> <PUBCHEM_COMPONENT_COUNT>
1

> <PUBCHEM_CACTVS_TAUTO_COUNT>
1

> <PUBCHEM_COORDINATE_TYPE>
1
5
255

> <PUBCHEM_BONDANNOTATIONS>
3  1  5

$$$$

