   Chemical and Physical Properties References

   [1]USDA ARS - USDA chemical properties
   from [2]ChemIDplus

   Color/Form
        Colorless to white crystals
   from [3]HSDB

   Odor
        Chlorine-like odor
   from [4]HSDB

   Melting Point
        218.5 deg C
   from [5]HSDB

   Corrosivity
        Slightly corrosive to mild steel after prolonged exposure at high
   temperatures. Noncorrosive to other metals.
   from [6]HSDB

   Dissociation Constants
        pKa = 2.3 @ 22 deg C
   from [7]HSDB

   Octanol/Water Partition Coefficient
        log Kow = 0.30
   from [8]HSDB

   Solubilities

     * Organic solvents g/100 ml at 25 deg C: acetone 1.98; acetonitrile
       0.16; benzene 0.02; carbon disulfide less than 0.005; diethyl ether
       0.12; ethanol 1.05; isopropanol 0.55; kerosene 0.001; methylene
       chloride 0.06
     * In water, 430 mg/liter @ 25 deg C

   from [9]HSDB

   Spectral Properties

     * MAX ABSORPTION (WATER): 223.5 NM
     * Intense mass spectral peaks: 196 m/z (100%), 198 m/z (95%), 161 m/z
       (40%), 200 m/z (31%)
     * MASS: 52411 (NIST/EPA/MSDC Mass Spectral Database, 1990 Version)
     * IR: 3:1382F (The Aldrich Handbook of Organic Chemicals and
       Biochemicals, Aldrich Chemical Co., Inc., New York; Aldrich Library
       of Infrared Spectra, Aldrich Chemical Co., Milwaukee, WI)
     * UV irradiation of picloram gave a rapid decrease in the 200-700 nm
       region of its absorption and an increase at 270-330 nm.

   from [10]HSDB

   Vapor Pressure
        7.21X10-11 mm Hg at 20 deg C
   from [11]HSDB

   Other Chemical/Physical Properties

     * Forms water soluble alkali metal and amine salts, e.g.,
       picloram-potassium
     * Decomp starting at 190 deg C. Readily sublimes at 190 deg C under
       12 mm Hg.
     * Off white to brown. /Technical picloram/
     * Surface area/molecule = 49.5 square angstroms. Polarographic
       half-wave potential in water = -1.34 volts versus standard calomel
       electrode. Molar extinction coefficient, calculated (epsilon max) =
       35,100.
     * Henry's Law constant = 5.33X10-14 atm-cu m/mol at 20 deg C
       /Estimated/
     * Hydroxyl radical reaction rate constant = 8.5X10-13 cu cm/molec-sec
       @ 25 deg C /Estimated/

   from [12]HSDB

   Computed Properties
   Molecular Weight                  241.45922 [g/mol]
   Molecular Formula                 C[6]H[3]Cl[3]N[2]O[2]
   XLogP3-AA                         2.2
   H-Bond Donor                      2
   H-Bond Acceptor                   4
   Rotatable Bond Count              1
   Tautomer Count                    2
   Exact Mass                        239.92601
   MonoIsotopic Mass                 239.92601
   Topological Polar Surface Area    76.2
   Heavy Atom Count                  13
   Formal Charge                     0
   Complexity                        216
   Isotope Atom Count                0
   Defined Atom Stereocenter Count   0
   Undefined Atom Stereocenter Count 0
   Defined Bond Stereocenter Count   0
   Undefined Bond Stereocenter Count 0
   Covalently-Bonded Unit Count      1
   Feature 3D Acceptor Count         3
   Feature 3D Donor Count            1
   Feature 3D Anion Count            1
   Feature 3D Cation Count           1
   Feature 3D Ring Count             1
   Effective Rotor Count             1
   Conformer Sampling RMSD           0.4
   CID Conformer Count               [13]2

References

   1. http://www.ars.usda.gov/SP2UserFiles/ad_hoc/12755100DatabaseFiles/PesticidePropertiesDatabase/IndividualPesticideFiles/PICLORAM.TXT
   2. http://chem.sis.nlm.nih.gov/chemidplus/
   3. http://toxnet.nlm.nih.gov/cgi-bin/sis/search/r?dbs+hsdb:@term+@rn+@rel+1918-02-1
   4. http://toxnet.nlm.nih.gov/cgi-bin/sis/search/r?dbs+hsdb:@term+@rn+@rel+1918-02-1
   5. http://toxnet.nlm.nih.gov/cgi-bin/sis/search/r?dbs+hsdb:@term+@rn+@rel+1918-02-1
   6. http://toxnet.nlm.nih.gov/cgi-bin/sis/search/r?dbs+hsdb:@term+@rn+@rel+1918-02-1
   7. http://toxnet.nlm.nih.gov/cgi-bin/sis/search/r?dbs+hsdb:@term+@rn+@rel+1918-02-1
   8. http://toxnet.nlm.nih.gov/cgi-bin/sis/search/r?dbs+hsdb:@term+@rn+@rel+1918-02-1
   9. http://toxnet.nlm.nih.gov/cgi-bin/sis/search/r?dbs+hsdb:@term+@rn+@rel+1918-02-1
  10. http://toxnet.nlm.nih.gov/cgi-bin/sis/search/r?dbs+hsdb:@term+@rn+@rel+1918-02-1
  11. http://toxnet.nlm.nih.gov/cgi-bin/sis/search/r?dbs+hsdb:@term+@rn+@rel+1918-02-1
  12. http://toxnet.nlm.nih.gov/cgi-bin/sis/search/r?dbs+hsdb:@term+@rn+@rel+1918-02-1
  13. http://pubchem.ncbi.nlm.nih.gov/vw3d/vw3d.cgi?cid=15965
