   Color/Form

     * Oily liquid
     * Colorless liquid
     * COLORLESS, MOBILE, OILY LIQUID

   from [1]HSDB

   Odor
        CHARACTERISTIC OF AMINES
   from [2]HSDB

   Boiling Point
        205 deg C at 750 mm Hg; 100 deg at 21 mm Hg
   from [3]HSDB

   Dissociation Constants
        pKa = 10.14 (est)
   from [4]HSDB

   Octanol/Water Partition Coefficient
        log Kow = 1.90
   from [5]HSDB

   Solubilities

     * SOL IN CHLOROFORM, ETHER, ACETONE & DIL ACIDS; SLIGHTLY SOL IN
       WATER
     * In water, 1.8X10+4 mg/L at 25 deg C (est)

   from [6]HSDB

   Spectral Properties

     * Intense mass spectral peaks: 58 m/z, 65 m/z, 91 m/z, 134 m/z
     * MASS: 42281 (NIST/EPA/MSDC Mass Spectral Database, 1990 version);
       425 (National Bureau of Standards)
     * IR: 4635 (Sadtler Research Laboratories IR Grating collection)
     * UV: 11876 (Sadtler Research Laboratories spectral collection)
     * Raman: 1056 (Sadtler Research Laboratories spectral collection)
     * 1H NMR: 18853 (Sadtler Research Laboratories spectral collection)

   from [7]HSDB

   Vapor Pressure
        9.6X10-2 mm Hg at 25 deg C (est)
   from [8]HSDB

   Other Chemical/Physical Properties

     * Crystals. MP: 198 deg C /Hydrochloride/
     * Odorless or has faint characteristic odor; white, crystalline
       powder; very soluble in chloroform; insoluble in ether; very
       slightly soluble in benzene & acetone. /Phentermine hydrochloride/
     * White, odorless, hygroscopic, crystalline powder; soluble in water
       and lower alcohols, slightly soluble in chloroform, and insoluble
       in ether. /Hydrochloride/
     * Henry's Law constant = 1.4X10-6 atm-cu m/mol at 25 deg C (est)
     * Hydroxyl radical reaction rate constant = 2.7X10-11 cu cm/molec-sec
       at 25 deg C (est)

   from [9]HSDB

   Computed Properties
   Molecular Weight                  149.2328 [g/mol]
   Molecular Formula                 C[10]H[15]N
   XLogP3                            1.9
   H-Bond Donor                      1
   H-Bond Acceptor                   1
   Rotatable Bond Count              2
   Exact Mass                        149.120449
   MonoIsotopic Mass                 149.120449
   Topological Polar Surface Area    26
   Heavy Atom Count                  11
   Formal Charge                     0
   Complexity                        112
   Isotope Atom Count                0
   Defined Atom Stereocenter Count   0
   Undefined Atom Stereocenter Count 0
   Defined Bond Stereocenter Count   0
   Undefined Bond Stereocenter Count 0
   Covalently-Bonded Unit Count      1
   Feature 3D Donor Count            1
   Feature 3D Cation Count           1
   Feature 3D Hydrophobe Count       1
   Feature 3D Ring Count             1
   Effective Rotor Count             2
   Conformer Sampling RMSD           0.4
   CID Conformer Count               [10]4

References

   1. http://toxnet.nlm.nih.gov/cgi-bin/sis/search/r?dbs+hsdb:@term+@rn+@rel+122-09-8
   2. http://toxnet.nlm.nih.gov/cgi-bin/sis/search/r?dbs+hsdb:@term+@rn+@rel+122-09-8
   3. http://toxnet.nlm.nih.gov/cgi-bin/sis/search/r?dbs+hsdb:@term+@rn+@rel+122-09-8
   4. http://toxnet.nlm.nih.gov/cgi-bin/sis/search/r?dbs+hsdb:@term+@rn+@rel+122-09-8
   5. http://toxnet.nlm.nih.gov/cgi-bin/sis/search/r?dbs+hsdb:@term+@rn+@rel+122-09-8
   6. http://toxnet.nlm.nih.gov/cgi-bin/sis/search/r?dbs+hsdb:@term+@rn+@rel+122-09-8
   7. http://toxnet.nlm.nih.gov/cgi-bin/sis/search/r?dbs+hsdb:@term+@rn+@rel+122-09-8
   8. http://toxnet.nlm.nih.gov/cgi-bin/sis/search/r?dbs+hsdb:@term+@rn+@rel+122-09-8
   9. http://toxnet.nlm.nih.gov/cgi-bin/sis/search/r?dbs+hsdb:@term+@rn+@rel+122-09-8
  10. http://pubchem.ncbi.nlm.nih.gov/vw3d/vw3d.cgi?cid=4771
