16203168
  -OEChem-07051213112D

 70 74  0     1  0  0  0  0  0999 V2000
    7.7610    1.5609    0.0000 O   0  0  0  0  0  0  0  0  0  0  0  0
    9.5312    3.6197    0.0000 O   0  0  0  0  0  0  0  0  0  0  0  0
    7.7331    0.5955    0.0000 O   0  0  0  0  0  0  0  0  0  0  0  0
    4.2690    1.5955    0.0000 O   0  0  0  0  0  0  0  0  0  0  0  0
    6.0010    4.5955    0.0000 O   0  0  0  0  0  0  0  0  0  0  0  0
    2.5369    0.5955    0.0000 O   0  0  0  0  0  0  0  0  0  0  0  0
    5.8672   -2.6366    0.0000 O   0  0  0  0  0  0  0  0  0  0  0  0
    8.8671   -0.9045    0.0000 O   0  0  0  0  0  0  0  0  0  0  0  0
   12.1311    2.0614    0.0000 O   0  0  0  0  0  0  0  0  0  0  0  0
    2.5369   -1.4045    0.0000 O   0  0  0  0  0  0  0  0  0  0  0  0
   12.1234    0.0614    0.0000 O   0  0  0  0  0  0  0  0  0  0  0  0
    8.8671   -4.3686    0.0000 O   0  0  0  0  0  0  0  0  0  0  0  0
    6.0010    0.5955    0.0000 C   0  0  2  0  0  0  0  0  0  0  0  0
    6.0010    1.5955    0.0000 C   0  0  0  0  0  0  0  0  0  0  0  0
    8.6671    3.1163    0.0000 C   0  0  2  0  0  0  0  0  0  0  0  0
    8.6671    2.0747    0.0000 C   0  0  2  0  0  0  0  0  0  0  0  0
    6.8671    2.0955    0.0000 C   0  0  0  0  0  0  0  0  0  0  0  0
    7.7610    3.6302    0.0000 C   0  0  0  0  0  0  0  0  0  0  0  0
    6.8671    3.0955    0.0000 C   0  0  0  0  0  0  0  0  0  0  0  0
    6.8671    0.0955    0.0000 C   0  0  2  0  0  0  0  0  0  0  0  0
    5.1350    0.0955    0.0000 C   0  0  0  0  0  0  0  0  0  0  0  0
    6.8671   -0.9045    0.0000 C   0  0  0  0  0  0  0  0  0  0  0  0
    5.1350    2.0955    0.0000 C   0  0  0  0  0  0  0  0  0  0  0  0
    6.0010    3.5955    0.0000 C   0  0  0  0  0  0  0  0  0  0  0  0
    9.5312    1.5714    0.0000 C   0  0  0  0  0  0  0  0  0  0  0  0
    5.1350    3.0955    0.0000 C   0  0  0  0  0  0  0  0  0  0  0  0
    7.3671   -1.7705    0.0000 C   0  0  0  0  0  0  0  0  0  0  0  0
    4.2690    0.5955    0.0000 C   0  0  0  0  0  0  0  0  0  0  0  0
    5.1350   -0.9045    0.0000 C   0  0  0  0  0  0  0  0  0  0  0  0
   10.3991    2.0680    0.0000 C   0  0  0  0  0  0  0  0  0  0  0  0
    9.5273    0.5714    0.0000 C   0  0  0  0  0  0  0  0  0  0  0  0
    3.4030    0.0955    0.0000 C   0  0  0  0  0  0  0  0  0  0  0  0
    4.2690   -1.4045    0.0000 C   0  0  0  0  0  0  0  0  0  0  0  0
    6.8671   -2.6365    0.0000 C   0  0  0  0  0  0  0  0  0  0  0  0
    8.3671   -1.7705    0.0000 C   0  0  0  0  0  0  0  0  0  0  0  0
   11.2632    1.5647    0.0000 C   0  0  0  0  0  0  0  0  0  0  0  0
    3.4030   -0.9045    0.0000 C   0  0  0  0  0  0  0  0  0  0  0  0
   10.3914    0.0680    0.0000 C   0  0  0  0  0  0  0  0  0  0  0  0
   11.2593    0.5647    0.0000 C   0  0  0  0  0  0  0  0  0  0  0  0
    7.3671   -3.5026    0.0000 C   0  0  0  0  0  0  0  0  0  0  0  0
    8.8671   -2.6365    0.0000 C   0  0  0  0  0  0  0  0  0  0  0  0
    8.3671   -3.5026    0.0000 C   0  0  0  0  0  0  0  0  0  0  0  0
    6.0010   -0.0245    0.0000 H   0  0  0  0  0  0  0  0  0  0  0  0
    8.6635    3.7363    0.0000 H   0  0  0  0  0  0  0  0  0  0  0  0
    8.6635    1.4547    0.0000 H   0  0  0  0  0  0  0  0  0  0  0  0
    8.1546    4.1092    0.0000 H   0  0  0  0  0  0  0  0  0  0  0  0
    7.3564    4.1000    0.0000 H   0  0  0  0  0  0  0  0  0  0  0  0
    7.4040   -0.2145    0.0000 H   0  0  0  0  0  0  0  0  0  0  0  0
    6.2844   -0.6924    0.0000 H   0  0  0  0  0  0  0  0  0  0  0  0
    7.4659   -0.7440    0.0000 H   0  0  0  0  0  0  0  0  0  0  0  0
    4.5981    3.4055    0.0000 H   0  0  0  0  0  0  0  0  0  0  0  0
    4.2690    1.2155    0.0000 H   0  0  0  0  0  0  0  0  0  0  0  0
    5.6720   -1.2145    0.0000 H   0  0  0  0  0  0  0  0  0  0  0  0
    9.5288    4.2397    0.0000 H   0  0  0  0  0  0  0  0  0  0  0  0
    8.2700    0.2855    0.0000 H   0  0  0  0  0  0  0  0  0  0  0  0
   10.4015    2.6880    0.0000 H   0  0  0  0  0  0  0  0  0  0  0  0
    8.9892    0.2634    0.0000 H   0  0  0  0  0  0  0  0  0  0  0  0
    3.7320    1.9055    0.0000 H   0  0  0  0  0  0  0  0  0  0  0  0
    4.2690   -2.0245    0.0000 H   0  0  0  0  0  0  0  0  0  0  0  0
    5.4641    4.9055    0.0000 H   0  0  0  0  0  0  0  0  0  0  0  0
   10.3890   -0.5520    0.0000 H   0  0  0  0  0  0  0  0  0  0  0  0
    7.0571   -4.0395    0.0000 H   0  0  0  0  0  0  0  0  0  0  0  0
    9.4871   -2.6365    0.0000 H   0  0  0  0  0  0  0  0  0  0  0  0
    2.0000    0.2855    0.0000 H   0  0  0  0  0  0  0  0  0  0  0  0
    5.5572   -3.1735    0.0000 H   0  0  0  0  0  0  0  0  0  0  0  0
    9.4871   -0.9045    0.0000 H   0  0  0  0  0  0  0  0  0  0  0  0
   12.6669    1.7493    0.0000 H   0  0  0  0  0  0  0  0  0  0  0  0
    2.5369   -2.0245    0.0000 H   0  0  0  0  0  0  0  0  0  0  0  0
   12.1210   -0.5586    0.0000 H   0  0  0  0  0  0  0  0  0  0  0  0
    8.5571   -4.9055    0.0000 H   0  0  0  0  0  0  0  0  0  0  0  0
  1 16  1  0  0  0  0
  1 17  1  0  0  0  0
 15  2  1  6  0  0  0
  2 54  1  0  0  0  0
 20  3  1  1  0  0  0
  3 55  1  0  0  0  0
  4 23  1  0  0  0  0
  4 58  1  0  0  0  0
  5 24  1  0  0  0  0
  5 60  1  0  0  0  0
  6 32  1  0  0  0  0
  6 64  1  0  0  0  0
  7 34  1  0  0  0  0
  7 65  1  0  0  0  0
  8 35  1  0  0  0  0
  8 66  1  0  0  0  0
  9 36  1  0  0  0  0
  9 67  1  0  0  0  0
 10 37  1  0  0  0  0
 10 68  1  0  0  0  0
 11 39  1  0  0  0  0
 11 69  1  0  0  0  0
 12 42  1  0  0  0  0
 12 70  1  0  0  0  0
 13 14  1  0  0  0  0
 13 20  1  0  0  0  0
 13 21  1  6  0  0  0
 13 43  1  0  0  0  0
 14 17  1  0  0  0  0
 14 23  2  0  0  0  0
 15 16  1  0  0  0  0
 15 18  1  0  0  0  0
 15 44  1  0  0  0  0
 16 25  1  6  0  0  0
 16 45  1  0  0  0  0
 17 19  2  0  0  0  0
 18 19  1  0  0  0  0
 18 46  1  0  0  0  0
 18 47  1  0  0  0  0
 19 24  1  0  0  0  0
 20 22  1  0  0  0  0
 20 48  1  0  0  0  0
 21 28  2  0  0  0  0
 21 29  1  0  0  0  0
 22 27  1  0  0  0  0
 22 49  1  0  0  0  0
 22 50  1  0  0  0  0
 23 26  1  0  0  0  0
 24 26  2  0  0  0  0
 25 30  2  0  0  0  0
 25 31  1  0  0  0  0
 26 51  1  0  0  0  0
 27 34  2  0  0  0  0
 27 35  1  0  0  0  0
 28 32  1  0  0  0  0
 28 52  1  0  0  0  0
 29 33  2  0  0  0  0
 29 53  1  0  0  0  0
 30 36  1  0  0  0  0
 30 56  1  0  0  0  0
 31 38  2  0  0  0  0
 31 57  1  0  0  0  0
 32 37  2  0  0  0  0
 33 37  1  0  0  0  0
 33 59  1  0  0  0  0
 34 40  1  0  0  0  0
 35 41  2  0  0  0  0
 36 39  2  0  0  0  0
 38 39  1  0  0  0  0
 38 61  1  0  0  0  0
 40 42  2  0  0  0  0
 40 62  1  0  0  0  0
 41 42  1  0  0  0  0
 41 63  1  0  0  0  0
M  END
> <PUBCHEM_COMPOUND_CID>
16203168

> <PUBCHEM_COMPOUND_CANONICALIZED>
1

> <PUBCHEM_CACTVS_COMPLEXITY>
867

> <PUBCHEM_CACTVS_HBOND_ACCEPTOR>
12

> <PUBCHEM_CACTVS_HBOND_DONOR>
11

> <PUBCHEM_CACTVS_ROTATABLE_BOND>
6

> <PUBCHEM_CACTVS_SUBSKEYS>
AAADceB4PAAAAAAAAAAAAAAAAAAAAAAAAAA0YMGCAAAAAACRVAAAGgAACAAADRSgmAIwBoAABgCAAiBCAAACCAAgIAAIiAAGiIgNNyKGMRqCeCGlwBULuAfA4PwOoAADCAAIQABAAAYQABCAAAAAAAAAAA==

> <PUBCHEM_IUPAC_OPENEYE_NAME>
(2S,3S)-2-(3,4-dihydroxyphenyl)-8-[(1R,2S)-1-(3,4-dihydroxyphenyl)-2-hydroxy-3-(2,4,6-trihydroxyphenyl)propyl]chromane-3,5,7-triol

> <PUBCHEM_IUPAC_CAS_NAME>
(2S,3S)-2-(3,4-dihydroxyphenyl)-8-[(1R,2S)-1-(3,4-dihydroxyphenyl)-2-hydroxy-3-(2,4,6-trihydroxyphenyl)propyl]-3,4-dihydro-2H-1-benzopyran-3,5,7-triol

> <PUBCHEM_IUPAC_NAME>
(2S,3S)-2-(3,4-dihydroxyphenyl)-8-[(1R,2S)-1-(3,4-dihydroxyphenyl)-2-hydroxy-3-(2,4,6-trihydroxyphenyl)propyl]-3,4-dihydro-2H-chromene-3,5,7-triol

> <PUBCHEM_IUPAC_SYSTEMATIC_NAME>
(2S,3S)-2-[3,4-bis(oxidanyl)phenyl]-8-[(1R,2S)-1-[3,4-bis(oxidanyl)phenyl]-2-oxidanyl-3-[2,4,6-tris(oxidanyl)phenyl]propyl]-3,4-dihydro-2H-chromene-3,5,7-triol

> <PUBCHEM_IUPAC_TRADITIONAL_NAME>
(2S,3S)-2-(3,4-dihydroxyphenyl)-8-[(1R,2S)-1-(3,4-dihydroxyphenyl)-2-hydroxy-3-(2,4,6-trihydroxyphenyl)propyl]chroman-3,5,7-triol

> <PUBCHEM_IUPAC_INCHI>
InChI=1S/C30H28O12/c31-14-7-19(34)15(20(35)8-14)9-24(39)27(12-1-3-17(32)22(37)5-12)28-25(40)11-21(36)16-10-26(41)29(42-30(16)28)13-2-4-18(33)23(38)6-13/h1-8,11,24,26-27,29,31-41H,9-10H2/t24-,26-,27-,29-/m0/s1

> <PUBCHEM_IUPAC_INCHIKEY>
AAOPKIFUFWCDQZ-CXXWFMJBSA-N

> <PUBCHEM_XLOGP3_AA>
2.7

> <PUBCHEM_EXACT_MASS>
580.158076

> <PUBCHEM_MOLECULAR_FORMULA>
C30H28O12

> <PUBCHEM_MOLECULAR_WEIGHT>
580.53612

> <PUBCHEM_OPENEYE_CAN_SMILES>
C1C(C(OC2=C1C(=CC(=C2C(C3=CC(=C(C=C3)O)O)C(CC4=C(C=C(C=C4O)O)O)O)O)O)C5=CC(=C(C=C5)O)O)O

> <PUBCHEM_OPENEYE_ISO_SMILES>
C1[C@@H]([C@@H](OC2=C1C(=CC(=C2[C@@H](C3=CC(=C(C=C3)O)O)[C@H](CC4=C(C=C(C=C4O)O)O)O)O)O)C5=CC(=C(C=C5)O)O)O

> <PUBCHEM_CACTVS_TPSA>
232

> <PUBCHEM_MONOISOTOPIC_WEIGHT>
580.158076

> <PUBCHEM_TOTAL_CHARGE>
0

> <PUBCHEM_HEAVY_ATOM_COUNT>
42

> <PUBCHEM_ATOM_DEF_STEREO_COUNT>
4

> <PUBCHEM_ATOM_UDEF_STEREO_COUNT>
0

> <PUBCHEM_BOND_DEF_STEREO_COUNT>
0

> <PUBCHEM_BOND_UDEF_STEREO_COUNT>
0

> <PUBCHEM_ISOTOPIC_ATOM_COUNT>
0

> <PUBCHEM_COMPONENT_COUNT>
1

> <PUBCHEM_CACTVS_TAUTO_COUNT>
994

> <PUBCHEM_COORDINATE_TYPE>
1
5
255

> <PUBCHEM_BONDANNOTATIONS>
13  21  6
14  17  8
14  23  8
16  25  6
17  19  8
19  24  8
15  2  6
21  28  8
21  29  8
23  26  8
24  26  8
25  30  8
25  31  8
27  34  8
27  35  8
28  32  8
29  33  8
20  3  5
30  36  8
31  38  8
32  37  8
33  37  8
34  40  8
35  41  8
36  39  8
38  39  8
40  42  8
41  42  8

$$$$

