17395755
  -OEChem-06241222522D

 45 48  0     1  0  0  0  0  0999 V2000
    4.6783    0.7958    0.0000 O   0  0  0  0  0  0  0  0  0  0  0  0
   12.9290   -2.6006    0.0000 O   0  0  0  0  0  0  0  0  0  0  0  0
   13.7337   -1.2067    0.0000 O   0  0  0  0  0  0  0  0  0  0  0  0
    8.2619    1.6006    0.0000 O   0  0  0  0  0  0  0  0  0  0  0  0
    9.2619   -1.8635    0.0000 O   0  0  0  0  0  0  0  0  0  0  0  0
    6.7619    0.7345    0.0000 N   0  0  0  0  0  0  0  0  0  0  0  0
    9.2619   -0.1315    0.0000 N   0  0  0  0  0  0  0  0  0  0  0  0
    6.2619    1.6006    0.0000 C   0  0  3  0  0  0  0  0  0  0  0  0
    5.2619    1.6006    0.0000 C   0  0  0  0  0  0  0  0  0  0  0  0
    3.7320    2.1006    0.0000 C   0  0  0  0  0  0  0  0  0  0  0  0
    4.6783    2.4053    0.0000 C   0  0  0  0  0  0  0  0  0  0  0  0
    3.7320    1.1006    0.0000 C   0  0  0  0  0  0  0  0  0  0  0  0
    6.7619    2.4666    0.0000 C   0  0  0  0  0  0  0  0  0  0  0  0
    7.7619    0.7345    0.0000 C   0  0  0  0  0  0  0  0  0  0  0  0
    8.2619   -0.1315    0.0000 C   0  0  0  0  0  0  0  0  0  0  0  0
    2.8660    2.6006    0.0000 C   0  0  0  0  0  0  0  0  0  0  0  0
    2.8660    0.6006    0.0000 C   0  0  0  0  0  0  0  0  0  0  0  0
   10.7619   -0.9975    0.0000 C   0  0  0  0  0  0  0  0  0  0  0  0
   12.2619   -1.8635    0.0000 C   0  0  0  0  0  0  0  0  0  0  0  0
   12.7619   -0.9975    0.0000 C   0  0  0  0  0  0  0  0  0  0  0  0
    2.0000    2.1006    0.0000 C   0  0  0  0  0  0  0  0  0  0  0  0
   11.2619   -1.8635    0.0000 C   0  0  0  0  0  0  0  0  0  0  0  0
    2.0000    1.1006    0.0000 C   0  0  0  0  0  0  0  0  0  0  0  0
    9.7619   -0.9975    0.0000 C   0  0  0  0  0  0  0  0  0  0  0  0
   11.2619   -0.1315    0.0000 C   0  0  0  0  0  0  0  0  0  0  0  0
   12.2619   -0.1315    0.0000 C   0  0  0  0  0  0  0  0  0  0  0  0
   13.8368   -2.1954    0.0000 C   0  0  0  0  0  0  0  0  0  0  0  0
    6.8819    1.6006    0.0000 H   0  0  0  0  0  0  0  0  0  0  0  0
    4.8709    2.9946    0.0000 H   0  0  0  0  0  0  0  0  0  0  0  0
    6.4519    0.1976    0.0000 H   0  0  0  0  0  0  0  0  0  0  0  0
    7.2988    2.1566    0.0000 H   0  0  0  0  0  0  0  0  0  0  0  0
    7.0719    3.0035    0.0000 H   0  0  0  0  0  0  0  0  0  0  0  0
    6.2249    2.7766    0.0000 H   0  0  0  0  0  0  0  0  0  0  0  0
    7.6793   -0.3435    0.0000 H   0  0  0  0  0  0  0  0  0  0  0  0
    8.3695   -0.7421    0.0000 H   0  0  0  0  0  0  0  0  0  0  0  0
    2.8660    3.2206    0.0000 H   0  0  0  0  0  0  0  0  0  0  0  0
    2.8660   -0.0194    0.0000 H   0  0  0  0  0  0  0  0  0  0  0  0
    9.5719    0.4054    0.0000 H   0  0  0  0  0  0  0  0  0  0  0  0
   10.9519   -2.4005    0.0000 H   0  0  0  0  0  0  0  0  0  0  0  0
    1.4631    2.4106    0.0000 H   0  0  0  0  0  0  0  0  0  0  0  0
    1.4631    0.7906    0.0000 H   0  0  0  0  0  0  0  0  0  0  0  0
   10.9519    0.4054    0.0000 H   0  0  0  0  0  0  0  0  0  0  0  0
   12.5719    0.4054    0.0000 H   0  0  0  0  0  0  0  0  0  0  0  0
   14.0285   -2.7850    0.0000 H   0  0  0  0  0  0  0  0  0  0  0  0
   14.4432   -2.0667    0.0000 H   0  0  0  0  0  0  0  0  0  0  0  0
  1  9  1  0  0  0  0
  1 12  1  0  0  0  0
  2 19  1  0  0  0  0
  2 27  1  0  0  0  0
  3 20  1  0  0  0  0
  3 27  1  0  0  0  0
  4 14  2  0  0  0  0
  5 24  2  0  0  0  0
  6  8  1  0  0  0  0
  6 14  1  0  0  0  0
  6 30  1  0  0  0  0
  7 15  1  0  0  0  0
  7 24  1  0  0  0  0
  7 38  1  0  0  0  0
  8  9  1  0  0  0  0
  8 13  1  0  0  0  0
  8 28  1  0  0  0  0
  9 11  2  0  0  0  0
 10 11  1  0  0  0  0
 10 12  1  0  0  0  0
 10 16  2  0  0  0  0
 11 29  1  0  0  0  0
 12 17  2  0  0  0  0
 13 31  1  0  0  0  0
 13 32  1  0  0  0  0
 13 33  1  0  0  0  0
 14 15  1  0  0  0  0
 15 34  1  0  0  0  0
 15 35  1  0  0  0  0
 16 21  1  0  0  0  0
 16 36  1  0  0  0  0
 17 23  1  0  0  0  0
 17 37  1  0  0  0  0
 18 22  2  0  0  0  0
 18 24  1  0  0  0  0
 18 25  1  0  0  0  0
 19 20  2  0  0  0  0
 19 22  1  0  0  0  0
 20 26  1  0  0  0  0
 21 23  2  0  0  0  0
 21 40  1  0  0  0  0
 22 39  1  0  0  0  0
 23 41  1  0  0  0  0
 25 26  2  0  0  0  0
 25 42  1  0  0  0  0
 26 43  1  0  0  0  0
 27 44  1  0  0  0  0
 27 45  1  0  0  0  0
M  END
> <PUBCHEM_COMPOUND_CID>
17395755

> <PUBCHEM_COMPOUND_CANONICALIZED>
1

> <PUBCHEM_CACTVS_COMPLEXITY>
557

> <PUBCHEM_CACTVS_HBOND_ACCEPTOR>
5

> <PUBCHEM_CACTVS_HBOND_DONOR>
2

> <PUBCHEM_CACTVS_ROTATABLE_BOND>
5

> <PUBCHEM_CACTVS_SUBSKEYS>
AAADceB7OAAAAAAAAAAAAAAAAAAAASJAAAAwYAAAAAAAAEgB9AAAHgAQAAAADCzBmAcyDsLABECIAqFSEACCCAAkIAAIiIGOjMgfZjKEtTu3OSrk1hGeqYe63bPeIAABAAAIQABAAAIAABCAAAAAAAAAAA==

> <PUBCHEM_IUPAC_OPENEYE_NAME>
N-[2-[1-(benzofuran-2-yl)ethylamino]-2-oxo-ethyl]-1,3-benzodioxole-5-carboxamide

> <PUBCHEM_IUPAC_CAS_NAME>
N-[2-[1-(2-benzofuranyl)ethylamino]-2-oxoethyl]-1,3-benzodioxole-5-carboxamide

> <PUBCHEM_IUPAC_NAME>
N-[2-[1-(1-benzofuran-2-yl)ethylamino]-2-oxoethyl]-1,3-benzodioxole-5-carboxamide

> <PUBCHEM_IUPAC_SYSTEMATIC_NAME>
N-[2-[1-(1-benzofuran-2-yl)ethylamino]-2-oxidanylidene-ethyl]-1,3-benzodioxole-5-carboxamide

> <PUBCHEM_IUPAC_TRADITIONAL_NAME>
N-[2-[1-(benzofuran-2-yl)ethylamino]-2-keto-ethyl]-piperonylamide

> <PUBCHEM_IUPAC_INCHI>
InChI=1S/C20H18N2O5/c1-12(17-8-13-4-2-3-5-15(13)27-17)22-19(23)10-21-20(24)14-6-7-16-18(9-14)26-11-25-16/h2-9,12H,10-11H2,1H3,(H,21,24)(H,22,23)

> <PUBCHEM_IUPAC_INCHIKEY>
OWVMMCLOBUHLQF-UHFFFAOYSA-N

> <PUBCHEM_XLOGP3_AA>
2.7

> <PUBCHEM_EXACT_MASS>
366.121572

> <PUBCHEM_MOLECULAR_FORMULA>
C20H18N2O5

> <PUBCHEM_MOLECULAR_WEIGHT>
366.36732

> <PUBCHEM_OPENEYE_CAN_SMILES>
CC(C1=CC2=CC=CC=C2O1)NC(=O)CNC(=O)C3=CC4=C(C=C3)OCO4

> <PUBCHEM_OPENEYE_ISO_SMILES>
CC(C1=CC2=CC=CC=C2O1)NC(=O)CNC(=O)C3=CC4=C(C=C3)OCO4

> <PUBCHEM_CACTVS_TPSA>
89.8

> <PUBCHEM_MONOISOTOPIC_WEIGHT>
366.121572

> <PUBCHEM_TOTAL_CHARGE>
0

> <PUBCHEM_HEAVY_ATOM_COUNT>
27

> <PUBCHEM_ATOM_DEF_STEREO_COUNT>
0

> <PUBCHEM_ATOM_UDEF_STEREO_COUNT>
1

> <PUBCHEM_BOND_DEF_STEREO_COUNT>
0

> <PUBCHEM_BOND_UDEF_STEREO_COUNT>
0

> <PUBCHEM_ISOTOPIC_ATOM_COUNT>
0

> <PUBCHEM_COMPONENT_COUNT>
1

> <PUBCHEM_CACTVS_TAUTO_COUNT>
4

> <PUBCHEM_COORDINATE_TYPE>
1
5
255

> <PUBCHEM_BONDANNOTATIONS>
1  12  8
1  9  8
10  11  8
10  12  8
10  16  8
12  17  8
16  21  8
17  23  8
18  22  8
18  25  8
19  20  8
19  22  8
20  26  8
21  23  8
25  26  8
8  13  3
9  11  8

$$$$

