78000
  -OEChem-07051212542D

 58 57  0     1  0  0  0  0  0999 V2000
   10.5390    4.0600    0.0000 P   0  0  0  0  0  0  0  0  0  0  0  0
    3.1350    5.5369    0.0000 O   0  0  0  0  0  0  0  0  0  0  0  0
    4.0010    2.0369    0.0000 O   0  0  0  0  0  0  0  0  0  0  0  0
    5.7331    2.0369    0.0000 O   0  0  0  0  0  0  0  0  0  0  0  0
    3.1350    6.5369    0.0000 O   0  0  0  0  0  0  0  0  0  0  0  0
   11.4050    4.5600    0.0000 O   0  0  0  0  0  0  0  0  0  0  0  0
    9.6730    3.5600    0.0000 O   0  0  0  0  0  0  0  0  0  0  0  0
   10.0390    4.9260    0.0000 O   0  0  0  0  0  0  0  0  0  0  0  0
   11.0390    3.1940    0.0000 O   0  0  0  0  0  0  0  0  0  0  0  0
    4.8671    6.5369    0.0000 N   0  0  0  0  0  0  0  0  0  0  0  0
    6.5991    5.5369    0.0000 N   0  0  0  0  0  0  0  0  0  0  0  0
    4.8671    5.5369    0.0000 C   0  0  2  0  0  0  0  0  0  0  0  0
    5.7331    5.0369    0.0000 C   0  0  2  0  0  0  0  0  0  0  0  0
    4.0010    5.0369    0.0000 C   0  0  1  0  0  0  0  0  0  0  0  0
    5.7331    4.0369    0.0000 C   0  0  0  0  0  0  0  0  0  0  0  0
    4.0010    4.0369    0.0000 C   0  0  0  0  0  0  0  0  0  0  0  0
    4.8671    3.5369    0.0000 C   0  0  0  0  0  0  0  0  0  0  0  0
    2.2690    5.0369    0.0000 C   0  0  0  0  0  0  0  0  0  0  0  0
    1.4030    5.5369    0.0000 C   0  0  0  0  0  0  0  0  0  0  0  0
    2.2690    4.0369    0.0000 C   0  0  0  0  0  0  0  0  0  0  0  0
    4.8671    2.5369    0.0000 C   0  0  0  0  0  0  0  0  0  0  0  0
    4.0010    7.0369    0.0000 C   0  0  0  0  0  0  0  0  0  0  0  0
    0.5369    5.0369    0.0000 C   0  0  0  0  0  0  0  0  0  0  0  0
    1.4030    3.5369    0.0000 C   0  0  0  0  0  0  0  0  0  0  0  0
    4.0010    8.0369    0.0000 C   0  0  0  0  0  0  0  0  0  0  0  0
    4.0010    1.0369    0.0000 C   0  0  0  0  0  0  0  0  0  0  0  0
    3.1350    0.5369    0.0000 C   0  0  0  0  0  0  0  0  0  0  0  0
    4.3301    5.8469    0.0000 H   0  0  0  0  0  0  0  0  0  0  0  0
    6.2700    4.7269    0.0000 H   0  0  0  0  0  0  0  0  0  0  0  0
    4.0010    5.6569    0.0000 H   0  0  0  0  0  0  0  0  0  0  0  0
    5.9451    3.4543    0.0000 H   0  0  0  0  0  0  0  0  0  0  0  0
    6.3437    4.1446    0.0000 H   0  0  0  0  0  0  0  0  0  0  0  0
    3.4641    3.7269    0.0000 H   0  0  0  0  0  0  0  0  0  0  0  0
    2.8059    4.7269    0.0000 H   0  0  0  0  0  0  0  0  0  0  0  0
    5.4040    6.8469    0.0000 H   0  0  0  0  0  0  0  0  0  0  0  0
    7.1360    5.2269    0.0000 H   0  0  0  0  0  0  0  0  0  0  0  0
    6.5991    6.1569    0.0000 H   0  0  0  0  0  0  0  0  0  0  0  0
    1.8015    6.0119    0.0000 H   0  0  0  0  0  0  0  0  0  0  0  0
    1.0044    6.0119    0.0000 H   0  0  0  0  0  0  0  0  0  0  0  0
    2.4810    3.4543    0.0000 H   0  0  0  0  0  0  0  0  0  0  0  0
    2.8796    4.1446    0.0000 H   0  0  0  0  0  0  0  0  0  0  0  0
    0.2269    5.5739    0.0000 H   0  0  0  0  0  0  0  0  0  0  0  0
    0.0000    4.7269    0.0000 H   0  0  0  0  0  0  0  0  0  0  0  0
    0.8469    4.5000    0.0000 H   0  0  0  0  0  0  0  0  0  0  0  0
    1.0930    4.0739    0.0000 H   0  0  0  0  0  0  0  0  0  0  0  0
    0.8660    3.2269    0.0000 H   0  0  0  0  0  0  0  0  0  0  0  0
    1.7130    3.0000    0.0000 H   0  0  0  0  0  0  0  0  0  0  0  0
    4.6210    8.0369    0.0000 H   0  0  0  0  0  0  0  0  0  0  0  0
    4.0010    8.6569    0.0000 H   0  0  0  0  0  0  0  0  0  0  0  0
    3.3810    8.0369    0.0000 H   0  0  0  0  0  0  0  0  0  0  0  0
    4.2131    0.4543    0.0000 H   0  0  0  0  0  0  0  0  0  0  0  0
    4.6116    1.1446    0.0000 H   0  0  0  0  0  0  0  0  0  0  0  0
    2.8250    1.0739    0.0000 H   0  0  0  0  0  0  0  0  0  0  0  0
    2.5981    0.2269    0.0000 H   0  0  0  0  0  0  0  0  0  0  0  0
    3.4450    0.0000    0.0000 H   0  0  0  0  0  0  0  0  0  0  0  0
   10.3490    5.4630    0.0000 H   0  0  0  0  0  0  0  0  0  0  0  0
    9.1360    3.8700    0.0000 H   0  0  0  0  0  0  0  0  0  0  0  0
   11.9420    4.2500    0.0000 H   0  0  0  0  0  0  0  0  0  0  0  0
  1  6  1  0  0  0  0
  1  7  1  0  0  0  0
  1  8  1  0  0  0  0
  1  9  2  0  0  0  0
 14  2  1  1  0  0  0
  2 18  1  0  0  0  0
  3 21  1  0  0  0  0
  3 26  1  0  0  0  0
  4 21  2  0  0  0  0
  5 22  2  0  0  0  0
  6 58  1  0  0  0  0
  7 57  1  0  0  0  0
  8 56  1  0  0  0  0
 12 10  1  6  0  0  0
 10 22  1  0  0  0  0
 10 35  1  0  0  0  0
 13 11  1  1  0  0  0
 11 36  1  0  0  0  0
 11 37  1  0  0  0  0
 12 13  1  0  0  0  0
 12 14  1  0  0  0  0
 12 28  1  0  0  0  0
 13 15  1  0  0  0  0
 13 29  1  0  0  0  0
 14 16  1  0  0  0  0
 14 30  1  0  0  0  0
 15 17  1  0  0  0  0
 15 31  1  0  0  0  0
 15 32  1  0  0  0  0
 16 17  2  0  0  0  0
 16 33  1  0  0  0  0
 17 21  1  0  0  0  0
 18 19  1  0  0  0  0
 18 20  1  0  0  0  0
 18 34  1  0  0  0  0
 19 23  1  0  0  0  0
 19 38  1  0  0  0  0
 19 39  1  0  0  0  0
 20 24  1  0  0  0  0
 20 40  1  0  0  0  0
 20 41  1  0  0  0  0
 22 25  1  0  0  0  0
 23 42  1  0  0  0  0
 23 43  1  0  0  0  0
 23 44  1  0  0  0  0
 24 45  1  0  0  0  0
 24 46  1  0  0  0  0
 24 47  1  0  0  0  0
 25 48  1  0  0  0  0
 25 49  1  0  0  0  0
 25 50  1  0  0  0  0
 26 27  1  0  0  0  0
 26 51  1  0  0  0  0
 26 52  1  0  0  0  0
 27 53  1  0  0  0  0
 27 54  1  0  0  0  0
 27 55  1  0  0  0  0
M  END
> <PUBCHEM_COMPOUND_CID>
78000

> <PUBCHEM_COMPOUND_CANONICALIZED>
1

> <PUBCHEM_CACTVS_COMPLEXITY>
468

> <PUBCHEM_CACTVS_HBOND_ACCEPTOR>
9

> <PUBCHEM_CACTVS_HBOND_DONOR>
5

> <PUBCHEM_CACTVS_ROTATABLE_BOND>
8

> <PUBCHEM_CACTVS_SUBSKEYS>
AAADceB7PAIAAAAAAAAAAAAAAAAAAAAAAAAgAAAAAAAAAAAAAAAAHgAQCCAADDzhgAYCCALABBCIQiHSGIAAAAAgAAAACIEIAEgCRBIAoQAXEAAGlgCYIYO82SOQAAAAAAAAAAAAAAAAAAAAAAAAAAAAAA==

> <PUBCHEM_IUPAC_OPENEYE_NAME>
ethyl (3R,4R,5S)-4-acetamido-5-amino-3-(1-ethylpropoxy)cyclohexene-1-carboxylate; phosphoric acid

> <PUBCHEM_IUPAC_CAS_NAME>
(3R,4R,5S)-4-acetamido-5-amino-3-pentan-3-yloxy-1-cyclohexenecarboxylic acid ethyl ester; phosphoric acid

> <PUBCHEM_IUPAC_NAME>
ethyl (3R,4R,5S)-4-acetamido-5-amino-3-pentan-3-yloxycyclohexene-1-carboxylate; phosphoric acid

> <PUBCHEM_IUPAC_SYSTEMATIC_NAME>
ethyl (3R,4R,5S)-4-acetamido-5-azanyl-3-pentan-3-yloxy-cyclohexene-1-carboxylate; phosphoric acid

> <PUBCHEM_IUPAC_TRADITIONAL_NAME>
(3R,4R,5S)-4-acetamido-5-amino-3-(1-ethylpropoxy)cyclohexene-1-carboxylic acid ethyl ester; phosphoric acid

> <PUBCHEM_IUPAC_INCHI>
InChI=1S/C16H28N2O4.H3O4P/c1-5-12(6-2)22-14-9-11(16(20)21-7-3)8-13(17)15(14)18-10(4)19;1-5(2,3)4/h9,12-15H,5-8,17H2,1-4H3,(H,18,19);(H3,1,2,3,4)/t13-,14+,15+;/m0./s1

> <PUBCHEM_IUPAC_INCHIKEY>
PGZUMBJQJWIWGJ-ONAKXNSWSA-N

> <PUBCHEM_EXACT_MASS>
410.181803

> <PUBCHEM_MOLECULAR_FORMULA>
C16H31N2O8P

> <PUBCHEM_MOLECULAR_WEIGHT>
410.399702

> <PUBCHEM_OPENEYE_CAN_SMILES>
CCC(CC)OC1C=C(CC(C1NC(=O)C)N)C(=O)OCC.OP(=O)(O)O

> <PUBCHEM_OPENEYE_ISO_SMILES>
CCC(CC)O[C@@H]1C=C(C[C@@H]([C@H]1NC(=O)C)N)C(=O)OCC.OP(=O)(O)O

> <PUBCHEM_CACTVS_TPSA>
168

> <PUBCHEM_MONOISOTOPIC_WEIGHT>
410.181803

> <PUBCHEM_TOTAL_CHARGE>
0

> <PUBCHEM_HEAVY_ATOM_COUNT>
27

> <PUBCHEM_ATOM_DEF_STEREO_COUNT>
3

> <PUBCHEM_ATOM_UDEF_STEREO_COUNT>
0

> <PUBCHEM_BOND_DEF_STEREO_COUNT>
0

> <PUBCHEM_BOND_UDEF_STEREO_COUNT>
0

> <PUBCHEM_ISOTOPIC_ATOM_COUNT>
0

> <PUBCHEM_COMPONENT_COUNT>
2

> <PUBCHEM_CACTVS_TAUTO_COUNT>
2

> <PUBCHEM_COORDINATE_TYPE>
1
5
255

> <PUBCHEM_BONDANNOTATIONS>
12  10  6
13  11  5
14  2  5

$$$$

