443757
  -OEChem-07051213032D

 77 84  0     1  0  0  0  0  0999 V2000
    8.1486   -3.6807    0.0000 O   0  0  0  0  0  0  0  0  0  0  0  0
    6.3675    3.6327    0.0000 O   0  0  0  0  0  0  0  0  0  0  0  0
    9.0204   -2.1840    0.0000 O   0  0  0  0  0  0  0  0  0  0  0  0
    2.8602   -6.8074    0.0000 O   0  0  0  0  0  0  0  0  0  0  0  0
    2.0000   -5.3041    0.0000 O   0  0  0  0  0  0  0  0  0  0  0  0
    4.6358    3.5993    0.0000 O   0  0  0  0  0  0  0  0  0  0  0  0
    7.2045    5.1491    0.0000 O   0  0  0  0  0  0  0  0  0  0  0  0
    4.6224   -2.6565    0.0000 N   0  0  0  0  0  0  0  0  0  0  0  0
    2.8383   -3.7050    0.0000 N   0  0  0  0  0  0  0  0  0  0  0  0
    6.3573    0.4628    0.0000 N   0  0  0  0  0  0  0  0  0  0  0  0
    8.2322   -0.6005    0.0000 N   0  0  0  0  0  0  0  0  0  0  0  0
    4.6224   -0.6565    0.0000 C   0  0  3  0  0  0  0  0  0  0  0  0
    5.4884   -1.1565    0.0000 C   0  0  0  0  0  0  0  0  0  0  0  0
    3.7564   -1.1565    0.0000 C   0  0  0  0  0  0  0  0  0  0  0  0
    3.7564   -2.1565    0.0000 C   0  0  0  0  0  0  0  0  0  0  0  0
    5.4884   -2.1565    0.0000 C   0  0  0  0  0  0  0  0  0  0  0  0
    2.8464   -2.6634    0.0000 C   0  0  0  0  0  0  0  0  0  0  0  0
    4.6384   -3.6980    0.0000 C   0  0  0  0  0  0  0  0  0  0  0  0
    6.3824   -0.6219    0.0000 C   0  0  0  0  0  0  0  0  0  0  0  0
    4.6224    0.3435    0.0000 C   0  0  0  0  0  0  0  0  0  0  0  0
    3.7404   -4.2258    0.0000 C   0  0  0  0  0  0  0  0  0  0  0  0
    6.3824   -2.6912    0.0000 C   0  0  0  0  0  0  0  0  0  0  0  0
    2.8981   -0.6596    0.0000 C   0  0  0  0  0  0  0  0  0  0  0  0
    7.2884   -1.1357    0.0000 C   0  0  0  0  0  0  0  0  0  0  0  0
    7.2884   -2.1773    0.0000 C   0  0  0  0  0  0  0  0  0  0  0  0
    2.0070   -2.1351    0.0000 C   0  0  0  0  0  0  0  0  0  0  0  0
    2.0327   -1.1438    0.0000 C   0  0  0  0  0  0  0  0  0  0  0  0
    5.5904   -4.2186    0.0000 C   0  0  0  0  0  0  0  0  0  0  0  0
    3.7320   -5.3107    0.0000 C   0  0  0  0  0  0  0  0  0  0  0  0
    7.2884    1.0198    0.0000 C   0  0  0  0  0  0  0  0  0  0  0  0
    8.2322    0.4845    0.0000 C   0  0  0  0  0  0  0  0  0  0  0  0
    5.6071   -5.3035    0.0000 C   0  0  0  0  0  0  0  0  0  0  0  0
    4.6717   -5.8532    0.0000 C   0  0  0  0  0  0  0  0  0  0  0  0
    7.2623    2.1496    0.0000 C   0  0  0  0  0  0  0  0  0  0  0  0
    8.1525   -2.6807    0.0000 C   0  0  0  0  0  0  0  0  0  0  0  0
    6.3868    2.6328    0.0000 C   0  0  3  0  0  0  0  0  0  0  0  0
    9.2153    1.0420    0.0000 C   0  0  0  0  0  0  0  0  0  0  0  0
    2.8641   -5.8074    0.0000 C   0  0  0  0  0  0  0  0  0  0  0  0
    8.2322    2.7297    0.0000 C   0  0  0  0  0  0  0  0  0  0  0  0
    9.2153    2.1722    0.0000 C   0  0  0  0  0  0  0  0  0  0  0  0
    5.5306    2.1162    0.0000 C   0  0  0  0  0  0  0  0  0  0  0  0
    5.4920    4.1159    0.0000 C   0  0  0  0  0  0  0  0  0  0  0  0
    5.4727    5.1157    0.0000 C   0  0  0  0  0  0  0  0  0  0  0  0
    4.5972    5.5989    0.0000 C   0  0  0  0  0  0  0  0  0  0  0  0
    6.3290    5.6323    0.0000 C   0  0  0  0  0  0  0  0  0  0  0  0
    4.5780    6.5987    0.0000 C   0  0  0  0  0  0  0  0  0  0  0  0
    3.7410    5.0823    0.0000 C   0  0  0  0  0  0  0  0  0  0  0  0
    6.3097    6.6321    0.0000 C   0  0  0  0  0  0  0  0  0  0  0  0
    5.4342    7.1153    0.0000 C   0  0  0  0  0  0  0  0  0  0  0  0
    5.1593   -0.3465    0.0000 H   0  0  0  0  0  0  0  0  0  0  0  0
    5.2424    0.3435    0.0000 H   0  0  0  0  0  0  0  0  0  0  0  0
    4.6224    0.9635    0.0000 H   0  0  0  0  0  0  0  0  0  0  0  0
    4.0024    0.3435    0.0000 H   0  0  0  0  0  0  0  0  0  0  0  0
    6.3752   -3.3111    0.0000 H   0  0  0  0  0  0  0  0  0  0  0  0
    2.9027   -0.0396    0.0000 H   0  0  0  0  0  0  0  0  0  0  0  0
    2.3002   -4.0129    0.0000 H   0  0  0  0  0  0  0  0  0  0  0  0
    1.4605   -2.4278    0.0000 H   0  0  0  0  0  0  0  0  0  0  0  0
    1.5019   -0.8232    0.0000 H   0  0  0  0  0  0  0  0  0  0  0  0
    6.1212   -3.8984    0.0000 H   0  0  0  0  0  0  0  0  0  0  0  0
    6.1476   -5.6073    0.0000 H   0  0  0  0  0  0  0  0  0  0  0  0
    4.6741   -6.4732    0.0000 H   0  0  0  0  0  0  0  0  0  0  0  0
    6.9176    2.9531    0.0000 H   0  0  0  0  0  0  0  0  0  0  0  0
    9.7510    0.7300    0.0000 H   0  0  0  0  0  0  0  0  0  0  0  0
    8.2250    3.3497    0.0000 H   0  0  0  0  0  0  0  0  0  0  0  0
    9.7510    2.4843    0.0000 H   0  0  0  0  0  0  0  0  0  0  0  0
    5.2103    2.6471    0.0000 H   0  0  0  0  0  0  0  0  0  0  0  0
    4.9997    1.7960    0.0000 H   0  0  0  0  0  0  0  0  0  0  0  0
    5.8508    1.5854    0.0000 H   0  0  0  0  0  0  0  0  0  0  0  0
    8.6844   -3.9927    0.0000 H   0  0  0  0  0  0  0  0  0  0  0  0
    2.3221   -7.1153    0.0000 H   0  0  0  0  0  0  0  0  0  0  0  0
    4.0352    6.8983    0.0000 H   0  0  0  0  0  0  0  0  0  0  0  0
    3.4207    5.6132    0.0000 H   0  0  0  0  0  0  0  0  0  0  0  0
    3.2101    4.7620    0.0000 H   0  0  0  0  0  0  0  0  0  0  0  0
    4.0613    4.5514    0.0000 H   0  0  0  0  0  0  0  0  0  0  0  0
    6.8406    6.9524    0.0000 H   0  0  0  0  0  0  0  0  0  0  0  0
    5.4222    7.7352    0.0000 H   0  0  0  0  0  0  0  0  0  0  0  0
    7.7353    5.4694    0.0000 H   0  0  0  0  0  0  0  0  0  0  0  0
  1 35  1  0  0  0  0
  1 69  1  0  0  0  0
  2 36  1  0  0  0  0
  2 42  1  0  0  0  0
  3 35  2  0  0  0  0
  4 38  1  0  0  0  0
  4 70  1  0  0  0  0
  5 38  2  0  0  0  0
  6 42  2  0  0  0  0
  7 45  1  0  0  0  0
  7 77  1  0  0  0  0
  8 15  1  0  0  0  0
  8 16  1  0  0  0  0
  8 18  1  0  0  0  0
  9 17  1  0  0  0  0
  9 21  1  0  0  0  0
  9 56  1  0  0  0  0
 10 19  2  0  0  0  0
 10 30  1  0  0  0  0
 11 24  2  0  0  0  0
 11 31  1  0  0  0  0
 12 13  1  0  0  0  0
 12 14  1  0  0  0  0
 12 20  1  0  0  0  0
 12 50  1  0  0  0  0
 13 16  2  0  0  0  0
 13 19  1  0  0  0  0
 14 15  2  0  0  0  0
 14 23  1  0  0  0  0
 15 17  1  0  0  0  0
 16 22  1  0  0  0  0
 17 26  2  0  0  0  0
 18 21  1  0  0  0  0
 18 28  2  0  0  0  0
 19 24  1  0  0  0  0
 20 51  1  0  0  0  0
 20 52  1  0  0  0  0
 20 53  1  0  0  0  0
 21 29  2  0  0  0  0
 22 25  2  0  0  0  0
 22 54  1  0  0  0  0
 23 27  2  0  0  0  0
 23 55  1  0  0  0  0
 24 25  1  0  0  0  0
 25 35  1  0  0  0  0
 26 27  1  0  0  0  0
 26 57  1  0  0  0  0
 27 58  1  0  0  0  0
 28 32  1  0  0  0  0
 28 59  1  0  0  0  0
 29 33  1  0  0  0  0
 29 38  1  0  0  0  0
 30 31  1  0  0  0  0
 30 34  2  0  0  0  0
 31 37  2  0  0  0  0
 32 33  2  0  0  0  0
 32 60  1  0  0  0  0
 33 61  1  0  0  0  0
 34 36  1  0  0  0  0
 34 39  1  0  0  0  0
 36 41  1  0  0  0  0
 36 62  1  0  0  0  0
 37 40  1  0  0  0  0
 37 63  1  0  0  0  0
 39 40  2  0  0  0  0
 39 64  1  0  0  0  0
 40 65  1  0  0  0  0
 41 66  1  0  0  0  0
 41 67  1  0  0  0  0
 41 68  1  0  0  0  0
 42 43  1  0  0  0  0
 43 44  2  0  0  0  0
 43 45  1  0  0  0  0
 44 46  1  0  0  0  0
 44 47  1  0  0  0  0
 45 48  2  0  0  0  0
 46 49  2  0  0  0  0
 46 71  1  0  0  0  0
 47 72  1  0  0  0  0
 47 73  1  0  0  0  0
 47 74  1  0  0  0  0
 48 49  1  0  0  0  0
 48 75  1  0  0  0  0
 49 76  1  0  0  0  0
M  END
> <PUBCHEM_COMPOUND_CID>
443757

> <PUBCHEM_COMPOUND_CANONICALIZED>
1

> <PUBCHEM_CACTVS_COMPLEXITY>
1280

> <PUBCHEM_CACTVS_HBOND_ACCEPTOR>
11

> <PUBCHEM_CACTVS_HBOND_DONOR>
4

> <PUBCHEM_CACTVS_ROTATABLE_BOND>
6

> <PUBCHEM_CACTVS_SUBSKEYS>
AAADceB/uAAAAAAAAAAAAAAAAAAAAAAAAAA8ePGDAAAAAACx/AAAHgAQCAAADRyhngIyzrPIFgCoAyTyTACCgCQlMiAImCE2fNgIZ/7C9duWdchn8BHI+ce8yPCOwACBQAQaACCAAQKACDQAQAAAAAAAAA==

> <PUBCHEM_IUPAC_INCHI>
InChI=1S/C38H28N4O7/c1-17-8-4-15-28(43)29(17)38(48)49-19(3)21-10-6-12-24-31(21)41-34-30-18(2)20-9-5-13-25-35(20)42(27(30)16-23(37(46)47)33(34)39-24)26-14-7-11-22(36(44)45)32(26)40-25/h4-16,18-19,40,43H,1-3H3,(H,44,45)(H,46,47)

> <PUBCHEM_IUPAC_INCHIKEY>
UFEIYIBAKOKKBK-UHFFFAOYSA-N

> <PUBCHEM_XLOGP3_AA>
7

> <PUBCHEM_EXACT_MASS>
652.195799

> <PUBCHEM_MOLECULAR_FORMULA>
C38H28N4O7

> <PUBCHEM_MOLECULAR_WEIGHT>
652.65152

> <PUBCHEM_OPENEYE_CAN_SMILES>
CC1C2=C3C(=CC=C2)NC4=C(C=CC=C4N3C5=C1C6=NC7=C(C=CC=C7N=C6C(=C5)C(=O)O)C(C)OC(=O)C8=C(C=CC=C8O)C)C(=O)O

> <PUBCHEM_OPENEYE_ISO_SMILES>
CC1C2=C3C(=CC=C2)NC4=C(C=CC=C4N3C5=C1C6=NC7=C(C=CC=C7N=C6C(=C5)C(=O)O)C(C)OC(=O)C8=C(C=CC=C8O)C)C(=O)O

> <PUBCHEM_CACTVS_TPSA>
162

> <PUBCHEM_MONOISOTOPIC_WEIGHT>
652.195799

> <PUBCHEM_TOTAL_CHARGE>
0

> <PUBCHEM_HEAVY_ATOM_COUNT>
49

> <PUBCHEM_ATOM_DEF_STEREO_COUNT>
0

> <PUBCHEM_ATOM_UDEF_STEREO_COUNT>
2

> <PUBCHEM_BOND_DEF_STEREO_COUNT>
0

> <PUBCHEM_BOND_UDEF_STEREO_COUNT>
0

> <PUBCHEM_ISOTOPIC_ATOM_COUNT>
0

> <PUBCHEM_COMPONENT_COUNT>
1

> <PUBCHEM_CACTVS_TAUTO_COUNT>
156

> <PUBCHEM_COORDINATE_TYPE>
1
5
255

> <PUBCHEM_BONDANNOTATIONS>
10  19  8
10  30  8
11  24  8
11  31  8
12  20  3
13  16  8
13  19  8
14  15  8
14  23  8
15  17  8
16  22  8
17  26  8
18  21  8
18  28  8
19  24  8
21  29  8
22  25  8
23  27  8
24  25  8
26  27  8
28  32  8
29  33  8
30  31  8
30  34  8
31  37  8
32  33  8
34  39  8
36  41  3
37  40  8
39  40  8
43  44  8
43  45  8
44  46  8
45  48  8
46  49  8
48  49  8

$$$$

