   Color/Form

     * STOUT OCTAHEDRA OR RHOMBS FROM BENZENE
     * WHITE TO CREAMY POWDER
     * COLORLESS CRYSTALLINE SOLID

   from [1]HSDB

   Odor
        ODORLESS
   from [2]HSDB

   Melting Point
        220 DEG C
   from [3]HSDB

   Octanol/Water Partition Coefficient
        LogP = 2.18
   from [4]HSDB

   Solubilities
        SOL IN N,N-DIMETHYLFORMAMIDE @ 25 DEG C: 12-14 G/100 ML; SLIGHTLY
   SOL IN ETHANOL, CHLOROFORM, METHANOL, ACETIC ACID, ACETONE, BENZENE, &
   ETHYL ACETATE; PRACTICALLY INSOL IN WATER & PETROLEUM ETHER
   from [5]HSDB

   Spectral Properties

     * MAX ABSORPTION: 286 NM, 325 NM
     * SPECIFIC OPTICAL ROTATION: +370 DEG @ 17 DEG C/D (SATURATED
       CHLOROFORM SOLN)
     * INDEX OF REFRACTION: 1.5403 @ 25 DEG C/D
     * MAX ABSORPTION (ALCOHOL): 291 NM (LOG E= 4.37); 325 NM (LOG E=
       3.77); SPECIFIC OPTICAL ROTATION: +337 DEG @ 21 DEG C/D (ACETONE)
     * IR: 5182 (Coblentz Society Spectral Collection)
     * UV: 6-726 (Organic Electronic Spectral Data, Phillips et al, John
       Wiley & Sons, New York)
     * MASS: 2748 (National Bureau of Standards EPA-NIH Mass Spectra Data
       Base, NSRDS-NBS-63)

   from [6]HSDB

   Other Chemical/Physical Properties
        SUBLIMES WITHOUT DECOMP @ 210 DEG C
   from [7]HSDB

   Computed Properties
   Molecular Weight                  352.76628 [g/mol]
   Molecular Formula                 C[17]H[17]ClO[6]
   XLogP3                            2.2
   H-Bond Donor                      0
   H-Bond Acceptor                   6
   Rotatable Bond Count              3
   Tautomer Count                    2
   Exact Mass                        352.071366
   MonoIsotopic Mass                 352.071366
   Topological Polar Surface Area    71.1
   Heavy Atom Count                  24
   Formal Charge                     0
   Complexity                        575
   Isotope Atom Count                0
   Defined Atom Stereocenter Count   2
   Undefined Atom Stereocenter Count 0
   Defined Bond Stereocenter Count   0
   Undefined Bond Stereocenter Count 0
   Covalently-Bonded Unit Count      1
   Feature 3D Acceptor Count         6
   Feature 3D Ring Count             3
   Effective Rotor Count             3.6
   Conformer Sampling RMSD           0.6
   CID Conformer Count               [8]8

References

   1. http://toxnet.nlm.nih.gov/cgi-bin/sis/search/r?dbs+hsdb:@term+@rn+@rel+126-07-8
   2. http://toxnet.nlm.nih.gov/cgi-bin/sis/search/r?dbs+hsdb:@term+@rn+@rel+126-07-8
   3. http://toxnet.nlm.nih.gov/cgi-bin/sis/search/r?dbs+hsdb:@term+@rn+@rel+126-07-8
   4. http://toxnet.nlm.nih.gov/cgi-bin/sis/search/r?dbs+hsdb:@term+@rn+@rel+126-07-8
   5. http://toxnet.nlm.nih.gov/cgi-bin/sis/search/r?dbs+hsdb:@term+@rn+@rel+126-07-8
   6. http://toxnet.nlm.nih.gov/cgi-bin/sis/search/r?dbs+hsdb:@term+@rn+@rel+126-07-8
   7. http://toxnet.nlm.nih.gov/cgi-bin/sis/search/r?dbs+hsdb:@term+@rn+@rel+126-07-8
   8. http://pubchem.ncbi.nlm.nih.gov/vw3d/vw3d.cgi?cid=441140
