14017685
  -OEChem-07051213082D

 75 78  0     1  0  0  0  0  0999 V2000
    7.9288   -2.2889    0.0000 O   0  0  0  0  0  0  0  0  0  0  0  0
    6.1847   -4.3582    0.0000 O   0  0  0  0  0  0  0  0  0  0  0  0
    2.5357   -3.3413    0.0000 O   0  0  0  0  0  0  0  0  0  0  0  0
   12.0747    4.2303    0.0000 O   0  0  0  0  0  0  0  0  0  0  0  0
    7.9288   -0.2889    0.0000 C   0  0  1  0  0  0  0  0  0  0  0  0
    7.9288   -1.2889    0.0000 C   0  0  1  0  0  0  0  0  0  0  0  0
    8.8750    0.0158    0.0000 C   0  0  2  0  0  0  0  0  0  0  0  0
    6.1968   -1.2889    0.0000 C   0  0  2  0  0  0  0  0  0  0  0  0
    5.2868   -1.7958    0.0000 C   0  0  2  0  0  0  0  0  0  0  0  0
    7.0628   -1.7889    0.0000 C   0  0  0  0  0  0  0  0  0  0  0  0
    7.0628    0.2111    0.0000 C   0  0  0  0  0  0  0  0  0  0  0  0
    8.8750   -1.5937    0.0000 C   0  0  0  0  0  0  0  0  0  0  0  0
    6.1968   -0.2889    0.0000 C   0  0  0  0  0  0  0  0  0  0  0  0
    9.4586   -0.7889    0.0000 C   0  0  0  0  0  0  0  0  0  0  0  0
    5.2787   -2.8374    0.0000 C   0  0  1  0  0  0  0  0  0  0  0  0
    9.1857    0.9663    0.0000 C   0  0  1  0  0  0  0  0  0  0  0  0
    7.9288    0.7111    0.0000 C   0  0  0  0  0  0  0  0  0  0  0  0
    4.3599   -1.2317    0.0000 C   0  0  0  0  0  0  0  0  0  0  0  0
    7.0789   -2.8304    0.0000 C   0  0  0  0  0  0  0  0  0  0  0  0
    4.3433   -3.3871    0.0000 C   0  0  0  0  0  0  0  0  0  0  0  0
    5.2945   -0.7958    0.0000 C   0  0  0  0  0  0  0  0  0  0  0  0
    6.1808   -3.3582    0.0000 C   0  0  0  0  0  0  0  0  0  0  0  0
    3.4120   -1.7596    0.0000 C   0  0  0  0  0  0  0  0  0  0  0  0
    3.4037   -2.8446    0.0000 C   0  0  2  0  0  0  0  0  0  0  0  0
   10.1642    1.1725    0.0000 C   0  0  0  0  0  0  0  0  0  0  0  0
    8.5179    1.7106    0.0000 C   0  0  0  0  0  0  0  0  0  0  0  0
   10.4749    2.1231    0.0000 C   0  0  0  0  0  0  0  0  0  0  0  0
   11.4534    2.3293    0.0000 C   0  0  0  0  0  0  0  0  0  0  0  0
   11.7640    3.2798    0.0000 C   0  0  0  0  0  0  0  0  0  0  0  0
   12.7146    2.9691    0.0000 C   0  0  0  0  0  0  0  0  0  0  0  0
   10.8135    3.5905    0.0000 C   0  0  0  0  0  0  0  0  0  0  0  0
    9.7148    0.1477    0.0000 H   0  0  0  0  0  0  0  0  0  0  0  0
    6.9329   -0.8639    0.0000 H   0  0  0  0  0  0  0  0  0  0  0  0
    7.4613    0.6860    0.0000 H   0  0  0  0  0  0  0  0  0  0  0  0
    6.6643    0.6860    0.0000 H   0  0  0  0  0  0  0  0  0  0  0  0
    8.6240   -2.1606    0.0000 H   0  0  0  0  0  0  0  0  0  0  0  0
    9.4124   -1.9029    0.0000 H   0  0  0  0  0  0  0  0  0  0  0  0
    5.9847    0.2937    0.0000 H   0  0  0  0  0  0  0  0  0  0  0  0
    5.5862   -0.3966    0.0000 H   0  0  0  0  0  0  0  0  0  0  0  0
    9.9195   -1.2037    0.0000 H   0  0  0  0  0  0  0  0  0  0  0  0
    9.9195   -0.3742    0.0000 H   0  0  0  0  0  0  0  0  0  0  0  0
    5.2820   -3.6874    0.0000 H   0  0  0  0  0  0  0  0  0  0  0  0
    9.3783    1.5556    0.0000 H   0  0  0  0  0  0  0  0  0  0  0  0
    8.5488    0.7111    0.0000 H   0  0  0  0  0  0  0  0  0  0  0  0
    7.9288    1.3311    0.0000 H   0  0  0  0  0  0  0  0  0  0  0  0
    7.3088    0.7111    0.0000 H   0  0  0  0  0  0  0  0  0  0  0  0
    4.7681   -0.7650    0.0000 H   0  0  0  0  0  0  0  0  0  0  0  0
    3.9700   -0.7497    0.0000 H   0  0  0  0  0  0  0  0  0  0  0  0
    7.6193   -3.1342    0.0000 H   0  0  0  0  0  0  0  0  0  0  0  0
    3.9460   -3.8631    0.0000 H   0  0  0  0  0  0  0  0  0  0  0  0
    4.7443   -3.8600    0.0000 H   0  0  0  0  0  0  0  0  0  0  0  0
    5.9145   -0.8006    0.0000 H   0  0  0  0  0  0  0  0  0  0  0  0
    5.2993   -0.1758    0.0000 H   0  0  0  0  0  0  0  0  0  0  0  0
    4.6745   -0.7910    0.0000 H   0  0  0  0  0  0  0  0  0  0  0  0
    8.4658   -2.5989    0.0000 H   0  0  0  0  0  0  0  0  0  0  0  0
    3.2075   -1.1744    0.0000 H   0  0  0  0  0  0  0  0  0  0  0  0
    2.8004   -1.8610    0.0000 H   0  0  0  0  0  0  0  0  0  0  0  0
    3.4025   -3.4646    0.0000 H   0  0  0  0  0  0  0  0  0  0  0  0
   10.1848    0.5529    0.0000 H   0  0  0  0  0  0  0  0  0  0  0  0
   10.7780    1.0852    0.0000 H   0  0  0  0  0  0  0  0  0  0  0  0
    8.9793    2.1247    0.0000 H   0  0  0  0  0  0  0  0  0  0  0  0
    8.1038    2.1721    0.0000 H   0  0  0  0  0  0  0  0  0  0  0  0
    8.0564    1.2966    0.0000 H   0  0  0  0  0  0  0  0  0  0  0  0
   10.4543    2.7427    0.0000 H   0  0  0  0  0  0  0  0  0  0  0  0
    9.8611    2.2104    0.0000 H   0  0  0  0  0  0  0  0  0  0  0  0
    2.0000   -3.0292    0.0000 H   0  0  0  0  0  0  0  0  0  0  0  0
   11.4739    1.7096    0.0000 H   0  0  0  0  0  0  0  0  0  0  0  0
   12.0672    2.2419    0.0000 H   0  0  0  0  0  0  0  0  0  0  0  0
   11.0061    4.1798    0.0000 H   0  0  0  0  0  0  0  0  0  0  0  0
   10.2242    3.7831    0.0000 H   0  0  0  0  0  0  0  0  0  0  0  0
   12.5219    2.3798    0.0000 H   0  0  0  0  0  0  0  0  0  0  0  0
   13.3039    2.7765    0.0000 H   0  0  0  0  0  0  0  0  0  0  0  0
   12.9072    3.5585    0.0000 H   0  0  0  0  0  0  0  0  0  0  0  0
   10.6209    3.0011    0.0000 H   0  0  0  0  0  0  0  0  0  0  0  0
   12.6814    4.3582    0.0000 H   0  0  0  0  0  0  0  0  0  0  0  0
  6  1  1  6  0  0  0
  1 55  1  0  0  0  0
  2 22  2  0  0  0  0
 24  3  1  1  0  0  0
  3 66  1  0  0  0  0
  4 29  1  0  0  0  0
  4 75  1  0  0  0  0
  5  6  1  0  0  0  0
  5  7  1  0  0  0  0
  5 11  1  0  0  0  0
  5 17  1  1  0  0  0
  6 10  1  0  0  0  0
  6 12  1  0  0  0  0
  7 14  1  0  0  0  0
  7 16  1  0  0  0  0
  7 32  1  6  0  0  0
  8  9  1  0  0  0  0
  8 10  1  0  0  0  0
  8 13  1  0  0  0  0
  8 33  1  6  0  0  0
  9 15  1  0  0  0  0
  9 18  1  0  0  0  0
  9 21  1  1  0  0  0
 10 19  2  0  0  0  0
 11 13  1  0  0  0  0
 11 34  1  0  0  0  0
 11 35  1  0  0  0  0
 12 14  1  0  0  0  0
 12 36  1  0  0  0  0
 12 37  1  0  0  0  0
 13 38  1  0  0  0  0
 13 39  1  0  0  0  0
 14 40  1  0  0  0  0
 14 41  1  0  0  0  0
 15 20  1  0  0  0  0
 15 22  1  0  0  0  0
 15 42  1  1  0  0  0
 16 25  1  0  0  0  0
 16 26  1  6  0  0  0
 16 43  1  0  0  0  0
 17 44  1  0  0  0  0
 17 45  1  0  0  0  0
 17 46  1  0  0  0  0
 18 23  1  0  0  0  0
 18 47  1  0  0  0  0
 18 48  1  0  0  0  0
 19 22  1  0  0  0  0
 19 49  1  0  0  0  0
 20 24  1  0  0  0  0
 20 50  1  0  0  0  0
 20 51  1  0  0  0  0
 21 52  1  0  0  0  0
 21 53  1  0  0  0  0
 21 54  1  0  0  0  0
 23 24  1  0  0  0  0
 23 56  1  0  0  0  0
 23 57  1  0  0  0  0
 24 58  1  0  0  0  0
 25 27  1  0  0  0  0
 25 59  1  0  0  0  0
 25 60  1  0  0  0  0
 26 61  1  0  0  0  0
 26 62  1  0  0  0  0
 26 63  1  0  0  0  0
 27 28  1  0  0  0  0
 27 64  1  0  0  0  0
 27 65  1  0  0  0  0
 28 29  1  0  0  0  0
 28 67  1  0  0  0  0
 28 68  1  0  0  0  0
 29 30  1  0  0  0  0
 29 31  1  0  0  0  0
 30 71  1  0  0  0  0
 30 72  1  0  0  0  0
 30 73  1  0  0  0  0
 31 69  1  0  0  0  0
 31 70  1  0  0  0  0
 31 74  1  0  0  0  0
M  END
> <PUBCHEM_COMPOUND_CID>
14017685

> <PUBCHEM_COMPOUND_CANONICALIZED>
1

> <PUBCHEM_CACTVS_COMPLEXITY>
756

> <PUBCHEM_CACTVS_HBOND_ACCEPTOR>
4

> <PUBCHEM_CACTVS_HBOND_DONOR>
3

> <PUBCHEM_CACTVS_ROTATABLE_BOND>
5

> <PUBCHEM_CACTVS_SUBSKEYS>
AAADcfB4OAAAAAAAAAAAAAAAAAAAAYAAAAAwYIAAAAAAAGCAAAAAGgAACAAAD1SggAICAAAAAgCIAqBSAAAAAAAgAAAACAEAAEgAFBIAAQAAUAAEgAAIEQOKyPCPgAAAAAAAAADAAAYAADAAAYAADAAAAA==

> <PUBCHEM_IUPAC_OPENEYE_NAME>
(3S,5R,9R,10R,13R,14S,17R)-3,14-dihydroxy-17-[(1R)-5-hydroxy-1,5-dimethyl-hexyl]-10,13-dimethyl-2,3,4,5,9,11,12,15,16,17-decahydro-1H-cyclopenta[a]phenanthren-6-one

> <PUBCHEM_IUPAC_CAS_NAME>
(3S,5R,9R,10R,13R,14S,17R)-3,14-dihydroxy-17-[(2R)-6-hydroxy-6-methylheptan-2-yl]-10,13-dimethyl-2,3,4,5,9,11,12,15,16,17-decahydro-1H-cyclopenta[a]phenanthren-6-one

> <PUBCHEM_IUPAC_NAME>
(3S,5R,9R,10R,13R,14S,17R)-3,14-dihydroxy-17-[(2R)-6-hydroxy-6-methylheptan-2-yl]-10,13-dimethyl-2,3,4,5,9,11,12,15,16,17-decahydro-1H-cyclopenta[a]phenanthren-6-one

> <PUBCHEM_IUPAC_SYSTEMATIC_NAME>
(3S,5R,9R,10R,13R,14S,17R)-10,13-dimethyl-17-[(2R)-6-methyl-6-oxidanyl-heptan-2-yl]-3,14-bis(oxidanyl)-2,3,4,5,9,11,12,15,16,17-decahydro-1H-cyclopenta[a]phenanthren-6-one

> <PUBCHEM_IUPAC_TRADITIONAL_NAME>
(3S,5R,9R,10R,13R,14S,17R)-3,14-dihydroxy-17-[(1R)-5-hydroxy-1,5-dimethyl-hexyl]-10,13-dimethyl-2,3,4,5,9,11,12,15,16,17-decahydro-1H-cyclopenta[a]phenanthren-6-one

> <PUBCHEM_IUPAC_INCHI>
InChI=1S/C27H44O4/c1-17(7-6-11-24(2,3)30)19-10-14-27(31)21-16-23(29)22-15-18(28)8-12-25(22,4)20(21)9-13-26(19,27)5/h16-20,22,28,30-31H,6-15H2,1-5H3/t17-,18+,19-,20+,22+,25-,26-,27-/m1/s1

> <PUBCHEM_IUPAC_INCHIKEY>
CRCTVUFFBCIURJ-DJHAZVFJSA-N

> <PUBCHEM_XLOGP3_AA>
3.8

> <PUBCHEM_EXACT_MASS>
432.32396

> <PUBCHEM_MOLECULAR_FORMULA>
C27H44O4

> <PUBCHEM_MOLECULAR_WEIGHT>
432.63586

> <PUBCHEM_OPENEYE_CAN_SMILES>
CC(CCCC(C)(C)O)C1CCC2(C1(CCC3C2=CC(=O)C4C3(CCC(C4)O)C)C)O

> <PUBCHEM_OPENEYE_ISO_SMILES>
C[C@H](CCCC(C)(C)O)[C@H]1CC[C@@]2([C@@]1(CC[C@H]3C2=CC(=O)[C@H]4[C@@]3(CC[C@@H](C4)O)C)C)O

> <PUBCHEM_CACTVS_TPSA>
77.8

> <PUBCHEM_MONOISOTOPIC_WEIGHT>
432.32396

> <PUBCHEM_TOTAL_CHARGE>
0

> <PUBCHEM_HEAVY_ATOM_COUNT>
31

> <PUBCHEM_ATOM_DEF_STEREO_COUNT>
8

> <PUBCHEM_ATOM_UDEF_STEREO_COUNT>
0

> <PUBCHEM_BOND_DEF_STEREO_COUNT>
0

> <PUBCHEM_BOND_UDEF_STEREO_COUNT>
0

> <PUBCHEM_ISOTOPIC_ATOM_COUNT>
0

> <PUBCHEM_COMPONENT_COUNT>
1

> <PUBCHEM_CACTVS_TAUTO_COUNT>
5

> <PUBCHEM_COORDINATE_TYPE>
1
5
255

> <PUBCHEM_BONDANNOTATIONS>
6  1  6
15  42  5
16  26  6
24  3  5
5  17  5
7  32  6
8  33  6
9  21  5

$$$$

