442315
  -OEChem-07051212572D

 34 36  0     1  0  0  0  0  0999 V2000
    2.5836    0.2701    0.0000 O   0  0  0  0  0  0  0  0  0  0  0  0
    2.5836   -1.3394    0.0000 O   0  0  0  0  0  0  0  0  0  0  0  0
    4.3958   -2.5346    0.0000 O   0  0  0  0  0  0  0  0  0  0  0  0
    5.2778    2.0346    0.0000 N   0  0  3  0  0  0  0  0  0  0  0  0
    4.3798    1.5069    0.0000 C   0  0  2  0  0  0  0  0  0  0  0  0
    4.3958    0.4654    0.0000 C   0  0  0  0  0  0  0  0  0  0  0  0
    5.2619   -0.0346    0.0000 C   0  0  0  0  0  0  0  0  0  0  0  0
    6.1799    1.5138    0.0000 C   0  0  0  0  0  0  0  0  0  0  0  0
    6.1719    0.4722    0.0000 C   0  0  0  0  0  0  0  0  0  0  0  0
    3.5298   -0.0346    0.0000 C   0  0  0  0  0  0  0  0  0  0  0  0
    3.5080    1.9968    0.0000 C   0  0  0  0  0  0  0  0  0  0  0  0
    5.2619   -1.0346    0.0000 C   0  0  0  0  0  0  0  0  0  0  0  0
    3.5298   -1.0346    0.0000 C   0  0  0  0  0  0  0  0  0  0  0  0
    5.2740    3.0346    0.0000 C   0  0  0  0  0  0  0  0  0  0  0  0
    4.3958   -1.5346    0.0000 C   0  0  0  0  0  0  0  0  0  0  0  0
    2.0000   -0.5346    0.0000 C   0  0  0  0  0  0  0  0  0  0  0  0
    5.2619   -3.0346    0.0000 C   0  0  0  0  0  0  0  0  0  0  0  0
    4.3738    2.1268    0.0000 H   0  0  0  0  0  0  0  0  0  0  0  0
    6.7899    1.4030    0.0000 H   0  0  0  0  0  0  0  0  0  0  0  0
    6.3935    2.0959    0.0000 H   0  0  0  0  0  0  0  0  0  0  0  0
    6.3764   -0.1131    0.0000 H   0  0  0  0  0  0  0  0  0  0  0  0
    6.7835    0.5736    0.0000 H   0  0  0  0  0  0  0  0  0  0  0  0
    3.8118    2.5373    0.0000 H   0  0  0  0  0  0  0  0  0  0  0  0
    2.9676    2.3006    0.0000 H   0  0  0  0  0  0  0  0  0  0  0  0
    3.2043    1.4564    0.0000 H   0  0  0  0  0  0  0  0  0  0  0  0
    5.7988   -1.3446    0.0000 H   0  0  0  0  0  0  0  0  0  0  0  0
    5.8940    3.0370    0.0000 H   0  0  0  0  0  0  0  0  0  0  0  0
    5.2716    3.6546    0.0000 H   0  0  0  0  0  0  0  0  0  0  0  0
    4.6540    3.0322    0.0000 H   0  0  0  0  0  0  0  0  0  0  0  0
    1.5391   -0.1199    0.0000 H   0  0  0  0  0  0  0  0  0  0  0  0
    1.5391   -0.9494    0.0000 H   0  0  0  0  0  0  0  0  0  0  0  0
    4.9519   -3.5716    0.0000 H   0  0  0  0  0  0  0  0  0  0  0  0
    5.7988   -3.3446    0.0000 H   0  0  0  0  0  0  0  0  0  0  0  0
    5.5719   -2.4977    0.0000 H   0  0  0  0  0  0  0  0  0  0  0  0
  1 10  1  0  0  0  0
  1 16  1  0  0  0  0
  2 13  1  0  0  0  0
  2 16  1  0  0  0  0
  3 15  1  0  0  0  0
  3 17  1  0  0  0  0
  4  5  1  0  0  0  0
  4  8  1  0  0  0  0
  4 14  1  0  0  0  0
  5  6  1  0  0  0  0
  5 11  1  6  0  0  0
  5 18  1  0  0  0  0
  6  7  1  0  0  0  0
  6 10  2  0  0  0  0
  7  9  1  0  0  0  0
  7 12  2  0  0  0  0
  8  9  1  0  0  0  0
  8 19  1  0  0  0  0
  8 20  1  0  0  0  0
  9 21  1  0  0  0  0
  9 22  1  0  0  0  0
 10 13  1  0  0  0  0
 11 23  1  0  0  0  0
 11 24  1  0  0  0  0
 11 25  1  0  0  0  0
 12 15  1  0  0  0  0
 12 26  1  0  0  0  0
 13 15  2  0  0  0  0
 14 27  1  0  0  0  0
 14 28  1  0  0  0  0
 14 29  1  0  0  0  0
 16 30  1  0  0  0  0
 16 31  1  0  0  0  0
 17 32  1  0  0  0  0
 17 33  1  0  0  0  0
 17 34  1  0  0  0  0
M  END
> <PUBCHEM_COMPOUND_CID>
442315

> <PUBCHEM_COMPOUND_CANONICALIZED>
1

> <PUBCHEM_CACTVS_COMPLEXITY>
286

> <PUBCHEM_CACTVS_HBOND_ACCEPTOR>
4

> <PUBCHEM_CACTVS_HBOND_DONOR>
0

> <PUBCHEM_CACTVS_ROTATABLE_BOND>
1

> <PUBCHEM_CACTVS_SUBSKEYS>
AAADceByMAAAAAAAAAAAAAAAAAAAASAAAAA8QAAAAAAAAEixAAAAHgAAAAAADCzBmAcyDoMABACAAiBCAACCCAAgIAAAiAAOjIgdJyKEsRukMCpnwBWOqAew8L8OoAABCAAYQABAAAIQADCAAAAAAAAAAA==

> <PUBCHEM_IUPAC_OPENEYE_NAME>
(9S)-4-methoxy-8,9-dimethyl-7,9-dihydro-6H-[1,3]dioxolo[4,5-h]isoquinoline

> <PUBCHEM_IUPAC_CAS_NAME>
(9S)-4-methoxy-8,9-dimethyl-7,9-dihydro-6H-[1,3]dioxolo[4,5-h]isoquinoline

> <PUBCHEM_IUPAC_NAME>
(9S)-4-methoxy-8,9-dimethyl-7,9-dihydro-6H-[1,3]dioxolo[4,5-h]isoquinoline

> <PUBCHEM_IUPAC_SYSTEMATIC_NAME>
(9S)-4-methoxy-8,9-dimethyl-7,9-dihydro-6H-[1,3]dioxolo[4,5-h]isoquinoline

> <PUBCHEM_IUPAC_TRADITIONAL_NAME>
(9S)-4-methoxy-8,9-dimethyl-7,9-dihydro-6H-[1,3]dioxol[4,5-h]isoquinoline

> <PUBCHEM_IUPAC_INCHI>
InChI=1S/C13H17NO3/c1-8-11-9(4-5-14(8)2)6-10(15-3)12-13(11)17-7-16-12/h6,8H,4-5,7H2,1-3H3/t8-/m0/s1

> <PUBCHEM_IUPAC_INCHIKEY>
PNFBXEKHLUDPIM-QMMMGPOBSA-N

> <PUBCHEM_XLOGP3_AA>
2

> <PUBCHEM_EXACT_MASS>
235.120843

> <PUBCHEM_MOLECULAR_FORMULA>
C13H17NO3

> <PUBCHEM_MOLECULAR_WEIGHT>
235.27898

> <PUBCHEM_OPENEYE_CAN_SMILES>
CC1C2=C3C(=C(C=C2CCN1C)OC)OCO3

> <PUBCHEM_OPENEYE_ISO_SMILES>
C[C@H]1C2=C3C(=C(C=C2CCN1C)OC)OCO3

> <PUBCHEM_CACTVS_TPSA>
30.9

> <PUBCHEM_MONOISOTOPIC_WEIGHT>
235.120843

> <PUBCHEM_TOTAL_CHARGE>
0

> <PUBCHEM_HEAVY_ATOM_COUNT>
17

> <PUBCHEM_ATOM_DEF_STEREO_COUNT>
1

> <PUBCHEM_ATOM_UDEF_STEREO_COUNT>
0

> <PUBCHEM_BOND_DEF_STEREO_COUNT>
0

> <PUBCHEM_BOND_UDEF_STEREO_COUNT>
0

> <PUBCHEM_ISOTOPIC_ATOM_COUNT>
0

> <PUBCHEM_COMPONENT_COUNT>
1

> <PUBCHEM_CACTVS_TAUTO_COUNT>
1

> <PUBCHEM_COORDINATE_TYPE>
1
5
255

> <PUBCHEM_BONDANNOTATIONS>
10  13  8
12  15  8
13  15  8
5  11  6
6  10  8
6  7  8
7  12  8

$$$$

