5497150
  -OEChem-07051213122D

 52 52  0     1  0  0  0  0  0999 V2000
   10.6028   -0.4979    0.0000 O   0  0  0  0  0  0  0  0  0  0  0  0
    6.5474   -2.1452    0.0000 O   0  0  0  0  0  0  0  0  0  0  0  0
    4.1100   -3.1744    0.0000 O   0  0  0  0  0  0  0  0  0  0  0  0
    5.8042   -2.8143    0.0000 O   0  0  0  0  0  0  0  0  0  0  0  0
    5.3884   -0.8580    0.0000 N   0  0  0  0  0  0  0  0  0  0  0  0
    8.0337   -0.8069    0.0000 C   0  0  2  0  0  0  0  0  0  0  0  0
    8.8427   -0.2191    0.0000 C   0  0  2  0  0  0  0  0  0  0  0  0
    8.3427   -1.7580    0.0000 C   0  0  0  0  0  0  0  0  0  0  0  0
    9.3427   -1.7580    0.0000 C   0  0  0  0  0  0  0  0  0  0  0  0
    9.6517   -0.8069    0.0000 C   0  0  0  0  0  0  0  0  0  0  0  0
    7.0826   -0.4979    0.0000 C   0  0  0  0  0  0  0  0  0  0  0  0
    8.8427    0.7809    0.0000 C   0  0  0  0  0  0  0  0  0  0  0  0
    6.3395   -1.1670    0.0000 C   0  0  0  0  0  0  0  0  0  0  0  0
    4.6453   -1.5271    0.0000 C   0  0  1  0  0  0  0  0  0  0  0  0
    9.7087    1.2809    0.0000 C   0  0  0  0  0  0  0  0  0  0  0  0
    3.6942   -1.2181    0.0000 C   0  0  2  0  0  0  0  0  0  0  0  0
    2.9511   -1.8872    0.0000 C   0  0  0  0  0  0  0  0  0  0  0  0
    3.4863   -0.2400    0.0000 C   0  0  0  0  0  0  0  0  0  0  0  0
    9.7087    2.2809    0.0000 C   0  0  0  0  0  0  0  0  0  0  0  0
    4.8532   -2.5053    0.0000 C   0  0  0  0  0  0  0  0  0  0  0  0
    2.0000   -1.5782    0.0000 C   0  0  0  0  0  0  0  0  0  0  0  0
    8.8427    2.7809    0.0000 C   0  0  0  0  0  0  0  0  0  0  0  0
    8.8427    3.7809    0.0000 C   0  0  0  0  0  0  0  0  0  0  0  0
    7.9367   -0.1945    0.0000 H   0  0  0  0  0  0  0  0  0  0  0  0
    8.2902    0.0623    0.0000 H   0  0  0  0  0  0  0  0  0  0  0  0
    7.7362   -1.8869    0.0000 H   0  0  0  0  0  0  0  0  0  0  0  0
    8.4075   -2.3746    0.0000 H   0  0  0  0  0  0  0  0  0  0  0  0
    9.2779   -2.3746    0.0000 H   0  0  0  0  0  0  0  0  0  0  0  0
    9.9491   -1.8869    0.0000 H   0  0  0  0  0  0  0  0  0  0  0  0
    7.3737    0.0495    0.0000 H   0  0  0  0  0  0  0  0  0  0  0  0
    6.5940   -0.1162    0.0000 H   0  0  0  0  0  0  0  0  0  0  0  0
    8.6306    1.3635    0.0000 H   0  0  0  0  0  0  0  0  0  0  0  0
    8.2321    0.6732    0.0000 H   0  0  0  0  0  0  0  0  0  0  0  0
    5.2349   -1.7187    0.0000 H   0  0  0  0  0  0  0  0  0  0  0  0
   10.2456    0.9709    0.0000 H   0  0  0  0  0  0  0  0  0  0  0  0
    3.1046   -1.0265    0.0000 H   0  0  0  0  0  0  0  0  0  0  0  0
    5.2595   -0.2516    0.0000 H   0  0  0  0  0  0  0  0  0  0  0  0
    2.6600   -2.4347    0.0000 H   0  0  0  0  0  0  0  0  0  0  0  0
    3.4396   -2.2690    0.0000 H   0  0  0  0  0  0  0  0  0  0  0  0
    4.0927   -0.1111    0.0000 H   0  0  0  0  0  0  0  0  0  0  0  0
    3.3574    0.3665    0.0000 H   0  0  0  0  0  0  0  0  0  0  0  0
    2.8798   -0.3689    0.0000 H   0  0  0  0  0  0  0  0  0  0  0  0
   10.2456    2.5909    0.0000 H   0  0  0  0  0  0  0  0  0  0  0  0
    2.1916   -0.9886    0.0000 H   0  0  0  0  0  0  0  0  0  0  0  0
    1.4103   -1.3866    0.0000 H   0  0  0  0  0  0  0  0  0  0  0  0
    1.8084   -2.1679    0.0000 H   0  0  0  0  0  0  0  0  0  0  0  0
    8.2321    2.8885    0.0000 H   0  0  0  0  0  0  0  0  0  0  0  0
    8.6306    2.1983    0.0000 H   0  0  0  0  0  0  0  0  0  0  0  0
    9.4627    3.7809    0.0000 H   0  0  0  0  0  0  0  0  0  0  0  0
    8.8427    4.4009    0.0000 H   0  0  0  0  0  0  0  0  0  0  0  0
    8.2227    3.7809    0.0000 H   0  0  0  0  0  0  0  0  0  0  0  0
    4.2389   -3.7809    0.0000 H   0  0  0  0  0  0  0  0  0  0  0  0
  1 10  2  0  0  0  0
  2 13  2  0  0  0  0
  3 20  1  0  0  0  0
  3 52  1  0  0  0  0
  4 20  2  0  0  0  0
  5 13  1  0  0  0  0
 14  5  1  6  0  0  0
  5 37  1  0  0  0  0
  6  7  1  0  0  0  0
  6  8  1  0  0  0  0
  6 11  1  6  0  0  0
  6 24  1  0  0  0  0
  7 10  1  0  0  0  0
  7 12  1  1  0  0  0
  7 25  1  0  0  0  0
  8  9  1  0  0  0  0
  8 26  1  0  0  0  0
  8 27  1  0  0  0  0
  9 10  1  0  0  0  0
  9 28  1  0  0  0  0
  9 29  1  0  0  0  0
 11 13  1  0  0  0  0
 11 30  1  0  0  0  0
 11 31  1  0  0  0  0
 12 15  1  0  0  0  0
 12 32  1  0  0  0  0
 12 33  1  0  0  0  0
 14 16  1  0  0  0  0
 14 20  1  0  0  0  0
 14 34  1  0  0  0  0
 15 19  2  0  0  0  0
 15 35  1  0  0  0  0
 16 17  1  0  0  0  0
 16 18  1  6  0  0  0
 16 36  1  0  0  0  0
 17 21  1  0  0  0  0
 17 38  1  0  0  0  0
 17 39  1  0  0  0  0
 18 40  1  0  0  0  0
 18 41  1  0  0  0  0
 18 42  1  0  0  0  0
 19 22  1  0  0  0  0
 19 43  1  0  0  0  0
 21 44  1  0  0  0  0
 21 45  1  0  0  0  0
 21 46  1  0  0  0  0
 22 23  1  0  0  0  0
 22 47  1  0  0  0  0
 22 48  1  0  0  0  0
 23 49  1  0  0  0  0
 23 50  1  0  0  0  0
 23 51  1  0  0  0  0
M  END
> <PUBCHEM_COMPOUND_CID>
5497150

> <PUBCHEM_COMPOUND_CANONICALIZED>
1

> <PUBCHEM_CACTVS_COMPLEXITY>
458

> <PUBCHEM_CACTVS_HBOND_ACCEPTOR>
4

> <PUBCHEM_CACTVS_HBOND_DONOR>
2

> <PUBCHEM_CACTVS_ROTATABLE_BOND>
9

> <PUBCHEM_CACTVS_SUBSKEYS>
AAADceB6OAAAAAAAAAAAAAAAAAAAAYAAAAAAAAAAAAAAAAAAAAAAHgAQCAAADSzBgAQCCALAAgCIAKHSGAAAAAAgAAAICIGIAAgCABIAgSAEQAAElgCYAAOYi4CugAAAAAAAAAAAAAAAAAAAAAAACAAAAA==

> <PUBCHEM_IUPAC_OPENEYE_NAME>
(2S,3S)-3-methyl-2-[[2-[(1R,2R)-3-oxo-2-[(Z)-pent-2-enyl]cyclopentyl]acetyl]amino]pentanoic acid

> <PUBCHEM_IUPAC_CAS_NAME>
(2S,3S)-3-methyl-2-[[1-oxo-2-[(1R,2R)-3-oxo-2-[(Z)-pent-2-enyl]cyclopentyl]ethyl]amino]pentanoic acid

> <PUBCHEM_IUPAC_NAME>
(2S,3S)-3-methyl-2-[[2-[(1R,2R)-3-oxo-2-[(Z)-pent-2-enyl]cyclopentyl]acetyl]amino]pentanoic acid

> <PUBCHEM_IUPAC_SYSTEMATIC_NAME>
(2S,3S)-3-methyl-2-[2-[(1R,2R)-3-oxidanylidene-2-[(Z)-pent-2-enyl]cyclopentyl]ethanoylamino]pentanoic acid

> <PUBCHEM_IUPAC_TRADITIONAL_NAME>
(2S,3S)-2-[[2-[(1R,2R)-3-keto-2-[(Z)-pent-2-enyl]cyclopentyl]acetyl]amino]-3-methyl-valeric acid

> <PUBCHEM_IUPAC_INCHI>
InChI=1S/C18H29NO4/c1-4-6-7-8-14-13(9-10-15(14)20)11-16(21)19-17(18(22)23)12(3)5-2/h6-7,12-14,17H,4-5,8-11H2,1-3H3,(H,19,21)(H,22,23)/b7-6-/t12-,13+,14+,17-/m0/s1

> <PUBCHEM_IUPAC_INCHIKEY>
IBZYPBGPOGJMBF-QRHMYKSGSA-N

> <PUBCHEM_XLOGP3_AA>
2.7

> <PUBCHEM_EXACT_MASS>
323.209658

> <PUBCHEM_MOLECULAR_FORMULA>
C18H29NO4

> <PUBCHEM_MOLECULAR_WEIGHT>
323.42716

> <PUBCHEM_OPENEYE_CAN_SMILES>
CCC=CCC1C(CCC1=O)CC(=O)NC(C(C)CC)C(=O)O

> <PUBCHEM_OPENEYE_ISO_SMILES>
CC/C=C\C[C@@H]1[C@H](CCC1=O)CC(=O)N[C@@H]([C@@H](C)CC)C(=O)O

> <PUBCHEM_CACTVS_TPSA>
83.5

> <PUBCHEM_MONOISOTOPIC_WEIGHT>
323.209658

> <PUBCHEM_TOTAL_CHARGE>
0

> <PUBCHEM_HEAVY_ATOM_COUNT>
23

> <PUBCHEM_ATOM_DEF_STEREO_COUNT>
4

> <PUBCHEM_ATOM_UDEF_STEREO_COUNT>
0

> <PUBCHEM_BOND_DEF_STEREO_COUNT>
1

> <PUBCHEM_BOND_UDEF_STEREO_COUNT>
0

> <PUBCHEM_ISOTOPIC_ATOM_COUNT>
0

> <PUBCHEM_COMPONENT_COUNT>
1

> <PUBCHEM_CACTVS_TAUTO_COUNT>
6

> <PUBCHEM_COORDINATE_TYPE>
1
5
255

> <PUBCHEM_BONDANNOTATIONS>
16  18  6
14  5  6
6  11  6
7  12  5

$$$$

