   Color/Form

     * NEEDLES FROM METHANOL
     * WHITE TO YELLOWISH CRYSTALS
     * GRAY TO TAN FLAKES OR POWDER
     * White to yellow crystals or gray tan flakes or powder [Note:
       Commercial product may contain 20-30 ppm of beta naphthylamine].

   from [1]HSDB

   Boiling Point
        395.5 DEG C
   from [2]HSDB

   Melting Point
        108 DEG C
   from [3]HSDB

   Density/Specific Gravity
        1.24
   from [4]HSDB

   Octanol/Water Partition Coefficient
        log Kow = 4.38
   from [5]HSDB

   Solubilities

     * SOLUBILITY IN ETHANOL 50 G/L, IN BENZENE 27 G/L, IN ACETONE 640 G/L
     * INSOL IN WATER; SOL IN ALC, ETHER, ACETIC ACID (BLUISH
       FLUORESCENCE)

   from [6]HSDB

   Spectral Properties

     * MAX ABSORPTION (ALC): 220 NM (LOG E= 4.7); 275 NM (LOG E= 4.4); 312
       NM (LOG E= 4.3); SADTLER REFERENCE NUMBER: 155 (IR, PRISM); 48 (IR,
       GRATING); 61 (UV)
     * IR: 2:657D (Aldrich Library of Infrared Spectra, Aldrich Chemical
       Co, Milwaukee, WI)
     * NMR: 5:88D (Aldrich Library of Mass Spectra, Aldrich Chemical Co,
       Milwaukee, WI)
     * IR: 7366 (Sadtler Research Laboratories Prism Collection)

   from [7]HSDB

   Other Chemical/Physical Properties
        MAY BE OXIDIZED TO 7-PHENYL-7H-DIBENZO[C,G]CARBAZOLE
   from [8]HSDB

   Computed Properties
   Molecular Weight                  219.28112 [g/mol]
   Molecular Formula                 C[16]H[13]N
   XLogP3                            5.1
   H-Bond Donor                      1
   H-Bond Acceptor                   1
   Rotatable Bond Count              2
   Exact Mass                        219.104799
   MonoIsotopic Mass                 219.104799
   Topological Polar Surface Area    12
   Heavy Atom Count                  17
   Formal Charge                     0
   Complexity                        232
   Isotope Atom Count                0
   Defined Atom Stereocenter Count   0
   Undefined Atom Stereocenter Count 0
   Defined Bond Stereocenter Count   0
   Undefined Bond Stereocenter Count 0
   Covalently-Bonded Unit Count      1
   Feature 3D Donor Count            1
   Feature 3D Cation Count           1
   Feature 3D Ring Count             3
   Effective Rotor Count             2
   Conformer Sampling RMSD           0.6
   CID Conformer Count               [9]6

References

   1. http://toxnet.nlm.nih.gov/cgi-bin/sis/search/r?dbs+hsdb:@term+@rn+@rel+135-88-6
   2. http://toxnet.nlm.nih.gov/cgi-bin/sis/search/r?dbs+hsdb:@term+@rn+@rel+135-88-6
   3. http://toxnet.nlm.nih.gov/cgi-bin/sis/search/r?dbs+hsdb:@term+@rn+@rel+135-88-6
   4. http://toxnet.nlm.nih.gov/cgi-bin/sis/search/r?dbs+hsdb:@term+@rn+@rel+135-88-6
   5. http://toxnet.nlm.nih.gov/cgi-bin/sis/search/r?dbs+hsdb:@term+@rn+@rel+135-88-6
   6. http://toxnet.nlm.nih.gov/cgi-bin/sis/search/r?dbs+hsdb:@term+@rn+@rel+135-88-6
   7. http://toxnet.nlm.nih.gov/cgi-bin/sis/search/r?dbs+hsdb:@term+@rn+@rel+135-88-6
   8. http://toxnet.nlm.nih.gov/cgi-bin/sis/search/r?dbs+hsdb:@term+@rn+@rel+135-88-6
   9. http://pubchem.ncbi.nlm.nih.gov/vw3d/vw3d.cgi?cid=8679
