   Color/Form

     * Crystals
     * White to off-white crystalline powder

   from [1]HSDB

   Odor
        Practically odorless
   from [2]HSDB

   Taste
        Slightly bitter taste
   from [3]HSDB

   Melting Point
        273-275 deg C
   from [4]HSDB

   Dissociation Constants

     * pKa= 7.9, pKa2= 9.2
     * pKa= 7.9

   from [5]HSDB

   Solubilities

     * Soluble in dilute ammonia, or sodium hydroxide; also soluble in
       methanol, ethanol, acetone.
     * Freely soluble in sodium hydroxide solution, in n-butylamine and in
       dimethylformamide; sparingly soluble in methanol; insoluble in
       dilute mineral acids
     * In water, 722 mg/l @ 25 deg C

   from [6]HSDB

   Spectral Properties

     * UV max (methanol+trace HCl): 317, 271, 226 nm (A1%/1 cm 130, 654,
       1280)
     * Intense mass spectral peaks: 221 m/z, 269 m/z, 297 m/z
     * MASS: 74591 (NIST/EPA/MSDC Mass Spectral Database, 1990 Version)
     * IR: 6020 (Coblentz Society spectral collection)
     * UV: 608 (Absorption Spectra in the UV and Visible Region, Academic
       Press, New York)

   from [7]HSDB

   Computed Properties
   Molecular Weight                  297.73912 [g/mol]
   Molecular Formula                 C[7]H[8]ClN[3]O[4]S[2]
   XLogP3                            -0.1
   H-Bond Donor                      3
   H-Bond Acceptor                   7
   Rotatable Bond Count              1
   Exact Mass                        296.964475
   MonoIsotopic Mass                 296.964475
   Topological Polar Surface Area    135
   Heavy Atom Count                  17
   Formal Charge                     0
   Complexity                        494
   Isotope Atom Count                0
   Defined Atom Stereocenter Count   0
   Undefined Atom Stereocenter Count 0
   Defined Bond Stereocenter Count   0
   Undefined Bond Stereocenter Count 0
   Covalently-Bonded Unit Count      1
   Feature 3D Acceptor Count         4
   Feature 3D Donor Count            3
   Feature 3D Cation Count           1
   Feature 3D Ring Count             2
   Effective Rotor Count             1.6
   Conformer Sampling RMSD           0.6
   CID Conformer Count               [8]2

References

   1. http://toxnet.nlm.nih.gov/cgi-bin/sis/search/r?dbs+hsdb:@term+@rn+@rel+58-93-5
   2. http://toxnet.nlm.nih.gov/cgi-bin/sis/search/r?dbs+hsdb:@term+@rn+@rel+58-93-5
   3. http://toxnet.nlm.nih.gov/cgi-bin/sis/search/r?dbs+hsdb:@term+@rn+@rel+58-93-5
   4. http://toxnet.nlm.nih.gov/cgi-bin/sis/search/r?dbs+hsdb:@term+@rn+@rel+58-93-5
   5. http://toxnet.nlm.nih.gov/cgi-bin/sis/search/r?dbs+hsdb:@term+@rn+@rel+58-93-5
   6. http://toxnet.nlm.nih.gov/cgi-bin/sis/search/r?dbs+hsdb:@term+@rn+@rel+58-93-5
   7. http://toxnet.nlm.nih.gov/cgi-bin/sis/search/r?dbs+hsdb:@term+@rn+@rel+58-93-5
   8. http://pubchem.ncbi.nlm.nih.gov/vw3d/vw3d.cgi?cid=3639
