24892727
  -OEChem-07051212462D

 66 70  0     1  0  0  0  0  0999 V2000
    2.5084    0.6225    0.0000 O   0  0  0  0  0  0  0  0  0  0  0  0
    4.9775    2.2896    0.0000 O   0  0  0  0  0  0  0  0  0  0  0  0
    8.5096   -0.7313    0.0000 O   0  0  0  0  0  0  0  0  0  0  0  0
    4.1115    3.7896    0.0000 O   0  0  0  0  0  0  0  0  0  0  0  0
    4.6325   -2.8049    0.0000 O   0  0  0  0  0  0  0  0  0  0  0  0
    2.9861   -2.2668    0.0000 O   0  0  0  0  0  0  0  0  0  0  0  0
    9.3736    0.8137    0.0000 O   0  0  0  0  0  0  0  0  0  0  0  0
    8.0741   -3.7896    0.0000 O   0  0  0  0  0  0  0  0  0  0  0  0
    4.1115    0.7896    0.0000 C   0  0  1  0  0  0  0  0  0  0  0  0
    3.9023   -0.1823    0.0000 C   0  0  2  0  0  0  0  0  0  0  0  0
    4.9775    0.2896    0.0000 C   0  0  1  0  0  0  0  0  0  0  0  0
    3.2454    1.2896    0.0000 C   0  0  2  0  0  0  0  0  0  0  0  0
    2.9136   -0.2853    0.0000 C   0  0  0  0  0  0  0  0  0  0  0  0
    4.9775    1.2896    0.0000 C   0  0  0  0  0  0  0  0  0  0  0  0
    4.9775   -0.7104    0.0000 C   0  0  0  0  0  0  0  0  0  0  0  0
    6.7096   -0.7104    0.0000 C   0  0  2  0  0  0  0  0  0  0  0  0
    5.8435    0.7896    0.0000 C   0  0  0  0  0  0  0  0  0  0  0  0
    5.8435   -1.2104    0.0000 C   0  0  0  0  0  0  0  0  0  0  0  0
    3.2454    2.2896    0.0000 C   0  0  0  0  0  0  0  0  0  0  0  0
    4.2753   -1.1101    0.0000 C   0  0  0  0  0  0  0  0  0  0  0  0
    6.7096    0.2896    0.0000 C   0  0  0  0  0  0  0  0  0  0  0  0
    2.0000   -0.6921    0.0000 C   0  0  0  0  0  0  0  0  0  0  0  0
    2.6716   -1.2556    0.0000 C   0  0  0  0  0  0  0  0  0  0  0  0
    7.6035   -1.2451    0.0000 C   0  0  2  0  0  0  0  0  0  0  0  0
    4.1115    2.7896    0.0000 C   0  0  0  0  0  0  0  0  0  0  0  0
    7.6035    0.8242    0.0000 C   0  0  0  0  0  0  0  0  0  0  0  0
    6.7096   -1.7104    0.0000 C   0  0  0  0  0  0  0  0  0  0  0  0
    5.8435    1.7896    0.0000 C   0  0  0  0  0  0  0  0  0  0  0  0
    3.9646   -2.0606    0.0000 C   0  0  0  0  0  0  0  0  0  0  0  0
    8.5096    0.3104    0.0000 C   0  0  0  0  0  0  0  0  0  0  0  0
    7.5919   -2.2450    0.0000 C   0  0  0  0  0  0  0  0  0  0  0  0
    6.7762   -2.8234    0.0000 C   0  0  0  0  0  0  0  0  0  0  0  0
    8.3941   -2.8421    0.0000 C   0  0  0  0  0  0  0  0  0  0  0  0
    7.0742   -3.7780    0.0000 C   0  0  0  0  0  0  0  0  0  0  0  0
    4.5200   -0.1296    0.0000 H   0  0  0  0  0  0  0  0  0  0  0  0
    5.7136   -0.1354    0.0000 H   0  0  0  0  0  0  0  0  0  0  0  0
    2.4685    1.6343    0.0000 H   0  0  0  0  0  0  0  0  0  0  0  0
    5.1896    0.7069    0.0000 H   0  0  0  0  0  0  0  0  0  0  0  0
    5.5881    1.3972    0.0000 H   0  0  0  0  0  0  0  0  0  0  0  0
    4.3669   -0.6028    0.0000 H   0  0  0  0  0  0  0  0  0  0  0  0
    4.7655   -1.2930    0.0000 H   0  0  0  0  0  0  0  0  0  0  0  0
    5.4450   -1.6854    0.0000 H   0  0  0  0  0  0  0  0  0  0  0  0
    6.2420   -1.6854    0.0000 H   0  0  0  0  0  0  0  0  0  0  0  0
    3.0334    2.8722    0.0000 H   0  0  0  0  0  0  0  0  0  0  0  0
    2.6349    2.1819    0.0000 H   0  0  0  0  0  0  0  0  0  0  0  0
    4.7846   -1.4636    0.0000 H   0  0  0  0  0  0  0  0  0  0  0  0
    4.7600   -0.7236    0.0000 H   0  0  0  0  0  0  0  0  0  0  0  0
    1.7478   -0.1257    0.0000 H   0  0  0  0  0  0  0  0  0  0  0  0
    1.4336   -0.9442    0.0000 H   0  0  0  0  0  0  0  0  0  0  0  0
    2.2522   -1.2584    0.0000 H   0  0  0  0  0  0  0  0  0  0  0  0
    2.0700   -1.1056    0.0000 H   0  0  0  0  0  0  0  0  0  0  0  0
    2.5216   -1.8572    0.0000 H   0  0  0  0  0  0  0  0  0  0  0  0
    3.2732   -1.4056    0.0000 H   0  0  0  0  0  0  0  0  0  0  0  0
    8.1374   -1.5603    0.0000 H   0  0  0  0  0  0  0  0  0  0  0  0
    7.9971    1.3032    0.0000 H   0  0  0  0  0  0  0  0  0  0  0  0
    7.1989    1.2940    0.0000 H   0  0  0  0  0  0  0  0  0  0  0  0
    6.0896   -1.7104    0.0000 H   0  0  0  0  0  0  0  0  0  0  0  0
    6.7096   -2.3304    0.0000 H   0  0  0  0  0  0  0  0  0  0  0  0
    7.3296   -1.7104    0.0000 H   0  0  0  0  0  0  0  0  0  0  0  0
    6.4635    1.7896    0.0000 H   0  0  0  0  0  0  0  0  0  0  0  0
    5.8435    2.4096    0.0000 H   0  0  0  0  0  0  0  0  0  0  0  0
    5.2235    1.7896    0.0000 H   0  0  0  0  0  0  0  0  0  0  0  0
    6.1888   -2.6250    0.0000 H   0  0  0  0  0  0  0  0  0  0  0  0
    8.9859   -2.6574    0.0000 H   0  0  0  0  0  0  0  0  0  0  0  0
    4.4399   -3.3942    0.0000 H   0  0  0  0  0  0  0  0  0  0  0  0
    6.7040   -4.2753    0.0000 H   0  0  0  0  0  0  0  0  0  0  0  0
  1 12  1  0  0  0  0
  1 13  1  0  0  0  0
  2 14  1  0  0  0  0
  2 25  1  0  0  0  0
  3 24  1  0  0  0  0
  3 30  1  0  0  0  0
  4 25  2  0  0  0  0
  5 29  1  0  0  0  0
  5 65  1  0  0  0  0
  6 29  2  0  0  0  0
  7 30  2  0  0  0  0
  8 33  1  0  0  0  0
  8 34  1  0  0  0  0
  9 10  1  0  0  0  0
  9 11  1  0  0  0  0
  9 12  1  0  0  0  0
  9 14  1  1  0  0  0
 10 13  1  0  0  0  0
 10 20  1  1  0  0  0
 10 35  1  0  0  0  0
 11 15  1  0  0  0  0
 11 17  1  0  0  0  0
 11 36  1  1  0  0  0
 12 19  1  0  0  0  0
 12 37  1  6  0  0  0
 13 22  1  0  0  0  0
 13 23  1  0  0  0  0
 14 38  1  0  0  0  0
 14 39  1  0  0  0  0
 15 18  1  0  0  0  0
 15 40  1  0  0  0  0
 15 41  1  0  0  0  0
 16 18  1  0  0  0  0
 16 21  1  0  0  0  0
 16 24  1  0  0  0  0
 16 27  1  1  0  0  0
 17 21  2  0  0  0  0
 17 28  1  0  0  0  0
 18 42  1  0  0  0  0
 18 43  1  0  0  0  0
 19 25  1  0  0  0  0
 19 44  1  0  0  0  0
 19 45  1  0  0  0  0
 20 29  1  0  0  0  0
 20 46  1  0  0  0  0
 20 47  1  0  0  0  0
 21 26  1  0  0  0  0
 22 48  1  0  0  0  0
 22 49  1  0  0  0  0
 22 50  1  0  0  0  0
 23 51  1  0  0  0  0
 23 52  1  0  0  0  0
 23 53  1  0  0  0  0
 24 31  1  1  0  0  0
 24 54  1  0  0  0  0
 26 30  1  0  0  0  0
 26 55  1  0  0  0  0
 26 56  1  0  0  0  0
 27 57  1  0  0  0  0
 27 58  1  0  0  0  0
 27 59  1  0  0  0  0
 28 60  1  0  0  0  0
 28 61  1  0  0  0  0
 28 62  1  0  0  0  0
 31 32  1  0  0  0  0
 31 33  2  0  0  0  0
 32 34  2  0  0  0  0
 32 63  1  0  0  0  0
 33 64  1  0  0  0  0
 34 66  1  0  0  0  0
M  END
> <PUBCHEM_COMPOUND_CID>
24892727

> <PUBCHEM_COMPOUND_CANONICALIZED>
1

> <PUBCHEM_CACTVS_COMPLEXITY>
937

> <PUBCHEM_CACTVS_HBOND_ACCEPTOR>
8

> <PUBCHEM_CACTVS_HBOND_DONOR>
1

> <PUBCHEM_CACTVS_ROTATABLE_BOND>
4

> <PUBCHEM_CACTVS_SUBSKEYS>
AAADcfB4PAAAAAAAAAAAAAAAAAAAASJAAAAkSIAAAAAAAEiBgAAAGgAACAAAD1SgmAIyDIAABkCIAijSiAACCAAkIAAIiAEGCMgMJxYENQqCWSCl4BEIKYPK7PzPgAAAAAAAAAAAAAAAAAAAAAAAAAAAAA==

> <PUBCHEM_IUPAC_OPENEYE_NAME>
2-[(3R,3aR,7aS)-3a-[(1R,6S,8aR)-1-(3-furyl)-5,8a-dimethyl-3-oxo-4,6,7,8-tetrahydro-1H-isochromen-6-yl]-2,2-dimethyl-6-oxo-3,4,7,7a-tetrahydrofuro[3,2-c]pyran-3-yl]acetic acid

> <PUBCHEM_IUPAC_CAS_NAME>
2-[(3R,3aR,7aS)-3a-[(1R,6S,8aR)-1-(3-furanyl)-5,8a-dimethyl-3-oxo-4,6,7,8-tetrahydro-1H-2-benzopyran-6-yl]-2,2-dimethyl-6-oxo-3,4,7,7a-tetrahydrofuro[3,2-c]pyran-3-yl]acetic acid

> <PUBCHEM_IUPAC_NAME>
2-[(3R,3aR,7aS)-3a-[(1R,6S,8aR)-1-(furan-3-yl)-5,8a-dimethyl-3-oxo-4,6,7,8-tetrahydro-1H-isochromen-6-yl]-2,2-dimethyl-6-oxo-3,4,7,7a-tetrahydrofuro[3,2-c]pyran-3-yl]acetic acid

> <PUBCHEM_IUPAC_SYSTEMATIC_NAME>
2-[(3R,3aR,7aS)-3a-[(1R,6S,8aR)-1-(furan-3-yl)-5,8a-dimethyl-3-oxidanylidene-4,6,7,8-tetrahydro-1H-isochromen-6-yl]-2,2-dimethyl-6-oxidanylidene-3,4,7,7a-tetrahydrofuro[3,2-c]pyran-3-yl]ethanoic acid

> <PUBCHEM_IUPAC_TRADITIONAL_NAME>
2-[(3R,3aR,7aS)-3a-[(1R,6S,8aR)-1-(3-furyl)-3-keto-5,8a-dimethyl-4,6,7,8-tetrahydro-1H-isochromen-6-yl]-6-keto-2,2-dimethyl-3,4,7,7a-tetrahydrofuro[3,2-c]pyran-3-yl]acetic acid

> <PUBCHEM_IUPAC_INCHI>
InChI=1S/C26H32O8/c1-14-16(5-7-25(4)17(14)9-22(30)33-23(25)15-6-8-31-12-15)26-13-32-21(29)11-19(26)34-24(2,3)18(26)10-20(27)28/h6,8,12,16,18-19,23H,5,7,9-11,13H2,1-4H3,(H,27,28)/t16-,18-,19-,23-,25+,26+/m0/s1

> <PUBCHEM_IUPAC_INCHIKEY>
NLNLACOJSWLNHE-DYNITIQCSA-N

> <PUBCHEM_XLOGP3_AA>
1.8

> <PUBCHEM_EXACT_MASS>
472.209718

> <PUBCHEM_MOLECULAR_FORMULA>
C26H32O8

> <PUBCHEM_MOLECULAR_WEIGHT>
472.52748

> <PUBCHEM_OPENEYE_CAN_SMILES>
CC1=C2CC(=O)OC(C2(CCC1C34COC(=O)CC3OC(C4CC(=O)O)(C)C)C)C5=COC=C5

> <PUBCHEM_OPENEYE_ISO_SMILES>
CC1=C2CC(=O)O[C@H]([C@@]2(CC[C@@H]1[C@@]34COC(=O)C[C@@H]3OC([C@@H]4CC(=O)O)(C)C)C)C5=COC=C5

> <PUBCHEM_CACTVS_TPSA>
112

> <PUBCHEM_MONOISOTOPIC_WEIGHT>
472.209718

> <PUBCHEM_TOTAL_CHARGE>
0

> <PUBCHEM_HEAVY_ATOM_COUNT>
34

> <PUBCHEM_ATOM_DEF_STEREO_COUNT>
6

> <PUBCHEM_ATOM_UDEF_STEREO_COUNT>
0

> <PUBCHEM_BOND_DEF_STEREO_COUNT>
0

> <PUBCHEM_BOND_UDEF_STEREO_COUNT>
0

> <PUBCHEM_ISOTOPIC_ATOM_COUNT>
0

> <PUBCHEM_COMPONENT_COUNT>
1

> <PUBCHEM_CACTVS_TAUTO_COUNT>
4

> <PUBCHEM_COORDINATE_TYPE>
1
5
255

> <PUBCHEM_BONDANNOTATIONS>
10  20  5
11  36  5
12  37  6
16  27  5
24  31  5
31  32  8
31  33  8
32  34  8
8  33  8
8  34  8
9  14  5

$$$$

