   Color/Form

     * Colorless liquid
     * CLEAR TO STRAW-COLORED, YELLOW-BROWN OIL

   from [1]HSDB

   Odor
        Aniline-like odor
   from [2]HSDB

   Boiling Point
        204.5 deg C
   from [3]HSDB

   Melting Point
        -63.5 deg C
   from [4]HSDB

   Critical Temperature and Pressure
        Critical temperature: 698.55 K; critical pressure: 3.58X10+6 Pa
   from [5]HSDB

   Density/Specific Gravity
        0.9625 @ 20 deg C/4 deg C
   from [6]HSDB

   Dissociation Constants
        pKa= 5.12 @ 25 deg C
   from [7]HSDB

   Heat of Vaporization
        6.57X10+7 J/kmol @ 209.65 K
   from [8]HSDB

   Octanol/Water Partition Coefficient
        log Kow= 2.16
   from [9]HSDB

   pH
        pH= 5.6
   from [10]HSDB

   Solubilities

     * Insol in water; miscible with alcohol, ether, and many other
       organic solvents
     * Very sol in acetone; sol in organic solvents
     * In water, 2.41X10+3 mg/l @ 25 deg C

   from [11]HSDB

   Spectral Properties

     * Very refractive; Index of refraction: 1.5559 @ 20 deg C/D
     * MAX ABSORPTION (ISOOCTANE): 245 NM (LOG E= 4.12), 294 NM (LOG E=
       3.35); SADTLER REF NUMBER: 9167 (IR, PRISM)
     * IR: 6271 (Coblentz Society Spectral Collection)
     * UV: 2378 (Sadtler Research Laboratories Spectral Collection)
     * NMR: 1890 (Sadtler Research Laboratories Spectral Collection)
     * MASS: 489 (Atlas of Mass Spectral Data, John Wiley & Sons, New
       York)

   from [12]HSDB

   Surface Tension
        4.579X10-2 N.m @ 209.65 K
   from [13]HSDB

   Vapor Density
        4.2 (AIR= 1)
   from [14]HSDB

   Vapor Pressure
        0.204 mm Hg @ 25 deg C
   from [15]HSDB

   Viscosity
        1.716X10-2 Pa.s
   from [16]HSDB

   Other Chemical/Physical Properties
        SOLIDIFIES BELOW 80 DEG C
   from [17]HSDB

   Computed Properties
   Molecular Weight                  121.17964 [g/mol]
   Molecular Formula                 C[8]H[11]N
   XLogP3                            2.2
   H-Bond Donor                      1
   H-Bond Acceptor                   1
   Rotatable Bond Count              2
   Exact Mass                        121.089149
   MonoIsotopic Mass                 121.089149
   Topological Polar Surface Area    12
   Heavy Atom Count                  9
   Formal Charge                     0
   Complexity                        65
   Isotope Atom Count                0
   Defined Atom Stereocenter Count   0
   Undefined Atom Stereocenter Count 0
   Defined Bond Stereocenter Count   0
   Undefined Bond Stereocenter Count 0
   Covalently-Bonded Unit Count      1
   Feature 3D Donor Count            1
   Feature 3D Cation Count           1
   Feature 3D Ring Count             1
   Effective Rotor Count             2
   Conformer Sampling RMSD           0.4
   CID Conformer Count               [18]3

References

   1. http://toxnet.nlm.nih.gov/cgi-bin/sis/search/r?dbs+hsdb:@term+@rn+@rel+103-69-5
   2. http://toxnet.nlm.nih.gov/cgi-bin/sis/search/r?dbs+hsdb:@term+@rn+@rel+103-69-5
   3. http://toxnet.nlm.nih.gov/cgi-bin/sis/search/r?dbs+hsdb:@term+@rn+@rel+103-69-5
   4. http://toxnet.nlm.nih.gov/cgi-bin/sis/search/r?dbs+hsdb:@term+@rn+@rel+103-69-5
   5. http://toxnet.nlm.nih.gov/cgi-bin/sis/search/r?dbs+hsdb:@term+@rn+@rel+103-69-5
   6. http://toxnet.nlm.nih.gov/cgi-bin/sis/search/r?dbs+hsdb:@term+@rn+@rel+103-69-5
   7. http://toxnet.nlm.nih.gov/cgi-bin/sis/search/r?dbs+hsdb:@term+@rn+@rel+103-69-5
   8. http://toxnet.nlm.nih.gov/cgi-bin/sis/search/r?dbs+hsdb:@term+@rn+@rel+103-69-5
   9. http://toxnet.nlm.nih.gov/cgi-bin/sis/search/r?dbs+hsdb:@term+@rn+@rel+103-69-5
  10. http://toxnet.nlm.nih.gov/cgi-bin/sis/search/r?dbs+hsdb:@term+@rn+@rel+103-69-5
  11. http://toxnet.nlm.nih.gov/cgi-bin/sis/search/r?dbs+hsdb:@term+@rn+@rel+103-69-5
  12. http://toxnet.nlm.nih.gov/cgi-bin/sis/search/r?dbs+hsdb:@term+@rn+@rel+103-69-5
  13. http://toxnet.nlm.nih.gov/cgi-bin/sis/search/r?dbs+hsdb:@term+@rn+@rel+103-69-5
  14. http://toxnet.nlm.nih.gov/cgi-bin/sis/search/r?dbs+hsdb:@term+@rn+@rel+103-69-5
  15. http://toxnet.nlm.nih.gov/cgi-bin/sis/search/r?dbs+hsdb:@term+@rn+@rel+103-69-5
  16. http://toxnet.nlm.nih.gov/cgi-bin/sis/search/r?dbs+hsdb:@term+@rn+@rel+103-69-5
  17. http://toxnet.nlm.nih.gov/cgi-bin/sis/search/r?dbs+hsdb:@term+@rn+@rel+103-69-5
  18. http://pubchem.ncbi.nlm.nih.gov/vw3d/vw3d.cgi?cid=7670
