443301
  -OEChem-07051213012D

 63 65  0     1  0  0  0  0  0999 V2000
    8.9282    3.0427    0.0000 O   0  0  0  0  0  0  0  0  0  0  0  0
    6.3301    0.5427    0.0000 O   0  0  0  0  0  0  0  0  0  0  0  0
    7.1962    2.0427    0.0000 N   0  0  0  0  0  0  0  0  0  0  0  0
    9.7942    1.5427    0.0000 N   0  0  0  0  0  0  0  0  0  0  0  0
    5.4641    3.0427    0.0000 N   0  0  0  0  0  0  0  0  0  0  0  0
    6.3301   -1.4573    0.0000 N   0  0  0  0  0  0  0  0  0  0  0  0
    5.4641   -2.9573    0.0000 N   0  0  0  0  0  0  0  0  0  0  0  0
    7.1962   -2.9573    0.0000 N   0  0  0  0  0  0  0  0  0  0  0  0
    8.0622    1.5427    0.0000 C   0  0  1  0  0  0  0  0  0  0  0  0
    8.0622    0.5427    0.0000 C   0  0  0  0  0  0  0  0  0  0  0  0
    7.1962    0.0427    0.0000 C   0  0  0  0  0  0  0  0  0  0  0  0
    5.4641    2.0427    0.0000 C   0  0  2  0  0  0  0  0  0  0  0  0
    8.9282    2.0427    0.0000 C   0  0  0  0  0  0  0  0  0  0  0  0
    6.3301    1.5427    0.0000 C   0  0  0  0  0  0  0  0  0  0  0  0
    4.5981    1.5427    0.0000 C   0  0  0  0  0  0  0  0  0  0  0  0
    7.1962   -0.9573    0.0000 C   0  0  0  0  0  0  0  0  0  0  0  0
    3.7320    2.0427    0.0000 C   0  0  0  0  0  0  0  0  0  0  0  0
   10.6603    2.0427    0.0000 C   0  0  0  0  0  0  0  0  0  0  0  0
   11.5263    1.5427    0.0000 C   0  0  0  0  0  0  0  0  0  0  0  0
   12.3923    2.0427    0.0000 C   0  0  0  0  0  0  0  0  0  0  0  0
   10.6603    3.0427    0.0000 C   0  0  0  0  0  0  0  0  0  0  0  0
   12.3923    3.0427    0.0000 C   0  0  0  0  0  0  0  0  0  0  0  0
    3.7320    3.0427    0.0000 C   0  0  0  0  0  0  0  0  0  0  0  0
    2.8660    1.5427    0.0000 C   0  0  0  0  0  0  0  0  0  0  0  0
   11.5263    3.5427    0.0000 C   0  0  0  0  0  0  0  0  0  0  0  0
   13.2862    1.5080    0.0000 C   0  0  0  0  0  0  0  0  0  0  0  0
    2.8660    3.5427    0.0000 C   0  0  0  0  0  0  0  0  0  0  0  0
    2.0000    2.0427    0.0000 C   0  0  0  0  0  0  0  0  0  0  0  0
   13.2862    3.5773    0.0000 C   0  0  0  0  0  0  0  0  0  0  0  0
    2.0000    3.0427    0.0000 C   0  0  0  0  0  0  0  0  0  0  0  0
    6.3301   -2.4573    0.0000 C   0  0  0  0  0  0  0  0  0  0  0  0
   14.1923    2.0218    0.0000 C   0  0  0  0  0  0  0  0  0  0  0  0
   14.1923    3.0635    0.0000 C   0  0  0  0  0  0  0  0  0  0  0  0
    8.0622    2.1627    0.0000 H   0  0  0  0  0  0  0  0  0  0  0  0
    8.2742   -0.0399    0.0000 H   0  0  0  0  0  0  0  0  0  0  0  0
    8.6728    0.6503    0.0000 H   0  0  0  0  0  0  0  0  0  0  0  0
    6.9841    0.6253    0.0000 H   0  0  0  0  0  0  0  0  0  0  0  0
    6.5856   -0.0650    0.0000 H   0  0  0  0  0  0  0  0  0  0  0  0
    7.1962    2.6627    0.0000 H   0  0  0  0  0  0  0  0  0  0  0  0
    6.0010    2.3527    0.0000 H   0  0  0  0  0  0  0  0  0  0  0  0
    4.1996    1.0677    0.0000 H   0  0  0  0  0  0  0  0  0  0  0  0
    4.9966    1.0677    0.0000 H   0  0  0  0  0  0  0  0  0  0  0  0
    7.4082   -1.5399    0.0000 H   0  0  0  0  0  0  0  0  0  0  0  0
    7.8067   -0.8497    0.0000 H   0  0  0  0  0  0  0  0  0  0  0  0
    9.7942    0.9227    0.0000 H   0  0  0  0  0  0  0  0  0  0  0  0
    6.0010    3.3527    0.0000 H   0  0  0  0  0  0  0  0  0  0  0  0
    4.9272    3.3527    0.0000 H   0  0  0  0  0  0  0  0  0  0  0  0
   11.5263    0.9227    0.0000 H   0  0  0  0  0  0  0  0  0  0  0  0
   10.1233    3.3527    0.0000 H   0  0  0  0  0  0  0  0  0  0  0  0
    4.2690    3.3527    0.0000 H   0  0  0  0  0  0  0  0  0  0  0  0
    2.8660    0.9227    0.0000 H   0  0  0  0  0  0  0  0  0  0  0  0
   11.5263    4.1627    0.0000 H   0  0  0  0  0  0  0  0  0  0  0  0
   13.2791    0.8880    0.0000 H   0  0  0  0  0  0  0  0  0  0  0  0
    2.8660    4.1627    0.0000 H   0  0  0  0  0  0  0  0  0  0  0  0
    1.4631    1.7327    0.0000 H   0  0  0  0  0  0  0  0  0  0  0  0
   13.2791    4.1973    0.0000 H   0  0  0  0  0  0  0  0  0  0  0  0
    1.4631    3.3527    0.0000 H   0  0  0  0  0  0  0  0  0  0  0  0
   14.7281    1.7098    0.0000 H   0  0  0  0  0  0  0  0  0  0  0  0
   14.7281    3.3756    0.0000 H   0  0  0  0  0  0  0  0  0  0  0  0
    7.1962   -3.5773    0.0000 H   0  0  0  0  0  0  0  0  0  0  0  0
    5.4641   -3.5773    0.0000 H   0  0  0  0  0  0  0  0  0  0  0  0
    4.9272   -2.6473    0.0000 H   0  0  0  0  0  0  0  0  0  0  0  0
    7.7331   -2.6473    0.0000 H   0  0  0  0  0  0  0  0  0  0  0  0
  1 13  2  0  0  0  0
  2 14  2  0  0  0  0
  9  3  1  6  0  0  0
  3 14  1  0  0  0  0
  3 39  1  0  0  0  0
  4 13  1  0  0  0  0
  4 18  1  0  0  0  0
  4 45  1  0  0  0  0
 12  5  1  6  0  0  0
  5 46  1  0  0  0  0
  5 47  1  0  0  0  0
  6 16  1  0  0  0  0
  6 31  2  0  0  0  0
  7 31  1  0  0  0  0
  7 61  1  0  0  0  0
  7 62  1  0  0  0  0
  8 31  1  0  0  0  0
  8 60  1  0  0  0  0
  8 63  1  0  0  0  0
  9 10  1  0  0  0  0
  9 13  1  0  0  0  0
  9 34  1  0  0  0  0
 10 11  1  0  0  0  0
 10 35  1  0  0  0  0
 10 36  1  0  0  0  0
 11 16  1  0  0  0  0
 11 37  1  0  0  0  0
 11 38  1  0  0  0  0
 12 14  1  0  0  0  0
 12 15  1  0  0  0  0
 12 40  1  0  0  0  0
 15 17  1  0  0  0  0
 15 41  1  0  0  0  0
 15 42  1  0  0  0  0
 16 43  1  0  0  0  0
 16 44  1  0  0  0  0
 17 23  2  0  0  0  0
 17 24  1  0  0  0  0
 18 19  2  0  0  0  0
 18 21  1  0  0  0  0
 19 20  1  0  0  0  0
 19 48  1  0  0  0  0
 20 22  1  0  0  0  0
 20 26  2  0  0  0  0
 21 25  2  0  0  0  0
 21 49  1  0  0  0  0
 22 25  1  0  0  0  0
 22 29  2  0  0  0  0
 23 27  1  0  0  0  0
 23 50  1  0  0  0  0
 24 28  2  0  0  0  0
 24 51  1  0  0  0  0
 25 52  1  0  0  0  0
 26 32  1  0  0  0  0
 26 53  1  0  0  0  0
 27 30  2  0  0  0  0
 27 54  1  0  0  0  0
 28 30  1  0  0  0  0
 28 55  1  0  0  0  0
 29 33  1  0  0  0  0
 29 56  1  0  0  0  0
 30 57  1  0  0  0  0
 32 33  2  0  0  0  0
 32 58  1  0  0  0  0
 33 59  1  0  0  0  0
M  END
> <PUBCHEM_COMPOUND_CID>
443301

> <PUBCHEM_COMPOUND_CANONICALIZED>
1

> <PUBCHEM_CACTVS_COMPLEXITY>
659

> <PUBCHEM_CACTVS_HBOND_ACCEPTOR>
4

> <PUBCHEM_CACTVS_HBOND_DONOR>
5

> <PUBCHEM_CACTVS_ROTATABLE_BOND>
10

> <PUBCHEM_CACTVS_SUBSKEYS>
AAADceB7sAAAAAAAAAAAAAAAAAAAAAAAAAAwYMAAAAAAAADBVAAAHgAQAAAADCjBmAQxwMLAAACoAiVSdACCAAEhAgAIiIGIZIgIYDLAkbGUIAhglgDIyAcYiYCOiAAAQAAQAAAQAACAACAAAAAAAAAAAA==

> <PUBCHEM_IUPAC_OPENEYE_NAME>
(2S)-2-[[(2S)-2-amino-3-phenyl-propanoyl]amino]-5-guanidino-N-(2-naphthyl)pentanamide

> <PUBCHEM_IUPAC_CAS_NAME>
(2S)-2-[[(2S)-2-amino-1-oxo-3-phenylpropyl]amino]-5-(diaminomethylideneamino)-N-(2-naphthalenyl)pentanamide

> <PUBCHEM_IUPAC_NAME>
(2S)-2-[[(2S)-2-amino-3-phenylpropanoyl]amino]-5-(diaminomethylideneamino)-N-naphthalen-2-ylpentanamide

> <PUBCHEM_IUPAC_SYSTEMATIC_NAME>
(2S)-2-[[(2S)-2-azanyl-3-phenyl-propanoyl]amino]-5-[bis(azanyl)methylideneamino]-N-naphthalen-2-yl-pentanamide

> <PUBCHEM_IUPAC_TRADITIONAL_NAME>
(2S)-2-[[(2S)-2-amino-3-phenyl-propanoyl]amino]-5-guanidino-N-(2-naphthyl)valeramide

> <PUBCHEM_IUPAC_INCHI>
InChI=1S/C25H30N6O2/c26-21(15-17-7-2-1-3-8-17)23(32)31-22(11-6-14-29-25(27)28)24(33)30-20-13-12-18-9-4-5-10-19(18)16-20/h1-5,7-10,12-13,16,21-22H,6,11,14-15,26H2,(H,30,33)(H,31,32)(H4,27,28,29)/t21-,22-/m0/s1

> <PUBCHEM_IUPAC_INCHIKEY>
ZNHUFUZDUQRKBB-VXKWHMMOSA-N

> <PUBCHEM_XLOGP3_AA>
2

> <PUBCHEM_EXACT_MASS>
446.243024

> <PUBCHEM_MOLECULAR_FORMULA>
C25H30N6O2

> <PUBCHEM_MOLECULAR_WEIGHT>
446.5447

> <PUBCHEM_OPENEYE_CAN_SMILES>
C1=CC=C(C=C1)CC(C(=O)NC(CCCN=C(N)N)C(=O)NC2=CC3=CC=CC=C3C=C2)N

> <PUBCHEM_OPENEYE_ISO_SMILES>
C1=CC=C(C=C1)C[C@@H](C(=O)N[C@@H](CCCN=C(N)N)C(=O)NC2=CC3=CC=CC=C3C=C2)N

> <PUBCHEM_CACTVS_TPSA>
149

> <PUBCHEM_MONOISOTOPIC_WEIGHT>
446.243024

> <PUBCHEM_TOTAL_CHARGE>
0

> <PUBCHEM_HEAVY_ATOM_COUNT>
33

> <PUBCHEM_ATOM_DEF_STEREO_COUNT>
2

> <PUBCHEM_ATOM_UDEF_STEREO_COUNT>
0

> <PUBCHEM_BOND_DEF_STEREO_COUNT>
0

> <PUBCHEM_BOND_UDEF_STEREO_COUNT>
0

> <PUBCHEM_ISOTOPIC_ATOM_COUNT>
0

> <PUBCHEM_COMPONENT_COUNT>
1

> <PUBCHEM_CACTVS_TAUTO_COUNT>
12

> <PUBCHEM_COORDINATE_TYPE>
1
5
255

> <PUBCHEM_BONDANNOTATIONS>
17  23  8
17  24  8
18  19  8
18  21  8
19  20  8
20  22  8
20  26  8
21  25  8
22  25  8
22  29  8
23  27  8
24  28  8
26  32  8
27  30  8
28  30  8
29  33  8
9  3  6
32  33  8
12  5  6

$$$$

