   Color/Form

     * Lustrous needles
     * WHITE, CRYSTALLINE SOLID

   from [1]HSDB

   Boiling Point
        302-306 deg C
   from [2]HSDB

   Melting Point
        80-81 deg C
   from [3]HSDB

   Density/Specific Gravity
        1.1215 @ 87 deg C/4 deg C
   from [4]HSDB

   Octanol/Water Partition Coefficient
        log Kow= 3.28
   from [5]HSDB

   Solubilities

     * Practically insol in water; sol in hot alc, benzene, ether, glacial
       acetic acid
     * SOL IN ACETONE, CARBON TETRACHLORIDE, OTHER ORG SOLVENTS

   from [6]HSDB

   Spectral Properties

     * IR: 2247 (Coblentz Society Spectral Collection)
     * NMR: 1894 (Sadtler Research Laboratories Spectral Collection)
     * MASS: 1524 (Atlas of Mass Spectral Data, John Wiley & Sons, New
       York)
     * IR: 2:9106 (Aldrich Library of Infrared Spectra, Aldrich Chemical
       Co, Milwaukee, WI)
     * NMR: 7:41D (Aldrich Library of Mass Spectra, Aldrich Chemical Co,
       Milwaukee, WI)
     * MASS: 4490 (National Bureau of Standards EPA-NIH Mass Spectra Data
       Base, NSRDS-NBS-63)

   from [7]HSDB

   Other Chemical/Physical Properties
        CAN BE HALOGENATED & NITRATED IN CHARACTERISTIC MANNER; READILY
   UNDERGOES HYDROLYSIS & AMMONOLYSIS
   from [8]HSDB

   Computed Properties
   Molecular Weight                  214.2167 [g/mol]
   Molecular Formula                 C[13]H[10]O[3]
   XLogP3                            3.3
   H-Bond Donor                      0
   H-Bond Acceptor                   3
   Rotatable Bond Count              4
   Exact Mass                        214.062994
   MonoIsotopic Mass                 214.062994
   Topological Polar Surface Area    35.5
   Heavy Atom Count                  16
   Formal Charge                     0
   Complexity                        193
   Isotope Atom Count                0
   Defined Atom Stereocenter Count   0
   Undefined Atom Stereocenter Count 0
   Defined Bond Stereocenter Count   0
   Undefined Bond Stereocenter Count 0
   Covalently-Bonded Unit Count      1
   Feature 3D Ring Count             2
   Effective Rotor Count             4
   Conformer Sampling RMSD           0.6
   CID Conformer Count               [9]48

References

   1. http://toxnet.nlm.nih.gov/cgi-bin/sis/search/r?dbs+hsdb:@term+@rn+@rel+102-09-0
   2. http://toxnet.nlm.nih.gov/cgi-bin/sis/search/r?dbs+hsdb:@term+@rn+@rel+102-09-0
   3. http://toxnet.nlm.nih.gov/cgi-bin/sis/search/r?dbs+hsdb:@term+@rn+@rel+102-09-0
   4. http://toxnet.nlm.nih.gov/cgi-bin/sis/search/r?dbs+hsdb:@term+@rn+@rel+102-09-0
   5. http://toxnet.nlm.nih.gov/cgi-bin/sis/search/r?dbs+hsdb:@term+@rn+@rel+102-09-0
   6. http://toxnet.nlm.nih.gov/cgi-bin/sis/search/r?dbs+hsdb:@term+@rn+@rel+102-09-0
   7. http://toxnet.nlm.nih.gov/cgi-bin/sis/search/r?dbs+hsdb:@term+@rn+@rel+102-09-0
   8. http://toxnet.nlm.nih.gov/cgi-bin/sis/search/r?dbs+hsdb:@term+@rn+@rel+102-09-0
   9. http://pubchem.ncbi.nlm.nih.gov/vw3d/vw3d.cgi?cid=7597
