235463
  -OEChem-07051213062D

 58 62  0     1  0  0  0  0  0999 V2000
    9.4825    2.0719    0.0000 O   0  0  0  0  0  0  0  0  0  0  0  0
    2.8325   -2.2357    0.0000 O   0  0  0  0  0  0  0  0  0  0  0  0
    2.8833    2.8557    0.0000 O   0  0  0  0  0  0  0  0  0  0  0  0
    2.8602    0.8558    0.0000 N   0  0  0  0  0  0  0  0  0  0  0  0
    8.2256   -0.1834    0.0000 C   0  0  2  0  0  0  0  0  0  0  0  0
    8.2256    0.8166    0.0000 C   0  0  2  0  0  0  0  0  0  0  0  0
    7.3596   -0.6834    0.0000 C   0  0  1  0  0  0  0  0  0  0  0  0
    6.4935   -0.1834    0.0000 C   0  0  2  0  0  0  0  0  0  0  0  0
    7.3596    1.3166    0.0000 C   0  0  0  0  0  0  0  0  0  0  0  0
    9.1718   -0.4881    0.0000 C   0  0  0  0  0  0  0  0  0  0  0  0
    6.4935    0.8166    0.0000 C   0  0  0  0  0  0  0  0  0  0  0  0
    7.3756   -1.7249    0.0000 C   0  0  0  0  0  0  0  0  0  0  0  0
    9.1718    1.1214    0.0000 C   0  0  0  0  0  0  0  0  0  0  0  0
    9.7554    0.3166    0.0000 C   0  0  0  0  0  0  0  0  0  0  0  0
    5.5835   -0.6902    0.0000 C   0  0  0  0  0  0  0  0  0  0  0  0
    8.2256    1.8166    0.0000 C   0  0  0  0  0  0  0  0  0  0  0  0
    6.4776   -2.2526    0.0000 C   0  0  0  0  0  0  0  0  0  0  0  0
    5.5755   -1.7318    0.0000 C   0  0  0  0  0  0  0  0  0  0  0  0
    4.6567   -0.1261    0.0000 C   0  0  0  0  0  0  0  0  0  0  0  0
    4.6401   -2.2815    0.0000 C   0  0  0  0  0  0  0  0  0  0  0  0
    3.7088   -0.6541    0.0000 C   0  0  0  0  0  0  0  0  0  0  0  0
    3.7004   -1.7390    0.0000 C   0  0  0  0  0  0  0  0  0  0  0  0
    2.8486   -0.1441    0.0000 C   0  0  0  0  0  0  0  0  0  0  0  0
    2.0000    1.3658    0.0000 C   0  0  0  0  0  0  0  0  0  0  0  0
    3.7319    1.3458    0.0000 C   0  0  0  0  0  0  0  0  0  0  0  0
    2.0116    2.3657    0.0000 C   0  0  0  0  0  0  0  0  0  0  0  0
    3.7435    2.3457    0.0000 C   0  0  0  0  0  0  0  0  0  0  0  0
    8.3155   -1.0286    0.0000 H   0  0  0  0  0  0  0  0  0  0  0  0
    8.0989   -1.1027    0.0000 H   0  0  0  0  0  0  0  0  0  0  0  0
    7.2296    0.2416    0.0000 H   0  0  0  0  0  0  0  0  0  0  0  0
    7.7581    1.7916    0.0000 H   0  0  0  0  0  0  0  0  0  0  0  0
    6.9610    1.7916    0.0000 H   0  0  0  0  0  0  0  0  0  0  0  0
    8.9208   -1.0550    0.0000 H   0  0  0  0  0  0  0  0  0  0  0  0
    9.7092   -0.7973    0.0000 H   0  0  0  0  0  0  0  0  0  0  0  0
    6.2815    1.3992    0.0000 H   0  0  0  0  0  0  0  0  0  0  0  0
    5.8830    0.7090    0.0000 H   0  0  0  0  0  0  0  0  0  0  0  0
    7.5936   -2.3053    0.0000 H   0  0  0  0  0  0  0  0  0  0  0  0
    7.9848   -1.6094    0.0000 H   0  0  0  0  0  0  0  0  0  0  0  0
   10.2163   -0.0981    0.0000 H   0  0  0  0  0  0  0  0  0  0  0  0
   10.2163    0.7314    0.0000 H   0  0  0  0  0  0  0  0  0  0  0  0
    8.8456    1.8166    0.0000 H   0  0  0  0  0  0  0  0  0  0  0  0
    8.2256    2.4366    0.0000 H   0  0  0  0  0  0  0  0  0  0  0  0
    7.6056    1.8166    0.0000 H   0  0  0  0  0  0  0  0  0  0  0  0
    6.0803   -2.7286    0.0000 H   0  0  0  0  0  0  0  0  0  0  0  0
    6.8785   -2.7255    0.0000 H   0  0  0  0  0  0  0  0  0  0  0  0
    4.6686    0.4937    0.0000 H   0  0  0  0  0  0  0  0  0  0  0  0
    4.6425   -2.9015    0.0000 H   0  0  0  0  0  0  0  0  0  0  0  0
    2.2393   -0.0294    0.0000 H   0  0  0  0  0  0  0  0  0  0  0  0
    2.6298   -0.7242    0.0000 H   0  0  0  0  0  0  0  0  0  0  0  0
    2.8301   -2.8557    0.0000 H   0  0  0  0  0  0  0  0  0  0  0  0
    3.9372    0.7608    0.0000 H   0  0  0  0  0  0  0  0  0  0  0  0
    4.3437    1.4464    0.0000 H   0  0  0  0  0  0  0  0  0  0  0  0
    1.3907    1.4805    0.0000 H   0  0  0  0  0  0  0  0  0  0  0  0
    1.7812    0.7857    0.0000 H   0  0  0  0  0  0  0  0  0  0  0  0
    4.3528    2.2310    0.0000 H   0  0  0  0  0  0  0  0  0  0  0  0
    3.9623    2.9258    0.0000 H   0  0  0  0  0  0  0  0  0  0  0  0
    1.8063    2.9508    0.0000 H   0  0  0  0  0  0  0  0  0  0  0  0
    1.3998    2.2652    0.0000 H   0  0  0  0  0  0  0  0  0  0  0  0
  1 13  2  0  0  0  0
  2 22  1  0  0  0  0
  2 50  1  0  0  0  0
  3 26  1  0  0  0  0
  3 27  1  0  0  0  0
  4 23  1  0  0  0  0
  4 24  1  0  0  0  0
  4 25  1  0  0  0  0
  5  6  1  0  0  0  0
  5  7  1  0  0  0  0
  5 10  1  0  0  0  0
  5 28  1  6  0  0  0
  6  9  1  0  0  0  0
  6 13  1  0  0  0  0
  6 16  1  1  0  0  0
  7  8  1  0  0  0  0
  7 12  1  0  0  0  0
  7 29  1  1  0  0  0
  8 11  1  0  0  0  0
  8 15  1  0  0  0  0
  8 30  1  6  0  0  0
  9 11  1  0  0  0  0
  9 31  1  0  0  0  0
  9 32  1  0  0  0  0
 10 14  1  0  0  0  0
 10 33  1  0  0  0  0
 10 34  1  0  0  0  0
 11 35  1  0  0  0  0
 11 36  1  0  0  0  0
 12 17  1  0  0  0  0
 12 37  1  0  0  0  0
 12 38  1  0  0  0  0
 13 14  1  0  0  0  0
 14 39  1  0  0  0  0
 14 40  1  0  0  0  0
 15 18  1  0  0  0  0
 15 19  2  0  0  0  0
 16 41  1  0  0  0  0
 16 42  1  0  0  0  0
 16 43  1  0  0  0  0
 17 18  1  0  0  0  0
 17 44  1  0  0  0  0
 17 45  1  0  0  0  0
 18 20  2  0  0  0  0
 19 21  1  0  0  0  0
 19 46  1  0  0  0  0
 20 22  1  0  0  0  0
 20 47  1  0  0  0  0
 21 22  2  0  0  0  0
 21 23  1  0  0  0  0
 23 48  1  0  0  0  0
 23 49  1  0  0  0  0
 24 26  1  0  0  0  0
 24 53  1  0  0  0  0
 24 54  1  0  0  0  0
 25 27  1  0  0  0  0
 25 51  1  0  0  0  0
 25 52  1  0  0  0  0
 26 57  1  0  0  0  0
 26 58  1  0  0  0  0
 27 55  1  0  0  0  0
 27 56  1  0  0  0  0
M  END
> <PUBCHEM_COMPOUND_CID>
235463

> <PUBCHEM_COMPOUND_CANONICALIZED>
1

> <PUBCHEM_CACTVS_COMPLEXITY>
574

> <PUBCHEM_CACTVS_HBOND_ACCEPTOR>
4

> <PUBCHEM_CACTVS_HBOND_DONOR>
1

> <PUBCHEM_CACTVS_ROTATABLE_BOND>
2

> <PUBCHEM_CACTVS_SUBSKEYS>
AAADceB6MAAAAAAAAAAAAAAAAAAAAYAAAAA8YMEAAAAAAGDBAAAAHgAACAAADwThmAYyBoMABgCIAqBSAACCAAAgIAAAiAEODIgKJjKCkROHcAhmwBGYmAeYyPCP4AADAAAYAADAAAYAADAAAAAACAAAAA==

> <PUBCHEM_IUPAC_OPENEYE_NAME>
(8R,9S,13S,14S)-3-hydroxy-13-methyl-2-(morpholinomethyl)-7,8,9,11,12,14,15,16-octahydro-6H-cyclopenta[a]phenanthren-17-one

> <PUBCHEM_IUPAC_CAS_NAME>
(8R,9S,13S,14S)-3-hydroxy-13-methyl-2-(4-morpholinylmethyl)-7,8,9,11,12,14,15,16-octahydro-6H-cyclopenta[a]phenanthren-17-one

> <PUBCHEM_IUPAC_NAME>
(8R,9S,13S,14S)-3-hydroxy-13-methyl-2-(morpholin-4-ylmethyl)-7,8,9,11,12,14,15,16-octahydro-6H-cyclopenta[a]phenanthren-17-one

> <PUBCHEM_IUPAC_SYSTEMATIC_NAME>
(8R,9S,13S,14S)-13-methyl-2-(morpholin-4-ylmethyl)-3-oxidanyl-7,8,9,11,12,14,15,16-octahydro-6H-cyclopenta[a]phenanthren-17-one

> <PUBCHEM_IUPAC_TRADITIONAL_NAME>
(8R,9S,13S,14S)-3-hydroxy-13-methyl-2-(morpholinomethyl)-7,8,9,11,12,14,15,16-octahydro-6H-cyclopenta[a]phenanthren-17-one

> <PUBCHEM_IUPAC_INCHI>
InChI=1S/C23H31NO3/c1-23-7-6-17-18(20(23)4-5-22(23)26)3-2-15-13-21(25)16(12-19(15)17)14-24-8-10-27-11-9-24/h12-13,17-18,20,25H,2-11,14H2,1H3/t17-,18+,20-,23-/m0/s1

> <PUBCHEM_IUPAC_INCHIKEY>
FJWJRQPFLAFCSE-KQZHTCIUSA-N

> <PUBCHEM_XLOGP3>
2.6

> <PUBCHEM_EXACT_MASS>
369.230394

> <PUBCHEM_MOLECULAR_FORMULA>
C23H31NO3

> <PUBCHEM_MOLECULAR_WEIGHT>
369.49714

> <PUBCHEM_OPENEYE_CAN_SMILES>
CC12CCC3C(C1CCC2=O)CCC4=CC(=C(C=C34)CN5CCOCC5)O

> <PUBCHEM_OPENEYE_ISO_SMILES>
C[C@]12CC[C@H]3[C@H]([C@@H]1CCC2=O)CCC4=CC(=C(C=C34)CN5CCOCC5)O

> <PUBCHEM_CACTVS_TPSA>
49.8

> <PUBCHEM_MONOISOTOPIC_WEIGHT>
369.230394

> <PUBCHEM_TOTAL_CHARGE>
0

> <PUBCHEM_HEAVY_ATOM_COUNT>
27

> <PUBCHEM_ATOM_DEF_STEREO_COUNT>
4

> <PUBCHEM_ATOM_UDEF_STEREO_COUNT>
0

> <PUBCHEM_BOND_DEF_STEREO_COUNT>
0

> <PUBCHEM_BOND_UDEF_STEREO_COUNT>
0

> <PUBCHEM_ISOTOPIC_ATOM_COUNT>
0

> <PUBCHEM_COMPONENT_COUNT>
1

> <PUBCHEM_CACTVS_TAUTO_COUNT>
18

> <PUBCHEM_COORDINATE_TYPE>
1
5
255

> <PUBCHEM_BONDANNOTATIONS>
15  18  8
15  19  8
18  20  8
19  21  8
20  22  8
21  22  8
5  28  6
6  16  5
7  29  5
8  30  6

$$$$

