10677
  -OEChem-06261204502D

 22 23  0     0  0  0  0  0  0999 V2000
    7.7436   -2.2723    0.0000 O   0  5  0  0  0  0  0  0  0  0  0  0
    6.0117   -2.2523    0.0000 O   0  0  0  0  0  0  0  0  0  0  0  0
    2.5369    0.7723    0.0000 O   0  0  0  0  0  0  0  0  0  0  0  0
    3.4030    2.2723    0.0000 O   0  0  0  0  0  0  0  0  0  0  0  0
    5.1350    1.2723    0.0000 N   0  0  0  0  0  0  0  0  0  0  0  0
    6.8834   -1.7623    0.0000 N   0  3  0  0  0  0  0  0  0  0  0  0
    6.0010   -0.2277    0.0000 C   0  0  0  0  0  0  0  0  0  0  0  0
    6.0010    0.7723    0.0000 C   0  0  0  0  0  0  0  0  0  0  0  0
    6.8950   -0.7624    0.0000 C   0  0  0  0  0  0  0  0  0  0  0  0
    5.1350   -0.7277    0.0000 C   0  0  0  0  0  0  0  0  0  0  0  0
    6.8950    1.3070    0.0000 C   0  0  0  0  0  0  0  0  0  0  0  0
    7.8010   -0.2485    0.0000 C   0  0  0  0  0  0  0  0  0  0  0  0
    4.2690   -0.2277    0.0000 C   0  0  0  0  0  0  0  0  0  0  0  0
    4.2690    0.7723    0.0000 C   0  0  0  0  0  0  0  0  0  0  0  0
    7.8010    0.7931    0.0000 C   0  0  0  0  0  0  0  0  0  0  0  0
    3.4030    1.2723    0.0000 C   0  0  0  0  0  0  0  0  0  0  0  0
    5.1350   -1.3477    0.0000 H   0  0  0  0  0  0  0  0  0  0  0  0
    6.8878    1.9269    0.0000 H   0  0  0  0  0  0  0  0  0  0  0  0
    8.3368   -0.5606    0.0000 H   0  0  0  0  0  0  0  0  0  0  0  0
    3.7320   -0.5377    0.0000 H   0  0  0  0  0  0  0  0  0  0  0  0
    8.3368    1.1052    0.0000 H   0  0  0  0  0  0  0  0  0  0  0  0
    2.0000    1.0823    0.0000 H   0  0  0  0  0  0  0  0  0  0  0  0
  1  6  1  0  0  0  0
  2  6  2  0  0  0  0
  3 16  1  0  0  0  0
  3 22  1  0  0  0  0
  4 16  2  0  0  0  0
  5  8  1  0  0  0  0
  5 14  2  0  0  0  0
  6  9  1  0  0  0  0
  7  8  2  0  0  0  0
  7  9  1  0  0  0  0
  7 10  1  0  0  0  0
  8 11  1  0  0  0  0
  9 12  2  0  0  0  0
 10 13  2  0  0  0  0
 10 17  1  0  0  0  0
 11 15  2  0  0  0  0
 11 18  1  0  0  0  0
 12 15  1  0  0  0  0
 12 19  1  0  0  0  0
 13 14  1  0  0  0  0
 13 20  1  0  0  0  0
 14 16  1  0  0  0  0
 15 21  1  0  0  0  0
M  CHG  2   1  -1   6   1
M  END
> <PUBCHEM_COMPOUND_CID>
10677

> <PUBCHEM_COMPOUND_CANONICALIZED>
1

> <PUBCHEM_CACTVS_COMPLEXITY>
302

> <PUBCHEM_CACTVS_HBOND_ACCEPTOR>
5

> <PUBCHEM_CACTVS_HBOND_DONOR>
1

> <PUBCHEM_CACTVS_ROTATABLE_BOND>
1

> <PUBCHEM_CACTVS_SUBSKEYS>
AAADcYBzOAAAAAAAAAAAAAAAAAAAAAAAAAA8QAAAAAAAAACx8AAAHgAECAAADAiBngAwyPIYUgCpAyTyTwSCgCAnAiAomCGwbNoKJvLA1fGEdQhkwAHY2YeYyLCOAAAAAAQCAAAAAAAACAQAAAAAAAAAAA==

> <PUBCHEM_IUPAC_OPENEYE_NAME>
5-nitroquinoline-2-carboxylic acid

> <PUBCHEM_IUPAC_CAS_NAME>
5-nitro-2-quinolinecarboxylic acid

> <PUBCHEM_IUPAC_NAME>
5-nitroquinoline-2-carboxylic acid

> <PUBCHEM_IUPAC_SYSTEMATIC_NAME>
5-nitroquinoline-2-carboxylic acid

> <PUBCHEM_IUPAC_TRADITIONAL_NAME>
5-nitroquinaldic acid

> <PUBCHEM_IUPAC_INCHI>
InChI=1S/C10H6N2O4/c13-10(14)8-5-4-6-7(11-8)2-1-3-9(6)12(15)16/h1-5H,(H,13,14)

> <PUBCHEM_IUPAC_INCHIKEY>
PHELEJSJZGCLEJ-UHFFFAOYSA-N

> <PUBCHEM_XLOGP3>
1.7

> <PUBCHEM_EXACT_MASS>
218.032757

> <PUBCHEM_MOLECULAR_FORMULA>
C10H6N2O4

> <PUBCHEM_MOLECULAR_WEIGHT>
218.16564

> <PUBCHEM_OPENEYE_CAN_SMILES>
C1=CC2=C(C=CC(=N2)C(=O)O)C(=C1)[N+](=O)[O-]

> <PUBCHEM_OPENEYE_ISO_SMILES>
C1=CC2=C(C=CC(=N2)C(=O)O)C(=C1)[N+](=O)[O-]

> <PUBCHEM_CACTVS_TPSA>
96

> <PUBCHEM_MONOISOTOPIC_WEIGHT>
218.032757

> <PUBCHEM_TOTAL_CHARGE>
0

> <PUBCHEM_HEAVY_ATOM_COUNT>
16

> <PUBCHEM_ATOM_DEF_STEREO_COUNT>
0

> <PUBCHEM_ATOM_UDEF_STEREO_COUNT>
0

> <PUBCHEM_BOND_DEF_STEREO_COUNT>
0

> <PUBCHEM_BOND_UDEF_STEREO_COUNT>
0

> <PUBCHEM_ISOTOPIC_ATOM_COUNT>
0

> <PUBCHEM_COMPONENT_COUNT>
1

> <PUBCHEM_CACTVS_TAUTO_COUNT>
1

> <PUBCHEM_COORDINATE_TYPE>
1
5
255

> <PUBCHEM_BONDANNOTATIONS>
10  13  8
11  15  8
12  15  8
13  14  8
5  14  8
5  8  8
7  10  8
7  8  8
7  9  8
8  11  8
9  12  8

$$$$

