439898
  -OEChem-07051212482D

 34 35  0     1  0  0  0  0  0999 V2000
    5.4641    0.2010    0.0000 O   0  0  0  0  0  0  0  0  0  0  0  0
    2.0000    0.2010    0.0000 O   0  0  0  0  0  0  0  0  0  0  0  0
    2.0000   -1.7990    0.0000 O   0  0  0  0  0  0  0  0  0  0  0  0
    3.7320   -2.7990    0.0000 O   0  0  0  0  0  0  0  0  0  0  0  0
    4.5981   -1.2990    0.0000 N   0  0  0  0  0  0  0  0  0  0  0  0
    2.8660   -1.2990    0.0000 N   0  0  0  0  0  0  0  0  0  0  0  0
    3.7320    0.2010    0.0000 C   0  0  3  0  0  0  0  0  0  0  0  0
    4.2320    1.0670    0.0000 C   0  0  0  0  0  0  0  0  0  0  0  0
    5.2320    1.0670    0.0000 C   0  0  0  0  0  0  0  0  0  0  0  0
    5.7320    1.9330    0.0000 C   0  0  0  0  0  0  0  0  0  0  0  0
    5.2320    2.7990    0.0000 C   0  0  0  0  0  0  0  0  0  0  0  0
    4.2320    2.7990    0.0000 C   0  0  0  0  0  0  0  0  0  0  0  0
    3.7320    1.9330    0.0000 C   0  0  0  0  0  0  0  0  0  0  0  0
    4.5981   -0.2990    0.0000 C   0  0  0  0  0  0  0  0  0  0  0  0
    3.2320    1.0670    0.0000 C   0  0  0  0  0  0  0  0  0  0  0  0
    2.8660   -0.2990    0.0000 C   0  0  0  0  0  0  0  0  0  0  0  0
    3.7320   -1.7990    0.0000 C   0  0  0  0  0  0  0  0  0  0  0  0
    5.4641   -1.7990    0.0000 C   0  0  0  0  0  0  0  0  0  0  0  0
    5.1244    0.4564    0.0000 H   0  0  0  0  0  0  0  0  0  0  0  0
    5.8147    0.8549    0.0000 H   0  0  0  0  0  0  0  0  0  0  0  0
    6.2070    1.5345    0.0000 H   0  0  0  0  0  0  0  0  0  0  0  0
    6.2070    2.3315    0.0000 H   0  0  0  0  0  0  0  0  0  0  0  0
    5.8147    3.0111    0.0000 H   0  0  0  0  0  0  0  0  0  0  0  0
    5.1244    3.4096    0.0000 H   0  0  0  0  0  0  0  0  0  0  0  0
    4.3397    3.4096    0.0000 H   0  0  0  0  0  0  0  0  0  0  0  0
    3.6494    3.0111    0.0000 H   0  0  0  0  0  0  0  0  0  0  0  0
    3.1120    1.9330    0.0000 H   0  0  0  0  0  0  0  0  0  0  0  0
    3.7690    1.3770    0.0000 H   0  0  0  0  0  0  0  0  0  0  0  0
    2.9220    1.6039    0.0000 H   0  0  0  0  0  0  0  0  0  0  0  0
    2.6951    0.7570    0.0000 H   0  0  0  0  0  0  0  0  0  0  0  0
    5.1541   -2.3360    0.0000 H   0  0  0  0  0  0  0  0  0  0  0  0
    6.0010   -2.1090    0.0000 H   0  0  0  0  0  0  0  0  0  0  0  0
    5.7741   -1.2621    0.0000 H   0  0  0  0  0  0  0  0  0  0  0  0
    2.0000   -2.4190    0.0000 H   0  0  0  0  0  0  0  0  0  0  0  0
  1 14  2  0  0  0  0
  2 16  2  0  0  0  0
  3  6  1  0  0  0  0
  3 34  1  0  0  0  0
  4 17  2  0  0  0  0
  5 14  1  0  0  0  0
  5 17  1  0  0  0  0
  5 18  1  0  0  0  0
  6 16  1  0  0  0  0
  6 17  1  0  0  0  0
  7  8  1  0  0  0  0
  7 14  1  0  0  0  0
  7 15  1  0  0  0  0
  7 16  1  0  0  0  0
  8  9  1  0  0  0  0
  8 13  2  0  0  0  0
  9 10  1  0  0  0  0
  9 19  1  0  0  0  0
  9 20  1  0  0  0  0
 10 11  1  0  0  0  0
 10 21  1  0  0  0  0
 10 22  1  0  0  0  0
 11 12  1  0  0  0  0
 11 23  1  0  0  0  0
 11 24  1  0  0  0  0
 12 13  1  0  0  0  0
 12 25  1  0  0  0  0
 12 26  1  0  0  0  0
 13 27  1  0  0  0  0
 15 28  1  0  0  0  0
 15 29  1  0  0  0  0
 15 30  1  0  0  0  0
 18 31  1  0  0  0  0
 18 32  1  0  0  0  0
 18 33  1  0  0  0  0
M  END
> <PUBCHEM_COMPOUND_CID>
439898

> <PUBCHEM_COMPOUND_CANONICALIZED>
1

> <PUBCHEM_CACTVS_COMPLEXITY>
457

> <PUBCHEM_CACTVS_HBOND_ACCEPTOR>
4

> <PUBCHEM_CACTVS_HBOND_DONOR>
1

> <PUBCHEM_CACTVS_ROTATABLE_BOND>
1

> <PUBCHEM_CACTVS_SUBSKEYS>
AAADceBzOAAAAAAAAAAAAAAAAAAAAAAAAAAsQAAAAAAAAAAAAAAAHgAECAAADgCBgAQDAAMQAACIAiFSEAAAAAAgAAAgCAEIAAiAABoIwQAEAAAIhyIIAAMYiMCNAAAAAAAAAAAAAAAAAAAAAAAAAAAAAA==

> <PUBCHEM_IUPAC_OPENEYE_NAME>
5-(cyclohexen-1-yl)-1-hydroxy-3,5-dimethyl-hexahydropyrimidine-2,4,6-trione

> <PUBCHEM_IUPAC_CAS_NAME>
5-(1-cyclohexenyl)-1-hydroxy-3,5-dimethyl-1,3-diazinane-2,4,6-trione

> <PUBCHEM_IUPAC_NAME>
5-(cyclohexen-1-yl)-1-hydroxy-3,5-dimethyl-1,3-diazinane-2,4,6-trione

> <PUBCHEM_IUPAC_SYSTEMATIC_NAME>
5-(cyclohexen-1-yl)-1,5-dimethyl-3-oxidanyl-1,3-diazinane-2,4,6-trione

> <PUBCHEM_IUPAC_TRADITIONAL_NAME>
5-(cyclohexen-1-yl)-1-hydroxy-3,5-dimethyl-barbituric acid

> <PUBCHEM_IUPAC_INCHI>
InChI=1S/C12H16N2O4/c1-12(8-6-4-3-5-7-8)9(15)13(2)11(17)14(18)10(12)16/h6,18H,3-5,7H2,1-2H3

> <PUBCHEM_IUPAC_INCHIKEY>
CQIGOIONTHSZEA-UHFFFAOYSA-N

> <PUBCHEM_XLOGP3>
1.2

> <PUBCHEM_EXACT_MASS>
252.111007

> <PUBCHEM_MOLECULAR_FORMULA>
C12H16N2O4

> <PUBCHEM_MOLECULAR_WEIGHT>
252.26644

> <PUBCHEM_OPENEYE_CAN_SMILES>
CC1(C(=O)N(C(=O)N(C1=O)O)C)C2=CCCCC2

> <PUBCHEM_OPENEYE_ISO_SMILES>
CC1(C(=O)N(C(=O)N(C1=O)O)C)C2=CCCCC2

> <PUBCHEM_CACTVS_TPSA>
77.9

> <PUBCHEM_MONOISOTOPIC_WEIGHT>
252.111007

> <PUBCHEM_TOTAL_CHARGE>
0

> <PUBCHEM_HEAVY_ATOM_COUNT>
18

> <PUBCHEM_ATOM_DEF_STEREO_COUNT>
0

> <PUBCHEM_ATOM_UDEF_STEREO_COUNT>
1

> <PUBCHEM_BOND_DEF_STEREO_COUNT>
0

> <PUBCHEM_BOND_UDEF_STEREO_COUNT>
0

> <PUBCHEM_ISOTOPIC_ATOM_COUNT>
0

> <PUBCHEM_COMPONENT_COUNT>
1

> <PUBCHEM_CACTVS_TAUTO_COUNT>
1

> <PUBCHEM_COORDINATE_TYPE>
1
5
255

> <PUBCHEM_BONDANNOTATIONS>
7  15  3

$$$$

