   Color/Form
        White crystals
   from [1]HSDB

   Melting Point
        172.9 deg C
   from [2]HSDB

   Dissociation Constants
        pKa = 8.13 (tertiary cyclohexane nitrogen) (est)
   from [3]HSDB

   Octanol/Water Partition Coefficient
        log Kow = 6.43 (est)
   from [4]HSDB

   Solubilities

     * Freely soluble in organic solvents.
     * In water, 4.3X10-2 mg/L at 25 deg C (est)

   from [5]HSDB

   Spectral Properties
        UV max: (ethanol) 219, 249, 286 (epsilon 27250.229, 6480.293,
   8634.280); (0.1 N HCl): 209, 277 nm (epsilon 57889.908, 18073.394)
   from [6]HSDB

   Vapor Pressure
        1.5X10-12 mm Hg at 25 deg C (est)
   from [7]HSDB

   Other Chemical/Physical Properties

     * Henry's Law constant = 1.9X10-15 atm-cu m/mol at 25 deg C (est)
     * Hydroxyl radical reaction rate constant = 3.6X10-10 cu
       cm/molecule-sec at 25 deg C (est)

   from [8]HSDB

   Computed Properties
   Molecular Weight                  458.570343 [g/mol]
   Molecular Formula                 C[28]H[31]FN[4]O
   XLogP3-AA                         6
   H-Bond Donor                      1
   H-Bond Acceptor                   5
   Rotatable Bond Count              8
   Tautomer Count                    2
   Exact Mass                        458.24819
   MonoIsotopic Mass                 458.24819
   Topological Polar Surface Area    42.3
   Heavy Atom Count                  34
   Formal Charge                     0
   Complexity                        599
   Isotope Atom Count                0
   Defined Atom Stereocenter Count   0
   Undefined Atom Stereocenter Count 0
   Defined Bond Stereocenter Count   0
   Undefined Bond Stereocenter Count 0
   Covalently-Bonded Unit Count      1
   Feature 3D Acceptor Count         1
   Feature 3D Donor Count            1
   Feature 3D Cation Count           2
   Feature 3D Ring Count             5
   Effective Rotor Count             9.2
   Conformer Sampling RMSD           1
   CID Conformer Count               [9]445

References

   1. http://toxnet.nlm.nih.gov/cgi-bin/sis/search/r?dbs+hsdb:@term+@rn+@rel+68844-77-9
   2. http://toxnet.nlm.nih.gov/cgi-bin/sis/search/r?dbs+hsdb:@term+@rn+@rel+68844-77-9
   3. http://toxnet.nlm.nih.gov/cgi-bin/sis/search/r?dbs+hsdb:@term+@rn+@rel+68844-77-9
   4. http://toxnet.nlm.nih.gov/cgi-bin/sis/search/r?dbs+hsdb:@term+@rn+@rel+68844-77-9
   5. http://toxnet.nlm.nih.gov/cgi-bin/sis/search/r?dbs+hsdb:@term+@rn+@rel+68844-77-9
   6. http://toxnet.nlm.nih.gov/cgi-bin/sis/search/r?dbs+hsdb:@term+@rn+@rel+68844-77-9
   7. http://toxnet.nlm.nih.gov/cgi-bin/sis/search/r?dbs+hsdb:@term+@rn+@rel+68844-77-9
   8. http://toxnet.nlm.nih.gov/cgi-bin/sis/search/r?dbs+hsdb:@term+@rn+@rel+68844-77-9
   9. http://pubchem.ncbi.nlm.nih.gov/vw3d/vw3d.cgi?cid=2247
