   Color/Form
        YELLOW NEEDLES
   from [1]HSDB

   Melting Point
        108 DEG C
   from [2]HSDB

   Dissociation Constants
        pKa: 3.24
   from [3]HSDB

   Octanol/Water Partition Coefficient
        log Kow= 4.607
   from [4]HSDB

   Solubilities
        Very slightly sol in water; sol in benzene and acetone
   from [5]HSDB

   Spectral Properties
        Max absorption (in cyclohexane): 204, 219, 222, 232, 266, 273,
   284, 315, 330, 338, 346, 355, 364, 374 & 383
   from [6]HSDB

   Other Chemical/Physical Properties
        The heterocyclic nitrogen atom reacts with halogen & alkyl
   sulfates to form quaternary acridinium salts.
   from [7]HSDB

   Computed Properties
   Molecular Weight                  229.27594 [g/mol]
   Molecular Formula                 C[17]H[11]N
   XLogP3-AA                         4.8
   H-Bond Donor                      0
   H-Bond Acceptor                   1
   Rotatable Bond Count              0
   Exact Mass                        229.089149
   MonoIsotopic Mass                 229.089149
   Topological Polar Surface Area    12.9
   Heavy Atom Count                  18
   Formal Charge                     0
   Complexity                        300
   Isotope Atom Count                0
   Defined Atom Stereocenter Count   0
   Undefined Atom Stereocenter Count 0
   Defined Bond Stereocenter Count   0
   Undefined Bond Stereocenter Count 0
   Covalently-Bonded Unit Count      1
   Feature 3D Acceptor Count         1
   Feature 3D Ring Count             4
   Effective Rotor Count             0
   Conformer Sampling RMSD           0.4
   CID Conformer Count               [8]1

References

   1. http://toxnet.nlm.nih.gov/cgi-bin/sis/search/r?dbs+hsdb:@term+@rn+@rel+225-51-4
   2. http://toxnet.nlm.nih.gov/cgi-bin/sis/search/r?dbs+hsdb:@term+@rn+@rel+225-51-4
   3. http://toxnet.nlm.nih.gov/cgi-bin/sis/search/r?dbs+hsdb:@term+@rn+@rel+225-51-4
   4. http://toxnet.nlm.nih.gov/cgi-bin/sis/search/r?dbs+hsdb:@term+@rn+@rel+225-51-4
   5. http://toxnet.nlm.nih.gov/cgi-bin/sis/search/r?dbs+hsdb:@term+@rn+@rel+225-51-4
   6. http://toxnet.nlm.nih.gov/cgi-bin/sis/search/r?dbs+hsdb:@term+@rn+@rel+225-51-4
   7. http://toxnet.nlm.nih.gov/cgi-bin/sis/search/r?dbs+hsdb:@term+@rn+@rel+225-51-4
   8. http://pubchem.ncbi.nlm.nih.gov/vw3d/vw3d.cgi?cid=9181
