17396051
  -OEChem-06241222542D

 62 63  0     0  0  0  0  0  0999 V2000
    3.2152    0.8153    0.0000 S   0  0  0  0  0  0  0  0  0  0  0  0
    7.0827    5.8950    0.0000 O   0  0  0  0  0  0  0  0  0  0  0  0
    6.7582   11.5901    0.0000 O   0  0  0  0  0  0  0  0  0  0  0  0
    4.1601   12.0901    0.0000 O   0  0  0  0  0  0  0  0  0  0  0  0
    5.8921   13.0901    0.0000 O   0  0  0  0  0  0  0  0  0  0  0  0
    5.0261   10.5901    0.0000 O   0  0  0  0  0  0  0  0  0  0  0  0
    4.5044    3.5815    0.0000 N   0  0  0  0  0  0  0  0  0  0  0  0
    6.4614    3.9939    0.0000 N   0  0  0  0  0  0  0  0  0  0  0  0
    8.7291    5.3569    0.0000 N   0  0  0  0  0  0  0  0  0  0  0  0
    4.8150    4.5320    0.0000 C   0  0  0  0  0  0  0  0  0  0  0  0
    5.1722    2.8372    0.0000 C   0  0  0  0  0  0  0  0  0  0  0  0
    5.7935    4.7382    0.0000 C   0  0  0  0  0  0  0  0  0  0  0  0
    6.1507    3.0434    0.0000 C   0  0  0  0  0  0  0  0  0  0  0  0
    3.5259    3.3752    0.0000 C   0  0  0  0  0  0  0  0  0  0  0  0
    7.4399    4.2001    0.0000 C   0  0  0  0  0  0  0  0  0  0  0  0
    3.2152    2.4247    0.0000 C   0  0  0  0  0  0  0  0  0  0  0  0
    7.7506    5.1506    0.0000 C   0  0  0  0  0  0  0  0  0  0  0  0
    9.0397    6.3074    0.0000 C   0  0  0  0  0  0  0  0  0  0  0  0
    2.2690    2.1200    0.0000 C   0  0  0  0  0  0  0  0  0  0  0  0
   10.0182    6.5136    0.0000 C   0  0  0  0  0  0  0  0  0  0  0  0
    8.3719    7.0517    0.0000 C   0  0  0  0  0  0  0  0  0  0  0  0
    3.7988    1.6200    0.0000 C   0  0  0  0  0  0  0  0  0  0  0  0
    2.2690    1.1200    0.0000 C   0  0  0  0  0  0  0  0  0  0  0  0
    1.4030    2.6200    0.0000 C   0  0  0  0  0  0  0  0  0  0  0  0
   10.3289    7.4641    0.0000 C   0  0  0  0  0  0  0  0  0  0  0  0
    8.6825    8.0022    0.0000 C   0  0  0  0  0  0  0  0  0  0  0  0
    1.4030    0.6200    0.0000 C   0  0  0  0  0  0  0  0  0  0  0  0
    0.5369    2.1200    0.0000 C   0  0  0  0  0  0  0  0  0  0  0  0
    0.5369    1.1200    0.0000 C   0  0  0  0  0  0  0  0  0  0  0  0
    5.0261   11.5901    0.0000 C   0  0  0  0  0  0  0  0  0  0  0  0
    5.8921   12.0901    0.0000 C   0  0  0  0  0  0  0  0  0  0  0  0
    4.6459    2.5095    0.0000 H   0  0  0  0  0  0  0  0  0  0  0  0
    5.4035    2.2619    0.0000 H   0  0  0  0  0  0  0  0  0  0  0  0
    4.7945    5.1516    0.0000 H   0  0  0  0  0  0  0  0  0  0  0  0
    4.2012    4.6193    0.0000 H   0  0  0  0  0  0  0  0  0  0  0  0
    6.1713    2.4237    0.0000 H   0  0  0  0  0  0  0  0  0  0  0  0
    6.7645    2.9560    0.0000 H   0  0  0  0  0  0  0  0  0  0  0  0
    6.3199    5.0658    0.0000 H   0  0  0  0  0  0  0  0  0  0  0  0
    5.5623    5.3135    0.0000 H   0  0  0  0  0  0  0  0  0  0  0  0
    3.5053    3.9949    0.0000 H   0  0  0  0  0  0  0  0  0  0  0  0
    2.9120    3.4626    0.0000 H   0  0  0  0  0  0  0  0  0  0  0  0
    7.4605    3.5805    0.0000 H   0  0  0  0  0  0  0  0  0  0  0  0
    8.0537    4.1128    0.0000 H   0  0  0  0  0  0  0  0  0  0  0  0
    9.4538    5.8459    0.0000 H   0  0  0  0  0  0  0  0  0  0  0  0
    9.1431    4.8954    0.0000 H   0  0  0  0  0  0  0  0  0  0  0  0
   10.0388    5.8940    0.0000 H   0  0  0  0  0  0  0  0  0  0  0  0
   10.6320    6.4263    0.0000 H   0  0  0  0  0  0  0  0  0  0  0  0
    7.8250    7.3437    0.0000 H   0  0  0  0  0  0  0  0  0  0  0  0
    7.9893    6.5638    0.0000 H   0  0  0  0  0  0  0  0  0  0  0  0
    4.4188    1.6200    0.0000 H   0  0  0  0  0  0  0  0  0  0  0  0
    1.4030    3.2400    0.0000 H   0  0  0  0  0  0  0  0  0  0  0  0
    9.2719    7.8096    0.0000 H   0  0  0  0  0  0  0  0  0  0  0  0
    8.8752    8.5915    0.0000 H   0  0  0  0  0  0  0  0  0  0  0  0
    8.0932    8.1948    0.0000 H   0  0  0  0  0  0  0  0  0  0  0  0
   10.9182    7.2715    0.0000 H   0  0  0  0  0  0  0  0  0  0  0  0
   10.5215    8.0534    0.0000 H   0  0  0  0  0  0  0  0  0  0  0  0
    9.7396    7.6567    0.0000 H   0  0  0  0  0  0  0  0  0  0  0  0
    1.4030    0.0000    0.0000 H   0  0  0  0  0  0  0  0  0  0  0  0
    0.0000    2.4300    0.0000 H   0  0  0  0  0  0  0  0  0  0  0  0
    0.0000    0.8100    0.0000 H   0  0  0  0  0  0  0  0  0  0  0  0
    7.2951   11.9001    0.0000 H   0  0  0  0  0  0  0  0  0  0  0  0
    3.6231   11.7801    0.0000 H   0  0  0  0  0  0  0  0  0  0  0  0
  1 22  1  0  0  0  0
  1 23  1  0  0  0  0
  2 17  2  0  0  0  0
  3 31  1  0  0  0  0
  3 61  1  0  0  0  0
  4 30  1  0  0  0  0
  4 62  1  0  0  0  0
  5 31  2  0  0  0  0
  6 30  2  0  0  0  0
  7 10  1  0  0  0  0
  7 11  1  0  0  0  0
  7 14  1  0  0  0  0
  8 12  1  0  0  0  0
  8 13  1  0  0  0  0
  8 15  1  0  0  0  0
  9 17  1  0  0  0  0
  9 18  1  0  0  0  0
  9 45  1  0  0  0  0
 10 12  1  0  0  0  0
 10 34  1  0  0  0  0
 10 35  1  0  0  0  0
 11 13  1  0  0  0  0
 11 32  1  0  0  0  0
 11 33  1  0  0  0  0
 12 38  1  0  0  0  0
 12 39  1  0  0  0  0
 13 36  1  0  0  0  0
 13 37  1  0  0  0  0
 14 16  1  0  0  0  0
 14 40  1  0  0  0  0
 14 41  1  0  0  0  0
 15 17  1  0  0  0  0
 15 42  1  0  0  0  0
 15 43  1  0  0  0  0
 16 19  1  0  0  0  0
 16 22  2  0  0  0  0
 18 20  1  0  0  0  0
 18 21  1  0  0  0  0
 18 44  1  0  0  0  0
 19 23  1  0  0  0  0
 19 24  2  0  0  0  0
 20 25  1  0  0  0  0
 20 46  1  0  0  0  0
 20 47  1  0  0  0  0
 21 26  1  0  0  0  0
 21 48  1  0  0  0  0
 21 49  1  0  0  0  0
 22 50  1  0  0  0  0
 23 27  2  0  0  0  0
 24 28  1  0  0  0  0
 24 51  1  0  0  0  0
 25 55  1  0  0  0  0
 25 56  1  0  0  0  0
 25 57  1  0  0  0  0
 26 52  1  0  0  0  0
 26 53  1  0  0  0  0
 26 54  1  0  0  0  0
 27 29  1  0  0  0  0
 27 58  1  0  0  0  0
 28 29  2  0  0  0  0
 28 59  1  0  0  0  0
 29 60  1  0  0  0  0
 30 31  1  0  0  0  0
M  END
> <PUBCHEM_COMPOUND_CID>
17396051

> <PUBCHEM_COMPOUND_CANONICALIZED>
1

> <PUBCHEM_CACTVS_COMPLEXITY>
493

> <PUBCHEM_CACTVS_HBOND_ACCEPTOR>
8

> <PUBCHEM_CACTVS_HBOND_DONOR>
3

> <PUBCHEM_CACTVS_ROTATABLE_BOND>
8

> <PUBCHEM_CACTVS_SUBSKEYS>
AAADceB7OABAAAAAAAAAAAAAAAAAASAAAAA8QAAAAAAAAEgB8AAAHgQQCAAADCjF2ASyCcPAAgiMAiHSGAKDAIAgCBBIiJjIBIgJYCKgkTGUIAhglgCpiAcQgMAOgAAAAAAEAAAAAAAAAAgAAAAAAAAAAA==

> <PUBCHEM_IUPAC_OPENEYE_NAME>
2-[4-(benzothiophen-3-ylmethyl)piperazin-1-yl]-N-(1-ethylpropyl)acetamide; oxalic acid

> <PUBCHEM_IUPAC_CAS_NAME>
2-[4-(1-benzothiophen-3-ylmethyl)-1-piperazinyl]-N-pentan-3-ylacetamide; oxalic acid

> <PUBCHEM_IUPAC_NAME>
2-[4-(1-benzothiophen-3-ylmethyl)piperazin-1-yl]-N-pentan-3-ylacetamide; oxalic acid

> <PUBCHEM_IUPAC_SYSTEMATIC_NAME>
2-[4-(1-benzothiophen-3-ylmethyl)piperazin-1-yl]-N-pentan-3-yl-ethanamide; ethanedioic acid

> <PUBCHEM_IUPAC_TRADITIONAL_NAME>
2-[4-(benzothiophen-3-ylmethyl)piperazino]-N-(1-ethylpropyl)acetamide; oxalic acid

> <PUBCHEM_IUPAC_INCHI>
InChI=1S/C20H29N3OS.C2H2O4/c1-3-17(4-2)21-20(24)14-23-11-9-22(10-12-23)13-16-15-25-19-8-6-5-7-18(16)19;3-1(4)2(5)6/h5-8,15,17H,3-4,9-14H2,1-2H3,(H,21,24);(H,3,4)(H,5,6)

> <PUBCHEM_IUPAC_INCHIKEY>
WMABDDRFTUZEDD-UHFFFAOYSA-N

> <PUBCHEM_EXACT_MASS>
449.198442

> <PUBCHEM_MOLECULAR_FORMULA>
C22H31N3O5S

> <PUBCHEM_MOLECULAR_WEIGHT>
449.56364

> <PUBCHEM_OPENEYE_CAN_SMILES>
CCC(CC)NC(=O)CN1CCN(CC1)CC2=CSC3=CC=CC=C32.C(=O)(C(=O)O)O

> <PUBCHEM_OPENEYE_ISO_SMILES>
CCC(CC)NC(=O)CN1CCN(CC1)CC2=CSC3=CC=CC=C32.C(=O)(C(=O)O)O

> <PUBCHEM_CACTVS_TPSA>
138

> <PUBCHEM_MONOISOTOPIC_WEIGHT>
449.198442

> <PUBCHEM_TOTAL_CHARGE>
0

> <PUBCHEM_HEAVY_ATOM_COUNT>
31

> <PUBCHEM_ATOM_DEF_STEREO_COUNT>
0

> <PUBCHEM_ATOM_UDEF_STEREO_COUNT>
0

> <PUBCHEM_BOND_DEF_STEREO_COUNT>
0

> <PUBCHEM_BOND_UDEF_STEREO_COUNT>
0

> <PUBCHEM_ISOTOPIC_ATOM_COUNT>
0

> <PUBCHEM_COMPONENT_COUNT>
2

> <PUBCHEM_CACTVS_TAUTO_COUNT>
2

> <PUBCHEM_COORDINATE_TYPE>
1
5
255

> <PUBCHEM_BONDANNOTATIONS>
1  22  8
1  23  8
16  19  8
16  22  8
19  23  8
19  24  8
23  27  8
24  28  8
27  29  8
28  29  8

$$$$

