68759
  -OEChem-07051212502D

 30 29  0     1  0  0  0  0  0999 V2000
    3.0000   -2.8450    0.0000 S   0  0  0  0  0  0  0  0  0  0  0  0
    5.5981   -0.3450    0.0000 O   0  0  0  0  0  0  0  0  0  0  0  0
    3.0000   -3.8450    0.0000 O   0  0  0  0  0  0  0  0  0  0  0  0
    7.3301    2.6550    0.0000 O   0  0  0  0  0  0  0  0  0  0  0  0
    2.0000   -2.8450    0.0000 O   0  0  0  0  0  0  0  0  0  0  0  0
    4.0000   -2.8450    0.0000 O   0  0  0  0  0  0  0  0  0  0  0  0
    6.4641    4.1550    0.0000 O   0  0  0  0  0  0  0  0  0  0  0  0
    3.8660   -0.3450    0.0000 N   0  0  0  0  0  0  0  0  0  0  0  0
    4.7320    3.1550    0.0000 N   0  0  0  0  0  0  0  0  0  0  0  0
    5.5981    1.6550    0.0000 C   0  0  0  0  0  0  0  0  0  0  0  0
    4.7320    1.1550    0.0000 C   0  0  0  0  0  0  0  0  0  0  0  0
    5.5981    2.6550    0.0000 C   0  0  1  0  0  0  0  0  0  0  0  0
    3.8660   -1.3450    0.0000 C   0  0  0  0  0  0  0  0  0  0  0  0
    3.0000   -1.8450    0.0000 C   0  0  0  0  0  0  0  0  0  0  0  0
    4.7320    0.1550    0.0000 C   0  0  0  0  0  0  0  0  0  0  0  0
    6.4641    3.1550    0.0000 C   0  0  0  0  0  0  0  0  0  0  0  0
    5.8101    1.0724    0.0000 H   0  0  0  0  0  0  0  0  0  0  0  0
    6.2087    1.7627    0.0000 H   0  0  0  0  0  0  0  0  0  0  0  0
    4.5200    1.7376    0.0000 H   0  0  0  0  0  0  0  0  0  0  0  0
    4.1215    1.0473    0.0000 H   0  0  0  0  0  0  0  0  0  0  0  0
    5.5981    3.2750    0.0000 H   0  0  0  0  0  0  0  0  0  0  0  0
    4.0781   -1.9276    0.0000 H   0  0  0  0  0  0  0  0  0  0  0  0
    4.4766   -1.2373    0.0000 H   0  0  0  0  0  0  0  0  0  0  0  0
    2.7880   -1.2624    0.0000 H   0  0  0  0  0  0  0  0  0  0  0  0
    2.3894   -1.9527    0.0000 H   0  0  0  0  0  0  0  0  0  0  0  0
    3.3291   -0.0350    0.0000 H   0  0  0  0  0  0  0  0  0  0  0  0
    4.1951    2.8450    0.0000 H   0  0  0  0  0  0  0  0  0  0  0  0
    4.7320    3.7750    0.0000 H   0  0  0  0  0  0  0  0  0  0  0  0
    2.4631   -4.1550    0.0000 H   0  0  0  0  0  0  0  0  0  0  0  0
    7.8671    2.9650    0.0000 H   0  0  0  0  0  0  0  0  0  0  0  0
  1  3  1  0  0  0  0
  1  5  2  0  0  0  0
  1  6  2  0  0  0  0
  1 14  1  0  0  0  0
  2 15  2  0  0  0  0
  3 29  1  0  0  0  0
  4 16  1  0  0  0  0
  4 30  1  0  0  0  0
  7 16  2  0  0  0  0
  8 13  1  0  0  0  0
  8 15  1  0  0  0  0
  8 26  1  0  0  0  0
 12  9  1  6  0  0  0
  9 27  1  0  0  0  0
  9 28  1  0  0  0  0
 10 11  1  0  0  0  0
 10 12  1  0  0  0  0
 10 17  1  0  0  0  0
 10 18  1  0  0  0  0
 11 15  1  0  0  0  0
 11 19  1  0  0  0  0
 11 20  1  0  0  0  0
 12 16  1  0  0  0  0
 12 21  1  0  0  0  0
 13 14  1  0  0  0  0
 13 22  1  0  0  0  0
 13 23  1  0  0  0  0
 14 24  1  0  0  0  0
 14 25  1  0  0  0  0
M  END
> <PUBCHEM_COMPOUND_CID>
68759

> <PUBCHEM_COMPOUND_CANONICALIZED>
1

> <PUBCHEM_CACTVS_COMPLEXITY>
346

> <PUBCHEM_CACTVS_HBOND_ACCEPTOR>
7

> <PUBCHEM_CACTVS_HBOND_DONOR>
4

> <PUBCHEM_CACTVS_ROTATABLE_BOND>
7

> <PUBCHEM_CACTVS_SUBSKEYS>
AAADccBjOABAAAAAAAAAAAAAAAAAAAAAAAAAAAAAAAAAAAAAAAAAHgQQCAAACCjFwASACALAAoIIAAGQGHBAAAAAAAAAAIGIAAACABIAgAAEQAAEFgCAAACcFwIAAAAAAAAAAAAAAAAAAAAAAAAAAAAAAA==

> <PUBCHEM_IUPAC_OPENEYE_NAME>
(2S)-2-amino-5-oxo-5-(2-sulfoethylamino)pentanoic acid

> <PUBCHEM_IUPAC_CAS_NAME>
(2S)-2-amino-5-oxo-5-(2-sulfoethylamino)pentanoic acid

> <PUBCHEM_IUPAC_NAME>
(2S)-2-amino-5-oxo-5-(2-sulfoethylamino)pentanoic acid

> <PUBCHEM_IUPAC_SYSTEMATIC_NAME>
(2S)-2-azanyl-5-oxidanylidene-5-(2-sulfoethylamino)pentanoic acid

> <PUBCHEM_IUPAC_TRADITIONAL_NAME>
(2S)-2-amino-5-keto-5-(2-sulfoethylamino)valeric acid

> <PUBCHEM_IUPAC_INCHI>
InChI=1S/C7H14N2O6S/c8-5(7(11)12)1-2-6(10)9-3-4-16(13,14)15/h5H,1-4,8H2,(H,9,10)(H,11,12)(H,13,14,15)/t5-/m0/s1

> <PUBCHEM_IUPAC_INCHIKEY>
WGXUDTHMEITUBO-YFKPBYRVSA-N

> <PUBCHEM_XLOGP3_AA>
-4.9

> <PUBCHEM_EXACT_MASS>
254.057257

> <PUBCHEM_MOLECULAR_FORMULA>
C7H14N2O6S

> <PUBCHEM_MOLECULAR_WEIGHT>
254.26086

> <PUBCHEM_OPENEYE_CAN_SMILES>
C(CC(=O)NCCS(=O)(=O)O)C(C(=O)O)N

> <PUBCHEM_OPENEYE_ISO_SMILES>
C(CC(=O)NCCS(=O)(=O)O)[C@@H](C(=O)O)N

> <PUBCHEM_CACTVS_TPSA>
155

> <PUBCHEM_MONOISOTOPIC_WEIGHT>
254.057257

> <PUBCHEM_TOTAL_CHARGE>
0

> <PUBCHEM_HEAVY_ATOM_COUNT>
16

> <PUBCHEM_ATOM_DEF_STEREO_COUNT>
1

> <PUBCHEM_ATOM_UDEF_STEREO_COUNT>
0

> <PUBCHEM_BOND_DEF_STEREO_COUNT>
0

> <PUBCHEM_BOND_UDEF_STEREO_COUNT>
0

> <PUBCHEM_ISOTOPIC_ATOM_COUNT>
0

> <PUBCHEM_COMPONENT_COUNT>
1

> <PUBCHEM_CACTVS_TAUTO_COUNT>
2

> <PUBCHEM_COORDINATE_TYPE>
1
5
255

> <PUBCHEM_BONDANNOTATIONS>
12  9  6

$$$$

