17396465
  -OEChem-06241222562D

 53 55  0     0  0  0  0  0  0999 V2000
    4.9716    0.0339    0.0000 O   0  0  0  0  0  0  0  0  0  0  0  0
    6.3159   -3.0146    0.0000 O   0  0  0  0  0  0  0  0  0  0  0  0
    3.4013   -2.5933    0.0000 O   0  0  0  0  0  0  0  0  0  0  0  0
    5.8852    1.6272    0.0000 O   0  0  0  0  0  0  0  0  0  0  0  0
    7.4749   -1.7274    0.0000 O   0  0  0  0  0  0  0  0  0  0  0  0
    4.9836   -3.2978    0.0000 O   0  0  0  0  0  0  0  0  0  0  0  0
    6.7512    0.1272    0.0000 N   0  0  0  0  0  0  0  0  0  0  0  0
    7.6172    2.6272    0.0000 C   0  0  0  0  0  0  0  0  0  0  0  0
    8.4833    3.1272    0.0000 C   0  0  0  0  0  0  0  0  0  0  0  0
    7.6172    1.6272    0.0000 C   0  0  0  0  0  0  0  0  0  0  0  0
    8.4833    4.1272    0.0000 C   0  0  0  0  0  0  0  0  0  0  0  0
    5.7807   -1.3673    0.0000 C   0  0  0  0  0  0  0  0  0  0  0  0
    5.8852   -0.3728    0.0000 C   0  0  0  0  0  0  0  0  0  0  0  0
    4.8025   -1.5752    0.0000 C   0  0  0  0  0  0  0  0  0  0  0  0
    6.7512    1.1272    0.0000 C   0  0  0  0  0  0  0  0  0  0  0  0
    4.3025   -0.7092    0.0000 C   0  0  0  0  0  0  0  0  0  0  0  0
    6.7512    3.1272    0.0000 C   0  0  0  0  0  0  0  0  0  0  0  0
    9.3772    2.5926    0.0000 C   0  0  0  0  0  0  0  0  0  0  0  0
    7.6172    4.6272    0.0000 C   0  0  0  0  0  0  0  0  0  0  0  0
    6.7512    4.1272    0.0000 C   0  0  0  0  0  0  0  0  0  0  0  0
    9.3772    4.6619    0.0000 C   0  0  0  0  0  0  0  0  0  0  0  0
   10.2833    3.1064    0.0000 C   0  0  0  0  0  0  0  0  0  0  0  0
    3.3080   -0.6047    0.0000 C   0  0  0  0  0  0  0  0  0  0  0  0
    6.5238   -2.0364    0.0000 C   0  0  0  0  0  0  0  0  0  0  0  0
   10.2833    4.1480    0.0000 C   0  0  0  0  0  0  0  0  0  0  0  0
    4.3958   -2.4888    0.0000 C   0  0  0  0  0  0  0  0  0  0  0  0
    7.0590   -3.6837    0.0000 C   0  0  0  0  0  0  0  0  0  0  0  0
    2.9945   -3.5068    0.0000 C   0  0  0  0  0  0  0  0  0  0  0  0
    6.8511   -4.6619    0.0000 C   0  0  0  0  0  0  0  0  0  0  0  0
    2.0000   -3.6114    0.0000 C   0  0  0  0  0  0  0  0  0  0  0  0
    7.8293    1.0446    0.0000 H   0  0  0  0  0  0  0  0  0  0  0  0
    8.2278    1.7349    0.0000 H   0  0  0  0  0  0  0  0  0  0  0  0
    6.2143    2.8172    0.0000 H   0  0  0  0  0  0  0  0  0  0  0  0
    7.2882   -0.1828    0.0000 H   0  0  0  0  0  0  0  0  0  0  0  0
    9.3700    1.9726    0.0000 H   0  0  0  0  0  0  0  0  0  0  0  0
    7.6172    5.2472    0.0000 H   0  0  0  0  0  0  0  0  0  0  0  0
    6.2143    4.4372    0.0000 H   0  0  0  0  0  0  0  0  0  0  0  0
    9.3700    5.2818    0.0000 H   0  0  0  0  0  0  0  0  0  0  0  0
    3.3728    0.0119    0.0000 H   0  0  0  0  0  0  0  0  0  0  0  0
    2.6914   -0.5399    0.0000 H   0  0  0  0  0  0  0  0  0  0  0  0
    3.2432   -1.2213    0.0000 H   0  0  0  0  0  0  0  0  0  0  0  0
   10.8190    2.7943    0.0000 H   0  0  0  0  0  0  0  0  0  0  0  0
   10.8190    4.4601    0.0000 H   0  0  0  0  0  0  0  0  0  0  0  0
    7.6339   -3.9160    0.0000 H   0  0  0  0  0  0  0  0  0  0  0  0
    7.3876   -3.1579    0.0000 H   0  0  0  0  0  0  0  0  0  0  0  0
    2.9513   -4.1253    0.0000 H   0  0  0  0  0  0  0  0  0  0  0  0
    3.5961   -3.6568    0.0000 H   0  0  0  0  0  0  0  0  0  0  0  0
    6.2447   -4.5330    0.0000 H   0  0  0  0  0  0  0  0  0  0  0  0
    6.7222   -5.2683    0.0000 H   0  0  0  0  0  0  0  0  0  0  0  0
    7.4576   -4.7908    0.0000 H   0  0  0  0  0  0  0  0  0  0  0  0
    1.9352   -2.9948    0.0000 H   0  0  0  0  0  0  0  0  0  0  0  0
    1.3834   -3.6762    0.0000 H   0  0  0  0  0  0  0  0  0  0  0  0
    2.0648   -4.2280    0.0000 H   0  0  0  0  0  0  0  0  0  0  0  0
  1 13  1  0  0  0  0
  1 16  1  0  0  0  0
  2 24  1  0  0  0  0
  2 27  1  0  0  0  0
  3 26  1  0  0  0  0
  3 28  1  0  0  0  0
  4 15  2  0  0  0  0
  5 24  2  0  0  0  0
  6 26  2  0  0  0  0
  7 13  1  0  0  0  0
  7 15  1  0  0  0  0
  7 34  1  0  0  0  0
  8  9  1  0  0  0  0
  8 10  1  0  0  0  0
  8 17  2  0  0  0  0
  9 11  1  0  0  0  0
  9 18  2  0  0  0  0
 10 15  1  0  0  0  0
 10 31  1  0  0  0  0
 10 32  1  0  0  0  0
 11 19  1  0  0  0  0
 11 21  2  0  0  0  0
 12 13  2  0  0  0  0
 12 14  1  0  0  0  0
 12 24  1  0  0  0  0
 14 16  2  0  0  0  0
 14 26  1  0  0  0  0
 16 23  1  0  0  0  0
 17 20  1  0  0  0  0
 17 33  1  0  0  0  0
 18 22  1  0  0  0  0
 18 35  1  0  0  0  0
 19 20  2  0  0  0  0
 19 36  1  0  0  0  0
 20 37  1  0  0  0  0
 21 25  1  0  0  0  0
 21 38  1  0  0  0  0
 22 25  2  0  0  0  0
 22 42  1  0  0  0  0
 23 39  1  0  0  0  0
 23 40  1  0  0  0  0
 23 41  1  0  0  0  0
 25 43  1  0  0  0  0
 27 29  1  0  0  0  0
 27 44  1  0  0  0  0
 27 45  1  0  0  0  0
 28 30  1  0  0  0  0
 28 46  1  0  0  0  0
 28 47  1  0  0  0  0
 29 48  1  0  0  0  0
 29 49  1  0  0  0  0
 29 50  1  0  0  0  0
 30 51  1  0  0  0  0
 30 52  1  0  0  0  0
 30 53  1  0  0  0  0
M  END
> <PUBCHEM_COMPOUND_CID>
17396465

> <PUBCHEM_COMPOUND_CANONICALIZED>
1

> <PUBCHEM_CACTVS_COMPLEXITY>
623

> <PUBCHEM_CACTVS_HBOND_ACCEPTOR>
6

> <PUBCHEM_CACTVS_HBOND_DONOR>
1

> <PUBCHEM_CACTVS_ROTATABLE_BOND>
9

> <PUBCHEM_CACTVS_SUBSKEYS>
AAADceB6OAAAAAAAAAAAAAAAAAAAASAAAAAwYAAAAAAAAADB1AAAHgAQAAAADAShmAIyjMLABECIAqHSWACCCAAtIAAIiAEETMkMJz7MtZuOOejn9DHI6Uf/iMCOgAACAAAQAAAAAAQAACAAAAAAAAAAAA==

> <PUBCHEM_IUPAC_OPENEYE_NAME>
diethyl 2-methyl-5-[[2-(1-naphthyl)acetyl]amino]furan-3,4-dicarboxylate

> <PUBCHEM_IUPAC_CAS_NAME>
2-methyl-5-[[2-(1-naphthalenyl)-1-oxoethyl]amino]furan-3,4-dicarboxylic acid diethyl ester

> <PUBCHEM_IUPAC_NAME>
diethyl 2-methyl-5-[(2-naphthalen-1-ylacetyl)amino]furan-3,4-dicarboxylate

> <PUBCHEM_IUPAC_SYSTEMATIC_NAME>
diethyl 2-methyl-5-(2-naphthalen-1-ylethanoylamino)furan-3,4-dicarboxylate

> <PUBCHEM_IUPAC_TRADITIONAL_NAME>
2-methyl-5-[[2-(1-naphthyl)acetyl]amino]furan-3,4-dicarboxylic acid diethyl ester

> <PUBCHEM_IUPAC_INCHI>
InChI=1S/C23H23NO6/c1-4-28-22(26)19-14(3)30-21(20(19)23(27)29-5-2)24-18(25)13-16-11-8-10-15-9-6-7-12-17(15)16/h6-12H,4-5,13H2,1-3H3,(H,24,25)

> <PUBCHEM_IUPAC_INCHIKEY>
SFWQNQUQXKOXED-UHFFFAOYSA-N

> <PUBCHEM_XLOGP3_AA>
4.7

> <PUBCHEM_EXACT_MASS>
409.152537

> <PUBCHEM_MOLECULAR_FORMULA>
C23H23NO6

> <PUBCHEM_MOLECULAR_WEIGHT>
409.43182

> <PUBCHEM_OPENEYE_CAN_SMILES>
CCOC(=O)C1=C(OC(=C1C(=O)OCC)NC(=O)CC2=CC=CC3=CC=CC=C32)C

> <PUBCHEM_OPENEYE_ISO_SMILES>
CCOC(=O)C1=C(OC(=C1C(=O)OCC)NC(=O)CC2=CC=CC3=CC=CC=C32)C

> <PUBCHEM_CACTVS_TPSA>
94.8

> <PUBCHEM_MONOISOTOPIC_WEIGHT>
409.152537

> <PUBCHEM_TOTAL_CHARGE>
0

> <PUBCHEM_HEAVY_ATOM_COUNT>
30

> <PUBCHEM_ATOM_DEF_STEREO_COUNT>
0

> <PUBCHEM_ATOM_UDEF_STEREO_COUNT>
0

> <PUBCHEM_BOND_DEF_STEREO_COUNT>
0

> <PUBCHEM_BOND_UDEF_STEREO_COUNT>
0

> <PUBCHEM_ISOTOPIC_ATOM_COUNT>
0

> <PUBCHEM_COMPONENT_COUNT>
1

> <PUBCHEM_CACTVS_TAUTO_COUNT>
7

> <PUBCHEM_COORDINATE_TYPE>
1
5
255

> <PUBCHEM_BONDANNOTATIONS>
1  13  8
1  16  8
11  19  8
11  21  8
12  13  8
12  14  8
14  16  8
17  20  8
18  22  8
19  20  8
21  25  8
22  25  8
8  17  8
8  9  8
9  11  8
9  18  8

$$$$

