   Color/Form
        Liquid
   from [1]HSDB

   Boiling Point
        296.5 deg C; 159 deg C at 4 mm Hg
   from [2]HSDB

   Melting Point
        -64 deg C
   from [3]HSDB

   Density/Specific Gravity
        1.0490 at 15 deg C
   from [4]HSDB

   Octanol/Water Partition Coefficient
        log Kow = 4.11
   from [5]HSDB

   Solubilities

     * Soluble in carbon tetrachloride
     * In water, 6.2 mg/L at 24 deg C

   from [6]HSDB

   Spectral Properties

     * Index of refraction: 1.4900 at 25 deg C/D
     * Raman: 79 (Sadtler Research Laboratories IR Grating Collection)
     * IR: 367 (Sadtler Research Laboratories IR Grating Collection)
     * UV: 955 (Sadtler Research Laboratories Spectral Collection)
     * 1H NMR: 709 (Sadtler Research Laboratories Spectral Collection)
     * MASS: 71639 (NIST/EPA/MSDC Mass Spectral database, 1990 version)

   from [7]HSDB

   Vapor Pressure
        6.65X10-3 mm Hg at 25 deg C /from experimentally derived
   coefficients/
   from [8]HSDB

   Viscosity
        41 mPa.s at 20 deg C
   from [9]HSDB

   Other Chemical/Physical Properties

     * Phthalate esters are soluble to various extents in many common
       organic solvents and oils, but have a relatively low solubility in
       water. /Phthalate esters/
     * Phthalate esters would be expected to have UV maxima in the 230 nm
       and 270 nm regions. /Phthalate esters/
     * ... Resistance to migration from polymers, low temperature
       flexibility ... compatibility with polar polymers and additives
       over a wide range of compositions. /Phthalate esters/
     * Henry's Law constant = 1.22X10-6 atm-cu m/mol at 25 deg C (est)
     * Hydroxyl radical reaction rate constant = 9.26X10-12 cu
       cm/molec-sec at 25 deg C (est)

   from [10]HSDB

   Computed Properties
   Molecular Weight                  278.34348 [g/mol]
   Molecular Formula                 C[16]H[22]O[4]
   XLogP3                            4.1
   H-Bond Donor                      0
   H-Bond Acceptor                   4
   Rotatable Bond Count              8
   Exact Mass                        278.151809
   MonoIsotopic Mass                 278.151809
   Topological Polar Surface Area    52.6
   Heavy Atom Count                  20
   Formal Charge                     0
   Complexity                        290
   Isotope Atom Count                0
   Defined Atom Stereocenter Count   0
   Undefined Atom Stereocenter Count 0
   Defined Bond Stereocenter Count   0
   Undefined Bond Stereocenter Count 0
   Covalently-Bonded Unit Count      1
   Feature 3D Acceptor Count         2
   Feature 3D Hydrophobe Count       2
   Feature 3D Ring Count             1
   Effective Rotor Count             8
   Conformer Sampling RMSD           0.8
   CID Conformer Count               [11]143

References

   1. http://toxnet.nlm.nih.gov/cgi-bin/sis/search/r?dbs+hsdb:@term+@rn+@rel+84-69-5
   2. http://toxnet.nlm.nih.gov/cgi-bin/sis/search/r?dbs+hsdb:@term+@rn+@rel+84-69-5
   3. http://toxnet.nlm.nih.gov/cgi-bin/sis/search/r?dbs+hsdb:@term+@rn+@rel+84-69-5
   4. http://toxnet.nlm.nih.gov/cgi-bin/sis/search/r?dbs+hsdb:@term+@rn+@rel+84-69-5
   5. http://toxnet.nlm.nih.gov/cgi-bin/sis/search/r?dbs+hsdb:@term+@rn+@rel+84-69-5
   6. http://toxnet.nlm.nih.gov/cgi-bin/sis/search/r?dbs+hsdb:@term+@rn+@rel+84-69-5
   7. http://toxnet.nlm.nih.gov/cgi-bin/sis/search/r?dbs+hsdb:@term+@rn+@rel+84-69-5
   8. http://toxnet.nlm.nih.gov/cgi-bin/sis/search/r?dbs+hsdb:@term+@rn+@rel+84-69-5
   9. http://toxnet.nlm.nih.gov/cgi-bin/sis/search/r?dbs+hsdb:@term+@rn+@rel+84-69-5
  10. http://toxnet.nlm.nih.gov/cgi-bin/sis/search/r?dbs+hsdb:@term+@rn+@rel+84-69-5
  11. http://pubchem.ncbi.nlm.nih.gov/vw3d/vw3d.cgi?cid=6782
