   Color/Form
        Colorless needles
   from [1]HSDB

   Odor
        Pleasant aroma
   from [2]HSDB

   Boiling Point
        277 DEG C
   from [3]HSDB

   Melting Point
        86 DEG C
   from [4]HSDB

   Density/Specific Gravity
        1.8342 @ 16.5 DEG C
   from [5]HSDB

   Heat of Vaporization
        15,124.2 gcal/gmole
   from [6]HSDB

   Octanol/Water Partition Coefficient
        Log Kow= 5.18
   from [7]HSDB

   Solubilities

     * Insoluble in ethanol; slightly soluble in ether and benzene
     * In water, 1.33 mg/l at 25 deg C.

   from [8]HSDB

   Spectral Properties

     * MAX ABSORPTION (ALCOHOL): 288 NM (LOG E= 2.56); 298 NM (LOG E=
       2.54)
     * IR: 1091 (Coblentz Society Spectral Collection)
     * UV: 5-44 (Organic Electronic Spectral Data, Phillips et al, John
       Wiley & Sons, New York)
     * NMR: 3044 (Sadtler Research Laboratories Spectral Collection)
     * MASS: 4635 (National Bureau of Standards EPA-NIH Mass Spectra Data
       Base, NSRDS-NBS-63)

   from [9]HSDB

   Vapor Pressure
        0.0065 mm Hg @ 25 deg C
   from [10]HSDB

   Other Chemical/Physical Properties

     * Vapor Pressure: 1 mm Hg at 98.6 deg C; 40 mm Hg at 178.5 deg C.
     * Henry's Law constant = 7.1X10-4 atm-cu m/mol @ 20 deg C

   from [11]HSDB

   Computed Properties
   Molecular Weight                  250.33714 [g/mol]
   Molecular Formula                 C[6]HCl[5]
   XLogP3                            5.2
   H-Bond Donor                      0
   H-Bond Acceptor                   0
   Rotatable Bond Count              0
   Exact Mass                        249.849138
   MonoIsotopic Mass                 247.852088
   Topological Polar Surface Area    0
   Heavy Atom Count                  11
   Formal Charge                     0
   Complexity                        125
   Isotope Atom Count                0
   Defined Atom Stereocenter Count   0
   Undefined Atom Stereocenter Count 0
   Defined Bond Stereocenter Count   0
   Undefined Bond Stereocenter Count 0
   Covalently-Bonded Unit Count      1
   Feature 3D Ring Count             1
   Effective Rotor Count             0
   Conformer Sampling RMSD           0.4
   CID Conformer Count               [12]1

References

   1. http://toxnet.nlm.nih.gov/cgi-bin/sis/search/r?dbs+hsdb:@term+@rn+@rel+608-93-5
   2. http://toxnet.nlm.nih.gov/cgi-bin/sis/search/r?dbs+hsdb:@term+@rn+@rel+608-93-5
   3. http://toxnet.nlm.nih.gov/cgi-bin/sis/search/r?dbs+hsdb:@term+@rn+@rel+608-93-5
   4. http://toxnet.nlm.nih.gov/cgi-bin/sis/search/r?dbs+hsdb:@term+@rn+@rel+608-93-5
   5. http://toxnet.nlm.nih.gov/cgi-bin/sis/search/r?dbs+hsdb:@term+@rn+@rel+608-93-5
   6. http://toxnet.nlm.nih.gov/cgi-bin/sis/search/r?dbs+hsdb:@term+@rn+@rel+608-93-5
   7. http://toxnet.nlm.nih.gov/cgi-bin/sis/search/r?dbs+hsdb:@term+@rn+@rel+608-93-5
   8. http://toxnet.nlm.nih.gov/cgi-bin/sis/search/r?dbs+hsdb:@term+@rn+@rel+608-93-5
   9. http://toxnet.nlm.nih.gov/cgi-bin/sis/search/r?dbs+hsdb:@term+@rn+@rel+608-93-5
  10. http://toxnet.nlm.nih.gov/cgi-bin/sis/search/r?dbs+hsdb:@term+@rn+@rel+608-93-5
  11. http://toxnet.nlm.nih.gov/cgi-bin/sis/search/r?dbs+hsdb:@term+@rn+@rel+608-93-5
  12. http://pubchem.ncbi.nlm.nih.gov/vw3d/vw3d.cgi?cid=11855
