11281
  -OEChem-06261205292D

 44 47  0     1  0  0  0  0  0999 V2000
    3.7782    1.4936    0.0000 O   0  0  0  0  0  0  0  0  0  0  0  0
    5.5442    2.5314    0.0000 O   0  0  0  0  0  0  0  0  0  0  0  0
    2.9176    0.9968    0.0000 O   0  0  0  0  0  0  0  0  0  0  0  0
    6.3903   -2.0348    0.0000 N   0  0  3  0  0  0  0  0  0  0  0  0
    5.5321   -1.5378    0.0000 C   0  0  2  0  0  0  0  0  0  0  0  0
    5.5321   -0.5378    0.0000 C   0  0  0  0  0  0  0  0  0  0  0  0
    4.6660   -2.0378    0.0000 C   0  0  0  0  0  0  0  0  0  0  0  0
    6.4421   -0.0310    0.0000 C   0  0  0  0  0  0  0  0  0  0  0  0
    7.2558   -1.5506    0.0000 C   0  0  0  0  0  0  0  0  0  0  0  0
    4.6660   -0.0378    0.0000 C   0  0  0  0  0  0  0  0  0  0  0  0
    7.2814   -0.5592    0.0000 C   0  0  0  0  0  0  0  0  0  0  0  0
    3.8000   -1.5378    0.0000 C   0  0  0  0  0  0  0  0  0  0  0  0
    3.8000   -0.5378    0.0000 C   0  0  0  0  0  0  0  0  0  0  0  0
    6.4501    1.0106    0.0000 C   0  0  0  0  0  0  0  0  0  0  0  0
    4.6500    1.0037    0.0000 C   0  0  0  0  0  0  0  0  0  0  0  0
    6.3829   -3.0348    0.0000 C   0  0  0  0  0  0  0  0  0  0  0  0
    5.5480    1.5314    0.0000 C   0  0  0  0  0  0  0  0  0  0  0  0
    2.9061   -0.0032    0.0000 C   0  0  0  0  0  0  0  0  0  0  0  0
    2.9061   -2.0725    0.0000 C   0  0  0  0  0  0  0  0  0  0  0  0
    2.0000   -0.5170    0.0000 C   0  0  0  0  0  0  0  0  0  0  0  0
    2.0000   -1.5587    0.0000 C   0  0  0  0  0  0  0  0  0  0  0  0
    6.4082    3.0348    0.0000 C   0  0  0  0  0  0  0  0  0  0  0  0
    2.0574    1.5067    0.0000 C   0  0  0  0  0  0  0  0  0  0  0  0
    5.5315   -2.3878    0.0000 H   0  0  0  0  0  0  0  0  0  0  0  0
    4.2675   -2.5128    0.0000 H   0  0  0  0  0  0  0  0  0  0  0  0
    5.0646   -2.5128    0.0000 H   0  0  0  0  0  0  0  0  0  0  0  0
    7.4575   -2.1369    0.0000 H   0  0  0  0  0  0  0  0  0  0  0  0
    7.8685   -1.4562    0.0000 H   0  0  0  0  0  0  0  0  0  0  0  0
    7.8885   -0.6851    0.0000 H   0  0  0  0  0  0  0  0  0  0  0  0
    7.5131    0.0158    0.0000 H   0  0  0  0  0  0  0  0  0  0  0  0
    6.9882    1.3185    0.0000 H   0  0  0  0  0  0  0  0  0  0  0  0
    5.7629   -3.0302    0.0000 H   0  0  0  0  0  0  0  0  0  0  0  0
    6.3783   -3.6547    0.0000 H   0  0  0  0  0  0  0  0  0  0  0  0
    7.0029   -3.0393    0.0000 H   0  0  0  0  0  0  0  0  0  0  0  0
    2.9132   -2.6925    0.0000 H   0  0  0  0  0  0  0  0  0  0  0  0
    1.4643   -0.2050    0.0000 H   0  0  0  0  0  0  0  0  0  0  0  0
    1.4643   -1.8707    0.0000 H   0  0  0  0  0  0  0  0  0  0  0  0
    3.7711    2.1136    0.0000 H   0  0  0  0  0  0  0  0  0  0  0  0
    6.7203    2.4990    0.0000 H   0  0  0  0  0  0  0  0  0  0  0  0
    6.9440    3.3468    0.0000 H   0  0  0  0  0  0  0  0  0  0  0  0
    6.0962    3.5705    0.0000 H   0  0  0  0  0  0  0  0  0  0  0  0
    2.3736    2.0400    0.0000 H   0  0  0  0  0  0  0  0  0  0  0  0
    1.5241    1.8229    0.0000 H   0  0  0  0  0  0  0  0  0  0  0  0
    1.7413    0.9734    0.0000 H   0  0  0  0  0  0  0  0  0  0  0  0
  1 15  1  0  0  0  0
  1 38  1  0  0  0  0
  2 17  1  0  0  0  0
  2 22  1  0  0  0  0
  3 18  1  0  0  0  0
  3 23  1  0  0  0  0
  4  5  1  0  0  0  0
  4  9  1  0  0  0  0
  4 16  1  0  0  0  0
  5  6  1  0  0  0  0
  5  7  1  0  0  0  0
  5 24  1  6  0  0  0
  6  8  1  0  0  0  0
  6 10  2  0  0  0  0
  7 12  1  0  0  0  0
  7 25  1  0  0  0  0
  7 26  1  0  0  0  0
  8 11  1  0  0  0  0
  8 14  2  0  0  0  0
  9 11  1  0  0  0  0
  9 27  1  0  0  0  0
  9 28  1  0  0  0  0
 10 13  1  0  0  0  0
 10 15  1  0  0  0  0
 11 29  1  0  0  0  0
 11 30  1  0  0  0  0
 12 13  2  0  0  0  0
 12 19  1  0  0  0  0
 13 18  1  0  0  0  0
 14 17  1  0  0  0  0
 14 31  1  0  0  0  0
 15 17  2  0  0  0  0
 16 32  1  0  0  0  0
 16 33  1  0  0  0  0
 16 34  1  0  0  0  0
 18 20  2  0  0  0  0
 19 21  2  0  0  0  0
 19 35  1  0  0  0  0
 20 21  1  0  0  0  0
 20 36  1  0  0  0  0
 21 37  1  0  0  0  0
 22 39  1  0  0  0  0
 22 40  1  0  0  0  0
 22 41  1  0  0  0  0
 23 42  1  0  0  0  0
 23 43  1  0  0  0  0
 23 44  1  0  0  0  0
M  END
> <PUBCHEM_COMPOUND_CID>
11281

> <PUBCHEM_COMPOUND_CANONICALIZED>
1

> <PUBCHEM_CACTVS_COMPLEXITY>
431

> <PUBCHEM_CACTVS_HBOND_ACCEPTOR>
4

> <PUBCHEM_CACTVS_HBOND_DONOR>
1

> <PUBCHEM_CACTVS_ROTATABLE_BOND>
2

> <PUBCHEM_CACTVS_SUBSKEYS>
AAADceB6MAAAAAAAAAAAAAAAAAAAAAAAAAA8YMEAAAAAAADxQAAAHgAACAAADCzBmAYyBoMABgCAAiBCAACCCAAgIAAIiAAOjIgNJiKGsRuEcCtkwBGLuAfw8P8OoAADAAAYQADQAAaAADSAAAAAAAAAAA==

> <PUBCHEM_IUPAC_OPENEYE_NAME>
(8S)-2,14-dimethoxy-7-methyl-5,6,6a,7-tetrahydro-4H-dibenzo[de,g]quinoline-1-ol

> <PUBCHEM_IUPAC_CAS_NAME>
(8S)-2,14-dimethoxy-7-methyl-5,6,6a,7-tetrahydro-4H-dibenzo[de,g]quinoline-1-ol

> <PUBCHEM_IUPAC_NAME>
(8S)-2,14-dimethoxy-7-methyl-5,6,6a,7-tetrahydro-4H-dibenzo[de,g]quinoline-1-ol

> <PUBCHEM_IUPAC_SYSTEMATIC_NAME>
(8S)-2,14-dimethoxy-7-methyl-5,6,6a,7-tetrahydro-4H-dibenzo[de,g]quinoline-1-ol

> <PUBCHEM_IUPAC_TRADITIONAL_NAME>
(8S)-2,14-dimethoxy-7-methyl-5,6,6a,7-tetrahydro-4H-dibenzo[de,g]quinoline-1-ol

> <PUBCHEM_IUPAC_INCHI>
InChI=1S/C19H21NO3/c1-20-8-7-12-10-15(23-3)19(21)18-16(12)13(20)9-11-5-4-6-14(22-2)17(11)18/h4-6,10,13,21H,7-9H2,1-3H3/t13-/m0/s1

> <PUBCHEM_IUPAC_INCHIKEY>
RQCOQZNIQLKGTN-ZDUSSCGKSA-N

> <PUBCHEM_XLOGP3>
2.6

> <PUBCHEM_EXACT_MASS>
311.152144

> <PUBCHEM_MOLECULAR_FORMULA>
C19H21NO3

> <PUBCHEM_MOLECULAR_WEIGHT>
311.37494

> <PUBCHEM_OPENEYE_CAN_SMILES>
CN1CCC2=CC(=C(C3=C2C1CC4=C3C(=CC=C4)OC)O)OC

> <PUBCHEM_OPENEYE_ISO_SMILES>
CN1CCC2=CC(=C(C3=C2[C@@H]1CC4=C3C(=CC=C4)OC)O)OC

> <PUBCHEM_CACTVS_TPSA>
41.9

> <PUBCHEM_MONOISOTOPIC_WEIGHT>
311.152144

> <PUBCHEM_TOTAL_CHARGE>
0

> <PUBCHEM_HEAVY_ATOM_COUNT>
23

> <PUBCHEM_ATOM_DEF_STEREO_COUNT>
1

> <PUBCHEM_ATOM_UDEF_STEREO_COUNT>
0

> <PUBCHEM_BOND_DEF_STEREO_COUNT>
0

> <PUBCHEM_BOND_UDEF_STEREO_COUNT>
0

> <PUBCHEM_ISOTOPIC_ATOM_COUNT>
0

> <PUBCHEM_COMPONENT_COUNT>
1

> <PUBCHEM_CACTVS_TAUTO_COUNT>
2

> <PUBCHEM_COORDINATE_TYPE>
1
5
255

> <PUBCHEM_BONDANNOTATIONS>
10  15  8
12  13  8
12  19  8
13  18  8
14  17  8
15  17  8
18  20  8
19  21  8
20  21  8
5  24  6
6  10  8
6  8  8
8  14  8

$$$$

