5280896
  -OEChem-07051212512D

 39 39  0     1  0  0  0  0  0999 V2000
    3.6200    0.2010    0.0000 O   0  0  0  0  0  0  0  0  0  0  0  0
    4.1200   -3.6651    0.0000 O   0  0  0  0  0  0  0  0  0  0  0  0
    2.6200    3.6651    0.0000 O   0  0  0  0  0  0  0  0  0  0  0  0
    2.6200    1.9330    0.0000 O   0  0  0  0  0  0  0  0  0  0  0  0
    3.2540   -1.1651    0.0000 C   0  0  0  0  0  0  0  0  0  0  0  0
    4.1200   -0.6651    0.0000 C   0  0  1  0  0  0  0  0  0  0  0  0
    3.2540   -2.1651    0.0000 C   0  0  0  0  0  0  0  0  0  0  0  0
    4.9860   -1.1651    0.0000 C   0  0  0  0  0  0  0  0  0  0  0  0
    2.2540   -1.1651    0.0000 C   0  0  0  0  0  0  0  0  0  0  0  0
    2.4879   -0.5223    0.0000 C   0  0  0  0  0  0  0  0  0  0  0  0
    4.1200   -2.6651    0.0000 C   0  0  0  0  0  0  0  0  0  0  0  0
    4.6200    0.2010    0.0000 C   0  0  0  0  0  0  0  0  0  0  0  0
    4.9860   -2.1651    0.0000 C   0  0  0  0  0  0  0  0  0  0  0  0
    5.8520   -0.6651    0.0000 C   0  0  0  0  0  0  0  0  0  0  0  0
    4.1200    1.0670    0.0000 C   0  0  0  0  0  0  0  0  0  0  0  0
    4.6200    1.9330    0.0000 C   0  0  0  0  0  0  0  0  0  0  0  0
    5.6200    1.9330    0.0000 C   0  0  0  0  0  0  0  0  0  0  0  0
    4.1200    2.7990    0.0000 C   0  0  0  0  0  0  0  0  0  0  0  0
    3.1200    2.7990    0.0000 C   0  0  0  0  0  0  0  0  0  0  0  0
    2.6434   -2.0574    0.0000 H   0  0  0  0  0  0  0  0  0  0  0  0
    3.0419   -2.7477    0.0000 H   0  0  0  0  0  0  0  0  0  0  0  0
    2.2540   -0.5451    0.0000 H   0  0  0  0  0  0  0  0  0  0  0  0
    1.6340   -1.1651    0.0000 H   0  0  0  0  0  0  0  0  0  0  0  0
    2.2540   -1.7851    0.0000 H   0  0  0  0  0  0  0  0  0  0  0  0
    2.8865   -0.0473    0.0000 H   0  0  0  0  0  0  0  0  0  0  0  0
    2.0130   -0.1237    0.0000 H   0  0  0  0  0  0  0  0  0  0  0  0
    2.0894   -0.9972    0.0000 H   0  0  0  0  0  0  0  0  0  0  0  0
    5.2400    0.2010    0.0000 H   0  0  0  0  0  0  0  0  0  0  0  0
    5.5230   -2.4751    0.0000 H   0  0  0  0  0  0  0  0  0  0  0  0
    3.0000    0.2010    0.0000 H   0  0  0  0  0  0  0  0  0  0  0  0
    6.1620   -1.2020    0.0000 H   0  0  0  0  0  0  0  0  0  0  0  0
    6.3890   -0.3551    0.0000 H   0  0  0  0  0  0  0  0  0  0  0  0
    5.5420   -0.1281    0.0000 H   0  0  0  0  0  0  0  0  0  0  0  0
    3.5000    1.0670    0.0000 H   0  0  0  0  0  0  0  0  0  0  0  0
    5.6200    1.3130    0.0000 H   0  0  0  0  0  0  0  0  0  0  0  0
    6.2400    1.9330    0.0000 H   0  0  0  0  0  0  0  0  0  0  0  0
    5.6200    2.5530    0.0000 H   0  0  0  0  0  0  0  0  0  0  0  0
    4.4300    3.3360    0.0000 H   0  0  0  0  0  0  0  0  0  0  0  0
    2.0000    3.6651    0.0000 H   0  0  0  0  0  0  0  0  0  0  0  0
  6  1  1  6  0  0  0
  1 30  1  0  0  0  0
  2 11  2  0  0  0  0
  3 19  1  0  0  0  0
  3 39  1  0  0  0  0
  4 19  2  0  0  0  0
  5  6  1  0  0  0  0
  5  7  1  0  0  0  0
  5  9  1  0  0  0  0
  5 10  1  0  0  0  0
  6  8  1  0  0  0  0
  6 12  1  0  0  0  0
  7 11  1  0  0  0  0
  7 20  1  0  0  0  0
  7 21  1  0  0  0  0
  8 13  2  0  0  0  0
  8 14  1  0  0  0  0
  9 22  1  0  0  0  0
  9 23  1  0  0  0  0
  9 24  1  0  0  0  0
 10 25  1  0  0  0  0
 10 26  1  0  0  0  0
 10 27  1  0  0  0  0
 11 13  1  0  0  0  0
 12 15  2  0  0  0  0
 12 28  1  0  0  0  0
 13 29  1  0  0  0  0
 14 31  1  0  0  0  0
 14 32  1  0  0  0  0
 14 33  1  0  0  0  0
 15 16  1  0  0  0  0
 15 34  1  0  0  0  0
 16 17  1  0  0  0  0
 16 18  2  0  0  0  0
 17 35  1  0  0  0  0
 17 36  1  0  0  0  0
 17 37  1  0  0  0  0
 18 19  1  0  0  0  0
 18 38  1  0  0  0  0
M  END
> <PUBCHEM_COMPOUND_CID>
5280896

> <PUBCHEM_COMPOUND_CANONICALIZED>
1

> <PUBCHEM_CACTVS_COMPLEXITY>
494

> <PUBCHEM_CACTVS_HBOND_ACCEPTOR>
4

> <PUBCHEM_CACTVS_HBOND_DONOR>
2

> <PUBCHEM_CACTVS_ROTATABLE_BOND>
3

> <PUBCHEM_CACTVS_SUBSKEYS>
AAADceBwOAAAAAAAAAAAAAAAAAAAAAAAAAAgAAAAAAAAAAAAAAAAGgAACAAADkSAgAACCAAAAgCIAqDSCAAAAAAgAAAICAEAAEgIBBIAAQAAUAAEgAAIkQOKiAAPgAAAAAAAAAAAAAAAAAAAAAAAAAAAAA==

> <PUBCHEM_IUPAC_OPENEYE_NAME>
(2Z,4E)-5-[(1S)-1-hydroxy-2,6,6-trimethyl-4-oxo-cyclohex-2-en-1-yl]-3-methyl-penta-2,4-dienoic acid

> <PUBCHEM_IUPAC_CAS_NAME>
(2Z,4E)-5-[(1S)-1-hydroxy-2,6,6-trimethyl-4-oxo-1-cyclohex-2-enyl]-3-methylpenta-2,4-dienoic acid

> <PUBCHEM_IUPAC_NAME>
(2Z,4E)-5-[(1S)-1-hydroxy-2,6,6-trimethyl-4-oxocyclohex-2-en-1-yl]-3-methylpenta-2,4-dienoic acid

> <PUBCHEM_IUPAC_SYSTEMATIC_NAME>
(2Z,4E)-3-methyl-5-[(1S)-2,6,6-trimethyl-1-oxidanyl-4-oxidanylidene-cyclohex-2-en-1-yl]penta-2,4-dienoic acid

> <PUBCHEM_IUPAC_TRADITIONAL_NAME>
(2Z,4E)-5-[(1S)-1-hydroxy-4-keto-2,6,6-trimethyl-cyclohex-2-en-1-yl]-3-methyl-penta-2,4-dienoic acid

> <PUBCHEM_IUPAC_INCHI>
InChI=1S/C15H20O4/c1-10(7-13(17)18)5-6-15(19)11(2)8-12(16)9-14(15,3)4/h5-8,19H,9H2,1-4H3,(H,17,18)/b6-5+,10-7-/t15-/m1/s1

> <PUBCHEM_IUPAC_INCHIKEY>
JLIDBLDQVAYHNE-YKALOCIXSA-N

> <PUBCHEM_XLOGP3_AA>
1.6

> <PUBCHEM_EXACT_MASS>
264.136159

> <PUBCHEM_MOLECULAR_FORMULA>
C15H20O4

> <PUBCHEM_MOLECULAR_WEIGHT>
264.3169

> <PUBCHEM_OPENEYE_CAN_SMILES>
CC1=CC(=O)CC(C1(C=CC(=CC(=O)O)C)O)(C)C

> <PUBCHEM_OPENEYE_ISO_SMILES>
CC1=CC(=O)CC([C@]1(/C=C/C(=C\C(=O)O)/C)O)(C)C

> <PUBCHEM_CACTVS_TPSA>
74.6

> <PUBCHEM_MONOISOTOPIC_WEIGHT>
264.136159

> <PUBCHEM_TOTAL_CHARGE>
0

> <PUBCHEM_HEAVY_ATOM_COUNT>
19

> <PUBCHEM_ATOM_DEF_STEREO_COUNT>
1

> <PUBCHEM_ATOM_UDEF_STEREO_COUNT>
0

> <PUBCHEM_BOND_DEF_STEREO_COUNT>
2

> <PUBCHEM_BOND_UDEF_STEREO_COUNT>
0

> <PUBCHEM_ISOTOPIC_ATOM_COUNT>
0

> <PUBCHEM_COMPONENT_COUNT>
1

> <PUBCHEM_CACTVS_TAUTO_COUNT>
5

> <PUBCHEM_COORDINATE_TYPE>
1
5
255

> <PUBCHEM_BONDANNOTATIONS>
6  1  6

$$$$

