17396232
  -OEChem-06241222552D

 51 54  0     0  0  0  0  0  0999 V2000
    3.7320   -1.3170    0.0000 O   0  0  0  0  0  0  0  0  0  0  0  0
    7.1962   -0.3170    0.0000 O   0  0  0  0  0  0  0  0  0  0  0  0
    6.3301    4.1830    0.0000 O   0  0  0  0  0  0  0  0  0  0  0  0
    4.5981   -2.8170    0.0000 N   0  0  0  0  0  0  0  0  0  0  0  0
    5.4641   -0.3170    0.0000 N   0  0  0  0  0  0  0  0  0  0  0  0
    5.4641    2.6830    0.0000 N   0  0  0  0  0  0  0  0  0  0  0  0
    5.4641    1.6830    0.0000 N   0  0  0  0  0  0  0  0  0  0  0  0
    3.7320   -3.3170    0.0000 C   0  0  0  0  0  0  0  0  0  0  0  0
    2.7320   -3.3170    0.0000 C   0  0  0  0  0  0  0  0  0  0  0  0
    3.2320   -4.1830    0.0000 C   0  0  0  0  0  0  0  0  0  0  0  0
    4.5981   -1.8170    0.0000 C   0  0  0  0  0  0  0  0  0  0  0  0
    5.4641   -1.3170    0.0000 C   0  0  0  0  0  0  0  0  0  0  0  0
    6.3301    0.1830    0.0000 C   0  0  0  0  0  0  0  0  0  0  0  0
    6.3301    1.1830    0.0000 C   0  0  0  0  0  0  0  0  0  0  0  0
    7.1962    1.6830    0.0000 C   0  0  0  0  0  0  0  0  0  0  0  0
    4.5981    0.1830    0.0000 C   0  0  0  0  0  0  0  0  0  0  0  0
    7.1962    2.6830    0.0000 C   0  0  0  0  0  0  0  0  0  0  0  0
    4.5981    3.1830    0.0000 C   0  0  0  0  0  0  0  0  0  0  0  0
    6.3301    3.1830    0.0000 C   0  0  0  0  0  0  0  0  0  0  0  0
    8.0901    1.1484    0.0000 C   0  0  0  0  0  0  0  0  0  0  0  0
    8.0901    3.2177    0.0000 C   0  0  0  0  0  0  0  0  0  0  0  0
    3.7320    2.6830    0.0000 C   0  0  0  0  0  0  0  0  0  0  0  0
    8.9962    1.6622    0.0000 C   0  0  0  0  0  0  0  0  0  0  0  0
    8.9962    2.7038    0.0000 C   0  0  0  0  0  0  0  0  0  0  0  0
    2.8660    3.1830    0.0000 C   0  0  0  0  0  0  0  0  0  0  0  0
    3.7320    1.6830    0.0000 C   0  0  0  0  0  0  0  0  0  0  0  0
    2.0000    2.6830    0.0000 C   0  0  0  0  0  0  0  0  0  0  0  0
    2.8660    1.1830    0.0000 C   0  0  0  0  0  0  0  0  0  0  0  0
    2.0000    1.6830    0.0000 C   0  0  0  0  0  0  0  0  0  0  0  0
    4.1705   -3.7554    0.0000 H   0  0  0  0  0  0  0  0  0  0  0  0
    2.6244   -2.7064    0.0000 H   0  0  0  0  0  0  0  0  0  0  0  0
    2.1494   -3.5290    0.0000 H   0  0  0  0  0  0  0  0  0  0  0  0
    2.7571   -4.5815    0.0000 H   0  0  0  0  0  0  0  0  0  0  0  0
    3.7070   -4.5815    0.0000 H   0  0  0  0  0  0  0  0  0  0  0  0
    5.1350   -3.1270    0.0000 H   0  0  0  0  0  0  0  0  0  0  0  0
    5.6762   -1.8996    0.0000 H   0  0  0  0  0  0  0  0  0  0  0  0
    6.0747   -1.2093    0.0000 H   0  0  0  0  0  0  0  0  0  0  0  0
    4.9081    0.7199    0.0000 H   0  0  0  0  0  0  0  0  0  0  0  0
    4.0611    0.4930    0.0000 H   0  0  0  0  0  0  0  0  0  0  0  0
    4.2881   -0.3539    0.0000 H   0  0  0  0  0  0  0  0  0  0  0  0
    4.9966    3.6580    0.0000 H   0  0  0  0  0  0  0  0  0  0  0  0
    4.1996    3.6580    0.0000 H   0  0  0  0  0  0  0  0  0  0  0  0
    8.0829    0.5284    0.0000 H   0  0  0  0  0  0  0  0  0  0  0  0
    8.0829    3.8376    0.0000 H   0  0  0  0  0  0  0  0  0  0  0  0
    9.5319    1.3501    0.0000 H   0  0  0  0  0  0  0  0  0  0  0  0
    9.5319    3.0159    0.0000 H   0  0  0  0  0  0  0  0  0  0  0  0
    2.8660    3.8030    0.0000 H   0  0  0  0  0  0  0  0  0  0  0  0
    4.2690    1.3730    0.0000 H   0  0  0  0  0  0  0  0  0  0  0  0
    1.4631    2.9930    0.0000 H   0  0  0  0  0  0  0  0  0  0  0  0
    2.8660    0.5630    0.0000 H   0  0  0  0  0  0  0  0  0  0  0  0
    1.4631    1.3730    0.0000 H   0  0  0  0  0  0  0  0  0  0  0  0
  1 11  2  0  0  0  0
  2 13  2  0  0  0  0
  3 19  2  0  0  0  0
  4  8  1  0  0  0  0
  4 11  1  0  0  0  0
  4 35  1  0  0  0  0
  5 12  1  0  0  0  0
  5 13  1  0  0  0  0
  5 16  1  0  0  0  0
  6  7  1  0  0  0  0
  6 18  1  0  0  0  0
  6 19  1  0  0  0  0
  7 14  2  0  0  0  0
  8  9  1  0  0  0  0
  8 10  1  0  0  0  0
  8 30  1  0  0  0  0
  9 10  1  0  0  0  0
  9 31  1  0  0  0  0
  9 32  1  0  0  0  0
 10 33  1  0  0  0  0
 10 34  1  0  0  0  0
 11 12  1  0  0  0  0
 12 36  1  0  0  0  0
 12 37  1  0  0  0  0
 13 14  1  0  0  0  0
 14 15  1  0  0  0  0
 15 17  1  0  0  0  0
 15 20  2  0  0  0  0
 16 38  1  0  0  0  0
 16 39  1  0  0  0  0
 16 40  1  0  0  0  0
 17 19  1  0  0  0  0
 17 21  2  0  0  0  0
 18 22  1  0  0  0  0
 18 41  1  0  0  0  0
 18 42  1  0  0  0  0
 20 23  1  0  0  0  0
 20 43  1  0  0  0  0
 21 24  1  0  0  0  0
 21 44  1  0  0  0  0
 22 25  2  0  0  0  0
 22 26  1  0  0  0  0
 23 24  2  0  0  0  0
 23 45  1  0  0  0  0
 24 46  1  0  0  0  0
 25 27  1  0  0  0  0
 25 47  1  0  0  0  0
 26 28  2  0  0  0  0
 26 48  1  0  0  0  0
 27 29  2  0  0  0  0
 27 49  1  0  0  0  0
 28 29  1  0  0  0  0
 28 50  1  0  0  0  0
 29 51  1  0  0  0  0
M  END
> <PUBCHEM_COMPOUND_CID>
17396232

> <PUBCHEM_COMPOUND_CANONICALIZED>
1

> <PUBCHEM_CACTVS_COMPLEXITY>
682

> <PUBCHEM_CACTVS_HBOND_ACCEPTOR>
4

> <PUBCHEM_CACTVS_HBOND_DONOR>
1

> <PUBCHEM_CACTVS_ROTATABLE_BOND>
6

> <PUBCHEM_CACTVS_SUBSKEYS>
AAADceB7sAAAAAAAAAAAAAAAGAAAAAAAAAAwYIAAAAAAAACBQAAAHgAYAAAADCjBmAQyAIPAAACoAyFyEACSAAAkAAAaiIGoBNgIYLKAlTGUIQhgngCIiYcYi4COgAAAAAAQAAAAAAAAACAAAAAAAAAAAA==

> <PUBCHEM_IUPAC_OPENEYE_NAME>
3-benzyl-N-[2-(cyclopropylamino)-2-oxo-ethyl]-N-methyl-4-oxo-phthalazine-1-carboxamide

> <PUBCHEM_IUPAC_CAS_NAME>
N-[2-(cyclopropylamino)-2-oxoethyl]-N-methyl-4-oxo-3-(phenylmethyl)-1-phthalazinecarboxamide

> <PUBCHEM_IUPAC_NAME>
3-benzyl-N-[2-(cyclopropylamino)-2-oxoethyl]-N-methyl-4-oxophthalazine-1-carboxamide

> <PUBCHEM_IUPAC_SYSTEMATIC_NAME>
N-[2-(cyclopropylamino)-2-oxidanylidene-ethyl]-N-methyl-4-oxidanylidene-3-(phenylmethyl)phthalazine-1-carboxamide

> <PUBCHEM_IUPAC_TRADITIONAL_NAME>
3-benzyl-N-[2-(cyclopropylamino)-2-keto-ethyl]-4-keto-N-methyl-phthalazine-1-carboxamide

> <PUBCHEM_IUPAC_INCHI>
InChI=1S/C22H22N4O3/c1-25(14-19(27)23-16-11-12-16)22(29)20-17-9-5-6-10-18(17)21(28)26(24-20)13-15-7-3-2-4-8-15/h2-10,16H,11-14H2,1H3,(H,23,27)

> <PUBCHEM_IUPAC_INCHIKEY>
FENYVGXCSUNBBL-UHFFFAOYSA-N

> <PUBCHEM_XLOGP3_AA>
2.2

> <PUBCHEM_EXACT_MASS>
390.169191

> <PUBCHEM_MOLECULAR_FORMULA>
C22H22N4O3

> <PUBCHEM_MOLECULAR_WEIGHT>
390.43508

> <PUBCHEM_OPENEYE_CAN_SMILES>
CN(CC(=O)NC1CC1)C(=O)C2=NN(C(=O)C3=CC=CC=C32)CC4=CC=CC=C4

> <PUBCHEM_OPENEYE_ISO_SMILES>
CN(CC(=O)NC1CC1)C(=O)C2=NN(C(=O)C3=CC=CC=C32)CC4=CC=CC=C4

> <PUBCHEM_CACTVS_TPSA>
82.1

> <PUBCHEM_MONOISOTOPIC_WEIGHT>
390.169191

> <PUBCHEM_TOTAL_CHARGE>
0

> <PUBCHEM_HEAVY_ATOM_COUNT>
29

> <PUBCHEM_ATOM_DEF_STEREO_COUNT>
0

> <PUBCHEM_ATOM_UDEF_STEREO_COUNT>
0

> <PUBCHEM_BOND_DEF_STEREO_COUNT>
0

> <PUBCHEM_BOND_UDEF_STEREO_COUNT>
0

> <PUBCHEM_ISOTOPIC_ATOM_COUNT>
0

> <PUBCHEM_COMPONENT_COUNT>
1

> <PUBCHEM_CACTVS_TAUTO_COUNT>
2

> <PUBCHEM_COORDINATE_TYPE>
1
5
255

> <PUBCHEM_BONDANNOTATIONS>
14  15  8
15  17  8
15  20  8
17  19  8
17  21  8
20  23  8
21  24  8
22  25  8
22  26  8
23  24  8
25  27  8
26  28  8
27  29  8
28  29  8
6  19  8
6  7  8
7  14  8

$$$$

