181814
  -OEChem-07051212562D

 78 82  0     1  0  0  0  0  0999 V2000
    4.3939    0.2492    0.0000 O   0  0  0  0  0  0  0  0  0  0  0  0
    7.8769    1.4322    0.0000 O   0  0  0  0  0  0  0  0  0  0  0  0
    8.1067   -0.6031    0.0000 O   0  0  0  0  0  0  0  0  0  0  0  0
    6.8955    4.5430    0.0000 O   0  0  0  0  0  0  0  0  0  0  0  0
    5.2189   -4.5430    0.0000 O   0  0  0  0  0  0  0  0  0  0  0  0
    8.9111    0.0428    0.0000 O   0  0  0  0  0  0  0  0  0  0  0  0
    8.2945   -2.3250    0.0000 O   0  0  0  0  0  0  0  0  0  0  0  0
    2.9005   -1.2179    0.0000 O   0  0  0  0  0  0  0  0  0  0  0  0
    3.6537   -2.7775    0.0000 O   0  0  0  0  0  0  0  0  0  0  0  0
    5.3078    0.6563    0.0000 C   0  0  1  0  0  0  0  0  0  0  0  0
    6.1168    1.2441    0.0000 C   0  0  2  0  0  0  0  0  0  0  0  0
    4.4987    1.2441    0.0000 C   0  0  1  0  0  0  0  0  0  0  0  0
    5.8078    2.1951    0.0000 C   0  0  1  0  0  0  0  0  0  0  0  0
    4.8078    2.1951    0.0000 C   0  0  0  0  0  0  0  0  0  0  0  0
    7.0748    0.8351    0.0000 C   0  0  2  0  0  0  0  0  0  0  0  0
    5.4006   -0.3812    0.0000 C   0  0  0  0  0  0  0  0  0  0  0  0
    6.3489   -0.8122    0.0000 C   0  0  2  0  0  0  0  0  0  0  0  0
    7.1916   -0.1999    0.0000 C   0  0  2  0  0  0  0  0  0  0  0  0
    6.9258    1.8319    0.0000 C   0  0  0  0  0  0  0  0  0  0  0  0
    6.4496   -1.8071    0.0000 C   0  0  1  0  0  0  0  0  0  0  0  0
    6.3955    3.0042    0.0000 C   0  0  0  0  0  0  0  0  0  0  0  0
    5.4547   -1.9078    0.0000 C   0  0  2  0  0  0  0  0  0  0  0  0
    4.4363   -0.6457    0.0000 C   0  0  0  0  0  0  0  0  0  0  0  0
    7.2609   -1.2224    0.0000 C   0  0  0  0  0  0  0  0  0  0  0  0
    5.0444   -2.8198    0.0000 C   0  0  0  0  0  0  0  0  0  0  0  0
    7.0343   -2.6184    0.0000 C   0  0  0  0  0  0  0  0  0  0  0  0
    7.3955    3.0042    0.0000 C   0  0  0  0  0  0  0  0  0  0  0  0
    6.0865    3.9552    0.0000 C   0  0  0  0  0  0  0  0  0  0  0  0
    4.6278   -1.3454    0.0000 C   0  0  0  0  0  0  0  0  0  0  0  0
    5.6291   -3.6310    0.0000 C   0  0  0  0  0  0  0  0  0  0  0  0
    6.6240   -3.5303    0.0000 C   0  0  0  0  0  0  0  0  0  0  0  0
    8.7951    1.0361    0.0000 C   0  0  0  0  0  0  0  0  0  0  0  0
    4.2332   -3.4044    0.0000 C   0  0  0  0  0  0  0  0  0  0  0  0
    4.1325   -2.4095    0.0000 C   0  0  0  0  0  0  0  0  0  0  0  0
    8.6976   -1.4099    0.0000 C   0  0  0  0  0  0  0  0  0  0  0  0
    7.7046    3.9552    0.0000 C   0  0  0  0  0  0  0  0  0  0  0  0
    3.7274   -1.7803    0.0000 C   0  0  0  0  0  0  0  0  0  0  0  0
    9.5973    1.6332    0.0000 C   0  0  0  0  0  0  0  0  0  0  0  0
    9.6917   -1.3015    0.0000 C   0  0  0  0  0  0  0  0  0  0  0  0
    2.0000   -1.6528    0.0000 C   0  0  0  0  0  0  0  0  0  0  0  0
    3.6673    1.4209    0.0000 H   0  0  0  0  0  0  0  0  0  0  0  0
    5.5263    2.7476    0.0000 H   0  0  0  0  0  0  0  0  0  0  0  0
    4.8726    2.8118    0.0000 H   0  0  0  0  0  0  0  0  0  0  0  0
    4.2013    2.3240    0.0000 H   0  0  0  0  0  0  0  0  0  0  0  0
    7.6436    0.5884    0.0000 H   0  0  0  0  0  0  0  0  0  0  0  0
    5.6584   -1.3078    0.0000 H   0  0  0  0  0  0  0  0  0  0  0  0
    7.6911    0.1674    0.0000 H   0  0  0  0  0  0  0  0  0  0  0  0
    7.2902    1.3303    0.0000 H   0  0  0  0  0  0  0  0  0  0  0  0
    7.4274    2.1963    0.0000 H   0  0  0  0  0  0  0  0  0  0  0  0
    6.5614    2.3335    0.0000 H   0  0  0  0  0  0  0  0  0  0  0  0
    5.6070   -1.3068    0.0000 H   0  0  0  0  0  0  0  0  0  0  0  0
    3.9953   -0.2098    0.0000 H   0  0  0  0  0  0  0  0  0  0  0  0
    4.2793   -1.2455    0.0000 H   0  0  0  0  0  0  0  0  0  0  0  0
    7.6234   -1.7254    0.0000 H   0  0  0  0  0  0  0  0  0  0  0  0
    7.7639   -0.8599    0.0000 H   0  0  0  0  0  0  0  0  0  0  0  0
    6.8984   -0.7194    0.0000 H   0  0  0  0  0  0  0  0  0  0  0  0
    7.6511   -2.5559    0.0000 H   0  0  0  0  0  0  0  0  0  0  0  0
    7.7600    2.5026    0.0000 H   0  0  0  0  0  0  0  0  0  0  0  0
    5.4969    4.1468    0.0000 H   0  0  0  0  0  0  0  0  0  0  0  0
    5.0602   -0.9011    0.0000 H   0  0  0  0  0  0  0  0  0  0  0  0
    4.2653   -0.8424    0.0000 H   0  0  0  0  0  0  0  0  0  0  0  0
    6.9865   -4.0333    0.0000 H   0  0  0  0  0  0  0  0  0  0  0  0
    3.8707   -2.9014    0.0000 H   0  0  0  0  0  0  0  0  0  0  0  0
    3.7302   -3.7669    0.0000 H   0  0  0  0  0  0  0  0  0  0  0  0
    4.5957   -3.9074    0.0000 H   0  0  0  0  0  0  0  0  0  0  0  0
    4.3868   -1.8441    0.0000 H   0  0  0  0  0  0  0  0  0  0  0  0
    3.5671   -2.1551    0.0000 H   0  0  0  0  0  0  0  0  0  0  0  0
    3.8781   -2.9749    0.0000 H   0  0  0  0  0  0  0  0  0  0  0  0
    8.2942    4.1468    0.0000 H   0  0  0  0  0  0  0  0  0  0  0  0
    9.9675    1.1358    0.0000 H   0  0  0  0  0  0  0  0  0  0  0  0
   10.0946    2.0034    0.0000 H   0  0  0  0  0  0  0  0  0  0  0  0
    9.2271    2.1305    0.0000 H   0  0  0  0  0  0  0  0  0  0  0  0
    9.7589   -1.9179    0.0000 H   0  0  0  0  0  0  0  0  0  0  0  0
   10.3081   -1.2343    0.0000 H   0  0  0  0  0  0  0  0  0  0  0  0
    9.6246   -0.6852    0.0000 H   0  0  0  0  0  0  0  0  0  0  0  0
    1.7304   -1.0945    0.0000 H   0  0  0  0  0  0  0  0  0  0  0  0
    1.4417   -1.9225    0.0000 H   0  0  0  0  0  0  0  0  0  0  0  0
    2.2696   -2.2111    0.0000 H   0  0  0  0  0  0  0  0  0  0  0  0
 10  1  1  6  0  0  0
  1 12  1  0  0  0  0
 15  2  1  1  0  0  0
  2 32  1  0  0  0  0
 18  3  1  1  0  0  0
  3 35  1  0  0  0  0
  4 28  1  0  0  0  0
  4 36  1  0  0  0  0
  5 30  2  0  0  0  0
  6 32  2  0  0  0  0
  7 35  2  0  0  0  0
  8 37  1  0  0  0  0
  8 40  1  0  0  0  0
  9 37  2  0  0  0  0
 10 11  1  0  0  0  0
 10 12  1  0  0  0  0
 10 16  1  0  0  0  0
 11 13  1  0  0  0  0
 11 15  1  0  0  0  0
 11 19  1  1  0  0  0
 12 14  1  0  0  0  0
 12 41  1  1  0  0  0
 13 14  1  0  0  0  0
 13 21  1  1  0  0  0
 13 42  1  0  0  0  0
 14 43  1  0  0  0  0
 14 44  1  0  0  0  0
 15 18  1  0  0  0  0
 15 45  1  0  0  0  0
 16 17  1  0  0  0  0
 16 23  2  0  0  0  0
 17 18  1  0  0  0  0
 17 20  1  0  0  0  0
 17 46  1  1  0  0  0
 18 47  1  0  0  0  0
 19 48  1  0  0  0  0
 19 49  1  0  0  0  0
 19 50  1  0  0  0  0
 20 22  1  0  0  0  0
 20 24  1  6  0  0  0
 20 26  1  0  0  0  0
 21 27  1  0  0  0  0
 21 28  2  0  0  0  0
 22 25  1  0  0  0  0
 22 29  1  6  0  0  0
 22 51  1  0  0  0  0
 23 52  1  0  0  0  0
 23 53  1  0  0  0  0
 24 54  1  0  0  0  0
 24 55  1  0  0  0  0
 24 56  1  0  0  0  0
 25 30  1  0  0  0  0
 25 33  1  0  0  0  0
 25 34  1  0  0  0  0
 26 31  2  0  0  0  0
 26 57  1  0  0  0  0
 27 36  2  0  0  0  0
 27 58  1  0  0  0  0
 28 59  1  0  0  0  0
 29 37  1  0  0  0  0
 29 60  1  0  0  0  0
 29 61  1  0  0  0  0
 30 31  1  0  0  0  0
 31 62  1  0  0  0  0
 32 38  1  0  0  0  0
 33 63  1  0  0  0  0
 33 64  1  0  0  0  0
 33 65  1  0  0  0  0
 34 66  1  0  0  0  0
 34 67  1  0  0  0  0
 34 68  1  0  0  0  0
 35 39  1  0  0  0  0
 36 69  1  0  0  0  0
 38 70  1  0  0  0  0
 38 71  1  0  0  0  0
 38 72  1  0  0  0  0
 39 73  1  0  0  0  0
 39 74  1  0  0  0  0
 39 75  1  0  0  0  0
 40 76  1  0  0  0  0
 40 77  1  0  0  0  0
 40 78  1  0  0  0  0
M  END
> <PUBCHEM_COMPOUND_CID>
181814

> <PUBCHEM_COMPOUND_CANONICALIZED>
1

> <PUBCHEM_CACTVS_COMPLEXITY>
1170

> <PUBCHEM_CACTVS_HBOND_ACCEPTOR>
9

> <PUBCHEM_CACTVS_HBOND_DONOR>
0

> <PUBCHEM_CACTVS_ROTATABLE_BOND>
9

> <PUBCHEM_CACTVS_SUBSKEYS>
AAADcfB4PAAAAAAAAAAAAAAAEgAAAaIAAAA0QIAAAAAAAGCRgAAAGgAAAAAAD1SgmAIyDIAABECIAqjSiAACCAAkIAAIiAEGCMgNJhIENQqCGSClwBEKKYPI7vzvgAAAAAAAAADCAAYQADCAAYAADAAAAA==

> <PUBCHEM_IUPAC_OPENEYE_NAME>
methyl 2-[(1R,2S)-2-[(1aR,3S,3aR,4R,5S,6R,7aS)-4,5-diacetoxy-3-(3-furyl)-3a-methyl-7-methylene-1a,2,3,4,5,6-hexahydroindeno[1,7a-b]oxiren-6-yl]-2,6,6-trimethyl-5-oxo-cyclohex-3-en-1-yl]acetate

> <PUBCHEM_IUPAC_CAS_NAME>
2-[(1R,2S)-2-[(1aR,3S,3aR,4R,5S,6R,7aS)-4,5-diacetyloxy-3-(3-furanyl)-3a-methyl-7-methylene-1a,2,3,4,5,6-hexahydroindeno[1,7a-b]oxiren-6-yl]-2,6,6-trimethyl-5-oxo-1-cyclohex-3-enyl]acetic acid methyl ester

> <PUBCHEM_IUPAC_NAME>
methyl 2-[(1R,2S)-2-[(1aR,3S,3aR,4R,5S,6R,7aS)-4,5-diacetyloxy-3-(furan-3-yl)-3a-methyl-7-methylidene-1a,2,3,4,5,6-hexahydroindeno[1,7a-b]oxiren-6-yl]-2,6,6-trimethyl-5-oxocyclohex-3-en-1-yl]acetate

> <PUBCHEM_IUPAC_SYSTEMATIC_NAME>
methyl 2-[(1R,2S)-2-[(1aR,3S,3aR,4R,5S,6R,7aS)-4,5-diacetyloxy-3-(furan-3-yl)-3a-methyl-7-methylidene-1a,2,3,4,5,6-hexahydroindeno[1,7a-b]oxiren-6-yl]-2,6,6-trimethyl-5-oxidanylidene-cyclohex-3-en-1-yl]ethanoate

> <PUBCHEM_IUPAC_TRADITIONAL_NAME>
2-[(1R,2S)-2-[(1aR,3S,3aR,4R,5S,6R,7aS)-4,5-diacetoxy-3-(3-furyl)-3a-methyl-7-methylene-1a,2,3,4,5,6-hexahydroindeno[1,7a-b]oxiren-6-yl]-5-keto-2,6,6-trimethyl-cyclohex-3-en-1-yl]acetic acid methyl ester

> <PUBCHEM_IUPAC_INCHI>
InChI=1S/C31H38O9/c1-16-25(29(6)11-9-22(34)28(4,5)21(29)14-24(35)36-8)26(38-17(2)32)27(39-18(3)33)30(7)20(19-10-12-37-15-19)13-23-31(16,30)40-23/h9-12,15,20-21,23,25-27H,1,13-14H2,2-8H3/t20-,21-,23+,25+,26-,27-,29-,30+,31+/m0/s1

> <PUBCHEM_IUPAC_INCHIKEY>
RRBQYKQIAKFGIS-AMVRVENBSA-N

> <PUBCHEM_XLOGP3_AA>
3

> <PUBCHEM_EXACT_MASS>
554.251583

> <PUBCHEM_MOLECULAR_FORMULA>
C31H38O9

> <PUBCHEM_MOLECULAR_WEIGHT>
554.62802

> <PUBCHEM_OPENEYE_CAN_SMILES>
CC(=O)OC1C(C(=C)C23C(O2)CC(C3(C1OC(=O)C)C)C4=COC=C4)C5(C=CC(=O)C(C5CC(=O)OC)(C)C)C

> <PUBCHEM_OPENEYE_ISO_SMILES>
CC(=O)O[C@H]1[C@@H](C(=C)[C@]23[C@H](O2)C[C@H]([C@@]3([C@H]1OC(=O)C)C)C4=COC=C4)[C@]5(C=CC(=O)C([C@@H]5CC(=O)OC)(C)C)C

> <PUBCHEM_CACTVS_TPSA>
122

> <PUBCHEM_MONOISOTOPIC_WEIGHT>
554.251583

> <PUBCHEM_TOTAL_CHARGE>
0

> <PUBCHEM_HEAVY_ATOM_COUNT>
40

> <PUBCHEM_ATOM_DEF_STEREO_COUNT>
9

> <PUBCHEM_ATOM_UDEF_STEREO_COUNT>
0

> <PUBCHEM_BOND_DEF_STEREO_COUNT>
0

> <PUBCHEM_BOND_UDEF_STEREO_COUNT>
0

> <PUBCHEM_ISOTOPIC_ATOM_COUNT>
0

> <PUBCHEM_COMPONENT_COUNT>
1

> <PUBCHEM_CACTVS_TAUTO_COUNT>
1

> <PUBCHEM_COORDINATE_TYPE>
1
5
255

> <PUBCHEM_BONDANNOTATIONS>
10  1  6
11  19  5
12  41  5
13  21  5
17  46  5
15  2  5
20  24  6
21  27  8
21  28  8
22  29  6
27  36  8
18  3  5
4  28  8
4  36  8

$$$$

