   Color/Form

     * Stongly refractive liquid, becoming yellowish on keeping
     * Colorless or yellowish, strongly refractive volatile oil

   from [1]HSDB

   Odor

     * Characteristic odor or volatile oil of almond
     * Oil of bitter almond

   from [2]HSDB

   Taste

     * Burning aromatic taste
     * Similar to bitter almond

   from [3]HSDB

   Boiling Point
        179 deg C
   from [4]HSDB

   Melting Point
        -26 deg C
   from [5]HSDB

   Critical Temperature and Pressure
        Critical temperature: 695 K; critical pressure 4.65 MPa
   from [6]HSDB

   Density/Specific Gravity
        1.050 at 15 deg C/4 deg C
   from [7]HSDB

   Dissociation Constants
        pKa = 14.90
   from [8]HSDB

   Heat of Combustion
        -3525.0 kJ/mol
   from [9]HSDB

   Heat of Vaporization
        42.5 kJ/mol at 179.0 deg C
   from [10]HSDB

   Octanol/Water Partition Coefficient
        log Kow = 1.48
   from [11]HSDB

   Solubilities

     * Approximately 0.6% wt. at 20 deg C
     * Miscible with alcohol, ether, fixed and volatile oils
     * SOL IN LIQ AMMONIA
     * Solubility of water in benzaldehyde @ 20 deg C, wt%: 1.5
     * In water, 6.95 g/L at 25 deg C

   from [12]HSDB

   Spectral Properties

     * Index of refraction: 1.5456 at 20 deg C/D
     * MAX ABSORPTION (CYCLOHEXANE): 241 NM (LOG E= 4.15); 247 NM SHOULDER
       (LOG E= 4.06); 277.5 NM (LOG E= 3.08); 287 NM SHOULDER (LOG E=
       3.00); SADTLER REFERENCE NUMBER: 3010 (IR, PRISM); 868 (UV)
     * IR: 364 (Sadtler Research Laboratories IR grating)
     * UV: 6-106 (Philip et al, Organic Electronic Spectral Data, John
       Wiley & Sons, New York)
     * 1H NMR: 151 (Varian Associates NMR spectra collection)
     * MASS: 53622 (NIST/EPA/MSDC Mass Spectral Database, 1990 version)
     * 13C NMR: 229 (Johnson and Jankowski, Carbon-13 NMR Spectra, John
       Wiley & Sons, New York)

   from [13]HSDB

   Surface Tension
        39.63 N/m at 10 deg C; 38.00 N/m at 25 deg C; 35.27 N/m at 50 deg
   C; 32.55 N/m at 75 deg C; 29.82 N/m at 100 deg C
   from [14]HSDB

   Vapor Density
        3.66 (Air= 1)
   from [15]HSDB

   Vapor Pressure
        0.127 mm Hg at 25 deg C
   from [16]HSDB

   Viscosity
        1.321 cp at 25 deg C
   from [17]HSDB

   Other Chemical/Physical Properties

     * Oxidizes in air to benzoic acid
     * Freezing point: -56.9 deg C
     * It reduces ammoniacal silver nitrate, but not Fehling's solution.
       ...Volatile with steam.
     * Standard enthalpy of formation: -87.0 kJ/molm (liquid); molar heat
       capacity at 298.15 K: 172.0 J/mol K (liquid)
     * Henry's Law constant = 2.6X10-5 atm-cu m/mole at 25 deg C
     * Hydroxyl radical reaction rate constant = 1.29X10-11 cu
       cm/molec-sec at 25 deg C

   from [18]HSDB

   Computed Properties
   Molecular Weight                  106.12194 [g/mol]
   Molecular Formula                 C[7]H[6]O
   XLogP3                            1.5
   H-Bond Donor                      0
   H-Bond Acceptor                   1
   Rotatable Bond Count              1
   Exact Mass                        106.041865
   MonoIsotopic Mass                 106.041865
   Topological Polar Surface Area    17.1
   Heavy Atom Count                  8
   Formal Charge                     0
   Complexity                        72.5
   Isotope Atom Count                0
   Defined Atom Stereocenter Count   0
   Undefined Atom Stereocenter Count 0
   Defined Bond Stereocenter Count   0
   Undefined Bond Stereocenter Count 0
   Covalently-Bonded Unit Count      1
   Feature 3D Acceptor Count         1
   Feature 3D Ring Count             1
   Effective Rotor Count             1
   Conformer Sampling RMSD           0.4
   CID Conformer Count               [19]1

References

   1. http://toxnet.nlm.nih.gov/cgi-bin/sis/search/r?dbs+hsdb:@term+@rn+@rel+100-52-7
   2. http://toxnet.nlm.nih.gov/cgi-bin/sis/search/r?dbs+hsdb:@term+@rn+@rel+100-52-7
   3. http://toxnet.nlm.nih.gov/cgi-bin/sis/search/r?dbs+hsdb:@term+@rn+@rel+100-52-7
   4. http://toxnet.nlm.nih.gov/cgi-bin/sis/search/r?dbs+hsdb:@term+@rn+@rel+100-52-7
   5. http://toxnet.nlm.nih.gov/cgi-bin/sis/search/r?dbs+hsdb:@term+@rn+@rel+100-52-7
   6. http://toxnet.nlm.nih.gov/cgi-bin/sis/search/r?dbs+hsdb:@term+@rn+@rel+100-52-7
   7. http://toxnet.nlm.nih.gov/cgi-bin/sis/search/r?dbs+hsdb:@term+@rn+@rel+100-52-7
   8. http://toxnet.nlm.nih.gov/cgi-bin/sis/search/r?dbs+hsdb:@term+@rn+@rel+100-52-7
   9. http://toxnet.nlm.nih.gov/cgi-bin/sis/search/r?dbs+hsdb:@term+@rn+@rel+100-52-7
  10. http://toxnet.nlm.nih.gov/cgi-bin/sis/search/r?dbs+hsdb:@term+@rn+@rel+100-52-7
  11. http://toxnet.nlm.nih.gov/cgi-bin/sis/search/r?dbs+hsdb:@term+@rn+@rel+100-52-7
  12. http://toxnet.nlm.nih.gov/cgi-bin/sis/search/r?dbs+hsdb:@term+@rn+@rel+100-52-7
  13. http://toxnet.nlm.nih.gov/cgi-bin/sis/search/r?dbs+hsdb:@term+@rn+@rel+100-52-7
  14. http://toxnet.nlm.nih.gov/cgi-bin/sis/search/r?dbs+hsdb:@term+@rn+@rel+100-52-7
  15. http://toxnet.nlm.nih.gov/cgi-bin/sis/search/r?dbs+hsdb:@term+@rn+@rel+100-52-7
  16. http://toxnet.nlm.nih.gov/cgi-bin/sis/search/r?dbs+hsdb:@term+@rn+@rel+100-52-7
  17. http://toxnet.nlm.nih.gov/cgi-bin/sis/search/r?dbs+hsdb:@term+@rn+@rel+100-52-7
  18. http://toxnet.nlm.nih.gov/cgi-bin/sis/search/r?dbs+hsdb:@term+@rn+@rel+100-52-7
  19. http://pubchem.ncbi.nlm.nih.gov/vw3d/vw3d.cgi?cid=240
