442025
  -OEChem-07051212562D

 28 30  0     1  0  0  0  0  0999 V2000
    7.0547   -0.2724    0.0000 N   0  0  0  0  0  0  0  0  0  0  0  0
    4.5274    0.8518    0.0000 N   0  0  0  0  0  0  0  0  0  0  0  0
    6.3518    0.4963    0.0000 C   0  0  1  0  0  0  0  0  0  0  0  0
    5.3364    0.2640    0.0000 C   0  0  0  0  0  0  0  0  0  0  0  0
    5.0274   -0.6871    0.0000 C   0  0  0  0  0  0  0  0  0  0  0  0
    5.7123   -1.4718    0.0000 C   0  0  0  0  0  0  0  0  0  0  0  0
    6.7328   -1.2631    0.0000 C   0  0  0  0  0  0  0  0  0  0  0  0
    4.0274   -0.6871    0.0000 C   0  0  0  0  0  0  0  0  0  0  0  0
    3.7183    0.2640    0.0000 C   0  0  0  0  0  0  0  0  0  0  0  0
    6.6498    1.4508    0.0000 C   0  0  0  0  0  0  0  0  0  0  0  0
    3.3424   -1.4718    0.0000 C   0  0  0  0  0  0  0  0  0  0  0  0
    2.7029    0.4963    0.0000 C   0  0  0  0  0  0  0  0  0  0  0  0
    2.3219   -1.2631    0.0000 C   0  0  0  0  0  0  0  0  0  0  0  0
    2.0000   -0.2724    0.0000 C   0  0  0  0  0  0  0  0  0  0  0  0
    6.9570    0.6310    0.0000 H   0  0  0  0  0  0  0  0  0  0  0  0
    5.1824   -1.7936    0.0000 H   0  0  0  0  0  0  0  0  0  0  0  0
    5.9387   -2.0490    0.0000 H   0  0  0  0  0  0  0  0  0  0  0  0
    6.7513   -1.8828    0.0000 H   0  0  0  0  0  0  0  0  0  0  0  0
    7.3466   -1.3510    0.0000 H   0  0  0  0  0  0  0  0  0  0  0  0
    7.6607   -0.1412    0.0000 H   0  0  0  0  0  0  0  0  0  0  0  0
    4.5274    1.4718    0.0000 H   0  0  0  0  0  0  0  0  0  0  0  0
    7.2416    1.2661    0.0000 H   0  0  0  0  0  0  0  0  0  0  0  0
    6.8345    2.0426    0.0000 H   0  0  0  0  0  0  0  0  0  0  0  0
    6.0580    1.6356    0.0000 H   0  0  0  0  0  0  0  0  0  0  0  0
    3.5408   -2.0592    0.0000 H   0  0  0  0  0  0  0  0  0  0  0  0
    2.5182    1.0881    0.0000 H   0  0  0  0  0  0  0  0  0  0  0  0
    1.9088   -1.7254    0.0000 H   0  0  0  0  0  0  0  0  0  0  0  0
    1.3940   -0.1412    0.0000 H   0  0  0  0  0  0  0  0  0  0  0  0
  1  3  1  0  0  0  0
  1  7  1  0  0  0  0
  1 20  1  0  0  0  0
  2  4  1  0  0  0  0
  2  9  1  0  0  0  0
  2 21  1  0  0  0  0
  3  4  1  0  0  0  0
  3 10  1  1  0  0  0
  3 15  1  0  0  0  0
  4  5  2  0  0  0  0
  5  6  1  0  0  0  0
  5  8  1  0  0  0  0
  6  7  1  0  0  0  0
  6 16  1  0  0  0  0
  6 17  1  0  0  0  0
  7 18  1  0  0  0  0
  7 19  1  0  0  0  0
  8  9  1  0  0  0  0
  8 11  2  0  0  0  0
  9 12  2  0  0  0  0
 10 22  1  0  0  0  0
 10 23  1  0  0  0  0
 10 24  1  0  0  0  0
 11 13  1  0  0  0  0
 11 25  1  0  0  0  0
 12 14  1  0  0  0  0
 12 26  1  0  0  0  0
 13 14  2  0  0  0  0
 13 27  1  0  0  0  0
 14 28  1  0  0  0  0
M  END
> <PUBCHEM_COMPOUND_CID>
442025

> <PUBCHEM_COMPOUND_CANONICALIZED>
1

> <PUBCHEM_CACTVS_COMPLEXITY>
216

> <PUBCHEM_CACTVS_HBOND_ACCEPTOR>
1

> <PUBCHEM_CACTVS_HBOND_DONOR>
2

> <PUBCHEM_CACTVS_ROTATABLE_BOND>
0

> <PUBCHEM_CACTVS_SUBSKEYS>
AAADccBzAAAAAAAAAAAAAAAAAAAAAWAAAAA8QAAAAAAAAFgB8AAAHAAQAAAADCjBHgQywPLJkACgAyRiRACCgCAhAiAImaA4ZJgIYOLAkZGUIAhgkADIyAcQgMAOgAAAAAACAAAAAAAAAAQAAAAAAAAAAA==

> <PUBCHEM_IUPAC_OPENEYE_NAME>
(1R)-1-methyl-2,3,4,9-tetrahydro-1H-pyrido[3,4-b]indole

> <PUBCHEM_IUPAC_CAS_NAME>
(1R)-1-methyl-2,3,4,9-tetrahydro-1H-pyrido[3,4-b]indole

> <PUBCHEM_IUPAC_NAME>
(1R)-1-methyl-2,3,4,9-tetrahydro-1H-pyrido[3,4-b]indole

> <PUBCHEM_IUPAC_SYSTEMATIC_NAME>
(1R)-1-methyl-2,3,4,9-tetrahydro-1H-pyrido[3,4-b]indole

> <PUBCHEM_IUPAC_TRADITIONAL_NAME>
(1R)-1-methyl-2,3,4,9-tetrahydro-1H-$b-carboline

> <PUBCHEM_IUPAC_INCHI>
InChI=1S/C12H14N2/c1-8-12-10(6-7-13-8)9-4-2-3-5-11(9)14-12/h2-5,8,13-14H,6-7H2,1H3/t8-/m1/s1

> <PUBCHEM_IUPAC_INCHIKEY>
LPIJOZBIVDCQTE-MRVPVSSYSA-N

> <PUBCHEM_XLOGP3_AA>
1.9

> <PUBCHEM_EXACT_MASS>
186.115698

> <PUBCHEM_MOLECULAR_FORMULA>
C12H14N2

> <PUBCHEM_MOLECULAR_WEIGHT>
186.25296

> <PUBCHEM_OPENEYE_CAN_SMILES>
CC1C2=C(CCN1)C3=CC=CC=C3N2

> <PUBCHEM_OPENEYE_ISO_SMILES>
C[C@@H]1C2=C(CCN1)C3=CC=CC=C3N2

> <PUBCHEM_CACTVS_TPSA>
27.8

> <PUBCHEM_MONOISOTOPIC_WEIGHT>
186.115698

> <PUBCHEM_TOTAL_CHARGE>
0

> <PUBCHEM_HEAVY_ATOM_COUNT>
14

> <PUBCHEM_ATOM_DEF_STEREO_COUNT>
1

> <PUBCHEM_ATOM_UDEF_STEREO_COUNT>
0

> <PUBCHEM_BOND_DEF_STEREO_COUNT>
0

> <PUBCHEM_BOND_UDEF_STEREO_COUNT>
0

> <PUBCHEM_ISOTOPIC_ATOM_COUNT>
0

> <PUBCHEM_COMPONENT_COUNT>
1

> <PUBCHEM_CACTVS_TAUTO_COUNT>
1

> <PUBCHEM_COORDINATE_TYPE>
1
5
255

> <PUBCHEM_BONDANNOTATIONS>
11  13  8
12  14  8
13  14  8
2  4  8
2  9  8
3  10  5
4  5  8
5  8  8
8  11  8
8  9  8
9  12  8

$$$$

