47205300
  -OEChem-06241222582D

 40 41  0     1  0  0  0  0  0999 V2000
    2.8090   -0.0194    0.0000 O   0  0  0  0  0  0  0  0  0  0  0  0
    6.2731   -3.0194    0.0000 O   0  0  0  0  0  0  0  0  0  0  0  0
    4.5411   -3.0194    0.0000 O   0  0  0  0  0  0  0  0  0  0  0  0
    5.4071   -1.5194    0.0000 N   0  0  0  0  0  0  0  0  0  0  0  0
    3.6750    1.4806    0.0000 N   0  0  0  0  0  0  0  0  0  0  0  0
    3.6180    3.5684    0.0000 N   0  0  0  0  0  0  0  0  0  0  0  0
    3.3090    4.5194    0.0000 N   0  0  0  0  0  0  0  0  0  0  0  0
    4.5411   -0.0194    0.0000 C   0  0  3  0  0  0  0  0  0  0  0  0
    5.4071    0.4806    0.0000 C   0  0  0  0  0  0  0  0  0  0  0  0
    4.5411   -1.0194    0.0000 C   0  0  0  0  0  0  0  0  0  0  0  0
    6.2731   -0.0194    0.0000 C   0  0  0  0  0  0  0  0  0  0  0  0
    6.2731   -1.0194    0.0000 C   0  0  0  0  0  0  0  0  0  0  0  0
    3.6750    0.4806    0.0000 C   0  0  0  0  0  0  0  0  0  0  0  0
    5.4071   -2.5194    0.0000 C   0  0  0  0  0  0  0  0  0  0  0  0
    2.8090    1.9806    0.0000 C   0  0  0  0  0  0  0  0  0  0  0  0
    2.8090    2.9806    0.0000 C   0  0  0  0  0  0  0  0  0  0  0  0
    6.2731   -4.0194    0.0000 C   0  0  0  0  0  0  0  0  0  0  0  0
    2.0000    3.5684    0.0000 C   0  0  0  0  0  0  0  0  0  0  0  0
    7.1391   -4.5194    0.0000 C   0  0  0  0  0  0  0  0  0  0  0  0
    2.3090    4.5194    0.0000 C   0  0  0  0  0  0  0  0  0  0  0  0
    4.0041   -0.3294    0.0000 H   0  0  0  0  0  0  0  0  0  0  0  0
    5.8056    0.9555    0.0000 H   0  0  0  0  0  0  0  0  0  0  0  0
    5.0086    0.9555    0.0000 H   0  0  0  0  0  0  0  0  0  0  0  0
    3.9305   -0.9118    0.0000 H   0  0  0  0  0  0  0  0  0  0  0  0
    4.3290   -1.6020    0.0000 H   0  0  0  0  0  0  0  0  0  0  0  0
    6.8837   -0.1271    0.0000 H   0  0  0  0  0  0  0  0  0  0  0  0
    6.4852    0.5632    0.0000 H   0  0  0  0  0  0  0  0  0  0  0  0
    6.4852   -1.6020    0.0000 H   0  0  0  0  0  0  0  0  0  0  0  0
    6.8837   -0.9118    0.0000 H   0  0  0  0  0  0  0  0  0  0  0  0
    4.2120    1.7906    0.0000 H   0  0  0  0  0  0  0  0  0  0  0  0
    2.1984    2.0882    0.0000 H   0  0  0  0  0  0  0  0  0  0  0  0
    2.5970    1.3980    0.0000 H   0  0  0  0  0  0  0  0  0  0  0  0
    5.6625   -3.9118    0.0000 H   0  0  0  0  0  0  0  0  0  0  0  0
    6.0611   -4.6020    0.0000 H   0  0  0  0  0  0  0  0  0  0  0  0
    1.4103    3.3768    0.0000 H   0  0  0  0  0  0  0  0  0  0  0  0
    4.2077    3.3768    0.0000 H   0  0  0  0  0  0  0  0  0  0  0  0
    6.8291   -5.0564    0.0000 H   0  0  0  0  0  0  0  0  0  0  0  0
    7.6761   -4.8294    0.0000 H   0  0  0  0  0  0  0  0  0  0  0  0
    7.4491   -3.9825    0.0000 H   0  0  0  0  0  0  0  0  0  0  0  0
    1.9446    5.0210    0.0000 H   0  0  0  0  0  0  0  0  0  0  0  0
  1 13  2  0  0  0  0
  2 14  1  0  0  0  0
  2 17  1  0  0  0  0
  3 14  2  0  0  0  0
  4 10  1  0  0  0  0
  4 12  1  0  0  0  0
  4 14  1  0  0  0  0
  5 13  1  0  0  0  0
  5 15  1  0  0  0  0
  5 30  1  0  0  0  0
  6  7  1  0  0  0  0
  6 16  1  0  0  0  0
  6 36  1  0  0  0  0
  7 20  2  0  0  0  0
  8  9  1  0  0  0  0
  8 10  1  0  0  0  0
  8 13  1  0  0  0  0
  8 21  1  0  0  0  0
  9 11  1  0  0  0  0
  9 22  1  0  0  0  0
  9 23  1  0  0  0  0
 10 24  1  0  0  0  0
 10 25  1  0  0  0  0
 11 12  1  0  0  0  0
 11 26  1  0  0  0  0
 11 27  1  0  0  0  0
 12 28  1  0  0  0  0
 12 29  1  0  0  0  0
 15 16  1  0  0  0  0
 15 31  1  0  0  0  0
 15 32  1  0  0  0  0
 16 18  2  0  0  0  0
 17 19  1  0  0  0  0
 17 33  1  0  0  0  0
 17 34  1  0  0  0  0
 18 20  1  0  0  0  0
 18 35  1  0  0  0  0
 19 37  1  0  0  0  0
 19 38  1  0  0  0  0
 19 39  1  0  0  0  0
 20 40  1  0  0  0  0
M  END
> <PUBCHEM_COMPOUND_CID>
47205300

> <PUBCHEM_COMPOUND_CANONICALIZED>
1

> <PUBCHEM_CACTVS_COMPLEXITY>
351

> <PUBCHEM_CACTVS_HBOND_ACCEPTOR>
4

> <PUBCHEM_CACTVS_HBOND_DONOR>
2

> <PUBCHEM_CACTVS_ROTATABLE_BOND>
5

> <PUBCHEM_CACTVS_SUBSKEYS>
AAADceBzsAAAAAAAAAAAAAAAAAAAAWAAAAAsAAAAAAAAAAABgAAAHgAYAAAADQjhlgY+iJPjBACqATV3WACQBAAgggAYOaE4ZBgAYJoAwcEchAhAHgCAQAAYAQAMAAAAAAAAAAAAAAAAAAAAAAAAAAAAAA==

> <PUBCHEM_IUPAC_OPENEYE_NAME>
ethyl 3-(1H-pyrazol-5-ylmethylcarbamoyl)piperidine-1-carboxylate

> <PUBCHEM_IUPAC_CAS_NAME>
3-[oxo-(1H-pyrazol-5-ylmethylamino)methyl]-1-piperidinecarboxylic acid ethyl ester

> <PUBCHEM_IUPAC_NAME>
ethyl 3-(1H-pyrazol-5-ylmethylcarbamoyl)piperidine-1-carboxylate

> <PUBCHEM_IUPAC_SYSTEMATIC_NAME>
ethyl 3-(1H-pyrazol-5-ylmethylcarbamoyl)piperidine-1-carboxylate

> <PUBCHEM_IUPAC_TRADITIONAL_NAME>
3-(1H-pyrazol-5-ylmethylcarbamoyl)piperidine-1-carboxylic acid ethyl ester

> <PUBCHEM_IUPAC_INCHI>
InChI=1S/C13H20N4O3/c1-2-20-13(19)17-7-3-4-10(9-17)12(18)14-8-11-5-6-15-16-11/h5-6,10H,2-4,7-9H2,1H3,(H,14,18)(H,15,16)

> <PUBCHEM_IUPAC_INCHIKEY>
GVSYBCABZGVTIV-UHFFFAOYSA-N

> <PUBCHEM_XLOGP3_AA>
0.1

> <PUBCHEM_EXACT_MASS>
280.153541

> <PUBCHEM_MOLECULAR_FORMULA>
C13H20N4O3

> <PUBCHEM_MOLECULAR_WEIGHT>
280.3229

> <PUBCHEM_OPENEYE_CAN_SMILES>
CCOC(=O)N1CCCC(C1)C(=O)NCC2=CC=NN2

> <PUBCHEM_OPENEYE_ISO_SMILES>
CCOC(=O)N1CCCC(C1)C(=O)NCC2=CC=NN2

> <PUBCHEM_CACTVS_TPSA>
87.3

> <PUBCHEM_MONOISOTOPIC_WEIGHT>
280.153541

> <PUBCHEM_TOTAL_CHARGE>
0

> <PUBCHEM_HEAVY_ATOM_COUNT>
20

> <PUBCHEM_ATOM_DEF_STEREO_COUNT>
0

> <PUBCHEM_ATOM_UDEF_STEREO_COUNT>
1

> <PUBCHEM_BOND_DEF_STEREO_COUNT>
0

> <PUBCHEM_BOND_UDEF_STEREO_COUNT>
0

> <PUBCHEM_ISOTOPIC_ATOM_COUNT>
0

> <PUBCHEM_COMPONENT_COUNT>
1

> <PUBCHEM_CACTVS_TAUTO_COUNT>
4

> <PUBCHEM_COORDINATE_TYPE>
1
5
255

> <PUBCHEM_BONDANNOTATIONS>
16  18  8
18  20  8
6  16  8
6  7  8
7  20  8
8  13  3

$$$$

