8015
  -OEChem-06261202332D

  9  8  0     0  0  0  0  0  0999 V2000
    3.4030    0.3100    0.0000 N   0  0  0  0  0  0  0  0  0  0  0  0
    6.0010    0.8100    0.0000 N   0  0  0  0  0  0  0  0  0  0  0  0
    4.2690   -0.1900    0.0000 C   0  0  0  0  0  0  0  0  0  0  0  0
    5.1350    0.3100    0.0000 C   0  0  0  0  0  0  0  0  0  0  0  0
    2.5369   -0.1900    0.0000 C   0  0  0  0  0  0  0  0  0  0  0  0
    3.8705   -0.6649    0.0000 H   0  0  0  0  0  0  0  0  0  0  0  0
    4.6675   -0.6649    0.0000 H   0  0  0  0  0  0  0  0  0  0  0  0
    2.0000    0.1200    0.0000 H   0  0  0  0  0  0  0  0  0  0  0  0
    2.5369   -0.8100    0.0000 H   0  0  0  0  0  0  0  0  0  0  0  0
  1  3  1  0  0  0  0
  1  5  2  0  0  0  0
  2  4  3  0  0  0  0
  3  4  1  0  0  0  0
  3  6  1  0  0  0  0
  3  7  1  0  0  0  0
  5  8  1  0  0  0  0
  5  9  1  0  0  0  0
M  END
> <PUBCHEM_COMPOUND_CID>
8015

> <PUBCHEM_COMPOUND_CANONICALIZED>
1

> <PUBCHEM_CACTVS_COMPLEXITY>
66.2

> <PUBCHEM_CACTVS_HBOND_ACCEPTOR>
2

> <PUBCHEM_CACTVS_HBOND_DONOR>
0

> <PUBCHEM_CACTVS_ROTATABLE_BOND>
1

> <PUBCHEM_CACTVS_SUBSKEYS>
AAADcYBDAAAAAAAAAAAAAAAAAAAAAAAAAAAAAAAAAAAAAAAAAAAAHAAAAAAAAADBAAQAAAIAAAAwBAABBAAAAAAAAAAAAAAAAAAAAAAAAAAAAAAAAAAAAAAAAAAAAAAAAAAAAAAAAAAAAAAAAAAAAAAAAA==

> <PUBCHEM_IUPAC_OPENEYE_NAME>
2-(methyleneamino)acetonitrile

> <PUBCHEM_IUPAC_CAS_NAME>
2-(methyleneamino)acetonitrile

> <PUBCHEM_IUPAC_NAME>
2-(methylideneamino)acetonitrile

> <PUBCHEM_IUPAC_SYSTEMATIC_NAME>
2-(methylideneamino)ethanenitrile

> <PUBCHEM_IUPAC_TRADITIONAL_NAME>
2-(methyleneamino)acetonitrile

> <PUBCHEM_IUPAC_INCHI>
InChI=1S/C3H4N2/c1-5-3-2-4/h1,3H2

> <PUBCHEM_IUPAC_INCHIKEY>
GFZMFCVDDFHSJK-UHFFFAOYSA-N

> <PUBCHEM_XLOGP3_AA>
1.3

> <PUBCHEM_EXACT_MASS>
68.037448

> <PUBCHEM_MOLECULAR_FORMULA>
C3H4N2

> <PUBCHEM_MOLECULAR_WEIGHT>
68.07726

> <PUBCHEM_OPENEYE_CAN_SMILES>
C=NCC#N

> <PUBCHEM_OPENEYE_ISO_SMILES>
C=NCC#N

> <PUBCHEM_CACTVS_TPSA>
36.2

> <PUBCHEM_MONOISOTOPIC_WEIGHT>
68.037448

> <PUBCHEM_TOTAL_CHARGE>
0

> <PUBCHEM_HEAVY_ATOM_COUNT>
5

> <PUBCHEM_ATOM_DEF_STEREO_COUNT>
0

> <PUBCHEM_ATOM_UDEF_STEREO_COUNT>
0

> <PUBCHEM_BOND_DEF_STEREO_COUNT>
0

> <PUBCHEM_BOND_UDEF_STEREO_COUNT>
0

> <PUBCHEM_ISOTOPIC_ATOM_COUNT>
0

> <PUBCHEM_COMPONENT_COUNT>
1

> <PUBCHEM_CACTVS_TAUTO_COUNT>
1

> <PUBCHEM_COORDINATE_TYPE>
1
5
255

$$$$

