5280776
  -OEChem-07051212502D

 98 98  0     0  0  0  0  0  0999 V2000
    2.5369   -7.3450    0.0000 O   0  0  0  0  0  0  0  0  0  0  0  0
    2.5369   -9.3450    0.0000 O   0  0  0  0  0  0  0  0  0  0  0  0
    6.0010  -10.3450    0.0000 O   0  0  0  0  0  0  0  0  0  0  0  0
    6.8671   -8.8450    0.0000 O   0  0  0  0  0  0  0  0  0  0  0  0
    9.4651    1.6550    0.0000 C   0  0  0  0  0  0  0  0  0  0  0  0
    7.7331   -1.3450    0.0000 C   0  0  0  0  0  0  0  0  0  0  0  0
    9.4651    2.6550    0.0000 C   0  0  0  0  0  0  0  0  0  0  0  0
    7.7331   -0.3450    0.0000 C   0  0  0  0  0  0  0  0  0  0  0  0
    8.5991    1.1550    0.0000 C   0  0  0  0  0  0  0  0  0  0  0  0
   11.1972    4.6550    0.0000 C   0  0  0  0  0  0  0  0  0  0  0  0
    6.8671   -1.8450    0.0000 C   0  0  0  0  0  0  0  0  0  0  0  0
   10.3312    4.1550    0.0000 C   0  0  0  0  0  0  0  0  0  0  0  0
   11.1972    5.6550    0.0000 C   0  0  0  0  0  0  0  0  0  0  0  0
    6.0010   -3.3450    0.0000 C   0  0  0  0  0  0  0  0  0  0  0  0
    8.5991    0.1550    0.0000 C   0  0  0  0  0  0  0  0  0  0  0  0
    6.0010   -4.3450    0.0000 C   0  0  0  0  0  0  0  0  0  0  0  0
   10.3312    3.1550    0.0000 C   0  0  0  0  0  0  0  0  0  0  0  0
    6.8671   -2.8450    0.0000 C   0  0  0  0  0  0  0  0  0  0  0  0
    5.1350   -4.8450    0.0000 C   0  0  0  0  0  0  0  0  0  0  0  0
   12.0632    7.1550    0.0000 C   0  0  0  0  0  0  0  0  0  0  0  0
   12.0632    6.1550    0.0000 C   0  0  0  0  0  0  0  0  0  0  0  0
   12.9292    7.6550    0.0000 C   0  0  0  0  0  0  0  0  0  0  0  0
    7.7331    1.6550    0.0000 C   0  0  0  0  0  0  0  0  0  0  0  0
    6.0010   -1.3450    0.0000 C   0  0  0  0  0  0  0  0  0  0  0  0
    9.4651    4.6550    0.0000 C   0  0  0  0  0  0  0  0  0  0  0  0
    5.1350   -5.8450    0.0000 C   0  0  0  0  0  0  0  0  0  0  0  0
   12.9292    8.6550    0.0000 C   0  0  0  0  0  0  0  0  0  0  0  0
    4.2690   -6.3450    0.0000 C   0  0  0  0  0  0  0  0  0  0  0  0
    4.2690   -4.3450    0.0000 C   0  0  0  0  0  0  0  0  0  0  0  0
    4.2690   -7.3450    0.0000 C   0  0  0  0  0  0  0  0  0  0  0  0
   11.1972    7.6550    0.0000 C   0  0  0  0  0  0  0  0  0  0  0  0
   13.7953    9.1550    0.0000 C   0  0  0  0  0  0  0  0  0  0  0  0
    3.4030   -7.8450    0.0000 C   0  0  0  0  0  0  0  0  0  0  0  0
    5.1350   -7.8450    0.0000 C   0  0  0  0  0  0  0  0  0  0  0  0
   13.7953   10.1550    0.0000 C   0  0  0  0  0  0  0  0  0  0  0  0
    5.1350   -8.8450    0.0000 C   0  0  0  0  0  0  0  0  0  0  0  0
    3.4030   -8.8450    0.0000 C   0  0  0  0  0  0  0  0  0  0  0  0
    4.2690   -9.3450    0.0000 C   0  0  0  0  0  0  0  0  0  0  0  0
   14.6613   10.6550    0.0000 C   0  0  0  0  0  0  0  0  0  0  0  0
   12.9292   10.6550    0.0000 C   0  0  0  0  0  0  0  0  0  0  0  0
    6.0010   -9.3450    0.0000 C   0  0  0  0  0  0  0  0  0  0  0  0
    2.5369  -10.3450    0.0000 C   0  0  0  0  0  0  0  0  0  0  0  0
    9.6772    1.0724    0.0000 H   0  0  0  0  0  0  0  0  0  0  0  0
   10.0757    1.7627    0.0000 H   0  0  0  0  0  0  0  0  0  0  0  0
    7.9451   -1.9276    0.0000 H   0  0  0  0  0  0  0  0  0  0  0  0
    8.3437   -1.2373    0.0000 H   0  0  0  0  0  0  0  0  0  0  0  0
    9.2531    3.2376    0.0000 H   0  0  0  0  0  0  0  0  0  0  0  0
    8.8546    2.5473    0.0000 H   0  0  0  0  0  0  0  0  0  0  0  0
    7.5210    0.2376    0.0000 H   0  0  0  0  0  0  0  0  0  0  0  0
    7.1225   -0.4527    0.0000 H   0  0  0  0  0  0  0  0  0  0  0  0
   11.4092    4.0724    0.0000 H   0  0  0  0  0  0  0  0  0  0  0  0
   11.8078    4.7627    0.0000 H   0  0  0  0  0  0  0  0  0  0  0  0
   10.9851    6.2376    0.0000 H   0  0  0  0  0  0  0  0  0  0  0  0
   10.5866    5.5473    0.0000 H   0  0  0  0  0  0  0  0  0  0  0  0
    5.7890   -2.7624    0.0000 H   0  0  0  0  0  0  0  0  0  0  0  0
    5.3905   -3.4527    0.0000 H   0  0  0  0  0  0  0  0  0  0  0  0
    9.1360   -0.1550    0.0000 H   0  0  0  0  0  0  0  0  0  0  0  0
    6.2131   -4.9276    0.0000 H   0  0  0  0  0  0  0  0  0  0  0  0
    6.6116   -4.2373    0.0000 H   0  0  0  0  0  0  0  0  0  0  0  0
   10.8681    2.8450    0.0000 H   0  0  0  0  0  0  0  0  0  0  0  0
    7.4040   -3.1550    0.0000 H   0  0  0  0  0  0  0  0  0  0  0  0
   12.6002    5.8450    0.0000 H   0  0  0  0  0  0  0  0  0  0  0  0
   13.1413    7.0724    0.0000 H   0  0  0  0  0  0  0  0  0  0  0  0
   13.5398    7.7627    0.0000 H   0  0  0  0  0  0  0  0  0  0  0  0
    8.0431    2.1919    0.0000 H   0  0  0  0  0  0  0  0  0  0  0  0
    7.1962    1.9650    0.0000 H   0  0  0  0  0  0  0  0  0  0  0  0
    7.4231    1.1181    0.0000 H   0  0  0  0  0  0  0  0  0  0  0  0
    6.3110   -0.8081    0.0000 H   0  0  0  0  0  0  0  0  0  0  0  0
    5.4641   -1.0350    0.0000 H   0  0  0  0  0  0  0  0  0  0  0  0
    5.6910   -1.8819    0.0000 H   0  0  0  0  0  0  0  0  0  0  0  0
    9.7751    5.1919    0.0000 H   0  0  0  0  0  0  0  0  0  0  0  0
    8.9282    4.9650    0.0000 H   0  0  0  0  0  0  0  0  0  0  0  0
    9.1551    4.1181    0.0000 H   0  0  0  0  0  0  0  0  0  0  0  0
    5.6720   -6.1550    0.0000 H   0  0  0  0  0  0  0  0  0  0  0  0
   12.7172    9.2376    0.0000 H   0  0  0  0  0  0  0  0  0  0  0  0
   12.3187    8.5473    0.0000 H   0  0  0  0  0  0  0  0  0  0  0  0
    4.0569   -5.7624    0.0000 H   0  0  0  0  0  0  0  0  0  0  0  0
    3.6584   -6.4527    0.0000 H   0  0  0  0  0  0  0  0  0  0  0  0
    4.5790   -3.8081    0.0000 H   0  0  0  0  0  0  0  0  0  0  0  0
    3.7320   -4.0350    0.0000 H   0  0  0  0  0  0  0  0  0  0  0  0
    3.9590   -4.8819    0.0000 H   0  0  0  0  0  0  0  0  0  0  0  0
   11.5072    8.1919    0.0000 H   0  0  0  0  0  0  0  0  0  0  0  0
   10.6603    7.9650    0.0000 H   0  0  0  0  0  0  0  0  0  0  0  0
   10.8872    7.1181    0.0000 H   0  0  0  0  0  0  0  0  0  0  0  0
   14.3322    8.8450    0.0000 H   0  0  0  0  0  0  0  0  0  0  0  0
    5.6720   -7.5350    0.0000 H   0  0  0  0  0  0  0  0  0  0  0  0
    4.2690   -9.9650    0.0000 H   0  0  0  0  0  0  0  0  0  0  0  0
   13.2392   11.1919    0.0000 H   0  0  0  0  0  0  0  0  0  0  0  0
   14.9713   10.1181    0.0000 H   0  0  0  0  0  0  0  0  0  0  0  0
   15.1982   10.9650    0.0000 H   0  0  0  0  0  0  0  0  0  0  0  0
   14.3513   11.1919    0.0000 H   0  0  0  0  0  0  0  0  0  0  0  0
   12.3923   10.9650    0.0000 H   0  0  0  0  0  0  0  0  0  0  0  0
   12.6192   10.1181    0.0000 H   0  0  0  0  0  0  0  0  0  0  0  0
    2.0000   -7.6550    0.0000 H   0  0  0  0  0  0  0  0  0  0  0  0
    1.9169  -10.3450    0.0000 H   0  0  0  0  0  0  0  0  0  0  0  0
    2.5369  -10.9650    0.0000 H   0  0  0  0  0  0  0  0  0  0  0  0
    3.1569  -10.3450    0.0000 H   0  0  0  0  0  0  0  0  0  0  0  0
    6.5380  -10.6550    0.0000 H   0  0  0  0  0  0  0  0  0  0  0  0
  1 33  1  0  0  0  0
  1 94  1  0  0  0  0
  2 37  1  0  0  0  0
  2 42  1  0  0  0  0
  3 41  1  0  0  0  0
  3 98  1  0  0  0  0
  4 41  2  0  0  0  0
  5  7  1  0  0  0  0
  5  9  1  0  0  0  0
  5 43  1  0  0  0  0
  5 44  1  0  0  0  0
  6  8  1  0  0  0  0
  6 11  1  0  0  0  0
  6 45  1  0  0  0  0
  6 46  1  0  0  0  0
  7 17  1  0  0  0  0
  7 47  1  0  0  0  0
  7 48  1  0  0  0  0
  8 15  1  0  0  0  0
  8 49  1  0  0  0  0
  8 50  1  0  0  0  0
  9 15  2  0  0  0  0
  9 23  1  0  0  0  0
 10 12  1  0  0  0  0
 10 13  1  0  0  0  0
 10 51  1  0  0  0  0
 10 52  1  0  0  0  0
 11 18  2  0  0  0  0
 11 24  1  0  0  0  0
 12 17  2  0  0  0  0
 12 25  1  0  0  0  0
 13 21  1  0  0  0  0
 13 53  1  0  0  0  0
 13 54  1  0  0  0  0
 14 16  1  0  0  0  0
 14 18  1  0  0  0  0
 14 55  1  0  0  0  0
 14 56  1  0  0  0  0
 15 57  1  0  0  0  0
 16 19  1  0  0  0  0
 16 58  1  0  0  0  0
 16 59  1  0  0  0  0
 17 60  1  0  0  0  0
 18 61  1  0  0  0  0
 19 26  2  0  0  0  0
 19 29  1  0  0  0  0
 20 21  2  0  0  0  0
 20 22  1  0  0  0  0
 20 31  1  0  0  0  0
 21 62  1  0  0  0  0
 22 27  1  0  0  0  0
 22 63  1  0  0  0  0
 22 64  1  0  0  0  0
 23 65  1  0  0  0  0
 23 66  1  0  0  0  0
 23 67  1  0  0  0  0
 24 68  1  0  0  0  0
 24 69  1  0  0  0  0
 24 70  1  0  0  0  0
 25 71  1  0  0  0  0
 25 72  1  0  0  0  0
 25 73  1  0  0  0  0
 26 28  1  0  0  0  0
 26 74  1  0  0  0  0
 27 32  1  0  0  0  0
 27 75  1  0  0  0  0
 27 76  1  0  0  0  0
 28 30  1  0  0  0  0
 28 77  1  0  0  0  0
 28 78  1  0  0  0  0
 29 79  1  0  0  0  0
 29 80  1  0  0  0  0
 29 81  1  0  0  0  0
 30 33  2  0  0  0  0
 30 34  1  0  0  0  0
 31 82  1  0  0  0  0
 31 83  1  0  0  0  0
 31 84  1  0  0  0  0
 32 35  2  0  0  0  0
 32 85  1  0  0  0  0
 33 37  1  0  0  0  0
 34 36  2  0  0  0  0
 34 86  1  0  0  0  0
 35 39  1  0  0  0  0
 35 40  1  0  0  0  0
 36 38  1  0  0  0  0
 36 41  1  0  0  0  0
 37 38  2  0  0  0  0
 38 87  1  0  0  0  0
 39 89  1  0  0  0  0
 39 90  1  0  0  0  0
 39 91  1  0  0  0  0
 40 88  1  0  0  0  0
 40 92  1  0  0  0  0
 40 93  1  0  0  0  0
 42 95  1  0  0  0  0
 42 96  1  0  0  0  0
 42 97  1  0  0  0  0
M  END
> <PUBCHEM_COMPOUND_CID>
5280776

> <PUBCHEM_COMPOUND_CANONICALIZED>
1

> <PUBCHEM_CACTVS_COMPLEXITY>
987

> <PUBCHEM_CACTVS_HBOND_ACCEPTOR>
4

> <PUBCHEM_CACTVS_HBOND_DONOR>
2

> <PUBCHEM_CACTVS_ROTATABLE_BOND>
19

> <PUBCHEM_CACTVS_SUBSKEYS>
AAADcfB8OAAAAAAAAAAAAAAAAAAAAAAAAAAwAAAAAAAAAAABAAAAGgAACAAADASAmAIyDoAABgCIAiDSCAACCAAkIAAAiAEGiMgNJjKGNRqAcSMkwBELuYfK7PTOIAADAAAIQABAAAYAABCAAAAAAAAAAA==

> <PUBCHEM_IUPAC_OPENEYE_NAME>
3-[(2E,6E,10E,14E,18E)-3,7,11,15,19,23-hexamethyltetracosa-2,6,10,14,18,22-hexaenyl]-4-hydroxy-5-methoxy-benzoic acid

> <PUBCHEM_IUPAC_CAS_NAME>
3-[(2E,6E,10E,14E,18E)-3,7,11,15,19,23-hexamethyltetracosa-2,6,10,14,18,22-hexaenyl]-4-hydroxy-5-methoxybenzoic acid

> <PUBCHEM_IUPAC_NAME>
3-[(2E,6E,10E,14E,18E)-3,7,11,15,19,23-hexamethyltetracosa-2,6,10,14,18,22-hexaenyl]-4-hydroxy-5-methoxybenzoic acid

> <PUBCHEM_IUPAC_SYSTEMATIC_NAME>
3-[(2E,6E,10E,14E,18E)-3,7,11,15,19,23-hexamethyltetracosa-2,6,10,14,18,22-hexaenyl]-5-methoxy-4-oxidanyl-benzoic acid

> <PUBCHEM_IUPAC_TRADITIONAL_NAME>
3-[(2E,6E,10E,14E,18E)-3,7,11,15,19,23-hexamethyltetracosa-2,6,10,14,18,22-hexaenyl]-4-hydroxy-5-methoxy-benzoic acid

> <PUBCHEM_IUPAC_INCHI>
InChI=1S/C38H56O4/c1-28(2)14-9-15-29(3)16-10-17-30(4)18-11-19-31(5)20-12-21-32(6)22-13-23-33(7)24-25-34-26-35(38(40)41)27-36(42-8)37(34)39/h14,16,18,20,22,24,26-27,39H,9-13,15,17,19,21,23,25H2,1-8H3,(H,40,41)/b29-16+,30-18+,31-20+,32-22+,33-24+

> <PUBCHEM_IUPAC_INCHIKEY>
YSZSVGFMAJXGMQ-FRICUITQSA-N

> <PUBCHEM_XLOGP3_AA>
12.3

> <PUBCHEM_EXACT_MASS>
576.41786

> <PUBCHEM_MOLECULAR_FORMULA>
C38H56O4

> <PUBCHEM_MOLECULAR_WEIGHT>
576.84884

> <PUBCHEM_OPENEYE_CAN_SMILES>
CC(=CCCC(=CCCC(=CCCC(=CCCC(=CCCC(=CCC1=C(C(=CC(=C1)C(=O)O)OC)O)C)C)C)C)C)C

> <PUBCHEM_OPENEYE_ISO_SMILES>
CC(=CCC/C(=C/CC/C(=C/CC/C(=C/CC/C(=C/CC/C(=C/CC1=C(C(=CC(=C1)C(=O)O)OC)O)/C)/C)/C)/C)/C)C

> <PUBCHEM_CACTVS_TPSA>
66.8

> <PUBCHEM_MONOISOTOPIC_WEIGHT>
576.41786

> <PUBCHEM_TOTAL_CHARGE>
0

> <PUBCHEM_HEAVY_ATOM_COUNT>
42

> <PUBCHEM_ATOM_DEF_STEREO_COUNT>
0

> <PUBCHEM_ATOM_UDEF_STEREO_COUNT>
0

> <PUBCHEM_BOND_DEF_STEREO_COUNT>
5

> <PUBCHEM_BOND_UDEF_STEREO_COUNT>
0

> <PUBCHEM_ISOTOPIC_ATOM_COUNT>
0

> <PUBCHEM_COMPONENT_COUNT>
1

> <PUBCHEM_CACTVS_TAUTO_COUNT>
5

> <PUBCHEM_COORDINATE_TYPE>
1
5
255

> <PUBCHEM_BONDANNOTATIONS>
30  33  8
30  34  8
33  37  8
34  36  8
36  38  8
37  38  8

$$$$

