46173732
  -OEChem-07051212492D

 63 65  0     1  0  0  0  0  0999 V2000
    7.4888   -1.4283    0.0000 P   0  0  3  0  0  0  0  0  0  0  0  0
    9.2208   -1.4283    0.0000 P   0  0  3  0  0  0  0  0  0  0  0  0
    4.7861    0.0662    0.0000 O   0  0  0  0  0  0  0  0  0  0  0  0
    3.7692   -2.3132    0.0000 O   0  0  0  0  0  0  0  0  0  0  0  0
    2.3135   -0.6964    0.0000 O   0  0  0  0  0  0  0  0  0  0  0  0
    6.6227   -0.9283    0.0000 O   0  0  0  0  0  0  0  0  0  0  0  0
   10.9528   -2.4283    0.0000 O   0  0  0  0  0  0  0  0  0  0  0  0
   10.0868   -0.9283    0.0000 O   0  0  0  0  0  0  0  0  0  0  0  0
   13.5509   -0.9283    0.0000 O   0  0  0  0  0  0  0  0  0  0  0  0
    8.3548   -1.9283    0.0000 O   0  0  0  0  0  0  0  0  0  0  0  0
   13.5509   -2.9283    0.0000 O   0  0  0  0  0  0  0  0  0  0  0  0
    4.9836    1.8922    0.0000 O   0  0  0  0  0  0  0  0  0  0  0  0
    6.9888   -2.2943    0.0000 O   0  0  0  0  0  0  0  0  0  0  0  0
    7.9888   -0.5623    0.0000 O   0  0  0  0  0  0  0  0  0  0  0  0
    8.7208   -0.5623    0.0000 O   0  0  0  0  0  0  0  0  0  0  0  0
    9.7208   -2.2943    0.0000 O   0  0  0  0  0  0  0  0  0  0  0  0
    2.1810    3.9283    0.0000 O   0  0  0  0  0  0  0  0  0  0  0  0
   10.0868    0.0717    0.0000 O   0  0  0  0  0  0  0  0  0  0  0  0
    3.4013    1.1877    0.0000 N   0  0  0  0  0  0  0  0  0  0  0  0
   11.8189    0.0717    0.0000 N   0  0  0  0  0  0  0  0  0  0  0  0
    3.5823    2.9102    0.0000 N   0  0  0  0  0  0  0  0  0  0  0  0
    3.9771   -1.3350    0.0000 C   0  0  1  0  0  0  0  0  0  0  0  0
    3.3080   -0.5919    0.0000 C   0  0  2  0  0  0  0  0  0  0  0  0
    4.8907   -0.9283    0.0000 C   0  0  1  0  0  0  0  0  0  0  0  0
    3.8080    0.2741    0.0000 C   0  0  1  0  0  0  0  0  0  0  0  0
    5.7567   -1.4283    0.0000 C   0  0  0  0  0  0  0  0  0  0  0  0
   11.8189   -0.9283    0.0000 C   0  0  1  0  0  0  0  0  0  0  0  0
   10.9528   -1.4283    0.0000 C   0  0  2  0  0  0  0  0  0  0  0  0
   12.6849   -1.4283    0.0000 C   0  0  2  0  0  0  0  0  0  0  0  0
   11.8189   -2.9283    0.0000 C   0  0  1  0  0  0  0  0  0  0  0  0
   12.6849   -2.4283    0.0000 C   0  0  0  0  0  0  0  0  0  0  0  0
    3.9890    1.9967    0.0000 C   0  0  0  0  0  0  0  0  0  0  0  0
    2.4067    1.2922    0.0000 C   0  0  0  0  0  0  0  0  0  0  0  0
   11.8189   -3.9283    0.0000 C   0  0  0  0  0  0  0  0  0  0  0  0
    2.0000    2.2058    0.0000 C   0  0  0  0  0  0  0  0  0  0  0  0
    2.5878    3.0148    0.0000 C   0  0  0  0  0  0  0  0  0  0  0  0
   10.9528    0.5717    0.0000 C   0  0  0  0  0  0  0  0  0  0  0  0
   10.9528    1.5717    0.0000 C   0  0  0  0  0  0  0  0  0  0  0  0
    4.4590   -1.7252    0.0000 H   0  0  0  0  0  0  0  0  0  0  0  0
    3.0858   -1.1707    0.0000 H   0  0  0  0  0  0  0  0  0  0  0  0
    5.4107   -0.5906    0.0000 H   0  0  0  0  0  0  0  0  0  0  0  0
    3.1888    0.3066    0.0000 H   0  0  0  0  0  0  0  0  0  0  0  0
    5.3582   -1.9033    0.0000 H   0  0  0  0  0  0  0  0  0  0  0  0
    6.1552   -1.9033    0.0000 H   0  0  0  0  0  0  0  0  0  0  0  0
   11.2819   -0.6183    0.0000 H   0  0  0  0  0  0  0  0  0  0  0  0
   10.9528   -0.8083    0.0000 H   0  0  0  0  0  0  0  0  0  0  0  0
   13.2218   -1.7383    0.0000 H   0  0  0  0  0  0  0  0  0  0  0  0
    3.1796   -2.5048    0.0000 H   0  0  0  0  0  0  0  0  0  0  0  0
    2.0613   -1.2628    0.0000 H   0  0  0  0  0  0  0  0  0  0  0  0
   11.2819   -3.2383    0.0000 H   0  0  0  0  0  0  0  0  0  0  0  0
    2.0423    0.7906    0.0000 H   0  0  0  0  0  0  0  0  0  0  0  0
   12.3558    0.3817    0.0000 H   0  0  0  0  0  0  0  0  0  0  0  0
   11.1989   -3.9283    0.0000 H   0  0  0  0  0  0  0  0  0  0  0  0
   11.8189   -4.5483    0.0000 H   0  0  0  0  0  0  0  0  0  0  0  0
   12.4389   -3.9283    0.0000 H   0  0  0  0  0  0  0  0  0  0  0  0
    3.9467    3.4118    0.0000 H   0  0  0  0  0  0  0  0  0  0  0  0
    1.3834    2.2706    0.0000 H   0  0  0  0  0  0  0  0  0  0  0  0
   14.0879   -1.2383    0.0000 H   0  0  0  0  0  0  0  0  0  0  0  0
    7.2988   -2.8313    0.0000 H   0  0  0  0  0  0  0  0  0  0  0  0
   11.5728    1.5717    0.0000 H   0  0  0  0  0  0  0  0  0  0  0  0
   10.9528    2.1917    0.0000 H   0  0  0  0  0  0  0  0  0  0  0  0
   10.3328    1.5717    0.0000 H   0  0  0  0  0  0  0  0  0  0  0  0
    9.0308   -0.0253    0.0000 H   0  0  0  0  0  0  0  0  0  0  0  0
  1  6  1  0  0  0  0
  1 10  1  0  0  0  0
  1 13  1  0  0  0  0
  1 14  2  0  0  0  0
  2  8  1  0  0  0  0
  2 10  1  0  0  0  0
  2 15  1  0  0  0  0
  2 16  2  0  0  0  0
  3 24  1  0  0  0  0
  3 25  1  0  0  0  0
 22  4  1  1  0  0  0
  4 48  1  0  0  0  0
 23  5  1  1  0  0  0
  5 49  1  0  0  0  0
  6 26  1  0  0  0  0
  7 28  1  0  0  0  0
  7 30  1  0  0  0  0
 28  8  1  6  0  0  0
 29  9  1  1  0  0  0
  9 58  1  0  0  0  0
 11 31  2  0  0  0  0
 12 32  2  0  0  0  0
 13 59  1  0  0  0  0
 15 63  1  0  0  0  0
 17 36  2  0  0  0  0
 18 37  2  0  0  0  0
 25 19  1  6  0  0  0
 19 32  1  0  0  0  0
 19 33  1  0  0  0  0
 27 20  1  6  0  0  0
 20 37  1  0  0  0  0
 20 52  1  0  0  0  0
 21 32  1  0  0  0  0
 21 36  1  0  0  0  0
 21 56  1  0  0  0  0
 22 23  1  0  0  0  0
 22 24  1  0  0  0  0
 22 39  1  0  0  0  0
 23 25  1  0  0  0  0
 23 40  1  0  0  0  0
 24 26  1  6  0  0  0
 24 41  1  0  0  0  0
 25 42  1  0  0  0  0
 26 43  1  0  0  0  0
 26 44  1  0  0  0  0
 27 28  1  0  0  0  0
 27 29  1  0  0  0  0
 27 45  1  0  0  0  0
 28 46  1  0  0  0  0
 29 31  1  0  0  0  0
 29 47  1  0  0  0  0
 30 31  1  0  0  0  0
 30 34  1  1  0  0  0
 30 50  1  0  0  0  0
 33 35  2  0  0  0  0
 33 51  1  0  0  0  0
 34 53  1  0  0  0  0
 34 54  1  0  0  0  0
 34 55  1  0  0  0  0
 35 36  1  0  0  0  0
 35 57  1  0  0  0  0
 37 38  1  0  0  0  0
 38 60  1  0  0  0  0
 38 61  1  0  0  0  0
 38 62  1  0  0  0  0
M  END
> <PUBCHEM_COMPOUND_CID>
46173732

> <PUBCHEM_COMPOUND_CANONICALIZED>
1

> <PUBCHEM_CACTVS_COMPLEXITY>
1100

> <PUBCHEM_CACTVS_HBOND_ACCEPTOR>
16

> <PUBCHEM_CACTVS_HBOND_DONOR>
7

> <PUBCHEM_CACTVS_ROTATABLE_BOND>
9

> <PUBCHEM_CACTVS_SUBSKEYS>
AAADceB7PgMAAAAAAAAAAAAAAAAAASAAAAAkQAAAAAAAAAAAAAAAHgAQCCAACDzxgAcDCAPABxCIQKFWUIKAAAAAAgAIAIFIAECTEBoAgAQPQAAPFyKXAMHycAYAAAAAAAAAAAAAAAAAAAAAAAAAAAAAAA==

> <PUBCHEM_IUPAC_OPENEYE_NAME>
[(2R,3R,4R,6R)-3-acetamido-4-hydroxy-6-methyl-5-oxo-tetrahydropyran-2-yl] [[(2R,3S,4R,5R)-5-(2,4-dioxopyrimidin-1-yl)-3,4-dihydroxy-tetrahydrofuran-2-yl]methoxy-hydroxy-phosphoryl] hydrogen phosphate

> <PUBCHEM_IUPAC_CAS_NAME>
[(2R,3R,4R,6R)-3-acetamido-4-hydroxy-6-methyl-5-oxo-2-oxanyl] [[(2R,3S,4R,5R)-5-(2,4-dioxo-1-pyrimidinyl)-3,4-dihydroxy-2-oxolanyl]methoxy-hydroxyphosphoryl] hydrogen phosphate

> <PUBCHEM_IUPAC_NAME>
[(2R,3R,4R,6R)-3-acetamido-4-hydroxy-6-methyl-5-oxooxan-2-yl] [[(2R,3S,4R,5R)-5-(2,4-dioxopyrimidin-1-yl)-3,4-dihydroxyoxolan-2-yl]methoxy-hydroxyphosphoryl] hydrogen phosphate

> <PUBCHEM_IUPAC_SYSTEMATIC_NAME>
[(2R,3R,4R,6R)-3-acetamido-6-methyl-4-oxidanyl-5-oxidanylidene-oxan-2-yl] [[(2R,3S,4R,5R)-5-[2,4-bis(oxidanylidene)pyrimidin-1-yl]-3,4-bis(oxidanyl)oxolan-2-yl]methoxy-oxidanyl-phosphoryl] hydrogen phosphate

> <PUBCHEM_IUPAC_TRADITIONAL_NAME>
[(2R,3R,4R,6R)-3-acetamido-4-hydroxy-5-keto-6-methyl-tetrahydropyran-2-yl] [[(2R,3S,4R,5R)-5-(2,4-diketopyrimidin-1-yl)-3,4-dihydroxy-tetrahydrofuran-2-yl]methoxy-hydroxy-phosphoryl] hydrogen phosphate

> <PUBCHEM_IUPAC_INCHI>
InChI=1S/C17H25N3O16P2/c1-6-11(23)13(25)10(18-7(2)21)16(33-6)35-38(30,31)36-37(28,29)32-5-8-12(24)14(26)15(34-8)20-4-3-9(22)19-17(20)27/h3-4,6,8,10,12-16,24-26H,5H2,1-2H3,(H,18,21)(H,28,29)(H,30,31)(H,19,22,27)/t6-,8-,10-,12-,13-,14-,15-,16-/m1/s1

> <PUBCHEM_IUPAC_INCHIKEY>
XBILTLYIKDPORV-HZUXRPHDSA-N

> <PUBCHEM_XLOGP3_AA>
-5.7

> <PUBCHEM_EXACT_MASS>
589.071005

> <PUBCHEM_MOLECULAR_FORMULA>
C17H25N3O16P2

> <PUBCHEM_MOLECULAR_WEIGHT>
589.338424

> <PUBCHEM_OPENEYE_CAN_SMILES>
CC1C(=O)C(C(C(O1)OP(=O)(O)OP(=O)(O)OCC2C(C(C(O2)N3C=CC(=O)NC3=O)O)O)NC(=O)C)O

> <PUBCHEM_OPENEYE_ISO_SMILES>
C[C@@H]1C(=O)[C@@H]([C@H]([C@H](O1)OP(=O)(O)OP(=O)(O)OC[C@@H]2[C@H]([C@H]([C@@H](O2)N3C=CC(=O)NC3=O)O)O)NC(=O)C)O

> <PUBCHEM_CACTVS_TPSA>
277

> <PUBCHEM_MONOISOTOPIC_WEIGHT>
589.071005

> <PUBCHEM_TOTAL_CHARGE>
0

> <PUBCHEM_HEAVY_ATOM_COUNT>
38

> <PUBCHEM_ATOM_DEF_STEREO_COUNT>
8

> <PUBCHEM_ATOM_UDEF_STEREO_COUNT>
0

> <PUBCHEM_BOND_DEF_STEREO_COUNT>
0

> <PUBCHEM_BOND_UDEF_STEREO_COUNT>
0

> <PUBCHEM_ISOTOPIC_ATOM_COUNT>
0

> <PUBCHEM_COMPONENT_COUNT>
1

> <PUBCHEM_CACTVS_TAUTO_COUNT>
30

> <PUBCHEM_COORDINATE_TYPE>
1
5
255

> <PUBCHEM_BONDANNOTATIONS>
25  19  6
19  32  8
19  33  8
27  20  6
21  32  8
21  36  8
24  26  6
30  34  5
33  35  8
35  36  8
22  4  5
23  5  5
28  8  6
29  9  5

$$$$

