23676503
  -OEChem-07051213032D

 61 64  0     1  0  0  0  0  0999 V2000
    2.8336    0.9493    0.0000 S   0  0  0  0  0  0  0  0  0  0  0  0
    4.3333    4.7172    0.0000 Na  0  3  0  0  0  0  0  0  0  0  0  0
    6.1485    0.5013    0.0000 O   0  0  0  0  0  0  0  0  0  0  0  0
    3.8812    3.8253    0.0000 O   0  5  0  0  0  0  0  0  0  0  0  0
    5.4260    3.0421    0.0000 O   0  0  0  0  0  0  0  0  0  0  0  0
    6.1691   -1.2172    0.0000 O   0  0  0  0  0  0  0  0  0  0  0  0
    7.0351   -2.7172    0.0000 O   0  0  0  0  0  0  0  0  0  0  0  0
    6.1691   -4.2172    0.0000 O   0  0  0  0  0  0  0  0  0  0  0  0
    4.4312    1.2058    0.0000 N   0  0  0  0  0  0  0  0  0  0  0  0
    4.4370   -1.2172    0.0000 N   0  0  0  0  0  0  0  0  0  0  0  0
    3.7255    0.4972    0.0000 C   0  0  1  0  0  0  0  0  0  0  0  0
    2.9880    1.9374    0.0000 C   0  0  0  0  0  0  0  0  0  0  0  0
    3.9754    2.0958    0.0000 C   0  0  2  0  0  0  0  0  0  0  0  0
    4.4370   -0.2172    0.0000 C   0  0  1  0  0  0  0  0  0  0  0  0
    5.1485    0.4972    0.0000 C   0  0  0  0  0  0  0  0  0  0  0  0
    2.0000    2.0918    0.0000 C   0  0  0  0  0  0  0  0  0  0  0  0
    2.8295    2.9247    0.0000 C   0  0  0  0  0  0  0  0  0  0  0  0
    4.4275    2.9878    0.0000 C   0  0  0  0  0  0  0  0  0  0  0  0
    5.3031   -1.7172    0.0000 C   0  0  0  0  0  0  0  0  0  0  0  0
    5.3031   -2.7172    0.0000 C   0  0  3  0  0  0  0  0  0  0  0  0
    4.4370   -3.2172    0.0000 C   0  0  0  0  0  0  0  0  0  0  0  0
    6.1691   -3.2172    0.0000 C   0  0  0  0  0  0  0  0  0  0  0  0
   11.1630   -3.7172    0.0000 C   0  0  0  0  0  0  0  0  0  0  0  0
   10.5794   -2.9125    0.0000 C   0  0  0  0  0  0  0  0  0  0  0  0
   10.5794   -4.5220    0.0000 C   0  0  0  0  0  0  0  0  0  0  0  0
    9.6332   -3.2172    0.0000 C   0  0  0  0  0  0  0  0  0  0  0  0
    9.6332   -4.2172    0.0000 C   0  0  0  0  0  0  0  0  0  0  0  0
    8.7672   -2.7172    0.0000 C   0  0  0  0  0  0  0  0  0  0  0  0
    7.9011   -3.2172    0.0000 C   0  0  0  0  0  0  0  0  0  0  0  0
    3.5710   -2.7172    0.0000 C   0  0  0  0  0  0  0  0  0  0  0  0
    4.4370   -4.2172    0.0000 C   0  0  0  0  0  0  0  0  0  0  0  0
    8.7672   -4.7172    0.0000 C   0  0  0  0  0  0  0  0  0  0  0  0
    7.9011   -4.2172    0.0000 C   0  0  0  0  0  0  0  0  0  0  0  0
    2.7050   -3.2172    0.0000 C   0  0  0  0  0  0  0  0  0  0  0  0
    3.5710   -4.7172    0.0000 C   0  0  0  0  0  0  0  0  0  0  0  0
    2.7050   -4.2172    0.0000 C   0  0  0  0  0  0  0  0  0  0  0  0
    3.2259   -0.1905    0.0000 H   0  0  0  0  0  0  0  0  0  0  0  0
    4.5954    2.0971    0.0000 H   0  0  0  0  0  0  0  0  0  0  0  0
    5.0101   -0.4539    0.0000 H   0  0  0  0  0  0  0  0  0  0  0  0
    2.0957    2.7043    0.0000 H   0  0  0  0  0  0  0  0  0  0  0  0
    1.3874    2.1875    0.0000 H   0  0  0  0  0  0  0  0  0  0  0  0
    1.9043    1.4792    0.0000 H   0  0  0  0  0  0  0  0  0  0  0  0
    3.4417    3.0230    0.0000 H   0  0  0  0  0  0  0  0  0  0  0  0
    2.7313    3.5369    0.0000 H   0  0  0  0  0  0  0  0  0  0  0  0
    2.2174    2.8265    0.0000 H   0  0  0  0  0  0  0  0  0  0  0  0
    3.9001   -1.5272    0.0000 H   0  0  0  0  0  0  0  0  0  0  0  0
    6.0392   -2.2922    0.0000 H   0  0  0  0  0  0  0  0  0  0  0  0
   11.6239   -4.1320    0.0000 H   0  0  0  0  0  0  0  0  0  0  0  0
   11.6239   -3.3025    0.0000 H   0  0  0  0  0  0  0  0  0  0  0  0
   11.1168   -2.6033    0.0000 H   0  0  0  0  0  0  0  0  0  0  0  0
   10.3284   -2.3456    0.0000 H   0  0  0  0  0  0  0  0  0  0  0  0
   10.3284   -5.0889    0.0000 H   0  0  0  0  0  0  0  0  0  0  0  0
   11.1168   -4.8312    0.0000 H   0  0  0  0  0  0  0  0  0  0  0  0
    8.7672   -2.0972    0.0000 H   0  0  0  0  0  0  0  0  0  0  0  0
    3.5710   -2.0972    0.0000 H   0  0  0  0  0  0  0  0  0  0  0  0
    4.9740   -4.5272    0.0000 H   0  0  0  0  0  0  0  0  0  0  0  0
    8.7672   -5.3372    0.0000 H   0  0  0  0  0  0  0  0  0  0  0  0
    7.3642   -4.5272    0.0000 H   0  0  0  0  0  0  0  0  0  0  0  0
    2.1681   -2.9072    0.0000 H   0  0  0  0  0  0  0  0  0  0  0  0
    3.5710   -5.3372    0.0000 H   0  0  0  0  0  0  0  0  0  0  0  0
    2.1681   -4.5272    0.0000 H   0  0  0  0  0  0  0  0  0  0  0  0
  1 11  1  0  0  0  0
  1 12  1  0  0  0  0
  3 15  2  0  0  0  0
  4 18  1  0  0  0  0
  5 18  2  0  0  0  0
  6 19  2  0  0  0  0
  7 22  1  0  0  0  0
  7 29  1  0  0  0  0
  8 22  2  0  0  0  0
  9 11  1  0  0  0  0
  9 13  1  0  0  0  0
  9 15  1  0  0  0  0
 14 10  1  1  0  0  0
 10 19  1  0  0  0  0
 10 46  1  0  0  0  0
 11 14  1  0  0  0  0
 11 37  1  6  0  0  0
 12 13  1  0  0  0  0
 12 16  1  0  0  0  0
 12 17  1  0  0  0  0
 13 18  1  6  0  0  0
 13 38  1  0  0  0  0
 14 15  1  0  0  0  0
 14 39  1  0  0  0  0
 16 40  1  0  0  0  0
 16 41  1  0  0  0  0
 16 42  1  0  0  0  0
 17 43  1  0  0  0  0
 17 44  1  0  0  0  0
 17 45  1  0  0  0  0
 19 20  1  0  0  0  0
 20 21  1  0  0  0  0
 20 22  1  0  0  0  0
 20 47  1  0  0  0  0
 21 30  2  0  0  0  0
 21 31  1  0  0  0  0
 23 24  1  0  0  0  0
 23 25  1  0  0  0  0
 23 48  1  0  0  0  0
 23 49  1  0  0  0  0
 24 26  1  0  0  0  0
 24 50  1  0  0  0  0
 24 51  1  0  0  0  0
 25 27  1  0  0  0  0
 25 52  1  0  0  0  0
 25 53  1  0  0  0  0
 26 27  2  0  0  0  0
 26 28  1  0  0  0  0
 27 32  1  0  0  0  0
 28 29  2  0  0  0  0
 28 54  1  0  0  0  0
 29 33  1  0  0  0  0
 30 34  1  0  0  0  0
 30 55  1  0  0  0  0
 31 35  2  0  0  0  0
 31 56  1  0  0  0  0
 32 33  2  0  0  0  0
 32 57  1  0  0  0  0
 33 58  1  0  0  0  0
 34 36  2  0  0  0  0
 34 59  1  0  0  0  0
 35 36  1  0  0  0  0
 35 60  1  0  0  0  0
 36 61  1  0  0  0  0
M  CHG  2   2   1   4  -1
M  END
> <PUBCHEM_COMPOUND_CID>
23676503

> <PUBCHEM_COMPOUND_CANONICALIZED>
1

> <PUBCHEM_CACTVS_COMPLEXITY>
894

> <PUBCHEM_CACTVS_HBOND_ACCEPTOR>
7

> <PUBCHEM_CACTVS_HBOND_DONOR>
1

> <PUBCHEM_CACTVS_ROTATABLE_BOND>
7

> <PUBCHEM_CACTVS_SUBSKEYS>
AAADceB7OCBAAAAAAAAAAAAAAABYAeIAAAAwYAAABYAAAGABQAAAHgQQAAAADSzF2ASyDoPABAiIAiHSGAACCABgIBAIiIGOCIgOZj6stTuWOiCm9hG4qAeYyPCOoAABAAAQAABAAAIAACAAAAAACAAAAA==

> <PUBCHEM_IUPAC_OPENEYE_NAME>
sodium (2S,5R,6R)-6-[(3-indan-5-yloxy-3-oxo-2-phenyl-propanoyl)amino]-3,3-dimethyl-7-oxo-4-thia-1-azabicyclo[3.2.0]heptane-2-carboxylate

> <PUBCHEM_IUPAC_CAS_NAME>
sodium (2S,5R,6R)-6-[[3-(2,3-dihydro-1H-inden-5-yloxy)-1,3-dioxo-2-phenylpropyl]amino]-3,3-dimethyl-7-oxo-4-thia-1-azabicyclo[3.2.0]heptane-2-carboxylate

> <PUBCHEM_IUPAC_NAME>
sodium (2S,5R,6R)-6-[[3-(2,3-dihydro-1H-inden-5-yloxy)-3-oxo-2-phenylpropanoyl]amino]-3,3-dimethyl-7-oxo-4-thia-1-azabicyclo[3.2.0]heptane-2-carboxylate

> <PUBCHEM_IUPAC_SYSTEMATIC_NAME>
sodium (2S,5R,6R)-6-[[3-(2,3-dihydro-1H-inden-5-yloxy)-3-oxidanylidene-2-phenyl-propanoyl]amino]-3,3-dimethyl-7-oxidanylidene-4-thia-1-azabicyclo[3.2.0]heptane-2-carboxylate

> <PUBCHEM_IUPAC_TRADITIONAL_NAME>
sodium (2S,5R,6R)-6-[(3-indan-5-yloxy-3-keto-2-phenyl-propanoyl)amino]-7-keto-3,3-dimethyl-4-thia-1-azabicyclo[3.2.0]heptane-2-carboxylate

> <PUBCHEM_IUPAC_INCHI>
InChI=1S/C26H26N2O6S.Na/c1-26(2)20(24(31)32)28-22(30)19(23(28)35-26)27-21(29)18(15-7-4-3-5-8-15)25(33)34-17-12-11-14-9-6-10-16(14)13-17;/h3-5,7-8,11-13,18-20,23H,6,9-10H2,1-2H3,(H,27,29)(H,31,32);/q;+1/p-1/t18?,19-,20+,23-;/m1./s1

> <PUBCHEM_IUPAC_INCHIKEY>
QFWPXOXWAUAYAB-XZVIDJSISA-M

> <PUBCHEM_EXACT_MASS>
516.133102

> <PUBCHEM_MOLECULAR_FORMULA>
C26H25N2NaO6S

> <PUBCHEM_MOLECULAR_WEIGHT>
516.541269

> <PUBCHEM_OPENEYE_CAN_SMILES>
CC1(C(N2C(S1)C(C2=O)NC(=O)C(C3=CC=CC=C3)C(=O)OC4=CC5=C(CCC5)C=C4)C(=O)[O-])C.[Na+]

> <PUBCHEM_OPENEYE_ISO_SMILES>
CC1([C@@H](N2[C@H](S1)[C@@H](C2=O)NC(=O)C(C3=CC=CC=C3)C(=O)OC4=CC5=C(CCC5)C=C4)C(=O)[O-])C.[Na+]

> <PUBCHEM_CACTVS_TPSA>
141

> <PUBCHEM_MONOISOTOPIC_WEIGHT>
516.133102

> <PUBCHEM_TOTAL_CHARGE>
0

> <PUBCHEM_HEAVY_ATOM_COUNT>
36

> <PUBCHEM_ATOM_DEF_STEREO_COUNT>
3

> <PUBCHEM_ATOM_UDEF_STEREO_COUNT>
1

> <PUBCHEM_BOND_DEF_STEREO_COUNT>
0

> <PUBCHEM_BOND_UDEF_STEREO_COUNT>
0

> <PUBCHEM_ISOTOPIC_ATOM_COUNT>
0

> <PUBCHEM_COMPONENT_COUNT>
2

> <PUBCHEM_CACTVS_TAUTO_COUNT>
4

> <PUBCHEM_NONSTANDARDBOND>
2  4  7

> <PUBCHEM_COORDINATE_TYPE>
1
5
255

> <PUBCHEM_BONDANNOTATIONS>
14  10  5
11  37  6
13  18  6
20  47  3
21  30  8
21  31  8
26  27  8
26  28  8
27  32  8
28  29  8
29  33  8
30  34  8
31  35  8
32  33  8
34  36  8
35  36  8

$$$$

