47205307
  -OEChem-06241222582D

 31 33  0     0  0  0  0  0  0999 V2000
    9.7250   -1.3047    0.0000 O   0  0  0  0  0  0  0  0  0  0  0  0
    6.1808    1.5000    0.0000 O   0  0  0  0  0  0  0  0  0  0  0  0
    5.3147    0.0000    0.0000 N   0  0  0  0  0  0  0  0  0  0  0  0
    2.6691    0.4067    0.0000 N   0  0  0  0  0  0  0  0  0  0  0  0
    2.0000   -0.3364    0.0000 N   0  0  0  0  0  0  0  0  0  0  0  0
    8.7788    0.0000    0.0000 C   0  0  0  0  0  0  0  0  0  0  0  0
    9.7250    0.3047    0.0000 C   0  0  0  0  0  0  0  0  0  0  0  0
    8.7788   -1.0000    0.0000 C   0  0  0  0  0  0  0  0  0  0  0  0
   10.3087   -0.5000    0.0000 C   0  0  0  0  0  0  0  0  0  0  0  0
    7.9128    0.5000    0.0000 C   0  0  0  0  0  0  0  0  0  0  0  0
    7.0468    0.0000    0.0000 C   0  0  0  0  0  0  0  0  0  0  0  0
    7.9128   -1.5000    0.0000 C   0  0  0  0  0  0  0  0  0  0  0  0
    7.0468   -1.0000    0.0000 C   0  0  0  0  0  0  0  0  0  0  0  0
    6.1808    0.5000    0.0000 C   0  0  0  0  0  0  0  0  0  0  0  0
    4.4487    0.5000    0.0000 C   0  0  0  0  0  0  0  0  0  0  0  0
    3.5827    0.0000    0.0000 C   0  0  0  0  0  0  0  0  0  0  0  0
    3.4782   -0.9945    0.0000 C   0  0  0  0  0  0  0  0  0  0  0  0
    2.5000   -1.2024    0.0000 C   0  0  0  0  0  0  0  0  0  0  0  0
   10.2624    0.6140    0.0000 H   0  0  0  0  0  0  0  0  0  0  0  0
    9.4740    0.8716    0.0000 H   0  0  0  0  0  0  0  0  0  0  0  0
   10.7695   -0.9147    0.0000 H   0  0  0  0  0  0  0  0  0  0  0  0
   10.7695   -0.0853    0.0000 H   0  0  0  0  0  0  0  0  0  0  0  0
    7.9128    1.1200    0.0000 H   0  0  0  0  0  0  0  0  0  0  0  0
    7.9128   -2.1200    0.0000 H   0  0  0  0  0  0  0  0  0  0  0  0
    6.5098   -1.3100    0.0000 H   0  0  0  0  0  0  0  0  0  0  0  0
    4.8472    0.9749    0.0000 H   0  0  0  0  0  0  0  0  0  0  0  0
    4.0502    0.9749    0.0000 H   0  0  0  0  0  0  0  0  0  0  0  0
    5.3147   -0.6200    0.0000 H   0  0  0  0  0  0  0  0  0  0  0  0
    3.9389   -1.4094    0.0000 H   0  0  0  0  0  0  0  0  0  0  0  0
    2.5402    1.0132    0.0000 H   0  0  0  0  0  0  0  0  0  0  0  0
    2.2478   -1.7688    0.0000 H   0  0  0  0  0  0  0  0  0  0  0  0
  1  8  1  0  0  0  0
  1  9  1  0  0  0  0
  2 14  2  0  0  0  0
  3 14  1  0  0  0  0
  3 15  1  0  0  0  0
  3 28  1  0  0  0  0
  4  5  1  0  0  0  0
  4 16  1  0  0  0  0
  4 30  1  0  0  0  0
  5 18  2  0  0  0  0
  6  7  1  0  0  0  0
  6  8  2  0  0  0  0
  6 10  1  0  0  0  0
  7  9  1  0  0  0  0
  7 19  1  0  0  0  0
  7 20  1  0  0  0  0
  8 12  1  0  0  0  0
  9 21  1  0  0  0  0
  9 22  1  0  0  0  0
 10 11  2  0  0  0  0
 10 23  1  0  0  0  0
 11 13  1  0  0  0  0
 11 14  1  0  0  0  0
 12 13  2  0  0  0  0
 12 24  1  0  0  0  0
 13 25  1  0  0  0  0
 15 16  1  0  0  0  0
 15 26  1  0  0  0  0
 15 27  1  0  0  0  0
 16 17  2  0  0  0  0
 17 18  1  0  0  0  0
 17 29  1  0  0  0  0
 18 31  1  0  0  0  0
M  END
> <PUBCHEM_COMPOUND_CID>
47205307

> <PUBCHEM_COMPOUND_CANONICALIZED>
1

> <PUBCHEM_CACTVS_COMPLEXITY>
311

> <PUBCHEM_CACTVS_HBOND_ACCEPTOR>
3

> <PUBCHEM_CACTVS_HBOND_DONOR>
2

> <PUBCHEM_CACTVS_ROTATABLE_BOND>
3

> <PUBCHEM_CACTVS_SUBSKEYS>
AAADccBzMAAAAAAAAAAAAAAAAAAAAWJAAAAwAAAAAAAAAEgBwAAAHgAYAAAADAzhngY8hpLjBACqAzV3UACSDAAkogAYuaE+bNgMZrKE9duWvSjk3hGI6YeY3PLOIAACAAAIAABAAAQAABAAAAAAAAAAAA==

> <PUBCHEM_IUPAC_OPENEYE_NAME>
N-(1H-pyrazol-5-ylmethyl)-2,3-dihydrobenzofuran-5-carboxamide

> <PUBCHEM_IUPAC_CAS_NAME>
N-(1H-pyrazol-5-ylmethyl)-2,3-dihydrobenzofuran-5-carboxamide

> <PUBCHEM_IUPAC_NAME>
N-(1H-pyrazol-5-ylmethyl)-2,3-dihydro-1-benzofuran-5-carboxamide

> <PUBCHEM_IUPAC_SYSTEMATIC_NAME>
N-(1H-pyrazol-5-ylmethyl)-2,3-dihydro-1-benzofuran-5-carboxamide

> <PUBCHEM_IUPAC_TRADITIONAL_NAME>
N-(1H-pyrazol-5-ylmethyl)coumaran-5-carboxamide

> <PUBCHEM_IUPAC_INCHI>
InChI=1S/C13H13N3O2/c17-13(14-8-11-3-5-15-16-11)10-1-2-12-9(7-10)4-6-18-12/h1-3,5,7H,4,6,8H2,(H,14,17)(H,15,16)

> <PUBCHEM_IUPAC_INCHIKEY>
JUZPYQZEKWEKNG-UHFFFAOYSA-N

> <PUBCHEM_XLOGP3_AA>
1

> <PUBCHEM_EXACT_MASS>
243.100777

> <PUBCHEM_MOLECULAR_FORMULA>
C13H13N3O2

> <PUBCHEM_MOLECULAR_WEIGHT>
243.26122

> <PUBCHEM_OPENEYE_CAN_SMILES>
C1COC2=C1C=C(C=C2)C(=O)NCC3=CC=NN3

> <PUBCHEM_OPENEYE_ISO_SMILES>
C1COC2=C1C=C(C=C2)C(=O)NCC3=CC=NN3

> <PUBCHEM_CACTVS_TPSA>
67

> <PUBCHEM_MONOISOTOPIC_WEIGHT>
243.100777

> <PUBCHEM_TOTAL_CHARGE>
0

> <PUBCHEM_HEAVY_ATOM_COUNT>
18

> <PUBCHEM_ATOM_DEF_STEREO_COUNT>
0

> <PUBCHEM_ATOM_UDEF_STEREO_COUNT>
0

> <PUBCHEM_BOND_DEF_STEREO_COUNT>
0

> <PUBCHEM_BOND_UDEF_STEREO_COUNT>
0

> <PUBCHEM_ISOTOPIC_ATOM_COUNT>
0

> <PUBCHEM_COMPONENT_COUNT>
1

> <PUBCHEM_CACTVS_TAUTO_COUNT>
4

> <PUBCHEM_COORDINATE_TYPE>
1
5
255

> <PUBCHEM_BONDANNOTATIONS>
10  11  8
11  13  8
12  13  8
16  17  8
17  18  8
4  16  8
4  5  8
5  18  8
6  10  8
6  8  8
8  12  8

$$$$

