480865
  -OEChem-07051213092D

 63 65  0     1  0  0  0  0  0999 V2000
    8.0901    2.9917    0.0000 O   0  0  0  0  0  0  0  0  0  0  0  0
    6.3301   -0.0429    0.0000 O   0  0  0  0  0  0  0  0  0  0  0  0
    8.9884   -0.5637    0.0000 O   0  0  0  0  0  0  0  0  0  0  0  0
    4.5981    2.9571    0.0000 O   0  0  0  0  0  0  0  0  0  0  0  0
   12.4525   -0.5771    0.0000 O   0  0  0  0  0  0  0  0  0  0  0  0
    8.9962    1.4362    0.0000 C   0  0  1  0  0  0  0  0  0  0  0  0
    8.0901    0.9224    0.0000 C   0  0  0  0  0  0  0  0  0  0  0  0
    8.9962    2.4779    0.0000 C   0  0  0  0  0  0  0  0  0  0  0  0
    7.1962    1.4571    0.0000 C   0  0  0  0  0  0  0  0  0  0  0  0
    9.8602    0.9329    0.0000 C   0  0  0  0  0  0  0  0  0  0  0  0
    7.1962    2.4571    0.0000 C   0  0  0  0  0  0  0  0  0  0  0  0
    6.3301    0.9571    0.0000 C   0  0  0  0  0  0  0  0  0  0  0  0
    9.8564   -0.0671    0.0000 C   0  0  0  0  0  0  0  0  0  0  0  0
    5.4641    1.4571    0.0000 C   0  0  0  0  0  0  0  0  0  0  0  0
   10.7282    1.4296    0.0000 C   0  0  0  0  0  0  0  0  0  0  0  0
    6.3301    2.9571    0.0000 C   0  0  0  0  0  0  0  0  0  0  0  0
   10.7205   -0.5704    0.0000 C   0  0  0  0  0  0  0  0  0  0  0  0
    5.4641    2.4571    0.0000 C   0  0  0  0  0  0  0  0  0  0  0  0
    4.5981    0.9571    0.0000 C   0  0  0  0  0  0  0  0  0  0  0  0
   11.5923    0.9262    0.0000 C   0  0  0  0  0  0  0  0  0  0  0  0
   11.5884   -0.0738    0.0000 C   0  0  0  0  0  0  0  0  0  0  0  0
   10.7166   -1.5704    0.0000 C   0  0  0  0  0  0  0  0  0  0  0  0
    3.7320    1.4571    0.0000 C   0  0  0  0  0  0  0  0  0  0  0  0
   11.5807   -2.0737    0.0000 C   0  0  0  0  0  0  0  0  0  0  0  0
    5.4641   -0.5429    0.0000 C   0  0  0  0  0  0  0  0  0  0  0  0
    2.8660    0.9571    0.0000 C   0  0  0  0  0  0  0  0  0  0  0  0
   11.5769   -3.0737    0.0000 C   0  0  0  0  0  0  0  0  0  0  0  0
    2.0000    1.4571    0.0000 C   0  0  0  0  0  0  0  0  0  0  0  0
    2.8660   -0.0429    0.0000 C   0  0  0  0  0  0  0  0  0  0  0  0
   12.4410   -3.5771    0.0000 C   0  0  0  0  0  0  0  0  0  0  0  0
   10.7089   -3.5704    0.0000 C   0  0  0  0  0  0  0  0  0  0  0  0
    9.7331    1.8598    0.0000 H   0  0  0  0  0  0  0  0  0  0  0  0
    7.6855    0.4526    0.0000 H   0  0  0  0  0  0  0  0  0  0  0  0
    8.4837    0.4434    0.0000 H   0  0  0  0  0  0  0  0  0  0  0  0
    9.6070    2.3718    0.0000 H   0  0  0  0  0  0  0  0  0  0  0  0
    9.2052    3.0616    0.0000 H   0  0  0  0  0  0  0  0  0  0  0  0
   10.7306    2.0496    0.0000 H   0  0  0  0  0  0  0  0  0  0  0  0
    6.3301    3.5771    0.0000 H   0  0  0  0  0  0  0  0  0  0  0  0
    4.1996    0.4821    0.0000 H   0  0  0  0  0  0  0  0  0  0  0  0
    4.9966    0.4821    0.0000 H   0  0  0  0  0  0  0  0  0  0  0  0
   12.1304    1.2342    0.0000 H   0  0  0  0  0  0  0  0  0  0  0  0
   10.1065   -1.4604    0.0000 H   0  0  0  0  0  0  0  0  0  0  0  0
   10.5023   -2.1522    0.0000 H   0  0  0  0  0  0  0  0  0  0  0  0
    3.7320    2.0771    0.0000 H   0  0  0  0  0  0  0  0  0  0  0  0
    8.9861   -1.1837    0.0000 H   0  0  0  0  0  0  0  0  0  0  0  0
   12.1189   -1.7658    0.0000 H   0  0  0  0  0  0  0  0  0  0  0  0
    4.5981    3.5771    0.0000 H   0  0  0  0  0  0  0  0  0  0  0  0
    5.1541   -0.0060    0.0000 H   0  0  0  0  0  0  0  0  0  0  0  0
    4.9272   -0.8529    0.0000 H   0  0  0  0  0  0  0  0  0  0  0  0
    5.7741   -1.0799    0.0000 H   0  0  0  0  0  0  0  0  0  0  0  0
   12.9907   -0.2692    0.0000 H   0  0  0  0  0  0  0  0  0  0  0  0
    2.3100    1.9940    0.0000 H   0  0  0  0  0  0  0  0  0  0  0  0
    1.4631    1.7671    0.0000 H   0  0  0  0  0  0  0  0  0  0  0  0
    1.6900    0.9201    0.0000 H   0  0  0  0  0  0  0  0  0  0  0  0
    2.2460   -0.0429    0.0000 H   0  0  0  0  0  0  0  0  0  0  0  0
    2.8660   -0.6629    0.0000 H   0  0  0  0  0  0  0  0  0  0  0  0
    3.4860   -0.0429    0.0000 H   0  0  0  0  0  0  0  0  0  0  0  0
   10.4010   -3.0323    0.0000 H   0  0  0  0  0  0  0  0  0  0  0  0
   10.1708   -3.8783    0.0000 H   0  0  0  0  0  0  0  0  0  0  0  0
   11.0169   -4.1085    0.0000 H   0  0  0  0  0  0  0  0  0  0  0  0
   12.1289   -4.1128    0.0000 H   0  0  0  0  0  0  0  0  0  0  0  0
   12.9767   -3.8891    0.0000 H   0  0  0  0  0  0  0  0  0  0  0  0
   12.7530   -3.0413    0.0000 H   0  0  0  0  0  0  0  0  0  0  0  0
  1  8  1  0  0  0  0
  1 11  1  0  0  0  0
  2 12  1  0  0  0  0
  2 25  1  0  0  0  0
  3 13  1  0  0  0  0
  3 45  1  0  0  0  0
  4 18  1  0  0  0  0
  4 47  1  0  0  0  0
  5 21  1  0  0  0  0
  5 51  1  0  0  0  0
  6  7  1  0  0  0  0
  6  8  1  0  0  0  0
  6 10  1  0  0  0  0
  6 32  1  6  0  0  0
  7  9  1  0  0  0  0
  7 33  1  0  0  0  0
  7 34  1  0  0  0  0
  8 35  1  0  0  0  0
  8 36  1  0  0  0  0
  9 11  1  0  0  0  0
  9 12  2  0  0  0  0
 10 13  2  0  0  0  0
 10 15  1  0  0  0  0
 11 16  2  0  0  0  0
 12 14  1  0  0  0  0
 13 17  1  0  0  0  0
 14 18  2  0  0  0  0
 14 19  1  0  0  0  0
 15 20  2  0  0  0  0
 15 37  1  0  0  0  0
 16 18  1  0  0  0  0
 16 38  1  0  0  0  0
 17 21  2  0  0  0  0
 17 22  1  0  0  0  0
 19 23  1  0  0  0  0
 19 39  1  0  0  0  0
 19 40  1  0  0  0  0
 20 21  1  0  0  0  0
 20 41  1  0  0  0  0
 22 24  1  0  0  0  0
 22 42  1  0  0  0  0
 22 43  1  0  0  0  0
 23 26  2  0  0  0  0
 23 44  1  0  0  0  0
 24 27  2  0  0  0  0
 24 46  1  0  0  0  0
 25 48  1  0  0  0  0
 25 49  1  0  0  0  0
 25 50  1  0  0  0  0
 26 28  1  0  0  0  0
 26 29  1  0  0  0  0
 27 30  1  0  0  0  0
 27 31  1  0  0  0  0
 28 52  1  0  0  0  0
 28 53  1  0  0  0  0
 28 54  1  0  0  0  0
 29 55  1  0  0  0  0
 29 56  1  0  0  0  0
 29 57  1  0  0  0  0
 30 61  1  0  0  0  0
 30 62  1  0  0  0  0
 30 63  1  0  0  0  0
 31 58  1  0  0  0  0
 31 59  1  0  0  0  0
 31 60  1  0  0  0  0
M  END
> <PUBCHEM_COMPOUND_CID>
480865

> <PUBCHEM_COMPOUND_CANONICALIZED>
1

> <PUBCHEM_CACTVS_COMPLEXITY>
636

> <PUBCHEM_CACTVS_HBOND_ACCEPTOR>
5

> <PUBCHEM_CACTVS_HBOND_DONOR>
3

> <PUBCHEM_CACTVS_ROTATABLE_BOND>
6

> <PUBCHEM_CACTVS_SUBSKEYS>
AAADcfB4OAAAAAAAAAAAAAAAAAAAAAAAAAA0YIAAAAAAAACRQAAAGgAACAAADQSgmAIyBoAABgCAAiBCAAACCAAgIAAIiAAGCIgMJyKGMRqCeCClwBUIuAfA4PwOoAACCAAIAABAAAQQABAAAAAAAAAAAA==

> <PUBCHEM_IUPAC_OPENEYE_NAME>
4-[(3R)-7-hydroxy-5-methoxy-6-(3-methylbut-2-enyl)chroman-3-yl]-2-(3-methylbut-2-enyl)benzene-1,3-diol

> <PUBCHEM_IUPAC_CAS_NAME>
4-[(3R)-7-hydroxy-5-methoxy-6-(3-methylbut-2-enyl)-3,4-dihydro-2H-1-benzopyran-3-yl]-2-(3-methylbut-2-enyl)benzene-1,3-diol

> <PUBCHEM_IUPAC_NAME>
4-[(3R)-7-hydroxy-5-methoxy-6-(3-methylbut-2-enyl)-3,4-dihydro-2H-chromen-3-yl]-2-(3-methylbut-2-enyl)benzene-1,3-diol

> <PUBCHEM_IUPAC_SYSTEMATIC_NAME>
4-[(3R)-5-methoxy-6-(3-methylbut-2-enyl)-7-oxidanyl-3,4-dihydro-2H-chromen-3-yl]-2-(3-methylbut-2-enyl)benzene-1,3-diol

> <PUBCHEM_IUPAC_TRADITIONAL_NAME>
4-[(3R)-7-hydroxy-5-methoxy-6-(3-methylbut-2-enyl)chroman-3-yl]-2-(3-methylbut-2-enyl)resorcinol

> <PUBCHEM_IUPAC_INCHI>
InChI=1S/C26H32O5/c1-15(2)6-8-19-22(27)11-10-18(25(19)29)17-12-21-24(31-14-17)13-23(28)20(26(21)30-5)9-7-16(3)4/h6-7,10-11,13,17,27-29H,8-9,12,14H2,1-5H3/t17-/m0/s1

> <PUBCHEM_IUPAC_INCHIKEY>
GBRZTUJCDFSIHM-KRWDZBQOSA-N

> <PUBCHEM_XLOGP3_AA>
6.4

> <PUBCHEM_EXACT_MASS>
424.224974

> <PUBCHEM_MOLECULAR_FORMULA>
C26H32O5

> <PUBCHEM_MOLECULAR_WEIGHT>
424.52928

> <PUBCHEM_OPENEYE_CAN_SMILES>
CC(=CCC1=C(C=CC(=C1O)C2CC3=C(C(=C(C=C3OC2)O)CC=C(C)C)OC)O)C

> <PUBCHEM_OPENEYE_ISO_SMILES>
CC(=CCC1=C(C=CC(=C1O)[C@H]2CC3=C(C(=C(C=C3OC2)O)CC=C(C)C)OC)O)C

> <PUBCHEM_CACTVS_TPSA>
79.2

> <PUBCHEM_MONOISOTOPIC_WEIGHT>
424.224974

> <PUBCHEM_TOTAL_CHARGE>
0

> <PUBCHEM_HEAVY_ATOM_COUNT>
31

> <PUBCHEM_ATOM_DEF_STEREO_COUNT>
1

> <PUBCHEM_ATOM_UDEF_STEREO_COUNT>
0

> <PUBCHEM_BOND_DEF_STEREO_COUNT>
0

> <PUBCHEM_BOND_UDEF_STEREO_COUNT>
0

> <PUBCHEM_ISOTOPIC_ATOM_COUNT>
0

> <PUBCHEM_COMPONENT_COUNT>
1

> <PUBCHEM_CACTVS_TAUTO_COUNT>
27

> <PUBCHEM_COORDINATE_TYPE>
1
5
255

> <PUBCHEM_BONDANNOTATIONS>
10  13  8
10  15  8
11  16  8
12  14  8
13  17  8
14  18  8
15  20  8
16  18  8
17  21  8
20  21  8
6  32  6
9  11  8
9  12  8

$$$$

