17580
  -OEChem-07051213132D

 30 30  0     0  0  0  0  0  0999 V2000
    3.5000   -1.5352    0.0000 S   0  0  0  0  0  0  0  0  0  0  0  0
    4.8660    1.5036    0.0000 S   0  0  0  0  0  0  0  0  0  0  0  0
    4.5000   -2.5352    0.0000 S   0  0  0  0  0  0  0  0  0  0  0  0
    3.5000   -2.5352    0.0000 P   0  0  0  0  0  0  0  0  0  0  0  0
    3.2782    2.3126    0.0000 O   0  0  0  0  0  0  0  0  0  0  0  0
    3.5000   -3.5352    0.0000 O   0  0  0  0  0  0  0  0  0  0  0  0
    2.5000   -2.5352    0.0000 O   0  0  0  0  0  0  0  0  0  0  0  0
    6.1261    0.2436    0.0000 O   0  0  0  0  0  0  0  0  0  0  0  0
    4.3660   -0.0352    0.0000 N   0  0  0  0  0  0  0  0  0  0  0  0
    3.5570    0.5526    0.0000 N   0  0  0  0  0  0  0  0  0  0  0  0
    4.3660   -1.0352    0.0000 C   0  0  0  0  0  0  0  0  0  0  0  0
    5.1750    0.5526    0.0000 C   0  0  0  0  0  0  0  0  0  0  0  0
    3.8660    1.5036    0.0000 C   0  0  0  0  0  0  0  0  0  0  0  0
    3.6850    3.2262    0.0000 C   0  0  0  0  0  0  0  0  0  0  0  0
    3.0972    4.0352    0.0000 C   0  0  0  0  0  0  0  0  0  0  0  0
    2.6340   -4.0352    0.0000 C   0  0  0  0  0  0  0  0  0  0  0  0
    2.0000   -1.6692    0.0000 C   0  0  0  0  0  0  0  0  0  0  0  0
    4.5781   -1.6178    0.0000 H   0  0  0  0  0  0  0  0  0  0  0  0
    4.9766   -0.9275    0.0000 H   0  0  0  0  0  0  0  0  0  0  0  0
    4.1990    2.8795    0.0000 H   0  0  0  0  0  0  0  0  0  0  0  0
    4.1157    3.6722    0.0000 H   0  0  0  0  0  0  0  0  0  0  0  0
    3.5988    4.3996    0.0000 H   0  0  0  0  0  0  0  0  0  0  0  0
    2.7328    4.5368    0.0000 H   0  0  0  0  0  0  0  0  0  0  0  0
    2.5956    3.6708    0.0000 H   0  0  0  0  0  0  0  0  0  0  0  0
    2.3240   -3.4983    0.0000 H   0  0  0  0  0  0  0  0  0  0  0  0
    2.0970   -4.3452    0.0000 H   0  0  0  0  0  0  0  0  0  0  0  0
    2.9440   -4.5722    0.0000 H   0  0  0  0  0  0  0  0  0  0  0  0
    2.5369   -1.3592    0.0000 H   0  0  0  0  0  0  0  0  0  0  0  0
    1.6900   -1.1322    0.0000 H   0  0  0  0  0  0  0  0  0  0  0  0
    1.4631   -1.9792    0.0000 H   0  0  0  0  0  0  0  0  0  0  0  0
  1  4  1  0  0  0  0
  1 11  1  0  0  0  0
  2 12  1  0  0  0  0
  2 13  1  0  0  0  0
  3  4  2  0  0  0  0
  4  6  1  0  0  0  0
  4  7  1  0  0  0  0
  5 13  1  0  0  0  0
  5 14  1  0  0  0  0
  6 16  1  0  0  0  0
  7 17  1  0  0  0  0
  8 12  2  0  0  0  0
  9 10  1  0  0  0  0
  9 11  1  0  0  0  0
  9 12  1  0  0  0  0
 10 13  2  0  0  0  0
 11 18  1  0  0  0  0
 11 19  1  0  0  0  0
 14 15  1  0  0  0  0
 14 20  1  0  0  0  0
 14 21  1  0  0  0  0
 15 22  1  0  0  0  0
 15 23  1  0  0  0  0
 15 24  1  0  0  0  0
 16 25  1  0  0  0  0
 16 26  1  0  0  0  0
 16 27  1  0  0  0  0
 17 28  1  0  0  0  0
 17 29  1  0  0  0  0
 17 30  1  0  0  0  0
M  END
> <PUBCHEM_COMPOUND_CID>
17580

> <PUBCHEM_COMPOUND_CANONICALIZED>
1

> <PUBCHEM_CACTVS_COMPLEXITY>
357

> <PUBCHEM_CACTVS_HBOND_ACCEPTOR>
8

> <PUBCHEM_CACTVS_HBOND_DONOR>
0

> <PUBCHEM_CACTVS_ROTATABLE_BOND>
7

> <PUBCHEM_CACTVS_SUBSKEYS>
AAADccBjOAJgAAAAAAAAAAAAAAAAAQAAAAAAAAAAAAAAAAAAAAAAHgQIACAAAACggAaCAAIABRgoAAAAEAAQAABAAAACAAAIAAAAAAAAAAAAAAAAAgAAAAAAAAAAAAAAAAAAAAAAAAAAAAAAAAAAAAAAAA==

> <PUBCHEM_IUPAC_OPENEYE_NAME>
3-(dimethoxyphosphinothioylsulfanylmethyl)-5-ethoxy-1,3,4-thiadiazol-2-one

> <PUBCHEM_IUPAC_CAS_NAME>
3-[(dimethoxyphosphinothioylthio)methyl]-5-ethoxy-1,3,4-thiadiazol-2-one

> <PUBCHEM_IUPAC_NAME>
3-(dimethoxyphosphinothioylsulfanylmethyl)-5-ethoxy-1,3,4-thiadiazol-2-one

> <PUBCHEM_IUPAC_SYSTEMATIC_NAME>
3-(dimethoxyphosphinothioylsulfanylmethyl)-5-ethoxy-1,3,4-thiadiazol-2-one

> <PUBCHEM_IUPAC_TRADITIONAL_NAME>
3-[(dimethoxythiophosphorylthio)methyl]-5-ethoxy-1,3,4-thiadiazol-2-one

> <PUBCHEM_IUPAC_INCHI>
InChI=1S/C7H13N2O4PS3/c1-4-13-6-8-9(7(10)17-6)5-16-14(15,11-2)12-3/h4-5H2,1-3H3

> <PUBCHEM_IUPAC_INCHIKEY>
FPMIAGPUNXEUCZ-UHFFFAOYSA-N

> <PUBCHEM_XLOGP3>
2.8

> <PUBCHEM_EXACT_MASS>
315.977507

> <PUBCHEM_MOLECULAR_FORMULA>
C7H13N2O4PS3

> <PUBCHEM_MOLECULAR_WEIGHT>
316.357882

> <PUBCHEM_OPENEYE_CAN_SMILES>
CCOC1=NN(C(=O)S1)CSP(=S)(OC)OC

> <PUBCHEM_OPENEYE_ISO_SMILES>
CCOC1=NN(C(=O)S1)CSP(=S)(OC)OC

> <PUBCHEM_CACTVS_TPSA>
143

> <PUBCHEM_MONOISOTOPIC_WEIGHT>
315.977507

> <PUBCHEM_TOTAL_CHARGE>
0

> <PUBCHEM_HEAVY_ATOM_COUNT>
17

> <PUBCHEM_ATOM_DEF_STEREO_COUNT>
0

> <PUBCHEM_ATOM_UDEF_STEREO_COUNT>
0

> <PUBCHEM_BOND_DEF_STEREO_COUNT>
0

> <PUBCHEM_BOND_UDEF_STEREO_COUNT>
0

> <PUBCHEM_ISOTOPIC_ATOM_COUNT>
0

> <PUBCHEM_COMPONENT_COUNT>
1

> <PUBCHEM_CACTVS_TAUTO_COUNT>
1

> <PUBCHEM_COORDINATE_TYPE>
1
5
255

> <PUBCHEM_BONDANNOTATIONS>
10  13  8
2  12  8
2  13  8
9  10  8
9  12  8

$$$$

