253994
  -OEChem-07051213092D

 39 40  0     0  0  0  0  0  0999 V2000
    2.8660    2.9050    0.0000 O   0  0  0  0  0  0  0  0  0  0  0  0
    4.5981    3.9050    0.0000 O   0  0  0  0  0  0  0  0  0  0  0  0
   10.6603   -3.5950    0.0000 O   0  0  0  0  0  0  0  0  0  0  0  0
    6.3301   -0.0950    0.0000 N   0  0  0  0  0  0  0  0  0  0  0  0
    7.1962   -0.5950    0.0000 C   0  0  0  0  0  0  0  0  0  0  0  0
    7.1962   -1.5950    0.0000 C   0  0  0  0  0  0  0  0  0  0  0  0
    6.3301    0.9050    0.0000 C   0  0  0  0  0  0  0  0  0  0  0  0
    8.0622   -2.0950    0.0000 C   0  0  0  0  0  0  0  0  0  0  0  0
    5.4641    1.4050    0.0000 C   0  0  0  0  0  0  0  0  0  0  0  0
    5.4641    2.4050    0.0000 C   0  0  0  0  0  0  0  0  0  0  0  0
    4.5981    0.9050    0.0000 C   0  0  0  0  0  0  0  0  0  0  0  0
    8.0622   -3.0950    0.0000 C   0  0  0  0  0  0  0  0  0  0  0  0
    8.9282   -1.5950    0.0000 C   0  0  0  0  0  0  0  0  0  0  0  0
    4.5981    2.9050    0.0000 C   0  0  0  0  0  0  0  0  0  0  0  0
    3.7320    1.4050    0.0000 C   0  0  0  0  0  0  0  0  0  0  0  0
    3.7320    2.4050    0.0000 C   0  0  0  0  0  0  0  0  0  0  0  0
    8.9282   -3.5950    0.0000 C   0  0  0  0  0  0  0  0  0  0  0  0
    9.7942   -2.0950    0.0000 C   0  0  0  0  0  0  0  0  0  0  0  0
    9.7942   -3.0950    0.0000 C   0  0  0  0  0  0  0  0  0  0  0  0
    2.0000    2.4050    0.0000 C   0  0  0  0  0  0  0  0  0  0  0  0
    7.8067   -0.7027    0.0000 H   0  0  0  0  0  0  0  0  0  0  0  0
    7.4082   -0.0124    0.0000 H   0  0  0  0  0  0  0  0  0  0  0  0
    6.5856   -1.4873    0.0000 H   0  0  0  0  0  0  0  0  0  0  0  0
    6.9841   -2.1776    0.0000 H   0  0  0  0  0  0  0  0  0  0  0  0
    6.9407    0.7973    0.0000 H   0  0  0  0  0  0  0  0  0  0  0  0
    6.5422    1.4876    0.0000 H   0  0  0  0  0  0  0  0  0  0  0  0
    5.7932   -0.4050    0.0000 H   0  0  0  0  0  0  0  0  0  0  0  0
    6.0010    2.7150    0.0000 H   0  0  0  0  0  0  0  0  0  0  0  0
    4.5981    0.2850    0.0000 H   0  0  0  0  0  0  0  0  0  0  0  0
    7.5252   -3.4050    0.0000 H   0  0  0  0  0  0  0  0  0  0  0  0
    8.9282   -0.9750    0.0000 H   0  0  0  0  0  0  0  0  0  0  0  0
    3.1951    1.0950    0.0000 H   0  0  0  0  0  0  0  0  0  0  0  0
    8.9282   -4.2150    0.0000 H   0  0  0  0  0  0  0  0  0  0  0  0
   10.3312   -1.7850    0.0000 H   0  0  0  0  0  0  0  0  0  0  0  0
    5.1350    4.2150    0.0000 H   0  0  0  0  0  0  0  0  0  0  0  0
   10.6603   -4.2150    0.0000 H   0  0  0  0  0  0  0  0  0  0  0  0
    1.6900    2.9419    0.0000 H   0  0  0  0  0  0  0  0  0  0  0  0
    1.4631    2.0950    0.0000 H   0  0  0  0  0  0  0  0  0  0  0  0
    2.3100    1.8681    0.0000 H   0  0  0  0  0  0  0  0  0  0  0  0
  1 16  1  0  0  0  0
  1 20  1  0  0  0  0
  2 14  1  0  0  0  0
  2 35  1  0  0  0  0
  3 19  1  0  0  0  0
  3 36  1  0  0  0  0
  4  5  1  0  0  0  0
  4  7  1  0  0  0  0
  4 27  1  0  0  0  0
  5  6  1  0  0  0  0
  5 21  1  0  0  0  0
  5 22  1  0  0  0  0
  6  8  1  0  0  0  0
  6 23  1  0  0  0  0
  6 24  1  0  0  0  0
  7  9  1  0  0  0  0
  7 25  1  0  0  0  0
  7 26  1  0  0  0  0
  8 12  2  0  0  0  0
  8 13  1  0  0  0  0
  9 10  2  0  0  0  0
  9 11  1  0  0  0  0
 10 14  1  0  0  0  0
 10 28  1  0  0  0  0
 11 15  2  0  0  0  0
 11 29  1  0  0  0  0
 12 17  1  0  0  0  0
 12 30  1  0  0  0  0
 13 18  2  0  0  0  0
 13 31  1  0  0  0  0
 14 16  2  0  0  0  0
 15 16  1  0  0  0  0
 15 32  1  0  0  0  0
 17 19  2  0  0  0  0
 17 33  1  0  0  0  0
 18 19  1  0  0  0  0
 18 34  1  0  0  0  0
 20 37  1  0  0  0  0
 20 38  1  0  0  0  0
 20 39  1  0  0  0  0
M  END
> <PUBCHEM_COMPOUND_CID>
253994

> <PUBCHEM_COMPOUND_CANONICALIZED>
1

> <PUBCHEM_CACTVS_COMPLEXITY>
266

> <PUBCHEM_CACTVS_HBOND_ACCEPTOR>
4

> <PUBCHEM_CACTVS_HBOND_DONOR>
3

> <PUBCHEM_CACTVS_ROTATABLE_BOND>
6

> <PUBCHEM_CACTVS_SUBSKEYS>
AAADceB6MAAAAAAAAAAAAAAAAAAAAAAAAAAwYAAAAAAAAAABQAAAHgAQCAAADATBmAYyBoLABgCAAiBCAACCCAAgIAAIiIAOjIgNJiKGsRuEcCtk0BGLuAew0JIOIAABAAAAQABAAAIAAACAAAAAAAAAAA==

> <PUBCHEM_IUPAC_OPENEYE_NAME>
5-[[2-(4-hydroxyphenyl)ethylamino]methyl]-2-methoxy-phenol

> <PUBCHEM_IUPAC_CAS_NAME>
5-[[2-(4-hydroxyphenyl)ethylamino]methyl]-2-methoxyphenol

> <PUBCHEM_IUPAC_NAME>
5-[[2-(4-hydroxyphenyl)ethylamino]methyl]-2-methoxyphenol

> <PUBCHEM_IUPAC_SYSTEMATIC_NAME>
5-[[2-(4-hydroxyphenyl)ethylamino]methyl]-2-methoxy-phenol

> <PUBCHEM_IUPAC_TRADITIONAL_NAME>
5-[[2-(4-hydroxyphenyl)ethylamino]methyl]-2-methoxy-phenol

> <PUBCHEM_IUPAC_INCHI>
InChI=1S/C16H19NO3/c1-20-16-7-4-13(10-15(16)19)11-17-9-8-12-2-5-14(18)6-3-12/h2-7,10,17-19H,8-9,11H2,1H3

> <PUBCHEM_IUPAC_INCHIKEY>
SDLILULALIDNSO-UHFFFAOYSA-N

> <PUBCHEM_XLOGP3_AA>
2.5

> <PUBCHEM_EXACT_MASS>
273.136493

> <PUBCHEM_MOLECULAR_FORMULA>
C16H19NO3

> <PUBCHEM_MOLECULAR_WEIGHT>
273.32696

> <PUBCHEM_OPENEYE_CAN_SMILES>
COC1=C(C=C(C=C1)CNCCC2=CC=C(C=C2)O)O

> <PUBCHEM_OPENEYE_ISO_SMILES>
COC1=C(C=C(C=C1)CNCCC2=CC=C(C=C2)O)O

> <PUBCHEM_CACTVS_TPSA>
61.7

> <PUBCHEM_MONOISOTOPIC_WEIGHT>
273.136493

> <PUBCHEM_TOTAL_CHARGE>
0

> <PUBCHEM_HEAVY_ATOM_COUNT>
20

> <PUBCHEM_ATOM_DEF_STEREO_COUNT>
0

> <PUBCHEM_ATOM_UDEF_STEREO_COUNT>
0

> <PUBCHEM_BOND_DEF_STEREO_COUNT>
0

> <PUBCHEM_BOND_UDEF_STEREO_COUNT>
0

> <PUBCHEM_ISOTOPIC_ATOM_COUNT>
0

> <PUBCHEM_COMPONENT_COUNT>
1

> <PUBCHEM_CACTVS_TAUTO_COUNT>
6

> <PUBCHEM_COORDINATE_TYPE>
1
5
255

> <PUBCHEM_BONDANNOTATIONS>
10  14  8
11  15  8
12  17  8
13  18  8
14  16  8
15  16  8
17  19  8
18  19  8
8  12  8
8  13  8
9  10  8
9  11  8

$$$$

