11963
  -OEChem-06261206202D

 42 41  0     0  0  0  0  0  0999 V2000
    7.4871    5.7150    0.0000 Cl  0  5  0  0  0  0  0  0  0  0  0  0
    2.2690    4.8100    0.0000 O   0  0  0  0  0  0  0  0  0  0  0  0
    0.5369    4.8100    0.0000 O   0  0  0  0  0  0  0  0  0  0  0  0
    3.1350    7.3100    0.0000 N   0  3  0  0  0  0  0  0  0  0  0  0
    1.4030    0.3100    0.0000 N   0  0  0  0  0  0  0  0  0  0  0  0
    3.1350    8.3100    0.0000 C   0  0  0  0  0  0  0  0  0  0  0  0
    4.0010    8.8100    0.0000 C   0  0  0  0  0  0  0  0  0  0  0  0
    4.0010    9.8100    0.0000 C   0  0  0  0  0  0  0  0  0  0  0  0
    3.1350    6.3100    0.0000 C   0  0  0  0  0  0  0  0  0  0  0  0
    4.8671   10.3100    0.0000 C   0  0  0  0  0  0  0  0  0  0  0  0
    2.2690    5.8100    0.0000 C   0  0  0  0  0  0  0  0  0  0  0  0
    4.8671   11.3100    0.0000 C   0  0  0  0  0  0  0  0  0  0  0  0
    1.4030    4.3100    0.0000 C   0  0  0  0  0  0  0  0  0  0  0  0
    1.4030    3.3100    0.0000 C   0  0  0  0  0  0  0  0  0  0  0  0
    0.5369    2.8100    0.0000 C   0  0  0  0  0  0  0  0  0  0  0  0
    2.2690    2.8100    0.0000 C   0  0  0  0  0  0  0  0  0  0  0  0
    0.5369    1.8100    0.0000 C   0  0  0  0  0  0  0  0  0  0  0  0
    2.2690    1.8100    0.0000 C   0  0  0  0  0  0  0  0  0  0  0  0
    1.4030    1.3100    0.0000 C   0  0  0  0  0  0  0  0  0  0  0  0
    2.9230    8.8926    0.0000 H   0  0  0  0  0  0  0  0  0  0  0  0
    2.5244    8.2023    0.0000 H   0  0  0  0  0  0  0  0  0  0  0  0
    4.2131    8.2274    0.0000 H   0  0  0  0  0  0  0  0  0  0  0  0
    4.6116    8.9177    0.0000 H   0  0  0  0  0  0  0  0  0  0  0  0
    3.7550    7.3100    0.0000 H   0  0  0  0  0  0  0  0  0  0  0  0
    2.5150    7.3100    0.0000 H   0  0  0  0  0  0  0  0  0  0  0  0
    3.7890   10.3926    0.0000 H   0  0  0  0  0  0  0  0  0  0  0  0
    3.3905    9.7023    0.0000 H   0  0  0  0  0  0  0  0  0  0  0  0
    3.3471    5.7274    0.0000 H   0  0  0  0  0  0  0  0  0  0  0  0
    3.7456    6.4177    0.0000 H   0  0  0  0  0  0  0  0  0  0  0  0
    5.0791    9.7274    0.0000 H   0  0  0  0  0  0  0  0  0  0  0  0
    5.4776   10.4177    0.0000 H   0  0  0  0  0  0  0  0  0  0  0  0
    2.0569    6.3926    0.0000 H   0  0  0  0  0  0  0  0  0  0  0  0
    1.6584    5.7023    0.0000 H   0  0  0  0  0  0  0  0  0  0  0  0
    5.4871   11.3100    0.0000 H   0  0  0  0  0  0  0  0  0  0  0  0
    4.8671   11.9300    0.0000 H   0  0  0  0  0  0  0  0  0  0  0  0
    4.2471   11.3100    0.0000 H   0  0  0  0  0  0  0  0  0  0  0  0
    0.0000    3.1200    0.0000 H   0  0  0  0  0  0  0  0  0  0  0  0
    2.8059    3.1200    0.0000 H   0  0  0  0  0  0  0  0  0  0  0  0
    0.0000    1.5000    0.0000 H   0  0  0  0  0  0  0  0  0  0  0  0
    2.8059    1.5000    0.0000 H   0  0  0  0  0  0  0  0  0  0  0  0
    0.8660    0.0000    0.0000 H   0  0  0  0  0  0  0  0  0  0  0  0
    1.9399    0.0000    0.0000 H   0  0  0  0  0  0  0  0  0  0  0  0
  2 11  1  0  0  0  0
  2 13  1  0  0  0  0
  3 13  2  0  0  0  0
  4  6  1  0  0  0  0
  4  9  1  0  0  0  0
  4 24  1  0  0  0  0
  4 25  1  0  0  0  0
  5 19  1  0  0  0  0
  5 41  1  0  0  0  0
  5 42  1  0  0  0  0
  6  7  1  0  0  0  0
  6 20  1  0  0  0  0
  6 21  1  0  0  0  0
  7  8  1  0  0  0  0
  7 22  1  0  0  0  0
  7 23  1  0  0  0  0
  8 10  1  0  0  0  0
  8 26  1  0  0  0  0
  8 27  1  0  0  0  0
  9 11  1  0  0  0  0
  9 28  1  0  0  0  0
  9 29  1  0  0  0  0
 10 12  1  0  0  0  0
 10 30  1  0  0  0  0
 10 31  1  0  0  0  0
 11 32  1  0  0  0  0
 11 33  1  0  0  0  0
 12 34  1  0  0  0  0
 12 35  1  0  0  0  0
 12 36  1  0  0  0  0
 13 14  1  0  0  0  0
 14 15  2  0  0  0  0
 14 16  1  0  0  0  0
 15 17  1  0  0  0  0
 15 37  1  0  0  0  0
 16 18  2  0  0  0  0
 16 38  1  0  0  0  0
 17 19  2  0  0  0  0
 17 39  1  0  0  0  0
 18 19  1  0  0  0  0
 18 40  1  0  0  0  0
M  CHG  2   1  -1   4   1
M  END
> <PUBCHEM_COMPOUND_CID>
11963

> <PUBCHEM_COMPOUND_CANONICALIZED>
1

> <PUBCHEM_CACTVS_COMPLEXITY>
226

> <PUBCHEM_CACTVS_HBOND_ACCEPTOR>
4

> <PUBCHEM_CACTVS_HBOND_DONOR>
2

> <PUBCHEM_CACTVS_ROTATABLE_BOND>
9

> <PUBCHEM_CACTVS_SUBSKEYS>
AAADceBzMAAEAAAAAAAAAAAAAAAAAAAAAAAwAAAAAAAAAAABAAAAHgAQAAAADAjhmAYyyILABACIAiTSSACCAAAkAgAIiIEIbMgKJjKAtZmHMQBk0AGY6YeY2SGeCAAAAAAAAAAQAAAAAAAAAAAAAAAAAA==

> <PUBCHEM_IUPAC_OPENEYE_NAME>
2-(4-aminobenzoyl)oxyethyl-pentyl-ammonium chloride

> <PUBCHEM_IUPAC_CAS_NAME>
2-[(4-aminophenyl)-oxomethoxy]ethyl-pentylammonium chloride

> <PUBCHEM_IUPAC_NAME>
2-(4-aminobenzoyl)oxyethyl-pentylazanium chloride

> <PUBCHEM_IUPAC_SYSTEMATIC_NAME>
2-(4-aminophenyl)carbonyloxyethyl-pentyl-azanium chloride

> <PUBCHEM_IUPAC_TRADITIONAL_NAME>
2-(4-aminobenzoyl)oxyethyl-amyl-ammonium chloride

> <PUBCHEM_IUPAC_INCHI>
InChI=1S/C14H22N2O2.ClH/c1-2-3-4-9-16-10-11-18-14(17)12-5-7-13(15)8-6-12;/h5-8,16H,2-4,9-11,15H2,1H3;1H

> <PUBCHEM_IUPAC_INCHIKEY>
SDNODXJEIFDIKF-UHFFFAOYSA-N

> <PUBCHEM_EXACT_MASS>
286.144806

> <PUBCHEM_MOLECULAR_FORMULA>
C14H23ClN2O2

> <PUBCHEM_MOLECULAR_WEIGHT>
286.79762

> <PUBCHEM_OPENEYE_CAN_SMILES>
CCCCC[NH2+]CCOC(=O)C1=CC=C(C=C1)N.[Cl-]

> <PUBCHEM_OPENEYE_ISO_SMILES>
CCCCC[NH2+]CCOC(=O)C1=CC=C(C=C1)N.[Cl-]

> <PUBCHEM_CACTVS_TPSA>
68.9

> <PUBCHEM_MONOISOTOPIC_WEIGHT>
286.144806

> <PUBCHEM_TOTAL_CHARGE>
0

> <PUBCHEM_HEAVY_ATOM_COUNT>
19

> <PUBCHEM_ATOM_DEF_STEREO_COUNT>
0

> <PUBCHEM_ATOM_UDEF_STEREO_COUNT>
0

> <PUBCHEM_BOND_DEF_STEREO_COUNT>
0

> <PUBCHEM_BOND_UDEF_STEREO_COUNT>
0

> <PUBCHEM_ISOTOPIC_ATOM_COUNT>
0

> <PUBCHEM_COMPONENT_COUNT>
2

> <PUBCHEM_CACTVS_TAUTO_COUNT>
3

> <PUBCHEM_COORDINATE_TYPE>
1
5
255

> <PUBCHEM_BONDANNOTATIONS>
14  15  8
14  16  8
15  17  8
16  18  8
17  19  8
18  19  8

$$$$

