11701090
  -OEChem-07051212472D

 28 27  0     1  0  0  0  0  0999 V2000
    5.1350   -0.9050    0.0000 O   0  0  0  0  0  0  0  0  0  0  0  0
    3.4030   -0.9050    0.0000 O   0  0  0  0  0  0  0  0  0  0  0  0
    6.8671    0.0950    0.0000 N   0  3  0  0  0  0  0  0  0  0  0  0
    2.5369    0.5950    0.0000 N   0  0  0  0  0  0  0  0  0  0  0  0
    6.0010    0.5950    0.0000 C   0  0  0  0  0  0  0  0  0  0  0  0
    5.1350    0.0950    0.0000 C   0  0  1  0  0  0  0  0  0  0  0  0
    7.7331   -0.4050    0.0000 C   0  0  0  0  0  0  0  0  0  0  0  0
    7.3671    0.9610    0.0000 C   0  0  0  0  0  0  0  0  0  0  0  0
    6.3671   -0.7710    0.0000 C   0  0  0  0  0  0  0  0  0  0  0  0
    4.2690    0.5950    0.0000 C   0  0  0  0  0  0  0  0  0  0  0  0
    3.4030    0.0950    0.0000 C   0  0  0  0  0  0  0  0  0  0  0  0
    6.3996    1.0700    0.0000 H   0  0  0  0  0  0  0  0  0  0  0  0
    5.6025    1.0700    0.0000 H   0  0  0  0  0  0  0  0  0  0  0  0
    5.6720   -0.2150    0.0000 H   0  0  0  0  0  0  0  0  0  0  0  0
    7.4231   -0.9419    0.0000 H   0  0  0  0  0  0  0  0  0  0  0  0
    8.2700   -0.7150    0.0000 H   0  0  0  0  0  0  0  0  0  0  0  0
    8.0431    0.1319    0.0000 H   0  0  0  0  0  0  0  0  0  0  0  0
    7.9040    0.6510    0.0000 H   0  0  0  0  0  0  0  0  0  0  0  0
    7.6771    1.4980    0.0000 H   0  0  0  0  0  0  0  0  0  0  0  0
    6.8301    1.2710    0.0000 H   0  0  0  0  0  0  0  0  0  0  0  0
    5.8301   -0.4610    0.0000 H   0  0  0  0  0  0  0  0  0  0  0  0
    6.0571   -1.3080    0.0000 H   0  0  0  0  0  0  0  0  0  0  0  0
    6.9040   -1.0810    0.0000 H   0  0  0  0  0  0  0  0  0  0  0  0
    4.6675    1.0700    0.0000 H   0  0  0  0  0  0  0  0  0  0  0  0
    3.8705    1.0700    0.0000 H   0  0  0  0  0  0  0  0  0  0  0  0
    4.5981   -1.2150    0.0000 H   0  0  0  0  0  0  0  0  0  0  0  0
    2.0000    0.2850    0.0000 H   0  0  0  0  0  0  0  0  0  0  0  0
    2.5369    1.2150    0.0000 H   0  0  0  0  0  0  0  0  0  0  0  0
  6  1  1  6  0  0  0
  1 26  1  0  0  0  0
  2 11  2  0  0  0  0
  3  5  1  0  0  0  0
  3  7  1  0  0  0  0
  3  8  1  0  0  0  0
  3  9  1  0  0  0  0
  4 11  1  0  0  0  0
  4 27  1  0  0  0  0
  4 28  1  0  0  0  0
  5  6  1  0  0  0  0
  5 12  1  0  0  0  0
  5 13  1  0  0  0  0
  6 10  1  0  0  0  0
  6 14  1  0  0  0  0
  7 15  1  0  0  0  0
  7 16  1  0  0  0  0
  7 17  1  0  0  0  0
  8 18  1  0  0  0  0
  8 19  1  0  0  0  0
  8 20  1  0  0  0  0
  9 21  1  0  0  0  0
  9 22  1  0  0  0  0
  9 23  1  0  0  0  0
 10 11  1  0  0  0  0
 10 24  1  0  0  0  0
 10 25  1  0  0  0  0
M  CHG  1   3   1
M  END
> <PUBCHEM_COMPOUND_CID>
11701090

> <PUBCHEM_COMPOUND_CANONICALIZED>
1

> <PUBCHEM_CACTVS_COMPLEXITY>
140

> <PUBCHEM_CACTVS_HBOND_ACCEPTOR>
2

> <PUBCHEM_CACTVS_HBOND_DONOR>
2

> <PUBCHEM_CACTVS_ROTATABLE_BOND>
4

> <PUBCHEM_CACTVS_SUBSKEYS>
AAADceBjMAAAAAAAAAAAAAAAAAAAAAAAAAAAAAAAAAAAAAAAAAAAHgAQCAAACBThgAYCAANAAgAIAAEQEAAAAAAAAAAAAAEIAAACEBQAgAAEQAACMAAQAAAEAAAAAAAAAAAAAAAAAAAAAAAAAAAAAAAAAA==

> <PUBCHEM_IUPAC_OPENEYE_NAME>
[(2R)-4-amino-2-hydroxy-4-oxo-butyl]-trimethyl-ammonium

> <PUBCHEM_IUPAC_CAS_NAME>
[(2R)-4-amino-2-hydroxy-4-oxobutyl]-trimethylammonium

> <PUBCHEM_IUPAC_NAME>
[(2R)-4-amino-2-hydroxy-4-oxobutyl]-trimethylazanium

> <PUBCHEM_IUPAC_SYSTEMATIC_NAME>
[(2R)-4-azanyl-2-oxidanyl-4-oxidanylidene-butyl]-trimethyl-azanium

> <PUBCHEM_IUPAC_TRADITIONAL_NAME>
[(2R)-4-amino-2-hydroxy-4-keto-butyl]-trimethyl-ammonium

> <PUBCHEM_IUPAC_INCHI>
InChI=1S/C7H16N2O2/c1-9(2,3)5-6(10)4-7(8)11/h6,10H,4-5H2,1-3H3,(H-,8,11)/p+1/t6-/m1/s1

> <PUBCHEM_IUPAC_INCHIKEY>
KWIXGIMKELMNGH-ZCFIWIBFSA-O

> <PUBCHEM_XLOGP3_AA>
-1.5

> <PUBCHEM_EXACT_MASS>
161.129003

> <PUBCHEM_MOLECULAR_FORMULA>
C7H17N2O2+

> <PUBCHEM_MOLECULAR_WEIGHT>
161.22208

> <PUBCHEM_OPENEYE_CAN_SMILES>
C[N+](C)(C)CC(CC(=O)N)O

> <PUBCHEM_OPENEYE_ISO_SMILES>
C[N+](C)(C)C[C@@H](CC(=O)N)O

> <PUBCHEM_CACTVS_TPSA>
63.3

> <PUBCHEM_MONOISOTOPIC_WEIGHT>
161.129003

> <PUBCHEM_TOTAL_CHARGE>
1

> <PUBCHEM_HEAVY_ATOM_COUNT>
11

> <PUBCHEM_ATOM_DEF_STEREO_COUNT>
1

> <PUBCHEM_ATOM_UDEF_STEREO_COUNT>
0

> <PUBCHEM_BOND_DEF_STEREO_COUNT>
0

> <PUBCHEM_BOND_UDEF_STEREO_COUNT>
0

> <PUBCHEM_ISOTOPIC_ATOM_COUNT>
0

> <PUBCHEM_COMPONENT_COUNT>
1

> <PUBCHEM_CACTVS_TAUTO_COUNT>
3

> <PUBCHEM_COORDINATE_TYPE>
1
5
255

> <PUBCHEM_BONDANNOTATIONS>
6  1  6

$$$$

