15056855
  -OEChem-07051213072D

 83 84  0     1  0  0  0  0  0999 V2000
    6.3301   -1.5950    0.0000 O   0  0  0  0  0  0  0  0  0  0  0  0
    5.4641   -0.0950    0.0000 O   0  0  0  0  0  0  0  0  0  0  0  0
    4.5981   -2.5950    0.0000 O   0  0  0  0  0  0  0  0  0  0  0  0
    8.9282    2.9050    0.0000 O   0  0  0  0  0  0  0  0  0  0  0  0
   11.5263   -1.5950    0.0000 O   0  0  0  0  0  0  0  0  0  0  0  0
   10.1603   -0.2290    0.0000 O   0  0  0  0  0  0  0  0  0  0  0  0
    2.8660   -1.5950    0.0000 N   0  0  0  0  0  0  0  0  0  0  0  0
    3.7320   -1.0950    0.0000 C   0  0  2  0  0  0  0  0  0  0  0  0
    4.5981   -1.5950    0.0000 C   0  0  2  0  0  0  0  0  0  0  0  0
    5.4641   -1.0950    0.0000 C   0  0  2  0  0  0  0  0  0  0  0  0
    7.1962   -1.0950    0.0000 C   0  0  1  0  0  0  0  0  0  0  0  0
    3.7320   -0.0950    0.0000 C   0  0  0  0  0  0  0  0  0  0  0  0
    7.1962   -0.0950    0.0000 C   0  0  2  0  0  0  0  0  0  0  0  0
    4.5981    0.4050    0.0000 C   0  0  1  0  0  0  0  0  0  0  0  0
    8.0622   -1.5950    0.0000 C   0  0  1  0  0  0  0  0  0  0  0  0
    8.0622    0.4050    0.0000 C   0  0  0  0  0  0  0  0  0  0  0  0
    8.0622    1.4050    0.0000 C   0  0  1  0  0  0  0  0  0  0  0  0
    6.3301    0.4050    0.0000 C   0  0  0  0  0  0  0  0  0  0  0  0
    4.5981    1.4050    0.0000 C   0  0  0  0  0  0  0  0  0  0  0  0
    8.0622   -2.5950    0.0000 C   0  0  0  0  0  0  0  0  0  0  0  0
    8.9282   -1.0950    0.0000 C   0  0  0  0  0  0  0  0  0  0  0  0
    2.0000   -1.0950    0.0000 C   0  0  0  0  0  0  0  0  0  0  0  0
    2.8660   -2.5950    0.0000 C   0  0  0  0  0  0  0  0  0  0  0  0
    7.1962    1.9050    0.0000 C   0  0  0  0  0  0  0  0  0  0  0  0
    8.9282    1.9050    0.0000 C   0  0  0  0  0  0  0  0  0  0  0  0
    9.7942   -1.5950    0.0000 C   0  0  0  0  0  0  0  0  0  0  0  0
    9.7942    1.4050    0.0000 C   0  0  0  0  0  0  0  0  0  0  0  0
   10.6603   -1.0950    0.0000 C   0  0  0  0  0  0  0  0  0  0  0  0
   12.3923   -1.0950    0.0000 C   0  0  1  0  0  0  0  0  0  0  0  0
   12.3923   -0.0950    0.0000 C   0  0  2  0  0  0  0  0  0  0  0  0
   10.6603    1.9050    0.0000 C   0  0  0  0  0  0  0  0  0  0  0  0
   13.2583   -1.5950    0.0000 C   0  0  0  0  0  0  0  0  0  0  0  0
   11.5263    0.4050    0.0000 C   0  0  0  0  0  0  0  0  0  0  0  0
   11.5263    1.4050    0.0000 C   0  0  0  0  0  0  0  0  0  0  0  0
   13.2583    0.4050    0.0000 C   0  0  0  0  0  0  0  0  0  0  0  0
   13.2583   -2.5950    0.0000 C   0  0  0  0  0  0  0  0  0  0  0  0
    3.7320   -1.7150    0.0000 H   0  0  0  0  0  0  0  0  0  0  0  0
    5.1350   -1.9050    0.0000 H   0  0  0  0  0  0  0  0  0  0  0  0
    5.4641   -1.7150    0.0000 H   0  0  0  0  0  0  0  0  0  0  0  0
    6.6592   -0.7850    0.0000 H   0  0  0  0  0  0  0  0  0  0  0  0
    3.5200    0.4876    0.0000 H   0  0  0  0  0  0  0  0  0  0  0  0
    3.1215   -0.2027    0.0000 H   0  0  0  0  0  0  0  0  0  0  0  0
    6.6592   -0.4050    0.0000 H   0  0  0  0  0  0  0  0  0  0  0  0
    5.1350    0.7150    0.0000 H   0  0  0  0  0  0  0  0  0  0  0  0
    7.5252   -1.9050    0.0000 H   0  0  0  0  0  0  0  0  0  0  0  0
    8.2742   -0.1776    0.0000 H   0  0  0  0  0  0  0  0  0  0  0  0
    8.6728    0.5127    0.0000 H   0  0  0  0  0  0  0  0  0  0  0  0
    8.0622    2.0250    0.0000 H   0  0  0  0  0  0  0  0  0  0  0  0
    6.6401    0.9419    0.0000 H   0  0  0  0  0  0  0  0  0  0  0  0
    5.7932    0.7150    0.0000 H   0  0  0  0  0  0  0  0  0  0  0  0
    6.0201   -0.1319    0.0000 H   0  0  0  0  0  0  0  0  0  0  0  0
    5.2181    1.4050    0.0000 H   0  0  0  0  0  0  0  0  0  0  0  0
    4.5981    2.0250    0.0000 H   0  0  0  0  0  0  0  0  0  0  0  0
    3.9781    1.4050    0.0000 H   0  0  0  0  0  0  0  0  0  0  0  0
    7.4422   -2.5950    0.0000 H   0  0  0  0  0  0  0  0  0  0  0  0
    8.0622   -3.2150    0.0000 H   0  0  0  0  0  0  0  0  0  0  0  0
    8.6822   -2.5950    0.0000 H   0  0  0  0  0  0  0  0  0  0  0  0
    5.1350   -2.9050    0.0000 H   0  0  0  0  0  0  0  0  0  0  0  0
    8.9282   -0.4750    0.0000 H   0  0  0  0  0  0  0  0  0  0  0  0
    2.3100   -0.5581    0.0000 H   0  0  0  0  0  0  0  0  0  0  0  0
    1.4631   -0.7850    0.0000 H   0  0  0  0  0  0  0  0  0  0  0  0
    1.6900   -1.6319    0.0000 H   0  0  0  0  0  0  0  0  0  0  0  0
    2.2460   -2.5950    0.0000 H   0  0  0  0  0  0  0  0  0  0  0  0
    2.8660   -3.2150    0.0000 H   0  0  0  0  0  0  0  0  0  0  0  0
    3.4860   -2.5950    0.0000 H   0  0  0  0  0  0  0  0  0  0  0  0
    7.5062    2.4419    0.0000 H   0  0  0  0  0  0  0  0  0  0  0  0
    6.6592    2.2150    0.0000 H   0  0  0  0  0  0  0  0  0  0  0  0
    6.8862    1.3681    0.0000 H   0  0  0  0  0  0  0  0  0  0  0  0
    9.7942   -2.2150    0.0000 H   0  0  0  0  0  0  0  0  0  0  0  0
    9.7942    0.7850    0.0000 H   0  0  0  0  0  0  0  0  0  0  0  0
   12.3923   -1.7150    0.0000 H   0  0  0  0  0  0  0  0  0  0  0  0
   12.3923    0.5250    0.0000 H   0  0  0  0  0  0  0  0  0  0  0  0
   10.6603    2.5250    0.0000 H   0  0  0  0  0  0  0  0  0  0  0  0
   13.8689   -1.7027    0.0000 H   0  0  0  0  0  0  0  0  0  0  0  0
   13.4704   -1.0124    0.0000 H   0  0  0  0  0  0  0  0  0  0  0  0
   10.9893    0.0950    0.0000 H   0  0  0  0  0  0  0  0  0  0  0  0
   12.0632    1.7150    0.0000 H   0  0  0  0  0  0  0  0  0  0  0  0
   13.5683   -0.1319    0.0000 H   0  0  0  0  0  0  0  0  0  0  0  0
   13.7953    0.7150    0.0000 H   0  0  0  0  0  0  0  0  0  0  0  0
   12.9483    0.9419    0.0000 H   0  0  0  0  0  0  0  0  0  0  0  0
   12.6383   -2.5950    0.0000 H   0  0  0  0  0  0  0  0  0  0  0  0
   13.2583   -3.2150    0.0000 H   0  0  0  0  0  0  0  0  0  0  0  0
   13.8783   -2.5950    0.0000 H   0  0  0  0  0  0  0  0  0  0  0  0
 10  1  1  1  0  0  0
 11  1  1  1  0  0  0
  2 10  1  0  0  0  0
  2 14  1  0  0  0  0
  9  3  1  6  0  0  0
  3 58  1  0  0  0  0
  4 25  2  0  0  0  0
  5 28  1  0  0  0  0
  5 29  1  0  0  0  0
  6 28  2  0  0  0  0
  8  7  1  1  0  0  0
  7 22  1  0  0  0  0
  7 23  1  0  0  0  0
  8  9  1  0  0  0  0
  8 12  1  0  0  0  0
  8 37  1  0  0  0  0
  9 10  1  0  0  0  0
  9 38  1  0  0  0  0
 10 39  1  0  0  0  0
 11 13  1  0  0  0  0
 11 15  1  0  0  0  0
 11 40  1  0  0  0  0
 12 14  1  0  0  0  0
 12 41  1  0  0  0  0
 12 42  1  0  0  0  0
 13 16  1  0  0  0  0
 13 18  1  1  0  0  0
 13 43  1  0  0  0  0
 14 19  1  1  0  0  0
 14 44  1  0  0  0  0
 15 20  1  6  0  0  0
 15 21  1  0  0  0  0
 15 45  1  0  0  0  0
 16 17  1  0  0  0  0
 16 46  1  0  0  0  0
 16 47  1  0  0  0  0
 17 24  1  1  0  0  0
 17 25  1  0  0  0  0
 17 48  1  0  0  0  0
 18 49  1  0  0  0  0
 18 50  1  0  0  0  0
 18 51  1  0  0  0  0
 19 52  1  0  0  0  0
 19 53  1  0  0  0  0
 19 54  1  0  0  0  0
 20 55  1  0  0  0  0
 20 56  1  0  0  0  0
 20 57  1  0  0  0  0
 21 26  2  0  0  0  0
 21 59  1  0  0  0  0
 22 60  1  0  0  0  0
 22 61  1  0  0  0  0
 22 62  1  0  0  0  0
 23 63  1  0  0  0  0
 23 64  1  0  0  0  0
 23 65  1  0  0  0  0
 24 66  1  0  0  0  0
 24 67  1  0  0  0  0
 24 68  1  0  0  0  0
 25 27  1  0  0  0  0
 26 28  1  0  0  0  0
 26 69  1  0  0  0  0
 27 31  2  0  0  0  0
 27 70  1  0  0  0  0
 29 30  1  0  0  0  0
 29 32  1  1  0  0  0
 29 71  1  0  0  0  0
 30 33  1  0  0  0  0
 30 35  1  6  0  0  0
 30 72  1  0  0  0  0
 31 34  1  0  0  0  0
 31 73  1  0  0  0  0
 32 36  1  0  0  0  0
 32 74  1  0  0  0  0
 32 75  1  0  0  0  0
 33 34  2  0  0  0  0
 33 76  1  0  0  0  0
 34 77  1  0  0  0  0
 35 78  1  0  0  0  0
 35 79  1  0  0  0  0
 35 80  1  0  0  0  0
 36 81  1  0  0  0  0
 36 82  1  0  0  0  0
 36 83  1  0  0  0  0
M  END
> <PUBCHEM_COMPOUND_CID>
15056855

> <PUBCHEM_COMPOUND_CANONICALIZED>
1

> <PUBCHEM_CACTVS_COMPLEXITY>
806

> <PUBCHEM_CACTVS_HBOND_ACCEPTOR>
7

> <PUBCHEM_CACTVS_HBOND_DONOR>
1

> <PUBCHEM_CACTVS_ROTATABLE_BOND>
4

> <PUBCHEM_CACTVS_SUBSKEYS>
AAADcfB6OAAAAAAAAAAAAAAAAAAAAAAAAAAkAAAAAAAAAAAAAAAAHgAACAAADTzxgAcCCAMABgCIAKDSCAAAAAAgAAAICAEIAEgbFBIAoQAmUAAGwAAfoYPI7MzOAAAAAAAAAAAAAAAAAAAAAAAAAAAAAA==

> <PUBCHEM_IUPAC_OPENEYE_NAME>
(3E,5S,6S,7S,9R,11E,13E,15S,16R)-6-[(2S,3R,4S,6R)-4-(dimethylamino)-3-hydroxy-6-methyl-tetrahydropyran-2-yl]oxy-16-ethyl-5,7,9,15-tetramethyl-1-oxacyclohexadeca-3,11,13-triene-2,10-dione

> <PUBCHEM_IUPAC_CAS_NAME>
(3E,5S,6S,7S,9R,11E,13E,15S,16R)-6-[[(2S,3R,4S,6R)-4-(dimethylamino)-3-hydroxy-6-methyl-2-oxanyl]oxy]-16-ethyl-5,7,9,15-tetramethyl-1-oxacyclohexadeca-3,11,13-triene-2,10-dione

> <PUBCHEM_IUPAC_NAME>
(3E,5S,6S,7S,9R,11E,13E,15S,16R)-6-[(2S,3R,4S,6R)-4-(dimethylamino)-3-hydroxy-6-methyloxan-2-yl]oxy-16-ethyl-5,7,9,15-tetramethyl-1-oxacyclohexadeca-3,11,13-triene-2,10-dione

> <PUBCHEM_IUPAC_SYSTEMATIC_NAME>
(3E,5S,6S,7S,9R,11E,13E,15S,16R)-6-[(2S,3R,4S,6R)-4-(dimethylamino)-6-methyl-3-oxidanyl-oxan-2-yl]oxy-16-ethyl-5,7,9,15-tetramethyl-1-oxacyclohexadeca-3,11,13-triene-2,10-dione

> <PUBCHEM_IUPAC_TRADITIONAL_NAME>
(3E,5S,6S,7S,9R,11E,13E,15S,16R)-6-[(2S,3R,4S,6R)-4-(dimethylamino)-3-hydroxy-6-methyl-tetrahydropyran-2-yl]oxy-16-ethyl-5,7,9,15-tetramethyl-1-oxacyclohexadeca-3,11,13-triene-2,10-quinone

> <PUBCHEM_IUPAC_INCHI>
InChI=1S/C29H47NO6/c1-9-25-18(2)12-10-11-13-24(31)20(4)16-21(5)28(19(3)14-15-26(32)35-25)36-29-27(33)23(30(7)8)17-22(6)34-29/h10-15,18-23,25,27-29,33H,9,16-17H2,1-8H3/b12-10+,13-11+,15-14+/t18-,19-,20+,21-,22+,23-,25+,27+,28+,29-/m0/s1

> <PUBCHEM_IUPAC_INCHIKEY>
XUBWLMQSFCTODE-UCOIGXIWSA-N

> <PUBCHEM_XLOGP3_AA>
5.3

> <PUBCHEM_EXACT_MASS>
505.340338

> <PUBCHEM_MOLECULAR_FORMULA>
C29H47NO6

> <PUBCHEM_MOLECULAR_WEIGHT>
505.68658

> <PUBCHEM_OPENEYE_CAN_SMILES>
CCC1C(C=CC=CC(=O)C(CC(C(C(C=CC(=O)O1)C)OC2C(C(CC(O2)C)N(C)C)O)C)C)C

> <PUBCHEM_OPENEYE_ISO_SMILES>
CC[C@@H]1[C@H](/C=C/C=C/C(=O)[C@@H](C[C@@H]([C@@H]([C@H](/C=C/C(=O)O1)C)O[C@H]2[C@@H]([C@H](C[C@H](O2)C)N(C)C)O)C)C)C

> <PUBCHEM_CACTVS_TPSA>
85.3

> <PUBCHEM_MONOISOTOPIC_WEIGHT>
505.340338

> <PUBCHEM_TOTAL_CHARGE>
0

> <PUBCHEM_HEAVY_ATOM_COUNT>
36

> <PUBCHEM_ATOM_DEF_STEREO_COUNT>
10

> <PUBCHEM_ATOM_UDEF_STEREO_COUNT>
0

> <PUBCHEM_BOND_DEF_STEREO_COUNT>
3

> <PUBCHEM_BOND_UDEF_STEREO_COUNT>
0

> <PUBCHEM_ISOTOPIC_ATOM_COUNT>
0

> <PUBCHEM_COMPONENT_COUNT>
1

> <PUBCHEM_CACTVS_TAUTO_COUNT>
7

> <PUBCHEM_COORDINATE_TYPE>
1
5
255

> <PUBCHEM_BONDANNOTATIONS>
10  1  5
11  1  5
13  18  5
14  19  5
15  20  6
17  24  5
29  32  5
9  3  6
30  35  6
8  7  5

$$$$

