17396613
  -OEChem-06241222572D

 48 50  0     0  0  0  0  0  0999 V2000
   10.6882    0.1980    0.0000 O   0  0  0  0  0  0  0  0  0  0  0  0
   10.6882    2.2673    0.0000 O   0  0  0  0  0  0  0  0  0  0  0  0
    7.1962    0.2327    0.0000 O   0  0  0  0  0  0  0  0  0  0  0  0
    5.4641   -0.7673    0.0000 O   0  0  0  0  0  0  0  0  0  0  0  0
    4.5981    0.7327    0.0000 N   0  0  0  0  0  0  0  0  0  0  0  0
    3.7320    0.2327    0.0000 C   0  0  0  0  0  0  0  0  0  0  0  0
    2.8660    0.7327    0.0000 C   0  0  0  0  0  0  0  0  0  0  0  0
    3.7320   -0.7673    0.0000 C   0  0  0  0  0  0  0  0  0  0  0  0
    2.8660    1.7327    0.0000 C   0  0  0  0  0  0  0  0  0  0  0  0
    4.5981   -1.2673    0.0000 C   0  0  0  0  0  0  0  0  0  0  0  0
    2.0000    0.2327    0.0000 C   0  0  0  0  0  0  0  0  0  0  0  0
    2.8660   -1.2673    0.0000 C   0  0  0  0  0  0  0  0  0  0  0  0
    2.0000   -0.7673    0.0000 C   0  0  0  0  0  0  0  0  0  0  0  0
    2.0000    2.2327    0.0000 C   0  0  0  0  0  0  0  0  0  0  0  0
    4.5981   -2.2673    0.0000 C   0  0  0  0  0  0  0  0  0  0  0  0
    9.7942    0.7327    0.0000 C   0  0  0  0  0  0  0  0  0  0  0  0
    9.7942    1.7327    0.0000 C   0  0  0  0  0  0  0  0  0  0  0  0
    5.4641    0.2327    0.0000 C   0  0  0  0  0  0  0  0  0  0  0  0
   11.5942    0.7119    0.0000 C   0  0  0  0  0  0  0  0  0  0  0  0
   11.5942    1.7535    0.0000 C   0  0  0  0  0  0  0  0  0  0  0  0
    6.3301    0.7327    0.0000 C   0  0  0  0  0  0  0  0  0  0  0  0
    8.0622    0.7327    0.0000 C   0  0  0  0  0  0  0  0  0  0  0  0
    8.9282    0.2327    0.0000 C   0  0  0  0  0  0  0  0  0  0  0  0
    8.9282    2.2327    0.0000 C   0  0  0  0  0  0  0  0  0  0  0  0
    8.0622    1.7327    0.0000 C   0  0  0  0  0  0  0  0  0  0  0  0
    3.4766    1.6250    0.0000 H   0  0  0  0  0  0  0  0  0  0  0  0
    3.0781    2.3153    0.0000 H   0  0  0  0  0  0  0  0  0  0  0  0
    5.2087   -1.3750    0.0000 H   0  0  0  0  0  0  0  0  0  0  0  0
    4.8101   -0.6847    0.0000 H   0  0  0  0  0  0  0  0  0  0  0  0
    1.4631    0.5427    0.0000 H   0  0  0  0  0  0  0  0  0  0  0  0
    2.8660   -1.8873    0.0000 H   0  0  0  0  0  0  0  0  0  0  0  0
    4.5981    1.3527    0.0000 H   0  0  0  0  0  0  0  0  0  0  0  0
    1.4631   -1.0773    0.0000 H   0  0  0  0  0  0  0  0  0  0  0  0
    2.3100    2.7696    0.0000 H   0  0  0  0  0  0  0  0  0  0  0  0
    1.4631    2.5427    0.0000 H   0  0  0  0  0  0  0  0  0  0  0  0
    1.6900    1.6957    0.0000 H   0  0  0  0  0  0  0  0  0  0  0  0
    3.9781   -2.2673    0.0000 H   0  0  0  0  0  0  0  0  0  0  0  0
    4.5981   -2.8873    0.0000 H   0  0  0  0  0  0  0  0  0  0  0  0
    5.2181   -2.2673    0.0000 H   0  0  0  0  0  0  0  0  0  0  0  0
   11.8033    0.1282    0.0000 H   0  0  0  0  0  0  0  0  0  0  0  0
   12.2051    0.8179    0.0000 H   0  0  0  0  0  0  0  0  0  0  0  0
   12.2051    1.6474    0.0000 H   0  0  0  0  0  0  0  0  0  0  0  0
   11.8033    2.3372    0.0000 H   0  0  0  0  0  0  0  0  0  0  0  0
    6.7287    1.2076    0.0000 H   0  0  0  0  0  0  0  0  0  0  0  0
    5.9316    1.2076    0.0000 H   0  0  0  0  0  0  0  0  0  0  0  0
    8.9282   -0.3873    0.0000 H   0  0  0  0  0  0  0  0  0  0  0  0
    8.9282    2.8527    0.0000 H   0  0  0  0  0  0  0  0  0  0  0  0
    7.5252    2.0427    0.0000 H   0  0  0  0  0  0  0  0  0  0  0  0
  1 16  1  0  0  0  0
  1 19  1  0  0  0  0
  2 17  1  0  0  0  0
  2 20  1  0  0  0  0
  3 21  1  0  0  0  0
  3 22  1  0  0  0  0
  4 18  2  0  0  0  0
  5  6  1  0  0  0  0
  5 18  1  0  0  0  0
  5 32  1  0  0  0  0
  6  7  2  0  0  0  0
  6  8  1  0  0  0  0
  7  9  1  0  0  0  0
  7 11  1  0  0  0  0
  8 10  1  0  0  0  0
  8 12  2  0  0  0  0
  9 14  1  0  0  0  0
  9 26  1  0  0  0  0
  9 27  1  0  0  0  0
 10 15  1  0  0  0  0
 10 28  1  0  0  0  0
 10 29  1  0  0  0  0
 11 13  2  0  0  0  0
 11 30  1  0  0  0  0
 12 13  1  0  0  0  0
 12 31  1  0  0  0  0
 13 33  1  0  0  0  0
 14 34  1  0  0  0  0
 14 35  1  0  0  0  0
 14 36  1  0  0  0  0
 15 37  1  0  0  0  0
 15 38  1  0  0  0  0
 15 39  1  0  0  0  0
 16 17  2  0  0  0  0
 16 23  1  0  0  0  0
 17 24  1  0  0  0  0
 18 21  1  0  0  0  0
 19 20  1  0  0  0  0
 19 40  1  0  0  0  0
 19 41  1  0  0  0  0
 20 42  1  0  0  0  0
 20 43  1  0  0  0  0
 21 44  1  0  0  0  0
 21 45  1  0  0  0  0
 22 23  2  0  0  0  0
 22 25  1  0  0  0  0
 23 46  1  0  0  0  0
 24 25  2  0  0  0  0
 24 47  1  0  0  0  0
 25 48  1  0  0  0  0
M  END
> <PUBCHEM_COMPOUND_CID>
17396613

> <PUBCHEM_COMPOUND_CANONICALIZED>
1

> <PUBCHEM_CACTVS_COMPLEXITY>
418

> <PUBCHEM_CACTVS_HBOND_ACCEPTOR>
4

> <PUBCHEM_CACTVS_HBOND_DONOR>
1

> <PUBCHEM_CACTVS_ROTATABLE_BOND>
6

> <PUBCHEM_CACTVS_SUBSKEYS>
AAADceB6OAAAAAAAAAAAAAAAAAAAAAAAAAA0YIAAAAAAAACRQAAAHgAQAAAADAyhmAIyxoLABACIAiVSUAKCCAAhIAAIiABGzIgPJyLEsZ+HOCrl1BXa6AfQ4MwOAQACCAACQAACAAQQAASAAAAAAAAAAA==

> <PUBCHEM_IUPAC_OPENEYE_NAME>
N-(2,6-diethylphenyl)-2-(2,3-dihydro-1,4-benzodioxin-6-yloxy)acetamide

> <PUBCHEM_IUPAC_CAS_NAME>
N-(2,6-diethylphenyl)-2-(2,3-dihydro-1,4-benzodioxin-6-yloxy)acetamide

> <PUBCHEM_IUPAC_NAME>
N-(2,6-diethylphenyl)-2-(2,3-dihydro-1,4-benzodioxin-6-yloxy)acetamide

> <PUBCHEM_IUPAC_SYSTEMATIC_NAME>
N-(2,6-diethylphenyl)-2-(2,3-dihydro-1,4-benzodioxin-6-yloxy)ethanamide

> <PUBCHEM_IUPAC_TRADITIONAL_NAME>
N-(2,6-diethylphenyl)-2-(2,3-dihydro-1,4-benzodioxin-6-yloxy)acetamide

> <PUBCHEM_IUPAC_INCHI>
InChI=1S/C20H23NO4/c1-3-14-6-5-7-15(4-2)20(14)21-19(22)13-25-16-8-9-17-18(12-16)24-11-10-23-17/h5-9,12H,3-4,10-11,13H2,1-2H3,(H,21,22)

> <PUBCHEM_IUPAC_INCHIKEY>
AHBICYMCYHLGNN-UHFFFAOYSA-N

> <PUBCHEM_XLOGP3_AA>
4.1

> <PUBCHEM_EXACT_MASS>
341.162708

> <PUBCHEM_MOLECULAR_FORMULA>
C20H23NO4

> <PUBCHEM_MOLECULAR_WEIGHT>
341.40092

> <PUBCHEM_OPENEYE_CAN_SMILES>
CCC1=C(C(=CC=C1)CC)NC(=O)COC2=CC3=C(C=C2)OCCO3

> <PUBCHEM_OPENEYE_ISO_SMILES>
CCC1=C(C(=CC=C1)CC)NC(=O)COC2=CC3=C(C=C2)OCCO3

> <PUBCHEM_CACTVS_TPSA>
56.8

> <PUBCHEM_MONOISOTOPIC_WEIGHT>
341.162708

> <PUBCHEM_TOTAL_CHARGE>
0

> <PUBCHEM_HEAVY_ATOM_COUNT>
25

> <PUBCHEM_ATOM_DEF_STEREO_COUNT>
0

> <PUBCHEM_ATOM_UDEF_STEREO_COUNT>
0

> <PUBCHEM_BOND_DEF_STEREO_COUNT>
0

> <PUBCHEM_BOND_UDEF_STEREO_COUNT>
0

> <PUBCHEM_ISOTOPIC_ATOM_COUNT>
0

> <PUBCHEM_COMPONENT_COUNT>
1

> <PUBCHEM_CACTVS_TAUTO_COUNT>
3

> <PUBCHEM_COORDINATE_TYPE>
1
5
255

> <PUBCHEM_BONDANNOTATIONS>
11  13  8
12  13  8
16  17  8
16  23  8
17  24  8
22  23  8
22  25  8
24  25  8
6  7  8
6  8  8
7  11  8
8  12  8

$$$$

