6079
  -OEChem-06261201052D

 43 42  0     1  0  0  0  0  0999 V2000
    8.2700    3.8700    0.0000 Cl  0  0  0  0  0  0  0  0  0  0  0  0
    2.2690    5.1200    0.0000 O   0  0  0  0  0  0  0  0  0  0  0  0
    1.4030    3.6200    0.0000 O   0  0  0  0  0  0  0  0  0  0  0  0
    4.8671    1.6200    0.0000 O   0  0  0  0  0  0  0  0  0  0  0  0
    4.0010    6.1200    0.0000 N   0  0  0  0  0  0  0  0  0  0  0  0
    4.0010    5.1200    0.0000 C   0  0  3  0  0  0  0  0  0  0  0  0
    3.1350    4.6200    0.0000 C   0  0  3  0  0  0  0  0  0  0  0  0
    4.8671    6.6200    0.0000 C   0  0  0  0  0  0  0  0  0  0  0  0
    3.1350    3.6200    0.0000 C   0  0  0  0  0  0  0  0  0  0  0  0
    4.8671    4.6200    0.0000 C   0  0  0  0  0  0  0  0  0  0  0  0
    4.8671    7.6200    0.0000 C   0  0  0  0  0  0  0  0  0  0  0  0
    5.7331    6.1200    0.0000 C   0  0  0  0  0  0  0  0  0  0  0  0
    2.2690    3.1200    0.0000 C   0  0  0  0  0  0  0  0  0  0  0  0
    4.0010    3.1200    0.0000 C   0  0  0  0  0  0  0  0  0  0  0  0
    4.0010    2.1200    0.0000 C   0  0  0  0  0  0  0  0  0  0  0  0
    2.2690    2.1200    0.0000 C   0  0  0  0  0  0  0  0  0  0  0  0
    3.1350    1.6200    0.0000 C   0  0  0  0  0  0  0  0  0  0  0  0
    0.5369    3.1200    0.0000 C   0  0  0  0  0  0  0  0  0  0  0  0
    4.8671    0.6200    0.0000 C   0  0  0  0  0  0  0  0  0  0  0  0
    4.7372    5.5450    0.0000 H   0  0  0  0  0  0  0  0  0  0  0  0
    3.1350    5.4700    0.0000 H   0  0  0  0  0  0  0  0  0  0  0  0
    3.4641    6.4300    0.0000 H   0  0  0  0  0  0  0  0  0  0  0  0
    4.3301    6.9300    0.0000 H   0  0  0  0  0  0  0  0  0  0  0  0
    4.5571    4.0831    0.0000 H   0  0  0  0  0  0  0  0  0  0  0  0
    5.4040    4.3100    0.0000 H   0  0  0  0  0  0  0  0  0  0  0  0
    5.1771    5.1569    0.0000 H   0  0  0  0  0  0  0  0  0  0  0  0
    5.4871    7.6200    0.0000 H   0  0  0  0  0  0  0  0  0  0  0  0
    4.8671    8.2400    0.0000 H   0  0  0  0  0  0  0  0  0  0  0  0
    4.2471    7.6200    0.0000 H   0  0  0  0  0  0  0  0  0  0  0  0
    5.4231    5.5831    0.0000 H   0  0  0  0  0  0  0  0  0  0  0  0
    6.2700    5.8100    0.0000 H   0  0  0  0  0  0  0  0  0  0  0  0
    6.0431    6.6569    0.0000 H   0  0  0  0  0  0  0  0  0  0  0  0
    4.5380    3.4300    0.0000 H   0  0  0  0  0  0  0  0  0  0  0  0
    2.2690    5.7400    0.0000 H   0  0  0  0  0  0  0  0  0  0  0  0
    1.7320    1.8100    0.0000 H   0  0  0  0  0  0  0  0  0  0  0  0
    3.1350    1.0000    0.0000 H   0  0  0  0  0  0  0  0  0  0  0  0
    0.2269    3.6569    0.0000 H   0  0  0  0  0  0  0  0  0  0  0  0
    0.0000    2.8100    0.0000 H   0  0  0  0  0  0  0  0  0  0  0  0
    0.8469    2.5831    0.0000 H   0  0  0  0  0  0  0  0  0  0  0  0
    4.2471    0.6200    0.0000 H   0  0  0  0  0  0  0  0  0  0  0  0
    4.8671    0.0000    0.0000 H   0  0  0  0  0  0  0  0  0  0  0  0
    5.4871    0.6200    0.0000 H   0  0  0  0  0  0  0  0  0  0  0  0
    9.2700    3.8700    0.0000 H   0  0  0  0  0  0  0  0  0  0  0  0
  1 43  1  0  0  0  0
  2  7  1  0  0  0  0
  2 34  1  0  0  0  0
  3 13  1  0  0  0  0
  3 18  1  0  0  0  0
  4 15  1  0  0  0  0
  4 19  1  0  0  0  0
  5  6  1  0  0  0  0
  5  8  1  0  0  0  0
  5 22  1  0  0  0  0
  6  7  1  0  0  0  0
  6 10  1  0  0  0  0
  6 20  1  0  0  0  0
  7  9  1  0  0  0  0
  7 21  1  0  0  0  0
  8 11  1  0  0  0  0
  8 12  1  0  0  0  0
  8 23  1  0  0  0  0
  9 13  2  0  0  0  0
  9 14  1  0  0  0  0
 10 24  1  0  0  0  0
 10 25  1  0  0  0  0
 10 26  1  0  0  0  0
 11 27  1  0  0  0  0
 11 28  1  0  0  0  0
 11 29  1  0  0  0  0
 12 30  1  0  0  0  0
 12 31  1  0  0  0  0
 12 32  1  0  0  0  0
 13 16  1  0  0  0  0
 14 15  2  0  0  0  0
 14 33  1  0  0  0  0
 15 17  1  0  0  0  0
 16 17  2  0  0  0  0
 16 35  1  0  0  0  0
 17 36  1  0  0  0  0
 18 37  1  0  0  0  0
 18 38  1  0  0  0  0
 18 39  1  0  0  0  0
 19 40  1  0  0  0  0
 19 41  1  0  0  0  0
 19 42  1  0  0  0  0
M  END
> <PUBCHEM_COMPOUND_CID>
6079

> <PUBCHEM_COMPOUND_CANONICALIZED>
1

> <PUBCHEM_CACTVS_COMPLEXITY>
235

> <PUBCHEM_CACTVS_HBOND_ACCEPTOR>
4

> <PUBCHEM_CACTVS_HBOND_DONOR>
3

> <PUBCHEM_CACTVS_ROTATABLE_BOND>
6

> <PUBCHEM_CACTVS_SUBSKEYS>
AAADceByMAAEAAAAAAAAAAAAAAAAAAAAAAAwAAAAAAAAAAABAAAAHgAQCAAADDzhmAYyBoLABgCAAiBCAAACCAAgIAAIiIAOCIgONyKEsRuEcCAl0BGYuAfw0LMOAQABAAAIAAACAAIAABAAAAAAAAAAAA==

> <PUBCHEM_IUPAC_OPENEYE_NAME>
1-(2,5-dimethoxyphenyl)-2-(isopropylamino)propan-1-ol hydrochloride

> <PUBCHEM_IUPAC_CAS_NAME>
1-(2,5-dimethoxyphenyl)-2-(propan-2-ylamino)-1-propanol hydrochloride

> <PUBCHEM_IUPAC_NAME>
1-(2,5-dimethoxyphenyl)-2-(propan-2-ylamino)propan-1-ol hydrochloride

> <PUBCHEM_IUPAC_SYSTEMATIC_NAME>
1-(2,5-dimethoxyphenyl)-2-(propan-2-ylamino)propan-1-ol hydrochloride

> <PUBCHEM_IUPAC_TRADITIONAL_NAME>
1-(2,5-dimethoxyphenyl)-2-(isopropylamino)propan-1-ol hydrochloride

> <PUBCHEM_IUPAC_INCHI>
InChI=1S/C14H23NO3.ClH/c1-9(2)15-10(3)14(16)12-8-11(17-4)6-7-13(12)18-5;/h6-10,14-16H,1-5H3;1H

> <PUBCHEM_IUPAC_INCHIKEY>
PDUFACBDZZVKBL-UHFFFAOYSA-N

> <PUBCHEM_EXACT_MASS>
289.144471

> <PUBCHEM_MOLECULAR_FORMULA>
C14H24ClNO3

> <PUBCHEM_MOLECULAR_WEIGHT>
289.79826

> <PUBCHEM_OPENEYE_CAN_SMILES>
CC(C)NC(C)C(C1=C(C=CC(=C1)OC)OC)O.Cl

> <PUBCHEM_OPENEYE_ISO_SMILES>
CC(C)NC(C)C(C1=C(C=CC(=C1)OC)OC)O.Cl

> <PUBCHEM_CACTVS_TPSA>
50.7

> <PUBCHEM_MONOISOTOPIC_WEIGHT>
289.144471

> <PUBCHEM_TOTAL_CHARGE>
0

> <PUBCHEM_HEAVY_ATOM_COUNT>
19

> <PUBCHEM_ATOM_DEF_STEREO_COUNT>
0

> <PUBCHEM_ATOM_UDEF_STEREO_COUNT>
2

> <PUBCHEM_BOND_DEF_STEREO_COUNT>
0

> <PUBCHEM_BOND_UDEF_STEREO_COUNT>
0

> <PUBCHEM_ISOTOPIC_ATOM_COUNT>
0

> <PUBCHEM_COMPONENT_COUNT>
2

> <PUBCHEM_CACTVS_TAUTO_COUNT>
1

> <PUBCHEM_COORDINATE_TYPE>
1
5
255

> <PUBCHEM_BONDANNOTATIONS>
13  16  8
14  15  8
15  17  8
16  17  8
6  20  3
7  21  3
9  13  8
9  14  8

$$$$

