   Color/Form
        Colorless crystals
   from [1]HSDB

   Odor
        Odorless
   from [2]HSDB

   Boiling Point
        Decomposes on distillation
   from [3]HSDB

   Melting Point
        93 deg C
   from [4]HSDB

   Density/Specific Gravity
        1.52 g/cu cm
   from [5]HSDB

   Octanol/Water Partition Coefficient
        log Kow = 3.90 at 20 deg C
   from [6]HSDB

   Solubilities

     * Solubility in toluene: 0.9 g/mL (20 deg C), 1.06 g/mL (25 deg C),
       1.2 g/mL (30 deg C); hexane: 0.03 g/mL (20 deg C), 0.05 g/mL (25
       deg C), 0.05 g/mL (30 deg C); miscible in all proportions with
       acetone, ethanol, ethyl acetate, methylene chloride.
     * Solubility in heptane 54, dichloromethane >250, isopropanol 22,
       xylene 190 (all in g/L, 20 deg C)
     * In water, 0.9 mg/L at 20 deg C

   from [7]HSDB

   Vapor Pressure
        1.5X10-6 mm Hg at 20 deg C
   from [8]HSDB

   Other Chemical/Physical Properties

     * Henry's Law constant = 7.6X10-7 atm-cu m/mol at 25 deg C
       /Estimated/
     * Hydroxyl radical reaction rate constant = 1.8X10-11 cu
       cm/molecule-sec at 25 deg C /Estimated/

   from [9]HSDB

   Computed Properties
   Molecular Weight                  347.256823 [g/mol]
   Molecular Formula                 C[10]H[13]Cl[2]FN[2]O[2]S[2]
   XLogP3                            3.9
   H-Bond Donor                      0
   H-Bond Acceptor                   6
   Rotatable Bond Count              5
   Exact Mass                        345.977953
   MonoIsotopic Mass                 345.977953
   Topological Polar Surface Area    74.3
   Heavy Atom Count                  19
   Formal Charge                     0
   Complexity                        393
   Isotope Atom Count                0
   Defined Atom Stereocenter Count   0
   Undefined Atom Stereocenter Count 0
   Defined Bond Stereocenter Count   0
   Undefined Bond Stereocenter Count 0
   Covalently-Bonded Unit Count      1
   Feature 3D Ring Count             1
   Effective Rotor Count             5
   Conformer Sampling RMSD           0.6
   CID Conformer Count               [10]14

References

   1. http://toxnet.nlm.nih.gov/cgi-bin/sis/search/r?dbs+hsdb:@term+@rn+@rel+731-27-1
   2. http://toxnet.nlm.nih.gov/cgi-bin/sis/search/r?dbs+hsdb:@term+@rn+@rel+731-27-1
   3. http://toxnet.nlm.nih.gov/cgi-bin/sis/search/r?dbs+hsdb:@term+@rn+@rel+731-27-1
   4. http://toxnet.nlm.nih.gov/cgi-bin/sis/search/r?dbs+hsdb:@term+@rn+@rel+731-27-1
   5. http://toxnet.nlm.nih.gov/cgi-bin/sis/search/r?dbs+hsdb:@term+@rn+@rel+731-27-1
   6. http://toxnet.nlm.nih.gov/cgi-bin/sis/search/r?dbs+hsdb:@term+@rn+@rel+731-27-1
   7. http://toxnet.nlm.nih.gov/cgi-bin/sis/search/r?dbs+hsdb:@term+@rn+@rel+731-27-1
   8. http://toxnet.nlm.nih.gov/cgi-bin/sis/search/r?dbs+hsdb:@term+@rn+@rel+731-27-1
   9. http://toxnet.nlm.nih.gov/cgi-bin/sis/search/r?dbs+hsdb:@term+@rn+@rel+731-27-1
  10. http://pubchem.ncbi.nlm.nih.gov/vw3d/vw3d.cgi?cid=12898
