   Color/Form

     * White powder
     * Crystals

   from [1]HSDB

   Melting Point
        124 deg C
   from [2]HSDB

   Corrosivity
        Non-corrosive
   from [3]HSDB

   Solubilities
        Practically insoluble in water; readily soluble in acetone, methyl
   ethyl ketone, cyclohexanone, ether, dioxane, methylene chloride,
   dimethylformamide; moderately soluble in toluene, xylene,
   trichloroethylene, carbon tetrachloride; very slightly soluble in
   petroleum ether and mineral oils
   from [4]HSDB

   Vapor Pressure
        Very low at room temperature
   from [5]HSDB

   Other Chemical/Physical Properties

     * Very stable to acids and bases
     * Solubility in water: 150 g/100 ml @ 20 deg C /Sodium salt/

   from [6]HSDB

   Computed Properties
   Molecular Weight                  298.29006 [g/mol]
   Molecular Formula                 C[17]H[14]O[5]
   XLogP3                            1.8
   H-Bond Donor                      1
   H-Bond Acceptor                   5
   Rotatable Bond Count              4
   Tautomer Count                    9
   Exact Mass                        298.084124
   MonoIsotopic Mass                 298.084124
   Topological Polar Surface Area    76.7
   Heavy Atom Count                  22
   Formal Charge                     0
   Complexity                        495
   Isotope Atom Count                0
   Defined Atom Stereocenter Count   0
   Undefined Atom Stereocenter Count 1
   Defined Bond Stereocenter Count   0
   Undefined Bond Stereocenter Count 0
   Covalently-Bonded Unit Count      1
   Feature 3D Acceptor Count         3
   Feature 3D Donor Count            1
   Feature 3D Ring Count             3
   Effective Rotor Count             4
   Conformer Sampling RMSD           0.6
   CID Conformer Count               [7]173

References

   1. http://toxnet.nlm.nih.gov/cgi-bin/sis/search/r?dbs+hsdb:@term+@rn+@rel+117-52-2
   2. http://toxnet.nlm.nih.gov/cgi-bin/sis/search/r?dbs+hsdb:@term+@rn+@rel+117-52-2
   3. http://toxnet.nlm.nih.gov/cgi-bin/sis/search/r?dbs+hsdb:@term+@rn+@rel+117-52-2
   4. http://toxnet.nlm.nih.gov/cgi-bin/sis/search/r?dbs+hsdb:@term+@rn+@rel+117-52-2
   5. http://toxnet.nlm.nih.gov/cgi-bin/sis/search/r?dbs+hsdb:@term+@rn+@rel+117-52-2
   6. http://toxnet.nlm.nih.gov/cgi-bin/sis/search/r?dbs+hsdb:@term+@rn+@rel+117-52-2
   7. http://pubchem.ncbi.nlm.nih.gov/vw3d/vw3d.cgi?cid=54689800
