   Color/Form
        Oily liquid
   from [1]HSDB

   Odor
        Characteristic goat-like odor
   from [2]HSDB

   Boiling Point
        205.8 deg C
   from [3]HSDB

   Melting Point
        -3.4 deg C
   from [4]HSDB

   Density/Specific Gravity
        0.929 at 20 deg C/4 deg C
   from [5]HSDB

   Dissociation Constants
        pKa = 4.88
   from [6]HSDB

   Heat of Combustion
        -3,492.4 KJ/mol (liquid)
   from [7]HSDB

   Octanol/Water Partition Coefficient
        log Kow = 1.92
   from [8]HSDB

   Solubilities

     * In water, 1.03X10+4 mg/L at 25 deg C
     * Readily sol in ethanol, ether.

   from [9]HSDB

   Spectral Properties

     * Index of refraction: 1.4170 at 20 C/D
     * IR: 308 (Sadtler Research Laboratories Prism Collection)
     * NMR: 37 (Sadtler Research Laboratories Spectral Collection)
     * MASS: 1911 (NIST/EPA/MSDC Mass Spectral Database, 1990 version)

   from [10]HSDB

   Surface Tension
        23.4 mN/m at 70 deg C
   from [11]HSDB

   Vapor Density
        4.01 (Air = 1)
   from [12]HSDB

   Vapor Pressure
        0.0435 mm at 25 deg C (est)
   from [13]HSDB

   Viscosity
        3.23 mPa.s at 20 deg C
   from [14]HSDB

   Other Chemical/Physical Properties

     * Heat of formation: -584.0 KJ/mol; Specific heat 2.33 J/g
     * Viscosity: 0.031 poise at 20 deg C
     * Henry's Law constant = 7.58X10-7 atm cu m/mol at 25 deg C
     * Hydroxyl radical reaction rate constant = 5.5X10-12 cu cm/molec-sec
       at 25 deg C (est)

   from [15]HSDB

   Computed Properties
   Molecular Weight                  116.15828 [g/mol]
   Molecular Formula                 C[6]H[12]O[2]
   XLogP3                            1.9
   H-Bond Donor                      1
   H-Bond Acceptor                   2
   Rotatable Bond Count              4
   Exact Mass                        116.08373
   MonoIsotopic Mass                 116.08373
   Topological Polar Surface Area    37.3
   Heavy Atom Count                  8
   Formal Charge                     0
   Complexity                        68.9
   Isotope Atom Count                0
   Defined Atom Stereocenter Count   0
   Undefined Atom Stereocenter Count 0
   Defined Bond Stereocenter Count   0
   Undefined Bond Stereocenter Count 0
   Covalently-Bonded Unit Count      1
   Feature 3D Acceptor Count         2
   Feature 3D Anion Count            1
   Feature 3D Hydrophobe Count       2
   Effective Rotor Count             4
   Conformer Sampling RMSD           0.6
   CID Conformer Count               [16]26

References

   1. http://toxnet.nlm.nih.gov/cgi-bin/sis/search/r?dbs+hsdb:@term+@rn+@rel+142-62-1
   2. http://toxnet.nlm.nih.gov/cgi-bin/sis/search/r?dbs+hsdb:@term+@rn+@rel+142-62-1
   3. http://toxnet.nlm.nih.gov/cgi-bin/sis/search/r?dbs+hsdb:@term+@rn+@rel+142-62-1
   4. http://toxnet.nlm.nih.gov/cgi-bin/sis/search/r?dbs+hsdb:@term+@rn+@rel+142-62-1
   5. http://toxnet.nlm.nih.gov/cgi-bin/sis/search/r?dbs+hsdb:@term+@rn+@rel+142-62-1
   6. http://toxnet.nlm.nih.gov/cgi-bin/sis/search/r?dbs+hsdb:@term+@rn+@rel+142-62-1
   7. http://toxnet.nlm.nih.gov/cgi-bin/sis/search/r?dbs+hsdb:@term+@rn+@rel+142-62-1
   8. http://toxnet.nlm.nih.gov/cgi-bin/sis/search/r?dbs+hsdb:@term+@rn+@rel+142-62-1
   9. http://toxnet.nlm.nih.gov/cgi-bin/sis/search/r?dbs+hsdb:@term+@rn+@rel+142-62-1
  10. http://toxnet.nlm.nih.gov/cgi-bin/sis/search/r?dbs+hsdb:@term+@rn+@rel+142-62-1
  11. http://toxnet.nlm.nih.gov/cgi-bin/sis/search/r?dbs+hsdb:@term+@rn+@rel+142-62-1
  12. http://toxnet.nlm.nih.gov/cgi-bin/sis/search/r?dbs+hsdb:@term+@rn+@rel+142-62-1
  13. http://toxnet.nlm.nih.gov/cgi-bin/sis/search/r?dbs+hsdb:@term+@rn+@rel+142-62-1
  14. http://toxnet.nlm.nih.gov/cgi-bin/sis/search/r?dbs+hsdb:@term+@rn+@rel+142-62-1
  15. http://toxnet.nlm.nih.gov/cgi-bin/sis/search/r?dbs+hsdb:@term+@rn+@rel+142-62-1
  16. http://pubchem.ncbi.nlm.nih.gov/vw3d/vw3d.cgi?cid=8892
