   Color/Form
        ANHYDR CRYSTALS; 2 FORMS OF SOLVATED CRYSTALS FROM ETHYL ACETATE;
   SOLVATED CRYSTALS FROM METHANOL OR ETHANOL
   from [1]HSDB

   Melting Point
        250-251 DEG C DECOMP
   from [2]HSDB

   Solubilities
        QUITE SOL IN POLAR SOLVENTS, INCL WATER
   from [3]HSDB

   Spectral Properties

     * SPECIFIC OPTICAL ROTATION (WATER): +102 DEG @ 24 DEG C/D; +118 DEG
       @ 20 DEG C/D (C= 0.4 IN DIOXANE)
     * MAX ABSORPTION (ETHANOL): 235 NM (E= 5200); 334 NM (E= 70)

   from [4]HSDB

   Other Chemical/Physical Properties
        FROM ETHYL ACETATE: MP 162-163 DEG C & 233-234 DEG C; FROM
   METHANOL OR ETHANOL: MP 249-250 DEG C
   from [5]HSDB

   Computed Properties
   Molecular Weight                  364.43272 [g/mol]
   Molecular Formula                 C[20]H[28]O[6]
   XLogP3-AA                         -0.8
   H-Bond Donor                      5
   H-Bond Acceptor                   6
   Rotatable Bond Count              1
   Tautomer Count                    3
   Exact Mass                        364.188589
   MonoIsotopic Mass                 364.188589
   Topological Polar Surface Area    118
   Heavy Atom Count                  26
   Formal Charge                     0
   Complexity                        753
   Isotope Atom Count                0
   Defined Atom Stereocenter Count   8
   Undefined Atom Stereocenter Count 0
   Defined Bond Stereocenter Count   0
   Undefined Bond Stereocenter Count 0
   Covalently-Bonded Unit Count      1
   Feature 3D Acceptor Count         6
   Feature 3D Donor Count            5
   Feature 3D Hydrophobe Count       1
   Feature 3D Ring Count             3
   Effective Rotor Count             1.8
   Conformer Sampling RMSD           0.6
   CID Conformer Count               [6]2

References

   1. http://toxnet.nlm.nih.gov/cgi-bin/sis/search/r?dbs+hsdb:@term+@rn+@rel+17673-25-5
   2. http://toxnet.nlm.nih.gov/cgi-bin/sis/search/r?dbs+hsdb:@term+@rn+@rel+17673-25-5
   3. http://toxnet.nlm.nih.gov/cgi-bin/sis/search/r?dbs+hsdb:@term+@rn+@rel+17673-25-5
   4. http://toxnet.nlm.nih.gov/cgi-bin/sis/search/r?dbs+hsdb:@term+@rn+@rel+17673-25-5
   5. http://toxnet.nlm.nih.gov/cgi-bin/sis/search/r?dbs+hsdb:@term+@rn+@rel+17673-25-5
   6. http://pubchem.ncbi.nlm.nih.gov/vw3d/vw3d.cgi?cid=442070
