440587
  -OEChem-07051212502D

 46 50  0     1  0  0  0  0  0999 V2000
    6.3821   -0.2548    0.0000 O   0  0  0  0  0  0  0  0  0  0  0  0
    4.5732   -3.4852    0.0000 O   0  0  0  0  0  0  0  0  0  0  0  0
    3.1278   -4.3346    0.0000 O   0  0  0  0  0  0  0  0  0  0  0  0
    3.5502    4.3267    0.0000 O   0  0  0  0  0  0  0  0  0  0  0  0
    2.0983    3.4885    0.0000 O   0  0  0  0  0  0  0  0  0  0  0  0
    4.6501    0.7452    0.0000 O   0  0  0  0  0  0  0  0  0  0  0  0
    4.6501   -0.2548    0.0000 N   0  0  3  0  0  0  0  0  0  0  0  0
    5.5161    0.2452    0.0000 C   0  0  3  0  0  0  0  0  0  0  0  0
    4.6501   -1.2548    0.0000 C   0  0  0  0  0  0  0  0  0  0  0  0
    5.5161    1.2452    0.0000 C   0  0  0  0  0  0  0  0  0  0  0  0
    3.7841   -1.7548    0.0000 C   0  0  0  0  0  0  0  0  0  0  0  0
    4.6501    1.7452    0.0000 C   0  0  0  0  0  0  0  0  0  0  0  0
    2.9180   -1.2548    0.0000 C   0  0  0  0  0  0  0  0  0  0  0  0
    2.9180   -0.2548    0.0000 C   0  0  0  0  0  0  0  0  0  0  0  0
    3.7841    1.2452    0.0000 C   0  0  0  0  0  0  0  0  0  0  0  0
    3.8001   -2.7963    0.0000 C   0  0  0  0  0  0  0  0  0  0  0  0
    3.7841    0.2452    0.0000 C   0  0  0  0  0  0  0  0  0  0  0  0
    4.6661    2.7867    0.0000 C   0  0  0  0  0  0  0  0  0  0  0  0
    3.7841   -0.7548    0.0000 C   0  0  0  0  0  0  0  0  0  0  0  0
    2.9021   -3.3241    0.0000 C   0  0  0  0  0  0  0  0  0  0  0  0
    2.0080   -1.7617    0.0000 C   0  0  0  0  0  0  0  0  0  0  0  0
    2.8741    1.7520    0.0000 C   0  0  0  0  0  0  0  0  0  0  0  0
    3.7681    3.3144    0.0000 C   0  0  0  0  0  0  0  0  0  0  0  0
    2.8660    2.7936    0.0000 C   0  0  0  0  0  0  0  0  0  0  0  0
    2.0000   -2.8033    0.0000 C   0  0  0  0  0  0  0  0  0  0  0  0
    4.1585   -4.4340    0.0000 C   0  0  0  0  0  0  0  0  0  0  0  0
    2.5203    4.4340    0.0000 C   0  0  0  0  0  0  0  0  0  0  0  0
    6.0530    0.5552    0.0000 H   0  0  0  0  0  0  0  0  0  0  0  0
    4.8621   -1.8374    0.0000 H   0  0  0  0  0  0  0  0  0  0  0  0
    5.2607   -1.1472    0.0000 H   0  0  0  0  0  0  0  0  0  0  0  0
    6.1267    1.1375    0.0000 H   0  0  0  0  0  0  0  0  0  0  0  0
    5.7282    1.8278    0.0000 H   0  0  0  0  0  0  0  0  0  0  0  0
    2.7060    0.3278    0.0000 H   0  0  0  0  0  0  0  0  0  0  0  0
    2.3074   -0.3625    0.0000 H   0  0  0  0  0  0  0  0  0  0  0  0
    5.2066    3.0904    0.0000 H   0  0  0  0  0  0  0  0  0  0  0  0
    3.4741   -0.2179    0.0000 H   0  0  0  0  0  0  0  0  0  0  0  0
    3.2471   -1.0648    0.0000 H   0  0  0  0  0  0  0  0  0  0  0  0
    4.0941   -1.2918    0.0000 H   0  0  0  0  0  0  0  0  0  0  0  0
    1.4747   -1.4455    0.0000 H   0  0  0  0  0  0  0  0  0  0  0  0
    2.3407    1.4358    0.0000 H   0  0  0  0  0  0  0  0  0  0  0  0
    1.4619   -3.1112    0.0000 H   0  0  0  0  0  0  0  0  0  0  0  0
    6.9191    0.0552    0.0000 H   0  0  0  0  0  0  0  0  0  0  0  0
    4.0344   -5.0415    0.0000 H   0  0  0  0  0  0  0  0  0  0  0  0
    4.7495   -4.6213    0.0000 H   0  0  0  0  0  0  0  0  0  0  0  0
    2.6490    5.0405    0.0000 H   0  0  0  0  0  0  0  0  0  0  0  0
    1.9307    4.6258    0.0000 H   0  0  0  0  0  0  0  0  0  0  0  0
  1  8  1  0  0  0  0
  1 42  1  0  0  0  0
  2 16  1  0  0  0  0
  2 26  1  0  0  0  0
  3 20  1  0  0  0  0
  3 26  1  0  0  0  0
  4 23  1  0  0  0  0
  4 27  1  0  0  0  0
  5 24  1  0  0  0  0
  5 27  1  0  0  0  0
  6 17  2  0  0  0  0
  7  8  1  0  0  0  0
  7  9  1  0  0  0  0
  7 19  1  0  0  0  0
  8 10  1  0  0  0  0
  8 28  1  0  0  0  0
  9 11  1  0  0  0  0
  9 29  1  0  0  0  0
  9 30  1  0  0  0  0
 10 12  1  0  0  0  0
 10 31  1  0  0  0  0
 10 32  1  0  0  0  0
 11 13  2  0  0  0  0
 11 16  1  0  0  0  0
 12 15  1  0  0  0  0
 12 18  2  0  0  0  0
 13 14  1  0  0  0  0
 13 21  1  0  0  0  0
 14 17  1  0  0  0  0
 14 33  1  0  0  0  0
 14 34  1  0  0  0  0
 15 17  1  0  0  0  0
 15 22  2  0  0  0  0
 16 20  2  0  0  0  0
 18 23  1  0  0  0  0
 18 35  1  0  0  0  0
 19 36  1  0  0  0  0
 19 37  1  0  0  0  0
 19 38  1  0  0  0  0
 20 25  1  0  0  0  0
 21 25  2  0  0  0  0
 21 39  1  0  0  0  0
 22 24  1  0  0  0  0
 22 40  1  0  0  0  0
 23 24  2  0  0  0  0
 25 41  1  0  0  0  0
 26 43  1  0  0  0  0
 26 44  1  0  0  0  0
 27 45  1  0  0  0  0
 27 46  1  0  0  0  0
M  END
> <PUBCHEM_COMPOUND_CID>
440587

> <PUBCHEM_COMPOUND_CANONICALIZED>
1

> <PUBCHEM_CACTVS_COMPLEXITY>
573

> <PUBCHEM_CACTVS_HBOND_ACCEPTOR>
7

> <PUBCHEM_CACTVS_HBOND_DONOR>
1

> <PUBCHEM_CACTVS_ROTATABLE_BOND>
0

> <PUBCHEM_CACTVS_SUBSKEYS>
AAADceB6OAAAAAAAAAAAAAAAAAAAASJAAAAwYAAAAAAAAEixQAAAHgAACAAADAThmAcyDoMABgCIAqBSAACCCAAkIAAIiAEOjMgdNjKEtRukcSpmwBGOqYe6/f7OoAABAAAYQABAAAIAADCAAAAAAAAAAA==

> <PUBCHEM_IUPAC_INCHI>
InChI=1S/C20H19NO6/c1-21-8-14-11(2-3-16-20(14)27-10-24-16)4-15(22)13-7-18-17(25-9-26-18)5-12(13)6-19(21)23/h2-3,5,7,19,23H,4,6,8-10H2,1H3

> <PUBCHEM_IUPAC_INCHIKEY>
QRZCXUNTBXMAPR-UHFFFAOYSA-N

> <PUBCHEM_XLOGP3_AA>
2.3

> <PUBCHEM_EXACT_MASS>
369.121237

> <PUBCHEM_MOLECULAR_FORMULA>
C20H19NO6

> <PUBCHEM_MOLECULAR_WEIGHT>
369.36796

> <PUBCHEM_OPENEYE_CAN_SMILES>
CN1CC2=C(CC(=O)C3=CC4=C(C=C3CC1O)OCO4)C=CC5=C2OCO5

> <PUBCHEM_OPENEYE_ISO_SMILES>
CN1CC2=C(CC(=O)C3=CC4=C(C=C3CC1O)OCO4)C=CC5=C2OCO5

> <PUBCHEM_CACTVS_TPSA>
77.5

> <PUBCHEM_MONOISOTOPIC_WEIGHT>
369.121237

> <PUBCHEM_TOTAL_CHARGE>
0

> <PUBCHEM_HEAVY_ATOM_COUNT>
27

> <PUBCHEM_ATOM_DEF_STEREO_COUNT>
0

> <PUBCHEM_ATOM_UDEF_STEREO_COUNT>
1

> <PUBCHEM_BOND_DEF_STEREO_COUNT>
0

> <PUBCHEM_BOND_UDEF_STEREO_COUNT>
0

> <PUBCHEM_ISOTOPIC_ATOM_COUNT>
0

> <PUBCHEM_COMPONENT_COUNT>
1

> <PUBCHEM_CACTVS_TAUTO_COUNT>
2

> <PUBCHEM_COORDINATE_TYPE>
1
5
255

> <PUBCHEM_BONDANNOTATIONS>
8  1  3
11  13  8
11  16  8
12  15  8
12  18  8
13  21  8
15  22  8
16  20  8
18  23  8
20  25  8
21  25  8
22  24  8
23  24  8

$$$$

