   Color/Form

     * Monoclinic crystals from water
     * Rhombic prisms obtained from water with 1/2 mol of water of
       crystallization.

   from [1]HSDB

   Odor
        Obnoxious odor
   from [2]HSDB

   Melting Point
        98 deg C
   from [3]HSDB

   Corrosivity
        Corrosive
   from [4]HSDB

   Density/Specific Gravity
        1.42 @ 20 DEG C/4 DEG C
   from [5]HSDB

   Dissociation Constants
        pKa = 3.30 @ 25 deg C
   from [6]HSDB

   Octanol/Water Partition Coefficient
        log Kow= -0.07
   from [7]HSDB

   Solubilities
        Very soluble in water; slightly soluble in ethanol, ethyl ether,
   and benzene
   from [8]HSDB

   Spectral Properties

     * MAX ABSORPTION (WATER, PH 7.1): 565 NM (LOG E= 0.1); 576 NM (LOG E=
       0.9); 580 NM (LOG E= 1.0); 584 NM (LOG E= 0.9)
     * MS: NIST 72837 (NIST/EPA/MCDC Mass Spectral Database 1990 version)

   from [9]HSDB

   Other Chemical/Physical Properties

     * Crystals from water; melting point: 70-75 deg C; obnoxious odor;
       strong corrosive acid; K= 4.6X10-4; deliquesces; attacks most
       stable metals except certain stainless steel alloys; aq soln tend
       to acquire a yellow tint. /glyoxylic acid hemihydrate/
     * Crystals; MP: approx 50 deg C; highly hygroscopic /Glyoxylic acid
       monohydrate/

   from [10]HSDB

   Computed Properties
   Molecular Weight                  74.03548 [g/mol]
   Molecular Formula                 C[2]H[2]O[3]
   XLogP3-AA                         -0.3
   H-Bond Donor                      1
   H-Bond Acceptor                   3
   Rotatable Bond Count              1
   Exact Mass                        74.000394
   MonoIsotopic Mass                 74.000394
   Topological Polar Surface Area    54.4
   Heavy Atom Count                  5
   Formal Charge                     0
   Complexity                        55.9
   Isotope Atom Count                0
   Defined Atom Stereocenter Count   0
   Undefined Atom Stereocenter Count 0
   Defined Bond Stereocenter Count   0
   Undefined Bond Stereocenter Count 0
   Covalently-Bonded Unit Count      1
   Feature 3D Acceptor Count         3
   Feature 3D Anion Count            1
   Effective Rotor Count             1
   Conformer Sampling RMSD           0.4
   CID Conformer Count               [11]1

References

   1. http://toxnet.nlm.nih.gov/cgi-bin/sis/search/r?dbs+hsdb:@term+@rn+@rel+298-12-4
   2. http://toxnet.nlm.nih.gov/cgi-bin/sis/search/r?dbs+hsdb:@term+@rn+@rel+298-12-4
   3. http://toxnet.nlm.nih.gov/cgi-bin/sis/search/r?dbs+hsdb:@term+@rn+@rel+298-12-4
   4. http://toxnet.nlm.nih.gov/cgi-bin/sis/search/r?dbs+hsdb:@term+@rn+@rel+298-12-4
   5. http://toxnet.nlm.nih.gov/cgi-bin/sis/search/r?dbs+hsdb:@term+@rn+@rel+298-12-4
   6. http://toxnet.nlm.nih.gov/cgi-bin/sis/search/r?dbs+hsdb:@term+@rn+@rel+298-12-4
   7. http://toxnet.nlm.nih.gov/cgi-bin/sis/search/r?dbs+hsdb:@term+@rn+@rel+298-12-4
   8. http://toxnet.nlm.nih.gov/cgi-bin/sis/search/r?dbs+hsdb:@term+@rn+@rel+298-12-4
   9. http://toxnet.nlm.nih.gov/cgi-bin/sis/search/r?dbs+hsdb:@term+@rn+@rel+298-12-4
  10. http://toxnet.nlm.nih.gov/cgi-bin/sis/search/r?dbs+hsdb:@term+@rn+@rel+298-12-4
  11. http://pubchem.ncbi.nlm.nih.gov/vw3d/vw3d.cgi?cid=760
