   Color/Form
        Colorless, mobile, oily liquid
   from [1]HSDB

   Odor
        Pungent, irritating odor
   from [2]HSDB

   Boiling Point
        97.8 deg C at 760 mm Hg
   from [3]HSDB

   Melting Point
        -57.5 deg C
   from [4]HSDB

   Density/Specific Gravity
        1.510 at 20 deg C/4 deg C; 1.404 at 25 deg C/4 deg C
   from [5]HSDB

   Dissociation Constants
        pKa = 9.66
   from [6]HSDB

   Heat of Vaporization
        97.1 BTU/Lb
   from [7]HSDB

   Octanol/Water Partition Coefficient
        log Kow = 1.19 (est)
   from [8]HSDB

   Solubilities

     * Freely soluble in water forming chloral hydrate
     * Soluble in ethanol, ether
     * Soluble in chloroform
     * In water, 8.3X10+6 mg/L at 25 deg C

   from [9]HSDB

   Spectral Properties

     * MAX ABSORPTION (CYCLOHEXANE): 290 NM (LOG E= 1.58)
     * Index of refraction = 1.45572 at 20 deg C/D; 1.4512 at 21.4 deg
       C/He
     * IR: 4626 (Sadtler Research Laboratories Prism Collection)
     * UV: 5-3 (Organic Electronic Spectral Data, Phillips et al, John
       Wiley & Sons, New York)
     * 1H NMR: 8241 (Sadtler Research Laboratories Spectral Collection)
     * MASS: 21380 (NIST/EPA/MSDC Mass Spectral database, 1990 version);
       814 (Atlas of Mass Spectral Data, John Wiley & Sons, New York)

   from [10]HSDB

   Vapor Density
        5.1 (Air = 1)
   from [11]HSDB

   Vapor Pressure
        50 mm Hg at 25 deg C
   from [12]HSDB

   Other Chemical/Physical Properties

     * Conversion factor: mg/cu m = 6.03 X ppm
     * Polymerizes under the influence of light and in the presence of
       sulfuric acid forming a white solid trimer called metachloral
     * VP: 35 mm Hg at 20 deg C
     * Henry's Law constant = 2.91X10-9 atm-cu m/mol at 25 deg C
     * Hydroxyl radical reaction rate constant = 1.60X10-12 cu
       cm/molec-sec at 25 deg C

   from [13]HSDB

   Computed Properties
   Molecular Weight                  147.38774 [g/mol]
   Molecular Formula                 C[2]HCl[3]O
   XLogP3-AA                         1.6
   H-Bond Donor                      0
   H-Bond Acceptor                   1
   Rotatable Bond Count              0
   Exact Mass                        145.909298
   MonoIsotopic Mass                 145.909298
   Topological Polar Surface Area    17.1
   Heavy Atom Count                  6
   Formal Charge                     0
   Complexity                        54.3
   Isotope Atom Count                0
   Defined Atom Stereocenter Count   0
   Undefined Atom Stereocenter Count 0
   Defined Bond Stereocenter Count   0
   Undefined Bond Stereocenter Count 0
   Covalently-Bonded Unit Count      1
   Feature 3D Acceptor Count         1
   Effective Rotor Count             1
   Conformer Sampling RMSD           0.4
   CID Conformer Count               [14]1

References

   1. http://toxnet.nlm.nih.gov/cgi-bin/sis/search/r?dbs+hsdb:@term+@rn+@rel+75-87-6
   2. http://toxnet.nlm.nih.gov/cgi-bin/sis/search/r?dbs+hsdb:@term+@rn+@rel+75-87-6
   3. http://toxnet.nlm.nih.gov/cgi-bin/sis/search/r?dbs+hsdb:@term+@rn+@rel+75-87-6
   4. http://toxnet.nlm.nih.gov/cgi-bin/sis/search/r?dbs+hsdb:@term+@rn+@rel+75-87-6
   5. http://toxnet.nlm.nih.gov/cgi-bin/sis/search/r?dbs+hsdb:@term+@rn+@rel+75-87-6
   6. http://toxnet.nlm.nih.gov/cgi-bin/sis/search/r?dbs+hsdb:@term+@rn+@rel+75-87-6
   7. http://toxnet.nlm.nih.gov/cgi-bin/sis/search/r?dbs+hsdb:@term+@rn+@rel+75-87-6
   8. http://toxnet.nlm.nih.gov/cgi-bin/sis/search/r?dbs+hsdb:@term+@rn+@rel+75-87-6
   9. http://toxnet.nlm.nih.gov/cgi-bin/sis/search/r?dbs+hsdb:@term+@rn+@rel+75-87-6
  10. http://toxnet.nlm.nih.gov/cgi-bin/sis/search/r?dbs+hsdb:@term+@rn+@rel+75-87-6
  11. http://toxnet.nlm.nih.gov/cgi-bin/sis/search/r?dbs+hsdb:@term+@rn+@rel+75-87-6
  12. http://toxnet.nlm.nih.gov/cgi-bin/sis/search/r?dbs+hsdb:@term+@rn+@rel+75-87-6
  13. http://toxnet.nlm.nih.gov/cgi-bin/sis/search/r?dbs+hsdb:@term+@rn+@rel+75-87-6
  14. http://pubchem.ncbi.nlm.nih.gov/vw3d/vw3d.cgi?cid=6407
