   Color/Form
        White to off-white /hydrochloride/
   from [1]HSDB

   Odor
        Odorless /hydrochloride/
   from [2]HSDB

   Boiling Point
        160 DEG C @ 0.1 MM HG
   from [3]HSDB

   Octanol/Water Partition Coefficient
        log Kow = 4.80
   from [4]HSDB

   Solubilities
        In water, 18.2 mg/l @ 24 deg C.
   from [5]HSDB

   Spectral Properties
        Intense mass spectral peaks: 58 m/z, 85 m/z, 193 m/z, 235 m/z, 280
   m/z
   from [6]HSDB

   Other Chemical/Physical Properties
        CRYSTALS FROM ACETONE; FREELY SOL IN WATER, LESS SOL IN ALCOHOL,
   SPARINGLY SOL IN ACETONE /HYDROCHLORIDE/
   from [7]HSDB

   Computed Properties
   Molecular Weight                  280.40726 [g/mol]
   Molecular Formula                 C[19]H[24]N[2]
   XLogP3                            4.8
   H-Bond Donor                      0
   H-Bond Acceptor                   2
   Rotatable Bond Count              4
   Exact Mass                        280.193949
   MonoIsotopic Mass                 280.193949
   Topological Polar Surface Area    6.5
   Heavy Atom Count                  21
   Formal Charge                     0
   Complexity                        291
   Isotope Atom Count                0
   Defined Atom Stereocenter Count   0
   Undefined Atom Stereocenter Count 0
   Defined Bond Stereocenter Count   0
   Undefined Bond Stereocenter Count 0
   Covalently-Bonded Unit Count      1
   Feature 3D Cation Count           2
   Feature 3D Ring Count             3
   Effective Rotor Count             4.6
   Conformer Sampling RMSD           0.8
   CID Conformer Count               [8]9

References

   1. http://toxnet.nlm.nih.gov/cgi-bin/sis/search/r?dbs+hsdb:@term+@rn+@rel+50-49-7
   2. http://toxnet.nlm.nih.gov/cgi-bin/sis/search/r?dbs+hsdb:@term+@rn+@rel+50-49-7
   3. http://toxnet.nlm.nih.gov/cgi-bin/sis/search/r?dbs+hsdb:@term+@rn+@rel+50-49-7
   4. http://toxnet.nlm.nih.gov/cgi-bin/sis/search/r?dbs+hsdb:@term+@rn+@rel+50-49-7
   5. http://toxnet.nlm.nih.gov/cgi-bin/sis/search/r?dbs+hsdb:@term+@rn+@rel+50-49-7
   6. http://toxnet.nlm.nih.gov/cgi-bin/sis/search/r?dbs+hsdb:@term+@rn+@rel+50-49-7
   7. http://toxnet.nlm.nih.gov/cgi-bin/sis/search/r?dbs+hsdb:@term+@rn+@rel+50-49-7
   8. http://pubchem.ncbi.nlm.nih.gov/vw3d/vw3d.cgi?cid=3696
