   Color/Form
        Crystals
   from [1]HSDB

   Odor
        ODORLESS
   from [2]HSDB

   Taste
        TASTELESS
   from [3]HSDB

   Melting Point
        172-176 deg C
   from [4]HSDB

   Dissociation Constants
        pKa = 4.5 to 5.0
   from [5]HSDB

   Octanol/Water Partition Coefficient
        log Kow = 3.46
   from [6]HSDB

   Solubilities

     * Soluble in alcohols and acetone; slightly soluble in benzene,
       toluene, and diethyl ether.
     * SOL IN DIL ALKALI & MOST ORG SOLVENTS
     * Practically insoluble in benzene, moderately soluble in alcohols,
       and readily soluble acetone and dioxane. The sodium salt is fully
       soluble in water.
     * In dichloromethane 50-100, isopropanol 20-50 (both in g/l @ 20 deg
       C).
     * Readily soluble in alkalis with formation of salts.
     * In water, 425 mg/l @ 20 deg C and pH 7

   from [7]HSDB

   Spectral Properties
        Intense mass spectral peaks: 91 m/z, 121 m/z, 130 m/z, 188 m/z,
   292 m/z
   from [8]HSDB

   Vapor Pressure
        6.8X10-11 mm Hg @ 20 deg C
   from [9]HSDB

   Other Chemical/Physical Properties

     * ENOLIC FORM OF COMPD HAS ACIDIC PROPERTIES AND CAN FORM SALTS WITH
       METALS
     * Yellowish crystals. MP: 166-172 deg C /Technical/

   from [10]HSDB

   Computed Properties
   Molecular Weight                  292.32854 [g/mol]
   Molecular Formula                 C[19]H[16]O[3]
   XLogP3-AA                         4.1
   H-Bond Donor                      1
   H-Bond Acceptor                   3
   Rotatable Bond Count              1
   Tautomer Count                    3
   Exact Mass                        292.109944
   MonoIsotopic Mass                 292.109944
   Topological Polar Surface Area    46.5
   Heavy Atom Count                  22
   Formal Charge                     0
   Complexity                        481
   Isotope Atom Count                0
   Defined Atom Stereocenter Count   0
   Undefined Atom Stereocenter Count 1
   Defined Bond Stereocenter Count   0
   Undefined Bond Stereocenter Count 0
   Covalently-Bonded Unit Count      1
   Feature 3D Acceptor Count         1
   Feature 3D Donor Count            1
   Feature 3D Ring Count             4
   Effective Rotor Count             1.8
   Conformer Sampling RMSD           0.6
   CID Conformer Count               [11]6

References

   1. http://toxnet.nlm.nih.gov/cgi-bin/sis/search/r?dbs+hsdb:@term+@rn+@rel+5836-29-3
   2. http://toxnet.nlm.nih.gov/cgi-bin/sis/search/r?dbs+hsdb:@term+@rn+@rel+5836-29-3
   3. http://toxnet.nlm.nih.gov/cgi-bin/sis/search/r?dbs+hsdb:@term+@rn+@rel+5836-29-3
   4. http://toxnet.nlm.nih.gov/cgi-bin/sis/search/r?dbs+hsdb:@term+@rn+@rel+5836-29-3
   5. http://toxnet.nlm.nih.gov/cgi-bin/sis/search/r?dbs+hsdb:@term+@rn+@rel+5836-29-3
   6. http://toxnet.nlm.nih.gov/cgi-bin/sis/search/r?dbs+hsdb:@term+@rn+@rel+5836-29-3
   7. http://toxnet.nlm.nih.gov/cgi-bin/sis/search/r?dbs+hsdb:@term+@rn+@rel+5836-29-3
   8. http://toxnet.nlm.nih.gov/cgi-bin/sis/search/r?dbs+hsdb:@term+@rn+@rel+5836-29-3
   9. http://toxnet.nlm.nih.gov/cgi-bin/sis/search/r?dbs+hsdb:@term+@rn+@rel+5836-29-3
  10. http://toxnet.nlm.nih.gov/cgi-bin/sis/search/r?dbs+hsdb:@term+@rn+@rel+5836-29-3
  11. http://pubchem.ncbi.nlm.nih.gov/vw3d/vw3d.cgi?cid=54678504
