   Color/Form
        YELLOW, RECTANGULAR CRYSTALS
   from [1]HSDB

   Melting Point
        287 DEG C (DECOMP)
   from [2]HSDB

   Solubilities
        PRACTICALLY INSOL IN WATER; SOL IN AQ SODIUM BICARBONATE; SOL IN
   MOST ORGANIC SOLVENTS
   from [3]HSDB

   Spectral Properties
        SPECIFIC OPTICAL ROTATION: -880 DEG @ 25 DEG C/D (0.1% IN
   ACETONE); MAX ABSORPTION (CHLOROFORM): 280.5 NM (E= 446); 436 NM (E=
   562); 457 NM (E= 559); (ETHANOL): 433 NM (E= 597); 448 NM (E=599); (0.1
   MOLAR POTASSIUM PHOSPHATE BUFFER, PH 7.4): 350 NM (E= 458); 353 NM (E=
   390)
   from [4]HSDB

   Computed Properties
   Molecular Weight                  574.48848 [g/mol]
   Molecular Formula                 C[30]H[22]O[12]
   XLogP3-AA                         1.3
   H-Bond Donor                      8
   H-Bond Acceptor                   12
   Rotatable Bond Count              0
   Tautomer Count                    999
   Exact Mass                        574.111126
   MonoIsotopic Mass                 574.111126
   Topological Polar Surface Area    230
   Heavy Atom Count                  42
   Formal Charge                     0
   Complexity                        1360
   Isotope Atom Count                0
   Defined Atom Stereocenter Count   0
   Undefined Atom Stereocenter Count 8
   Defined Bond Stereocenter Count   0
   Undefined Bond Stereocenter Count 0
   Covalently-Bonded Unit Count      1

References

   1. http://toxnet.nlm.nih.gov/cgi-bin/sis/search/r?dbs+hsdb:@term+@rn+@rel+21884-44-6
   2. http://toxnet.nlm.nih.gov/cgi-bin/sis/search/r?dbs+hsdb:@term+@rn+@rel+21884-44-6
   3. http://toxnet.nlm.nih.gov/cgi-bin/sis/search/r?dbs+hsdb:@term+@rn+@rel+21884-44-6
   4. http://toxnet.nlm.nih.gov/cgi-bin/sis/search/r?dbs+hsdb:@term+@rn+@rel+21884-44-6
