   Color/Form

     * Viscous, pale yellow liquid
     * Dense, nearly colorless liquid

   from [1]HSDB

   Melting Point
        FP: 5.5 DEG C
   from [2]HSDB

   Density/Specific Gravity
        2.27 AT 25 DEG C
   from [3]HSDB

   Octanol/Water Partition Coefficient
        log Kow = 4.29
   from [4]HSDB

   pH
        High-purity & low-purity grades: acid number (mg KOH/g)= 0.05
   maximum
   from [5]HSDB

   Solubilities

     * MISCIBLE WITH CARBON TETRACHLORIDE, CHLOROFORM AND METHYLENE
       CHLORIDE.
     * Soluble in chloroform
     * In water, 8 mg/l @ 24 deg C. [Hollifield HC; Bull Environ Contam
       Toxicol 23: 579-86 (1979)] [6]PubMed Abstract

   from [7]HSDB

   Spectral Properties

     * Index of refraction: 1.5772 @ 20 deg C/D
     * Intense mass spectral peaks: 201 m/z (100%), 199 m/z (53%), 203 m/z
       (48%), 119 m/z (43%)

   from [8]HSDB

   Vapor Pressure
        2.25X10-4 mm Hg @ 25 deg C
   from [9]HSDB

   Viscosity
        High purity grade: 3900-4200 centistokes at 25 deg C; low purity
   grade: 1400-1700 centistokes at 25 deg C.
   from [10]HSDB

   Other Chemical/Physical Properties

     * HYDROLYZED BY ACIDS AND BASES.
     * Bulk density: 18.5 lb/gal

   from [11]HSDB

   Computed Properties
   Molecular Weight                  697.610762 [g/mol]
   Molecular Formula                 C[9]H[15]Br[6]O[4]P
   XLogP3-AA                         4.3
   H-Bond Donor                      0
   H-Bond Acceptor                   4
   Rotatable Bond Count              12
   Exact Mass                        697.574679
   MonoIsotopic Mass                 691.580818
   Topological Polar Surface Area    44.8
   Heavy Atom Count                  20
   Formal Charge                     0
   Complexity                        255
   Isotope Atom Count                0
   Defined Atom Stereocenter Count   0
   Undefined Atom Stereocenter Count 3
   Defined Bond Stereocenter Count   0
   Undefined Bond Stereocenter Count 0
   Covalently-Bonded Unit Count      1
   Feature 3D Acceptor Count         1
   Feature 3D Hydrophobe Count       6
   Effective Rotor Count             12
   Conformer Sampling RMSD           1.2
   CID Conformer Count               [12]479

References

   1. http://toxnet.nlm.nih.gov/cgi-bin/sis/search/r?dbs+hsdb:@term+@rn+@rel+126-72-7
   2. http://toxnet.nlm.nih.gov/cgi-bin/sis/search/r?dbs+hsdb:@term+@rn+@rel+126-72-7
   3. http://toxnet.nlm.nih.gov/cgi-bin/sis/search/r?dbs+hsdb:@term+@rn+@rel+126-72-7
   4. http://toxnet.nlm.nih.gov/cgi-bin/sis/search/r?dbs+hsdb:@term+@rn+@rel+126-72-7
   5. http://toxnet.nlm.nih.gov/cgi-bin/sis/search/r?dbs+hsdb:@term+@rn+@rel+126-72-7
   6. http://www.ncbi.nlm.nih.gov/entrez/query.fcgi?cmd=Retrieve&db=pubmed&dopt=Abstract&list_uids=497467
   7. http://toxnet.nlm.nih.gov/cgi-bin/sis/search/r?dbs+hsdb:@term+@rn+@rel+126-72-7
   8. http://toxnet.nlm.nih.gov/cgi-bin/sis/search/r?dbs+hsdb:@term+@rn+@rel+126-72-7
   9. http://toxnet.nlm.nih.gov/cgi-bin/sis/search/r?dbs+hsdb:@term+@rn+@rel+126-72-7
  10. http://toxnet.nlm.nih.gov/cgi-bin/sis/search/r?dbs+hsdb:@term+@rn+@rel+126-72-7
  11. http://toxnet.nlm.nih.gov/cgi-bin/sis/search/r?dbs+hsdb:@term+@rn+@rel+126-72-7
  12. http://pubchem.ncbi.nlm.nih.gov/vw3d/vw3d.cgi?cid=31356
