17395771
  -OEChem-06241222522D

 42 44  0     0  0  0  0  0  0999 V2000
   10.4368    0.6984    0.0000 Cl  0  0  0  0  0  0  0  0  0  0  0  0
    3.7320    0.8625    0.0000 O   0  0  0  0  0  0  0  0  0  0  0  0
    2.0000   -2.1375    0.0000 O   0  0  0  0  0  0  0  0  0  0  0  0
    5.5443   -0.3327    0.0000 N   0  0  0  0  0  0  0  0  0  0  0  0
    3.7320   -2.1375    0.0000 N   0  0  0  0  0  0  0  0  0  0  0  0
    2.8660   -0.6375    0.0000 N   0  0  0  0  0  0  0  0  0  0  0  0
    5.5443   -1.9422    0.0000 N   0  0  0  0  0  0  0  0  0  0  0  0
    7.1441    1.7745    0.0000 N   0  0  0  0  0  0  0  0  0  0  0  0
    4.5981   -0.6375    0.0000 C   0  0  0  0  0  0  0  0  0  0  0  0
    5.8550    0.6178    0.0000 C   0  0  0  0  0  0  0  0  0  0  0  0
    4.5981   -1.6375    0.0000 C   0  0  0  0  0  0  0  0  0  0  0  0
    6.8335    0.8240    0.0000 C   0  0  0  0  0  0  0  0  0  0  0  0
    3.7320   -0.1375    0.0000 C   0  0  0  0  0  0  0  0  0  0  0  0
    6.1279   -1.1375    0.0000 C   0  0  0  0  0  0  0  0  0  0  0  0
    2.8660   -1.6375    0.0000 C   0  0  0  0  0  0  0  0  0  0  0  0
    3.7320   -3.1375    0.0000 C   0  0  0  0  0  0  0  0  0  0  0  0
    8.1226    1.9807    0.0000 C   0  0  0  0  0  0  0  0  0  0  0  0
    2.0000   -0.1375    0.0000 C   0  0  0  0  0  0  0  0  0  0  0  0
    8.7905    1.2364    0.0000 C   0  0  0  0  0  0  0  0  0  0  0  0
    8.4333    2.9313    0.0000 C   0  0  0  0  0  0  0  0  0  0  0  0
    9.7690    1.4426    0.0000 C   0  0  0  0  0  0  0  0  0  0  0  0
    8.4798    0.2859    0.0000 C   0  0  0  0  0  0  0  0  0  0  0  0
    9.4118    3.1375    0.0000 C   0  0  0  0  0  0  0  0  0  0  0  0
   10.0796    2.3932    0.0000 C   0  0  0  0  0  0  0  0  0  0  0  0
    5.8344    1.2374    0.0000 H   0  0  0  0  0  0  0  0  0  0  0  0
    5.2411    0.7051    0.0000 H   0  0  0  0  0  0  0  0  0  0  0  0
    6.8540    0.2043    0.0000 H   0  0  0  0  0  0  0  0  0  0  0  0
    7.4473    0.7366    0.0000 H   0  0  0  0  0  0  0  0  0  0  0  0
    6.7479   -1.1375    0.0000 H   0  0  0  0  0  0  0  0  0  0  0  0
    6.7301    2.2360    0.0000 H   0  0  0  0  0  0  0  0  0  0  0  0
    3.1120   -3.1375    0.0000 H   0  0  0  0  0  0  0  0  0  0  0  0
    3.7320   -3.7575    0.0000 H   0  0  0  0  0  0  0  0  0  0  0  0
    4.3520   -3.1375    0.0000 H   0  0  0  0  0  0  0  0  0  0  0  0
    2.3100    0.3995    0.0000 H   0  0  0  0  0  0  0  0  0  0  0  0
    1.4631    0.1725    0.0000 H   0  0  0  0  0  0  0  0  0  0  0  0
    1.6900   -0.6744    0.0000 H   0  0  0  0  0  0  0  0  0  0  0  0
    8.0192    3.3927    0.0000 H   0  0  0  0  0  0  0  0  0  0  0  0
    7.8905    0.4785    0.0000 H   0  0  0  0  0  0  0  0  0  0  0  0
    8.2872   -0.3034    0.0000 H   0  0  0  0  0  0  0  0  0  0  0  0
    9.0691    0.0933    0.0000 H   0  0  0  0  0  0  0  0  0  0  0  0
    9.6044    3.7268    0.0000 H   0  0  0  0  0  0  0  0  0  0  0  0
   10.6863    2.5210    0.0000 H   0  0  0  0  0  0  0  0  0  0  0  0
  1 21  1  0  0  0  0
  2 13  2  0  0  0  0
  3 15  2  0  0  0  0
  4  9  1  0  0  0  0
  4 10  1  0  0  0  0
  4 14  1  0  0  0  0
  5 11  1  0  0  0  0
  5 15  1  0  0  0  0
  5 16  1  0  0  0  0
  6 13  1  0  0  0  0
  6 15  1  0  0  0  0
  6 18  1  0  0  0  0
  7 11  1  0  0  0  0
  7 14  2  0  0  0  0
  8 12  1  0  0  0  0
  8 17  1  0  0  0  0
  8 30  1  0  0  0  0
  9 11  2  0  0  0  0
  9 13  1  0  0  0  0
 10 12  1  0  0  0  0
 10 25  1  0  0  0  0
 10 26  1  0  0  0  0
 12 27  1  0  0  0  0
 12 28  1  0  0  0  0
 14 29  1  0  0  0  0
 16 31  1  0  0  0  0
 16 32  1  0  0  0  0
 16 33  1  0  0  0  0
 17 19  2  0  0  0  0
 17 20  1  0  0  0  0
 18 34  1  0  0  0  0
 18 35  1  0  0  0  0
 18 36  1  0  0  0  0
 19 21  1  0  0  0  0
 19 22  1  0  0  0  0
 20 23  2  0  0  0  0
 20 37  1  0  0  0  0
 21 24  2  0  0  0  0
 22 38  1  0  0  0  0
 22 39  1  0  0  0  0
 22 40  1  0  0  0  0
 23 24  1  0  0  0  0
 23 41  1  0  0  0  0
 24 42  1  0  0  0  0
M  END
> <PUBCHEM_COMPOUND_CID>
17395771

> <PUBCHEM_COMPOUND_CANONICALIZED>
1

> <PUBCHEM_CACTVS_COMPLEXITY>
505

> <PUBCHEM_CACTVS_HBOND_ACCEPTOR>
4

> <PUBCHEM_CACTVS_HBOND_DONOR>
1

> <PUBCHEM_CACTVS_ROTATABLE_BOND>
4

> <PUBCHEM_CACTVS_SUBSKEYS>
AAADceB7sAAEAAAAAAAAAAAAAAAAAWAAAAA8QAAAAAAAAFgBwAAAHgIQAAAADArBniQ38JfMEACoAydzdACCgC03F6AJ2IGodsiIaCrB27GUIIholyLIyGcQgAAOAAAAAAIDAAAAAAAABAYAAAAAAAAAAA==

> <PUBCHEM_IUPAC_OPENEYE_NAME>
7-[2-(3-chloro-2-methyl-anilino)ethyl]-1,3-dimethyl-purine-2,6-dione

> <PUBCHEM_IUPAC_CAS_NAME>
7-[2-(3-chloro-2-methylanilino)ethyl]-1,3-dimethylpurine-2,6-dione

> <PUBCHEM_IUPAC_NAME>
7-[2-(3-chloro-2-methylanilino)ethyl]-1,3-dimethylpurine-2,6-dione

> <PUBCHEM_IUPAC_SYSTEMATIC_NAME>
7-[2-[(3-chloranyl-2-methyl-phenyl)amino]ethyl]-1,3-dimethyl-purine-2,6-dione

> <PUBCHEM_IUPAC_TRADITIONAL_NAME>
7-[2-(3-chloro-2-methyl-anilino)ethyl]-1,3-dimethyl-xanthine

> <PUBCHEM_IUPAC_INCHI>
InChI=1S/C16H18ClN5O2/c1-10-11(17)5-4-6-12(10)18-7-8-22-9-19-14-13(22)15(23)21(3)16(24)20(14)2/h4-6,9,18H,7-8H2,1-3H3

> <PUBCHEM_IUPAC_INCHIKEY>
ZDLRVXPINGQZNA-UHFFFAOYSA-N

> <PUBCHEM_XLOGP3>
2.2

> <PUBCHEM_EXACT_MASS>
347.114903

> <PUBCHEM_MOLECULAR_FORMULA>
C16H18ClN5O2

> <PUBCHEM_MOLECULAR_WEIGHT>
347.79942

> <PUBCHEM_OPENEYE_CAN_SMILES>
CC1=C(C=CC=C1Cl)NCCN2C=NC3=C2C(=O)N(C(=O)N3C)C

> <PUBCHEM_OPENEYE_ISO_SMILES>
CC1=C(C=CC=C1Cl)NCCN2C=NC3=C2C(=O)N(C(=O)N3C)C

> <PUBCHEM_CACTVS_TPSA>
70.5

> <PUBCHEM_MONOISOTOPIC_WEIGHT>
347.114903

> <PUBCHEM_TOTAL_CHARGE>
0

> <PUBCHEM_HEAVY_ATOM_COUNT>
24

> <PUBCHEM_ATOM_DEF_STEREO_COUNT>
0

> <PUBCHEM_ATOM_UDEF_STEREO_COUNT>
0

> <PUBCHEM_BOND_DEF_STEREO_COUNT>
0

> <PUBCHEM_BOND_UDEF_STEREO_COUNT>
0

> <PUBCHEM_ISOTOPIC_ATOM_COUNT>
0

> <PUBCHEM_COMPONENT_COUNT>
1

> <PUBCHEM_CACTVS_TAUTO_COUNT>
1

> <PUBCHEM_COORDINATE_TYPE>
1
5
255

> <PUBCHEM_BONDANNOTATIONS>
17  19  8
17  20  8
19  21  8
20  23  8
21  24  8
23  24  8
4  14  8
4  9  8
5  11  8
5  15  8
6  13  8
6  15  8
7  11  8
7  14  8
9  11  8
9  13  8

$$$$

