   Color/Form
        Colorless liquid
   from [1]HSDB

   Odor

     * Odor is sweet, pungent or chloroform-like ... generally perceived
       as a slightly irritating chloroformlike odor
     * Pungent, garlic-like odor

   from [2]HSDB

   Boiling Point
        117.9 deg C
   from [3]HSDB

   Melting Point
        -25.6 deg C
   from [4]HSDB

   Density/Specific Gravity
        1.1750 at 25 deg C/4 deg C
   from [5]HSDB

   Heat of Combustion
        -8143 Btu/lb; -4524 Cal/g; -189.4 E+5 J/kg
   from [6]HSDB

   Heat of Vaporization
        Latent heat of vaporization: 176 Btu/lb; 97.9 Cal/g; 4.10X10+5
   J/kg
   from [7]HSDB

   Octanol/Water Partition Coefficient
        log Kow = 0.45
   from [8]HSDB

   Solubilities

     * Miscible with most organic solvents
     * Miscible with alcohol, ether, chloroform, trichloroethylene, carbon
       tetrachloride; immiscible with petroleum hydrocarbons.
     * In water, 6.59X10+4 mg/L at 25 deg C

   from [9]HSDB

   Spectral Properties

     * Index of refraction: 1.44195 at 11.6 deg C/D; 1.43969 at 16 deg
       C/D; 1.43585 at 25 deg C/D
     * IR: 946 (Coblentz Society Spectral Collection)
     * NMR: 16 (Sadtler Research Laboratories Spectral Collection)
     * MASS: 185 (Atlas of Mass Spectral Data, John Wiley & Sons, New
       York)
     * IR: 2:124F (Aldrich Library of Infrared Spectra, Aldrich Chemical
       Co, Milwaukee, WI)
     * RAMAN: 289 (Sadtler Research Laboratories Spectral Collection)

   from [10]HSDB

   Surface Tension
        37.0 dynes/cm
   from [11]HSDB

   Vapor Density
        3.29 (Air = 1)
   from [12]HSDB

   Vapor Pressure
        16.4 mm Hg at 25 deg C
   from [13]HSDB

   Viscosity
        0.0103 poise at 25 deg C
   from [14]HSDB

   Other Chemical/Physical Properties

     * In saturated air: 1.7% (25 deg C)
     * Characterized by two potentially reactive sites: the epoxide ring
       and the chlorine atom. Presence of the highly strained 3-membered
       ring makes epichlorohydrin a relatively reactive compound.
     * Coefficient of expansion at 68 deg F: 0.000577
     * Heat of fusion: 2,500 cal/mol at 25 deg C.
     * Ratio of heats of Specific Vapor (gas): 1.155
     * Highly volatile, unstable
     * Henry's Law constant = 3.0X10-5 atm-cu m/mole at 25 deg C (est)
     * Hydroxyl radical reaction rate constant = 4.40X10-13 cu
       cm/molecule-sec at 25 deg C

   from [15]HSDB

   Computed Properties
   Molecular Weight                  92.5242 [g/mol]
   Molecular Formula                 C[3]H[5]ClO
   XLogP3                            0.5
   H-Bond Donor                      0
   H-Bond Acceptor                   1
   Rotatable Bond Count              1
   Exact Mass                        92.002892
   MonoIsotopic Mass                 92.002892
   Topological Polar Surface Area    12.5
   Heavy Atom Count                  5
   Formal Charge                     0
   Complexity                        37.9
   Isotope Atom Count                0
   Defined Atom Stereocenter Count   0
   Undefined Atom Stereocenter Count 1
   Defined Bond Stereocenter Count   0
   Undefined Bond Stereocenter Count 0
   Covalently-Bonded Unit Count      1
   Feature 3D Acceptor Count         1
   Effective Rotor Count             1.6
   Conformer Sampling RMSD           0.4
   CID Conformer Count               [16]6

References

   1. http://toxnet.nlm.nih.gov/cgi-bin/sis/search/r?dbs+hsdb:@term+@rn+@rel+106-89-8
   2. http://toxnet.nlm.nih.gov/cgi-bin/sis/search/r?dbs+hsdb:@term+@rn+@rel+106-89-8
   3. http://toxnet.nlm.nih.gov/cgi-bin/sis/search/r?dbs+hsdb:@term+@rn+@rel+106-89-8
   4. http://toxnet.nlm.nih.gov/cgi-bin/sis/search/r?dbs+hsdb:@term+@rn+@rel+106-89-8
   5. http://toxnet.nlm.nih.gov/cgi-bin/sis/search/r?dbs+hsdb:@term+@rn+@rel+106-89-8
   6. http://toxnet.nlm.nih.gov/cgi-bin/sis/search/r?dbs+hsdb:@term+@rn+@rel+106-89-8
   7. http://toxnet.nlm.nih.gov/cgi-bin/sis/search/r?dbs+hsdb:@term+@rn+@rel+106-89-8
   8. http://toxnet.nlm.nih.gov/cgi-bin/sis/search/r?dbs+hsdb:@term+@rn+@rel+106-89-8
   9. http://toxnet.nlm.nih.gov/cgi-bin/sis/search/r?dbs+hsdb:@term+@rn+@rel+106-89-8
  10. http://toxnet.nlm.nih.gov/cgi-bin/sis/search/r?dbs+hsdb:@term+@rn+@rel+106-89-8
  11. http://toxnet.nlm.nih.gov/cgi-bin/sis/search/r?dbs+hsdb:@term+@rn+@rel+106-89-8
  12. http://toxnet.nlm.nih.gov/cgi-bin/sis/search/r?dbs+hsdb:@term+@rn+@rel+106-89-8
  13. http://toxnet.nlm.nih.gov/cgi-bin/sis/search/r?dbs+hsdb:@term+@rn+@rel+106-89-8
  14. http://toxnet.nlm.nih.gov/cgi-bin/sis/search/r?dbs+hsdb:@term+@rn+@rel+106-89-8
  15. http://toxnet.nlm.nih.gov/cgi-bin/sis/search/r?dbs+hsdb:@term+@rn+@rel+106-89-8
  16. http://pubchem.ncbi.nlm.nih.gov/vw3d/vw3d.cgi?cid=7835
