439934
  -OEChem-07051212482D

 31 31  0     1  0  0  0  0  0999 V2000
    5.1350    1.8450    0.0000 P   0  0  0  0  0  0  0  0  0  0  0  0
    4.2690    1.3450    0.0000 O   0  0  0  0  0  0  0  0  0  0  0  0
    4.2690   -2.6550    0.0000 O   0  0  0  0  0  0  0  0  0  0  0  0
    2.5369    0.3450    0.0000 O   0  0  0  0  0  0  0  0  0  0  0  0
    6.0010    0.3450    0.0000 O   0  0  0  0  0  0  0  0  0  0  0  0
    6.0010    2.3450    0.0000 O   0  0  0  0  0  0  0  0  0  0  0  0
    4.6350    2.7110    0.0000 O   0  0  0  0  0  0  0  0  0  0  0  0
    5.6350    0.9790    0.0000 O   0  0  0  0  0  0  0  0  0  0  0  0
    2.5369   -1.6550    0.0000 N   0  0  0  0  0  0  0  0  0  0  0  0
    6.0010   -1.6550    0.0000 N   0  0  0  0  0  0  0  0  0  0  0  0
    3.4030   -1.1550    0.0000 C   0  0  1  0  0  0  0  0  0  0  0  0
    5.1350   -1.1550    0.0000 C   0  0  2  0  0  0  0  0  0  0  0  0
    4.2690    0.3450    0.0000 C   0  0  0  0  0  0  0  0  0  0  0  0
    4.2690   -1.6550    0.0000 C   0  0  0  0  0  0  0  0  0  0  0  0
    5.1350   -0.1550    0.0000 C   0  0  1  0  0  0  0  0  0  0  0  0
    3.4030   -0.1550    0.0000 C   0  0  2  0  0  0  0  0  0  0  0  0
    5.1350   -1.7750    0.0000 H   0  0  0  0  0  0  0  0  0  0  0  0
    3.4030   -1.7750    0.0000 H   0  0  0  0  0  0  0  0  0  0  0  0
    4.8059    0.6550    0.0000 H   0  0  0  0  0  0  0  0  0  0  0  0
    4.8059   -1.9650    0.0000 H   0  0  0  0  0  0  0  0  0  0  0  0
    3.4030    0.4650    0.0000 H   0  0  0  0  0  0  0  0  0  0  0  0
    5.1350    0.4650    0.0000 H   0  0  0  0  0  0  0  0  0  0  0  0
    6.0010   -2.2750    0.0000 H   0  0  0  0  0  0  0  0  0  0  0  0
    6.5380   -1.3450    0.0000 H   0  0  0  0  0  0  0  0  0  0  0  0
    2.5369   -2.2750    0.0000 H   0  0  0  0  0  0  0  0  0  0  0  0
    2.0000   -1.3450    0.0000 H   0  0  0  0  0  0  0  0  0  0  0  0
    2.5369    0.9650    0.0000 H   0  0  0  0  0  0  0  0  0  0  0  0
    6.5380    0.0350    0.0000 H   0  0  0  0  0  0  0  0  0  0  0  0
    3.7320   -2.9650    0.0000 H   0  0  0  0  0  0  0  0  0  0  0  0
    4.0150    2.7110    0.0000 H   0  0  0  0  0  0  0  0  0  0  0  0
    6.0010    2.9650    0.0000 H   0  0  0  0  0  0  0  0  0  0  0  0
  1  2  1  0  0  0  0
  1  6  1  0  0  0  0
  1  7  1  0  0  0  0
  1  8  2  0  0  0  0
  2 13  1  0  0  0  0
  3 14  1  0  0  0  0
  3 29  1  0  0  0  0
 16  4  1  1  0  0  0
  4 27  1  0  0  0  0
 15  5  1  1  0  0  0
  5 28  1  0  0  0  0
  6 31  1  0  0  0  0
  7 30  1  0  0  0  0
 11  9  1  6  0  0  0
  9 25  1  0  0  0  0
  9 26  1  0  0  0  0
 12 10  1  6  0  0  0
 10 23  1  0  0  0  0
 10 24  1  0  0  0  0
 11 14  1  0  0  0  0
 11 16  1  0  0  0  0
 11 18  1  0  0  0  0
 12 14  1  0  0  0  0
 12 15  1  0  0  0  0
 12 17  1  0  0  0  0
 13 15  1  0  0  0  0
 13 16  1  0  0  0  0
 13 19  1  0  0  0  0
 14 20  1  0  0  0  0
 15 22  1  0  0  0  0
 16 21  1  0  0  0  0
M  END
> <PUBCHEM_COMPOUND_CID>
439934

> <PUBCHEM_COMPOUND_CANONICALIZED>
1

> <PUBCHEM_CACTVS_COMPLEXITY>
281

> <PUBCHEM_CACTVS_HBOND_ACCEPTOR>
9

> <PUBCHEM_CACTVS_HBOND_DONOR>
7

> <PUBCHEM_CACTVS_ROTATABLE_BOND>
2

> <PUBCHEM_CACTVS_SUBSKEYS>
AAADccBjOAIAAAAAAAAAAAAAAAAAAAAAAAAwAAAAAAAAAAAAAAAAHgAQCCAACDzhgAYAAABAAxAAQAAAAIAAAAAAAAAAAIAAAAADEAIAwAAAQAAHEAABAAHwcAUAAAAAAAAAAAACgAAUCACgAAAAAAAAAA==

> <PUBCHEM_IUPAC_OPENEYE_NAME>
[(2S,3R,5S,6R)-3,5-diamino-2,4,6-trihydroxy-cyclohexyl] dihydrogen phosphate

> <PUBCHEM_IUPAC_CAS_NAME>
[(2S,3R,5S,6R)-3,5-diamino-2,4,6-trihydroxycyclohexyl] dihydrogen phosphate

> <PUBCHEM_IUPAC_NAME>
[(2S,3R,5S,6R)-3,5-diamino-2,4,6-trihydroxycyclohexyl] dihydrogen phosphate

> <PUBCHEM_IUPAC_SYSTEMATIC_NAME>
[(2S,3R,5S,6R)-3,5-bis(azanyl)-2,4,6-tris(oxidanyl)cyclohexyl] dihydrogen phosphate

> <PUBCHEM_IUPAC_TRADITIONAL_NAME>
[(2S,3R,5S,6R)-3,5-diamino-2,4,6-trihydroxy-cyclohexyl] dihydrogen phosphate

> <PUBCHEM_IUPAC_INCHI>
InChI=1S/C6H15N2O7P/c7-1-3(9)2(8)5(11)6(4(1)10)15-16(12,13)14/h1-6,9-11H,7-8H2,(H2,12,13,14)/t1-,2+,3?,4+,5-,6?

> <PUBCHEM_IUPAC_INCHIKEY>
JOZGBZPOJJCPEP-XGNJAFTASA-N

> <PUBCHEM_XLOGP3_AA>
-7.6

> <PUBCHEM_EXACT_MASS>
258.061687

> <PUBCHEM_MOLECULAR_FORMULA>
C6H15N2O7P

> <PUBCHEM_MOLECULAR_WEIGHT>
258.166262

> <PUBCHEM_OPENEYE_CAN_SMILES>
C1(C(C(C(C(C1O)OP(=O)(O)O)O)N)O)N

> <PUBCHEM_OPENEYE_ISO_SMILES>
[C@H]1([C@H](C([C@H]([C@@H](C1O)N)O)OP(=O)(O)O)O)N

> <PUBCHEM_CACTVS_TPSA>
180

> <PUBCHEM_MONOISOTOPIC_WEIGHT>
258.061687

> <PUBCHEM_TOTAL_CHARGE>
0

> <PUBCHEM_HEAVY_ATOM_COUNT>
16

> <PUBCHEM_ATOM_DEF_STEREO_COUNT>
4

> <PUBCHEM_ATOM_UDEF_STEREO_COUNT>
0

> <PUBCHEM_BOND_DEF_STEREO_COUNT>
0

> <PUBCHEM_BOND_UDEF_STEREO_COUNT>
0

> <PUBCHEM_ISOTOPIC_ATOM_COUNT>
0

> <PUBCHEM_COMPONENT_COUNT>
1

> <PUBCHEM_CACTVS_TAUTO_COUNT>
1

> <PUBCHEM_COORDINATE_TYPE>
1
5
255

> <PUBCHEM_BONDANNOTATIONS>
12  10  6
16  4  5
15  5  5
11  9  6

$$$$

