182279
  -OEChem-07051213022D

 47 49  0     1  0  0  0  0  0999 V2000
    6.8671    0.5950    0.0000 O   0  0  0  0  0  0  0  0  0  0  0  0
    5.1350    0.5950    0.0000 O   0  0  0  0  0  0  0  0  0  0  0  0
    6.0010   -0.9050    0.0000 O   0  0  0  0  0  0  0  0  0  0  0  0
    6.8671    2.5950    0.0000 O   0  0  0  0  0  0  0  0  0  0  0  0
    5.1350    3.5950    0.0000 O   0  0  0  0  0  0  0  0  0  0  0  0
    3.4030    2.5950    0.0000 O   0  0  0  0  0  0  0  0  0  0  0  0
    9.9685    0.5565    0.0000 O   0  0  0  0  0  0  0  0  0  0  0  0
    2.5369    1.0950    0.0000 O   0  0  0  0  0  0  0  0  0  0  0  0
    6.0010   -3.9050    0.0000 O   0  0  0  0  0  0  0  0  0  0  0  0
    7.7331   -0.9050    0.0000 C   0  0  2  0  0  0  0  0  0  0  0  0
    7.7331   -1.9050    0.0000 C   0  0  2  0  0  0  0  0  0  0  0  0
    6.8671   -0.4050    0.0000 C   0  0  2  0  0  0  0  0  0  0  0  0
    8.6793   -2.2097    0.0000 C   0  0  0  0  0  0  0  0  0  0  0  0
    8.6793   -0.6003    0.0000 C   0  0  0  0  0  0  0  0  0  0  0  0
    6.0010    1.0950    0.0000 C   0  0  2  0  0  0  0  0  0  0  0  0
    6.0010    2.0950    0.0000 C   0  0  1  0  0  0  0  0  0  0  0  0
    5.1350    2.5950    0.0000 C   0  0  2  0  0  0  0  0  0  0  0  0
    9.2629   -1.4050    0.0000 C   0  0  0  0  0  0  0  0  0  0  0  0
    4.2690    2.0950    0.0000 C   0  0  1  0  0  0  0  0  0  0  0  0
    6.8671   -2.4050    0.0000 C   0  0  0  0  0  0  0  0  0  0  0  0
    4.2690    1.0950    0.0000 C   0  0  1  0  0  0  0  0  0  0  0  0
    8.9900    0.3503    0.0000 C   0  0  0  0  0  0  0  0  0  0  0  0
    6.0010   -1.9050    0.0000 C   0  0  0  0  0  0  0  0  0  0  0  0
    3.4030    0.5950    0.0000 C   0  0  0  0  0  0  0  0  0  0  0  0
    6.8671   -3.4050    0.0000 C   0  0  0  0  0  0  0  0  0  0  0  0
    7.8230   -0.0598    0.0000 H   0  0  0  0  0  0  0  0  0  0  0  0
    7.8230   -2.7502    0.0000 H   0  0  0  0  0  0  0  0  0  0  0  0
    6.3301   -0.0950    0.0000 H   0  0  0  0  0  0  0  0  0  0  0  0
    8.4283   -2.7766    0.0000 H   0  0  0  0  0  0  0  0  0  0  0  0
    9.2167   -2.5190    0.0000 H   0  0  0  0  0  0  0  0  0  0  0  0
    6.5380    1.4050    0.0000 H   0  0  0  0  0  0  0  0  0  0  0  0
    6.5380    1.7850    0.0000 H   0  0  0  0  0  0  0  0  0  0  0  0
    5.6720    2.9050    0.0000 H   0  0  0  0  0  0  0  0  0  0  0  0
    4.2690    2.7150    0.0000 H   0  0  0  0  0  0  0  0  0  0  0  0
    9.8829   -1.4050    0.0000 H   0  0  0  0  0  0  0  0  0  0  0  0
    4.2690    0.4750    0.0000 H   0  0  0  0  0  0  0  0  0  0  0  0
    8.9694    0.9699    0.0000 H   0  0  0  0  0  0  0  0  0  0  0  0
    8.3762    0.4376    0.0000 H   0  0  0  0  0  0  0  0  0  0  0  0
    5.4641   -2.2150    0.0000 H   0  0  0  0  0  0  0  0  0  0  0  0
    3.0044    0.1201    0.0000 H   0  0  0  0  0  0  0  0  0  0  0  0
    3.8015    0.1201    0.0000 H   0  0  0  0  0  0  0  0  0  0  0  0
    7.4040   -3.7150    0.0000 H   0  0  0  0  0  0  0  0  0  0  0  0
    6.8671    3.2150    0.0000 H   0  0  0  0  0  0  0  0  0  0  0  0
    4.5981    3.9050    0.0000 H   0  0  0  0  0  0  0  0  0  0  0  0
    3.4030    3.2150    0.0000 H   0  0  0  0  0  0  0  0  0  0  0  0
   10.1611    1.1458    0.0000 H   0  0  0  0  0  0  0  0  0  0  0  0
    2.0000    0.7850    0.0000 H   0  0  0  0  0  0  0  0  0  0  0  0
 12  1  1  1  0  0  0
 15  1  1  6  0  0  0
  2 15  1  0  0  0  0
  2 21  1  0  0  0  0
  3 12  1  0  0  0  0
  3 23  1  0  0  0  0
 16  4  1  1  0  0  0
  4 43  1  0  0  0  0
 17  5  1  6  0  0  0
  5 44  1  0  0  0  0
 19  6  1  1  0  0  0
  6 45  1  0  0  0  0
  7 22  1  0  0  0  0
  7 46  1  0  0  0  0
  8 24  1  0  0  0  0
  8 47  1  0  0  0  0
  9 25  2  0  0  0  0
 10 11  1  0  0  0  0
 10 12  1  0  0  0  0
 10 14  1  0  0  0  0
 10 26  1  1  0  0  0
 11 13  1  0  0  0  0
 11 20  1  0  0  0  0
 11 27  1  1  0  0  0
 12 28  1  0  0  0  0
 13 18  1  0  0  0  0
 13 29  1  0  0  0  0
 13 30  1  0  0  0  0
 14 18  2  0  0  0  0
 14 22  1  0  0  0  0
 15 16  1  0  0  0  0
 15 31  1  0  0  0  0
 16 17  1  0  0  0  0
 16 32  1  0  0  0  0
 17 19  1  0  0  0  0
 17 33  1  0  0  0  0
 18 35  1  0  0  0  0
 19 21  1  0  0  0  0
 19 34  1  0  0  0  0
 20 23  2  0  0  0  0
 20 25  1  0  0  0  0
 21 24  1  6  0  0  0
 21 36  1  0  0  0  0
 22 37  1  0  0  0  0
 22 38  1  0  0  0  0
 23 39  1  0  0  0  0
 24 40  1  0  0  0  0
 24 41  1  0  0  0  0
 25 42  1  0  0  0  0
M  END
> <PUBCHEM_COMPOUND_CID>
182279

> <PUBCHEM_COMPOUND_CANONICALIZED>
1

> <PUBCHEM_CACTVS_COMPLEXITY>
560

> <PUBCHEM_CACTVS_HBOND_ACCEPTOR>
9

> <PUBCHEM_CACTVS_HBOND_DONOR>
5

> <PUBCHEM_CACTVS_ROTATABLE_BOND>
5

> <PUBCHEM_CACTVS_SUBSKEYS>
AAADceB4PAAAAAAAAAAAAAAAAAAAAQAAAAAkQAAAAAAAAEAAAAAAGgAACAAADRSwgAMACAAABgCIAihSgAAACAAgIAAACAEAAEgRFBIAAQAiUAAFwAAPEIPIbAwOgAAAAAAAAAAAAAAAAAAAAAAAAAAAAA==

> <PUBCHEM_IUPAC_OPENEYE_NAME>
(1S,4aS,7aS)-7-(hydroxymethyl)-1-[(2S,3R,4S,5S,6R)-3,4,5-trihydroxy-6-(hydroxymethyl)tetrahydropyran-2-yl]oxy-1,4a,5,7a-tetrahydrocyclopenta[c]pyran-4-carbaldehyde

> <PUBCHEM_IUPAC_CAS_NAME>
(1S,4aS,7aS)-7-(hydroxymethyl)-1-[[(2S,3R,4S,5S,6R)-3,4,5-trihydroxy-6-(hydroxymethyl)-2-oxanyl]oxy]-1,4a,5,7a-tetrahydrocyclopenta[c]pyran-4-carboxaldehyde

> <PUBCHEM_IUPAC_NAME>
(1S,4aS,7aS)-7-(hydroxymethyl)-1-[(2S,3R,4S,5S,6R)-3,4,5-trihydroxy-6-(hydroxymethyl)oxan-2-yl]oxy-1,4a,5,7a-tetrahydrocyclopenta[c]pyran-4-carbaldehyde

> <PUBCHEM_IUPAC_SYSTEMATIC_NAME>
(1S,4aS,7aS)-7-(hydroxymethyl)-1-[(2S,3R,4S,5S,6R)-6-(hydroxymethyl)-3,4,5-tris(oxidanyl)oxan-2-yl]oxy-1,4a,5,7a-tetrahydrocyclopenta[c]pyran-4-carbaldehyde

> <PUBCHEM_IUPAC_TRADITIONAL_NAME>
(1S,4aS,7aS)-7-methylol-1-[(2S,3R,4S,5S,6R)-3,4,5-trihydroxy-6-methylol-tetrahydropyran-2-yl]oxy-1,4a,5,7a-tetrahydrocyclopenta[c]pyran-4-carbaldehyde

> <PUBCHEM_IUPAC_INCHI>
InChI=1S/C16H22O9/c17-3-7-1-2-9-8(4-18)6-23-15(11(7)9)25-16-14(22)13(21)12(20)10(5-19)24-16/h1,4,6,9-17,19-22H,2-3,5H2/t9-,10-,11-,12-,13+,14-,15+,16+/m1/s1

> <PUBCHEM_IUPAC_INCHIKEY>
CSSBAEZXGJABKW-SWZHBTMOSA-N

> <PUBCHEM_XLOGP3_AA>
-2.7

> <PUBCHEM_EXACT_MASS>
358.126382

> <PUBCHEM_MOLECULAR_FORMULA>
C16H22O9

> <PUBCHEM_MOLECULAR_WEIGHT>
358.34048

> <PUBCHEM_OPENEYE_CAN_SMILES>
C1C=C(C2C1C(=COC2OC3C(C(C(C(O3)CO)O)O)O)C=O)CO

> <PUBCHEM_OPENEYE_ISO_SMILES>
C1C=C([C@@H]2[C@H]1C(=CO[C@H]2O[C@H]3[C@@H]([C@H]([C@@H]([C@H](O3)CO)O)O)O)C=O)CO

> <PUBCHEM_CACTVS_TPSA>
146

> <PUBCHEM_MONOISOTOPIC_WEIGHT>
358.126382

> <PUBCHEM_TOTAL_CHARGE>
0

> <PUBCHEM_HEAVY_ATOM_COUNT>
25

> <PUBCHEM_ATOM_DEF_STEREO_COUNT>
8

> <PUBCHEM_ATOM_UDEF_STEREO_COUNT>
0

> <PUBCHEM_BOND_DEF_STEREO_COUNT>
0

> <PUBCHEM_BOND_UDEF_STEREO_COUNT>
0

> <PUBCHEM_ISOTOPIC_ATOM_COUNT>
0

> <PUBCHEM_COMPONENT_COUNT>
1

> <PUBCHEM_CACTVS_TAUTO_COUNT>
1

> <PUBCHEM_COORDINATE_TYPE>
1
5
255

> <PUBCHEM_BONDANNOTATIONS>
12  1  5
15  1  6
10  26  5
11  27  5
21  24  6
16  4  5
17  5  6
19  6  5

$$$$

