7999
  -OEChem-06261202322D

 15 13  0     0  0  0  0  0  0999 V2000
    2.2690    0.9749    0.0000 Hg  0  3  0  0  0  0  0  0  0  0  0  0
    2.2690    5.0119    0.0000 O   0  5  0  0  0  0  0  0  0  0  0  0
    1.4030    3.5119    0.0000 O   0  0  0  0  0  0  0  0  0  0  0  0
    1.4030    0.4749    0.0000 C   0  0  0  0  0  0  0  0  0  0  0  0
    0.5369    0.9749    0.0000 C   0  0  0  0  0  0  0  0  0  0  0  0
    0.5369    5.0119    0.0000 C   0  0  0  0  0  0  0  0  0  0  0  0
    1.4030    4.5119    0.0000 C   0  0  0  0  0  0  0  0  0  0  0  0
    1.0044    0.0000    0.0000 H   0  0  0  0  0  0  0  0  0  0  0  0
    1.8015    0.0000    0.0000 H   0  0  0  0  0  0  0  0  0  0  0  0
    0.8469    1.5119    0.0000 H   0  0  0  0  0  0  0  0  0  0  0  0
    0.0000    1.2850    0.0000 H   0  0  0  0  0  0  0  0  0  0  0  0
    0.2269    0.4380    0.0000 H   0  0  0  0  0  0  0  0  0  0  0  0
    0.8469    5.5488    0.0000 H   0  0  0  0  0  0  0  0  0  0  0  0
    0.0000    5.3219    0.0000 H   0  0  0  0  0  0  0  0  0  0  0  0
    0.2269    4.4750    0.0000 H   0  0  0  0  0  0  0  0  0  0  0  0
  1  4  1  0  0  0  0
  2  7  1  0  0  0  0
  3  7  2  0  0  0  0
  4  5  1  0  0  0  0
  4  8  1  0  0  0  0
  4  9  1  0  0  0  0
  5 10  1  0  0  0  0
  5 11  1  0  0  0  0
  5 12  1  0  0  0  0
  6  7  1  0  0  0  0
  6 13  1  0  0  0  0
  6 14  1  0  0  0  0
  6 15  1  0  0  0  0
M  CHG  2   1   1   2  -1
M  END
> <PUBCHEM_COMPOUND_CID>
7999

> <PUBCHEM_COMPOUND_CANONICALIZED>
1

> <PUBCHEM_CACTVS_COMPLEXITY>
28.3

> <PUBCHEM_CACTVS_HBOND_ACCEPTOR>
2

> <PUBCHEM_CACTVS_HBOND_DONOR>
0

> <PUBCHEM_CACTVS_ROTATABLE_BOND>
0

> <PUBCHEM_CACTVS_SUBSKEYS>
AAADccBgMAAAAAAAAAAAAQAAAAAAAAAAAAAAAAAAAAAAAAAAAAAAGgAAAAAAAACAgAACCAAAAAAIAACQCAAAAAAAAAAAAAAAAAAAAAAAAAAAAAAAAAAAAAAAAAAAAAAAAAAAAAAAAAAAAAAAAAAAAAAAAA==

> <PUBCHEM_IUPAC_OPENEYE_NAME>
ethylmercury(1+) acetate

> <PUBCHEM_IUPAC_CAS_NAME>
ethylmercury(1+) acetate

> <PUBCHEM_IUPAC_NAME>
ethylmercury(1+) acetate

> <PUBCHEM_IUPAC_SYSTEMATIC_NAME>
ethylmercury(1+) ethanoate

> <PUBCHEM_IUPAC_TRADITIONAL_NAME>
ethylmercury(1+) acetate

> <PUBCHEM_IUPAC_INCHI>
InChI=1S/C2H4O2.C2H5.Hg/c1-2(3)4;1-2;/h1H3,(H,3,4);1H2,2H3;/q;;+1/p-1

> <PUBCHEM_IUPAC_INCHIKEY>
UVCFFGYNJOPUSF-UHFFFAOYSA-M

> <PUBCHEM_EXACT_MASS>
290.023072

> <PUBCHEM_MOLECULAR_FORMULA>
C4H8HgO2

> <PUBCHEM_MOLECULAR_WEIGHT>
288.69512

> <PUBCHEM_OPENEYE_CAN_SMILES>
CC[Hg+].CC(=O)[O-]

> <PUBCHEM_OPENEYE_ISO_SMILES>
CC[Hg+].CC(=O)[O-]

> <PUBCHEM_CACTVS_TPSA>
40.1

> <PUBCHEM_MONOISOTOPIC_WEIGHT>
290.023072

> <PUBCHEM_TOTAL_CHARGE>
0

> <PUBCHEM_HEAVY_ATOM_COUNT>
7

> <PUBCHEM_ATOM_DEF_STEREO_COUNT>
0

> <PUBCHEM_ATOM_UDEF_STEREO_COUNT>
0

> <PUBCHEM_BOND_DEF_STEREO_COUNT>
0

> <PUBCHEM_BOND_UDEF_STEREO_COUNT>
0

> <PUBCHEM_ISOTOPIC_ATOM_COUNT>
0

> <PUBCHEM_COMPONENT_COUNT>
2

> <PUBCHEM_CACTVS_TAUTO_COUNT>
1

> <PUBCHEM_COORDINATE_TYPE>
1
5
255

$$$$

