4704
  -OEChem-06261200182D

 24 25  0     0  0  0  0  0  0999 V2000
    7.5013    0.0604    0.0000 S   0  0  0  0  0  0  0  0  0  0  0  0
    2.0000   -0.1567    0.0000 F   0  0  0  0  0  0  0  0  0  0  0  0
    8.1226    1.9615    0.0000 O   0  0  0  0  0  0  0  0  0  0  0  0
    6.4763    2.4996    0.0000 O   0  0  0  0  0  0  0  0  0  0  0  0
    5.5443   -1.9615    0.0000 N   0  0  0  0  0  0  0  0  0  0  0  0
    4.5981   -0.6567    0.0000 C   0  0  0  0  0  0  0  0  0  0  0  0
    4.5981   -1.6567    0.0000 C   0  0  0  0  0  0  0  0  0  0  0  0
    5.5443   -0.3520    0.0000 C   0  0  0  0  0  0  0  0  0  0  0  0
    6.1279   -1.1567    0.0000 C   0  0  0  0  0  0  0  0  0  0  0  0
    3.7320   -0.1567    0.0000 C   0  0  0  0  0  0  0  0  0  0  0  0
    3.7320   -2.1567    0.0000 C   0  0  0  0  0  0  0  0  0  0  0  0
    5.8550    0.5985    0.0000 C   0  0  0  0  0  0  0  0  0  0  0  0
    2.8660   -0.6567    0.0000 C   0  0  0  0  0  0  0  0  0  0  0  0
    2.8660   -1.6567    0.0000 C   0  0  0  0  0  0  0  0  0  0  0  0
    6.8335    0.8047    0.0000 C   0  0  0  0  0  0  0  0  0  0  0  0
    7.1441    1.7552    0.0000 C   0  0  0  0  0  0  0  0  0  0  0  0
    5.7369   -2.5508    0.0000 H   0  0  0  0  0  0  0  0  0  0  0  0
    6.7479   -1.1567    0.0000 H   0  0  0  0  0  0  0  0  0  0  0  0
    3.7320    0.4633    0.0000 H   0  0  0  0  0  0  0  0  0  0  0  0
    3.7320   -2.7767    0.0000 H   0  0  0  0  0  0  0  0  0  0  0  0
    5.4409    1.0600    0.0000 H   0  0  0  0  0  0  0  0  0  0  0  0
    2.3291   -1.9667    0.0000 H   0  0  0  0  0  0  0  0  0  0  0  0
    8.1080    0.1883    0.0000 H   0  0  0  0  0  0  0  0  0  0  0  0
    8.3152    2.5508    0.0000 H   0  0  0  0  0  0  0  0  0  0  0  0
  1 15  1  0  0  0  0
  1 23  1  0  0  0  0
  2 13  1  0  0  0  0
  3 16  1  0  0  0  0
  3 24  1  0  0  0  0
  4 16  2  0  0  0  0
  5  7  1  0  0  0  0
  5  9  1  0  0  0  0
  5 17  1  0  0  0  0
  6  7  2  0  0  0  0
  6  8  1  0  0  0  0
  6 10  1  0  0  0  0
  7 11  1  0  0  0  0
  8  9  2  0  0  0  0
  8 12  1  0  0  0  0
  9 18  1  0  0  0  0
 10 13  2  0  0  0  0
 10 19  1  0  0  0  0
 11 14  2  0  0  0  0
 11 20  1  0  0  0  0
 12 15  2  3  0  0  0
 12 21  1  0  0  0  0
 13 14  1  0  0  0  0
 14 22  1  0  0  0  0
 15 16  1  0  0  0  0
M  END
> <PUBCHEM_COMPOUND_CID>
4704

> <PUBCHEM_COMPOUND_CANONICALIZED>
1

> <PUBCHEM_CACTVS_COMPLEXITY>
321

> <PUBCHEM_CACTVS_HBOND_ACCEPTOR>
4

> <PUBCHEM_CACTVS_HBOND_DONOR>
3

> <PUBCHEM_CACTVS_ROTATABLE_BOND>
2

> <PUBCHEM_CACTVS_SUBSKEYS>
AAADccByMQBAAAAAAAAAAAAAAAAAAWAAAAAwAAAAAAAAAFgB8AAAHwQQCAAADAjB3gw8yPLJkgSoAzT3TACCgCAxAiAI2aA4ZNgIJOLAkZGEMAhgkADI2YcQgMAOgAAAAAACAAAAAAAAAAQAAAAAAAAAAA==

> <PUBCHEM_IUPAC_OPENEYE_NAME>
3-(5-fluoro-1H-indol-3-yl)-2-sulfanyl-prop-2-enoic acid

> <PUBCHEM_IUPAC_CAS_NAME>
3-(5-fluoro-1H-indol-3-yl)-2-mercapto-2-propenoic acid

> <PUBCHEM_IUPAC_NAME>
3-(5-fluoro-1H-indol-3-yl)-2-sulfanylprop-2-enoic acid

> <PUBCHEM_IUPAC_SYSTEMATIC_NAME>
3-(5-fluoranyl-1H-indol-3-yl)-2-sulfanyl-prop-2-enoic acid

> <PUBCHEM_IUPAC_TRADITIONAL_NAME>
3-(5-fluoro-1H-indol-3-yl)-2-mercapto-acrylic acid

> <PUBCHEM_IUPAC_INCHI>
InChI=1S/C11H8FNO2S/c12-7-1-2-9-8(4-7)6(5-13-9)3-10(16)11(14)15/h1-5,13,16H,(H,14,15)

> <PUBCHEM_IUPAC_INCHIKEY>
HWMQHECFXSVZGN-UHFFFAOYSA-N

> <PUBCHEM_XLOGP3_AA>
2.5

> <PUBCHEM_EXACT_MASS>
237.025978

> <PUBCHEM_MOLECULAR_FORMULA>
C11H8FNO2S

> <PUBCHEM_MOLECULAR_WEIGHT>
237.250123

> <PUBCHEM_OPENEYE_CAN_SMILES>
C1=CC2=C(C=C1F)C(=CN2)C=C(C(=O)O)S

> <PUBCHEM_OPENEYE_ISO_SMILES>
C1=CC2=C(C=C1F)C(=CN2)C=C(C(=O)O)S

> <PUBCHEM_CACTVS_TPSA>
54.1

> <PUBCHEM_MONOISOTOPIC_WEIGHT>
237.025978

> <PUBCHEM_TOTAL_CHARGE>
0

> <PUBCHEM_HEAVY_ATOM_COUNT>
16

> <PUBCHEM_ATOM_DEF_STEREO_COUNT>
0

> <PUBCHEM_ATOM_UDEF_STEREO_COUNT>
0

> <PUBCHEM_BOND_DEF_STEREO_COUNT>
0

> <PUBCHEM_BOND_UDEF_STEREO_COUNT>
1

> <PUBCHEM_ISOTOPIC_ATOM_COUNT>
0

> <PUBCHEM_COMPONENT_COUNT>
1

> <PUBCHEM_CACTVS_TAUTO_COUNT>
5

> <PUBCHEM_COORDINATE_TYPE>
1
5
255

> <PUBCHEM_BONDANNOTATIONS>
10  13  8
11  14  8
12  15  1
13  14  8
5  7  8
5  9  8
6  10  8
6  7  8
6  8  8
7  11  8
8  9  8

$$$$

