   Color/Form

     * Needles from ligroin
     * White crystalline powder

   from [1]HSDB

   Boiling Point
        217 deg C
   from [2]HSDB

   Melting Point
        61.5 deg C
   from [3]HSDB

   Density/Specific Gravity
        0.978 g/cu cm at 22 deg C
   from [4]HSDB

   Octanol/Water Partition Coefficient
        log Kow = 1.58
   from [5]HSDB

   Solubilities

     * Very soluble in ether, ethanol
     * In water, 0.063 M (7,710 mg/L) at 25 deg C [Valvani SC et al; J
       Pharm Sci 70: 502-7 (1981)] [6]PubMed Abstract

   from [7]HSDB

   Spectral Properties

     * MASS: 56459 (NIST/EPA/MSDC Mass Spectral Database 1990 version)
     * IR: 9835 (Sadtler Research Laboratories IR grating)
     * 1H NMR: 4523 (Sadtler Research Laboratories Spectral Collection)

   from [8]HSDB

   Vapor Pressure
        0.053 mm Hg at 25 deg C
   from [9]HSDB

   Other Chemical/Physical Properties

     * Henry's Law constant = 1.1X10-6 atm-cu m/mole at 25 deg C (est)
     * Hydroxyl radical reaction rate constant: 9.7X10-12 cu cm/molecule-s
       at 25 deg C (est)

   from [10]HSDB

   Computed Properties
   Molecular Weight                  122.1644 [g/mol]
   Molecular Formula                 C[8]H[10]O
   XLogP3                            1.6
   H-Bond Donor                      1
   H-Bond Acceptor                   1
   Rotatable Bond Count              1
   Exact Mass                        122.073165
   MonoIsotopic Mass                 122.073165
   Topological Polar Surface Area    20.2
   Heavy Atom Count                  9
   Formal Charge                     0
   Complexity                        72.6
   Isotope Atom Count                0
   Defined Atom Stereocenter Count   0
   Undefined Atom Stereocenter Count 0
   Defined Bond Stereocenter Count   0
   Undefined Bond Stereocenter Count 0
   Covalently-Bonded Unit Count      1
   Feature 3D Acceptor Count         1
   Feature 3D Donor Count            1
   Feature 3D Ring Count             1
   Effective Rotor Count             1
   Conformer Sampling RMSD           0.4
   CID Conformer Count               [11]2

References

   1. http://toxnet.nlm.nih.gov/cgi-bin/sis/search/r?dbs+hsdb:@term+@rn+@rel+589-18-4
   2. http://toxnet.nlm.nih.gov/cgi-bin/sis/search/r?dbs+hsdb:@term+@rn+@rel+589-18-4
   3. http://toxnet.nlm.nih.gov/cgi-bin/sis/search/r?dbs+hsdb:@term+@rn+@rel+589-18-4
   4. http://toxnet.nlm.nih.gov/cgi-bin/sis/search/r?dbs+hsdb:@term+@rn+@rel+589-18-4
   5. http://toxnet.nlm.nih.gov/cgi-bin/sis/search/r?dbs+hsdb:@term+@rn+@rel+589-18-4
   6. http://www.ncbi.nlm.nih.gov/entrez/query.fcgi?cmd=Retrieve&db=pubmed&dopt=Abstract&list_uids=7241352
   7. http://toxnet.nlm.nih.gov/cgi-bin/sis/search/r?dbs+hsdb:@term+@rn+@rel+589-18-4
   8. http://toxnet.nlm.nih.gov/cgi-bin/sis/search/r?dbs+hsdb:@term+@rn+@rel+589-18-4
   9. http://toxnet.nlm.nih.gov/cgi-bin/sis/search/r?dbs+hsdb:@term+@rn+@rel+589-18-4
  10. http://toxnet.nlm.nih.gov/cgi-bin/sis/search/r?dbs+hsdb:@term+@rn+@rel+589-18-4
  11. http://pubchem.ncbi.nlm.nih.gov/vw3d/vw3d.cgi?cid=11505
