10815
  -OEChem-06261205002D

 21 21  0     0  0  0  0  0  0999 V2000
    6.0010   -1.9050    0.0000 O   0  0  0  0  0  0  0  0  0  0  0  0
    2.5369    1.0950    0.0000 O   0  0  0  0  0  0  0  0  0  0  0  0
    6.8671   -0.4050    0.0000 O   0  0  0  0  0  0  0  0  0  0  0  0
    4.2690    2.0950    0.0000 N   0  0  0  0  0  0  0  0  0  0  0  0
    5.1350   -0.4050    0.0000 C   0  0  0  0  0  0  0  0  0  0  0  0
    4.2690    1.0950    0.0000 C   0  0  0  0  0  0  0  0  0  0  0  0
    5.1350    0.5950    0.0000 C   0  0  0  0  0  0  0  0  0  0  0  0
    3.4030    0.5950    0.0000 C   0  0  0  0  0  0  0  0  0  0  0  0
    4.2690   -0.9050    0.0000 C   0  0  0  0  0  0  0  0  0  0  0  0
    3.4030   -0.4050    0.0000 C   0  0  0  0  0  0  0  0  0  0  0  0
    6.0010   -0.9050    0.0000 C   0  0  0  0  0  0  0  0  0  0  0  0
    6.8671   -2.4050    0.0000 C   0  0  0  0  0  0  0  0  0  0  0  0
    5.6720    0.9050    0.0000 H   0  0  0  0  0  0  0  0  0  0  0  0
    4.2690   -1.5250    0.0000 H   0  0  0  0  0  0  0  0  0  0  0  0
    2.8660   -0.7150    0.0000 H   0  0  0  0  0  0  0  0  0  0  0  0
    4.8059    2.4050    0.0000 H   0  0  0  0  0  0  0  0  0  0  0  0
    3.7320    2.4050    0.0000 H   0  0  0  0  0  0  0  0  0  0  0  0
    2.0000    0.7850    0.0000 H   0  0  0  0  0  0  0  0  0  0  0  0
    6.5571   -2.9419    0.0000 H   0  0  0  0  0  0  0  0  0  0  0  0
    7.4040   -2.7150    0.0000 H   0  0  0  0  0  0  0  0  0  0  0  0
    7.1771   -1.8681    0.0000 H   0  0  0  0  0  0  0  0  0  0  0  0
  1 11  1  0  0  0  0
  1 12  1  0  0  0  0
  2  8  1  0  0  0  0
  2 18  1  0  0  0  0
  3 11  2  0  0  0  0
  4  6  1  0  0  0  0
  4 16  1  0  0  0  0
  4 17  1  0  0  0  0
  5  7  2  0  0  0  0
  5  9  1  0  0  0  0
  5 11  1  0  0  0  0
  6  7  1  0  0  0  0
  6  8  2  0  0  0  0
  7 13  1  0  0  0  0
  8 10  1  0  0  0  0
  9 10  2  0  0  0  0
  9 14  1  0  0  0  0
 10 15  1  0  0  0  0
 12 19  1  0  0  0  0
 12 20  1  0  0  0  0
 12 21  1  0  0  0  0
M  END
> <PUBCHEM_COMPOUND_CID>
10815

> <PUBCHEM_COMPOUND_CANONICALIZED>
1

> <PUBCHEM_CACTVS_COMPLEXITY>
172

> <PUBCHEM_CACTVS_HBOND_ACCEPTOR>
4

> <PUBCHEM_CACTVS_HBOND_DONOR>
2

> <PUBCHEM_CACTVS_ROTATABLE_BOND>
2

> <PUBCHEM_CACTVS_SUBSKEYS>
AAADccByMAAAAAAAAAAAAAAAAAAAAAAAAAAwAAAAAAAAAAABAAAAHgAQCAAADAyBmAIyzoBABgCIAiTSSACCAAAkIgAIiAEHbMgKJjKStZuAcQBk0BEI+Ye87CzOIAAAQAAAEABAAACAAAAgAAAAAAAAAA==

> <PUBCHEM_IUPAC_OPENEYE_NAME>
methyl 3-amino-4-hydroxy-benzoate

> <PUBCHEM_IUPAC_CAS_NAME>
3-amino-4-hydroxybenzoic acid methyl ester

> <PUBCHEM_IUPAC_NAME>
methyl 3-amino-4-hydroxybenzoate

> <PUBCHEM_IUPAC_SYSTEMATIC_NAME>
methyl 3-azanyl-4-oxidanyl-benzoate

> <PUBCHEM_IUPAC_TRADITIONAL_NAME>
3-amino-4-hydroxy-benzoic acid methyl ester

> <PUBCHEM_IUPAC_INCHI>
InChI=1S/C8H9NO3/c1-12-8(11)5-2-3-7(10)6(9)4-5/h2-4,10H,9H2,1H3

> <PUBCHEM_IUPAC_INCHIKEY>
VNQABZCSYCTZMS-UHFFFAOYSA-N

> <PUBCHEM_XLOGP3>
1

> <PUBCHEM_EXACT_MASS>
167.058243

> <PUBCHEM_MOLECULAR_FORMULA>
C8H9NO3

> <PUBCHEM_MOLECULAR_WEIGHT>
167.16196

> <PUBCHEM_OPENEYE_CAN_SMILES>
COC(=O)C1=CC(=C(C=C1)O)N

> <PUBCHEM_OPENEYE_ISO_SMILES>
COC(=O)C1=CC(=C(C=C1)O)N

> <PUBCHEM_CACTVS_TPSA>
72.6

> <PUBCHEM_MONOISOTOPIC_WEIGHT>
167.058243

> <PUBCHEM_TOTAL_CHARGE>
0

> <PUBCHEM_HEAVY_ATOM_COUNT>
12

> <PUBCHEM_ATOM_DEF_STEREO_COUNT>
0

> <PUBCHEM_ATOM_UDEF_STEREO_COUNT>
0

> <PUBCHEM_BOND_DEF_STEREO_COUNT>
0

> <PUBCHEM_BOND_UDEF_STEREO_COUNT>
0

> <PUBCHEM_ISOTOPIC_ATOM_COUNT>
0

> <PUBCHEM_COMPONENT_COUNT>
1

> <PUBCHEM_CACTVS_TAUTO_COUNT>
9

> <PUBCHEM_COORDINATE_TYPE>
1
5
255

> <PUBCHEM_BONDANNOTATIONS>
5  7  8
5  9  8
6  7  8
6  8  8
8  10  8
9  10  8

$$$$

