4180
  -OEChem-06251223562D

 33 31  0     1  0  0  0  0  0999 V2000
    2.8660    0.2500    0.0000 S   0  5  0  0  0  0  0  0  0  0  0  0
    3.7320   -1.2500    0.0000 S   0  0  0  0  0  0  0  0  0  0  0  0
    2.0000   -0.2500    0.0000 Na  0  3  0  0  0  0  0  0  0  0  0  0
    7.1962   -1.2500    0.0000 O   0  0  0  0  0  0  0  0  0  0  0  0
    8.0622    1.2500    0.0000 O   0  0  0  0  0  0  0  0  0  0  0  0
    6.3301    1.2500    0.0000 O   0  0  0  0  0  0  0  0  0  0  0  0
    8.9282   -1.2500    0.0000 O   0  0  0  0  0  0  0  0  0  0  0  0
   10.6603   -0.2500    0.0000 O   0  0  0  0  0  0  0  0  0  0  0  0
    4.5981    0.2500    0.0000 N   0  0  0  0  0  0  0  0  0  0  0  0
    7.1962   -0.2500    0.0000 C   0  0  3  0  0  0  0  0  0  0  0  0
    8.0622    0.2500    0.0000 C   0  0  3  0  0  0  0  0  0  0  0  0
    6.3301    0.2500    0.0000 C   0  0  3  0  0  0  0  0  0  0  0  0
    8.9282   -0.2500    0.0000 C   0  0  3  0  0  0  0  0  0  0  0  0
    5.4641   -0.2500    0.0000 C   0  0  0  0  0  0  0  0  0  0  0  0
    9.7942    0.2500    0.0000 C   0  0  0  0  0  0  0  0  0  0  0  0
    4.5981    1.2500    0.0000 C   0  0  0  0  0  0  0  0  0  0  0  0
    3.7320   -0.2500    0.0000 C   0  0  0  0  0  0  0  0  0  0  0  0
    6.4600   -0.6750    0.0000 H   0  0  0  0  0  0  0  0  0  0  0  0
    7.3261    0.6750    0.0000 H   0  0  0  0  0  0  0  0  0  0  0  0
    7.0662    0.6750    0.0000 H   0  0  0  0  0  0  0  0  0  0  0  0
    9.6643   -0.6750    0.0000 H   0  0  0  0  0  0  0  0  0  0  0  0
    5.0656   -0.7249    0.0000 H   0  0  0  0  0  0  0  0  0  0  0  0
    5.8626   -0.7249    0.0000 H   0  0  0  0  0  0  0  0  0  0  0  0
   10.1928    0.7249    0.0000 H   0  0  0  0  0  0  0  0  0  0  0  0
    9.3957    0.7249    0.0000 H   0  0  0  0  0  0  0  0  0  0  0  0
    6.6592   -1.5600    0.0000 H   0  0  0  0  0  0  0  0  0  0  0  0
    8.5991    1.5600    0.0000 H   0  0  0  0  0  0  0  0  0  0  0  0
    5.7932    1.5600    0.0000 H   0  0  0  0  0  0  0  0  0  0  0  0
    9.4651   -1.5600    0.0000 H   0  0  0  0  0  0  0  0  0  0  0  0
    5.2181    1.2500    0.0000 H   0  0  0  0  0  0  0  0  0  0  0  0
    4.5981    1.8700    0.0000 H   0  0  0  0  0  0  0  0  0  0  0  0
    3.9781    1.2500    0.0000 H   0  0  0  0  0  0  0  0  0  0  0  0
   11.1972    0.0600    0.0000 H   0  0  0  0  0  0  0  0  0  0  0  0
  1 17  1  0  0  0  0
  2 17  2  0  0  0  0
  4 10  1  0  0  0  0
  4 26  1  0  0  0  0
  5 11  1  0  0  0  0
  5 27  1  0  0  0  0
  6 12  1  0  0  0  0
  6 28  1  0  0  0  0
  7 13  1  0  0  0  0
  7 29  1  0  0  0  0
  8 15  1  0  0  0  0
  8 33  1  0  0  0  0
  9 14  1  0  0  0  0
  9 16  1  0  0  0  0
  9 17  1  0  0  0  0
 10 11  1  0  0  0  0
 10 12  1  0  0  0  0
 10 18  1  0  0  0  0
 11 13  1  0  0  0  0
 11 19  1  0  0  0  0
 12 14  1  0  0  0  0
 12 20  1  0  0  0  0
 13 15  1  0  0  0  0
 13 21  1  0  0  0  0
 14 22  1  0  0  0  0
 14 23  1  0  0  0  0
 15 24  1  0  0  0  0
 15 25  1  0  0  0  0
 16 30  1  0  0  0  0
 16 31  1  0  0  0  0
 16 32  1  0  0  0  0
M  CHG  2   1  -1   3   1
M  END
> <PUBCHEM_COMPOUND_CID>
4180

> <PUBCHEM_COMPOUND_CANONICALIZED>
1

> <PUBCHEM_CACTVS_COMPLEXITY>
236

> <PUBCHEM_CACTVS_HBOND_ACCEPTOR>
7

> <PUBCHEM_CACTVS_HBOND_DONOR>
5

> <PUBCHEM_CACTVS_ROTATABLE_BOND>
6

> <PUBCHEM_CACTVS_SUBSKEYS>
AAADceByOCBgAAAAAAAAAAAAAAAAAAAAAAAAAAAAAAAAAAAAAAAAHgQACAAACBThgAYCAAMAAgAEAAAAAAAAAAAAAAgAAAAIAAADEAIAgAAEQAAHAAARAAHwcAYAAAAAAAAAAAAAAAAAAAAAAAAAAAAAAA==

> <PUBCHEM_IUPAC_OPENEYE_NAME>
sodium N-methyl-N-(2,3,4,5,6-pentahydroxyhexyl)carbamodithioate

> <PUBCHEM_IUPAC_CAS_NAME>
sodium N-methyl-N-(2,3,4,5,6-pentahydroxyhexyl)carbamodithioate

> <PUBCHEM_IUPAC_NAME>
sodium N-methyl-N-(2,3,4,5,6-pentahydroxyhexyl)carbamodithioate

> <PUBCHEM_IUPAC_SYSTEMATIC_NAME>
sodium N-methyl-N-[2,3,4,5,6-pentakis(oxidanyl)hexyl]carbamodithioate

> <PUBCHEM_IUPAC_TRADITIONAL_NAME>
sodium N-methyl-N-(2,3,4,5,6-pentahydroxyhexyl)carbamodithioate

> <PUBCHEM_IUPAC_INCHI>
InChI=1S/C8H17NO5S2.Na/c1-9(8(15)16)2-4(11)6(13)7(14)5(12)3-10;/h4-7,10-14H,2-3H2,1H3,(H,15,16);/q;+1/p-1

> <PUBCHEM_IUPAC_INCHIKEY>
PLQRBFAACWRSKF-UHFFFAOYSA-M

> <PUBCHEM_EXACT_MASS>
293.036759

> <PUBCHEM_MOLECULAR_FORMULA>
C8H16NNaO5S2

> <PUBCHEM_MOLECULAR_WEIGHT>
293.336109

> <PUBCHEM_OPENEYE_CAN_SMILES>
CN(CC(C(C(C(CO)O)O)O)O)C(=S)[S-].[Na+]

> <PUBCHEM_OPENEYE_ISO_SMILES>
CN(CC(C(C(C(CO)O)O)O)O)C(=S)[S-].[Na+]

> <PUBCHEM_CACTVS_TPSA>
138

> <PUBCHEM_MONOISOTOPIC_WEIGHT>
293.036759

> <PUBCHEM_TOTAL_CHARGE>
0

> <PUBCHEM_HEAVY_ATOM_COUNT>
17

> <PUBCHEM_ATOM_DEF_STEREO_COUNT>
0

> <PUBCHEM_ATOM_UDEF_STEREO_COUNT>
4

> <PUBCHEM_BOND_DEF_STEREO_COUNT>
0

> <PUBCHEM_BOND_UDEF_STEREO_COUNT>
0

> <PUBCHEM_ISOTOPIC_ATOM_COUNT>
0

> <PUBCHEM_COMPONENT_COUNT>
2

> <PUBCHEM_CACTVS_TAUTO_COUNT>
1

> <PUBCHEM_NONSTANDARDBOND>
1  3  7

> <PUBCHEM_COORDINATE_TYPE>
1
5
255

> <PUBCHEM_BONDANNOTATIONS>
10  18  3
11  19  3
12  20  3
13  21  3

$$$$

