   Color/Form

     * Leaflets from dilute alcohol
     * COLORLESS LIQ AT ROOM TEMP; CRYSTALLINE OR FLAKES BELOW 20 DEG C
     * Colorless solid

   from [1]HSDB

   Odor

     * CHARACTERISTIC FATTY ODOR; UNPLEASANT AT HIGH CONCN BUT DELICATE &
       FLORAL ON DILUTION
     * Fatty repulsive odor

   from [2]HSDB

   Taste
        FATTY, WAXY FLAVOR
   from [3]HSDB

   Boiling Point
        259 deg C at 760 mm Hg
   from [4]HSDB

   Melting Point
        24 deg C
   from [5]HSDB

   Critical Temperature and Pressure
        Critical temp = 721.00 deg K; Critical pressure = 1.9300X10+6 Pa
   from [6]HSDB

   Density/Specific Gravity
        0.8309 at 24 deg C/4 deg C
   from [7]HSDB

   Heat of Combustion
        -7.3380x10+9 J/kmol
   from [8]HSDB

   Heat of Vaporization
        8.7823x10+7 J/kmol
   from [9]HSDB

   Octanol/Water Partition Coefficient
        log Kow = 5.13
   from [10]HSDB

   Solubilities

     * Soluble in ethanol, ether; very soluble in benzene
     * Soluble in two parts of 70% alcohol
     * In water, 4 mg/L at 25 deg C

   from [11]HSDB

   Spectral Properties

     * INDEX OF REFRACTION: 1.4400-1.4440 AT 20 DEG C/D
     * SADTLER REFERENCE NUMBER: 1492 (IR, PRISM)
     * IR: 251 (Sadtler Research Laboratories IR Grating Collection)
     * 1H NMR: 103 (Sadtler Research Laboratories Spectral Collection)
     * Raman: 612 (Sadtler Research Laboratories Spectral Collection)
     * MASS: 63858 (NIST/EPA/MSDC Mass Spectral database, 1990 version):
       1002 (National Bureau of Standards)

   from [12]HSDB

   Surface Tension
        0.029493 N/m at melting point
   from [13]HSDB

   Vapor Density
        6.43 (AIR= 1)
   from [14]HSDB

   Vapor Pressure
        8.48X10-4 mm Hg at 25 deg C
   from [15]HSDB

   Viscosity
        18.8 mPa-s at 20 deg C
   from [16]HSDB

   Other Chemical/Physical Properties

     * BP: 235.7 deg C at 400 mm Hg; 213 deg C at 200 mm Hg; 192 deg C at
       100 mm Hg; 177.8 deg C at 60 mm Hg; 167.2 deg C at 40 mm Hg; 150
       deg C at 20 mm Hg; 134.7 deg C at 10 mm Hg; 120.2 deg C at 5 mm Hg;
       91.0 deg C at 1.0 mm Hg
     * Congealing point greater than 21 deg C; acid value not more than 1
     * CONVERSION FACTORS: 1 MG/L= 131.3 PPM; 1 PPM= 7.62 MG/CU M @ 25 DEG
       C, 760 MM HG
     * Liquid molar volume = 0.224405 cu m/kmol
     * Heat of formation = -4.4426X10+8 J/kmol
     * Heat of fusion = 3.1380X10+7 J/kmol (at melting pt)
     * Henry's Law constant = 2.22X10-5 atm-cu m/mol at 25 deg C
     * Hydroxyl radical reaction rate constant = 1.8X10-11 cu cm/molec-sec
       at 25 deg C (est)

   from [17]HSDB

   Computed Properties
   Molecular Weight                  186.33424 [g/mol]
   Molecular Formula                 C[12]H[26]O
   XLogP3                            5.1
   H-Bond Donor                      1
   H-Bond Acceptor                   1
   Rotatable Bond Count              10
   Exact Mass                        186.198365
   MonoIsotopic Mass                 186.198365
   Topological Polar Surface Area    20.2
   Heavy Atom Count                  13
   Formal Charge                     0
   Complexity                        81.2
   Isotope Atom Count                0
   Defined Atom Stereocenter Count   0
   Undefined Atom Stereocenter Count 0
   Defined Bond Stereocenter Count   0
   Undefined Bond Stereocenter Count 0
   Covalently-Bonded Unit Count      1
   Feature 3D Acceptor Count         1
   Feature 3D Donor Count            1
   Feature 3D Hydrophobe Count       1
   Effective Rotor Count             10
   Conformer Sampling RMSD           1
   CID Conformer Count               [18]139

References

   1. http://toxnet.nlm.nih.gov/cgi-bin/sis/search/r?dbs+hsdb:@term+@rn+@rel+112-53-8
   2. http://toxnet.nlm.nih.gov/cgi-bin/sis/search/r?dbs+hsdb:@term+@rn+@rel+112-53-8
   3. http://toxnet.nlm.nih.gov/cgi-bin/sis/search/r?dbs+hsdb:@term+@rn+@rel+112-53-8
   4. http://toxnet.nlm.nih.gov/cgi-bin/sis/search/r?dbs+hsdb:@term+@rn+@rel+112-53-8
   5. http://toxnet.nlm.nih.gov/cgi-bin/sis/search/r?dbs+hsdb:@term+@rn+@rel+112-53-8
   6. http://toxnet.nlm.nih.gov/cgi-bin/sis/search/r?dbs+hsdb:@term+@rn+@rel+112-53-8
   7. http://toxnet.nlm.nih.gov/cgi-bin/sis/search/r?dbs+hsdb:@term+@rn+@rel+112-53-8
   8. http://toxnet.nlm.nih.gov/cgi-bin/sis/search/r?dbs+hsdb:@term+@rn+@rel+112-53-8
   9. http://toxnet.nlm.nih.gov/cgi-bin/sis/search/r?dbs+hsdb:@term+@rn+@rel+112-53-8
  10. http://toxnet.nlm.nih.gov/cgi-bin/sis/search/r?dbs+hsdb:@term+@rn+@rel+112-53-8
  11. http://toxnet.nlm.nih.gov/cgi-bin/sis/search/r?dbs+hsdb:@term+@rn+@rel+112-53-8
  12. http://toxnet.nlm.nih.gov/cgi-bin/sis/search/r?dbs+hsdb:@term+@rn+@rel+112-53-8
  13. http://toxnet.nlm.nih.gov/cgi-bin/sis/search/r?dbs+hsdb:@term+@rn+@rel+112-53-8
  14. http://toxnet.nlm.nih.gov/cgi-bin/sis/search/r?dbs+hsdb:@term+@rn+@rel+112-53-8
  15. http://toxnet.nlm.nih.gov/cgi-bin/sis/search/r?dbs+hsdb:@term+@rn+@rel+112-53-8
  16. http://toxnet.nlm.nih.gov/cgi-bin/sis/search/r?dbs+hsdb:@term+@rn+@rel+112-53-8
  17. http://toxnet.nlm.nih.gov/cgi-bin/sis/search/r?dbs+hsdb:@term+@rn+@rel+112-53-8
  18. http://pubchem.ncbi.nlm.nih.gov/vw3d/vw3d.cgi?cid=8193
