442124
  -OEChem-07051212572D

103115  0     1  0  0  0  0  0999 V2000
    6.2981   -0.1699    0.0000 O   0  0  0  0  0  0  0  0  0  0  0  0
    6.3556    1.4136    0.0000 O   0  0  0  0  0  0  0  0  0  0  0  0
    2.6039    1.7124    0.0000 O   0  0  0  0  0  0  0  0  0  0  0  0
    6.4965   -4.9194    0.0000 O   0  0  0  0  0  0  0  0  0  0  0  0
    8.1907    4.7774    0.0000 O   0  0  0  0  0  0  0  0  0  0  0  0
    9.9227    4.7907    0.0000 O   0  0  0  0  0  0  0  0  0  0  0  0
    6.4260   -1.3474    0.0000 N   0  0  3  0  0  0  0  0  0  0  0  0
    2.9061   -1.3474    0.0000 N   0  0  3  0  0  0  0  0  0  0  0  0
    9.0641    0.2148    0.0000 N   0  0  3  0  0  0  0  0  0  0  0  0
   10.9591    3.0804    0.0000 N   0  0  0  0  0  0  0  0  0  0  0  0
    4.6660   -1.3127    0.0000 C   0  0  2  0  0  0  0  0  0  0  0  0
    5.5321   -0.8127    0.0000 C   0  0  1  0  0  0  0  0  0  0  0  0
    3.8000   -0.8127    0.0000 C   0  0  2  0  0  0  0  0  0  0  0  0
    3.8000    0.1873    0.0000 C   0  0  2  0  0  0  0  0  0  0  0  0
    5.5321    0.1873    0.0000 C   0  0  1  0  0  0  0  0  0  0  0  0
    7.3321    0.2081    0.0000 C   0  0  1  0  0  0  0  0  0  0  0  0
    4.6660    0.6873    0.0000 C   0  0  0  0  0  0  0  0  0  0  0  0
    6.4260    0.7220    0.0000 C   0  0  0  0  0  0  0  0  0  0  0  0
    8.1923    1.7114    0.0000 C   0  0  1  0  0  0  0  0  0  0  0  0
    7.3282    1.2081    0.0000 C   0  0  1  0  0  0  0  0  0  0  0  0
    9.0602    1.2148    0.0000 C   0  0  1  0  0  0  0  0  0  0  0  0
    7.3321   -0.8335    0.0000 C   0  0  0  0  0  0  0  0  0  0  0  0
    4.3009   -2.2370    0.0000 C   0  0  0  0  0  0  0  0  0  0  0  0
    2.9061    0.7220    0.0000 C   0  0  2  0  0  0  0  0  0  0  0  0
    8.2000   -0.2885    0.0000 C   0  0  0  0  0  0  0  0  0  0  0  0
    5.0312   -2.2370    0.0000 C   0  0  0  0  0  0  0  0  0  0  0  0
    9.9683    1.7251    0.0000 C   0  0  2  0  0  0  0  0  0  0  0  0
    4.1326    1.1679    0.0000 C   0  0  0  0  0  0  0  0  0  0  0  0
    3.3073   -2.2566    0.0000 C   0  0  0  0  0  0  0  0  0  0  0  0
    6.0248   -2.2566    0.0000 C   0  0  0  0  0  0  0  0  0  0  0  0
    2.0000   -0.8335    0.0000 C   0  0  0  0  0  0  0  0  0  0  0  0
    2.0000    0.2081    0.0000 C   0  0  0  0  0  0  0  0  0  0  0  0
    7.5224    2.4459    0.0000 C   0  0  0  0  0  0  0  0  0  0  0  0
    8.1722    2.7529    0.0000 C   0  0  0  0  0  0  0  0  0  0  0  0
   10.5582    0.9253    0.0000 C   0  0  0  0  0  0  0  0  0  0  0  0
   10.0477    0.0726    0.0000 C   0  0  0  0  0  0  0  0  0  0  0  0
    3.3776    2.0480    0.0000 C   0  0  0  0  0  0  0  0  0  0  0  0
    9.9723    2.7668    0.0000 C   0  0  0  0  0  0  0  0  0  0  0  0
    6.4324    2.2196    0.0000 C   0  0  0  0  0  0  0  0  0  0  0  0
    9.0682    3.2841    0.0000 C   0  0  0  0  0  0  0  0  0  0  0  0
   10.9527    1.4039    0.0000 C   0  0  0  0  0  0  0  0  0  0  0  0
    4.4824   -3.1148    0.0000 C   0  0  0  0  0  0  0  0  0  0  0  0
    6.5385   -3.1553    0.0000 C   0  0  0  0  0  0  0  0  0  0  0  0
   11.5638    2.2398    0.0000 C   0  0  0  0  0  0  0  0  0  0  0  0
    4.9752   -4.0251    0.0000 C   0  0  0  0  0  0  0  0  0  0  0  0
    6.0102   -4.0455    0.0000 C   0  0  0  0  0  0  0  0  0  0  0  0
   11.3732    0.4107    0.0000 C   0  0  0  0  0  0  0  0  0  0  0  0
    9.0605    4.2841    0.0000 C   0  0  0  0  0  0  0  0  0  0  0  0
   12.6378    2.1404    0.0000 C   0  0  0  0  0  0  0  0  0  0  0  0
   12.4446    0.2865    0.0000 C   0  0  0  0  0  0  0  0  0  0  0  0
   13.0811    1.1572    0.0000 C   0  0  0  0  0  0  0  0  0  0  0  0
    5.9828   -5.7774    0.0000 C   0  0  0  0  0  0  0  0  0  0  0  0
    8.1830    5.7774    0.0000 C   0  0  0  0  0  0  0  0  0  0  0  0
    3.0639   -0.3877    0.0000 H   0  0  0  0  0  0  0  0  0  0  0  0
    5.5255    1.0373    0.0000 H   0  0  0  0  0  0  0  0  0  0  0  0
    5.0646    1.1623    0.0000 H   0  0  0  0  0  0  0  0  0  0  0  0
    4.2675    1.1623    0.0000 H   0  0  0  0  0  0  0  0  0  0  0  0
    6.8196    1.2010    0.0000 H   0  0  0  0  0  0  0  0  0  0  0  0
    6.0214    1.1918    0.0000 H   0  0  0  0  0  0  0  0  0  0  0  0
    6.6690    0.6715    0.0000 H   0  0  0  0  0  0  0  0  0  0  0  0
    9.0570    2.0648    0.0000 H   0  0  0  0  0  0  0  0  0  0  0  0
    7.5411   -1.4172    0.0000 H   0  0  0  0  0  0  0  0  0  0  0  0
    7.9429   -0.7274    0.0000 H   0  0  0  0  0  0  0  0  0  0  0  0
    4.2315   -2.8531    0.0000 H   0  0  0  0  0  0  0  0  0  0  0  0
    4.9025   -2.3869    0.0000 H   0  0  0  0  0  0  0  0  0  0  0  0
    2.1165    1.0368    0.0000 H   0  0  0  0  0  0  0  0  0  0  0  0
    7.8033   -0.7650    0.0000 H   0  0  0  0  0  0  0  0  0  0  0  0
    8.6004   -0.7619    0.0000 H   0  0  0  0  0  0  0  0  0  0  0  0
    4.6751    0.8678    0.0000 H   0  0  0  0  0  0  0  0  0  0  0  0
    4.5241    1.6486    0.0000 H   0  0  0  0  0  0  0  0  0  0  0  0
    2.7121   -2.4301    0.0000 H   0  0  0  0  0  0  0  0  0  0  0  0
    3.4010   -2.8695    0.0000 H   0  0  0  0  0  0  0  0  0  0  0  0
    1.3891   -0.7274    0.0000 H   0  0  0  0  0  0  0  0  0  0  0  0
    1.7909   -1.4172    0.0000 H   0  0  0  0  0  0  0  0  0  0  0  0
    8.0473    2.7759    0.0000 H   0  0  0  0  0  0  0  0  0  0  0  0
    7.2907    3.0210    0.0000 H   0  0  0  0  0  0  0  0  0  0  0  0
    1.7909    0.7918    0.0000 H   0  0  0  0  0  0  0  0  0  0  0  0
    1.3891    0.1020    0.0000 H   0  0  0  0  0  0  0  0  0  0  0  0
    7.9520    3.3324    0.0000 H   0  0  0  0  0  0  0  0  0  0  0  0
    7.5635    2.6350    0.0000 H   0  0  0  0  0  0  0  0  0  0  0  0
   11.0436    0.5396    0.0000 H   0  0  0  0  0  0  0  0  0  0  0  0
   11.0044    1.3558    0.0000 H   0  0  0  0  0  0  0  0  0  0  0  0
    9.8790   -0.5240    0.0000 H   0  0  0  0  0  0  0  0  0  0  0  0
   10.6169   -0.1731    0.0000 H   0  0  0  0  0  0  0  0  0  0  0  0
    6.8807   -0.3820    0.0000 H   0  0  0  0  0  0  0  0  0  0  0  0
    3.8861    2.4027    0.0000 H   0  0  0  0  0  0  0  0  0  0  0  0
    3.0754    2.5893    0.0000 H   0  0  0  0  0  0  0  0  0  0  0  0
    6.3676    2.8362    0.0000 H   0  0  0  0  0  0  0  0  0  0  0  0
    5.8125    2.2166    0.0000 H   0  0  0  0  0  0  0  0  0  0  0  0
    3.8627   -3.0954    0.0000 H   0  0  0  0  0  0  0  0  0  0  0  0
    7.1585   -3.1603    0.0000 H   0  0  0  0  0  0  0  0  0  0  0  0
   11.1540    3.6690    0.0000 H   0  0  0  0  0  0  0  0  0  0  0  0
    4.6527   -4.5546    0.0000 H   0  0  0  0  0  0  0  0  0  0  0  0
   11.0015   -0.0855    0.0000 H   0  0  0  0  0  0  0  0  0  0  0  0
   12.9979    2.6451    0.0000 H   0  0  0  0  0  0  0  0  0  0  0  0
   12.6928   -0.2816    0.0000 H   0  0  0  0  0  0  0  0  0  0  0  0
   13.6978    1.0929    0.0000 H   0  0  0  0  0  0  0  0  0  0  0  0
    5.4508   -5.4589    0.0000 H   0  0  0  0  0  0  0  0  0  0  0  0
    5.6643   -6.3093    0.0000 H   0  0  0  0  0  0  0  0  0  0  0  0
    6.5148   -6.0958    0.0000 H   0  0  0  0  0  0  0  0  0  0  0  0
    8.8029    5.7821    0.0000 H   0  0  0  0  0  0  0  0  0  0  0  0
    8.1782    6.3973    0.0000 H   0  0  0  0  0  0  0  0  0  0  0  0
    7.5630    5.7726    0.0000 H   0  0  0  0  0  0  0  0  0  0  0  0
 12  1  1  1  0  0  0
  1 85  1  0  0  0  0
  2 20  1  0  0  0  0
  2 39  1  0  0  0  0
  3 24  1  0  0  0  0
  3 37  1  0  0  0  0
  4 46  1  0  0  0  0
  4 52  1  0  0  0  0
  5 48  1  0  0  0  0
  5 53  1  0  0  0  0
  6 48  2  0  0  0  0
  7 12  1  0  0  0  0
  7 22  1  0  0  0  0
  7 30  1  0  0  0  0
  8 13  1  0  0  0  0
  8 29  1  0  0  0  0
  8 31  1  0  0  0  0
  9 21  1  0  0  0  0
  9 25  1  0  0  0  0
  9 36  1  0  0  0  0
 10 38  1  0  0  0  0
 10 44  1  0  0  0  0
 10 92  1  0  0  0  0
 11 12  1  0  0  0  0
 11 13  1  0  0  0  0
 11 23  1  1  0  0  0
 11 26  1  0  0  0  0
 12 15  1  0  0  0  0
 13 14  1  0  0  0  0
 13 54  1  6  0  0  0
 14 17  1  1  0  0  0
 14 24  1  0  0  0  0
 14 28  1  0  0  0  0
 15 17  1  0  0  0  0
 15 18  1  0  0  0  0
 15 55  1  6  0  0  0
 16 18  1  6  0  0  0
 16 20  1  0  0  0  0
 16 22  1  0  0  0  0
 16 25  1  0  0  0  0
 17 56  1  0  0  0  0
 17 57  1  0  0  0  0
 18 58  1  0  0  0  0
 18 59  1  0  0  0  0
 19 20  1  0  0  0  0
 19 21  1  0  0  0  0
 19 33  1  6  0  0  0
 19 34  1  0  0  0  0
 20 60  1  1  0  0  0
 21 27  1  0  0  0  0
 21 61  1  6  0  0  0
 22 62  1  0  0  0  0
 22 63  1  0  0  0  0
 23 29  1  0  0  0  0
 23 64  1  0  0  0  0
 23 65  1  0  0  0  0
 24 32  1  0  0  0  0
 24 66  1  1  0  0  0
 25 67  1  0  0  0  0
 25 68  1  0  0  0  0
 26 30  2  0  0  0  0
 26 42  1  0  0  0  0
 27 35  1  1  0  0  0
 27 38  1  0  0  0  0
 27 41  1  0  0  0  0
 28 37  1  0  0  0  0
 28 69  1  0  0  0  0
 28 70  1  0  0  0  0
 29 71  1  0  0  0  0
 29 72  1  0  0  0  0
 30 43  1  0  0  0  0
 31 32  1  0  0  0  0
 31 73  1  0  0  0  0
 31 74  1  0  0  0  0
 32 77  1  0  0  0  0
 32 78  1  0  0  0  0
 33 39  1  0  0  0  0
 33 75  1  0  0  0  0
 33 76  1  0  0  0  0
 34 40  1  0  0  0  0
 34 79  1  0  0  0  0
 34 80  1  0  0  0  0
 35 36  1  0  0  0  0
 35 81  1  0  0  0  0
 35 82  1  0  0  0  0
 36 83  1  0  0  0  0
 36 84  1  0  0  0  0
 37 86  1  0  0  0  0
 37 87  1  0  0  0  0
 38 40  2  0  0  0  0
 39 88  1  0  0  0  0
 39 89  1  0  0  0  0
 40 48  1  0  0  0  0
 41 44  1  0  0  0  0
 41 47  2  0  0  0  0
 42 45  2  0  0  0  0
 42 90  1  0  0  0  0
 43 46  2  0  0  0  0
 43 91  1  0  0  0  0
 44 49  2  0  0  0  0
 45 46  1  0  0  0  0
 45 93  1  0  0  0  0
 47 50  1  0  0  0  0
 47 94  1  0  0  0  0
 49 51  1  0  0  0  0
 49 95  1  0  0  0  0
 50 51  2  0  0  0  0
 50 96  1  0  0  0  0
 51 97  1  0  0  0  0
 52 98  1  0  0  0  0
 52 99  1  0  0  0  0
 52100  1  0  0  0  0
 53101  1  0  0  0  0
 53102  1  0  0  0  0
 53103  1  0  0  0  0
M  END
> <PUBCHEM_COMPOUND_CID>
442124

> <PUBCHEM_COMPOUND_CANONICALIZED>
1

> <PUBCHEM_CACTVS_COMPLEXITY>
1680

> <PUBCHEM_CACTVS_HBOND_ACCEPTOR>
10

> <PUBCHEM_CACTVS_HBOND_DONOR>
2

> <PUBCHEM_CACTVS_ROTATABLE_BOND>
3

> <PUBCHEM_CACTVS_SUBSKEYS>
AAADcfB/uAAAAAAAAAAAAAAAAAAAAWLFixI8ePECAAAAAFixQAAAHgAQCAAADzzhmAYyzoPABgCIAiTSSACCCAAhIgAIiAEObMgMJjLE8ZuGcChm0BnI6Ue4/f/foAAAAgACAABQAAQECBQAAAAAAAAAAA==

> <PUBCHEM_IUPAC_INCHI>
InChI=1S/C43H50N4O6/c1-50-26-7-8-29-31(19-26)47-24-38(20-25-21-39-12-17-52-32(39)9-14-45-16-11-42(29,36(39)45)43(25,47)49)23-46-15-10-41-28-5-3-4-6-30(28)44-33(41)27(34(48)51-2)22-40(35(41)46)13-18-53-37(38)40/h3-8,19,25,32,35-37,44,49H,9-18,20-24H2,1-2H3/t25-,32+,35+,36+,37+,38+,39-,40+,41+,42-,43-/m1/s1

> <PUBCHEM_IUPAC_INCHIKEY>
HNAWUCZREFEKSY-AYMSGDPDSA-N

> <PUBCHEM_XLOGP3_AA>
4

> <PUBCHEM_EXACT_MASS>
718.373035

> <PUBCHEM_MOLECULAR_FORMULA>
C43H50N4O6

> <PUBCHEM_MOLECULAR_WEIGHT>
718.8803

> <PUBCHEM_OPENEYE_CAN_SMILES>
COC1=CC2=C(C=C1)C34CCN5C3C6(CCOC6CC5)CC7C4(N2CC8(C7)CN9CCC12C9C3(C8OCC3)CC(=C1NC1=CC=CC=C21)C(=O)OC)O

> <PUBCHEM_OPENEYE_ISO_SMILES>
COC1=CC2=C(C=C1)[C@]34CCN5[C@H]3[C@]6(CCO[C@H]6CC5)C[C@@H]7[C@@]4(N2C[C@]8(C7)CN9CC[C@@]12[C@@H]9[C@@]3([C@H]8OCC3)CC(=C1NC1=CC=CC=C21)C(=O)OC)O

> <PUBCHEM_CACTVS_TPSA>
96

> <PUBCHEM_MONOISOTOPIC_WEIGHT>
718.373035

> <PUBCHEM_TOTAL_CHARGE>
0

> <PUBCHEM_HEAVY_ATOM_COUNT>
53

> <PUBCHEM_ATOM_DEF_STEREO_COUNT>
11

> <PUBCHEM_ATOM_UDEF_STEREO_COUNT>
0

> <PUBCHEM_BOND_DEF_STEREO_COUNT>
0

> <PUBCHEM_BOND_UDEF_STEREO_COUNT>
0

> <PUBCHEM_ISOTOPIC_ATOM_COUNT>
0

> <PUBCHEM_COMPONENT_COUNT>
1

> <PUBCHEM_CACTVS_TAUTO_COUNT>
3

> <PUBCHEM_COORDINATE_TYPE>
1
5
255

> <PUBCHEM_BONDANNOTATIONS>
12  1  5
11  23  5
13  54  6
14  17  5
15  55  6
16  18  6
19  33  6
20  60  5
21  61  6
24  66  5
26  30  8
26  42  8
27  35  5
30  43  8
41  44  8
41  47  8
42  45  8
43  46  8
44  49  8
45  46  8
47  50  8
49  51  8
50  51  8

$$$$

