   Color/Form

     * Colorless to yellowish, oily liquid
     * VISCOUS LIQUID
     * Solventy, rubbery

   from [1]HSDB

   Odor

     * Extremely penetrating
     * An aromatic odor
     * Sweet, floral odor
     * If pure, sweet and pleasant, but usually contains aldehydes that
       have a typical penetrating smell, sharp, sweet, and unpleasant.

   from [2]HSDB

   Boiling Point
        145 deg C
   from [3]HSDB

   Melting Point
        -31 deg C
   from [4]HSDB

   Corrosivity
        Styrene will corrode copper and copper alloys
   from [5]HSDB

   Critical Temperature and Pressure
        Critical temperature: 363.7 deg C; Critical pressure: 36.3 atm
   from [6]HSDB

   Density/Specific Gravity
        0.9060 @ 20 deg C
   from [7]HSDB

   Heat of Combustion
        -4,395.63 kJ/mol @ 25 deg C
   from [8]HSDB

   Heat of Vaporization
        10.50 kcal/mol @ 25 deg C
   from [9]HSDB

   Octanol/Water Partition Coefficient
        log Kow = 2.95
   from [10]HSDB

   Solubilities

     * Sol in carbon disulfide, alcohol, ether, methanol, acetone
     * SOL IN ALL PROPORTIONS IN BENZENE & PETROLEUM ETHER
     * Soluble in ... toluene, ethanol, n-heptane, carbon tetrachloride
       ...
     * In water, 310 mg/l @ 25 deg C

   from [11]HSDB

   Spectral Properties

     * Index of refraction: 1.5468 @ 20 deg C
     * MAX ABSORPTION (ALCOHOL): 245.3 NM (LOG E= 4.18)
     * IR: 81 (Sadtler Research Laboratories IR Grating Collection)
     * UV: 94 (Sadtler Research Laboratories Spectral Collection)
     * NMR: 6408 (Sadtler Research Laboratories Spectral Collection)
     * MASS: 53473 (NIST/EPA/MSDC Mass Spec Database, 1990 version); 312
       (Atlas of Mass Spectral Data, John Wiley & Sons, NY)

   from [12]HSDB

   Surface Tension
        32.3 dynes/cm @ 20 deg C
   from [13]HSDB

   Vapor Density
        3.6 (air = 1)
   from [14]HSDB

   Vapor Pressure
        6.40 mm Hg @ 25 deg C
   from [15]HSDB

   Viscosity
        0.696 cP @ 25 deg C
   from [16]HSDB

   Other Chemical/Physical Properties

     * PERCENT IN SATURATED AIR AT 760 MM HG & 15 DEG C, 0.57; DENSITY OF
       SATURATED VAPOR-AIR MIXTURE AT 760 MM HG & 15 DEG C, 1.02 (AIR= 1)
     * Heat of polymerization: -154 cal/g (-6.35X10+5 J/kg)
     * Styrene dissolves rubber
     * Latent heat of fusion: 10.95 kJ/mole (at melting point); Latent
       heat of sublimation: 43.9 kJ/mole (25 deg C); Heat of formation:
       103.8 kJ/mole (25 deg C); Ionization potential: 8.42 eV
     * When heated to 200 deg it is converted into polymer, polystyrene,
       which is clear plastic having excellent insulating properties even
       at ultrahigh radio frequencies.
     * Enthalpy, 24.83 kcal/mol (liquid), 35.22 kcal/mol (gas); Gibbs
       (free) energy of formation, 48.37 kcal/mol (liquid), 51.10 kcal/mol
       (gas); entropy, 56.78 cal/deg/mol (liquid), 82.48 cal/deg/mol
       (gas); heat capacity, 43.64 cal/deg/mol (liquid), 29.18 cal/deg/mol
       (gas)
     * Liquid molar volume = 0.115714 cu m/kmol; Heat of formation =
       1.4736E+08 J/kmol; Heat of fusion at melting pt = 1.0950E+07 J/kmol
     * Henry's Law constant = 0.00275 atm cu m/mole @ 25 deg C
     * Hydroxyl radical reaction rate constant = 5.8X10-11 cu
       cm/molecule-sec @ 25 deg C

   from [17]HSDB

   Computed Properties
   Molecular Weight                  104.14912 [g/mol]
   Molecular Formula                 C[8]H[8]
   XLogP3                            2.9
   H-Bond Donor                      0
   H-Bond Acceptor                   0
   Rotatable Bond Count              1
   Exact Mass                        104.0626
   MonoIsotopic Mass                 104.0626
   Topological Polar Surface Area    0
   Heavy Atom Count                  8
   Formal Charge                     0
   Complexity                        68.1
   Isotope Atom Count                0
   Defined Atom Stereocenter Count   0
   Undefined Atom Stereocenter Count 0
   Defined Bond Stereocenter Count   0
   Undefined Bond Stereocenter Count 0
   Covalently-Bonded Unit Count      1
   Feature 3D Hydrophobe Count       1
   Feature 3D Ring Count             1
   Effective Rotor Count             1
   Conformer Sampling RMSD           0.4
   CID Conformer Count               [18]1

References

   1. http://toxnet.nlm.nih.gov/cgi-bin/sis/search/r?dbs+hsdb:@term+@rn+@rel+100-42-5
   2. http://toxnet.nlm.nih.gov/cgi-bin/sis/search/r?dbs+hsdb:@term+@rn+@rel+100-42-5
   3. http://toxnet.nlm.nih.gov/cgi-bin/sis/search/r?dbs+hsdb:@term+@rn+@rel+100-42-5
   4. http://toxnet.nlm.nih.gov/cgi-bin/sis/search/r?dbs+hsdb:@term+@rn+@rel+100-42-5
   5. http://toxnet.nlm.nih.gov/cgi-bin/sis/search/r?dbs+hsdb:@term+@rn+@rel+100-42-5
   6. http://toxnet.nlm.nih.gov/cgi-bin/sis/search/r?dbs+hsdb:@term+@rn+@rel+100-42-5
   7. http://toxnet.nlm.nih.gov/cgi-bin/sis/search/r?dbs+hsdb:@term+@rn+@rel+100-42-5
   8. http://toxnet.nlm.nih.gov/cgi-bin/sis/search/r?dbs+hsdb:@term+@rn+@rel+100-42-5
   9. http://toxnet.nlm.nih.gov/cgi-bin/sis/search/r?dbs+hsdb:@term+@rn+@rel+100-42-5
  10. http://toxnet.nlm.nih.gov/cgi-bin/sis/search/r?dbs+hsdb:@term+@rn+@rel+100-42-5
  11. http://toxnet.nlm.nih.gov/cgi-bin/sis/search/r?dbs+hsdb:@term+@rn+@rel+100-42-5
  12. http://toxnet.nlm.nih.gov/cgi-bin/sis/search/r?dbs+hsdb:@term+@rn+@rel+100-42-5
  13. http://toxnet.nlm.nih.gov/cgi-bin/sis/search/r?dbs+hsdb:@term+@rn+@rel+100-42-5
  14. http://toxnet.nlm.nih.gov/cgi-bin/sis/search/r?dbs+hsdb:@term+@rn+@rel+100-42-5
  15. http://toxnet.nlm.nih.gov/cgi-bin/sis/search/r?dbs+hsdb:@term+@rn+@rel+100-42-5
  16. http://toxnet.nlm.nih.gov/cgi-bin/sis/search/r?dbs+hsdb:@term+@rn+@rel+100-42-5
  17. http://toxnet.nlm.nih.gov/cgi-bin/sis/search/r?dbs+hsdb:@term+@rn+@rel+100-42-5
  18. http://pubchem.ncbi.nlm.nih.gov/vw3d/vw3d.cgi?cid=7501
