4816
  -OEChem-06261200212D

 37 41  0     1  0  0  0  0  0999 V2000
    3.1420   -3.0595    0.0000 O   0  0  0  0  0  0  0  0  0  0  0  0
    3.3984   -0.5026    0.0000 O   0  0  0  0  0  0  0  0  0  0  0  0
    6.1291   -2.2710    0.0000 O   0  0  0  0  0  0  0  0  0  0  0  0
    8.8415   -0.4140    0.0000 O   0  0  0  0  0  0  0  0  0  0  0  0
    2.0000   -1.5655    0.0000 O   0  0  0  0  0  0  0  0  0  0  0  0
    9.0826   -2.2459    0.0000 O   0  0  0  0  0  0  0  0  0  0  0  0
    4.3020   -1.4575    0.0000 C   0  0  3  0  0  0  0  0  0  0  0  0
    3.6387   -2.1979    0.0000 C   0  0  3  0  0  0  0  0  0  0  0  0
    5.2155   -1.8642    0.0000 C   0  0  3  0  0  0  0  0  0  0  0  0
    4.1365   -3.0584    0.0000 C   0  0  3  0  0  0  0  0  0  0  0  0
    4.4065   -0.4630    0.0000 C   0  0  3  0  0  0  0  0  0  0  0  0
    5.1090   -2.8526    0.0000 C   0  0  0  0  0  0  0  0  0  0  0  0
    6.7507   -0.6211    0.0000 C   0  0  3  0  0  0  0  0  0  0  0  0
    7.0095    0.3449    0.0000 C   0  0  3  0  0  0  0  0  0  0  0  0
    6.2729    1.3275    0.0000 C   0  0  3  0  0  0  0  0  0  0  0  0
    2.9901   -1.4252    0.0000 C   0  0  0  0  0  0  0  0  0  0  0  0
    4.1974   -2.4520    0.0000 C   0  0  0  0  0  0  0  0  0  0  0  0
    8.5826   -1.3799    0.0000 C   0  0  0  0  0  0  0  0  0  0  0  0
    5.7729    2.1935    0.0000 C   0  0  0  0  0  0  0  0  0  0  0  0
    6.2729    3.0595    0.0000 C   0  0  0  0  0  0  0  0  0  0  0  0
    4.7729    2.1935    0.0000 C   0  0  0  0  0  0  0  0  0  0  0  0
    4.2014   -3.6750    0.0000 H   0  0  0  0  0  0  0  0  0  0  0  0
    4.3016    0.1481    0.0000 H   0  0  0  0  0  0  0  0  0  0  0  0
    5.1730   -3.4693    0.0000 H   0  0  0  0  0  0  0  0  0  0  0  0
    5.7290   -2.8538    0.0000 H   0  0  0  0  0  0  0  0  0  0  0  0
    7.2212   -0.2173    0.0000 H   0  0  0  0  0  0  0  0  0  0  0  0
    7.3897    0.8346    0.0000 H   0  0  0  0  0  0  0  0  0  0  0  0
    6.7903    1.6690    0.0000 H   0  0  0  0  0  0  0  0  0  0  0  0
    3.5808   -2.3872    0.0000 H   0  0  0  0  0  0  0  0  0  0  0  0
    4.1326   -3.0686    0.0000 H   0  0  0  0  0  0  0  0  0  0  0  0
    4.8141   -2.5168    0.0000 H   0  0  0  0  0  0  0  0  0  0  0  0
    6.1939   -2.8876    0.0000 H   0  0  0  0  0  0  0  0  0  0  0  0
    6.8098    2.7495    0.0000 H   0  0  0  0  0  0  0  0  0  0  0  0
    6.5829    3.5965    0.0000 H   0  0  0  0  0  0  0  0  0  0  0  0
    5.7360    3.3695    0.0000 H   0  0  0  0  0  0  0  0  0  0  0  0
    4.4629    2.7304    0.0000 H   0  0  0  0  0  0  0  0  0  0  0  0
    4.4629    1.6566    0.0000 H   0  0  0  0  0  0  0  0  0  0  0  0
  1  8  1  0  0  0  0
  1 10  1  0  0  0  0
  2 11  1  0  0  0  0
  2 16  1  0  0  0  0
  3  9  1  0  0  0  0
  3 32  1  0  0  0  0
  4 14  1  0  0  0  0
  4 18  1  0  0  0  0
  5 16  2  0  0  0  0
  6 18  2  0  0  0  0
  7  8  1  0  0  0  0
  7  9  1  0  0  0  0
  7 11  1  0  0  0  0
  7 17  1  0  0  0  0
  8 10  1  0  0  0  0
  8 16  1  0  0  0  0
  9 12  1  0  0  0  0
  9 13  1  0  0  0  0
 10 12  1  0  0  0  0
 10 22  1  0  0  0  0
 11 14  1  0  0  0  0
 11 23  1  0  0  0  0
 12 24  1  0  0  0  0
 12 25  1  0  0  0  0
 13 15  1  0  0  0  0
 13 18  1  0  0  0  0
 13 26  1  0  0  0  0
 14 15  1  0  0  0  0
 14 27  1  0  0  0  0
 15 19  1  0  0  0  0
 15 28  1  0  0  0  0
 17 29  1  0  0  0  0
 17 30  1  0  0  0  0
 17 31  1  0  0  0  0
 19 20  1  0  0  0  0
 19 21  2  0  0  0  0
 20 33  1  0  0  0  0
 20 34  1  0  0  0  0
 20 35  1  0  0  0  0
 21 36  1  0  0  0  0
 21 37  1  0  0  0  0
M  END
> <PUBCHEM_COMPOUND_CID>
4816

> <PUBCHEM_COMPOUND_CANONICALIZED>
1

> <PUBCHEM_CACTVS_COMPLEXITY>
642

> <PUBCHEM_CACTVS_HBOND_ACCEPTOR>
6

> <PUBCHEM_CACTVS_HBOND_DONOR>
1

> <PUBCHEM_CACTVS_ROTATABLE_BOND>
1

> <PUBCHEM_CACTVS_SUBSKEYS>
AAADceBwOAAAAAAAAAAAAAAAEgAAAaJEAAA0QAAABIASAGgAAAAAGgAACAAAD1SggAICCAAABgCIAgDSCAIAAAAgAAAAAAFAAAgBABYAAQQCQAAF4AACAAHK7PzPgAAAAAAAAADCAAYQADCAAYQADAAAAA==

> <PUBCHEM_IUPAC_INCHI>
InChI=1S/C15H16O6/c1-5(2)7-8-11(16)19-9(7)10-13(3)14(8,18)4-6-15(13,21-6)12(17)20-10/h6-10,18H,1,4H2,2-3H3

> <PUBCHEM_IUPAC_INCHIKEY>
PIMZUZSSNYHVCU-UHFFFAOYSA-N

> <PUBCHEM_XLOGP3_AA>
0.5

> <PUBCHEM_EXACT_MASS>
292.094688

> <PUBCHEM_MOLECULAR_FORMULA>
C15H16O6

> <PUBCHEM_MOLECULAR_WEIGHT>
292.28394

> <PUBCHEM_OPENEYE_CAN_SMILES>
CC(=C)C1C2C3C4(C(C1C(=O)O2)(CC5C4(O5)C(=O)O3)O)C

> <PUBCHEM_OPENEYE_ISO_SMILES>
CC(=C)C1C2C3C4(C(C1C(=O)O2)(CC5C4(O5)C(=O)O3)O)C

> <PUBCHEM_CACTVS_TPSA>
85.4

> <PUBCHEM_MONOISOTOPIC_WEIGHT>
292.094688

> <PUBCHEM_TOTAL_CHARGE>
0

> <PUBCHEM_HEAVY_ATOM_COUNT>
21

> <PUBCHEM_ATOM_DEF_STEREO_COUNT>
0

> <PUBCHEM_ATOM_UDEF_STEREO_COUNT>
8

> <PUBCHEM_BOND_DEF_STEREO_COUNT>
0

> <PUBCHEM_BOND_UDEF_STEREO_COUNT>
0

> <PUBCHEM_ISOTOPIC_ATOM_COUNT>
0

> <PUBCHEM_COMPONENT_COUNT>
1

> <PUBCHEM_CACTVS_TAUTO_COUNT>
1

> <PUBCHEM_COORDINATE_TYPE>
1
5
255

> <PUBCHEM_BONDANNOTATIONS>
10  12  3
13  18  3
15  19  3
11  2  3
9  3  3
14  4  3
7  17  3
8  16  3

$$$$

