   Color/Form

     * Needles from water
     * White crystals
     * Colorless crystals

   from [1]HSDB

   Odor
        Odorless
   from [2]HSDB

   Boiling Point
        Decomposes
   from [3]HSDB

   Melting Point
        134.5-135.5 deg C
   from [4]HSDB

   Dissociation Constants
        pKa = 4.23
   from [5]HSDB

   Octanol/Water Partition Coefficient
        log Kow = 2.24
   from [6]HSDB

   Solubilities

     * Slightly soluble in ethanol, trifluoroacetic acid; soluble in
       benzene and acetic acid; very soluble in ethyl ether, acetone, and
       chloroform.
     * 10.6 mg/l in carbon tetrachloride @ 26 deg C; 55 mg/l in xylene at
       26 deg C
     * About 30 parts in alcohol
     * Very sol in isopropanol
     * In water, 420 mg/l @ 20 deg C

   from [7]HSDB

   Spectral Properties

     * Intense mass spectral peaks: 141 m/z (100%), 186 m/z (49%), 115 m/z
       (29%), 142 m/z (17%)
     * MASS: 53261 (NIST/EPA/MSDC Mass Spectral Data base, 1990 version)
     * UV: 2965 (Sadlter Research Laboratories spectral collection)
     * IR: 2644 (Coblentz Society spectral collection)
     * 1H NMR: 3238 (Sadtler Research Laboratories spectral collection)

   from [8]HSDB

   Other Chemical/Physical Properties

     * Melting point of 125-128 deg C /Technical grade/
     * Alkali metal and amine salts are readily soluble in water.

   from [9]HSDB

   Computed Properties
   Molecular Weight                  186.2066 [g/mol]
   Molecular Formula                 C[12]H[10]O[2]
   XLogP3                            2.7
   H-Bond Donor                      1
   H-Bond Acceptor                   2
   Rotatable Bond Count              2
   Exact Mass                        186.06808
   MonoIsotopic Mass                 186.06808
   Topological Polar Surface Area    37.3
   Heavy Atom Count                  14
   Formal Charge                     0
   Complexity                        212
   Isotope Atom Count                0
   Defined Atom Stereocenter Count   0
   Undefined Atom Stereocenter Count 0
   Defined Bond Stereocenter Count   0
   Undefined Bond Stereocenter Count 0
   Covalently-Bonded Unit Count      1
   Feature 3D Acceptor Count         2
   Feature 3D Anion Count            1
   Feature 3D Ring Count             2
   Effective Rotor Count             2
   Conformer Sampling RMSD           0.6
   CID Conformer Count               [10]4

References

   1. http://toxnet.nlm.nih.gov/cgi-bin/sis/search/r?dbs+hsdb:@term+@rn+@rel+86-87-3
   2. http://toxnet.nlm.nih.gov/cgi-bin/sis/search/r?dbs+hsdb:@term+@rn+@rel+86-87-3
   3. http://toxnet.nlm.nih.gov/cgi-bin/sis/search/r?dbs+hsdb:@term+@rn+@rel+86-87-3
   4. http://toxnet.nlm.nih.gov/cgi-bin/sis/search/r?dbs+hsdb:@term+@rn+@rel+86-87-3
   5. http://toxnet.nlm.nih.gov/cgi-bin/sis/search/r?dbs+hsdb:@term+@rn+@rel+86-87-3
   6. http://toxnet.nlm.nih.gov/cgi-bin/sis/search/r?dbs+hsdb:@term+@rn+@rel+86-87-3
   7. http://toxnet.nlm.nih.gov/cgi-bin/sis/search/r?dbs+hsdb:@term+@rn+@rel+86-87-3
   8. http://toxnet.nlm.nih.gov/cgi-bin/sis/search/r?dbs+hsdb:@term+@rn+@rel+86-87-3
   9. http://toxnet.nlm.nih.gov/cgi-bin/sis/search/r?dbs+hsdb:@term+@rn+@rel+86-87-3
  10. http://pubchem.ncbi.nlm.nih.gov/vw3d/vw3d.cgi?cid=6862
