23724527
  -OEChem-07051213032D

 34 35  0     1  0  0  0  0  0999 V2000
    6.0690    1.4471    0.0000 S   0  0  0  0  0  0  0  0  0  0  0  0
    6.0178   -2.8162    0.0000 Na  0  3  0  0  0  0  0  0  0  0  0  0
    8.2445    1.4471    0.0000 O   0  0  0  0  0  0  0  0  0  0  0  0
    2.4375    1.5940    0.0000 O   0  0  0  0  0  0  0  0  0  0  0  0
    3.4040   -0.5746    0.0000 O   0  0  0  0  0  0  0  0  0  0  0  0
    5.7088   -1.8651    0.0000 O   0  5  0  0  0  0  0  0  0  0  0  0
    7.3561   -1.3299    0.0000 O   0  0  0  0  0  0  0  0  0  0  0  0
    5.1179    0.1381    0.0000 N   0  0  0  0  0  0  0  0  0  0  0  0
    5.1179    1.1381    0.0000 C   0  0  1  0  0  0  0  0  0  0  0  0
    4.1096    1.1422    0.0000 C   0  0  2  0  0  0  0  0  0  0  0  0
    4.1096    0.1339    0.0000 C   0  0  0  0  0  0  0  0  0  0  0  0
    6.6567    0.6381    0.0000 C   0  0  0  0  0  0  0  0  0  0  0  0
    3.4040    1.8508    0.0000 C   0  0  1  0  0  0  0  0  0  0  0  0
    6.0690   -0.1709    0.0000 C   0  0  0  0  0  0  0  0  0  0  0  0
    7.6567    0.6381    0.0000 C   0  0  3  0  0  0  0  0  0  0  0  0
    8.2445   -0.1709    0.0000 C   0  0  0  0  0  0  0  0  0  0  0  0
    9.1956    0.1381    0.0000 C   0  0  0  0  0  0  0  0  0  0  0  0
    9.1956    1.1381    0.0000 C   0  0  0  0  0  0  0  0  0  0  0  0
    3.6648    2.8162    0.0000 C   0  0  0  0  0  0  0  0  0  0  0  0
    6.3780   -1.1220    0.0000 C   0  0  0  0  0  0  0  0  0  0  0  0
    4.9866    1.9779    0.0000 H   0  0  0  0  0  0  0  0  0  0  0  0
    3.3240    0.8178    0.0000 H   0  0  0  0  0  0  0  0  0  0  0  0
    2.9665    2.2901    0.0000 H   0  0  0  0  0  0  0  0  0  0  0  0
    7.3753    1.1905    0.0000 H   0  0  0  0  0  0  0  0  0  0  0  0
    7.7076   -0.4809    0.0000 H   0  0  0  0  0  0  0  0  0  0  0  0
    8.4967   -0.7373    0.0000 H   0  0  0  0  0  0  0  0  0  0  0  0
    9.3245   -0.4684    0.0000 H   0  0  0  0  0  0  0  0  0  0  0  0
    9.8122    0.2029    0.0000 H   0  0  0  0  0  0  0  0  0  0  0  0
    9.8122    1.0733    0.0000 H   0  0  0  0  0  0  0  0  0  0  0  0
    9.3245    1.7445    0.0000 H   0  0  0  0  0  0  0  0  0  0  0  0
    4.2633    2.6545    0.0000 H   0  0  0  0  0  0  0  0  0  0  0  0
    3.8265    3.4147    0.0000 H   0  0  0  0  0  0  0  0  0  0  0  0
    3.0662    2.9779    0.0000 H   0  0  0  0  0  0  0  0  0  0  0  0
    2.0000    2.0333    0.0000 H   0  0  0  0  0  0  0  0  0  0  0  0
  1  9  1  0  0  0  0
  1 12  1  0  0  0  0
  3 15  1  0  0  0  0
  3 18  1  0  0  0  0
 13  4  1  6  0  0  0
  4 34  1  0  0  0  0
  5 11  2  0  0  0  0
  6 20  1  0  0  0  0
  7 20  2  0  0  0  0
  8  9  1  0  0  0  0
  8 11  1  0  0  0  0
  8 14  1  0  0  0  0
  9 10  1  0  0  0  0
  9 21  1  6  0  0  0
 10 11  1  0  0  0  0
 10 13  1  0  0  0  0
 10 22  1  1  0  0  0
 12 14  2  0  0  0  0
 12 15  1  0  0  0  0
 13 19  1  0  0  0  0
 13 23  1  0  0  0  0
 14 20  1  0  0  0  0
 15 16  1  0  0  0  0
 15 24  1  0  0  0  0
 16 17  1  0  0  0  0
 16 25  1  0  0  0  0
 16 26  1  0  0  0  0
 17 18  1  0  0  0  0
 17 27  1  0  0  0  0
 17 28  1  0  0  0  0
 18 29  1  0  0  0  0
 18 30  1  0  0  0  0
 19 31  1  0  0  0  0
 19 32  1  0  0  0  0
 19 33  1  0  0  0  0
M  CHG  2   2   1   6  -1
M  END
> <PUBCHEM_COMPOUND_CID>
23724527

> <PUBCHEM_COMPOUND_CANONICALIZED>
1

> <PUBCHEM_CACTVS_COMPLEXITY>
483

> <PUBCHEM_CACTVS_HBOND_ACCEPTOR>
6

> <PUBCHEM_CACTVS_HBOND_DONOR>
1

> <PUBCHEM_CACTVS_ROTATABLE_BOND>
3

> <PUBCHEM_CACTVS_SUBSKEYS>
AAADccByOCBAAAAAAAAAAAAAAABYASIAAAAAAAAABAAAAAAAAAAAHgQACAAADRzlwAaCCAMABgiIAAXQWAAAAABgABAACAGIAEgCFB4goCAGUAAGpgC4IQKAAAAIAAAAAAAAAAAAAAAAAAAAAAAAAAAAAA==

> <PUBCHEM_IUPAC_OPENEYE_NAME>
sodium (5R,6S)-6-[(1R)-1-hydroxyethyl]-7-oxo-3-tetrahydrofuran-2-yl-4-thia-1-azabicyclo[3.2.0]hept-2-ene-2-carboxylate

> <PUBCHEM_IUPAC_CAS_NAME>
sodium (5R,6S)-6-[(1R)-1-hydroxyethyl]-7-oxo-3-(2-oxolanyl)-4-thia-1-azabicyclo[3.2.0]hept-2-ene-2-carboxylate

> <PUBCHEM_IUPAC_NAME>
sodium (5R,6S)-6-[(1R)-1-hydroxyethyl]-7-oxo-3-(oxolan-2-yl)-4-thia-1-azabicyclo[3.2.0]hept-2-ene-2-carboxylate

> <PUBCHEM_IUPAC_SYSTEMATIC_NAME>
sodium (5R,6S)-6-[(1R)-1-oxidanylethyl]-7-oxidanylidene-3-(oxolan-2-yl)-4-thia-1-azabicyclo[3.2.0]hept-2-ene-2-carboxylate

> <PUBCHEM_IUPAC_TRADITIONAL_NAME>
sodium (5R,6S)-6-[(1R)-1-hydroxyethyl]-7-keto-3-(tetrahydrofuryl)-4-thia-1-azabicyclo[3.2.0]hept-2-ene-2-carboxylate

> <PUBCHEM_IUPAC_INCHI>
InChI=1S/C12H15NO5S.Na/c1-5(14)7-10(15)13-8(12(16)17)9(19-11(7)13)6-3-2-4-18-6;/h5-7,11,14H,2-4H2,1H3,(H,16,17);/q;+1/p-1/t5-,6?,7+,11-;/m1./s1

> <PUBCHEM_IUPAC_INCHIKEY>
ICSAXRANXQSPQP-XVJSFZBMSA-M

> <PUBCHEM_EXACT_MASS>
307.049038

> <PUBCHEM_MOLECULAR_FORMULA>
C12H14NNaO5S

> <PUBCHEM_MOLECULAR_WEIGHT>
307.298029

> <PUBCHEM_OPENEYE_CAN_SMILES>
CC(C1C2N(C1=O)C(=C(S2)C3CCCO3)C(=O)[O-])O.[Na+]

> <PUBCHEM_OPENEYE_ISO_SMILES>
C[C@H]([C@@H]1[C@@H]2N(C1=O)C(=C(S2)C3CCCO3)C(=O)[O-])O.[Na+]

> <PUBCHEM_CACTVS_TPSA>
115

> <PUBCHEM_MONOISOTOPIC_WEIGHT>
307.049038

> <PUBCHEM_TOTAL_CHARGE>
0

> <PUBCHEM_HEAVY_ATOM_COUNT>
20

> <PUBCHEM_ATOM_DEF_STEREO_COUNT>
3

> <PUBCHEM_ATOM_UDEF_STEREO_COUNT>
1

> <PUBCHEM_BOND_DEF_STEREO_COUNT>
0

> <PUBCHEM_BOND_UDEF_STEREO_COUNT>
0

> <PUBCHEM_ISOTOPIC_ATOM_COUNT>
0

> <PUBCHEM_COMPONENT_COUNT>
2

> <PUBCHEM_CACTVS_TAUTO_COUNT>
2

> <PUBCHEM_NONSTANDARDBOND>
2  6  7

> <PUBCHEM_COORDINATE_TYPE>
1
5
255

> <PUBCHEM_BONDANNOTATIONS>
10  22  5
15  12  3
13  4  6
9  21  6

$$$$

