   Chemical and Physical Properties References

   [1]USDA ARS - USDA chemical properties
   from [2]ChemIDplus

   Color/Form
        Clear colorless to light brown viscous liquid
   from [3]HSDB

   Boiling Point
        275 deg C
   from [4]HSDB

   Melting Point
        25 deg C
   from [5]HSDB

   Density/Specific Gravity
        1.192 at 25 deg C
   from [6]HSDB

   Octanol/Water Partition Coefficient
        log Kow = 2.5 at 25 deg C
   from [7]HSDB

   Solubilities

     * Readily soluble in acetonitrile, hexane, dioxane, xylene
     * Miscible in acetone, chloroform, cyclohexanone, methylene chloride,
       methanol, toluene, heptane, and DMF
     * In water, 1,100 ppm at 25 deg C [Shiu WY et al; Rev Environ Contam
       Toxicol 116: 15-187 (1990)] [8]PubMed Abstract

   from [9]HSDB

   Vapor Pressure
        1.4X10-4 mm Hg at 25 deg C
   from [10]HSDB

   Other Chemical/Physical Properties

     * Henry's Law constant = 4.13X10-8 atm-cu m/mole at 25 deg C
     * Hydroxy radical reaction rate constant = 2.2X10-11 cu cm/molec-sec
       at 25 deg C (est)
     * Stable at ambient temperatures for at least 2 years; stable at 50
       deg C for at least 3 mo. In sunlight, DT50 >30 d in aqueous
       solution

   from [11]HSDB

   Computed Properties
   Molecular Weight                  239.69806 [g/mol]
   Molecular Formula                 C[12]H[14]ClNO[2]
   XLogP3-AA                         2.5
   H-Bond Donor                      0
   H-Bond Acceptor                   2
   Rotatable Bond Count              2
   Exact Mass                        239.071306
   MonoIsotopic Mass                 239.071306
   Topological Polar Surface Area    29.5
   Heavy Atom Count                  16
   Formal Charge                     0
   Complexity                        280
   Isotope Atom Count                0
   Defined Atom Stereocenter Count   0
   Undefined Atom Stereocenter Count 0
   Defined Bond Stereocenter Count   0
   Undefined Bond Stereocenter Count 0
   Covalently-Bonded Unit Count      1
   Feature 3D Acceptor Count         1
   Feature 3D Hydrophobe Count       1
   Feature 3D Ring Count             2
   Effective Rotor Count             2.8
   Conformer Sampling RMSD           0.6
   CID Conformer Count               [12]22

References

   1. http://www.ars.usda.gov/SP2UserFiles/ad_hoc/12755100DatabaseFiles/PesticidePropertiesDatabase/IndividualPesticideFiles/CLOMAZONE.TXT
   2. http://chem.sis.nlm.nih.gov/chemidplus/
   3. http://toxnet.nlm.nih.gov/cgi-bin/sis/search/r?dbs+hsdb:@term+@rn+@rel+81777-89-1
   4. http://toxnet.nlm.nih.gov/cgi-bin/sis/search/r?dbs+hsdb:@term+@rn+@rel+81777-89-1
   5. http://toxnet.nlm.nih.gov/cgi-bin/sis/search/r?dbs+hsdb:@term+@rn+@rel+81777-89-1
   6. http://toxnet.nlm.nih.gov/cgi-bin/sis/search/r?dbs+hsdb:@term+@rn+@rel+81777-89-1
   7. http://toxnet.nlm.nih.gov/cgi-bin/sis/search/r?dbs+hsdb:@term+@rn+@rel+81777-89-1
   8. http://www.ncbi.nlm.nih.gov/entrez/query.fcgi?cmd=Retrieve&db=pubmed&dopt=Abstract&list_uids=2205893
   9. http://toxnet.nlm.nih.gov/cgi-bin/sis/search/r?dbs+hsdb:@term+@rn+@rel+81777-89-1
  10. http://toxnet.nlm.nih.gov/cgi-bin/sis/search/r?dbs+hsdb:@term+@rn+@rel+81777-89-1
  11. http://toxnet.nlm.nih.gov/cgi-bin/sis/search/r?dbs+hsdb:@term+@rn+@rel+81777-89-1
  12. http://pubchem.ncbi.nlm.nih.gov/vw3d/vw3d.cgi?cid=54778
