   Color/Form
        White needles from ethyl acetate
   from [1]HSDB

   Odor
        Odorless
   from [2]HSDB

   Taste
        Tasteless
   from [3]HSDB

   Melting Point
        160-163 deg C
   from [4]HSDB

   Dissociation Constants
        pKa = 10.2
   from [5]HSDB

   Octanol/Water Partition Coefficient
        log Kow = 0.36 /Estimated/
   from [6]HSDB

   Solubilities

     * Sparingly sol in chloroform, n-hexane. Sol in methanol, ethanol,
       ethyl acetate, and acetic acid.
     * In water, 0.80 mg/L, temp not specified

   from [7]HSDB

   Vapor Pressure
        3.3X10-6 mm Hg at 25 deg C /Estimated/
   from [8]HSDB

   Other Chemical/Physical Properties

     * Henry's Law constant = 4.9X10-11 atm-cu m/mole at 25 deg C
       /Estimated/
     * Hydroxyl radical reaction rate constant = 3.0X10-11 cu cm/molecule
       sec at 25 deg C /Estimated/

   from [9]HSDB

   Computed Properties
   Molecular Weight                  212.22572 [g/mol]
   Molecular Formula                 C[8]H[8]N[2]O[3]S
   XLogP3-AA                         0.2
   H-Bond Donor                      1
   H-Bond Acceptor                   5
   Rotatable Bond Count              2
   Exact Mass                        212.025563
   MonoIsotopic Mass                 212.025563
   Topological Polar Surface Area    94.6
   Heavy Atom Count                  14
   Formal Charge                     0
   Complexity                        298
   Isotope Atom Count                0
   Defined Atom Stereocenter Count   0
   Undefined Atom Stereocenter Count 0
   Defined Bond Stereocenter Count   0
   Undefined Bond Stereocenter Count 0
   Covalently-Bonded Unit Count      1
   Feature 3D Acceptor Count         3
   Feature 3D Donor Count            1
   Feature 3D Ring Count             2
   Effective Rotor Count             2
   Conformer Sampling RMSD           0.6
   CID Conformer Count               [10]10

References

   1. http://toxnet.nlm.nih.gov/cgi-bin/sis/search/r?dbs+hsdb:@term+@rn+@rel+68291-97-4
   2. http://toxnet.nlm.nih.gov/cgi-bin/sis/search/r?dbs+hsdb:@term+@rn+@rel+68291-97-4
   3. http://toxnet.nlm.nih.gov/cgi-bin/sis/search/r?dbs+hsdb:@term+@rn+@rel+68291-97-4
   4. http://toxnet.nlm.nih.gov/cgi-bin/sis/search/r?dbs+hsdb:@term+@rn+@rel+68291-97-4
   5. http://toxnet.nlm.nih.gov/cgi-bin/sis/search/r?dbs+hsdb:@term+@rn+@rel+68291-97-4
   6. http://toxnet.nlm.nih.gov/cgi-bin/sis/search/r?dbs+hsdb:@term+@rn+@rel+68291-97-4
   7. http://toxnet.nlm.nih.gov/cgi-bin/sis/search/r?dbs+hsdb:@term+@rn+@rel+68291-97-4
   8. http://toxnet.nlm.nih.gov/cgi-bin/sis/search/r?dbs+hsdb:@term+@rn+@rel+68291-97-4
   9. http://toxnet.nlm.nih.gov/cgi-bin/sis/search/r?dbs+hsdb:@term+@rn+@rel+68291-97-4
  10. http://pubchem.ncbi.nlm.nih.gov/vw3d/vw3d.cgi?cid=5734
