442319
  -OEChem-07051212572D

 48 50  0     1  0  0  0  0  0999 V2000
    3.7230    0.7567    0.0000 O   0  0  0  0  0  0  0  0  0  0  0  0
    7.0268   -1.2319    0.0000 O   0  0  0  0  0  0  0  0  0  0  0  0
    2.0000    1.1888    0.0000 O   0  0  0  0  0  0  0  0  0  0  0  0
    8.5873   -0.4804    0.0000 O   0  0  0  0  0  0  0  0  0  0  0  0
    5.4786    0.8304    0.0000 C   0  0  1  0  0  0  0  0  0  0  0  0
    6.3796    1.2643    0.0000 C   0  0  1  0  0  0  0  0  0  0  0  0
    4.5777    1.2643    0.0000 C   0  0  2  0  0  0  0  0  0  0  0  0
    4.3551    2.2392    0.0000 C   0  0  1  0  0  0  0  0  0  0  0  0
    7.0647    0.5440    0.0000 C   0  0  0  0  0  0  0  0  0  0  0  0
    5.6146   -0.1543    0.0000 C   0  0  0  0  0  0  0  0  0  0  0  0
    6.5929   -0.3310    0.0000 C   0  0  1  0  0  0  0  0  0  0  0  0
    6.6021    2.2392    0.0000 C   0  0  0  0  0  0  0  0  0  0  0  0
    4.9786    3.0211    0.0000 C   0  0  0  0  0  0  0  0  0  0  0  0
    5.9786    3.0211    0.0000 C   0  0  0  0  0  0  0  0  0  0  0  0
    3.3648    2.3258    0.0000 C   0  0  0  0  0  0  0  0  0  0  0  0
    2.9749    1.4114    0.0000 C   0  0  0  0  0  0  0  0  0  0  0  0
    4.8930   -0.8466    0.0000 C   0  0  0  0  0  0  0  0  0  0  0  0
    7.5770    2.4618    0.0000 C   0  0  0  0  0  0  0  0  0  0  0  0
    2.8504    3.1833    0.0000 C   0  0  0  0  0  0  0  0  0  0  0  0
    8.0240   -1.3067    0.0000 C   0  0  0  0  0  0  0  0  0  0  0  0
    8.4578   -2.2076    0.0000 C   0  0  0  0  0  0  0  0  0  0  0  0
    9.4551   -2.2824    0.0000 C   0  0  0  0  0  0  0  0  0  0  0  0
    9.8889   -3.1833    0.0000 C   0  0  0  0  0  0  0  0  0  0  0  0
   10.0184   -1.4561    0.0000 C   0  0  0  0  0  0  0  0  0  0  0  0
    4.7916    0.3299    0.0000 H   0  0  0  0  0  0  0  0  0  0  0  0
    7.1993    1.4894    0.0000 H   0  0  0  0  0  0  0  0  0  0  0  0
    4.6147    0.4151    0.0000 H   0  0  0  0  0  0  0  0  0  0  0  0
    4.0200    3.0204    0.0000 H   0  0  0  0  0  0  0  0  0  0  0  0
    7.5765    0.1940    0.0000 H   0  0  0  0  0  0  0  0  0  0  0  0
    7.4666    1.0162    0.0000 H   0  0  0  0  0  0  0  0  0  0  0  0
    7.2127   -0.3451    0.0000 H   0  0  0  0  0  0  0  0  0  0  0  0
    5.1166    3.6255    0.0000 H   0  0  0  0  0  0  0  0  0  0  0  0
    4.4200    3.2901    0.0000 H   0  0  0  0  0  0  0  0  0  0  0  0
    6.5372    3.2901    0.0000 H   0  0  0  0  0  0  0  0  0  0  0  0
    5.8407    3.6255    0.0000 H   0  0  0  0  0  0  0  0  0  0  0  0
    4.2976   -0.6738    0.0000 H   0  0  0  0  0  0  0  0  0  0  0  0
    5.0411   -1.4487    0.0000 H   0  0  0  0  0  0  0  0  0  0  0  0
    7.9988    2.0073    0.0000 H   0  0  0  0  0  0  0  0  0  0  0  0
    7.7598    3.0542    0.0000 H   0  0  0  0  0  0  0  0  0  0  0  0
    3.1514    3.7254    0.0000 H   0  0  0  0  0  0  0  0  0  0  0  0
    2.2305    3.1730    0.0000 H   0  0  0  0  0  0  0  0  0  0  0  0
    8.1086   -2.7199    0.0000 H   0  0  0  0  0  0  0  0  0  0  0  0
    9.3303   -3.4523    0.0000 H   0  0  0  0  0  0  0  0  0  0  0  0
   10.1579   -3.7419    0.0000 H   0  0  0  0  0  0  0  0  0  0  0  0
   10.4475   -2.9143    0.0000 H   0  0  0  0  0  0  0  0  0  0  0  0
   10.5306   -1.8054    0.0000 H   0  0  0  0  0  0  0  0  0  0  0  0
   10.3676   -0.9439    0.0000 H   0  0  0  0  0  0  0  0  0  0  0  0
    9.5061   -1.1069    0.0000 H   0  0  0  0  0  0  0  0  0  0  0  0
  1  7  1  0  0  0  0
  1 16  1  0  0  0  0
 11  2  1  6  0  0  0
  2 20  1  0  0  0  0
  3 16  2  0  0  0  0
  4 20  2  0  0  0  0
  5  6  1  0  0  0  0
  5  7  1  0  0  0  0
  5 10  1  0  0  0  0
  5 25  1  1  0  0  0
  6  9  1  0  0  0  0
  6 12  1  0  0  0  0
  6 26  1  1  0  0  0
  7  8  1  0  0  0  0
  7 27  1  6  0  0  0
  8 13  1  0  0  0  0
  8 15  1  0  0  0  0
  8 28  1  1  0  0  0
  9 11  1  0  0  0  0
  9 29  1  0  0  0  0
  9 30  1  0  0  0  0
 10 11  1  0  0  0  0
 10 17  2  0  0  0  0
 11 31  1  0  0  0  0
 12 14  1  0  0  0  0
 12 18  2  0  0  0  0
 13 14  1  0  0  0  0
 13 32  1  0  0  0  0
 13 33  1  0  0  0  0
 14 34  1  0  0  0  0
 14 35  1  0  0  0  0
 15 16  1  0  0  0  0
 15 19  2  0  0  0  0
 17 36  1  0  0  0  0
 17 37  1  0  0  0  0
 18 38  1  0  0  0  0
 18 39  1  0  0  0  0
 19 40  1  0  0  0  0
 19 41  1  0  0  0  0
 20 21  1  0  0  0  0
 21 22  2  0  0  0  0
 21 42  1  0  0  0  0
 22 23  1  0  0  0  0
 22 24  1  0  0  0  0
 23 43  1  0  0  0  0
 23 44  1  0  0  0  0
 23 45  1  0  0  0  0
 24 46  1  0  0  0  0
 24 47  1  0  0  0  0
 24 48  1  0  0  0  0
M  END
> <PUBCHEM_COMPOUND_CID>
442319

> <PUBCHEM_COMPOUND_CANONICALIZED>
1

> <PUBCHEM_CACTVS_COMPLEXITY>
665

> <PUBCHEM_CACTVS_HBOND_ACCEPTOR>
4

> <PUBCHEM_CACTVS_HBOND_DONOR>
0

> <PUBCHEM_CACTVS_ROTATABLE_BOND>
3

> <PUBCHEM_CACTVS_SUBSKEYS>
AAADceB4OAAAAAAAAAAAAAAAAAAAAaIAAAAAAAAABgAAAADQAAAAGgAAAAAADRSggAICCAAABACIAiDSCAAAAAAgAAAACAEAAEgABBIAIQACEAAEwAAAIYHK6PyOgAAAAAAAAAAAAAAAAAAAAIAACAAAAA==

> <PUBCHEM_IUPAC_OPENEYE_NAME>
[(3aS,6aR,8S,9aR,9bS)-3,6,9-trimethylene-2-oxo-3a,4,5,6a,7,8,9a,9b-octahydroazuleno[4,5-b]furan-8-yl] 3-methylbut-2-enoate

> <PUBCHEM_IUPAC_CAS_NAME>
3-methyl-2-butenoic acid [(3aS,6aR,8S,9aR,9bS)-3,6,9-trimethylene-2-oxo-3a,4,5,6a,7,8,9a,9b-octahydroazuleno[4,5-b]furan-8-yl] ester

> <PUBCHEM_IUPAC_NAME>
[(3aS,6aR,8S,9aR,9bS)-3,6,9-trimethylidene-2-oxo-3a,4,5,6a,7,8,9a,9b-octahydroazuleno[4,5-b]furan-8-yl] 3-methylbut-2-enoate

> <PUBCHEM_IUPAC_SYSTEMATIC_NAME>
[(3aS,6aR,8S,9aR,9bS)-3,6,9-trimethylidene-2-oxidanylidene-3a,4,5,6a,7,8,9a,9b-octahydroazuleno[4,5-b]furan-8-yl] 3-methylbut-2-enoate

> <PUBCHEM_IUPAC_TRADITIONAL_NAME>
3-methylbut-2-enoic acid [(3aS,6aR,8S,9aR,9bS)-2-keto-3,6,9-trimethylene-3a,4,5,6a,7,8,9a,9b-octahydroazuleno[4,5-b]furan-8-yl] ester

> <PUBCHEM_IUPAC_INCHI>
InChI=1S/C20H24O4/c1-10(2)8-17(21)23-16-9-15-11(3)6-7-14-12(4)20(22)24-19(14)18(15)13(16)5/h8,14-16,18-19H,3-7,9H2,1-2H3/t14-,15-,16-,18-,19-/m0/s1

> <PUBCHEM_IUPAC_INCHIKEY>
CEKDWOBPPFOCDL-QAGGRKNESA-N

> <PUBCHEM_XLOGP3_AA>
3.3

> <PUBCHEM_EXACT_MASS>
328.167459

> <PUBCHEM_MOLECULAR_FORMULA>
C20H24O4

> <PUBCHEM_MOLECULAR_WEIGHT>
328.40216

> <PUBCHEM_OPENEYE_CAN_SMILES>
CC(=CC(=O)OC1CC2C(C1=C)C3C(CCC2=C)C(=C)C(=O)O3)C

> <PUBCHEM_OPENEYE_ISO_SMILES>
CC(=CC(=O)O[C@H]1C[C@@H]2[C@H](C1=C)[C@@H]3[C@@H](CCC2=C)C(=C)C(=O)O3)C

> <PUBCHEM_CACTVS_TPSA>
52.6

> <PUBCHEM_MONOISOTOPIC_WEIGHT>
328.167459

> <PUBCHEM_TOTAL_CHARGE>
0

> <PUBCHEM_HEAVY_ATOM_COUNT>
24

> <PUBCHEM_ATOM_DEF_STEREO_COUNT>
5

> <PUBCHEM_ATOM_UDEF_STEREO_COUNT>
0

> <PUBCHEM_BOND_DEF_STEREO_COUNT>
0

> <PUBCHEM_BOND_UDEF_STEREO_COUNT>
0

> <PUBCHEM_ISOTOPIC_ATOM_COUNT>
0

> <PUBCHEM_COMPONENT_COUNT>
1

> <PUBCHEM_CACTVS_TAUTO_COUNT>
1

> <PUBCHEM_COORDINATE_TYPE>
1
5
255

> <PUBCHEM_BONDANNOTATIONS>
11  2  6
5  25  5
6  26  5
7  27  6
8  28  5

$$$$

