5359485
  -OEChem-07051213092D

 29 31  0     0  0  0  0  0  0999 V2000
    6.9343   -0.9072    0.0000 O   0  0  0  0  0  0  0  0  0  0  0  0
    4.3198   -2.4418    0.0000 O   0  0  0  0  0  0  0  0  0  0  0  0
    8.7202    2.1380    0.0000 O   0  0  0  0  0  0  0  0  0  0  0  0
    2.5381    0.6170    0.0000 O   0  0  0  0  0  0  0  0  0  0  0  0
    6.0682   -2.4072    0.0000 O   0  0  0  0  0  0  0  0  0  0  0  0
    6.0682    0.5928    0.0000 C   0  0  0  0  0  0  0  0  0  0  0  0
    5.2022    0.0928    0.0000 C   0  0  0  0  0  0  0  0  0  0  0  0
    5.2022   -0.9072    0.0000 C   0  0  0  0  0  0  0  0  0  0  0  0
    6.0522    1.6344    0.0000 C   0  0  0  0  0  0  0  0  0  0  0  0
    6.9343    0.0928    0.0000 C   0  0  0  0  0  0  0  0  0  0  0  0
    4.3083    0.6275    0.0000 C   0  0  0  0  0  0  0  0  0  0  0  0
    4.3083   -1.4418    0.0000 C   0  0  0  0  0  0  0  0  0  0  0  0
    6.9502    2.1621    0.0000 C   0  0  0  0  0  0  0  0  0  0  0  0
    7.8443    0.5997    0.0000 C   0  0  0  0  0  0  0  0  0  0  0  0
    6.0682   -1.4072    0.0000 C   0  0  0  0  0  0  0  0  0  0  0  0
    7.8523    1.6413    0.0000 C   0  0  0  0  0  0  0  0  0  0  0  0
    5.1804    2.1243    0.0000 C   0  0  0  0  0  0  0  0  0  0  0  0
    3.4022    0.1137    0.0000 C   0  0  0  0  0  0  0  0  0  0  0  0
    3.4022   -0.9280    0.0000 C   0  0  0  0  0  0  0  0  0  0  0  0
    4.3154    1.2475    0.0000 H   0  0  0  0  0  0  0  0  0  0  0  0
    6.9478    2.7821    0.0000 H   0  0  0  0  0  0  0  0  0  0  0  0
    8.3776    0.2835    0.0000 H   0  0  0  0  0  0  0  0  0  0  0  0
    5.4842    2.6648    0.0000 H   0  0  0  0  0  0  0  0  0  0  0  0
    4.6400    2.4281    0.0000 H   0  0  0  0  0  0  0  0  0  0  0  0
    4.8767    1.5838    0.0000 H   0  0  0  0  0  0  0  0  0  0  0  0
    2.8665   -1.2400    0.0000 H   0  0  0  0  0  0  0  0  0  0  0  0
    3.7865   -2.7579    0.0000 H   0  0  0  0  0  0  0  0  0  0  0  0
    8.7226    2.7579    0.0000 H   0  0  0  0  0  0  0  0  0  0  0  0
    2.0000    0.3091    0.0000 H   0  0  0  0  0  0  0  0  0  0  0  0
  1 10  1  0  0  0  0
  1 15  1  0  0  0  0
  2 12  1  0  0  0  0
  2 27  1  0  0  0  0
  3 16  1  0  0  0  0
  3 28  1  0  0  0  0
  4 18  1  0  0  0  0
  4 29  1  0  0  0  0
  5 15  2  0  0  0  0
  6  7  1  0  0  0  0
  6  9  1  0  0  0  0
  6 10  2  0  0  0  0
  7  8  2  0  0  0  0
  7 11  1  0  0  0  0
  8 12  1  0  0  0  0
  8 15  1  0  0  0  0
  9 13  2  0  0  0  0
  9 17  1  0  0  0  0
 10 14  1  0  0  0  0
 11 18  2  0  0  0  0
 11 20  1  0  0  0  0
 12 19  2  0  0  0  0
 13 16  1  0  0  0  0
 13 21  1  0  0  0  0
 14 16  2  0  0  0  0
 14 22  1  0  0  0  0
 17 23  1  0  0  0  0
 17 24  1  0  0  0  0
 17 25  1  0  0  0  0
 18 19  1  0  0  0  0
 19 26  1  0  0  0  0
M  END
> <PUBCHEM_COMPOUND_CID>
5359485

> <PUBCHEM_COMPOUND_CANONICALIZED>
1

> <PUBCHEM_CACTVS_COMPLEXITY>
371

> <PUBCHEM_CACTVS_HBOND_ACCEPTOR>
5

> <PUBCHEM_CACTVS_HBOND_DONOR>
3

> <PUBCHEM_CACTVS_ROTATABLE_BOND>
0

> <PUBCHEM_CACTVS_SUBSKEYS>
AAADccBwOAAAAAAAAAAAAAAAAAAAAAAAAAA0YIAAAAAAAACRQAAAGgAACAAADASAmAAyDoAABgCIAiDSCAACCAAkIAAAiAEGCMgMJzaGNRqCe2Cl4BUIuQeI7PzOoAABCAAYAABAAAIQADAAAAAAAAAAAA==

> <PUBCHEM_IUPAC_OPENEYE_NAME>
3,7,9-trihydroxy-1-methyl-benzo[c]chromen-6-one

> <PUBCHEM_IUPAC_CAS_NAME>
3,7,9-trihydroxy-1-methyl-6-benzo[c][1]benzopyranone

> <PUBCHEM_IUPAC_NAME>
3,7,9-trihydroxy-1-methylbenzo[c]chromen-6-one

> <PUBCHEM_IUPAC_SYSTEMATIC_NAME>
1-methyl-3,7,9-tris(oxidanyl)benzo[c]chromen-6-one

> <PUBCHEM_IUPAC_TRADITIONAL_NAME>
3,7,9-trihydroxy-1-methyl-benzo[c]chromen-6-one

> <PUBCHEM_IUPAC_INCHI>
InChI=1S/C14H10O5/c1-6-2-7(15)5-11-12(6)9-3-8(16)4-10(17)13(9)14(18)19-11/h2-5,15-17H,1H3

> <PUBCHEM_IUPAC_INCHIKEY>
CEBXXEKPIIDJHL-UHFFFAOYSA-N

> <PUBCHEM_XLOGP3_AA>
2.9

> <PUBCHEM_EXACT_MASS>
258.052823

> <PUBCHEM_MOLECULAR_FORMULA>
C14H10O5

> <PUBCHEM_MOLECULAR_WEIGHT>
258.2262

> <PUBCHEM_OPENEYE_CAN_SMILES>
CC1=CC(=CC2=C1C3=CC(=CC(=C3C(=O)O2)O)O)O

> <PUBCHEM_OPENEYE_ISO_SMILES>
CC1=CC(=CC2=C1C3=CC(=CC(=C3C(=O)O2)O)O)O

> <PUBCHEM_CACTVS_TPSA>
87

> <PUBCHEM_MONOISOTOPIC_WEIGHT>
258.052823

> <PUBCHEM_TOTAL_CHARGE>
0

> <PUBCHEM_HEAVY_ATOM_COUNT>
19

> <PUBCHEM_ATOM_DEF_STEREO_COUNT>
0

> <PUBCHEM_ATOM_UDEF_STEREO_COUNT>
0

> <PUBCHEM_BOND_DEF_STEREO_COUNT>
0

> <PUBCHEM_BOND_UDEF_STEREO_COUNT>
0

> <PUBCHEM_ISOTOPIC_ATOM_COUNT>
0

> <PUBCHEM_COMPONENT_COUNT>
1

> <PUBCHEM_CACTVS_TAUTO_COUNT>
147

> <PUBCHEM_COORDINATE_TYPE>
1
5
255

> <PUBCHEM_BONDANNOTATIONS>
1  10  8
1  15  8
10  14  8
11  18  8
12  19  8
13  16  8
14  16  8
18  19  8
6  10  8
6  7  8
6  9  8
7  11  8
7  8  8
8  12  8
8  15  8
9  13  8

$$$$

