443480
  -OEChem-07051213022D

 55 58  0     1  0  0  0  0  0999 V2000
    5.0968    2.9664    0.0000 O   0  0  0  0  0  0  0  0  0  0  0  0
    3.7706    0.2124    0.0000 C   0  0  2  0  0  0  0  0  0  0  0  0
    3.8644   -0.8250    0.0000 C   0  0  2  0  0  0  0  0  0  0  0  0
    2.8696    0.6463    0.0000 C   0  0  2  0  0  0  0  0  0  0  0  0
    3.0083   -1.4184    0.0000 C   0  0  1  0  0  0  0  0  0  0  0  0
    3.8774    1.3892    0.0000 C   0  0  0  0  0  0  0  0  0  0  0  0
    3.2706    2.4030    0.0000 C   0  0  2  0  0  0  0  0  0  0  0  0
    2.6471    1.6212    0.0000 C   0  0  0  0  0  0  0  0  0  0  0  0
    4.6715    0.6463    0.0000 C   0  0  0  0  0  0  0  0  0  0  0  0
    2.0000    0.0728    0.0000 C   0  0  0  0  0  0  0  0  0  0  0  0
    2.0698   -0.9664    0.0000 C   0  0  0  0  0  0  0  0  0  0  0  0
    4.2706    2.4030    0.0000 C   0  0  1  0  0  0  0  0  0  0  0  0
    3.0810   -2.5010    0.0000 C   0  0  0  0  0  0  0  0  0  0  0  0
    4.8526   -1.2730    0.0000 C   0  0  0  0  0  0  0  0  0  0  0  0
    4.8940    1.6212    0.0000 C   0  0  0  0  0  0  0  0  0  0  0  0
    4.6863   -0.2553    0.0000 C   0  0  0  0  0  0  0  0  0  0  0  0
    4.0586   -2.9717    0.0000 C   0  0  0  0  0  0  0  0  0  0  0  0
    4.9503   -2.3536    0.0000 C   0  0  0  0  0  0  0  0  0  0  0  0
    2.6437   -3.4002    0.0000 C   0  0  0  0  0  0  0  0  0  0  0  0
    2.0836   -2.5718    0.0000 C   0  0  0  0  0  0  0  0  0  0  0  0
    4.1958    3.4002    0.0000 C   0  0  0  0  0  0  0  0  0  0  0  0
    2.1038    1.0151    0.0000 H   0  0  0  0  0  0  0  0  0  0  0  0
    2.3042   -1.8945    0.0000 H   0  0  0  0  0  0  0  0  0  0  0  0
    4.4474    1.1453    0.0000 H   0  0  0  0  0  0  0  0  0  0  0  0
    4.2852    1.8562    0.0000 H   0  0  0  0  0  0  0  0  0  0  0  0
    3.0814    3.2317    0.0000 H   0  0  0  0  0  0  0  0  0  0  0  0
    2.2605    2.1059    0.0000 H   0  0  0  0  0  0  0  0  0  0  0  0
    2.0885    1.3522    0.0000 H   0  0  0  0  0  0  0  0  0  0  0  0
    4.8095    0.0418    0.0000 H   0  0  0  0  0  0  0  0  0  0  0  0
    5.2915    0.6463    0.0000 H   0  0  0  0  0  0  0  0  0  0  0  0
    1.7523    0.6412    0.0000 H   0  0  0  0  0  0  0  0  0  0  0  0
    1.3976   -0.0740    0.0000 H   0  0  0  0  0  0  0  0  0  0  0  0
    1.4532   -0.9015    0.0000 H   0  0  0  0  0  0  0  0  0  0  0  0
    1.9004   -1.5628    0.0000 H   0  0  0  0  0  0  0  0  0  0  0  0
    5.4705   -1.3237    0.0000 H   0  0  0  0  0  0  0  0  0  0  0  0
    5.0082   -0.6729    0.0000 H   0  0  0  0  0  0  0  0  0  0  0  0
    5.4526    1.3522    0.0000 H   0  0  0  0  0  0  0  0  0  0  0  0
    5.2806    2.1059    0.0000 H   0  0  0  0  0  0  0  0  0  0  0  0
    5.0395   -0.7649    0.0000 H   0  0  0  0  0  0  0  0  0  0  0  0
    5.1958    0.0979    0.0000 H   0  0  0  0  0  0  0  0  0  0  0  0
    4.3331    0.2542    0.0000 H   0  0  0  0  0  0  0  0  0  0  0  0
    3.6980   -3.4760    0.0000 H   0  0  0  0  0  0  0  0  0  0  0  0
    4.4938   -3.4133    0.0000 H   0  0  0  0  0  0  0  0  0  0  0  0
    5.2111   -2.9161    0.0000 H   0  0  0  0  0  0  0  0  0  0  0  0
    5.5491   -2.1929    0.0000 H   0  0  0  0  0  0  0  0  0  0  0  0
    2.0861   -3.1291    0.0000 H   0  0  0  0  0  0  0  0  0  0  0  0
    2.3725   -3.9578    0.0000 H   0  0  0  0  0  0  0  0  0  0  0  0
    3.2012   -3.6714    0.0000 H   0  0  0  0  0  0  0  0  0  0  0  0
    2.0396   -1.9534    0.0000 H   0  0  0  0  0  0  0  0  0  0  0  0
    1.4651   -2.6158    0.0000 H   0  0  0  0  0  0  0  0  0  0  0  0
    2.1275   -3.1903    0.0000 H   0  0  0  0  0  0  0  0  0  0  0  0
    4.8141    3.4466    0.0000 H   0  0  0  0  0  0  0  0  0  0  0  0
    4.1495    4.0185    0.0000 H   0  0  0  0  0  0  0  0  0  0  0  0
    3.5776    3.3539    0.0000 H   0  0  0  0  0  0  0  0  0  0  0  0
    5.6554    2.6974    0.0000 H   0  0  0  0  0  0  0  0  0  0  0  0
 12  1  1  6  0  0  0
  1 55  1  0  0  0  0
  2  3  1  0  0  0  0
  2  4  1  0  0  0  0
  2  6  1  6  0  0  0
  2  9  1  0  0  0  0
  3  5  1  0  0  0  0
  3 14  1  0  0  0  0
  3 16  1  6  0  0  0
  4  8  1  0  0  0  0
  4 10  1  0  0  0  0
  4 22  1  6  0  0  0
  5 11  1  0  0  0  0
  5 13  1  0  0  0  0
  5 23  1  1  0  0  0
  6  7  1  0  0  0  0
  6 24  1  0  0  0  0
  6 25  1  0  0  0  0
  7  8  1  0  0  0  0
  7 12  1  0  0  0  0
  7 26  1  1  0  0  0
  8 27  1  0  0  0  0
  8 28  1  0  0  0  0
  9 15  1  0  0  0  0
  9 29  1  0  0  0  0
  9 30  1  0  0  0  0
 10 11  1  0  0  0  0
 10 31  1  0  0  0  0
 10 32  1  0  0  0  0
 11 33  1  0  0  0  0
 11 34  1  0  0  0  0
 12 15  1  0  0  0  0
 12 21  1  0  0  0  0
 13 17  1  0  0  0  0
 13 19  1  0  0  0  0
 13 20  1  0  0  0  0
 14 18  1  0  0  0  0
 14 35  1  0  0  0  0
 14 36  1  0  0  0  0
 15 37  1  0  0  0  0
 15 38  1  0  0  0  0
 16 39  1  0  0  0  0
 16 40  1  0  0  0  0
 16 41  1  0  0  0  0
 17 18  1  0  0  0  0
 17 42  1  0  0  0  0
 17 43  1  0  0  0  0
 18 44  1  0  0  0  0
 18 45  1  0  0  0  0
 19 46  1  0  0  0  0
 19 47  1  0  0  0  0
 19 48  1  0  0  0  0
 20 49  1  0  0  0  0
 20 50  1  0  0  0  0
 20 51  1  0  0  0  0
 21 52  1  0  0  0  0
 21 53  1  0  0  0  0
 21 54  1  0  0  0  0
M  END
> <PUBCHEM_COMPOUND_CID>
443480

> <PUBCHEM_COMPOUND_CANONICALIZED>
1

> <PUBCHEM_CACTVS_COMPLEXITY>
455

> <PUBCHEM_CACTVS_HBOND_ACCEPTOR>
1

> <PUBCHEM_CACTVS_HBOND_DONOR>
1

> <PUBCHEM_CACTVS_ROTATABLE_BOND>
0

> <PUBCHEM_CACTVS_SUBSKEYS>
AAADcfB4IAAAAAAAAAAAAAAAAAAAAYAAAAAwYMAABgAAAGDAAAAAGgAACAAAD0SAgAACAAAAAgAAAAAAAAAAAAAAAAAAAAAAAAAAAAIAAAAAQAAEAAAAAAGAwPAPgAAAAAAAAADAAAQAADAAAQAACAAAAA==

> <PUBCHEM_IUPAC_INCHI>
InChI=1S/C20H34O/c1-17(2)8-5-9-18(3)16(17)7-6-14-12-15-13-20(14,18)11-10-19(15,4)21/h14-16,21H,5-13H2,1-4H3/t14-,15-,16-,18-,19+,20-/m0/s1

> <PUBCHEM_IUPAC_INCHIKEY>
ODCPNBCPLWJVQI-NHWXPXPKSA-N

> <PUBCHEM_XLOGP3_AA>
5.8

> <PUBCHEM_EXACT_MASS>
290.260966

> <PUBCHEM_MOLECULAR_FORMULA>
C20H34O

> <PUBCHEM_MOLECULAR_WEIGHT>
290.48336

> <PUBCHEM_OPENEYE_CAN_SMILES>
CC1(CCCC2(C1CCC3C24CCC(C(C3)C4)(C)O)C)C

> <PUBCHEM_OPENEYE_ISO_SMILES>
C[C@]12CCCC([C@@H]1CC[C@@H]3[C@@]24CC[C@@]([C@@H](C3)C4)(C)O)(C)C

> <PUBCHEM_CACTVS_TPSA>
20.2

> <PUBCHEM_MONOISOTOPIC_WEIGHT>
290.260966

> <PUBCHEM_TOTAL_CHARGE>
0

> <PUBCHEM_HEAVY_ATOM_COUNT>
21

> <PUBCHEM_ATOM_DEF_STEREO_COUNT>
6

> <PUBCHEM_ATOM_UDEF_STEREO_COUNT>
0

> <PUBCHEM_BOND_DEF_STEREO_COUNT>
0

> <PUBCHEM_BOND_UDEF_STEREO_COUNT>
0

> <PUBCHEM_ISOTOPIC_ATOM_COUNT>
0

> <PUBCHEM_COMPONENT_COUNT>
1

> <PUBCHEM_CACTVS_TAUTO_COUNT>
1

> <PUBCHEM_COORDINATE_TYPE>
1
5
255

> <PUBCHEM_BONDANNOTATIONS>
12  1  6
2  6  6
3  16  6
4  22  6
5  23  5
7  26  5

$$$$

