5311102
  -OEChem-07051213012D

 83 84  0     1  0  0  0  0  0999 V2000
    8.4382    2.8563    0.0000 O   0  0  0  0  0  0  0  0  0  0  0  0
    6.7061    3.8563    0.0000 O   0  0  0  0  0  0  0  0  0  0  0  0
    7.5722   -0.6437    0.0000 O   0  0  0  0  0  0  0  0  0  0  0  0
    4.2091   -0.7335    0.0000 O   0  0  0  0  0  0  0  0  0  0  0  0
    5.5813   -2.0238    0.0000 O   0  0  0  0  0  0  0  0  0  0  0  0
    8.3194   -1.8173    0.0000 O   0  0  0  0  0  0  0  0  0  0  0  0
   11.9023   -0.1437    0.0000 O   0  0  0  0  0  0  0  0  0  0  0  0
    3.5463    0.8667    0.0000 O   0  0  0  0  0  0  0  0  0  0  0  0
    8.6564   -4.3563    0.0000 O   0  0  0  0  0  0  0  0  0  0  0  0
   10.1702   -3.1437    0.0000 N   0  0  0  0  0  0  0  0  0  0  0  0
    2.4919   -0.5074    0.0000 N   0  0  0  0  0  0  0  0  0  0  0  0
    7.5722    2.3563    0.0000 C   0  0  1  0  0  0  0  0  0  0  0  0
    7.5722    1.3563    0.0000 C   0  0  0  0  0  0  0  0  0  0  0  0
    8.4382    0.8563    0.0000 C   0  0  1  0  0  0  0  0  0  0  0  0
    6.7061    2.8563    0.0000 C   0  0  1  0  0  0  0  0  0  0  0  0
    5.8401    2.3563    0.0000 C   0  0  2  0  0  0  0  0  0  0  0  0
    8.4382   -0.1437    0.0000 C   0  0  2  0  0  0  0  0  0  0  0  0
    9.3042    1.3563    0.0000 C   0  0  0  0  0  0  0  0  0  0  0  0
    5.8401    1.3563    0.0000 C   0  0  0  0  0  0  0  0  0  0  0  0
    4.9741    2.8563    0.0000 C   0  0  0  0  0  0  0  0  0  0  0  0
    9.3042   -0.6437    0.0000 C   0  0  0  0  0  0  0  0  0  0  0  0
    5.1330    0.6492    0.0000 C   0  0  0  0  0  0  0  0  0  0  0  0
    5.1330   -0.3508    0.0000 C   0  0  1  0  0  0  0  0  0  0  0  0
    9.3042   -1.6437    0.0000 C   0  0  0  0  0  0  0  0  0  0  0  0
   10.1702   -0.1437    0.0000 C   0  0  0  0  0  0  0  0  0  0  0  0
    8.4382    3.8563    0.0000 C   0  0  0  0  0  0  0  0  0  0  0  0
    5.8401    4.3563    0.0000 C   0  0  0  0  0  0  0  0  0  0  0  0
    5.8401   -1.0579    0.0000 C   0  0  2  0  0  0  0  0  0  0  0  0
    4.2091    1.0319    0.0000 C   0  0  0  0  0  0  0  0  0  0  0  0
    7.0722   -1.5098    0.0000 C   0  0  0  0  0  0  0  0  0  0  0  0
   10.1702   -2.1437    0.0000 C   0  0  0  0  0  0  0  0  0  0  0  0
   11.0363   -0.6437    0.0000 C   0  0  0  0  0  0  0  0  0  0  0  0
   11.0363   -1.6437    0.0000 C   0  0  0  0  0  0  0  0  0  0  0  0
    6.8060   -0.7991    0.0000 C   0  0  0  0  0  0  0  0  0  0  0  0
    7.6720   -1.2991    0.0000 C   0  0  0  0  0  0  0  0  0  0  0  0
    3.4158   -0.1247    0.0000 C   0  0  0  0  0  0  0  0  0  0  0  0
    9.1556   -3.4898    0.0000 C   0  0  0  0  0  0  0  0  0  0  0  0
    4.6154   -2.2827    0.0000 C   0  0  0  0  0  0  0  0  0  0  0  0
    8.8968   -2.5238    0.0000 C   0  0  0  0  0  0  0  0  0  0  0  0
    7.9309   -2.2650    0.0000 C   0  0  0  0  0  0  0  0  0  0  0  0
    9.8388   -1.8642    0.0000 C   0  0  0  0  0  0  0  0  0  0  0  0
    8.1091    2.0463    0.0000 H   0  0  0  0  0  0  0  0  0  0  0  0
    6.9616    1.4640    0.0000 H   0  0  0  0  0  0  0  0  0  0  0  0
    7.3601    0.7737    0.0000 H   0  0  0  0  0  0  0  0  0  0  0  0
    8.4382    1.4763    0.0000 H   0  0  0  0  0  0  0  0  0  0  0  0
    7.2431    3.1663    0.0000 H   0  0  0  0  0  0  0  0  0  0  0  0
    5.8401    2.9763    0.0000 H   0  0  0  0  0  0  0  0  0  0  0  0
    7.9012    0.1663    0.0000 H   0  0  0  0  0  0  0  0  0  0  0  0
    9.6142    0.8194    0.0000 H   0  0  0  0  0  0  0  0  0  0  0  0
    9.8411    1.6663    0.0000 H   0  0  0  0  0  0  0  0  0  0  0  0
    8.9942    1.8932    0.0000 H   0  0  0  0  0  0  0  0  0  0  0  0
    6.4129    1.1190    0.0000 H   0  0  0  0  0  0  0  0  0  0  0  0
    5.2841    3.3932    0.0000 H   0  0  0  0  0  0  0  0  0  0  0  0
    4.4371    3.1663    0.0000 H   0  0  0  0  0  0  0  0  0  0  0  0
    4.6641    2.3194    0.0000 H   0  0  0  0  0  0  0  0  0  0  0  0
    4.6175   -0.0064    0.0000 H   0  0  0  0  0  0  0  0  0  0  0  0
   10.1702    0.4763    0.0000 H   0  0  0  0  0  0  0  0  0  0  0  0
    9.0582    3.8563    0.0000 H   0  0  0  0  0  0  0  0  0  0  0  0
    8.4382    4.4763    0.0000 H   0  0  0  0  0  0  0  0  0  0  0  0
    7.8182    3.8563    0.0000 H   0  0  0  0  0  0  0  0  0  0  0  0
    6.1501    4.8932    0.0000 H   0  0  0  0  0  0  0  0  0  0  0  0
    5.3032    4.6663    0.0000 H   0  0  0  0  0  0  0  0  0  0  0  0
    5.5301    3.8194    0.0000 H   0  0  0  0  0  0  0  0  0  0  0  0
    6.2785   -1.4963    0.0000 H   0  0  0  0  0  0  0  0  0  0  0  0
    4.4464    1.6047    0.0000 H   0  0  0  0  0  0  0  0  0  0  0  0
    3.6363    1.2691    0.0000 H   0  0  0  0  0  0  0  0  0  0  0  0
    3.9718    0.4591    0.0000 H   0  0  0  0  0  0  0  0  0  0  0  0
    6.5353   -1.1998    0.0000 H   0  0  0  0  0  0  0  0  0  0  0  0
    6.7623   -2.0468    0.0000 H   0  0  0  0  0  0  0  0  0  0  0  0
    7.6092   -1.8197    0.0000 H   0  0  0  0  0  0  0  0  0  0  0  0
   11.5732   -1.9537    0.0000 H   0  0  0  0  0  0  0  0  0  0  0  0
    6.8870   -0.1844    0.0000 H   0  0  0  0  0  0  0  0  0  0  0  0
   10.6914   -3.4796    0.0000 H   0  0  0  0  0  0  0  0  0  0  0  0
    8.1639   -0.9217    0.0000 H   0  0  0  0  0  0  0  0  0  0  0  0
    4.4549   -1.6838    0.0000 H   0  0  0  0  0  0  0  0  0  0  0  0
    4.0165   -2.4431    0.0000 H   0  0  0  0  0  0  0  0  0  0  0  0
    4.7758   -2.8816    0.0000 H   0  0  0  0  0  0  0  0  0  0  0  0
    7.4925   -2.7034    0.0000 H   0  0  0  0  0  0  0  0  0  0  0  0
   10.1944   -2.3721    0.0000 H   0  0  0  0  0  0  0  0  0  0  0  0
   10.3467   -1.5086    0.0000 H   0  0  0  0  0  0  0  0  0  0  0  0
    9.4832   -1.3564    0.0000 H   0  0  0  0  0  0  0  0  0  0  0  0
    2.0000   -0.1300    0.0000 H   0  0  0  0  0  0  0  0  0  0  0  0
    2.4110   -1.1221    0.0000 H   0  0  0  0  0  0  0  0  0  0  0  0
 12  1  1  1  0  0  0
  1 26  1  0  0  0  0
 15  2  1  1  0  0  0
  2 27  1  0  0  0  0
 17  3  1  6  0  0  0
  3 30  1  0  0  0  0
 23  4  1  1  0  0  0
  4 36  1  0  0  0  0
 28  5  1  6  0  0  0
  5 38  1  0  0  0  0
  6 24  2  0  0  0  0
  7 32  2  0  0  0  0
  8 36  2  0  0  0  0
  9 37  2  0  0  0  0
 10 31  1  0  0  0  0
 10 37  1  0  0  0  0
 10 73  1  0  0  0  0
 11 36  1  0  0  0  0
 11 82  1  0  0  0  0
 11 83  1  0  0  0  0
 12 13  1  0  0  0  0
 12 15  1  0  0  0  0
 12 42  1  0  0  0  0
 13 14  1  0  0  0  0
 13 43  1  0  0  0  0
 13 44  1  0  0  0  0
 14 17  1  0  0  0  0
 14 18  1  6  0  0  0
 14 45  1  0  0  0  0
 15 16  1  0  0  0  0
 15 46  1  0  0  0  0
 16 19  1  0  0  0  0
 16 20  1  6  0  0  0
 16 47  1  0  0  0  0
 17 21  1  0  0  0  0
 17 48  1  0  0  0  0
 18 49  1  0  0  0  0
 18 50  1  0  0  0  0
 18 51  1  0  0  0  0
 19 22  2  0  0  0  0
 19 52  1  0  0  0  0
 20 53  1  0  0  0  0
 20 54  1  0  0  0  0
 20 55  1  0  0  0  0
 21 24  1  0  0  0  0
 21 25  2  0  0  0  0
 22 23  1  0  0  0  0
 22 29  1  0  0  0  0
 23 28  1  0  0  0  0
 23 56  1  0  0  0  0
 24 31  1  0  0  0  0
 25 32  1  0  0  0  0
 25 57  1  0  0  0  0
 26 58  1  0  0  0  0
 26 59  1  0  0  0  0
 26 60  1  0  0  0  0
 27 61  1  0  0  0  0
 27 62  1  0  0  0  0
 27 63  1  0  0  0  0
 28 34  1  0  0  0  0
 28 64  1  0  0  0  0
 29 65  1  0  0  0  0
 29 66  1  0  0  0  0
 29 67  1  0  0  0  0
 30 68  1  0  0  0  0
 30 69  1  0  0  0  0
 30 70  1  0  0  0  0
 31 33  2  0  0  0  0
 32 33  1  0  0  0  0
 33 71  1  0  0  0  0
 34 35  2  0  0  0  0
 34 72  1  0  0  0  0
 35 40  1  0  0  0  0
 35 74  1  0  0  0  0
 37 39  1  0  0  0  0
 38 75  1  0  0  0  0
 38 76  1  0  0  0  0
 38 77  1  0  0  0  0
 39 40  2  0  0  0  0
 39 41  1  0  0  0  0
 40 78  1  0  0  0  0
 41 79  1  0  0  0  0
 41 80  1  0  0  0  0
 41 81  1  0  0  0  0
M  END
> <PUBCHEM_COMPOUND_CID>
5311102

> <PUBCHEM_COMPOUND_CANONICALIZED>
1

> <PUBCHEM_CACTVS_COMPLEXITY>
1150

> <PUBCHEM_CACTVS_HBOND_ACCEPTOR>
9

> <PUBCHEM_CACTVS_HBOND_DONOR>
2

> <PUBCHEM_CACTVS_ROTATABLE_BOND>
6

> <PUBCHEM_CACTVS_SUBSKEYS>
AAADcfB7PAAAAAAAAAAAAAAAAAAAAAAAAAAgAAAAAAAAAAAAAAAAHgAQAAAADRyhgAICCALABACIAqVSWACAAAAgAgAICAGAAEkJBBYAoSAMEAAE5ACKocP46OyOAAAAAAAAAAAAAAAAAAAAAAAAAAAAAA==

> <PUBCHEM_IUPAC_OPENEYE_NAME>
[(2R,3S,5S,6R,7S,8E,10S,11S,12Z,14E)-2,5,6,11-tetramethoxy-3,7,9,15-tetramethyl-16,20,22-trioxo-17-azabicyclo[16.3.1]docosa-1(21),8,12,14,18-pentaen-10-yl] carbamate

> <PUBCHEM_IUPAC_CAS_NAME>
carbamic acid [(2R,3S,5S,6R,7S,8E,10S,11S,12Z,14E)-2,5,6,11-tetramethoxy-3,7,9,15-tetramethyl-16,20,22-trioxo-17-azabicyclo[16.3.1]docosa-1(21),8,12,14,18-pentaen-10-yl] ester

> <PUBCHEM_IUPAC_NAME>
[(2R,3S,5S,6R,7S,8E,10S,11S,12Z,14E)-2,5,6,11-tetramethoxy-3,7,9,15-tetramethyl-16,20,22-trioxo-17-azabicyclo[16.3.1]docosa-1(21),8,12,14,18-pentaen-10-yl] carbamate

> <PUBCHEM_IUPAC_SYSTEMATIC_NAME>
[(2R,3S,5S,6R,7S,8E,10S,11S,12Z,14E)-2,5,6,11-tetramethoxy-3,7,9,15-tetramethyl-16,20,22-tris(oxidanylidene)-17-azabicyclo[16.3.1]docosa-1(21),8,12,14,18-pentaen-10-yl] carbamate

> <PUBCHEM_IUPAC_TRADITIONAL_NAME>
carbamic acid [(2R,3S,5S,6R,7S,8E,10S,11S,12Z,14E)-16,20,22-triketo-2,5,6,11-tetramethoxy-3,7,9,15-tetramethyl-17-azabicyclo[16.3.1]docosa-1(21),8,12,14,18-pentaen-10-yl] ester

> <PUBCHEM_IUPAC_INCHI>
InChI=1S/C30H42N2O9/c1-16-10-9-11-23(37-5)28(41-30(31)36)18(3)12-17(2)27(40-8)24(38-6)13-19(4)26(39-7)21-14-20(33)15-22(25(21)34)32-29(16)35/h9-12,14-15,17,19,23-24,26-28H,13H2,1-8H3,(H2,31,36)(H,32,35)/b11-9-,16-10+,18-12+/t17-,19-,23-,24-,26+,27+,28-/m0/s1

> <PUBCHEM_IUPAC_INCHIKEY>
MCAHMSDENAOJFZ-BVXDHVRPSA-N

> <PUBCHEM_XLOGP3_AA>
1.8

> <PUBCHEM_EXACT_MASS>
574.289031

> <PUBCHEM_MOLECULAR_FORMULA>
C30H42N2O9

> <PUBCHEM_MOLECULAR_WEIGHT>
574.66248

> <PUBCHEM_OPENEYE_CAN_SMILES>
CC1CC(C(C(C=C(C(C(C=CC=C(C(=O)NC2=CC(=O)C=C(C1OC)C2=O)C)OC)OC(=O)N)C)C)OC)OC

> <PUBCHEM_OPENEYE_ISO_SMILES>
C[C@H]1C[C@@H]([C@@H]([C@H](/C=C(/[C@@H]([C@H](/C=C\C=C(\C(=O)NC2=CC(=O)C=C([C@@H]1OC)C2=O)/C)OC)OC(=O)N)\C)C)OC)OC

> <PUBCHEM_CACTVS_TPSA>
153

> <PUBCHEM_MONOISOTOPIC_WEIGHT>
574.289031

> <PUBCHEM_TOTAL_CHARGE>
0

> <PUBCHEM_HEAVY_ATOM_COUNT>
41

> <PUBCHEM_ATOM_DEF_STEREO_COUNT>
7

> <PUBCHEM_ATOM_UDEF_STEREO_COUNT>
0

> <PUBCHEM_BOND_DEF_STEREO_COUNT>
3

> <PUBCHEM_BOND_UDEF_STEREO_COUNT>
0

> <PUBCHEM_ISOTOPIC_ATOM_COUNT>
0

> <PUBCHEM_COMPONENT_COUNT>
1

> <PUBCHEM_CACTVS_TAUTO_COUNT>
8

> <PUBCHEM_COORDINATE_TYPE>
1
5
255

> <PUBCHEM_BONDANNOTATIONS>
12  1  5
14  18  6
16  20  6
15  2  5
17  3  6
23  4  5
28  5  6

$$$$

