   Color/Form
        WHITE TO CREAMY WHITE CRYSTALLINE POWDER OR SMALL WHITE PRISMS OR
   LEAFLETS
   from [1]HSDB

   Odor
        ODORLESS
   from [2]HSDB

   Melting Point
        149 deg C
   from [3]HSDB

   Octanol/Water Partition Coefficient
        log Kow= 0.71
   from [4]HSDB

   Solubilities

     * Very soluble in 2-(2-ethoxyethoxy)ethanol.
     * 1 G SOL IN 180 ML WATER, 225 ML ALCOHOL, 6.8 ML CHLOROFORM, 200 ML
       ETHER
     * Soluble in acetic acid
     * In acetone 48, 95% ethanol 17, benzene 15 (all in g/l, 15 degree C)
     * In water, 4,370 mg/l @ room temperature.

   from [5]HSDB

   Spectral Properties

     * Intense mass spectral peaks: 77 m/z (100%), 51 m/z (62%), 50 m/z
       (28%), 279 m/z (15%)
     * Intense mass spectral peaks: 63 m/z, 93 m/z, 238 m/z, 327 m/z

   from [6]HSDB

   Vapor Pressure
        6.0X10-6 mm Hg @ 20 deg C
   from [7]HSDB

   Other Chemical/Physical Properties

     * /Vapor pressure is/ 1.2 mPa at 35 deg C
     * Very stable in dilute acids. In the presence of alkalis,
       phenylmercury hydroxide is formed.

   from [8]HSDB

   Computed Properties
   Molecular Weight                  336.73792 [g/mol]
   Molecular Formula                 C[8]H[8]HgO[2]
   H-Bond Donor                      0
   H-Bond Acceptor                   2
   Rotatable Bond Count              3
   Exact Mass                        338.023072
   MonoIsotopic Mass                 338.023072
   Topological Polar Surface Area    26.3
   Heavy Atom Count                  11
   Formal Charge                     0
   Complexity                        130
   Isotope Atom Count                0
   Defined Atom Stereocenter Count   0
   Undefined Atom Stereocenter Count 0
   Defined Bond Stereocenter Count   0
   Undefined Bond Stereocenter Count 0
   Covalently-Bonded Unit Count      1

References

   1. http://toxnet.nlm.nih.gov/cgi-bin/sis/search/r?dbs+hsdb:@term+@rn+@rel+62-38-4
   2. http://toxnet.nlm.nih.gov/cgi-bin/sis/search/r?dbs+hsdb:@term+@rn+@rel+62-38-4
   3. http://toxnet.nlm.nih.gov/cgi-bin/sis/search/r?dbs+hsdb:@term+@rn+@rel+62-38-4
   4. http://toxnet.nlm.nih.gov/cgi-bin/sis/search/r?dbs+hsdb:@term+@rn+@rel+62-38-4
   5. http://toxnet.nlm.nih.gov/cgi-bin/sis/search/r?dbs+hsdb:@term+@rn+@rel+62-38-4
   6. http://toxnet.nlm.nih.gov/cgi-bin/sis/search/r?dbs+hsdb:@term+@rn+@rel+62-38-4
   7. http://toxnet.nlm.nih.gov/cgi-bin/sis/search/r?dbs+hsdb:@term+@rn+@rel+62-38-4
   8. http://toxnet.nlm.nih.gov/cgi-bin/sis/search/r?dbs+hsdb:@term+@rn+@rel+62-38-4
