10452519
  -OEChem-07051213152D

 51 52  0     1  0  0  0  0  0999 V2000
    4.2690    0.4050    0.0000 O   0  0  0  0  0  0  0  0  0  0  0  0
    6.0010    0.4050    0.0000 O   0  0  0  0  0  0  0  0  0  0  0  0
    2.5369   -0.5950    0.0000 O   0  0  0  0  0  0  0  0  0  0  0  0
    6.0010   -0.5950    0.0000 O   0  0  0  0  0  0  0  0  0  0  0  0
    2.5369   -2.5950    0.0000 O   0  0  0  0  0  0  0  0  0  0  0  0
    6.0010   -2.5950    0.0000 O   0  0  0  0  0  0  0  0  0  0  0  0
    4.2690   -3.5950    0.0000 O   0  0  0  0  0  0  0  0  0  0  0  0
    6.0010    3.4050    0.0000 O   0  0  0  0  0  0  0  0  0  0  0  0
    7.7331    2.4050    0.0000 O   0  0  0  0  0  0  0  0  0  0  0  0
    8.5991    0.9050    0.0000 O   0  0  0  0  0  0  0  0  0  0  0  0
    5.1350    3.9050    0.0000 O   0  0  0  0  0  0  0  0  0  0  0  0
    4.2690    2.4050    0.0000 N   0  0  0  0  0  0  0  0  0  0  0  0
    4.2690   -0.5950    0.0000 C   0  0  0  0  0  0  0  0  0  0  0  0
    3.4030   -1.0950    0.0000 C   0  0  1  0  0  0  0  0  0  0  0  0
    5.1350   -1.0950    0.0000 C   0  0  1  0  0  0  0  0  0  0  0  0
    3.4030   -2.0950    0.0000 C   0  0  2  0  0  0  0  0  0  0  0  0
    5.1350   -2.0950    0.0000 C   0  0  1  0  0  0  0  0  0  0  0  0
    4.2690   -2.5950    0.0000 C   0  0  0  0  0  0  0  0  0  0  0  0
    5.1350    0.9050    0.0000 C   0  0  1  0  0  0  0  0  0  0  0  0
    5.1350    1.9050    0.0000 C   0  0  1  0  0  0  0  0  0  0  0  0
    6.0010    2.4050    0.0000 C   0  0  2  0  0  0  0  0  0  0  0  0
    6.8671    1.9050    0.0000 C   0  0  1  0  0  0  0  0  0  0  0  0
    6.8671    0.9050    0.0000 C   0  0  1  0  0  0  0  0  0  0  0  0
    7.7331    0.4050    0.0000 C   0  0  0  0  0  0  0  0  0  0  0  0
    4.2690    3.4050    0.0000 C   0  0  0  0  0  0  0  0  0  0  0  0
    3.4030    3.9050    0.0000 C   0  0  0  0  0  0  0  0  0  0  0  0
    4.8059   -0.2850    0.0000 H   0  0  0  0  0  0  0  0  0  0  0  0
    3.4030   -0.4750    0.0000 H   0  0  0  0  0  0  0  0  0  0  0  0
    5.1350   -0.4750    0.0000 H   0  0  0  0  0  0  0  0  0  0  0  0
    3.4030   -2.7150    0.0000 H   0  0  0  0  0  0  0  0  0  0  0  0
    5.1350   -2.7150    0.0000 H   0  0  0  0  0  0  0  0  0  0  0  0
    4.8059   -2.9050    0.0000 H   0  0  0  0  0  0  0  0  0  0  0  0
    5.1350    0.2850    0.0000 H   0  0  0  0  0  0  0  0  0  0  0  0
    5.1350    2.5250    0.0000 H   0  0  0  0  0  0  0  0  0  0  0  0
    6.5380    2.7150    0.0000 H   0  0  0  0  0  0  0  0  0  0  0  0
    7.4040    1.5950    0.0000 H   0  0  0  0  0  0  0  0  0  0  0  0
    6.8671    0.2850    0.0000 H   0  0  0  0  0  0  0  0  0  0  0  0
    3.7320    2.0950    0.0000 H   0  0  0  0  0  0  0  0  0  0  0  0
    7.3346   -0.0699    0.0000 H   0  0  0  0  0  0  0  0  0  0  0  0
    8.1316   -0.0699    0.0000 H   0  0  0  0  0  0  0  0  0  0  0  0
    2.0000   -0.9050    0.0000 H   0  0  0  0  0  0  0  0  0  0  0  0
    6.5380   -0.9050    0.0000 H   0  0  0  0  0  0  0  0  0  0  0  0
    2.5369   -3.2150    0.0000 H   0  0  0  0  0  0  0  0  0  0  0  0
    6.0010   -3.2150    0.0000 H   0  0  0  0  0  0  0  0  0  0  0  0
    3.7320   -3.9050    0.0000 H   0  0  0  0  0  0  0  0  0  0  0  0
    6.5380    3.7150    0.0000 H   0  0  0  0  0  0  0  0  0  0  0  0
    7.7331    3.0250    0.0000 H   0  0  0  0  0  0  0  0  0  0  0  0
    9.1360    0.5950    0.0000 H   0  0  0  0  0  0  0  0  0  0  0  0
    3.7130    4.4419    0.0000 H   0  0  0  0  0  0  0  0  0  0  0  0
    2.8660    4.2150    0.0000 H   0  0  0  0  0  0  0  0  0  0  0  0
    3.0930    3.3681    0.0000 H   0  0  0  0  0  0  0  0  0  0  0  0
  1 13  1  0  0  0  0
 19  1  1  6  0  0  0
  2 19  1  0  0  0  0
  2 23  1  0  0  0  0
 14  3  1  1  0  0  0
  3 41  1  0  0  0  0
 15  4  1  6  0  0  0
  4 42  1  0  0  0  0
 16  5  1  6  0  0  0
  5 43  1  0  0  0  0
 17  6  1  6  0  0  0
  6 44  1  0  0  0  0
  7 18  1  0  0  0  0
  7 45  1  0  0  0  0
 21  8  1  1  0  0  0
  8 46  1  0  0  0  0
 22  9  1  6  0  0  0
  9 47  1  0  0  0  0
 10 24  1  0  0  0  0
 10 48  1  0  0  0  0
 11 25  2  0  0  0  0
 20 12  1  6  0  0  0
 12 25  1  0  0  0  0
 12 38  1  0  0  0  0
 13 14  1  0  0  0  0
 13 15  1  0  0  0  0
 13 27  1  0  0  0  0
 14 16  1  0  0  0  0
 14 28  1  0  0  0  0
 15 17  1  0  0  0  0
 15 29  1  0  0  0  0
 16 18  1  0  0  0  0
 16 30  1  0  0  0  0
 17 18  1  0  0  0  0
 17 31  1  0  0  0  0
 18 32  1  0  0  0  0
 19 20  1  0  0  0  0
 19 33  1  0  0  0  0
 20 21  1  0  0  0  0
 20 34  1  0  0  0  0
 21 22  1  0  0  0  0
 21 35  1  0  0  0  0
 22 23  1  0  0  0  0
 22 36  1  0  0  0  0
 23 24  1  1  0  0  0
 23 37  1  0  0  0  0
 24 39  1  0  0  0  0
 24 40  1  0  0  0  0
 25 26  1  0  0  0  0
 26 49  1  0  0  0  0
 26 50  1  0  0  0  0
 26 51  1  0  0  0  0
M  END
> <PUBCHEM_COMPOUND_CID>
10452519

> <PUBCHEM_COMPOUND_CANONICALIZED>
1

> <PUBCHEM_CACTVS_COMPLEXITY>
478

> <PUBCHEM_CACTVS_HBOND_ACCEPTOR>
11

> <PUBCHEM_CACTVS_HBOND_DONOR>
9

> <PUBCHEM_CACTVS_ROTATABLE_BOND>
4

> <PUBCHEM_CACTVS_SUBSKEYS>
AAADceByPAAAAAAAAAAAAAAAAAAAAAAAAAA0QAAAAAAAAAAAAAAAHgAQCAAACDzxgAcCCALABgAIAAEQEAAAAAAAAAAAAIAIAAATEAIAgAAnQAAHFgCXAAHwcA8AAAAAAAAAAAACAAAQAACAAAAAAAAAAA==

> <PUBCHEM_IUPAC_OPENEYE_NAME>
N-[(2R,3R,4R,5S,6R)-4,5-dihydroxy-6-(hydroxymethyl)-2-[(2R,3S,5R,6R)-2,3,4,5,6-pentahydroxycyclohexoxy]tetrahydropyran-3-yl]acetamide

> <PUBCHEM_IUPAC_CAS_NAME>
N-[(2R,3R,4R,5S,6R)-4,5-dihydroxy-6-(hydroxymethyl)-2-[(2R,3S,5R,6R)-2,3,4,5,6-pentahydroxycyclohexyl]oxy-3-oxanyl]acetamide

> <PUBCHEM_IUPAC_NAME>
N-[(2R,3R,4R,5S,6R)-4,5-dihydroxy-6-(hydroxymethyl)-2-[(2R,3S,5R,6R)-2,3,4,5,6-pentahydroxycyclohexyl]oxyoxan-3-yl]acetamide

> <PUBCHEM_IUPAC_SYSTEMATIC_NAME>
N-[(2R,3R,4R,5S,6R)-6-(hydroxymethyl)-4,5-bis(oxidanyl)-2-[(2R,3S,5R,6R)-2,3,4,5,6-pentakis(oxidanyl)cyclohexyl]oxy-oxan-3-yl]ethanamide

> <PUBCHEM_IUPAC_TRADITIONAL_NAME>
N-[(2R,3R,4R,5S,6R)-4,5-dihydroxy-6-methylol-2-[(2R,3S,5R,6R)-2,3,4,5,6-pentahydroxycyclohexoxy]tetrahydropyran-3-yl]acetamide

> <PUBCHEM_IUPAC_INCHI>
InChI=1S/C14H25NO11/c1-3(17)15-5-7(19)6(18)4(2-16)25-14(5)26-13-11(23)9(21)8(20)10(22)12(13)24/h4-14,16,18-24H,2H2,1H3,(H,15,17)/t4-,5-,6-,7-,8?,9-,10+,11-,12-,13?,14-/m1/s1

> <PUBCHEM_IUPAC_INCHIKEY>
MRKTUVZZZRUSQR-URSAZOBZSA-N

> <PUBCHEM_XLOGP3_AA>
-5.3

> <PUBCHEM_EXACT_MASS>
383.142761

> <PUBCHEM_MOLECULAR_FORMULA>
C14H25NO11

> <PUBCHEM_MOLECULAR_WEIGHT>
383.3484

> <PUBCHEM_OPENEYE_CAN_SMILES>
CC(=O)NC1C(C(C(OC1OC2C(C(C(C(C2O)O)O)O)O)CO)O)O

> <PUBCHEM_OPENEYE_ISO_SMILES>
CC(=O)N[C@@H]1[C@H]([C@@H]([C@H](O[C@@H]1OC2[C@@H]([C@H](C([C@H]([C@H]2O)O)O)O)O)CO)O)O

> <PUBCHEM_CACTVS_TPSA>
209

> <PUBCHEM_MONOISOTOPIC_WEIGHT>
383.142761

> <PUBCHEM_TOTAL_CHARGE>
0

> <PUBCHEM_HEAVY_ATOM_COUNT>
26

> <PUBCHEM_ATOM_DEF_STEREO_COUNT>
9

> <PUBCHEM_ATOM_UDEF_STEREO_COUNT>
0

> <PUBCHEM_BOND_DEF_STEREO_COUNT>
0

> <PUBCHEM_BOND_UDEF_STEREO_COUNT>
0

> <PUBCHEM_ISOTOPIC_ATOM_COUNT>
0

> <PUBCHEM_COMPONENT_COUNT>
1

> <PUBCHEM_CACTVS_TAUTO_COUNT>
2

> <PUBCHEM_COORDINATE_TYPE>
1
5
255

> <PUBCHEM_BONDANNOTATIONS>
19  1  6
20  12  6
23  24  5
14  3  5
15  4  6
16  5  6
17  6  6
21  8  5
22  9  6

$$$$

