6062
  -OEChem-06261201052D

 66 70  0     1  0  0  0  0  0999 V2000
    9.1251   -1.6474    0.0000 O   0  0  0  0  0  0  0  0  0  0  0  0
    6.4673   -3.1958    0.0000 O   0  0  0  0  0  0  0  0  0  0  0  0
    3.7320   -2.6997    0.0000 O   0  0  0  0  0  0  0  0  0  0  0  0
    5.1649   -0.0307    0.0000 O   0  0  0  0  0  0  0  0  0  0  0  0
   10.3848    3.2259    0.0000 O   0  0  0  0  0  0  0  0  0  0  0  0
   12.1454    3.5016    0.0000 O   0  0  0  0  0  0  0  0  0  0  0  0
    2.8718   -1.1964    0.0000 O   0  0  0  0  0  0  0  0  0  0  0  0
    9.1251   -0.6474    0.0000 C   0  0  1  0  0  0  0  0  0  0  0  0
    8.2591   -1.1474    0.0000 C   0  0  3  0  0  0  0  0  0  0  0  0
    9.1251    0.3526    0.0000 C   0  0  1  0  0  0  0  0  0  0  0  0
    7.3931   -0.6474    0.0000 C   0  0  3  0  0  0  0  0  0  0  0  0
    6.4831   -1.1542    0.0000 C   0  0  2  0  0  0  0  0  0  0  0  0
    6.4750   -2.1958    0.0000 C   0  0  1  0  0  0  0  0  0  0  0  0
   10.0713    0.6574    0.0000 C   0  0  2  0  0  0  0  0  0  0  0  0
    8.2591    0.8526    0.0000 C   0  0  0  0  0  0  0  0  0  0  0  0
    7.3931    0.3526    0.0000 C   0  0  0  0  0  0  0  0  0  0  0  0
   10.0713   -0.9521    0.0000 C   0  0  0  0  0  0  0  0  0  0  0  0
    8.2752   -2.1889    0.0000 C   0  0  0  0  0  0  0  0  0  0  0  0
    7.3771   -2.7166    0.0000 C   0  0  0  0  0  0  0  0  0  0  0  0
   10.6550   -0.1474    0.0000 C   0  0  0  0  0  0  0  0  0  0  0  0
    5.5562   -0.5901    0.0000 C   0  0  0  0  0  0  0  0  0  0  0  0
    9.1251    1.3526    0.0000 C   0  0  0  0  0  0  0  0  0  0  0  0
    5.5396   -2.7455    0.0000 C   0  0  0  0  0  0  0  0  0  0  0  0
    4.6084   -1.1181    0.0000 C   0  0  0  0  0  0  0  0  0  0  0  0
    4.6000   -2.2030    0.0000 C   0  0  2  0  0  0  0  0  0  0  0  0
    6.1483   -0.2119    0.0000 C   0  0  0  0  0  0  0  0  0  0  0  0
   10.3820    1.6079    0.0000 C   0  0  0  0  0  0  0  0  0  0  0  0
    9.7956    2.4179    0.0000 C   0  0  0  0  0  0  0  0  0  0  0  0
   11.3336    1.9152    0.0000 C   0  0  0  0  0  0  0  0  0  0  0  0
   11.3353    2.9152    0.0000 C   0  0  0  0  0  0  0  0  0  0  0  0
    2.8680   -2.1964    0.0000 C   0  0  0  0  0  0  0  0  0  0  0  0
    2.0000   -2.6930    0.0000 C   0  0  0  0  0  0  0  0  0  0  0  0
    8.7984   -1.4532    0.0000 H   0  0  0  0  0  0  0  0  0  0  0  0
    7.9300   -0.3374    0.0000 H   0  0  0  0  0  0  0  0  0  0  0  0
   10.6838    0.7536    0.0000 H   0  0  0  0  0  0  0  0  0  0  0  0
    8.6576    1.3276    0.0000 H   0  0  0  0  0  0  0  0  0  0  0  0
    7.8606    1.3276    0.0000 H   0  0  0  0  0  0  0  0  0  0  0  0
    7.1810    0.9352    0.0000 H   0  0  0  0  0  0  0  0  0  0  0  0
    6.7825    0.2450    0.0000 H   0  0  0  0  0  0  0  0  0  0  0  0
    9.8203   -1.5190    0.0000 H   0  0  0  0  0  0  0  0  0  0  0  0
   10.6087   -1.2613    0.0000 H   0  0  0  0  0  0  0  0  0  0  0  0
    8.4932   -2.7693    0.0000 H   0  0  0  0  0  0  0  0  0  0  0  0
    8.8843   -2.0734    0.0000 H   0  0  0  0  0  0  0  0  0  0  0  0
    6.9798   -3.1926    0.0000 H   0  0  0  0  0  0  0  0  0  0  0  0
    7.7781   -3.1895    0.0000 H   0  0  0  0  0  0  0  0  0  0  0  0
   11.1158   -0.5621    0.0000 H   0  0  0  0  0  0  0  0  0  0  0  0
   11.1158    0.2674    0.0000 H   0  0  0  0  0  0  0  0  0  0  0  0
    5.9644   -0.1235    0.0000 H   0  0  0  0  0  0  0  0  0  0  0  0
    5.1663   -0.1081    0.0000 H   0  0  0  0  0  0  0  0  0  0  0  0
    9.7451    1.3526    0.0000 H   0  0  0  0  0  0  0  0  0  0  0  0
    9.1251    1.9726    0.0000 H   0  0  0  0  0  0  0  0  0  0  0  0
    8.5051    1.3526    0.0000 H   0  0  0  0  0  0  0  0  0  0  0  0
    5.1423   -3.2215    0.0000 H   0  0  0  0  0  0  0  0  0  0  0  0
    5.9406   -3.2184    0.0000 H   0  0  0  0  0  0  0  0  0  0  0  0
    4.4038   -0.5328    0.0000 H   0  0  0  0  0  0  0  0  0  0  0  0
    3.9967   -1.2195    0.0000 H   0  0  0  0  0  0  0  0  0  0  0  0
    4.0648   -1.8899    0.0000 H   0  0  0  0  0  0  0  0  0  0  0  0
    9.6621   -1.9574    0.0000 H   0  0  0  0  0  0  0  0  0  0  0  0
    6.5505    0.2599    0.0000 H   0  0  0  0  0  0  0  0  0  0  0  0
    5.9280   -3.5016    0.0000 H   0  0  0  0  0  0  0  0  0  0  0  0
    9.3356    2.8336    0.0000 H   0  0  0  0  0  0  0  0  0  0  0  0
    9.3342    2.0038    0.0000 H   0  0  0  0  0  0  0  0  0  0  0  0
   11.8346    1.5500    0.0000 H   0  0  0  0  0  0  0  0  0  0  0  0
    1.6921   -2.1549    0.0000 H   0  0  0  0  0  0  0  0  0  0  0  0
    1.4619   -3.0010    0.0000 H   0  0  0  0  0  0  0  0  0  0  0  0
    2.3079   -3.2312    0.0000 H   0  0  0  0  0  0  0  0  0  0  0  0
  8  1  1  1  0  0  0
  1 58  1  0  0  0  0
 13  2  1  1  0  0  0
  2 60  1  0  0  0  0
 25  3  1  1  0  0  0
  3 31  1  0  0  0  0
  4 26  2  0  0  0  0
  5 28  1  0  0  0  0
  5 30  1  0  0  0  0
  6 30  2  0  0  0  0
  7 31  2  0  0  0  0
  8  9  1  0  0  0  0
  8 10  1  0  0  0  0
  8 17  1  0  0  0  0
  9 11  1  0  0  0  0
  9 18  1  0  0  0  0
  9 33  1  0  0  0  0
 10 14  1  0  0  0  0
 10 15  1  0  0  0  0
 10 22  1  1  0  0  0
 11 12  1  0  0  0  0
 11 16  1  0  0  0  0
 11 34  1  0  0  0  0
 12 13  1  0  0  0  0
 12 21  1  0  0  0  0
 12 26  1  1  0  0  0
 13 19  1  0  0  0  0
 13 23  1  0  0  0  0
 14 20  1  0  0  0  0
 14 27  1  1  0  0  0
 14 35  1  0  0  0  0
 15 16  1  0  0  0  0
 15 36  1  0  0  0  0
 15 37  1  0  0  0  0
 16 38  1  0  0  0  0
 16 39  1  0  0  0  0
 17 20  1  0  0  0  0
 17 40  1  0  0  0  0
 17 41  1  0  0  0  0
 18 19  1  0  0  0  0
 18 42  1  0  0  0  0
 18 43  1  0  0  0  0
 19 44  1  0  0  0  0
 19 45  1  0  0  0  0
 20 46  1  0  0  0  0
 20 47  1  0  0  0  0
 21 24  1  0  0  0  0
 21 48  1  0  0  0  0
 21 49  1  0  0  0  0
 22 50  1  0  0  0  0
 22 51  1  0  0  0  0
 22 52  1  0  0  0  0
 23 25  1  0  0  0  0
 23 53  1  0  0  0  0
 23 54  1  0  0  0  0
 24 25  1  0  0  0  0
 24 55  1  0  0  0  0
 24 56  1  0  0  0  0
 25 57  1  0  0  0  0
 26 59  1  0  0  0  0
 27 28  1  0  0  0  0
 27 29  2  0  0  0  0
 28 61  1  0  0  0  0
 28 62  1  0  0  0  0
 29 30  1  0  0  0  0
 29 63  1  0  0  0  0
 31 32  1  0  0  0  0
 32 64  1  0  0  0  0
 32 65  1  0  0  0  0
 32 66  1  0  0  0  0
M  END
> <PUBCHEM_COMPOUND_CID>
6062

> <PUBCHEM_COMPOUND_CANONICALIZED>
1

> <PUBCHEM_CACTVS_COMPLEXITY>
882

> <PUBCHEM_CACTVS_HBOND_ACCEPTOR>
7

> <PUBCHEM_CACTVS_HBOND_DONOR>
2

> <PUBCHEM_CACTVS_ROTATABLE_BOND>
4

> <PUBCHEM_CACTVS_SUBSKEYS>
AAADcfB4OAAAAAAAAAAAAAAAAAAAAYIAAAAwYMAAAAAAAGDAAAAAGgAACAAAD1SggAICCAAABgCIAijSiAAAAAAgAAAACAEAAEgABBYAIQACUAAFoAAIIQOI7PzPgAAAAAAAAADAAAYQADAAAYAADAAAAA==

> <PUBCHEM_IUPAC_OPENEYE_NAME>
[(3S,5S,10S,13R,14S,17R)-10-formyl-5,14-dihydroxy-13-methyl-17-(5-oxo-2H-furan-3-yl)-2,3,4,6,7,8,9,11,12,15,16,17-dodecahydro-1H-cyclopenta[a]phenanthren-3-yl] acetate

> <PUBCHEM_IUPAC_CAS_NAME>
acetic acid [(3S,5S,10S,13R,14S,17R)-10-formyl-5,14-dihydroxy-13-methyl-17-(5-oxo-2H-furan-3-yl)-2,3,4,6,7,8,9,11,12,15,16,17-dodecahydro-1H-cyclopenta[a]phenanthren-3-yl] ester

> <PUBCHEM_IUPAC_NAME>
[(3S,5S,10S,13R,14S,17R)-10-formyl-5,14-dihydroxy-13-methyl-17-(5-oxo-2H-furan-3-yl)-2,3,4,6,7,8,9,11,12,15,16,17-dodecahydro-1H-cyclopenta[a]phenanthren-3-yl] acetate

> <PUBCHEM_IUPAC_SYSTEMATIC_NAME>
[(3S,5S,10S,13R,14S,17R)-10-methanoyl-13-methyl-5,14-bis(oxidanyl)-17-(5-oxidanylidene-2H-furan-3-yl)-2,3,4,6,7,8,9,11,12,15,16,17-dodecahydro-1H-cyclopenta[a]phenanthren-3-yl] ethanoate

> <PUBCHEM_IUPAC_TRADITIONAL_NAME>
acetic acid [(3S,5S,10S,13R,14S,17R)-10-formyl-5,14-dihydroxy-17-(5-keto-2H-furan-3-yl)-13-methyl-2,3,4,6,7,8,9,11,12,15,16,17-dodecahydro-1H-cyclopenta[a]phenanthren-3-yl] ester

> <PUBCHEM_IUPAC_INCHI>
InChI=1S/C25H34O7/c1-15(27)32-17-3-8-23(14-26)19-4-7-22(2)18(16-11-21(28)31-13-16)6-10-25(22,30)20(19)5-9-24(23,29)12-17/h11,14,17-20,29-30H,3-10,12-13H2,1-2H3/t17-,18+,19?,20?,22+,23-,24-,25-/m0/s1

> <PUBCHEM_IUPAC_INCHIKEY>
JLZAERUVCODZQO-JJTVRZIESA-N

> <PUBCHEM_XLOGP3>
1.2

> <PUBCHEM_EXACT_MASS>
446.230453

> <PUBCHEM_MOLECULAR_FORMULA>
C25H34O7

> <PUBCHEM_MOLECULAR_WEIGHT>
446.53326

> <PUBCHEM_OPENEYE_CAN_SMILES>
CC(=O)OC1CCC2(C3CCC4(C(CCC4(C3CCC2(C1)O)O)C5=CC(=O)OC5)C)C=O

> <PUBCHEM_OPENEYE_ISO_SMILES>
CC(=O)O[C@H]1CC[C@@]2(C3CC[C@@]4([C@H](CC[C@@]4(C3CC[C@@]2(C1)O)O)C5=CC(=O)OC5)C)C=O

> <PUBCHEM_CACTVS_TPSA>
110

> <PUBCHEM_MONOISOTOPIC_WEIGHT>
446.230453

> <PUBCHEM_TOTAL_CHARGE>
0

> <PUBCHEM_HEAVY_ATOM_COUNT>
32

> <PUBCHEM_ATOM_DEF_STEREO_COUNT>
6

> <PUBCHEM_ATOM_UDEF_STEREO_COUNT>
2

> <PUBCHEM_BOND_DEF_STEREO_COUNT>
0

> <PUBCHEM_BOND_UDEF_STEREO_COUNT>
0

> <PUBCHEM_ISOTOPIC_ATOM_COUNT>
0

> <PUBCHEM_COMPONENT_COUNT>
1

> <PUBCHEM_CACTVS_TAUTO_COUNT>
1

> <PUBCHEM_COORDINATE_TYPE>
1
5
255

> <PUBCHEM_BONDANNOTATIONS>
8  1  5
10  22  5
11  16  3
12  26  5
14  27  5
13  2  5
25  3  5
9  18  3

$$$$

