53297358
  -OEChem-07051213032D

 46 48  0     0  0  0  0  0  0999 V2000
    6.4144    2.4329    0.0000 O   0  0  0  0  0  0  0  0  0  0  0  0
    4.6660    2.3983    0.0000 O   0  0  0  0  0  0  0  0  0  0  0  0
    2.9176    2.4329    0.0000 O   0  0  0  0  0  0  0  0  0  0  0  0
    8.1923    2.4225    0.0000 O   0  0  0  0  0  0  0  0  0  0  0  0
    9.0564   -2.1291    0.0000 O   0  0  0  0  0  0  0  0  0  0  0  0
    9.9243    2.4292    0.0000 O   0  0  0  0  0  0  0  0  0  0  0  0
    7.3244   -2.1225    0.0000 O   0  0  0  0  0  0  0  0  0  0  0  0
    5.5321   -0.1017    0.0000 C   0  0  0  0  0  0  0  0  0  0  0  0
    4.6660   -0.6017    0.0000 C   0  0  0  0  0  0  0  0  0  0  0  0
    5.5321    0.8983    0.0000 C   0  0  0  0  0  0  0  0  0  0  0  0
    3.8000   -0.1017    0.0000 C   0  0  0  0  0  0  0  0  0  0  0  0
    3.8000    0.8983    0.0000 C   0  0  0  0  0  0  0  0  0  0  0  0
    7.3321   -0.1225    0.0000 C   0  0  0  0  0  0  0  0  0  0  0  0
    7.3321    0.9192    0.0000 C   0  0  0  0  0  0  0  0  0  0  0  0
    6.4260   -0.6363    0.0000 C   0  0  0  0  0  0  0  0  0  0  0  0
    6.4260    1.4330    0.0000 C   0  0  0  0  0  0  0  0  0  0  0  0
    4.6660    1.3983    0.0000 C   0  0  0  0  0  0  0  0  0  0  0  0
    8.1962   -0.6258    0.0000 C   0  0  0  0  0  0  0  0  0  0  0  0
    2.9061   -0.6363    0.0000 C   0  0  0  0  0  0  0  0  0  0  0  0
    2.9061    1.4330    0.0000 C   0  0  0  0  0  0  0  0  0  0  0  0
    8.1962    1.4225    0.0000 C   0  0  0  0  0  0  0  0  0  0  0  0
    9.0641    0.9258    0.0000 C   0  0  0  0  0  0  0  0  0  0  0  0
    2.0000   -0.1225    0.0000 C   0  0  0  0  0  0  0  0  0  0  0  0
    2.0000    0.9192    0.0000 C   0  0  0  0  0  0  0  0  0  0  0  0
    8.1923   -1.6258    0.0000 C   0  0  0  0  0  0  0  0  0  0  0  0
    9.9282    1.4292    0.0000 C   0  0  0  0  0  0  0  0  0  0  0  0
   10.7961    0.9325    0.0000 C   0  0  0  0  0  0  0  0  0  0  0  0
   11.6602    1.4358    0.0000 C   0  0  0  0  0  0  0  0  0  0  0  0
    4.2675   -1.0766    0.0000 H   0  0  0  0  0  0  0  0  0  0  0  0
    5.0646   -1.0766    0.0000 H   0  0  0  0  0  0  0  0  0  0  0  0
    6.4188   -1.2563    0.0000 H   0  0  0  0  0  0  0  0  0  0  0  0
    8.8063   -0.7358    0.0000 H   0  0  0  0  0  0  0  0  0  0  0  0
    8.4105   -0.0440    0.0000 H   0  0  0  0  0  0  0  0  0  0  0  0
    2.9132   -1.2563    0.0000 H   0  0  0  0  0  0  0  0  0  0  0  0
    8.6674    0.4494    0.0000 H   0  0  0  0  0  0  0  0  0  0  0  0
    9.4645    0.4524    0.0000 H   0  0  0  0  0  0  0  0  0  0  0  0
    1.4643   -0.4345    0.0000 H   0  0  0  0  0  0  0  0  0  0  0  0
    1.4643    1.2312    0.0000 H   0  0  0  0  0  0  0  0  0  0  0  0
    6.9478    2.7491    0.0000 H   0  0  0  0  0  0  0  0  0  0  0  0
   10.3995    0.4560    0.0000 H   0  0  0  0  0  0  0  0  0  0  0  0
   11.1965    0.4591    0.0000 H   0  0  0  0  0  0  0  0  0  0  0  0
    2.3843    2.7491    0.0000 H   0  0  0  0  0  0  0  0  0  0  0  0
   11.9723    0.9001    0.0000 H   0  0  0  0  0  0  0  0  0  0  0  0
   12.1960    1.7479    0.0000 H   0  0  0  0  0  0  0  0  0  0  0  0
   11.3482    1.9716    0.0000 H   0  0  0  0  0  0  0  0  0  0  0  0
    9.0540   -2.7491    0.0000 H   0  0  0  0  0  0  0  0  0  0  0  0
  1 16  1  0  0  0  0
  1 39  1  0  0  0  0
  2 17  2  0  0  0  0
  3 20  1  0  0  0  0
  3 42  1  0  0  0  0
  4 21  2  0  0  0  0
  5 25  1  0  0  0  0
  5 46  1  0  0  0  0
  6 26  2  0  0  0  0
  7 25  2  0  0  0  0
  8  9  1  0  0  0  0
  8 10  1  0  0  0  0
  8 15  2  0  0  0  0
  9 11  1  0  0  0  0
  9 29  1  0  0  0  0
  9 30  1  0  0  0  0
 10 16  2  0  0  0  0
 10 17  1  0  0  0  0
 11 12  2  0  0  0  0
 11 19  1  0  0  0  0
 12 17  1  0  0  0  0
 12 20  1  0  0  0  0
 13 14  2  0  0  0  0
 13 15  1  0  0  0  0
 13 18  1  0  0  0  0
 14 16  1  0  0  0  0
 14 21  1  0  0  0  0
 15 31  1  0  0  0  0
 18 25  1  0  0  0  0
 18 32  1  0  0  0  0
 18 33  1  0  0  0  0
 19 23  2  0  0  0  0
 19 34  1  0  0  0  0
 20 24  2  0  0  0  0
 21 22  1  0  0  0  0
 22 26  1  0  0  0  0
 22 35  1  0  0  0  0
 22 36  1  0  0  0  0
 23 24  1  0  0  0  0
 23 37  1  0  0  0  0
 24 38  1  0  0  0  0
 26 27  1  0  0  0  0
 27 28  1  0  0  0  0
 27 40  1  0  0  0  0
 27 41  1  0  0  0  0
 28 43  1  0  0  0  0
 28 44  1  0  0  0  0
 28 45  1  0  0  0  0
M  END
> <PUBCHEM_COMPOUND_CID>
53297358

> <PUBCHEM_COMPOUND_CANONICALIZED>
1

> <PUBCHEM_CACTVS_COMPLEXITY>
657

> <PUBCHEM_CACTVS_HBOND_ACCEPTOR>
7

> <PUBCHEM_CACTVS_HBOND_DONOR>
3

> <PUBCHEM_CACTVS_ROTATABLE_BOND>
6

> <PUBCHEM_CACTVS_SUBSKEYS>
AAADceB4OAAAAAAAAAAAAAAAAAAAAAAAAAAwYMAAAAAAAADBQAAAGgAACAAADASAmAAyDoAAAgCIAqDSCAACAAAkIAAIiAEGCMgIJjaKFRKAcUAk4BEImQeI7vTuwAADAAAYAACAAAYAADAAAAAAAAAAAA==

> <PUBCHEM_IUPAC_OPENEYE_NAME>
2-[4,5-dihydroxy-10-oxo-3-(3-oxopentanoyl)-9H-anthracen-2-yl]acetic acid

> <PUBCHEM_IUPAC_CAS_NAME>
2-[3-(1,3-dioxopentyl)-4,5-dihydroxy-10-oxo-9H-anthracen-2-yl]acetic acid

> <PUBCHEM_IUPAC_NAME>
2-[4,5-dihydroxy-10-oxo-3-(3-oxopentanoyl)-9H-anthracen-2-yl]acetic acid

> <PUBCHEM_IUPAC_SYSTEMATIC_NAME>
2-[4,5-bis(oxidanyl)-10-oxidanylidene-3-(3-oxidanylidenepentanoyl)-9H-anthracen-2-yl]ethanoic acid

> <PUBCHEM_IUPAC_TRADITIONAL_NAME>
2-[4,5-dihydroxy-10-keto-3-(3-ketopentanoyl)-9H-anthracen-2-yl]acetic acid

> <PUBCHEM_IUPAC_INCHI>
InChI=1S/C21H18O7/c1-2-13(22)9-15(24)18-12(8-16(25)26)7-11-6-10-4-3-5-14(23)17(10)20(27)19(11)21(18)28/h3-5,7,23,28H,2,6,8-9H2,1H3,(H,25,26)

> <PUBCHEM_IUPAC_INCHIKEY>
GOOWFUBMXUJYPR-UHFFFAOYSA-N

> <PUBCHEM_XLOGP3_AA>
2.7

> <PUBCHEM_EXACT_MASS>
382.105253

> <PUBCHEM_MOLECULAR_FORMULA>
C21H18O7

> <PUBCHEM_MOLECULAR_WEIGHT>
382.36342

> <PUBCHEM_OPENEYE_CAN_SMILES>
CCC(=O)CC(=O)C1=C(C=C2CC3=C(C(=CC=C3)O)C(=O)C2=C1O)CC(=O)O

> <PUBCHEM_OPENEYE_ISO_SMILES>
CCC(=O)CC(=O)C1=C(C=C2CC3=C(C(=CC=C3)O)C(=O)C2=C1O)CC(=O)O

> <PUBCHEM_CACTVS_TPSA>
129

> <PUBCHEM_MONOISOTOPIC_WEIGHT>
382.105253

> <PUBCHEM_TOTAL_CHARGE>
0

> <PUBCHEM_HEAVY_ATOM_COUNT>
28

> <PUBCHEM_ATOM_DEF_STEREO_COUNT>
0

> <PUBCHEM_ATOM_UDEF_STEREO_COUNT>
0

> <PUBCHEM_BOND_DEF_STEREO_COUNT>
0

> <PUBCHEM_BOND_UDEF_STEREO_COUNT>
0

> <PUBCHEM_ISOTOPIC_ATOM_COUNT>
0

> <PUBCHEM_COMPONENT_COUNT>
1

> <PUBCHEM_CACTVS_TAUTO_COUNT>
998

> <PUBCHEM_COORDINATE_TYPE>
1
5
255

> <PUBCHEM_BONDANNOTATIONS>
10  16  8
11  12  8
11  19  8
12  20  8
13  14  8
13  15  8
14  16  8
19  23  8
20  24  8
23  24  8
8  10  8
8  15  8

$$$$

