443215
  -OEChem-07051213012D

 62 64  0     1  0  0  0  0  0999 V2000
    6.4641    0.7699    0.0000 P   0  0  3  0  0  0  0  0  0  0  0  0
    5.5981   -0.7301    0.0000 P   0  0  3  0  0  0  0  0  0  0  0  0
    9.1097    2.3632    0.0000 O   0  0  0  0  0  0  0  0  0  0  0  0
    3.8660   -1.7300    0.0000 O   0  0  0  0  0  0  0  0  0  0  0  0
    7.5575    4.4336    0.0000 O   0  0  0  0  0  0  0  0  0  0  0  0
    7.3301    1.2700    0.0000 O   0  0  0  0  0  0  0  0  0  0  0  0
    5.5981   -1.7300    0.0000 O   0  0  0  0  0  0  0  0  0  0  0  0
    5.5981   -3.7300    0.0000 O   0  0  0  0  0  0  0  0  0  0  0  0
    3.8660   -4.7300    0.0000 O   0  0  0  0  0  0  0  0  0  0  0  0
    5.5981    0.2699    0.0000 O   0  0  0  0  0  0  0  0  0  0  0  0
    2.1340   -3.7300    0.0000 O   0  0  0  0  0  0  0  0  0  0  0  0
   10.9544    4.7244    0.0000 O   0  0  0  0  0  0  0  0  0  0  0  0
    5.9641    1.6360    0.0000 O   0  0  0  0  0  0  0  0  0  0  0  0
    6.5981   -0.7301    0.0000 O   0  0  0  0  0  0  0  0  0  0  0  0
    6.9641   -0.0961    0.0000 O   0  0  0  0  0  0  0  0  0  0  0  0
    4.5981   -0.7301    0.0000 O   0  0  0  0  0  0  0  0  0  0  0  0
   13.7569    2.6882    0.0000 O   0  0  0  0  0  0  0  0  0  0  0  0
   10.7734    3.0018    0.0000 N   0  0  0  0  0  0  0  0  0  0  0  0
   12.3557    3.7063    0.0000 N   0  0  0  0  0  0  0  0  0  0  0  0
    8.3007    3.7645    0.0000 C   0  0  2  0  0  0  0  0  0  0  0  0
    8.1962    2.7700    0.0000 C   0  0  1  0  0  0  0  0  0  0  0  0
    9.2788    3.9724    0.0000 C   0  0  0  0  0  0  0  0  0  0  0  0
    9.7788    3.1064    0.0000 C   0  0  1  0  0  0  0  0  0  0  0  0
    7.3301    2.2700    0.0000 C   0  0  0  0  0  0  0  0  0  0  0  0
    3.0000   -2.2300    0.0000 C   0  0  0  0  0  0  0  0  0  0  0  0
    4.7320   -3.2300    0.0000 C   0  0  2  0  0  0  0  0  0  0  0  0
    3.8660   -3.7300    0.0000 C   0  0  1  0  0  0  0  0  0  0  0  0
    4.7320   -2.2300    0.0000 C   0  0  2  0  0  0  0  0  0  0  0  0
    3.0000   -3.2300    0.0000 C   0  0  0  0  0  0  0  0  0  0  0  0
    2.0000   -2.2300    0.0000 C   0  0  0  0  0  0  0  0  0  0  0  0
    2.5000   -1.3640    0.0000 C   0  0  0  0  0  0  0  0  0  0  0  0
   11.1801    2.0883    0.0000 C   0  0  0  0  0  0  0  0  0  0  0  0
   11.3611    3.8108    0.0000 C   0  0  0  0  0  0  0  0  0  0  0  0
   12.1746    1.9838    0.0000 C   0  0  0  0  0  0  0  0  0  0  0  0
   12.7624    2.7928    0.0000 C   0  0  0  0  0  0  0  0  0  0  0  0
   12.5813    1.0702    0.0000 C   0  0  0  0  0  0  0  0  0  0  0  0
    8.4612    4.3633    0.0000 H   0  0  0  0  0  0  0  0  0  0  0  0
    8.2286    2.1508    0.0000 H   0  0  0  0  0  0  0  0  0  0  0  0
    9.8452    4.2246    0.0000 H   0  0  0  0  0  0  0  0  0  0  0  0
    9.0872    4.5620    0.0000 H   0  0  0  0  0  0  0  0  0  0  0  0
   10.1165    3.6263    0.0000 H   0  0  0  0  0  0  0  0  0  0  0  0
    7.1181    2.8526    0.0000 H   0  0  0  0  0  0  0  0  0  0  0  0
    6.7196    2.1623    0.0000 H   0  0  0  0  0  0  0  0  0  0  0  0
    4.7320   -3.8500    0.0000 H   0  0  0  0  0  0  0  0  0  0  0  0
    4.4030   -4.0400    0.0000 H   0  0  0  0  0  0  0  0  0  0  0  0
    4.7320   -1.6100    0.0000 H   0  0  0  0  0  0  0  0  0  0  0  0
    7.6864    5.0400    0.0000 H   0  0  0  0  0  0  0  0  0  0  0  0
    3.0369   -1.0540    0.0000 H   0  0  0  0  0  0  0  0  0  0  0  0
    2.1900   -0.8271    0.0000 H   0  0  0  0  0  0  0  0  0  0  0  0
    1.9631   -1.6740    0.0000 H   0  0  0  0  0  0  0  0  0  0  0  0
    2.0000   -1.6100    0.0000 H   0  0  0  0  0  0  0  0  0  0  0  0
    1.3800   -2.2300    0.0000 H   0  0  0  0  0  0  0  0  0  0  0  0
    2.0000   -2.8500    0.0000 H   0  0  0  0  0  0  0  0  0  0  0  0
   10.8157    1.5867    0.0000 H   0  0  0  0  0  0  0  0  0  0  0  0
    5.5981   -4.3501    0.0000 H   0  0  0  0  0  0  0  0  0  0  0  0
    3.3291   -5.0400    0.0000 H   0  0  0  0  0  0  0  0  0  0  0  0
   12.7201    4.2079    0.0000 H   0  0  0  0  0  0  0  0  0  0  0  0
   12.0149    0.8180    0.0000 H   0  0  0  0  0  0  0  0  0  0  0  0
   12.8335    0.5038    0.0000 H   0  0  0  0  0  0  0  0  0  0  0  0
   13.1477    1.3224    0.0000 H   0  0  0  0  0  0  0  0  0  0  0  0
    5.3441    1.6360    0.0000 H   0  0  0  0  0  0  0  0  0  0  0  0
    6.9081   -1.2670    0.0000 H   0  0  0  0  0  0  0  0  0  0  0  0
  1  6  1  0  0  0  0
  1 10  1  0  0  0  0
  1 13  1  0  0  0  0
  1 15  2  0  0  0  0
  2  7  1  0  0  0  0
  2 10  1  0  0  0  0
  2 14  1  0  0  0  0
  2 16  2  0  0  0  0
  3 21  1  0  0  0  0
  3 23  1  0  0  0  0
  4 25  1  0  0  0  0
  4 28  1  0  0  0  0
 20  5  1  1  0  0  0
  5 47  1  0  0  0  0
  6 24  1  0  0  0  0
 28  7  1  6  0  0  0
 26  8  1  6  0  0  0
  8 55  1  0  0  0  0
 27  9  1  6  0  0  0
  9 56  1  0  0  0  0
 11 29  2  0  0  0  0
 12 33  2  0  0  0  0
 13 61  1  0  0  0  0
 14 62  1  0  0  0  0
 17 35  2  0  0  0  0
 23 18  1  6  0  0  0
 18 32  1  0  0  0  0
 18 33  1  0  0  0  0
 19 33  1  0  0  0  0
 19 35  1  0  0  0  0
 19 57  1  0  0  0  0
 20 21  1  0  0  0  0
 20 22  1  0  0  0  0
 20 37  1  0  0  0  0
 21 24  1  6  0  0  0
 21 38  1  0  0  0  0
 22 23  1  0  0  0  0
 22 39  1  0  0  0  0
 22 40  1  0  0  0  0
 23 41  1  0  0  0  0
 24 42  1  0  0  0  0
 24 43  1  0  0  0  0
 25 29  1  0  0  0  0
 25 30  1  0  0  0  0
 25 31  1  0  0  0  0
 26 27  1  0  0  0  0
 26 28  1  0  0  0  0
 26 44  1  0  0  0  0
 27 29  1  0  0  0  0
 27 45  1  0  0  0  0
 28 46  1  0  0  0  0
 30 51  1  0  0  0  0
 30 52  1  0  0  0  0
 30 53  1  0  0  0  0
 31 48  1  0  0  0  0
 31 49  1  0  0  0  0
 31 50  1  0  0  0  0
 32 34  2  0  0  0  0
 32 54  1  0  0  0  0
 34 35  1  0  0  0  0
 34 36  1  0  0  0  0
 36 58  1  0  0  0  0
 36 59  1  0  0  0  0
 36 60  1  0  0  0  0
M  END
> <PUBCHEM_COMPOUND_CID>
443215

> <PUBCHEM_COMPOUND_CANONICALIZED>
1

> <PUBCHEM_CACTVS_COMPLEXITY>
1050

> <PUBCHEM_CACTVS_HBOND_ACCEPTOR>
15

> <PUBCHEM_CACTVS_HBOND_DONOR>
6

> <PUBCHEM_CACTVS_ROTATABLE_BOND>
8

> <PUBCHEM_CACTVS_SUBSKEYS>
AAADceB7PAMAAAAAAAAAAAAAAAAAASAAAAAkQAAAAAAAAAAAAAAAHgAQCCAADFTxgAcDCAPABxCIQoFWUIKAAAAAAAAAAAFIAECREBYAgQQOQAAPJyIHAMHycBYMAAAAAAAAAAAAAAAAAAAAAAAAAAAAAA==

> <PUBCHEM_IUPAC_OPENEYE_NAME>
[(2R,3R,4S)-3,4-dihydroxy-6,6-dimethyl-5-oxo-tetrahydropyran-2-yl] [hydroxy-[[(2R,3S,5R)-3-hydroxy-5-(5-methyl-2,4-dioxo-pyrimidin-1-yl)tetrahydrofuran-2-yl]methoxy]phosphoryl] hydrogen phosphate

> <PUBCHEM_IUPAC_CAS_NAME>
[(2R,3R,4S)-3,4-dihydroxy-6,6-dimethyl-5-oxo-2-oxanyl] [hydroxy-[[(2R,3S,5R)-3-hydroxy-5-(5-methyl-2,4-dioxo-1-pyrimidinyl)-2-oxolanyl]methoxy]phosphoryl] hydrogen phosphate

> <PUBCHEM_IUPAC_NAME>
[(2R,3R,4S)-3,4-dihydroxy-6,6-dimethyl-5-oxooxan-2-yl] [hydroxy-[[(2R,3S,5R)-3-hydroxy-5-(5-methyl-2,4-dioxopyrimidin-1-yl)oxolan-2-yl]methoxy]phosphoryl] hydrogen phosphate

> <PUBCHEM_IUPAC_SYSTEMATIC_NAME>
[(2R,3R,4S)-6,6-dimethyl-3,4-bis(oxidanyl)-5-oxidanylidene-oxan-2-yl] [[(2R,3S,5R)-5-[5-methyl-2,4-bis(oxidanylidene)pyrimidin-1-yl]-3-oxidanyl-oxolan-2-yl]methoxy-oxidanyl-phosphoryl] hydrogen phosphate

> <PUBCHEM_IUPAC_TRADITIONAL_NAME>
[(2R,3R,4S)-3,4-dihydroxy-5-keto-6,6-dimethyl-tetrahydropyran-2-yl] [[(2R,3S,5R)-5-(2,4-diketo-5-methyl-pyrimidin-1-yl)-3-hydroxy-tetrahydrofuran-2-yl]methoxy-hydroxy-phosphoryl] hydrogen phosphate

> <PUBCHEM_IUPAC_INCHI>
InChI=1S/C17H26N2O15P2/c1-7-5-19(16(25)18-14(7)24)10-4-8(20)9(31-10)6-30-35(26,27)34-36(28,29)33-15-12(22)11(21)13(23)17(2,3)32-15/h5,8-12,15,20-22H,4,6H2,1-3H3,(H,26,27)(H,28,29)(H,18,24,25)/t8-,9+,10+,11-,12+,15+/m0/s1

> <PUBCHEM_IUPAC_INCHIKEY>
BZFIQNRMGGOSLJ-XGBCXMNYSA-N

> <PUBCHEM_XLOGP3_AA>
-4.2

> <PUBCHEM_EXACT_MASS>
560.080841

> <PUBCHEM_MOLECULAR_FORMULA>
C17H26N2O15P2

> <PUBCHEM_MOLECULAR_WEIGHT>
560.340264

> <PUBCHEM_OPENEYE_CAN_SMILES>
CC1=CN(C(=O)NC1=O)C2CC(C(O2)COP(=O)(O)OP(=O)(O)OC3C(C(C(=O)C(O3)(C)C)O)O)O

> <PUBCHEM_OPENEYE_ISO_SMILES>
CC1=CN(C(=O)NC1=O)[C@H]2C[C@@H]([C@H](O2)COP(=O)(O)OP(=O)(O)O[C@@H]3[C@@H]([C@@H](C(=O)C(O3)(C)C)O)O)O

> <PUBCHEM_CACTVS_TPSA>
248

> <PUBCHEM_MONOISOTOPIC_WEIGHT>
560.080841

> <PUBCHEM_TOTAL_CHARGE>
0

> <PUBCHEM_HEAVY_ATOM_COUNT>
36

> <PUBCHEM_ATOM_DEF_STEREO_COUNT>
6

> <PUBCHEM_ATOM_UDEF_STEREO_COUNT>
0

> <PUBCHEM_BOND_DEF_STEREO_COUNT>
0

> <PUBCHEM_BOND_UDEF_STEREO_COUNT>
0

> <PUBCHEM_ISOTOPIC_ATOM_COUNT>
0

> <PUBCHEM_COMPONENT_COUNT>
1

> <PUBCHEM_CACTVS_TAUTO_COUNT>
18

> <PUBCHEM_COORDINATE_TYPE>
1
5
255

> <PUBCHEM_BONDANNOTATIONS>
23  18  6
18  32  8
18  33  8
19  33  8
19  35  8
21  24  6
32  34  8
34  35  8
20  5  5
28  7  6
26  8  6
27  9  6

$$$$

