5280818
  -OEChem-07051212502D

 89 92  0     1  0  0  0  0  0999 V2000
    3.8625    2.8588    0.0000 O   0  0  0  0  0  0  0  0  0  0  0  0
   13.7506   -1.1692    0.0000 O   0  0  0  0  0  0  0  0  0  0  0  0
    8.2447    4.5155    0.0000 O   0  0  0  0  0  0  0  0  0  0  0  0
    5.5169   -3.3200    0.0000 O   0  0  0  0  0  0  0  0  0  0  0  0
    9.6460    3.4974    0.0000 O   0  0  0  0  0  0  0  0  0  0  0  0
    5.6979   -1.5974    0.0000 O   0  0  0  0  0  0  0  0  0  0  0  0
    4.9839    1.4739    0.0000 N   0  0  0  0  0  0  0  0  0  0  0  0
   12.1628   -1.9782    0.0000 N   0  0  0  0  0  0  0  0  0  0  0  0
    7.3826   -0.4685    0.0000 N   0  0  0  0  0  0  0  0  0  0  0  0
   10.2642   -1.5746    0.0000 N   0  0  0  0  0  0  0  0  0  0  0  0
   12.6628   -3.5170    0.0000 C   0  0  3  0  0  0  0  0  0  0  0  0
    3.9013    0.2715    0.0000 C   0  0  3  0  0  0  0  0  0  0  0  0
    4.8794    0.4794    0.0000 C   0  0  3  0  0  0  0  0  0  0  0  0
   11.8538   -2.9293    0.0000 C   0  0  3  0  0  0  0  0  0  0  0  0
    3.4013    1.1375    0.0000 C   0  0  3  0  0  0  0  0  0  0  0  0
   13.4719   -2.9293    0.0000 C   0  0  3  0  0  0  0  0  0  0  0  0
    5.6226   -0.1897    0.0000 C   0  0  0  0  0  0  0  0  0  0  0  0
   10.9028   -3.2383    0.0000 C   0  0  0  0  0  0  0  0  0  0  0  0
   12.6628   -4.5170    0.0000 C   0  0  0  0  0  0  0  0  0  0  0  0
    4.0704    1.8806    0.0000 C   0  0  0  0  0  0  0  0  0  0  0  0
   13.1628   -1.9782    0.0000 C   0  0  0  0  0  0  0  0  0  0  0  0
    2.4067    1.2420    0.0000 C   0  0  0  0  0  0  0  0  0  0  0  0
    3.4945   -0.6421    0.0000 C   0  0  0  0  0  0  0  0  0  0  0  0
    6.5736    0.1193    0.0000 C   0  0  0  0  0  0  0  0  0  0  0  0
   14.4229   -3.2383    0.0000 C   0  0  0  0  0  0  0  0  0  0  0  0
   10.1596   -2.5692    0.0000 C   0  0  0  0  0  0  0  0  0  0  0  0
   13.5289   -5.0170    0.0000 C   0  0  0  0  0  0  0  0  0  0  0  0
    6.8826    1.0703    0.0000 C   0  0  0  0  0  0  0  0  0  0  0  0
    2.0000    2.1556    0.0000 C   0  0  0  0  0  0  0  0  0  0  0  0
    7.8826    1.0703    0.0000 C   0  0  0  0  0  0  0  0  0  0  0  0
    9.1815   -2.7771    0.0000 C   0  0  0  0  0  0  0  0  0  0  0  0
    8.1916    0.1193    0.0000 C   0  0  0  0  0  0  0  0  0  0  0  0
    8.6815   -1.9110    0.0000 C   0  0  0  0  0  0  0  0  0  0  0  0
    9.3506   -1.1679    0.0000 C   0  0  0  0  0  0  0  0  0  0  0  0
    9.1427   -0.1897    0.0000 C   0  0  0  0  0  0  0  0  0  0  0  0
    8.4704    1.8794    0.0000 C   0  0  0  0  0  0  0  0  0  0  0  0
    6.2948    1.8794    0.0000 C   0  0  0  0  0  0  0  0  0  0  0  0
    7.6870   -1.8065    0.0000 C   0  0  0  0  0  0  0  0  0  0  0  0
    8.7747   -3.6906    0.0000 C   0  0  0  0  0  0  0  0  0  0  0  0
    8.0637    2.7929    0.0000 C   0  0  0  0  0  0  0  0  0  0  0  0
    7.0992   -2.6155    0.0000 C   0  0  0  0  0  0  0  0  0  0  0  0
    8.6515    3.6019    0.0000 C   0  0  0  0  0  0  0  0  0  0  0  0
    6.1046   -2.5110    0.0000 C   0  0  0  0  0  0  0  0  0  0  0  0
   11.9055   -3.9029    0.0000 H   0  0  0  0  0  0  0  0  0  0  0  0
    3.0524    0.2270    0.0000 H   0  0  0  0  0  0  0  0  0  0  0  0
    5.6730    0.7840    0.0000 H   0  0  0  0  0  0  0  0  0  0  0  0
   11.2528   -2.3282    0.0000 H   0  0  0  0  0  0  0  0  0  0  0  0
    2.9383    0.4246    0.0000 H   0  0  0  0  0  0  0  0  0  0  0  0
   13.6048   -3.7688    0.0000 H   0  0  0  0  0  0  0  0  0  0  0  0
    5.1340   -0.5715    0.0000 H   0  0  0  0  0  0  0  0  0  0  0  0
    5.9136   -0.7372    0.0000 H   0  0  0  0  0  0  0  0  0  0  0  0
   10.4142   -3.6200    0.0000 H   0  0  0  0  0  0  0  0  0  0  0  0
   11.1938   -3.7857    0.0000 H   0  0  0  0  0  0  0  0  0  0  0  0
   12.0523   -4.4094    0.0000 H   0  0  0  0  0  0  0  0  0  0  0  0
   12.4508   -5.0997    0.0000 H   0  0  0  0  0  0  0  0  0  0  0  0
    5.5209    1.7839    0.0000 H   0  0  0  0  0  0  0  0  0  0  0  0
   11.7984   -1.4766    0.0000 H   0  0  0  0  0  0  0  0  0  0  0  0
    1.8052    1.0920    0.0000 H   0  0  0  0  0  0  0  0  0  0  0  0
    2.4500    0.6235    0.0000 H   0  0  0  0  0  0  0  0  0  0  0  0
    2.9281   -0.3899    0.0000 H   0  0  0  0  0  0  0  0  0  0  0  0
    3.2424   -1.2085    0.0000 H   0  0  0  0  0  0  0  0  0  0  0  0
    4.0609   -0.8942    0.0000 H   0  0  0  0  0  0  0  0  0  0  0  0
   14.2313   -3.8279    0.0000 H   0  0  0  0  0  0  0  0  0  0  0  0
   15.0126   -3.4299    0.0000 H   0  0  0  0  0  0  0  0  0  0  0  0
   14.6145   -2.6486    0.0000 H   0  0  0  0  0  0  0  0  0  0  0  0
   13.2189   -5.5540    0.0000 H   0  0  0  0  0  0  0  0  0  0  0  0
   14.0658   -5.3270    0.0000 H   0  0  0  0  0  0  0  0  0  0  0  0
   13.8389   -4.4801    0.0000 H   0  0  0  0  0  0  0  0  0  0  0  0
    2.5664    2.4078    0.0000 H   0  0  0  0  0  0  0  0  0  0  0  0
    1.7478    2.7220    0.0000 H   0  0  0  0  0  0  0  0  0  0  0  0
    1.4336    1.9034    0.0000 H   0  0  0  0  0  0  0  0  0  0  0  0
    7.3826   -1.0885    0.0000 H   0  0  0  0  0  0  0  0  0  0  0  0
    9.6034    0.2251    0.0000 H   0  0  0  0  0  0  0  0  0  0  0  0
    8.9011    1.4334    0.0000 H   0  0  0  0  0  0  0  0  0  0  0  0
    8.9844    2.2260    0.0000 H   0  0  0  0  0  0  0  0  0  0  0  0
    6.7964    2.2438    0.0000 H   0  0  0  0  0  0  0  0  0  0  0  0
    5.9304    2.3809    0.0000 H   0  0  0  0  0  0  0  0  0  0  0  0
    5.7932    1.5149    0.0000 H   0  0  0  0  0  0  0  0  0  0  0  0
    7.8578   -1.2105    0.0000 H   0  0  0  0  0  0  0  0  0  0  0  0
    7.1297   -1.5347    0.0000 H   0  0  0  0  0  0  0  0  0  0  0  0
    8.2083   -3.4384    0.0000 H   0  0  0  0  0  0  0  0  0  0  0  0
    8.5226   -4.2570    0.0000 H   0  0  0  0  0  0  0  0  0  0  0  0
    9.3411   -3.9428    0.0000 H   0  0  0  0  0  0  0  0  0  0  0  0
    7.6330    3.2389    0.0000 H   0  0  0  0  0  0  0  0  0  0  0  0
    7.5497    2.4462    0.0000 H   0  0  0  0  0  0  0  0  0  0  0  0
    6.9283   -3.2115    0.0000 H   0  0  0  0  0  0  0  0  0  0  0  0
    7.6564   -2.8873    0.0000 H   0  0  0  0  0  0  0  0  0  0  0  0
    8.6092    5.0170    0.0000 H   0  0  0  0  0  0  0  0  0  0  0  0
    5.7690   -3.8864    0.0000 H   0  0  0  0  0  0  0  0  0  0  0  0
  1 20  2  0  0  0  0
  2 21  2  0  0  0  0
  3 42  1  0  0  0  0
  3 88  1  0  0  0  0
  4 43  1  0  0  0  0
  4 89  1  0  0  0  0
  5 42  2  0  0  0  0
  6 43  2  0  0  0  0
  7 13  1  0  0  0  0
  7 20  1  0  0  0  0
  7 56  1  0  0  0  0
  8 14  1  0  0  0  0
  8 21  1  0  0  0  0
  8 57  1  0  0  0  0
  9 24  1  0  0  0  0
  9 32  1  0  0  0  0
  9 72  1  0  0  0  0
 10 26  2  0  0  0  0
 10 34  1  0  0  0  0
 11 14  1  0  0  0  0
 11 16  1  0  0  0  0
 11 19  1  0  0  0  0
 11 44  1  0  0  0  0
 12 13  1  0  0  0  0
 12 15  1  0  0  0  0
 12 23  1  0  0  0  0
 12 45  1  0  0  0  0
 13 17  1  0  0  0  0
 13 46  1  0  0  0  0
 14 18  1  0  0  0  0
 14 47  1  0  0  0  0
 15 20  1  0  0  0  0
 15 22  1  0  0  0  0
 15 48  1  0  0  0  0
 16 21  1  0  0  0  0
 16 25  1  0  0  0  0
 16 49  1  0  0  0  0
 17 24  1  0  0  0  0
 17 50  1  0  0  0  0
 17 51  1  0  0  0  0
 18 26  1  0  0  0  0
 18 52  1  0  0  0  0
 18 53  1  0  0  0  0
 19 27  1  0  0  0  0
 19 54  1  0  0  0  0
 19 55  1  0  0  0  0
 22 29  1  0  0  0  0
 22 58  1  0  0  0  0
 22 59  1  0  0  0  0
 23 60  1  0  0  0  0
 23 61  1  0  0  0  0
 23 62  1  0  0  0  0
 24 28  2  0  0  0  0
 25 63  1  0  0  0  0
 25 64  1  0  0  0  0
 25 65  1  0  0  0  0
 26 31  1  0  0  0  0
 27 66  1  0  0  0  0
 27 67  1  0  0  0  0
 27 68  1  0  0  0  0
 28 30  1  0  0  0  0
 28 37  1  0  0  0  0
 29 69  1  0  0  0  0
 29 70  1  0  0  0  0
 29 71  1  0  0  0  0
 30 32  2  0  0  0  0
 30 36  1  0  0  0  0
 31 33  2  0  0  0  0
 31 39  1  0  0  0  0
 32 35  1  0  0  0  0
 33 34  1  0  0  0  0
 33 38  1  0  0  0  0
 34 35  2  0  0  0  0
 35 73  1  0  0  0  0
 36 40  1  0  0  0  0
 36 74  1  0  0  0  0
 36 75  1  0  0  0  0
 37 76  1  0  0  0  0
 37 77  1  0  0  0  0
 37 78  1  0  0  0  0
 38 41  1  0  0  0  0
 38 79  1  0  0  0  0
 38 80  1  0  0  0  0
 39 81  1  0  0  0  0
 39 82  1  0  0  0  0
 39 83  1  0  0  0  0
 40 42  1  0  0  0  0
 40 84  1  0  0  0  0
 40 85  1  0  0  0  0
 41 43  1  0  0  0  0
 41 86  1  0  0  0  0
 41 87  1  0  0  0  0
M  END
> <PUBCHEM_COMPOUND_CID>
5280818

> <PUBCHEM_COMPOUND_CANONICALIZED>
1

> <PUBCHEM_CACTVS_COMPLEXITY>
1210

> <PUBCHEM_CACTVS_HBOND_ACCEPTOR>
7

> <PUBCHEM_CACTVS_HBOND_DONOR>
5

> <PUBCHEM_CACTVS_ROTATABLE_BOND>
13

> <PUBCHEM_CACTVS_SUBSKEYS>
AAADcfB/uAAAAAAAAAAAAAAAAAAAAWLFiAAAAAAAAAAAAAABgAAAHgAQCAAADSjBngQCiJLJkgCoAyXyXACCgCAhAiAAmaE4RJgIIHLA0JGEQAhklgDIyAec2fOegAAAAAAAAAAAAAAAAAAAAAAAAAAAAA==

> <PUBCHEM_IUPAC_OPENEYE_NAME>
3-[(2E)-2-[[3-(2-carboxyethyl)-5-[(4-ethyl-3-methyl-5-oxo-pyrrolidin-2-yl)methyl]-4-methyl-1H-pyrrol-2-yl]methylene]-5-[(3-ethyl-4-methyl-5-oxo-pyrrolidin-2-yl)methyl]-4-methyl-pyrrol-3-yl]propanoic acid

> <PUBCHEM_IUPAC_CAS_NAME>
3-[(2E)-2-[[3-(2-carboxyethyl)-5-[(4-ethyl-3-methyl-5-oxo-2-pyrrolidinyl)methyl]-4-methyl-1H-pyrrol-2-yl]methylidene]-5-[(3-ethyl-4-methyl-5-oxo-2-pyrrolidinyl)methyl]-4-methyl-3-pyrrolyl]propanoic acid

> <PUBCHEM_IUPAC_NAME>
3-[(2E)-2-[[3-(2-carboxyethyl)-5-[(4-ethyl-3-methyl-5-oxopyrrolidin-2-yl)methyl]-4-methyl-1H-pyrrol-2-yl]methylidene]-5-[(3-ethyl-4-methyl-5-oxopyrrolidin-2-yl)methyl]-4-methylpyrrol-3-yl]propanoic acid

> <PUBCHEM_IUPAC_SYSTEMATIC_NAME>
3-[(2E)-5-[(3-ethyl-4-methyl-5-oxidanylidene-pyrrolidin-2-yl)methyl]-2-[[5-[(4-ethyl-3-methyl-5-oxidanylidene-pyrrolidin-2-yl)methyl]-3-(3-hydroxy-3-oxopropyl)-4-methyl-1H-pyrrol-2-yl]methylidene]-4-methyl-pyrrol-3-yl]propanoic acid

> <PUBCHEM_IUPAC_TRADITIONAL_NAME>
3-[(2E)-2-[[3-(2-carboxyethyl)-5-[(4-ethyl-5-keto-3-methyl-pyrrolidin-2-yl)methyl]-4-methyl-1H-pyrrol-2-yl]methylene]-5-[(3-ethyl-5-keto-4-methyl-pyrrolidin-2-yl)methyl]-4-methyl-pyrrol-3-yl]propionic acid

> <PUBCHEM_IUPAC_INCHI>
InChI=1S/C33H46N4O6/c1-7-20-19(6)32(42)37-27(20)14-25-18(5)23(10-12-31(40)41)29(35-25)15-28-22(9-11-30(38)39)17(4)24(34-28)13-26-16(3)21(8-2)33(43)36-26/h15-16,19-21,26-27,34H,7-14H2,1-6H3,(H,36,43)(H,37,42)(H,38,39)(H,40,41)/b29-15+

> <PUBCHEM_IUPAC_INCHIKEY>
TYOWQSLRVAUSMI-WKULSOCRSA-N

> <PUBCHEM_XLOGP3_AA>
2.8

> <PUBCHEM_EXACT_MASS>
594.341735

> <PUBCHEM_MOLECULAR_FORMULA>
C33H46N4O6

> <PUBCHEM_MOLECULAR_WEIGHT>
594.74154

> <PUBCHEM_OPENEYE_CAN_SMILES>
CCC1C(C(=O)NC1CC2=NC(=CC3=C(C(=C(N3)CC4C(C(C(=O)N4)CC)C)C)CCC(=O)O)C(=C2C)CCC(=O)O)C

> <PUBCHEM_OPENEYE_ISO_SMILES>
CCC1C(C(=O)NC1CC2=N/C(=C/C3=C(C(=C(N3)CC4C(C(C(=O)N4)CC)C)C)CCC(=O)O)/C(=C2C)CCC(=O)O)C

> <PUBCHEM_CACTVS_TPSA>
161

> <PUBCHEM_MONOISOTOPIC_WEIGHT>
594.341735

> <PUBCHEM_TOTAL_CHARGE>
0

> <PUBCHEM_HEAVY_ATOM_COUNT>
43

> <PUBCHEM_ATOM_DEF_STEREO_COUNT>
0

> <PUBCHEM_ATOM_UDEF_STEREO_COUNT>
6

> <PUBCHEM_BOND_DEF_STEREO_COUNT>
1

> <PUBCHEM_BOND_UDEF_STEREO_COUNT>
0

> <PUBCHEM_ISOTOPIC_ATOM_COUNT>
0

> <PUBCHEM_COMPONENT_COUNT>
1

> <PUBCHEM_CACTVS_TAUTO_COUNT>
18

> <PUBCHEM_COORDINATE_TYPE>
1
5
255

> <PUBCHEM_BONDANNOTATIONS>
11  44  3
12  45  3
13  46  3
14  47  3
15  48  3
16  49  3
24  28  8
28  30  8
30  32  8
9  24  8
9  32  8

$$$$

