23724748
  -OEChem-07051213082D

 60 62  0     1  0  0  0  0  0999 V2000
    6.7795    3.1098    0.0000 P   0  0  3  0  0  0  0  0  0  0  0  0
    7.1425    4.8034    0.0000 P   0  0  3  0  0  0  0  0  0  0  0  0
    7.5056    6.4970    0.0000 P   0  0  0  0  0  0  0  0  0  0  0  0
    6.1346   -0.3433    0.0000 O   0  0  0  0  0  0  0  0  0  0  0  0
    8.4806   -1.4352    0.0000 O   0  0  0  0  0  0  0  0  0  0  0  0
    8.4843    0.7404    0.0000 O   0  0  0  0  0  0  0  0  0  0  0  0
    7.0868    2.1582    0.0000 O   0  0  0  0  0  0  0  0  0  0  0  0
    6.4721    4.0614    0.0000 O   0  0  0  0  0  0  0  0  0  0  0  0
    7.7310    3.4172    0.0000 O   0  0  0  0  0  0  0  0  0  0  0  0
    5.8279    2.8025    0.0000 O   0  0  0  0  0  0  0  0  0  0  0  0
    7.8129    5.5454    0.0000 O   0  0  0  0  0  0  0  0  0  0  0  0
    6.4005    5.4738    0.0000 O   0  0  0  0  0  0  0  0  0  0  0  0
    7.8845    4.1330    0.0000 O   0  0  0  0  0  0  0  0  0  0  0  0
    7.1982    7.4486    0.0000 O   0  0  0  0  0  0  0  0  0  0  0  0
    8.4571    6.8044    0.0000 O   0  0  0  0  0  0  0  0  0  0  0  0
    6.5540    6.1896    0.0000 O   0  0  0  0  0  0  0  0  0  0  0  0
    6.4103   -2.1039    0.0000 N   0  0  0  0  0  0  0  0  0  0  0  0
    6.4103   -3.7133    0.0000 N   0  0  0  0  0  0  0  0  0  0  0  0
    4.5981   -1.9086    0.0000 N   0  0  0  0  0  0  0  0  0  0  0  0
    3.7320   -3.4086    0.0000 N   0  0  0  0  0  0  0  0  0  0  0  0
    4.5981   -4.9086    0.0000 N   0  0  0  0  0  0  0  0  0  0  0  0
    7.6726   -0.8460    0.0000 C   0  0  2  0  0  0  0  0  0  0  0  0
    7.6743    0.1540    0.0000 C   0  0  1  0  0  0  0  0  0  0  0  0
    6.7210   -1.1534    0.0000 C   0  0  1  0  0  0  0  0  0  0  0  0
    6.7238    0.4647    0.0000 C   0  0  1  0  0  0  0  0  0  0  0  0
    6.4164    1.4163    0.0000 C   0  0  0  0  0  0  0  0  0  0  0  0
    5.4641   -2.4086    0.0000 C   0  0  0  0  0  0  0  0  0  0  0  0
    6.9939   -2.9086    0.0000 C   0  0  0  0  0  0  0  0  0  0  0  0
    5.4641   -3.4086    0.0000 C   0  0  0  0  0  0  0  0  0  0  0  0
    4.5981   -3.9086    0.0000 C   0  0  0  0  0  0  0  0  0  0  0  0
    3.7320   -2.4086    0.0000 C   0  0  0  0  0  0  0  0  0  0  0  0
    3.7320   -5.4086    0.0000 C   0  0  0  0  0  0  0  0  0  0  0  0
    3.7320   -6.4086    0.0000 C   0  0  0  0  0  0  0  0  0  0  0  0
    2.8660   -6.9086    0.0000 C   0  0  0  0  0  0  0  0  0  0  0  0
    2.8660   -7.9086    0.0000 C   0  0  0  0  0  0  0  0  0  0  0  0
    2.0000   -6.4086    0.0000 C   0  0  0  0  0  0  0  0  0  0  0  0
    8.2255   -0.5655    0.0000 H   0  0  0  0  0  0  0  0  0  0  0  0
    8.2262   -0.1284    0.0000 H   0  0  0  0  0  0  0  0  0  0  0  0
    6.1085   -1.2493    0.0000 H   0  0  0  0  0  0  0  0  0  0  0  0
    6.1116    0.5627    0.0000 H   0  0  0  0  0  0  0  0  0  0  0  0
    6.0356    1.9055    0.0000 H   0  0  0  0  0  0  0  0  0  0  0  0
    5.8685    1.1261    0.0000 H   0  0  0  0  0  0  0  0  0  0  0  0
    9.0474   -1.1840    0.0000 H   0  0  0  0  0  0  0  0  0  0  0  0
    9.0503    0.4872    0.0000 H   0  0  0  0  0  0  0  0  0  0  0  0
    7.6139   -2.9086    0.0000 H   0  0  0  0  0  0  0  0  0  0  0  0
    3.1951   -2.0986    0.0000 H   0  0  0  0  0  0  0  0  0  0  0  0
    5.1350   -5.2186    0.0000 H   0  0  0  0  0  0  0  0  0  0  0  0
    3.5200   -4.8260    0.0000 H   0  0  0  0  0  0  0  0  0  0  0  0
    3.1215   -5.5163    0.0000 H   0  0  0  0  0  0  0  0  0  0  0  0
    8.1911    3.0016    0.0000 H   0  0  0  0  0  0  0  0  0  0  0  0
    4.2690   -6.7186    0.0000 H   0  0  0  0  0  0  0  0  0  0  0  0
    5.8105    5.2833    0.0000 H   0  0  0  0  0  0  0  0  0  0  0  0
    2.3100   -5.8717    0.0000 H   0  0  0  0  0  0  0  0  0  0  0  0
    2.2460   -7.9086    0.0000 H   0  0  0  0  0  0  0  0  0  0  0  0
    2.8660   -8.5286    0.0000 H   0  0  0  0  0  0  0  0  0  0  0  0
    3.4860   -7.9086    0.0000 H   0  0  0  0  0  0  0  0  0  0  0  0
    1.4631   -6.0986    0.0000 H   0  0  0  0  0  0  0  0  0  0  0  0
    1.6900   -6.9456    0.0000 H   0  0  0  0  0  0  0  0  0  0  0  0
    8.9172    6.3887    0.0000 H   0  0  0  0  0  0  0  0  0  0  0  0
    7.6138    7.9086    0.0000 H   0  0  0  0  0  0  0  0  0  0  0  0
  1  7  1  0  0  0  0
  1  8  1  0  0  0  0
  1  9  1  0  0  0  0
  1 10  2  0  0  0  0
  2  8  1  0  0  0  0
  2 11  1  0  0  0  0
  2 12  1  0  0  0  0
  2 13  2  0  0  0  0
  3 11  1  0  0  0  0
  3 14  1  0  0  0  0
  3 15  1  0  0  0  0
  3 16  2  0  0  0  0
  4 24  1  0  0  0  0
  4 25  1  0  0  0  0
 22  5  1  1  0  0  0
  5 43  1  0  0  0  0
 23  6  1  1  0  0  0
  6 44  1  0  0  0  0
  7 26  1  0  0  0  0
  9 50  1  0  0  0  0
 12 52  1  0  0  0  0
 14 60  1  0  0  0  0
 15 59  1  0  0  0  0
 24 17  1  6  0  0  0
 17 27  1  0  0  0  0
 17 28  1  0  0  0  0
 18 28  2  0  0  0  0
 18 29  1  0  0  0  0
 19 27  2  0  0  0  0
 19 31  1  0  0  0  0
 20 30  1  0  0  0  0
 20 31  2  0  0  0  0
 21 30  1  0  0  0  0
 21 32  1  0  0  0  0
 21 47  1  0  0  0  0
 22 23  1  0  0  0  0
 22 24  1  0  0  0  0
 22 37  1  0  0  0  0
 23 25  1  0  0  0  0
 23 38  1  0  0  0  0
 24 39  1  0  0  0  0
 25 26  1  6  0  0  0
 25 40  1  0  0  0  0
 26 41  1  0  0  0  0
 26 42  1  0  0  0  0
 27 29  1  0  0  0  0
 28 45  1  0  0  0  0
 29 30  2  0  0  0  0
 31 46  1  0  0  0  0
 32 33  1  0  0  0  0
 32 48  1  0  0  0  0
 32 49  1  0  0  0  0
 33 34  2  0  0  0  0
 33 51  1  0  0  0  0
 34 35  1  0  0  0  0
 34 36  1  0  0  0  0
 35 54  1  0  0  0  0
 35 55  1  0  0  0  0
 35 56  1  0  0  0  0
 36 53  1  0  0  0  0
 36 57  1  0  0  0  0
 36 58  1  0  0  0  0
M  END
> <PUBCHEM_COMPOUND_CID>
23724748

> <PUBCHEM_COMPOUND_CANONICALIZED>
1

> <PUBCHEM_CACTVS_COMPLEXITY>
948

> <PUBCHEM_CACTVS_HBOND_ACCEPTOR>
17

> <PUBCHEM_CACTVS_HBOND_DONOR>
7

> <PUBCHEM_CACTVS_ROTATABLE_BOND>
11

> <PUBCHEM_CACTVS_SUBSKEYS>
AAADceBzvAMAAAAAAAAAAAAAAAAAAWJAAAAsAAAAAAAAAFgB+AAAHgAQCCAADBzhlwYH8L/MFxCgQyZjZICAgC0REKABWKAoVBCDWAJAyUAeRAgPEALTACDwMAIAAAAAAAAAAAAAAAAAAAAAAAAAAAAAAA==

> <PUBCHEM_IUPAC_OPENEYE_NAME>
[[(2R,3S,4R,5R)-3,4-dihydroxy-5-[6-(3-methylbut-2-enylamino)purin-9-yl]tetrahydrofuran-2-yl]methoxy-hydroxy-phosphoryl] phosphono hydrogen phosphate

> <PUBCHEM_IUPAC_CAS_NAME>
[[(2R,3S,4R,5R)-3,4-dihydroxy-5-[6-(3-methylbut-2-enylamino)-9-purinyl]-2-oxolanyl]methoxy-hydroxyphosphoryl] phosphono hydrogen phosphate

> <PUBCHEM_IUPAC_NAME>
[[(2R,3S,4R,5R)-3,4-dihydroxy-5-[6-(3-methylbut-2-enylamino)purin-9-yl]oxolan-2-yl]methoxy-hydroxyphosphoryl] phosphono hydrogen phosphate

> <PUBCHEM_IUPAC_SYSTEMATIC_NAME>
[[(2R,3S,4R,5R)-5-[6-(3-methylbut-2-enylamino)purin-9-yl]-3,4-bis(oxidanyl)oxolan-2-yl]methoxy-oxidanyl-phosphoryl] phosphono hydrogen phosphate

> <PUBCHEM_IUPAC_TRADITIONAL_NAME>
[[(2R,3S,4R,5R)-3,4-dihydroxy-5-[6-(3-methylbut-2-enylamino)purin-9-yl]tetrahydrofuran-2-yl]methoxy-hydroxy-phosphoryl] phosphono hydrogen phosphate

> <PUBCHEM_IUPAC_INCHI>
InChI=1S/C15H24N5O13P3/c1-8(2)3-4-16-13-10-14(18-6-17-13)20(7-19-10)15-12(22)11(21)9(31-15)5-30-35(26,27)33-36(28,29)32-34(23,24)25/h3,6-7,9,11-12,15,21-22H,4-5H2,1-2H3,(H,26,27)(H,28,29)(H,16,17,18)(H2,23,24,25)/t9-,11-,12-,15-/m1/s1

> <PUBCHEM_IUPAC_INCHIKEY>
OPLVZTYVQUWKHB-SDBHATRESA-N

> <PUBCHEM_XLOGP3>
-3.5

> <PUBCHEM_EXACT_MASS>
575.058346

> <PUBCHEM_MOLECULAR_FORMULA>
C15H24N5O13P3

> <PUBCHEM_MOLECULAR_WEIGHT>
575.298046

> <PUBCHEM_OPENEYE_CAN_SMILES>
CC(=CCNC1=NC=NC2=C1N=CN2C3C(C(C(O3)COP(=O)(O)OP(=O)(O)OP(=O)(O)O)O)O)C

> <PUBCHEM_OPENEYE_ISO_SMILES>
CC(=CCNC1=NC=NC2=C1N=CN2[C@H]3[C@@H]([C@@H]([C@H](O3)COP(=O)(O)OP(=O)(O)OP(=O)(O)O)O)O)C

> <PUBCHEM_CACTVS_TPSA>
265

> <PUBCHEM_MONOISOTOPIC_WEIGHT>
575.058346

> <PUBCHEM_TOTAL_CHARGE>
0

> <PUBCHEM_HEAVY_ATOM_COUNT>
36

> <PUBCHEM_ATOM_DEF_STEREO_COUNT>
4

> <PUBCHEM_ATOM_UDEF_STEREO_COUNT>
0

> <PUBCHEM_BOND_DEF_STEREO_COUNT>
0

> <PUBCHEM_BOND_UDEF_STEREO_COUNT>
0

> <PUBCHEM_ISOTOPIC_ATOM_COUNT>
0

> <PUBCHEM_COMPONENT_COUNT>
1

> <PUBCHEM_CACTVS_TAUTO_COUNT>
3

> <PUBCHEM_COORDINATE_TYPE>
1
5
255

> <PUBCHEM_BONDANNOTATIONS>
24  17  6
17  27  8
17  28  8
18  28  8
18  29  8
19  27  8
19  31  8
20  30  8
20  31  8
25  26  6
27  29  8
29  30  8
22  5  5
23  6  5

$$$$

