586227
  -OEChem-06241222452D

 42 44  0     1  0  0  0  0  0999 V2000
    2.0000   -2.8925    0.0000 F   0  0  0  0  0  0  0  0  0  0  0  0
    2.3660   -1.5264    0.0000 F   0  0  0  0  0  0  0  0  0  0  0  0
    3.3660   -3.2585    0.0000 F   0  0  0  0  0  0  0  0  0  0  0  0
    8.0622   -0.3925    0.0000 O   0  0  0  0  0  0  0  0  0  0  0  0
    7.1962   -1.8925    0.0000 O   0  0  0  0  0  0  0  0  0  0  0  0
   11.7651    2.3925    0.0000 N   0  0  0  0  0  0  0  0  0  0  0  0
    8.9282   -0.8925    0.0000 N   0  0  0  0  0  0  0  0  0  0  0  0
    6.3301   -0.3925    0.0000 N   0  0  0  0  0  0  0  0  0  0  0  0
   12.5017    1.4099    0.0000 C   0  0  3  0  0  0  0  0  0  0  0  0
   12.2429    0.4439    0.0000 C   0  0  3  0  0  0  0  0  0  0  0  0
   14.0749   -0.3149    0.0000 C   0  0  0  0  0  0  0  0  0  0  0  0
   14.3337    0.6510    0.0000 C   0  0  0  0  0  0  0  0  0  0  0  0
   10.7078   -0.7992    0.0000 C   0  0  0  0  0  0  0  0  0  0  0  0
    9.8988    0.6020    0.0000 C   0  0  0  0  0  0  0  0  0  0  0  0
    9.7942   -0.3925    0.0000 C   0  0  0  0  0  0  0  0  0  0  0  0
   11.2651    3.2585    0.0000 C   0  0  0  0  0  0  0  0  0  0  0  0
    7.1962   -0.8925    0.0000 C   0  0  0  0  0  0  0  0  0  0  0  0
    5.4641   -0.8925    0.0000 C   0  0  0  0  0  0  0  0  0  0  0  0
    4.5981   -0.3925    0.0000 C   0  0  0  0  0  0  0  0  0  0  0  0
    5.4641   -1.8925    0.0000 C   0  0  0  0  0  0  0  0  0  0  0  0
    3.7320   -1.8925    0.0000 C   0  0  0  0  0  0  0  0  0  0  0  0
    3.7320   -0.8925    0.0000 C   0  0  0  0  0  0  0  0  0  0  0  0
    4.5981   -2.3925    0.0000 C   0  0  0  0  0  0  0  0  0  0  0  0
    2.8660   -2.3925    0.0000 C   0  0  0  0  0  0  0  0  0  0  0  0
   12.4733    0.7905    0.0000 H   0  0  0  0  0  0  0  0  0  0  0  0
   12.3319   -0.1696    0.0000 H   0  0  0  0  0  0  0  0  0  0  0  0
   14.9250    0.4646    0.0000 H   0  0  0  0  0  0  0  0  0  0  0  0
   14.5458    1.2336    0.0000 H   0  0  0  0  0  0  0  0  0  0  0  0
   13.8628   -0.8975    0.0000 H   0  0  0  0  0  0  0  0  0  0  0  0
   14.6662   -0.5013    0.0000 H   0  0  0  0  0  0  0  0  0  0  0  0
    9.7965    1.2136    0.0000 H   0  0  0  0  0  0  0  0  0  0  0  0
    9.2790    0.5831    0.0000 H   0  0  0  0  0  0  0  0  0  0  0  0
   10.3701   -1.3192    0.0000 H   0  0  0  0  0  0  0  0  0  0  0  0
   11.1685   -1.2141    0.0000 H   0  0  0  0  0  0  0  0  0  0  0  0
   11.8021    3.5685    0.0000 H   0  0  0  0  0  0  0  0  0  0  0  0
   10.9551    3.7954    0.0000 H   0  0  0  0  0  0  0  0  0  0  0  0
   10.7282    2.9485    0.0000 H   0  0  0  0  0  0  0  0  0  0  0  0
    6.3301    0.2275    0.0000 H   0  0  0  0  0  0  0  0  0  0  0  0
    4.5981    0.2275    0.0000 H   0  0  0  0  0  0  0  0  0  0  0  0
    6.0010   -2.2025    0.0000 H   0  0  0  0  0  0  0  0  0  0  0  0
    3.1951   -0.5825    0.0000 H   0  0  0  0  0  0  0  0  0  0  0  0
    4.5981   -3.0125    0.0000 H   0  0  0  0  0  0  0  0  0  0  0  0
  1 24  1  0  0  0  0
  2 24  1  0  0  0  0
  3 24  1  0  0  0  0
  4  7  1  0  0  0  0
  4 17  1  0  0  0  0
  5 17  2  0  0  0  0
  6  9  1  0  0  0  0
  6 10  1  0  0  0  0
  6 16  1  0  0  0  0
  7 15  2  0  0  0  0
  8 17  1  0  0  0  0
  8 18  1  0  0  0  0
  8 38  1  0  0  0  0
  9 12  1  0  0  0  0
  9 14  1  0  0  0  0
  9 25  1  0  0  0  0
 10 11  1  0  0  0  0
 10 13  1  0  0  0  0
 10 26  1  0  0  0  0
 11 12  1  0  0  0  0
 11 29  1  0  0  0  0
 11 30  1  0  0  0  0
 12 27  1  0  0  0  0
 12 28  1  0  0  0  0
 13 15  1  0  0  0  0
 13 33  1  0  0  0  0
 13 34  1  0  0  0  0
 14 15  1  0  0  0  0
 14 31  1  0  0  0  0
 14 32  1  0  0  0  0
 16 35  1  0  0  0  0
 16 36  1  0  0  0  0
 16 37  1  0  0  0  0
 18 19  2  0  0  0  0
 18 20  1  0  0  0  0
 19 22  1  0  0  0  0
 19 39  1  0  0  0  0
 20 23  2  0  0  0  0
 20 40  1  0  0  0  0
 21 22  2  0  0  0  0
 21 23  1  0  0  0  0
 21 24  1  0  0  0  0
 22 41  1  0  0  0  0
 23 42  1  0  0  0  0
M  END
> <PUBCHEM_COMPOUND_CID>
586227

> <PUBCHEM_COMPOUND_CANONICALIZED>
1

> <PUBCHEM_CACTVS_COMPLEXITY>
485

> <PUBCHEM_CACTVS_HBOND_ACCEPTOR>
7

> <PUBCHEM_CACTVS_HBOND_DONOR>
1

> <PUBCHEM_CACTVS_ROTATABLE_BOND>
3

> <PUBCHEM_CACTVS_SUBSKEYS>
AAADceB7MYAAAAAAAAAAAAAAAAAAAWAAAAA8QAAABgAAAAABAAAAHwAUAAAADCjBGBQyyIPQAACoAyRiWACCAAAhAgAIiAA4ZIkIICLAkZGEIAhglADIyAcQgAAOCAAAAAAAAAAQAAAAAAAAAAAAAAAAAA==

> <PUBCHEM_IUPAC_OPENEYE_NAME>
[(8-methyl-8-azabicyclo[3.2.1]octan-3-ylidene)amino] N-[4-(trifluoromethyl)phenyl]carbamate

> <PUBCHEM_IUPAC_CAS_NAME>
N-[4-(trifluoromethyl)phenyl]carbamic acid [(8-methyl-8-azabicyclo[3.2.1]octan-3-ylidene)amino] ester

> <PUBCHEM_IUPAC_NAME>
[(8-methyl-8-azabicyclo[3.2.1]octan-3-ylidene)amino] N-[4-(trifluoromethyl)phenyl]carbamate

> <PUBCHEM_IUPAC_SYSTEMATIC_NAME>
[(8-methyl-8-azabicyclo[3.2.1]octan-3-ylidene)amino] N-[4-(trifluoromethyl)phenyl]carbamate

> <PUBCHEM_IUPAC_TRADITIONAL_NAME>
N-[4-(trifluoromethyl)phenyl]carbamic acid [(8-methyl-8-azabicyclo[3.2.1]octan-3-ylidene)amino] ester

> <PUBCHEM_IUPAC_INCHI>
InChI=1S/C16H18F3N3O2/c1-22-13-6-7-14(22)9-12(8-13)21-24-15(23)20-11-4-2-10(3-5-11)16(17,18)19/h2-5,13-14H,6-9H2,1H3,(H,20,23)

> <PUBCHEM_IUPAC_INCHIKEY>
RQJSUMGMBPPTRN-UHFFFAOYSA-N

> <PUBCHEM_XLOGP3_AA>
3

> <PUBCHEM_EXACT_MASS>
341.135111

> <PUBCHEM_MOLECULAR_FORMULA>
C16H18F3N3O2

> <PUBCHEM_MOLECULAR_WEIGHT>
341.32823

> <PUBCHEM_OPENEYE_CAN_SMILES>
CN1C2CCC1CC(=NOC(=O)NC3=CC=C(C=C3)C(F)(F)F)C2

> <PUBCHEM_OPENEYE_ISO_SMILES>
CN1C2CCC1CC(=NOC(=O)NC3=CC=C(C=C3)C(F)(F)F)C2

> <PUBCHEM_CACTVS_TPSA>
53.9

> <PUBCHEM_MONOISOTOPIC_WEIGHT>
341.135111

> <PUBCHEM_TOTAL_CHARGE>
0

> <PUBCHEM_HEAVY_ATOM_COUNT>
24

> <PUBCHEM_ATOM_DEF_STEREO_COUNT>
0

> <PUBCHEM_ATOM_UDEF_STEREO_COUNT>
2

> <PUBCHEM_BOND_DEF_STEREO_COUNT>
0

> <PUBCHEM_BOND_UDEF_STEREO_COUNT>
0

> <PUBCHEM_ISOTOPIC_ATOM_COUNT>
0

> <PUBCHEM_COMPONENT_COUNT>
1

> <PUBCHEM_CACTVS_TAUTO_COUNT>
4

> <PUBCHEM_COORDINATE_TYPE>
1
5
255

> <PUBCHEM_BONDANNOTATIONS>
10  11  3
18  19  8
18  20  8
19  22  8
20  23  8
21  22  8
21  23  8
9  12  3

$$$$

