127803
  -OEChem-07051213072D

 54 57  0     1  0  0  0  0  0999 V2000
    6.2138    1.2217    0.0000 S   0  0  3  0  0  0  0  0  0  0  0  0
    2.8180   -4.6601    0.0000 O   0  0  0  0  0  0  0  0  0  0  0  0
    7.2138    1.2217    0.0000 O   0  0  0  0  0  0  0  0  0  0  0  0
    8.7138    3.8197    0.0000 O   0  0  0  0  0  0  0  0  0  0  0  0
    6.1189   -0.5522    0.0000 N   0  0  0  0  0  0  0  0  0  0  0  0
    4.7251    0.2526    0.0000 N   0  0  0  0  0  0  0  0  0  0  0  0
    5.7138    3.8197    0.0000 N   0  0  0  0  0  0  0  0  0  0  0  0
    4.3067   -3.6911    0.0000 C   0  0  0  0  0  0  0  0  0  0  0  0
    2.9128   -2.8863    0.0000 C   0  0  0  0  0  0  0  0  0  0  0  0
    4.5159   -2.7192    0.0000 C   0  0  0  0  0  0  0  0  0  0  0  0
    3.6499   -2.2192    0.0000 C   0  0  0  0  0  0  0  0  0  0  0  0
    3.3180   -3.7941    0.0000 C   0  0  0  0  0  0  0  0  0  0  0  0
    4.4095   -4.6858    0.0000 C   0  0  0  0  0  0  0  0  0  0  0  0
    5.2845   -3.9007    0.0000 C   0  0  0  0  0  0  0  0  0  0  0  0
    2.0000   -3.2946    0.0000 C   0  0  0  0  0  0  0  0  0  0  0  0
    2.2424   -2.1443    0.0000 C   0  0  0  0  0  0  0  0  0  0  0  0
    5.3819   -2.2192    0.0000 C   0  0  0  0  0  0  0  0  0  0  0  0
    3.6499   -1.2192    0.0000 C   0  0  0  0  0  0  0  0  0  0  0  0
    5.3819   -1.2192    0.0000 C   0  0  0  0  0  0  0  0  0  0  0  0
    4.5159   -0.7192    0.0000 C   0  0  0  0  0  0  0  0  0  0  0  0
    5.7138    0.3556    0.0000 C   0  0  0  0  0  0  0  0  0  0  0  0
    5.7138    2.0877    0.0000 C   0  0  0  0  0  0  0  0  0  0  0  0
    6.2138    2.9537    0.0000 C   0  0  0  0  0  0  0  0  0  0  0  0
    7.2138    2.9537    0.0000 C   0  0  0  0  0  0  0  0  0  0  0  0
    7.7138    3.8197    0.0000 C   0  0  0  0  0  0  0  0  0  0  0  0
    7.7138    2.0877    0.0000 C   0  0  0  0  0  0  0  0  0  0  0  0
    7.2138    4.6858    0.0000 C   0  0  0  0  0  0  0  0  0  0  0  0
    6.2138    4.6858    0.0000 C   0  0  0  0  0  0  0  0  0  0  0  0
    9.2138    4.6858    0.0000 C   0  0  0  0  0  0  0  0  0  0  0  0
    3.7928   -4.7495    0.0000 H   0  0  0  0  0  0  0  0  0  0  0  0
    4.4732   -5.3025    0.0000 H   0  0  0  0  0  0  0  0  0  0  0  0
    5.0262   -4.6220    0.0000 H   0  0  0  0  0  0  0  0  0  0  0  0
    5.1545   -4.5069    0.0000 H   0  0  0  0  0  0  0  0  0  0  0  0
    5.8907   -4.0306    0.0000 H   0  0  0  0  0  0  0  0  0  0  0  0
    5.4144   -3.2944    0.0000 H   0  0  0  0  0  0  0  0  0  0  0  0
    2.7025   -1.7287    0.0000 H   0  0  0  0  0  0  0  0  0  0  0  0
    1.8268   -1.6843    0.0000 H   0  0  0  0  0  0  0  0  0  0  0  0
    1.7824   -2.5600    0.0000 H   0  0  0  0  0  0  0  0  0  0  0  0
    1.7468   -2.7287    0.0000 H   0  0  0  0  0  0  0  0  0  0  0  0
    1.4340   -3.5478    0.0000 H   0  0  0  0  0  0  0  0  0  0  0  0
    2.2532   -3.8606    0.0000 H   0  0  0  0  0  0  0  0  0  0  0  0
    5.9188   -2.5292    0.0000 H   0  0  0  0  0  0  0  0  0  0  0  0
    3.1129   -0.9092    0.0000 H   0  0  0  0  0  0  0  0  0  0  0  0
    6.7256   -0.6800    0.0000 H   0  0  0  0  0  0  0  0  0  0  0  0
    5.2389    2.4862    0.0000 H   0  0  0  0  0  0  0  0  0  0  0  0
    5.2389    1.6892    0.0000 H   0  0  0  0  0  0  0  0  0  0  0  0
    7.1769    1.7777    0.0000 H   0  0  0  0  0  0  0  0  0  0  0  0
    8.0238    1.5508    0.0000 H   0  0  0  0  0  0  0  0  0  0  0  0
    8.2507    2.3977    0.0000 H   0  0  0  0  0  0  0  0  0  0  0  0
    7.5238    5.2227    0.0000 H   0  0  0  0  0  0  0  0  0  0  0  0
    5.9038    5.2227    0.0000 H   0  0  0  0  0  0  0  0  0  0  0  0
    9.7507    4.3758    0.0000 H   0  0  0  0  0  0  0  0  0  0  0  0
    9.5238    5.2227    0.0000 H   0  0  0  0  0  0  0  0  0  0  0  0
    8.6769    4.9958    0.0000 H   0  0  0  0  0  0  0  0  0  0  0  0
  1  3  2  0  0  0  0
  1 21  1  0  0  0  0
  1 22  1  0  0  0  0
  2 12  2  0  0  0  0
  4 25  1  0  0  0  0
  4 29  1  0  0  0  0
  5 19  1  0  0  0  0
  5 21  1  0  0  0  0
  5 44  1  0  0  0  0
  6 20  1  0  0  0  0
  6 21  2  0  0  0  0
  7 23  2  0  0  0  0
  7 28  1  0  0  0  0
  8 10  1  0  0  0  0
  8 12  1  0  0  0  0
  8 13  1  0  0  0  0
  8 14  1  0  0  0  0
  9 11  1  0  0  0  0
  9 12  1  0  0  0  0
  9 15  1  0  0  0  0
  9 16  1  0  0  0  0
 10 11  1  0  0  0  0
 10 17  2  0  0  0  0
 11 18  2  0  0  0  0
 13 30  1  0  0  0  0
 13 31  1  0  0  0  0
 13 32  1  0  0  0  0
 14 33  1  0  0  0  0
 14 34  1  0  0  0  0
 14 35  1  0  0  0  0
 15 39  1  0  0  0  0
 15 40  1  0  0  0  0
 15 41  1  0  0  0  0
 16 36  1  0  0  0  0
 16 37  1  0  0  0  0
 16 38  1  0  0  0  0
 17 19  1  0  0  0  0
 17 42  1  0  0  0  0
 18 20  1  0  0  0  0
 18 43  1  0  0  0  0
 19 20  2  0  0  0  0
 22 23  1  0  0  0  0
 22 45  1  0  0  0  0
 22 46  1  0  0  0  0
 23 24  1  0  0  0  0
 24 25  2  0  0  0  0
 24 26  1  0  0  0  0
 25 27  1  0  0  0  0
 26 47  1  0  0  0  0
 26 48  1  0  0  0  0
 26 49  1  0  0  0  0
 27 28  2  0  0  0  0
 27 50  1  0  0  0  0
 28 51  1  0  0  0  0
 29 52  1  0  0  0  0
 29 53  1  0  0  0  0
 29 54  1  0  0  0  0
M  END
> <PUBCHEM_COMPOUND_CID>
127803

> <PUBCHEM_COMPOUND_CANONICALIZED>
1

> <PUBCHEM_CACTVS_COMPLEXITY>
682

> <PUBCHEM_CACTVS_HBOND_ACCEPTOR>
6

> <PUBCHEM_CACTVS_HBOND_DONOR>
1

> <PUBCHEM_CACTVS_ROTATABLE_BOND>
4

> <PUBCHEM_CACTVS_SUBSKEYS>
AAADceB7MABAAAAAAAAAAAAAAAAAAeIAAAA8QAAAAAAAAHgB/AAAHgQQAAAADgzF3ga/1rbJlAqoA7R3ZEDK2i3xMrAJ2SE+fJiMbvLkvJuUMChukBrI6CcYicCfiAAAQAAQACAQAACAACAAQQAACAAAAA==

> <PUBCHEM_IUPAC_OPENEYE_NAME>
2-[(4-methoxy-3-methyl-2-pyridyl)methylsulfinyl]-5,5,7,7-tetramethyl-3H-cyclopenta[f]benzimidazol-6-one

> <PUBCHEM_IUPAC_CAS_NAME>
2-[(4-methoxy-3-methyl-2-pyridinyl)methylsulfinyl]-5,5,7,7-tetramethyl-3H-cyclopenta[f]benzimidazol-6-one

> <PUBCHEM_IUPAC_NAME>
2-[(4-methoxy-3-methylpyridin-2-yl)methylsulfinyl]-5,5,7,7-tetramethyl-3H-cyclopenta[f]benzimidazol-6-one

> <PUBCHEM_IUPAC_SYSTEMATIC_NAME>
2-[(4-methoxy-3-methyl-pyridin-2-yl)methylsulfinyl]-5,5,7,7-tetramethyl-3H-cyclopenta[f]benzimidazol-6-one

> <PUBCHEM_IUPAC_TRADITIONAL_NAME>
2-[(4-methoxy-3-methyl-2-pyridyl)methylsulfinyl]-5,5,7,7-tetramethyl-3H-cyclopenta[f]benzimidazol-6-one

> <PUBCHEM_IUPAC_INCHI>
InChI=1S/C22H25N3O3S/c1-12-17(23-8-7-18(12)28-6)11-29(27)20-24-15-9-13-14(10-16(15)25-20)22(4,5)19(26)21(13,2)3/h7-10H,11H2,1-6H3,(H,24,25)

> <PUBCHEM_IUPAC_INCHIKEY>
YBCJDBBYBFMVEG-UHFFFAOYSA-N

> <PUBCHEM_XLOGP3_AA>
3.1

> <PUBCHEM_EXACT_MASS>
411.161663

> <PUBCHEM_MOLECULAR_FORMULA>
C22H25N3O3S

> <PUBCHEM_MOLECULAR_WEIGHT>
411.5172

> <PUBCHEM_OPENEYE_CAN_SMILES>
CC1=C(C=CN=C1CS(=O)C2=NC3=C(N2)C=C4C(=C3)C(C(=O)C4(C)C)(C)C)OC

> <PUBCHEM_OPENEYE_ISO_SMILES>
CC1=C(C=CN=C1CS(=O)C2=NC3=C(N2)C=C4C(=C3)C(C(=O)C4(C)C)(C)C)OC

> <PUBCHEM_CACTVS_TPSA>
104

> <PUBCHEM_MONOISOTOPIC_WEIGHT>
411.161663

> <PUBCHEM_TOTAL_CHARGE>
0

> <PUBCHEM_HEAVY_ATOM_COUNT>
29

> <PUBCHEM_ATOM_DEF_STEREO_COUNT>
0

> <PUBCHEM_ATOM_UDEF_STEREO_COUNT>
1

> <PUBCHEM_BOND_DEF_STEREO_COUNT>
0

> <PUBCHEM_BOND_UDEF_STEREO_COUNT>
0

> <PUBCHEM_ISOTOPIC_ATOM_COUNT>
0

> <PUBCHEM_COMPONENT_COUNT>
1

> <PUBCHEM_CACTVS_TAUTO_COUNT>
1

> <PUBCHEM_COORDINATE_TYPE>
1
5
255

> <PUBCHEM_BONDANNOTATIONS>
1  22  3
10  11  8
10  17  8
11  18  8
17  19  8
18  20  8
19  20  8
23  24  8
24  25  8
25  27  8
27  28  8
5  19  8
5  21  8
6  20  8
6  21  8
7  23  8
7  28  8

$$$$

