14194
  -OEChem-06241222422D

 47 49  0     0  0  0  0  0  0999 V2000
    7.4226    1.7043    0.0000 Cl  0  0  0  0  0  0  0  0  0  0  0  0
    2.3782   -1.0026    0.0000 O   0  0  0  0  0  0  0  0  0  0  0  0
    3.9766   -0.4433    0.0000 N   0  0  0  0  0  0  0  0  0  0  0  0
    2.9556   -3.7535    0.0000 N   0  0  0  0  0  0  0  0  0  0  0  0
    3.0017    1.5811    0.0000 N   0  0  0  0  0  0  0  0  0  0  0  0
    4.1992   -1.4182    0.0000 C   0  0  0  0  0  0  0  0  0  0  0  0
    3.4661   -2.0984    0.0000 C   0  0  0  0  0  0  0  0  0  0  0  0
    4.7585    0.1802    0.0000 C   0  0  0  0  0  0  0  0  0  0  0  0
    3.6886   -3.0734    0.0000 C   0  0  0  0  0  0  0  0  0  0  0  0
    4.7585    1.1802    0.0000 C   0  0  0  0  0  0  0  0  0  0  0  0
    3.0017   -0.2208    0.0000 C   0  0  0  0  0  0  0  0  0  0  0  0
    3.9766    1.8037    0.0000 C   0  0  0  0  0  0  0  0  0  0  0  0
    2.5678    0.6802    0.0000 C   0  0  0  0  0  0  0  0  0  0  0  0
    5.6524   -0.3545    0.0000 C   0  0  0  0  0  0  0  0  0  0  0  0
    5.6524    1.7148    0.0000 C   0  0  0  0  0  0  0  0  0  0  0  0
    4.1992    2.7786    0.0000 C   0  0  0  0  0  0  0  0  0  0  0  0
    6.5585    0.1594    0.0000 C   0  0  0  0  0  0  0  0  0  0  0  0
    6.5585    1.2010    0.0000 C   0  0  0  0  0  0  0  0  0  0  0  0
    3.1781   -4.7284    0.0000 C   0  0  0  0  0  0  0  0  0  0  0  0
    2.0000   -3.4588    0.0000 C   0  0  0  0  0  0  0  0  0  0  0  0
    5.1547    3.0734    0.0000 C   0  0  0  0  0  0  0  0  0  0  0  0
    3.4661    3.4588    0.0000 C   0  0  0  0  0  0  0  0  0  0  0  0
    5.3772    4.0483    0.0000 C   0  0  0  0  0  0  0  0  0  0  0  0
    3.6886    4.4337    0.0000 C   0  0  0  0  0  0  0  0  0  0  0  0
    4.6442    4.7284    0.0000 C   0  0  0  0  0  0  0  0  0  0  0  0
    4.5355   -1.9391    0.0000 H   0  0  0  0  0  0  0  0  0  0  0  0
    4.7705   -1.1774    0.0000 H   0  0  0  0  0  0  0  0  0  0  0  0
    3.1297   -1.5776    0.0000 H   0  0  0  0  0  0  0  0  0  0  0  0
    2.8948   -2.3392    0.0000 H   0  0  0  0  0  0  0  0  0  0  0  0
    4.0250   -3.5942    0.0000 H   0  0  0  0  0  0  0  0  0  0  0  0
    4.2599   -2.8325    0.0000 H   0  0  0  0  0  0  0  0  0  0  0  0
    2.0831    1.0667    0.0000 H   0  0  0  0  0  0  0  0  0  0  0  0
    2.0831    0.2936    0.0000 H   0  0  0  0  0  0  0  0  0  0  0  0
    5.6452   -0.9744    0.0000 H   0  0  0  0  0  0  0  0  0  0  0  0
    5.6452    2.3348    0.0000 H   0  0  0  0  0  0  0  0  0  0  0  0
    7.0942   -0.1527    0.0000 H   0  0  0  0  0  0  0  0  0  0  0  0
    2.5736   -4.8664    0.0000 H   0  0  0  0  0  0  0  0  0  0  0  0
    3.3161   -5.3329    0.0000 H   0  0  0  0  0  0  0  0  0  0  0  0
    2.1828   -2.8663    0.0000 H   0  0  0  0  0  0  0  0  0  0  0  0
    1.4075   -3.2760    0.0000 H   0  0  0  0  0  0  0  0  0  0  0  0
    1.8172   -4.0512    0.0000 H   0  0  0  0  0  0  0  0  0  0  0  0
    3.7826   -4.5905    0.0000 H   0  0  0  0  0  0  0  0  0  0  0  0
    5.6092    2.6516    0.0000 H   0  0  0  0  0  0  0  0  0  0  0  0
    2.8736    3.2760    0.0000 H   0  0  0  0  0  0  0  0  0  0  0  0
    5.9697    4.2310    0.0000 H   0  0  0  0  0  0  0  0  0  0  0  0
    3.2341    4.8554    0.0000 H   0  0  0  0  0  0  0  0  0  0  0  0
    4.7822    5.3329    0.0000 H   0  0  0  0  0  0  0  0  0  0  0  0
  1 18  1  0  0  0  0
  2 11  2  0  0  0  0
  3  6  1  0  0  0  0
  3  8  1  0  0  0  0
  3 11  1  0  0  0  0
  4  9  1  0  0  0  0
  4 19  1  0  0  0  0
  4 20  1  0  0  0  0
  5 12  2  0  0  0  0
  5 13  1  0  0  0  0
  6  7  1  0  0  0  0
  6 26  1  0  0  0  0
  6 27  1  0  0  0  0
  7  9  1  0  0  0  0
  7 28  1  0  0  0  0
  7 29  1  0  0  0  0
  8 10  2  0  0  0  0
  8 14  1  0  0  0  0
  9 30  1  0  0  0  0
  9 31  1  0  0  0  0
 10 12  1  0  0  0  0
 10 15  1  0  0  0  0
 11 13  1  0  0  0  0
 12 16  1  0  0  0  0
 13 32  1  0  0  0  0
 13 33  1  0  0  0  0
 14 17  2  0  0  0  0
 14 34  1  0  0  0  0
 15 18  2  0  0  0  0
 15 35  1  0  0  0  0
 16 21  2  0  0  0  0
 16 22  1  0  0  0  0
 17 18  1  0  0  0  0
 17 36  1  0  0  0  0
 19 37  1  0  0  0  0
 19 38  1  0  0  0  0
 19 42  1  0  0  0  0
 20 39  1  0  0  0  0
 20 40  1  0  0  0  0
 20 41  1  0  0  0  0
 21 23  1  0  0  0  0
 21 43  1  0  0  0  0
 22 24  2  0  0  0  0
 22 44  1  0  0  0  0
 23 25  2  0  0  0  0
 23 45  1  0  0  0  0
 24 25  1  0  0  0  0
 24 46  1  0  0  0  0
 25 47  1  0  0  0  0
M  END
> <PUBCHEM_COMPOUND_CID>
14194

> <PUBCHEM_COMPOUND_CANONICALIZED>
1

> <PUBCHEM_CACTVS_COMPLEXITY>
487

> <PUBCHEM_CACTVS_HBOND_ACCEPTOR>
3

> <PUBCHEM_CACTVS_HBOND_DONOR>
0

> <PUBCHEM_CACTVS_ROTATABLE_BOND>
5

> <PUBCHEM_CACTVS_SUBSKEYS>
AAADceB7IAAEAAAAAAAAAAAAAAAAAAAAAAAwYAAABAAAAAABQAAAHgIAAAAADArBmCQywIMAAACoAyVyVACCAAAhBwAIiACoZpgIYKLB05GUIAhghgDIyAcQgMAOAABAIAACAAAAAIBAAAQAAAAAAAAAAA==

> <PUBCHEM_IUPAC_OPENEYE_NAME>
7-chloro-1-[3-(dimethylamino)propyl]-5-phenyl-3H-1,4-benzodiazepin-2-one

> <PUBCHEM_IUPAC_CAS_NAME>
7-chloro-1-[3-(dimethylamino)propyl]-5-phenyl-3H-1,4-benzodiazepin-2-one

> <PUBCHEM_IUPAC_NAME>
7-chloro-1-[3-(dimethylamino)propyl]-5-phenyl-3H-1,4-benzodiazepin-2-one

> <PUBCHEM_IUPAC_SYSTEMATIC_NAME>
7-chloranyl-1-[3-(dimethylamino)propyl]-5-phenyl-3H-1,4-benzodiazepin-2-one

> <PUBCHEM_IUPAC_TRADITIONAL_NAME>
7-chloro-1-[3-(dimethylamino)propyl]-5-phenyl-3H-1,4-benzodiazepin-2-one

> <PUBCHEM_IUPAC_INCHI>
InChI=1S/C20H22ClN3O/c1-23(2)11-6-12-24-18-10-9-16(21)13-17(18)20(22-14-19(24)25)15-7-4-3-5-8-15/h3-5,7-10,13H,6,11-12,14H2,1-2H3

> <PUBCHEM_IUPAC_INCHIKEY>
NUYBDBWVWLROHV-UHFFFAOYSA-N

> <PUBCHEM_XLOGP3>
3.2

> <PUBCHEM_EXACT_MASS>
355.14514

> <PUBCHEM_MOLECULAR_FORMULA>
C20H22ClN3O

> <PUBCHEM_MOLECULAR_WEIGHT>
355.86118

> <PUBCHEM_OPENEYE_CAN_SMILES>
CN(C)CCCN1C(=O)CN=C(C2=C1C=CC(=C2)Cl)C3=CC=CC=C3

> <PUBCHEM_OPENEYE_ISO_SMILES>
CN(C)CCCN1C(=O)CN=C(C2=C1C=CC(=C2)Cl)C3=CC=CC=C3

> <PUBCHEM_CACTVS_TPSA>
35.9

> <PUBCHEM_MONOISOTOPIC_WEIGHT>
355.14514

> <PUBCHEM_TOTAL_CHARGE>
0

> <PUBCHEM_HEAVY_ATOM_COUNT>
25

> <PUBCHEM_ATOM_DEF_STEREO_COUNT>
0

> <PUBCHEM_ATOM_UDEF_STEREO_COUNT>
0

> <PUBCHEM_BOND_DEF_STEREO_COUNT>
0

> <PUBCHEM_BOND_UDEF_STEREO_COUNT>
0

> <PUBCHEM_ISOTOPIC_ATOM_COUNT>
0

> <PUBCHEM_COMPONENT_COUNT>
1

> <PUBCHEM_CACTVS_TAUTO_COUNT>
2

> <PUBCHEM_COORDINATE_TYPE>
1
5
255

> <PUBCHEM_BONDANNOTATIONS>
10  15  8
14  17  8
15  18  8
16  21  8
16  22  8
17  18  8
21  23  8
22  24  8
23  25  8
24  25  8
8  10  8
8  14  8

$$$$

