   Color/Form

     * YELLOW PLATES FROM ALCOHOL, NEEDLES FROM ACETIC ACID
     * ORANGE NEEDLES FROM BENZENE & ALC
     * Yellow plates (recrystallized from ethanol); needles
       (recrystallized from acetic acid).

   from [1]HSDB

   Melting Point
        166 DEG C
   from [2]HSDB

   Solubilities

     * SOL IN HYDROGEN SULFIDE ON HEATING
     * Slightly soluble in ethanol and acetic acid.

   from [3]HSDB

   Spectral Properties

     * MAX ABSORPTION (ALCOHOL): 242 NM (LOG E= 4.60); 318 NM (LOG E=
       4.48); 332 NM (LOG E= 4.04); 383 NM (LOG E= 4.00)
     * Maximum absorption (cyclohexane): 239, 280, 291, 317, 331, 362,
       373, & 382 NM
     * MASS: 1780 (National Bureau of Standards EPA-NIH Mass Spectra Data
       Base, NSRDS-NBS-63)
     * Intense mass spectral peaks: 252 m/z (100%), 253 m/z (23%), 126 m/z
       (22%), 250 m/z (21%)

   from [4]HSDB

   Computed Properties
   Molecular Weight                  252.30928 [g/mol]
   Molecular Formula                 C[20]H[12]
   XLogP3                            6.4
   H-Bond Donor                      0
   H-Bond Acceptor                   0
   Rotatable Bond Count              0
   Exact Mass                        252.0939
   MonoIsotopic Mass                 252.0939
   Topological Polar Surface Area    0
   Heavy Atom Count                  20
   Formal Charge                     0
   Complexity                        372
   Isotope Atom Count                0
   Defined Atom Stereocenter Count   0
   Undefined Atom Stereocenter Count 0
   Defined Bond Stereocenter Count   0
   Undefined Bond Stereocenter Count 0
   Covalently-Bonded Unit Count      1
   Feature 3D Ring Count             5
   Effective Rotor Count             0
   Conformer Sampling RMSD           0.6
   CID Conformer Count               [5]1

References

   1. http://toxnet.nlm.nih.gov/cgi-bin/sis/search/r?dbs+hsdb:@term+@rn+@rel+205-82-3
   2. http://toxnet.nlm.nih.gov/cgi-bin/sis/search/r?dbs+hsdb:@term+@rn+@rel+205-82-3
   3. http://toxnet.nlm.nih.gov/cgi-bin/sis/search/r?dbs+hsdb:@term+@rn+@rel+205-82-3
   4. http://toxnet.nlm.nih.gov/cgi-bin/sis/search/r?dbs+hsdb:@term+@rn+@rel+205-82-3
   5. http://pubchem.ncbi.nlm.nih.gov/vw3d/vw3d.cgi?cid=9152
