56928078
  -OEChem-07051213022D

 49 53  0     1  0  0  0  0  0999 V2000
    5.3717    1.2675    0.0000 O   0  0  0  0  0  0  0  0  0  0  0  0
    7.1377    2.3052    0.0000 O   0  0  0  0  0  0  0  0  0  0  0  0
    4.5112   -3.2986    0.0000 O   0  0  0  0  0  0  0  0  0  0  0  0
    2.6079   -0.4258    0.0000 O   0  0  0  0  0  0  0  0  0  0  0  0
    2.6079   -2.1022    0.0000 O   0  0  0  0  0  0  0  0  0  0  0  0
    8.8697    2.3119    0.0000 O   0  0  0  0  0  0  0  0  0  0  0  0
    7.1256   -1.7640    0.0000 N   0  0  3  0  0  0  0  0  0  0  0  0
    6.2596   -0.2640    0.0000 C   0  0  1  0  0  0  0  0  0  0  0  0
    7.1256   -0.7640    0.0000 C   0  0  1  0  0  0  0  0  0  0  0  0
    6.1461   -0.8676    0.0000 C   0  0  0  0  0  0  0  0  0  0  0  0
    6.2435    0.7775    0.0000 C   0  0  2  0  0  0  0  0  0  0  0  0
    8.0356   -0.2572    0.0000 C   0  0  0  0  0  0  0  0  0  0  0  0
    6.5462   -1.5604    0.0000 C   0  0  0  0  0  0  0  0  0  0  0  0
    5.3935   -0.7640    0.0000 C   0  0  0  0  0  0  0  0  0  0  0  0
    7.1415    1.3053    0.0000 C   0  0  2  0  0  0  0  0  0  0  0  0
    8.0436    0.7844    0.0000 C   0  0  0  0  0  0  0  0  0  0  0  0
    6.2596   -2.2640    0.0000 C   0  0  0  0  0  0  0  0  0  0  0  0
    5.3935   -1.7640    0.0000 C   0  0  0  0  0  0  0  0  0  0  0  0
    4.4996   -0.2293    0.0000 C   0  0  0  0  0  0  0  0  0  0  0  0
    4.4996   -2.2987    0.0000 C   0  0  0  0  0  0  0  0  0  0  0  0
    3.5935   -0.7432    0.0000 C   0  0  0  0  0  0  0  0  0  0  0  0
    3.5935   -1.7848    0.0000 C   0  0  0  0  0  0  0  0  0  0  0  0
    8.0018    2.8086    0.0000 C   0  0  0  0  0  0  0  0  0  0  0  0
    2.0000   -1.2640    0.0000 C   0  0  0  0  0  0  0  0  0  0  0  0
    7.9979    3.8086    0.0000 C   0  0  0  0  0  0  0  0  0  0  0  0
    3.6510   -3.8086    0.0000 C   0  0  0  0  0  0  0  0  0  0  0  0
    7.8617   -1.1890    0.0000 H   0  0  0  0  0  0  0  0  0  0  0  0
    5.5942   -0.5852    0.0000 H   0  0  0  0  0  0  0  0  0  0  0  0
    5.7190   -1.3170    0.0000 H   0  0  0  0  0  0  0  0  0  0  0  0
    5.7108    0.4603    0.0000 H   0  0  0  0  0  0  0  0  0  0  0  0
    8.2401   -0.8424    0.0000 H   0  0  0  0  0  0  0  0  0  0  0  0
    8.6472   -0.1558    0.0000 H   0  0  0  0  0  0  0  0  0  0  0  0
    5.9434   -1.7056    0.0000 H   0  0  0  0  0  0  0  0  0  0  0  0
    6.5147   -2.1796    0.0000 H   0  0  0  0  0  0  0  0  0  0  0  0
    7.6779    1.6163    0.0000 H   0  0  0  0  0  0  0  0  0  0  0  0
    8.6536    0.6736    0.0000 H   0  0  0  0  0  0  0  0  0  0  0  0
    8.2572    1.3665    0.0000 H   0  0  0  0  0  0  0  0  0  0  0  0
    5.8610   -2.7390    0.0000 H   0  0  0  0  0  0  0  0  0  0  0  0
    6.6581   -2.7390    0.0000 H   0  0  0  0  0  0  0  0  0  0  0  0
    4.5068    0.3906    0.0000 H   0  0  0  0  0  0  0  0  0  0  0  0
    5.3646    1.8874    0.0000 H   0  0  0  0  0  0  0  0  0  0  0  0
    1.5391   -0.8493    0.0000 H   0  0  0  0  0  0  0  0  0  0  0  0
    1.5391   -1.6787    0.0000 H   0  0  0  0  0  0  0  0  0  0  0  0
    8.6179    3.8110    0.0000 H   0  0  0  0  0  0  0  0  0  0  0  0
    7.9955    4.4286    0.0000 H   0  0  0  0  0  0  0  0  0  0  0  0
    7.3779    3.8062    0.0000 H   0  0  0  0  0  0  0  0  0  0  0  0
    3.3348   -3.2753    0.0000 H   0  0  0  0  0  0  0  0  0  0  0  0
    3.1176   -4.1248    0.0000 H   0  0  0  0  0  0  0  0  0  0  0  0
    3.9672   -4.3419    0.0000 H   0  0  0  0  0  0  0  0  0  0  0  0
 11  1  1  1  0  0  0
  1 41  1  0  0  0  0
 15  2  1  1  0  0  0
  2 23  1  0  0  0  0
  3 20  1  0  0  0  0
  3 26  1  0  0  0  0
  4 21  1  0  0  0  0
  4 24  1  0  0  0  0
  5 22  1  0  0  0  0
  5 24  1  0  0  0  0
  6 23  2  0  0  0  0
  7  9  1  0  0  0  0
  7 13  1  0  0  0  0
  7 17  1  0  0  0  0
  8  9  1  0  0  0  0
  8 10  1  1  0  0  0
  8 11  1  0  0  0  0
  8 14  1  0  0  0  0
  9 12  1  0  0  0  0
  9 27  1  6  0  0  0
 10 13  1  0  0  0  0
 10 28  1  0  0  0  0
 10 29  1  0  0  0  0
 11 15  1  0  0  0  0
 11 30  1  0  0  0  0
 12 16  1  0  0  0  0
 12 31  1  0  0  0  0
 12 32  1  0  0  0  0
 13 33  1  0  0  0  0
 13 34  1  0  0  0  0
 14 18  1  0  0  0  0
 14 19  2  0  0  0  0
 15 16  1  0  0  0  0
 15 35  1  0  0  0  0
 16 36  1  0  0  0  0
 16 37  1  0  0  0  0
 17 18  1  0  0  0  0
 17 38  1  0  0  0  0
 17 39  1  0  0  0  0
 18 20  2  0  0  0  0
 19 21  1  0  0  0  0
 19 40  1  0  0  0  0
 20 22  1  0  0  0  0
 21 22  2  0  0  0  0
 23 25  1  0  0  0  0
 24 42  1  0  0  0  0
 24 43  1  0  0  0  0
 25 44  1  0  0  0  0
 25 45  1  0  0  0  0
 25 46  1  0  0  0  0
 26 47  1  0  0  0  0
 26 48  1  0  0  0  0
 26 49  1  0  0  0  0
M  END
> <PUBCHEM_COMPOUND_CID>
56928078

> <PUBCHEM_COMPOUND_CANONICALIZED>
1

> <PUBCHEM_CACTVS_COMPLEXITY>
586

> <PUBCHEM_CACTVS_HBOND_ACCEPTOR>
7

> <PUBCHEM_CACTVS_HBOND_DONOR>
1

> <PUBCHEM_CACTVS_ROTATABLE_BOND>
3

> <PUBCHEM_CACTVS_SUBSKEYS>
AAADceB6OAAAAAAAAAAAAAAAAAAAAWJAAAA8YIAABYAAAFixAAAAHgAACAAADjzhmAcyDoMABgCIAiDSCACCCAAgIAAAiAAOjIgdNyKEsBumcCpnwBWPqAew8P8PoAABCAAYQABAgAIUADSAAAAAAAAAAA==

> <PUBCHEM_IUPAC_INCHI>
InChI=1S/C19H23NO6/c1-10(21)26-13-3-4-15-19(18(13)22)5-6-20(15)8-11-12(19)7-14-17(16(11)23-2)25-9-24-14/h7,13,15,18,22H,3-6,8-9H2,1-2H3/t13-,15+,18-,19-/m0/s1

> <PUBCHEM_IUPAC_INCHIKEY>
DTTIPGMCFAKXCP-UAFONNFLSA-N

> <PUBCHEM_XLOGP3_AA>
1.4

> <PUBCHEM_EXACT_MASS>
361.152537

> <PUBCHEM_MOLECULAR_FORMULA>
C19H23NO6

> <PUBCHEM_MOLECULAR_WEIGHT>
361.38902

> <PUBCHEM_OPENEYE_CAN_SMILES>
CC(=O)OC1CCC2C3(C1O)CCN2CC4=C(C5=C(C=C34)OCO5)OC

> <PUBCHEM_OPENEYE_ISO_SMILES>
CC(=O)O[C@H]1CC[C@@H]2[C@]3([C@H]1O)CCN2CC4=C(C5=C(C=C34)OCO5)OC

> <PUBCHEM_CACTVS_TPSA>
77.5

> <PUBCHEM_MONOISOTOPIC_WEIGHT>
361.152537

> <PUBCHEM_TOTAL_CHARGE>
0

> <PUBCHEM_HEAVY_ATOM_COUNT>
26

> <PUBCHEM_ATOM_DEF_STEREO_COUNT>
4

> <PUBCHEM_ATOM_UDEF_STEREO_COUNT>
0

> <PUBCHEM_BOND_DEF_STEREO_COUNT>
0

> <PUBCHEM_BOND_UDEF_STEREO_COUNT>
0

> <PUBCHEM_ISOTOPIC_ATOM_COUNT>
0

> <PUBCHEM_COMPONENT_COUNT>
1

> <PUBCHEM_CACTVS_TAUTO_COUNT>
1

> <PUBCHEM_COORDINATE_TYPE>
1
5
255

> <PUBCHEM_BONDANNOTATIONS>
11  1  5
14  18  8
14  19  8
18  20  8
19  21  8
15  2  5
20  22  8
21  22  8
8  10  5
9  27  6

$$$$

