9781
  -OEChem-06261204032D

 57 60  0     1  0  0  0  0  0999 V2000
    5.0182    0.8009    0.0000 F   0  0  0  0  0  0  0  0  0  0  0  0
    4.7950    1.5348    0.0000 O   0  0  0  0  0  0  0  0  0  0  0  0
    7.9821    3.0344    0.0000 O   0  0  0  0  0  0  0  0  0  0  0  0
    2.0000   -2.0175    0.0000 O   0  0  0  0  0  0  0  0  0  0  0  0
    7.3931    0.0348    0.0000 C   0  0  3  0  0  0  0  0  0  0  0  0
    7.3931    1.0348    0.0000 C   0  0  3  0  0  0  0  0  0  0  0  0
    6.5271   -0.4652    0.0000 C   0  0  3  0  0  0  0  0  0  0  0  0
    5.6610    0.0348    0.0000 C   0  0  3  0  0  0  0  0  0  0  0  0
    4.7510   -0.4720    0.0000 C   0  0  3  0  0  0  0  0  0  0  0  0
    6.5271    1.5348    0.0000 C   0  0  0  0  0  0  0  0  0  0  0  0
    5.6610    1.0348    0.0000 C   0  0  3  0  0  0  0  0  0  0  0  0
    8.3393    1.3396    0.0000 C   0  0  3  0  0  0  0  0  0  0  0  0
    8.3393   -0.2699    0.0000 C   0  0  0  0  0  0  0  0  0  0  0  0
    6.5431   -1.5067    0.0000 C   0  0  0  0  0  0  0  0  0  0  0  0
    8.9229    0.5349    0.0000 C   0  0  0  0  0  0  0  0  0  0  0  0
    5.6451   -2.0344    0.0000 C   0  0  3  0  0  0  0  0  0  0  0  0
    4.7430   -1.5136    0.0000 C   0  0  0  0  0  0  0  0  0  0  0  0
    7.3931    2.0348    0.0000 C   0  0  0  0  0  0  0  0  0  0  0  0
    3.8242    0.0921    0.0000 C   0  0  0  0  0  0  0  0  0  0  0  0
    4.4163    0.4703    0.0000 C   0  0  0  0  0  0  0  0  0  0  0  0
    8.6500    2.2901    0.0000 C   0  0  0  0  0  0  0  0  0  0  0  0
    2.8763   -0.4359    0.0000 C   0  0  0  0  0  0  0  0  0  0  0  0
    3.8076   -2.0633    0.0000 C   0  0  0  0  0  0  0  0  0  0  0  0
    5.6489   -3.0344    0.0000 C   0  0  0  0  0  0  0  0  0  0  0  0
    2.8680   -1.5208    0.0000 C   0  0  0  0  0  0  0  0  0  0  0  0
    9.6285    2.4963    0.0000 C   0  0  0  0  0  0  0  0  0  0  0  0
    7.4830   -0.8104    0.0000 H   0  0  0  0  0  0  0  0  0  0  0  0
    7.2664   -0.8845    0.0000 H   0  0  0  0  0  0  0  0  0  0  0  0
    6.9256    2.0098    0.0000 H   0  0  0  0  0  0  0  0  0  0  0  0
    6.1285    2.0098    0.0000 H   0  0  0  0  0  0  0  0  0  0  0  0
    5.6610    1.8848    0.0000 H   0  0  0  0  0  0  0  0  0  0  0  0
    7.7396    1.9419    0.0000 H   0  0  0  0  0  0  0  0  0  0  0  0
    8.0883   -0.8368    0.0000 H   0  0  0  0  0  0  0  0  0  0  0  0
    8.8767   -0.5791    0.0000 H   0  0  0  0  0  0  0  0  0  0  0  0
    6.7612   -2.0871    0.0000 H   0  0  0  0  0  0  0  0  0  0  0  0
    7.1523   -1.3912    0.0000 H   0  0  0  0  0  0  0  0  0  0  0  0
    9.3838    0.1201    0.0000 H   0  0  0  0  0  0  0  0  0  0  0  0
    9.3838    0.9496    0.0000 H   0  0  0  0  0  0  0  0  0  0  0  0
    4.9098   -2.4608    0.0000 H   0  0  0  0  0  0  0  0  0  0  0  0
    8.0131    2.0348    0.0000 H   0  0  0  0  0  0  0  0  0  0  0  0
    7.3931    2.6548    0.0000 H   0  0  0  0  0  0  0  0  0  0  0  0
    6.7731    2.0348    0.0000 H   0  0  0  0  0  0  0  0  0  0  0  0
    4.2324    0.5587    0.0000 H   0  0  0  0  0  0  0  0  0  0  0  0
    3.4343    0.5741    0.0000 H   0  0  0  0  0  0  0  0  0  0  0  0
    5.0005    0.6779    0.0000 H   0  0  0  0  0  0  0  0  0  0  0  0
    4.2087    1.0545    0.0000 H   0  0  0  0  0  0  0  0  0  0  0  0
    3.8320    0.2628    0.0000 H   0  0  0  0  0  0  0  0  0  0  0  0
    2.6718    0.1494    0.0000 H   0  0  0  0  0  0  0  0  0  0  0  0
    2.2647   -0.5372    0.0000 H   0  0  0  0  0  0  0  0  0  0  0  0
    3.8100   -2.6833    0.0000 H   0  0  0  0  0  0  0  0  0  0  0  0
    5.0289   -3.0368    0.0000 H   0  0  0  0  0  0  0  0  0  0  0  0
    5.6513   -3.6544    0.0000 H   0  0  0  0  0  0  0  0  0  0  0  0
    6.2689   -3.0320    0.0000 H   0  0  0  0  0  0  0  0  0  0  0  0
    4.7950    2.1548    0.0000 H   0  0  0  0  0  0  0  0  0  0  0  0
    9.7563    1.8896    0.0000 H   0  0  0  0  0  0  0  0  0  0  0  0
   10.2351    2.6242    0.0000 H   0  0  0  0  0  0  0  0  0  0  0  0
    9.5006    3.1030    0.0000 H   0  0  0  0  0  0  0  0  0  0  0  0
  1  8  1  0  0  0  0
  2 11  1  0  0  0  0
  2 54  1  0  0  0  0
  3 21  2  0  0  0  0
  4 25  2  0  0  0  0
  5  6  1  0  0  0  0
  5  7  1  0  0  0  0
  5 13  1  0  0  0  0
  5 27  1  0  0  0  0
  6 10  1  0  0  0  0
  6 12  1  0  0  0  0
  6 18  1  0  0  0  0
  7  8  1  0  0  0  0
  7 14  1  0  0  0  0
  7 28  1  0  0  0  0
  8  9  1  0  0  0  0
  8 11  1  0  0  0  0
  9 17  1  0  0  0  0
  9 19  1  0  0  0  0
  9 20  1  0  0  0  0
 10 11  1  0  0  0  0
 10 29  1  0  0  0  0
 10 30  1  0  0  0  0
 11 31  1  0  0  0  0
 12 15  1  0  0  0  0
 12 21  1  0  0  0  0
 12 32  1  0  0  0  0
 13 15  1  0  0  0  0
 13 33  1  0  0  0  0
 13 34  1  0  0  0  0
 14 16  1  0  0  0  0
 14 35  1  0  0  0  0
 14 36  1  0  0  0  0
 15 37  1  0  0  0  0
 15 38  1  0  0  0  0
 16 17  1  0  0  0  0
 16 24  1  0  0  0  0
 16 39  1  0  0  0  0
 17 23  2  0  0  0  0
 18 40  1  0  0  0  0
 18 41  1  0  0  0  0
 18 42  1  0  0  0  0
 19 22  1  0  0  0  0
 19 43  1  0  0  0  0
 19 44  1  0  0  0  0
 20 45  1  0  0  0  0
 20 46  1  0  0  0  0
 20 47  1  0  0  0  0
 21 26  1  0  0  0  0
 22 25  1  0  0  0  0
 22 48  1  0  0  0  0
 22 49  1  0  0  0  0
 23 25  1  0  0  0  0
 23 50  1  0  0  0  0
 24 51  1  0  0  0  0
 24 52  1  0  0  0  0
 24 53  1  0  0  0  0
 26 55  1  0  0  0  0
 26 56  1  0  0  0  0
 26 57  1  0  0  0  0
M  END
> <PUBCHEM_COMPOUND_CID>
9781

> <PUBCHEM_COMPOUND_CANONICALIZED>
1

> <PUBCHEM_CACTVS_COMPLEXITY>
700

> <PUBCHEM_CACTVS_HBOND_ACCEPTOR>
4

> <PUBCHEM_CACTVS_HBOND_DONOR>
1

> <PUBCHEM_CACTVS_ROTATABLE_BOND>
1

> <PUBCHEM_CACTVS_SUBSKEYS>
AAADceB4MQAAAAAAAAAAAAAAAAAAAYAAAAAwYIAAAAAAAGDAAAAAGwAACAAADxSggAICAAAAAgCIAqBSAAAAAAAgAAAACAEAAEgAEBIAAQAAQAAEgAAIAQOIzPDPgAAAAAAAAADAAAYAADAAAQAACAAAAA==

> <PUBCHEM_IUPAC_OPENEYE_NAME>
17-acetyl-9-fluoro-11-hydroxy-6,10,13-trimethyl-2,6,7,8,11,12,14,15,16,17-decahydro-1H-cyclopenta[a]phenanthren-3-one

> <PUBCHEM_IUPAC_CAS_NAME>
17-acetyl-9-fluoro-11-hydroxy-6,10,13-trimethyl-2,6,7,8,11,12,14,15,16,17-decahydro-1H-cyclopenta[a]phenanthren-3-one

> <PUBCHEM_IUPAC_NAME>
17-acetyl-9-fluoro-11-hydroxy-6,10,13-trimethyl-2,6,7,8,11,12,14,15,16,17-decahydro-1H-cyclopenta[a]phenanthren-3-one

> <PUBCHEM_IUPAC_SYSTEMATIC_NAME>
17-ethanoyl-9-fluoranyl-6,10,13-trimethyl-11-oxidanyl-2,6,7,8,11,12,14,15,16,17-decahydro-1H-cyclopenta[a]phenanthren-3-one

> <PUBCHEM_IUPAC_TRADITIONAL_NAME>
17-acetyl-9-fluoro-11-hydroxy-6,10,13-trimethyl-2,6,7,8,11,12,14,15,16,17-decahydro-1H-cyclopenta[a]phenanthren-3-one

> <PUBCHEM_IUPAC_INCHI>
InChI=1S/C22H31FO3/c1-12-9-18-16-6-5-15(13(2)24)20(16,3)11-19(26)22(18,23)21(4)8-7-14(25)10-17(12)21/h10,12,15-16,18-19,26H,5-9,11H2,1-4H3

> <PUBCHEM_IUPAC_INCHIKEY>
RWGSFMGQJFCHTC-UHFFFAOYSA-N

> <PUBCHEM_XLOGP3_AA>
2.8

> <PUBCHEM_EXACT_MASS>
362.225723

> <PUBCHEM_MOLECULAR_FORMULA>
C22H31FO3

> <PUBCHEM_MOLECULAR_WEIGHT>
362.478143

> <PUBCHEM_OPENEYE_CAN_SMILES>
CC1CC2C3CCC(C3(CC(C2(C4(C1=CC(=O)CC4)C)F)O)C)C(=O)C

> <PUBCHEM_OPENEYE_ISO_SMILES>
CC1CC2C3CCC(C3(CC(C2(C4(C1=CC(=O)CC4)C)F)O)C)C(=O)C

> <PUBCHEM_CACTVS_TPSA>
54.4

> <PUBCHEM_MONOISOTOPIC_WEIGHT>
362.225723

> <PUBCHEM_TOTAL_CHARGE>
0

> <PUBCHEM_HEAVY_ATOM_COUNT>
26

> <PUBCHEM_ATOM_DEF_STEREO_COUNT>
0

> <PUBCHEM_ATOM_UDEF_STEREO_COUNT>
8

> <PUBCHEM_BOND_DEF_STEREO_COUNT>
0

> <PUBCHEM_BOND_UDEF_STEREO_COUNT>
0

> <PUBCHEM_ISOTOPIC_ATOM_COUNT>
0

> <PUBCHEM_COMPONENT_COUNT>
1

> <PUBCHEM_CACTVS_TAUTO_COUNT>
15

> <PUBCHEM_COORDINATE_TYPE>
1
5
255

> <PUBCHEM_BONDANNOTATIONS>
8  1  3
11  31  3
12  32  3
16  39  3
5  27  3
6  18  3
7  28  3
9  20  3

$$$$

