   Color/Form
        Orange-brown, crystalline powder
   from [1]HSDB

   Dissociation Constants
        pKa = 4.70 (carboxylic acid)
   from [2]HSDB

   Octanol/Water Partition Coefficient
        log Kow = -1.85
   from [3]HSDB

   Solubilities

     * Insoluble in water , alcohol, chloroform, ether; slightly soluble
       in dilute hydrochloric acid; soluble in dil solns of alkali
       hydroxides and carbonates.
     * Practically insoluble in water and in alcohol.
     * In water, 2.6X10+3 mg/L at 25 deg C /Estimated/

   from [4]HSDB

   Spectral Properties

     * Specific optical rotation: 20.4 + or - 0.6 deg at 21 deg C/589 D
       (concentration by 0.1 N sodium hydroxide) maximum absorption:
       243nm, A1= 388;307 nm, A1 = 475 (in 0.1 n hydrogen chloride). 258
       nm, A1= 544; 303 nm, A1= 546; 372 nm, A1= 177 (in 0.1 N sodium
       hydroxide)
     * UV max (0.1N HCl) 244, 307 nm; UV max (0.1N NaOH) 257, 302, 370 nm

   from [5]HSDB

   Vapor Pressure
        2.1X10-19 mm Hg at 25 deg C /Estimated/
   from [6]HSDB

   Other Chemical/Physical Properties

     * Yellow crystals from dilute hydrogen chloride; decomp 185-204 deg C
       (bath preheated to 160 deg C). Max absorption (0.1 n hydrogen
       chloride): 244, 307 nm; max absorption (0.1 N sodium hydroxide):
       257, 302, 370 nm; soluble in alkaline solns with decomposition
       /Methotrexate monohydrate/
     * Yellow powder; soluble in water. /Methotrexate sodium/
     * Melting point: 185-204 deg C. /Methotrexate monohydrate/
     * Henry's Law constant = 1.5X10-31 atm-cu m/mol at 25 deg C
       /Estimated/
     * Hydroxyl radical reaction rate constant = 3.2X10-10 cu cm/molec-sec
       at 25 deg C /Estimated/
     * pKa = 3.5 carboxylic acid; pKa2 = 8.8, pKa3 = 9.2 (amines)
       /Estimated/

   from [7]HSDB

   Computed Properties
   Molecular Weight                  454.43928 [g/mol]
   Molecular Formula                 C[20]H[22]N[8]O[5]
   XLogP3                            -1.8
   H-Bond Donor                      5
   H-Bond Acceptor                   12
   Rotatable Bond Count              9
   Tautomer Count                    24
   Exact Mass                        454.171316
   MonoIsotopic Mass                 454.171316
   Topological Polar Surface Area    211
   Heavy Atom Count                  33
   Formal Charge                     0
   Complexity                        704
   Isotope Atom Count                0
   Defined Atom Stereocenter Count   1
   Undefined Atom Stereocenter Count 0
   Defined Bond Stereocenter Count   0
   Undefined Bond Stereocenter Count 0
   Covalently-Bonded Unit Count      1
   Feature 3D Acceptor Count         6
   Feature 3D Donor Count            3
   Feature 3D Anion Count            2
   Feature 3D Cation Count           2
   Feature 3D Ring Count             3
   Effective Rotor Count             10
   Conformer Sampling RMSD           1
   CID Conformer Count               [8]163

References

   1. http://toxnet.nlm.nih.gov/cgi-bin/sis/search/r?dbs+hsdb:@term+@rn+@rel+59-05-2
   2. http://toxnet.nlm.nih.gov/cgi-bin/sis/search/r?dbs+hsdb:@term+@rn+@rel+59-05-2
   3. http://toxnet.nlm.nih.gov/cgi-bin/sis/search/r?dbs+hsdb:@term+@rn+@rel+59-05-2
   4. http://toxnet.nlm.nih.gov/cgi-bin/sis/search/r?dbs+hsdb:@term+@rn+@rel+59-05-2
   5. http://toxnet.nlm.nih.gov/cgi-bin/sis/search/r?dbs+hsdb:@term+@rn+@rel+59-05-2
   6. http://toxnet.nlm.nih.gov/cgi-bin/sis/search/r?dbs+hsdb:@term+@rn+@rel+59-05-2
   7. http://toxnet.nlm.nih.gov/cgi-bin/sis/search/r?dbs+hsdb:@term+@rn+@rel+59-05-2
   8. http://pubchem.ncbi.nlm.nih.gov/vw3d/vw3d.cgi?cid=126941
