5625
  -OEChem-06261200472D

 60 63  0     0  0  0  0  0  0999 V2000
    2.8660    1.8341    0.0000 S   0  0  0  0  0  0  0  0  0  0  0  0
    9.3600    3.2001    0.0000 O   0  0  0  0  0  0  0  0  0  0  0  0
    2.3660    0.9680    0.0000 O   0  0  0  0  0  0  0  0  0  0  0  0
    3.3660    2.7001    0.0000 O   0  0  0  0  0  0  0  0  0  0  0  0
   10.3600   -0.2640    0.0000 N   0  0  0  0  0  0  0  0  0  0  0  0
    9.3600    1.4680    0.0000 N   0  0  0  0  0  0  0  0  0  0  0  0
    7.2764    3.1388    0.0000 N   0  0  0  0  0  0  0  0  0  0  0  0
    9.3600   -1.9961    0.0000 N   0  0  0  0  0  0  0  0  0  0  0  0
   11.8600   -1.1300    0.0000 N   0  0  0  0  0  0  0  0  0  0  0  0
    3.7320    1.3341    0.0000 N   0  0  0  0  0  0  0  0  0  0  0  0
   10.8600    0.6020    0.0000 C   0  0  0  0  0  0  0  0  0  0  0  0
    9.3600   -0.2640    0.0000 C   0  0  0  0  0  0  0  0  0  0  0  0
    8.8600    0.6020    0.0000 C   0  0  0  0  0  0  0  0  0  0  0  0
   10.3600    1.4680    0.0000 C   0  0  0  0  0  0  0  0  0  0  0  0
   10.8600   -1.1300    0.0000 C   0  0  0  0  0  0  0  0  0  0  0  0
    8.8600    2.3341    0.0000 C   0  0  0  0  0  0  0  0  0  0  0  0
    7.8600    2.3341    0.0000 C   0  0  0  0  0  0  0  0  0  0  0  0
   10.3600   -1.9961    0.0000 C   0  0  0  0  0  0  0  0  0  0  0  0
    7.2764    1.5293    0.0000 C   0  0  0  0  0  0  0  0  0  0  0  0
    6.3301    1.8341    0.0000 C   0  0  0  0  0  0  0  0  0  0  0  0
    6.3301    2.8341    0.0000 C   0  0  0  0  0  0  0  0  0  0  0  0
    8.8600   -2.8621    0.0000 C   0  0  0  0  0  0  0  0  0  0  0  0
   10.8600   -2.8621    0.0000 C   0  0  0  0  0  0  0  0  0  0  0  0
    5.4641    1.3341    0.0000 C   0  0  0  0  0  0  0  0  0  0  0  0
    5.4641    3.3341    0.0000 C   0  0  0  0  0  0  0  0  0  0  0  0
   12.3600   -1.9961    0.0000 C   0  0  0  0  0  0  0  0  0  0  0  0
    4.5981    1.8341    0.0000 C   0  0  0  0  0  0  0  0  0  0  0  0
   11.8600   -2.8621    0.0000 C   0  0  0  0  0  0  0  0  0  0  0  0
    4.5981    2.8341    0.0000 C   0  0  0  0  0  0  0  0  0  0  0  0
    7.8600   -2.8621    0.0000 C   0  0  0  0  0  0  0  0  0  0  0  0
    9.3600   -3.7281    0.0000 C   0  0  0  0  0  0  0  0  0  0  0  0
    2.0000    2.3341    0.0000 C   0  0  0  0  0  0  0  0  0  0  0  0
   11.3349    0.2035    0.0000 H   0  0  0  0  0  0  0  0  0  0  0  0
   11.3349    1.0005    0.0000 H   0  0  0  0  0  0  0  0  0  0  0  0
    8.7774   -0.4761    0.0000 H   0  0  0  0  0  0  0  0  0  0  0  0
    9.4676   -0.8746    0.0000 H   0  0  0  0  0  0  0  0  0  0  0  0
   10.9426    1.6801    0.0000 H   0  0  0  0  0  0  0  0  0  0  0  0
   10.2523    2.0786    0.0000 H   0  0  0  0  0  0  0  0  0  0  0  0
    8.3850    1.0005    0.0000 H   0  0  0  0  0  0  0  0  0  0  0  0
    8.3850    0.2035    0.0000 H   0  0  0  0  0  0  0  0  0  0  0  0
    7.4690    0.9400    0.0000 H   0  0  0  0  0  0  0  0  0  0  0  0
    7.4690    3.7281    0.0000 H   0  0  0  0  0  0  0  0  0  0  0  0
    9.0500   -1.4591    0.0000 H   0  0  0  0  0  0  0  0  0  0  0  0
    8.5500   -2.3252    0.0000 H   0  0  0  0  0  0  0  0  0  0  0  0
   10.5500   -3.3990    0.0000 H   0  0  0  0  0  0  0  0  0  0  0  0
    5.4641    0.7141    0.0000 H   0  0  0  0  0  0  0  0  0  0  0  0
    5.4641    3.9541    0.0000 H   0  0  0  0  0  0  0  0  0  0  0  0
   12.9800   -1.9961    0.0000 H   0  0  0  0  0  0  0  0  0  0  0  0
   12.1700   -3.3990    0.0000 H   0  0  0  0  0  0  0  0  0  0  0  0
    4.0611    3.1441    0.0000 H   0  0  0  0  0  0  0  0  0  0  0  0
    7.8600   -2.2421    0.0000 H   0  0  0  0  0  0  0  0  0  0  0  0
    7.2400   -2.8621    0.0000 H   0  0  0  0  0  0  0  0  0  0  0  0
    7.8600   -3.4821    0.0000 H   0  0  0  0  0  0  0  0  0  0  0  0
    8.8230   -4.0381    0.0000 H   0  0  0  0  0  0  0  0  0  0  0  0
    9.6700   -4.2650    0.0000 H   0  0  0  0  0  0  0  0  0  0  0  0
    9.8969   -3.4181    0.0000 H   0  0  0  0  0  0  0  0  0  0  0  0
    3.7320    0.7141    0.0000 H   0  0  0  0  0  0  0  0  0  0  0  0
    2.3100    2.8710    0.0000 H   0  0  0  0  0  0  0  0  0  0  0  0
    1.4631    2.6441    0.0000 H   0  0  0  0  0  0  0  0  0  0  0  0
    1.6900    1.7971    0.0000 H   0  0  0  0  0  0  0  0  0  0  0  0
  1  3  2  0  0  0  0
  1  4  2  0  0  0  0
  1 10  1  0  0  0  0
  1 32  1  0  0  0  0
  2 16  2  0  0  0  0
  5 11  1  0  0  0  0
  5 12  1  0  0  0  0
  5 15  1  0  0  0  0
  6 13  1  0  0  0  0
  6 14  1  0  0  0  0
  6 16  1  0  0  0  0
  7 17  1  0  0  0  0
  7 21  1  0  0  0  0
  7 42  1  0  0  0  0
  8 18  1  0  0  0  0
  8 22  1  0  0  0  0
  8 43  1  0  0  0  0
  9 15  1  0  0  0  0
  9 26  2  0  0  0  0
 10 27  1  0  0  0  0
 10 57  1  0  0  0  0
 11 14  1  0  0  0  0
 11 33  1  0  0  0  0
 11 34  1  0  0  0  0
 12 13  1  0  0  0  0
 12 35  1  0  0  0  0
 12 36  1  0  0  0  0
 13 39  1  0  0  0  0
 13 40  1  0  0  0  0
 14 37  1  0  0  0  0
 14 38  1  0  0  0  0
 15 18  2  0  0  0  0
 16 17  1  0  0  0  0
 17 19  2  0  0  0  0
 18 23  1  0  0  0  0
 19 20  1  0  0  0  0
 19 41  1  0  0  0  0
 20 21  2  0  0  0  0
 20 24  1  0  0  0  0
 21 25  1  0  0  0  0
 22 30  1  0  0  0  0
 22 31  1  0  0  0  0
 22 44  1  0  0  0  0
 23 28  2  0  0  0  0
 23 45  1  0  0  0  0
 24 27  2  0  0  0  0
 24 46  1  0  0  0  0
 25 29  2  0  0  0  0
 25 47  1  0  0  0  0
 26 28  1  0  0  0  0
 26 48  1  0  0  0  0
 27 29  1  0  0  0  0
 28 49  1  0  0  0  0
 29 50  1  0  0  0  0
 30 51  1  0  0  0  0
 30 52  1  0  0  0  0
 30 53  1  0  0  0  0
 31 54  1  0  0  0  0
 31 55  1  0  0  0  0
 31 56  1  0  0  0  0
 32 58  1  0  0  0  0
 32 59  1  0  0  0  0
 32 60  1  0  0  0  0
M  END
> <PUBCHEM_COMPOUND_CID>
5625

> <PUBCHEM_COMPOUND_CANONICALIZED>
1

> <PUBCHEM_CACTVS_COMPLEXITY>
749

> <PUBCHEM_CACTVS_HBOND_ACCEPTOR>
7

> <PUBCHEM_CACTVS_HBOND_DONOR>
3

> <PUBCHEM_CACTVS_ROTATABLE_BOND>
6

> <PUBCHEM_CACTVS_SUBSKEYS>
AAADceB7sABAAAAAAAAAAAAAAAAAAWAAAAA8WIAAAAAAAFgB/AAAHgQQQAAADCjBngS/8PPJkAKoAzd3dHCCgCk3EiAJ2aG4dNiIYPLAnbGUIQholgLIyacYiYCeAACAQAACAAAAAQCAAAQAAAAAAAAAAA==

> <PUBCHEM_IUPAC_OPENEYE_NAME>
N-[2-[4-[3-(isopropylamino)-2-pyridyl]piperazine-1-carbonyl]-1H-indol-5-yl]methanesulfonamide

> <PUBCHEM_IUPAC_CAS_NAME>
N-[2-[oxo-[4-[3-(propan-2-ylamino)-2-pyridinyl]-1-piperazinyl]methyl]-1H-indol-5-yl]methanesulfonamide

> <PUBCHEM_IUPAC_NAME>
N-[2-[4-[3-(propan-2-ylamino)pyridin-2-yl]piperazine-1-carbonyl]-1H-indol-5-yl]methanesulfonamide

> <PUBCHEM_IUPAC_SYSTEMATIC_NAME>
N-[2-[4-[3-(propan-2-ylamino)pyridin-2-yl]piperazin-1-yl]carbonyl-1H-indol-5-yl]methanesulfonamide

> <PUBCHEM_IUPAC_TRADITIONAL_NAME>
N-[2-[4-[3-(isopropylamino)-2-pyridyl]piperazine-1-carbonyl]-1H-indol-5-yl]methanesulfonamide

> <PUBCHEM_IUPAC_INCHI>
InChI=1S/C22H28N6O3S/c1-15(2)24-19-5-4-8-23-21(19)27-9-11-28(12-10-27)22(29)20-14-16-13-17(26-32(3,30)31)6-7-18(16)25-20/h4-8,13-15,24-26H,9-12H2,1-3H3

> <PUBCHEM_IUPAC_INCHIKEY>
WHBIGIKBNXZKFE-UHFFFAOYSA-N

> <PUBCHEM_XLOGP3_AA>
2.4

> <PUBCHEM_EXACT_MASS>
456.19436

> <PUBCHEM_MOLECULAR_FORMULA>
C22H28N6O3S

> <PUBCHEM_MOLECULAR_WEIGHT>
456.56112

> <PUBCHEM_OPENEYE_CAN_SMILES>
CC(C)NC1=C(N=CC=C1)N2CCN(CC2)C(=O)C3=CC4=C(N3)C=CC(=C4)NS(=O)(=O)C

> <PUBCHEM_OPENEYE_ISO_SMILES>
CC(C)NC1=C(N=CC=C1)N2CCN(CC2)C(=O)C3=CC4=C(N3)C=CC(=C4)NS(=O)(=O)C

> <PUBCHEM_CACTVS_TPSA>
119

> <PUBCHEM_MONOISOTOPIC_WEIGHT>
456.19436

> <PUBCHEM_TOTAL_CHARGE>
0

> <PUBCHEM_HEAVY_ATOM_COUNT>
32

> <PUBCHEM_ATOM_DEF_STEREO_COUNT>
0

> <PUBCHEM_ATOM_UDEF_STEREO_COUNT>
0

> <PUBCHEM_BOND_DEF_STEREO_COUNT>
0

> <PUBCHEM_BOND_UDEF_STEREO_COUNT>
0

> <PUBCHEM_ISOTOPIC_ATOM_COUNT>
0

> <PUBCHEM_COMPONENT_COUNT>
1

> <PUBCHEM_CACTVS_TAUTO_COUNT>
6

> <PUBCHEM_COORDINATE_TYPE>
1
5
255

> <PUBCHEM_BONDANNOTATIONS>
15  18  8
17  19  8
18  23  8
19  20  8
20  21  8
20  24  8
21  25  8
23  28  8
24  27  8
25  29  8
26  28  8
27  29  8
7  17  8
7  21  8
9  15  8
9  26  8

$$$$

