46174026
  -OEChem-07051213112D

 66 67  0     1  0  0  0  0  0999 V2000
    4.6200   -0.9619    0.0000 O   0  0  0  0  0  0  0  0  0  0  0  0
    8.0841    1.0381    0.0000 O   0  0  0  0  0  0  0  0  0  0  0  0
    4.6200    1.0381    0.0000 O   0  0  0  0  0  0  0  0  0  0  0  0
    4.6200   -2.6940    0.0000 O   0  0  0  0  0  0  0  0  0  0  0  0
    8.0841    2.0381    0.0000 O   0  0  0  0  0  0  0  0  0  0  0  0
    7.2181    5.5381    0.0000 O   0  0  0  0  0  0  0  0  0  0  0  0
    6.3520    2.0381    0.0000 N   0  0  0  0  0  0  0  0  0  0  0  0
    6.8521   -1.8279    0.0000 N   0  0  0  0  0  0  0  0  0  0  0  0
    2.6200   -0.9619    0.0000 N   0  0  0  0  0  0  0  0  0  0  0  0
    4.1200   -5.2920    0.0000 N   0  0  0  0  0  0  0  0  0  0  0  0
    8.0841    4.0381    0.0000 N   0  0  0  0  0  0  0  0  0  0  0  0
    8.9501    5.5381    0.0000 N   0  0  0  0  0  0  0  0  0  0  0  0
    6.3520    1.0381    0.0000 C   0  0  1  0  0  0  0  0  0  0  0  0
    5.4860   -0.4619    0.0000 C   0  0  1  0  0  0  0  0  0  0  0  0
    5.4860    0.5381    0.0000 C   0  0  2  0  0  0  0  0  0  0  0  0
    6.3520   -0.9619    0.0000 C   0  0  2  0  0  0  0  0  0  0  0  0
    7.2181    0.5381    0.0000 C   0  0  2  0  0  0  0  0  0  0  0  0
    7.2181   -0.4619    0.0000 C   0  0  0  0  0  0  0  0  0  0  0  0
    4.1201   -1.8280    0.0000 C   0  0  1  0  0  0  0  0  0  0  0  0
    3.1200   -1.8280    0.0000 C   0  0  1  0  0  0  0  0  0  0  0  0
    2.6200   -2.6940    0.0000 C   0  0  0  0  0  0  0  0  0  0  0  0
    4.1200   -3.5600    0.0000 C   0  0  1  0  0  0  0  0  0  0  0  0
    3.1201   -3.5600    0.0000 C   0  0  0  0  0  0  0  0  0  0  0  0
    5.4860    2.5381    0.0000 C   0  0  0  0  0  0  0  0  0  0  0  0
    7.2181    2.5381    0.0000 C   0  0  0  0  0  0  0  0  0  0  0  0
    4.6200   -4.4260    0.0000 C   0  0  0  0  0  0  0  0  0  0  0  0
    8.9501    0.5381    0.0000 C   0  0  0  0  0  0  0  0  0  0  0  0
    7.2181    3.5381    0.0000 C   0  0  0  0  0  0  0  0  0  0  0  0
    4.6200   -6.1581    0.0000 C   0  0  0  0  0  0  0  0  0  0  0  0
    8.0841    5.0381    0.0000 C   0  0  0  0  0  0  0  0  0  0  0  0
    6.8890    1.3481    0.0000 H   0  0  0  0  0  0  0  0  0  0  0  0
    5.4860   -1.0819    0.0000 H   0  0  0  0  0  0  0  0  0  0  0  0
    5.4860    1.1581    0.0000 H   0  0  0  0  0  0  0  0  0  0  0  0
    5.9137   -1.4004    0.0000 H   0  0  0  0  0  0  0  0  0  0  0  0
    7.2181    1.1581    0.0000 H   0  0  0  0  0  0  0  0  0  0  0  0
    7.4301   -1.0445    0.0000 H   0  0  0  0  0  0  0  0  0  0  0  0
    7.8287   -0.3543    0.0000 H   0  0  0  0  0  0  0  0  0  0  0  0
    3.8101   -1.2911    0.0000 H   0  0  0  0  0  0  0  0  0  0  0  0
    2.5000   -1.8280    0.0000 H   0  0  0  0  0  0  0  0  0  0  0  0
    2.1451   -2.2955    0.0000 H   0  0  0  0  0  0  0  0  0  0  0  0
    2.1451   -3.0926    0.0000 H   0  0  0  0  0  0  0  0  0  0  0  0
    7.4720   -1.8280    0.0000 H   0  0  0  0  0  0  0  0  0  0  0  0
    6.5421   -2.3649    0.0000 H   0  0  0  0  0  0  0  0  0  0  0  0
    4.7400   -3.5600    0.0000 H   0  0  0  0  0  0  0  0  0  0  0  0
    2.5375   -3.7721    0.0000 H   0  0  0  0  0  0  0  0  0  0  0  0
    3.2278   -4.1706    0.0000 H   0  0  0  0  0  0  0  0  0  0  0  0
    4.0831    0.7281    0.0000 H   0  0  0  0  0  0  0  0  0  0  0  0
    5.7960    3.0750    0.0000 H   0  0  0  0  0  0  0  0  0  0  0  0
    4.9491    2.8481    0.0000 H   0  0  0  0  0  0  0  0  0  0  0  0
    5.1760    2.0011    0.0000 H   0  0  0  0  0  0  0  0  0  0  0  0
    5.0950   -4.8246    0.0000 H   0  0  0  0  0  0  0  0  0  0  0  0
    5.0950   -4.0275    0.0000 H   0  0  0  0  0  0  0  0  0  0  0  0
    2.0000   -0.9619    0.0000 H   0  0  0  0  0  0  0  0  0  0  0  0
    2.9300   -0.4249    0.0000 H   0  0  0  0  0  0  0  0  0  0  0  0
    8.6401    0.0011    0.0000 H   0  0  0  0  0  0  0  0  0  0  0  0
    9.4871    0.2281    0.0000 H   0  0  0  0  0  0  0  0  0  0  0  0
    9.2601    1.0750    0.0000 H   0  0  0  0  0  0  0  0  0  0  0  0
    7.0060    4.1207    0.0000 H   0  0  0  0  0  0  0  0  0  0  0  0
    6.6075    3.4304    0.0000 H   0  0  0  0  0  0  0  0  0  0  0  0
    3.5000   -5.2920    0.0000 H   0  0  0  0  0  0  0  0  0  0  0  0
    8.6210    3.7281    0.0000 H   0  0  0  0  0  0  0  0  0  0  0  0
    4.0831   -6.4681    0.0000 H   0  0  0  0  0  0  0  0  0  0  0  0
    4.9300   -6.6950    0.0000 H   0  0  0  0  0  0  0  0  0  0  0  0
    5.1569   -5.8481    0.0000 H   0  0  0  0  0  0  0  0  0  0  0  0
    8.9501    6.1581    0.0000 H   0  0  0  0  0  0  0  0  0  0  0  0
    9.4871    5.2281    0.0000 H   0  0  0  0  0  0  0  0  0  0  0  0
 14  1  1  1  0  0  0
 19  1  1  1  0  0  0
 17  2  1  1  0  0  0
  2 27  1  0  0  0  0
 15  3  1  6  0  0  0
  3 47  1  0  0  0  0
  4 19  1  0  0  0  0
  4 22  1  0  0  0  0
  5 25  2  0  0  0  0
  6 30  2  0  0  0  0
 13  7  1  6  0  0  0
  7 24  1  0  0  0  0
  7 25  1  0  0  0  0
 16  8  1  6  0  0  0
  8 42  1  0  0  0  0
  8 43  1  0  0  0  0
 20  9  1  1  0  0  0
  9 53  1  0  0  0  0
  9 54  1  0  0  0  0
 10 26  1  0  0  0  0
 10 29  1  0  0  0  0
 10 60  1  0  0  0  0
 11 28  1  0  0  0  0
 11 30  1  0  0  0  0
 11 61  1  0  0  0  0
 12 30  1  0  0  0  0
 12 65  1  0  0  0  0
 12 66  1  0  0  0  0
 13 15  1  0  0  0  0
 13 17  1  0  0  0  0
 13 31  1  0  0  0  0
 14 15  1  0  0  0  0
 14 16  1  0  0  0  0
 14 32  1  0  0  0  0
 15 33  1  0  0  0  0
 16 18  1  0  0  0  0
 16 34  1  0  0  0  0
 17 18  1  0  0  0  0
 17 35  1  0  0  0  0
 18 36  1  0  0  0  0
 18 37  1  0  0  0  0
 19 20  1  0  0  0  0
 19 38  1  0  0  0  0
 20 21  1  0  0  0  0
 20 39  1  0  0  0  0
 21 23  1  0  0  0  0
 21 40  1  0  0  0  0
 21 41  1  0  0  0  0
 22 23  1  0  0  0  0
 22 26  1  6  0  0  0
 22 44  1  0  0  0  0
 23 45  1  0  0  0  0
 23 46  1  0  0  0  0
 24 48  1  0  0  0  0
 24 49  1  0  0  0  0
 24 50  1  0  0  0  0
 25 28  1  0  0  0  0
 26 51  1  0  0  0  0
 26 52  1  0  0  0  0
 27 55  1  0  0  0  0
 27 56  1  0  0  0  0
 27 57  1  0  0  0  0
 28 58  1  0  0  0  0
 28 59  1  0  0  0  0
 29 62  1  0  0  0  0
 29 63  1  0  0  0  0
 29 64  1  0  0  0  0
M  END
> <PUBCHEM_COMPOUND_CID>
46174026

> <PUBCHEM_COMPOUND_CANONICALIZED>
1

> <PUBCHEM_CACTVS_COMPLEXITY>
583

> <PUBCHEM_CACTVS_HBOND_ACCEPTOR>
9

> <PUBCHEM_CACTVS_HBOND_DONOR>
6

> <PUBCHEM_CACTVS_ROTATABLE_BOND>
8

> <PUBCHEM_CACTVS_SUBSKEYS>
AAADcfB7uAAAAAAAAAAAAAAAAAAAAAAAAAA0QAAAAAAAAAAAAAAAHgAQCAAACDzxgAcDCAPABgAIAAEQEAAAAAAAAAAAAICIAACTUAIAgCA3QAAHFgKXAAHwcA8AAAAAAAAAAAACAQAUAACgAAAAAAAAAA==

> <PUBCHEM_IUPAC_OPENEYE_NAME>
N-[(1S,2R,3R,4S,6S)-4-amino-3-[(2R,3R,6S)-3-amino-6-(methylaminomethyl)tetrahydropyran-2-yl]oxy-2-hydroxy-6-methoxy-cyclohexyl]-N-methyl-2-ureido-acetamide

> <PUBCHEM_IUPAC_CAS_NAME>
N-[(1S,2R,3R,4S,6S)-4-amino-3-[[(2R,3R,6S)-3-amino-6-(methylaminomethyl)-2-oxanyl]oxy]-2-hydroxy-6-methoxycyclohexyl]-2-(carbamoylamino)-N-methylacetamide

> <PUBCHEM_IUPAC_NAME>
N-[(1S,2R,3R,4S,6S)-4-amino-3-[(2R,3R,6S)-3-amino-6-(methylaminomethyl)oxan-2-yl]oxy-2-hydroxy-6-methoxycyclohexyl]-2-(carbamoylamino)-N-methylacetamide

> <PUBCHEM_IUPAC_SYSTEMATIC_NAME>
2-(aminocarbonylamino)-N-[(1S,2R,3R,4S,6S)-4-azanyl-3-[(2R,3R,6S)-3-azanyl-6-(methylaminomethyl)oxan-2-yl]oxy-6-methoxy-2-oxidanyl-cyclohexyl]-N-methyl-ethanamide

> <PUBCHEM_IUPAC_TRADITIONAL_NAME>
N-[(1S,2R,3R,4S,6S)-4-amino-3-[(2R,3R,6S)-3-amino-6-(methylaminomethyl)tetrahydropyran-2-yl]oxy-2-hydroxy-6-methoxy-cyclohexyl]-N-methyl-2-ureido-acetamide

> <PUBCHEM_IUPAC_INCHI>
InChI=1S/C18H36N6O6/c1-22-7-9-4-5-10(19)17(29-9)30-16-11(20)6-12(28-3)14(15(16)26)24(2)13(25)8-23-18(21)27/h9-12,14-17,22,26H,4-8,19-20H2,1-3H3,(H3,21,23,27)/t9-,10+,11-,12-,14+,15+,16+,17+/m0/s1

> <PUBCHEM_IUPAC_INCHIKEY>
BBWHQSZBCQYJHR-JWYRXTSNSA-N

> <PUBCHEM_XLOGP3_AA>
-3.7

> <PUBCHEM_EXACT_MASS>
432.269633

> <PUBCHEM_MOLECULAR_FORMULA>
C18H36N6O6

> <PUBCHEM_MOLECULAR_WEIGHT>
432.51504

> <PUBCHEM_OPENEYE_CAN_SMILES>
CNCC1CCC(C(O1)OC2C(CC(C(C2O)N(C)C(=O)CNC(=O)N)OC)N)N

> <PUBCHEM_OPENEYE_ISO_SMILES>
CNC[C@@H]1CC[C@H]([C@H](O1)O[C@@H]2[C@H](C[C@@H]([C@H]([C@H]2O)N(C)C(=O)CNC(=O)N)OC)N)N

> <PUBCHEM_CACTVS_TPSA>
187

> <PUBCHEM_MONOISOTOPIC_WEIGHT>
432.269633

> <PUBCHEM_TOTAL_CHARGE>
0

> <PUBCHEM_HEAVY_ATOM_COUNT>
30

> <PUBCHEM_ATOM_DEF_STEREO_COUNT>
8

> <PUBCHEM_ATOM_UDEF_STEREO_COUNT>
0

> <PUBCHEM_BOND_DEF_STEREO_COUNT>
0

> <PUBCHEM_BOND_UDEF_STEREO_COUNT>
0

> <PUBCHEM_ISOTOPIC_ATOM_COUNT>
0

> <PUBCHEM_COMPONENT_COUNT>
1

> <PUBCHEM_CACTVS_TAUTO_COUNT>
3

> <PUBCHEM_COORDINATE_TYPE>
1
5
255

> <PUBCHEM_BONDANNOTATIONS>
14  1  5
19  1  5
17  2  5
22  26  6
15  3  6
13  7  6
16  8  6
20  9  5

$$$$

