51574
  -OEChem-07051213002D

 32 33  0     1  0  0  0  0  0999 V2000
    5.4921   -3.7694    0.0000 Cl  0  0  0  0  0  0  0  0  0  0  0  0
    2.0280   -3.7694    0.0000 Cl  0  0  0  0  0  0  0  0  0  0  0  0
    3.2601    0.7694    0.0000 O   0  0  0  0  0  0  0  0  0  0  0  0
    3.3940    2.2694    0.0000 O   0  0  0  0  0  0  0  0  0  0  0  0
    5.5202   -0.4907    0.0000 O   0  0  0  0  0  0  0  0  0  0  0  0
    5.1261    2.2694    0.0000 O   0  0  0  0  0  0  0  0  0  0  0  0
    2.0000   -0.4907    0.0000 O   0  0  0  0  0  0  0  0  0  0  0  0
    3.7601   -0.7694    0.0000 N   0  0  0  0  0  0  0  0  0  0  0  0
    4.2601    0.7694    0.0000 C   0  0  3  0  0  0  0  0  0  0  0  0
    4.5691   -0.1816    0.0000 C   0  0  0  0  0  0  0  0  0  0  0  0
    5.2111    1.0784    0.0000 C   0  0  0  0  0  0  0  0  0  0  0  0
    4.2601    1.7694    0.0000 C   0  0  0  0  0  0  0  0  0  0  0  0
    2.9511   -0.1816    0.0000 C   0  0  0  0  0  0  0  0  0  0  0  0
    3.7601   -1.7694    0.0000 C   0  0  0  0  0  0  0  0  0  0  0  0
    2.8940   -2.2694    0.0000 C   0  0  0  0  0  0  0  0  0  0  0  0
    4.6261   -2.2694    0.0000 C   0  0  0  0  0  0  0  0  0  0  0  0
    3.3940    3.2694    0.0000 C   0  0  0  0  0  0  0  0  0  0  0  0
    4.6261   -3.2694    0.0000 C   0  0  0  0  0  0  0  0  0  0  0  0
    2.8940   -3.2694    0.0000 C   0  0  0  0  0  0  0  0  0  0  0  0
    3.7601   -3.7694    0.0000 C   0  0  0  0  0  0  0  0  0  0  0  0
    2.5280    3.7694    0.0000 C   0  0  0  0  0  0  0  0  0  0  0  0
    5.4027    0.4888    0.0000 H   0  0  0  0  0  0  0  0  0  0  0  0
    5.8008    1.2700    0.0000 H   0  0  0  0  0  0  0  0  0  0  0  0
    5.0195    1.6681    0.0000 H   0  0  0  0  0  0  0  0  0  0  0  0
    2.3571   -1.9594    0.0000 H   0  0  0  0  0  0  0  0  0  0  0  0
    5.1630   -1.9594    0.0000 H   0  0  0  0  0  0  0  0  0  0  0  0
    4.0046    3.1618    0.0000 H   0  0  0  0  0  0  0  0  0  0  0  0
    3.6061    3.8520    0.0000 H   0  0  0  0  0  0  0  0  0  0  0  0
    3.7601   -4.3894    0.0000 H   0  0  0  0  0  0  0  0  0  0  0  0
    2.8380    4.3064    0.0000 H   0  0  0  0  0  0  0  0  0  0  0  0
    1.9911    4.0794    0.0000 H   0  0  0  0  0  0  0  0  0  0  0  0
    2.2180    3.2325    0.0000 H   0  0  0  0  0  0  0  0  0  0  0  0
  1 18  1  0  0  0  0
  2 19  1  0  0  0  0
  3  9  1  0  0  0  0
  3 13  1  0  0  0  0
  4 12  1  0  0  0  0
  4 17  1  0  0  0  0
  5 10  2  0  0  0  0
  6 12  2  0  0  0  0
  7 13  2  0  0  0  0
  8 10  1  0  0  0  0
  8 13  1  0  0  0  0
  8 14  1  0  0  0  0
  9 10  1  0  0  0  0
  9 11  1  0  0  0  0
  9 12  1  0  0  0  0
 11 22  1  0  0  0  0
 11 23  1  0  0  0  0
 11 24  1  0  0  0  0
 14 15  2  0  0  0  0
 14 16  1  0  0  0  0
 15 19  1  0  0  0  0
 15 25  1  0  0  0  0
 16 18  2  0  0  0  0
 16 26  1  0  0  0  0
 17 21  1  0  0  0  0
 17 27  1  0  0  0  0
 17 28  1  0  0  0  0
 18 20  1  0  0  0  0
 19 20  2  0  0  0  0
 20 29  1  0  0  0  0
 21 30  1  0  0  0  0
 21 31  1  0  0  0  0
 21 32  1  0  0  0  0
M  END
> <PUBCHEM_COMPOUND_CID>
51574

> <PUBCHEM_COMPOUND_CANONICALIZED>
1

> <PUBCHEM_CACTVS_COMPLEXITY>
462

> <PUBCHEM_CACTVS_HBOND_ACCEPTOR>
5

> <PUBCHEM_CACTVS_HBOND_DONOR>
0

> <PUBCHEM_CACTVS_ROTATABLE_BOND>
4

> <PUBCHEM_CACTVS_SUBSKEYS>
AAADccByOAAGAAAAAAAAAAAAAAAAAWAAAAAwAAAAAAAAAAABAAAAHgIAAAAADE6hkCIyyIMABACIACXSWAKCAAAhBwAAiAFAZogLIC7Jk5WPIAhipCDayAcQAAAAAAAAAAKAAAAAAAAABQAAAAAAAAAAAA==

> <PUBCHEM_IUPAC_OPENEYE_NAME>
ethyl 3-(3,5-dichlorophenyl)-5-methyl-2,4-dioxo-oxazolidine-5-carboxylate

> <PUBCHEM_IUPAC_CAS_NAME>
3-(3,5-dichlorophenyl)-5-methyl-2,4-dioxo-5-oxazolidinecarboxylic acid ethyl ester

> <PUBCHEM_IUPAC_NAME>
ethyl 3-(3,5-dichlorophenyl)-5-methyl-2,4-dioxo-1,3-oxazolidine-5-carboxylate

> <PUBCHEM_IUPAC_SYSTEMATIC_NAME>
ethyl 3-[3,5-bis(chloranyl)phenyl]-5-methyl-2,4-bis(oxidanylidene)-1,3-oxazolidine-5-carboxylate

> <PUBCHEM_IUPAC_TRADITIONAL_NAME>
3-(3,5-dichlorophenyl)-2,4-diketo-5-methyl-oxazolidine-5-carboxylic acid ethyl ester

> <PUBCHEM_IUPAC_INCHI>
InChI=1S/C13H11Cl2NO5/c1-3-20-11(18)13(2)10(17)16(12(19)21-13)9-5-7(14)4-8(15)6-9/h4-6H,3H2,1-2H3

> <PUBCHEM_IUPAC_INCHIKEY>
IGUYEXXAGBDLLX-UHFFFAOYSA-N

> <PUBCHEM_XLOGP3>
2.7

> <PUBCHEM_EXACT_MASS>
331.001428

> <PUBCHEM_MOLECULAR_FORMULA>
C13H11Cl2NO5

> <PUBCHEM_MOLECULAR_WEIGHT>
332.13614

> <PUBCHEM_OPENEYE_CAN_SMILES>
CCOC(=O)C1(C(=O)N(C(=O)O1)C2=CC(=CC(=C2)Cl)Cl)C

> <PUBCHEM_OPENEYE_ISO_SMILES>
CCOC(=O)C1(C(=O)N(C(=O)O1)C2=CC(=CC(=C2)Cl)Cl)C

> <PUBCHEM_CACTVS_TPSA>
72.9

> <PUBCHEM_MONOISOTOPIC_WEIGHT>
331.001428

> <PUBCHEM_TOTAL_CHARGE>
0

> <PUBCHEM_HEAVY_ATOM_COUNT>
21

> <PUBCHEM_ATOM_DEF_STEREO_COUNT>
0

> <PUBCHEM_ATOM_UDEF_STEREO_COUNT>
1

> <PUBCHEM_BOND_DEF_STEREO_COUNT>
0

> <PUBCHEM_BOND_UDEF_STEREO_COUNT>
0

> <PUBCHEM_ISOTOPIC_ATOM_COUNT>
0

> <PUBCHEM_COMPONENT_COUNT>
1

> <PUBCHEM_CACTVS_TAUTO_COUNT>
1

> <PUBCHEM_COORDINATE_TYPE>
1
5
255

> <PUBCHEM_BONDANNOTATIONS>
14  15  8
14  16  8
15  19  8
16  18  8
18  20  8
19  20  8
9  12  3

$$$$

