5281706
  -OEChem-07051212592D

 34 36  0     0  0  0  0  0  0999 V2000
    6.3301    1.5479    0.0000 O   0  0  0  0  0  0  0  0  0  0  0  0
    9.8602    1.5721    0.0000 O   0  0  0  0  0  0  0  0  0  0  0  0
    8.0785   -1.4867    0.0000 O   0  0  0  0  0  0  0  0  0  0  0  0
    6.3301   -1.4521    0.0000 O   0  0  0  0  0  0  0  0  0  0  0  0
    3.7320    1.0479    0.0000 O   0  0  0  0  0  0  0  0  0  0  0  0
    2.0000   -1.9521    0.0000 O   0  0  0  0  0  0  0  0  0  0  0  0
    7.1962    0.0479    0.0000 C   0  0  0  0  0  0  0  0  0  0  0  0
    5.4641    0.0479    0.0000 C   0  0  0  0  0  0  0  0  0  0  0  0
    7.1962    1.0479    0.0000 C   0  0  0  0  0  0  0  0  0  0  0  0
    6.3301   -0.4521    0.0000 C   0  0  0  0  0  0  0  0  0  0  0  0
    4.5981   -0.4521    0.0000 C   0  0  0  0  0  0  0  0  0  0  0  0
    8.0901   -0.4867    0.0000 C   0  0  0  0  0  0  0  0  0  0  0  0
    5.4641    1.0479    0.0000 C   0  0  0  0  0  0  0  0  0  0  0  0
    8.0901    1.5826    0.0000 C   0  0  0  0  0  0  0  0  0  0  0  0
    8.9962    1.0687    0.0000 C   0  0  0  0  0  0  0  0  0  0  0  0
    8.9962    0.0271    0.0000 C   0  0  0  0  0  0  0  0  0  0  0  0
    3.7320    0.0479    0.0000 C   0  0  0  0  0  0  0  0  0  0  0  0
    4.5981   -1.4521    0.0000 C   0  0  0  0  0  0  0  0  0  0  0  0
    2.8660   -0.4521    0.0000 C   0  0  0  0  0  0  0  0  0  0  0  0
    3.7320   -1.9521    0.0000 C   0  0  0  0  0  0  0  0  0  0  0  0
    2.8660   -1.4521    0.0000 C   0  0  0  0  0  0  0  0  0  0  0  0
    9.8564    2.5721    0.0000 C   0  0  0  0  0  0  0  0  0  0  0  0
    8.0829    2.2026    0.0000 H   0  0  0  0  0  0  0  0  0  0  0  0
    4.9272    1.3579    0.0000 H   0  0  0  0  0  0  0  0  0  0  0  0
    9.5319   -0.2850    0.0000 H   0  0  0  0  0  0  0  0  0  0  0  0
    5.1350   -1.7621    0.0000 H   0  0  0  0  0  0  0  0  0  0  0  0
    2.3291   -0.1421    0.0000 H   0  0  0  0  0  0  0  0  0  0  0  0
    3.7320   -2.5721    0.0000 H   0  0  0  0  0  0  0  0  0  0  0  0
    8.6118   -1.8028    0.0000 H   0  0  0  0  0  0  0  0  0  0  0  0
    3.1951    1.3579    0.0000 H   0  0  0  0  0  0  0  0  0  0  0  0
   10.4764    2.5745    0.0000 H   0  0  0  0  0  0  0  0  0  0  0  0
    9.8540    3.1921    0.0000 H   0  0  0  0  0  0  0  0  0  0  0  0
    9.2364    2.5697    0.0000 H   0  0  0  0  0  0  0  0  0  0  0  0
    2.0000   -2.5721    0.0000 H   0  0  0  0  0  0  0  0  0  0  0  0
  1  9  1  0  0  0  0
  1 13  1  0  0  0  0
  2 15  1  0  0  0  0
  2 22  1  0  0  0  0
  3 12  1  0  0  0  0
  3 29  1  0  0  0  0
  4 10  2  0  0  0  0
  5 17  1  0  0  0  0
  5 30  1  0  0  0  0
  6 21  1  0  0  0  0
  6 34  1  0  0  0  0
  7  9  1  0  0  0  0
  7 10  1  0  0  0  0
  7 12  2  0  0  0  0
  8 10  1  0  0  0  0
  8 11  1  0  0  0  0
  8 13  2  0  0  0  0
  9 14  2  0  0  0  0
 11 17  2  0  0  0  0
 11 18  1  0  0  0  0
 12 16  1  0  0  0  0
 13 24  1  0  0  0  0
 14 15  1  0  0  0  0
 14 23  1  0  0  0  0
 15 16  2  0  0  0  0
 16 25  1  0  0  0  0
 17 19  1  0  0  0  0
 18 20  2  0  0  0  0
 18 26  1  0  0  0  0
 19 21  2  0  0  0  0
 19 27  1  0  0  0  0
 20 21  1  0  0  0  0
 20 28  1  0  0  0  0
 22 31  1  0  0  0  0
 22 32  1  0  0  0  0
 22 33  1  0  0  0  0
M  END
> <PUBCHEM_COMPOUND_CID>
5281706

> <PUBCHEM_COMPOUND_CANONICALIZED>
1

> <PUBCHEM_CACTVS_COMPLEXITY>
462

> <PUBCHEM_CACTVS_HBOND_ACCEPTOR>
6

> <PUBCHEM_CACTVS_HBOND_DONOR>
3

> <PUBCHEM_CACTVS_ROTATABLE_BOND>
2

> <PUBCHEM_CACTVS_SUBSKEYS>
AAADccB4OAAAAAAAAAAAAAAAAAAAAAAAAAAwYIAAAAAAAACBQAAAGgAACAAADASgmAIyBoAABgCIAqBSAAACCAAkIAAIiAEGCMgMJzaGNRqAcWAl4BUIuYeK7PzOIAAACAAIAABAAAAQABAAAAAAAAAAAA==

> <PUBCHEM_IUPAC_OPENEYE_NAME>
3-(2,4-dihydroxyphenyl)-5-hydroxy-7-methoxy-chromen-4-one

> <PUBCHEM_IUPAC_CAS_NAME>
3-(2,4-dihydroxyphenyl)-5-hydroxy-7-methoxy-1-benzopyran-4-one

> <PUBCHEM_IUPAC_NAME>
3-(2,4-dihydroxyphenyl)-5-hydroxy-7-methoxychromen-4-one

> <PUBCHEM_IUPAC_SYSTEMATIC_NAME>
3-[2,4-bis(oxidanyl)phenyl]-7-methoxy-5-oxidanyl-chromen-4-one

> <PUBCHEM_IUPAC_TRADITIONAL_NAME>
3-(2,4-dihydroxyphenyl)-5-hydroxy-7-methoxy-chromone

> <PUBCHEM_IUPAC_INCHI>
InChI=1S/C16H12O6/c1-21-9-5-13(19)15-14(6-9)22-7-11(16(15)20)10-3-2-8(17)4-12(10)18/h2-7,17-19H,1H3

> <PUBCHEM_IUPAC_INCHIKEY>
ALFNTRJPGFNJQV-UHFFFAOYSA-N

> <PUBCHEM_XLOGP3_AA>
2.6

> <PUBCHEM_EXACT_MASS>
300.063388

> <PUBCHEM_MOLECULAR_FORMULA>
C16H12O6

> <PUBCHEM_MOLECULAR_WEIGHT>
300.26288

> <PUBCHEM_OPENEYE_CAN_SMILES>
COC1=CC(=C2C(=C1)OC=C(C2=O)C3=C(C=C(C=C3)O)O)O

> <PUBCHEM_OPENEYE_ISO_SMILES>
COC1=CC(=C2C(=C1)OC=C(C2=O)C3=C(C=C(C=C3)O)O)O

> <PUBCHEM_CACTVS_TPSA>
96.2

> <PUBCHEM_MONOISOTOPIC_WEIGHT>
300.063388

> <PUBCHEM_TOTAL_CHARGE>
0

> <PUBCHEM_HEAVY_ATOM_COUNT>
22

> <PUBCHEM_ATOM_DEF_STEREO_COUNT>
0

> <PUBCHEM_ATOM_UDEF_STEREO_COUNT>
0

> <PUBCHEM_BOND_DEF_STEREO_COUNT>
0

> <PUBCHEM_BOND_UDEF_STEREO_COUNT>
0

> <PUBCHEM_ISOTOPIC_ATOM_COUNT>
0

> <PUBCHEM_COMPONENT_COUNT>
1

> <PUBCHEM_CACTVS_TAUTO_COUNT>
45

> <PUBCHEM_COORDINATE_TYPE>
1
5
255

> <PUBCHEM_BONDANNOTATIONS>
1  13  8
1  9  8
11  17  8
11  18  8
12  16  8
14  15  8
15  16  8
17  19  8
18  20  8
19  21  8
20  21  8
7  10  8
7  12  8
7  9  8
8  10  8
8  13  8
9  14  8

$$$$

