   Color/Form
        Needles (recyrstallized from benzene/ethanol) with a brilliant
   bluish-violet fluorescence in ultraviolet light
   from [1]HSDB

   Melting Point
        117.5 deg C
   from [2]HSDB

   Solubilities

     * Soluble in acetone
     * In water, 0.062 mg/l @ 27 deg C

   from [3]HSDB

   Spectral Properties

     * MASS: NIST 11695 (NIST/EPA/MSDC Mass Spectral Database, 1990
       Version)
     * UV: FO 450 (Friedel and Orchin, Ultraviolet Spectra of Aromatic
       Compounds, John Wiley & Sons, New York)

   from [4]HSDB

   Computed Properties
   Molecular Weight                  242.31446 [g/mol]
   Molecular Formula                 C[19]H[14]
   XLogP3-AA                         6
   H-Bond Donor                      0
   H-Bond Acceptor                   0
   Rotatable Bond Count              0
   Exact Mass                        242.10955
   MonoIsotopic Mass                 242.10955
   Topological Polar Surface Area    0
   Heavy Atom Count                  19
   Formal Charge                     0
   Complexity                        320
   Isotope Atom Count                0
   Defined Atom Stereocenter Count   0
   Undefined Atom Stereocenter Count 0
   Defined Bond Stereocenter Count   0
   Undefined Bond Stereocenter Count 0
   Covalently-Bonded Unit Count      1
   Feature 3D Ring Count             4
   Effective Rotor Count             0
   Conformer Sampling RMSD           0.4
   CID Conformer Count               [5]1

References

   1. http://toxnet.nlm.nih.gov/cgi-bin/sis/search/r?dbs+hsdb:@term+@rn+@rel+3697-24-3
   2. http://toxnet.nlm.nih.gov/cgi-bin/sis/search/r?dbs+hsdb:@term+@rn+@rel+3697-24-3
   3. http://toxnet.nlm.nih.gov/cgi-bin/sis/search/r?dbs+hsdb:@term+@rn+@rel+3697-24-3
   4. http://toxnet.nlm.nih.gov/cgi-bin/sis/search/r?dbs+hsdb:@term+@rn+@rel+3697-24-3
   5. http://pubchem.ncbi.nlm.nih.gov/vw3d/vw3d.cgi?cid=19427
