   Melting Point
        176-179 deg C
   from [1]HSDB

   Density/Specific Gravity
        1.66 g/cu cm
   from [2]HSDB

   Octanol/Water Partition Coefficient
        log Kow = 5.27
   from [3]HSDB

   Solubilities

     * Soluble in organic solvents
     * In water, 0.9531 mg/l @ 25 deg C

   from [4]HSDB

   Vapor Pressure
        3.75X10-6 mm Hg @ 40 deg C
   from [5]HSDB

   Computed Properties
   Molecular Weight                  492.704586 [g/mol]
   Molecular Formula                 C[17]H[9]ClF[8]N[2]O[4]
   XLogP3                            5.8
   H-Bond Donor                      2
   H-Bond Acceptor                   12
   Rotatable Bond Count              6
   Tautomer Count                    5
   Exact Mass                        492.01231
   MonoIsotopic Mass                 492.01231
   Topological Polar Surface Area    76.7
   Heavy Atom Count                  32
   Formal Charge                     0
   Complexity                        661
   Isotope Atom Count                0
   Defined Atom Stereocenter Count   0
   Undefined Atom Stereocenter Count 1
   Defined Bond Stereocenter Count   0
   Undefined Bond Stereocenter Count 0
   Covalently-Bonded Unit Count      1
   Feature 3D Acceptor Count         4
   Feature 3D Donor Count            2
   Feature 3D Ring Count             2
   Effective Rotor Count             10
   Conformer Sampling RMSD           1
   CID Conformer Count               [6]173

References

   1. http://toxnet.nlm.nih.gov/cgi-bin/sis/search/r?dbs+hsdb:@term+@rn+@rel+116714-46-6
   2. http://toxnet.nlm.nih.gov/cgi-bin/sis/search/r?dbs+hsdb:@term+@rn+@rel+116714-46-6
   3. http://toxnet.nlm.nih.gov/cgi-bin/sis/search/r?dbs+hsdb:@term+@rn+@rel+116714-46-6
   4. http://toxnet.nlm.nih.gov/cgi-bin/sis/search/r?dbs+hsdb:@term+@rn+@rel+116714-46-6
   5. http://toxnet.nlm.nih.gov/cgi-bin/sis/search/r?dbs+hsdb:@term+@rn+@rel+116714-46-6
   6. http://pubchem.ncbi.nlm.nih.gov/vw3d/vw3d.cgi?cid=93541
