12904
  -OEChem-06261207312D

 33 34  0     0  0  0  0  0  0999 V2000
    2.0000    0.5530    0.0000 Cl  0  0  0  0  0  0  0  0  0  0  0  0
    3.7320   -2.4470    0.0000 Cl  0  0  0  0  0  0  0  0  0  0  0  0
   10.2260    0.1869    0.0000 O   0  0  0  0  0  0  0  0  0  0  0  0
   10.2260    1.9190    0.0000 O   0  0  0  0  0  0  0  0  0  0  0  0
    4.5981    0.0530    0.0000 N   0  0  0  0  0  0  0  0  0  0  0  0
    8.1424    1.8577    0.0000 N   0  0  0  0  0  0  0  0  0  0  0  0
    5.4641    0.5530    0.0000 C   0  0  0  0  0  0  0  0  0  0  0  0
    7.1962    0.5530    0.0000 C   0  0  0  0  0  0  0  0  0  0  0  0
    7.1962    1.5530    0.0000 C   0  0  0  0  0  0  0  0  0  0  0  0
    3.7320    0.5530    0.0000 C   0  0  0  0  0  0  0  0  0  0  0  0
    4.5981   -0.9470    0.0000 C   0  0  0  0  0  0  0  0  0  0  0  0
    6.3301    0.0530    0.0000 C   0  0  0  0  0  0  0  0  0  0  0  0
    5.4641    1.5530    0.0000 C   0  0  0  0  0  0  0  0  0  0  0  0
    6.3301    2.0530    0.0000 C   0  0  0  0  0  0  0  0  0  0  0  0
    8.1424    0.2482    0.0000 C   0  0  0  0  0  0  0  0  0  0  0  0
    8.7260    1.0530    0.0000 C   0  0  0  0  0  0  0  0  0  0  0  0
    2.8660    0.0530    0.0000 C   0  0  0  0  0  0  0  0  0  0  0  0
    3.7320   -1.4470    0.0000 C   0  0  0  0  0  0  0  0  0  0  0  0
    9.7260    1.0530    0.0000 C   0  0  0  0  0  0  0  0  0  0  0  0
    4.1306    1.0279    0.0000 H   0  0  0  0  0  0  0  0  0  0  0  0
    3.3335    1.0279    0.0000 H   0  0  0  0  0  0  0  0  0  0  0  0
    4.8101   -1.5296    0.0000 H   0  0  0  0  0  0  0  0  0  0  0  0
    5.2087   -0.8394    0.0000 H   0  0  0  0  0  0  0  0  0  0  0  0
    6.3301   -0.5670    0.0000 H   0  0  0  0  0  0  0  0  0  0  0  0
    4.9272    1.8630    0.0000 H   0  0  0  0  0  0  0  0  0  0  0  0
    6.3301    2.6730    0.0000 H   0  0  0  0  0  0  0  0  0  0  0  0
    8.3350   -0.3411    0.0000 H   0  0  0  0  0  0  0  0  0  0  0  0
    8.3350    2.4470    0.0000 H   0  0  0  0  0  0  0  0  0  0  0  0
    3.5200   -0.8644    0.0000 H   0  0  0  0  0  0  0  0  0  0  0  0
    3.1215   -1.5547    0.0000 H   0  0  0  0  0  0  0  0  0  0  0  0
    2.4675   -0.4220    0.0000 H   0  0  0  0  0  0  0  0  0  0  0  0
    3.2646   -0.4220    0.0000 H   0  0  0  0  0  0  0  0  0  0  0  0
   10.8460    0.1869    0.0000 H   0  0  0  0  0  0  0  0  0  0  0  0
  1 17  1  0  0  0  0
  2 18  1  0  0  0  0
  3 19  1  0  0  0  0
  3 33  1  0  0  0  0
  4 19  2  0  0  0  0
  5  7  1  0  0  0  0
  5 10  1  0  0  0  0
  5 11  1  0  0  0  0
  6  9  1  0  0  0  0
  6 16  1  0  0  0  0
  6 28  1  0  0  0  0
  7 12  2  0  0  0  0
  7 13  1  0  0  0  0
  8  9  2  0  0  0  0
  8 12  1  0  0  0  0
  8 15  1  0  0  0  0
  9 14  1  0  0  0  0
 10 17  1  0  0  0  0
 10 20  1  0  0  0  0
 10 21  1  0  0  0  0
 11 18  1  0  0  0  0
 11 22  1  0  0  0  0
 11 23  1  0  0  0  0
 12 24  1  0  0  0  0
 13 14  2  0  0  0  0
 13 25  1  0  0  0  0
 14 26  1  0  0  0  0
 15 16  2  0  0  0  0
 15 27  1  0  0  0  0
 16 19  1  0  0  0  0
 17 31  1  0  0  0  0
 17 32  1  0  0  0  0
 18 29  1  0  0  0  0
 18 30  1  0  0  0  0
M  END
> <PUBCHEM_COMPOUND_CID>
12904

> <PUBCHEM_COMPOUND_CANONICALIZED>
1

> <PUBCHEM_CACTVS_COMPLEXITY>
311

> <PUBCHEM_CACTVS_HBOND_ACCEPTOR>
3

> <PUBCHEM_CACTVS_HBOND_DONOR>
2

> <PUBCHEM_CACTVS_ROTATABLE_BOND>
6

> <PUBCHEM_CACTVS_SUBSKEYS>
AAADccBzMAAGAAAAAAAAAAAAAAAAAWAAAAAwAAAAAAAAAFgB8AAAHgIQCAAADAvBnkQwyPPJkgCoAyTyTASCgCAnAiAImSG4bNgKJvLAlbHEcQhk0AHY2YeY2aGeAACAQAACAAAAAQCAAAQAAAAAAAAAAA==

> <PUBCHEM_IUPAC_OPENEYE_NAME>
5-[bis(2-chloroethyl)amino]-1H-indole-2-carboxylic acid

> <PUBCHEM_IUPAC_CAS_NAME>
5-[bis(2-chloroethyl)amino]-1H-indole-2-carboxylic acid

> <PUBCHEM_IUPAC_NAME>
5-[bis(2-chloroethyl)amino]-1H-indole-2-carboxylic acid

> <PUBCHEM_IUPAC_SYSTEMATIC_NAME>
5-[bis(2-chloroethyl)amino]-1H-indole-2-carboxylic acid

> <PUBCHEM_IUPAC_TRADITIONAL_NAME>
5-[bis(2-chloroethyl)amino]-1H-indole-2-carboxylic acid

> <PUBCHEM_IUPAC_INCHI>
InChI=1S/C13H14Cl2N2O2/c14-3-5-17(6-4-15)10-1-2-11-9(7-10)8-12(16-11)13(18)19/h1-2,7-8,16H,3-6H2,(H,18,19)

> <PUBCHEM_IUPAC_INCHIKEY>
OYPDCLOVHXBMAY-UHFFFAOYSA-N

> <PUBCHEM_XLOGP3>
3.6

> <PUBCHEM_EXACT_MASS>
300.043233

> <PUBCHEM_MOLECULAR_FORMULA>
C13H14Cl2N2O2

> <PUBCHEM_MOLECULAR_WEIGHT>
301.16846

> <PUBCHEM_OPENEYE_CAN_SMILES>
C1=CC2=C(C=C1N(CCCl)CCCl)C=C(N2)C(=O)O

> <PUBCHEM_OPENEYE_ISO_SMILES>
C1=CC2=C(C=C1N(CCCl)CCCl)C=C(N2)C(=O)O

> <PUBCHEM_CACTVS_TPSA>
56.3

> <PUBCHEM_MONOISOTOPIC_WEIGHT>
300.043233

> <PUBCHEM_TOTAL_CHARGE>
0

> <PUBCHEM_HEAVY_ATOM_COUNT>
19

> <PUBCHEM_ATOM_DEF_STEREO_COUNT>
0

> <PUBCHEM_ATOM_UDEF_STEREO_COUNT>
0

> <PUBCHEM_BOND_DEF_STEREO_COUNT>
0

> <PUBCHEM_BOND_UDEF_STEREO_COUNT>
0

> <PUBCHEM_ISOTOPIC_ATOM_COUNT>
0

> <PUBCHEM_COMPONENT_COUNT>
1

> <PUBCHEM_CACTVS_TAUTO_COUNT>
5

> <PUBCHEM_COORDINATE_TYPE>
1
5
255

> <PUBCHEM_BONDANNOTATIONS>
13  14  8
15  16  8
6  16  8
6  9  8
7  12  8
7  13  8
8  12  8
8  15  8
8  9  8
9  14  8

$$$$

