   Color/Form
        Colorless liquid
   from [1]HSDB

   Odor

     * Pungent odor like that of butyric acid, but not as unpleasant
     * SHARP, BUTTER-FAT-LIKE ODOR

   from [2]HSDB

   Taste
        CHEESY TASTE
   from [3]HSDB

   Boiling Point
        152-155 deg C at 760 mm Hg
   from [4]HSDB

   Melting Point
        -47 deg C
   from [5]HSDB

   Corrosivity
        /2-Methylpropanoic acid/ is corrosive to metals.
   from [6]HSDB

   Critical Temperature and Pressure
        Critical temp: 637 deg F= 336 deg C; Critical pressure: 588 psia=
   40 atm= 4.06 MN/sq m
   from [7]HSDB

   Density/Specific Gravity
        0.950 at 20 deg C/4 deg C
   from [8]HSDB

   Dissociation Constants
        pKa = 4.84
   from [9]HSDB

   Heat of Vaporization
        11,182.8 g cal/g mole
   from [10]HSDB

   Octanol/Water Partition Coefficient
        log Kow = 0.94
   from [11]HSDB

   Solubilities

     * Slightly soluble in carbon tetrachloride
     * Sol in 6 parts of water; miscible with alcohol, chloroform, and
       ether.
     * In water, 1.67X10+5 mg/L at 20 deg C

   from [12]HSDB

   Spectral Properties

     * Index of refraction: 1.3930 at 20 deg C/D
     * IR: 4821 (Coblentz Society Spectral Collection)
     * NMR: 54 (Sadtler Research Laboratories Spectral Collection)
     * Raman: 54 (Sadtler Research Laboratories Spectral Collection)
     * MASS: 49309 (NIST/EPA/MSDC Mass Spectral database, 1990 version);
       982 (Atlas of Mass Spectral Data, John Wiley & Sons, New York)

   from [13]HSDB

   Surface Tension
        24.4mN/m at 25 deg C /Methyl propanoate/
   from [14]HSDB

   Vapor Density
        3.0
   from [15]HSDB

   Vapor Pressure
        1.81 mm Hg at 25 deg C
   from [16]HSDB

   Viscosity
        1.126 mPa.s
   from [17]HSDB

   Other Chemical/Physical Properties

     * Henry's Law constant = 8.85X10-7 atm-cu m/mol at 25 deg C
     * Hydroxyl radical reaction rate constant = 2.00X10-12 cu
       cm/molec-sec at 25 deg C

   from [18]HSDB

   Computed Properties
   Molecular Weight                  88.10512 [g/mol]
   Molecular Formula                 C[4]H[8]O[2]
   XLogP3-AA                         0.8
   H-Bond Donor                      1
   H-Bond Acceptor                   2
   Rotatable Bond Count              1
   Exact Mass                        88.052429
   MonoIsotopic Mass                 88.052429
   Topological Polar Surface Area    37.3
   Heavy Atom Count                  6
   Formal Charge                     0
   Complexity                        56.6
   Isotope Atom Count                0
   Defined Atom Stereocenter Count   0
   Undefined Atom Stereocenter Count 0
   Defined Bond Stereocenter Count   0
   Undefined Bond Stereocenter Count 0
   Covalently-Bonded Unit Count      1
   Feature 3D Acceptor Count         2
   Feature 3D Anion Count            1
   Feature 3D Hydrophobe Count       1
   Effective Rotor Count             1
   Conformer Sampling RMSD           0.4
   CID Conformer Count               [19]3

References

   1. http://toxnet.nlm.nih.gov/cgi-bin/sis/search/r?dbs+hsdb:@term+@rn+@rel+79-31-2
   2. http://toxnet.nlm.nih.gov/cgi-bin/sis/search/r?dbs+hsdb:@term+@rn+@rel+79-31-2
   3. http://toxnet.nlm.nih.gov/cgi-bin/sis/search/r?dbs+hsdb:@term+@rn+@rel+79-31-2
   4. http://toxnet.nlm.nih.gov/cgi-bin/sis/search/r?dbs+hsdb:@term+@rn+@rel+79-31-2
   5. http://toxnet.nlm.nih.gov/cgi-bin/sis/search/r?dbs+hsdb:@term+@rn+@rel+79-31-2
   6. http://toxnet.nlm.nih.gov/cgi-bin/sis/search/r?dbs+hsdb:@term+@rn+@rel+79-31-2
   7. http://toxnet.nlm.nih.gov/cgi-bin/sis/search/r?dbs+hsdb:@term+@rn+@rel+79-31-2
   8. http://toxnet.nlm.nih.gov/cgi-bin/sis/search/r?dbs+hsdb:@term+@rn+@rel+79-31-2
   9. http://toxnet.nlm.nih.gov/cgi-bin/sis/search/r?dbs+hsdb:@term+@rn+@rel+79-31-2
  10. http://toxnet.nlm.nih.gov/cgi-bin/sis/search/r?dbs+hsdb:@term+@rn+@rel+79-31-2
  11. http://toxnet.nlm.nih.gov/cgi-bin/sis/search/r?dbs+hsdb:@term+@rn+@rel+79-31-2
  12. http://toxnet.nlm.nih.gov/cgi-bin/sis/search/r?dbs+hsdb:@term+@rn+@rel+79-31-2
  13. http://toxnet.nlm.nih.gov/cgi-bin/sis/search/r?dbs+hsdb:@term+@rn+@rel+79-31-2
  14. http://toxnet.nlm.nih.gov/cgi-bin/sis/search/r?dbs+hsdb:@term+@rn+@rel+79-31-2
  15. http://toxnet.nlm.nih.gov/cgi-bin/sis/search/r?dbs+hsdb:@term+@rn+@rel+79-31-2
  16. http://toxnet.nlm.nih.gov/cgi-bin/sis/search/r?dbs+hsdb:@term+@rn+@rel+79-31-2
  17. http://toxnet.nlm.nih.gov/cgi-bin/sis/search/r?dbs+hsdb:@term+@rn+@rel+79-31-2
  18. http://toxnet.nlm.nih.gov/cgi-bin/sis/search/r?dbs+hsdb:@term+@rn+@rel+79-31-2
  19. http://pubchem.ncbi.nlm.nih.gov/vw3d/vw3d.cgi?cid=6590
