62805
  -OEChem-07051213132D

 23 25  0     0  0  0  0  0  0999 V2000
    4.5274    0.8518    0.0000 N   0  0  0  0  0  0  0  0  0  0  0  0
    6.3518    0.4963    0.0000 N   0  0  0  0  0  0  0  0  0  0  0  0
    8.0321   -0.0608    0.0000 N   0  0  0  0  0  0  0  0  0  0  0  0
    4.0274   -0.6871    0.0000 C   0  0  0  0  0  0  0  0  0  0  0  0
    5.0274   -0.6871    0.0000 C   0  0  0  0  0  0  0  0  0  0  0  0
    3.7183    0.2640    0.0000 C   0  0  0  0  0  0  0  0  0  0  0  0
    5.3364    0.2640    0.0000 C   0  0  0  0  0  0  0  0  0  0  0  0
    5.7123   -1.4718    0.0000 C   0  0  0  0  0  0  0  0  0  0  0  0
    3.3424   -1.4718    0.0000 C   0  0  0  0  0  0  0  0  0  0  0  0
    2.7029    0.4963    0.0000 C   0  0  0  0  0  0  0  0  0  0  0  0
    6.7328   -1.2631    0.0000 C   0  0  0  0  0  0  0  0  0  0  0  0
    2.3219   -1.2631    0.0000 C   0  0  0  0  0  0  0  0  0  0  0  0
    2.0000   -0.2724    0.0000 C   0  0  0  0  0  0  0  0  0  0  0  0
    7.0547   -0.2724    0.0000 C   0  0  0  0  0  0  0  0  0  0  0  0
    4.5274    1.4718    0.0000 H   0  0  0  0  0  0  0  0  0  0  0  0
    5.5139   -2.0592    0.0000 H   0  0  0  0  0  0  0  0  0  0  0  0
    3.5408   -2.0592    0.0000 H   0  0  0  0  0  0  0  0  0  0  0  0
    2.5182    1.0881    0.0000 H   0  0  0  0  0  0  0  0  0  0  0  0
    7.1459   -1.7254    0.0000 H   0  0  0  0  0  0  0  0  0  0  0  0
    1.9088   -1.7254    0.0000 H   0  0  0  0  0  0  0  0  0  0  0  0
    1.3940   -0.1412    0.0000 H   0  0  0  0  0  0  0  0  0  0  0  0
    8.4487   -0.5199    0.0000 H   0  0  0  0  0  0  0  0  0  0  0  0
    8.2214    0.5296    0.0000 H   0  0  0  0  0  0  0  0  0  0  0  0
  1  6  1  0  0  0  0
  1  7  1  0  0  0  0
  1 15  1  0  0  0  0
  2  7  1  0  0  0  0
  2 14  2  0  0  0  0
  3 14  1  0  0  0  0
  3 22  1  0  0  0  0
  3 23  1  0  0  0  0
  4  5  1  0  0  0  0
  4  6  1  0  0  0  0
  4  9  2  0  0  0  0
  5  7  2  0  0  0  0
  5  8  1  0  0  0  0
  6 10  2  0  0  0  0
  8 11  2  0  0  0  0
  8 16  1  0  0  0  0
  9 12  1  0  0  0  0
  9 17  1  0  0  0  0
 10 13  1  0  0  0  0
 10 18  1  0  0  0  0
 11 14  1  0  0  0  0
 11 19  1  0  0  0  0
 12 13  2  0  0  0  0
 12 20  1  0  0  0  0
 13 21  1  0  0  0  0
M  END
> <PUBCHEM_COMPOUND_CID>
62805

> <PUBCHEM_COMPOUND_CANONICALIZED>
1

> <PUBCHEM_CACTVS_COMPLEXITY>
219

> <PUBCHEM_CACTVS_HBOND_ACCEPTOR>
2

> <PUBCHEM_CACTVS_HBOND_DONOR>
2

> <PUBCHEM_CACTVS_ROTATABLE_BOND>
0

> <PUBCHEM_CACTVS_SUBSKEYS>
AAADccBzAAAAAAAAAAAAAAAAAAAAAWAAAAA8QAAAAAAAAFgB/gAAHAAQAAAADAiBHwAx8P7JkACgAyZiZACCgCmhAqAJmSAwZJiIKOLAmZGEIAhokALIyCcQgMAOgAAAAAACAAAAAAAAAAQAAAAAAAAAAA==

> <PUBCHEM_IUPAC_OPENEYE_NAME>
9H-pyrido[2,3-b]indol-2-amine

> <PUBCHEM_IUPAC_CAS_NAME>
9H-pyrido[2,3-b]indol-2-amine

> <PUBCHEM_IUPAC_NAME>
9H-pyrido[2,3-b]indol-2-amine

> <PUBCHEM_IUPAC_SYSTEMATIC_NAME>
9H-pyrido[2,3-b]indol-2-amine

> <PUBCHEM_IUPAC_TRADITIONAL_NAME>
9H-pyrid[2,3-b]indol-2-ylamine

> <PUBCHEM_IUPAC_INCHI>
InChI=1S/C11H9N3/c12-10-6-5-8-7-3-1-2-4-9(7)13-11(8)14-10/h1-6H,(H3,12,13,14)

> <PUBCHEM_IUPAC_INCHIKEY>
FJTNLJLPLJDTRM-UHFFFAOYSA-N

> <PUBCHEM_XLOGP3>
2.6

> <PUBCHEM_EXACT_MASS>
183.079647

> <PUBCHEM_MOLECULAR_FORMULA>
C11H9N3

> <PUBCHEM_MOLECULAR_WEIGHT>
183.20926

> <PUBCHEM_OPENEYE_CAN_SMILES>
C1=CC=C2C(=C1)C3=C(N2)N=C(C=C3)N

> <PUBCHEM_OPENEYE_ISO_SMILES>
C1=CC=C2C(=C1)C3=C(N2)N=C(C=C3)N

> <PUBCHEM_CACTVS_TPSA>
54.7

> <PUBCHEM_MONOISOTOPIC_WEIGHT>
183.079647

> <PUBCHEM_TOTAL_CHARGE>
0

> <PUBCHEM_HEAVY_ATOM_COUNT>
14

> <PUBCHEM_ATOM_DEF_STEREO_COUNT>
0

> <PUBCHEM_ATOM_UDEF_STEREO_COUNT>
0

> <PUBCHEM_BOND_DEF_STEREO_COUNT>
0

> <PUBCHEM_BOND_UDEF_STEREO_COUNT>
0

> <PUBCHEM_ISOTOPIC_ATOM_COUNT>
0

> <PUBCHEM_COMPONENT_COUNT>
1

> <PUBCHEM_CACTVS_TAUTO_COUNT>
6

> <PUBCHEM_COORDINATE_TYPE>
1
5
255

> <PUBCHEM_BONDANNOTATIONS>
1  6  8
1  7  8
10  13  8
11  14  8
12  13  8
2  14  8
2  7  8
4  5  8
4  6  8
4  9  8
5  7  8
5  8  8
6  10  8
8  11  8
9  12  8

$$$$

