104836
  -OEChem-07051213002D

 52 54  0     1  0  0  0  0  0999 V2000
    3.6200   -0.0955    0.0000 O   0  0  0  0  0  0  0  0  0  0  0  0
    3.1200    1.7705    0.0000 O   0  0  0  0  0  0  0  0  0  0  0  0
    4.1200    3.5026    0.0000 O   0  0  0  0  0  0  0  0  0  0  0  0
    2.6200   -0.0955    0.0000 O   0  0  0  0  0  0  0  0  0  0  0  0
    2.2540    1.2705    0.0000 O   0  0  0  0  0  0  0  0  0  0  0  0
    8.5162    2.2947    0.0000 O   0  0  0  0  0  0  0  0  0  0  0  0
    8.5162    0.2464    0.0000 O   0  0  0  0  0  0  0  0  0  0  0  0
    3.2540   -2.7295    0.0000 O   0  0  0  0  0  0  0  0  0  0  0  0
    6.7181   -2.7295    0.0000 O   0  0  0  0  0  0  0  0  0  0  0  0
    4.9860   -3.7295    0.0000 O   0  0  0  0  0  0  0  0  0  0  0  0
    4.1200    0.7705    0.0000 C   0  0  2  0  0  0  0  0  0  0  0  0
    4.1200    1.7705    0.0000 C   0  0  2  0  0  0  0  0  0  0  0  0
    4.9860    0.2705    0.0000 C   0  0  2  0  0  0  0  0  0  0  0  0
    4.9860    2.2705    0.0000 C   0  0  0  0  0  0  0  0  0  0  0  0
    5.8520    0.7705    0.0000 C   0  0  0  0  0  0  0  0  0  0  0  0
    5.8520    1.7705    0.0000 C   0  0  0  0  0  0  0  0  0  0  0  0
    3.6200    2.6365    0.0000 C   0  0  0  0  0  0  0  0  0  0  0  0
    4.9860   -0.7295    0.0000 C   0  0  0  0  0  0  0  0  0  0  0  0
    3.1200    0.7705    0.0000 C   0  0  0  0  0  0  0  0  0  0  0  0
    6.7460    0.2358    0.0000 C   0  0  0  0  0  0  0  0  0  0  0  0
    6.7460    2.3052    0.0000 C   0  0  0  0  0  0  0  0  0  0  0  0
    4.1200   -1.2295    0.0000 C   0  0  0  0  0  0  0  0  0  0  0  0
    5.8520   -1.2295    0.0000 C   0  0  0  0  0  0  0  0  0  0  0  0
    7.6521    0.7497    0.0000 C   0  0  0  0  0  0  0  0  0  0  0  0
    7.6521    1.7913    0.0000 C   0  0  0  0  0  0  0  0  0  0  0  0
    4.1200   -2.2295    0.0000 C   0  0  0  0  0  0  0  0  0  0  0  0
    5.8520   -2.2295    0.0000 C   0  0  0  0  0  0  0  0  0  0  0  0
    4.9860   -2.7295    0.0000 C   0  0  0  0  0  0  0  0  0  0  0  0
    8.5123    3.2946    0.0000 C   0  0  0  0  0  0  0  0  0  0  0  0
    3.2540   -3.7295    0.0000 C   0  0  0  0  0  0  0  0  0  0  0  0
    4.4491   -0.0395    0.0000 H   0  0  0  0  0  0  0  0  0  0  0  0
    5.3846    2.7454    0.0000 H   0  0  0  0  0  0  0  0  0  0  0  0
    4.5875    2.7454    0.0000 H   0  0  0  0  0  0  0  0  0  0  0  0
    3.1450    3.0351    0.0000 H   0  0  0  0  0  0  0  0  0  0  0  0
    3.1450    2.2380    0.0000 H   0  0  0  0  0  0  0  0  0  0  0  0
    6.7388   -0.3841    0.0000 H   0  0  0  0  0  0  0  0  0  0  0  0
    3.9300   -0.6325    0.0000 H   0  0  0  0  0  0  0  0  0  0  0  0
    2.8100    2.3074    0.0000 H   0  0  0  0  0  0  0  0  0  0  0  0
    6.7388    2.9251    0.0000 H   0  0  0  0  0  0  0  0  0  0  0  0
    3.5831   -0.9195    0.0000 H   0  0  0  0  0  0  0  0  0  0  0  0
    6.3890   -0.9195    0.0000 H   0  0  0  0  0  0  0  0  0  0  0  0
    3.8100    4.0395    0.0000 H   0  0  0  0  0  0  0  0  0  0  0  0
    2.0000   -0.0955    0.0000 H   0  0  0  0  0  0  0  0  0  0  0  0
    9.0543    0.5543    0.0000 H   0  0  0  0  0  0  0  0  0  0  0  0
    7.2550   -2.4195    0.0000 H   0  0  0  0  0  0  0  0  0  0  0  0
    9.1323    3.2970    0.0000 H   0  0  0  0  0  0  0  0  0  0  0  0
    8.5099    3.9146    0.0000 H   0  0  0  0  0  0  0  0  0  0  0  0
    7.8923    3.2923    0.0000 H   0  0  0  0  0  0  0  0  0  0  0  0
    5.5230   -4.0395    0.0000 H   0  0  0  0  0  0  0  0  0  0  0  0
    2.6340   -3.7295    0.0000 H   0  0  0  0  0  0  0  0  0  0  0  0
    3.2540   -4.3495    0.0000 H   0  0  0  0  0  0  0  0  0  0  0  0
    3.8740   -3.7295    0.0000 H   0  0  0  0  0  0  0  0  0  0  0  0
 11  1  1  6  0  0  0
  1 37  1  0  0  0  0
 12  2  1  1  0  0  0
  2 38  1  0  0  0  0
  3 17  1  0  0  0  0
  3 42  1  0  0  0  0
  4 19  1  0  0  0  0
  4 43  1  0  0  0  0
  5 19  2  0  0  0  0
  6 25  1  0  0  0  0
  6 29  1  0  0  0  0
  7 24  1  0  0  0  0
  7 44  1  0  0  0  0
  8 26  1  0  0  0  0
  8 30  1  0  0  0  0
  9 27  1  0  0  0  0
  9 45  1  0  0  0  0
 10 28  1  0  0  0  0
 10 49  1  0  0  0  0
 11 12  1  0  0  0  0
 11 13  1  0  0  0  0
 11 19  1  0  0  0  0
 12 14  1  0  0  0  0
 12 17  1  0  0  0  0
 13 15  1  0  0  0  0
 13 18  1  6  0  0  0
 13 31  1  0  0  0  0
 14 16  1  0  0  0  0
 14 32  1  0  0  0  0
 14 33  1  0  0  0  0
 15 16  1  0  0  0  0
 15 20  2  0  0  0  0
 16 21  2  0  0  0  0
 17 34  1  0  0  0  0
 17 35  1  0  0  0  0
 18 22  1  0  0  0  0
 18 23  2  0  0  0  0
 20 24  1  0  0  0  0
 20 36  1  0  0  0  0
 21 25  1  0  0  0  0
 21 39  1  0  0  0  0
 22 26  2  0  0  0  0
 22 40  1  0  0  0  0
 23 27  1  0  0  0  0
 23 41  1  0  0  0  0
 24 25  2  0  0  0  0
 26 28  1  0  0  0  0
 27 28  2  0  0  0  0
 29 46  1  0  0  0  0
 29 47  1  0  0  0  0
 29 48  1  0  0  0  0
 30 50  1  0  0  0  0
 30 51  1  0  0  0  0
 30 52  1  0  0  0  0
M  END
> <PUBCHEM_COMPOUND_CID>
104836

> <PUBCHEM_COMPOUND_CANONICALIZED>
1

> <PUBCHEM_CACTVS_COMPLEXITY>
631

> <PUBCHEM_CACTVS_HBOND_ACCEPTOR>
10

> <PUBCHEM_CACTVS_HBOND_DONOR>
7

> <PUBCHEM_CACTVS_ROTATABLE_BOND>
5

> <PUBCHEM_CACTVS_SUBSKEYS>
AAADceB4PAAAAAAAAAAAAAAAAAAAAAAAAAAwYMAAAAAAAADBQAAAGgAACAAADUSgmAIyDoAABgCIAiDSCAICCAAgIAAAiAFGiIgNNzaGMRqAcCMl4BULuAfK6PyOoAABCAAQQADAAAYQADCAAAAAAAAAAA==

> <PUBCHEM_IUPAC_OPENEYE_NAME>
(1S,2S,3R)-1-(3,4-dihydroxy-5-methoxy-phenyl)-2,3,7-trihydroxy-3-(hydroxymethyl)-6-methoxy-tetralin-2-carboxylic acid

> <PUBCHEM_IUPAC_CAS_NAME>
(1S,2S,3R)-1-(3,4-dihydroxy-5-methoxyphenyl)-2,3,7-trihydroxy-3-(hydroxymethyl)-6-methoxy-1,4-dihydronaphthalene-2-carboxylic acid

> <PUBCHEM_IUPAC_NAME>
(1S,2S,3R)-1-(3,4-dihydroxy-5-methoxyphenyl)-2,3,7-trihydroxy-3-(hydroxymethyl)-6-methoxy-1,4-dihydronaphthalene-2-carboxylic acid

> <PUBCHEM_IUPAC_SYSTEMATIC_NAME>
(1S,2S,3R)-3-(hydroxymethyl)-6-methoxy-1-[3-methoxy-4,5-bis(oxidanyl)phenyl]-2,3,7-tris(oxidanyl)-1,4-dihydronaphthalene-2-carboxylic acid

> <PUBCHEM_IUPAC_TRADITIONAL_NAME>
(1S,2S,3R)-1-(3,4-dihydroxy-5-methoxy-phenyl)-2,3,7-trihydroxy-6-methoxy-3-methylol-tetralin-2-carboxylic acid

> <PUBCHEM_IUPAC_INCHI>
InChI=1S/C20H22O10/c1-29-14-5-10-7-19(27,8-21)20(28,18(25)26)16(11(10)6-12(14)22)9-3-13(23)17(24)15(4-9)30-2/h3-6,16,21-24,27-28H,7-8H2,1-2H3,(H,25,26)/t16-,19+,20+/m0/s1

> <PUBCHEM_IUPAC_INCHIKEY>
PGFBYAIGHPJFFJ-PWIZWCRZSA-N

> <PUBCHEM_XLOGP3_AA>
0.9

> <PUBCHEM_EXACT_MASS>
422.121297

> <PUBCHEM_MOLECULAR_FORMULA>
C20H22O10

> <PUBCHEM_MOLECULAR_WEIGHT>
422.38268

> <PUBCHEM_OPENEYE_CAN_SMILES>
COC1=CC(=CC(=C1O)O)C2C3=CC(=C(C=C3CC(C2(C(=O)O)O)(CO)O)OC)O

> <PUBCHEM_OPENEYE_ISO_SMILES>
COC1=CC(=CC(=C1O)O)[C@H]2C3=CC(=C(C=C3C[C@]([C@@]2(C(=O)O)O)(CO)O)OC)O

> <PUBCHEM_CACTVS_TPSA>
177

> <PUBCHEM_MONOISOTOPIC_WEIGHT>
422.121297

> <PUBCHEM_TOTAL_CHARGE>
0

> <PUBCHEM_HEAVY_ATOM_COUNT>
30

> <PUBCHEM_ATOM_DEF_STEREO_COUNT>
3

> <PUBCHEM_ATOM_UDEF_STEREO_COUNT>
0

> <PUBCHEM_BOND_DEF_STEREO_COUNT>
0

> <PUBCHEM_BOND_UDEF_STEREO_COUNT>
0

> <PUBCHEM_ISOTOPIC_ATOM_COUNT>
0

> <PUBCHEM_COMPONENT_COUNT>
1

> <PUBCHEM_CACTVS_TAUTO_COUNT>
137

> <PUBCHEM_COORDINATE_TYPE>
1
5
255

> <PUBCHEM_BONDANNOTATIONS>
11  1  6
13  18  6
15  16  8
15  20  8
16  21  8
18  22  8
18  23  8
12  2  5
20  24  8
21  25  8
22  26  8
23  27  8
24  25  8
26  28  8
27  28  8

$$$$

