3050259
  -OEChem-07051213102D

 19 20  0     1  0  0  0  0  0999 V2000
    4.6650    0.9824    0.0000 O   0  0  0  0  0  0  0  0  0  0  0  0
    2.0000   -1.0394    0.0000 O   0  0  0  0  0  0  0  0  0  0  0  0
    6.7528    1.0394    0.0000 O   0  0  0  0  0  0  0  0  0  0  0  0
    3.7139   -0.3267    0.0000 N   0  0  0  0  0  0  0  0  0  0  0  0
    3.7139    0.6733    0.0000 C   0  0  2  0  0  0  0  0  0  0  0  0
    4.6650   -0.6357    0.0000 C   0  0  0  0  0  0  0  0  0  0  0  0
    5.2528    0.1733    0.0000 C   0  0  2  0  0  0  0  0  0  0  0  0
    2.7056    0.6775    0.0000 C   0  0  0  0  0  0  0  0  0  0  0  0
    2.7056   -0.3308    0.0000 C   0  0  0  0  0  0  0  0  0  0  0  0
    6.2528    0.1733    0.0000 C   0  0  0  0  0  0  0  0  0  0  0  0
    3.5827    1.5132    0.0000 H   0  0  0  0  0  0  0  0  0  0  0  0
    4.4128   -1.2021    0.0000 H   0  0  0  0  0  0  0  0  0  0  0  0
    5.2019   -0.9457    0.0000 H   0  0  0  0  0  0  0  0  0  0  0  0
    5.5342    0.7258    0.0000 H   0  0  0  0  0  0  0  0  0  0  0  0
    2.7074    1.2975    0.0000 H   0  0  0  0  0  0  0  0  0  0  0  0
    2.0856    0.6783    0.0000 H   0  0  0  0  0  0  0  0  0  0  0  0
    6.1451   -0.4372    0.0000 H   0  0  0  0  0  0  0  0  0  0  0  0
    6.8354   -0.0387    0.0000 H   0  0  0  0  0  0  0  0  0  0  0  0
    7.3728    1.0394    0.0000 H   0  0  0  0  0  0  0  0  0  0  0  0
  1  5  1  0  0  0  0
  1  7  1  0  0  0  0
  2  9  2  0  0  0  0
  3 10  1  0  0  0  0
  3 19  1  0  0  0  0
  4  5  1  0  0  0  0
  4  6  1  0  0  0  0
  4  9  1  0  0  0  0
  5  8  1  0  0  0  0
  5 11  1  1  0  0  0
  6  7  1  0  0  0  0
  6 12  1  0  0  0  0
  6 13  1  0  0  0  0
  7 10  1  1  0  0  0
  7 14  1  0  0  0  0
  8  9  1  0  0  0  0
  8 15  1  0  0  0  0
  8 16  1  0  0  0  0
 10 17  1  0  0  0  0
 10 18  1  0  0  0  0
M  END
> <PUBCHEM_COMPOUND_CID>
3050259

> <PUBCHEM_COMPOUND_CANONICALIZED>
1

> <PUBCHEM_CACTVS_COMPLEXITY>
170

> <PUBCHEM_CACTVS_HBOND_ACCEPTOR>
3

> <PUBCHEM_CACTVS_HBOND_DONOR>
1

> <PUBCHEM_CACTVS_ROTATABLE_BOND>
1

> <PUBCHEM_CACTVS_SUBSKEYS>
AAADccBiMAAAAAAAAAAAAAAAAABYAWAAAAAAAAAABYAAAAAAAAAAHgAACAAACBThgAYAAAMABgAIAAEQEAAAAAAAAAAAAAEIAAADEAwAAAAPQAACJgCTAAAAAAAAAAAAAAAAAAAAAAAAAAAAAAAAAAAAAA==

> <PUBCHEM_IUPAC_OPENEYE_NAME>
(3R,5S)-3-(hydroxymethyl)-4-oxa-1-azabicyclo[3.2.0]heptan-7-one

> <PUBCHEM_IUPAC_CAS_NAME>
(3R,5S)-3-(hydroxymethyl)-4-oxa-1-azabicyclo[3.2.0]heptan-7-one

> <PUBCHEM_IUPAC_NAME>
(3R,5S)-3-(hydroxymethyl)-4-oxa-1-azabicyclo[3.2.0]heptan-7-one

> <PUBCHEM_IUPAC_SYSTEMATIC_NAME>
(3R,5S)-3-(hydroxymethyl)-4-oxa-1-azabicyclo[3.2.0]heptan-7-one

> <PUBCHEM_IUPAC_TRADITIONAL_NAME>
(3R,5S)-3-methylol-4-oxa-1-azabicyclo[3.2.0]heptan-7-one

> <PUBCHEM_IUPAC_INCHI>
InChI=1S/C6H9NO3/c8-3-4-2-7-5(9)1-6(7)10-4/h4,6,8H,1-3H2/t4-,6+/m1/s1

> <PUBCHEM_IUPAC_INCHIKEY>
CRVXTEJTLQIKDI-XINAWCOVSA-N

> <PUBCHEM_XLOGP3_AA>
-1.4

> <PUBCHEM_EXACT_MASS>
143.058243

> <PUBCHEM_MOLECULAR_FORMULA>
C6H9NO3

> <PUBCHEM_MOLECULAR_WEIGHT>
143.14056

> <PUBCHEM_OPENEYE_CAN_SMILES>
C1C2N(C1=O)CC(O2)CO

> <PUBCHEM_OPENEYE_ISO_SMILES>
C1[C@H]2N(C1=O)C[C@@H](O2)CO

> <PUBCHEM_CACTVS_TPSA>
49.8

> <PUBCHEM_MONOISOTOPIC_WEIGHT>
143.058243

> <PUBCHEM_TOTAL_CHARGE>
0

> <PUBCHEM_HEAVY_ATOM_COUNT>
10

> <PUBCHEM_ATOM_DEF_STEREO_COUNT>
2

> <PUBCHEM_ATOM_UDEF_STEREO_COUNT>
0

> <PUBCHEM_BOND_DEF_STEREO_COUNT>
0

> <PUBCHEM_BOND_UDEF_STEREO_COUNT>
0

> <PUBCHEM_ISOTOPIC_ATOM_COUNT>
0

> <PUBCHEM_COMPONENT_COUNT>
1

> <PUBCHEM_CACTVS_TAUTO_COUNT>
2

> <PUBCHEM_COORDINATE_TYPE>
1
5
255

> <PUBCHEM_BONDANNOTATIONS>
5  11  5
7  10  5

$$$$

