5281325
  -OEChem-07051212562D

107111  0     1  0  0  0  0  0999 V2000
   10.4473    0.0745    0.0000 O   0  0  0  0  0  0  0  0  0  0  0  0
   10.1248    1.5190    0.0000 O   0  0  0  0  0  0  0  0  0  0  0  0
   10.4473   -1.6576    0.0000 O   0  0  0  0  0  0  0  0  0  0  0  0
    8.8172    3.5245    0.0000 O   0  0  0  0  0  0  0  0  0  0  0  0
    2.5405   -0.3863    0.0000 O   0  0  0  0  0  0  0  0  0  0  0  0
    2.5244   -2.4779    0.0000 O   0  0  0  0  0  0  0  0  0  0  0  0
   12.4473    0.0745    0.0000 O   0  0  0  0  0  0  0  0  0  0  0  0
   13.4473   -1.6576    0.0000 O   0  0  0  0  0  0  0  0  0  0  0  0
   12.4473   -3.3896    0.0000 O   0  0  0  0  0  0  0  0  0  0  0  0
   12.7312    4.3494    0.0000 O   0  0  0  0  0  0  0  0  0  0  0  0
   13.9473   -0.7916    0.0000 O   0  0  0  0  0  0  0  0  0  0  0  0
   10.9473   -4.2557    0.0000 O   0  0  0  0  0  0  0  0  0  0  0  0
    7.9174   -0.4255    0.0000 C   0  0  2  0  0  0  0  0  0  0  0  0
    7.9174    0.5745    0.0000 C   0  0  1  0  0  0  0  0  0  0  0  0
    7.0514   -0.9255    0.0000 C   0  0  1  0  0  0  0  0  0  0  0  0
    6.1854   -0.4255    0.0000 C   0  0  1  0  0  0  0  0  0  0  0  0
    8.8637    0.8792    0.0000 C   0  0  2  0  0  0  0  0  0  0  0  0
    8.8637   -0.7303    0.0000 C   0  0  0  0  0  0  0  0  0  0  0  0
    7.0514    1.0745    0.0000 C   0  0  0  0  0  0  0  0  0  0  0  0
    9.4473    0.0745    0.0000 C   0  0  1  0  0  0  0  0  0  0  0  0
    6.1854    0.5745    0.0000 C   0  0  0  0  0  0  0  0  0  0  0  0
    5.2754   -0.9324    0.0000 C   0  0  1  0  0  0  0  0  0  0  0  0
    7.0675   -1.9670    0.0000 C   0  0  0  0  0  0  0  0  0  0  0  0
    7.9174   -1.4255    0.0000 C   0  0  0  0  0  0  0  0  0  0  0  0
    7.9174    1.5745    0.0000 C   0  0  0  0  0  0  0  0  0  0  0  0
    9.1743    1.8297    0.0000 C   0  0  1  0  0  0  0  0  0  0  0  0
    5.3194    0.0745    0.0000 C   0  0  0  0  0  0  0  0  0  0  0  0
    5.2674   -1.9740    0.0000 C   0  0  0  0  0  0  0  0  0  0  0  0
    6.1694   -2.4948    0.0000 C   0  0  0  0  0  0  0  0  0  0  0  0
    4.3319   -2.5237    0.0000 C   0  0  0  0  0  0  0  0  0  0  0  0
    4.3486   -0.3683    0.0000 C   0  0  0  0  0  0  0  0  0  0  0  0
    8.2238    2.1404    0.0000 C   0  0  0  0  0  0  0  0  0  0  0  0
    9.4850    2.7802    0.0000 C   0  0  0  0  0  0  0  0  0  0  0  0
   10.9473   -0.7916    0.0000 C   0  0  2  0  0  0  0  0  0  0  0  0
    3.4007   -0.8963    0.0000 C   0  0  0  0  0  0  0  0  0  0  0  0
    3.3923   -1.9812    0.0000 C   0  0  0  0  0  0  0  0  0  0  0  0
    3.8353   -3.3917    0.0000 C   0  0  0  0  0  0  0  0  0  0  0  0
    4.8353   -3.3878    0.0000 C   0  0  0  0  0  0  0  0  0  0  0  0
   11.9473   -0.7916    0.0000 C   0  0  1  0  0  0  0  0  0  0  0  0
   10.4635    2.9864    0.0000 C   0  0  0  0  0  0  0  0  0  0  0  0
   12.4473   -1.6576    0.0000 C   0  0  2  0  0  0  0  0  0  0  0  0
   10.9473   -2.5236    0.0000 C   0  0  0  0  0  0  0  0  0  0  0  0
   11.9473   -2.5236    0.0000 C   0  0  2  0  0  0  0  0  0  0  0  0
   10.7742    3.9370    0.0000 C   0  0  0  0  0  0  0  0  0  0  0  0
   11.7527    4.1432    0.0000 C   0  0  0  0  0  0  0  0  0  0  0  0
   13.4473    0.0745    0.0000 C   0  0  0  0  0  0  0  0  0  0  0  0
   11.5464    5.1217    0.0000 C   0  0  0  0  0  0  0  0  0  0  0  0
   11.9589    3.1647    0.0000 C   0  0  0  0  0  0  0  0  0  0  0  0
   11.9473   -4.2557    0.0000 C   0  0  0  0  0  0  0  0  0  0  0  0
   13.9473    0.9405    0.0000 C   0  0  0  0  0  0  0  0  0  0  0  0
   12.4473   -5.1217    0.0000 C   0  0  0  0  0  0  0  0  0  0  0  0
    7.7908   -1.3449    0.0000 H   0  0  0  0  0  0  0  0  0  0  0  0
    8.2639    1.4815    0.0000 H   0  0  0  0  0  0  0  0  0  0  0  0
    8.6126   -1.2972    0.0000 H   0  0  0  0  0  0  0  0  0  0  0  0
    9.4010   -1.0395    0.0000 H   0  0  0  0  0  0  0  0  0  0  0  0
    7.4500    1.5494    0.0000 H   0  0  0  0  0  0  0  0  0  0  0  0
    6.6529    1.5494    0.0000 H   0  0  0  0  0  0  0  0  0  0  0  0
    9.7290   -0.4778    0.0000 H   0  0  0  0  0  0  0  0  0  0  0  0
    5.9733    1.1571    0.0000 H   0  0  0  0  0  0  0  0  0  0  0  0
    5.5748    0.4668    0.0000 H   0  0  0  0  0  0  0  0  0  0  0  0
    5.2918   -0.0825    0.0000 H   0  0  0  0  0  0  0  0  0  0  0  0
    7.2855   -2.5474    0.0000 H   0  0  0  0  0  0  0  0  0  0  0  0
    7.6766   -1.8516    0.0000 H   0  0  0  0  0  0  0  0  0  0  0  0
    7.2974   -1.4255    0.0000 H   0  0  0  0  0  0  0  0  0  0  0  0
    7.9174   -2.0455    0.0000 H   0  0  0  0  0  0  0  0  0  0  0  0
    8.5374   -1.4255    0.0000 H   0  0  0  0  0  0  0  0  0  0  0  0
    8.5374    1.5745    0.0000 H   0  0  0  0  0  0  0  0  0  0  0  0
    7.9174    2.1945    0.0000 H   0  0  0  0  0  0  0  0  0  0  0  0
    7.2974    1.5745    0.0000 H   0  0  0  0  0  0  0  0  0  0  0  0
    5.6294    0.6114    0.0000 H   0  0  0  0  0  0  0  0  0  0  0  0
    4.7824    0.3845    0.0000 H   0  0  0  0  0  0  0  0  0  0  0  0
    5.0094   -0.4625    0.0000 H   0  0  0  0  0  0  0  0  0  0  0  0
    6.1718   -3.1148    0.0000 H   0  0  0  0  0  0  0  0  0  0  0  0
    4.3605    0.2516    0.0000 H   0  0  0  0  0  0  0  0  0  0  0  0
    8.4164    2.7297    0.0000 H   0  0  0  0  0  0  0  0  0  0  0  0
    7.6345    2.3330    0.0000 H   0  0  0  0  0  0  0  0  0  0  0  0
    8.0312    1.5510    0.0000 H   0  0  0  0  0  0  0  0  0  0  0  0
   10.5863    1.9331    0.0000 H   0  0  0  0  0  0  0  0  0  0  0  0
   10.3273   -0.7916    0.0000 H   0  0  0  0  0  0  0  0  0  0  0  0
    3.2972   -3.0837    0.0000 H   0  0  0  0  0  0  0  0  0  0  0  0
    3.5274   -3.9298    0.0000 H   0  0  0  0  0  0  0  0  0  0  0  0
    4.3734   -3.6996    0.0000 H   0  0  0  0  0  0  0  0  0  0  0  0
    4.2995   -3.6999    0.0000 H   0  0  0  0  0  0  0  0  0  0  0  0
    5.1473   -3.9235    0.0000 H   0  0  0  0  0  0  0  0  0  0  0  0
    5.3710   -3.0757    0.0000 H   0  0  0  0  0  0  0  0  0  0  0  0
   12.5673   -0.7916    0.0000 H   0  0  0  0  0  0  0  0  0  0  0  0
   10.8776    2.5250    0.0000 H   0  0  0  0  0  0  0  0  0  0  0  0
   12.7573   -1.1207    0.0000 H   0  0  0  0  0  0  0  0  0  0  0  0
    2.0000   -0.6900    0.0000 H   0  0  0  0  0  0  0  0  0  0  0  0
   10.3647   -2.7357    0.0000 H   0  0  0  0  0  0  0  0  0  0  0  0
   11.0549   -3.1342    0.0000 H   0  0  0  0  0  0  0  0  0  0  0  0
   11.6373   -3.0606    0.0000 H   0  0  0  0  0  0  0  0  0  0  0  0
   10.3601    4.3984    0.0000 H   0  0  0  0  0  0  0  0  0  0  0  0
   13.7573   -2.1945    0.0000 H   0  0  0  0  0  0  0  0  0  0  0  0
   12.1531    5.2496    0.0000 H   0  0  0  0  0  0  0  0  0  0  0  0
   11.4186    5.7284    0.0000 H   0  0  0  0  0  0  0  0  0  0  0  0
   10.9398    4.9938    0.0000 H   0  0  0  0  0  0  0  0  0  0  0  0
   11.3522    3.0368    0.0000 H   0  0  0  0  0  0  0  0  0  0  0  0
   12.0867    2.5580    0.0000 H   0  0  0  0  0  0  0  0  0  0  0  0
   12.5656    3.2925    0.0000 H   0  0  0  0  0  0  0  0  0  0  0  0
   12.9238    4.9387    0.0000 H   0  0  0  0  0  0  0  0  0  0  0  0
   14.4842    0.6305    0.0000 H   0  0  0  0  0  0  0  0  0  0  0  0
   14.2573    1.4774    0.0000 H   0  0  0  0  0  0  0  0  0  0  0  0
   13.4103    1.2505    0.0000 H   0  0  0  0  0  0  0  0  0  0  0  0
   11.9103   -5.4317    0.0000 H   0  0  0  0  0  0  0  0  0  0  0  0
   12.7573   -5.6586    0.0000 H   0  0  0  0  0  0  0  0  0  0  0  0
   12.9842   -4.8117    0.0000 H   0  0  0  0  0  0  0  0  0  0  0  0
 20  1  1  6  0  0  0
 34  1  1  1  0  0  0
 26  2  1  1  0  0  0
  2 78  1  0  0  0  0
  3 34  1  0  0  0  0
  3 42  1  0  0  0  0
  4 33  2  0  0  0  0
  5 35  1  0  0  0  0
  5 89  1  0  0  0  0
  6 36  2  0  0  0  0
 39  7  1  6  0  0  0
  7 46  1  0  0  0  0
 41  8  1  1  0  0  0
  8 94  1  0  0  0  0
 43  9  1  1  0  0  0
  9 49  1  0  0  0  0
 10 45  1  0  0  0  0
 10101  1  0  0  0  0
 11 46  2  0  0  0  0
 12 49  2  0  0  0  0
 13 14  1  0  0  0  0
 13 15  1  0  0  0  0
 13 18  1  0  0  0  0
 13 24  1  6  0  0  0
 14 17  1  0  0  0  0
 14 19  1  0  0  0  0
 14 25  1  1  0  0  0
 15 16  1  0  0  0  0
 15 23  1  0  0  0  0
 15 52  1  1  0  0  0
 16 21  1  0  0  0  0
 16 22  1  0  0  0  0
 16 27  1  1  0  0  0
 17 20  1  0  0  0  0
 17 26  1  0  0  0  0
 17 53  1  6  0  0  0
 18 20  1  0  0  0  0
 18 54  1  0  0  0  0
 18 55  1  0  0  0  0
 19 21  1  0  0  0  0
 19 56  1  0  0  0  0
 19 57  1  0  0  0  0
 20 58  1  0  0  0  0
 21 59  1  0  0  0  0
 21 60  1  0  0  0  0
 22 28  1  0  0  0  0
 22 31  1  0  0  0  0
 22 61  1  6  0  0  0
 23 29  1  0  0  0  0
 23 62  1  0  0  0  0
 23 63  1  0  0  0  0
 24 64  1  0  0  0  0
 24 65  1  0  0  0  0
 24 66  1  0  0  0  0
 25 67  1  0  0  0  0
 25 68  1  0  0  0  0
 25 69  1  0  0  0  0
 26 32  1  0  0  0  0
 26 33  1  0  0  0  0
 27 70  1  0  0  0  0
 27 71  1  0  0  0  0
 27 72  1  0  0  0  0
 28 29  2  0  0  0  0
 28 30  1  0  0  0  0
 29 73  1  0  0  0  0
 30 36  1  0  0  0  0
 30 37  1  0  0  0  0
 30 38  1  0  0  0  0
 31 35  2  0  0  0  0
 31 74  1  0  0  0  0
 32 75  1  0  0  0  0
 32 76  1  0  0  0  0
 32 77  1  0  0  0  0
 33 40  1  0  0  0  0
 34 39  1  0  0  0  0
 34 79  1  0  0  0  0
 35 36  1  0  0  0  0
 37 80  1  0  0  0  0
 37 81  1  0  0  0  0
 37 82  1  0  0  0  0
 38 83  1  0  0  0  0
 38 84  1  0  0  0  0
 38 85  1  0  0  0  0
 39 41  1  0  0  0  0
 39 86  1  0  0  0  0
 40 44  2  0  0  0  0
 40 87  1  0  0  0  0
 41 43  1  0  0  0  0
 41 88  1  0  0  0  0
 42 43  1  0  0  0  0
 42 90  1  0  0  0  0
 42 91  1  0  0  0  0
 43 92  1  0  0  0  0
 44 45  1  0  0  0  0
 44 93  1  0  0  0  0
 45 47  1  0  0  0  0
 45 48  1  0  0  0  0
 46 50  1  0  0  0  0
 47 95  1  0  0  0  0
 47 96  1  0  0  0  0
 47 97  1  0  0  0  0
 48 98  1  0  0  0  0
 48 99  1  0  0  0  0
 48100  1  0  0  0  0
 49 51  1  0  0  0  0
 50102  1  0  0  0  0
 50103  1  0  0  0  0
 50104  1  0  0  0  0
 51105  1  0  0  0  0
 51106  1  0  0  0  0
 51107  1  0  0  0  0
M  END
> <PUBCHEM_COMPOUND_CID>
5281325

> <PUBCHEM_COMPOUND_CANONICALIZED>
1

> <PUBCHEM_CACTVS_COMPLEXITY>
1560

> <PUBCHEM_CACTVS_HBOND_ACCEPTOR>
12

> <PUBCHEM_CACTVS_HBOND_DONOR>
4

> <PUBCHEM_CACTVS_ROTATABLE_BOND>
10

> <PUBCHEM_CACTVS_SUBSKEYS>
AAADcfB8PAAAAAAAAAAAAAAAAAAAAYAAAAA0QIEAAAAAAGCAAAAAGgAACAAAD1SwgAMCCAAABgCIAqDSCAIAAAAgIAAICAFAAEgRFBIAAQAiUAAFwAAPEYPK6PiPgAAAAAAAAACAAAQAACAAAYAADAAAAA==

> <PUBCHEM_IUPAC_OPENEYE_NAME>
[(3S,4S,5R,6S)-5-acetoxy-6-[[(8R,9R,10S,13R,14S,16R,17R)-17-[(E,1R)-1,5-dihydroxy-1,5-dimethyl-2-oxo-hex-3-enyl]-2-hydroxy-4,4,9,13,14-pentamethyl-3-oxo-7,8,10,11,12,15,16,17-octahydrocyclopenta[a]phenanthren-16-yl]oxy]-4-hydroxy-tetrahydropyran-3-yl] acetate

> <PUBCHEM_IUPAC_CAS_NAME>
acetic acid [(3S,4S,5R,6S)-5-acetyloxy-6-[[(8R,9R,10S,13R,14S,16R,17R)-17-[(E,2R)-2,6-dihydroxy-6-methyl-3-oxohept-4-en-2-yl]-2-hydroxy-4,4,9,13,14-pentamethyl-3-oxo-7,8,10,11,12,15,16,17-octahydrocyclopenta[a]phenanthren-16-yl]oxy]-4-hydroxy-3-oxanyl] ester

> <PUBCHEM_IUPAC_NAME>
[(3S,4S,5R,6S)-5-acetyloxy-6-[[(8R,9R,10S,13R,14S,16R,17R)-17-[(E,2R)-2,6-dihydroxy-6-methyl-3-oxohept-4-en-2-yl]-2-hydroxy-4,4,9,13,14-pentamethyl-3-oxo-7,8,10,11,12,15,16,17-octahydrocyclopenta[a]phenanthren-16-yl]oxy]-4-hydroxyoxan-3-yl] acetate

> <PUBCHEM_IUPAC_SYSTEMATIC_NAME>
[(3S,4S,5R,6S)-5-acetyloxy-4-oxidanyl-6-[[(8R,9R,10S,13R,14S,16R,17R)-4,4,9,13,14-pentamethyl-17-[(E,2R)-6-methyl-2,6-bis(oxidanyl)-3-oxidanylidene-hept-4-en-2-yl]-2-oxidanyl-3-oxidanylidene-7,8,10,11,12,15,16,17-octahydrocyclopenta[a]phenanthren-16-yl]oxy]oxan-3-yl] ethanoate

> <PUBCHEM_IUPAC_TRADITIONAL_NAME>
acetic acid [(3S,4S,5R,6S)-5-acetoxy-6-[[(8R,9R,10S,13R,14S,16R,17R)-17-[(E,1R)-1,5-dihydroxy-2-keto-1,5-dimethyl-hex-3-enyl]-2-hydroxy-3-keto-4,4,9,13,14-pentamethyl-7,8,10,11,12,15,16,17-octahydrocyclopenta[a]phenanthren-16-yl]oxy]-4-hydroxy-tetrahydropyran-3-yl] ester

> <PUBCHEM_IUPAC_INCHI>
InChI=1S/C39H56O12/c1-20(40)49-26-19-48-33(30(29(26)44)50-21(2)41)51-25-18-38(9)27-12-11-22-23(17-24(42)32(45)35(22,5)6)36(27,7)15-16-37(38,8)31(25)39(10,47)28(43)13-14-34(3,4)46/h11,13-14,17,23,25-27,29-31,33,42,44,46-47H,12,15-16,18-19H2,1-10H3/b14-13+/t23-,25-,26+,27-,29+,30-,31+,33+,36+,37-,38+,39+/m1/s1

> <PUBCHEM_IUPAC_INCHIKEY>
UODJOGKPOAZZHT-OCCINUARSA-N

> <PUBCHEM_XLOGP3_AA>
3.4

> <PUBCHEM_EXACT_MASS>
716.377177

> <PUBCHEM_MOLECULAR_FORMULA>
C39H56O12

> <PUBCHEM_MOLECULAR_WEIGHT>
716.85474

> <PUBCHEM_OPENEYE_CAN_SMILES>
CC(=O)OC1COC(C(C1O)OC(=O)C)OC2CC3(C4CC=C5C(C4(CCC3(C2C(C)(C(=O)C=CC(C)(C)O)O)C)C)C=C(C(=O)C5(C)C)O)C

> <PUBCHEM_OPENEYE_ISO_SMILES>
CC(=O)O[C@H]1CO[C@H]([C@@H]([C@H]1O)OC(=O)C)O[C@@H]2C[C@]3([C@@H]4CC=C5[C@H]([C@@]4(CC[C@@]3([C@H]2[C@](C)(C(=O)/C=C/C(C)(C)O)O)C)C)C=C(C(=O)C5(C)C)O)C

> <PUBCHEM_CACTVS_TPSA>
186

> <PUBCHEM_MONOISOTOPIC_WEIGHT>
716.377177

> <PUBCHEM_TOTAL_CHARGE>
0

> <PUBCHEM_HEAVY_ATOM_COUNT>
51

> <PUBCHEM_ATOM_DEF_STEREO_COUNT>
12

> <PUBCHEM_ATOM_UDEF_STEREO_COUNT>
0

> <PUBCHEM_BOND_DEF_STEREO_COUNT>
1

> <PUBCHEM_BOND_UDEF_STEREO_COUNT>
0

> <PUBCHEM_ISOTOPIC_ATOM_COUNT>
0

> <PUBCHEM_COMPONENT_COUNT>
1

> <PUBCHEM_CACTVS_TAUTO_COUNT>
17

> <PUBCHEM_COORDINATE_TYPE>
1
5
255

> <PUBCHEM_BONDANNOTATIONS>
20  1  6
34  1  5
13  24  6
14  25  5
15  52  5
16  27  5
17  53  6
26  2  5
22  61  6
39  7  6
41  8  5
43  9  5

$$$$

