5281741
  -OEChem-07051212592D

 54 56  0     1  0  0  0  0  0999 V2000
    5.5007   -0.5976    0.0000 O   0  0  0  0  0  0  0  0  0  0  0  0
    6.9149   -1.1152    0.0000 O   0  0  0  0  0  0  0  0  0  0  0  0
    2.3100   -1.0459    0.0000 O   0  0  0  0  0  0  0  0  0  0  0  0
    6.4666   -2.7882    0.0000 O   0  0  0  0  0  0  0  0  0  0  0  0
    3.7583    0.6272    0.0000 O   0  0  0  0  0  0  0  0  0  0  0  0
    4.9830   -0.5976    0.0000 O   0  0  0  0  0  0  0  0  0  0  0  0
    4.7663   -0.0254    0.0000 O   0  0  0  0  0  0  0  0  0  0  0  0
    7.5799    2.0812    0.0000 N   0  0  3  0  0  0  0  0  0  0  0  0
    5.2418   -1.5635    0.0000 C   0  0  1  0  0  0  0  0  0  0  0  0
    4.5347   -0.8564    0.0000 C   0  0  1  0  0  0  0  0  0  0  0  0
    4.5347   -2.2706    0.0000 C   0  0  0  0  0  0  0  0  0  0  0  0
    3.5688   -2.0118    0.0000 C   0  0  2  0  0  0  0  0  0  0  0  0
    6.2078   -1.8223    0.0000 C   0  0  0  0  0  0  0  0  0  0  0  0
    3.3100   -1.0459    0.0000 C   0  0  1  0  0  0  0  0  0  0  0  0
    3.4239   -0.5588    0.0000 C   0  0  0  0  0  0  0  0  0  0  0  0
    2.8617   -2.7189    0.0000 C   0  0  0  0  0  0  0  0  0  0  0  0
    2.6672   -0.2798    0.0000 C   0  0  0  0  0  0  0  0  0  0  0  0
    6.6561   -0.1493    0.0000 C   0  0  2  0  0  0  0  0  0  0  0  0
    4.0171   -0.3388    0.0000 C   0  0  0  0  0  0  0  0  0  0  0  0
    7.5799    0.2334    0.0000 C   0  0  0  0  0  0  0  0  0  0  0  0
    5.7322    0.2334    0.0000 C   0  0  0  0  0  0  0  0  0  0  0  0
    7.9626    1.1573    0.0000 C   0  0  0  0  0  0  0  0  0  0  0  0
    5.3495    1.1573    0.0000 C   0  0  0  0  0  0  0  0  0  0  0  0
    4.3836    1.4161    0.0000 C   0  0  0  0  0  0  0  0  0  0  0  0
    6.6561    2.4638    0.0000 C   0  0  0  0  0  0  0  0  0  0  0  0
    5.7322    2.0812    0.0000 C   0  0  0  0  0  0  0  0  0  0  0  0
    8.2870    2.7882    0.0000 C   0  0  0  0  0  0  0  0  0  0  0  0
    4.5347   -0.2364    0.0000 H   0  0  0  0  0  0  0  0  0  0  0  0
    4.2727   -2.8325    0.0000 H   0  0  0  0  0  0  0  0  0  0  0  0
    5.0426   -2.6262    0.0000 H   0  0  0  0  0  0  0  0  0  0  0  0
    2.9699   -1.8513    0.0000 H   0  0  0  0  0  0  0  0  0  0  0  0
    3.5844    0.0401    0.0000 H   0  0  0  0  0  0  0  0  0  0  0  0
    2.8251   -0.3983    0.0000 H   0  0  0  0  0  0  0  0  0  0  0  0
    3.2635   -1.1576    0.0000 H   0  0  0  0  0  0  0  0  0  0  0  0
    2.4233   -2.2805    0.0000 H   0  0  0  0  0  0  0  0  0  0  0  0
    2.4233   -3.1573    0.0000 H   0  0  0  0  0  0  0  0  0  0  0  0
    3.3001   -3.1573    0.0000 H   0  0  0  0  0  0  0  0  0  0  0  0
    3.1422    0.1187    0.0000 H   0  0  0  0  0  0  0  0  0  0  0  0
    2.2687    0.1951    0.0000 H   0  0  0  0  0  0  0  0  0  0  0  0
    2.1923   -0.6784    0.0000 H   0  0  0  0  0  0  0  0  0  0  0  0
    7.4184   -0.5252    0.0000 H   0  0  0  0  0  0  0  0  0  0  0  0
    7.6609   -0.3813    0.0000 H   0  0  0  0  0  0  0  0  0  0  0  0
    8.1946    0.1525    0.0000 H   0  0  0  0  0  0  0  0  0  0  0  0
    2.0000   -1.5828    0.0000 H   0  0  0  0  0  0  0  0  0  0  0  0
    8.4545    0.7798    0.0000 H   0  0  0  0  0  0  0  0  0  0  0  0
    8.4545    1.5347    0.0000 H   0  0  0  0  0  0  0  0  0  0  0  0
    4.6238    1.9876    0.0000 H   0  0  0  0  0  0  0  0  0  0  0  0
    3.8499    1.7317    0.0000 H   0  0  0  0  0  0  0  0  0  0  0  0
    7.0335    2.9557    0.0000 H   0  0  0  0  0  0  0  0  0  0  0  0
    6.2786    2.9557    0.0000 H   0  0  0  0  0  0  0  0  0  0  0  0
    5.2938    2.5196    0.0000 H   0  0  0  0  0  0  0  0  0  0  0  0
    8.7255    2.3498    0.0000 H   0  0  0  0  0  0  0  0  0  0  0  0
    8.7255    3.2267    0.0000 H   0  0  0  0  0  0  0  0  0  0  0  0
    7.8486    3.2267    0.0000 H   0  0  0  0  0  0  0  0  0  0  0  0
  9  1  1  6  0  0  0
  1 10  1  0  0  0  0
  2 13  1  0  0  0  0
  2 18  1  0  0  0  0
 14  3  1  1  0  0  0
  3 44  1  0  0  0  0
  4 13  2  0  0  0  0
  5 19  1  0  0  0  0
  5 24  1  0  0  0  0
  6 19  2  0  0  0  0
  7 21  2  0  0  0  0
  8 22  1  0  0  0  0
  8 25  1  0  0  0  0
  8 27  1  0  0  0  0
  9 10  1  0  0  0  0
  9 11  1  0  0  0  0
  9 13  1  0  0  0  0
 10 15  1  1  0  0  0
 10 28  1  0  0  0  0
 11 12  1  0  0  0  0
 11 29  1  0  0  0  0
 11 30  1  0  0  0  0
 12 14  1  0  0  0  0
 12 16  1  1  0  0  0
 12 31  1  0  0  0  0
 14 17  1  0  0  0  0
 14 19  1  0  0  0  0
 15 32  1  0  0  0  0
 15 33  1  0  0  0  0
 15 34  1  0  0  0  0
 16 35  1  0  0  0  0
 16 36  1  0  0  0  0
 16 37  1  0  0  0  0
 17 38  1  0  0  0  0
 17 39  1  0  0  0  0
 17 40  1  0  0  0  0
 18 20  1  0  0  0  0
 18 21  1  0  0  0  0
 18 41  1  6  0  0  0
 20 22  1  0  0  0  0
 20 42  1  0  0  0  0
 20 43  1  0  0  0  0
 21 23  1  0  0  0  0
 22 45  1  0  0  0  0
 22 46  1  0  0  0  0
 23 24  1  0  0  0  0
 23 26  2  0  0  0  0
 24 47  1  0  0  0  0
 24 48  1  0  0  0  0
 25 26  1  0  0  0  0
 25 49  1  0  0  0  0
 25 50  1  0  0  0  0
 26 51  1  0  0  0  0
 27 52  1  0  0  0  0
 27 53  1  0  0  0  0
 27 54  1  0  0  0  0
M  END
> <PUBCHEM_COMPOUND_CID>
5281741

> <PUBCHEM_COMPOUND_CANONICALIZED>
1

> <PUBCHEM_CACTVS_COMPLEXITY>
690

> <PUBCHEM_CACTVS_HBOND_ACCEPTOR>
8

> <PUBCHEM_CACTVS_HBOND_DONOR>
1

> <PUBCHEM_CACTVS_ROTATABLE_BOND>
0

> <PUBCHEM_CACTVS_SUBSKEYS>
AAADceB6OAAAAAAAAAAAAAAAEgAAAAAAAAAAAAAAAAAQAAAAAAAAHgAACAAADVThgAYCCAMABgCIAqDSCAKAAAAgAAAACAFIAEgBBBYAoQQGUAAH4ACLIYPc7HzOgAAAAAAAAAAAAAAAAAAAAAAAAAAAAA==

> <PUBCHEM_IUPAC_OPENEYE_NAME>
(1R,3'R,4R,6R,7R,11Z)-7-hydroxy-3',6,7,14-tetramethyl-spiro[2,9-dioxa-14-azabicyclo[9.5.1]heptadec-11-ene-4,2'-oxirane]-3,8,17-trione

> <PUBCHEM_IUPAC_CAS_NAME>
(1R,3'R,4R,6R,7R,11Z)-7-hydroxy-3',6,7,14-tetramethylspiro[2,9-dioxa-14-azabicyclo[9.5.1]heptadec-11-ene-4,2'-oxirane]-3,8,17-trione

> <PUBCHEM_IUPAC_NAME>
(1R,3'R,4R,6R,7R,11Z)-7-hydroxy-3',6,7,14-tetramethylspiro[2,9-dioxa-14-azabicyclo[9.5.1]heptadec-11-ene-4,2'-oxirane]-3,8,17-trione

> <PUBCHEM_IUPAC_SYSTEMATIC_NAME>
(1R,3'R,4R,6R,7R,11Z)-3',6,7,14-tetramethyl-7-oxidanyl-spiro[2,9-dioxa-14-azabicyclo[9.5.1]heptadec-11-ene-4,2'-oxirane]-3,8,17-trione

> <PUBCHEM_IUPAC_TRADITIONAL_NAME>
(1R,3'R,4R,6R,7R,11Z)-7-hydroxy-3',6,7,14-tetramethyl-spiro[2,9-dioxa-14-azabicyclo[9.5.1]heptadec-11-ene-4,2'-oxirane]-3,8,17-trione

> <PUBCHEM_IUPAC_INCHI>
InChI=1S/C19H27NO7/c1-11-9-19(12(2)27-19)17(23)26-14-6-8-20(4)7-5-13(15(14)21)10-25-16(22)18(11,3)24/h5,11-12,14,24H,6-10H2,1-4H3/b13-5-/t11-,12-,14-,18-,19-/m1/s1

> <PUBCHEM_IUPAC_INCHIKEY>
CZQLULNMKQAIQL-PFDMWMSASA-N

> <PUBCHEM_XLOGP3_AA>
0.6

> <PUBCHEM_EXACT_MASS>
381.178752

> <PUBCHEM_MOLECULAR_FORMULA>
C19H27NO7

> <PUBCHEM_MOLECULAR_WEIGHT>
381.42018

> <PUBCHEM_OPENEYE_CAN_SMILES>
CC1CC2(C(O2)C)C(=O)OC3CCN(CC=C(C3=O)COC(=O)C1(C)O)C

> <PUBCHEM_OPENEYE_ISO_SMILES>
C[C@@H]1C[C@@]2([C@H](O2)C)C(=O)O[C@@H]3CCN(C/C=C(\C3=O)/COC(=O)[C@]1(C)O)C

> <PUBCHEM_CACTVS_TPSA>
106

> <PUBCHEM_MONOISOTOPIC_WEIGHT>
381.178752

> <PUBCHEM_TOTAL_CHARGE>
0

> <PUBCHEM_HEAVY_ATOM_COUNT>
27

> <PUBCHEM_ATOM_DEF_STEREO_COUNT>
5

> <PUBCHEM_ATOM_UDEF_STEREO_COUNT>
0

> <PUBCHEM_BOND_DEF_STEREO_COUNT>
1

> <PUBCHEM_BOND_UDEF_STEREO_COUNT>
0

> <PUBCHEM_ISOTOPIC_ATOM_COUNT>
0

> <PUBCHEM_COMPONENT_COUNT>
1

> <PUBCHEM_CACTVS_TAUTO_COUNT>
1

> <PUBCHEM_COORDINATE_TYPE>
1
5
255

> <PUBCHEM_BONDANNOTATIONS>
9  1  6
10  15  5
12  16  5
18  41  6
14  3  5

$$$$

