265756
  -OEChem-07051213002D

 77 81  0     1  0  0  0  0  0999 V2000
    2.8680   -2.2975    0.0000 N   0  0  0  0  0  0  0  0  0  0  0  0
   10.4682    2.2317    0.0000 N   0  0  0  0  0  0  0  0  0  0  0  0
    6.3981   -0.2734    0.0000 C   0  0  1  0  0  0  0  0  0  0  0  0
    5.5320   -0.7734    0.0000 C   0  0  2  0  0  0  0  0  0  0  0  0
    5.5318    0.2271    0.0000 C   0  0  0  0  0  0  0  0  0  0  0  0
    7.2641   -0.7734    0.0000 C   0  0  2  0  0  0  0  0  0  0  0  0
    5.5320   -1.7734    0.0000 C   0  0  1  0  0  0  0  0  0  0  0  0
    8.1741   -0.2665    0.0000 C   0  0  1  0  0  0  0  0  0  0  0  0
    6.3820    0.7682    0.0000 C   0  0  0  0  0  0  0  0  0  0  0  0
    8.1821    0.7751    0.0000 C   0  0  2  0  0  0  0  0  0  0  0  0
    4.6381   -0.2387    0.0000 C   0  0  0  0  0  0  0  0  0  0  0  0
    7.2641   -1.7734    0.0000 C   0  0  0  0  0  0  0  0  0  0  0  0
    6.3981   -2.2734    0.0000 C   0  0  0  0  0  0  0  0  0  0  0  0
    4.6381   -2.3080    0.0000 C   0  0  0  0  0  0  0  0  0  0  0  0
    7.2800    1.2959    0.0000 C   0  0  0  0  0  0  0  0  0  0  0  0
    9.1702    1.0849    0.0000 C   0  0  2  0  0  0  0  0  0  0  0  0
    9.1572   -0.5915    0.0000 C   0  0  0  0  0  0  0  0  0  0  0  0
    3.7320   -0.7525    0.0000 C   0  0  0  0  0  0  0  0  0  0  0  0
    3.7320   -1.7942    0.0000 C   0  0  2  0  0  0  0  0  0  0  0  0
    9.7716    0.2420    0.0000 C   0  0  0  0  0  0  0  0  0  0  0  0
    8.1664   -1.2665    0.0000 C   0  0  0  0  0  0  0  0  0  0  0  0
    8.1898    1.7751    0.0000 C   0  0  0  0  0  0  0  0  0  0  0  0
    4.1482   -3.1798    0.0000 C   0  0  0  0  0  0  0  0  0  0  0  0
    5.1481   -3.1682    0.0000 C   0  0  0  0  0  0  0  0  0  0  0  0
    9.4881    2.0330    0.0000 C   0  0  2  0  0  0  0  0  0  0  0  0
    8.8260    2.7824    0.0000 C   0  0  0  0  0  0  0  0  0  0  0  0
    2.0000   -1.8008    0.0000 C   0  0  0  0  0  0  0  0  0  0  0  0
   10.7862    3.1798    0.0000 C   0  0  0  0  0  0  0  0  0  0  0  0
   11.1303    1.4822    0.0000 C   0  0  0  0  0  0  0  0  0  0  0  0
    5.7439    0.8097    0.0000 H   0  0  0  0  0  0  0  0  0  0  0  0
    4.9212    0.3347    0.0000 H   0  0  0  0  0  0  0  0  0  0  0  0
    7.9969   -1.2040    0.0000 H   0  0  0  0  0  0  0  0  0  0  0  0
    5.5386   -2.6233    0.0000 H   0  0  0  0  0  0  0  0  0  0  0  0
    6.1640    1.3486    0.0000 H   0  0  0  0  0  0  0  0  0  0  0  0
    5.7729    0.6527    0.0000 H   0  0  0  0  0  0  0  0  0  0  0  0
    5.0427    0.2311    0.0000 H   0  0  0  0  0  0  0  0  0  0  0  0
    4.2445    0.2403    0.0000 H   0  0  0  0  0  0  0  0  0  0  0  0
    7.4762   -2.3560    0.0000 H   0  0  0  0  0  0  0  0  0  0  0  0
    7.8747   -1.6657    0.0000 H   0  0  0  0  0  0  0  0  0  0  0  0
    5.9995   -2.7483    0.0000 H   0  0  0  0  0  0  0  0  0  0  0  0
    6.7966   -2.7483    0.0000 H   0  0  0  0  0  0  0  0  0  0  0  0
    7.6774    1.7719    0.0000 H   0  0  0  0  0  0  0  0  0  0  0  0
    6.8791    1.7688    0.0000 H   0  0  0  0  0  0  0  0  0  0  0  0
   10.0109    1.2103    0.0000 H   0  0  0  0  0  0  0  0  0  0  0  0
    8.9018   -1.1565    0.0000 H   0  0  0  0  0  0  0  0  0  0  0  0
    9.6922   -0.9049    0.0000 H   0  0  0  0  0  0  0  0  0  0  0  0
    3.5230   -0.1688    0.0000 H   0  0  0  0  0  0  0  0  0  0  0  0
    3.1212   -0.8586    0.0000 H   0  0  0  0  0  0  0  0  0  0  0  0
    3.7356   -2.4142    0.0000 H   0  0  0  0  0  0  0  0  0  0  0  0
   10.2292   -0.1763    0.0000 H   0  0  0  0  0  0  0  0  0  0  0  0
   10.2356    0.6532    0.0000 H   0  0  0  0  0  0  0  0  0  0  0  0
    7.5464   -1.2617    0.0000 H   0  0  0  0  0  0  0  0  0  0  0  0
    8.1616   -1.8865    0.0000 H   0  0  0  0  0  0  0  0  0  0  0  0
    8.7864   -1.2713    0.0000 H   0  0  0  0  0  0  0  0  0  0  0  0
    8.8098    1.7703    0.0000 H   0  0  0  0  0  0  0  0  0  0  0  0
    8.1946    2.3950    0.0000 H   0  0  0  0  0  0  0  0  0  0  0  0
    7.5699    1.7798    0.0000 H   0  0  0  0  0  0  0  0  0  0  0  0
    4.6148   -3.4844    0.0000 H   0  0  0  0  0  0  0  0  0  0  0  0
    5.4643   -3.7015    0.0000 H   0  0  0  0  0  0  0  0  0  0  0  0
    5.6814   -2.8520    0.0000 H   0  0  0  0  0  0  0  0  0  0  0  0
    3.6077   -2.8760    0.0000 H   0  0  0  0  0  0  0  0  0  0  0  0
    3.8444   -3.7202    0.0000 H   0  0  0  0  0  0  0  0  0  0  0  0
    4.6886   -3.4835    0.0000 H   0  0  0  0  0  0  0  0  0  0  0  0
    9.6853    2.6208    0.0000 H   0  0  0  0  0  0  0  0  0  0  0  0
    2.8703   -2.9175    0.0000 H   0  0  0  0  0  0  0  0  0  0  0  0
    9.2907    3.1929    0.0000 H   0  0  0  0  0  0  0  0  0  0  0  0
    8.4156    3.2471    0.0000 H   0  0  0  0  0  0  0  0  0  0  0  0
    8.3614    2.3719    0.0000 H   0  0  0  0  0  0  0  0  0  0  0  0
    2.3079   -1.2627    0.0000 H   0  0  0  0  0  0  0  0  0  0  0  0
    1.4619   -1.4929    0.0000 H   0  0  0  0  0  0  0  0  0  0  0  0
    1.6921   -2.3390    0.0000 H   0  0  0  0  0  0  0  0  0  0  0  0
   10.6656    1.0718    0.0000 H   0  0  0  0  0  0  0  0  0  0  0  0
   11.5408    1.0176    0.0000 H   0  0  0  0  0  0  0  0  0  0  0  0
   11.5949    1.8927    0.0000 H   0  0  0  0  0  0  0  0  0  0  0  0
   11.3740    2.9826    0.0000 H   0  0  0  0  0  0  0  0  0  0  0  0
   10.9833    3.7676    0.0000 H   0  0  0  0  0  0  0  0  0  0  0  0
   10.1984    3.3769    0.0000 H   0  0  0  0  0  0  0  0  0  0  0  0
 19  1  1  1  0  0  0
  1 27  1  0  0  0  0
  1 65  1  0  0  0  0
 25  2  1  6  0  0  0
  2 28  1  0  0  0  0
  2 29  1  0  0  0  0
  3  4  1  0  0  0  0
  3  5  1  1  0  0  0
  3  6  1  0  0  0  0
  3  9  1  0  0  0  0
  4  5  1  1  0  0  0
  4  7  1  0  0  0  0
  4 11  1  0  0  0  0
  5 30  1  0  0  0  0
  5 31  1  0  0  0  0
  6  8  1  0  0  0  0
  6 12  1  0  0  0  0
  6 32  1  1  0  0  0
  7 13  1  0  0  0  0
  7 14  1  0  0  0  0
  7 33  1  6  0  0  0
  8 10  1  0  0  0  0
  8 17  1  0  0  0  0
  8 21  1  6  0  0  0
  9 15  1  0  0  0  0
  9 34  1  0  0  0  0
  9 35  1  0  0  0  0
 10 15  1  0  0  0  0
 10 16  1  0  0  0  0
 10 22  1  1  0  0  0
 11 18  1  0  0  0  0
 11 36  1  0  0  0  0
 11 37  1  0  0  0  0
 12 13  1  0  0  0  0
 12 38  1  0  0  0  0
 12 39  1  0  0  0  0
 13 40  1  0  0  0  0
 13 41  1  0  0  0  0
 14 19  1  0  0  0  0
 14 23  1  0  0  0  0
 14 24  1  0  0  0  0
 15 42  1  0  0  0  0
 15 43  1  0  0  0  0
 16 20  1  0  0  0  0
 16 25  1  0  0  0  0
 16 44  1  6  0  0  0
 17 20  1  0  0  0  0
 17 45  1  0  0  0  0
 17 46  1  0  0  0  0
 18 19  1  0  0  0  0
 18 47  1  0  0  0  0
 18 48  1  0  0  0  0
 19 49  1  0  0  0  0
 20 50  1  0  0  0  0
 20 51  1  0  0  0  0
 21 52  1  0  0  0  0
 21 53  1  0  0  0  0
 21 54  1  0  0  0  0
 22 55  1  0  0  0  0
 22 56  1  0  0  0  0
 22 57  1  0  0  0  0
 23 61  1  0  0  0  0
 23 62  1  0  0  0  0
 23 63  1  0  0  0  0
 24 58  1  0  0  0  0
 24 59  1  0  0  0  0
 24 60  1  0  0  0  0
 25 26  1  0  0  0  0
 25 64  1  0  0  0  0
 26 66  1  0  0  0  0
 26 67  1  0  0  0  0
 26 68  1  0  0  0  0
 27 69  1  0  0  0  0
 27 70  1  0  0  0  0
 27 71  1  0  0  0  0
 28 75  1  0  0  0  0
 28 76  1  0  0  0  0
 28 77  1  0  0  0  0
 29 72  1  0  0  0  0
 29 73  1  0  0  0  0
 29 74  1  0  0  0  0
M  END
> <PUBCHEM_COMPOUND_CID>
265756

> <PUBCHEM_COMPOUND_CANONICALIZED>
1

> <PUBCHEM_CACTVS_COMPLEXITY>
684

> <PUBCHEM_CACTVS_HBOND_ACCEPTOR>
2

> <PUBCHEM_CACTVS_HBOND_DONOR>
1

> <PUBCHEM_CACTVS_ROTATABLE_BOND>
3

> <PUBCHEM_CACTVS_SUBSKEYS>
AAADcfB7AAAAAAAAAAAAAAAAGAAAAYAAAAAwYMAABgAAAGDAAAAAHAAQAAAADyjBAAQCAAPAAAAAAAAAAAAAAAAAAAAAAIAIAAAAAAIAgAAEAAAAEAAAAAEQgMAPgAAAAAAAAACQAASAACQAAQAACAAAAA==

> <PUBCHEM_IUPAC_INCHI>
InChI=1S/C27H48N2/c1-18(29(7)8)19-11-13-25(5)21-10-9-20-23(2,3)22(28-6)12-14-26(20)17-27(21,26)16-15-24(19,25)4/h18-22,28H,9-17H2,1-8H3/t18-,19+,20-,21-,22-,24+,25-,26+,27-/m0/s1

> <PUBCHEM_IUPAC_INCHIKEY>
PLKVWYPBRRRIQG-QGSMACLHSA-N

> <PUBCHEM_XLOGP3_AA>
7

> <PUBCHEM_EXACT_MASS>
400.38175

> <PUBCHEM_MOLECULAR_FORMULA>
C27H48N2

> <PUBCHEM_MOLECULAR_WEIGHT>
400.68342

> <PUBCHEM_OPENEYE_CAN_SMILES>
CC(C1CCC2(C1(CCC34C2CCC5C3(C4)CCC(C5(C)C)NC)C)C)N(C)C

> <PUBCHEM_OPENEYE_ISO_SMILES>
C[C@@H]([C@H]1CC[C@@]2([C@@]1(CC[C@]34[C@H]2CC[C@@H]5[C@]3(C4)CC[C@@H](C5(C)C)NC)C)C)N(C)C

> <PUBCHEM_CACTVS_TPSA>
15.3

> <PUBCHEM_MONOISOTOPIC_WEIGHT>
400.38175

> <PUBCHEM_TOTAL_CHARGE>
0

> <PUBCHEM_HEAVY_ATOM_COUNT>
29

> <PUBCHEM_ATOM_DEF_STEREO_COUNT>
9

> <PUBCHEM_ATOM_UDEF_STEREO_COUNT>
0

> <PUBCHEM_BOND_DEF_STEREO_COUNT>
0

> <PUBCHEM_BOND_UDEF_STEREO_COUNT>
0

> <PUBCHEM_ISOTOPIC_ATOM_COUNT>
0

> <PUBCHEM_COMPONENT_COUNT>
1

> <PUBCHEM_CACTVS_TAUTO_COUNT>
1

> <PUBCHEM_COORDINATE_TYPE>
1
5
255

> <PUBCHEM_BONDANNOTATIONS>
19  1  5
10  22  5
16  44  6
25  2  6
3  5  5
4  5  5
6  32  5
7  33  6
8  21  6

$$$$

