68368
  -OEChem-07051213072D

 30 32  0     1  0  0  0  0  0999 V2000
    5.9405    0.1702    0.0000 O   0  0  0  0  0  0  0  0  0  0  0  0
    3.4026    0.6746    0.0000 O   0  0  0  0  0  0  0  0  0  0  0  0
    4.6844    2.4324    0.0000 O   0  0  0  0  0  0  0  0  0  0  0  0
    7.6651    1.3482    0.0000 O   0  0  0  0  0  0  0  0  0  0  0  0
    4.6783   -1.0877    0.0000 N   0  0  0  0  0  0  0  0  0  0  0  0
    4.6783   -2.6972    0.0000 N   0  0  0  0  0  0  0  0  0  0  0  0
    2.8660   -0.8925    0.0000 N   0  0  0  0  0  0  0  0  0  0  0  0
    2.0000   -2.3925    0.0000 N   0  0  0  0  0  0  0  0  0  0  0  0
    4.4026    0.6728    0.0000 C   0  0  1  0  0  0  0  0  0  0  0  0
    4.9889   -0.1372    0.0000 C   0  0  1  0  0  0  0  0  0  0  0  0
    4.9917    1.4808    0.0000 C   0  0  1  0  0  0  0  0  0  0  0  0
    5.9422    1.1702    0.0000 C   0  0  1  0  0  0  0  0  0  0  0  0
    6.7523    1.7566    0.0000 C   0  0  0  0  0  0  0  0  0  0  0  0
    3.7320   -1.3924    0.0000 C   0  0  0  0  0  0  0  0  0  0  0  0
    5.2619   -1.8924    0.0000 C   0  0  0  0  0  0  0  0  0  0  0  0
    3.7320   -2.3925    0.0000 C   0  0  0  0  0  0  0  0  0  0  0  0
    2.8660   -2.8925    0.0000 C   0  0  0  0  0  0  0  0  0  0  0  0
    2.0000   -1.3924    0.0000 C   0  0  0  0  0  0  0  0  0  0  0  0
    4.1220    1.2257    0.0000 H   0  0  0  0  0  0  0  0  0  0  0  0
    5.4266   -0.5764    0.0000 H   0  0  0  0  0  0  0  0  0  0  0  0
    5.4309    1.9185    0.0000 H   0  0  0  0  0  0  0  0  0  0  0  0
    6.4942    0.8877    0.0000 H   0  0  0  0  0  0  0  0  0  0  0  0
    7.0999    2.2700    0.0000 H   0  0  0  0  0  0  0  0  0  0  0  0
    6.3070    2.1880    0.0000 H   0  0  0  0  0  0  0  0  0  0  0  0
    3.0935    1.2120    0.0000 H   0  0  0  0  0  0  0  0  0  0  0  0
    5.1000    2.8925    0.0000 H   0  0  0  0  0  0  0  0  0  0  0  0
    5.8819   -1.8924    0.0000 H   0  0  0  0  0  0  0  0  0  0  0  0
    8.1674    1.7118    0.0000 H   0  0  0  0  0  0  0  0  0  0  0  0
    2.8660   -3.5124    0.0000 H   0  0  0  0  0  0  0  0  0  0  0  0
    1.4631   -1.0824    0.0000 H   0  0  0  0  0  0  0  0  0  0  0  0
  1 10  1  0  0  0  0
  1 12  1  0  0  0  0
  9  2  1  6  0  0  0
  2 25  1  0  0  0  0
 11  3  1  6  0  0  0
  3 26  1  0  0  0  0
  4 13  1  0  0  0  0
  4 28  1  0  0  0  0
 10  5  1  1  0  0  0
  5 14  1  0  0  0  0
  5 15  1  0  0  0  0
  6 15  2  0  0  0  0
  6 16  1  0  0  0  0
  7 14  2  0  0  0  0
  7 18  1  0  0  0  0
  8 17  1  0  0  0  0
  8 18  2  0  0  0  0
  9 10  1  0  0  0  0
  9 11  1  0  0  0  0
  9 19  1  0  0  0  0
 10 20  1  0  0  0  0
 11 12  1  0  0  0  0
 11 21  1  0  0  0  0
 12 13  1  1  0  0  0
 12 22  1  0  0  0  0
 13 23  1  0  0  0  0
 13 24  1  0  0  0  0
 14 16  1  0  0  0  0
 15 27  1  0  0  0  0
 16 17  2  0  0  0  0
 17 29  1  0  0  0  0
 18 30  1  0  0  0  0
M  END
> <PUBCHEM_COMPOUND_CID>
68368

> <PUBCHEM_COMPOUND_CANONICALIZED>
1

> <PUBCHEM_CACTVS_COMPLEXITY>
308

> <PUBCHEM_CACTVS_HBOND_ACCEPTOR>
7

> <PUBCHEM_CACTVS_HBOND_DONOR>
3

> <PUBCHEM_CACTVS_ROTATABLE_BOND>
2

> <PUBCHEM_CACTVS_SUBSKEYS>
AAADccBzuAAAAAAAAAAAAAAAAAAAAWJAAAAsAAAAAAAAAFgB+AAAHgAACAAACBzhlwYt8L8MFgCgARZnZACAgC0REqABUCA4dBCDWIJAyEAeRAgPAALTACDwMAIAAAAAAAAAAAAAAAAAAAAAAAAAAAAAAA==

> <PUBCHEM_IUPAC_OPENEYE_NAME>
(2R,3S,4R,5R)-2-(hydroxymethyl)-5-purin-9-yl-tetrahydrofuran-3,4-diol

> <PUBCHEM_IUPAC_CAS_NAME>
(2R,3S,4R,5R)-2-(hydroxymethyl)-5-(9-purinyl)oxolane-3,4-diol

> <PUBCHEM_IUPAC_NAME>
(2R,3S,4R,5R)-2-(hydroxymethyl)-5-purin-9-yloxolane-3,4-diol

> <PUBCHEM_IUPAC_SYSTEMATIC_NAME>
(2R,3S,4R,5R)-2-(hydroxymethyl)-5-purin-9-yl-oxolane-3,4-diol

> <PUBCHEM_IUPAC_TRADITIONAL_NAME>
(2R,3S,4R,5R)-2-methylol-5-purin-9-yl-tetrahydrofuran-3,4-diol

> <PUBCHEM_IUPAC_INCHI>
InChI=1S/C10H12N4O4/c15-2-6-7(16)8(17)10(18-6)14-4-13-5-1-11-3-12-9(5)14/h1,3-4,6-8,10,15-17H,2H2/t6-,7-,8-,10-/m1/s1

> <PUBCHEM_IUPAC_INCHIKEY>
MRWXACSTFXYYMV-FDDDBJFASA-N

> <PUBCHEM_XLOGP3>
-0.7

> <PUBCHEM_EXACT_MASS>
252.085855

> <PUBCHEM_MOLECULAR_FORMULA>
C10H12N4O4

> <PUBCHEM_MOLECULAR_WEIGHT>
252.22668

> <PUBCHEM_OPENEYE_CAN_SMILES>
C1=C2C(=NC=N1)N(C=N2)C3C(C(C(O3)CO)O)O

> <PUBCHEM_OPENEYE_ISO_SMILES>
C1=C2C(=NC=N1)N(C=N2)[C@H]3[C@@H]([C@@H]([C@H](O3)CO)O)O

> <PUBCHEM_CACTVS_TPSA>
114

> <PUBCHEM_MONOISOTOPIC_WEIGHT>
252.085855

> <PUBCHEM_TOTAL_CHARGE>
0

> <PUBCHEM_HEAVY_ATOM_COUNT>
18

> <PUBCHEM_ATOM_DEF_STEREO_COUNT>
4

> <PUBCHEM_ATOM_UDEF_STEREO_COUNT>
0

> <PUBCHEM_BOND_DEF_STEREO_COUNT>
0

> <PUBCHEM_BOND_UDEF_STEREO_COUNT>
0

> <PUBCHEM_ISOTOPIC_ATOM_COUNT>
0

> <PUBCHEM_COMPONENT_COUNT>
1

> <PUBCHEM_CACTVS_TAUTO_COUNT>
1

> <PUBCHEM_COORDINATE_TYPE>
1
5
255

> <PUBCHEM_BONDANNOTATIONS>
12  13  5
14  16  8
16  17  8
9  2  6
11  3  6
10  5  5
5  14  8
5  15  8
6  15  8
6  16  8
7  14  8
7  18  8
8  17  8
8  18  8

$$$$

