   Color/Form

     * OFF-WHITE CRYSTALS
     * White solid

   from [1]HSDB

   Melting Point
        119.5 to 121.5 deg C
   from [2]HSDB

   Corrosivity
        CORROSIVE
   from [3]HSDB

   Density/Specific Gravity
        1.41 g/cu cm
   from [4]HSDB

   Octanol/Water Partition Coefficient
        log Kow = 0.772
   from [5]HSDB

   Solubilities

     * In water, 1,400 mg/L at 25 deg C
     * 83.7 g/L in acetone, 8.8 g/L in hexane

   from [6]HSDB

   Spectral Properties
        UV absorption spectra of oxycarboxin in aqueous solution shows one
   prominent band centered at 245 nm.
   from [7]HSDB

   Vapor Pressure
        4.2X10-8 mm Hg
   from [8]HSDB

   Other Chemical/Physical Properties

     * Henry's Law constant = 1.1X10-11 atm-cu m/mol at 25 deg C (est)
     * Hydroxyl radical reaction rate constant = 1.3X10-10 cu cm/molec-sec
       at 25 deg C (est)

   from [9]HSDB

   Computed Properties
   Molecular Weight                  267.30092 [g/mol]
   Molecular Formula                 C[12]H[13]NO[4]S
   XLogP3                            0.7
   H-Bond Donor                      1
   H-Bond Acceptor                   4
   Rotatable Bond Count              2
   Tautomer Count                    2
   Exact Mass                        267.056529
   MonoIsotopic Mass                 267.056529
   Topological Polar Surface Area    80.8
   Heavy Atom Count                  18
   Formal Charge                     0
   Complexity                        455
   Isotope Atom Count                0
   Defined Atom Stereocenter Count   0
   Undefined Atom Stereocenter Count 0
   Defined Bond Stereocenter Count   0
   Undefined Bond Stereocenter Count 0
   Covalently-Bonded Unit Count      1
   Feature 3D Acceptor Count         4
   Feature 3D Donor Count            1
   Feature 3D Ring Count             2
   Effective Rotor Count             3.6
   Conformer Sampling RMSD           0.6
   CID Conformer Count               [10]9

References

   1. http://toxnet.nlm.nih.gov/cgi-bin/sis/search/r?dbs+hsdb:@term+@rn+@rel+5259-88-1
   2. http://toxnet.nlm.nih.gov/cgi-bin/sis/search/r?dbs+hsdb:@term+@rn+@rel+5259-88-1
   3. http://toxnet.nlm.nih.gov/cgi-bin/sis/search/r?dbs+hsdb:@term+@rn+@rel+5259-88-1
   4. http://toxnet.nlm.nih.gov/cgi-bin/sis/search/r?dbs+hsdb:@term+@rn+@rel+5259-88-1
   5. http://toxnet.nlm.nih.gov/cgi-bin/sis/search/r?dbs+hsdb:@term+@rn+@rel+5259-88-1
   6. http://toxnet.nlm.nih.gov/cgi-bin/sis/search/r?dbs+hsdb:@term+@rn+@rel+5259-88-1
   7. http://toxnet.nlm.nih.gov/cgi-bin/sis/search/r?dbs+hsdb:@term+@rn+@rel+5259-88-1
   8. http://toxnet.nlm.nih.gov/cgi-bin/sis/search/r?dbs+hsdb:@term+@rn+@rel+5259-88-1
   9. http://toxnet.nlm.nih.gov/cgi-bin/sis/search/r?dbs+hsdb:@term+@rn+@rel+5259-88-1
  10. http://pubchem.ncbi.nlm.nih.gov/vw3d/vw3d.cgi?cid=21330
