   Color/Form
        WHITE CRYSTALS
   from [1]HSDB

   Melting Point
        113 deg C
   from [2]HSDB

   Octanol/Water Partition Coefficient
        log Kow = 3.32
   from [3]HSDB

   Solubilities

     * INSOL IN WATER; INSOL IN KEROSENE; IN ACETONE 46% & DIISOBUTYL
       KETONE 19%; IN DIMETHYLFORMAMIDE 64% & ISOPHORONE 33%; IN XYLENE
       LESS THAN 2.5%
     * Insoluble in water and kerosene; soluble in acetone and
       dimethylformamide
     * In water, 50 mg/L at 25 deg C /Estimated/

   from [4]HSDB

   Vapor Pressure
        1.4X10-3 mm Hg at 25 deg C /Estimated/
   from [5]HSDB

   Other Chemical/Physical Properties

     * BP: 110-113 deg C /Technical/
     * Henry's Law constant = 1.2X10-8 atm cu m/mol at 25 deg C
       /Estimated/
     * Hydroxyl radical reaction rate constant = 9.4X10-12 cu cm/molec sec
       at 25 deg C /Estimated/

   from [6]HSDB

   Computed Properties
   Molecular Weight                  220.05268 [g/mol]
   Molecular Formula                 C[8]H[7]Cl[2]NO[2]
   XLogP3                            3.5
   H-Bond Donor                      1
   H-Bond Acceptor                   2
   Rotatable Bond Count              2
   Tautomer Count                    2
   Exact Mass                        218.985384
   MonoIsotopic Mass                 218.985384
   Topological Polar Surface Area    38.3
   Heavy Atom Count                  13
   Formal Charge                     0
   Complexity                        189
   Isotope Atom Count                0
   Defined Atom Stereocenter Count   0
   Undefined Atom Stereocenter Count 0
   Defined Bond Stereocenter Count   0
   Undefined Bond Stereocenter Count 0
   Covalently-Bonded Unit Count      1
   Feature 3D Acceptor Count         1
   Feature 3D Donor Count            1
   Feature 3D Ring Count             1
   Effective Rotor Count             3
   Conformer Sampling RMSD           0.6
   CID Conformer Count               [7]10

References

   1. http://toxnet.nlm.nih.gov/cgi-bin/sis/search/r?dbs+hsdb:@term+@rn+@rel+1918-18-9
   2. http://toxnet.nlm.nih.gov/cgi-bin/sis/search/r?dbs+hsdb:@term+@rn+@rel+1918-18-9
   3. http://toxnet.nlm.nih.gov/cgi-bin/sis/search/r?dbs+hsdb:@term+@rn+@rel+1918-18-9
   4. http://toxnet.nlm.nih.gov/cgi-bin/sis/search/r?dbs+hsdb:@term+@rn+@rel+1918-18-9
   5. http://toxnet.nlm.nih.gov/cgi-bin/sis/search/r?dbs+hsdb:@term+@rn+@rel+1918-18-9
   6. http://toxnet.nlm.nih.gov/cgi-bin/sis/search/r?dbs+hsdb:@term+@rn+@rel+1918-18-9
   7. http://pubchem.ncbi.nlm.nih.gov/vw3d/vw3d.cgi?cid=15969
