   Color/Form

     * Orange needles from methyl carbonate/methanol
     * Slender orange needles

   from [1]HSDB

   Melting Point
        190-192 deg C
   from [2]HSDB

   Octanol/Water Partition Coefficient
        log Kow = 4.75 (est)
   from [3]HSDB

   Solubilities
        In water, 6.8X10-2 mg/L at 25 deg C (est)
   from [4]HSDB

   Vapor Pressure
        5.52X10-8 mm Hg at 25 deg C (est)
   from [5]HSDB

   Other Chemical/Physical Properties

     * MP: 196.7 to 197.5 deg C
     * When heated to decomposition ... emits toxic fumes of NOx
     * Henry's Law constant = 2.45X10-8 atm-cu m/mol at 25 deg C (est)

   from [6]HSDB

   Computed Properties
   Molecular Weight                  247.24816 [g/mol]
   Molecular Formula                 C[16]H[9]NO[2]
   XLogP3-AA                         4.9
   H-Bond Donor                      0
   H-Bond Acceptor                   2
   Rotatable Bond Count              0
   Exact Mass                        247.063329
   MonoIsotopic Mass                 247.063329
   Topological Polar Surface Area    45.8
   Heavy Atom Count                  19
   Formal Charge                     0
   Complexity                        377
   Isotope Atom Count                0
   Defined Atom Stereocenter Count   0
   Undefined Atom Stereocenter Count 0
   Defined Bond Stereocenter Count   0
   Undefined Bond Stereocenter Count 0
   Covalently-Bonded Unit Count      1
   Feature 3D Acceptor Count         2
   Feature 3D Anion Count            1
   Feature 3D Ring Count             4
   Effective Rotor Count             1
   Conformer Sampling RMSD           0.6
   CID Conformer Count               [7]1

References

   1. http://toxnet.nlm.nih.gov/cgi-bin/sis/search/r?dbs+hsdb:@term+@rn+@rel+57835-92-4
   2. http://toxnet.nlm.nih.gov/cgi-bin/sis/search/r?dbs+hsdb:@term+@rn+@rel+57835-92-4
   3. http://toxnet.nlm.nih.gov/cgi-bin/sis/search/r?dbs+hsdb:@term+@rn+@rel+57835-92-4
   4. http://toxnet.nlm.nih.gov/cgi-bin/sis/search/r?dbs+hsdb:@term+@rn+@rel+57835-92-4
   5. http://toxnet.nlm.nih.gov/cgi-bin/sis/search/r?dbs+hsdb:@term+@rn+@rel+57835-92-4
   6. http://toxnet.nlm.nih.gov/cgi-bin/sis/search/r?dbs+hsdb:@term+@rn+@rel+57835-92-4
   7. http://pubchem.ncbi.nlm.nih.gov/vw3d/vw3d.cgi?cid=62134
