441584
  -OEChem-07051212552D

 46 49  0     1  0  0  0  0  0999 V2000
    9.0501   -2.0448    0.0000 O   0  0  0  0  0  0  0  0  0  0  0  0
    4.6497    2.5349    0.0000 O   0  0  0  0  0  0  0  0  0  0  0  0
    2.8680    1.5244    0.0000 O   0  0  0  0  0  0  0  0  0  0  0  0
    2.8680   -0.5239    0.0000 O   0  0  0  0  0  0  0  0  0  0  0  0
    7.2641    1.0003    0.0000 N   0  0  3  0  0  0  0  0  0  0  0  0
    6.3981   -0.4997    0.0000 C   0  0  2  0  0  0  0  0  0  0  0  0
    7.2641    0.0003    0.0000 C   0  0  1  0  0  0  0  0  0  0  0  0
    6.2847    0.1038    0.0000 C   0  0  0  0  0  0  0  0  0  0  0  0
    6.6847    0.7967    0.0000 C   0  0  0  0  0  0  0  0  0  0  0  0
    8.1741   -0.5066    0.0000 C   0  0  0  0  0  0  0  0  0  0  0  0
    5.5320    0.0003    0.0000 C   0  0  0  0  0  0  0  0  0  0  0  0
    6.3981    1.5003    0.0000 C   0  0  0  0  0  0  0  0  0  0  0  0
    6.3820   -1.5412    0.0000 C   0  0  0  0  0  0  0  0  0  0  0  0
    5.5320    1.0003    0.0000 C   0  0  0  0  0  0  0  0  0  0  0  0
    8.1821   -1.5482    0.0000 C   0  0  2  0  0  0  0  0  0  0  0  0
    7.2800   -2.0690    0.0000 C   0  0  0  0  0  0  0  0  0  0  0  0
    4.6381   -0.5344    0.0000 C   0  0  0  0  0  0  0  0  0  0  0  0
    4.6381    1.5349    0.0000 C   0  0  0  0  0  0  0  0  0  0  0  0
    3.7320   -0.0206    0.0000 C   0  0  0  0  0  0  0  0  0  0  0  0
    3.7320    1.0211    0.0000 C   0  0  0  0  0  0  0  0  0  0  0  0
    9.0539   -3.0448    0.0000 C   0  0  0  0  0  0  0  0  0  0  0  0
    3.7895    3.0448    0.0000 C   0  0  0  0  0  0  0  0  0  0  0  0
    2.0000    1.0278    0.0000 C   0  0  0  0  0  0  0  0  0  0  0  0
    8.0002    0.4253    0.0000 H   0  0  0  0  0  0  0  0  0  0  0  0
    5.8575    0.5532    0.0000 H   0  0  0  0  0  0  0  0  0  0  0  0
    5.7327   -0.1785    0.0000 H   0  0  0  0  0  0  0  0  0  0  0  0
    6.6532    1.4159    0.0000 H   0  0  0  0  0  0  0  0  0  0  0  0
    6.0819    0.9419    0.0000 H   0  0  0  0  0  0  0  0  0  0  0  0
    8.7858   -0.6080    0.0000 H   0  0  0  0  0  0  0  0  0  0  0  0
    8.3786    0.0787    0.0000 H   0  0  0  0  0  0  0  0  0  0  0  0
    6.7966    1.9752    0.0000 H   0  0  0  0  0  0  0  0  0  0  0  0
    5.9995    1.9752    0.0000 H   0  0  0  0  0  0  0  0  0  0  0  0
    5.8415   -1.8450    0.0000 H   0  0  0  0  0  0  0  0  0  0  0  0
    8.7173   -1.2351    0.0000 H   0  0  0  0  0  0  0  0  0  0  0  0
    7.2777   -2.6890    0.0000 H   0  0  0  0  0  0  0  0  0  0  0  0
    4.6453   -1.1544    0.0000 H   0  0  0  0  0  0  0  0  0  0  0  0
    8.4339   -3.0472    0.0000 H   0  0  0  0  0  0  0  0  0  0  0  0
    9.0563   -3.6648    0.0000 H   0  0  0  0  0  0  0  0  0  0  0  0
    9.6739   -3.0424    0.0000 H   0  0  0  0  0  0  0  0  0  0  0  0
    2.8703   -1.1439    0.0000 H   0  0  0  0  0  0  0  0  0  0  0  0
    4.1057    3.5782    0.0000 H   0  0  0  0  0  0  0  0  0  0  0  0
    3.2562    3.3610    0.0000 H   0  0  0  0  0  0  0  0  0  0  0  0
    3.4733    2.5115    0.0000 H   0  0  0  0  0  0  0  0  0  0  0  0
    1.6921    1.5659    0.0000 H   0  0  0  0  0  0  0  0  0  0  0  0
    1.4619    0.7198    0.0000 H   0  0  0  0  0  0  0  0  0  0  0  0
    2.3079    0.4896    0.0000 H   0  0  0  0  0  0  0  0  0  0  0  0
 15  1  1  1  0  0  0
  1 21  1  0  0  0  0
  2 18  1  0  0  0  0
  2 22  1  0  0  0  0
  3 20  1  0  0  0  0
  3 23  1  0  0  0  0
  4 19  1  0  0  0  0
  4 40  1  0  0  0  0
  5  7  1  0  0  0  0
  5  9  1  0  0  0  0
  5 12  1  0  0  0  0
  6  7  1  0  0  0  0
  6  8  1  0  0  0  0
  6 11  1  0  0  0  0
  6 13  1  6  0  0  0
  7 10  1  0  0  0  0
  7 24  1  1  0  0  0
  8  9  1  0  0  0  0
  8 25  1  0  0  0  0
  8 26  1  0  0  0  0
  9 27  1  0  0  0  0
  9 28  1  0  0  0  0
 10 15  1  0  0  0  0
 10 29  1  0  0  0  0
 10 30  1  0  0  0  0
 11 14  1  0  0  0  0
 11 17  2  0  0  0  0
 12 14  1  0  0  0  0
 12 31  1  0  0  0  0
 12 32  1  0  0  0  0
 13 16  2  0  0  0  0
 13 33  1  0  0  0  0
 14 18  2  0  0  0  0
 15 16  1  0  0  0  0
 15 34  1  0  0  0  0
 16 35  1  0  0  0  0
 17 19  1  0  0  0  0
 17 36  1  0  0  0  0
 18 20  1  0  0  0  0
 19 20  2  0  0  0  0
 21 37  1  0  0  0  0
 21 38  1  0  0  0  0
 21 39  1  0  0  0  0
 22 41  1  0  0  0  0
 22 42  1  0  0  0  0
 22 43  1  0  0  0  0
 23 44  1  0  0  0  0
 23 45  1  0  0  0  0
 23 46  1  0  0  0  0
M  END
> <PUBCHEM_COMPOUND_CID>
441584

> <PUBCHEM_COMPOUND_CANONICALIZED>
1

> <PUBCHEM_CACTVS_COMPLEXITY>
484

> <PUBCHEM_CACTVS_HBOND_ACCEPTOR>
5

> <PUBCHEM_CACTVS_HBOND_DONOR>
1

> <PUBCHEM_CACTVS_ROTATABLE_BOND>
3

> <PUBCHEM_CACTVS_SUBSKEYS>
AAADceB6OAAAAAAAAAAAAAAAAAAAAWAAAAA8QIAABYAAAECxAAAAHgAACAAADjzhmAYyBoMABgCAAiBCAACCCAAgIAAIiAAOjIgNJyKGsRuEcCtnwBWLuAew8P8PoAABCAAYQABAAAIQADCAAAAAAAAAAA==

> <PUBCHEM_IUPAC_INCHI>
InChI=1S/C18H23NO4/c1-21-11-4-5-18-6-7-19(15(18)8-11)10-12-13(18)9-14(20)17(23-3)16(12)22-2/h4-5,9,11,15,20H,6-8,10H2,1-3H3/t11-,15+,18+/m0/s1

> <PUBCHEM_IUPAC_INCHIKEY>
FADGQBPUPGSTJB-BKGUAONASA-N

> <PUBCHEM_XLOGP3_AA>
2

> <PUBCHEM_EXACT_MASS>
317.162708

> <PUBCHEM_MOLECULAR_FORMULA>
C18H23NO4

> <PUBCHEM_MOLECULAR_WEIGHT>
317.37952

> <PUBCHEM_OPENEYE_CAN_SMILES>
COC1CC2C3(CCN2CC4=C(C(=C(C=C43)O)OC)OC)C=C1

> <PUBCHEM_OPENEYE_ISO_SMILES>
CO[C@@H]1C[C@@H]2[C@@]3(CCN2CC4=C(C(=C(C=C43)O)OC)OC)C=C1

> <PUBCHEM_CACTVS_TPSA>
51.2

> <PUBCHEM_MONOISOTOPIC_WEIGHT>
317.162708

> <PUBCHEM_TOTAL_CHARGE>
0

> <PUBCHEM_HEAVY_ATOM_COUNT>
23

> <PUBCHEM_ATOM_DEF_STEREO_COUNT>
3

> <PUBCHEM_ATOM_UDEF_STEREO_COUNT>
0

> <PUBCHEM_BOND_DEF_STEREO_COUNT>
0

> <PUBCHEM_BOND_UDEF_STEREO_COUNT>
0

> <PUBCHEM_ISOTOPIC_ATOM_COUNT>
0

> <PUBCHEM_COMPONENT_COUNT>
1

> <PUBCHEM_CACTVS_TAUTO_COUNT>
3

> <PUBCHEM_COORDINATE_TYPE>
1
5
255

> <PUBCHEM_BONDANNOTATIONS>
15  1  5
11  14  8
11  17  8
14  18  8
17  19  8
18  20  8
19  20  8
6  13  6
7  24  5

$$$$

