854078
  -OEChem-06241222472D

 44 47  0     1  0  0  0  0  0999 V2000
    6.5880   -1.4743    0.0000 O   0  0  0  0  0  0  0  0  0  0  0  0
    7.4541    0.0257    0.0000 O   0  0  0  0  0  0  0  0  0  0  0  0
    9.2336   -1.0675    0.0000 O   0  0  0  0  0  0  0  0  0  0  0  0
    3.7511    1.8107    0.0000 N   0  0  0  0  0  0  0  0  0  0  0  0
    3.2733   -0.1379    0.0000 C   0  0  1  0  0  0  0  0  0  0  0  0
    3.0145    0.8281    0.0000 C   0  0  2  0  0  0  0  0  0  0  0  0
    1.4414   -0.8967    0.0000 C   0  0  0  0  0  0  0  0  0  0  0  0
    1.1825    0.0692    0.0000 C   0  0  0  0  0  0  0  0  0  0  0  0
    4.8085   -1.3810    0.0000 C   0  0  0  0  0  0  0  0  0  0  0  0
    5.6175    0.0203    0.0000 C   0  0  0  0  0  0  0  0  0  0  0  0
    5.7220   -0.9743    0.0000 C   0  0  0  0  0  0  0  0  0  0  0  0
    4.2511    2.6767    0.0000 C   0  0  0  0  0  0  0  0  0  0  0  0
    7.4541   -0.9743    0.0000 C   0  0  0  0  0  0  0  0  0  0  0  0
    8.3201   -1.4743    0.0000 C   0  0  0  0  0  0  0  0  0  0  0  0
    8.4246   -2.4688    0.0000 C   0  0  0  0  0  0  0  0  0  0  0  0
    9.9028   -1.8107    0.0000 C   0  0  0  0  0  0  0  0  0  0  0  0
    9.4028   -2.6767    0.0000 C   0  0  0  0  0  0  0  0  0  0  0  0
   10.8973   -1.7062    0.0000 C   0  0  0  0  0  0  0  0  0  0  0  0
   11.3040   -0.7926    0.0000 C   0  0  0  0  0  0  0  0  0  0  0  0
   11.4851   -2.5152    0.0000 C   0  0  0  0  0  0  0  0  0  0  0  0
   12.2985   -0.6881    0.0000 C   0  0  0  0  0  0  0  0  0  0  0  0
   12.4796   -2.4106    0.0000 C   0  0  0  0  0  0  0  0  0  0  0  0
   12.8863   -1.4971    0.0000 C   0  0  0  0  0  0  0  0  0  0  0  0
    3.4933   -0.9589    0.0000 H   0  0  0  0  0  0  0  0  0  0  0  0
    2.7945    1.6491    0.0000 H   0  0  0  0  0  0  0  0  0  0  0  0
    1.6534   -1.4793    0.0000 H   0  0  0  0  0  0  0  0  0  0  0  0
    0.8501   -1.0831    0.0000 H   0  0  0  0  0  0  0  0  0  0  0  0
    0.5912   -0.1172    0.0000 H   0  0  0  0  0  0  0  0  0  0  0  0
    0.9705    0.6519    0.0000 H   0  0  0  0  0  0  0  0  0  0  0  0
    5.1461   -1.9010    0.0000 H   0  0  0  0  0  0  0  0  0  0  0  0
    4.3477   -1.7959    0.0000 H   0  0  0  0  0  0  0  0  0  0  0  0
    5.7198    0.6318    0.0000 H   0  0  0  0  0  0  0  0  0  0  0  0
    6.2372    0.0013    0.0000 H   0  0  0  0  0  0  0  0  0  0  0  0
    5.6896   -1.5934    0.0000 H   0  0  0  0  0  0  0  0  0  0  0  0
    3.7142    2.9867    0.0000 H   0  0  0  0  0  0  0  0  0  0  0  0
    4.5611    3.2136    0.0000 H   0  0  0  0  0  0  0  0  0  0  0  0
    4.7880    2.3667    0.0000 H   0  0  0  0  0  0  0  0  0  0  0  0
    7.9639   -2.8836    0.0000 H   0  0  0  0  0  0  0  0  0  0  0  0
    9.6549   -3.2431    0.0000 H   0  0  0  0  0  0  0  0  0  0  0  0
   10.9396   -0.2910    0.0000 H   0  0  0  0  0  0  0  0  0  0  0  0
   11.2329   -3.0816    0.0000 H   0  0  0  0  0  0  0  0  0  0  0  0
   12.5507   -0.1217    0.0000 H   0  0  0  0  0  0  0  0  0  0  0  0
   12.8440   -2.9122    0.0000 H   0  0  0  0  0  0  0  0  0  0  0  0
   13.5029   -1.4323    0.0000 H   0  0  0  0  0  0  0  0  0  0  0  0
  1 11  1  0  0  0  0
  1 13  1  0  0  0  0
  2 13  2  0  0  0  0
  3 14  1  0  0  0  0
  3 16  1  0  0  0  0
  4  5  1  0  0  0  0
  4  6  1  0  0  0  0
  4 12  1  0  0  0  0
  5  7  1  0  0  0  0
  5  9  1  0  0  0  0
  5 24  1  1  0  0  0
  6  8  1  0  0  0  0
  6 10  1  0  0  0  0
  6 25  1  6  0  0  0
  7  8  1  0  0  0  0
  7 26  1  0  0  0  0
  7 27  1  0  0  0  0
  8 28  1  0  0  0  0
  8 29  1  0  0  0  0
  9 11  1  0  0  0  0
  9 30  1  0  0  0  0
  9 31  1  0  0  0  0
 10 11  1  0  0  0  0
 10 32  1  0  0  0  0
 10 33  1  0  0  0  0
 11 34  1  0  0  0  0
 12 35  1  0  0  0  0
 12 36  1  0  0  0  0
 12 37  1  0  0  0  0
 13 14  1  0  0  0  0
 14 15  2  0  0  0  0
 15 17  1  0  0  0  0
 15 38  1  0  0  0  0
 16 17  2  0  0  0  0
 16 18  1  0  0  0  0
 17 39  1  0  0  0  0
 18 19  2  0  0  0  0
 18 20  1  0  0  0  0
 19 21  1  0  0  0  0
 19 40  1  0  0  0  0
 20 22  2  0  0  0  0
 20 41  1  0  0  0  0
 21 23  2  0  0  0  0
 21 42  1  0  0  0  0
 22 23  1  0  0  0  0
 22 43  1  0  0  0  0
 23 44  1  0  0  0  0
M  END
> <PUBCHEM_COMPOUND_CID>
854078

> <PUBCHEM_COMPOUND_CANONICALIZED>
1

> <PUBCHEM_CACTVS_COMPLEXITY>
420

> <PUBCHEM_CACTVS_HBOND_ACCEPTOR>
4

> <PUBCHEM_CACTVS_HBOND_DONOR>
0

> <PUBCHEM_CACTVS_ROTATABLE_BOND>
4

> <PUBCHEM_CACTVS_SUBSKEYS>
AAADceB6MAAAAAAAAAAAAAAAAAAAAWJAAAA8QAAABgAAAAABwAAAHgAAAAAADDzhmAYyDIMABECIAqDSCAICCAAkIAAIiAFOCMgNJjKEtR6GOSCmwBGKqYeY7vzuAAAAAAAAAAAAAAAAAAAAAAAAAAAAAA==

> <PUBCHEM_IUPAC_OPENEYE_NAME>
[(1S,5R)-8-methyl-8-azabicyclo[3.2.1]octan-3-yl] 5-phenylfuran-2-carboxylate

> <PUBCHEM_IUPAC_CAS_NAME>
5-phenyl-2-furancarboxylic acid [(1S,5R)-8-methyl-8-azabicyclo[3.2.1]octan-3-yl] ester

> <PUBCHEM_IUPAC_NAME>
[(1S,5R)-8-methyl-8-azabicyclo[3.2.1]octan-3-yl] 5-phenylfuran-2-carboxylate

> <PUBCHEM_IUPAC_SYSTEMATIC_NAME>
[(1S,5R)-8-methyl-8-azabicyclo[3.2.1]octan-3-yl] 5-phenylfuran-2-carboxylate

> <PUBCHEM_IUPAC_TRADITIONAL_NAME>
5-phenylfuran-2-carboxylic acid [(1S,5R)-8-methyl-8-azabicyclo[3.2.1]octan-3-yl] ester

> <PUBCHEM_IUPAC_INCHI>
InChI=1S/C19H21NO3/c1-20-14-7-8-15(20)12-16(11-14)22-19(21)18-10-9-17(23-18)13-5-3-2-4-6-13/h2-6,9-10,14-16H,7-8,11-12H2,1H3/t14-,15+,16?

> <PUBCHEM_IUPAC_INCHIKEY>
ZWBZWJPGCVOBFD-XYPWUTKMSA-N

> <PUBCHEM_XLOGP3_AA>
4

> <PUBCHEM_EXACT_MASS>
311.152144

> <PUBCHEM_MOLECULAR_FORMULA>
C19H21NO3

> <PUBCHEM_MOLECULAR_WEIGHT>
311.37494

> <PUBCHEM_OPENEYE_CAN_SMILES>
CN1C2CCC1CC(C2)OC(=O)C3=CC=C(O3)C4=CC=CC=C4

> <PUBCHEM_OPENEYE_ISO_SMILES>
CN1[C@@H]2CC[C@H]1CC(C2)OC(=O)C3=CC=C(O3)C4=CC=CC=C4

> <PUBCHEM_CACTVS_TPSA>
42.7

> <PUBCHEM_MONOISOTOPIC_WEIGHT>
311.152144

> <PUBCHEM_TOTAL_CHARGE>
0

> <PUBCHEM_HEAVY_ATOM_COUNT>
23

> <PUBCHEM_ATOM_DEF_STEREO_COUNT>
2

> <PUBCHEM_ATOM_UDEF_STEREO_COUNT>
0

> <PUBCHEM_BOND_DEF_STEREO_COUNT>
0

> <PUBCHEM_BOND_UDEF_STEREO_COUNT>
0

> <PUBCHEM_ISOTOPIC_ATOM_COUNT>
0

> <PUBCHEM_COMPONENT_COUNT>
1

> <PUBCHEM_CACTVS_TAUTO_COUNT>
1

> <PUBCHEM_COORDINATE_TYPE>
1
5
255

> <PUBCHEM_BONDANNOTATIONS>
14  15  8
15  17  8
16  17  8
18  19  8
18  20  8
19  21  8
20  22  8
21  23  8
22  23  8
3  14  8
3  16  8
5  24  5
6  25  6

$$$$

