585988
  -OEChem-06241222452D

 39 39  0     0  0  0  0  0  0999 V2000
    8.7006    1.4886    0.0000 O   0  0  0  0  0  0  0  0  0  0  0  0
    3.7601   -0.4886    0.0000 N   0  0  0  0  0  0  0  0  0  0  0  0
    5.5202   -0.2098    0.0000 C   0  0  0  0  0  0  0  0  0  0  0  0
    6.4712   -0.5188    0.0000 C   0  0  0  0  0  0  0  0  0  0  0  0
    4.5691    0.0992    0.0000 C   0  0  0  0  0  0  0  0  0  0  0  0
    7.2144    0.1503    0.0000 C   0  0  0  0  0  0  0  0  0  0  0  0
    5.8292    0.7413    0.0000 C   0  0  0  0  0  0  0  0  0  0  0  0
    5.2111   -1.1609    0.0000 C   0  0  0  0  0  0  0  0  0  0  0  0
    4.2601    1.0503    0.0000 C   0  0  0  0  0  0  0  0  0  0  0  0
    2.9511    0.0992    0.0000 C   0  0  0  0  0  0  0  0  0  0  0  0
    8.1654   -0.1587    0.0000 C   0  0  0  0  0  0  0  0  0  0  0  0
    3.2601    1.0503    0.0000 C   0  0  0  0  0  0  0  0  0  0  0  0
    3.7601   -1.4886    0.0000 C   0  0  0  0  0  0  0  0  0  0  0  0
    2.0000   -0.2098    0.0000 C   0  0  0  0  0  0  0  0  0  0  0  0
    8.9086    0.5104    0.0000 C   0  0  0  0  0  0  0  0  0  0  0  0
    9.8596    0.2014    0.0000 C   0  0  0  0  0  0  0  0  0  0  0  0
    6.1801   -1.0662    0.0000 H   0  0  0  0  0  0  0  0  0  0  0  0
    6.9598   -0.9005    0.0000 H   0  0  0  0  0  0  0  0  0  0  0  0
    7.5054    0.6977    0.0000 H   0  0  0  0  0  0  0  0  0  0  0  0
    6.7258    0.5320    0.0000 H   0  0  0  0  0  0  0  0  0  0  0  0
    4.6215   -0.9693    0.0000 H   0  0  0  0  0  0  0  0  0  0  0  0
    5.0195   -1.7505    0.0000 H   0  0  0  0  0  0  0  0  0  0  0  0
    5.8008   -1.3524    0.0000 H   0  0  0  0  0  0  0  0  0  0  0  0
    6.4188    0.5497    0.0000 H   0  0  0  0  0  0  0  0  0  0  0  0
    6.0207    1.3309    0.0000 H   0  0  0  0  0  0  0  0  0  0  0  0
    5.2395    0.9328    0.0000 H   0  0  0  0  0  0  0  0  0  0  0  0
    4.6245    1.5519    0.0000 H   0  0  0  0  0  0  0  0  0  0  0  0
    7.8743   -0.7061    0.0000 H   0  0  0  0  0  0  0  0  0  0  0  0
    8.6540   -0.5404    0.0000 H   0  0  0  0  0  0  0  0  0  0  0  0
    2.8956    1.5519    0.0000 H   0  0  0  0  0  0  0  0  0  0  0  0
    3.1401   -1.4886    0.0000 H   0  0  0  0  0  0  0  0  0  0  0  0
    3.7601   -2.1086    0.0000 H   0  0  0  0  0  0  0  0  0  0  0  0
    4.3801   -1.4886    0.0000 H   0  0  0  0  0  0  0  0  0  0  0  0
    1.8084    0.3799    0.0000 H   0  0  0  0  0  0  0  0  0  0  0  0
    1.4103   -0.4014    0.0000 H   0  0  0  0  0  0  0  0  0  0  0  0
    2.1916   -0.7995    0.0000 H   0  0  0  0  0  0  0  0  0  0  0  0
    9.6680   -0.3882    0.0000 H   0  0  0  0  0  0  0  0  0  0  0  0
   10.4493    0.0098    0.0000 H   0  0  0  0  0  0  0  0  0  0  0  0
   10.0512    0.7911    0.0000 H   0  0  0  0  0  0  0  0  0  0  0  0
  1 15  2  0  0  0  0
  2  5  1  0  0  0  0
  2 10  1  0  0  0  0
  2 13  1  0  0  0  0
  3  4  1  0  0  0  0
  3  5  1  0  0  0  0
  3  7  1  0  0  0  0
  3  8  1  0  0  0  0
  4  6  1  0  0  0  0
  4 17  1  0  0  0  0
  4 18  1  0  0  0  0
  5  9  2  0  0  0  0
  6 11  1  0  0  0  0
  6 19  1  0  0  0  0
  6 20  1  0  0  0  0
  7 24  1  0  0  0  0
  7 25  1  0  0  0  0
  7 26  1  0  0  0  0
  8 21  1  0  0  0  0
  8 22  1  0  0  0  0
  8 23  1  0  0  0  0
  9 12  1  0  0  0  0
  9 27  1  0  0  0  0
 10 12  2  0  0  0  0
 10 14  1  0  0  0  0
 11 15  1  0  0  0  0
 11 28  1  0  0  0  0
 11 29  1  0  0  0  0
 12 30  1  0  0  0  0
 13 31  1  0  0  0  0
 13 32  1  0  0  0  0
 13 33  1  0  0  0  0
 14 34  1  0  0  0  0
 14 35  1  0  0  0  0
 14 36  1  0  0  0  0
 15 16  1  0  0  0  0
 16 37  1  0  0  0  0
 16 38  1  0  0  0  0
 16 39  1  0  0  0  0
M  END
> <PUBCHEM_COMPOUND_CID>
585988

> <PUBCHEM_COMPOUND_CANONICALIZED>
1

> <PUBCHEM_CACTVS_COMPLEXITY>
247

> <PUBCHEM_CACTVS_HBOND_ACCEPTOR>
1

> <PUBCHEM_CACTVS_HBOND_DONOR>
0

> <PUBCHEM_CACTVS_ROTATABLE_BOND>
5

> <PUBCHEM_CACTVS_SUBSKEYS>
AAADceByIAAAAAAAAAAAAAAAAAAAAWAAAAAAAAAAAAAAAAABgAAAHgAAAAAADgyBlgQygJMMEACoAaRyRACCgCAhAiAI2CE4ZJgIIPLAkZGEAAhggADIyAcYiMCPAAAAAAAAAAAAAAAAAAAAAAAAAAAAAA==

> <PUBCHEM_IUPAC_OPENEYE_NAME>
6-(1,5-dimethylpyrrol-2-yl)-6-methyl-heptan-2-one

> <PUBCHEM_IUPAC_CAS_NAME>
6-(1,5-dimethyl-2-pyrrolyl)-6-methyl-2-heptanone

> <PUBCHEM_IUPAC_NAME>
6-(1,5-dimethylpyrrol-2-yl)-6-methylheptan-2-one

> <PUBCHEM_IUPAC_SYSTEMATIC_NAME>
6-(1,5-dimethylpyrrol-2-yl)-6-methyl-heptan-2-one

> <PUBCHEM_IUPAC_TRADITIONAL_NAME>
6-(1,5-dimethylpyrrol-2-yl)-6-methyl-heptan-2-one

> <PUBCHEM_IUPAC_INCHI>
InChI=1S/C14H23NO/c1-11-8-9-13(15(11)5)14(3,4)10-6-7-12(2)16/h8-9H,6-7,10H2,1-5H3

> <PUBCHEM_IUPAC_INCHIKEY>
KJVPKRDBRQTRIC-UHFFFAOYSA-N

> <PUBCHEM_XLOGP3_AA>
2.6

> <PUBCHEM_EXACT_MASS>
221.177964

> <PUBCHEM_MOLECULAR_FORMULA>
C14H23NO

> <PUBCHEM_MOLECULAR_WEIGHT>
221.33852

> <PUBCHEM_OPENEYE_CAN_SMILES>
CC1=CC=C(N1C)C(C)(C)CCCC(=O)C

> <PUBCHEM_OPENEYE_ISO_SMILES>
CC1=CC=C(N1C)C(C)(C)CCCC(=O)C

> <PUBCHEM_CACTVS_TPSA>
22

> <PUBCHEM_MONOISOTOPIC_WEIGHT>
221.177964

> <PUBCHEM_TOTAL_CHARGE>
0

> <PUBCHEM_HEAVY_ATOM_COUNT>
16

> <PUBCHEM_ATOM_DEF_STEREO_COUNT>
0

> <PUBCHEM_ATOM_UDEF_STEREO_COUNT>
0

> <PUBCHEM_BOND_DEF_STEREO_COUNT>
0

> <PUBCHEM_BOND_UDEF_STEREO_COUNT>
0

> <PUBCHEM_ISOTOPIC_ATOM_COUNT>
0

> <PUBCHEM_COMPONENT_COUNT>
1

> <PUBCHEM_CACTVS_TAUTO_COUNT>
3

> <PUBCHEM_COORDINATE_TYPE>
1
5
255

> <PUBCHEM_BONDANNOTATIONS>
10  12  8
2  10  8
2  5  8
5  9  8
9  12  8

$$$$

