   Color/Form

     * Crystals from benzene
     * White, crystalline powder

   from [1]HSDB

   Odor
        ODORLESS
   from [2]HSDB

   Melting Point
        146.5 - 147.5 deg C
   from [3]HSDB

   Corrosivity
        NON-CORROSIVE
   from [4]HSDB

   Density/Specific Gravity
        1.151 @ 20 deg C
   from [5]HSDB

   Octanol/Water Partition Coefficient
        log Kow= 4.61
   from [6]HSDB

   Solubilities

     * Solubility in acetone 67.3, methanol 3.46, ethyl acetate 67.3,
       hexane 1.52, dichloromethane 297, xylene 105 (all in g/L, 20 deg C)
     * Soluble in aromatic hydrocarbon solvents, dioxan
     * AT 18 DEG C: 0.4 G/100 G PETROLEUM ETHER; 7.1 G/100 G ETHYL
       ACETATE; 10.5 G/100 G METHYL ETHYL KETONE; AND 1.6 G/100 G CARBON
       TETRACHLORIDE.
     * In water, 7.80X10-2 mg/L @ 20 deg C
     * Sol in water ... at 20 deg C, 0.08 mg/l.

   from [7]HSDB

   Spectral Properties
        Intense mass spectral peaks: 159 m/z (100%), 111 m/z (77%), 227
   m/z (51%), 229 m/z (49%)
   from [8]HSDB

   Vapor Pressure
        2.40X10-10 mm Hg at 20 deg C
   from [9]HSDB

   Other Chemical/Physical Properties

     * MELTING POINT: 144 deg C /Technical product/
     * Off white to lightly yellowish substance /technical product/
     * /It is/ resistant to acid or alkali hydrolysis.
     * Extremely stable, even in strong acids and alkalis. Stable to heat
       and to sunlight. Resistant to strong oxidizing agents.
     * Off-white powder with a weak aromatic odor /Technical product/
     * Henry's Law constant = 1.44X10-9 atm-cu m/mol @ 25 deg C
       /Estimated/
     * Hydroxyl radical reaction rate constant = 3.64X10-13 cu
       cm/molecule-sec @ 25 deg C /Estimated/

   from [10]HSDB

   Computed Properties
   Molecular Weight                  356.05184 [g/mol]
   Molecular Formula                 C[12]H[6]Cl[4]O[2]S
   XLogP3                            5.1
   H-Bond Donor                      0
   H-Bond Acceptor                   2
   Rotatable Bond Count              2
   Exact Mass                        355.881311
   MonoIsotopic Mass                 353.884261
   Topological Polar Surface Area    42.5
   Heavy Atom Count                  19
   Formal Charge                     0
   Complexity                        400
   Isotope Atom Count                0
   Defined Atom Stereocenter Count   0
   Undefined Atom Stereocenter Count 0
   Defined Bond Stereocenter Count   0
   Undefined Bond Stereocenter Count 0
   Covalently-Bonded Unit Count      1
   Feature 3D Acceptor Count         2
   Feature 3D Ring Count             2
   Effective Rotor Count             2
   Conformer Sampling RMSD           0.6
   CID Conformer Count               [11]2

References

   1. http://toxnet.nlm.nih.gov/cgi-bin/sis/search/r?dbs+hsdb:@term+@rn+@rel+116-29-0
   2. http://toxnet.nlm.nih.gov/cgi-bin/sis/search/r?dbs+hsdb:@term+@rn+@rel+116-29-0
   3. http://toxnet.nlm.nih.gov/cgi-bin/sis/search/r?dbs+hsdb:@term+@rn+@rel+116-29-0
   4. http://toxnet.nlm.nih.gov/cgi-bin/sis/search/r?dbs+hsdb:@term+@rn+@rel+116-29-0
   5. http://toxnet.nlm.nih.gov/cgi-bin/sis/search/r?dbs+hsdb:@term+@rn+@rel+116-29-0
   6. http://toxnet.nlm.nih.gov/cgi-bin/sis/search/r?dbs+hsdb:@term+@rn+@rel+116-29-0
   7. http://toxnet.nlm.nih.gov/cgi-bin/sis/search/r?dbs+hsdb:@term+@rn+@rel+116-29-0
   8. http://toxnet.nlm.nih.gov/cgi-bin/sis/search/r?dbs+hsdb:@term+@rn+@rel+116-29-0
   9. http://toxnet.nlm.nih.gov/cgi-bin/sis/search/r?dbs+hsdb:@term+@rn+@rel+116-29-0
  10. http://toxnet.nlm.nih.gov/cgi-bin/sis/search/r?dbs+hsdb:@term+@rn+@rel+116-29-0
  11. http://pubchem.ncbi.nlm.nih.gov/vw3d/vw3d.cgi?cid=8305
