49787029
  -OEChem-07051213102D

 39 39  0     1  0  0  0  0  0999 V2000
    6.7181    2.4535    0.0000 P   0  0  0  0  0  0  0  0  0  0  0  0
    5.8520    1.9535    0.0000 O   0  0  0  0  0  0  0  0  0  0  0  0
    5.8520   -2.0465    0.0000 O   0  0  0  0  0  0  0  0  0  0  0  0
    4.1200   -1.0465    0.0000 O   0  0  0  0  0  0  0  0  0  0  0  0
    7.5841    0.9535    0.0000 O   0  0  0  0  0  0  0  0  0  0  0  0
    7.5841   -1.0465    0.0000 O   0  0  0  0  0  0  0  0  0  0  0  0
    7.5841    2.9535    0.0000 O   0  0  0  0  0  0  0  0  0  0  0  0
    6.2181    3.3195    0.0000 O   0  0  0  0  0  0  0  0  0  0  0  0
    7.2181    1.5875    0.0000 O   0  0  0  0  0  0  0  0  0  0  0  0
    7.5841   -2.0465    0.0000 O   0  0  0  0  0  0  0  0  0  0  0  0
    4.1200    0.9535    0.0000 N   0  0  0  0  0  0  0  0  0  0  0  0
    2.6200    1.8196    0.0000 N   0  0  0  0  0  0  0  0  0  0  0  0
    2.6200    0.0875    0.0000 N   0  0  0  0  0  0  0  0  0  0  0  0
    6.7181   -3.5465    0.0000 N   0  0  0  0  0  0  0  0  0  0  0  0
    5.8520    0.9535    0.0000 C   0  0  2  0  0  0  0  0  0  0  0  0
    4.9860    0.4535    0.0000 C   0  0  2  0  0  0  0  0  0  0  0  0
    4.9860   -0.5465    0.0000 C   0  0  1  0  0  0  0  0  0  0  0  0
    5.8520   -1.0465    0.0000 C   0  0  2  0  0  0  0  0  0  0  0  0
    6.7181    0.4535    0.0000 C   0  0  1  0  0  0  0  0  0  0  0  0
    6.7181   -0.5465    0.0000 C   0  0  1  0  0  0  0  0  0  0  0  0
    3.1200    0.9536    0.0000 C   0  0  0  0  0  0  0  0  0  0  0  0
    6.7181   -2.5465    0.0000 C   0  0  0  0  0  0  0  0  0  0  0  0
    6.3890    1.2635    0.0000 H   0  0  0  0  0  0  0  0  0  0  0  0
    4.9860    1.0735    0.0000 H   0  0  0  0  0  0  0  0  0  0  0  0
    4.9860   -1.1665    0.0000 H   0  0  0  0  0  0  0  0  0  0  0  0
    6.3890   -1.3565    0.0000 H   0  0  0  0  0  0  0  0  0  0  0  0
    6.7181    1.0735    0.0000 H   0  0  0  0  0  0  0  0  0  0  0  0
    6.7181   -1.1665    0.0000 H   0  0  0  0  0  0  0  0  0  0  0  0
    4.1200   -1.6665    0.0000 H   0  0  0  0  0  0  0  0  0  0  0  0
    8.1210    0.6435    0.0000 H   0  0  0  0  0  0  0  0  0  0  0  0
    8.1210   -0.7365    0.0000 H   0  0  0  0  0  0  0  0  0  0  0  0
    7.5841    3.5735    0.0000 H   0  0  0  0  0  0  0  0  0  0  0  0
    6.5281    3.8565    0.0000 H   0  0  0  0  0  0  0  0  0  0  0  0
    2.0000    0.0875    0.0000 H   0  0  0  0  0  0  0  0  0  0  0  0
    2.9300   -0.4495    0.0000 H   0  0  0  0  0  0  0  0  0  0  0  0
    2.0000    1.8196    0.0000 H   0  0  0  0  0  0  0  0  0  0  0  0
    2.9300    2.3565    0.0000 H   0  0  0  0  0  0  0  0  0  0  0  0
    7.2550   -3.8565    0.0000 H   0  0  0  0  0  0  0  0  0  0  0  0
    6.1811   -3.8565    0.0000 H   0  0  0  0  0  0  0  0  0  0  0  0
  1  2  1  0  0  0  0
  1  7  1  0  0  0  0
  1  8  1  0  0  0  0
  1  9  2  0  0  0  0
 15  2  1  1  0  0  0
 18  3  1  6  0  0  0
  3 22  1  0  0  0  0
 17  4  1  1  0  0  0
  4 29  1  0  0  0  0
 19  5  1  6  0  0  0
  5 30  1  0  0  0  0
 20  6  1  1  0  0  0
  6 31  1  0  0  0  0
  7 32  1  0  0  0  0
  8 33  1  0  0  0  0
 10 22  2  0  0  0  0
 16 11  1  6  0  0  0
 11 21  2  0  0  0  0
 12 21  1  0  0  0  0
 12 36  1  0  0  0  0
 12 37  1  0  0  0  0
 13 21  1  0  0  0  0
 13 34  1  0  0  0  0
 13 35  1  0  0  0  0
 14 22  1  0  0  0  0
 14 38  1  0  0  0  0
 14 39  1  0  0  0  0
 15 16  1  0  0  0  0
 15 19  1  0  0  0  0
 15 23  1  0  0  0  0
 16 17  1  0  0  0  0
 16 24  1  0  0  0  0
 17 18  1  0  0  0  0
 17 25  1  0  0  0  0
 18 20  1  0  0  0  0
 18 26  1  0  0  0  0
 19 20  1  0  0  0  0
 19 27  1  0  0  0  0
 20 28  1  0  0  0  0
M  END
> <PUBCHEM_COMPOUND_CID>
49787029

> <PUBCHEM_COMPOUND_CANONICALIZED>
1

> <PUBCHEM_CACTVS_COMPLEXITY>
492

> <PUBCHEM_CACTVS_HBOND_ACCEPTOR>
10

> <PUBCHEM_CACTVS_HBOND_DONOR>
8

> <PUBCHEM_CACTVS_ROTATABLE_BOND>
5

> <PUBCHEM_CACTVS_SUBSKEYS>
AAADceBzvAIAAAAAAAAAAAAAAAAAAAAAAAAwAAAAAAAAAAAAAAAAHgAQCCAACDzhgAYBCAJABxAoQAAAPIAAAAEAAAAAAAAAAAEDEAIAgAAIQAAHAAADAAHwcA0AAAAAAAAAAAACgAAUAACgAAAAAAAAAA==

> <PUBCHEM_IUPAC_OPENEYE_NAME>
[(1R,2S,3S,4R,5R,6R)-3-guanidino-2,5,6-trihydroxy-4-phosphonooxy-cyclohexyl] carbamate

> <PUBCHEM_IUPAC_CAS_NAME>
carbamic acid [(1R,2S,3S,4R,5R,6R)-3-(diaminomethylideneamino)-2,5,6-trihydroxy-4-phosphonooxycyclohexyl] ester

> <PUBCHEM_IUPAC_NAME>
[(1R,2S,3S,4R,5R,6R)-3-(diaminomethylideneamino)-2,5,6-trihydroxy-4-phosphonooxycyclohexyl] carbamate

> <PUBCHEM_IUPAC_SYSTEMATIC_NAME>
[(1R,2S,3S,4R,5R,6R)-3-[bis(azanyl)methylideneamino]-2,5,6-tris(oxidanyl)-4-phosphonooxy-cyclohexyl] carbamate

> <PUBCHEM_IUPAC_TRADITIONAL_NAME>
carbamic acid [(1R,2S,3S,4R,5R,6R)-3-guanidino-2,5,6-trihydroxy-4-phosphonooxy-cyclohexyl] ester

> <PUBCHEM_IUPAC_INCHI>
InChI=1S/C8H17N4O9P/c9-7(10)12-1-2(13)6(20-8(11)16)4(15)3(14)5(1)21-22(17,18)19/h1-6,13-15H,(H2,11,16)(H4,9,10,12)(H2,17,18,19)/t1-,2-,3+,4+,5+,6+/m0/s1

> <PUBCHEM_IUPAC_INCHIKEY>
YIKQEDKIDOHFKU-NCGNNJKGSA-N

> <PUBCHEM_XLOGP3_AA>
-5.7

> <PUBCHEM_EXACT_MASS>
344.073315

> <PUBCHEM_MOLECULAR_FORMULA>
C8H17N4O9P

> <PUBCHEM_MOLECULAR_WEIGHT>
344.215742

> <PUBCHEM_OPENEYE_CAN_SMILES>
C1(C(C(C(C(C1OP(=O)(O)O)O)O)OC(=O)N)O)N=C(N)N

> <PUBCHEM_OPENEYE_ISO_SMILES>
[C@@H]1([C@@H]([C@H]([C@@H]([C@H]([C@@H]1OP(=O)(O)O)O)O)OC(=O)N)O)N=C(N)N

> <PUBCHEM_CACTVS_TPSA>
244

> <PUBCHEM_MONOISOTOPIC_WEIGHT>
344.073315

> <PUBCHEM_TOTAL_CHARGE>
0

> <PUBCHEM_HEAVY_ATOM_COUNT>
22

> <PUBCHEM_ATOM_DEF_STEREO_COUNT>
6

> <PUBCHEM_ATOM_UDEF_STEREO_COUNT>
0

> <PUBCHEM_BOND_DEF_STEREO_COUNT>
0

> <PUBCHEM_BOND_UDEF_STEREO_COUNT>
0

> <PUBCHEM_ISOTOPIC_ATOM_COUNT>
0

> <PUBCHEM_COMPONENT_COUNT>
1

> <PUBCHEM_CACTVS_TAUTO_COUNT>
4

> <PUBCHEM_COORDINATE_TYPE>
1
5
255

> <PUBCHEM_BONDANNOTATIONS>
16  11  6
15  2  5
18  3  6
17  4  5
19  5  6
20  6  5

$$$$

