9047
  -OEChem-07051213032D

 31 32  0     0  0  0  0  0  0999 V2000
    3.0000    0.1550    0.0000 S   0  0  0  0  0  0  0  0  0  0  0  0
    4.0000    0.1550    0.0000 O   0  0  0  0  0  0  0  0  0  0  0  0
    2.0000    0.1550    0.0000 O   0  0  0  0  0  0  0  0  0  0  0  0
    3.0000    3.1550    0.0000 O   0  0  0  0  0  0  0  0  0  0  0  0
    3.0000    1.1550    0.0000 N   0  0  0  0  0  0  0  0  0  0  0  0
    4.7320    1.1550    0.0000 N   0  0  0  0  0  0  0  0  0  0  0  0
    3.0000   -3.8450    0.0000 N   0  0  0  0  0  0  0  0  0  0  0  0
    4.7320    3.1550    0.0000 N   0  0  0  0  0  0  0  0  0  0  0  0
    3.0000   -0.8450    0.0000 C   0  0  0  0  0  0  0  0  0  0  0  0
    2.1340   -1.3450    0.0000 C   0  0  0  0  0  0  0  0  0  0  0  0
    3.8660   -1.3450    0.0000 C   0  0  0  0  0  0  0  0  0  0  0  0
    3.8660    1.6550    0.0000 C   0  0  0  0  0  0  0  0  0  0  0  0
    3.0000   -2.8450    0.0000 C   0  0  0  0  0  0  0  0  0  0  0  0
    2.1340   -2.3450    0.0000 C   0  0  0  0  0  0  0  0  0  0  0  0
    3.8660   -2.3450    0.0000 C   0  0  0  0  0  0  0  0  0  0  0  0
    3.8660    2.6550    0.0000 C   0  0  0  0  0  0  0  0  0  0  0  0
    5.5981    1.6550    0.0000 C   0  0  0  0  0  0  0  0  0  0  0  0
    5.5981    2.6550    0.0000 C   0  0  0  0  0  0  0  0  0  0  0  0
    3.0000    4.1550    0.0000 C   0  0  0  0  0  0  0  0  0  0  0  0
    2.4631    1.4650    0.0000 H   0  0  0  0  0  0  0  0  0  0  0  0
    1.5970   -1.0350    0.0000 H   0  0  0  0  0  0  0  0  0  0  0  0
    4.4030   -1.0350    0.0000 H   0  0  0  0  0  0  0  0  0  0  0  0
    1.5970   -2.6550    0.0000 H   0  0  0  0  0  0  0  0  0  0  0  0
    4.4030   -2.6550    0.0000 H   0  0  0  0  0  0  0  0  0  0  0  0
    2.4631   -4.1550    0.0000 H   0  0  0  0  0  0  0  0  0  0  0  0
    3.5369   -4.1550    0.0000 H   0  0  0  0  0  0  0  0  0  0  0  0
    6.1350    1.3450    0.0000 H   0  0  0  0  0  0  0  0  0  0  0  0
    6.1350    2.9650    0.0000 H   0  0  0  0  0  0  0  0  0  0  0  0
    3.6200    4.1550    0.0000 H   0  0  0  0  0  0  0  0  0  0  0  0
    3.0000    4.7750    0.0000 H   0  0  0  0  0  0  0  0  0  0  0  0
    2.3800    4.1550    0.0000 H   0  0  0  0  0  0  0  0  0  0  0  0
  1  2  2  0  0  0  0
  1  3  2  0  0  0  0
  1  5  1  0  0  0  0
  1  9  1  0  0  0  0
  4 16  1  0  0  0  0
  4 19  1  0  0  0  0
  5 12  1  0  0  0  0
  5 20  1  0  0  0  0
  6 12  2  0  0  0  0
  6 17  1  0  0  0  0
  7 13  1  0  0  0  0
  7 25  1  0  0  0  0
  7 26  1  0  0  0  0
  8 16  2  0  0  0  0
  8 18  1  0  0  0  0
  9 10  2  0  0  0  0
  9 11  1  0  0  0  0
 10 14  1  0  0  0  0
 10 21  1  0  0  0  0
 11 15  2  0  0  0  0
 11 22  1  0  0  0  0
 12 16  1  0  0  0  0
 13 14  2  0  0  0  0
 13 15  1  0  0  0  0
 14 23  1  0  0  0  0
 15 24  1  0  0  0  0
 17 18  2  0  0  0  0
 17 27  1  0  0  0  0
 18 28  1  0  0  0  0
 19 29  1  0  0  0  0
 19 30  1  0  0  0  0
 19 31  1  0  0  0  0
M  END
> <PUBCHEM_COMPOUND_CID>
9047

> <PUBCHEM_COMPOUND_CANONICALIZED>
1

> <PUBCHEM_CACTVS_COMPLEXITY>
376

> <PUBCHEM_CACTVS_HBOND_ACCEPTOR>
7

> <PUBCHEM_CACTVS_HBOND_DONOR>
2

> <PUBCHEM_CACTVS_ROTATABLE_BOND>
4

> <PUBCHEM_CACTVS_SUBSKEYS>
AAADccBzsABAAAAAAAAAAAAAAAAAAAAAAAA8QAAAAAAAAAABwAAAHgQQQAAACAjB0gY/9ZJIFAKgADZnZHTCiD0xUiAIyBgZdIiOYGKAkZGRIABgkAKYyCcQAAAAAAQAAAAAAAAACAAAAAAAAAAAAAAAAA==

> <PUBCHEM_IUPAC_OPENEYE_NAME>
4-amino-N-(3-methoxypyrazin-2-yl)benzenesulfonamide

> <PUBCHEM_IUPAC_CAS_NAME>
4-amino-N-(3-methoxy-2-pyrazinyl)benzenesulfonamide

> <PUBCHEM_IUPAC_NAME>
4-amino-N-(3-methoxypyrazin-2-yl)benzenesulfonamide

> <PUBCHEM_IUPAC_SYSTEMATIC_NAME>
4-azanyl-N-(3-methoxypyrazin-2-yl)benzenesulfonamide

> <PUBCHEM_IUPAC_TRADITIONAL_NAME>
4-amino-N-(3-methoxypyrazin-2-yl)benzenesulfonamide

> <PUBCHEM_IUPAC_INCHI>
InChI=1S/C11H12N4O3S/c1-18-11-10(13-6-7-14-11)15-19(16,17)9-4-2-8(12)3-5-9/h2-7H,12H2,1H3,(H,13,15)

> <PUBCHEM_IUPAC_INCHIKEY>
KXRZBTAEDBELFD-UHFFFAOYSA-N

> <PUBCHEM_XLOGP3>
0.7

> <PUBCHEM_EXACT_MASS>
280.063011

> <PUBCHEM_MOLECULAR_FORMULA>
C11H12N4O3S

> <PUBCHEM_MOLECULAR_WEIGHT>
280.30298

> <PUBCHEM_OPENEYE_CAN_SMILES>
COC1=NC=CN=C1NS(=O)(=O)C2=CC=C(C=C2)N

> <PUBCHEM_OPENEYE_ISO_SMILES>
COC1=NC=CN=C1NS(=O)(=O)C2=CC=C(C=C2)N

> <PUBCHEM_CACTVS_TPSA>
116

> <PUBCHEM_MONOISOTOPIC_WEIGHT>
280.063011

> <PUBCHEM_TOTAL_CHARGE>
0

> <PUBCHEM_HEAVY_ATOM_COUNT>
19

> <PUBCHEM_ATOM_DEF_STEREO_COUNT>
0

> <PUBCHEM_ATOM_UDEF_STEREO_COUNT>
0

> <PUBCHEM_BOND_DEF_STEREO_COUNT>
0

> <PUBCHEM_BOND_UDEF_STEREO_COUNT>
0

> <PUBCHEM_ISOTOPIC_ATOM_COUNT>
0

> <PUBCHEM_COMPONENT_COUNT>
1

> <PUBCHEM_CACTVS_TAUTO_COUNT>
2

> <PUBCHEM_COORDINATE_TYPE>
1
5
255

> <PUBCHEM_BONDANNOTATIONS>
10  14  8
11  15  8
12  16  8
13  14  8
13  15  8
17  18  8
6  12  8
6  17  8
8  16  8
8  18  8
9  10  8
9  11  8

$$$$

