37464
  -OEChem-07051212532D

 50 51  0     1  0  0  0  0  0999 V2000
    7.1962   -0.2694    0.0000 O   0  0  0  0  0  0  0  0  0  0  0  0
    5.4641    0.7306    0.0000 O   0  0  0  0  0  0  0  0  0  0  0  0
    3.7320   -0.2694    0.0000 N   0  0  0  0  0  0  0  0  0  0  0  0
    8.9282    0.7306    0.0000 C   0  0  0  0  0  0  0  0  0  0  0  0
    9.7372    1.3184    0.0000 C   0  0  0  0  0  0  0  0  0  0  0  0
    8.1192    1.3184    0.0000 C   0  0  0  0  0  0  0  0  0  0  0  0
    8.4282    2.2694    0.0000 C   0  0  0  0  0  0  0  0  0  0  0  0
    9.4282    2.2694    0.0000 C   0  0  0  0  0  0  0  0  0  0  0  0
    8.9282   -0.2694    0.0000 C   0  0  0  0  0  0  0  0  0  0  0  0
    8.0622   -0.7694    0.0000 C   0  0  0  0  0  0  0  0  0  0  0  0
    9.7942   -0.7694    0.0000 C   0  0  0  0  0  0  0  0  0  0  0  0
    2.8660   -0.7694    0.0000 C   0  0  0  0  0  0  0  0  0  0  0  0
    5.4641   -0.2694    0.0000 C   0  0  1  0  0  0  0  0  0  0  0  0
    4.5981   -0.7694    0.0000 C   0  0  0  0  0  0  0  0  0  0  0  0
    6.3301   -0.7694    0.0000 C   0  0  0  0  0  0  0  0  0  0  0  0
    8.0622   -1.7694    0.0000 C   0  0  0  0  0  0  0  0  0  0  0  0
    9.7942   -1.7694    0.0000 C   0  0  0  0  0  0  0  0  0  0  0  0
    2.0000   -1.2694    0.0000 C   0  0  0  0  0  0  0  0  0  0  0  0
    2.3660    0.0966    0.0000 C   0  0  0  0  0  0  0  0  0  0  0  0
    3.3660   -1.6354    0.0000 C   0  0  0  0  0  0  0  0  0  0  0  0
    8.9282   -2.2694    0.0000 C   0  0  0  0  0  0  0  0  0  0  0  0
    9.4806    0.4491    0.0000 H   0  0  0  0  0  0  0  0  0  0  0  0
    7.5528    1.5705    0.0000 H   0  0  0  0  0  0  0  0  0  0  0  0
    7.8092    0.7814    0.0000 H   0  0  0  0  0  0  0  0  0  0  0  0
   10.0472    0.7814    0.0000 H   0  0  0  0  0  0  0  0  0  0  0  0
   10.3036    1.5705    0.0000 H   0  0  0  0  0  0  0  0  0  0  0  0
    8.4930    2.8860    0.0000 H   0  0  0  0  0  0  0  0  0  0  0  0
    7.8218    2.3983    0.0000 H   0  0  0  0  0  0  0  0  0  0  0  0
   10.0347    2.3983    0.0000 H   0  0  0  0  0  0  0  0  0  0  0  0
    9.3634    2.8860    0.0000 H   0  0  0  0  0  0  0  0  0  0  0  0
   10.3312   -0.4594    0.0000 H   0  0  0  0  0  0  0  0  0  0  0  0
    6.0010    0.0406    0.0000 H   0  0  0  0  0  0  0  0  0  0  0  0
    4.1996   -1.2444    0.0000 H   0  0  0  0  0  0  0  0  0  0  0  0
    4.9966   -1.2444    0.0000 H   0  0  0  0  0  0  0  0  0  0  0  0
    5.9316   -1.2444    0.0000 H   0  0  0  0  0  0  0  0  0  0  0  0
    6.7287   -1.2444    0.0000 H   0  0  0  0  0  0  0  0  0  0  0  0
    3.7320    0.3506    0.0000 H   0  0  0  0  0  0  0  0  0  0  0  0
    7.5252   -2.0794    0.0000 H   0  0  0  0  0  0  0  0  0  0  0  0
   10.3312   -2.0794    0.0000 H   0  0  0  0  0  0  0  0  0  0  0  0
    1.6900   -0.7325    0.0000 H   0  0  0  0  0  0  0  0  0  0  0  0
    1.4631   -1.5794    0.0000 H   0  0  0  0  0  0  0  0  0  0  0  0
    2.3100   -1.8064    0.0000 H   0  0  0  0  0  0  0  0  0  0  0  0
    2.9030    0.4066    0.0000 H   0  0  0  0  0  0  0  0  0  0  0  0
    2.0560    0.6335    0.0000 H   0  0  0  0  0  0  0  0  0  0  0  0
    1.8291   -0.2134    0.0000 H   0  0  0  0  0  0  0  0  0  0  0  0
    2.8291   -1.9454    0.0000 H   0  0  0  0  0  0  0  0  0  0  0  0
    3.6760   -2.1724    0.0000 H   0  0  0  0  0  0  0  0  0  0  0  0
    3.9030   -1.3254    0.0000 H   0  0  0  0  0  0  0  0  0  0  0  0
    8.9282   -2.8894    0.0000 H   0  0  0  0  0  0  0  0  0  0  0  0
    4.9272    1.0406    0.0000 H   0  0  0  0  0  0  0  0  0  0  0  0
  1 10  1  0  0  0  0
  1 15  1  0  0  0  0
 13  2  1  6  0  0  0
  2 50  1  0  0  0  0
  3 12  1  0  0  0  0
  3 14  1  0  0  0  0
  3 37  1  0  0  0  0
  4  5  1  0  0  0  0
  4  6  1  0  0  0  0
  4  9  1  0  0  0  0
  4 22  1  0  0  0  0
  5  8  1  0  0  0  0
  5 25  1  0  0  0  0
  5 26  1  0  0  0  0
  6  7  1  0  0  0  0
  6 23  1  0  0  0  0
  6 24  1  0  0  0  0
  7  8  1  0  0  0  0
  7 27  1  0  0  0  0
  7 28  1  0  0  0  0
  8 29  1  0  0  0  0
  8 30  1  0  0  0  0
  9 10  1  0  0  0  0
  9 11  2  0  0  0  0
 10 16  2  0  0  0  0
 11 17  1  0  0  0  0
 11 31  1  0  0  0  0
 12 18  1  0  0  0  0
 12 19  1  0  0  0  0
 12 20  1  0  0  0  0
 13 14  1  0  0  0  0
 13 15  1  0  0  0  0
 13 32  1  0  0  0  0
 14 33  1  0  0  0  0
 14 34  1  0  0  0  0
 15 35  1  0  0  0  0
 15 36  1  0  0  0  0
 16 21  1  0  0  0  0
 16 38  1  0  0  0  0
 17 21  2  0  0  0  0
 17 39  1  0  0  0  0
 18 40  1  0  0  0  0
 18 41  1  0  0  0  0
 18 42  1  0  0  0  0
 19 43  1  0  0  0  0
 19 44  1  0  0  0  0
 19 45  1  0  0  0  0
 20 46  1  0  0  0  0
 20 47  1  0  0  0  0
 20 48  1  0  0  0  0
 21 49  1  0  0  0  0
M  END
> <PUBCHEM_COMPOUND_CID>
37464

> <PUBCHEM_COMPOUND_CANONICALIZED>
1

> <PUBCHEM_CACTVS_COMPLEXITY>
294

> <PUBCHEM_CACTVS_HBOND_ACCEPTOR>
3

> <PUBCHEM_CACTVS_HBOND_DONOR>
2

> <PUBCHEM_CACTVS_ROTATABLE_BOND>
7

> <PUBCHEM_CACTVS_SUBSKEYS>
AAADceB6MAAAAAAAAAAAAAAAAAAAAYAAAAAwAAAAAAAAAAABAAAAHgAQCAAADZzhmAYyBoLABgCAAiBCAAACCAAgIAAIiIAOCIgPNiKEMRqGOCCm0BGbqAeAwOAOgAAAAAAIAAAAAAAAABAAAAAAAAAAAA==

> <PUBCHEM_IUPAC_OPENEYE_NAME>
(2S)-1-(tert-butylamino)-3-(2-cyclopentylphenoxy)propan-2-ol

> <PUBCHEM_IUPAC_CAS_NAME>
(2S)-1-(tert-butylamino)-3-(2-cyclopentylphenoxy)-2-propanol

> <PUBCHEM_IUPAC_NAME>
(2S)-1-(tert-butylamino)-3-(2-cyclopentylphenoxy)propan-2-ol

> <PUBCHEM_IUPAC_SYSTEMATIC_NAME>
(2S)-1-(tert-butylamino)-3-(2-cyclopentylphenoxy)propan-2-ol

> <PUBCHEM_IUPAC_TRADITIONAL_NAME>
(2S)-1-(tert-butylamino)-3-(2-cyclopentylphenoxy)propan-2-ol

> <PUBCHEM_IUPAC_INCHI>
InChI=1S/C18H29NO2/c1-18(2,3)19-12-15(20)13-21-17-11-7-6-10-16(17)14-8-4-5-9-14/h6-7,10-11,14-15,19-20H,4-5,8-9,12-13H2,1-3H3/t15-/m0/s1

> <PUBCHEM_IUPAC_INCHIKEY>
KQXKVJAGOJTNJS-HNNXBMFYSA-N

> <PUBCHEM_XLOGP3>
4.2

> <PUBCHEM_EXACT_MASS>
291.219829

> <PUBCHEM_MOLECULAR_FORMULA>
C18H29NO2

> <PUBCHEM_MOLECULAR_WEIGHT>
291.42836

> <PUBCHEM_OPENEYE_CAN_SMILES>
CC(C)(C)NCC(COC1=CC=CC=C1C2CCCC2)O

> <PUBCHEM_OPENEYE_ISO_SMILES>
CC(C)(C)NC[C@@H](COC1=CC=CC=C1C2CCCC2)O

> <PUBCHEM_CACTVS_TPSA>
41.5

> <PUBCHEM_MONOISOTOPIC_WEIGHT>
291.219829

> <PUBCHEM_TOTAL_CHARGE>
0

> <PUBCHEM_HEAVY_ATOM_COUNT>
21

> <PUBCHEM_ATOM_DEF_STEREO_COUNT>
1

> <PUBCHEM_ATOM_UDEF_STEREO_COUNT>
0

> <PUBCHEM_BOND_DEF_STEREO_COUNT>
0

> <PUBCHEM_BOND_UDEF_STEREO_COUNT>
0

> <PUBCHEM_ISOTOPIC_ATOM_COUNT>
0

> <PUBCHEM_COMPONENT_COUNT>
1

> <PUBCHEM_CACTVS_TAUTO_COUNT>
1

> <PUBCHEM_COORDINATE_TYPE>
1
5
255

> <PUBCHEM_BONDANNOTATIONS>
10  16  8
11  17  8
16  21  8
17  21  8
13  2  6
9  10  8
9  11  8

$$$$

