23663974
  -OEChem-07051212542D

 71 74  0     1  0  0  0  0  0999 V2000
    7.0468    1.2042    0.0000 S   0  0  0  0  0  0  0  0  0  0  0  0
    4.4487    2.7042    0.0000 S   0  0  0  0  0  0  0  0  0  0  0  0
    6.1808    5.7042    0.0000 Na  0  3  0  0  0  0  0  0  0  0  0  0
    9.6267    3.4170    0.0000 O   0  0  0  0  0  0  0  0  0  0  0  0
   10.8540    2.2138    0.0000 O   0  0  0  0  0  0  0  0  0  0  0  0
    6.1808    4.7042    0.0000 O   0  5  0  0  0  0  0  0  0  0  0  0
    7.9128    4.7042    0.0000 O   0  0  0  0  0  0  0  0  0  0  0  0
   12.7101   -0.8773    0.0000 O   0  0  0  0  0  0  0  0  0  0  0  0
    9.8108   -1.6478    0.0000 O   0  0  0  0  0  0  0  0  0  0  0  0
    9.2892   -3.5786    0.0000 O   0  0  0  0  0  0  0  0  0  0  0  0
   15.1647    1.5672    0.0000 O   0  0  0  0  0  0  0  0  0  0  0  0
    7.9128    2.7042    0.0000 N   0  0  0  0  0  0  0  0  0  0  0  0
    9.6267    0.9915    0.0000 N   0  0  0  0  0  0  0  0  0  0  0  0
   11.0380   -0.4256    0.0000 N   0  0  0  0  0  0  0  0  0  0  0  0
   11.4829   -2.0995    0.0000 N   0  0  0  0  0  0  0  0  0  0  0  0
   10.9613   -4.0303    0.0000 N   0  0  0  0  0  0  0  0  0  0  0  0
    2.6691    2.7975    0.0000 N   0  0  0  0  0  0  0  0  0  0  0  0
    3.4782    4.1988    0.0000 N   0  0  0  0  0  0  0  0  0  0  0  0
    2.0000    3.5407    0.0000 N   0  0  0  0  0  0  0  0  0  0  0  0
    2.5000    4.4067    0.0000 N   0  0  0  0  0  0  0  0  0  0  0  0
    7.9128    1.7042    0.0000 C   0  0  1  0  0  0  0  0  0  0  0  0
    8.9211    1.7001    0.0000 C   0  0  1  0  0  0  0  0  0  0  0  0
    8.9211    2.7084    0.0000 C   0  0  0  0  0  0  0  0  0  0  0  0
    7.0468    3.2042    0.0000 C   0  0  0  0  0  0  0  0  0  0  0  0
    6.1808    2.7042    0.0000 C   0  0  0  0  0  0  0  0  0  0  0  0
    6.1808    1.7042    0.0000 C   0  0  0  0  0  0  0  0  0  0  0  0
   10.5932    1.2484    0.0000 C   0  0  0  0  0  0  0  0  0  0  0  0
    5.3147    3.2042    0.0000 C   0  0  0  0  0  0  0  0  0  0  0  0
   11.2988    0.5398    0.0000 C   0  0  1  0  0  0  0  0  0  0  0  0
    7.0468    4.2042    0.0000 C   0  0  0  0  0  0  0  0  0  0  0  0
   12.2653    0.7967    0.0000 C   0  0  0  0  0  0  0  0  0  0  0  0
   11.7437   -1.1341    0.0000 C   0  0  0  0  0  0  0  0  0  0  0  0
   12.1885   -2.8081    0.0000 C   0  0  0  0  0  0  0  0  0  0  0  0
   11.9277   -3.7735    0.0000 C   0  0  0  0  0  0  0  0  0  0  0  0
   12.9710    0.0881    0.0000 C   0  0  0  0  0  0  0  0  0  0  0  0
   12.5261    1.7620    0.0000 C   0  0  0  0  0  0  0  0  0  0  0  0
   10.5164   -2.3564    0.0000 C   0  0  0  0  0  0  0  0  0  0  0  0
   10.2556   -3.3217    0.0000 C   0  0  0  0  0  0  0  0  0  0  0  0
    3.5827    3.2042    0.0000 C   0  0  0  0  0  0  0  0  0  0  0  0
   10.7005   -4.9957    0.0000 C   0  0  0  0  0  0  0  0  0  0  0  0
   13.9374    0.3449    0.0000 C   0  0  0  0  0  0  0  0  0  0  0  0
   13.4926    2.0189    0.0000 C   0  0  0  0  0  0  0  0  0  0  0  0
   14.1982    1.3103    0.0000 C   0  0  0  0  0  0  0  0  0  0  0  0
   11.4061   -5.7042    0.0000 C   0  0  0  0  0  0  0  0  0  0  0  0
    2.4612    1.8194    0.0000 C   0  0  0  0  0  0  0  0  0  0  0  0
    8.1311    0.8828    0.0000 H   0  0  0  0  0  0  0  0  0  0  0  0
    8.6821    1.1280    0.0000 H   0  0  0  0  0  0  0  0  0  0  0  0
    9.4650    0.3930    0.0000 H   0  0  0  0  0  0  0  0  0  0  0  0
    5.5702    1.8119    0.0000 H   0  0  0  0  0  0  0  0  0  0  0  0
    5.9687    1.1216    0.0000 H   0  0  0  0  0  0  0  0  0  0  0  0
    5.7133    3.6792    0.0000 H   0  0  0  0  0  0  0  0  0  0  0  0
    4.9162    3.6792    0.0000 H   0  0  0  0  0  0  0  0  0  0  0  0
   11.7363    0.1005    0.0000 H   0  0  0  0  0  0  0  0  0  0  0  0
   10.4388   -0.5848    0.0000 H   0  0  0  0  0  0  0  0  0  0  0  0
   12.7499   -3.0712    0.0000 H   0  0  0  0  0  0  0  0  0  0  0  0
   12.5452   -2.3009    0.0000 H   0  0  0  0  0  0  0  0  0  0  0  0
   11.9805   -4.3912    0.0000 H   0  0  0  0  0  0  0  0  0  0  0  0
   12.5453   -3.8288    0.0000 H   0  0  0  0  0  0  0  0  0  0  0  0
   12.8093   -0.5104    0.0000 H   0  0  0  0  0  0  0  0  0  0  0  0
   12.0886    2.2014    0.0000 H   0  0  0  0  0  0  0  0  0  0  0  0
   10.1391   -4.7325    0.0000 H   0  0  0  0  0  0  0  0  0  0  0  0
   10.3438   -5.5028    0.0000 H   0  0  0  0  0  0  0  0  0  0  0  0
   14.3749   -0.0944    0.0000 H   0  0  0  0  0  0  0  0  0  0  0  0
   13.6543    2.6174    0.0000 H   0  0  0  0  0  0  0  0  0  0  0  0
   10.9668   -6.1418    0.0000 H   0  0  0  0  0  0  0  0  0  0  0  0
   11.8436   -6.1436    0.0000 H   0  0  0  0  0  0  0  0  0  0  0  0
   11.8454   -5.2668    0.0000 H   0  0  0  0  0  0  0  0  0  0  0  0
    1.8548    1.9483    0.0000 H   0  0  0  0  0  0  0  0  0  0  0  0
    2.3323    1.2129    0.0000 H   0  0  0  0  0  0  0  0  0  0  0  0
    3.0677    1.6905    0.0000 H   0  0  0  0  0  0  0  0  0  0  0  0
   15.3264    2.1657    0.0000 H   0  0  0  0  0  0  0  0  0  0  0  0
  1 21  1  0  0  0  0
  1 26  1  0  0  0  0
  2 28  1  0  0  0  0
  2 39  1  0  0  0  0
  4 23  2  0  0  0  0
  5 27  2  0  0  0  0
  6 30  1  0  0  0  0
  7 30  2  0  0  0  0
  8 32  2  0  0  0  0
  9 37  2  0  0  0  0
 10 38  2  0  0  0  0
 11 43  1  0  0  0  0
 11 71  1  0  0  0  0
 12 21  1  0  0  0  0
 12 23  1  0  0  0  0
 12 24  1  0  0  0  0
 22 13  1  1  0  0  0
 13 27  1  0  0  0  0
 13 48  1  0  0  0  0
 29 14  1  1  0  0  0
 14 32  1  0  0  0  0
 14 54  1  0  0  0  0
 15 32  1  0  0  0  0
 15 33  1  0  0  0  0
 15 37  1  0  0  0  0
 16 34  1  0  0  0  0
 16 38  1  0  0  0  0
 16 40  1  0  0  0  0
 17 19  1  0  0  0  0
 17 39  1  0  0  0  0
 17 45  1  0  0  0  0
 18 20  1  0  0  0  0
 18 39  2  0  0  0  0
 19 20  2  0  0  0  0
 21 22  1  0  0  0  0
 21 46  1  6  0  0  0
 22 23  1  0  0  0  0
 22 47  1  0  0  0  0
 24 25  2  0  0  0  0
 24 30  1  0  0  0  0
 25 26  1  0  0  0  0
 25 28  1  0  0  0  0
 26 49  1  0  0  0  0
 26 50  1  0  0  0  0
 27 29  1  0  0  0  0
 28 51  1  0  0  0  0
 28 52  1  0  0  0  0
 29 31  1  0  0  0  0
 29 53  1  0  0  0  0
 31 35  2  0  0  0  0
 31 36  1  0  0  0  0
 33 34  1  0  0  0  0
 33 55  1  0  0  0  0
 33 56  1  0  0  0  0
 34 57  1  0  0  0  0
 34 58  1  0  0  0  0
 35 41  1  0  0  0  0
 35 59  1  0  0  0  0
 36 42  2  0  0  0  0
 36 60  1  0  0  0  0
 37 38  1  0  0  0  0
 40 44  1  0  0  0  0
 40 61  1  0  0  0  0
 40 62  1  0  0  0  0
 41 43  2  0  0  0  0
 41 63  1  0  0  0  0
 42 43  1  0  0  0  0
 42 64  1  0  0  0  0
 44 65  1  0  0  0  0
 44 66  1  0  0  0  0
 44 67  1  0  0  0  0
 45 68  1  0  0  0  0
 45 69  1  0  0  0  0
 45 70  1  0  0  0  0
M  CHG  2   3   1   6  -1
M  END
> <PUBCHEM_COMPOUND_CID>
23663974

> <PUBCHEM_COMPOUND_CANONICALIZED>
1

> <PUBCHEM_CACTVS_COMPLEXITY>
1250

> <PUBCHEM_CACTVS_HBOND_ACCEPTOR>
13

> <PUBCHEM_CACTVS_HBOND_DONOR>
3

> <PUBCHEM_CACTVS_ROTATABLE_BOND>
9

> <PUBCHEM_CACTVS_SUBSKEYS>
AAADceB7/CBgAAAAAAAAAAAAAABYAWAAAAA8QIAAAAAQAAABwAAAHgQYCAAADCzF2ASzHofIAgiqAiXSfACCEANgoJANyIGODMiKZjqilTOUcAhs1zO4mQeY2IOOIAAAAAAAAABAAAAAAAAAAAAAAAAAAA==

> <PUBCHEM_IUPAC_OPENEYE_NAME>
sodium (6R,7R)-7-[[(2R)-2-[(4-ethyl-2,3-dioxo-piperazine-1-carbonyl)amino]-2-(4-hydroxyphenyl)acetyl]amino]-3-[(1-methyltetrazol-5-yl)sulfanylmethyl]-8-oxo-5-thia-1-azabicyclo[4.2.0]oct-2-ene-2-carboxylate

> <PUBCHEM_IUPAC_CAS_NAME>
sodium (6R,7R)-7-[[(2R)-2-[[(4-ethyl-2,3-dioxo-1-piperazinyl)-oxomethyl]amino]-2-(4-hydroxyphenyl)-1-oxoethyl]amino]-3-[[(1-methyl-5-tetrazolyl)thio]methyl]-8-oxo-5-thia-1-azabicyclo[4.2.0]oct-2-ene-2-carboxylate

> <PUBCHEM_IUPAC_NAME>
sodium (6R,7R)-7-[[(2R)-2-[(4-ethyl-2,3-dioxopiperazine-1-carbonyl)amino]-2-(4-hydroxyphenyl)acetyl]amino]-3-[(1-methyltetrazol-5-yl)sulfanylmethyl]-8-oxo-5-thia-1-azabicyclo[4.2.0]oct-2-ene-2-carboxylate

> <PUBCHEM_IUPAC_SYSTEMATIC_NAME>
sodium (6R,7R)-7-[[(2R)-2-[[4-ethyl-2,3-bis(oxidanylidene)piperazin-1-yl]carbonylamino]-2-(4-hydroxyphenyl)ethanoyl]amino]-3-[(1-methyl-1,2,3,4-tetrazol-5-yl)sulfanylmethyl]-8-oxidanylidene-5-thia-1-azabicyclo[4.2.0]oct-2-ene-2-carboxylate

> <PUBCHEM_IUPAC_TRADITIONAL_NAME>
sodium (6R,7R)-7-[[(2R)-2-[(4-ethyl-2,3-diketo-piperazine-1-carbonyl)amino]-2-(4-hydroxyphenyl)acetyl]amino]-8-keto-3-[[(1-methyltetrazol-5-yl)thio]methyl]-5-thia-1-azabicyclo[4.2.0]oct-2-ene-2-carboxylate

> <PUBCHEM_IUPAC_INCHI>
InChI=1S/C25H27N9O8S2.Na/c1-3-32-8-9-33(21(39)20(32)38)24(42)27-15(12-4-6-14(35)7-5-12)18(36)26-16-19(37)34-17(23(40)41)13(10-43-22(16)34)11-44-25-28-29-30-31(25)2;/h4-7,15-16,22,35H,3,8-11H2,1-2H3,(H,26,36)(H,27,42)(H,40,41);/q;+1/p-1/t15-,16-,22-;/m1./s1

> <PUBCHEM_IUPAC_INCHIKEY>
NCFTXMQPRQZFMZ-WERGMSTESA-M

> <PUBCHEM_EXACT_MASS>
667.124345

> <PUBCHEM_MOLECULAR_FORMULA>
C25H26N9NaO8S2

> <PUBCHEM_MOLECULAR_WEIGHT>
667.649209

> <PUBCHEM_OPENEYE_CAN_SMILES>
CCN1CCN(C(=O)C1=O)C(=O)NC(C2=CC=C(C=C2)O)C(=O)NC3C4N(C3=O)C(=C(CS4)CSC5=NN=NN5C)C(=O)[O-].[Na+]

> <PUBCHEM_OPENEYE_ISO_SMILES>
CCN1CCN(C(=O)C1=O)C(=O)N[C@H](C2=CC=C(C=C2)O)C(=O)N[C@H]3[C@@H]4N(C3=O)C(=C(CS4)CSC5=NN=NN5C)C(=O)[O-].[Na+]

> <PUBCHEM_CACTVS_TPSA>
274

> <PUBCHEM_MONOISOTOPIC_WEIGHT>
667.124345

> <PUBCHEM_TOTAL_CHARGE>
0

> <PUBCHEM_HEAVY_ATOM_COUNT>
45

> <PUBCHEM_ATOM_DEF_STEREO_COUNT>
3

> <PUBCHEM_ATOM_UDEF_STEREO_COUNT>
0

> <PUBCHEM_BOND_DEF_STEREO_COUNT>
0

> <PUBCHEM_BOND_UDEF_STEREO_COUNT>
0

> <PUBCHEM_ISOTOPIC_ATOM_COUNT>
0

> <PUBCHEM_COMPONENT_COUNT>
2

> <PUBCHEM_CACTVS_TAUTO_COUNT>
16

> <PUBCHEM_NONSTANDARDBOND>
3  6  7

> <PUBCHEM_COORDINATE_TYPE>
1
5
255

> <PUBCHEM_BONDANNOTATIONS>
22  13  5
29  14  5
17  19  8
17  39  8
18  20  8
18  39  8
19  20  8
21  46  6
31  35  8
31  36  8
35  41  8
36  42  8
41  43  8
42  43  8

$$$$

