56928141
  -OEChem-07051213152D

 42 44  0     1  0  0  0  0  0999 V2000
    5.1114   -0.2530    0.0000 O   0  0  0  0  0  0  0  0  0  0  0  0
    4.0041   -0.6531    0.0000 C   0  0  2  0  0  0  0  0  0  0  0  0
    3.0041   -0.6531    0.0000 C   0  0  1  0  0  0  0  0  0  0  0  0
    3.0000   -1.6614    0.0000 C   0  0  0  0  0  0  0  0  0  0  0  0
    5.3702    0.7129    0.0000 C   0  0  3  0  0  0  0  0  0  0  0  0
    4.0083   -1.6614    0.0000 C   0  0  0  0  0  0  0  0  0  0  0  0
    5.6290    1.6788    0.0000 C   0  0  3  0  0  0  0  0  0  0  0  0
    4.8924    2.6614    0.0000 C   0  0  0  0  0  0  0  0  0  0  0  0
    2.5041    0.2129    0.0000 C   0  0  0  0  0  0  0  0  0  0  0  0
    3.0041    1.0789    0.0000 C   0  0  0  0  0  0  0  0  0  0  0  0
    7.0749   -0.3318    0.0000 C   0  0  0  0  0  0  0  0  0  0  0  0
    7.4936    1.2311    0.0000 C   0  0  0  0  0  0  0  0  0  0  0  0
    7.8520    0.2976    0.0000 C   0  0  0  0  0  0  0  0  0  0  0  0
    2.9979   -2.6614    0.0000 C   0  0  0  0  0  0  0  0  0  0  0  0
    2.0000   -1.6594    0.0000 C   0  0  0  0  0  0  0  0  0  0  0  0
    5.8878    2.6447    0.0000 C   0  0  0  0  0  0  0  0  0  0  0  0
    4.8541   -0.6531    0.0000 H   0  0  0  0  0  0  0  0  0  0  0  0
    2.1541   -0.6531    0.0000 H   0  0  0  0  0  0  0  0  0  0  0  0
    4.0091   -2.2814    0.0000 H   0  0  0  0  0  0  0  0  0  0  0  0
    4.6283   -1.6597    0.0000 H   0  0  0  0  0  0  0  0  0  0  0  0
    5.2102    3.1938    0.0000 H   0  0  0  0  0  0  0  0  0  0  0  0
    4.2792    2.7534    0.0000 H   0  0  0  0  0  0  0  0  0  0  0  0
    2.0292    0.6114    0.0000 H   0  0  0  0  0  0  0  0  0  0  0  0
    2.0292   -0.1856    0.0000 H   0  0  0  0  0  0  0  0  0  0  0  0
    3.0195    1.6987    0.0000 H   0  0  0  0  0  0  0  0  0  0  0  0
    2.4073    1.2468    0.0000 H   0  0  0  0  0  0  0  0  0  0  0  0
    6.6932   -0.8203    0.0000 H   0  0  0  0  0  0  0  0  0  0  0  0
    7.5171   -0.7663    0.0000 H   0  0  0  0  0  0  0  0  0  0  0  0
    8.1051    1.3335    0.0000 H   0  0  0  0  0  0  0  0  0  0  0  0
    7.5153    1.8508    0.0000 H   0  0  0  0  0  0  0  0  0  0  0  0
    8.1897   -0.2224    0.0000 H   0  0  0  0  0  0  0  0  0  0  0  0
    8.4044    0.5790    0.0000 H   0  0  0  0  0  0  0  0  0  0  0  0
    2.3779   -2.6601    0.0000 H   0  0  0  0  0  0  0  0  0  0  0  0
    2.9967   -3.2814    0.0000 H   0  0  0  0  0  0  0  0  0  0  0  0
    3.6179   -2.6627    0.0000 H   0  0  0  0  0  0  0  0  0  0  0  0
    2.0013   -1.0394    0.0000 H   0  0  0  0  0  0  0  0  0  0  0  0
    1.3800   -1.6581    0.0000 H   0  0  0  0  0  0  0  0  0  0  0  0
    1.9987   -2.2794    0.0000 H   0  0  0  0  0  0  0  0  0  0  0  0
    6.4867    2.4843    0.0000 H   0  0  0  0  0  0  0  0  0  0  0  0
    6.0483    3.2436    0.0000 H   0  0  0  0  0  0  0  0  0  0  0  0
    5.2889    2.8052    0.0000 H   0  0  0  0  0  0  0  0  0  0  0  0
    5.5498   -0.6914    0.0000 H   0  0  0  0  0  0  0  0  0  0  0  0
  1  5  1  0  0  0  0
  1 42  1  0  0  0  0
  2  3  1  0  0  0  0
  2  5  1  0  0  0  0
  2  6  1  0  0  0  0
  2 17  1  1  0  0  0
  3  4  1  0  0  0  0
  3  9  1  0  0  0  0
  3 18  1  6  0  0  0
  4  6  1  0  0  0  0
  4 14  1  0  0  0  0
  4 15  1  0  0  0  0
  5  8  1  0  0  0  0
  5 11  1  0  0  0  0
  6 19  1  0  0  0  0
  6 20  1  0  0  0  0
  7  8  1  0  0  0  0
  7 10  1  0  0  0  0
  7 12  1  0  0  0  0
  7 16  1  0  0  0  0
  8 21  1  0  0  0  0
  8 22  1  0  0  0  0
  9 10  1  0  0  0  0
  9 23  1  0  0  0  0
  9 24  1  0  0  0  0
 10 25  1  0  0  0  0
 10 26  1  0  0  0  0
 11 13  1  0  0  0  0
 11 27  1  0  0  0  0
 11 28  1  0  0  0  0
 12 13  1  0  0  0  0
 12 29  1  0  0  0  0
 12 30  1  0  0  0  0
 13 31  1  0  0  0  0
 13 32  1  0  0  0  0
 14 33  1  0  0  0  0
 14 34  1  0  0  0  0
 14 35  1  0  0  0  0
 15 36  1  0  0  0  0
 15 37  1  0  0  0  0
 15 38  1  0  0  0  0
 16 39  1  0  0  0  0
 16 40  1  0  0  0  0
 16 41  1  0  0  0  0
M  END
> <PUBCHEM_COMPOUND_CID>
56928141

> <PUBCHEM_COMPOUND_CANONICALIZED>
1

> <PUBCHEM_CACTVS_COMPLEXITY>
309

> <PUBCHEM_CACTVS_HBOND_ACCEPTOR>
1

> <PUBCHEM_CACTVS_HBOND_DONOR>
1

> <PUBCHEM_CACTVS_ROTATABLE_BOND>
0

> <PUBCHEM_CACTVS_SUBSKEYS>
AAADceBwIAAAAAAAAAAAAAAAAABgAAAAAAAwAAAABgAAAGAAAAAAGgAACAAAD0SAgAACAAAAAgAAAAAAAAAAAAAAAAAAAAAAAAAAAAIAAAAAQAAEAAAAAAGAwPAPgAAAAAAAAAAAAAYAAAAAAAAAAAAAAA==

> <PUBCHEM_IUPAC_INCHI>
InChI=1S/C15H26O/c1-13(2)9-12-11(13)5-8-14(3)6-4-7-15(12,16)10-14/h11-12,16H,4-10H2,1-3H3/t11-,12+,14?,15?/m0/s1

> <PUBCHEM_IUPAC_INCHIKEY>
FUQAYSQLAOJBBC-CZWNDGCPSA-N

> <PUBCHEM_XLOGP3_AA>
4.2

> <PUBCHEM_EXACT_MASS>
222.198365

> <PUBCHEM_MOLECULAR_FORMULA>
C15H26O

> <PUBCHEM_MOLECULAR_WEIGHT>
222.36634

> <PUBCHEM_OPENEYE_CAN_SMILES>
CC1(CC2C1CCC3(CCCC2(C3)O)C)C

> <PUBCHEM_OPENEYE_ISO_SMILES>
CC1(C[C@@H]2[C@@H]1CCC3(CCCC2(C3)O)C)C

> <PUBCHEM_CACTVS_TPSA>
20.2

> <PUBCHEM_MONOISOTOPIC_WEIGHT>
222.198365

> <PUBCHEM_TOTAL_CHARGE>
0

> <PUBCHEM_HEAVY_ATOM_COUNT>
16

> <PUBCHEM_ATOM_DEF_STEREO_COUNT>
2

> <PUBCHEM_ATOM_UDEF_STEREO_COUNT>
2

> <PUBCHEM_BOND_DEF_STEREO_COUNT>
0

> <PUBCHEM_BOND_UDEF_STEREO_COUNT>
0

> <PUBCHEM_ISOTOPIC_ATOM_COUNT>
0

> <PUBCHEM_COMPONENT_COUNT>
1

> <PUBCHEM_CACTVS_TAUTO_COUNT>
1

> <PUBCHEM_COORDINATE_TYPE>
1
5
255

> <PUBCHEM_BONDANNOTATIONS>
5  1  3
2  17  5
3  18  6
7  16  3

$$$$

