442720
  -OEChem-07051212592D

 49 50  0     1  0  0  0  0  0999 V2000
    5.4641    0.3246    0.0000 O   0  0  0  0  0  0  0  0  0  0  0  0
    8.0622   -1.1754    0.0000 O   0  0  0  0  0  0  0  0  0  0  0  0
    9.8106   -1.2100    0.0000 O   0  0  0  0  0  0  0  0  0  0  0  0
    8.0622    2.8246    0.0000 O   0  0  0  0  0  0  0  0  0  0  0  0
    9.8106    2.8592    0.0000 O   0  0  0  0  0  0  0  0  0  0  0  0
    4.5981   -1.1754    0.0000 O   0  0  0  0  0  0  0  0  0  0  0  0
    6.3301   -0.1754    0.0000 C   0  0  2  0  0  0  0  0  0  0  0  0
    7.1962    0.3246    0.0000 C   0  0  0  0  0  0  0  0  0  0  0  0
    6.3301   -1.1754    0.0000 C   0  0  0  0  0  0  0  0  0  0  0  0
    8.9282    0.3246    0.0000 C   0  0  0  0  0  0  0  0  0  0  0  0
    8.0622   -0.1754    0.0000 C   0  0  0  0  0  0  0  0  0  0  0  0
    8.9282    1.3246    0.0000 C   0  0  0  0  0  0  0  0  0  0  0  0
    7.1962    1.3246    0.0000 C   0  0  0  0  0  0  0  0  0  0  0  0
    8.0622    1.8246    0.0000 C   0  0  0  0  0  0  0  0  0  0  0  0
    5.4641   -1.6754    0.0000 C   0  0  0  0  0  0  0  0  0  0  0  0
    9.8222   -0.2101    0.0000 C   0  0  0  0  0  0  0  0  0  0  0  0
    9.8222    1.8593    0.0000 C   0  0  0  0  0  0  0  0  0  0  0  0
    5.4641   -2.6754    0.0000 C   0  0  0  0  0  0  0  0  0  0  0  0
   10.7282    0.3038    0.0000 C   0  0  0  0  0  0  0  0  0  0  0  0
   10.7282    1.3454    0.0000 C   0  0  0  0  0  0  0  0  0  0  0  0
    4.5981   -0.1754    0.0000 C   0  0  0  0  0  0  0  0  0  0  0  0
    4.5981   -3.1754    0.0000 C   0  0  0  0  0  0  0  0  0  0  0  0
    6.3301   -3.1754    0.0000 C   0  0  0  0  0  0  0  0  0  0  0  0
    3.7320    0.3246    0.0000 C   0  0  0  0  0  0  0  0  0  0  0  0
    2.8660   -0.1754    0.0000 C   0  0  0  0  0  0  0  0  0  0  0  0
    2.0000    0.3246    0.0000 C   0  0  0  0  0  0  0  0  0  0  0  0
    2.8660   -1.1754    0.0000 C   0  0  0  0  0  0  0  0  0  0  0  0
    5.7932   -0.4854    0.0000 H   0  0  0  0  0  0  0  0  0  0  0  0
    6.5422   -1.7580    0.0000 H   0  0  0  0  0  0  0  0  0  0  0  0
    6.9407   -1.0677    0.0000 H   0  0  0  0  0  0  0  0  0  0  0  0
    6.6592    1.6346    0.0000 H   0  0  0  0  0  0  0  0  0  0  0  0
    4.9272   -1.3654    0.0000 H   0  0  0  0  0  0  0  0  0  0  0  0
   11.2639   -0.0083    0.0000 H   0  0  0  0  0  0  0  0  0  0  0  0
   11.2639    1.6575    0.0000 H   0  0  0  0  0  0  0  0  0  0  0  0
    4.2881   -2.6385    0.0000 H   0  0  0  0  0  0  0  0  0  0  0  0
    6.0201   -3.7123    0.0000 H   0  0  0  0  0  0  0  0  0  0  0  0
    6.8671   -3.4854    0.0000 H   0  0  0  0  0  0  0  0  0  0  0  0
    6.6401   -2.6385    0.0000 H   0  0  0  0  0  0  0  0  0  0  0  0
    4.0611   -3.4854    0.0000 H   0  0  0  0  0  0  0  0  0  0  0  0
    4.9081   -3.7123    0.0000 H   0  0  0  0  0  0  0  0  0  0  0  0
    3.7320    0.9446    0.0000 H   0  0  0  0  0  0  0  0  0  0  0  0
   10.3439   -1.5262    0.0000 H   0  0  0  0  0  0  0  0  0  0  0  0
   10.3439    3.1754    0.0000 H   0  0  0  0  0  0  0  0  0  0  0  0
    2.3100    0.8615    0.0000 H   0  0  0  0  0  0  0  0  0  0  0  0
    1.4631    0.6346    0.0000 H   0  0  0  0  0  0  0  0  0  0  0  0
    1.6900   -0.2123    0.0000 H   0  0  0  0  0  0  0  0  0  0  0  0
    2.2460   -1.1754    0.0000 H   0  0  0  0  0  0  0  0  0  0  0  0
    2.8660   -1.7954    0.0000 H   0  0  0  0  0  0  0  0  0  0  0  0
    3.4860   -1.1754    0.0000 H   0  0  0  0  0  0  0  0  0  0  0  0
  7  1  1  6  0  0  0
  1 21  1  0  0  0  0
  2 11  2  0  0  0  0
  3 16  1  0  0  0  0
  3 42  1  0  0  0  0
  4 14  2  0  0  0  0
  5 17  1  0  0  0  0
  5 43  1  0  0  0  0
  6 21  2  0  0  0  0
  7  8  1  0  0  0  0
  7  9  1  0  0  0  0
  7 28  1  0  0  0  0
  8 11  1  0  0  0  0
  8 13  2  0  0  0  0
  9 15  1  0  0  0  0
  9 29  1  0  0  0  0
  9 30  1  0  0  0  0
 10 11  1  0  0  0  0
 10 12  1  0  0  0  0
 10 16  2  0  0  0  0
 12 14  1  0  0  0  0
 12 17  2  0  0  0  0
 13 14  1  0  0  0  0
 13 31  1  0  0  0  0
 15 18  2  0  0  0  0
 15 32  1  0  0  0  0
 16 19  1  0  0  0  0
 17 20  1  0  0  0  0
 18 22  1  0  0  0  0
 18 23  1  0  0  0  0
 19 20  2  0  0  0  0
 19 33  1  0  0  0  0
 20 34  1  0  0  0  0
 21 24  1  0  0  0  0
 22 35  1  0  0  0  0
 22 39  1  0  0  0  0
 22 40  1  0  0  0  0
 23 36  1  0  0  0  0
 23 37  1  0  0  0  0
 23 38  1  0  0  0  0
 24 25  2  0  0  0  0
 24 41  1  0  0  0  0
 25 26  1  0  0  0  0
 25 27  1  0  0  0  0
 26 44  1  0  0  0  0
 26 45  1  0  0  0  0
 26 46  1  0  0  0  0
 27 47  1  0  0  0  0
 27 48  1  0  0  0  0
 27 49  1  0  0  0  0
M  END
> <PUBCHEM_COMPOUND_CID>
442720

> <PUBCHEM_COMPOUND_CANONICALIZED>
1

> <PUBCHEM_CACTVS_COMPLEXITY>
706

> <PUBCHEM_CACTVS_HBOND_ACCEPTOR>
6

> <PUBCHEM_CACTVS_HBOND_DONOR>
2

> <PUBCHEM_CACTVS_ROTATABLE_BOND>
6

> <PUBCHEM_CACTVS_SUBSKEYS>
AAADceB4OAAAAAAAAAAAAAAAAAAAAAAAAAAwQAAAAAAAAACBAAAAGgAACAAADBSgmAIyDoAABgCIAqDSCAACAAAkIAAIiAEGCMgIJjaCNRKCcUAk4BEIuYfL6PyOgQABAAAYAAACAAIAADAAAAAAAAAAAA==

> <PUBCHEM_IUPAC_OPENEYE_NAME>
[(1S)-1-(5,8-dihydroxy-1,4-dioxo-2-naphthyl)-4-methyl-pent-3-enyl] 3-methylbut-2-enoate

> <PUBCHEM_IUPAC_CAS_NAME>
3-methyl-2-butenoic acid [(1S)-1-(5,8-dihydroxy-1,4-dioxo-2-naphthalenyl)-4-methylpent-3-enyl] ester

> <PUBCHEM_IUPAC_NAME>
[(1S)-1-(5,8-dihydroxy-1,4-dioxonaphthalen-2-yl)-4-methylpent-3-enyl] 3-methylbut-2-enoate

> <PUBCHEM_IUPAC_SYSTEMATIC_NAME>
[(1S)-1-[5,8-bis(oxidanyl)-1,4-bis(oxidanylidene)naphthalen-2-yl]-4-methyl-pent-3-enyl] 3-methylbut-2-enoate

> <PUBCHEM_IUPAC_TRADITIONAL_NAME>
3-methylbut-2-enoic acid [(1S)-1-(5,8-dihydroxy-1,4-diketo-2-naphthyl)-4-methyl-pent-3-enyl] ester

> <PUBCHEM_IUPAC_INCHI>
InChI=1S/C21H22O6/c1-11(2)5-8-17(27-18(25)9-12(3)4)13-10-16(24)19-14(22)6-7-15(23)20(19)21(13)26/h5-7,9-10,17,22-23H,8H2,1-4H3/t17-/m0/s1

> <PUBCHEM_IUPAC_INCHIKEY>
BATBOVZTQBLKIL-KRWDZBQOSA-N

> <PUBCHEM_XLOGP3_AA>
5

> <PUBCHEM_EXACT_MASS>
370.141638

> <PUBCHEM_MOLECULAR_FORMULA>
C21H22O6

> <PUBCHEM_MOLECULAR_WEIGHT>
370.39578

> <PUBCHEM_OPENEYE_CAN_SMILES>
CC(=CCC(C1=CC(=O)C2=C(C=CC(=C2C1=O)O)O)OC(=O)C=C(C)C)C

> <PUBCHEM_OPENEYE_ISO_SMILES>
CC(=CC[C@@H](C1=CC(=O)C2=C(C=CC(=C2C1=O)O)O)OC(=O)C=C(C)C)C

> <PUBCHEM_CACTVS_TPSA>
101

> <PUBCHEM_MONOISOTOPIC_WEIGHT>
370.141638

> <PUBCHEM_TOTAL_CHARGE>
0

> <PUBCHEM_HEAVY_ATOM_COUNT>
27

> <PUBCHEM_ATOM_DEF_STEREO_COUNT>
1

> <PUBCHEM_ATOM_UDEF_STEREO_COUNT>
0

> <PUBCHEM_BOND_DEF_STEREO_COUNT>
0

> <PUBCHEM_BOND_UDEF_STEREO_COUNT>
0

> <PUBCHEM_ISOTOPIC_ATOM_COUNT>
0

> <PUBCHEM_COMPONENT_COUNT>
1

> <PUBCHEM_CACTVS_TAUTO_COUNT>
15

> <PUBCHEM_COORDINATE_TYPE>
1
5
255

> <PUBCHEM_BONDANNOTATIONS>
7  1  6
10  12  8
10  16  8
12  17  8
16  19  8
17  20  8
19  20  8

$$$$

