94204
  -OEChem-07051212562D

 84 88  0     1  0  0  0  0  0999 V2000
    2.5381   -3.2456    0.0000 O   0  0  0  0  0  0  0  0  0  0  0  0
    6.0682   -1.2214    0.0000 C   0  0  1  0  0  0  0  0  0  0  0  0
    5.2022   -1.7214    0.0000 C   0  0  2  0  0  0  0  0  0  0  0  0
    5.2020   -0.7210    0.0000 C   0  0  0  0  0  0  0  0  0  0  0  0
    6.9343   -1.7214    0.0000 C   0  0  2  0  0  0  0  0  0  0  0  0
    5.2022   -2.7214    0.0000 C   0  0  1  0  0  0  0  0  0  0  0  0
    7.8443   -1.2146    0.0000 C   0  0  1  0  0  0  0  0  0  0  0  0
    6.0522   -0.1799    0.0000 C   0  0  0  0  0  0  0  0  0  0  0  0
    7.8523   -0.1730    0.0000 C   0  0  2  0  0  0  0  0  0  0  0  0
    4.3083   -1.1868    0.0000 C   0  0  0  0  0  0  0  0  0  0  0  0
    6.9343   -2.7214    0.0000 C   0  0  0  0  0  0  0  0  0  0  0  0
    6.0682   -3.2214    0.0000 C   0  0  0  0  0  0  0  0  0  0  0  0
    6.9502    0.3478    0.0000 C   0  0  0  0  0  0  0  0  0  0  0  0
    4.3083   -3.2561    0.0000 C   0  0  0  0  0  0  0  0  0  0  0  0
    8.8403    0.1368    0.0000 C   0  0  2  0  0  0  0  0  0  0  0  0
    8.8274   -1.5396    0.0000 C   0  0  0  0  0  0  0  0  0  0  0  0
    3.4022   -1.7006    0.0000 C   0  0  0  0  0  0  0  0  0  0  0  0
    3.4022   -2.7423    0.0000 C   0  0  2  0  0  0  0  0  0  0  0  0
    9.4418   -0.7061    0.0000 C   0  0  0  0  0  0  0  0  0  0  0  0
    7.8366   -2.2146    0.0000 C   0  0  0  0  0  0  0  0  0  0  0  0
    7.8600    0.8270    0.0000 C   0  0  0  0  0  0  0  0  0  0  0  0
    9.1583    1.0849    0.0000 C   0  0  1  0  0  0  0  0  0  0  0  0
    3.8183   -4.1279    0.0000 C   0  0  0  0  0  0  0  0  0  0  0  0
    4.8183   -4.1163    0.0000 C   0  0  0  0  0  0  0  0  0  0  0  0
   10.1384    1.2836    0.0000 C   0  0  0  0  0  0  0  0  0  0  0  0
    8.4962    1.8343    0.0000 C   0  0  0  0  0  0  0  0  0  0  0  0
   10.4564    2.2317    0.0000 C   0  0  0  0  0  0  0  0  0  0  0  0
   11.4364    2.4303    0.0000 C   0  0  0  0  0  0  0  0  0  0  0  0
   11.7544    3.3784    0.0000 C   0  0  0  0  0  0  0  0  0  0  0  0
   12.0985    1.6809    0.0000 C   0  0  0  0  0  0  0  0  0  0  0  0
   12.7345    3.5771    0.0000 C   0  0  0  0  0  0  0  0  0  0  0  0
   11.0923    4.1279    0.0000 C   0  0  0  0  0  0  0  0  0  0  0  0
    5.4141   -0.1384    0.0000 H   0  0  0  0  0  0  0  0  0  0  0  0
    4.5914   -0.6134    0.0000 H   0  0  0  0  0  0  0  0  0  0  0  0
    7.6671   -2.1521    0.0000 H   0  0  0  0  0  0  0  0  0  0  0  0
    5.2088   -3.5714    0.0000 H   0  0  0  0  0  0  0  0  0  0  0  0
    5.8342    0.4005    0.0000 H   0  0  0  0  0  0  0  0  0  0  0  0
    5.4431   -0.2954    0.0000 H   0  0  0  0  0  0  0  0  0  0  0  0
    4.7129   -0.7170    0.0000 H   0  0  0  0  0  0  0  0  0  0  0  0
    3.9147   -0.7078    0.0000 H   0  0  0  0  0  0  0  0  0  0  0  0
    7.1463   -3.3041    0.0000 H   0  0  0  0  0  0  0  0  0  0  0  0
    7.5449   -2.6138    0.0000 H   0  0  0  0  0  0  0  0  0  0  0  0
    5.6697   -3.6964    0.0000 H   0  0  0  0  0  0  0  0  0  0  0  0
    6.4668   -3.6964    0.0000 H   0  0  0  0  0  0  0  0  0  0  0  0
    7.3475    0.8238    0.0000 H   0  0  0  0  0  0  0  0  0  0  0  0
    6.5493    0.8207    0.0000 H   0  0  0  0  0  0  0  0  0  0  0  0
    9.6810    0.2622    0.0000 H   0  0  0  0  0  0  0  0  0  0  0  0
    8.5720   -2.1046    0.0000 H   0  0  0  0  0  0  0  0  0  0  0  0
    9.3624   -1.8530    0.0000 H   0  0  0  0  0  0  0  0  0  0  0  0
    3.1932   -1.1170    0.0000 H   0  0  0  0  0  0  0  0  0  0  0  0
    2.7914   -1.8067    0.0000 H   0  0  0  0  0  0  0  0  0  0  0  0
    2.8647   -2.4333    0.0000 H   0  0  0  0  0  0  0  0  0  0  0  0
    9.8994   -1.1244    0.0000 H   0  0  0  0  0  0  0  0  0  0  0  0
    9.9058   -0.2949    0.0000 H   0  0  0  0  0  0  0  0  0  0  0  0
    7.2166   -2.2098    0.0000 H   0  0  0  0  0  0  0  0  0  0  0  0
    7.8318   -2.8346    0.0000 H   0  0  0  0  0  0  0  0  0  0  0  0
    8.4566   -2.2194    0.0000 H   0  0  0  0  0  0  0  0  0  0  0  0
    8.4800    0.8222    0.0000 H   0  0  0  0  0  0  0  0  0  0  0  0
    7.8648    1.4470    0.0000 H   0  0  0  0  0  0  0  0  0  0  0  0
    7.2400    0.8317    0.0000 H   0  0  0  0  0  0  0  0  0  0  0  0
    9.3555    1.6727    0.0000 H   0  0  0  0  0  0  0  0  0  0  0  0
    3.2778   -3.8241    0.0000 H   0  0  0  0  0  0  0  0  0  0  0  0
    3.5146   -4.6684    0.0000 H   0  0  0  0  0  0  0  0  0  0  0  0
    4.3588   -4.4316    0.0000 H   0  0  0  0  0  0  0  0  0  0  0  0
    4.2850   -4.4325    0.0000 H   0  0  0  0  0  0  0  0  0  0  0  0
    5.1344   -4.6496    0.0000 H   0  0  0  0  0  0  0  0  0  0  0  0
    5.3516   -3.8001    0.0000 H   0  0  0  0  0  0  0  0  0  0  0  0
    2.0000   -2.9377    0.0000 H   0  0  0  0  0  0  0  0  0  0  0  0
   10.1542    0.6638    0.0000 H   0  0  0  0  0  0  0  0  0  0  0  0
   10.7515    1.1915    0.0000 H   0  0  0  0  0  0  0  0  0  0  0  0
    8.9609    2.2448    0.0000 H   0  0  0  0  0  0  0  0  0  0  0  0
    8.0857    2.2990    0.0000 H   0  0  0  0  0  0  0  0  0  0  0  0
    8.0316    1.4238    0.0000 H   0  0  0  0  0  0  0  0  0  0  0  0
   10.4406    2.8515    0.0000 H   0  0  0  0  0  0  0  0  0  0  0  0
    9.8432    2.3238    0.0000 H   0  0  0  0  0  0  0  0  0  0  0  0
   11.9516    3.9663    0.0000 H   0  0  0  0  0  0  0  0  0  0  0  0
   11.9014    1.0931    0.0000 H   0  0  0  0  0  0  0  0  0  0  0  0
   12.7062    1.8041    0.0000 H   0  0  0  0  0  0  0  0  0  0  0  0
   12.8577    2.9695    0.0000 H   0  0  0  0  0  0  0  0  0  0  0  0
   13.3421    3.7003    0.0000 H   0  0  0  0  0  0  0  0  0  0  0  0
   11.5570    4.5384    0.0000 H   0  0  0  0  0  0  0  0  0  0  0  0
   10.6818    4.5925    0.0000 H   0  0  0  0  0  0  0  0  0  0  0  0
   10.6277    3.7174    0.0000 H   0  0  0  0  0  0  0  0  0  0  0  0
   12.6113    4.1848    0.0000 H   0  0  0  0  0  0  0  0  0  0  0  0
 18  1  1  1  0  0  0
  1 68  1  0  0  0  0
  2  3  1  0  0  0  0
  2  4  1  1  0  0  0
  2  5  1  0  0  0  0
  2  8  1  0  0  0  0
  3  4  1  1  0  0  0
  3  6  1  0  0  0  0
  3 10  1  0  0  0  0
  4 33  1  0  0  0  0
  4 34  1  0  0  0  0
  5  7  1  0  0  0  0
  5 11  1  0  0  0  0
  5 35  1  1  0  0  0
  6 12  1  0  0  0  0
  6 14  1  0  0  0  0
  6 36  1  6  0  0  0
  7  9  1  0  0  0  0
  7 16  1  0  0  0  0
  7 20  1  6  0  0  0
  8 13  1  0  0  0  0
  8 37  1  0  0  0  0
  8 38  1  0  0  0  0
  9 13  1  0  0  0  0
  9 15  1  0  0  0  0
  9 21  1  1  0  0  0
 10 17  1  0  0  0  0
 10 39  1  0  0  0  0
 10 40  1  0  0  0  0
 11 12  1  0  0  0  0
 11 41  1  0  0  0  0
 11 42  1  0  0  0  0
 12 43  1  0  0  0  0
 12 44  1  0  0  0  0
 13 45  1  0  0  0  0
 13 46  1  0  0  0  0
 14 18  1  0  0  0  0
 14 23  1  0  0  0  0
 14 24  1  0  0  0  0
 15 19  1  0  0  0  0
 15 22  1  0  0  0  0
 15 47  1  6  0  0  0
 16 19  1  0  0  0  0
 16 48  1  0  0  0  0
 16 49  1  0  0  0  0
 17 18  1  0  0  0  0
 17 50  1  0  0  0  0
 17 51  1  0  0  0  0
 18 52  1  0  0  0  0
 19 53  1  0  0  0  0
 19 54  1  0  0  0  0
 20 55  1  0  0  0  0
 20 56  1  0  0  0  0
 20 57  1  0  0  0  0
 21 58  1  0  0  0  0
 21 59  1  0  0  0  0
 21 60  1  0  0  0  0
 22 25  1  0  0  0  0
 22 26  1  6  0  0  0
 22 61  1  0  0  0  0
 23 62  1  0  0  0  0
 23 63  1  0  0  0  0
 23 64  1  0  0  0  0
 24 65  1  0  0  0  0
 24 66  1  0  0  0  0
 24 67  1  0  0  0  0
 25 27  1  0  0  0  0
 25 69  1  0  0  0  0
 25 70  1  0  0  0  0
 26 71  1  0  0  0  0
 26 72  1  0  0  0  0
 26 73  1  0  0  0  0
 27 28  1  0  0  0  0
 27 74  1  0  0  0  0
 27 75  1  0  0  0  0
 28 29  1  0  0  0  0
 28 30  2  0  0  0  0
 29 31  1  0  0  0  0
 29 32  1  0  0  0  0
 29 76  1  0  0  0  0
 30 77  1  0  0  0  0
 30 78  1  0  0  0  0
 31 79  1  0  0  0  0
 31 80  1  0  0  0  0
 31 84  1  0  0  0  0
 32 81  1  0  0  0  0
 32 82  1  0  0  0  0
 32 83  1  0  0  0  0
M  END
> <PUBCHEM_COMPOUND_CID>
94204

> <PUBCHEM_COMPOUND_CANONICALIZED>
1

> <PUBCHEM_CACTVS_COMPLEXITY>
779

> <PUBCHEM_CACTVS_HBOND_ACCEPTOR>
1

> <PUBCHEM_CACTVS_HBOND_DONOR>
1

> <PUBCHEM_CACTVS_ROTATABLE_BOND>
5

> <PUBCHEM_CACTVS_SUBSKEYS>
AAADcfB4IAAAAAAAAAAAAAAAGAAAAYAAAAAwYMAABgAAAGDAAAAAGgAACAAADxSggAICAAAAAgCAAgBCAAAAAAAgAAAAAAAAAAgAEAIAAQAAQAAEgAAAAAGAwPAPgAAAAAAAAADAAAYAADAAAQAACAAAAA==

> <PUBCHEM_IUPAC_INCHI>
InChI=1S/C31H52O/c1-20(2)21(3)9-10-22(4)23-13-15-29(8)25-12-11-24-27(5,6)26(32)14-16-30(24)19-31(25,30)18-17-28(23,29)7/h20,22-26,32H,3,9-19H2,1-2,4-8H3/t22-,23-,24+,25+,26+,28-,29+,30-,31+/m1/s1

> <PUBCHEM_IUPAC_INCHIKEY>
BDHQMRXFDYJGII-UEBIAWITSA-N

> <PUBCHEM_XLOGP3_AA>
10.3

> <PUBCHEM_EXACT_MASS>
440.401816

> <PUBCHEM_MOLECULAR_FORMULA>
C31H52O

> <PUBCHEM_MOLECULAR_WEIGHT>
440.74398

> <PUBCHEM_OPENEYE_CAN_SMILES>
CC(C)C(=C)CCC(C)C1CCC2(C1(CCC34C2CCC5C3(C4)CCC(C5(C)C)O)C)C

> <PUBCHEM_OPENEYE_ISO_SMILES>
C[C@H](CCC(=C)C(C)C)[C@H]1CC[C@@]2([C@@]1(CC[C@]34[C@H]2CC[C@@H]5[C@]3(C4)CC[C@@H](C5(C)C)O)C)C

> <PUBCHEM_CACTVS_TPSA>
20.2

> <PUBCHEM_MONOISOTOPIC_WEIGHT>
440.401816

> <PUBCHEM_TOTAL_CHARGE>
0

> <PUBCHEM_HEAVY_ATOM_COUNT>
32

> <PUBCHEM_ATOM_DEF_STEREO_COUNT>
9

> <PUBCHEM_ATOM_UDEF_STEREO_COUNT>
0

> <PUBCHEM_BOND_DEF_STEREO_COUNT>
0

> <PUBCHEM_BOND_UDEF_STEREO_COUNT>
0

> <PUBCHEM_ISOTOPIC_ATOM_COUNT>
0

> <PUBCHEM_COMPONENT_COUNT>
1

> <PUBCHEM_CACTVS_TAUTO_COUNT>
1

> <PUBCHEM_COORDINATE_TYPE>
1
5
255

> <PUBCHEM_BONDANNOTATIONS>
18  1  5
15  47  6
2  4  5
22  26  6
3  4  5
5  35  5
6  36  6
7  20  6
9  21  5

$$$$

