122840
  -OEChem-07051213092D

 31 33  0     0  0  0  0  0  0999 V2000
    6.4144    2.0273    0.0000 O   0  0  0  0  0  0  0  0  0  0  0  0
    4.6660    1.9927    0.0000 O   0  0  0  0  0  0  0  0  0  0  0  0
    2.9176    2.0273    0.0000 O   0  0  0  0  0  0  0  0  0  0  0  0
    8.1923   -2.0314    0.0000 O   0  0  0  0  0  0  0  0  0  0  0  0
    4.6660   -1.0073    0.0000 C   0  0  0  0  0  0  0  0  0  0  0  0
    5.5321   -0.5073    0.0000 C   0  0  0  0  0  0  0  0  0  0  0  0
    3.8000   -0.5073    0.0000 C   0  0  0  0  0  0  0  0  0  0  0  0
    5.5321    0.4927    0.0000 C   0  0  0  0  0  0  0  0  0  0  0  0
    3.8000    0.4927    0.0000 C   0  0  0  0  0  0  0  0  0  0  0  0
    4.6660    0.9927    0.0000 C   0  0  0  0  0  0  0  0  0  0  0  0
    6.4260   -1.0420    0.0000 C   0  0  0  0  0  0  0  0  0  0  0  0
    6.4260    1.0274    0.0000 C   0  0  0  0  0  0  0  0  0  0  0  0
    7.3321   -0.5281    0.0000 C   0  0  0  0  0  0  0  0  0  0  0  0
    2.9061   -1.0420    0.0000 C   0  0  0  0  0  0  0  0  0  0  0  0
    2.9061    1.0274    0.0000 C   0  0  0  0  0  0  0  0  0  0  0  0
    7.3321    0.5135    0.0000 C   0  0  0  0  0  0  0  0  0  0  0  0
    2.0000   -0.5281    0.0000 C   0  0  0  0  0  0  0  0  0  0  0  0
    2.0000    0.5135    0.0000 C   0  0  0  0  0  0  0  0  0  0  0  0
    8.1962   -1.0314    0.0000 C   0  0  0  0  0  0  0  0  0  0  0  0
    4.2675   -1.4822    0.0000 H   0  0  0  0  0  0  0  0  0  0  0  0
    5.0646   -1.4822    0.0000 H   0  0  0  0  0  0  0  0  0  0  0  0
    6.4188   -1.6619    0.0000 H   0  0  0  0  0  0  0  0  0  0  0  0
    2.9132   -1.6619    0.0000 H   0  0  0  0  0  0  0  0  0  0  0  0
    7.8678    0.8256    0.0000 H   0  0  0  0  0  0  0  0  0  0  0  0
    1.4643   -0.8402    0.0000 H   0  0  0  0  0  0  0  0  0  0  0  0
    1.4643    0.8256    0.0000 H   0  0  0  0  0  0  0  0  0  0  0  0
    8.8063   -1.1414    0.0000 H   0  0  0  0  0  0  0  0  0  0  0  0
    8.4105   -0.4496    0.0000 H   0  0  0  0  0  0  0  0  0  0  0  0
    6.9478    2.3435    0.0000 H   0  0  0  0  0  0  0  0  0  0  0  0
    2.3843    2.3435    0.0000 H   0  0  0  0  0  0  0  0  0  0  0  0
    8.7280   -2.3435    0.0000 H   0  0  0  0  0  0  0  0  0  0  0  0
  1 12  1  0  0  0  0
  1 29  1  0  0  0  0
  2 10  2  0  0  0  0
  3 15  1  0  0  0  0
  3 30  1  0  0  0  0
  4 19  1  0  0  0  0
  4 31  1  0  0  0  0
  5  6  1  0  0  0  0
  5  7  1  0  0  0  0
  5 20  1  0  0  0  0
  5 21  1  0  0  0  0
  6  8  2  0  0  0  0
  6 11  1  0  0  0  0
  7  9  2  0  0  0  0
  7 14  1  0  0  0  0
  8 10  1  0  0  0  0
  8 12  1  0  0  0  0
  9 10  1  0  0  0  0
  9 15  1  0  0  0  0
 11 13  2  0  0  0  0
 11 22  1  0  0  0  0
 12 16  2  0  0  0  0
 13 16  1  0  0  0  0
 13 19  1  0  0  0  0
 14 17  2  0  0  0  0
 14 23  1  0  0  0  0
 15 18  2  0  0  0  0
 16 24  1  0  0  0  0
 17 18  1  0  0  0  0
 17 25  1  0  0  0  0
 18 26  1  0  0  0  0
 19 27  1  0  0  0  0
 19 28  1  0  0  0  0
M  END
> <PUBCHEM_COMPOUND_CID>
122840

> <PUBCHEM_COMPOUND_CANONICALIZED>
1

> <PUBCHEM_CACTVS_COMPLEXITY>
356

> <PUBCHEM_CACTVS_HBOND_ACCEPTOR>
4

> <PUBCHEM_CACTVS_HBOND_DONOR>
3

> <PUBCHEM_CACTVS_ROTATABLE_BOND>
1

> <PUBCHEM_CACTVS_SUBSKEYS>
AAADccBwOAAAAAAAAAAAAAAAAAAAAAAAAAAwYMAAAAAAAADBQAAAGgAACAAADASgmAIwBoAAAgCIAqBSAAACAAAkIAAIiAEGCMgINjaCFRKAcUAk4BEImQfI6PSOwAADAAAYAACAAAYAADAAAAAAAAAAAA==

> <PUBCHEM_IUPAC_OPENEYE_NAME>
1,8-dihydroxy-3-(hydroxymethyl)-10H-anthracen-9-one

> <PUBCHEM_IUPAC_CAS_NAME>
1,8-dihydroxy-3-(hydroxymethyl)-10H-anthracen-9-one

> <PUBCHEM_IUPAC_NAME>
1,8-dihydroxy-3-(hydroxymethyl)-10H-anthracen-9-one

> <PUBCHEM_IUPAC_SYSTEMATIC_NAME>
3-(hydroxymethyl)-1,8-bis(oxidanyl)-10H-anthracen-9-one

> <PUBCHEM_IUPAC_TRADITIONAL_NAME>
1,8-dihydroxy-3-methylol-10H-anthracen-9-one

> <PUBCHEM_IUPAC_INCHI>
InChI=1S/C15H12O4/c16-7-8-4-10-6-9-2-1-3-11(17)13(9)15(19)14(10)12(18)5-8/h1-5,16-18H,6-7H2

> <PUBCHEM_IUPAC_INCHIKEY>
AVZIASIVCYCZND-UHFFFAOYSA-N

> <PUBCHEM_XLOGP3_AA>
2.3

> <PUBCHEM_EXACT_MASS>
256.073559

> <PUBCHEM_MOLECULAR_FORMULA>
C15H12O4

> <PUBCHEM_MOLECULAR_WEIGHT>
256.25338

> <PUBCHEM_OPENEYE_CAN_SMILES>
C1C2=C(C(=CC=C2)O)C(=O)C3=C(C=C(C=C31)CO)O

> <PUBCHEM_OPENEYE_ISO_SMILES>
C1C2=C(C(=CC=C2)O)C(=O)C3=C(C=C(C=C31)CO)O

> <PUBCHEM_CACTVS_TPSA>
77.8

> <PUBCHEM_MONOISOTOPIC_WEIGHT>
256.073559

> <PUBCHEM_TOTAL_CHARGE>
0

> <PUBCHEM_HEAVY_ATOM_COUNT>
19

> <PUBCHEM_ATOM_DEF_STEREO_COUNT>
0

> <PUBCHEM_ATOM_UDEF_STEREO_COUNT>
0

> <PUBCHEM_BOND_DEF_STEREO_COUNT>
0

> <PUBCHEM_BOND_UDEF_STEREO_COUNT>
0

> <PUBCHEM_ISOTOPIC_ATOM_COUNT>
0

> <PUBCHEM_COMPONENT_COUNT>
1

> <PUBCHEM_CACTVS_TAUTO_COUNT>
89

> <PUBCHEM_COORDINATE_TYPE>
1
5
255

> <PUBCHEM_BONDANNOTATIONS>
11  13  8
12  16  8
13  16  8
14  17  8
15  18  8
17  18  8
6  11  8
6  8  8
7  14  8
7  9  8
8  12  8
9  15  8

$$$$

