443003
  -OEChem-07051213002D

 28 29  0     1  0  0  0  0  0999 V2000
    2.5369   -1.1753    0.0000 O   0  0  0  0  0  0  0  0  0  0  0  0
    5.4755   -2.3692    0.0000 O   0  0  0  0  0  0  0  0  0  0  0  0
    3.7813   -2.7293    0.0000 O   0  0  0  0  0  0  0  0  0  0  0  0
    5.3739    2.1096    0.0000 N   0  0  3  0  0  0  0  0  0  0  0  0
    5.8517    0.1611    0.0000 C   0  0  3  0  0  0  0  0  0  0  0  0
    6.1105    1.1270    0.0000 C   0  0  3  0  0  0  0  0  0  0  0  0
    4.3165   -1.0820    0.0000 C   0  0  2  0  0  0  0  0  0  0  0  0
    7.6836   -0.5977    0.0000 C   0  0  0  0  0  0  0  0  0  0  0  0
    7.9424    0.3682    0.0000 C   0  0  0  0  0  0  0  0  0  0  0  0
    3.5075    0.3192    0.0000 C   0  0  0  0  0  0  0  0  0  0  0  0
    3.4030   -0.6753    0.0000 C   0  0  2  0  0  0  0  0  0  0  0  0
    4.8739    2.9757    0.0000 C   0  0  0  0  0  0  0  0  0  0  0  0
    4.5244   -2.0602    0.0000 C   0  0  0  0  0  0  0  0  0  0  0  0
    5.9736   -0.6801    0.0000 H   0  0  0  0  0  0  0  0  0  0  0  0
    6.0715    0.2779    0.0000 H   0  0  0  0  0  0  0  0  0  0  0  0
    3.8347   -1.4722    0.0000 H   0  0  0  0  0  0  0  0  0  0  0  0
    7.4716   -1.1803    0.0000 H   0  0  0  0  0  0  0  0  0  0  0  0
    8.2749   -0.7842    0.0000 H   0  0  0  0  0  0  0  0  0  0  0  0
    8.5337    0.1818    0.0000 H   0  0  0  0  0  0  0  0  0  0  0  0
    8.1545    0.9508    0.0000 H   0  0  0  0  0  0  0  0  0  0  0  0
    3.4052    0.9307    0.0000 H   0  0  0  0  0  0  0  0  0  0  0  0
    2.8878    0.3003    0.0000 H   0  0  0  0  0  0  0  0  0  0  0  0
    3.4354   -1.2945    0.0000 H   0  0  0  0  0  0  0  0  0  0  0  0
    5.4108    3.2857    0.0000 H   0  0  0  0  0  0  0  0  0  0  0  0
    4.5639    3.5126    0.0000 H   0  0  0  0  0  0  0  0  0  0  0  0
    4.3369    2.6657    0.0000 H   0  0  0  0  0  0  0  0  0  0  0  0
    2.0000   -0.8653    0.0000 H   0  0  0  0  0  0  0  0  0  0  0  0
    5.6044   -2.9757    0.0000 H   0  0  0  0  0  0  0  0  0  0  0  0
 11  1  1  1  0  0  0
  1 27  1  0  0  0  0
  2 13  1  0  0  0  0
  2 28  1  0  0  0  0
  3 13  2  0  0  0  0
  4  5  1  0  0  0  0
  4  6  1  0  0  0  0
  4 12  1  0  0  0  0
  5  7  1  0  0  0  0
  5  8  1  0  0  0  0
  5 14  1  0  0  0  0
  6  9  1  0  0  0  0
  6 10  1  0  0  0  0
  6 15  1  0  0  0  0
  7 11  1  0  0  0  0
  7 13  1  1  0  0  0
  7 16  1  0  0  0  0
  8  9  1  0  0  0  0
  8 17  1  0  0  0  0
  8 18  1  0  0  0  0
  9 19  1  0  0  0  0
  9 20  1  0  0  0  0
 10 11  1  0  0  0  0
 10 21  1  0  0  0  0
 10 22  1  0  0  0  0
 11 23  1  0  0  0  0
 12 24  1  0  0  0  0
 12 25  1  0  0  0  0
 12 26  1  0  0  0  0
M  END
> <PUBCHEM_COMPOUND_CID>
443003

> <PUBCHEM_COMPOUND_CANONICALIZED>
1

> <PUBCHEM_CACTVS_COMPLEXITY>
231

> <PUBCHEM_CACTVS_HBOND_ACCEPTOR>
4

> <PUBCHEM_CACTVS_HBOND_DONOR>
2

> <PUBCHEM_CACTVS_ROTATABLE_BOND>
1

> <PUBCHEM_CACTVS_SUBSKEYS>
AAADccByMAAAAAAAAAAAAAAAAAAAAWAAAAAsAAAABgAAAAAAAAAAHgAACAAADTzhgAYCCAMAAgAIAACQCAAAAAAAAAAAAAEIAAAAEB4AgAAEQAAHIACAAAGY2eOeAAAAAAAAAAAAAAAAAAAAAAAAAAAAAA==

> <PUBCHEM_IUPAC_OPENEYE_NAME>
(3S,4R)-3-hydroxy-8-methyl-8-azabicyclo[3.2.1]octane-4-carboxylic acid

> <PUBCHEM_IUPAC_CAS_NAME>
(3S,4R)-3-hydroxy-8-methyl-8-azabicyclo[3.2.1]octane-4-carboxylic acid

> <PUBCHEM_IUPAC_NAME>
(3S,4R)-3-hydroxy-8-methyl-8-azabicyclo[3.2.1]octane-4-carboxylic acid

> <PUBCHEM_IUPAC_SYSTEMATIC_NAME>
(3S,4R)-8-methyl-3-oxidanyl-8-azabicyclo[3.2.1]octane-4-carboxylic acid

> <PUBCHEM_IUPAC_TRADITIONAL_NAME>
(3S,4R)-3-hydroxy-8-methyl-8-azabicyclo[3.2.1]octane-4-carboxylic acid

> <PUBCHEM_IUPAC_INCHI>
InChI=1S/C9H15NO3/c1-10-5-2-3-6(10)8(9(12)13)7(11)4-5/h5-8,11H,2-4H2,1H3,(H,12,13)/t5?,6?,7-,8+/m0/s1

> <PUBCHEM_IUPAC_INCHIKEY>
PHMBVCPLDPDESM-RLXKETGRSA-N

> <PUBCHEM_XLOGP3_AA>
-1.8

> <PUBCHEM_EXACT_MASS>
185.105193

> <PUBCHEM_MOLECULAR_FORMULA>
C9H15NO3

> <PUBCHEM_MOLECULAR_WEIGHT>
185.2203

> <PUBCHEM_OPENEYE_CAN_SMILES>
CN1C2CCC1C(C(C2)O)C(=O)O

> <PUBCHEM_OPENEYE_ISO_SMILES>
CN1C2CCC1[C@H]([C@H](C2)O)C(=O)O

> <PUBCHEM_CACTVS_TPSA>
60.8

> <PUBCHEM_MONOISOTOPIC_WEIGHT>
185.105193

> <PUBCHEM_TOTAL_CHARGE>
0

> <PUBCHEM_HEAVY_ATOM_COUNT>
13

> <PUBCHEM_ATOM_DEF_STEREO_COUNT>
2

> <PUBCHEM_ATOM_UDEF_STEREO_COUNT>
2

> <PUBCHEM_BOND_DEF_STEREO_COUNT>
0

> <PUBCHEM_BOND_UDEF_STEREO_COUNT>
0

> <PUBCHEM_ISOTOPIC_ATOM_COUNT>
0

> <PUBCHEM_COMPONENT_COUNT>
1

> <PUBCHEM_CACTVS_TAUTO_COUNT>
1

> <PUBCHEM_COORDINATE_TYPE>
1
5
255

> <PUBCHEM_BONDANNOTATIONS>
11  1  5
5  14  3
6  15  3
7  13  5

$$$$

