23724597
  -OEChem-07051213082D

 73 76  0     1  0  0  0  0  0999 V2000
    2.0000   -3.1598    0.0000 O   0  0  0  0  0  0  0  0  0  0  0  0
    7.3931   -0.1074    0.0000 C   0  0  1  0  0  0  0  0  0  0  0  0
    7.3931   -1.1074    0.0000 C   0  0  3  0  0  0  0  0  0  0  0  0
    8.3393    0.1973    0.0000 C   0  0  3  0  0  0  0  0  0  0  0  0
    4.7510   -1.6143    0.0000 C   0  0  2  0  0  0  0  0  0  0  0  0
    6.5271   -1.6074    0.0000 C   0  0  0  0  0  0  0  0  0  0  0  0
    6.5271    0.3926    0.0000 C   0  0  0  0  0  0  0  0  0  0  0  0
    5.6610   -1.1074    0.0000 C   0  0  0  0  0  0  0  0  0  0  0  0
    8.3393   -1.4122    0.0000 C   0  0  0  0  0  0  0  0  0  0  0  0
    8.9229   -0.6074    0.0000 C   0  0  0  0  0  0  0  0  0  0  0  0
    4.7430   -2.6559    0.0000 C   0  0  1  0  0  0  0  0  0  0  0  0
    5.6610   -0.1074    0.0000 C   0  0  0  0  0  0  0  0  0  0  0  0
    6.5431   -2.6489    0.0000 C   0  0  0  0  0  0  0  0  0  0  0  0
    8.6500    1.1478    0.0000 C   0  0  1  0  0  0  0  0  0  0  0  0
    5.6451   -3.1767    0.0000 C   0  0  0  0  0  0  0  0  0  0  0  0
    7.3931    0.8926    0.0000 C   0  0  0  0  0  0  0  0  0  0  0  0
    3.8242   -1.0502    0.0000 C   0  0  0  0  0  0  0  0  0  0  0  0
    3.8076   -3.2056    0.0000 C   0  0  3  0  0  0  0  0  0  0  0  0
    4.7587   -0.6143    0.0000 C   0  0  0  0  0  0  0  0  0  0  0  0
    2.8763   -1.5782    0.0000 C   0  0  0  0  0  0  0  0  0  0  0  0
    9.6285    1.3540    0.0000 C   0  0  0  0  0  0  0  0  0  0  0  0
    2.8680   -2.6631    0.0000 C   0  0  0  0  0  0  0  0  0  0  0  0
    7.9821    1.8921    0.0000 C   0  0  0  0  0  0  0  0  0  0  0  0
    3.8114   -4.2056    0.0000 C   0  0  0  0  0  0  0  0  0  0  0  0
    9.9391    2.3046    0.0000 C   0  0  0  0  0  0  0  0  0  0  0  0
   10.9176    2.5108    0.0000 C   0  0  0  0  0  0  0  0  0  0  0  0
   11.2283    3.4613    0.0000 C   0  0  0  0  0  0  0  0  0  0  0  0
   12.2068    3.6675    0.0000 C   0  0  0  0  0  0  0  0  0  0  0  0
   10.5605    4.2056    0.0000 C   0  0  0  0  0  0  0  0  0  0  0  0
    7.4587   -1.7240    0.0000 H   0  0  0  0  0  0  0  0  0  0  0  0
    8.9518    0.2935    0.0000 H   0  0  0  0  0  0  0  0  0  0  0  0
    6.9256    0.8675    0.0000 H   0  0  0  0  0  0  0  0  0  0  0  0
    6.1285    0.8675    0.0000 H   0  0  0  0  0  0  0  0  0  0  0  0
    8.0883   -1.9791    0.0000 H   0  0  0  0  0  0  0  0  0  0  0  0
    8.8767   -1.7214    0.0000 H   0  0  0  0  0  0  0  0  0  0  0  0
    9.3838   -1.0222    0.0000 H   0  0  0  0  0  0  0  0  0  0  0  0
    9.3838   -0.1927    0.0000 H   0  0  0  0  0  0  0  0  0  0  0  0
    4.7463   -3.5059    0.0000 H   0  0  0  0  0  0  0  0  0  0  0  0
    5.4490    0.4752    0.0000 H   0  0  0  0  0  0  0  0  0  0  0  0
    5.0504   -0.2151    0.0000 H   0  0  0  0  0  0  0  0  0  0  0  0
    6.7612   -3.2293    0.0000 H   0  0  0  0  0  0  0  0  0  0  0  0
    7.1523   -2.5334    0.0000 H   0  0  0  0  0  0  0  0  0  0  0  0
    8.0433    1.0200    0.0000 H   0  0  0  0  0  0  0  0  0  0  0  0
    5.2478   -3.6527    0.0000 H   0  0  0  0  0  0  0  0  0  0  0  0
    6.0460   -3.6496    0.0000 H   0  0  0  0  0  0  0  0  0  0  0  0
    8.0131    0.8926    0.0000 H   0  0  0  0  0  0  0  0  0  0  0  0
    7.3931    1.5126    0.0000 H   0  0  0  0  0  0  0  0  0  0  0  0
    6.7731    0.8926    0.0000 H   0  0  0  0  0  0  0  0  0  0  0  0
    4.2324   -0.5835    0.0000 H   0  0  0  0  0  0  0  0  0  0  0  0
    3.4343   -0.5682    0.0000 H   0  0  0  0  0  0  0  0  0  0  0  0
    4.3463   -3.5125    0.0000 H   0  0  0  0  0  0  0  0  0  0  0  0
    5.3787   -0.6191    0.0000 H   0  0  0  0  0  0  0  0  0  0  0  0
    4.7635    0.0057    0.0000 H   0  0  0  0  0  0  0  0  0  0  0  0
    4.1388   -0.6095    0.0000 H   0  0  0  0  0  0  0  0  0  0  0  0
    2.6718   -0.9929    0.0000 H   0  0  0  0  0  0  0  0  0  0  0  0
    2.2647   -1.6795    0.0000 H   0  0  0  0  0  0  0  0  0  0  0  0
    9.6490    0.7344    0.0000 H   0  0  0  0  0  0  0  0  0  0  0  0
   10.2423    1.2667    0.0000 H   0  0  0  0  0  0  0  0  0  0  0  0
    8.4436    2.3062    0.0000 H   0  0  0  0  0  0  0  0  0  0  0  0
    7.5681    2.3536    0.0000 H   0  0  0  0  0  0  0  0  0  0  0  0
    7.5207    1.4781    0.0000 H   0  0  0  0  0  0  0  0  0  0  0  0
    3.1914   -4.2080    0.0000 H   0  0  0  0  0  0  0  0  0  0  0  0
    3.8138   -4.8256    0.0000 H   0  0  0  0  0  0  0  0  0  0  0  0
    4.4314   -4.2032    0.0000 H   0  0  0  0  0  0  0  0  0  0  0  0
    9.9186    2.9242    0.0000 H   0  0  0  0  0  0  0  0  0  0  0  0
    9.3253    2.3919    0.0000 H   0  0  0  0  0  0  0  0  0  0  0  0
   11.3317    2.0493    0.0000 H   0  0  0  0  0  0  0  0  0  0  0  0
   11.0219    4.6197    0.0000 H   0  0  0  0  0  0  0  0  0  0  0  0
   12.3347    3.0608    0.0000 H   0  0  0  0  0  0  0  0  0  0  0  0
   12.8135    3.7954    0.0000 H   0  0  0  0  0  0  0  0  0  0  0  0
   12.0790    4.2742    0.0000 H   0  0  0  0  0  0  0  0  0  0  0  0
   10.1464    4.6671    0.0000 H   0  0  0  0  0  0  0  0  0  0  0  0
   10.0990    3.7915    0.0000 H   0  0  0  0  0  0  0  0  0  0  0  0
  1 22  2  0  0  0  0
  2  3  1  0  0  0  0
  2  4  1  0  0  0  0
  2  7  1  0  0  0  0
  2 16  1  1  0  0  0
  3  6  1  0  0  0  0
  3  9  1  0  0  0  0
  3 30  1  0  0  0  0
  4 10  1  0  0  0  0
  4 14  1  0  0  0  0
  4 31  1  0  0  0  0
  5  8  1  0  0  0  0
  5 11  1  0  0  0  0
  5 17  1  0  0  0  0
  5 19  1  1  0  0  0
  6  8  2  0  0  0  0
  6 13  1  0  0  0  0
  7 12  1  0  0  0  0
  7 32  1  0  0  0  0
  7 33  1  0  0  0  0
  8 12  1  0  0  0  0
  9 10  1  0  0  0  0
  9 34  1  0  0  0  0
  9 35  1  0  0  0  0
 10 36  1  0  0  0  0
 10 37  1  0  0  0  0
 11 15  1  0  0  0  0
 11 18  1  0  0  0  0
 11 38  1  6  0  0  0
 12 39  1  0  0  0  0
 12 40  1  0  0  0  0
 13 15  1  0  0  0  0
 13 41  1  0  0  0  0
 13 42  1  0  0  0  0
 14 21  1  0  0  0  0
 14 23  1  6  0  0  0
 14 43  1  0  0  0  0
 15 44  1  0  0  0  0
 15 45  1  0  0  0  0
 16 46  1  0  0  0  0
 16 47  1  0  0  0  0
 16 48  1  0  0  0  0
 17 20  1  0  0  0  0
 17 49  1  0  0  0  0
 17 50  1  0  0  0  0
 18 22  1  0  0  0  0
 18 24  1  0  0  0  0
 18 51  1  0  0  0  0
 19 52  1  0  0  0  0
 19 53  1  0  0  0  0
 19 54  1  0  0  0  0
 20 22  1  0  0  0  0
 20 55  1  0  0  0  0
 20 56  1  0  0  0  0
 21 25  1  0  0  0  0
 21 57  1  0  0  0  0
 21 58  1  0  0  0  0
 23 59  1  0  0  0  0
 23 60  1  0  0  0  0
 23 61  1  0  0  0  0
 24 62  1  0  0  0  0
 24 63  1  0  0  0  0
 24 64  1  0  0  0  0
 25 26  1  0  0  0  0
 25 65  1  0  0  0  0
 25 66  1  0  0  0  0
 26 27  2  0  0  0  0
 26 67  1  0  0  0  0
 27 28  1  0  0  0  0
 27 29  1  0  0  0  0
 28 69  1  0  0  0  0
 28 70  1  0  0  0  0
 28 71  1  0  0  0  0
 29 68  1  0  0  0  0
 29 72  1  0  0  0  0
 29 73  1  0  0  0  0
M  END
> <PUBCHEM_COMPOUND_CID>
23724597

> <PUBCHEM_COMPOUND_CANONICALIZED>
1

> <PUBCHEM_CACTVS_COMPLEXITY>
723

> <PUBCHEM_CACTVS_HBOND_ACCEPTOR>
1

> <PUBCHEM_CACTVS_HBOND_DONOR>
0

> <PUBCHEM_CACTVS_ROTATABLE_BOND>
4

> <PUBCHEM_CACTVS_SUBSKEYS>
AAADcfB4IAAAAAAAAAAAAAAAAAAAAYAAAAAwQIAAAAAAAEDAAAAAGgAAAAAADwSAgAACAAAAAACIAqBSAAAAAAAgAAAACAEAAAgAABIAAQAAAAAAgAAIAAMIiMCPgAAAAAAAAAAAAAQAACAAAQAACAAAAA==

> <PUBCHEM_IUPAC_OPENEYE_NAME>
(5S,10S,13R)-17-[(1R)-1,5-dimethylhex-4-enyl]-4,10,13-trimethyl-1,2,4,5,6,7,11,12,14,15,16,17-dodecahydrocyclopenta[a]phenanthren-3-one

> <PUBCHEM_IUPAC_CAS_NAME>
(5S,10S,13R)-4,10,13-trimethyl-17-[(2R)-6-methylhept-5-en-2-yl]-1,2,4,5,6,7,11,12,14,15,16,17-dodecahydrocyclopenta[a]phenanthren-3-one

> <PUBCHEM_IUPAC_NAME>
(5S,10S,13R)-4,10,13-trimethyl-17-[(2R)-6-methylhept-5-en-2-yl]-1,2,4,5,6,7,11,12,14,15,16,17-dodecahydrocyclopenta[a]phenanthren-3-one

> <PUBCHEM_IUPAC_SYSTEMATIC_NAME>
(5S,10S,13R)-4,10,13-trimethyl-17-[(2R)-6-methylhept-5-en-2-yl]-1,2,4,5,6,7,11,12,14,15,16,17-dodecahydrocyclopenta[a]phenanthren-3-one

> <PUBCHEM_IUPAC_TRADITIONAL_NAME>
(5S,10S,13R)-17-[(1R)-1,5-dimethylhex-4-enyl]-4,10,13-trimethyl-1,2,4,5,6,7,11,12,14,15,16,17-dodecahydrocyclopenta[a]phenanthren-3-one

> <PUBCHEM_IUPAC_INCHI>
InChI=1S/C28H44O/c1-18(2)8-7-9-19(3)22-12-13-24-21-10-11-23-20(4)26(29)15-17-28(23,6)25(21)14-16-27(22,24)5/h8,19-20,22-24H,7,9-17H2,1-6H3/t19-,20?,22?,23+,24?,27-,28+/m1/s1

> <PUBCHEM_IUPAC_INCHIKEY>
DBPZYKHQDWKORQ-PHTXCTJVSA-N

> <PUBCHEM_XLOGP3_AA>
7.7

> <PUBCHEM_EXACT_MASS>
396.339216

> <PUBCHEM_MOLECULAR_FORMULA>
C28H44O

> <PUBCHEM_MOLECULAR_WEIGHT>
396.64836

> <PUBCHEM_OPENEYE_CAN_SMILES>
CC1C2CCC3=C(C2(CCC1=O)C)CCC4(C3CCC4C(C)CCC=C(C)C)C

> <PUBCHEM_OPENEYE_ISO_SMILES>
CC1[C@@H]2CCC3=C([C@]2(CCC1=O)C)CC[C@]4(C3CCC4[C@H](C)CCC=C(C)C)C

> <PUBCHEM_CACTVS_TPSA>
17.1

> <PUBCHEM_MONOISOTOPIC_WEIGHT>
396.339216

> <PUBCHEM_TOTAL_CHARGE>
0

> <PUBCHEM_HEAVY_ATOM_COUNT>
29

> <PUBCHEM_ATOM_DEF_STEREO_COUNT>
4

> <PUBCHEM_ATOM_UDEF_STEREO_COUNT>
3

> <PUBCHEM_BOND_DEF_STEREO_COUNT>
0

> <PUBCHEM_BOND_UDEF_STEREO_COUNT>
0

> <PUBCHEM_ISOTOPIC_ATOM_COUNT>
0

> <PUBCHEM_COMPONENT_COUNT>
1

> <PUBCHEM_CACTVS_TAUTO_COUNT>
3

> <PUBCHEM_COORDINATE_TYPE>
1
5
255

> <PUBCHEM_BONDANNOTATIONS>
11  38  6
14  23  6
18  24  3
2  16  5
3  9  3
4  10  3
5  19  5

$$$$

