   Color/Form

     * Crystals from ethanol-ethyl acetate
     * Off-white to buff crystalline solid

   from [1]HSDB

   Odor
        Mild, sulfur-like odor
   from [2]HSDB

   Taste
        Bitter
   from [3]HSDB

   Melting Point
        130-132 deg C
   from [4]HSDB

   Solubilities
        Soluble in water
   from [5]HSDB

   Computed Properties
   Molecular Weight                  331.45744 [g/mol]
   Molecular Formula                 C[12]H[21]N[5]O[2]S[2]
   XLogP3-AA                         1.6
   H-Bond Donor                      2
   H-Bond Acceptor                   8
   Rotatable Bond Count              9
   Tautomer Count                    2
   Exact Mass                        331.113667
   MonoIsotopic Mass                 331.113667
   Topological Polar Surface Area    140
   Heavy Atom Count                  21
   Formal Charge                     0
   Complexity                        349
   Isotope Atom Count                0
   Defined Atom Stereocenter Count   0
   Undefined Atom Stereocenter Count 0
   Defined Bond Stereocenter Count   1
   Undefined Bond Stereocenter Count 0
   Covalently-Bonded Unit Count      1
   Feature 3D Acceptor Count         3
   Feature 3D Donor Count            2
   Feature 3D Anion Count            1
   Feature 3D Cation Count           3
   Feature 3D Ring Count             1
   Effective Rotor Count             10
   Conformer Sampling RMSD           1
   CID Conformer Count               [6]152

References

   1. http://toxnet.nlm.nih.gov/cgi-bin/sis/search/r?dbs+hsdb:@term+@rn+@rel+76963-41-2
   2. http://toxnet.nlm.nih.gov/cgi-bin/sis/search/r?dbs+hsdb:@term+@rn+@rel+76963-41-2
   3. http://toxnet.nlm.nih.gov/cgi-bin/sis/search/r?dbs+hsdb:@term+@rn+@rel+76963-41-2
   4. http://toxnet.nlm.nih.gov/cgi-bin/sis/search/r?dbs+hsdb:@term+@rn+@rel+76963-41-2
   5. http://toxnet.nlm.nih.gov/cgi-bin/sis/search/r?dbs+hsdb:@term+@rn+@rel+76963-41-2
   6. http://pubchem.ncbi.nlm.nih.gov/vw3d/vw3d.cgi?cid=3033637
