5281113
  -OEChem-07051212552D

 78 80  0     1  0  0  0  0  0999 V2000
   14.7415   -4.8027    0.0000 O   0  0  0  0  0  0  0  0  0  0  0  0
   16.0307   -2.0365    0.0000 O   0  0  0  0  0  0  0  0  0  0  0  0
   19.3251   -3.9980    0.0000 O   0  0  0  0  0  0  0  0  0  0  0  0
    9.4651   -1.9980    0.0000 O   0  0  0  0  0  0  0  0  0  0  0  0
   14.3843   -1.4984    0.0000 N   0  0  0  0  0  0  0  0  0  0  0  0
    8.5991   -3.4980    0.0000 N   0  0  0  0  0  0  0  0  0  0  0  0
   13.9806    2.8417    0.0000 N   0  0  0  0  0  0  0  0  0  0  0  0
    4.2690   -2.9980    0.0000 N   0  0  0  0  0  0  0  0  0  0  0  0
   13.6234    4.5365    0.0000 N   0  0  0  0  0  0  0  0  0  0  0  0
   12.3343    3.3798    0.0000 N   0  0  0  0  0  0  0  0  0  0  0  0
    2.5369   -2.9980    0.0000 N   0  0  0  0  0  0  0  0  0  0  0  0
    3.4030   -4.4980    0.0000 N   0  0  0  0  0  0  0  0  0  0  0  0
   14.7415   -3.1933    0.0000 C   0  0  1  0  0  0  0  0  0  0  0  0
   15.3251   -3.9980    0.0000 C   0  0  2  0  0  0  0  0  0  0  0  0
   13.7953   -3.4980    0.0000 C   0  0  0  0  0  0  0  0  0  0  0  0
   13.7953   -4.4980    0.0000 C   0  0  0  0  0  0  0  0  0  0  0  0
   16.3251   -3.9980    0.0000 C   0  0  0  0  0  0  0  0  0  0  0  0
   15.0521   -2.2428    0.0000 C   0  0  0  0  0  0  0  0  0  0  0  0
   12.9292   -2.9980    0.0000 C   0  0  0  0  0  0  0  0  0  0  0  0
   12.9292   -4.9980    0.0000 C   0  0  0  0  0  0  0  0  0  0  0  0
   12.0632   -3.4980    0.0000 C   0  0  0  0  0  0  0  0  0  0  0  0
   16.8251   -4.8640    0.0000 C   0  0  0  0  0  0  0  0  0  0  0  0
   16.8251   -3.1320    0.0000 C   0  0  0  0  0  0  0  0  0  0  0  0
   12.0632   -4.4980    0.0000 C   0  0  0  0  0  0  0  0  0  0  0  0
   14.6950   -0.5479    0.0000 C   0  0  0  0  0  0  0  0  0  0  0  0
   14.0271    0.1964    0.0000 C   0  0  0  0  0  0  0  0  0  0  0  0
   17.8251   -4.8640    0.0000 C   0  0  0  0  0  0  0  0  0  0  0  0
   17.8251   -3.1320    0.0000 C   0  0  0  0  0  0  0  0  0  0  0  0
   11.1972   -2.9980    0.0000 C   0  0  0  0  0  0  0  0  0  0  0  0
   14.3378    1.1469    0.0000 C   0  0  0  0  0  0  0  0  0  0  0  0
   18.3251   -3.9980    0.0000 C   0  0  0  0  0  0  0  0  0  0  0  0
   13.6699    1.8912    0.0000 C   0  0  0  0  0  0  0  0  0  0  0  0
   10.3312   -3.4980    0.0000 C   0  0  0  0  0  0  0  0  0  0  0  0
    9.4651   -2.9980    0.0000 C   0  0  0  0  0  0  0  0  0  0  0  0
    7.7331   -2.9980    0.0000 C   0  0  0  0  0  0  0  0  0  0  0  0
    6.8671   -3.4980    0.0000 C   0  0  0  0  0  0  0  0  0  0  0  0
    6.0010   -2.9980    0.0000 C   0  0  0  0  0  0  0  0  0  0  0  0
    5.1350   -3.4980    0.0000 C   0  0  0  0  0  0  0  0  0  0  0  0
   13.3128    3.5860    0.0000 C   0  0  0  0  0  0  0  0  0  0  0  0
    3.4030   -3.4980    0.0000 C   0  0  0  0  0  0  0  0  0  0  0  0
   14.3040   -2.7539    0.0000 H   0  0  0  0  0  0  0  0  0  0  0  0
   15.6068   -3.4457    0.0000 H   0  0  0  0  0  0  0  0  0  0  0  0
   12.9292   -2.3780    0.0000 H   0  0  0  0  0  0  0  0  0  0  0  0
   12.9292   -5.6180    0.0000 H   0  0  0  0  0  0  0  0  0  0  0  0
   13.7776   -1.6263    0.0000 H   0  0  0  0  0  0  0  0  0  0  0  0
   16.5151   -5.4010    0.0000 H   0  0  0  0  0  0  0  0  0  0  0  0
   16.5151   -2.5950    0.0000 H   0  0  0  0  0  0  0  0  0  0  0  0
   11.5263   -4.8080    0.0000 H   0  0  0  0  0  0  0  0  0  0  0  0
   15.2419   -0.8399    0.0000 H   0  0  0  0  0  0  0  0  0  0  0  0
   15.0775   -0.0600    0.0000 H   0  0  0  0  0  0  0  0  0  0  0  0
   13.4802    0.4884    0.0000 H   0  0  0  0  0  0  0  0  0  0  0  0
   13.6446   -0.2915    0.0000 H   0  0  0  0  0  0  0  0  0  0  0  0
   18.1351   -5.4010    0.0000 H   0  0  0  0  0  0  0  0  0  0  0  0
   18.1351   -2.5950    0.0000 H   0  0  0  0  0  0  0  0  0  0  0  0
   11.1972   -2.3780    0.0000 H   0  0  0  0  0  0  0  0  0  0  0  0
   14.8847    0.8549    0.0000 H   0  0  0  0  0  0  0  0  0  0  0  0
   14.7203    1.6348    0.0000 H   0  0  0  0  0  0  0  0  0  0  0  0
   13.1230    2.1832    0.0000 H   0  0  0  0  0  0  0  0  0  0  0  0
   13.2874    1.4033    0.0000 H   0  0  0  0  0  0  0  0  0  0  0  0
   10.3312   -4.1180    0.0000 H   0  0  0  0  0  0  0  0  0  0  0  0
   19.6351   -4.5349    0.0000 H   0  0  0  0  0  0  0  0  0  0  0  0
    8.1316   -2.5231    0.0000 H   0  0  0  0  0  0  0  0  0  0  0  0
    7.3346   -2.5231    0.0000 H   0  0  0  0  0  0  0  0  0  0  0  0
    6.4685   -3.9730    0.0000 H   0  0  0  0  0  0  0  0  0  0  0  0
    7.2656   -3.9730    0.0000 H   0  0  0  0  0  0  0  0  0  0  0  0
    8.5991   -4.1180    0.0000 H   0  0  0  0  0  0  0  0  0  0  0  0
    6.3996   -2.5231    0.0000 H   0  0  0  0  0  0  0  0  0  0  0  0
    5.6025   -2.5231    0.0000 H   0  0  0  0  0  0  0  0  0  0  0  0
    4.7365   -3.9730    0.0000 H   0  0  0  0  0  0  0  0  0  0  0  0
    5.5335   -3.9730    0.0000 H   0  0  0  0  0  0  0  0  0  0  0  0
   13.2094    4.9980    0.0000 H   0  0  0  0  0  0  0  0  0  0  0  0
   14.2301    4.6644    0.0000 H   0  0  0  0  0  0  0  0  0  0  0  0
   11.9202    3.8413    0.0000 H   0  0  0  0  0  0  0  0  0  0  0  0
   12.1416    2.7905    0.0000 H   0  0  0  0  0  0  0  0  0  0  0  0
    2.0000   -3.3080    0.0000 H   0  0  0  0  0  0  0  0  0  0  0  0
    2.5369   -2.3780    0.0000 H   0  0  0  0  0  0  0  0  0  0  0  0
    2.8660   -4.8080    0.0000 H   0  0  0  0  0  0  0  0  0  0  0  0
    3.9399   -4.8080    0.0000 H   0  0  0  0  0  0  0  0  0  0  0  0
  1 14  1  0  0  0  0
  1 16  1  0  0  0  0
  2 18  2  0  0  0  0
  3 31  1  0  0  0  0
  3 61  1  0  0  0  0
  4 34  2  0  0  0  0
  5 18  1  0  0  0  0
  5 25  1  0  0  0  0
  5 45  1  0  0  0  0
  6 34  1  0  0  0  0
  6 35  1  0  0  0  0
  6 66  1  0  0  0  0
  7 32  1  0  0  0  0
  7 39  2  0  0  0  0
  8 38  1  0  0  0  0
  8 40  2  0  0  0  0
  9 39  1  0  0  0  0
  9 71  1  0  0  0  0
  9 72  1  0  0  0  0
 10 39  1  0  0  0  0
 10 73  1  0  0  0  0
 10 74  1  0  0  0  0
 11 40  1  0  0  0  0
 11 75  1  0  0  0  0
 11 76  1  0  0  0  0
 12 40  1  0  0  0  0
 12 77  1  0  0  0  0
 12 78  1  0  0  0  0
 13 14  1  0  0  0  0
 13 15  1  0  0  0  0
 13 18  1  1  0  0  0
 13 41  1  0  0  0  0
 14 17  1  6  0  0  0
 14 42  1  0  0  0  0
 15 16  2  0  0  0  0
 15 19  1  0  0  0  0
 16 20  1  0  0  0  0
 17 22  2  0  0  0  0
 17 23  1  0  0  0  0
 19 21  2  0  0  0  0
 19 43  1  0  0  0  0
 20 24  2  0  0  0  0
 20 44  1  0  0  0  0
 21 24  1  0  0  0  0
 21 29  1  0  0  0  0
 22 27  1  0  0  0  0
 22 46  1  0  0  0  0
 23 28  2  0  0  0  0
 23 47  1  0  0  0  0
 24 48  1  0  0  0  0
 25 26  1  0  0  0  0
 25 49  1  0  0  0  0
 25 50  1  0  0  0  0
 26 30  1  0  0  0  0
 26 51  1  0  0  0  0
 26 52  1  0  0  0  0
 27 31  2  0  0  0  0
 27 53  1  0  0  0  0
 28 31  1  0  0  0  0
 28 54  1  0  0  0  0
 29 33  2  0  0  0  0
 29 55  1  0  0  0  0
 30 32  1  0  0  0  0
 30 56  1  0  0  0  0
 30 57  1  0  0  0  0
 32 58  1  0  0  0  0
 32 59  1  0  0  0  0
 33 34  1  0  0  0  0
 33 60  1  0  0  0  0
 35 36  1  0  0  0  0
 35 62  1  0  0  0  0
 35 63  1  0  0  0  0
 36 37  1  0  0  0  0
 36 64  1  0  0  0  0
 36 65  1  0  0  0  0
 37 38  1  0  0  0  0
 37 67  1  0  0  0  0
 37 68  1  0  0  0  0
 38 69  1  0  0  0  0
 38 70  1  0  0  0  0
M  END
> <PUBCHEM_COMPOUND_CID>
5281113

> <PUBCHEM_COMPOUND_CANONICALIZED>
1

> <PUBCHEM_CACTVS_COMPLEXITY>
895

> <PUBCHEM_CACTVS_HBOND_ACCEPTOR>
6

> <PUBCHEM_CACTVS_HBOND_DONOR>
7

> <PUBCHEM_CACTVS_ROTATABLE_BOND>
14

> <PUBCHEM_CACTVS_SUBSKEYS>
AAADcfB7+AAAAAAAAAAAAAAAAAAAASAAAAAwYAAAAAAAAEgBQAAAHgAQCAAADRThmAYxBoLABgCoAiFSNACCCAEgIAAIiIEOCMgMJjaGtRuGeCCm9hGIuYe66PyOoAACAAAIAABAAAQAABAAAAAAAAAAAA==

> <PUBCHEM_IUPAC_OPENEYE_NAME>
(2R,3R)-N-(4-guanidinobutyl)-5-[(E)-3-(4-guanidinobutylamino)-3-oxo-prop-1-enyl]-2-(4-hydroxyphenyl)-2,3-dihydrobenzofuran-3-carboxamide

> <PUBCHEM_IUPAC_CAS_NAME>
(2R,3R)-N-[4-(diaminomethylideneamino)butyl]-5-[(E)-3-[4-(diaminomethylideneamino)butylamino]-3-oxoprop-1-enyl]-2-(4-hydroxyphenyl)-2,3-dihydrobenzofuran-3-carboxamide

> <PUBCHEM_IUPAC_NAME>
(2R,3R)-N-[4-(diaminomethylideneamino)butyl]-5-[(E)-3-[4-(diaminomethylideneamino)butylamino]-3-oxoprop-1-enyl]-2-(4-hydroxyphenyl)-2,3-dihydro-1-benzofuran-3-carboxamide

> <PUBCHEM_IUPAC_SYSTEMATIC_NAME>
(2R,3R)-N-[4-[bis(azanyl)methylideneamino]butyl]-5-[(E)-3-[4-[bis(azanyl)methylideneamino]butylamino]-3-oxidanylidene-prop-1-enyl]-2-(4-hydroxyphenyl)-2,3-dihydro-1-benzofuran-3-carboxamide

> <PUBCHEM_IUPAC_TRADITIONAL_NAME>
(2R,3R)-N-(4-guanidinobutyl)-5-[(E)-3-(4-guanidinobutylamino)-3-keto-prop-1-enyl]-2-(4-hydroxyphenyl)coumaran-3-carboxamide

> <PUBCHEM_IUPAC_INCHI>
InChI=1S/C28H38N8O4/c29-27(30)35-15-3-1-13-33-23(38)12-6-18-5-11-22-21(17-18)24(25(40-22)19-7-9-20(37)10-8-19)26(39)34-14-2-4-16-36-28(31)32/h5-12,17,24-25,37H,1-4,13-16H2,(H,33,38)(H,34,39)(H4,29,30,35)(H4,31,32,36)/b12-6+/t24-,25+/m1/s1

> <PUBCHEM_IUPAC_INCHIKEY>
KVYNYRIOAYQBFK-ODMAYWLASA-N

> <PUBCHEM_XLOGP3_AA>
0.1

> <PUBCHEM_EXACT_MASS>
550.301602

> <PUBCHEM_MOLECULAR_FORMULA>
C28H38N8O4

> <PUBCHEM_MOLECULAR_WEIGHT>
550.65252

> <PUBCHEM_OPENEYE_CAN_SMILES>
C1=CC(=CC=C1C2C(C3=C(O2)C=CC(=C3)C=CC(=O)NCCCCN=C(N)N)C(=O)NCCCCN=C(N)N)O

> <PUBCHEM_OPENEYE_ISO_SMILES>
C1=CC(=CC=C1[C@H]2[C@@H](C3=C(O2)C=CC(=C3)/C=C/C(=O)NCCCCN=C(N)N)C(=O)NCCCCN=C(N)N)O

> <PUBCHEM_CACTVS_TPSA>
217

> <PUBCHEM_MONOISOTOPIC_WEIGHT>
550.301602

> <PUBCHEM_TOTAL_CHARGE>
0

> <PUBCHEM_HEAVY_ATOM_COUNT>
40

> <PUBCHEM_ATOM_DEF_STEREO_COUNT>
2

> <PUBCHEM_ATOM_UDEF_STEREO_COUNT>
0

> <PUBCHEM_BOND_DEF_STEREO_COUNT>
1

> <PUBCHEM_BOND_UDEF_STEREO_COUNT>
0

> <PUBCHEM_ISOTOPIC_ATOM_COUNT>
0

> <PUBCHEM_COMPONENT_COUNT>
1

> <PUBCHEM_CACTVS_TAUTO_COUNT>
32

> <PUBCHEM_COORDINATE_TYPE>
1
5
255

> <PUBCHEM_BONDANNOTATIONS>
13  18  5
14  17  6
15  16  8
15  19  8
16  20  8
17  22  8
17  23  8
19  21  8
20  24  8
21  24  8
22  27  8
23  28  8
27  31  8
28  31  8

$$$$

