108192
  -OEChem-07051213012D

 69 73  0     1  0  0  0  0  0999 V2000
    8.6500    0.3532    0.0000 O   0  0  0  0  0  0  0  0  0  0  0  0
    9.9391    1.5099    0.0000 O   0  0  0  0  0  0  0  0  0  0  0  0
    2.0000   -3.9544    0.0000 O   0  0  0  0  0  0  0  0  0  0  0  0
    9.9856   -1.1354    0.0000 O   0  0  0  0  0  0  0  0  0  0  0  0
   11.9427   -0.7230    0.0000 O   0  0  0  0  0  0  0  0  0  0  0  0
   12.5640    1.1780    0.0000 O   0  0  0  0  0  0  0  0  0  0  0  0
   10.5605    3.4109    0.0000 O   0  0  0  0  0  0  0  0  0  0  0  0
   12.2068    2.8729    0.0000 O   0  0  0  0  0  0  0  0  0  0  0  0
    7.3931   -1.9021    0.0000 C   0  0  2  0  0  0  0  0  0  0  0  0
    7.3931   -0.9021    0.0000 C   0  0  2  0  0  0  0  0  0  0  0  0
    6.5271   -2.4021    0.0000 C   0  0  1  0  0  0  0  0  0  0  0  0
    5.6610   -1.9021    0.0000 C   0  0  1  0  0  0  0  0  0  0  0  0
    4.7510   -2.4089    0.0000 C   0  0  2  0  0  0  0  0  0  0  0  0
    6.5271   -0.4021    0.0000 C   0  0  0  0  0  0  0  0  0  0  0  0
    8.3393   -0.5974    0.0000 C   0  0  2  0  0  0  0  0  0  0  0  0
    5.6610   -0.9021    0.0000 C   0  0  0  0  0  0  0  0  0  0  0  0
    8.3393   -2.2068    0.0000 C   0  0  0  0  0  0  0  0  0  0  0  0
    6.5431   -3.4436    0.0000 C   0  0  0  0  0  0  0  0  0  0  0  0
    8.9229   -1.4021    0.0000 C   0  0  0  0  0  0  0  0  0  0  0  0
    4.7430   -3.4505    0.0000 C   0  0  0  0  0  0  0  0  0  0  0  0
    7.3931    0.0979    0.0000 C   0  0  0  0  0  0  0  0  0  0  0  0
    5.6451   -3.9714    0.0000 C   0  0  0  0  0  0  0  0  0  0  0  0
    3.8242   -1.8449    0.0000 C   0  0  0  0  0  0  0  0  0  0  0  0
    4.7587   -1.4090    0.0000 C   0  0  0  0  0  0  0  0  0  0  0  0
    2.8763   -2.3728    0.0000 C   0  0  0  0  0  0  0  0  0  0  0  0
    3.8076   -4.0003    0.0000 C   0  0  0  0  0  0  0  0  0  0  0  0
    2.8680   -3.4578    0.0000 C   0  0  0  0  0  0  0  0  0  0  0  0
    9.6285    0.5594    0.0000 C   0  0  2  0  0  0  0  0  0  0  0  0
   10.2963   -0.1849    0.0000 C   0  0  1  0  0  0  0  0  0  0  0  0
   11.2748    0.0213    0.0000 C   0  0  2  0  0  0  0  0  0  0  0  0
   10.9176    1.7161    0.0000 C   0  0  1  0  0  0  0  0  0  0  0  0
   11.5855    0.9718    0.0000 C   0  0  1  0  0  0  0  0  0  0  0  0
   11.2283    2.6666    0.0000 C   0  0  0  0  0  0  0  0  0  0  0  0
    7.4830   -2.7473    0.0000 H   0  0  0  0  0  0  0  0  0  0  0  0
    7.2664   -2.8214    0.0000 H   0  0  0  0  0  0  0  0  0  0  0  0
    6.3972   -1.4771    0.0000 H   0  0  0  0  0  0  0  0  0  0  0  0
    6.9256    0.0729    0.0000 H   0  0  0  0  0  0  0  0  0  0  0  0
    6.1285    0.0729    0.0000 H   0  0  0  0  0  0  0  0  0  0  0  0
    7.9018   -0.1580    0.0000 H   0  0  0  0  0  0  0  0  0  0  0  0
    5.4490   -0.3195    0.0000 H   0  0  0  0  0  0  0  0  0  0  0  0
    5.0504   -1.0098    0.0000 H   0  0  0  0  0  0  0  0  0  0  0  0
    8.0883   -2.7737    0.0000 H   0  0  0  0  0  0  0  0  0  0  0  0
    8.8767   -2.5160    0.0000 H   0  0  0  0  0  0  0  0  0  0  0  0
    6.7612   -4.0240    0.0000 H   0  0  0  0  0  0  0  0  0  0  0  0
    7.1523   -3.3281    0.0000 H   0  0  0  0  0  0  0  0  0  0  0  0
    9.3838   -1.8168    0.0000 H   0  0  0  0  0  0  0  0  0  0  0  0
    9.3838   -0.9874    0.0000 H   0  0  0  0  0  0  0  0  0  0  0  0
    8.0131    0.0979    0.0000 H   0  0  0  0  0  0  0  0  0  0  0  0
    7.3931    0.7179    0.0000 H   0  0  0  0  0  0  0  0  0  0  0  0
    6.7731    0.0979    0.0000 H   0  0  0  0  0  0  0  0  0  0  0  0
    5.2478   -4.4473    0.0000 H   0  0  0  0  0  0  0  0  0  0  0  0
    6.0460   -4.4442    0.0000 H   0  0  0  0  0  0  0  0  0  0  0  0
    4.2324   -1.3782    0.0000 H   0  0  0  0  0  0  0  0  0  0  0  0
    3.4343   -1.3628    0.0000 H   0  0  0  0  0  0  0  0  0  0  0  0
    5.3787   -1.4138    0.0000 H   0  0  0  0  0  0  0  0  0  0  0  0
    4.7635   -0.7890    0.0000 H   0  0  0  0  0  0  0  0  0  0  0  0
    4.1388   -1.4042    0.0000 H   0  0  0  0  0  0  0  0  0  0  0  0
    2.6718   -1.7875    0.0000 H   0  0  0  0  0  0  0  0  0  0  0  0
    2.2647   -2.4742    0.0000 H   0  0  0  0  0  0  0  0  0  0  0  0
    3.8100   -4.6203    0.0000 H   0  0  0  0  0  0  0  0  0  0  0  0
    9.4359   -0.0299    0.0000 H   0  0  0  0  0  0  0  0  0  0  0  0
   10.7104   -0.6464    0.0000 H   0  0  0  0  0  0  0  0  0  0  0  0
   11.8815    0.1492    0.0000 H   0  0  0  0  0  0  0  0  0  0  0  0
   10.5036    2.1776    0.0000 H   0  0  0  0  0  0  0  0  0  0  0  0
   11.9995    0.5104    0.0000 H   0  0  0  0  0  0  0  0  0  0  0  0
   10.3997   -1.5969    0.0000 H   0  0  0  0  0  0  0  0  0  0  0  0
   11.7501   -1.3123    0.0000 H   0  0  0  0  0  0  0  0  0  0  0  0
   12.9781    0.7166    0.0000 H   0  0  0  0  0  0  0  0  0  0  0  0
   10.7531    4.0003    0.0000 H   0  0  0  0  0  0  0  0  0  0  0  0
 15  1  1  1  0  0  0
 28  1  1  6  0  0  0
  2 28  1  0  0  0  0
  2 31  1  0  0  0  0
  3 27  2  0  0  0  0
 29  4  1  1  0  0  0
  4 66  1  0  0  0  0
 30  5  1  6  0  0  0
  5 67  1  0  0  0  0
 32  6  1  1  0  0  0
  6 68  1  0  0  0  0
  7 33  1  0  0  0  0
  7 69  1  0  0  0  0
  8 33  2  0  0  0  0
  9 10  1  0  0  0  0
  9 11  1  0  0  0  0
  9 17  1  0  0  0  0
  9 34  1  6  0  0  0
 10 14  1  0  0  0  0
 10 15  1  0  0  0  0
 10 21  1  1  0  0  0
 11 12  1  0  0  0  0
 11 18  1  0  0  0  0
 11 35  1  1  0  0  0
 12 13  1  0  0  0  0
 12 16  1  0  0  0  0
 12 36  1  6  0  0  0
 13 20  1  0  0  0  0
 13 23  1  0  0  0  0
 13 24  1  1  0  0  0
 14 16  1  0  0  0  0
 14 37  1  0  0  0  0
 14 38  1  0  0  0  0
 15 19  1  0  0  0  0
 15 39  1  0  0  0  0
 16 40  1  0  0  0  0
 16 41  1  0  0  0  0
 17 19  1  0  0  0  0
 17 42  1  0  0  0  0
 17 43  1  0  0  0  0
 18 22  1  0  0  0  0
 18 44  1  0  0  0  0
 18 45  1  0  0  0  0
 19 46  1  0  0  0  0
 19 47  1  0  0  0  0
 20 22  1  0  0  0  0
 20 26  2  0  0  0  0
 21 48  1  0  0  0  0
 21 49  1  0  0  0  0
 21 50  1  0  0  0  0
 22 51  1  0  0  0  0
 22 52  1  0  0  0  0
 23 25  1  0  0  0  0
 23 53  1  0  0  0  0
 23 54  1  0  0  0  0
 24 55  1  0  0  0  0
 24 56  1  0  0  0  0
 24 57  1  0  0  0  0
 25 27  1  0  0  0  0
 25 58  1  0  0  0  0
 25 59  1  0  0  0  0
 26 27  1  0  0  0  0
 26 60  1  0  0  0  0
 28 29  1  0  0  0  0
 28 61  1  0  0  0  0
 29 30  1  0  0  0  0
 29 62  1  0  0  0  0
 30 32  1  0  0  0  0
 30 63  1  0  0  0  0
 31 32  1  0  0  0  0
 31 33  1  6  0  0  0
 31 64  1  0  0  0  0
 32 65  1  0  0  0  0
M  END
> <PUBCHEM_COMPOUND_CID>
108192

> <PUBCHEM_COMPOUND_CANONICALIZED>
1

> <PUBCHEM_CACTVS_COMPLEXITY>
855

> <PUBCHEM_CACTVS_HBOND_ACCEPTOR>
8

> <PUBCHEM_CACTVS_HBOND_DONOR>
4

> <PUBCHEM_CACTVS_ROTATABLE_BOND>
3

> <PUBCHEM_CACTVS_SUBSKEYS>
AAADcfB4PAAAAAAAAAAAAAAAAAAAAYAAAAA0YIEAAAAAAGDAAAAAGgAACAAADxSwgAMCCAAABgCIAqDSCAIAAAAgAAAACAFAAEgREBYAAQQiQAAFoAAPAQPK7PzPgAAAAAAAAACAAAQAACAAAIAADAAAAA==

> <PUBCHEM_IUPAC_OPENEYE_NAME>
(2S,3S,4S,5R,6R)-6-[[(8R,9S,10R,13S,14S,17S)-10,13-dimethyl-3-oxo-1,2,6,7,8,9,11,12,14,15,16,17-dodecahydrocyclopenta[a]phenanthren-17-yl]oxy]-3,4,5-trihydroxy-tetrahydropyran-2-carboxylic acid

> <PUBCHEM_IUPAC_CAS_NAME>
(2S,3S,4S,5R,6R)-6-[[(8R,9S,10R,13S,14S,17S)-10,13-dimethyl-3-oxo-1,2,6,7,8,9,11,12,14,15,16,17-dodecahydrocyclopenta[a]phenanthren-17-yl]oxy]-3,4,5-trihydroxy-2-oxanecarboxylic acid

> <PUBCHEM_IUPAC_NAME>
(2S,3S,4S,5R,6R)-6-[[(8R,9S,10R,13S,14S,17S)-10,13-dimethyl-3-oxo-1,2,6,7,8,9,11,12,14,15,16,17-dodecahydrocyclopenta[a]phenanthren-17-yl]oxy]-3,4,5-trihydroxyoxane-2-carboxylic acid

> <PUBCHEM_IUPAC_SYSTEMATIC_NAME>
(2S,3S,4S,5R,6R)-6-[[(8R,9S,10R,13S,14S,17S)-10,13-dimethyl-3-oxidanylidene-1,2,6,7,8,9,11,12,14,15,16,17-dodecahydrocyclopenta[a]phenanthren-17-yl]oxy]-3,4,5-tris(oxidanyl)oxane-2-carboxylic acid

> <PUBCHEM_IUPAC_TRADITIONAL_NAME>
(2S,3S,4S,5R,6R)-3,4,5-trihydroxy-6-[[(8R,9S,10R,13S,14S,17S)-3-keto-10,13-dimethyl-1,2,6,7,8,9,11,12,14,15,16,17-dodecahydrocyclopenta[a]phenanthren-17-yl]oxy]tetrahydropyran-2-carboxylic acid

> <PUBCHEM_IUPAC_INCHI>
InChI=1S/C25H36O8/c1-24-9-7-13(26)11-12(24)3-4-14-15-5-6-17(25(15,2)10-8-16(14)24)32-23-20(29)18(27)19(28)21(33-23)22(30)31/h11,14-21,23,27-29H,3-10H2,1-2H3,(H,30,31)/t14-,15-,16-,17-,18-,19-,20+,21-,23+,24-,25-/m0/s1

> <PUBCHEM_IUPAC_INCHIKEY>
NIKZPECGCSUSBV-HMAFJQTKSA-N

> <PUBCHEM_XLOGP3>
2

> <PUBCHEM_EXACT_MASS>
464.241018

> <PUBCHEM_MOLECULAR_FORMULA>
C25H36O8

> <PUBCHEM_MOLECULAR_WEIGHT>
464.54854

> <PUBCHEM_OPENEYE_CAN_SMILES>
CC12CCC3C(C1CCC2OC4C(C(C(C(O4)C(=O)O)O)O)O)CCC5=CC(=O)CCC35C

> <PUBCHEM_OPENEYE_ISO_SMILES>
C[C@]12CC[C@H]3[C@H]([C@@H]1CC[C@@H]2O[C@H]4[C@@H]([C@H]([C@@H]([C@H](O4)C(=O)O)O)O)O)CCC5=CC(=O)CC[C@]35C

> <PUBCHEM_CACTVS_TPSA>
134

> <PUBCHEM_MONOISOTOPIC_WEIGHT>
464.241018

> <PUBCHEM_TOTAL_CHARGE>
0

> <PUBCHEM_HEAVY_ATOM_COUNT>
33

> <PUBCHEM_ATOM_DEF_STEREO_COUNT>
11

> <PUBCHEM_ATOM_UDEF_STEREO_COUNT>
0

> <PUBCHEM_BOND_DEF_STEREO_COUNT>
0

> <PUBCHEM_BOND_UDEF_STEREO_COUNT>
0

> <PUBCHEM_ISOTOPIC_ATOM_COUNT>
0

> <PUBCHEM_COMPONENT_COUNT>
1

> <PUBCHEM_CACTVS_TAUTO_COUNT>
5

> <PUBCHEM_COORDINATE_TYPE>
1
5
255

> <PUBCHEM_BONDANNOTATIONS>
15  1  5
28  1  6
10  21  5
11  35  5
12  36  6
13  24  5
31  33  6
29  4  5
30  5  6
32  6  5
9  34  6

$$$$

