   Color/Form
        Minute crystals
   from [1]HSDB

   Melting Point
        196-197 deg C
   from [2]HSDB

   Dissociation Constants
        pKa = 9.40
   from [3]HSDB

   Solubilities

     * Freely sol in chloroform and alcohol
     * In water, 10.84 mg/L @ 25 deg C

   from [4]HSDB

   Spectral Properties
        UV max (methanol): 240 nm (Epsilon: 13800)
   from [5]HSDB

   Computed Properties
   Molecular Weight                  277.40332 [g/mol]
   Molecular Formula                 C[20]H[23]N
   XLogP3                            5
   H-Bond Donor                      0
   H-Bond Acceptor                   1
   Rotatable Bond Count              3
   Exact Mass                        277.18305
   MonoIsotopic Mass                 277.18305
   Topological Polar Surface Area    3.2
   Heavy Atom Count                  21
   Formal Charge                     0
   Complexity                        331
   Isotope Atom Count                0
   Defined Atom Stereocenter Count   0
   Undefined Atom Stereocenter Count 0
   Defined Bond Stereocenter Count   0
   Undefined Bond Stereocenter Count 0
   Covalently-Bonded Unit Count      1
   Feature 3D Cation Count           1
   Feature 3D Ring Count             3
   Effective Rotor Count             3.4
   Conformer Sampling RMSD           0.6
   CID Conformer Count               [6]21

References

   1. http://toxnet.nlm.nih.gov/cgi-bin/sis/search/r?dbs+hsdb:@term+@rn+@rel+549-18-8
   2. http://toxnet.nlm.nih.gov/cgi-bin/sis/search/r?dbs+hsdb:@term+@rn+@rel+549-18-8
   3. http://toxnet.nlm.nih.gov/cgi-bin/sis/search/r?dbs+hsdb:@term+@rn+@rel+549-18-8
   4. http://toxnet.nlm.nih.gov/cgi-bin/sis/search/r?dbs+hsdb:@term+@rn+@rel+549-18-8
   5. http://toxnet.nlm.nih.gov/cgi-bin/sis/search/r?dbs+hsdb:@term+@rn+@rel+549-18-8
   6. http://pubchem.ncbi.nlm.nih.gov/vw3d/vw3d.cgi?cid=2160
