   Chemical and Physical Properties References

   [1]USDA ARS - USDA chemical properties
   from [2]ChemIDplus

   Color/Form

     * White crystalline solid
     * Colorless crystals (Tech., white solid pellets)

   from [3]HSDB

   Odor

     * CAMPHOR-LIKE ODOR
     * Mercaptan odor

   from [4]HSDB

   Boiling Point
        107 deg C at 0.05 mm Hg
   from [5]HSDB

   Melting Point
        52-52.5 deg C
   from [6]HSDB

   Corrosivity
        Slightly corrosive to iron
   from [7]HSDB

   Density/Specific Gravity
        1.277 at 65 deg C
   from [8]HSDB

   Octanol/Water Partition Coefficient
        log Kow = 0.78
   from [9]HSDB

   Solubilities

     * Readily soluble in most organic solvents, e.g. alcohols, ketones,
       benzene, toluene, chloroform, dichloromethane >300 g/kg at 20 deg
       C; carbon tetrachloride, saturated hydrocarbons, n-octanol >50 g/kg
       at 20 deg C
     * More than 5000 mg/L water at 20 plus or minus 1.5 deg C [Bowman BT
       et al; J Environ Sci Health B18 (2): 221-7 (1983)] [10]PubMed
       Abstract
     * In water, 2.5X10+4 m/L at 25 deg C
     * SOL IN CYCLOHEXANONE; LOW SOLUBILITY IN XYLENE, HEXANE

   from [11]HSDB

   Spectral Properties

     * Index of refraction: 1.5334 at 65 deg C/D
     * Intense mass spectral peaks: 87 m/z (100%), 93 m/z (82%), 125 m/z
       (68%), 47 m/z (33%)
     * Intense mass spectral peaks: 229 m/z

   from [12]HSDB

   Surface Tension
        47.8 mN/m
   from [13]HSDB

   Vapor Pressure
        1.875X10-5 mm Hg at 25 deg C
   from [14]HSDB

   Other Chemical/Physical Properties

     * Relatively stable in aqueous media at pH 2-7. Hydrolyzed in
       alkaline solutions. Photostability half-life >175 days at pH 5.
       Decomposes on heating, forming the O,S-dimethyl analogue
     * Burns readily on contact with flame
     * The technical grade (96% purity) forms white to greyish crystals;
       MP 45-47 deg C
     * Dimethoate starts to disintegrate at 40 deg C. The disintegration
       of the pure active ingredient is an exothermal reaction (40.1 J/g).
       In the presence of the solvent the disintegration is completely
       endothermal.
     * Henry's Law constant = 2.43X10-10 atm-cu m/mol at 25 deg C (est)
     * Hydroxyl radical reaction rate constant = 7.90X10-11 cu
       cm/molec-sec at 25 deg C (est)

   from [15]HSDB

   Computed Properties
   Molecular Weight                  229.257442 [g/mol]
   Molecular Formula                 C[5]H[12]NO[3]PS[2]
   XLogP3                            0.8
   H-Bond Donor                      1
   H-Bond Acceptor                   5
   Rotatable Bond Count              5
   Tautomer Count                    2
   Exact Mass                        228.999622
   MonoIsotopic Mass                 228.999622
   Topological Polar Surface Area    105
   Heavy Atom Count                  12
   Formal Charge                     0
   Complexity                        191
   Isotope Atom Count                0
   Defined Atom Stereocenter Count   0
   Undefined Atom Stereocenter Count 0
   Defined Bond Stereocenter Count   0
   Undefined Bond Stereocenter Count 0
   Covalently-Bonded Unit Count      1
   Feature 3D Acceptor Count         1
   Feature 3D Donor Count            1
   Effective Rotor Count             6
   Conformer Sampling RMSD           0.6
   CID Conformer Count               [16]92

References

   1. http://www.ars.usda.gov/SP2UserFiles/ad_hoc/12755100DatabaseFiles/PesticidePropertiesDatabase/IndividualPesticideFiles/DIMETHOATE.TXT
   2. http://chem.sis.nlm.nih.gov/chemidplus/
   3. http://toxnet.nlm.nih.gov/cgi-bin/sis/search/r?dbs+hsdb:@term+@rn+@rel+60-51-5
   4. http://toxnet.nlm.nih.gov/cgi-bin/sis/search/r?dbs+hsdb:@term+@rn+@rel+60-51-5
   5. http://toxnet.nlm.nih.gov/cgi-bin/sis/search/r?dbs+hsdb:@term+@rn+@rel+60-51-5
   6. http://toxnet.nlm.nih.gov/cgi-bin/sis/search/r?dbs+hsdb:@term+@rn+@rel+60-51-5
   7. http://toxnet.nlm.nih.gov/cgi-bin/sis/search/r?dbs+hsdb:@term+@rn+@rel+60-51-5
   8. http://toxnet.nlm.nih.gov/cgi-bin/sis/search/r?dbs+hsdb:@term+@rn+@rel+60-51-5
   9. http://toxnet.nlm.nih.gov/cgi-bin/sis/search/r?dbs+hsdb:@term+@rn+@rel+60-51-5
  10. http://www.ncbi.nlm.nih.gov/entrez/query.fcgi?cmd=Retrieve&db=pubmed&dopt=Abstract&list_uids=6853964
  11. http://toxnet.nlm.nih.gov/cgi-bin/sis/search/r?dbs+hsdb:@term+@rn+@rel+60-51-5
  12. http://toxnet.nlm.nih.gov/cgi-bin/sis/search/r?dbs+hsdb:@term+@rn+@rel+60-51-5
  13. http://toxnet.nlm.nih.gov/cgi-bin/sis/search/r?dbs+hsdb:@term+@rn+@rel+60-51-5
  14. http://toxnet.nlm.nih.gov/cgi-bin/sis/search/r?dbs+hsdb:@term+@rn+@rel+60-51-5
  15. http://toxnet.nlm.nih.gov/cgi-bin/sis/search/r?dbs+hsdb:@term+@rn+@rel+60-51-5
  16. http://pubchem.ncbi.nlm.nih.gov/vw3d/vw3d.cgi?cid=3082
