62642
  -OEChem-07051213142D

 64 64  0     1  0  0  0  0  0999 V2000
   19.8205    1.1830    0.0000 O   0  0  0  0  0  0  0  0  0  0  0  0
   17.5885    0.3170    0.0000 O   0  0  0  0  0  0  0  0  0  0  0  0
   16.7224   -1.1830    0.0000 O   0  0  0  0  0  0  0  0  0  0  0  0
    9.7942   -0.1830    0.0000 C   0  0  0  0  0  0  0  0  0  0  0  0
    8.9282    0.3170    0.0000 C   0  0  0  0  0  0  0  0  0  0  0  0
   10.6603    0.3170    0.0000 C   0  0  0  0  0  0  0  0  0  0  0  0
    8.0622   -0.1830    0.0000 C   0  0  0  0  0  0  0  0  0  0  0  0
   11.5263   -0.1830    0.0000 C   0  0  0  0  0  0  0  0  0  0  0  0
    7.1962    0.3170    0.0000 C   0  0  0  0  0  0  0  0  0  0  0  0
   12.3923    0.3170    0.0000 C   0  0  0  0  0  0  0  0  0  0  0  0
    6.3301   -0.1830    0.0000 C   0  0  0  0  0  0  0  0  0  0  0  0
   13.2583   -0.1830    0.0000 C   0  0  0  0  0  0  0  0  0  0  0  0
    5.4641    0.3170    0.0000 C   0  0  0  0  0  0  0  0  0  0  0  0
   14.1244    0.3170    0.0000 C   0  0  0  0  0  0  0  0  0  0  0  0
    4.5981   -0.1830    0.0000 C   0  0  0  0  0  0  0  0  0  0  0  0
   19.3205    0.3170    0.0000 C   0  0  3  0  0  0  0  0  0  0  0  0
   14.9904   -0.1830    0.0000 C   0  0  0  0  0  0  0  0  0  0  0  0
   20.3205    0.3170    0.0000 C   0  0  0  0  0  0  0  0  0  0  0  0
    3.7320    0.3170    0.0000 C   0  0  0  0  0  0  0  0  0  0  0  0
   18.4545   -0.1830    0.0000 C   0  0  0  0  0  0  0  0  0  0  0  0
   15.8564    0.3170    0.0000 C   0  0  0  0  0  0  0  0  0  0  0  0
    2.8660   -0.1830    0.0000 C   0  0  0  0  0  0  0  0  0  0  0  0
   16.7224   -0.1830    0.0000 C   0  0  0  0  0  0  0  0  0  0  0  0
    2.0000    0.3170    0.0000 C   0  0  0  0  0  0  0  0  0  0  0  0
    9.3957   -0.6580    0.0000 H   0  0  0  0  0  0  0  0  0  0  0  0
   10.1928   -0.6580    0.0000 H   0  0  0  0  0  0  0  0  0  0  0  0
    9.3267    0.7919    0.0000 H   0  0  0  0  0  0  0  0  0  0  0  0
    8.5297    0.7919    0.0000 H   0  0  0  0  0  0  0  0  0  0  0  0
   11.0588    0.7919    0.0000 H   0  0  0  0  0  0  0  0  0  0  0  0
   10.2617    0.7919    0.0000 H   0  0  0  0  0  0  0  0  0  0  0  0
    7.6636   -0.6580    0.0000 H   0  0  0  0  0  0  0  0  0  0  0  0
    8.4607   -0.6580    0.0000 H   0  0  0  0  0  0  0  0  0  0  0  0
   11.1278   -0.6580    0.0000 H   0  0  0  0  0  0  0  0  0  0  0  0
   11.9248   -0.6580    0.0000 H   0  0  0  0  0  0  0  0  0  0  0  0
    7.5947    0.7919    0.0000 H   0  0  0  0  0  0  0  0  0  0  0  0
    6.7976    0.7919    0.0000 H   0  0  0  0  0  0  0  0  0  0  0  0
   12.7908    0.7919    0.0000 H   0  0  0  0  0  0  0  0  0  0  0  0
   11.9938    0.7919    0.0000 H   0  0  0  0  0  0  0  0  0  0  0  0
    5.9316   -0.6580    0.0000 H   0  0  0  0  0  0  0  0  0  0  0  0
    6.7287   -0.6580    0.0000 H   0  0  0  0  0  0  0  0  0  0  0  0
   12.8598   -0.6580    0.0000 H   0  0  0  0  0  0  0  0  0  0  0  0
   13.6569   -0.6580    0.0000 H   0  0  0  0  0  0  0  0  0  0  0  0
    5.8626    0.7919    0.0000 H   0  0  0  0  0  0  0  0  0  0  0  0
    5.0656    0.7919    0.0000 H   0  0  0  0  0  0  0  0  0  0  0  0
   14.5229    0.7919    0.0000 H   0  0  0  0  0  0  0  0  0  0  0  0
   13.7258    0.7919    0.0000 H   0  0  0  0  0  0  0  0  0  0  0  0
    4.1996   -0.6580    0.0000 H   0  0  0  0  0  0  0  0  0  0  0  0
    4.9966   -0.6580    0.0000 H   0  0  0  0  0  0  0  0  0  0  0  0
   18.7195    0.9180    0.0000 H   0  0  0  0  0  0  0  0  0  0  0  0
   14.5919   -0.6580    0.0000 H   0  0  0  0  0  0  0  0  0  0  0  0
   15.3889   -0.6580    0.0000 H   0  0  0  0  0  0  0  0  0  0  0  0
   20.4282   -0.2936    0.0000 H   0  0  0  0  0  0  0  0  0  0  0  0
   20.9031    0.5290    0.0000 H   0  0  0  0  0  0  0  0  0  0  0  0
    4.1306    0.7919    0.0000 H   0  0  0  0  0  0  0  0  0  0  0  0
    3.3335    0.7919    0.0000 H   0  0  0  0  0  0  0  0  0  0  0  0
   18.0560   -0.6580    0.0000 H   0  0  0  0  0  0  0  0  0  0  0  0
   18.8530   -0.6580    0.0000 H   0  0  0  0  0  0  0  0  0  0  0  0
   16.2549    0.7919    0.0000 H   0  0  0  0  0  0  0  0  0  0  0  0
   15.4579    0.7919    0.0000 H   0  0  0  0  0  0  0  0  0  0  0  0
    2.4675   -0.6580    0.0000 H   0  0  0  0  0  0  0  0  0  0  0  0
    3.2646   -0.6580    0.0000 H   0  0  0  0  0  0  0  0  0  0  0  0
    2.3100    0.8539    0.0000 H   0  0  0  0  0  0  0  0  0  0  0  0
    1.4631    0.6270    0.0000 H   0  0  0  0  0  0  0  0  0  0  0  0
    1.6900   -0.2199    0.0000 H   0  0  0  0  0  0  0  0  0  0  0  0
  1 16  1  0  0  0  0
  1 18  1  0  0  0  0
  2 20  1  0  0  0  0
  2 23  1  0  0  0  0
  3 23  2  0  0  0  0
  4  5  1  0  0  0  0
  4  6  1  0  0  0  0
  4 25  1  0  0  0  0
  4 26  1  0  0  0  0
  5  7  1  0  0  0  0
  5 27  1  0  0  0  0
  5 28  1  0  0  0  0
  6  8  1  0  0  0  0
  6 29  1  0  0  0  0
  6 30  1  0  0  0  0
  7  9  1  0  0  0  0
  7 31  1  0  0  0  0
  7 32  1  0  0  0  0
  8 10  1  0  0  0  0
  8 33  1  0  0  0  0
  8 34  1  0  0  0  0
  9 11  1  0  0  0  0
  9 35  1  0  0  0  0
  9 36  1  0  0  0  0
 10 12  1  0  0  0  0
 10 37  1  0  0  0  0
 10 38  1  0  0  0  0
 11 13  1  0  0  0  0
 11 39  1  0  0  0  0
 11 40  1  0  0  0  0
 12 14  1  0  0  0  0
 12 41  1  0  0  0  0
 12 42  1  0  0  0  0
 13 15  1  0  0  0  0
 13 43  1  0  0  0  0
 13 44  1  0  0  0  0
 14 17  1  0  0  0  0
 14 45  1  0  0  0  0
 14 46  1  0  0  0  0
 15 19  1  0  0  0  0
 15 47  1  0  0  0  0
 15 48  1  0  0  0  0
 16 18  1  0  0  0  0
 16 20  1  0  0  0  0
 16 49  1  0  0  0  0
 17 21  1  0  0  0  0
 17 50  1  0  0  0  0
 17 51  1  0  0  0  0
 18 52  1  0  0  0  0
 18 53  1  0  0  0  0
 19 22  1  0  0  0  0
 19 54  1  0  0  0  0
 19 55  1  0  0  0  0
 20 56  1  0  0  0  0
 20 57  1  0  0  0  0
 21 23  1  0  0  0  0
 21 58  1  0  0  0  0
 21 59  1  0  0  0  0
 22 24  1  0  0  0  0
 22 60  1  0  0  0  0
 22 61  1  0  0  0  0
 24 62  1  0  0  0  0
 24 63  1  0  0  0  0
 24 64  1  0  0  0  0
M  END
> <PUBCHEM_COMPOUND_CID>
62642

> <PUBCHEM_COMPOUND_CANONICALIZED>
1

> <PUBCHEM_CACTVS_COMPLEXITY>
291

> <PUBCHEM_CACTVS_HBOND_ACCEPTOR>
3

> <PUBCHEM_CACTVS_HBOND_DONOR>
0

> <PUBCHEM_CACTVS_ROTATABLE_BOND>
19

> <PUBCHEM_CACTVS_SUBSKEYS>
AAADcfB4MAAAAAAAAAAAAAAAEgAAAAAAAAAAAAAAAAAAAAAAAAAAGgAAAAAACBSggAICCAAABAAIAACQCAAAAAAAAAAAAAEAAAABABIAAAACAAAFAAACAAGIyKCAAAAAAAAAAAAAAAAAAAAAAAAAAAAAAA==

> <PUBCHEM_IUPAC_OPENEYE_NAME>
oxiran-2-ylmethyl octadecanoate

> <PUBCHEM_IUPAC_CAS_NAME>
octadecanoic acid 2-oxiranylmethyl ester

> <PUBCHEM_IUPAC_NAME>
oxiran-2-ylmethyl octadecanoate

> <PUBCHEM_IUPAC_SYSTEMATIC_NAME>
oxiran-2-ylmethyl octadecanoate

> <PUBCHEM_IUPAC_TRADITIONAL_NAME>
stearic acid glycidyl ester

> <PUBCHEM_IUPAC_INCHI>
InChI=1S/C21H40O3/c1-2-3-4-5-6-7-8-9-10-11-12-13-14-15-16-17-21(22)24-19-20-18-23-20/h20H,2-19H2,1H3

> <PUBCHEM_IUPAC_INCHIKEY>
OUQGOXCIUOCDNN-UHFFFAOYSA-N

> <PUBCHEM_XLOGP3_AA>
8.2

> <PUBCHEM_EXACT_MASS>
340.297745

> <PUBCHEM_MOLECULAR_FORMULA>
C21H40O3

> <PUBCHEM_MOLECULAR_WEIGHT>
340.5405

> <PUBCHEM_OPENEYE_CAN_SMILES>
CCCCCCCCCCCCCCCCCC(=O)OCC1CO1

> <PUBCHEM_OPENEYE_ISO_SMILES>
CCCCCCCCCCCCCCCCCC(=O)OCC1CO1

> <PUBCHEM_CACTVS_TPSA>
38.8

> <PUBCHEM_MONOISOTOPIC_WEIGHT>
340.297745

> <PUBCHEM_TOTAL_CHARGE>
0

> <PUBCHEM_HEAVY_ATOM_COUNT>
24

> <PUBCHEM_ATOM_DEF_STEREO_COUNT>
0

> <PUBCHEM_ATOM_UDEF_STEREO_COUNT>
1

> <PUBCHEM_BOND_DEF_STEREO_COUNT>
0

> <PUBCHEM_BOND_UDEF_STEREO_COUNT>
0

> <PUBCHEM_ISOTOPIC_ATOM_COUNT>
0

> <PUBCHEM_COMPONENT_COUNT>
1

> <PUBCHEM_CACTVS_TAUTO_COUNT>
1

> <PUBCHEM_COORDINATE_TYPE>
1
5
255

> <PUBCHEM_BONDANNOTATIONS>
16  49  3

$$$$

