   Color/Form

     * White granular solid
     * White, crystalline solid
     * Prisms from alcohol

   from [1]HSDB

   Odor
        Mildly aromatic odor
   from [2]HSDB

   Boiling Point
        224 deg C at 4 mm Hg
   from [3]HSDB

   Melting Point
        66 deg C
   from [4]HSDB

   Density/Specific Gravity
        1.383 g/cu cm at 20 deg C.
   from [5]HSDB

   Octanol/Water Partition Coefficient
        log Kow = 6.20 (est)
   from [6]HSDB

   Solubilities

     * Slightly soluble in chloroform; soluble in ethanol, diethyl ether
     * Soluble in most organic solvents
     * SOL IN LINSEED & CASTOR OILS
     * In water, 4.0 mg/L at 24 deg C.

   from [7]HSDB

   Spectral Properties

     * Index of refraction = 1.431 at 20 deg C/D
     * IR: 2832 (Coblentz Society Spectral Collection)
     * UV: 225 (Sadtler Research Laboratories Spectral Collection)
     * Raman: 885 (Sadtler Research Laboratories Spectral Collection)
     * 1H NMR: 1199 (Sadtler Research Laboratories Spectral Collection)
     * MASS: 15397 (NIST/EPA/MSDC Mass Spectral database, 1990 version)

   from [8]HSDB

   Vapor Pressure
        8.69X10-7 mm Hg at 25 deg C
   from [9]HSDB

   Viscosity
        Solid at 20 deg C
   from [10]HSDB

   Other Chemical/Physical Properties

     * Vapor pressure for phthalate esters are extremely low, contributing
       much to their thermal stability in plastics. /Phthalate esters/
     * Phthalate esters would be expected to have UV maxima in the 230 nm
       and 270 nm regions. /Phthalate esters/
     * IN MOLTEN STATE DISSOLVES NITROCELLULOSE & BENZYL CELLULOSE; WHEN
       HOT DISSOLVES VEGETABLE WAXES & PARAFFIN WAX
     * Nonvolatile
     * Pour point: 63.5 deg C
     * ... Resistance to migration from polymers, low temperature
       flexibility ... compatibility with polar polymers and additives
       over a wide range of compositions. /Phthalate esters/
     * Henry's Law constant = 1.0X10-7 atm-cu m/mol at 25 deg C (est)
     * Hydroxyl radical reaction rate constant = 2.43X10-13 cu
       cm/molec-sec at 25 deg C (est)

   from [11]HSDB

   Computed Properties
   Molecular Weight                  330.41804 [g/mol]
   Molecular Formula                 C[20]H[26]O[4]
   XLogP3                            5.2
   H-Bond Donor                      0
   H-Bond Acceptor                   4
   Rotatable Bond Count              6
   Exact Mass                        330.183109
   MonoIsotopic Mass                 330.183109
   Topological Polar Surface Area    52.6
   Heavy Atom Count                  24
   Formal Charge                     0
   Complexity                        381
   Isotope Atom Count                0
   Defined Atom Stereocenter Count   0
   Undefined Atom Stereocenter Count 0
   Defined Bond Stereocenter Count   0
   Undefined Bond Stereocenter Count 0
   Covalently-Bonded Unit Count      1
   Feature 3D Acceptor Count         2
   Feature 3D Ring Count             3
   Effective Rotor Count             8.4
   Conformer Sampling RMSD           0.8
   CID Conformer Count               [12]248

References

   1. http://toxnet.nlm.nih.gov/cgi-bin/sis/search/r?dbs+hsdb:@term+@rn+@rel+84-61-7
   2. http://toxnet.nlm.nih.gov/cgi-bin/sis/search/r?dbs+hsdb:@term+@rn+@rel+84-61-7
   3. http://toxnet.nlm.nih.gov/cgi-bin/sis/search/r?dbs+hsdb:@term+@rn+@rel+84-61-7
   4. http://toxnet.nlm.nih.gov/cgi-bin/sis/search/r?dbs+hsdb:@term+@rn+@rel+84-61-7
   5. http://toxnet.nlm.nih.gov/cgi-bin/sis/search/r?dbs+hsdb:@term+@rn+@rel+84-61-7
   6. http://toxnet.nlm.nih.gov/cgi-bin/sis/search/r?dbs+hsdb:@term+@rn+@rel+84-61-7
   7. http://toxnet.nlm.nih.gov/cgi-bin/sis/search/r?dbs+hsdb:@term+@rn+@rel+84-61-7
   8. http://toxnet.nlm.nih.gov/cgi-bin/sis/search/r?dbs+hsdb:@term+@rn+@rel+84-61-7
   9. http://toxnet.nlm.nih.gov/cgi-bin/sis/search/r?dbs+hsdb:@term+@rn+@rel+84-61-7
  10. http://toxnet.nlm.nih.gov/cgi-bin/sis/search/r?dbs+hsdb:@term+@rn+@rel+84-61-7
  11. http://toxnet.nlm.nih.gov/cgi-bin/sis/search/r?dbs+hsdb:@term+@rn+@rel+84-61-7
  12. http://pubchem.ncbi.nlm.nih.gov/vw3d/vw3d.cgi?cid=6777
