443367
  -OEChem-07051213022D

 52 55  0     1  0  0  0  0  0999 V2000
    2.5796    0.4337    0.0000 O   0  0  0  0  0  0  0  0  0  0  0  0
    2.9848    1.5470    0.0000 O   0  0  0  0  0  0  0  0  0  0  0  0
    2.6840   -0.1587    0.0000 O   0  0  0  0  0  0  0  0  0  0  0  0
    7.0174    1.4185    0.0000 N   0  0  3  0  0  0  0  0  0  0  0  0
    4.2016   -1.2172    0.0000 N   0  0  0  0  0  0  0  0  0  0  0  0
    4.4853    1.4185    0.0000 C   0  0  1  0  0  0  0  0  0  0  0  0
    4.3116    0.4337    0.0000 C   0  0  2  0  0  0  0  0  0  0  0  0
    5.2521    0.7792    0.0000 C   0  0  0  0  0  0  0  0  0  0  0  0
    5.2513    2.0613    0.0000 C   0  0  0  0  0  0  0  0  0  0  0  0
    4.8116   -0.4323    0.0000 C   0  0  0  0  0  0  0  0  0  0  0  0
    6.2505    0.7792    0.0000 C   0  0  0  0  0  0  0  0  0  0  0  0
    6.2513    2.0613    0.0000 C   0  0  0  0  0  0  0  0  0  0  0  0
    5.7513   -0.7743    0.0000 C   0  0  0  0  0  0  0  0  0  0  0  0
    7.1910    0.4337    0.0000 C   0  0  0  0  0  0  0  0  0  0  0  0
    3.4456   -0.0663    0.0000 C   0  0  0  0  0  0  0  0  0  0  0  0
    6.6910   -0.4323    0.0000 C   0  0  0  0  0  0  0  0  0  0  0  0
    3.3268    0.6074    0.0000 C   0  0  0  0  0  0  0  0  0  0  0  0
    5.7141   -1.7677    0.0000 C   0  0  0  0  0  0  0  0  0  0  0  0
    4.7582   -2.0409    0.0000 C   0  0  0  0  0  0  0  0  0  0  0  0
    4.9093    3.0010    0.0000 C   0  0  0  0  0  0  0  0  0  0  0  0
    6.4693   -2.4761    0.0000 C   0  0  0  0  0  0  0  0  0  0  0  0
    4.4914   -3.0414    0.0000 C   0  0  0  0  0  0  0  0  0  0  0  0
    5.5521    3.7670    0.0000 C   0  0  0  0  0  0  0  0  0  0  0  0
    6.2257   -3.4825    0.0000 C   0  0  0  0  0  0  0  0  0  0  0  0
    5.2301   -3.7670    0.0000 C   0  0  0  0  0  0  0  0  0  0  0  0
    2.0000    1.7207    0.0000 C   0  0  0  0  0  0  0  0  0  0  0  0
    3.7492    1.8435    0.0000 H   0  0  0  0  0  0  0  0  0  0  0  0
    4.7349    0.4374    0.0000 H   0  0  0  0  0  0  0  0  0  0  0  0
    5.4306    0.1855    0.0000 H   0  0  0  0  0  0  0  0  0  0  0  0
    6.0721    0.1855    0.0000 H   0  0  0  0  0  0  0  0  0  0  0  0
    6.7678    0.4374    0.0000 H   0  0  0  0  0  0  0  0  0  0  0  0
    6.7693    2.4020    0.0000 H   0  0  0  0  0  0  0  0  0  0  0  0
    6.0735    2.6553    0.0000 H   0  0  0  0  0  0  0  0  0  0  0  0
    7.6165   -0.0173    0.0000 H   0  0  0  0  0  0  0  0  0  0  0  0
    7.7451    0.7120    0.0000 H   0  0  0  0  0  0  0  0  0  0  0  0
    3.0471   -0.5412    0.0000 H   0  0  0  0  0  0  0  0  0  0  0  0
    3.8441   -0.5412    0.0000 H   0  0  0  0  0  0  0  0  0  0  0  0
    6.7271   -1.0513    0.0000 H   0  0  0  0  0  0  0  0  0  0  0  0
    7.2943   -0.5753    0.0000 H   0  0  0  0  0  0  0  0  0  0  0  0
    3.5820   -1.1967    0.0000 H   0  0  0  0  0  0  0  0  0  0  0  0
    4.2987    3.1087    0.0000 H   0  0  0  0  0  0  0  0  0  0  0  0
    7.0634   -2.2988    0.0000 H   0  0  0  0  0  0  0  0  0  0  0  0
    2.0426    0.1237    0.0000 H   0  0  0  0  0  0  0  0  0  0  0  0
    3.8934   -3.2049    0.0000 H   0  0  0  0  0  0  0  0  0  0  0  0
    6.0270    3.3685    0.0000 H   0  0  0  0  0  0  0  0  0  0  0  0
    5.9506    4.2420    0.0000 H   0  0  0  0  0  0  0  0  0  0  0  0
    5.0771    4.1656    0.0000 H   0  0  0  0  0  0  0  0  0  0  0  0
    6.6730   -3.9118    0.0000 H   0  0  0  0  0  0  0  0  0  0  0  0
    5.0772   -4.3679    0.0000 H   0  0  0  0  0  0  0  0  0  0  0  0
    2.1077    2.3313    0.0000 H   0  0  0  0  0  0  0  0  0  0  0  0
    1.3894    1.8284    0.0000 H   0  0  0  0  0  0  0  0  0  0  0  0
    1.8923    1.1101    0.0000 H   0  0  0  0  0  0  0  0  0  0  0  0
  1 15  1  0  0  0  0
  1 43  1  0  0  0  0
  2 17  1  0  0  0  0
  2 26  1  0  0  0  0
  3 17  2  0  0  0  0
  4 11  1  0  0  0  0
  4 12  1  0  0  0  0
  4 14  1  0  0  0  0
  5 10  1  0  0  0  0
  5 19  1  0  0  0  0
  5 40  1  0  0  0  0
  6  7  1  0  0  0  0
  6  8  1  0  0  0  0
  6  9  1  0  0  0  0
  6 27  1  1  0  0  0
  7 10  1  0  0  0  0
  7 15  1  6  0  0  0
  7 17  1  0  0  0  0
  8 11  1  0  0  0  0
  8 28  1  0  0  0  0
  8 29  1  0  0  0  0
  9 12  1  0  0  0  0
  9 20  2  3  0  0  0
 10 13  2  0  0  0  0
 11 30  1  0  0  0  0
 11 31  1  0  0  0  0
 12 32  1  0  0  0  0
 12 33  1  0  0  0  0
 13 16  1  0  0  0  0
 13 18  1  0  0  0  0
 14 16  1  0  0  0  0
 14 34  1  0  0  0  0
 14 35  1  0  0  0  0
 15 36  1  0  0  0  0
 15 37  1  0  0  0  0
 16 38  1  0  0  0  0
 16 39  1  0  0  0  0
 18 19  1  0  0  0  0
 18 21  2  0  0  0  0
 19 22  2  0  0  0  0
 20 23  1  0  0  0  0
 20 41  1  0  0  0  0
 21 24  1  0  0  0  0
 21 42  1  0  0  0  0
 22 25  1  0  0  0  0
 22 44  1  0  0  0  0
 23 45  1  0  0  0  0
 23 46  1  0  0  0  0
 23 47  1  0  0  0  0
 24 25  2  0  0  0  0
 24 48  1  0  0  0  0
 25 49  1  0  0  0  0
 26 50  1  0  0  0  0
 26 51  1  0  0  0  0
 26 52  1  0  0  0  0
M  END
> <PUBCHEM_COMPOUND_CID>
443367

> <PUBCHEM_COMPOUND_CANONICALIZED>
1

> <PUBCHEM_CACTVS_COMPLEXITY>
578

> <PUBCHEM_CACTVS_HBOND_ACCEPTOR>
4

> <PUBCHEM_CACTVS_HBOND_DONOR>
2

> <PUBCHEM_CACTVS_ROTATABLE_BOND>
3

> <PUBCHEM_CACTVS_SUBSKEYS>
AAADceB7MAAAAAAAAAAAAAAAAAAAAWAAAAA8QAAAAAAAAFgB8AAAHgAQCAAADwjhngYyyPPJlgCoAyTyTACCgCAhAiAImSE4ZJgIMP7AlZGEYAhn8AHIyAeY2fKPgAAAAAACAAAAAAAAAAQAAAAAAAAAAA==

> <PUBCHEM_IUPAC_INCHI>
InChI=1S/C21H26N2O3/c1-3-14-12-23-10-8-16-15-6-4-5-7-18(15)22-19(16)21(13-24,20(25)26-2)17(14)9-11-23/h3-7,17,22,24H,8-13H2,1-2H3/t17-,21-/m0/s1

> <PUBCHEM_IUPAC_INCHIKEY>
MBXJCHZRHROMQA-UWJYYQICSA-N

> <PUBCHEM_XLOGP3_AA>
1.8

> <PUBCHEM_EXACT_MASS>
354.194343

> <PUBCHEM_MOLECULAR_FORMULA>
C21H26N2O3

> <PUBCHEM_MOLECULAR_WEIGHT>
354.44274

> <PUBCHEM_OPENEYE_CAN_SMILES>
CC=C1CN2CCC1C(C3=C(CC2)C4=CC=CC=C4N3)(CO)C(=O)OC

> <PUBCHEM_OPENEYE_ISO_SMILES>
CC=C1CN2CC[C@@H]1[C@](C3=C(CC2)C4=CC=CC=C4N3)(CO)C(=O)OC

> <PUBCHEM_CACTVS_TPSA>
65.6

> <PUBCHEM_MONOISOTOPIC_WEIGHT>
354.194343

> <PUBCHEM_TOTAL_CHARGE>
0

> <PUBCHEM_HEAVY_ATOM_COUNT>
26

> <PUBCHEM_ATOM_DEF_STEREO_COUNT>
2

> <PUBCHEM_ATOM_UDEF_STEREO_COUNT>
0

> <PUBCHEM_BOND_DEF_STEREO_COUNT>
0

> <PUBCHEM_BOND_UDEF_STEREO_COUNT>
1

> <PUBCHEM_ISOTOPIC_ATOM_COUNT>
0

> <PUBCHEM_COMPONENT_COUNT>
1

> <PUBCHEM_CACTVS_TAUTO_COUNT>
1

> <PUBCHEM_COORDINATE_TYPE>
1
5
255

> <PUBCHEM_BONDANNOTATIONS>
10  13  8
13  18  8
18  19  8
18  21  8
19  22  8
21  24  8
22  25  8
24  25  8
5  10  8
5  19  8
6  27  5
7  15  6
9  20  1

$$$$

