   Color/Form
        VISCOUS LIQUID
   from [1]HSDB

   Boiling Point
        120-125 DEG C @ 0.5 MM HG
   from [2]HSDB

   Melting Point
        17 DEG C
   from [3]HSDB

   Density/Specific Gravity
        1.1343 @ 25 deg C
   from [4]HSDB

   Solubilities

     * SOL IN CHLOROFORM
     * SOL IN KETONES, NITRILES, ESTERS, ALCOHOLS, AROMATIC HYDROCARBONS;
       MISCIBLE WITH WATER; PRACTICALLY INSOL IN HIGHER ALIPHATIC
       HYDROCARBONS
     * SOL IN ACETONE, BENZENE
     * SLIGHTLY SOL IN PETROLEUM OILS
     * INSOL IN HEPTANE, PETROLEUM ETHER

   from [5]HSDB

   Spectral Properties

     * INDEX OF REFRACTION: 1.462 @ 25 DEG C/D
     * Intense mass spectral peaks: 153 m/z (100%), 92 m/z (93%), 135 m/z
       (91%), 44 m/z (90%)
     * MASS: 4769 (National Bureau of Standards EPA-NIH Mass Spectra Data
       Base, NSRDS-NBS-63)

   from [6]HSDB

   Vapor Pressure
        1X10-3 MM HG @ 25 DEG C
   from [7]HSDB

   Other Chemical/Physical Properties

     * BP: 190-200 DEG C @ 0.5 MM HG; INDEX OF REFRACTION: 1.4660 @ 25 DEG
       C/D; DARK BROWN VISCOUS LIQ /TECHNICAL PRODUCT/
     * HYDROLYZED UNDER ACID CONDITIONS TO DIMETHYLAMINE AND
       ORTHOPHOSPHORIC ACID
     * Hydrolyzed in the presence of acids, but not by alkalies or water
       alone.

   from [8]HSDB

   Computed Properties
   Molecular Weight                  286.248684 [g/mol]
   Molecular Formula                 C[8]H[24]N[4]O[3]P[2]
   XLogP3-AA                         -0.3
   H-Bond Donor                      0
   H-Bond Acceptor                   7
   Rotatable Bond Count              6
   Exact Mass                        286.132364
   MonoIsotopic Mass                 286.132364
   Topological Polar Surface Area    56.3
   Heavy Atom Count                  17
   Formal Charge                     0
   Complexity                        288
   Isotope Atom Count                0
   Defined Atom Stereocenter Count   0
   Undefined Atom Stereocenter Count 0
   Defined Bond Stereocenter Count   0
   Undefined Bond Stereocenter Count 0
   Covalently-Bonded Unit Count      1
   Effective Rotor Count             6
   Conformer Sampling RMSD           0.8
   CID Conformer Count               [9]7

References

   1. http://toxnet.nlm.nih.gov/cgi-bin/sis/search/r?dbs+hsdb:@term+@rn+@rel+152-16-9
   2. http://toxnet.nlm.nih.gov/cgi-bin/sis/search/r?dbs+hsdb:@term+@rn+@rel+152-16-9
   3. http://toxnet.nlm.nih.gov/cgi-bin/sis/search/r?dbs+hsdb:@term+@rn+@rel+152-16-9
   4. http://toxnet.nlm.nih.gov/cgi-bin/sis/search/r?dbs+hsdb:@term+@rn+@rel+152-16-9
   5. http://toxnet.nlm.nih.gov/cgi-bin/sis/search/r?dbs+hsdb:@term+@rn+@rel+152-16-9
   6. http://toxnet.nlm.nih.gov/cgi-bin/sis/search/r?dbs+hsdb:@term+@rn+@rel+152-16-9
   7. http://toxnet.nlm.nih.gov/cgi-bin/sis/search/r?dbs+hsdb:@term+@rn+@rel+152-16-9
   8. http://toxnet.nlm.nih.gov/cgi-bin/sis/search/r?dbs+hsdb:@term+@rn+@rel+152-16-9
   9. http://pubchem.ncbi.nlm.nih.gov/vw3d/vw3d.cgi?cid=9037
