6365330
  -OEChem-07051213092D

 39 39  0     0  0  0  0  0  0999 V2000
    5.1730    1.4785    0.0000 C   0  0  0  0  0  0  0  0  0  0  0  0
    6.0391    0.9785    0.0000 C   0  0  0  0  0  0  0  0  0  0  0  0
    6.0391   -0.0215    0.0000 C   0  0  0  0  0  0  0  0  0  0  0  0
    5.5464   -0.9783    0.0000 C   0  0  0  0  0  0  0  0  0  0  0  0
    6.0507    1.9578    0.0000 C   0  0  0  0  0  0  0  0  0  0  0  0
    5.1492    2.4783    0.0000 C   0  0  0  0  0  0  0  0  0  0  0  0
    4.1730    1.4785    0.0000 C   0  0  0  0  0  0  0  0  0  0  0  0
    4.6803   -1.4783    0.0000 C   0  0  0  0  0  0  0  0  0  0  0  0
    3.6730    0.6125    0.0000 C   0  0  0  0  0  0  0  0  0  0  0  0
    2.9483   -1.4783    0.0000 C   0  0  0  0  0  0  0  0  0  0  0  0
    2.4483   -0.6122    0.0000 C   0  0  0  0  0  0  0  0  0  0  0  0
    3.8143   -0.9783    0.0000 C   0  0  0  0  0  0  0  0  0  0  0  0
    2.7071    0.3537    0.0000 C   0  0  0  0  0  0  0  0  0  0  0  0
    4.6803   -2.4783    0.0000 C   0  0  0  0  0  0  0  0  0  0  0  0
    2.0000    1.0608    0.0000 C   0  0  0  0  0  0  0  0  0  0  0  0
    6.6496    0.8709    0.0000 H   0  0  0  0  0  0  0  0  0  0  0  0
    6.2511    1.5612    0.0000 H   0  0  0  0  0  0  0  0  0  0  0  0
    6.4526   -0.4834    0.0000 H   0  0  0  0  0  0  0  0  0  0  0  0
    5.4365    0.1246    0.0000 H   0  0  0  0  0  0  0  0  0  0  0  0
    5.6638   -1.5870    0.0000 H   0  0  0  0  0  0  0  0  0  0  0  0
    5.0976   -0.5505    0.0000 H   0  0  0  0  0  0  0  0  0  0  0  0
    5.7691    2.4930    0.0000 H   0  0  0  0  0  0  0  0  0  0  0  0
    5.1345    3.0981    0.0000 H   0  0  0  0  0  0  0  0  0  0  0  0
    4.5294    2.4635    0.0000 H   0  0  0  0  0  0  0  0  0  0  0  0
    6.3478    1.4136    0.0000 H   0  0  0  0  0  0  0  0  0  0  0  0
    6.5949    2.2549    0.0000 H   0  0  0  0  0  0  0  0  0  0  0  0
    5.7536    2.5020    0.0000 H   0  0  0  0  0  0  0  0  0  0  0  0
    3.8630    2.0155    0.0000 H   0  0  0  0  0  0  0  0  0  0  0  0
    4.1959    0.2794    0.0000 H   0  0  0  0  0  0  0  0  0  0  0  0
    2.4114   -1.7883    0.0000 H   0  0  0  0  0  0  0  0  0  0  0  0
    3.2583   -2.0152    0.0000 H   0  0  0  0  0  0  0  0  0  0  0  0
    1.9114   -0.3022    0.0000 H   0  0  0  0  0  0  0  0  0  0  0  0
    2.0099   -1.0506    0.0000 H   0  0  0  0  0  0  0  0  0  0  0  0
    4.0264   -0.3956    0.0000 H   0  0  0  0  0  0  0  0  0  0  0  0
    4.0603   -2.4783    0.0000 H   0  0  0  0  0  0  0  0  0  0  0  0
    4.6803   -3.0983    0.0000 H   0  0  0  0  0  0  0  0  0  0  0  0
    5.3003   -2.4783    0.0000 H   0  0  0  0  0  0  0  0  0  0  0  0
    2.1605    1.6597    0.0000 H   0  0  0  0  0  0  0  0  0  0  0  0
    1.4011    0.9003    0.0000 H   0  0  0  0  0  0  0  0  0  0  0  0
  1  2  1  0  0  0  0
  1  5  1  0  0  0  0
  1  6  1  0  0  0  0
  1  7  1  0  0  0  0
  2  3  1  0  0  0  0
  2 16  1  0  0  0  0
  2 17  1  0  0  0  0
  3  4  1  0  0  0  0
  3 18  1  0  0  0  0
  3 19  1  0  0  0  0
  4  8  1  0  0  0  0
  4 20  1  0  0  0  0
  4 21  1  0  0  0  0
  5 25  1  0  0  0  0
  5 26  1  0  0  0  0
  5 27  1  0  0  0  0
  6 22  1  0  0  0  0
  6 23  1  0  0  0  0
  6 24  1  0  0  0  0
  7  9  2  0  0  0  0
  7 28  1  0  0  0  0
  8 12  2  0  0  0  0
  8 14  1  0  0  0  0
  9 13  1  0  0  0  0
  9 29  1  0  0  0  0
 10 11  1  0  0  0  0
 10 12  1  0  0  0  0
 10 30  1  0  0  0  0
 10 31  1  0  0  0  0
 11 13  1  0  0  0  0
 11 32  1  0  0  0  0
 11 33  1  0  0  0  0
 12 34  1  0  0  0  0
 13 15  2  0  0  0  0
 14 35  1  0  0  0  0
 14 36  1  0  0  0  0
 14 37  1  0  0  0  0
 15 38  1  0  0  0  0
 15 39  1  0  0  0  0
M  END
> <PUBCHEM_COMPOUND_CID>
6365330

> <PUBCHEM_COMPOUND_CANONICALIZED>
1

> <PUBCHEM_CACTVS_COMPLEXITY>
276

> <PUBCHEM_CACTVS_HBOND_ACCEPTOR>
0

> <PUBCHEM_CACTVS_HBOND_DONOR>
0

> <PUBCHEM_CACTVS_ROTATABLE_BOND>
0

> <PUBCHEM_CACTVS_SUBSKEYS>
AAADceBwAAAAAAAAAAAAAAAAAAAAAAAAAAAAAAAAAAAAAAAAAAAAGAAAAAAADgCAAAACAAAAAACAAiBCAAAAAAAgAAAICAAAAAgIAAIAAQAAAAAAgAAIgAMAgEANAAAAAAAAAAAAAAAAAAAAAAAAAAAAAA==

> <PUBCHEM_IUPAC_OPENEYE_NAME>
(1E,6E)-1,8,8-trimethyl-5-methylene-cycloundeca-1,6-diene

> <PUBCHEM_IUPAC_CAS_NAME>
(1E,6E)-1,8,8-trimethyl-5-methylenecycloundeca-1,6-diene

> <PUBCHEM_IUPAC_NAME>
(1E,6E)-1,8,8-trimethyl-5-methylidenecycloundeca-1,6-diene

> <PUBCHEM_IUPAC_SYSTEMATIC_NAME>
(1E,6E)-1,8,8-trimethyl-5-methylidene-cycloundeca-1,6-diene

> <PUBCHEM_IUPAC_TRADITIONAL_NAME>
(1E,6E)-1,8,8-trimethyl-5-methylene-cycloundeca-1,6-diene

> <PUBCHEM_IUPAC_INCHI>
InChI=1S/C15H24/c1-13-7-5-8-14(2)10-12-15(3,4)11-6-9-13/h7,10,12H,2,5-6,8-9,11H2,1,3-4H3/b12-10+,13-7+

> <PUBCHEM_IUPAC_INCHIKEY>
FNXUOGPQAOCFKU-PVYBRLDNSA-N

> <PUBCHEM_XLOGP3_AA>
5

> <PUBCHEM_EXACT_MASS>
204.187801

> <PUBCHEM_MOLECULAR_FORMULA>
C15H24

> <PUBCHEM_MOLECULAR_WEIGHT>
204.35106

> <PUBCHEM_OPENEYE_CAN_SMILES>
CC1=CCCC(=C)C=CC(CCC1)(C)C

> <PUBCHEM_OPENEYE_ISO_SMILES>
C/C/1=C\CCC(=C)/C=C/C(CCC1)(C)C

> <PUBCHEM_CACTVS_TPSA>
0

> <PUBCHEM_MONOISOTOPIC_WEIGHT>
204.187801

> <PUBCHEM_TOTAL_CHARGE>
0

> <PUBCHEM_HEAVY_ATOM_COUNT>
15

> <PUBCHEM_ATOM_DEF_STEREO_COUNT>
0

> <PUBCHEM_ATOM_UDEF_STEREO_COUNT>
0

> <PUBCHEM_BOND_DEF_STEREO_COUNT>
2

> <PUBCHEM_BOND_UDEF_STEREO_COUNT>
0

> <PUBCHEM_ISOTOPIC_ATOM_COUNT>
0

> <PUBCHEM_COMPONENT_COUNT>
1

> <PUBCHEM_CACTVS_TAUTO_COUNT>
1

> <PUBCHEM_COORDINATE_TYPE>
1
5
255

$$$$

