   Color/Form
        White crystals
   from [1]HSDB

   Odor

     * Odorless
     * Slight aromatic /Technical bifenazate/

   from [2]HSDB

   Melting Point
        120-124 deg C
   from [3]HSDB

   Density/Specific Gravity
        1.31 g/cu cm at 25 deg C
   from [4]HSDB

   Octanol/Water Partition Coefficient
        log Kow = 3.4
   from [5]HSDB

   pH
        pH = 6.78 (technical grade); pH = 4.6 (wettable powder
   from [6]HSDB

   Solubilities
        In water, 3.76 mg/l @ 20 deg C
   from [7]HSDB

   Vapor Pressure
        7.5X10-8 mm Hg @ 25 deg C
   from [8]HSDB

   Other Chemical/Physical Properties

     * Henry's Law constant = 9.86X10-9 atm-cu m/mol, temp not specified
     * 0.21 g/cu cm at 25 deg C /End-use product/

   from [9]HSDB

   Computed Properties
   Molecular Weight                  300.3523 [g/mol]
   Molecular Formula                 C[17]H[20]N[2]O[3]
   XLogP3-AA                         4.2
   H-Bond Donor                      2
   H-Bond Acceptor                   4
   Rotatable Bond Count              6
   Tautomer Count                    2
   Exact Mass                        300.147393
   MonoIsotopic Mass                 300.147393
   Topological Polar Surface Area    59.6
   Heavy Atom Count                  22
   Formal Charge                     0
   Complexity                        343
   Isotope Atom Count                0
   Defined Atom Stereocenter Count   0
   Undefined Atom Stereocenter Count 0
   Defined Bond Stereocenter Count   0
   Undefined Bond Stereocenter Count 0
   Covalently-Bonded Unit Count      1
   Feature 3D Acceptor Count         2
   Feature 3D Donor Count            2
   Feature 3D Hydrophobe Count       1
   Feature 3D Ring Count             2
   Effective Rotor Count             7
   Conformer Sampling RMSD           0.8
   CID Conformer Count               [10]62

References

   1. http://toxnet.nlm.nih.gov/cgi-bin/sis/search/r?dbs+hsdb:@term+@rn+@rel+149877-41-8
   2. http://toxnet.nlm.nih.gov/cgi-bin/sis/search/r?dbs+hsdb:@term+@rn+@rel+149877-41-8
   3. http://toxnet.nlm.nih.gov/cgi-bin/sis/search/r?dbs+hsdb:@term+@rn+@rel+149877-41-8
   4. http://toxnet.nlm.nih.gov/cgi-bin/sis/search/r?dbs+hsdb:@term+@rn+@rel+149877-41-8
   5. http://toxnet.nlm.nih.gov/cgi-bin/sis/search/r?dbs+hsdb:@term+@rn+@rel+149877-41-8
   6. http://toxnet.nlm.nih.gov/cgi-bin/sis/search/r?dbs+hsdb:@term+@rn+@rel+149877-41-8
   7. http://toxnet.nlm.nih.gov/cgi-bin/sis/search/r?dbs+hsdb:@term+@rn+@rel+149877-41-8
   8. http://toxnet.nlm.nih.gov/cgi-bin/sis/search/r?dbs+hsdb:@term+@rn+@rel+149877-41-8
   9. http://toxnet.nlm.nih.gov/cgi-bin/sis/search/r?dbs+hsdb:@term+@rn+@rel+149877-41-8
  10. http://pubchem.ncbi.nlm.nih.gov/vw3d/vw3d.cgi?cid=176879
