23666711
  -OEChem-07051212542D

 47 48  0     1  0  0  0  0  0999 V2000
    7.0468   -0.7607    0.0000 S   0  0  0  0  0  0  0  0  0  0  0  0
    4.4487    0.7393    0.0000 S   0  0  0  0  0  0  0  0  0  0  0  0
   11.9175   -2.0031    0.0000 S   0  0  0  0  0  0  0  0  0  0  0  0
    6.1808    3.7393    0.0000 Na  0  3  0  0  0  0  0  0  0  0  0  0
    8.9190   -1.2649    0.0000 O   0  0  0  0  0  0  0  0  0  0  0  0
    9.6267    1.4520    0.0000 O   0  0  0  0  0  0  0  0  0  0  0  0
    6.1808    2.7393    0.0000 O   0  5  0  0  0  0  0  0  0  0  0  0
    7.9128    2.7393    0.0000 O   0  0  0  0  0  0  0  0  0  0  0  0
    9.9175   -1.9990    0.0000 O   0  0  0  0  0  0  0  0  0  0  0  0
    7.9128    0.7393    0.0000 N   0  0  0  0  0  0  0  0  0  0  0  0
    9.9211   -0.2669    0.0000 N   0  0  0  0  0  0  0  0  0  0  0  0
    2.6691    0.8325    0.0000 N   0  0  0  0  0  0  0  0  0  0  0  0
    3.4782    2.2338    0.0000 N   0  0  0  0  0  0  0  0  0  0  0  0
    2.0000    1.5757    0.0000 N   0  0  0  0  0  0  0  0  0  0  0  0
    2.5000    2.4417    0.0000 N   0  0  0  0  0  0  0  0  0  0  0  0
   13.9140   -3.7393    0.0000 N   0  0  0  0  0  0  0  0  0  0  0  0
    7.9128   -0.2607    0.0000 C   0  0  1  0  0  0  0  0  0  0  0  0
    8.9211   -0.2649    0.0000 C   0  0  2  0  0  0  0  0  0  0  0  0
    8.9211    0.7434    0.0000 C   0  0  0  0  0  0  0  0  0  0  0  0
    7.0468    1.2393    0.0000 C   0  0  0  0  0  0  0  0  0  0  0  0
    6.1808    0.7393    0.0000 C   0  0  0  0  0  0  0  0  0  0  0  0
    6.1808   -0.2607    0.0000 C   0  0  0  0  0  0  0  0  0  0  0  0
    5.3147    1.2393    0.0000 C   0  0  0  0  0  0  0  0  0  0  0  0
    7.0468    2.2393    0.0000 C   0  0  0  0  0  0  0  0  0  0  0  0
   10.4193   -1.1340    0.0000 C   0  0  0  0  0  0  0  0  0  0  0  0
    8.0520   -1.7631    0.0000 C   0  0  0  0  0  0  0  0  0  0  0  0
   11.4193   -1.1360    0.0000 C   0  0  0  0  0  0  0  0  0  0  0  0
    3.5827    1.2393    0.0000 C   0  0  0  0  0  0  0  0  0  0  0  0
   12.9175   -2.0052    0.0000 C   0  0  0  0  0  0  0  0  0  0  0  0
    2.4612   -0.1456    0.0000 C   0  0  0  0  0  0  0  0  0  0  0  0
   13.4157   -2.8722    0.0000 C   0  0  0  0  0  0  0  0  0  0  0  0
    8.1311   -1.0822    0.0000 H   0  0  0  0  0  0  0  0  0  0  0  0
   10.2322    0.2694    0.0000 H   0  0  0  0  0  0  0  0  0  0  0  0
    5.5702   -0.1531    0.0000 H   0  0  0  0  0  0  0  0  0  0  0  0
    5.9687   -0.8434    0.0000 H   0  0  0  0  0  0  0  0  0  0  0  0
    5.7133    1.7142    0.0000 H   0  0  0  0  0  0  0  0  0  0  0  0
    4.9162    1.7142    0.0000 H   0  0  0  0  0  0  0  0  0  0  0  0
    7.7431   -1.2255    0.0000 H   0  0  0  0  0  0  0  0  0  0  0  0
    7.5144   -2.0720    0.0000 H   0  0  0  0  0  0  0  0  0  0  0  0
    8.3609   -2.3007    0.0000 H   0  0  0  0  0  0  0  0  0  0  0  0
   12.0023   -0.9252    0.0000 H   0  0  0  0  0  0  0  0  0  0  0  0
   11.3129   -0.5252    0.0000 H   0  0  0  0  0  0  0  0  0  0  0  0
   13.5006   -1.7943    0.0000 H   0  0  0  0  0  0  0  0  0  0  0  0
   12.8111   -1.3944    0.0000 H   0  0  0  0  0  0  0  0  0  0  0  0
    1.8548   -0.0167    0.0000 H   0  0  0  0  0  0  0  0  0  0  0  0
    2.3323   -0.7521    0.0000 H   0  0  0  0  0  0  0  0  0  0  0  0
    3.0677   -0.2745    0.0000 H   0  0  0  0  0  0  0  0  0  0  0  0
  1 17  1  0  0  0  0
  1 22  1  0  0  0  0
  2 23  1  0  0  0  0
  2 28  1  0  0  0  0
  3 27  1  0  0  0  0
  3 29  1  0  0  0  0
 18  5  1  6  0  0  0
  5 26  1  0  0  0  0
  6 19  2  0  0  0  0
  7 24  1  0  0  0  0
  8 24  2  0  0  0  0
  9 25  2  0  0  0  0
 10 17  1  0  0  0  0
 10 19  1  0  0  0  0
 10 20  1  0  0  0  0
 11 18  1  0  0  0  0
 11 25  1  0  0  0  0
 11 33  1  0  0  0  0
 12 14  1  0  0  0  0
 12 28  1  0  0  0  0
 12 30  1  0  0  0  0
 13 15  1  0  0  0  0
 13 28  2  0  0  0  0
 14 15  2  0  0  0  0
 16 31  3  0  0  0  0
 17 18  1  0  0  0  0
 17 32  1  6  0  0  0
 18 19  1  0  0  0  0
 20 21  2  0  0  0  0
 20 24  1  0  0  0  0
 21 22  1  0  0  0  0
 21 23  1  0  0  0  0
 22 34  1  0  0  0  0
 22 35  1  0  0  0  0
 23 36  1  0  0  0  0
 23 37  1  0  0  0  0
 25 27  1  0  0  0  0
 26 38  1  0  0  0  0
 26 39  1  0  0  0  0
 26 40  1  0  0  0  0
 27 41  1  0  0  0  0
 27 42  1  0  0  0  0
 29 31  1  0  0  0  0
 29 43  1  0  0  0  0
 29 44  1  0  0  0  0
 30 45  1  0  0  0  0
 30 46  1  0  0  0  0
 30 47  1  0  0  0  0
M  CHG  2   4   1   7  -1
M  END
> <PUBCHEM_COMPOUND_CID>
23666711

> <PUBCHEM_COMPOUND_CANONICALIZED>
1

> <PUBCHEM_CACTVS_COMPLEXITY>
824

> <PUBCHEM_CACTVS_HBOND_ACCEPTOR>
12

> <PUBCHEM_CACTVS_HBOND_DONOR>
1

> <PUBCHEM_CACTVS_ROTATABLE_BOND>
9

> <PUBCHEM_CACTVS_SUBSKEYS>
AAADceBzuCBgAAAAAAAAAAAAAABYAWAAAAAgAAAAAAAQAAABgAAAHgQYAAAADAzFwAaDGAfIBAi6BgXQfAIAEANAgJAFSAHIAEGCRAggACQVEAAAFgCwAQAAAAAAAAAAAAAAAAAAAAAAAAAAAAAAAAAAAA==

> <PUBCHEM_IUPAC_OPENEYE_NAME>
sodium (6R,7S)-7-[[2-(cyanomethylsulfanyl)acetyl]amino]-7-methoxy-3-[(1-methyltetrazol-5-yl)sulfanylmethyl]-8-oxo-5-thia-1-azabicyclo[4.2.0]oct-2-ene-2-carboxylate

> <PUBCHEM_IUPAC_CAS_NAME>
sodium (6R,7S)-7-[[2-(cyanomethylthio)-1-oxoethyl]amino]-7-methoxy-3-[[(1-methyl-5-tetrazolyl)thio]methyl]-8-oxo-5-thia-1-azabicyclo[4.2.0]oct-2-ene-2-carboxylate

> <PUBCHEM_IUPAC_NAME>
sodium (6R,7S)-7-[[2-(cyanomethylsulfanyl)acetyl]amino]-7-methoxy-3-[(1-methyltetrazol-5-yl)sulfanylmethyl]-8-oxo-5-thia-1-azabicyclo[4.2.0]oct-2-ene-2-carboxylate

> <PUBCHEM_IUPAC_SYSTEMATIC_NAME>
sodium (6R,7S)-7-[2-(cyanomethylsulfanyl)ethanoylamino]-7-methoxy-3-[(1-methyl-1,2,3,4-tetrazol-5-yl)sulfanylmethyl]-8-oxidanylidene-5-thia-1-azabicyclo[4.2.0]oct-2-ene-2-carboxylate

> <PUBCHEM_IUPAC_TRADITIONAL_NAME>
sodium (6R,7S)-7-[[2-(cyanomethylthio)acetyl]amino]-8-keto-7-methoxy-3-[[(1-methyltetrazol-5-yl)thio]methyl]-5-thia-1-azabicyclo[4.2.0]oct-2-ene-2-carboxylate

> <PUBCHEM_IUPAC_INCHI>
InChI=1S/C15H17N7O5S3.Na/c1-21-14(18-19-20-21)30-6-8-5-29-13-15(27-2,17-9(23)7-28-4-3-16)12(26)22(13)10(8)11(24)25;/h13H,4-7H2,1-2H3,(H,17,23)(H,24,25);/q;+1/p-1/t13-,15+;/m1./s1

> <PUBCHEM_IUPAC_INCHIKEY>
BITQGIOJQWZUPL-PBCQUBLHSA-M

> <PUBCHEM_EXACT_MASS>
493.027274

> <PUBCHEM_MOLECULAR_FORMULA>
C15H16N7NaO5S3

> <PUBCHEM_MOLECULAR_WEIGHT>
493.516209

> <PUBCHEM_OPENEYE_CAN_SMILES>
CN1C(=NN=N1)SCC2=C(N3C(C(C3=O)(NC(=O)CSCC#N)OC)SC2)C(=O)[O-].[Na+]

> <PUBCHEM_OPENEYE_ISO_SMILES>
CN1C(=NN=N1)SCC2=C(N3[C@@H]([C@@](C3=O)(NC(=O)CSCC#N)OC)SC2)C(=O)[O-].[Na+]

> <PUBCHEM_CACTVS_TPSA>
242

> <PUBCHEM_MONOISOTOPIC_WEIGHT>
493.027274

> <PUBCHEM_TOTAL_CHARGE>
0

> <PUBCHEM_HEAVY_ATOM_COUNT>
31

> <PUBCHEM_ATOM_DEF_STEREO_COUNT>
2

> <PUBCHEM_ATOM_UDEF_STEREO_COUNT>
0

> <PUBCHEM_BOND_DEF_STEREO_COUNT>
0

> <PUBCHEM_BOND_UDEF_STEREO_COUNT>
0

> <PUBCHEM_ISOTOPIC_ATOM_COUNT>
0

> <PUBCHEM_COMPONENT_COUNT>
2

> <PUBCHEM_CACTVS_TAUTO_COUNT>
2

> <PUBCHEM_NONSTANDARDBOND>
4  7  7

> <PUBCHEM_COORDINATE_TYPE>
1
5
255

> <PUBCHEM_BONDANNOTATIONS>
12  14  8
12  28  8
13  15  8
13  28  8
14  15  8
17  32  6
18  5  6

$$$$

