4478
  -OEChem-06261200092D

 85 89  0     1  0  0  0  0  0999 V2000
    5.0474    0.2303    0.0000 P   0  0  3  0  0  0  0  0  0  0  0  0
    5.4104    1.9239    0.0000 P   0  0  3  0  0  0  0  0  0  0  0  0
    7.4382    4.2532    0.0000 O   0  0  0  0  0  0  0  0  0  0  0  0
    4.4026   -3.2229    0.0000 O   0  0  0  0  0  0  0  0  0  0  0  0
    7.2108    6.8308    0.0000 O   0  0  0  0  0  0  0  0  0  0  0  0
    5.3248    5.7462    0.0000 O   0  0  0  0  0  0  0  0  0  0  0  0
    6.7523   -2.1392    0.0000 O   0  0  0  0  0  0  0  0  0  0  0  0
    6.7485   -4.3147    0.0000 O   0  0  0  0  0  0  0  0  0  0  0  0
    6.0809    2.6659    0.0000 O   0  0  0  0  0  0  0  0  0  0  0  0
    5.3548   -0.7213    0.0000 O   0  0  0  0  0  0  0  0  0  0  0  0
    4.7400    1.1819    0.0000 O   0  0  0  0  0  0  0  0  0  0  0  0
    5.9990    0.5377    0.0000 O   0  0  0  0  0  0  0  0  0  0  0  0
    4.0958   -0.0771    0.0000 O   0  0  0  0  0  0  0  0  0  0  0  0
    4.6685    2.5943    0.0000 O   0  5  0  0  0  0  0  0  0  0  0  0
    6.1524    1.2534    0.0000 O   0  0  0  0  0  0  0  0  0  0  0  0
   12.1178    4.2961    0.0000 O   0  0  0  0  0  0  0  0  0  0  0  0
   11.4034    7.6857    0.0000 O   0  0  0  0  0  0  0  0  0  0  0  0
    8.8251    5.3722    0.0000 N   0  3  0  0  0  0  0  0  0  0  0  0
    4.6783   -4.9834    0.0000 N   0  0  0  0  0  0  0  0  0  0  0  0
    4.6783   -6.5929    0.0000 N   0  0  0  0  0  0  0  0  0  0  0  0
    2.8660   -4.7882    0.0000 N   0  0  0  0  0  0  0  0  0  0  0  0
    2.0000   -6.2882    0.0000 N   0  0  0  0  0  0  0  0  0  0  0  0
    2.8660   -7.7882    0.0000 N   0  0  0  0  0  0  0  0  0  0  0  0
   10.8286    3.1393    0.0000 N   0  0  0  0  0  0  0  0  0  0  0  0
    7.1046    5.8364    0.0000 C   0  0  3  0  0  0  0  0  0  0  0  0
    6.2377    5.3379    0.0000 C   0  0  3  0  0  0  0  0  0  0  0  0
    7.8466    5.1660    0.0000 C   0  0  3  0  0  0  0  0  0  0  0  0
    6.4439    4.3594    0.0000 C   0  0  3  0  0  0  0  0  0  0  0  0
    5.9422   -2.7255    0.0000 C   0  0  3  0  0  0  0  0  0  0  0  0
    5.9405   -3.7255    0.0000 C   0  0  3  0  0  0  0  0  0  0  0  0
    4.9917   -2.4149    0.0000 C   0  0  3  0  0  0  0  0  0  0  0  0
    4.9889   -4.0329    0.0000 C   0  0  3  0  0  0  0  0  0  0  0  0
    5.7735    3.6174    0.0000 C   0  0  0  0  0  0  0  0  0  0  0  0
    4.6844   -1.4633    0.0000 C   0  0  0  0  0  0  0  0  0  0  0  0
    9.4929    4.6279    0.0000 C   0  0  0  0  0  0  0  0  0  0  0  0
    3.7320   -5.2882    0.0000 C   0  0  0  0  0  0  0  0  0  0  0  0
    9.1357    6.3228    0.0000 C   0  0  0  0  0  0  0  0  0  0  0  0
    5.2619   -5.7882    0.0000 C   0  0  0  0  0  0  0  0  0  0  0  0
   10.4714    4.8342    0.0000 C   0  0  0  0  0  0  0  0  0  0  0  0
   10.7821    5.7847    0.0000 C   0  0  0  0  0  0  0  0  0  0  0  0
   10.1142    6.5290    0.0000 C   0  0  0  0  0  0  0  0  0  0  0  0
    3.7320   -6.2882    0.0000 C   0  0  0  0  0  0  0  0  0  0  0  0
   11.7606    5.9909    0.0000 C   0  0  3  0  0  0  0  0  0  0  0  0
    2.8660   -6.7882    0.0000 C   0  0  0  0  0  0  0  0  0  0  0  0
   11.1393    4.0899    0.0000 C   0  0  0  0  0  0  0  0  0  0  0  0
   12.4284    5.2466    0.0000 C   0  0  0  0  0  0  0  0  0  0  0  0
   12.0713    6.9414    0.0000 C   0  0  0  0  0  0  0  0  0  0  0  0
    2.0000   -5.2882    0.0000 C   0  0  0  0  0  0  0  0  0  0  0  0
   13.0498    7.1476    0.0000 C   0  0  0  0  0  0  0  0  0  0  0  0
   13.3604    8.0982    0.0000 C   0  0  0  0  0  0  0  0  0  0  0  0
    7.6838    6.0576    0.0000 H   0  0  0  0  0  0  0  0  0  0  0  0
    6.2063    5.9571    0.0000 H   0  0  0  0  0  0  0  0  0  0  0  0
    8.0081    5.7646    0.0000 H   0  0  0  0  0  0  0  0  0  0  0  0
    6.6651    3.7802    0.0000 H   0  0  0  0  0  0  0  0  0  0  0  0
    6.4942   -3.0080    0.0000 H   0  0  0  0  0  0  0  0  0  0  0  0
    5.8425   -4.3377    0.0000 H   0  0  0  0  0  0  0  0  0  0  0  0
    4.3795   -2.3168    0.0000 H   0  0  0  0  0  0  0  0  0  0  0  0
    5.4266   -4.4721    0.0000 H   0  0  0  0  0  0  0  0  0  0  0  0
    5.3926    4.1067    0.0000 H   0  0  0  0  0  0  0  0  0  0  0  0
    5.2256    3.3273    0.0000 H   0  0  0  0  0  0  0  0  0  0  0  0
    4.3035   -0.9741    0.0000 H   0  0  0  0  0  0  0  0  0  0  0  0
    4.1364   -1.7534    0.0000 H   0  0  0  0  0  0  0  0  0  0  0  0
    6.7099    7.1961    0.0000 H   0  0  0  0  0  0  0  0  0  0  0  0
    5.2611    6.3630    0.0000 H   0  0  0  0  0  0  0  0  0  0  0  0
    9.3003    4.0386    0.0000 H   0  0  0  0  0  0  0  0  0  0  0  0
    7.3182   -2.3923    0.0000 H   0  0  0  0  0  0  0  0  0  0  0  0
    7.3154   -4.0635    0.0000 H   0  0  0  0  0  0  0  0  0  0  0  0
    8.7217    6.7842    0.0000 H   0  0  0  0  0  0  0  0  0  0  0  0
    5.8819   -5.7882    0.0000 H   0  0  0  0  0  0  0  0  0  0  0  0
   10.3069    7.1183    0.0000 H   0  0  0  0  0  0  0  0  0  0  0  0
   11.5680    5.4016    0.0000 H   0  0  0  0  0  0  0  0  0  0  0  0
   11.9670    4.8325    0.0000 H   0  0  0  0  0  0  0  0  0  0  0  0
   12.8425    4.7851    0.0000 H   0  0  0  0  0  0  0  0  0  0  0  0
   12.8899    5.6607    0.0000 H   0  0  0  0  0  0  0  0  0  0  0  0
    1.4631   -4.9782    0.0000 H   0  0  0  0  0  0  0  0  0  0  0  0
   13.0703    6.5280    0.0000 H   0  0  0  0  0  0  0  0  0  0  0  0
   13.6636    7.0603    0.0000 H   0  0  0  0  0  0  0  0  0  0  0  0
    6.4590    0.1220    0.0000 H   0  0  0  0  0  0  0  0  0  0  0  0
    2.3291   -8.0982    0.0000 H   0  0  0  0  0  0  0  0  0  0  0  0
    3.4030   -8.0982    0.0000 H   0  0  0  0  0  0  0  0  0  0  0  0
   11.2427    2.6779    0.0000 H   0  0  0  0  0  0  0  0  0  0  0  0
   10.2219    3.0115    0.0000 H   0  0  0  0  0  0  0  0  0  0  0  0
   13.9497    7.9056    0.0000 H   0  0  0  0  0  0  0  0  0  0  0  0
   13.5530    8.6875    0.0000 H   0  0  0  0  0  0  0  0  0  0  0  0
   12.7711    8.2908    0.0000 H   0  0  0  0  0  0  0  0  0  0  0  0
  1 10  1  0  0  0  0
  1 11  1  0  0  0  0
  1 12  1  0  0  0  0
  1 13  2  0  0  0  0
  2  9  1  0  0  0  0
  2 11  1  0  0  0  0
  2 14  1  0  0  0  0
  2 15  2  0  0  0  0
  3 27  1  0  0  0  0
  3 28  1  0  0  0  0
  4 31  1  0  0  0  0
  4 32  1  0  0  0  0
  5 25  1  0  0  0  0
  5 63  1  0  0  0  0
  6 26  1  0  0  0  0
  6 64  1  0  0  0  0
  7 29  1  0  0  0  0
  7 66  1  0  0  0  0
  8 30  1  0  0  0  0
  8 67  1  0  0  0  0
  9 33  1  0  0  0  0
 10 34  1  0  0  0  0
 12 78  1  0  0  0  0
 16 45  2  0  0  0  0
 17 47  2  0  0  0  0
 18 27  1  0  0  0  0
 18 35  2  0  0  0  0
 18 37  1  0  0  0  0
 19 32  1  0  0  0  0
 19 36  1  0  0  0  0
 19 38  1  0  0  0  0
 20 38  2  0  0  0  0
 20 42  1  0  0  0  0
 21 36  2  0  0  0  0
 21 48  1  0  0  0  0
 22 44  1  0  0  0  0
 22 48  2  0  0  0  0
 23 44  1  0  0  0  0
 23 79  1  0  0  0  0
 23 80  1  0  0  0  0
 24 45  1  0  0  0  0
 24 81  1  0  0  0  0
 24 82  1  0  0  0  0
 25 26  1  0  0  0  0
 25 27  1  0  0  0  0
 25 51  1  0  0  0  0
 26 28  1  0  0  0  0
 26 52  1  0  0  0  0
 27 53  1  0  0  0  0
 28 33  1  0  0  0  0
 28 54  1  0  0  0  0
 29 30  1  0  0  0  0
 29 31  1  0  0  0  0
 29 55  1  0  0  0  0
 30 32  1  0  0  0  0
 30 56  1  0  0  0  0
 31 34  1  0  0  0  0
 31 57  1  0  0  0  0
 32 58  1  0  0  0  0
 33 59  1  0  0  0  0
 33 60  1  0  0  0  0
 34 61  1  0  0  0  0
 34 62  1  0  0  0  0
 35 39  1  0  0  0  0
 35 65  1  0  0  0  0
 36 42  1  0  0  0  0
 37 41  2  0  0  0  0
 37 68  1  0  0  0  0
 38 69  1  0  0  0  0
 39 40  2  0  0  0  0
 39 45  1  0  0  0  0
 40 41  1  0  0  0  0
 40 43  1  0  0  0  0
 41 70  1  0  0  0  0
 42 44  2  0  0  0  0
 43 46  1  0  0  0  0
 43 47  1  0  0  0  0
 43 71  1  0  0  0  0
 46 72  1  0  0  0  0
 46 73  1  0  0  0  0
 46 74  1  0  0  0  0
 47 49  1  0  0  0  0
 48 75  1  0  0  0  0
 49 50  1  0  0  0  0
 49 76  1  0  0  0  0
 49 77  1  0  0  0  0
 50 83  1  0  0  0  0
 50 84  1  0  0  0  0
 50 85  1  0  0  0  0
M  CHG  2  14  -1  18   1
M  END
> <PUBCHEM_COMPOUND_CID>
4478

> <PUBCHEM_COMPOUND_CANONICALIZED>
1

> <PUBCHEM_CACTVS_COMPLEXITY>
1320

> <PUBCHEM_CACTVS_HBOND_ACCEPTOR>
19

> <PUBCHEM_CACTVS_HBOND_DONOR>
7

> <PUBCHEM_CACTVS_ROTATABLE_BOND>
14

> <PUBCHEM_CACTVS_SUBSKEYS>
AAADcfB7vAMAAAAAAAAAAAAAAAAAAWJEgAAsWAAAAAAAAFgB/gAAHgAQCCAADRzhnwY/8L9MFxCoQ7d3dICCgC01EqAJ2CE4dNiLeHrA3dGeZYhvgALbyef4u0KugAAAAAAAAAAAAAAAAAAAAAAAAAAAAA==

> <PUBCHEM_IUPAC_OPENEYE_NAME>
[[5-(6-aminopurin-9-yl)-3,4-dihydroxy-tetrahydrofuran-2-yl]methoxy-hydroxy-phosphoryl] [5-[3-carbamoyl-4-(1-methyl-2-oxo-butyl)pyridin-1-ium-1-yl]-3,4-dihydroxy-tetrahydrofuran-2-yl]methyl phosphate

> <PUBCHEM_IUPAC_CAS_NAME>
[[5-(6-aminopurin-9-yl)-3,4-dihydroxy-2-oxolanyl]methoxy-hydroxyphosphoryl] [5-[3-carbamoyl-4-(3-oxopentan-2-yl)-1-pyridin-1-iumyl]-3,4-dihydroxy-2-oxolanyl]methyl phosphate

> <PUBCHEM_IUPAC_NAME>
[[5-(6-aminopurin-9-yl)-3,4-dihydroxyoxolan-2-yl]methoxy-hydroxyphosphoryl] [5-[3-carbamoyl-4-(3-oxopentan-2-yl)pyridin-1-ium-1-yl]-3,4-dihydroxyoxolan-2-yl]methyl phosphate

> <PUBCHEM_IUPAC_SYSTEMATIC_NAME>
[5-[3-aminocarbonyl-4-(3-oxidanylidenepentan-2-yl)pyridin-1-ium-1-yl]-3,4-bis(oxidanyl)oxolan-2-yl]methyl [[5-(6-aminopurin-9-yl)-3,4-bis(oxidanyl)oxolan-2-yl]methoxy-oxidanyl-phosphoryl] phosphate

> <PUBCHEM_IUPAC_TRADITIONAL_NAME>
[(5-adenin-9-yl-3,4-dihydroxy-tetrahydrofuran-2-yl)methoxy-hydroxy-phosphoryl] [5-[3-carbamoyl-4-(2-keto-1-methyl-butyl)pyridin-1-ium-1-yl]-3,4-dihydroxy-tetrahydrofuran-2-yl]methyl phosphate

> <PUBCHEM_IUPAC_INCHI>
InChI=1S/C26H35N7O15P2/c1-3-14(34)11(2)12-4-5-32(6-13(12)23(28)39)25-20(37)18(35)15(46-25)7-44-49(40,41)48-50(42,43)45-8-16-19(36)21(38)26(47-16)33-10-31-17-22(27)29-9-30-24(17)33/h4-6,9-11,15-16,18-21,25-26,35-38H,3,7-8H2,1-2H3,(H5-,27,28,29,30,39,40,41,42,43)

> <PUBCHEM_IUPAC_INCHIKEY>
BZJFKYRGSZWSLT-UHFFFAOYSA-N

> <PUBCHEM_XLOGP3>
-5.3

> <PUBCHEM_EXACT_MASS>
747.166637

> <PUBCHEM_MOLECULAR_FORMULA>
C26H35N7O15P2

> <PUBCHEM_MOLECULAR_WEIGHT>
747.541524

> <PUBCHEM_OPENEYE_CAN_SMILES>
CCC(=O)C(C)C1=C(C=[N+](C=C1)C2C(C(C(O2)COP(=O)([O-])OP(=O)(O)OCC3C(C(C(O3)N4C=NC5=C4N=CN=C5N)O)O)O)O)C(=O)N

> <PUBCHEM_OPENEYE_ISO_SMILES>
CCC(=O)C(C)C1=C(C=[N+](C=C1)C2C(C(C(O2)COP(=O)([O-])OP(=O)(O)OCC3C(C(C(O3)N4C=NC5=C4N=CN=C5N)O)O)O)O)C(=O)N

> <PUBCHEM_CACTVS_TPSA>
338

> <PUBCHEM_MONOISOTOPIC_WEIGHT>
747.166637

> <PUBCHEM_TOTAL_CHARGE>
0

> <PUBCHEM_HEAVY_ATOM_COUNT>
50

> <PUBCHEM_ATOM_DEF_STEREO_COUNT>
0

> <PUBCHEM_ATOM_UDEF_STEREO_COUNT>
9

> <PUBCHEM_BOND_DEF_STEREO_COUNT>
0

> <PUBCHEM_BOND_UDEF_STEREO_COUNT>
0

> <PUBCHEM_ISOTOPIC_ATOM_COUNT>
0

> <PUBCHEM_COMPONENT_COUNT>
1

> <PUBCHEM_CACTVS_TAUTO_COUNT>
36

> <PUBCHEM_COORDINATE_TYPE>
1
5
255

> <PUBCHEM_BONDANNOTATIONS>
27  18  3
18  35  8
18  37  8
32  19  3
19  36  8
19  38  8
20  38  8
20  42  8
21  36  8
21  48  8
22  44  8
22  48  8
28  33  3
31  34  3
35  39  8
36  42  8
37  41  8
39  40  8
40  41  8
42  44  8
43  46  3
25  5  3
26  6  3
29  7  3
30  8  3

$$$$

