294491
  -OEChem-07051212572D

 51 57  0     1  0  0  0  0  0999 V2000
    5.1353    0.2473    0.0000 O   0  0  0  0  0  0  0  0  0  0  0  0
    2.5088    1.7828    0.0000 O   0  0  0  0  0  0  0  0  0  0  0  0
    5.1353    3.2481    0.0000 O   0  0  0  0  0  0  0  0  0  0  0  0
    2.5369    2.7477    0.0000 O   0  0  0  0  0  0  0  0  0  0  0  0
    6.1254   -2.3892    0.0000 O   0  0  0  0  0  0  0  0  0  0  0  0
    3.0185   -3.6153    0.0000 O   0  0  0  0  0  0  0  0  0  0  0  0
    4.7591   -4.2477    0.0000 O   0  0  0  0  0  0  0  0  0  0  0  0
    4.2690    0.7477    0.0000 C   0  0  2  0  0  0  0  0  0  0  0  0
    3.4030    1.2477    0.0000 C   0  0  2  0  0  0  0  0  0  0  0  0
    5.1350    1.2477    0.0000 C   0  0  2  0  0  0  0  0  0  0  0  0
    4.2850   -0.2938    0.0000 C   0  0  2  0  0  0  0  0  0  0  0  0
    4.2690    2.7477    0.0000 C   0  0  1  0  0  0  0  0  0  0  0  0
    5.1350    2.2477    0.0000 C   0  0  1  0  0  0  0  0  0  0  0  0
    2.4930    0.7408    0.0000 C   0  0  2  0  0  0  0  0  0  0  0  0
    3.4030    2.2477    0.0000 C   0  0  1  0  0  0  0  0  0  0  0  0
    3.3870   -0.8216    0.0000 C   0  0  1  0  0  0  0  0  0  0  0  0
    2.4849   -0.3008    0.0000 C   0  0  0  0  0  0  0  0  0  0  0  0
    5.2370   -0.8144    0.0000 C   0  0  0  0  0  0  0  0  0  0  0  0
    4.2690    3.7477    0.0000 C   0  0  0  0  0  0  0  0  0  0  0  0
    5.2850   -0.2861    0.0000 C   0  0  0  0  0  0  0  0  0  0  0  0
    3.3786   -1.9065    0.0000 C   0  0  0  0  0  0  0  0  0  0  0  0
    5.2537   -1.8993    0.0000 C   0  0  1  0  0  0  0  0  0  0  0  0
    4.3183   -2.4490    0.0000 C   0  0  0  0  0  0  0  0  0  0  0  0
    5.1350    4.2477    0.0000 C   0  0  0  0  0  0  0  0  0  0  0  0
    3.4030    4.2477    0.0000 C   0  0  0  0  0  0  0  0  0  0  0  0
    2.5790   -2.6303    0.0000 C   0  0  0  0  0  0  0  0  0  0  0  0
    4.0913   -3.5034    0.0000 C   0  0  0  0  0  0  0  0  0  0  0  0
    5.9850    1.2478    0.0000 H   0  0  0  0  0  0  0  0  0  0  0  0
    5.9850    2.2476    0.0000 H   0  0  0  0  0  0  0  0  0  0  0  0
    1.6430    0.7506    0.0000 H   0  0  0  0  0  0  0  0  0  0  0  0
    3.4030    2.8677    0.0000 H   0  0  0  0  0  0  0  0  0  0  0  0
    2.6492   -1.2437    0.0000 H   0  0  0  0  0  0  0  0  0  0  0  0
    1.8749   -0.1900    0.0000 H   0  0  0  0  0  0  0  0  0  0  0  0
    2.2714   -0.8828    0.0000 H   0  0  0  0  0  0  0  0  0  0  0  0
    5.8494   -0.9111    0.0000 H   0  0  0  0  0  0  0  0  0  0  0  0
    5.4370   -0.2276    0.0000 H   0  0  0  0  0  0  0  0  0  0  0  0
    3.7320    3.4377    0.0000 H   0  0  0  0  0  0  0  0  0  0  0  0
    5.2898   -0.9061    0.0000 H   0  0  0  0  0  0  0  0  0  0  0  0
    5.9050   -0.2813    0.0000 H   0  0  0  0  0  0  0  0  0  0  0  0
    5.2802    0.3339    0.0000 H   0  0  0  0  0  0  0  0  0  0  0  0
    5.2597   -2.5193    0.0000 H   0  0  0  0  0  0  0  0  0  0  0  0
    2.0000    2.4377    0.0000 H   0  0  0  0  0  0  0  0  0  0  0  0
    5.4450    3.7108    0.0000 H   0  0  0  0  0  0  0  0  0  0  0  0
    5.6720    4.5577    0.0000 H   0  0  0  0  0  0  0  0  0  0  0  0
    4.8250    4.7846    0.0000 H   0  0  0  0  0  0  0  0  0  0  0  0
    3.7131    4.7846    0.0000 H   0  0  0  0  0  0  0  0  0  0  0  0
    2.8661    4.5578    0.0000 H   0  0  0  0  0  0  0  0  0  0  0  0
    3.0930    3.7108    0.0000 H   0  0  0  0  0  0  0  0  0  0  0  0
    2.2136   -2.1295    0.0000 H   0  0  0  0  0  0  0  0  0  0  0  0
    2.0425   -2.9411    0.0000 H   0  0  0  0  0  0  0  0  0  0  0  0
    6.6588   -2.0731    0.0000 H   0  0  0  0  0  0  0  0  0  0  0  0
  8  1  1  6  0  0  0
  1 10  1  0  0  0  0
  9  2  1  6  0  0  0
  2 14  1  0  0  0  0
  3 12  1  0  0  0  0
  3 13  1  0  0  0  0
 15  4  1  6  0  0  0
  4 42  1  0  0  0  0
 22  5  1  6  0  0  0
  5 51  1  0  0  0  0
  6 26  1  0  0  0  0
  6 27  1  0  0  0  0
  7 27  2  0  0  0  0
  8  9  1  0  0  0  0
  8 10  1  0  0  0  0
  8 11  1  0  0  0  0
  9 14  1  0  0  0  0
  9 15  1  0  0  0  0
 10 13  1  0  0  0  0
 10 28  1  1  0  0  0
 11 16  1  0  0  0  0
 11 18  1  0  0  0  0
 11 20  1  6  0  0  0
 12 13  1  0  0  0  0
 12 15  1  0  0  0  0
 12 19  1  6  0  0  0
 13 29  1  6  0  0  0
 14 17  1  0  0  0  0
 14 30  1  1  0  0  0
 15 31  1  0  0  0  0
 16 17  1  0  0  0  0
 16 21  1  0  0  0  0
 16 32  1  1  0  0  0
 17 33  1  0  0  0  0
 17 34  1  0  0  0  0
 18 22  1  0  0  0  0
 18 35  1  0  0  0  0
 18 36  1  0  0  0  0
 19 24  1  0  0  0  0
 19 25  1  0  0  0  0
 19 37  1  0  0  0  0
 20 38  1  0  0  0  0
 20 39  1  0  0  0  0
 20 40  1  0  0  0  0
 21 23  2  0  0  0  0
 21 26  1  0  0  0  0
 22 23  1  0  0  0  0
 22 41  1  0  0  0  0
 23 27  1  0  0  0  0
 24 43  1  0  0  0  0
 24 44  1  0  0  0  0
 24 45  1  0  0  0  0
 25 46  1  0  0  0  0
 25 47  1  0  0  0  0
 25 48  1  0  0  0  0
 26 49  1  0  0  0  0
 26 50  1  0  0  0  0
M  END
> <PUBCHEM_COMPOUND_CID>
294491

> <PUBCHEM_COMPOUND_CANONICALIZED>
1

> <PUBCHEM_CACTVS_COMPLEXITY>
851

> <PUBCHEM_CACTVS_HBOND_ACCEPTOR>
7

> <PUBCHEM_CACTVS_HBOND_DONOR>
2

> <PUBCHEM_CACTVS_ROTATABLE_BOND>
1

> <PUBCHEM_CACTVS_SUBSKEYS>
AAADceB4OAAAAAAAAAAAAAAAEiQAAQAAAAAwYIAABIkAAEjAAAAAGgAACAAAD1SggAICCAAABgCIAgDQCAAAAAAgAAAACAEAAEgBFBYAIAACUAAFoAALMQPI6PyPgAAAAAAAAADCAAYQADCAAAAAAAAAAA==

> <PUBCHEM_IUPAC_INCHI>
InChI=1S/C20H24O7/c1-7(2)18-13(26-18)14-20(27-14)17(3)5-10(21)12-8(6-24-15(12)22)9(17)4-11-19(20,25-11)16(18)23/h7,9-11,13-14,16,21,23H,4-6H2,1-3H3/t9-,10-,11-,13-,14-,16+,17-,18-,19+,20+/m0/s1

> <PUBCHEM_IUPAC_INCHIKEY>
PUJWFVBVNFXCHZ-SQEQANQOSA-N

> <PUBCHEM_XLOGP3_AA>
-0.9

> <PUBCHEM_EXACT_MASS>
376.152203

> <PUBCHEM_MOLECULAR_FORMULA>
C20H24O7

> <PUBCHEM_MOLECULAR_WEIGHT>
376.40036

> <PUBCHEM_OPENEYE_CAN_SMILES>
CC(C)C12C(O1)C3C4(O3)C5(CC(C6=C(C5CC7C4(C2O)O7)COC6=O)O)C

> <PUBCHEM_OPENEYE_ISO_SMILES>
CC(C)[C@@]12[C@@H](O1)[C@H]3[C@@]4(O3)[C@]5(C[C@@H](C6=C([C@@H]5C[C@H]7[C@]4([C@@H]2O)O7)COC6=O)O)C

> <PUBCHEM_CACTVS_TPSA>
104

> <PUBCHEM_MONOISOTOPIC_WEIGHT>
376.152203

> <PUBCHEM_TOTAL_CHARGE>
0

> <PUBCHEM_HEAVY_ATOM_COUNT>
27

> <PUBCHEM_ATOM_DEF_STEREO_COUNT>
10

> <PUBCHEM_ATOM_UDEF_STEREO_COUNT>
0

> <PUBCHEM_BOND_DEF_STEREO_COUNT>
0

> <PUBCHEM_BOND_UDEF_STEREO_COUNT>
0

> <PUBCHEM_ISOTOPIC_ATOM_COUNT>
0

> <PUBCHEM_COMPONENT_COUNT>
1

> <PUBCHEM_CACTVS_TAUTO_COUNT>
1

> <PUBCHEM_COORDINATE_TYPE>
1
5
255

> <PUBCHEM_BONDANNOTATIONS>
8  1  6
10  28  5
11  20  6
12  19  6
13  29  6
14  30  5
16  32  5
9  2  6
15  4  6
22  5  6

$$$$

