   Color/Form

     * Needles
     * White crystals

   from [1]HSDB

   Odor

     * Odor similar to phenol
     * Strong medicinal odor

   from [2]HSDB

   Taste
        Strong medicinal taste
   from [3]HSDB

   Boiling Point
        214 deg C
   from [4]HSDB

   Melting Point
        33.5 deg C
   from [5]HSDB

   Critical Temperature and Pressure
        Critical temperature = 53.20 bar; Critical pressure = 729.00 K
   from [6]HSDB

   Density/Specific Gravity
        1.245 at 45 deg C
   from [7]HSDB

   Dissociation Constants
        pKa = 9.12 at 25 deg C
   from [8]HSDB

   Heat of Combustion
        2760.0 kJ/mole at 77 deg F solid /25 deg C/
   from [9]HSDB

   Heat of Vaporization
        45.86 kJ/mole at 214 deg C
   from [10]HSDB

   Octanol/Water Partition Coefficient
        log Kow = 2.5
   from [11]HSDB

   Solubilities

     * Slightly sol in chloroform; soluble in ethanol and ether; very sol
       in benzene
     * Soluble in caustic alkali
     * In water, 2.60X10+4 mg/L at 20 deg C

   from [12]HSDB

   Spectral Properties

     * MAX ABSORPTION (CYCLOHEXANE): 216 NM (LOG E= 3.81), 272 NM (LOG E=
       3.31), 279 NM (LOG E= 3.30); SADTLER REFERENCE NUMBER: 4666 (IR,
       PRISM), 10852 (IR, GRATING)
     * Index of refraction: 1.5565 at 40 deg C
     * MASS: 20702 (NIST/EPA/MSDC Mass Spectral database, 1990 version);
       551 (Atlas of Mass Spectral Data, John Wiley & Sons, New York)
     * IR: 1319 (Coblentz Society Spectral Collection)
     * UV: 1282 (Sadtler Research Laboratories Spectral Collection)
     * NMR: 232 (Sadtler Research Laboratories Spectral Collection)
     * Intense mass spectral peaks: 128 m/z (100%), 65 m/z (35%), 130 m/z
       (33%), 64 m/z (20%)

   from [13]HSDB

   Vapor Pressure
        0.125 mm Hg at 25 deg C
   from [14]HSDB

   Viscosity
        11.55 cP at 25 deg C
   from [15]HSDB

   Other Chemical/Physical Properties

     * Dipole moment in benzene: 2.10 D
     * Medicinal, empyrumatic odor /Chlorophenols/
     * Taste threshold: Detection in water 1.00 ppm /Chlorophenol/
     * Heat of fusion = 105.789 kJ/kg at 33 deg C
     * VP: 1 mm Hg at 44.2 deg C
     * Henry's Law constant = 3.45X10-7 atm cu-m/mole at 25 deg C
       [Abraham, MH et al; J Pharm Sci 83: 1085-100 (1994)] [16]PubMed
       Abstract
     * Hydroxyl radical reaction rate constant = 2.36X10-11
       cu-cm/molec-sec at 25 deg C (est)

   from [17]HSDB

   Computed Properties
   Molecular Weight                  128.5563 [g/mol]
   Molecular Formula                 C[6]H[5]ClO
   XLogP3                            2.5
   H-Bond Donor                      1
   H-Bond Acceptor                   1
   Rotatable Bond Count              0
   Tautomer Count                    3
   Exact Mass                        128.002892
   MonoIsotopic Mass                 128.002892
   Topological Polar Surface Area    20.2
   Heavy Atom Count                  8
   Formal Charge                     0
   Complexity                        74.9
   Isotope Atom Count                0
   Defined Atom Stereocenter Count   0
   Undefined Atom Stereocenter Count 0
   Defined Bond Stereocenter Count   0
   Undefined Bond Stereocenter Count 0
   Covalently-Bonded Unit Count      1
   Feature 3D Donor Count            1
   Feature 3D Ring Count             1
   Effective Rotor Count             0
   Conformer Sampling RMSD           0.4
   CID Conformer Count               [18]1

References

   1. http://toxnet.nlm.nih.gov/cgi-bin/sis/search/r?dbs+hsdb:@term+@rn+@rel+108-43-0
   2. http://toxnet.nlm.nih.gov/cgi-bin/sis/search/r?dbs+hsdb:@term+@rn+@rel+108-43-0
   3. http://toxnet.nlm.nih.gov/cgi-bin/sis/search/r?dbs+hsdb:@term+@rn+@rel+108-43-0
   4. http://toxnet.nlm.nih.gov/cgi-bin/sis/search/r?dbs+hsdb:@term+@rn+@rel+108-43-0
   5. http://toxnet.nlm.nih.gov/cgi-bin/sis/search/r?dbs+hsdb:@term+@rn+@rel+108-43-0
   6. http://toxnet.nlm.nih.gov/cgi-bin/sis/search/r?dbs+hsdb:@term+@rn+@rel+108-43-0
   7. http://toxnet.nlm.nih.gov/cgi-bin/sis/search/r?dbs+hsdb:@term+@rn+@rel+108-43-0
   8. http://toxnet.nlm.nih.gov/cgi-bin/sis/search/r?dbs+hsdb:@term+@rn+@rel+108-43-0
   9. http://toxnet.nlm.nih.gov/cgi-bin/sis/search/r?dbs+hsdb:@term+@rn+@rel+108-43-0
  10. http://toxnet.nlm.nih.gov/cgi-bin/sis/search/r?dbs+hsdb:@term+@rn+@rel+108-43-0
  11. http://toxnet.nlm.nih.gov/cgi-bin/sis/search/r?dbs+hsdb:@term+@rn+@rel+108-43-0
  12. http://toxnet.nlm.nih.gov/cgi-bin/sis/search/r?dbs+hsdb:@term+@rn+@rel+108-43-0
  13. http://toxnet.nlm.nih.gov/cgi-bin/sis/search/r?dbs+hsdb:@term+@rn+@rel+108-43-0
  14. http://toxnet.nlm.nih.gov/cgi-bin/sis/search/r?dbs+hsdb:@term+@rn+@rel+108-43-0
  15. http://toxnet.nlm.nih.gov/cgi-bin/sis/search/r?dbs+hsdb:@term+@rn+@rel+108-43-0
  16. http://www.ncbi.nlm.nih.gov/entrez/query.fcgi?cmd=Retrieve&db=pubmed&dopt=Abstract&list_uids=7983591
  17. http://toxnet.nlm.nih.gov/cgi-bin/sis/search/r?dbs+hsdb:@term+@rn+@rel+108-43-0
  18. http://pubchem.ncbi.nlm.nih.gov/vw3d/vw3d.cgi?cid=7933
