   Color/Form
        Colorless, oily liquid
   from [1]HSDB

   Odor
        Nearly odorless
   from [2]HSDB

   Boiling Point
        342 deg C
   from [3]HSDB

   Melting Point
        FP: less than -55 deg C
   from [4]HSDB

   Density/Specific Gravity
        1.022 at 20 deg C
   from [5]HSDB

   Heat of Combustion
        -13,900 Btu/lb= -7,720 cal/g= -323X10+5 J/kg
   from [6]HSDB

   Heat of Vaporization
        140 Btu/lb= 78 cal/g= 3.2X10+5 J/kg
   from [7]HSDB

   Octanol/Water Partition Coefficient
        log Kow = 5.62
   from [8]HSDB

   Solubilities

     * Soluble in carbon tetrachloride, carbon disulfide
     * In water, 0.8 mg/L at 25 deg C

   from [9]HSDB

   Spectral Properties

     * Index of refraction: 1.488 at 25 deg C
     * IR: 6752 (Coblentz Society Spectral Collection)
     * 1H NMR: 18884 (Sadtler Research Laboratories Spectral Collection)
     * MASS: 14572 (NIST/EPA/MSDC Mass Spectral database, 1990 version);
       1934 (Atlas of Mass Spectral Data, John Wiley & Sons, New York)

   from [10]HSDB

   Vapor Density
        10.5 (AIR= 1)
   from [11]HSDB

   Relative Evaporation Rate
        1.96X10-4 mm Hg at 25 deg C (est)
   from [12]HSDB

   Other Chemical/Physical Properties

     * Vapor pressures for phthalate esters are extremely low,
       contributing much to their thermal stability in plastics.
       /Phthalate esters/
     * Wt/gal = 8.52 lb
     * ... Resistance to migration from polymers, low temperature
       flexibility ... compatibility with polar polymers and additives
       over a wide range of compositions. /Phthalate esters/
     * Phthalate esters are soluble to various extents in many common
       organic solvents and oils, but have a relatively low solubility in
       water. /Phthalate esters/
     * Phthalate esters would be expected to have UV maxima in the 230 nm
       and 270 nm regions. /Phthalate esters/
     * Henry's Law constant = 8.88X10-7 atm-cu m/mol at 25 deg C (est)
     * Hydroxyl radical reaction rate constant = 1.21X10-11 cu
       cm/molec-sec at 25 deg C (est)

   from [13]HSDB

   Computed Properties
   Molecular Weight                  306.39664 [g/mol]
   Molecular Formula                 C[18]H[26]O[4]
   XLogP3                            5.8
   H-Bond Donor                      0
   H-Bond Acceptor                   4
   Rotatable Bond Count              12
   Exact Mass                        306.183109
   MonoIsotopic Mass                 306.183109
   Topological Polar Surface Area    52.6
   Heavy Atom Count                  22
   Formal Charge                     0
   Complexity                        295
   Isotope Atom Count                0
   Defined Atom Stereocenter Count   0
   Undefined Atom Stereocenter Count 0
   Defined Bond Stereocenter Count   0
   Undefined Bond Stereocenter Count 0
   Covalently-Bonded Unit Count      1
   Feature 3D Acceptor Count         2
   Feature 3D Hydrophobe Count       2
   Feature 3D Ring Count             1
   Effective Rotor Count             12
   Conformer Sampling RMSD           1.2
   CID Conformer Count               [14]59

References

   1. http://toxnet.nlm.nih.gov/cgi-bin/sis/search/r?dbs+hsdb:@term+@rn+@rel+131-18-0
   2. http://toxnet.nlm.nih.gov/cgi-bin/sis/search/r?dbs+hsdb:@term+@rn+@rel+131-18-0
   3. http://toxnet.nlm.nih.gov/cgi-bin/sis/search/r?dbs+hsdb:@term+@rn+@rel+131-18-0
   4. http://toxnet.nlm.nih.gov/cgi-bin/sis/search/r?dbs+hsdb:@term+@rn+@rel+131-18-0
   5. http://toxnet.nlm.nih.gov/cgi-bin/sis/search/r?dbs+hsdb:@term+@rn+@rel+131-18-0
   6. http://toxnet.nlm.nih.gov/cgi-bin/sis/search/r?dbs+hsdb:@term+@rn+@rel+131-18-0
   7. http://toxnet.nlm.nih.gov/cgi-bin/sis/search/r?dbs+hsdb:@term+@rn+@rel+131-18-0
   8. http://toxnet.nlm.nih.gov/cgi-bin/sis/search/r?dbs+hsdb:@term+@rn+@rel+131-18-0
   9. http://toxnet.nlm.nih.gov/cgi-bin/sis/search/r?dbs+hsdb:@term+@rn+@rel+131-18-0
  10. http://toxnet.nlm.nih.gov/cgi-bin/sis/search/r?dbs+hsdb:@term+@rn+@rel+131-18-0
  11. http://toxnet.nlm.nih.gov/cgi-bin/sis/search/r?dbs+hsdb:@term+@rn+@rel+131-18-0
  12. http://toxnet.nlm.nih.gov/cgi-bin/sis/search/r?dbs+hsdb:@term+@rn+@rel+131-18-0
  13. http://toxnet.nlm.nih.gov/cgi-bin/sis/search/r?dbs+hsdb:@term+@rn+@rel+131-18-0
  14. http://pubchem.ncbi.nlm.nih.gov/vw3d/vw3d.cgi?cid=8561
