12568515
  -OEChem-07051212502D

 74 78  0     1  0  0  0  0  0999 V2000
    3.7998   -3.9249    0.0000 O   0  0  0  0  0  0  0  0  0  0  0  0
    3.8000   -2.9244    0.0000 C   0  0  2  0  0  0  0  0  0  0  0  0
    3.8000   -1.9244    0.0000 C   0  0  1  0  0  0  0  0  0  0  0  0
    4.6660   -1.4244    0.0000 C   0  0  2  0  0  0  0  0  0  0  0  0
    5.5321   -1.9244    0.0000 C   0  0  2  0  0  0  0  0  0  0  0  0
    4.6660   -3.4244    0.0000 C   0  0  2  0  0  0  0  0  0  0  0  0
    6.4421   -1.4176    0.0000 C   0  0  1  0  0  0  0  0  0  0  0  0
    6.4501   -0.3760    0.0000 C   0  0  2  0  0  0  0  0  0  0  0  0
    5.5321   -2.9244    0.0000 C   0  0  0  0  0  0  0  0  0  0  0  0
    4.6500   -0.3829    0.0000 C   0  0  0  0  0  0  0  0  0  0  0  0
    5.5480    0.1448    0.0000 C   0  0  0  0  0  0  0  0  0  0  0  0
    2.9061   -3.4591    0.0000 C   0  0  0  0  0  0  0  0  0  0  0  0
    7.4381   -0.0662    0.0000 C   0  0  2  0  0  0  0  0  0  0  0  0
    2.9061   -1.3898    0.0000 C   0  0  0  0  0  0  0  0  0  0  0  0
    7.4252   -1.7426    0.0000 C   0  0  0  0  0  0  0  0  0  0  0  0
    8.0396   -0.9091    0.0000 C   0  0  0  0  0  0  0  0  0  0  0  0
    3.8000   -0.9244    0.0000 C   0  0  0  0  0  0  0  0  0  0  0  0
    2.0000   -2.9452    0.0000 C   0  0  0  0  0  0  0  0  0  0  0  0
    2.0000   -1.9036    0.0000 C   0  0  0  0  0  0  0  0  0  0  0  0
    6.4578    0.6240    0.0000 C   0  0  0  0  0  0  0  0  0  0  0  0
    7.7561    0.8819    0.0000 C   0  0  1  0  0  0  0  0  0  0  0  0
    8.7362    1.0806    0.0000 C   0  0  0  0  0  0  0  0  0  0  0  0
    7.0940    1.6314    0.0000 C   0  0  0  0  0  0  0  0  0  0  0  0
    9.0542    2.0287    0.0000 C   0  0  0  0  0  0  0  0  0  0  0  0
   10.0342    2.2274    0.0000 C   0  0  0  0  0  0  0  0  0  0  0  0
   10.3522    3.1754    0.0000 C   0  0  0  0  0  0  0  0  0  0  0  0
   11.3323    3.3741    0.0000 C   0  0  0  0  0  0  0  0  0  0  0  0
    9.6901    3.9249    0.0000 C   0  0  0  0  0  0  0  0  0  0  0  0
    5.3989   -0.9938    0.0000 H   0  0  0  0  0  0  0  0  0  0  0  0
    6.2649   -2.3551    0.0000 H   0  0  0  0  0  0  0  0  0  0  0  0
    5.0911   -4.1605    0.0000 H   0  0  0  0  0  0  0  0  0  0  0  0
    6.5222   -2.2638    0.0000 H   0  0  0  0  0  0  0  0  0  0  0  0
    5.7441   -3.5070    0.0000 H   0  0  0  0  0  0  0  0  0  0  0  0
    6.1426   -2.8168    0.0000 H   0  0  0  0  0  0  0  0  0  0  0  0
    4.4319    0.1975    0.0000 H   0  0  0  0  0  0  0  0  0  0  0  0
    4.0408   -0.4984    0.0000 H   0  0  0  0  0  0  0  0  0  0  0  0
    5.9453    0.6208    0.0000 H   0  0  0  0  0  0  0  0  0  0  0  0
    5.1470    0.6177    0.0000 H   0  0  0  0  0  0  0  0  0  0  0  0
    2.5124   -3.9381    0.0000 H   0  0  0  0  0  0  0  0  0  0  0  0
    3.3107   -3.9289    0.0000 H   0  0  0  0  0  0  0  0  0  0  0  0
    8.2788    0.0592    0.0000 H   0  0  0  0  0  0  0  0  0  0  0  0
    3.3107   -0.9200    0.0000 H   0  0  0  0  0  0  0  0  0  0  0  0
    2.5124   -0.9108    0.0000 H   0  0  0  0  0  0  0  0  0  0  0  0
    7.1698   -2.3076    0.0000 H   0  0  0  0  0  0  0  0  0  0  0  0
    7.9602   -2.0560    0.0000 H   0  0  0  0  0  0  0  0  0  0  0  0
    8.4972   -1.3273    0.0000 H   0  0  0  0  0  0  0  0  0  0  0  0
    8.5036   -0.4979    0.0000 H   0  0  0  0  0  0  0  0  0  0  0  0
    4.4200   -0.9244    0.0000 H   0  0  0  0  0  0  0  0  0  0  0  0
    3.8000   -0.3044    0.0000 H   0  0  0  0  0  0  0  0  0  0  0  0
    3.1800   -0.9244    0.0000 H   0  0  0  0  0  0  0  0  0  0  0  0
    1.3891   -2.8392    0.0000 H   0  0  0  0  0  0  0  0  0  0  0  0
    1.7909   -3.5289    0.0000 H   0  0  0  0  0  0  0  0  0  0  0  0
    1.7909   -1.3199    0.0000 H   0  0  0  0  0  0  0  0  0  0  0  0
    1.3891   -2.0097    0.0000 H   0  0  0  0  0  0  0  0  0  0  0  0
    7.0778    0.6192    0.0000 H   0  0  0  0  0  0  0  0  0  0  0  0
    6.4626    1.2440    0.0000 H   0  0  0  0  0  0  0  0  0  0  0  0
    5.8378    0.6288    0.0000 H   0  0  0  0  0  0  0  0  0  0  0  0
    7.9532    1.4697    0.0000 H   0  0  0  0  0  0  0  0  0  0  0  0
    8.7520    0.4608    0.0000 H   0  0  0  0  0  0  0  0  0  0  0  0
    9.3493    0.9885    0.0000 H   0  0  0  0  0  0  0  0  0  0  0  0
    7.5587    2.0418    0.0000 H   0  0  0  0  0  0  0  0  0  0  0  0
    6.6835    2.0960    0.0000 H   0  0  0  0  0  0  0  0  0  0  0  0
    6.6294    1.2208    0.0000 H   0  0  0  0  0  0  0  0  0  0  0  0
    9.0384    2.6485    0.0000 H   0  0  0  0  0  0  0  0  0  0  0  0
    8.4410    2.1208    0.0000 H   0  0  0  0  0  0  0  0  0  0  0  0
   10.0500    1.6076    0.0000 H   0  0  0  0  0  0  0  0  0  0  0  0
   10.6473    2.1353    0.0000 H   0  0  0  0  0  0  0  0  0  0  0  0
    9.7446    3.0523    0.0000 H   0  0  0  0  0  0  0  0  0  0  0  0
   11.4554    2.7665    0.0000 H   0  0  0  0  0  0  0  0  0  0  0  0
   10.1548    4.3354    0.0000 H   0  0  0  0  0  0  0  0  0  0  0  0
    9.2796    4.3895    0.0000 H   0  0  0  0  0  0  0  0  0  0  0  0
    9.2255    3.5144    0.0000 H   0  0  0  0  0  0  0  0  0  0  0  0
   11.9399    3.4973    0.0000 H   0  0  0  0  0  0  0  0  0  0  0  0
   11.2091    3.9818    0.0000 H   0  0  0  0  0  0  0  0  0  0  0  0
  2  1  1  6  0  0  0
  1  6  1  0  0  0  0
  2  3  1  0  0  0  0
  2  6  1  0  0  0  0
  2 12  1  0  0  0  0
  3  4  1  0  0  0  0
  3 14  1  0  0  0  0
  3 17  1  1  0  0  0
  4  5  1  0  0  0  0
  4 10  1  0  0  0  0
  4 29  1  6  0  0  0
  5  7  1  0  0  0  0
  5  9  1  0  0  0  0
  5 30  1  1  0  0  0
  6  9  1  0  0  0  0
  6 31  1  1  0  0  0
  7  8  1  0  0  0  0
  7 15  1  0  0  0  0
  7 32  1  6  0  0  0
  8 11  1  0  0  0  0
  8 13  1  0  0  0  0
  8 20  1  1  0  0  0
  9 33  1  0  0  0  0
  9 34  1  0  0  0  0
 10 11  1  0  0  0  0
 10 35  1  0  0  0  0
 10 36  1  0  0  0  0
 11 37  1  0  0  0  0
 11 38  1  0  0  0  0
 12 18  1  0  0  0  0
 12 39  1  0  0  0  0
 12 40  1  0  0  0  0
 13 16  1  0  0  0  0
 13 21  1  0  0  0  0
 13 41  1  6  0  0  0
 14 19  1  0  0  0  0
 14 42  1  0  0  0  0
 14 43  1  0  0  0  0
 15 16  1  0  0  0  0
 15 44  1  0  0  0  0
 15 45  1  0  0  0  0
 16 46  1  0  0  0  0
 16 47  1  0  0  0  0
 17 48  1  0  0  0  0
 17 49  1  0  0  0  0
 17 50  1  0  0  0  0
 18 19  1  0  0  0  0
 18 51  1  0  0  0  0
 18 52  1  0  0  0  0
 19 53  1  0  0  0  0
 19 54  1  0  0  0  0
 20 55  1  0  0  0  0
 20 56  1  0  0  0  0
 20 57  1  0  0  0  0
 21 22  1  0  0  0  0
 21 23  1  6  0  0  0
 21 58  1  0  0  0  0
 22 24  1  0  0  0  0
 22 59  1  0  0  0  0
 22 60  1  0  0  0  0
 23 61  1  0  0  0  0
 23 62  1  0  0  0  0
 23 63  1  0  0  0  0
 24 25  1  0  0  0  0
 24 64  1  0  0  0  0
 24 65  1  0  0  0  0
 25 26  1  0  0  0  0
 25 66  1  0  0  0  0
 25 67  1  0  0  0  0
 26 27  1  0  0  0  0
 26 28  1  0  0  0  0
 26 68  1  0  0  0  0
 27 69  1  0  0  0  0
 27 73  1  0  0  0  0
 27 74  1  0  0  0  0
 28 70  1  0  0  0  0
 28 71  1  0  0  0  0
 28 72  1  0  0  0  0
M  END
> <PUBCHEM_COMPOUND_CID>
12568515

> <PUBCHEM_COMPOUND_CANONICALIZED>
1

> <PUBCHEM_CACTVS_COMPLEXITY>
597

> <PUBCHEM_CACTVS_HBOND_ACCEPTOR>
1

> <PUBCHEM_CACTVS_HBOND_DONOR>
0

> <PUBCHEM_CACTVS_ROTATABLE_BOND>
5

> <PUBCHEM_CACTVS_SUBSKEYS>
AAADcfB4IAAAAAAAAAAAAAAAEgAAAYAAAAAwYMAABIAAAGDAAAAAGgAAAAAAD1SggAICAAAABAAAAAAAAAAAAAAAAAAAAAAAAAAAAAIAAAACAAAEAAAAAAGAwPAPgAAAAAAAAADAAAYAADAAAQAACAAAAA==

> <PUBCHEM_IUPAC_INCHI>
InChI=1S/C27H46O/c1-18(2)9-8-10-19(3)21-11-12-22-20-17-24-27(28-24)15-7-6-14-26(27,5)23(20)13-16-25(21,22)4/h18-24H,6-17H2,1-5H3/t19-,20+,21-,22+,23+,24+,25-,26-,27+/m1/s1

> <PUBCHEM_IUPAC_INCHIKEY>
OJFSRAVBTAGBIM-UXWTYBCRSA-N

> <PUBCHEM_XLOGP3_AA>
9.1

> <PUBCHEM_EXACT_MASS>
386.354866

> <PUBCHEM_MOLECULAR_FORMULA>
C27H46O

> <PUBCHEM_MOLECULAR_WEIGHT>
386.65354

> <PUBCHEM_OPENEYE_CAN_SMILES>
CC(C)CCCC(C)C1CCC2C1(CCC3C2CC4C5(C3(CCCC5)C)O4)C

> <PUBCHEM_OPENEYE_ISO_SMILES>
C[C@H](CCCC(C)C)[C@H]1CC[C@@H]2[C@@]1(CC[C@H]3[C@H]2C[C@H]4[C@@]5([C@@]3(CCCC5)C)O4)C

> <PUBCHEM_CACTVS_TPSA>
12.5

> <PUBCHEM_MONOISOTOPIC_WEIGHT>
386.354866

> <PUBCHEM_TOTAL_CHARGE>
0

> <PUBCHEM_HEAVY_ATOM_COUNT>
28

> <PUBCHEM_ATOM_DEF_STEREO_COUNT>
9

> <PUBCHEM_ATOM_UDEF_STEREO_COUNT>
0

> <PUBCHEM_BOND_DEF_STEREO_COUNT>
0

> <PUBCHEM_BOND_UDEF_STEREO_COUNT>
0

> <PUBCHEM_ISOTOPIC_ATOM_COUNT>
0

> <PUBCHEM_COMPONENT_COUNT>
1

> <PUBCHEM_CACTVS_TAUTO_COUNT>
1

> <PUBCHEM_COORDINATE_TYPE>
1
5
255

> <PUBCHEM_BONDANNOTATIONS>
2  1  6
13  41  6
21  23  6
3  17  5
4  29  6
5  30  5
6  31  5
7  32  6
8  20  5

$$$$

