   Color/Form
        COLORLESS LIQUID
   from [1]HSDB

   Odor
        MOUSY ODOR
   from [2]HSDB

   Boiling Point
        133 DEG C
   from [3]HSDB

   Melting Point
        SOLIDIFIES AROUND -2 DEG C
   from [4]HSDB

   Density/Specific Gravity
        0.844-0.848 @ 20 DEG C/4 DEG C
   from [5]HSDB

   Dissociation Constants
        PK 3.1; K 7.5X10-4
   from [6]HSDB

   pH
        ALKALINE
   from [7]HSDB

   Solubilities
        SOLUBLE IN ALCOHOL, ETHER, ACETONE, BENZENE, AMYL ALCOHOL;
   SLIGHTLY SOL IN CHLOROFORM; ONE ML DISSOLVES IN 90 ML WATER, LESS SOL
   IN HOT WATER; THE BASE DISSOLVES ABOUT 25% WATER AT ROOM TEMPERATURE
   from [8]HSDB

   Spectral Properties

     * INDEX OF REFRACTION: 1.4505 @ 23 DEG C/D; SPECIFIC OPTICAL
       ROTATION: +16 DEG @ 19 DEG C/D
     * IR: 17131 (Sadtler Research Laboratories Prism Collection)
     * NMR: 319 (Johnson and Jankowski, Carbon-13 NMR Spectra, John Wiley
       & Sons, New York)

   from [9]HSDB

   Other Chemical/Physical Properties
        VOLATILE WITH STEAM
   from [10]HSDB

   Computed Properties
   Molecular Weight                  127.22728 [g/mol]
   Molecular Formula                 C[8]H[17]N
   XLogP3-AA                         2
   H-Bond Donor                      1
   H-Bond Acceptor                   1
   Rotatable Bond Count              2
   Exact Mass                        127.1361
   MonoIsotopic Mass                 127.1361
   Topological Polar Surface Area    12
   Heavy Atom Count                  9
   Formal Charge                     0
   Complexity                        71
   Isotope Atom Count                0
   Defined Atom Stereocenter Count   1
   Undefined Atom Stereocenter Count 0
   Defined Bond Stereocenter Count   0
   Undefined Bond Stereocenter Count 0
   Covalently-Bonded Unit Count      1
   Feature 3D Donor Count            1
   Feature 3D Cation Count           1
   Feature 3D Hydrophobe Count       1
   Feature 3D Ring Count             1
   Effective Rotor Count             3.2
   Conformer Sampling RMSD           0.6
   CID Conformer Count               [11]10

References

   1. http://toxnet.nlm.nih.gov/cgi-bin/sis/search/r?dbs+hsdb:@term+@rn+@rel+458-88-8
   2. http://toxnet.nlm.nih.gov/cgi-bin/sis/search/r?dbs+hsdb:@term+@rn+@rel+458-88-8
   3. http://toxnet.nlm.nih.gov/cgi-bin/sis/search/r?dbs+hsdb:@term+@rn+@rel+458-88-8
   4. http://toxnet.nlm.nih.gov/cgi-bin/sis/search/r?dbs+hsdb:@term+@rn+@rel+458-88-8
   5. http://toxnet.nlm.nih.gov/cgi-bin/sis/search/r?dbs+hsdb:@term+@rn+@rel+458-88-8
   6. http://toxnet.nlm.nih.gov/cgi-bin/sis/search/r?dbs+hsdb:@term+@rn+@rel+458-88-8
   7. http://toxnet.nlm.nih.gov/cgi-bin/sis/search/r?dbs+hsdb:@term+@rn+@rel+458-88-8
   8. http://toxnet.nlm.nih.gov/cgi-bin/sis/search/r?dbs+hsdb:@term+@rn+@rel+458-88-8
   9. http://toxnet.nlm.nih.gov/cgi-bin/sis/search/r?dbs+hsdb:@term+@rn+@rel+458-88-8
  10. http://toxnet.nlm.nih.gov/cgi-bin/sis/search/r?dbs+hsdb:@term+@rn+@rel+458-88-8
  11. http://pubchem.ncbi.nlm.nih.gov/vw3d/vw3d.cgi?cid=441072
