   Color/Form
        Fluffy, colorless solid
   from [1]HSDB

   Melting Point
        150.5 deg C
   from [2]HSDB

   Density/Specific Gravity
        1.85
   from [3]HSDB

   Dissociation Constants
        pKa = 2.68
   from [4]HSDB

   Solubilities

     * In acetone 581, acetonitrile 92.1, hexane 0.09, toluene 19.2,
       dichloromethane 24.9, methanol 665, ethyl acetate 271 (all in g/l)
     * In water, 440 mg/l @ 25 deg C [Shiu WY et al; Rev Environ Contam
       Toxicol 116: 15-187 (1990)] [5]PubMed Abstract

   from [6]HSDB

   Vapor Pressure
        1.26X10-6 mm Hg @ 25 deg C
   from [7]HSDB

   Other Chemical/Physical Properties
        Decomposes at 208 deg C; log Kow = -0.42 (pH 5); -0.45 (pH 7);
   -0.96 (pH 9)
   from [8]HSDB

   Computed Properties
   Molecular Weight                  256.47056 [g/mol]
   Molecular Formula                 C[7]H[4]Cl[3]NO[3]
   XLogP3-AA                         3
   H-Bond Donor                      1
   H-Bond Acceptor                   4
   Rotatable Bond Count              3
   Exact Mass                        254.925676
   MonoIsotopic Mass                 254.925676
   Topological Polar Surface Area    59.4
   Heavy Atom Count                  14
   Formal Charge                     0
   Complexity                        216
   Isotope Atom Count                0
   Defined Atom Stereocenter Count   0
   Undefined Atom Stereocenter Count 0
   Defined Bond Stereocenter Count   0
   Undefined Bond Stereocenter Count 0
   Covalently-Bonded Unit Count      1
   Feature 3D Acceptor Count         2
   Feature 3D Anion Count            1
   Feature 3D Ring Count             1
   Effective Rotor Count             3
   Conformer Sampling RMSD           0.6
   CID Conformer Count               [9]20

References

   1. http://toxnet.nlm.nih.gov/cgi-bin/sis/search/r?dbs+hsdb:@term+@rn+@rel+55335-06-3
   2. http://toxnet.nlm.nih.gov/cgi-bin/sis/search/r?dbs+hsdb:@term+@rn+@rel+55335-06-3
   3. http://toxnet.nlm.nih.gov/cgi-bin/sis/search/r?dbs+hsdb:@term+@rn+@rel+55335-06-3
   4. http://toxnet.nlm.nih.gov/cgi-bin/sis/search/r?dbs+hsdb:@term+@rn+@rel+55335-06-3
   5. http://www.ncbi.nlm.nih.gov/entrez/query.fcgi?cmd=Retrieve&db=pubmed&dopt=Abstract&list_uids=2205893
   6. http://toxnet.nlm.nih.gov/cgi-bin/sis/search/r?dbs+hsdb:@term+@rn+@rel+55335-06-3
   7. http://toxnet.nlm.nih.gov/cgi-bin/sis/search/r?dbs+hsdb:@term+@rn+@rel+55335-06-3
   8. http://toxnet.nlm.nih.gov/cgi-bin/sis/search/r?dbs+hsdb:@term+@rn+@rel+55335-06-3
   9. http://pubchem.ncbi.nlm.nih.gov/vw3d/vw3d.cgi?cid=41428
