656725
  -OEChem-07051213042D

 71 76  0     0  0  0  0  0  0999 V2000
   13.3191   -2.5299    0.0000 Cl  0  0  0  0  0  0  0  0  0  0  0  0
    8.1962    2.6088    0.0000 S   0  0  0  0  0  0  0  0  0  0  0  0
    8.1117   -3.4697    0.0000 S   0  0  0  0  0  0  0  0  0  0  0  0
   13.3884    3.4697    0.0000 S   0  0  0  0  0  0  0  0  0  0  0  0
    4.6660   -0.4153    0.0000 O   0  0  0  0  0  0  0  0  0  0  0  0
    4.6660    3.5847    0.0000 O   0  0  0  0  0  0  0  0  0  0  0  0
    9.0602    3.1122    0.0000 O   0  0  0  0  0  0  0  0  0  0  0  0
    8.6995    1.7448    0.0000 O   0  0  0  0  0  0  0  0  0  0  0  0
    7.6928    3.4729    0.0000 O   0  0  0  0  0  0  0  0  0  0  0  0
    8.1001   -4.4697    0.0000 O   0  0  0  0  0  0  0  0  0  0  0  0
    7.1118   -3.4582    0.0000 O   0  0  0  0  0  0  0  0  0  0  0  0
    9.1116   -3.4813    0.0000 O   0  0  0  0  0  0  0  0  0  0  0  0
   13.4000    4.4697    0.0000 O   0  0  0  0  0  0  0  0  0  0  0  0
   14.3884    3.4582    0.0000 O   0  0  0  0  0  0  0  0  0  0  0  0
   12.3885    3.4813    0.0000 O   0  0  0  0  0  0  0  0  0  0  0  0
    6.4144   -0.4499    0.0000 N   0  0  0  0  0  0  0  0  0  0  0  0
    6.4144    3.6193    0.0000 N   0  0  0  0  0  0  0  0  0  0  0  0
    9.8552   -2.4898    0.0000 N   0  0  0  0  0  0  0  0  0  0  0  0
   10.7385   -0.9999    0.0000 N   0  0  0  0  0  0  0  0  0  0  0  0
   11.6218    0.4900    0.0000 N   0  0  0  0  0  0  0  0  0  0  0  0
   11.5871   -2.5098    0.0000 N   0  0  0  0  0  0  0  0  0  0  0  0
   12.4704   -1.0200    0.0000 N   0  0  0  0  0  0  0  0  0  0  0  0
    5.5321    1.0847    0.0000 C   0  0  0  0  0  0  0  0  0  0  0  0
    5.5321    2.0847    0.0000 C   0  0  0  0  0  0  0  0  0  0  0  0
    6.4260    0.5500    0.0000 C   0  0  0  0  0  0  0  0  0  0  0  0
    6.4260    2.6194    0.0000 C   0  0  0  0  0  0  0  0  0  0  0  0
    7.3321    2.1055    0.0000 C   0  0  0  0  0  0  0  0  0  0  0  0
    3.8000    1.0847    0.0000 C   0  0  0  0  0  0  0  0  0  0  0  0
    4.6660    0.5847    0.0000 C   0  0  0  0  0  0  0  0  0  0  0  0
    3.8000    2.0847    0.0000 C   0  0  0  0  0  0  0  0  0  0  0  0
    4.6660    2.5847    0.0000 C   0  0  0  0  0  0  0  0  0  0  0  0
    7.3321    1.0639    0.0000 C   0  0  0  0  0  0  0  0  0  0  0  0
    7.2746   -0.9599    0.0000 C   0  0  0  0  0  0  0  0  0  0  0  0
    2.9061    0.5500    0.0000 C   0  0  0  0  0  0  0  0  0  0  0  0
    2.9061    2.6194    0.0000 C   0  0  0  0  0  0  0  0  0  0  0  0
    7.2631   -1.9598    0.0000 C   0  0  0  0  0  0  0  0  0  0  0  0
    8.1232   -2.4698    0.0000 C   0  0  0  0  0  0  0  0  0  0  0  0
    2.0000    1.0639    0.0000 C   0  0  0  0  0  0  0  0  0  0  0  0
    2.0000    2.1055    0.0000 C   0  0  0  0  0  0  0  0  0  0  0  0
    8.1464   -0.4699    0.0000 C   0  0  0  0  0  0  0  0  0  0  0  0
    8.9950   -1.9798    0.0000 C   0  0  0  0  0  0  0  0  0  0  0  0
    9.0066   -0.9799    0.0000 C   0  0  0  0  0  0  0  0  0  0  0  0
   10.7269   -1.9999    0.0000 C   0  0  0  0  0  0  0  0  0  0  0  0
   12.4936    0.9799    0.0000 C   0  0  0  0  0  0  0  0  0  0  0  0
   11.6102   -0.5100    0.0000 C   0  0  0  0  0  0  0  0  0  0  0  0
   13.3769    2.4698    0.0000 C   0  0  0  0  0  0  0  0  0  0  0  0
   12.5051    1.9798    0.0000 C   0  0  0  0  0  0  0  0  0  0  0  0
   13.3537    0.4699    0.0000 C   0  0  0  0  0  0  0  0  0  0  0  0
   14.2371    1.9598    0.0000 C   0  0  0  0  0  0  0  0  0  0  0  0
   14.2255    0.9599    0.0000 C   0  0  0  0  0  0  0  0  0  0  0  0
   12.4589   -2.0199    0.0000 C   0  0  0  0  0  0  0  0  0  0  0  0
    7.8678    0.7518    0.0000 H   0  0  0  0  0  0  0  0  0  0  0  0
    5.8740   -0.7537    0.0000 H   0  0  0  0  0  0  0  0  0  0  0  0
    2.9132   -0.0699    0.0000 H   0  0  0  0  0  0  0  0  0  0  0  0
    2.9132    3.2393    0.0000 H   0  0  0  0  0  0  0  0  0  0  0  0
    5.8740    3.9231    0.0000 H   0  0  0  0  0  0  0  0  0  0  0  0
    6.9478    3.9355    0.0000 H   0  0  0  0  0  0  0  0  0  0  0  0
    6.7226   -2.2636    0.0000 H   0  0  0  0  0  0  0  0  0  0  0  0
    1.4643    0.7518    0.0000 H   0  0  0  0  0  0  0  0  0  0  0  0
    1.4643    2.4176    0.0000 H   0  0  0  0  0  0  0  0  0  0  0  0
    8.1535    0.1500    0.0000 H   0  0  0  0  0  0  0  0  0  0  0  0
    9.5470   -0.6761    0.0000 H   0  0  0  0  0  0  0  0  0  0  0  0
    9.8480   -3.1098    0.0000 H   0  0  0  0  0  0  0  0  0  0  0  0
    9.5984    2.8042    0.0000 H   0  0  0  0  0  0  0  0  0  0  0  0
    7.5596   -4.7734    0.0000 H   0  0  0  0  0  0  0  0  0  0  0  0
   11.0885    0.8061    0.0000 H   0  0  0  0  0  0  0  0  0  0  0  0
   11.9718    2.2960    0.0000 H   0  0  0  0  0  0  0  0  0  0  0  0
   13.3466   -0.1500    0.0000 H   0  0  0  0  0  0  0  0  0  0  0  0
   14.7775    2.2636    0.0000 H   0  0  0  0  0  0  0  0  0  0  0  0
   14.7588    0.6437    0.0000 H   0  0  0  0  0  0  0  0  0  0  0  0
   13.9405    4.7734    0.0000 H   0  0  0  0  0  0  0  0  0  0  0  0
  1 51  1  0  0  0  0
  2  7  1  0  0  0  0
  2  8  2  0  0  0  0
  2  9  2  0  0  0  0
  2 27  1  0  0  0  0
  3 10  1  0  0  0  0
  3 11  2  0  0  0  0
  3 12  2  0  0  0  0
  3 37  1  0  0  0  0
  4 13  1  0  0  0  0
  4 14  2  0  0  0  0
  4 15  2  0  0  0  0
  4 46  1  0  0  0  0
  5 29  2  0  0  0  0
  6 31  2  0  0  0  0
  7 64  1  0  0  0  0
 10 65  1  0  0  0  0
 13 71  1  0  0  0  0
 16 25  1  0  0  0  0
 16 33  1  0  0  0  0
 16 53  1  0  0  0  0
 17 26  1  0  0  0  0
 17 56  1  0  0  0  0
 17 57  1  0  0  0  0
 18 41  1  0  0  0  0
 18 43  1  0  0  0  0
 18 63  1  0  0  0  0
 19 43  1  0  0  0  0
 19 45  2  0  0  0  0
 20 44  1  0  0  0  0
 20 45  1  0  0  0  0
 20 66  1  0  0  0  0
 21 43  2  0  0  0  0
 21 51  1  0  0  0  0
 22 45  1  0  0  0  0
 22 51  2  0  0  0  0
 23 24  2  0  0  0  0
 23 25  1  0  0  0  0
 23 29  1  0  0  0  0
 24 26  1  0  0  0  0
 24 31  1  0  0  0  0
 25 32  2  0  0  0  0
 26 27  2  0  0  0  0
 27 32  1  0  0  0  0
 28 29  1  0  0  0  0
 28 30  1  0  0  0  0
 28 34  2  0  0  0  0
 30 31  1  0  0  0  0
 30 35  2  0  0  0  0
 32 52  1  0  0  0  0
 33 36  2  0  0  0  0
 33 40  1  0  0  0  0
 34 38  1  0  0  0  0
 34 54  1  0  0  0  0
 35 39  1  0  0  0  0
 35 55  1  0  0  0  0
 36 37  1  0  0  0  0
 36 58  1  0  0  0  0
 37 41  2  0  0  0  0
 38 39  2  0  0  0  0
 38 59  1  0  0  0  0
 39 60  1  0  0  0  0
 40 42  2  0  0  0  0
 40 61  1  0  0  0  0
 41 42  1  0  0  0  0
 42 62  1  0  0  0  0
 44 47  2  0  0  0  0
 44 48  1  0  0  0  0
 46 47  1  0  0  0  0
 46 49  2  0  0  0  0
 47 67  1  0  0  0  0
 48 50  2  0  0  0  0
 48 68  1  0  0  0  0
 49 50  1  0  0  0  0
 49 69  1  0  0  0  0
 50 70  1  0  0  0  0
M  END
> <PUBCHEM_COMPOUND_CID>
656725

> <PUBCHEM_COMPOUND_CANONICALIZED>
1

> <PUBCHEM_CACTVS_COMPLEXITY>
1640

> <PUBCHEM_CACTVS_HBOND_ACCEPTOR>
18

> <PUBCHEM_CACTVS_HBOND_DONOR>
7

> <PUBCHEM_CACTVS_ROTATABLE_BOND>
9

> <PUBCHEM_CACTVS_SUBSKEYS>
AAADceB7vABkAAAAAAAAAAAAAAAAAAAAAAA8YMGDAAAAAADB1AAAHgYQCAAADAyB2AAx0YbIEIKoAqRSZHDCAEklAoAJiB0AZMiIKHrAnZGEIYxokALIyecdiMCOkACAwCASAQCgAQWAQCQCAAAAAAAAAA==

> <PUBCHEM_IUPAC_OPENEYE_NAME>
1-amino-4-[4-[[4-chloro-6-(3-sulfoanilino)-1,3,5-triazin-2-yl]amino]-3-sulfo-anilino]-9,10-dioxo-anthracene-2-sulfonic acid

> <PUBCHEM_IUPAC_CAS_NAME>
1-amino-4-[4-[[4-chloro-6-(3-sulfoanilino)-1,3,5-triazin-2-yl]amino]-3-sulfoanilino]-9,10-dioxo-2-anthracenesulfonic acid

> <PUBCHEM_IUPAC_NAME>
1-amino-4-[4-[[4-chloro-6-(3-sulfoanilino)-1,3,5-triazin-2-yl]amino]-3-sulfoanilino]-9,10-dioxoanthracene-2-sulfonic acid

> <PUBCHEM_IUPAC_SYSTEMATIC_NAME>
1-azanyl-4-[[4-[[4-chloranyl-6-[(3-sulfophenyl)amino]-1,3,5-triazin-2-yl]amino]-3-sulfo-phenyl]amino]-9,10-bis(oxidanylidene)anthracene-2-sulfonic acid

> <PUBCHEM_IUPAC_TRADITIONAL_NAME>
1-amino-4-[4-[[4-chloro-6-(3-sulfoanilino)-s-triazin-2-yl]amino]-3-sulfo-anilino]-9,10-diketo-anthracene-2-sulfonic acid

> <PUBCHEM_IUPAC_INCHI>
InChI=1S/C29H20ClN7O11S3/c30-27-35-28(33-13-4-3-5-15(10-13)49(40,41)42)37-29(36-27)34-18-9-8-14(11-20(18)50(43,44)45)32-19-12-21(51(46,47)48)24(31)23-22(19)25(38)16-6-1-2-7-17(16)26(23)39/h1-12,32H,31H2,(H,40,41,42)(H,43,44,45)(H,46,47,48)(H2,33,34,35,36,37)

> <PUBCHEM_IUPAC_INCHIKEY>
JQYMGXZJTCOARG-UHFFFAOYSA-N

> <PUBCHEM_XLOGP3_AA>
4.4

> <PUBCHEM_EXACT_MASS>
773.007145

> <PUBCHEM_MOLECULAR_FORMULA>
C29H20ClN7O11S3

> <PUBCHEM_MOLECULAR_WEIGHT>
774.1574

> <PUBCHEM_OPENEYE_CAN_SMILES>
C1=CC=C2C(=C1)C(=O)C3=C(C2=O)C(=C(C=C3NC4=CC(=C(C=C4)NC5=NC(=NC(=N5)NC6=CC(=CC=C6)S(=O)(=O)O)Cl)S(=O)(=O)O)S(=O)(=O)O)N

> <PUBCHEM_OPENEYE_ISO_SMILES>
C1=CC=C2C(=C1)C(=O)C3=C(C2=O)C(=C(C=C3NC4=CC(=C(C=C4)NC5=NC(=NC(=N5)NC6=CC(=CC=C6)S(=O)(=O)O)Cl)S(=O)(=O)O)S(=O)(=O)O)N

> <PUBCHEM_CACTVS_TPSA>
323

> <PUBCHEM_MONOISOTOPIC_WEIGHT>
773.007145

> <PUBCHEM_TOTAL_CHARGE>
0

> <PUBCHEM_HEAVY_ATOM_COUNT>
51

> <PUBCHEM_ATOM_DEF_STEREO_COUNT>
0

> <PUBCHEM_ATOM_UDEF_STEREO_COUNT>
0

> <PUBCHEM_BOND_DEF_STEREO_COUNT>
0

> <PUBCHEM_BOND_UDEF_STEREO_COUNT>
0

> <PUBCHEM_ISOTOPIC_ATOM_COUNT>
0

> <PUBCHEM_COMPONENT_COUNT>
1

> <PUBCHEM_CACTVS_TAUTO_COUNT>
108

> <PUBCHEM_COORDINATE_TYPE>
1
5
255

> <PUBCHEM_BONDANNOTATIONS>
19  43  8
19  45  8
21  43  8
21  51  8
22  45  8
22  51  8
23  24  8
23  25  8
24  26  8
25  32  8
26  27  8
27  32  8
28  30  8
28  34  8
30  35  8
33  36  8
33  40  8
34  38  8
35  39  8
36  37  8
37  41  8
38  39  8
40  42  8
41  42  8
44  47  8
44  48  8
46  47  8
46  49  8
48  50  8
49  50  8

$$$$

