   Color/Form
        Orange-yellow crystals
   from [1]HSDB

   Odor
        Fruit-like
   from [2]HSDB

   Boiling Point
        330 deg C
   from [3]HSDB

   Melting Point
        56-57 deg C
   from [4]HSDB

   Corrosivity
        Non-corrosive
   from [5]HSDB

   Density/Specific Gravity
        1.19 at 25 deg C
   from [6]HSDB

   Solubilities

     * In water at 20 deg C, 0.3 mg/l. In acetone 700, xylene 628, corn
       oil 148, heptane 138, isopropanol 77 (all in g/l at 26 deg C).
       Readily soluble in benzene, toluene, chloroform, dichloromethane.
       Slightly soluble in petroleum ether and petrol.
     * Soluble in most organic solvents.
     * Sol in aromatic and chlorinated hydrocarbon solvents.

   from [7]HSDB

   Vapor Pressure
        3X10-5 mm Hg at 25 deg C
   from [8]HSDB

   Other Chemical/Physical Properties

     * Vapor pressure: 4 mPa at 25 deg C
     * The Henry's Law constant = 8.6(+ or - 5.4)X10-7 atm-cu m/mol at 25
       deg C

   from [9]HSDB

   Computed Properties
   Molecular Weight                  281.30766 [g/mol]
   Molecular Formula                 C[13]H[19]N[3]O[4]
   XLogP3                            5.2
   H-Bond Donor                      1
   H-Bond Acceptor                   5
   Rotatable Bond Count              4
   Exact Mass                        281.137556
   MonoIsotopic Mass                 281.137556
   Topological Polar Surface Area    104
   Heavy Atom Count                  20
   Formal Charge                     0
   Complexity                        349
   Isotope Atom Count                0
   Defined Atom Stereocenter Count   0
   Undefined Atom Stereocenter Count 0
   Defined Bond Stereocenter Count   0
   Undefined Bond Stereocenter Count 0
   Covalently-Bonded Unit Count      1
   Feature 3D Acceptor Count         4
   Feature 3D Donor Count            1
   Feature 3D Anion Count            2
   Feature 3D Cation Count           1
   Feature 3D Hydrophobe Count       2
   Feature 3D Ring Count             1
   Effective Rotor Count             6
   Conformer Sampling RMSD           0.8
   CID Conformer Count               [10]2

References

   1. http://toxnet.nlm.nih.gov/cgi-bin/sis/search/r?dbs+hsdb:@term+@rn+@rel+40487-42-1
   2. http://toxnet.nlm.nih.gov/cgi-bin/sis/search/r?dbs+hsdb:@term+@rn+@rel+40487-42-1
   3. http://toxnet.nlm.nih.gov/cgi-bin/sis/search/r?dbs+hsdb:@term+@rn+@rel+40487-42-1
   4. http://toxnet.nlm.nih.gov/cgi-bin/sis/search/r?dbs+hsdb:@term+@rn+@rel+40487-42-1
   5. http://toxnet.nlm.nih.gov/cgi-bin/sis/search/r?dbs+hsdb:@term+@rn+@rel+40487-42-1
   6. http://toxnet.nlm.nih.gov/cgi-bin/sis/search/r?dbs+hsdb:@term+@rn+@rel+40487-42-1
   7. http://toxnet.nlm.nih.gov/cgi-bin/sis/search/r?dbs+hsdb:@term+@rn+@rel+40487-42-1
   8. http://toxnet.nlm.nih.gov/cgi-bin/sis/search/r?dbs+hsdb:@term+@rn+@rel+40487-42-1
   9. http://toxnet.nlm.nih.gov/cgi-bin/sis/search/r?dbs+hsdb:@term+@rn+@rel+40487-42-1
  10. http://pubchem.ncbi.nlm.nih.gov/vw3d/vw3d.cgi?cid=38479
