13660
  -OEChem-06241222392D

 37 38  0     1  0  0  0  0  0999 V2000
    3.0000   -1.4567    0.0000 N   0  3  0  0  0  0  0  0  0  0  0  0
    5.4487   -0.6203    0.0000 C   0  0  3  0  0  0  0  0  0  0  0  0
    4.9709    1.3282    0.0000 C   0  0  0  0  0  0  0  0  0  0  0  0
    5.7075    0.3456    0.0000 C   0  0  3  0  0  0  0  0  0  0  0  0
    3.9136   -1.8635    0.0000 C   0  0  0  0  0  0  0  0  0  0  0  0
    7.2806   -1.3791    0.0000 C   0  0  0  0  0  0  0  0  0  0  0  0
    3.1045   -0.4622    0.0000 C   0  0  0  0  0  0  0  0  0  0  0  0
    7.5395   -0.4132    0.0000 C   0  0  0  0  0  0  0  0  0  0  0  0
    5.1899   -1.5862    0.0000 C   0  0  0  0  0  0  0  0  0  0  0  0
    5.0754    2.3228    0.0000 C   0  0  0  0  0  0  0  0  0  0  0  0
    4.0574    1.7350    0.0000 C   0  0  0  0  0  0  0  0  0  0  0  0
    2.0000   -1.4567    0.0000 C   0  0  0  0  0  0  0  0  0  0  0  0
    2.5000   -2.3228    0.0000 C   0  0  0  0  0  0  0  0  0  0  0  0
    6.0877    0.8354    0.0000 H   0  0  0  0  0  0  0  0  0  0  0  0
    3.5759   -2.3834    0.0000 H   0  0  0  0  0  0  0  0  0  0  0  0
    4.3743   -2.2783    0.0000 H   0  0  0  0  0  0  0  0  0  0  0  0
    7.0686   -1.9617    0.0000 H   0  0  0  0  0  0  0  0  0  0  0  0
    7.8720   -1.5656    0.0000 H   0  0  0  0  0  0  0  0  0  0  0  0
    3.0023    0.1493    0.0000 H   0  0  0  0  0  0  0  0  0  0  0  0
    2.4848   -0.4811    0.0000 H   0  0  0  0  0  0  0  0  0  0  0  0
    8.1308   -0.5996    0.0000 H   0  0  0  0  0  0  0  0  0  0  0  0
    7.7515    0.1694    0.0000 H   0  0  0  0  0  0  0  0  0  0  0  0
    4.5910   -1.4258    0.0000 H   0  0  0  0  0  0  0  0  0  0  0  0
    5.0294   -2.1851    0.0000 H   0  0  0  0  0  0  0  0  0  0  0  0
    5.7888   -1.7467    0.0000 H   0  0  0  0  0  0  0  0  0  0  0  0
    5.6920    2.2579    0.0000 H   0  0  0  0  0  0  0  0  0  0  0  0
    5.1402    2.9394    0.0000 H   0  0  0  0  0  0  0  0  0  0  0  0
    4.3095    2.3014    0.0000 H   0  0  0  0  0  0  0  0  0  0  0  0
    3.4910    1.9871    0.0000 H   0  0  0  0  0  0  0  0  0  0  0  0
    3.8052    1.1686    0.0000 H   0  0  0  0  0  0  0  0  0  0  0  0
    4.4588    2.3876    0.0000 H   0  0  0  0  0  0  0  0  0  0  0  0
    2.0000   -0.8367    0.0000 H   0  0  0  0  0  0  0  0  0  0  0  0
    1.3800   -1.4567    0.0000 H   0  0  0  0  0  0  0  0  0  0  0  0
    2.0000   -2.0767    0.0000 H   0  0  0  0  0  0  0  0  0  0  0  0
    1.9631   -2.0128    0.0000 H   0  0  0  0  0  0  0  0  0  0  0  0
    2.1900   -2.8597    0.0000 H   0  0  0  0  0  0  0  0  0  0  0  0
    3.0369   -2.6328    0.0000 H   0  0  0  0  0  0  0  0  0  0  0  0
  1  5  1  0  0  0  0
  1  7  1  0  0  0  0
  1 12  1  0  0  0  0
  1 13  1  0  0  0  0
  2  3  1  0  0  0  0
  2  5  1  0  0  0  0
  2  6  1  0  0  0  0
  2  9  1  0  0  0  0
  3  4  1  0  0  0  0
  3 10  1  0  0  0  0
  3 11  1  0  0  0  0
  4  7  1  0  0  0  0
  4  8  1  0  0  0  0
  4 14  1  0  0  0  0
  5 15  1  0  0  0  0
  5 16  1  0  0  0  0
  6  8  1  0  0  0  0
  6 17  1  0  0  0  0
  6 18  1  0  0  0  0
  7 19  1  0  0  0  0
  7 20  1  0  0  0  0
  8 21  1  0  0  0  0
  8 22  1  0  0  0  0
  9 23  1  0  0  0  0
  9 24  1  0  0  0  0
  9 25  1  0  0  0  0
 10 26  1  0  0  0  0
 10 27  1  0  0  0  0
 10 31  1  0  0  0  0
 11 28  1  0  0  0  0
 11 29  1  0  0  0  0
 11 30  1  0  0  0  0
 12 32  1  0  0  0  0
 12 33  1  0  0  0  0
 12 34  1  0  0  0  0
 13 35  1  0  0  0  0
 13 36  1  0  0  0  0
 13 37  1  0  0  0  0
M  CHG  1   1   1
M  END
> <PUBCHEM_COMPOUND_CID>
13660

> <PUBCHEM_COMPOUND_CANONICALIZED>
1

> <PUBCHEM_CACTVS_COMPLEXITY>
229

> <PUBCHEM_CACTVS_HBOND_ACCEPTOR>
0

> <PUBCHEM_CACTVS_HBOND_DONOR>
0

> <PUBCHEM_CACTVS_ROTATABLE_BOND>
0

> <PUBCHEM_CACTVS_SUBSKEYS>
AAADceByAAAAAAAAAAAAAAAAAAAAAYAAAAAsAAAABYAAAAAAAAAAHAAAAAAADwDBAAQCAAMAAAAAAAAAAAAAAAAAAAAAAAAIAAAAAAIAgAAEAAAAAACAAAEQgEAPgAAAAAAAAAAAAAAAAAAAAQAACAAAAA==

> <PUBCHEM_IUPAC_OPENEYE_NAME>
3,3,5,8,8-pentamethyl-3-azoniabicyclo[3.2.1]octane

> <PUBCHEM_IUPAC_CAS_NAME>
3,3,5,8,8-pentamethyl-3-azoniabicyclo[3.2.1]octane

> <PUBCHEM_IUPAC_NAME>
3,3,5,8,8-pentamethyl-3-azoniabicyclo[3.2.1]octane

> <PUBCHEM_IUPAC_SYSTEMATIC_NAME>
3,3,5,8,8-pentamethyl-3-azoniabicyclo[3.2.1]octane

> <PUBCHEM_IUPAC_TRADITIONAL_NAME>
3,3,5,8,8-pentamethyl-3-azoniabicyclo[3.2.1]octane

> <PUBCHEM_IUPAC_INCHI>
InChI=1S/C12H24N/c1-11(2)10-6-7-12(11,3)9-13(4,5)8-10/h10H,6-9H2,1-5H3/q+1

> <PUBCHEM_IUPAC_INCHIKEY>
AMTHKVRAVJJVJT-UHFFFAOYSA-N

> <PUBCHEM_XLOGP3_AA>
2.6

> <PUBCHEM_EXACT_MASS>
182.190875

> <PUBCHEM_MOLECULAR_FORMULA>
C12H24N+

> <PUBCHEM_MOLECULAR_WEIGHT>
182.32566

> <PUBCHEM_OPENEYE_CAN_SMILES>
CC1(C2CCC1(C[N+](C2)(C)C)C)C

> <PUBCHEM_OPENEYE_ISO_SMILES>
CC1(C2CCC1(C[N+](C2)(C)C)C)C

> <PUBCHEM_CACTVS_TPSA>
0

> <PUBCHEM_MONOISOTOPIC_WEIGHT>
182.190875

> <PUBCHEM_TOTAL_CHARGE>
1

> <PUBCHEM_HEAVY_ATOM_COUNT>
13

> <PUBCHEM_ATOM_DEF_STEREO_COUNT>
0

> <PUBCHEM_ATOM_UDEF_STEREO_COUNT>
2

> <PUBCHEM_BOND_DEF_STEREO_COUNT>
0

> <PUBCHEM_BOND_UDEF_STEREO_COUNT>
0

> <PUBCHEM_ISOTOPIC_ATOM_COUNT>
0

> <PUBCHEM_COMPONENT_COUNT>
1

> <PUBCHEM_CACTVS_TAUTO_COUNT>
1

> <PUBCHEM_COORDINATE_TYPE>
1
5
255

> <PUBCHEM_BONDANNOTATIONS>
2  9  3
4  3  3

$$$$

