   Color/Form

     * NEEDLES FROM ETHANOL & ETHER
     * CRYSTALS

   from [1]HSDB

   Color/Form
        Powder or granular
   from [2]HSDB

   Taste
        MILD ACID TASTE
   from [3]HSDB

   Melting Point
        131 DEG C
   from [4]HSDB

   Density/Specific Gravity
        1.24 @ 25 DEG C/4 DEG C
   from [5]HSDB

   Dissociation Constants
        K= 2.5X10-4 @ 25 DEG C
   from [6]HSDB

   Solubilities
        FREELY SOL IN WATER; SLIGHTLY SOL IN ALC, INSOLUBLE IN ETHER AND
   MOST OTHER ORGANIC SOLVENTS
   from [7]HSDB

   Spectral Properties

     * SPECIFIC OPTICAL ROTATION: -3.49 TO +12.95 DEG @ 25 DEG C/D
       (WATER); MUTAROTATORY; SADTLER REFERENCE NUMBER: 8335 (IR, PRISM)
     * SPECIFIC OPTICAL ROTATION: -6.7 DEG @ 20 DEG C/D (CONCN= 1 G/100 ML
       WATER)
     * IR: 21802 (Sadtler Research Laboratories IR Grating Collection)
     * NMR: 11270 (Sadtler Research Laboratories Spectral Collection)

   from [8]HSDB

   Other Chemical/Physical Properties

     * FAINT ODOR OF VINEGAR /COMMERCIAL PRODUCT/
     * IN WATER IT PARTIALLY CONVERTS INTO EQUILIBRIUM MIXT WITH GAMMA AND
       DELTA GLUCONOLACTONES
     * LIGHT AMBER COLOR /COMMERCIAL PRODUCT/
     * DECOMP IN HOT WATER

   from [9]HSDB

   Computed Properties
   Molecular Weight                  196.15528 [g/mol]
   Molecular Formula                 C[6]H[12]O[7]
   XLogP3-AA                         -3.4
   H-Bond Donor                      6
   H-Bond Acceptor                   7
   Rotatable Bond Count              5
   Exact Mass                        196.058303
   MonoIsotopic Mass                 196.058303
   Topological Polar Surface Area    138
   Heavy Atom Count                  13
   Formal Charge                     0
   Complexity                        170
   Isotope Atom Count                0
   Defined Atom Stereocenter Count   0
   Undefined Atom Stereocenter Count 4
   Defined Bond Stereocenter Count   0
   Undefined Bond Stereocenter Count 0
   Covalently-Bonded Unit Count      1
   Feature 3D Acceptor Count         7
   Feature 3D Donor Count            5
   Feature 3D Anion Count            1
   Effective Rotor Count             5
   Conformer Sampling RMSD           0.6
   CID Conformer Count               [10]411

References

   1. http://toxnet.nlm.nih.gov/cgi-bin/sis/search/r?dbs+hsdb:@term+@rn+@rel+526-95-4
   2. http://toxnet.nlm.nih.gov/cgi-bin/sis/search/r?dbs+hsdb:@term+@rn+@rel+4468-02-4
   3. http://toxnet.nlm.nih.gov/cgi-bin/sis/search/r?dbs+hsdb:@term+@rn+@rel+526-95-4
   4. http://toxnet.nlm.nih.gov/cgi-bin/sis/search/r?dbs+hsdb:@term+@rn+@rel+526-95-4
   5. http://toxnet.nlm.nih.gov/cgi-bin/sis/search/r?dbs+hsdb:@term+@rn+@rel+526-95-4
   6. http://toxnet.nlm.nih.gov/cgi-bin/sis/search/r?dbs+hsdb:@term+@rn+@rel+526-95-4
   7. http://toxnet.nlm.nih.gov/cgi-bin/sis/search/r?dbs+hsdb:@term+@rn+@rel+526-95-4
   8. http://toxnet.nlm.nih.gov/cgi-bin/sis/search/r?dbs+hsdb:@term+@rn+@rel+526-95-4
   9. http://toxnet.nlm.nih.gov/cgi-bin/sis/search/r?dbs+hsdb:@term+@rn+@rel+526-95-4
  10. http://pubchem.ncbi.nlm.nih.gov/vw3d/vw3d.cgi?cid=604
