   Color/Form

     * Small hydrated plates from alcohol, in hydrated needles from ether.
       The best crystalized form contains 1 1/2 mol H2O
     * Platelets from water, alcohol; needles from ethyl ether
     * Colorless crystals

   from [1]HSDB

   Boiling Point
        250 deg C at 0.01 mm Hg
   from [2]HSDB

   Melting Point
        170 deg C
   from [3]HSDB

   Density/Specific Gravity
        1.04
   from [4]HSDB

   Octanol/Water Partition Coefficient
        log Kow = 8.86 (est)
   from [5]HSDB

   Solubilities

     * Slightly soluble in ethanol, ethyl ether, petroleum ether; soluble
       in benzene, chloroform
     * One gram dissolves in 660 mL alcohol, in 45 mL boiling alcohol, in
       70 mL ether, in 39 mL boiling ether, in 31 mL chloroform.
     * In water, 4.31X10-5 mg/L at 25 deg C (est)

   from [6]HSDB

   Spectral Properties

     * Specific optical rotation: -135 deg (in chloroform)
     * Specific optical rotation: -135 deg at 20 deg C/D ( c = 1.2 in
       CHCL3, calcd as anhydr); -171 deg at 20 deg C/546
     * SADTLER REFERENCE NUMBER: 7385 (IR, PRISM); MAX ABSORPTION
       (ALCOHOL): 271 NM (LOG E= 3.80); 281 NM (LOG E= 3.82); 293 NM (LOG
       E= 3.57)
     * UV max (ethanol): 262, 271, 282, 293 nm
     * IR: 21708 (Sadtler Research Laboratories IR Grating Collection)
     * UV: 17825 (Sadtler Research Laboratories Spectral Collection)
     * MASS: 36755 (NIST/EPA/MSDC Mass Spectral Database, 1990 version);
       3081 (National Bureau of Standards EPA-NIH Mass Spectra Data Base,
       NSRDS-NBS-63)

   from [7]HSDB

   Vapor Pressure
        1.04X10-9 mm Hg at 25 deg C (est)
   from [8]HSDB

   Other Chemical/Physical Properties

     * MP: 168 deg C. Complete removal from water is almost impossible and
       results in an amorphous mass, melting range 166-183 deg C. ...
       Precipitated by digitonin. Affected by light and air, turns yellow.
       Oxygen forms peroxides and hydrogen may form polyhydro compounds.
     * Plates or needles, mp 169-171 deg C. Specific optical rotation: -71
       deg at 23 deg C/D ( c = 1.1 in CHCl3), -88 deg at /546 (CHCl3)
       /Benzoate/
     * UV irradiation gives vitamin D4 ... Solvated needles from ethyl
       acetate + methanol, mp 152-153 deg C (dried). Specific optical
       rotation: -109 deg at 19 deg C/D (CHCl3); also reported as needles
       from chloroform-methanol, mp 128-130 deg C; Specific optical
       rotation: -121 deg at 19 deg C/D ( c = 0.1). UV max:
       262,272,282,294 nm (epsilon 8000, 11200, 11800, 6800).
       /22,23-Dihydro analog/
     * MP: 157-158 deg C; Specific optical rotation: -75 deg at 19 deg C/D
       ( c = 2.1 in CHCl3) /22,23-Dihydro acetate/
     * A plant sterol widely distributed in nature
     * Hydroxyl radical reaction rate constant = 3.51X-10 cu cm/molec-sec
       at 25 deg C (est)

   from [9]HSDB

   Computed Properties
   Molecular Weight                  396.64836 [g/mol]
   Molecular Formula                 C[28]H[44]O
   XLogP3-AA                         7.4
   H-Bond Donor                      1
   H-Bond Acceptor                   1
   Rotatable Bond Count              4
   Exact Mass                        396.339216
   MonoIsotopic Mass                 396.339216
   Topological Polar Surface Area    20.2
   Heavy Atom Count                  29
   Formal Charge                     0
   Complexity                        712
   Isotope Atom Count                0
   Defined Atom Stereocenter Count   8
   Undefined Atom Stereocenter Count 0
   Defined Bond Stereocenter Count   1
   Undefined Bond Stereocenter Count 0
   Covalently-Bonded Unit Count      1
   Feature 3D Acceptor Count         1
   Feature 3D Donor Count            1
   Feature 3D Hydrophobe Count       3
   Feature 3D Ring Count             4
   Effective Rotor Count             5.8
   Conformer Sampling RMSD           0.8
   CID Conformer Count               [10]13

References

   1. http://toxnet.nlm.nih.gov/cgi-bin/sis/search/r?dbs+hsdb:@term+@rn+@rel+57-87-4
   2. http://toxnet.nlm.nih.gov/cgi-bin/sis/search/r?dbs+hsdb:@term+@rn+@rel+57-87-4
   3. http://toxnet.nlm.nih.gov/cgi-bin/sis/search/r?dbs+hsdb:@term+@rn+@rel+57-87-4
   4. http://toxnet.nlm.nih.gov/cgi-bin/sis/search/r?dbs+hsdb:@term+@rn+@rel+57-87-4
   5. http://toxnet.nlm.nih.gov/cgi-bin/sis/search/r?dbs+hsdb:@term+@rn+@rel+57-87-4
   6. http://toxnet.nlm.nih.gov/cgi-bin/sis/search/r?dbs+hsdb:@term+@rn+@rel+57-87-4
   7. http://toxnet.nlm.nih.gov/cgi-bin/sis/search/r?dbs+hsdb:@term+@rn+@rel+57-87-4
   8. http://toxnet.nlm.nih.gov/cgi-bin/sis/search/r?dbs+hsdb:@term+@rn+@rel+57-87-4
   9. http://toxnet.nlm.nih.gov/cgi-bin/sis/search/r?dbs+hsdb:@term+@rn+@rel+57-87-4
  10. http://pubchem.ncbi.nlm.nih.gov/vw3d/vw3d.cgi?cid=444679
