   Color/Form
        Gray to brown powder
   from [1]HSDB

   Melting Point
        112 deg C min
   from [2]HSDB

   Solubilities
        Soluble in ketones and esters
   from [3]HSDB

   Other Chemical/Physical Properties
        Hydrolysed to 3,3'-dimethoxybenzidine; emits toxic fumes of nitric
   oxide when heated to decomposition.
   from [4]HSDB

   Computed Properties
   Molecular Weight                  296.27748 [g/mol]
   Molecular Formula                 C[16]H[12]N[2]O[4]
   XLogP3-AA                         5.1
   H-Bond Donor                      0
   H-Bond Acceptor                   6
   Rotatable Bond Count              5
   Exact Mass                        296.079707
   MonoIsotopic Mass                 296.079707
   Topological Polar Surface Area    77.3
   Heavy Atom Count                  22
   Formal Charge                     0
   Complexity                        415
   Isotope Atom Count                0
   Defined Atom Stereocenter Count   0
   Undefined Atom Stereocenter Count 0
   Defined Bond Stereocenter Count   0
   Undefined Bond Stereocenter Count 0
   Covalently-Bonded Unit Count      1
   Feature 3D Acceptor Count         4
   Feature 3D Ring Count             2
   Effective Rotor Count             5
   Conformer Sampling RMSD           0.8
   CID Conformer Count               [5]21

References

   1. http://toxnet.nlm.nih.gov/cgi-bin/sis/search/r?dbs+hsdb:@term+@rn+@rel+91-93-0
   2. http://toxnet.nlm.nih.gov/cgi-bin/sis/search/r?dbs+hsdb:@term+@rn+@rel+91-93-0
   3. http://toxnet.nlm.nih.gov/cgi-bin/sis/search/r?dbs+hsdb:@term+@rn+@rel+91-93-0
   4. http://toxnet.nlm.nih.gov/cgi-bin/sis/search/r?dbs+hsdb:@term+@rn+@rel+91-93-0
   5. http://pubchem.ncbi.nlm.nih.gov/vw3d/vw3d.cgi?cid=7069
