   Color/Form

     * Clear, colorless liquid
     * LIQUID

   from [1]HSDB

   Boiling Point
        68 DEG C @ 754 MM HG
   from [2]HSDB

   Density/Specific Gravity
        0.9186 @ 20 DEG C/4 DEG C
   from [3]HSDB

   Solubilities

     * SOL IN ACETONE; VERY SOL IN CHLOROFORM; SOL IN ALL PROPORTIONS IN
       ALCOHOL & ETHER
     * Water solubility = 1000 mg/L [Shiu WY et al; Rev Environ Contam
       Toxicol 116: 15-187 (1990)] [4]PubMed Abstract

   from [5]HSDB

   Spectral Properties

     * INDEX OF REFRACTION: 1.4221 @ 20 DEG C
     * IR: 3:57G (Aldrich Library of Infrared Spectra, Aldrich Chemical
       Co, Milwaukee, WI)
     * NMR: 1:70D (Aldrich Library of Mass Spectra, Aldrich Chemical Co,
       Milwaukee, WI)
     * NMR: 67 (Varian Associates NMR Spectra Catalogue)

   from [6]HSDB

   Vapor Pressure
        158.4 mm Hg at 25 deg C
   from [7]HSDB

   Other Chemical/Physical Properties
        Extremely volatile and flammable at room temperature
   from [8]HSDB

   Computed Properties
   Molecular Weight                  90.55138 [g/mol]
   Molecular Formula                 C[4]H[7]Cl
   XLogP3-AA                         2.3
   H-Bond Donor                      0
   H-Bond Acceptor                   0
   Rotatable Bond Count              0
   Exact Mass                        90.023628
   MonoIsotopic Mass                 90.023628
   Topological Polar Surface Area    0
   Heavy Atom Count                  5
   Formal Charge                     0
   Complexity                        41.6
   Isotope Atom Count                0
   Defined Atom Stereocenter Count   0
   Undefined Atom Stereocenter Count 0
   Defined Bond Stereocenter Count   0
   Undefined Bond Stereocenter Count 0
   Covalently-Bonded Unit Count      1
   Feature 3D Hydrophobe Count       1
   Effective Rotor Count             0
   Conformer Sampling RMSD           0.4
   CID Conformer Count               [9]1

References

   1. http://toxnet.nlm.nih.gov/cgi-bin/sis/search/r?dbs+hsdb:@term+@rn+@rel+513-37-1
   2. http://toxnet.nlm.nih.gov/cgi-bin/sis/search/r?dbs+hsdb:@term+@rn+@rel+513-37-1
   3. http://toxnet.nlm.nih.gov/cgi-bin/sis/search/r?dbs+hsdb:@term+@rn+@rel+513-37-1
   4. http://www.ncbi.nlm.nih.gov/entrez/query.fcgi?cmd=Retrieve&db=pubmed&dopt=Abstract&list_uids=2205893
   5. http://toxnet.nlm.nih.gov/cgi-bin/sis/search/r?dbs+hsdb:@term+@rn+@rel+513-37-1
   6. http://toxnet.nlm.nih.gov/cgi-bin/sis/search/r?dbs+hsdb:@term+@rn+@rel+513-37-1
   7. http://toxnet.nlm.nih.gov/cgi-bin/sis/search/r?dbs+hsdb:@term+@rn+@rel+513-37-1
   8. http://toxnet.nlm.nih.gov/cgi-bin/sis/search/r?dbs+hsdb:@term+@rn+@rel+513-37-1
   9. http://pubchem.ncbi.nlm.nih.gov/vw3d/vw3d.cgi?cid=10555
