   Color/Form

     * WHITE, CRYSTALLINE POWDER
     * CRYSTALS FROM ISOPROPANOL

   from [1]HSDB

   Melting Point
        202.5 DEG C
   from [2]HSDB

   Octanol/Water Partition Coefficient
        log Kow = 1.90
   from [3]HSDB

   Solubilities

     * PRACTICALLY INSOL IN WATER & CHLOROFORM; SOL IN METHANOL, ACETONE &
       DIMETHYLFORMAMIDE
     * SOL IN AQ SOLN MADE ALKALINE WITH CARBONATES OR HYDROXIDES OF
       ALKALI METALS

   from [4]HSDB

   Spectral Properties

     * MAX ABSORPTION (BORATE BUFFER, PH 9.4): 267 NM, 225 NM; 312 NM (1%,
       1 CM); (H2SO4, 0.1 N): 267 NM, 225 NM; 312 NM (1%, 1 CM)
     * MAX ABSORPTION (METHANOL): 268 NM; 315 NM; 225 NM (A= 501, 1%, 1
       CM)

   from [5]HSDB

   Other Chemical/Physical Properties

     * RATE OF DECOMP INCR WITH INCR IN PH
     * MELTS BETWEEN 207 DEG C & 217 DEG C WITH DECOMP

   from [6]HSDB

   Computed Properties
   Molecular Weight                  439.88183 [g/mol]
   Molecular Formula                 C[11]H[13]ClF[3]N[3]O[4]S[3]
   XLogP3                            2.6
   H-Bond Donor                      2
   H-Bond Acceptor                   11
   Rotatable Bond Count              4
   Exact Mass                        438.970881
   MonoIsotopic Mass                 438.970881
   Topological Polar Surface Area    152
   Heavy Atom Count                  25
   Formal Charge                     0
   Complexity                        692
   Isotope Atom Count                0
   Defined Atom Stereocenter Count   0
   Undefined Atom Stereocenter Count 1
   Defined Bond Stereocenter Count   0
   Undefined Bond Stereocenter Count 0
   Covalently-Bonded Unit Count      1
   Feature 3D Acceptor Count         4
   Feature 3D Donor Count            2
   Feature 3D Cation Count           1
   Feature 3D Ring Count             2
   Effective Rotor Count             5.6
   Conformer Sampling RMSD           0.8
   CID Conformer Count               [7]43

References

   1. http://toxnet.nlm.nih.gov/cgi-bin/sis/search/r?dbs+hsdb:@term+@rn+@rel+346-18-9
   2. http://toxnet.nlm.nih.gov/cgi-bin/sis/search/r?dbs+hsdb:@term+@rn+@rel+346-18-9
   3. http://toxnet.nlm.nih.gov/cgi-bin/sis/search/r?dbs+hsdb:@term+@rn+@rel+346-18-9
   4. http://toxnet.nlm.nih.gov/cgi-bin/sis/search/r?dbs+hsdb:@term+@rn+@rel+346-18-9
   5. http://toxnet.nlm.nih.gov/cgi-bin/sis/search/r?dbs+hsdb:@term+@rn+@rel+346-18-9
   6. http://toxnet.nlm.nih.gov/cgi-bin/sis/search/r?dbs+hsdb:@term+@rn+@rel+346-18-9
   7. http://pubchem.ncbi.nlm.nih.gov/vw3d/vw3d.cgi?cid=4870
