119521
  -OEChem-07051213062D

  7  7  0     0  0  0  0  0  0999 V2000
    2.0000    0.5670    0.0000 Cl  0  0  0  0  0  0  0  0  0  0  0  0
    2.8660   -0.9330    0.0000 Cl  0  0  0  0  0  0  0  0  0  0  0  0
    3.3660    0.9330    0.0000 O   0  0  0  0  0  0  0  0  0  0  0  0
    2.8660    0.0670    0.0000 C   0  0  0  0  0  0  0  0  0  0  0  0
    3.8660    0.0670    0.0000 C   0  0  0  0  0  0  0  0  0  0  0  0
    3.9737   -0.5436    0.0000 H   0  0  0  0  0  0  0  0  0  0  0  0
    4.4486    0.2790    0.0000 H   0  0  0  0  0  0  0  0  0  0  0  0
  1  4  1  0  0  0  0
  2  4  1  0  0  0  0
  3  4  1  0  0  0  0
  3  5  1  0  0  0  0
  4  5  1  0  0  0  0
  5  6  1  0  0  0  0
  5  7  1  0  0  0  0
M  END
> <PUBCHEM_COMPOUND_CID>
119521

> <PUBCHEM_COMPOUND_CANONICALIZED>
1

> <PUBCHEM_CACTVS_COMPLEXITY>
51.6

> <PUBCHEM_CACTVS_HBOND_ACCEPTOR>
1

> <PUBCHEM_CACTVS_HBOND_DONOR>
0

> <PUBCHEM_CACTVS_ROTATABLE_BOND>
0

> <PUBCHEM_CACTVS_SUBSKEYS>
AAADcQBAIAAGAAAAAAAAAAAAEgAAAAAAAAAAAAAAAAAAAAAAAAAAGgIAAAAAAAKggIIAAAAABAAAAAAAAAAAAAAAAAAAAAAAAQAAAAAAAAAAAAAAAAAAAAAAAAAAAAAAAAAAAAAAAAAAAAAAAAAAAAAAAA==

> <PUBCHEM_IUPAC_OPENEYE_NAME>
2,2-dichlorooxirane

> <PUBCHEM_IUPAC_CAS_NAME>
2,2-dichlorooxirane

> <PUBCHEM_IUPAC_NAME>
2,2-dichlorooxirane

> <PUBCHEM_IUPAC_SYSTEMATIC_NAME>
2,2-bis(chloranyl)oxirane

> <PUBCHEM_IUPAC_TRADITIONAL_NAME>
2,2-dichlorooxirane

> <PUBCHEM_IUPAC_INCHI>
InChI=1S/C2H2Cl2O/c3-2(4)1-5-2/h1H2

> <PUBCHEM_IUPAC_INCHIKEY>
DPVAHOUXGQHEOI-UHFFFAOYSA-N

> <PUBCHEM_XLOGP3_AA>
1.1

> <PUBCHEM_EXACT_MASS>
111.94827

> <PUBCHEM_MOLECULAR_FORMULA>
C2H2Cl2O

> <PUBCHEM_MOLECULAR_WEIGHT>
112.94268

> <PUBCHEM_OPENEYE_CAN_SMILES>
C1C(O1)(Cl)Cl

> <PUBCHEM_OPENEYE_ISO_SMILES>
C1C(O1)(Cl)Cl

> <PUBCHEM_CACTVS_TPSA>
12.5

> <PUBCHEM_MONOISOTOPIC_WEIGHT>
111.94827

> <PUBCHEM_TOTAL_CHARGE>
0

> <PUBCHEM_HEAVY_ATOM_COUNT>
5

> <PUBCHEM_ATOM_DEF_STEREO_COUNT>
0

> <PUBCHEM_ATOM_UDEF_STEREO_COUNT>
0

> <PUBCHEM_BOND_DEF_STEREO_COUNT>
0

> <PUBCHEM_BOND_UDEF_STEREO_COUNT>
0

> <PUBCHEM_ISOTOPIC_ATOM_COUNT>
0

> <PUBCHEM_COMPONENT_COUNT>
1

> <PUBCHEM_CACTVS_TAUTO_COUNT>
1

> <PUBCHEM_COORDINATE_TYPE>
1
5
255

$$$$

