11209
  -OEChem-06261205232D

 24 22  0     0  0  0  0  0  0999 V2000
    1.4030    1.0000    0.0000 P   0  5  0  0  0  0  0  0  0  0  0  0
    2.2690    1.5000    0.0000 F   0  0  0  0  0  0  0  0  0  0  0  0
    0.5369    0.5000    0.0000 F   0  0  0  0  0  0  0  0  0  0  0  0
    0.5369    1.5000    0.0000 F   0  0  0  0  0  0  0  0  0  0  0  0
    1.4030    0.0000    0.0000 F   0  0  0  0  0  0  0  0  0  0  0  0
    1.4030    2.0000    0.0000 F   0  0  0  0  0  0  0  0  0  0  0  0
    2.2690    0.5000    0.0000 F   0  0  0  0  0  0  0  0  0  0  0  0
    1.4030    5.4030    0.0000 N   0  3  0  0  0  0  0  0  0  0  0  0
    2.2690    5.9030    0.0000 C   0  0  0  0  0  0  0  0  0  0  0  0
    0.5369    4.9030    0.0000 C   0  0  0  0  0  0  0  0  0  0  0  0
    0.9030    6.2690    0.0000 C   0  0  0  0  0  0  0  0  0  0  0  0
    1.9030    4.5369    0.0000 C   0  0  0  0  0  0  0  0  0  0  0  0
    2.5790    5.3660    0.0000 H   0  0  0  0  0  0  0  0  0  0  0  0
    2.8059    6.2130    0.0000 H   0  0  0  0  0  0  0  0  0  0  0  0
    1.9590    6.4399    0.0000 H   0  0  0  0  0  0  0  0  0  0  0  0
    0.2269    5.4399    0.0000 H   0  0  0  0  0  0  0  0  0  0  0  0
    0.0000    4.5930    0.0000 H   0  0  0  0  0  0  0  0  0  0  0  0
    0.8469    4.3660    0.0000 H   0  0  0  0  0  0  0  0  0  0  0  0
    1.4399    6.5790    0.0000 H   0  0  0  0  0  0  0  0  0  0  0  0
    0.5930    6.8059    0.0000 H   0  0  0  0  0  0  0  0  0  0  0  0
    0.3660    5.9590    0.0000 H   0  0  0  0  0  0  0  0  0  0  0  0
    1.3660    4.2269    0.0000 H   0  0  0  0  0  0  0  0  0  0  0  0
    2.2130    4.0000    0.0000 H   0  0  0  0  0  0  0  0  0  0  0  0
    2.4399    4.8469    0.0000 H   0  0  0  0  0  0  0  0  0  0  0  0
  1  2  1  0  0  0  0
  1  3  1  0  0  0  0
  1  4  1  0  0  0  0
  1  5  1  0  0  0  0
  1  6  1  0  0  0  0
  1  7  1  0  0  0  0
  8  9  1  0  0  0  0
  8 10  1  0  0  0  0
  8 11  1  0  0  0  0
  8 12  1  0  0  0  0
  9 13  1  0  0  0  0
  9 14  1  0  0  0  0
  9 15  1  0  0  0  0
 10 16  1  0  0  0  0
 10 17  1  0  0  0  0
 10 18  1  0  0  0  0
 11 19  1  0  0  0  0
 11 20  1  0  0  0  0
 11 21  1  0  0  0  0
 12 22  1  0  0  0  0
 12 23  1  0  0  0  0
 12 24  1  0  0  0  0
M  CHG  2   1  -1   8   1
M  END
> <PUBCHEM_COMPOUND_CID>
11209

> <PUBCHEM_COMPOUND_CANONICALIZED>
1

> <PUBCHEM_CACTVS_COMPLEXITY>
81.9

> <PUBCHEM_CACTVS_HBOND_ACCEPTOR>
7

> <PUBCHEM_CACTVS_HBOND_DONOR>
0

> <PUBCHEM_CACTVS_ROTATABLE_BOND>
0

> <PUBCHEM_CACTVS_SUBSKEYS>
AAADccBiAcIAAAAAAAAAAAAAAAAAAAAAAAAAAAAAAAAAAAAAAAAAFAAAAAgAAAAAAAQCAAMAAAAAAAAAAAAAAAAAAAAAAAAIAAAAAAAAAAAAAAAAAAAAAAAAAAAAAAAAAAAAAAAAAAAAAAAAAAAAAAAAAA==

> <PUBCHEM_IUPAC_OPENEYE_NAME>
tetramethylammonium hexafluorophosphate

> <PUBCHEM_IUPAC_CAS_NAME>
tetramethylammonium hexafluorophosphate

> <PUBCHEM_IUPAC_NAME>
tetramethylazanium hexafluorophosphate

> <PUBCHEM_IUPAC_SYSTEMATIC_NAME>
tetramethylazanium hexafluorophosphate

> <PUBCHEM_IUPAC_TRADITIONAL_NAME>
tetramethylammonium hexafluorophosphate

> <PUBCHEM_IUPAC_INCHI>
InChI=1S/C4H12N.F6P/c1-5(2,3)4;1-7(2,3,4,5)6/h1-4H3;/q+1;-1

> <PUBCHEM_IUPAC_INCHIKEY>
ZFKULDQWLXAKIM-UHFFFAOYSA-N

> <PUBCHEM_EXACT_MASS>
219.061155

> <PUBCHEM_MOLECULAR_FORMULA>
C4H12F6NP

> <PUBCHEM_MOLECULAR_WEIGHT>
219.108961

> <PUBCHEM_OPENEYE_CAN_SMILES>
C[N+](C)(C)C.F[P-](F)(F)(F)(F)F

> <PUBCHEM_OPENEYE_ISO_SMILES>
C[N+](C)(C)C.F[P-](F)(F)(F)(F)F

> <PUBCHEM_CACTVS_TPSA>
0

> <PUBCHEM_MONOISOTOPIC_WEIGHT>
219.061155

> <PUBCHEM_TOTAL_CHARGE>
0

> <PUBCHEM_HEAVY_ATOM_COUNT>
12

> <PUBCHEM_ATOM_DEF_STEREO_COUNT>
0

> <PUBCHEM_ATOM_UDEF_STEREO_COUNT>
0

> <PUBCHEM_BOND_DEF_STEREO_COUNT>
0

> <PUBCHEM_BOND_UDEF_STEREO_COUNT>
0

> <PUBCHEM_ISOTOPIC_ATOM_COUNT>
0

> <PUBCHEM_COMPONENT_COUNT>
2

> <PUBCHEM_CACTVS_TAUTO_COUNT>
1

> <PUBCHEM_COORDINATE_TYPE>
1
5
255

$$$$

