441760
  -OEChem-07051212562D

103115  0     1  0  0  0  0  0999 V2000
    5.0000    0.0000    0.0000 O   0  0  0  0  0  0  0  0  0  0  0  0
    5.0000  -11.8000    0.0000 N   0  0  3  0  0  0  0  0  0  0  0  0
    8.3333  -15.8000    0.0000 N   0  0  3  0  0  0  0  0  0  0  0  0
    3.5000   -6.0000    0.0000 C   0  0  1  0  0  0  0  0  0  0  0  0
    5.8333   -4.0000    0.0000 C   0  0  1  0  0  0  0  0  0  0  0  0
    0.8333  -10.3500    0.0000 C   0  0  1  0  0  0  0  0  0  0  0  0
    0.7143   -8.3500    0.0000 C   0  0  2  0  0  0  0  0  0  0  0  0
    2.1429   -8.1500    0.0000 C   0  0  3  0  0  0  0  0  0  0  0  0
    5.5000   -6.1500    0.0000 C   0  0  3  0  0  0  0  0  0  0  0  0
    2.5000   -2.3500    0.0000 C   0  0  2  0  0  0  0  0  0  0  0  0
    6.5000   -5.8000    0.0000 C   0  0  1  0  0  0  0  0  0  0  0  0
    4.1667   -9.8000    0.0000 C   0  0  3  0  0  0  0  0  0  0  0  0
    7.5000   -2.1500    0.0000 C   0  0  2  0  0  0  0  0  0  0  0  0
    0.8333   -4.3500    0.0000 C   0  0  2  0  0  0  0  0  0  0  0  0
    2.5000   -4.1500    0.0000 C   0  0  0  0  0  0  0  0  0  0  0  0
    1.0000  -12.3500    0.0000 C   0  0  1  0  0  0  0  0  0  0  0  0
    7.5000   -4.3500    0.0000 C   0  0  2  0  0  0  0  0  0  0  0  0
    0.5000   -6.3500    0.0000 C   0  0  0  0  0  0  0  0  0  0  0  0
    1.5000   -6.1500    0.0000 C   0  0  0  0  0  0  0  0  0  0  0  0
    7.5000   -6.0000    0.0000 C   0  0  0  0  0  0  0  0  0  0  0  0
    4.5000   -6.3500    0.0000 C   0  0  0  0  0  0  0  0  0  0  0  0
    3.5714   -7.8000    0.0000 C   0  0  0  0  0  0  0  0  0  0  0  0
    4.1667   -3.8000    0.0000 C   0  0  0  0  0  0  0  0  0  0  0  0
    0.5000  -14.3500    0.0000 C   0  0  2  0  0  0  0  0  0  0  0  0
    5.8333  -10.0000    0.0000 C   0  0  0  0  0  0  0  0  0  0  0  0
    3.0000  -12.1500    0.0000 C   0  0  0  0  0  0  0  0  0  0  0  0
    8.5000   -6.3500    0.0000 C   0  0  0  0  0  0  0  0  0  0  0  0
    5.0000   -8.0000    0.0000 C   0  0  0  0  0  0  0  0  0  0  0  0
    3.5000  -14.0000    0.0000 C   0  0  0  0  0  0  0  0  0  0  0  0
    9.5000   -6.1500    0.0000 C   0  0  0  0  0  0  0  0  0  0  0  0
    1.6667  -16.3500    0.0000 C   0  0  0  0  0  0  0  0  0  0  0  0
    2.5000  -13.8000    0.0000 C   0  0  0  0  0  0  0  0  0  0  0  0
    5.0000  -16.1500    0.0000 C   0  0  0  0  0  0  0  0  0  0  0  0
    7.8571   -8.1500    0.0000 C   0  0  0  0  0  0  0  0  0  0  0  0
    9.2857   -7.8000    0.0000 C   0  0  0  0  0  0  0  0  0  0  0  0
    4.5000  -14.3500    0.0000 C   0  0  0  0  0  0  0  0  0  0  0  0
    7.5000  -10.3500    0.0000 C   0  0  0  0  0  0  0  0  0  0  0  0
    9.1667  -10.1500    0.0000 C   0  0  0  0  0  0  0  0  0  0  0  0
    7.0000  -12.0000    0.0000 C   0  0  1  0  0  0  0  0  0  0  0  0
    9.0000  -12.3500    0.0000 C   0  0  2  0  0  0  0  0  0  0  0  0
    5.5000  -14.1500    0.0000 C   0  0  0  0  0  0  0  0  0  0  0  0
    6.5000  -13.8000    0.0000 C   0  0  0  0  0  0  0  0  0  0  0  0
    8.5000  -14.3500    0.0000 C   0  0  0  0  0  0  0  0  0  0  0  0
    7.5000  -14.0000    0.0000 C   0  0  0  0  0  0  0  0  0  0  0  0
    5.0000  -18.3500    0.0000 C   0  0  0  0  0  0  0  0  0  0  0  0
    2.5000  -10.1500    0.0000 H   0  0  0  0  0  0  0  0  0  0  0  0
    0.8466   -9.0347    0.0000 H   0  0  0  0  0  0  0  0  0  0  0  0
    4.3473   -7.2151    0.0000 H   0  0  0  0  0  0  0  0  0  0  0  0
    6.4286   -8.3500    0.0000 H   0  0  0  0  0  0  0  0  0  0  0  0
    5.4248   -8.8617    0.0000 H   0  0  0  0  0  0  0  0  0  0  0  0
    9.1667   -4.1500    0.0000 H   0  0  0  0  0  0  0  0  0  0  0  0
    2.5000   -5.8000    0.0000 H   0  0  0  0  0  0  0  0  0  0  0  0
    1.0303   -3.5995    0.0000 H   0  0  0  0  0  0  0  0  0  0  0  0
    4.0215   -3.7651    0.0000 H   0  0  0  0  0  0  0  0  0  0  0  0
    1.5000  -14.1500    0.0000 H   0  0  0  0  0  0  0  0  0  0  0  0
   -0.7970   -5.4663    0.0000 H   0  0  0  0  0  0  0  0  0  0  0  0
    2.0688   -6.3958    0.0000 H   0  0  0  0  0  0  0  0  0  0  0  0
    3.0388   -6.4588    0.0000 H   0  0  0  0  0  0  0  0  0  0  0  0
    0.0167   -6.6628    0.0000 H   0  0  0  0  0  0  0  0  0  0  0  0
    7.5783   -7.5675    0.0000 H   0  0  0  0  0  0  0  0  0  0  0  0
    9.0689   -5.9608    0.0000 H   0  0  0  0  0  0  0  0  0  0  0  0
    3.0789   -7.0160    0.0000 H   0  0  0  0  0  0  0  0  0  0  0  0
    5.5657   -7.5021    0.0000 H   0  0  0  0  0  0  0  0  0  0  0  0
    2.0436   -7.4411    0.0000 H   0  0  0  0  0  0  0  0  0  0  0  0
    2.8174   -9.1765    0.0000 H   0  0  0  0  0  0  0  0  0  0  0  0
    5.7180   -4.0376    0.0000 H   0  0  0  0  0  0  0  0  0  0  0  0
    4.8266   -2.3761    0.0000 H   0  0  0  0  0  0  0  0  0  0  0  0
    6.6778  -11.3229    0.0000 H   0  0  0  0  0  0  0  0  0  0  0  0
    7.0500   -9.0086    0.0000 H   0  0  0  0  0  0  0  0  0  0  0  0
    4.4284  -12.8003    0.0000 H   0  0  0  0  0  0  0  0  0  0  0  0
    3.8340  -10.8205    0.0000 H   0  0  0  0  0  0  0  0  0  0  0  0
    3.8062   -9.0188    0.0000 H   0  0  0  0  0  0  0  0  0  0  0  0
    3.3089  -15.5578    0.0000 H   0  0  0  0  0  0  0  0  0  0  0  0
    4.9687  -14.5532    0.0000 H   0  0  0  0  0  0  0  0  0  0  0  0
   10.9846   -6.6591    0.0000 H   0  0  0  0  0  0  0  0  0  0  0  0
   10.2956   -4.7972    0.0000 H   0  0  0  0  0  0  0  0  0  0  0  0
    0.5403  -17.4429    0.0000 H   0  0  0  0  0  0  0  0  0  0  0  0
    2.9979  -17.1812    0.0000 H   0  0  0  0  0  0  0  0  0  0  0  0
    3.5566  -14.9605    0.0000 H   0  0  0  0  0  0  0  0  0  0  0  0
    1.0030  -13.3286    0.0000 H   0  0  0  0  0  0  0  0  0  0  0  0
    4.4171  -17.6072    0.0000 H   0  0  0  0  0  0  0  0  0  0  0  0
    6.4572  -16.7329    0.0000 H   0  0  0  0  0  0  0  0  0  0  0  0
    5.5829  -14.6928    0.0000 H   0  0  0  0  0  0  0  0  0  0  0  0
   10.1678   -9.0981    0.0000 H   0  0  0  0  0  0  0  0  0  0  0  0
    7.8225   -7.2324    0.0000 H   0  0  0  0  0  0  0  0  0  0  0  0
    2.9599  -14.0480    0.0000 H   0  0  0  0  0  0  0  0  0  0  0  0
    4.1980  -15.8901    0.0000 H   0  0  0  0  0  0  0  0  0  0  0  0
    6.0401  -14.6520    0.0000 H   0  0  0  0  0  0  0  0  0  0  0  0
   10.6237  -10.7333    0.0000 H   0  0  0  0  0  0  0  0  0  0  0  0
   10.1607   -8.9355    0.0000 H   0  0  0  0  0  0  0  0  0  0  0  0
    9.5000  -14.1500    0.0000 H   0  0  0  0  0  0  0  0  0  0  0  0
    3.9785  -13.7651    0.0000 H   0  0  0  0  0  0  0  0  0  0  0  0
    5.6779  -15.7093    0.0000 H   0  0  0  0  0  0  0  0  0  0  0  0
    5.0916  -13.1076    0.0000 H   0  0  0  0  0  0  0  0  0  0  0  0
    5.5591  -15.0561    0.0000 H   0  0  0  0  0  0  0  0  0  0  0  0
    7.3254  -13.3092    0.0000 H   0  0  0  0  0  0  0  0  0  0  0  0
   10.0442  -14.6305    0.0000 H   0  0  0  0  0  0  0  0  0  0  0  0
    5.9774  -14.3806    0.0000 H   0  0  0  0  0  0  0  0  0  0  0  0
    7.8806  -15.5226    0.0000 H   0  0  0  0  0  0  0  0  0  0  0  0
    9.0226  -13.6194    0.0000 H   0  0  0  0  0  0  0  0  0  0  0  0
    4.0464  -17.1035    0.0000 H   0  0  0  0  0  0  0  0  0  0  0  0
    3.7535  -19.3036    0.0000 H   0  0  0  0  0  0  0  0  0  0  0  0
    5.9536  -19.5965    0.0000 H   0  0  0  0  0  0  0  0  0  0  0  0
  1 10  1  0  0  0  0
  1 13  1  0  0  0  0
  2 12  1  0  0  0  0
  2 29  1  0  0  0  0
  2 36  1  0  0  0  0
  3 42  1  0  0  0  0
  3 43  1  0  0  0  0
  3 45  1  0  0  0  0
  4  7  1  0  0  0  0
  4  8  1  0  0  0  0
  4 15  1  0  0  0  0
  4 22  1  0  0  0  0
  5  9  1  0  0  0  0
  5 11  1  0  0  0  0
  5 13  1  0  0  0  0
  5 21  1  0  0  0  0
  6  7  1  0  0  0  0
  6 12  1  0  0  0  0
  6 16  1  0  0  0  0
  6 26  1  0  0  0  0
  7 18  1  0  0  0  0
  7 46  1  0  0  0  0
  8 12  1  0  0  0  0
  8 19  1  0  0  0  0
  8 47  1  0  0  0  0
  9 11  1  0  0  0  0
  9 20  1  0  0  0  0
  9 48  1  0  0  0  0
 10 14  1  0  0  0  0
 10 15  1  0  0  0  0
 10 23  1  0  0  0  0
 11 28  1  0  0  0  0
 11 49  1  0  0  0  0
 12 50  1  0  0  0  0
 13 17  1  0  0  0  0
 13 51  1  0  0  0  0
 14 18  1  0  0  0  0
 14 19  1  0  0  0  0
 14 52  1  0  0  0  0
 15 53  1  0  0  0  0
 15 54  1  0  0  0  0
 16 24  1  0  0  0  0
 16 25  1  0  0  0  0
 16 55  1  0  0  0  0
 17 20  1  0  0  0  0
 17 27  1  0  0  0  0
 17 30  1  0  0  0  0
 18 56  1  0  0  0  0
 18 57  1  0  0  0  0
 19 58  1  0  0  0  0
 19 59  1  0  0  0  0
 20 60  1  0  0  0  0
 20 61  1  0  0  0  0
 21 23  1  0  0  0  0
 21 62  1  0  0  0  0
 21 63  1  0  0  0  0
 22 25  1  0  0  0  0
 22 64  1  0  0  0  0
 22 65  1  0  0  0  0
 23 66  1  0  0  0  0
 23 67  1  0  0  0  0
 24 29  1  0  0  0  0
 24 31  1  0  0  0  0
 24 33  1  0  0  0  0
 25 68  1  0  0  0  0
 25 69  1  0  0  0  0
 26 32  1  0  0  0  0
 26 70  1  0  0  0  0
 26 71  1  0  0  0  0
 27 28  2  0  0  0  0
 27 34  1  0  0  0  0
 28 72  1  0  0  0  0
 29 73  1  0  0  0  0
 29 74  1  0  0  0  0
 30 35  1  0  0  0  0
 30 75  1  0  0  0  0
 30 76  1  0  0  0  0
 31 32  1  0  0  0  0
 31 77  1  0  0  0  0
 31 78  1  0  0  0  0
 32 79  1  0  0  0  0
 32 80  1  0  0  0  0
 33 81  1  0  0  0  0
 33 82  1  0  0  0  0
 33 83  1  0  0  0  0
 34 37  2  0  0  0  0
 34 38  1  0  0  0  0
 35 37  1  0  0  0  0
 35 84  1  0  0  0  0
 35 85  1  0  0  0  0
 36 86  1  0  0  0  0
 36 87  1  0  0  0  0
 36 88  1  0  0  0  0
 37 39  1  0  0  0  0
 38 40  1  0  0  0  0
 38 89  1  0  0  0  0
 38 90  1  0  0  0  0
 39 41  1  0  0  0  0
 39 42  1  0  0  0  0
 39 44  1  0  0  0  0
 40 41  1  0  0  0  0
 40 43  1  0  0  0  0
 40 91  1  0  0  0  0
 41 92  1  0  0  0  0
 41 93  1  0  0  0  0
 42 94  1  0  0  0  0
 42 95  1  0  0  0  0
 43 96  1  0  0  0  0
 43 97  1  0  0  0  0
 44 98  1  0  0  0  0
 44 99  1  0  0  0  0
 44100  1  0  0  0  0
 45101  1  0  0  0  0
 45102  1  0  0  0  0
 45103  1  0  0  0  0
M  END
> <PUBCHEM_COMPOUND_CID>
441760

> <PUBCHEM_COMPOUND_CANONICALIZED>
1

> <PUBCHEM_CACTVS_COMPLEXITY>
1550

> <PUBCHEM_CACTVS_HBOND_ACCEPTOR>
3

> <PUBCHEM_CACTVS_HBOND_DONOR>
0

> <PUBCHEM_CACTVS_ROTATABLE_BOND>
0

> <PUBCHEM_CACTVS_SUBSKEYS>
AAADcfB/IAAAAAAAAAAAAAAAGAAAAYAAAAA8eNGDBgwWIFjAAAAAHgAAAAAAD3zhgAYCAAMABACAAiBCAAAAAAAgAAAACAAIAAgIAAIAgAAGAAAEwACIgAOQ0PMPgAAAAAAAAADAAAYAADAAAaAADQAAAA==

> <PUBCHEM_IUPAC_INCHI>
InChI=1S/C42H58N2O/c1-36-8-5-9-42-32(36)7-11-39-21-40(25(16-33(39)42)15-30(39)34(42)44(4)23-36)12-13-41-29-17-28-26-14-24-18-37(2,22-43(3)20-24)27(26)6-10-38(28,19-31(29)41)35(41)45-40/h17,24-25,29-35H,5-16,18-23H2,1-4H3/t24-,25+,29-,30?,31?,32-,33-,34?,35+,36+,37+,38-,39-,40+,41-,42+/m1/s1

> <PUBCHEM_IUPAC_INCHIKEY>
MIQIFBIWUBAPTB-WNRLEAPDSA-N

> <PUBCHEM_XLOGP3_AA>
6.5

> <PUBCHEM_EXACT_MASS>
606.454914

> <PUBCHEM_MOLECULAR_FORMULA>
C42H58N2O

> <PUBCHEM_MOLECULAR_WEIGHT>
606.92272

> <PUBCHEM_OPENEYE_CAN_SMILES>
CC12CCCC34C1CCC56C3CC(CC5C4N(C2)C)C7(C6)CCC89C1C8C=C2C3=C(CCC2(C1)C9O7)C1(CC(C3)CN(C1)C)C

> <PUBCHEM_OPENEYE_ISO_SMILES>
C[C@@]12CCC[C@]34[C@@H]1CC[C@]56[C@H]3C[C@H](CC5C4N(C2)C)[C@@]7(C6)CC[C@@]89[C@H]1C8C[C@]2([C@@H]9O7)CCC3=C(C2=C1)C[C@@H]1C[C@]3(CN(C1)C)C

> <PUBCHEM_CACTVS_TPSA>
15.7

> <PUBCHEM_MONOISOTOPIC_WEIGHT>
606.454914

> <PUBCHEM_TOTAL_CHARGE>
0

> <PUBCHEM_HEAVY_ATOM_COUNT>
45

> <PUBCHEM_ATOM_DEF_STEREO_COUNT>
13

> <PUBCHEM_ATOM_UDEF_STEREO_COUNT>
3

> <PUBCHEM_BOND_DEF_STEREO_COUNT>
0

> <PUBCHEM_BOND_UDEF_STEREO_COUNT>
0

> <PUBCHEM_ISOTOPIC_ATOM_COUNT>
0

> <PUBCHEM_COMPONENT_COUNT>
1

> <PUBCHEM_CACTVS_TAUTO_COUNT>
1

> <PUBCHEM_COORDINATE_TYPE>
1
5
255

> <PUBCHEM_BONDANNOTATIONS>
12  2  3
8  19  3
9  20  3

$$$$

