412
  -OEChem-07051212512D

 23 24  0     1  0  0  0  0  0999 V2000
    2.5896    1.3184    0.0000 N   0  0  0  0  0  0  0  0  0  0  0  0
    4.2647   -1.7694    0.0000 N   0  0  0  0  0  0  0  0  0  0  0  0
    3.3987    0.7306    0.0000 C   0  0  3  0  0  0  0  0  0  0  0  0
    4.2077    1.3184    0.0000 C   0  0  0  0  0  0  0  0  0  0  0  0
    3.8987    2.2694    0.0000 C   0  0  0  0  0  0  0  0  0  0  0  0
    2.8987    2.2694    0.0000 C   0  0  0  0  0  0  0  0  0  0  0  0
    3.3987   -0.2694    0.0000 C   0  0  0  0  0  0  0  0  0  0  0  0
    2.5326   -0.7694    0.0000 C   0  0  0  0  0  0  0  0  0  0  0  0
    4.2647   -0.7694    0.0000 C   0  0  0  0  0  0  0  0  0  0  0  0
    2.5326   -1.7694    0.0000 C   0  0  0  0  0  0  0  0  0  0  0  0
    3.3987   -2.2694    0.0000 C   0  0  0  0  0  0  0  0  0  0  0  0
    3.9511    0.4491    0.0000 H   0  0  0  0  0  0  0  0  0  0  0  0
    4.5177    0.7814    0.0000 H   0  0  0  0  0  0  0  0  0  0  0  0
    4.7741    1.5705    0.0000 H   0  0  0  0  0  0  0  0  0  0  0  0
    4.5051    2.3983    0.0000 H   0  0  0  0  0  0  0  0  0  0  0  0
    3.8339    2.8860    0.0000 H   0  0  0  0  0  0  0  0  0  0  0  0
    2.9635    2.8860    0.0000 H   0  0  0  0  0  0  0  0  0  0  0  0
    2.2922    2.3983    0.0000 H   0  0  0  0  0  0  0  0  0  0  0  0
    2.0000    1.1268    0.0000 H   0  0  0  0  0  0  0  0  0  0  0  0
    1.9957   -0.4594    0.0000 H   0  0  0  0  0  0  0  0  0  0  0  0
    4.8016   -0.4594    0.0000 H   0  0  0  0  0  0  0  0  0  0  0  0
    1.9957   -2.0794    0.0000 H   0  0  0  0  0  0  0  0  0  0  0  0
    3.3987   -2.8894    0.0000 H   0  0  0  0  0  0  0  0  0  0  0  0
  1  3  1  0  0  0  0
  1  6  1  0  0  0  0
  1 19  1  0  0  0  0
  2  9  1  0  0  0  0
  2 11  2  0  0  0  0
  3  4  1  0  0  0  0
  3  7  1  0  0  0  0
  3 12  1  0  0  0  0
  4  5  1  0  0  0  0
  4 13  1  0  0  0  0
  4 14  1  0  0  0  0
  5  6  1  0  0  0  0
  5 15  1  0  0  0  0
  5 16  1  0  0  0  0
  6 17  1  0  0  0  0
  6 18  1  0  0  0  0
  7  8  1  0  0  0  0
  7  9  2  0  0  0  0
  8 10  2  0  0  0  0
  8 20  1  0  0  0  0
  9 21  1  0  0  0  0
 10 11  1  0  0  0  0
 10 22  1  0  0  0  0
 11 23  1  0  0  0  0
M  END
> <PUBCHEM_COMPOUND_CID>
412

> <PUBCHEM_COMPOUND_CANONICALIZED>
1

> <PUBCHEM_CACTVS_COMPLEXITY>
125

> <PUBCHEM_CACTVS_HBOND_ACCEPTOR>
2

> <PUBCHEM_CACTVS_HBOND_DONOR>
1

> <PUBCHEM_CACTVS_ROTATABLE_BOND>
1

> <PUBCHEM_CACTVS_SUBSKEYS>
AAADccBzAAAAAAAAAAAAAAAAAAAAAWAAAAAsAAAAAAAAAAABgAAAHAAQAAAADCjBGgQ8gJLIEACgAjBnRACCgCAxAiAI2KA4ZJgIIOLA0ZGEIAhgkADIyAcQgIAOAAAAAAAAAAAAAAAAAAAAAAAAAAAAAA==

> <PUBCHEM_IUPAC_OPENEYE_NAME>
3-pyrrolidin-2-ylpyridine

> <PUBCHEM_IUPAC_CAS_NAME>
3-(2-pyrrolidinyl)pyridine

> <PUBCHEM_IUPAC_NAME>
3-pyrrolidin-2-ylpyridine

> <PUBCHEM_IUPAC_SYSTEMATIC_NAME>
3-pyrrolidin-2-ylpyridine

> <PUBCHEM_IUPAC_TRADITIONAL_NAME>
3-pyrrolidin-2-ylpyridine

> <PUBCHEM_IUPAC_INCHI>
InChI=1S/C9H12N2/c1-3-8(7-10-5-1)9-4-2-6-11-9/h1,3,5,7,9,11H,2,4,6H2

> <PUBCHEM_IUPAC_INCHIKEY>
MYKUKUCHPMASKF-UHFFFAOYSA-N

> <PUBCHEM_XLOGP3>
0.2

> <PUBCHEM_EXACT_MASS>
148.100048

> <PUBCHEM_MOLECULAR_FORMULA>
C9H12N2

> <PUBCHEM_MOLECULAR_WEIGHT>
148.20498

> <PUBCHEM_OPENEYE_CAN_SMILES>
C1CC(NC1)C2=CN=CC=C2

> <PUBCHEM_OPENEYE_ISO_SMILES>
C1CC(NC1)C2=CN=CC=C2

> <PUBCHEM_CACTVS_TPSA>
24.9

> <PUBCHEM_MONOISOTOPIC_WEIGHT>
148.100048

> <PUBCHEM_TOTAL_CHARGE>
0

> <PUBCHEM_HEAVY_ATOM_COUNT>
11

> <PUBCHEM_ATOM_DEF_STEREO_COUNT>
0

> <PUBCHEM_ATOM_UDEF_STEREO_COUNT>
1

> <PUBCHEM_BOND_DEF_STEREO_COUNT>
0

> <PUBCHEM_BOND_UDEF_STEREO_COUNT>
0

> <PUBCHEM_ISOTOPIC_ATOM_COUNT>
0

> <PUBCHEM_COMPONENT_COUNT>
1

> <PUBCHEM_CACTVS_TAUTO_COUNT>
1

> <PUBCHEM_COORDINATE_TYPE>
1
5
255

> <PUBCHEM_BONDANNOTATIONS>
10  11  8
2  11  8
2  9  8
3  7  3
7  8  8
7  9  8
8  10  8

$$$$

