   Color/Form

     * LIQUEFIES ON LOSS OF ITS WATER OF CRYSTALLIZATION
     * Crystalline solid

   from [1]HSDB

   Odor
        Odorless
   from [2]HSDB

   Taste
        Slightly bitter
   from [3]HSDB

   Melting Point
        49.5-53 deg C
   from [4]HSDB

   Octanol/Water Partition Coefficient
        log Kow = 0.63
   from [5]HSDB

   Solubilities

     * 1 in 25 parts water
     * 1 in 1 parts alcohol
     * Slightly soluble in benzene, carbon tetrachloride; very slightly
       soluble in ether and acetone
     * Soluble in chloroform, dioxane and glycols and insoluble in carbon
       tetrachloride and carbon disulfide.
     * In water, 40,000 ppm @ 20 deg C

   from [6]HSDB

   Spectral Properties
        Intense mass spectral peaks: 69 m/z, 147 m/z, 175 m/z, 211 m/z,
   260 m/z
   from [7]HSDB

   Other Chemical/Physical Properties

     * Fine, white, crystalline powder; odorless or almost odorless;
       slightly bitter taste /Monohydrate/
     * MP: 41-45 deg C; MW: 279.10. Solubility: 40 g/l in water; slightly
       sol in alcohol, benzene, ethylene glycol, dioxane, carbon
       tetrachloride; sparingly sol in ether and acetone /Monohydrate/
     * Darkens on exposure to light. Hydrolysis occurs at temperatures
       above 30 deg C, with removal of chlorine atoms.
     * Sensitive to oxidation, moisture, and light.

   from [8]HSDB

   Computed Properties
   Molecular Weight                  279.101242 [g/mol]
   Molecular Formula                 C[7]H[17]Cl[2]N[2]O[3]P
   H-Bond Donor                      2
   H-Bond Acceptor                   5
   Rotatable Bond Count              5
   Tautomer Count                    2
   Exact Mass                        278.035384
   MonoIsotopic Mass                 278.035384
   Topological Polar Surface Area    42.6
   Heavy Atom Count                  15
   Formal Charge                     0
   Complexity                        212
   Isotope Atom Count                0
   Defined Atom Stereocenter Count   0
   Undefined Atom Stereocenter Count 1
   Defined Bond Stereocenter Count   0
   Undefined Bond Stereocenter Count 0
   Covalently-Bonded Unit Count      2

References

   1. http://toxnet.nlm.nih.gov/cgi-bin/sis/search/r?dbs+hsdb:@term+@rn+@rel+50-18-0
   2. http://toxnet.nlm.nih.gov/cgi-bin/sis/search/r?dbs+hsdb:@term+@rn+@rel+50-18-0
   3. http://toxnet.nlm.nih.gov/cgi-bin/sis/search/r?dbs+hsdb:@term+@rn+@rel+50-18-0
   4. http://toxnet.nlm.nih.gov/cgi-bin/sis/search/r?dbs+hsdb:@term+@rn+@rel+50-18-0
   5. http://toxnet.nlm.nih.gov/cgi-bin/sis/search/r?dbs+hsdb:@term+@rn+@rel+50-18-0
   6. http://toxnet.nlm.nih.gov/cgi-bin/sis/search/r?dbs+hsdb:@term+@rn+@rel+50-18-0
   7. http://toxnet.nlm.nih.gov/cgi-bin/sis/search/r?dbs+hsdb:@term+@rn+@rel+50-18-0
   8. http://toxnet.nlm.nih.gov/cgi-bin/sis/search/r?dbs+hsdb:@term+@rn+@rel+50-18-0
