6852
  -OEChem-06261201322D

 35 38  0     0  0  0  0  0  0999 V2000
   11.3149   -0.6293    0.0000 O   0  0  0  0  0  0  0  0  0  0  0  0
    4.5274    1.4148    0.0000 N   0  0  0  0  0  0  0  0  0  0  0  0
    7.3991   -1.4458    0.0000 N   0  0  0  0  0  0  0  0  0  0  0  0
    5.0274   -0.1241    0.0000 C   0  0  0  0  0  0  0  0  0  0  0  0
    4.0274   -0.1241    0.0000 C   0  0  0  0  0  0  0  0  0  0  0  0
    5.3364    0.8270    0.0000 C   0  0  0  0  0  0  0  0  0  0  0  0
    3.7183    0.8270    0.0000 C   0  0  0  0  0  0  0  0  0  0  0  0
    5.7123   -0.9088    0.0000 C   0  0  0  0  0  0  0  0  0  0  0  0
    6.7328   -0.7001    0.0000 C   0  0  0  0  0  0  0  0  0  0  0  0
    6.3518    1.0592    0.0000 C   0  0  0  0  0  0  0  0  0  0  0  0
    3.3424   -0.9088    0.0000 C   0  0  0  0  0  0  0  0  0  0  0  0
    7.0547    0.2905    0.0000 C   0  0  0  0  0  0  0  0  0  0  0  0
    2.7029    1.0592    0.0000 C   0  0  0  0  0  0  0  0  0  0  0  0
    2.3219   -0.7001    0.0000 C   0  0  0  0  0  0  0  0  0  0  0  0
    2.0000    0.2905    0.0000 C   0  0  0  0  0  0  0  0  0  0  0  0
    8.3780   -1.2417    0.0000 C   0  0  0  0  0  0  0  0  0  0  0  0
    9.0443   -1.9874    0.0000 C   0  0  0  0  0  0  0  0  0  0  0  0
    8.6907   -0.2918    0.0000 C   0  0  0  0  0  0  0  0  0  0  0  0
   10.0232   -1.7833    0.0000 C   0  0  0  0  0  0  0  0  0  0  0  0
    9.6697   -0.0877    0.0000 C   0  0  0  0  0  0  0  0  0  0  0  0
   10.3359   -0.8334    0.0000 C   0  0  0  0  0  0  0  0  0  0  0  0
    4.5274    2.0348    0.0000 H   0  0  0  0  0  0  0  0  0  0  0  0
    5.5139   -1.4962    0.0000 H   0  0  0  0  0  0  0  0  0  0  0  0
    6.5365    1.6510    0.0000 H   0  0  0  0  0  0  0  0  0  0  0  0
    3.5408   -1.4962    0.0000 H   0  0  0  0  0  0  0  0  0  0  0  0
    7.6607    0.4218    0.0000 H   0  0  0  0  0  0  0  0  0  0  0  0
    2.5182    1.6510    0.0000 H   0  0  0  0  0  0  0  0  0  0  0  0
    7.2052   -2.0348    0.0000 H   0  0  0  0  0  0  0  0  0  0  0  0
    1.9088   -1.1625    0.0000 H   0  0  0  0  0  0  0  0  0  0  0  0
    1.3940    0.4218    0.0000 H   0  0  0  0  0  0  0  0  0  0  0  0
    8.8504   -2.5763    0.0000 H   0  0  0  0  0  0  0  0  0  0  0  0
    8.2776    0.1705    0.0000 H   0  0  0  0  0  0  0  0  0  0  0  0
   10.4363   -2.2456    0.0000 H   0  0  0  0  0  0  0  0  0  0  0  0
    9.8635    0.5012    0.0000 H   0  0  0  0  0  0  0  0  0  0  0  0
   11.7279   -1.0916    0.0000 H   0  0  0  0  0  0  0  0  0  0  0  0
  1 21  1  0  0  0  0
  1 35  1  0  0  0  0
  2  6  1  0  0  0  0
  2  7  1  0  0  0  0
  2 22  1  0  0  0  0
  3  9  1  0  0  0  0
  3 16  1  0  0  0  0
  3 28  1  0  0  0  0
  4  5  1  0  0  0  0
  4  6  2  0  0  0  0
  4  8  1  0  0  0  0
  5  7  1  0  0  0  0
  5 11  2  0  0  0  0
  6 10  1  0  0  0  0
  7 13  2  0  0  0  0
  8  9  2  0  0  0  0
  8 23  1  0  0  0  0
  9 12  1  0  0  0  0
 10 12  2  0  0  0  0
 10 24  1  0  0  0  0
 11 14  1  0  0  0  0
 11 25  1  0  0  0  0
 12 26  1  0  0  0  0
 13 15  1  0  0  0  0
 13 27  1  0  0  0  0
 14 15  2  0  0  0  0
 14 29  1  0  0  0  0
 15 30  1  0  0  0  0
 16 17  2  0  0  0  0
 16 18  1  0  0  0  0
 17 19  1  0  0  0  0
 17 31  1  0  0  0  0
 18 20  2  0  0  0  0
 18 32  1  0  0  0  0
 19 21  2  0  0  0  0
 19 33  1  0  0  0  0
 20 21  1  0  0  0  0
 20 34  1  0  0  0  0
M  END
> <PUBCHEM_COMPOUND_CID>
6852

> <PUBCHEM_COMPOUND_CANONICALIZED>
1

> <PUBCHEM_CACTVS_COMPLEXITY>
353

> <PUBCHEM_CACTVS_HBOND_ACCEPTOR>
2

> <PUBCHEM_CACTVS_HBOND_DONOR>
3

> <PUBCHEM_CACTVS_ROTATABLE_BOND>
2

> <PUBCHEM_CACTVS_SUBSKEYS>
AAADccB7IAAAAAAAAAAAAAAAAAAAAWAAAAAwYMAAAAAAAFgB/AAAHgAQCAAADAyBngAwxvLJkgCgAyRiRACCgCAhIiAImSA2bJgIJuLCkZOEcAhk0BHI2AewwMAOgECAQAACAAAAgQCAAAQAAAAAAAAAAA==

> <PUBCHEM_IUPAC_OPENEYE_NAME>
4-(9H-carbazol-3-ylamino)phenol

> <PUBCHEM_IUPAC_CAS_NAME>
4-(9H-carbazol-3-ylamino)phenol

> <PUBCHEM_IUPAC_NAME>
4-(9H-carbazol-3-ylamino)phenol

> <PUBCHEM_IUPAC_SYSTEMATIC_NAME>
4-(9H-carbazol-3-ylamino)phenol

> <PUBCHEM_IUPAC_TRADITIONAL_NAME>
4-(9H-carbazol-3-ylamino)phenol

> <PUBCHEM_IUPAC_INCHI>
InChI=1S/C18H14N2O/c21-14-8-5-12(6-9-14)19-13-7-10-18-16(11-13)15-3-1-2-4-17(15)20-18/h1-11,19-21H

> <PUBCHEM_IUPAC_INCHIKEY>
STRAHSCTRLRZNU-UHFFFAOYSA-N

> <PUBCHEM_XLOGP3>
4.9

> <PUBCHEM_EXACT_MASS>
274.110613

> <PUBCHEM_MOLECULAR_FORMULA>
C18H14N2O

> <PUBCHEM_MOLECULAR_WEIGHT>
274.31656

> <PUBCHEM_OPENEYE_CAN_SMILES>
C1=CC=C2C(=C1)C3=C(N2)C=CC(=C3)NC4=CC=C(C=C4)O

> <PUBCHEM_OPENEYE_ISO_SMILES>
C1=CC=C2C(=C1)C3=C(N2)C=CC(=C3)NC4=CC=C(C=C4)O

> <PUBCHEM_CACTVS_TPSA>
48

> <PUBCHEM_MONOISOTOPIC_WEIGHT>
274.110613

> <PUBCHEM_TOTAL_CHARGE>
0

> <PUBCHEM_HEAVY_ATOM_COUNT>
21

> <PUBCHEM_ATOM_DEF_STEREO_COUNT>
0

> <PUBCHEM_ATOM_UDEF_STEREO_COUNT>
0

> <PUBCHEM_BOND_DEF_STEREO_COUNT>
0

> <PUBCHEM_BOND_UDEF_STEREO_COUNT>
0

> <PUBCHEM_ISOTOPIC_ATOM_COUNT>
0

> <PUBCHEM_COMPONENT_COUNT>
1

> <PUBCHEM_CACTVS_TAUTO_COUNT>
4

> <PUBCHEM_COORDINATE_TYPE>
1
5
255

> <PUBCHEM_BONDANNOTATIONS>
10  12  8
11  14  8
13  15  8
14  15  8
16  17  8
16  18  8
17  19  8
18  20  8
19  21  8
2  6  8
2  7  8
20  21  8
4  5  8
4  6  8
4  8  8
5  11  8
5  7  8
6  10  8
7  13  8
8  9  8
9  12  8

$$$$

