   Color/Form

     * White prisms from toluene or water
     * White crystals

   from [1]HSDB

   Boiling Point
        164 deg C @ 11 mm Hg
   from [2]HSDB

   Melting Point
        122-123 deg C
   from [3]HSDB

   Density/Specific Gravity
        1.195 g/cu cm
   from [4]HSDB

   Dissociation Constants
        pK1= 4.37 at 20 deg C; pK2= 9.815 at 20 deg C
   from [5]HSDB

   Octanol/Water Partition Coefficient
        log Kow= 0.21 at pH 5.6
   from [6]HSDB

   Solubilities

     * Freely sol in alc, ether, amyl alc, and hot water; sol in 40 parts
       cold water; slightly sol in benzene; very slightly sol in petroleum
       ether
     * 26,000 mg/l at 0 deg C
     * Slightly soluble in benzene, toluene, chloroform; soluble in cold
       water; very soluble in acetonitrile, diethyl ether, ethyl acetate,
       acetone, ethanol, dimethyl sulfoxide, hot water
     * In water, 27,000 mg/l at 20 deg C

   from [7]HSDB

   Spectral Properties

     * IR: 8088 (Sadtler Research Laboratories IR Grating Collection)
     * UV: 3509 (Sadtler Research Laboratories Spectral Collection)
     * NMR: 10220 (Sadtler Research Laboratories Spectral Collection)
     * MASS: 46 (Aldermaston, Eight Peak Index of Mass Spectra, UK)
     * Intense mass spectral peaks: 80 m/z, 109 m/z

   from [8]HSDB

   Vapor Pressure
        LOW VOLATILITY
   from [9]HSDB

   Other Chemical/Physical Properties

     * MASS: 4024 (National Bureau of Standards EPA-NIH Mass Spectra Data
       Base, NSRDS-NBS-63) /3-Aminophenol hydrobromide/
     * Heat of formation= -194.1 kJ/mol

   from [10]HSDB

   Computed Properties
   Molecular Weight                  109.12588 [g/mol]
   Molecular Formula                 C[6]H[7]NO
   XLogP3                            0.2
   H-Bond Donor                      2
   H-Bond Acceptor                   2
   Rotatable Bond Count              0
   Tautomer Count                    9
   Exact Mass                        109.052764
   MonoIsotopic Mass                 109.052764
   Topological Polar Surface Area    46.2
   Heavy Atom Count                  8
   Formal Charge                     0
   Complexity                        74.9
   Isotope Atom Count                0
   Defined Atom Stereocenter Count   0
   Undefined Atom Stereocenter Count 0
   Defined Bond Stereocenter Count   0
   Undefined Bond Stereocenter Count 0
   Covalently-Bonded Unit Count      1
   Feature 3D Donor Count            2
   Feature 3D Cation Count           1
   Feature 3D Ring Count             1
   Effective Rotor Count             0
   Conformer Sampling RMSD           0.4
   CID Conformer Count               [11]1

References

   1. http://toxnet.nlm.nih.gov/cgi-bin/sis/search/r?dbs+hsdb:@term+@rn+@rel+591-27-5
   2. http://toxnet.nlm.nih.gov/cgi-bin/sis/search/r?dbs+hsdb:@term+@rn+@rel+591-27-5
   3. http://toxnet.nlm.nih.gov/cgi-bin/sis/search/r?dbs+hsdb:@term+@rn+@rel+591-27-5
   4. http://toxnet.nlm.nih.gov/cgi-bin/sis/search/r?dbs+hsdb:@term+@rn+@rel+591-27-5
   5. http://toxnet.nlm.nih.gov/cgi-bin/sis/search/r?dbs+hsdb:@term+@rn+@rel+591-27-5
   6. http://toxnet.nlm.nih.gov/cgi-bin/sis/search/r?dbs+hsdb:@term+@rn+@rel+591-27-5
   7. http://toxnet.nlm.nih.gov/cgi-bin/sis/search/r?dbs+hsdb:@term+@rn+@rel+591-27-5
   8. http://toxnet.nlm.nih.gov/cgi-bin/sis/search/r?dbs+hsdb:@term+@rn+@rel+591-27-5
   9. http://toxnet.nlm.nih.gov/cgi-bin/sis/search/r?dbs+hsdb:@term+@rn+@rel+591-27-5
  10. http://toxnet.nlm.nih.gov/cgi-bin/sis/search/r?dbs+hsdb:@term+@rn+@rel+591-27-5
  11. http://pubchem.ncbi.nlm.nih.gov/vw3d/vw3d.cgi?cid=11568
