47205013
  -OEChem-06241222572D

 27 28  0     0  0  0  0  0  0999 V2000
    3.7320    0.6488    0.0000 O   0  0  0  0  0  0  0  0  0  0  0  0
    5.4641    0.6488    0.0000 N   0  0  0  0  0  0  0  0  0  0  0  0
    7.2437    1.7420    0.0000 N   0  0  0  0  0  0  0  0  0  0  0  0
    7.9128    2.4852    0.0000 N   0  0  0  0  0  0  0  0  0  0  0  0
    2.0000   -3.3512    0.0000 N   0  0  0  0  0  0  0  0  0  0  0  0
    5.4641    1.6488    0.0000 C   0  0  0  0  0  0  0  0  0  0  0  0
    6.3301    2.1488    0.0000 C   0  0  0  0  0  0  0  0  0  0  0  0
    4.5981   -0.8512    0.0000 C   0  0  0  0  0  0  0  0  0  0  0  0
    4.5981    0.1488    0.0000 C   0  0  0  0  0  0  0  0  0  0  0  0
    6.4347    3.1433    0.0000 C   0  0  0  0  0  0  0  0  0  0  0  0
    3.7320   -1.3512    0.0000 C   0  0  0  0  0  0  0  0  0  0  0  0
    5.4641   -1.3512    0.0000 C   0  0  0  0  0  0  0  0  0  0  0  0
    3.7320   -2.3512    0.0000 C   0  0  0  0  0  0  0  0  0  0  0  0
    7.4128    3.3512    0.0000 C   0  0  0  0  0  0  0  0  0  0  0  0
    5.4641   -2.3512    0.0000 C   0  0  0  0  0  0  0  0  0  0  0  0
    4.5981   -2.8512    0.0000 C   0  0  0  0  0  0  0  0  0  0  0  0
    2.8660   -2.8512    0.0000 C   0  0  0  0  0  0  0  0  0  0  0  0
    5.2520    2.2314    0.0000 H   0  0  0  0  0  0  0  0  0  0  0  0
    4.8535    1.5411    0.0000 H   0  0  0  0  0  0  0  0  0  0  0  0
    6.0010    0.3388    0.0000 H   0  0  0  0  0  0  0  0  0  0  0  0
    5.9739    3.5582    0.0000 H   0  0  0  0  0  0  0  0  0  0  0  0
    7.3726    1.1356    0.0000 H   0  0  0  0  0  0  0  0  0  0  0  0
    3.1951   -1.0412    0.0000 H   0  0  0  0  0  0  0  0  0  0  0  0
    6.0010   -1.0412    0.0000 H   0  0  0  0  0  0  0  0  0  0  0  0
    7.6650    3.9176    0.0000 H   0  0  0  0  0  0  0  0  0  0  0  0
    6.0010   -2.6612    0.0000 H   0  0  0  0  0  0  0  0  0  0  0  0
    4.5981   -3.4712    0.0000 H   0  0  0  0  0  0  0  0  0  0  0  0
  1  9  2  0  0  0  0
  2  6  1  0  0  0  0
  2  9  1  0  0  0  0
  2 20  1  0  0  0  0
  3  4  1  0  0  0  0
  3  7  1  0  0  0  0
  3 22  1  0  0  0  0
  4 14  2  0  0  0  0
  5 17  3  0  0  0  0
  6  7  1  0  0  0  0
  6 18  1  0  0  0  0
  6 19  1  0  0  0  0
  7 10  2  0  0  0  0
  8  9  1  0  0  0  0
  8 11  1  0  0  0  0
  8 12  2  0  0  0  0
 10 14  1  0  0  0  0
 10 21  1  0  0  0  0
 11 13  2  0  0  0  0
 11 23  1  0  0  0  0
 12 15  1  0  0  0  0
 12 24  1  0  0  0  0
 13 16  1  0  0  0  0
 13 17  1  0  0  0  0
 14 25  1  0  0  0  0
 15 16  2  0  0  0  0
 15 26  1  0  0  0  0
 16 27  1  0  0  0  0
M  END
> <PUBCHEM_COMPOUND_CID>
47205013

> <PUBCHEM_COMPOUND_CANONICALIZED>
1

> <PUBCHEM_CACTVS_COMPLEXITY>
322

> <PUBCHEM_CACTVS_HBOND_ACCEPTOR>
3

> <PUBCHEM_CACTVS_HBOND_DONOR>
2

> <PUBCHEM_CACTVS_ROTATABLE_BOND>
3

> <PUBCHEM_CACTVS_SUBSKEYS>
AAADccBzoAAAAAAAAAAAAAAAAAAAAWAAAAAwAAAAAAAAAAABwAAAHgAYAAAADAjBngQ8gJLjAAC6BzV3UACyBAAkggAYuaE4ZNgI4LKA1dGUpQhgngCIyY8YiECOAAACAAAAAAAAAAQAAAAAAAAAAAAAAA==

> <PUBCHEM_IUPAC_OPENEYE_NAME>
3-cyano-N-(1H-pyrazol-5-ylmethyl)benzamide

> <PUBCHEM_IUPAC_CAS_NAME>
3-cyano-N-(1H-pyrazol-5-ylmethyl)benzamide

> <PUBCHEM_IUPAC_NAME>
3-cyano-N-(1H-pyrazol-5-ylmethyl)benzamide

> <PUBCHEM_IUPAC_SYSTEMATIC_NAME>
3-cyano-N-(1H-pyrazol-5-ylmethyl)benzamide

> <PUBCHEM_IUPAC_TRADITIONAL_NAME>
3-cyano-N-(1H-pyrazol-5-ylmethyl)benzamide

> <PUBCHEM_IUPAC_INCHI>
InChI=1S/C12H10N4O/c13-7-9-2-1-3-10(6-9)12(17)14-8-11-4-5-15-16-11/h1-6H,8H2,(H,14,17)(H,15,16)

> <PUBCHEM_IUPAC_INCHIKEY>
OECWKDZHXNXSTH-UHFFFAOYSA-N

> <PUBCHEM_XLOGP3_AA>
0.7

> <PUBCHEM_EXACT_MASS>
226.085461

> <PUBCHEM_MOLECULAR_FORMULA>
C12H10N4O

> <PUBCHEM_MOLECULAR_WEIGHT>
226.234

> <PUBCHEM_OPENEYE_CAN_SMILES>
C1=CC(=CC(=C1)C(=O)NCC2=CC=NN2)C#N

> <PUBCHEM_OPENEYE_ISO_SMILES>
C1=CC(=CC(=C1)C(=O)NCC2=CC=NN2)C#N

> <PUBCHEM_CACTVS_TPSA>
81.6

> <PUBCHEM_MONOISOTOPIC_WEIGHT>
226.085461

> <PUBCHEM_TOTAL_CHARGE>
0

> <PUBCHEM_HEAVY_ATOM_COUNT>
17

> <PUBCHEM_ATOM_DEF_STEREO_COUNT>
0

> <PUBCHEM_ATOM_UDEF_STEREO_COUNT>
0

> <PUBCHEM_BOND_DEF_STEREO_COUNT>
0

> <PUBCHEM_BOND_UDEF_STEREO_COUNT>
0

> <PUBCHEM_ISOTOPIC_ATOM_COUNT>
0

> <PUBCHEM_COMPONENT_COUNT>
1

> <PUBCHEM_CACTVS_TAUTO_COUNT>
4

> <PUBCHEM_COORDINATE_TYPE>
1
5
255

> <PUBCHEM_BONDANNOTATIONS>
10  14  8
11  13  8
12  15  8
13  16  8
15  16  8
3  4  8
3  7  8
4  14  8
7  10  8
8  11  8
8  12  8

$$$$

