   Color/Form

     * Crystals
     * White
     * Colorless

   from [1]HSDB

   Odor
        Garlic
   from [2]HSDB

   Melting Point
        47.5-48 deg C
   from [3]HSDB

   Corrosivity
        Non-corrosive
   from [4]HSDB

   Density/Specific Gravity
        1.338 g/mL at 20 deg C
   from [5]HSDB

   Octanol/Water Partition Coefficient
        log Kow = 4.38
   from [6]HSDB

   Solubilities

     * Sol in ketones, alcohols and most aromatic solvents; practically
       insol in aliphatic hydrocarbons
     * In ethyl acetate, acetone, acetonitrile, benzene, chloroform,
       dichloromethane, dioxane, methyl ethyl ketone, toluene, xylene c.
       1000, hexane 11 (all in g/L, 20 deg C)
     * In water, 3.05mg/L at 25 deg C

   from [7]HSDB

   Spectral Properties
        Intense mass spectral peaks: 182 m/z (100%), 121 m/z (58%), 97 m/z
   (33%), 184 m/z (31%)
   from [8]HSDB

   Vapor Pressure
        4.54X10-8 mm Hg at 25 deg C (est)
   from [9]HSDB

   Other Chemical/Physical Properties

     * Hydrolyzed by strong alkalis and acids
     * Henry's Law constant = 3.94X10-7 atm-cu m/mole at 25 deg C (est)
     * Hydroxyl radical reaction rate constant = 2.38X10-10 cu
       cm/molec-sec at 25 deg C (est)

   from [10]HSDB

   Computed Properties
   Molecular Weight                  367.808562 [g/mol]
   Molecular Formula                 C[12]H[15]ClNO[4]PS[2]
   XLogP3                            4.4
   H-Bond Donor                      0
   H-Bond Acceptor                   6
   Rotatable Bond Count              7
   Exact Mass                        366.986864
   MonoIsotopic Mass                 366.986864
   Topological Polar Surface Area    105
   Heavy Atom Count                  21
   Formal Charge                     0
   Complexity                        418
   Isotope Atom Count                0
   Defined Atom Stereocenter Count   0
   Undefined Atom Stereocenter Count 0
   Defined Bond Stereocenter Count   0
   Undefined Bond Stereocenter Count 0
   Covalently-Bonded Unit Count      1
   Feature 3D Acceptor Count         1
   Feature 3D Ring Count             2
   Effective Rotor Count             7
   Conformer Sampling RMSD           0.8
   CID Conformer Count               [11]43

References

   1. http://toxnet.nlm.nih.gov/cgi-bin/sis/search/r?dbs+hsdb:@term+@rn+@rel+2310-17-0
   2. http://toxnet.nlm.nih.gov/cgi-bin/sis/search/r?dbs+hsdb:@term+@rn+@rel+2310-17-0
   3. http://toxnet.nlm.nih.gov/cgi-bin/sis/search/r?dbs+hsdb:@term+@rn+@rel+2310-17-0
   4. http://toxnet.nlm.nih.gov/cgi-bin/sis/search/r?dbs+hsdb:@term+@rn+@rel+2310-17-0
   5. http://toxnet.nlm.nih.gov/cgi-bin/sis/search/r?dbs+hsdb:@term+@rn+@rel+2310-17-0
   6. http://toxnet.nlm.nih.gov/cgi-bin/sis/search/r?dbs+hsdb:@term+@rn+@rel+2310-17-0
   7. http://toxnet.nlm.nih.gov/cgi-bin/sis/search/r?dbs+hsdb:@term+@rn+@rel+2310-17-0
   8. http://toxnet.nlm.nih.gov/cgi-bin/sis/search/r?dbs+hsdb:@term+@rn+@rel+2310-17-0
   9. http://toxnet.nlm.nih.gov/cgi-bin/sis/search/r?dbs+hsdb:@term+@rn+@rel+2310-17-0
  10. http://toxnet.nlm.nih.gov/cgi-bin/sis/search/r?dbs+hsdb:@term+@rn+@rel+2310-17-0
  11. http://pubchem.ncbi.nlm.nih.gov/vw3d/vw3d.cgi?cid=4793
