   Color/Form
        Monoclinic rods from water
   from [1]HSDB

   Melting Point
        220-225 deg C
   from [2]HSDB

   pH
        pH of 0.05 molar solution 3.9; pH of 2% aqueous solution 3.3
   from [3]HSDB

   Solubilities
        One gram dissolves in about 40 ml water. Soluble in alcohol and
   chloroform. Practically insoluble in ether.
   from [4]HSDB

   Spectral Properties

     * Max UV absorption (ethanol): 249-250, 280-282, 311 nm.(LOG E= 4.69,
       3.80, 3.82)
     * Intense mass spectral peaks: 154 m/z, 324 m/z, 339 m/z

   from [5]HSDB

   Other Chemical/Physical Properties

     * Triboluminescent, orthorhombic prisms from alcohol + ether, mp 147
       deg C at 11 mm pressure and 2 mm distance; density @ 20 deg C/4 deg
       C. pK (25 deg C) 8.07. UV max (ethanol): 239, 278-280, 314, 327 nm
       (LogE 4.83, 3.86, 3.60, 3.67). Almost insoluble in water. Soluble
       in hot benzene, glacial acetic acid, acetone; slightly soluble in
       chloroform, carbon tetrachloride, petroleum ether. Optimal pH for
       storage of papaverine solutions: 2.0-2.8. /Papaverine/
     * Light yellow, crystalline powder; slightly soluble in water or
       alcohol; freely soluble in chloroform, acetone. /Nitrate/
     * Solubility in water, 35 mg/l @ 17 deg C /Papaverine/
     * MASS: 58779 (NIST/EPA/MSDC Mass Spectral Database, 1990 Version);
       MASS: 242 (Aldermaston, Eight Peak Index of Mass Spectra, U.K.);
       IR: 6647 (DMS); UV: 3-783 (Philip et al., Organic Electronic
       Spectral Data, John Wiley & Sons, New York) /Papaverine/

   from [6]HSDB

   Computed Properties
   Molecular Weight                  339.38504 [g/mol]
   Molecular Formula                 C[20]H[21]NO[4]
   XLogP3-AA                         3.9
   H-Bond Donor                      0
   H-Bond Acceptor                   5
   Rotatable Bond Count              6
   Exact Mass                        339.147058
   MonoIsotopic Mass                 339.147058
   Topological Polar Surface Area    49.8
   Heavy Atom Count                  25
   Formal Charge                     0
   Complexity                        407
   Isotope Atom Count                0
   Defined Atom Stereocenter Count   0
   Undefined Atom Stereocenter Count 0
   Defined Bond Stereocenter Count   0
   Undefined Bond Stereocenter Count 0
   Covalently-Bonded Unit Count      1
   Feature 3D Acceptor Count         5
   Feature 3D Ring Count             3
   Effective Rotor Count             6
   Conformer Sampling RMSD           0.8
   CID Conformer Count               [7]54

References

   1. http://toxnet.nlm.nih.gov/cgi-bin/sis/search/r?dbs+hsdb:@term+@rn+@rel+61-25-6
   2. http://toxnet.nlm.nih.gov/cgi-bin/sis/search/r?dbs+hsdb:@term+@rn+@rel+61-25-6
   3. http://toxnet.nlm.nih.gov/cgi-bin/sis/search/r?dbs+hsdb:@term+@rn+@rel+61-25-6
   4. http://toxnet.nlm.nih.gov/cgi-bin/sis/search/r?dbs+hsdb:@term+@rn+@rel+61-25-6
   5. http://toxnet.nlm.nih.gov/cgi-bin/sis/search/r?dbs+hsdb:@term+@rn+@rel+61-25-6
   6. http://toxnet.nlm.nih.gov/cgi-bin/sis/search/r?dbs+hsdb:@term+@rn+@rel+61-25-6
   7. http://pubchem.ncbi.nlm.nih.gov/vw3d/vw3d.cgi?cid=4680
