13045
  -OEChem-06261207412D

 18 18  0     0  0  0  0  0  0999 V2000
    3.3100    1.9330    0.0000 F   0  0  0  0  0  0  0  0  0  0  0  0
    4.0760    1.5758    0.0000 F   0  0  0  0  0  0  0  0  0  0  0  0
    2.3100    0.9330    0.0000 F   0  0  0  0  0  0  0  0  0  0  0  0
    5.3100   -0.0670    0.0000 F   0  0  0  0  0  0  0  0  0  0  0  0
    4.3100   -1.0670    0.0000 F   0  0  0  0  0  0  0  0  0  0  0  0
    4.9528    0.6991    0.0000 F   0  0  0  0  0  0  0  0  0  0  0  0
    2.3100   -0.0670    0.0000 O   0  0  0  0  0  0  0  0  0  0  0  0
    3.3100   -1.0670    0.0000 N   0  0  0  0  0  0  0  0  0  0  0  0
    3.3100   -0.0670    0.0000 C   0  0  0  0  0  0  0  0  0  0  0  0
    2.8100   -1.9330    0.0000 C   0  0  0  0  0  0  0  0  0  0  0  0
    3.8100   -1.9330    0.0000 C   0  0  0  0  0  0  0  0  0  0  0  0
    3.3100    0.9330    0.0000 C   0  0  0  0  0  0  0  0  0  0  0  0
    4.3100   -0.0670    0.0000 C   0  0  0  0  0  0  0  0  0  0  0  0
    3.9177   -2.5436    0.0000 H   0  0  0  0  0  0  0  0  0  0  0  0
    4.3926   -1.7210    0.0000 H   0  0  0  0  0  0  0  0  0  0  0  0
    2.2274   -1.7210    0.0000 H   0  0  0  0  0  0  0  0  0  0  0  0
    2.7023   -2.5436    0.0000 H   0  0  0  0  0  0  0  0  0  0  0  0
    2.0000   -0.6039    0.0000 H   0  0  0  0  0  0  0  0  0  0  0  0
  1 12  1  0  0  0  0
  2 12  1  0  0  0  0
  3 12  1  0  0  0  0
  4 13  1  0  0  0  0
  5 13  1  0  0  0  0
  6 13  1  0  0  0  0
  7  9  1  0  0  0  0
  7 18  1  0  0  0  0
  8  9  1  0  0  0  0
  8 10  1  0  0  0  0
  8 11  1  0  0  0  0
  9 12  1  0  0  0  0
  9 13  1  0  0  0  0
 10 11  1  0  0  0  0
 10 16  1  0  0  0  0
 10 17  1  0  0  0  0
 11 14  1  0  0  0  0
 11 15  1  0  0  0  0
M  END
> <PUBCHEM_COMPOUND_CID>
13045

> <PUBCHEM_COMPOUND_CANONICALIZED>
1

> <PUBCHEM_CACTVS_COMPLEXITY>
190

> <PUBCHEM_CACTVS_HBOND_ACCEPTOR>
8

> <PUBCHEM_CACTVS_HBOND_DONOR>
1

> <PUBCHEM_CACTVS_ROTATABLE_BOND>
1

> <PUBCHEM_CACTVS_SUBSKEYS>
AAADcYBiIcAAAAAAAAAAAAAAFgAAAAAAAAAAAAAAAAAAAAAAAAAAHwAACAAACAzBgBQAAAMAAgAAAAAAAAAAAAAAAAAAAAAIAAAAAAAAAAAAAAAAAACAAAAAAAAAAAAAAAAAAAAAAAAAAAAAAAAAAAAAAA==

> <PUBCHEM_IUPAC_OPENEYE_NAME>
2-(aziridin-1-yl)-1,1,1,3,3,3-hexafluoro-propan-2-ol

> <PUBCHEM_IUPAC_CAS_NAME>
2-(1-aziridinyl)-1,1,1,3,3,3-hexafluoro-2-propanol

> <PUBCHEM_IUPAC_NAME>
2-(aziridin-1-yl)-1,1,1,3,3,3-hexafluoropropan-2-ol

> <PUBCHEM_IUPAC_SYSTEMATIC_NAME>
2-(aziridin-1-yl)-1,1,1,3,3,3-hexakis(fluoranyl)propan-2-ol

> <PUBCHEM_IUPAC_TRADITIONAL_NAME>
2-ethylenimino-1,1,1,3,3,3-hexafluoro-propan-2-ol

> <PUBCHEM_IUPAC_INCHI>
InChI=1S/C5H5F6NO/c6-4(7,8)3(13,5(9,10)11)12-1-2-12/h13H,1-2H2

> <PUBCHEM_IUPAC_INCHIKEY>
UWDWPQFDNOSJEP-UHFFFAOYSA-N

> <PUBCHEM_XLOGP3_AA>
1.6

> <PUBCHEM_EXACT_MASS>
209.027533

> <PUBCHEM_MOLECULAR_FORMULA>
C5H5F6NO

> <PUBCHEM_MOLECULAR_WEIGHT>
209.089719

> <PUBCHEM_OPENEYE_CAN_SMILES>
C1CN1C(C(F)(F)F)(C(F)(F)F)O

> <PUBCHEM_OPENEYE_ISO_SMILES>
C1CN1C(C(F)(F)F)(C(F)(F)F)O

> <PUBCHEM_CACTVS_TPSA>
23.2

> <PUBCHEM_MONOISOTOPIC_WEIGHT>
209.027533

> <PUBCHEM_TOTAL_CHARGE>
0

> <PUBCHEM_HEAVY_ATOM_COUNT>
13

> <PUBCHEM_ATOM_DEF_STEREO_COUNT>
0

> <PUBCHEM_ATOM_UDEF_STEREO_COUNT>
0

> <PUBCHEM_BOND_DEF_STEREO_COUNT>
0

> <PUBCHEM_BOND_UDEF_STEREO_COUNT>
0

> <PUBCHEM_ISOTOPIC_ATOM_COUNT>
0

> <PUBCHEM_COMPONENT_COUNT>
1

> <PUBCHEM_CACTVS_TAUTO_COUNT>
1

> <PUBCHEM_COORDINATE_TYPE>
1
5
255

$$$$

