11577
  -OEChem-06261205512D

 25 24  0     0  0  0  0  0  0999 V2000
    7.1962   -0.4400    0.0000 O   0  0  0  0  0  0  0  0  0  0  0  0
    6.3301    1.0600    0.0000 O   0  0  0  0  0  0  0  0  0  0  0  0
    5.4641   -0.4400    0.0000 N   0  0  0  0  0  0  0  0  0  0  0  0
    3.7320   -0.4400    0.0000 C   0  0  0  0  0  0  0  0  0  0  0  0
    2.8660    0.0600    0.0000 C   0  0  0  0  0  0  0  0  0  0  0  0
    4.5981    0.0600    0.0000 C   0  0  0  0  0  0  0  0  0  0  0  0
    2.0000   -0.4400    0.0000 C   0  0  0  0  0  0  0  0  0  0  0  0
    6.3301    0.0600    0.0000 C   0  0  0  0  0  0  0  0  0  0  0  0
    8.0622    0.0600    0.0000 C   0  0  0  0  0  0  0  0  0  0  0  0
    8.9282   -0.4400    0.0000 C   0  0  0  0  0  0  0  0  0  0  0  0
    3.3335   -0.9149    0.0000 H   0  0  0  0  0  0  0  0  0  0  0  0
    4.1306   -0.9149    0.0000 H   0  0  0  0  0  0  0  0  0  0  0  0
    3.2646    0.5349    0.0000 H   0  0  0  0  0  0  0  0  0  0  0  0
    2.4675    0.5349    0.0000 H   0  0  0  0  0  0  0  0  0  0  0  0
    4.9966    0.5349    0.0000 H   0  0  0  0  0  0  0  0  0  0  0  0
    4.1996    0.5349    0.0000 H   0  0  0  0  0  0  0  0  0  0  0  0
    1.6900    0.0969    0.0000 H   0  0  0  0  0  0  0  0  0  0  0  0
    1.4631   -0.7500    0.0000 H   0  0  0  0  0  0  0  0  0  0  0  0
    2.3100   -0.9769    0.0000 H   0  0  0  0  0  0  0  0  0  0  0  0
    5.4641   -1.0600    0.0000 H   0  0  0  0  0  0  0  0  0  0  0  0
    8.4607    0.5349    0.0000 H   0  0  0  0  0  0  0  0  0  0  0  0
    7.6636    0.5349    0.0000 H   0  0  0  0  0  0  0  0  0  0  0  0
    8.6182   -0.9769    0.0000 H   0  0  0  0  0  0  0  0  0  0  0  0
    9.4651   -0.7500    0.0000 H   0  0  0  0  0  0  0  0  0  0  0  0
    9.2382    0.0969    0.0000 H   0  0  0  0  0  0  0  0  0  0  0  0
  1  8  1  0  0  0  0
  1  9  1  0  0  0  0
  2  8  2  0  0  0  0
  3  6  1  0  0  0  0
  3  8  1  0  0  0  0
  3 20  1  0  0  0  0
  4  5  1  0  0  0  0
  4  6  1  0  0  0  0
  4 11  1  0  0  0  0
  4 12  1  0  0  0  0
  5  7  1  0  0  0  0
  5 13  1  0  0  0  0
  5 14  1  0  0  0  0
  6 15  1  0  0  0  0
  6 16  1  0  0  0  0
  7 17  1  0  0  0  0
  7 18  1  0  0  0  0
  7 19  1  0  0  0  0
  9 10  1  0  0  0  0
  9 21  1  0  0  0  0
  9 22  1  0  0  0  0
 10 23  1  0  0  0  0
 10 24  1  0  0  0  0
 10 25  1  0  0  0  0
M  END
> <PUBCHEM_COMPOUND_CID>
11577

> <PUBCHEM_COMPOUND_CANONICALIZED>
1

> <PUBCHEM_CACTVS_COMPLEXITY>
93.6

> <PUBCHEM_CACTVS_HBOND_ACCEPTOR>
2

> <PUBCHEM_CACTVS_HBOND_DONOR>
1

> <PUBCHEM_CACTVS_ROTATABLE_BOND>
5

> <PUBCHEM_CACTVS_SUBSKEYS>
AAADccBiMAAAAAAAAAAAAAAAAAAAAAAAAAAAAAAAAAAAAAAAAAAAHgAQAAAACADhgAYCCALABAAIAAAAGAAAAAAAAAAAAIAIAAEAAAAAgAAMAAAAFgAAAAAAAAAAAAAAAAAAAAAAAAAAAAAAAAAAAAAAAA==

> <PUBCHEM_IUPAC_OPENEYE_NAME>
ethyl N-butylcarbamate

> <PUBCHEM_IUPAC_CAS_NAME>
N-butylcarbamic acid ethyl ester

> <PUBCHEM_IUPAC_NAME>
ethyl N-butylcarbamate

> <PUBCHEM_IUPAC_SYSTEMATIC_NAME>
ethyl N-butylcarbamate

> <PUBCHEM_IUPAC_TRADITIONAL_NAME>
N-butylcarbamic acid ethyl ester

> <PUBCHEM_IUPAC_INCHI>
InChI=1S/C7H15NO2/c1-3-5-6-8-7(9)10-4-2/h3-6H2,1-2H3,(H,8,9)

> <PUBCHEM_IUPAC_INCHIKEY>
BQBKYSPXQYHTIP-UHFFFAOYSA-N

> <PUBCHEM_XLOGP3_AA>
1.6

> <PUBCHEM_EXACT_MASS>
145.110279

> <PUBCHEM_MOLECULAR_FORMULA>
C7H15NO2

> <PUBCHEM_MOLECULAR_WEIGHT>
145.1995

> <PUBCHEM_OPENEYE_CAN_SMILES>
CCCCNC(=O)OCC

> <PUBCHEM_OPENEYE_ISO_SMILES>
CCCCNC(=O)OCC

> <PUBCHEM_CACTVS_TPSA>
38.3

> <PUBCHEM_MONOISOTOPIC_WEIGHT>
145.110279

> <PUBCHEM_TOTAL_CHARGE>
0

> <PUBCHEM_HEAVY_ATOM_COUNT>
10

> <PUBCHEM_ATOM_DEF_STEREO_COUNT>
0

> <PUBCHEM_ATOM_UDEF_STEREO_COUNT>
0

> <PUBCHEM_BOND_DEF_STEREO_COUNT>
0

> <PUBCHEM_BOND_UDEF_STEREO_COUNT>
0

> <PUBCHEM_ISOTOPIC_ATOM_COUNT>
0

> <PUBCHEM_COMPONENT_COUNT>
1

> <PUBCHEM_CACTVS_TAUTO_COUNT>
2

> <PUBCHEM_COORDINATE_TYPE>
1
5
255

$$$$

