17396050
  -OEChem-06241222542D

 57 60  0     1  0  0  0  0  0999 V2000
    2.0000   -1.0121    0.0000 O   0  0  0  0  0  0  0  0  0  0  0  0
   10.7263   -0.0362    0.0000 O   0  0  0  0  0  0  0  0  0  0  0  0
    4.5981    1.4879    0.0000 O   0  0  0  0  0  0  0  0  0  0  0  0
   10.7263    2.0121    0.0000 O   0  0  0  0  0  0  0  0  0  0  0  0
    6.3301    0.4879    0.0000 N   0  0  3  0  0  0  0  0  0  0  0  0
    3.7320   -0.0121    0.0000 N   0  0  0  0  0  0  0  0  0  0  0  0
    7.1962   -0.0121    0.0000 C   0  0  3  0  0  0  0  0  0  0  0  0
    6.3301    1.4879    0.0000 C   0  0  0  0  0  0  0  0  0  0  0  0
    8.0622    0.4879    0.0000 C   0  0  0  0  0  0  0  0  0  0  0  0
    7.1962    1.9879    0.0000 C   0  0  0  0  0  0  0  0  0  0  0  0
    8.0622    1.4879    0.0000 C   0  0  0  0  0  0  0  0  0  0  0  0
    5.4641   -0.0121    0.0000 C   0  0  0  0  0  0  0  0  0  0  0  0
    7.1962   -1.0121    0.0000 C   0  0  0  0  0  0  0  0  0  0  0  0
    8.9561   -0.0467    0.0000 C   0  0  0  0  0  0  0  0  0  0  0  0
    4.5981    0.4879    0.0000 C   0  0  0  0  0  0  0  0  0  0  0  0
    8.9561    2.0226    0.0000 C   0  0  0  0  0  0  0  0  0  0  0  0
    9.8622    0.4671    0.0000 C   0  0  0  0  0  0  0  0  0  0  0  0
    3.7320   -1.0121    0.0000 C   0  0  0  0  0  0  0  0  0  0  0  0
    2.8660    0.4879    0.0000 C   0  0  0  0  0  0  0  0  0  0  0  0
    9.8622    1.5087    0.0000 C   0  0  0  0  0  0  0  0  0  0  0  0
    6.3301   -1.5121    0.0000 C   0  0  0  0  0  0  0  0  0  0  0  0
    8.0622   -1.5121    0.0000 C   0  0  0  0  0  0  0  0  0  0  0  0
    2.8660   -1.5121    0.0000 C   0  0  0  0  0  0  0  0  0  0  0  0
    2.0000   -0.0121    0.0000 C   0  0  0  0  0  0  0  0  0  0  0  0
    6.3301   -2.5121    0.0000 C   0  0  0  0  0  0  0  0  0  0  0  0
    8.0622   -2.5121    0.0000 C   0  0  0  0  0  0  0  0  0  0  0  0
    7.1962   -3.0121    0.0000 C   0  0  0  0  0  0  0  0  0  0  0  0
   11.5942    0.4604    0.0000 C   0  0  0  0  0  0  0  0  0  0  0  0
   10.7224    3.0121    0.0000 C   0  0  0  0  0  0  0  0  0  0  0  0
    6.6592   -0.3221    0.0000 H   0  0  0  0  0  0  0  0  0  0  0  0
    6.1181    2.0705    0.0000 H   0  0  0  0  0  0  0  0  0  0  0  0
    5.7196    1.3803    0.0000 H   0  0  0  0  0  0  0  0  0  0  0  0
    7.5947    2.4629    0.0000 H   0  0  0  0  0  0  0  0  0  0  0  0
    6.7976    2.4629    0.0000 H   0  0  0  0  0  0  0  0  0  0  0  0
    5.0656   -0.4870    0.0000 H   0  0  0  0  0  0  0  0  0  0  0  0
    5.8626   -0.4870    0.0000 H   0  0  0  0  0  0  0  0  0  0  0  0
    8.9490   -0.6667    0.0000 H   0  0  0  0  0  0  0  0  0  0  0  0
    8.9490    2.6426    0.0000 H   0  0  0  0  0  0  0  0  0  0  0  0
    3.9441   -1.5947    0.0000 H   0  0  0  0  0  0  0  0  0  0  0  0
    4.3426   -0.9044    0.0000 H   0  0  0  0  0  0  0  0  0  0  0  0
    3.2646    0.9629    0.0000 H   0  0  0  0  0  0  0  0  0  0  0  0
    2.4675    0.9629    0.0000 H   0  0  0  0  0  0  0  0  0  0  0  0
    5.7932   -1.2021    0.0000 H   0  0  0  0  0  0  0  0  0  0  0  0
    8.5991   -1.2021    0.0000 H   0  0  0  0  0  0  0  0  0  0  0  0
    1.7880    0.5705    0.0000 H   0  0  0  0  0  0  0  0  0  0  0  0
    1.3894   -0.1197    0.0000 H   0  0  0  0  0  0  0  0  0  0  0  0
    2.4675   -1.9870    0.0000 H   0  0  0  0  0  0  0  0  0  0  0  0
    3.2646   -1.9870    0.0000 H   0  0  0  0  0  0  0  0  0  0  0  0
    5.7932   -2.8221    0.0000 H   0  0  0  0  0  0  0  0  0  0  0  0
    8.5991   -2.8221    0.0000 H   0  0  0  0  0  0  0  0  0  0  0  0
    7.1962   -3.6321    0.0000 H   0  0  0  0  0  0  0  0  0  0  0  0
   11.9022   -0.0777    0.0000 H   0  0  0  0  0  0  0  0  0  0  0  0
   12.1324    0.7684    0.0000 H   0  0  0  0  0  0  0  0  0  0  0  0
   11.2863    0.9986    0.0000 H   0  0  0  0  0  0  0  0  0  0  0  0
   11.3424    3.0145    0.0000 H   0  0  0  0  0  0  0  0  0  0  0  0
   10.7200    3.6321    0.0000 H   0  0  0  0  0  0  0  0  0  0  0  0
   10.1024    3.0097    0.0000 H   0  0  0  0  0  0  0  0  0  0  0  0
  1 23  1  0  0  0  0
  1 24  1  0  0  0  0
  2 17  1  0  0  0  0
  2 28  1  0  0  0  0
  3 15  2  0  0  0  0
  4 20  1  0  0  0  0
  4 29  1  0  0  0  0
  5  7  1  0  0  0  0
  5  8  1  0  0  0  0
  5 12  1  0  0  0  0
  6 15  1  0  0  0  0
  6 18  1  0  0  0  0
  6 19  1  0  0  0  0
  7  9  1  0  0  0  0
  7 13  1  0  0  0  0
  7 30  1  0  0  0  0
  8 10  1  0  0  0  0
  8 31  1  0  0  0  0
  8 32  1  0  0  0  0
  9 11  1  0  0  0  0
  9 14  2  0  0  0  0
 10 11  1  0  0  0  0
 10 33  1  0  0  0  0
 10 34  1  0  0  0  0
 11 16  2  0  0  0  0
 12 15  1  0  0  0  0
 12 35  1  0  0  0  0
 12 36  1  0  0  0  0
 13 21  2  0  0  0  0
 13 22  1  0  0  0  0
 14 17  1  0  0  0  0
 14 37  1  0  0  0  0
 16 20  1  0  0  0  0
 16 38  1  0  0  0  0
 17 20  2  0  0  0  0
 18 23  1  0  0  0  0
 18 39  1  0  0  0  0
 18 40  1  0  0  0  0
 19 24  1  0  0  0  0
 19 41  1  0  0  0  0
 19 42  1  0  0  0  0
 21 25  1  0  0  0  0
 21 43  1  0  0  0  0
 22 26  2  0  0  0  0
 22 44  1  0  0  0  0
 23 47  1  0  0  0  0
 23 48  1  0  0  0  0
 24 45  1  0  0  0  0
 24 46  1  0  0  0  0
 25 27  2  0  0  0  0
 25 49  1  0  0  0  0
 26 27  1  0  0  0  0
 26 50  1  0  0  0  0
 27 51  1  0  0  0  0
 28 52  1  0  0  0  0
 28 53  1  0  0  0  0
 28 54  1  0  0  0  0
 29 55  1  0  0  0  0
 29 56  1  0  0  0  0
 29 57  1  0  0  0  0
M  END
> <PUBCHEM_COMPOUND_CID>
17396050

> <PUBCHEM_COMPOUND_CANONICALIZED>
1

> <PUBCHEM_CACTVS_COMPLEXITY>
533

> <PUBCHEM_CACTVS_HBOND_ACCEPTOR>
5

> <PUBCHEM_CACTVS_HBOND_DONOR>
0

> <PUBCHEM_CACTVS_ROTATABLE_BOND>
5

> <PUBCHEM_CACTVS_SUBSKEYS>
AAADceB7OAAAAAAAAAAAAAAAAAAAAAAAAAA8eIEAAAAAAACxQAAAHgAAAAAADCzhmAYyBoMABACIAiFSEACCCAAgIAAIiACOjIgPZiKEsTuXMCpkxhGaqAew0PMOoAABAAAQQABAAAIAACCAAAAAAAAAAA==

> <PUBCHEM_IUPAC_OPENEYE_NAME>
2-(6,7-dimethoxy-1-phenyl-3,4-dihydro-1H-isoquinolin-2-yl)-1-morpholino-ethanone

> <PUBCHEM_IUPAC_CAS_NAME>
2-(6,7-dimethoxy-1-phenyl-3,4-dihydro-1H-isoquinolin-2-yl)-1-(4-morpholinyl)ethanone

> <PUBCHEM_IUPAC_NAME>
2-(6,7-dimethoxy-1-phenyl-3,4-dihydro-1H-isoquinolin-2-yl)-1-morpholin-4-ylethanone

> <PUBCHEM_IUPAC_SYSTEMATIC_NAME>
2-(6,7-dimethoxy-1-phenyl-3,4-dihydro-1H-isoquinolin-2-yl)-1-morpholin-4-yl-ethanone

> <PUBCHEM_IUPAC_TRADITIONAL_NAME>
2-(6,7-dimethoxy-1-phenyl-3,4-dihydro-1H-isoquinolin-2-yl)-1-morpholino-ethanone

> <PUBCHEM_IUPAC_INCHI>
InChI=1S/C23H28N2O4/c1-27-20-14-18-8-9-25(16-22(26)24-10-12-29-13-11-24)23(17-6-4-3-5-7-17)19(18)15-21(20)28-2/h3-7,14-15,23H,8-13,16H2,1-2H3

> <PUBCHEM_IUPAC_INCHIKEY>
LUDKYSZNSYRYLO-UHFFFAOYSA-N

> <PUBCHEM_XLOGP3_AA>
2.6

> <PUBCHEM_EXACT_MASS>
396.204907

> <PUBCHEM_MOLECULAR_FORMULA>
C23H28N2O4

> <PUBCHEM_MOLECULAR_WEIGHT>
396.47942

> <PUBCHEM_OPENEYE_CAN_SMILES>
COC1=C(C=C2C(N(CCC2=C1)CC(=O)N3CCOCC3)C4=CC=CC=C4)OC

> <PUBCHEM_OPENEYE_ISO_SMILES>
COC1=C(C=C2C(N(CCC2=C1)CC(=O)N3CCOCC3)C4=CC=CC=C4)OC

> <PUBCHEM_CACTVS_TPSA>
51.2

> <PUBCHEM_MONOISOTOPIC_WEIGHT>
396.204907

> <PUBCHEM_TOTAL_CHARGE>
0

> <PUBCHEM_HEAVY_ATOM_COUNT>
29

> <PUBCHEM_ATOM_DEF_STEREO_COUNT>
0

> <PUBCHEM_ATOM_UDEF_STEREO_COUNT>
1

> <PUBCHEM_BOND_DEF_STEREO_COUNT>
0

> <PUBCHEM_BOND_UDEF_STEREO_COUNT>
0

> <PUBCHEM_ISOTOPIC_ATOM_COUNT>
0

> <PUBCHEM_COMPONENT_COUNT>
1

> <PUBCHEM_CACTVS_TAUTO_COUNT>
1

> <PUBCHEM_COORDINATE_TYPE>
1
5
255

> <PUBCHEM_BONDANNOTATIONS>
11  16  8
13  21  8
13  22  8
14  17  8
16  20  8
17  20  8
21  25  8
22  26  8
25  27  8
26  27  8
7  13  3
9  11  8
9  14  8

$$$$

