169232
  -OEChem-07051213042D

 21 21  0     1  0  0  0  0  0999 V2000
    3.2601   -1.1739    0.0000 O   0  0  0  0  0  0  0  0  0  0  0  0
    2.0000    0.0861    0.0000 O   0  0  0  0  0  0  0  0  0  0  0  0
    3.7601    0.3649    0.0000 C   0  0  3  0  0  0  0  0  0  0  0  0
    4.5691   -0.2229    0.0000 C   0  0  0  0  0  0  0  0  0  0  0  0
    4.3479    1.1739    0.0000 C   0  0  0  0  0  0  0  0  0  0  0  0
    4.2601   -1.1739    0.0000 C   0  0  0  0  0  0  0  0  0  0  0  0
    2.9511   -0.2229    0.0000 C   0  0  0  0  0  0  0  0  0  0  0  0
    3.1723    1.1739    0.0000 C   0  0  0  0  0  0  0  0  0  0  0  0
    5.3424    1.0694    0.0000 C   0  0  0  0  0  0  0  0  0  0  0  0
    5.1355   -0.4750    0.0000 H   0  0  0  0  0  0  0  0  0  0  0  0
    4.8791    0.3141    0.0000 H   0  0  0  0  0  0  0  0  0  0  0  0
    4.5188    1.7699    0.0000 H   0  0  0  0  0  0  0  0  0  0  0  0
    3.7906    1.4457    0.0000 H   0  0  0  0  0  0  0  0  0  0  0  0
    4.1953   -1.7905    0.0000 H   0  0  0  0  0  0  0  0  0  0  0  0
    4.8665   -1.3028    0.0000 H   0  0  0  0  0  0  0  0  0  0  0  0
    3.6739    1.5384    0.0000 H   0  0  0  0  0  0  0  0  0  0  0  0
    2.8079    1.6755    0.0000 H   0  0  0  0  0  0  0  0  0  0  0  0
    2.6707    0.8095    0.0000 H   0  0  0  0  0  0  0  0  0  0  0  0
    5.2776    0.4528    0.0000 H   0  0  0  0  0  0  0  0  0  0  0  0
    5.9590    1.0046    0.0000 H   0  0  0  0  0  0  0  0  0  0  0  0
    5.4072    1.6860    0.0000 H   0  0  0  0  0  0  0  0  0  0  0  0
  1  6  1  0  0  0  0
  1  7  1  0  0  0  0
  2  7  2  0  0  0  0
  3  4  1  0  0  0  0
  3  5  1  0  0  0  0
  3  7  1  0  0  0  0
  3  8  1  0  0  0  0
  4  6  1  0  0  0  0
  4 10  1  0  0  0  0
  4 11  1  0  0  0  0
  5  9  1  0  0  0  0
  5 12  1  0  0  0  0
  5 13  1  0  0  0  0
  6 14  1  0  0  0  0
  6 15  1  0  0  0  0
  8 16  1  0  0  0  0
  8 17  1  0  0  0  0
  8 18  1  0  0  0  0
  9 19  1  0  0  0  0
  9 20  1  0  0  0  0
  9 21  1  0  0  0  0
M  END
> <PUBCHEM_COMPOUND_CID>
169232

> <PUBCHEM_COMPOUND_CANONICALIZED>
1

> <PUBCHEM_CACTVS_COMPLEXITY>
131

> <PUBCHEM_CACTVS_HBOND_ACCEPTOR>
2

> <PUBCHEM_CACTVS_HBOND_DONOR>
0

> <PUBCHEM_CACTVS_ROTATABLE_BOND>
1

> <PUBCHEM_CACTVS_SUBSKEYS>
AAADccBgMAAAAAAAAAAAAAAAAAAAASAAAAAAAAAAAAAAAAAAAAAAGgAAAAAADgCggAICCAAABAAIAACQCAAAAAAAAAAAAAEAAAAAABIAAAACAAAEAAAAAACCAAALAAAAAAAAAAAAAAAAAAAAAAAAAAAAAA==

> <PUBCHEM_IUPAC_OPENEYE_NAME>
3-ethyl-3-methyl-tetrahydrofuran-2-one

> <PUBCHEM_IUPAC_CAS_NAME>
3-ethyl-3-methyl-2-oxolanone

> <PUBCHEM_IUPAC_NAME>
3-ethyl-3-methyloxolan-2-one

> <PUBCHEM_IUPAC_SYSTEMATIC_NAME>
3-ethyl-3-methyl-oxolan-2-one

> <PUBCHEM_IUPAC_TRADITIONAL_NAME>
3-ethyl-3-methyl-tetrahydrofuran-2-one

> <PUBCHEM_IUPAC_INCHI>
InChI=1S/C7H12O2/c1-3-7(2)4-5-9-6(7)8/h3-5H2,1-2H3

> <PUBCHEM_IUPAC_INCHIKEY>
DRTXQTMTWPIHLI-UHFFFAOYSA-N

> <PUBCHEM_XLOGP3_AA>
1.5

> <PUBCHEM_EXACT_MASS>
128.08373

> <PUBCHEM_MOLECULAR_FORMULA>
C7H12O2

> <PUBCHEM_MOLECULAR_WEIGHT>
128.16898

> <PUBCHEM_OPENEYE_CAN_SMILES>
CCC1(CCOC1=O)C

> <PUBCHEM_OPENEYE_ISO_SMILES>
CCC1(CCOC1=O)C

> <PUBCHEM_CACTVS_TPSA>
26.3

> <PUBCHEM_MONOISOTOPIC_WEIGHT>
128.08373

> <PUBCHEM_TOTAL_CHARGE>
0

> <PUBCHEM_HEAVY_ATOM_COUNT>
9

> <PUBCHEM_ATOM_DEF_STEREO_COUNT>
0

> <PUBCHEM_ATOM_UDEF_STEREO_COUNT>
1

> <PUBCHEM_BOND_DEF_STEREO_COUNT>
0

> <PUBCHEM_BOND_UDEF_STEREO_COUNT>
0

> <PUBCHEM_ISOTOPIC_ATOM_COUNT>
0

> <PUBCHEM_COMPONENT_COUNT>
1

> <PUBCHEM_CACTVS_TAUTO_COUNT>
1

> <PUBCHEM_COORDINATE_TYPE>
1
5
255

> <PUBCHEM_BONDANNOTATIONS>
3  5  3

$$$$

