92421
  -OEChem-07051213122D

 34 35  0     0  0  0  0  0  0999 V2000
    4.7320   -3.0490    0.0000 O   0  0  0  0  0  0  0  0  0  0  0  0
    5.5981   -1.5490    0.0000 O   0  0  0  0  0  0  0  0  0  0  0  0
    2.1340   -1.5490    0.0000 O   0  0  0  0  0  0  0  0  0  0  0  0
    3.8660    2.1830    0.0000 O   0  0  0  0  0  0  0  0  0  0  0  0
    5.3660    1.3170    0.0000 O   0  0  0  0  0  0  0  0  0  0  0  0
    3.0000   -3.0490    0.0000 C   0  0  0  0  0  0  0  0  0  0  0  0
    2.0000   -3.0490    0.0000 C   0  0  0  0  0  0  0  0  0  0  0  0
    2.5000   -3.9151    0.0000 C   0  0  0  0  0  0  0  0  0  0  0  0
    3.8660   -2.5490    0.0000 C   0  0  0  0  0  0  0  0  0  0  0  0
    3.8660   -1.5490    0.0000 C   0  0  0  0  0  0  0  0  0  0  0  0
    3.8660    0.4510    0.0000 C   0  0  0  0  0  0  0  0  0  0  0  0
    4.7320   -0.0490    0.0000 C   0  0  0  0  0  0  0  0  0  0  0  0
    3.0000   -0.0490    0.0000 C   0  0  0  0  0  0  0  0  0  0  0  0
    4.7320   -1.0490    0.0000 C   0  0  0  0  0  0  0  0  0  0  0  0
    3.0000   -1.0490    0.0000 C   0  0  0  0  0  0  0  0  0  0  0  0
    4.3660    1.3170    0.0000 C   0  0  0  0  0  0  0  0  0  0  0  0
    4.3660    3.0490    0.0000 C   0  0  0  0  0  0  0  0  0  0  0  0
    3.8660    3.9151    0.0000 C   0  0  0  0  0  0  0  0  0  0  0  0
    2.8395   -2.4502    0.0000 H   0  0  0  0  0  0  0  0  0  0  0  0
    1.8923   -2.4385    0.0000 H   0  0  0  0  0  0  0  0  0  0  0  0
    1.4174   -3.2611    0.0000 H   0  0  0  0  0  0  0  0  0  0  0  0
    2.0250   -4.3136    0.0000 H   0  0  0  0  0  0  0  0  0  0  0  0
    2.9750   -4.3136    0.0000 H   0  0  0  0  0  0  0  0  0  0  0  0
    3.5560    0.9879    0.0000 H   0  0  0  0  0  0  0  0  0  0  0  0
    5.3426   -0.1567    0.0000 H   0  0  0  0  0  0  0  0  0  0  0  0
    4.9441    0.5336    0.0000 H   0  0  0  0  0  0  0  0  0  0  0  0
    2.7880    0.5336    0.0000 H   0  0  0  0  0  0  0  0  0  0  0  0
    2.3894   -0.1567    0.0000 H   0  0  0  0  0  0  0  0  0  0  0  0
    4.7320   -3.6690    0.0000 H   0  0  0  0  0  0  0  0  0  0  0  0
    4.8410    2.6505    0.0000 H   0  0  0  0  0  0  0  0  0  0  0  0
    4.8410    3.4476    0.0000 H   0  0  0  0  0  0  0  0  0  0  0  0
    4.4030    4.2251    0.0000 H   0  0  0  0  0  0  0  0  0  0  0  0
    3.5560    4.4520    0.0000 H   0  0  0  0  0  0  0  0  0  0  0  0
    3.3291    3.6051    0.0000 H   0  0  0  0  0  0  0  0  0  0  0  0
  1  9  1  0  0  0  0
  1 29  1  0  0  0  0
  2 14  2  0  0  0  0
  3 15  2  0  0  0  0
  4 16  1  0  0  0  0
  4 17  1  0  0  0  0
  5 16  2  0  0  0  0
  6  7  1  0  0  0  0
  6  8  1  0  0  0  0
  6  9  1  0  0  0  0
  6 19  1  0  0  0  0
  7  8  1  0  0  0  0
  7 20  1  0  0  0  0
  7 21  1  0  0  0  0
  8 22  1  0  0  0  0
  8 23  1  0  0  0  0
  9 10  2  0  0  0  0
 10 14  1  0  0  0  0
 10 15  1  0  0  0  0
 11 12  1  0  0  0  0
 11 13  1  0  0  0  0
 11 16  1  0  0  0  0
 11 24  1  0  0  0  0
 12 14  1  0  0  0  0
 12 25  1  0  0  0  0
 12 26  1  0  0  0  0
 13 15  1  0  0  0  0
 13 27  1  0  0  0  0
 13 28  1  0  0  0  0
 17 18  1  0  0  0  0
 17 30  1  0  0  0  0
 17 31  1  0  0  0  0
 18 32  1  0  0  0  0
 18 33  1  0  0  0  0
 18 34  1  0  0  0  0
M  END
> <PUBCHEM_COMPOUND_CID>
92421

> <PUBCHEM_COMPOUND_CANONICALIZED>
1

> <PUBCHEM_CACTVS_COMPLEXITY>
411

> <PUBCHEM_CACTVS_HBOND_ACCEPTOR>
5

> <PUBCHEM_CACTVS_HBOND_DONOR>
1

> <PUBCHEM_CACTVS_ROTATABLE_BOND>
4

> <PUBCHEM_CACTVS_SUBSKEYS>
AAADceBwOAAAAAAAAAAAAAAAGAAAAAAAAAAwAAAAAAAAAAAAAAAAGgAACAAADQSggAICCAAABgCIAoDQCAAAAAAgIAAACAEAAEgAABIIAAACQAAEgAAIAQOLyiCuAAAAAAAAAAAAAAAAAAAAAAAAAAAAAA==

> <PUBCHEM_IUPAC_OPENEYE_NAME>
ethyl 4-[cyclopropyl(hydroxy)methylene]-3,5-dioxo-cyclohexanecarboxylate

> <PUBCHEM_IUPAC_CAS_NAME>
4-[cyclopropyl(hydroxy)methylidene]-3,5-dioxo-1-cyclohexanecarboxylic acid ethyl ester

> <PUBCHEM_IUPAC_NAME>
ethyl 4-[cyclopropyl(hydroxy)methylidene]-3,5-dioxocyclohexane-1-carboxylate

> <PUBCHEM_IUPAC_SYSTEMATIC_NAME>
ethyl 4-[cyclopropyl(oxidanyl)methylidene]-3,5-bis(oxidanylidene)cyclohexane-1-carboxylate

> <PUBCHEM_IUPAC_TRADITIONAL_NAME>
4-[cyclopropyl(hydroxy)methylene]-3,5-diketo-cyclohexanecarboxylic acid ethyl ester

> <PUBCHEM_IUPAC_INCHI>
InChI=1S/C13H16O5/c1-2-18-13(17)8-5-9(14)11(10(15)6-8)12(16)7-3-4-7/h7-8,16H,2-6H2,1H3

> <PUBCHEM_IUPAC_INCHIKEY>
RVKCCVTVZORVGD-UHFFFAOYSA-N

> <PUBCHEM_XLOGP3_AA>
0.9

> <PUBCHEM_EXACT_MASS>
252.099774

> <PUBCHEM_MOLECULAR_FORMULA>
C13H16O5

> <PUBCHEM_MOLECULAR_WEIGHT>
252.26314

> <PUBCHEM_OPENEYE_CAN_SMILES>
CCOC(=O)C1CC(=O)C(=C(C2CC2)O)C(=O)C1

> <PUBCHEM_OPENEYE_ISO_SMILES>
CCOC(=O)C1CC(=O)C(=C(C2CC2)O)C(=O)C1

> <PUBCHEM_CACTVS_TPSA>
80.7

> <PUBCHEM_MONOISOTOPIC_WEIGHT>
252.099774

> <PUBCHEM_TOTAL_CHARGE>
0

> <PUBCHEM_HEAVY_ATOM_COUNT>
18

> <PUBCHEM_ATOM_DEF_STEREO_COUNT>
0

> <PUBCHEM_ATOM_UDEF_STEREO_COUNT>
0

> <PUBCHEM_BOND_DEF_STEREO_COUNT>
0

> <PUBCHEM_BOND_UDEF_STEREO_COUNT>
0

> <PUBCHEM_ISOTOPIC_ATOM_COUNT>
0

> <PUBCHEM_COMPONENT_COUNT>
1

> <PUBCHEM_CACTVS_TAUTO_COUNT>
13

> <PUBCHEM_COORDINATE_TYPE>
1
5
255

$$$$

