   Color/Form
        Fine, white powder
   from [1]HSDB

   Odor
        Liquorice-like odor
   from [2]HSDB

   Melting Point
        159.5-161 deg C
   from [3]HSDB

   Density/Specific Gravity
        1.38 g/cu cm at 20 deg C
   from [4]HSDB

   Octanol/Water Partition Coefficient
        log Kow = 3.76 at 20 deg C
   from [5]HSDB

   pH
        pH = 6.9 at 24.3 deg C
   from [6]HSDB

   Solubilities

     * Solubility in acetone = 55.7 g/L at 25 deg C
     * In water, 0.681 mg/L at 20 deg C

   from [7]HSDB

   Vapor Pressure
        6.6X10-9 mm Hg at 25 deg C /Estimated/
   from [8]HSDB

   Other Chemical/Physical Properties

     * Henry's Law constant = 2.0X10-0 atm-cu m/mol at 25 deg C
       /Estimated/
     * Hydroxyl radical reaction rate constant = 1.1X10-11 cu cm/molecule
       sec at 25 deg C /Estimated/

   from [9]HSDB

   Computed Properties
   Molecular Weight                  336.64134 [g/mol]
   Molecular Formula                 C[14]H[16]Cl[3]NO[2]
   XLogP3-AA                         4.3
   H-Bond Donor                      1
   H-Bond Acceptor                   2
   Rotatable Bond Count              5
   Tautomer Count                    10
   Exact Mass                        335.024662
   MonoIsotopic Mass                 335.024662
   Topological Polar Surface Area    46.2
   Heavy Atom Count                  20
   Formal Charge                     0
   Complexity                        365
   Isotope Atom Count                0
   Defined Atom Stereocenter Count   0
   Undefined Atom Stereocenter Count 1
   Defined Bond Stereocenter Count   0
   Undefined Bond Stereocenter Count 0
   Covalently-Bonded Unit Count      1
   Feature 3D Acceptor Count         2
   Feature 3D Donor Count            1
   Feature 3D Hydrophobe Count       1
   Feature 3D Ring Count             1
   Effective Rotor Count             6
   Conformer Sampling RMSD           0.8
   CID Conformer Count               [10]57

References

   1. http://toxnet.nlm.nih.gov/cgi-bin/sis/search/r?dbs+hsdb:@term+@rn+@rel+156052-68-5
   2. http://toxnet.nlm.nih.gov/cgi-bin/sis/search/r?dbs+hsdb:@term+@rn+@rel+156052-68-5
   3. http://toxnet.nlm.nih.gov/cgi-bin/sis/search/r?dbs+hsdb:@term+@rn+@rel+156052-68-5
   4. http://toxnet.nlm.nih.gov/cgi-bin/sis/search/r?dbs+hsdb:@term+@rn+@rel+156052-68-5
   5. http://toxnet.nlm.nih.gov/cgi-bin/sis/search/r?dbs+hsdb:@term+@rn+@rel+156052-68-5
   6. http://toxnet.nlm.nih.gov/cgi-bin/sis/search/r?dbs+hsdb:@term+@rn+@rel+156052-68-5
   7. http://toxnet.nlm.nih.gov/cgi-bin/sis/search/r?dbs+hsdb:@term+@rn+@rel+156052-68-5
   8. http://toxnet.nlm.nih.gov/cgi-bin/sis/search/r?dbs+hsdb:@term+@rn+@rel+156052-68-5
   9. http://toxnet.nlm.nih.gov/cgi-bin/sis/search/r?dbs+hsdb:@term+@rn+@rel+156052-68-5
  10. http://pubchem.ncbi.nlm.nih.gov/vw3d/vw3d.cgi?cid=122087
