5281656
  -OEChem-07051212582D

 27 29  0     0  0  0  0  0  0999 V2000
    5.5301   -1.3533    0.0000 O   0  0  0  0  0  0  0  0  0  0  0  0
    5.5301    1.6467    0.0000 O   0  0  0  0  0  0  0  0  0  0  0  0
    7.2785    1.6813    0.0000 O   0  0  0  0  0  0  0  0  0  0  0  0
    2.0000    0.6708    0.0000 O   0  0  0  0  0  0  0  0  0  0  0  0
    2.0000   -1.3775    0.0000 O   0  0  0  0  0  0  0  0  0  0  0  0
    9.0602   -1.3775    0.0000 O   0  0  0  0  0  0  0  0  0  0  0  0
    6.3961    0.1467    0.0000 C   0  0  0  0  0  0  0  0  0  0  0  0
    4.6641    0.1467    0.0000 C   0  0  0  0  0  0  0  0  0  0  0  0
    6.3961   -0.8533    0.0000 C   0  0  0  0  0  0  0  0  0  0  0  0
    4.6641   -0.8533    0.0000 C   0  0  0  0  0  0  0  0  0  0  0  0
    5.5301    0.6467    0.0000 C   0  0  0  0  0  0  0  0  0  0  0  0
    7.2901    0.6813    0.0000 C   0  0  0  0  0  0  0  0  0  0  0  0
    3.7702    0.6813    0.0000 C   0  0  0  0  0  0  0  0  0  0  0  0
    3.7702   -1.3880    0.0000 C   0  0  0  0  0  0  0  0  0  0  0  0
    7.2901   -1.3880    0.0000 C   0  0  0  0  0  0  0  0  0  0  0  0
    2.8641    0.1675    0.0000 C   0  0  0  0  0  0  0  0  0  0  0  0
    2.8641   -0.8741    0.0000 C   0  0  0  0  0  0  0  0  0  0  0  0
    8.1962    0.1675    0.0000 C   0  0  0  0  0  0  0  0  0  0  0  0
    8.1962   -0.8741    0.0000 C   0  0  0  0  0  0  0  0  0  0  0  0
    3.7773    1.3013    0.0000 H   0  0  0  0  0  0  0  0  0  0  0  0
    3.7773   -2.0079    0.0000 H   0  0  0  0  0  0  0  0  0  0  0  0
    7.2829   -2.0079    0.0000 H   0  0  0  0  0  0  0  0  0  0  0  0
    8.7319    0.4796    0.0000 H   0  0  0  0  0  0  0  0  0  0  0  0
    7.8118    1.9975    0.0000 H   0  0  0  0  0  0  0  0  0  0  0  0
    2.0024    1.2908    0.0000 H   0  0  0  0  0  0  0  0  0  0  0  0
    2.0024   -1.9975    0.0000 H   0  0  0  0  0  0  0  0  0  0  0  0
    9.5984   -1.0695    0.0000 H   0  0  0  0  0  0  0  0  0  0  0  0
  1  9  1  0  0  0  0
  1 10  1  0  0  0  0
  2 11  2  0  0  0  0
  3 12  1  0  0  0  0
  3 24  1  0  0  0  0
  4 16  1  0  0  0  0
  4 25  1  0  0  0  0
  5 17  1  0  0  0  0
  5 26  1  0  0  0  0
  6 19  1  0  0  0  0
  6 27  1  0  0  0  0
  7  9  1  0  0  0  0
  7 11  1  0  0  0  0
  7 12  2  0  0  0  0
  8 10  1  0  0  0  0
  8 11  1  0  0  0  0
  8 13  2  0  0  0  0
  9 15  2  0  0  0  0
 10 14  2  0  0  0  0
 12 18  1  0  0  0  0
 13 16  1  0  0  0  0
 13 20  1  0  0  0  0
 14 17  1  0  0  0  0
 14 21  1  0  0  0  0
 15 19  1  0  0  0  0
 15 22  1  0  0  0  0
 16 17  2  0  0  0  0
 18 19  2  0  0  0  0
 18 23  1  0  0  0  0
M  END
> <PUBCHEM_COMPOUND_CID>
5281656

> <PUBCHEM_COMPOUND_CANONICALIZED>
1

> <PUBCHEM_CACTVS_COMPLEXITY>
372

> <PUBCHEM_CACTVS_HBOND_ACCEPTOR>
6

> <PUBCHEM_CACTVS_HBOND_DONOR>
4

> <PUBCHEM_CACTVS_ROTATABLE_BOND>
0

> <PUBCHEM_CACTVS_SUBSKEYS>
AAADccBwOAAAAAAAAAAAAAAAAAAAAAAAAAA0YIAAAAAAAACRQAAAGgAACAAADASAmAAwBoAABgCIAqBSAAACCAAkIAAAiAEGiMgNJzaGNRqCeWGl4BUJuYfK7PzOIQABCAAIQABCAAIQABCAAAAAAAAAAA==

> <PUBCHEM_IUPAC_OPENEYE_NAME>
1,3,6,7-tetrahydroxyxanthen-9-one

> <PUBCHEM_IUPAC_CAS_NAME>
1,3,6,7-tetrahydroxy-9-xanthenone

> <PUBCHEM_IUPAC_NAME>
1,3,6,7-tetrahydroxyxanthen-9-one

> <PUBCHEM_IUPAC_SYSTEMATIC_NAME>
1,3,6,7-tetrakis(oxidanyl)xanthen-9-one

> <PUBCHEM_IUPAC_TRADITIONAL_NAME>
1,3,6,7-tetrahydroxyxanthone

> <PUBCHEM_IUPAC_INCHI>
InChI=1S/C13H8O6/c14-5-1-9(17)12-11(2-5)19-10-4-8(16)7(15)3-6(10)13(12)18/h1-4,14-17H

> <PUBCHEM_IUPAC_INCHIKEY>
ZHTQCPCDXKMMLU-UHFFFAOYSA-N

> <PUBCHEM_XLOGP3_AA>
2.1

> <PUBCHEM_EXACT_MASS>
260.032088

> <PUBCHEM_MOLECULAR_FORMULA>
C13H8O6

> <PUBCHEM_MOLECULAR_WEIGHT>
260.19902

> <PUBCHEM_OPENEYE_CAN_SMILES>
C1=C(C=C2C(=C1O)C(=O)C3=CC(=C(C=C3O2)O)O)O

> <PUBCHEM_OPENEYE_ISO_SMILES>
C1=C(C=C2C(=C1O)C(=O)C3=CC(=C(C=C3O2)O)O)O

> <PUBCHEM_CACTVS_TPSA>
107

> <PUBCHEM_MONOISOTOPIC_WEIGHT>
260.032088

> <PUBCHEM_TOTAL_CHARGE>
0

> <PUBCHEM_HEAVY_ATOM_COUNT>
19

> <PUBCHEM_ATOM_DEF_STEREO_COUNT>
0

> <PUBCHEM_ATOM_UDEF_STEREO_COUNT>
0

> <PUBCHEM_BOND_DEF_STEREO_COUNT>
0

> <PUBCHEM_BOND_UDEF_STEREO_COUNT>
0

> <PUBCHEM_ISOTOPIC_ATOM_COUNT>
0

> <PUBCHEM_COMPONENT_COUNT>
1

> <PUBCHEM_CACTVS_TAUTO_COUNT>
114

> <PUBCHEM_COORDINATE_TYPE>
1
5
255

> <PUBCHEM_BONDANNOTATIONS>
1  10  8
1  9  8
10  14  8
12  18  8
13  16  8
14  17  8
15  19  8
16  17  8
18  19  8
7  11  8
7  12  8
7  9  8
8  10  8
8  11  8
8  13  8
9  15  8

$$$$

