121920
  -OEChem-07051212492D

 44 44  0     1  0  0  0  0  0999 V2000
    6.8671    2.2035    0.0000 P   0  0  0  0  0  0  0  0  0  0  0  0
    3.4030    0.2035    0.0000 P   0  0  0  0  0  0  0  0  0  0  0  0
    8.5991    0.2035    0.0000 P   0  0  0  0  0  0  0  0  0  0  0  0
    4.2690   -2.2965    0.0000 P   0  0  0  0  0  0  0  0  0  0  0  0
    6.0010    1.7035    0.0000 O   0  0  0  0  0  0  0  0  0  0  0  0
    4.2690    0.7035    0.0000 O   0  0  0  0  0  0  0  0  0  0  0  0
    7.7331    0.7035    0.0000 O   0  0  0  0  0  0  0  0  0  0  0  0
    4.2690   -1.2965    0.0000 O   0  0  0  0  0  0  0  0  0  0  0  0
    7.7331   -1.2965    0.0000 O   0  0  0  0  0  0  0  0  0  0  0  0
    6.0010   -2.2965    0.0000 O   0  0  0  0  0  0  0  0  0  0  0  0
    7.7331    2.7035    0.0000 O   0  0  0  0  0  0  0  0  0  0  0  0
    6.3671    3.0695    0.0000 O   0  0  0  0  0  0  0  0  0  0  0  0
    2.5369   -0.2965    0.0000 O   0  0  0  0  0  0  0  0  0  0  0  0
    2.9030    1.0695    0.0000 O   0  0  0  0  0  0  0  0  0  0  0  0
    9.4651   -0.2965    0.0000 O   0  0  0  0  0  0  0  0  0  0  0  0
    9.0991    1.0695    0.0000 O   0  0  0  0  0  0  0  0  0  0  0  0
    4.2690   -3.2965    0.0000 O   0  0  0  0  0  0  0  0  0  0  0  0
    3.2690   -2.2965    0.0000 O   0  0  0  0  0  0  0  0  0  0  0  0
    7.3671    1.3375    0.0000 O   0  0  0  0  0  0  0  0  0  0  0  0
    3.9030   -0.6625    0.0000 O   0  0  0  0  0  0  0  0  0  0  0  0
    8.0991   -0.6625    0.0000 O   0  0  0  0  0  0  0  0  0  0  0  0
    5.2690   -2.2965    0.0000 O   0  0  0  0  0  0  0  0  0  0  0  0
    6.0010    0.7035    0.0000 C   0  0  1  0  0  0  0  0  0  0  0  0
    5.1350    0.2035    0.0000 C   0  0  1  0  0  0  0  0  0  0  0  0
    6.8671    0.2035    0.0000 C   0  0  2  0  0  0  0  0  0  0  0  0
    5.1350   -0.7965    0.0000 C   0  0  2  0  0  0  0  0  0  0  0  0
    6.8671   -0.7965    0.0000 C   0  0  1  0  0  0  0  0  0  0  0  0
    6.0010   -1.2965    0.0000 C   0  0  2  0  0  0  0  0  0  0  0  0
    6.5380    1.0135    0.0000 H   0  0  0  0  0  0  0  0  0  0  0  0
    5.1350    0.8235    0.0000 H   0  0  0  0  0  0  0  0  0  0  0  0
    7.4040   -0.1065    0.0000 H   0  0  0  0  0  0  0  0  0  0  0  0
    5.1350   -1.4165    0.0000 H   0  0  0  0  0  0  0  0  0  0  0  0
    7.4040   -0.4865    0.0000 H   0  0  0  0  0  0  0  0  0  0  0  0
    6.5380   -1.6065    0.0000 H   0  0  0  0  0  0  0  0  0  0  0  0
    7.7331   -1.9165    0.0000 H   0  0  0  0  0  0  0  0  0  0  0  0
    6.5380   -2.6065    0.0000 H   0  0  0  0  0  0  0  0  0  0  0  0
    7.7331    3.3235    0.0000 H   0  0  0  0  0  0  0  0  0  0  0  0
    6.6771    3.6065    0.0000 H   0  0  0  0  0  0  0  0  0  0  0  0
    2.0000    0.0135    0.0000 H   0  0  0  0  0  0  0  0  0  0  0  0
    2.2830    1.0695    0.0000 H   0  0  0  0  0  0  0  0  0  0  0  0
   10.0021    0.0135    0.0000 H   0  0  0  0  0  0  0  0  0  0  0  0
    9.7191    1.0695    0.0000 H   0  0  0  0  0  0  0  0  0  0  0  0
    3.7320   -3.6065    0.0000 H   0  0  0  0  0  0  0  0  0  0  0  0
    2.9590   -2.8334    0.0000 H   0  0  0  0  0  0  0  0  0  0  0  0
  1  5  1  0  0  0  0
  1 11  1  0  0  0  0
  1 12  1  0  0  0  0
  1 19  2  0  0  0  0
  2  6  1  0  0  0  0
  2 13  1  0  0  0  0
  2 14  1  0  0  0  0
  2 20  2  0  0  0  0
  3  7  1  0  0  0  0
  3 15  1  0  0  0  0
  3 16  1  0  0  0  0
  3 21  2  0  0  0  0
  4  8  1  0  0  0  0
  4 17  1  0  0  0  0
  4 18  1  0  0  0  0
  4 22  2  0  0  0  0
 23  5  1  6  0  0  0
 24  6  1  1  0  0  0
 25  7  1  1  0  0  0
 26  8  1  6  0  0  0
 27  9  1  6  0  0  0
  9 35  1  0  0  0  0
 28 10  1  6  0  0  0
 10 36  1  0  0  0  0
 11 37  1  0  0  0  0
 12 38  1  0  0  0  0
 13 39  1  0  0  0  0
 14 40  1  0  0  0  0
 15 41  1  0  0  0  0
 16 42  1  0  0  0  0
 17 43  1  0  0  0  0
 18 44  1  0  0  0  0
 23 24  1  0  0  0  0
 23 25  1  0  0  0  0
 23 29  1  0  0  0  0
 24 26  1  0  0  0  0
 24 30  1  0  0  0  0
 25 27  1  0  0  0  0
 25 31  1  0  0  0  0
 26 28  1  0  0  0  0
 26 32  1  0  0  0  0
 27 28  1  0  0  0  0
 27 33  1  0  0  0  0
 28 34  1  0  0  0  0
M  END
> <PUBCHEM_COMPOUND_CID>
121920

> <PUBCHEM_COMPOUND_CANONICALIZED>
1

> <PUBCHEM_CACTVS_COMPLEXITY>
664

> <PUBCHEM_CACTVS_HBOND_ACCEPTOR>
18

> <PUBCHEM_CACTVS_HBOND_DONOR>
10

> <PUBCHEM_CACTVS_ROTATABLE_BOND>
8

> <PUBCHEM_CACTVS_SUBSKEYS>
AAADceBgPgOAAAAAAAAAAAAAAAAAAAAAAAAwAAAAAAAAAAAAAAAAGgAACCAACBSggAIAAAAAAxAAQAAAAIAAAAAAAAAAAAAAAAABEAIAAAAAQAAFAAABAAHAYAQAAAAAAAAAAAACAAAQAACAAAAAAAAAAA==

> <PUBCHEM_IUPAC_OPENEYE_NAME>
[(1S,2R,3S,4S,5R,6R)-2,3-dihydroxy-4,5,6-triphosphonooxy-cyclohexyl] dihydrogen phosphate

> <PUBCHEM_IUPAC_CAS_NAME>
[(1S,2R,3S,4S,5R,6R)-2,3-dihydroxy-4,5,6-triphosphonooxycyclohexyl] dihydrogen phosphate

> <PUBCHEM_IUPAC_NAME>
[(1S,2R,3S,4S,5R,6R)-2,3-dihydroxy-4,5,6-triphosphonooxycyclohexyl] dihydrogen phosphate

> <PUBCHEM_IUPAC_SYSTEMATIC_NAME>
[(1S,2R,3S,4S,5R,6R)-2,3-bis(oxidanyl)-4,5,6-triphosphonooxy-cyclohexyl] dihydrogen phosphate

> <PUBCHEM_IUPAC_TRADITIONAL_NAME>
[(1S,2R,3S,4S,5R,6R)-2,3-dihydroxy-4,5,6-triphosphonooxy-cyclohexyl] dihydrogen phosphate

> <PUBCHEM_IUPAC_INCHI>
InChI=1S/C6H16O18P4/c7-1-2(8)4(22-26(12,13)14)6(24-28(18,19)20)5(23-27(15,16)17)3(1)21-25(9,10)11/h1-8H,(H2,9,10,11)(H2,12,13,14)(H2,15,16,17)(H2,18,19,20)/t1-,2+,3-,4-,5+,6+/m0/s1

> <PUBCHEM_IUPAC_INCHIKEY>
MRVYFOANPDTYBY-UZAAGFTCSA-N

> <PUBCHEM_XLOGP3_AA>
-8.1

> <PUBCHEM_EXACT_MASS>
499.92871

> <PUBCHEM_MOLECULAR_FORMULA>
C6H16O18P4

> <PUBCHEM_MOLECULAR_WEIGHT>
500.075488

> <PUBCHEM_OPENEYE_CAN_SMILES>
C1(C(C(C(C(C1OP(=O)(O)O)OP(=O)(O)O)OP(=O)(O)O)OP(=O)(O)O)O)O

> <PUBCHEM_OPENEYE_ISO_SMILES>
[C@H]1([C@@H]([C@@H]([C@H]([C@@H]([C@H]1OP(=O)(O)O)OP(=O)(O)O)OP(=O)(O)O)OP(=O)(O)O)O)O

> <PUBCHEM_CACTVS_TPSA>
308

> <PUBCHEM_MONOISOTOPIC_WEIGHT>
499.92871

> <PUBCHEM_TOTAL_CHARGE>
0

> <PUBCHEM_HEAVY_ATOM_COUNT>
28

> <PUBCHEM_ATOM_DEF_STEREO_COUNT>
6

> <PUBCHEM_ATOM_UDEF_STEREO_COUNT>
0

> <PUBCHEM_BOND_DEF_STEREO_COUNT>
0

> <PUBCHEM_BOND_UDEF_STEREO_COUNT>
0

> <PUBCHEM_ISOTOPIC_ATOM_COUNT>
0

> <PUBCHEM_COMPONENT_COUNT>
1

> <PUBCHEM_CACTVS_TAUTO_COUNT>
1

> <PUBCHEM_COORDINATE_TYPE>
1
5
255

> <PUBCHEM_BONDANNOTATIONS>
28  10  6
23  5  6
24  6  5
25  7  5
26  8  6
27  9  6

$$$$

