   Color/Form

     * PALE YELLOW, VISCOUS OIL
     * Brown liquid

   from [1]HSDB

   Odor
        SWEET-SMELLING
   from [2]HSDB

   Density/Specific Gravity
        1.06-1.09 @ 25 deg C
   from [3]HSDB

   Solubilities

     * PRACTICALLY INSOL IN WATER; SOL IN MOST ORGANIC SOLVENTS EXCEPT
       PETROLEUM ETHER
     * Insoluble in water.

   from [4]HSDB

   Spectral Properties
        Intense mass spectral peaks: 162 m/z (100%), 41 m/z (85%), 43 m/z
   (68%), 135 m/z (41%)
   from [5]HSDB

   Other Chemical/Physical Properties

     * BROWN LIQUID; DECOMP ON HEATING; DENSITY: 1.06-1.09; INDEX OF
       REFRACTION: 1.528-1.532 @ 25 DEG C/D; MILD ODOR /COMMERCIAL
       MATERIAL/
     * Vapor pressure is very low at room temp; Practically insol in
       water; Readily sol or miscible with organic solvents, eg alcohol,
       acetone, xylene, methylene chloride; In mineral oils 2-2.5%; pale
       yellow liquid /technical 88%/

   from [6]HSDB

   Computed Properties
   Molecular Weight                  324.47812 [g/mol]
   Molecular Formula                 C[18]H[28]O[3]S
   XLogP3-AA                         4.8
   H-Bond Donor                      0
   H-Bond Acceptor                   4
   Rotatable Bond Count              10
   Exact Mass                        324.175916
   MonoIsotopic Mass                 324.175916
   Topological Polar Surface Area    54.7
   Heavy Atom Count                  22
   Formal Charge                     0
   Complexity                        334
   Isotope Atom Count                0
   Defined Atom Stereocenter Count   0
   Undefined Atom Stereocenter Count 2
   Defined Bond Stereocenter Count   0
   Undefined Bond Stereocenter Count 0
   Covalently-Bonded Unit Count      1
   Feature 3D Acceptor Count         3
   Feature 3D Hydrophobe Count       3
   Feature 3D Ring Count             2
   Effective Rotor Count             10.6
   Conformer Sampling RMSD           1.4
   CID Conformer Count               [7]94

References

   1. http://toxnet.nlm.nih.gov/cgi-bin/sis/search/r?dbs+hsdb:@term+@rn+@rel+120-62-7
   2. http://toxnet.nlm.nih.gov/cgi-bin/sis/search/r?dbs+hsdb:@term+@rn+@rel+120-62-7
   3. http://toxnet.nlm.nih.gov/cgi-bin/sis/search/r?dbs+hsdb:@term+@rn+@rel+120-62-7
   4. http://toxnet.nlm.nih.gov/cgi-bin/sis/search/r?dbs+hsdb:@term+@rn+@rel+120-62-7
   5. http://toxnet.nlm.nih.gov/cgi-bin/sis/search/r?dbs+hsdb:@term+@rn+@rel+120-62-7
   6. http://toxnet.nlm.nih.gov/cgi-bin/sis/search/r?dbs+hsdb:@term+@rn+@rel+120-62-7
   7. http://pubchem.ncbi.nlm.nih.gov/vw3d/vw3d.cgi?cid=8442
