   Color/Form

     * Crystals
     * Crystallized from 2-propanol
     * WHITE, CRYSTALLINE POWDER

   from [1]HSDB

   Odor
        ODORLESS
   from [2]HSDB

   Melting Point
        235-238 deg C
   from [3]HSDB

   Octanol/Water Partition Coefficient
        log Kow = 2.6 (est)
   from [4]HSDB

   Solubilities
        PRACTICALLY INSOL IN WATER; SPARINGLY SOL IN ALC, ACETONE; FREELY
   SOL IN CHLOROFORM
   from [5]HSDB

   Spectral Properties

     * Specific optical rotation: -23 deg at 25 deg C/D
     * Max absorption: 2.87 nm; 5.79 nm

   from [6]HSDB

   Vapor Pressure
        4.7X10-10 mm Hg at 25 deg C (est)
   from [7]HSDB

   Other Chemical/Physical Properties

     * Henry's Law constant = 2.3X10-8 atm-cu m/mole at 25 deg C (est)
     * Hydroxyl radical reaction rate constant = 2.6X10-11 cu cm/molec-sec
       at 25 deg C (est)

   from [8]HSDB

   Computed Properties
   Molecular Weight                  306.4397 [g/mol]
   Molecular Formula                 C[19]H[30]O[3]
   XLogP3-AA                         3.7
   H-Bond Donor                      1
   H-Bond Acceptor                   3
   Rotatable Bond Count              0
   Tautomer Count                    2
   Exact Mass                        306.219495
   MonoIsotopic Mass                 306.219495
   Topological Polar Surface Area    46.5
   Heavy Atom Count                  22
   Formal Charge                     0
   Complexity                        503
   Isotope Atom Count                0
   Defined Atom Stereocenter Count   7
   Undefined Atom Stereocenter Count 0
   Defined Bond Stereocenter Count   0
   Undefined Bond Stereocenter Count 0
   Covalently-Bonded Unit Count      1
   Feature 3D Acceptor Count         2
   Feature 3D Donor Count            1
   Feature 3D Ring Count             4
   Effective Rotor Count             2
   Conformer Sampling RMSD           0.6
   CID Conformer Count               [9]1

References

   1. http://toxnet.nlm.nih.gov/cgi-bin/sis/search/r?dbs+hsdb:@term+@rn+@rel+53-39-4
   2. http://toxnet.nlm.nih.gov/cgi-bin/sis/search/r?dbs+hsdb:@term+@rn+@rel+53-39-4
   3. http://toxnet.nlm.nih.gov/cgi-bin/sis/search/r?dbs+hsdb:@term+@rn+@rel+53-39-4
   4. http://toxnet.nlm.nih.gov/cgi-bin/sis/search/r?dbs+hsdb:@term+@rn+@rel+53-39-4
   5. http://toxnet.nlm.nih.gov/cgi-bin/sis/search/r?dbs+hsdb:@term+@rn+@rel+53-39-4
   6. http://toxnet.nlm.nih.gov/cgi-bin/sis/search/r?dbs+hsdb:@term+@rn+@rel+53-39-4
   7. http://toxnet.nlm.nih.gov/cgi-bin/sis/search/r?dbs+hsdb:@term+@rn+@rel+53-39-4
   8. http://toxnet.nlm.nih.gov/cgi-bin/sis/search/r?dbs+hsdb:@term+@rn+@rel+53-39-4
   9. http://pubchem.ncbi.nlm.nih.gov/vw3d/vw3d.cgi?cid=5878
