   Color/Form

     * Crystalline, fused, grayish-white solid (commercial product)
     * LEAVES FROM ALCOHOL

   from [1]HSDB

   Boiling Point
        241 DEG C @ 760 MM HG
   from [2]HSDB

   Melting Point
        30 DEG C
   from [3]HSDB

   Dissociation Constants
        pKa = 3.85 @ 25 deg C
   from [4]HSDB

   Solubilities

     * SOL IN HOT ALCOHOL
     * SPARINGLY SOL IN WATER, SOL IN ETHANOL & DILUTE ACIDS

   from [5]HSDB

   Spectral Properties

     * INDEX OF REFRACTION: 1.5848 @ 20 DEG C/D ; MAX ABSORPTION
       (METHANOL): 296 NM (E= 180), 242 NM (E= 939)
     * SADTLER REFERENCE NUMBER: 17155 (IR, PRISM)
     * IR: 669 (Sadtler Research Laboratories IR Grating Collection)
     * UV: 5411 (Sadtler Research Laboratories Spectral Collection)
     * NMR: 558 (Sadtler Research Laboratories Spectral Collection)

   from [6]HSDB

   Computed Properties
   Molecular Weight                  141.59812 [g/mol]
   Molecular Formula                 C[7]H[8]ClN
   XLogP3                            1.9
   H-Bond Donor                      1
   H-Bond Acceptor                   1
   Rotatable Bond Count              0
   Exact Mass                        141.034527
   MonoIsotopic Mass                 141.034527
   Topological Polar Surface Area    26
   Heavy Atom Count                  9
   Formal Charge                     0
   Complexity                        94.9
   Isotope Atom Count                0
   Defined Atom Stereocenter Count   0
   Undefined Atom Stereocenter Count 0
   Defined Bond Stereocenter Count   0
   Undefined Bond Stereocenter Count 0
   Covalently-Bonded Unit Count      1
   Feature 3D Donor Count            1
   Feature 3D Cation Count           1
   Feature 3D Ring Count             1
   Effective Rotor Count             0
   Conformer Sampling RMSD           0.4
   CID Conformer Count               [7]1

References

   1. http://toxnet.nlm.nih.gov/cgi-bin/sis/search/r?dbs+hsdb:@term+@rn+@rel+95-69-2
   2. http://toxnet.nlm.nih.gov/cgi-bin/sis/search/r?dbs+hsdb:@term+@rn+@rel+95-69-2
   3. http://toxnet.nlm.nih.gov/cgi-bin/sis/search/r?dbs+hsdb:@term+@rn+@rel+95-69-2
   4. http://toxnet.nlm.nih.gov/cgi-bin/sis/search/r?dbs+hsdb:@term+@rn+@rel+95-69-2
   5. http://toxnet.nlm.nih.gov/cgi-bin/sis/search/r?dbs+hsdb:@term+@rn+@rel+95-69-2
   6. http://toxnet.nlm.nih.gov/cgi-bin/sis/search/r?dbs+hsdb:@term+@rn+@rel+95-69-2
   7. http://pubchem.ncbi.nlm.nih.gov/vw3d/vw3d.cgi?cid=7251
