440245
  -OEChem-07051212492D

 24 26  0     1  0  0  0  0  0999 V2000
    4.8714    1.6097    0.0000 O   0  0  0  0  0  0  0  0  0  0  0  0
    2.7696    1.6511    0.0000 O   0  0  0  0  0  0  0  0  0  0  0  0
    4.3009    0.7884    0.0000 C   0  0  2  0  0  0  0  0  0  0  0  0
    3.3073    0.8080    0.0000 C   0  0  2  0  0  0  0  0  0  0  0  0
    3.8000   -0.6359    0.0000 C   0  0  0  0  0  0  0  0  0  0  0  0
    4.6660   -0.1359    0.0000 C   0  0  0  0  0  0  0  0  0  0  0  0
    2.9061   -0.1013    0.0000 C   0  0  0  0  0  0  0  0  0  0  0  0
    3.8000   -1.6359    0.0000 C   0  0  0  0  0  0  0  0  0  0  0  0
    5.5321   -0.6359    0.0000 C   0  0  0  0  0  0  0  0  0  0  0  0
    2.0000   -0.6151    0.0000 C   0  0  0  0  0  0  0  0  0  0  0  0
    4.6660   -2.1359    0.0000 C   0  0  0  0  0  0  0  0  0  0  0  0
    2.9061   -2.1706    0.0000 C   0  0  0  0  0  0  0  0  0  0  0  0
    5.5321   -1.6359    0.0000 C   0  0  0  0  0  0  0  0  0  0  0  0
    2.0000   -1.6568    0.0000 C   0  0  0  0  0  0  0  0  0  0  0  0
    4.9168    0.7169    0.0000 H   0  0  0  0  0  0  0  0  0  0  0  0
    3.6107    1.3486    0.0000 H   0  0  0  0  0  0  0  0  0  0  0  0
    6.0690   -0.3259    0.0000 H   0  0  0  0  0  0  0  0  0  0  0  0
    1.4643   -0.3031    0.0000 H   0  0  0  0  0  0  0  0  0  0  0  0
    4.6660   -2.7559    0.0000 H   0  0  0  0  0  0  0  0  0  0  0  0
    2.9132   -2.7906    0.0000 H   0  0  0  0  0  0  0  0  0  0  0  0
    6.0690   -1.9459    0.0000 H   0  0  0  0  0  0  0  0  0  0  0  0
    1.4643   -1.9688    0.0000 H   0  0  0  0  0  0  0  0  0  0  0  0
    4.6073    2.1706    0.0000 H   0  0  0  0  0  0  0  0  0  0  0  0
    2.1502    1.6237    0.0000 H   0  0  0  0  0  0  0  0  0  0  0  0
  3  1  1  1  0  0  0
  1 23  1  0  0  0  0
  4  2  1  6  0  0  0
  2 24  1  0  0  0  0
  3  4  1  0  0  0  0
  3  6  1  0  0  0  0
  3 15  1  0  0  0  0
  4  7  1  0  0  0  0
  4 16  1  0  0  0  0
  5  6  1  0  0  0  0
  5  7  1  0  0  0  0
  5  8  2  0  0  0  0
  6  9  2  0  0  0  0
  7 10  2  0  0  0  0
  8 11  1  0  0  0  0
  8 12  1  0  0  0  0
  9 13  1  0  0  0  0
  9 17  1  0  0  0  0
 10 14  1  0  0  0  0
 10 18  1  0  0  0  0
 11 13  2  0  0  0  0
 11 19  1  0  0  0  0
 12 14  2  0  0  0  0
 12 20  1  0  0  0  0
 13 21  1  0  0  0  0
 14 22  1  0  0  0  0
M  END
> <PUBCHEM_COMPOUND_CID>
440245

> <PUBCHEM_COMPOUND_CANONICALIZED>
1

> <PUBCHEM_CACTVS_COMPLEXITY>
206

> <PUBCHEM_CACTVS_HBOND_ACCEPTOR>
2

> <PUBCHEM_CACTVS_HBOND_DONOR>
2

> <PUBCHEM_CACTVS_ROTATABLE_BOND>
0

> <PUBCHEM_CACTVS_SUBSKEYS>
AAADccBwMAAAAAAAAAAAAAAAAAAAAYAAAAAwYAAAAAAAAGDBUAAAGgAACAAADBSgmAIwAMAAAgCAAiBCAAACAAAgAAAIiAAACIgJNiKAERCAcAAkwAEJmAeA4PAOgAACAAAQAAAAAAQAACAAAYAADCAAAA==

> <PUBCHEM_IUPAC_OPENEYE_NAME>
(1S,2S)-1,2-dihydroacenaphthylene-1,2-diol

> <PUBCHEM_IUPAC_CAS_NAME>
(1S,2S)-1,2-dihydroacenaphthylene-1,2-diol

> <PUBCHEM_IUPAC_NAME>
(1S,2S)-1,2-dihydroacenaphthylene-1,2-diol

> <PUBCHEM_IUPAC_SYSTEMATIC_NAME>
(1S,2S)-1,2-dihydroacenaphthylene-1,2-diol

> <PUBCHEM_IUPAC_TRADITIONAL_NAME>
(1S,2S)-acenaphthene-1,2-diol

> <PUBCHEM_IUPAC_INCHI>
InChI=1S/C12H10O2/c13-11-8-5-1-3-7-4-2-6-9(10(7)8)12(11)14/h1-6,11-14H/t11-,12-/m0/s1

> <PUBCHEM_IUPAC_INCHIKEY>
ARGFAPRYULRPAN-RYUDHWBXSA-N

> <PUBCHEM_XLOGP3_AA>
1.2

> <PUBCHEM_EXACT_MASS>
186.06808

> <PUBCHEM_MOLECULAR_FORMULA>
C12H10O2

> <PUBCHEM_MOLECULAR_WEIGHT>
186.2066

> <PUBCHEM_OPENEYE_CAN_SMILES>
C1=CC2=C3C(=C1)C(C(C3=CC=C2)O)O

> <PUBCHEM_OPENEYE_ISO_SMILES>
C1=CC2=C3C(=C1)[C@@H]([C@H](C3=CC=C2)O)O

> <PUBCHEM_CACTVS_TPSA>
40.5

> <PUBCHEM_MONOISOTOPIC_WEIGHT>
186.06808

> <PUBCHEM_TOTAL_CHARGE>
0

> <PUBCHEM_HEAVY_ATOM_COUNT>
14

> <PUBCHEM_ATOM_DEF_STEREO_COUNT>
2

> <PUBCHEM_ATOM_UDEF_STEREO_COUNT>
0

> <PUBCHEM_BOND_DEF_STEREO_COUNT>
0

> <PUBCHEM_BOND_UDEF_STEREO_COUNT>
0

> <PUBCHEM_ISOTOPIC_ATOM_COUNT>
0

> <PUBCHEM_COMPONENT_COUNT>
1

> <PUBCHEM_CACTVS_TAUTO_COUNT>
1

> <PUBCHEM_COORDINATE_TYPE>
1
5
255

> <PUBCHEM_BONDANNOTATIONS>
3  1  5
10  14  8
11  13  8
12  14  8
4  2  6
5  6  8
5  7  8
5  8  8
6  9  8
7  10  8
8  11  8
8  12  8
9  13  8

$$$$

