50591
  -OEChem-07051212502D

 17 18  0     0  0  0  0  0  0999 V2000
    4.9889    1.5107    0.0000 O   0  0  0  0  0  0  0  0  0  0  0  0
    4.6783   -1.0493    0.0000 N   0  0  0  0  0  0  0  0  0  0  0  0
    3.7320    0.2555    0.0000 C   0  0  0  0  0  0  0  0  0  0  0  0
    3.7320   -0.7445    0.0000 C   0  0  0  0  0  0  0  0  0  0  0  0
    4.6783    0.5602    0.0000 C   0  0  0  0  0  0  0  0  0  0  0  0
    5.2619   -0.2445    0.0000 C   0  0  0  0  0  0  0  0  0  0  0  0
    2.8660    0.7555    0.0000 C   0  0  0  0  0  0  0  0  0  0  0  0
    2.8660   -1.2445    0.0000 C   0  0  0  0  0  0  0  0  0  0  0  0
    2.0000    0.2555    0.0000 C   0  0  0  0  0  0  0  0  0  0  0  0
    2.0000   -0.7445    0.0000 C   0  0  0  0  0  0  0  0  0  0  0  0
    4.8709   -1.6386    0.0000 H   0  0  0  0  0  0  0  0  0  0  0  0
    5.8819   -0.2445    0.0000 H   0  0  0  0  0  0  0  0  0  0  0  0
    2.8660    1.3755    0.0000 H   0  0  0  0  0  0  0  0  0  0  0  0
    2.8660   -1.8645    0.0000 H   0  0  0  0  0  0  0  0  0  0  0  0
    1.4631    0.5655    0.0000 H   0  0  0  0  0  0  0  0  0  0  0  0
    1.4631   -1.0545    0.0000 H   0  0  0  0  0  0  0  0  0  0  0  0
    5.5956    1.6386    0.0000 H   0  0  0  0  0  0  0  0  0  0  0  0
  1  5  1  0  0  0  0
  1 17  1  0  0  0  0
  2  4  1  0  0  0  0
  2  6  1  0  0  0  0
  2 11  1  0  0  0  0
  3  4  1  0  0  0  0
  3  5  1  0  0  0  0
  3  7  2  0  0  0  0
  4  8  2  0  0  0  0
  5  6  2  0  0  0  0
  6 12  1  0  0  0  0
  7  9  1  0  0  0  0
  7 13  1  0  0  0  0
  8 10  1  0  0  0  0
  8 14  1  0  0  0  0
  9 10  2  0  0  0  0
  9 15  1  0  0  0  0
 10 16  1  0  0  0  0
M  END
> <PUBCHEM_COMPOUND_CID>
50591

> <PUBCHEM_COMPOUND_CANONICALIZED>
1

> <PUBCHEM_CACTVS_COMPLEXITY>
126

> <PUBCHEM_CACTVS_HBOND_ACCEPTOR>
1

> <PUBCHEM_CACTVS_HBOND_DONOR>
2

> <PUBCHEM_CACTVS_ROTATABLE_BOND>
0

> <PUBCHEM_CACTVS_SUBSKEYS>
AAADcYByIAAAAAAAAAAAAAAAAAAAAWAAAAAwAAAAAAAAAFgB8AAAHgAQCAAADAzBngQ8xvLJkgCgAzRnRASCgCAxYiAI2aA/bJgKJuLSkZOEcAhm0BnY2AeQwKAOAAAAAAACAAAAAAAAAAQAAAAAAAAAAA==

> <PUBCHEM_IUPAC_OPENEYE_NAME>
1H-indol-3-ol

> <PUBCHEM_IUPAC_CAS_NAME>
1H-indol-3-ol

> <PUBCHEM_IUPAC_NAME>
1H-indol-3-ol

> <PUBCHEM_IUPAC_SYSTEMATIC_NAME>
1H-indol-3-ol

> <PUBCHEM_IUPAC_TRADITIONAL_NAME>
indoxyl

> <PUBCHEM_IUPAC_INCHI>
InChI=1S/C8H7NO/c10-8-5-9-7-4-2-1-3-6(7)8/h1-5,9-10H

> <PUBCHEM_IUPAC_INCHIKEY>
PCKPVGOLPKLUHR-UHFFFAOYSA-N

> <PUBCHEM_XLOGP3>
2.2

> <PUBCHEM_EXACT_MASS>
133.052764

> <PUBCHEM_MOLECULAR_FORMULA>
C8H7NO

> <PUBCHEM_MOLECULAR_WEIGHT>
133.14728

> <PUBCHEM_OPENEYE_CAN_SMILES>
C1=CC=C2C(=C1)C(=CN2)O

> <PUBCHEM_OPENEYE_ISO_SMILES>
C1=CC=C2C(=C1)C(=CN2)O

> <PUBCHEM_CACTVS_TPSA>
36

> <PUBCHEM_MONOISOTOPIC_WEIGHT>
133.052764

> <PUBCHEM_TOTAL_CHARGE>
0

> <PUBCHEM_HEAVY_ATOM_COUNT>
10

> <PUBCHEM_ATOM_DEF_STEREO_COUNT>
0

> <PUBCHEM_ATOM_UDEF_STEREO_COUNT>
0

> <PUBCHEM_BOND_DEF_STEREO_COUNT>
0

> <PUBCHEM_BOND_UDEF_STEREO_COUNT>
0

> <PUBCHEM_ISOTOPIC_ATOM_COUNT>
0

> <PUBCHEM_COMPONENT_COUNT>
1

> <PUBCHEM_CACTVS_TAUTO_COUNT>
17

> <PUBCHEM_COORDINATE_TYPE>
1
5
255

> <PUBCHEM_BONDANNOTATIONS>
2  4  8
2  6  8
3  4  8
3  5  8
3  7  8
4  8  8
5  6  8
7  9  8
8  10  8
9  10  8

$$$$

