   Chemical and Physical Properties References

   [1]USDA ARS - USDA chemical properties
   from [2]ChemIDplus

   Color/Form

     * Crystals from alcohol and ether
     * Colorless
     * TRICLINIC CRYSTALS
     * White; water solutions may be dyed blue

   from [3]HSDB

   Odor
        Odorless
   from [4]HSDB

   Boiling Point
        >200 deg C
   from [5]HSDB

   Melting Point
        195 deg C
   from [6]HSDB

   Corrosivity
        All formulations are mildly corrosive.
   from [7]HSDB

   Dissociation Constants
        pKa = 1.57
   from [8]HSDB

   Solubilities

     * Soluble in acetic acid
     * Soluble in ethanol; insoluble in diethyl ether
     * In water, 2X10+6 mg/l @ 25 deg C.

   from [9]HSDB

   Spectral Properties

     * MS: 76490 (NIST/EPA/MCDC Mass Spectral Database 1990 version)
     * IR: 18107 (Sadtler Research Laboratory IR grating collection)
     * 1H NMR: 6487 (Sadtler Research Laboratory spectral collection)

   from [10]HSDB

   Other Chemical/Physical Properties

     * Hygroscopic
     * Forms water-soluble sodium and potassium salts
     * It is decomp by powerful oxidizing or reducing agents.
     * Compatible with hard waters.

   from [11]HSDB

   Computed Properties
   Molecular Weight                  137.99738 [g/mol]
   Molecular Formula                 C[2]H[7]AsO[2]
   H-Bond Donor                      1
   H-Bond Acceptor                   2
   Rotatable Bond Count              0
   Exact Mass                        137.966201
   MonoIsotopic Mass                 137.966201
   Topological Polar Surface Area    37.3
   Heavy Atom Count                  5
   Formal Charge                     0
   Complexity                        62
   Isotope Atom Count                0
   Defined Atom Stereocenter Count   0
   Undefined Atom Stereocenter Count 0
   Defined Bond Stereocenter Count   0
   Undefined Bond Stereocenter Count 0
   Covalently-Bonded Unit Count      1

References

   1. http://www.ars.usda.gov/SP2UserFiles/ad_hoc/12755100DatabaseFiles/PesticidePropertiesDatabase/IndividualPesticideFiles/DIMETHYLARSINIC_ACID.TXT
   2. http://chem.sis.nlm.nih.gov/chemidplus/
   3. http://toxnet.nlm.nih.gov/cgi-bin/sis/search/r?dbs+hsdb:@term+@rn+@rel+75-60-5
   4. http://toxnet.nlm.nih.gov/cgi-bin/sis/search/r?dbs+hsdb:@term+@rn+@rel+75-60-5
   5. http://toxnet.nlm.nih.gov/cgi-bin/sis/search/r?dbs+hsdb:@term+@rn+@rel+75-60-5
   6. http://toxnet.nlm.nih.gov/cgi-bin/sis/search/r?dbs+hsdb:@term+@rn+@rel+75-60-5
   7. http://toxnet.nlm.nih.gov/cgi-bin/sis/search/r?dbs+hsdb:@term+@rn+@rel+75-60-5
   8. http://toxnet.nlm.nih.gov/cgi-bin/sis/search/r?dbs+hsdb:@term+@rn+@rel+75-60-5
   9. http://toxnet.nlm.nih.gov/cgi-bin/sis/search/r?dbs+hsdb:@term+@rn+@rel+75-60-5
  10. http://toxnet.nlm.nih.gov/cgi-bin/sis/search/r?dbs+hsdb:@term+@rn+@rel+75-60-5
  11. http://toxnet.nlm.nih.gov/cgi-bin/sis/search/r?dbs+hsdb:@term+@rn+@rel+75-60-5
