99530
  -OEChem-07051212562D

 62 66  0     1  0  0  0  0  0999 V2000
    6.7975    0.9405    0.0000 O   0  0  0  0  0  0  0  0  0  0  0  0
    7.4252   -1.9063    0.0000 O   0  0  0  0  0  0  0  0  0  0  0  0
    4.7789    1.6441    0.0000 O   0  0  0  0  0  0  0  0  0  0  0  0
    6.5109    2.6441    0.0000 O   0  0  0  0  0  0  0  0  0  0  0  0
    9.1387    0.1796    0.0000 O   0  0  0  0  0  0  0  0  0  0  0  0
    3.8273    1.2011    0.0000 O   0  0  0  0  0  0  0  0  0  0  0  0
    8.8770    2.0101    0.0000 O   0  0  0  0  0  0  0  0  0  0  0  0
    7.3770    2.8761    0.0000 O   0  0  0  0  0  0  0  0  0  0  0  0
    9.1868   -1.8589    0.0000 O   0  0  0  0  0  0  0  0  0  0  0  0
    2.0000    0.1834    0.0000 O   0  0  0  0  0  0  0  0  0  0  0  0
   10.0455   -1.2961    0.0000 O   0  0  0  0  0  0  0  0  0  0  0  0
    6.5109   -0.3559    0.0000 C   0  0  2  0  0  0  0  0  0  0  0  0
    5.6449    0.1441    0.0000 C   0  0  1  0  0  0  0  0  0  0  0  0
    7.3770    0.1441    0.0000 C   0  0  2  0  0  0  0  0  0  0  0  0
    4.7349   -0.3628    0.0000 C   0  0  2  0  0  0  0  0  0  0  0  0
    7.3770    1.1441    0.0000 C   0  0  1  0  0  0  0  0  0  0  0  0
    6.5270   -1.3974    0.0000 C   0  0  1  0  0  0  0  0  0  0  0  0
    5.6449    1.1441    0.0000 C   0  0  2  0  0  0  0  0  0  0  0  0
    4.7269   -1.4044    0.0000 C   0  0  1  0  0  0  0  0  0  0  0  0
    6.3975    0.2477    0.0000 C   0  0  0  0  0  0  0  0  0  0  0  0
    6.5109    1.6441    0.0000 C   0  0  2  0  0  0  0  0  0  0  0  0
    5.6290   -1.9252    0.0000 C   0  0  0  0  0  0  0  0  0  0  0  0
    8.2867   -0.3439    0.0000 C   0  0  2  0  0  0  0  0  0  0  0  0
    3.8081    0.2013    0.0000 C   0  0  1  0  0  0  0  0  0  0  0  0
    4.4001    0.5795    0.0000 C   0  0  0  0  0  0  0  0  0  0  0  0
    3.7914   -1.9541    0.0000 C   0  0  0  0  0  0  0  0  0  0  0  0
    7.8770    2.0101    0.0000 C   0  0  0  0  0  0  0  0  0  0  0  0
    8.3110   -1.3760    0.0000 C   0  0  0  0  0  0  0  0  0  0  0  0
    2.8602   -0.3266    0.0000 C   0  0  0  0  0  0  0  0  0  0  0  0
    2.8518   -1.4116    0.0000 C   0  0  0  0  0  0  0  0  0  0  0  0
    3.7953   -2.9541    0.0000 C   0  0  0  0  0  0  0  0  0  0  0  0
   10.0181   -0.2965    0.0000 C   0  0  0  0  0  0  0  0  0  0  0  0
    9.3770    2.8761    0.0000 C   0  0  0  0  0  0  0  0  0  0  0  0
   10.8701    0.2271    0.0000 C   0  0  0  0  0  0  0  0  0  0  0  0
    4.9088    0.5691    0.0000 H   0  0  0  0  0  0  0  0  0  0  0  0
    7.8020   -0.5920    0.0000 H   0  0  0  0  0  0  0  0  0  0  0  0
    6.5337   -2.2474    0.0000 H   0  0  0  0  0  0  0  0  0  0  0  0
    5.6449    1.7641    0.0000 H   0  0  0  0  0  0  0  0  0  0  0  0
    4.7302   -2.2544    0.0000 H   0  0  0  0  0  0  0  0  0  0  0  0
    5.9704    0.6971    0.0000 H   0  0  0  0  0  0  0  0  0  0  0  0
    5.8456   -0.0347    0.0000 H   0  0  0  0  0  0  0  0  0  0  0  0
    7.0479    1.9541    0.0000 H   0  0  0  0  0  0  0  0  0  0  0  0
    5.2316   -2.4012    0.0000 H   0  0  0  0  0  0  0  0  0  0  0  0
    6.0299   -2.3981    0.0000 H   0  0  0  0  0  0  0  0  0  0  0  0
    8.8314   -0.6402    0.0000 H   0  0  0  0  0  0  0  0  0  0  0  0
    4.3515    0.4999    0.0000 H   0  0  0  0  0  0  0  0  0  0  0  0
    4.9844    0.7871    0.0000 H   0  0  0  0  0  0  0  0  0  0  0  0
    4.1926    1.1638    0.0000 H   0  0  0  0  0  0  0  0  0  0  0  0
    3.8159    0.3720    0.0000 H   0  0  0  0  0  0  0  0  0  0  0  0
    4.7789    2.2641    0.0000 H   0  0  0  0  0  0  0  0  0  0  0  0
    5.9740    2.9541    0.0000 H   0  0  0  0  0  0  0  0  0  0  0  0
    2.3137   -1.7195    0.0000 H   0  0  0  0  0  0  0  0  0  0  0  0
    3.2965    1.5214    0.0000 H   0  0  0  0  0  0  0  0  0  0  0  0
    3.1753   -2.9565    0.0000 H   0  0  0  0  0  0  0  0  0  0  0  0
    3.7977   -3.5741    0.0000 H   0  0  0  0  0  0  0  0  0  0  0  0
    4.4153   -2.9517    0.0000 H   0  0  0  0  0  0  0  0  0  0  0  0
    9.9139    2.5661    0.0000 H   0  0  0  0  0  0  0  0  0  0  0  0
    9.6870    3.4131    0.0000 H   0  0  0  0  0  0  0  0  0  0  0  0
    8.8400    3.1861    0.0000 H   0  0  0  0  0  0  0  0  0  0  0  0
   11.1947   -0.3012    0.0000 H   0  0  0  0  0  0  0  0  0  0  0  0
   11.3984    0.5517    0.0000 H   0  0  0  0  0  0  0  0  0  0  0  0
   10.5456    0.7553    0.0000 H   0  0  0  0  0  0  0  0  0  0  0  0
  1 16  1  0  0  0  0
  1 20  1  0  0  0  0
  2 17  1  0  0  0  0
  2 28  1  0  0  0  0
 18  3  1  1  0  0  0
  3 50  1  0  0  0  0
 21  4  1  6  0  0  0
  4 51  1  0  0  0  0
 23  5  1  1  0  0  0
  5 32  1  0  0  0  0
 24  6  1  1  0  0  0
  6 53  1  0  0  0  0
  7 27  1  0  0  0  0
  7 33  1  0  0  0  0
  8 27  2  0  0  0  0
  9 28  2  0  0  0  0
 10 29  2  0  0  0  0
 11 32  2  0  0  0  0
 12 13  1  0  0  0  0
 12 14  1  0  0  0  0
 12 17  1  0  0  0  0
 12 20  1  1  0  0  0
 13 15  1  0  0  0  0
 13 18  1  0  0  0  0
 13 35  1  6  0  0  0
 14 16  1  0  0  0  0
 14 23  1  0  0  0  0
 14 36  1  1  0  0  0
 15 19  1  0  0  0  0
 15 24  1  0  0  0  0
 15 25  1  1  0  0  0
 16 21  1  0  0  0  0
 16 27  1  1  0  0  0
 17 22  1  0  0  0  0
 17 37  1  1  0  0  0
 18 21  1  0  0  0  0
 18 38  1  0  0  0  0
 19 22  1  0  0  0  0
 19 26  1  0  0  0  0
 19 39  1  6  0  0  0
 20 40  1  0  0  0  0
 20 41  1  0  0  0  0
 21 42  1  0  0  0  0
 22 43  1  0  0  0  0
 22 44  1  0  0  0  0
 23 28  1  0  0  0  0
 23 45  1  0  0  0  0
 24 29  1  0  0  0  0
 24 46  1  0  0  0  0
 25 47  1  0  0  0  0
 25 48  1  0  0  0  0
 25 49  1  0  0  0  0
 26 30  2  0  0  0  0
 26 31  1  0  0  0  0
 29 30  1  0  0  0  0
 30 52  1  0  0  0  0
 31 54  1  0  0  0  0
 31 55  1  0  0  0  0
 31 56  1  0  0  0  0
 32 34  1  0  0  0  0
 33 57  1  0  0  0  0
 33 58  1  0  0  0  0
 33 59  1  0  0  0  0
 34 60  1  0  0  0  0
 34 61  1  0  0  0  0
 34 62  1  0  0  0  0
M  END
> <PUBCHEM_COMPOUND_CID>
99530

> <PUBCHEM_COMPOUND_CANONICALIZED>
1

> <PUBCHEM_CACTVS_COMPLEXITY>
1020

> <PUBCHEM_CACTVS_HBOND_ACCEPTOR>
11

> <PUBCHEM_CACTVS_HBOND_DONOR>
3

> <PUBCHEM_CACTVS_ROTATABLE_BOND>
4

> <PUBCHEM_CACTVS_SUBSKEYS>
AAADceB4PAAAAAAAAAAAAAAAAAAAASAAAAA0YIEABIAAAEjQAAAAGgAACAAAD1SggAICCAAABgCIAqDSCAIAAAAgAAAACAFAAEgBEBYAAQQCQAAF4AALAQPK7vzPgAAAAAAAAADAAAYQADCAAAAAAAAAAA==

> <PUBCHEM_IUPAC_INCHI>
InChI=1S/C23H28O11/c1-8-5-11(25)17(27)21(3)10(8)6-12-22-7-32-23(20(30)31-4,18(28)13(26)15(21)22)16(22)14(19(29)34-12)33-9(2)24/h5,10,12-18,26-28H,6-7H2,1-4H3/t10-,12+,13+,14+,15+,16+,17+,18-,21-,22+,23-/m0/s1

> <PUBCHEM_IUPAC_INCHIKEY>
WAYNIXHIORQRDI-RWLFMTGCSA-N

> <PUBCHEM_XLOGP3>
-1

> <PUBCHEM_EXACT_MASS>
480.163162

> <PUBCHEM_MOLECULAR_FORMULA>
C23H28O11

> <PUBCHEM_MOLECULAR_WEIGHT>
480.46182

> <PUBCHEM_OPENEYE_CAN_SMILES>
CC1=CC(=O)C(C2(C1CC3C45C2C(C(C(C4C(C(=O)O3)OC(=O)C)(OC5)C(=O)OC)O)O)C)O

> <PUBCHEM_OPENEYE_ISO_SMILES>
CC1=CC(=O)[C@H]([C@]2([C@H]1C[C@@H]3[C@]45[C@@H]2[C@H]([C@@H]([C@]([C@@H]4[C@H](C(=O)O3)OC(=O)C)(OC5)C(=O)OC)O)O)C)O

> <PUBCHEM_CACTVS_TPSA>
166

> <PUBCHEM_MONOISOTOPIC_WEIGHT>
480.163162

> <PUBCHEM_TOTAL_CHARGE>
0

> <PUBCHEM_HEAVY_ATOM_COUNT>
34

> <PUBCHEM_ATOM_DEF_STEREO_COUNT>
11

> <PUBCHEM_ATOM_UDEF_STEREO_COUNT>
0

> <PUBCHEM_BOND_DEF_STEREO_COUNT>
0

> <PUBCHEM_BOND_UDEF_STEREO_COUNT>
0

> <PUBCHEM_ISOTOPIC_ATOM_COUNT>
0

> <PUBCHEM_COMPONENT_COUNT>
1

> <PUBCHEM_CACTVS_TAUTO_COUNT>
26

> <PUBCHEM_COORDINATE_TYPE>
1
5
255

> <PUBCHEM_BONDANNOTATIONS>
12  20  5
13  35  6
14  36  5
15  25  5
16  27  5
17  37  5
19  39  6
18  3  5
21  4  6
23  5  5
24  6  5

$$$$

