   Color/Form
        OILY LIQUID
   from [1]HSDB

   Boiling Point
        142 DEG C @ 1.0 MM HG
   from [2]HSDB

   Spectral Properties
        Intense mass spectral peaks: 58 m/z, 72 m/z, 167 m/z, 203 m/z
   from [3]HSDB

   Other Chemical/Physical Properties

     * WHITE CRYSTALLINE POWDER; ODORLESS; SOLN ARE ACID TO LITMUS HAVING
       PH BETWEEN 4 & 5; MP:BETWEEN 130 DEG C & 135 DEG C; SLIGHTLY SOL IN
       ETHER & BENZENE /MALEATE/
     * UV max absorption (water): 261 nm (E=5760), Solubility in mg/ml at
       25 deg C: Ethanol 330; chloroform 240; water 160; methanol 130; pH
       of a 2% aqueous solution about 5 /Maleate/
     * MAX ABSORPTION: 265 NM (A= 300, 1%, 1 CM); 263 NM (A= 200, 1%, 1
       CM); 258 NM, 268 NM /MALEATE/
     * BOX LIKE PRISMS & IRREGULAR FRAGMENTS; INDEX OF REFRACTION: 1.533
       (ALPHA); 1.668 (BETA; INTERMEDIATE INDEX); LESS THAN 1.734 (GAMMA;
       INCLINED) /MALEATE/

   from [4]HSDB

   Computed Properties
   Molecular Weight                  274.78846 [g/mol]
   Molecular Formula                 C[16]H[19]ClN[2]
   XLogP3                            3.4
   H-Bond Donor                      0
   H-Bond Acceptor                   2
   Rotatable Bond Count              5
   Tautomer Count                    2
   Exact Mass                        274.123676
   MonoIsotopic Mass                 274.123676
   Topological Polar Surface Area    16.1
   Heavy Atom Count                  19
   Formal Charge                     0
   Complexity                        249
   Isotope Atom Count                0
   Defined Atom Stereocenter Count   0
   Undefined Atom Stereocenter Count 1
   Defined Bond Stereocenter Count   0
   Undefined Bond Stereocenter Count 0
   Covalently-Bonded Unit Count      1
   Feature 3D Acceptor Count         1
   Feature 3D Cation Count           1
   Feature 3D Ring Count             2
   Effective Rotor Count             5
   Conformer Sampling RMSD           0.6
   CID Conformer Count               [5]56

References

   1. http://toxnet.nlm.nih.gov/cgi-bin/sis/search/r?dbs+hsdb:@term+@rn+@rel+132-22-9
   2. http://toxnet.nlm.nih.gov/cgi-bin/sis/search/r?dbs+hsdb:@term+@rn+@rel+132-22-9
   3. http://toxnet.nlm.nih.gov/cgi-bin/sis/search/r?dbs+hsdb:@term+@rn+@rel+132-22-9
   4. http://toxnet.nlm.nih.gov/cgi-bin/sis/search/r?dbs+hsdb:@term+@rn+@rel+132-22-9
   5. http://pubchem.ncbi.nlm.nih.gov/vw3d/vw3d.cgi?cid=2725
