42138
  -OEChem-07051213112D

 21 23  0     0  0  0  0  0  0999 V2000
    6.3697   -1.6355    0.0000 Cl  0  0  0  0  0  0  0  0  0  0  0  0
    8.3764   -1.2251    0.0000 Cl  0  0  0  0  0  0  0  0  0  0  0  0
    9.0094    0.7230    0.0000 Cl  0  0  0  0  0  0  0  0  0  0  0  0
    2.6330   -1.2251    0.0000 Cl  0  0  0  0  0  0  0  0  0  0  0  0
    2.0000    0.7230    0.0000 Cl  0  0  0  0  0  0  0  0  0  0  0  0
    5.5047    1.6355    0.0000 O   0  0  0  0  0  0  0  0  0  0  0  0
    6.0047    0.0967    0.0000 C   0  0  0  0  0  0  0  0  0  0  0  0
    5.0047    0.0967    0.0000 C   0  0  0  0  0  0  0  0  0  0  0  0
    6.3137    1.0477    0.0000 C   0  0  0  0  0  0  0  0  0  0  0  0
    4.6957    1.0477    0.0000 C   0  0  0  0  0  0  0  0  0  0  0  0
    6.6897   -0.6881    0.0000 C   0  0  0  0  0  0  0  0  0  0  0  0
    4.3197   -0.6881    0.0000 C   0  0  0  0  0  0  0  0  0  0  0  0
    7.3291    1.2800    0.0000 C   0  0  0  0  0  0  0  0  0  0  0  0
    3.6803    1.2800    0.0000 C   0  0  0  0  0  0  0  0  0  0  0  0
    7.7102   -0.4794    0.0000 C   0  0  0  0  0  0  0  0  0  0  0  0
    8.0321    0.5113    0.0000 C   0  0  0  0  0  0  0  0  0  0  0  0
    3.2992   -0.4794    0.0000 C   0  0  0  0  0  0  0  0  0  0  0  0
    2.9773    0.5113    0.0000 C   0  0  0  0  0  0  0  0  0  0  0  0
    4.5181   -1.2755    0.0000 H   0  0  0  0  0  0  0  0  0  0  0  0
    7.5139    1.8718    0.0000 H   0  0  0  0  0  0  0  0  0  0  0  0
    3.4955    1.8718    0.0000 H   0  0  0  0  0  0  0  0  0  0  0  0
  1 11  1  0  0  0  0
  2 15  1  0  0  0  0
  3 16  1  0  0  0  0
  4 17  1  0  0  0  0
  5 18  1  0  0  0  0
  6  9  1  0  0  0  0
  6 10  1  0  0  0  0
  7  8  1  0  0  0  0
  7  9  1  0  0  0  0
  7 11  2  0  0  0  0
  8 10  1  0  0  0  0
  8 12  2  0  0  0  0
  9 13  2  0  0  0  0
 10 14  2  0  0  0  0
 11 15  1  0  0  0  0
 12 17  1  0  0  0  0
 12 19  1  0  0  0  0
 13 16  1  0  0  0  0
 13 20  1  0  0  0  0
 14 18  1  0  0  0  0
 14 21  1  0  0  0  0
 15 16  2  0  0  0  0
 17 18  2  0  0  0  0
M  END
> <PUBCHEM_COMPOUND_CID>
42138

> <PUBCHEM_COMPOUND_CANONICALIZED>
1

> <PUBCHEM_CACTVS_COMPLEXITY>
328

> <PUBCHEM_CACTVS_HBOND_ACCEPTOR>
1

> <PUBCHEM_CACTVS_HBOND_DONOR>
0

> <PUBCHEM_CACTVS_ROTATABLE_BOND>
0

> <PUBCHEM_CACTVS_SUBSKEYS>
AAADcQBwIAAHAAAAAAAAAAAAAAAAASAAAAAwYAAAAAAAAEgB/AAAGgIAAAAADAaAmCAwBsAABECIAqBSAAACCAAkJQAAikEGCsgMJjKFNhqCOSCkwBEIrYeIyOCOhCAAIQCJAAQIQABCARIACAAAAAAAAA==

> <PUBCHEM_IUPAC_OPENEYE_NAME>
1,2,3,7,8-pentachlorodibenzofuran

> <PUBCHEM_IUPAC_CAS_NAME>
1,2,3,7,8-pentachlorodibenzofuran

> <PUBCHEM_IUPAC_NAME>
1,2,3,7,8-pentachlorodibenzofuran

> <PUBCHEM_IUPAC_SYSTEMATIC_NAME>
1,2,3,7,8-pentakis(chloranyl)dibenzofuran

> <PUBCHEM_IUPAC_TRADITIONAL_NAME>
1,2,3,7,8-pentachlorodibenzofuran

> <PUBCHEM_IUPAC_INCHI>
InChI=1S/C12H3Cl5O/c13-5-1-4-8(2-6(5)14)18-9-3-7(15)11(16)12(17)10(4)9/h1-3H

> <PUBCHEM_IUPAC_INCHIKEY>
SBMIVUVRFPGOEB-UHFFFAOYSA-N

> <PUBCHEM_XLOGP3>
6.9

> <PUBCHEM_EXACT_MASS>
339.859703

> <PUBCHEM_MOLECULAR_FORMULA>
C12H3Cl5O

> <PUBCHEM_MOLECULAR_WEIGHT>
340.41662

> <PUBCHEM_OPENEYE_CAN_SMILES>
C1=C2C(=CC(=C1Cl)Cl)OC3=CC(=C(C(=C23)Cl)Cl)Cl

> <PUBCHEM_OPENEYE_ISO_SMILES>
C1=C2C(=CC(=C1Cl)Cl)OC3=CC(=C(C(=C23)Cl)Cl)Cl

> <PUBCHEM_CACTVS_TPSA>
13.1

> <PUBCHEM_MONOISOTOPIC_WEIGHT>
337.862653

> <PUBCHEM_TOTAL_CHARGE>
0

> <PUBCHEM_HEAVY_ATOM_COUNT>
18

> <PUBCHEM_ATOM_DEF_STEREO_COUNT>
0

> <PUBCHEM_ATOM_UDEF_STEREO_COUNT>
0

> <PUBCHEM_BOND_DEF_STEREO_COUNT>
0

> <PUBCHEM_BOND_UDEF_STEREO_COUNT>
0

> <PUBCHEM_ISOTOPIC_ATOM_COUNT>
0

> <PUBCHEM_COMPONENT_COUNT>
1

> <PUBCHEM_CACTVS_TAUTO_COUNT>
1

> <PUBCHEM_COORDINATE_TYPE>
1
5
255

> <PUBCHEM_BONDANNOTATIONS>
10  14  8
11  15  8
12  17  8
13  16  8
14  18  8
15  16  8
17  18  8
6  10  8
6  9  8
7  11  8
7  8  8
7  9  8
8  10  8
8  12  8
9  13  8

$$$$

