164509
  -OEChem-07051213042D

 44 47  0     1  0  0  0  0  0999 V2000
    2.0000   -2.1165    0.0000 O   0  0  0  0  0  0  0  0  0  0  0  0
    3.3938   -2.9213    0.0000 O   0  0  0  0  0  0  0  0  0  0  0  0
    5.1114    3.3951    0.0000 O   0  0  0  0  0  0  0  0  0  0  0  0
    5.1114    1.6630    0.0000 N   0  0  0  0  0  0  0  0  0  0  0  0
    5.6649    0.8534    0.0000 N   0  0  0  0  0  0  0  0  0  0  0  0
    8.3264   -2.7899    0.0000 N   0  0  0  0  0  0  0  0  0  0  0  0
    4.1334    1.7376    0.0000 C   0  0  1  0  0  0  0  0  0  0  0  0
    3.4634    1.0213    0.0000 C   0  0  0  0  0  0  0  0  0  0  0  0
    3.6030    0.0505    0.0000 C   0  0  0  0  0  0  0  0  0  0  0  0
    4.4691   -0.4495    0.0000 C   0  0  0  0  0  0  0  0  0  0  0  0
    5.3796   -0.0850    0.0000 C   0  0  0  0  0  0  0  0  0  0  0  0
    3.7706    2.6695    0.0000 C   0  0  0  0  0  0  0  0  0  0  0  0
    2.7370   -0.4495    0.0000 C   0  0  0  0  0  0  0  0  0  0  0  0
    4.4691   -1.4495    0.0000 C   0  0  0  0  0  0  0  0  0  0  0  0
    2.7370   -1.4495    0.0000 C   0  0  0  0  0  0  0  0  0  0  0  0
    3.6030   -1.9495    0.0000 C   0  0  0  0  0  0  0  0  0  0  0  0
    6.1163   -0.7612    0.0000 C   0  0  0  0  0  0  0  0  0  0  0  0
    5.6114    2.5290    0.0000 C   0  0  0  0  0  0  0  0  0  0  0  0
    2.4051   -3.0243    0.0000 C   0  0  0  0  0  0  0  0  0  0  0  0
    5.8991   -1.7373    0.0000 C   0  0  0  0  0  0  0  0  0  0  0  0
    7.0703   -0.4613    0.0000 C   0  0  0  0  0  0  0  0  0  0  0  0
    6.6114    2.5290    0.0000 C   0  0  0  0  0  0  0  0  0  0  0  0
    6.6358   -2.4135    0.0000 C   0  0  0  0  0  0  0  0  0  0  0  0
    7.8070   -1.1375    0.0000 C   0  0  0  0  0  0  0  0  0  0  0  0
    7.5897   -2.1136    0.0000 C   0  0  0  0  0  0  0  0  0  0  0  0
    4.5026    2.2357    0.0000 H   0  0  0  0  0  0  0  0  0  0  0  0
    3.1167    1.5353    0.0000 H   0  0  0  0  0  0  0  0  0  0  0  0
    2.8849    0.7982    0.0000 H   0  0  0  0  0  0  0  0  0  0  0  0
    4.3483    2.8944    0.0000 H   0  0  0  0  0  0  0  0  0  0  0  0
    3.5456    3.2472    0.0000 H   0  0  0  0  0  0  0  0  0  0  0  0
    3.1928    2.4445    0.0000 H   0  0  0  0  0  0  0  0  0  0  0  0
    2.2001   -0.1395    0.0000 H   0  0  0  0  0  0  0  0  0  0  0  0
    5.0060   -1.7595    0.0000 H   0  0  0  0  0  0  0  0  0  0  0  0
    1.8155   -3.2161    0.0000 H   0  0  0  0  0  0  0  0  0  0  0  0
    2.5338   -3.6308    0.0000 H   0  0  0  0  0  0  0  0  0  0  0  0
    5.3076   -1.9233    0.0000 H   0  0  0  0  0  0  0  0  0  0  0  0
    7.2050    0.1439    0.0000 H   0  0  0  0  0  0  0  0  0  0  0  0
    6.6114    1.9090    0.0000 H   0  0  0  0  0  0  0  0  0  0  0  0
    7.2314    2.5290    0.0000 H   0  0  0  0  0  0  0  0  0  0  0  0
    6.6114    3.1490    0.0000 H   0  0  0  0  0  0  0  0  0  0  0  0
    6.5011   -3.0187    0.0000 H   0  0  0  0  0  0  0  0  0  0  0  0
    8.3985   -0.9516    0.0000 H   0  0  0  0  0  0  0  0  0  0  0  0
    8.9179   -2.6039    0.0000 H   0  0  0  0  0  0  0  0  0  0  0  0
    8.1917   -3.3951    0.0000 H   0  0  0  0  0  0  0  0  0  0  0  0
  1 15  1  0  0  0  0
  1 19  1  0  0  0  0
  2 16  1  0  0  0  0
  2 19  1  0  0  0  0
  3 18  2  0  0  0  0
  4  5  1  0  0  0  0
  4  7  1  0  0  0  0
  4 18  1  0  0  0  0
  5 11  2  0  0  0  0
  6 25  1  0  0  0  0
  6 43  1  0  0  0  0
  6 44  1  0  0  0  0
  7  8  1  0  0  0  0
  7 12  1  1  0  0  0
  7 26  1  0  0  0  0
  8  9  1  0  0  0  0
  8 27  1  0  0  0  0
  8 28  1  0  0  0  0
  9 10  1  0  0  0  0
  9 13  2  0  0  0  0
 10 11  1  0  0  0  0
 10 14  2  0  0  0  0
 11 17  1  0  0  0  0
 12 29  1  0  0  0  0
 12 30  1  0  0  0  0
 12 31  1  0  0  0  0
 13 15  1  0  0  0  0
 13 32  1  0  0  0  0
 14 16  1  0  0  0  0
 14 33  1  0  0  0  0
 15 16  2  0  0  0  0
 17 20  2  0  0  0  0
 17 21  1  0  0  0  0
 18 22  1  0  0  0  0
 19 34  1  0  0  0  0
 19 35  1  0  0  0  0
 20 23  1  0  0  0  0
 20 36  1  0  0  0  0
 21 24  2  0  0  0  0
 21 37  1  0  0  0  0
 22 38  1  0  0  0  0
 22 39  1  0  0  0  0
 22 40  1  0  0  0  0
 23 25  2  0  0  0  0
 23 41  1  0  0  0  0
 24 25  1  0  0  0  0
 24 42  1  0  0  0  0
M  END
> <PUBCHEM_COMPOUND_CID>
164509

> <PUBCHEM_COMPOUND_CANONICALIZED>
1

> <PUBCHEM_CACTVS_COMPLEXITY>
544

> <PUBCHEM_CACTVS_HBOND_ACCEPTOR>
5

> <PUBCHEM_CACTVS_HBOND_DONOR>
1

> <PUBCHEM_CACTVS_ROTATABLE_BOND>
1

> <PUBCHEM_CACTVS_SUBSKEYS>
AAADceB7MAAAAAAAAAAAAAAAAAAAASAAAAAwYAAABAAAAEgBQAAAHgAYAAAADCzBmAcyzoJABACoAyVyUACSCAAgIgAaiAAu7JgdJqKEsZukMCJk3hGO6AeQ0PMOqAABAAAQQABQAAIAACCAAAAAAAAAAA==

> <PUBCHEM_IUPAC_OPENEYE_NAME>
1-[(8R)-5-(4-aminophenyl)-8-methyl-8,9-dihydro-[1,3]dioxolo[4,5-h][2,3]benzodiazepin-7-yl]ethanone

> <PUBCHEM_IUPAC_CAS_NAME>
1-[(8R)-5-(4-aminophenyl)-8-methyl-8,9-dihydro-[1,3]dioxolo[4,5-h][2,3]benzodiazepin-7-yl]ethanone

> <PUBCHEM_IUPAC_NAME>
1-[(8R)-5-(4-aminophenyl)-8-methyl-8,9-dihydro-[1,3]dioxolo[4,5-h][2,3]benzodiazepin-7-yl]ethanone

> <PUBCHEM_IUPAC_SYSTEMATIC_NAME>
1-[(8R)-5-(4-aminophenyl)-8-methyl-8,9-dihydro-[1,3]dioxolo[4,5-h][2,3]benzodiazepin-7-yl]ethanone

> <PUBCHEM_IUPAC_TRADITIONAL_NAME>
1-[(8R)-5-(4-aminophenyl)-8-methyl-8,9-dihydro-[1,3]dioxolo[4,5-h][2,3]benzodiazepin-7-yl]ethanone

> <PUBCHEM_IUPAC_INCHI>
InChI=1S/C19H19N3O3/c1-11-7-14-8-17-18(25-10-24-17)9-16(14)19(21-22(11)12(2)23)13-3-5-15(20)6-4-13/h3-6,8-9,11H,7,10,20H2,1-2H3/t11-/m1/s1

> <PUBCHEM_IUPAC_INCHIKEY>
JACAAXNEHGBPOQ-LLVKDONJSA-N

> <PUBCHEM_XLOGP3_AA>
2.7

> <PUBCHEM_EXACT_MASS>
337.142641

> <PUBCHEM_MOLECULAR_FORMULA>
C19H19N3O3

> <PUBCHEM_MOLECULAR_WEIGHT>
337.37246

> <PUBCHEM_OPENEYE_CAN_SMILES>
CC1CC2=CC3=C(C=C2C(=NN1C(=O)C)C4=CC=C(C=C4)N)OCO3

> <PUBCHEM_OPENEYE_ISO_SMILES>
C[C@@H]1CC2=CC3=C(C=C2C(=NN1C(=O)C)C4=CC=C(C=C4)N)OCO3

> <PUBCHEM_CACTVS_TPSA>
77.2

> <PUBCHEM_MONOISOTOPIC_WEIGHT>
337.142641

> <PUBCHEM_TOTAL_CHARGE>
0

> <PUBCHEM_HEAVY_ATOM_COUNT>
25

> <PUBCHEM_ATOM_DEF_STEREO_COUNT>
1

> <PUBCHEM_ATOM_UDEF_STEREO_COUNT>
0

> <PUBCHEM_BOND_DEF_STEREO_COUNT>
0

> <PUBCHEM_BOND_UDEF_STEREO_COUNT>
0

> <PUBCHEM_ISOTOPIC_ATOM_COUNT>
0

> <PUBCHEM_COMPONENT_COUNT>
1

> <PUBCHEM_CACTVS_TAUTO_COUNT>
2

> <PUBCHEM_COORDINATE_TYPE>
1
5
255

> <PUBCHEM_BONDANNOTATIONS>
10  14  8
13  15  8
14  16  8
15  16  8
17  20  8
17  21  8
20  23  8
21  24  8
23  25  8
24  25  8
7  12  5
9  10  8
9  13  8

$$$$

