441849
  -OEChem-07051212562D

 78 84  0     1  0  0  0  0  0999 V2000
    7.6032    3.6679    0.0000 O   0  0  0  0  0  0  0  0  0  0  0  0
    9.3586   -1.5142    0.0000 O   0  0  0  0  0  0  0  0  0  0  0  0
   11.2253   -0.4364    0.0000 O   0  0  0  0  0  0  0  0  0  0  0  0
    8.1926   -0.5658    0.0000 O   0  0  0  0  0  0  0  0  0  0  0  0
    2.4774    3.3472    0.0000 O   0  0  0  0  0  0  0  0  0  0  0  0
   12.2210   -2.0713    0.0000 O   0  0  0  0  0  0  0  0  0  0  0  0
    9.4280   -2.5639    0.0000 O   0  0  0  0  0  0  0  0  0  0  0  0
    9.4049   -3.6839    0.0000 O   0  0  0  0  0  0  0  0  0  0  0  0
    2.0000    1.6303    0.0000 O   0  0  0  0  0  0  0  0  0  0  0  0
    6.7334    3.1746    0.0000 C   0  0  1  0  0  0  0  0  0  0  0  0
    7.6273    2.6400    0.0000 C   0  0  1  0  0  0  0  0  0  0  0  0
    7.6273    1.6400    0.0000 C   0  0  1  0  0  0  0  0  0  0  0  0
    5.8273    2.6608    0.0000 C   0  0  2  0  0  0  0  0  0  0  0  0
    8.4934    1.1400    0.0000 C   0  0  2  0  0  0  0  0  0  0  0  0
    9.3594    1.6400    0.0000 C   0  0  1  0  0  0  0  0  0  0  0  0
    6.7334    1.1053    0.0000 C   0  0  0  0  0  0  0  0  0  0  0  0
    5.8273    1.6192    0.0000 C   0  0  0  0  0  0  0  0  0  0  0  0
    5.0650    3.3615    0.0000 C   0  0  2  0  0  0  0  0  0  0  0  0
    8.4934    3.1400    0.0000 C   0  0  0  0  0  0  0  0  0  0  0  0
    6.5233    4.1886    0.0000 C   0  0  0  0  0  0  0  0  0  0  0  0
    9.3594    2.6400    0.0000 C   0  0  0  0  0  0  0  0  0  0  0  0
    5.4943    4.3038    0.0000 C   0  0  0  0  0  0  0  0  0  0  0  0
    8.4773    0.0985    0.0000 C   0  0  0  0  0  0  0  0  0  0  0  0
   10.2694    1.1331    0.0000 C   0  0  0  0  0  0  0  0  0  0  0  0
    4.9575    2.1675    0.0000 C   0  0  0  0  0  0  0  0  0  0  0  0
    9.3753   -0.4293    0.0000 C   0  0  2  0  0  0  0  0  0  0  0  0
   10.2774    0.0915    0.0000 C   0  0  2  0  0  0  0  0  0  0  0  0
    7.8506    0.3739    0.0000 C   0  0  0  0  0  0  0  0  0  0  0  0
    4.0850    3.1629    0.0000 C   0  0  0  0  0  0  0  0  0  0  0  0
   10.2940   -2.0639    0.0000 C   0  0  2  0  0  0  0  0  0  0  0  0
   11.2337   -1.5214    0.0000 C   0  0  2  0  0  0  0  0  0  0  0  0
    3.3482    3.8390    0.0000 C   0  0  0  0  0  0  0  0  0  0  0  0
    3.6696    2.2532    0.0000 C   0  0  0  0  0  0  0  0  0  0  0  0
   10.2766   -3.1939    0.0000 C   0  0  1  0  0  0  0  0  0  0  0  0
    2.6761    2.3671    0.0000 C   0  0  0  0  0  0  0  0  0  0  0  0
   11.2510   -3.7665    0.0000 C   0  0  0  0  0  0  0  0  0  0  0  0
   12.2297   -3.2014    0.0000 C   0  0  1  0  0  0  0  0  0  0  0  0
   13.0977   -3.6981    0.0000 C   0  0  0  0  0  0  0  0  0  0  0  0
    8.3635    2.2150    0.0000 H   0  0  0  0  0  0  0  0  0  0  0  0
    7.6339    0.7900    0.0000 H   0  0  0  0  0  0  0  0  0  0  0  0
   10.0922    2.0706    0.0000 H   0  0  0  0  0  0  0  0  0  0  0  0
    6.3398    0.6263    0.0000 H   0  0  0  0  0  0  0  0  0  0  0  0
    7.1380    0.6355    0.0000 H   0  0  0  0  0  0  0  0  0  0  0  0
    5.2165    1.7252    0.0000 H   0  0  0  0  0  0  0  0  0  0  0  0
    5.6183    1.0355    0.0000 H   0  0  0  0  0  0  0  0  0  0  0  0
    4.6792    3.8469    0.0000 H   0  0  0  0  0  0  0  0  0  0  0  0
    8.8919    3.6149    0.0000 H   0  0  0  0  0  0  0  0  0  0  0  0
    8.0948    3.6149    0.0000 H   0  0  0  0  0  0  0  0  0  0  0  0
    7.1403    4.2498    0.0000 H   0  0  0  0  0  0  0  0  0  0  0  0
    6.5272    4.8085    0.0000 H   0  0  0  0  0  0  0  0  0  0  0  0
    9.9700    2.5323    0.0000 H   0  0  0  0  0  0  0  0  0  0  0  0
    9.5714    3.2226    0.0000 H   0  0  0  0  0  0  0  0  0  0  0  0
    5.6277    4.9093    0.0000 H   0  0  0  0  0  0  0  0  0  0  0  0
    4.9062    4.5001    0.0000 H   0  0  0  0  0  0  0  0  0  0  0  0
    7.8682    0.2140    0.0000 H   0  0  0  0  0  0  0  0  0  0  0  0
    8.2593   -0.4819    0.0000 H   0  0  0  0  0  0  0  0  0  0  0  0
   10.8811    1.0317    0.0000 H   0  0  0  0  0  0  0  0  0  0  0  0
   10.4739    1.7184    0.0000 H   0  0  0  0  0  0  0  0  0  0  0  0
    4.6516    2.7068    0.0000 H   0  0  0  0  0  0  0  0  0  0  0  0
    4.4182    1.8616    0.0000 H   0  0  0  0  0  0  0  0  0  0  0  0
    5.2633    1.6282    0.0000 H   0  0  0  0  0  0  0  0  0  0  0  0
    8.6344   -0.8458    0.0000 H   0  0  0  0  0  0  0  0  0  0  0  0
   11.0086    0.5250    0.0000 H   0  0  0  0  0  0  0  0  0  0  0  0
    7.2400    0.4817    0.0000 H   0  0  0  0  0  0  0  0  0  0  0  0
    7.6080    4.2879    0.0000 H   0  0  0  0  0  0  0  0  0  0  0  0
   11.9648   -1.0879    0.0000 H   0  0  0  0  0  0  0  0  0  0  0  0
    3.8128    4.2495    0.0000 H   0  0  0  0  0  0  0  0  0  0  0  0
    2.9885    4.3440    0.0000 H   0  0  0  0  0  0  0  0  0  0  0  0
    3.9745    1.7134    0.0000 H   0  0  0  0  0  0  0  0  0  0  0  0
   10.2706   -3.8139    0.0000 H   0  0  0  0  0  0  0  0  0  0  0  0
   10.8500   -4.2394    0.0000 H   0  0  0  0  0  0  0  0  0  0  0  0
   11.6483   -4.2425    0.0000 H   0  0  0  0  0  0  0  0  0  0  0  0
   12.7649   -2.8884    0.0000 H   0  0  0  0  0  0  0  0  0  0  0  0
    8.8911   -2.2539    0.0000 H   0  0  0  0  0  0  0  0  0  0  0  0
    9.3977   -4.3038    0.0000 H   0  0  0  0  0  0  0  0  0  0  0  0
   12.7898   -4.2362    0.0000 H   0  0  0  0  0  0  0  0  0  0  0  0
   13.6358   -4.0060    0.0000 H   0  0  0  0  0  0  0  0  0  0  0  0
   13.4056   -3.1600    0.0000 H   0  0  0  0  0  0  0  0  0  0  0  0
 10  1  1  1  0  0  0
  1 65  1  0  0  0  0
  2 26  1  0  0  0  0
  2 30  1  0  0  0  0
  3 27  1  0  0  0  0
  3 31  1  0  0  0  0
  4 28  2  0  0  0  0
  5 32  1  0  0  0  0
  5 35  1  0  0  0  0
  6 31  1  0  0  0  0
  6 37  1  0  0  0  0
 30  7  1  1  0  0  0
  7 74  1  0  0  0  0
 34  8  1  1  0  0  0
  8 75  1  0  0  0  0
  9 35  2  0  0  0  0
 10 11  1  0  0  0  0
 10 13  1  0  0  0  0
 10 20  1  0  0  0  0
 11 12  1  0  0  0  0
 11 19  1  0  0  0  0
 11 39  1  1  0  0  0
 12 14  1  0  0  0  0
 12 16  1  0  0  0  0
 12 40  1  6  0  0  0
 13 17  1  0  0  0  0
 13 18  1  0  0  0  0
 13 25  1  1  0  0  0
 14 15  1  0  0  0  0
 14 23  1  0  0  0  0
 14 28  1  1  0  0  0
 15 21  1  0  0  0  0
 15 24  1  0  0  0  0
 15 41  1  6  0  0  0
 16 17  1  0  0  0  0
 16 42  1  0  0  0  0
 16 43  1  0  0  0  0
 17 44  1  0  0  0  0
 17 45  1  0  0  0  0
 18 22  1  0  0  0  0
 18 29  1  1  0  0  0
 18 46  1  0  0  0  0
 19 21  1  0  0  0  0
 19 47  1  0  0  0  0
 19 48  1  0  0  0  0
 20 22  1  0  0  0  0
 20 49  1  0  0  0  0
 20 50  1  0  0  0  0
 21 51  1  0  0  0  0
 21 52  1  0  0  0  0
 22 53  1  0  0  0  0
 22 54  1  0  0  0  0
 23 26  1  0  0  0  0
 23 55  1  0  0  0  0
 23 56  1  0  0  0  0
 24 27  1  0  0  0  0
 24 57  1  0  0  0  0
 24 58  1  0  0  0  0
 25 59  1  0  0  0  0
 25 60  1  0  0  0  0
 25 61  1  0  0  0  0
 26 27  1  0  0  0  0
 26 62  1  1  0  0  0
 27 63  1  6  0  0  0
 28 64  1  0  0  0  0
 29 32  1  0  0  0  0
 29 33  2  0  0  0  0
 30 31  1  0  0  0  0
 30 34  1  0  0  0  0
 31 66  1  1  0  0  0
 32 67  1  0  0  0  0
 32 68  1  0  0  0  0
 33 35  1  0  0  0  0
 33 69  1  0  0  0  0
 34 36  1  0  0  0  0
 34 70  1  0  0  0  0
 36 37  1  0  0  0  0
 36 71  1  0  0  0  0
 36 72  1  0  0  0  0
 37 38  1  6  0  0  0
 37 73  1  0  0  0  0
 38 76  1  0  0  0  0
 38 77  1  0  0  0  0
 38 78  1  0  0  0  0
M  END
> <PUBCHEM_COMPOUND_CID>
441849

> <PUBCHEM_COMPOUND_CANONICALIZED>
1

> <PUBCHEM_CACTVS_COMPLEXITY>
1060

> <PUBCHEM_CACTVS_HBOND_ACCEPTOR>
9

> <PUBCHEM_CACTVS_HBOND_DONOR>
3

> <PUBCHEM_CACTVS_ROTATABLE_BOND>
2

> <PUBCHEM_CACTVS_SUBSKEYS>
AAADcfB4PAAAAAAAAAAAAAAAAAAAAYIAAAA0aMECAAAAAGDQAAAAGgAACAAAD1SwgAMCCAAABgCIAijSiAAAAAAgAAAACAEAAEgRFBIAIQAiUAAFgAAPIQPK7PzPgAAAAAAAAADAAAYAADCAAYAADAAAAA==

> <PUBCHEM_IUPAC_INCHI>
InChI=1S/C29H40O9/c1-15-9-23(31)29(34)25(36-15)37-21-11-17-3-4-20-19(27(17,14-30)12-22(21)38-29)5-7-26(2)18(6-8-28(20,26)33)16-10-24(32)35-13-16/h10,14-15,17-23,25,31,33-34H,3-9,11-13H2,1-2H3/t15-,17+,18-,19+,20-,21-,22-,23-,25+,26-,27-,28+,29+/m1/s1

> <PUBCHEM_IUPAC_INCHIKEY>
OWPWFVVPBYFKBG-SXDHXEJRSA-N

> <PUBCHEM_XLOGP3_AA>
0.9

> <PUBCHEM_EXACT_MASS>
532.267233

> <PUBCHEM_MOLECULAR_FORMULA>
C29H40O9

> <PUBCHEM_MOLECULAR_WEIGHT>
532.6225

> <PUBCHEM_OPENEYE_CAN_SMILES>
CC1CC(C2(C(O1)OC3CC4CCC5C(C4(CC3O2)C=O)CCC6(C5(CCC6C7=CC(=O)OC7)O)C)O)O

> <PUBCHEM_OPENEYE_ISO_SMILES>
C[C@@H]1C[C@H]([C@]2([C@@H](O1)O[C@@H]3C[C@@H]4CC[C@@H]5[C@@H]([C@]4(C[C@H]3O2)C=O)CC[C@]6([C@@]5(CC[C@@H]6C7=CC(=O)OC7)O)C)O)O

> <PUBCHEM_CACTVS_TPSA>
132

> <PUBCHEM_MONOISOTOPIC_WEIGHT>
532.267233

> <PUBCHEM_TOTAL_CHARGE>
0

> <PUBCHEM_HEAVY_ATOM_COUNT>
38

> <PUBCHEM_ATOM_DEF_STEREO_COUNT>
13

> <PUBCHEM_ATOM_UDEF_STEREO_COUNT>
0

> <PUBCHEM_BOND_DEF_STEREO_COUNT>
0

> <PUBCHEM_BOND_UDEF_STEREO_COUNT>
0

> <PUBCHEM_ISOTOPIC_ATOM_COUNT>
0

> <PUBCHEM_COMPONENT_COUNT>
1

> <PUBCHEM_CACTVS_TAUTO_COUNT>
1

> <PUBCHEM_COORDINATE_TYPE>
1
5
255

> <PUBCHEM_BONDANNOTATIONS>
10  1  5
11  39  5
12  40  6
13  25  5
14  28  5
15  41  6
18  29  5
26  62  5
27  63  6
31  66  5
37  38  6
30  7  5
34  8  5

$$$$

