   Color/Form

     * Reddish-violet crystals
     * NEEDLES FROM BENZENE
     * Colorless; asbestos-like needles

   from [1]HSDB

   Boiling Point
        262 deg C
   from [2]HSDB

   Melting Point
        53 deg C
   from [3]HSDB

   Density/Specific Gravity
        1.036 g/cu cm at 20 deg C
   from [4]HSDB

   Dissociation Constants
        pKa = 6.59 at 25 deg C
   from [5]HSDB

   Solubilities

     * Soluble in water; very soluble in ethanol, ethyl ether, benzene.
     * Sol in water, alcohol, chloroform, ether

   from [6]HSDB

   Spectral Properties

     * MAX ABSORPTION (ETHER): 284 NM (LOG E= 4.24); 328 (LOG E= 3.46)
     * IR: 15290 (Sadtler Research Laboratories Prism Collection)
     * UV: 4560 (Sadtler Research Laboratories Spectral Collection)
     * NMR: 17188 (Sadtler Research Laboratories Spectral Collection)

   from [7]HSDB

   Other Chemical/Physical Properties
        Degraded by light and air.
   from [8]HSDB

   Computed Properties
   Molecular Weight                  136.19428 [g/mol]
   Molecular Formula                 C[8]H[12]N[2]
   XLogP3                            1.8
   H-Bond Donor                      1
   H-Bond Acceptor                   2
   Rotatable Bond Count              1
   Exact Mass                        136.100048
   MonoIsotopic Mass                 136.100048
   Topological Polar Surface Area    29.3
   Heavy Atom Count                  10
   Formal Charge                     0
   Complexity                        93.4
   Isotope Atom Count                0
   Defined Atom Stereocenter Count   0
   Undefined Atom Stereocenter Count 0
   Defined Bond Stereocenter Count   0
   Undefined Bond Stereocenter Count 0
   Covalently-Bonded Unit Count      1
   Feature 3D Donor Count            1
   Feature 3D Cation Count           2
   Feature 3D Ring Count             1
   Effective Rotor Count             1
   Conformer Sampling RMSD           0.4
   CID Conformer Count               [9]2

References

   1. http://toxnet.nlm.nih.gov/cgi-bin/sis/search/r?dbs+hsdb:@term+@rn+@rel+99-98-9
   2. http://toxnet.nlm.nih.gov/cgi-bin/sis/search/r?dbs+hsdb:@term+@rn+@rel+99-98-9
   3. http://toxnet.nlm.nih.gov/cgi-bin/sis/search/r?dbs+hsdb:@term+@rn+@rel+99-98-9
   4. http://toxnet.nlm.nih.gov/cgi-bin/sis/search/r?dbs+hsdb:@term+@rn+@rel+99-98-9
   5. http://toxnet.nlm.nih.gov/cgi-bin/sis/search/r?dbs+hsdb:@term+@rn+@rel+99-98-9
   6. http://toxnet.nlm.nih.gov/cgi-bin/sis/search/r?dbs+hsdb:@term+@rn+@rel+99-98-9
   7. http://toxnet.nlm.nih.gov/cgi-bin/sis/search/r?dbs+hsdb:@term+@rn+@rel+99-98-9
   8. http://toxnet.nlm.nih.gov/cgi-bin/sis/search/r?dbs+hsdb:@term+@rn+@rel+99-98-9
   9. http://pubchem.ncbi.nlm.nih.gov/vw3d/vw3d.cgi?cid=7472
