11954183
  -OEChem-07051213072D

 53 57  0     1  0  0  0  0  0999 V2000
    4.3958   -2.7841    0.0000 O   0  0  0  0  0  0  0  0  0  0  0  0
    6.8679    2.5281    0.0000 O   0  0  0  0  0  0  0  0  0  0  0  0
    3.5298   -1.2841    0.0000 C   0  0  3  0  0  0  0  0  0  0  0  0
    3.5298   -0.2841    0.0000 C   0  0  1  0  0  0  0  0  0  0  0  0
    2.5836   -1.5888    0.0000 C   0  0  3  0  0  0  0  0  0  0  0  0
    3.3208   -2.2564    0.0000 C   0  0  0  0  0  0  0  0  0  0  0  0
    4.3958    0.2159    0.0000 C   0  0  2  0  0  0  0  0  0  0  0  0
    4.3958   -1.7841    0.0000 C   0  0  1  0  0  0  0  0  0  0  0  0
    5.2619   -0.2841    0.0000 C   0  0  1  0  0  0  0  0  0  0  0  0
    2.5836    0.0206    0.0000 C   0  0  0  0  0  0  0  0  0  0  0  0
    2.0000   -0.7841    0.0000 C   0  0  0  0  0  0  0  0  0  0  0  0
    5.2619   -1.2841    0.0000 C   0  0  0  0  0  0  0  0  0  0  0  0
    6.1719    0.2228    0.0000 C   0  0  1  0  0  0  0  0  0  0  0  0
    6.1799    1.2644    0.0000 C   0  0  2  0  0  0  0  0  0  0  0  0
    4.3798    1.2574    0.0000 C   0  0  0  0  0  0  0  0  0  0  0  0
    3.5298    0.7159    0.0000 C   0  0  0  0  0  0  0  0  0  0  0  0
    5.2778    1.7852    0.0000 C   0  0  0  0  0  0  0  0  0  0  0  0
    7.1550   -0.1022    0.0000 C   0  0  0  0  0  0  0  0  0  0  0  0
    7.1679    1.5742    0.0000 C   0  0  2  0  0  0  0  0  0  0  0  0
    7.7694    0.7313    0.0000 C   0  0  0  0  0  0  0  0  0  0  0  0
    6.1876    2.2643    0.0000 C   0  0  0  0  0  0  0  0  0  0  0  0
    7.9825    2.1543    0.0000 C   0  0  0  0  0  0  0  0  0  0  0  0
    8.7970    2.7344    0.0000 C   0  0  0  0  0  0  0  0  0  0  0  0
    1.9509   -2.1564    0.0000 H   0  0  0  0  0  0  0  0  0  0  0  0
    2.9908   -2.7813    0.0000 H   0  0  0  0  0  0  0  0  0  0  0  0
    3.8950   -2.4901    0.0000 H   0  0  0  0  0  0  0  0  0  0  0  0
    5.1287    0.6466    0.0000 H   0  0  0  0  0  0  0  0  0  0  0  0
    4.9328   -2.0941    0.0000 H   0  0  0  0  0  0  0  0  0  0  0  0
    5.9947   -0.7148    0.0000 H   0  0  0  0  0  0  0  0  0  0  0  0
    2.8346    0.5876    0.0000 H   0  0  0  0  0  0  0  0  0  0  0  0
    2.0462    0.3299    0.0000 H   0  0  0  0  0  0  0  0  0  0  0  0
    1.5391   -0.3694    0.0000 H   0  0  0  0  0  0  0  0  0  0  0  0
    1.5391   -1.1988    0.0000 H   0  0  0  0  0  0  0  0  0  0  0  0
    5.4739   -1.8667    0.0000 H   0  0  0  0  0  0  0  0  0  0  0  0
    5.8725   -1.1764    0.0000 H   0  0  0  0  0  0  0  0  0  0  0  0
    6.2520   -0.6235    0.0000 H   0  0  0  0  0  0  0  0  0  0  0  0
    4.1618    1.8378    0.0000 H   0  0  0  0  0  0  0  0  0  0  0  0
    3.7706    1.1419    0.0000 H   0  0  0  0  0  0  0  0  0  0  0  0
    4.1498    0.7159    0.0000 H   0  0  0  0  0  0  0  0  0  0  0  0
    3.5298    1.3359    0.0000 H   0  0  0  0  0  0  0  0  0  0  0  0
    2.9098    0.7159    0.0000 H   0  0  0  0  0  0  0  0  0  0  0  0
    5.6751    2.2611    0.0000 H   0  0  0  0  0  0  0  0  0  0  0  0
    4.8769    2.2581    0.0000 H   0  0  0  0  0  0  0  0  0  0  0  0
    6.8996   -0.6672    0.0000 H   0  0  0  0  0  0  0  0  0  0  0  0
    7.6900   -0.4156    0.0000 H   0  0  0  0  0  0  0  0  0  0  0  0
    8.2270    0.3130    0.0000 H   0  0  0  0  0  0  0  0  0  0  0  0
    8.2334    1.1424    0.0000 H   0  0  0  0  0  0  0  0  0  0  0  0
    4.9328   -3.0941    0.0000 H   0  0  0  0  0  0  0  0  0  0  0  0
    6.8076    2.2596    0.0000 H   0  0  0  0  0  0  0  0  0  0  0  0
    6.1924    2.8843    0.0000 H   0  0  0  0  0  0  0  0  0  0  0  0
    5.5676    2.2691    0.0000 H   0  0  0  0  0  0  0  0  0  0  0  0
    7.2871    2.9849    0.0000 H   0  0  0  0  0  0  0  0  0  0  0  0
    9.3020    3.0941    0.0000 H   0  0  0  0  0  0  0  0  0  0  0  0
  8  1  1  1  0  0  0
  1 48  1  0  0  0  0
 19  2  1  1  0  0  0
  2 52  1  0  0  0  0
  3  4  1  0  0  0  0
  3  5  1  0  0  0  0
  3  6  1  0  0  0  0
  3  8  1  0  0  0  0
  4  7  1  0  0  0  0
  4 10  1  0  0  0  0
  4 16  1  1  0  0  0
  5  6  1  0  0  0  0
  5 11  1  0  0  0  0
  5 24  1  0  0  0  0
  6 25  1  0  0  0  0
  6 26  1  0  0  0  0
  7  9  1  0  0  0  0
  7 15  1  0  0  0  0
  7 27  1  6  0  0  0
  8 12  1  0  0  0  0
  8 28  1  0  0  0  0
  9 12  1  0  0  0  0
  9 13  1  0  0  0  0
  9 29  1  1  0  0  0
 10 11  1  0  0  0  0
 10 30  1  0  0  0  0
 10 31  1  0  0  0  0
 11 32  1  0  0  0  0
 11 33  1  0  0  0  0
 12 34  1  0  0  0  0
 12 35  1  0  0  0  0
 13 14  1  0  0  0  0
 13 18  1  0  0  0  0
 13 36  1  6  0  0  0
 14 17  1  0  0  0  0
 14 19  1  0  0  0  0
 14 21  1  1  0  0  0
 15 17  1  0  0  0  0
 15 37  1  0  0  0  0
 15 38  1  0  0  0  0
 16 39  1  0  0  0  0
 16 40  1  0  0  0  0
 16 41  1  0  0  0  0
 17 42  1  0  0  0  0
 17 43  1  0  0  0  0
 18 20  1  0  0  0  0
 18 44  1  0  0  0  0
 18 45  1  0  0  0  0
 19 20  1  0  0  0  0
 19 22  1  0  0  0  0
 20 46  1  0  0  0  0
 20 47  1  0  0  0  0
 21 49  1  0  0  0  0
 21 50  1  0  0  0  0
 21 51  1  0  0  0  0
 22 23  3  0  0  0  0
 23 53  1  0  0  0  0
M  END
> <PUBCHEM_COMPOUND_CID>
11954183

> <PUBCHEM_COMPOUND_CANONICALIZED>
1

> <PUBCHEM_CACTVS_COMPLEXITY>
619

> <PUBCHEM_CACTVS_HBOND_ACCEPTOR>
2

> <PUBCHEM_CACTVS_HBOND_DONOR>
2

> <PUBCHEM_CACTVS_ROTATABLE_BOND>
1

> <PUBCHEM_CACTVS_SUBSKEYS>
AAADceB4MAAAAAAAAAAAAAAAGAAAAYMAAAAwYMAAAAAAAGDAAAAAGgAACAAAD1SggAICAAAAAgBAGAAAAAgAAAAAAAAAAAAAAAAAEAIAAAAAQAAEAAAAAAGAwPAPgAAAAAAAAADAAAYAADAAAYAADAAAAA==

> <PUBCHEM_IUPAC_INCHI>
InChI=1S/C21H30O2/c1-4-20(23)10-7-15-14-11-17(22)21-12-13(21)5-8-19(21,3)16(14)6-9-18(15,20)2/h1,13-17,22-23H,5-12H2,2-3H3/t13?,14-,15-,16-,17+,18-,19+,20-,21?/m0/s1

> <PUBCHEM_IUPAC_INCHIKEY>
WKAFEMWJRKMDQQ-QRNXFCNESA-N

> <PUBCHEM_XLOGP3_AA>
3.6

> <PUBCHEM_EXACT_MASS>
314.22458

> <PUBCHEM_MOLECULAR_FORMULA>
C21H30O2

> <PUBCHEM_MOLECULAR_WEIGHT>
314.4617

> <PUBCHEM_OPENEYE_CAN_SMILES>
CC12CCC3C1(C3)C(CC4C2CCC5(C4CCC5(C#C)O)C)O

> <PUBCHEM_OPENEYE_ISO_SMILES>
C[C@]12CC[C@H]3[C@H]([C@@H]1CC[C@]2(C#C)O)C[C@H](C45[C@@]3(CCC4C5)C)O

> <PUBCHEM_CACTVS_TPSA>
40.5

> <PUBCHEM_MONOISOTOPIC_WEIGHT>
314.22458

> <PUBCHEM_TOTAL_CHARGE>
0

> <PUBCHEM_HEAVY_ATOM_COUNT>
23

> <PUBCHEM_ATOM_DEF_STEREO_COUNT>
7

> <PUBCHEM_ATOM_UDEF_STEREO_COUNT>
2

> <PUBCHEM_BOND_DEF_STEREO_COUNT>
0

> <PUBCHEM_BOND_UDEF_STEREO_COUNT>
0

> <PUBCHEM_ISOTOPIC_ATOM_COUNT>
0

> <PUBCHEM_COMPONENT_COUNT>
1

> <PUBCHEM_CACTVS_TAUTO_COUNT>
1

> <PUBCHEM_COORDINATE_TYPE>
1
5
255

> <PUBCHEM_BONDANNOTATIONS>
8  1  5
13  36  6
14  21  5
19  2  5
3  6  3
4  16  5
5  24  3
7  27  6
9  29  5

$$$$

