   Color/Form
        Yellow crystalline solid
   from [1]HSDB

   Odor
        Faint amine odor
   from [2]HSDB

   Boiling Point
        Decomposes at 256 deg C
   from [3]HSDB

   Melting Point
        55-56 deg C
   from [4]HSDB

   Octanol/Water Partition Coefficient
        log Kow = 5.11
   from [5]HSDB

   Solubilities

     * In acetone, acetonitrile, benzene, chloroform, dichloromethane,
       xylene >500, methanol 82-100 (all in g/L, 25 deg C)
     * In water, 0.3 mg/L at 25 deg C

   from [6]HSDB

   Spectral Properties
        UV max in methanol: 267 nm, 374 nm
   from [7]HSDB

   Vapor Pressure
        8.8X10-5 mm Hg at 25 deg C
   from [8]HSDB

   Other Chemical/Physical Properties

     * Henry's Law constant = 1.3X10-4 atm cu m/mol at 25 deg C (est)
     * Hydroxyl radical reaction rate constant = 6.9X10-11 cu cm/molec-sec
       at 25 deg C (est)

   from [9]HSDB

   Computed Properties
   Molecular Weight                  333.26317 [g/mol]
   Molecular Formula                 C[13]H[14]F[3]N[3]O[4]
   XLogP3                            5.1
   H-Bond Donor                      0
   H-Bond Acceptor                   8
   Rotatable Bond Count              4
   Exact Mass                        333.093641
   MonoIsotopic Mass                 333.093641
   Topological Polar Surface Area    94.9
   Heavy Atom Count                  23
   Formal Charge                     0
   Complexity                        449
   Isotope Atom Count                0
   Defined Atom Stereocenter Count   0
   Undefined Atom Stereocenter Count 0
   Defined Bond Stereocenter Count   0
   Undefined Bond Stereocenter Count 0
   Covalently-Bonded Unit Count      1
   Feature 3D Acceptor Count         4
   Feature 3D Anion Count            2
   Feature 3D Cation Count           1
   Feature 3D Ring Count             1
   Effective Rotor Count             7
   Conformer Sampling RMSD           0.8
   CID Conformer Count               [10]5

References

   1. http://toxnet.nlm.nih.gov/cgi-bin/sis/search/r?dbs+hsdb:@term+@rn+@rel+55283-68-6
   2. http://toxnet.nlm.nih.gov/cgi-bin/sis/search/r?dbs+hsdb:@term+@rn+@rel+55283-68-6
   3. http://toxnet.nlm.nih.gov/cgi-bin/sis/search/r?dbs+hsdb:@term+@rn+@rel+55283-68-6
   4. http://toxnet.nlm.nih.gov/cgi-bin/sis/search/r?dbs+hsdb:@term+@rn+@rel+55283-68-6
   5. http://toxnet.nlm.nih.gov/cgi-bin/sis/search/r?dbs+hsdb:@term+@rn+@rel+55283-68-6
   6. http://toxnet.nlm.nih.gov/cgi-bin/sis/search/r?dbs+hsdb:@term+@rn+@rel+55283-68-6
   7. http://toxnet.nlm.nih.gov/cgi-bin/sis/search/r?dbs+hsdb:@term+@rn+@rel+55283-68-6
   8. http://toxnet.nlm.nih.gov/cgi-bin/sis/search/r?dbs+hsdb:@term+@rn+@rel+55283-68-6
   9. http://toxnet.nlm.nih.gov/cgi-bin/sis/search/r?dbs+hsdb:@term+@rn+@rel+55283-68-6
  10. http://pubchem.ncbi.nlm.nih.gov/vw3d/vw3d.cgi?cid=41381
