   Color/Form
        Crystals from ether
   from [1]HSDB

   Odor
        Odorless
   from [2]HSDB

   Boiling Point
        decomp. >270 deg C
   from [3]HSDB

   Melting Point
        136 deg C
   from [4]HSDB

   Density/Specific Gravity
        1.46 g at 20 deg C
   from [5]HSDB

   Octanol/Water Partition Coefficient
        log Kow = 1.26 at 20 deg C
   from [6]HSDB

   pH
        pH = 7.4 at 20 deg C
   from [7]HSDB

   Solubilities
        In water, 185 mg/L at 20 deg C
   from [8]HSDB

   Vapor Pressure
        6.0X10-12 mm Hg at 20 deg C (23X10-12 hPa at 20 deg C)
   from [9]HSDB

   Other Chemical/Physical Properties

     * Yellowish powder. Vapor pressure: 2.25X10-12 mm Hg (3X10-10 Pa) at
       20 deg C; solubility in water, 185 mg/L at 20 deg C /Z-form/
     * Henry's Law constant = 1.1X10-14 atm-cu m/mole at 20 deg C
       /Estimated/
     * Hydroxyl radical reaction rate constant = 8.9X10-13 cu
       cm/molecule-sec at 25 deg C /Estimated/

   from [10]HSDB

   Computed Properties
   Molecular Weight                  252.72326 [g/mol]
   Molecular Formula                 C[10]H[9]ClN[4]S
   XLogP3-AA                         2.2
   H-Bond Donor                      0
   H-Bond Acceptor                   4
   Rotatable Bond Count              2
   Exact Mass                        252.023645
   MonoIsotopic Mass                 252.023645
   Topological Polar Surface Area    77.6
   Heavy Atom Count                  16
   Formal Charge                     0
   Complexity                        324
   Isotope Atom Count                0
   Defined Atom Stereocenter Count   0
   Undefined Atom Stereocenter Count 0
   Defined Bond Stereocenter Count   0
   Undefined Bond Stereocenter Count 0
   Covalently-Bonded Unit Count      1
   Feature 3D Acceptor Count         2
   Feature 3D Cation Count           2
   Feature 3D Ring Count             2
   Effective Rotor Count             2.8
   Conformer Sampling RMSD           0.6
   CID Conformer Count               [11]16

References

   1. http://toxnet.nlm.nih.gov/cgi-bin/sis/search/r?dbs+hsdb:@term+@rn+@rel+111988-49-9
   2. http://toxnet.nlm.nih.gov/cgi-bin/sis/search/r?dbs+hsdb:@term+@rn+@rel+111988-49-9
   3. http://toxnet.nlm.nih.gov/cgi-bin/sis/search/r?dbs+hsdb:@term+@rn+@rel+111988-49-9
   4. http://toxnet.nlm.nih.gov/cgi-bin/sis/search/r?dbs+hsdb:@term+@rn+@rel+111988-49-9
   5. http://toxnet.nlm.nih.gov/cgi-bin/sis/search/r?dbs+hsdb:@term+@rn+@rel+111988-49-9
   6. http://toxnet.nlm.nih.gov/cgi-bin/sis/search/r?dbs+hsdb:@term+@rn+@rel+111988-49-9
   7. http://toxnet.nlm.nih.gov/cgi-bin/sis/search/r?dbs+hsdb:@term+@rn+@rel+111988-49-9
   8. http://toxnet.nlm.nih.gov/cgi-bin/sis/search/r?dbs+hsdb:@term+@rn+@rel+111988-49-9
   9. http://toxnet.nlm.nih.gov/cgi-bin/sis/search/r?dbs+hsdb:@term+@rn+@rel+111988-49-9
  10. http://toxnet.nlm.nih.gov/cgi-bin/sis/search/r?dbs+hsdb:@term+@rn+@rel+111988-49-9
  11. http://pubchem.ncbi.nlm.nih.gov/vw3d/vw3d.cgi?cid=115224
