439474
  -OEChem-07051212452D

 35 35  0     1  0  0  0  0  0999 V2000
    5.1350    2.8245    0.0000 P   0  0  0  0  0  0  0  0  0  0  0  0
    4.2690    2.3245    0.0000 O   0  0  0  0  0  0  0  0  0  0  0  0
    6.0010    1.3245    0.0000 O   0  0  0  0  0  0  0  0  0  0  0  0
    2.5369    1.3245    0.0000 O   0  0  0  0  0  0  0  0  0  0  0  0
    6.0010   -0.6755    0.0000 O   0  0  0  0  0  0  0  0  0  0  0  0
    2.5369   -0.6755    0.0000 O   0  0  0  0  0  0  0  0  0  0  0  0
    6.0010    3.3245    0.0000 O   0  0  0  0  0  0  0  0  0  0  0  0
    4.6350    3.6905    0.0000 O   0  0  0  0  0  0  0  0  0  0  0  0
    5.6350    1.9585    0.0000 O   0  0  0  0  0  0  0  0  0  0  0  0
    4.2690   -1.6755    0.0000 N   0  0  0  0  0  0  0  0  0  0  0  0
    4.2690   -3.4076    0.0000 N   0  0  0  0  0  0  0  0  0  0  0  0
    2.7689   -2.5414    0.0000 N   0  0  0  0  0  0  0  0  0  0  0  0
    4.2690    1.3245    0.0000 C   0  0  0  0  0  0  0  0  0  0  0  0
    4.2690   -0.6755    0.0000 C   0  0  0  0  0  0  0  0  0  0  0  0
    3.4030    0.8245    0.0000 C   0  0  1  0  0  0  0  0  0  0  0  0
    5.1350    0.8245    0.0000 C   0  0  2  0  0  0  0  0  0  0  0  0
    3.4030   -0.1755    0.0000 C   0  0  1  0  0  0  0  0  0  0  0  0
    5.1350   -0.1755    0.0000 C   0  0  2  0  0  0  0  0  0  0  0  0
    3.7690   -2.5415    0.0000 C   0  0  0  0  0  0  0  0  0  0  0  0
    4.8059    1.6345    0.0000 H   0  0  0  0  0  0  0  0  0  0  0  0
    4.8059   -0.9855    0.0000 H   0  0  0  0  0  0  0  0  0  0  0  0
    3.4030    1.4445    0.0000 H   0  0  0  0  0  0  0  0  0  0  0  0
    5.1350    1.4445    0.0000 H   0  0  0  0  0  0  0  0  0  0  0  0
    3.4030   -0.7955    0.0000 H   0  0  0  0  0  0  0  0  0  0  0  0
    5.1350   -0.7955    0.0000 H   0  0  0  0  0  0  0  0  0  0  0  0
    2.0000    1.0145    0.0000 H   0  0  0  0  0  0  0  0  0  0  0  0
    6.5380    1.0145    0.0000 H   0  0  0  0  0  0  0  0  0  0  0  0
    6.0010   -1.2955    0.0000 H   0  0  0  0  0  0  0  0  0  0  0  0
    2.0000   -0.3655    0.0000 H   0  0  0  0  0  0  0  0  0  0  0  0
    6.0010    3.9445    0.0000 H   0  0  0  0  0  0  0  0  0  0  0  0
    4.0150    3.6905    0.0000 H   0  0  0  0  0  0  0  0  0  0  0  0
    2.4589   -3.0784    0.0000 H   0  0  0  0  0  0  0  0  0  0  0  0
    2.4590   -2.0046    0.0000 H   0  0  0  0  0  0  0  0  0  0  0  0
    3.9590   -3.9445    0.0000 H   0  0  0  0  0  0  0  0  0  0  0  0
    4.8891   -3.4075    0.0000 H   0  0  0  0  0  0  0  0  0  0  0  0
  1  2  1  0  0  0  0
  1  7  1  0  0  0  0
  1  8  1  0  0  0  0
  1  9  2  0  0  0  0
  2 13  1  0  0  0  0
 16  3  1  1  0  0  0
  3 27  1  0  0  0  0
 15  4  1  1  0  0  0
  4 26  1  0  0  0  0
 18  5  1  6  0  0  0
  5 28  1  0  0  0  0
 17  6  1  6  0  0  0
  6 29  1  0  0  0  0
  7 30  1  0  0  0  0
  8 31  1  0  0  0  0
 10 14  1  0  0  0  0
 10 19  2  0  0  0  0
 11 19  1  0  0  0  0
 11 34  1  0  0  0  0
 11 35  1  0  0  0  0
 12 19  1  0  0  0  0
 12 32  1  0  0  0  0
 12 33  1  0  0  0  0
 13 15  1  0  0  0  0
 13 16  1  0  0  0  0
 13 20  1  0  0  0  0
 14 17  1  0  0  0  0
 14 18  1  0  0  0  0
 14 21  1  0  0  0  0
 15 17  1  0  0  0  0
 15 22  1  0  0  0  0
 16 18  1  0  0  0  0
 16 23  1  0  0  0  0
 17 24  1  0  0  0  0
 18 25  1  0  0  0  0
M  END
> <PUBCHEM_COMPOUND_CID>
439474

> <PUBCHEM_COMPOUND_CANONICALIZED>
1

> <PUBCHEM_CACTVS_COMPLEXITY>
380

> <PUBCHEM_CACTVS_HBOND_ACCEPTOR>
9

> <PUBCHEM_CACTVS_HBOND_DONOR>
8

> <PUBCHEM_CACTVS_ROTATABLE_BOND>
3

> <PUBCHEM_CACTVS_SUBSKEYS>
AAADceBjPAIAAAAAAAAAAAAAAAAAAAAAAAAwAAAAAAAAAAAAAAAAHgAQCCAACDzhgAYBAAJAAxAgQAAAJIAAAAEAAAAAAAAAAAADEAIAgAAAQAAHAAABAAHwcAUAAAAAAAAAAAACgAAUAACgAAAAAAAAAA==

> <PUBCHEM_IUPAC_OPENEYE_NAME>
[(2R,3S,5R,6S)-4-guanidino-2,3,5,6-tetrahydroxy-cyclohexyl] dihydrogen phosphate

> <PUBCHEM_IUPAC_CAS_NAME>
[(2R,3S,5R,6S)-4-(diaminomethylideneamino)-2,3,5,6-tetrahydroxycyclohexyl] dihydrogen phosphate

> <PUBCHEM_IUPAC_NAME>
[(2R,3S,5R,6S)-4-(diaminomethylideneamino)-2,3,5,6-tetrahydroxycyclohexyl] dihydrogen phosphate

> <PUBCHEM_IUPAC_SYSTEMATIC_NAME>
[(2R,3S,5R,6S)-4-[bis(azanyl)methylideneamino]-2,3,5,6-tetrakis(oxidanyl)cyclohexyl] dihydrogen phosphate

> <PUBCHEM_IUPAC_TRADITIONAL_NAME>
[(2R,3S,5R,6S)-4-guanidino-2,3,5,6-tetrahydroxy-cyclohexyl] dihydrogen phosphate

> <PUBCHEM_IUPAC_INCHI>
InChI=1S/C7H16N3O8P/c8-7(9)10-1-2(11)4(13)6(5(14)3(1)12)18-19(15,16)17/h1-6,11-14H,(H4,8,9,10)(H2,15,16,17)/t1?,2-,3+,4+,5-,6?

> <PUBCHEM_IUPAC_INCHIKEY>
LQSANMIGNWXLNF-UYSNGIAKSA-N

> <PUBCHEM_XLOGP3_AA>
-5.7

> <PUBCHEM_EXACT_MASS>
301.067501

> <PUBCHEM_MOLECULAR_FORMULA>
C7H16N3O8P

> <PUBCHEM_MOLECULAR_WEIGHT>
301.191002

> <PUBCHEM_OPENEYE_CAN_SMILES>
C1(C(C(C(C(C1O)O)OP(=O)(O)O)O)O)N=C(N)N

> <PUBCHEM_OPENEYE_ISO_SMILES>
[C@H]1([C@H](C([C@H]([C@@H](C1N=C(N)N)O)O)OP(=O)(O)O)O)O

> <PUBCHEM_CACTVS_TPSA>
212

> <PUBCHEM_MONOISOTOPIC_WEIGHT>
301.067501

> <PUBCHEM_TOTAL_CHARGE>
0

> <PUBCHEM_HEAVY_ATOM_COUNT>
19

> <PUBCHEM_ATOM_DEF_STEREO_COUNT>
4

> <PUBCHEM_ATOM_UDEF_STEREO_COUNT>
0

> <PUBCHEM_BOND_DEF_STEREO_COUNT>
0

> <PUBCHEM_BOND_UDEF_STEREO_COUNT>
0

> <PUBCHEM_ISOTOPIC_ATOM_COUNT>
0

> <PUBCHEM_COMPONENT_COUNT>
1

> <PUBCHEM_CACTVS_TAUTO_COUNT>
2

> <PUBCHEM_COORDINATE_TYPE>
1
5
255

> <PUBCHEM_BONDANNOTATIONS>
16  3  5
15  4  5
18  5  6
17  6  6

$$$$

