   Color/Form

     * White crystals
     * Crystals
     * Needles

   from [1]HSDB

   Odor
        Odorless
   from [2]HSDB

   Boiling Point
        273 deg C
   from [3]HSDB

   Melting Point
        158.5 deg C
   from [4]HSDB

   Dissociation Constants
        pKa= 9.17
   from [5]HSDB

   Octanol/Water Partition Coefficient
        log Kow = -0.76
   from [6]HSDB

   Solubilities

     * Soluble in water
     * Soluble in water, ethyl ether, and benzene; very soluble in ethanol
     * Soluble in oxygenated solvents

   from [7]HSDB

   Spectral Properties

     * IR: 9495 (Sadtler Research Laboratories Prism Collection)
     * UV: 5-33 (Organic Electronic Spectral Data, Phillips et al, John
       Wiley & Sons, New York)
     * NMR: 16048 (Sadtler Research Laboratories Spectral Collection)
     * MASS: 28 (Aldermaston, Eight Peak Index of Mass Spectra, UK)

   from [8]HSDB

   Computed Properties
   Molecular Weight                  94.11454 [g/mol]
   Molecular Formula                 C[5]H[6]N[2]
   XLogP3                            0.3
   H-Bond Donor                      1
   H-Bond Acceptor                   2
   Rotatable Bond Count              0
   Tautomer Count                    2
   Exact Mass                        94.053098
   MonoIsotopic Mass                 94.053098
   Topological Polar Surface Area    38.9
   Heavy Atom Count                  7
   Formal Charge                     0
   Complexity                        48
   Isotope Atom Count                0
   Defined Atom Stereocenter Count   0
   Undefined Atom Stereocenter Count 0
   Defined Bond Stereocenter Count   0
   Undefined Bond Stereocenter Count 0
   Covalently-Bonded Unit Count      1
   Feature 3D Acceptor Count         1
   Feature 3D Donor Count            1
   Feature 3D Cation Count           1
   Feature 3D Ring Count             1
   Effective Rotor Count             0
   Conformer Sampling RMSD           0.4
   CID Conformer Count               [9]1

References

   1. http://toxnet.nlm.nih.gov/cgi-bin/sis/search/r?dbs+hsdb:@term+@rn+@rel+504-24-5
   2. http://toxnet.nlm.nih.gov/cgi-bin/sis/search/r?dbs+hsdb:@term+@rn+@rel+504-24-5
   3. http://toxnet.nlm.nih.gov/cgi-bin/sis/search/r?dbs+hsdb:@term+@rn+@rel+504-24-5
   4. http://toxnet.nlm.nih.gov/cgi-bin/sis/search/r?dbs+hsdb:@term+@rn+@rel+504-24-5
   5. http://toxnet.nlm.nih.gov/cgi-bin/sis/search/r?dbs+hsdb:@term+@rn+@rel+504-24-5
   6. http://toxnet.nlm.nih.gov/cgi-bin/sis/search/r?dbs+hsdb:@term+@rn+@rel+504-24-5
   7. http://toxnet.nlm.nih.gov/cgi-bin/sis/search/r?dbs+hsdb:@term+@rn+@rel+504-24-5
   8. http://toxnet.nlm.nih.gov/cgi-bin/sis/search/r?dbs+hsdb:@term+@rn+@rel+504-24-5
   9. http://pubchem.ncbi.nlm.nih.gov/vw3d/vw3d.cgi?cid=1727
