   Color/Form
        LIQUID
   from [1]HSDB

   Odor

     * PENETRATING ODOR
     * ACRID

   from [2]HSDB

   Boiling Point
        107-108 DEG C @ 760 MM HG
   from [3]HSDB

   Density/Specific Gravity
        1.5315 @ 16 DEG C/4 DEG C
   from [4]HSDB

   Solubilities
        SOL IN ETHER
   from [5]HSDB

   Spectral Properties

     * INDEX OF REFRACTION: 1.4638 @ 16 DEG C/D
     * IR: 2378 (Coblentz Society Spectral Collection)
     * MASS: 813 (Atlas of Mass Spectral Data, John Wiley & Sons, New
       York)
     * MASS: 408 (National Bureau of Standards EPA-NIH Mass Spectra Data
       Base, NSRDS-NBS-63)

   from [6]HSDB

   Vapor Density
        5.1 (AIR= 1)
   from [7]HSDB

   Other Chemical/Physical Properties
        DECOMPOSES UPON CONTACT WITH WATER & ALCOHOL
   from [8]HSDB

   Computed Properties
   Molecular Weight                  147.38774 [g/mol]
   Molecular Formula                 C[2]HCl[3]O
   XLogP3-AA                         2.1
   H-Bond Donor                      0
   H-Bond Acceptor                   1
   Rotatable Bond Count              1
   Exact Mass                        145.909298
   MonoIsotopic Mass                 145.909298
   Topological Polar Surface Area    17.1
   Heavy Atom Count                  6
   Formal Charge                     0
   Complexity                        59.8
   Isotope Atom Count                0
   Defined Atom Stereocenter Count   0
   Undefined Atom Stereocenter Count 0
   Defined Bond Stereocenter Count   0
   Undefined Bond Stereocenter Count 0
   Covalently-Bonded Unit Count      1
   Effective Rotor Count             1
   Conformer Sampling RMSD           0.4
   CID Conformer Count               [9]6

References

   1. http://toxnet.nlm.nih.gov/cgi-bin/sis/search/r?dbs+hsdb:@term+@rn+@rel+79-36-7
   2. http://toxnet.nlm.nih.gov/cgi-bin/sis/search/r?dbs+hsdb:@term+@rn+@rel+79-36-7
   3. http://toxnet.nlm.nih.gov/cgi-bin/sis/search/r?dbs+hsdb:@term+@rn+@rel+79-36-7
   4. http://toxnet.nlm.nih.gov/cgi-bin/sis/search/r?dbs+hsdb:@term+@rn+@rel+79-36-7
   5. http://toxnet.nlm.nih.gov/cgi-bin/sis/search/r?dbs+hsdb:@term+@rn+@rel+79-36-7
   6. http://toxnet.nlm.nih.gov/cgi-bin/sis/search/r?dbs+hsdb:@term+@rn+@rel+79-36-7
   7. http://toxnet.nlm.nih.gov/cgi-bin/sis/search/r?dbs+hsdb:@term+@rn+@rel+79-36-7
   8. http://toxnet.nlm.nih.gov/cgi-bin/sis/search/r?dbs+hsdb:@term+@rn+@rel+79-36-7
   9. http://pubchem.ncbi.nlm.nih.gov/vw3d/vw3d.cgi?cid=6593
