   Boiling Point
        180-185 deg C
   from [1]HSDB

   Melting Point
        -5.4 deg C
   from [2]HSDB

   Density/Specific Gravity
        0.9961 g/cu cm @ 25 deg C
   from [3]HSDB

   Dissociation Constants
        pKa = -0.04 @ 20 deg C
   from [4]HSDB

   Octanol/Water Partition Coefficient
        log Kow = -0.97
   from [5]HSDB

   Solubilities

     * Very soluble in acetone, ethanol.
     * Miscible in water

   from [6]HSDB

   Spectral Properties

     * Index of refraction: 1.4319 @ 20 deg C/D
     * IR: 10961 (Sadtler Research Laboratories Prism Collection)
     * NMR: 9350 (Sadtler Research Laboratories Spectral Collection)
     * MASS: NIST 143 (NIST/EPA/MCDC Mass Spectral Database 1990 version);
       NBS 304 (National Bureau of Standards)

   from [7]HSDB

   Surface Tension
        37.96 dynes/cm @ 30 deg C; 35.02 dynes/cm @ 50 deg C
   from [8]HSDB

   Vapor Pressure
        0.253 mm Hg @ 25 deg C
   from [9]HSDB

   Viscosity
        1.99 mN/s/m @ 15 deg C; 1.65 mN/s/m @ 25 deg C
   from [10]HSDB

   Other Chemical/Physical Properties
        Dielectric constant: 200.1 @ 15 deg C; 182.4 @ 25 deg C
   from [11]HSDB

   Computed Properties
   Molecular Weight                  59.0672 [g/mol]
   Molecular Formula                 C[2]H[5]NO
   XLogP3                            -1
   H-Bond Donor                      1
   H-Bond Acceptor                   1
   Rotatable Bond Count              0
   Tautomer Count                    2
   Exact Mass                        59.037114
   MonoIsotopic Mass                 59.037114
   Topological Polar Surface Area    29.1
   Heavy Atom Count                  4
   Formal Charge                     0
   Complexity                        20
   Isotope Atom Count                0
   Defined Atom Stereocenter Count   0
   Undefined Atom Stereocenter Count 0
   Defined Bond Stereocenter Count   0
   Undefined Bond Stereocenter Count 0
   Covalently-Bonded Unit Count      1
   Feature 3D Acceptor Count         1
   Feature 3D Donor Count            1
   Effective Rotor Count             1
   Conformer Sampling RMSD           0.4
   CID Conformer Count               [12]2

References

   1. http://toxnet.nlm.nih.gov/cgi-bin/sis/search/r?dbs+hsdb:@term+@rn+@rel+123-39-7
   2. http://toxnet.nlm.nih.gov/cgi-bin/sis/search/r?dbs+hsdb:@term+@rn+@rel+123-39-7
   3. http://toxnet.nlm.nih.gov/cgi-bin/sis/search/r?dbs+hsdb:@term+@rn+@rel+123-39-7
   4. http://toxnet.nlm.nih.gov/cgi-bin/sis/search/r?dbs+hsdb:@term+@rn+@rel+123-39-7
   5. http://toxnet.nlm.nih.gov/cgi-bin/sis/search/r?dbs+hsdb:@term+@rn+@rel+123-39-7
   6. http://toxnet.nlm.nih.gov/cgi-bin/sis/search/r?dbs+hsdb:@term+@rn+@rel+123-39-7
   7. http://toxnet.nlm.nih.gov/cgi-bin/sis/search/r?dbs+hsdb:@term+@rn+@rel+123-39-7
   8. http://toxnet.nlm.nih.gov/cgi-bin/sis/search/r?dbs+hsdb:@term+@rn+@rel+123-39-7
   9. http://toxnet.nlm.nih.gov/cgi-bin/sis/search/r?dbs+hsdb:@term+@rn+@rel+123-39-7
  10. http://toxnet.nlm.nih.gov/cgi-bin/sis/search/r?dbs+hsdb:@term+@rn+@rel+123-39-7
  11. http://toxnet.nlm.nih.gov/cgi-bin/sis/search/r?dbs+hsdb:@term+@rn+@rel+123-39-7
  12. http://pubchem.ncbi.nlm.nih.gov/vw3d/vw3d.cgi?cid=31254
