117
  -OEChem-07051212502D

 14 14  0     0  0  0  0  0  0999 V2000
    4.7770   -1.7110    0.0000 O   0  0  0  0  0  0  0  0  0  0  0  0
    5.3122   -0.0637    0.0000 O   0  0  0  0  0  0  0  0  0  0  0  0
    2.8090   -1.0116    0.0000 N   0  0  0  0  0  0  0  0  0  0  0  0
    2.3090    0.5272    0.0000 N   0  0  0  0  0  0  0  0  0  0  0  0
    3.8968    1.3362    0.0000 N   0  0  0  0  0  0  0  0  0  0  0  0
    3.6180   -0.4239    0.0000 C   0  0  0  0  0  0  0  0  0  0  0  0
    3.3090    0.5272    0.0000 C   0  0  0  0  0  0  0  0  0  0  0  0
    2.0000   -0.4239    0.0000 C   0  0  0  0  0  0  0  0  0  0  0  0
    4.5691   -0.7329    0.0000 C   0  0  0  0  0  0  0  0  0  0  0  0
    2.8090   -1.6316    0.0000 H   0  0  0  0  0  0  0  0  0  0  0  0
    1.4103   -0.6154    0.0000 H   0  0  0  0  0  0  0  0  0  0  0  0
    3.6446    1.9026    0.0000 H   0  0  0  0  0  0  0  0  0  0  0  0
    4.5134    1.2714    0.0000 H   0  0  0  0  0  0  0  0  0  0  0  0
    5.3667   -1.9026    0.0000 H   0  0  0  0  0  0  0  0  0  0  0  0
  1  9  1  0  0  0  0
  1 14  1  0  0  0  0
  2  9  2  0  0  0  0
  3  6  1  0  0  0  0
  3  8  1  0  0  0  0
  3 10  1  0  0  0  0
  4  7  1  0  0  0  0
  4  8  2  0  0  0  0
  5  7  1  0  0  0  0
  5 12  1  0  0  0  0
  5 13  1  0  0  0  0
  6  7  2  0  0  0  0
  6  9  1  0  0  0  0
  8 11  1  0  0  0  0
M  END
> <PUBCHEM_COMPOUND_CID>
117

> <PUBCHEM_COMPOUND_CANONICALIZED>
1

> <PUBCHEM_CACTVS_COMPLEXITY>
127

> <PUBCHEM_CACTVS_HBOND_ACCEPTOR>
4

> <PUBCHEM_CACTVS_HBOND_DONOR>
3

> <PUBCHEM_CACTVS_ROTATABLE_BOND>
1

> <PUBCHEM_CACTVS_SUBSKEYS>
AAADcYBjMAAAAAAAAAAAAAAAAAAAAWAAAAAAAAAAAAAAAAABgAAAHgAQCAAACAgBlgQFuBbJkgCoAQbxbAQAgC2XEKABUYGoWECCTAhACCAUQIAKAAJQEGAAAAAAAAAAAAAAAAAAAAAAAAAAAAAAAAAAAA==

> <PUBCHEM_IUPAC_OPENEYE_NAME>
4-amino-1H-imidazole-5-carboxylic acid

> <PUBCHEM_IUPAC_CAS_NAME>
4-amino-1H-imidazole-5-carboxylic acid

> <PUBCHEM_IUPAC_NAME>
4-amino-1H-imidazole-5-carboxylic acid

> <PUBCHEM_IUPAC_SYSTEMATIC_NAME>
4-azanyl-1H-imidazole-5-carboxylic acid

> <PUBCHEM_IUPAC_TRADITIONAL_NAME>
4-amino-1H-imidazole-5-carboxylic acid

> <PUBCHEM_IUPAC_INCHI>
InChI=1S/C4H5N3O2/c5-3-2(4(8)9)6-1-7-3/h1H,5H2,(H,6,7)(H,8,9)

> <PUBCHEM_IUPAC_INCHIKEY>
PWCLNQLPYQVWAB-UHFFFAOYSA-N

> <PUBCHEM_XLOGP3_AA>
0.1

> <PUBCHEM_EXACT_MASS>
127.038176

> <PUBCHEM_MOLECULAR_FORMULA>
C4H5N3O2

> <PUBCHEM_MOLECULAR_WEIGHT>
127.1014

> <PUBCHEM_OPENEYE_CAN_SMILES>
C1=NC(=C(N1)C(=O)O)N

> <PUBCHEM_OPENEYE_ISO_SMILES>
C1=NC(=C(N1)C(=O)O)N

> <PUBCHEM_CACTVS_TPSA>
92

> <PUBCHEM_MONOISOTOPIC_WEIGHT>
127.038176

> <PUBCHEM_TOTAL_CHARGE>
0

> <PUBCHEM_HEAVY_ATOM_COUNT>
9

> <PUBCHEM_ATOM_DEF_STEREO_COUNT>
0

> <PUBCHEM_ATOM_UDEF_STEREO_COUNT>
0

> <PUBCHEM_BOND_DEF_STEREO_COUNT>
0

> <PUBCHEM_BOND_UDEF_STEREO_COUNT>
0

> <PUBCHEM_ISOTOPIC_ATOM_COUNT>
0

> <PUBCHEM_COMPONENT_COUNT>
1

> <PUBCHEM_CACTVS_TAUTO_COUNT>
8

> <PUBCHEM_COORDINATE_TYPE>
1
5
255

> <PUBCHEM_BONDANNOTATIONS>
3  6  8
3  8  8
4  7  8
4  8  8
6  7  8

$$$$

