439572
  -OEChem-07051212462D

 59 61  0     1  0  0  0  0  0999 V2000
    6.3301   -1.1191    0.0000 P   0  0  3  0  0  0  0  0  0  0  0  0
    5.4641   -2.6191    0.0000 P   0  0  3  0  0  0  0  0  0  0  0  0
    8.1667    1.8754    0.0000 O   0  0  0  0  0  0  0  0  0  0  0  0
    3.7320   -3.6191    0.0000 O   0  0  0  0  0  0  0  0  0  0  0  0
    9.1836   -0.5040    0.0000 O   0  0  0  0  0  0  0  0  0  0  0  0
   10.6394    1.1128    0.0000 O   0  0  0  0  0  0  0  0  0  0  0  0
    7.1962   -0.6191    0.0000 O   0  0  0  0  0  0  0  0  0  0  0  0
    5.4641   -3.6191    0.0000 O   0  0  0  0  0  0  0  0  0  0  0  0
    2.0000   -5.6191    0.0000 O   0  0  0  0  0  0  0  0  0  0  0  0
    5.4641   -5.6191    0.0000 O   0  0  0  0  0  0  0  0  0  0  0  0
    5.4641   -1.6191    0.0000 O   0  0  0  0  0  0  0  0  0  0  0  0
   11.1339    2.2924    0.0000 O   0  0  0  0  0  0  0  0  0  0  0  0
    5.8301   -0.2531    0.0000 O   0  0  0  0  0  0  0  0  0  0  0  0
    6.4641   -2.6191    0.0000 O   0  0  0  0  0  0  0  0  0  0  0  0
    6.8301   -1.9851    0.0000 O   0  0  0  0  0  0  0  0  0  0  0  0
    4.4641   -2.6191    0.0000 O   0  0  0  0  0  0  0  0  0  0  0  0
    9.5516    2.9969    0.0000 N   0  0  0  0  0  0  0  0  0  0  0  0
   10.9528    4.0150    0.0000 N   0  0  0  0  0  0  0  0  0  0  0  0
   10.7718    5.7375    0.0000 N   0  0  0  0  0  0  0  0  0  0  0  0
    8.9757    0.4742    0.0000 C   0  0  1  0  0  0  0  0  0  0  0  0
    9.6448    1.2173    0.0000 C   0  0  2  0  0  0  0  0  0  0  0  0
    8.0622    0.8809    0.0000 C   0  0  1  0  0  0  0  0  0  0  0  0
    9.1448    2.0833    0.0000 C   0  0  1  0  0  0  0  0  0  0  0  0
    7.1962    0.3809    0.0000 C   0  0  0  0  0  0  0  0  0  0  0  0
    2.8660   -5.1191    0.0000 C   0  0  2  0  0  0  0  0  0  0  0  0
    3.7320   -5.6191    0.0000 C   0  0  0  0  0  0  0  0  0  0  0  0
    4.5981   -5.1191    0.0000 C   0  0  2  0  0  0  0  0  0  0  0  0
    2.8660   -4.1191    0.0000 C   0  0  1  0  0  0  0  0  0  0  0  0
    4.5981   -4.1191    0.0000 C   0  0  2  0  0  0  0  0  0  0  0  0
    2.0000   -3.6191    0.0000 C   0  0  0  0  0  0  0  0  0  0  0  0
    8.9638    3.8059    0.0000 C   0  0  0  0  0  0  0  0  0  0  0  0
   10.5461    3.1014    0.0000 C   0  0  0  0  0  0  0  0  0  0  0  0
    9.3705    4.7194    0.0000 C   0  0  0  0  0  0  0  0  0  0  0  0
   10.3651    4.8240    0.0000 C   0  0  0  0  0  0  0  0  0  0  0  0
    9.5746    0.3137    0.0000 H   0  0  0  0  0  0  0  0  0  0  0  0
    9.9825    1.7373    0.0000 H   0  0  0  0  0  0  0  0  0  0  0  0
    7.5422    1.2186    0.0000 H   0  0  0  0  0  0  0  0  0  0  0  0
    8.7547    2.5652    0.0000 H   0  0  0  0  0  0  0  0  0  0  0  0
    6.9841    0.9635    0.0000 H   0  0  0  0  0  0  0  0  0  0  0  0
    6.5856    0.2732    0.0000 H   0  0  0  0  0  0  0  0  0  0  0  0
    2.8660   -5.7391    0.0000 H   0  0  0  0  0  0  0  0  0  0  0  0
    3.3335   -6.0940    0.0000 H   0  0  0  0  0  0  0  0  0  0  0  0
    4.1306   -6.0940    0.0000 H   0  0  0  0  0  0  0  0  0  0  0  0
    4.5981   -5.7391    0.0000 H   0  0  0  0  0  0  0  0  0  0  0  0
    2.8660   -3.4991    0.0000 H   0  0  0  0  0  0  0  0  0  0  0  0
    4.5981   -3.4991    0.0000 H   0  0  0  0  0  0  0  0  0  0  0  0
    9.7733   -0.6956    0.0000 H   0  0  0  0  0  0  0  0  0  0  0  0
   10.8916    0.5464    0.0000 H   0  0  0  0  0  0  0  0  0  0  0  0
    2.3100   -3.0822    0.0000 H   0  0  0  0  0  0  0  0  0  0  0  0
    1.4631   -3.3091    0.0000 H   0  0  0  0  0  0  0  0  0  0  0  0
    1.6900   -4.1560    0.0000 H   0  0  0  0  0  0  0  0  0  0  0  0
    8.3472    3.7411    0.0000 H   0  0  0  0  0  0  0  0  0  0  0  0
    2.0000   -6.2391    0.0000 H   0  0  0  0  0  0  0  0  0  0  0  0
    5.4641   -6.2391    0.0000 H   0  0  0  0  0  0  0  0  0  0  0  0
    9.0061    5.2210    0.0000 H   0  0  0  0  0  0  0  0  0  0  0  0
    5.2101   -0.2531    0.0000 H   0  0  0  0  0  0  0  0  0  0  0  0
    6.7741   -3.1560    0.0000 H   0  0  0  0  0  0  0  0  0  0  0  0
   10.4074    6.2391    0.0000 H   0  0  0  0  0  0  0  0  0  0  0  0
   11.3884    5.8023    0.0000 H   0  0  0  0  0  0  0  0  0  0  0  0
  1  7  1  0  0  0  0
  1 11  1  0  0  0  0
  1 13  1  0  0  0  0
  1 15  2  0  0  0  0
  2  8  1  0  0  0  0
  2 11  1  0  0  0  0
  2 14  1  0  0  0  0
  2 16  2  0  0  0  0
  3 22  1  0  0  0  0
  3 23  1  0  0  0  0
  4 28  1  0  0  0  0
  4 29  1  0  0  0  0
 20  5  1  6  0  0  0
  5 47  1  0  0  0  0
 21  6  1  6  0  0  0
  6 48  1  0  0  0  0
  7 24  1  0  0  0  0
 29  8  1  6  0  0  0
 25  9  1  1  0  0  0
  9 53  1  0  0  0  0
 27 10  1  6  0  0  0
 10 54  1  0  0  0  0
 12 32  2  0  0  0  0
 13 56  1  0  0  0  0
 14 57  1  0  0  0  0
 23 17  1  1  0  0  0
 17 31  1  0  0  0  0
 17 32  1  0  0  0  0
 18 32  1  0  0  0  0
 18 34  2  0  0  0  0
 19 34  1  0  0  0  0
 19 58  1  0  0  0  0
 19 59  1  0  0  0  0
 20 21  1  0  0  0  0
 20 22  1  0  0  0  0
 20 35  1  0  0  0  0
 21 23  1  0  0  0  0
 21 36  1  0  0  0  0
 22 24  1  1  0  0  0
 22 37  1  0  0  0  0
 23 38  1  0  0  0  0
 24 39  1  0  0  0  0
 24 40  1  0  0  0  0
 25 26  1  0  0  0  0
 25 28  1  0  0  0  0
 25 41  1  0  0  0  0
 26 27  1  0  0  0  0
 26 42  1  0  0  0  0
 26 43  1  0  0  0  0
 27 29  1  0  0  0  0
 27 44  1  0  0  0  0
 28 30  1  1  0  0  0
 28 45  1  0  0  0  0
 29 46  1  0  0  0  0
 30 49  1  0  0  0  0
 30 50  1  0  0  0  0
 30 51  1  0  0  0  0
 31 33  2  0  0  0  0
 31 52  1  0  0  0  0
 33 34  1  0  0  0  0
 33 55  1  0  0  0  0
M  END
> <PUBCHEM_COMPOUND_CID>
439572

> <PUBCHEM_COMPOUND_CANONICALIZED>
1

> <PUBCHEM_CACTVS_COMPLEXITY>
932

> <PUBCHEM_CACTVS_HBOND_ACCEPTOR>
14

> <PUBCHEM_CACTVS_HBOND_DONOR>
7

> <PUBCHEM_CACTVS_ROTATABLE_BOND>
8

> <PUBCHEM_CACTVS_SUBSKEYS>
AAADceBzPAMAAAAAAAAAAAAAAAAAASAAAAAkQAAAAAAAAAAAAAAAHgAQCCAACBTxgAcDCANABxCoQCJmdICAAAEAAgAIAAAYABCTEAIAgAAOQAAHFgIXAAHwcAYAAAAAAAAAAAAAAAAAAAAAAAAAAAAAAA==

> <PUBCHEM_IUPAC_OPENEYE_NAME>
[[(2R,3S,4R,5R)-5-(4-amino-2-oxo-pyrimidin-1-yl)-3,4-dihydroxy-tetrahydrofuran-2-yl]methoxy-hydroxy-phosphoryl] [(2R,3R,5R,6R)-3,5-dihydroxy-6-methyl-tetrahydropyran-2-yl] hydrogen phosphate

> <PUBCHEM_IUPAC_CAS_NAME>
[[(2R,3S,4R,5R)-5-(4-amino-2-oxo-1-pyrimidinyl)-3,4-dihydroxy-2-oxolanyl]methoxy-hydroxyphosphoryl] [(2R,3R,5R,6R)-3,5-dihydroxy-6-methyl-2-oxanyl] hydrogen phosphate

> <PUBCHEM_IUPAC_NAME>
[[(2R,3S,4R,5R)-5-(4-amino-2-oxopyrimidin-1-yl)-3,4-dihydroxyoxolan-2-yl]methoxy-hydroxyphosphoryl] [(2R,3R,5R,6R)-3,5-dihydroxy-6-methyloxan-2-yl] hydrogen phosphate

> <PUBCHEM_IUPAC_SYSTEMATIC_NAME>
[[(2R,3S,4R,5R)-5-(4-azanyl-2-oxidanylidene-pyrimidin-1-yl)-3,4-bis(oxidanyl)oxolan-2-yl]methoxy-oxidanyl-phosphoryl] [(2R,3R,5R,6R)-6-methyl-3,5-bis(oxidanyl)oxan-2-yl] hydrogen phosphate

> <PUBCHEM_IUPAC_TRADITIONAL_NAME>
[[(2R,3S,4R,5R)-5-(4-amino-2-keto-pyrimidin-1-yl)-3,4-dihydroxy-tetrahydrofuran-2-yl]methoxy-hydroxy-phosphoryl] [(2R,3R,5R,6R)-3,5-dihydroxy-6-methyl-tetrahydropyran-2-yl] hydrogen phosphate

> <PUBCHEM_IUPAC_INCHI>
InChI=1S/C15H25N3O14P2/c1-6-7(19)4-8(20)14(29-6)31-34(26,27)32-33(24,25)28-5-9-11(21)12(22)13(30-9)18-3-2-10(16)17-15(18)23/h2-3,6-9,11-14,19-22H,4-5H2,1H3,(H,24,25)(H,26,27)(H2,16,17,23)/t6-,7-,8-,9-,11-,12-,13-,14-/m1/s1

> <PUBCHEM_IUPAC_INCHIKEY>
JHEDABDMLBOYRG-YGBYUOMUSA-N

> <PUBCHEM_XLOGP3_AA>
-5.5

> <PUBCHEM_EXACT_MASS>
533.081176

> <PUBCHEM_MOLECULAR_FORMULA>
C15H25N3O14P2

> <PUBCHEM_MOLECULAR_WEIGHT>
533.318224

> <PUBCHEM_OPENEYE_CAN_SMILES>
CC1C(CC(C(O1)OP(=O)(O)OP(=O)(O)OCC2C(C(C(O2)N3C=CC(=NC3=O)N)O)O)O)O

> <PUBCHEM_OPENEYE_ISO_SMILES>
C[C@@H]1[C@@H](C[C@H]([C@H](O1)OP(=O)(O)OP(=O)(O)OC[C@@H]2[C@H]([C@H]([C@@H](O2)N3C=CC(=NC3=O)N)O)O)O)O

> <PUBCHEM_CACTVS_TPSA>
260

> <PUBCHEM_MONOISOTOPIC_WEIGHT>
533.081176

> <PUBCHEM_TOTAL_CHARGE>
0

> <PUBCHEM_HEAVY_ATOM_COUNT>
34

> <PUBCHEM_ATOM_DEF_STEREO_COUNT>
8

> <PUBCHEM_ATOM_UDEF_STEREO_COUNT>
0

> <PUBCHEM_BOND_DEF_STEREO_COUNT>
0

> <PUBCHEM_BOND_UDEF_STEREO_COUNT>
0

> <PUBCHEM_ISOTOPIC_ATOM_COUNT>
0

> <PUBCHEM_COMPONENT_COUNT>
1

> <PUBCHEM_CACTVS_TAUTO_COUNT>
3

> <PUBCHEM_COORDINATE_TYPE>
1
5
255

> <PUBCHEM_BONDANNOTATIONS>
27  10  6
23  17  5
17  31  8
17  32  8
18  32  8
18  34  8
22  24  5
28  30  5
31  33  8
33  34  8
20  5  6
21  6  6
29  8  6
25  9  5

$$$$

