440224
  -OEChem-07051212492D

 54 57  0     1  0  0  0  0  0999 V2000
    7.9821    2.2542    0.0000 O   0  0  0  0  0  0  0  0  0  0  0  0
    2.0000   -2.7977    0.0000 O   0  0  0  0  0  0  0  0  0  0  0  0
    9.9391    2.6666    0.0000 O   0  0  0  0  0  0  0  0  0  0  0  0
    7.3931    0.2546    0.0000 C   0  0  1  0  0  0  0  0  0  0  0  0
    7.3931   -0.7454    0.0000 C   0  0  2  0  0  0  0  0  0  0  0  0
    6.5271   -1.2454    0.0000 C   0  0  1  0  0  0  0  0  0  0  0  0
    5.6610   -0.7454    0.0000 C   0  0  1  0  0  0  0  0  0  0  0  0
    8.3393    0.5594    0.0000 C   0  0  2  0  0  0  0  0  0  0  0  0
    6.5271    0.7546    0.0000 C   0  0  0  0  0  0  0  0  0  0  0  0
    4.7510   -1.2522    0.0000 C   0  0  2  0  0  0  0  0  0  0  0  0
    8.3393   -1.0501    0.0000 C   0  0  0  0  0  0  0  0  0  0  0  0
    5.6610    0.2546    0.0000 C   0  0  0  0  0  0  0  0  0  0  0  0
    8.9229   -0.2454    0.0000 C   0  0  0  0  0  0  0  0  0  0  0  0
    6.5431   -2.2869    0.0000 C   0  0  0  0  0  0  0  0  0  0  0  0
    7.3931    1.2546    0.0000 C   0  0  0  0  0  0  0  0  0  0  0  0
    4.7430   -2.2938    0.0000 C   0  0  0  0  0  0  0  0  0  0  0  0
    5.6451   -2.8146    0.0000 C   0  0  0  0  0  0  0  0  0  0  0  0
    3.8242   -0.6881    0.0000 C   0  0  0  0  0  0  0  0  0  0  0  0
    8.6500    1.5099    0.0000 C   0  0  3  0  0  0  0  0  0  0  0  0
    4.7587   -0.2522    0.0000 C   0  0  0  0  0  0  0  0  0  0  0  0
    2.8763   -1.2161    0.0000 C   0  0  0  0  0  0  0  0  0  0  0  0
    3.8076   -2.8435    0.0000 C   0  0  0  0  0  0  0  0  0  0  0  0
    2.8680   -2.3010    0.0000 C   0  0  0  0  0  0  0  0  0  0  0  0
    9.6285    1.7161    0.0000 C   0  0  0  0  0  0  0  0  0  0  0  0
    7.4830   -1.5906    0.0000 H   0  0  0  0  0  0  0  0  0  0  0  0
    7.2664   -1.6647    0.0000 H   0  0  0  0  0  0  0  0  0  0  0  0
    6.3972   -0.3204    0.0000 H   0  0  0  0  0  0  0  0  0  0  0  0
    8.9518    0.6556    0.0000 H   0  0  0  0  0  0  0  0  0  0  0  0
    6.9256    1.2296    0.0000 H   0  0  0  0  0  0  0  0  0  0  0  0
    6.1285    1.2296    0.0000 H   0  0  0  0  0  0  0  0  0  0  0  0
    8.0883   -1.6170    0.0000 H   0  0  0  0  0  0  0  0  0  0  0  0
    8.8767   -1.3593    0.0000 H   0  0  0  0  0  0  0  0  0  0  0  0
    5.4490    0.8373    0.0000 H   0  0  0  0  0  0  0  0  0  0  0  0
    5.0504    0.1470    0.0000 H   0  0  0  0  0  0  0  0  0  0  0  0
    9.3838   -0.6601    0.0000 H   0  0  0  0  0  0  0  0  0  0  0  0
    9.3838    0.1694    0.0000 H   0  0  0  0  0  0  0  0  0  0  0  0
    6.7612   -2.8673    0.0000 H   0  0  0  0  0  0  0  0  0  0  0  0
    7.1523   -2.1714    0.0000 H   0  0  0  0  0  0  0  0  0  0  0  0
    8.0131    1.2546    0.0000 H   0  0  0  0  0  0  0  0  0  0  0  0
    7.3931    1.8746    0.0000 H   0  0  0  0  0  0  0  0  0  0  0  0
    6.7731    1.2546    0.0000 H   0  0  0  0  0  0  0  0  0  0  0  0
    5.2478   -3.2906    0.0000 H   0  0  0  0  0  0  0  0  0  0  0  0
    6.0460   -3.2875    0.0000 H   0  0  0  0  0  0  0  0  0  0  0  0
    4.2324   -0.2215    0.0000 H   0  0  0  0  0  0  0  0  0  0  0  0
    3.4343   -0.2061    0.0000 H   0  0  0  0  0  0  0  0  0  0  0  0
    7.8182    1.3346    0.0000 H   0  0  0  0  0  0  0  0  0  0  0  0
    5.3787   -0.2570    0.0000 H   0  0  0  0  0  0  0  0  0  0  0  0
    4.7635    0.3678    0.0000 H   0  0  0  0  0  0  0  0  0  0  0  0
    4.1388   -0.2474    0.0000 H   0  0  0  0  0  0  0  0  0  0  0  0
    2.6718   -0.6308    0.0000 H   0  0  0  0  0  0  0  0  0  0  0  0
    2.2647   -1.3174    0.0000 H   0  0  0  0  0  0  0  0  0  0  0  0
    3.8100   -3.4635    0.0000 H   0  0  0  0  0  0  0  0  0  0  0  0
   10.0425    1.2546    0.0000 H   0  0  0  0  0  0  0  0  0  0  0  0
    8.1747    2.8435    0.0000 H   0  0  0  0  0  0  0  0  0  0  0  0
  1 19  1  0  0  0  0
  1 54  1  0  0  0  0
  2 23  2  0  0  0  0
  3 24  2  0  0  0  0
  4  5  1  0  0  0  0
  4  8  1  0  0  0  0
  4  9  1  0  0  0  0
  4 15  1  1  0  0  0
  5  6  1  0  0  0  0
  5 11  1  0  0  0  0
  5 25  1  6  0  0  0
  6  7  1  0  0  0  0
  6 14  1  0  0  0  0
  6 26  1  1  0  0  0
  7 10  1  0  0  0  0
  7 12  1  0  0  0  0
  7 27  1  6  0  0  0
  8 13  1  0  0  0  0
  8 19  1  1  0  0  0
  8 28  1  0  0  0  0
  9 12  1  0  0  0  0
  9 29  1  0  0  0  0
  9 30  1  0  0  0  0
 10 16  1  0  0  0  0
 10 18  1  0  0  0  0
 10 20  1  1  0  0  0
 11 13  1  0  0  0  0
 11 31  1  0  0  0  0
 11 32  1  0  0  0  0
 12 33  1  0  0  0  0
 12 34  1  0  0  0  0
 13 35  1  0  0  0  0
 13 36  1  0  0  0  0
 14 17  1  0  0  0  0
 14 37  1  0  0  0  0
 14 38  1  0  0  0  0
 15 39  1  0  0  0  0
 15 40  1  0  0  0  0
 15 41  1  0  0  0  0
 16 17  1  0  0  0  0
 16 22  2  0  0  0  0
 17 42  1  0  0  0  0
 17 43  1  0  0  0  0
 18 21  1  0  0  0  0
 18 44  1  0  0  0  0
 18 45  1  0  0  0  0
 19 24  1  0  0  0  0
 19 46  1  0  0  0  0
 20 47  1  0  0  0  0
 20 48  1  0  0  0  0
 20 49  1  0  0  0  0
 21 23  1  0  0  0  0
 21 50  1  0  0  0  0
 21 51  1  0  0  0  0
 22 23  1  0  0  0  0
 22 52  1  0  0  0  0
 24 53  1  0  0  0  0
M  END
> <PUBCHEM_COMPOUND_CID>
440224

> <PUBCHEM_COMPOUND_CANONICALIZED>
1

> <PUBCHEM_CACTVS_COMPLEXITY>
594

> <PUBCHEM_CACTVS_HBOND_ACCEPTOR>
3

> <PUBCHEM_CACTVS_HBOND_DONOR>
1

> <PUBCHEM_CACTVS_ROTATABLE_BOND>
2

> <PUBCHEM_CACTVS_SUBSKEYS>
AAADceB4MAAAAAAAAAAAAAAAAAAAAYAAAAAwYIAAAAAAAGDAAAAAGgAACAAADxSggAICAAAAAgCIAqhSgAIAAAAgAAAACAFAAEgAEBIAAQAAQAAEgAAIAQOIyPCPgAAAAAAAAACAAAQAACAAAQAACAAAAA==

> <PUBCHEM_IUPAC_OPENEYE_NAME>
2-[(8S,9S,10R,13S,14S,17S)-10,13-dimethyl-3-oxo-1,2,6,7,8,9,11,12,14,15,16,17-dodecahydrocyclopenta[a]phenanthren-17-yl]-2-hydroxy-acetaldehyde

> <PUBCHEM_IUPAC_CAS_NAME>
2-[(8S,9S,10R,13S,14S,17S)-10,13-dimethyl-3-oxo-1,2,6,7,8,9,11,12,14,15,16,17-dodecahydrocyclopenta[a]phenanthren-17-yl]-2-hydroxyacetaldehyde

> <PUBCHEM_IUPAC_NAME>
2-[(8S,9S,10R,13S,14S,17S)-10,13-dimethyl-3-oxo-1,2,6,7,8,9,11,12,14,15,16,17-dodecahydrocyclopenta[a]phenanthren-17-yl]-2-hydroxyacetaldehyde

> <PUBCHEM_IUPAC_SYSTEMATIC_NAME>
2-[(8S,9S,10R,13S,14S,17S)-10,13-dimethyl-3-oxidanylidene-1,2,6,7,8,9,11,12,14,15,16,17-dodecahydrocyclopenta[a]phenanthren-17-yl]-2-oxidanyl-ethanal

> <PUBCHEM_IUPAC_TRADITIONAL_NAME>
2-hydroxy-2-[(8S,9S,10R,13S,14S,17S)-3-keto-10,13-dimethyl-1,2,6,7,8,9,11,12,14,15,16,17-dodecahydrocyclopenta[a]phenanthren-17-yl]acetaldehyde

> <PUBCHEM_IUPAC_INCHI>
InChI=1S/C21H30O3/c1-20-9-7-14(23)11-13(20)3-4-15-16-5-6-18(19(24)12-22)21(16,2)10-8-17(15)20/h11-12,15-19,24H,3-10H2,1-2H3/t15-,16-,17-,18+,19?,20-,21-/m0/s1

> <PUBCHEM_IUPAC_INCHIKEY>
HIXLXYQKUSOMDM-FYGMKCHKSA-N

> <PUBCHEM_XLOGP3>
3.3

> <PUBCHEM_EXACT_MASS>
330.219495

> <PUBCHEM_MOLECULAR_FORMULA>
C21H30O3

> <PUBCHEM_MOLECULAR_WEIGHT>
330.4611

> <PUBCHEM_OPENEYE_CAN_SMILES>
CC12CCC3C(C1CCC2C(C=O)O)CCC4=CC(=O)CCC34C

> <PUBCHEM_OPENEYE_ISO_SMILES>
C[C@]12CC[C@H]3[C@H]([C@@H]1CC[C@@H]2C(C=O)O)CCC4=CC(=O)CC[C@]34C

> <PUBCHEM_CACTVS_TPSA>
54.4

> <PUBCHEM_MONOISOTOPIC_WEIGHT>
330.219495

> <PUBCHEM_TOTAL_CHARGE>
0

> <PUBCHEM_HEAVY_ATOM_COUNT>
24

> <PUBCHEM_ATOM_DEF_STEREO_COUNT>
6

> <PUBCHEM_ATOM_UDEF_STEREO_COUNT>
1

> <PUBCHEM_BOND_DEF_STEREO_COUNT>
0

> <PUBCHEM_BOND_UDEF_STEREO_COUNT>
0

> <PUBCHEM_ISOTOPIC_ATOM_COUNT>
0

> <PUBCHEM_COMPONENT_COUNT>
1

> <PUBCHEM_CACTVS_TAUTO_COUNT>
20

> <PUBCHEM_COORDINATE_TYPE>
1
5
255

> <PUBCHEM_BONDANNOTATIONS>
10  20  5
19  46  3
4  15  5
5  25  6
6  26  5
7  27  6
8  19  5

$$$$

