12815
  -OEChem-06261207242D

 13 13  0     0  0  0  0  0  0999 V2000
    2.6723   -1.5784    0.0000 Cl  0  0  0  0  0  0  0  0  0  0  0  0
    4.8479   -1.5784    0.0000 Cl  0  0  0  0  0  0  0  0  0  0  0  0
    4.3479    1.5784    0.0000 F   0  0  0  0  0  0  0  0  0  0  0  0
    3.1723    1.5784    0.0000 F   0  0  0  0  0  0  0  0  0  0  0  0
    2.0000   -0.1274    0.0000 F   0  0  0  0  0  0  0  0  0  0  0  0
    2.3633    0.9907    0.0000 F   0  0  0  0  0  0  0  0  0  0  0  0
    5.5202   -0.1274    0.0000 F   0  0  0  0  0  0  0  0  0  0  0  0
    5.1569    0.9907    0.0000 F   0  0  0  0  0  0  0  0  0  0  0  0
    3.7601    0.7694    0.0000 C   0  0  0  0  0  0  0  0  0  0  0  0
    2.9511    0.1816    0.0000 C   0  0  0  0  0  0  0  0  0  0  0  0
    4.5691    0.1816    0.0000 C   0  0  0  0  0  0  0  0  0  0  0  0
    4.2601   -0.7694    0.0000 C   0  0  0  0  0  0  0  0  0  0  0  0
    3.2601   -0.7694    0.0000 C   0  0  0  0  0  0  0  0  0  0  0  0
  1 13  1  0  0  0  0
  2 12  1  0  0  0  0
  3  9  1  0  0  0  0
  4  9  1  0  0  0  0
  5 10  1  0  0  0  0
  6 10  1  0  0  0  0
  7 11  1  0  0  0  0
  8 11  1  0  0  0  0
  9 10  1  0  0  0  0
  9 11  1  0  0  0  0
 10 13  1  0  0  0  0
 11 12  1  0  0  0  0
 12 13  2  0  0  0  0
M  END
> <PUBCHEM_COMPOUND_CID>
12815

> <PUBCHEM_COMPOUND_CANONICALIZED>
1

> <PUBCHEM_CACTVS_COMPLEXITY>
255

> <PUBCHEM_CACTVS_HBOND_ACCEPTOR>
6

> <PUBCHEM_CACTVS_HBOND_DONOR>
0

> <PUBCHEM_CACTVS_ROTATABLE_BOND>
0

> <PUBCHEM_CACTVS_SUBSKEYS>
AAADcQBgAcAGAAAAAAAAAAAAAAAAAQAAAAAAAAAAAAAAAAAAAAAACQIAAAAACAIAABAAAAAAAACAAABAAAAAAAAgAAAACAAAAggAAAIBAAAAAAAAgAAIAAIAAAAAAAAAAAAAAAAAAAAAAAAAAAAAAAAAAA==

> <PUBCHEM_IUPAC_OPENEYE_NAME>
1,2-dichloro-3,3,4,4,5,5-hexafluoro-cyclopentene

> <PUBCHEM_IUPAC_CAS_NAME>
1,2-dichloro-3,3,4,4,5,5-hexafluorocyclopentene

> <PUBCHEM_IUPAC_NAME>
1,2-dichloro-3,3,4,4,5,5-hexafluorocyclopentene

> <PUBCHEM_IUPAC_SYSTEMATIC_NAME>
1,2-bis(chloranyl)-3,3,4,4,5,5-hexakis(fluoranyl)cyclopentene

> <PUBCHEM_IUPAC_TRADITIONAL_NAME>
1,2-dichloro-3,3,4,4,5,5-hexafluoro-cyclopentene

> <PUBCHEM_IUPAC_INCHI>
InChI=1S/C5Cl2F6/c6-1-2(7)4(10,11)5(12,13)3(1,8)9

> <PUBCHEM_IUPAC_INCHIKEY>
ABPBVCKGWWGZDP-UHFFFAOYSA-N

> <PUBCHEM_XLOGP3_AA>
3.1

> <PUBCHEM_EXACT_MASS>
243.928125

> <PUBCHEM_MOLECULAR_FORMULA>
C5Cl2F6

> <PUBCHEM_MOLECULAR_WEIGHT>
244.949919

> <PUBCHEM_OPENEYE_CAN_SMILES>
C1(=C(C(C(C1(F)F)(F)F)(F)F)Cl)Cl

> <PUBCHEM_OPENEYE_ISO_SMILES>
C1(=C(C(C(C1(F)F)(F)F)(F)F)Cl)Cl

> <PUBCHEM_CACTVS_TPSA>
0

> <PUBCHEM_MONOISOTOPIC_WEIGHT>
243.928125

> <PUBCHEM_TOTAL_CHARGE>
0

> <PUBCHEM_HEAVY_ATOM_COUNT>
13

> <PUBCHEM_ATOM_DEF_STEREO_COUNT>
0

> <PUBCHEM_ATOM_UDEF_STEREO_COUNT>
0

> <PUBCHEM_BOND_DEF_STEREO_COUNT>
0

> <PUBCHEM_BOND_UDEF_STEREO_COUNT>
0

> <PUBCHEM_ISOTOPIC_ATOM_COUNT>
0

> <PUBCHEM_COMPONENT_COUNT>
1

> <PUBCHEM_CACTVS_TAUTO_COUNT>
1

> <PUBCHEM_COORDINATE_TYPE>
1
5
255

$$$$

