442532
  -OEChem-07051212582D

 18 19  0     0  0  0  0  0  0999 V2000
    2.0000   -0.0173    0.0000 O   0  0  0  0  0  0  0  0  0  0  0  0
    2.8660   -1.5173    0.0000 O   0  0  0  0  0  0  0  0  0  0  0  0
    5.5321   -0.0381    0.0000 N   0  0  0  0  0  0  0  0  0  0  0  0
    2.8660    1.4827    0.0000 C   0  0  0  0  0  0  0  0  0  0  0  0
    3.7320    0.9827    0.0000 C   0  0  0  0  0  0  0  0  0  0  0  0
    2.0000    0.9827    0.0000 C   0  0  0  0  0  0  0  0  0  0  0  0
    3.7320   -0.0173    0.0000 C   0  0  0  0  0  0  0  0  0  0  0  0
    4.6260    1.5173    0.0000 C   0  0  0  0  0  0  0  0  0  0  0  0
    2.8660   -0.5173    0.0000 C   0  0  0  0  0  0  0  0  0  0  0  0
    4.6260   -0.5520    0.0000 C   0  0  0  0  0  0  0  0  0  0  0  0
    5.5321    1.0035    0.0000 C   0  0  0  0  0  0  0  0  0  0  0  0
    3.2646    1.9576    0.0000 H   0  0  0  0  0  0  0  0  0  0  0  0
    2.4675    1.9576    0.0000 H   0  0  0  0  0  0  0  0  0  0  0  0
    1.7880    1.5653    0.0000 H   0  0  0  0  0  0  0  0  0  0  0  0
    1.3894    0.8750    0.0000 H   0  0  0  0  0  0  0  0  0  0  0  0
    4.6188    2.1373    0.0000 H   0  0  0  0  0  0  0  0  0  0  0  0
    4.6188   -1.1720    0.0000 H   0  0  0  0  0  0  0  0  0  0  0  0
    6.0678    1.3156    0.0000 H   0  0  0  0  0  0  0  0  0  0  0  0
  1  6  1  0  0  0  0
  1  9  1  0  0  0  0
  2  9  2  0  0  0  0
  3 10  2  0  0  0  0
  3 11  1  0  0  0  0
  4  5  1  0  0  0  0
  4  6  1  0  0  0  0
  4 12  1  0  0  0  0
  4 13  1  0  0  0  0
  5  7  2  0  0  0  0
  5  8  1  0  0  0  0
  6 14  1  0  0  0  0
  6 15  1  0  0  0  0
  7  9  1  0  0  0  0
  7 10  1  0  0  0  0
  8 11  2  0  0  0  0
  8 16  1  0  0  0  0
 10 17  1  0  0  0  0
 11 18  1  0  0  0  0
M  END
> <PUBCHEM_COMPOUND_CID>
442532

> <PUBCHEM_COMPOUND_CANONICALIZED>
1

> <PUBCHEM_CACTVS_COMPLEXITY>
170

> <PUBCHEM_CACTVS_HBOND_ACCEPTOR>
3

> <PUBCHEM_CACTVS_HBOND_DONOR>
0

> <PUBCHEM_CACTVS_ROTATABLE_BOND>
0

> <PUBCHEM_CACTVS_SUBSKEYS>
AAADcYByMAAAAAAAAAAAAAAAAAAAAAAAAAAsSAAAAAAAAACxgAAAHgAAAAAADADhmgY8iJIIFACoAjD3TACCgCA1AiAI2CE4bNgIJnrAtZmGMYhmwAHI6caYFQIOgAAAAAAAAAAAAAAAAAAAAAAAAAAAAA==

> <PUBCHEM_IUPAC_OPENEYE_NAME>
3,4-dihydropyrano[3,4-c]pyridin-1-one

> <PUBCHEM_IUPAC_CAS_NAME>
3,4-dihydropyrano[3,4-c]pyridin-1-one

> <PUBCHEM_IUPAC_NAME>
3,4-dihydropyrano[3,4-c]pyridin-1-one

> <PUBCHEM_IUPAC_SYSTEMATIC_NAME>
3,4-dihydropyrano[3,4-c]pyridin-1-one

> <PUBCHEM_IUPAC_TRADITIONAL_NAME>
3,4-dihydropyrano[3,4-c]pyridin-1-one

> <PUBCHEM_IUPAC_INCHI>
InChI=1S/C8H7NO2/c10-8-7-5-9-3-1-6(7)2-4-11-8/h1,3,5H,2,4H2

> <PUBCHEM_IUPAC_INCHIKEY>
SIIDHCZFMSEKDS-UHFFFAOYSA-N

> <PUBCHEM_XLOGP3_AA>
0.7

> <PUBCHEM_EXACT_MASS>
149.047678

> <PUBCHEM_MOLECULAR_FORMULA>
C8H7NO2

> <PUBCHEM_MOLECULAR_WEIGHT>
149.14668

> <PUBCHEM_OPENEYE_CAN_SMILES>
C1COC(=O)C2=C1C=CN=C2

> <PUBCHEM_OPENEYE_ISO_SMILES>
C1COC(=O)C2=C1C=CN=C2

> <PUBCHEM_CACTVS_TPSA>
39.2

> <PUBCHEM_MONOISOTOPIC_WEIGHT>
149.047678

> <PUBCHEM_TOTAL_CHARGE>
0

> <PUBCHEM_HEAVY_ATOM_COUNT>
11

> <PUBCHEM_ATOM_DEF_STEREO_COUNT>
0

> <PUBCHEM_ATOM_UDEF_STEREO_COUNT>
0

> <PUBCHEM_BOND_DEF_STEREO_COUNT>
0

> <PUBCHEM_BOND_UDEF_STEREO_COUNT>
0

> <PUBCHEM_ISOTOPIC_ATOM_COUNT>
0

> <PUBCHEM_COMPONENT_COUNT>
1

> <PUBCHEM_CACTVS_TAUTO_COUNT>
1

> <PUBCHEM_COORDINATE_TYPE>
1
5
255

> <PUBCHEM_BONDANNOTATIONS>
3  10  8
3  11  8
5  7  8
5  8  8
7  10  8
8  11  8

$$$$

