   Color/Form

     * SHINING TRICLINIC PLATES, CRYSTALLINE POWDER OR GRANULES
     * COLORLESS, PEARLY SCALES OR POWDER

   from [1]HSDB

   Taste
        Strong acid taste
   from [2]HSDB

   Density/Specific Gravity
        2.220 @ 18 DEG C/4 DEG C
   from [3]HSDB

   Solubilities
        SOL IN DIL HYDROCHLORIC ACID; MODERATELY SOL IN WATER; SOL IN
   NITRIC ACID OR ACETIC ACID
   from [4]HSDB

   Other Chemical/Physical Properties

     * NON-HYGROSCOPIC WHEN PURE
     * LOSES WATER @ 100 DEG C
     * DECOMP @ 200 DEG C
     * Index of refraction: 1.5292, 1.5176, 1.4392. /Calcium phospate
       monobasic monohydrate/
     * Solubility: Cold water 1.8 g/100 cc @ 30 deg C; decomposes in hot
       water. /Calcium phosphate monobasic monohydrate/
     * Decomposes at 203 deg C. /Calcium phosphate monobasic monohydrate/

   from [5]HSDB

   Computed Properties
   Molecular Weight                  234.052484 [g/mol]
   Molecular Formula                 CaH[4]O[8]P[2]
   H-Bond Donor                      4
   H-Bond Acceptor                   8
   Rotatable Bond Count              0
   Exact Mass                        233.900731
   MonoIsotopic Mass                 233.900731
   Topological Polar Surface Area    161
   Heavy Atom Count                  11
   Formal Charge                     0
   Complexity                        49.8
   Isotope Atom Count                0
   Defined Atom Stereocenter Count   0
   Undefined Atom Stereocenter Count 0
   Defined Bond Stereocenter Count   0
   Undefined Bond Stereocenter Count 0
   Covalently-Bonded Unit Count      3

References

   1. http://toxnet.nlm.nih.gov/cgi-bin/sis/search/r?dbs+hsdb:@term+@rn+@rel+7758-23-8
   2. http://toxnet.nlm.nih.gov/cgi-bin/sis/search/r?dbs+hsdb:@term+@rn+@rel+7758-23-8
   3. http://toxnet.nlm.nih.gov/cgi-bin/sis/search/r?dbs+hsdb:@term+@rn+@rel+7758-23-8
   4. http://toxnet.nlm.nih.gov/cgi-bin/sis/search/r?dbs+hsdb:@term+@rn+@rel+7758-23-8
   5. http://toxnet.nlm.nih.gov/cgi-bin/sis/search/r?dbs+hsdb:@term+@rn+@rel+7758-23-8
