   Color/Form
        Colorless gas or liquid (below 77 degrees F) ... [Note: Shipped as
   a liquefied compressed gas.]
   from [1]HSDB

   Color/Form

     * WHITE THERMOPLASTIC SUBSTANCE
     * PLASTIC SOLID
     * UNMODIFIED, RIGID PVC IS TRANSPARENT, COLORLESS TO AMBER;
       PLASTICIZED (NONRIGID) PVC IS TRANSPARENT, COLORLESS TO AMBER

   from [2]HSDB

   Odor

     * Ethereal odor
     * Sweet odor
     * ... Pleasant odor at high concentrations ...

   from [3]HSDB

   Odor
        ODORLESS
   from [4]HSDB

   Boiling Point
        -13.3 deg C
   from [5]HSDB

   Melting Point
        -153.7 deg C
   from [6]HSDB

   Corrosivity
        VINYL CHLORIDE IS NOT CORROSIVE WHEN DRY BUT IN PRESENCE OF
   MOISTURE IT CORRODES IRON AND STEEL.
   from [7]HSDB

   Critical Temperature and Pressure
        424.61 deg K; 151.5 deg C; 304.6 deg F/5755 kPa; 57.55 bar; 834.7
   psia; 56.8 atm
   from [8]HSDB

   Density/Specific Gravity
        0.9106 @ 20 deg C/4 deg C
   from [9]HSDB

   Density/Specific Gravity
        1.406
   from [10]HSDB

   Heat of Vaporization
        20.9 kJ/mole at -13.4 deg C
   from [11]HSDB

   Solubilities

     * Sol in alcohol, ether, carbon tetrachloride, and benzene
     * Soluble in hydrocarbons, oil, chlorinated solvents, and most common
       organic solvents.
     * Water solubility of 2700 mg/l
     * In water, 8.8X10+3 mg/l @ 25 deg C

   from [12]HSDB

   Solubilities

     * HIGH MOL WT UNMODIFIED PVC SOL IN: CYCLOHEXANONE; METHYL
       CYCLOHEXANONE; DIMETHYL FORMAMIDE; NITROBENZENE; TETRAHYDROFURAN;
       ISOPHORONE; MESITYL OXIDE
     * LOW MOL WT PVC POLYMERS SOL IN: DIPROPYL KETONE; METHYL AMYL
       KETONE; METHYL ISOBUTYL KETONE; ACETONYLACETONE; METHYL ETHYL
       KETONE; DIOXANE; METHYLENE CHLORIDE

   from [13]HSDB

   Spectral Properties

     * Index of refraction: 1.3700 @ 20 deg C/D
     * IR: 10973 (Sadtler Research Laboratories IR Grating Collection)
     * MASS: 42 (Atlas of Mass Spectral Data, John Wiley & Sons, New York)

   from [14]HSDB

   Surface Tension
        23.1 dyn/cm at -20 deg C
   from [15]HSDB

   Vapor Density
        2.15 (Air= 1)
   from [16]HSDB

   Vapor Pressure
        2980 mm Hg @ 25 deg C
   from [17]HSDB

   Viscosity
        Viscosity, gas at 101.325 kPa at 20 deg C is 0.01072 cP;
   viscosity, liquid at -20 deg C is 0.280 cP
   from [18]HSDB

   Other Chemical/Physical Properties

     * Undergoes rapid photochemical oxidation.
     * Henry's Law constant= 0.0278 atm-cu m/mole @ 25 deg C
     * Hydroxyl radical rate constant = 6.96X10-12 cu cm/molecule-sec @ 25
       deg C

   from [19]HSDB

   Other Chemical/Physical Properties

     * DC RESISTIVITY: 1X10+12-1X10+16 OHM/CM; INDEX OF REFRACTION: 1.54
       D; DIELECTRIC CONSTANT @ 60 CYCLES/SEC: 3.2-4.0; @ 1X10+16
       CYCLES/SEC: 3.0-4.0 /UNMODIFIED, RIGID PVC/
     * DISSIPATION FACTOR @ 1X10+6 CYCLES/SEC: 0.006-0.02; @ 60
       CYCLES/SEC: 0.01-0.02; YIELD STRAIN: 1.0-5.0%; MODULUS OF
       ELASTICITY @ 1X10+3 LB/SQ IN: 200-600; TENSILE STRENGTH: 5000-9000
       LB/SQ IN; ULTIMATE ELONGATION: 2.0-40% /UNMODIFIED, RIGID PVC/
     * NOTCHED IZOD IMPACT STRENGTH: 0.4-2.0 FT LB/IN; ROCKWELL HARDNESS:
       R110-R120; HEAT DISTORTION 264 LB/SQ IN: 60-80 DEG C; SPECIFIC
       HEAT: 0.2-0.28 CAL/G; LINEAR THERMAL EXPANSION COEFFICIENT, 1X10-5;
       5.0-18 DEG C; MAX CONTINUOUS SERVICE TEMP: 70-74 DEG C;
       /UNMODIFIED, RIGID PVC/
     * DC RESISTIVITY: 1X10+11-1X10+14 OHM/CM; DIELECTRIC CONSTANT @ 60
       CYCLES/SEC: 5.0-9.0; DIELECTRIC CONSTANT @ 1X10+6 CYCLES/SEC:
       3.0-4.0; DISSIPATION FACTOR @ 60 CYCLES/SEC: 0.03-0.05; DISSIPATION
       FACTOR @ 1X10+6 CYCLES/SEC: 0.06-0.1 /PLASTICIZED (NON RIGID) PVC/
     * TENSILE STRENGTH: 1,500-3,000 LB/SQ IN; ULTIMATE ELONGATION:
       200-400%; SPECIFIC GRAVITY: 1.15-1.35; SPECIFIC HEAT: 0.36-0.5
       CAL/G; LINEAR THERMAL EXPANSION COEFFICIENT: 1X10+5, 7.0-25 DEG C;
       MAX CONTINUOUS SERVICE TEMP: 80-105 DEG C; INDEX OF REFRACTION:
       1.50-1.55/D /PLASTICIZED (NON RIGID) PVC/
     * THERMOPLASTIC SUBSTANCE WITH HIGH RESISTANCE TO CHEMICALS; IT CAN
       WITHSTAND TEMPERATURES OF 65-80 DEG C VERY WELL; GOOD MECHANICAL &
       ELECTRICAL PROPERTIES

   from [20]HSDB

   Computed Properties
   Molecular Weight                  62.49822 [g/mol]
   Molecular Formula                 C[2]H[3]Cl
   XLogP3-AA                         1.5
   H-Bond Donor                      0
   H-Bond Acceptor                   0
   Rotatable Bond Count              0
   Exact Mass                        61.992328
   MonoIsotopic Mass                 61.992328
   Topological Polar Surface Area    0
   Heavy Atom Count                  3
   Formal Charge                     0
   Complexity                        10.3
   Isotope Atom Count                0
   Defined Atom Stereocenter Count   0
   Undefined Atom Stereocenter Count 0
   Defined Bond Stereocenter Count   0
   Undefined Bond Stereocenter Count 0
   Covalently-Bonded Unit Count      1
   Effective Rotor Count             0
   Conformer Sampling RMSD           0.4
   CID Conformer Count               [21]1

References

   1. http://toxnet.nlm.nih.gov/cgi-bin/sis/search/r?dbs+hsdb:@term+@rn+@rel+75-01-4
   2. http://toxnet.nlm.nih.gov/cgi-bin/sis/search/r?dbs+hsdb:@term+@rn+@rel+9002-86-2
   3. http://toxnet.nlm.nih.gov/cgi-bin/sis/search/r?dbs+hsdb:@term+@rn+@rel+75-01-4
   4. http://toxnet.nlm.nih.gov/cgi-bin/sis/search/r?dbs+hsdb:@term+@rn+@rel+9002-86-2
   5. http://toxnet.nlm.nih.gov/cgi-bin/sis/search/r?dbs+hsdb:@term+@rn+@rel+75-01-4
   6. http://toxnet.nlm.nih.gov/cgi-bin/sis/search/r?dbs+hsdb:@term+@rn+@rel+75-01-4
   7. http://toxnet.nlm.nih.gov/cgi-bin/sis/search/r?dbs+hsdb:@term+@rn+@rel+75-01-4
   8. http://toxnet.nlm.nih.gov/cgi-bin/sis/search/r?dbs+hsdb:@term+@rn+@rel+75-01-4
   9. http://toxnet.nlm.nih.gov/cgi-bin/sis/search/r?dbs+hsdb:@term+@rn+@rel+75-01-4
  10. http://toxnet.nlm.nih.gov/cgi-bin/sis/search/r?dbs+hsdb:@term+@rn+@rel+9002-86-2
  11. http://toxnet.nlm.nih.gov/cgi-bin/sis/search/r?dbs+hsdb:@term+@rn+@rel+75-01-4
  12. http://toxnet.nlm.nih.gov/cgi-bin/sis/search/r?dbs+hsdb:@term+@rn+@rel+75-01-4
  13. http://toxnet.nlm.nih.gov/cgi-bin/sis/search/r?dbs+hsdb:@term+@rn+@rel+9002-86-2
  14. http://toxnet.nlm.nih.gov/cgi-bin/sis/search/r?dbs+hsdb:@term+@rn+@rel+75-01-4
  15. http://toxnet.nlm.nih.gov/cgi-bin/sis/search/r?dbs+hsdb:@term+@rn+@rel+75-01-4
  16. http://toxnet.nlm.nih.gov/cgi-bin/sis/search/r?dbs+hsdb:@term+@rn+@rel+75-01-4
  17. http://toxnet.nlm.nih.gov/cgi-bin/sis/search/r?dbs+hsdb:@term+@rn+@rel+75-01-4
  18. http://toxnet.nlm.nih.gov/cgi-bin/sis/search/r?dbs+hsdb:@term+@rn+@rel+75-01-4
  19. http://toxnet.nlm.nih.gov/cgi-bin/sis/search/r?dbs+hsdb:@term+@rn+@rel+75-01-4
  20. http://toxnet.nlm.nih.gov/cgi-bin/sis/search/r?dbs+hsdb:@term+@rn+@rel+9002-86-2
  21. http://pubchem.ncbi.nlm.nih.gov/vw3d/vw3d.cgi?cid=6338
