5068
  -OEChem-06261200302D

117121  0     1  0  0  0  0  0999 V2000
   13.8178    2.1955    0.0000 O   0  0  0  0  0  0  0  0  0  0  0  0
   11.9288    3.1329    0.0000 O   0  0  0  0  0  0  0  0  0  0  0  0
    9.7128    2.8343    0.0000 O   0  0  0  0  0  0  0  0  0  0  0  0
   12.1449   -0.2948    0.0000 O   0  0  0  0  0  0  0  0  0  0  0  0
   11.9503   -2.3299    0.0000 O   0  0  0  0  0  0  0  0  0  0  0  0
   11.4575   -1.8622    0.0000 O   0  0  0  0  0  0  0  0  0  0  0  0
   15.2556    1.2297    0.0000 O   0  0  0  0  0  0  0  0  0  0  0  0
    9.3958   -3.4112    0.0000 O   0  0  0  0  0  0  0  0  0  0  0  0
    9.8544    1.3049    0.0000 O   0  0  0  0  0  0  0  0  0  0  0  0
    8.1060   -2.7297    0.0000 O   0  0  0  0  0  0  0  0  0  0  0  0
    7.6045    1.2113    0.0000 O   0  0  0  0  0  0  0  0  0  0  0  0
    5.5282    0.9410    0.0000 O   0  0  0  0  0  0  0  0  0  0  0  0
    4.5923   -1.7259    0.0000 N   0  0  0  0  0  0  0  0  0  0  0  0
    2.8641   -2.7326    0.0000 N   0  0  0  0  0  0  0  0  0  0  0  0
    5.4564   -1.2226    0.0000 N   0  0  0  0  0  0  0  0  0  0  0  0
    7.2563    0.8234    0.0000 N   0  0  0  0  0  0  0  0  0  0  0  0
   12.2625    1.4333    0.0000 C   0  0  3  0  0  0  0  0  0  0  0  0
   11.6050    2.1868    0.0000 C   0  0  3  0  0  0  0  0  0  0  0  0
   13.2602    1.3654    0.0000 C   0  0  3  0  0  0  0  0  0  0  0  0
   10.8515    1.5293    0.0000 C   0  0  3  0  0  0  0  0  0  0  0  0
   13.7003    0.4675    0.0000 C   0  0  3  0  0  0  0  0  0  0  0  0
    9.9054    1.8531    0.0000 C   0  0  3  0  0  0  0  0  0  0  0  0
   12.4552    0.4520    0.0000 C   0  0  0  0  0  0  0  0  0  0  0  0
   13.1426   -0.3626    0.0000 C   0  0  3  0  0  0  0  0  0  0  0  0
    9.1519    1.1956    0.0000 C   0  0  3  0  0  0  0  0  0  0  0  0
   10.6970    0.5413    0.0000 C   0  0  0  0  0  0  0  0  0  0  0  0
   14.6979    0.3996    0.0000 C   0  0  0  0  0  0  0  0  0  0  0  0
    8.6862    0.1441    0.0000 C   0  0  0  0  0  0  0  0  0  0  0  0
   13.3353   -1.3439    0.0000 C   0  0  0  0  0  0  0  0  0  0  0  0
    8.1542    1.2635    0.0000 C   0  0  0  0  0  0  0  0  0  0  0  0
   14.8155    2.1276    0.0000 C   0  0  0  0  0  0  0  0  0  0  0  0
   12.3540   -1.5366    0.0000 C   0  0  0  0  0  0  0  0  0  0  0  0
    8.2221    2.2612    0.0000 C   0  0  0  0  0  0  0  0  0  0  0  0
   11.5873   -1.1249    0.0000 C   0  0  0  0  0  0  0  0  0  0  0  0
   11.0524   -2.7700    0.0000 C   0  0  3  0  0  0  0  0  0  0  0  0
   15.3731    2.9577    0.0000 C   0  0  0  0  0  0  0  0  0  0  0  0
    9.8544   -1.6951    0.0000 C   0  0  0  0  0  0  0  0  0  0  0  0
   10.0636   -2.6669    0.0000 C   0  0  0  0  0  0  0  0  0  0  0  0
   10.7205   -1.1951    0.0000 C   0  0  0  0  0  0  0  0  0  0  0  0
    8.9884   -1.1951    0.0000 C   0  0  0  0  0  0  0  0  0  0  0  0
    7.3920    2.8188    0.0000 C   0  0  0  0  0  0  0  0  0  0  0  0
   10.4947   -3.6000    0.0000 C   0  0  0  0  0  0  0  0  0  0  0  0
    8.9884   -0.1951    0.0000 C   0  0  0  0  0  0  0  0  0  0  0  0
   10.7205   -0.1951    0.0000 C   0  0  0  0  0  0  0  0  0  0  0  0
    9.8544    0.3049    0.0000 C   0  0  0  0  0  0  0  0  0  0  0  0
    8.0945   -1.7298    0.0000 C   0  0  0  0  0  0  0  0  0  0  0  0
    4.5961   -2.7259    0.0000 C   0  0  0  0  0  0  0  0  0  0  0  0
    3.7243   -1.2293    0.0000 C   0  0  0  0  0  0  0  0  0  0  0  0
    3.7320   -3.2293    0.0000 C   0  0  0  0  0  0  0  0  0  0  0  0
    2.8602   -1.7326    0.0000 C   0  0  0  0  0  0  0  0  0  0  0  0
    7.1884   -1.2159    0.0000 C   0  0  0  0  0  0  0  0  0  0  0  0
    8.0945    0.3395    0.0000 C   0  0  0  0  0  0  0  0  0  0  0  0
    6.4941    2.3787    0.0000 C   0  0  0  0  0  0  0  0  0  0  0  0
    7.1884   -0.1743    0.0000 C   0  0  0  0  0  0  0  0  0  0  0  0
   11.5865    0.3049    0.0000 C   0  0  0  0  0  0  0  0  0  0  0  0
    6.3243   -1.7193    0.0000 C   0  0  0  0  0  0  0  0  0  0  0  0
    6.4262    1.3810    0.0000 C   0  0  0  0  0  0  0  0  0  0  0  0
    2.0000   -3.2359    0.0000 C   0  0  0  0  0  0  0  0  0  0  0  0
    5.6640    2.9363    0.0000 C   0  0  0  0  0  0  0  0  0  0  0  0
   11.7058    1.1604    0.0000 H   0  0  0  0  0  0  0  0  0  0  0  0
   11.0904    2.5325    0.0000 H   0  0  0  0  0  0  0  0  0  0  0  0
   12.9873    1.9222    0.0000 H   0  0  0  0  0  0  0  0  0  0  0  0
   11.3944    1.2297    0.0000 H   0  0  0  0  0  0  0  0  0  0  0  0
   13.9731   -0.0893    0.0000 H   0  0  0  0  0  0  0  0  0  0  0  0
   10.3726    2.2607    0.0000 H   0  0  0  0  0  0  0  0  0  0  0  0
   11.8468    0.3326    0.0000 H   0  0  0  0  0  0  0  0  0  0  0  0
   12.5747   -0.1563    0.0000 H   0  0  0  0  0  0  0  0  0  0  0  0
   13.0636    0.5715    0.0000 H   0  0  0  0  0  0  0  0  0  0  0  0
   12.8698    0.1941    0.0000 H   0  0  0  0  0  0  0  0  0  0  0  0
    9.6510    0.8277    0.0000 H   0  0  0  0  0  0  0  0  0  0  0  0
   10.0844    0.6371    0.0000 H   0  0  0  0  0  0  0  0  0  0  0  0
   10.6011   -0.0712    0.0000 H   0  0  0  0  0  0  0  0  0  0  0  0
   11.3095    0.4455    0.0000 H   0  0  0  0  0  0  0  0  0  0  0  0
   14.6559   -0.2190    0.0000 H   0  0  0  0  0  0  0  0  0  0  0  0
   15.3165    0.3575    0.0000 H   0  0  0  0  0  0  0  0  0  0  0  0
   14.7400    1.0181    0.0000 H   0  0  0  0  0  0  0  0  0  0  0  0
   11.5212    3.6000    0.0000 H   0  0  0  0  0  0  0  0  0  0  0  0
    8.1193    0.3952    0.0000 H   0  0  0  0  0  0  0  0  0  0  0  0
    8.4351   -0.4228    0.0000 H   0  0  0  0  0  0  0  0  0  0  0  0
    9.2531   -0.1070    0.0000 H   0  0  0  0  0  0  0  0  0  0  0  0
   13.8499   -1.6896    0.0000 H   0  0  0  0  0  0  0  0  0  0  0  0
   10.1799    3.2420    0.0000 H   0  0  0  0  0  0  0  0  0  0  0  0
    7.6871    0.8558    0.0000 H   0  0  0  0  0  0  0  0  0  0  0  0
   11.9803   -1.0419    0.0000 H   0  0  0  0  0  0  0  0  0  0  0  0
    8.7789    2.5340    0.0000 H   0  0  0  0  0  0  0  0  0  0  0  0
   11.0726   -0.7791    0.0000 H   0  0  0  0  0  0  0  0  0  0  0  0
   11.2416   -1.6395    0.0000 H   0  0  0  0  0  0  0  0  0  0  0  0
   12.1020   -1.4706    0.0000 H   0  0  0  0  0  0  0  0  0  0  0  0
   15.8878    2.6120    0.0000 H   0  0  0  0  0  0  0  0  0  0  0  0
   15.7189    3.4724    0.0000 H   0  0  0  0  0  0  0  0  0  0  0  0
   14.8585    3.3035    0.0000 H   0  0  0  0  0  0  0  0  0  0  0  0
    7.4341    3.4374    0.0000 H   0  0  0  0  0  0  0  0  0  0  0  0
    9.9801   -3.2543    0.0000 H   0  0  0  0  0  0  0  0  0  0  0  0
   10.1489   -4.1147    0.0000 H   0  0  0  0  0  0  0  0  0  0  0  0
   11.0093   -3.9458    0.0000 H   0  0  0  0  0  0  0  0  0  0  0  0
    4.8104   -3.3077    0.0000 H   0  0  0  0  0  0  0  0  0  0  0  0
    5.2063   -2.6159    0.0000 H   0  0  0  0  0  0  0  0  0  0  0  0
    4.1210   -0.7528    0.0000 H   0  0  0  0  0  0  0  0  0  0  0  0
    3.3240   -0.7559    0.0000 H   0  0  0  0  0  0  0  0  0  0  0  0
    3.3353   -3.7057    0.0000 H   0  0  0  0  0  0  0  0  0  0  0  0
    4.1324   -3.7027    0.0000 H   0  0  0  0  0  0  0  0  0  0  0  0
    2.6459   -1.1508    0.0000 H   0  0  0  0  0  0  0  0  0  0  0  0
    2.2501   -1.8426    0.0000 H   0  0  0  0  0  0  0  0  0  0  0  0
    5.4540   -0.6026    0.0000 H   0  0  0  0  0  0  0  0  0  0  0  0
   11.8965   -0.2320    0.0000 H   0  0  0  0  0  0  0  0  0  0  0  0
   12.1234    0.6149    0.0000 H   0  0  0  0  0  0  0  0  0  0  0  0
   11.2765    0.8418    0.0000 H   0  0  0  0  0  0  0  0  0  0  0  0
    6.3267   -2.3393    0.0000 H   0  0  0  0  0  0  0  0  0  0  0  0
    1.6879   -2.7002    0.0000 H   0  0  0  0  0  0  0  0  0  0  0  0
    1.4643   -3.5480    0.0000 H   0  0  0  0  0  0  0  0  0  0  0  0
    2.3121   -3.7717    0.0000 H   0  0  0  0  0  0  0  0  0  0  0  0
    6.0097    3.4510    0.0000 H   0  0  0  0  0  0  0  0  0  0  0  0
    5.1493    3.2821    0.0000 H   0  0  0  0  0  0  0  0  0  0  0  0
    5.3182    2.4217    0.0000 H   0  0  0  0  0  0  0  0  0  0  0  0
    9.3795    1.7034    0.0000 H   0  0  0  0  0  0  0  0  0  0  0  0
    7.5727   -3.0459    0.0000 H   0  0  0  0  0  0  0  0  0  0  0  0
    7.6117    1.8313    0.0000 H   0  0  0  0  0  0  0  0  0  0  0  0
  1 19  1  0  0  0  0
  1 31  1  0  0  0  0
  2 18  1  0  0  0  0
  2 77  1  0  0  0  0
  3 22  1  0  0  0  0
  3 82  1  0  0  0  0
  4 24  1  0  0  0  0
  4 34  1  0  0  0  0
  5 32  1  0  0  0  0
  5 35  1  0  0  0  0
  6 35  1  0  0  0  0
  6 39  1  0  0  0  0
  7 31  2  0  0  0  0
  8 38  2  0  0  0  0
  9 45  1  0  0  0  0
  9115  1  0  0  0  0
 10 46  1  0  0  0  0
 10116  1  0  0  0  0
 11 52  1  0  0  0  0
 11117  1  0  0  0  0
 12 57  2  0  0  0  0
 13 15  1  0  0  0  0
 13 47  1  0  0  0  0
 13 48  1  0  0  0  0
 14 49  1  0  0  0  0
 14 50  1  0  0  0  0
 14 58  1  0  0  0  0
 15 56  1  0  0  0  0
 15104  1  0  0  0  0
 16 54  2  0  0  0  0
 16 57  1  0  0  0  0
 17 18  1  0  0  0  0
 17 19  1  0  0  0  0
 17 23  1  0  0  0  0
 17 60  1  0  0  0  0
 18 20  1  0  0  0  0
 18 61  1  0  0  0  0
 19 21  1  0  0  0  0
 19 62  1  0  0  0  0
 20 22  1  0  0  0  0
 20 26  1  0  0  0  0
 20 63  1  0  0  0  0
 21 24  1  0  0  0  0
 21 27  1  0  0  0  0
 21 64  1  0  0  0  0
 22 25  1  0  0  0  0
 22 65  1  0  0  0  0
 23 66  1  0  0  0  0
 23 67  1  0  0  0  0
 23 68  1  0  0  0  0
 24 29  1  0  0  0  0
 24 69  1  0  0  0  0
 25 28  1  0  0  0  0
 25 30  1  0  0  0  0
 25 70  1  0  0  0  0
 26 71  1  0  0  0  0
 26 72  1  0  0  0  0
 26 73  1  0  0  0  0
 27 74  1  0  0  0  0
 27 75  1  0  0  0  0
 27 76  1  0  0  0  0
 28 78  1  0  0  0  0
 28 79  1  0  0  0  0
 28 80  1  0  0  0  0
 29 32  2  3  0  0  0
 29 81  1  0  0  0  0
 30 33  2  3  0  0  0
 30 83  1  0  0  0  0
 31 36  1  0  0  0  0
 32 84  1  0  0  0  0
 33 41  1  0  0  0  0
 33 85  1  0  0  0  0
 34 86  1  0  0  0  0
 34 87  1  0  0  0  0
 34 88  1  0  0  0  0
 35 38  1  0  0  0  0
 35 42  1  0  0  0  0
 36 89  1  0  0  0  0
 36 90  1  0  0  0  0
 36 91  1  0  0  0  0
 37 38  1  0  0  0  0
 37 39  2  0  0  0  0
 37 40  1  0  0  0  0
 39 44  1  0  0  0  0
 40 43  1  0  0  0  0
 40 46  2  0  0  0  0
 41 53  2  3  0  0  0
 41 92  1  0  0  0  0
 42 93  1  0  0  0  0
 42 94  1  0  0  0  0
 42 95  1  0  0  0  0
 43 45  1  0  0  0  0
 43 52  2  0  0  0  0
 44 45  2  0  0  0  0
 44 55  1  0  0  0  0
 46 51  1  0  0  0  0
 47 49  1  0  0  0  0
 47 96  1  0  0  0  0
 47 97  1  0  0  0  0
 48 50  1  0  0  0  0
 48 98  1  0  0  0  0
 48 99  1  0  0  0  0
 49100  1  0  0  0  0
 49101  1  0  0  0  0
 50102  1  0  0  0  0
 50103  1  0  0  0  0
 51 54  1  0  0  0  0
 51 56  2  3  0  0  0
 52 54  1  0  0  0  0
 53 57  1  0  0  0  0
 53 59  1  0  0  0  0
 55105  1  0  0  0  0
 55106  1  0  0  0  0
 55107  1  0  0  0  0
 56108  1  0  0  0  0
 58109  1  0  0  0  0
 58110  1  0  0  0  0
 58111  1  0  0  0  0
 59112  1  0  0  0  0
 59113  1  0  0  0  0
 59114  1  0  0  0  0
M  END
> <PUBCHEM_COMPOUND_CID>
5068

> <PUBCHEM_COMPOUND_CANONICALIZED>
1

> <PUBCHEM_CACTVS_COMPLEXITY>
2000

> <PUBCHEM_CACTVS_HBOND_ACCEPTOR>
15

> <PUBCHEM_CACTVS_HBOND_DONOR>
6

> <PUBCHEM_CACTVS_ROTATABLE_BOND>
5

> <PUBCHEM_CACTVS_SUBSKEYS>
AAADcfB/vAAAAAAAAAAAAAAAAAAAAQAAAAAsQIAAAAAAAECAAAAAHgAYCAAADRzhgAYCCANiBgCoA6H2XAaACAAgIAAYKIFoAFgYVBIAIQQyUAAFwACMsYPI5OwOAAAAAAAAAAAAAAAAAAAAAAAAAAAAAA==

> <PUBCHEM_IUPAC_INCHI>
InChI=1S/C43H58N4O12/c1-21-12-11-13-22(2)42(55)45-33-28(20-44-47-17-15-46(9)16-18-47)37(52)30-31(38(33)53)36(51)26(6)40-32(30)41(54)43(8,59-40)57-19-14-29(56-10)23(3)39(58-27(7)48)25(5)35(50)24(4)34(21)49/h11-14,19-21,23-25,29,34-35,39,44,49-53H,15-18H2,1-10H3

> <PUBCHEM_IUPAC_INCHIKEY>
QHOUDEZPFKDYIG-UHFFFAOYSA-N

> <PUBCHEM_XLOGP3_AA>
2.8

> <PUBCHEM_EXACT_MASS>
822.405123

> <PUBCHEM_MOLECULAR_FORMULA>
C43H58N4O12

> <PUBCHEM_MOLECULAR_WEIGHT>
822.94022

> <PUBCHEM_OPENEYE_CAN_SMILES>
CC1C=CC=C(C(=O)N=C2C(=CNN3CCN(CC3)C)C(=C4C(=C2O)C(=C(C5=C4C(=O)C(O5)(OC=CC(C(C(C(C(C(C1O)C)O)C)OC(=O)C)C)OC)C)C)O)O)C

> <PUBCHEM_OPENEYE_ISO_SMILES>
CC1C=CC=C(C(=O)N=C2C(=CNN3CCN(CC3)C)C(=C4C(=C2O)C(=C(C5=C4C(=O)C(O5)(OC=CC(C(C(C(C(C(C1O)C)O)C)OC(=O)C)C)OC)C)C)O)O)C

> <PUBCHEM_CACTVS_TPSA>
220

> <PUBCHEM_MONOISOTOPIC_WEIGHT>
822.405123

> <PUBCHEM_TOTAL_CHARGE>
0

> <PUBCHEM_HEAVY_ATOM_COUNT>
59

> <PUBCHEM_ATOM_DEF_STEREO_COUNT>
0

> <PUBCHEM_ATOM_UDEF_STEREO_COUNT>
9

> <PUBCHEM_BOND_DEF_STEREO_COUNT>
0

> <PUBCHEM_BOND_UDEF_STEREO_COUNT>
4

> <PUBCHEM_ISOTOPIC_ATOM_COUNT>
0

> <PUBCHEM_COMPONENT_COUNT>
1

> <PUBCHEM_CACTVS_TAUTO_COUNT>
157

> <PUBCHEM_COORDINATE_TYPE>
1
5
255

> <PUBCHEM_BONDANNOTATIONS>
19  1  3
17  23  3
18  2  3
20  26  3
21  27  3
25  28  3
29  32  1
22  3  3
30  33  1
35  42  3
37  39  8
37  40  8
39  44  8
24  4  3
40  43  8
40  46  8
41  53  1
43  45  8
43  52  8
44  45  8
46  51  8
51  54  8
51  56  1
52  54  8

$$$$

