   Color/Form

     * Crystalline
     * White powder
     * White to beige powder

   from [1]HSDB

   Boiling Point
        339 deg C at 98.4 kPa
   from [2]HSDB

   Melting Point
        85 deg C
   from [3]HSDB

   Corrosivity
        NONCORROSIVE
   from [4]HSDB

   Density/Specific Gravity
        1.172 at 20 deg C
   from [5]HSDB

   Dissociation Constants
        pKa = 4.00, weak base
   from [6]HSDB

   Octanol/Water Partition Coefficient
        log Kow = 2.38
   from [7]HSDB

   Solubilities

     * Solubilities in organic solvents at 20 deg C.

       Solvent

   g/kg

   Methanol 300
   Acetone 230
   Dichloromethane 200
   Toluene 200
   Hexane 2.6

     In water, 58 mg/L at 20 deg C

   from [8]HSDB

   Vapor Pressure
        9.98X10-7 mm Hg at 20 deg C
   from [9]HSDB

   Other Chemical/Physical Properties

     * Hydrolyzed on warming in strong acids & bases
     * Henry's Law constant = 4.83X10-10 atm-cu m/mol at 25 deg C (est)
     * Hydroxyl radical reaction rate constant = 2.09X10-11 cu
       cm/molec-sec at 25 deg C (est)

   from [10]HSDB

   Computed Properties
   Molecular Weight                  213.3032 [g/mol]
   Molecular Formula                 C[8]H[15]N[5]S
   XLogP3                            2.7
   H-Bond Donor                      2
   H-Bond Acceptor                   6
   Rotatable Bond Count              4
   Tautomer Count                    9
   Exact Mass                        213.104817
   MonoIsotopic Mass                 213.104817
   Topological Polar Surface Area    88
   Heavy Atom Count                  14
   Formal Charge                     0
   Complexity                        166
   Isotope Atom Count                0
   Defined Atom Stereocenter Count   0
   Undefined Atom Stereocenter Count 0
   Defined Bond Stereocenter Count   0
   Undefined Bond Stereocenter Count 0
   Covalently-Bonded Unit Count      1
   Feature 3D Donor Count            2
   Feature 3D Cation Count           2
   Feature 3D Hydrophobe Count       2
   Feature 3D Ring Count             1
   Effective Rotor Count             4
   Conformer Sampling RMSD           0.6
   CID Conformer Count               [11]63

References

   1. http://toxnet.nlm.nih.gov/cgi-bin/sis/search/r?dbs+hsdb:@term+@rn+@rel+1014-69-3
   2. http://toxnet.nlm.nih.gov/cgi-bin/sis/search/r?dbs+hsdb:@term+@rn+@rel+1014-69-3
   3. http://toxnet.nlm.nih.gov/cgi-bin/sis/search/r?dbs+hsdb:@term+@rn+@rel+1014-69-3
   4. http://toxnet.nlm.nih.gov/cgi-bin/sis/search/r?dbs+hsdb:@term+@rn+@rel+1014-69-3
   5. http://toxnet.nlm.nih.gov/cgi-bin/sis/search/r?dbs+hsdb:@term+@rn+@rel+1014-69-3
   6. http://toxnet.nlm.nih.gov/cgi-bin/sis/search/r?dbs+hsdb:@term+@rn+@rel+1014-69-3
   7. http://toxnet.nlm.nih.gov/cgi-bin/sis/search/r?dbs+hsdb:@term+@rn+@rel+1014-69-3
   8. http://toxnet.nlm.nih.gov/cgi-bin/sis/search/r?dbs+hsdb:@term+@rn+@rel+1014-69-3
   9. http://toxnet.nlm.nih.gov/cgi-bin/sis/search/r?dbs+hsdb:@term+@rn+@rel+1014-69-3
  10. http://toxnet.nlm.nih.gov/cgi-bin/sis/search/r?dbs+hsdb:@term+@rn+@rel+1014-69-3
  11. http://pubchem.ncbi.nlm.nih.gov/vw3d/vw3d.cgi?cid=13904
