9818312
  -OEChem-07051213152D

 56 56  0     1  0  0  0  0  0999 V2000
   10.8312    0.6160    0.0000 O   0  0  0  0  0  0  0  0  0  0  0  0
   19.1254   -0.7500    0.0000 O   0  0  0  0  0  0  0  0  0  0  0  0
    2.5369   -0.7500    0.0000 O   0  0  0  0  0  0  0  0  0  0  0  0
    3.4030    0.7500    0.0000 O   0  0  0  0  0  0  0  0  0  0  0  0
   11.3312   -0.2500    0.0000 C   0  0  3  0  0  0  0  0  0  0  0  0
   10.3312   -0.2500    0.0000 C   0  0  3  0  0  0  0  0  0  0  0  0
   12.1972   -0.7500    0.0000 C   0  0  0  0  0  0  0  0  0  0  0  0
    9.4651   -0.7500    0.0000 C   0  0  0  0  0  0  0  0  0  0  0  0
   13.0632   -0.2500    0.0000 C   0  0  0  0  0  0  0  0  0  0  0  0
    8.5991   -0.2500    0.0000 C   0  0  0  0  0  0  0  0  0  0  0  0
   13.9292   -0.7500    0.0000 C   0  0  0  0  0  0  0  0  0  0  0  0
    7.7331   -0.7500    0.0000 C   0  0  0  0  0  0  0  0  0  0  0  0
   14.7953   -0.2500    0.0000 C   0  0  0  0  0  0  0  0  0  0  0  0
    6.8671   -0.2500    0.0000 C   0  0  0  0  0  0  0  0  0  0  0  0
   15.6613   -0.7500    0.0000 C   0  0  0  0  0  0  0  0  0  0  0  0
    6.0010   -0.7500    0.0000 C   0  0  0  0  0  0  0  0  0  0  0  0
   16.5273   -0.2500    0.0000 C   0  0  0  0  0  0  0  0  0  0  0  0
    5.1350   -0.2500    0.0000 C   0  0  0  0  0  0  0  0  0  0  0  0
   17.3933   -0.7500    0.0000 C   0  0  0  0  0  0  0  0  0  0  0  0
    4.2690   -0.7500    0.0000 C   0  0  0  0  0  0  0  0  0  0  0  0
   18.2594   -0.2500    0.0000 C   0  0  0  0  0  0  0  0  0  0  0  0
    3.4030   -0.2500    0.0000 C   0  0  0  0  0  0  0  0  0  0  0  0
   11.9322    0.3510    0.0000 H   0  0  0  0  0  0  0  0  0  0  0  0
    9.7301    0.3510    0.0000 H   0  0  0  0  0  0  0  0  0  0  0  0
   11.7987   -1.2250    0.0000 H   0  0  0  0  0  0  0  0  0  0  0  0
   12.5957   -1.2250    0.0000 H   0  0  0  0  0  0  0  0  0  0  0  0
    9.0666   -1.2250    0.0000 H   0  0  0  0  0  0  0  0  0  0  0  0
    9.8637   -1.2250    0.0000 H   0  0  0  0  0  0  0  0  0  0  0  0
   13.4617    0.2249    0.0000 H   0  0  0  0  0  0  0  0  0  0  0  0
   12.6647    0.2249    0.0000 H   0  0  0  0  0  0  0  0  0  0  0  0
    8.9976    0.2249    0.0000 H   0  0  0  0  0  0  0  0  0  0  0  0
    8.2006    0.2249    0.0000 H   0  0  0  0  0  0  0  0  0  0  0  0
   13.5307   -1.2250    0.0000 H   0  0  0  0  0  0  0  0  0  0  0  0
   14.3278   -1.2250    0.0000 H   0  0  0  0  0  0  0  0  0  0  0  0
    7.3346   -1.2250    0.0000 H   0  0  0  0  0  0  0  0  0  0  0  0
    8.1316   -1.2250    0.0000 H   0  0  0  0  0  0  0  0  0  0  0  0
   15.1938    0.2249    0.0000 H   0  0  0  0  0  0  0  0  0  0  0  0
   14.3967    0.2249    0.0000 H   0  0  0  0  0  0  0  0  0  0  0  0
    7.2656    0.2249    0.0000 H   0  0  0  0  0  0  0  0  0  0  0  0
    6.4685    0.2249    0.0000 H   0  0  0  0  0  0  0  0  0  0  0  0
   15.2628   -1.2250    0.0000 H   0  0  0  0  0  0  0  0  0  0  0  0
   16.0598   -1.2250    0.0000 H   0  0  0  0  0  0  0  0  0  0  0  0
    5.6025   -1.2250    0.0000 H   0  0  0  0  0  0  0  0  0  0  0  0
    6.3996   -1.2250    0.0000 H   0  0  0  0  0  0  0  0  0  0  0  0
   16.9258    0.2249    0.0000 H   0  0  0  0  0  0  0  0  0  0  0  0
   16.1288    0.2249    0.0000 H   0  0  0  0  0  0  0  0  0  0  0  0
    5.5335    0.2249    0.0000 H   0  0  0  0  0  0  0  0  0  0  0  0
    4.7365    0.2249    0.0000 H   0  0  0  0  0  0  0  0  0  0  0  0
   16.9948   -1.2250    0.0000 H   0  0  0  0  0  0  0  0  0  0  0  0
   17.7919   -1.2250    0.0000 H   0  0  0  0  0  0  0  0  0  0  0  0
    3.8705   -1.2250    0.0000 H   0  0  0  0  0  0  0  0  0  0  0  0
    4.6675   -1.2250    0.0000 H   0  0  0  0  0  0  0  0  0  0  0  0
   18.6579    0.2249    0.0000 H   0  0  0  0  0  0  0  0  0  0  0  0
   17.8608    0.2249    0.0000 H   0  0  0  0  0  0  0  0  0  0  0  0
   19.6623   -0.4400    0.0000 H   0  0  0  0  0  0  0  0  0  0  0  0
    2.0000   -0.4400    0.0000 H   0  0  0  0  0  0  0  0  0  0  0  0
  1  5  1  0  0  0  0
  1  6  1  0  0  0  0
  2 21  1  0  0  0  0
  2 55  1  0  0  0  0
  3 22  1  0  0  0  0
  3 56  1  0  0  0  0
  4 22  2  0  0  0  0
  5  6  1  0  0  0  0
  5  7  1  0  0  0  0
  5 23  1  0  0  0  0
  6  8  1  0  0  0  0
  6 24  1  0  0  0  0
  7  9  1  0  0  0  0
  7 25  1  0  0  0  0
  7 26  1  0  0  0  0
  8 10  1  0  0  0  0
  8 27  1  0  0  0  0
  8 28  1  0  0  0  0
  9 11  1  0  0  0  0
  9 29  1  0  0  0  0
  9 30  1  0  0  0  0
 10 12  1  0  0  0  0
 10 31  1  0  0  0  0
 10 32  1  0  0  0  0
 11 13  1  0  0  0  0
 11 33  1  0  0  0  0
 11 34  1  0  0  0  0
 12 14  1  0  0  0  0
 12 35  1  0  0  0  0
 12 36  1  0  0  0  0
 13 15  1  0  0  0  0
 13 37  1  0  0  0  0
 13 38  1  0  0  0  0
 14 16  1  0  0  0  0
 14 39  1  0  0  0  0
 14 40  1  0  0  0  0
 15 17  1  0  0  0  0
 15 41  1  0  0  0  0
 15 42  1  0  0  0  0
 16 18  1  0  0  0  0
 16 43  1  0  0  0  0
 16 44  1  0  0  0  0
 17 19  1  0  0  0  0
 17 45  1  0  0  0  0
 17 46  1  0  0  0  0
 18 20  1  0  0  0  0
 18 47  1  0  0  0  0
 18 48  1  0  0  0  0
 19 21  1  0  0  0  0
 19 49  1  0  0  0  0
 19 50  1  0  0  0  0
 20 22  1  0  0  0  0
 20 51  1  0  0  0  0
 20 52  1  0  0  0  0
 21 53  1  0  0  0  0
 21 54  1  0  0  0  0
M  END
> <PUBCHEM_COMPOUND_CID>
9818312

> <PUBCHEM_COMPOUND_CANONICALIZED>
1

> <PUBCHEM_CACTVS_COMPLEXITY>
280

> <PUBCHEM_CACTVS_HBOND_ACCEPTOR>
4

> <PUBCHEM_CACTVS_HBOND_DONOR>
2

> <PUBCHEM_CACTVS_ROTATABLE_BOND>
16

> <PUBCHEM_CACTVS_SUBSKEYS>
AAADcfB4OAAAAAAAAAAAAAAAEgAAAAAAAAAAAAAAAAAAAAAAAAAAGgAACAAACBSggAIACAAABgAIAACQCAAAAAAAAAAAAAEAAAAAEBIAAAACQAAEAAAAAAGIyKCAAAAAAAAAAAAAAAAAAAAAAAAAAAAAAA==

> <PUBCHEM_IUPAC_OPENEYE_NAME>
8-[3-(8-hydroxyoctyl)oxiran-2-yl]octanoic acid

> <PUBCHEM_IUPAC_CAS_NAME>
8-[3-(8-hydroxyoctyl)-2-oxiranyl]octanoic acid

> <PUBCHEM_IUPAC_NAME>
8-[3-(8-hydroxyoctyl)oxiran-2-yl]octanoic acid

> <PUBCHEM_IUPAC_SYSTEMATIC_NAME>
8-[3-(8-oxidanyloctyl)oxiran-2-yl]octanoic acid

> <PUBCHEM_IUPAC_TRADITIONAL_NAME>
8-[3-(8-hydroxyoctyl)oxiran-2-yl]caprylic acid

> <PUBCHEM_IUPAC_INCHI>
InChI=1S/C18H34O4/c19-15-11-7-2-1-4-8-12-16-17(22-16)13-9-5-3-6-10-14-18(20)21/h16-17,19H,1-15H2,(H,20,21)

> <PUBCHEM_IUPAC_INCHIKEY>
ITTPZDMHCNGAGQ-UHFFFAOYSA-N

> <PUBCHEM_XLOGP3_AA>
4.5

> <PUBCHEM_EXACT_MASS>
314.24571

> <PUBCHEM_MOLECULAR_FORMULA>
C18H34O4

> <PUBCHEM_MOLECULAR_WEIGHT>
314.46016

> <PUBCHEM_OPENEYE_CAN_SMILES>
C(CCCCO)CCCC1C(O1)CCCCCCCC(=O)O

> <PUBCHEM_OPENEYE_ISO_SMILES>
C(CCCCO)CCCC1C(O1)CCCCCCCC(=O)O

> <PUBCHEM_CACTVS_TPSA>
70.1

> <PUBCHEM_MONOISOTOPIC_WEIGHT>
314.24571

> <PUBCHEM_TOTAL_CHARGE>
0

> <PUBCHEM_HEAVY_ATOM_COUNT>
22

> <PUBCHEM_ATOM_DEF_STEREO_COUNT>
0

> <PUBCHEM_ATOM_UDEF_STEREO_COUNT>
2

> <PUBCHEM_BOND_DEF_STEREO_COUNT>
0

> <PUBCHEM_BOND_UDEF_STEREO_COUNT>
0

> <PUBCHEM_ISOTOPIC_ATOM_COUNT>
0

> <PUBCHEM_COMPONENT_COUNT>
1

> <PUBCHEM_CACTVS_TAUTO_COUNT>
1

> <PUBCHEM_COORDINATE_TYPE>
1
5
255

> <PUBCHEM_BONDANNOTATIONS>
5  23  3
6  24  3

$$$$

