9128
  -OEChem-07051213052D

 32 36  0     0  0  0  0  0  0999 V2000
    4.6153   -1.0000    0.0000 C   0  0  0  0  0  0  0  0  0  0  0  0
    3.7493   -0.5000    0.0000 C   0  0  0  0  0  0  0  0  0  0  0  0
    5.4814   -0.5000    0.0000 C   0  0  0  0  0  0  0  0  0  0  0  0
    3.7493    0.5000    0.0000 C   0  0  0  0  0  0  0  0  0  0  0  0
    4.6153    1.0000    0.0000 C   0  0  0  0  0  0  0  0  0  0  0  0
    5.4814    0.5000    0.0000 C   0  0  0  0  0  0  0  0  0  0  0  0
    2.8393   -1.0068    0.0000 C   0  0  0  0  0  0  0  0  0  0  0  0
    4.6314   -2.0415    0.0000 C   0  0  0  0  0  0  0  0  0  0  0  0
    2.8911    0.9969    0.0000 C   0  0  0  0  0  0  0  0  0  0  0  0
    6.3408   -0.9948    0.0000 C   0  0  0  0  0  0  0  0  0  0  0  0
    2.8313   -2.0484    0.0000 C   0  0  0  0  0  0  0  0  0  0  0  0
    3.7334   -2.5693    0.0000 C   0  0  0  0  0  0  0  0  0  0  0  0
    2.0000   -0.4786    0.0000 C   0  0  0  0  0  0  0  0  0  0  0  0
    5.5085   -2.5043    0.0000 C   0  0  0  0  0  0  0  0  0  0  0  0
    4.5993    2.0415    0.0000 C   0  0  0  0  0  0  0  0  0  0  0  0
    6.3914    1.0068    0.0000 C   0  0  0  0  0  0  0  0  0  0  0  0
    6.3543   -1.9864    0.0000 C   0  0  0  0  0  0  0  0  0  0  0  0
    2.0256    0.5128    0.0000 C   0  0  0  0  0  0  0  0  0  0  0  0
    6.3994    2.0484    0.0000 C   0  0  0  0  0  0  0  0  0  0  0  0
    5.4973    2.5693    0.0000 C   0  0  0  0  0  0  0  0  0  0  0  0
    2.8957    1.6169    0.0000 H   0  0  0  0  0  0  0  0  0  0  0  0
    6.8755   -0.6808    0.0000 H   0  0  0  0  0  0  0  0  0  0  0  0
    2.2932   -2.3564    0.0000 H   0  0  0  0  0  0  0  0  0  0  0  0
    3.7358   -3.1893    0.0000 H   0  0  0  0  0  0  0  0  0  0  0  0
    1.4534   -0.7713    0.0000 H   0  0  0  0  0  0  0  0  0  0  0  0
    5.5284   -3.1239    0.0000 H   0  0  0  0  0  0  0  0  0  0  0  0
    4.0588    2.3453    0.0000 H   0  0  0  0  0  0  0  0  0  0  0  0
    6.9247    0.6907    0.0000 H   0  0  0  0  0  0  0  0  0  0  0  0
    1.4949    0.8333    0.0000 H   0  0  0  0  0  0  0  0  0  0  0  0
    6.8972   -2.2858    0.0000 H   0  0  0  0  0  0  0  0  0  0  0  0
    5.4949    3.1893    0.0000 H   0  0  0  0  0  0  0  0  0  0  0  0
    6.9375    2.3564    0.0000 H   0  0  0  0  0  0  0  0  0  0  0  0
  1  2  1  0  0  0  0
  1  3  1  0  0  0  0
  1  8  2  0  0  0  0
  2  4  1  0  0  0  0
  2  7  2  0  0  0  0
  3  6  1  0  0  0  0
  3 10  2  0  0  0  0
  4  5  1  0  0  0  0
  4  9  2  0  0  0  0
  5  6  1  0  0  0  0
  5 15  2  0  0  0  0
  6 16  2  0  0  0  0
  7 11  1  0  0  0  0
  7 13  1  0  0  0  0
  8 12  1  0  0  0  0
  8 14  1  0  0  0  0
  9 18  1  0  0  0  0
  9 21  1  0  0  0  0
 10 17  1  0  0  0  0
 10 22  1  0  0  0  0
 11 12  2  0  0  0  0
 11 23  1  0  0  0  0
 12 24  1  0  0  0  0
 13 18  2  0  0  0  0
 13 25  1  0  0  0  0
 14 17  2  0  0  0  0
 14 26  1  0  0  0  0
 15 20  1  0  0  0  0
 15 27  1  0  0  0  0
 16 19  1  0  0  0  0
 16 28  1  0  0  0  0
 17 30  1  0  0  0  0
 18 29  1  0  0  0  0
 19 20  2  0  0  0  0
 19 32  1  0  0  0  0
 20 31  1  0  0  0  0
M  END
> <PUBCHEM_COMPOUND_CID>
9128

> <PUBCHEM_COMPOUND_CANONICALIZED>
1

> <PUBCHEM_CACTVS_COMPLEXITY>
336

> <PUBCHEM_CACTVS_HBOND_ACCEPTOR>
0

> <PUBCHEM_CACTVS_HBOND_DONOR>
0

> <PUBCHEM_CACTVS_ROTATABLE_BOND>
0

> <PUBCHEM_CACTVS_SUBSKEYS>
AAADccB4AAAAAAAAAAAAAAAAAAAAAAAAAAAwYMGDAAAAAADBVAAAGAAAAAAADACAGAAwAMAAAACAAiBCAAACAAAgAAAIiAAAAIgIICKAERCAIAAggAAIiAcAgMAOwAACAAAQAACAAAQAACAAAAAAAAAAAA==

> <PUBCHEM_IUPAC_OPENEYE_NAME>
benzo[e]pyrene

> <PUBCHEM_IUPAC_CAS_NAME>
benzo[e]pyrene

> <PUBCHEM_IUPAC_NAME>
benzo[e]pyrene

> <PUBCHEM_IUPAC_SYSTEMATIC_NAME>
benzo[e]pyrene

> <PUBCHEM_IUPAC_TRADITIONAL_NAME>
benzo[e]pyrene

> <PUBCHEM_IUPAC_INCHI>
InChI=1S/C20H12/c1-2-8-16-15(7-1)17-9-3-5-13-11-12-14-6-4-10-18(16)20(14)19(13)17/h1-12H

> <PUBCHEM_IUPAC_INCHIKEY>
TXVHTIQJNYSSKO-UHFFFAOYSA-N

> <PUBCHEM_XLOGP3>
6.4

> <PUBCHEM_EXACT_MASS>
252.0939

> <PUBCHEM_MOLECULAR_FORMULA>
C20H12

> <PUBCHEM_MOLECULAR_WEIGHT>
252.30928

> <PUBCHEM_OPENEYE_CAN_SMILES>
C1=CC=C2C(=C1)C3=CC=CC4=C3C5=C(C=CC=C25)C=C4

> <PUBCHEM_OPENEYE_ISO_SMILES>
C1=CC=C2C(=C1)C3=CC=CC4=C3C5=C(C=CC=C25)C=C4

> <PUBCHEM_CACTVS_TPSA>
0

> <PUBCHEM_MONOISOTOPIC_WEIGHT>
252.0939

> <PUBCHEM_TOTAL_CHARGE>
0

> <PUBCHEM_HEAVY_ATOM_COUNT>
20

> <PUBCHEM_ATOM_DEF_STEREO_COUNT>
0

> <PUBCHEM_ATOM_UDEF_STEREO_COUNT>
0

> <PUBCHEM_BOND_DEF_STEREO_COUNT>
0

> <PUBCHEM_BOND_UDEF_STEREO_COUNT>
0

> <PUBCHEM_ISOTOPIC_ATOM_COUNT>
0

> <PUBCHEM_COMPONENT_COUNT>
1

> <PUBCHEM_CACTVS_TAUTO_COUNT>
1

> <PUBCHEM_COORDINATE_TYPE>
1
5
255

> <PUBCHEM_BONDANNOTATIONS>
1  2  8
1  3  8
1  8  8
10  17  8
11  12  8
13  18  8
14  17  8
15  20  8
16  19  8
19  20  8
2  4  8
2  7  8
3  10  8
3  6  8
4  5  8
4  9  8
5  15  8
5  6  8
6  16  8
7  11  8
7  13  8
8  12  8
8  14  8
9  18  8

$$$$

