17395599
  -OEChem-06241222512D

 63 67  0     1  0  0  0  0  0999 V2000
    6.3776    2.2420    0.0000 O   0  0  0  0  0  0  0  0  0  0  0  0
    4.5981   -0.8512    0.0000 N   0  0  0  0  0  0  0  0  0  0  0  0
    4.5981    1.1488    0.0000 N   0  0  0  0  0  0  0  0  0  0  0  0
    5.5686    3.6433    0.0000 N   0  0  0  0  0  0  0  0  0  0  0  0
    6.5468    3.8512    0.0000 N   0  0  0  0  0  0  0  0  0  0  0  0
    3.7320   -0.3512    0.0000 C   0  0  0  0  0  0  0  0  0  0  0  0
    5.4641   -0.3512    0.0000 C   0  0  0  0  0  0  0  0  0  0  0  0
    5.4641    0.6488    0.0000 C   0  0  0  0  0  0  0  0  0  0  0  0
    3.7320    0.6488    0.0000 C   0  0  0  0  0  0  0  0  0  0  0  0
    4.5981   -1.8512    0.0000 C   0  0  0  0  0  0  0  0  0  0  0  0
    4.5981    2.1488    0.0000 C   0  0  3  0  0  0  0  0  0  0  0  0
    3.7320   -2.3512    0.0000 C   0  0  0  0  0  0  0  0  0  0  0  0
    5.4641   -2.3512    0.0000 C   0  0  0  0  0  0  0  0  0  0  0  0
    3.7320    2.6488    0.0000 C   0  0  0  0  0  0  0  0  0  0  0  0
    5.4641    2.6488    0.0000 C   0  0  0  0  0  0  0  0  0  0  0  0
    5.4641   -3.3512    0.0000 C   0  0  0  0  0  0  0  0  0  0  0  0
    2.8660   -1.8512    0.0000 C   0  0  0  0  0  0  0  0  0  0  0  0
    6.3301   -1.8512    0.0000 C   0  0  0  0  0  0  0  0  0  0  0  0
    3.7320   -3.3512    0.0000 C   0  0  0  0  0  0  0  0  0  0  0  0
    6.3301   -3.8512    0.0000 C   0  0  0  0  0  0  0  0  0  0  0  0
    2.0000   -2.3512    0.0000 C   0  0  0  0  0  0  0  0  0  0  0  0
    7.1962   -2.3512    0.0000 C   0  0  0  0  0  0  0  0  0  0  0  0
    2.8660   -3.8512    0.0000 C   0  0  0  0  0  0  0  0  0  0  0  0
    7.0468    2.9852    0.0000 C   0  0  0  0  0  0  0  0  0  0  0  0
    7.1962   -3.3512    0.0000 C   0  0  0  0  0  0  0  0  0  0  0  0
    2.0000   -3.3512    0.0000 C   0  0  0  0  0  0  0  0  0  0  0  0
    8.0413    2.8807    0.0000 C   0  0  0  0  0  0  0  0  0  0  0  0
    8.4480    1.9671    0.0000 C   0  0  0  0  0  0  0  0  0  0  0  0
    8.6291    3.6897    0.0000 C   0  0  0  0  0  0  0  0  0  0  0  0
    9.4426    1.8626    0.0000 C   0  0  0  0  0  0  0  0  0  0  0  0
    9.6236    3.5852    0.0000 C   0  0  0  0  0  0  0  0  0  0  0  0
   10.0303    2.6716    0.0000 C   0  0  0  0  0  0  0  0  0  0  0  0
    9.8493    0.9490    0.0000 C   0  0  0  0  0  0  0  0  0  0  0  0
    5.6762   -0.9338    0.0000 H   0  0  0  0  0  0  0  0  0  0  0  0
    6.0747   -0.2436    0.0000 H   0  0  0  0  0  0  0  0  0  0  0  0
    3.1215   -0.2436    0.0000 H   0  0  0  0  0  0  0  0  0  0  0  0
    3.5200   -0.9338    0.0000 H   0  0  0  0  0  0  0  0  0  0  0  0
    6.0747    0.5411    0.0000 H   0  0  0  0  0  0  0  0  0  0  0  0
    5.6762    1.2314    0.0000 H   0  0  0  0  0  0  0  0  0  0  0  0
    3.5200    1.2314    0.0000 H   0  0  0  0  0  0  0  0  0  0  0  0
    3.1215    0.5411    0.0000 H   0  0  0  0  0  0  0  0  0  0  0  0
    4.5981   -2.4712    0.0000 H   0  0  0  0  0  0  0  0  0  0  0  0
    4.0611    1.8388    0.0000 H   0  0  0  0  0  0  0  0  0  0  0  0
    4.0420    3.1857    0.0000 H   0  0  0  0  0  0  0  0  0  0  0  0
    3.1951    2.9588    0.0000 H   0  0  0  0  0  0  0  0  0  0  0  0
    3.4220    2.1118    0.0000 H   0  0  0  0  0  0  0  0  0  0  0  0
    2.8660   -1.2312    0.0000 H   0  0  0  0  0  0  0  0  0  0  0  0
    4.9272   -3.6612    0.0000 H   0  0  0  0  0  0  0  0  0  0  0  0
    4.2690   -3.6612    0.0000 H   0  0  0  0  0  0  0  0  0  0  0  0
    6.3301   -1.2312    0.0000 H   0  0  0  0  0  0  0  0  0  0  0  0
    6.3301   -4.4712    0.0000 H   0  0  0  0  0  0  0  0  0  0  0  0
    1.4631   -2.0412    0.0000 H   0  0  0  0  0  0  0  0  0  0  0  0
    7.7331   -2.0412    0.0000 H   0  0  0  0  0  0  0  0  0  0  0  0
    2.8660   -4.4712    0.0000 H   0  0  0  0  0  0  0  0  0  0  0  0
    1.4631   -3.6612    0.0000 H   0  0  0  0  0  0  0  0  0  0  0  0
    7.7331   -3.6612    0.0000 H   0  0  0  0  0  0  0  0  0  0  0  0
    8.0836    1.4655    0.0000 H   0  0  0  0  0  0  0  0  0  0  0  0
    8.3769    4.2561    0.0000 H   0  0  0  0  0  0  0  0  0  0  0  0
    9.9880    4.0867    0.0000 H   0  0  0  0  0  0  0  0  0  0  0  0
   10.6469    2.6068    0.0000 H   0  0  0  0  0  0  0  0  0  0  0  0
    9.2829    0.6969    0.0000 H   0  0  0  0  0  0  0  0  0  0  0  0
   10.1015    0.3826    0.0000 H   0  0  0  0  0  0  0  0  0  0  0  0
   10.4157    1.2012    0.0000 H   0  0  0  0  0  0  0  0  0  0  0  0
  1 15  1  0  0  0  0
  1 24  1  0  0  0  0
  2  6  1  0  0  0  0
  2  7  1  0  0  0  0
  2 10  1  0  0  0  0
  3  8  1  0  0  0  0
  3  9  1  0  0  0  0
  3 11  1  0  0  0  0
  4  5  1  0  0  0  0
  4 15  2  0  0  0  0
  5 24  2  0  0  0  0
  6  9  1  0  0  0  0
  6 36  1  0  0  0  0
  6 37  1  0  0  0  0
  7  8  1  0  0  0  0
  7 34  1  0  0  0  0
  7 35  1  0  0  0  0
  8 38  1  0  0  0  0
  8 39  1  0  0  0  0
  9 40  1  0  0  0  0
  9 41  1  0  0  0  0
 10 12  1  0  0  0  0
 10 13  1  0  0  0  0
 10 42  1  0  0  0  0
 11 14  1  0  0  0  0
 11 15  1  0  0  0  0
 11 43  1  0  0  0  0
 12 17  2  0  0  0  0
 12 19  1  0  0  0  0
 13 16  2  0  0  0  0
 13 18  1  0  0  0  0
 14 44  1  0  0  0  0
 14 45  1  0  0  0  0
 14 46  1  0  0  0  0
 16 20  1  0  0  0  0
 16 48  1  0  0  0  0
 17 21  1  0  0  0  0
 17 47  1  0  0  0  0
 18 22  2  0  0  0  0
 18 50  1  0  0  0  0
 19 23  2  0  0  0  0
 19 49  1  0  0  0  0
 20 25  2  0  0  0  0
 20 51  1  0  0  0  0
 21 26  2  0  0  0  0
 21 52  1  0  0  0  0
 22 25  1  0  0  0  0
 22 53  1  0  0  0  0
 23 26  1  0  0  0  0
 23 54  1  0  0  0  0
 24 27  1  0  0  0  0
 25 56  1  0  0  0  0
 26 55  1  0  0  0  0
 27 28  1  0  0  0  0
 27 29  2  0  0  0  0
 28 30  2  0  0  0  0
 28 57  1  0  0  0  0
 29 31  1  0  0  0  0
 29 58  1  0  0  0  0
 30 32  1  0  0  0  0
 30 33  1  0  0  0  0
 31 32  2  0  0  0  0
 31 59  1  0  0  0  0
 32 60  1  0  0  0  0
 33 61  1  0  0  0  0
 33 62  1  0  0  0  0
 33 63  1  0  0  0  0
M  END
> <PUBCHEM_COMPOUND_CID>
17395599

> <PUBCHEM_COMPOUND_CANONICALIZED>
1

> <PUBCHEM_CACTVS_COMPLEXITY>
564

> <PUBCHEM_CACTVS_HBOND_ACCEPTOR>
5

> <PUBCHEM_CACTVS_HBOND_DONOR>
0

> <PUBCHEM_CACTVS_ROTATABLE_BOND>
6

> <PUBCHEM_CACTVS_SUBSKEYS>
AAADceB7oAAAAAAAAAAAAAAAAAAAAWAAAAA8YMEAAAAAAAAB1AAAHgAIAAAADCjBmgQyAIMABECqAiFyEACSAAAsAAAaiCG4DNgKZrKAtTmfMQhkyAGYqYeYyOCOAAACAAAAAAAAAAQAAAAAAAAAAAAAAA==

> <PUBCHEM_IUPAC_OPENEYE_NAME>
2-[1-(4-benzhydrylpiperazin-1-yl)ethyl]-5-(m-tolyl)-1,3,4-oxadiazole

> <PUBCHEM_IUPAC_CAS_NAME>
2-[1-[4-(diphenylmethyl)-1-piperazinyl]ethyl]-5-(3-methylphenyl)-1,3,4-oxadiazole

> <PUBCHEM_IUPAC_NAME>
2-[1-(4-benzhydrylpiperazin-1-yl)ethyl]-5-(3-methylphenyl)-1,3,4-oxadiazole

> <PUBCHEM_IUPAC_SYSTEMATIC_NAME>
2-[1-[4-(diphenylmethyl)piperazin-1-yl]ethyl]-5-(3-methylphenyl)-1,3,4-oxadiazole

> <PUBCHEM_IUPAC_TRADITIONAL_NAME>
2-[1-(4-benzhydrylpiperazino)ethyl]-5-(m-tolyl)-1,3,4-oxadiazole

> <PUBCHEM_IUPAC_INCHI>
InChI=1S/C28H30N4O/c1-21-10-9-15-25(20-21)28-30-29-27(33-28)22(2)31-16-18-32(19-17-31)26(23-11-5-3-6-12-23)24-13-7-4-8-14-24/h3-15,20,22,26H,16-19H2,1-2H3

> <PUBCHEM_IUPAC_INCHIKEY>
WBRKATGJDMEAJQ-UHFFFAOYSA-N

> <PUBCHEM_XLOGP3_AA>
5.1

> <PUBCHEM_EXACT_MASS>
438.241962

> <PUBCHEM_MOLECULAR_FORMULA>
C28H30N4O

> <PUBCHEM_MOLECULAR_WEIGHT>
438.564

> <PUBCHEM_OPENEYE_CAN_SMILES>
CC1=CC=CC(=C1)C2=NN=C(O2)C(C)N3CCN(CC3)C(C4=CC=CC=C4)C5=CC=CC=C5

> <PUBCHEM_OPENEYE_ISO_SMILES>
CC1=CC=CC(=C1)C2=NN=C(O2)C(C)N3CCN(CC3)C(C4=CC=CC=C4)C5=CC=CC=C5

> <PUBCHEM_CACTVS_TPSA>
45.4

> <PUBCHEM_MONOISOTOPIC_WEIGHT>
438.241962

> <PUBCHEM_TOTAL_CHARGE>
0

> <PUBCHEM_HEAVY_ATOM_COUNT>
33

> <PUBCHEM_ATOM_DEF_STEREO_COUNT>
0

> <PUBCHEM_ATOM_UDEF_STEREO_COUNT>
1

> <PUBCHEM_BOND_DEF_STEREO_COUNT>
0

> <PUBCHEM_BOND_UDEF_STEREO_COUNT>
0

> <PUBCHEM_ISOTOPIC_ATOM_COUNT>
0

> <PUBCHEM_COMPONENT_COUNT>
1

> <PUBCHEM_CACTVS_TAUTO_COUNT>
1

> <PUBCHEM_COORDINATE_TYPE>
1
5
255

> <PUBCHEM_BONDANNOTATIONS>
1  15  8
1  24  8
11  14  3
12  17  8
12  19  8
13  16  8
13  18  8
16  20  8
17  21  8
18  22  8
19  23  8
20  25  8
21  26  8
22  25  8
23  26  8
27  28  8
27  29  8
28  30  8
29  31  8
30  32  8
31  32  8
4  15  8
4  5  8
5  24  8

$$$$

