   Color/Form

     * Crystals from benzene
     * Light colored powder
     * Colorless crystals
     * White crystals

   from [1]HSDB

   Melting Point
        177 deg C
   from [2]HSDB

   Corrosivity
        NON-CORROSIVE; DECOMP PRODUCTS ARE CORROSIVE
   from [3]HSDB

   Octanol/Water Partition Coefficient
        log Kow= 2.85
   from [4]HSDB

   Solubilities

     * Slightly soluble in organic solvents.
     * 3-4% in aliphatic ketones and 0.1-1% in hydrocarbons.
     * 87 g/l chloroform; 22 g/l benzene; 12.5 g/l isopropanol
     * In water, 1 mg/l @ 20 deg C

   from [5]HSDB

   Spectral Properties
        Intense mass spectral peaks: 260 m/z (100%), 104 m/z (94%), 130
   m/z (93%), 76 m/z (86%)
   from [6]HSDB

   Vapor Pressure
        1.58X10-5 mm Hg @ 25 deg C
   from [7]HSDB

   Other Chemical/Physical Properties

     * Yellow powder /Technical folpet 90-95%/
     * CHEMICALLY RELATED TO CAPTAN

   from [8]HSDB

   Computed Properties
   Molecular Weight                  296.55756 [g/mol]
   Molecular Formula                 C[9]H[4]Cl[3]NO[2]S
   XLogP3                            2.8
   H-Bond Donor                      0
   H-Bond Acceptor                   3
   Rotatable Bond Count              1
   Exact Mass                        294.902832
   MonoIsotopic Mass                 294.902832
   Topological Polar Surface Area    62.7
   Heavy Atom Count                  16
   Formal Charge                     0
   Complexity                        307
   Isotope Atom Count                0
   Defined Atom Stereocenter Count   0
   Undefined Atom Stereocenter Count 0
   Defined Bond Stereocenter Count   0
   Undefined Bond Stereocenter Count 0
   Covalently-Bonded Unit Count      1
   Feature 3D Acceptor Count         2
   Feature 3D Ring Count             2
   Effective Rotor Count             2.2
   Conformer Sampling RMSD           0.6
   CID Conformer Count               [9]1

References

   1. http://toxnet.nlm.nih.gov/cgi-bin/sis/search/r?dbs+hsdb:@term+@rn+@rel+133-07-3
   2. http://toxnet.nlm.nih.gov/cgi-bin/sis/search/r?dbs+hsdb:@term+@rn+@rel+133-07-3
   3. http://toxnet.nlm.nih.gov/cgi-bin/sis/search/r?dbs+hsdb:@term+@rn+@rel+133-07-3
   4. http://toxnet.nlm.nih.gov/cgi-bin/sis/search/r?dbs+hsdb:@term+@rn+@rel+133-07-3
   5. http://toxnet.nlm.nih.gov/cgi-bin/sis/search/r?dbs+hsdb:@term+@rn+@rel+133-07-3
   6. http://toxnet.nlm.nih.gov/cgi-bin/sis/search/r?dbs+hsdb:@term+@rn+@rel+133-07-3
   7. http://toxnet.nlm.nih.gov/cgi-bin/sis/search/r?dbs+hsdb:@term+@rn+@rel+133-07-3
   8. http://toxnet.nlm.nih.gov/cgi-bin/sis/search/r?dbs+hsdb:@term+@rn+@rel+133-07-3
   9. http://pubchem.ncbi.nlm.nih.gov/vw3d/vw3d.cgi?cid=8607
