   Color/Form
        GRAYISH-WHITE, LUSTROUS, BRITTLE METALLOID; DIAMOND-CUBIC
   STRUCTURE WHEN CRYSTALLINE
   from [1]HSDB

   Boiling Point
        2700 DEG C
   from [2]HSDB

   Melting Point
        937.2 DEG C
   from [3]HSDB

   Critical Temperature and Pressure
        Critical temperature: 9803 K; critical pressure 6.511X10+8 Pa
   from [4]HSDB

   Density/Specific Gravity
        5.323 @ 25 DEG C/4 DEG C
   from [5]HSDB

   Heat of Combustion
        7380 J/g
   from [6]HSDB

   Heat of Vaporization
        3.5733X10+8 J/kmol @ melting point
   from [7]HSDB

   Solubilities

     * INSOL IN WATER, HYDROCHLORIC ACID, DIL ALKALI HYDROXIDES
     * SOL IN HOT SULFURIC ACID, AQUA REGIA; INSOL IN ALKALI

   from [8]HSDB

   Surface Tension
        6X10-1 N/m @ 1673.1 K
   from [9]HSDB

   Vapor Pressure
        0 mm Hg @ 25 deg C
   from [10]HSDB

   Other Chemical/Physical Properties

     * THERMAL EXPANSION COEFFICIENT AT APPROX 25 DEG C: 6.1X10-6 DEG C;
       THERMAL CONDUCTIVITY @ 25 DEG C: 0.14 CAL/SEC CM/DEG C; SPECIFIC
       HEAT (0-100 DEG C): 0.074 CAL/G/DEG C
     * LATTICE CONSTANT @ 25 DEG: 5.657X10-8 CM; VOL COMPRESSIBILITY:
       1.3X10-12 SQ CM/DYN; DIELECTRIC CONSTANT: 16; MAGNETIC (MASS)
       SUSCEPTIBILITY (CHI X10+6)= -0.12
     * COVALENT BOND IONIZATION ENERGY @ 0 DEG K= 1.2 ELECTRON VOLT; BAND
       GAP: 0.67 ELECTRON VOLT; ATOMS/CC= 4.42X10+22; IMPURITY ATOM
       IONIZATION ENERGY: APPROX 0.01 ELECTRON VOLT; INTRINSIC RESISTIVITY
       @ 300 DEG K= 47 OHM-CM
     * ELECTRON MOBILITY @ 300 DEG K: 3900 SQ CM/V SEC; HOLE MOBILITY @
       300 DEG K= 1900 CM/V SEC; HOLE DIFFUSION CONSTANT @ 300 DEG K= 49
     * INTRINSIC CHARGE DENSITY @ 300 DEG K= 2.4X10+13; ELECTRON DIFFUSION
       CONSTANT @ 300 DEG K= 100
     * IS HIGHLY TRANSPARENT TO INFRARED LIGHT; HAS A HIGH INDEX OF
       REFRACTION
     * THE METAL & MANY OF ITS ALLOYS EXPAND ON SOLIDIFICATION
     * FIVE NATURALLY OCCURRING ISOTOPES: 70 (20.55%); 72 (27.37%); 73
       (7.67%); 74 (36.74%); 76 (7.67%); ATOMIC NUMBER 32
     * POOR CONDUCTOR OF ELECTRICITY; VOL SMALLER BY FEW % WHEN MOLTEN;
       ATTACKED BY AQUA REGIA, CONCN NITRIC OR SULFURIC ACIDS, FUSED
       ALKALIES, ALKALI PEROXIDES, NITRATES, OR CARBONATES
     * HARDNESS 6 ON MOHS SCALE
     * Liquid molar volume = 0.013001 cu m/kmol determined at the triple
       point.
     * IG heat of formation = 3.766X10+8 J/kmol (ideal gas); for the
       crystal the enthalpy of formation is 0 at 298.15 K.
     * Heat of fusion at melting point = 3.18X10+7 J/kmol.

   from [11]HSDB

   Computed Properties
   Molecular Weight                  72.64 [g/mol]
   Molecular Formula                 Ge
   H-Bond Donor                      0
   H-Bond Acceptor                   0
   Rotatable Bond Count              0
   Exact Mass                        73.921178
   MonoIsotopic Mass                 73.921178
   Topological Polar Surface Area    0
   Heavy Atom Count                  1
   Formal Charge                     0
   Complexity                        0
   Isotope Atom Count                0
   Defined Atom Stereocenter Count   0
   Undefined Atom Stereocenter Count 0
   Defined Bond Stereocenter Count   0
   Undefined Bond Stereocenter Count 0
   Covalently-Bonded Unit Count      1

References

   1. http://toxnet.nlm.nih.gov/cgi-bin/sis/search/r?dbs+hsdb:@term+@rn+@rel+7440-56-4
   2. http://toxnet.nlm.nih.gov/cgi-bin/sis/search/r?dbs+hsdb:@term+@rn+@rel+7440-56-4
   3. http://toxnet.nlm.nih.gov/cgi-bin/sis/search/r?dbs+hsdb:@term+@rn+@rel+7440-56-4
   4. http://toxnet.nlm.nih.gov/cgi-bin/sis/search/r?dbs+hsdb:@term+@rn+@rel+7440-56-4
   5. http://toxnet.nlm.nih.gov/cgi-bin/sis/search/r?dbs+hsdb:@term+@rn+@rel+7440-56-4
   6. http://toxnet.nlm.nih.gov/cgi-bin/sis/search/r?dbs+hsdb:@term+@rn+@rel+7440-56-4
   7. http://toxnet.nlm.nih.gov/cgi-bin/sis/search/r?dbs+hsdb:@term+@rn+@rel+7440-56-4
   8. http://toxnet.nlm.nih.gov/cgi-bin/sis/search/r?dbs+hsdb:@term+@rn+@rel+7440-56-4
   9. http://toxnet.nlm.nih.gov/cgi-bin/sis/search/r?dbs+hsdb:@term+@rn+@rel+7440-56-4
  10. http://toxnet.nlm.nih.gov/cgi-bin/sis/search/r?dbs+hsdb:@term+@rn+@rel+7440-56-4
  11. http://toxnet.nlm.nih.gov/cgi-bin/sis/search/r?dbs+hsdb:@term+@rn+@rel+7440-56-4
