   Color/Form
        Colorless liquid
   from [1]HSDB

   Boiling Point
        80 deg C @ 0.05 mm Hg
   from [2]HSDB

   Density/Specific Gravity
        1.41 g/cu cm @ 20 deg C
   from [3]HSDB

   Octanol/Water Partition Coefficient
        log Kow = 4.59 @ 25 deg C
   from [4]HSDB

   Solubilities

     * Soluble in acetonitrile, chloroform, ethanol, hexane, xylene
     * In water: <1 mg/l @ 20 deg C

   from [5]HSDB

   Spectral Properties
        Index of refraction: 1.4980 @ 25 deg C/D
   from [6]HSDB

   Vapor Pressure
        7.95X10-4 mm Hg @ 20 deg C
   from [7]HSDB

   Other Chemical/Physical Properties
        Solubility in water, 3 ppm @ 20 deg C /Technical/
   from [8]HSDB

   Computed Properties
   Molecular Weight                  336.000502 [g/mol]
   Molecular Formula                 C[6]H[11]Cl[4]O[3]PS
   XLogP3-AA                         4.6
   H-Bond Donor                      0
   H-Bond Acceptor                   4
   Rotatable Bond Count              6
   Exact Mass                        335.889112
   MonoIsotopic Mass                 333.892063
   Topological Polar Surface Area    59.8
   Heavy Atom Count                  15
   Formal Charge                     0
   Complexity                        225
   Isotope Atom Count                0
   Defined Atom Stereocenter Count   0
   Undefined Atom Stereocenter Count 1
   Defined Bond Stereocenter Count   0
   Undefined Bond Stereocenter Count 0
   Covalently-Bonded Unit Count      1
   Effective Rotor Count             7
   Conformer Sampling RMSD           0.8
   CID Conformer Count               [9]15

References

   1. http://toxnet.nlm.nih.gov/cgi-bin/sis/search/r?dbs+hsdb:@term+@rn+@rel+54593-83-8
   2. http://toxnet.nlm.nih.gov/cgi-bin/sis/search/r?dbs+hsdb:@term+@rn+@rel+54593-83-8
   3. http://toxnet.nlm.nih.gov/cgi-bin/sis/search/r?dbs+hsdb:@term+@rn+@rel+54593-83-8
   4. http://toxnet.nlm.nih.gov/cgi-bin/sis/search/r?dbs+hsdb:@term+@rn+@rel+54593-83-8
   5. http://toxnet.nlm.nih.gov/cgi-bin/sis/search/r?dbs+hsdb:@term+@rn+@rel+54593-83-8
   6. http://toxnet.nlm.nih.gov/cgi-bin/sis/search/r?dbs+hsdb:@term+@rn+@rel+54593-83-8
   7. http://toxnet.nlm.nih.gov/cgi-bin/sis/search/r?dbs+hsdb:@term+@rn+@rel+54593-83-8
   8. http://toxnet.nlm.nih.gov/cgi-bin/sis/search/r?dbs+hsdb:@term+@rn+@rel+54593-83-8
   9. http://pubchem.ncbi.nlm.nih.gov/vw3d/vw3d.cgi?cid=91655
