9897
  -OEChem-06261204102D

 16 15  0     1  0  0  0  0  0999 V2000
    2.0000   -0.9720    0.0000 F   0  0  0  0  0  0  0  0  0  0  0  0
    2.3660    0.3940    0.0000 F   0  0  0  0  0  0  0  0  0  0  0  0
    3.3660   -1.3380    0.0000 F   0  0  0  0  0  0  0  0  0  0  0  0
    4.5981   -0.4720    0.0000 O   0  0  0  0  0  0  0  0  0  0  0  0
    3.7320    1.0280    0.0000 O   0  0  0  0  0  0  0  0  0  0  0  0
    3.7320    0.0280    0.0000 C   0  0  3  0  0  0  0  0  0  0  0  0
    2.8660   -0.4720    0.0000 C   0  0  0  0  0  0  0  0  0  0  0  0
    5.4641    0.0280    0.0000 C   0  0  0  0  0  0  0  0  0  0  0  0
    6.3301   -0.4720    0.0000 C   0  0  0  0  0  0  0  0  0  0  0  0
    3.1951    0.3380    0.0000 H   0  0  0  0  0  0  0  0  0  0  0  0
    5.8626    0.5030    0.0000 H   0  0  0  0  0  0  0  0  0  0  0  0
    5.0656    0.5030    0.0000 H   0  0  0  0  0  0  0  0  0  0  0  0
    6.0201   -1.0089    0.0000 H   0  0  0  0  0  0  0  0  0  0  0  0
    6.8671   -0.7820    0.0000 H   0  0  0  0  0  0  0  0  0  0  0  0
    6.6401    0.0649    0.0000 H   0  0  0  0  0  0  0  0  0  0  0  0
    4.2690    1.3380    0.0000 H   0  0  0  0  0  0  0  0  0  0  0  0
  1  7  1  0  0  0  0
  2  7  1  0  0  0  0
  3  7  1  0  0  0  0
  4  6  1  0  0  0  0
  4  8  1  0  0  0  0
  5  6  1  0  0  0  0
  5 16  1  0  0  0  0
  6  7  1  0  0  0  0
  6 10  1  0  0  0  0
  8  9  1  0  0  0  0
  8 11  1  0  0  0  0
  8 12  1  0  0  0  0
  9 13  1  0  0  0  0
  9 14  1  0  0  0  0
  9 15  1  0  0  0  0
M  END
> <PUBCHEM_COMPOUND_CID>
9897

> <PUBCHEM_COMPOUND_CANONICALIZED>
1

> <PUBCHEM_CACTVS_COMPLEXITY>
80.4

> <PUBCHEM_CACTVS_HBOND_ACCEPTOR>
5

> <PUBCHEM_CACTVS_HBOND_DONOR>
1

> <PUBCHEM_CACTVS_ROTATABLE_BOND>
2

> <PUBCHEM_CACTVS_SUBSKEYS>
AAADcYBgMYAAAAAAAAAAAAAAAAAAAAAAAAAAAAAAAAAAAAAAAAAAGwAACAAAAACwgBMCCAAABgAAAAAAAAAAAAAAAAAAAAAAAAAQEAAAAAACAAAAAAAEAAAAAAAAAAAAAAAAAAAAAAAAAAAAAAAAAAAAAA==

> <PUBCHEM_IUPAC_OPENEYE_NAME>
1-ethoxy-2,2,2-trifluoro-ethanol

> <PUBCHEM_IUPAC_CAS_NAME>
1-ethoxy-2,2,2-trifluoroethanol

> <PUBCHEM_IUPAC_NAME>
1-ethoxy-2,2,2-trifluoroethanol

> <PUBCHEM_IUPAC_SYSTEMATIC_NAME>
1-ethoxy-2,2,2-tris(fluoranyl)ethanol

> <PUBCHEM_IUPAC_TRADITIONAL_NAME>
1-ethoxy-2,2,2-trifluoro-ethanol

> <PUBCHEM_IUPAC_INCHI>
InChI=1S/C4H7F3O2/c1-2-9-3(8)4(5,6)7/h3,8H,2H2,1H3

> <PUBCHEM_IUPAC_INCHIKEY>
KLXJPQNHFFMLIG-UHFFFAOYSA-N

> <PUBCHEM_XLOGP3_AA>
1

> <PUBCHEM_EXACT_MASS>
144.039814

> <PUBCHEM_MOLECULAR_FORMULA>
C4H7F3O2

> <PUBCHEM_MOLECULAR_WEIGHT>
144.09239

> <PUBCHEM_OPENEYE_CAN_SMILES>
CCOC(C(F)(F)F)O

> <PUBCHEM_OPENEYE_ISO_SMILES>
CCOC(C(F)(F)F)O

> <PUBCHEM_CACTVS_TPSA>
29.5

> <PUBCHEM_MONOISOTOPIC_WEIGHT>
144.039814

> <PUBCHEM_TOTAL_CHARGE>
0

> <PUBCHEM_HEAVY_ATOM_COUNT>
9

> <PUBCHEM_ATOM_DEF_STEREO_COUNT>
0

> <PUBCHEM_ATOM_UDEF_STEREO_COUNT>
1

> <PUBCHEM_BOND_DEF_STEREO_COUNT>
0

> <PUBCHEM_BOND_UDEF_STEREO_COUNT>
0

> <PUBCHEM_ISOTOPIC_ATOM_COUNT>
0

> <PUBCHEM_COMPONENT_COUNT>
1

> <PUBCHEM_CACTVS_TAUTO_COUNT>
1

> <PUBCHEM_COORDINATE_TYPE>
1
5
255

> <PUBCHEM_BONDANNOTATIONS>
6  5  3

$$$$

