13803
  -OEChem-06241222402D

 47 47  0     1  0  0  0  0  0999 V2000
    5.0474    1.7648    0.0000 P   0  0  3  0  0  0  0  0  0  0  0  0
    5.4104    3.4584    0.0000 P   0  0  3  0  0  0  0  0  0  0  0  0
    5.7735    5.1520    0.0000 P   0  0  3  0  0  0  0  0  0  0  0  0
    3.7169    3.8215    0.0000 Na  0  3  0  0  0  0  0  0  0  0  0  0
    7.4671    4.7890    0.0000 Na  0  3  0  0  0  0  0  0  0  0  0  0
    4.4026   -1.6883    0.0000 O   0  0  0  0  0  0  0  0  0  0  0  0
    6.7485   -2.7802    0.0000 O   0  0  0  0  0  0  0  0  0  0  0  0
    6.7523   -0.6046    0.0000 O   0  0  0  0  0  0  0  0  0  0  0  0
    5.3548    0.8132    0.0000 O   0  0  0  0  0  0  0  0  0  0  0  0
    4.7400    2.7164    0.0000 O   0  0  0  0  0  0  0  0  0  0  0  0
    5.9990    2.0722    0.0000 O   0  0  0  0  0  0  0  0  0  0  0  0
    4.0958    1.4575    0.0000 O   0  0  0  0  0  0  0  0  0  0  0  0
    6.0809    4.2004    0.0000 O   0  0  0  0  0  0  0  0  0  0  0  0
    4.6685    4.1288    0.0000 O   0  5  0  0  0  0  0  0  0  0  0  0
    6.1524    2.7880    0.0000 O   0  0  0  0  0  0  0  0  0  0  0  0
    5.4661    6.1036    0.0000 O   0  0  0  0  0  0  0  0  0  0  0  0
    6.7251    5.4594    0.0000 O   0  5  0  0  0  0  0  0  0  0  0  0
    4.8219    4.8446    0.0000 O   0  0  0  0  0  0  0  0  0  0  0  0
    4.6783   -3.4489    0.0000 N   0  0  0  0  0  0  0  0  0  0  0  0
    4.6783   -5.0583    0.0000 N   0  0  0  0  0  0  0  0  0  0  0  0
    2.8660   -3.2536    0.0000 N   0  0  0  0  0  0  0  0  0  0  0  0
    2.0000   -4.7536    0.0000 N   0  0  0  0  0  0  0  0  0  0  0  0
    2.8660   -6.2536    0.0000 N   0  0  0  0  0  0  0  0  0  0  0  0
    5.9405   -2.1910    0.0000 C   0  0  2  0  0  0  0  0  0  0  0  0
    5.9422   -1.1910    0.0000 C   0  0  1  0  0  0  0  0  0  0  0  0
    4.9889   -2.4984    0.0000 C   0  0  1  0  0  0  0  0  0  0  0  0
    4.9917   -0.8803    0.0000 C   0  0  1  0  0  0  0  0  0  0  0  0
    4.6844    0.0713    0.0000 C   0  0  0  0  0  0  0  0  0  0  0  0
    3.7320   -3.7536    0.0000 C   0  0  0  0  0  0  0  0  0  0  0  0
    5.2619   -4.2536    0.0000 C   0  0  0  0  0  0  0  0  0  0  0  0
    3.7320   -4.7536    0.0000 C   0  0  0  0  0  0  0  0  0  0  0  0
    2.8660   -5.2536    0.0000 C   0  0  0  0  0  0  0  0  0  0  0  0
    2.0000   -3.7536    0.0000 C   0  0  0  0  0  0  0  0  0  0  0  0
    5.8425   -2.8032    0.0000 H   0  0  0  0  0  0  0  0  0  0  0  0
    6.4942   -1.4734    0.0000 H   0  0  0  0  0  0  0  0  0  0  0  0
    5.4266   -2.9375    0.0000 H   0  0  0  0  0  0  0  0  0  0  0  0
    4.3795   -0.7823    0.0000 H   0  0  0  0  0  0  0  0  0  0  0  0
    4.3035    0.5605    0.0000 H   0  0  0  0  0  0  0  0  0  0  0  0
    4.1364   -0.2189    0.0000 H   0  0  0  0  0  0  0  0  0  0  0  0
    7.3154   -2.5290    0.0000 H   0  0  0  0  0  0  0  0  0  0  0  0
    7.3182   -0.8578    0.0000 H   0  0  0  0  0  0  0  0  0  0  0  0
    5.8819   -4.2536    0.0000 H   0  0  0  0  0  0  0  0  0  0  0  0
    1.4631   -3.4436    0.0000 H   0  0  0  0  0  0  0  0  0  0  0  0
    2.3291   -6.5636    0.0000 H   0  0  0  0  0  0  0  0  0  0  0  0
    3.4030   -6.5636    0.0000 H   0  0  0  0  0  0  0  0  0  0  0  0
    6.4590    1.6566    0.0000 H   0  0  0  0  0  0  0  0  0  0  0  0
    5.8818    6.5636    0.0000 H   0  0  0  0  0  0  0  0  0  0  0  0
  1  9  1  0  0  0  0
  1 10  1  0  0  0  0
  1 11  1  0  0  0  0
  1 12  2  0  0  0  0
  2 10  1  0  0  0  0
  2 13  1  0  0  0  0
  2 14  1  0  0  0  0
  2 15  2  0  0  0  0
  3 13  1  0  0  0  0
  3 16  1  0  0  0  0
  3 17  1  0  0  0  0
  3 18  2  0  0  0  0
  6 26  1  0  0  0  0
  6 27  1  0  0  0  0
 24  7  1  1  0  0  0
  7 40  1  0  0  0  0
 25  8  1  1  0  0  0
  8 41  1  0  0  0  0
  9 28  1  0  0  0  0
 11 46  1  0  0  0  0
 16 47  1  0  0  0  0
 26 19  1  6  0  0  0
 19 29  1  0  0  0  0
 19 30  1  0  0  0  0
 20 30  2  0  0  0  0
 20 31  1  0  0  0  0
 21 29  2  0  0  0  0
 21 33  1  0  0  0  0
 22 32  1  0  0  0  0
 22 33  2  0  0  0  0
 23 32  1  0  0  0  0
 23 44  1  0  0  0  0
 23 45  1  0  0  0  0
 24 25  1  0  0  0  0
 24 26  1  0  0  0  0
 24 34  1  0  0  0  0
 25 27  1  0  0  0  0
 25 35  1  0  0  0  0
 26 36  1  0  0  0  0
 27 28  1  6  0  0  0
 27 37  1  0  0  0  0
 28 38  1  0  0  0  0
 28 39  1  0  0  0  0
 29 31  1  0  0  0  0
 30 42  1  0  0  0  0
 31 32  2  0  0  0  0
 33 43  1  0  0  0  0
M  CHG  4   4   1   5   1  14  -1  17  -1
M  END
> <PUBCHEM_COMPOUND_CID>
13803

> <PUBCHEM_COMPOUND_CANONICALIZED>
1

> <PUBCHEM_CACTVS_COMPLEXITY>
789

> <PUBCHEM_CACTVS_HBOND_ACCEPTOR>
17

> <PUBCHEM_CACTVS_HBOND_DONOR>
5

> <PUBCHEM_CACTVS_ROTATABLE_BOND>
8

> <PUBCHEM_CACTVS_SUBSKEYS>
AAADccBzvDMAAAAAAAAAAAAAAAAAAWJAAAAsAAAAAAAAAFgB+AAAHgAQCCAACBzhlwYF8L9MFxCgQQZhZICAgC0REKABUCAoVBCDWAJAyEAeRAgPAALTACDwMAIAAAAAAAAAAAAAAAAAAAAAAAAAAAAAAA==

> <PUBCHEM_IUPAC_OPENEYE_NAME>
disodium [[[(2R,3S,4R,5R)-5-(6-aminopurin-9-yl)-3,4-dihydroxy-tetrahydrofuran-2-yl]methoxy-hydroxy-phosphoryl]oxy-oxido-phosphoryl] hydrogen phosphate

> <PUBCHEM_IUPAC_CAS_NAME>
disodium [[[(2R,3S,4R,5R)-5-(6-aminopurin-9-yl)-3,4-dihydroxy-2-oxolanyl]methoxy-hydroxyphosphoryl]oxy-oxidophosphoryl] hydrogen phosphate

> <PUBCHEM_IUPAC_NAME>
disodium [[[(2R,3S,4R,5R)-5-(6-aminopurin-9-yl)-3,4-dihydroxyoxolan-2-yl]methoxy-hydroxyphosphoryl]oxy-oxidophosphoryl] hydrogen phosphate

> <PUBCHEM_IUPAC_SYSTEMATIC_NAME>
disodium [[[(2R,3S,4R,5R)-5-(6-aminopurin-9-yl)-3,4-bis(oxidanyl)oxolan-2-yl]methoxy-oxidanyl-phosphoryl]oxy-oxidanidyl-phosphoryl] hydrogen phosphate

> <PUBCHEM_IUPAC_TRADITIONAL_NAME>
disodium [[[(2R,3S,4R,5R)-5-adenin-9-yl-3,4-dihydroxy-tetrahydrofuran-2-yl]methoxy-hydroxy-phosphoryl]oxy-oxido-phosphoryl] hydrogen phosphate

> <PUBCHEM_IUPAC_INCHI>
InChI=1S/C10H16N5O13P3.2Na/c11-8-5-9(13-2-12-8)15(3-14-5)10-7(17)6(16)4(26-10)1-25-30(21,22)28-31(23,24)27-29(18,19)20;;/h2-4,6-7,10,16-17H,1H2,(H,21,22)(H,23,24)(H2,11,12,13)(H2,18,19,20);;/q;2*+1/p-2/t4-,6-,7-,10-;;/m1../s1

> <PUBCHEM_IUPAC_INCHIKEY>
TTWYZDPBDWHJOR-IDIVVRGQSA-L

> <PUBCHEM_EXACT_MASS>
550.959634

> <PUBCHEM_MOLECULAR_FORMULA>
C10H14N5Na2O13P3

> <PUBCHEM_MOLECULAR_WEIGHT>
551.144685

> <PUBCHEM_OPENEYE_CAN_SMILES>
C1=NC2=C(C(=N1)N)N=CN2C3C(C(C(O3)COP(=O)(O)OP(=O)([O-])OP(=O)(O)[O-])O)O.[Na+].[Na+]

> <PUBCHEM_OPENEYE_ISO_SMILES>
C1=NC2=C(C(=N1)N)N=CN2[C@H]3[C@@H]([C@@H]([C@H](O3)COP(=O)(O)OP(=O)([O-])OP(=O)(O)[O-])O)O.[Na+].[Na+]

> <PUBCHEM_CACTVS_TPSA>
285

> <PUBCHEM_MONOISOTOPIC_WEIGHT>
550.959634

> <PUBCHEM_TOTAL_CHARGE>
0

> <PUBCHEM_HEAVY_ATOM_COUNT>
33

> <PUBCHEM_ATOM_DEF_STEREO_COUNT>
4

> <PUBCHEM_ATOM_UDEF_STEREO_COUNT>
0

> <PUBCHEM_BOND_DEF_STEREO_COUNT>
0

> <PUBCHEM_BOND_UDEF_STEREO_COUNT>
0

> <PUBCHEM_ISOTOPIC_ATOM_COUNT>
0

> <PUBCHEM_COMPONENT_COUNT>
3

> <PUBCHEM_CACTVS_TAUTO_COUNT>
3

> <PUBCHEM_COORDINATE_TYPE>
1
5
255

> <PUBCHEM_BONDANNOTATIONS>
26  19  6
19  29  8
19  30  8
20  30  8
20  31  8
21  29  8
21  33  8
22  32  8
22  33  8
27  28  6
29  31  8
31  32  8
24  7  5
25  8  5

$$$$

