   Color/Form

     * Leaflets from water + alcohol
     * White, crystalline solid

   from [1]HSDB

   Boiling Point
        Sublimes
   from [2]HSDB

   Melting Point
        315 deg C (closed capillary)
   from [3]HSDB

   Density/Specific Gravity
        1.23 g/cu cm at 25 deg C
   from [4]HSDB

   Dissociation Constants
        pKa = 2.30
   from [5]HSDB

   Octanol/Water Partition Coefficient
        log Kow = -2.26
   from [6]HSDB

   Solubilities

     * Insoluble in common neutral solvents.
     * Very slightly soluble in alcohol; insoluble in ether
     * Solubility in water at 0 deg C: 83.4 g/L; at 25 deg C: 88.5 g/L; at
       50 deg C: 96.2 g/L; at 65 deg C: 102.4 g/L
     * In water, 5.85X10+4 mg/L at 25 deg C

   from [7]HSDB

   Spectral Properties

     * Specific optical rotation: +22.9 deg at 23 deg C/D (c = 0.8 in 20%
       HCl). Molecular rotation: + 33.1 deg at at sodium line (5N HCl); +
       72.6 deg at sodium line (glacial acetic acid)
     * MASS: 26146 (NIST/EPA/MSDC Mass Spectral Database, 1990 version)
     * IR: 5139 (Coblentz Society Spectral Collection)
     * 1H NMR: 15096 (Sadtler Research Laboratories spectral collection)

   from [8]HSDB

   Vapor Pressure
        5.55X10-9 mm Hg at 25 deg C (est)
   from [9]HSDB

   Other Chemical/Physical Properties

     * Sublimes without melting at ordinary speed of heating. Decomposes
       at 298 deg C (closed capillary, very rapid heating). One part
       dissolves in 11.7 parts of water at 15 deg C, in 14.1 parts of
       water at 25 deg C. Insoluble in common neutral solvents. /Valine
       DL-form/
     * MP: 315 deg C with decomposition (D-Valine (natural isomer))
     * MP: 293 deg C with decomposition (L-Valine)
     * UV: 3-46 (Organic Electronic Spectral Data, Phillips et al, John
       Wiley & Sons, New York) /Valine (DL)/
     * Raman: 426 (Sadtler Research Laboratories spectral collection)
       /Valine (DL)/
     * 1H NMR: 10363 (Sadtler Research Laboratories spectral collection)
       /Valine (DL)/
     * 13C NMR: 479 (Stothers, Carbon-13 NMR Spectroscopy, Academic Press,
       New York) /Valine (DL)/
     * MASS: 76376 (NIST/EPA/MSDC Mass Spectral Database, 1990 version);
       57 (Aldermaston, Eight Peak Index of Mass Spectra, U.K.) /Valine
       (DL)/
     * MASS: 57 (Aldermaston, Eight Peak Index of Mass Spectra, U.K.)
       /Valine (D)/
     * Henry's Law constant = 2.63X10-9 atm-cu m/mol at 25 deg C (est)
     * Hydroxyl radical reaction rate constant = 4.09X10-11 cu
       cm/molec-sec at 25 deg C (est)

   from [10]HSDB

   Computed Properties
   Molecular Weight                  117.14634 [g/mol]
   Molecular Formula                 C[5]H[11]NO[2]
   XLogP3                            -2.3
   H-Bond Donor                      2
   H-Bond Acceptor                   3
   Rotatable Bond Count              2
   Exact Mass                        117.078979
   MonoIsotopic Mass                 117.078979
   Topological Polar Surface Area    63.3
   Heavy Atom Count                  8
   Formal Charge                     0
   Complexity                        90.4
   Isotope Atom Count                0
   Defined Atom Stereocenter Count   1
   Undefined Atom Stereocenter Count 0
   Defined Bond Stereocenter Count   0
   Undefined Bond Stereocenter Count 0
   Covalently-Bonded Unit Count      1
   Feature 3D Acceptor Count         2
   Feature 3D Donor Count            1
   Feature 3D Anion Count            1
   Feature 3D Cation Count           1
   Feature 3D Hydrophobe Count       1
   Effective Rotor Count             2
   Conformer Sampling RMSD           0.4
   CID Conformer Count               [11]8

References

   1. http://toxnet.nlm.nih.gov/cgi-bin/sis/search/r?dbs+hsdb:@term+@rn+@rel+72-18-4
   2. http://toxnet.nlm.nih.gov/cgi-bin/sis/search/r?dbs+hsdb:@term+@rn+@rel+72-18-4
   3. http://toxnet.nlm.nih.gov/cgi-bin/sis/search/r?dbs+hsdb:@term+@rn+@rel+72-18-4
   4. http://toxnet.nlm.nih.gov/cgi-bin/sis/search/r?dbs+hsdb:@term+@rn+@rel+72-18-4
   5. http://toxnet.nlm.nih.gov/cgi-bin/sis/search/r?dbs+hsdb:@term+@rn+@rel+72-18-4
   6. http://toxnet.nlm.nih.gov/cgi-bin/sis/search/r?dbs+hsdb:@term+@rn+@rel+72-18-4
   7. http://toxnet.nlm.nih.gov/cgi-bin/sis/search/r?dbs+hsdb:@term+@rn+@rel+72-18-4
   8. http://toxnet.nlm.nih.gov/cgi-bin/sis/search/r?dbs+hsdb:@term+@rn+@rel+72-18-4
   9. http://toxnet.nlm.nih.gov/cgi-bin/sis/search/r?dbs+hsdb:@term+@rn+@rel+72-18-4
  10. http://toxnet.nlm.nih.gov/cgi-bin/sis/search/r?dbs+hsdb:@term+@rn+@rel+72-18-4
  11. http://pubchem.ncbi.nlm.nih.gov/vw3d/vw3d.cgi?cid=6287
