50986210
  -OEChem-07051213152D

 61 63  0     1  0  0  0  0  0999 V2000
    5.1350   -2.2656    0.0000 P   0  0  3  0  0  0  0  0  0  0  0  0
    6.0010   -0.7657    0.0000 P   0  0  3  0  0  0  0  0  0  0  0  0
    4.2690   -2.7656    0.0000 O   0  0  0  0  0  0  0  0  0  0  0  0
    7.6761    2.3221    0.0000 O   0  0  0  0  0  0  0  0  0  0  0  0
    6.0010   -3.7656    0.0000 O   0  0  0  0  0  0  0  0  0  0  0  0
    2.5369   -3.7656    0.0000 O   0  0  0  0  0  0  0  0  0  0  0  0
    6.0010   -5.7656    0.0000 O   0  0  0  0  0  0  0  0  0  0  0  0
    2.5369   -5.7656    0.0000 O   0  0  0  0  0  0  0  0  0  0  0  0
    4.2690   -6.7656    0.0000 O   0  0  0  0  0  0  0  0  0  0  0  0
    5.1070    2.0131    0.0000 O   0  0  0  0  0  0  0  0  0  0  0  0
    5.7793    4.0822    0.0000 O   0  0  0  0  0  0  0  0  0  0  0  0
    6.0010    0.2343    0.0000 O   0  0  0  0  0  0  0  0  0  0  0  0
    6.0010   -1.7656    0.0000 O   0  0  0  0  0  0  0  0  0  0  0  0
    4.6350   -1.3996    0.0000 O   0  0  0  0  0  0  0  0  0  0  0  0
    5.6350   -3.1317    0.0000 O   0  0  0  0  0  0  0  0  0  0  0  0
    7.0010   -0.7657    0.0000 O   0  0  0  0  0  0  0  0  0  0  0  0
    5.0010   -0.7657    0.0000 O   0  0  0  0  0  0  0  0  0  0  0  0
    9.3561    3.0641    0.0000 O   0  0  0  0  0  0  0  0  0  0  0  0
    7.9548    4.0822    0.0000 N   0  0  0  0  0  0  0  0  0  0  0  0
    9.5372    4.7867    0.0000 N   0  0  0  0  0  0  0  0  0  0  0  0
    9.7182    6.5093    0.0000 N   0  0  0  0  0  0  0  0  0  0  0  0
    4.2690   -3.7656    0.0000 C   0  0  0  0  0  0  0  0  0  0  0  0
    5.1350   -4.2656    0.0000 C   0  0  2  0  0  0  0  0  0  0  0  0
    3.4030   -4.2656    0.0000 C   0  0  2  0  0  0  0  0  0  0  0  0
    5.1350   -5.2656    0.0000 C   0  0  1  0  0  0  0  0  0  0  0  0
    3.4030   -5.2656    0.0000 C   0  0  2  0  0  0  0  0  0  0  0  0
    4.2690   -5.7656    0.0000 C   0  0  0  0  0  0  0  0  0  0  0  0
    6.0580    2.3221    0.0000 C   0  0  2  0  0  0  0  0  0  0  0  0
    6.8671    1.7344    0.0000 C   0  0  1  0  0  0  0  0  0  0  0  0
    6.3671    3.2732    0.0000 C   0  0  2  0  0  0  0  0  0  0  0  0
    7.3671    3.2732    0.0000 C   0  0  1  0  0  0  0  0  0  0  0  0
    6.8671    0.7343    0.0000 C   0  0  0  0  0  0  0  0  0  0  0  0
    7.5481    4.9958    0.0000 C   0  0  0  0  0  0  0  0  0  0  0  0
    8.9494    3.9777    0.0000 C   0  0  0  0  0  0  0  0  0  0  0  0
    8.1359    5.8048    0.0000 C   0  0  0  0  0  0  0  0  0  0  0  0
    9.1304    5.7002    0.0000 C   0  0  0  0  0  0  0  0  0  0  0  0
    4.8059   -3.4556    0.0000 H   0  0  0  0  0  0  0  0  0  0  0  0
    5.6720   -4.5757    0.0000 H   0  0  0  0  0  0  0  0  0  0  0  0
    2.8660   -4.5757    0.0000 H   0  0  0  0  0  0  0  0  0  0  0  0
    5.1350   -5.8856    0.0000 H   0  0  0  0  0  0  0  0  0  0  0  0
    3.4030   -5.8856    0.0000 H   0  0  0  0  0  0  0  0  0  0  0  0
    4.8059   -6.0757    0.0000 H   0  0  0  0  0  0  0  0  0  0  0  0
    5.6196    2.7605    0.0000 H   0  0  0  0  0  0  0  0  0  0  0  0
    7.4195    1.4529    0.0000 H   0  0  0  0  0  0  0  0  0  0  0  0
    5.7547    3.1762    0.0000 H   0  0  0  0  0  0  0  0  0  0  0  0
    7.0856    3.8256    0.0000 H   0  0  0  0  0  0  0  0  0  0  0  0
    7.0791    0.1517    0.0000 H   0  0  0  0  0  0  0  0  0  0  0  0
    7.4776    0.8420    0.0000 H   0  0  0  0  0  0  0  0  0  0  0  0
    6.5380   -4.0757    0.0000 H   0  0  0  0  0  0  0  0  0  0  0  0
    2.0000   -4.0757    0.0000 H   0  0  0  0  0  0  0  0  0  0  0  0
    6.0010   -6.3856    0.0000 H   0  0  0  0  0  0  0  0  0  0  0  0
    2.5369   -6.3856    0.0000 H   0  0  0  0  0  0  0  0  0  0  0  0
    3.7320   -7.0756    0.0000 H   0  0  0  0  0  0  0  0  0  0  0  0
    4.6462    2.4280    0.0000 H   0  0  0  0  0  0  0  0  0  0  0  0
    5.1627    4.0174    0.0000 H   0  0  0  0  0  0  0  0  0  0  0  0
    6.9315    5.0606    0.0000 H   0  0  0  0  0  0  0  0  0  0  0  0
    4.0150   -1.3996    0.0000 H   0  0  0  0  0  0  0  0  0  0  0  0
    7.8837    6.3712    0.0000 H   0  0  0  0  0  0  0  0  0  0  0  0
    7.3110   -1.3026    0.0000 H   0  0  0  0  0  0  0  0  0  0  0  0
    9.4660    7.0756    0.0000 H   0  0  0  0  0  0  0  0  0  0  0  0
   10.3348    6.4444    0.0000 H   0  0  0  0  0  0  0  0  0  0  0  0
  1  3  1  0  0  0  0
  1 13  1  0  0  0  0
  1 14  1  0  0  0  0
  1 15  2  0  0  0  0
  2 12  1  0  0  0  0
  2 13  1  0  0  0  0
  2 16  1  0  0  0  0
  2 17  2  0  0  0  0
  3 22  1  0  0  0  0
  4 29  1  0  0  0  0
  4 31  1  0  0  0  0
 23  5  1  1  0  0  0
  5 49  1  0  0  0  0
 24  6  1  6  0  0  0
  6 50  1  0  0  0  0
 25  7  1  6  0  0  0
  7 51  1  0  0  0  0
 26  8  1  6  0  0  0
  8 52  1  0  0  0  0
  9 27  1  0  0  0  0
  9 53  1  0  0  0  0
 28 10  1  1  0  0  0
 10 54  1  0  0  0  0
 30 11  1  1  0  0  0
 11 55  1  0  0  0  0
 12 32  1  0  0  0  0
 14 57  1  0  0  0  0
 16 59  1  0  0  0  0
 18 34  2  0  0  0  0
 31 19  1  6  0  0  0
 19 33  1  0  0  0  0
 19 34  1  0  0  0  0
 20 34  1  0  0  0  0
 20 36  2  0  0  0  0
 21 36  1  0  0  0  0
 21 60  1  0  0  0  0
 21 61  1  0  0  0  0
 22 23  1  0  0  0  0
 22 24  1  0  0  0  0
 22 37  1  0  0  0  0
 23 25  1  0  0  0  0
 23 38  1  0  0  0  0
 24 26  1  0  0  0  0
 24 39  1  0  0  0  0
 25 27  1  0  0  0  0
 25 40  1  0  0  0  0
 26 27  1  0  0  0  0
 26 41  1  0  0  0  0
 27 42  1  0  0  0  0
 28 29  1  0  0  0  0
 28 30  1  0  0  0  0
 28 43  1  0  0  0  0
 29 32  1  6  0  0  0
 29 44  1  0  0  0  0
 30 31  1  0  0  0  0
 30 45  1  0  0  0  0
 31 46  1  0  0  0  0
 32 47  1  0  0  0  0
 32 48  1  0  0  0  0
 33 35  2  0  0  0  0
 33 56  1  0  0  0  0
 35 36  1  0  0  0  0
 35 58  1  0  0  0  0
M  END
> <PUBCHEM_COMPOUND_CID>
50986210

> <PUBCHEM_COMPOUND_CANONICALIZED>
1

> <PUBCHEM_CACTVS_COMPLEXITY>
980

> <PUBCHEM_CACTVS_HBOND_ACCEPTOR>
16

> <PUBCHEM_CACTVS_HBOND_DONOR>
10

> <PUBCHEM_CACTVS_ROTATABLE_BOND>
8

> <PUBCHEM_CACTVS_SUBSKEYS>
AAADceBzPgMAAAAAAAAAAAAAAAAAASAAAAAwQAAAAAAAAAAAAAAAHgAQCCAACBThgAYBAANABxCoQCJmdICAAAEAAgAIAAAYABCDEAIAgAAOQAAHFgITAAHwcAYAAAAAAAAAAAACAAAQAACAAAAAAAAAAA==

> <PUBCHEM_IUPAC_OPENEYE_NAME>
[[(2R,3S,4R,5R)-5-(4-amino-2-oxo-pyrimidin-1-yl)-3,4-dihydroxy-tetrahydrofuran-2-yl]methoxy-hydroxy-phosphoryl] [(2S,3R,5S,6S)-2,3,4,5,6-pentahydroxycyclohexyl] hydrogen phosphate

> <PUBCHEM_IUPAC_CAS_NAME>
[[(2R,3S,4R,5R)-5-(4-amino-2-oxo-1-pyrimidinyl)-3,4-dihydroxy-2-oxolanyl]methoxy-hydroxyphosphoryl] [(2S,3R,5S,6S)-2,3,4,5,6-pentahydroxycyclohexyl] hydrogen phosphate

> <PUBCHEM_IUPAC_NAME>
[[(2R,3S,4R,5R)-5-(4-amino-2-oxopyrimidin-1-yl)-3,4-dihydroxyoxolan-2-yl]methoxy-hydroxyphosphoryl] [(2S,3R,5S,6S)-2,3,4,5,6-pentahydroxycyclohexyl] hydrogen phosphate

> <PUBCHEM_IUPAC_SYSTEMATIC_NAME>
[[(2R,3S,4R,5R)-5-(4-azanyl-2-oxidanylidene-pyrimidin-1-yl)-3,4-bis(oxidanyl)oxolan-2-yl]methoxy-oxidanyl-phosphoryl] [(2S,3R,5S,6S)-2,3,4,5,6-pentakis(oxidanyl)cyclohexyl] hydrogen phosphate

> <PUBCHEM_IUPAC_TRADITIONAL_NAME>
[[(2R,3S,4R,5R)-5-(4-amino-2-keto-pyrimidin-1-yl)-3,4-dihydroxy-tetrahydrofuran-2-yl]methoxy-hydroxy-phosphoryl] [(2S,3R,5S,6S)-2,3,4,5,6-pentahydroxycyclohexyl] hydrogen phosphate

> <PUBCHEM_IUPAC_INCHI>
InChI=1S/C15H25N3O16P2/c16-5-1-2-18(15(26)17-5)14-12(25)6(19)4(32-14)3-31-35(27,28)34-36(29,30)33-13-10(23)8(21)7(20)9(22)11(13)24/h1-2,4,6-14,19-25H,3H2,(H,27,28)(H,29,30)(H2,16,17,26)/t4-,6-,7?,8-,9+,10+,11+,12-,13?,14-/m1/s1

> <PUBCHEM_IUPAC_INCHIKEY>
FWZKVMBRYZSGFS-MXIHWWRUSA-N

> <PUBCHEM_XLOGP3>
-7.2

> <PUBCHEM_EXACT_MASS>
565.071005

> <PUBCHEM_MOLECULAR_FORMULA>
C15H25N3O16P2

> <PUBCHEM_MOLECULAR_WEIGHT>
565.317024

> <PUBCHEM_OPENEYE_CAN_SMILES>
C1=CN(C(=O)N=C1N)C2C(C(C(O2)COP(=O)(O)OP(=O)(O)OC3C(C(C(C(C3O)O)O)O)O)O)O

> <PUBCHEM_OPENEYE_ISO_SMILES>
C1=CN(C(=O)N=C1N)[C@H]2[C@@H]([C@@H]([C@H](O2)COP(=O)(O)OP(=O)(O)OC3[C@H]([C@H](C([C@H]([C@@H]3O)O)O)O)O)O)O

> <PUBCHEM_CACTVS_TPSA>
312

> <PUBCHEM_MONOISOTOPIC_WEIGHT>
565.071005

> <PUBCHEM_TOTAL_CHARGE>
0

> <PUBCHEM_HEAVY_ATOM_COUNT>
36

> <PUBCHEM_ATOM_DEF_STEREO_COUNT>
8

> <PUBCHEM_ATOM_UDEF_STEREO_COUNT>
0

> <PUBCHEM_BOND_DEF_STEREO_COUNT>
0

> <PUBCHEM_BOND_UDEF_STEREO_COUNT>
0

> <PUBCHEM_ISOTOPIC_ATOM_COUNT>
0

> <PUBCHEM_COMPONENT_COUNT>
1

> <PUBCHEM_CACTVS_TAUTO_COUNT>
3

> <PUBCHEM_COORDINATE_TYPE>
1
5
255

> <PUBCHEM_BONDANNOTATIONS>
28  10  5
30  11  5
31  19  6
19  33  8
19  34  8
20  34  8
20  36  8
29  32  6
33  35  8
35  36  8
23  5  5
24  6  6
25  7  6
26  8  6

$$$$

