   Color/Form
        Colorless crystals
   from [1]HSDB

   Boiling Point
        >300 deg C
   from [2]HSDB

   Melting Point
        189 deg C (decomposes
   from [3]HSDB

   Dissociation Constants
        pKa1 = 3.96 (amine) (est)
   from [4]HSDB

   Octanol/Water Partition Coefficient
        log Kow = 1.36
   from [5]HSDB

   Solubilities
        Insoluble in water, benzene, carbon tetrachloride and ethanol;
   soluble in acetone
   from [6]HSDB

   Spectral Properties

     * MASS: 73778 (NIST/EPA/MSDC Mass Spectral Database 1990 version)
     * IR: 1463 (Coblentz Society Spectral Collection)
     * 1H NMR: 19057 (Sadtler Research Laboratories Spectral Collection)

   from [7]HSDB

   Vapor Pressure
        2.5X10-6 mm Hg at 25 deg C (est)
   from [8]HSDB

   Other Chemical/Physical Properties

     * Henry's Law constant = 1.5X10-11 atm-cu m/mole at 25 deg C (est)
     * Hydroxyl radical reaction rate constant = 2.1X10-10 cu
       cm/molecule-sec at 25 deg C

   from [9]HSDB

   Computed Properties
   Molecular Weight                  200.23648 [g/mol]
   Molecular Formula                 C[12]H[12]N[2]O
   XLogP3                            1.4
   H-Bond Donor                      2
   H-Bond Acceptor                   3
   Rotatable Bond Count              2
   Exact Mass                        200.094963
   MonoIsotopic Mass                 200.094963
   Topological Polar Surface Area    61.3
   Heavy Atom Count                  15
   Formal Charge                     0
   Complexity                        162
   Isotope Atom Count                0
   Defined Atom Stereocenter Count   0
   Undefined Atom Stereocenter Count 0
   Defined Bond Stereocenter Count   0
   Undefined Bond Stereocenter Count 0
   Covalently-Bonded Unit Count      1
   Feature 3D Acceptor Count         1
   Feature 3D Donor Count            2
   Feature 3D Cation Count           2
   Feature 3D Ring Count             2
   Effective Rotor Count             2
   Conformer Sampling RMSD           0.6
   CID Conformer Count               [10]3

References

   1. http://toxnet.nlm.nih.gov/cgi-bin/sis/search/r?dbs+hsdb:@term+@rn+@rel+101-80-4
   2. http://toxnet.nlm.nih.gov/cgi-bin/sis/search/r?dbs+hsdb:@term+@rn+@rel+101-80-4
   3. http://toxnet.nlm.nih.gov/cgi-bin/sis/search/r?dbs+hsdb:@term+@rn+@rel+101-80-4
   4. http://toxnet.nlm.nih.gov/cgi-bin/sis/search/r?dbs+hsdb:@term+@rn+@rel+101-80-4
   5. http://toxnet.nlm.nih.gov/cgi-bin/sis/search/r?dbs+hsdb:@term+@rn+@rel+101-80-4
   6. http://toxnet.nlm.nih.gov/cgi-bin/sis/search/r?dbs+hsdb:@term+@rn+@rel+101-80-4
   7. http://toxnet.nlm.nih.gov/cgi-bin/sis/search/r?dbs+hsdb:@term+@rn+@rel+101-80-4
   8. http://toxnet.nlm.nih.gov/cgi-bin/sis/search/r?dbs+hsdb:@term+@rn+@rel+101-80-4
   9. http://toxnet.nlm.nih.gov/cgi-bin/sis/search/r?dbs+hsdb:@term+@rn+@rel+101-80-4
  10. http://pubchem.ncbi.nlm.nih.gov/vw3d/vw3d.cgi?cid=7579
