256733
  -OEChem-07051213062D

 31 33  0     0  0  0  0  0  0999 V2000
    4.6783   -1.5545    0.0000 O   0  0  0  0  0  0  0  0  0  0  0  0
    5.9674    1.2117    0.0000 O   0  0  0  0  0  0  0  0  0  0  0  0
    9.2619   -0.7498    0.0000 O   0  0  0  0  0  0  0  0  0  0  0  0
    4.6783    0.0550    0.0000 C   0  0  0  0  0  0  0  0  0  0  0  0
    3.7320   -0.2498    0.0000 C   0  0  0  0  0  0  0  0  0  0  0  0
    5.2619   -0.7498    0.0000 C   0  0  0  0  0  0  0  0  0  0  0  0
    3.7320   -1.2498    0.0000 C   0  0  0  0  0  0  0  0  0  0  0  0
    6.2619   -0.7498    0.0000 C   0  0  0  0  0  0  0  0  0  0  0  0
    2.8660    0.2502    0.0000 C   0  0  0  0  0  0  0  0  0  0  0  0
    4.9889    1.0055    0.0000 C   0  0  0  0  0  0  0  0  0  0  0  0
    2.8660   -1.7498    0.0000 C   0  0  0  0  0  0  0  0  0  0  0  0
    6.7619   -1.6158    0.0000 C   0  0  0  0  0  0  0  0  0  0  0  0
    6.7619    0.1162    0.0000 C   0  0  0  0  0  0  0  0  0  0  0  0
    2.0000   -0.2498    0.0000 C   0  0  0  0  0  0  0  0  0  0  0  0
    2.0000   -1.2498    0.0000 C   0  0  0  0  0  0  0  0  0  0  0  0
    4.3211    1.7498    0.0000 C   0  0  0  0  0  0  0  0  0  0  0  0
    7.7619   -1.6158    0.0000 C   0  0  0  0  0  0  0  0  0  0  0  0
    7.7619    0.1162    0.0000 C   0  0  0  0  0  0  0  0  0  0  0  0
    8.2619   -0.7498    0.0000 C   0  0  0  0  0  0  0  0  0  0  0  0
    2.8660    0.8702    0.0000 H   0  0  0  0  0  0  0  0  0  0  0  0
    2.8660   -2.3698    0.0000 H   0  0  0  0  0  0  0  0  0  0  0  0
    6.4519   -2.1527    0.0000 H   0  0  0  0  0  0  0  0  0  0  0  0
    6.4519    0.6532    0.0000 H   0  0  0  0  0  0  0  0  0  0  0  0
    1.4631    0.0602    0.0000 H   0  0  0  0  0  0  0  0  0  0  0  0
    1.4631   -1.5598    0.0000 H   0  0  0  0  0  0  0  0  0  0  0  0
    4.7826    2.1638    0.0000 H   0  0  0  0  0  0  0  0  0  0  0  0
    3.9070    2.2112    0.0000 H   0  0  0  0  0  0  0  0  0  0  0  0
    3.8596    1.3357    0.0000 H   0  0  0  0  0  0  0  0  0  0  0  0
    8.0719   -2.1527    0.0000 H   0  0  0  0  0  0  0  0  0  0  0  0
    8.0719    0.6532    0.0000 H   0  0  0  0  0  0  0  0  0  0  0  0
    9.5719   -1.2867    0.0000 H   0  0  0  0  0  0  0  0  0  0  0  0
  1  6  1  0  0  0  0
  1  7  1  0  0  0  0
  2 10  2  0  0  0  0
  3 19  1  0  0  0  0
  3 31  1  0  0  0  0
  4  5  1  0  0  0  0
  4  6  2  0  0  0  0
  4 10  1  0  0  0  0
  5  7  1  0  0  0  0
  5  9  2  0  0  0  0
  6  8  1  0  0  0  0
  7 11  2  0  0  0  0
  8 12  2  0  0  0  0
  8 13  1  0  0  0  0
  9 14  1  0  0  0  0
  9 20  1  0  0  0  0
 10 16  1  0  0  0  0
 11 15  1  0  0  0  0
 11 21  1  0  0  0  0
 12 17  1  0  0  0  0
 12 22  1  0  0  0  0
 13 18  2  0  0  0  0
 13 23  1  0  0  0  0
 14 15  2  0  0  0  0
 14 24  1  0  0  0  0
 15 25  1  0  0  0  0
 16 26  1  0  0  0  0
 16 27  1  0  0  0  0
 16 28  1  0  0  0  0
 17 19  2  0  0  0  0
 17 29  1  0  0  0  0
 18 19  1  0  0  0  0
 18 30  1  0  0  0  0
M  END
> <PUBCHEM_COMPOUND_CID>
256733

> <PUBCHEM_COMPOUND_CANONICALIZED>
1

> <PUBCHEM_CACTVS_COMPLEXITY>
333

> <PUBCHEM_CACTVS_HBOND_ACCEPTOR>
3

> <PUBCHEM_CACTVS_HBOND_DONOR>
1

> <PUBCHEM_CACTVS_ROTATABLE_BOND>
2

> <PUBCHEM_CACTVS_SUBSKEYS>
AAADccB4MAAAAAAAAAAAAAAAAAAAASAAAAAwYAAAAAAAAEgB9AAAGgAACAAADASAmAAyBsAABkCIAqBSAAACCAAkIAAIiAEGCMgMJjaONRqCeWCk4BEIuYeL7PzOoAAAAAAIAABAAAAAABAAAAAAAAAAAA==

> <PUBCHEM_IUPAC_OPENEYE_NAME>
1-[2-(4-hydroxyphenyl)benzofuran-3-yl]ethanone

> <PUBCHEM_IUPAC_CAS_NAME>
1-[2-(4-hydroxyphenyl)-3-benzofuranyl]ethanone

> <PUBCHEM_IUPAC_NAME>
1-[2-(4-hydroxyphenyl)-1-benzofuran-3-yl]ethanone

> <PUBCHEM_IUPAC_SYSTEMATIC_NAME>
1-[2-(4-hydroxyphenyl)-1-benzofuran-3-yl]ethanone

> <PUBCHEM_IUPAC_TRADITIONAL_NAME>
1-[2-(4-hydroxyphenyl)benzofuran-3-yl]ethanone

> <PUBCHEM_IUPAC_INCHI>
InChI=1S/C16H12O3/c1-10(17)15-13-4-2-3-5-14(13)19-16(15)11-6-8-12(18)9-7-11/h2-9,18H,1H3

> <PUBCHEM_IUPAC_INCHIKEY>
CUTLWGKWIWWQBH-UHFFFAOYSA-N

> <PUBCHEM_XLOGP3_AA>
3.3

> <PUBCHEM_EXACT_MASS>
252.078644

> <PUBCHEM_MOLECULAR_FORMULA>
C16H12O3

> <PUBCHEM_MOLECULAR_WEIGHT>
252.26468

> <PUBCHEM_OPENEYE_CAN_SMILES>
CC(=O)C1=C(OC2=CC=CC=C21)C3=CC=C(C=C3)O

> <PUBCHEM_OPENEYE_ISO_SMILES>
CC(=O)C1=C(OC2=CC=CC=C21)C3=CC=C(C=C3)O

> <PUBCHEM_CACTVS_TPSA>
50.4

> <PUBCHEM_MONOISOTOPIC_WEIGHT>
252.078644

> <PUBCHEM_TOTAL_CHARGE>
0

> <PUBCHEM_HEAVY_ATOM_COUNT>
19

> <PUBCHEM_ATOM_DEF_STEREO_COUNT>
0

> <PUBCHEM_ATOM_UDEF_STEREO_COUNT>
0

> <PUBCHEM_BOND_DEF_STEREO_COUNT>
0

> <PUBCHEM_BOND_UDEF_STEREO_COUNT>
0

> <PUBCHEM_ISOTOPIC_ATOM_COUNT>
0

> <PUBCHEM_COMPONENT_COUNT>
1

> <PUBCHEM_CACTVS_TAUTO_COUNT>
9

> <PUBCHEM_COORDINATE_TYPE>
1
5
255

> <PUBCHEM_BONDANNOTATIONS>
1  6  8
1  7  8
11  15  8
12  17  8
13  18  8
14  15  8
17  19  8
18  19  8
4  5  8
4  6  8
5  7  8
5  9  8
7  11  8
8  12  8
8  13  8
9  14  8

$$$$

