17395746
  -OEChem-06241222522D

 39 42  0     0  0  0  0  0  0999 V2000
    3.5862   -1.7603    0.0000 S   0  0  0  0  0  0  0  0  0  0  0  0
    4.4522   -3.2603    0.0000 N   0  0  0  0  0  0  0  0  0  0  0  0
    3.9522    2.2785    0.0000 N   0  0  0  0  0  0  0  0  0  0  0  0
    5.3182   -1.7603    0.0000 N   0  0  0  0  0  0  0  0  0  0  0  0
    5.3182   -0.7603    0.0000 N   0  0  0  0  0  0  0  0  0  0  0  0
    2.3644    3.0875    0.0000 N   0  0  0  0  0  0  0  0  0  0  0  0
    3.6734    4.0386    0.0000 N   0  0  0  0  0  0  0  0  0  0  0  0
    2.0554    4.0386    0.0000 N   0  0  0  0  0  0  0  0  0  0  0  0
    5.3182   -3.7603    0.0000 C   0  0  0  0  0  0  0  0  0  0  0  0
    5.8182   -4.6264    0.0000 C   0  0  0  0  0  0  0  0  0  0  0  0
    6.3182   -3.7603    0.0000 C   0  0  0  0  0  0  0  0  0  0  0  0
    4.4522   -2.2603    0.0000 C   0  0  0  0  0  0  0  0  0  0  0  0
    4.4522    0.7397    0.0000 C   0  0  0  0  0  0  0  0  0  0  0  0
    3.6432    1.3274    0.0000 C   0  0  0  0  0  0  0  0  0  0  0  0
    4.4522   -0.2603    0.0000 C   0  0  0  0  0  0  0  0  0  0  0  0
    3.5862   -0.7603    0.0000 C   0  0  0  0  0  0  0  0  0  0  0  0
    4.9522    2.2785    0.0000 C   0  0  0  0  0  0  0  0  0  0  0  0
    5.2612    1.3274    0.0000 C   0  0  0  0  0  0  0  0  0  0  0  0
    2.6921    1.0184    0.0000 C   0  0  0  0  0  0  0  0  0  0  0  0
    3.3644    3.0875    0.0000 C   0  0  0  0  0  0  0  0  0  0  0  0
    5.5400    3.0875    0.0000 C   0  0  0  0  0  0  0  0  0  0  0  0
    2.8644    4.6264    0.0000 C   0  0  0  0  0  0  0  0  0  0  0  0
    4.8798   -4.1987    0.0000 H   0  0  0  0  0  0  0  0  0  0  0  0
    6.9008   -3.9724    0.0000 H   0  0  0  0  0  0  0  0  0  0  0  0
    6.4259   -3.1498    0.0000 H   0  0  0  0  0  0  0  0  0  0  0  0
    5.3433   -5.0249    0.0000 H   0  0  0  0  0  0  0  0  0  0  0  0
    6.2932   -5.0249    0.0000 H   0  0  0  0  0  0  0  0  0  0  0  0
    3.9153   -3.5703    0.0000 H   0  0  0  0  0  0  0  0  0  0  0  0
    3.3741   -0.1777    0.0000 H   0  0  0  0  0  0  0  0  0  0  0  0
    2.9756   -0.8680    0.0000 H   0  0  0  0  0  0  0  0  0  0  0  0
    5.8509    1.1359    0.0000 H   0  0  0  0  0  0  0  0  0  0  0  0
    2.5006    1.6081    0.0000 H   0  0  0  0  0  0  0  0  0  0  0  0
    2.1025    0.8268    0.0000 H   0  0  0  0  0  0  0  0  0  0  0  0
    2.8837    0.4288    0.0000 H   0  0  0  0  0  0  0  0  0  0  0  0
    6.0416    2.7231    0.0000 H   0  0  0  0  0  0  0  0  0  0  0  0
    5.9044    3.5891    0.0000 H   0  0  0  0  0  0  0  0  0  0  0  0
    5.0384    3.4520    0.0000 H   0  0  0  0  0  0  0  0  0  0  0  0
    2.0000    2.5859    0.0000 H   0  0  0  0  0  0  0  0  0  0  0  0
    2.8644    5.2464    0.0000 H   0  0  0  0  0  0  0  0  0  0  0  0
  1 12  1  0  0  0  0
  1 16  1  0  0  0  0
  2  9  1  0  0  0  0
  2 12  1  0  0  0  0
  2 28  1  0  0  0  0
  3 14  1  0  0  0  0
  3 17  1  0  0  0  0
  3 20  1  0  0  0  0
  4  5  1  0  0  0  0
  4 12  2  0  0  0  0
  5 15  2  0  0  0  0
  6  8  1  0  0  0  0
  6 20  1  0  0  0  0
  6 38  1  0  0  0  0
  7 20  2  0  0  0  0
  7 22  1  0  0  0  0
  8 22  2  0  0  0  0
  9 10  1  0  0  0  0
  9 11  1  0  0  0  0
  9 23  1  0  0  0  0
 10 11  1  0  0  0  0
 10 26  1  0  0  0  0
 10 27  1  0  0  0  0
 11 24  1  0  0  0  0
 11 25  1  0  0  0  0
 13 14  2  0  0  0  0
 13 15  1  0  0  0  0
 13 18  1  0  0  0  0
 14 19  1  0  0  0  0
 15 16  1  0  0  0  0
 16 29  1  0  0  0  0
 16 30  1  0  0  0  0
 17 18  2  0  0  0  0
 17 21  1  0  0  0  0
 18 31  1  0  0  0  0
 19 32  1  0  0  0  0
 19 33  1  0  0  0  0
 19 34  1  0  0  0  0
 21 35  1  0  0  0  0
 21 36  1  0  0  0  0
 21 37  1  0  0  0  0
 22 39  1  0  0  0  0
M  END
> <PUBCHEM_COMPOUND_CID>
17395746

> <PUBCHEM_COMPOUND_CANONICALIZED>
1

> <PUBCHEM_CACTVS_COMPLEXITY>
490

> <PUBCHEM_CACTVS_HBOND_ACCEPTOR>
5

> <PUBCHEM_CACTVS_HBOND_DONOR>
2

> <PUBCHEM_CACTVS_ROTATABLE_BOND>
4

> <PUBCHEM_CACTVS_SUBSKEYS>
AAADceBzgABAAAAAAAAAAAAAGAAAAWLAAAAgAAAAAAAAAAAB4AAAHAQYAAAADCjFXgS3kJfvEAiiAyRjZACSgCvxgrAF+KA4ZJiIKOLgmZGEAAhokALIyCcQAAAOAAAAAAAAAAAAAAAAAAAAAAAAAAAAAA==

> <PUBCHEM_IUPAC_OPENEYE_NAME>
N-cyclopropyl-5-[2,5-dimethyl-1-(1H-1,2,4-triazol-5-yl)pyrrol-3-yl]-6H-1,3,4-thiadiazin-2-amine

> <PUBCHEM_IUPAC_CAS_NAME>
N-cyclopropyl-5-[2,5-dimethyl-1-(1H-1,2,4-triazol-5-yl)-3-pyrrolyl]-6H-1,3,4-thiadiazin-2-amine

> <PUBCHEM_IUPAC_NAME>
N-cyclopropyl-5-[2,5-dimethyl-1-(1H-1,2,4-triazol-5-yl)pyrrol-3-yl]-6H-1,3,4-thiadiazin-2-amine

> <PUBCHEM_IUPAC_SYSTEMATIC_NAME>
N-cyclopropyl-5-[2,5-dimethyl-1-(1H-1,2,4-triazol-5-yl)pyrrol-3-yl]-6H-1,3,4-thiadiazin-2-amine

> <PUBCHEM_IUPAC_TRADITIONAL_NAME>
cyclopropyl-[5-[2,5-dimethyl-1-(1H-1,2,4-triazol-5-yl)pyrrol-3-yl]-6H-1,3,4-thiadiazin-2-yl]amine

> <PUBCHEM_IUPAC_INCHI>
InChI=1S/C14H17N7S/c1-8-5-11(9(2)21(8)13-15-7-16-19-13)12-6-22-14(20-18-12)17-10-3-4-10/h5,7,10H,3-4,6H2,1-2H3,(H,17,20)(H,15,16,19)

> <PUBCHEM_IUPAC_INCHIKEY>
JKCFRAFFQSCKSO-UHFFFAOYSA-N

> <PUBCHEM_XLOGP3_AA>
2.3

> <PUBCHEM_EXACT_MASS>
315.126615

> <PUBCHEM_MOLECULAR_FORMULA>
C14H17N7S

> <PUBCHEM_MOLECULAR_WEIGHT>
315.39668

> <PUBCHEM_OPENEYE_CAN_SMILES>
CC1=CC(=C(N1C2=NC=NN2)C)C3=NN=C(SC3)NC4CC4

> <PUBCHEM_OPENEYE_ISO_SMILES>
CC1=CC(=C(N1C2=NC=NN2)C)C3=NN=C(SC3)NC4CC4

> <PUBCHEM_CACTVS_TPSA>
109

> <PUBCHEM_MONOISOTOPIC_WEIGHT>
315.126615

> <PUBCHEM_TOTAL_CHARGE>
0

> <PUBCHEM_HEAVY_ATOM_COUNT>
22

> <PUBCHEM_ATOM_DEF_STEREO_COUNT>
0

> <PUBCHEM_ATOM_UDEF_STEREO_COUNT>
0

> <PUBCHEM_BOND_DEF_STEREO_COUNT>
0

> <PUBCHEM_BOND_UDEF_STEREO_COUNT>
0

> <PUBCHEM_ISOTOPIC_ATOM_COUNT>
0

> <PUBCHEM_COMPONENT_COUNT>
1

> <PUBCHEM_CACTVS_TAUTO_COUNT>
6

> <PUBCHEM_COORDINATE_TYPE>
1
5
255

> <PUBCHEM_BONDANNOTATIONS>
13  14  8
13  18  8
17  18  8
3  14  8
3  17  8
6  20  8
6  8  8
7  20  8
7  22  8
8  22  8

$$$$

