8238
  -OEChem-06261202412D

 62 63  0     0  0  0  0  0  0999 V2000
    6.9653    2.3238    0.0000 O   0  0  0  0  0  0  0  0  0  0  0  0
   10.4294    2.3238    0.0000 O   0  0  0  0  0  0  0  0  0  0  0  0
    8.6973   -0.6762    0.0000 O   0  0  0  0  0  0  0  0  0  0  0  0
    5.6797    1.8559    0.0000 O   0  0  0  0  0  0  0  0  0  0  0  0
   10.4294   -0.6762    0.0000 O   0  0  0  0  0  0  0  0  0  0  0  0
    6.2812   -1.5556    0.0000 O   0  0  0  0  0  0  0  0  0  0  0  0
    3.0261   -0.3708    0.0000 O   0  0  0  0  0  0  0  0  0  0  0  0
    4.9544   -2.6689    0.0000 O   0  0  0  0  0  0  0  0  0  0  0  0
    8.6973    2.3238    0.0000 C   0  0  0  0  0  0  0  0  0  0  0  0
    7.8313    1.8238    0.0000 C   0  0  0  0  0  0  0  0  0  0  0  0
    7.8313    0.8238    0.0000 C   0  0  0  0  0  0  0  0  0  0  0  0
    9.5634    1.8238    0.0000 C   0  0  0  0  0  0  0  0  0  0  0  0
    9.5634    0.8238    0.0000 C   0  0  0  0  0  0  0  0  0  0  0  0
    9.1973    3.1898    0.0000 C   0  0  0  0  0  0  0  0  0  0  0  0
    8.1973    3.1898    0.0000 C   0  0  0  0  0  0  0  0  0  0  0  0
    6.9653    0.3238    0.0000 C   0  0  0  0  0  0  0  0  0  0  0  0
    8.6973    0.3238    0.0000 C   0  0  0  0  0  0  0  0  0  0  0  0
    5.9805    0.1502    0.0000 C   0  0  0  0  0  0  0  0  0  0  0  0
   10.4294    0.3238    0.0000 C   0  0  0  0  0  0  0  0  0  0  0  0
   11.2954    0.8238    0.0000 C   0  0  0  0  0  0  0  0  0  0  0  0
    5.6384   -0.7894    0.0000 C   0  0  0  0  0  0  0  0  0  0  0  0
    5.3377    0.9162    0.0000 C   0  0  0  0  0  0  0  0  0  0  0  0
    4.6537   -0.9632    0.0000 C   0  0  0  0  0  0  0  0  0  0  0  0
   12.1614    0.3238    0.0000 C   0  0  0  0  0  0  0  0  0  0  0  0
    4.3529    0.7426    0.0000 C   0  0  0  0  0  0  0  0  0  0  0  0
    4.0109   -0.1971    0.0000 C   0  0  0  0  0  0  0  0  0  0  0  0
    4.3116   -1.9028    0.0000 C   0  0  0  0  0  0  0  0  0  0  0  0
    3.3268   -2.0765    0.0000 C   0  0  0  0  0  0  0  0  0  0  0  0
   13.0275    0.8238    0.0000 C   0  0  0  0  0  0  0  0  0  0  0  0
    2.9847   -3.0161    0.0000 C   0  0  0  0  0  0  0  0  0  0  0  0
    5.0369    2.6220    0.0000 C   0  0  0  0  0  0  0  0  0  0  0  0
    2.0000   -3.1898    0.0000 C   0  0  0  0  0  0  0  0  0  0  0  0
    8.7343    3.4998    0.0000 H   0  0  0  0  0  0  0  0  0  0  0  0
    7.8873    3.7268    0.0000 H   0  0  0  0  0  0  0  0  0  0  0  0
    7.6604    2.8798    0.0000 H   0  0  0  0  0  0  0  0  0  0  0  0
    9.7343    2.8798    0.0000 H   0  0  0  0  0  0  0  0  0  0  0  0
    9.5073    3.7268    0.0000 H   0  0  0  0  0  0  0  0  0  0  0  0
    8.6604    3.4998    0.0000 H   0  0  0  0  0  0  0  0  0  0  0  0
    6.8223   -0.2795    0.0000 H   0  0  0  0  0  0  0  0  0  0  0  0
    6.7532    0.9064    0.0000 H   0  0  0  0  0  0  0  0  0  0  0  0
   11.6939    1.2988    0.0000 H   0  0  0  0  0  0  0  0  0  0  0  0
   10.8969    1.2988    0.0000 H   0  0  0  0  0  0  0  0  0  0  0  0
    6.9653    2.9438    0.0000 H   0  0  0  0  0  0  0  0  0  0  0  0
   11.7629   -0.1511    0.0000 H   0  0  0  0  0  0  0  0  0  0  0  0
   12.5600   -0.1511    0.0000 H   0  0  0  0  0  0  0  0  0  0  0  0
    9.2343   -0.9862    0.0000 H   0  0  0  0  0  0  0  0  0  0  0  0
    3.9544    1.2175    0.0000 H   0  0  0  0  0  0  0  0  0  0  0  0
    3.3268   -1.4565    0.0000 H   0  0  0  0  0  0  0  0  0  0  0  0
    2.7162   -1.9688    0.0000 H   0  0  0  0  0  0  0  0  0  0  0  0
   13.3375    0.2869    0.0000 H   0  0  0  0  0  0  0  0  0  0  0  0
   13.5644    1.1338    0.0000 H   0  0  0  0  0  0  0  0  0  0  0  0
   12.7175    1.3608    0.0000 H   0  0  0  0  0  0  0  0  0  0  0  0
    2.9848   -3.6361    0.0000 H   0  0  0  0  0  0  0  0  0  0  0  0
    3.5953   -3.1238    0.0000 H   0  0  0  0  0  0  0  0  0  0  0  0
    6.8918   -1.4479    0.0000 H   0  0  0  0  0  0  0  0  0  0  0  0
    2.6275    0.1042    0.0000 H   0  0  0  0  0  0  0  0  0  0  0  0
    5.5119    3.0205    0.0000 H   0  0  0  0  0  0  0  0  0  0  0  0
    4.6384    3.0969    0.0000 H   0  0  0  0  0  0  0  0  0  0  0  0
    4.5620    2.2234    0.0000 H   0  0  0  0  0  0  0  0  0  0  0  0
    1.8923   -2.5793    0.0000 H   0  0  0  0  0  0  0  0  0  0  0  0
    1.3894   -3.2976    0.0000 H   0  0  0  0  0  0  0  0  0  0  0  0
    2.1077   -3.8004    0.0000 H   0  0  0  0  0  0  0  0  0  0  0  0
  1 10  1  0  0  0  0
  1 43  1  0  0  0  0
  2 12  2  0  0  0  0
  3 17  1  0  0  0  0
  3 46  1  0  0  0  0
  4 22  1  0  0  0  0
  4 31  1  0  0  0  0
  5 19  2  0  0  0  0
  6 21  1  0  0  0  0
  6 55  1  0  0  0  0
  7 26  1  0  0  0  0
  7 56  1  0  0  0  0
  8 27  2  0  0  0  0
  9 10  1  0  0  0  0
  9 12  1  0  0  0  0
  9 14  1  0  0  0  0
  9 15  1  0  0  0  0
 10 11  2  0  0  0  0
 11 16  1  0  0  0  0
 11 17  1  0  0  0  0
 12 13  1  0  0  0  0
 13 17  2  0  0  0  0
 13 19  1  0  0  0  0
 14 36  1  0  0  0  0
 14 37  1  0  0  0  0
 14 38  1  0  0  0  0
 15 33  1  0  0  0  0
 15 34  1  0  0  0  0
 15 35  1  0  0  0  0
 16 18  1  0  0  0  0
 16 39  1  0  0  0  0
 16 40  1  0  0  0  0
 18 21  1  0  0  0  0
 18 22  2  0  0  0  0
 19 20  1  0  0  0  0
 20 24  1  0  0  0  0
 20 41  1  0  0  0  0
 20 42  1  0  0  0  0
 21 23  2  0  0  0  0
 22 25  1  0  0  0  0
 23 26  1  0  0  0  0
 23 27  1  0  0  0  0
 24 29  1  0  0  0  0
 24 44  1  0  0  0  0
 24 45  1  0  0  0  0
 25 26  2  0  0  0  0
 25 47  1  0  0  0  0
 27 28  1  0  0  0  0
 28 30  1  0  0  0  0
 28 48  1  0  0  0  0
 28 49  1  0  0  0  0
 29 50  1  0  0  0  0
 29 51  1  0  0  0  0
 29 52  1  0  0  0  0
 30 32  1  0  0  0  0
 30 53  1  0  0  0  0
 30 54  1  0  0  0  0
 31 57  1  0  0  0  0
 31 58  1  0  0  0  0
 31 59  1  0  0  0  0
 32 60  1  0  0  0  0
 32 61  1  0  0  0  0
 32 62  1  0  0  0  0
M  END
> <PUBCHEM_COMPOUND_CID>
8238

> <PUBCHEM_COMPOUND_CANONICALIZED>
1

> <PUBCHEM_CACTVS_COMPLEXITY>
822

> <PUBCHEM_CACTVS_HBOND_ACCEPTOR>
8

> <PUBCHEM_CACTVS_HBOND_DONOR>
4

> <PUBCHEM_CACTVS_ROTATABLE_BOND>
9

> <PUBCHEM_CACTVS_SUBSKEYS>
AAADceB4PAAAAAAAAAAAAAAAAAAAAAAAAAAwQAAAAAAAAAABAAAAGgAACAAADgSAmAIyBoAABgCIAqBSAAACCAAkIAAAiAEGCMgMJzaONBqAcWAl4BUIuQeI7OzPIAACCAAIAABAAAQQABAAAAAAAAAAAA==

> <PUBCHEM_IUPAC_OPENEYE_NAME>
2-butanoyl-4-[(3-butanoyl-2,4-dihydroxy-6-methoxy-phenyl)methyl]-3,5-dihydroxy-6,6-dimethyl-cyclohexa-2,4-dien-1-one

> <PUBCHEM_IUPAC_CAS_NAME>
4-[[2,4-dihydroxy-6-methoxy-3-(1-oxobutyl)phenyl]methyl]-3,5-dihydroxy-6,6-dimethyl-2-(1-oxobutyl)-1-cyclohexa-2,4-dienone

> <PUBCHEM_IUPAC_NAME>
2-butanoyl-4-[(3-butanoyl-2,4-dihydroxy-6-methoxyphenyl)methyl]-3,5-dihydroxy-6,6-dimethylcyclohexa-2,4-dien-1-one

> <PUBCHEM_IUPAC_SYSTEMATIC_NAME>
2-butanoyl-4-[[3-butanoyl-6-methoxy-2,4-bis(oxidanyl)phenyl]methyl]-6,6-dimethyl-3,5-bis(oxidanyl)cyclohexa-2,4-dien-1-one

> <PUBCHEM_IUPAC_TRADITIONAL_NAME>
2-butyryl-4-(3-butyryl-2,4-dihydroxy-6-methoxy-benzyl)-3,5-dihydroxy-6,6-dimethyl-cyclohexa-2,4-dien-1-one

> <PUBCHEM_IUPAC_INCHI>
InChI=1S/C24H30O8/c1-6-8-14(25)18-16(27)11-17(32-5)12(20(18)28)10-13-21(29)19(15(26)9-7-2)23(31)24(3,4)22(13)30/h11,27-30H,6-10H2,1-5H3

> <PUBCHEM_IUPAC_INCHIKEY>
XDIZFCKCCMUFFG-UHFFFAOYSA-N

> <PUBCHEM_XLOGP3_AA>
3.8

> <PUBCHEM_EXACT_MASS>
446.194068

> <PUBCHEM_MOLECULAR_FORMULA>
C24H30O8

> <PUBCHEM_MOLECULAR_WEIGHT>
446.4902

> <PUBCHEM_OPENEYE_CAN_SMILES>
CCCC(=O)C1=C(C(=C(C=C1O)OC)CC2=C(C(C(=O)C(=C2O)C(=O)CCC)(C)C)O)O

> <PUBCHEM_OPENEYE_ISO_SMILES>
CCCC(=O)C1=C(C(=C(C=C1O)OC)CC2=C(C(C(=O)C(=C2O)C(=O)CCC)(C)C)O)O

> <PUBCHEM_CACTVS_TPSA>
141

> <PUBCHEM_MONOISOTOPIC_WEIGHT>
446.194068

> <PUBCHEM_TOTAL_CHARGE>
0

> <PUBCHEM_HEAVY_ATOM_COUNT>
32

> <PUBCHEM_ATOM_DEF_STEREO_COUNT>
0

> <PUBCHEM_ATOM_UDEF_STEREO_COUNT>
0

> <PUBCHEM_BOND_DEF_STEREO_COUNT>
0

> <PUBCHEM_BOND_UDEF_STEREO_COUNT>
0

> <PUBCHEM_ISOTOPIC_ATOM_COUNT>
0

> <PUBCHEM_COMPONENT_COUNT>
1

> <PUBCHEM_CACTVS_TAUTO_COUNT>
418

> <PUBCHEM_COORDINATE_TYPE>
1
5
255

> <PUBCHEM_BONDANNOTATIONS>
18  21  8
18  22  8
21  23  8
22  25  8
23  26  8
25  26  8

$$$$

