442112
  -OEChem-07051212572D

 46 48  0     1  0  0  0  0  0999 V2000
    2.0000   -2.6224    0.0000 O   0  0  0  0  0  0  0  0  0  0  0  0
    6.3301    1.8776    0.0000 O   0  0  0  0  0  0  0  0  0  0  0  0
    4.5981    2.8776    0.0000 O   0  0  0  0  0  0  0  0  0  0  0  0
    5.5443   -2.4271    0.0000 N   0  0  3  0  0  0  0  0  0  0  0  0
    4.5981   -1.1224    0.0000 C   0  0  2  0  0  0  0  0  0  0  0  0
    4.5981   -2.1224    0.0000 C   0  0  2  0  0  0  0  0  0  0  0  0
    5.5443   -0.8176    0.0000 C   0  0  0  0  0  0  0  0  0  0  0  0
    3.7320   -0.6224    0.0000 C   0  0  0  0  0  0  0  0  0  0  0  0
    3.7320   -2.6224    0.0000 C   0  0  0  0  0  0  0  0  0  0  0  0
    6.1279   -1.6224    0.0000 C   0  0  0  0  0  0  0  0  0  0  0  0
    2.8660   -1.1224    0.0000 C   0  0  0  0  0  0  0  0  0  0  0  0
    2.8660   -2.1224    0.0000 C   0  0  1  0  0  0  0  0  0  0  0  0
    4.5981   -0.1224    0.0000 C   0  0  0  0  0  0  0  0  0  0  0  0
    5.8550   -3.3776    0.0000 C   0  0  0  0  0  0  0  0  0  0  0  0
    5.4641    0.3776    0.0000 C   0  0  0  0  0  0  0  0  0  0  0  0
    3.7320    0.3776    0.0000 C   0  0  0  0  0  0  0  0  0  0  0  0
    5.4641    1.3776    0.0000 C   0  0  0  0  0  0  0  0  0  0  0  0
    3.7320    1.3776    0.0000 C   0  0  0  0  0  0  0  0  0  0  0  0
    4.5981    1.8776    0.0000 C   0  0  0  0  0  0  0  0  0  0  0  0
    6.3301    2.8776    0.0000 C   0  0  0  0  0  0  0  0  0  0  0  0
    3.7320    3.3776    0.0000 C   0  0  0  0  0  0  0  0  0  0  0  0
    4.6880   -2.9676    0.0000 H   0  0  0  0  0  0  0  0  0  0  0  0
    6.0817   -0.5084    0.0000 H   0  0  0  0  0  0  0  0  0  0  0  0
    5.2933   -0.2507    0.0000 H   0  0  0  0  0  0  0  0  0  0  0  0
    4.1306   -0.1474    0.0000 H   0  0  0  0  0  0  0  0  0  0  0  0
    3.3335   -0.1474    0.0000 H   0  0  0  0  0  0  0  0  0  0  0  0
    3.3335   -3.0973    0.0000 H   0  0  0  0  0  0  0  0  0  0  0  0
    4.1306   -3.0973    0.0000 H   0  0  0  0  0  0  0  0  0  0  0  0
    6.5888   -2.0371    0.0000 H   0  0  0  0  0  0  0  0  0  0  0  0
    6.5888   -1.2076    0.0000 H   0  0  0  0  0  0  0  0  0  0  0  0
    2.6540   -0.5398    0.0000 H   0  0  0  0  0  0  0  0  0  0  0  0
    2.2554   -1.2300    0.0000 H   0  0  0  0  0  0  0  0  0  0  0  0
    2.8660   -2.7424    0.0000 H   0  0  0  0  0  0  0  0  0  0  0  0
    5.2656   -3.5702    0.0000 H   0  0  0  0  0  0  0  0  0  0  0  0
    6.0476   -3.9670    0.0000 H   0  0  0  0  0  0  0  0  0  0  0  0
    6.4443   -3.1850    0.0000 H   0  0  0  0  0  0  0  0  0  0  0  0
    6.0010    0.0676    0.0000 H   0  0  0  0  0  0  0  0  0  0  0  0
    3.1951    0.0676    0.0000 H   0  0  0  0  0  0  0  0  0  0  0  0
    2.0000   -3.2424    0.0000 H   0  0  0  0  0  0  0  0  0  0  0  0
    3.1951    1.6876    0.0000 H   0  0  0  0  0  0  0  0  0  0  0  0
    6.9501    2.8776    0.0000 H   0  0  0  0  0  0  0  0  0  0  0  0
    6.3301    3.4976    0.0000 H   0  0  0  0  0  0  0  0  0  0  0  0
    5.7101    2.8776    0.0000 H   0  0  0  0  0  0  0  0  0  0  0  0
    4.0420    3.9146    0.0000 H   0  0  0  0  0  0  0  0  0  0  0  0
    3.1951    3.6876    0.0000 H   0  0  0  0  0  0  0  0  0  0  0  0
    3.4220    2.8407    0.0000 H   0  0  0  0  0  0  0  0  0  0  0  0
 12  1  1  6  0  0  0
  1 39  1  0  0  0  0
  2 17  1  0  0  0  0
  2 20  1  0  0  0  0
  3 19  1  0  0  0  0
  3 21  1  0  0  0  0
  4  6  1  0  0  0  0
  4 10  1  0  0  0  0
  4 14  1  0  0  0  0
  5  6  1  0  0  0  0
  5  7  1  0  0  0  0
  5  8  1  0  0  0  0
  5 13  1  6  0  0  0
  6  9  1  0  0  0  0
  6 22  1  6  0  0  0
  7 10  1  0  0  0  0
  7 23  1  0  0  0  0
  7 24  1  0  0  0  0
  8 11  1  0  0  0  0
  8 25  1  0  0  0  0
  8 26  1  0  0  0  0
  9 12  1  0  0  0  0
  9 27  1  0  0  0  0
  9 28  1  0  0  0  0
 10 29  1  0  0  0  0
 10 30  1  0  0  0  0
 11 12  1  0  0  0  0
 11 31  1  0  0  0  0
 11 32  1  0  0  0  0
 12 33  1  0  0  0  0
 13 15  2  0  0  0  0
 13 16  1  0  0  0  0
 14 34  1  0  0  0  0
 14 35  1  0  0  0  0
 14 36  1  0  0  0  0
 15 17  1  0  0  0  0
 15 37  1  0  0  0  0
 16 18  2  0  0  0  0
 16 38  1  0  0  0  0
 17 19  2  0  0  0  0
 18 19  1  0  0  0  0
 18 40  1  0  0  0  0
 20 41  1  0  0  0  0
 20 42  1  0  0  0  0
 20 43  1  0  0  0  0
 21 44  1  0  0  0  0
 21 45  1  0  0  0  0
 21 46  1  0  0  0  0
M  END
> <PUBCHEM_COMPOUND_CID>
442112

> <PUBCHEM_COMPOUND_CANONICALIZED>
1

> <PUBCHEM_CACTVS_COMPLEXITY>
364

> <PUBCHEM_CACTVS_HBOND_ACCEPTOR>
4

> <PUBCHEM_CACTVS_HBOND_DONOR>
1

> <PUBCHEM_CACTVS_ROTATABLE_BOND>
3

> <PUBCHEM_CACTVS_SUBSKEYS>
AAADceB6MAAAAAAAAAAAAAAAAAAAAWAAAAAwYAAAAAAAAFgBAAAAHgAACAAADjzhmAYyBoMABgCAAiBCAAACCAAgIAAIiAAOiIgNNiKEsRuEcCImwBGKqAeQ0PMPoAABAAAAQABAAAIEAASAAAAAAAAAAA==

> <PUBCHEM_IUPAC_OPENEYE_NAME>
(3aS,6R,7aS)-3a-(3,4-dimethoxyphenyl)-1-methyl-3,4,5,6,7,7a-hexahydro-2H-indol-6-ol

> <PUBCHEM_IUPAC_CAS_NAME>
(3aS,6R,7aS)-3a-(3,4-dimethoxyphenyl)-1-methyl-3,4,5,6,7,7a-hexahydro-2H-indol-6-ol

> <PUBCHEM_IUPAC_NAME>
(3aS,6R,7aS)-3a-(3,4-dimethoxyphenyl)-1-methyl-3,4,5,6,7,7a-hexahydro-2H-indol-6-ol

> <PUBCHEM_IUPAC_SYSTEMATIC_NAME>
(3aS,6R,7aS)-3a-(3,4-dimethoxyphenyl)-1-methyl-3,4,5,6,7,7a-hexahydro-2H-indol-6-ol

> <PUBCHEM_IUPAC_TRADITIONAL_NAME>
(3aS,6R,7aS)-3a-(3,4-dimethoxyphenyl)-1-methyl-3,4,5,6,7,7a-hexahydro-2H-indol-6-ol

> <PUBCHEM_IUPAC_INCHI>
InChI=1S/C17H25NO3/c1-18-9-8-17(7-6-13(19)11-16(17)18)12-4-5-14(20-2)15(10-12)21-3/h4-5,10,13,16,19H,6-9,11H2,1-3H3/t13-,16+,17+/m1/s1

> <PUBCHEM_IUPAC_INCHIKEY>
KPMLOZVRLWHOBN-COXVUDFISA-N

> <PUBCHEM_XLOGP3_AA>
2.4

> <PUBCHEM_EXACT_MASS>
291.183444

> <PUBCHEM_MOLECULAR_FORMULA>
C17H25NO3

> <PUBCHEM_MOLECULAR_WEIGHT>
291.3853

> <PUBCHEM_OPENEYE_CAN_SMILES>
CN1CCC2(C1CC(CC2)O)C3=CC(=C(C=C3)OC)OC

> <PUBCHEM_OPENEYE_ISO_SMILES>
CN1CC[C@]2([C@@H]1C[C@@H](CC2)O)C3=CC(=C(C=C3)OC)OC

> <PUBCHEM_CACTVS_TPSA>
41.9

> <PUBCHEM_MONOISOTOPIC_WEIGHT>
291.183444

> <PUBCHEM_TOTAL_CHARGE>
0

> <PUBCHEM_HEAVY_ATOM_COUNT>
21

> <PUBCHEM_ATOM_DEF_STEREO_COUNT>
3

> <PUBCHEM_ATOM_UDEF_STEREO_COUNT>
0

> <PUBCHEM_BOND_DEF_STEREO_COUNT>
0

> <PUBCHEM_BOND_UDEF_STEREO_COUNT>
0

> <PUBCHEM_ISOTOPIC_ATOM_COUNT>
0

> <PUBCHEM_COMPONENT_COUNT>
1

> <PUBCHEM_CACTVS_TAUTO_COUNT>
1

> <PUBCHEM_COORDINATE_TYPE>
1
5
255

> <PUBCHEM_BONDANNOTATIONS>
12  1  6
13  15  8
13  16  8
15  17  8
16  18  8
17  19  8
18  19  8
5  13  6
6  22  6

$$$$

