   Color/Form

     * Crystals from toluene:heptane
     * White to slightly pink crystalline powder

   from [1]HSDB

   Melting Point
        139-141 deg C
   from [2]HSDB

   Dissociation Constants
        pKa = 10.2
   from [3]HSDB

   Octanol/Water Partition Coefficient
        log Kow = 4.7 @ 25 deg C /Estimated/
   from [4]HSDB

   Solubilities
        In water, 0.093 mg/L @ 25 deg C /Estimated/
   from [5]HSDB

   Vapor Pressure
        3.8X10-7 mm Hg @ 25 deg C /Estimated/
   from [6]HSDB

   Other Chemical/Physical Properties

     * Henry's Law constant = 7X10-9 atm-cu m/mol @ 25 deg C /Estimated/
     * Hydroxyl radical reaction rate constant = 4.2X10-11cu cm/molec-sec
       @ 25 deg C /Estimated/

   from [7]HSDB

   Computed Properties
   Molecular Weight                  315.67497 [g/mol]
   Molecular Formula                 C[14]H[9]ClF[3]NO[2]
   XLogP3-AA                         4
   H-Bond Donor                      1
   H-Bond Acceptor                   5
   Rotatable Bond Count              1
   Tautomer Count                    2
   Exact Mass                        315.027391
   MonoIsotopic Mass                 315.027391
   Topological Polar Surface Area    38.3
   Heavy Atom Count                  21
   Formal Charge                     0
   Complexity                        519
   Isotope Atom Count                0
   Defined Atom Stereocenter Count   1
   Undefined Atom Stereocenter Count 0
   Defined Bond Stereocenter Count   0
   Undefined Bond Stereocenter Count 0
   Covalently-Bonded Unit Count      1
   Feature 3D Acceptor Count         1
   Feature 3D Donor Count            1
   Feature 3D Ring Count             2
   Effective Rotor Count             2.2
   Conformer Sampling RMSD           0.6
   CID Conformer Count               [8]1

References

   1. http://toxnet.nlm.nih.gov/cgi-bin/sis/search/r?dbs+hsdb:@term+@rn+@rel+154598-52-4
   2. http://toxnet.nlm.nih.gov/cgi-bin/sis/search/r?dbs+hsdb:@term+@rn+@rel+154598-52-4
   3. http://toxnet.nlm.nih.gov/cgi-bin/sis/search/r?dbs+hsdb:@term+@rn+@rel+154598-52-4
   4. http://toxnet.nlm.nih.gov/cgi-bin/sis/search/r?dbs+hsdb:@term+@rn+@rel+154598-52-4
   5. http://toxnet.nlm.nih.gov/cgi-bin/sis/search/r?dbs+hsdb:@term+@rn+@rel+154598-52-4
   6. http://toxnet.nlm.nih.gov/cgi-bin/sis/search/r?dbs+hsdb:@term+@rn+@rel+154598-52-4
   7. http://toxnet.nlm.nih.gov/cgi-bin/sis/search/r?dbs+hsdb:@term+@rn+@rel+154598-52-4
   8. http://pubchem.ncbi.nlm.nih.gov/vw3d/vw3d.cgi?cid=64139
