   Color/Form

     * NEEDLES FROM ALCOHOL OR LIGROIN
     * GRAY FLAKES IN SUBLIMED MASS
     * Colorless needles

   from [1]HSDB

   Odor
        STRONG PHENOLIC ODOR
   from [2]HSDB

   Taste
        Taste threshold concentration in water is 1.0 ug/l.
   from [3]HSDB

   Boiling Point
        247 DEG C @ 760 MM HG
   from [4]HSDB

   Melting Point
        69 DEG C
   from [5]HSDB

   Density/Specific Gravity
        1.678 @ 25 DEG C/4 DEG C
   from [6]HSDB

   Dissociation Constants
        pKa= 7.4
   from [7]HSDB

   Heat of Vaporization
        13,237.0 g cal/g mole
   from [8]HSDB

   Octanol/Water Partition Coefficient
        log Kow= 3.72
   from [9]HSDB

   pH
        WEAK MONOBASIC ACID
   from [10]HSDB

   Solubilities

     * 1200 mg/kg water @ 25 deg C
     * 615 g/100 g acetone @ 25 deg C; 163 g/100 g benzene @ 25 deg C; 51
       g/100 g carbon tetrachloride @ 25 deg C; 525 g/100 g ether @ 25 deg
       C; 525 g/100 g denatured alc formula 30 @ 25 deg C; 615 g/100 g
       methanol @ 25 deg C; 56 g/100 g liquid petrolatum @ 50 deg C; 79
       g/100 g soybean oil @ 25 deg C; 122 g/100 g toluene @ 25 deg C

   from [11]HSDB

   Spectral Properties

     * MAX ABSORPTION (0.1 N SODIUM HYDROXIDE): 244 NM (LOGE = 3.95); 310
       NM (LOG E= 3.62)
     * Sadtler reference no: 14019 (IR, prism); 616 (IR, grating); 3859
       (UV)
     * Intense mass spectral peaks: 196 m/z (100%), 198 m/z (97%), 97 m/z
       (41%), 200 m/z (32%)
     * IR: 182 (Coblentz Society Spectral Collection)
     * UV: 3839 (Sadtler Research Laboratories Spectral Collection)
     * NMR: 10257 (Sadtler Research Laboratories Spectral Collection)
     * MASS: 1365 (Atlas of Mass Spectral Data, John Wiley & Sons, New
       York)
     * Intense mass spectral peaks: 132 m/z

   from [12]HSDB

   Vapor Pressure
        0.008 mm Hg @ 25 deg C
   from [13]HSDB

   Other Chemical/Physical Properties

     * SUBLIMES
     * As a group, the chlorophenols are characterized by an odor which
       has been described as unpleasent, medicinal, pungent, phenolic,
       strong, or persistent. /Chlorinated phenols/
     * The highest formation rate /of tetrachlorodibenzo(p)dioxin from
       phenolic compounds/ was for 2,4,5-trichlorophenol when 0.5% was
       heated to 600 deg C.
     * /Trichlorophenols exist/ as 6 isomers (2,4,5-; 3,4,5-; 2,4,6-;
       2,3,4-; 2,3,5- and 2,3,6-) ...
     * Vapor pressure: 1 mm Hg at 72.0 deg C

   from [14]HSDB

   Computed Properties
   Molecular Weight                  197.44642 [g/mol]
   Molecular Formula                 C[6]H[3]Cl[3]O
   XLogP3                            3.7
   H-Bond Donor                      1
   H-Bond Acceptor                   1
   Rotatable Bond Count              0
   Tautomer Count                    3
   Exact Mass                        195.924948
   MonoIsotopic Mass                 195.924948
   Topological Polar Surface Area    20.2
   Heavy Atom Count                  10
   Formal Charge                     0
   Complexity                        120
   Isotope Atom Count                0
   Defined Atom Stereocenter Count   0
   Undefined Atom Stereocenter Count 0
   Defined Bond Stereocenter Count   0
   Undefined Bond Stereocenter Count 0
   Covalently-Bonded Unit Count      1
   Feature 3D Donor Count            1
   Feature 3D Ring Count             1
   Effective Rotor Count             0
   Conformer Sampling RMSD           0.4
   CID Conformer Count               [15]1

References

   1. http://toxnet.nlm.nih.gov/cgi-bin/sis/search/r?dbs+hsdb:@term+@rn+@rel+95-95-4
   2. http://toxnet.nlm.nih.gov/cgi-bin/sis/search/r?dbs+hsdb:@term+@rn+@rel+95-95-4
   3. http://toxnet.nlm.nih.gov/cgi-bin/sis/search/r?dbs+hsdb:@term+@rn+@rel+95-95-4
   4. http://toxnet.nlm.nih.gov/cgi-bin/sis/search/r?dbs+hsdb:@term+@rn+@rel+95-95-4
   5. http://toxnet.nlm.nih.gov/cgi-bin/sis/search/r?dbs+hsdb:@term+@rn+@rel+95-95-4
   6. http://toxnet.nlm.nih.gov/cgi-bin/sis/search/r?dbs+hsdb:@term+@rn+@rel+95-95-4
   7. http://toxnet.nlm.nih.gov/cgi-bin/sis/search/r?dbs+hsdb:@term+@rn+@rel+95-95-4
   8. http://toxnet.nlm.nih.gov/cgi-bin/sis/search/r?dbs+hsdb:@term+@rn+@rel+95-95-4
   9. http://toxnet.nlm.nih.gov/cgi-bin/sis/search/r?dbs+hsdb:@term+@rn+@rel+95-95-4
  10. http://toxnet.nlm.nih.gov/cgi-bin/sis/search/r?dbs+hsdb:@term+@rn+@rel+95-95-4
  11. http://toxnet.nlm.nih.gov/cgi-bin/sis/search/r?dbs+hsdb:@term+@rn+@rel+95-95-4
  12. http://toxnet.nlm.nih.gov/cgi-bin/sis/search/r?dbs+hsdb:@term+@rn+@rel+95-95-4
  13. http://toxnet.nlm.nih.gov/cgi-bin/sis/search/r?dbs+hsdb:@term+@rn+@rel+95-95-4
  14. http://toxnet.nlm.nih.gov/cgi-bin/sis/search/r?dbs+hsdb:@term+@rn+@rel+95-95-4
  15. http://pubchem.ncbi.nlm.nih.gov/vw3d/vw3d.cgi?cid=7271
