   Color/Form

     * White crystalline solid
     * Colorless crystals

   from [1]HSDB

   Odor

     * Slight sulfurous odor
     * Garlic-like odor

   from [2]HSDB

   Boiling Point
        Decomposes on distillation
   from [3]HSDB

   Melting Point
        100-102 deg C, changes to a different crystalline form, mp 108-110
   deg C
   from [4]HSDB

   Corrosivity
        Non-corrosive
   from [5]HSDB

   Density/Specific Gravity
        0.97 g/cu cm @ 25 deg C
   from [6]HSDB

   Octanol/Water Partition Coefficient
        log Kow = -0.47
   from [7]HSDB

   Solubilities

     * Solubility (g/100 ml @ 25 deg C): acetone, 67; ethanol, 33;
       2-propanol, 11; methanol, 144; toluene, 1
     * In water, 280 g/l @ 25 deg C

   from [8]HSDB

   Spectral Properties
        Intense mass spectral peaks: 72 m/z (100%), 44 m/z (79%), 162 m/z
   (41%), 58 m/z (38%)
   from [9]HSDB

   Vapor Pressure
        0.00023 mm Hg @ 20-25 deg C
   from [10]HSDB

   Other Chemical/Physical Properties
        Solid and formulations are stable; aqueous solution decomposes
   slowly; half-lives: >31 days (pH 5); 8 days (pH 7); 3 hours (pH 9);
   accelerated by aeration and sunlight
   from [11]HSDB

   Computed Properties
   Molecular Weight                  219.26142 [g/mol]
   Molecular Formula                 C[7]H[13]N[3]O[3]S
   XLogP3                            -0.5
   H-Bond Donor                      1
   H-Bond Acceptor                   5
   Rotatable Bond Count              4
   Tautomer Count                    2
   Exact Mass                        219.067762
   MonoIsotopic Mass                 219.067762
   Topological Polar Surface Area    96.3
   Heavy Atom Count                  14
   Formal Charge                     0
   Complexity                        253
   Isotope Atom Count                0
   Defined Atom Stereocenter Count   0
   Undefined Atom Stereocenter Count 0
   Defined Bond Stereocenter Count   1
   Undefined Bond Stereocenter Count 0
   Covalently-Bonded Unit Count      1
   Feature 3D Acceptor Count         3
   Feature 3D Donor Count            1
   Feature 3D Hydrophobe Count       1
   Effective Rotor Count             6
   Conformer Sampling RMSD           0.6
   CID Conformer Count               [12]113

References

   1. http://toxnet.nlm.nih.gov/cgi-bin/sis/search/r?dbs+hsdb:@term+@rn+@rel+23135-22-0
   2. http://toxnet.nlm.nih.gov/cgi-bin/sis/search/r?dbs+hsdb:@term+@rn+@rel+23135-22-0
   3. http://toxnet.nlm.nih.gov/cgi-bin/sis/search/r?dbs+hsdb:@term+@rn+@rel+23135-22-0
   4. http://toxnet.nlm.nih.gov/cgi-bin/sis/search/r?dbs+hsdb:@term+@rn+@rel+23135-22-0
   5. http://toxnet.nlm.nih.gov/cgi-bin/sis/search/r?dbs+hsdb:@term+@rn+@rel+23135-22-0
   6. http://toxnet.nlm.nih.gov/cgi-bin/sis/search/r?dbs+hsdb:@term+@rn+@rel+23135-22-0
   7. http://toxnet.nlm.nih.gov/cgi-bin/sis/search/r?dbs+hsdb:@term+@rn+@rel+23135-22-0
   8. http://toxnet.nlm.nih.gov/cgi-bin/sis/search/r?dbs+hsdb:@term+@rn+@rel+23135-22-0
   9. http://toxnet.nlm.nih.gov/cgi-bin/sis/search/r?dbs+hsdb:@term+@rn+@rel+23135-22-0
  10. http://toxnet.nlm.nih.gov/cgi-bin/sis/search/r?dbs+hsdb:@term+@rn+@rel+23135-22-0
  11. http://toxnet.nlm.nih.gov/cgi-bin/sis/search/r?dbs+hsdb:@term+@rn+@rel+23135-22-0
  12. http://pubchem.ncbi.nlm.nih.gov/vw3d/vw3d.cgi?cid=9595287
