448839
  -OEChem-07051212512D

 29 30  0     1  0  0  0  0  0999 V2000
    7.7953   -1.6660    0.0000 O   0  0  0  0  0  0  0  0  0  0  0  0
    8.6709    0.8306    0.0000 O   0  0  0  0  0  0  0  0  0  0  0  0
   10.3991   -0.1761    0.0000 O   0  0  0  0  0  0  0  0  0  0  0  0
    4.2690   -1.6419    0.0000 O   0  0  0  0  0  0  0  0  0  0  0  0
    6.0290   -0.6766    0.0000 N   0  0  0  0  0  0  0  0  0  0  0  0
    6.0290    1.3928    0.0000 N   0  0  0  0  0  0  0  0  0  0  0  0
    4.2690    1.3581    0.0000 N   0  0  0  0  0  0  0  0  0  0  0  0
    3.4030   -0.1419    0.0000 N   0  0  0  0  0  0  0  0  0  0  0  0
    2.5369    1.3581    0.0000 N   0  0  0  0  0  0  0  0  0  0  0  0
    7.7991   -0.6660    0.0000 C   0  0  2  0  0  0  0  0  0  0  0  0
    8.6671   -0.1694    0.0000 C   0  0  1  0  0  0  0  0  0  0  0  0
    6.9350   -0.1627    0.0000 C   0  0  0  0  0  0  0  0  0  0  0  0
    9.5312   -0.6727    0.0000 C   0  0  0  0  0  0  0  0  0  0  0  0
    5.1350   -0.1419    0.0000 C   0  0  0  0  0  0  0  0  0  0  0  0
    6.9350    0.8789    0.0000 C   0  0  0  0  0  0  0  0  0  0  0  0
    5.1350    0.8581    0.0000 C   0  0  0  0  0  0  0  0  0  0  0  0
    4.2690   -0.6419    0.0000 C   0  0  0  0  0  0  0  0  0  0  0  0
    3.4030    0.8581    0.0000 C   0  0  0  0  0  0  0  0  0  0  0  0
    7.2610   -0.9740    0.0000 H   0  0  0  0  0  0  0  0  0  0  0  0
    8.1313    0.1427    0.0000 H   0  0  0  0  0  0  0  0  0  0  0  0
    9.1308   -1.1461    0.0000 H   0  0  0  0  0  0  0  0  0  0  0  0
    9.9278   -1.1492    0.0000 H   0  0  0  0  0  0  0  0  0  0  0  0
    7.4708    1.1910    0.0000 H   0  0  0  0  0  0  0  0  0  0  0  0
    8.3310   -1.9781    0.0000 H   0  0  0  0  0  0  0  0  0  0  0  0
    4.2690    1.9781    0.0000 H   0  0  0  0  0  0  0  0  0  0  0  0
    9.2090    1.1385    0.0000 H   0  0  0  0  0  0  0  0  0  0  0  0
   10.9348   -0.4881    0.0000 H   0  0  0  0  0  0  0  0  0  0  0  0
    2.0000    1.0481    0.0000 H   0  0  0  0  0  0  0  0  0  0  0  0
    2.5369    1.9781    0.0000 H   0  0  0  0  0  0  0  0  0  0  0  0
 10  1  1  1  0  0  0
  1 24  1  0  0  0  0
 11  2  1  6  0  0  0
  2 26  1  0  0  0  0
  3 13  1  0  0  0  0
  3 27  1  0  0  0  0
  4 17  2  0  0  0  0
  5 12  1  0  0  0  0
  5 14  2  0  0  0  0
  6 15  1  0  0  0  0
  6 16  2  0  0  0  0
  7 16  1  0  0  0  0
  7 18  1  0  0  0  0
  7 25  1  0  0  0  0
  8 17  1  0  0  0  0
  8 18  2  0  0  0  0
  9 18  1  0  0  0  0
  9 28  1  0  0  0  0
  9 29  1  0  0  0  0
 10 11  1  0  0  0  0
 10 12  1  0  0  0  0
 10 19  1  0  0  0  0
 11 13  1  0  0  0  0
 11 20  1  0  0  0  0
 12 15  2  0  0  0  0
 13 21  1  0  0  0  0
 13 22  1  0  0  0  0
 14 16  1  0  0  0  0
 14 17  1  0  0  0  0
 15 23  1  0  0  0  0
M  END
> <PUBCHEM_COMPOUND_CID>
448839

> <PUBCHEM_COMPOUND_CANONICALIZED>
1

> <PUBCHEM_CACTVS_COMPLEXITY>
363

> <PUBCHEM_CACTVS_HBOND_ACCEPTOR>
6

> <PUBCHEM_CACTVS_HBOND_DONOR>
5

> <PUBCHEM_CACTVS_ROTATABLE_BOND>
3

> <PUBCHEM_CACTVS_SUBSKEYS>
AAADccBzuAAAAAAAAAAAAAAAAAAAAAAAAAAsQAAAAAAAAACBgAAAHgAQCAAACBzhlgYtsBLIEgCoARd3dASAgC03EiABUAG4fEiDdEpA2SCUQIAPwAPRUGCwEAIAAAAAAAAAAAAAAAAAAAAAAAAAAAAAAA==

> <PUBCHEM_IUPAC_OPENEYE_NAME>
2-amino-6-[(1S,2R)-1,2,3-trihydroxypropyl]-1H-pteridin-4-one

> <PUBCHEM_IUPAC_CAS_NAME>
2-amino-6-[(1S,2R)-1,2,3-trihydroxypropyl]-1H-pteridin-4-one

> <PUBCHEM_IUPAC_NAME>
2-amino-6-[(1S,2R)-1,2,3-trihydroxypropyl]-1H-pteridin-4-one

> <PUBCHEM_IUPAC_SYSTEMATIC_NAME>
2-azanyl-6-[(1S,2R)-1,2,3-tris(oxidanyl)propyl]-1H-pteridin-4-one

> <PUBCHEM_IUPAC_TRADITIONAL_NAME>
2-amino-6-[(1S,2R)-1,2,3-trihydroxypropyl]-1H-pteridin-4-one

> <PUBCHEM_IUPAC_INCHI>
InChI=1S/C9H11N5O4/c10-9-13-7-5(8(18)14-9)12-3(1-11-7)6(17)4(16)2-15/h1,4,6,15-17H,2H2,(H3,10,11,13,14,18)/t4-,6+/m1/s1

> <PUBCHEM_IUPAC_INCHIKEY>
BMQYVXCPAOLZOK-XINAWCOVSA-N

> <PUBCHEM_XLOGP3_AA>
-3.5

> <PUBCHEM_EXACT_MASS>
253.081104

> <PUBCHEM_MOLECULAR_FORMULA>
C9H11N5O4

> <PUBCHEM_MOLECULAR_WEIGHT>
253.21474

> <PUBCHEM_OPENEYE_CAN_SMILES>
C1=C(N=C2C(=N1)NC(=NC2=O)N)C(C(CO)O)O

> <PUBCHEM_OPENEYE_ISO_SMILES>
C1=C(N=C2C(=N1)NC(=NC2=O)N)[C@@H]([C@@H](CO)O)O

> <PUBCHEM_CACTVS_TPSA>
154

> <PUBCHEM_MONOISOTOPIC_WEIGHT>
253.081104

> <PUBCHEM_TOTAL_CHARGE>
0

> <PUBCHEM_HEAVY_ATOM_COUNT>
18

> <PUBCHEM_ATOM_DEF_STEREO_COUNT>
2

> <PUBCHEM_ATOM_UDEF_STEREO_COUNT>
0

> <PUBCHEM_BOND_DEF_STEREO_COUNT>
0

> <PUBCHEM_BOND_UDEF_STEREO_COUNT>
0

> <PUBCHEM_ISOTOPIC_ATOM_COUNT>
0

> <PUBCHEM_COMPONENT_COUNT>
1

> <PUBCHEM_CACTVS_TAUTO_COUNT>
12

> <PUBCHEM_COORDINATE_TYPE>
1
5
255

> <PUBCHEM_BONDANNOTATIONS>
10  1  5
12  15  8
14  16  8
14  17  8
11  2  6
5  12  8
5  14  8
6  15  8
6  16  8
7  16  8
7  18  8
8  17  8
8  18  8

$$$$

