11953964
  -OEChem-07051213022D

 50 55  0     1  0  0  0  0  0999 V2000
    3.8076    1.3444    0.0000 O   0  0  0  0  0  0  0  0  0  0  0  0
    7.6812   -0.2434    0.0000 O   0  0  0  0  0  0  0  0  0  0  0  0
    5.0332    2.5682    0.0000 O   0  0  0  0  0  0  0  0  0  0  0  0
    6.1798   -0.8097    0.0000 N   0  0  3  0  0  0  0  0  0  0  0  0
    4.0899   -1.7652    0.0000 N   0  0  0  0  0  0  0  0  0  0  0  0
    4.5153   -0.4559    0.0000 C   0  0  1  0  0  0  0  0  0  0  0  0
    6.4862    0.6318    0.0000 C   0  0  3  0  0  0  0  0  0  0  0  0
    5.9169   -0.0005    0.0000 C   0  0  2  0  0  0  0  0  0  0  0  0
    5.6105   -1.4420    0.0000 C   0  0  2  0  0  0  0  0  0  0  0  0
    4.7782   -1.2651    0.0000 C   0  0  2  0  0  0  0  0  0  0  0  0
    4.5142    0.6368    0.0000 C   0  0  1  0  0  0  0  0  0  0  0  0
    5.0846    0.1764    0.0000 C   0  0  0  0  0  0  0  0  0  0  0  0
    6.7056   -2.4281    0.0000 C   0  0  1  0  0  0  0  0  0  0  0  0
    5.8734   -2.2512    0.0000 C   0  0  0  0  0  0  0  0  0  0  0  0
    7.0121   -0.9866    0.0000 C   0  0  1  0  0  0  0  0  0  0  0  0
    3.6645   -0.4559    0.0000 C   0  0  0  0  0  0  0  0  0  0  0  0
    7.2750   -1.7958    0.0000 C   0  0  0  0  0  0  0  0  0  0  0  0
    3.4016   -1.2651    0.0000 C   0  0  0  0  0  0  0  0  0  0  0  0
    3.0952    0.1764    0.0000 C   0  0  0  0  0  0  0  0  0  0  0  0
    8.2531   -2.0037    0.0000 C   0  0  0  0  0  0  0  0  0  0  0  0
    2.5693   -1.4420    0.0000 C   0  0  0  0  0  0  0  0  0  0  0  0
    4.0671    2.3101    0.0000 C   0  0  0  0  0  0  0  0  0  0  0  0
    2.2629   -0.0005    0.0000 C   0  0  0  0  0  0  0  0  0  0  0  0
    2.0000   -0.8097    0.0000 C   0  0  0  0  0  0  0  0  0  0  0  0
    8.5621   -2.9547    0.0000 C   0  0  0  0  0  0  0  0  0  0  0  0
    3.3605    3.0177    0.0000 C   0  0  0  0  0  0  0  0  0  0  0  0
    6.9092    1.0851    0.0000 H   0  0  0  0  0  0  0  0  0  0  0  0
    5.7347    0.8298    0.0000 H   0  0  0  0  0  0  0  0  0  0  0  0
    5.2921   -2.2301    0.0000 H   0  0  0  0  0  0  0  0  0  0  0  0
    4.7788   -2.1151    0.0000 H   0  0  0  0  0  0  0  0  0  0  0  0
    4.7523    1.2092    0.0000 H   0  0  0  0  0  0  0  0  0  0  0  0
    5.3169    0.7513    0.0000 H   0  0  0  0  0  0  0  0  0  0  0  0
    4.5588    0.5050    0.0000 H   0  0  0  0  0  0  0  0  0  0  0  0
    6.9683   -3.2365    0.0000 H   0  0  0  0  0  0  0  0  0  0  0  0
    5.2594   -2.3374    0.0000 H   0  0  0  0  0  0  0  0  0  0  0  0
    5.8518   -2.8708    0.0000 H   0  0  0  0  0  0  0  0  0  0  0  0
    7.6185   -1.1155    0.0000 H   0  0  0  0  0  0  0  0  0  0  0  0
    4.0951   -2.3852    0.0000 H   0  0  0  0  0  0  0  0  0  0  0  0
    3.2868    0.7661    0.0000 H   0  0  0  0  0  0  0  0  0  0  0  0
    8.6680   -1.5429    0.0000 H   0  0  0  0  0  0  0  0  0  0  0  0
    8.2876   -0.3723    0.0000 H   0  0  0  0  0  0  0  0  0  0  0  0
    2.3777   -2.0316    0.0000 H   0  0  0  0  0  0  0  0  0  0  0  0
    1.8481    0.4603    0.0000 H   0  0  0  0  0  0  0  0  0  0  0  0
    1.3936   -0.9386    0.0000 H   0  0  0  0  0  0  0  0  0  0  0  0
    7.9725   -3.1463    0.0000 H   0  0  0  0  0  0  0  0  0  0  0  0
    8.7537   -3.5444    0.0000 H   0  0  0  0  0  0  0  0  0  0  0  0
    9.1518   -2.7632    0.0000 H   0  0  0  0  0  0  0  0  0  0  0  0
    3.7992    3.4558    0.0000 H   0  0  0  0  0  0  0  0  0  0  0  0
    2.9224    3.4564    0.0000 H   0  0  0  0  0  0  0  0  0  0  0  0
    2.9217    2.5796    0.0000 H   0  0  0  0  0  0  0  0  0  0  0  0
  1 11  1  0  0  0  0
  1 22  1  0  0  0  0
 15  2  1  6  0  0  0
  2 41  1  0  0  0  0
  3 22  2  0  0  0  0
  4  8  1  0  0  0  0
  4  9  1  0  0  0  0
  4 15  1  0  0  0  0
  5 10  1  0  0  0  0
  5 18  1  0  0  0  0
  5 38  1  0  0  0  0
  6 10  1  0  0  0  0
  6 11  1  0  0  0  0
  6 12  1  0  0  0  0
  6 16  1  6  0  0  0
  7  8  1  0  0  0  0
  7 11  1  0  0  0  0
  7 13  1  0  0  0  0
  7 27  1  0  0  0  0
  8 12  1  0  0  0  0
  8 28  1  6  0  0  0
  9 10  1  0  0  0  0
  9 14  1  0  0  0  0
  9 29  1  6  0  0  0
 10 30  1  1  0  0  0
 11 31  1  0  0  0  0
 12 32  1  0  0  0  0
 12 33  1  0  0  0  0
 13 14  1  0  0  0  0
 13 17  1  0  0  0  0
 13 34  1  1  0  0  0
 14 35  1  0  0  0  0
 14 36  1  0  0  0  0
 15 17  1  0  0  0  0
 15 37  1  0  0  0  0
 16 18  1  0  0  0  0
 16 19  2  0  0  0  0
 17 20  2  0  0  0  0
 18 21  2  0  0  0  0
 19 23  1  0  0  0  0
 19 39  1  0  0  0  0
 20 25  1  0  0  0  0
 20 40  1  0  0  0  0
 21 24  1  0  0  0  0
 21 42  1  0  0  0  0
 22 26  1  0  0  0  0
 23 24  2  0  0  0  0
 23 43  1  0  0  0  0
 24 44  1  0  0  0  0
 25 45  1  0  0  0  0
 25 46  1  0  0  0  0
 25 47  1  0  0  0  0
 26 48  1  0  0  0  0
 26 49  1  0  0  0  0
 26 50  1  0  0  0  0
M  END
> <PUBCHEM_COMPOUND_CID>
11953964

> <PUBCHEM_COMPOUND_CANONICALIZED>
1

> <PUBCHEM_CACTVS_COMPLEXITY>
693

> <PUBCHEM_CACTVS_HBOND_ACCEPTOR>
5

> <PUBCHEM_CACTVS_HBOND_DONOR>
2

> <PUBCHEM_CACTVS_ROTATABLE_BOND>
2

> <PUBCHEM_CACTVS_SUBSKEYS>
AAADceB7MAAAAAAAAAAAAAAAAAAAAeIAAAA8WLFiBgAAAFixAAAAHgAQCAAADzzhmAYyyIPABgCIAiTSSACCAAAhAgAIiIAIZIgIdCLAkZGWcAhm0AHI2Aew8P8PgAAAAAACAAAAAAAAAAQAASEABQAAAA==

> <PUBCHEM_IUPAC_INCHI>
InChI=1S/C21H24N2O3/c1-3-11-12-8-15-18-21(13-6-4-5-7-14(13)22-18)9-16(23(15)20(11)25)17(12)19(21)26-10(2)24/h3-7,12,15-20,22,25H,8-9H2,1-2H3/b11-3+/t12-,15-,16-,17?,18-,19+,20+,21+/m0/s1

> <PUBCHEM_IUPAC_INCHIKEY>
DRMGJVPVCAJMDJ-OEJJZAABSA-N

> <PUBCHEM_XLOGP3_AA>
2

> <PUBCHEM_EXACT_MASS>
352.178693

> <PUBCHEM_MOLECULAR_FORMULA>
C21H24N2O3

> <PUBCHEM_MOLECULAR_WEIGHT>
352.42686

> <PUBCHEM_OPENEYE_CAN_SMILES>
CC=C1C2CC3C4C5(CC(C2C5OC(=O)C)N3C1O)C6=CC=CC=C6N4

> <PUBCHEM_OPENEYE_ISO_SMILES>
C/C=C/1\[C@@H]2C[C@H]3[C@H]4[C@@]5(C[C@@H](C2[C@H]5OC(=O)C)N3[C@@H]1O)C6=CC=CC=C6N4

> <PUBCHEM_CACTVS_TPSA>
61.8

> <PUBCHEM_MONOISOTOPIC_WEIGHT>
352.178693

> <PUBCHEM_TOTAL_CHARGE>
0

> <PUBCHEM_HEAVY_ATOM_COUNT>
26

> <PUBCHEM_ATOM_DEF_STEREO_COUNT>
7

> <PUBCHEM_ATOM_UDEF_STEREO_COUNT>
1

> <PUBCHEM_BOND_DEF_STEREO_COUNT>
1

> <PUBCHEM_BOND_UDEF_STEREO_COUNT>
0

> <PUBCHEM_ISOTOPIC_ATOM_COUNT>
0

> <PUBCHEM_COMPONENT_COUNT>
1

> <PUBCHEM_CACTVS_TAUTO_COUNT>
1

> <PUBCHEM_COORDINATE_TYPE>
1
5
255

> <PUBCHEM_BONDANNOTATIONS>
10  30  5
13  34  5
16  18  8
16  19  8
18  21  8
19  23  8
15  2  6
21  24  8
23  24  8
6  16  6
7  11  3
8  28  6
9  29  6

$$$$

