   Color/Form
        Yellow, oily liquid.
   from [1]HSDB

   Odor
        Faint, characteristic odor.
   from [2]HSDB

   Boiling Point
        151-153 DEG C
   from [3]HSDB

   Density/Specific Gravity
        1.0048 AT 20 DEG C/4 DEG C
   from [4]HSDB

   Octanol/Water Partition Coefficient
        log Kow= -0.57
   from [5]HSDB

   Solubilities

     * SOL IN ALL COMMON ORGANIC SOLVENTS & IN LIPIDS
     * VERY SOL IN WATER, ALCOHOL, ETHER
     * MISCIBLE WITH METHYLENE CHLORIDE, VEGETABLE OILS
     * Soluble in ethanol, ethyl ether, and chloroform; soluble in water.

   from [6]HSDB

   Spectral Properties

     * INDEX OF REFRACTION: 1.4368 AT 20 DEG C/D
     * MAX ABSORPTION (WATER): 230 NM (LOG E= 3.86); 332 NM (LOG E= 1.98)
     * Ultraviolet absorption maxima values; Solvent: Light Petroleum (232
       nm, 351 nm, 374 nm), Ethanol (231 nm, 346 nm), Water (230 nm, 332
       nm)
     * IR: 4837 (Coblentz Society Spectral Collection)
     * UV: 6-5 (Organic Electronic Spectral Data, Phillips et al, John
       Wiley & Sons, New York)
     * NMR: 375 (Varian Associates NMR Spectra Catalogue)
     * MASS: 13 (Aldermaston, Eight Peak Index of Mass Spectra, UK)

   from [7]HSDB

   Vapor Density
        2.56
   from [8]HSDB

   Vapor Pressure
        2.7 mm Hg at 20 deg C. [Klein RG; Toxicology 23: 135-48 (1982)]
   [9]PubMed Abstract
   from [10]HSDB

   Viscosity
        LOW
   from [11]HSDB

   Other Chemical/Physical Properties

     * OXIDIZED TO NITRAMINE OR REDUCED TO THE HYDRAZINE &/OR AMINE;
       RELATIVELY RESISTANT TO HYDROLYSIS; PHOTOCHEMICALLY REACTIVE
     * 1 MG/L= 330 PPM; 1 PPM= 3.03 MG/CU M

   from [12]HSDB

   Computed Properties
   Molecular Weight                  74.08184 [g/mol]
   Molecular Formula                 C[2]H[6]N[2]O
   XLogP3                            -0.6
   H-Bond Donor                      0
   H-Bond Acceptor                   3
   Rotatable Bond Count              0
   Exact Mass                        74.048013
   MonoIsotopic Mass                 74.048013
   Topological Polar Surface Area    32.7
   Heavy Atom Count                  5
   Formal Charge                     0
   Complexity                        34.6
   Isotope Atom Count                0
   Defined Atom Stereocenter Count   0
   Undefined Atom Stereocenter Count 0
   Defined Bond Stereocenter Count   0
   Undefined Bond Stereocenter Count 0
   Covalently-Bonded Unit Count      1
   Effective Rotor Count             1
   Conformer Sampling RMSD           0.4
   CID Conformer Count               [13]3

References

   1. http://toxnet.nlm.nih.gov/cgi-bin/sis/search/r?dbs+hsdb:@term+@rn+@rel+62-75-9
   2. http://toxnet.nlm.nih.gov/cgi-bin/sis/search/r?dbs+hsdb:@term+@rn+@rel+62-75-9
   3. http://toxnet.nlm.nih.gov/cgi-bin/sis/search/r?dbs+hsdb:@term+@rn+@rel+62-75-9
   4. http://toxnet.nlm.nih.gov/cgi-bin/sis/search/r?dbs+hsdb:@term+@rn+@rel+62-75-9
   5. http://toxnet.nlm.nih.gov/cgi-bin/sis/search/r?dbs+hsdb:@term+@rn+@rel+62-75-9
   6. http://toxnet.nlm.nih.gov/cgi-bin/sis/search/r?dbs+hsdb:@term+@rn+@rel+62-75-9
   7. http://toxnet.nlm.nih.gov/cgi-bin/sis/search/r?dbs+hsdb:@term+@rn+@rel+62-75-9
   8. http://toxnet.nlm.nih.gov/cgi-bin/sis/search/r?dbs+hsdb:@term+@rn+@rel+62-75-9
   9. http://www.ncbi.nlm.nih.gov/entrez/query.fcgi?cmd=Retrieve&db=pubmed&dopt=Abstract&list_uids=7112590
  10. http://toxnet.nlm.nih.gov/cgi-bin/sis/search/r?dbs+hsdb:@term+@rn+@rel+62-75-9
  11. http://toxnet.nlm.nih.gov/cgi-bin/sis/search/r?dbs+hsdb:@term+@rn+@rel+62-75-9
  12. http://toxnet.nlm.nih.gov/cgi-bin/sis/search/r?dbs+hsdb:@term+@rn+@rel+62-75-9
  13. http://pubchem.ncbi.nlm.nih.gov/vw3d/vw3d.cgi?cid=6124
