17395593
  -OEChem-06241222512D

 41 43  0     1  0  0  0  0  0999 V2000
    6.3301   -1.5173    0.0000 O   0  0  0  0  0  0  0  0  0  0  0  0
    3.7320    0.9827    0.0000 N   0  0  3  0  0  0  0  0  0  0  0  0
    6.3301    1.4827    0.0000 N   0  0  0  0  0  0  0  0  0  0  0  0
    7.1962   -0.0173    0.0000 N   0  0  0  0  0  0  0  0  0  0  0  0
    3.7320   -0.0173    0.0000 C   0  0  3  0  0  0  0  0  0  0  0  0
    2.8660   -0.5173    0.0000 C   0  0  0  0  0  0  0  0  0  0  0  0
    2.8660    1.4827    0.0000 C   0  0  0  0  0  0  0  0  0  0  0  0
    2.0000   -0.0173    0.0000 C   0  0  0  0  0  0  0  0  0  0  0  0
    2.0000    0.9827    0.0000 C   0  0  0  0  0  0  0  0  0  0  0  0
    4.5981    1.4827    0.0000 C   0  0  0  0  0  0  0  0  0  0  0  0
    4.5981   -0.5173    0.0000 C   0  0  0  0  0  0  0  0  0  0  0  0
    5.4641    0.9827    0.0000 C   0  0  0  0  0  0  0  0  0  0  0  0
    5.4641   -0.0173    0.0000 C   0  0  0  0  0  0  0  0  0  0  0  0
    7.1962    0.9827    0.0000 C   0  0  0  0  0  0  0  0  0  0  0  0
    6.3301   -0.5173    0.0000 C   0  0  0  0  0  0  0  0  0  0  0  0
    8.0901   -0.5520    0.0000 C   0  0  0  0  0  0  0  0  0  0  0  0
    8.0901    1.5173    0.0000 C   0  0  0  0  0  0  0  0  0  0  0  0
    8.9962   -0.0381    0.0000 C   0  0  0  0  0  0  0  0  0  0  0  0
    8.9962    1.0035    0.0000 C   0  0  0  0  0  0  0  0  0  0  0  0
    9.8602   -0.5415    0.0000 C   0  0  0  0  0  0  0  0  0  0  0  0
    4.2690    0.2927    0.0000 H   0  0  0  0  0  0  0  0  0  0  0  0
    2.4675   -0.9923    0.0000 H   0  0  0  0  0  0  0  0  0  0  0  0
    3.2646   -0.9923    0.0000 H   0  0  0  0  0  0  0  0  0  0  0  0
    3.2646    1.9576    0.0000 H   0  0  0  0  0  0  0  0  0  0  0  0
    2.4675    1.9576    0.0000 H   0  0  0  0  0  0  0  0  0  0  0  0
    1.3894    0.0903    0.0000 H   0  0  0  0  0  0  0  0  0  0  0  0
    1.7880   -0.5999    0.0000 H   0  0  0  0  0  0  0  0  0  0  0  0
    1.7880    1.5653    0.0000 H   0  0  0  0  0  0  0  0  0  0  0  0
    1.3894    0.8750    0.0000 H   0  0  0  0  0  0  0  0  0  0  0  0
    4.9966    1.9576    0.0000 H   0  0  0  0  0  0  0  0  0  0  0  0
    4.1996    1.9576    0.0000 H   0  0  0  0  0  0  0  0  0  0  0  0
    4.2881   -1.0543    0.0000 H   0  0  0  0  0  0  0  0  0  0  0  0
    5.1350   -0.8273    0.0000 H   0  0  0  0  0  0  0  0  0  0  0  0
    4.9081    0.0196    0.0000 H   0  0  0  0  0  0  0  0  0  0  0  0
    4.9272   -0.3273    0.0000 H   0  0  0  0  0  0  0  0  0  0  0  0
    8.0829   -1.1720    0.0000 H   0  0  0  0  0  0  0  0  0  0  0  0
    8.0829    2.1373    0.0000 H   0  0  0  0  0  0  0  0  0  0  0  0
    9.5319    1.3156    0.0000 H   0  0  0  0  0  0  0  0  0  0  0  0
    9.5482   -1.0772    0.0000 H   0  0  0  0  0  0  0  0  0  0  0  0
   10.3960   -0.8535    0.0000 H   0  0  0  0  0  0  0  0  0  0  0  0
   10.1723   -0.0057    0.0000 H   0  0  0  0  0  0  0  0  0  0  0  0
  1 15  2  0  0  0  0
  2  5  1  0  0  0  0
  2  7  1  0  0  0  0
  2 10  1  0  0  0  0
  3 12  1  0  0  0  0
  3 14  2  0  0  0  0
  4 14  1  0  0  0  0
  4 15  1  0  0  0  0
  4 16  1  0  0  0  0
  5  6  1  0  0  0  0
  5 11  1  0  0  0  0
  5 21  1  0  0  0  0
  6  8  1  0  0  0  0
  6 22  1  0  0  0  0
  6 23  1  0  0  0  0
  7  9  1  0  0  0  0
  7 24  1  0  0  0  0
  7 25  1  0  0  0  0
  8  9  1  0  0  0  0
  8 26  1  0  0  0  0
  8 27  1  0  0  0  0
  9 28  1  0  0  0  0
  9 29  1  0  0  0  0
 10 12  1  0  0  0  0
 10 30  1  0  0  0  0
 10 31  1  0  0  0  0
 11 32  1  0  0  0  0
 11 33  1  0  0  0  0
 11 34  1  0  0  0  0
 12 13  2  0  0  0  0
 13 15  1  0  0  0  0
 13 35  1  0  0  0  0
 14 17  1  0  0  0  0
 16 18  2  0  0  0  0
 16 36  1  0  0  0  0
 17 19  2  0  0  0  0
 17 37  1  0  0  0  0
 18 19  1  0  0  0  0
 18 20  1  0  0  0  0
 19 38  1  0  0  0  0
 20 39  1  0  0  0  0
 20 40  1  0  0  0  0
 20 41  1  0  0  0  0
M  END
> <PUBCHEM_COMPOUND_CID>
17395593

> <PUBCHEM_COMPOUND_CANONICALIZED>
1

> <PUBCHEM_CACTVS_COMPLEXITY>
542

> <PUBCHEM_CACTVS_HBOND_ACCEPTOR>
3

> <PUBCHEM_CACTVS_HBOND_DONOR>
0

> <PUBCHEM_CACTVS_ROTATABLE_BOND>
2

> <PUBCHEM_CACTVS_SUBSKEYS>
AAADceB7IAAAAAAAAAAAAAAAAAAAAAAAAAAsQIAAAAAAAACAAAAAHgAAAAAADCjBgAQDAAMAAACoAid2dACAAAEgAgAJCAAYAFgIQAIAiQAUAAAABgCIgUMQAAAAAAAAAAAAAAAAAAAAAAAAAAAAAAAAAA==

> <PUBCHEM_IUPAC_OPENEYE_NAME>
7-methyl-2-[(2-methyl-1-piperidyl)methyl]pyrido[1,2-a]pyrimidin-4-one

> <PUBCHEM_IUPAC_CAS_NAME>
7-methyl-2-[(2-methyl-1-piperidinyl)methyl]-4-pyrido[1,2-a]pyrimidinone

> <PUBCHEM_IUPAC_NAME>
7-methyl-2-[(2-methylpiperidin-1-yl)methyl]pyrido[1,2-a]pyrimidin-4-one

> <PUBCHEM_IUPAC_SYSTEMATIC_NAME>
7-methyl-2-[(2-methylpiperidin-1-yl)methyl]pyrido[1,2-a]pyrimidin-4-one

> <PUBCHEM_IUPAC_TRADITIONAL_NAME>
7-methyl-2-[(2-methylpiperidino)methyl]pyrido[1,2-a]pyrimidin-4-one

> <PUBCHEM_IUPAC_INCHI>
InChI=1S/C16H21N3O/c1-12-6-7-15-17-14(9-16(20)19(15)10-12)11-18-8-4-3-5-13(18)2/h6-7,9-10,13H,3-5,8,11H2,1-2H3

> <PUBCHEM_IUPAC_INCHIKEY>
RIAXVHHFLJDEFS-UHFFFAOYSA-N

> <PUBCHEM_XLOGP3_AA>
1.2

> <PUBCHEM_EXACT_MASS>
271.168462

> <PUBCHEM_MOLECULAR_FORMULA>
C16H21N3O

> <PUBCHEM_MOLECULAR_WEIGHT>
271.35744

> <PUBCHEM_OPENEYE_CAN_SMILES>
CC1CCCCN1CC2=CC(=O)N3C=C(C=CC3=N2)C

> <PUBCHEM_OPENEYE_ISO_SMILES>
CC1CCCCN1CC2=CC(=O)N3C=C(C=CC3=N2)C

> <PUBCHEM_CACTVS_TPSA>
35.9

> <PUBCHEM_MONOISOTOPIC_WEIGHT>
271.168462

> <PUBCHEM_TOTAL_CHARGE>
0

> <PUBCHEM_HEAVY_ATOM_COUNT>
20

> <PUBCHEM_ATOM_DEF_STEREO_COUNT>
0

> <PUBCHEM_ATOM_UDEF_STEREO_COUNT>
1

> <PUBCHEM_BOND_DEF_STEREO_COUNT>
0

> <PUBCHEM_BOND_UDEF_STEREO_COUNT>
0

> <PUBCHEM_ISOTOPIC_ATOM_COUNT>
0

> <PUBCHEM_COMPONENT_COUNT>
1

> <PUBCHEM_CACTVS_TAUTO_COUNT>
1

> <PUBCHEM_COORDINATE_TYPE>
1
5
255

> <PUBCHEM_BONDANNOTATIONS>
12  13  8
13  15  8
14  17  8
16  18  8
17  19  8
18  19  8
3  12  8
3  14  8
4  14  8
4  15  8
4  16  8
5  11  3

$$$$

