121966
  -OEChem-07051212482D

 61 63  0     1  0  0  0  0  0999 V2000
    5.1350   -2.0870    0.0000 P   0  0  3  0  0  0  0  0  0  0  0  0
    6.0010   -0.5870    0.0000 P   0  0  3  0  0  0  0  0  0  0  0  0
    7.6761    2.5008    0.0000 O   0  0  0  0  0  0  0  0  0  0  0  0
    5.1350   -4.0870    0.0000 O   0  0  0  0  0  0  0  0  0  0  0  0
    5.1070    2.1918    0.0000 O   0  0  0  0  0  0  0  0  0  0  0  0
    4.2690   -2.5870    0.0000 O   0  0  0  0  0  0  0  0  0  0  0  0
    2.5369   -5.5870    0.0000 O   0  0  0  0  0  0  0  0  0  0  0  0
    4.2690   -6.5870    0.0000 O   0  0  0  0  0  0  0  0  0  0  0  0
    2.5369   -3.5870    0.0000 O   0  0  0  0  0  0  0  0  0  0  0  0
    6.0010    0.4130    0.0000 O   0  0  0  0  0  0  0  0  0  0  0  0
    6.0010   -1.5870    0.0000 O   0  0  0  0  0  0  0  0  0  0  0  0
    9.3561    3.2428    0.0000 O   0  0  0  0  0  0  0  0  0  0  0  0
    4.6350   -1.2210    0.0000 O   0  0  0  0  0  0  0  0  0  0  0  0
    7.0010   -0.5870    0.0000 O   0  0  0  0  0  0  0  0  0  0  0  0
    5.6350   -2.9530    0.0000 O   0  0  0  0  0  0  0  0  0  0  0  0
    5.0010   -0.5870    0.0000 O   0  0  0  0  0  0  0  0  0  0  0  0
    9.7182    6.6879    0.0000 O   0  0  0  0  0  0  0  0  0  0  0  0
    7.9548    4.2609    0.0000 N   0  0  0  0  0  0  0  0  0  0  0  0
    9.5372    4.9654    0.0000 N   0  0  0  0  0  0  0  0  0  0  0  0
    6.0580    2.5008    0.0000 C   0  0  2  0  0  0  0  0  0  0  0  0
    6.8671    1.9130    0.0000 C   0  0  1  0  0  0  0  0  0  0  0  0
    6.3671    3.4519    0.0000 C   0  0  0  0  0  0  0  0  0  0  0  0
    7.3671    3.4519    0.0000 C   0  0  1  0  0  0  0  0  0  0  0  0
    3.4030   -5.0870    0.0000 C   0  0  2  0  0  0  0  0  0  0  0  0
    4.2690   -5.5870    0.0000 C   0  0  2  0  0  0  0  0  0  0  0  0
    3.4030   -4.0870    0.0000 C   0  0  2  0  0  0  0  0  0  0  0  0
    5.1350   -5.0870    0.0000 C   0  0  2  0  0  0  0  0  0  0  0  0
    4.2690   -3.5870    0.0000 C   0  0  2  0  0  0  0  0  0  0  0  0
    6.8671    0.9130    0.0000 C   0  0  0  0  0  0  0  0  0  0  0  0
    6.0010   -5.5870    0.0000 C   0  0  0  0  0  0  0  0  0  0  0  0
    7.5481    5.1744    0.0000 C   0  0  0  0  0  0  0  0  0  0  0  0
    8.9494    4.1564    0.0000 C   0  0  0  0  0  0  0  0  0  0  0  0
    8.1359    5.9834    0.0000 C   0  0  0  0  0  0  0  0  0  0  0  0
    9.1304    5.8789    0.0000 C   0  0  0  0  0  0  0  0  0  0  0  0
    7.7292    6.8970    0.0000 C   0  0  0  0  0  0  0  0  0  0  0  0
    5.9611    1.8884    0.0000 H   0  0  0  0  0  0  0  0  0  0  0  0
    7.4195    1.6315    0.0000 H   0  0  0  0  0  0  0  0  0  0  0  0
    6.4319    4.0685    0.0000 H   0  0  0  0  0  0  0  0  0  0  0  0
    5.7606    3.5808    0.0000 H   0  0  0  0  0  0  0  0  0  0  0  0
    7.0856    4.0043    0.0000 H   0  0  0  0  0  0  0  0  0  0  0  0
    3.4030   -5.7070    0.0000 H   0  0  0  0  0  0  0  0  0  0  0  0
    4.8059   -5.8970    0.0000 H   0  0  0  0  0  0  0  0  0  0  0  0
    3.4030   -3.4670    0.0000 H   0  0  0  0  0  0  0  0  0  0  0  0
    5.6720   -4.7770    0.0000 H   0  0  0  0  0  0  0  0  0  0  0  0
    3.7320   -3.2770    0.0000 H   0  0  0  0  0  0  0  0  0  0  0  0
    7.0791    0.3304    0.0000 H   0  0  0  0  0  0  0  0  0  0  0  0
    7.4776    1.0207    0.0000 H   0  0  0  0  0  0  0  0  0  0  0  0
    5.6910   -6.1239    0.0000 H   0  0  0  0  0  0  0  0  0  0  0  0
    6.5380   -5.8970    0.0000 H   0  0  0  0  0  0  0  0  0  0  0  0
    6.3110   -5.0500    0.0000 H   0  0  0  0  0  0  0  0  0  0  0  0
    4.6462    2.6066    0.0000 H   0  0  0  0  0  0  0  0  0  0  0  0
    6.9315    5.2392    0.0000 H   0  0  0  0  0  0  0  0  0  0  0  0
    2.5369   -6.2070    0.0000 H   0  0  0  0  0  0  0  0  0  0  0  0
    4.8059   -6.8970    0.0000 H   0  0  0  0  0  0  0  0  0  0  0  0
    2.0000   -3.8970    0.0000 H   0  0  0  0  0  0  0  0  0  0  0  0
   10.1538    4.9006    0.0000 H   0  0  0  0  0  0  0  0  0  0  0  0
    8.2956    7.1492    0.0000 H   0  0  0  0  0  0  0  0  0  0  0  0
    7.4770    7.4634    0.0000 H   0  0  0  0  0  0  0  0  0  0  0  0
    7.1628    6.6448    0.0000 H   0  0  0  0  0  0  0  0  0  0  0  0
    4.0150   -1.2210    0.0000 H   0  0  0  0  0  0  0  0  0  0  0  0
    7.3110   -1.1239    0.0000 H   0  0  0  0  0  0  0  0  0  0  0  0
  1  6  1  0  0  0  0
  1 11  1  0  0  0  0
  1 13  1  0  0  0  0
  1 15  2  0  0  0  0
  2 10  1  0  0  0  0
  2 11  1  0  0  0  0
  2 14  1  0  0  0  0
  2 16  2  0  0  0  0
  3 21  1  0  0  0  0
  3 23  1  0  0  0  0
  4 27  1  0  0  0  0
  4 28  1  0  0  0  0
 20  5  1  1  0  0  0
  5 51  1  0  0  0  0
 28  6  1  1  0  0  0
 24  7  1  1  0  0  0
  7 53  1  0  0  0  0
 25  8  1  6  0  0  0
  8 54  1  0  0  0  0
 26  9  1  1  0  0  0
  9 55  1  0  0  0  0
 10 29  1  0  0  0  0
 12 32  2  0  0  0  0
 13 60  1  0  0  0  0
 14 61  1  0  0  0  0
 17 34  2  0  0  0  0
 23 18  1  6  0  0  0
 18 31  1  0  0  0  0
 18 32  1  0  0  0  0
 19 32  1  0  0  0  0
 19 34  1  0  0  0  0
 19 56  1  0  0  0  0
 20 21  1  0  0  0  0
 20 22  1  0  0  0  0
 20 36  1  0  0  0  0
 21 29  1  6  0  0  0
 21 37  1  0  0  0  0
 22 23  1  0  0  0  0
 22 38  1  0  0  0  0
 22 39  1  0  0  0  0
 23 40  1  0  0  0  0
 24 25  1  0  0  0  0
 24 26  1  0  0  0  0
 24 41  1  0  0  0  0
 25 27  1  0  0  0  0
 25 42  1  0  0  0  0
 26 28  1  0  0  0  0
 26 43  1  0  0  0  0
 27 30  1  1  0  0  0
 27 44  1  0  0  0  0
 28 45  1  0  0  0  0
 29 46  1  0  0  0  0
 29 47  1  0  0  0  0
 30 48  1  0  0  0  0
 30 49  1  0  0  0  0
 30 50  1  0  0  0  0
 31 33  2  0  0  0  0
 31 52  1  0  0  0  0
 33 34  1  0  0  0  0
 33 35  1  0  0  0  0
 35 57  1  0  0  0  0
 35 58  1  0  0  0  0
 35 59  1  0  0  0  0
M  END
> <PUBCHEM_COMPOUND_CID>
121966

> <PUBCHEM_COMPOUND_CANONICALIZED>
1

> <PUBCHEM_CACTVS_COMPLEXITY>
961

> <PUBCHEM_CACTVS_HBOND_ACCEPTOR>
15

> <PUBCHEM_CACTVS_HBOND_DONOR>
7

> <PUBCHEM_CACTVS_ROTATABLE_BOND>
8

> <PUBCHEM_CACTVS_SUBSKEYS>
AAADceB7PAMAAAAAAAAAAAAAAAAAASAAAAAkQAAAAAAAAAAAAAAAHgAQCCAADBTxgAcDCAPABxCIQgFWUICAAAAAAAAAAAEIAECREAIAgQAOQAAPByIHAMHwcAYAAAAAAAAAAAAAAAAAAAAAAAAAAAAAAA==

> <PUBCHEM_IUPAC_OPENEYE_NAME>
[hydroxy-[[(2R,3S,5R)-3-hydroxy-5-(5-methyl-2,4-dioxo-pyrimidin-1-yl)tetrahydrofuran-2-yl]methoxy]phosphoryl] [(2R,3R,4R,5R,6S)-3,4,5-trihydroxy-6-methyl-tetrahydropyran-2-yl] hydrogen phosphate

> <PUBCHEM_IUPAC_CAS_NAME>
[hydroxy-[[(2R,3S,5R)-3-hydroxy-5-(5-methyl-2,4-dioxo-1-pyrimidinyl)-2-oxolanyl]methoxy]phosphoryl] [(2R,3R,4R,5R,6S)-3,4,5-trihydroxy-6-methyl-2-oxanyl] hydrogen phosphate

> <PUBCHEM_IUPAC_NAME>
[hydroxy-[[(2R,3S,5R)-3-hydroxy-5-(5-methyl-2,4-dioxopyrimidin-1-yl)oxolan-2-yl]methoxy]phosphoryl] [(2R,3R,4R,5R,6S)-3,4,5-trihydroxy-6-methyloxan-2-yl] hydrogen phosphate

> <PUBCHEM_IUPAC_SYSTEMATIC_NAME>
[[(2R,3S,5R)-5-[5-methyl-2,4-bis(oxidanylidene)pyrimidin-1-yl]-3-oxidanyl-oxolan-2-yl]methoxy-oxidanyl-phosphoryl] [(2R,3R,4R,5R,6S)-6-methyl-3,4,5-tris(oxidanyl)oxan-2-yl] hydrogen phosphate

> <PUBCHEM_IUPAC_TRADITIONAL_NAME>
[[(2R,3S,5R)-5-(2,4-diketo-5-methyl-pyrimidin-1-yl)-3-hydroxy-tetrahydrofuran-2-yl]methoxy-hydroxy-phosphoryl] [(2R,3R,4R,5R,6S)-3,4,5-trihydroxy-6-methyl-tetrahydropyran-2-yl] hydrogen phosphate

> <PUBCHEM_IUPAC_INCHI>
InChI=1S/C16H26N2O15P2/c1-6-4-18(16(24)17-14(6)23)10-3-8(19)9(31-10)5-29-34(25,26)33-35(27,28)32-15-13(22)12(21)11(20)7(2)30-15/h4,7-13,15,19-22H,3,5H2,1-2H3,(H,25,26)(H,27,28)(H,17,23,24)/t7-,8-,9+,10+,11-,12+,13+,15+/m0/s1

> <PUBCHEM_IUPAC_INCHIKEY>
ZOSQFDVXNQFKBY-CGAXJHMRSA-N

> <PUBCHEM_XLOGP3_AA>
-4.8

> <PUBCHEM_EXACT_MASS>
548.080841

> <PUBCHEM_MOLECULAR_FORMULA>
C16H26N2O15P2

> <PUBCHEM_MOLECULAR_WEIGHT>
548.329564

> <PUBCHEM_OPENEYE_CAN_SMILES>
CC1C(C(C(C(O1)OP(=O)(O)OP(=O)(O)OCC2C(CC(O2)N3C=C(C(=O)NC3=O)C)O)O)O)O

> <PUBCHEM_OPENEYE_ISO_SMILES>
C[C@H]1[C@@H]([C@H]([C@H]([C@H](O1)OP(=O)(O)OP(=O)(O)OC[C@@H]2[C@H](C[C@@H](O2)N3C=C(C(=O)NC3=O)C)O)O)O)O

> <PUBCHEM_CACTVS_TPSA>
251

> <PUBCHEM_MONOISOTOPIC_WEIGHT>
548.080841

> <PUBCHEM_TOTAL_CHARGE>
0

> <PUBCHEM_HEAVY_ATOM_COUNT>
35

> <PUBCHEM_ATOM_DEF_STEREO_COUNT>
8

> <PUBCHEM_ATOM_UDEF_STEREO_COUNT>
0

> <PUBCHEM_BOND_DEF_STEREO_COUNT>
0

> <PUBCHEM_BOND_UDEF_STEREO_COUNT>
0

> <PUBCHEM_ISOTOPIC_ATOM_COUNT>
0

> <PUBCHEM_COMPONENT_COUNT>
1

> <PUBCHEM_CACTVS_TAUTO_COUNT>
3

> <PUBCHEM_COORDINATE_TYPE>
1
5
255

> <PUBCHEM_BONDANNOTATIONS>
23  18  6
18  31  8
18  32  8
19  32  8
19  34  8
21  29  6
27  30  5
31  33  8
33  34  8
20  5  5
28  6  5
24  7  5
25  8  6
26  9  5

$$$$

