5622
  -OEChem-06261200472D

 95102  0     1  0  0  0  0  0999 V2000
    7.9821   -1.0423    0.0000 O   0  0  0  0  0  0  0  0  0  0  0  0
    2.0000   -6.0942    0.0000 O   0  0  0  0  0  0  0  0  0  0  0  0
    9.9391   -0.6299    0.0000 N   0  0  0  0  0  0  0  0  0  0  0  0
   10.5605    1.2711    0.0000 N   0  0  0  0  0  0  0  0  0  0  0  0
   10.2033    2.9660    0.0000 N   0  0  0  0  0  0  0  0  0  0  0  0
   13.1388    3.5846    0.0000 N   0  0  0  0  0  0  0  0  0  0  0  0
    9.8461    4.6608    0.0000 N   0  0  0  0  0  0  0  0  0  0  0  0
   11.4924    4.1227    0.0000 N   0  0  0  0  0  0  0  0  0  0  0  0
    7.3931   -3.0419    0.0000 C   0  0  3  0  0  0  0  0  0  0  0  0
    7.3931   -4.0419    0.0000 C   0  0  3  0  0  0  0  0  0  0  0  0
    6.5271   -4.5419    0.0000 C   0  0  3  0  0  0  0  0  0  0  0  0
    8.3393   -2.7372    0.0000 C   0  0  3  0  0  0  0  0  0  0  0  0
    8.3393   -4.3466    0.0000 C   0  0  0  0  0  0  0  0  0  0  0  0
    8.9229   -3.5419    0.0000 C   0  0  0  0  0  0  0  0  0  0  0  0
    6.5271   -2.5419    0.0000 C   0  0  0  0  0  0  0  0  0  0  0  0
    5.6610   -4.0419    0.0000 C   0  0  0  0  0  0  0  0  0  0  0  0
    6.5431   -5.5834    0.0000 C   0  0  0  0  0  0  0  0  0  0  0  0
    7.3931   -2.0419    0.0000 C   0  0  0  0  0  0  0  0  0  0  0  0
    4.7510   -4.5487    0.0000 C   0  0  3  0  0  0  0  0  0  0  0  0
    5.6610   -3.0419    0.0000 C   0  0  0  0  0  0  0  0  0  0  0  0
    5.6451   -6.1112    0.0000 C   0  0  0  0  0  0  0  0  0  0  0  0
    8.6500   -1.7866    0.0000 C   0  0  0  0  0  0  0  0  0  0  0  0
    4.7430   -5.5903    0.0000 C   0  0  0  0  0  0  0  0  0  0  0  0
    4.7587   -3.5488    0.0000 C   0  0  0  0  0  0  0  0  0  0  0  0
    3.8242   -3.9847    0.0000 C   0  0  0  0  0  0  0  0  0  0  0  0
    9.6285   -1.5804    0.0000 C   0  0  0  0  0  0  0  0  0  0  0  0
    3.8076   -6.1401    0.0000 C   0  0  0  0  0  0  0  0  0  0  0  0
    2.8763   -4.5126    0.0000 C   0  0  0  0  0  0  0  0  0  0  0  0
    2.8680   -5.5976    0.0000 C   0  0  0  0  0  0  0  0  0  0  0  0
   10.9176   -0.4237    0.0000 C   0  0  0  0  0  0  0  0  0  0  0  0
    9.2713    0.1144    0.0000 C   0  0  0  0  0  0  0  0  0  0  0  0
    9.5820    1.0649    0.0000 C   0  0  0  0  0  0  0  0  0  0  0  0
   11.2283    0.5268    0.0000 C   0  0  0  0  0  0  0  0  0  0  0  0
   10.8711    2.2217    0.0000 C   0  0  0  0  0  0  0  0  0  0  0  0
   11.8496    2.4279    0.0000 C   0  0  0  0  0  0  0  0  0  0  0  0
   12.1603    3.3784    0.0000 C   0  0  0  0  0  0  0  0  0  0  0  0
   10.5139    3.9165    0.0000 C   0  0  0  0  0  0  0  0  0  0  0  0
   13.8808    2.9142    0.0000 C   0  0  0  0  0  0  0  0  0  0  0  0
   13.5471    4.4975    0.0000 C   0  0  0  0  0  0  0  0  0  0  0  0
   10.0557    5.6386    0.0000 C   0  0  0  0  0  0  0  0  0  0  0  0
    8.8514    4.5580    0.0000 C   0  0  0  0  0  0  0  0  0  0  0  0
   14.7477    3.4127    0.0000 C   0  0  0  0  0  0  0  0  0  0  0  0
   14.5415    4.3912    0.0000 C   0  0  0  0  0  0  0  0  0  0  0  0
    8.4462    5.4722    0.0000 C   0  0  0  0  0  0  0  0  0  0  0  0
    9.1905    6.1401    0.0000 C   0  0  0  0  0  0  0  0  0  0  0  0
    7.4587   -4.6584    0.0000 H   0  0  0  0  0  0  0  0  0  0  0  0
    7.0664   -4.8477    0.0000 H   0  0  0  0  0  0  0  0  0  0  0  0
    7.9018   -2.2978    0.0000 H   0  0  0  0  0  0  0  0  0  0  0  0
    8.0883   -4.9135    0.0000 H   0  0  0  0  0  0  0  0  0  0  0  0
    8.8767   -4.6558    0.0000 H   0  0  0  0  0  0  0  0  0  0  0  0
    9.3838   -3.9566    0.0000 H   0  0  0  0  0  0  0  0  0  0  0  0
    9.3838   -3.1272    0.0000 H   0  0  0  0  0  0  0  0  0  0  0  0
    6.9256   -2.0670    0.0000 H   0  0  0  0  0  0  0  0  0  0  0  0
    6.1285   -2.0670    0.0000 H   0  0  0  0  0  0  0  0  0  0  0  0
    6.7612   -6.1638    0.0000 H   0  0  0  0  0  0  0  0  0  0  0  0
    7.1523   -5.4679    0.0000 H   0  0  0  0  0  0  0  0  0  0  0  0
    8.0131   -2.0419    0.0000 H   0  0  0  0  0  0  0  0  0  0  0  0
    7.3931   -1.4219    0.0000 H   0  0  0  0  0  0  0  0  0  0  0  0
    6.7731   -2.0419    0.0000 H   0  0  0  0  0  0  0  0  0  0  0  0
    5.1241   -2.7319    0.0000 H   0  0  0  0  0  0  0  0  0  0  0  0
    5.2478   -6.5871    0.0000 H   0  0  0  0  0  0  0  0  0  0  0  0
    6.0460   -6.5840    0.0000 H   0  0  0  0  0  0  0  0  0  0  0  0
    5.3787   -3.5536    0.0000 H   0  0  0  0  0  0  0  0  0  0  0  0
    4.7635   -2.9288    0.0000 H   0  0  0  0  0  0  0  0  0  0  0  0
    4.1388   -3.5440    0.0000 H   0  0  0  0  0  0  0  0  0  0  0  0
    3.8361   -3.3648    0.0000 H   0  0  0  0  0  0  0  0  0  0  0  0
    9.6490   -2.2001    0.0000 H   0  0  0  0  0  0  0  0  0  0  0  0
   10.2423   -1.6678    0.0000 H   0  0  0  0  0  0  0  0  0  0  0  0
    3.8100   -6.7601    0.0000 H   0  0  0  0  0  0  0  0  0  0  0  0
    2.3430   -4.1964    0.0000 H   0  0  0  0  0  0  0  0  0  0  0  0
   10.9382   -1.0433    0.0000 H   0  0  0  0  0  0  0  0  0  0  0  0
   11.5315   -0.5110    0.0000 H   0  0  0  0  0  0  0  0  0  0  0  0
    8.7244    0.4064    0.0000 H   0  0  0  0  0  0  0  0  0  0  0  0
    8.8887   -0.3735    0.0000 H   0  0  0  0  0  0  0  0  0  0  0  0
   11.7752    0.2348    0.0000 H   0  0  0  0  0  0  0  0  0  0  0  0
    9.5614    1.6846    0.0000 H   0  0  0  0  0  0  0  0  0  0  0  0
    8.9681    1.1523    0.0000 H   0  0  0  0  0  0  0  0  0  0  0  0
   11.6109    1.0147    0.0000 H   0  0  0  0  0  0  0  0  0  0  0  0
   12.2637    1.9664    0.0000 H   0  0  0  0  0  0  0  0  0  0  0  0
   13.4193    2.5001    0.0000 H   0  0  0  0  0  0  0  0  0  0  0  0
   14.2443    2.4120    0.0000 H   0  0  0  0  0  0  0  0  0  0  0  0
   13.6771    5.1037    0.0000 H   0  0  0  0  0  0  0  0  0  0  0  0
   12.9578    4.6901    0.0000 H   0  0  0  0  0  0  0  0  0  0  0  0
   10.6450    5.4460    0.0000 H   0  0  0  0  0  0  0  0  0  0  0  0
   10.3089    6.2045    0.0000 H   0  0  0  0  0  0  0  0  0  0  0  0
    8.2614    4.3674    0.0000 H   0  0  0  0  0  0  0  0  0  0  0  0
    8.9792    3.9513    0.0000 H   0  0  0  0  0  0  0  0  0  0  0  0
   14.9989    2.8459    0.0000 H   0  0  0  0  0  0  0  0  0  0  0  0
   15.1582    4.4550    0.0000 H   0  0  0  0  0  0  0  0  0  0  0  0
   14.5425    5.0112    0.0000 H   0  0  0  0  0  0  0  0  0  0  0  0
   15.3377    3.6033    0.0000 H   0  0  0  0  0  0  0  0  0  0  0  0
    9.5558    6.6410    0.0000 H   0  0  0  0  0  0  0  0  0  0  0  0
    8.7305    6.5557    0.0000 H   0  0  0  0  0  0  0  0  0  0  0  0
    8.0827    5.9744    0.0000 H   0  0  0  0  0  0  0  0  0  0  0  0
    7.9088    5.1632    0.0000 H   0  0  0  0  0  0  0  0  0  0  0  0
  1 22  2  0  0  0  0
  2 29  2  0  0  0  0
  3 26  1  0  0  0  0
  3 30  1  0  0  0  0
  3 31  1  0  0  0  0
  4 32  1  0  0  0  0
  4 33  1  0  0  0  0
  4 34  1  0  0  0  0
  5 34  2  0  0  0  0
  5 37  1  0  0  0  0
  6 36  1  0  0  0  0
  6 38  1  0  0  0  0
  6 39  1  0  0  0  0
  7 37  1  0  0  0  0
  7 40  1  0  0  0  0
  7 41  1  0  0  0  0
  8 36  1  0  0  0  0
  8 37  2  0  0  0  0
  9 10  1  0  0  0  0
  9 12  1  0  0  0  0
  9 15  1  0  0  0  0
  9 18  1  0  0  0  0
 10 11  1  0  0  0  0
 10 13  1  0  0  0  0
 10 46  1  0  0  0  0
 11 16  1  0  0  0  0
 11 17  1  0  0  0  0
 11 47  1  0  0  0  0
 12 14  1  0  0  0  0
 12 22  1  0  0  0  0
 12 48  1  0  0  0  0
 13 14  1  0  0  0  0
 13 49  1  0  0  0  0
 13 50  1  0  0  0  0
 14 51  1  0  0  0  0
 14 52  1  0  0  0  0
 15 20  1  0  0  0  0
 15 53  1  0  0  0  0
 15 54  1  0  0  0  0
 16 19  1  0  0  0  0
 16 20  2  0  0  0  0
 17 21  1  0  0  0  0
 17 55  1  0  0  0  0
 17 56  1  0  0  0  0
 18 57  1  0  0  0  0
 18 58  1  0  0  0  0
 18 59  1  0  0  0  0
 19 23  1  0  0  0  0
 19 24  1  0  0  0  0
 19 25  1  0  0  0  0
 20 60  1  0  0  0  0
 21 23  1  0  0  0  0
 21 61  1  0  0  0  0
 21 62  1  0  0  0  0
 22 26  1  0  0  0  0
 23 27  2  0  0  0  0
 24 63  1  0  0  0  0
 24 64  1  0  0  0  0
 24 65  1  0  0  0  0
 25 28  2  0  0  0  0
 25 66  1  0  0  0  0
 26 67  1  0  0  0  0
 26 68  1  0  0  0  0
 27 29  1  0  0  0  0
 27 69  1  0  0  0  0
 28 29  1  0  0  0  0
 28 70  1  0  0  0  0
 30 33  1  0  0  0  0
 30 71  1  0  0  0  0
 30 72  1  0  0  0  0
 31 32  1  0  0  0  0
 31 73  1  0  0  0  0
 31 74  1  0  0  0  0
 32 76  1  0  0  0  0
 32 77  1  0  0  0  0
 33 75  1  0  0  0  0
 33 78  1  0  0  0  0
 34 35  1  0  0  0  0
 35 36  2  0  0  0  0
 35 79  1  0  0  0  0
 38 42  1  0  0  0  0
 38 80  1  0  0  0  0
 38 81  1  0  0  0  0
 39 43  1  0  0  0  0
 39 82  1  0  0  0  0
 39 83  1  0  0  0  0
 40 45  1  0  0  0  0
 40 84  1  0  0  0  0
 40 85  1  0  0  0  0
 41 44  1  0  0  0  0
 41 86  1  0  0  0  0
 41 87  1  0  0  0  0
 42 43  1  0  0  0  0
 42 88  1  0  0  0  0
 42 91  1  0  0  0  0
 43 89  1  0  0  0  0
 43 90  1  0  0  0  0
 44 45  1  0  0  0  0
 44 94  1  0  0  0  0
 44 95  1  0  0  0  0
 45 92  1  0  0  0  0
 45 93  1  0  0  0  0
M  END
> <PUBCHEM_COMPOUND_CID>
5622

> <PUBCHEM_COMPOUND_CANONICALIZED>
1

> <PUBCHEM_CACTVS_COMPLEXITY>
1260

> <PUBCHEM_CACTVS_HBOND_ACCEPTOR>
8

> <PUBCHEM_CACTVS_HBOND_DONOR>
0

> <PUBCHEM_CACTVS_ROTATABLE_BOND>
6

> <PUBCHEM_CACTVS_SUBSKEYS>
AAADcfB/sAAAAAAAAAAAAAAAAAAAAeLEAAA8WIECAAAAAECBgAAAHgAAAAAADwTBkgQzsJcIEACoAqJyZACAgCkhAqAJGCG4ZFiASBJAyWAUBAgIgALIAaMYiMCPgAAAAAAAAAAAAAQAAAAAAQAACAAAAA==

> <PUBCHEM_IUPAC_OPENEYE_NAME>
17-[2-[4-(2,6-dipyrrolidin-1-ylpyrimidin-4-yl)piperazin-1-yl]acetyl]-10,13-dimethyl-6,7,8,12,14,15,16,17-octahydrocyclopenta[a]phenanthren-3-one

> <PUBCHEM_IUPAC_CAS_NAME>
17-[2-[4-[2,6-bis(1-pyrrolidinyl)-4-pyrimidinyl]-1-piperazinyl]-1-oxoethyl]-10,13-dimethyl-6,7,8,12,14,15,16,17-octahydrocyclopenta[a]phenanthren-3-one

> <PUBCHEM_IUPAC_NAME>
17-[2-[4-(2,6-dipyrrolidin-1-ylpyrimidin-4-yl)piperazin-1-yl]acetyl]-10,13-dimethyl-6,7,8,12,14,15,16,17-octahydrocyclopenta[a]phenanthren-3-one

> <PUBCHEM_IUPAC_SYSTEMATIC_NAME>
17-[2-[4-(2,6-dipyrrolidin-1-ylpyrimidin-4-yl)piperazin-1-yl]ethanoyl]-10,13-dimethyl-6,7,8,12,14,15,16,17-octahydrocyclopenta[a]phenanthren-3-one

> <PUBCHEM_IUPAC_TRADITIONAL_NAME>
17-[2-[4-(2,6-dipyrrolidinopyrimidin-4-yl)piperazino]acetyl]-10,13-dimethyl-6,7,8,12,14,15,16,17-octahydrocyclopenta[a]phenanthren-3-one

> <PUBCHEM_IUPAC_INCHI>
InChI=1S/C37H50N6O2/c1-36-13-11-27(44)23-26(36)7-8-28-29-9-10-31(37(29,2)14-12-30(28)36)32(45)25-40-19-21-42(22-20-40)34-24-33(41-15-3-4-16-41)38-35(39-34)43-17-5-6-18-43/h11-13,23-24,28-29,31H,3-10,14-22,25H2,1-2H3

> <PUBCHEM_IUPAC_INCHIKEY>
LBGLGTAQLROFTM-UHFFFAOYSA-N

> <PUBCHEM_XLOGP3_AA>
5.5

> <PUBCHEM_EXACT_MASS>
610.399525

> <PUBCHEM_MOLECULAR_FORMULA>
C37H50N6O2

> <PUBCHEM_MOLECULAR_WEIGHT>
610.8319

> <PUBCHEM_OPENEYE_CAN_SMILES>
CC12CC=C3C(C1CCC2C(=O)CN4CCN(CC4)C5=NC(=NC(=C5)N6CCCC6)N7CCCC7)CCC8=CC(=O)C=CC83C

> <PUBCHEM_OPENEYE_ISO_SMILES>
CC12CC=C3C(C1CCC2C(=O)CN4CCN(CC4)C5=NC(=NC(=C5)N6CCCC6)N7CCCC7)CCC8=CC(=O)C=CC83C

> <PUBCHEM_CACTVS_TPSA>
72.9

> <PUBCHEM_MONOISOTOPIC_WEIGHT>
610.399525

> <PUBCHEM_TOTAL_CHARGE>
0

> <PUBCHEM_HEAVY_ATOM_COUNT>
45

> <PUBCHEM_ATOM_DEF_STEREO_COUNT>
0

> <PUBCHEM_ATOM_UDEF_STEREO_COUNT>
5

> <PUBCHEM_BOND_DEF_STEREO_COUNT>
0

> <PUBCHEM_BOND_UDEF_STEREO_COUNT>
0

> <PUBCHEM_ISOTOPIC_ATOM_COUNT>
0

> <PUBCHEM_COMPONENT_COUNT>
1

> <PUBCHEM_CACTVS_TAUTO_COUNT>
9

> <PUBCHEM_COORDINATE_TYPE>
1
5
255

> <PUBCHEM_BONDANNOTATIONS>
10  13  3
11  17  3
12  22  3
19  24  3
34  35  8
35  36  8
5  34  8
5  37  8
8  36  8
8  37  8
9  18  3

$$$$

