   Boiling Point
        6.1 deg C
   from [1]HSDB

   Melting Point
        -105.3 deg C
   from [2]HSDB

   Density/Specific Gravity
        1.389 g/cu cm @ 0 deg C
   from [3]HSDB

   Solubilities
        In water, 9,200 mg/l @ 25 deg C
   from [4]HSDB

   Spectral Properties
        Index of refraction= 1.3092 @ 0 deg C
   from [5]HSDB

   Other Chemical/Physical Properties
        Hydroxyl radical reaction rate constant= 1.62X10-14 cu
   cm/molecule-sec @ 25 deg C
   from [6]HSDB

   Computed Properties
   Molecular Weight                  118.48549 [g/mol]
   Molecular Formula                 C[2]H[2]ClF[3]
   XLogP3-AA                         1.9
   H-Bond Donor                      0
   H-Bond Acceptor                   3
   Rotatable Bond Count              0
   Exact Mass                        117.979712
   MonoIsotopic Mass                 117.979712
   Topological Polar Surface Area    0
   Heavy Atom Count                  6
   Formal Charge                     0
   Complexity                        38.5
   Isotope Atom Count                0
   Defined Atom Stereocenter Count   0
   Undefined Atom Stereocenter Count 0
   Defined Bond Stereocenter Count   0
   Undefined Bond Stereocenter Count 0
   Covalently-Bonded Unit Count      1
   Effective Rotor Count             1
   Conformer Sampling RMSD           0.4
   CID Conformer Count               [7]1

References

   1. http://toxnet.nlm.nih.gov/cgi-bin/sis/search/r?dbs+hsdb:@term+@rn+@rel+75-88-7
   2. http://toxnet.nlm.nih.gov/cgi-bin/sis/search/r?dbs+hsdb:@term+@rn+@rel+75-88-7
   3. http://toxnet.nlm.nih.gov/cgi-bin/sis/search/r?dbs+hsdb:@term+@rn+@rel+75-88-7
   4. http://toxnet.nlm.nih.gov/cgi-bin/sis/search/r?dbs+hsdb:@term+@rn+@rel+75-88-7
   5. http://toxnet.nlm.nih.gov/cgi-bin/sis/search/r?dbs+hsdb:@term+@rn+@rel+75-88-7
   6. http://toxnet.nlm.nih.gov/cgi-bin/sis/search/r?dbs+hsdb:@term+@rn+@rel+75-88-7
   7. http://pubchem.ncbi.nlm.nih.gov/vw3d/vw3d.cgi?cid=6408
