656644
  -OEChem-07051213032D

 56 58  0     1  0  0  0  0  0999 V2000
    8.5991   -0.9524    0.0000 S   0  0  0  0  0  0  0  0  0  0  0  0
   12.5904   -2.5822    0.0000 S   0  0  0  0  0  0  0  0  0  0  0  0
    7.7331    3.5476    0.0000 Na  0  3  0  0  0  0  0  0  0  0  0  0
   11.1791    1.2603    0.0000 O   0  0  0  0  0  0  0  0  0  0  0  0
   12.4063    0.0571    0.0000 O   0  0  0  0  0  0  0  0  0  0  0  0
    7.7331    2.5476    0.0000 O   0  5  0  0  0  0  0  0  0  0  0  0
    9.4651    2.5476    0.0000 O   0  0  0  0  0  0  0  0  0  0  0  0
   12.3296   -3.5476    0.0000 O   0  5  0  0  0  0  0  0  0  0  0  0
   13.5558   -2.8430    0.0000 O   0  0  0  0  0  0  0  0  0  0  0  0
   11.6250   -2.3214    0.0000 O   0  0  0  0  0  0  0  0  0  0  0  0
    3.4030   -1.9524    0.0000 O   0  0  0  0  0  0  0  0  0  0  0  0
    9.4651    0.5476    0.0000 N   0  0  0  0  0  0  0  0  0  0  0  0
   11.1791   -1.1651    0.0000 N   0  0  0  0  0  0  0  0  0  0  0  0
    6.0010    0.5476    0.0000 N   0  3  0  0  0  0  0  0  0  0  0  0
    2.5369   -0.4524    0.0000 N   0  0  0  0  0  0  0  0  0  0  0  0
    9.4651   -0.4524    0.0000 C   0  0  1  0  0  0  0  0  0  0  0  0
   10.4734   -0.4565    0.0000 C   0  0  1  0  0  0  0  0  0  0  0  0
   10.4734    0.5518    0.0000 C   0  0  0  0  0  0  0  0  0  0  0  0
    8.5991    1.0476    0.0000 C   0  0  0  0  0  0  0  0  0  0  0  0
    7.7331    0.5476    0.0000 C   0  0  0  0  0  0  0  0  0  0  0  0
    7.7331   -0.4524    0.0000 C   0  0  0  0  0  0  0  0  0  0  0  0
    6.8671    1.0476    0.0000 C   0  0  0  0  0  0  0  0  0  0  0  0
   12.1455   -0.9083    0.0000 C   0  0  0  0  0  0  0  0  0  0  0  0
   12.8512   -1.6168    0.0000 C   0  0  1  0  0  0  0  0  0  0  0  0
    8.5991    2.0476    0.0000 C   0  0  0  0  0  0  0  0  0  0  0  0
   13.8176   -1.3600    0.0000 C   0  0  0  0  0  0  0  0  0  0  0  0
    5.1350    1.0476    0.0000 C   0  0  0  0  0  0  0  0  0  0  0  0
    6.0010   -0.4524    0.0000 C   0  0  0  0  0  0  0  0  0  0  0  0
   14.5233   -2.0686    0.0000 C   0  0  0  0  0  0  0  0  0  0  0  0
   14.0784   -0.3946    0.0000 C   0  0  0  0  0  0  0  0  0  0  0  0
    4.2690    0.5476    0.0000 C   0  0  0  0  0  0  0  0  0  0  0  0
    5.1350   -0.9524    0.0000 C   0  0  0  0  0  0  0  0  0  0  0  0
    4.2690   -0.4524    0.0000 C   0  0  0  0  0  0  0  0  0  0  0  0
   15.4897   -1.8117    0.0000 C   0  0  0  0  0  0  0  0  0  0  0  0
   15.0449   -0.1378    0.0000 C   0  0  0  0  0  0  0  0  0  0  0  0
   15.7505   -0.8463    0.0000 C   0  0  0  0  0  0  0  0  0  0  0  0
    3.4030   -0.9524    0.0000 C   0  0  0  0  0  0  0  0  0  0  0  0
    9.6834   -1.2739    0.0000 H   0  0  0  0  0  0  0  0  0  0  0  0
   10.2344   -1.0286    0.0000 H   0  0  0  0  0  0  0  0  0  0  0  0
    7.1225   -0.3447    0.0000 H   0  0  0  0  0  0  0  0  0  0  0  0
    7.5210   -1.0350    0.0000 H   0  0  0  0  0  0  0  0  0  0  0  0
   11.0174   -1.7636    0.0000 H   0  0  0  0  0  0  0  0  0  0  0  0
    7.2656    1.5226    0.0000 H   0  0  0  0  0  0  0  0  0  0  0  0
    6.4685    1.5226    0.0000 H   0  0  0  0  0  0  0  0  0  0  0  0
   13.2887   -2.0561    0.0000 H   0  0  0  0  0  0  0  0  0  0  0  0
    5.1350    1.6676    0.0000 H   0  0  0  0  0  0  0  0  0  0  0  0
    6.5380   -0.7624    0.0000 H   0  0  0  0  0  0  0  0  0  0  0  0
   14.3616   -2.6671    0.0000 H   0  0  0  0  0  0  0  0  0  0  0  0
   13.6409    0.0447    0.0000 H   0  0  0  0  0  0  0  0  0  0  0  0
    3.7320    0.8576    0.0000 H   0  0  0  0  0  0  0  0  0  0  0  0
    5.1350   -1.5724    0.0000 H   0  0  0  0  0  0  0  0  0  0  0  0
   15.9272   -2.2510    0.0000 H   0  0  0  0  0  0  0  0  0  0  0  0
   15.2066    0.4608    0.0000 H   0  0  0  0  0  0  0  0  0  0  0  0
   16.3497   -0.6871    0.0000 H   0  0  0  0  0  0  0  0  0  0  0  0
    2.0000   -0.7624    0.0000 H   0  0  0  0  0  0  0  0  0  0  0  0
    2.5369    0.1676    0.0000 H   0  0  0  0  0  0  0  0  0  0  0  0
  1 16  1  0  0  0  0
  1 21  1  0  0  0  0
  2  8  1  0  0  0  0
  2  9  2  0  0  0  0
  2 10  2  0  0  0  0
 24  2  1  1  0  0  0
  4 18  2  0  0  0  0
  5 23  2  0  0  0  0
  6 25  1  0  0  0  0
  7 25  2  0  0  0  0
 11 37  2  0  0  0  0
 12 16  1  0  0  0  0
 12 18  1  0  0  0  0
 12 19  1  0  0  0  0
 17 13  1  1  0  0  0
 13 23  1  0  0  0  0
 13 42  1  0  0  0  0
 14 22  1  0  0  0  0
 14 27  2  0  0  0  0
 14 28  1  0  0  0  0
 15 37  1  0  0  0  0
 15 55  1  0  0  0  0
 15 56  1  0  0  0  0
 16 17  1  0  0  0  0
 16 38  1  6  0  0  0
 17 18  1  0  0  0  0
 17 39  1  0  0  0  0
 19 20  2  0  0  0  0
 19 25  1  0  0  0  0
 20 21  1  0  0  0  0
 20 22  1  0  0  0  0
 21 40  1  0  0  0  0
 21 41  1  0  0  0  0
 22 43  1  0  0  0  0
 22 44  1  0  0  0  0
 23 24  1  0  0  0  0
 24 26  1  0  0  0  0
 24 45  1  0  0  0  0
 26 29  2  0  0  0  0
 26 30  1  0  0  0  0
 27 31  1  0  0  0  0
 27 46  1  0  0  0  0
 28 32  2  0  0  0  0
 28 47  1  0  0  0  0
 29 34  1  0  0  0  0
 29 48  1  0  0  0  0
 30 35  2  0  0  0  0
 30 49  1  0  0  0  0
 31 33  2  0  0  0  0
 31 50  1  0  0  0  0
 32 33  1  0  0  0  0
 32 51  1  0  0  0  0
 33 37  1  0  0  0  0
 34 36  2  0  0  0  0
 34 52  1  0  0  0  0
 35 36  1  0  0  0  0
 35 53  1  0  0  0  0
 36 54  1  0  0  0  0
M  CHG  4   3   1   6  -1   8  -1  14   1
M  END
> <PUBCHEM_COMPOUND_CID>
656644

> <PUBCHEM_COMPOUND_CANONICALIZED>
1

> <PUBCHEM_CACTVS_COMPLEXITY>
1040

> <PUBCHEM_CACTVS_HBOND_ACCEPTOR>
9

> <PUBCHEM_CACTVS_HBOND_DONOR>
2

> <PUBCHEM_CACTVS_ROTATABLE_BOND>
6

> <PUBCHEM_CACTVS_SUBSKEYS>
AAADceB7vCBgAAAAAAAAAAAAAABYAAAAAAA8QIAAAAAQAAABwAAAHgQQAAAADCjF2gS8iJPMEAqoAjX3XHDCgCB1AjAI2KG4ZNgKZHrglbGUMQhglgD4yYcciICOAAAAAAAAAAAAAAAAAAAAAAAAAAAAAA==

> <PUBCHEM_IUPAC_OPENEYE_NAME>
sodium (6R,7R)-3-[(4-carbamoylpyridin-1-ium-1-yl)methyl]-8-oxo-7-[[(2R)-2-phenyl-2-sulfonato-acetyl]amino]-5-thia-1-azabicyclo[4.2.0]oct-2-ene-2-carboxylate

> <PUBCHEM_IUPAC_CAS_NAME>
sodium (6R,7R)-3-[(4-carbamoyl-1-pyridin-1-iumyl)methyl]-8-oxo-7-[[(2R)-1-oxo-2-phenyl-2-sulfonatoethyl]amino]-5-thia-1-azabicyclo[4.2.0]oct-2-ene-2-carboxylate

> <PUBCHEM_IUPAC_NAME>
sodium (6R,7R)-3-[(4-carbamoylpyridin-1-ium-1-yl)methyl]-8-oxo-7-[[(2R)-2-phenyl-2-sulfonatoacetyl]amino]-5-thia-1-azabicyclo[4.2.0]oct-2-ene-2-carboxylate

> <PUBCHEM_IUPAC_SYSTEMATIC_NAME>
sodium (6R,7R)-3-[(4-aminocarbonylpyridin-1-ium-1-yl)methyl]-8-oxidanylidene-7-[[(2R)-2-phenyl-2-sulfonato-ethanoyl]amino]-5-thia-1-azabicyclo[4.2.0]oct-2-ene-2-carboxylate

> <PUBCHEM_IUPAC_TRADITIONAL_NAME>
sodium (6R,7R)-3-[(4-carbamoylpyridin-1-ium-1-yl)methyl]-8-keto-7-[[(2R)-2-phenyl-2-sulfonato-acetyl]amino]-5-thia-1-azabicyclo[4.2.0]oct-2-ene-2-carboxylate

> <PUBCHEM_IUPAC_INCHI>
InChI=1S/C22H20N4O8S2.Na/c23-18(27)13-6-8-25(9-7-13)10-14-11-35-21-15(20(29)26(21)16(14)22(30)31)24-19(28)17(36(32,33)34)12-4-2-1-3-5-12;/h1-9,15,17,21H,10-11H2,(H4-,23,24,27,28,30,31,32,33,34);/q;+1/p-1/t15-,17-,21-;/m1./s1

> <PUBCHEM_IUPAC_INCHIKEY>
REACMANCWHKJSM-DWBVFMGKSA-M

> <PUBCHEM_EXACT_MASS>
554.0542

> <PUBCHEM_MOLECULAR_FORMULA>
C22H19N4NaO8S2

> <PUBCHEM_MOLECULAR_WEIGHT>
554.528029

> <PUBCHEM_OPENEYE_CAN_SMILES>
C1C(=C(N2C(S1)C(C2=O)NC(=O)C(C3=CC=CC=C3)S(=O)(=O)[O-])C(=O)[O-])C[N+]4=CC=C(C=C4)C(=O)N.[Na+]

> <PUBCHEM_OPENEYE_ISO_SMILES>
C1C(=C(N2[C@H](S1)[C@@H](C2=O)NC(=O)[C@@H](C3=CC=CC=C3)S(=O)(=O)[O-])C(=O)[O-])C[N+]4=CC=C(C=C4)C(=O)N.[Na+]

> <PUBCHEM_CACTVS_TPSA>
227

> <PUBCHEM_MONOISOTOPIC_WEIGHT>
554.0542

> <PUBCHEM_TOTAL_CHARGE>
0

> <PUBCHEM_HEAVY_ATOM_COUNT>
37

> <PUBCHEM_ATOM_DEF_STEREO_COUNT>
3

> <PUBCHEM_ATOM_UDEF_STEREO_COUNT>
0

> <PUBCHEM_BOND_DEF_STEREO_COUNT>
0

> <PUBCHEM_BOND_UDEF_STEREO_COUNT>
0

> <PUBCHEM_ISOTOPIC_ATOM_COUNT>
0

> <PUBCHEM_COMPONENT_COUNT>
2

> <PUBCHEM_CACTVS_TAUTO_COUNT>
8

> <PUBCHEM_COORDINATE_TYPE>
1
5
255

> <PUBCHEM_BONDANNOTATIONS>
17  13  5
14  27  8
14  28  8
16  38  6
24  2  5
26  29  8
26  30  8
27  31  8
28  32  8
29  34  8
30  35  8
31  33  8
32  33  8
34  36  8
35  36  8

$$$$

