5281527
  -OEChem-07051212582D

 40 41  0     1  0  0  0  0  0999 V2000
    7.1467   -2.7744    0.0000 O   0  0  0  0  0  0  0  0  0  0  0  0
    3.9234    0.3396    0.0000 O   0  0  0  0  0  0  0  0  0  0  0  0
    2.0000   -3.3520    0.0000 O   0  0  0  0  0  0  0  0  0  0  0  0
    8.5956    2.5544    0.0000 O   0  0  0  0  0  0  0  0  0  0  0  0
    7.5776    1.1531    0.0000 O   0  0  0  0  0  0  0  0  0  0  0  0
    5.5736   -1.0497    0.0000 C   0  0  1  0  0  0  0  0  0  0  0  0
    4.8369   -0.0671    0.0000 C   0  0  1  0  0  0  0  0  0  0  0  0
    5.3147   -2.0156    0.0000 C   0  0  1  0  0  0  0  0  0  0  0  0
    7.4055   -1.8085    0.0000 C   0  0  0  0  0  0  0  0  0  0  0  0
    2.9705   -1.8575    0.0000 C   0  0  0  0  0  0  0  0  0  0  0  0
    3.7796   -3.2588    0.0000 C   0  0  0  0  0  0  0  0  0  0  0  0
    5.8324   -0.0838    0.0000 C   0  0  0  0  0  0  0  0  0  0  0  0
    2.8660   -2.8520    0.0000 C   0  0  0  0  0  0  0  0  0  0  0  0
    5.0559   -2.9816    0.0000 C   0  0  0  0  0  0  0  0  0  0  0  0
    4.9415    0.9274    0.0000 C   0  0  0  0  0  0  0  0  0  0  0  0
    5.8550    1.3342    0.0000 C   0  0  0  0  0  0  0  0  0  0  0  0
    5.9595    2.3287    0.0000 C   0  0  0  0  0  0  0  0  0  0  0  0
    5.1505    2.9165    0.0000 C   0  0  0  0  0  0  0  0  0  0  0  0
    6.8731    2.7354    0.0000 C   0  0  0  0  0  0  0  0  0  0  0  0
    7.6821    2.1476    0.0000 C   0  0  0  0  0  0  0  0  0  0  0  0
    7.9968   -1.9950    0.0000 H   0  0  0  0  0  0  0  0  0  0  0  0
    7.6176   -1.2259    0.0000 H   0  0  0  0  0  0  0  0  0  0  0  0
    2.8683   -1.2460    0.0000 H   0  0  0  0  0  0  0  0  0  0  0  0
    2.3508   -1.8764    0.0000 H   0  0  0  0  0  0  0  0  0  0  0  0
    3.4419   -3.7788    0.0000 H   0  0  0  0  0  0  0  0  0  0  0  0
    4.2403   -3.6736    0.0000 H   0  0  0  0  0  0  0  0  0  0  0  0
    6.4312   -0.2442    0.0000 H   0  0  0  0  0  0  0  0  0  0  0  0
    5.9928    0.5151    0.0000 H   0  0  0  0  0  0  0  0  0  0  0  0
    5.2335    0.0767    0.0000 H   0  0  0  0  0  0  0  0  0  0  0  0
    4.4570   -2.8211    0.0000 H   0  0  0  0  0  0  0  0  0  0  0  0
    4.8954   -3.5804    0.0000 H   0  0  0  0  0  0  0  0  0  0  0  0
    5.6548   -3.1420    0.0000 H   0  0  0  0  0  0  0  0  0  0  0  0
    4.4399    1.2919    0.0000 H   0  0  0  0  0  0  0  0  0  0  0  0
    3.4218   -0.0248    0.0000 H   0  0  0  0  0  0  0  0  0  0  0  0
    6.3566    0.9697    0.0000 H   0  0  0  0  0  0  0  0  0  0  0  0
    5.5149    3.4181    0.0000 H   0  0  0  0  0  0  0  0  0  0  0  0
    4.6489    3.2809    0.0000 H   0  0  0  0  0  0  0  0  0  0  0  0
    4.7861    2.4149    0.0000 H   0  0  0  0  0  0  0  0  0  0  0  0
    6.9379    3.3520    0.0000 H   0  0  0  0  0  0  0  0  0  0  0  0
    9.0972    2.1900    0.0000 H   0  0  0  0  0  0  0  0  0  0  0  0
  1  8  1  0  0  0  0
  1  9  1  0  0  0  0
  7  2  1  1  0  0  0
  2 34  1  0  0  0  0
  3 13  2  0  0  0  0
  4 20  1  0  0  0  0
  4 40  1  0  0  0  0
  5 20  2  0  0  0  0
  6  7  1  0  0  0  0
  6  9  1  0  0  0  0
  6 10  1  0  0  0  0
  6 12  1  6  0  0  0
  7  8  1  0  0  0  0
  7 15  1  0  0  0  0
  8 11  1  0  0  0  0
  8 14  1  1  0  0  0
  9 21  1  0  0  0  0
  9 22  1  0  0  0  0
 10 13  1  0  0  0  0
 10 23  1  0  0  0  0
 10 24  1  0  0  0  0
 11 13  1  0  0  0  0
 11 25  1  0  0  0  0
 11 26  1  0  0  0  0
 12 27  1  0  0  0  0
 12 28  1  0  0  0  0
 12 29  1  0  0  0  0
 14 30  1  0  0  0  0
 14 31  1  0  0  0  0
 14 32  1  0  0  0  0
 15 16  2  0  0  0  0
 15 33  1  0  0  0  0
 16 17  1  0  0  0  0
 16 35  1  0  0  0  0
 17 18  1  0  0  0  0
 17 19  2  0  0  0  0
 18 36  1  0  0  0  0
 18 37  1  0  0  0  0
 18 38  1  0  0  0  0
 19 20  1  0  0  0  0
 19 39  1  0  0  0  0
M  END
> <PUBCHEM_COMPOUND_CID>
5281527

> <PUBCHEM_COMPOUND_CANONICALIZED>
1

> <PUBCHEM_CACTVS_COMPLEXITY>
520

> <PUBCHEM_CACTVS_HBOND_ACCEPTOR>
5

> <PUBCHEM_CACTVS_HBOND_DONOR>
2

> <PUBCHEM_CACTVS_ROTATABLE_BOND>
3

> <PUBCHEM_CACTVS_SUBSKEYS>
AAADceBwOAAAAAAAAAAAAAAAAAAAASAAAAAwAAAABIAAAAAAAAAAGgAACAAADkSggAICCAAABgCIAqDSCAAAAAAgAAAICAEAAEgJBBYAAQACUAAF4AALkQOKzPBPgAAAAAAAAAAAAAYAADCAAAAAAAAAAA==

> <PUBCHEM_IUPAC_OPENEYE_NAME>
(2Z,4E)-5-[(1R,5R,8S)-8-hydroxy-1,5-dimethyl-3-oxo-6-oxabicyclo[3.2.1]octan-8-yl]-3-methyl-penta-2,4-dienoic acid

> <PUBCHEM_IUPAC_CAS_NAME>
(2Z,4E)-5-[(1R,5R,8S)-8-hydroxy-1,5-dimethyl-3-oxo-6-oxabicyclo[3.2.1]octan-8-yl]-3-methylpenta-2,4-dienoic acid

> <PUBCHEM_IUPAC_NAME>
(2Z,4E)-5-[(1R,5R,8S)-8-hydroxy-1,5-dimethyl-3-oxo-6-oxabicyclo[3.2.1]octan-8-yl]-3-methylpenta-2,4-dienoic acid

> <PUBCHEM_IUPAC_SYSTEMATIC_NAME>
(2Z,4E)-5-[(1R,5R,8S)-1,5-dimethyl-8-oxidanyl-3-oxidanylidene-6-oxabicyclo[3.2.1]octan-8-yl]-3-methyl-penta-2,4-dienoic acid

> <PUBCHEM_IUPAC_TRADITIONAL_NAME>
(2Z,4E)-5-[(1R,5R,8S)-8-hydroxy-3-keto-1,5-dimethyl-6-oxabicyclo[3.2.1]octan-8-yl]-3-methyl-penta-2,4-dienoic acid

> <PUBCHEM_IUPAC_INCHI>
InChI=1S/C15H20O5/c1-10(6-12(17)18)4-5-15(19)13(2)7-11(16)8-14(15,3)20-9-13/h4-6,19H,7-9H2,1-3H3,(H,17,18)/b5-4+,10-6-/t13-,14-,15+/m1/s1

> <PUBCHEM_IUPAC_INCHIKEY>
IZGYIFFQBZWOLJ-UUZREKTLSA-N

> <PUBCHEM_XLOGP3_AA>
0.5

> <PUBCHEM_EXACT_MASS>
280.131074

> <PUBCHEM_MOLECULAR_FORMULA>
C15H20O5

> <PUBCHEM_MOLECULAR_WEIGHT>
280.3163

> <PUBCHEM_OPENEYE_CAN_SMILES>
CC(=CC(=O)O)C=CC1(C2(CC(=O)CC1(OC2)C)C)O

> <PUBCHEM_OPENEYE_ISO_SMILES>
C/C(=C/C(=O)O)/C=C/[C@@]1([C@@]2(CC(=O)C[C@]1(OC2)C)C)O

> <PUBCHEM_CACTVS_TPSA>
83.8

> <PUBCHEM_MONOISOTOPIC_WEIGHT>
280.131074

> <PUBCHEM_TOTAL_CHARGE>
0

> <PUBCHEM_HEAVY_ATOM_COUNT>
20

> <PUBCHEM_ATOM_DEF_STEREO_COUNT>
3

> <PUBCHEM_ATOM_UDEF_STEREO_COUNT>
0

> <PUBCHEM_BOND_DEF_STEREO_COUNT>
2

> <PUBCHEM_BOND_UDEF_STEREO_COUNT>
0

> <PUBCHEM_ISOTOPIC_ATOM_COUNT>
0

> <PUBCHEM_COMPONENT_COUNT>
1

> <PUBCHEM_CACTVS_TAUTO_COUNT>
3

> <PUBCHEM_COORDINATE_TYPE>
1
5
255

> <PUBCHEM_BONDANNOTATIONS>
7  2  5
6  12  6
8  14  5

$$$$

