440742
  -OEChem-07051212502D

 25 26  0     0  0  0  0  0  0999 V2000
    2.5369   -0.1567    0.0000 O   0  0  0  0  0  0  0  0  0  0  0  0
    8.0382    0.0604    0.0000 O   0  0  0  0  0  0  0  0  0  0  0  0
    8.6596    1.9615    0.0000 O   0  0  0  0  0  0  0  0  0  0  0  0
    7.0132    2.4996    0.0000 O   0  0  0  0  0  0  0  0  0  0  0  0
    6.0812   -1.9615    0.0000 N   0  0  0  0  0  0  0  0  0  0  0  0
    5.1350   -0.6567    0.0000 C   0  0  0  0  0  0  0  0  0  0  0  0
    6.0812   -0.3520    0.0000 C   0  0  0  0  0  0  0  0  0  0  0  0
    5.1350   -1.6567    0.0000 C   0  0  0  0  0  0  0  0  0  0  0  0
    6.3919    0.5985    0.0000 C   0  0  0  0  0  0  0  0  0  0  0  0
    6.6648   -1.1567    0.0000 C   0  0  0  0  0  0  0  0  0  0  0  0
    4.2690   -0.1567    0.0000 C   0  0  0  0  0  0  0  0  0  0  0  0
    4.2690   -2.1567    0.0000 C   0  0  0  0  0  0  0  0  0  0  0  0
    3.4030   -0.6567    0.0000 C   0  0  0  0  0  0  0  0  0  0  0  0
    3.4030   -1.6567    0.0000 C   0  0  0  0  0  0  0  0  0  0  0  0
    7.3704    0.8047    0.0000 C   0  0  0  0  0  0  0  0  0  0  0  0
    7.6811    1.7552    0.0000 C   0  0  0  0  0  0  0  0  0  0  0  0
    6.3713    1.2182    0.0000 H   0  0  0  0  0  0  0  0  0  0  0  0
    5.7781    0.6859    0.0000 H   0  0  0  0  0  0  0  0  0  0  0  0
    7.2848   -1.1567    0.0000 H   0  0  0  0  0  0  0  0  0  0  0  0
    6.2738   -2.5508    0.0000 H   0  0  0  0  0  0  0  0  0  0  0  0
    4.2690    0.4633    0.0000 H   0  0  0  0  0  0  0  0  0  0  0  0
    4.2690   -2.7767    0.0000 H   0  0  0  0  0  0  0  0  0  0  0  0
    2.8660   -1.9667    0.0000 H   0  0  0  0  0  0  0  0  0  0  0  0
    2.0000   -0.4667    0.0000 H   0  0  0  0  0  0  0  0  0  0  0  0
    8.8522    2.5508    0.0000 H   0  0  0  0  0  0  0  0  0  0  0  0
  1 13  1  0  0  0  0
  1 24  1  0  0  0  0
  2 15  2  0  0  0  0
  3 16  1  0  0  0  0
  3 25  1  0  0  0  0
  4 16  2  0  0  0  0
  5  8  1  0  0  0  0
  5 10  1  0  0  0  0
  5 20  1  0  0  0  0
  6  7  1  0  0  0  0
  6  8  2  0  0  0  0
  6 11  1  0  0  0  0
  7  9  1  0  0  0  0
  7 10  2  0  0  0  0
  8 12  1  0  0  0  0
  9 15  1  0  0  0  0
  9 17  1  0  0  0  0
  9 18  1  0  0  0  0
 10 19  1  0  0  0  0
 11 13  2  0  0  0  0
 11 21  1  0  0  0  0
 12 14  2  0  0  0  0
 12 22  1  0  0  0  0
 13 14  1  0  0  0  0
 14 23  1  0  0  0  0
 15 16  1  0  0  0  0
M  END
> <PUBCHEM_COMPOUND_CID>
440742

> <PUBCHEM_COMPOUND_CANONICALIZED>
1

> <PUBCHEM_CACTVS_COMPLEXITY>
304

> <PUBCHEM_CACTVS_HBOND_ACCEPTOR>
4

> <PUBCHEM_CACTVS_HBOND_DONOR>
3

> <PUBCHEM_CACTVS_ROTATABLE_BOND>
3

> <PUBCHEM_CACTVS_SUBSKEYS>
AAADccByOAAAAAAAAAAAAAAAAAAAAWAAAAAwAAAAAAAAAFgB8AAAHgAQCAAADAzBngQ8zvLJkgCoA7T3TAKCgCAxIiAI2aF+bJgIJvLClZOEcAhk0BHI2Ae82fKegEABAAACAAAAgAIAAAQAAAAAAAAAAA==

> <PUBCHEM_IUPAC_OPENEYE_NAME>
3-(5-hydroxy-1H-indol-3-yl)-2-oxo-propanoic acid

> <PUBCHEM_IUPAC_CAS_NAME>
3-(5-hydroxy-1H-indol-3-yl)-2-oxopropanoic acid

> <PUBCHEM_IUPAC_NAME>
3-(5-hydroxy-1H-indol-3-yl)-2-oxopropanoic acid

> <PUBCHEM_IUPAC_SYSTEMATIC_NAME>
2-oxidanylidene-3-(5-oxidanyl-1H-indol-3-yl)propanoic acid

> <PUBCHEM_IUPAC_TRADITIONAL_NAME>
3-(5-hydroxy-1H-indol-3-yl)-2-keto-propionic acid

> <PUBCHEM_IUPAC_INCHI>
InChI=1S/C11H9NO4/c13-7-1-2-9-8(4-7)6(5-12-9)3-10(14)11(15)16/h1-2,4-5,12-13H,3H2,(H,15,16)

> <PUBCHEM_IUPAC_INCHIKEY>
HKNXPMPZYQXTDD-UHFFFAOYSA-N

> <PUBCHEM_XLOGP3>
0.2

> <PUBCHEM_EXACT_MASS>
219.053158

> <PUBCHEM_MOLECULAR_FORMULA>
C11H9NO4

> <PUBCHEM_MOLECULAR_WEIGHT>
219.19346

> <PUBCHEM_OPENEYE_CAN_SMILES>
C1=CC2=C(C=C1O)C(=CN2)CC(=O)C(=O)O

> <PUBCHEM_OPENEYE_ISO_SMILES>
C1=CC2=C(C=C1O)C(=CN2)CC(=O)C(=O)O

> <PUBCHEM_CACTVS_TPSA>
90.4

> <PUBCHEM_MONOISOTOPIC_WEIGHT>
219.053158

> <PUBCHEM_TOTAL_CHARGE>
0

> <PUBCHEM_HEAVY_ATOM_COUNT>
16

> <PUBCHEM_ATOM_DEF_STEREO_COUNT>
0

> <PUBCHEM_ATOM_UDEF_STEREO_COUNT>
0

> <PUBCHEM_BOND_DEF_STEREO_COUNT>
0

> <PUBCHEM_BOND_UDEF_STEREO_COUNT>
0

> <PUBCHEM_ISOTOPIC_ATOM_COUNT>
0

> <PUBCHEM_COMPONENT_COUNT>
1

> <PUBCHEM_CACTVS_TAUTO_COUNT>
33

> <PUBCHEM_COORDINATE_TYPE>
1
5
255

> <PUBCHEM_BONDANNOTATIONS>
11  13  8
12  14  8
13  14  8
5  10  8
5  8  8
6  11  8
6  7  8
6  8  8
7  10  8
8  12  8

$$$$

