9693
  -OEChem-06261203572D

 44 42  0     1  0  0  0  0  0999 V2000
    5.5259    0.0000    0.0000 Cl  0  5  0  0  0  0  0  0  0  0  0  0
    5.3429    6.1200    0.0000 O   0  0  0  0  0  0  0  0  0  0  0  0
    0.5369    4.5115    0.0000 O   0  0  0  0  0  0  0  0  0  0  0  0
    7.0749    8.1200    0.0000 N   0  3  0  0  0  0  0  0  0  0  0  0
    6.2089    7.6200    0.0000 C   0  0  0  0  0  0  0  0  0  0  0  0
    6.2089    6.6200    0.0000 C   0  0  3  0  0  0  0  0  0  0  0  0
    7.9409    8.6200    0.0000 C   0  0  0  0  0  0  0  0  0  0  0  0
    6.5749    8.9860    0.0000 C   0  0  0  0  0  0  0  0  0  0  0  0
    7.5749    7.2540    0.0000 C   0  0  0  0  0  0  0  0  0  0  0  0
    7.0749    6.1200    0.0000 C   0  0  0  0  0  0  0  0  0  0  0  0
    5.3429    5.1200    0.0000 C   0  0  0  0  0  0  0  0  0  0  0  0
    4.4768    4.6200    0.0000 C   0  0  0  0  0  0  0  0  0  0  0  0
    6.2089    4.6200    0.0000 C   0  0  0  0  0  0  0  0  0  0  0  0
    4.4768    3.6200    0.0000 C   0  0  0  0  0  0  0  0  0  0  0  0
    6.2089    3.6200    0.0000 C   0  0  0  0  0  0  0  0  0  0  0  0
    3.6108    5.1200    0.0000 C   0  0  0  0  0  0  0  0  0  0  0  0
    7.0749    5.1200    0.0000 C   0  0  0  0  0  0  0  0  0  0  0  0
    5.3429    3.1200    0.0000 C   0  0  0  0  0  0  0  0  0  0  0  0
    5.9968    8.2026    0.0000 H   0  0  0  0  0  0  0  0  0  0  0  0
    5.5983    7.5123    0.0000 H   0  0  0  0  0  0  0  0  0  0  0  0
    6.2089    5.7700    0.0000 H   0  0  0  0  0  0  0  0  0  0  0  0
    8.2509    8.0831    0.0000 H   0  0  0  0  0  0  0  0  0  0  0  0
    8.4779    8.9300    0.0000 H   0  0  0  0  0  0  0  0  0  0  0  0
    7.6309    9.1569    0.0000 H   0  0  0  0  0  0  0  0  0  0  0  0
    7.1118    9.2960    0.0000 H   0  0  0  0  0  0  0  0  0  0  0  0
    6.2649    9.5230    0.0000 H   0  0  0  0  0  0  0  0  0  0  0  0
    6.0380    8.6760    0.0000 H   0  0  0  0  0  0  0  0  0  0  0  0
    7.0380    6.9440    0.0000 H   0  0  0  0  0  0  0  0  0  0  0  0
    7.8849    6.7170    0.0000 H   0  0  0  0  0  0  0  0  0  0  0  0
    8.1118    7.5640    0.0000 H   0  0  0  0  0  0  0  0  0  0  0  0
    6.7649    5.5831    0.0000 H   0  0  0  0  0  0  0  0  0  0  0  0
    7.6118    5.8100    0.0000 H   0  0  0  0  0  0  0  0  0  0  0  0
    7.3849    6.6569    0.0000 H   0  0  0  0  0  0  0  0  0  0  0  0
    3.9399    3.3100    0.0000 H   0  0  0  0  0  0  0  0  0  0  0  0
    6.7458    3.3100    0.0000 H   0  0  0  0  0  0  0  0  0  0  0  0
    3.9208    5.6569    0.0000 H   0  0  0  0  0  0  0  0  0  0  0  0
    3.0739    5.4300    0.0000 H   0  0  0  0  0  0  0  0  0  0  0  0
    3.3008    4.5831    0.0000 H   0  0  0  0  0  0  0  0  0  0  0  0
    7.3849    4.5831    0.0000 H   0  0  0  0  0  0  0  0  0  0  0  0
    7.6118    5.4300    0.0000 H   0  0  0  0  0  0  0  0  0  0  0  0
    6.7649    5.6569    0.0000 H   0  0  0  0  0  0  0  0  0  0  0  0
    5.3429    2.5000    0.0000 H   0  0  0  0  0  0  0  0  0  0  0  0
    1.0739    4.8215    0.0000 H   0  0  0  0  0  0  0  0  0  0  0  0
    0.0000    4.8215    0.0000 H   0  0  0  0  0  0  0  0  0  0  0  0
  2  6  1  0  0  0  0
  2 11  1  0  0  0  0
  3 43  1  0  0  0  0
  3 44  1  0  0  0  0
  4  5  1  0  0  0  0
  4  7  1  0  0  0  0
  4  8  1  0  0  0  0
  4  9  1  0  0  0  0
  5  6  1  0  0  0  0
  5 19  1  0  0  0  0
  5 20  1  0  0  0  0
  6 10  1  0  0  0  0
  6 21  1  0  0  0  0
  7 22  1  0  0  0  0
  7 23  1  0  0  0  0
  7 24  1  0  0  0  0
  8 25  1  0  0  0  0
  8 26  1  0  0  0  0
  8 27  1  0  0  0  0
  9 28  1  0  0  0  0
  9 29  1  0  0  0  0
  9 30  1  0  0  0  0
 10 31  1  0  0  0  0
 10 32  1  0  0  0  0
 10 33  1  0  0  0  0
 11 12  2  0  0  0  0
 11 13  1  0  0  0  0
 12 14  1  0  0  0  0
 12 16  1  0  0  0  0
 13 15  2  0  0  0  0
 13 17  1  0  0  0  0
 14 18  2  0  0  0  0
 14 34  1  0  0  0  0
 15 18  1  0  0  0  0
 15 35  1  0  0  0  0
 16 36  1  0  0  0  0
 16 37  1  0  0  0  0
 16 38  1  0  0  0  0
 17 39  1  0  0  0  0
 17 40  1  0  0  0  0
 17 41  1  0  0  0  0
 18 42  1  0  0  0  0
M  CHG  2   1  -1   4   1
M  END
> <PUBCHEM_COMPOUND_CID>
9693

> <PUBCHEM_COMPOUND_CANONICALIZED>
1

> <PUBCHEM_CACTVS_COMPLEXITY>
199

> <PUBCHEM_CACTVS_HBOND_ACCEPTOR>
3

> <PUBCHEM_CACTVS_HBOND_DONOR>
1

> <PUBCHEM_CACTVS_ROTATABLE_BOND>
4

> <PUBCHEM_CACTVS_SUBSKEYS>
AAADceByMAAEAAAAAAAAAAAAAAAAAAAAAAAwAAAAAAAAAAABAAAAHgAACAAADBThmAYyBoMABACAAiBCAAACCAAgIAAIiAAMCIgOJiKEMRqHOCCkwBEYqAeAwGAOAAACAAAIAAAAAAQAABAAAAAAAAAAAA==

> <PUBCHEM_IUPAC_OPENEYE_NAME>
2-(2,6-dimethylphenoxy)propyl-trimethyl-ammonium chloride hydrate

> <PUBCHEM_IUPAC_CAS_NAME>
2-(2,6-dimethylphenoxy)propyl-trimethylammonium chloride hydrate

> <PUBCHEM_IUPAC_NAME>
2-(2,6-dimethylphenoxy)propyl-trimethylazanium chloride hydrate

> <PUBCHEM_IUPAC_SYSTEMATIC_NAME>
2-(2,6-dimethylphenoxy)propyl-trimethyl-azanium chloride hydrate

> <PUBCHEM_IUPAC_TRADITIONAL_NAME>
2-(2,6-dimethylphenoxy)propyl-trimethyl-ammonium chloride hydrate

> <PUBCHEM_IUPAC_INCHI>
InChI=1S/C14H24NO.ClH.H2O/c1-11-8-7-9-12(2)14(11)16-13(3)10-15(4,5)6;;/h7-9,13H,10H2,1-6H3;1H;1H2/q+1;;/p-1

> <PUBCHEM_IUPAC_INCHIKEY>
SVXVIKZOYQPPAH-UHFFFAOYSA-M

> <PUBCHEM_EXACT_MASS>
275.165207

> <PUBCHEM_MOLECULAR_FORMULA>
C14H26ClNO2

> <PUBCHEM_MOLECULAR_WEIGHT>
275.81474

> <PUBCHEM_OPENEYE_CAN_SMILES>
CC1=C(C(=CC=C1)C)OC(C)C[N+](C)(C)C.O.[Cl-]

> <PUBCHEM_OPENEYE_ISO_SMILES>
CC1=C(C(=CC=C1)C)OC(C)C[N+](C)(C)C.O.[Cl-]

> <PUBCHEM_CACTVS_TPSA>
10.2

> <PUBCHEM_MONOISOTOPIC_WEIGHT>
275.165207

> <PUBCHEM_TOTAL_CHARGE>
0

> <PUBCHEM_HEAVY_ATOM_COUNT>
18

> <PUBCHEM_ATOM_DEF_STEREO_COUNT>
0

> <PUBCHEM_ATOM_UDEF_STEREO_COUNT>
1

> <PUBCHEM_BOND_DEF_STEREO_COUNT>
0

> <PUBCHEM_BOND_UDEF_STEREO_COUNT>
0

> <PUBCHEM_ISOTOPIC_ATOM_COUNT>
0

> <PUBCHEM_COMPONENT_COUNT>
3

> <PUBCHEM_CACTVS_TAUTO_COUNT>
1

> <PUBCHEM_COORDINATE_TYPE>
1
5
255

> <PUBCHEM_BONDANNOTATIONS>
11  12  8
11  13  8
12  14  8
13  15  8
14  18  8
15  18  8
6  21  3

$$$$

