   Color/Form
        Colorless to tan, oily liquid
   from [1]HSDB

   Boiling Point
        214 deg C @ 760 mm Hg
   from [2]HSDB

   Melting Point
        -14.3 deg C
   from [3]HSDB

   Density/Specific Gravity
        0.9723 @ 20 deg C/4 deg C
   from [4]HSDB

   Dissociation Constants
        pKa= 4.89 at 25 deg C
   from [5]HSDB

   Heat of Vaporization
        14.26 kcal/mol at 25 deg C
   from [6]HSDB

   Octanol/Water Partition Coefficient
        log Kow = 1.68 at pH of 7.5
   from [7]HSDB

   Solubilities

     * Sol in alcohol, ether, benzene; slightly soluble in water
     * Soluble in organic solvents.

   from [8]HSDB

   Spectral Properties

     * Index of refraction: 1.5569 @ 20 deg C/D
     * IR: 10778 (Sadtler Research Laboratories IR Grating Collection)
     * UV: 1288 (Sadtler Research Laboratories Spectral Collection)
     * NMR: 237 (Sadtler Research Laboratories Spectral Collection)
     * MASS: 490 (Atlas of Mass Spectral Data, John Wiley & Sons, New
       York)

   from [9]HSDB

   Surface Tension
        36.75 dyne/cm at 25 deg C
   from [10]HSDB

   Vapor Pressure
        0.133 mm Hg at 25 deg C
   from [11]HSDB

   Other Chemical/Physical Properties

     * Prisms; boiling-point 255.1 deg C at 760 mm Hg; melting point 235
       deg C; practically insoluble in cold water /2,4-xylidine
       hydrochloride/
     * Forms more or less sol salts with the strong mineral acids
       /Xylidine/
     * All /isomers/ except ortho-4-Xylidine are liquids above 20 deg C
       /Xylidine/
     * Vapor pressure: 1 mm Hg at 52.6 deg C

   from [12]HSDB

   Computed Properties
   Molecular Weight                  121.17964 [g/mol]
   Molecular Formula                 C[8]H[11]N
   XLogP3                            1.7
   H-Bond Donor                      1
   H-Bond Acceptor                   1
   Rotatable Bond Count              0
   Exact Mass                        121.089149
   MonoIsotopic Mass                 121.089149
   Topological Polar Surface Area    26
   Heavy Atom Count                  9
   Formal Charge                     0
   Complexity                        90.6
   Isotope Atom Count                0
   Defined Atom Stereocenter Count   0
   Undefined Atom Stereocenter Count 0
   Defined Bond Stereocenter Count   0
   Undefined Bond Stereocenter Count 0
   Covalently-Bonded Unit Count      1
   Feature 3D Donor Count            1
   Feature 3D Cation Count           1
   Feature 3D Ring Count             1
   Effective Rotor Count             0
   Conformer Sampling RMSD           0.4
   CID Conformer Count               [13]1

References

   1. http://toxnet.nlm.nih.gov/cgi-bin/sis/search/r?dbs+hsdb:@term+@rn+@rel+95-68-1
   2. http://toxnet.nlm.nih.gov/cgi-bin/sis/search/r?dbs+hsdb:@term+@rn+@rel+95-68-1
   3. http://toxnet.nlm.nih.gov/cgi-bin/sis/search/r?dbs+hsdb:@term+@rn+@rel+95-68-1
   4. http://toxnet.nlm.nih.gov/cgi-bin/sis/search/r?dbs+hsdb:@term+@rn+@rel+95-68-1
   5. http://toxnet.nlm.nih.gov/cgi-bin/sis/search/r?dbs+hsdb:@term+@rn+@rel+95-68-1
   6. http://toxnet.nlm.nih.gov/cgi-bin/sis/search/r?dbs+hsdb:@term+@rn+@rel+95-68-1
   7. http://toxnet.nlm.nih.gov/cgi-bin/sis/search/r?dbs+hsdb:@term+@rn+@rel+95-68-1
   8. http://toxnet.nlm.nih.gov/cgi-bin/sis/search/r?dbs+hsdb:@term+@rn+@rel+95-68-1
   9. http://toxnet.nlm.nih.gov/cgi-bin/sis/search/r?dbs+hsdb:@term+@rn+@rel+95-68-1
  10. http://toxnet.nlm.nih.gov/cgi-bin/sis/search/r?dbs+hsdb:@term+@rn+@rel+95-68-1
  11. http://toxnet.nlm.nih.gov/cgi-bin/sis/search/r?dbs+hsdb:@term+@rn+@rel+95-68-1
  12. http://toxnet.nlm.nih.gov/cgi-bin/sis/search/r?dbs+hsdb:@term+@rn+@rel+95-68-1
  13. http://pubchem.ncbi.nlm.nih.gov/vw3d/vw3d.cgi?cid=7250
