   Color/Form
        GLISTENING CRYSTALS FROM DILUTE ALCOHOL
   from [1]HSDB

   Melting Point
        205-209 deg C (decomposes)
   from [2]HSDB

   Dissociation Constants
        PKA IN WATER: 3.4 & 8.86
   from [3]HSDB

   Solubilities
        VERY FREELY SOL IN WATER; PRACTICALLY INSOL IN USUAL ANHYDROUS ORG
   SOLVENTS
   from [4]HSDB

   Spectral Properties

     * SPECIFIC OPTICAL ROTATION: 7 DEG @ 25 DEG C/D (CONCN = 0.8 G IN 100
       ML WATER); MAX ABSORPTION (WATER): 237.5 NM (E= 12,000), 280 NM (E=
       1,400)
     * Specific optical rotation: +6 deg at 25 deg C (concn = 1.1 g in 100
       ml in water)
     * Specific optical rotation: +7 deg at 25 deg C (concn = 0.8 g in 100
       ml water)

   from [5]HSDB

   Other Chemical/Physical Properties

     * DECOMPOSES @ 205-209 DEG C
     * Stable in solid state; sensitive to oxidation; rapidly oxidized by
       a variety of oxidants; hydrolysed by hydrochloric acid to
       L-glutamic acid
     * Agaritine is destroyed by moist heat

   from [6]HSDB

   Computed Properties
   Molecular Weight                  267.28108 [g/mol]
   Molecular Formula                 C[12]H[17]N[3]O[4]
   XLogP3-AA                         -2.8
   H-Bond Donor                      5
   H-Bond Acceptor                   6
   Rotatable Bond Count              7
   Tautomer Count                    2
   Exact Mass                        267.121906
   MonoIsotopic Mass                 267.121906
   Topological Polar Surface Area    125
   Heavy Atom Count                  19
   Formal Charge                     0
   Complexity                        303
   Isotope Atom Count                0
   Defined Atom Stereocenter Count   1
   Undefined Atom Stereocenter Count 0
   Defined Bond Stereocenter Count   0
   Undefined Bond Stereocenter Count 0
   Covalently-Bonded Unit Count      1
   Feature 3D Acceptor Count         4
   Feature 3D Donor Count            4
   Feature 3D Anion Count            1
   Feature 3D Cation Count           1
   Feature 3D Ring Count             1
   Effective Rotor Count             8
   Conformer Sampling RMSD           0.8
   CID Conformer Count               [7]110

References

   1. http://toxnet.nlm.nih.gov/cgi-bin/sis/search/r?dbs+hsdb:@term+@rn+@rel+2757-90-6
   2. http://toxnet.nlm.nih.gov/cgi-bin/sis/search/r?dbs+hsdb:@term+@rn+@rel+2757-90-6
   3. http://toxnet.nlm.nih.gov/cgi-bin/sis/search/r?dbs+hsdb:@term+@rn+@rel+2757-90-6
   4. http://toxnet.nlm.nih.gov/cgi-bin/sis/search/r?dbs+hsdb:@term+@rn+@rel+2757-90-6
   5. http://toxnet.nlm.nih.gov/cgi-bin/sis/search/r?dbs+hsdb:@term+@rn+@rel+2757-90-6
   6. http://toxnet.nlm.nih.gov/cgi-bin/sis/search/r?dbs+hsdb:@term+@rn+@rel+2757-90-6
   7. http://pubchem.ncbi.nlm.nih.gov/vw3d/vw3d.cgi?cid=439517
