88881
  -OEChem-07051212582D

 35 37  0     0  0  0  0  0  0999 V2000
    5.4641    1.0223    0.0000 O   0  0  0  0  0  0  0  0  0  0  0  0
    7.2125   -2.0123    0.0000 O   0  0  0  0  0  0  0  0  0  0  0  0
    8.9942    1.0464    0.0000 O   0  0  0  0  0  0  0  0  0  0  0  0
    5.4641   -1.9777    0.0000 O   0  0  0  0  0  0  0  0  0  0  0  0
    6.3301   -0.4777    0.0000 C   0  0  0  0  0  0  0  0  0  0  0  0
    6.3301    0.5223    0.0000 C   0  0  0  0  0  0  0  0  0  0  0  0
    7.2241   -1.0124    0.0000 C   0  0  0  0  0  0  0  0  0  0  0  0
    4.5981    0.5223    0.0000 C   0  0  0  0  0  0  0  0  0  0  0  0
    5.4641   -0.9777    0.0000 C   0  0  0  0  0  0  0  0  0  0  0  0
    7.2241    1.0570    0.0000 C   0  0  0  0  0  0  0  0  0  0  0  0
    4.5981   -0.4777    0.0000 C   0  0  0  0  0  0  0  0  0  0  0  0
    3.7320    1.0223    0.0000 C   0  0  0  0  0  0  0  0  0  0  0  0
    8.1301    0.5431    0.0000 C   0  0  0  0  0  0  0  0  0  0  0  0
    8.1301   -0.4985    0.0000 C   0  0  0  0  0  0  0  0  0  0  0  0
    3.7320    2.0223    0.0000 C   0  0  0  0  0  0  0  0  0  0  0  0
    2.8660    0.5223    0.0000 C   0  0  0  0  0  0  0  0  0  0  0  0
    2.8660    2.5223    0.0000 C   0  0  0  0  0  0  0  0  0  0  0  0
    2.0000    1.0223    0.0000 C   0  0  0  0  0  0  0  0  0  0  0  0
    2.0000    2.0223    0.0000 C   0  0  0  0  0  0  0  0  0  0  0  0
    8.0727   -2.5223    0.0000 C   0  0  0  0  0  0  0  0  0  0  0  0
    9.8622    0.5498    0.0000 C   0  0  0  0  0  0  0  0  0  0  0  0
    7.2169    1.6769    0.0000 H   0  0  0  0  0  0  0  0  0  0  0  0
    4.0611   -0.7877    0.0000 H   0  0  0  0  0  0  0  0  0  0  0  0
    8.6659   -0.8106    0.0000 H   0  0  0  0  0  0  0  0  0  0  0  0
    4.2690    2.3323    0.0000 H   0  0  0  0  0  0  0  0  0  0  0  0
    2.8660   -0.0977    0.0000 H   0  0  0  0  0  0  0  0  0  0  0  0
    2.8660    3.1423    0.0000 H   0  0  0  0  0  0  0  0  0  0  0  0
    1.4631    0.7123    0.0000 H   0  0  0  0  0  0  0  0  0  0  0  0
    1.4631    2.3323    0.0000 H   0  0  0  0  0  0  0  0  0  0  0  0
    7.7565   -3.0556    0.0000 H   0  0  0  0  0  0  0  0  0  0  0  0
    8.6060   -2.8385    0.0000 H   0  0  0  0  0  0  0  0  0  0  0  0
    8.3889   -1.9890    0.0000 H   0  0  0  0  0  0  0  0  0  0  0  0
    9.5542    0.0117    0.0000 H   0  0  0  0  0  0  0  0  0  0  0  0
   10.4003    0.2419    0.0000 H   0  0  0  0  0  0  0  0  0  0  0  0
   10.1701    1.0879    0.0000 H   0  0  0  0  0  0  0  0  0  0  0  0
  1  6  1  0  0  0  0
  1  8  1  0  0  0  0
  2  7  1  0  0  0  0
  2 20  1  0  0  0  0
  3 13  1  0  0  0  0
  3 21  1  0  0  0  0
  4  9  2  0  0  0  0
  5  6  2  0  0  0  0
  5  7  1  0  0  0  0
  5  9  1  0  0  0  0
  6 10  1  0  0  0  0
  7 14  2  0  0  0  0
  8 11  2  0  0  0  0
  8 12  1  0  0  0  0
  9 11  1  0  0  0  0
 10 13  2  0  0  0  0
 10 22  1  0  0  0  0
 11 23  1  0  0  0  0
 12 15  2  0  0  0  0
 12 16  1  0  0  0  0
 13 14  1  0  0  0  0
 14 24  1  0  0  0  0
 15 17  1  0  0  0  0
 15 25  1  0  0  0  0
 16 18  2  0  0  0  0
 16 26  1  0  0  0  0
 17 19  2  0  0  0  0
 17 27  1  0  0  0  0
 18 19  1  0  0  0  0
 18 28  1  0  0  0  0
 19 29  1  0  0  0  0
 20 30  1  0  0  0  0
 20 31  1  0  0  0  0
 20 32  1  0  0  0  0
 21 33  1  0  0  0  0
 21 34  1  0  0  0  0
 21 35  1  0  0  0  0
M  END
> <PUBCHEM_COMPOUND_CID>
88881

> <PUBCHEM_COMPOUND_CANONICALIZED>
1

> <PUBCHEM_CACTVS_COMPLEXITY>
411

> <PUBCHEM_CACTVS_HBOND_ACCEPTOR>
4

> <PUBCHEM_CACTVS_HBOND_DONOR>
0

> <PUBCHEM_CACTVS_ROTATABLE_BOND>
3

> <PUBCHEM_CACTVS_SUBSKEYS>
AAADccB4OAAAAAAAAAAAAAAAAAAAAAAAAAAwYIAAAAAAAACBQAAAGgAAAAAADASAmAIyBoAABACIAqBSAAACCAAkIAAIiAEGCMgMJzaENRqCOWCl4BUIqQeI7KzOIAAACAAIAABAAAAQABAAAAAAAAAAAA==

> <PUBCHEM_IUPAC_OPENEYE_NAME>
5,7-dimethoxy-2-phenyl-chromen-4-one

> <PUBCHEM_IUPAC_CAS_NAME>
5,7-dimethoxy-2-phenyl-1-benzopyran-4-one

> <PUBCHEM_IUPAC_NAME>
5,7-dimethoxy-2-phenylchromen-4-one

> <PUBCHEM_IUPAC_SYSTEMATIC_NAME>
5,7-dimethoxy-2-phenyl-chromen-4-one

> <PUBCHEM_IUPAC_TRADITIONAL_NAME>
5,7-dimethoxy-2-phenyl-chromone

> <PUBCHEM_IUPAC_INCHI>
InChI=1S/C17H14O4/c1-19-12-8-15(20-2)17-13(18)10-14(21-16(17)9-12)11-6-4-3-5-7-11/h3-10H,1-2H3

> <PUBCHEM_IUPAC_INCHIKEY>
JRFZSUMZAUHNSL-UHFFFAOYSA-N

> <PUBCHEM_XLOGP3>
2.2

> <PUBCHEM_EXACT_MASS>
282.089209

> <PUBCHEM_MOLECULAR_FORMULA>
C17H14O4

> <PUBCHEM_MOLECULAR_WEIGHT>
282.29066

> <PUBCHEM_OPENEYE_CAN_SMILES>
COC1=CC(=C2C(=C1)OC(=CC2=O)C3=CC=CC=C3)OC

> <PUBCHEM_OPENEYE_ISO_SMILES>
COC1=CC(=C2C(=C1)OC(=CC2=O)C3=CC=CC=C3)OC

> <PUBCHEM_CACTVS_TPSA>
44.8

> <PUBCHEM_MONOISOTOPIC_WEIGHT>
282.089209

> <PUBCHEM_TOTAL_CHARGE>
0

> <PUBCHEM_HEAVY_ATOM_COUNT>
21

> <PUBCHEM_ATOM_DEF_STEREO_COUNT>
0

> <PUBCHEM_ATOM_UDEF_STEREO_COUNT>
0

> <PUBCHEM_BOND_DEF_STEREO_COUNT>
0

> <PUBCHEM_BOND_UDEF_STEREO_COUNT>
0

> <PUBCHEM_ISOTOPIC_ATOM_COUNT>
0

> <PUBCHEM_COMPONENT_COUNT>
1

> <PUBCHEM_CACTVS_TAUTO_COUNT>
1

> <PUBCHEM_COORDINATE_TYPE>
1
5
255

> <PUBCHEM_BONDANNOTATIONS>
1  6  8
1  8  8
10  13  8
12  15  8
12  16  8
13  14  8
15  17  8
16  18  8
17  19  8
18  19  8
5  6  8
5  7  8
5  9  8
6  10  8
7  14  8
8  11  8
9  11  8

$$$$

