54675762
  -OEChem-07051212482D

 54 57  0     1  0  0  0  0  0999 V2000
    6.0678   -1.5754    0.0000 O   0  0  0  0  0  0  0  0  0  0  0  0
    9.1837    1.8310    0.0000 O   0  0  0  0  0  0  0  0  0  0  0  0
    4.8427   -2.0536    0.0000 O   0  0  0  0  0  0  0  0  0  0  0  0
    6.9338   -2.0754    0.0000 O   0  0  0  0  0  0  0  0  0  0  0  0
    3.4037    0.9488    0.0000 O   0  0  0  0  0  0  0  0  0  0  0  0
    8.6822   -2.1100    0.0000 O   0  0  0  0  0  0  0  0  0  0  0  0
   10.5194   -2.1530    0.0000 O   0  0  0  0  0  0  0  0  0  0  0  0
    3.4075   -2.0995    0.0000 O   0  0  0  0  0  0  0  0  0  0  0  0
    5.1854    1.9592    0.0000 N   0  0  0  0  0  0  0  0  0  0  0  0
    2.5357   -0.6029    0.0000 N   0  0  0  0  0  0  0  0  0  0  0  0
    6.0678    0.4246    0.0000 C   0  0  1  0  0  0  0  0  0  0  0  0
    6.0678   -0.5754    0.0000 C   0  0  1  0  0  0  0  0  0  0  0  0
    6.9338    0.9246    0.0000 C   0  0  0  0  0  0  0  0  0  0  0  0
    5.1738    0.9593    0.0000 C   0  0  1  0  0  0  0  0  0  0  0  0
    7.7998    0.4246    0.0000 C   0  0  0  0  0  0  0  0  0  0  0  0
    8.6938    0.9593    0.0000 C   0  0  1  0  0  0  0  0  0  0  0  0
    7.7998   -0.5754    0.0000 C   0  0  0  0  0  0  0  0  0  0  0  0
    6.9338   -1.0754    0.0000 C   0  0  0  0  0  0  0  0  0  0  0  0
    5.1738   -1.1100    0.0000 C   0  0  0  0  0  0  0  0  0  0  0  0
    4.2678    0.4455    0.0000 C   0  0  0  0  0  0  0  0  0  0  0  0
    4.2678   -0.5962    0.0000 C   0  0  0  0  0  0  0  0  0  0  0  0
    9.5998    0.4455    0.0000 C   0  0  0  0  0  0  0  0  0  0  0  0
    8.6938   -1.1100    0.0000 C   0  0  0  0  0  0  0  0  0  0  0  0
    9.5998   -0.5962    0.0000 C   0  0  0  0  0  0  0  0  0  0  0  0
    8.1838    1.8195    0.0000 C   0  0  0  0  0  0  0  0  0  0  0  0
    4.3252    2.4692    0.0000 C   0  0  0  0  0  0  0  0  0  0  0  0
    6.0572    2.4492    0.0000 C   0  0  0  0  0  0  0  0  0  0  0  0
   10.5310    1.0024    0.0000 C   0  0  0  0  0  0  0  0  0  0  0  0
    3.4037   -1.0995    0.0000 C   0  0  0  0  0  0  0  0  0  0  0  0
   10.5310   -1.1531    0.0000 C   0  0  0  0  0  0  0  0  0  0  0  0
   11.4748    0.4671    0.0000 C   0  0  0  0  0  0  0  0  0  0  0  0
   11.4748   -0.6179    0.0000 C   0  0  0  0  0  0  0  0  0  0  0  0
    6.0743    1.2746    0.0000 H   0  0  0  0  0  0  0  0  0  0  0  0
    7.3323    1.3996    0.0000 H   0  0  0  0  0  0  0  0  0  0  0  0
    6.5353    1.3996    0.0000 H   0  0  0  0  0  0  0  0  0  0  0  0
    5.7149    1.2620    0.0000 H   0  0  0  0  0  0  0  0  0  0  0  0
    5.6692   -2.0503    0.0000 H   0  0  0  0  0  0  0  0  0  0  0  0
    8.7171    2.1357    0.0000 H   0  0  0  0  0  0  0  0  0  0  0  0
    7.8676    2.3528    0.0000 H   0  0  0  0  0  0  0  0  0  0  0  0
    7.6505    1.5033    0.0000 H   0  0  0  0  0  0  0  0  0  0  0  0
    4.6414    3.0025    0.0000 H   0  0  0  0  0  0  0  0  0  0  0  0
    3.7919    2.7854    0.0000 H   0  0  0  0  0  0  0  0  0  0  0  0
    4.0090    1.9359    0.0000 H   0  0  0  0  0  0  0  0  0  0  0  0
    6.3609    1.9087    0.0000 H   0  0  0  0  0  0  0  0  0  0  0  0
    6.5976    2.7530    0.0000 H   0  0  0  0  0  0  0  0  0  0  0  0
    5.7534    2.9897    0.0000 H   0  0  0  0  0  0  0  0  0  0  0  0
    8.8675    2.3644    0.0000 H   0  0  0  0  0  0  0  0  0  0  0  0
   10.5238    1.6223    0.0000 H   0  0  0  0  0  0  0  0  0  0  0  0
    4.2335   -2.1684    0.0000 H   0  0  0  0  0  0  0  0  0  0  0  0
   12.0105    0.7792    0.0000 H   0  0  0  0  0  0  0  0  0  0  0  0
   12.0105   -0.9299    0.0000 H   0  0  0  0  0  0  0  0  0  0  0  0
    2.0000   -0.9149    0.0000 H   0  0  0  0  0  0  0  0  0  0  0  0
    2.5334    0.0171    0.0000 H   0  0  0  0  0  0  0  0  0  0  0  0
   11.0528   -2.4692    0.0000 H   0  0  0  0  0  0  0  0  0  0  0  0
 12  1  1  1  0  0  0
  1 37  1  0  0  0  0
 16  2  1  6  0  0  0
  2 47  1  0  0  0  0
  3 19  1  0  0  0  0
  3 49  1  0  0  0  0
  4 18  2  0  0  0  0
  5 20  2  0  0  0  0
  6 23  2  0  0  0  0
  7 30  1  0  0  0  0
  7 54  1  0  0  0  0
  8 29  2  0  0  0  0
 14  9  1  1  0  0  0
  9 26  1  0  0  0  0
  9 27  1  0  0  0  0
 10 29  1  0  0  0  0
 10 52  1  0  0  0  0
 10 53  1  0  0  0  0
 11 12  1  0  0  0  0
 11 13  1  0  0  0  0
 11 14  1  0  0  0  0
 11 33  1  1  0  0  0
 12 18  1  0  0  0  0
 12 19  1  0  0  0  0
 13 15  1  0  0  0  0
 13 34  1  0  0  0  0
 13 35  1  0  0  0  0
 14 20  1  0  0  0  0
 14 36  1  0  0  0  0
 15 16  1  0  0  0  0
 15 17  2  0  0  0  0
 16 22  1  0  0  0  0
 16 25  1  0  0  0  0
 17 18  1  0  0  0  0
 17 23  1  0  0  0  0
 19 21  2  0  0  0  0
 20 21  1  0  0  0  0
 21 29  1  0  0  0  0
 22 24  2  0  0  0  0
 22 28  1  0  0  0  0
 23 24  1  0  0  0  0
 24 30  1  0  0  0  0
 25 38  1  0  0  0  0
 25 39  1  0  0  0  0
 25 40  1  0  0  0  0
 26 41  1  0  0  0  0
 26 42  1  0  0  0  0
 26 43  1  0  0  0  0
 27 44  1  0  0  0  0
 27 45  1  0  0  0  0
 27 46  1  0  0  0  0
 28 31  2  0  0  0  0
 28 48  1  0  0  0  0
 30 32  2  0  0  0  0
 31 32  1  0  0  0  0
 31 50  1  0  0  0  0
 32 51  1  0  0  0  0
M  END
> <PUBCHEM_COMPOUND_CID>
54675762

> <PUBCHEM_COMPOUND_CANONICALIZED>
1

> <PUBCHEM_CACTVS_COMPLEXITY>
1010

> <PUBCHEM_CACTVS_HBOND_ACCEPTOR>
9

> <PUBCHEM_CACTVS_HBOND_DONOR>
5

> <PUBCHEM_CACTVS_ROTATABLE_BOND>
2

> <PUBCHEM_CACTVS_SUBSKEYS>
AAADceB7PAAAAAAAAAAAAAAAAAAAAAAAAAAwQIEAAAAAAADBAAAAHgAQCAAADWzBmAQyBoNAAgCIAqFSEAKCAAAkIAAIiAHOCMgJJj6KlTKEcUAm4BEJmQf+/vfugAABAAAYAAAAAAIAADAAAAAAAAAAAA==

> <PUBCHEM_IUPAC_OPENEYE_NAME>
(4S,4aS,6S,12aR)-4-(dimethylamino)-1,6,10,12a-tetrahydroxy-6-methyl-3,11,12-trioxo-4a,5-dihydro-4H-tetracene-2-carboxamide

> <PUBCHEM_IUPAC_CAS_NAME>
(4S,4aS,6S,12aR)-4-(dimethylamino)-1,6,10,12a-tetrahydroxy-6-methyl-3,11,12-trioxo-4a,5-dihydro-4H-tetracene-2-carboxamide

> <PUBCHEM_IUPAC_NAME>
(4S,4aS,6S,12aR)-4-(dimethylamino)-1,6,10,12a-tetrahydroxy-6-methyl-3,11,12-trioxo-4a,5-dihydro-4H-tetracene-2-carboxamide

> <PUBCHEM_IUPAC_SYSTEMATIC_NAME>
(4S,4aS,6S,12aR)-4-(dimethylamino)-6-methyl-1,6,10,12a-tetrakis(oxidanyl)-3,11,12-tris(oxidanylidene)-4a,5-dihydro-4H-tetracene-2-carboxamide

> <PUBCHEM_IUPAC_TRADITIONAL_NAME>
(4S,4aS,6S,12aR)-4-(dimethylamino)-1,6,10,12a-tetrahydroxy-3,11,12-triketo-6-methyl-4a,5-dihydro-4H-tetracene-2-carboxamide

> <PUBCHEM_IUPAC_INCHI>
InChI=1S/C22H22N2O8/c1-21(31)8-5-4-6-11(25)12(8)16(26)13-9(21)7-10-15(24(2)3)17(27)14(20(23)30)19(29)22(10,32)18(13)28/h4-6,10,15,25,29,31-32H,7H2,1-3H3,(H2,23,30)/t10-,15-,21+,22-/m0/s1

> <PUBCHEM_IUPAC_INCHIKEY>
NFQUDBKTIUTPKR-ILGMQVKHSA-N

> <PUBCHEM_XLOGP3_AA>
0.3

> <PUBCHEM_EXACT_MASS>
442.137616

> <PUBCHEM_MOLECULAR_FORMULA>
C22H22N2O8

> <PUBCHEM_MOLECULAR_WEIGHT>
442.41868

> <PUBCHEM_OPENEYE_CAN_SMILES>
CC1(C2=C(C(=O)C3=C1C=CC=C3O)C(=O)C4(C(C2)C(C(=O)C(=C4O)C(=O)N)N(C)C)O)O

> <PUBCHEM_OPENEYE_ISO_SMILES>
C[C@@]1(C2=C(C(=O)C3=C1C=CC=C3O)C(=O)[C@]4([C@@H](C2)[C@@H](C(=O)C(=C4O)C(=O)N)N(C)C)O)O

> <PUBCHEM_CACTVS_TPSA>
179

> <PUBCHEM_MONOISOTOPIC_WEIGHT>
442.137616

> <PUBCHEM_TOTAL_CHARGE>
0

> <PUBCHEM_HEAVY_ATOM_COUNT>
32

> <PUBCHEM_ATOM_DEF_STEREO_COUNT>
4

> <PUBCHEM_ATOM_UDEF_STEREO_COUNT>
0

> <PUBCHEM_BOND_DEF_STEREO_COUNT>
0

> <PUBCHEM_BOND_UDEF_STEREO_COUNT>
0

> <PUBCHEM_ISOTOPIC_ATOM_COUNT>
0

> <PUBCHEM_COMPONENT_COUNT>
1

> <PUBCHEM_CACTVS_TAUTO_COUNT>
228

> <PUBCHEM_COORDINATE_TYPE>
1
5
255

> <PUBCHEM_BONDANNOTATIONS>
12  1  5
11  33  5
16  2  6
21  29  1
22  24  8
22  28  8
24  30  8
28  31  8
30  32  8
31  32  8
14  9  5

$$$$

