439424
  -OEChem-07051212452D

 34 35  0     1  0  0  0  0  0999 V2000
    3.2467   -0.6112    0.0000 P   0  0  0  0  0  0  0  0  0  0  0  0
    6.3116   -0.2318    0.0000 O   0  0  0  0  0  0  0  0  0  0  0  0
    5.7357    2.2909    0.0000 O   0  0  0  0  0  0  0  0  0  0  0  0
    7.8638    1.8386    0.0000 O   0  0  0  0  0  0  0  0  0  0  0  0
    4.2412   -0.5067    0.0000 O   0  0  0  0  0  0  0  0  0  0  0  0
    7.2252   -1.8250    0.0000 O   0  0  0  0  0  0  0  0  0  0  0  0
    2.2522   -0.7158    0.0000 O   0  0  0  0  0  0  0  0  0  0  0  0
    3.3512   -1.6058    0.0000 O   0  0  0  0  0  0  0  0  0  0  0  0
    3.1422    0.3833    0.0000 O   0  0  0  0  0  0  0  0  0  0  0  0
   10.6893   -1.8250    0.0000 O   0  0  0  0  0  0  0  0  0  0  0  0
    8.9572   -1.8250    0.0000 N   0  0  0  0  0  0  0  0  0  0  0  0
    9.8232   -0.3251    0.0000 N   0  0  0  0  0  0  0  0  0  0  0  0
    6.1425    1.3774    0.0000 C   0  0  1  0  0  0  0  0  0  0  0  0
    7.1206    1.1695    0.0000 C   0  0  2  0  0  0  0  0  0  0  0  0
    5.6425    0.5114    0.0000 C   0  0  1  0  0  0  0  0  0  0  0  0
    7.2252    0.1749    0.0000 C   0  0  2  0  0  0  0  0  0  0  0  0
    4.6480    0.4068    0.0000 C   0  0  0  0  0  0  0  0  0  0  0  0
    8.0912   -0.3251    0.0000 C   0  0  0  0  0  0  0  0  0  0  0  0
    8.0912   -1.3250    0.0000 C   0  0  0  0  0  0  0  0  0  0  0  0
    8.9572    0.1749    0.0000 C   0  0  0  0  0  0  0  0  0  0  0  0
    9.8232   -1.3250    0.0000 C   0  0  0  0  0  0  0  0  0  0  0  0
    5.5233    1.4098    0.0000 H   0  0  0  0  0  0  0  0  0  0  0  0
    6.9602    1.7683    0.0000 H   0  0  0  0  0  0  0  0  0  0  0  0
    5.4203   -0.0675    0.0000 H   0  0  0  0  0  0  0  0  0  0  0  0
    7.1927   -0.4442    0.0000 H   0  0  0  0  0  0  0  0  0  0  0  0
    4.6912    1.0253    0.0000 H   0  0  0  0  0  0  0  0  0  0  0  0
    4.0464    0.5568    0.0000 H   0  0  0  0  0  0  0  0  0  0  0  0
    5.1191    2.3557    0.0000 H   0  0  0  0  0  0  0  0  0  0  0  0
    7.7349    2.4450    0.0000 H   0  0  0  0  0  0  0  0  0  0  0  0
    8.9572    0.7949    0.0000 H   0  0  0  0  0  0  0  0  0  0  0  0
    8.9572   -2.4450    0.0000 H   0  0  0  0  0  0  0  0  0  0  0  0
   10.3602   -0.0151    0.0000 H   0  0  0  0  0  0  0  0  0  0  0  0
    2.0000   -1.2822    0.0000 H   0  0  0  0  0  0  0  0  0  0  0  0
    3.9176   -1.8579    0.0000 H   0  0  0  0  0  0  0  0  0  0  0  0
  1  5  1  0  0  0  0
  1  7  1  0  0  0  0
  1  8  1  0  0  0  0
  1  9  2  0  0  0  0
  2 15  1  0  0  0  0
  2 16  1  0  0  0  0
 13  3  1  1  0  0  0
  3 28  1  0  0  0  0
 14  4  1  1  0  0  0
  4 29  1  0  0  0  0
  5 17  1  0  0  0  0
  6 19  2  0  0  0  0
  7 33  1  0  0  0  0
  8 34  1  0  0  0  0
 10 21  2  0  0  0  0
 11 19  1  0  0  0  0
 11 21  1  0  0  0  0
 11 31  1  0  0  0  0
 12 20  1  0  0  0  0
 12 21  1  0  0  0  0
 12 32  1  0  0  0  0
 13 14  1  0  0  0  0
 13 15  1  0  0  0  0
 13 22  1  0  0  0  0
 14 16  1  0  0  0  0
 14 23  1  0  0  0  0
 15 17  1  6  0  0  0
 15 24  1  0  0  0  0
 16 18  1  6  0  0  0
 16 25  1  0  0  0  0
 17 26  1  0  0  0  0
 17 27  1  0  0  0  0
 18 19  1  0  0  0  0
 18 20  2  0  0  0  0
 20 30  1  0  0  0  0
M  END
> <PUBCHEM_COMPOUND_CID>
439424

> <PUBCHEM_COMPOUND_CANONICALIZED>
1

> <PUBCHEM_CACTVS_COMPLEXITY>
529

> <PUBCHEM_CACTVS_HBOND_ACCEPTOR>
9

> <PUBCHEM_CACTVS_HBOND_DONOR>
6

> <PUBCHEM_CACTVS_ROTATABLE_BOND>
4

> <PUBCHEM_CACTVS_SUBSKEYS>
AAADccBzPAIAAAAAAAAAAAAAAAAAASAAAAAgAAAAAAAAAAAAAAAAHgAQCCAADBThgAYBAALABxCIQgFWUICAAAAgAAAAAIEIAEiBFBYAoQAGQAAP5yIDIMH6/CbAAAAAAAAAAAAAAAAAAAAAAAAAAAAAAA==

> <PUBCHEM_IUPAC_OPENEYE_NAME>
[(2R,3S,4R,5S)-5-(2,4-dioxo-1H-pyrimidin-5-yl)-3,4-dihydroxy-tetrahydrofuran-2-yl]methyl dihydrogen phosphate

> <PUBCHEM_IUPAC_CAS_NAME>
[(2R,3S,4R,5S)-5-(2,4-dioxo-1H-pyrimidin-5-yl)-3,4-dihydroxy-2-oxolanyl]methyl dihydrogen phosphate

> <PUBCHEM_IUPAC_NAME>
[(2R,3S,4R,5S)-5-(2,4-dioxo-1H-pyrimidin-5-yl)-3,4-dihydroxyoxolan-2-yl]methyl dihydrogen phosphate

> <PUBCHEM_IUPAC_SYSTEMATIC_NAME>
[(2R,3S,4R,5S)-5-[2,4-bis(oxidanylidene)-1H-pyrimidin-5-yl]-3,4-bis(oxidanyl)oxolan-2-yl]methyl dihydrogen phosphate

> <PUBCHEM_IUPAC_TRADITIONAL_NAME>
[(2R,3S,4R,5S)-5-(2,4-diketo-1H-pyrimidin-5-yl)-3,4-dihydroxy-tetrahydrofuran-2-yl]methyl dihydrogen phosphate

> <PUBCHEM_IUPAC_INCHI>
InChI=1S/C9H13N2O9P/c12-5-4(2-19-21(16,17)18)20-7(6(5)13)3-1-10-9(15)11-8(3)14/h1,4-7,12-13H,2H2,(H2,16,17,18)(H2,10,11,14,15)/t4-,5-,6-,7+/m1/s1

> <PUBCHEM_IUPAC_INCHIKEY>
MOBMOJGXNHLLIR-GBNDHIKLSA-N

> <PUBCHEM_XLOGP3_AA>
-4.5

> <PUBCHEM_EXACT_MASS>
324.035867

> <PUBCHEM_MOLECULAR_FORMULA>
C9H13N2O9P

> <PUBCHEM_MOLECULAR_WEIGHT>
324.181282

> <PUBCHEM_OPENEYE_CAN_SMILES>
C1=C(C(=O)NC(=O)N1)C2C(C(C(O2)COP(=O)(O)O)O)O

> <PUBCHEM_OPENEYE_ISO_SMILES>
C1=C(C(=O)NC(=O)N1)[C@H]2[C@@H]([C@@H]([C@H](O2)COP(=O)(O)O)O)O

> <PUBCHEM_CACTVS_TPSA>
175

> <PUBCHEM_MONOISOTOPIC_WEIGHT>
324.035867

> <PUBCHEM_TOTAL_CHARGE>
0

> <PUBCHEM_HEAVY_ATOM_COUNT>
21

> <PUBCHEM_ATOM_DEF_STEREO_COUNT>
4

> <PUBCHEM_ATOM_UDEF_STEREO_COUNT>
0

> <PUBCHEM_BOND_DEF_STEREO_COUNT>
0

> <PUBCHEM_BOND_UDEF_STEREO_COUNT>
0

> <PUBCHEM_ISOTOPIC_ATOM_COUNT>
0

> <PUBCHEM_COMPONENT_COUNT>
1

> <PUBCHEM_CACTVS_TAUTO_COUNT>
9

> <PUBCHEM_COORDINATE_TYPE>
1
5
255

> <PUBCHEM_BONDANNOTATIONS>
11  19  8
11  21  8
12  20  8
12  21  8
15  17  6
16  18  6
18  19  8
18  20  8
13  3  5
14  4  5

$$$$

