249676
  -OEChem-07051213062D

 30 32  0     0  0  0  0  0  0999 V2000
    7.2622   -1.4626    0.0000 O   0  0  0  0  0  0  0  0  0  0  0  0
    8.9942   -1.4626    0.0000 O   0  0  0  0  0  0  0  0  0  0  0  0
    2.8602    0.0099    0.0000 O   0  0  0  0  0  0  0  0  0  0  0  0
    3.7320   -1.4867    0.0000 N   0  0  0  0  0  0  0  0  0  0  0  0
    6.3961    0.0374    0.0000 C   0  0  0  0  0  0  0  0  0  0  0  0
    7.2622    0.5374    0.0000 C   0  0  0  0  0  0  0  0  0  0  0  0
    6.3961   -0.9626    0.0000 C   0  0  0  0  0  0  0  0  0  0  0  0
    8.1282    0.0374    0.0000 C   0  0  0  0  0  0  0  0  0  0  0  0
    5.5022    0.5721    0.0000 C   0  0  0  0  0  0  0  0  0  0  0  0
    5.5022   -1.4972    0.0000 C   0  0  0  0  0  0  0  0  0  0  0  0
    4.5961   -0.9834    0.0000 C   0  0  0  0  0  0  0  0  0  0  0  0
    7.2461    1.5790    0.0000 C   0  0  0  0  0  0  0  0  0  0  0  0
    4.5961    0.0583    0.0000 C   0  0  0  0  0  0  0  0  0  0  0  0
    8.1282   -0.9626    0.0000 C   0  0  0  0  0  0  0  0  0  0  0  0
    9.0382    0.5443    0.0000 C   0  0  0  0  0  0  0  0  0  0  0  0
    8.1441    2.1067    0.0000 C   0  0  0  0  0  0  0  0  0  0  0  0
    9.0462    1.5859    0.0000 C   0  0  0  0  0  0  0  0  0  0  0  0
    2.8641   -0.9900    0.0000 C   0  0  0  0  0  0  0  0  0  0  0  0
    2.0000   -1.4934    0.0000 C   0  0  0  0  0  0  0  0  0  0  0  0
    5.5094    1.1921    0.0000 H   0  0  0  0  0  0  0  0  0  0  0  0
    5.5094   -2.1172    0.0000 H   0  0  0  0  0  0  0  0  0  0  0  0
    6.7056    1.8827    0.0000 H   0  0  0  0  0  0  0  0  0  0  0  0
    4.0604    0.3703    0.0000 H   0  0  0  0  0  0  0  0  0  0  0  0
    9.5715    0.2281    0.0000 H   0  0  0  0  0  0  0  0  0  0  0  0
    8.1418    2.7267    0.0000 H   0  0  0  0  0  0  0  0  0  0  0  0
    9.5844    1.8938    0.0000 H   0  0  0  0  0  0  0  0  0  0  0  0
    3.7344   -2.1067    0.0000 H   0  0  0  0  0  0  0  0  0  0  0  0
    1.6879   -0.9576    0.0000 H   0  0  0  0  0  0  0  0  0  0  0  0
    1.4643   -1.8054    0.0000 H   0  0  0  0  0  0  0  0  0  0  0  0
    2.3121   -2.0291    0.0000 H   0  0  0  0  0  0  0  0  0  0  0  0
  1  7  1  0  0  0  0
  1 14  1  0  0  0  0
  2 14  2  0  0  0  0
  3 18  2  0  0  0  0
  4 11  1  0  0  0  0
  4 18  1  0  0  0  0
  4 27  1  0  0  0  0
  5  6  1  0  0  0  0
  5  7  2  0  0  0  0
  5  9  1  0  0  0  0
  6  8  1  0  0  0  0
  6 12  2  0  0  0  0
  7 10  1  0  0  0  0
  8 14  1  0  0  0  0
  8 15  2  0  0  0  0
  9 13  2  0  0  0  0
  9 20  1  0  0  0  0
 10 11  2  0  0  0  0
 10 21  1  0  0  0  0
 11 13  1  0  0  0  0
 12 16  1  0  0  0  0
 12 22  1  0  0  0  0
 13 23  1  0  0  0  0
 15 17  1  0  0  0  0
 15 24  1  0  0  0  0
 16 17  2  0  0  0  0
 16 25  1  0  0  0  0
 17 26  1  0  0  0  0
 18 19  1  0  0  0  0
 19 28  1  0  0  0  0
 19 29  1  0  0  0  0
 19 30  1  0  0  0  0
M  END
> <PUBCHEM_COMPOUND_CID>
249676

> <PUBCHEM_COMPOUND_CANONICALIZED>
1

> <PUBCHEM_CACTVS_COMPLEXITY>
382

> <PUBCHEM_CACTVS_HBOND_ACCEPTOR>
3

> <PUBCHEM_CACTVS_HBOND_DONOR>
1

> <PUBCHEM_CACTVS_ROTATABLE_BOND>
1

> <PUBCHEM_CACTVS_SUBSKEYS>
AAADccByMAAAAAAAAAAAAAAAAAAAAAAAAAA0YIAAAAAAAACRQAAAHgAQAAAADAyBmAAyzoLABACIAiXSWACCCAAlIgAIiAEGbMgMJjLEtZuGOyjm1BnI6YeY3OPOiAAAAgAYAAAQAAAEADAAAAAAAAAAAA==

> <PUBCHEM_IUPAC_OPENEYE_NAME>
N-(6-oxobenzo[c]chromen-3-yl)acetamide

> <PUBCHEM_IUPAC_CAS_NAME>
N-(6-oxo-3-benzo[c][1]benzopyranyl)acetamide

> <PUBCHEM_IUPAC_NAME>
N-(6-oxobenzo[c]chromen-3-yl)acetamide

> <PUBCHEM_IUPAC_SYSTEMATIC_NAME>
N-(6-oxidanylidenebenzo[c]chromen-3-yl)ethanamide

> <PUBCHEM_IUPAC_TRADITIONAL_NAME>
N-(6-ketobenzo[c]chromen-3-yl)acetamide

> <PUBCHEM_IUPAC_INCHI>
InChI=1S/C15H11NO3/c1-9(17)16-10-6-7-12-11-4-2-3-5-13(11)15(18)19-14(12)8-10/h2-8H,1H3,(H,16,17)

> <PUBCHEM_IUPAC_INCHIKEY>
SXZBHKWBYLGFFJ-UHFFFAOYSA-N

> <PUBCHEM_XLOGP3_AA>
2.2

> <PUBCHEM_EXACT_MASS>
253.073893

> <PUBCHEM_MOLECULAR_FORMULA>
C15H11NO3

> <PUBCHEM_MOLECULAR_WEIGHT>
253.25274

> <PUBCHEM_OPENEYE_CAN_SMILES>
CC(=O)NC1=CC2=C(C=C1)C3=CC=CC=C3C(=O)O2

> <PUBCHEM_OPENEYE_ISO_SMILES>
CC(=O)NC1=CC2=C(C=C1)C3=CC=CC=C3C(=O)O2

> <PUBCHEM_CACTVS_TPSA>
55.4

> <PUBCHEM_MONOISOTOPIC_WEIGHT>
253.073893

> <PUBCHEM_TOTAL_CHARGE>
0

> <PUBCHEM_HEAVY_ATOM_COUNT>
19

> <PUBCHEM_ATOM_DEF_STEREO_COUNT>
0

> <PUBCHEM_ATOM_UDEF_STEREO_COUNT>
0

> <PUBCHEM_BOND_DEF_STEREO_COUNT>
0

> <PUBCHEM_BOND_UDEF_STEREO_COUNT>
0

> <PUBCHEM_ISOTOPIC_ATOM_COUNT>
0

> <PUBCHEM_COMPONENT_COUNT>
1

> <PUBCHEM_CACTVS_TAUTO_COUNT>
8

> <PUBCHEM_COORDINATE_TYPE>
1
5
255

> <PUBCHEM_BONDANNOTATIONS>
1  14  8
1  7  8
10  11  8
11  13  8
12  16  8
15  17  8
16  17  8
5  6  8
5  7  8
5  9  8
6  12  8
6  8  8
7  10  8
8  14  8
8  15  8
9  13  8

$$$$

