3909
  -OEChem-06251223452D

 67 66  0     1  0  0  0  0  0999 V2000
    7.1962    4.8450    0.0000 S   0  0  0  0  0  0  0  0  0  0  0  0
    8.9282    5.8450    0.0000 O   0  0  0  0  0  0  0  0  0  0  0  0
   13.2583    4.3450    0.0000 O   0  0  0  0  0  0  0  0  0  0  0  0
   12.3923    5.8450    0.0000 O   0  0  0  0  0  0  0  0  0  0  0  0
    3.7320    4.8450    0.0000 O   0  0  0  0  0  0  0  0  0  0  0  0
    4.5981    3.3450    0.0000 O   0  0  0  0  0  0  0  0  0  0  0  0
    5.4641    5.8450    0.0000 N   0  0  0  0  0  0  0  0  0  0  0  0
    8.9282    4.8450    0.0000 C   0  0  3  0  0  0  0  0  0  0  0  0
    9.7942    4.3450    0.0000 C   0  0  0  0  0  0  0  0  0  0  0  0
    8.0622    4.3450    0.0000 C   0  0  3  0  0  0  0  0  0  0  0  0
   10.6603    4.8450    0.0000 C   0  0  0  0  0  0  0  0  0  0  0  0
   11.5263    4.3450    0.0000 C   0  0  0  0  0  0  0  0  0  0  0  0
    8.0622    3.3450    0.0000 C   0  0  0  0  0  0  0  0  0  0  0  0
    6.3301    4.3450    0.0000 C   0  0  0  0  0  0  0  0  0  0  0  0
    5.4641    4.8450    0.0000 C   0  0  3  0  0  0  0  0  0  0  0  0
    3.7320   -4.1550    0.0000 C   0  0  0  0  0  0  0  0  0  0  0  0
    2.8660   -4.6550    0.0000 C   0  0  0  0  0  0  0  0  0  0  0  0
    7.1962    2.8450    0.0000 C   0  0  0  0  0  0  0  0  0  0  0  0
   12.3923    4.8450    0.0000 C   0  0  0  0  0  0  0  0  0  0  0  0
    3.7320   -3.1550    0.0000 C   0  0  0  0  0  0  0  0  0  0  0  0
    2.8660   -5.6550    0.0000 C   0  0  0  0  0  0  0  0  0  0  0  0
    4.5981    4.3450    0.0000 C   0  0  0  0  0  0  0  0  0  0  0  0
    7.1962    1.8450    0.0000 C   0  0  0  0  0  0  0  0  0  0  0  0
    4.5981   -2.6550    0.0000 C   0  0  0  0  0  0  0  0  0  0  0  0
    2.0000   -6.1550    0.0000 C   0  0  0  0  0  0  0  0  0  0  0  0
    4.5981   -1.6550    0.0000 C   0  0  0  0  0  0  0  0  0  0  0  0
    5.4641   -1.1550    0.0000 C   0  0  0  0  0  0  0  0  0  0  0  0
    6.3301    1.3450    0.0000 C   0  0  0  0  0  0  0  0  0  0  0  0
    5.4641   -0.1550    0.0000 C   0  0  0  0  0  0  0  0  0  0  0  0
    6.3301    0.3450    0.0000 C   0  0  0  0  0  0  0  0  0  0  0  0
    9.6643    5.2700    0.0000 H   0  0  0  0  0  0  0  0  0  0  0  0
    9.3957    3.8700    0.0000 H   0  0  0  0  0  0  0  0  0  0  0  0
   10.1928    3.8700    0.0000 H   0  0  0  0  0  0  0  0  0  0  0  0
    7.3261    3.9200    0.0000 H   0  0  0  0  0  0  0  0  0  0  0  0
   11.0588    5.3200    0.0000 H   0  0  0  0  0  0  0  0  0  0  0  0
   10.2617    5.3200    0.0000 H   0  0  0  0  0  0  0  0  0  0  0  0
   11.1278    3.8700    0.0000 H   0  0  0  0  0  0  0  0  0  0  0  0
   11.9248    3.8700    0.0000 H   0  0  0  0  0  0  0  0  0  0  0  0
    8.5991    3.0350    0.0000 H   0  0  0  0  0  0  0  0  0  0  0  0
    5.9316    3.8700    0.0000 H   0  0  0  0  0  0  0  0  0  0  0  0
    6.7287    3.8700    0.0000 H   0  0  0  0  0  0  0  0  0  0  0  0
    9.4651    6.1550    0.0000 H   0  0  0  0  0  0  0  0  0  0  0  0
    6.2002    5.2700    0.0000 H   0  0  0  0  0  0  0  0  0  0  0  0
    3.9441   -4.7376    0.0000 H   0  0  0  0  0  0  0  0  0  0  0  0
    4.3426   -4.0473    0.0000 H   0  0  0  0  0  0  0  0  0  0  0  0
    2.6540   -4.0724    0.0000 H   0  0  0  0  0  0  0  0  0  0  0  0
    2.2554   -4.7627    0.0000 H   0  0  0  0  0  0  0  0  0  0  0  0
    6.6592    3.1550    0.0000 H   0  0  0  0  0  0  0  0  0  0  0  0
    3.5200   -2.5724    0.0000 H   0  0  0  0  0  0  0  0  0  0  0  0
    3.1215   -3.2627    0.0000 H   0  0  0  0  0  0  0  0  0  0  0  0
    3.0781   -6.2376    0.0000 H   0  0  0  0  0  0  0  0  0  0  0  0
    3.4766   -5.5473    0.0000 H   0  0  0  0  0  0  0  0  0  0  0  0
    4.9272    6.1550    0.0000 H   0  0  0  0  0  0  0  0  0  0  0  0
    6.0010    6.1550    0.0000 H   0  0  0  0  0  0  0  0  0  0  0  0
    5.1350   -2.9650    0.0000 H   0  0  0  0  0  0  0  0  0  0  0  0
    1.6900   -5.6181    0.0000 H   0  0  0  0  0  0  0  0  0  0  0  0
    1.4631   -6.4650    0.0000 H   0  0  0  0  0  0  0  0  0  0  0  0
    2.3100   -6.6919    0.0000 H   0  0  0  0  0  0  0  0  0  0  0  0
    7.7331    1.5350    0.0000 H   0  0  0  0  0  0  0  0  0  0  0  0
    4.0611   -1.3450    0.0000 H   0  0  0  0  0  0  0  0  0  0  0  0
    5.6762   -1.7376    0.0000 H   0  0  0  0  0  0  0  0  0  0  0  0
    6.0747   -1.0473    0.0000 H   0  0  0  0  0  0  0  0  0  0  0  0
    5.7932    1.6550    0.0000 H   0  0  0  0  0  0  0  0  0  0  0  0
   13.7953    4.6550    0.0000 H   0  0  0  0  0  0  0  0  0  0  0  0
    4.9272    0.1550    0.0000 H   0  0  0  0  0  0  0  0  0  0  0  0
    6.8671    0.0350    0.0000 H   0  0  0  0  0  0  0  0  0  0  0  0
    3.1951    4.5350    0.0000 H   0  0  0  0  0  0  0  0  0  0  0  0
  1 10  1  0  0  0  0
  1 14  1  0  0  0  0
  2  8  1  0  0  0  0
  2 42  1  0  0  0  0
  3 19  1  0  0  0  0
  3 64  1  0  0  0  0
  4 19  2  0  0  0  0
  5 22  1  0  0  0  0
  5 67  1  0  0  0  0
  6 22  2  0  0  0  0
  7 15  1  0  0  0  0
  7 53  1  0  0  0  0
  7 54  1  0  0  0  0
  8  9  1  0  0  0  0
  8 10  1  0  0  0  0
  8 31  1  0  0  0  0
  9 11  1  0  0  0  0
  9 32  1  0  0  0  0
  9 33  1  0  0  0  0
 10 13  1  0  0  0  0
 10 34  1  0  0  0  0
 11 12  1  0  0  0  0
 11 35  1  0  0  0  0
 11 36  1  0  0  0  0
 12 19  1  0  0  0  0
 12 37  1  0  0  0  0
 12 38  1  0  0  0  0
 13 18  2  3  0  0  0
 13 39  1  0  0  0  0
 14 15  1  0  0  0  0
 14 40  1  0  0  0  0
 14 41  1  0  0  0  0
 15 22  1  0  0  0  0
 15 43  1  0  0  0  0
 16 17  1  0  0  0  0
 16 20  1  0  0  0  0
 16 44  1  0  0  0  0
 16 45  1  0  0  0  0
 17 21  1  0  0  0  0
 17 46  1  0  0  0  0
 17 47  1  0  0  0  0
 18 23  1  0  0  0  0
 18 48  1  0  0  0  0
 20 24  1  0  0  0  0
 20 49  1  0  0  0  0
 20 50  1  0  0  0  0
 21 25  1  0  0  0  0
 21 51  1  0  0  0  0
 21 52  1  0  0  0  0
 23 28  2  3  0  0  0
 23 59  1  0  0  0  0
 24 26  2  3  0  0  0
 24 55  1  0  0  0  0
 25 56  1  0  0  0  0
 25 57  1  0  0  0  0
 25 58  1  0  0  0  0
 26 27  1  0  0  0  0
 26 60  1  0  0  0  0
 27 29  1  0  0  0  0
 27 61  1  0  0  0  0
 27 62  1  0  0  0  0
 28 30  1  0  0  0  0
 28 63  1  0  0  0  0
 29 30  2  3  0  0  0
 29 65  1  0  0  0  0
 30 66  1  0  0  0  0
M  END
> <PUBCHEM_COMPOUND_CID>
3909

> <PUBCHEM_COMPOUND_CANONICALIZED>
1

> <PUBCHEM_CACTVS_COMPLEXITY>
586

> <PUBCHEM_CACTVS_HBOND_ACCEPTOR>
7

> <PUBCHEM_CACTVS_HBOND_DONOR>
4

> <PUBCHEM_CACTVS_ROTATABLE_BOND>
18

> <PUBCHEM_CACTVS_SUBSKEYS>
AAADcfB6OABAAAAAAAAAAAAAAAAAAAAAAAAAAAAAAAAAAAAAAAAAHgQQCAAACDzlwAaCCABAAgiIACDSCAAAAAAgABAICIGAAAgKEBIgAQAAQAAE0AAogAOI7CTAAAAAAAAAAAAAAAAAAAAAAAAAAAAAAA==

> <PUBCHEM_IUPAC_OPENEYE_NAME>
6-(2-amino-2-carboxy-ethyl)sulfanyl-5-hydroxy-icosa-7,9,11,14-tetraenoic acid

> <PUBCHEM_IUPAC_CAS_NAME>
6-[(2-amino-2-carboxyethyl)thio]-5-hydroxyeicosa-7,9,11,14-tetraenoic acid

> <PUBCHEM_IUPAC_NAME>
6-(2-amino-2-carboxyethyl)sulfanyl-5-hydroxyicosa-7,9,11,14-tetraenoic acid

> <PUBCHEM_IUPAC_SYSTEMATIC_NAME>
6-(2-azanyl-3-oxidanyl-3-oxidanylidene-propyl)sulfanyl-5-oxidanyl-icosa-7,9,11,14-tetraenoic acid

> <PUBCHEM_IUPAC_TRADITIONAL_NAME>
6-[(2-amino-2-carboxy-ethyl)thio]-5-hydroxy-eicosa-7,9,11,14-tetraenoic acid

> <PUBCHEM_IUPAC_INCHI>
InChI=1S/C23H37NO5S/c1-2-3-4-5-6-7-8-9-10-11-12-13-16-21(30-18-19(24)23(28)29)20(25)15-14-17-22(26)27/h6-7,9-13,16,19-21,25H,2-5,8,14-15,17-18,24H2,1H3,(H,26,27)(H,28,29)

> <PUBCHEM_IUPAC_INCHIKEY>
OTZRAYGBFWZKMX-UHFFFAOYSA-N

> <PUBCHEM_XLOGP3_AA>
2.1

> <PUBCHEM_EXACT_MASS>
439.239244

> <PUBCHEM_MOLECULAR_FORMULA>
C23H37NO5S

> <PUBCHEM_MOLECULAR_WEIGHT>
439.60858

> <PUBCHEM_OPENEYE_CAN_SMILES>
CCCCCC=CCC=CC=CC=CC(C(CCCC(=O)O)O)SCC(C(=O)O)N

> <PUBCHEM_OPENEYE_ISO_SMILES>
CCCCCC=CCC=CC=CC=CC(C(CCCC(=O)O)O)SCC(C(=O)O)N

> <PUBCHEM_CACTVS_TPSA>
146

> <PUBCHEM_MONOISOTOPIC_WEIGHT>
439.239244

> <PUBCHEM_TOTAL_CHARGE>
0

> <PUBCHEM_HEAVY_ATOM_COUNT>
30

> <PUBCHEM_ATOM_DEF_STEREO_COUNT>
0

> <PUBCHEM_ATOM_UDEF_STEREO_COUNT>
3

> <PUBCHEM_BOND_DEF_STEREO_COUNT>
0

> <PUBCHEM_BOND_UDEF_STEREO_COUNT>
4

> <PUBCHEM_ISOTOPIC_ATOM_COUNT>
0

> <PUBCHEM_COMPONENT_COUNT>
1

> <PUBCHEM_CACTVS_TAUTO_COUNT>
1

> <PUBCHEM_COORDINATE_TYPE>
1
5
255

> <PUBCHEM_BONDANNOTATIONS>
10  34  3
13  18  1
15  43  3
23  28  1
24  26  1
29  30  1
8  31  3

$$$$

