157143
  -OEChem-07051212562D

 71 76  0     1  0  0  0  0  0999 V2000
   10.0701   -0.3200    0.0000 O   0  0  0  0  0  0  0  0  0  0  0  0
   13.9950    2.2932    0.0000 O   0  0  0  0  0  0  0  0  0  0  0  0
    9.6648   -0.9388    0.0000 O   0  0  0  0  0  0  0  0  0  0  0  0
    9.6648    2.5253    0.0000 O   0  0  0  0  0  0  0  0  0  0  0  0
   10.3709   -2.0258    0.0000 O   0  0  0  0  0  0  0  0  0  0  0  0
   15.7270   -0.7068    0.0000 O   0  0  0  0  0  0  0  0  0  0  0  0
    6.0812    1.5980    0.0000 O   0  0  0  0  0  0  0  0  0  0  0  0
   13.6260   -3.2106    0.0000 O   0  0  0  0  0  0  0  0  0  0  0  0
    2.5369    1.7932    0.0000 O   0  0  0  0  0  0  0  0  0  0  0  0
   11.3969    0.7932    0.0000 C   0  0  1  0  0  0  0  0  0  0  0  0
   12.2629    1.2932    0.0000 C   0  0  1  0  0  0  0  0  0  0  0  0
   10.5309    1.2932    0.0000 C   0  0  1  0  0  0  0  0  0  0  0  0
   12.2629    2.2932    0.0000 C   0  0  0  0  0  0  0  0  0  0  0  0
   11.3969    2.7932    0.0000 C   0  0  0  0  0  0  0  0  0  0  0  0
   10.5309    2.2932    0.0000 C   0  0  0  0  0  0  0  0  0  0  0  0
   13.1289    0.7932    0.0000 C   0  0  0  0  0  0  0  0  0  0  0  0
    9.6648    0.7932    0.0000 C   0  0  0  0  0  0  0  0  0  0  0  0
   11.0549   -0.1465    0.0000 C   0  0  0  0  0  0  0  0  0  0  0  0
   11.3969    3.7932    0.0000 C   0  0  0  0  0  0  0  0  0  0  0  0
   13.9950    1.2932    0.0000 C   0  0  0  0  0  0  0  0  0  0  0  0
   11.6978   -0.9125    0.0000 C   0  0  0  0  0  0  0  0  0  0  0  0
    9.1648   -0.0728    0.0000 C   0  0  0  0  0  0  0  0  0  0  0  0
    9.1648    1.6593    0.0000 C   0  0  0  0  0  0  0  0  0  0  0  0
   13.1289   -0.2068    0.0000 C   0  0  0  0  0  0  0  0  0  0  0  0
    8.1648   -0.0728    0.0000 C   0  0  0  0  0  0  0  0  0  0  0  0
    8.1648    1.6593    0.0000 C   0  0  0  0  0  0  0  0  0  0  0  0
   14.8610    0.7932    0.0000 C   0  0  0  0  0  0  0  0  0  0  0  0
   13.9950   -0.7068    0.0000 C   0  0  0  0  0  0  0  0  0  0  0  0
    7.6648    0.7932    0.0000 C   0  0  0  0  0  0  0  0  0  0  0  0
   11.3557   -1.8522    0.0000 C   0  0  0  0  0  0  0  0  0  0  0  0
   12.6825   -0.7388    0.0000 C   0  0  0  0  0  0  0  0  0  0  0  0
   14.8610   -0.2068    0.0000 C   0  0  0  0  0  0  0  0  0  0  0  0
    6.6648    0.7932    0.0000 C   0  0  0  0  0  0  0  0  0  0  0  0
   11.9985   -2.6182    0.0000 C   0  0  0  0  0  0  0  0  0  0  0  0
   13.3253   -1.5049    0.0000 C   0  0  0  0  0  0  0  0  0  0  0  0
   12.9832   -2.4446    0.0000 C   0  0  0  0  0  0  0  0  0  0  0  0
    6.0812   -0.0115    0.0000 C   0  0  0  0  0  0  0  0  0  0  0  0
    5.1350    0.2932    0.0000 C   0  0  0  0  0  0  0  0  0  0  0  0
    5.1350    1.2932    0.0000 C   0  0  0  0  0  0  0  0  0  0  0  0
    4.2690   -0.2068    0.0000 C   0  0  0  0  0  0  0  0  0  0  0  0
    4.2690    1.7932    0.0000 C   0  0  0  0  0  0  0  0  0  0  0  0
    3.4030    1.2932    0.0000 C   0  0  0  0  0  0  0  0  0  0  0  0
    3.4030    0.2932    0.0000 C   0  0  0  0  0  0  0  0  0  0  0  0
   11.8718    0.3947    0.0000 H   0  0  0  0  0  0  0  0  0  0  0  0
   12.9990    1.7182    0.0000 H   0  0  0  0  0  0  0  0  0  0  0  0
   10.5309    0.4432    0.0000 H   0  0  0  0  0  0  0  0  0  0  0  0
   12.8735    2.1856    0.0000 H   0  0  0  0  0  0  0  0  0  0  0  0
   12.4750    2.8758    0.0000 H   0  0  0  0  0  0  0  0  0  0  0  0
    9.9939    2.6032    0.0000 H   0  0  0  0  0  0  0  0  0  0  0  0
   12.0169    3.7932    0.0000 H   0  0  0  0  0  0  0  0  0  0  0  0
   11.3969    4.4132    0.0000 H   0  0  0  0  0  0  0  0  0  0  0  0
   10.7769    3.7932    0.0000 H   0  0  0  0  0  0  0  0  0  0  0  0
   12.5920   -0.5168    0.0000 H   0  0  0  0  0  0  0  0  0  0  0  0
    7.8548   -0.6097    0.0000 H   0  0  0  0  0  0  0  0  0  0  0  0
    7.8548    2.1962    0.0000 H   0  0  0  0  0  0  0  0  0  0  0  0
   15.3979    1.1032    0.0000 H   0  0  0  0  0  0  0  0  0  0  0  0
   13.9950   -1.3268    0.0000 H   0  0  0  0  0  0  0  0  0  0  0  0
   12.8945   -0.1562    0.0000 H   0  0  0  0  0  0  0  0  0  0  0  0
   14.5319    2.6032    0.0000 H   0  0  0  0  0  0  0  0  0  0  0  0
    9.3548   -1.4757    0.0000 H   0  0  0  0  0  0  0  0  0  0  0  0
    9.3548    3.0622    0.0000 H   0  0  0  0  0  0  0  0  0  0  0  0
   11.7865   -3.2008    0.0000 H   0  0  0  0  0  0  0  0  0  0  0  0
   13.9358   -1.3972    0.0000 H   0  0  0  0  0  0  0  0  0  0  0  0
    6.2738   -0.6008    0.0000 H   0  0  0  0  0  0  0  0  0  0  0  0
   10.1589   -2.6084    0.0000 H   0  0  0  0  0  0  0  0  0  0  0  0
   15.7270   -1.3268    0.0000 H   0  0  0  0  0  0  0  0  0  0  0  0
    4.2690   -0.8268    0.0000 H   0  0  0  0  0  0  0  0  0  0  0  0
   13.4140   -3.7932    0.0000 H   0  0  0  0  0  0  0  0  0  0  0  0
    4.2690    2.4132    0.0000 H   0  0  0  0  0  0  0  0  0  0  0  0
    2.8660   -0.0168    0.0000 H   0  0  0  0  0  0  0  0  0  0  0  0
    2.0000    1.4832    0.0000 H   0  0  0  0  0  0  0  0  0  0  0  0
  1 18  2  0  0  0  0
  2 20  1  0  0  0  0
  2 59  1  0  0  0  0
  3 22  1  0  0  0  0
  3 60  1  0  0  0  0
  4 23  1  0  0  0  0
  4 61  1  0  0  0  0
  5 30  1  0  0  0  0
  5 65  1  0  0  0  0
  6 32  1  0  0  0  0
  6 66  1  0  0  0  0
  7 33  1  0  0  0  0
  7 39  1  0  0  0  0
  8 36  1  0  0  0  0
  8 68  1  0  0  0  0
  9 42  1  0  0  0  0
  9 71  1  0  0  0  0
 10 11  1  0  0  0  0
 10 12  1  0  0  0  0
 10 18  1  6  0  0  0
 10 44  1  0  0  0  0
 11 13  1  0  0  0  0
 11 16  1  0  0  0  0
 11 45  1  6  0  0  0
 12 15  1  0  0  0  0
 12 17  1  0  0  0  0
 12 46  1  1  0  0  0
 13 14  1  0  0  0  0
 13 47  1  0  0  0  0
 13 48  1  0  0  0  0
 14 15  2  0  0  0  0
 14 19  1  0  0  0  0
 15 49  1  0  0  0  0
 16 20  2  0  0  0  0
 16 24  1  0  0  0  0
 17 22  2  0  0  0  0
 17 23  1  0  0  0  0
 18 21  1  0  0  0  0
 19 50  1  0  0  0  0
 19 51  1  0  0  0  0
 19 52  1  0  0  0  0
 20 27  1  0  0  0  0
 21 30  2  0  0  0  0
 21 31  1  0  0  0  0
 22 25  1  0  0  0  0
 23 26  2  0  0  0  0
 24 28  2  0  0  0  0
 24 53  1  0  0  0  0
 25 29  2  0  0  0  0
 25 54  1  0  0  0  0
 26 29  1  0  0  0  0
 26 55  1  0  0  0  0
 27 32  2  0  0  0  0
 27 56  1  0  0  0  0
 28 32  1  0  0  0  0
 28 57  1  0  0  0  0
 29 33  1  0  0  0  0
 30 34  1  0  0  0  0
 31 35  2  0  0  0  0
 31 58  1  0  0  0  0
 33 37  2  0  0  0  0
 34 36  2  0  0  0  0
 34 62  1  0  0  0  0
 35 36  1  0  0  0  0
 35 63  1  0  0  0  0
 37 38  1  0  0  0  0
 37 64  1  0  0  0  0
 38 39  2  0  0  0  0
 38 40  1  0  0  0  0
 39 41  1  0  0  0  0
 40 43  2  0  0  0  0
 40 67  1  0  0  0  0
 41 42  2  0  0  0  0
 41 69  1  0  0  0  0
 42 43  1  0  0  0  0
 43 70  1  0  0  0  0
M  END
> <PUBCHEM_COMPOUND_CID>
157143

> <PUBCHEM_COMPOUND_CANONICALIZED>
1

> <PUBCHEM_CACTVS_COMPLEXITY>
1010

> <PUBCHEM_CACTVS_HBOND_ACCEPTOR>
9

> <PUBCHEM_CACTVS_HBOND_DONOR>
7

> <PUBCHEM_CACTVS_ROTATABLE_BOND>
5

> <PUBCHEM_CACTVS_SUBSKEYS>
AAADceB8PAAAAAAAAAAAAAAAAAAAASAAAAAwYMGCAAAAAEgB9AAAGgAACAAADQSAmAAyBsAABkCIAqBSAAACCAAkIAAIiAEGCMgMJzaGNRqCeWCl4BUIuYfK7PzO4AABCAAIAADAAAIQABAAAAAAAAAAAA==

> <PUBCHEM_IUPAC_OPENEYE_NAME>
[(1S,2R,6R)-2-[2,6-dihydroxy-4-(6-hydroxybenzofuran-2-yl)phenyl]-6-(2,4-dihydroxyphenyl)-4-methyl-cyclohex-3-en-1-yl]-(2,4-dihydroxyphenyl)methanone

> <PUBCHEM_IUPAC_CAS_NAME>
[(1S,2R,6R)-2-[2,6-dihydroxy-4-(6-hydroxy-2-benzofuranyl)phenyl]-6-(2,4-dihydroxyphenyl)-4-methyl-1-cyclohex-3-enyl]-(2,4-dihydroxyphenyl)methanone

> <PUBCHEM_IUPAC_NAME>
[(1S,2R,6R)-2-[2,6-dihydroxy-4-(6-hydroxy-1-benzofuran-2-yl)phenyl]-6-(2,4-dihydroxyphenyl)-4-methylcyclohex-3-en-1-yl]-(2,4-dihydroxyphenyl)methanone

> <PUBCHEM_IUPAC_SYSTEMATIC_NAME>
[(1S,2R,6R)-2-[2,6-bis(oxidanyl)-4-(6-oxidanyl-1-benzofuran-2-yl)phenyl]-6-[2,4-bis(oxidanyl)phenyl]-4-methyl-cyclohex-3-en-1-yl]-[2,4-bis(oxidanyl)phenyl]methanone

> <PUBCHEM_IUPAC_TRADITIONAL_NAME>
[(1S,2R,6R)-2-[2,6-dihydroxy-4-(6-hydroxybenzofuran-2-yl)phenyl]-6-(2,4-dihydroxyphenyl)-4-methyl-cyclohex-3-en-1-yl]-(2,4-dihydroxyphenyl)methanone

> <PUBCHEM_IUPAC_INCHI>
InChI=1S/C34H28O9/c1-16-8-24(22-6-4-19(35)13-26(22)38)32(34(42)23-7-5-20(36)14-27(23)39)25(9-16)33-28(40)10-18(11-29(33)41)30-12-17-2-3-21(37)15-31(17)43-30/h2-7,9-15,24-25,32,35-41H,8H2,1H3/t24-,25+,32-/m0/s1

> <PUBCHEM_IUPAC_INCHIKEY>
WTGKDESIYCVAOP-UNTHUGQZSA-N

> <PUBCHEM_XLOGP3_AA>
6

> <PUBCHEM_EXACT_MASS>
580.173332

> <PUBCHEM_MOLECULAR_FORMULA>
C34H28O9

> <PUBCHEM_MOLECULAR_WEIGHT>
580.58072

> <PUBCHEM_OPENEYE_CAN_SMILES>
CC1=CC(C(C(C1)C2=C(C=C(C=C2)O)O)C(=O)C3=C(C=C(C=C3)O)O)C4=C(C=C(C=C4O)C5=CC6=C(O5)C=C(C=C6)O)O

> <PUBCHEM_OPENEYE_ISO_SMILES>
CC1=C[C@H]([C@H]([C@@H](C1)C2=C(C=C(C=C2)O)O)C(=O)C3=C(C=C(C=C3)O)O)C4=C(C=C(C=C4O)C5=CC6=C(O5)C=C(C=C6)O)O

> <PUBCHEM_CACTVS_TPSA>
172

> <PUBCHEM_MONOISOTOPIC_WEIGHT>
580.173332

> <PUBCHEM_TOTAL_CHARGE>
0

> <PUBCHEM_HEAVY_ATOM_COUNT>
43

> <PUBCHEM_ATOM_DEF_STEREO_COUNT>
3

> <PUBCHEM_ATOM_UDEF_STEREO_COUNT>
0

> <PUBCHEM_BOND_DEF_STEREO_COUNT>
0

> <PUBCHEM_BOND_UDEF_STEREO_COUNT>
0

> <PUBCHEM_ISOTOPIC_ATOM_COUNT>
0

> <PUBCHEM_COMPONENT_COUNT>
1

> <PUBCHEM_CACTVS_TAUTO_COUNT>
994

> <PUBCHEM_COORDINATE_TYPE>
1
5
255

> <PUBCHEM_BONDANNOTATIONS>
10  18  6
11  45  6
12  46  5
16  20  8
16  24  8
17  22  8
17  23  8
20  27  8
21  30  8
21  31  8
22  25  8
23  26  8
24  28  8
25  29  8
26  29  8
27  32  8
28  32  8
30  34  8
31  35  8
33  37  8
34  36  8
35  36  8
37  38  8
38  39  8
38  40  8
39  41  8
40  43  8
41  42  8
42  43  8
7  33  8
7  39  8

$$$$

