86160
  -OEChem-07051213012D

 56 57  0     1  0  0  0  0  0999 V2000
    6.5878    0.5841    0.0000 O   0  0  0  0  0  0  0  0  0  0  0  0
    6.5878   -1.0340    0.0000 O   0  0  0  0  0  0  0  0  0  0  0  0
    9.2614    0.4561    0.0000 N   0  0  3  0  0  0  0  0  0  0  0  0
    4.0000   -0.2249    0.0000 C   0  0  0  0  0  0  0  0  0  0  0  0
    6.0000   -0.2249    0.0000 C   0  0  0  0  0  0  0  0  0  0  0  0
    4.5000    0.6411    0.0000 C   0  0  0  0  0  0  0  0  0  0  0  0
    4.5000   -1.0910    0.0000 C   0  0  0  0  0  0  0  0  0  0  0  0
    3.0000   -0.2249    0.0000 C   0  0  0  0  0  0  0  0  0  0  0  0
    5.5000    0.6411    0.0000 C   0  0  0  0  0  0  0  0  0  0  0  0
    5.5000   -1.0910    0.0000 C   0  0  0  0  0  0  0  0  0  0  0  0
    7.5388    0.2751    0.0000 C   0  0  3  0  0  0  0  0  0  0  0  0
    7.5388   -0.7249    0.0000 C   0  0  0  0  0  0  0  0  0  0  0  0
    2.0000   -0.2249    0.0000 C   0  0  0  0  0  0  0  0  0  0  0  0
    3.0000   -1.2249    0.0000 C   0  0  0  0  0  0  0  0  0  0  0  0
    3.0000    0.7751    0.0000 C   0  0  0  0  0  0  0  0  0  0  0  0
    8.3479    0.8628    0.0000 C   0  0  0  0  0  0  0  0  0  0  0  0
   10.0704    1.0439    0.0000 C   0  0  0  0  0  0  0  0  0  0  0  0
    9.3659   -0.5384    0.0000 C   0  0  0  0  0  0  0  0  0  0  0  0
   10.9840    0.6372    0.0000 C   0  0  0  0  0  0  0  0  0  0  0  0
   10.2795   -0.9452    0.0000 C   0  0  0  0  0  0  0  0  0  0  0  0
   11.7930    1.2249    0.0000 C   0  0  0  0  0  0  0  0  0  0  0  0
    3.6900   -0.7619    0.0000 H   0  0  0  0  0  0  0  0  0  0  0  0
    3.9174   -1.3030    0.0000 H   0  0  0  0  0  0  0  0  0  0  0  0
    4.6077   -1.7016    0.0000 H   0  0  0  0  0  0  0  0  0  0  0  0
    4.6077    1.2517    0.0000 H   0  0  0  0  0  0  0  0  0  0  0  0
    3.9174    0.8531    0.0000 H   0  0  0  0  0  0  0  0  0  0  0  0
    5.3923   -1.7016    0.0000 H   0  0  0  0  0  0  0  0  0  0  0  0
    6.0826   -1.3030    0.0000 H   0  0  0  0  0  0  0  0  0  0  0  0
    6.0826    0.8531    0.0000 H   0  0  0  0  0  0  0  0  0  0  0  0
    5.3923    1.2517    0.0000 H   0  0  0  0  0  0  0  0  0  0  0  0
    7.4418    0.8874    0.0000 H   0  0  0  0  0  0  0  0  0  0  0  0
    7.6678   -1.3314    0.0000 H   0  0  0  0  0  0  0  0  0  0  0  0
    8.1554   -0.6601    0.0000 H   0  0  0  0  0  0  0  0  0  0  0  0
    3.6200    0.7751    0.0000 H   0  0  0  0  0  0  0  0  0  0  0  0
    3.0000    1.3951    0.0000 H   0  0  0  0  0  0  0  0  0  0  0  0
    2.3800    0.7751    0.0000 H   0  0  0  0  0  0  0  0  0  0  0  0
    2.3800   -1.2249    0.0000 H   0  0  0  0  0  0  0  0  0  0  0  0
    3.0000   -1.8449    0.0000 H   0  0  0  0  0  0  0  0  0  0  0  0
    3.6200   -1.2249    0.0000 H   0  0  0  0  0  0  0  0  0  0  0  0
    2.0000    0.3951    0.0000 H   0  0  0  0  0  0  0  0  0  0  0  0
    1.3800   -0.2249    0.0000 H   0  0  0  0  0  0  0  0  0  0  0  0
    2.0000   -0.8449    0.0000 H   0  0  0  0  0  0  0  0  0  0  0  0
    8.6946    1.3768    0.0000 H   0  0  0  0  0  0  0  0  0  0  0  0
    7.9019    1.2935    0.0000 H   0  0  0  0  0  0  0  0  0  0  0  0
   10.4171    1.5579    0.0000 H   0  0  0  0  0  0  0  0  0  0  0  0
    9.6244    1.4746    0.0000 H   0  0  0  0  0  0  0  0  0  0  0  0
    8.7474   -0.4952    0.0000 H   0  0  0  0  0  0  0  0  0  0  0  0
    9.2159   -1.1400    0.0000 H   0  0  0  0  0  0  0  0  0  0  0  0
   10.6373    0.1232    0.0000 H   0  0  0  0  0  0  0  0  0  0  0  0
   11.4300    0.2065    0.0000 H   0  0  0  0  0  0  0  0  0  0  0  0
   10.0273   -1.5116    0.0000 H   0  0  0  0  0  0  0  0  0  0  0  0
   10.8459   -1.1973    0.0000 H   0  0  0  0  0  0  0  0  0  0  0  0
   10.5317   -0.3788    0.0000 H   0  0  0  0  0  0  0  0  0  0  0  0
   12.1574    0.7234    0.0000 H   0  0  0  0  0  0  0  0  0  0  0  0
   12.2946    1.5894    0.0000 H   0  0  0  0  0  0  0  0  0  0  0  0
   11.4286    1.7265    0.0000 H   0  0  0  0  0  0  0  0  0  0  0  0
  1  5  1  0  0  0  0
  1 11  1  0  0  0  0
  2  5  1  0  0  0  0
  2 12  1  0  0  0  0
  3 16  1  0  0  0  0
  3 17  1  0  0  0  0
  3 18  1  0  0  0  0
  4  6  1  0  0  0  0
  4  7  1  0  0  0  0
  4  8  1  0  0  0  0
  4 22  1  0  0  0  0
  5  9  1  0  0  0  0
  5 10  1  0  0  0  0
  6  9  1  0  0  0  0
  6 25  1  0  0  0  0
  6 26  1  0  0  0  0
  7 10  1  0  0  0  0
  7 23  1  0  0  0  0
  7 24  1  0  0  0  0
  8 13  1  0  0  0  0
  8 14  1  0  0  0  0
  8 15  1  0  0  0  0
  9 29  1  0  0  0  0
  9 30  1  0  0  0  0
 10 27  1  0  0  0  0
 10 28  1  0  0  0  0
 11 12  1  0  0  0  0
 11 16  1  0  0  0  0
 11 31  1  0  0  0  0
 12 32  1  0  0  0  0
 12 33  1  0  0  0  0
 13 40  1  0  0  0  0
 13 41  1  0  0  0  0
 13 42  1  0  0  0  0
 14 37  1  0  0  0  0
 14 38  1  0  0  0  0
 14 39  1  0  0  0  0
 15 34  1  0  0  0  0
 15 35  1  0  0  0  0
 15 36  1  0  0  0  0
 16 43  1  0  0  0  0
 16 44  1  0  0  0  0
 17 19  1  0  0  0  0
 17 45  1  0  0  0  0
 17 46  1  0  0  0  0
 18 20  1  0  0  0  0
 18 47  1  0  0  0  0
 18 48  1  0  0  0  0
 19 21  1  0  0  0  0
 19 49  1  0  0  0  0
 19 50  1  0  0  0  0
 20 51  1  0  0  0  0
 20 52  1  0  0  0  0
 20 53  1  0  0  0  0
 21 54  1  0  0  0  0
 21 55  1  0  0  0  0
 21 56  1  0  0  0  0
M  END
> <PUBCHEM_COMPOUND_CID>
86160

> <PUBCHEM_COMPOUND_CANONICALIZED>
1

> <PUBCHEM_CACTVS_COMPLEXITY>
316

> <PUBCHEM_CACTVS_HBOND_ACCEPTOR>
3

> <PUBCHEM_CACTVS_HBOND_DONOR>
0

> <PUBCHEM_CACTVS_ROTATABLE_BOND>
6

> <PUBCHEM_CACTVS_SUBSKEYS>
AAADcfB6MAAAAAAAAAAAAAAAAAAAASAAAAAwAAAAAAAAAAAAAAAAHgAAAAAADxThgAYCCAMABAAAAAAAAAAAAAAAAAAAAAAIAAATAAIAAAAnAAAGAACWAAGAwNAPgAAAAAAAAABAAAAAAAAAAAAAAAAAAA==

> <PUBCHEM_IUPAC_OPENEYE_NAME>
N-[(8-tert-butyl-1,4-dioxaspiro[4.5]decan-3-yl)methyl]-N-ethyl-propan-1-amine

> <PUBCHEM_IUPAC_CAS_NAME>
N-[(8-tert-butyl-1,4-dioxaspiro[4.5]decan-3-yl)methyl]-N-ethyl-1-propanamine

> <PUBCHEM_IUPAC_NAME>
N-[(8-tert-butyl-1,4-dioxaspiro[4.5]decan-3-yl)methyl]-N-ethylpropan-1-amine

> <PUBCHEM_IUPAC_SYSTEMATIC_NAME>
N-[(8-tert-butyl-1,4-dioxaspiro[4.5]decan-3-yl)methyl]-N-ethyl-propan-1-amine

> <PUBCHEM_IUPAC_TRADITIONAL_NAME>
(8-tert-butyl-1,4-dioxaspiro[4.5]decan-3-yl)methyl-ethyl-propyl-amine

> <PUBCHEM_IUPAC_INCHI>
InChI=1S/C18H35NO2/c1-6-12-19(7-2)13-16-14-20-18(21-16)10-8-15(9-11-18)17(3,4)5/h15-16H,6-14H2,1-5H3

> <PUBCHEM_IUPAC_INCHIKEY>
PUYXTUJWRLOUCW-UHFFFAOYSA-N

> <PUBCHEM_XLOGP3_AA>
4.2

> <PUBCHEM_EXACT_MASS>
297.266779

> <PUBCHEM_MOLECULAR_FORMULA>
C18H35NO2

> <PUBCHEM_MOLECULAR_WEIGHT>
297.476

> <PUBCHEM_OPENEYE_CAN_SMILES>
CCCN(CC)CC1COC2(O1)CCC(CC2)C(C)(C)C

> <PUBCHEM_OPENEYE_ISO_SMILES>
CCCN(CC)CC1COC2(O1)CCC(CC2)C(C)(C)C

> <PUBCHEM_CACTVS_TPSA>
21.7

> <PUBCHEM_MONOISOTOPIC_WEIGHT>
297.266779

> <PUBCHEM_TOTAL_CHARGE>
0

> <PUBCHEM_HEAVY_ATOM_COUNT>
21

> <PUBCHEM_ATOM_DEF_STEREO_COUNT>
0

> <PUBCHEM_ATOM_UDEF_STEREO_COUNT>
1

> <PUBCHEM_BOND_DEF_STEREO_COUNT>
0

> <PUBCHEM_BOND_UDEF_STEREO_COUNT>
0

> <PUBCHEM_ISOTOPIC_ATOM_COUNT>
0

> <PUBCHEM_COMPONENT_COUNT>
1

> <PUBCHEM_CACTVS_TAUTO_COUNT>
1

> <PUBCHEM_COORDINATE_TYPE>
1
5
255

> <PUBCHEM_BONDANNOTATIONS>
11  16  3

$$$$

