   Color/Form

     * CLEAR, COLORLESS, OILY LIQUID
     * Clear liquid at ambient temperatures
     * Colorless liquid [Note: Decomposes slowly, becomes acidic & darkens
       in color].
     * Colorless, oily liquid

   from [1]HSDB

   Odor

     * Pleasant odor
     * Chloroform-like odor
     * Sweet

   from [2]HSDB

   Taste
        Sweet taste
   from [3]HSDB

   Boiling Point
        83.5 deg C
   from [4]HSDB

   Melting Point
        -35.3 deg C
   from [5]HSDB

   Corrosivity

     * Corrodes iron and other metals at elevated temperatures when in
       contact with water.
     * Iron and zinc do not corrode when dry 1,2-dichloroethane is used,
       whereas aluminum shows strong dissolution. Increased water content
       leads to increased corrosion of iron and zinc; aluminum, however,
       corrodes less.

   from [6]HSDB

   Critical Temperature and Pressure
        CRITICAL TEMP: 290 DEG C; CRITICAL PRESSURE: 52.90 ATM.
   from [7]HSDB

   Density/Specific Gravity
        1.2351 @ 20 deg C
   from [8]HSDB

   Heat of Combustion
        12.57 kJ/g
   from [9]HSDB

   Heat of Vaporization
        76.4 CAL/G
   from [10]HSDB

   Octanol/Water Partition Coefficient
        log Kow = 1.48
   from [11]HSDB

   Solubilities

     * 0.869 G/100 ML WATER @ 20 DEG C
     * Miscible with alcohol, chloroform, ether
     * Soluble in acetone; very soluble in ethanol; miscible in ethyl
       ether.
     * Soluble in benzene, carbon tetrachloride, and organic solvents.
     * Miscible with alcohol
     * Solubility in water @ 20 deg C - 0.86% wt
     * In water, 8,600 mg/l @ 25 deg C.

   from [12]HSDB

   Spectral Properties

     * UV absorbance (1 cm cell vs water) @ wavelength 400-300 nm=
       absorbance of 0.01 ... @ wavelength 230 nm= absorbance of 1.0 /from
       table/.
     * Index of refraction: 1.4448 @ 20 deg C/D
     * Intense mass spectral peaks: 62 m/z (100%), 49 m/z (40%), 64 m/z
       (32%), 63 m/z (19%)
     * IR: 20 (Sadtler Research Laboratories IR Grating Collection)
     * NMR: 7304 (Sadtler Research Laboratories Spectral Collection)
     * MASS: 216 (Atlas of Mass Spectral Data, John Wiley & Sons, New
       York)

   from [13]HSDB

   Surface Tension
        32.2 dynes/cm = 0.0322 N/m at 20 deg C
   from [14]HSDB

   Vapor Pressure
        78.9 mm Hg @ 25 deg C
   from [15]HSDB

   Viscosity
        0.84 cP @ 20 deg C
   from [16]HSDB

   Other Chemical/Physical Properties

     * 1 PPM IN AIR= 4 MG/CU M
     * Resistant to oxidation
     * LIQUID-WATER INTERFACIAL TENSION: (EST) 30 DYNES/CM @ 25 DEG C;
       RATIO OF SPECIFIC HEAT OF VAPOR: 1.118
     * Thermal conductivity: 0.143 W/(MK) @ 20 deg C (liq)
     * Dielectric constant: 10.45 @ 20 deg C (liq), 1.0048 @ 120 deg C
       (vapor)
     * Dipole moment: 1.57 debye
     * Coefficient of cubical expansion: 0.00116 ml/g @ 0-30 deg C
     * Heat of formation: 157.3 kJ/gmole (liq) 122.6 kJ/gmole (vapor)
     * Specific heat: 1.288 @ 20 deg C, liq; 1.066 @ 20 deg C, gas
     * Latent heat of fusion: 88.36 J/g
     * Saturation concn 350 g/cu m (20 deg C), 537 g/cu m (30 deg C).
     * Latent heat of sublimation= 35.4 kJ/mole @ 25 deg C.
     * Ionization potential= 11.04 eV.
     * Heat capacity at constant pressure= 135 J/mole 0 deg C @ 25 deg C,
       at constant volume= 121 J/mole 0 deg C (25 deg C).
     * Liquid interfacial tension with air 24.15 m N/m @ 20 deg C.
     * IN PRESENCE OF AIR, MOISTURE & LIGHT, @ ORDINARY TEMP, DARKENS IN
       COLOR.
     * Gibbs (free) energy of formation @ 25 deg C: -19.03 kcal/mole
       (liq), -17.65 kcal/mole (gas); entropy @ 25 deg C: 49.84
       cal/deg/mole (liq), 73.66 cal/deg/mole (gas)
     * Ethylene dichloride forms azeotropes with: 18% allyl alcohol, bp
       79.9 deg C; 6% tert-amyl alcohol, bp 83 deg C; 79% carbon
       tetrachloride, bp 75.6 deg C; 19.5% 1,1-dichloroethane, bp 72 deg
       C; 17% ethanol, bp 70.3 deg C; 38% formic acid, bp 77.4 deg C; 6.5%
       isobutanol, bp 83.5 deg C; 43.5% isopropyl alcohol, bp 74.7 deg C;
       19% propanol, bp 80.7 deg C; 10% n-propyl formate 84.1, bp deg C;
       18% trichloroethylene, bp 82.9 deg C; 12% methanol, bp 61 deg C;
       8.2% water, bp 70.5 deg C
     * Specific resistivity: 9.0x10+6 ohms/cm.
     * Henry's Law constant = 1.18X10-3 atm-cu m/mole @ 25 deg C
     * Hydroxyl radical reaction rate constant = 2.48X10-13 cu
       cm/molecule-sec @ 25 deg C

   from [17]HSDB

   Computed Properties
   Molecular Weight                  98.95916 [g/mol]
   Molecular Formula                 C[2]H[4]Cl[2]
   XLogP3                            1.5
   H-Bond Donor                      0
   H-Bond Acceptor                   0
   Rotatable Bond Count              1
   Exact Mass                        97.969005
   MonoIsotopic Mass                 97.969005
   Topological Polar Surface Area    0
   Heavy Atom Count                  4
   Formal Charge                     0
   Complexity                        6
   Isotope Atom Count                0
   Defined Atom Stereocenter Count   0
   Undefined Atom Stereocenter Count 0
   Defined Bond Stereocenter Count   0
   Undefined Bond Stereocenter Count 0
   Covalently-Bonded Unit Count      1
   Effective Rotor Count             1
   Conformer Sampling RMSD           0.4
   CID Conformer Count               [18]3

References

   1. http://toxnet.nlm.nih.gov/cgi-bin/sis/search/r?dbs+hsdb:@term+@rn+@rel+107-06-2
   2. http://toxnet.nlm.nih.gov/cgi-bin/sis/search/r?dbs+hsdb:@term+@rn+@rel+107-06-2
   3. http://toxnet.nlm.nih.gov/cgi-bin/sis/search/r?dbs+hsdb:@term+@rn+@rel+107-06-2
   4. http://toxnet.nlm.nih.gov/cgi-bin/sis/search/r?dbs+hsdb:@term+@rn+@rel+107-06-2
   5. http://toxnet.nlm.nih.gov/cgi-bin/sis/search/r?dbs+hsdb:@term+@rn+@rel+107-06-2
   6. http://toxnet.nlm.nih.gov/cgi-bin/sis/search/r?dbs+hsdb:@term+@rn+@rel+107-06-2
   7. http://toxnet.nlm.nih.gov/cgi-bin/sis/search/r?dbs+hsdb:@term+@rn+@rel+107-06-2
   8. http://toxnet.nlm.nih.gov/cgi-bin/sis/search/r?dbs+hsdb:@term+@rn+@rel+107-06-2
   9. http://toxnet.nlm.nih.gov/cgi-bin/sis/search/r?dbs+hsdb:@term+@rn+@rel+107-06-2
  10. http://toxnet.nlm.nih.gov/cgi-bin/sis/search/r?dbs+hsdb:@term+@rn+@rel+107-06-2
  11. http://toxnet.nlm.nih.gov/cgi-bin/sis/search/r?dbs+hsdb:@term+@rn+@rel+107-06-2
  12. http://toxnet.nlm.nih.gov/cgi-bin/sis/search/r?dbs+hsdb:@term+@rn+@rel+107-06-2
  13. http://toxnet.nlm.nih.gov/cgi-bin/sis/search/r?dbs+hsdb:@term+@rn+@rel+107-06-2
  14. http://toxnet.nlm.nih.gov/cgi-bin/sis/search/r?dbs+hsdb:@term+@rn+@rel+107-06-2
  15. http://toxnet.nlm.nih.gov/cgi-bin/sis/search/r?dbs+hsdb:@term+@rn+@rel+107-06-2
  16. http://toxnet.nlm.nih.gov/cgi-bin/sis/search/r?dbs+hsdb:@term+@rn+@rel+107-06-2
  17. http://toxnet.nlm.nih.gov/cgi-bin/sis/search/r?dbs+hsdb:@term+@rn+@rel+107-06-2
  18. http://pubchem.ncbi.nlm.nih.gov/vw3d/vw3d.cgi?cid=11
