   Color/Form
        COLORLESS TO YELLOW VISCOUS LIQUID
   from [1]HSDB

   Boiling Point
        245 DEG C @ 10 MM HG
   from [2]HSDB

   Melting Point
        5.5 DEG C
   from [3]HSDB

   Density/Specific Gravity
        0.940 @ 27.4 DEG C/4 DEG C
   from [4]HSDB

   Solubilities

     * SOL IN ALCOHOL, ACETONE, ETHER, CHLOROFORM
     * INSOLUBLE IN WATER

   from [5]HSDB

   Spectral Properties

     * SPECIFIC OPTICAL ROTATION: +6.67 DEG @ 22 DEG C/D; +7.15 DEG @ 26
       DEG C/D (C= 5 IN ACETONE); INDEX OF REFRACTION: 1.4716 @ 20 DEG C/D
     * MAX ABSORPTION LESS THAN 210 NM
     * IR: 21992 (Sadtler Research Laboratories Prism Collection)
     * NMR: 9779 (Sadtler Research Laboratories Spectral Collection)

   from [6]HSDB

   Other Chemical/Physical Properties
        NEUTRALIZATION VALUE 187.98; IODINE VALUE 85.05
   from [7]HSDB

   Computed Properties
   Molecular Weight                  298.46076 [g/mol]
   Molecular Formula                 C[18]H[34]O[3]
   XLogP3-AA                         5.7
   H-Bond Donor                      2
   H-Bond Acceptor                   3
   Rotatable Bond Count              15
   Exact Mass                        298.250795
   MonoIsotopic Mass                 298.250795
   Topological Polar Surface Area    57.5
   Heavy Atom Count                  21
   Formal Charge                     0
   Complexity                        261
   Isotope Atom Count                0
   Defined Atom Stereocenter Count   1
   Undefined Atom Stereocenter Count 0
   Defined Bond Stereocenter Count   1
   Undefined Bond Stereocenter Count 0
   Covalently-Bonded Unit Count      1
   Feature 3D Acceptor Count         3
   Feature 3D Donor Count            1
   Feature 3D Anion Count            1
   Feature 3D Hydrophobe Count       2
   Effective Rotor Count             15
   Conformer Sampling RMSD           1.4
   CID Conformer Count               [8]118

References

   1. http://toxnet.nlm.nih.gov/cgi-bin/sis/search/r?dbs+hsdb:@term+@rn+@rel+141-22-0
   2. http://toxnet.nlm.nih.gov/cgi-bin/sis/search/r?dbs+hsdb:@term+@rn+@rel+141-22-0
   3. http://toxnet.nlm.nih.gov/cgi-bin/sis/search/r?dbs+hsdb:@term+@rn+@rel+141-22-0
   4. http://toxnet.nlm.nih.gov/cgi-bin/sis/search/r?dbs+hsdb:@term+@rn+@rel+141-22-0
   5. http://toxnet.nlm.nih.gov/cgi-bin/sis/search/r?dbs+hsdb:@term+@rn+@rel+141-22-0
   6. http://toxnet.nlm.nih.gov/cgi-bin/sis/search/r?dbs+hsdb:@term+@rn+@rel+141-22-0
   7. http://toxnet.nlm.nih.gov/cgi-bin/sis/search/r?dbs+hsdb:@term+@rn+@rel+141-22-0
   8. http://pubchem.ncbi.nlm.nih.gov/vw3d/vw3d.cgi?cid=643684
