169508
  -OEChem-07051212492D

 30 31  0     1  0  0  0  0  0999 V2000
    4.2690   -1.8100    0.0000 O   0  0  0  0  0  0  0  0  0  0  0  0
    2.5369   -0.8100    0.0000 O   0  0  0  0  0  0  0  0  0  0  0  0
    7.7494   -1.8446    0.0000 O   0  0  0  0  0  0  0  0  0  0  0  0
    6.0010   -0.8100    0.0000 N   0  0  0  0  0  0  0  0  0  0  0  0
    6.0010    1.1900    0.0000 N   0  0  0  0  0  0  0  0  0  0  0  0
    7.7610    1.2246    0.0000 N   0  0  0  0  0  0  0  0  0  0  0  0
    8.6671   -0.3308    0.0000 N   0  0  0  0  0  0  0  0  0  0  0  0
    9.5312    1.2141    0.0000 N   0  0  0  0  0  0  0  0  0  0  0  0
    5.1350   -0.3100    0.0000 C   0  0  3  0  0  0  0  0  0  0  0  0
    5.1350    0.6900    0.0000 C   0  0  0  0  0  0  0  0  0  0  0  0
    6.8671   -0.3100    0.0000 C   0  0  0  0  0  0  0  0  0  0  0  0
    6.8671    0.6900    0.0000 C   0  0  0  0  0  0  0  0  0  0  0  0
    4.2690   -0.8100    0.0000 C   0  0  0  0  0  0  0  0  0  0  0  0
    3.4030   -0.3100    0.0000 C   0  0  3  0  0  0  0  0  0  0  0  0
    7.7610   -0.8447    0.0000 C   0  0  0  0  0  0  0  0  0  0  0  0
    3.4030    0.6900    0.0000 C   0  0  0  0  0  0  0  0  0  0  0  0
    8.6671    0.7108    0.0000 C   0  0  0  0  0  0  0  0  0  0  0  0
    5.1350   -0.9300    0.0000 H   0  0  0  0  0  0  0  0  0  0  0  0
    4.9230    1.2726    0.0000 H   0  0  0  0  0  0  0  0  0  0  0  0
    4.5244    0.5823    0.0000 H   0  0  0  0  0  0  0  0  0  0  0  0
    6.0010   -1.4300    0.0000 H   0  0  0  0  0  0  0  0  0  0  0  0
    6.0010    1.8100    0.0000 H   0  0  0  0  0  0  0  0  0  0  0  0
    3.4030   -0.9300    0.0000 H   0  0  0  0  0  0  0  0  0  0  0  0
    7.7538    1.8446    0.0000 H   0  0  0  0  0  0  0  0  0  0  0  0
    4.0230    0.6900    0.0000 H   0  0  0  0  0  0  0  0  0  0  0  0
    3.4030    1.3100    0.0000 H   0  0  0  0  0  0  0  0  0  0  0  0
    2.7830    0.6900    0.0000 H   0  0  0  0  0  0  0  0  0  0  0  0
    2.0000   -0.5000    0.0000 H   0  0  0  0  0  0  0  0  0  0  0  0
   10.0693    0.9062    0.0000 H   0  0  0  0  0  0  0  0  0  0  0  0
    9.5288    1.8341    0.0000 H   0  0  0  0  0  0  0  0  0  0  0  0
  1 13  2  0  0  0  0
  2 14  1  0  0  0  0
  2 28  1  0  0  0  0
  3 15  2  0  0  0  0
  4  9  1  0  0  0  0
  4 11  1  0  0  0  0
  4 21  1  0  0  0  0
  5 10  1  0  0  0  0
  5 12  1  0  0  0  0
  5 22  1  0  0  0  0
  6 12  1  0  0  0  0
  6 17  1  0  0  0  0
  6 24  1  0  0  0  0
  7 15  1  0  0  0  0
  7 17  2  0  0  0  0
  8 17  1  0  0  0  0
  8 29  1  0  0  0  0
  8 30  1  0  0  0  0
  9 10  1  0  0  0  0
  9 13  1  0  0  0  0
  9 18  1  0  0  0  0
 10 19  1  0  0  0  0
 10 20  1  0  0  0  0
 11 12  2  0  0  0  0
 11 15  1  0  0  0  0
 13 14  1  0  0  0  0
 14 16  1  0  0  0  0
 14 23  1  0  0  0  0
 16 25  1  0  0  0  0
 16 26  1  0  0  0  0
 16 27  1  0  0  0  0
M  END
> <PUBCHEM_COMPOUND_CID>
169508

> <PUBCHEM_COMPOUND_CANONICALIZED>
1

> <PUBCHEM_CACTVS_COMPLEXITY>
442

> <PUBCHEM_CACTVS_HBOND_ACCEPTOR>
5

> <PUBCHEM_CACTVS_HBOND_DONOR>
5

> <PUBCHEM_CACTVS_ROTATABLE_BOND>
2

> <PUBCHEM_CACTVS_SUBSKEYS>
AAADccBzsAAAAAAAAAAAAAAAAAAAAAAAAAAgQAAAAAAAAACAAAAAHgAQCAAACDzhgAYDAALAAgCoAIVQdAKAAAEAAAABAIHIAECAUAoAgCAUQAAOEAKAAEAwAAAAAAAAAAAAAAAAAAAAAAAAAAAAAAAAAA==

> <PUBCHEM_IUPAC_OPENEYE_NAME>
2-amino-6-(2-hydroxypropanoyl)-5,6,7,8-tetrahydro-1H-pteridin-4-one

> <PUBCHEM_IUPAC_CAS_NAME>
2-amino-6-(2-hydroxy-1-oxopropyl)-5,6,7,8-tetrahydro-1H-pteridin-4-one

> <PUBCHEM_IUPAC_NAME>
2-amino-6-(2-hydroxypropanoyl)-5,6,7,8-tetrahydro-1H-pteridin-4-one

> <PUBCHEM_IUPAC_SYSTEMATIC_NAME>
2-azanyl-6-(2-oxidanylpropanoyl)-5,6,7,8-tetrahydro-1H-pteridin-4-one

> <PUBCHEM_IUPAC_TRADITIONAL_NAME>
2-amino-6-lactoyl-5,6,7,8-tetrahydro-1H-pteridin-4-one

> <PUBCHEM_IUPAC_INCHI>
InChI=1S/C9H13N5O3/c1-3(15)6(16)4-2-11-7-5(12-4)8(17)14-9(10)13-7/h3-4,12,15H,2H2,1H3,(H4,10,11,13,14,17)

> <PUBCHEM_IUPAC_INCHIKEY>
HKCYZTKHPLJZDR-UHFFFAOYSA-N

> <PUBCHEM_XLOGP3_AA>
-1.6

> <PUBCHEM_EXACT_MASS>
239.101839

> <PUBCHEM_MOLECULAR_FORMULA>
C9H13N5O3

> <PUBCHEM_MOLECULAR_WEIGHT>
239.23122

> <PUBCHEM_OPENEYE_CAN_SMILES>
CC(C(=O)C1CNC2=C(N1)C(=O)N=C(N2)N)O

> <PUBCHEM_OPENEYE_ISO_SMILES>
CC(C(=O)C1CNC2=C(N1)C(=O)N=C(N2)N)O

> <PUBCHEM_CACTVS_TPSA>
129

> <PUBCHEM_MONOISOTOPIC_WEIGHT>
239.101839

> <PUBCHEM_TOTAL_CHARGE>
0

> <PUBCHEM_HEAVY_ATOM_COUNT>
17

> <PUBCHEM_ATOM_DEF_STEREO_COUNT>
0

> <PUBCHEM_ATOM_UDEF_STEREO_COUNT>
2

> <PUBCHEM_BOND_DEF_STEREO_COUNT>
0

> <PUBCHEM_BOND_UDEF_STEREO_COUNT>
0

> <PUBCHEM_ISOTOPIC_ATOM_COUNT>
0

> <PUBCHEM_COMPONENT_COUNT>
1

> <PUBCHEM_CACTVS_TAUTO_COUNT>
128

> <PUBCHEM_COORDINATE_TYPE>
1
5
255

> <PUBCHEM_BONDANNOTATIONS>
11  12  8
11  15  8
14  2  3
6  12  8
6  17  8
7  15  8
7  17  8
9  13  3

$$$$

