166760
  -OEChem-07051212492D

 39 40  0     1  0  0  0  0  0999 V2000
    6.8909   -3.5032    0.0000 P   0  0  0  0  0  0  0  0  0  0  0  0
    5.0298   -1.0386    0.0000 O   0  0  0  0  0  0  0  0  0  0  0  0
    2.4608   -0.7296    0.0000 O   0  0  0  0  0  0  0  0  0  0  0  0
    3.1330   -2.7987    0.0000 O   0  0  0  0  0  0  0  0  0  0  0  0
    6.3031   -2.6942    0.0000 O   0  0  0  0  0  0  0  0  0  0  0  0
    7.4787   -4.3122    0.0000 O   0  0  0  0  0  0  0  0  0  0  0  0
    7.6999   -2.9154    0.0000 O   0  0  0  0  0  0  0  0  0  0  0  0
    6.0819   -4.0910    0.0000 O   0  0  0  0  0  0  0  0  0  0  0  0
    6.3031    2.7925    0.0000 O   0  0  0  0  0  0  0  0  0  0  0  0
    7.6751    1.1881    0.0000 O   0  0  0  0  0  0  0  0  0  0  0  0
    4.2208    0.5492    0.0000 N   0  0  0  0  0  0  0  0  0  0  0  0
    3.7208    2.0880    0.0000 N   0  0  0  0  0  0  0  0  0  0  0  0
    5.9809    0.8280    0.0000 N   0  0  0  0  0  0  0  0  0  0  0  0
    4.9019    3.8106    0.0000 N   0  0  0  0  0  0  0  0  0  0  0  0
    3.4118   -1.0386    0.0000 C   0  0  2  0  0  0  0  0  0  0  0  0
    3.7208   -1.9897    0.0000 C   0  0  1  0  0  0  0  0  0  0  0  0
    4.2208   -0.4508    0.0000 C   0  0  1  0  0  0  0  0  0  0  0  0
    4.7208   -1.9897    0.0000 C   0  0  1  0  0  0  0  0  0  0  0  0
    5.3086   -2.7987    0.0000 C   0  0  0  0  0  0  0  0  0  0  0  0
    5.0298    1.1370    0.0000 C   0  0  0  0  0  0  0  0  0  0  0  0
    3.4118    1.1370    0.0000 C   0  0  0  0  0  0  0  0  0  0  0  0
    4.7208    2.0880    0.0000 C   0  0  0  0  0  0  0  0  0  0  0  0
    5.3086    2.8970    0.0000 C   0  0  0  0  0  0  0  0  0  0  0  0
    6.7240    1.4971    0.0000 C   0  0  0  0  0  0  0  0  0  0  0  0
    3.3148   -0.4262    0.0000 H   0  0  0  0  0  0  0  0  0  0  0  0
    3.1085   -1.8927    0.0000 H   0  0  0  0  0  0  0  0  0  0  0  0
    3.6684   -0.1693    0.0000 H   0  0  0  0  0  0  0  0  0  0  0  0
    5.3332   -1.8927    0.0000 H   0  0  0  0  0  0  0  0  0  0  0  0
    4.7514   -3.0705    0.0000 H   0  0  0  0  0  0  0  0  0  0  0  0
    5.4795   -3.3947    0.0000 H   0  0  0  0  0  0  0  0  0  0  0  0
    2.0000   -1.1444    0.0000 H   0  0  0  0  0  0  0  0  0  0  0  0
    3.3852   -3.3651    0.0000 H   0  0  0  0  0  0  0  0  0  0  0  0
    2.8222    0.9454    0.0000 H   0  0  0  0  0  0  0  0  0  0  0  0
    6.1098    0.2215    0.0000 H   0  0  0  0  0  0  0  0  0  0  0  0
    6.5951    2.1035    0.0000 H   0  0  0  0  0  0  0  0  0  0  0  0
    5.2663    4.3122    0.0000 H   0  0  0  0  0  0  0  0  0  0  0  0
    4.2853    3.8754    0.0000 H   0  0  0  0  0  0  0  0  0  0  0  0
    8.2663   -3.1676    0.0000 H   0  0  0  0  0  0  0  0  0  0  0  0
    8.0953   -4.2474    0.0000 H   0  0  0  0  0  0  0  0  0  0  0  0
  1  5  1  0  0  0  0
  1  6  1  0  0  0  0
  1  7  1  0  0  0  0
  1  8  2  0  0  0  0
  2 17  1  0  0  0  0
  2 18  1  0  0  0  0
 15  3  1  1  0  0  0
  3 31  1  0  0  0  0
 16  4  1  1  0  0  0
  4 32  1  0  0  0  0
  5 19  1  0  0  0  0
  6 39  1  0  0  0  0
  7 38  1  0  0  0  0
  9 23  2  0  0  0  0
 10 24  2  0  0  0  0
 17 11  1  6  0  0  0
 11 20  1  0  0  0  0
 11 21  1  0  0  0  0
 12 21  2  0  0  0  0
 12 22  1  0  0  0  0
 13 20  1  0  0  0  0
 13 24  1  0  0  0  0
 13 34  1  0  0  0  0
 14 23  1  0  0  0  0
 14 36  1  0  0  0  0
 14 37  1  0  0  0  0
 15 16  1  0  0  0  0
 15 17  1  0  0  0  0
 15 25  1  0  0  0  0
 16 18  1  0  0  0  0
 16 26  1  0  0  0  0
 17 27  1  0  0  0  0
 18 19  1  6  0  0  0
 18 28  1  0  0  0  0
 19 29  1  0  0  0  0
 19 30  1  0  0  0  0
 20 22  2  0  0  0  0
 21 33  1  0  0  0  0
 22 23  1  0  0  0  0
 24 35  1  0  0  0  0
M  END
> <PUBCHEM_COMPOUND_CID>
166760

> <PUBCHEM_COMPOUND_CANONICALIZED>
1

> <PUBCHEM_CACTVS_COMPLEXITY>
531

> <PUBCHEM_CACTVS_HBOND_ACCEPTOR>
10

> <PUBCHEM_CACTVS_HBOND_DONOR>
6

> <PUBCHEM_CACTVS_ROTATABLE_BOND>
6

> <PUBCHEM_CACTVS_SUBSKEYS>
AAADccBzvAIAAAAAAAAAAAAAAAAAAWJAAAAAAAAAAAAAAAABgAAAHgAQCCAACBzhlgYFsBfMFxCoQQdx9ICAgC0XEKABUIGoVECDWApAyCAeQIAPBQLTAGDwMAIAAAAAAAAAAAAAAAAAAAAAAAAAAAAAAA==

> <PUBCHEM_IUPAC_OPENEYE_NAME>
[(2R,3S,4R,5R)-5-(4-carbamoyl-5-formamido-imidazol-1-yl)-3,4-dihydroxy-tetrahydrofuran-2-yl]methyl dihydrogen phosphate

> <PUBCHEM_IUPAC_CAS_NAME>
[(2R,3S,4R,5R)-5-(4-carbamoyl-5-formamido-1-imidazolyl)-3,4-dihydroxy-2-oxolanyl]methyl dihydrogen phosphate

> <PUBCHEM_IUPAC_NAME>
[(2R,3S,4R,5R)-5-(4-carbamoyl-5-formamidoimidazol-1-yl)-3,4-dihydroxyoxolan-2-yl]methyl dihydrogen phosphate

> <PUBCHEM_IUPAC_SYSTEMATIC_NAME>
[(2R,3S,4R,5R)-5-(4-aminocarbonyl-5-formamido-imidazol-1-yl)-3,4-bis(oxidanyl)oxolan-2-yl]methyl dihydrogen phosphate

> <PUBCHEM_IUPAC_TRADITIONAL_NAME>
[(2R,3S,4R,5R)-5-(4-carbamoyl-5-formamido-imidazol-1-yl)-3,4-dihydroxy-tetrahydrofuran-2-yl]methyl dihydrogen phosphate

> <PUBCHEM_IUPAC_INCHI>
InChI=1S/C10H15N4O9P/c11-8(18)5-9(13-3-15)14(2-12-5)10-7(17)6(16)4(23-10)1-22-24(19,20)21/h2-4,6-7,10,16-17H,1H2,(H2,11,18)(H,13,15)(H2,19,20,21)/t4-,6-,7-,10-/m1/s1

> <PUBCHEM_IUPAC_INCHIKEY>
ABCOOORLYAOBOZ-KQYNXXCUSA-N

> <PUBCHEM_XLOGP3_AA>
-4

> <PUBCHEM_EXACT_MASS>
366.057665

> <PUBCHEM_MOLECULAR_FORMULA>
C10H15N4O9P

> <PUBCHEM_MOLECULAR_WEIGHT>
366.221262

> <PUBCHEM_OPENEYE_CAN_SMILES>
C1=NC(=C(N1C2C(C(C(O2)COP(=O)(O)O)O)O)NC=O)C(=O)N

> <PUBCHEM_OPENEYE_ISO_SMILES>
C1=NC(=C(N1[C@H]2[C@@H]([C@@H]([C@H](O2)COP(=O)(O)O)O)O)NC=O)C(=O)N

> <PUBCHEM_CACTVS_TPSA>
207

> <PUBCHEM_MONOISOTOPIC_WEIGHT>
366.057665

> <PUBCHEM_TOTAL_CHARGE>
0

> <PUBCHEM_HEAVY_ATOM_COUNT>
24

> <PUBCHEM_ATOM_DEF_STEREO_COUNT>
4

> <PUBCHEM_ATOM_UDEF_STEREO_COUNT>
0

> <PUBCHEM_BOND_DEF_STEREO_COUNT>
0

> <PUBCHEM_BOND_UDEF_STEREO_COUNT>
0

> <PUBCHEM_ISOTOPIC_ATOM_COUNT>
0

> <PUBCHEM_COMPONENT_COUNT>
1

> <PUBCHEM_CACTVS_TAUTO_COUNT>
7

> <PUBCHEM_COORDINATE_TYPE>
1
5
255

> <PUBCHEM_BONDANNOTATIONS>
17  11  6
11  20  8
11  21  8
12  21  8
12  22  8
18  19  6
20  22  8
15  3  5
16  4  5

$$$$

