   Color/Form

     * WHITE SOLID
     * Colorless crystals

   from [1]HSDB

   Melting Point
        70 deg C
   from [2]HSDB

   Corrosivity
        Non-corrosive in the dry state
   from [3]HSDB

   Octanol/Water Partition Coefficient
        log Kow = 4.45 /Estimated/
   from [4]HSDB

   Solubilities

     * Sol in ether and benzene; insol in water and alcohol
     * 4.3 G IN 100 ML PETROLEUM ETHER @ 25-30 DEG C; 125 G IN 100 ML
       ETHANOL @ 25-30 DEG C; 110 G IN 100 ML TOLUENE @ 25-30 DEG C

   from [5]HSDB

   Spectral Properties

     * MAX ABSORPTION (SULFURIC ACID): 240 NM (LOG E= 3.8); 325 NM (LOG E=
       4.2); 370 NM SHOULDER (LOG E= 3.5); MAX ABSORPTION (SURFURIC ACID):
       450 NM (LOG E= 4.9); 500 NM SHOULDER (LOG E= 3.01)
     * Intense mass spectral peaks: 251 m/z (100%), 139 m/z (88%), 43 m/z
       (86%), 253 m/z (62%)
     * IR: 3:683E (The Aldrich Handbook of Organic Chemicals and
       Biochemicals, Aldrich Chemical Co., Inc., New York; Aldrich Library
       of Infrared Spectra, Aldrich Chemical Co., Milwaukee, WI)
     * MASS: 53712 (NIST/EPA/MSDC Mass Spectral Database, 1990 Version);
       2878 (National Bureau of Standards)
     * UV: 3-445 (Phillip et al., Organic Electronic Spectral Data, John
       Wiley and Sons, New York)

   from [6]HSDB

   Vapor Pressure
        5.4X10-7 mm Hg @ 25 deg C /Estimated/
   from [7]HSDB

   Other Chemical/Physical Properties

     * Dehydrated on heating to give 1,1-di(p-chlorophenyl)ethylene
     * Said to be 4 to 8 times more volatile than DDT.
     * Henry's Law constant = 1.28X10-8 atm-cu m/mol @ 25 deg C
       /Estimated/
     * Hydroxyl radical reaction rate constant = 3.95X10-12 cu-cm/molecule
       sec @ 25 deg C /Estimated/

   from [8]HSDB

   Computed Properties
   Molecular Weight                  267.15048 [g/mol]
   Molecular Formula                 C[14]H[12]Cl[2]O
   XLogP3                            2.8
   H-Bond Donor                      1
   H-Bond Acceptor                   1
   Rotatable Bond Count              2
   Exact Mass                        266.02652
   MonoIsotopic Mass                 266.02652
   Topological Polar Surface Area    20.2
   Heavy Atom Count                  17
   Formal Charge                     0
   Complexity                        219
   Isotope Atom Count                0
   Defined Atom Stereocenter Count   0
   Undefined Atom Stereocenter Count 0
   Defined Bond Stereocenter Count   0
   Undefined Bond Stereocenter Count 0
   Covalently-Bonded Unit Count      1
   Feature 3D Acceptor Count         1
   Feature 3D Donor Count            1
   Feature 3D Ring Count             2
   Effective Rotor Count             2
   Conformer Sampling RMSD           0.6
   CID Conformer Count               [9]4

References

   1. http://toxnet.nlm.nih.gov/cgi-bin/sis/search/r?dbs+hsdb:@term+@rn+@rel+80-06-8
   2. http://toxnet.nlm.nih.gov/cgi-bin/sis/search/r?dbs+hsdb:@term+@rn+@rel+80-06-8
   3. http://toxnet.nlm.nih.gov/cgi-bin/sis/search/r?dbs+hsdb:@term+@rn+@rel+80-06-8
   4. http://toxnet.nlm.nih.gov/cgi-bin/sis/search/r?dbs+hsdb:@term+@rn+@rel+80-06-8
   5. http://toxnet.nlm.nih.gov/cgi-bin/sis/search/r?dbs+hsdb:@term+@rn+@rel+80-06-8
   6. http://toxnet.nlm.nih.gov/cgi-bin/sis/search/r?dbs+hsdb:@term+@rn+@rel+80-06-8
   7. http://toxnet.nlm.nih.gov/cgi-bin/sis/search/r?dbs+hsdb:@term+@rn+@rel+80-06-8
   8. http://toxnet.nlm.nih.gov/cgi-bin/sis/search/r?dbs+hsdb:@term+@rn+@rel+80-06-8
   9. http://pubchem.ncbi.nlm.nih.gov/vw3d/vw3d.cgi?cid=6624
