582841
  -OEChem-06241222442D

 25 25  0     1  0  0  0  0  0999 V2000
    4.3692    1.0194    0.0000 F   0  0  0  0  0  0  0  0  0  0  0  0
    5.3692    3.0194    0.0000 F   0  0  0  0  0  0  0  0  0  0  0  0
    6.3692    2.0194    0.0000 F   0  0  0  0  0  0  0  0  0  0  0  0
    4.3692    2.0194    0.0000 F   0  0  0  0  0  0  0  0  0  0  0  0
    6.3692    1.0194    0.0000 O   0  0  0  0  0  0  0  0  0  0  0  0
    6.2353   -0.4806    0.0000 O   0  0  0  0  0  0  0  0  0  0  0  0
    2.7431   -1.7594    0.0000 O   0  0  0  0  0  0  0  0  0  0  0  0
    5.0032   -3.0194    0.0000 O   0  0  0  0  0  0  0  0  0  0  0  0
    4.5032   -0.4806    0.0000 N   0  0  0  0  0  0  0  0  0  0  0  0
    5.3122   -2.0684    0.0000 N   0  0  0  0  0  0  0  0  0  0  0  0
    4.0032   -3.0194    0.0000 N   0  0  0  0  0  0  0  0  0  0  0  0
    5.3692    1.0194    0.0000 C   0  0  3  0  0  0  0  0  0  0  0  0
    5.3692    0.0194    0.0000 C   0  0  0  0  0  0  0  0  0  0  0  0
    5.3692    2.0194    0.0000 C   0  0  0  0  0  0  0  0  0  0  0  0
    4.5032   -1.4806    0.0000 C   0  0  0  0  0  0  0  0  0  0  0  0
    3.6942   -2.0684    0.0000 C   0  0  0  0  0  0  0  0  0  0  0  0
    6.8692    0.1534    0.0000 C   0  0  0  0  0  0  0  0  0  0  0  0
    2.0000   -2.4285    0.0000 C   0  0  0  0  0  0  0  0  0  0  0  0
    3.9663   -0.1706    0.0000 H   0  0  0  0  0  0  0  0  0  0  0  0
    6.3323   -0.1566    0.0000 H   0  0  0  0  0  0  0  0  0  0  0  0
    7.1792   -0.3835    0.0000 H   0  0  0  0  0  0  0  0  0  0  0  0
    7.4062    0.4634    0.0000 H   0  0  0  0  0  0  0  0  0  0  0  0
    1.5851   -1.9677    0.0000 H   0  0  0  0  0  0  0  0  0  0  0  0
    1.5392   -2.8433    0.0000 H   0  0  0  0  0  0  0  0  0  0  0  0
    2.4149   -2.8892    0.0000 H   0  0  0  0  0  0  0  0  0  0  0  0
  1 12  1  0  0  0  0
  2 14  1  0  0  0  0
  3 14  1  0  0  0  0
  4 14  1  0  0  0  0
  5 12  1  0  0  0  0
  5 17  1  0  0  0  0
  6 13  2  0  0  0  0
  7 16  1  0  0  0  0
  7 18  1  0  0  0  0
  8 10  1  0  0  0  0
  8 11  1  0  0  0  0
  9 13  1  0  0  0  0
  9 15  1  0  0  0  0
  9 19  1  0  0  0  0
 10 15  2  0  0  0  0
 11 16  2  0  0  0  0
 12 13  1  0  0  0  0
 12 14  1  0  0  0  0
 15 16  1  0  0  0  0
 17 20  1  0  0  0  0
 17 21  1  0  0  0  0
 17 22  1  0  0  0  0
 18 23  1  0  0  0  0
 18 24  1  0  0  0  0
 18 25  1  0  0  0  0
M  END
> <PUBCHEM_COMPOUND_CID>
582841

> <PUBCHEM_COMPOUND_CANONICALIZED>
1

> <PUBCHEM_CACTVS_COMPLEXITY>
316

> <PUBCHEM_CACTVS_HBOND_ACCEPTOR>
10

> <PUBCHEM_CACTVS_HBOND_DONOR>
1

> <PUBCHEM_CACTVS_ROTATABLE_BOND>
4

> <PUBCHEM_CACTVS_SUBSKEYS>
AAADcYBjOcAAAAAAAAAAAAAAAAAAAWAAAAAAAAAAAAAAAAABgAAAHwAUAAAACAQBghIDtBLQBACpAAMwcgYACAQBUAAhAAFBEAKGQAAACAQVAAAABcKQAAAAAAAAAAAAAAAAAAAAAAAAAAAAAAAAAAAAAA==

> <PUBCHEM_IUPAC_OPENEYE_NAME>
2,3,3,3-tetrafluoro-2-methoxy-N-(4-methoxy-1,2,5-oxadiazol-3-yl)propanamide

> <PUBCHEM_IUPAC_CAS_NAME>
2,3,3,3-tetrafluoro-2-methoxy-N-(4-methoxy-1,2,5-oxadiazol-3-yl)propanamide

> <PUBCHEM_IUPAC_NAME>
2,3,3,3-tetrafluoro-2-methoxy-N-(4-methoxy-1,2,5-oxadiazol-3-yl)propanamide

> <PUBCHEM_IUPAC_SYSTEMATIC_NAME>
2,3,3,3-tetrakis(fluoranyl)-2-methoxy-N-(4-methoxy-1,2,5-oxadiazol-3-yl)propanamide

> <PUBCHEM_IUPAC_TRADITIONAL_NAME>
2,3,3,3-tetrafluoro-2-methoxy-N-(4-methoxyfurazan-3-yl)propionamide

> <PUBCHEM_IUPAC_INCHI>
InChI=1S/C7H7F4N3O4/c1-16-4-3(13-18-14-4)12-5(15)6(8,17-2)7(9,10)11/h1-2H3,(H,12,13,15)

> <PUBCHEM_IUPAC_INCHIKEY>
GGGHZLIQDKNXAS-UHFFFAOYSA-N

> <PUBCHEM_XLOGP3_AA>
0.9

> <PUBCHEM_EXACT_MASS>
273.037269

> <PUBCHEM_MOLECULAR_FORMULA>
C7H7F4N3O4

> <PUBCHEM_MOLECULAR_WEIGHT>
273.141793

> <PUBCHEM_OPENEYE_CAN_SMILES>
COC1=NON=C1NC(=O)C(C(F)(F)F)(OC)F

> <PUBCHEM_OPENEYE_ISO_SMILES>
COC1=NON=C1NC(=O)C(C(F)(F)F)(OC)F

> <PUBCHEM_CACTVS_TPSA>
86.5

> <PUBCHEM_MONOISOTOPIC_WEIGHT>
273.037269

> <PUBCHEM_TOTAL_CHARGE>
0

> <PUBCHEM_HEAVY_ATOM_COUNT>
18

> <PUBCHEM_ATOM_DEF_STEREO_COUNT>
0

> <PUBCHEM_ATOM_UDEF_STEREO_COUNT>
1

> <PUBCHEM_BOND_DEF_STEREO_COUNT>
0

> <PUBCHEM_BOND_UDEF_STEREO_COUNT>
0

> <PUBCHEM_ISOTOPIC_ATOM_COUNT>
0

> <PUBCHEM_COMPONENT_COUNT>
1

> <PUBCHEM_CACTVS_TAUTO_COUNT>
3

> <PUBCHEM_COORDINATE_TYPE>
1
5
255

> <PUBCHEM_BONDANNOTATIONS>
12  1  3
10  15  8
11  16  8
15  16  8
8  10  8
8  11  8

$$$$

