168989
  -OEChem-07051212492D

 41 42  0     1  0  0  0  0  0999 V2000
    3.4030    0.0427    0.0000 O   0  0  0  0  0  0  0  0  0  0  0  0
    5.1350   -1.9573    0.0000 O   0  0  0  0  0  0  0  0  0  0  0  0
    2.5369   -1.4573    0.0000 O   0  0  0  0  0  0  0  0  0  0  0  0
    2.5369   -3.4573    0.0000 O   0  0  0  0  0  0  0  0  0  0  0  0
    6.8834    4.0773    0.0000 O   0  0  0  0  0  0  0  0  0  0  0  0
    8.6651    1.0186    0.0000 O   0  0  0  0  0  0  0  0  0  0  0  0
    5.1350    1.0427    0.0000 N   0  0  0  0  0  0  0  0  0  0  0  0
    5.1350    3.0427    0.0000 N   0  0  0  0  0  0  0  0  0  0  0  0
    6.8950    1.0080    0.0000 N   0  0  0  0  0  0  0  0  0  0  0  0
    7.8010    2.5635    0.0000 N   0  0  0  0  0  0  0  0  0  0  0  0
    4.2690   -0.4573    0.0000 C   0  0  2  0  0  0  0  0  0  0  0  0
    4.2690   -1.4573    0.0000 C   0  0  1  0  0  0  0  0  0  0  0  0
    5.1350    0.0427    0.0000 C   0  0  0  0  0  0  0  0  0  0  0  0
    3.4030   -1.9573    0.0000 C   0  0  1  0  0  0  0  0  0  0  0  0
    4.2690    1.5427    0.0000 C   0  0  0  0  0  0  0  0  0  0  0  0
    6.0010    1.5427    0.0000 C   0  0  0  0  0  0  0  0  0  0  0  0
    3.4030   -2.9573    0.0000 C   0  0  0  0  0  0  0  0  0  0  0  0
    4.2690    2.5427    0.0000 C   0  0  0  0  0  0  0  0  0  0  0  0
    6.0010    2.5427    0.0000 C   0  0  0  0  0  0  0  0  0  0  0  0
    3.4030    1.0427    0.0000 C   0  0  0  0  0  0  0  0  0  0  0  0
    3.4030    3.0427    0.0000 C   0  0  0  0  0  0  0  0  0  0  0  0
    6.8950    3.0774    0.0000 C   0  0  0  0  0  0  0  0  0  0  0  0
    7.8010    1.5219    0.0000 C   0  0  0  0  0  0  0  0  0  0  0  0
    4.2690    0.1627    0.0000 H   0  0  0  0  0  0  0  0  0  0  0  0
    4.2690   -2.0773    0.0000 H   0  0  0  0  0  0  0  0  0  0  0  0
    5.3471   -0.5399    0.0000 H   0  0  0  0  0  0  0  0  0  0  0  0
    5.7456    0.1504    0.0000 H   0  0  0  0  0  0  0  0  0  0  0  0
    3.4030   -1.3373    0.0000 H   0  0  0  0  0  0  0  0  0  0  0  0
    3.6150   -3.5399    0.0000 H   0  0  0  0  0  0  0  0  0  0  0  0
    4.0135   -2.8496    0.0000 H   0  0  0  0  0  0  0  0  0  0  0  0
    2.8660   -0.2673    0.0000 H   0  0  0  0  0  0  0  0  0  0  0  0
    5.1350   -2.5773    0.0000 H   0  0  0  0  0  0  0  0  0  0  0  0
    3.0930    1.5796    0.0000 H   0  0  0  0  0  0  0  0  0  0  0  0
    2.8660    0.7327    0.0000 H   0  0  0  0  0  0  0  0  0  0  0  0
    3.7130    0.5058    0.0000 H   0  0  0  0  0  0  0  0  0  0  0  0
    2.0000   -1.7673    0.0000 H   0  0  0  0  0  0  0  0  0  0  0  0
    3.7130    3.5796    0.0000 H   0  0  0  0  0  0  0  0  0  0  0  0
    2.8660    3.3527    0.0000 H   0  0  0  0  0  0  0  0  0  0  0  0
    3.0930    2.5058    0.0000 H   0  0  0  0  0  0  0  0  0  0  0  0
    8.3368    2.8756    0.0000 H   0  0  0  0  0  0  0  0  0  0  0  0
    2.5369   -4.0773    0.0000 H   0  0  0  0  0  0  0  0  0  0  0  0
 11  1  1  1  0  0  0
  1 31  1  0  0  0  0
 12  2  1  6  0  0  0
  2 32  1  0  0  0  0
 14  3  1  1  0  0  0
  3 36  1  0  0  0  0
  4 17  1  0  0  0  0
  4 41  1  0  0  0  0
  5 22  2  0  0  0  0
  6 23  2  0  0  0  0
  7 13  1  0  0  0  0
  7 15  1  0  0  0  0
  7 16  1  0  0  0  0
  8 18  1  0  0  0  0
  8 19  2  0  0  0  0
  9 16  2  0  0  0  0
  9 23  1  0  0  0  0
 10 22  1  0  0  0  0
 10 23  1  0  0  0  0
 10 40  1  0  0  0  0
 11 12  1  0  0  0  0
 11 13  1  0  0  0  0
 11 24  1  0  0  0  0
 12 14  1  0  0  0  0
 12 25  1  0  0  0  0
 13 26  1  0  0  0  0
 13 27  1  0  0  0  0
 14 17  1  0  0  0  0
 14 28  1  0  0  0  0
 15 18  2  0  0  0  0
 15 20  1  0  0  0  0
 16 19  1  0  0  0  0
 17 29  1  0  0  0  0
 17 30  1  0  0  0  0
 18 21  1  0  0  0  0
 19 22  1  0  0  0  0
 20 33  1  0  0  0  0
 20 34  1  0  0  0  0
 20 35  1  0  0  0  0
 21 37  1  0  0  0  0
 21 38  1  0  0  0  0
 21 39  1  0  0  0  0
M  END
> <PUBCHEM_COMPOUND_CID>
168989

> <PUBCHEM_COMPOUND_CANONICALIZED>
1

> <PUBCHEM_CACTVS_COMPLEXITY>
626

> <PUBCHEM_CACTVS_HBOND_ACCEPTOR>
7

> <PUBCHEM_CACTVS_HBOND_DONOR>
5

> <PUBCHEM_CACTVS_ROTATABLE_BOND>
5

> <PUBCHEM_CACTVS_SUBSKEYS>
AAADceBzuAAAAAAAAAAAAAAAAAAAAAAAAAAgQAAAAAAAAACAAAAAHgAQCAAACBzhgAYDAAPAAgCoAQdwdAAAAAEAAAABCAEoAACDEAoAyAAEQAAHBSKRAADwEAIAAAAAAAAAAAAAAAAAAAAAAAAAAAAAAA==

> <PUBCHEM_IUPAC_OPENEYE_NAME>
6,7-dimethyl-8-[(2S,3S,4R)-2,3,4,5-tetrahydroxypentyl]pteridine-2,4-dione

> <PUBCHEM_IUPAC_CAS_NAME>
6,7-dimethyl-8-[(2S,3S,4R)-2,3,4,5-tetrahydroxypentyl]pteridine-2,4-dione

> <PUBCHEM_IUPAC_NAME>
6,7-dimethyl-8-[(2S,3S,4R)-2,3,4,5-tetrahydroxypentyl]pteridine-2,4-dione

> <PUBCHEM_IUPAC_SYSTEMATIC_NAME>
6,7-dimethyl-8-[(2S,3S,4R)-2,3,4,5-tetrakis(oxidanyl)pentyl]pteridine-2,4-dione

> <PUBCHEM_IUPAC_TRADITIONAL_NAME>
6,7-dimethyl-8-[(2S,3S,4R)-2,3,4,5-tetrahydroxypentyl]pteridine-2,4-quinone

> <PUBCHEM_IUPAC_INCHI>
InChI=1S/C13H18N4O6/c1-5-6(2)17(3-7(19)10(21)8(20)4-18)11-9(14-5)12(22)16-13(23)15-11/h7-8,10,18-21H,3-4H2,1-2H3,(H,16,22,23)/t7-,8+,10-/m0/s1

> <PUBCHEM_IUPAC_INCHIKEY>
SXDXRJZUAJBNFL-XKSSXDPKSA-N

> <PUBCHEM_XLOGP3_AA>
-2.7

> <PUBCHEM_EXACT_MASS>
326.122634

> <PUBCHEM_MOLECULAR_FORMULA>
C13H18N4O6

> <PUBCHEM_MOLECULAR_WEIGHT>
326.30522

> <PUBCHEM_OPENEYE_CAN_SMILES>
CC1=C(N(C2=NC(=O)NC(=O)C2=N1)CC(C(C(CO)O)O)O)C

> <PUBCHEM_OPENEYE_ISO_SMILES>
CC1=C(N(C2=NC(=O)NC(=O)C2=N1)C[C@@H]([C@@H]([C@@H](CO)O)O)O)C

> <PUBCHEM_CACTVS_TPSA>
155

> <PUBCHEM_MONOISOTOPIC_WEIGHT>
326.122634

> <PUBCHEM_TOTAL_CHARGE>
0

> <PUBCHEM_HEAVY_ATOM_COUNT>
23

> <PUBCHEM_ATOM_DEF_STEREO_COUNT>
3

> <PUBCHEM_ATOM_UDEF_STEREO_COUNT>
0

> <PUBCHEM_BOND_DEF_STEREO_COUNT>
0

> <PUBCHEM_BOND_UDEF_STEREO_COUNT>
0

> <PUBCHEM_ISOTOPIC_ATOM_COUNT>
0

> <PUBCHEM_COMPONENT_COUNT>
1

> <PUBCHEM_CACTVS_TAUTO_COUNT>
21

> <PUBCHEM_COORDINATE_TYPE>
1
5
255

> <PUBCHEM_BONDANNOTATIONS>
11  1  5
10  22  8
10  23  8
15  18  8
19  22  8
12  2  6
14  3  5
7  15  8
7  16  8
8  18  8
8  19  8
9  16  8
9  23  8

$$$$

