167652
  -OEChem-07051212512D

 25 25  0     1  0  0  0  0  0999 V2000
    5.1350   -1.9050    0.0000 O   0  0  0  0  0  0  0  0  0  0  0  0
    7.7331    2.5950    0.0000 O   0  0  0  0  0  0  0  0  0  0  0  0
    6.8671   -1.9050    0.0000 O   0  0  0  0  0  0  0  0  0  0  0  0
    8.5991    1.0950    0.0000 O   0  0  0  0  0  0  0  0  0  0  0  0
    2.5369   -1.4050    0.0000 O   0  0  0  0  0  0  0  0  0  0  0  0
    3.4030   -2.9050    0.0000 O   0  0  0  0  0  0  0  0  0  0  0  0
    6.0010    1.5950    0.0000 N   0  0  0  0  0  0  0  0  0  0  0  0
    6.8671    0.0950    0.0000 C   0  0  0  0  0  0  0  0  0  0  0  0
    6.8671    1.0950    0.0000 C   0  0  1  0  0  0  0  0  0  0  0  0
    6.0010   -0.4050    0.0000 C   0  0  0  0  0  0  0  0  0  0  0  0
    5.1350    0.0950    0.0000 C   0  0  0  0  0  0  0  0  0  0  0  0
    6.0010   -1.4050    0.0000 C   0  0  0  0  0  0  0  0  0  0  0  0
    7.7331    1.5950    0.0000 C   0  0  0  0  0  0  0  0  0  0  0  0
    4.2690   -0.4050    0.0000 C   0  0  0  0  0  0  0  0  0  0  0  0
    4.2690   -1.4050    0.0000 C   0  0  0  0  0  0  0  0  0  0  0  0
    3.4030   -1.9050    0.0000 C   0  0  0  0  0  0  0  0  0  0  0  0
    7.0791   -0.4876    0.0000 H   0  0  0  0  0  0  0  0  0  0  0  0
    7.4776    0.2027    0.0000 H   0  0  0  0  0  0  0  0  0  0  0  0
    6.3301    0.7850    0.0000 H   0  0  0  0  0  0  0  0  0  0  0  0
    5.1350    0.7150    0.0000 H   0  0  0  0  0  0  0  0  0  0  0  0
    6.0010    2.2150    0.0000 H   0  0  0  0  0  0  0  0  0  0  0  0
    5.4641    1.2850    0.0000 H   0  0  0  0  0  0  0  0  0  0  0  0
    3.7320   -0.0950    0.0000 H   0  0  0  0  0  0  0  0  0  0  0  0
    8.2700    2.9050    0.0000 H   0  0  0  0  0  0  0  0  0  0  0  0
    2.0000   -1.7150    0.0000 H   0  0  0  0  0  0  0  0  0  0  0  0
  1 12  1  0  0  0  0
  1 15  1  0  0  0  0
  2 13  1  0  0  0  0
  2 24  1  0  0  0  0
  3 12  2  0  0  0  0
  4 13  2  0  0  0  0
  5 16  1  0  0  0  0
  5 25  1  0  0  0  0
  6 16  2  0  0  0  0
  9  7  1  6  0  0  0
  7 21  1  0  0  0  0
  7 22  1  0  0  0  0
  8  9  1  0  0  0  0
  8 10  1  0  0  0  0
  8 17  1  0  0  0  0
  8 18  1  0  0  0  0
  9 13  1  0  0  0  0
  9 19  1  0  0  0  0
 10 11  2  0  0  0  0
 10 12  1  0  0  0  0
 11 14  1  0  0  0  0
 11 20  1  0  0  0  0
 14 15  2  0  0  0  0
 14 23  1  0  0  0  0
 15 16  1  0  0  0  0
M  END
> <PUBCHEM_COMPOUND_CID>
167652

> <PUBCHEM_COMPOUND_CANONICALIZED>
1

> <PUBCHEM_CACTVS_COMPLEXITY>
408

> <PUBCHEM_CACTVS_HBOND_ACCEPTOR>
7

> <PUBCHEM_CACTVS_HBOND_DONOR>
3

> <PUBCHEM_CACTVS_ROTATABLE_BOND>
4

> <PUBCHEM_CACTVS_SUBSKEYS>
AAADccByOAAAAAAAAAAAAAAAAAAAAAAAAAAgAAAAAAAAAAAAAAAAHgAQCAAADCzBgAQACABABgCIAiDSCAIACAAgIAAACIHAAEgLBBIAoQQCUAAEkAALsYKsJggAAAAAAAAAAAAAAAAAAAAAAAAAAAAAAA==

> <PUBCHEM_IUPAC_OPENEYE_NAME>
5-[(2S)-2-amino-2-carboxy-ethyl]-6-oxo-pyran-2-carboxylic acid

> <PUBCHEM_IUPAC_CAS_NAME>
5-[(2S)-2-amino-2-carboxyethyl]-6-oxo-2-pyrancarboxylic acid

> <PUBCHEM_IUPAC_NAME>
5-[(2S)-2-amino-2-carboxyethyl]-6-oxopyran-2-carboxylic acid

> <PUBCHEM_IUPAC_SYSTEMATIC_NAME>
5-[(2S)-2-azanyl-3-oxidanyl-3-oxidanylidene-propyl]-6-oxidanylidene-pyran-2-carboxylic acid

> <PUBCHEM_IUPAC_TRADITIONAL_NAME>
5-[(2S)-2-amino-2-carboxy-ethyl]-6-keto-pyran-2-carboxylic acid

> <PUBCHEM_IUPAC_INCHI>
InChI=1S/C9H9NO6/c10-5(7(11)12)3-4-1-2-6(8(13)14)16-9(4)15/h1-2,5H,3,10H2,(H,11,12)(H,13,14)/t5-/m0/s1

> <PUBCHEM_IUPAC_INCHIKEY>
GHFJNBYZGVNAOV-YFKPBYRVSA-N

> <PUBCHEM_XLOGP3_AA>
-2.8

> <PUBCHEM_EXACT_MASS>
227.042987

> <PUBCHEM_MOLECULAR_FORMULA>
C9H9NO6

> <PUBCHEM_MOLECULAR_WEIGHT>
227.17086

> <PUBCHEM_OPENEYE_CAN_SMILES>
C1=C(C(=O)OC(=C1)C(=O)O)CC(C(=O)O)N

> <PUBCHEM_OPENEYE_ISO_SMILES>
C1=C(C(=O)OC(=C1)C(=O)O)C[C@@H](C(=O)O)N

> <PUBCHEM_CACTVS_TPSA>
127

> <PUBCHEM_MONOISOTOPIC_WEIGHT>
227.042987

> <PUBCHEM_TOTAL_CHARGE>
0

> <PUBCHEM_HEAVY_ATOM_COUNT>
16

> <PUBCHEM_ATOM_DEF_STEREO_COUNT>
1

> <PUBCHEM_ATOM_UDEF_STEREO_COUNT>
0

> <PUBCHEM_BOND_DEF_STEREO_COUNT>
0

> <PUBCHEM_BOND_UDEF_STEREO_COUNT>
0

> <PUBCHEM_ISOTOPIC_ATOM_COUNT>
0

> <PUBCHEM_COMPONENT_COUNT>
1

> <PUBCHEM_CACTVS_TAUTO_COUNT>
3

> <PUBCHEM_COORDINATE_TYPE>
1
5
255

> <PUBCHEM_BONDANNOTATIONS>
1  12  8
1  15  8
10  11  8
10  12  8
11  14  8
14  15  8
9  7  6

$$$$

