4410
  -OEChem-06261200062D

 47 50  0     1  0  0  0  0  0999 V2000
    6.3301    2.3242    0.0000 F   0  0  0  0  0  0  0  0  0  0  0  0
    2.0000    2.8242    0.0000 O   0  0  0  0  0  0  0  0  0  0  0  0
    8.9179   -0.1642    0.0000 O   0  0  0  0  0  0  0  0  0  0  0  0
    8.9644   -3.1448    0.0000 O   0  0  0  0  0  0  0  0  0  0  0  0
    9.8008   -1.6281    0.0000 O   0  0  0  0  0  0  0  0  0  0  0  0
    4.5981    1.3242    0.0000 N   0  0  0  0  0  0  0  0  0  0  0  0
    6.3462   -1.7173    0.0000 N   0  0  0  0  0  0  0  0  0  0  0  0
    5.4641   -0.1758    0.0000 C   0  0  0  0  0  0  0  0  0  0  0  0
    5.4482   -2.2451    0.0000 C   0  0  3  0  0  0  0  0  0  0  0  0
    4.5541   -0.6826    0.0000 C   0  0  0  0  0  0  0  0  0  0  0  0
    4.5461   -1.7242    0.0000 C   0  0  0  0  0  0  0  0  0  0  0  0
    6.3301   -0.6758    0.0000 C   0  0  0  0  0  0  0  0  0  0  0  0
    5.4641    0.8242    0.0000 C   0  0  0  0  0  0  0  0  0  0  0  0
    4.5981    2.3242    0.0000 C   0  0  0  0  0  0  0  0  0  0  0  0
    3.7320    0.8242    0.0000 C   0  0  0  0  0  0  0  0  0  0  0  0
    2.8660    1.3242    0.0000 C   0  0  0  0  0  0  0  0  0  0  0  0
    3.7320    2.8242    0.0000 C   0  0  0  0  0  0  0  0  0  0  0  0
    2.8660    2.3242    0.0000 C   0  0  0  0  0  0  0  0  0  0  0  0
    7.1962   -0.1758    0.0000 C   0  0  0  0  0  0  0  0  0  0  0  0
    6.3301    1.3242    0.0000 C   0  0  0  0  0  0  0  0  0  0  0  0
    5.4520   -3.2450    0.0000 C   0  0  0  0  0  0  0  0  0  0  0  0
    7.2233   -2.1801    0.0000 C   0  0  0  0  0  0  0  0  0  0  0  0
    7.1962    0.8242    0.0000 C   0  0  0  0  0  0  0  0  0  0  0  0
    8.0556   -0.6706    0.0000 C   0  0  0  0  0  0  0  0  0  0  0  0
    8.0690   -1.6622    0.0000 C   0  0  0  0  0  0  0  0  0  0  0  0
    8.9448   -2.1450    0.0000 C   0  0  0  0  0  0  0  0  0  0  0  0
    6.1867   -2.6658    0.0000 H   0  0  0  0  0  0  0  0  0  0  0  0
    4.3496   -0.0974    0.0000 H   0  0  0  0  0  0  0  0  0  0  0  0
    3.9424   -0.7840    0.0000 H   0  0  0  0  0  0  0  0  0  0  0  0
    3.9360   -1.6134    0.0000 H   0  0  0  0  0  0  0  0  0  0  0  0
    4.3325   -2.3063    0.0000 H   0  0  0  0  0  0  0  0  0  0  0  0
    5.2087    2.2165    0.0000 H   0  0  0  0  0  0  0  0  0  0  0  0
    4.8101    2.9068    0.0000 H   0  0  0  0  0  0  0  0  0  0  0  0
    3.3335    0.3493    0.0000 H   0  0  0  0  0  0  0  0  0  0  0  0
    4.1306    0.3493    0.0000 H   0  0  0  0  0  0  0  0  0  0  0  0
    2.2554    1.4319    0.0000 H   0  0  0  0  0  0  0  0  0  0  0  0
    2.6540    0.7416    0.0000 H   0  0  0  0  0  0  0  0  0  0  0  0
    4.1306    3.2992    0.0000 H   0  0  0  0  0  0  0  0  0  0  0  0
    3.3335    3.2992    0.0000 H   0  0  0  0  0  0  0  0  0  0  0  0
    2.8660    2.9442    0.0000 H   0  0  0  0  0  0  0  0  0  0  0  0
    4.8320   -3.2474    0.0000 H   0  0  0  0  0  0  0  0  0  0  0  0
    5.4544   -3.8650    0.0000 H   0  0  0  0  0  0  0  0  0  0  0  0
    6.0720   -3.2427    0.0000 H   0  0  0  0  0  0  0  0  0  0  0  0
    7.2431   -2.7997    0.0000 H   0  0  0  0  0  0  0  0  0  0  0  0
    7.7331    1.1342    0.0000 H   0  0  0  0  0  0  0  0  0  0  0  0
    2.0000    3.4442    0.0000 H   0  0  0  0  0  0  0  0  0  0  0  0
    9.5074   -3.4442    0.0000 H   0  0  0  0  0  0  0  0  0  0  0  0
  1 20  1  0  0  0  0
  2 18  1  0  0  0  0
  2 46  1  0  0  0  0
  3 24  2  0  0  0  0
  4 26  1  0  0  0  0
  4 47  1  0  0  0  0
  5 26  2  0  0  0  0
  6 13  1  0  0  0  0
  6 14  1  0  0  0  0
  6 15  1  0  0  0  0
  7  9  1  0  0  0  0
  7 12  1  0  0  0  0
  7 22  1  0  0  0  0
  8 10  1  0  0  0  0
  8 12  2  0  0  0  0
  8 13  1  0  0  0  0
  9 11  1  0  0  0  0
  9 21  1  0  0  0  0
  9 27  1  0  0  0  0
 10 11  1  0  0  0  0
 10 28  1  0  0  0  0
 10 29  1  0  0  0  0
 11 30  1  0  0  0  0
 11 31  1  0  0  0  0
 12 19  1  0  0  0  0
 13 20  2  0  0  0  0
 14 17  1  0  0  0  0
 14 32  1  0  0  0  0
 14 33  1  0  0  0  0
 15 16  1  0  0  0  0
 15 34  1  0  0  0  0
 15 35  1  0  0  0  0
 16 18  1  0  0  0  0
 16 36  1  0  0  0  0
 16 37  1  0  0  0  0
 17 18  1  0  0  0  0
 17 38  1  0  0  0  0
 17 39  1  0  0  0  0
 18 40  1  0  0  0  0
 19 23  2  0  0  0  0
 19 24  1  0  0  0  0
 20 23  1  0  0  0  0
 21 41  1  0  0  0  0
 21 42  1  0  0  0  0
 21 43  1  0  0  0  0
 22 25  2  0  0  0  0
 22 44  1  0  0  0  0
 23 45  1  0  0  0  0
 24 25  1  0  0  0  0
 25 26  1  0  0  0  0
M  END
> <PUBCHEM_COMPOUND_CID>
4410

> <PUBCHEM_COMPOUND_CANONICALIZED>
1

> <PUBCHEM_CACTVS_COMPLEXITY>
631

> <PUBCHEM_CACTVS_HBOND_ACCEPTOR>
7

> <PUBCHEM_CACTVS_HBOND_DONOR>
2

> <PUBCHEM_CACTVS_ROTATABLE_BOND>
2

> <PUBCHEM_CACTVS_SUBSKEYS>
AAADceB7OQAAAAAAAAAAAAAAAAAAAAAAAAA8WIEAAAAAAACxAAAAHwAACAAADDzhmA4yyIMAAgCIAqTWSACCAAAlAAAAiAEIRMgIND7I1NGEYYhmoADI2ceY2eOeCAACAAQCAAAQAAQACAQAAAAAAAAAAA==

> <PUBCHEM_IUPAC_INCHI>
InChI=1S/C19H21FN2O4/c1-10-2-3-12-16-13(18(24)14(19(25)26)9-22(10)16)8-15(20)17(12)21-6-4-11(23)5-7-21/h8-11,23H,2-7H2,1H3,(H,25,26)

> <PUBCHEM_IUPAC_INCHIKEY>
JYJTVFIEFKZWCJ-UHFFFAOYSA-N

> <PUBCHEM_XLOGP3_AA>
2.9

> <PUBCHEM_EXACT_MASS>
360.148535

> <PUBCHEM_MOLECULAR_FORMULA>
C19H21FN2O4

> <PUBCHEM_MOLECULAR_WEIGHT>
360.379443

> <PUBCHEM_OPENEYE_CAN_SMILES>
CC1CCC2=C3N1C=C(C(=O)C3=CC(=C2N4CCC(CC4)O)F)C(=O)O

> <PUBCHEM_OPENEYE_ISO_SMILES>
CC1CCC2=C3N1C=C(C(=O)C3=CC(=C2N4CCC(CC4)O)F)C(=O)O

> <PUBCHEM_CACTVS_TPSA>
81.1

> <PUBCHEM_MONOISOTOPIC_WEIGHT>
360.148535

> <PUBCHEM_TOTAL_CHARGE>
0

> <PUBCHEM_HEAVY_ATOM_COUNT>
26

> <PUBCHEM_ATOM_DEF_STEREO_COUNT>
0

> <PUBCHEM_ATOM_UDEF_STEREO_COUNT>
1

> <PUBCHEM_BOND_DEF_STEREO_COUNT>
0

> <PUBCHEM_BOND_UDEF_STEREO_COUNT>
0

> <PUBCHEM_ISOTOPIC_ATOM_COUNT>
0

> <PUBCHEM_COMPONENT_COUNT>
1

> <PUBCHEM_CACTVS_TAUTO_COUNT>
1

> <PUBCHEM_COORDINATE_TYPE>
1
5
255

> <PUBCHEM_BONDANNOTATIONS>
12  19  8
13  20  8
19  23  8
19  24  8
20  23  8
22  25  8
24  25  8
7  12  8
7  22  8
8  12  8
8  13  8
9  27  3

$$$$

