   Color/Form
        Pale yellow leaves from alcohol
   from [1]HSDB

   Odor
        ... Sweet, heavy floral-musky odor
   from [2]HSDB

   Boiling Point
        185 deg C at 16 mm Hg
   from [3]HSDB

   Melting Point
        85 deg C
   from [4]HSDB

   Octanol/Water Partition Coefficient
        log Kow = 4.0
   from [5]HSDB

   Solubilities

     * Slightly soluble in ethanol; soluble in ethyl ether, chloroform
     * In water, 0.79 mg/L at temp. unspecified
     * In water, 2.41 mg/L at 25 deg C (est)

   from [6]HSDB

   Spectral Properties

     * MASS: 71258 (NIST/EPA/MSDC Mass Spectral Database, 1990 version);
       868 (Atlas of Mass Spectral Data, John Wiley & Sons, New York)
     * IR: 8877 (Sadtler Research Laboratories IR grating collection)
     * UV: 6029 (Sadtler Research Laboratories spectral collection)
     * 1H NMR: 2085 (Sadtler Research Laboratories spectral collection)

   from [7]HSDB

   Vapor Pressure
        1.31X10-5 mm Hg at 25 deg C (est)
   from [8]HSDB

   Other Chemical/Physical Properties

     * Henry's Law constant = 7.05X10-7 atm-cu m/mol at 25 deg C (est)
     * Hydroxyl radical reaction rate constant = 1.50X10-12 cu
       cm/molec-sec at 25 deg C (est)

   from [9]HSDB

   Computed Properties
   Molecular Weight                  268.26584 [g/mol]
   Molecular Formula                 C[12]H[16]N[2]O[5]
   XLogP3-AA                         3.6
   H-Bond Donor                      0
   H-Bond Acceptor                   5
   Rotatable Bond Count              2
   Exact Mass                        268.105922
   MonoIsotopic Mass                 268.105922
   Topological Polar Surface Area    101
   Heavy Atom Count                  19
   Formal Charge                     0
   Complexity                        355
   Isotope Atom Count                0
   Defined Atom Stereocenter Count   0
   Undefined Atom Stereocenter Count 0
   Defined Bond Stereocenter Count   0
   Undefined Bond Stereocenter Count 0
   Covalently-Bonded Unit Count      1
   Feature 3D Acceptor Count         5
   Feature 3D Anion Count            2
   Feature 3D Hydrophobe Count       1
   Feature 3D Ring Count             1
   Effective Rotor Count             4
   Conformer Sampling RMSD           0.6
   CID Conformer Count               [10]2

References

   1. http://toxnet.nlm.nih.gov/cgi-bin/sis/search/r?dbs+hsdb:@term+@rn+@rel+83-66-9
   2. http://toxnet.nlm.nih.gov/cgi-bin/sis/search/r?dbs+hsdb:@term+@rn+@rel+83-66-9
   3. http://toxnet.nlm.nih.gov/cgi-bin/sis/search/r?dbs+hsdb:@term+@rn+@rel+83-66-9
   4. http://toxnet.nlm.nih.gov/cgi-bin/sis/search/r?dbs+hsdb:@term+@rn+@rel+83-66-9
   5. http://toxnet.nlm.nih.gov/cgi-bin/sis/search/r?dbs+hsdb:@term+@rn+@rel+83-66-9
   6. http://toxnet.nlm.nih.gov/cgi-bin/sis/search/r?dbs+hsdb:@term+@rn+@rel+83-66-9
   7. http://toxnet.nlm.nih.gov/cgi-bin/sis/search/r?dbs+hsdb:@term+@rn+@rel+83-66-9
   8. http://toxnet.nlm.nih.gov/cgi-bin/sis/search/r?dbs+hsdb:@term+@rn+@rel+83-66-9
   9. http://toxnet.nlm.nih.gov/cgi-bin/sis/search/r?dbs+hsdb:@term+@rn+@rel+83-66-9
  10. http://pubchem.ncbi.nlm.nih.gov/vw3d/vw3d.cgi?cid=6753
