220509
  -OEChem-07051213062D

 51 55  0     1  0  0  0  0  0999 V2000
    2.1498   -0.5671    0.0000 O   0  0  0  0  0  0  0  0  0  0  0  0
    3.1224    3.8998    0.0000 O   0  0  0  0  0  0  0  0  0  0  0  0
    2.9629   -4.2634    0.0000 O   0  0  0  0  0  0  0  0  0  0  0  0
    3.0160   -0.0667    0.0000 C   0  0  2  0  0  0  0  0  0  0  0  0
    3.8821    0.4333    0.0000 C   0  0  2  0  0  0  0  0  0  0  0  0
    2.1500    0.4333    0.0000 C   0  0  2  0  0  0  0  0  0  0  0  0
    3.0160    1.9333    0.0000 C   0  0  2  0  0  0  0  0  0  0  0  0
    3.8821    1.4333    0.0000 C   0  0  1  0  0  0  0  0  0  0  0  0
    3.0000   -1.1082    0.0000 C   0  0  2  0  0  0  0  0  0  0  0  0
    2.1500    1.4333    0.0000 C   0  0  0  0  0  0  0  0  0  0  0  0
    3.2252    2.9051    0.0000 C   0  0  2  0  0  0  0  0  0  0  0  0
    4.6191    2.1004    0.0000 C   0  0  0  0  0  0  0  0  0  0  0  0
    4.7921   -0.0735    0.0000 C   0  0  0  0  0  0  0  0  0  0  0  0
    4.2140    3.0082    0.0000 C   0  0  0  0  0  0  0  0  0  0  0  0
    3.8980   -1.6359    0.0000 C   0  0  0  0  0  0  0  0  0  0  0  0
    4.8001   -1.1151    0.0000 C   0  0  0  0  0  0  0  0  0  0  0  0
    2.0480   -1.6288    0.0000 C   0  0  0  0  0  0  0  0  0  0  0  0
    2.1500    2.4333    0.0000 C   0  0  0  0  0  0  0  0  0  0  0  0
    2.0000   -1.1005    0.0000 C   0  0  0  0  0  0  0  0  0  0  0  0
    2.2474    3.1147    0.0000 C   0  0  0  0  0  0  0  0  0  0  0  0
    2.0313   -2.7137    0.0000 C   0  0  0  0  0  0  0  0  0  0  0  0
    3.9064   -2.7209    0.0000 C   0  0  0  0  0  0  0  0  0  0  0  0
    2.9667   -3.2634    0.0000 C   0  0  0  0  0  0  0  0  0  0  0  0
    4.6149    0.8640    0.0000 H   0  0  0  0  0  0  0  0  0  0  0  0
    1.3000    0.4334    0.0000 H   0  0  0  0  0  0  0  0  0  0  0  0
    4.6590    1.0886    0.0000 H   0  0  0  0  0  0  0  0  0  0  0  0
    1.9380    2.0159    0.0000 H   0  0  0  0  0  0  0  0  0  0  0  0
    1.5394    1.3257    0.0000 H   0  0  0  0  0  0  0  0  0  0  0  0
    4.9845    1.5996    0.0000 H   0  0  0  0  0  0  0  0  0  0  0  0
    5.1556    2.4112    0.0000 H   0  0  0  0  0  0  0  0  0  0  0  0
    5.4037   -0.1749    0.0000 H   0  0  0  0  0  0  0  0  0  0  0  0
    4.9966    0.5118    0.0000 H   0  0  0  0  0  0  0  0  0  0  0  0
    4.8036    3.2000    0.0000 H   0  0  0  0  0  0  0  0  0  0  0  0
    4.0852    3.6147    0.0000 H   0  0  0  0  0  0  0  0  0  0  0  0
    5.0136   -1.6972    0.0000 H   0  0  0  0  0  0  0  0  0  0  0  0
    5.4101   -1.0043    0.0000 H   0  0  0  0  0  0  0  0  0  0  0  0
    1.8480   -1.0420    0.0000 H   0  0  0  0  0  0  0  0  0  0  0  0
    1.4356   -1.7255    0.0000 H   0  0  0  0  0  0  0  0  0  0  0  0
    2.4600    2.9702    0.0000 H   0  0  0  0  0  0  0  0  0  0  0  0
    1.6131    2.7433    0.0000 H   0  0  0  0  0  0  0  0  0  0  0  0
    1.8400    1.8964    0.0000 H   0  0  0  0  0  0  0  0  0  0  0  0
    2.0048   -0.4805    0.0000 H   0  0  0  0  0  0  0  0  0  0  0  0
    1.3800   -1.0957    0.0000 H   0  0  0  0  0  0  0  0  0  0  0  0
    1.9952   -1.7205    0.0000 H   0  0  0  0  0  0  0  0  0  0  0  0
    2.3774    3.7210    0.0000 H   0  0  0  0  0  0  0  0  0  0  0  0
    1.6412    3.2447    0.0000 H   0  0  0  0  0  0  0  0  0  0  0  0
    2.1175    2.5085    0.0000 H   0  0  0  0  0  0  0  0  0  0  0  0
    1.4222   -2.5982    0.0000 H   0  0  0  0  0  0  0  0  0  0  0  0
    1.8133   -3.2941    0.0000 H   0  0  0  0  0  0  0  0  0  0  0  0
    4.4445   -3.0288    0.0000 H   0  0  0  0  0  0  0  0  0  0  0  0
    3.6246    4.2634    0.0000 H   0  0  0  0  0  0  0  0  0  0  0  0
  4  1  1  1  0  0  0
  1  6  1  0  0  0  0
 11  2  1  1  0  0  0
  2 51  1  0  0  0  0
  3 23  2  0  0  0  0
  4  5  1  0  0  0  0
  4  6  1  0  0  0  0
  4  9  1  0  0  0  0
  5  8  1  0  0  0  0
  5 13  1  0  0  0  0
  5 24  1  1  0  0  0
  6 10  1  0  0  0  0
  6 25  1  6  0  0  0
  7  8  1  0  0  0  0
  7 10  1  0  0  0  0
  7 11  1  0  0  0  0
  7 18  1  1  0  0  0
  8 12  1  0  0  0  0
  8 26  1  6  0  0  0
  9 15  1  0  0  0  0
  9 17  1  0  0  0  0
  9 19  1  1  0  0  0
 10 27  1  0  0  0  0
 10 28  1  0  0  0  0
 11 14  1  0  0  0  0
 11 20  1  0  0  0  0
 12 14  1  0  0  0  0
 12 29  1  0  0  0  0
 12 30  1  0  0  0  0
 13 16  1  0  0  0  0
 13 31  1  0  0  0  0
 13 32  1  0  0  0  0
 14 33  1  0  0  0  0
 14 34  1  0  0  0  0
 15 16  1  0  0  0  0
 15 22  2  0  0  0  0
 16 35  1  0  0  0  0
 16 36  1  0  0  0  0
 17 21  1  0  0  0  0
 17 37  1  0  0  0  0
 17 38  1  0  0  0  0
 18 39  1  0  0  0  0
 18 40  1  0  0  0  0
 18 41  1  0  0  0  0
 19 42  1  0  0  0  0
 19 43  1  0  0  0  0
 19 44  1  0  0  0  0
 20 45  1  0  0  0  0
 20 46  1  0  0  0  0
 20 47  1  0  0  0  0
 21 23  1  0  0  0  0
 21 48  1  0  0  0  0
 21 49  1  0  0  0  0
 22 23  1  0  0  0  0
 22 50  1  0  0  0  0
M  END
> <PUBCHEM_COMPOUND_CID>
220509

> <PUBCHEM_COMPOUND_CANONICALIZED>
1

> <PUBCHEM_CACTVS_COMPLEXITY>
639

> <PUBCHEM_CACTVS_HBOND_ACCEPTOR>
3

> <PUBCHEM_CACTVS_HBOND_DONOR>
1

> <PUBCHEM_CACTVS_ROTATABLE_BOND>
0

> <PUBCHEM_CACTVS_SUBSKEYS>
AAADceB4MAAAAAAAAAAAAAAAEgAAAYAAAAAwYIAABIAAAGDAAAAAGgAACAAAD1SggAICAAAABgCIAqBSAAAAAAAgAAAACAEAAEgAABIAAQACQAAEwAAIAQPI7PzPgAAAAAAAAADAAAYAADAAAYAADAAAAA==

> <PUBCHEM_IUPAC_INCHI>
InChI=1S/C20H28O3/c1-17-8-6-13(21)10-12(17)4-5-15-14-7-9-19(3,22)18(14,2)11-16-20(15,17)23-16/h10,14-16,22H,4-9,11H2,1-3H3/t14-,15-,16-,17-,18-,19-,20+/m0/s1

> <PUBCHEM_IUPAC_INCHIKEY>
BJYNFFFDYZKDTE-NPBKEMFKSA-N

> <PUBCHEM_XLOGP3>
1.6

> <PUBCHEM_EXACT_MASS>
316.203845

> <PUBCHEM_MOLECULAR_FORMULA>
C20H28O3

> <PUBCHEM_MOLECULAR_WEIGHT>
316.43452

> <PUBCHEM_OPENEYE_CAN_SMILES>
CC12CCC(=O)C=C1CCC3C24C(O4)CC5(C3CCC5(C)O)C

> <PUBCHEM_OPENEYE_ISO_SMILES>
C[C@]12CCC(=O)C=C1CC[C@@H]3[C@@]24[C@@H](O4)C[C@]5([C@H]3CC[C@]5(C)O)C

> <PUBCHEM_CACTVS_TPSA>
49.8

> <PUBCHEM_MONOISOTOPIC_WEIGHT>
316.203845

> <PUBCHEM_TOTAL_CHARGE>
0

> <PUBCHEM_HEAVY_ATOM_COUNT>
23

> <PUBCHEM_ATOM_DEF_STEREO_COUNT>
7

> <PUBCHEM_ATOM_UDEF_STEREO_COUNT>
0

> <PUBCHEM_BOND_DEF_STEREO_COUNT>
0

> <PUBCHEM_BOND_UDEF_STEREO_COUNT>
0

> <PUBCHEM_ISOTOPIC_ATOM_COUNT>
0

> <PUBCHEM_COMPONENT_COUNT>
1

> <PUBCHEM_CACTVS_TAUTO_COUNT>
5

> <PUBCHEM_COORDINATE_TYPE>
1
5
255

> <PUBCHEM_BONDANNOTATIONS>
4  1  5
11  2  5
5  24  5
6  25  6
7  18  5
8  26  6
9  19  5

$$$$

