24892764
  -OEChem-07051213102D

 78 77  0     1  0  0  0  0  0999 V2000
   18.4545   -1.4400    0.0000 P   0  0  3  0  0  0  0  0  0  0  0  0
   20.1865   -1.4400    0.0000 P   0  0  0  0  0  0  0  0  0  0  0  0
   17.5885   -1.9400    0.0000 O   0  0  0  0  0  0  0  0  0  0  0  0
   19.3205   -0.9400    0.0000 O   0  0  0  0  0  0  0  0  0  0  0  0
   17.9545   -0.5740    0.0000 O   0  0  0  0  0  0  0  0  0  0  0  0
   18.9545   -2.3060    0.0000 O   0  0  0  0  0  0  0  0  0  0  0  0
   21.0526   -1.9400    0.0000 O   0  0  0  0  0  0  0  0  0  0  0  0
   20.6865   -0.5740    0.0000 O   0  0  0  0  0  0  0  0  0  0  0  0
   19.6865   -2.3060    0.0000 O   0  0  0  0  0  0  0  0  0  0  0  0
   12.3923    1.0600    0.0000 C   0  0  0  0  0  0  0  0  0  0  0  0
    8.9282    1.0600    0.0000 C   0  0  0  0  0  0  0  0  0  0  0  0
   11.5263    1.5600    0.0000 C   0  0  0  0  0  0  0  0  0  0  0  0
    9.7942    1.5600    0.0000 C   0  0  0  0  0  0  0  0  0  0  0  0
    8.0622    1.5600    0.0000 C   0  0  0  0  0  0  0  0  0  0  0  0
   13.2583    1.5600    0.0000 C   0  0  0  0  0  0  0  0  0  0  0  0
   10.6603    1.0600    0.0000 C   0  0  0  0  0  0  0  0  0  0  0  0
   14.1244    0.0600    0.0000 C   0  0  0  0  0  0  0  0  0  0  0  0
    6.3301    1.5600    0.0000 C   0  0  0  0  0  0  0  0  0  0  0  0
    7.1962    1.0600    0.0000 C   0  0  0  0  0  0  0  0  0  0  0  0
   14.1244    1.0600    0.0000 C   0  0  0  0  0  0  0  0  0  0  0  0
    5.4641    1.0600    0.0000 C   0  0  0  0  0  0  0  0  0  0  0  0
   14.9904   -0.4400    0.0000 C   0  0  0  0  0  0  0  0  0  0  0  0
    4.5981    1.5600    0.0000 C   0  0  0  0  0  0  0  0  0  0  0  0
    9.7942    2.5600    0.0000 C   0  0  0  0  0  0  0  0  0  0  0  0
   13.2583    2.5600    0.0000 C   0  0  0  0  0  0  0  0  0  0  0  0
   14.9904   -1.4400    0.0000 C   0  0  0  0  0  0  0  0  0  0  0  0
    6.3301    2.5600    0.0000 C   0  0  0  0  0  0  0  0  0  0  0  0
    3.7320    1.0600    0.0000 C   0  0  0  0  0  0  0  0  0  0  0  0
   15.8564   -1.9400    0.0000 C   0  0  0  0  0  0  0  0  0  0  0  0
   14.1244   -1.9400    0.0000 C   0  0  0  0  0  0  0  0  0  0  0  0
    2.8660    1.5600    0.0000 C   0  0  0  0  0  0  0  0  0  0  0  0
   16.7224   -1.4400    0.0000 C   0  0  0  0  0  0  0  0  0  0  0  0
    2.0000    1.0600    0.0000 C   0  0  0  0  0  0  0  0  0  0  0  0
    2.8660    2.5600    0.0000 C   0  0  0  0  0  0  0  0  0  0  0  0
   11.9938    0.5851    0.0000 H   0  0  0  0  0  0  0  0  0  0  0  0
   12.7908    0.5851    0.0000 H   0  0  0  0  0  0  0  0  0  0  0  0
    8.5297    0.5851    0.0000 H   0  0  0  0  0  0  0  0  0  0  0  0
    9.3267    0.5851    0.0000 H   0  0  0  0  0  0  0  0  0  0  0  0
   11.9248    2.0349    0.0000 H   0  0  0  0  0  0  0  0  0  0  0  0
   11.1278    2.0349    0.0000 H   0  0  0  0  0  0  0  0  0  0  0  0
    8.4607    2.0349    0.0000 H   0  0  0  0  0  0  0  0  0  0  0  0
    7.6636    2.0349    0.0000 H   0  0  0  0  0  0  0  0  0  0  0  0
   10.6603    0.4400    0.0000 H   0  0  0  0  0  0  0  0  0  0  0  0
   13.5138    0.1677    0.0000 H   0  0  0  0  0  0  0  0  0  0  0  0
   13.9123   -0.5226    0.0000 H   0  0  0  0  0  0  0  0  0  0  0  0
    7.1962    0.4400    0.0000 H   0  0  0  0  0  0  0  0  0  0  0  0
   14.6613    1.3700    0.0000 H   0  0  0  0  0  0  0  0  0  0  0  0
    5.0656    0.5851    0.0000 H   0  0  0  0  0  0  0  0  0  0  0  0
    5.8626    0.5851    0.0000 H   0  0  0  0  0  0  0  0  0  0  0  0
   15.6010   -0.5477    0.0000 H   0  0  0  0  0  0  0  0  0  0  0  0
   15.2024    0.1426    0.0000 H   0  0  0  0  0  0  0  0  0  0  0  0
    4.9966    2.0349    0.0000 H   0  0  0  0  0  0  0  0  0  0  0  0
    4.1996    2.0349    0.0000 H   0  0  0  0  0  0  0  0  0  0  0  0
   10.4142    2.5600    0.0000 H   0  0  0  0  0  0  0  0  0  0  0  0
    9.7942    3.1800    0.0000 H   0  0  0  0  0  0  0  0  0  0  0  0
    9.1742    2.5600    0.0000 H   0  0  0  0  0  0  0  0  0  0  0  0
   13.8783    2.5600    0.0000 H   0  0  0  0  0  0  0  0  0  0  0  0
   13.2583    3.1800    0.0000 H   0  0  0  0  0  0  0  0  0  0  0  0
   12.6383    2.5600    0.0000 H   0  0  0  0  0  0  0  0  0  0  0  0
    6.9501    2.5600    0.0000 H   0  0  0  0  0  0  0  0  0  0  0  0
    6.3301    3.1800    0.0000 H   0  0  0  0  0  0  0  0  0  0  0  0
    5.7101    2.5600    0.0000 H   0  0  0  0  0  0  0  0  0  0  0  0
    3.7320    0.4400    0.0000 H   0  0  0  0  0  0  0  0  0  0  0  0
   15.8564   -2.5600    0.0000 H   0  0  0  0  0  0  0  0  0  0  0  0
   13.8144   -1.4031    0.0000 H   0  0  0  0  0  0  0  0  0  0  0  0
   13.5874   -2.2500    0.0000 H   0  0  0  0  0  0  0  0  0  0  0  0
   14.4344   -2.4769    0.0000 H   0  0  0  0  0  0  0  0  0  0  0  0
   17.1210   -0.9651    0.0000 H   0  0  0  0  0  0  0  0  0  0  0  0
   16.3239   -0.9651    0.0000 H   0  0  0  0  0  0  0  0  0  0  0  0
    3.4860    2.5600    0.0000 H   0  0  0  0  0  0  0  0  0  0  0  0
    1.6900    1.5969    0.0000 H   0  0  0  0  0  0  0  0  0  0  0  0
    1.4631    0.7500    0.0000 H   0  0  0  0  0  0  0  0  0  0  0  0
    2.8660    3.1800    0.0000 H   0  0  0  0  0  0  0  0  0  0  0  0
    2.2460    2.5600    0.0000 H   0  0  0  0  0  0  0  0  0  0  0  0
    2.3100    0.5231    0.0000 H   0  0  0  0  0  0  0  0  0  0  0  0
   18.2645   -0.0370    0.0000 H   0  0  0  0  0  0  0  0  0  0  0  0
   20.3765   -0.0370    0.0000 H   0  0  0  0  0  0  0  0  0  0  0  0
   21.5895   -1.6300    0.0000 H   0  0  0  0  0  0  0  0  0  0  0  0
  1  3  1  0  0  0  0
  1  4  1  0  0  0  0
  1  5  1  0  0  0  0
  1  6  2  0  0  0  0
  2  4  1  0  0  0  0
  2  7  1  0  0  0  0
  2  8  1  0  0  0  0
  2  9  2  0  0  0  0
  3 32  1  0  0  0  0
  5 76  1  0  0  0  0
  7 78  1  0  0  0  0
  8 77  1  0  0  0  0
 10 12  1  0  0  0  0
 10 15  1  0  0  0  0
 10 35  1  0  0  0  0
 10 36  1  0  0  0  0
 11 13  1  0  0  0  0
 11 14  1  0  0  0  0
 11 37  1  0  0  0  0
 11 38  1  0  0  0  0
 12 16  1  0  0  0  0
 12 39  1  0  0  0  0
 12 40  1  0  0  0  0
 13 16  2  0  0  0  0
 13 24  1  0  0  0  0
 14 19  1  0  0  0  0
 14 41  1  0  0  0  0
 14 42  1  0  0  0  0
 15 20  2  0  0  0  0
 15 25  1  0  0  0  0
 16 43  1  0  0  0  0
 17 20  1  0  0  0  0
 17 22  1  0  0  0  0
 17 44  1  0  0  0  0
 17 45  1  0  0  0  0
 18 19  2  0  0  0  0
 18 21  1  0  0  0  0
 18 27  1  0  0  0  0
 19 46  1  0  0  0  0
 20 47  1  0  0  0  0
 21 23  1  0  0  0  0
 21 48  1  0  0  0  0
 21 49  1  0  0  0  0
 22 26  1  0  0  0  0
 22 50  1  0  0  0  0
 22 51  1  0  0  0  0
 23 28  1  0  0  0  0
 23 52  1  0  0  0  0
 23 53  1  0  0  0  0
 24 54  1  0  0  0  0
 24 55  1  0  0  0  0
 24 56  1  0  0  0  0
 25 57  1  0  0  0  0
 25 58  1  0  0  0  0
 25 59  1  0  0  0  0
 26 29  2  0  0  0  0
 26 30  1  0  0  0  0
 27 60  1  0  0  0  0
 27 61  1  0  0  0  0
 27 62  1  0  0  0  0
 28 31  2  0  0  0  0
 28 63  1  0  0  0  0
 29 32  1  0  0  0  0
 29 64  1  0  0  0  0
 30 65  1  0  0  0  0
 30 66  1  0  0  0  0
 30 67  1  0  0  0  0
 31 33  1  0  0  0  0
 31 34  1  0  0  0  0
 32 68  1  0  0  0  0
 32 69  1  0  0  0  0
 33 71  1  0  0  0  0
 33 72  1  0  0  0  0
 33 75  1  0  0  0  0
 34 70  1  0  0  0  0
 34 73  1  0  0  0  0
 34 74  1  0  0  0  0
M  END
> <PUBCHEM_COMPOUND_CID>
24892764

> <PUBCHEM_COMPOUND_CANONICALIZED>
1

> <PUBCHEM_CACTVS_COMPLEXITY>
857

> <PUBCHEM_CACTVS_HBOND_ACCEPTOR>
7

> <PUBCHEM_CACTVS_HBOND_DONOR>
3

> <PUBCHEM_CACTVS_ROTATABLE_BOND>
17

> <PUBCHEM_CACTVS_SUBSKEYS>
AAADcfB4OAMAAAAAAAAAAAAAAAAAAAAAAAAAAAAAAAAAAAAAAAAAGgAACCAADACggAICAAAAARCAQiBCAIAAAAAgAAAACAAAAAgABAIAAQAAEAAAgAAIAAIAAAAAAAAAAAAAAAAAAAAAAAAAAAAAAAAAAA==

> <PUBCHEM_IUPAC_OPENEYE_NAME>
[(2Z,6Z,10E,14E)-3,7,11,15,19-pentamethylicosa-2,6,10,14,18-pentaenyl] phosphono hydrogen phosphate

> <PUBCHEM_IUPAC_CAS_NAME>
[(2Z,6Z,10E,14E)-3,7,11,15,19-pentamethyleicosa-2,6,10,14,18-pentaenyl] phosphono hydrogen phosphate

> <PUBCHEM_IUPAC_NAME>
[(2Z,6Z,10E,14E)-3,7,11,15,19-pentamethylicosa-2,6,10,14,18-pentaenyl] phosphono hydrogen phosphate

> <PUBCHEM_IUPAC_SYSTEMATIC_NAME>
[(2Z,6Z,10E,14E)-3,7,11,15,19-pentamethylicosa-2,6,10,14,18-pentaenyl] phosphono hydrogen phosphate

> <PUBCHEM_IUPAC_TRADITIONAL_NAME>
[(2Z,6Z,10E,14E)-3,7,11,15,19-pentamethyleicosa-2,6,10,14,18-pentaenyl] phosphono hydrogen phosphate

> <PUBCHEM_IUPAC_INCHI>
InChI=1S/C25H44O7P2/c1-21(2)11-7-12-22(3)13-8-14-23(4)15-9-16-24(5)17-10-18-25(6)19-20-31-34(29,30)32-33(26,27)28/h11,13,15,17,19H,7-10,12,14,16,18,20H2,1-6H3,(H,29,30)(H2,26,27,28)/b22-13+,23-15+,24-17-,25-19-

> <PUBCHEM_IUPAC_INCHIKEY>
JMVSBFJBMXQNJW-PSTDWBAXSA-N

> <PUBCHEM_XLOGP3_AA>
6.3

> <PUBCHEM_EXACT_MASS>
518.256227

> <PUBCHEM_MOLECULAR_FORMULA>
C25H44O7P2

> <PUBCHEM_MOLECULAR_WEIGHT>
518.560184

> <PUBCHEM_OPENEYE_CAN_SMILES>
CC(=CCCC(=CCCC(=CCCC(=CCCC(=CCOP(=O)(O)OP(=O)(O)O)C)C)C)C)C

> <PUBCHEM_OPENEYE_ISO_SMILES>
CC(=CCC/C(=C/CC/C(=C/CC/C(=C\CC/C(=C\COP(=O)(O)OP(=O)(O)O)/C)/C)/C)/C)C

> <PUBCHEM_CACTVS_TPSA>
113

> <PUBCHEM_MONOISOTOPIC_WEIGHT>
518.256227

> <PUBCHEM_TOTAL_CHARGE>
0

> <PUBCHEM_HEAVY_ATOM_COUNT>
34

> <PUBCHEM_ATOM_DEF_STEREO_COUNT>
0

> <PUBCHEM_ATOM_UDEF_STEREO_COUNT>
0

> <PUBCHEM_BOND_DEF_STEREO_COUNT>
4

> <PUBCHEM_BOND_UDEF_STEREO_COUNT>
0

> <PUBCHEM_ISOTOPIC_ATOM_COUNT>
0

> <PUBCHEM_COMPONENT_COUNT>
1

> <PUBCHEM_CACTVS_TAUTO_COUNT>
1

> <PUBCHEM_COORDINATE_TYPE>
1
5
255

$$$$

