47205085
  -OEChem-06241222582D

 26 27  0     0  0  0  0  0  0999 V2000
    5.4641   -3.2047    0.0000 Br  0  0  0  0  0  0  0  0  0  0  0  0
    2.0000   -1.2047    0.0000 Cl  0  0  0  0  0  0  0  0  0  0  0  0
    2.8660    0.2953    0.0000 O   0  0  0  0  0  0  0  0  0  0  0  0
    4.5981    0.2953    0.0000 N   0  0  0  0  0  0  0  0  0  0  0  0
    5.5686    2.7898    0.0000 N   0  0  0  0  0  0  0  0  0  0  0  0
    6.5468    2.9977    0.0000 N   0  0  0  0  0  0  0  0  0  0  0  0
    4.5981    1.2953    0.0000 C   0  0  0  0  0  0  0  0  0  0  0  0
    5.4641    1.7953    0.0000 C   0  0  0  0  0  0  0  0  0  0  0  0
    3.7320   -1.2047    0.0000 C   0  0  0  0  0  0  0  0  0  0  0  0
    3.7320   -0.2047    0.0000 C   0  0  0  0  0  0  0  0  0  0  0  0
    6.3776    1.3886    0.0000 C   0  0  0  0  0  0  0  0  0  0  0  0
    4.5981   -1.7047    0.0000 C   0  0  0  0  0  0  0  0  0  0  0  0
    2.8660   -1.7047    0.0000 C   0  0  0  0  0  0  0  0  0  0  0  0
    4.5981   -2.7047    0.0000 C   0  0  0  0  0  0  0  0  0  0  0  0
    2.8660   -2.7047    0.0000 C   0  0  0  0  0  0  0  0  0  0  0  0
    7.0468    2.1317    0.0000 C   0  0  0  0  0  0  0  0  0  0  0  0
    3.7320   -3.2047    0.0000 C   0  0  0  0  0  0  0  0  0  0  0  0
    4.3860    1.8779    0.0000 H   0  0  0  0  0  0  0  0  0  0  0  0
    3.9875    1.1877    0.0000 H   0  0  0  0  0  0  0  0  0  0  0  0
    5.1350   -0.0147    0.0000 H   0  0  0  0  0  0  0  0  0  0  0  0
    6.5066    0.7821    0.0000 H   0  0  0  0  0  0  0  0  0  0  0  0
    5.1079    3.2047    0.0000 H   0  0  0  0  0  0  0  0  0  0  0  0
    5.1350   -1.3947    0.0000 H   0  0  0  0  0  0  0  0  0  0  0  0
    2.3291   -3.0147    0.0000 H   0  0  0  0  0  0  0  0  0  0  0  0
    7.6634    2.0669    0.0000 H   0  0  0  0  0  0  0  0  0  0  0  0
    3.7320   -3.8247    0.0000 H   0  0  0  0  0  0  0  0  0  0  0  0
  1 14  1  0  0  0  0
  2 13  1  0  0  0  0
  3 10  2  0  0  0  0
  4  7  1  0  0  0  0
  4 10  1  0  0  0  0
  4 20  1  0  0  0  0
  5  6  1  0  0  0  0
  5  8  1  0  0  0  0
  5 22  1  0  0  0  0
  6 16  2  0  0  0  0
  7  8  1  0  0  0  0
  7 18  1  0  0  0  0
  7 19  1  0  0  0  0
  8 11  2  0  0  0  0
  9 10  1  0  0  0  0
  9 12  1  0  0  0  0
  9 13  2  0  0  0  0
 11 16  1  0  0  0  0
 11 21  1  0  0  0  0
 12 14  2  0  0  0  0
 12 23  1  0  0  0  0
 13 15  1  0  0  0  0
 14 17  1  0  0  0  0
 15 17  2  0  0  0  0
 15 24  1  0  0  0  0
 16 25  1  0  0  0  0
 17 26  1  0  0  0  0
M  END
> <PUBCHEM_COMPOUND_CID>
47205085

> <PUBCHEM_COMPOUND_CANONICALIZED>
1

> <PUBCHEM_CACTVS_COMPLEXITY>
279

> <PUBCHEM_CACTVS_HBOND_ACCEPTOR>
2

> <PUBCHEM_CACTVS_HBOND_DONOR>
2

> <PUBCHEM_CACTVS_ROTATABLE_BOND>
3

> <PUBCHEM_CACTVS_SUBSKEYS>
AAADccBzIAAEEAAAAAAAAAAAAAAAAWAAAAAwAAAAAAAAAAABwAAAHgJYAAABrArBniQ8gJLjAACqAzV3UACSBAAkhwQYuaE4ZvgIYLKB19GUpQhgngCIz5cYiACOAAAIEAABAAAAABAgAAIAAAAAAAAAAA==

> <PUBCHEM_IUPAC_OPENEYE_NAME>
5-bromo-2-chloro-N-(1H-pyrazol-5-ylmethyl)benzamide

> <PUBCHEM_IUPAC_CAS_NAME>
5-bromo-2-chloro-N-(1H-pyrazol-5-ylmethyl)benzamide

> <PUBCHEM_IUPAC_NAME>
5-bromo-2-chloro-N-(1H-pyrazol-5-ylmethyl)benzamide

> <PUBCHEM_IUPAC_SYSTEMATIC_NAME>
5-bromanyl-2-chloranyl-N-(1H-pyrazol-5-ylmethyl)benzamide

> <PUBCHEM_IUPAC_TRADITIONAL_NAME>
5-bromo-2-chloro-N-(1H-pyrazol-5-ylmethyl)benzamide

> <PUBCHEM_IUPAC_INCHI>
InChI=1S/C11H9BrClN3O/c12-7-1-2-10(13)9(5-7)11(17)14-6-8-3-4-15-16-8/h1-5H,6H2,(H,14,17)(H,15,16)

> <PUBCHEM_IUPAC_INCHIKEY>
DLDVDZDVDFFKQC-UHFFFAOYSA-N

> <PUBCHEM_XLOGP3_AA>
2.3

> <PUBCHEM_EXACT_MASS>
312.961752

> <PUBCHEM_MOLECULAR_FORMULA>
C11H9BrClN3O

> <PUBCHEM_MOLECULAR_WEIGHT>
314.56566

> <PUBCHEM_OPENEYE_CAN_SMILES>
C1=CC(=C(C=C1Br)C(=O)NCC2=CC=NN2)Cl

> <PUBCHEM_OPENEYE_ISO_SMILES>
C1=CC(=C(C=C1Br)C(=O)NCC2=CC=NN2)Cl

> <PUBCHEM_CACTVS_TPSA>
57.8

> <PUBCHEM_MONOISOTOPIC_WEIGHT>
312.961752

> <PUBCHEM_TOTAL_CHARGE>
0

> <PUBCHEM_HEAVY_ATOM_COUNT>
17

> <PUBCHEM_ATOM_DEF_STEREO_COUNT>
0

> <PUBCHEM_ATOM_UDEF_STEREO_COUNT>
0

> <PUBCHEM_BOND_DEF_STEREO_COUNT>
0

> <PUBCHEM_BOND_UDEF_STEREO_COUNT>
0

> <PUBCHEM_ISOTOPIC_ATOM_COUNT>
0

> <PUBCHEM_COMPONENT_COUNT>
1

> <PUBCHEM_CACTVS_TAUTO_COUNT>
4

> <PUBCHEM_COORDINATE_TYPE>
1
5
255

> <PUBCHEM_BONDANNOTATIONS>
11  16  8
12  14  8
13  15  8
14  17  8
15  17  8
5  6  8
5  8  8
6  16  8
8  11  8
9  12  8
9  13  8

$$$$

