56927946
  -OEChem-07051213152D

 67 69  0     1  0  0  0  0  0999 V2000
   10.1588    0.1351    0.0000 P   0  0  3  0  0  0  0  0  0  0  0  0
    9.2928   -1.3650    0.0000 P   0  0  3  0  0  0  0  0  0  0  0  0
   11.8909    1.1350    0.0000 O   0  0  0  0  0  0  0  0  0  0  0  0
    6.6472   -2.9582    0.0000 O   0  0  0  0  0  0  0  0  0  0  0  0
   10.1588    1.1350    0.0000 O   0  0  0  0  0  0  0  0  0  0  0  0
   13.6229    3.1350    0.0000 O   0  0  0  0  0  0  0  0  0  0  0  0
   10.1588    3.1350    0.0000 O   0  0  0  0  0  0  0  0  0  0  0  0
    8.1994   -5.0286    0.0000 O   0  0  0  0  0  0  0  0  0  0  0  0
    8.4268   -1.8650    0.0000 O   0  0  0  0  0  0  0  0  0  0  0  0
   10.1588   -0.8649    0.0000 O   0  0  0  0  0  0  0  0  0  0  0  0
    9.1588    0.1351    0.0000 O   0  0  0  0  0  0  0  0  0  0  0  0
   11.1588    0.1351    0.0000 O   0  0  0  0  0  0  0  0  0  0  0  0
   13.6229    4.1350    0.0000 O   0  0  0  0  0  0  0  0  0  0  0  0
    5.1646   -1.8743    0.0000 O   0  0  0  0  0  0  0  0  0  0  0  0
    9.7928   -2.2310    0.0000 O   0  0  0  0  0  0  0  0  0  0  0  0
    8.7928   -0.4989    0.0000 O   0  0  0  0  0  0  0  0  0  0  0  0
    2.0000   -3.2832    0.0000 O   0  0  0  0  0  0  0  0  0  0  0  0
   11.8909    4.1350    0.0000 N   0  0  0  0  0  0  0  0  0  0  0  0
    4.9836   -3.5968    0.0000 N   0  0  0  0  0  0  0  0  0  0  0  0
    3.5823   -2.5788    0.0000 N   0  0  0  0  0  0  0  0  0  0  0  0
   11.8909    3.1350    0.0000 C   0  0  1  0  0  0  0  0  0  0  0  0
   12.7569    2.6350    0.0000 C   0  0  2  0  0  0  0  0  0  0  0  0
   11.0249    2.6350    0.0000 C   0  0  2  0  0  0  0  0  0  0  0  0
   12.7569    1.6350    0.0000 C   0  0  1  0  0  0  0  0  0  0  0  0
    7.4562   -4.3595    0.0000 C   0  0  2  0  0  0  0  0  0  0  0  0
    7.5608   -3.3650    0.0000 C   0  0  1  0  0  0  0  0  0  0  0  0
   11.0249    1.6350    0.0000 C   0  0  2  0  0  0  0  0  0  0  0  0
    6.4781   -4.5674    0.0000 C   0  0  0  0  0  0  0  0  0  0  0  0
    5.9781   -3.7014    0.0000 C   0  0  1  0  0  0  0  0  0  0  0  0
    8.4268   -2.8650    0.0000 C   0  0  0  0  0  0  0  0  0  0  0  0
   13.6229    1.1350    0.0000 C   0  0  0  0  0  0  0  0  0  0  0  0
   12.7569    4.6350    0.0000 C   0  0  0  0  0  0  0  0  0  0  0  0
    4.3958   -4.4058    0.0000 C   0  0  0  0  0  0  0  0  0  0  0  0
    4.5768   -2.6833    0.0000 C   0  0  0  0  0  0  0  0  0  0  0  0
    3.4013   -4.3013    0.0000 C   0  0  0  0  0  0  0  0  0  0  0  0
   12.7569    5.6350    0.0000 C   0  0  0  0  0  0  0  0  0  0  0  0
    2.9945   -3.3878    0.0000 C   0  0  0  0  0  0  0  0  0  0  0  0
    2.8135   -5.1103    0.0000 C   0  0  0  0  0  0  0  0  0  0  0  0
   12.4278    3.4450    0.0000 H   0  0  0  0  0  0  0  0  0  0  0  0
   13.2939    2.3250    0.0000 H   0  0  0  0  0  0  0  0  0  0  0  0
   10.4879    2.3250    0.0000 H   0  0  0  0  0  0  0  0  0  0  0  0
   12.7569    1.0150    0.0000 H   0  0  0  0  0  0  0  0  0  0  0  0
    8.0351   -4.1373    0.0000 H   0  0  0  0  0  0  0  0  0  0  0  0
    7.5283   -2.7458    0.0000 H   0  0  0  0  0  0  0  0  0  0  0  0
   10.4879    1.9450    0.0000 H   0  0  0  0  0  0  0  0  0  0  0  0
    5.9117   -4.8196    0.0000 H   0  0  0  0  0  0  0  0  0  0  0  0
    6.6697   -5.1570    0.0000 H   0  0  0  0  0  0  0  0  0  0  0  0
    5.7559   -3.1225    0.0000 H   0  0  0  0  0  0  0  0  0  0  0  0
   11.3540    4.4450    0.0000 H   0  0  0  0  0  0  0  0  0  0  0  0
    8.6388   -3.4476    0.0000 H   0  0  0  0  0  0  0  0  0  0  0  0
    9.0374   -2.7573    0.0000 H   0  0  0  0  0  0  0  0  0  0  0  0
   13.3129    0.5981    0.0000 H   0  0  0  0  0  0  0  0  0  0  0  0
   14.1599    0.8251    0.0000 H   0  0  0  0  0  0  0  0  0  0  0  0
   13.9329    1.6720    0.0000 H   0  0  0  0  0  0  0  0  0  0  0  0
   14.1599    2.8250    0.0000 H   0  0  0  0  0  0  0  0  0  0  0  0
    9.6219    2.8250    0.0000 H   0  0  0  0  0  0  0  0  0  0  0  0
    8.0705   -5.6350    0.0000 H   0  0  0  0  0  0  0  0  0  0  0  0
    4.6480   -4.9722    0.0000 H   0  0  0  0  0  0  0  0  0  0  0  0
    3.3301   -2.0124    0.0000 H   0  0  0  0  0  0  0  0  0  0  0  0
   13.3769    5.6350    0.0000 H   0  0  0  0  0  0  0  0  0  0  0  0
   12.7569    6.2550    0.0000 H   0  0  0  0  0  0  0  0  0  0  0  0
   12.1369    5.6350    0.0000 H   0  0  0  0  0  0  0  0  0  0  0  0
    2.3119   -4.7459    0.0000 H   0  0  0  0  0  0  0  0  0  0  0  0
    2.4490   -5.6119    0.0000 H   0  0  0  0  0  0  0  0  0  0  0  0
    3.3151   -5.4748    0.0000 H   0  0  0  0  0  0  0  0  0  0  0  0
    8.8488    0.6720    0.0000 H   0  0  0  0  0  0  0  0  0  0  0  0
   10.4128   -2.2310    0.0000 H   0  0  0  0  0  0  0  0  0  0  0  0
  1  5  1  0  0  0  0
  1 10  1  0  0  0  0
  1 11  1  0  0  0  0
  1 12  2  0  0  0  0
  2  9  1  0  0  0  0
  2 10  1  0  0  0  0
  2 15  1  0  0  0  0
  2 16  2  0  0  0  0
  3 24  1  0  0  0  0
  3 27  1  0  0  0  0
  4 26  1  0  0  0  0
  4 29  1  0  0  0  0
 27  5  1  6  0  0  0
 22  6  1  1  0  0  0
  6 55  1  0  0  0  0
 23  7  1  6  0  0  0
  7 56  1  0  0  0  0
 25  8  1  1  0  0  0
  8 57  1  0  0  0  0
  9 30  1  0  0  0  0
 11 66  1  0  0  0  0
 13 32  2  0  0  0  0
 14 34  2  0  0  0  0
 15 67  1  0  0  0  0
 17 37  2  0  0  0  0
 21 18  1  1  0  0  0
 18 32  1  0  0  0  0
 18 49  1  0  0  0  0
 29 19  1  6  0  0  0
 19 33  1  0  0  0  0
 19 34  1  0  0  0  0
 20 34  1  0  0  0  0
 20 37  1  0  0  0  0
 20 59  1  0  0  0  0
 21 22  1  0  0  0  0
 21 23  1  0  0  0  0
 21 39  1  0  0  0  0
 22 24  1  0  0  0  0
 22 40  1  0  0  0  0
 23 27  1  0  0  0  0
 23 41  1  0  0  0  0
 24 31  1  1  0  0  0
 24 42  1  0  0  0  0
 25 26  1  0  0  0  0
 25 28  1  0  0  0  0
 25 43  1  0  0  0  0
 26 30  1  6  0  0  0
 26 44  1  0  0  0  0
 27 45  1  0  0  0  0
 28 29  1  0  0  0  0
 28 46  1  0  0  0  0
 28 47  1  0  0  0  0
 29 48  1  0  0  0  0
 30 50  1  0  0  0  0
 30 51  1  0  0  0  0
 31 52  1  0  0  0  0
 31 53  1  0  0  0  0
 31 54  1  0  0  0  0
 32 36  1  0  0  0  0
 33 35  2  0  0  0  0
 33 58  1  0  0  0  0
 35 37  1  0  0  0  0
 35 38  1  0  0  0  0
 36 60  1  0  0  0  0
 36 61  1  0  0  0  0
 36 62  1  0  0  0  0
 38 63  1  0  0  0  0
 38 64  1  0  0  0  0
 38 65  1  0  0  0  0
M  END
> <PUBCHEM_COMPOUND_CID>
56927946

> <PUBCHEM_COMPOUND_CANONICALIZED>
1

> <PUBCHEM_CACTVS_COMPLEXITY>
1070

> <PUBCHEM_CACTVS_HBOND_ACCEPTOR>
15

> <PUBCHEM_CACTVS_HBOND_DONOR>
7

> <PUBCHEM_CACTVS_ROTATABLE_BOND>
9

> <PUBCHEM_CACTVS_SUBSKEYS>
AAADceB7PAMAAAAAAAAAAAAAAAAAASAAAAAkQAAAAAAAAAAAAAAAHgAQCCAADDzxgAcDCAPABxCIQgFWUICAAAAAAAAAAIEIAECTEAIAgQAOQAAPFyKXAMHwcAYAAAAAAAAAAAAAAAAAAAAAAAAAAAAAAA==

> <PUBCHEM_IUPAC_OPENEYE_NAME>
[(2R,3R,4S,5R,6R)-4-acetamido-3,5-dihydroxy-6-methyl-tetrahydropyran-2-yl] [hydroxy-[[(2R,3S,5R)-3-hydroxy-5-(5-methyl-2,4-dioxo-pyrimidin-1-yl)tetrahydrofuran-2-yl]methoxy]phosphoryl] hydrogen phosphate

> <PUBCHEM_IUPAC_CAS_NAME>
[(2R,3R,4S,5R,6R)-4-acetamido-3,5-dihydroxy-6-methyl-2-oxanyl] [hydroxy-[[(2R,3S,5R)-3-hydroxy-5-(5-methyl-2,4-dioxo-1-pyrimidinyl)-2-oxolanyl]methoxy]phosphoryl] hydrogen phosphate

> <PUBCHEM_IUPAC_NAME>
[(2R,3R,4S,5R,6R)-4-acetamido-3,5-dihydroxy-6-methyloxan-2-yl] [hydroxy-[[(2R,3S,5R)-3-hydroxy-5-(5-methyl-2,4-dioxopyrimidin-1-yl)oxolan-2-yl]methoxy]phosphoryl] hydrogen phosphate

> <PUBCHEM_IUPAC_SYSTEMATIC_NAME>
[(2R,3R,4S,5R,6R)-4-acetamido-6-methyl-3,5-bis(oxidanyl)oxan-2-yl] [[(2R,3S,5R)-5-[5-methyl-2,4-bis(oxidanylidene)pyrimidin-1-yl]-3-oxidanyl-oxolan-2-yl]methoxy-oxidanyl-phosphoryl] hydrogen phosphate

> <PUBCHEM_IUPAC_TRADITIONAL_NAME>
[(2R,3R,4S,5R,6R)-4-acetamido-3,5-dihydroxy-6-methyl-tetrahydropyran-2-yl] [[(2R,3S,5R)-5-(2,4-diketo-5-methyl-pyrimidin-1-yl)-3-hydroxy-tetrahydrofuran-2-yl]methoxy-hydroxy-phosphoryl] hydrogen phosphate

> <PUBCHEM_IUPAC_INCHI>
InChI=1S/C18H29N3O15P2/c1-7-5-21(18(27)20-16(7)26)12-4-10(23)11(34-12)6-32-37(28,29)36-38(30,31)35-17-15(25)13(19-9(3)22)14(24)8(2)33-17/h5,8,10-15,17,23-25H,4,6H2,1-3H3,(H,19,22)(H,28,29)(H,30,31)(H,20,26,27)/t8-,10+,11-,12-,13+,14+,15-,17-/m1/s1

> <PUBCHEM_IUPAC_INCHIKEY>
CWQDRZJUANNJKC-HYPDDMKDSA-N

> <PUBCHEM_XLOGP3_AA>
-4.8

> <PUBCHEM_EXACT_MASS>
589.10739

> <PUBCHEM_MOLECULAR_FORMULA>
C18H29N3O15P2

> <PUBCHEM_MOLECULAR_WEIGHT>
589.381484

> <PUBCHEM_OPENEYE_CAN_SMILES>
CC1C(C(C(C(O1)OP(=O)(O)OP(=O)(O)OCC2C(CC(O2)N3C=C(C(=O)NC3=O)C)O)O)NC(=O)C)O

> <PUBCHEM_OPENEYE_ISO_SMILES>
C[C@@H]1[C@@H]([C@@H]([C@H]([C@H](O1)OP(=O)(O)OP(=O)(O)OC[C@@H]2[C@H](C[C@@H](O2)N3C=C(C(=O)NC3=O)C)O)O)NC(=O)C)O

> <PUBCHEM_CACTVS_TPSA>
260

> <PUBCHEM_MONOISOTOPIC_WEIGHT>
589.10739

> <PUBCHEM_TOTAL_CHARGE>
0

> <PUBCHEM_HEAVY_ATOM_COUNT>
38

> <PUBCHEM_ATOM_DEF_STEREO_COUNT>
8

> <PUBCHEM_ATOM_UDEF_STEREO_COUNT>
0

> <PUBCHEM_BOND_DEF_STEREO_COUNT>
0

> <PUBCHEM_BOND_UDEF_STEREO_COUNT>
0

> <PUBCHEM_ISOTOPIC_ATOM_COUNT>
0

> <PUBCHEM_COMPONENT_COUNT>
1

> <PUBCHEM_CACTVS_TAUTO_COUNT>
6

> <PUBCHEM_COORDINATE_TYPE>
1
5
255

> <PUBCHEM_BONDANNOTATIONS>
21  18  5
29  19  6
19  33  8
19  34  8
20  34  8
20  37  8
24  31  5
26  30  6
33  35  8
35  37  8
27  5  6
22  6  5
23  7  6
25  8  5

$$$$

