6510110
  -OEChem-07051213132D

 45 45  0     0  0  0  0  0  0999 V2000
    6.8671    1.2500    0.0000 Cl  0  0  0  0  0  0  0  0  0  0  0  0
    4.2690    0.7500    0.0000 O   0  0  0  0  0  0  0  0  0  0  0  0
    6.8671   -0.7500    0.0000 O   0  0  0  0  0  0  0  0  0  0  0  0
    5.1350   -0.7500    0.0000 N   0  0  0  0  0  0  0  0  0  0  0  0
    5.1350   -1.7500    0.0000 C   0  0  0  0  0  0  0  0  0  0  0  0
    4.2690   -2.2500    0.0000 C   0  0  0  0  0  0  0  0  0  0  0  0
    6.0010   -2.2500    0.0000 C   0  0  0  0  0  0  0  0  0  0  0  0
    3.4030   -1.7500    0.0000 C   0  0  0  0  0  0  0  0  0  0  0  0
    6.8671   -1.7500    0.0000 C   0  0  0  0  0  0  0  0  0  0  0  0
    4.2690   -3.2500    0.0000 C   0  0  0  0  0  0  0  0  0  0  0  0
    6.0010   -3.2500    0.0000 C   0  0  0  0  0  0  0  0  0  0  0  0
    4.2690   -0.2500    0.0000 C   0  0  0  0  0  0  0  0  0  0  0  0
    5.1350   -3.7500    0.0000 C   0  0  0  0  0  0  0  0  0  0  0  0
    6.0010   -0.2500    0.0000 C   0  0  0  0  0  0  0  0  0  0  0  0
    2.5369   -2.2500    0.0000 C   0  0  0  0  0  0  0  0  0  0  0  0
    7.7331   -2.2500    0.0000 C   0  0  0  0  0  0  0  0  0  0  0  0
    6.0010    0.7500    0.0000 C   0  0  0  0  0  0  0  0  0  0  0  0
    3.4030    1.2500    0.0000 C   0  0  0  0  0  0  0  0  0  0  0  0
    3.4030    2.2500    0.0000 C   0  0  0  0  0  0  0  0  0  0  0  0
    2.5369    2.7500    0.0000 C   0  0  0  0  0  0  0  0  0  0  0  0
    2.5369    3.7500    0.0000 C   0  0  0  0  0  0  0  0  0  0  0  0
    3.8015   -1.2750    0.0000 H   0  0  0  0  0  0  0  0  0  0  0  0
    3.0044   -1.2750    0.0000 H   0  0  0  0  0  0  0  0  0  0  0  0
    7.2656   -1.2750    0.0000 H   0  0  0  0  0  0  0  0  0  0  0  0
    6.4685   -1.2750    0.0000 H   0  0  0  0  0  0  0  0  0  0  0  0
    3.7320   -3.5600    0.0000 H   0  0  0  0  0  0  0  0  0  0  0  0
    6.5380   -3.5600    0.0000 H   0  0  0  0  0  0  0  0  0  0  0  0
    3.6584   -0.1423    0.0000 H   0  0  0  0  0  0  0  0  0  0  0  0
    4.0569   -0.8326    0.0000 H   0  0  0  0  0  0  0  0  0  0  0  0
    5.1350   -4.3700    0.0000 H   0  0  0  0  0  0  0  0  0  0  0  0
    2.2269   -1.7131    0.0000 H   0  0  0  0  0  0  0  0  0  0  0  0
    2.0000   -2.5600    0.0000 H   0  0  0  0  0  0  0  0  0  0  0  0
    2.8469   -2.7869    0.0000 H   0  0  0  0  0  0  0  0  0  0  0  0
    7.4231   -2.7869    0.0000 H   0  0  0  0  0  0  0  0  0  0  0  0
    8.2700   -2.5600    0.0000 H   0  0  0  0  0  0  0  0  0  0  0  0
    8.0431   -1.7131    0.0000 H   0  0  0  0  0  0  0  0  0  0  0  0
    5.7890    1.3326    0.0000 H   0  0  0  0  0  0  0  0  0  0  0  0
    5.3905    0.6423    0.0000 H   0  0  0  0  0  0  0  0  0  0  0  0
    2.7924    1.3577    0.0000 H   0  0  0  0  0  0  0  0  0  0  0  0
    3.1909    0.6674    0.0000 H   0  0  0  0  0  0  0  0  0  0  0  0
    3.9399    2.5600    0.0000 H   0  0  0  0  0  0  0  0  0  0  0  0
    2.0000    2.4400    0.0000 H   0  0  0  0  0  0  0  0  0  0  0  0
    3.1569    3.7500    0.0000 H   0  0  0  0  0  0  0  0  0  0  0  0
    2.5369    4.3700    0.0000 H   0  0  0  0  0  0  0  0  0  0  0  0
    1.9169    3.7500    0.0000 H   0  0  0  0  0  0  0  0  0  0  0  0
  1 17  1  0  0  0  0
  2 12  1  0  0  0  0
  2 18  1  0  0  0  0
  3 14  2  0  0  0  0
  4  5  1  0  0  0  0
  4 12  1  0  0  0  0
  4 14  1  0  0  0  0
  5  6  2  0  0  0  0
  5  7  1  0  0  0  0
  6  8  1  0  0  0  0
  6 10  1  0  0  0  0
  7  9  1  0  0  0  0
  7 11  2  0  0  0  0
  8 15  1  0  0  0  0
  8 22  1  0  0  0  0
  8 23  1  0  0  0  0
  9 16  1  0  0  0  0
  9 24  1  0  0  0  0
  9 25  1  0  0  0  0
 10 13  2  0  0  0  0
 10 26  1  0  0  0  0
 11 13  1  0  0  0  0
 11 27  1  0  0  0  0
 12 28  1  0  0  0  0
 12 29  1  0  0  0  0
 13 30  1  0  0  0  0
 14 17  1  0  0  0  0
 15 31  1  0  0  0  0
 15 32  1  0  0  0  0
 15 33  1  0  0  0  0
 16 34  1  0  0  0  0
 16 35  1  0  0  0  0
 16 36  1  0  0  0  0
 17 37  1  0  0  0  0
 17 38  1  0  0  0  0
 18 19  1  0  0  0  0
 18 39  1  0  0  0  0
 18 40  1  0  0  0  0
 19 20  2  0  0  0  0
 19 41  1  0  0  0  0
 20 21  1  0  0  0  0
 20 42  1  0  0  0  0
 21 43  1  0  0  0  0
 21 44  1  0  0  0  0
 21 45  1  0  0  0  0
M  END
> <PUBCHEM_COMPOUND_CID>
6510110

> <PUBCHEM_COMPOUND_CANONICALIZED>
1

> <PUBCHEM_CACTVS_COMPLEXITY>
321

> <PUBCHEM_CACTVS_HBOND_ACCEPTOR>
2

> <PUBCHEM_CACTVS_HBOND_DONOR>
0

> <PUBCHEM_CACTVS_ROTATABLE_BOND>
8

> <PUBCHEM_CACTVS_SUBSKEYS>
AAADceB6MAAEAAAAAAAAAAAAAAAAAAAAAAAwAAAAAAAAAAABAAAAHgIAAAAADAuhmEYywIMABACIAiVSUACCAAAhAAAIiAAIRIhIJCLAsZHMMAhghgDI6AcQgMAOAAACAAACAAAAAAQAAAQAAAAAAAAAAA==

> <PUBCHEM_IUPAC_OPENEYE_NAME>
N-[[(E)-but-2-enoxy]methyl]-2-chloro-N-(2,6-diethylphenyl)acetamide

> <PUBCHEM_IUPAC_CAS_NAME>
N-[[(E)-but-2-enoxy]methyl]-2-chloro-N-(2,6-diethylphenyl)acetamide

> <PUBCHEM_IUPAC_NAME>
N-[[(E)-but-2-enoxy]methyl]-2-chloro-N-(2,6-diethylphenyl)acetamide

> <PUBCHEM_IUPAC_SYSTEMATIC_NAME>
N-[[(E)-but-2-enoxy]methyl]-2-chloranyl-N-(2,6-diethylphenyl)ethanamide

> <PUBCHEM_IUPAC_TRADITIONAL_NAME>
N-[[(E)-but-2-enoxy]methyl]-2-chloro-N-(2,6-diethylphenyl)acetamide

> <PUBCHEM_IUPAC_INCHI>
InChI=1S/C17H24ClNO2/c1-4-7-11-21-13-19(16(20)12-18)17-14(5-2)9-8-10-15(17)6-3/h4,7-10H,5-6,11-13H2,1-3H3/b7-4+

> <PUBCHEM_IUPAC_INCHIKEY>
HZDIJTXDRLNTIS-QPJJXVBHSA-N

> <PUBCHEM_XLOGP3>
4.4

> <PUBCHEM_EXACT_MASS>
309.149557

> <PUBCHEM_MOLECULAR_FORMULA>
C17H24ClNO2

> <PUBCHEM_MOLECULAR_WEIGHT>
309.83096

> <PUBCHEM_OPENEYE_CAN_SMILES>
CCC1=C(C(=CC=C1)CC)N(COCC=CC)C(=O)CCl

> <PUBCHEM_OPENEYE_ISO_SMILES>
CCC1=C(C(=CC=C1)CC)N(COC/C=C/C)C(=O)CCl

> <PUBCHEM_CACTVS_TPSA>
29.5

> <PUBCHEM_MONOISOTOPIC_WEIGHT>
309.149557

> <PUBCHEM_TOTAL_CHARGE>
0

> <PUBCHEM_HEAVY_ATOM_COUNT>
21

> <PUBCHEM_ATOM_DEF_STEREO_COUNT>
0

> <PUBCHEM_ATOM_UDEF_STEREO_COUNT>
0

> <PUBCHEM_BOND_DEF_STEREO_COUNT>
1

> <PUBCHEM_BOND_UDEF_STEREO_COUNT>
0

> <PUBCHEM_ISOTOPIC_ATOM_COUNT>
0

> <PUBCHEM_COMPONENT_COUNT>
1

> <PUBCHEM_CACTVS_TAUTO_COUNT>
1

> <PUBCHEM_COORDINATE_TYPE>
1
5
255

> <PUBCHEM_BONDANNOTATIONS>
10  13  8
11  13  8
5  6  8
5  7  8
6  10  8
7  11  8

$$$$

