6439848
  -OEChem-07051213082D

 58 57  0     0  0  0  0  0  0999 V2000
   11.5263    4.6550    0.0000 O   0  0  0  0  0  0  0  0  0  0  0  0
   12.3923    3.1550    0.0000 O   0  0  0  0  0  0  0  0  0  0  0  0
    8.9282    0.1550    0.0000 C   0  0  0  0  0  0  0  0  0  0  0  0
    8.9282   -0.8450    0.0000 C   0  0  0  0  0  0  0  0  0  0  0  0
    9.7942    0.6550    0.0000 C   0  0  0  0  0  0  0  0  0  0  0  0
    8.0622   -1.3450    0.0000 C   0  0  0  0  0  0  0  0  0  0  0  0
    9.7942    1.6550    0.0000 C   0  0  0  0  0  0  0  0  0  0  0  0
    8.0622   -2.3450    0.0000 C   0  0  0  0  0  0  0  0  0  0  0  0
   10.6603    2.1550    0.0000 C   0  0  0  0  0  0  0  0  0  0  0  0
    7.1962   -2.8450    0.0000 C   0  0  0  0  0  0  0  0  0  0  0  0
   10.6603    3.1550    0.0000 C   0  0  0  0  0  0  0  0  0  0  0  0
    7.1962   -3.8450    0.0000 C   0  0  0  0  0  0  0  0  0  0  0  0
    2.8660   -2.3450    0.0000 C   0  0  0  0  0  0  0  0  0  0  0  0
    2.8660   -1.3450    0.0000 C   0  0  0  0  0  0  0  0  0  0  0  0
    3.7320   -2.8450    0.0000 C   0  0  0  0  0  0  0  0  0  0  0  0
    2.0000   -0.8450    0.0000 C   0  0  0  0  0  0  0  0  0  0  0  0
    6.3301   -4.3450    0.0000 C   0  0  0  0  0  0  0  0  0  0  0  0
   11.5263    3.6550    0.0000 C   0  0  0  0  0  0  0  0  0  0  0  0
    5.4641   -3.8450    0.0000 C   0  0  0  0  0  0  0  0  0  0  0  0
    3.7320   -3.8450    0.0000 C   0  0  0  0  0  0  0  0  0  0  0  0
    4.5981   -4.3450    0.0000 C   0  0  0  0  0  0  0  0  0  0  0  0
    2.0000    0.1550    0.0000 C   0  0  0  0  0  0  0  0  0  0  0  0
    8.7162    0.7376    0.0000 H   0  0  0  0  0  0  0  0  0  0  0  0
    8.3176    0.0473    0.0000 H   0  0  0  0  0  0  0  0  0  0  0  0
    9.1403   -1.4276    0.0000 H   0  0  0  0  0  0  0  0  0  0  0  0
    9.5388   -0.7373    0.0000 H   0  0  0  0  0  0  0  0  0  0  0  0
   10.0063    0.0724    0.0000 H   0  0  0  0  0  0  0  0  0  0  0  0
   10.4048    0.7627    0.0000 H   0  0  0  0  0  0  0  0  0  0  0  0
    7.8501   -0.7624    0.0000 H   0  0  0  0  0  0  0  0  0  0  0  0
    7.4516   -1.4527    0.0000 H   0  0  0  0  0  0  0  0  0  0  0  0
    9.5822    2.2376    0.0000 H   0  0  0  0  0  0  0  0  0  0  0  0
    9.1836    1.5473    0.0000 H   0  0  0  0  0  0  0  0  0  0  0  0
    8.2742   -2.9276    0.0000 H   0  0  0  0  0  0  0  0  0  0  0  0
    8.6728   -2.2373    0.0000 H   0  0  0  0  0  0  0  0  0  0  0  0
   10.8723    1.5724    0.0000 H   0  0  0  0  0  0  0  0  0  0  0  0
   11.2708    2.2627    0.0000 H   0  0  0  0  0  0  0  0  0  0  0  0
    6.9841   -2.2624    0.0000 H   0  0  0  0  0  0  0  0  0  0  0  0
    6.5856   -2.9527    0.0000 H   0  0  0  0  0  0  0  0  0  0  0  0
   10.4482    3.7376    0.0000 H   0  0  0  0  0  0  0  0  0  0  0  0
   10.0497    3.0473    0.0000 H   0  0  0  0  0  0  0  0  0  0  0  0
    7.7331   -4.1550    0.0000 H   0  0  0  0  0  0  0  0  0  0  0  0
    2.2554   -2.2373    0.0000 H   0  0  0  0  0  0  0  0  0  0  0  0
    2.6540   -2.9276    0.0000 H   0  0  0  0  0  0  0  0  0  0  0  0
    3.4766   -1.4527    0.0000 H   0  0  0  0  0  0  0  0  0  0  0  0
    3.0781   -0.7624    0.0000 H   0  0  0  0  0  0  0  0  0  0  0  0
    4.3426   -2.9527    0.0000 H   0  0  0  0  0  0  0  0  0  0  0  0
    3.9441   -2.2624    0.0000 H   0  0  0  0  0  0  0  0  0  0  0  0
    1.3894   -0.7373    0.0000 H   0  0  0  0  0  0  0  0  0  0  0  0
    1.7880   -1.4276    0.0000 H   0  0  0  0  0  0  0  0  0  0  0  0
    6.3301   -4.9650    0.0000 H   0  0  0  0  0  0  0  0  0  0  0  0
    5.8626   -3.3700    0.0000 H   0  0  0  0  0  0  0  0  0  0  0  0
    5.0656   -3.3700    0.0000 H   0  0  0  0  0  0  0  0  0  0  0  0
    3.1951   -4.1550    0.0000 H   0  0  0  0  0  0  0  0  0  0  0  0
    4.5981   -4.9650    0.0000 H   0  0  0  0  0  0  0  0  0  0  0  0
    2.6200    0.1550    0.0000 H   0  0  0  0  0  0  0  0  0  0  0  0
    2.0000    0.7750    0.0000 H   0  0  0  0  0  0  0  0  0  0  0  0
    1.3800    0.1550    0.0000 H   0  0  0  0  0  0  0  0  0  0  0  0
   12.0632    4.9650    0.0000 H   0  0  0  0  0  0  0  0  0  0  0  0
  1 18  1  0  0  0  0
  1 58  1  0  0  0  0
  2 18  2  0  0  0  0
  3  4  1  0  0  0  0
  3  5  1  0  0  0  0
  3 23  1  0  0  0  0
  3 24  1  0  0  0  0
  4  6  1  0  0  0  0
  4 25  1  0  0  0  0
  4 26  1  0  0  0  0
  5  7  1  0  0  0  0
  5 27  1  0  0  0  0
  5 28  1  0  0  0  0
  6  8  1  0  0  0  0
  6 29  1  0  0  0  0
  6 30  1  0  0  0  0
  7  9  1  0  0  0  0
  7 31  1  0  0  0  0
  7 32  1  0  0  0  0
  8 10  1  0  0  0  0
  8 33  1  0  0  0  0
  8 34  1  0  0  0  0
  9 11  1  0  0  0  0
  9 35  1  0  0  0  0
  9 36  1  0  0  0  0
 10 12  1  0  0  0  0
 10 37  1  0  0  0  0
 10 38  1  0  0  0  0
 11 18  1  0  0  0  0
 11 39  1  0  0  0  0
 11 40  1  0  0  0  0
 12 17  2  0  0  0  0
 12 41  1  0  0  0  0
 13 14  1  0  0  0  0
 13 15  1  0  0  0  0
 13 42  1  0  0  0  0
 13 43  1  0  0  0  0
 14 16  1  0  0  0  0
 14 44  1  0  0  0  0
 14 45  1  0  0  0  0
 15 20  1  0  0  0  0
 15 46  1  0  0  0  0
 15 47  1  0  0  0  0
 16 22  1  0  0  0  0
 16 48  1  0  0  0  0
 16 49  1  0  0  0  0
 17 19  1  0  0  0  0
 17 50  1  0  0  0  0
 19 21  1  0  0  0  0
 19 51  1  0  0  0  0
 19 52  1  0  0  0  0
 20 21  2  0  0  0  0
 20 53  1  0  0  0  0
 21 54  1  0  0  0  0
 22 55  1  0  0  0  0
 22 56  1  0  0  0  0
 22 57  1  0  0  0  0
M  END
> <PUBCHEM_COMPOUND_CID>
6439848

> <PUBCHEM_COMPOUND_CANONICALIZED>
1

> <PUBCHEM_CACTVS_COMPLEXITY>
292

> <PUBCHEM_CACTVS_HBOND_ACCEPTOR>
2

> <PUBCHEM_CACTVS_HBOND_DONOR>
1

> <PUBCHEM_CACTVS_ROTATABLE_BOND>
16

> <PUBCHEM_CACTVS_SUBSKEYS>
AAADcfB4MAAAAAAAAAAAAAAAAAAAAAAAAAAAAAAAAAAAAAAAAAAAGgAACAAACACAgAACCAAAAgCIACDSCAAAAAAgAAAICAEAAAgAABIAAQAAQAAEgAAIAAOIyKCAAAAAAAAAAAAAAAAAAAAAAAAAAAAAAA==

> <PUBCHEM_IUPAC_OPENEYE_NAME>
(11Z,14Z)-icosa-11,14-dienoic acid

> <PUBCHEM_IUPAC_CAS_NAME>
(11Z,14Z)-eicosa-11,14-dienoic acid

> <PUBCHEM_IUPAC_NAME>
(11Z,14Z)-icosa-11,14-dienoic acid

> <PUBCHEM_IUPAC_SYSTEMATIC_NAME>
(11Z,14Z)-icosa-11,14-dienoic acid

> <PUBCHEM_IUPAC_TRADITIONAL_NAME>
(11Z,14Z)-eicosa-11,14-dienoic acid

> <PUBCHEM_IUPAC_INCHI>
InChI=1S/C20H36O2/c1-2-3-4-5-6-7-8-9-10-11-12-13-14-15-16-17-18-19-20(21)22/h6-7,9-10H,2-5,8,11-19H2,1H3,(H,21,22)/b7-6-,10-9-

> <PUBCHEM_IUPAC_INCHIKEY>
XSXIVVZCUAHUJO-HZJYTTRNSA-N

> <PUBCHEM_XLOGP3>
7.9

> <PUBCHEM_EXACT_MASS>
308.27153

> <PUBCHEM_MOLECULAR_FORMULA>
C20H36O2

> <PUBCHEM_MOLECULAR_WEIGHT>
308.49864

> <PUBCHEM_OPENEYE_CAN_SMILES>
CCCCCC=CCC=CCCCCCCCCCC(=O)O

> <PUBCHEM_OPENEYE_ISO_SMILES>
CCCCC/C=C\C/C=C\CCCCCCCCCC(=O)O

> <PUBCHEM_CACTVS_TPSA>
37.3

> <PUBCHEM_MONOISOTOPIC_WEIGHT>
308.27153

> <PUBCHEM_TOTAL_CHARGE>
0

> <PUBCHEM_HEAVY_ATOM_COUNT>
22

> <PUBCHEM_ATOM_DEF_STEREO_COUNT>
0

> <PUBCHEM_ATOM_UDEF_STEREO_COUNT>
0

> <PUBCHEM_BOND_DEF_STEREO_COUNT>
2

> <PUBCHEM_BOND_UDEF_STEREO_COUNT>
0

> <PUBCHEM_ISOTOPIC_ATOM_COUNT>
0

> <PUBCHEM_COMPONENT_COUNT>
1

> <PUBCHEM_CACTVS_TAUTO_COUNT>
1

> <PUBCHEM_COORDINATE_TYPE>
1
5
255

$$$$

