5280360
  -OEChem-07051212442D

 57 57  0     1  0  0  0  0  0999 V2000
   10.3299   -2.1048    0.0000 O   0  0  0  0  0  0  0  0  0  0  0  0
    7.4820   -4.1739    0.0000 O   0  0  0  0  0  0  0  0  0  0  0  0
    8.5698    1.1739    0.0000 O   0  0  0  0  0  0  0  0  0  0  0  0
    2.5896    1.0875    0.0000 O   0  0  0  0  0  0  0  0  0  0  0  0
    2.0544   -0.5598    0.0000 O   0  0  0  0  0  0  0  0  0  0  0  0
    8.5698   -1.8261    0.0000 C   0  0  2  0  0  0  0  0  0  0  0  0
    7.7608   -2.4139    0.0000 C   0  0  2  0  0  0  0  0  0  0  0  0
    9.3788   -2.4139    0.0000 C   0  0  1  0  0  0  0  0  0  0  0  0
    9.0698   -3.3649    0.0000 C   0  0  0  0  0  0  0  0  0  0  0  0
    8.0698   -3.3649    0.0000 C   0  0  0  0  0  0  0  0  0  0  0  0
    6.8097   -2.1048    0.0000 C   0  0  0  0  0  0  0  0  0  0  0  0
    8.5698   -0.8261    0.0000 C   0  0  0  0  0  0  0  0  0  0  0  0
    9.4358   -0.3261    0.0000 C   0  0  0  0  0  0  0  0  0  0  0  0
    6.0666   -2.7740    0.0000 C   0  0  0  0  0  0  0  0  0  0  0  0
    9.4358    0.6739    0.0000 C   0  0  2  0  0  0  0  0  0  0  0  0
   10.3018    1.1739    0.0000 C   0  0  0  0  0  0  0  0  0  0  0  0
   10.3018    2.1739    0.0000 C   0  0  0  0  0  0  0  0  0  0  0  0
    5.1155   -2.4650    0.0000 C   0  0  0  0  0  0  0  0  0  0  0  0
   11.1679    2.6739    0.0000 C   0  0  0  0  0  0  0  0  0  0  0  0
    4.9076   -1.4868    0.0000 C   0  0  0  0  0  0  0  0  0  0  0  0
   11.1679    3.6739    0.0000 C   0  0  0  0  0  0  0  0  0  0  0  0
    3.9565   -1.1778    0.0000 C   0  0  0  0  0  0  0  0  0  0  0  0
    3.7486   -0.1996    0.0000 C   0  0  0  0  0  0  0  0  0  0  0  0
   12.0339    4.1739    0.0000 C   0  0  0  0  0  0  0  0  0  0  0  0
    2.7976    0.1094    0.0000 C   0  0  0  0  0  0  0  0  0  0  0  0
    9.1222   -1.5446    0.0000 H   0  0  0  0  0  0  0  0  0  0  0  0
    7.3224   -2.8523    0.0000 H   0  0  0  0  0  0  0  0  0  0  0  0
    9.4758   -1.8015    0.0000 H   0  0  0  0  0  0  0  0  0  0  0  0
    9.0050   -3.9815    0.0000 H   0  0  0  0  0  0  0  0  0  0  0  0
    9.6762   -3.4938    0.0000 H   0  0  0  0  0  0  0  0  0  0  0  0
    7.1008   -1.5574    0.0000 H   0  0  0  0  0  0  0  0  0  0  0  0
    6.3211   -1.7231    0.0000 H   0  0  0  0  0  0  0  0  0  0  0  0
    8.0328   -0.5161    0.0000 H   0  0  0  0  0  0  0  0  0  0  0  0
    9.9727   -0.6361    0.0000 H   0  0  0  0  0  0  0  0  0  0  0  0
   10.7906   -2.5197    0.0000 H   0  0  0  0  0  0  0  0  0  0  0  0
    6.1955   -3.3804    0.0000 H   0  0  0  0  0  0  0  0  0  0  0  0
    8.8989    0.3639    0.0000 H   0  0  0  0  0  0  0  0  0  0  0  0
   10.5139    0.5913    0.0000 H   0  0  0  0  0  0  0  0  0  0  0  0
   10.9124    1.2816    0.0000 H   0  0  0  0  0  0  0  0  0  0  0  0
   10.0898    2.7565    0.0000 H   0  0  0  0  0  0  0  0  0  0  0  0
    9.6912    2.0663    0.0000 H   0  0  0  0  0  0  0  0  0  0  0  0
    4.6548   -2.8798    0.0000 H   0  0  0  0  0  0  0  0  0  0  0  0
   11.3799    2.0913    0.0000 H   0  0  0  0  0  0  0  0  0  0  0  0
   11.7784    2.7816    0.0000 H   0  0  0  0  0  0  0  0  0  0  0  0
    5.5272   -1.4652    0.0000 H   0  0  0  0  0  0  0  0  0  0  0  0
    4.9939   -0.8728    0.0000 H   0  0  0  0  0  0  0  0  0  0  0  0
    8.5698    1.7939    0.0000 H   0  0  0  0  0  0  0  0  0  0  0  0
   10.9558    4.2565    0.0000 H   0  0  0  0  0  0  0  0  0  0  0  0
   10.5573    3.5663    0.0000 H   0  0  0  0  0  0  0  0  0  0  0  0
    3.3369   -1.1994    0.0000 H   0  0  0  0  0  0  0  0  0  0  0  0
    3.8702   -1.7918    0.0000 H   0  0  0  0  0  0  0  0  0  0  0  0
    4.3682   -0.1780    0.0000 H   0  0  0  0  0  0  0  0  0  0  0  0
    3.8349    0.4143    0.0000 H   0  0  0  0  0  0  0  0  0  0  0  0
   12.3439    3.6370    0.0000 H   0  0  0  0  0  0  0  0  0  0  0  0
   12.5708    4.4839    0.0000 H   0  0  0  0  0  0  0  0  0  0  0  0
   11.7239    4.7109    0.0000 H   0  0  0  0  0  0  0  0  0  0  0  0
    2.0000    1.2791    0.0000 H   0  0  0  0  0  0  0  0  0  0  0  0
  8  1  1  6  0  0  0
  1 35  1  0  0  0  0
  2 10  2  0  0  0  0
 15  3  1  1  0  0  0
  3 47  1  0  0  0  0
  4 25  1  0  0  0  0
  4 57  1  0  0  0  0
  5 25  2  0  0  0  0
  6  7  1  0  0  0  0
  6  8  1  0  0  0  0
  6 12  1  1  0  0  0
  6 26  1  0  0  0  0
  7 10  1  0  0  0  0
  7 11  1  6  0  0  0
  7 27  1  0  0  0  0
  8  9  1  0  0  0  0
  8 28  1  0  0  0  0
  9 10  1  0  0  0  0
  9 29  1  0  0  0  0
  9 30  1  0  0  0  0
 11 14  1  0  0  0  0
 11 31  1  0  0  0  0
 11 32  1  0  0  0  0
 12 13  2  0  0  0  0
 12 33  1  0  0  0  0
 13 15  1  0  0  0  0
 13 34  1  0  0  0  0
 14 18  2  0  0  0  0
 14 36  1  0  0  0  0
 15 16  1  0  0  0  0
 15 37  1  0  0  0  0
 16 17  1  0  0  0  0
 16 38  1  0  0  0  0
 16 39  1  0  0  0  0
 17 19  1  0  0  0  0
 17 40  1  0  0  0  0
 17 41  1  0  0  0  0
 18 20  1  0  0  0  0
 18 42  1  0  0  0  0
 19 21  1  0  0  0  0
 19 43  1  0  0  0  0
 19 44  1  0  0  0  0
 20 22  1  0  0  0  0
 20 45  1  0  0  0  0
 20 46  1  0  0  0  0
 21 24  1  0  0  0  0
 21 48  1  0  0  0  0
 21 49  1  0  0  0  0
 22 23  1  0  0  0  0
 22 50  1  0  0  0  0
 22 51  1  0  0  0  0
 23 25  1  0  0  0  0
 23 52  1  0  0  0  0
 23 53  1  0  0  0  0
 24 54  1  0  0  0  0
 24 55  1  0  0  0  0
 24 56  1  0  0  0  0
M  END
> <PUBCHEM_COMPOUND_CID>
5280360

> <PUBCHEM_COMPOUND_CANONICALIZED>
1

> <PUBCHEM_CACTVS_COMPLEXITY>
469

> <PUBCHEM_CACTVS_HBOND_ACCEPTOR>
5

> <PUBCHEM_CACTVS_HBOND_DONOR>
3

> <PUBCHEM_CACTVS_ROTATABLE_BOND>
12

> <PUBCHEM_CACTVS_SUBSKEYS>
AAADcfB4OAAAAAAAAAAAAAAAAAAAAYAAAAAAAAAAAAAAAAAAAAAAGgAACAAADRSggAICCAAAAgCIAKDSCAAAAAAgAAAICAEAAAgAFBYAAQAAUAAE4AAIEAOKyICOgAAAAAAAAAAAAAAAAAAAAIAADAAAAA==

> <PUBCHEM_IUPAC_OPENEYE_NAME>
(Z)-7-[(1R,2R,3R)-3-hydroxy-2-[(E,3S)-3-hydroxyoct-1-enyl]-5-oxo-cyclopentyl]hept-5-enoic acid

> <PUBCHEM_IUPAC_CAS_NAME>
(Z)-7-[(1R,2R,3R)-3-hydroxy-2-[(E,3S)-3-hydroxyoct-1-enyl]-5-oxocyclopentyl]-5-heptenoic acid

> <PUBCHEM_IUPAC_NAME>
(Z)-7-[(1R,2R,3R)-3-hydroxy-2-[(E,3S)-3-hydroxyoct-1-enyl]-5-oxocyclopentyl]hept-5-enoic acid

> <PUBCHEM_IUPAC_SYSTEMATIC_NAME>
(Z)-7-[(1R,2R,3R)-3-oxidanyl-5-oxidanylidene-2-[(E,3S)-3-oxidanyloct-1-enyl]cyclopentyl]hept-5-enoic acid

> <PUBCHEM_IUPAC_TRADITIONAL_NAME>
(Z)-7-[(1R,2R,3R)-3-hydroxy-2-[(E,3S)-3-hydroxyoct-1-enyl]-5-keto-cyclopentyl]hept-5-enoic acid

> <PUBCHEM_IUPAC_INCHI>
InChI=1S/C20H32O5/c1-2-3-6-9-15(21)12-13-17-16(18(22)14-19(17)23)10-7-4-5-8-11-20(24)25/h4,7,12-13,15-17,19,21,23H,2-3,5-6,8-11,14H2,1H3,(H,24,25)/b7-4-,13-12+/t15-,16+,17+,19+/m0/s1

> <PUBCHEM_IUPAC_INCHIKEY>
XEYBRNLFEZDVAW-ARSRFYASSA-N

> <PUBCHEM_XLOGP3>
2.8

> <PUBCHEM_EXACT_MASS>
352.224974

> <PUBCHEM_MOLECULAR_FORMULA>
C20H32O5

> <PUBCHEM_MOLECULAR_WEIGHT>
352.46508

> <PUBCHEM_OPENEYE_CAN_SMILES>
CCCCCC(C=CC1C(CC(=O)C1CC=CCCCC(=O)O)O)O

> <PUBCHEM_OPENEYE_ISO_SMILES>
CCCCC[C@@H](/C=C/[C@H]1[C@@H](CC(=O)[C@@H]1C/C=C\CCCC(=O)O)O)O

> <PUBCHEM_CACTVS_TPSA>
94.8

> <PUBCHEM_MONOISOTOPIC_WEIGHT>
352.224974

> <PUBCHEM_TOTAL_CHARGE>
0

> <PUBCHEM_HEAVY_ATOM_COUNT>
25

> <PUBCHEM_ATOM_DEF_STEREO_COUNT>
4

> <PUBCHEM_ATOM_UDEF_STEREO_COUNT>
0

> <PUBCHEM_BOND_DEF_STEREO_COUNT>
2

> <PUBCHEM_BOND_UDEF_STEREO_COUNT>
0

> <PUBCHEM_ISOTOPIC_ATOM_COUNT>
0

> <PUBCHEM_COMPONENT_COUNT>
1

> <PUBCHEM_CACTVS_TAUTO_COUNT>
3

> <PUBCHEM_COORDINATE_TYPE>
1
5
255

> <PUBCHEM_BONDANNOTATIONS>
8  1  6
15  3  5
6  12  5
7  11  6

$$$$

