   Color/Form

     * Monoclinic prisms or oil
     * Colorless to pale yellow liquid or solid (below 67 degrees F).

   from [1]HSDB

   Odor
        Faint, aromatic odor.
   from [2]HSDB

   Boiling Point
        243.5 deg C, decomp (760 mm Hg); 173.5 deg C at 100 mm Hg; 148.2
   deg C at 40 mm Hg; 131.5 deg C at 20 mm Hg; 115.8 deg C at 10 mm Hg;
   101.6 deg C at 5 mm Hg; 71.8 deg C at 1 mm Hg
   from [3]HSDB

   Melting Point
        19.5 deg C
   from [4]HSDB

   Density/Specific Gravity
        1.0978 at 20 deg C/4 deg C
   from [5]HSDB

   Dissociation Constants
        Weak base, pK= 5.21 at 15 deg
   from [6]HSDB

   Heat of Combustion
        -875.4 kcal/g mol wt at 20 deg C (solid)
   from [7]HSDB

   Heat of Vaporization
        13,711.9 kcal/g mole
   from [8]HSDB

   Octanol/Water Partition Coefficient
        log Kow= 1.25
   from [9]HSDB

   Solubilities

     * Sparingly sol petroleum ether, sol in dil acids. Miscible in
       alcohol, ether, chloroform, and benzene
     * Soluble in oxygenated, chlorinated, and aromatic solvents.
     * Very soluble in acetone.
     * In water, 1.27X10+5 mg/L at 25 deg C [Valvani SC et al; J Pharm Sci
       70: 502-507 (1981)] [10]PubMed Abstract

   from [11]HSDB

   Spectral Properties

     * MAX ABSORPTION (ALCOHOL): 241 NM (LOG E= 3.97); 283 NM (LOG E= 3.2)
     * Index of refraction: 1.60813 @ 20.3 deg C/D
     * IR: 18429 (Sadtler Research Laboratories Prism Collection)
     * MASS: 64420 (NIST/EPA/MSDC Mass Spectral database, 1990 version)
     * UV: OES 6-80
     * NMR: 9093 (Sadtler Research Laboratories)

   from [12]HSDB

   Surface Tension
        46.1 dynes/cm at 20 deg C (in contact with vapor)
   from [13]HSDB

   Vapor Density
        3.7 (air= 1)
   from [14]HSDB

   Vapor Pressure
        0.026 mm Hg at 25 deg C
   from [15]HSDB

   Other Chemical/Physical Properties

     * Conversion factors: 1 mg/l= 226 ppm; 1 ppm= 4.4 mg/cu m
     * Turns yellow to dark red on exposure to air and light. ...Forms a
       hemihydrate.
     * Dielectric constant: 7.2 @ 21 deg C; dipole moment: 1.67 @ 25 deg C
     * Heat of fusion 36.31 cal/g
     * Leaflets from alcohol. ...Freely soluble in water; soluble in
       alcohol. Practically insoluble in ether. /Phenylhydrazine
       hydrochloride/
     * MP: 243-6 deg C, decomposes; molecular wt 144.60 /Phenylhydrazine
       hydrochloride/
     * IR: 1868 (Coblentz Society Spectral Collection) /Phenylhydrazine
       hydrochloride/
     * UV: 17823 (Sadtler Research Laboratories Spectral Collection)
       /Phenylhydrazine hydrochloride/
     * MASS: 115 (National Bureau of Standards EPA-NIH Mass Spectra Data
       Base, NSRDS-NBS-63) /Phenylhydrazine hydrochloride/
     * Index of refraction: 1.6084 @ 20 deg C; molecular wt 117.15; MP 24
       deg C, BP 120 deg C @ 12 mm Hg, flakes from water, density 1.0970 @
       25 deg C/25 deg C /Phenylhydrazine hemihydrate/
     * MASS: 115 (National Bureau of Standards EPA-NIH Mass Spectra Data
       Base, NSRDS-NBS-63) /Phenylhydrazine hemihydrate/
     * Ionization potential: 7.66 eV
     * Liquid Molar Volume= 0.098820 cu m/kmol; IG Heat of Formation=
       2.0350X10+8 J/kmol; Heat of Fusion at the Melting Point=
       1.6429X10+7 J/kmol.
     * Hydroxyl radical reaction rate constant = 4.3X10-11 cu
       cm/molecule-sec at 25 deg C /Estimated/
     * Henry's Law constant = 2.9X10-8 atm-cu m/mole at 25 deg C
       /Estimated/

   from [16]HSDB

   Computed Properties
   Molecular Weight                  108.14112 [g/mol]
   Molecular Formula                 C[6]H[8]N[2]
   XLogP3                            1.2
   H-Bond Donor                      2
   H-Bond Acceptor                   2
   Rotatable Bond Count              1
   Exact Mass                        108.068748
   MonoIsotopic Mass                 108.068748
   Topological Polar Surface Area    38
   Heavy Atom Count                  8
   Formal Charge                     0
   Complexity                        57.5
   Isotope Atom Count                0
   Defined Atom Stereocenter Count   0
   Undefined Atom Stereocenter Count 0
   Defined Bond Stereocenter Count   0
   Undefined Bond Stereocenter Count 0
   Covalently-Bonded Unit Count      1
   Feature 3D Donor Count            2
   Feature 3D Ring Count             1
   Effective Rotor Count             1
   Conformer Sampling RMSD           0.4
   CID Conformer Count               [17]2

References

   1. http://toxnet.nlm.nih.gov/cgi-bin/sis/search/r?dbs+hsdb:@term+@rn+@rel+100-63-0
   2. http://toxnet.nlm.nih.gov/cgi-bin/sis/search/r?dbs+hsdb:@term+@rn+@rel+100-63-0
   3. http://toxnet.nlm.nih.gov/cgi-bin/sis/search/r?dbs+hsdb:@term+@rn+@rel+100-63-0
   4. http://toxnet.nlm.nih.gov/cgi-bin/sis/search/r?dbs+hsdb:@term+@rn+@rel+100-63-0
   5. http://toxnet.nlm.nih.gov/cgi-bin/sis/search/r?dbs+hsdb:@term+@rn+@rel+100-63-0
   6. http://toxnet.nlm.nih.gov/cgi-bin/sis/search/r?dbs+hsdb:@term+@rn+@rel+100-63-0
   7. http://toxnet.nlm.nih.gov/cgi-bin/sis/search/r?dbs+hsdb:@term+@rn+@rel+100-63-0
   8. http://toxnet.nlm.nih.gov/cgi-bin/sis/search/r?dbs+hsdb:@term+@rn+@rel+100-63-0
   9. http://toxnet.nlm.nih.gov/cgi-bin/sis/search/r?dbs+hsdb:@term+@rn+@rel+100-63-0
  10. http://www.ncbi.nlm.nih.gov/entrez/query.fcgi?cmd=Retrieve&db=pubmed&dopt=Abstract&list_uids=7241352
  11. http://toxnet.nlm.nih.gov/cgi-bin/sis/search/r?dbs+hsdb:@term+@rn+@rel+100-63-0
  12. http://toxnet.nlm.nih.gov/cgi-bin/sis/search/r?dbs+hsdb:@term+@rn+@rel+100-63-0
  13. http://toxnet.nlm.nih.gov/cgi-bin/sis/search/r?dbs+hsdb:@term+@rn+@rel+100-63-0
  14. http://toxnet.nlm.nih.gov/cgi-bin/sis/search/r?dbs+hsdb:@term+@rn+@rel+100-63-0
  15. http://toxnet.nlm.nih.gov/cgi-bin/sis/search/r?dbs+hsdb:@term+@rn+@rel+100-63-0
  16. http://toxnet.nlm.nih.gov/cgi-bin/sis/search/r?dbs+hsdb:@term+@rn+@rel+100-63-0
  17. http://pubchem.ncbi.nlm.nih.gov/vw3d/vw3d.cgi?cid=7516
