586152
  -OEChem-06241222452D

 24 25  0     1  0  0  0  0  0999 V2000
    3.6750   -1.5014    0.0000 S   0  0  0  0  0  0  0  0  0  0  0  0
    2.5000    2.4524    0.0000 O   0  0  0  0  0  0  0  0  0  0  0  0
    2.8660    0.0864    0.0000 C   0  0  3  0  0  0  0  0  0  0  0  0
    3.3660    0.9524    0.0000 C   0  0  3  0  0  0  0  0  0  0  0  0
    3.8660    0.0864    0.0000 C   0  0  0  0  0  0  0  0  0  0  0  0
    2.0000    0.5864    0.0000 C   0  0  0  0  0  0  0  0  0  0  0  0
    2.8660   -0.9136    0.0000 C   0  0  0  0  0  0  0  0  0  0  0  0
    3.3660    1.9524    0.0000 C   0  0  0  0  0  0  0  0  0  0  0  0
    2.0570   -1.5014    0.0000 C   0  0  0  0  0  0  0  0  0  0  0  0
    4.2320    2.4524    0.0000 C   0  0  0  0  0  0  0  0  0  0  0  0
    2.3660   -2.4524    0.0000 C   0  0  0  0  0  0  0  0  0  0  0  0
    3.3660   -2.4524    0.0000 C   0  0  0  0  0  0  0  0  0  0  0  0
    4.1871    1.1724    0.0000 H   0  0  0  0  0  0  0  0  0  0  0  0
    3.9737   -0.5242    0.0000 H   0  0  0  0  0  0  0  0  0  0  0  0
    4.4486    0.2985    0.0000 H   0  0  0  0  0  0  0  0  0  0  0  0
    2.3100    1.1233    0.0000 H   0  0  0  0  0  0  0  0  0  0  0  0
    1.4631    0.8964    0.0000 H   0  0  0  0  0  0  0  0  0  0  0  0
    1.6900    0.0495    0.0000 H   0  0  0  0  0  0  0  0  0  0  0  0
    1.4674   -1.3098    0.0000 H   0  0  0  0  0  0  0  0  0  0  0  0
    4.5420    1.9155    0.0000 H   0  0  0  0  0  0  0  0  0  0  0  0
    4.7690    2.7624    0.0000 H   0  0  0  0  0  0  0  0  0  0  0  0
    3.9220    2.9894    0.0000 H   0  0  0  0  0  0  0  0  0  0  0  0
    2.0016   -2.9540    0.0000 H   0  0  0  0  0  0  0  0  0  0  0  0
    3.7304   -2.9540    0.0000 H   0  0  0  0  0  0  0  0  0  0  0  0
  1  7  1  0  0  0  0
  1 12  1  0  0  0  0
  2  8  2  0  0  0  0
  3  4  1  0  0  0  0
  3  5  1  0  0  0  0
  3  6  1  0  0  0  0
  3  7  1  0  0  0  0
  4  5  1  0  0  0  0
  4  8  1  0  0  0  0
  4 13  1  0  0  0  0
  5 14  1  0  0  0  0
  5 15  1  0  0  0  0
  6 16  1  0  0  0  0
  6 17  1  0  0  0  0
  6 18  1  0  0  0  0
  7  9  2  0  0  0  0
  8 10  1  0  0  0  0
  9 11  1  0  0  0  0
  9 19  1  0  0  0  0
 10 20  1  0  0  0  0
 10 21  1  0  0  0  0
 10 22  1  0  0  0  0
 11 12  2  0  0  0  0
 11 23  1  0  0  0  0
 12 24  1  0  0  0  0
M  END
> <PUBCHEM_COMPOUND_CID>
586152

> <PUBCHEM_COMPOUND_CANONICALIZED>
1

> <PUBCHEM_CACTVS_COMPLEXITY>
214

> <PUBCHEM_CACTVS_HBOND_ACCEPTOR>
2

> <PUBCHEM_CACTVS_HBOND_DONOR>
0

> <PUBCHEM_CACTVS_ROTATABLE_BOND>
2

> <PUBCHEM_CACTVS_SUBSKEYS>
AAADccBwIABAAAAAAAAAAAAAGAAAASAAAAAAAAAAAAAAAAABgAAAGgQAAAAADwSE0ACyAYAAAAiMAKBSAAADAIAgCBBIiBkAAIgIIDKgERCAAAAggAAoiAcIiMCPgAAAAAAAAAAAAAAAAAAAAAAAAAAAAA==

> <PUBCHEM_IUPAC_OPENEYE_NAME>
1-[2-methyl-2-(2-thienyl)cyclopropyl]ethanone

> <PUBCHEM_IUPAC_CAS_NAME>
1-(2-methyl-2-thiophen-2-ylcyclopropyl)ethanone

> <PUBCHEM_IUPAC_NAME>
1-(2-methyl-2-thiophen-2-ylcyclopropyl)ethanone

> <PUBCHEM_IUPAC_SYSTEMATIC_NAME>
1-(2-methyl-2-thiophen-2-yl-cyclopropyl)ethanone

> <PUBCHEM_IUPAC_TRADITIONAL_NAME>
1-[2-methyl-2-(2-thienyl)cyclopropyl]ethanone

> <PUBCHEM_IUPAC_INCHI>
InChI=1S/C10H12OS/c1-7(11)8-6-10(8,2)9-4-3-5-12-9/h3-5,8H,6H2,1-2H3

> <PUBCHEM_IUPAC_INCHIKEY>
FOZJRORDTQMVHT-UHFFFAOYSA-N

> <PUBCHEM_XLOGP3_AA>
2.1

> <PUBCHEM_EXACT_MASS>
180.060886

> <PUBCHEM_MOLECULAR_FORMULA>
C10H12OS

> <PUBCHEM_MOLECULAR_WEIGHT>
180.26668

> <PUBCHEM_OPENEYE_CAN_SMILES>
CC(=O)C1CC1(C)C2=CC=CS2

> <PUBCHEM_OPENEYE_ISO_SMILES>
CC(=O)C1CC1(C)C2=CC=CS2

> <PUBCHEM_CACTVS_TPSA>
45.3

> <PUBCHEM_MONOISOTOPIC_WEIGHT>
180.060886

> <PUBCHEM_TOTAL_CHARGE>
0

> <PUBCHEM_HEAVY_ATOM_COUNT>
12

> <PUBCHEM_ATOM_DEF_STEREO_COUNT>
0

> <PUBCHEM_ATOM_UDEF_STEREO_COUNT>
2

> <PUBCHEM_BOND_DEF_STEREO_COUNT>
0

> <PUBCHEM_BOND_UDEF_STEREO_COUNT>
0

> <PUBCHEM_ISOTOPIC_ATOM_COUNT>
0

> <PUBCHEM_COMPONENT_COUNT>
1

> <PUBCHEM_CACTVS_TAUTO_COUNT>
3

> <PUBCHEM_COORDINATE_TYPE>
1
5
255

> <PUBCHEM_BONDANNOTATIONS>
1  12  8
1  7  8
11  12  8
3  6  3
4  13  3
7  9  8
9  11  8

$$$$

