13682
  -OEChem-06241222392D

 31 30  0     1  0  0  0  0  0999 V2000
    6.5380    3.4650    0.0000 Cl  0  5  0  0  0  0  0  0  0  0  0  0
    1.4030    4.8100    0.0000 O   0  0  0  0  0  0  0  0  0  0  0  0
    0.5369    1.3100    0.0000 O   0  0  0  0  0  0  0  0  0  0  0  0
    2.2690    0.3100    0.0000 O   0  0  0  0  0  0  0  0  0  0  0  0
    3.1350    5.8100    0.0000 N   0  3  0  0  0  0  0  0  0  0  0  0
    3.1350    4.8100    0.0000 C   0  0  3  0  0  0  0  0  0  0  0  0
    2.2690    4.3100    0.0000 C   0  0  3  0  0  0  0  0  0  0  0  0
    2.2690    3.3100    0.0000 C   0  0  0  0  0  0  0  0  0  0  0  0
    4.0010    4.3100    0.0000 C   0  0  0  0  0  0  0  0  0  0  0  0
    3.1350    6.8100    0.0000 C   0  0  0  0  0  0  0  0  0  0  0  0
    1.4030    2.8100    0.0000 C   0  0  0  0  0  0  0  0  0  0  0  0
    3.1350    2.8100    0.0000 C   0  0  0  0  0  0  0  0  0  0  0  0
    1.4030    1.8100    0.0000 C   0  0  0  0  0  0  0  0  0  0  0  0
    3.1350    1.8100    0.0000 C   0  0  0  0  0  0  0  0  0  0  0  0
    2.2690    1.3100    0.0000 C   0  0  0  0  0  0  0  0  0  0  0  0
    3.6720    5.1200    0.0000 H   0  0  0  0  0  0  0  0  0  0  0  0
    2.2690    4.9300    0.0000 H   0  0  0  0  0  0  0  0  0  0  0  0
    3.7550    5.8100    0.0000 H   0  0  0  0  0  0  0  0  0  0  0  0
    2.5150    5.8100    0.0000 H   0  0  0  0  0  0  0  0  0  0  0  0
    3.6910    3.7731    0.0000 H   0  0  0  0  0  0  0  0  0  0  0  0
    4.5380    4.0000    0.0000 H   0  0  0  0  0  0  0  0  0  0  0  0
    4.3110    4.8469    0.0000 H   0  0  0  0  0  0  0  0  0  0  0  0
    3.7550    6.8100    0.0000 H   0  0  0  0  0  0  0  0  0  0  0  0
    3.1350    7.4300    0.0000 H   0  0  0  0  0  0  0  0  0  0  0  0
    2.5150    6.8100    0.0000 H   0  0  0  0  0  0  0  0  0  0  0  0
    0.8660    3.1200    0.0000 H   0  0  0  0  0  0  0  0  0  0  0  0
    3.6720    3.1200    0.0000 H   0  0  0  0  0  0  0  0  0  0  0  0
    1.4030    5.4300    0.0000 H   0  0  0  0  0  0  0  0  0  0  0  0
    3.6720    1.5000    0.0000 H   0  0  0  0  0  0  0  0  0  0  0  0
    0.0000    1.6200    0.0000 H   0  0  0  0  0  0  0  0  0  0  0  0
    2.8059    0.0000    0.0000 H   0  0  0  0  0  0  0  0  0  0  0  0
  2  7  1  0  0  0  0
  2 28  1  0  0  0  0
  3 13  1  0  0  0  0
  3 30  1  0  0  0  0
  4 15  1  0  0  0  0
  4 31  1  0  0  0  0
  5  6  1  0  0  0  0
  5 10  1  0  0  0  0
  5 18  1  0  0  0  0
  5 19  1  0  0  0  0
  6  7  1  0  0  0  0
  6  9  1  0  0  0  0
  6 16  1  0  0  0  0
  7  8  1  0  0  0  0
  7 17  1  0  0  0  0
  8 11  2  0  0  0  0
  8 12  1  0  0  0  0
  9 20  1  0  0  0  0
  9 21  1  0  0  0  0
  9 22  1  0  0  0  0
 10 23  1  0  0  0  0
 10 24  1  0  0  0  0
 10 25  1  0  0  0  0
 11 13  1  0  0  0  0
 11 26  1  0  0  0  0
 12 14  2  0  0  0  0
 12 27  1  0  0  0  0
 13 15  2  0  0  0  0
 14 15  1  0  0  0  0
 14 29  1  0  0  0  0
M  CHG  2   1  -1   5   1
M  END
> <PUBCHEM_COMPOUND_CID>
13682

> <PUBCHEM_COMPOUND_CANONICALIZED>
1

> <PUBCHEM_CACTVS_COMPLEXITY>
177

> <PUBCHEM_CACTVS_HBOND_ACCEPTOR>
4

> <PUBCHEM_CACTVS_HBOND_DONOR>
4

> <PUBCHEM_CACTVS_ROTATABLE_BOND>
3

> <PUBCHEM_CACTVS_SUBSKEYS>
AAADceByMAAEAAAAAAAAAAAAAAAAAAAAAAAwAAAAAAAAAAABAAAAHgAQCAAADDzhmAYyBoLAAgCAAiBCAAACAAAgIAAIiIAOiIgLNiKCkROEcAEk0BEZmAfQ8LcOIAABAAAAQABAAAIAAACAAAAAAAAAAA==

> <PUBCHEM_IUPAC_OPENEYE_NAME>
[2-(3,4-dihydroxyphenyl)-2-hydroxy-1-methyl-ethyl]-methyl-ammonium chloride

> <PUBCHEM_IUPAC_CAS_NAME>
[1-(3,4-dihydroxyphenyl)-1-hydroxypropan-2-yl]-methylammonium chloride

> <PUBCHEM_IUPAC_NAME>
[1-(3,4-dihydroxyphenyl)-1-hydroxypropan-2-yl]-methylazanium chloride

> <PUBCHEM_IUPAC_SYSTEMATIC_NAME>
[1-[3,4-bis(oxidanyl)phenyl]-1-oxidanyl-propan-2-yl]-methyl-azanium chloride

> <PUBCHEM_IUPAC_TRADITIONAL_NAME>
[2-(3,4-dihydroxyphenyl)-2-hydroxy-1-methyl-ethyl]-methyl-ammonium chloride

> <PUBCHEM_IUPAC_INCHI>
InChI=1S/C10H15NO3.ClH/c1-6(11-2)10(14)7-3-4-8(12)9(13)5-7;/h3-6,10-14H,1-2H3;1H

> <PUBCHEM_IUPAC_INCHIKEY>
HPDZIFBLRDLGFA-UHFFFAOYSA-N

> <PUBCHEM_EXACT_MASS>
233.081871

> <PUBCHEM_MOLECULAR_FORMULA>
C10H16ClNO3

> <PUBCHEM_MOLECULAR_WEIGHT>
233.69194

> <PUBCHEM_OPENEYE_CAN_SMILES>
CC(C(C1=CC(=C(C=C1)O)O)O)[NH2+]C.[Cl-]

> <PUBCHEM_OPENEYE_ISO_SMILES>
CC(C(C1=CC(=C(C=C1)O)O)O)[NH2+]C.[Cl-]

> <PUBCHEM_CACTVS_TPSA>
77.3

> <PUBCHEM_MONOISOTOPIC_WEIGHT>
233.081871

> <PUBCHEM_TOTAL_CHARGE>
0

> <PUBCHEM_HEAVY_ATOM_COUNT>
15

> <PUBCHEM_ATOM_DEF_STEREO_COUNT>
0

> <PUBCHEM_ATOM_UDEF_STEREO_COUNT>
2

> <PUBCHEM_BOND_DEF_STEREO_COUNT>
0

> <PUBCHEM_BOND_UDEF_STEREO_COUNT>
0

> <PUBCHEM_ISOTOPIC_ATOM_COUNT>
0

> <PUBCHEM_COMPONENT_COUNT>
2

> <PUBCHEM_CACTVS_TAUTO_COUNT>
10

> <PUBCHEM_COORDINATE_TYPE>
1
5
255

> <PUBCHEM_BONDANNOTATIONS>
11  13  8
12  14  8
13  15  8
14  15  8
7  2  3
6  9  3
8  11  8
8  12  8

$$$$

