   Color/Form

     * White solid from acetonitrile
     * White to almost white powder

   from [1]HSDB

   Odor
        Slight odor
   from [2]HSDB

   Melting Point
        227-229 deg C (decomposition)
   from [3]HSDB

   Dissociation Constants
        pKa = 8.1
   from [4]HSDB

   Solubilities

     * Solubility of 50 mg/ml in alcohol at 25 deg C
     * In water, 11 mg/ml @ 25 deg C

   from [5]HSDB

   Other Chemical/Physical Properties
        Solid; mp: 192.5 deg C (decomposition); solubility at 25 deg C
   (mg/ml): propylene glycol 100, chloroform 0.6, ethyl acetate 1
   /Guanabenz monoacetate/
   from [6]HSDB

   Computed Properties
   Molecular Weight                  231.08192 [g/mol]
   Molecular Formula                 C[8]H[8]Cl[2]N[4]
   XLogP3-AA                         1.7
   H-Bond Donor                      2
   H-Bond Acceptor                   2
   Rotatable Bond Count              2
   Tautomer Count                    2
   Exact Mass                        230.012602
   MonoIsotopic Mass                 230.012602
   Topological Polar Surface Area    76.8
   Heavy Atom Count                  14
   Formal Charge                     0
   Complexity                        228
   Isotope Atom Count                0
   Defined Atom Stereocenter Count   0
   Undefined Atom Stereocenter Count 0
   Defined Bond Stereocenter Count   1
   Undefined Bond Stereocenter Count 0
   Covalently-Bonded Unit Count      1
   Feature 3D Acceptor Count         1
   Feature 3D Donor Count            2
   Feature 3D Cation Count           1
   Feature 3D Ring Count             1
   Effective Rotor Count             2
   Conformer Sampling RMSD           0.6
   CID Conformer Count               [7]2

References

   1. http://toxnet.nlm.nih.gov/cgi-bin/sis/search/r?dbs+hsdb:@term+@rn+@rel+23256-50-0
   2. http://toxnet.nlm.nih.gov/cgi-bin/sis/search/r?dbs+hsdb:@term+@rn+@rel+23256-50-0
   3. http://toxnet.nlm.nih.gov/cgi-bin/sis/search/r?dbs+hsdb:@term+@rn+@rel+23256-50-0
   4. http://toxnet.nlm.nih.gov/cgi-bin/sis/search/r?dbs+hsdb:@term+@rn+@rel+23256-50-0
   5. http://toxnet.nlm.nih.gov/cgi-bin/sis/search/r?dbs+hsdb:@term+@rn+@rel+23256-50-0
   6. http://toxnet.nlm.nih.gov/cgi-bin/sis/search/r?dbs+hsdb:@term+@rn+@rel+23256-50-0
   7. http://pubchem.ncbi.nlm.nih.gov/vw3d/vw3d.cgi?cid=5702063
