442019
  -OEChem-07051212562D

 52 56  0     1  0  0  0  0  0999 V2000
    4.5686   -2.6257    0.0000 O   0  0  0  0  0  0  0  0  0  0  0  0
    6.6425   -1.4662    0.0000 O   0  0  0  0  0  0  0  0  0  0  0  0
    4.7088    3.0863    0.0000 O   0  0  0  0  0  0  0  0  0  0  0  0
    3.0586   -3.5985    0.0000 O   0  0  0  0  0  0  0  0  0  0  0  0
    5.6427   -0.0054    0.0000 C   0  0  1  0  0  0  0  0  0  0  0  0
    3.8722   -0.1449    0.0000 C   0  0  1  0  0  0  0  0  0  0  0  0
    4.7418    0.4285    0.0000 C   0  0  2  0  0  0  0  0  0  0  0  0
    3.9420   -1.1842    0.0000 C   0  0  2  0  0  0  0  0  0  0  0  0
    4.8805   -1.6361    0.0000 C   0  0  2  0  0  0  0  0  0  0  0  0
    5.7366   -1.0428    0.0000 C   0  0  2  0  0  0  0  0  0  0  0  0
    3.0503   -1.8023    0.0000 C   0  0  1  0  0  0  0  0  0  0  0  0
    5.5359    1.1714    0.0000 C   0  0  0  0  0  0  0  0  0  0  0  0
    4.5192    1.4035    0.0000 C   0  0  0  0  0  0  0  0  0  0  0  0
    6.1427    2.1853    0.0000 C   0  0  1  0  0  0  0  0  0  0  0  0
    6.5437    0.4285    0.0000 C   0  0  0  0  0  0  0  0  0  0  0  0
    2.9058    0.3483    0.0000 C   0  0  0  0  0  0  0  0  0  0  0  0
    5.1427    2.1853    0.0000 C   0  0  1  0  0  0  0  0  0  0  0  0
    2.0727   -1.3315    0.0000 C   0  0  0  0  0  0  0  0  0  0  0  0
    6.7662    1.4035    0.0000 C   0  0  0  0  0  0  0  0  0  0  0  0
    3.4679    0.7697    0.0000 C   0  0  0  0  0  0  0  0  0  0  0  0
    2.0000   -0.2490    0.0000 C   0  0  0  0  0  0  0  0  0  0  0  0
    3.5353   -2.7195    0.0000 C   0  0  0  0  0  0  0  0  0  0  0  0
    2.6199   -2.7049    0.0000 C   0  0  0  0  0  0  0  0  0  0  0  0
    7.7412    1.6260    0.0000 C   0  0  0  0  0  0  0  0  0  0  0  0
    3.9759    0.7973    0.0000 H   0  0  0  0  0  0  0  0  0  0  0  0
    3.1762   -0.8154    0.0000 H   0  0  0  0  0  0  0  0  0  0  0  0
    5.5648   -2.1404    0.0000 H   0  0  0  0  0  0  0  0  0  0  0  0
    5.7889   -1.6605    0.0000 H   0  0  0  0  0  0  0  0  0  0  0  0
    5.1281    1.6384    0.0000 H   0  0  0  0  0  0  0  0  0  0  0  0
    4.9658    0.9276    0.0000 H   0  0  0  0  0  0  0  0  0  0  0  0
    4.1327    1.8882    0.0000 H   0  0  0  0  0  0  0  0  0  0  0  0
    3.9606    1.1344    0.0000 H   0  0  0  0  0  0  0  0  0  0  0  0
    6.3319    3.0140    0.0000 H   0  0  0  0  0  0  0  0  0  0  0  0
    6.6817   -0.1759    0.0000 H   0  0  0  0  0  0  0  0  0  0  0  0
    7.1637    0.4285    0.0000 H   0  0  0  0  0  0  0  0  0  0  0  0
    3.2780    0.8442    0.0000 H   0  0  0  0  0  0  0  0  0  0  0  0
    2.4809    0.7999    0.0000 H   0  0  0  0  0  0  0  0  0  0  0  0
    4.5266    2.2547    0.0000 H   0  0  0  0  0  0  0  0  0  0  0  0
    1.4561   -1.2666    0.0000 H   0  0  0  0  0  0  0  0  0  0  0  0
    1.9033   -1.9279    0.0000 H   0  0  0  0  0  0  0  0  0  0  0  0
    4.0350    1.0204    0.0000 H   0  0  0  0  0  0  0  0  0  0  0  0
    3.2173    1.3368    0.0000 H   0  0  0  0  0  0  0  0  0  0  0  0
    2.9008    0.5191    0.0000 H   0  0  0  0  0  0  0  0  0  0  0  0
    1.7523    0.3194    0.0000 H   0  0  0  0  0  0  0  0  0  0  0  0
    1.3976   -0.3958    0.0000 H   0  0  0  0  0  0  0  0  0  0  0  0
    2.0602   -2.4381    0.0000 H   0  0  0  0  0  0  0  0  0  0  0  0
    2.3530   -3.2646    0.0000 H   0  0  0  0  0  0  0  0  0  0  0  0
    3.1795   -2.9718    0.0000 H   0  0  0  0  0  0  0  0  0  0  0  0
    6.6960   -2.0839    0.0000 H   0  0  0  0  0  0  0  0  0  0  0  0
    8.1628    1.1715    0.0000 H   0  0  0  0  0  0  0  0  0  0  0  0
    7.9239    2.2184    0.0000 H   0  0  0  0  0  0  0  0  0  0  0  0
    5.0581    3.5985    0.0000 H   0  0  0  0  0  0  0  0  0  0  0  0
  1  9  1  0  0  0  0
  1 22  1  0  0  0  0
 10  2  1  1  0  0  0
  2 49  1  0  0  0  0
 17  3  1  6  0  0  0
  3 52  1  0  0  0  0
  4 22  2  0  0  0  0
  5  7  1  0  0  0  0
  5 10  1  0  0  0  0
  5 12  1  6  0  0  0
  5 15  1  0  0  0  0
  6  7  1  0  0  0  0
  6  8  1  0  0  0  0
  6 16  1  0  0  0  0
  6 20  1  6  0  0  0
  7 13  1  0  0  0  0
  7 25  1  1  0  0  0
  8  9  1  0  0  0  0
  8 11  1  0  0  0  0
  8 26  1  1  0  0  0
  9 10  1  0  0  0  0
  9 27  1  1  0  0  0
 10 28  1  0  0  0  0
 11 18  1  0  0  0  0
 11 22  1  0  0  0  0
 11 23  1  1  0  0  0
 12 14  1  0  0  0  0
 12 29  1  0  0  0  0
 12 30  1  0  0  0  0
 13 17  1  0  0  0  0
 13 31  1  0  0  0  0
 13 32  1  0  0  0  0
 14 17  1  0  0  0  0
 14 19  1  0  0  0  0
 14 33  1  6  0  0  0
 15 19  1  0  0  0  0
 15 34  1  0  0  0  0
 15 35  1  0  0  0  0
 16 21  1  0  0  0  0
 16 36  1  0  0  0  0
 16 37  1  0  0  0  0
 17 38  1  0  0  0  0
 18 21  1  0  0  0  0
 18 39  1  0  0  0  0
 18 40  1  0  0  0  0
 19 24  2  0  0  0  0
 20 41  1  0  0  0  0
 20 42  1  0  0  0  0
 20 43  1  0  0  0  0
 21 44  1  0  0  0  0
 21 45  1  0  0  0  0
 23 46  1  0  0  0  0
 23 47  1  0  0  0  0
 23 48  1  0  0  0  0
 24 50  1  0  0  0  0
 24 51  1  0  0  0  0
M  END
> <PUBCHEM_COMPOUND_CID>
442019

> <PUBCHEM_COMPOUND_CANONICALIZED>
1

> <PUBCHEM_CACTVS_COMPLEXITY>
644

> <PUBCHEM_CACTVS_HBOND_ACCEPTOR>
4

> <PUBCHEM_CACTVS_HBOND_DONOR>
2

> <PUBCHEM_CACTVS_ROTATABLE_BOND>
0

> <PUBCHEM_CACTVS_SUBSKEYS>
AAADceB4OAAAAAAAAAAAAAAAAAAAAaIAAAAwYMAABgAAAEjAAAAAGgAACAAADxSggAICCAAABgCIAgDSCAAAAAAgAAAAAAEAAAgBEBIAAQACQAAEwAADAAGK7PTPgAAAAAAAAADAAAYAADCAAQAAAAAAAA==

> <PUBCHEM_IUPAC_INCHI>
InChI=1S/C20H28O4/c1-10-8-20-9-11(10)12(21)7-13(20)18(2)5-4-6-19(3)15(18)14(16(20)22)24-17(19)23/h11-16,21-22H,1,4-9H2,2-3H3/t11-,12+,13+,14-,15+,16+,18+,19-,20+/m1/s1

> <PUBCHEM_IUPAC_INCHIKEY>
OSYJLXUUZYSFTC-OTFYASLDSA-N

> <PUBCHEM_XLOGP3_AA>
2.4

> <PUBCHEM_EXACT_MASS>
332.198759

> <PUBCHEM_MOLECULAR_FORMULA>
C20H28O4

> <PUBCHEM_MOLECULAR_WEIGHT>
332.43392

> <PUBCHEM_OPENEYE_CAN_SMILES>
CC12CCCC3(C1C(C(C45C2CC(C(C4)C(=C)C5)O)O)OC3=O)C

> <PUBCHEM_OPENEYE_ISO_SMILES>
C[C@@]12CCC[C@@]3([C@H]1[C@H]([C@@H]([C@]45[C@H]2C[C@@H]([C@H](C4)C(=C)C5)O)O)OC3=O)C

> <PUBCHEM_CACTVS_TPSA>
66.8

> <PUBCHEM_MONOISOTOPIC_WEIGHT>
332.198759

> <PUBCHEM_TOTAL_CHARGE>
0

> <PUBCHEM_HEAVY_ATOM_COUNT>
24

> <PUBCHEM_ATOM_DEF_STEREO_COUNT>
9

> <PUBCHEM_ATOM_UDEF_STEREO_COUNT>
0

> <PUBCHEM_BOND_DEF_STEREO_COUNT>
0

> <PUBCHEM_BOND_UDEF_STEREO_COUNT>
0

> <PUBCHEM_ISOTOPIC_ATOM_COUNT>
0

> <PUBCHEM_COMPONENT_COUNT>
1

> <PUBCHEM_CACTVS_TAUTO_COUNT>
1

> <PUBCHEM_COORDINATE_TYPE>
1
5
255

> <PUBCHEM_BONDANNOTATIONS>
11  23  5
14  33  6
10  2  5
17  3  6
5  12  6
6  20  6
7  25  5
8  26  5
9  27  5

$$$$

