3554
  -OEChem-06251223302D

102107  0     1  0  0  0  0  0999 V2000
    2.9136    3.0735    0.0000 S   0  0  0  0  0  0  0  0  0  0  0  0
   10.6128    1.7615    0.0000 S   0  0  0  0  0  0  0  0  0  0  0  0
    7.5586   -2.4422    0.0000 S   0  0  0  0  0  0  0  0  0  0  0  0
    8.9948    2.9371    0.0000 O   0  0  0  0  0  0  0  0  0  0  0  0
    5.6542    4.2937    0.0000 O   0  0  0  0  0  0  0  0  0  0  0  0
    8.2790   -0.3722    0.0000 O   0  0  0  0  0  0  0  0  0  0  0  0
    5.2361    0.3156    0.0000 O   0  0  0  0  0  0  0  0  0  0  0  0
    6.0451   -0.2722    0.0000 O   0  0  0  0  0  0  0  0  0  0  0  0
   10.2992   -1.2220    0.0000 O   0  0  0  0  0  0  0  0  0  0  0  0
    8.1858    3.5249    0.0000 N   0  0  0  0  0  0  0  0  0  0  0  0
    7.0632    1.1291    0.0000 N   0  0  0  0  0  0  0  0  0  0  0  0
    4.4271    0.9034    0.0000 N   0  0  0  0  0  0  0  0  0  0  0  0
    6.3587    2.7114    0.0000 N   0  0  0  0  0  0  0  0  0  0  0  0
    9.5947    0.3603    0.0000 N   0  0  0  0  0  0  0  0  0  0  0  0
    5.0270   -1.6734    0.0000 N   0  0  0  0  0  0  0  0  0  0  0  0
    7.4283   -0.9203    0.0000 N   0  0  0  0  0  0  0  0  0  0  0  0
    7.1677    2.1236    0.0000 C   0  0  3  0  0  0  0  0  0  0  0  0
    7.3767    4.1127    0.0000 C   0  0  3  0  0  0  0  0  0  0  0  0
    6.2585    2.5256    0.0000 C   0  0  0  0  0  0  0  0  0  0  0  0
    7.6858    5.0637    0.0000 C   0  0  0  0  0  0  0  0  0  0  0  0
    8.9948    4.1127    0.0000 C   0  0  0  0  0  0  0  0  0  0  0  0
    8.6858    5.0637    0.0000 C   0  0  0  0  0  0  0  0  0  0  0  0
    8.0812    2.5304    0.0000 C   0  0  0  0  0  0  0  0  0  0  0  0
    5.5940    1.7863    0.0000 C   0  0  0  0  0  0  0  0  0  0  0  0
    6.0903    0.9249    0.0000 C   0  0  0  0  0  0  0  0  0  0  0  0
    6.4632    3.7059    0.0000 C   0  0  0  0  0  0  0  0  0  0  0  0
    4.3225   -0.0911    0.0000 C   0  0  3  0  0  0  0  0  0  0  0  0
    3.3496   -0.2953    0.0000 C   0  0  0  0  0  0  0  0  0  0  0  0
    7.8722    0.5413    0.0000 C   0  0  0  0  0  0  0  0  0  0  0  0
    5.4451    2.3047    0.0000 C   0  0  3  0  0  0  0  0  0  0  0  0
    3.5179    1.3054    0.0000 C   0  0  0  0  0  0  0  0  0  0  0  0
    2.8533    0.5661    0.0000 C   0  0  0  0  0  0  0  0  0  0  0  0
    5.3406    1.3102    0.0000 C   0  0  0  0  0  0  0  0  0  0  0  0
    8.7857    0.9480    0.0000 C   0  0  3  0  0  0  0  0  0  0  0  0
    4.6361    2.8925    0.0000 C   0  0  0  0  0  0  0  0  0  0  0  0
    5.1315   -0.6789    0.0000 C   0  0  0  0  0  0  0  0  0  0  0  0
    8.8902    1.9426    0.0000 C   0  0  0  0  0  0  0  0  0  0  0  0
    3.7226    2.4857    0.0000 C   0  0  0  0  0  0  0  0  0  0  0  0
    5.8360   -2.2612    0.0000 C   0  0  3  0  0  0  0  0  0  0  0  0
    9.8038    2.3493    0.0000 C   0  0  0  0  0  0  0  0  0  0  0  0
    9.4902   -0.6343    0.0000 C   0  0  0  0  0  0  0  0  0  0  0  0
    5.7315   -3.2557    0.0000 C   0  0  0  0  0  0  0  0  0  0  0  0
    6.7496   -1.8545    0.0000 C   0  0  0  0  0  0  0  0  0  0  0  0
    8.5767   -1.0410    0.0000 C   0  0  0  0  0  0  0  0  0  0  0  0
    4.8180   -3.6625    0.0000 C   0  0  0  0  0  0  0  0  0  0  0  0
    8.4721   -2.0355    0.0000 C   0  0  0  0  0  0  0  0  0  0  0  0
    2.0000    2.6668    0.0000 C   0  0  0  0  0  0  0  0  0  0  0  0
    4.0089   -3.0747    0.0000 C   0  0  0  0  0  0  0  0  0  0  0  0
    4.7134   -4.6570    0.0000 C   0  0  0  0  0  0  0  0  0  0  0  0
   11.5264    2.1683    0.0000 C   0  0  0  0  0  0  0  0  0  0  0  0
    3.0954   -3.4814    0.0000 C   0  0  0  0  0  0  0  0  0  0  0  0
    3.7999   -5.0637    0.0000 C   0  0  0  0  0  0  0  0  0  0  0  0
    2.9909   -4.4759    0.0000 C   0  0  0  0  0  0  0  0  0  0  0  0
    7.1666    2.9736    0.0000 H   0  0  0  0  0  0  0  0  0  0  0  0
    6.7451    4.6814    0.0000 H   0  0  0  0  0  0  0  0  0  0  0  0
    6.5674    3.0631    0.0000 H   0  0  0  0  0  0  0  0  0  0  0  0
    5.7564    2.8893    0.0000 H   0  0  0  0  0  0  0  0  0  0  0  0
    7.7506    5.6803    0.0000 H   0  0  0  0  0  0  0  0  0  0  0  0
    7.0793    5.1926    0.0000 H   0  0  0  0  0  0  0  0  0  0  0  0
    9.3048    3.5757    0.0000 H   0  0  0  0  0  0  0  0  0  0  0  0
    9.5612    4.3648    0.0000 H   0  0  0  0  0  0  0  0  0  0  0  0
    9.2922    5.1926    0.0000 H   0  0  0  0  0  0  0  0  0  0  0  0
    8.6210    5.6803    0.0000 H   0  0  0  0  0  0  0  0  0  0  0  0
    5.1790    2.2469    0.0000 H   0  0  0  0  0  0  0  0  0  0  0  0
    5.0923    1.4220    0.0000 H   0  0  0  0  0  0  0  0  0  0  0  0
    5.5235    0.6736    0.0000 H   0  0  0  0  0  0  0  0  0  0  0  0
    6.2807    0.3349    0.0000 H   0  0  0  0  0  0  0  0  0  0  0  0
    4.1447   -0.9223    0.0000 H   0  0  0  0  0  0  0  0  0  0  0  0
    2.7829   -0.5466    0.0000 H   0  0  0  0  0  0  0  0  0  0  0  0
    3.5400   -0.8853    0.0000 H   0  0  0  0  0  0  0  0  0  0  0  0
    5.5340    3.1500    0.0000 H   0  0  0  0  0  0  0  0  0  0  0  0
    3.8268    1.8429    0.0000 H   0  0  0  0  0  0  0  0  0  0  0  0
    3.0158    1.6691    0.0000 H   0  0  0  0  0  0  0  0  0  0  0  0
    2.4383    1.0267    0.0000 H   0  0  0  0  0  0  0  0  0  0  0  0
    2.3516    0.2018    0.0000 H   0  0  0  0  0  0  0  0  0  0  0  0
    6.9251    2.9636    0.0000 H   0  0  0  0  0  0  0  0  0  0  0  0
    9.5622    1.2938    0.0000 H   0  0  0  0  0  0  0  0  0  0  0  0
    5.0821    3.3231    0.0000 H   0  0  0  0  0  0  0  0  0  0  0  0
    4.2894    3.4065    0.0000 H   0  0  0  0  0  0  0  0  0  0  0  0
    8.7403    2.5442    0.0000 H   0  0  0  0  0  0  0  0  0  0  0  0
    8.2718    1.8993    0.0000 H   0  0  0  0  0  0  0  0  0  0  0  0
   10.1611    0.6124    0.0000 H   0  0  0  0  0  0  0  0  0  0  0  0
    4.4606   -1.9256    0.0000 H   0  0  0  0  0  0  0  0  0  0  0  0
    3.2766    2.0550    0.0000 H   0  0  0  0  0  0  0  0  0  0  0  0
    4.0693    1.9717    0.0000 H   0  0  0  0  0  0  0  0  0  0  0  0
    5.0595   -2.6069    0.0000 H   0  0  0  0  0  0  0  0  0  0  0  0
   10.2498    2.7800    0.0000 H   0  0  0  0  0  0  0  0  0  0  0  0
    9.4571    2.8633    0.0000 H   0  0  0  0  0  0  0  0  0  0  0  0
    5.8815   -3.8573    0.0000 H   0  0  0  0  0  0  0  0  0  0  0  0
    6.3500   -3.2125    0.0000 H   0  0  0  0  0  0  0  0  0  0  0  0
    8.9737   -2.3999    0.0000 H   0  0  0  0  0  0  0  0  0  0  0  0
    1.7478    3.2332    0.0000 H   0  0  0  0  0  0  0  0  0  0  0  0
    1.4336    2.4146    0.0000 H   0  0  0  0  0  0  0  0  0  0  0  0
    2.2522    2.1004    0.0000 H   0  0  0  0  0  0  0  0  0  0  0  0
    4.0738   -2.4581    0.0000 H   0  0  0  0  0  0  0  0  0  0  0  0
    5.2150   -5.0214    0.0000 H   0  0  0  0  0  0  0  0  0  0  0  0
   11.7785    1.6019    0.0000 H   0  0  0  0  0  0  0  0  0  0  0  0
   12.0928    2.4204    0.0000 H   0  0  0  0  0  0  0  0  0  0  0  0
   11.2742    2.7347    0.0000 H   0  0  0  0  0  0  0  0  0  0  0  0
    2.5938   -3.1170    0.0000 H   0  0  0  0  0  0  0  0  0  0  0  0
    3.7351   -5.6803    0.0000 H   0  0  0  0  0  0  0  0  0  0  0  0
    2.4245   -4.7281    0.0000 H   0  0  0  0  0  0  0  0  0  0  0  0
  1 38  1  0  0  0  0
  1 47  1  0  0  0  0
  2 40  1  0  0  0  0
  2 50  1  0  0  0  0
  3 43  1  0  0  0  0
  3 46  1  0  0  0  0
  4 23  2  0  0  0  0
  5 26  2  0  0  0  0
  6 29  2  0  0  0  0
  7 33  2  0  0  0  0
  8 36  2  0  0  0  0
  9 41  2  0  0  0  0
 10 18  1  0  0  0  0
 10 21  1  0  0  0  0
 10 23  1  0  0  0  0
 11 17  1  0  0  0  0
 11 25  1  0  0  0  0
 11 29  1  0  0  0  0
 12 27  1  0  0  0  0
 12 31  1  0  0  0  0
 12 33  1  0  0  0  0
 13 26  1  0  0  0  0
 13 30  1  0  0  0  0
 13 76  1  0  0  0  0
 14 34  1  0  0  0  0
 14 41  1  0  0  0  0
 14 82  1  0  0  0  0
 15 36  1  0  0  0  0
 15 39  1  0  0  0  0
 15 83  1  0  0  0  0
 16 43  2  0  0  0  0
 16 44  1  0  0  0  0
 17 19  1  0  0  0  0
 17 23  1  0  0  0  0
 17 54  1  0  0  0  0
 18 20  1  0  0  0  0
 18 26  1  0  0  0  0
 18 55  1  0  0  0  0
 19 24  1  0  0  0  0
 19 56  1  0  0  0  0
 19 57  1  0  0  0  0
 20 22  1  0  0  0  0
 20 58  1  0  0  0  0
 20 59  1  0  0  0  0
 21 22  1  0  0  0  0
 21 60  1  0  0  0  0
 21 61  1  0  0  0  0
 22 62  1  0  0  0  0
 22 63  1  0  0  0  0
 24 25  1  0  0  0  0
 24 64  1  0  0  0  0
 24 65  1  0  0  0  0
 25 66  1  0  0  0  0
 25 67  1  0  0  0  0
 27 28  1  0  0  0  0
 27 36  1  0  0  0  0
 27 68  1  0  0  0  0
 28 32  1  0  0  0  0
 28 69  1  0  0  0  0
 28 70  1  0  0  0  0
 29 34  1  0  0  0  0
 30 33  1  0  0  0  0
 30 35  1  0  0  0  0
 30 71  1  0  0  0  0
 31 32  1  0  0  0  0
 31 72  1  0  0  0  0
 31 73  1  0  0  0  0
 32 74  1  0  0  0  0
 32 75  1  0  0  0  0
 34 37  1  0  0  0  0
 34 77  1  0  0  0  0
 35 38  1  0  0  0  0
 35 78  1  0  0  0  0
 35 79  1  0  0  0  0
 37 40  1  0  0  0  0
 37 80  1  0  0  0  0
 37 81  1  0  0  0  0
 38 84  1  0  0  0  0
 38 85  1  0  0  0  0
 39 42  1  0  0  0  0
 39 43  1  0  0  0  0
 39 86  1  0  0  0  0
 40 87  1  0  0  0  0
 40 88  1  0  0  0  0
 41 44  1  0  0  0  0
 42 45  1  0  0  0  0
 42 89  1  0  0  0  0
 42 90  1  0  0  0  0
 44 46  2  0  0  0  0
 45 48  2  0  0  0  0
 45 49  1  0  0  0  0
 46 91  1  0  0  0  0
 47 92  1  0  0  0  0
 47 93  1  0  0  0  0
 47 94  1  0  0  0  0
 48 51  1  0  0  0  0
 48 95  1  0  0  0  0
 49 52  2  0  0  0  0
 49 96  1  0  0  0  0
 50 97  1  0  0  0  0
 50 98  1  0  0  0  0
 50 99  1  0  0  0  0
 51 53  2  0  0  0  0
 51100  1  0  0  0  0
 52 53  1  0  0  0  0
 52101  1  0  0  0  0
 53102  1  0  0  0  0
M  END
> <PUBCHEM_COMPOUND_CID>
3554

> <PUBCHEM_COMPOUND_CANONICALIZED>
1

> <PUBCHEM_CACTVS_COMPLEXITY>
1350

> <PUBCHEM_CACTVS_HBOND_ACCEPTOR>
10

> <PUBCHEM_CACTVS_HBOND_DONOR>
3

> <PUBCHEM_CACTVS_ROTATABLE_BOND>
8

> <PUBCHEM_CACTVS_SUBSKEYS>
AAADcfB/uABgAAAAAAAAAAAAAAAAAWLFiwAwAAAAAAAAAAABwAAAHgQQAAAADCjF3gSygZPIEAisAyVyVACC8KBnCjgIiJW4JMgIYDKgkTGUIAgglgCoiIcYgYAOAAAAAAAAAAAAAAAAAAAAAAAAAAAAAA==

> <PUBCHEM_IUPAC_INCHI>
InChI=1S/C37H49N7O6S3/c1-51-19-14-24-36(49)44-18-8-13-30(44)37(50)43-17-7-12-29(43)32(46)39-25(15-20-52-2)35(48)42-16-6-11-28(42)33(47)40-26(21-23-9-4-3-5-10-23)34-41-27(22-53-34)31(45)38-24/h3-5,9-10,22,24-26,28-30H,6-8,11-21H2,1-2H3,(H,38,45)(H,39,46)(H,40,47)

> <PUBCHEM_IUPAC_INCHIKEY>
SWVJMXXZNXPPSG-UHFFFAOYSA-N

> <PUBCHEM_XLOGP3_AA>
3.1

> <PUBCHEM_EXACT_MASS>
783.290645

> <PUBCHEM_MOLECULAR_FORMULA>
C37H49N7O6S3

> <PUBCHEM_MOLECULAR_WEIGHT>
784.02326

> <PUBCHEM_OPENEYE_CAN_SMILES>
CSCCC1C(=O)N2CCCC2C(=O)NC(C3=NC(=CS3)C(=O)NC(C(=O)N4CCCC4C(=O)N5CCCC5C(=O)N1)CCSC)CC6=CC=CC=C6

> <PUBCHEM_OPENEYE_ISO_SMILES>
CSCCC1C(=O)N2CCCC2C(=O)NC(C3=NC(=CS3)C(=O)NC(C(=O)N4CCCC4C(=O)N5CCCC5C(=O)N1)CCSC)CC6=CC=CC=C6

> <PUBCHEM_CACTVS_TPSA>
240

> <PUBCHEM_MONOISOTOPIC_WEIGHT>
783.290645

> <PUBCHEM_TOTAL_CHARGE>
0

> <PUBCHEM_HEAVY_ATOM_COUNT>
53

> <PUBCHEM_ATOM_DEF_STEREO_COUNT>
0

> <PUBCHEM_ATOM_UDEF_STEREO_COUNT>
6

> <PUBCHEM_BOND_DEF_STEREO_COUNT>
0

> <PUBCHEM_BOND_UDEF_STEREO_COUNT>
0

> <PUBCHEM_ISOTOPIC_ATOM_COUNT>
0

> <PUBCHEM_COMPONENT_COUNT>
1

> <PUBCHEM_CACTVS_TAUTO_COUNT>
32

> <PUBCHEM_COORDINATE_TYPE>
1
5
255

> <PUBCHEM_BONDANNOTATIONS>
16  43  8
16  44  8
17  54  3
18  55  3
27  68  3
3  43  8
3  46  8
30  71  3
34  77  3
39  86  3
44  46  8
45  48  8
45  49  8
48  51  8
49  52  8
51  53  8
52  53  8

$$$$

