   Color/Form

     * Light yellow powder
     * Light yellow powder that melts to an oily liquid

   from [1]HSDB

   Melting Point
        31 deg C
   from [2]HSDB

   Octanol/Water Partition Coefficient
        log kow = 1.53
   from [3]HSDB

   Solubilities

     * Very soluble in ethanol
     * Soluble in 50% ethanol up to 150 mg/mL
     * Highly soluble in alcohol and poorly soluble in water. It is also
       highly soluble in lipids
     * In water, 4.0X10+3 mg/L at 25 deg C

   from [4]HSDB

   Spectral Properties
        MASS: 76021 (NIST/EPA/MSDC Mass Spectral Database 1990 version)
   from [5]HSDB

   Vapor Pressure
        2.9X10-4 mm Hg at 25 deg C (est)
   from [6]HSDB

   Other Chemical/Physical Properties

     * Polifeprosan 20 with carmustine implant ... off-white to pale
       yellow wafer /Gliadel wafer/
     * Henry's Law constant = 4.8X10-11 atm-cu m/mol at 25 deg C (est)
     * Hydroxyl radical reaction rate constant = 3.6X10-12 cu
       cm/molecule-sec at 25 deg C (est)

   from [7]HSDB

   Computed Properties
   Molecular Weight                  214.04986 [g/mol]
   Molecular Formula                 C[5]H[9]Cl[2]N[3]O[2]
   XLogP3                            1.5
   H-Bond Donor                      1
   H-Bond Acceptor                   3
   Rotatable Bond Count              4
   Tautomer Count                    2
   Exact Mass                        213.007182
   MonoIsotopic Mass                 213.007182
   Topological Polar Surface Area    61.8
   Heavy Atom Count                  12
   Formal Charge                     0
   Complexity                        156
   Isotope Atom Count                0
   Defined Atom Stereocenter Count   0
   Undefined Atom Stereocenter Count 0
   Defined Bond Stereocenter Count   0
   Undefined Bond Stereocenter Count 0
   Covalently-Bonded Unit Count      1
   Feature 3D Acceptor Count         1
   Feature 3D Donor Count            1
   Effective Rotor Count             7
   Conformer Sampling RMSD           0.8
   CID Conformer Count               [8]83

References

   1. http://toxnet.nlm.nih.gov/cgi-bin/sis/search/r?dbs+hsdb:@term+@rn+@rel+154-93-8
   2. http://toxnet.nlm.nih.gov/cgi-bin/sis/search/r?dbs+hsdb:@term+@rn+@rel+154-93-8
   3. http://toxnet.nlm.nih.gov/cgi-bin/sis/search/r?dbs+hsdb:@term+@rn+@rel+154-93-8
   4. http://toxnet.nlm.nih.gov/cgi-bin/sis/search/r?dbs+hsdb:@term+@rn+@rel+154-93-8
   5. http://toxnet.nlm.nih.gov/cgi-bin/sis/search/r?dbs+hsdb:@term+@rn+@rel+154-93-8
   6. http://toxnet.nlm.nih.gov/cgi-bin/sis/search/r?dbs+hsdb:@term+@rn+@rel+154-93-8
   7. http://toxnet.nlm.nih.gov/cgi-bin/sis/search/r?dbs+hsdb:@term+@rn+@rel+154-93-8
   8. http://pubchem.ncbi.nlm.nih.gov/vw3d/vw3d.cgi?cid=2578
