442900
  -OEChem-07051213002D

 92 94  0     0  0  0  0  0  0999 V2000
    8.0622   -0.5265    0.0000 O   0  0  0  0  0  0  0  0  0  0  0  0
    6.3301   -3.5265    0.0000 O   0  0  0  0  0  0  0  0  0  0  0  0
    4.5981   -0.5265    0.0000 O   0  0  0  0  0  0  0  0  0  0  0  0
    7.6157    2.0056    0.0000 O   0  0  0  0  0  0  0  0  0  0  0  0
   10.0318   -2.1792    0.0000 O   0  0  0  0  0  0  0  0  0  0  0  0
    4.3605    0.8208    0.0000 O   0  0  0  0  0  0  0  0  0  0  0  0
    7.3781   -4.4059    0.0000 O   0  0  0  0  0  0  0  0  0  0  0  0
    4.9620    4.2322    0.0000 O   0  0  0  0  0  0  0  0  0  0  0  0
   10.6334   -5.5906    0.0000 O   0  0  0  0  0  0  0  0  0  0  0  0
    4.5981   -3.5265    0.0000 O   0  0  0  0  0  0  0  0  0  0  0  0
    7.9165    3.7113    0.0000 O   0  0  0  0  0  0  0  0  0  0  0  0
   11.6594   -2.7716    0.0000 O   0  0  0  0  0  0  0  0  0  0  0  0
    6.3301   -0.5265    0.0000 C   0  0  0  0  0  0  0  0  0  0  0  0
    7.1962   -2.0265    0.0000 C   0  0  0  0  0  0  0  0  0  0  0  0
    6.3301    0.4735    0.0000 C   0  0  0  0  0  0  0  0  0  0  0  0
    8.0622   -2.5265    0.0000 C   0  0  0  0  0  0  0  0  0  0  0  0
    7.1962   -1.0265    0.0000 C   0  0  0  0  0  0  0  0  0  0  0  0
    5.9881    1.4132    0.0000 C   0  0  0  0  0  0  0  0  0  0  0  0
    8.7050   -3.2925    0.0000 C   0  0  0  0  0  0  0  0  0  0  0  0
    5.4641   -2.0265    0.0000 C   0  0  0  0  0  0  0  0  0  0  0  0
    6.3301   -2.5265    0.0000 C   0  0  0  0  0  0  0  0  0  0  0  0
    5.4641   -1.0265    0.0000 C   0  0  0  0  0  0  0  0  0  0  0  0
    6.6309    2.1792    0.0000 C   0  0  0  0  0  0  0  0  0  0  0  0
    9.6898   -3.1189    0.0000 C   0  0  0  0  0  0  0  0  0  0  0  0
    5.0034    1.5869    0.0000 C   0  0  0  0  0  0  0  0  0  0  0  0
    8.3630   -4.2323    0.0000 C   0  0  0  0  0  0  0  0  0  0  0  0
    6.2889    3.1189    0.0000 C   0  0  0  0  0  0  0  0  0  0  0  0
   10.3326   -3.8850    0.0000 C   0  0  0  0  0  0  0  0  0  0  0  0
    4.6613    2.5265    0.0000 C   0  0  0  0  0  0  0  0  0  0  0  0
    9.0058   -4.9983    0.0000 C   0  0  0  0  0  0  0  0  0  0  0  0
    4.5981   -2.5265    0.0000 C   0  0  0  0  0  0  0  0  0  0  0  0
    5.3041    3.2925    0.0000 C   0  0  0  0  0  0  0  0  0  0  0  0
    9.9906   -4.8246    0.0000 C   0  0  0  0  0  0  0  0  0  0  0  0
    3.7320   -2.0265    0.0000 C   0  0  0  0  0  0  0  0  0  0  0  0
    6.9317    3.8849    0.0000 C   0  0  0  0  0  0  0  0  0  0  0  0
   11.3174   -3.7113    0.0000 C   0  0  0  0  0  0  0  0  0  0  0  0
    2.8660   -2.5265    0.0000 C   0  0  0  0  0  0  0  0  0  0  0  0
    6.5896    4.8246    0.0000 C   0  0  0  0  0  0  0  0  0  0  0  0
   11.9602   -4.4774    0.0000 C   0  0  0  0  0  0  0  0  0  0  0  0
    3.6765    2.7002    0.0000 C   0  0  0  0  0  0  0  0  0  0  0  0
    8.6638   -5.9380    0.0000 C   0  0  0  0  0  0  0  0  0  0  0  0
    7.2324    5.5907    0.0000 C   0  0  0  0  0  0  0  0  0  0  0  0
   12.9450   -4.3037    0.0000 C   0  0  0  0  0  0  0  0  0  0  0  0
    2.0000   -2.0265    0.0000 C   0  0  0  0  0  0  0  0  0  0  0  0
    6.8904    6.5304    0.0000 C   0  0  0  0  0  0  0  0  0  0  0  0
   13.5878   -5.0698    0.0000 C   0  0  0  0  0  0  0  0  0  0  0  0
    3.9772    4.4059    0.0000 C   0  0  0  0  0  0  0  0  0  0  0  0
   10.2914   -6.5304    0.0000 C   0  0  0  0  0  0  0  0  0  0  0  0
    6.8994    0.2279    0.0000 H   0  0  0  0  0  0  0  0  0  0  0  0
    5.7196    0.3658    0.0000 H   0  0  0  0  0  0  0  0  0  0  0  0
    8.6561   -2.3487    0.0000 H   0  0  0  0  0  0  0  0  0  0  0  0
    7.6637   -3.0015    0.0000 H   0  0  0  0  0  0  0  0  0  0  0  0
    4.1306   -1.5516    0.0000 H   0  0  0  0  0  0  0  0  0  0  0  0
    3.3335   -1.5516    0.0000 H   0  0  0  0  0  0  0  0  0  0  0  0
    2.4675   -3.0015    0.0000 H   0  0  0  0  0  0  0  0  0  0  0  0
    3.2646   -3.0015    0.0000 H   0  0  0  0  0  0  0  0  0  0  0  0
    6.1911    5.2996    0.0000 H   0  0  0  0  0  0  0  0  0  0  0  0
    6.0527    4.5146    0.0000 H   0  0  0  0  0  0  0  0  0  0  0  0
   11.4232   -4.7874    0.0000 H   0  0  0  0  0  0  0  0  0  0  0  0
   12.1722   -5.0600    0.0000 H   0  0  0  0  0  0  0  0  0  0  0  0
    8.5991   -0.8365    0.0000 H   0  0  0  0  0  0  0  0  0  0  0  0
    3.7842    3.3108    0.0000 H   0  0  0  0  0  0  0  0  0  0  0  0
    3.0660    2.8079    0.0000 H   0  0  0  0  0  0  0  0  0  0  0  0
    3.5688    2.0896    0.0000 H   0  0  0  0  0  0  0  0  0  0  0  0
    8.0811   -5.7259    0.0000 H   0  0  0  0  0  0  0  0  0  0  0  0
    8.4517   -6.5206    0.0000 H   0  0  0  0  0  0  0  0  0  0  0  0
    9.2464   -6.1501    0.0000 H   0  0  0  0  0  0  0  0  0  0  0  0
    6.8671   -3.8365    0.0000 H   0  0  0  0  0  0  0  0  0  0  0  0
    4.5981    0.0935    0.0000 H   0  0  0  0  0  0  0  0  0  0  0  0
    7.6310    5.1157    0.0000 H   0  0  0  0  0  0  0  0  0  0  0  0
    7.7694    5.9007    0.0000 H   0  0  0  0  0  0  0  0  0  0  0  0
   13.4819   -3.9937    0.0000 H   0  0  0  0  0  0  0  0  0  0  0  0
   12.7329   -3.7211    0.0000 H   0  0  0  0  0  0  0  0  0  0  0  0
    7.8278    1.4229    0.0000 H   0  0  0  0  0  0  0  0  0  0  0  0
   10.6424   -2.0716    0.0000 H   0  0  0  0  0  0  0  0  0  0  0  0
    3.7499    0.9285    0.0000 H   0  0  0  0  0  0  0  0  0  0  0  0
    7.1660   -4.9885    0.0000 H   0  0  0  0  0  0  0  0  0  0  0  0
    2.3100   -1.4896    0.0000 H   0  0  0  0  0  0  0  0  0  0  0  0
    1.4631   -1.7165    0.0000 H   0  0  0  0  0  0  0  0  0  0  0  0
    1.6900   -2.5635    0.0000 H   0  0  0  0  0  0  0  0  0  0  0  0
    7.4730    6.7424    0.0000 H   0  0  0  0  0  0  0  0  0  0  0  0
    6.6784    7.1130    0.0000 H   0  0  0  0  0  0  0  0  0  0  0  0
    6.3078    6.3183    0.0000 H   0  0  0  0  0  0  0  0  0  0  0  0
   13.1128   -5.4683    0.0000 H   0  0  0  0  0  0  0  0  0  0  0  0
   13.9863   -5.5447    0.0000 H   0  0  0  0  0  0  0  0  0  0  0  0
   14.0627   -4.6712    0.0000 H   0  0  0  0  0  0  0  0  0  0  0  0
    4.0849    5.0165    0.0000 H   0  0  0  0  0  0  0  0  0  0  0  0
    3.3667    4.5135    0.0000 H   0  0  0  0  0  0  0  0  0  0  0  0
    3.8696    3.7953    0.0000 H   0  0  0  0  0  0  0  0  0  0  0  0
    9.7088   -6.3183    0.0000 H   0  0  0  0  0  0  0  0  0  0  0  0
   10.0793   -7.1130    0.0000 H   0  0  0  0  0  0  0  0  0  0  0  0
   10.8740   -6.7424    0.0000 H   0  0  0  0  0  0  0  0  0  0  0  0
  1 17  1  0  0  0  0
  1 61  1  0  0  0  0
  2 21  1  0  0  0  0
  2 68  1  0  0  0  0
  3 22  1  0  0  0  0
  3 69  1  0  0  0  0
  4 23  1  0  0  0  0
  4 74  1  0  0  0  0
  5 24  1  0  0  0  0
  5 75  1  0  0  0  0
  6 25  1  0  0  0  0
  6 76  1  0  0  0  0
  7 26  1  0  0  0  0
  7 77  1  0  0  0  0
  8 32  1  0  0  0  0
  8 47  1  0  0  0  0
  9 33  1  0  0  0  0
  9 48  1  0  0  0  0
 10 31  2  0  0  0  0
 11 35  2  0  0  0  0
 12 36  2  0  0  0  0
 13 15  1  0  0  0  0
 13 17  2  0  0  0  0
 13 22  1  0  0  0  0
 14 16  1  0  0  0  0
 14 17  1  0  0  0  0
 14 21  2  0  0  0  0
 15 18  1  0  0  0  0
 15 49  1  0  0  0  0
 15 50  1  0  0  0  0
 16 19  1  0  0  0  0
 16 51  1  0  0  0  0
 16 52  1  0  0  0  0
 18 23  2  0  0  0  0
 18 25  1  0  0  0  0
 19 24  2  0  0  0  0
 19 26  1  0  0  0  0
 20 21  1  0  0  0  0
 20 22  2  0  0  0  0
 20 31  1  0  0  0  0
 23 27  1  0  0  0  0
 24 28  1  0  0  0  0
 25 29  2  0  0  0  0
 26 30  2  0  0  0  0
 27 32  2  0  0  0  0
 27 35  1  0  0  0  0
 28 33  2  0  0  0  0
 28 36  1  0  0  0  0
 29 32  1  0  0  0  0
 29 40  1  0  0  0  0
 30 33  1  0  0  0  0
 30 41  1  0  0  0  0
 31 34  1  0  0  0  0
 34 37  1  0  0  0  0
 34 53  1  0  0  0  0
 34 54  1  0  0  0  0
 35 38  1  0  0  0  0
 36 39  1  0  0  0  0
 37 44  1  0  0  0  0
 37 55  1  0  0  0  0
 37 56  1  0  0  0  0
 38 42  1  0  0  0  0
 38 57  1  0  0  0  0
 38 58  1  0  0  0  0
 39 43  1  0  0  0  0
 39 59  1  0  0  0  0
 39 60  1  0  0  0  0
 40 62  1  0  0  0  0
 40 63  1  0  0  0  0
 40 64  1  0  0  0  0
 41 65  1  0  0  0  0
 41 66  1  0  0  0  0
 41 67  1  0  0  0  0
 42 45  1  0  0  0  0
 42 70  1  0  0  0  0
 42 71  1  0  0  0  0
 43 46  1  0  0  0  0
 43 72  1  0  0  0  0
 43 73  1  0  0  0  0
 44 78  1  0  0  0  0
 44 79  1  0  0  0  0
 44 80  1  0  0  0  0
 45 81  1  0  0  0  0
 45 82  1  0  0  0  0
 45 83  1  0  0  0  0
 46 84  1  0  0  0  0
 46 85  1  0  0  0  0
 46 86  1  0  0  0  0
 47 87  1  0  0  0  0
 47 88  1  0  0  0  0
 47 89  1  0  0  0  0
 48 90  1  0  0  0  0
 48 91  1  0  0  0  0
 48 92  1  0  0  0  0
M  END
> <PUBCHEM_COMPOUND_CID>
442900

> <PUBCHEM_COMPOUND_CANONICALIZED>
1

> <PUBCHEM_CACTVS_COMPLEXITY>
998

> <PUBCHEM_CACTVS_HBOND_ACCEPTOR>
12

> <PUBCHEM_CACTVS_HBOND_DONOR>
7

> <PUBCHEM_CACTVS_ROTATABLE_BOND>
15

> <PUBCHEM_CACTVS_SUBSKEYS>
AAADcfB8PAAAAAAAAAAAAAAAAAAAAAAAAAAwYMAAAAAAAAABUAAAGgAACAAADASAmAICBoAABgCIAoBQAAACCAAkIAAAiAEECMgMJzaGNBqAcWAl4BUIuQeI7OzOIAACCAAIAABAAAQQABAAAAAAAAAAAA==

> <PUBCHEM_IUPAC_OPENEYE_NAME>
1-[3,5-bis[(3-butanoyl-2,6-dihydroxy-4-methoxy-5-methyl-phenyl)methyl]-2,4,6-trihydroxy-phenyl]butan-1-one

> <PUBCHEM_IUPAC_CAS_NAME>
1-[3,5-bis[[2,6-dihydroxy-4-methoxy-3-methyl-5-(1-oxobutyl)phenyl]methyl]-2,4,6-trihydroxyphenyl]-1-butanone

> <PUBCHEM_IUPAC_NAME>
1-[3,5-bis[(3-butanoyl-2,6-dihydroxy-4-methoxy-5-methylphenyl)methyl]-2,4,6-trihydroxyphenyl]butan-1-one

> <PUBCHEM_IUPAC_SYSTEMATIC_NAME>
1-[3,5-bis[[3-butanoyl-4-methoxy-5-methyl-2,6-bis(oxidanyl)phenyl]methyl]-2,4,6-tris(oxidanyl)phenyl]butan-1-one

> <PUBCHEM_IUPAC_TRADITIONAL_NAME>
1-[3,5-bis(3-butyryl-2,6-dihydroxy-4-methoxy-5-methyl-benzyl)-2,4,6-trihydroxy-phenyl]butan-1-one

> <PUBCHEM_IUPAC_INCHI>
InChI=1S/C36H44O12/c1-8-11-22(37)25-31(43)20(14-18-28(40)16(4)35(47-6)26(33(18)45)23(38)12-9-2)30(42)21(32(25)44)15-19-29(41)17(5)36(48-7)27(34(19)46)24(39)13-10-3/h40-46H,8-15H2,1-7H3

> <PUBCHEM_IUPAC_INCHIKEY>
PFWJPXGNICZIQB-UHFFFAOYSA-N

> <PUBCHEM_XLOGP3_AA>
7.1

> <PUBCHEM_EXACT_MASS>
668.283277

> <PUBCHEM_MOLECULAR_FORMULA>
C36H44O12

> <PUBCHEM_MOLECULAR_WEIGHT>
668.72736

> <PUBCHEM_OPENEYE_CAN_SMILES>
CCCC(=O)C1=C(C(=C(C(=C1O)CC2=C(C(=C(C(=C2O)C)OC)C(=O)CCC)O)O)CC3=C(C(=C(C(=C3O)C)OC)C(=O)CCC)O)O

> <PUBCHEM_OPENEYE_ISO_SMILES>
CCCC(=O)C1=C(C(=C(C(=C1O)CC2=C(C(=C(C(=C2O)C)OC)C(=O)CCC)O)O)CC3=C(C(=C(C(=C3O)C)OC)C(=O)CCC)O)O

> <PUBCHEM_CACTVS_TPSA>
211

> <PUBCHEM_MONOISOTOPIC_WEIGHT>
668.283277

> <PUBCHEM_TOTAL_CHARGE>
0

> <PUBCHEM_HEAVY_ATOM_COUNT>
48

> <PUBCHEM_ATOM_DEF_STEREO_COUNT>
0

> <PUBCHEM_ATOM_UDEF_STEREO_COUNT>
0

> <PUBCHEM_BOND_DEF_STEREO_COUNT>
0

> <PUBCHEM_BOND_UDEF_STEREO_COUNT>
0

> <PUBCHEM_ISOTOPIC_ATOM_COUNT>
0

> <PUBCHEM_COMPONENT_COUNT>
1

> <PUBCHEM_CACTVS_TAUTO_COUNT>
998

> <PUBCHEM_COORDINATE_TYPE>
1
5
255

> <PUBCHEM_BONDANNOTATIONS>
13  17  8
13  22  8
14  17  8
14  21  8
18  23  8
18  25  8
19  24  8
19  26  8
20  21  8
20  22  8
23  27  8
24  28  8
25  29  8
26  30  8
27  32  8
28  33  8
29  32  8
30  33  8

$$$$

