17396322
  -OEChem-06241222552D

 38 40  0     0  0  0  0  0  0999 V2000
    3.4782    0.5118    0.0000 S   0  0  0  0  0  0  0  0  0  0  0  0
    5.3147   -0.4827    0.0000 O   0  0  0  0  0  0  0  0  0  0  0  0
    7.9128    2.0173    0.0000 O   0  0  0  0  0  0  0  0  0  0  0  0
    4.4487   -1.9827    0.0000 O   0  0  0  0  0  0  0  0  0  0  0  0
    7.9128   -0.9827    0.0000 N   0  0  0  0  0  0  0  0  0  0  0  0
    7.0468    0.5173    0.0000 N   0  0  0  0  0  0  0  0  0  0  0  0
    2.0000   -0.1463    0.0000 N   0  0  0  0  0  0  0  0  0  0  0  0
    8.7788   -0.4827    0.0000 C   0  0  0  0  0  0  0  0  0  0  0  0
    8.7788    0.5173    0.0000 C   0  0  0  0  0  0  0  0  0  0  0  0
    9.6728   -1.0174    0.0000 C   0  0  0  0  0  0  0  0  0  0  0  0
    7.0468   -0.4827    0.0000 C   0  0  0  0  0  0  0  0  0  0  0  0
    9.6728    1.0520    0.0000 C   0  0  0  0  0  0  0  0  0  0  0  0
    6.1808   -0.9827    0.0000 C   0  0  0  0  0  0  0  0  0  0  0  0
   10.5788   -0.5035    0.0000 C   0  0  0  0  0  0  0  0  0  0  0  0
    7.9128    1.0173    0.0000 C   0  0  0  0  0  0  0  0  0  0  0  0
   10.5788    0.5381    0.0000 C   0  0  0  0  0  0  0  0  0  0  0  0
    9.6612   -2.0173    0.0000 C   0  0  0  0  0  0  0  0  0  0  0  0
    3.5827   -0.4827    0.0000 C   0  0  0  0  0  0  0  0  0  0  0  0
    2.6691   -0.8894    0.0000 C   0  0  0  0  0  0  0  0  0  0  0  0
    4.4487   -0.9827    0.0000 C   0  0  0  0  0  0  0  0  0  0  0  0
    2.5000    0.7197    0.0000 C   0  0  0  0  0  0  0  0  0  0  0  0
    2.4612   -1.8676    0.0000 C   0  0  0  0  0  0  0  0  0  0  0  0
    2.0933    1.6333    0.0000 C   0  0  0  0  0  0  0  0  0  0  0  0
    7.9128   -1.6027    0.0000 H   0  0  0  0  0  0  0  0  0  0  0  0
    5.7822   -1.4576    0.0000 H   0  0  0  0  0  0  0  0  0  0  0  0
    6.5793   -1.4576    0.0000 H   0  0  0  0  0  0  0  0  0  0  0  0
    9.6656    1.6719    0.0000 H   0  0  0  0  0  0  0  0  0  0  0  0
   11.1146   -0.8156    0.0000 H   0  0  0  0  0  0  0  0  0  0  0  0
   11.1146    0.8502    0.0000 H   0  0  0  0  0  0  0  0  0  0  0  0
    9.0412   -2.0101    0.0000 H   0  0  0  0  0  0  0  0  0  0  0  0
    9.6540   -2.6373    0.0000 H   0  0  0  0  0  0  0  0  0  0  0  0
   10.2812   -2.0245    0.0000 H   0  0  0  0  0  0  0  0  0  0  0  0
    1.8548   -1.7387    0.0000 H   0  0  0  0  0  0  0  0  0  0  0  0
    2.3323   -2.4740    0.0000 H   0  0  0  0  0  0  0  0  0  0  0  0
    3.0677   -1.9965    0.0000 H   0  0  0  0  0  0  0  0  0  0  0  0
    2.6597    1.8854    0.0000 H   0  0  0  0  0  0  0  0  0  0  0  0
    1.8411    2.1997    0.0000 H   0  0  0  0  0  0  0  0  0  0  0  0
    1.5269    1.3811    0.0000 H   0  0  0  0  0  0  0  0  0  0  0  0
  1 18  1  0  0  0  0
  1 21  1  0  0  0  0
  2 13  1  0  0  0  0
  2 20  1  0  0  0  0
  3 15  2  0  0  0  0
  4 20  2  0  0  0  0
  5  8  1  0  0  0  0
  5 11  1  0  0  0  0
  5 24  1  0  0  0  0
  6 11  2  0  0  0  0
  6 15  1  0  0  0  0
  7 19  1  0  0  0  0
  7 21  2  0  0  0  0
  8  9  1  0  0  0  0
  8 10  2  0  0  0  0
  9 12  2  0  0  0  0
  9 15  1  0  0  0  0
 10 14  1  0  0  0  0
 10 17  1  0  0  0  0
 11 13  1  0  0  0  0
 12 16  1  0  0  0  0
 12 27  1  0  0  0  0
 13 25  1  0  0  0  0
 13 26  1  0  0  0  0
 14 16  2  0  0  0  0
 14 28  1  0  0  0  0
 16 29  1  0  0  0  0
 17 30  1  0  0  0  0
 17 31  1  0  0  0  0
 17 32  1  0  0  0  0
 18 19  2  0  0  0  0
 18 20  1  0  0  0  0
 19 22  1  0  0  0  0
 21 23  1  0  0  0  0
 22 33  1  0  0  0  0
 22 34  1  0  0  0  0
 22 35  1  0  0  0  0
 23 36  1  0  0  0  0
 23 37  1  0  0  0  0
 23 38  1  0  0  0  0
M  END
> <PUBCHEM_COMPOUND_CID>
17396322

> <PUBCHEM_COMPOUND_CANONICALIZED>
1

> <PUBCHEM_CACTVS_COMPLEXITY>
525

> <PUBCHEM_CACTVS_HBOND_ACCEPTOR>
5

> <PUBCHEM_CACTVS_HBOND_DONOR>
1

> <PUBCHEM_CACTVS_ROTATABLE_BOND>
4

> <PUBCHEM_CACTVS_SUBSKEYS>
AAADccB7MABAAAAAAAAAAAAAAAAAAWAAAAAwQAAAAAAAAACBwAAAHgQQAAAADAih3gIzyZLIFAisAyfyfASC8KFlCDgJmBUwTMgKJjrg/ZmHMYhmkAD46ccYiECOAAACAAACAAAAAAQAAAQAAAAAAAAAAA==

> <PUBCHEM_IUPAC_OPENEYE_NAME>
(8-methyl-4-oxo-1H-quinazolin-2-yl)methyl 2,4-dimethylthiazole-5-carboxylate

> <PUBCHEM_IUPAC_CAS_NAME>
2,4-dimethyl-5-thiazolecarboxylic acid (8-methyl-4-oxo-1H-quinazolin-2-yl)methyl ester

> <PUBCHEM_IUPAC_NAME>
(8-methyl-4-oxo-1H-quinazolin-2-yl)methyl 2,4-dimethyl-1,3-thiazole-5-carboxylate

> <PUBCHEM_IUPAC_SYSTEMATIC_NAME>
(8-methyl-4-oxidanylidene-1H-quinazolin-2-yl)methyl 2,4-dimethyl-1,3-thiazole-5-carboxylate

> <PUBCHEM_IUPAC_TRADITIONAL_NAME>
2,4-dimethylthiazole-5-carboxylic acid (4-keto-8-methyl-1H-quinazolin-2-yl)methyl ester

> <PUBCHEM_IUPAC_INCHI>
InChI=1S/C16H15N3O3S/c1-8-5-4-6-11-13(8)18-12(19-15(11)20)7-22-16(21)14-9(2)17-10(3)23-14/h4-6H,7H2,1-3H3,(H,18,19,20)

> <PUBCHEM_IUPAC_INCHIKEY>
VSWMLADWSAKJNN-UHFFFAOYSA-N

> <PUBCHEM_XLOGP3_AA>
2.8

> <PUBCHEM_EXACT_MASS>
329.083412

> <PUBCHEM_MOLECULAR_FORMULA>
C16H15N3O3S

> <PUBCHEM_MOLECULAR_WEIGHT>
329.3736

> <PUBCHEM_OPENEYE_CAN_SMILES>
CC1=CC=CC2=C1NC(=NC2=O)COC(=O)C3=C(N=C(S3)C)C

> <PUBCHEM_OPENEYE_ISO_SMILES>
CC1=CC=CC2=C1NC(=NC2=O)COC(=O)C3=C(N=C(S3)C)C

> <PUBCHEM_CACTVS_TPSA>
109

> <PUBCHEM_MONOISOTOPIC_WEIGHT>
329.083412

> <PUBCHEM_TOTAL_CHARGE>
0

> <PUBCHEM_HEAVY_ATOM_COUNT>
23

> <PUBCHEM_ATOM_DEF_STEREO_COUNT>
0

> <PUBCHEM_ATOM_UDEF_STEREO_COUNT>
0

> <PUBCHEM_BOND_DEF_STEREO_COUNT>
0

> <PUBCHEM_BOND_UDEF_STEREO_COUNT>
0

> <PUBCHEM_ISOTOPIC_ATOM_COUNT>
0

> <PUBCHEM_COMPONENT_COUNT>
1

> <PUBCHEM_CACTVS_TAUTO_COUNT>
10

> <PUBCHEM_COORDINATE_TYPE>
1
5
255

> <PUBCHEM_BONDANNOTATIONS>
1  18  8
1  21  8
10  14  8
12  16  8
14  16  8
18  19  8
5  11  8
5  8  8
6  11  8
6  15  8
7  19  8
7  21  8
8  10  8
8  9  8
9  12  8
9  15  8

$$$$

