189733
  -OEChem-07051213082D

 30 29  0     0  0  0  0  0  0999 V2000
    2.0000   -1.6051    0.0000 Cl  0  0  0  0  0  0  0  0  0  0  0  0
    8.9282   -1.6051    0.0000 Cl  0  0  0  0  0  0  0  0  0  0  0  0
    5.4641   -1.6051    0.0000 P   0  0  0  0  0  0  0  0  0  0  0  0
    4.9641   -0.7390    0.0000 O   0  0  0  0  0  0  0  0  0  0  0  0
    5.9641   -2.4711    0.0000 O   0  0  0  0  0  0  0  0  0  0  0  0
    4.9641    2.7251    0.0000 O   0  0  0  0  0  0  0  0  0  0  0  0
    6.3301   -1.1051    0.0000 N   0  0  0  0  0  0  0  0  0  0  0  0
    4.5981   -2.1051    0.0000 N   0  0  0  0  0  0  0  0  0  0  0  0
    3.7320   -1.6051    0.0000 C   0  0  0  0  0  0  0  0  0  0  0  0
    7.1962   -1.6051    0.0000 C   0  0  0  0  0  0  0  0  0  0  0  0
    5.4641    0.1270    0.0000 C   0  0  0  0  0  0  0  0  0  0  0  0
    4.9641    0.9930    0.0000 C   0  0  0  0  0  0  0  0  0  0  0  0
    8.0622   -1.1051    0.0000 C   0  0  0  0  0  0  0  0  0  0  0  0
    2.8660   -2.1051    0.0000 C   0  0  0  0  0  0  0  0  0  0  0  0
    5.4641    1.8590    0.0000 C   0  0  0  0  0  0  0  0  0  0  0  0
    4.5981   -2.7251    0.0000 H   0  0  0  0  0  0  0  0  0  0  0  0
    6.3301   -0.4851    0.0000 H   0  0  0  0  0  0  0  0  0  0  0  0
    4.1306   -1.1301    0.0000 H   0  0  0  0  0  0  0  0  0  0  0  0
    3.3335   -1.1301    0.0000 H   0  0  0  0  0  0  0  0  0  0  0  0
    6.7976   -2.0800    0.0000 H   0  0  0  0  0  0  0  0  0  0  0  0
    7.5947   -2.0800    0.0000 H   0  0  0  0  0  0  0  0  0  0  0  0
    5.9390   -0.2715    0.0000 H   0  0  0  0  0  0  0  0  0  0  0  0
    5.9390    0.5255    0.0000 H   0  0  0  0  0  0  0  0  0  0  0  0
    4.4892    1.3915    0.0000 H   0  0  0  0  0  0  0  0  0  0  0  0
    4.4892    0.5945    0.0000 H   0  0  0  0  0  0  0  0  0  0  0  0
    8.4607   -0.6301    0.0000 H   0  0  0  0  0  0  0  0  0  0  0  0
    7.6636   -0.6301    0.0000 H   0  0  0  0  0  0  0  0  0  0  0  0
    2.4675   -2.5800    0.0000 H   0  0  0  0  0  0  0  0  0  0  0  0
    3.2646   -2.5800    0.0000 H   0  0  0  0  0  0  0  0  0  0  0  0
    6.0841    1.8590    0.0000 H   0  0  0  0  0  0  0  0  0  0  0  0
  1 14  1  0  0  0  0
  2 13  1  0  0  0  0
  3  4  1  0  0  0  0
  3  5  2  0  0  0  0
  3  7  1  0  0  0  0
  3  8  1  0  0  0  0
  4 11  1  0  0  0  0
  6 15  2  0  0  0  0
  7 10  1  0  0  0  0
  7 17  1  0  0  0  0
  8  9  1  0  0  0  0
  8 16  1  0  0  0  0
  9 14  1  0  0  0  0
  9 18  1  0  0  0  0
  9 19  1  0  0  0  0
 10 13  1  0  0  0  0
 10 20  1  0  0  0  0
 10 21  1  0  0  0  0
 11 12  1  0  0  0  0
 11 22  1  0  0  0  0
 11 23  1  0  0  0  0
 12 15  1  0  0  0  0
 12 24  1  0  0  0  0
 12 25  1  0  0  0  0
 13 26  1  0  0  0  0
 13 27  1  0  0  0  0
 14 28  1  0  0  0  0
 14 29  1  0  0  0  0
 15 30  1  0  0  0  0
M  END
> <PUBCHEM_COMPOUND_CID>
189733

> <PUBCHEM_COMPOUND_CANONICALIZED>
1

> <PUBCHEM_CACTVS_COMPLEXITY>
206

> <PUBCHEM_CACTVS_HBOND_ACCEPTOR>
5

> <PUBCHEM_CACTVS_HBOND_DONOR>
2

> <PUBCHEM_CACTVS_ROTATABLE_BOND>
10

> <PUBCHEM_CACTVS_SUBSKEYS>
AAADccBjMAIGAAAAAAAAAAAAAAAAAAAAAAAAAAAAAAAAAAAAAAAAHgIQgCAACAPhgEYAAABAARAIQAgQgIAAAAAAAAAAAIEAAAAAAAQAAAAAAAAAMAAAAAAAAAAAAAAAAAAAAAAAAAAAAAAAAAAAAAAAAA==

> <PUBCHEM_IUPAC_OPENEYE_NAME>
3-bis(2-chloroethylamino)phosphoryloxypropanal

> <PUBCHEM_IUPAC_CAS_NAME>
3-bis(2-chloroethylamino)phosphoryloxypropanal

> <PUBCHEM_IUPAC_NAME>
3-bis(2-chloroethylamino)phosphoryloxypropanal

> <PUBCHEM_IUPAC_SYSTEMATIC_NAME>
3-bis(2-chloroethylamino)phosphoryloxypropanal

> <PUBCHEM_IUPAC_TRADITIONAL_NAME>
3-bis(2-chloroethylamino)phosphoryloxypropionaldehyde

> <PUBCHEM_IUPAC_INCHI>
InChI=1S/C7H15Cl2N2O3P/c8-2-4-10-15(13,11-5-3-9)14-7-1-6-12/h6H,1-5,7H2,(H2,10,11,13)

> <PUBCHEM_IUPAC_INCHIKEY>
IPTJZZUYNOWWHM-UHFFFAOYSA-N

> <PUBCHEM_XLOGP3_AA>
-0.4

> <PUBCHEM_EXACT_MASS>
276.019734

> <PUBCHEM_MOLECULAR_FORMULA>
C7H15Cl2N2O3P

> <PUBCHEM_MOLECULAR_WEIGHT>
277.085362

> <PUBCHEM_OPENEYE_CAN_SMILES>
C(COP(=O)(NCCCl)NCCCl)C=O

> <PUBCHEM_OPENEYE_ISO_SMILES>
C(COP(=O)(NCCCl)NCCCl)C=O

> <PUBCHEM_CACTVS_TPSA>
67.4

> <PUBCHEM_MONOISOTOPIC_WEIGHT>
276.019734

> <PUBCHEM_TOTAL_CHARGE>
0

> <PUBCHEM_HEAVY_ATOM_COUNT>
15

> <PUBCHEM_ATOM_DEF_STEREO_COUNT>
0

> <PUBCHEM_ATOM_UDEF_STEREO_COUNT>
0

> <PUBCHEM_BOND_DEF_STEREO_COUNT>
0

> <PUBCHEM_BOND_UDEF_STEREO_COUNT>
0

> <PUBCHEM_ISOTOPIC_ATOM_COUNT>
0

> <PUBCHEM_COMPONENT_COUNT>
1

> <PUBCHEM_CACTVS_TAUTO_COUNT>
4

> <PUBCHEM_COORDINATE_TYPE>
1
5
255

$$$$

