441705
  -OEChem-07051212552D

 94100  0     1  0  0  0  0  0999 V2000
    8.1815    1.4710    0.0000 O   0  0  0  0  0  0  0  0  0  0  0  0
    5.5412   -0.9129    0.0000 O   0  0  0  0  0  0  0  0  0  0  0  0
    7.0588   -2.0818    0.0000 O   0  0  0  0  0  0  0  0  0  0  0  0
    9.2235    1.6197    0.0000 O   0  0  0  0  0  0  0  0  0  0  0  0
    5.1650    1.4285    0.0000 O   0  0  0  0  0  0  0  0  0  0  0  0
    6.7562    2.9919    0.0000 O   0  0  0  0  0  0  0  0  0  0  0  0
    4.7522   -0.4717    0.0000 O   0  0  0  0  0  0  0  0  0  0  0  0
    4.7638    2.1380    0.0000 O   0  0  0  0  0  0  0  0  0  0  0  0
   10.6323   -0.5901    0.0000 O   0  0  0  0  0  0  0  0  0  0  0  0
    9.7475   -2.5551    0.0000 O   0  0  0  0  0  0  0  0  0  0  0  0
    5.7374   -2.6339    0.0000 O   0  0  0  0  0  0  0  0  0  0  0  0
    3.9372    0.2068    0.0000 O   0  0  0  0  0  0  0  0  0  0  0  0
   10.0768   -0.1490    0.0000 N   0  0  3  0  0  0  0  0  0  0  0  0
    8.1301    0.2462    0.0000 C   0  0  2  0  0  0  0  0  0  0  0  0
    7.4518    0.7872    0.0000 C   0  0  2  0  0  0  0  0  0  0  0  0
    8.1301   -0.6213    0.0000 C   0  0  2  0  0  0  0  0  0  0  0  0
    9.1321    0.1402    0.0000 C   0  0  3  0  0  0  0  0  0  0  0  0
    6.6060   -0.9692    0.0000 C   0  0  1  0  0  0  0  0  0  0  0  0
    6.6060    0.5941    0.0000 C   0  0  1  0  0  0  0  0  0  0  0  0
    6.2296   -0.1876    0.0000 C   0  0  1  0  0  0  0  0  0  0  0  0
    7.4518   -1.1623    0.0000 C   0  0  2  0  0  0  0  0  0  0  0  0
    8.8815   -1.0551    0.0000 C   0  0  2  0  0  0  0  0  0  0  0  0
    8.8815    0.6800    0.0000 C   0  0  2  0  0  0  0  0  0  0  0  0
    7.5296    1.6512    0.0000 C   0  0  0  0  0  0  0  0  0  0  0  0
    6.7318    1.9922    0.0000 C   0  0  2  0  0  0  0  0  0  0  0  0
    6.1610    1.3389    0.0000 C   0  0  2  0  0  0  0  0  0  0  0  0
    5.5847    0.0824    0.0000 C   0  0  2  0  0  0  0  0  0  0  0  0
   10.0768   -0.9009    0.0000 C   0  0  0  0  0  0  0  0  0  0  0  0
    9.6328   -0.6213    0.0000 C   0  0  1  0  0  0  0  0  0  0  0  0
    5.5847    1.5669    0.0000 C   0  0  2  0  0  0  0  0  0  0  0  0
    9.6328    0.2462    0.0000 C   0  0  0  0  0  0  0  0  0  0  0  0
    8.8815   -2.0551    0.0000 C   0  0  0  0  0  0  0  0  0  0  0  0
   10.8808    0.4457    0.0000 C   0  0  0  0  0  0  0  0  0  0  0  0
    5.1424   -1.8300    0.0000 C   0  0  0  0  0  0  0  0  0  0  0  0
    7.6586   -2.8819    0.0000 C   0  0  0  0  0  0  0  0  0  0  0  0
   11.7977    0.0468    0.0000 C   0  0  0  0  0  0  0  0  0  0  0  0
   10.2083    1.7934    0.0000 C   0  0  0  0  0  0  0  0  0  0  0  0
    4.1985    1.1721    0.0000 C   0  0  0  0  0  0  0  0  0  0  0  0
    4.8480    3.1344    0.0000 C   0  0  0  0  0  0  0  0  0  0  0  0
    4.1489   -1.9432    0.0000 C   0  0  0  0  0  0  0  0  0  0  0  0
    9.7475   -3.5551    0.0000 C   0  0  0  0  0  0  0  0  0  0  0  0
    3.4931    1.8810    0.0000 C   0  0  0  0  0  0  0  0  0  0  0  0
    2.5266    1.6246    0.0000 C   0  0  0  0  0  0  0  0  0  0  0  0
    3.7544    2.8462    0.0000 C   0  0  0  0  0  0  0  0  0  0  0  0
    1.8212    2.3334    0.0000 C   0  0  0  0  0  0  0  0  0  0  0  0
    3.0490    3.5551    0.0000 C   0  0  0  0  0  0  0  0  0  0  0  0
    2.0824    3.2987    0.0000 C   0  0  0  0  0  0  0  0  0  0  0  0
    8.1936   -1.4690    0.0000 H   0  0  0  0  0  0  0  0  0  0  0  0
    9.2560    0.7477    0.0000 H   0  0  0  0  0  0  0  0  0  0  0  0
    6.0760   -1.6338    0.0000 H   0  0  0  0  0  0  0  0  0  0  0  0
    5.7568    0.5560    0.0000 H   0  0  0  0  0  0  0  0  0  0  0  0
    7.6522   -1.7490    0.0000 H   0  0  0  0  0  0  0  0  0  0  0  0
    8.4065    1.0786    0.0000 H   0  0  0  0  0  0  0  0  0  0  0  0
    7.7123    2.2437    0.0000 H   0  0  0  0  0  0  0  0  0  0  0  0
    8.1379    1.5314    0.0000 H   0  0  0  0  0  0  0  0  0  0  0  0
    5.9302    1.9143    0.0000 H   0  0  0  0  0  0  0  0  0  0  0  0
    5.0382    0.3751    0.0000 H   0  0  0  0  0  0  0  0  0  0  0  0
   10.6962   -0.8744    0.0000 H   0  0  0  0  0  0  0  0  0  0  0  0
   10.1298   -1.5186    0.0000 H   0  0  0  0  0  0  0  0  0  0  0  0
    9.8026   -1.2176    0.0000 H   0  0  0  0  0  0  0  0  0  0  0  0
    5.6628    2.1819    0.0000 H   0  0  0  0  0  0  0  0  0  0  0  0
    9.8449    0.8288    0.0000 H   0  0  0  0  0  0  0  0  0  0  0  0
   10.2434    0.1386    0.0000 H   0  0  0  0  0  0  0  0  0  0  0  0
    8.6694   -2.6377    0.0000 H   0  0  0  0  0  0  0  0  0  0  0  0
    8.2709   -1.9475    0.0000 H   0  0  0  0  0  0  0  0  0  0  0  0
    8.0405    2.0748    0.0000 H   0  0  0  0  0  0  0  0  0  0  0  0
   10.4311    0.8725    0.0000 H   0  0  0  0  0  0  0  0  0  0  0  0
   11.2231    0.9626    0.0000 H   0  0  0  0  0  0  0  0  0  0  0  0
    6.2270    3.3150    0.0000 H   0  0  0  0  0  0  0  0  0  0  0  0
    4.7916   -1.0904    0.0000 H   0  0  0  0  0  0  0  0  0  0  0  0
   10.9589   -1.1171    0.0000 H   0  0  0  0  0  0  0  0  0  0  0  0
    8.1547   -2.5100    0.0000 H   0  0  0  0  0  0  0  0  0  0  0  0
    8.0305   -3.3780    0.0000 H   0  0  0  0  0  0  0  0  0  0  0  0
    7.1625   -3.2538    0.0000 H   0  0  0  0  0  0  0  0  0  0  0  0
   12.0451    0.6153    0.0000 H   0  0  0  0  0  0  0  0  0  0  0  0
   12.3663   -0.2006    0.0000 H   0  0  0  0  0  0  0  0  0  0  0  0
   11.5504   -0.5218    0.0000 H   0  0  0  0  0  0  0  0  0  0  0  0
   10.1006    2.4040    0.0000 H   0  0  0  0  0  0  0  0  0  0  0  0
   10.8189    1.9010    0.0000 H   0  0  0  0  0  0  0  0  0  0  0  0
   10.3160    1.1828    0.0000 H   0  0  0  0  0  0  0  0  0  0  0  0
    4.2302    3.1866    0.0000 H   0  0  0  0  0  0  0  0  0  0  0  0
    4.9001    3.7522    0.0000 H   0  0  0  0  0  0  0  0  0  0  0  0
    5.4658    3.0823    0.0000 H   0  0  0  0  0  0  0  0  0  0  0  0
    4.2192   -2.5593    0.0000 H   0  0  0  0  0  0  0  0  0  0  0  0
    3.5329   -2.0135    0.0000 H   0  0  0  0  0  0  0  0  0  0  0  0
    4.0787   -1.3272    0.0000 H   0  0  0  0  0  0  0  0  0  0  0  0
   10.3675   -3.5551    0.0000 H   0  0  0  0  0  0  0  0  0  0  0  0
    9.7475   -4.1751    0.0000 H   0  0  0  0  0  0  0  0  0  0  0  0
    9.1275   -3.5551    0.0000 H   0  0  0  0  0  0  0  0  0  0  0  0
    2.3646    1.0261    0.0000 H   0  0  0  0  0  0  0  0  0  0  0  0
    4.3536    3.0052    0.0000 H   0  0  0  0  0  0  0  0  0  0  0  0
    1.2220    2.1745    0.0000 H   0  0  0  0  0  0  0  0  0  0  0  0
    3.2110    4.1536    0.0000 H   0  0  0  0  0  0  0  0  0  0  0  0
    1.6451    3.7382    0.0000 H   0  0  0  0  0  0  0  0  0  0  0  0
 15  1  1  6  0  0  0
  1 66  1  0  0  0  0
 20  2  1  6  0  0  0
  2 34  1  0  0  0  0
 21  3  1  1  0  0  0
  3 35  1  0  0  0  0
 23  4  1  1  0  0  0
  4 37  1  0  0  0  0
 26  5  1  1  0  0  0
  5 38  1  0  0  0  0
 25  6  1  6  0  0  0
  6 69  1  0  0  0  0
 27  7  1  1  0  0  0
  7 70  1  0  0  0  0
 30  8  1  6  0  0  0
  8 39  1  0  0  0  0
 29  9  1  1  0  0  0
  9 71  1  0  0  0  0
 10 32  1  0  0  0  0
 10 41  1  0  0  0  0
 11 34  2  0  0  0  0
 12 38  2  0  0  0  0
 13 17  1  0  0  0  0
 13 28  1  0  0  0  0
 13 33  1  0  0  0  0
 14 15  1  0  0  0  0
 14 16  1  0  0  0  0
 14 17  1  0  0  0  0
 14 23  1  6  0  0  0
 15 19  1  0  0  0  0
 15 24  1  0  0  0  0
 16 21  1  0  0  0  0
 16 22  1  0  0  0  0
 16 48  1  6  0  0  0
 17 18  1  0  0  0  0
 17 49  1  0  0  0  0
 18 20  1  0  0  0  0
 18 21  1  0  0  0  0
 18 50  1  1  0  0  0
 19 20  1  0  0  0  0
 19 26  1  0  0  0  0
 19 51  1  6  0  0  0
 20 27  1  0  0  0  0
 21 52  1  0  0  0  0
 22 28  1  0  0  0  0
 22 29  1  0  0  0  0
 22 32  1  6  0  0  0
 23 31  1  0  0  0  0
 23 53  1  0  0  0  0
 24 25  1  0  0  0  0
 24 54  1  0  0  0  0
 24 55  1  0  0  0  0
 25 26  1  0  0  0  0
 25 30  1  0  0  0  0
 26 56  1  0  0  0  0
 27 30  1  0  0  0  0
 27 57  1  0  0  0  0
 28 58  1  0  0  0  0
 28 59  1  0  0  0  0
 29 31  1  0  0  0  0
 29 60  1  0  0  0  0
 30 61  1  0  0  0  0
 31 62  1  0  0  0  0
 31 63  1  0  0  0  0
 32 64  1  0  0  0  0
 32 65  1  0  0  0  0
 33 36  1  0  0  0  0
 33 67  1  0  0  0  0
 33 68  1  0  0  0  0
 34 40  1  0  0  0  0
 35 72  1  0  0  0  0
 35 73  1  0  0  0  0
 35 74  1  0  0  0  0
 36 75  1  0  0  0  0
 36 76  1  0  0  0  0
 36 77  1  0  0  0  0
 37 78  1  0  0  0  0
 37 79  1  0  0  0  0
 37 80  1  0  0  0  0
 38 42  1  0  0  0  0
 39 81  1  0  0  0  0
 39 82  1  0  0  0  0
 39 83  1  0  0  0  0
 40 84  1  0  0  0  0
 40 85  1  0  0  0  0
 40 86  1  0  0  0  0
 41 87  1  0  0  0  0
 41 88  1  0  0  0  0
 41 89  1  0  0  0  0
 42 43  2  0  0  0  0
 42 44  1  0  0  0  0
 43 45  1  0  0  0  0
 43 90  1  0  0  0  0
 44 46  2  0  0  0  0
 44 91  1  0  0  0  0
 45 47  2  0  0  0  0
 45 92  1  0  0  0  0
 46 47  1  0  0  0  0
 46 93  1  0  0  0  0
 47 94  1  0  0  0  0
M  END
> <PUBCHEM_COMPOUND_CID>
441705

> <PUBCHEM_COMPOUND_CANONICALIZED>
1

> <PUBCHEM_CACTVS_COMPLEXITY>
1260

> <PUBCHEM_CACTVS_HBOND_ACCEPTOR>
13

> <PUBCHEM_CACTVS_HBOND_DONOR>
4

> <PUBCHEM_CACTVS_ROTATABLE_BOND>
11

> <PUBCHEM_CACTVS_SUBSKEYS>
AAADcfB+PAAAAAAAAAAAAAAAAAAAAYMAAAA8YMGCB4gWAGABAAAAHgAACAAAD3zhmAYyCIMABgCIAiDSCAACAAAkAAAIiAEICMgJNjKAtRiGcQAnwAGLqYf4+P+PgAAAAAAAAADSAAaUADSAAaUADSAAAA==

> <PUBCHEM_IUPAC_INCHI>
InChI=1S/C34H47NO12/c1-7-35-15-30(16-42-3)19(37)13-20(43-4)33-23(30)22(44-5)21(25(33)35)34(47-17(2)36)24-27(46-29(39)18-11-9-8-10-12-18)31(40,14-32(24,33)41)28(45-6)26(34)38/h8-12,19-28,37-38,40-41H,7,13-16H2,1-6H3/t19-,20+,21+,22+,23-,24+,25?,26+,27-,28+,30+,31-,32+,33-,34+/m1/s1

> <PUBCHEM_IUPAC_INCHIKEY>
GMSKTJVHWUUOMY-UHBPHNCFSA-N

> <PUBCHEM_XLOGP3_AA>
-0.8

> <PUBCHEM_EXACT_MASS>
661.309826

> <PUBCHEM_MOLECULAR_FORMULA>
C34H47NO12

> <PUBCHEM_MOLECULAR_WEIGHT>
661.73648

> <PUBCHEM_OPENEYE_CAN_SMILES>
CCN1CC2(C(CC(C34C2C(C(C31)C5(C6C4(CC(C6OC(=O)C7=CC=CC=C7)(C(C5O)OC)O)O)OC(=O)C)OC)OC)O)COC

> <PUBCHEM_OPENEYE_ISO_SMILES>
CCN1C[C@@]2([C@@H](C[C@@H]([C@@]34[C@@H]2[C@H]([C@@H](C31)[C@@]5([C@@H]6[C@]4(C[C@@]([C@@H]6OC(=O)C7=CC=CC=C7)([C@H]([C@@H]5O)OC)O)O)OC(=O)C)OC)OC)O)COC

> <PUBCHEM_CACTVS_TPSA>
174

> <PUBCHEM_MONOISOTOPIC_WEIGHT>
661.309826

> <PUBCHEM_TOTAL_CHARGE>
0

> <PUBCHEM_HEAVY_ATOM_COUNT>
47

> <PUBCHEM_ATOM_DEF_STEREO_COUNT>
14

> <PUBCHEM_ATOM_UDEF_STEREO_COUNT>
1

> <PUBCHEM_BOND_DEF_STEREO_COUNT>
0

> <PUBCHEM_BOND_UDEF_STEREO_COUNT>
0

> <PUBCHEM_ISOTOPIC_ATOM_COUNT>
0

> <PUBCHEM_COMPONENT_COUNT>
1

> <PUBCHEM_CACTVS_TAUTO_COUNT>
1

> <PUBCHEM_COORDINATE_TYPE>
1
5
255

> <PUBCHEM_BONDANNOTATIONS>
15  1  6
17  13  3
14  23  6
16  48  6
18  50  5
19  51  6
20  2  6
22  32  6
21  3  5
23  4  5
42  43  8
42  44  8
43  45  8
44  46  8
45  47  8
46  47  8
26  5  5
25  6  6
27  7  5
30  8  6
29  9  5

$$$$

