   Color/Form

     * Colorless cubic crystals
     * Colorless crystals or granules

   from [1]HSDB

   Taste
        Salty taste
   from [2]HSDB

   Melting Point
        248 deg C
   from [3]HSDB

   Corrosivity
        CORROSIVE TO ZINC & MILD STEEL
   from [4]HSDB

   Density/Specific Gravity
        2.5 g/cu cm
   from [5]HSDB

   pH
        Aqueous solution is neutral
   from [6]HSDB

   Solubilities

     * 100 g/100 g water at 25 deg C; slightly soluble in ethanol
     * Sodium chloride diminishes solubility in water
     * 790 g/L (in water) at 0 deg C; 2300 g/L (in water) at 100 deg C; in
       90% alcohol 16 g/kg; soluble in glycerol

   from [7]HSDB

   Spectral Properties
        Index of refraction: 1.515 at 20 deg C
   from [8]HSDB

   Vapor Pressure
        Negligible at room temperature
   from [9]HSDB

   Other Chemical/Physical Properties

     * Enthalpy of fusion: 21.3 kJ/mol; molar heat capacity: 100 kJ/mol at
       20 deg C; standard enthalpy of formation (crystal): -365.8 kJ/mol;
       on thermal decomposition sodium chlorate produces sodium
       perchlorate, sodium chloride, and oxygen
     * At about 300 deg C liberates oxygen; entirely decomposes at higher
       temperatures
     * Stable at normal temperatures if no acidic or oxidizable substances
       or ammonium salts are present; a potent oxidizing agent, reacting
       with organic materials, so creating a serious fire hazard, for
       example with splashed clothing.

   from [10]HSDB

   Computed Properties
   Molecular Weight                  106.440969 [g/mol]
   Molecular Formula                 ClNaO[3]
   H-Bond Donor                      0
   H-Bond Acceptor                   3
   Rotatable Bond Count              0
   Exact Mass                        105.943366
   MonoIsotopic Mass                 105.943366
   Topological Polar Surface Area    57.2
   Heavy Atom Count                  5
   Formal Charge                     0
   Complexity                        49.8
   Isotope Atom Count                0
   Defined Atom Stereocenter Count   0
   Undefined Atom Stereocenter Count 0
   Defined Bond Stereocenter Count   0
   Undefined Bond Stereocenter Count 0
   Covalently-Bonded Unit Count      2

References

   1. http://toxnet.nlm.nih.gov/cgi-bin/sis/search/r?dbs+hsdb:@term+@rn+@rel+7775-09-9
   2. http://toxnet.nlm.nih.gov/cgi-bin/sis/search/r?dbs+hsdb:@term+@rn+@rel+7775-09-9
   3. http://toxnet.nlm.nih.gov/cgi-bin/sis/search/r?dbs+hsdb:@term+@rn+@rel+7775-09-9
   4. http://toxnet.nlm.nih.gov/cgi-bin/sis/search/r?dbs+hsdb:@term+@rn+@rel+7775-09-9
   5. http://toxnet.nlm.nih.gov/cgi-bin/sis/search/r?dbs+hsdb:@term+@rn+@rel+7775-09-9
   6. http://toxnet.nlm.nih.gov/cgi-bin/sis/search/r?dbs+hsdb:@term+@rn+@rel+7775-09-9
   7. http://toxnet.nlm.nih.gov/cgi-bin/sis/search/r?dbs+hsdb:@term+@rn+@rel+7775-09-9
   8. http://toxnet.nlm.nih.gov/cgi-bin/sis/search/r?dbs+hsdb:@term+@rn+@rel+7775-09-9
   9. http://toxnet.nlm.nih.gov/cgi-bin/sis/search/r?dbs+hsdb:@term+@rn+@rel+7775-09-9
  10. http://toxnet.nlm.nih.gov/cgi-bin/sis/search/r?dbs+hsdb:@term+@rn+@rel+7775-09-9
