441727
  -OEChem-07051212552D

 74 79  0     1  0  0  0  0  0999 V2000
    4.3739   -1.5407    0.0000 O   0  0  0  0  0  0  0  0  0  0  0  0
    3.9326   -0.7026    0.0000 O   0  0  0  0  0  0  0  0  0  0  0  0
    5.4502   -1.8714    0.0000 O   0  0  0  0  0  0  0  0  0  0  0  0
    7.2728    1.8904    0.0000 O   0  0  0  0  0  0  0  0  0  0  0  0
    3.5560    1.4645    0.0000 O   0  0  0  0  0  0  0  0  0  0  0  0
    3.1552    2.3483    0.0000 O   0  0  0  0  0  0  0  0  0  0  0  0
    8.1389   -2.3448    0.0000 O   0  0  0  0  0  0  0  0  0  0  0  0
    8.4682    0.0613    0.0000 N   0  0  3  0  0  0  0  0  0  0  0  0
    6.5215    0.4566    0.0000 C   0  0  2  0  0  0  0  0  0  0  0  0
    6.5215   -0.4110    0.0000 C   0  0  2  0  0  0  0  0  0  0  0  0
    7.5235    0.3505    0.0000 C   0  0  3  0  0  0  0  0  0  0  0  0
    5.8432    0.9975    0.0000 C   0  0  1  0  0  0  0  0  0  0  0  0
    4.9974   -0.7589    0.0000 C   0  0  2  0  0  0  0  0  0  0  0  0
    4.9974    0.8044    0.0000 C   0  0  1  0  0  0  0  0  0  0  0  0
    4.6210    0.0228    0.0000 C   0  0  1  0  0  0  0  0  0  0  0  0
    5.8432   -0.9519    0.0000 C   0  0  1  0  0  0  0  0  0  0  0  0
    7.2728   -0.8448    0.0000 C   0  0  2  0  0  0  0  0  0  0  0  0
    7.2728    0.8904    0.0000 C   0  0  2  0  0  0  0  0  0  0  0  0
    5.9210    1.8616    0.0000 C   0  0  0  0  0  0  0  0  0  0  0  0
    5.1232    2.2026    0.0000 C   0  0  1  0  0  0  0  0  0  0  0  0
    4.5524    1.5492    0.0000 C   0  0  2  0  0  0  0  0  0  0  0  0
    3.9760    0.2927    0.0000 C   0  0  0  0  0  0  0  0  0  0  0  0
    8.4682   -0.6906    0.0000 C   0  0  0  0  0  0  0  0  0  0  0  0
    8.0242   -0.4110    0.0000 C   0  0  0  0  0  0  0  0  0  0  0  0
    3.9760    1.7772    0.0000 C   0  0  2  0  0  0  0  0  0  0  0  0
    8.0242    0.4566    0.0000 C   0  0  0  0  0  0  0  0  0  0  0  0
    7.2728   -1.8448    0.0000 C   0  0  0  0  0  0  0  0  0  0  0  0
    9.2721    0.6560    0.0000 C   0  0  0  0  0  0  0  0  0  0  0  0
    6.0500   -2.6716    0.0000 C   0  0  0  0  0  0  0  0  0  0  0  0
   10.1891    0.2571    0.0000 C   0  0  0  0  0  0  0  0  0  0  0  0
    3.1311    0.5593    0.0000 C   0  0  0  0  0  0  0  0  0  0  0  0
    3.2393    3.3448    0.0000 C   0  0  0  0  0  0  0  0  0  0  0  0
    8.1389   -3.3448    0.0000 C   0  0  0  0  0  0  0  0  0  0  0  0
    6.5850   -1.2586    0.0000 H   0  0  0  0  0  0  0  0  0  0  0  0
    7.6474    0.9580    0.0000 H   0  0  0  0  0  0  0  0  0  0  0  0
    6.6248    1.3316    0.0000 H   0  0  0  0  0  0  0  0  0  0  0  0
    4.1482    0.7663    0.0000 H   0  0  0  0  0  0  0  0  0  0  0  0
    6.0436   -1.5386    0.0000 H   0  0  0  0  0  0  0  0  0  0  0  0
    6.7359    1.2004    0.0000 H   0  0  0  0  0  0  0  0  0  0  0  0
    6.1037    2.4540    0.0000 H   0  0  0  0  0  0  0  0  0  0  0  0
    6.5293    1.7418    0.0000 H   0  0  0  0  0  0  0  0  0  0  0  0
    5.1440    3.0523    0.0000 H   0  0  0  0  0  0  0  0  0  0  0  0
    4.2723    2.1023    0.0000 H   0  0  0  0  0  0  0  0  0  0  0  0
    3.8141   -0.3058    0.0000 H   0  0  0  0  0  0  0  0  0  0  0  0
    3.3614    0.3744    0.0000 H   0  0  0  0  0  0  0  0  0  0  0  0
    9.0876   -0.6640    0.0000 H   0  0  0  0  0  0  0  0  0  0  0  0
    8.5211   -1.3083    0.0000 H   0  0  0  0  0  0  0  0  0  0  0  0
    8.6348   -0.3033    0.0000 H   0  0  0  0  0  0  0  0  0  0  0  0
    8.2362   -0.9936    0.0000 H   0  0  0  0  0  0  0  0  0  0  0  0
    4.0542    2.3923    0.0000 H   0  0  0  0  0  0  0  0  0  0  0  0
    8.2362    1.0392    0.0000 H   0  0  0  0  0  0  0  0  0  0  0  0
    8.6348    0.3489    0.0000 H   0  0  0  0  0  0  0  0  0  0  0  0
    7.0608   -2.4274    0.0000 H   0  0  0  0  0  0  0  0  0  0  0  0
    6.6623   -1.7371    0.0000 H   0  0  0  0  0  0  0  0  0  0  0  0
    4.6004   -2.1178    0.0000 H   0  0  0  0  0  0  0  0  0  0  0  0
    3.3297   -0.5579    0.0000 H   0  0  0  0  0  0  0  0  0  0  0  0
    8.8225    1.0829    0.0000 H   0  0  0  0  0  0  0  0  0  0  0  0
    9.6144    1.1730    0.0000 H   0  0  0  0  0  0  0  0  0  0  0  0
    7.8098    2.2004    0.0000 H   0  0  0  0  0  0  0  0  0  0  0  0
    6.5461   -2.2997    0.0000 H   0  0  0  0  0  0  0  0  0  0  0  0
    6.4219   -3.1677    0.0000 H   0  0  0  0  0  0  0  0  0  0  0  0
    5.5539   -3.0435    0.0000 H   0  0  0  0  0  0  0  0  0  0  0  0
   10.4365    0.8256    0.0000 H   0  0  0  0  0  0  0  0  0  0  0  0
   10.7577    0.0098    0.0000 H   0  0  0  0  0  0  0  0  0  0  0  0
    9.9418   -0.3114    0.0000 H   0  0  0  0  0  0  0  0  0  0  0  0
    3.6924    0.2959    0.0000 H   0  0  0  0  0  0  0  0  0  0  0  0
    2.8677   -0.0020    0.0000 H   0  0  0  0  0  0  0  0  0  0  0  0
    2.5699    0.8227    0.0000 H   0  0  0  0  0  0  0  0  0  0  0  0
    2.6215    3.3970    0.0000 H   0  0  0  0  0  0  0  0  0  0  0  0
    3.2915    3.9626    0.0000 H   0  0  0  0  0  0  0  0  0  0  0  0
    3.8571    3.2926    0.0000 H   0  0  0  0  0  0  0  0  0  0  0  0
    8.7589   -3.3448    0.0000 H   0  0  0  0  0  0  0  0  0  0  0  0
    8.1389   -3.9648    0.0000 H   0  0  0  0  0  0  0  0  0  0  0  0
    7.5189   -3.3448    0.0000 H   0  0  0  0  0  0  0  0  0  0  0  0
 13  1  1  1  0  0  0
  1 55  1  0  0  0  0
 15  2  1  6  0  0  0
  2 56  1  0  0  0  0
 16  3  1  6  0  0  0
  3 29  1  0  0  0  0
 18  4  1  1  0  0  0
  4 59  1  0  0  0  0
 21  5  1  1  0  0  0
  5 31  1  0  0  0  0
 25  6  1  6  0  0  0
  6 32  1  0  0  0  0
  7 27  1  0  0  0  0
  7 33  1  0  0  0  0
  8 11  1  0  0  0  0
  8 23  1  0  0  0  0
  8 28  1  0  0  0  0
  9 10  1  0  0  0  0
  9 11  1  0  0  0  0
  9 12  1  0  0  0  0
  9 18  1  6  0  0  0
 10 16  1  0  0  0  0
 10 17  1  0  0  0  0
 10 34  1  6  0  0  0
 11 13  1  0  0  0  0
 11 35  1  0  0  0  0
 12 14  1  0  0  0  0
 12 19  1  0  0  0  0
 12 36  1  6  0  0  0
 13 15  1  0  0  0  0
 13 16  1  0  0  0  0
 14 15  1  0  0  0  0
 14 21  1  0  0  0  0
 14 37  1  6  0  0  0
 15 22  1  0  0  0  0
 16 38  1  0  0  0  0
 17 23  1  0  0  0  0
 17 24  1  0  0  0  0
 17 27  1  6  0  0  0
 18 26  1  0  0  0  0
 18 39  1  0  0  0  0
 19 20  1  0  0  0  0
 19 40  1  0  0  0  0
 19 41  1  0  0  0  0
 20 21  1  0  0  0  0
 20 25  1  0  0  0  0
 20 42  1  6  0  0  0
 21 43  1  0  0  0  0
 22 25  1  0  0  0  0
 22 44  1  0  0  0  0
 22 45  1  0  0  0  0
 23 46  1  0  0  0  0
 23 47  1  0  0  0  0
 24 26  1  0  0  0  0
 24 48  1  0  0  0  0
 24 49  1  0  0  0  0
 25 50  1  0  0  0  0
 26 51  1  0  0  0  0
 26 52  1  0  0  0  0
 27 53  1  0  0  0  0
 27 54  1  0  0  0  0
 28 30  1  0  0  0  0
 28 57  1  0  0  0  0
 28 58  1  0  0  0  0
 29 60  1  0  0  0  0
 29 61  1  0  0  0  0
 29 62  1  0  0  0  0
 30 63  1  0  0  0  0
 30 64  1  0  0  0  0
 30 65  1  0  0  0  0
 31 66  1  0  0  0  0
 31 67  1  0  0  0  0
 31 68  1  0  0  0  0
 32 69  1  0  0  0  0
 32 70  1  0  0  0  0
 32 71  1  0  0  0  0
 33 72  1  0  0  0  0
 33 73  1  0  0  0  0
 33 74  1  0  0  0  0
M  END
> <PUBCHEM_COMPOUND_CID>
441727

> <PUBCHEM_COMPOUND_CANONICALIZED>
1

> <PUBCHEM_CACTVS_COMPLEXITY>
814

> <PUBCHEM_CACTVS_HBOND_ACCEPTOR>
8

> <PUBCHEM_CACTVS_HBOND_DONOR>
3

> <PUBCHEM_CACTVS_ROTATABLE_BOND>
6

> <PUBCHEM_CACTVS_SUBSKEYS>
AAADcfB6OAAAAAAAAAAAAAAAAAAAAYMAAAA8YMEAB4gWAGAAAAAAHgAACAAAD3zhgAYCAAMABgAAAAAAAAAAAAAAAAAAAAAIAAADEAIAgAAEQAAHAACTAAHw8P8PgAAAAAAAAADQAAaUADSgAaEADSgAAA==

> <PUBCHEM_IUPAC_INCHI>
InChI=1S/C25H41NO7/c1-6-26-11-22(12-30-2)8-7-16(27)24-14-9-13-15(31-3)10-23(28,17(14)18(13)32-4)25(29,21(24)26)20(33-5)19(22)24/h13-21,27-29H,6-12H2,1-5H3/t13-,14-,15+,16+,17-,18+,19-,20+,21?,22+,23-,24+,25-/m1/s1

> <PUBCHEM_IUPAC_INCHIKEY>
JVBLTQQBEQQLEV-YAEAOFIFSA-N

> <PUBCHEM_XLOGP3_AA>
-0.6

> <PUBCHEM_EXACT_MASS>
467.288303

> <PUBCHEM_MOLECULAR_FORMULA>
C25H41NO7

> <PUBCHEM_MOLECULAR_WEIGHT>
467.59554

> <PUBCHEM_OPENEYE_CAN_SMILES>
CCN1CC2(CCC(C34C2C(C(C31)(C5(CC(C6CC4C5C6OC)OC)O)O)OC)O)COC

> <PUBCHEM_OPENEYE_ISO_SMILES>
CCN1C[C@@]2(CC[C@@H]([C@@]34[C@@H]2[C@@H]([C@@](C31)([C@]5(C[C@@H]([C@H]6C[C@@H]4[C@@H]5[C@H]6OC)OC)O)O)OC)O)COC

> <PUBCHEM_CACTVS_TPSA>
101

> <PUBCHEM_MONOISOTOPIC_WEIGHT>
467.288303

> <PUBCHEM_TOTAL_CHARGE>
0

> <PUBCHEM_HEAVY_ATOM_COUNT>
33

> <PUBCHEM_ATOM_DEF_STEREO_COUNT>
12

> <PUBCHEM_ATOM_UDEF_STEREO_COUNT>
1

> <PUBCHEM_BOND_DEF_STEREO_COUNT>
0

> <PUBCHEM_BOND_UDEF_STEREO_COUNT>
0

> <PUBCHEM_ISOTOPIC_ATOM_COUNT>
0

> <PUBCHEM_COMPONENT_COUNT>
1

> <PUBCHEM_CACTVS_TAUTO_COUNT>
1

> <PUBCHEM_COORDINATE_TYPE>
1
5
255

> <PUBCHEM_BONDANNOTATIONS>
13  1  5
10  34  6
12  36  6
14  37  6
17  27  6
15  2  6
20  42  6
16  3  6
18  4  5
21  5  5
25  6  6
11  8  3
9  18  6

$$$$

