854345
  -OEChem-06241222482D

 27 27  0     0  0  0  0  0  0999 V2000
    5.3511    1.0962    0.0000 O   0  0  0  0  0  0  0  0  0  0  0  0
    3.0878   -2.8697    0.0000 N   0  0  0  0  0  0  0  0  0  0  0  0
    2.2788   -2.2819    0.0000 N   0  0  0  0  0  0  0  0  0  0  0  0
    3.9499    2.1143    0.0000 N   0  0  0  0  0  0  0  0  0  0  0  0
    4.5377    2.9233    0.0000 N   0  0  0  0  0  0  0  0  0  0  0  0
    3.5878   -1.3308    0.0000 C   0  0  0  0  0  0  0  0  0  0  0  0
    4.1756   -0.5218    0.0000 C   0  0  0  0  0  0  0  0  0  0  0  0
    3.8968   -2.2819    0.0000 C   0  0  0  0  0  0  0  0  0  0  0  0
    3.7688    0.3917    0.0000 C   0  0  0  0  0  0  0  0  0  0  0  0
    2.5878   -1.3308    0.0000 C   0  0  0  0  0  0  0  0  0  0  0  0
    4.8479   -2.5909    0.0000 C   0  0  0  0  0  0  0  0  0  0  0  0
    2.0000   -0.5218    0.0000 C   0  0  0  0  0  0  0  0  0  0  0  0
    4.3566    1.2007    0.0000 C   0  0  0  0  0  0  0  0  0  0  0  0
    4.6063   -0.9678    0.0000 H   0  0  0  0  0  0  0  0  0  0  0  0
    4.6896   -0.1751    0.0000 H   0  0  0  0  0  0  0  0  0  0  0  0
    3.3382    0.8377    0.0000 H   0  0  0  0  0  0  0  0  0  0  0  0
    3.2548    0.0450    0.0000 H   0  0  0  0  0  0  0  0  0  0  0  0
    3.0878   -3.4897    0.0000 H   0  0  0  0  0  0  0  0  0  0  0  0
    4.6563   -3.1806    0.0000 H   0  0  0  0  0  0  0  0  0  0  0  0
    5.4375   -2.7825    0.0000 H   0  0  0  0  0  0  0  0  0  0  0  0
    5.0395   -2.0013    0.0000 H   0  0  0  0  0  0  0  0  0  0  0  0
    2.5016   -0.1574    0.0000 H   0  0  0  0  0  0  0  0  0  0  0  0
    1.6356   -0.0202    0.0000 H   0  0  0  0  0  0  0  0  0  0  0  0
    1.4984   -0.8863    0.0000 H   0  0  0  0  0  0  0  0  0  0  0  0
    3.3333    2.1791    0.0000 H   0  0  0  0  0  0  0  0  0  0  0  0
    4.2855    3.4897    0.0000 H   0  0  0  0  0  0  0  0  0  0  0  0
    5.1543    2.8585    0.0000 H   0  0  0  0  0  0  0  0  0  0  0  0
  1 13  2  0  0  0  0
  2  3  1  0  0  0  0
  2  8  1  0  0  0  0
  2 18  1  0  0  0  0
  3 10  2  0  0  0  0
  4  5  1  0  0  0  0
  4 13  1  0  0  0  0
  4 25  1  0  0  0  0
  5 26  1  0  0  0  0
  5 27  1  0  0  0  0
  6  7  1  0  0  0  0
  6  8  2  0  0  0  0
  6 10  1  0  0  0  0
  7  9  1  0  0  0  0
  7 14  1  0  0  0  0
  7 15  1  0  0  0  0
  8 11  1  0  0  0  0
  9 13  1  0  0  0  0
  9 16  1  0  0  0  0
  9 17  1  0  0  0  0
 10 12  1  0  0  0  0
 11 19  1  0  0  0  0
 11 20  1  0  0  0  0
 11 21  1  0  0  0  0
 12 22  1  0  0  0  0
 12 23  1  0  0  0  0
 12 24  1  0  0  0  0
M  END
> <PUBCHEM_COMPOUND_CID>
854345

> <PUBCHEM_COMPOUND_CANONICALIZED>
1

> <PUBCHEM_CACTVS_COMPLEXITY>
185

> <PUBCHEM_CACTVS_HBOND_ACCEPTOR>
3

> <PUBCHEM_CACTVS_HBOND_DONOR>
3

> <PUBCHEM_CACTVS_ROTATABLE_BOND>
3

> <PUBCHEM_CACTVS_SUBSKEYS>
AAADccBzoAAAAAAAAAAAAAAAAAAAAWAAAAAAAAAAAAAAAAABgAAAHgAYAAAADAiBngACgJBjAACqAwVwUACQBAAgAAISOSEwRBgAIBIA0NCAhABgmAAISAMYCQAeAAAAAAAAAAAAAAAAAAAAAAAAAAAAAA==

> <PUBCHEM_IUPAC_OPENEYE_NAME>
3-(3,5-dimethyl-1H-pyrazol-4-yl)propanehydrazide

> <PUBCHEM_IUPAC_CAS_NAME>
3-(3,5-dimethyl-1H-pyrazol-4-yl)propanehydrazide

> <PUBCHEM_IUPAC_NAME>
3-(3,5-dimethyl-1H-pyrazol-4-yl)propanehydrazide

> <PUBCHEM_IUPAC_SYSTEMATIC_NAME>
3-(3,5-dimethyl-1H-pyrazol-4-yl)propanehydrazide

> <PUBCHEM_IUPAC_TRADITIONAL_NAME>
3-(3,5-dimethyl-1H-pyrazol-4-yl)propionohydrazide

> <PUBCHEM_IUPAC_INCHI>
InChI=1S/C8H14N4O/c1-5-7(6(2)12-11-5)3-4-8(13)10-9/h3-4,9H2,1-2H3,(H,10,13)(H,11,12)

> <PUBCHEM_IUPAC_INCHIKEY>
NBQIROUFTRKVPR-UHFFFAOYSA-N

> <PUBCHEM_XLOGP3_AA>
-0.2

> <PUBCHEM_EXACT_MASS>
182.116761

> <PUBCHEM_MOLECULAR_FORMULA>
C8H14N4O

> <PUBCHEM_MOLECULAR_WEIGHT>
182.22296

> <PUBCHEM_OPENEYE_CAN_SMILES>
CC1=C(C(=NN1)C)CCC(=O)NN

> <PUBCHEM_OPENEYE_ISO_SMILES>
CC1=C(C(=NN1)C)CCC(=O)NN

> <PUBCHEM_CACTVS_TPSA>
83.8

> <PUBCHEM_MONOISOTOPIC_WEIGHT>
182.116761

> <PUBCHEM_TOTAL_CHARGE>
0

> <PUBCHEM_HEAVY_ATOM_COUNT>
13

> <PUBCHEM_ATOM_DEF_STEREO_COUNT>
0

> <PUBCHEM_ATOM_UDEF_STEREO_COUNT>
0

> <PUBCHEM_BOND_DEF_STEREO_COUNT>
0

> <PUBCHEM_BOND_UDEF_STEREO_COUNT>
0

> <PUBCHEM_ISOTOPIC_ATOM_COUNT>
0

> <PUBCHEM_COMPONENT_COUNT>
1

> <PUBCHEM_CACTVS_TAUTO_COUNT>
2

> <PUBCHEM_COORDINATE_TYPE>
1
5
255

> <PUBCHEM_BONDANNOTATIONS>
2  3  8
2  8  8
3  10  8
6  10  8
6  8  8

$$$$

