   Color/Form
        White, crystalline powder
   from [1]HSDB

   Odor
        Slight aromatic odor
   from [2]HSDB

   Melting Point
        101-101.5 deg C
   from [3]HSDB

   Dissociation Constants
        pKa = 9.44
   from [4]HSDB

   Octanol/Water Partition Coefficient
        log Kow = 0.67
   from [5]HSDB

   Solubilities

     * Freely soluble in water and alcohol
     * In water, 1.49X10+5 mg/L at 25 deg C (est)

   from [6]HSDB

   Vapor Pressure
        8.67X10-4 mm Hg at 25 deg C (est)
   from [7]HSDB

   Other Chemical/Physical Properties

     * Crystals; melting point 190-194 deg C; odor resembling that of
       crude benzoic acid; pKa 9.44 + or - 0.04. Freely soluble in water,
       alcohol; practically insoluble in ether, chloroform, benzene. The
       aq soln is neutral to litmus. /Phenylpropanolamine hydrochloride/
     * Melting point: 171-172 deg C; Specific optical rotation: +32 deg at
       25 deg C/D (Water) /(+)-Form hydrochloride/
     * Solid. Mol wt: 187.69, mp: 194 deg C. Soluble in water.
       /Hydrochloride/
     * Henry's Law constant = 4.0X10-11 atm-cu m/mol at 25 deg C (est)
     * Hydroxyl radical reaction rate constant = 5.70X10-11 cu
       cm/molec-sec at 25 deg C (est)

   from [8]HSDB

   Computed Properties
   Molecular Weight                  151.20562 [g/mol]
   Molecular Formula                 C[9]H[13]NO
   XLogP3                            0.8
   H-Bond Donor                      2
   H-Bond Acceptor                   2
   Rotatable Bond Count              2
   Exact Mass                        151.099714
   MonoIsotopic Mass                 151.099714
   Topological Polar Surface Area    46.2
   Heavy Atom Count                  11
   Formal Charge                     0
   Complexity                        110
   Isotope Atom Count                0
   Defined Atom Stereocenter Count   2
   Undefined Atom Stereocenter Count 0
   Defined Bond Stereocenter Count   0
   Undefined Bond Stereocenter Count 0
   Covalently-Bonded Unit Count      1
   Feature 3D Acceptor Count         1
   Feature 3D Donor Count            2
   Feature 3D Cation Count           1
   Feature 3D Ring Count             1
   Effective Rotor Count             2
   Conformer Sampling RMSD           0.4
   CID Conformer Count               [9]5

References

   1. http://toxnet.nlm.nih.gov/cgi-bin/sis/search/r?dbs+hsdb:@term+@rn+@rel+14838-15-4
   2. http://toxnet.nlm.nih.gov/cgi-bin/sis/search/r?dbs+hsdb:@term+@rn+@rel+14838-15-4
   3. http://toxnet.nlm.nih.gov/cgi-bin/sis/search/r?dbs+hsdb:@term+@rn+@rel+14838-15-4
   4. http://toxnet.nlm.nih.gov/cgi-bin/sis/search/r?dbs+hsdb:@term+@rn+@rel+14838-15-4
   5. http://toxnet.nlm.nih.gov/cgi-bin/sis/search/r?dbs+hsdb:@term+@rn+@rel+14838-15-4
   6. http://toxnet.nlm.nih.gov/cgi-bin/sis/search/r?dbs+hsdb:@term+@rn+@rel+14838-15-4
   7. http://toxnet.nlm.nih.gov/cgi-bin/sis/search/r?dbs+hsdb:@term+@rn+@rel+14838-15-4
   8. http://toxnet.nlm.nih.gov/cgi-bin/sis/search/r?dbs+hsdb:@term+@rn+@rel+14838-15-4
   9. http://pubchem.ncbi.nlm.nih.gov/vw3d/vw3d.cgi?cid=162265
