11948668
  -OEChem-07051213092D

 51 53  0     1  0  0  0  0  0999 V2000
    9.4893    0.2961    0.0000 O   0  0  0  0  0  0  0  0  0  0  0  0
    6.8671    0.9050    0.0000 O   0  0  0  0  0  0  0  0  0  0  0  0
    6.0010   -0.5950    0.0000 O   0  0  0  0  0  0  0  0  0  0  0  0
    8.9900   -2.8502    0.0000 O   0  0  0  0  0  0  0  0  0  0  0  0
    5.1350    0.9050    0.0000 O   0  0  0  0  0  0  0  0  0  0  0  0
    6.8671    2.9050    0.0000 O   0  0  0  0  0  0  0  0  0  0  0  0
    5.1350    3.9050    0.0000 O   0  0  0  0  0  0  0  0  0  0  0  0
    3.4030    2.9050    0.0000 O   0  0  0  0  0  0  0  0  0  0  0  0
    6.0010   -3.5950    0.0000 O   0  0  0  0  0  0  0  0  0  0  0  0
    7.7331   -3.5950    0.0000 O   0  0  0  0  0  0  0  0  0  0  0  0
    2.5369    1.4050    0.0000 O   0  0  0  0  0  0  0  0  0  0  0  0
    7.7331   -0.5950    0.0000 C   0  0  2  0  0  0  0  0  0  0  0  0
    8.6793   -0.2903    0.0000 C   0  0  2  0  0  0  0  0  0  0  0  0
    7.7331   -1.5950    0.0000 C   0  0  2  0  0  0  0  0  0  0  0  0
    8.6793   -1.8997    0.0000 C   0  0  1  0  0  0  0  0  0  0  0  0
    9.2629   -1.0950    0.0000 C   0  0  0  0  0  0  0  0  0  0  0  0
    6.8671   -0.0950    0.0000 C   0  0  2  0  0  0  0  0  0  0  0  0
    6.8671   -2.0950    0.0000 C   0  0  0  0  0  0  0  0  0  0  0  0
    8.3719    0.6613    0.0000 C   0  0  0  0  0  0  0  0  0  0  0  0
    6.0010   -1.5950    0.0000 C   0  0  0  0  0  0  0  0  0  0  0  0
    6.0010    1.4050    0.0000 C   0  0  2  0  0  0  0  0  0  0  0  0
    6.0010    2.4050    0.0000 C   0  0  1  0  0  0  0  0  0  0  0  0
    5.1350    2.9050    0.0000 C   0  0  2  0  0  0  0  0  0  0  0  0
    4.2690    2.4050    0.0000 C   0  0  1  0  0  0  0  0  0  0  0  0
    4.2690    1.4050    0.0000 C   0  0  1  0  0  0  0  0  0  0  0  0
    6.8671   -3.0950    0.0000 C   0  0  0  0  0  0  0  0  0  0  0  0
    3.4030    0.9050    0.0000 C   0  0  0  0  0  0  0  0  0  0  0  0
    7.8230    0.2502    0.0000 H   0  0  0  0  0  0  0  0  0  0  0  0
    7.8230   -2.4402    0.0000 H   0  0  0  0  0  0  0  0  0  0  0  0
    8.2418   -2.3391    0.0000 H   0  0  0  0  0  0  0  0  0  0  0  0
    9.7238   -1.5097    0.0000 H   0  0  0  0  0  0  0  0  0  0  0  0
    9.7238   -0.6803    0.0000 H   0  0  0  0  0  0  0  0  0  0  0  0
    6.3301    0.2150    0.0000 H   0  0  0  0  0  0  0  0  0  0  0  0
    8.9619    0.8519    0.0000 H   0  0  0  0  0  0  0  0  0  0  0  0
    8.1814    1.2513    0.0000 H   0  0  0  0  0  0  0  0  0  0  0  0
    7.7820    0.4708    0.0000 H   0  0  0  0  0  0  0  0  0  0  0  0
   10.0553    0.0430    0.0000 H   0  0  0  0  0  0  0  0  0  0  0  0
    6.5380    1.7150    0.0000 H   0  0  0  0  0  0  0  0  0  0  0  0
    5.4641   -1.9050    0.0000 H   0  0  0  0  0  0  0  0  0  0  0  0
    9.5966   -2.9781    0.0000 H   0  0  0  0  0  0  0  0  0  0  0  0
    6.5380    2.0950    0.0000 H   0  0  0  0  0  0  0  0  0  0  0  0
    5.6720    3.2150    0.0000 H   0  0  0  0  0  0  0  0  0  0  0  0
    4.2690    3.0250    0.0000 H   0  0  0  0  0  0  0  0  0  0  0  0
    4.2690    0.7850    0.0000 H   0  0  0  0  0  0  0  0  0  0  0  0
    3.0044    0.4301    0.0000 H   0  0  0  0  0  0  0  0  0  0  0  0
    3.8015    0.4301    0.0000 H   0  0  0  0  0  0  0  0  0  0  0  0
    6.8671    3.5250    0.0000 H   0  0  0  0  0  0  0  0  0  0  0  0
    4.5981    4.2150    0.0000 H   0  0  0  0  0  0  0  0  0  0  0  0
    3.4030    3.5250    0.0000 H   0  0  0  0  0  0  0  0  0  0  0  0
    6.0010   -4.2150    0.0000 H   0  0  0  0  0  0  0  0  0  0  0  0
    2.0000    1.0950    0.0000 H   0  0  0  0  0  0  0  0  0  0  0  0
 13  1  1  1  0  0  0
  1 37  1  0  0  0  0
 17  2  1  1  0  0  0
 21  2  1  6  0  0  0
  3 17  1  0  0  0  0
  3 20  1  0  0  0  0
 15  4  1  1  0  0  0
  4 40  1  0  0  0  0
  5 21  1  0  0  0  0
  5 25  1  0  0  0  0
 22  6  1  1  0  0  0
  6 47  1  0  0  0  0
 23  7  1  6  0  0  0
  7 48  1  0  0  0  0
 24  8  1  1  0  0  0
  8 49  1  0  0  0  0
  9 26  1  0  0  0  0
  9 50  1  0  0  0  0
 10 26  2  0  0  0  0
 11 27  1  0  0  0  0
 11 51  1  0  0  0  0
 12 13  1  0  0  0  0
 12 14  1  0  0  0  0
 12 17  1  0  0  0  0
 12 28  1  1  0  0  0
 13 16  1  0  0  0  0
 13 19  1  0  0  0  0
 14 15  1  0  0  0  0
 14 18  1  0  0  0  0
 14 29  1  1  0  0  0
 15 16  1  0  0  0  0
 15 30  1  0  0  0  0
 16 31  1  0  0  0  0
 16 32  1  0  0  0  0
 17 33  1  0  0  0  0
 18 20  2  0  0  0  0
 18 26  1  0  0  0  0
 19 34  1  0  0  0  0
 19 35  1  0  0  0  0
 19 36  1  0  0  0  0
 20 39  1  0  0  0  0
 21 22  1  0  0  0  0
 21 38  1  0  0  0  0
 22 23  1  0  0  0  0
 22 41  1  0  0  0  0
 23 24  1  0  0  0  0
 23 42  1  0  0  0  0
 24 25  1  0  0  0  0
 24 43  1  0  0  0  0
 25 27  1  6  0  0  0
 25 44  1  0  0  0  0
 27 45  1  0  0  0  0
 27 46  1  0  0  0  0
M  END
> <PUBCHEM_COMPOUND_CID>
11948668

> <PUBCHEM_COMPOUND_CANONICALIZED>
1

> <PUBCHEM_CACTVS_COMPLEXITY>
609

> <PUBCHEM_CACTVS_HBOND_ACCEPTOR>
11

> <PUBCHEM_CACTVS_HBOND_DONOR>
7

> <PUBCHEM_CACTVS_ROTATABLE_BOND>
4

> <PUBCHEM_CACTVS_SUBSKEYS>
AAADceB4PAAAAAAAAAAAAAAAAAAAAYAAAAAkQAAAAAAAAEAAAAAAGgAACAAADVSwgAMCCAAABgCIAgDSCAAACAAgIAAAAAEAAEgRFBIAAQAiQAAFwAAHEIHK7PzOgAAAAAAAAAAAAAAAAAAAAYQADAAAAA==

> <PUBCHEM_IUPAC_OPENEYE_NAME>
(1S,4aS,5R,7S,7aS)-5,7-dihydroxy-7-methyl-1-[(2S,3R,4S,5S,6R)-3,4,5-trihydroxy-6-(hydroxymethyl)tetrahydropyran-2-yl]oxy-4a,5,6,7a-tetrahydro-1H-cyclopenta[c]pyran-4-carboxylic acid

> <PUBCHEM_IUPAC_CAS_NAME>
(1S,4aS,5R,7S,7aS)-5,7-dihydroxy-7-methyl-1-[[(2S,3R,4S,5S,6R)-3,4,5-trihydroxy-6-(hydroxymethyl)-2-oxanyl]oxy]-4a,5,6,7a-tetrahydro-1H-cyclopenta[c]pyran-4-carboxylic acid

> <PUBCHEM_IUPAC_NAME>
(1S,4aS,5R,7S,7aS)-5,7-dihydroxy-7-methyl-1-[(2S,3R,4S,5S,6R)-3,4,5-trihydroxy-6-(hydroxymethyl)oxan-2-yl]oxy-4a,5,6,7a-tetrahydro-1H-cyclopenta[c]pyran-4-carboxylic acid

> <PUBCHEM_IUPAC_SYSTEMATIC_NAME>
(1S,4aS,5R,7S,7aS)-1-[(2S,3R,4S,5S,6R)-6-(hydroxymethyl)-3,4,5-tris(oxidanyl)oxan-2-yl]oxy-7-methyl-5,7-bis(oxidanyl)-4a,5,6,7a-tetrahydro-1H-cyclopenta[c]pyran-4-carboxylic acid

> <PUBCHEM_IUPAC_TRADITIONAL_NAME>
(1S,4aS,5R,7S,7aS)-5,7-dihydroxy-7-methyl-1-[(2S,3R,4S,5S,6R)-3,4,5-trihydroxy-6-methylol-tetrahydropyran-2-yl]oxy-4a,5,6,7a-tetrahydro-1H-cyclopenta[c]pyran-4-carboxylic acid

> <PUBCHEM_IUPAC_INCHI>
InChI=1S/C16H24O11/c1-16(24)2-6(18)8-5(13(22)23)4-25-14(9(8)16)27-15-12(21)11(20)10(19)7(3-17)26-15/h4,6-12,14-15,17-21,24H,2-3H2,1H3,(H,22,23)/t6-,7-,8+,9-,10-,11+,12-,14+,15+,16+/m1/s1

> <PUBCHEM_IUPAC_INCHIKEY>
YSIFYNVXJOGADM-KDYWOABDSA-N

> <PUBCHEM_XLOGP3_AA>
-2.9

> <PUBCHEM_EXACT_MASS>
392.131862

> <PUBCHEM_MOLECULAR_FORMULA>
C16H24O11

> <PUBCHEM_MOLECULAR_WEIGHT>
392.35516

> <PUBCHEM_OPENEYE_CAN_SMILES>
CC1(CC(C2C1C(OC=C2C(=O)O)OC3C(C(C(C(O3)CO)O)O)O)O)O

> <PUBCHEM_OPENEYE_ISO_SMILES>
C[C@@]1(C[C@H]([C@H]2[C@@H]1[C@@H](OC=C2C(=O)O)O[C@H]3[C@@H]([C@H]([C@@H]([C@H](O3)CO)O)O)O)O)O

> <PUBCHEM_CACTVS_TPSA>
186

> <PUBCHEM_MONOISOTOPIC_WEIGHT>
392.131862

> <PUBCHEM_TOTAL_CHARGE>
0

> <PUBCHEM_HEAVY_ATOM_COUNT>
27

> <PUBCHEM_ATOM_DEF_STEREO_COUNT>
10

> <PUBCHEM_ATOM_UDEF_STEREO_COUNT>
0

> <PUBCHEM_BOND_DEF_STEREO_COUNT>
0

> <PUBCHEM_BOND_UDEF_STEREO_COUNT>
0

> <PUBCHEM_ISOTOPIC_ATOM_COUNT>
0

> <PUBCHEM_COMPONENT_COUNT>
1

> <PUBCHEM_CACTVS_TAUTO_COUNT>
1

> <PUBCHEM_COORDINATE_TYPE>
1
5
255

> <PUBCHEM_BONDANNOTATIONS>
13  1  5
12  28  5
14  29  5
17  2  5
21  2  6
25  27  6
15  4  5
22  6  5
23  7  6
24  8  5

$$$$

