   Color/Form

     * MONOCLINIC PRISMS FROM WATER
     * WHITE CRYSTALS FROM WATER, ALCOHOL & BENZENE
     * Colorless crystals

   from [1]HSDB

   Odor
        FAINT ACIDULOUS ODOR
   from [2]HSDB

   Taste
        CHARACTERISTIC REPULSIVE, ASTRINGENT TASTE
   from [3]HSDB

   Boiling Point
        135 DEG C (DECOMP)
   from [4]HSDB

   Melting Point
        138-139 DEG C CRYSTALS FROM WATER; 130-131 DEG C CRYSTALS FROM ALC
   & BENZENE
   from [5]HSDB

   Corrosivity
        May corrode metals when wet.
   from [6]HSDB

   Density/Specific Gravity
        1.590 @ 20 DEG C
   from [7]HSDB

   Dissociation Constants
        pKa = 1.83
   from [8]HSDB

   Heat of Combustion
        -323.89 Kg cal/g mol wt @ 25 deg C
   from [9]HSDB

   Octanol/Water Partition Coefficient
        log Kow= -0.48
   from [10]HSDB

   Solubilities

     * FREELY SOL IN ALCOHOL; SOL IN ACETONE, GLACIAL ACETIC ACID;
       SLIGHTLY SOL IN ETHER; PRACTICALLY INSOL IN BENZENE
     * INSOL IN CHLOROFORM; SOL IN CONCENTRATED SULFURIC ACID
     * 788 g/l water at 25 deg C, 3926 g/l water at 97.5 deg C
     * 79.000 lb/100 lb water at 77 deg F
     * Solubility (g/100 g) @ 25 deg C: benzene 0.024, chloroform 0.11,
       carbon tetrachloride 0.002, diethyl ether 7.57.
     * Solubility (g/100 g): acetone 38.6 (@ 20 deg C), methanol 41.0 (@
       22.5 deg C), ethanol 30.2 (@ 0 deg C) & 34.4 (@ 22.5 deg C),
       1-propanol 20.0 (@ 0 deg C) & 24.3 (@ 22.5 deg C), 2-butenenitrile
       4.38 (@ 50 deg C)
     * water solubility = 441,000 mg/l @ 25 deg C

   from [11]HSDB

   Spectral Properties

     * MAX ABSORPTION (WATER): 210 NM (LOG E= 4.14); SADTLER REFERENCE
       NUMBER: 6253 (IR PRISM)
     * IR: 15240 (Sadtler Research Laboratories IR Grating Collection)
     * UV: 6-18 (Organic Electronic Spectral Data, Phillips et al, John
       Wiley & Sons, New York)
     * NMR: 4532 (Sadtler Research Laboratories Spectral Collection)
     * MASS: 465 (National Bureau of Standards EPA-NIH Mass Spectra Data
       Base, NSRDS-NBS-63)

   from [12]HSDB

   Vapor Density
        4.0 (AIR= 1)
   from [13]HSDB

   Vapor Pressure
        3.59X10-5 mm Hg @ 25 deg C (extrapolated)
   from [14]HSDB

   Other Chemical/Physical Properties

     * CONVERTED IN PART INTO THE MUCH HIGHER-MELTING FUMARIC ACID (MP:
       287 DEG C) WHEN HEATED TO A TEMP SLIGHTLY ABOVE THE MP.
     * Heat of combustion: 1356.3 kJ/mol (crystal)
     * Heat of combustion: -2,800 cal/g = -117x10+5 J/kg

   from [15]HSDB

   Computed Properties
   Molecular Weight                  116.07216 [g/mol]
   Molecular Formula                 C[4]H[4]O[4]
   XLogP3                            -0.3
   H-Bond Donor                      2
   H-Bond Acceptor                   4
   Rotatable Bond Count              2
   Exact Mass                        116.010959
   MonoIsotopic Mass                 116.010959
   Topological Polar Surface Area    74.6
   Heavy Atom Count                  8
   Formal Charge                     0
   Complexity                        119
   Isotope Atom Count                0
   Defined Atom Stereocenter Count   0
   Undefined Atom Stereocenter Count 0
   Defined Bond Stereocenter Count   1
   Undefined Bond Stereocenter Count 0
   Covalently-Bonded Unit Count      1
   Feature 3D Acceptor Count         4
   Feature 3D Anion Count            2
   Effective Rotor Count             2
   Conformer Sampling RMSD           0.4
   CID Conformer Count               [16]5

References

   1. http://toxnet.nlm.nih.gov/cgi-bin/sis/search/r?dbs+hsdb:@term+@rn+@rel+110-16-7
   2. http://toxnet.nlm.nih.gov/cgi-bin/sis/search/r?dbs+hsdb:@term+@rn+@rel+110-16-7
   3. http://toxnet.nlm.nih.gov/cgi-bin/sis/search/r?dbs+hsdb:@term+@rn+@rel+110-16-7
   4. http://toxnet.nlm.nih.gov/cgi-bin/sis/search/r?dbs+hsdb:@term+@rn+@rel+110-16-7
   5. http://toxnet.nlm.nih.gov/cgi-bin/sis/search/r?dbs+hsdb:@term+@rn+@rel+110-16-7
   6. http://toxnet.nlm.nih.gov/cgi-bin/sis/search/r?dbs+hsdb:@term+@rn+@rel+110-16-7
   7. http://toxnet.nlm.nih.gov/cgi-bin/sis/search/r?dbs+hsdb:@term+@rn+@rel+110-16-7
   8. http://toxnet.nlm.nih.gov/cgi-bin/sis/search/r?dbs+hsdb:@term+@rn+@rel+110-16-7
   9. http://toxnet.nlm.nih.gov/cgi-bin/sis/search/r?dbs+hsdb:@term+@rn+@rel+110-16-7
  10. http://toxnet.nlm.nih.gov/cgi-bin/sis/search/r?dbs+hsdb:@term+@rn+@rel+110-16-7
  11. http://toxnet.nlm.nih.gov/cgi-bin/sis/search/r?dbs+hsdb:@term+@rn+@rel+110-16-7
  12. http://toxnet.nlm.nih.gov/cgi-bin/sis/search/r?dbs+hsdb:@term+@rn+@rel+110-16-7
  13. http://toxnet.nlm.nih.gov/cgi-bin/sis/search/r?dbs+hsdb:@term+@rn+@rel+110-16-7
  14. http://toxnet.nlm.nih.gov/cgi-bin/sis/search/r?dbs+hsdb:@term+@rn+@rel+110-16-7
  15. http://toxnet.nlm.nih.gov/cgi-bin/sis/search/r?dbs+hsdb:@term+@rn+@rel+110-16-7
  16. http://pubchem.ncbi.nlm.nih.gov/vw3d/vw3d.cgi?cid=444266
