   Color/Form
        Colorless liquid
   from [1]HSDB

   Odor
        Almond-like odor.
   from [2]HSDB

   Boiling Point
        103.9 deg C @ 760 mm Hg
   from [3]HSDB

   Melting Point
        -71.5 deg C
   from [4]HSDB

   Density/Specific Gravity
        0.7704 @ 20 deg C
   from [5]HSDB

   Heat of Combustion
        -2560.65 kJ/mol @ 25 deg C (liquid)
   from [6]HSDB

   Heat of Vaporization
        36.65 kJ/mol @ 25 deg C
   from [7]HSDB

   Octanol/Water Partition Coefficient
        log Kow = 0.46 [Tanii H, Hashimoto K; Arch Toxicol 55: 47-54
   (1984)] [8]PubMed Abstract
   from [9]HSDB

   Solubilities

     * Sol in acetone
     * Slightly soluble in water, very soluble in alcohol, ether

   from [10]HSDB

   Spectral Properties

     * Index of refraction: 1.3713 @ 25 deg C/D
     * IR: SAD 10652 (Sadtler Research Laboratories Prism Collection)
     * NMR: 408 (Varian Associates NMR Spectra Catalogue)
     * MS: NIST 19063 (NIST/EPA/MSDC Mass Spectral Database 1990 version);
       ALDN 10 (Aldermaston, Eight Peak Index of Mass Spectra, UK)

   from [11]HSDB

   Surface Tension
        0.02493 N/m @ 20 deg C; 0.02384 N/m @ 30 deg C
   from [12]HSDB

   Vapor Density
        2.38 (AIR= 1)
   from [13]HSDB

   Vapor Pressure
        32.7 mm Hg @ 25 deg C
   from [14]HSDB

   Viscosity
        0.551 cP @ 15 deg C; 0.456 cP @ 30 deg
   from [15]HSDB

   Other Chemical/Physical Properties
        Specific gravity: 0.773 @ 20 deg C/20 deg C
   from [16]HSDB

   Computed Properties
   Molecular Weight                  69.10508 [g/mol]
   Molecular Formula                 C[4]H[7]N
   XLogP3                            0.5
   H-Bond Donor                      0
   H-Bond Acceptor                   1
   Rotatable Bond Count              0
   Exact Mass                        69.057849
   MonoIsotopic Mass                 69.057849
   Topological Polar Surface Area    23.8
   Heavy Atom Count                  5
   Formal Charge                     0
   Complexity                        55.3
   Isotope Atom Count                0
   Defined Atom Stereocenter Count   0
   Undefined Atom Stereocenter Count 0
   Defined Bond Stereocenter Count   0
   Undefined Bond Stereocenter Count 0
   Covalently-Bonded Unit Count      1
   Feature 3D Acceptor Count         1
   Feature 3D Hydrophobe Count       1
   Effective Rotor Count             0
   Conformer Sampling RMSD           0.4
   CID Conformer Count               [17]1

References

   1. http://toxnet.nlm.nih.gov/cgi-bin/sis/search/r?dbs+hsdb:@term+@rn+@rel+78-82-0
   2. http://toxnet.nlm.nih.gov/cgi-bin/sis/search/r?dbs+hsdb:@term+@rn+@rel+78-82-0
   3. http://toxnet.nlm.nih.gov/cgi-bin/sis/search/r?dbs+hsdb:@term+@rn+@rel+78-82-0
   4. http://toxnet.nlm.nih.gov/cgi-bin/sis/search/r?dbs+hsdb:@term+@rn+@rel+78-82-0
   5. http://toxnet.nlm.nih.gov/cgi-bin/sis/search/r?dbs+hsdb:@term+@rn+@rel+78-82-0
   6. http://toxnet.nlm.nih.gov/cgi-bin/sis/search/r?dbs+hsdb:@term+@rn+@rel+78-82-0
   7. http://toxnet.nlm.nih.gov/cgi-bin/sis/search/r?dbs+hsdb:@term+@rn+@rel+78-82-0
   8. http://www.ncbi.nlm.nih.gov/entrez/query.fcgi?cmd=Retrieve&db=pubmed&dopt=Abstract&list_uids=6732504
   9. http://toxnet.nlm.nih.gov/cgi-bin/sis/search/r?dbs+hsdb:@term+@rn+@rel+78-82-0
  10. http://toxnet.nlm.nih.gov/cgi-bin/sis/search/r?dbs+hsdb:@term+@rn+@rel+78-82-0
  11. http://toxnet.nlm.nih.gov/cgi-bin/sis/search/r?dbs+hsdb:@term+@rn+@rel+78-82-0
  12. http://toxnet.nlm.nih.gov/cgi-bin/sis/search/r?dbs+hsdb:@term+@rn+@rel+78-82-0
  13. http://toxnet.nlm.nih.gov/cgi-bin/sis/search/r?dbs+hsdb:@term+@rn+@rel+78-82-0
  14. http://toxnet.nlm.nih.gov/cgi-bin/sis/search/r?dbs+hsdb:@term+@rn+@rel+78-82-0
  15. http://toxnet.nlm.nih.gov/cgi-bin/sis/search/r?dbs+hsdb:@term+@rn+@rel+78-82-0
  16. http://toxnet.nlm.nih.gov/cgi-bin/sis/search/r?dbs+hsdb:@term+@rn+@rel+78-82-0
  17. http://pubchem.ncbi.nlm.nih.gov/vw3d/vw3d.cgi?cid=6559
