247743
  -OEChem-07051213072D

 59 64  0     1  0  0  0  0  0999 V2000
   11.4302    2.8651    0.0000 O   0  0  0  0  0  0  0  0  0  0  0  0
    4.3252   -0.8232    0.0000 N   0  0  0  0  0  0  0  0  0  0  0  0
    7.8224    0.7207    0.0000 C   0  0  1  0  0  0  0  0  0  0  0  0
    7.8224   -0.2793    0.0000 C   0  0  2  0  0  0  0  0  0  0  0  0
    6.9563   -0.7793    0.0000 C   0  0  1  0  0  0  0  0  0  0  0  0
    6.0903   -0.2793    0.0000 C   0  0  2  0  0  0  0  0  0  0  0  0
    8.7163    1.2554    0.0000 C   0  0  2  0  0  0  0  0  0  0  0  0
    6.9563    1.2207    0.0000 C   0  0  0  0  0  0  0  0  0  0  0  0
    6.0903    0.7207    0.0000 C   0  0  0  0  0  0  0  0  0  0  0  0
    8.7163   -0.8140    0.0000 C   0  0  0  0  0  0  0  0  0  0  0  0
    6.7471   -1.7511    0.0000 C   0  0  0  0  0  0  0  0  0  0  0  0
    9.6224    0.7415    0.0000 C   0  0  0  0  0  0  0  0  0  0  0  0
    8.6912    2.3401    0.0000 C   0  0  0  0  0  0  0  0  0  0  0  0
    5.3533   -0.9464    0.0000 C   0  0  0  0  0  0  0  0  0  0  0  0
    5.7584   -1.8542    0.0000 C   0  0  0  0  0  0  0  0  0  0  0  0
    9.6224   -0.3001    0.0000 C   0  0  0  0  0  0  0  0  0  0  0  0
    5.2243    0.2207    0.0000 C   0  0  0  0  0  0  0  0  0  0  0  0
    7.8464    1.7487    0.0000 C   0  0  0  0  0  0  0  0  0  0  0  0
   10.5662    1.2768    0.0000 C   0  0  0  0  0  0  0  0  0  0  0  0
    9.6224    2.8970    0.0000 C   0  0  0  0  0  0  0  0  0  0  0  0
   10.5662    2.3617    0.0000 C   0  0  2  0  0  0  0  0  0  0  0  0
    5.1635   -2.7017    0.0000 C   0  0  0  0  0  0  0  0  0  0  0  0
    4.1328   -2.6023    0.0000 C   0  0  0  0  0  0  0  0  0  0  0  0
    3.7108   -1.6567    0.0000 C   0  0  0  0  0  0  0  0  0  0  0  0
    3.5131   -3.4851    0.0000 C   0  0  0  0  0  0  0  0  0  0  0  0
    2.6399   -1.5284    0.0000 C   0  0  0  0  0  0  0  0  0  0  0  0
    2.4396   -3.3815    0.0000 C   0  0  0  0  0  0  0  0  0  0  0  0
    2.0000   -2.3966    0.0000 C   0  0  0  0  0  0  0  0  0  0  0  0
    7.8158    1.5707    0.0000 H   0  0  0  0  0  0  0  0  0  0  0  0
    7.8158   -1.1293    0.0000 H   0  0  0  0  0  0  0  0  0  0  0  0
    7.6434   -1.2798    0.0000 H   0  0  0  0  0  0  0  0  0  0  0  0
    7.3549    1.6956    0.0000 H   0  0  0  0  0  0  0  0  0  0  0  0
    6.5578    1.6956    0.0000 H   0  0  0  0  0  0  0  0  0  0  0  0
    5.8783    1.3033    0.0000 H   0  0  0  0  0  0  0  0  0  0  0  0
    5.4797    0.6130    0.0000 H   0  0  0  0  0  0  0  0  0  0  0  0
    8.3117   -1.2838    0.0000 H   0  0  0  0  0  0  0  0  0  0  0  0
    9.1099   -1.2930    0.0000 H   0  0  0  0  0  0  0  0  0  0  0  0
    6.7462   -2.3711    0.0000 H   0  0  0  0  0  0  0  0  0  0  0  0
    7.3636   -1.8172    0.0000 H   0  0  0  0  0  0  0  0  0  0  0  0
    8.4687    2.9188    0.0000 H   0  0  0  0  0  0  0  0  0  0  0  0
    8.0830    2.2199    0.0000 H   0  0  0  0  0  0  0  0  0  0  0  0
   10.1581   -0.6122    0.0000 H   0  0  0  0  0  0  0  0  0  0  0  0
    5.5343    0.7576    0.0000 H   0  0  0  0  0  0  0  0  0  0  0  0
    4.6873    0.5307    0.0000 H   0  0  0  0  0  0  0  0  0  0  0  0
    4.9143   -0.3162    0.0000 H   0  0  0  0  0  0  0  0  0  0  0  0
    8.1523    2.2880    0.0000 H   0  0  0  0  0  0  0  0  0  0  0  0
    7.3071    2.0545    0.0000 H   0  0  0  0  0  0  0  0  0  0  0  0
    7.5406    1.2094    0.0000 H   0  0  0  0  0  0  0  0  0  0  0  0
   10.7752    0.6931    0.0000 H   0  0  0  0  0  0  0  0  0  0  0  0
   11.1770    1.3828    0.0000 H   0  0  0  0  0  0  0  0  0  0  0  0
   10.0160    3.3760    0.0000 H   0  0  0  0  0  0  0  0  0  0  0  0
    9.2178    3.3668    0.0000 H   0  0  0  0  0  0  0  0  0  0  0  0
   11.1037    2.0528    0.0000 H   0  0  0  0  0  0  0  0  0  0  0  0
    5.4227   -3.2649    0.0000 H   0  0  0  0  0  0  0  0  0  0  0  0
   11.4279    3.4851    0.0000 H   0  0  0  0  0  0  0  0  0  0  0  0
    3.7723   -4.0483    0.0000 H   0  0  0  0  0  0  0  0  0  0  0  0
    2.3938   -0.9593    0.0000 H   0  0  0  0  0  0  0  0  0  0  0  0
    2.0775   -3.8848    0.0000 H   0  0  0  0  0  0  0  0  0  0  0  0
    1.3836   -2.3299    0.0000 H   0  0  0  0  0  0  0  0  0  0  0  0
 21  1  1  6  0  0  0
  1 55  1  0  0  0  0
  2 14  2  0  0  0  0
  2 24  1  0  0  0  0
  3  4  1  0  0  0  0
  3  7  1  0  0  0  0
  3  8  1  0  0  0  0
  3 29  1  1  0  0  0
  4  5  1  0  0  0  0
  4 10  1  0  0  0  0
  4 30  1  6  0  0  0
  5  6  1  0  0  0  0
  5 11  1  0  0  0  0
  5 31  1  1  0  0  0
  6  9  1  0  0  0  0
  6 14  1  0  0  0  0
  6 17  1  6  0  0  0
  7 12  1  0  0  0  0
  7 13  1  0  0  0  0
  7 18  1  6  0  0  0
  8  9  1  0  0  0  0
  8 32  1  0  0  0  0
  8 33  1  0  0  0  0
  9 34  1  0  0  0  0
  9 35  1  0  0  0  0
 10 16  1  0  0  0  0
 10 36  1  0  0  0  0
 10 37  1  0  0  0  0
 11 15  1  0  0  0  0
 11 38  1  0  0  0  0
 11 39  1  0  0  0  0
 12 16  2  0  0  0  0
 12 19  1  0  0  0  0
 13 20  1  0  0  0  0
 13 40  1  0  0  0  0
 13 41  1  0  0  0  0
 14 15  1  0  0  0  0
 15 22  2  0  0  0  0
 16 42  1  0  0  0  0
 17 43  1  0  0  0  0
 17 44  1  0  0  0  0
 17 45  1  0  0  0  0
 18 46  1  0  0  0  0
 18 47  1  0  0  0  0
 18 48  1  0  0  0  0
 19 21  1  0  0  0  0
 19 49  1  0  0  0  0
 19 50  1  0  0  0  0
 20 21  1  0  0  0  0
 20 51  1  0  0  0  0
 20 52  1  0  0  0  0
 21 53  1  0  0  0  0
 22 23  1  0  0  0  0
 22 54  1  0  0  0  0
 23 24  1  0  0  0  0
 23 25  2  0  0  0  0
 24 26  2  0  0  0  0
 25 27  1  0  0  0  0
 25 56  1  0  0  0  0
 26 28  1  0  0  0  0
 26 57  1  0  0  0  0
 27 28  2  0  0  0  0
 27 58  1  0  0  0  0
 28 59  1  0  0  0  0
M  END
> <PUBCHEM_COMPOUND_CID>
247743

> <PUBCHEM_COMPOUND_CANONICALIZED>
1

> <PUBCHEM_CACTVS_COMPLEXITY>
671

> <PUBCHEM_CACTVS_HBOND_ACCEPTOR>
2

> <PUBCHEM_CACTVS_HBOND_DONOR>
1

> <PUBCHEM_CACTVS_ROTATABLE_BOND>
0

> <PUBCHEM_CACTVS_SUBSKEYS>
AAADceB6IAAAAAAAAAAAAAAAAAAAAYAAAAA8YMECAAAAAHix8AAAHgAACAAADxyhngIywPIIEgCgAyRiRACCgCAhAiAImCAwZJgIMOLAkZGEYAhkwADIyAeQwPAPgAAAAAACAADAAAQAACQAASAACQAAAA==

> <PUBCHEM_IUPAC_INCHI>
InChI=1S/C26H31NO/c1-25-11-9-19(28)15-18(25)7-8-20-21(25)10-12-26(2)22(20)14-17-13-16-5-3-4-6-23(16)27-24(17)26/h3-7,13,19-22,28H,8-12,14-15H2,1-2H3/t19-,20+,21-,22-,25-,26-/m0/s1

> <PUBCHEM_IUPAC_INCHIKEY>
FBJRIAWDMVBAAE-RACKXPAOSA-N

> <PUBCHEM_XLOGP3_AA>
5.5

> <PUBCHEM_EXACT_MASS>
373.240565

> <PUBCHEM_MOLECULAR_FORMULA>
C26H31NO

> <PUBCHEM_MOLECULAR_WEIGHT>
373.53044

> <PUBCHEM_OPENEYE_CAN_SMILES>
CC12CCC(CC1=CCC3C2CCC4(C3CC5=CC6=CC=CC=C6N=C54)C)O

> <PUBCHEM_OPENEYE_ISO_SMILES>
C[C@]12CC[C@@H](CC1=CC[C@@H]3[C@@H]2CC[C@]4([C@H]3CC5=CC6=CC=CC=C6N=C54)C)O

> <PUBCHEM_CACTVS_TPSA>
33.1

> <PUBCHEM_MONOISOTOPIC_WEIGHT>
373.240565

> <PUBCHEM_TOTAL_CHARGE>
0

> <PUBCHEM_HEAVY_ATOM_COUNT>
28

> <PUBCHEM_ATOM_DEF_STEREO_COUNT>
6

> <PUBCHEM_ATOM_UDEF_STEREO_COUNT>
0

> <PUBCHEM_BOND_DEF_STEREO_COUNT>
0

> <PUBCHEM_BOND_UDEF_STEREO_COUNT>
0

> <PUBCHEM_ISOTOPIC_ATOM_COUNT>
0

> <PUBCHEM_COMPONENT_COUNT>
1

> <PUBCHEM_CACTVS_TAUTO_COUNT>
1

> <PUBCHEM_COORDINATE_TYPE>
1
5
255

> <PUBCHEM_BONDANNOTATIONS>
21  1  6
14  15  8
15  22  8
2  14  8
2  24  8
22  23  8
23  24  8
23  25  8
24  26  8
25  27  8
26  28  8
27  28  8
3  29  5
4  30  6
5  31  5
6  17  6
7  18  6

$$$$

