   Color/Form
        PLATES FROM GLACIAL ACETIC ACID OR ALCOHOL
   from [1]HSDB

   Boiling Point
        437.6 deg C
   from [2]HSDB

   Melting Point
        160 DEG C
   from [3]HSDB

   Octanol/Water Partition Coefficient
        Log Kow= 5.79
   from [4]HSDB

   Solubilities

     * 9.4X10-3 mg/l in water at 25 deg C
     * SOL IN ETHER, ALCOHOL, ACETONE, BENZENE
     * SOL IN MOST ORG SOLVENTS; INSOLUBLE IN WATER; DIFFICULTY
       SOLUBILIZING IN BOILING ALCOHOL
     * SLIGHTLY SOL IN ACETIC ACID

   from [5]HSDB

   Spectral Properties

     * MAX ABSORPTION (BENZENE): 281 NM (LOG E= 4.85), 292 NM (LOG E=
       4.98), 301 NM (LOG E= 4.04), 317 NM (LOG E= 3.64); 344 NM (LOG E=
       3.84), 376 NM (LOG E= 2.80), 386 NM (LOG E= 2.96), 331 NM (LOG E=
       3.79)
     * SADTLER REF NUMBER: 1124 (IR, PRISM)
     * Intense mass spectral peaks: 228 m/z (100%), 229 m/z (20%), 226 m/z
       (20%), 43 m/z (18%)
     * IR: 15114 (Sadtler Research Laboratories IR Grating Collection)
     * UV: 335 (Sadtler Research Laboratories Spectral Collection)
     * NMR: 6018 (Sadtler Research Laboratories Spectral Collection)
     * MASS: 1620 (Atlas of Mass Spectral Data, John Wiley & Sons, New
       York)

   from [6]HSDB

   Vapor Pressure
        5X10-9 torr at 20 deg C
   from [7]HSDB

   Relative Evaporation Rate
        Evaporative half-life of benzo(a)anthracene in a rapidly-stirred
   aqueous solution is 89 hours.
   from [8]HSDB

   Other Chemical/Physical Properties
        GREENISH-YELLOW FLUORESCENCE
   from [9]HSDB

   Computed Properties
   Molecular Weight                  228.28788 [g/mol]
   Molecular Formula                 C[18]H[12]
   XLogP3                            5.8
   H-Bond Donor                      0
   H-Bond Acceptor                   0
   Rotatable Bond Count              0
   Exact Mass                        228.0939
   MonoIsotopic Mass                 228.0939
   Topological Polar Surface Area    0
   Heavy Atom Count                  18
   Formal Charge                     0
   Complexity                        294
   Isotope Atom Count                0
   Defined Atom Stereocenter Count   0
   Undefined Atom Stereocenter Count 0
   Defined Bond Stereocenter Count   0
   Undefined Bond Stereocenter Count 0
   Covalently-Bonded Unit Count      1
   Feature 3D Ring Count             4
   Effective Rotor Count             0
   Conformer Sampling RMSD           0.4
   CID Conformer Count               [10]1

References

   1. http://toxnet.nlm.nih.gov/cgi-bin/sis/search/r?dbs+hsdb:@term+@rn+@rel+56-55-3
   2. http://toxnet.nlm.nih.gov/cgi-bin/sis/search/r?dbs+hsdb:@term+@rn+@rel+56-55-3
   3. http://toxnet.nlm.nih.gov/cgi-bin/sis/search/r?dbs+hsdb:@term+@rn+@rel+56-55-3
   4. http://toxnet.nlm.nih.gov/cgi-bin/sis/search/r?dbs+hsdb:@term+@rn+@rel+56-55-3
   5. http://toxnet.nlm.nih.gov/cgi-bin/sis/search/r?dbs+hsdb:@term+@rn+@rel+56-55-3
   6. http://toxnet.nlm.nih.gov/cgi-bin/sis/search/r?dbs+hsdb:@term+@rn+@rel+56-55-3
   7. http://toxnet.nlm.nih.gov/cgi-bin/sis/search/r?dbs+hsdb:@term+@rn+@rel+56-55-3
   8. http://toxnet.nlm.nih.gov/cgi-bin/sis/search/r?dbs+hsdb:@term+@rn+@rel+56-55-3
   9. http://toxnet.nlm.nih.gov/cgi-bin/sis/search/r?dbs+hsdb:@term+@rn+@rel+56-55-3
  10. http://pubchem.ncbi.nlm.nih.gov/vw3d/vw3d.cgi?cid=5954
