77514
  -OEChem-07051212572D

 34 38  0     0  0  0  0  0  0999 V2000
    6.4642    0.0436    0.0000 O   0  0  0  0  0  0  0  0  0  0  0  0
    6.4642    1.6531    0.0000 O   0  0  0  0  0  0  0  0  0  0  0  0
    4.6520    2.8484    0.0000 O   0  0  0  0  0  0  0  0  0  0  0  0
    2.0000   -1.6967    0.0000 O   0  0  0  0  0  0  0  0  0  0  0  0
    2.0367    0.3697    0.0000 N   0  0  0  0  0  0  0  0  0  0  0  0
    4.6520   -0.1516    0.0000 C   0  0  0  0  0  0  0  0  0  0  0  0
    3.7860    0.3484    0.0000 C   0  0  0  0  0  0  0  0  0  0  0  0
    5.5180    0.3484    0.0000 C   0  0  0  0  0  0  0  0  0  0  0  0
    3.7860    1.3484    0.0000 C   0  0  0  0  0  0  0  0  0  0  0  0
    4.6681   -1.1932    0.0000 C   0  0  0  0  0  0  0  0  0  0  0  0
    2.8760   -0.1585    0.0000 C   0  0  0  0  0  0  0  0  0  0  0  0
    5.5180    1.3484    0.0000 C   0  0  0  0  0  0  0  0  0  0  0  0
    4.6520    1.8484    0.0000 C   0  0  0  0  0  0  0  0  0  0  0  0
    3.7700   -1.7209    0.0000 C   0  0  0  0  0  0  0  0  0  0  0  0
    2.8680   -1.2001    0.0000 C   0  0  0  0  0  0  0  0  0  0  0  0
    2.9278    1.8453    0.0000 C   0  0  0  0  0  0  0  0  0  0  0  0
    5.6200   -1.7138    0.0000 C   0  0  0  0  0  0  0  0  0  0  0  0
    7.0479    0.8484    0.0000 C   0  0  0  0  0  0  0  0  0  0  0  0
    3.7617   -2.8059    0.0000 C   0  0  0  0  0  0  0  0  0  0  0  0
    2.0623    1.3611    0.0000 C   0  0  0  0  0  0  0  0  0  0  0  0
    5.6367   -2.7986    0.0000 C   0  0  0  0  0  0  0  0  0  0  0  0
    4.7013   -3.3484    0.0000 C   0  0  0  0  0  0  0  0  0  0  0  0
    5.5180    3.3484    0.0000 C   0  0  0  0  0  0  0  0  0  0  0  0
    2.9324    2.4653    0.0000 H   0  0  0  0  0  0  0  0  0  0  0  0
    6.1508   -1.3935    0.0000 H   0  0  0  0  0  0  0  0  0  0  0  0
    7.5087    0.4336    0.0000 H   0  0  0  0  0  0  0  0  0  0  0  0
    7.5087    1.2631    0.0000 H   0  0  0  0  0  0  0  0  0  0  0  0
    3.2235   -3.1138    0.0000 H   0  0  0  0  0  0  0  0  0  0  0  0
    1.5316    1.6816    0.0000 H   0  0  0  0  0  0  0  0  0  0  0  0
    6.1772   -3.1024    0.0000 H   0  0  0  0  0  0  0  0  0  0  0  0
    4.7037   -3.9684    0.0000 H   0  0  0  0  0  0  0  0  0  0  0  0
    5.8280    2.8114    0.0000 H   0  0  0  0  0  0  0  0  0  0  0  0
    6.0550    3.6584    0.0000 H   0  0  0  0  0  0  0  0  0  0  0  0
    5.2080    3.8853    0.0000 H   0  0  0  0  0  0  0  0  0  0  0  0
  1  8  1  0  0  0  0
  1 18  1  0  0  0  0
  2 12  1  0  0  0  0
  2 18  1  0  0  0  0
  3 13  1  0  0  0  0
  3 23  1  0  0  0  0
  4 15  2  0  0  0  0
  5 11  2  0  0  0  0
  5 20  1  0  0  0  0
  6  7  1  0  0  0  0
  6  8  2  0  0  0  0
  6 10  1  0  0  0  0
  7  9  2  0  0  0  0
  7 11  1  0  0  0  0
  8 12  1  0  0  0  0
  9 13  1  0  0  0  0
  9 16  1  0  0  0  0
 10 14  1  0  0  0  0
 10 17  2  0  0  0  0
 11 15  1  0  0  0  0
 12 13  2  0  0  0  0
 14 15  1  0  0  0  0
 14 19  2  0  0  0  0
 16 20  2  0  0  0  0
 16 24  1  0  0  0  0
 17 21  1  0  0  0  0
 17 25  1  0  0  0  0
 18 26  1  0  0  0  0
 18 27  1  0  0  0  0
 19 22  1  0  0  0  0
 19 28  1  0  0  0  0
 20 29  1  0  0  0  0
 21 22  2  0  0  0  0
 21 30  1  0  0  0  0
 22 31  1  0  0  0  0
 23 32  1  0  0  0  0
 23 33  1  0  0  0  0
 23 34  1  0  0  0  0
M  END
> <PUBCHEM_COMPOUND_CID>
77514

> <PUBCHEM_COMPOUND_CANONICALIZED>
1

> <PUBCHEM_CACTVS_COMPLEXITY>
497

> <PUBCHEM_CACTVS_HBOND_ACCEPTOR>
5

> <PUBCHEM_CACTVS_HBOND_DONOR>
0

> <PUBCHEM_CACTVS_ROTATABLE_BOND>
1

> <PUBCHEM_CACTVS_SUBSKEYS>
AAADccB6OAAAAAAAAAAAAAAAAAAAASAAAAA8YMEAAAAAAEjx9AAAHgAAAAAADAzBngc+jtIIFACoA7R3RACCiCA3IiAI2CG87NgdJ3LEtbukMSplwBXO6Ye4/P/OoAADCAAYQADQAAaQADSAAAAAAAAAAA==

> <PUBCHEM_IUPAC_INCHI>
InChI=1S/C18H11NO4/c1-21-16-11-6-7-19-14-12(11)13(17-18(16)23-8-22-17)9-4-2-3-5-10(9)15(14)20/h2-7H,8H2,1H3

> <PUBCHEM_IUPAC_INCHIKEY>
MDFFNDBAEOHIDY-UHFFFAOYSA-N

> <PUBCHEM_XLOGP3_AA>
3.4

> <PUBCHEM_EXACT_MASS>
305.068808

> <PUBCHEM_MOLECULAR_FORMULA>
C18H11NO4

> <PUBCHEM_MOLECULAR_WEIGHT>
305.28424

> <PUBCHEM_OPENEYE_CAN_SMILES>
COC1=C2C(=C3C4=CC=CC=C4C(=O)C5=NC=CC1=C35)OCO2

> <PUBCHEM_OPENEYE_ISO_SMILES>
COC1=C2C(=C3C4=CC=CC=C4C(=O)C5=NC=CC1=C35)OCO2

> <PUBCHEM_CACTVS_TPSA>
57.6

> <PUBCHEM_MONOISOTOPIC_WEIGHT>
305.068808

> <PUBCHEM_TOTAL_CHARGE>
0

> <PUBCHEM_HEAVY_ATOM_COUNT>
23

> <PUBCHEM_ATOM_DEF_STEREO_COUNT>
0

> <PUBCHEM_ATOM_UDEF_STEREO_COUNT>
0

> <PUBCHEM_BOND_DEF_STEREO_COUNT>
0

> <PUBCHEM_BOND_UDEF_STEREO_COUNT>
0

> <PUBCHEM_ISOTOPIC_ATOM_COUNT>
0

> <PUBCHEM_COMPONENT_COUNT>
1

> <PUBCHEM_CACTVS_TAUTO_COUNT>
1

> <PUBCHEM_COORDINATE_TYPE>
1
5
255

> <PUBCHEM_BONDANNOTATIONS>
10  14  8
10  17  8
12  13  8
14  19  8
16  20  8
17  21  8
19  22  8
21  22  8
5  11  8
5  20  8
6  7  8
6  8  8
7  11  8
7  9  8
8  12  8
9  13  8
9  16  8

$$$$

