   Color/Form

     * COLORLESS TO RED CRYSTALS
     * Dark-green crystalline powder

   from [1]HSDB

   Melting Point
        268-270 deg C (decomposes)
   from [2]HSDB

   Octanol/Water Partition Coefficient
        log Kow = -0.21 [Tsai RS et al; J Chromatogr 538: 119-23 (1991)]
   [3]PubMed Abstract
   from [4]HSDB

   Solubilities

     * SOL IN ALCOHOL; VERY SLIGHTLY SOL IN WATER & ETHER
     * Soluble in water (2-3 mg/ml), ethanol (2-25 mg/ml) ethylene glycol
       methyl ether (50-70 mg/ml) and methanol

   from [5]HSDB

   Spectral Properties

     * IR: 3761 (Coblentz Society Spectral Collection)
     * UV: 21403 (Sadtler Research Laboratories Spectral Collection)
     * NMR: 17293 (Sadtler Research Laboratories Spectral Collection)

   from [6]HSDB

   Other Chemical/Physical Properties

     * CATIONIC
     * Destroyed by strong oxidizing agents; readily reduced to
       leuco-bases with a variety of reducing reagents sensitive to
       photochemical oxidation

   from [7]HSDB

   Computed Properties
   Molecular Weight                  323.81932 [g/mol]
   Molecular Formula                 C[19]H[18]ClN[3]
   H-Bond Donor                      4
   H-Bond Acceptor                   3
   Rotatable Bond Count              2
   Tautomer Count                    3
   Exact Mass                        323.118925
   MonoIsotopic Mass                 323.118925
   Topological Polar Surface Area    75.9
   Heavy Atom Count                  23
   Formal Charge                     0
   Complexity                        457
   Isotope Atom Count                0
   Defined Atom Stereocenter Count   0
   Undefined Atom Stereocenter Count 0
   Defined Bond Stereocenter Count   0
   Undefined Bond Stereocenter Count 0
   Covalently-Bonded Unit Count      2

References

   1. http://toxnet.nlm.nih.gov/cgi-bin/sis/search/r?dbs+hsdb:@term+@rn+@rel+569-61-9
   2. http://toxnet.nlm.nih.gov/cgi-bin/sis/search/r?dbs+hsdb:@term+@rn+@rel+569-61-9
   3. http://www.ncbi.nlm.nih.gov/entrez/query.fcgi?cmd=Retrieve&db=pubmed&dopt=Abstract&list_uids=2050785
   4. http://toxnet.nlm.nih.gov/cgi-bin/sis/search/r?dbs+hsdb:@term+@rn+@rel+569-61-9
   5. http://toxnet.nlm.nih.gov/cgi-bin/sis/search/r?dbs+hsdb:@term+@rn+@rel+569-61-9
   6. http://toxnet.nlm.nih.gov/cgi-bin/sis/search/r?dbs+hsdb:@term+@rn+@rel+569-61-9
   7. http://toxnet.nlm.nih.gov/cgi-bin/sis/search/r?dbs+hsdb:@term+@rn+@rel+569-61-9
