   Color/Form

     * Crystals from alcohol
     * NEARLY COLORLESS, CRYSTALLINE POWDER; EXISTS IN 2 FORMS: NEEDLES &
       PRISMS
     * White or almost white solid crystals

   from [1]HSDB

   Odor
        ODORLESS
   from [2]HSDB

   Melting Point
        229.8-242.0 deg C
   from [3]HSDB

   Octanol/Water Partition Coefficient
        log Kow = 4.4 (est)
   from [4]HSDB

   Solubilities
        INSOL IN WATER, SOL IN DIMETHYLFORMAMIDE; SPARINGLY SOL IN ALC AND
   CHLOROFORM; SLIGHTLY SOL IN ETHYL ACETATE AND ACETONE; VERY SLIGHTLY
   SOL IN BENZENE
   from [5]HSDB

   Spectral Properties

     * Specific optical rotation: +35.7 deg/D (chloroform); +48.6 deg/D
       (methanol);
     * UV max absorption: 223 nm (log epsilon= 4740)

   from [6]HSDB

   Vapor Pressure
        3.3X10-9 mm Hg at 25 deg C (est)
   from [7]HSDB

   Other Chemical/Physical Properties

     * There are 2 forms of the solid. The needles melt at about 155 deg C
       and the prisms melt at 235 deg C.
     * Henry's Law constant = 1.1X10-8 atm cu m/mole at 25 deg C (est)
     * Hydroxy radical reaction rate constant = 1.1X10-10 cu cm/molec-sec
       at 25 deg C (est)

   from [8]HSDB

   Computed Properties
   Molecular Weight                  328.49158 [g/mol]
   Molecular Formula                 C[21]H[32]N[2]O
   XLogP3-AA                         4.5
   H-Bond Donor                      2
   H-Bond Acceptor                   2
   Rotatable Bond Count              0
   Tautomer Count                    2
   Exact Mass                        328.251464
   MonoIsotopic Mass                 328.251464
   Topological Polar Surface Area    48.9
   Heavy Atom Count                  24
   Formal Charge                     0
   Complexity                        538
   Isotope Atom Count                0
   Defined Atom Stereocenter Count   7
   Undefined Atom Stereocenter Count 0
   Defined Bond Stereocenter Count   0
   Undefined Bond Stereocenter Count 0
   Covalently-Bonded Unit Count      1
   Feature 3D Acceptor Count         2
   Feature 3D Donor Count            2
   Feature 3D Ring Count             5
   Effective Rotor Count             1.8
   Conformer Sampling RMSD           0.6
   CID Conformer Count               [9]1

References

   1. http://toxnet.nlm.nih.gov/cgi-bin/sis/search/r?dbs+hsdb:@term+@rn+@rel+10418-03-8
   2. http://toxnet.nlm.nih.gov/cgi-bin/sis/search/r?dbs+hsdb:@term+@rn+@rel+10418-03-8
   3. http://toxnet.nlm.nih.gov/cgi-bin/sis/search/r?dbs+hsdb:@term+@rn+@rel+10418-03-8
   4. http://toxnet.nlm.nih.gov/cgi-bin/sis/search/r?dbs+hsdb:@term+@rn+@rel+10418-03-8
   5. http://toxnet.nlm.nih.gov/cgi-bin/sis/search/r?dbs+hsdb:@term+@rn+@rel+10418-03-8
   6. http://toxnet.nlm.nih.gov/cgi-bin/sis/search/r?dbs+hsdb:@term+@rn+@rel+10418-03-8
   7. http://toxnet.nlm.nih.gov/cgi-bin/sis/search/r?dbs+hsdb:@term+@rn+@rel+10418-03-8
   8. http://toxnet.nlm.nih.gov/cgi-bin/sis/search/r?dbs+hsdb:@term+@rn+@rel+10418-03-8
   9. http://pubchem.ncbi.nlm.nih.gov/vw3d/vw3d.cgi?cid=25249
