   Color/Form
        Almost black needles with dark-green luster
   from [1]HSDB

   Melting Point
        140 deg C
   from [2]HSDB

   Octanol/Water Partition Coefficient
        log Kow = 0.53 [Bronaugh RL, Congdon ER; J Invest Dermatol 83:
   124-7 (1984)] [3]PubMed Abstract
   from [4]HSDB

   Solubilities

     * Slightly sol in water (0.18% w/w); ethanol, polar organic compounds
       and benzene; soluble in acetone and diethyl ether
     * In water, 2.49X10+4 mg/L at 25 deg C (est)

   from [5]HSDB

   Spectral Properties

     * IR: 3:827A (Aldrich Library of Infrared Spectra, Aldrich Chemical
       Co, Milwaukee, WI)
     * MASS: 70823 (NIST/EPA/MSDC Mass Spectral Database, 1990 version);
       147 (Aldermaston, Eight Peak Index of Mass SPectra, U.K.)

   from [6]HSDB

   Vapor Pressure
        5.60X10-5 mm Hg at 25 deg C (est)
   from [7]HSDB

   Other Chemical/Physical Properties

     * Henry's Law constant = 5.81X10-11 atm-cu m/mol at 25 deg C (est)
     * Hydroxyl radical reaction rate constant = 2.20X10-11 cu
       cm/molec-sec at 25 deg C (est)

   from [8]HSDB

   Computed Properties
   Molecular Weight                  153.13868 [g/mol]
   Molecular Formula                 C[6]H[7]N[3]O[2]
   XLogP3                            0.5
   H-Bond Donor                      2
   H-Bond Acceptor                   4
   Rotatable Bond Count              0
   Exact Mass                        153.053826
   MonoIsotopic Mass                 153.053826
   Topological Polar Surface Area    97.9
   Heavy Atom Count                  11
   Formal Charge                     0
   Complexity                        156
   Isotope Atom Count                0
   Defined Atom Stereocenter Count   0
   Undefined Atom Stereocenter Count 0
   Defined Bond Stereocenter Count   0
   Undefined Bond Stereocenter Count 0
   Covalently-Bonded Unit Count      1
   Feature 3D Acceptor Count         2
   Feature 3D Donor Count            2
   Feature 3D Anion Count            1
   Feature 3D Cation Count           2
   Feature 3D Ring Count             1
   Effective Rotor Count             1
   Conformer Sampling RMSD           0.4
   CID Conformer Count               [9]1

References

   1. http://toxnet.nlm.nih.gov/cgi-bin/sis/search/r?dbs+hsdb:@term+@rn+@rel+5307-14-2
   2. http://toxnet.nlm.nih.gov/cgi-bin/sis/search/r?dbs+hsdb:@term+@rn+@rel+5307-14-2
   3. http://www.ncbi.nlm.nih.gov/entrez/query.fcgi?cmd=Retrieve&db=pubmed&dopt=Abstract&list_uids=6470515
   4. http://toxnet.nlm.nih.gov/cgi-bin/sis/search/r?dbs+hsdb:@term+@rn+@rel+5307-14-2
   5. http://toxnet.nlm.nih.gov/cgi-bin/sis/search/r?dbs+hsdb:@term+@rn+@rel+5307-14-2
   6. http://toxnet.nlm.nih.gov/cgi-bin/sis/search/r?dbs+hsdb:@term+@rn+@rel+5307-14-2
   7. http://toxnet.nlm.nih.gov/cgi-bin/sis/search/r?dbs+hsdb:@term+@rn+@rel+5307-14-2
   8. http://toxnet.nlm.nih.gov/cgi-bin/sis/search/r?dbs+hsdb:@term+@rn+@rel+5307-14-2
   9. http://pubchem.ncbi.nlm.nih.gov/vw3d/vw3d.cgi?cid=4338370
