23665403
  -OEChem-07051213042D

 37 38  0     0  0  0  0  0  0999 V2000
    3.6058   -0.0748    0.0000 Na  0  3  0  0  0  0  0  0  0  0  0  0
    6.4590   -0.3838    0.0000 N   0  0  0  0  0  0  0  0  0  0  0  0
    4.5569   -0.7658    0.0000 C   0  0  0  0  0  0  0  0  0  0  0  0
    5.1447    1.0432    0.0000 C   0  0  0  0  0  0  0  0  0  0  0  0
    3.7278    0.7934    0.0000 C   0  0  0  0  0  0  0  0  0  0  0  0
    5.5079   -0.0748    0.0000 C   0  0  0  0  0  0  0  0  0  0  0  0
    3.7976    1.7910    0.0000 C   0  0  0  0  0  0  0  0  0  0  0  0
    6.1392    0.9387    0.0000 C   0  0  0  0  0  0  0  0  0  0  0  0
    3.6908   -1.2658    0.0000 C   0  0  0  0  0  0  0  0  0  0  0  0
    2.8290    0.3550    0.0000 C   0  0  0  0  0  0  0  0  0  0  0  0
    4.7379    1.9568    0.0000 C   0  0  0  0  0  0  0  0  0  0  0  0
    5.4229   -1.2658    0.0000 C   0  0  0  0  0  0  0  0  0  0  0  0
    2.9686    2.3502    0.0000 C   0  0  0  0  0  0  0  0  0  0  0  0
    6.7270    1.7477    0.0000 C   0  0  0  0  0  0  0  0  0  0  0  0
    3.6908   -2.2658    0.0000 C   0  0  0  0  0  0  0  0  0  0  0  0
    2.0000    0.9142    0.0000 C   0  0  0  0  0  0  0  0  0  0  0  0
    5.3257    2.7658    0.0000 C   0  0  0  0  0  0  0  0  0  0  0  0
    5.4229   -2.2658    0.0000 C   0  0  0  0  0  0  0  0  0  0  0  0
    2.0698    1.9118    0.0000 C   0  0  0  0  0  0  0  0  0  0  0  0
    4.5569   -2.7658    0.0000 C   0  0  0  0  0  0  0  0  0  0  0  0
    6.3202    2.6613    0.0000 C   0  0  0  0  0  0  0  0  0  0  0  0
    4.5569    0.2342    0.0000 B   0  5  0  0  0  0  0  0  0  0  0  0
    4.3548    2.0628    0.0000 H   0  0  0  0  0  0  0  0  0  0  0  0
    6.3914    0.3723    0.0000 H   0  0  0  0  0  0  0  0  0  0  0  0
    3.1539   -0.9558    0.0000 H   0  0  0  0  0  0  0  0  0  0  0  0
    2.7858   -0.2635    0.0000 H   0  0  0  0  0  0  0  0  0  0  0  0
    4.1213    2.0216    0.0000 H   0  0  0  0  0  0  0  0  0  0  0  0
    5.9598   -0.9558    0.0000 H   0  0  0  0  0  0  0  0  0  0  0  0
    3.0118    2.9686    0.0000 H   0  0  0  0  0  0  0  0  0  0  0  0
    7.3436    1.6829    0.0000 H   0  0  0  0  0  0  0  0  0  0  0  0
    3.1539   -2.5758    0.0000 H   0  0  0  0  0  0  0  0  0  0  0  0
    1.4428    0.6424    0.0000 H   0  0  0  0  0  0  0  0  0  0  0  0
    5.0735    3.3322    0.0000 H   0  0  0  0  0  0  0  0  0  0  0  0
    5.9598   -2.5758    0.0000 H   0  0  0  0  0  0  0  0  0  0  0  0
    1.5558    2.2585    0.0000 H   0  0  0  0  0  0  0  0  0  0  0  0
    6.6846    3.1628    0.0000 H   0  0  0  0  0  0  0  0  0  0  0  0
    4.5569   -3.3858    0.0000 H   0  0  0  0  0  0  0  0  0  0  0  0
  2  6  3  0  0  0  0
  3  9  2  0  0  0  0
  3 12  1  0  0  0  0
  3 22  1  0  0  0  0
  4  8  2  0  0  0  0
  4 11  1  0  0  0  0
  4 22  1  0  0  0  0
  5  7  2  0  0  0  0
  5 10  1  0  0  0  0
  5 22  1  0  0  0  0
  6 22  1  0  0  0  0
  7 13  1  0  0  0  0
  7 23  1  0  0  0  0
  8 14  1  0  0  0  0
  8 24  1  0  0  0  0
  9 15  1  0  0  0  0
  9 25  1  0  0  0  0
 10 16  2  0  0  0  0
 10 26  1  0  0  0  0
 11 17  2  0  0  0  0
 11 27  1  0  0  0  0
 12 18  2  0  0  0  0
 12 28  1  0  0  0  0
 13 19  2  0  0  0  0
 13 29  1  0  0  0  0
 14 21  2  0  0  0  0
 14 30  1  0  0  0  0
 15 20  2  0  0  0  0
 15 31  1  0  0  0  0
 16 19  1  0  0  0  0
 16 32  1  0  0  0  0
 17 21  1  0  0  0  0
 17 33  1  0  0  0  0
 18 20  1  0  0  0  0
 18 34  1  0  0  0  0
 19 35  1  0  0  0  0
 20 37  1  0  0  0  0
 21 36  1  0  0  0  0
M  CHG  2   1   1  22  -1
M  END
> <PUBCHEM_COMPOUND_CID>
23665403

> <PUBCHEM_COMPOUND_CANONICALIZED>
1

> <PUBCHEM_CACTVS_COMPLEXITY>
325

> <PUBCHEM_CACTVS_HBOND_ACCEPTOR>
2

> <PUBCHEM_CACTVS_HBOND_DONOR>
0

> <PUBCHEM_CACTVS_ROTATABLE_BOND>
3

> <PUBCHEM_CACTVS_SUBSKEYS>
AAADccJ6ACAAAAAAAAAAAAAAAAAAAAAAAAAwYMAAAAAAAAABUAAgHAAAAAAACACAEAAwAIAAAACQACBCAAACAAAgAAAIiAAAAIgIICKAERCAIAAggAAIiAcAAAAAAAAAAAAAAAAAAAAAAAAAAAAAAAAAAA==

> <PUBCHEM_IUPAC_OPENEYE_NAME>
sodium cyano(triphenyl)boranuide

> <PUBCHEM_IUPAC_CAS_NAME>
sodium cyano(triphenyl)boranuide

> <PUBCHEM_IUPAC_NAME>
sodium cyano(triphenyl)boranuide

> <PUBCHEM_IUPAC_SYSTEMATIC_NAME>
sodium cyano(triphenyl)boranuide

> <PUBCHEM_IUPAC_TRADITIONAL_NAME>
sodium cyano(triphenyl)boranuide

> <PUBCHEM_IUPAC_INCHI>
InChI=1S/C19H15BN.Na/c21-16-20(17-10-4-1-5-11-17,18-12-6-2-7-13-18)19-14-8-3-9-15-19;/h1-15H;/q-1;+1

> <PUBCHEM_IUPAC_INCHIKEY>
QNLQNWKYDWFECJ-UHFFFAOYSA-N

> <PUBCHEM_EXACT_MASS>
291.119524

> <PUBCHEM_MOLECULAR_FORMULA>
C19H15BNNa

> <PUBCHEM_MOLECULAR_WEIGHT>
291.129869

> <PUBCHEM_OPENEYE_CAN_SMILES>
[B-](C#N)(C1=CC=CC=C1)(C2=CC=CC=C2)C3=CC=CC=C3.[Na+]

> <PUBCHEM_OPENEYE_ISO_SMILES>
[B-](C#N)(C1=CC=CC=C1)(C2=CC=CC=C2)C3=CC=CC=C3.[Na+]

> <PUBCHEM_CACTVS_TPSA>
23.8

> <PUBCHEM_MONOISOTOPIC_WEIGHT>
291.119524

> <PUBCHEM_TOTAL_CHARGE>
0

> <PUBCHEM_HEAVY_ATOM_COUNT>
22

> <PUBCHEM_ATOM_DEF_STEREO_COUNT>
0

> <PUBCHEM_ATOM_UDEF_STEREO_COUNT>
0

> <PUBCHEM_BOND_DEF_STEREO_COUNT>
0

> <PUBCHEM_BOND_UDEF_STEREO_COUNT>
0

> <PUBCHEM_ISOTOPIC_ATOM_COUNT>
0

> <PUBCHEM_COMPONENT_COUNT>
2

> <PUBCHEM_CACTVS_TAUTO_COUNT>
1

> <PUBCHEM_NONSTANDARDBOND>
1  22  7

> <PUBCHEM_COORDINATE_TYPE>
1
5
255

> <PUBCHEM_BONDANNOTATIONS>
10  16  8
11  17  8
12  18  8
13  19  8
14  21  8
15  20  8
16  19  8
17  21  8
18  20  8
3  12  8
3  9  8
4  11  8
4  8  8
5  10  8
5  7  8
7  13  8
8  14  8
9  15  8

$$$$

