17396355
  -OEChem-06241222562D

 47 49  0     1  0  0  0  0  0999 V2000
    8.9282    0.3273    0.0000 O   0  0  0  0  0  0  0  0  0  0  0  0
   15.0564   -1.1968    0.0000 O   0  0  0  0  0  0  0  0  0  0  0  0
    9.7942    1.8273    0.0000 O   0  0  0  0  0  0  0  0  0  0  0  0
    7.1962   -0.6727    0.0000 O   0  0  0  0  0  0  0  0  0  0  0  0
    2.8660   -1.1727    0.0000 O   0  0  0  0  0  0  0  0  0  0  0  0
   13.2862   -1.2074    0.0000 N   0  0  0  0  0  0  0  0  0  0  0  0
    6.3301    0.8273    0.0000 N   0  0  0  0  0  0  0  0  0  0  0  0
   13.2862    0.8620    0.0000 C   0  0  0  0  0  0  0  0  0  0  0  0
   12.3923    0.3273    0.0000 C   0  0  0  0  0  0  0  0  0  0  0  0
   14.1923    0.3481    0.0000 C   0  0  0  0  0  0  0  0  0  0  0  0
   12.3923   -0.6727    0.0000 C   0  0  0  0  0  0  0  0  0  0  0  0
   11.5263    0.8273    0.0000 C   0  0  0  0  0  0  0  0  0  0  0  0
   14.1923   -0.6935    0.0000 C   0  0  0  0  0  0  0  0  0  0  0  0
   10.6603    0.3273    0.0000 C   0  0  0  0  0  0  0  0  0  0  0  0
   11.5263   -1.1727    0.0000 C   0  0  0  0  0  0  0  0  0  0  0  0
   10.6603   -0.6727    0.0000 C   0  0  0  0  0  0  0  0  0  0  0  0
    9.7942    0.8273    0.0000 C   0  0  0  0  0  0  0  0  0  0  0  0
    8.0622    0.8273    0.0000 C   0  0  3  0  0  0  0  0  0  0  0  0
    7.1962    0.3273    0.0000 C   0  0  0  0  0  0  0  0  0  0  0  0
    8.0622    1.8273    0.0000 C   0  0  0  0  0  0  0  0  0  0  0  0
    5.4641    0.3273    0.0000 C   0  0  0  0  0  0  0  0  0  0  0  0
    4.5981    0.8273    0.0000 C   0  0  0  0  0  0  0  0  0  0  0  0
    5.4641   -0.6727    0.0000 C   0  0  0  0  0  0  0  0  0  0  0  0
    3.7320   -0.6727    0.0000 C   0  0  0  0  0  0  0  0  0  0  0  0
    3.7320    0.3273    0.0000 C   0  0  0  0  0  0  0  0  0  0  0  0
    4.5981   -1.1727    0.0000 C   0  0  0  0  0  0  0  0  0  0  0  0
    2.0000   -0.6727    0.0000 C   0  0  0  0  0  0  0  0  0  0  0  0
   13.6799    1.3410    0.0000 H   0  0  0  0  0  0  0  0  0  0  0  0
   12.8816    1.3318    0.0000 H   0  0  0  0  0  0  0  0  0  0  0  0
   14.8032    0.2420    0.0000 H   0  0  0  0  0  0  0  0  0  0  0  0
   14.4014    0.9318    0.0000 H   0  0  0  0  0  0  0  0  0  0  0  0
   11.5263    1.4473    0.0000 H   0  0  0  0  0  0  0  0  0  0  0  0
   13.2791   -1.8273    0.0000 H   0  0  0  0  0  0  0  0  0  0  0  0
   11.5263   -1.7927    0.0000 H   0  0  0  0  0  0  0  0  0  0  0  0
   10.1233   -0.9827    0.0000 H   0  0  0  0  0  0  0  0  0  0  0  0
    8.0622    0.2073    0.0000 H   0  0  0  0  0  0  0  0  0  0  0  0
    8.6822    1.8273    0.0000 H   0  0  0  0  0  0  0  0  0  0  0  0
    8.0622    2.4473    0.0000 H   0  0  0  0  0  0  0  0  0  0  0  0
    7.4422    1.8273    0.0000 H   0  0  0  0  0  0  0  0  0  0  0  0
    6.3301    1.4473    0.0000 H   0  0  0  0  0  0  0  0  0  0  0  0
    4.5981    1.4473    0.0000 H   0  0  0  0  0  0  0  0  0  0  0  0
    6.0010   -0.9827    0.0000 H   0  0  0  0  0  0  0  0  0  0  0  0
    3.1951    0.6373    0.0000 H   0  0  0  0  0  0  0  0  0  0  0  0
    4.5981   -1.7927    0.0000 H   0  0  0  0  0  0  0  0  0  0  0  0
    2.3100   -0.1358    0.0000 H   0  0  0  0  0  0  0  0  0  0  0  0
    1.4631   -0.3627    0.0000 H   0  0  0  0  0  0  0  0  0  0  0  0
    1.6900   -1.2096    0.0000 H   0  0  0  0  0  0  0  0  0  0  0  0
  1 17  1  0  0  0  0
  1 18  1  0  0  0  0
  2 13  2  0  0  0  0
  3 17  2  0  0  0  0
  4 19  2  0  0  0  0
  5 24  1  0  0  0  0
  5 27  1  0  0  0  0
  6 11  1  0  0  0  0
  6 13  1  0  0  0  0
  6 33  1  0  0  0  0
  7 19  1  0  0  0  0
  7 21  1  0  0  0  0
  7 40  1  0  0  0  0
  8  9  1  0  0  0  0
  8 10  1  0  0  0  0
  8 28  1  0  0  0  0
  8 29  1  0  0  0  0
  9 11  2  0  0  0  0
  9 12  1  0  0  0  0
 10 13  1  0  0  0  0
 10 30  1  0  0  0  0
 10 31  1  0  0  0  0
 11 15  1  0  0  0  0
 12 14  2  0  0  0  0
 12 32  1  0  0  0  0
 14 16  1  0  0  0  0
 14 17  1  0  0  0  0
 15 16  2  0  0  0  0
 15 34  1  0  0  0  0
 16 35  1  0  0  0  0
 18 19  1  0  0  0  0
 18 20  1  0  0  0  0
 18 36  1  0  0  0  0
 20 37  1  0  0  0  0
 20 38  1  0  0  0  0
 20 39  1  0  0  0  0
 21 22  2  0  0  0  0
 21 23  1  0  0  0  0
 22 25  1  0  0  0  0
 22 41  1  0  0  0  0
 23 26  2  0  0  0  0
 23 42  1  0  0  0  0
 24 25  2  0  0  0  0
 24 26  1  0  0  0  0
 25 43  1  0  0  0  0
 26 44  1  0  0  0  0
 27 45  1  0  0  0  0
 27 46  1  0  0  0  0
 27 47  1  0  0  0  0
M  END
> <PUBCHEM_COMPOUND_CID>
17396355

> <PUBCHEM_COMPOUND_CANONICALIZED>
1

> <PUBCHEM_CACTVS_COMPLEXITY>
559

> <PUBCHEM_CACTVS_HBOND_ACCEPTOR>
5

> <PUBCHEM_CACTVS_HBOND_DONOR>
2

> <PUBCHEM_CACTVS_ROTATABLE_BOND>
6

> <PUBCHEM_CACTVS_SUBSKEYS>
AAADceB7OAAAAAAAAAAAAAAAAAAAAAAAAAA8YIAAAAAAAACxQAAAHgAQAAAADByhmAIyzoLABACIAiXSWAKCCAAlIgAIiAFGbMgOJjLEtZ+HMShk1BHY6Ye42eOeCEACAAACAAAQgAQAAAQAAAAAAAAAAA==

> <PUBCHEM_IUPAC_OPENEYE_NAME>
[2-(4-methoxyanilino)-1-methyl-2-oxo-ethyl] 2-oxo-3,4-dihydro-1H-quinoline-6-carboxylate

> <PUBCHEM_IUPAC_CAS_NAME>
2-oxo-3,4-dihydro-1H-quinoline-6-carboxylic acid [1-(4-methoxyanilino)-1-oxopropan-2-yl] ester

> <PUBCHEM_IUPAC_NAME>
[1-(4-methoxyanilino)-1-oxopropan-2-yl] 2-oxo-3,4-dihydro-1H-quinoline-6-carboxylate

> <PUBCHEM_IUPAC_SYSTEMATIC_NAME>
[1-[(4-methoxyphenyl)amino]-1-oxidanylidene-propan-2-yl] 2-oxidanylidene-3,4-dihydro-1H-quinoline-6-carboxylate

> <PUBCHEM_IUPAC_TRADITIONAL_NAME>
2-keto-3,4-dihydro-1H-quinoline-6-carboxylic acid [2-keto-1-methyl-2-(p-anisidino)ethyl] ester

> <PUBCHEM_IUPAC_INCHI>
InChI=1S/C20H20N2O5/c1-12(19(24)21-15-5-7-16(26-2)8-6-15)27-20(25)14-3-9-17-13(11-14)4-10-18(23)22-17/h3,5-9,11-12H,4,10H2,1-2H3,(H,21,24)(H,22,23)

> <PUBCHEM_IUPAC_INCHIKEY>
FPVLDTQOFWWGOE-UHFFFAOYSA-N

> <PUBCHEM_XLOGP3_AA>
2.2

> <PUBCHEM_EXACT_MASS>
368.137222

> <PUBCHEM_MOLECULAR_FORMULA>
C20H20N2O5

> <PUBCHEM_MOLECULAR_WEIGHT>
368.3832

> <PUBCHEM_OPENEYE_CAN_SMILES>
CC(C(=O)NC1=CC=C(C=C1)OC)OC(=O)C2=CC3=C(C=C2)NC(=O)CC3

> <PUBCHEM_OPENEYE_ISO_SMILES>
CC(C(=O)NC1=CC=C(C=C1)OC)OC(=O)C2=CC3=C(C=C2)NC(=O)CC3

> <PUBCHEM_CACTVS_TPSA>
93.7

> <PUBCHEM_MONOISOTOPIC_WEIGHT>
368.137222

> <PUBCHEM_TOTAL_CHARGE>
0

> <PUBCHEM_HEAVY_ATOM_COUNT>
27

> <PUBCHEM_ATOM_DEF_STEREO_COUNT>
0

> <PUBCHEM_ATOM_UDEF_STEREO_COUNT>
1

> <PUBCHEM_BOND_DEF_STEREO_COUNT>
0

> <PUBCHEM_BOND_UDEF_STEREO_COUNT>
0

> <PUBCHEM_ISOTOPIC_ATOM_COUNT>
0

> <PUBCHEM_COMPONENT_COUNT>
1

> <PUBCHEM_CACTVS_TAUTO_COUNT>
21

> <PUBCHEM_COORDINATE_TYPE>
1
5
255

> <PUBCHEM_BONDANNOTATIONS>
11  15  8
12  14  8
14  16  8
15  16  8
18  20  3
21  22  8
21  23  8
22  25  8
23  26  8
24  25  8
24  26  8
9  11  8
9  12  8

$$$$

