17396491
  -OEChem-06241222562D

 62 65  0     0  0  0  0  0  0999 V2000
    9.0058    0.4004    0.0000 S   0  0  0  0  0  0  0  0  0  0  0  0
   10.0058    0.3965    0.0000 O   0  0  0  0  0  0  0  0  0  0  0  0
    8.0058    0.4042    0.0000 O   0  0  0  0  0  0  0  0  0  0  0  0
    7.2583   -3.5929    0.0000 O   0  0  0  0  0  0  0  0  0  0  0  0
    2.0000   -0.5688    0.0000 O   0  0  0  0  0  0  0  0  0  0  0  0
    2.0000   -2.5688    0.0000 O   0  0  0  0  0  0  0  0  0  0  0  0
    9.0096    1.4004    0.0000 N   0  0  0  0  0  0  0  0  0  0  0  0
    6.3981   -2.0896    0.0000 N   0  0  0  0  0  0  0  0  0  0  0  0
    9.9123    1.8308    0.0000 C   0  0  0  0  0  0  0  0  0  0  0  0
    8.1103    1.8377    0.0000 C   0  0  0  0  0  0  0  0  0  0  0  0
   10.1385    2.8048    0.0000 C   0  0  0  0  0  0  0  0  0  0  0  0
    7.8916    2.8135    0.0000 C   0  0  0  0  0  0  0  0  0  0  0  0
    8.5181    3.5929    0.0000 C   0  0  0  0  0  0  0  0  0  0  0  0
    9.5181    3.5891    0.0000 C   0  0  0  0  0  0  0  0  0  0  0  0
    6.3981   -1.0480    0.0000 C   0  0  0  0  0  0  0  0  0  0  0  0
    5.4920   -0.5341    0.0000 C   0  0  0  0  0  0  0  0  0  0  0  0
    9.0019   -0.5996    0.0000 C   0  0  0  0  0  0  0  0  0  0  0  0
    5.4920   -2.6034    0.0000 C   0  0  0  0  0  0  0  0  0  0  0  0
    4.5981   -1.0688    0.0000 C   0  0  0  0  0  0  0  0  0  0  0  0
    4.5981   -2.0688    0.0000 C   0  0  0  0  0  0  0  0  0  0  0  0
    7.2622   -2.5929    0.0000 C   0  0  0  0  0  0  0  0  0  0  0  0
    8.1301   -2.0963    0.0000 C   0  0  0  0  0  0  0  0  0  0  0  0
    8.1340   -1.0963    0.0000 C   0  0  0  0  0  0  0  0  0  0  0  0
    9.8660   -1.1030    0.0000 C   0  0  0  0  0  0  0  0  0  0  0  0
    3.7320   -0.5688    0.0000 C   0  0  0  0  0  0  0  0  0  0  0  0
    3.7320   -2.5688    0.0000 C   0  0  0  0  0  0  0  0  0  0  0  0
    8.9942   -2.5996    0.0000 C   0  0  0  0  0  0  0  0  0  0  0  0
    2.8660   -1.0688    0.0000 C   0  0  0  0  0  0  0  0  0  0  0  0
    2.8660   -2.0688    0.0000 C   0  0  0  0  0  0  0  0  0  0  0  0
    9.8622   -2.1030    0.0000 C   0  0  0  0  0  0  0  0  0  0  0  0
    2.0000    0.4312    0.0000 C   0  0  0  0  0  0  0  0  0  0  0  0
    2.0000   -3.5688    0.0000 C   0  0  0  0  0  0  0  0  0  0  0  0
    7.4904    1.8401    0.0000 H   0  0  0  0  0  0  0  0  0  0  0  0
    7.9700    1.2338    0.0000 H   0  0  0  0  0  0  0  0  0  0  0  0
   10.0479    1.2258    0.0000 H   0  0  0  0  0  0  0  0  0  0  0  0
   10.5323    1.8284    0.0000 H   0  0  0  0  0  0  0  0  0  0  0  0
    7.5069    3.2997    0.0000 H   0  0  0  0  0  0  0  0  0  0  0  0
    7.3320    2.5466    0.0000 H   0  0  0  0  0  0  0  0  0  0  0  0
   10.6961    2.5337    0.0000 H   0  0  0  0  0  0  0  0  0  0  0  0
   10.5270    3.2881    0.0000 H   0  0  0  0  0  0  0  0  0  0  0  0
    8.6584    4.1968    0.0000 H   0  0  0  0  0  0  0  0  0  0  0  0
    7.9605    3.8641    0.0000 H   0  0  0  0  0  0  0  0  0  0  0  0
   10.0777    3.8559    0.0000 H   0  0  0  0  0  0  0  0  0  0  0  0
    9.3824    4.1940    0.0000 H   0  0  0  0  0  0  0  0  0  0  0  0
    7.0089   -1.1540    0.0000 H   0  0  0  0  0  0  0  0  0  0  0  0
    6.6071   -0.4643    0.0000 H   0  0  0  0  0  0  0  0  0  0  0  0
    5.8856   -0.0551    0.0000 H   0  0  0  0  0  0  0  0  0  0  0  0
    5.0874   -0.0643    0.0000 H   0  0  0  0  0  0  0  0  0  0  0  0
    5.0874   -3.0732    0.0000 H   0  0  0  0  0  0  0  0  0  0  0  0
    5.8856   -3.0825    0.0000 H   0  0  0  0  0  0  0  0  0  0  0  0
    7.5982   -0.7842    0.0000 H   0  0  0  0  0  0  0  0  0  0  0  0
   10.4041   -0.7950    0.0000 H   0  0  0  0  0  0  0  0  0  0  0  0
    3.7320    0.0512    0.0000 H   0  0  0  0  0  0  0  0  0  0  0  0
    3.7320   -3.1888    0.0000 H   0  0  0  0  0  0  0  0  0  0  0  0
    8.9918   -3.2196    0.0000 H   0  0  0  0  0  0  0  0  0  0  0  0
   10.3979   -2.4150    0.0000 H   0  0  0  0  0  0  0  0  0  0  0  0
    2.6200    0.4312    0.0000 H   0  0  0  0  0  0  0  0  0  0  0  0
    2.0000    1.0512    0.0000 H   0  0  0  0  0  0  0  0  0  0  0  0
    1.3800    0.4312    0.0000 H   0  0  0  0  0  0  0  0  0  0  0  0
    1.3800   -3.5688    0.0000 H   0  0  0  0  0  0  0  0  0  0  0  0
    2.0000   -4.1888    0.0000 H   0  0  0  0  0  0  0  0  0  0  0  0
    2.6200   -3.5688    0.0000 H   0  0  0  0  0  0  0  0  0  0  0  0
  1  2  2  0  0  0  0
  1  3  2  0  0  0  0
  1  7  1  0  0  0  0
  1 17  1  0  0  0  0
  4 21  2  0  0  0  0
  5 28  1  0  0  0  0
  5 31  1  0  0  0  0
  6 29  1  0  0  0  0
  6 32  1  0  0  0  0
  7  9  1  0  0  0  0
  7 10  1  0  0  0  0
  8 15  1  0  0  0  0
  8 18  1  0  0  0  0
  8 21  1  0  0  0  0
  9 11  1  0  0  0  0
  9 35  1  0  0  0  0
  9 36  1  0  0  0  0
 10 12  1  0  0  0  0
 10 33  1  0  0  0  0
 10 34  1  0  0  0  0
 11 14  1  0  0  0  0
 11 39  1  0  0  0  0
 11 40  1  0  0  0  0
 12 13  1  0  0  0  0
 12 37  1  0  0  0  0
 12 38  1  0  0  0  0
 13 14  1  0  0  0  0
 13 41  1  0  0  0  0
 13 42  1  0  0  0  0
 14 43  1  0  0  0  0
 14 44  1  0  0  0  0
 15 16  1  0  0  0  0
 15 45  1  0  0  0  0
 15 46  1  0  0  0  0
 16 19  1  0  0  0  0
 16 47  1  0  0  0  0
 16 48  1  0  0  0  0
 17 23  1  0  0  0  0
 17 24  2  0  0  0  0
 18 20  1  0  0  0  0
 18 49  1  0  0  0  0
 18 50  1  0  0  0  0
 19 20  1  0  0  0  0
 19 25  2  0  0  0  0
 20 26  2  0  0  0  0
 21 22  1  0  0  0  0
 22 23  2  0  0  0  0
 22 27  1  0  0  0  0
 23 51  1  0  0  0  0
 24 30  1  0  0  0  0
 24 52  1  0  0  0  0
 25 28  1  0  0  0  0
 25 53  1  0  0  0  0
 26 29  1  0  0  0  0
 26 54  1  0  0  0  0
 27 30  2  0  0  0  0
 27 55  1  0  0  0  0
 28 29  2  0  0  0  0
 30 56  1  0  0  0  0
 31 57  1  0  0  0  0
 31 58  1  0  0  0  0
 31 59  1  0  0  0  0
 32 60  1  0  0  0  0
 32 61  1  0  0  0  0
 32 62  1  0  0  0  0
M  END
> <PUBCHEM_COMPOUND_CID>
17396491

> <PUBCHEM_COMPOUND_CANONICALIZED>
1

> <PUBCHEM_CACTVS_COMPLEXITY>
731

> <PUBCHEM_CACTVS_HBOND_ACCEPTOR>
6

> <PUBCHEM_CACTVS_HBOND_DONOR>
0

> <PUBCHEM_CACTVS_ROTATABLE_BOND>
5

> <PUBCHEM_CACTVS_SUBSKEYS>
AAADceB7OABAAAAAAAAAAAAAAAAAAAAAAAA8YIAABYAAAACxQAAAHgQAQAAADATB2AYyB4MABAKIAiFSEHDCCBAkIAAIiBkOjMgNJjKEtRuEMSpkxhGKqYe42LKOoAABgAAQQABAAAMAACCAAAAAAAAAAA==

> <PUBCHEM_IUPAC_OPENEYE_NAME>
[3-(azepan-1-ylsulfonyl)phenyl]-(6,7-dimethoxy-3,4-dihydro-1H-isoquinolin-2-yl)methanone

> <PUBCHEM_IUPAC_CAS_NAME>
[3-(1-azepanylsulfonyl)phenyl]-(6,7-dimethoxy-3,4-dihydro-1H-isoquinolin-2-yl)methanone

> <PUBCHEM_IUPAC_NAME>
[3-(azepan-1-ylsulfonyl)phenyl]-(6,7-dimethoxy-3,4-dihydro-1H-isoquinolin-2-yl)methanone

> <PUBCHEM_IUPAC_SYSTEMATIC_NAME>
[3-(azepan-1-ylsulfonyl)phenyl]-(6,7-dimethoxy-3,4-dihydro-1H-isoquinolin-2-yl)methanone

> <PUBCHEM_IUPAC_TRADITIONAL_NAME>
[3-(azepan-1-ylsulfonyl)phenyl]-(6,7-dimethoxy-3,4-dihydro-1H-isoquinolin-2-yl)methanone

> <PUBCHEM_IUPAC_INCHI>
InChI=1S/C24H30N2O5S/c1-30-22-15-18-10-13-25(17-20(18)16-23(22)31-2)24(27)19-8-7-9-21(14-19)32(28,29)26-11-5-3-4-6-12-26/h7-9,14-16H,3-6,10-13,17H2,1-2H3

> <PUBCHEM_IUPAC_INCHIKEY>
KVFWFPNUHBJBQT-UHFFFAOYSA-N

> <PUBCHEM_XLOGP3_AA>
3.2

> <PUBCHEM_EXACT_MASS>
458.187543

> <PUBCHEM_MOLECULAR_FORMULA>
C24H30N2O5S

> <PUBCHEM_MOLECULAR_WEIGHT>
458.5704

> <PUBCHEM_OPENEYE_CAN_SMILES>
COC1=C(C=C2CN(CCC2=C1)C(=O)C3=CC(=CC=C3)S(=O)(=O)N4CCCCCC4)OC

> <PUBCHEM_OPENEYE_ISO_SMILES>
COC1=C(C=C2CN(CCC2=C1)C(=O)C3=CC(=CC=C3)S(=O)(=O)N4CCCCCC4)OC

> <PUBCHEM_CACTVS_TPSA>
84.5

> <PUBCHEM_MONOISOTOPIC_WEIGHT>
458.187543

> <PUBCHEM_TOTAL_CHARGE>
0

> <PUBCHEM_HEAVY_ATOM_COUNT>
32

> <PUBCHEM_ATOM_DEF_STEREO_COUNT>
0

> <PUBCHEM_ATOM_UDEF_STEREO_COUNT>
0

> <PUBCHEM_BOND_DEF_STEREO_COUNT>
0

> <PUBCHEM_BOND_UDEF_STEREO_COUNT>
0

> <PUBCHEM_ISOTOPIC_ATOM_COUNT>
0

> <PUBCHEM_COMPONENT_COUNT>
1

> <PUBCHEM_CACTVS_TAUTO_COUNT>
1

> <PUBCHEM_COORDINATE_TYPE>
1
5
255

> <PUBCHEM_BONDANNOTATIONS>
17  23  8
17  24  8
19  20  8
19  25  8
20  26  8
22  23  8
22  27  8
24  30  8
25  28  8
26  29  8
27  30  8
28  29  8

$$$$

