5281864
  -OEChem-07051213002D

 39 40  0     1  0  0  0  0  0999 V2000
   11.7356    0.4680    0.0000 O   0  0  0  0  0  0  0  0  0  0  0  0
   11.1108   -1.8639    0.0000 O   0  0  0  0  0  0  0  0  0  0  0  0
    5.4641   -1.5755    0.0000 O   0  0  0  0  0  0  0  0  0  0  0  0
    4.5981   -0.0755    0.0000 O   0  0  0  0  0  0  0  0  0  0  0  0
    8.3010    1.7095    0.0000 N   0  0  0  0  0  0  0  0  0  0  0  0
    9.0376    0.7268    0.0000 C   0  0  3  0  0  0  0  0  0  0  0  0
    8.7788   -0.2391    0.0000 C   0  0  3  0  0  0  0  0  0  0  0  0
   10.8696   -0.0320    0.0000 C   0  0  1  0  0  0  0  0  0  0  0  0
   10.6108   -0.9979    0.0000 C   0  0  2  0  0  0  0  0  0  0  0  0
    6.4347   -0.0810    0.0000 C   0  0  0  0  0  0  0  0  0  0  0  0
    7.2437   -1.4822    0.0000 C   0  0  0  0  0  0  0  0  0  0  0  0
    6.3301   -1.0755    0.0000 C   0  0  0  0  0  0  0  0  0  0  0  0
    7.8010    2.5755    0.0000 C   0  0  0  0  0  0  0  0  0  0  0  0
    4.5981   -1.0755    0.0000 C   0  0  0  0  0  0  0  0  0  0  0  0
    3.7320   -1.5755    0.0000 C   0  0  0  0  0  0  0  0  0  0  0  0
    3.7320   -2.5755    0.0000 C   0  0  0  0  0  0  0  0  0  0  0  0
    2.8660   -1.0755    0.0000 C   0  0  0  0  0  0  0  0  0  0  0  0
    2.0000   -1.5755    0.0000 C   0  0  0  0  0  0  0  0  0  0  0  0
    8.9986   -0.1223    0.0000 H   0  0  0  0  0  0  0  0  0  0  0  0
    8.9008   -1.0803    0.0000 H   0  0  0  0  0  0  0  0  0  0  0  0
   11.3615   -0.4094    0.0000 H   0  0  0  0  0  0  0  0  0  0  0  0
   10.2020   -1.4640    0.0000 H   0  0  0  0  0  0  0  0  0  0  0  0
    6.3324    0.5305    0.0000 H   0  0  0  0  0  0  0  0  0  0  0  0
    5.8149   -0.0999    0.0000 H   0  0  0  0  0  0  0  0  0  0  0  0
    6.9060   -2.0022    0.0000 H   0  0  0  0  0  0  0  0  0  0  0  0
    7.7044   -1.8971    0.0000 H   0  0  0  0  0  0  0  0  0  0  0  0
    5.8102   -0.7378    0.0000 H   0  0  0  0  0  0  0  0  0  0  0  0
    8.3380    2.8855    0.0000 H   0  0  0  0  0  0  0  0  0  0  0  0
    7.4910    3.1124    0.0000 H   0  0  0  0  0  0  0  0  0  0  0  0
    7.2641    2.2655    0.0000 H   0  0  0  0  0  0  0  0  0  0  0  0
   12.2726    0.1580    0.0000 H   0  0  0  0  0  0  0  0  0  0  0  0
   10.8008   -2.4009    0.0000 H   0  0  0  0  0  0  0  0  0  0  0  0
    3.1120   -2.5755    0.0000 H   0  0  0  0  0  0  0  0  0  0  0  0
    3.7320   -3.1955    0.0000 H   0  0  0  0  0  0  0  0  0  0  0  0
    4.3520   -2.5755    0.0000 H   0  0  0  0  0  0  0  0  0  0  0  0
    2.8660   -0.4555    0.0000 H   0  0  0  0  0  0  0  0  0  0  0  0
    1.6900   -1.0386    0.0000 H   0  0  0  0  0  0  0  0  0  0  0  0
    1.4631   -1.8855    0.0000 H   0  0  0  0  0  0  0  0  0  0  0  0
    2.3100   -2.1124    0.0000 H   0  0  0  0  0  0  0  0  0  0  0  0
  8  1  1  6  0  0  0
  1 31  1  0  0  0  0
  9  2  1  6  0  0  0
  2 32  1  0  0  0  0
  3 12  1  0  0  0  0
  3 14  1  0  0  0  0
  4 14  2  0  0  0  0
  5  6  1  0  0  0  0
  5  7  1  0  0  0  0
  5 13  1  0  0  0  0
  6  8  1  0  0  0  0
  6 10  1  0  0  0  0
  6 19  1  0  0  0  0
  7  9  1  0  0  0  0
  7 11  1  0  0  0  0
  7 20  1  0  0  0  0
  8  9  1  0  0  0  0
  8 21  1  0  0  0  0
  9 22  1  0  0  0  0
 10 12  1  0  0  0  0
 10 23  1  0  0  0  0
 10 24  1  0  0  0  0
 11 12  1  0  0  0  0
 11 25  1  0  0  0  0
 11 26  1  0  0  0  0
 12 27  1  0  0  0  0
 13 28  1  0  0  0  0
 13 29  1  0  0  0  0
 13 30  1  0  0  0  0
 14 15  1  0  0  0  0
 15 16  1  0  0  0  0
 15 17  2  0  0  0  0
 16 33  1  0  0  0  0
 16 34  1  0  0  0  0
 16 35  1  0  0  0  0
 17 18  1  0  0  0  0
 17 36  1  0  0  0  0
 18 37  1  0  0  0  0
 18 38  1  0  0  0  0
 18 39  1  0  0  0  0
M  END
> <PUBCHEM_COMPOUND_CID>
5281864

> <PUBCHEM_COMPOUND_CANONICALIZED>
1

> <PUBCHEM_CACTVS_COMPLEXITY>
350

> <PUBCHEM_CACTVS_HBOND_ACCEPTOR>
5

> <PUBCHEM_CACTVS_HBOND_DONOR>
2

> <PUBCHEM_CACTVS_ROTATABLE_BOND>
3

> <PUBCHEM_CACTVS_SUBSKEYS>
AAADceByOAAAAAAAAAAAAAAAAAAAAWAAAAAsAAAABgAAAAAAAAAAHgAACAAADDzhgAYCCAMABgCIAiDSCAAAAAAAAAAACAEIAEADFAIAoQAGUAAGAACRIYHQ4CwAAAAAAAAAAAAAAAAAAAAAAAAAAAAAAA==

> <PUBCHEM_IUPAC_OPENEYE_NAME>
[(6R,7S)-6,7-dihydroxy-8-methyl-8-azabicyclo[3.2.1]octan-3-yl] (E)-2-methylbut-2-enoate

> <PUBCHEM_IUPAC_CAS_NAME>
(E)-2-methyl-2-butenoic acid [(6R,7S)-6,7-dihydroxy-8-methyl-8-azabicyclo[3.2.1]octan-3-yl] ester

> <PUBCHEM_IUPAC_NAME>
[(6R,7S)-6,7-dihydroxy-8-methyl-8-azabicyclo[3.2.1]octan-3-yl] (E)-2-methylbut-2-enoate

> <PUBCHEM_IUPAC_SYSTEMATIC_NAME>
[(6R,7S)-8-methyl-6,7-bis(oxidanyl)-8-azabicyclo[3.2.1]octan-3-yl] (E)-2-methylbut-2-enoate

> <PUBCHEM_IUPAC_TRADITIONAL_NAME>
(E)-2-methylbut-2-enoic acid [(6R,7S)-6,7-dihydroxy-8-methyl-8-azabicyclo[3.2.1]octan-3-yl] ester

> <PUBCHEM_IUPAC_INCHI>
InChI=1S/C13H21NO4/c1-4-7(2)13(17)18-8-5-9-11(15)12(16)10(6-8)14(9)3/h4,8-12,15-16H,5-6H2,1-3H3/b7-4+/t8?,9?,10?,11-,12+

> <PUBCHEM_IUPAC_INCHIKEY>
YZFJTFVPCWEPND-JHOCIBHQSA-N

> <PUBCHEM_XLOGP3_AA>
0.6

> <PUBCHEM_EXACT_MASS>
255.147058

> <PUBCHEM_MOLECULAR_FORMULA>
C13H21NO4

> <PUBCHEM_MOLECULAR_WEIGHT>
255.31014

> <PUBCHEM_OPENEYE_CAN_SMILES>
CC=C(C)C(=O)OC1CC2C(C(C(C1)N2C)O)O

> <PUBCHEM_OPENEYE_ISO_SMILES>
C/C=C(\C)/C(=O)OC1CC2[C@@H]([C@@H](C(C1)N2C)O)O

> <PUBCHEM_CACTVS_TPSA>
70

> <PUBCHEM_MONOISOTOPIC_WEIGHT>
255.147058

> <PUBCHEM_TOTAL_CHARGE>
0

> <PUBCHEM_HEAVY_ATOM_COUNT>
18

> <PUBCHEM_ATOM_DEF_STEREO_COUNT>
2

> <PUBCHEM_ATOM_UDEF_STEREO_COUNT>
2

> <PUBCHEM_BOND_DEF_STEREO_COUNT>
1

> <PUBCHEM_BOND_UDEF_STEREO_COUNT>
0

> <PUBCHEM_ISOTOPIC_ATOM_COUNT>
0

> <PUBCHEM_COMPONENT_COUNT>
1

> <PUBCHEM_CACTVS_TAUTO_COUNT>
1

> <PUBCHEM_COORDINATE_TYPE>
1
5
255

> <PUBCHEM_BONDANNOTATIONS>
8  1  6
9  2  6
6  19  3
7  20  3

$$$$

