442293
  -OEChem-07051212572D

 39 41  0     1  0  0  0  0  0999 V2000
    4.9965   -2.4730    0.0000 O   0  0  0  0  0  0  0  0  0  0  0  0
    2.3784   -0.6579    0.0000 O   0  0  0  0  0  0  0  0  0  0  0  0
    6.0055    2.5148    0.0000 O   0  0  0  0  0  0  0  0  0  0  0  0
    7.7453    2.8730    0.0000 O   0  0  0  0  0  0  0  0  0  0  0  0
    4.9557   -0.5040    0.0000 C   0  0  2  0  0  0  0  0  0  0  0  0
    4.0547   -0.0701    0.0000 C   0  0  2  0  0  0  0  0  0  0  0  0
    4.8197   -1.4887    0.0000 C   0  0  1  0  0  0  0  0  0  0  0  0
    3.3696   -0.7904    0.0000 C   0  0  2  0  0  0  0  0  0  0  0  0
    3.8414   -1.6654    0.0000 C   0  0  0  0  0  0  0  0  0  0  0  0
    5.8566   -0.0701    0.0000 C   0  0  0  0  0  0  0  0  0  0  0  0
    6.0792    0.9048    0.0000 C   0  0  1  0  0  0  0  0  0  0  0  0
    3.8322    0.9048    0.0000 C   0  0  0  0  0  0  0  0  0  0  0  0
    5.4557    1.6866    0.0000 C   0  0  1  0  0  0  0  0  0  0  0  0
    5.8104   -1.6247    0.0000 C   0  0  0  0  0  0  0  0  0  0  0  0
    4.4557    1.6866    0.0000 C   0  0  0  0  0  0  0  0  0  0  0  0
    7.0089    1.2565    0.0000 C   0  0  0  0  0  0  0  0  0  0  0  0
    2.8573    1.1273    0.0000 C   0  0  0  0  0  0  0  0  0  0  0  0
    6.9635    2.2496    0.0000 C   0  0  0  0  0  0  0  0  0  0  0  0
    7.8445    0.7071    0.0000 C   0  0  0  0  0  0  0  0  0  0  0  0
    5.6427   -1.0045    0.0000 H   0  0  0  0  0  0  0  0  0  0  0  0
    3.2350    0.1549    0.0000 H   0  0  0  0  0  0  0  0  0  0  0  0
    3.0172   -1.3005    0.0000 H   0  0  0  0  0  0  0  0  0  0  0  0
    3.2678   -1.9007    0.0000 H   0  0  0  0  0  0  0  0  0  0  0  0
    4.0151   -2.2606    0.0000 H   0  0  0  0  0  0  0  0  0  0  0  0
    5.9946   -0.6746    0.0000 H   0  0  0  0  0  0  0  0  0  0  0  0
    6.4766   -0.0701    0.0000 H   0  0  0  0  0  0  0  0  0  0  0  0
    6.7200    0.3464    0.0000 H   0  0  0  0  0  0  0  0  0  0  0  0
    5.0539    2.4357    0.0000 H   0  0  0  0  0  0  0  0  0  0  0  0
    5.7261   -2.2389    0.0000 H   0  0  0  0  0  0  0  0  0  0  0  0
    6.4246   -1.7090    0.0000 H   0  0  0  0  0  0  0  0  0  0  0  0
    5.8947   -1.0104    0.0000 H   0  0  0  0  0  0  0  0  0  0  0  0
    4.1867    2.2452    0.0000 H   0  0  0  0  0  0  0  0  0  0  0  0
    4.5229   -2.8730    0.0000 H   0  0  0  0  0  0  0  0  0  0  0  0
    2.9952    1.7318    0.0000 H   0  0  0  0  0  0  0  0  0  0  0  0
    2.2528    1.2653    0.0000 H   0  0  0  0  0  0  0  0  0  0  0  0
    2.7193    0.5229    0.0000 H   0  0  0  0  0  0  0  0  0  0  0  0
    2.0000   -1.1490    0.0000 H   0  0  0  0  0  0  0  0  0  0  0  0
    7.8085    0.0881    0.0000 H   0  0  0  0  0  0  0  0  0  0  0  0
    8.3985    0.9854    0.0000 H   0  0  0  0  0  0  0  0  0  0  0  0
  7  1  1  6  0  0  0
  1 33  1  0  0  0  0
  8  2  1  6  0  0  0
  2 37  1  0  0  0  0
  3 13  1  0  0  0  0
  3 18  1  0  0  0  0
  4 18  2  0  0  0  0
  5  6  1  0  0  0  0
  5  7  1  0  0  0  0
  5 10  1  0  0  0  0
  5 20  1  6  0  0  0
  6  8  1  0  0  0  0
  6 12  1  0  0  0  0
  6 21  1  1  0  0  0
  7  9  1  0  0  0  0
  7 14  1  0  0  0  0
  8  9  1  0  0  0  0
  8 22  1  0  0  0  0
  9 23  1  0  0  0  0
  9 24  1  0  0  0  0
 10 11  1  0  0  0  0
 10 25  1  0  0  0  0
 10 26  1  0  0  0  0
 11 13  1  0  0  0  0
 11 16  1  0  0  0  0
 11 27  1  6  0  0  0
 12 15  2  0  0  0  0
 12 17  1  0  0  0  0
 13 15  1  0  0  0  0
 13 28  1  6  0  0  0
 14 29  1  0  0  0  0
 14 30  1  0  0  0  0
 14 31  1  0  0  0  0
 15 32  1  0  0  0  0
 16 18  1  0  0  0  0
 16 19  2  0  0  0  0
 17 34  1  0  0  0  0
 17 35  1  0  0  0  0
 17 36  1  0  0  0  0
 19 38  1  0  0  0  0
 19 39  1  0  0  0  0
M  END
> <PUBCHEM_COMPOUND_CID>
442293

> <PUBCHEM_COMPOUND_CANONICALIZED>
1

> <PUBCHEM_CACTVS_COMPLEXITY>
481

> <PUBCHEM_CACTVS_HBOND_ACCEPTOR>
4

> <PUBCHEM_CACTVS_HBOND_DONOR>
2

> <PUBCHEM_CACTVS_ROTATABLE_BOND>
0

> <PUBCHEM_CACTVS_SUBSKEYS>
AAADceBwOAAAAAAAAAAAAAAAAAAAAaIAAAAAAAAABAAAAACAAAAAGgAACAAADVSggAICCAAABgCIAiDSCAAAAAAgAAAACAEAAEgAFBIAIQACUAAFwAAIIIPK6PyOgAAAAAAAAAAAAAAAAAAAAYQADAAAAA==

> <PUBCHEM_IUPAC_OPENEYE_NAME>
(3aR,5aS,6S,8R,8aR,9aR)-6,8-dihydroxy-5,8-dimethyl-1-methylene-5a,6,7,8a,9,9a-hexahydro-3aH-azuleno[6,5-b]furan-2-one

> <PUBCHEM_IUPAC_CAS_NAME>
(3aR,5aS,6S,8R,8aR,9aR)-6,8-dihydroxy-5,8-dimethyl-1-methylene-5a,6,7,8a,9,9a-hexahydro-3aH-azuleno[6,5-b]furan-2-one

> <PUBCHEM_IUPAC_NAME>
(3aR,5aS,6S,8R,8aR,9aR)-6,8-dihydroxy-5,8-dimethyl-1-methylidene-5a,6,7,8a,9,9a-hexahydro-3aH-azuleno[6,5-b]furan-2-one

> <PUBCHEM_IUPAC_SYSTEMATIC_NAME>
(3aR,5aS,6S,8R,8aR,9aR)-5,8-dimethyl-1-methylidene-6,8-bis(oxidanyl)-5a,6,7,8a,9,9a-hexahydro-3aH-azuleno[6,5-b]furan-2-one

> <PUBCHEM_IUPAC_TRADITIONAL_NAME>
(3aR,5aS,6S,8R,8aR,9aR)-6,8-dihydroxy-5,8-dimethyl-1-methylene-5a,6,7,8a,9,9a-hexahydro-3aH-azuleno[6,5-b]furan-2-one

> <PUBCHEM_IUPAC_INCHI>
InChI=1S/C15H20O4/c1-7-4-12-9(8(2)14(17)19-12)5-10-13(7)11(16)6-15(10,3)18/h4,9-13,16,18H,2,5-6H2,1,3H3/t9-,10-,11+,12-,13-,15-/m1/s1

> <PUBCHEM_IUPAC_INCHIKEY>
VNPALOJXXXSTCR-VZGVWICMSA-N

> <PUBCHEM_XLOGP3_AA>
0.7

> <PUBCHEM_EXACT_MASS>
264.136159

> <PUBCHEM_MOLECULAR_FORMULA>
C15H20O4

> <PUBCHEM_MOLECULAR_WEIGHT>
264.3169

> <PUBCHEM_OPENEYE_CAN_SMILES>
CC1=CC2C(CC3C1C(CC3(C)O)O)C(=C)C(=O)O2

> <PUBCHEM_OPENEYE_ISO_SMILES>
CC1=C[C@@H]2[C@H](C[C@@H]3[C@@H]1[C@H](C[C@@]3(C)O)O)C(=C)C(=O)O2

> <PUBCHEM_CACTVS_TPSA>
66.8

> <PUBCHEM_MONOISOTOPIC_WEIGHT>
264.136159

> <PUBCHEM_TOTAL_CHARGE>
0

> <PUBCHEM_HEAVY_ATOM_COUNT>
19

> <PUBCHEM_ATOM_DEF_STEREO_COUNT>
6

> <PUBCHEM_ATOM_UDEF_STEREO_COUNT>
0

> <PUBCHEM_BOND_DEF_STEREO_COUNT>
0

> <PUBCHEM_BOND_UDEF_STEREO_COUNT>
0

> <PUBCHEM_ISOTOPIC_ATOM_COUNT>
0

> <PUBCHEM_COMPONENT_COUNT>
1

> <PUBCHEM_CACTVS_TAUTO_COUNT>
1

> <PUBCHEM_COORDINATE_TYPE>
1
5
255

> <PUBCHEM_BONDANNOTATIONS>
7  1  6
11  27  6
13  28  6
8  2  6
5  20  6
6  21  5

$$$$

