9848925
  -OEChem-07051213072D

 68 69  0     1  0  0  0  0  0999 V2000
   11.5504   -1.9292    0.0000 S   0  0  0  0  0  0  0  0  0  0  0  0
    8.9813    0.2819    0.0000 S   0  0  0  0  0  0  0  0  0  0  0  0
    4.8191   -1.5962    0.0000 O   0  0  0  0  0  0  0  0  0  0  0  0
    3.1249   -1.2361    0.0000 O   0  0  0  0  0  0  0  0  0  0  0  0
    2.0544    2.0585    0.0000 O   0  0  0  0  0  0  0  0  0  0  0  0
    3.7486    1.6984    0.0000 O   0  0  0  0  0  0  0  0  0  0  0  0
    8.4813   -1.2569    0.0000 N   0  0  0  0  0  0  0  0  0  0  0  0
   11.0504   -0.3904    0.0000 N   0  0  0  0  0  0  0  0  0  0  0  0
    4.2839    0.0511    0.0000 C   0  0  1  0  0  0  0  0  0  0  0  0
    5.0270   -0.6180    0.0000 C   0  0  2  0  0  0  0  0  0  0  0  0
    4.4918    1.0292    0.0000 C   0  0  0  0  0  0  0  0  0  0  0  0
    3.3328   -0.2579    0.0000 C   0  0  0  0  0  0  0  0  0  0  0  0
    5.9781   -0.3090    0.0000 C   0  0  0  0  0  0  0  0  0  0  0  0
    6.7212   -0.9781    0.0000 C   0  0  0  0  0  0  0  0  0  0  0  0
    2.5896    0.4112    0.0000 C   0  0  0  0  0  0  0  0  0  0  0  0
   12.8104   -0.6691    0.0000 C   0  0  1  0  0  0  0  0  0  0  0  0
    7.6723   -0.6691    0.0000 C   0  0  0  0  0  0  0  0  0  0  0  0
    3.8680   -1.9052    0.0000 C   0  0  0  0  0  0  0  0  0  0  0  0
   11.8594   -0.9781    0.0000 C   0  0  0  0  0  0  0  0  0  0  0  0
   10.2413   -0.9781    0.0000 C   0  0  0  0  0  0  0  0  0  0  0  0
   13.0184    0.3090    0.0000 C   0  0  0  0  0  0  0  0  0  0  0  0
   13.5536   -1.3383    0.0000 C   0  0  0  0  0  0  0  0  0  0  0  0
    9.2903   -0.6691    0.0000 C   0  0  0  0  0  0  0  0  0  0  0  0
   16.9420   -2.0585    0.0000 C   0  0  0  0  0  0  0  0  0  0  0  0
    7.9813    0.2819    0.0000 C   0  0  0  0  0  0  0  0  0  0  0  0
    2.7976    1.3894    0.0000 C   0  0  0  0  0  0  0  0  0  0  0  0
    2.1738   -1.5451    0.0000 C   0  0  0  0  0  0  0  0  0  0  0  0
   10.5504   -1.9292    0.0000 C   0  0  0  0  0  0  0  0  0  0  0  0
   14.5046   -1.0292    0.0000 C   0  0  0  0  0  0  0  0  0  0  0  0
   16.1988   -1.3894    0.0000 C   0  0  0  0  0  0  0  0  0  0  0  0
   15.2478   -1.6984    0.0000 C   0  0  0  0  0  0  0  0  0  0  0  0
   17.8930   -1.7495    0.0000 C   0  0  0  0  0  0  0  0  0  0  0  0
   16.7341   -3.0366    0.0000 C   0  0  0  0  0  0  0  0  0  0  0  0
    2.2623    3.0366    0.0000 C   0  0  0  0  0  0  0  0  0  0  0  0
    4.8735    0.2427    0.0000 H   0  0  0  0  0  0  0  0  0  0  0  0
    5.4878   -1.0329    0.0000 H   0  0  0  0  0  0  0  0  0  0  0  0
    5.0982    0.9003    0.0000 H   0  0  0  0  0  0  0  0  0  0  0  0
    4.6207    1.6357    0.0000 H   0  0  0  0  0  0  0  0  0  0  0  0
    3.8853    1.1582    0.0000 H   0  0  0  0  0  0  0  0  0  0  0  0
    6.1070    0.2974    0.0000 H   0  0  0  0  0  0  0  0  0  0  0  0
    6.5923   -1.5846    0.0000 H   0  0  0  0  0  0  0  0  0  0  0  0
    2.0000    0.2196    0.0000 H   0  0  0  0  0  0  0  0  0  0  0  0
   13.4001   -0.4775    0.0000 H   0  0  0  0  0  0  0  0  0  0  0  0
    3.6764   -1.3155    0.0000 H   0  0  0  0  0  0  0  0  0  0  0  0
    3.2784   -2.0968    0.0000 H   0  0  0  0  0  0  0  0  0  0  0  0
    4.0596   -2.4948    0.0000 H   0  0  0  0  0  0  0  0  0  0  0  0
   13.6248    0.1801    0.0000 H   0  0  0  0  0  0  0  0  0  0  0  0
   13.1473    0.9155    0.0000 H   0  0  0  0  0  0  0  0  0  0  0  0
   12.4119    0.4379    0.0000 H   0  0  0  0  0  0  0  0  0  0  0  0
   13.4247   -1.9447    0.0000 H   0  0  0  0  0  0  0  0  0  0  0  0
   17.4027   -2.4734    0.0000 H   0  0  0  0  0  0  0  0  0  0  0  0
    7.6168    0.7835    0.0000 H   0  0  0  0  0  0  0  0  0  0  0  0
    1.9822   -0.9554    0.0000 H   0  0  0  0  0  0  0  0  0  0  0  0
    1.5842   -1.7367    0.0000 H   0  0  0  0  0  0  0  0  0  0  0  0
    2.3654   -2.1347    0.0000 H   0  0  0  0  0  0  0  0  0  0  0  0
   10.1859   -2.4308    0.0000 H   0  0  0  0  0  0  0  0  0  0  0  0
   14.6335   -0.4228    0.0000 H   0  0  0  0  0  0  0  0  0  0  0  0
   16.3277   -0.7829    0.0000 H   0  0  0  0  0  0  0  0  0  0  0  0
   15.1189   -2.3048    0.0000 H   0  0  0  0  0  0  0  0  0  0  0  0
   18.0846   -2.3391    0.0000 H   0  0  0  0  0  0  0  0  0  0  0  0
   18.4827   -1.5579    0.0000 H   0  0  0  0  0  0  0  0  0  0  0  0
   17.7015   -1.1598    0.0000 H   0  0  0  0  0  0  0  0  0  0  0  0
   16.1276   -2.9077    0.0000 H   0  0  0  0  0  0  0  0  0  0  0  0
   16.6052   -3.6431    0.0000 H   0  0  0  0  0  0  0  0  0  0  0  0
   17.3405   -3.1655    0.0000 H   0  0  0  0  0  0  0  0  0  0  0  0
    2.8688    2.9077    0.0000 H   0  0  0  0  0  0  0  0  0  0  0  0
    2.3912    3.6431    0.0000 H   0  0  0  0  0  0  0  0  0  0  0  0
    1.6559    3.1655    0.0000 H   0  0  0  0  0  0  0  0  0  0  0  0
  1 19  1  0  0  0  0
  1 28  1  0  0  0  0
  2 23  1  0  0  0  0
  2 25  1  0  0  0  0
 10  3  1  6  0  0  0
  3 18  1  0  0  0  0
  4 12  1  0  0  0  0
  4 27  1  0  0  0  0
  5 26  1  0  0  0  0
  5 34  1  0  0  0  0
  6 26  2  0  0  0  0
  7 17  1  0  0  0  0
  7 23  2  0  0  0  0
  8 19  2  0  0  0  0
  8 20  1  0  0  0  0
  9 10  1  0  0  0  0
  9 11  1  6  0  0  0
  9 12  1  0  0  0  0
  9 35  1  0  0  0  0
 10 13  1  0  0  0  0
 10 36  1  0  0  0  0
 11 37  1  0  0  0  0
 11 38  1  0  0  0  0
 11 39  1  0  0  0  0
 12 15  2  0  0  0  0
 13 14  2  0  0  0  0
 13 40  1  0  0  0  0
 14 17  1  0  0  0  0
 14 41  1  0  0  0  0
 15 26  1  0  0  0  0
 15 42  1  0  0  0  0
 16 19  1  0  0  0  0
 16 21  1  1  0  0  0
 16 22  1  0  0  0  0
 16 43  1  0  0  0  0
 17 25  2  0  0  0  0
 18 44  1  0  0  0  0
 18 45  1  0  0  0  0
 18 46  1  0  0  0  0
 20 23  1  0  0  0  0
 20 28  2  0  0  0  0
 21 47  1  0  0  0  0
 21 48  1  0  0  0  0
 21 49  1  0  0  0  0
 22 29  2  0  0  0  0
 22 50  1  0  0  0  0
 24 30  1  0  0  0  0
 24 32  1  0  0  0  0
 24 33  1  0  0  0  0
 24 51  1  0  0  0  0
 25 52  1  0  0  0  0
 27 53  1  0  0  0  0
 27 54  1  0  0  0  0
 27 55  1  0  0  0  0
 28 56  1  0  0  0  0
 29 31  1  0  0  0  0
 29 57  1  0  0  0  0
 30 31  2  0  0  0  0
 30 58  1  0  0  0  0
 31 59  1  0  0  0  0
 32 60  1  0  0  0  0
 32 61  1  0  0  0  0
 32 62  1  0  0  0  0
 33 63  1  0  0  0  0
 33 64  1  0  0  0  0
 33 65  1  0  0  0  0
 34 66  1  0  0  0  0
 34 67  1  0  0  0  0
 34 68  1  0  0  0  0
M  END
> <PUBCHEM_COMPOUND_CID>
9848925

> <PUBCHEM_COMPOUND_CANONICALIZED>
1

> <PUBCHEM_CACTVS_COMPLEXITY>
753

> <PUBCHEM_CACTVS_HBOND_ACCEPTOR>
8

> <PUBCHEM_CACTVS_HBOND_DONOR>
0

> <PUBCHEM_CACTVS_ROTATABLE_BOND>
13

> <PUBCHEM_CACTVS_SUBSKEYS>
AAADcfB7OABgAAAAAAAAAAAAAAAAAWLAAAAAAAAAAAAAAAAB4AAAHgQAAAAADRyl1gKiiRIIFAisASTyTACC+KBhKjgIiDQwJFgIRICgIQAUEAgFwACooQYAAAAIAAAAAAAAAAAAAAAAAAAAAAAAAAAAAA==

> <PUBCHEM_IUPAC_OPENEYE_NAME>
methyl (2E,4R,5S,6E)-7-[2-[2-[(1S,2E,4E)-1,6-dimethylhepta-2,4-dienyl]thiazol-4-yl]thiazol-4-yl]-3,5-dimethoxy-4-methyl-hepta-2,6-dienoate

> <PUBCHEM_IUPAC_CAS_NAME>
(2E,4R,5S,6E)-3,5-dimethoxy-4-methyl-7-[2-[2-[(2S,3E,5E)-7-methylocta-3,5-dien-2-yl]-4-thiazolyl]-4-thiazolyl]hepta-2,6-dienoic acid methyl ester

> <PUBCHEM_IUPAC_NAME>
methyl (2E,4R,5S,6E)-3,5-dimethoxy-4-methyl-7-[2-[2-[(2S,3E,5E)-7-methylocta-3,5-dien-2-yl]-1,3-thiazol-4-yl]-1,3-thiazol-4-yl]hepta-2,6-dienoate

> <PUBCHEM_IUPAC_SYSTEMATIC_NAME>
methyl (2E,4R,5S,6E)-3,5-dimethoxy-4-methyl-7-[2-[2-[(2S,3E,5E)-7-methylocta-3,5-dien-2-yl]-1,3-thiazol-4-yl]-1,3-thiazol-4-yl]hepta-2,6-dienoate

> <PUBCHEM_IUPAC_TRADITIONAL_NAME>
(2E,4R,5S,6E)-7-[2-[2-[(1S,2E,4E)-1,6-dimethylhepta-2,4-dienyl]thiazol-4-yl]thiazol-4-yl]-3,5-dimethoxy-4-methyl-hepta-2,6-dienoic acid methyl ester

> <PUBCHEM_IUPAC_INCHI>
InChI=1S/C26H34N2O4S2/c1-17(2)10-8-9-11-18(3)25-28-21(16-34-25)26-27-20(15-33-26)12-13-22(30-5)19(4)23(31-6)14-24(29)32-7/h8-19,22H,1-7H3/b10-8+,11-9+,13-12+,23-14+/t18-,19+,22-/m0/s1

> <PUBCHEM_IUPAC_INCHIKEY>
DGZAJIFGFBNYNY-RRHUCLDSSA-N

> <PUBCHEM_XLOGP3_AA>
5.8

> <PUBCHEM_EXACT_MASS>
502.196

> <PUBCHEM_MOLECULAR_FORMULA>
C26H34N2O4S2

> <PUBCHEM_MOLECULAR_WEIGHT>
502.68916

> <PUBCHEM_OPENEYE_CAN_SMILES>
CC(C)C=CC=CC(C)C1=NC(=CS1)C2=NC(=CS2)C=CC(C(C)C(=CC(=O)OC)OC)OC

> <PUBCHEM_OPENEYE_ISO_SMILES>
C[C@@H](/C=C/C=C/C(C)C)C1=NC(=CS1)C2=NC(=CS2)/C=C/[C@@H]([C@@H](C)/C(=C\C(=O)OC)/OC)OC

> <PUBCHEM_CACTVS_TPSA>
127

> <PUBCHEM_MONOISOTOPIC_WEIGHT>
502.196

> <PUBCHEM_TOTAL_CHARGE>
0

> <PUBCHEM_HEAVY_ATOM_COUNT>
34

> <PUBCHEM_ATOM_DEF_STEREO_COUNT>
3

> <PUBCHEM_ATOM_UDEF_STEREO_COUNT>
0

> <PUBCHEM_BOND_DEF_STEREO_COUNT>
4

> <PUBCHEM_BOND_UDEF_STEREO_COUNT>
0

> <PUBCHEM_ISOTOPIC_ATOM_COUNT>
0

> <PUBCHEM_COMPONENT_COUNT>
1

> <PUBCHEM_CACTVS_TAUTO_COUNT>
3

> <PUBCHEM_COORDINATE_TYPE>
1
5
255

> <PUBCHEM_BONDANNOTATIONS>
1  19  8
1  28  8
16  21  5
17  25  8
2  23  8
2  25  8
20  28  8
10  3  6
7  17  8
7  23  8
8  19  8
8  20  8
9  11  6

$$$$

