9653
  -OEChem-06261203542D

 41 42  0     1  0  0  0  0  0999 V2000
    2.5010    1.8184    0.0000 S   0  0  0  0  0  0  0  0  0  0  0  0
    2.3100    0.2306    0.0000 O   0  0  0  0  0  0  0  0  0  0  0  0
    5.8100    1.0966    0.0000 N   0  3  0  0  0  0  0  0  0  0  0  0
    4.8100    1.0966    0.0000 C   0  0  0  0  0  0  0  0  0  0  0  0
    4.3100    0.2306    0.0000 C   0  0  0  0  0  0  0  0  0  0  0  0
    3.3100    0.2306    0.0000 C   0  0  3  0  0  0  0  0  0  0  0  0
    6.8100    1.0966    0.0000 C   0  0  0  0  0  0  0  0  0  0  0  0
    5.8100    2.0966    0.0000 C   0  0  0  0  0  0  0  0  0  0  0  0
    5.8100    0.0966    0.0000 C   0  0  0  0  0  0  0  0  0  0  0  0
    3.3100   -0.7694    0.0000 C   0  0  0  0  0  0  0  0  0  0  0  0
    3.3100    1.2306    0.0000 C   0  0  0  0  0  0  0  0  0  0  0  0
    2.4440   -1.2694    0.0000 C   0  0  0  0  0  0  0  0  0  0  0  0
    4.1760   -1.2694    0.0000 C   0  0  0  0  0  0  0  0  0  0  0  0
    4.1190    1.8184    0.0000 C   0  0  0  0  0  0  0  0  0  0  0  0
    3.8100    2.7694    0.0000 C   0  0  0  0  0  0  0  0  0  0  0  0
    2.4440   -2.2694    0.0000 C   0  0  0  0  0  0  0  0  0  0  0  0
    4.1760   -2.2694    0.0000 C   0  0  0  0  0  0  0  0  0  0  0  0
    2.8100    2.7694    0.0000 C   0  0  0  0  0  0  0  0  0  0  0  0
    3.3100   -2.7694    0.0000 C   0  0  0  0  0  0  0  0  0  0  0  0
    4.9177    1.7072    0.0000 H   0  0  0  0  0  0  0  0  0  0  0  0
    4.2274    1.3087    0.0000 H   0  0  0  0  0  0  0  0  0  0  0  0
    4.2023   -0.3800    0.0000 H   0  0  0  0  0  0  0  0  0  0  0  0
    4.8926    0.0185    0.0000 H   0  0  0  0  0  0  0  0  0  0  0  0
    6.8100    0.4766    0.0000 H   0  0  0  0  0  0  0  0  0  0  0  0
    5.1900    0.0966    0.0000 H   0  0  0  0  0  0  0  0  0  0  0  0
    5.8100   -0.5234    0.0000 H   0  0  0  0  0  0  0  0  0  0  0  0
    6.4300    0.0966    0.0000 H   0  0  0  0  0  0  0  0  0  0  0  0
    6.4300    2.0966    0.0000 H   0  0  0  0  0  0  0  0  0  0  0  0
    5.8100    2.7166    0.0000 H   0  0  0  0  0  0  0  0  0  0  0  0
    5.1900    2.0966    0.0000 H   0  0  0  0  0  0  0  0  0  0  0  0
    7.4300    1.0966    0.0000 H   0  0  0  0  0  0  0  0  0  0  0  0
    6.8100    1.7166    0.0000 H   0  0  0  0  0  0  0  0  0  0  0  0
    2.0000    0.7675    0.0000 H   0  0  0  0  0  0  0  0  0  0  0  0
    1.9070   -0.9594    0.0000 H   0  0  0  0  0  0  0  0  0  0  0  0
    4.7130   -0.9594    0.0000 H   0  0  0  0  0  0  0  0  0  0  0  0
    4.7087    1.6268    0.0000 H   0  0  0  0  0  0  0  0  0  0  0  0
    4.1744    3.2710    0.0000 H   0  0  0  0  0  0  0  0  0  0  0  0
    1.9070   -2.5794    0.0000 H   0  0  0  0  0  0  0  0  0  0  0  0
    4.7130   -2.5794    0.0000 H   0  0  0  0  0  0  0  0  0  0  0  0
    2.4456    3.2710    0.0000 H   0  0  0  0  0  0  0  0  0  0  0  0
    3.3100   -3.3894    0.0000 H   0  0  0  0  0  0  0  0  0  0  0  0
  1 11  1  0  0  0  0
  1 18  1  0  0  0  0
  2  6  1  0  0  0  0
  2 33  1  0  0  0  0
  3  4  1  0  0  0  0
  3  7  1  0  0  0  0
  3  8  1  0  0  0  0
  3  9  1  0  0  0  0
  4  5  1  0  0  0  0
  4 20  1  0  0  0  0
  4 21  1  0  0  0  0
  5  6  1  0  0  0  0
  5 22  1  0  0  0  0
  5 23  1  0  0  0  0
  6 10  1  0  0  0  0
  6 11  1  0  0  0  0
  7 24  1  0  0  0  0
  7 31  1  0  0  0  0
  7 32  1  0  0  0  0
  8 28  1  0  0  0  0
  8 29  1  0  0  0  0
  8 30  1  0  0  0  0
  9 25  1  0  0  0  0
  9 26  1  0  0  0  0
  9 27  1  0  0  0  0
 10 12  2  0  0  0  0
 10 13  1  0  0  0  0
 11 14  2  0  0  0  0
 12 16  1  0  0  0  0
 12 34  1  0  0  0  0
 13 17  2  0  0  0  0
 13 35  1  0  0  0  0
 14 15  1  0  0  0  0
 14 36  1  0  0  0  0
 15 18  2  0  0  0  0
 15 37  1  0  0  0  0
 16 19  2  0  0  0  0
 16 38  1  0  0  0  0
 17 19  1  0  0  0  0
 17 39  1  0  0  0  0
 18 40  1  0  0  0  0
 19 41  1  0  0  0  0
M  CHG  1   3   1
M  END
> <PUBCHEM_COMPOUND_CID>
9653

> <PUBCHEM_COMPOUND_CANONICALIZED>
1

> <PUBCHEM_CACTVS_COMPLEXITY>
283

> <PUBCHEM_CACTVS_HBOND_ACCEPTOR>
2

> <PUBCHEM_CACTVS_HBOND_DONOR>
1

> <PUBCHEM_CACTVS_ROTATABLE_BOND>
5

> <PUBCHEM_CACTVS_SUBSKEYS>
AAADceB6IABAAAAAAAAAAAAAAAAAASAAAAAwAAAAAAAAAAABwAAAHgQACAAADETF2ASyAYMAAgiEAiBCAAADAIAgCBBIiBgICIgIJiKgkRCEcAAmwAEomAeQwOAOgAAAAAAAAAAAAAAAAAAAAAAAAAAAAA==

> <PUBCHEM_IUPAC_OPENEYE_NAME>
[3-hydroxy-3-phenyl-3-(2-thienyl)propyl]-trimethyl-ammonium

> <PUBCHEM_IUPAC_CAS_NAME>
(3-hydroxy-3-phenyl-3-thiophen-2-ylpropyl)-trimethylammonium

> <PUBCHEM_IUPAC_NAME>
(3-hydroxy-3-phenyl-3-thiophen-2-ylpropyl)-trimethylazanium

> <PUBCHEM_IUPAC_SYSTEMATIC_NAME>
trimethyl-(3-oxidanyl-3-phenyl-3-thiophen-2-yl-propyl)azanium

> <PUBCHEM_IUPAC_TRADITIONAL_NAME>
[3-hydroxy-3-phenyl-3-(2-thienyl)propyl]-trimethyl-ammonium

> <PUBCHEM_IUPAC_INCHI>
InChI=1S/C16H22NOS/c1-17(2,3)12-11-16(18,15-10-7-13-19-15)14-8-5-4-6-9-14/h4-10,13,18H,11-12H2,1-3H3/q+1

> <PUBCHEM_IUPAC_INCHIKEY>
AENQBVNYZBBBFF-UHFFFAOYSA-N

> <PUBCHEM_XLOGP3_AA>
2.7

> <PUBCHEM_EXACT_MASS>
276.14221

> <PUBCHEM_MOLECULAR_FORMULA>
C16H22NOS+

> <PUBCHEM_MOLECULAR_WEIGHT>
276.41698

> <PUBCHEM_OPENEYE_CAN_SMILES>
C[N+](C)(C)CCC(C1=CC=CC=C1)(C2=CC=CS2)O

> <PUBCHEM_OPENEYE_ISO_SMILES>
C[N+](C)(C)CCC(C1=CC=CC=C1)(C2=CC=CS2)O

> <PUBCHEM_CACTVS_TPSA>
48.5

> <PUBCHEM_MONOISOTOPIC_WEIGHT>
276.14221

> <PUBCHEM_TOTAL_CHARGE>
1

> <PUBCHEM_HEAVY_ATOM_COUNT>
19

> <PUBCHEM_ATOM_DEF_STEREO_COUNT>
0

> <PUBCHEM_ATOM_UDEF_STEREO_COUNT>
1

> <PUBCHEM_BOND_DEF_STEREO_COUNT>
0

> <PUBCHEM_BOND_UDEF_STEREO_COUNT>
0

> <PUBCHEM_ISOTOPIC_ATOM_COUNT>
0

> <PUBCHEM_COMPONENT_COUNT>
1

> <PUBCHEM_CACTVS_TAUTO_COUNT>
1

> <PUBCHEM_COORDINATE_TYPE>
1
5
255

> <PUBCHEM_BONDANNOTATIONS>
1  11  8
1  18  8
10  12  8
10  13  8
11  14  8
12  16  8
13  17  8
14  15  8
15  18  8
16  19  8
17  19  8
6  2  3

$$$$

