   Color/Form

     * White to off-white powder
     * Yellowish powder

   from [1]HSDB

   Odor
        Odorless
   from [2]HSDB

   Melting Point
        200-210 deg C (mixture of two diastereoisomers)
   from [3]HSDB

   Corrosivity
        Non-corrosive
   from [4]HSDB

   Dissociation Constants
        pKa = 4.04 @ 21 deg C
   from [5]HSDB

   Solubilities

     * Sol in dimethylsulfoxide
     * Solubility at 20-25 deg C (g/l): dimethylformamide 730.0; ethyl
       acetate 25.0; acetone 22.3; chloroform 10.1; ethanol 8.2; methanol
       5.6; ethyl ether 3.7; hexane 0.2
     * In water: 19 mg/l @ 20 deg C

   from [6]HSDB

   Spectral Properties

     * UV max (ethanol) 260 nm (E 1%/1 cm 538-582)
     * UV-spectrum shows two characteristic maxima at 260 and 310 nm and
       two minima at 230 and 300 nm

   from [7]HSDB

   Vapor Pressure
        0.002 mPa @ 20 deg C = 1.5X10-8 mm Hg @ 20 deg C
   from [8]HSDB

   Other Chemical/Physical Properties

     * Technical grade bromadiolone is 97% pure. ... Tech. grade is a
       yellowish powder; mp 200-210 degrees (mixture of 2
       diastereoisomers)
     * Thermally stable below 200 deg C.
     * Yellowish powder /Technical grade/

   from [9]HSDB

   Computed Properties
   Molecular Weight                  527.40522 [g/mol]
   Molecular Formula                 C[30]H[23]BrO[4]
   XLogP3                            6.1
   H-Bond Donor                      2
   H-Bond Acceptor                   4
   Rotatable Bond Count              6
   Tautomer Count                    3
   Exact Mass                        526.077971
   MonoIsotopic Mass                 526.077971
   Topological Polar Surface Area    66.8
   Heavy Atom Count                  35
   Formal Charge                     0
   Complexity                        744
   Isotope Atom Count                0
   Defined Atom Stereocenter Count   0
   Undefined Atom Stereocenter Count 2
   Defined Bond Stereocenter Count   0
   Undefined Bond Stereocenter Count 0
   Covalently-Bonded Unit Count      1
   Feature 3D Acceptor Count         2
   Feature 3D Donor Count            2
   Feature 3D Hydrophobe Count       1
   Feature 3D Ring Count             5
   Effective Rotor Count             6
   Conformer Sampling RMSD           0.8
   CID Conformer Count               [10]104

References

   1. http://toxnet.nlm.nih.gov/cgi-bin/sis/search/r?dbs+hsdb:@term+@rn+@rel+28772-56-7
   2. http://toxnet.nlm.nih.gov/cgi-bin/sis/search/r?dbs+hsdb:@term+@rn+@rel+28772-56-7
   3. http://toxnet.nlm.nih.gov/cgi-bin/sis/search/r?dbs+hsdb:@term+@rn+@rel+28772-56-7
   4. http://toxnet.nlm.nih.gov/cgi-bin/sis/search/r?dbs+hsdb:@term+@rn+@rel+28772-56-7
   5. http://toxnet.nlm.nih.gov/cgi-bin/sis/search/r?dbs+hsdb:@term+@rn+@rel+28772-56-7
   6. http://toxnet.nlm.nih.gov/cgi-bin/sis/search/r?dbs+hsdb:@term+@rn+@rel+28772-56-7
   7. http://toxnet.nlm.nih.gov/cgi-bin/sis/search/r?dbs+hsdb:@term+@rn+@rel+28772-56-7
   8. http://toxnet.nlm.nih.gov/cgi-bin/sis/search/r?dbs+hsdb:@term+@rn+@rel+28772-56-7
   9. http://toxnet.nlm.nih.gov/cgi-bin/sis/search/r?dbs+hsdb:@term+@rn+@rel+28772-56-7
  10. http://pubchem.ncbi.nlm.nih.gov/vw3d/vw3d.cgi?cid=54680085
