   Color/Form
        White crystals from CH2Cl2/ether
   from [1]HSDB

   Melting Point
        99-100 deg C (decomposes)
   from [2]HSDB

   Dissociation Constants
        pKa1 = 1.9; pKa2 = 3.2; pKa3 = 4.2 (amines) (est)
   from [3]HSDB

   Octanol/Water Partition Coefficient
        log Kow = 1.17 /Estimated/
   from [4]HSDB

   Vapor Pressure
        2.2X10-15 mm Hg at 25 deg C /Estimated/
   from [5]HSDB

   Other Chemical/Physical Properties

     * White crystals from ether, mp 140-141 deg C (decomposes) /Sodium
       salt/
     * White to yellowish white solid. Very soluble in water and methanol.
       Freely soluble in alcohol, chloroform and ethyl acetate. Insoluble
       in ether and n-hexane. /Sodium salt/
     * Henry's Law constant: 1.2X10-17 atm-cu m/mole at 25 deg C
       /Estimated/
     * Hydroxy radical reaction rate constant = 4.4X10-11 cu cm/molec-sec
       at 25 deg C /Estimated/

   from [6]HSDB

   Computed Properties
   Molecular Weight                  359.44264 [g/mol]
   Molecular Formula                 C[18]H[21]N[3]O[3]S
   XLogP3                            1.9
   H-Bond Donor                      1
   H-Bond Acceptor                   6
   Rotatable Bond Count              8
   Exact Mass                        359.130363
   MonoIsotopic Mass                 359.130363
   Topological Polar Surface Area    96.3
   Heavy Atom Count                  25
   Formal Charge                     0
   Complexity                        440
   Isotope Atom Count                0
   Defined Atom Stereocenter Count   0
   Undefined Atom Stereocenter Count 1
   Defined Bond Stereocenter Count   0
   Undefined Bond Stereocenter Count 0
   Covalently-Bonded Unit Count      1
   Feature 3D Acceptor Count         4
   Feature 3D Donor Count            1
   Feature 3D Cation Count           1
   Feature 3D Ring Count             3
   Effective Rotor Count             8
   Conformer Sampling RMSD           0.8
   CID Conformer Count               [7]440

References

   1. http://toxnet.nlm.nih.gov/cgi-bin/sis/search/r?dbs+hsdb:@term+@rn+@rel+117976-89-3
   2. http://toxnet.nlm.nih.gov/cgi-bin/sis/search/r?dbs+hsdb:@term+@rn+@rel+117976-89-3
   3. http://toxnet.nlm.nih.gov/cgi-bin/sis/search/r?dbs+hsdb:@term+@rn+@rel+117976-89-3
   4. http://toxnet.nlm.nih.gov/cgi-bin/sis/search/r?dbs+hsdb:@term+@rn+@rel+117976-89-3
   5. http://toxnet.nlm.nih.gov/cgi-bin/sis/search/r?dbs+hsdb:@term+@rn+@rel+117976-89-3
   6. http://toxnet.nlm.nih.gov/cgi-bin/sis/search/r?dbs+hsdb:@term+@rn+@rel+117976-89-3
   7. http://pubchem.ncbi.nlm.nih.gov/vw3d/vw3d.cgi?cid=5029
