6436449
  -OEChem-07051213122D

 42 44  0     1  0  0  0  0  0999 V2000
    2.8660   -2.8512    0.0000 Cl  0  0  0  0  0  0  0  0  0  0  0  0
    4.2389    0.3285    0.0000 O   0  0  0  0  0  0  0  0  0  0  0  0
    5.1808   -0.4052    0.0000 N   0  0  0  0  0  0  0  0  0  0  0  0
    4.2673   -0.8120    0.0000 N   0  0  0  0  0  0  0  0  0  0  0  0
    5.3500   -2.0144    0.0000 N   0  0  0  0  0  0  0  0  0  0  0  0
    5.3147    1.9852    0.0000 C   0  0  0  0  0  0  0  0  0  0  0  0
    4.6456    1.2421    0.0000 C   0  0  3  0  0  0  0  0  0  0  0  0
    4.8147    2.8512    0.0000 C   0  0  0  0  0  0  0  0  0  0  0  0
    3.7320    1.6488    0.0000 C   0  0  0  0  0  0  0  0  0  0  0  0
    3.8366    2.6433    0.0000 C   0  0  0  0  0  0  0  0  0  0  0  0
    5.3887    0.5729    0.0000 C   0  0  0  0  0  0  0  0  0  0  0  0
    6.1808    2.4852    0.0000 C   0  0  0  0  0  0  0  0  0  0  0  0
    6.0579    1.3161    0.0000 C   0  0  0  0  0  0  0  0  0  0  0  0
    2.8660    1.1488    0.0000 C   0  0  0  0  0  0  0  0  0  0  0  0
    2.8660    0.1488    0.0000 C   0  0  0  0  0  0  0  0  0  0  0  0
    5.8500   -1.1484    0.0000 C   0  0  0  0  0  0  0  0  0  0  0  0
    2.0000   -0.3512    0.0000 C   0  0  0  0  0  0  0  0  0  0  0  0
    3.7320   -0.3512    0.0000 C   0  0  0  0  0  0  0  0  0  0  0  0
    4.3718   -1.8065    0.0000 C   0  0  0  0  0  0  0  0  0  0  0  0
    2.0000   -1.3512    0.0000 C   0  0  0  0  0  0  0  0  0  0  0  0
    3.7320   -1.3512    0.0000 C   0  0  0  0  0  0  0  0  0  0  0  0
    2.8660   -1.8512    0.0000 C   0  0  0  0  0  0  0  0  0  0  0  0
    5.3811    3.1034    0.0000 H   0  0  0  0  0  0  0  0  0  0  0  0
    4.6231    3.4409    0.0000 H   0  0  0  0  0  0  0  0  0  0  0  0
    3.7718    3.2599    0.0000 H   0  0  0  0  0  0  0  0  0  0  0  0
    3.2166    2.6433    0.0000 H   0  0  0  0  0  0  0  0  0  0  0  0
    5.9636    0.3407    0.0000 H   0  0  0  0  0  0  0  0  0  0  0  0
    5.7173    1.0987    0.0000 H   0  0  0  0  0  0  0  0  0  0  0  0
    6.4908    1.9483    0.0000 H   0  0  0  0  0  0  0  0  0  0  0  0
    6.7177    2.7952    0.0000 H   0  0  0  0  0  0  0  0  0  0  0  0
    5.8708    3.0221    0.0000 H   0  0  0  0  0  0  0  0  0  0  0  0
    5.6430    0.8553    0.0000 H   0  0  0  0  0  0  0  0  0  0  0  0
    6.5186    0.9012    0.0000 H   0  0  0  0  0  0  0  0  0  0  0  0
    6.4727    1.7768    0.0000 H   0  0  0  0  0  0  0  0  0  0  0  0
    3.6223    0.2637    0.0000 H   0  0  0  0  0  0  0  0  0  0  0  0
    2.3291    1.4588    0.0000 H   0  0  0  0  0  0  0  0  0  0  0  0
    6.4666   -1.0836    0.0000 H   0  0  0  0  0  0  0  0  0  0  0  0
    1.4631   -0.0412    0.0000 H   0  0  0  0  0  0  0  0  0  0  0  0
    4.2690   -0.0412    0.0000 H   0  0  0  0  0  0  0  0  0  0  0  0
    3.9111   -2.2214    0.0000 H   0  0  0  0  0  0  0  0  0  0  0  0
    1.4631   -1.6612    0.0000 H   0  0  0  0  0  0  0  0  0  0  0  0
    4.2690   -1.6612    0.0000 H   0  0  0  0  0  0  0  0  0  0  0  0
  1 22  1  0  0  0  0
  2  7  1  0  0  0  0
  2 35  1  0  0  0  0
  3  4  1  0  0  0  0
  3 11  1  0  0  0  0
  3 16  1  0  0  0  0
  4 19  2  0  0  0  0
  5 16  2  0  0  0  0
  5 19  1  0  0  0  0
  6  7  1  0  0  0  0
  6  8  1  0  0  0  0
  6 12  1  0  0  0  0
  6 13  1  0  0  0  0
  7  9  1  0  0  0  0
  7 11  1  0  0  0  0
  8 10  1  0  0  0  0
  8 23  1  0  0  0  0
  8 24  1  0  0  0  0
  9 10  1  0  0  0  0
  9 14  2  0  0  0  0
 10 25  1  0  0  0  0
 10 26  1  0  0  0  0
 11 27  1  0  0  0  0
 11 28  1  0  0  0  0
 12 29  1  0  0  0  0
 12 30  1  0  0  0  0
 12 31  1  0  0  0  0
 13 32  1  0  0  0  0
 13 33  1  0  0  0  0
 13 34  1  0  0  0  0
 14 15  1  0  0  0  0
 14 36  1  0  0  0  0
 15 17  2  0  0  0  0
 15 18  1  0  0  0  0
 16 37  1  0  0  0  0
 17 20  1  0  0  0  0
 17 38  1  0  0  0  0
 18 21  2  0  0  0  0
 18 39  1  0  0  0  0
 19 40  1  0  0  0  0
 20 22  2  0  0  0  0
 20 41  1  0  0  0  0
 21 22  1  0  0  0  0
 21 42  1  0  0  0  0
M  END
> <PUBCHEM_COMPOUND_CID>
6436449

> <PUBCHEM_COMPOUND_CANONICALIZED>
1

> <PUBCHEM_CACTVS_COMPLEXITY>
432

> <PUBCHEM_CACTVS_HBOND_ACCEPTOR>
3

> <PUBCHEM_CACTVS_HBOND_DONOR>
1

> <PUBCHEM_CACTVS_ROTATABLE_BOND>
3

> <PUBCHEM_CACTVS_SUBSKEYS>
AAADceB7IAAEAAAAAAAAAAAAAAAAAeIAAAAwAAAAAAAAAAABwAAAHgIICAAADkbBmCQ3EIYIEgCiAiBDJAASAAswhYAdyAAIAoiKLCKBmxCEcAAsgAIYmAeQwFAPhAAAAAAAAAAIAAAAAAAAAAAADAAAAA==

> <PUBCHEM_IUPAC_OPENEYE_NAME>
(5Z)-5-[(4-chlorophenyl)methylene]-2,2-dimethyl-1-(1,2,4-triazol-1-ylmethyl)cyclopentanol

> <PUBCHEM_IUPAC_CAS_NAME>
(5Z)-5-[(4-chlorophenyl)methylidene]-2,2-dimethyl-1-(1,2,4-triazol-1-ylmethyl)-1-cyclopentanol

> <PUBCHEM_IUPAC_NAME>
(5Z)-5-[(4-chlorophenyl)methylidene]-2,2-dimethyl-1-(1,2,4-triazol-1-ylmethyl)cyclopentan-1-ol

> <PUBCHEM_IUPAC_SYSTEMATIC_NAME>
(5Z)-5-[(4-chlorophenyl)methylidene]-2,2-dimethyl-1-(1,2,4-triazol-1-ylmethyl)cyclopentan-1-ol

> <PUBCHEM_IUPAC_TRADITIONAL_NAME>
(5Z)-5-(4-chlorobenzylidene)-2,2-dimethyl-1-(1,2,4-triazol-1-ylmethyl)cyclopentanol

> <PUBCHEM_IUPAC_INCHI>
InChI=1S/C17H20ClN3O/c1-16(2)8-7-14(9-13-3-5-15(18)6-4-13)17(16,22)10-21-12-19-11-20-21/h3-6,9,11-12,22H,7-8,10H2,1-2H3/b14-9-

> <PUBCHEM_IUPAC_INCHIKEY>
PPDBOQMNKNNODG-ZROIWOOFSA-N

> <PUBCHEM_XLOGP3_AA>
3.1

> <PUBCHEM_EXACT_MASS>
317.12949

> <PUBCHEM_MOLECULAR_FORMULA>
C17H20ClN3O

> <PUBCHEM_MOLECULAR_WEIGHT>
317.8132

> <PUBCHEM_OPENEYE_CAN_SMILES>
CC1(CCC(=CC2=CC=C(C=C2)Cl)C1(CN3C=NC=N3)O)C

> <PUBCHEM_OPENEYE_ISO_SMILES>
CC1(CC/C(=C/C2=CC=C(C=C2)Cl)/C1(CN3C=NC=N3)O)C

> <PUBCHEM_CACTVS_TPSA>
50.9

> <PUBCHEM_MONOISOTOPIC_WEIGHT>
317.12949

> <PUBCHEM_TOTAL_CHARGE>
0

> <PUBCHEM_HEAVY_ATOM_COUNT>
22

> <PUBCHEM_ATOM_DEF_STEREO_COUNT>
0

> <PUBCHEM_ATOM_UDEF_STEREO_COUNT>
1

> <PUBCHEM_BOND_DEF_STEREO_COUNT>
1

> <PUBCHEM_BOND_UDEF_STEREO_COUNT>
0

> <PUBCHEM_ISOTOPIC_ATOM_COUNT>
0

> <PUBCHEM_COMPONENT_COUNT>
1

> <PUBCHEM_CACTVS_TAUTO_COUNT>
1

> <PUBCHEM_COORDINATE_TYPE>
1
5
255

> <PUBCHEM_BONDANNOTATIONS>
15  17  8
15  18  8
17  20  8
18  21  8
20  22  8
21  22  8
3  16  8
3  4  8
4  19  8
5  16  8
5  19  8
7  11  3

$$$$

