   Color/Form

     * White crystalline solid
     * Almost colorless, rhombohedral crystals or needles from ethanol
     * White lustrous crystals

   from [1]HSDB

   Taste
        Bitter
   from [2]HSDB

   Boiling Point
        Decomposes at boiling point
   from [3]HSDB

   Melting Point
        176-178 deg C
   from [4]HSDB

   Critical Temperature and Pressure
        Critical temerature: 854 K; critical pressure: 8.23X10+6 Pa
   from [5]HSDB

   Density/Specific Gravity
        1.405 g/cu cm at 25 deg C
   from [6]HSDB

   Heat of Vaporization
        6.0034X10+7 J/kmol at 454.15 K
   from [7]HSDB

   Octanol/Water Partition Coefficient
        log Kow = -1.08
   from [8]HSDB

   Solubilities

     * Soluble in alcohol; sparingly soluble in ether. Soluble in water at
       25 deg C: 1 part in 11
     * Soluble in ammonium thiocyanate solution, cold water; nearly
       insoluble in ether
     * Aqueous solubility data in g/L: 0.4676 at 0 deg C; 85.07 at 10 deg
       C; 117.5 at 20 deg C; 133.9 at 25 deg C; 167.4 at 30 deg C; 235.5
       at 40 deg C; 415.2 at 60 deg C, 579.8 at 80 deg C; 704.1 at 100 deg
       C
     * In water, 1.42X10+5 mg/L at 25 deg C

   from [9]HSDB

   Spectral Properties

     * MAX ABSORPTION (H2O PH 7.4): 238 NM (LOG E= 4.1); SADTLER REF
       NUMBER: 3962, 12062 (IR, PRISM); 8315 (IR, GRATING)
     * Max absorption (methanol): 241 nm (UV)
     * IR: 4841 (Coblentz Society Spectral Collection)
     * UV: 3292 (Sadtler Research Laboratories Spectral Collection)
     * Raman: 941 (Sadtler Research Laboratories Spectral Collection)
     * MASS: 52446 (NIST/EPA/MSDC Mass Spectral Database 1990 version)

   from [10]HSDB

   Surface Tension
        1.0404X10-2 N/m at 454.15 K
   from [11]HSDB

   Vapor Pressure
        2.8X10-3 mm Hg at 25 deg C
   from [12]HSDB

   Other Chemical/Physical Properties

     * Neutral reaction; forms addition compound with metallic salts
     * Sublimes in vacuo at 150-160 deg C
     * Henry's Law constant = 2.0X10-9 atm-cu m/mole at 25 deg C (est)
     * Hydroxyl radical reaction rate constant = 4.2X10-11 cu
       cm/molecule-sec at 25 deg C (est)

   from [13]HSDB

   Computed Properties
   Molecular Weight                  76.12086 [g/mol]
   Molecular Formula                 CH[4]N[2]S
   XLogP3-AA                         -0.8
   H-Bond Donor                      2
   H-Bond Acceptor                   1
   Rotatable Bond Count              0
   Tautomer Count                    2
   Exact Mass                        76.009519
   MonoIsotopic Mass                 76.009519
   Topological Polar Surface Area    84.1
   Heavy Atom Count                  4
   Formal Charge                     0
   Complexity                        29
   Isotope Atom Count                0
   Defined Atom Stereocenter Count   0
   Undefined Atom Stereocenter Count 0
   Defined Bond Stereocenter Count   0
   Undefined Bond Stereocenter Count 0
   Covalently-Bonded Unit Count      1
   Feature 3D Acceptor Count         1
   Feature 3D Donor Count            2
   Effective Rotor Count             0
   Conformer Sampling RMSD           0.4
   CID Conformer Count               [14]1

References

   1. http://toxnet.nlm.nih.gov/cgi-bin/sis/search/r?dbs+hsdb:@term+@rn+@rel+62-56-6
   2. http://toxnet.nlm.nih.gov/cgi-bin/sis/search/r?dbs+hsdb:@term+@rn+@rel+62-56-6
   3. http://toxnet.nlm.nih.gov/cgi-bin/sis/search/r?dbs+hsdb:@term+@rn+@rel+62-56-6
   4. http://toxnet.nlm.nih.gov/cgi-bin/sis/search/r?dbs+hsdb:@term+@rn+@rel+62-56-6
   5. http://toxnet.nlm.nih.gov/cgi-bin/sis/search/r?dbs+hsdb:@term+@rn+@rel+62-56-6
   6. http://toxnet.nlm.nih.gov/cgi-bin/sis/search/r?dbs+hsdb:@term+@rn+@rel+62-56-6
   7. http://toxnet.nlm.nih.gov/cgi-bin/sis/search/r?dbs+hsdb:@term+@rn+@rel+62-56-6
   8. http://toxnet.nlm.nih.gov/cgi-bin/sis/search/r?dbs+hsdb:@term+@rn+@rel+62-56-6
   9. http://toxnet.nlm.nih.gov/cgi-bin/sis/search/r?dbs+hsdb:@term+@rn+@rel+62-56-6
  10. http://toxnet.nlm.nih.gov/cgi-bin/sis/search/r?dbs+hsdb:@term+@rn+@rel+62-56-6
  11. http://toxnet.nlm.nih.gov/cgi-bin/sis/search/r?dbs+hsdb:@term+@rn+@rel+62-56-6
  12. http://toxnet.nlm.nih.gov/cgi-bin/sis/search/r?dbs+hsdb:@term+@rn+@rel+62-56-6
  13. http://toxnet.nlm.nih.gov/cgi-bin/sis/search/r?dbs+hsdb:@term+@rn+@rel+62-56-6
  14. http://pubchem.ncbi.nlm.nih.gov/vw3d/vw3d.cgi?cid=2723790
