   Color/Form

     * LEAVES FROM PETROLEUM ETHER; WHITE-BROWN SCALES
     * White crystalline substance, browning upon aging.

   from [1]HSDB

   Odor

     * CHARACTERISTIC FECAL ODOR AT HIGH LEVELS, BECOMING PLEASANT, SWEET,
       AND WARM AT VERY LOW LEVELS
     * Fecal odor

   from [2]HSDB

   Taste
        WARM, OVER-RIPE, FRUITY FLAVOR BELOW 0.1 PPM
   from [3]HSDB

   Boiling Point
        265-266 DEG C @ 755 MM HG
   from [4]HSDB

   Melting Point
        95 DEG C
   from [5]HSDB

   Octanol/Water Partition Coefficient
        LogP= 2.60
   from [6]HSDB

   Solubilities

     * SOL IN HOT WATER, ALC, BENZENE, CHLOROFORM, ETHER
     * SOL IN ACETONE, WATER, ETHANOL, ETHER

   from [7]HSDB

   Spectral Properties

     * MAX ABSORPTION (ALCOHOL): 223 NM (LOG E= 4.51), 281 NM (LOG E=
       3.80), 290 NM (LOG E= 3.94)
     * IR: 3823 (Sadtler Research Laboratories Prism Collection)
     * UV: 5-172 (Organic Electronic Spectral Data, Phillips et al, John
       Wiley & Sons, New York)
     * NMR: 231 (Varian Associates NMR Spectra Catalogue)
     * MASS: 277 (National Bureau of Standards EPA-NIH Mass Spectra Data
       Base, NSRDS-NBS-63)

   from [8]HSDB

   Vapor Pressure
        0.0055 mm Hg
   from [9]HSDB

   Other Chemical/Physical Properties
        WITH POTASSIUM FERROCYANIDE AND SULFURIC ACID IT GIVES A VIOLET
   COLOR
   from [10]HSDB

   Computed Properties
   Molecular Weight                  131.17446 [g/mol]
   Molecular Formula                 C[9]H[9]N
   XLogP3                            2.6
   H-Bond Donor                      1
   H-Bond Acceptor                   0
   Rotatable Bond Count              0
   Exact Mass                        131.073499
   MonoIsotopic Mass                 131.073499
   Topological Polar Surface Area    15.8
   Heavy Atom Count                  10
   Formal Charge                     0
   Complexity                        122
   Isotope Atom Count                0
   Defined Atom Stereocenter Count   0
   Undefined Atom Stereocenter Count 0
   Defined Bond Stereocenter Count   0
   Undefined Bond Stereocenter Count 0
   Covalently-Bonded Unit Count      1
   Feature 3D Donor Count            1
   Feature 3D Cation Count           1
   Feature 3D Ring Count             2
   Effective Rotor Count             0
   Conformer Sampling RMSD           0.4
   CID Conformer Count               [11]1

References

   1. http://toxnet.nlm.nih.gov/cgi-bin/sis/search/r?dbs+hsdb:@term+@rn+@rel+83-34-1
   2. http://toxnet.nlm.nih.gov/cgi-bin/sis/search/r?dbs+hsdb:@term+@rn+@rel+83-34-1
   3. http://toxnet.nlm.nih.gov/cgi-bin/sis/search/r?dbs+hsdb:@term+@rn+@rel+83-34-1
   4. http://toxnet.nlm.nih.gov/cgi-bin/sis/search/r?dbs+hsdb:@term+@rn+@rel+83-34-1
   5. http://toxnet.nlm.nih.gov/cgi-bin/sis/search/r?dbs+hsdb:@term+@rn+@rel+83-34-1
   6. http://toxnet.nlm.nih.gov/cgi-bin/sis/search/r?dbs+hsdb:@term+@rn+@rel+83-34-1
   7. http://toxnet.nlm.nih.gov/cgi-bin/sis/search/r?dbs+hsdb:@term+@rn+@rel+83-34-1
   8. http://toxnet.nlm.nih.gov/cgi-bin/sis/search/r?dbs+hsdb:@term+@rn+@rel+83-34-1
   9. http://toxnet.nlm.nih.gov/cgi-bin/sis/search/r?dbs+hsdb:@term+@rn+@rel+83-34-1
  10. http://toxnet.nlm.nih.gov/cgi-bin/sis/search/r?dbs+hsdb:@term+@rn+@rel+83-34-1
  11. http://pubchem.ncbi.nlm.nih.gov/vw3d/vw3d.cgi?cid=6736
