   Color/Form

     * White crystals or powder
     * Tetragonal prisms

   from [1]HSDB

   Odor

     * MAY GRADUALLY DEVELOP SLIGHT ODOR OF AMMONIA, ESP IN PRESENCE OF
       MOISTURE
     * Almost odorless

   from [2]HSDB

   Taste
        Cooling, saline taste
   from [3]HSDB

   Boiling Point
        Decomposes
   from [4]HSDB

   Melting Point
        132.70 deg C
   from [5]HSDB

   Density/Specific Gravity
        1.3230 @ 20 deg C/4 deg C
   from [6]HSDB

   Dissociation Constants
        pKa = 0.10 @ 21 deg C
   from [7]HSDB

   Octanol/Water Partition Coefficient
        log Kow = -2.11
   from [8]HSDB

   pH
        7.2 (10% solution)
   from [9]HSDB

   Solubilities

     * 10 ml 95% alc, 6 ml methanol, 1 ml boiling 95% alc, 20 ml abs alc,
       2 ml glycerol; almost insol in chloroform, ether; sol in concn HCl
     * INSOL IN BENZENE; SOL IN ACETIC ACID
     * Sol in pyrimidine
     * In water, 5.45X10+5 mg/l @ 25 deg C

   from [10]HSDB

   Spectral Properties

     * IR: SADG 123 (Sadtler Research Laboratories IR Grating Collection)
     * UV: OES 1-3 (Organic Electronic Spectral Data, Phillips et al, John
       Wiley & Sons, New York)
     * 1H NMR: SAD 16982 (Sadtler Research Laboratories Spectral
       Collection)
     * MS: NIST 19004 (NIST/EPA MSDC Mass Spectral Database 1990 version)

   from [11]HSDB

   Vapor Pressure
        1.2X10-5 mm Hg @ 25 deg C
   from [12]HSDB

   Viscosity
        1.78 mPa-s (46% solution @ 20 deg C); 1.81 mP-s @ 137 deg C; 1.90
   mPa-s (saturated solution @ 20 deg C)
   from [13]HSDB

   Other Chemical/Physical Properties

     * On further heating it decomp to biuret, NH3, cyanuric acid; pH of
       10% water soln: 7.2; density of water soln (wt/wt): 1.027 @ 10%;
       1.054 @ 20%; 1.145 @ 50%
     * Ionization potential = 9 eV; Latent heat of fusion = 15.4 kJ/mol
       (at melting point); Latent heat of sublimation = 87.9 kJ/mol @ 25
       deg C; Heat of formation = -333.7 kJ/mol @ 25 deg C; Decomposition
       temp = 135 deg C

   from [14]HSDB

   Computed Properties
   Molecular Weight                  60.05526 [g/mol]
   Molecular Formula                 CH[4]N[2]O
   XLogP3-AA                         -1.4
   H-Bond Donor                      2
   H-Bond Acceptor                   1
   Rotatable Bond Count              0
   Tautomer Count                    2
   Exact Mass                        60.032363
   MonoIsotopic Mass                 60.032363
   Topological Polar Surface Area    69.1
   Heavy Atom Count                  4
   Formal Charge                     0
   Complexity                        29
   Isotope Atom Count                0
   Defined Atom Stereocenter Count   0
   Undefined Atom Stereocenter Count 0
   Defined Bond Stereocenter Count   0
   Undefined Bond Stereocenter Count 0
   Covalently-Bonded Unit Count      1
   Feature 3D Acceptor Count         1
   Feature 3D Donor Count            2
   Effective Rotor Count             0
   Conformer Sampling RMSD           0.4
   CID Conformer Count               [15]1

References

   1. http://toxnet.nlm.nih.gov/cgi-bin/sis/search/r?dbs+hsdb:@term+@rn+@rel+57-13-6
   2. http://toxnet.nlm.nih.gov/cgi-bin/sis/search/r?dbs+hsdb:@term+@rn+@rel+57-13-6
   3. http://toxnet.nlm.nih.gov/cgi-bin/sis/search/r?dbs+hsdb:@term+@rn+@rel+57-13-6
   4. http://toxnet.nlm.nih.gov/cgi-bin/sis/search/r?dbs+hsdb:@term+@rn+@rel+57-13-6
   5. http://toxnet.nlm.nih.gov/cgi-bin/sis/search/r?dbs+hsdb:@term+@rn+@rel+57-13-6
   6. http://toxnet.nlm.nih.gov/cgi-bin/sis/search/r?dbs+hsdb:@term+@rn+@rel+57-13-6
   7. http://toxnet.nlm.nih.gov/cgi-bin/sis/search/r?dbs+hsdb:@term+@rn+@rel+57-13-6
   8. http://toxnet.nlm.nih.gov/cgi-bin/sis/search/r?dbs+hsdb:@term+@rn+@rel+57-13-6
   9. http://toxnet.nlm.nih.gov/cgi-bin/sis/search/r?dbs+hsdb:@term+@rn+@rel+57-13-6
  10. http://toxnet.nlm.nih.gov/cgi-bin/sis/search/r?dbs+hsdb:@term+@rn+@rel+57-13-6
  11. http://toxnet.nlm.nih.gov/cgi-bin/sis/search/r?dbs+hsdb:@term+@rn+@rel+57-13-6
  12. http://toxnet.nlm.nih.gov/cgi-bin/sis/search/r?dbs+hsdb:@term+@rn+@rel+57-13-6
  13. http://toxnet.nlm.nih.gov/cgi-bin/sis/search/r?dbs+hsdb:@term+@rn+@rel+57-13-6
  14. http://toxnet.nlm.nih.gov/cgi-bin/sis/search/r?dbs+hsdb:@term+@rn+@rel+57-13-6
  15. http://pubchem.ncbi.nlm.nih.gov/vw3d/vw3d.cgi?cid=1176
