9930667
  -OEChem-07051213122D

 33 34  0     1  0  0  0  0  0999 V2000
    2.0000   -0.5352    0.0000 Cl  0  0  0  0  0  0  0  0  0  0  0  0
    5.4641   -0.5352    0.0000 Cl  0  0  0  0  0  0  0  0  0  0  0  0
    4.8198    2.8126    0.0000 S   0  0  3  0  0  0  0  0  0  0  0  0
    3.7320   -4.5352    0.0000 F   0  0  0  0  0  0  0  0  0  0  0  0
    2.7320   -3.5352    0.0000 F   0  0  0  0  0  0  0  0  0  0  0  0
    4.7320   -3.5352    0.0000 F   0  0  0  0  0  0  0  0  0  0  0  0
    5.8144    2.7081    0.0000 O   0  0  0  0  0  0  0  0  0  0  0  0
    3.7320    0.4648    0.0000 N   0  0  0  0  0  0  0  0  0  0  0  0
    2.9230    1.0526    0.0000 N   0  0  0  0  0  0  0  0  0  0  0  0
    5.4921    0.7436    0.0000 N   0  0  0  0  0  0  0  0  0  0  0  0
    2.0565    3.6217    0.0000 N   0  0  0  0  0  0  0  0  0  0  0  0
    4.5411    1.0526    0.0000 C   0  0  0  0  0  0  0  0  0  0  0  0
    4.2320    2.0036    0.0000 C   0  0  0  0  0  0  0  0  0  0  0  0
    3.7320   -0.5352    0.0000 C   0  0  0  0  0  0  0  0  0  0  0  0
    3.2320    2.0036    0.0000 C   0  0  0  0  0  0  0  0  0  0  0  0
    2.8660   -1.0352    0.0000 C   0  0  0  0  0  0  0  0  0  0  0  0
    4.5981   -1.0352    0.0000 C   0  0  0  0  0  0  0  0  0  0  0  0
    3.7320   -2.5352    0.0000 C   0  0  0  0  0  0  0  0  0  0  0  0
    4.4131    3.7262    0.0000 C   0  0  0  0  0  0  0  0  0  0  0  0
    2.8660   -2.0352    0.0000 C   0  0  0  0  0  0  0  0  0  0  0  0
    4.5981   -2.0352    0.0000 C   0  0  0  0  0  0  0  0  0  0  0  0
    5.0009    4.5352    0.0000 C   0  0  0  0  0  0  0  0  0  0  0  0
    3.7320   -3.5352    0.0000 C   0  0  0  0  0  0  0  0  0  0  0  0
    2.6443    2.8126    0.0000 C   0  0  0  0  0  0  0  0  0  0  0  0
    3.9824    4.1722    0.0000 H   0  0  0  0  0  0  0  0  0  0  0  0
    3.8991    3.3795    0.0000 H   0  0  0  0  0  0  0  0  0  0  0  0
    2.3291   -2.3452    0.0000 H   0  0  0  0  0  0  0  0  0  0  0  0
    5.1350   -2.3452    0.0000 H   0  0  0  0  0  0  0  0  0  0  0  0
    5.9529    1.1584    0.0000 H   0  0  0  0  0  0  0  0  0  0  0  0
    5.6210    0.1371    0.0000 H   0  0  0  0  0  0  0  0  0  0  0  0
    5.5025    4.1708    0.0000 H   0  0  0  0  0  0  0  0  0  0  0  0
    5.3653    5.0368    0.0000 H   0  0  0  0  0  0  0  0  0  0  0  0
    4.4993    4.8996    0.0000 H   0  0  0  0  0  0  0  0  0  0  0  0
  1 16  1  0  0  0  0
  2 17  1  0  0  0  0
  3  7  2  0  0  0  0
  3 13  1  0  0  0  0
  3 19  1  0  0  0  0
  4 23  1  0  0  0  0
  5 23  1  0  0  0  0
  6 23  1  0  0  0  0
  8  9  1  0  0  0  0
  8 12  1  0  0  0  0
  8 14  1  0  0  0  0
  9 15  2  0  0  0  0
 10 12  1  0  0  0  0
 10 29  1  0  0  0  0
 10 30  1  0  0  0  0
 11 24  3  0  0  0  0
 12 13  2  0  0  0  0
 13 15  1  0  0  0  0
 14 16  2  0  0  0  0
 14 17  1  0  0  0  0
 15 24  1  0  0  0  0
 16 20  1  0  0  0  0
 17 21  2  0  0  0  0
 18 20  2  0  0  0  0
 18 21  1  0  0  0  0
 18 23  1  0  0  0  0
 19 22  1  0  0  0  0
 19 25  1  0  0  0  0
 19 26  1  0  0  0  0
 20 27  1  0  0  0  0
 21 28  1  0  0  0  0
 22 31  1  0  0  0  0
 22 32  1  0  0  0  0
 22 33  1  0  0  0  0
M  END
> <PUBCHEM_COMPOUND_CID>
9930667

> <PUBCHEM_COMPOUND_CANONICALIZED>
1

> <PUBCHEM_CACTVS_COMPLEXITY>
531

> <PUBCHEM_CACTVS_HBOND_ACCEPTOR>
8

> <PUBCHEM_CACTVS_HBOND_DONOR>
1

> <PUBCHEM_CACTVS_ROTATABLE_BOND>
3

> <PUBCHEM_CACTVS_SUBSKEYS>
AAADccBzoYBGAAAAAAAAAAAAAAAAAWAAAAAwAAAAAAAAAAABwAAAHQYYAAAADAqFXjCz8ZJIAAqyByZiZEDyBCMhDRAUmDQgRpiIoGLh09HEpAhwiALoyC8QgAAOCAAAIACAABAQAABAAQAAIAAAAAAAAA==

> <PUBCHEM_IUPAC_OPENEYE_NAME>
5-amino-1-[2,6-dichloro-4-(trifluoromethyl)phenyl]-4-ethylsulfinyl-pyrazole-3-carbonitrile

> <PUBCHEM_IUPAC_CAS_NAME>
5-amino-1-[2,6-dichloro-4-(trifluoromethyl)phenyl]-4-ethylsulfinyl-3-pyrazolecarbonitrile

> <PUBCHEM_IUPAC_NAME>
5-amino-1-[2,6-dichloro-4-(trifluoromethyl)phenyl]-4-ethylsulfinylpyrazole-3-carbonitrile

> <PUBCHEM_IUPAC_SYSTEMATIC_NAME>
5-azanyl-1-[2,6-bis(chloranyl)-4-(trifluoromethyl)phenyl]-4-ethylsulfinyl-pyrazole-3-carbonitrile

> <PUBCHEM_IUPAC_TRADITIONAL_NAME>
5-amino-1-[2,6-dichloro-4-(trifluoromethyl)phenyl]-4-ethylsulfinyl-pyrazole-3-carbonitrile

> <PUBCHEM_IUPAC_INCHI>
InChI=1S/C13H9Cl2F3N4OS/c1-2-24(23)11-9(5-19)21-22(12(11)20)10-7(14)3-6(4-8(10)15)13(16,17)18/h3-4H,2,20H2,1H3

> <PUBCHEM_IUPAC_INCHIKEY>
FNELVJVBIYMIMC-UHFFFAOYSA-N

> <PUBCHEM_XLOGP3_AA>
3.7

> <PUBCHEM_EXACT_MASS>
395.982622

> <PUBCHEM_MOLECULAR_FORMULA>
C13H9Cl2F3N4OS

> <PUBCHEM_MOLECULAR_WEIGHT>
397.20297

> <PUBCHEM_OPENEYE_CAN_SMILES>
CCS(=O)C1=C(N(N=C1C#N)C2=C(C=C(C=C2Cl)C(F)(F)F)Cl)N

> <PUBCHEM_OPENEYE_ISO_SMILES>
CCS(=O)C1=C(N(N=C1C#N)C2=C(C=C(C=C2Cl)C(F)(F)F)Cl)N

> <PUBCHEM_CACTVS_TPSA>
104

> <PUBCHEM_MONOISOTOPIC_WEIGHT>
395.982622

> <PUBCHEM_TOTAL_CHARGE>
0

> <PUBCHEM_HEAVY_ATOM_COUNT>
24

> <PUBCHEM_ATOM_DEF_STEREO_COUNT>
0

> <PUBCHEM_ATOM_UDEF_STEREO_COUNT>
1

> <PUBCHEM_BOND_DEF_STEREO_COUNT>
0

> <PUBCHEM_BOND_UDEF_STEREO_COUNT>
0

> <PUBCHEM_ISOTOPIC_ATOM_COUNT>
0

> <PUBCHEM_COMPONENT_COUNT>
1

> <PUBCHEM_CACTVS_TAUTO_COUNT>
3

> <PUBCHEM_COORDINATE_TYPE>
1
5
255

> <PUBCHEM_BONDANNOTATIONS>
12  13  8
13  15  8
14  16  8
14  17  8
16  20  8
17  21  8
18  20  8
18  21  8
3  19  3
8  12  8
8  9  8
9  15  8

$$$$

