49787021
  -OEChem-07051213072D

105108  0     1  0  0  0  0  0999 V2000
   10.3317   -2.0000    0.0000 O   0  0  0  0  0  0  0  0  0  0  0  0
   12.0632   -1.0000    0.0000 O   0  0  0  0  0  0  0  0  0  0  0  0
    9.4651    0.5000    0.0000 O   0  0  0  0  0  0  0  0  0  0  0  0
   13.7953   -1.0000    0.0000 O   0  0  0  0  0  0  0  0  0  0  0  0
    4.2690    0.5000    0.0000 O   0  0  0  0  0  0  0  0  0  0  0  0
    5.1350    2.0000    0.0000 O   0  0  0  0  0  0  0  0  0  0  0  0
   12.0632   -3.0000    0.0000 O   0  0  0  0  0  0  0  0  0  0  0  0
   13.7953   -4.0000    0.0000 O   0  0  0  0  0  0  0  0  0  0  0  0
    5.2939   -3.2071    0.0000 O   0  0  0  0  0  0  0  0  0  0  0  0
   15.5273   -3.0000    0.0000 O   0  0  0  0  0  0  0  0  0  0  0  0
    2.5369    3.5000    0.0000 O   0  0  0  0  0  0  0  0  0  0  0  0
    2.5369    1.5000    0.0000 O   0  0  0  0  0  0  0  0  0  0  0  0
    6.8671   -4.0000    0.0000 O   0  0  0  0  0  0  0  0  0  0  0  0
    8.5991   -1.0000    0.0000 O   0  0  0  0  0  0  0  0  0  0  0  0
    9.4651   -1.5000    0.0000 C   0  0  2  0  0  0  0  0  0  0  0  0
   10.3312   -1.0000    0.0000 C   0  0  1  0  0  0  0  0  0  0  0  0
    9.4651   -2.5000    0.0000 C   0  0  1  0  0  0  0  0  0  0  0  0
   10.3312    0.0000    0.0000 C   0  0  1  0  0  0  0  0  0  0  0  0
   11.1972   -1.5000    0.0000 C   0  0  0  0  0  0  0  0  0  0  0  0
    8.5991   -3.0000    0.0000 C   0  0  0  0  0  0  0  0  0  0  0  0
    5.1350   -1.0000    0.0000 C   0  0  2  0  0  0  0  0  0  0  0  0
   12.9292   -1.5000    0.0000 C   0  0  2  0  0  0  0  0  0  0  0  0
    5.1350    0.0000    0.0000 C   0  0  1  0  0  0  0  0  0  0  0  0
   12.9292   -2.5000    0.0000 C   0  0  1  0  0  0  0  0  0  0  0  0
    6.0010   -1.5000    0.0000 C   0  0  0  0  0  0  0  0  0  0  0  0
   13.7953   -3.0000    0.0000 C   0  0  1  0  0  0  0  0  0  0  0  0
   11.1972    0.5000    0.0000 C   0  0  0  0  0  0  0  0  0  0  0  0
    6.0010   -2.5000    0.0000 C   0  0  1  0  0  0  0  0  0  0  0  0
   14.6613   -2.5000    0.0000 C   0  0  1  0  0  0  0  0  0  0  0  0
    6.0010    0.5000    0.0000 C   0  0  2  0  0  0  0  0  0  0  0  0
   14.6613   -1.5000    0.0000 C   0  0  1  0  0  0  0  0  0  0  0  0
    7.7331   -2.5000    0.0000 C   0  0  0  0  0  0  0  0  0  0  0  0
    4.2690    1.5000    0.0000 C   0  0  2  0  0  0  0  0  0  0  0  0
    3.4030    2.0000    0.0000 C   0  0  1  0  0  0  0  0  0  0  0  0
    6.8671   -3.0000    0.0000 C   0  0  0  0  0  0  0  0  0  0  0  0
    3.4030    3.0000    0.0000 C   0  0  2  0  0  0  0  0  0  0  0  0
    4.2690   -1.5000    0.0000 C   0  0  0  0  0  0  0  0  0  0  0  0
    4.2690    3.5000    0.0000 C   0  0  0  0  0  0  0  0  0  0  0  0
    5.1350    3.0000    0.0000 C   0  0  1  0  0  0  0  0  0  0  0  0
    5.0048   -2.4128    0.0000 C   0  0  0  0  0  0  0  0  0  0  0  0
    6.8671    0.0000    0.0000 C   0  0  0  0  0  0  0  0  0  0  0  0
    6.0010    1.5000    0.0000 C   0  0  0  0  0  0  0  0  0  0  0  0
   15.5273   -1.0000    0.0000 C   0  0  0  0  0  0  0  0  0  0  0  0
    8.5991    0.0000    0.0000 C   0  0  0  0  0  0  0  0  0  0  0  0
    7.7331    0.5000    0.0000 C   0  0  0  0  0  0  0  0  0  0  0  0
    6.0010    3.5000    0.0000 C   0  0  0  0  0  0  0  0  0  0  0  0
   12.0632   -4.0000    0.0000 C   0  0  0  0  0  0  0  0  0  0  0  0
   14.6613   -4.5000    0.0000 C   0  0  0  0  0  0  0  0  0  0  0  0
    2.5369    4.5000    0.0000 C   0  0  0  0  0  0  0  0  0  0  0  0
    8.9282   -1.1900    0.0000 H   0  0  0  0  0  0  0  0  0  0  0  0
   10.8681   -0.6900    0.0000 H   0  0  0  0  0  0  0  0  0  0  0  0
    9.7751   -3.0370    0.0000 H   0  0  0  0  0  0  0  0  0  0  0  0
   10.3312    0.6200    0.0000 H   0  0  0  0  0  0  0  0  0  0  0  0
   10.7987   -1.9750    0.0000 H   0  0  0  0  0  0  0  0  0  0  0  0
   11.5957   -1.9750    0.0000 H   0  0  0  0  0  0  0  0  0  0  0  0
    8.5991   -3.6200    0.0000 H   0  0  0  0  0  0  0  0  0  0  0  0
    5.1350   -1.6200    0.0000 H   0  0  0  0  0  0  0  0  0  0  0  0
   12.3923   -1.8100    0.0000 H   0  0  0  0  0  0  0  0  0  0  0  0
    5.1350    0.6200    0.0000 H   0  0  0  0  0  0  0  0  0  0  0  0
   12.3923   -2.1900    0.0000 H   0  0  0  0  0  0  0  0  0  0  0  0
    6.6116   -1.6077    0.0000 H   0  0  0  0  0  0  0  0  0  0  0  0
    6.2131   -0.9174    0.0000 H   0  0  0  0  0  0  0  0  0  0  0  0
   14.3322   -3.3100    0.0000 H   0  0  0  0  0  0  0  0  0  0  0  0
   11.5072   -0.0369    0.0000 H   0  0  0  0  0  0  0  0  0  0  0  0
   11.7341    0.8100    0.0000 H   0  0  0  0  0  0  0  0  0  0  0  0
   10.8872    1.0369    0.0000 H   0  0  0  0  0  0  0  0  0  0  0  0
   14.6613   -3.1200    0.0000 H   0  0  0  0  0  0  0  0  0  0  0  0
    6.5380    0.8100    0.0000 H   0  0  0  0  0  0  0  0  0  0  0  0
   14.6613   -0.8800    0.0000 H   0  0  0  0  0  0  0  0  0  0  0  0
    7.7331   -1.8800    0.0000 H   0  0  0  0  0  0  0  0  0  0  0  0
    3.7320    1.1900    0.0000 H   0  0  0  0  0  0  0  0  0  0  0  0
    3.4030    1.3800    0.0000 H   0  0  0  0  0  0  0  0  0  0  0  0
    3.4030    3.6200    0.0000 H   0  0  0  0  0  0  0  0  0  0  0  0
    3.9590   -0.9631    0.0000 H   0  0  0  0  0  0  0  0  0  0  0  0
    3.7320   -1.8100    0.0000 H   0  0  0  0  0  0  0  0  0  0  0  0
    4.5790   -2.0369    0.0000 H   0  0  0  0  0  0  0  0  0  0  0  0
    4.6675    3.9750    0.0000 H   0  0  0  0  0  0  0  0  0  0  0  0
    3.8705    3.9750    0.0000 H   0  0  0  0  0  0  0  0  0  0  0  0
    5.6720    2.6900    0.0000 H   0  0  0  0  0  0  0  0  0  0  0  0
    5.0589   -1.7951    0.0000 H   0  0  0  0  0  0  0  0  0  0  0  0
    4.3872   -2.3587    0.0000 H   0  0  0  0  0  0  0  0  0  0  0  0
    4.9508   -3.0304    0.0000 H   0  0  0  0  0  0  0  0  0  0  0  0
    6.8671   -0.6200    0.0000 H   0  0  0  0  0  0  0  0  0  0  0  0
    6.6210    1.5000    0.0000 H   0  0  0  0  0  0  0  0  0  0  0  0
    6.0010    2.1200    0.0000 H   0  0  0  0  0  0  0  0  0  0  0  0
    5.3810    1.5000    0.0000 H   0  0  0  0  0  0  0  0  0  0  0  0
   15.8373   -1.5369    0.0000 H   0  0  0  0  0  0  0  0  0  0  0  0
   16.0643   -0.6900    0.0000 H   0  0  0  0  0  0  0  0  0  0  0  0
   15.2173   -0.4631    0.0000 H   0  0  0  0  0  0  0  0  0  0  0  0
    7.7331    1.1200    0.0000 H   0  0  0  0  0  0  0  0  0  0  0  0
    5.4544   -3.8060    0.0000 H   0  0  0  0  0  0  0  0  0  0  0  0
   16.0643   -2.6900    0.0000 H   0  0  0  0  0  0  0  0  0  0  0  0
    6.3110    2.9631    0.0000 H   0  0  0  0  0  0  0  0  0  0  0  0
    6.5380    3.8100    0.0000 H   0  0  0  0  0  0  0  0  0  0  0  0
    5.6910    4.0369    0.0000 H   0  0  0  0  0  0  0  0  0  0  0  0
    2.0000    1.8100    0.0000 H   0  0  0  0  0  0  0  0  0  0  0  0
   11.4432   -4.0000    0.0000 H   0  0  0  0  0  0  0  0  0  0  0  0
   12.0632   -4.6200    0.0000 H   0  0  0  0  0  0  0  0  0  0  0  0
   12.6832   -4.0000    0.0000 H   0  0  0  0  0  0  0  0  0  0  0  0
   14.3513   -5.0369    0.0000 H   0  0  0  0  0  0  0  0  0  0  0  0
   15.1982   -4.8100    0.0000 H   0  0  0  0  0  0  0  0  0  0  0  0
   14.9713   -3.9631    0.0000 H   0  0  0  0  0  0  0  0  0  0  0  0
    3.1569    4.5000    0.0000 H   0  0  0  0  0  0  0  0  0  0  0  0
    2.5369    5.1200    0.0000 H   0  0  0  0  0  0  0  0  0  0  0  0
    1.9169    4.5000    0.0000 H   0  0  0  0  0  0  0  0  0  0  0  0
 15  1  1  6  0  0  0
 17  1  1  6  0  0  0
  2 19  1  0  0  0  0
 22  2  1  6  0  0  0
  3 18  1  0  0  0  0
  3 44  1  0  0  0  0
  4 22  1  0  0  0  0
  4 31  1  0  0  0  0
 23  5  1  6  0  0  0
 33  5  1  1  0  0  0
  6 33  1  0  0  0  0
  6 39  1  0  0  0  0
 24  7  1  1  0  0  0
  7 47  1  0  0  0  0
 26  8  1  1  0  0  0
  8 48  1  0  0  0  0
 28  9  1  1  0  0  0
  9 91  1  0  0  0  0
 29 10  1  1  0  0  0
 10 92  1  0  0  0  0
 36 11  1  1  0  0  0
 11 49  1  0  0  0  0
 34 12  1  6  0  0  0
 12 96  1  0  0  0  0
 13 35  2  0  0  0  0
 14 44  2  0  0  0  0
 15 16  1  0  0  0  0
 15 17  1  0  0  0  0
 15 50  1  0  0  0  0
 16 18  1  0  0  0  0
 16 19  1  1  0  0  0
 16 51  1  0  0  0  0
 17 20  1  0  0  0  0
 17 52  1  0  0  0  0
 18 27  1  6  0  0  0
 18 53  1  0  0  0  0
 19 54  1  0  0  0  0
 19 55  1  0  0  0  0
 20 32  2  0  0  0  0
 20 56  1  0  0  0  0
 21 23  1  0  0  0  0
 21 25  1  0  0  0  0
 21 37  1  6  0  0  0
 21 57  1  0  0  0  0
 22 24  1  0  0  0  0
 22 58  1  0  0  0  0
 23 30  1  0  0  0  0
 23 59  1  0  0  0  0
 24 26  1  0  0  0  0
 24 60  1  0  0  0  0
 25 28  1  0  0  0  0
 25 61  1  0  0  0  0
 25 62  1  0  0  0  0
 26 29  1  0  0  0  0
 26 63  1  0  0  0  0
 27 64  1  0  0  0  0
 27 65  1  0  0  0  0
 27 66  1  0  0  0  0
 28 35  1  0  0  0  0
 28 40  1  0  0  0  0
 29 31  1  0  0  0  0
 29 67  1  0  0  0  0
 30 41  1  0  0  0  0
 30 42  1  1  0  0  0
 30 68  1  0  0  0  0
 31 43  1  6  0  0  0
 31 69  1  0  0  0  0
 32 35  1  0  0  0  0
 32 70  1  0  0  0  0
 33 34  1  0  0  0  0
 33 71  1  0  0  0  0
 34 36  1  0  0  0  0
 34 72  1  0  0  0  0
 36 38  1  0  0  0  0
 36 73  1  0  0  0  0
 37 74  1  0  0  0  0
 37 75  1  0  0  0  0
 37 76  1  0  0  0  0
 38 39  1  0  0  0  0
 38 77  1  0  0  0  0
 38 78  1  0  0  0  0
 39 46  1  1  0  0  0
 39 79  1  0  0  0  0
 40 80  1  0  0  0  0
 40 81  1  0  0  0  0
 40 82  1  0  0  0  0
 41 45  2  0  0  0  0
 41 83  1  0  0  0  0
 42 84  1  0  0  0  0
 42 85  1  0  0  0  0
 42 86  1  0  0  0  0
 43 87  1  0  0  0  0
 43 88  1  0  0  0  0
 43 89  1  0  0  0  0
 44 45  1  0  0  0  0
 45 90  1  0  0  0  0
 46 93  1  0  0  0  0
 46 94  1  0  0  0  0
 46 95  1  0  0  0  0
 47 97  1  0  0  0  0
 47 98  1  0  0  0  0
 47 99  1  0  0  0  0
 48100  1  0  0  0  0
 48101  1  0  0  0  0
 48102  1  0  0  0  0
 49103  1  0  0  0  0
 49104  1  0  0  0  0
 49105  1  0  0  0  0
M  END
> <PUBCHEM_COMPOUND_CID>
49787021

> <PUBCHEM_COMPOUND_CANONICALIZED>
1

> <PUBCHEM_CACTVS_COMPLEXITY>
1160

> <PUBCHEM_CACTVS_HBOND_ACCEPTOR>
14

> <PUBCHEM_CACTVS_HBOND_DONOR>
3

> <PUBCHEM_CACTVS_ROTATABLE_BOND>
8

> <PUBCHEM_CACTVS_SUBSKEYS>
AAADcfB8PAAAAAAAAAAAAAAAEgAAAAAAAAAkSAAAAAAAAAAAAAAAGgAACAAADVSwgAMCCAAABgCIAKDSCAIAAAAgAAAICAFAAEgRFBIAIQAiUAAFwAAPIYPI7NzOAAAAAAAAAAAAAAAAAAAAAAAAAAAAAA==

> <PUBCHEM_IUPAC_OPENEYE_NAME>
(1R,2E,5S,7S,8S,9S,10E,14R,15R,16R)-5-hydroxy-15-[[(2R,3R,4R,5R,6R)-5-hydroxy-3,4-dimethoxy-6-methyl-tetrahydropyran-2-yl]oxymethyl]-8-[(2S,3R,4S,6R)-3-hydroxy-4-methoxy-6-methyl-tetrahydropyran-2-yl]oxy-5,7,9,14-tetramethyl-13,17-dioxabicyclo[14.1.0]heptadeca-2,10-diene-4,12-dione

> <PUBCHEM_IUPAC_CAS_NAME>
(1R,2E,5S,7S,8S,9S,10E,14R,15R,16R)-5-hydroxy-15-[[(2R,3R,4R,5R,6R)-5-hydroxy-3,4-dimethoxy-6-methyl-2-oxanyl]oxymethyl]-8-[[(2S,3R,4S,6R)-3-hydroxy-4-methoxy-6-methyl-2-oxanyl]oxy]-5,7,9,14-tetramethyl-13,17-dioxabicyclo[14.1.0]heptadeca-2,10-diene-4,12-dione

> <PUBCHEM_IUPAC_NAME>
(1R,2E,5S,7S,8S,9S,10E,14R,15R,16R)-5-hydroxy-15-[[(2R,3R,4R,5R,6R)-5-hydroxy-3,4-dimethoxy-6-methyloxan-2-yl]oxymethyl]-8-[(2S,3R,4S,6R)-3-hydroxy-4-methoxy-6-methyloxan-2-yl]oxy-5,7,9,14-tetramethyl-13,17-dioxabicyclo[14.1.0]heptadeca-2,10-diene-4,12-dione

> <PUBCHEM_IUPAC_SYSTEMATIC_NAME>
(1R,2E,5S,7S,8S,9S,10E,14R,15R,16R)-15-[[(2R,3R,4R,5R,6R)-3,4-dimethoxy-6-methyl-5-oxidanyl-oxan-2-yl]oxymethyl]-8-[(2S,3R,4S,6R)-4-methoxy-6-methyl-3-oxidanyl-oxan-2-yl]oxy-5,7,9,14-tetramethyl-5-oxidanyl-13,17-dioxabicyclo[14.1.0]heptadeca-2,10-diene-4,12-dione

> <PUBCHEM_IUPAC_TRADITIONAL_NAME>
(1R,2E,5S,7S,8S,9S,10E,14R,15R,16R)-5-hydroxy-15-[[(2R,3R,4R,5R,6R)-5-hydroxy-3,4-dimethoxy-6-methyl-tetrahydropyran-2-yl]oxymethyl]-8-[(2S,3R,4S,6R)-3-hydroxy-4-methoxy-6-methyl-tetrahydropyran-2-yl]oxy-5,7,9,14-tetramethyl-13,17-dioxabicyclo[14.1.0]heptadeca-2,10-diene-4,12-quinone

> <PUBCHEM_IUPAC_INCHI>
InChI=1S/C35H56O14/c1-17-10-13-26(37)46-20(4)22(16-44-34-32(43-9)31(42-8)27(38)21(5)47-34)30-23(48-30)11-12-25(36)35(6,40)15-18(2)29(17)49-33-28(39)24(41-7)14-19(3)45-33/h10-13,17-24,27-34,38-40H,14-16H2,1-9H3/b12-11+,13-10+/t17-,18-,19+,20+,21+,22+,23+,24-,27+,28+,29+,30+,31+,32+,33-,34+,35-/m0/s1

> <PUBCHEM_IUPAC_INCHIKEY>
KLGADJPDTCIJLO-LJUCOGSUSA-N

> <PUBCHEM_XLOGP3_AA>
1.4

> <PUBCHEM_EXACT_MASS>
700.367006

> <PUBCHEM_MOLECULAR_FORMULA>
C35H56O14

> <PUBCHEM_MOLECULAR_WEIGHT>
700.81074

> <PUBCHEM_OPENEYE_CAN_SMILES>
CC1CC(C(C(O1)OC2C(CC(C(=O)C=CC3C(O3)C(C(OC(=O)C=CC2C)C)COC4C(C(C(C(O4)C)O)OC)OC)(C)O)C)O)OC

> <PUBCHEM_OPENEYE_ISO_SMILES>
C[C@@H]1C[C@@H]([C@H]([C@@H](O1)O[C@H]2[C@H](C[C@](C(=O)/C=C/[C@@H]3[C@H](O3)[C@@H]([C@H](OC(=O)/C=C/[C@@H]2C)C)CO[C@H]4[C@@H]([C@@H]([C@@H]([C@H](O4)C)O)OC)OC)(C)O)C)O)OC

> <PUBCHEM_CACTVS_TPSA>
181

> <PUBCHEM_MONOISOTOPIC_WEIGHT>
700.367006

> <PUBCHEM_TOTAL_CHARGE>
0

> <PUBCHEM_HEAVY_ATOM_COUNT>
49

> <PUBCHEM_ATOM_DEF_STEREO_COUNT>
17

> <PUBCHEM_ATOM_UDEF_STEREO_COUNT>
0

> <PUBCHEM_BOND_DEF_STEREO_COUNT>
2

> <PUBCHEM_BOND_UDEF_STEREO_COUNT>
0

> <PUBCHEM_ISOTOPIC_ATOM_COUNT>
0

> <PUBCHEM_COMPONENT_COUNT>
1

> <PUBCHEM_CACTVS_TAUTO_COUNT>
1

> <PUBCHEM_COORDINATE_TYPE>
1
5
255

> <PUBCHEM_BONDANNOTATIONS>
15  1  6
17  1  6
29  10  5
36  11  5
34  12  6
16  19  5
18  27  6
22  2  6
21  37  6
30  42  5
31  43  6
39  46  5
23  5  6
33  5  5
24  7  5
26  8  5
28  9  5

$$$$

