   Color/Form
        White crystalline solid
   from [1]HSDB

   Boiling Point
        Decomposes at 200-300 deg C (commercial)
   from [2]HSDB

   Melting Point
        -7 to -3 deg C (commercial)
   from [3]HSDB

   Density/Specific Gravity
        2.25-2.28
   from [4]HSDB

   Octanol/Water Partition Coefficient
        log Kow = 6.64-6.97
   from [5]HSDB

   Solubilities

     * Methanol, 1g/100g; dioctylphthalate, >100g/100g; completely
       miscible in methylene chloride, toluene, freon 11, polyol, styrene,
       and methyl ethyl ketone
     * In water, 0.0133 mg/l (commercial product).

   from [6]HSDB

   Vapor Pressure
        2.2X10-7 to 5.5X10-7 mm Hg @ 25 deg C
   from [7]HSDB

   Viscosity
        Highly viscous at room temperature (ca. 2X10+6 cps @ 25 deg C)
   from [8]HSDB

   Other Chemical/Physical Properties
        Amber viscous liquid or semi-solid /Technical/
   from [9]HSDB

   Computed Properties
   Molecular Weight                  564.6875 [g/mol]
   Molecular Formula                 C[12]H[5]Br[5]O
   XLogP3-AA                         6.9
   H-Bond Donor                      0
   H-Bond Acceptor                   1
   Rotatable Bond Count              2
   Exact Mass                        563.621632
   MonoIsotopic Mass                 559.625725
   Topological Polar Surface Area    9.2
   Heavy Atom Count                  18
   Formal Charge                     0
   Complexity                        277
   Isotope Atom Count                0
   Defined Atom Stereocenter Count   0
   Undefined Atom Stereocenter Count 0
   Defined Bond Stereocenter Count   0
   Undefined Bond Stereocenter Count 0
   Covalently-Bonded Unit Count      1
   Feature 3D Acceptor Count         1
   Feature 3D Hydrophobe Count       5
   Feature 3D Ring Count             2
   Effective Rotor Count             2
   Conformer Sampling RMSD           0.6
   CID Conformer Count               [10]14

References

   1. http://toxnet.nlm.nih.gov/cgi-bin/sis/search/r?dbs+hsdb:@term+@rn+@rel+32534-81-9
   2. http://toxnet.nlm.nih.gov/cgi-bin/sis/search/r?dbs+hsdb:@term+@rn+@rel+32534-81-9
   3. http://toxnet.nlm.nih.gov/cgi-bin/sis/search/r?dbs+hsdb:@term+@rn+@rel+32534-81-9
   4. http://toxnet.nlm.nih.gov/cgi-bin/sis/search/r?dbs+hsdb:@term+@rn+@rel+32534-81-9
   5. http://toxnet.nlm.nih.gov/cgi-bin/sis/search/r?dbs+hsdb:@term+@rn+@rel+32534-81-9
   6. http://toxnet.nlm.nih.gov/cgi-bin/sis/search/r?dbs+hsdb:@term+@rn+@rel+32534-81-9
   7. http://toxnet.nlm.nih.gov/cgi-bin/sis/search/r?dbs+hsdb:@term+@rn+@rel+32534-81-9
   8. http://toxnet.nlm.nih.gov/cgi-bin/sis/search/r?dbs+hsdb:@term+@rn+@rel+32534-81-9
   9. http://toxnet.nlm.nih.gov/cgi-bin/sis/search/r?dbs+hsdb:@term+@rn+@rel+32534-81-9
  10. http://pubchem.ncbi.nlm.nih.gov/vw3d/vw3d.cgi?cid=36159
