443195
  -OEChem-07051213012D

 21 22  0     0  0  0  0  0  0999 V2000
    4.5981   -1.3623    0.0000 O   0  0  0  0  0  0  0  0  0  0  0  0
    2.0000    0.1377    0.0000 O   0  0  0  0  0  0  0  0  0  0  0  0
    5.4641    0.1377    0.0000 C   0  0  0  0  0  0  0  0  0  0  0  0
    5.4641    1.1377    0.0000 C   0  0  0  0  0  0  0  0  0  0  0  0
    4.5981   -0.3623    0.0000 C   0  0  0  0  0  0  0  0  0  0  0  0
    3.7320    0.1377    0.0000 C   0  0  0  0  0  0  0  0  0  0  0  0
    4.5981    1.6377    0.0000 C   0  0  0  0  0  0  0  0  0  0  0  0
    6.3580   -0.3970    0.0000 C   0  0  0  0  0  0  0  0  0  0  0  0
    6.3580    1.6723    0.0000 C   0  0  0  0  0  0  0  0  0  0  0  0
    3.7320    1.1377    0.0000 C   0  0  0  0  0  0  0  0  0  0  0  0
    7.2641    0.1169    0.0000 C   0  0  0  0  0  0  0  0  0  0  0  0
    7.2641    1.1585    0.0000 C   0  0  0  0  0  0  0  0  0  0  0  0
    2.8660   -0.3623    0.0000 C   0  0  0  0  0  0  0  0  0  0  0  0
    4.5981    2.2577    0.0000 H   0  0  0  0  0  0  0  0  0  0  0  0
    6.3509   -1.0170    0.0000 H   0  0  0  0  0  0  0  0  0  0  0  0
    6.3509    2.2923    0.0000 H   0  0  0  0  0  0  0  0  0  0  0  0
    3.1951    1.4477    0.0000 H   0  0  0  0  0  0  0  0  0  0  0  0
    7.7998   -0.1952    0.0000 H   0  0  0  0  0  0  0  0  0  0  0  0
    7.7998    1.4706    0.0000 H   0  0  0  0  0  0  0  0  0  0  0  0
    2.8660   -0.9823    0.0000 H   0  0  0  0  0  0  0  0  0  0  0  0
    5.1350   -1.6723    0.0000 H   0  0  0  0  0  0  0  0  0  0  0  0
  1  5  1  0  0  0  0
  1 21  1  0  0  0  0
  2 13  2  0  0  0  0
  3  4  1  0  0  0  0
  3  5  1  0  0  0  0
  3  8  2  0  0  0  0
  4  7  1  0  0  0  0
  4  9  2  0  0  0  0
  5  6  2  0  0  0  0
  6 10  1  0  0  0  0
  6 13  1  0  0  0  0
  7 10  2  0  0  0  0
  7 14  1  0  0  0  0
  8 11  1  0  0  0  0
  8 15  1  0  0  0  0
  9 12  1  0  0  0  0
  9 16  1  0  0  0  0
 10 17  1  0  0  0  0
 11 12  2  0  0  0  0
 11 18  1  0  0  0  0
 12 19  1  0  0  0  0
 13 20  1  0  0  0  0
M  END
> <PUBCHEM_COMPOUND_CID>
443195

> <PUBCHEM_COMPOUND_CANONICALIZED>
1

> <PUBCHEM_CACTVS_COMPLEXITY>
191

> <PUBCHEM_CACTVS_HBOND_ACCEPTOR>
2

> <PUBCHEM_CACTVS_HBOND_DONOR>
1

> <PUBCHEM_CACTVS_ROTATABLE_BOND>
1

> <PUBCHEM_CACTVS_SUBSKEYS>
AAADccBwMAAAAAAAAAAAAAAAAAAAAAAAAAAwYAAAAAAAAADBUAAAGgAACAAADASgmAIwBsAAAgCIAihSgAACAAAkIAAIiAEECMgIJjaCFRKAcUAk4BEImYeIyPCOwAADAAAYAACAAAYAADAAAAAAAAAAAA==

> <PUBCHEM_IUPAC_OPENEYE_NAME>
1-hydroxynaphthalene-2-carbaldehyde

> <PUBCHEM_IUPAC_CAS_NAME>
1-hydroxy-2-naphthalenecarboxaldehyde

> <PUBCHEM_IUPAC_NAME>
1-hydroxynaphthalene-2-carbaldehyde

> <PUBCHEM_IUPAC_SYSTEMATIC_NAME>
1-oxidanylnaphthalene-2-carbaldehyde

> <PUBCHEM_IUPAC_TRADITIONAL_NAME>
1-hydroxynaphthalene-2-carbaldehyde

> <PUBCHEM_IUPAC_INCHI>
InChI=1S/C11H8O2/c12-7-9-6-5-8-3-1-2-4-10(8)11(9)13/h1-7,13H

> <PUBCHEM_IUPAC_INCHIKEY>
OITQDWKMIPXGFL-UHFFFAOYSA-N

> <PUBCHEM_XLOGP3>
2.6

> <PUBCHEM_EXACT_MASS>
172.052429

> <PUBCHEM_MOLECULAR_FORMULA>
C11H8O2

> <PUBCHEM_MOLECULAR_WEIGHT>
172.18002

> <PUBCHEM_OPENEYE_CAN_SMILES>
C1=CC=C2C(=C1)C=CC(=C2O)C=O

> <PUBCHEM_OPENEYE_ISO_SMILES>
C1=CC=C2C(=C1)C=CC(=C2O)C=O

> <PUBCHEM_CACTVS_TPSA>
37.3

> <PUBCHEM_MONOISOTOPIC_WEIGHT>
172.052429

> <PUBCHEM_TOTAL_CHARGE>
0

> <PUBCHEM_HEAVY_ATOM_COUNT>
13

> <PUBCHEM_ATOM_DEF_STEREO_COUNT>
0

> <PUBCHEM_ATOM_UDEF_STEREO_COUNT>
0

> <PUBCHEM_BOND_DEF_STEREO_COUNT>
0

> <PUBCHEM_BOND_UDEF_STEREO_COUNT>
0

> <PUBCHEM_ISOTOPIC_ATOM_COUNT>
0

> <PUBCHEM_COMPONENT_COUNT>
1

> <PUBCHEM_CACTVS_TAUTO_COUNT>
4

> <PUBCHEM_COORDINATE_TYPE>
1
5
255

> <PUBCHEM_BONDANNOTATIONS>
11  12  8
3  4  8
3  5  8
3  8  8
4  7  8
4  9  8
5  6  8
6  10  8
7  10  8
8  11  8
9  12  8

$$$$

