   Color/Form

     * Plates from alc or iso-propyl alc
     * Crystalline, striated blocks from absolute ethanol or isopropanol
     * White, crystalline powder

   from [1]HSDB

   Odor
        Odorless
   from [2]HSDB

   Taste
        Bitter taste
   from [3]HSDB

   Melting Point
        217-220 deg C with some decomposition
   from [4]HSDB

   Octanol/Water Partition Coefficient
        log Kow = 1.61
   from [5]HSDB

   Solubilities

     * Solubilities in various solvents

       Solvent

   mg/mL at 25 deg C

   Ethanol 15.0
   Methanol 6.2
   Acetone 9.3
   Chloroform 1.6
   Ether 0.35
   Propylene glycol 12.7

     Soluble in concentrated sulfuric acid with intense green flourescence

     Soluble in dioxane

     In water, 320 mg/L at 25 deg C

   from [6]HSDB

   Spectral Properties

     * Specific optical rotation: +167 deg at 22 deg C/D (absolute alc)
     * Max absorption: 242 nm (e= 445, 1%, 1 cm)
     * ABSORPTIVITY OF SOLN IN METHANOL (1 IN 1000,000) @ 242 NM DOES NOT
       DIFFER BY MORE THAN 2.5%
     * SADTLER REFERENCE NUMBER: 8758 (IR, PRISM)
     * MASS: 62042 (NIST/EPA/MSDC Mass Spectral Database, 1990 version)
     * IR: 5234 (Coblentz Society Spectral Collection)
     * UV: 20770 (Sadtler Research Laboratories Spectral Collection)

   from [7]HSDB

   Vapor Pressure
        1.35X10-13 mm Hg at 25 deg C (est)
   from [8]HSDB

   Other Chemical/Physical Properties

     * COMMERCIAL SAMPLES: MP 212-213 DEG C. SPECIFIC OPTICAL ROTATION:
       +163 DEG @ 22 DEG C/D (METHANOL, 0.5%)
     * Monoclinic, sphenoidal, tabular crystals from dilute acetone.
       Tasteless. Specific gravity: 1.289 at 20 deg C/4 deg C; decomposes
       at 223 deg C. Specific optical rotation: +166 deg ( c = 0.4 in
       dioxane); +155.7 deg ( C = 0.5 in acetone). UV max (methanol): 242
       nm (E = 390, 1%, 1 cm). Somewhat hygroscopic. Solubility in water:
       1 mg/100 mL; in ethanol: 0.45 g/100 mL; in methanol: 3.9 mg/mL; in
       acetone: 1.1 mg/g; in ether: 0.15 mg/mL. One gram dissolves in
       about 200 mL chloroform. Very soluble in DMF; soluble in dioxane.
       /21-Acetate/
     * UV: 1893 (Absorption Spectra in the UV and visible Regions,
       Academic Press, New York) /Hydrocortisone, acetate/
     * Mol wt: 486.40. White powder. UV max (methanol): 242 nm (A=298-341,
       1%, 1cm). Specific optical rotation: +120 deg C/D (water).
       Solubility in water (25 deg C): >500 mg/mL. pH of a 1% aqueous
       solution: 7.5-8.5 /21-Phosphate disodium salt/
     * Amorphous, hygroscopic, white powder. Mp 169.0-171.2 deg C.
       Solubility in water: approx 500 mg/mL. Similarly soluble in
       methanol, ethanol,; sparingly soluble in chloroform. /21-Sodium
       succinate/
     * Mol wt: 432.55 /17-Butyrate/
     * Mol wt: 446.57 /17-Valerate/
     * MP: 168-169 DEG C & 229-230 DEG C; SPECIFIC OPTICAL ROTATION: +152
       DEG @ 25 DEG C/D (CHLOROFORM); MAX ABSORPTION (METHANOL): 242 NM
       (E= 372, 1%, 1 CM) /TEBUTATE/
     * ODORLESS /HYDROCORTISONE & SALTS/
     * PH: 7.5-8.5 (1% SOLN) /SODIUM PHOSPHATE/
     * SPECIFIC OPTICAL ROTATION: +142 TO +152 DEG /CYPIONATE/
     * Henry's Law constant = 5.77X10-8 atm-cu m/mol at 25 deg C (est)

   from [9]HSDB

   Computed Properties
   Molecular Weight                  362.4599 [g/mol]
   Molecular Formula                 C[21]H[30]O[5]
   XLogP3                            1.6
   H-Bond Donor                      3
   H-Bond Acceptor                   5
   Rotatable Bond Count              2
   Tautomer Count                    15
   Exact Mass                        362.209324
   MonoIsotopic Mass                 362.209324
   Topological Polar Surface Area    94.8
   Heavy Atom Count                  26
   Formal Charge                     0
   Complexity                        684
   Isotope Atom Count                0
   Defined Atom Stereocenter Count   7
   Undefined Atom Stereocenter Count 0
   Defined Bond Stereocenter Count   0
   Undefined Bond Stereocenter Count 0
   Covalently-Bonded Unit Count      1
   Feature 3D Acceptor Count         5
   Feature 3D Donor Count            3
   Feature 3D Ring Count             4
   Effective Rotor Count             3.8
   Conformer Sampling RMSD           0.8
   CID Conformer Count               [10]2

References

   1. http://toxnet.nlm.nih.gov/cgi-bin/sis/search/r?dbs+hsdb:@term+@rn+@rel+50-23-7
   2. http://toxnet.nlm.nih.gov/cgi-bin/sis/search/r?dbs+hsdb:@term+@rn+@rel+50-23-7
   3. http://toxnet.nlm.nih.gov/cgi-bin/sis/search/r?dbs+hsdb:@term+@rn+@rel+50-23-7
   4. http://toxnet.nlm.nih.gov/cgi-bin/sis/search/r?dbs+hsdb:@term+@rn+@rel+50-23-7
   5. http://toxnet.nlm.nih.gov/cgi-bin/sis/search/r?dbs+hsdb:@term+@rn+@rel+50-23-7
   6. http://toxnet.nlm.nih.gov/cgi-bin/sis/search/r?dbs+hsdb:@term+@rn+@rel+50-23-7
   7. http://toxnet.nlm.nih.gov/cgi-bin/sis/search/r?dbs+hsdb:@term+@rn+@rel+50-23-7
   8. http://toxnet.nlm.nih.gov/cgi-bin/sis/search/r?dbs+hsdb:@term+@rn+@rel+50-23-7
   9. http://toxnet.nlm.nih.gov/cgi-bin/sis/search/r?dbs+hsdb:@term+@rn+@rel+50-23-7
  10. http://pubchem.ncbi.nlm.nih.gov/vw3d/vw3d.cgi?cid=5754
