444150
  -OEChem-07051212482D

 33 34  0     1  0  0  0  0  0999 V2000
    7.5673    2.1922    0.0000 P   0  0  0  0  0  0  0  0  0  0  0  0
    4.3211    0.6230    0.0000 O   0  0  0  0  0  0  0  0  0  0  0  0
    6.6353   -0.6594    0.0000 O   0  0  0  0  0  0  0  0  0  0  0  0
    7.2566    1.2417    0.0000 O   0  0  0  0  0  0  0  0  0  0  0  0
    7.8779    3.1427    0.0000 O   0  0  0  0  0  0  0  0  0  0  0  0
    8.5178    1.8815    0.0000 O   0  0  0  0  0  0  0  0  0  0  0  0
    6.6168    2.5029    0.0000 O   0  0  0  0  0  0  0  0  0  0  0  0
    4.6783   -2.6813    0.0000 N   0  0  0  0  0  0  0  0  0  0  0  0
    4.9889   -0.1213    0.0000 C   0  0  1  0  0  0  0  0  0  0  0  0
    4.6783   -1.0718    0.0000 C   0  0  0  0  0  0  0  0  0  0  0  0
    5.9674    0.0849    0.0000 C   0  0  1  0  0  0  0  0  0  0  0  0
    3.7320   -1.3765    0.0000 C   0  0  0  0  0  0  0  0  0  0  0  0
    3.7320   -2.3765    0.0000 C   0  0  0  0  0  0  0  0  0  0  0  0
    5.2619   -1.8765    0.0000 C   0  0  0  0  0  0  0  0  0  0  0  0
    6.2781    1.0355    0.0000 C   0  0  0  0  0  0  0  0  0  0  0  0
    2.8660   -0.8765    0.0000 C   0  0  0  0  0  0  0  0  0  0  0  0
    2.8660   -2.8765    0.0000 C   0  0  0  0  0  0  0  0  0  0  0  0
    2.0000   -1.3765    0.0000 C   0  0  0  0  0  0  0  0  0  0  0  0
    2.0000   -2.3765    0.0000 C   0  0  0  0  0  0  0  0  0  0  0  0
    5.1815    0.4680    0.0000 H   0  0  0  0  0  0  0  0  0  0  0  0
    5.7748   -0.5044    0.0000 H   0  0  0  0  0  0  0  0  0  0  0  0
    5.8819   -1.8765    0.0000 H   0  0  0  0  0  0  0  0  0  0  0  0
    6.2575    1.6551    0.0000 H   0  0  0  0  0  0  0  0  0  0  0  0
    5.6643    1.1228    0.0000 H   0  0  0  0  0  0  0  0  0  0  0  0
    4.8709   -3.2706    0.0000 H   0  0  0  0  0  0  0  0  0  0  0  0
    2.8660   -0.2565    0.0000 H   0  0  0  0  0  0  0  0  0  0  0  0
    2.8660   -3.4965    0.0000 H   0  0  0  0  0  0  0  0  0  0  0  0
    4.5137    1.2124    0.0000 H   0  0  0  0  0  0  0  0  0  0  0  0
    7.2420   -0.5315    0.0000 H   0  0  0  0  0  0  0  0  0  0  0  0
    1.4631   -1.0665    0.0000 H   0  0  0  0  0  0  0  0  0  0  0  0
    1.4631   -2.6865    0.0000 H   0  0  0  0  0  0  0  0  0  0  0  0
    8.4846    3.2706    0.0000 H   0  0  0  0  0  0  0  0  0  0  0  0
    8.6456    1.2749    0.0000 H   0  0  0  0  0  0  0  0  0  0  0  0
  1  4  1  0  0  0  0
  1  5  1  0  0  0  0
  1  6  1  0  0  0  0
  1  7  2  0  0  0  0
  9  2  1  6  0  0  0
  2 28  1  0  0  0  0
 11  3  1  1  0  0  0
  3 29  1  0  0  0  0
  4 15  1  0  0  0  0
  5 32  1  0  0  0  0
  6 33  1  0  0  0  0
  8 13  1  0  0  0  0
  8 14  1  0  0  0  0
  8 25  1  0  0  0  0
  9 10  1  0  0  0  0
  9 11  1  0  0  0  0
  9 20  1  0  0  0  0
 10 12  1  0  0  0  0
 10 14  2  0  0  0  0
 11 15  1  0  0  0  0
 11 21  1  0  0  0  0
 12 13  1  0  0  0  0
 12 16  2  0  0  0  0
 13 17  2  0  0  0  0
 14 22  1  0  0  0  0
 15 23  1  0  0  0  0
 15 24  1  0  0  0  0
 16 18  1  0  0  0  0
 16 26  1  0  0  0  0
 17 19  1  0  0  0  0
 17 27  1  0  0  0  0
 18 19  2  0  0  0  0
 18 30  1  0  0  0  0
 19 31  1  0  0  0  0
M  END
> <PUBCHEM_COMPOUND_CID>
444150

> <PUBCHEM_COMPOUND_CANONICALIZED>
1

> <PUBCHEM_CACTVS_COMPLEXITY>
348

> <PUBCHEM_CACTVS_HBOND_ACCEPTOR>
6

> <PUBCHEM_CACTVS_HBOND_DONOR>
5

> <PUBCHEM_CACTVS_ROTATABLE_BOND>
5

> <PUBCHEM_CACTVS_SUBSKEYS>
AAADccByOAIAAAAAAAAAAAAAAAAAAWAAAAAwAAAAAAAAAFgB8AAAHgAQCCAADBzhngY8wPLJkxCgQzRnRICCgCAxAiAI2aA4bJgJNuLAkZGEcAhn0AHJ2Aew0PMOgAAAAAACAAAAAAAAAAQAAAAAAAAAAA==

> <PUBCHEM_IUPAC_OPENEYE_NAME>
[(2R,3S)-2,3-dihydroxy-3-(1H-indol-3-yl)propyl] dihydrogen phosphate

> <PUBCHEM_IUPAC_CAS_NAME>
[(2R,3S)-2,3-dihydroxy-3-(1H-indol-3-yl)propyl] dihydrogen phosphate

> <PUBCHEM_IUPAC_NAME>
[(2R,3S)-2,3-dihydroxy-3-(1H-indol-3-yl)propyl] dihydrogen phosphate

> <PUBCHEM_IUPAC_SYSTEMATIC_NAME>
[(2R,3S)-3-(1H-indol-3-yl)-2,3-bis(oxidanyl)propyl] dihydrogen phosphate

> <PUBCHEM_IUPAC_TRADITIONAL_NAME>
[(2R,3S)-2,3-dihydroxy-3-(1H-indol-3-yl)propyl] dihydrogen phosphate

> <PUBCHEM_IUPAC_INCHI>
InChI=1S/C11H14NO6P/c13-10(6-18-19(15,16)17)11(14)8-5-12-9-4-2-1-3-7(8)9/h1-5,10-14H,6H2,(H2,15,16,17)/t10-,11+/m1/s1

> <PUBCHEM_IUPAC_INCHIKEY>
NQEQTYPJSIEPHW-MNOVXSKESA-N

> <PUBCHEM_XLOGP3_AA>
-1.2

> <PUBCHEM_EXACT_MASS>
287.055874

> <PUBCHEM_MOLECULAR_FORMULA>
C11H14NO6P

> <PUBCHEM_MOLECULAR_WEIGHT>
287.205722

> <PUBCHEM_OPENEYE_CAN_SMILES>
C1=CC=C2C(=C1)C(=CN2)C(C(COP(=O)(O)O)O)O

> <PUBCHEM_OPENEYE_ISO_SMILES>
C1=CC=C2C(=C1)C(=CN2)[C@@H]([C@@H](COP(=O)(O)O)O)O

> <PUBCHEM_CACTVS_TPSA>
123

> <PUBCHEM_MONOISOTOPIC_WEIGHT>
287.055874

> <PUBCHEM_TOTAL_CHARGE>
0

> <PUBCHEM_HEAVY_ATOM_COUNT>
19

> <PUBCHEM_ATOM_DEF_STEREO_COUNT>
2

> <PUBCHEM_ATOM_UDEF_STEREO_COUNT>
0

> <PUBCHEM_BOND_DEF_STEREO_COUNT>
0

> <PUBCHEM_BOND_UDEF_STEREO_COUNT>
0

> <PUBCHEM_ISOTOPIC_ATOM_COUNT>
0

> <PUBCHEM_COMPONENT_COUNT>
1

> <PUBCHEM_CACTVS_TAUTO_COUNT>
1

> <PUBCHEM_COORDINATE_TYPE>
1
5
255

> <PUBCHEM_BONDANNOTATIONS>
10  12  8
10  14  8
12  13  8
12  16  8
13  17  8
16  18  8
17  19  8
18  19  8
9  2  6
11  3  5
8  13  8
8  14  8

$$$$

