12883
  -OEChem-06261207292D

 36 37  0     1  0  0  0  0  0999 V2000
    4.5743   -0.1256    0.0000 O   0  0  0  0  0  0  0  0  0  0  0  0
    8.0698   -0.3270    0.0000 O   0  0  0  0  0  0  0  0  0  0  0  0
    2.9271    0.4097    0.0000 O   0  0  0  0  0  0  0  0  0  0  0  0
    5.8344    2.1345    0.0000 N   0  0  3  0  0  0  0  0  0  0  0  0
    5.8344    1.1345    0.0000 C   0  0  3  0  0  0  0  0  0  0  0  0
    4.8833    0.8255    0.0000 C   0  0  2  0  0  0  0  0  0  0  0  0
    4.2956    1.6345    0.0000 C   0  0  0  0  0  0  0  0  0  0  0  0
    4.8833    2.4435    0.0000 C   0  0  0  0  0  0  0  0  0  0  0  0
    6.7806    0.8298    0.0000 C   0  0  0  0  0  0  0  0  0  0  0  0
    6.7806    2.4392    0.0000 C   0  0  0  0  0  0  0  0  0  0  0  0
    7.3642    1.6345    0.0000 C   0  0  0  0  0  0  0  0  0  0  0  0
    7.0913   -0.1208    0.0000 C   0  0  0  0  0  0  0  0  0  0  0  0
    3.5962   -0.3335    0.0000 C   0  0  0  0  0  0  0  0  0  0  0  0
    3.2872   -1.2845    0.0000 C   0  0  0  0  0  0  0  0  0  0  0  0
    3.9563   -2.0277    0.0000 C   0  0  0  0  0  0  0  0  0  0  0  0
    2.3090   -1.4925    0.0000 C   0  0  0  0  0  0  0  0  0  0  0  0
    2.0000   -2.4435    0.0000 C   0  0  0  0  0  0  0  0  0  0  0  0
    5.8352    0.5145    0.0000 H   0  0  0  0  0  0  0  0  0  0  0  0
    4.2710    0.7285    0.0000 H   0  0  0  0  0  0  0  0  0  0  0  0
    3.8348    1.2196    0.0000 H   0  0  0  0  0  0  0  0  0  0  0  0
    3.8348    2.0494    0.0000 H   0  0  0  0  0  0  0  0  0  0  0  0
    4.3464    2.7535    0.0000 H   0  0  0  0  0  0  0  0  0  0  0  0
    5.1355    3.0099    0.0000 H   0  0  0  0  0  0  0  0  0  0  0  0
    6.5296    3.0061    0.0000 H   0  0  0  0  0  0  0  0  0  0  0  0
    7.3180    2.7485    0.0000 H   0  0  0  0  0  0  0  0  0  0  0  0
    7.9842    1.6345    0.0000 H   0  0  0  0  0  0  0  0  0  0  0  0
    6.4775   -0.2081    0.0000 H   0  0  0  0  0  0  0  0  0  0  0  0
    7.0707   -0.7404    0.0000 H   0  0  0  0  0  0  0  0  0  0  0  0
    8.2624   -0.9163    0.0000 H   0  0  0  0  0  0  0  0  0  0  0  0
    4.4170   -1.6128    0.0000 H   0  0  0  0  0  0  0  0  0  0  0  0
    4.3712   -2.4884    0.0000 H   0  0  0  0  0  0  0  0  0  0  0  0
    3.4955   -2.4426    0.0000 H   0  0  0  0  0  0  0  0  0  0  0  0
    1.8942   -1.0317    0.0000 H   0  0  0  0  0  0  0  0  0  0  0  0
    1.4103   -2.2519    0.0000 H   0  0  0  0  0  0  0  0  0  0  0  0
    1.8084   -3.0332    0.0000 H   0  0  0  0  0  0  0  0  0  0  0  0
    2.5897   -2.6351    0.0000 H   0  0  0  0  0  0  0  0  0  0  0  0
  6  1  1  1  0  0  0
  1 13  1  0  0  0  0
  2 12  1  0  0  0  0
  2 29  1  0  0  0  0
  3 13  2  0  0  0  0
  4  5  1  0  0  0  0
  4  8  1  0  0  0  0
  4 10  1  0  0  0  0
  5  6  1  0  0  0  0
  5  9  1  0  0  0  0
  5 18  1  0  0  0  0
  6  7  1  0  0  0  0
  6 19  1  0  0  0  0
  7  8  1  0  0  0  0
  7 20  1  0  0  0  0
  7 21  1  0  0  0  0
  8 22  1  0  0  0  0
  8 23  1  0  0  0  0
  9 11  2  0  0  0  0
  9 12  1  0  0  0  0
 10 11  1  0  0  0  0
 10 24  1  0  0  0  0
 10 25  1  0  0  0  0
 11 26  1  0  0  0  0
 12 27  1  0  0  0  0
 12 28  1  0  0  0  0
 13 14  1  0  0  0  0
 14 15  1  0  0  0  0
 14 16  2  3  0  0  0
 15 30  1  0  0  0  0
 15 31  1  0  0  0  0
 15 32  1  0  0  0  0
 16 17  1  0  0  0  0
 16 33  1  0  0  0  0
 17 34  1  0  0  0  0
 17 35  1  0  0  0  0
 17 36  1  0  0  0  0
M  END
> <PUBCHEM_COMPOUND_CID>
12883

> <PUBCHEM_COMPOUND_CANONICALIZED>
1

> <PUBCHEM_CACTVS_COMPLEXITY>
373

> <PUBCHEM_CACTVS_HBOND_ACCEPTOR>
4

> <PUBCHEM_CACTVS_HBOND_DONOR>
1

> <PUBCHEM_CACTVS_ROTATABLE_BOND>
4

> <PUBCHEM_CACTVS_SUBSKEYS>
AAADceByMAAAAAAAAAAAAAAAAAAAAWIAAAAAAAAAAAAQAAAAAAAAHgAACAAADDzhgAYCCAMABgCIAiDSCACAAAAgAAAACAEIAEgCFAIAoQAHUAAGwACYMYPQQAAAAAAAAAAAAAAAAAAAAAAAAAAAAAAAAA==

> <PUBCHEM_IUPAC_OPENEYE_NAME>
[(1S)-7-(hydroxymethyl)-2,3,5,8-tetrahydro-1H-pyrrolizin-1-yl] 2-methylbut-2-enoate

> <PUBCHEM_IUPAC_CAS_NAME>
2-methyl-2-butenoic acid [(1S)-7-(hydroxymethyl)-2,3,5,8-tetrahydro-1H-pyrrolizin-1-yl] ester

> <PUBCHEM_IUPAC_NAME>
[(1S)-7-(hydroxymethyl)-2,3,5,8-tetrahydro-1H-pyrrolizin-1-yl] 2-methylbut-2-enoate

> <PUBCHEM_IUPAC_SYSTEMATIC_NAME>
[(1S)-7-(hydroxymethyl)-2,3,5,8-tetrahydro-1H-pyrrolizin-1-yl] 2-methylbut-2-enoate

> <PUBCHEM_IUPAC_TRADITIONAL_NAME>
2-methylbut-2-enoic acid [(1S)-7-methylol-2,3,5,8-tetrahydro-1H-pyrrolizin-1-yl] ester

> <PUBCHEM_IUPAC_INCHI>
InChI=1S/C13H19NO3/c1-3-9(2)13(16)17-11-5-7-14-6-4-10(8-15)12(11)14/h3-4,11-12,15H,5-8H2,1-2H3/t11-,12?/m0/s1

> <PUBCHEM_IUPAC_INCHIKEY>
TYGYPIIOOQNWBU-PXYINDEMSA-N

> <PUBCHEM_XLOGP3_AA>
0.5

> <PUBCHEM_EXACT_MASS>
237.136493

> <PUBCHEM_MOLECULAR_FORMULA>
C13H19NO3

> <PUBCHEM_MOLECULAR_WEIGHT>
237.29486

> <PUBCHEM_OPENEYE_CAN_SMILES>
CC=C(C)C(=O)OC1CCN2C1C(=CC2)CO

> <PUBCHEM_OPENEYE_ISO_SMILES>
CC=C(C)C(=O)O[C@H]1CCN2C1C(=CC2)CO

> <PUBCHEM_CACTVS_TPSA>
49.8

> <PUBCHEM_MONOISOTOPIC_WEIGHT>
237.136493

> <PUBCHEM_TOTAL_CHARGE>
0

> <PUBCHEM_HEAVY_ATOM_COUNT>
17

> <PUBCHEM_ATOM_DEF_STEREO_COUNT>
1

> <PUBCHEM_ATOM_UDEF_STEREO_COUNT>
0

> <PUBCHEM_BOND_DEF_STEREO_COUNT>
0

> <PUBCHEM_BOND_UDEF_STEREO_COUNT>
1

> <PUBCHEM_ISOTOPIC_ATOM_COUNT>
0

> <PUBCHEM_COMPONENT_COUNT>
1

> <PUBCHEM_CACTVS_TAUTO_COUNT>
1

> <PUBCHEM_COORDINATE_TYPE>
1
5
255

> <PUBCHEM_BONDANNOTATIONS>
6  1  5
14  16  1

$$$$

