   Color/Form

     * Crystals from acetone
     * WHITE TO OFF-WHITE CRYSTALLINE POWDER

   from [1]HSDB

   Odor
        PRACTICALLY ODORLESS
   from [2]HSDB

   Melting Point
        218-219 deg C
   from [3]HSDB

   Octanol/Water Partition Coefficient
        log Kow = 2.1 (est)
   from [4]HSDB

   Solubilities
        SLIGHTLY SOL IN WATER & BENZYL ALCOHOL; SOL IN ALC & CHLOROFORM;
   INSOL IN ETHER & SOLVENT HEXANE
   from [5]HSDB

   Spectral Properties

     * Specific optical rotation: -45.6 deg (c= 1.24 in chloroform) at 23
       deg C/D
     * Max absorption (ethanol): 242 nm (epsilon = 15,800)

   from [6]HSDB

   Vapor Pressure
        1.7X10-8 mm Hg at 25 deg C (est)
   from [7]HSDB

   Other Chemical/Physical Properties

     * Henry's Law constant = 6.1X10-8 atm-cu m/mole at 25 deg C (est)
     * Hydroxyl radical reaction rate constant = 6.0X10-11 cu cm/molec-sec
       at 25 deg C (est)
     * Ozone reaction rate constant = 1.3X10-17 cu cm/molec-sec at 25 deg
       C (est)

   from [8]HSDB

   Computed Properties
   Molecular Weight                  300.39206 [g/mol]
   Molecular Formula                 C[19]H[24]O[3]
   XLogP3-AA                         3
   H-Bond Donor                      0
   H-Bond Acceptor                   3
   Rotatable Bond Count              0
   Tautomer Count                    6
   Exact Mass                        300.172545
   MonoIsotopic Mass                 300.172545
   Topological Polar Surface Area    43.4
   Heavy Atom Count                  22
   Formal Charge                     0
   Complexity                        602
   Isotope Atom Count                0
   Defined Atom Stereocenter Count   5
   Undefined Atom Stereocenter Count 0
   Defined Bond Stereocenter Count   0
   Undefined Bond Stereocenter Count 0
   Covalently-Bonded Unit Count      1
   Feature 3D Acceptor Count         2
   Feature 3D Ring Count             4
   Effective Rotor Count             1.4
   Conformer Sampling RMSD           0.6
   CID Conformer Count               [9]1

References

   1. http://toxnet.nlm.nih.gov/cgi-bin/sis/search/r?dbs+hsdb:@term+@rn+@rel+968-93-4
   2. http://toxnet.nlm.nih.gov/cgi-bin/sis/search/r?dbs+hsdb:@term+@rn+@rel+968-93-4
   3. http://toxnet.nlm.nih.gov/cgi-bin/sis/search/r?dbs+hsdb:@term+@rn+@rel+968-93-4
   4. http://toxnet.nlm.nih.gov/cgi-bin/sis/search/r?dbs+hsdb:@term+@rn+@rel+968-93-4
   5. http://toxnet.nlm.nih.gov/cgi-bin/sis/search/r?dbs+hsdb:@term+@rn+@rel+968-93-4
   6. http://toxnet.nlm.nih.gov/cgi-bin/sis/search/r?dbs+hsdb:@term+@rn+@rel+968-93-4
   7. http://toxnet.nlm.nih.gov/cgi-bin/sis/search/r?dbs+hsdb:@term+@rn+@rel+968-93-4
   8. http://toxnet.nlm.nih.gov/cgi-bin/sis/search/r?dbs+hsdb:@term+@rn+@rel+968-93-4
   9. http://pubchem.ncbi.nlm.nih.gov/vw3d/vw3d.cgi?cid=13769
