   Color/Form
        CRYSTALS
   from [1]HSDB

   Boiling Point
        150-175 DEG C @ 0.3 MM HG
   from [2]HSDB

   Melting Point
        68 DEG C
   from [3]HSDB

   Spectral Properties
        Intense mass spectral peaks: 58 m/z, 84 m/z, 100 m/z, 198 m/z, 298
   m/z
   from [4]HSDB

   Other Chemical/Physical Properties

     * CRYSTALS; SOL IN WATER; SLIGHTLY SOL IN ALCOHOL /TARTRATE/
     * WHITE TO OFF-WHITE CRYSTALLINE POWDER; FREELY SOL IN CHLOROFORM;
       VERY SLIGHTLY SOL IN ETHER & BENZENE /TARTRATE/

   from [5]HSDB

   Computed Properties
   Molecular Weight                  298.44568 [g/mol]
   Molecular Formula                 C[18]H[22]N[2]S
   XLogP3                            4.7
   H-Bond Donor                      0
   H-Bond Acceptor                   3
   Rotatable Bond Count              4
   Exact Mass                        298.15037
   MonoIsotopic Mass                 298.15037
   Topological Polar Surface Area    31.8
   Heavy Atom Count                  21
   Formal Charge                     0
   Complexity                        311
   Isotope Atom Count                0
   Defined Atom Stereocenter Count   0
   Undefined Atom Stereocenter Count 1
   Defined Bond Stereocenter Count   0
   Undefined Bond Stereocenter Count 0
   Covalently-Bonded Unit Count      1
   Feature 3D Cation Count           2
   Feature 3D Hydrophobe Count       1
   Feature 3D Ring Count             3
   Effective Rotor Count             4.4
   Conformer Sampling RMSD           0.6
   CID Conformer Count               [6]7

References

   1. http://toxnet.nlm.nih.gov/cgi-bin/sis/search/r?dbs+hsdb:@term+@rn+@rel+84-96-8
   2. http://toxnet.nlm.nih.gov/cgi-bin/sis/search/r?dbs+hsdb:@term+@rn+@rel+84-96-8
   3. http://toxnet.nlm.nih.gov/cgi-bin/sis/search/r?dbs+hsdb:@term+@rn+@rel+84-96-8
   4. http://toxnet.nlm.nih.gov/cgi-bin/sis/search/r?dbs+hsdb:@term+@rn+@rel+84-96-8
   5. http://toxnet.nlm.nih.gov/cgi-bin/sis/search/r?dbs+hsdb:@term+@rn+@rel+84-96-8
   6. http://pubchem.ncbi.nlm.nih.gov/vw3d/vw3d.cgi?cid=5574
