3557
  -OEChem-06251223302D

 96 99  0     1  0  0  0  0  0999 V2000
    8.7776   -3.9842    0.0000 S   0  0  0  0  0  0  0  0  0  0  0  0
    3.4051   -0.8690    0.0000 S   0  0  0  0  0  0  0  0  0  0  0  0
    4.2568   -3.4707    0.0000 S   0  0  0  0  0  0  0  0  0  0  0  0
    7.9096   -3.4876    0.0000 O   0  0  0  0  0  0  0  0  0  0  0  0
    4.2768   -0.3791    0.0000 O   0  0  0  0  0  0  0  0  0  0  0  0
    4.2607   -2.4707    0.0000 O   0  0  0  0  0  0  0  0  0  0  0  0
    9.6455   -4.4809    0.0000 O   0  0  0  0  0  0  0  0  0  0  0  0
    8.2809   -4.8522    0.0000 O   0  0  0  0  0  0  0  0  0  0  0  0
    9.2742   -3.1163    0.0000 O   0  0  0  0  0  0  0  0  0  0  0  0
    2.5333   -1.3590    0.0000 O   0  0  0  0  0  0  0  0  0  0  0  0
    4.2530   -4.4707    0.0000 O   0  0  0  0  0  0  0  0  0  0  0  0
    2.9151    0.0027    0.0000 O   0  0  0  0  0  0  0  0  0  0  0  0
    3.8950   -1.7408    0.0000 O   0  0  0  0  0  0  0  0  0  0  0  0
    3.2568   -3.4668    0.0000 O   0  0  0  0  0  0  0  0  0  0  0  0
    5.2568   -3.4745    0.0000 O   0  0  0  0  0  0  0  0  0  0  0  0
    9.6538   -0.4183    0.0000 C   0  0  3  0  0  0  0  0  0  0  0  0
    8.7878   -0.9183    0.0000 C   0  0  3  0  0  0  0  0  0  0  0  0
    9.6538    0.5817    0.0000 C   0  0  3  0  0  0  0  0  0  0  0  0
    7.9217   -0.4183    0.0000 C   0  0  3  0  0  0  0  0  0  0  0  0
    7.0117   -0.9252    0.0000 C   0  0  3  0  0  0  0  0  0  0  0  0
   10.6000    0.8864    0.0000 C   0  0  3  0  0  0  0  0  0  0  0  0
    7.0037   -1.9668    0.0000 C   0  0  3  0  0  0  0  0  0  0  0  0
    8.7878    1.0817    0.0000 C   0  0  0  0  0  0  0  0  0  0  0  0
    7.9217    0.5817    0.0000 C   0  0  0  0  0  0  0  0  0  0  0  0
    8.8038   -1.9598    0.0000 C   0  0  0  0  0  0  0  0  0  0  0  0
   10.6000   -0.7231    0.0000 C   0  0  0  0  0  0  0  0  0  0  0  0
    7.9058   -2.4876    0.0000 C   0  0  3  0  0  0  0  0  0  0  0  0
   11.1836    0.0817    0.0000 C   0  0  0  0  0  0  0  0  0  0  0  0
    6.0849   -0.3611    0.0000 C   0  0  0  0  0  0  0  0  0  0  0  0
    6.0683   -2.5165    0.0000 C   0  0  0  0  0  0  0  0  0  0  0  0
    9.6538    1.5817    0.0000 C   0  0  0  0  0  0  0  0  0  0  0  0
   10.9107    1.8369    0.0000 C   0  0  3  0  0  0  0  0  0  0  0  0
    7.0194    0.0748    0.0000 C   0  0  0  0  0  0  0  0  0  0  0  0
    5.1370   -0.8891    0.0000 C   0  0  3  0  0  0  0  0  0  0  0  0
    5.1286   -1.9740    0.0000 C   0  0  3  0  0  0  0  0  0  0  0  0
   11.8892    2.0431    0.0000 C   0  0  0  0  0  0  0  0  0  0  0  0
   10.2428    2.5812    0.0000 C   0  0  0  0  0  0  0  0  0  0  0  0
   12.1998    2.9936    0.0000 C   0  0  0  0  0  0  0  0  0  0  0  0
   13.1783    3.1999    0.0000 C   0  0  3  0  0  0  0  0  0  0  0  0
   13.4890    4.1504    0.0000 C   0  0  0  0  0  0  0  0  0  0  0  0
   13.8462    2.4556    0.0000 C   0  0  0  0  0  0  0  0  0  0  0  0
   13.7997    5.1009    0.0000 C   0  0  0  0  0  0  0  0  0  0  0  0
   14.4395    3.8397    0.0000 C   0  0  0  0  0  0  0  0  0  0  0  0
   12.5385    4.4610    0.0000 C   0  0  0  0  0  0  0  0  0  0  0  0
    9.7194   -1.0349    0.0000 H   0  0  0  0  0  0  0  0  0  0  0  0
    9.3271   -1.2242    0.0000 H   0  0  0  0  0  0  0  0  0  0  0  0
    8.4587   -0.1083    0.0000 H   0  0  0  0  0  0  0  0  0  0  0  0
   11.2125    0.9826    0.0000 H   0  0  0  0  0  0  0  0  0  0  0  0
    7.0061   -2.5868    0.0000 H   0  0  0  0  0  0  0  0  0  0  0  0
    9.1863    1.5566    0.0000 H   0  0  0  0  0  0  0  0  0  0  0  0
    8.3892    1.5566    0.0000 H   0  0  0  0  0  0  0  0  0  0  0  0
    7.7097    1.1643    0.0000 H   0  0  0  0  0  0  0  0  0  0  0  0
    7.3111    0.4740    0.0000 H   0  0  0  0  0  0  0  0  0  0  0  0
    9.0218   -2.5402    0.0000 H   0  0  0  0  0  0  0  0  0  0  0  0
    9.4130   -1.8444    0.0000 H   0  0  0  0  0  0  0  0  0  0  0  0
   10.3490   -1.2900    0.0000 H   0  0  0  0  0  0  0  0  0  0  0  0
   11.1374   -1.0323    0.0000 H   0  0  0  0  0  0  0  0  0  0  0  0
    8.4445   -2.7945    0.0000 H   0  0  0  0  0  0  0  0  0  0  0  0
   11.6445   -0.3331    0.0000 H   0  0  0  0  0  0  0  0  0  0  0  0
   11.6445    0.4964    0.0000 H   0  0  0  0  0  0  0  0  0  0  0  0
    6.4931    0.1055    0.0000 H   0  0  0  0  0  0  0  0  0  0  0  0
    5.6950    0.1209    0.0000 H   0  0  0  0  0  0  0  0  0  0  0  0
    5.6710   -2.9925    0.0000 H   0  0  0  0  0  0  0  0  0  0  0  0
    6.4692   -2.9894    0.0000 H   0  0  0  0  0  0  0  0  0  0  0  0
   10.2738    1.5817    0.0000 H   0  0  0  0  0  0  0  0  0  0  0  0
    9.6538    2.2017    0.0000 H   0  0  0  0  0  0  0  0  0  0  0  0
    9.0338    1.5817    0.0000 H   0  0  0  0  0  0  0  0  0  0  0  0
   10.3040    1.7090    0.0000 H   0  0  0  0  0  0  0  0  0  0  0  0
    7.6394    0.0700    0.0000 H   0  0  0  0  0  0  0  0  0  0  0  0
    7.0242    0.6948    0.0000 H   0  0  0  0  0  0  0  0  0  0  0  0
    6.3994    0.0796    0.0000 H   0  0  0  0  0  0  0  0  0  0  0  0
    5.1454   -0.2691    0.0000 H   0  0  0  0  0  0  0  0  0  0  0  0
    5.1274   -2.5940    0.0000 H   0  0  0  0  0  0  0  0  0  0  0  0
   11.9097    1.4235    0.0000 H   0  0  0  0  0  0  0  0  0  0  0  0
   12.5030    1.9558    0.0000 H   0  0  0  0  0  0  0  0  0  0  0  0
   10.7043    2.9953    0.0000 H   0  0  0  0  0  0  0  0  0  0  0  0
    9.8288    3.0427    0.0000 H   0  0  0  0  0  0  0  0  0  0  0  0
    9.7814    2.1672    0.0000 H   0  0  0  0  0  0  0  0  0  0  0  0
   12.1793    3.6133    0.0000 H   0  0  0  0  0  0  0  0  0  0  0  0
   11.5860    3.0810    0.0000 H   0  0  0  0  0  0  0  0  0  0  0  0
   12.9857    2.6105    0.0000 H   0  0  0  0  0  0  0  0  0  0  0  0
   13.3847    2.0415    0.0000 H   0  0  0  0  0  0  0  0  0  0  0  0
   14.2602    1.9941    0.0000 H   0  0  0  0  0  0  0  0  0  0  0  0
   14.3076    2.8696    0.0000 H   0  0  0  0  0  0  0  0  0  0  0  0
    9.6479   -5.1009    0.0000 H   0  0  0  0  0  0  0  0  0  0  0  0
   14.3890    4.9083    0.0000 H   0  0  0  0  0  0  0  0  0  0  0  0
   14.2469    3.2504    0.0000 H   0  0  0  0  0  0  0  0  0  0  0  0
   15.0288    3.6471    0.0000 H   0  0  0  0  0  0  0  0  0  0  0  0
   14.6321    4.4290    0.0000 H   0  0  0  0  0  0  0  0  0  0  0  0
   12.7311    5.0504    0.0000 H   0  0  0  0  0  0  0  0  0  0  0  0
   11.9491    4.6537    0.0000 H   0  0  0  0  0  0  0  0  0  0  0  0
   12.3459    3.8717    0.0000 H   0  0  0  0  0  0  0  0  0  0  0  0
   13.9923    5.6902    0.0000 H   0  0  0  0  0  0  0  0  0  0  0  0
   13.2103    5.2935    0.0000 H   0  0  0  0  0  0  0  0  0  0  0  0
    2.0000   -1.0428    0.0000 H   0  0  0  0  0  0  0  0  0  0  0  0
    3.7148   -4.7786    0.0000 H   0  0  0  0  0  0  0  0  0  0  0  0
  1  4  1  0  0  0  0
  1  7  1  0  0  0  0
  1  8  2  0  0  0  0
  1  9  2  0  0  0  0
  2  5  1  0  0  0  0
  2 10  1  0  0  0  0
  2 12  2  0  0  0  0
  2 13  2  0  0  0  0
  3  6  1  0  0  0  0
  3 11  1  0  0  0  0
  3 14  2  0  0  0  0
  3 15  2  0  0  0  0
  4 27  1  0  0  0  0
  5 34  1  0  0  0  0
  6 35  1  0  0  0  0
  7 85  1  0  0  0  0
 10 95  1  0  0  0  0
 11 96  1  0  0  0  0
 16 17  1  0  0  0  0
 16 18  1  0  0  0  0
 16 26  1  0  0  0  0
 16 45  1  0  0  0  0
 17 19  1  0  0  0  0
 17 25  1  0  0  0  0
 17 46  1  0  0  0  0
 18 21  1  0  0  0  0
 18 23  1  0  0  0  0
 18 31  1  0  0  0  0
 19 20  1  0  0  0  0
 19 24  1  0  0  0  0
 19 47  1  0  0  0  0
 20 22  1  0  0  0  0
 20 29  1  0  0  0  0
 20 33  1  0  0  0  0
 21 28  1  0  0  0  0
 21 32  1  0  0  0  0
 21 48  1  0  0  0  0
 22 27  1  0  0  0  0
 22 30  1  0  0  0  0
 22 49  1  0  0  0  0
 23 24  1  0  0  0  0
 23 50  1  0  0  0  0
 23 51  1  0  0  0  0
 24 52  1  0  0  0  0
 24 53  1  0  0  0  0
 25 27  1  0  0  0  0
 25 54  1  0  0  0  0
 25 55  1  0  0  0  0
 26 28  1  0  0  0  0
 26 56  1  0  0  0  0
 26 57  1  0  0  0  0
 27 58  1  0  0  0  0
 28 59  1  0  0  0  0
 28 60  1  0  0  0  0
 29 34  1  0  0  0  0
 29 61  1  0  0  0  0
 29 62  1  0  0  0  0
 30 35  1  0  0  0  0
 30 63  1  0  0  0  0
 30 64  1  0  0  0  0
 31 65  1  0  0  0  0
 31 66  1  0  0  0  0
 31 67  1  0  0  0  0
 32 36  1  0  0  0  0
 32 37  1  0  0  0  0
 32 68  1  0  0  0  0
 33 69  1  0  0  0  0
 33 70  1  0  0  0  0
 33 71  1  0  0  0  0
 34 35  1  0  0  0  0
 34 72  1  0  0  0  0
 35 73  1  0  0  0  0
 36 38  1  0  0  0  0
 36 74  1  0  0  0  0
 36 75  1  0  0  0  0
 37 76  1  0  0  0  0
 37 77  1  0  0  0  0
 37 78  1  0  0  0  0
 38 39  1  0  0  0  0
 38 79  1  0  0  0  0
 38 80  1  0  0  0  0
 39 40  1  0  0  0  0
 39 41  1  0  0  0  0
 39 81  1  0  0  0  0
 40 42  1  0  0  0  0
 40 43  1  0  0  0  0
 40 44  1  0  0  0  0
 41 82  1  0  0  0  0
 41 83  1  0  0  0  0
 41 84  1  0  0  0  0
 42 86  1  0  0  0  0
 42 93  1  0  0  0  0
 42 94  1  0  0  0  0
 43 87  1  0  0  0  0
 43 88  1  0  0  0  0
 43 89  1  0  0  0  0
 44 90  1  0  0  0  0
 44 91  1  0  0  0  0
 44 92  1  0  0  0  0
M  END
> <PUBCHEM_COMPOUND_CID>
3557

> <PUBCHEM_COMPOUND_CANONICALIZED>
1

> <PUBCHEM_CACTVS_COMPLEXITY>
1360

> <PUBCHEM_CACTVS_HBOND_ACCEPTOR>
12

> <PUBCHEM_CACTVS_HBOND_DONOR>
3

> <PUBCHEM_CACTVS_ROTATABLE_BOND>
11

> <PUBCHEM_CACTVS_SUBSKEYS>
AAADcfB4PABgAAAAAAAAAAAAAAAAAYAAAAAwYMAAAAAAAGDAAAAAGgAACAAADxSggAICAAAAAIAAAAAAADAAAAAAAAAAAAAAAAABAAIAAAAAAAAEAAAAAAHA4PQPgAAAAAAAAADAAAYAADCAAQAACAAAAA==

> <PUBCHEM_IUPAC_OPENEYE_NAME>
[10,13-dimethyl-2,3-disulfooxy-17-(1,4,5,5-tetramethylhexyl)-2,3,4,5,6,7,8,9,11,12,14,15,16,17-tetradecahydro-1H-cyclopenta[a]phenanthren-6-yl] hydrogen sulfate

> <PUBCHEM_IUPAC_CAS_NAME>
sulfuric acid [10,13-dimethyl-2,3-disulfooxy-17-(5,6,6-trimethylheptan-2-yl)-2,3,4,5,6,7,8,9,11,12,14,15,16,17-tetradecahydro-1H-cyclopenta[a]phenanthren-6-yl] ester

> <PUBCHEM_IUPAC_NAME>
[10,13-dimethyl-2,3-disulfooxy-17-(5,6,6-trimethylheptan-2-yl)-2,3,4,5,6,7,8,9,11,12,14,15,16,17-tetradecahydro-1H-cyclopenta[a]phenanthren-6-yl] hydrogen sulfate

> <PUBCHEM_IUPAC_SYSTEMATIC_NAME>
[10,13-dimethyl-2,3-disulfooxy-17-(5,6,6-trimethylheptan-2-yl)-2,3,4,5,6,7,8,9,11,12,14,15,16,17-tetradecahydro-1H-cyclopenta[a]phenanthren-6-yl] hydrogen sulfate

> <PUBCHEM_IUPAC_TRADITIONAL_NAME>
sulfuric acid [10,13-dimethyl-2,3-disulfoxy-17-(1,4,5,5-tetramethylhexyl)-2,3,4,5,6,7,8,9,11,12,14,15,16,17-tetradecahydro-1H-cyclopenta[a]phenanthren-6-yl] ester

> <PUBCHEM_IUPAC_INCHI>
InChI=1S/C29H52O12S3/c1-17(8-9-18(2)27(3,4)5)20-10-11-21-19-14-24(39-42(30,31)32)23-15-25(40-43(33,34)35)26(41-44(36,37)38)16-29(23,7)22(19)12-13-28(20,21)6/h17-26H,8-16H2,1-7H3,(H,30,31,32)(H,33,34,35)(H,36,37,38)

> <PUBCHEM_IUPAC_INCHIKEY>
UYXOPBYFUWYADH-UHFFFAOYSA-N

> <PUBCHEM_XLOGP3_AA>
6.5

> <PUBCHEM_EXACT_MASS>
688.26209

> <PUBCHEM_MOLECULAR_FORMULA>
C29H52O12S3

> <PUBCHEM_MOLECULAR_WEIGHT>
688.91098

> <PUBCHEM_OPENEYE_CAN_SMILES>
CC(CCC(C)C(C)(C)C)C1CCC2C1(CCC3C2CC(C4C3(CC(C(C4)OS(=O)(=O)O)OS(=O)(=O)O)C)OS(=O)(=O)O)C

> <PUBCHEM_OPENEYE_ISO_SMILES>
CC(CCC(C)C(C)(C)C)C1CCC2C1(CCC3C2CC(C4C3(CC(C(C4)OS(=O)(=O)O)OS(=O)(=O)O)C)OS(=O)(=O)O)C

> <PUBCHEM_CACTVS_TPSA>
216

> <PUBCHEM_MONOISOTOPIC_WEIGHT>
688.26209

> <PUBCHEM_TOTAL_CHARGE>
0

> <PUBCHEM_HEAVY_ATOM_COUNT>
44

> <PUBCHEM_ATOM_DEF_STEREO_COUNT>
0

> <PUBCHEM_ATOM_UDEF_STEREO_COUNT>
12

> <PUBCHEM_BOND_DEF_STEREO_COUNT>
0

> <PUBCHEM_BOND_UDEF_STEREO_COUNT>
0

> <PUBCHEM_ISOTOPIC_ATOM_COUNT>
0

> <PUBCHEM_COMPONENT_COUNT>
1

> <PUBCHEM_CACTVS_TAUTO_COUNT>
1

> <PUBCHEM_COORDINATE_TYPE>
1
5
255

> <PUBCHEM_BONDANNOTATIONS>
16  26  3
17  25  3
18  31  3
19  24  3
20  33  3
21  28  3
22  30  3
32  37  3
39  41  3
27  4  3
34  5  3
35  6  3

$$$$

