17395352
  -OEChem-06241222492D

 40 42  0     1  0  0  0  0  0999 V2000
    3.0000   -0.0194    0.0000 S   0  0  0  0  0  0  0  0  0  0  0  0
    3.0000   -4.0194    0.0000 F   0  0  0  0  0  0  0  0  0  0  0  0
    4.0000   -0.0194    0.0000 O   0  0  0  0  0  0  0  0  0  0  0  0
    2.0000   -0.0194    0.0000 O   0  0  0  0  0  0  0  0  0  0  0  0
    3.0000    0.9806    0.0000 N   0  0  0  0  0  0  0  0  0  0  0  0
    3.0570    3.0684    0.0000 N   0  0  0  0  0  0  0  0  0  0  0  0
    4.6750    3.0684    0.0000 N   0  0  0  0  0  0  0  0  0  0  0  0
    3.8660    1.4806    0.0000 C   0  0  3  0  0  0  0  0  0  0  0  0
    3.8660    2.4806    0.0000 C   0  0  0  0  0  0  0  0  0  0  0  0
    4.7320    0.9806    0.0000 C   0  0  0  0  0  0  0  0  0  0  0  0
    3.0000   -1.0194    0.0000 C   0  0  0  0  0  0  0  0  0  0  0  0
    5.5981    1.4806    0.0000 C   0  0  0  0  0  0  0  0  0  0  0  0
    4.7320   -0.0194    0.0000 C   0  0  0  0  0  0  0  0  0  0  0  0
    3.3660    4.0194    0.0000 C   0  0  0  0  0  0  0  0  0  0  0  0
    2.1060    2.7594    0.0000 C   0  0  0  0  0  0  0  0  0  0  0  0
    4.3660    4.0194    0.0000 C   0  0  0  0  0  0  0  0  0  0  0  0
    6.4641    0.9806    0.0000 C   0  0  0  0  0  0  0  0  0  0  0  0
    5.5981   -0.5194    0.0000 C   0  0  0  0  0  0  0  0  0  0  0  0
    2.1340   -1.5194    0.0000 C   0  0  0  0  0  0  0  0  0  0  0  0
    3.8660   -1.5194    0.0000 C   0  0  0  0  0  0  0  0  0  0  0  0
    6.4641   -0.0194    0.0000 C   0  0  0  0  0  0  0  0  0  0  0  0
    2.1340   -2.5194    0.0000 C   0  0  0  0  0  0  0  0  0  0  0  0
    3.8660   -2.5194    0.0000 C   0  0  0  0  0  0  0  0  0  0  0  0
    3.0000   -3.0194    0.0000 C   0  0  0  0  0  0  0  0  0  0  0  0
    3.8660    0.8606    0.0000 H   0  0  0  0  0  0  0  0  0  0  0  0
    2.4631    1.2906    0.0000 H   0  0  0  0  0  0  0  0  0  0  0  0
    5.5981    2.1006    0.0000 H   0  0  0  0  0  0  0  0  0  0  0  0
    4.1951   -0.3294    0.0000 H   0  0  0  0  0  0  0  0  0  0  0  0
    3.0016    4.5210    0.0000 H   0  0  0  0  0  0  0  0  0  0  0  0
    1.9144    3.3490    0.0000 H   0  0  0  0  0  0  0  0  0  0  0  0
    1.5163    2.5678    0.0000 H   0  0  0  0  0  0  0  0  0  0  0  0
    2.2975    2.1697    0.0000 H   0  0  0  0  0  0  0  0  0  0  0  0
    4.7304    4.5210    0.0000 H   0  0  0  0  0  0  0  0  0  0  0  0
    1.5970   -1.2094    0.0000 H   0  0  0  0  0  0  0  0  0  0  0  0
    4.4030   -1.2094    0.0000 H   0  0  0  0  0  0  0  0  0  0  0  0
    7.0010    1.2906    0.0000 H   0  0  0  0  0  0  0  0  0  0  0  0
    5.5981   -1.1394    0.0000 H   0  0  0  0  0  0  0  0  0  0  0  0
    7.0010   -0.3294    0.0000 H   0  0  0  0  0  0  0  0  0  0  0  0
    1.5970   -2.8294    0.0000 H   0  0  0  0  0  0  0  0  0  0  0  0
    4.4030   -2.8294    0.0000 H   0  0  0  0  0  0  0  0  0  0  0  0
  1  3  2  0  0  0  0
  1  4  2  0  0  0  0
  1  5  1  0  0  0  0
  1 11  1  0  0  0  0
  2 24  1  0  0  0  0
  5  8  1  0  0  0  0
  5 26  1  0  0  0  0
  6  9  1  0  0  0  0
  6 14  1  0  0  0  0
  6 15  1  0  0  0  0
  7  9  2  0  0  0  0
  7 16  1  0  0  0  0
  8  9  1  0  0  0  0
  8 10  1  0  0  0  0
  8 25  1  0  0  0  0
 10 12  2  0  0  0  0
 10 13  1  0  0  0  0
 11 19  2  0  0  0  0
 11 20  1  0  0  0  0
 12 17  1  0  0  0  0
 12 27  1  0  0  0  0
 13 18  2  0  0  0  0
 13 28  1  0  0  0  0
 14 16  2  0  0  0  0
 14 29  1  0  0  0  0
 15 30  1  0  0  0  0
 15 31  1  0  0  0  0
 15 32  1  0  0  0  0
 16 33  1  0  0  0  0
 17 21  2  0  0  0  0
 17 36  1  0  0  0  0
 18 21  1  0  0  0  0
 18 37  1  0  0  0  0
 19 22  1  0  0  0  0
 19 34  1  0  0  0  0
 20 23  2  0  0  0  0
 20 35  1  0  0  0  0
 21 38  1  0  0  0  0
 22 24  2  0  0  0  0
 22 39  1  0  0  0  0
 23 24  1  0  0  0  0
 23 40  1  0  0  0  0
M  END
> <PUBCHEM_COMPOUND_CID>
17395352

> <PUBCHEM_COMPOUND_CANONICALIZED>
1

> <PUBCHEM_CACTVS_COMPLEXITY>
497

> <PUBCHEM_CACTVS_HBOND_ACCEPTOR>
5

> <PUBCHEM_CACTVS_HBOND_DONOR>
1

> <PUBCHEM_CACTVS_ROTATABLE_BOND>
5

> <PUBCHEM_CACTVS_SUBSKEYS>
AAADceB7MQBAAAAAAAAAAAAAAAAAAWAAAAAwYAAAAAAAAAAB0AAAHQQQQAAADCjBWww/kZdMEAKgAjJnZHDCgD0xEqAJyJg4NIiIaCKAmRGUIABogAKIiCcQgIAOAAAAAAAAAAAAAAAAAAAAAAAAAAAAAA==

> <PUBCHEM_IUPAC_OPENEYE_NAME>
4-fluoro-N-[(1-methylimidazol-2-yl)-phenyl-methyl]benzenesulfonamide

> <PUBCHEM_IUPAC_CAS_NAME>
4-fluoro-N-[(1-methyl-2-imidazolyl)-phenylmethyl]benzenesulfonamide

> <PUBCHEM_IUPAC_NAME>
4-fluoro-N-[(1-methylimidazol-2-yl)-phenylmethyl]benzenesulfonamide

> <PUBCHEM_IUPAC_SYSTEMATIC_NAME>
4-fluoranyl-N-[(1-methylimidazol-2-yl)-phenyl-methyl]benzenesulfonamide

> <PUBCHEM_IUPAC_TRADITIONAL_NAME>
4-fluoro-N-[(1-methylimidazol-2-yl)-phenyl-methyl]benzenesulfonamide

> <PUBCHEM_IUPAC_INCHI>
InChI=1S/C17H16FN3O2S/c1-21-12-11-19-17(21)16(13-5-3-2-4-6-13)20-24(22,23)15-9-7-14(18)8-10-15/h2-12,16,20H,1H3

> <PUBCHEM_IUPAC_INCHIKEY>
PPNTVJNNBSUCEC-UHFFFAOYSA-N

> <PUBCHEM_XLOGP3_AA>
2.3

> <PUBCHEM_EXACT_MASS>
345.094726

> <PUBCHEM_MOLECULAR_FORMULA>
C17H16FN3O2S

> <PUBCHEM_MOLECULAR_WEIGHT>
345.391243

> <PUBCHEM_OPENEYE_CAN_SMILES>
CN1C=CN=C1C(C2=CC=CC=C2)NS(=O)(=O)C3=CC=C(C=C3)F

> <PUBCHEM_OPENEYE_ISO_SMILES>
CN1C=CN=C1C(C2=CC=CC=C2)NS(=O)(=O)C3=CC=C(C=C3)F

> <PUBCHEM_CACTVS_TPSA>
72.4

> <PUBCHEM_MONOISOTOPIC_WEIGHT>
345.094726

> <PUBCHEM_TOTAL_CHARGE>
0

> <PUBCHEM_HEAVY_ATOM_COUNT>
24

> <PUBCHEM_ATOM_DEF_STEREO_COUNT>
0

> <PUBCHEM_ATOM_UDEF_STEREO_COUNT>
1

> <PUBCHEM_BOND_DEF_STEREO_COUNT>
0

> <PUBCHEM_BOND_UDEF_STEREO_COUNT>
0

> <PUBCHEM_ISOTOPIC_ATOM_COUNT>
0

> <PUBCHEM_COMPONENT_COUNT>
1

> <PUBCHEM_CACTVS_TAUTO_COUNT>
1

> <PUBCHEM_COORDINATE_TYPE>
1
5
255

> <PUBCHEM_BONDANNOTATIONS>
10  12  8
10  13  8
11  19  8
11  20  8
12  17  8
13  18  8
14  16  8
17  21  8
18  21  8
19  22  8
20  23  8
22  24  8
23  24  8
8  5  3
6  14  8
6  9  8
7  16  8
7  9  8

$$$$

