   Color/Form

     * Prisms from alcohol
     * Colorless ... solid
     * White, crystalline or gray powder.

   from [1]HSDB

   Odor
        Odorless
   from [2]HSDB

   Taste
        Bitter taste
   from [3]HSDB

   Melting Point
        198 deg C
   from [4]HSDB

   Density/Specific Gravity
        Specific Gravity (water= 1): Greater than 1
   from [5]HSDB

   Octanol/Water Partition Coefficient
        log Kow = 1.65
   from [6]HSDB

   Solubilities

     * Sol in acetone = 2.43 g/100 mL; sol in triethylene glycol = 8.6
       g/100 mL; fairly sol in hot alcohol
     * Very slightly sol in most organic solvents
     * In water, 600 mg/L @ 25 deg C

   from [7]HSDB

   Spectral Properties

     * SADTLER REFERENCE NUMBER: 21417 (IR, PRISM)
     * Intense mass spectral peaks: 115 m/z (100%), 143 m/z (90%), 202 m/z
       (39%), 116 m/z (36%)
     * IR: 21999 (Sadtler Research Laboratories IR Grating Collection)
     * MASS: 52599(NIST/EPA/MSDC Mass Spectral Database, 1990 Version)

   from [8]HSDB

   Vapor Pressure
        6.6X10-6 mm Hg @ 25 deg C /Estimated/
   from [9]HSDB

   Other Chemical/Physical Properties

     * Noncombustible solid; decomposes
     * Usually grey powder /commercial preparation/
     * Blue-grey powder /Technical grade/
     * Stable on exposure to air and to sunlight
     * Henry's Law constant = 8.51X10-9 atm-cu m/mol @ 25 deg C
       /Estimated/
     * Hydroxyl radical reaction rate constant = 2.21 X10-10 cu
       cm/molec-sec @ 25 deg C /Estimated/

   from [10]HSDB

   Computed Properties
   Molecular Weight                  202.2755 [g/mol]
   Molecular Formula                 C[11]H[10]N[2]S
   XLogP3                            1.7
   H-Bond Donor                      2
   H-Bond Acceptor                   1
   Rotatable Bond Count              1
   Tautomer Count                    3
   Exact Mass                        202.056469
   MonoIsotopic Mass                 202.056469
   Topological Polar Surface Area    70.1
   Heavy Atom Count                  14
   Formal Charge                     0
   Complexity                        217
   Isotope Atom Count                0
   Defined Atom Stereocenter Count   0
   Undefined Atom Stereocenter Count 0
   Defined Bond Stereocenter Count   0
   Undefined Bond Stereocenter Count 0
   Covalently-Bonded Unit Count      1
   Feature 3D Acceptor Count         1
   Feature 3D Donor Count            2
   Feature 3D Ring Count             2
   Effective Rotor Count             2
   Conformer Sampling RMSD           0.6
   CID Conformer Count               [11]6

References

   1. http://toxnet.nlm.nih.gov/cgi-bin/sis/search/r?dbs+hsdb:@term+@rn+@rel+86-88-4
   2. http://toxnet.nlm.nih.gov/cgi-bin/sis/search/r?dbs+hsdb:@term+@rn+@rel+86-88-4
   3. http://toxnet.nlm.nih.gov/cgi-bin/sis/search/r?dbs+hsdb:@term+@rn+@rel+86-88-4
   4. http://toxnet.nlm.nih.gov/cgi-bin/sis/search/r?dbs+hsdb:@term+@rn+@rel+86-88-4
   5. http://toxnet.nlm.nih.gov/cgi-bin/sis/search/r?dbs+hsdb:@term+@rn+@rel+86-88-4
   6. http://toxnet.nlm.nih.gov/cgi-bin/sis/search/r?dbs+hsdb:@term+@rn+@rel+86-88-4
   7. http://toxnet.nlm.nih.gov/cgi-bin/sis/search/r?dbs+hsdb:@term+@rn+@rel+86-88-4
   8. http://toxnet.nlm.nih.gov/cgi-bin/sis/search/r?dbs+hsdb:@term+@rn+@rel+86-88-4
   9. http://toxnet.nlm.nih.gov/cgi-bin/sis/search/r?dbs+hsdb:@term+@rn+@rel+86-88-4
  10. http://toxnet.nlm.nih.gov/cgi-bin/sis/search/r?dbs+hsdb:@term+@rn+@rel+86-88-4
  11. http://pubchem.ncbi.nlm.nih.gov/vw3d/vw3d.cgi?cid=736366
