   Color/Form

     * OFF-WHITE, SLIGHTLY GRANULAR POWDER
     * Flattened needles from petroleum ether
     * Fine white crystals

   from [1]HSDB

   Odor
        SLIGHT ODOR
   from [2]HSDB

   Melting Point
        64-66 DEG C
   from [3]HSDB

   Dissociation Constants
        pKa = 5.75
   from [4]HSDB

   Octanol/Water Partition Coefficient
        Log Kow = 1.47 @ pH 7.4
   from [5]HSDB

   Solubilities
        The free acid is soluble at 20 deg C in 1.5 parts ethanol, 2 parts
   acetone, 2.5 parts chloroform and 2 parts ethyl acetate; soluble in
   benzene and ether. Insoluble in water, but readily soluble in acid or
   alkali. The sodium salt is soluble in water.
   from [6]HSDB

   Spectral Properties

     * MAX ABSORPTION (ETHANOL): 258 NM; (WATER): 256 NM
     * Intense mass spectral peaks: 118 m/z, 268 m/z, 303 m/z

   from [7]HSDB

   Vapor Pressure
        5.7X10-8 mm Hg at 25 deg C
   from [8]HSDB

   Other Chemical/Physical Properties
        Aqueous solutions of the sodium salt undergo alkali-catalyzed
   hydrolysis to the hydroxyl form, the reaction requiring 30 minutes at
   37 deg C and pH 11.5; no appreciable hydrolysis takes place within 24
   hours at 5 deg C /sodium salt/
   from [9]HSDB

   Computed Properties
   Molecular Weight                  304.21216 [g/mol]
   Molecular Formula                 C[14]H[19]Cl[2]NO[2]
   XLogP3                            1.7
   H-Bond Donor                      1
   H-Bond Acceptor                   3
   Rotatable Bond Count              9
   Exact Mass                        303.079284
   MonoIsotopic Mass                 303.079284
   Topological Polar Surface Area    40.5
   Heavy Atom Count                  19
   Formal Charge                     0
   Complexity                        250
   Isotope Atom Count                0
   Defined Atom Stereocenter Count   0
   Undefined Atom Stereocenter Count 0
   Defined Bond Stereocenter Count   0
   Undefined Bond Stereocenter Count 0
   Covalently-Bonded Unit Count      1
   Feature 3D Acceptor Count         2
   Feature 3D Anion Count            1
   Feature 3D Cation Count           1
   Feature 3D Ring Count             1
   Effective Rotor Count             9
   Conformer Sampling RMSD           0.8
   CID Conformer Count               [10]159

References

   1. http://toxnet.nlm.nih.gov/cgi-bin/sis/search/r?dbs+hsdb:@term+@rn+@rel+305-03-3
   2. http://toxnet.nlm.nih.gov/cgi-bin/sis/search/r?dbs+hsdb:@term+@rn+@rel+305-03-3
   3. http://toxnet.nlm.nih.gov/cgi-bin/sis/search/r?dbs+hsdb:@term+@rn+@rel+305-03-3
   4. http://toxnet.nlm.nih.gov/cgi-bin/sis/search/r?dbs+hsdb:@term+@rn+@rel+305-03-3
   5. http://toxnet.nlm.nih.gov/cgi-bin/sis/search/r?dbs+hsdb:@term+@rn+@rel+305-03-3
   6. http://toxnet.nlm.nih.gov/cgi-bin/sis/search/r?dbs+hsdb:@term+@rn+@rel+305-03-3
   7. http://toxnet.nlm.nih.gov/cgi-bin/sis/search/r?dbs+hsdb:@term+@rn+@rel+305-03-3
   8. http://toxnet.nlm.nih.gov/cgi-bin/sis/search/r?dbs+hsdb:@term+@rn+@rel+305-03-3
   9. http://toxnet.nlm.nih.gov/cgi-bin/sis/search/r?dbs+hsdb:@term+@rn+@rel+305-03-3
  10. http://pubchem.ncbi.nlm.nih.gov/vw3d/vw3d.cgi?cid=2708
