   Color/Form

     * Crystals
     * White, crystalline powder

   from [1]HSDB

   Odor
        Odorless
   from [2]HSDB

   Taste

     * Slightly bitter
     * Bitter

   from [3]HSDB

   Melting Point
        157 deg C
   from [4]HSDB

   Dissociation Constants
        pKa = 7.84
   from [5]HSDB

   Octanol/Water Partition Coefficient
        log Kow = 2.07
   from [6]HSDB

   pH
        Solutions are acid to litmus
   from [7]HSDB

   Solubilities

     * 1 g dissolves in: 1300 mL water; in 5 mL alcohol; in 17 mL
       chloroform; in 6 mL ether. Freely soluble in benzene; soluble in
       alkaline. Insoluble in petroleum ether, aliphatic hydrocarbons.
     * Sol in aq solutions of alkali hydroxides and carbonates
     * Very soluble in benzene, ethanol, chloroform
     * In water, 603 mg/L at 25 deg C

   from [8]HSDB

   Spectral Properties

     * MAX ABSORPTION (WATER, PH= 10.5): 242 NM
     * IR: 5026 (Coblentz Society Spectral Collection)
     * UV: 7317 (Sadtler Research Laboratories Spectral Collection)
     * MASS: 58659 (NIST/EPA/MSDC Mass Spectral Database, 1900 version)
     * Intense mass spectral peaks: 141 m/z, 156 m/z, 197 m/z, 198 m/z,
       211 m/z

   from [9]HSDB

   Vapor Pressure
        1.6X10-10 mm Hg at 25 deg C (est)
   from [10]HSDB

   Other Chemical/Physical Properties

     * Dissolves in aqueous solutions of alkali hydroxides and carbonates
     * pH of saturated solution in water about 5.6
     * At 25 deg C it absorbs insignificant amounts of moisture at
       relative humidities up to about 90%.
     * Incompatible with acids, acidic salts eg, ammonium bromide, acidic
       syrup eg, lemon syrup, and with choral hydrate. Amylobarbitone may
       be precipitated from mixtures containing amylobarbitone sodium.
       Precipitation is dependent upon the concentration and pH. At a
       concentration of 30 mg of amylobarbitone sodium in 10 mL,
       precipitation occurs at pH 8.9 and below. /Amylobarbitone sodium/
     * White, granular powder, has bitter taste /Amobarbital sodium/
     * Hygroscopic; friable granules of powder; very soluble in water;
       soluble in alcohol (1:1), practically insoluble in ether
       /Amobarbital sodium/
     * Henry's Law constant = 8.4X10-13 atm-cu m/mol at 25 deg C (est)
     * Hydroxyl radical reaction rate constant = 1.4X10-11 cu cm/molec-sec
       at 25 deg C (est)

   from [11]HSDB

   Computed Properties
   Molecular Weight                  226.27222 [g/mol]
   Molecular Formula                 C[11]H[18]N[2]O[3]
   XLogP3                            2.1
   H-Bond Donor                      2
   H-Bond Acceptor                   3
   Rotatable Bond Count              4
   Tautomer Count                    5
   Exact Mass                        226.131742
   MonoIsotopic Mass                 226.131742
   Topological Polar Surface Area    75.3
   Heavy Atom Count                  16
   Formal Charge                     0
   Complexity                        303
   Isotope Atom Count                0
   Defined Atom Stereocenter Count   0
   Undefined Atom Stereocenter Count 0
   Defined Bond Stereocenter Count   0
   Undefined Bond Stereocenter Count 0
   Covalently-Bonded Unit Count      1
   Feature 3D Acceptor Count         3
   Feature 3D Donor Count            2
   Feature 3D Hydrophobe Count       2
   Feature 3D Ring Count             1
   Effective Rotor Count             4.6
   Conformer Sampling RMSD           0.6
   CID Conformer Count               [12]6

References

   1. http://toxnet.nlm.nih.gov/cgi-bin/sis/search/r?dbs+hsdb:@term+@rn+@rel+57-43-2
   2. http://toxnet.nlm.nih.gov/cgi-bin/sis/search/r?dbs+hsdb:@term+@rn+@rel+57-43-2
   3. http://toxnet.nlm.nih.gov/cgi-bin/sis/search/r?dbs+hsdb:@term+@rn+@rel+57-43-2
   4. http://toxnet.nlm.nih.gov/cgi-bin/sis/search/r?dbs+hsdb:@term+@rn+@rel+57-43-2
   5. http://toxnet.nlm.nih.gov/cgi-bin/sis/search/r?dbs+hsdb:@term+@rn+@rel+57-43-2
   6. http://toxnet.nlm.nih.gov/cgi-bin/sis/search/r?dbs+hsdb:@term+@rn+@rel+57-43-2
   7. http://toxnet.nlm.nih.gov/cgi-bin/sis/search/r?dbs+hsdb:@term+@rn+@rel+57-43-2
   8. http://toxnet.nlm.nih.gov/cgi-bin/sis/search/r?dbs+hsdb:@term+@rn+@rel+57-43-2
   9. http://toxnet.nlm.nih.gov/cgi-bin/sis/search/r?dbs+hsdb:@term+@rn+@rel+57-43-2
  10. http://toxnet.nlm.nih.gov/cgi-bin/sis/search/r?dbs+hsdb:@term+@rn+@rel+57-43-2
  11. http://toxnet.nlm.nih.gov/cgi-bin/sis/search/r?dbs+hsdb:@term+@rn+@rel+57-43-2
  12. http://pubchem.ncbi.nlm.nih.gov/vw3d/vw3d.cgi?cid=2164
