443768
  -OEChem-07051213032D

 36 39  0     0  0  0  0  0  0999 V2000
    2.8963    3.3452    0.0000 O   0  0  0  0  0  0  0  0  0  0  0  0
    5.6405   -3.3232    0.0000 O   0  0  0  0  0  0  0  0  0  0  0  0
    3.8372   -4.3830    0.0000 O   0  0  0  0  0  0  0  0  0  0  0  0
    4.6622    4.3830    0.0000 O   0  0  0  0  0  0  0  0  0  0  0  0
    2.9180    0.3137    0.0000 N   0  3  0  0  0  0  0  0  0  0  0  0
    2.0080   -0.1931    0.0000 C   0  0  0  0  0  0  0  0  0  0  0  0
    2.0000   -1.2347    0.0000 C   0  0  0  0  0  0  0  0  0  0  0  0
    3.7841   -0.1863    0.0000 C   0  0  0  0  0  0  0  0  0  0  0  0
    2.9021   -1.7555    0.0000 C   0  0  0  0  0  0  0  0  0  0  0  0
    3.8001   -1.2278    0.0000 C   0  0  0  0  0  0  0  0  0  0  0  0
    2.9180    1.3137    0.0000 C   0  0  0  0  0  0  0  0  0  0  0  0
    4.6501    0.3137    0.0000 C   0  0  0  0  0  0  0  0  0  0  0  0
    3.7841    1.8137    0.0000 C   0  0  0  0  0  0  0  0  0  0  0  0
    4.6501    1.3137    0.0000 C   0  0  0  0  0  0  0  0  0  0  0  0
    2.8937   -2.8405    0.0000 C   0  0  0  0  0  0  0  0  0  0  0  0
    4.7520   -1.7484    0.0000 C   0  0  0  0  0  0  0  0  0  0  0  0
    3.7680    2.8552    0.0000 C   0  0  0  0  0  0  0  0  0  0  0  0
    4.7688   -2.8333    0.0000 C   0  0  0  0  0  0  0  0  0  0  0  0
    3.8334   -3.3830    0.0000 C   0  0  0  0  0  0  0  0  0  0  0  0
    5.5601    1.8206    0.0000 C   0  0  0  0  0  0  0  0  0  0  0  0
    4.6660    3.3830    0.0000 C   0  0  0  0  0  0  0  0  0  0  0  0
    5.5681    2.8622    0.0000 C   0  0  0  0  0  0  0  0  0  0  0  0
    1.8035    0.3922    0.0000 H   0  0  0  0  0  0  0  0  0  0  0  0
    1.3964   -0.2945    0.0000 H   0  0  0  0  0  0  0  0  0  0  0  0
    1.3900   -1.1239    0.0000 H   0  0  0  0  0  0  0  0  0  0  0  0
    1.7864   -1.8168    0.0000 H   0  0  0  0  0  0  0  0  0  0  0  0
    2.3811    1.6237    0.0000 H   0  0  0  0  0  0  0  0  0  0  0  0
    5.1870    0.0037    0.0000 H   0  0  0  0  0  0  0  0  0  0  0  0
    5.2829   -1.4281    0.0000 H   0  0  0  0  0  0  0  0  0  0  0  0
    2.3556   -3.1484    0.0000 H   0  0  0  0  0  0  0  0  0  0  0  0
    6.0934    1.5044    0.0000 H   0  0  0  0  0  0  0  0  0  0  0  0
    6.1062    3.1701    0.0000 H   0  0  0  0  0  0  0  0  0  0  0  0
    2.8891    3.9652    0.0000 H   0  0  0  0  0  0  0  0  0  0  0  0
    5.6477   -3.9432    0.0000 H   0  0  0  0  0  0  0  0  0  0  0  0
    3.3015   -4.6950    0.0000 H   0  0  0  0  0  0  0  0  0  0  0  0
    5.1979    4.6950    0.0000 H   0  0  0  0  0  0  0  0  0  0  0  0
  1 17  1  0  0  0  0
  1 33  1  0  0  0  0
  2 18  1  0  0  0  0
  2 34  1  0  0  0  0
  3 19  1  0  0  0  0
  3 35  1  0  0  0  0
  4 21  1  0  0  0  0
  4 36  1  0  0  0  0
  5  6  1  0  0  0  0
  5  8  2  0  0  0  0
  5 11  1  0  0  0  0
  6  7  1  0  0  0  0
  6 23  1  0  0  0  0
  6 24  1  0  0  0  0
  7  9  1  0  0  0  0
  7 25  1  0  0  0  0
  7 26  1  0  0  0  0
  8 10  1  0  0  0  0
  8 12  1  0  0  0  0
  9 10  1  0  0  0  0
  9 15  2  0  0  0  0
 10 16  2  0  0  0  0
 11 13  2  0  0  0  0
 11 27  1  0  0  0  0
 12 14  2  0  0  0  0
 12 28  1  0  0  0  0
 13 14  1  0  0  0  0
 13 17  1  0  0  0  0
 14 20  1  0  0  0  0
 15 19  1  0  0  0  0
 15 30  1  0  0  0  0
 16 18  1  0  0  0  0
 16 29  1  0  0  0  0
 17 21  2  0  0  0  0
 18 19  2  0  0  0  0
 20 22  2  0  0  0  0
 20 31  1  0  0  0  0
 21 22  1  0  0  0  0
 22 32  1  0  0  0  0
M  CHG  1   5   1
M  END
> <PUBCHEM_COMPOUND_CID>
443768

> <PUBCHEM_COMPOUND_CANONICALIZED>
1

> <PUBCHEM_CACTVS_COMPLEXITY>
420

> <PUBCHEM_CACTVS_HBOND_ACCEPTOR>
4

> <PUBCHEM_CACTVS_HBOND_DONOR>
4

> <PUBCHEM_CACTVS_ROTATABLE_BOND>
0

> <PUBCHEM_CACTVS_SUBSKEYS>
AAADccB6OAAAAAAAAAAAAAAAAAAAAAAAAAA8eIEAAAAAAACx9AAAHgAACAAADAzBngQ8htMMEgCgAzRnRACCgCAxIiAI2CA+7JgJJuLCkZOEcAlmwBnJ2Aew0PMOoAABAAAYQABAAAIAADCAAAAAAAAAAA==

> <PUBCHEM_IUPAC_OPENEYE_NAME>
5,6-dihydroisoquinolino[2,1-b]isoquinolin-7-ium-2,3,9,10-tetrol

> <PUBCHEM_IUPAC_CAS_NAME>
5,6-dihydroisoquinolino[2,1-b]isoquinolin-7-ium-2,3,9,10-tetrol

> <PUBCHEM_IUPAC_NAME>
5,6-dihydroisoquinolino[2,1-b]isoquinolin-7-ium-2,3,9,10-tetrol

> <PUBCHEM_IUPAC_SYSTEMATIC_NAME>
5,6-dihydroisoquinolino[2,1-b]isoquinolin-7-ium-2,3,9,10-tetrol

> <PUBCHEM_IUPAC_TRADITIONAL_NAME>
5,6-dihydroisoquinolin[2,1-b]isoquinolin-7-ium-2,3,9,10-tetrol

> <PUBCHEM_IUPAC_INCHI>
InChI=1S/C17H13NO4/c19-14-2-1-9-5-13-11-7-16(21)15(20)6-10(11)3-4-18(13)8-12(9)17(14)22/h1-2,5-8H,3-4H2,(H3,19,20,21,22)/p+1

> <PUBCHEM_IUPAC_INCHIKEY>
DAHMYCXNJSCLGA-UHFFFAOYSA-O

> <PUBCHEM_XLOGP3_AA>
2.4

> <PUBCHEM_EXACT_MASS>
296.092283

> <PUBCHEM_MOLECULAR_FORMULA>
C17H14NO4+

> <PUBCHEM_MOLECULAR_WEIGHT>
296.29736

> <PUBCHEM_OPENEYE_CAN_SMILES>
C1C[N+]2=C(C=C3C=CC(=C(C3=C2)O)O)C4=CC(=C(C=C41)O)O

> <PUBCHEM_OPENEYE_ISO_SMILES>
C1C[N+]2=C(C=C3C=CC(=C(C3=C2)O)O)C4=CC(=C(C=C41)O)O

> <PUBCHEM_CACTVS_TPSA>
84.8

> <PUBCHEM_MONOISOTOPIC_WEIGHT>
296.092283

> <PUBCHEM_TOTAL_CHARGE>
1

> <PUBCHEM_HEAVY_ATOM_COUNT>
22

> <PUBCHEM_ATOM_DEF_STEREO_COUNT>
0

> <PUBCHEM_ATOM_UDEF_STEREO_COUNT>
0

> <PUBCHEM_BOND_DEF_STEREO_COUNT>
0

> <PUBCHEM_BOND_UDEF_STEREO_COUNT>
0

> <PUBCHEM_ISOTOPIC_ATOM_COUNT>
0

> <PUBCHEM_COMPONENT_COUNT>
1

> <PUBCHEM_CACTVS_TAUTO_COUNT>
593

> <PUBCHEM_COORDINATE_TYPE>
1
5
255

> <PUBCHEM_BONDANNOTATIONS>
10  16  8
11  13  8
12  14  8
13  14  8
13  17  8
14  20  8
15  19  8
16  18  8
17  21  8
18  19  8
20  22  8
21  22  8
5  11  8
5  8  8
8  12  8
9  10  8
9  15  8

$$$$

