73604
  -OEChem-07051212552D

 36 37  0     1  0  0  0  0  0999 V2000
    5.1350    0.3856    0.0000 O   0  0  0  0  0  0  0  0  0  0  0  0
    6.8671    0.3856    0.0000 O   0  0  0  0  0  0  0  0  0  0  0  0
    5.1350   -2.6144    0.0000 O   0  0  0  0  0  0  0  0  0  0  0  0
    6.8671   -1.6144    0.0000 O   0  0  0  0  0  0  0  0  0  0  0  0
    3.4030   -1.6144    0.0000 O   0  0  0  0  0  0  0  0  0  0  0  0
    2.5369   -0.1144    0.0000 O   0  0  0  0  0  0  0  0  0  0  0  0
    8.7692    0.7675    0.0000 N   0  0  0  0  0  0  0  0  0  0  0  0
    5.1350   -1.6144    0.0000 C   0  0  2  0  0  0  0  0  0  0  0  0
    6.0010   -1.1144    0.0000 C   0  0  2  0  0  0  0  0  0  0  0  0
    4.2690   -1.1144    0.0000 C   0  0  1  0  0  0  0  0  0  0  0  0
    6.0010   -0.1144    0.0000 C   0  0  1  0  0  0  0  0  0  0  0  0
    4.2690   -0.1144    0.0000 C   0  0  1  0  0  0  0  0  0  0  0  0
    6.8671    1.3856    0.0000 C   0  0  2  0  0  0  0  0  0  0  0  0
    7.1761    2.3366    0.0000 C   0  0  0  0  0  0  0  0  0  0  0  0
    3.4030    0.3856    0.0000 C   0  0  0  0  0  0  0  0  0  0  0  0
    6.3671    2.9244    0.0000 C   0  0  0  0  0  0  0  0  0  0  0  0
    5.8671    1.3856    0.0000 C   0  0  0  0  0  0  0  0  0  0  0  0
    5.5580    2.3366    0.0000 C   0  0  0  0  0  0  0  0  0  0  0  0
    7.8181    1.0766    0.0000 C   0  0  0  0  0  0  0  0  0  0  0  0
    5.6720   -1.9244    0.0000 H   0  0  0  0  0  0  0  0  0  0  0  0
    6.5380   -0.8044    0.0000 H   0  0  0  0  0  0  0  0  0  0  0  0
    4.2690   -1.7344    0.0000 H   0  0  0  0  0  0  0  0  0  0  0  0
    6.5380   -0.4244    0.0000 H   0  0  0  0  0  0  0  0  0  0  0  0
    4.2690    0.5056    0.0000 H   0  0  0  0  0  0  0  0  0  0  0  0
    7.7425    2.0845    0.0000 H   0  0  0  0  0  0  0  0  0  0  0  0
    7.4861    2.8736    0.0000 H   0  0  0  0  0  0  0  0  0  0  0  0
    3.8015    0.8605    0.0000 H   0  0  0  0  0  0  0  0  0  0  0  0
    3.0044    0.8605    0.0000 H   0  0  0  0  0  0  0  0  0  0  0  0
    6.7819    3.3852    0.0000 H   0  0  0  0  0  0  0  0  0  0  0  0
    5.9522    3.3852    0.0000 H   0  0  0  0  0  0  0  0  0  0  0  0
    5.5026    0.8840    0.0000 H   0  0  0  0  0  0  0  0  0  0  0  0
    4.9684    2.5282    0.0000 H   0  0  0  0  0  0  0  0  0  0  0  0
    4.5981   -2.9244    0.0000 H   0  0  0  0  0  0  0  0  0  0  0  0
    6.8671   -2.2344    0.0000 H   0  0  0  0  0  0  0  0  0  0  0  0
    3.4030   -2.2344    0.0000 H   0  0  0  0  0  0  0  0  0  0  0  0
    2.0000    0.1956    0.0000 H   0  0  0  0  0  0  0  0  0  0  0  0
  1 11  1  0  0  0  0
  1 12  1  0  0  0  0
 11  2  1  1  0  0  0
 13  2  1  1  0  0  0
  8  3  1  1  0  0  0
  3 33  1  0  0  0  0
  9  4  1  6  0  0  0
  4 34  1  0  0  0  0
 10  5  1  6  0  0  0
  5 35  1  0  0  0  0
  6 15  1  0  0  0  0
  6 36  1  0  0  0  0
  7 19  3  0  0  0  0
  8  9  1  0  0  0  0
  8 10  1  0  0  0  0
  8 20  1  0  0  0  0
  9 11  1  0  0  0  0
  9 21  1  0  0  0  0
 10 12  1  0  0  0  0
 10 22  1  0  0  0  0
 11 23  1  0  0  0  0
 12 15  1  1  0  0  0
 12 24  1  0  0  0  0
 13 14  1  0  0  0  0
 13 17  1  0  0  0  0
 13 19  1  0  0  0  0
 14 16  1  0  0  0  0
 14 25  1  0  0  0  0
 14 26  1  0  0  0  0
 15 27  1  0  0  0  0
 15 28  1  0  0  0  0
 16 18  1  0  0  0  0
 16 29  1  0  0  0  0
 16 30  1  0  0  0  0
 17 18  2  0  0  0  0
 17 31  1  0  0  0  0
 18 32  1  0  0  0  0
M  END
> <PUBCHEM_COMPOUND_CID>
73604

> <PUBCHEM_COMPOUND_CANONICALIZED>
1

> <PUBCHEM_CACTVS_COMPLEXITY>
404

> <PUBCHEM_CACTVS_HBOND_ACCEPTOR>
7

> <PUBCHEM_CACTVS_HBOND_DONOR>
4

> <PUBCHEM_CACTVS_ROTATABLE_BOND>
3

> <PUBCHEM_CACTVS_SUBSKEYS>
AAADceByOAAAAAAAAAAAAAAAAAAAAQAAAAAkAAAAAAAAAAAAAAAAHgAACAAADFSxgAMACAAABgCQBCBCAAAAAAAgAAAICAAAAAgRlAIAIQAiUAAFgAAPIAvAYAwMAAAAAAAAAAAAAAAAAAAAAAAAAAAAAA==

> <PUBCHEM_IUPAC_OPENEYE_NAME>
(1R)-1-[(2S,3R,4S,5S,6R)-3,4,5-trihydroxy-6-(hydroxymethyl)tetrahydropyran-2-yl]oxycyclopent-2-ene-1-carbonitrile

> <PUBCHEM_IUPAC_CAS_NAME>
(1R)-1-[[(2S,3R,4S,5S,6R)-3,4,5-trihydroxy-6-(hydroxymethyl)-2-oxanyl]oxy]-1-cyclopent-2-enecarbonitrile

> <PUBCHEM_IUPAC_NAME>
(1R)-1-[(2S,3R,4S,5S,6R)-3,4,5-trihydroxy-6-(hydroxymethyl)oxan-2-yl]oxycyclopent-2-ene-1-carbonitrile

> <PUBCHEM_IUPAC_SYSTEMATIC_NAME>
(1R)-1-[(2S,3R,4S,5S,6R)-6-(hydroxymethyl)-3,4,5-tris(oxidanyl)oxan-2-yl]oxycyclopent-2-ene-1-carbonitrile

> <PUBCHEM_IUPAC_TRADITIONAL_NAME>
(1R)-1-[(2S,3R,4S,5S,6R)-3,4,5-trihydroxy-6-methylol-tetrahydropyran-2-yl]oxycyclopent-2-ene-1-carbonitrile

> <PUBCHEM_IUPAC_INCHI>
InChI=1S/C12H17NO6/c13-6-12(3-1-2-4-12)19-11-10(17)9(16)8(15)7(5-14)18-11/h1,3,7-11,14-17H,2,4-5H2/t7-,8-,9+,10-,11+,12+/m1/s1

> <PUBCHEM_IUPAC_INCHIKEY>
HBCFZAXOSTUEHA-ZSOJELSESA-N

> <PUBCHEM_XLOGP3_AA>
-1.2

> <PUBCHEM_EXACT_MASS>
271.105587

> <PUBCHEM_MOLECULAR_FORMULA>
C12H17NO6

> <PUBCHEM_MOLECULAR_WEIGHT>
271.26648

> <PUBCHEM_OPENEYE_CAN_SMILES>
C1CC(C=C1)(C#N)OC2C(C(C(C(O2)CO)O)O)O

> <PUBCHEM_OPENEYE_ISO_SMILES>
C1C[C@@](C=C1)(C#N)O[C@H]2[C@@H]([C@H]([C@@H]([C@H](O2)CO)O)O)O

> <PUBCHEM_CACTVS_TPSA>
123

> <PUBCHEM_MONOISOTOPIC_WEIGHT>
271.105587

> <PUBCHEM_TOTAL_CHARGE>
0

> <PUBCHEM_HEAVY_ATOM_COUNT>
19

> <PUBCHEM_ATOM_DEF_STEREO_COUNT>
6

> <PUBCHEM_ATOM_UDEF_STEREO_COUNT>
0

> <PUBCHEM_BOND_DEF_STEREO_COUNT>
0

> <PUBCHEM_BOND_UDEF_STEREO_COUNT>
0

> <PUBCHEM_ISOTOPIC_ATOM_COUNT>
0

> <PUBCHEM_COMPONENT_COUNT>
1

> <PUBCHEM_CACTVS_TAUTO_COUNT>
1

> <PUBCHEM_COORDINATE_TYPE>
1
5
255

> <PUBCHEM_BONDANNOTATIONS>
12  15  5
11  2  5
13  2  5
8  3  5
9  4  6
10  5  6

$$$$

