440738
  -OEChem-07051212502D

 19 20  0     0  0  0  0  0  0999 V2000
    6.3961   -0.8342    0.0000 O   0  0  0  0  0  0  0  0  0  0  0  0
    2.8660   -1.8100    0.0000 O   0  0  0  0  0  0  0  0  0  0  0  0
    2.8660    1.1900    0.0000 N   0  0  0  0  0  0  0  0  0  0  0  0
    3.7320   -0.3100    0.0000 C   0  0  0  0  0  0  0  0  0  0  0  0
    3.7320    0.6900    0.0000 C   0  0  0  0  0  0  0  0  0  0  0  0
    4.6260   -0.8447    0.0000 C   0  0  0  0  0  0  0  0  0  0  0  0
    4.6260    1.2247    0.0000 C   0  0  0  0  0  0  0  0  0  0  0  0
    2.8660   -0.8100    0.0000 C   0  0  0  0  0  0  0  0  0  0  0  0
    5.5321   -0.3308    0.0000 C   0  0  0  0  0  0  0  0  0  0  0  0
    5.5321    0.7108    0.0000 C   0  0  0  0  0  0  0  0  0  0  0  0
    2.0000   -0.3100    0.0000 C   0  0  0  0  0  0  0  0  0  0  0  0
    2.0000    0.6900    0.0000 C   0  0  0  0  0  0  0  0  0  0  0  0
    4.6188   -1.4646    0.0000 H   0  0  0  0  0  0  0  0  0  0  0  0
    4.6188    1.8446    0.0000 H   0  0  0  0  0  0  0  0  0  0  0  0
    2.8660    1.8100    0.0000 H   0  0  0  0  0  0  0  0  0  0  0  0
    6.0678    1.0229    0.0000 H   0  0  0  0  0  0  0  0  0  0  0  0
    1.4631   -0.6200    0.0000 H   0  0  0  0  0  0  0  0  0  0  0  0
    1.4631    1.0000    0.0000 H   0  0  0  0  0  0  0  0  0  0  0  0
    6.9343   -0.5262    0.0000 H   0  0  0  0  0  0  0  0  0  0  0  0
  1  9  1  0  0  0  0
  1 19  1  0  0  0  0
  2  8  2  0  0  0  0
  3  5  1  0  0  0  0
  3 12  1  0  0  0  0
  3 15  1  0  0  0  0
  4  5  2  0  0  0  0
  4  6  1  0  0  0  0
  4  8  1  0  0  0  0
  5  7  1  0  0  0  0
  6  9  2  0  0  0  0
  6 13  1  0  0  0  0
  7 10  2  0  0  0  0
  7 14  1  0  0  0  0
  8 11  1  0  0  0  0
  9 10  1  0  0  0  0
 10 16  1  0  0  0  0
 11 12  2  0  0  0  0
 11 17  1  0  0  0  0
 12 18  1  0  0  0  0
M  END
> <PUBCHEM_COMPOUND_CID>
440738

> <PUBCHEM_COMPOUND_CANONICALIZED>
1

> <PUBCHEM_CACTVS_COMPLEXITY>
225

> <PUBCHEM_CACTVS_HBOND_ACCEPTOR>
3

> <PUBCHEM_CACTVS_HBOND_DONOR>
2

> <PUBCHEM_CACTVS_ROTATABLE_BOND>
0

> <PUBCHEM_CACTVS_SUBSKEYS>
AAADcYByMAAAAAAAAAAAAAAAAAAAAAAAAAAwQAAAAAAAAACBAAAAHgAQCAAADAzBmAQwxoLAAgCIAqRWQACCAAAlIgAIiIEObMgIJjrClZOEcYhk0BFI2ce6yLCOAEABAAACAAAAgAIAAAQAAAAAAAAAAA==

> <PUBCHEM_IUPAC_OPENEYE_NAME>
6-hydroxy-1H-quinolin-4-one

> <PUBCHEM_IUPAC_CAS_NAME>
6-hydroxy-1H-quinolin-4-one

> <PUBCHEM_IUPAC_NAME>
6-hydroxy-1H-quinolin-4-one

> <PUBCHEM_IUPAC_SYSTEMATIC_NAME>
6-oxidanyl-1H-quinolin-4-one

> <PUBCHEM_IUPAC_TRADITIONAL_NAME>
6-hydroxy-4-quinolone

> <PUBCHEM_IUPAC_INCHI>
InChI=1S/C9H7NO2/c11-6-1-2-8-7(5-6)9(12)3-4-10-8/h1-5,11H,(H,10,12)

> <PUBCHEM_IUPAC_INCHIKEY>
XFALURCRIGINGT-UHFFFAOYSA-N

> <PUBCHEM_XLOGP3>
0.2

> <PUBCHEM_EXACT_MASS>
161.047678

> <PUBCHEM_MOLECULAR_FORMULA>
C9H7NO2

> <PUBCHEM_MOLECULAR_WEIGHT>
161.15738

> <PUBCHEM_OPENEYE_CAN_SMILES>
C1=CC2=C(C=C1O)C(=O)C=CN2

> <PUBCHEM_OPENEYE_ISO_SMILES>
C1=CC2=C(C=C1O)C(=O)C=CN2

> <PUBCHEM_CACTVS_TPSA>
49.3

> <PUBCHEM_MONOISOTOPIC_WEIGHT>
161.047678

> <PUBCHEM_TOTAL_CHARGE>
0

> <PUBCHEM_HEAVY_ATOM_COUNT>
12

> <PUBCHEM_ATOM_DEF_STEREO_COUNT>
0

> <PUBCHEM_ATOM_UDEF_STEREO_COUNT>
0

> <PUBCHEM_BOND_DEF_STEREO_COUNT>
0

> <PUBCHEM_BOND_UDEF_STEREO_COUNT>
0

> <PUBCHEM_ISOTOPIC_ATOM_COUNT>
0

> <PUBCHEM_COMPONENT_COUNT>
1

> <PUBCHEM_CACTVS_TAUTO_COUNT>
9

> <PUBCHEM_COORDINATE_TYPE>
1
5
255

> <PUBCHEM_BONDANNOTATIONS>
11  12  8
3  12  8
3  5  8
4  5  8
4  6  8
4  8  8
5  7  8
6  9  8
7  10  8
8  11  8
9  10  8

$$$$

