51090912
  -OEChem-06241223002D

 47 49  0     1  0  0  0  0  0999 V2000
    3.3090   -5.0388    0.0000 O   0  0  0  0  0  0  0  0  0  0  0  0
    2.8090   -0.5000    0.0000 O   0  0  0  0  0  0  0  0  0  0  0  0
    7.0821    4.0878    0.0000 O   0  0  0  0  0  0  0  0  0  0  0  0
    7.1391    2.0000    0.0000 O   0  0  0  0  0  0  0  0  0  0  0  0
    3.6750   -2.0000    0.0000 N   0  0  0  0  0  0  0  0  0  0  0  0
    5.4071    2.0000    0.0000 N   0  0  0  0  0  0  0  0  0  0  0  0
    2.8090   -3.5000    0.0000 C   0  0  3  0  0  0  0  0  0  0  0  0
    2.0000   -4.0878    0.0000 C   0  0  0  0  0  0  0  0  0  0  0  0
    2.8090   -2.5000    0.0000 C   0  0  0  0  0  0  0  0  0  0  0  0
    3.6180   -4.0878    0.0000 C   0  0  0  0  0  0  0  0  0  0  0  0
    2.3090   -5.0388    0.0000 C   0  0  0  0  0  0  0  0  0  0  0  0
    4.5411   -2.5000    0.0000 C   0  0  0  0  0  0  0  0  0  0  0  0
    3.6750   -1.0000    0.0000 C   0  0  0  0  0  0  0  0  0  0  0  0
    4.5411   -3.5000    0.0000 C   0  0  0  0  0  0  0  0  0  0  0  0
    4.5411   -0.5000    0.0000 C   0  0  0  0  0  0  0  0  0  0  0  0
    4.5411    0.5000    0.0000 C   0  0  0  0  0  0  0  0  0  0  0  0
    5.4071   -1.0000    0.0000 C   0  0  0  0  0  0  0  0  0  0  0  0
    5.4071    1.0000    0.0000 C   0  0  0  0  0  0  0  0  0  0  0  0
    6.2731   -0.5000    0.0000 C   0  0  0  0  0  0  0  0  0  0  0  0
    6.2731    0.5000    0.0000 C   0  0  0  0  0  0  0  0  0  0  0  0
    6.2731    2.5000    0.0000 C   0  0  0  0  0  0  0  0  0  0  0  0
    6.2731    3.5000    0.0000 C   0  0  0  0  0  0  0  0  0  0  0  0
    5.4641    4.0878    0.0000 C   0  0  0  0  0  0  0  0  0  0  0  0
    5.7731    5.0388    0.0000 C   0  0  0  0  0  0  0  0  0  0  0  0
    6.7731    5.0388    0.0000 C   0  0  0  0  0  0  0  0  0  0  0  0
    3.3614   -3.2185    0.0000 H   0  0  0  0  0  0  0  0  0  0  0  0
    1.6900   -3.5508    0.0000 H   0  0  0  0  0  0  0  0  0  0  0  0
    1.4336   -4.3400    0.0000 H   0  0  0  0  0  0  0  0  0  0  0  0
    2.5970   -1.9174    0.0000 H   0  0  0  0  0  0  0  0  0  0  0  0
    2.1984   -2.6077    0.0000 H   0  0  0  0  0  0  0  0  0  0  0  0
    4.1844   -4.3400    0.0000 H   0  0  0  0  0  0  0  0  0  0  0  0
    3.9280   -3.5508    0.0000 H   0  0  0  0  0  0  0  0  0  0  0  0
    1.7026   -5.1678    0.0000 H   0  0  0  0  0  0  0  0  0  0  0  0
    2.3738   -5.6554    0.0000 H   0  0  0  0  0  0  0  0  0  0  0  0
    5.1516   -2.6077    0.0000 H   0  0  0  0  0  0  0  0  0  0  0  0
    4.7531   -1.9174    0.0000 H   0  0  0  0  0  0  0  0  0  0  0  0
    3.9211   -3.5000    0.0000 H   0  0  0  0  0  0  0  0  0  0  0  0
    4.5411   -4.1200    0.0000 H   0  0  0  0  0  0  0  0  0  0  0  0
    5.1611   -3.5000    0.0000 H   0  0  0  0  0  0  0  0  0  0  0  0
    4.0041    0.8100    0.0000 H   0  0  0  0  0  0  0  0  0  0  0  0
    5.4071   -1.6200    0.0000 H   0  0  0  0  0  0  0  0  0  0  0  0
    6.8100   -0.8100    0.0000 H   0  0  0  0  0  0  0  0  0  0  0  0
    6.8100    0.8100    0.0000 H   0  0  0  0  0  0  0  0  0  0  0  0
    4.8702    2.3100    0.0000 H   0  0  0  0  0  0  0  0  0  0  0  0
    4.8745    3.8962    0.0000 H   0  0  0  0  0  0  0  0  0  0  0  0
    5.4087    5.5404    0.0000 H   0  0  0  0  0  0  0  0  0  0  0  0
    7.1376    5.5404    0.0000 H   0  0  0  0  0  0  0  0  0  0  0  0
  1 10  1  0  0  0  0
  1 11  1  0  0  0  0
  2 13  2  0  0  0  0
  3 22  1  0  0  0  0
  3 25  1  0  0  0  0
  4 21  2  0  0  0  0
  5  9  1  0  0  0  0
  5 12  1  0  0  0  0
  5 13  1  0  0  0  0
  6 18  1  0  0  0  0
  6 21  1  0  0  0  0
  6 44  1  0  0  0  0
  7  8  1  0  0  0  0
  7  9  1  0  0  0  0
  7 10  1  0  0  0  0
  7 26  1  0  0  0  0
  8 11  1  0  0  0  0
  8 27  1  0  0  0  0
  8 28  1  0  0  0  0
  9 29  1  0  0  0  0
  9 30  1  0  0  0  0
 10 31  1  0  0  0  0
 10 32  1  0  0  0  0
 11 33  1  0  0  0  0
 11 34  1  0  0  0  0
 12 14  1  0  0  0  0
 12 35  1  0  0  0  0
 12 36  1  0  0  0  0
 13 15  1  0  0  0  0
 14 37  1  0  0  0  0
 14 38  1  0  0  0  0
 14 39  1  0  0  0  0
 15 16  2  0  0  0  0
 15 17  1  0  0  0  0
 16 18  1  0  0  0  0
 16 40  1  0  0  0  0
 17 19  2  0  0  0  0
 17 41  1  0  0  0  0
 18 20  2  0  0  0  0
 19 20  1  0  0  0  0
 19 42  1  0  0  0  0
 20 43  1  0  0  0  0
 21 22  1  0  0  0  0
 22 23  2  0  0  0  0
 23 24  1  0  0  0  0
 23 45  1  0  0  0  0
 24 25  2  0  0  0  0
 24 46  1  0  0  0  0
 25 47  1  0  0  0  0
M  END
> <PUBCHEM_COMPOUND_CID>
51090912

> <PUBCHEM_COMPOUND_CANONICALIZED>
1

> <PUBCHEM_CACTVS_COMPLEXITY>
470

> <PUBCHEM_CACTVS_HBOND_ACCEPTOR>
4

> <PUBCHEM_CACTVS_HBOND_DONOR>
1

> <PUBCHEM_CACTVS_ROTATABLE_BOND>
6

> <PUBCHEM_CACTVS_SUBSKEYS>
AAADceB7OAAAAAAAAAAAAAAAAAAAASJAAAAwAAAAAAAAAAABwAAAHgAQAAAADQzhmAYyxIPABECIAq1S0AKCCAAlIgAIiAHObMgOJjLEtb+HOSjm1hHY6Ye8nwKOAAAAQAAAAAAAAACAAAAAAAAAAAAAAA==

> <PUBCHEM_IUPAC_OPENEYE_NAME>
N-[3-[ethyl(tetrahydrofuran-3-ylmethyl)carbamoyl]phenyl]furan-2-carboxamide

> <PUBCHEM_IUPAC_CAS_NAME>
N-[3-[[ethyl(3-oxolanylmethyl)amino]-oxomethyl]phenyl]-2-furancarboxamide

> <PUBCHEM_IUPAC_NAME>
N-[3-[ethyl(oxolan-3-ylmethyl)carbamoyl]phenyl]furan-2-carboxamide

> <PUBCHEM_IUPAC_SYSTEMATIC_NAME>
N-[3-[ethyl(oxolan-3-ylmethyl)carbamoyl]phenyl]furan-2-carboxamide

> <PUBCHEM_IUPAC_TRADITIONAL_NAME>
N-[3-[ethyl(tetrahydrofuran-3-ylmethyl)carbamoyl]phenyl]-2-furamide

> <PUBCHEM_IUPAC_INCHI>
InChI=1S/C19H22N2O4/c1-2-21(12-14-8-10-24-13-14)19(23)15-5-3-6-16(11-15)20-18(22)17-7-4-9-25-17/h3-7,9,11,14H,2,8,10,12-13H2,1H3,(H,20,22)

> <PUBCHEM_IUPAC_INCHIKEY>
RSKXAYMTHNSRAG-UHFFFAOYSA-N

> <PUBCHEM_XLOGP3_AA>
2.2

> <PUBCHEM_EXACT_MASS>
342.157957

> <PUBCHEM_MOLECULAR_FORMULA>
C19H22N2O4

> <PUBCHEM_MOLECULAR_WEIGHT>
342.38898

> <PUBCHEM_OPENEYE_CAN_SMILES>
CCN(CC1CCOC1)C(=O)C2=CC(=CC=C2)NC(=O)C3=CC=CO3

> <PUBCHEM_OPENEYE_ISO_SMILES>
CCN(CC1CCOC1)C(=O)C2=CC(=CC=C2)NC(=O)C3=CC=CO3

> <PUBCHEM_CACTVS_TPSA>
71.8

> <PUBCHEM_MONOISOTOPIC_WEIGHT>
342.157957

> <PUBCHEM_TOTAL_CHARGE>
0

> <PUBCHEM_HEAVY_ATOM_COUNT>
25

> <PUBCHEM_ATOM_DEF_STEREO_COUNT>
0

> <PUBCHEM_ATOM_UDEF_STEREO_COUNT>
1

> <PUBCHEM_BOND_DEF_STEREO_COUNT>
0

> <PUBCHEM_BOND_UDEF_STEREO_COUNT>
0

> <PUBCHEM_ISOTOPIC_ATOM_COUNT>
0

> <PUBCHEM_COMPONENT_COUNT>
1

> <PUBCHEM_CACTVS_TAUTO_COUNT>
2

> <PUBCHEM_COORDINATE_TYPE>
1
5
255

> <PUBCHEM_BONDANNOTATIONS>
15  16  8
15  17  8
16  18  8
17  19  8
18  20  8
19  20  8
22  23  8
23  24  8
24  25  8
3  22  8
3  25  8
7  9  3

$$$$

