   Color/Form

     * Water-white to amber-colored liquid
     * Colorless to amber-colored liquid [Note: A solid below 10 degrees
       F].
     * Liquid

   from [1]HSDB

   Odor
        Odorless [Note: The technical product has a very disagreeable
   odor].
   from [2]HSDB

   Boiling Point
        165 deg C @ 0.3 mm Hg
   from [3]HSDB

   Melting Point
        -12 to -13 deg C
   from [4]HSDB

   Corrosivity
        Non-corrosive
   from [5]HSDB

   Density/Specific Gravity
        1.220 @ 20 deg C/4 deg C
   from [6]HSDB

   Octanol/Water Partition Coefficient
        log Kow = 5.073
   from [7]HSDB

   Solubilities

     * Soluble in xylene, chloroform, acetone, kerosene, and 1% methyl
       ethyl ketone or benzene, and methylated naphthalene.
     * Sol in petroleum oils, most organic solvents
     * Sol in methyl alcohol and ethyl alcohol
     * MISCIBLE WITH AROMATICS
     * In water, 2.0 mg/l @ 25 deg C [Shiu WY et al; Rev Environ Contam
       Toxicol 116: 15-187 (1990)] [8]PubMed Abstract

   from [9]HSDB

   Spectral Properties

     * Index of refraction: 1.5490 @ 20 deg C/D
     * Intense mass spectral peaks: 231 m/z (100%), 153 m/z (87%), 97 m/z
       (83%), 125 m/z (67%)

   from [10]HSDB

   Vapor Pressure
        1.5X10-6 mm Hg @ 25 deg C
   from [11]HSDB

   Other Chemical/Physical Properties

     * INDEX OF REFRACTION: 1.530-1.542 @ 20 DEG C/D /TECHNICAL GRADE/
     * Hydrolyzed by acids and alkalies
     * VERY DISAGREEABLE ODOR /TECHNICAL PRODUCT/
     * BP: decomposes >150 deg C

   from [12]HSDB

   Computed Properties
   Molecular Weight                  384.476104 [g/mol]
   Molecular Formula                 C[9]H[22]O[4]P[2]S[4]
   XLogP3                            5.1
   H-Bond Donor                      0
   H-Bond Acceptor                   8
   Rotatable Bond Count              12
   Exact Mass                        383.987616
   MonoIsotopic Mass                 383.987616
   Topological Polar Surface Area    152
   Heavy Atom Count                  19
   Formal Charge                     0
   Complexity                        279
   Isotope Atom Count                0
   Defined Atom Stereocenter Count   0
   Undefined Atom Stereocenter Count 0
   Defined Bond Stereocenter Count   0
   Undefined Bond Stereocenter Count 0
   Covalently-Bonded Unit Count      1
   Effective Rotor Count             12
   Conformer Sampling RMSD           1
   CID Conformer Count               [13]80

References

   1. http://toxnet.nlm.nih.gov/cgi-bin/sis/search/r?dbs+hsdb:@term+@rn+@rel+563-12-2
   2. http://toxnet.nlm.nih.gov/cgi-bin/sis/search/r?dbs+hsdb:@term+@rn+@rel+563-12-2
   3. http://toxnet.nlm.nih.gov/cgi-bin/sis/search/r?dbs+hsdb:@term+@rn+@rel+563-12-2
   4. http://toxnet.nlm.nih.gov/cgi-bin/sis/search/r?dbs+hsdb:@term+@rn+@rel+563-12-2
   5. http://toxnet.nlm.nih.gov/cgi-bin/sis/search/r?dbs+hsdb:@term+@rn+@rel+563-12-2
   6. http://toxnet.nlm.nih.gov/cgi-bin/sis/search/r?dbs+hsdb:@term+@rn+@rel+563-12-2
   7. http://toxnet.nlm.nih.gov/cgi-bin/sis/search/r?dbs+hsdb:@term+@rn+@rel+563-12-2
   8. http://www.ncbi.nlm.nih.gov/entrez/query.fcgi?cmd=Retrieve&db=pubmed&dopt=Abstract&list_uids=2205893
   9. http://toxnet.nlm.nih.gov/cgi-bin/sis/search/r?dbs+hsdb:@term+@rn+@rel+563-12-2
  10. http://toxnet.nlm.nih.gov/cgi-bin/sis/search/r?dbs+hsdb:@term+@rn+@rel+563-12-2
  11. http://toxnet.nlm.nih.gov/cgi-bin/sis/search/r?dbs+hsdb:@term+@rn+@rel+563-12-2
  12. http://toxnet.nlm.nih.gov/cgi-bin/sis/search/r?dbs+hsdb:@term+@rn+@rel+563-12-2
  13. http://pubchem.ncbi.nlm.nih.gov/vw3d/vw3d.cgi?cid=3286
