441728
  -OEChem-07051212552D

 77 83  0     1  0  0  0  0  0999 V2000
    7.8725   -1.3704    0.0000 O   0  0  0  0  0  0  0  0  0  0  0  0
    8.5634    0.0644    0.0000 O   0  0  0  0  0  0  0  0  0  0  0  0
    5.6163    1.7999    0.0000 O   0  0  0  0  0  0  0  0  0  0  0  0
    6.1234   -1.8083    0.0000 O   0  0  0  0  0  0  0  0  0  0  0  0
    4.5743    1.9486    0.0000 O   0  0  0  0  0  0  0  0  0  0  0  0
    8.6327    1.7574    0.0000 O   0  0  0  0  0  0  0  0  0  0  0  0
    9.0340    2.4669    0.0000 O   0  0  0  0  0  0  0  0  0  0  0  0
    7.8120   -2.1937    0.0000 O   0  0  0  0  0  0  0  0  0  0  0  0
    3.7210    0.1799    0.0000 N   0  0  3  0  0  0  0  0  0  0  0  0
    5.6676    0.5752    0.0000 C   0  0  1  0  0  0  0  0  0  0  0  0
    7.1918   -0.6403    0.0000 C   0  0  2  0  0  0  0  0  0  0  0  0
    6.3459    1.1161    0.0000 C   0  0  2  0  0  0  0  0  0  0  0  0
    4.6656    0.4691    0.0000 C   0  0  3  0  0  0  0  0  0  0  0  0
    5.6676   -0.2924    0.0000 C   0  0  2  0  0  0  0  0  0  0  0  0
    7.5682    0.1414    0.0000 C   0  0  1  0  0  0  0  0  0  0  0  0
    7.1918    0.9230    0.0000 C   0  0  1  0  0  0  0  0  0  0  0  0
    6.3459   -0.8333    0.0000 C   0  0  2  0  0  0  0  0  0  0  0  0
    4.9163   -0.7262    0.0000 C   0  0  2  0  0  0  0  0  0  0  0  0
    4.9163    1.0090    0.0000 C   0  0  2  0  0  0  0  0  0  0  0  0
    6.2682    1.9802    0.0000 C   0  0  0  0  0  0  0  0  0  0  0  0
    7.0659    2.3212    0.0000 C   0  0  1  0  0  0  0  0  0  0  0  0
    7.6367    1.6678    0.0000 C   0  0  2  0  0  0  0  0  0  0  0  0
    8.2131    0.4113    0.0000 C   0  0  0  0  0  0  0  0  0  0  0  0
    3.7210   -0.5720    0.0000 C   0  0  0  0  0  0  0  0  0  0  0  0
    8.2131    1.8958    0.0000 C   0  0  2  0  0  0  0  0  0  0  0  0
    4.1649   -0.2924    0.0000 C   0  0  0  0  0  0  0  0  0  0  0  0
    4.1649    0.5752    0.0000 C   0  0  0  0  0  0  0  0  0  0  0  0
    4.9163   -1.7262    0.0000 C   0  0  0  0  0  0  0  0  0  0  0  0
    8.7604   -0.9143    0.0000 C   0  0  0  0  0  0  0  0  0  0  0  0
    2.9170    0.7746    0.0000 C   0  0  0  0  0  0  0  0  0  0  0  0
    2.0000    0.3757    0.0000 C   0  0  0  0  0  0  0  0  0  0  0  0
    6.8564   -2.4884    0.0000 C   0  0  0  0  0  0  0  0  0  0  0  0
    3.5894    2.1223    0.0000 C   0  0  0  0  0  0  0  0  0  0  0  0
    9.2083    0.9397    0.0000 C   0  0  0  0  0  0  0  0  0  0  0  0
    8.9498    3.4634    0.0000 C   0  0  0  0  0  0  0  0  0  0  0  0
    6.6339   -3.4634    0.0000 C   0  0  0  0  0  0  0  0  0  0  0  0
    4.5417    1.0766    0.0000 H   0  0  0  0  0  0  0  0  0  0  0  0
    5.6041   -1.1400    0.0000 H   0  0  0  0  0  0  0  0  0  0  0  0
    8.0409    0.8849    0.0000 H   0  0  0  0  0  0  0  0  0  0  0  0
    5.7607   -1.0381    0.0000 H   0  0  0  0  0  0  0  0  0  0  0  0
    5.3912    1.4075    0.0000 H   0  0  0  0  0  0  0  0  0  0  0  0
    6.0854    2.5726    0.0000 H   0  0  0  0  0  0  0  0  0  0  0  0
    5.6598    1.8604    0.0000 H   0  0  0  0  0  0  0  0  0  0  0  0
    7.0452    3.1709    0.0000 H   0  0  0  0  0  0  0  0  0  0  0  0
    7.8676    2.2432    0.0000 H   0  0  0  0  0  0  0  0  0  0  0  0
    8.3750   -0.1872    0.0000 H   0  0  0  0  0  0  0  0  0  0  0  0
    8.8277    0.4930    0.0000 H   0  0  0  0  0  0  0  0  0  0  0  0
    3.1015   -0.5455    0.0000 H   0  0  0  0  0  0  0  0  0  0  0  0
    3.6680   -1.1897    0.0000 H   0  0  0  0  0  0  0  0  0  0  0  0
    8.1349    2.5109    0.0000 H   0  0  0  0  0  0  0  0  0  0  0  0
    3.5544   -0.1848    0.0000 H   0  0  0  0  0  0  0  0  0  0  0  0
    3.9529   -0.8750    0.0000 H   0  0  0  0  0  0  0  0  0  0  0  0
    3.9529    1.1578    0.0000 H   0  0  0  0  0  0  0  0  0  0  0  0
    3.5544    0.4675    0.0000 H   0  0  0  0  0  0  0  0  0  0  0  0
    5.7572    2.4037    0.0000 H   0  0  0  0  0  0  0  0  0  0  0  0
    4.2963   -1.7262    0.0000 H   0  0  0  0  0  0  0  0  0  0  0  0
    4.9163   -2.3462    0.0000 H   0  0  0  0  0  0  0  0  0  0  0  0
    5.5363   -1.7262    0.0000 H   0  0  0  0  0  0  0  0  0  0  0  0
    8.9919   -1.4894    0.0000 H   0  0  0  0  0  0  0  0  0  0  0  0
    9.3544   -0.7366    0.0000 H   0  0  0  0  0  0  0  0  0  0  0  0
    3.3666    1.2015    0.0000 H   0  0  0  0  0  0  0  0  0  0  0  0
    2.5747    1.2916    0.0000 H   0  0  0  0  0  0  0  0  0  0  0  0
    1.7527    0.9442    0.0000 H   0  0  0  0  0  0  0  0  0  0  0  0
    1.4315    0.1284    0.0000 H   0  0  0  0  0  0  0  0  0  0  0  0
    2.2473   -0.1928    0.0000 H   0  0  0  0  0  0  0  0  0  0  0  0
    3.6971    2.7329    0.0000 H   0  0  0  0  0  0  0  0  0  0  0  0
    2.9789    2.2299    0.0000 H   0  0  0  0  0  0  0  0  0  0  0  0
    3.4818    1.5117    0.0000 H   0  0  0  0  0  0  0  0  0  0  0  0
    8.7013    0.5828    0.0000 H   0  0  0  0  0  0  0  0  0  0  0  0
    9.5652    0.4327    0.0000 H   0  0  0  0  0  0  0  0  0  0  0  0
    9.7153    1.2966    0.0000 H   0  0  0  0  0  0  0  0  0  0  0  0
    9.5676    3.5156    0.0000 H   0  0  0  0  0  0  0  0  0  0  0  0
    8.8976    4.0812    0.0000 H   0  0  0  0  0  0  0  0  0  0  0  0
    8.3320    3.4112    0.0000 H   0  0  0  0  0  0  0  0  0  0  0  0
    6.0295   -3.3254    0.0000 H   0  0  0  0  0  0  0  0  0  0  0  0
    6.4960   -4.0678    0.0000 H   0  0  0  0  0  0  0  0  0  0  0  0
    7.2384   -3.6013    0.0000 H   0  0  0  0  0  0  0  0  0  0  0  0
 11  1  1  6  0  0  0
  1 29  1  0  0  0  0
 15  2  1  1  0  0  0
  2 29  1  0  0  0  0
 12  3  1  1  0  0  0
  3 55  1  0  0  0  0
 17  4  1  1  0  0  0
  4 32  1  0  0  0  0
 19  5  1  6  0  0  0
  5 33  1  0  0  0  0
 22  6  1  6  0  0  0
  6 34  1  0  0  0  0
 25  7  1  1  0  0  0
  7 35  1  0  0  0  0
  8 32  2  0  0  0  0
  9 13  1  0  0  0  0
  9 24  1  0  0  0  0
  9 30  1  0  0  0  0
 10 12  1  0  0  0  0
 10 13  1  0  0  0  0
 10 14  1  0  0  0  0
 10 19  1  1  0  0  0
 11 13  1  0  0  0  0
 11 15  1  0  0  0  0
 11 17  1  0  0  0  0
 12 16  1  0  0  0  0
 12 20  1  0  0  0  0
 13 37  1  0  0  0  0
 14 17  1  0  0  0  0
 14 18  1  0  0  0  0
 14 38  1  1  0  0  0
 15 16  1  0  0  0  0
 15 23  1  0  0  0  0
 16 22  1  0  0  0  0
 16 39  1  1  0  0  0
 17 40  1  0  0  0  0
 18 24  1  0  0  0  0
 18 26  1  0  0  0  0
 18 28  1  1  0  0  0
 19 27  1  0  0  0  0
 19 41  1  0  0  0  0
 20 21  1  0  0  0  0
 20 42  1  0  0  0  0
 20 43  1  0  0  0  0
 21 22  1  0  0  0  0
 21 25  1  0  0  0  0
 21 44  1  1  0  0  0
 22 45  1  0  0  0  0
 23 25  1  0  0  0  0
 23 46  1  0  0  0  0
 23 47  1  0  0  0  0
 24 48  1  0  0  0  0
 24 49  1  0  0  0  0
 25 50  1  0  0  0  0
 26 27  1  0  0  0  0
 26 51  1  0  0  0  0
 26 52  1  0  0  0  0
 27 53  1  0  0  0  0
 27 54  1  0  0  0  0
 28 56  1  0  0  0  0
 28 57  1  0  0  0  0
 28 58  1  0  0  0  0
 29 59  1  0  0  0  0
 29 60  1  0  0  0  0
 30 31  1  0  0  0  0
 30 61  1  0  0  0  0
 30 62  1  0  0  0  0
 31 63  1  0  0  0  0
 31 64  1  0  0  0  0
 31 65  1  0  0  0  0
 32 36  1  0  0  0  0
 33 66  1  0  0  0  0
 33 67  1  0  0  0  0
 33 68  1  0  0  0  0
 34 69  1  0  0  0  0
 34 70  1  0  0  0  0
 34 71  1  0  0  0  0
 35 72  1  0  0  0  0
 35 73  1  0  0  0  0
 35 74  1  0  0  0  0
 36 75  1  0  0  0  0
 36 76  1  0  0  0  0
 36 77  1  0  0  0  0
M  END
> <PUBCHEM_COMPOUND_CID>
441728

> <PUBCHEM_COMPOUND_CANONICALIZED>
1

> <PUBCHEM_CACTVS_COMPLEXITY>
979

> <PUBCHEM_CACTVS_HBOND_ACCEPTOR>
9

> <PUBCHEM_CACTVS_HBOND_DONOR>
1

> <PUBCHEM_CACTVS_ROTATABLE_BOND>
6

> <PUBCHEM_CACTVS_SUBSKEYS>
AAADcfB6PAAAAAAAAAAAAAAAAAAAAaIAAAA8YMEAB4gWAGiQAAAAHgAACAAAD3zhgAcCCAMABgAIAACQCAAAAAAAAAAAAAAIAAATAAIAgAAnQAAHAACWAAHw8P8PgAAAAAAAAADSAAaUADSgAaUADSgAAA==

> <PUBCHEM_IUPAC_INCHI>
InChI=1S/C27H41NO8/c1-7-28-12-23(3)9-8-17(32-5)26-20(23)21(36-14(2)29)27(22(26)28)25(34-13-35-27)11-16(31-4)15-10-24(26,30)19(25)18(15)33-6/h15-22,30H,7-13H2,1-6H3/t15-,16+,17+,18+,19+,20-,21+,22?,23+,24+,25-,26-,27-/m1/s1

> <PUBCHEM_IUPAC_INCHIKEY>
DTTPWCNKTMQMTE-DZZCPBQSSA-N

> <PUBCHEM_XLOGP3_AA>
0.6

> <PUBCHEM_EXACT_MASS>
507.283217

> <PUBCHEM_MOLECULAR_FORMULA>
C27H41NO8

> <PUBCHEM_MOLECULAR_WEIGHT>
507.61634

> <PUBCHEM_OPENEYE_CAN_SMILES>
CCN1CC2(CCC(C34C2C(C5(C31)C6(CC(C7CC4(C6C7OC)O)OC)OCO5)OC(=O)C)OC)C

> <PUBCHEM_OPENEYE_ISO_SMILES>
CCN1C[C@@]2(CC[C@@H]([C@@]34[C@@H]2[C@@H]([C@@]5(C31)[C@]6(C[C@@H]([C@H]7C[C@@]4([C@@H]6[C@H]7OC)O)OC)OCO5)OC(=O)C)OC)C

> <PUBCHEM_CACTVS_TPSA>
95.9

> <PUBCHEM_MONOISOTOPIC_WEIGHT>
507.283217

> <PUBCHEM_TOTAL_CHARGE>
0

> <PUBCHEM_HEAVY_ATOM_COUNT>
36

> <PUBCHEM_ATOM_DEF_STEREO_COUNT>
12

> <PUBCHEM_ATOM_UDEF_STEREO_COUNT>
1

> <PUBCHEM_BOND_DEF_STEREO_COUNT>
0

> <PUBCHEM_BOND_UDEF_STEREO_COUNT>
0

> <PUBCHEM_ISOTOPIC_ATOM_COUNT>
0

> <PUBCHEM_COMPONENT_COUNT>
1

> <PUBCHEM_CACTVS_TAUTO_COUNT>
1

> <PUBCHEM_COORDINATE_TYPE>
1
5
255

> <PUBCHEM_BONDANNOTATIONS>
11  1  6
10  19  5
14  38  5
16  39  5
18  28  5
15  2  5
21  44  5
12  3  5
17  4  5
19  5  6
22  6  6
25  7  5
13  9  3

$$$$

