   Melting Point
        169-171 deg C
   from [1]HSDB

   Dissociation Constants
        pKa = 10.4 (est) (amide)
   from [2]HSDB

   Octanol/Water Partition Coefficient
        log Kow = 0.93
   from [3]HSDB

   Solubilities
        In water, 2.14X10+4 mg/L at 25 deg C (est)
   from [4]HSDB

   Vapor Pressure
        7.05X10-9 mm Hg at 25 deg C (est)
   from [5]HSDB

   Other Chemical/Physical Properties

     * MW: 413.49; mp 165-166 deg C /Sumatriptan succinate/
     * Henry's Law constant = 4.47X10-14 atm-cu m/mol at 25 deg C (est)

   from [6]HSDB

   Computed Properties
   Molecular Weight                  295.40044 [g/mol]
   Molecular Formula                 C[14]H[21]N[3]O[2]S
   XLogP3                            0.9
   H-Bond Donor                      2
   H-Bond Acceptor                   4
   Rotatable Bond Count              6
   Exact Mass                        295.135448
   MonoIsotopic Mass                 295.135448
   Topological Polar Surface Area    73.6
   Heavy Atom Count                  20
   Formal Charge                     0
   Complexity                        405
   Isotope Atom Count                0
   Defined Atom Stereocenter Count   0
   Undefined Atom Stereocenter Count 0
   Defined Bond Stereocenter Count   0
   Undefined Bond Stereocenter Count 0
   Covalently-Bonded Unit Count      1
   Feature 3D Acceptor Count         2
   Feature 3D Donor Count            2
   Feature 3D Cation Count           2
   Feature 3D Ring Count             2
   Effective Rotor Count             6
   Conformer Sampling RMSD           0.8
   CID Conformer Count               [7]65

References

   1. http://toxnet.nlm.nih.gov/cgi-bin/sis/search/r?dbs+hsdb:@term+@rn+@rel+103628-46-2
   2. http://toxnet.nlm.nih.gov/cgi-bin/sis/search/r?dbs+hsdb:@term+@rn+@rel+103628-46-2
   3. http://toxnet.nlm.nih.gov/cgi-bin/sis/search/r?dbs+hsdb:@term+@rn+@rel+103628-46-2
   4. http://toxnet.nlm.nih.gov/cgi-bin/sis/search/r?dbs+hsdb:@term+@rn+@rel+103628-46-2
   5. http://toxnet.nlm.nih.gov/cgi-bin/sis/search/r?dbs+hsdb:@term+@rn+@rel+103628-46-2
   6. http://toxnet.nlm.nih.gov/cgi-bin/sis/search/r?dbs+hsdb:@term+@rn+@rel+103628-46-2
   7. http://pubchem.ncbi.nlm.nih.gov/vw3d/vw3d.cgi?cid=5358
