6876
  -OEChem-06261201332D

 28 28  0     0  0  0  0  0  0999 V2000
    6.3301    0.3450    0.0000 O   0  0  0  0  0  0  0  0  0  0  0  0
    3.7320   -1.1550    0.0000 O   0  0  0  0  0  0  0  0  0  0  0  0
    7.1962    2.8450    0.0000 O   0  0  0  0  0  0  0  0  0  0  0  0
    4.5981    0.3450    0.0000 O   0  0  0  0  0  0  0  0  0  0  0  0
    2.8660   -2.6550    0.0000 O   0  0  0  0  0  0  0  0  0  0  0  0
    5.4641   -1.1550    0.0000 C   0  0  0  0  0  0  0  0  0  0  0  0
    4.5981   -1.6550    0.0000 C   0  0  0  0  0  0  0  0  0  0  0  0
    6.3301   -1.6550    0.0000 C   0  0  0  0  0  0  0  0  0  0  0  0
    5.4641   -0.1550    0.0000 C   0  0  0  0  0  0  0  0  0  0  0  0
    4.5981   -2.6550    0.0000 C   0  0  0  0  0  0  0  0  0  0  0  0
    6.3301    1.3450    0.0000 C   0  0  0  0  0  0  0  0  0  0  0  0
    6.3301   -2.6550    0.0000 C   0  0  0  0  0  0  0  0  0  0  0  0
    5.4641   -3.1550    0.0000 C   0  0  0  0  0  0  0  0  0  0  0  0
    7.1962    1.8450    0.0000 C   0  0  0  0  0  0  0  0  0  0  0  0
    2.8660   -1.6550    0.0000 C   0  0  0  0  0  0  0  0  0  0  0  0
    2.0000   -1.1550    0.0000 C   0  0  0  0  0  0  0  0  0  0  0  0
    6.8671   -1.3450    0.0000 H   0  0  0  0  0  0  0  0  0  0  0  0
    6.1181    1.9276    0.0000 H   0  0  0  0  0  0  0  0  0  0  0  0
    5.7196    1.2373    0.0000 H   0  0  0  0  0  0  0  0  0  0  0  0
    4.0611   -2.9650    0.0000 H   0  0  0  0  0  0  0  0  0  0  0  0
    6.8671   -2.9650    0.0000 H   0  0  0  0  0  0  0  0  0  0  0  0
    5.4641   -3.7750    0.0000 H   0  0  0  0  0  0  0  0  0  0  0  0
    7.4082    1.2624    0.0000 H   0  0  0  0  0  0  0  0  0  0  0  0
    7.8067    1.9527    0.0000 H   0  0  0  0  0  0  0  0  0  0  0  0
    2.3100   -0.6181    0.0000 H   0  0  0  0  0  0  0  0  0  0  0  0
    1.4631   -0.8450    0.0000 H   0  0  0  0  0  0  0  0  0  0  0  0
    1.6900   -1.6919    0.0000 H   0  0  0  0  0  0  0  0  0  0  0  0
    7.7331    3.1550    0.0000 H   0  0  0  0  0  0  0  0  0  0  0  0
  1  9  1  0  0  0  0
  1 11  1  0  0  0  0
  2  7  1  0  0  0  0
  2 15  1  0  0  0  0
  3 14  1  0  0  0  0
  3 28  1  0  0  0  0
  4  9  2  0  0  0  0
  5 15  2  0  0  0  0
  6  7  1  0  0  0  0
  6  8  2  0  0  0  0
  6  9  1  0  0  0  0
  7 10  2  0  0  0  0
  8 12  1  0  0  0  0
  8 17  1  0  0  0  0
 10 13  1  0  0  0  0
 10 20  1  0  0  0  0
 11 14  1  0  0  0  0
 11 18  1  0  0  0  0
 11 19  1  0  0  0  0
 12 13  2  0  0  0  0
 12 21  1  0  0  0  0
 13 22  1  0  0  0  0
 14 23  1  0  0  0  0
 14 24  1  0  0  0  0
 15 16  1  0  0  0  0
 16 25  1  0  0  0  0
 16 26  1  0  0  0  0
 16 27  1  0  0  0  0
M  END
> <PUBCHEM_COMPOUND_CID>
6876

> <PUBCHEM_COMPOUND_CANONICALIZED>
1

> <PUBCHEM_CACTVS_COMPLEXITY>
251

> <PUBCHEM_CACTVS_HBOND_ACCEPTOR>
5

> <PUBCHEM_CACTVS_HBOND_DONOR>
1

> <PUBCHEM_CACTVS_ROTATABLE_BOND>
6

> <PUBCHEM_CACTVS_SUBSKEYS>
AAADccBwOAAAAAAAAAAAAAAAAAAAAAAAAAAwAAAAAAAAAAABAAAAGgAACAAADASgmAIyDoAABgCIAiDSCAACCAAkIAAIiAEGCMgNNzaENRqCO2Cl4BELqYeIyCCOAAAAAAAIAAAAAAAAABAAAAAAAAAAAA==

> <PUBCHEM_IUPAC_OPENEYE_NAME>
2-hydroxyethyl 2-acetoxybenzoate

> <PUBCHEM_IUPAC_CAS_NAME>
2-acetyloxybenzoic acid 2-hydroxyethyl ester

> <PUBCHEM_IUPAC_NAME>
2-hydroxyethyl 2-acetyloxybenzoate

> <PUBCHEM_IUPAC_SYSTEMATIC_NAME>
2-hydroxyethyl 2-acetyloxybenzoate

> <PUBCHEM_IUPAC_TRADITIONAL_NAME>
2-acetoxybenzoic acid 2-hydroxyethyl ester

> <PUBCHEM_IUPAC_INCHI>
InChI=1S/C11H12O5/c1-8(13)16-10-5-3-2-4-9(10)11(14)15-7-6-12/h2-5,12H,6-7H2,1H3

> <PUBCHEM_IUPAC_INCHIKEY>
NKAIIFWPOWVGOC-UHFFFAOYSA-N

> <PUBCHEM_XLOGP3>
0.5

> <PUBCHEM_EXACT_MASS>
224.068473

> <PUBCHEM_MOLECULAR_FORMULA>
C11H12O5

> <PUBCHEM_MOLECULAR_WEIGHT>
224.20998

> <PUBCHEM_OPENEYE_CAN_SMILES>
CC(=O)OC1=CC=CC=C1C(=O)OCCO

> <PUBCHEM_OPENEYE_ISO_SMILES>
CC(=O)OC1=CC=CC=C1C(=O)OCCO

> <PUBCHEM_CACTVS_TPSA>
72.8

> <PUBCHEM_MONOISOTOPIC_WEIGHT>
224.068473

> <PUBCHEM_TOTAL_CHARGE>
0

> <PUBCHEM_HEAVY_ATOM_COUNT>
16

> <PUBCHEM_ATOM_DEF_STEREO_COUNT>
0

> <PUBCHEM_ATOM_UDEF_STEREO_COUNT>
0

> <PUBCHEM_BOND_DEF_STEREO_COUNT>
0

> <PUBCHEM_BOND_UDEF_STEREO_COUNT>
0

> <PUBCHEM_ISOTOPIC_ATOM_COUNT>
0

> <PUBCHEM_COMPONENT_COUNT>
1

> <PUBCHEM_CACTVS_TAUTO_COUNT>
1

> <PUBCHEM_COORDINATE_TYPE>
1
5
255

> <PUBCHEM_BONDANNOTATIONS>
10  13  8
12  13  8
6  7  8
6  8  8
7  10  8
8  12  8

$$$$

