17395779
  -OEChem-06241222522D

 50 52  0     1  0  0  0  0  0999 V2000
    6.1452    4.6307    0.0000 O   0  0  0  0  0  0  0  0  0  0  0  0
    6.3301   -0.1307    0.0000 O   0  0  0  0  0  0  0  0  0  0  0  0
    7.5464    3.6126    0.0000 N   0  0  0  0  0  0  0  0  0  0  0  0
    4.9641    2.9081    0.0000 N   0  0  0  0  0  0  0  0  0  0  0  0
    4.5981   -1.1307    0.0000 N   0  0  3  0  0  0  0  0  0  0  0  0
    9.0246    2.9545    0.0000 C   0  0  0  0  0  0  0  0  0  0  0  0
    9.1291    3.9490    0.0000 C   0  0  0  0  0  0  0  0  0  0  0  0
    8.0464    2.7466    0.0000 C   0  0  0  0  0  0  0  0  0  0  0  0
    8.2155    4.3558    0.0000 C   0  0  0  0  0  0  0  0  0  0  0  0
    6.5519    3.7172    0.0000 C   0  0  0  0  0  0  0  0  0  0  0  0
    5.9641    2.9081    0.0000 C   0  0  0  0  0  0  0  0  0  0  0  0
    6.2731    1.9571    0.0000 C   0  0  0  0  0  0  0  0  0  0  0  0
    5.4641    1.3693    0.0000 C   0  0  0  0  0  0  0  0  0  0  0  0
    4.5981   -0.1307    0.0000 C   0  0  0  0  0  0  0  0  0  0  0  0
    3.7320   -1.6307    0.0000 C   0  0  0  0  0  0  0  0  0  0  0  0
    4.6551    1.9571    0.0000 C   0  0  0  0  0  0  0  0  0  0  0  0
    5.4641    0.3693    0.0000 C   0  0  0  0  0  0  0  0  0  0  0  0
    3.7320   -2.6307    0.0000 C   0  0  0  0  0  0  0  0  0  0  0  0
    5.4641   -1.6307    0.0000 C   0  0  0  0  0  0  0  0  0  0  0  0
    2.8660   -3.1307    0.0000 C   0  0  0  0  0  0  0  0  0  0  0  0
    4.5981   -3.1307    0.0000 C   0  0  0  0  0  0  0  0  0  0  0  0
    2.8660   -4.1307    0.0000 C   0  0  0  0  0  0  0  0  0  0  0  0
    2.0000   -2.6307    0.0000 C   0  0  0  0  0  0  0  0  0  0  0  0
    4.5981   -4.1307    0.0000 C   0  0  0  0  0  0  0  0  0  0  0  0
    3.7320   -4.6307    0.0000 C   0  0  0  0  0  0  0  0  0  0  0  0
    9.0894    2.3379    0.0000 H   0  0  0  0  0  0  0  0  0  0  0  0
    9.6446    2.9545    0.0000 H   0  0  0  0  0  0  0  0  0  0  0  0
    9.7355    3.8201    0.0000 H   0  0  0  0  0  0  0  0  0  0  0  0
    9.3207    4.5387    0.0000 H   0  0  0  0  0  0  0  0  0  0  0  0
    7.4800    2.4944    0.0000 H   0  0  0  0  0  0  0  0  0  0  0  0
    8.2380    2.1570    0.0000 H   0  0  0  0  0  0  0  0  0  0  0  0
    8.5255    4.8927    0.0000 H   0  0  0  0  0  0  0  0  0  0  0  0
    7.7140    4.7202    0.0000 H   0  0  0  0  0  0  0  0  0  0  0  0
    6.8628    1.7655    0.0000 H   0  0  0  0  0  0  0  0  0  0  0  0
    4.5997    3.4097    0.0000 H   0  0  0  0  0  0  0  0  0  0  0  0
    4.3860    0.4519    0.0000 H   0  0  0  0  0  0  0  0  0  0  0  0
    3.9875   -0.2384    0.0000 H   0  0  0  0  0  0  0  0  0  0  0  0
    3.5200   -1.0481    0.0000 H   0  0  0  0  0  0  0  0  0  0  0  0
    3.1215   -1.7384    0.0000 H   0  0  0  0  0  0  0  0  0  0  0  0
    4.0654    1.7655    0.0000 H   0  0  0  0  0  0  0  0  0  0  0  0
    5.1541   -2.1676    0.0000 H   0  0  0  0  0  0  0  0  0  0  0  0
    6.0010   -1.9407    0.0000 H   0  0  0  0  0  0  0  0  0  0  0  0
    5.7741   -1.0938    0.0000 H   0  0  0  0  0  0  0  0  0  0  0  0
    5.1350   -2.8207    0.0000 H   0  0  0  0  0  0  0  0  0  0  0  0
    2.3291   -4.4407    0.0000 H   0  0  0  0  0  0  0  0  0  0  0  0
    2.3100   -2.0938    0.0000 H   0  0  0  0  0  0  0  0  0  0  0  0
    1.4631   -2.3207    0.0000 H   0  0  0  0  0  0  0  0  0  0  0  0
    1.6900   -3.1676    0.0000 H   0  0  0  0  0  0  0  0  0  0  0  0
    5.1350   -4.4407    0.0000 H   0  0  0  0  0  0  0  0  0  0  0  0
    3.7320   -5.2507    0.0000 H   0  0  0  0  0  0  0  0  0  0  0  0
  1 10  2  0  0  0  0
  2 17  2  0  0  0  0
  3  8  1  0  0  0  0
  3  9  1  0  0  0  0
  3 10  1  0  0  0  0
  4 11  1  0  0  0  0
  4 16  1  0  0  0  0
  4 35  1  0  0  0  0
  5 14  1  0  0  0  0
  5 15  1  0  0  0  0
  5 19  1  0  0  0  0
  6  7  1  0  0  0  0
  6  8  1  0  0  0  0
  6 26  1  0  0  0  0
  6 27  1  0  0  0  0
  7  9  1  0  0  0  0
  7 28  1  0  0  0  0
  7 29  1  0  0  0  0
  8 30  1  0  0  0  0
  8 31  1  0  0  0  0
  9 32  1  0  0  0  0
  9 33  1  0  0  0  0
 10 11  1  0  0  0  0
 11 12  2  0  0  0  0
 12 13  1  0  0  0  0
 12 34  1  0  0  0  0
 13 16  2  0  0  0  0
 13 17  1  0  0  0  0
 14 17  1  0  0  0  0
 14 36  1  0  0  0  0
 14 37  1  0  0  0  0
 15 18  1  0  0  0  0
 15 38  1  0  0  0  0
 15 39  1  0  0  0  0
 16 40  1  0  0  0  0
 18 20  1  0  0  0  0
 18 21  2  0  0  0  0
 19 41  1  0  0  0  0
 19 42  1  0  0  0  0
 19 43  1  0  0  0  0
 20 22  2  0  0  0  0
 20 23  1  0  0  0  0
 21 24  1  0  0  0  0
 21 44  1  0  0  0  0
 22 25  1  0  0  0  0
 22 45  1  0  0  0  0
 23 46  1  0  0  0  0
 23 47  1  0  0  0  0
 23 48  1  0  0  0  0
 24 25  2  0  0  0  0
 24 49  1  0  0  0  0
 25 50  1  0  0  0  0
M  END
> <PUBCHEM_COMPOUND_CID>
17395779

> <PUBCHEM_COMPOUND_CANONICALIZED>
1

> <PUBCHEM_CACTVS_COMPLEXITY>
476

> <PUBCHEM_CACTVS_HBOND_ACCEPTOR>
3

> <PUBCHEM_CACTVS_HBOND_DONOR>
1

> <PUBCHEM_CACTVS_ROTATABLE_BOND>
6

> <PUBCHEM_CACTVS_SUBSKEYS>
AAADceB7MAAAAAAAAAAAAAAAAAAAAWLAAAAwAAAAAAAAAAABwAAAHgAQAAAADAzBngQ+gJPJkACoA7V3VACCgCA3AiAI2aG4ZNgIYPrAlbGUIYhglgDIyccci4AugAAAAAAQAAAAAAAAACAAAAAAAAAAAA==

> <PUBCHEM_IUPAC_OPENEYE_NAME>
2-[methyl(o-tolylmethyl)amino]-1-[5-(pyrrolidine-1-carbonyl)-1H-pyrrol-3-yl]ethanone

> <PUBCHEM_IUPAC_CAS_NAME>
2-[methyl-[(2-methylphenyl)methyl]amino]-1-[5-[oxo(1-pyrrolidinyl)methyl]-1H-pyrrol-3-yl]ethanone

> <PUBCHEM_IUPAC_NAME>
2-[methyl-[(2-methylphenyl)methyl]amino]-1-[5-(pyrrolidine-1-carbonyl)-1H-pyrrol-3-yl]ethanone

> <PUBCHEM_IUPAC_SYSTEMATIC_NAME>
2-[methyl-[(2-methylphenyl)methyl]amino]-1-(5-pyrrolidin-1-ylcarbonyl-1H-pyrrol-3-yl)ethanone

> <PUBCHEM_IUPAC_TRADITIONAL_NAME>
2-[methyl-(2-methylbenzyl)amino]-1-[5-(pyrrolidine-1-carbonyl)-1H-pyrrol-3-yl]ethanone

> <PUBCHEM_IUPAC_INCHI>
InChI=1S/C20H25N3O2/c1-15-7-3-4-8-16(15)13-22(2)14-19(24)17-11-18(21-12-17)20(25)23-9-5-6-10-23/h3-4,7-8,11-12,21H,5-6,9-10,13-14H2,1-2H3

> <PUBCHEM_IUPAC_INCHIKEY>
RUVPIWNMWYTGDP-UHFFFAOYSA-N

> <PUBCHEM_XLOGP3_AA>
2.6

> <PUBCHEM_EXACT_MASS>
339.194677

> <PUBCHEM_MOLECULAR_FORMULA>
C20H25N3O2

> <PUBCHEM_MOLECULAR_WEIGHT>
339.4314

> <PUBCHEM_OPENEYE_CAN_SMILES>
CC1=CC=CC=C1CN(C)CC(=O)C2=CNC(=C2)C(=O)N3CCCC3

> <PUBCHEM_OPENEYE_ISO_SMILES>
CC1=CC=CC=C1CN(C)CC(=O)C2=CNC(=C2)C(=O)N3CCCC3

> <PUBCHEM_CACTVS_TPSA>
56.4

> <PUBCHEM_MONOISOTOPIC_WEIGHT>
339.194677

> <PUBCHEM_TOTAL_CHARGE>
0

> <PUBCHEM_HEAVY_ATOM_COUNT>
25

> <PUBCHEM_ATOM_DEF_STEREO_COUNT>
0

> <PUBCHEM_ATOM_UDEF_STEREO_COUNT>
0

> <PUBCHEM_BOND_DEF_STEREO_COUNT>
0

> <PUBCHEM_BOND_UDEF_STEREO_COUNT>
0

> <PUBCHEM_ISOTOPIC_ATOM_COUNT>
0

> <PUBCHEM_COMPONENT_COUNT>
1

> <PUBCHEM_CACTVS_TAUTO_COUNT>
11

> <PUBCHEM_COORDINATE_TYPE>
1
5
255

> <PUBCHEM_BONDANNOTATIONS>
11  12  8
12  13  8
13  16  8
18  20  8
18  21  8
20  22  8
21  24  8
22  25  8
24  25  8
4  11  8
4  16  8

$$$$

