   Color/Form

     * Crystals
     * Solid

   from [1]HSDB

   Melting Point
        Decomposes @ 228 deg C
   from [2]HSDB

   Dissociation Constants
        pKa = 7.3
   from [3]HSDB

   Solubilities
        In water, 30 mg/l @ 25 deg C
   from [4]HSDB

   Other Chemical/Physical Properties

     * Orange plates; solubility in water: 8 g/100 ml; aqueous soln are
       alkaline and unstable /Sodium salt/
     * Crystals; solubility in water: 3 g/100 ml; aqueous soln are more
       stable than those of sodium salts /Potassium salt/

   from [5]HSDB

   Computed Properties
   Molecular Weight                  216.21772 [g/mol]
   Molecular Formula                 C[6]H[8]N[4]O[3]S
   XLogP3                            1.5
   H-Bond Donor                      2
   H-Bond Acceptor                   5
   Rotatable Bond Count              2
   Tautomer Count                    5
   Exact Mass                        216.031711
   MonoIsotopic Mass                 216.031711
   Topological Polar Surface Area    128
   Heavy Atom Count                  14
   Formal Charge                     0
   Complexity                        232
   Isotope Atom Count                0
   Defined Atom Stereocenter Count   0
   Undefined Atom Stereocenter Count 0
   Defined Bond Stereocenter Count   0
   Undefined Bond Stereocenter Count 0
   Covalently-Bonded Unit Count      1
   Feature 3D Acceptor Count         3
   Feature 3D Donor Count            2
   Feature 3D Anion Count            1
   Feature 3D Ring Count             1
   Effective Rotor Count             5
   Conformer Sampling RMSD           0.6
   CID Conformer Count               [6]5

References

   1. http://toxnet.nlm.nih.gov/cgi-bin/sis/search/r?dbs+hsdb:@term+@rn+@rel+139-94-6
   2. http://toxnet.nlm.nih.gov/cgi-bin/sis/search/r?dbs+hsdb:@term+@rn+@rel+139-94-6
   3. http://toxnet.nlm.nih.gov/cgi-bin/sis/search/r?dbs+hsdb:@term+@rn+@rel+139-94-6
   4. http://toxnet.nlm.nih.gov/cgi-bin/sis/search/r?dbs+hsdb:@term+@rn+@rel+139-94-6
   5. http://toxnet.nlm.nih.gov/cgi-bin/sis/search/r?dbs+hsdb:@term+@rn+@rel+139-94-6
   6. http://pubchem.ncbi.nlm.nih.gov/vw3d/vw3d.cgi?cid=8776
