45259192
  -OEChem-07051213152D

 57 63  0     1  0  0  0  0  0999 V2000
    5.4804   -3.5914    0.0000 Cl  0  0  0  0  0  0  0  0  0  0  0  0
    5.3010    3.1060    0.0000 Cl  0  0  0  0  0  0  0  0  0  0  0  0
    5.0389   -0.0103    0.0000 O   0  0  0  0  0  0  0  0  0  0  0  0
    4.4755   -2.6837    0.0000 O   0  0  0  0  0  0  0  0  0  0  0  0
    3.0354   -2.2433    0.0000 O   0  0  0  0  0  0  0  0  0  0  0  0
    2.4141   -0.3422    0.0000 O   0  0  0  0  0  0  0  0  0  0  0  0
    2.7712    1.3526    0.0000 O   0  0  0  0  0  0  0  0  0  0  0  0
   10.0540   -1.7552    0.0000 O   0  0  0  0  0  0  0  0  0  0  0  0
   10.0540    1.7552    0.0000 O   0  0  0  0  0  0  0  0  0  0  0  0
    6.3281   -1.1671    0.0000 N   0  0  0  0  0  0  0  0  0  0  0  0
    6.3281    1.1671    0.0000 N   0  0  0  0  0  0  0  0  0  0  0  0
   10.3270    0.0000    0.0000 N   0  0  0  0  0  0  0  0  0  0  0  0
    5.3496   -0.9609    0.0000 C   0  0  1  0  0  0  0  0  0  0  0  0
    4.6817   -1.7052    0.0000 C   0  0  1  0  0  0  0  0  0  0  0  0
    3.7032   -1.4990    0.0000 C   0  0  2  0  0  0  0  0  0  0  0  0
    7.0651   -0.5000    0.0000 C   0  0  0  0  0  0  0  0  0  0  0  0
    3.3926   -0.5484    0.0000 C   0  0  1  0  0  0  0  0  0  0  0  0
    4.0604    0.1959    0.0000 C   0  0  1  0  0  0  0  0  0  0  0  0
    7.9311   -1.0000    0.0000 C   0  0  0  0  0  0  0  0  0  0  0  0
    6.7332   -2.0749    0.0000 C   0  0  0  0  0  0  0  0  0  0  0  0
    7.0651    0.5000    0.0000 C   0  0  0  0  0  0  0  0  0  0  0  0
    7.7219   -1.9718    0.0000 C   0  0  0  0  0  0  0  0  0  0  0  0
    7.9311    1.0000    0.0000 C   0  0  0  0  0  0  0  0  0  0  0  0
    8.7972   -0.5000    0.0000 C   0  0  0  0  0  0  0  0  0  0  0  0
    8.7972    0.5000    0.0000 C   0  0  0  0  0  0  0  0  0  0  0  0
    3.7498    1.1464    0.0000 C   0  0  0  0  0  0  0  0  0  0  0  0
    7.7219    1.9718    0.0000 C   0  0  0  0  0  0  0  0  0  0  0  0
    6.7332    2.0749    0.0000 C   0  0  0  0  0  0  0  0  0  0  0  0
    6.2967   -3.0138    0.0000 C   0  0  0  0  0  0  0  0  0  0  0  0
    8.3427   -2.8006    0.0000 C   0  0  0  0  0  0  0  0  0  0  0  0
    9.7434   -0.8047    0.0000 C   0  0  0  0  0  0  0  0  0  0  0  0
    9.7434    0.8047    0.0000 C   0  0  0  0  0  0  0  0  0  0  0  0
    6.8981   -3.8567    0.0000 C   0  0  0  0  0  0  0  0  0  0  0  0
    7.9280   -3.7494    0.0000 C   0  0  0  0  0  0  0  0  0  0  0  0
    8.3427    2.8006    0.0000 C   0  0  0  0  0  0  0  0  0  0  0  0
    6.2967    3.0138    0.0000 C   0  0  0  0  0  0  0  0  0  0  0  0
    7.9280    3.7494    0.0000 C   0  0  0  0  0  0  0  0  0  0  0  0
    6.8981    3.8567    0.0000 C   0  0  0  0  0  0  0  0  0  0  0  0
    5.7636   -0.4994    0.0000 H   0  0  0  0  0  0  0  0  0  0  0  0
    5.2346   -1.9857    0.0000 H   0  0  0  0  0  0  0  0  0  0  0  0
    3.0966   -1.3711    0.0000 H   0  0  0  0  0  0  0  0  0  0  0  0
    2.9785   -1.0099    0.0000 H   0  0  0  0  0  0  0  0  0  0  0  0
    4.4745    0.6573    0.0000 H   0  0  0  0  0  0  0  0  0  0  0  0
    4.3636    1.2337    0.0000 H   0  0  0  0  0  0  0  0  0  0  0  0
    3.7703    1.7660    0.0000 H   0  0  0  0  0  0  0  0  0  0  0  0
    5.7214    1.0392    0.0000 H   0  0  0  0  0  0  0  0  0  0  0  0
    8.9586   -2.7292    0.0000 H   0  0  0  0  0  0  0  0  0  0  0  0
    3.8863   -2.8763    0.0000 H   0  0  0  0  0  0  0  0  0  0  0  0
    2.4287   -2.1154    0.0000 H   0  0  0  0  0  0  0  0  0  0  0  0
    2.0000   -0.8037    0.0000 H   0  0  0  0  0  0  0  0  0  0  0  0
   10.9470    0.0000    0.0000 H   0  0  0  0  0  0  0  0  0  0  0  0
    6.6433   -4.4219    0.0000 H   0  0  0  0  0  0  0  0  0  0  0  0
    8.2939   -4.2499    0.0000 H   0  0  0  0  0  0  0  0  0  0  0  0
    8.9586    2.7292    0.0000 H   0  0  0  0  0  0  0  0  0  0  0  0
    2.5786    1.9419    0.0000 H   0  0  0  0  0  0  0  0  0  0  0  0
    8.2939    4.2499    0.0000 H   0  0  0  0  0  0  0  0  0  0  0  0
    6.6433    4.4219    0.0000 H   0  0  0  0  0  0  0  0  0  0  0  0
  1 29  1  0  0  0  0
  2 36  1  0  0  0  0
  3 13  1  0  0  0  0
  3 18  1  0  0  0  0
 14  4  1  6  0  0  0
  4 48  1  0  0  0  0
 15  5  1  1  0  0  0
  5 49  1  0  0  0  0
 17  6  1  6  0  0  0
  6 50  1  0  0  0  0
  7 26  1  0  0  0  0
  7 55  1  0  0  0  0
  8 31  2  0  0  0  0
  9 32  2  0  0  0  0
 13 10  1  1  0  0  0
 10 16  1  0  0  0  0
 10 20  1  0  0  0  0
 11 21  1  0  0  0  0
 11 28  1  0  0  0  0
 11 46  1  0  0  0  0
 12 31  1  0  0  0  0
 12 32  1  0  0  0  0
 12 51  1  0  0  0  0
 13 14  1  0  0  0  0
 13 39  1  0  0  0  0
 14 15  1  0  0  0  0
 14 40  1  0  0  0  0
 15 17  1  0  0  0  0
 15 41  1  0  0  0  0
 16 19  1  0  0  0  0
 16 21  2  0  0  0  0
 17 18  1  0  0  0  0
 17 42  1  0  0  0  0
 18 26  1  1  0  0  0
 18 43  1  0  0  0  0
 19 22  1  0  0  0  0
 19 24  2  0  0  0  0
 20 22  2  0  0  0  0
 20 29  1  0  0  0  0
 21 23  1  0  0  0  0
 22 30  1  0  0  0  0
 23 25  2  0  0  0  0
 23 27  1  0  0  0  0
 24 25  1  0  0  0  0
 24 31  1  0  0  0  0
 25 32  1  0  0  0  0
 26 44  1  0  0  0  0
 26 45  1  0  0  0  0
 27 28  2  0  0  0  0
 27 35  1  0  0  0  0
 28 36  1  0  0  0  0
 29 33  2  0  0  0  0
 30 34  2  0  0  0  0
 30 47  1  0  0  0  0
 33 34  1  0  0  0  0
 33 52  1  0  0  0  0
 34 53  1  0  0  0  0
 35 37  2  0  0  0  0
 35 54  1  0  0  0  0
 36 38  2  0  0  0  0
 37 38  1  0  0  0  0
 37 56  1  0  0  0  0
 38 57  1  0  0  0  0
M  END
> <PUBCHEM_COMPOUND_CID>
45259192

> <PUBCHEM_COMPOUND_CANONICALIZED>
1

> <PUBCHEM_CACTVS_COMPLEXITY>
993

> <PUBCHEM_CACTVS_HBOND_ACCEPTOR>
7

> <PUBCHEM_CACTVS_HBOND_DONOR>
6

> <PUBCHEM_CACTVS_ROTATABLE_BOND>
2

> <PUBCHEM_CACTVS_SUBSKEYS>
AAADceB7OAAGAAAAAAAAAAAAAAAAAWLFgAA0YMEAAAAAAFgB/gAAHgIQCAAADB7hniYwwPPNlgCoAyVyVACCgCQlFSAI2SEoVtgLcPLBl5HeYQhnhCDbyQf9+caeyAACYAASADCQAATAACQAYAAAAAAAAA==

> <PUBCHEM_IUPAC_INCHI>
InChI=1S/C26H19Cl2N3O7/c27-10-5-1-3-8-13-15-16(25(37)30-24(15)36)14-9-4-2-6-11(28)19(9)31(20(14)18(13)29-17(8)10)26-23(35)22(34)21(33)12(7-32)38-26/h1-6,12,21-23,26,29,32-35H,7H2,(H,30,36,37)/t12-,21-,22+,23-,26-/m1/s1

> <PUBCHEM_IUPAC_INCHIKEY>
NNPBOGAWNUIKAO-RJZBGXQMSA-N

> <PUBCHEM_XLOGP3_AA>
2.6

> <PUBCHEM_EXACT_MASS>
555.060005

> <PUBCHEM_MOLECULAR_FORMULA>
C26H19Cl2N3O7

> <PUBCHEM_MOLECULAR_WEIGHT>
556.35096

> <PUBCHEM_OPENEYE_CAN_SMILES>
C1=CC2=C(C(=C1)Cl)NC3=C4C(=C5C(=C23)C(=O)NC5=O)C6=C(N4C7C(C(C(C(O7)CO)O)O)O)C(=CC=C6)Cl

> <PUBCHEM_OPENEYE_ISO_SMILES>
C1=CC2=C(C(=C1)Cl)NC3=C4C(=C5C(=C23)C(=O)NC5=O)C6=C(N4[C@H]7[C@@H]([C@H]([C@@H]([C@H](O7)CO)O)O)O)C(=CC=C6)Cl

> <PUBCHEM_CACTVS_TPSA>
157

> <PUBCHEM_MONOISOTOPIC_WEIGHT>
555.060005

> <PUBCHEM_TOTAL_CHARGE>
0

> <PUBCHEM_HEAVY_ATOM_COUNT>
38

> <PUBCHEM_ATOM_DEF_STEREO_COUNT>
5

> <PUBCHEM_ATOM_UDEF_STEREO_COUNT>
0

> <PUBCHEM_BOND_DEF_STEREO_COUNT>
0

> <PUBCHEM_BOND_UDEF_STEREO_COUNT>
0

> <PUBCHEM_ISOTOPIC_ATOM_COUNT>
0

> <PUBCHEM_COMPONENT_COUNT>
1

> <PUBCHEM_CACTVS_TAUTO_COUNT>
21

> <PUBCHEM_COORDINATE_TYPE>
1
5
255

> <PUBCHEM_BONDANNOTATIONS>
13  10  5
10  16  8
10  20  8
11  21  8
11  28  8
16  19  8
16  21  8
18  26  5
19  22  8
19  24  8
20  22  8
20  29  8
21  23  8
22  30  8
23  25  8
23  27  8
24  25  8
27  28  8
27  35  8
28  36  8
29  33  8
30  34  8
33  34  8
35  37  8
36  38  8
37  38  8
14  4  6
15  5  5
17  6  6

$$$$

