441743
  -OEChem-07051212552D

 86 92  0     1  0  0  0  0  0999 V2000
    3.8203    1.9337    0.0000 O   0  0  0  0  0  0  0  0  0  0  0  0
    3.7472    0.2974    0.0000 O   0  0  0  0  0  0  0  0  0  0  0  0
    7.0874   -0.8448    0.0000 O   0  0  0  0  0  0  0  0  0  0  0  0
    7.0874    2.8904    0.0000 O   0  0  0  0  0  0  0  0  0  0  0  0
    3.3710    2.6388    0.0000 O   0  0  0  0  0  0  0  0  0  0  0  0
    2.9697    3.3483    0.0000 O   0  0  0  0  0  0  0  0  0  0  0  0
    8.8194   -0.8448    0.0000 O   0  0  0  0  0  0  0  0  0  0  0  0
   10.5515   -3.8448    0.0000 O   0  0  0  0  0  0  0  0  0  0  0  0
    8.2827    1.0613    0.0000 N   0  0  3  0  0  0  0  0  0  0  0  0
    9.6855   -2.3448    0.0000 N   0  0  0  0  0  0  0  0  0  0  0  0
    6.3361    1.4566    0.0000 C   0  0  1  0  0  0  0  0  0  0  0  0
    5.6578    1.9975    0.0000 C   0  0  1  0  0  0  0  0  0  0  0  0
    7.3380    1.3505    0.0000 C   0  0  3  0  0  0  0  0  0  0  0  0
    6.3361    0.5890    0.0000 C   0  0  2  0  0  0  0  0  0  0  0  0
    4.8119    0.2411    0.0000 C   0  0  1  0  0  0  0  0  0  0  0  0
    4.8119    1.8044    0.0000 C   0  0  2  0  0  0  0  0  0  0  0  0
    4.4355    1.0228    0.0000 C   0  0  1  0  0  0  0  0  0  0  0  0
    5.6578    0.0481    0.0000 C   0  0  0  0  0  0  0  0  0  0  0  0
    7.0874    0.1552    0.0000 C   0  0  1  0  0  0  0  0  0  0  0  0
    7.0874    1.8904    0.0000 C   0  0  2  0  0  0  0  0  0  0  0  0
    5.7355    2.8616    0.0000 C   0  0  0  0  0  0  0  0  0  0  0  0
    4.9378    3.2026    0.0000 C   0  0  1  0  0  0  0  0  0  0  0  0
    4.3670    2.5492    0.0000 C   0  0  2  0  0  0  0  0  0  0  0  0
    3.7906    1.2927    0.0000 C   0  0  0  0  0  0  0  0  0  0  0  0
    8.2827    0.3094    0.0000 C   0  0  0  0  0  0  0  0  0  0  0  0
    3.7906    2.7772    0.0000 C   0  0  2  0  0  0  0  0  0  0  0  0
    7.8387    0.5890    0.0000 C   0  0  0  0  0  0  0  0  0  0  0  0
    7.8387    1.4566    0.0000 C   0  0  0  0  0  0  0  0  0  0  0  0
    9.0867    1.6560    0.0000 C   0  0  0  0  0  0  0  0  0  0  0  0
   10.0037    1.2571    0.0000 C   0  0  0  0  0  0  0  0  0  0  0  0
    7.9534    3.3904    0.0000 C   0  0  0  0  0  0  0  0  0  0  0  0
    2.4636    2.2185    0.0000 C   0  0  0  0  0  0  0  0  0  0  0  0
    7.9534   -1.3448    0.0000 C   0  0  0  0  0  0  0  0  0  0  0  0
    3.0539    4.3448    0.0000 C   0  0  0  0  0  0  0  0  0  0  0  0
    7.9534   -2.3448    0.0000 C   0  0  0  0  0  0  0  0  0  0  0  0
    8.8194   -2.8448    0.0000 C   0  0  0  0  0  0  0  0  0  0  0  0
    7.0874   -2.8448    0.0000 C   0  0  0  0  0  0  0  0  0  0  0  0
    8.8194   -3.8448    0.0000 C   0  0  0  0  0  0  0  0  0  0  0  0
    7.0874   -3.8448    0.0000 C   0  0  0  0  0  0  0  0  0  0  0  0
    7.9534   -4.3448    0.0000 C   0  0  0  0  0  0  0  0  0  0  0  0
   10.5515   -2.8448    0.0000 C   0  0  0  0  0  0  0  0  0  0  0  0
   11.4175   -2.3448    0.0000 C   0  0  0  0  0  0  0  0  0  0  0  0
    6.4394    2.3316    0.0000 H   0  0  0  0  0  0  0  0  0  0  0  0
    7.4620    1.9580    0.0000 H   0  0  0  0  0  0  0  0  0  0  0  0
    6.3996   -0.2586    0.0000 H   0  0  0  0  0  0  0  0  0  0  0  0
    4.2820   -0.4234    0.0000 H   0  0  0  0  0  0  0  0  0  0  0  0
    6.1425   -0.3385    0.0000 H   0  0  0  0  0  0  0  0  0  0  0  0
    5.3888   -0.5105    0.0000 H   0  0  0  0  0  0  0  0  0  0  0  0
    6.5505    2.2004    0.0000 H   0  0  0  0  0  0  0  0  0  0  0  0
    5.9183    3.4540    0.0000 H   0  0  0  0  0  0  0  0  0  0  0  0
    6.3438    2.7418    0.0000 H   0  0  0  0  0  0  0  0  0  0  0  0
    4.9585    4.0523    0.0000 H   0  0  0  0  0  0  0  0  0  0  0  0
    4.1361    3.1246    0.0000 H   0  0  0  0  0  0  0  0  0  0  0  0
    3.6287    0.6942    0.0000 H   0  0  0  0  0  0  0  0  0  0  0  0
    3.1760    1.3744    0.0000 H   0  0  0  0  0  0  0  0  0  0  0  0
    8.9022    0.3360    0.0000 H   0  0  0  0  0  0  0  0  0  0  0  0
    8.3357   -0.3083    0.0000 H   0  0  0  0  0  0  0  0  0  0  0  0
    3.8688    3.3923    0.0000 H   0  0  0  0  0  0  0  0  0  0  0  0
    8.4493    0.6967    0.0000 H   0  0  0  0  0  0  0  0  0  0  0  0
    8.0508    0.0064    0.0000 H   0  0  0  0  0  0  0  0  0  0  0  0
    8.0508    2.0392    0.0000 H   0  0  0  0  0  0  0  0  0  0  0  0
    8.4493    1.3489    0.0000 H   0  0  0  0  0  0  0  0  0  0  0  0
    3.2478    1.6958    0.0000 H   0  0  0  0  0  0  0  0  0  0  0  0
    3.1443    0.4421    0.0000 H   0  0  0  0  0  0  0  0  0  0  0  0
    8.6370    2.0829    0.0000 H   0  0  0  0  0  0  0  0  0  0  0  0
    9.4290    2.1730    0.0000 H   0  0  0  0  0  0  0  0  0  0  0  0
   10.2510    1.8256    0.0000 H   0  0  0  0  0  0  0  0  0  0  0  0
   10.5722    1.0098    0.0000 H   0  0  0  0  0  0  0  0  0  0  0  0
    9.7564    0.6886    0.0000 H   0  0  0  0  0  0  0  0  0  0  0  0
    7.6434    3.9273    0.0000 H   0  0  0  0  0  0  0  0  0  0  0  0
    8.4904    3.7004    0.0000 H   0  0  0  0  0  0  0  0  0  0  0  0
    8.2634    2.8534    0.0000 H   0  0  0  0  0  0  0  0  0  0  0  0
    2.7242    1.6559    0.0000 H   0  0  0  0  0  0  0  0  0  0  0  0
    1.9010    1.9579    0.0000 H   0  0  0  0  0  0  0  0  0  0  0  0
    2.2030    2.7811    0.0000 H   0  0  0  0  0  0  0  0  0  0  0  0
    2.4361    4.3970    0.0000 H   0  0  0  0  0  0  0  0  0  0  0  0
    3.1061    4.9626    0.0000 H   0  0  0  0  0  0  0  0  0  0  0  0
    3.6717    4.2926    0.0000 H   0  0  0  0  0  0  0  0  0  0  0  0
    6.5505   -2.5348    0.0000 H   0  0  0  0  0  0  0  0  0  0  0  0
    9.3564   -4.1548    0.0000 H   0  0  0  0  0  0  0  0  0  0  0  0
    6.5505   -4.1548    0.0000 H   0  0  0  0  0  0  0  0  0  0  0  0
    9.6855   -1.7248    0.0000 H   0  0  0  0  0  0  0  0  0  0  0  0
    7.9534   -4.9648    0.0000 H   0  0  0  0  0  0  0  0  0  0  0  0
   11.1075   -1.8079    0.0000 H   0  0  0  0  0  0  0  0  0  0  0  0
   11.9545   -2.0348    0.0000 H   0  0  0  0  0  0  0  0  0  0  0  0
   11.7275   -2.8817    0.0000 H   0  0  0  0  0  0  0  0  0  0  0  0
 16  1  1  6  0  0  0
  1 63  1  0  0  0  0
 17  2  1  6  0  0  0
  2 64  1  0  0  0  0
 19  3  1  6  0  0  0
  3 33  1  0  0  0  0
 20  4  1  1  0  0  0
  4 31  1  0  0  0  0
 23  5  1  1  0  0  0
  5 32  1  0  0  0  0
 26  6  1  6  0  0  0
  6 34  1  0  0  0  0
  7 33  2  0  0  0  0
  8 41  2  0  0  0  0
  9 13  1  0  0  0  0
  9 25  1  0  0  0  0
  9 29  1  0  0  0  0
 10 36  1  0  0  0  0
 10 41  1  0  0  0  0
 10 82  1  0  0  0  0
 11 12  1  0  0  0  0
 11 13  1  0  0  0  0
 11 14  1  0  0  0  0
 11 20  1  6  0  0  0
 12 16  1  0  0  0  0
 12 21  1  0  0  0  0
 12 43  1  6  0  0  0
 13 15  1  0  0  0  0
 13 44  1  0  0  0  0
 14 18  1  0  0  0  0
 14 19  1  0  0  0  0
 14 45  1  6  0  0  0
 15 17  1  0  0  0  0
 15 18  1  0  0  0  0
 15 46  1  1  0  0  0
 16 17  1  0  0  0  0
 16 23  1  0  0  0  0
 17 24  1  0  0  0  0
 18 47  1  0  0  0  0
 18 48  1  0  0  0  0
 19 25  1  0  0  0  0
 19 27  1  0  0  0  0
 20 28  1  0  0  0  0
 20 49  1  0  0  0  0
 21 22  1  0  0  0  0
 21 50  1  0  0  0  0
 21 51  1  0  0  0  0
 22 23  1  0  0  0  0
 22 26  1  0  0  0  0
 22 52  1  6  0  0  0
 23 53  1  0  0  0  0
 24 26  1  0  0  0  0
 24 54  1  0  0  0  0
 24 55  1  0  0  0  0
 25 56  1  0  0  0  0
 25 57  1  0  0  0  0
 26 58  1  0  0  0  0
 27 28  1  0  0  0  0
 27 59  1  0  0  0  0
 27 60  1  0  0  0  0
 28 61  1  0  0  0  0
 28 62  1  0  0  0  0
 29 30  1  0  0  0  0
 29 65  1  0  0  0  0
 29 66  1  0  0  0  0
 30 67  1  0  0  0  0
 30 68  1  0  0  0  0
 30 69  1  0  0  0  0
 31 70  1  0  0  0  0
 31 71  1  0  0  0  0
 31 72  1  0  0  0  0
 32 73  1  0  0  0  0
 32 74  1  0  0  0  0
 32 75  1  0  0  0  0
 33 35  1  0  0  0  0
 34 76  1  0  0  0  0
 34 77  1  0  0  0  0
 34 78  1  0  0  0  0
 35 36  1  0  0  0  0
 35 37  2  0  0  0  0
 36 38  2  0  0  0  0
 37 39  1  0  0  0  0
 37 79  1  0  0  0  0
 38 40  1  0  0  0  0
 38 80  1  0  0  0  0
 39 40  2  0  0  0  0
 39 81  1  0  0  0  0
 40 83  1  0  0  0  0
 41 42  1  0  0  0  0
 42 84  1  0  0  0  0
 42 85  1  0  0  0  0
 42 86  1  0  0  0  0
M  END
> <PUBCHEM_COMPOUND_CID>
441743

> <PUBCHEM_COMPOUND_CANONICALIZED>
1

> <PUBCHEM_CACTVS_COMPLEXITY>
1120

> <PUBCHEM_CACTVS_HBOND_ACCEPTOR>
9

> <PUBCHEM_CACTVS_HBOND_DONOR>
3

> <PUBCHEM_CACTVS_ROTATABLE_BOND>
8

> <PUBCHEM_CACTVS_SUBSKEYS>
AAADcfB/PAAAAAAAAAAAAAAAAAAAAYMAAAA8YMGCB4gWAGABAAAAHgAQCAAAD3zhmAYyyIPABgCIAiXSWACCAAAlAgAIiAEIbMgLJjrAtZmHcYhn1AHb6cf4+P+PgAAAAAACAADSgAaUADSAAaAADSAAAA==

> <PUBCHEM_IUPAC_INCHI>
InChI=1S/C32H44N2O8/c1-6-34-16-29(42-28(36)18-9-7-8-10-21(18)33-17(2)35)12-11-25(40-4)31-23(29)14-20(26(31)34)30(37)15-22(39-3)19-13-24(31)32(30,38)27(19)41-5/h7-10,19-20,22-27,37-38H,6,11-16H2,1-5H3,(H,33,35)/t19-,20+,22+,23-,24+,25+,26?,27+,29-,30+,31+,32+/m1/s1

> <PUBCHEM_IUPAC_INCHIKEY>
NWBWCXBPKTTZNQ-BAERZWJTSA-N

> <PUBCHEM_XLOGP3_AA>
1.6

> <PUBCHEM_EXACT_MASS>
584.309766

> <PUBCHEM_MOLECULAR_FORMULA>
C32H44N2O8

> <PUBCHEM_MOLECULAR_WEIGHT>
584.70036

> <PUBCHEM_OPENEYE_CAN_SMILES>
CCN1CC2(CCC(C34C2CC(C31)C5(CC(C6CC4C5(C6OC)O)OC)O)OC)OC(=O)C7=CC=CC=C7NC(=O)C

> <PUBCHEM_OPENEYE_ISO_SMILES>
CCN1C[C@@]2(CC[C@@H]([C@@]34[C@@H]2C[C@@H](C31)[C@]5(C[C@@H]([C@H]6C[C@@H]4[C@@]5([C@H]6OC)O)OC)O)OC)OC(=O)C7=CC=CC=C7NC(=O)C

> <PUBCHEM_CACTVS_TPSA>
127

> <PUBCHEM_MONOISOTOPIC_WEIGHT>
584.309766

> <PUBCHEM_TOTAL_CHARGE>
0

> <PUBCHEM_HEAVY_ATOM_COUNT>
42

> <PUBCHEM_ATOM_DEF_STEREO_COUNT>
11

> <PUBCHEM_ATOM_UDEF_STEREO_COUNT>
1

> <PUBCHEM_BOND_DEF_STEREO_COUNT>
0

> <PUBCHEM_BOND_UDEF_STEREO_COUNT>
0

> <PUBCHEM_ISOTOPIC_ATOM_COUNT>
0

> <PUBCHEM_COMPONENT_COUNT>
1

> <PUBCHEM_CACTVS_TAUTO_COUNT>
9

> <PUBCHEM_COORDINATE_TYPE>
1
5
255

> <PUBCHEM_BONDANNOTATIONS>
16  1  6
11  20  6
12  43  6
14  45  6
15  46  5
17  2  6
22  52  6
19  3  6
35  36  8
35  37  8
36  38  8
37  39  8
38  40  8
39  40  8
20  4  5
23  5  5
26  6  6
13  9  3

$$$$

