9571075
  -OEChem-07051213032D

 63 63  0     1  0  0  0  0  0999 V2000
    8.0556    0.0000    0.0000 Cl  0  0  0  0  0  0  0  0  0  0  0  0
    0.0000    6.0369    0.0000 Cl  0  5  0  0  0  0  0  0  0  0  0  0
    6.7890    5.9524    0.0000 S   0  0  0  0  0  0  0  0  0  0  0  0
   13.6231    5.4568    0.0000 S   0  0  0  0  0  0  0  0  0  0  0  0
    9.3689    8.1651    0.0000 O   0  0  0  0  0  0  0  0  0  0  0  0
    7.6550    9.4524    0.0000 O   0  0  0  0  0  0  0  0  0  0  0  0
    5.9230    9.4524    0.0000 O   0  0  0  0  0  0  0  0  0  0  0  0
   10.5962    6.9619    0.0000 O   0  0  0  0  0  0  0  0  0  0  0  0
    9.8138    4.0657    0.0000 O   0  0  0  0  0  0  0  0  0  0  0  0
    8.5556   12.0738    0.0000 O   0  0  0  0  0  0  0  0  0  0  0  0
    4.1909    7.4524    0.0000 N   0  3  0  0  0  0  0  0  0  0  0  0
    7.6550    7.4524    0.0000 N   0  0  0  0  0  0  0  0  0  0  0  0
    9.3689    5.7397    0.0000 N   0  0  0  0  0  0  0  0  0  0  0  0
   10.7802    4.3225    0.0000 N   0  0  0  0  0  0  0  0  0  0  0  0
   12.3678    6.4776    0.0000 N   0  0  0  0  0  0  0  0  0  0  0  0
   13.9972    7.1991    0.0000 N   0  0  0  0  0  0  0  0  0  0  0  0
    3.2128    7.2444    0.0000 C   0  0  0  0  0  0  0  0  0  0  0  0
    4.6909    6.5863    0.0000 C   0  0  0  0  0  0  0  0  0  0  0  0
    5.0569    7.9524    0.0000 C   0  0  0  0  0  0  0  0  0  0  0  0
    4.0218    5.8432    0.0000 C   0  0  0  0  0  0  0  0  0  0  0  0
    3.1082    6.2499    0.0000 C   0  0  0  0  0  0  0  0  0  0  0  0
    3.9830    8.4305    0.0000 C   0  0  0  0  0  0  0  0  0  0  0  0
    5.9230    7.4524    0.0000 C   0  0  0  0  0  0  0  0  0  0  0  0
    7.6550    6.4524    0.0000 C   0  0  1  0  0  0  0  0  0  0  0  0
    8.6633    6.4482    0.0000 C   0  0  1  0  0  0  0  0  0  0  0  0
    6.7890    7.9524    0.0000 C   0  0  0  0  0  0  0  0  0  0  0  0
    5.9230    6.4524    0.0000 C   0  0  0  0  0  0  0  0  0  0  0  0
    8.6633    7.4565    0.0000 C   0  0  0  0  0  0  0  0  0  0  0  0
    6.7890    8.9524    0.0000 C   0  0  0  0  0  0  0  0  0  0  0  0
   10.3354    5.9965    0.0000 C   0  0  0  0  0  0  0  0  0  0  0  0
   11.0410    5.2879    0.0000 C   0  0  0  0  0  0  0  0  0  0  0  0
   12.0075    5.5448    0.0000 C   0  0  0  0  0  0  0  0  0  0  0  0
   12.7834    4.9138    0.0000 C   0  0  0  0  0  0  0  0  0  0  0  0
   13.3663    6.4232    0.0000 C   0  0  0  0  0  0  0  0  0  0  0  0
    9.5530    3.1003    0.0000 C   0  0  0  0  0  0  0  0  0  0  0  0
    3.1479    7.8611    0.0000 H   0  0  0  0  0  0  0  0  0  0  0  0
    2.5928    7.2444    0.0000 H   0  0  0  0  0  0  0  0  0  0  0  0
    5.1058    6.1256    0.0000 H   0  0  0  0  0  0  0  0  0  0  0  0
    5.1925    6.9508    0.0000 H   0  0  0  0  0  0  0  0  0  0  0  0
    5.4555    8.4273    0.0000 H   0  0  0  0  0  0  0  0  0  0  0  0
    4.6584    8.4273    0.0000 H   0  0  0  0  0  0  0  0  0  0  0  0
    2.5018    6.3788    0.0000 H   0  0  0  0  0  0  0  0  0  0  0  0
    2.9166    5.6603    0.0000 H   0  0  0  0  0  0  0  0  0  0  0  0
    3.7118    5.3063    0.0000 H   0  0  0  0  0  0  0  0  0  0  0  0
    4.5234    5.4788    0.0000 H   0  0  0  0  0  0  0  0  0  0  0  0
    4.5894    8.5594    0.0000 H   0  0  0  0  0  0  0  0  0  0  0  0
    3.8541    9.0370    0.0000 H   0  0  0  0  0  0  0  0  0  0  0  0
    3.3765    8.3016    0.0000 H   0  0  0  0  0  0  0  0  0  0  0  0
    7.8733    5.6309    0.0000 H   0  0  0  0  0  0  0  0  0  0  0  0
    8.4243    5.8762    0.0000 H   0  0  0  0  0  0  0  0  0  0  0  0
    5.3124    6.5600    0.0000 H   0  0  0  0  0  0  0  0  0  0  0  0
    5.7109    5.8698    0.0000 H   0  0  0  0  0  0  0  0  0  0  0  0
    9.2072    5.1411    0.0000 H   0  0  0  0  0  0  0  0  0  0  0  0
    7.6550   10.0724    0.0000 H   0  0  0  0  0  0  0  0  0  0  0  0
   12.7496    4.2948    0.0000 H   0  0  0  0  0  0  0  0  0  0  0  0
    8.9544    3.2620    0.0000 H   0  0  0  0  0  0  0  0  0  0  0  0
    9.3913    2.5018    0.0000 H   0  0  0  0  0  0  0  0  0  0  0  0
   10.1515    2.9386    0.0000 H   0  0  0  0  0  0  0  0  0  0  0  0
   14.6094    7.1008    0.0000 H   0  0  0  0  0  0  0  0  0  0  0  0
   13.7762    7.7784    0.0000 H   0  0  0  0  0  0  0  0  0  0  0  0
    9.0925   12.3838    0.0000 H   0  0  0  0  0  0  0  0  0  0  0  0
    8.0186   12.3838    0.0000 H   0  0  0  0  0  0  0  0  0  0  0  0
    9.0556    0.0000    0.0000 H   0  0  0  0  0  0  0  0  0  0  0  0
  1 63  1  0  0  0  0
  3 24  1  0  0  0  0
  3 27  1  0  0  0  0
  4 33  1  0  0  0  0
  4 34  1  0  0  0  0
  5 28  2  0  0  0  0
  6 29  1  0  0  0  0
  6 54  1  0  0  0  0
  7 29  2  0  0  0  0
  8 30  2  0  0  0  0
  9 14  1  0  0  0  0
  9 35  1  0  0  0  0
 10 61  1  0  0  0  0
 10 62  1  0  0  0  0
 11 17  1  0  0  0  0
 11 18  1  0  0  0  0
 11 19  1  0  0  0  0
 11 22  1  0  0  0  0
 12 24  1  0  0  0  0
 12 26  1  0  0  0  0
 12 28  1  0  0  0  0
 25 13  1  1  0  0  0
 13 30  1  0  0  0  0
 13 53  1  0  0  0  0
 14 31  2  0  0  0  0
 15 32  1  0  0  0  0
 15 34  2  0  0  0  0
 16 34  1  0  0  0  0
 16 59  1  0  0  0  0
 16 60  1  0  0  0  0
 17 21  1  0  0  0  0
 17 36  1  0  0  0  0
 17 37  1  0  0  0  0
 18 20  1  0  0  0  0
 18 38  1  0  0  0  0
 18 39  1  0  0  0  0
 19 23  1  0  0  0  0
 19 40  1  0  0  0  0
 19 41  1  0  0  0  0
 20 21  1  0  0  0  0
 20 44  1  0  0  0  0
 20 45  1  0  0  0  0
 21 42  1  0  0  0  0
 21 43  1  0  0  0  0
 22 46  1  0  0  0  0
 22 47  1  0  0  0  0
 22 48  1  0  0  0  0
 23 26  2  0  0  0  0
 23 27  1  0  0  0  0
 24 25  1  0  0  0  0
 24 49  1  6  0  0  0
 25 28  1  0  0  0  0
 25 50  1  0  0  0  0
 26 29  1  0  0  0  0
 27 51  1  0  0  0  0
 27 52  1  0  0  0  0
 30 31  1  0  0  0  0
 31 32  1  0  0  0  0
 32 33  2  0  0  0  0
 33 55  1  0  0  0  0
 35 56  1  0  0  0  0
 35 57  1  0  0  0  0
 35 58  1  0  0  0  0
M  CHG  2   2  -1  11   1
M  END
> <PUBCHEM_COMPOUND_CID>
9571075

> <PUBCHEM_COMPOUND_CANONICALIZED>
1

> <PUBCHEM_CACTVS_COMPLEXITY>
874

> <PUBCHEM_CACTVS_HBOND_ACCEPTOR>
12

> <PUBCHEM_CACTVS_HBOND_DONOR>
5

> <PUBCHEM_CACTVS_ROTATABLE_BOND>
7

> <PUBCHEM_CACTVS_SUBSKEYS>
AAADceB7uABmAAAAAAAAAAAAAABYAWLAAAAgAAAAAAAQAAABgAAAHgQUCAAADCjF1gajmRPYEgisAwXyfACA8KlhCjkACJW4IFiCZJggxCEUEAAAFgKwESAAAAAAAAAAAAAAAAAAAAAAAAAAAAAAAAAAAA==

> <PUBCHEM_IUPAC_OPENEYE_NAME>
(6R,7R)-7-[[(2Z)-2-(2-aminothiazol-4-yl)-2-methoxyimino-acetyl]amino]-3-[(1-methylpyrrolidin-1-ium-1-yl)methyl]-8-oxo-5-thia-1-azabicyclo[4.2.0]oct-2-ene-2-carboxylic acid chloride hydrate hydrochloride

> <PUBCHEM_IUPAC_CAS_NAME>
(6R,7R)-7-[[(2Z)-2-(2-amino-4-thiazolyl)-2-methoxyimino-1-oxoethyl]amino]-3-[(1-methyl-1-pyrrolidin-1-iumyl)methyl]-8-oxo-5-thia-1-azabicyclo[4.2.0]oct-2-ene-2-carboxylic acid chloride hydrate hydrochloride

> <PUBCHEM_IUPAC_NAME>
(6R,7R)-7-[[(2Z)-2-(2-amino-1,3-thiazol-4-yl)-2-methoxyiminoacetyl]amino]-3-[(1-methylpyrrolidin-1-ium-1-yl)methyl]-8-oxo-5-thia-1-azabicyclo[4.2.0]oct-2-ene-2-carboxylic acid chloride hydrate hydrochloride

> <PUBCHEM_IUPAC_SYSTEMATIC_NAME>
(6R,7R)-7-[[(2Z)-2-(2-azanyl-1,3-thiazol-4-yl)-2-methoxyimino-ethanoyl]amino]-3-[(1-methylpyrrolidin-1-ium-1-yl)methyl]-8-oxidanylidene-5-thia-1-azabicyclo[4.2.0]oct-2-ene-2-carboxylic acid chloride hydrate hydrochloride

> <PUBCHEM_IUPAC_TRADITIONAL_NAME>
(6R,7R)-7-[[(2Z)-2-(2-aminothiazol-4-yl)-2-methyloximino-acetyl]amino]-8-keto-3-[(1-methylpyrrolidin-1-ium-1-yl)methyl]-5-thia-1-azabicyclo[4.2.0]oct-2-ene-2-carboxylic acid chloride hydrate hydrochloride

> <PUBCHEM_IUPAC_INCHI>
InChI=1S/C19H24N6O5S2.2ClH.H2O/c1-25(5-3-4-6-25)7-10-8-31-17-13(16(27)24(17)14(10)18(28)29)22-15(26)12(23-30-2)11-9-32-19(20)21-11;;;/h9,13,17H,3-8H2,1-2H3,(H3-,20,21,22,26,28,29);2*1H;1H2/b23-12-;;;/t13-,17-;;;/m1.../s1

> <PUBCHEM_IUPAC_INCHIKEY>
LRAJHPGSGBRUJN-OMIVUECESA-N

> <PUBCHEM_EXACT_MASS>
570.08888

> <PUBCHEM_MOLECULAR_FORMULA>
C19H28Cl2N6O6S2

> <PUBCHEM_MOLECULAR_WEIGHT>
571.49822

> <PUBCHEM_OPENEYE_CAN_SMILES>
C[N+]1(CCCC1)CC2=C(N3C(C(C3=O)NC(=O)C(=NOC)C4=CSC(=N4)N)SC2)C(=O)O.O.Cl.[Cl-]

> <PUBCHEM_OPENEYE_ISO_SMILES>
C[N+]1(CCCC1)CC2=C(N3[C@@H]([C@@H](C3=O)NC(=O)/C(=N\OC)/C4=CSC(=N4)N)SC2)C(=O)O.O.Cl.[Cl-]

> <PUBCHEM_CACTVS_TPSA>
202

> <PUBCHEM_MONOISOTOPIC_WEIGHT>
570.08888

> <PUBCHEM_TOTAL_CHARGE>
0

> <PUBCHEM_HEAVY_ATOM_COUNT>
35

> <PUBCHEM_ATOM_DEF_STEREO_COUNT>
2

> <PUBCHEM_ATOM_UDEF_STEREO_COUNT>
0

> <PUBCHEM_BOND_DEF_STEREO_COUNT>
1

> <PUBCHEM_BOND_UDEF_STEREO_COUNT>
0

> <PUBCHEM_ISOTOPIC_ATOM_COUNT>
0

> <PUBCHEM_COMPONENT_COUNT>
4

> <PUBCHEM_CACTVS_TAUTO_COUNT>
14

> <PUBCHEM_COORDINATE_TYPE>
1
5
255

> <PUBCHEM_BONDANNOTATIONS>
25  13  5
15  32  8
15  34  8
24  49  6
32  33  8
4  33  8
4  34  8

$$$$

