6673
  -OEChem-06261201262D

 24 28  0     1  0  0  0  0  0999 V2000
    8.1053   -0.3139    0.0000 O   0  0  0  0  0  0  0  0  0  0  0  0
    2.1028   -2.1348    0.0000 O   0  0  0  0  0  0  0  0  0  0  0  0
    3.5749   -0.8137    0.0000 C   0  0  3  0  0  0  0  0  0  0  0  0
    5.3069    0.1863    0.0000 C   0  0  3  0  0  0  0  0  0  0  0  0
    3.0749    0.0523    0.0000 C   0  0  3  0  0  0  0  0  0  0  0  0
    5.5657    1.1522    0.0000 C   0  0  3  0  0  0  0  0  0  0  0  0
    7.1389   -0.5725    0.0000 C   0  0  3  0  0  0  0  0  0  0  0  0
    7.3977    0.3934    0.0000 C   0  0  3  0  0  0  0  0  0  0  0  0
    2.9078   -1.5507    0.0000 C   0  0  3  0  0  0  0  0  0  0  0  0
    4.8291    2.1348    0.0000 C   0  0  0  0  0  0  0  0  0  0  0  0
    2.0000   -1.1456    0.0000 C   0  0  3  0  0  0  0  0  0  0  0  0
    2.1030   -0.1569    0.0000 C   0  0  0  0  0  0  0  0  0  0  0  0
    3.9644   -1.2961    0.0000 H   0  0  0  0  0  0  0  0  0  0  0  0
    5.7774    0.5901    0.0000 H   0  0  0  0  0  0  0  0  0  0  0  0
    2.8834    0.6420    0.0000 H   0  0  0  0  0  0  0  0  0  0  0  0
    5.9459    1.6420    0.0000 H   0  0  0  0  0  0  0  0  0  0  0  0
    7.0982   -1.1912    0.0000 H   0  0  0  0  0  0  0  0  0  0  0  0
    7.7421    0.9089    0.0000 H   0  0  0  0  0  0  0  0  0  0  0  0
    3.3219   -2.0122    0.0000 H   0  0  0  0  0  0  0  0  0  0  0  0
    5.1469    2.6672    0.0000 H   0  0  0  0  0  0  0  0  0  0  0  0
    4.2160    2.2268    0.0000 H   0  0  0  0  0  0  0  0  0  0  0  0
    1.3800   -1.1456    0.0000 H   0  0  0  0  0  0  0  0  0  0  0  0
    2.0370    0.4596    0.0000 H   0  0  0  0  0  0  0  0  0  0  0  0
    1.4830   -0.1578    0.0000 H   0  0  0  0  0  0  0  0  0  0  0  0
  1  7  1  0  0  0  0
  1  8  1  0  0  0  0
  2  9  1  0  0  0  0
  2 11  1  0  0  0  0
  3  4  1  0  0  0  0
  3  5  1  0  0  0  0
  3  9  1  0  0  0  0
  3 13  1  0  0  0  0
  4  7  1  0  0  0  0
  4 10  1  0  0  0  0
  4 14  1  0  0  0  0
  5  6  1  0  0  0  0
  5 12  1  0  0  0  0
  5 15  1  0  0  0  0
  6  8  1  0  0  0  0
  6 10  1  0  0  0  0
  6 16  1  0  0  0  0
  7  8  1  0  0  0  0
  7 17  1  0  0  0  0
  8 18  1  0  0  0  0
  9 11  1  0  0  0  0
  9 19  1  0  0  0  0
 10 20  1  0  0  0  0
 10 21  1  0  0  0  0
 11 12  1  0  0  0  0
 11 22  1  0  0  0  0
 12 23  1  0  0  0  0
 12 24  1  0  0  0  0
M  END
> <PUBCHEM_COMPOUND_CID>
6673

> <PUBCHEM_COMPOUND_CANONICALIZED>
1

> <PUBCHEM_CACTVS_COMPLEXITY>
277

> <PUBCHEM_CACTVS_HBOND_ACCEPTOR>
2

> <PUBCHEM_CACTVS_HBOND_DONOR>
0

> <PUBCHEM_CACTVS_ROTATABLE_BOND>
0

> <PUBCHEM_CACTVS_SUBSKEYS>
AAADccBwMAAAAAAAAAAAAAAAEiQAAYMGAAA0SIAAAAAYAAAAAAAAGgAAAAAADRSggAIAAAAABAAAAAAAAAAAAAAAAAAAAAAAAAAAAAIAAAACAAAEAAAAAAHA4PwOgAAAAAAAAABAAAYAADAAAYAADAAAAA==

> <PUBCHEM_IUPAC_INCHI>
InChI=1S/C10H12O2/c1-4-3-2-6-10(11-6)7(3)5(1)9-8(4)12-9/h3-10H,1-2H2

> <PUBCHEM_IUPAC_INCHIKEY>
BQQUFAMSJAKLNB-UHFFFAOYSA-N

> <PUBCHEM_XLOGP3_AA>
0.8

> <PUBCHEM_EXACT_MASS>
164.08373

> <PUBCHEM_MOLECULAR_FORMULA>
C10H12O2

> <PUBCHEM_MOLECULAR_WEIGHT>
164.20108

> <PUBCHEM_OPENEYE_CAN_SMILES>
C1C2C3CC4C(C3C1C5C2O5)O4

> <PUBCHEM_OPENEYE_ISO_SMILES>
C1C2C3CC4C(C3C1C5C2O5)O4

> <PUBCHEM_CACTVS_TPSA>
25.1

> <PUBCHEM_MONOISOTOPIC_WEIGHT>
164.08373

> <PUBCHEM_TOTAL_CHARGE>
0

> <PUBCHEM_HEAVY_ATOM_COUNT>
12

> <PUBCHEM_ATOM_DEF_STEREO_COUNT>
0

> <PUBCHEM_ATOM_UDEF_STEREO_COUNT>
8

> <PUBCHEM_BOND_DEF_STEREO_COUNT>
0

> <PUBCHEM_BOND_UDEF_STEREO_COUNT>
0

> <PUBCHEM_ISOTOPIC_ATOM_COUNT>
0

> <PUBCHEM_COMPONENT_COUNT>
1

> <PUBCHEM_CACTVS_TAUTO_COUNT>
1

> <PUBCHEM_COORDINATE_TYPE>
1
5
255

> <PUBCHEM_BONDANNOTATIONS>
7  1  3
8  1  3
11  12  3
9  2  3
3  4  3
4  10  3
5  12  3
6  10  3

$$$$

