   Color/Form

     * White crystals
     * MONOCLINIC OR TRIGONAL PRISMS FROM DILUTE ALCOHOL
     * Monoclinic prisms from alc

   from [1]HSDB

   Odor
        Odorless
   from [2]HSDB

   Taste
        Sweet
   from [3]HSDB

   Melting Point
        290 deg C decomposes
   from [4]HSDB

   Density/Specific Gravity
        1.161 g/cu cm @ 20 deg C
   from [5]HSDB

   Dissociation Constants

     * pKa = 2.37 @ 20 deg C
     * pK1': 2.34; pK2': 9.60

   from [6]HSDB

   Octanol/Water Partition Coefficient
        log Kow = -3.21
   from [7]HSDB

   pH
        0.2 molar soln in water: 4.0
   from [8]HSDB

   Solubilities

     * Insoluble in ethanol, ethyl ether, slightly soluble in acetone;
       very soluble in water
     * Solubility in 100 ml water @ 25 deg C: 25.0 g; @ 50 deg C: 39.1 g;
       @ 75 deg C: 54.4 g; @ 100 deg C: 67.2 g
     * 100 g of abs alc dissolve about 0.06 g. Sol in 164 parts pyridine.
       Almost insol in ether.
     * water solubility = 2.49X10+5 mg/l @ 25 deg C

   from [9]HSDB

   Spectral Properties

     * MAX ABSORPTION (ALCOHOL, PH= 2): 285 NM (LOG E= 3.76), SADTLER
       REFERENCE NUMBER: 6475 (IR, PRISM)
     * IR: 5811 (Coblentz Society Spectral Collection)
     * UV: 6-4 (Organic Electronic Spectral Data, Phillips et al, John
       Wiley & Sons, New York)
     * NMR: 6843 (Sadtler Research Laboratories Spectral Collection)
     * MASS: 14 (Aldermaston, Eight Peak Index of Mass Spectra, UK)

   from [10]HSDB

   Other Chemical/Physical Properties

     * Starts to dec at 233 deg C, completely sintered at 290 deg C
     * Hygroscopic prisms from HCl, mp 182 deg C.
     * MP: 189 DEG C /(C2H5NO2)2.HCL/
     * EXISTS IN 3 POLYMORPHIC FORMS, ALPHA, BETA, GAMMA
     * BROWNS AT 228 DEG C & IS COMPLETELY SINTERED @ 290 DEG C
     * ISOELECTRIC POINT: 5.97

   from [11]HSDB

   Computed Properties
   Molecular Weight                  75.0666 [g/mol]
   Molecular Formula                 C[2]H[5]NO[2]
   XLogP3                            -3.2
   H-Bond Donor                      2
   H-Bond Acceptor                   3
   Rotatable Bond Count              1
   Exact Mass                        75.032028
   MonoIsotopic Mass                 75.032028
   Topological Polar Surface Area    63.3
   Heavy Atom Count                  5
   Formal Charge                     0
   Complexity                        42.9
   Isotope Atom Count                0
   Defined Atom Stereocenter Count   0
   Undefined Atom Stereocenter Count 0
   Defined Bond Stereocenter Count   0
   Undefined Bond Stereocenter Count 0
   Covalently-Bonded Unit Count      1
   Feature 3D Acceptor Count         2
   Feature 3D Donor Count            1
   Feature 3D Anion Count            1
   Feature 3D Cation Count           1
   Effective Rotor Count             1
   Conformer Sampling RMSD           0.4
   CID Conformer Count               [12]2

References

   1. http://toxnet.nlm.nih.gov/cgi-bin/sis/search/r?dbs+hsdb:@term+@rn+@rel+56-40-6
   2. http://toxnet.nlm.nih.gov/cgi-bin/sis/search/r?dbs+hsdb:@term+@rn+@rel+56-40-6
   3. http://toxnet.nlm.nih.gov/cgi-bin/sis/search/r?dbs+hsdb:@term+@rn+@rel+56-40-6
   4. http://toxnet.nlm.nih.gov/cgi-bin/sis/search/r?dbs+hsdb:@term+@rn+@rel+56-40-6
   5. http://toxnet.nlm.nih.gov/cgi-bin/sis/search/r?dbs+hsdb:@term+@rn+@rel+56-40-6
   6. http://toxnet.nlm.nih.gov/cgi-bin/sis/search/r?dbs+hsdb:@term+@rn+@rel+56-40-6
   7. http://toxnet.nlm.nih.gov/cgi-bin/sis/search/r?dbs+hsdb:@term+@rn+@rel+56-40-6
   8. http://toxnet.nlm.nih.gov/cgi-bin/sis/search/r?dbs+hsdb:@term+@rn+@rel+56-40-6
   9. http://toxnet.nlm.nih.gov/cgi-bin/sis/search/r?dbs+hsdb:@term+@rn+@rel+56-40-6
  10. http://toxnet.nlm.nih.gov/cgi-bin/sis/search/r?dbs+hsdb:@term+@rn+@rel+56-40-6
  11. http://toxnet.nlm.nih.gov/cgi-bin/sis/search/r?dbs+hsdb:@term+@rn+@rel+56-40-6
  12. http://pubchem.ncbi.nlm.nih.gov/vw3d/vw3d.cgi?cid=750
