12889
  -OEChem-06261207302D

 21 21  0     0  0  0  0  0  0999 V2000
    4.5981    2.6550    0.0000 F   0  0  0  0  0  0  0  0  0  0  0  0
    5.5981    1.6550    0.0000 F   0  0  0  0  0  0  0  0  0  0  0  0
    3.5981    1.6550    0.0000 F   0  0  0  0  0  0  0  0  0  0  0  0
    2.0000   -1.8450    0.0000 F   0  0  0  0  0  0  0  0  0  0  0  0
    3.3660   -2.2110    0.0000 F   0  0  0  0  0  0  0  0  0  0  0  0
    2.3660   -0.4790    0.0000 F   0  0  0  0  0  0  0  0  0  0  0  0
    6.3301   -2.3450    0.0000 O   0  0  0  0  0  0  0  0  0  0  0  0
    7.1962   -0.8450    0.0000 O   0  0  0  0  0  0  0  0  0  0  0  0
    4.5981    0.6550    0.0000 C   0  0  0  0  0  0  0  0  0  0  0  0
    3.7320   -0.8450    0.0000 C   0  0  0  0  0  0  0  0  0  0  0  0
    3.7320    0.1550    0.0000 C   0  0  0  0  0  0  0  0  0  0  0  0
    5.4641   -0.8450    0.0000 C   0  0  0  0  0  0  0  0  0  0  0  0
    5.4641    0.1550    0.0000 C   0  0  0  0  0  0  0  0  0  0  0  0
    4.5981   -1.3450    0.0000 C   0  0  0  0  0  0  0  0  0  0  0  0
    4.5981    1.6550    0.0000 C   0  0  0  0  0  0  0  0  0  0  0  0
    2.8660   -1.3450    0.0000 C   0  0  0  0  0  0  0  0  0  0  0  0
    6.3301   -1.3450    0.0000 C   0  0  0  0  0  0  0  0  0  0  0  0
    3.1951    0.4650    0.0000 H   0  0  0  0  0  0  0  0  0  0  0  0
    6.0010    0.4650    0.0000 H   0  0  0  0  0  0  0  0  0  0  0  0
    4.5981   -1.9650    0.0000 H   0  0  0  0  0  0  0  0  0  0  0  0
    6.8671   -2.6550    0.0000 H   0  0  0  0  0  0  0  0  0  0  0  0
  1 15  1  0  0  0  0
  2 15  1  0  0  0  0
  3 15  1  0  0  0  0
  4 16  1  0  0  0  0
  5 16  1  0  0  0  0
  6 16  1  0  0  0  0
  7 17  1  0  0  0  0
  7 21  1  0  0  0  0
  8 17  2  0  0  0  0
  9 11  2  0  0  0  0
  9 13  1  0  0  0  0
  9 15  1  0  0  0  0
 10 11  1  0  0  0  0
 10 14  2  0  0  0  0
 10 16  1  0  0  0  0
 11 18  1  0  0  0  0
 12 13  2  0  0  0  0
 12 14  1  0  0  0  0
 12 17  1  0  0  0  0
 13 19  1  0  0  0  0
 14 20  1  0  0  0  0
M  END
> <PUBCHEM_COMPOUND_CID>
12889

> <PUBCHEM_COMPOUND_CANONICALIZED>
1

> <PUBCHEM_CACTVS_COMPLEXITY>
273

> <PUBCHEM_CACTVS_HBOND_ACCEPTOR>
8

> <PUBCHEM_CACTVS_HBOND_DONOR>
1

> <PUBCHEM_CACTVS_ROTATABLE_BOND>
1

> <PUBCHEM_CACTVS_SUBSKEYS>
AAADcYBwMcAAAAAAAAAAAAAAAAAAAAAAAAAwAAAAAAAAAAABAAAAGwAACAAADACAmBAwCIAAAgCIAiDSCAACAAAkAAAAiAEACMgIJjKAFRCAcQAkwAEImYeIyGCOAAACAAAAAAAAAAQAAAAAAAAAAAAAAA==

> <PUBCHEM_IUPAC_OPENEYE_NAME>
3,5-bis(trifluoromethyl)benzoic acid

> <PUBCHEM_IUPAC_CAS_NAME>
3,5-bis(trifluoromethyl)benzoic acid

> <PUBCHEM_IUPAC_NAME>
3,5-bis(trifluoromethyl)benzoic acid

> <PUBCHEM_IUPAC_SYSTEMATIC_NAME>
3,5-bis(trifluoromethyl)benzoic acid

> <PUBCHEM_IUPAC_TRADITIONAL_NAME>
3,5-bis(trifluoromethyl)benzoic acid

> <PUBCHEM_IUPAC_INCHI>
InChI=1S/C9H4F6O2/c10-8(11,12)5-1-4(7(16)17)2-6(3-5)9(13,14)15/h1-3H,(H,16,17)

> <PUBCHEM_IUPAC_INCHIKEY>
HVFQJWGYVXKLTE-UHFFFAOYSA-N

> <PUBCHEM_XLOGP3>
3.8

> <PUBCHEM_EXACT_MASS>
258.011549

> <PUBCHEM_MOLECULAR_FORMULA>
C9H4F6O2

> <PUBCHEM_MOLECULAR_WEIGHT>
258.117279

> <PUBCHEM_OPENEYE_CAN_SMILES>
C1=C(C=C(C=C1C(F)(F)F)C(F)(F)F)C(=O)O

> <PUBCHEM_OPENEYE_ISO_SMILES>
C1=C(C=C(C=C1C(F)(F)F)C(F)(F)F)C(=O)O

> <PUBCHEM_CACTVS_TPSA>
37.3

> <PUBCHEM_MONOISOTOPIC_WEIGHT>
258.011549

> <PUBCHEM_TOTAL_CHARGE>
0

> <PUBCHEM_HEAVY_ATOM_COUNT>
17

> <PUBCHEM_ATOM_DEF_STEREO_COUNT>
0

> <PUBCHEM_ATOM_UDEF_STEREO_COUNT>
0

> <PUBCHEM_BOND_DEF_STEREO_COUNT>
0

> <PUBCHEM_BOND_UDEF_STEREO_COUNT>
0

> <PUBCHEM_ISOTOPIC_ATOM_COUNT>
0

> <PUBCHEM_COMPONENT_COUNT>
1

> <PUBCHEM_CACTVS_TAUTO_COUNT>
1

> <PUBCHEM_COORDINATE_TYPE>
1
5
255

> <PUBCHEM_BONDANNOTATIONS>
10  11  8
10  14  8
12  13  8
12  14  8
9  11  8
9  13  8

$$$$

