46173858
  -OEChem-07051213092D

118125  0     1  0  0  0  0  0999 V2000
    6.1534   -4.3745    0.0000 O   0  0  0  0  0  0  0  0  0  0  0  0
    4.4880   -3.2933    0.0000 O   0  0  0  0  0  0  0  0  0  0  0  0
    8.9462    0.9630    0.0000 O   0  0  0  0  0  0  0  0  0  0  0  0
   12.5607    1.0048    0.0000 O   0  0  0  0  0  0  0  0  0  0  0  0
    9.7831    2.4794    0.0000 O   0  0  0  0  0  0  0  0  0  0  0  0
    7.1952    1.9294    0.0000 O   0  0  0  0  0  0  0  0  0  0  0  0
    7.1566    3.9290    0.0000 O   0  0  0  0  0  0  0  0  0  0  0  0
    8.8691    4.9622    0.0000 O   0  0  0  0  0  0  0  0  0  0  0  0
    6.3004    3.4124    0.0000 O   0  0  0  0  0  0  0  0  0  0  0  0
    5.4827    0.8962    0.0000 O   0  0  0  0  0  0  0  0  0  0  0  0
    3.7317    1.8626    0.0000 O   0  0  0  0  0  0  0  0  0  0  0  0
    3.6932    3.8623    0.0000 O   0  0  0  0  0  0  0  0  0  0  0  0
    2.8370    3.3457    0.0000 O   0  0  0  0  0  0  0  0  0  0  0  0
    7.2208   -2.1396    0.0000 C   0  0  1  0  0  0  0  0  0  0  0  0
    8.0868   -2.6396    0.0000 C   0  0  2  0  0  0  0  0  0  0  0  0
    6.4838   -2.8067    0.0000 C   0  0  2  0  0  0  0  0  0  0  0  0
    8.9528   -2.1396    0.0000 C   0  0  1  0  0  0  0  0  0  0  0  0
    6.8889   -3.7145    0.0000 C   0  0  2  0  0  0  0  0  0  0  0  0
    8.9528   -1.1396    0.0000 C   0  0  2  0  0  0  0  0  0  0  0  0
    7.8776   -3.6114    0.0000 C   0  0  0  0  0  0  0  0  0  0  0  0
    7.2208   -1.1396    0.0000 C   0  0  0  0  0  0  0  0  0  0  0  0
    5.5014   -2.9134    0.0000 C   0  0  1  0  0  0  0  0  0  0  0  0
    8.0868   -0.6396    0.0000 C   0  0  0  0  0  0  0  0  0  0  0  0
    9.8468   -0.6050    0.0000 C   0  0  2  0  0  0  0  0  0  0  0  0
    5.2976   -3.8804    0.0000 C   0  0  1  0  0  0  0  0  0  0  0  0
    6.3548   -1.6396    0.0000 C   0  0  0  0  0  0  0  0  0  0  0  0
    9.8468   -2.6743    0.0000 C   0  0  0  0  0  0  0  0  0  0  0  0
   10.7528   -1.1188    0.0000 C   0  0  0  0  0  0  0  0  0  0  0  0
    9.8217    0.4797    0.0000 C   0  0  1  0  0  0  0  0  0  0  0  0
    4.8303   -2.1720    0.0000 C   0  0  0  0  0  0  0  0  0  0  0  0
   10.7528   -2.1604    0.0000 C   0  0  0  0  0  0  0  0  0  0  0  0
    5.1939   -4.8750    0.0000 C   0  0  0  0  0  0  0  0  0  0  0  0
    8.9769   -0.1117    0.0000 C   0  0  0  0  0  0  0  0  0  0  0  0
   11.6966   -0.5836    0.0000 C   0  0  0  0  0  0  0  0  0  0  0  0
   10.7528    1.0367    0.0000 C   0  0  0  0  0  0  0  0  0  0  0  0
   11.6966    0.5014    0.0000 C   0  0  2  0  0  0  0  0  0  0  0  0
    4.2807   -5.2825    0.0000 C   0  0  0  0  0  0  0  0  0  0  0  0
    3.4712   -4.6954    0.0000 C   0  0  2  0  0  0  0  0  0  0  0  0
    3.5748   -3.7008    0.0000 C   0  0  0  0  0  0  0  0  0  0  0  0
    8.9269    1.9628    0.0000 C   0  0  2  0  0  0  0  0  0  0  0  0
    2.5580   -5.1029    0.0000 C   0  0  0  0  0  0  0  0  0  0  0  0
    8.0514    2.4460    0.0000 C   0  0  1  0  0  0  0  0  0  0  0  0
    8.0321    3.4458    0.0000 C   0  0  2  0  0  0  0  0  0  0  0  0
    9.7639    3.4792    0.0000 C   0  0  1  0  0  0  0  0  0  0  0  0
    8.8884    3.9624    0.0000 C   0  0  2  0  0  0  0  0  0  0  0  0
   10.6201    3.9958    0.0000 C   0  0  0  0  0  0  0  0  0  0  0  0
    6.3197    2.4126    0.0000 C   0  0  2  0  0  0  0  0  0  0  0  0
    5.4635    1.8960    0.0000 C   0  0  1  0  0  0  0  0  0  0  0  0
    4.5880    2.3792    0.0000 C   0  0  1  0  0  0  0  0  0  0  0  0
    5.4249    3.8956    0.0000 C   0  0  2  0  0  0  0  0  0  0  0  0
    4.5687    3.3790    0.0000 C   0  0  2  0  0  0  0  0  0  0  0  0
    5.4056    4.8954    0.0000 C   0  0  0  0  0  0  0  0  0  0  0  0
    2.8562    2.3458    0.0000 C   0  0  0  0  0  0  0  0  0  0  0  0
    2.0000    1.8292    0.0000 C   0  0  0  0  0  0  0  0  0  0  0  0
    8.7738   -3.1401    0.0000 H   0  0  0  0  0  0  0  0  0  0  0  0
    6.1357   -2.0312    0.0000 H   0  0  0  0  0  0  0  0  0  0  0  0
    8.9463   -2.9896    0.0000 H   0  0  0  0  0  0  0  0  0  0  0  0
    7.2336   -4.4915    0.0000 H   0  0  0  0  0  0  0  0  0  0  0  0
    8.9463   -0.2897    0.0000 H   0  0  0  0  0  0  0  0  0  0  0  0
    7.8767   -4.2314    0.0000 H   0  0  0  0  0  0  0  0  0  0  0  0
    8.4941   -3.6775    0.0000 H   0  0  0  0  0  0  0  0  0  0  0  0
    7.0087   -0.5570    0.0000 H   0  0  0  0  0  0  0  0  0  0  0  0
    6.6102   -1.2473    0.0000 H   0  0  0  0  0  0  0  0  0  0  0  0
    5.7218   -2.3339    0.0000 H   0  0  0  0  0  0  0  0  0  0  0  0
    8.4853   -0.1647    0.0000 H   0  0  0  0  0  0  0  0  0  0  0  0
    7.6883   -0.1647    0.0000 H   0  0  0  0  0  0  0  0  0  0  0  0
    6.6648   -1.1027    0.0000 H   0  0  0  0  0  0  0  0  0  0  0  0
    5.8178   -1.3296    0.0000 H   0  0  0  0  0  0  0  0  0  0  0  0
    6.0448   -2.1766    0.0000 H   0  0  0  0  0  0  0  0  0  0  0  0
    9.4422   -3.1441    0.0000 H   0  0  0  0  0  0  0  0  0  0  0  0
   10.2404   -3.1533    0.0000 H   0  0  0  0  0  0  0  0  0  0  0  0
    9.8109    1.0996    0.0000 H   0  0  0  0  0  0  0  0  0  0  0  0
    5.2900   -1.7560    0.0000 H   0  0  0  0  0  0  0  0  0  0  0  0
    4.4142   -1.7123    0.0000 H   0  0  0  0  0  0  0  0  0  0  0  0
    4.3706   -2.5881    0.0000 H   0  0  0  0  0  0  0  0  0  0  0  0
   11.2886   -2.4725    0.0000 H   0  0  0  0  0  0  0  0  0  0  0  0
    5.3444   -5.4764    0.0000 H   0  0  0  0  0  0  0  0  0  0  0  0
    5.8124   -4.8312    0.0000 H   0  0  0  0  0  0  0  0  0  0  0  0
    9.2828    0.4276    0.0000 H   0  0  0  0  0  0  0  0  0  0  0  0
    8.4376    0.1942    0.0000 H   0  0  0  0  0  0  0  0  0  0  0  0
    8.6711   -0.6510    0.0000 H   0  0  0  0  0  0  0  0  0  0  0  0
   11.9057   -1.1673    0.0000 H   0  0  0  0  0  0  0  0  0  0  0  0
   12.3075   -0.4775    0.0000 H   0  0  0  0  0  0  0  0  0  0  0  0
   11.1465    1.5157    0.0000 H   0  0  0  0  0  0  0  0  0  0  0  0
   10.3482    1.5064    0.0000 H   0  0  0  0  0  0  0  0  0  0  0  0
   12.2342    0.1925    0.0000 H   0  0  0  0  0  0  0  0  0  0  0  0
    3.8351   -5.7136    0.0000 H   0  0  0  0  0  0  0  0  0  0  0  0
    4.6278   -5.7962    0.0000 H   0  0  0  0  0  0  0  0  0  0  0  0
    2.9693   -4.3314    0.0000 H   0  0  0  0  0  0  0  0  0  0  0  0
    3.4243   -3.0994    0.0000 H   0  0  0  0  0  0  0  0  0  0  0  0
    2.9564   -3.7446    0.0000 H   0  0  0  0  0  0  0  0  0  0  0  0
    8.3960    1.6425    0.0000 H   0  0  0  0  0  0  0  0  0  0  0  0
    2.3053   -4.5368    0.0000 H   0  0  0  0  0  0  0  0  0  0  0  0
    1.9918   -5.3556    0.0000 H   0  0  0  0  0  0  0  0  0  0  0  0
    2.8107   -5.6691    0.0000 H   0  0  0  0  0  0  0  0  0  0  0  0
   13.0989    0.6968    0.0000 H   0  0  0  0  0  0  0  0  0  0  0  0
    7.5086    2.7456    0.0000 H   0  0  0  0  0  0  0  0  0  0  0  0
    7.5013    3.1255    0.0000 H   0  0  0  0  0  0  0  0  0  0  0  0
   10.3067    3.1796    0.0000 H   0  0  0  0  0  0  0  0  0  0  0  0
    8.3456    4.2620    0.0000 H   0  0  0  0  0  0  0  0  0  0  0  0
   10.9404    3.4649    0.0000 H   0  0  0  0  0  0  0  0  0  0  0  0
   11.1510    4.3161    0.0000 H   0  0  0  0  0  0  0  0  0  0  0  0
   10.2998    4.5266    0.0000 H   0  0  0  0  0  0  0  0  0  0  0  0
    6.3316    1.7927    0.0000 H   0  0  0  0  0  0  0  0  0  0  0  0
    7.1447    4.5489    0.0000 H   0  0  0  0  0  0  0  0  0  0  0  0
    9.4000    5.2825    0.0000 H   0  0  0  0  0  0  0  0  0  0  0  0
    4.9326    1.5757    0.0000 H   0  0  0  0  0  0  0  0  0  0  0  0
    4.0451    2.6788    0.0000 H   0  0  0  0  0  0  0  0  0  0  0  0
    5.9558    4.2159    0.0000 H   0  0  0  0  0  0  0  0  0  0  0  0
    4.0378    3.0588    0.0000 H   0  0  0  0  0  0  0  0  0  0  0  0
    4.9519    0.5759    0.0000 H   0  0  0  0  0  0  0  0  0  0  0  0
    6.0255    4.9074    0.0000 H   0  0  0  0  0  0  0  0  0  0  0  0
    5.3937    5.5153    0.0000 H   0  0  0  0  0  0  0  0  0  0  0  0
    4.7858    4.8835    0.0000 H   0  0  0  0  0  0  0  0  0  0  0  0
    3.6812    4.4821    0.0000 H   0  0  0  0  0  0  0  0  0  0  0  0
    1.6797    2.3601    0.0000 H   0  0  0  0  0  0  0  0  0  0  0  0
    1.4691    1.5090    0.0000 H   0  0  0  0  0  0  0  0  0  0  0  0
    2.3203    1.2984    0.0000 H   0  0  0  0  0  0  0  0  0  0  0  0
  1 18  1  0  0  0  0
 25  1  1  1  0  0  0
  2 25  1  0  0  0  0
  2 39  1  0  0  0  0
 29  3  1  6  0  0  0
 40  3  1  1  0  0  0
 36  4  1  6  0  0  0
  4 96  1  0  0  0  0
  5 40  1  0  0  0  0
  5 44  1  0  0  0  0
 42  6  1  6  0  0  0
 47  6  1  1  0  0  0
 43  7  1  1  0  0  0
  7105  1  0  0  0  0
 45  8  1  1  0  0  0
  8106  1  0  0  0  0
  9 47  1  0  0  0  0
  9 50  1  0  0  0  0
 48 10  1  6  0  0  0
 10111  1  0  0  0  0
 49 11  1  6  0  0  0
 11 53  1  0  0  0  0
 51 12  1  1  0  0  0
 12115  1  0  0  0  0
 13 53  2  0  0  0  0
 14 15  1  0  0  0  0
 14 16  1  0  0  0  0
 14 21  1  0  0  0  0
 14 26  1  6  0  0  0
 15 17  1  0  0  0  0
 15 20  1  0  0  0  0
 15 55  1  1  0  0  0
 16 18  1  0  0  0  0
 16 22  1  0  0  0  0
 16 56  1  1  0  0  0
 17 19  1  0  0  0  0
 17 27  1  0  0  0  0
 17 57  1  6  0  0  0
 18 20  1  0  0  0  0
 18 58  1  1  0  0  0
 19 23  1  0  0  0  0
 19 24  1  0  0  0  0
 19 59  1  1  0  0  0
 20 60  1  0  0  0  0
 20 61  1  0  0  0  0
 21 23  1  0  0  0  0
 21 62  1  0  0  0  0
 21 63  1  0  0  0  0
 22 25  1  0  0  0  0
 22 30  1  1  0  0  0
 22 64  1  0  0  0  0
 23 65  1  0  0  0  0
 23 66  1  0  0  0  0
 24 28  1  0  0  0  0
 24 29  1  0  0  0  0
 24 33  1  6  0  0  0
 25 32  1  0  0  0  0
 26 67  1  0  0  0  0
 26 68  1  0  0  0  0
 26 69  1  0  0  0  0
 27 31  1  0  0  0  0
 27 70  1  0  0  0  0
 27 71  1  0  0  0  0
 28 31  2  0  0  0  0
 28 34  1  0  0  0  0
 29 35  1  0  0  0  0
 29 72  1  0  0  0  0
 30 73  1  0  0  0  0
 30 74  1  0  0  0  0
 30 75  1  0  0  0  0
 31 76  1  0  0  0  0
 32 37  1  0  0  0  0
 32 77  1  0  0  0  0
 32 78  1  0  0  0  0
 33 79  1  0  0  0  0
 33 80  1  0  0  0  0
 33 81  1  0  0  0  0
 34 36  1  0  0  0  0
 34 82  1  0  0  0  0
 34 83  1  0  0  0  0
 35 36  1  0  0  0  0
 35 84  1  0  0  0  0
 35 85  1  0  0  0  0
 36 86  1  0  0  0  0
 37 38  1  0  0  0  0
 37 87  1  0  0  0  0
 37 88  1  0  0  0  0
 38 39  1  0  0  0  0
 38 41  1  1  0  0  0
 38 89  1  0  0  0  0
 39 90  1  0  0  0  0
 39 91  1  0  0  0  0
 40 42  1  0  0  0  0
 40 92  1  0  0  0  0
 41 93  1  0  0  0  0
 41 94  1  0  0  0  0
 41 95  1  0  0  0  0
 42 43  1  0  0  0  0
 42 97  1  0  0  0  0
 43 45  1  0  0  0  0
 43 98  1  0  0  0  0
 44 45  1  0  0  0  0
 44 46  1  1  0  0  0
 44 99  1  0  0  0  0
 45100  1  0  0  0  0
 46101  1  0  0  0  0
 46102  1  0  0  0  0
 46103  1  0  0  0  0
 47 48  1  0  0  0  0
 47104  1  0  0  0  0
 48 49  1  0  0  0  0
 48107  1  0  0  0  0
 49 51  1  0  0  0  0
 49108  1  0  0  0  0
 50 51  1  0  0  0  0
 50 52  1  6  0  0  0
 50109  1  0  0  0  0
 51110  1  0  0  0  0
 52112  1  0  0  0  0
 52113  1  0  0  0  0
 52114  1  0  0  0  0
 53 54  1  0  0  0  0
 54116  1  0  0  0  0
 54117  1  0  0  0  0
 54118  1  0  0  0  0
M  END
> <PUBCHEM_COMPOUND_CID>
46173858

> <PUBCHEM_COMPOUND_CANONICALIZED>
1

> <PUBCHEM_CACTVS_COMPLEXITY>
1440

> <PUBCHEM_CACTVS_HBOND_ACCEPTOR>
13

> <PUBCHEM_CACTVS_HBOND_DONOR>
5

> <PUBCHEM_CACTVS_ROTATABLE_BOND>
6

> <PUBCHEM_CACTVS_SUBSKEYS>
AAADcfB8PAAAAAAAAAAAAAAAAAAAAaIAAAA0aJECAAASAGCAAAAAGgAACAAADxSwgAMCCAAABgCIAiDSCAAAAAAgAAAACAAAAAgREAIAAQAiQAAFwAAPAAPA4PwPgAAAAAAAAADAAAQQADAAAYAADAAAAA==

> <PUBCHEM_IUPAC_INCHI>
InChI=1S/C41H64O13/c1-18-10-13-41(48-17-18)19(2)30-28(54-41)16-27-25-9-8-23-14-24(43)15-29(40(23,7)26(25)11-12-39(27,30)6)52-38-36(33(46)31(44)20(3)50-38)53-37-34(47)35(51-22(5)42)32(45)21(4)49-37/h8,18-21,24-38,43-47H,9-17H2,1-7H3/t18-,19+,20-,21+,24-,25-,26+,27+,28+,29-,30+,31+,32+,33+,34-,35-,36-,37+,38+,39+,40+,41-/m1/s1

> <PUBCHEM_IUPAC_INCHIKEY>
KSIVGTKSVYIZEB-GDUJLLAZSA-N

> <PUBCHEM_XLOGP3_AA>
3.1

> <PUBCHEM_EXACT_MASS>
764.434692

> <PUBCHEM_MOLECULAR_FORMULA>
C41H64O13

> <PUBCHEM_MOLECULAR_WEIGHT>
764.93906

> <PUBCHEM_OPENEYE_CAN_SMILES>
CC1CCC2(C(C3C(O2)CC4C3(CCC5C4CC=C6C5(C(CC(C6)O)OC7C(C(C(C(O7)C)O)O)OC8C(C(C(C(O8)C)O)OC(=O)C)O)C)C)C)OC1

> <PUBCHEM_OPENEYE_ISO_SMILES>
C[C@@H]1CC[C@@]2([C@H]([C@H]3[C@@H](O2)C[C@@H]4[C@@]3(CC[C@H]5[C@H]4CC=C6[C@@]5([C@@H](C[C@@H](C6)O)O[C@H]7[C@@H]([C@H]([C@H]([C@H](O7)C)O)O)O[C@H]8[C@@H]([C@@H]([C@H]([C@@H](O8)C)O)OC(=O)C)O)C)C)C)OC1

> <PUBCHEM_CACTVS_TPSA>
183

> <PUBCHEM_MONOISOTOPIC_WEIGHT>
764.434692

> <PUBCHEM_TOTAL_CHARGE>
0

> <PUBCHEM_HEAVY_ATOM_COUNT>
54

> <PUBCHEM_ATOM_DEF_STEREO_COUNT>
22

> <PUBCHEM_ATOM_UDEF_STEREO_COUNT>
0

> <PUBCHEM_BOND_DEF_STEREO_COUNT>
0

> <PUBCHEM_BOND_UDEF_STEREO_COUNT>
0

> <PUBCHEM_ISOTOPIC_ATOM_COUNT>
0

> <PUBCHEM_COMPONENT_COUNT>
1

> <PUBCHEM_CACTVS_TAUTO_COUNT>
1

> <PUBCHEM_COORDINATE_TYPE>
1
5
255

> <PUBCHEM_BONDANNOTATIONS>
25  1  5
48  10  6
49  11  6
51  12  5
14  26  6
15  55  5
16  56  5
17  57  6
18  58  5
19  59  5
22  30  5
24  33  6
29  3  6
40  3  5
38  41  5
36  4  6
44  46  5
50  52  6
42  6  6
47  6  5
43  7  5
45  8  5

$$$$

