   Color/Form

     * Viscous oily liquid
     * Colorless

   from [1]HSDB

   Odor
        Pungent offensive odor of mercaptans
   from [2]HSDB

   Melting Point
        77 deg C
   from [3]HSDB

   Density/Specific Gravity
        1.2385 @ 25 deg C/4 deg C
   from [4]HSDB

   Dissociation Constants
        pKa1= 8.62; pKa2= 10.57 @ 25 deg C
   from [5]HSDB

   Solubilities

     * 8.7 g dissolve in 100 ml water (decomp); sol in vegetable oils
     * Sol in alcohol
     * SOL IN ETHER

   from [6]HSDB

   Spectral Properties

     * Index of refraction: 1.5720 @ 25 deg C/D
     * IR: 17122 (Sadtler Research Laboratories Prism Collection)
     * NMR: 9144 (Sadtler Research Laboratories Spectral Collection)

   from [7]HSDB

   Vapor Density
        4.3 (Air= 1)
   from [8]HSDB

   Other Chemical/Physical Properties

     * Wt/vol conversion: 5.07 mg/cu m= 1 ppm
     * BP: 120 deg C @ 15 mm Hg; 40 deg C @ 20 mm Hg; 100 deg C @ 5.6 mm
       Hg; 130 deg C @ 25 mm Hg; 140 deg C @ 40 mm Hg

   from [9]HSDB

   Computed Properties
   Molecular Weight                  124.22502 [g/mol]
   Molecular Formula                 C[3]H[8]OS[2]
   XLogP3-AA                         0.2
   H-Bond Donor                      3
   H-Bond Acceptor                   3
   Rotatable Bond Count              2
   Exact Mass                        124.001657
   MonoIsotopic Mass                 124.001657
   Topological Polar Surface Area    22.2
   Heavy Atom Count                  6
   Formal Charge                     0
   Complexity                        32
   Isotope Atom Count                0
   Defined Atom Stereocenter Count   0
   Undefined Atom Stereocenter Count 1
   Defined Bond Stereocenter Count   0
   Undefined Bond Stereocenter Count 0
   Covalently-Bonded Unit Count      1
   Feature 3D Acceptor Count         1
   Feature 3D Donor Count            1
   Effective Rotor Count             2
   Conformer Sampling RMSD           0.4
   CID Conformer Count               [10]18

References

   1. http://toxnet.nlm.nih.gov/cgi-bin/sis/search/r?dbs+hsdb:@term+@rn+@rel+59-52-9
   2. http://toxnet.nlm.nih.gov/cgi-bin/sis/search/r?dbs+hsdb:@term+@rn+@rel+59-52-9
   3. http://toxnet.nlm.nih.gov/cgi-bin/sis/search/r?dbs+hsdb:@term+@rn+@rel+59-52-9
   4. http://toxnet.nlm.nih.gov/cgi-bin/sis/search/r?dbs+hsdb:@term+@rn+@rel+59-52-9
   5. http://toxnet.nlm.nih.gov/cgi-bin/sis/search/r?dbs+hsdb:@term+@rn+@rel+59-52-9
   6. http://toxnet.nlm.nih.gov/cgi-bin/sis/search/r?dbs+hsdb:@term+@rn+@rel+59-52-9
   7. http://toxnet.nlm.nih.gov/cgi-bin/sis/search/r?dbs+hsdb:@term+@rn+@rel+59-52-9
   8. http://toxnet.nlm.nih.gov/cgi-bin/sis/search/r?dbs+hsdb:@term+@rn+@rel+59-52-9
   9. http://toxnet.nlm.nih.gov/cgi-bin/sis/search/r?dbs+hsdb:@term+@rn+@rel+59-52-9
  10. http://pubchem.ncbi.nlm.nih.gov/vw3d/vw3d.cgi?cid=3080
