442728
  -OEChem-07051212592D

 56 61  0     0  0  0  0  0  0999 V2000
    6.4144    1.2621    0.0000 O   0  0  0  0  0  0  0  0  0  0  0  0
    9.1138   -1.2621    0.0000 O   0  0  0  0  0  0  0  0  0  0  0  0
    4.6660    1.2275    0.0000 O   0  0  0  0  0  0  0  0  0  0  0  0
   10.8622   -1.2275    0.0000 O   0  0  0  0  0  0  0  0  0  0  0  0
    4.6660   -2.7725    0.0000 O   0  0  0  0  0  0  0  0  0  0  0  0
   10.8622    2.7725    0.0000 O   0  0  0  0  0  0  0  0  0  0  0  0
    2.9176    1.2621    0.0000 O   0  0  0  0  0  0  0  0  0  0  0  0
   12.6106   -1.2621    0.0000 O   0  0  0  0  0  0  0  0  0  0  0  0
    7.3321   -0.2517    0.0000 C   0  0  0  0  0  0  0  0  0  0  0  0
    8.1962    0.2517    0.0000 C   0  0  0  0  0  0  0  0  0  0  0  0
    9.9962    0.2725    0.0000 C   0  0  0  0  0  0  0  0  0  0  0  0
    5.5321   -0.2725    0.0000 C   0  0  0  0  0  0  0  0  0  0  0  0
    8.1962    1.2933    0.0000 C   0  0  0  0  0  0  0  0  0  0  0  0
    7.3321   -1.2933    0.0000 C   0  0  0  0  0  0  0  0  0  0  0  0
    9.9962    1.2725    0.0000 C   0  0  0  0  0  0  0  0  0  0  0  0
    5.5321   -1.2725    0.0000 C   0  0  0  0  0  0  0  0  0  0  0  0
    9.1022   -0.2622    0.0000 C   0  0  0  0  0  0  0  0  0  0  0  0
    6.4260    0.2622    0.0000 C   0  0  0  0  0  0  0  0  0  0  0  0
    6.4260   -1.8071    0.0000 C   0  0  0  0  0  0  0  0  0  0  0  0
    9.1022    1.8071    0.0000 C   0  0  0  0  0  0  0  0  0  0  0  0
    4.6660    0.2275    0.0000 C   0  0  0  0  0  0  0  0  0  0  0  0
   10.8622   -0.2275    0.0000 C   0  0  0  0  0  0  0  0  0  0  0  0
   11.7282    0.2725    0.0000 C   0  0  0  0  0  0  0  0  0  0  0  0
    3.8000   -0.2725    0.0000 C   0  0  0  0  0  0  0  0  0  0  0  0
    4.6660   -1.7725    0.0000 C   0  0  0  0  0  0  0  0  0  0  0  0
   10.8622    1.7725    0.0000 C   0  0  0  0  0  0  0  0  0  0  0  0
    3.8000   -1.2725    0.0000 C   0  0  0  0  0  0  0  0  0  0  0  0
   11.7282    1.2725    0.0000 C   0  0  0  0  0  0  0  0  0  0  0  0
    7.3321    1.7966    0.0000 C   0  0  0  0  0  0  0  0  0  0  0  0
    8.1962   -1.7966    0.0000 C   0  0  0  0  0  0  0  0  0  0  0  0
   12.6222   -0.2622    0.0000 C   0  0  0  0  0  0  0  0  0  0  0  0
    2.9061    0.2622    0.0000 C   0  0  0  0  0  0  0  0  0  0  0  0
   12.6222    1.8071    0.0000 C   0  0  0  0  0  0  0  0  0  0  0  0
    2.9061   -1.8071    0.0000 C   0  0  0  0  0  0  0  0  0  0  0  0
    2.0000   -0.2517    0.0000 C   0  0  0  0  0  0  0  0  0  0  0  0
   13.5282    0.2517    0.0000 C   0  0  0  0  0  0  0  0  0  0  0  0
    2.0000   -1.2933    0.0000 C   0  0  0  0  0  0  0  0  0  0  0  0
   13.5282    1.2933    0.0000 C   0  0  0  0  0  0  0  0  0  0  0  0
    9.1094    2.4271    0.0000 H   0  0  0  0  0  0  0  0  0  0  0  0
    6.4188   -2.4271    0.0000 H   0  0  0  0  0  0  0  0  0  0  0  0
    7.6441    2.3324    0.0000 H   0  0  0  0  0  0  0  0  0  0  0  0
    7.8841   -2.3324    0.0000 H   0  0  0  0  0  0  0  0  0  0  0  0
    8.7319   -2.1087    0.0000 H   0  0  0  0  0  0  0  0  0  0  0  0
    8.5082   -1.2609    0.0000 H   0  0  0  0  0  0  0  0  0  0  0  0
    6.7963    2.1087    0.0000 H   0  0  0  0  0  0  0  0  0  0  0  0
    7.0200    1.2609    0.0000 H   0  0  0  0  0  0  0  0  0  0  0  0
   12.6150    2.4271    0.0000 H   0  0  0  0  0  0  0  0  0  0  0  0
    2.9132   -2.4271    0.0000 H   0  0  0  0  0  0  0  0  0  0  0  0
    5.8740    1.5659    0.0000 H   0  0  0  0  0  0  0  0  0  0  0  0
    9.6543   -1.5659    0.0000 H   0  0  0  0  0  0  0  0  0  0  0  0
   14.0640   -0.0604    0.0000 H   0  0  0  0  0  0  0  0  0  0  0  0
    1.4643    0.0604    0.0000 H   0  0  0  0  0  0  0  0  0  0  0  0
   14.0640    1.6054    0.0000 H   0  0  0  0  0  0  0  0  0  0  0  0
    1.4643   -1.6054    0.0000 H   0  0  0  0  0  0  0  0  0  0  0  0
   13.1439   -1.5783    0.0000 H   0  0  0  0  0  0  0  0  0  0  0  0
    2.3843    1.5783    0.0000 H   0  0  0  0  0  0  0  0  0  0  0  0
  1 18  1  0  0  0  0
  1 49  1  0  0  0  0
  2 17  1  0  0  0  0
  2 50  1  0  0  0  0
  3 21  2  0  0  0  0
  4 22  2  0  0  0  0
  5 25  2  0  0  0  0
  6 26  2  0  0  0  0
  7 32  1  0  0  0  0
  7 56  1  0  0  0  0
  8 31  1  0  0  0  0
  8 55  1  0  0  0  0
  9 10  1  0  0  0  0
  9 14  1  0  0  0  0
  9 18  2  0  0  0  0
 10 13  1  0  0  0  0
 10 17  2  0  0  0  0
 11 15  2  0  0  0  0
 11 17  1  0  0  0  0
 11 22  1  0  0  0  0
 12 16  2  0  0  0  0
 12 18  1  0  0  0  0
 12 21  1  0  0  0  0
 13 20  2  0  0  0  0
 13 29  1  0  0  0  0
 14 19  2  0  0  0  0
 14 30  1  0  0  0  0
 15 20  1  0  0  0  0
 15 26  1  0  0  0  0
 16 19  1  0  0  0  0
 16 25  1  0  0  0  0
 19 40  1  0  0  0  0
 20 39  1  0  0  0  0
 21 24  1  0  0  0  0
 22 23  1  0  0  0  0
 23 28  2  0  0  0  0
 23 31  1  0  0  0  0
 24 27  2  0  0  0  0
 24 32  1  0  0  0  0
 25 27  1  0  0  0  0
 26 28  1  0  0  0  0
 27 34  1  0  0  0  0
 28 33  1  0  0  0  0
 29 41  1  0  0  0  0
 29 45  1  0  0  0  0
 29 46  1  0  0  0  0
 30 42  1  0  0  0  0
 30 43  1  0  0  0  0
 30 44  1  0  0  0  0
 31 36  2  0  0  0  0
 32 35  2  0  0  0  0
 33 38  2  0  0  0  0
 33 47  1  0  0  0  0
 34 37  2  0  0  0  0
 34 48  1  0  0  0  0
 35 37  1  0  0  0  0
 35 52  1  0  0  0  0
 36 38  1  0  0  0  0
 36 51  1  0  0  0  0
 37 54  1  0  0  0  0
 38 53  1  0  0  0  0
M  END
> <PUBCHEM_COMPOUND_CID>
442728

> <PUBCHEM_COMPOUND_CANONICALIZED>
1

> <PUBCHEM_CACTVS_COMPLEXITY>
944

> <PUBCHEM_CACTVS_HBOND_ACCEPTOR>
8

> <PUBCHEM_CACTVS_HBOND_DONOR>
4

> <PUBCHEM_CACTVS_ROTATABLE_BOND>
1

> <PUBCHEM_CACTVS_SUBSKEYS>
AAADceB4PAAAAAAAAAAAAAAAAAAAAAAAAAAwYMGDAAAAAADBVAAAGgAACAAADASAmAAyBoAAAgCIAqBSAAACAAAkIAAIiAEGCMgIJjaCFRKAcUAk4BEImYfL6PSOwAADAAAYAACAAAYAADAAAAAAAAAAAA==

> <PUBCHEM_IUPAC_OPENEYE_NAME>
2-(1,8-dihydroxy-3-methyl-9,10-dioxo-2-anthryl)-1,8-dihydroxy-3-methyl-anthracene-9,10-dione

> <PUBCHEM_IUPAC_CAS_NAME>
2-(1,8-dihydroxy-3-methyl-9,10-dioxo-2-anthracenyl)-1,8-dihydroxy-3-methylanthracene-9,10-dione

> <PUBCHEM_IUPAC_NAME>
2-(1,8-dihydroxy-3-methyl-9,10-dioxoanthracen-2-yl)-1,8-dihydroxy-3-methylanthracene-9,10-dione

> <PUBCHEM_IUPAC_SYSTEMATIC_NAME>
3-methyl-2-[3-methyl-1,8-bis(oxidanyl)-9,10-bis(oxidanylidene)anthracen-2-yl]-1,8-bis(oxidanyl)anthracene-9,10-dione

> <PUBCHEM_IUPAC_TRADITIONAL_NAME>
2-(1,8-dihydroxy-9,10-diketo-3-methyl-2-anthryl)-1,8-dihydroxy-3-methyl-9,10-anthraquinone

> <PUBCHEM_IUPAC_INCHI>
InChI=1S/C30H18O8/c1-11-9-15-23(29(37)21-13(25(15)33)5-3-7-17(21)31)27(35)19(11)20-12(2)10-16-24(28(20)36)30(38)22-14(26(16)34)6-4-8-18(22)32/h3-10,31-32,35-36H,1-2H3

> <PUBCHEM_IUPAC_INCHIKEY>
VUPMYTWJSPRETC-UHFFFAOYSA-N

> <PUBCHEM_XLOGP3_AA>
5.9

> <PUBCHEM_EXACT_MASS>
506.100168

> <PUBCHEM_MOLECULAR_FORMULA>
C30H18O8

> <PUBCHEM_MOLECULAR_WEIGHT>
506.45912

> <PUBCHEM_OPENEYE_CAN_SMILES>
CC1=C(C(=C2C(=C1)C(=O)C3=C(C2=O)C(=CC=C3)O)O)C4=C(C=C5C(=C4O)C(=O)C6=C(C5=O)C=CC=C6O)C

> <PUBCHEM_OPENEYE_ISO_SMILES>
CC1=C(C(=C2C(=C1)C(=O)C3=C(C2=O)C(=CC=C3)O)O)C4=C(C=C5C(=C4O)C(=O)C6=C(C5=O)C=CC=C6O)C

> <PUBCHEM_CACTVS_TPSA>
149

> <PUBCHEM_MONOISOTOPIC_WEIGHT>
506.100168

> <PUBCHEM_TOTAL_CHARGE>
0

> <PUBCHEM_HEAVY_ATOM_COUNT>
38

> <PUBCHEM_ATOM_DEF_STEREO_COUNT>
0

> <PUBCHEM_ATOM_UDEF_STEREO_COUNT>
0

> <PUBCHEM_BOND_DEF_STEREO_COUNT>
0

> <PUBCHEM_BOND_UDEF_STEREO_COUNT>
0

> <PUBCHEM_ISOTOPIC_ATOM_COUNT>
0

> <PUBCHEM_COMPONENT_COUNT>
1

> <PUBCHEM_CACTVS_TAUTO_COUNT>
992

> <PUBCHEM_COORDINATE_TYPE>
1
5
255

> <PUBCHEM_BONDANNOTATIONS>
10  13  8
10  17  8
11  15  8
11  17  8
12  16  8
12  18  8
13  20  8
14  19  8
15  20  8
16  19  8
23  28  8
23  31  8
24  27  8
24  32  8
27  34  8
28  33  8
31  36  8
32  35  8
33  38  8
34  37  8
35  37  8
36  38  8
9  14  8
9  18  8

$$$$

