33306
  -OEChem-07051212572D

 35 38  0     1  0  0  0  0  0999 V2000
    6.8962    2.2003    0.0000 O   0  0  0  0  0  0  0  0  0  0  0  0
    5.5301   -0.1657    0.0000 O   0  0  0  0  0  0  0  0  0  0  0  0
    7.3424   -2.9704    0.0000 O   0  0  0  0  0  0  0  0  0  0  0  0
    3.7702   -3.2003    0.0000 O   0  0  0  0  0  0  0  0  0  0  0  0
    2.0000   -3.1898    0.0000 O   0  0  0  0  0  0  0  0  0  0  0  0
    5.8961    2.2003    0.0000 C   0  0  0  0  0  0  0  0  0  0  0  0
    6.3961    1.3343    0.0000 C   0  0  2  0  0  0  0  0  0  0  0  0
    6.3961    0.3343    0.0000 C   0  0  0  0  0  0  0  0  0  0  0  0
    5.8961    3.2003    0.0000 C   0  0  0  0  0  0  0  0  0  0  0  0
    5.0301    1.7003    0.0000 C   0  0  0  0  0  0  0  0  0  0  0  0
    5.5301   -1.1657    0.0000 C   0  0  0  0  0  0  0  0  0  0  0  0
    6.3961   -1.6657    0.0000 C   0  0  0  0  0  0  0  0  0  0  0  0
    4.6641   -1.6657    0.0000 C   0  0  0  0  0  0  0  0  0  0  0  0
    6.3961   -2.6657    0.0000 C   0  0  0  0  0  0  0  0  0  0  0  0
    4.6641   -2.6657    0.0000 C   0  0  0  0  0  0  0  0  0  0  0  0
    5.5301   -3.1657    0.0000 C   0  0  0  0  0  0  0  0  0  0  0  0
    7.3424   -1.3610    0.0000 C   0  0  0  0  0  0  0  0  0  0  0  0
    3.7702   -1.1310    0.0000 C   0  0  0  0  0  0  0  0  0  0  0  0
    7.9260   -2.1657    0.0000 C   0  0  0  0  0  0  0  0  0  0  0  0
    2.8641   -1.6449    0.0000 C   0  0  0  0  0  0  0  0  0  0  0  0
    2.8641   -2.6865    0.0000 C   0  0  0  0  0  0  0  0  0  0  0  0
    6.9950    1.1738    0.0000 H   0  0  0  0  0  0  0  0  0  0  0  0
    6.6082   -0.2483    0.0000 H   0  0  0  0  0  0  0  0  0  0  0  0
    7.0067    0.4420    0.0000 H   0  0  0  0  0  0  0  0  0  0  0  0
    4.7201    2.2373    0.0000 H   0  0  0  0  0  0  0  0  0  0  0  0
    4.4932    1.3903    0.0000 H   0  0  0  0  0  0  0  0  0  0  0  0
    5.3401    1.1634    0.0000 H   0  0  0  0  0  0  0  0  0  0  0  0
    6.5162    3.2003    0.0000 H   0  0  0  0  0  0  0  0  0  0  0  0
    5.8961    3.8203    0.0000 H   0  0  0  0  0  0  0  0  0  0  0  0
    5.2762    3.2003    0.0000 H   0  0  0  0  0  0  0  0  0  0  0  0
    5.5301   -3.7857    0.0000 H   0  0  0  0  0  0  0  0  0  0  0  0
    7.5350   -0.7716    0.0000 H   0  0  0  0  0  0  0  0  0  0  0  0
    3.7773   -0.5111    0.0000 H   0  0  0  0  0  0  0  0  0  0  0  0
    8.5460   -2.1657    0.0000 H   0  0  0  0  0  0  0  0  0  0  0  0
    2.3284   -1.3328    0.0000 H   0  0  0  0  0  0  0  0  0  0  0  0
  1  6  1  0  0  0  0
  1  7  1  0  0  0  0
  2  8  1  0  0  0  0
  2 11  1  0  0  0  0
  3 14  1  0  0  0  0
  3 19  1  0  0  0  0
  4 15  1  0  0  0  0
  4 21  1  0  0  0  0
  5 21  2  0  0  0  0
  6  7  1  0  0  0  0
  6  9  1  0  0  0  0
  6 10  1  0  0  0  0
  7  8  1  1  0  0  0
  7 22  1  0  0  0  0
  8 23  1  0  0  0  0
  8 24  1  0  0  0  0
  9 28  1  0  0  0  0
  9 29  1  0  0  0  0
  9 30  1  0  0  0  0
 10 25  1  0  0  0  0
 10 26  1  0  0  0  0
 10 27  1  0  0  0  0
 11 12  1  0  0  0  0
 11 13  2  0  0  0  0
 12 14  2  0  0  0  0
 12 17  1  0  0  0  0
 13 15  1  0  0  0  0
 13 18  1  0  0  0  0
 14 16  1  0  0  0  0
 15 16  2  0  0  0  0
 16 31  1  0  0  0  0
 17 19  2  0  0  0  0
 17 32  1  0  0  0  0
 18 20  2  0  0  0  0
 18 33  1  0  0  0  0
 19 34  1  0  0  0  0
 20 21  1  0  0  0  0
 20 35  1  0  0  0  0
M  END
> <PUBCHEM_COMPOUND_CID>
33306

> <PUBCHEM_COMPOUND_CANONICALIZED>
1

> <PUBCHEM_CACTVS_COMPLEXITY>
471

> <PUBCHEM_CACTVS_HBOND_ACCEPTOR>
5

> <PUBCHEM_CACTVS_HBOND_DONOR>
0

> <PUBCHEM_CACTVS_ROTATABLE_BOND>
3

> <PUBCHEM_CACTVS_SUBSKEYS>
AAADccB4OAAAAAAAAAAAAAAAEgAAASAAAAAwQAAAAAAAAEiB8AAAGgAAAAAADFSgmAIyDsAABECIAqjSiAACCAAkIAAIiAEGCMgNJzaENBqCO2Cl4BUKqYfK7PzOIAACCAAIAABAAAQQABAAAAAAAAAAAA==

> <PUBCHEM_IUPAC_OPENEYE_NAME>
4-[[(2S)-3,3-dimethyloxiran-2-yl]methoxy]furo[3,2-g]chromen-7-one

> <PUBCHEM_IUPAC_CAS_NAME>
4-[[(2S)-3,3-dimethyl-2-oxiranyl]methoxy]-7-furo[3,2-g][1]benzopyranone

> <PUBCHEM_IUPAC_NAME>
4-[[(2S)-3,3-dimethyloxiran-2-yl]methoxy]furo[3,2-g]chromen-7-one

> <PUBCHEM_IUPAC_SYSTEMATIC_NAME>
4-[[(2S)-3,3-dimethyloxiran-2-yl]methoxy]furo[3,2-g]chromen-7-one

> <PUBCHEM_IUPAC_TRADITIONAL_NAME>
4-[[(2S)-3,3-dimethyloxiran-2-yl]methoxy]furo[3,2-g]chromen-7-one

> <PUBCHEM_IUPAC_INCHI>
InChI=1S/C16H14O5/c1-16(2)13(21-16)8-19-15-9-3-4-14(17)20-12(9)7-11-10(15)5-6-18-11/h3-7,13H,8H2,1-2H3/t13-/m0/s1

> <PUBCHEM_IUPAC_INCHIKEY>
QTAGQHZOLRFCBU-ZDUSSCGKSA-N

> <PUBCHEM_XLOGP3_AA>
2.6

> <PUBCHEM_EXACT_MASS>
286.084124

> <PUBCHEM_MOLECULAR_FORMULA>
C16H14O5

> <PUBCHEM_MOLECULAR_WEIGHT>
286.27936

> <PUBCHEM_OPENEYE_CAN_SMILES>
CC1(C(O1)COC2=C3C=CC(=O)OC3=CC4=C2C=CO4)C

> <PUBCHEM_OPENEYE_ISO_SMILES>
CC1([C@@H](O1)COC2=C3C=CC(=O)OC3=CC4=C2C=CO4)C

> <PUBCHEM_CACTVS_TPSA>
61.2

> <PUBCHEM_MONOISOTOPIC_WEIGHT>
286.084124

> <PUBCHEM_TOTAL_CHARGE>
0

> <PUBCHEM_HEAVY_ATOM_COUNT>
21

> <PUBCHEM_ATOM_DEF_STEREO_COUNT>
1

> <PUBCHEM_ATOM_UDEF_STEREO_COUNT>
0

> <PUBCHEM_BOND_DEF_STEREO_COUNT>
0

> <PUBCHEM_BOND_UDEF_STEREO_COUNT>
0

> <PUBCHEM_ISOTOPIC_ATOM_COUNT>
0

> <PUBCHEM_COMPONENT_COUNT>
1

> <PUBCHEM_CACTVS_TAUTO_COUNT>
1

> <PUBCHEM_COORDINATE_TYPE>
1
5
255

> <PUBCHEM_BONDANNOTATIONS>
11  12  8
11  13  8
12  14  8
12  17  8
13  15  8
13  18  8
14  16  8
15  16  8
17  19  8
18  20  8
20  21  8
3  14  8
3  19  8
4  15  8
4  21  8
7  8  5

$$$$

