   Chemical and Physical Properties References

   [1]USDA ARS - USDA chemical properties
   from [2]ChemIDplus

   Color/Form

     * Colorless solid
     * Crystals from petroleum ether

   from [3]HSDB

   Odor

     * Solids have slight characteristic odor
     * Liquid has odor of the solvent (xylene)

   from [4]HSDB

   Boiling Point
        180 deg C at 0.1 mm Hg
   from [5]HSDB

   Melting Point
        77.5 deg C
   from [6]HSDB

   Corrosivity
        Slightly corrosive to metals
   from [7]HSDB

   Density/Specific Gravity
        Specific gravity: 1.130 at 20 deg C
   from [8]HSDB

   Heat of Vaporization
        1.07 J/kmole at 25 deg C.
   from [9]HSDB

   Octanol/Water Partition Coefficient
        log Kow = 5.02
   from [10]HSDB

   Solubilities

     * 400 g/L in acetone, ethyl acetate and toluene at 25 deg C. 36 g/L
       in methanol at 25 deg C. 30 g/L in hexane and isopropanol at 25 deg
       C
     * In water, 1.2 mg/L at 24 deg C (99% purity)
     * In water, 0.8 mg/L at 25 deg C

   from [11]HSDB

   Spectral Properties

     * UV Max absorption (ethanol): 226, 258, 266, 276 nm (log epsilon =
       4.43, 2.82, 2.85, 2.60, respectively)
     * MASS: 42369 (NIST/EPA/MSDC Mass Spectral Database, 1990 version)
     * Intense mass spectral peaks: 138 M/z (100%), 111 M/z (36%), 141 M/z
       (29%), 250 M/z (27%)

   from [12]HSDB

   Vapor Pressure
        3.98X10-7 mm Hg at 25 deg C (technical)
   from [13]HSDB

   Other Chemical/Physical Properties

     * Brown viscous oil; 95% pure, composed of 80% dicofol and 20% its
       1-(2-chlorophenyl)-1-(4- chlorophenyl)-isomer('o,p'-dicofol'). BP:
       193 deg C at 370 mm Hg. VP: 0.053 mPa at 25 deg C. Density: 1.45 at
       25 deg C. /Technical grade/
     * Amber emulsion (41.1%). Wt/gallon at 20 deg C = 9.4
     * Henry's Law constant = 2.4X10-7 atm-cu m/mol at 25 deg C (est)
     * Hydroxyl radical reaction rate constant = 3.4X10-12 cu cm/molec-sec
       at 25 deg C (est)

   from [14]HSDB

   Computed Properties
   Molecular Weight                  370.48566 [g/mol]
   Molecular Formula                 C[14]H[9]Cl[5]O
   XLogP3                            4.3
   H-Bond Donor                      1
   H-Bond Acceptor                   1
   Rotatable Bond Count              2
   Exact Mass                        369.906653
   MonoIsotopic Mass                 367.909603
   Topological Polar Surface Area    20.2
   Heavy Atom Count                  20
   Formal Charge                     0
   Complexity                        292
   Isotope Atom Count                0
   Defined Atom Stereocenter Count   0
   Undefined Atom Stereocenter Count 0
   Defined Bond Stereocenter Count   0
   Undefined Bond Stereocenter Count 0
   Covalently-Bonded Unit Count      1
   Feature 3D Acceptor Count         1
   Feature 3D Donor Count            1
   Feature 3D Ring Count             2
   Effective Rotor Count             3
   Conformer Sampling RMSD           0.6
   CID Conformer Count               [15]2

References

   1. http://www.ars.usda.gov/SP2UserFiles/ad_hoc/12755100DatabaseFiles/PesticidePropertiesDatabase/IndividualPesticideFiles/DICOFOL.TXT
   2. http://chem.sis.nlm.nih.gov/chemidplus/
   3. http://toxnet.nlm.nih.gov/cgi-bin/sis/search/r?dbs+hsdb:@term+@rn+@rel+115-32-2
   4. http://toxnet.nlm.nih.gov/cgi-bin/sis/search/r?dbs+hsdb:@term+@rn+@rel+115-32-2
   5. http://toxnet.nlm.nih.gov/cgi-bin/sis/search/r?dbs+hsdb:@term+@rn+@rel+115-32-2
   6. http://toxnet.nlm.nih.gov/cgi-bin/sis/search/r?dbs+hsdb:@term+@rn+@rel+115-32-2
   7. http://toxnet.nlm.nih.gov/cgi-bin/sis/search/r?dbs+hsdb:@term+@rn+@rel+115-32-2
   8. http://toxnet.nlm.nih.gov/cgi-bin/sis/search/r?dbs+hsdb:@term+@rn+@rel+115-32-2
   9. http://toxnet.nlm.nih.gov/cgi-bin/sis/search/r?dbs+hsdb:@term+@rn+@rel+115-32-2
  10. http://toxnet.nlm.nih.gov/cgi-bin/sis/search/r?dbs+hsdb:@term+@rn+@rel+115-32-2
  11. http://toxnet.nlm.nih.gov/cgi-bin/sis/search/r?dbs+hsdb:@term+@rn+@rel+115-32-2
  12. http://toxnet.nlm.nih.gov/cgi-bin/sis/search/r?dbs+hsdb:@term+@rn+@rel+115-32-2
  13. http://toxnet.nlm.nih.gov/cgi-bin/sis/search/r?dbs+hsdb:@term+@rn+@rel+115-32-2
  14. http://toxnet.nlm.nih.gov/cgi-bin/sis/search/r?dbs+hsdb:@term+@rn+@rel+115-32-2
  15. http://pubchem.ncbi.nlm.nih.gov/vw3d/vw3d.cgi?cid=8268
