   Color/Form

     * Colorless liquid
     * Pale-colored liquid.

   from [1]HSDB

   Boiling Point
        81-85 deg C at 0.1 mm Hg
   from [2]HSDB

   Corrosivity
        Corrosive to some metals.
   from [3]HSDB

   Density/Specific Gravity
        1.260 at 20 deg C
   from [4]HSDB

   Solubilities

     * 60 mg/l water at 20 deg C
     * Miscible with most organic solvents

   from [5]HSDB

   Spectral Properties
        Index of refraction: 1.5244
   from [6]HSDB

   Vapor Pressure
        7.6 Pa at 30 deg C
   from [7]HSDB

   Other Chemical/Physical Properties
        Stable in neutral and weakly acidic media at room temperature, but
   hydrolyzed by dilute acids and alkalis at 80 deg C. Rapidly hydrolyzed
   in alkaline media.
   from [8]HSDB

   Computed Properties
   Molecular Weight                  234.704342 [g/mol]
   Molecular Formula                 C[5]H[12]ClO[2]PS[2]
   XLogP3                            3.1
   H-Bond Donor                      0
   H-Bond Acceptor                   4
   Rotatable Bond Count              6
   Exact Mass                        233.970486
   MonoIsotopic Mass                 233.970486
   Topological Polar Surface Area    75.8
   Heavy Atom Count                  11
   Formal Charge                     0
   Complexity                        134
   Isotope Atom Count                0
   Defined Atom Stereocenter Count   0
   Undefined Atom Stereocenter Count 0
   Defined Bond Stereocenter Count   0
   Undefined Bond Stereocenter Count 0
   Covalently-Bonded Unit Count      1
   Effective Rotor Count             6
   Conformer Sampling RMSD           0.6
   CID Conformer Count               [9]59

References

   1. http://toxnet.nlm.nih.gov/cgi-bin/sis/search/r?dbs+hsdb:@term+@rn+@rel+24934-91-6
   2. http://toxnet.nlm.nih.gov/cgi-bin/sis/search/r?dbs+hsdb:@term+@rn+@rel+24934-91-6
   3. http://toxnet.nlm.nih.gov/cgi-bin/sis/search/r?dbs+hsdb:@term+@rn+@rel+24934-91-6
   4. http://toxnet.nlm.nih.gov/cgi-bin/sis/search/r?dbs+hsdb:@term+@rn+@rel+24934-91-6
   5. http://toxnet.nlm.nih.gov/cgi-bin/sis/search/r?dbs+hsdb:@term+@rn+@rel+24934-91-6
   6. http://toxnet.nlm.nih.gov/cgi-bin/sis/search/r?dbs+hsdb:@term+@rn+@rel+24934-91-6
   7. http://toxnet.nlm.nih.gov/cgi-bin/sis/search/r?dbs+hsdb:@term+@rn+@rel+24934-91-6
   8. http://toxnet.nlm.nih.gov/cgi-bin/sis/search/r?dbs+hsdb:@term+@rn+@rel+24934-91-6
   9. http://pubchem.ncbi.nlm.nih.gov/vw3d/vw3d.cgi?cid=32739
