5462437
  -OEChem-07051212572D

 43 47  0     1  0  0  0  0  0999 V2000
    2.2314   -0.1372    0.0000 O   0  0  0  0  0  0  0  0  0  0  0  0
    2.0000   -2.5922    0.0000 O   0  0  0  0  0  0  0  0  0  0  0  0
    2.0000    2.2122    0.0000 O   0  0  0  0  0  0  0  0  0  0  0  0
    6.1607   -1.1411    0.0000 N   0  0  3  0  0  0  0  0  0  0  0  0
    3.6897   -0.6655    0.0000 C   0  0  2  0  0  0  0  0  0  0  0  0
    2.8660   -1.1411    0.0000 C   0  0  2  0  0  0  0  0  0  0  0  0
    4.5133   -1.1411    0.0000 C   0  0  0  0  0  0  0  0  0  0  0  0
    5.3370   -0.6655    0.0000 C   0  0  1  0  0  0  0  0  0  0  0  0
    4.2392    0.0319    0.0000 C   0  0  0  0  0  0  0  0  0  0  0  0
    3.6897    0.2855    0.0000 C   0  0  0  0  0  0  0  0  0  0  0  0
    2.8660   -2.0922    0.0000 C   0  0  2  0  0  0  0  0  0  0  0  0
    5.3370    0.2855    0.0000 C   0  0  0  0  0  0  0  0  0  0  0  0
    5.5918    0.0319    0.0000 C   0  0  0  0  0  0  0  0  0  0  0  0
    4.5133    0.7611    0.0000 C   0  0  0  0  0  0  0  0  0  0  0  0
    2.8660    0.7611    0.0000 C   0  0  0  0  0  0  0  0  0  0  0  0
    4.5133   -2.0922    0.0000 C   0  0  0  0  0  0  0  0  0  0  0  0
    3.6897   -2.5677    0.0000 C   0  0  0  0  0  0  0  0  0  0  0  0
    4.5133    1.7122    0.0000 C   0  0  0  0  0  0  0  0  0  0  0  0
    2.8660    1.7122    0.0000 C   0  0  0  0  0  0  0  0  0  0  0  0
    6.8418   -1.8732    0.0000 C   0  0  0  0  0  0  0  0  0  0  0  0
    3.6897    2.1877    0.0000 C   0  0  0  0  0  0  0  0  0  0  0  0
    2.0000    3.2122    0.0000 C   0  0  0  0  0  0  0  0  0  0  0  0
    2.0496   -1.3775    0.0000 H   0  0  0  0  0  0  0  0  0  0  0  0
    5.3377   -1.5155    0.0000 H   0  0  0  0  0  0  0  0  0  0  0  0
    4.3760    0.6366    0.0000 H   0  0  0  0  0  0  0  0  0  0  0  0
    3.6795    0.2987    0.0000 H   0  0  0  0  0  0  0  0  0  0  0  0
    2.8660   -2.7122    0.0000 H   0  0  0  0  0  0  0  0  0  0  0  0
    5.9476    0.1779    0.0000 H   0  0  0  0  0  0  0  0  0  0  0  0
    5.5490    0.8681    0.0000 H   0  0  0  0  0  0  0  0  0  0  0  0
    6.1840    0.2157    0.0000 H   0  0  0  0  0  0  0  0  0  0  0  0
    5.4989    0.6449    0.0000 H   0  0  0  0  0  0  0  0  0  0  0  0
    5.0503   -2.4021    0.0000 H   0  0  0  0  0  0  0  0  0  0  0  0
    3.2912   -3.0426    0.0000 H   0  0  0  0  0  0  0  0  0  0  0  0
    4.0882   -3.0426    0.0000 H   0  0  0  0  0  0  0  0  0  0  0  0
    5.0503    2.0222    0.0000 H   0  0  0  0  0  0  0  0  0  0  0  0
    6.3879   -2.2955    0.0000 H   0  0  0  0  0  0  0  0  0  0  0  0
    7.2641   -2.3271    0.0000 H   0  0  0  0  0  0  0  0  0  0  0  0
    7.2957   -1.4509    0.0000 H   0  0  0  0  0  0  0  0  0  0  0  0
    3.6897    2.8077    0.0000 H   0  0  0  0  0  0  0  0  0  0  0  0
    2.0000   -3.2122    0.0000 H   0  0  0  0  0  0  0  0  0  0  0  0
    2.6200    3.2122    0.0000 H   0  0  0  0  0  0  0  0  0  0  0  0
    2.0000    3.8322    0.0000 H   0  0  0  0  0  0  0  0  0  0  0  0
    1.3800    3.2122    0.0000 H   0  0  0  0  0  0  0  0  0  0  0  0
  1  6  1  0  0  0  0
  1 15  1  0  0  0  0
 11  2  1  6  0  0  0
  2 40  1  0  0  0  0
  3 19  1  0  0  0  0
  3 22  1  0  0  0  0
  4  8  1  0  0  0  0
  4 13  1  0  0  0  0
  4 20  1  0  0  0  0
  5  6  1  0  0  0  0
  5  7  1  0  0  0  0
  5  9  1  1  0  0  0
  5 10  1  0  0  0  0
  6 11  1  0  0  0  0
  6 23  1  1  0  0  0
  7  8  1  0  0  0  0
  7 16  2  0  0  0  0
  8 12  1  0  0  0  0
  8 24  1  6  0  0  0
  9 13  1  0  0  0  0
  9 25  1  0  0  0  0
  9 26  1  0  0  0  0
 10 14  2  0  0  0  0
 10 15  1  0  0  0  0
 11 17  1  0  0  0  0
 11 27  1  0  0  0  0
 12 14  1  0  0  0  0
 12 28  1  0  0  0  0
 12 29  1  0  0  0  0
 13 30  1  0  0  0  0
 13 31  1  0  0  0  0
 14 18  1  0  0  0  0
 15 19  2  0  0  0  0
 16 17  1  0  0  0  0
 16 32  1  0  0  0  0
 17 33  1  0  0  0  0
 17 34  1  0  0  0  0
 18 21  2  0  0  0  0
 18 35  1  0  0  0  0
 19 21  1  0  0  0  0
 20 36  1  0  0  0  0
 20 37  1  0  0  0  0
 20 38  1  0  0  0  0
 21 39  1  0  0  0  0
 22 41  1  0  0  0  0
 22 42  1  0  0  0  0
 22 43  1  0  0  0  0
M  END
> <PUBCHEM_COMPOUND_CID>
5462437

> <PUBCHEM_COMPOUND_CANONICALIZED>
1

> <PUBCHEM_CACTVS_COMPLEXITY>
521

> <PUBCHEM_CACTVS_HBOND_ACCEPTOR>
4

> <PUBCHEM_CACTVS_HBOND_DONOR>
1

> <PUBCHEM_CACTVS_ROTATABLE_BOND>
1

> <PUBCHEM_CACTVS_SUBSKEYS>
AAADceB6MAAAAAAAAAAAAAAAAAAAASAAAAA8YIEAAAAWAEjBAAAAHgAACAAADjzhmAYyBoMABgCAAiBCAACCCAAgIAAIiAAOiIgNNiKEsRuGeCKkwBGLqAew8P8PoAABAAAYQABQAAaAADCAAAAAAAAAAA==

> <PUBCHEM_IUPAC_OPENEYE_NAME>
(4R,7S,7aR,12bS)-9-methoxy-3-methyl-2,4,6,7,7a,13-hexahydro-1H-4,12-methanobenzofuro[3,2-e]isoquinoline-7-ol

> <PUBCHEM_IUPAC_CAS_NAME>
(4R,7S,7aR,12bS)-9-methoxy-3-methyl-2,4,6,7,7a,13-hexahydro-1H-4,12-methanobenzofuro[3,2-e]isoquinoline-7-ol

> <PUBCHEM_IUPAC_NAME>
(4R,7S,7aR,12bS)-9-methoxy-3-methyl-2,4,6,7,7a,13-hexahydro-1H-4,12-methanobenzofuro[3,2-e]isoquinoline-7-ol

> <PUBCHEM_IUPAC_SYSTEMATIC_NAME>
(4R,7S,7aR,12bS)-9-methoxy-3-methyl-2,4,6,7,7a,13-hexahydro-1H-4,12-methanobenzofuro[3,2-e]isoquinoline-7-ol

> <PUBCHEM_IUPAC_TRADITIONAL_NAME>
(4R,7S,7aR,12bS)-9-methoxy-3-methyl-2,4,6,7,7a,13-hexahydro-1H-4,12-methanobenzofuro[3,2-e]isoquinoline-7-ol

> <PUBCHEM_IUPAC_INCHI>
InChI=1S/C18H21NO3/c1-19-8-7-18-11-4-5-13(20)17(18)22-16-14(21-2)6-3-10(15(16)18)9-12(11)19/h3-4,6,12-13,17,20H,5,7-9H2,1-2H3/t12-,13+,17+,18+/m1/s1

> <PUBCHEM_IUPAC_INCHIKEY>
NNDKZTBFZTWKLA-QISBLDNZSA-N

> <PUBCHEM_XLOGP3_AA>
1.6

> <PUBCHEM_EXACT_MASS>
299.152144

> <PUBCHEM_MOLECULAR_FORMULA>
C18H21NO3

> <PUBCHEM_MOLECULAR_WEIGHT>
299.36424

> <PUBCHEM_OPENEYE_CAN_SMILES>
CN1CCC23C4C(CC=C2C1CC5=C3C(=C(C=C5)OC)O4)O

> <PUBCHEM_OPENEYE_ISO_SMILES>
CN1CC[C@]23[C@@H]4[C@H](CC=C2[C@H]1CC5=C3C(=C(C=C5)OC)O4)O

> <PUBCHEM_CACTVS_TPSA>
41.9

> <PUBCHEM_MONOISOTOPIC_WEIGHT>
299.152144

> <PUBCHEM_TOTAL_CHARGE>
0

> <PUBCHEM_HEAVY_ATOM_COUNT>
22

> <PUBCHEM_ATOM_DEF_STEREO_COUNT>
4

> <PUBCHEM_ATOM_UDEF_STEREO_COUNT>
0

> <PUBCHEM_BOND_DEF_STEREO_COUNT>
0

> <PUBCHEM_BOND_UDEF_STEREO_COUNT>
0

> <PUBCHEM_ISOTOPIC_ATOM_COUNT>
0

> <PUBCHEM_COMPONENT_COUNT>
1

> <PUBCHEM_CACTVS_TAUTO_COUNT>
1

> <PUBCHEM_COORDINATE_TYPE>
1
5
255

> <PUBCHEM_BONDANNOTATIONS>
10  14  8
10  15  8
14  18  8
15  19  8
18  21  8
19  21  8
11  2  6
5  9  5
6  23  5
8  24  6

$$$$

