442762
  -OEChem-07051212592D

 75 79  0     1  0  0  0  0  0999 V2000
    8.1272   -0.3674    0.0000 O   0  0  0  0  0  0  0  0  0  0  0  0
    7.2207    3.1224    0.0000 O   0  0  0  0  0  0  0  0  0  0  0  0
    8.1040    1.6325    0.0000 O   0  0  0  0  0  0  0  0  0  0  0  0
   10.7193    0.1626    0.0000 O   0  0  0  0  0  0  0  0  0  0  0  0
    7.2785   -1.8773    0.0000 O   0  0  0  0  0  0  0  0  0  0  0  0
   10.7424   -1.8372    0.0000 O   0  0  0  0  0  0  0  0  0  0  0  0
    9.0220   -2.8572    0.0000 O   0  0  0  0  0  0  0  0  0  0  0  0
    9.8244    2.6525    0.0000 O   0  0  0  0  0  0  0  0  0  0  0  0
    9.8013    4.6523    0.0000 O   0  0  0  0  0  0  0  0  0  0  0  0
    8.0578    5.6322    0.0000 O   0  0  0  0  0  0  0  0  0  0  0  0
    5.4772    4.1023    0.0000 O   0  0  0  0  0  0  0  0  0  0  0  0
    9.0602   -4.9360    0.0000 O   0  0  0  0  0  0  0  0  0  0  0  0
    5.5301   -1.9119    0.0000 O   0  0  0  0  0  0  0  0  0  0  0  0
    5.5301   -5.9119    0.0000 O   0  0  0  0  0  0  0  0  0  0  0  0
    3.7817   -1.8773    0.0000 O   0  0  0  0  0  0  0  0  0  0  0  0
    8.9873    0.1426    0.0000 C   0  0  1  0  0  0  0  0  0  0  0  0
    9.8591   -0.3473    0.0000 C   0  0  2  0  0  0  0  0  0  0  0  0
    9.8706   -1.3473    0.0000 C   0  0  1  0  0  0  0  0  0  0  0  0
    9.0105   -1.8572    0.0000 C   0  0  2  0  0  0  0  0  0  0  0  0
    8.9526    3.1424    0.0000 C   0  0  1  0  0  0  0  0  0  0  0  0
    8.0925    2.6324    0.0000 C   0  0  1  0  0  0  0  0  0  0  0  0
    8.9411    4.1424    0.0000 C   0  0  2  0  0  0  0  0  0  0  0  0
    8.0693    4.6323    0.0000 C   0  0  1  0  0  0  0  0  0  0  0  0
    7.2092    4.1223    0.0000 C   0  0  1  0  0  0  0  0  0  0  0  0
    8.1387   -1.3673    0.0000 C   0  0  1  0  0  0  0  0  0  0  0  0
    8.9758    1.1426    0.0000 C   0  0  0  0  0  0  0  0  0  0  0  0
    6.3374    4.6123    0.0000 C   0  0  0  0  0  0  0  0  0  0  0  0
    7.2901   -2.8772    0.0000 C   0  0  0  0  0  0  0  0  0  0  0  0
    6.3961   -3.4119    0.0000 C   0  0  0  0  0  0  0  0  0  0  0  0
    6.3961   -4.4119    0.0000 C   0  0  0  0  0  0  0  0  0  0  0  0
    8.1962   -3.3910    0.0000 C   0  0  0  0  0  0  0  0  0  0  0  0
    5.5301   -2.9119    0.0000 C   0  0  0  0  0  0  0  0  0  0  0  0
    4.6641   -3.4119    0.0000 C   0  0  0  0  0  0  0  0  0  0  0  0
    8.1962   -4.4327    0.0000 C   0  0  0  0  0  0  0  0  0  0  0  0
    7.2901   -4.9465    0.0000 C   0  0  0  0  0  0  0  0  0  0  0  0
    5.5301   -4.9119    0.0000 C   0  0  0  0  0  0  0  0  0  0  0  0
    4.6641   -4.4119    0.0000 C   0  0  0  0  0  0  0  0  0  0  0  0
    3.7702   -2.8772    0.0000 C   0  0  0  0  0  0  0  0  0  0  0  0
    3.7702   -4.9465    0.0000 C   0  0  0  0  0  0  0  0  0  0  0  0
    2.8641   -4.4327    0.0000 C   0  0  0  0  0  0  0  0  0  0  0  0
    2.8641   -3.3910    0.0000 C   0  0  0  0  0  0  0  0  0  0  0  0
    2.0000   -4.9360    0.0000 C   0  0  0  0  0  0  0  0  0  0  0  0
    9.0564   -5.9360    0.0000 C   0  0  0  0  0  0  0  0  0  0  0  0
    8.4468    0.4464    0.0000 H   0  0  0  0  0  0  0  0  0  0  0  0
    9.8519    0.2726    0.0000 H   0  0  0  0  0  0  0  0  0  0  0  0
    9.8778   -1.9672    0.0000 H   0  0  0  0  0  0  0  0  0  0  0  0
    8.4772   -2.1734    0.0000 H   0  0  0  0  0  0  0  0  0  0  0  0
    8.9598    2.5225    0.0000 H   0  0  0  0  0  0  0  0  0  0  0  0
    8.6329    2.3287    0.0000 H   0  0  0  0  0  0  0  0  0  0  0  0
    8.9339    4.7623    0.0000 H   0  0  0  0  0  0  0  0  0  0  0  0
    7.5288    4.9361    0.0000 H   0  0  0  0  0  0  0  0  0  0  0  0
    6.6758    3.8061    0.0000 H   0  0  0  0  0  0  0  0  0  0  0  0
    7.5982   -1.0635    0.0000 H   0  0  0  0  0  0  0  0  0  0  0  0
    9.5876    1.0420    0.0000 H   0  0  0  0  0  0  0  0  0  0  0  0
    9.1811    1.7276    0.0000 H   0  0  0  0  0  0  0  0  0  0  0  0
    6.7304    5.0918    0.0000 H   0  0  0  0  0  0  0  0  0  0  0  0
    5.9334    5.0826    0.0000 H   0  0  0  0  0  0  0  0  0  0  0  0
   10.7121    0.7826    0.0000 H   0  0  0  0  0  0  0  0  0  0  0  0
   11.2757   -1.5210    0.0000 H   0  0  0  0  0  0  0  0  0  0  0  0
    9.5625   -3.1610    0.0000 H   0  0  0  0  0  0  0  0  0  0  0  0
   10.3577    2.9687    0.0000 H   0  0  0  0  0  0  0  0  0  0  0  0
    9.7941    5.2723    0.0000 H   0  0  0  0  0  0  0  0  0  0  0  0
    7.5173    5.9360    0.0000 H   0  0  0  0  0  0  0  0  0  0  0  0
    4.9367    4.4061    0.0000 H   0  0  0  0  0  0  0  0  0  0  0  0
    8.7319   -3.0790    0.0000 H   0  0  0  0  0  0  0  0  0  0  0  0
    7.2829   -5.5665    0.0000 H   0  0  0  0  0  0  0  0  0  0  0  0
    3.7773   -5.5665    0.0000 H   0  0  0  0  0  0  0  0  0  0  0  0
    2.3284   -3.0790    0.0000 H   0  0  0  0  0  0  0  0  0  0  0  0
    1.6879   -4.4003    0.0000 H   0  0  0  0  0  0  0  0  0  0  0  0
    1.4643   -5.2481    0.0000 H   0  0  0  0  0  0  0  0  0  0  0  0
    2.3121   -5.4718    0.0000 H   0  0  0  0  0  0  0  0  0  0  0  0
    8.4364   -5.9336    0.0000 H   0  0  0  0  0  0  0  0  0  0  0  0
    9.0540   -6.5560    0.0000 H   0  0  0  0  0  0  0  0  0  0  0  0
    9.6764   -5.9384    0.0000 H   0  0  0  0  0  0  0  0  0  0  0  0
    3.2484   -1.5611    0.0000 H   0  0  0  0  0  0  0  0  0  0  0  0
  1 16  1  0  0  0  0
  1 25  1  0  0  0  0
  2 21  1  0  0  0  0
  2 24  1  0  0  0  0
 21  3  1  6  0  0  0
  3 26  1  0  0  0  0
 17  4  1  1  0  0  0
  4 58  1  0  0  0  0
 25  5  1  6  0  0  0
  5 28  1  0  0  0  0
 18  6  1  6  0  0  0
  6 59  1  0  0  0  0
 19  7  1  1  0  0  0
  7 60  1  0  0  0  0
 20  8  1  1  0  0  0
  8 61  1  0  0  0  0
 22  9  1  6  0  0  0
  9 62  1  0  0  0  0
 23 10  1  1  0  0  0
 10 63  1  0  0  0  0
 11 27  1  0  0  0  0
 11 64  1  0  0  0  0
 12 34  1  0  0  0  0
 12 43  1  0  0  0  0
 13 32  2  0  0  0  0
 14 36  2  0  0  0  0
 15 38  1  0  0  0  0
 15 75  1  0  0  0  0
 16 17  1  0  0  0  0
 16 26  1  6  0  0  0
 16 44  1  0  0  0  0
 17 18  1  0  0  0  0
 17 45  1  0  0  0  0
 18 19  1  0  0  0  0
 18 46  1  0  0  0  0
 19 25  1  0  0  0  0
 19 47  1  0  0  0  0
 20 21  1  0  0  0  0
 20 22  1  0  0  0  0
 20 48  1  0  0  0  0
 21 49  1  0  0  0  0
 22 23  1  0  0  0  0
 22 50  1  0  0  0  0
 23 24  1  0  0  0  0
 23 51  1  0  0  0  0
 24 27  1  6  0  0  0
 24 52  1  0  0  0  0
 25 53  1  0  0  0  0
 26 54  1  0  0  0  0
 26 55  1  0  0  0  0
 27 56  1  0  0  0  0
 27 57  1  0  0  0  0
 28 29  1  0  0  0  0
 28 31  2  0  0  0  0
 29 30  2  0  0  0  0
 29 32  1  0  0  0  0
 30 35  1  0  0  0  0
 30 36  1  0  0  0  0
 31 34  1  0  0  0  0
 31 65  1  0  0  0  0
 32 33  1  0  0  0  0
 33 37  2  0  0  0  0
 33 38  1  0  0  0  0
 34 35  2  0  0  0  0
 35 66  1  0  0  0  0
 36 37  1  0  0  0  0
 37 39  1  0  0  0  0
 38 41  2  0  0  0  0
 39 40  2  0  0  0  0
 39 67  1  0  0  0  0
 40 41  1  0  0  0  0
 40 42  1  0  0  0  0
 41 68  1  0  0  0  0
 42 69  1  0  0  0  0
 42 70  1  0  0  0  0
 42 71  1  0  0  0  0
 43 72  1  0  0  0  0
 43 73  1  0  0  0  0
 43 74  1  0  0  0  0
M  END
> <PUBCHEM_COMPOUND_CID>
442762

> <PUBCHEM_COMPOUND_CANONICALIZED>
1

> <PUBCHEM_CACTVS_COMPLEXITY>
997

> <PUBCHEM_CACTVS_HBOND_ACCEPTOR>
15

> <PUBCHEM_CACTVS_HBOND_DONOR>
8

> <PUBCHEM_CACTVS_ROTATABLE_BOND>
7

> <PUBCHEM_CACTVS_SUBSKEYS>
AAADcfB4PAAAAAAAAAAAAAAAAAAAAAAAAAA0aMECAAAAAADBQAAAGgAACAAADBSwmAMyDoAABgCIAqBSAAACCAAkIAAAiAEGCMgdNzaGNRqieWCl4BUPuYfL7PzO4AADCAAYAADAAAYQADAAAAAAAAAAAA==

> <PUBCHEM_IUPAC_OPENEYE_NAME>
1-hydroxy-6-methoxy-3-methyl-8-[(2S,3R,4S,5S,6R)-3,4,5-trihydroxy-6-[[(2R,3R,4S,5S,6R)-3,4,5-trihydroxy-6-(hydroxymethyl)tetrahydropyran-2-yl]oxymethyl]tetrahydropyran-2-yl]oxy-anthracene-9,10-dione

> <PUBCHEM_IUPAC_CAS_NAME>
1-hydroxy-6-methoxy-3-methyl-8-[[(2S,3R,4S,5S,6R)-3,4,5-trihydroxy-6-[[(2R,3R,4S,5S,6R)-3,4,5-trihydroxy-6-(hydroxymethyl)-2-oxanyl]oxymethyl]-2-oxanyl]oxy]anthracene-9,10-dione

> <PUBCHEM_IUPAC_NAME>
1-hydroxy-6-methoxy-3-methyl-8-[(2S,3R,4S,5S,6R)-3,4,5-trihydroxy-6-[[(2R,3R,4S,5S,6R)-3,4,5-trihydroxy-6-(hydroxymethyl)oxan-2-yl]oxymethyl]oxan-2-yl]oxyanthracene-9,10-dione

> <PUBCHEM_IUPAC_SYSTEMATIC_NAME>
1-[(2S,3R,4S,5S,6R)-6-[[(2R,3R,4S,5S,6R)-6-(hydroxymethyl)-3,4,5-tris(oxidanyl)oxan-2-yl]oxymethyl]-3,4,5-tris(oxidanyl)oxan-2-yl]oxy-3-methoxy-6-methyl-8-oxidanyl-anthracene-9,10-dione

> <PUBCHEM_IUPAC_TRADITIONAL_NAME>
1-hydroxy-6-methoxy-3-methyl-8-[(2S,3R,4S,5S,6R)-3,4,5-trihydroxy-6-[[(2R,3R,4S,5S,6R)-3,4,5-trihydroxy-6-methylol-tetrahydropyran-2-yl]oxymethyl]tetrahydropyran-2-yl]oxy-9,10-anthraquinone

> <PUBCHEM_IUPAC_INCHI>
InChI=1S/C28H32O15/c1-9-3-11-17(13(30)4-9)22(34)18-12(19(11)31)5-10(39-2)6-14(18)41-28-26(38)24(36)21(33)16(43-28)8-40-27-25(37)23(35)20(32)15(7-29)42-27/h3-6,15-16,20-21,23-30,32-33,35-38H,7-8H2,1-2H3/t15-,16-,20-,21-,23+,24+,25-,26-,27-,28-/m1/s1

> <PUBCHEM_IUPAC_INCHIKEY>
YMXXCMGLMRYEQD-BFTLVBKUSA-N

> <PUBCHEM_XLOGP3_AA>
-0.9

> <PUBCHEM_EXACT_MASS>
608.17412

> <PUBCHEM_MOLECULAR_FORMULA>
C28H32O15

> <PUBCHEM_MOLECULAR_WEIGHT>
608.54468

> <PUBCHEM_OPENEYE_CAN_SMILES>
CC1=CC(=C2C(=C1)C(=O)C3=CC(=CC(=C3C2=O)OC4C(C(C(C(O4)COC5C(C(C(C(O5)CO)O)O)O)O)O)O)OC)O

> <PUBCHEM_OPENEYE_ISO_SMILES>
CC1=CC(=C2C(=C1)C(=O)C3=CC(=CC(=C3C2=O)O[C@H]4[C@@H]([C@H]([C@@H]([C@H](O4)CO[C@H]5[C@@H]([C@H]([C@@H]([C@H](O5)CO)O)O)O)O)O)O)OC)O

> <PUBCHEM_CACTVS_TPSA>
242

> <PUBCHEM_MONOISOTOPIC_WEIGHT>
608.17412

> <PUBCHEM_TOTAL_CHARGE>
0

> <PUBCHEM_HEAVY_ATOM_COUNT>
43

> <PUBCHEM_ATOM_DEF_STEREO_COUNT>
10

> <PUBCHEM_ATOM_UDEF_STEREO_COUNT>
0

> <PUBCHEM_BOND_DEF_STEREO_COUNT>
0

> <PUBCHEM_BOND_UDEF_STEREO_COUNT>
0

> <PUBCHEM_ISOTOPIC_ATOM_COUNT>
0

> <PUBCHEM_COMPONENT_COUNT>
1

> <PUBCHEM_CACTVS_TAUTO_COUNT>
12

> <PUBCHEM_COORDINATE_TYPE>
1
5
255

> <PUBCHEM_BONDANNOTATIONS>
23  10  5
16  26  6
24  27  6
28  29  8
28  31  8
29  30  8
21  3  6
30  35  8
31  34  8
33  37  8
33  38  8
34  35  8
37  39  8
38  41  8
39  40  8
17  4  5
40  41  8
25  5  6
18  6  6
19  7  5
20  8  5
22  9  6

$$$$

