16682736
  -OEChem-07051213012D

 37 34  0     1  0  0  0  0  0999 V2000
    1.9856    2.8236    0.0000 Sb  0  0  3  0  0  0  0  0  0  0  0  0
    3.5368    5.1918    0.0000 Sb  0  0  3  0  0  0  0  0  0  0  0  0
    4.6449    0.0000    0.0000 K   0  3  0  0  0  0  0  0  0  0  0  0
    0.4197    7.6595    0.0000 K   0  3  0  0  0  0  0  0  0  0  0  0
    3.5891    4.1931    0.0000 O   0  0  0  0  0  0  0  0  0  0  0  0
    1.1766    3.4114    0.0000 O   0  0  0  0  0  0  0  0  0  0  0  0
    2.6458    5.6457    0.0000 O   0  0  0  0  0  0  0  0  0  0  0  0
    2.7287    2.1544    0.0000 O   0  0  0  0  0  0  0  0  0  0  0  0
    2.7946    3.4114    0.0000 O   0  0  0  0  0  0  0  0  0  0  0  0
    4.5318    5.0294    0.0000 O   0  0  0  0  0  0  0  0  0  0  0  0
    2.9239    5.2612    0.0000 O   0  0  0  0  0  0  0  0  0  0  0  0
    5.8162    3.8394    0.0000 O   0  0  0  0  0  0  0  0  0  0  0  0
    3.9954    0.7604    0.0000 O   0  5  0  0  0  0  0  0  0  0  0  0
    1.1615    6.9889    0.0000 O   0  5  0  0  0  0  0  0  0  0  0  0
    5.3125    1.8853    0.0000 O   0  0  0  0  0  0  0  0  0  0  0  0
    0.0000    5.7041    0.0000 O   0  0  0  0  0  0  0  0  0  0  0  0
    8.3552    3.5795    0.0000 O   0  0  0  0  0  0  0  0  0  0  0  0
    8.3552    6.0820    0.0000 O   0  0  0  0  0  0  0  0  0  0  0  0
    2.9081    9.6616    0.0000 O   0  0  0  0  0  0  0  0  0  0  0  0
    4.1338    3.3545    0.0000 C   0  0  3  0  0  0  0  0  0  0  0  0
    1.4856    4.3624    0.0000 C   0  0  3  0  0  0  0  0  0  0  0  0
    1.6935    5.3406    0.0000 C   0  0  3  0  0  0  0  0  0  0  0  0
    3.6798    2.4634    0.0000 C   0  0  3  0  0  0  0  0  0  0  0  0
    2.4856    4.3624    0.0000 C   0  0  0  0  0  0  0  0  0  0  0  0
    4.8433    4.0706    0.0000 C   0  0  0  0  0  0  0  0  0  0  0  0
    4.3292    1.7030    0.0000 C   0  0  0  0  0  0  0  0  0  0  0  0
    0.9517    6.0112    0.0000 C   0  0  0  0  0  0  0  0  0  0  0  0
    0.8867    4.5229    0.0000 H   0  0  0  0  0  0  0  0  0  0  0  0
    4.6362    2.9912    0.0000 H   0  0  0  0  0  0  0  0  0  0  0  0
    3.5115    1.8667    0.0000 H   0  0  0  0  0  0  0  0  0  0  0  0
    1.8242    5.9466    0.0000 H   0  0  0  0  0  0  0  0  0  0  0  0
    3.4450    9.9716    0.0000 H   0  0  0  0  0  0  0  0  0  0  0  0
    2.3712    9.9716    0.0000 H   0  0  0  0  0  0  0  0  0  0  0  0
    8.8921    6.3920    0.0000 H   0  0  0  0  0  0  0  0  0  0  0  0
    7.8182    6.3920    0.0000 H   0  0  0  0  0  0  0  0  0  0  0  0
    8.8921    3.8895    0.0000 H   0  0  0  0  0  0  0  0  0  0  0  0
    7.8182    3.8895    0.0000 H   0  0  0  0  0  0  0  0  0  0  0  0
  1  6  1  0  0  0  0
  1  8  1  0  0  0  0
  1  9  1  0  0  0  0
  2  5  1  0  0  0  0
  2  7  1  0  0  0  0
  2 10  1  0  0  0  0
  5 20  1  0  0  0  0
  6 21  1  0  0  0  0
  7 22  1  0  0  0  0
  8 23  1  0  0  0  0
  9 24  1  0  0  0  0
 10 25  1  0  0  0  0
 11 24  2  0  0  0  0
 12 25  2  0  0  0  0
 13 26  1  0  0  0  0
 14 27  1  0  0  0  0
 15 26  2  0  0  0  0
 16 27  2  0  0  0  0
 17 36  1  0  0  0  0
 17 37  1  0  0  0  0
 18 34  1  0  0  0  0
 18 35  1  0  0  0  0
 19 32  1  0  0  0  0
 19 33  1  0  0  0  0
 20 23  1  0  0  0  0
 20 25  1  0  0  0  0
 20 29  1  0  0  0  0
 21 22  1  0  0  0  0
 21 24  1  0  0  0  0
 21 28  1  0  0  0  0
 22 27  1  0  0  0  0
 22 31  1  0  0  0  0
 23 26  1  0  0  0  0
 23 30  1  0  0  0  0
M  CHG  4   3   1   4   1  13  -1  14  -1
M  END
> <PUBCHEM_COMPOUND_CID>
16682736

> <PUBCHEM_COMPOUND_CANONICALIZED>
1

> <PUBCHEM_CACTVS_COMPLEXITY>
490

> <PUBCHEM_CACTVS_HBOND_ACCEPTOR>
15

> <PUBCHEM_CACTVS_HBOND_DONOR>
3

> <PUBCHEM_CACTVS_ROTATABLE_BOND>
0

> <PUBCHEM_CACTVS_SUBSKEYS>
AAADccBwPAAAYAAAAABAAAAAAAAAASJAAAAAAAAAAAAAAACQAAAAGgAACAAACBSggAIACAAAAAAIAACQCAIAAAAAAAAAAAFAAAABABQAAAAAAAAFIAAAAABDAAAAAAAAAAAAAAAAAAAAAAAAAAAAAAAAAA==

> <PUBCHEM_IUPAC_INCHI>
InChI=1S/2C4H4O6.2K.3H2O.2Sb/c2*5-1(3(7)8)2(6)4(9)10;;;;;;;/h2*1-2H,(H,7,8)(H,9,10);;;3*1H2;;/q2*-2;2*+1;;;;2*+3/p-4

> <PUBCHEM_IUPAC_INCHIKEY>
WBTCZEPSIIFINA-UHFFFAOYSA-J

> <PUBCHEM_EXACT_MASS>
667.737413

> <PUBCHEM_MOLECULAR_FORMULA>
C8H10K2O15Sb2

> <PUBCHEM_MOLECULAR_WEIGHT>
667.8726

> <PUBCHEM_OPENEYE_CAN_SMILES>
C12C(O[Sb]3OC(C(O[Sb](O1)OC2=O)C(=O)[O-])C(=O)O3)C(=O)[O-].O.O.O.[K+].[K+]

> <PUBCHEM_OPENEYE_ISO_SMILES>
C12C(O[Sb]3OC(C(O[Sb](O1)OC2=O)C(=O)[O-])C(=O)O3)C(=O)[O-].O.O.O.[K+].[K+]

> <PUBCHEM_CACTVS_TPSA>
173

> <PUBCHEM_MONOISOTOPIC_WEIGHT>
665.737014

> <PUBCHEM_TOTAL_CHARGE>
0

> <PUBCHEM_HEAVY_ATOM_COUNT>
27

> <PUBCHEM_ATOM_DEF_STEREO_COUNT>
0

> <PUBCHEM_ATOM_UDEF_STEREO_COUNT>
4

> <PUBCHEM_BOND_DEF_STEREO_COUNT>
0

> <PUBCHEM_BOND_UDEF_STEREO_COUNT>
0

> <PUBCHEM_ISOTOPIC_ATOM_COUNT>
0

> <PUBCHEM_COMPONENT_COUNT>
6

> <PUBCHEM_CACTVS_TAUTO_COUNT>
1

> <PUBCHEM_COORDINATE_TYPE>
1
5
255

> <PUBCHEM_BONDANNOTATIONS>
20  25  3
21  24  3
22  27  3
23  26  3

$$$$

