   Color/Form
        Colorless, oily, mobile liq
   from [1]HSDB

   Odor

     * Slight peppermint odor
     * CHARACTERISTIC ODOR SIMILAR TO MENTHOL

   from [2]HSDB

   Taste
        Bitter
   from [3]HSDB

   Boiling Point
        210 deg C
   from [4]HSDB

   Solubilities

     * Sol in alc, fixed oils; very slightly sol in water.
     * SOL IN MOST COMMON ORG SOLVENTS
     * In water, 688 mg/l @ 25 deg C

   from [5]HSDB

   Spectral Properties
        INDEX OF REFRACTION: 1.4480-1.4520 @ 20 DEG C; SPECIFIC OPTICAL
   ROTATION: + OR - 2 DEG /DL-FORM/
   from [6]HSDB

   Other Chemical/Physical Properties

     * BP: 207 deg C, 116-119 deg C @ 41 mm Hg; MP: -6 deg C; Density:
       0.895 @ 20 deg C/4 deg C /L-form/
     * SPECIFIC OPTICAL ROTATION +24.85 DEG @ 18 DEG C/D; MAX ABSORPTION
       (ALC): 236 NM (LOG E= 1.40); 287 NM (LOG E= 1.38); BP: 204 DEG C @
       750 MM HG; DENSITY: 0.8963 @ 20 DEG C/20 DEG C; INDEX OF
       REFRACTION: 1.4503 @ 20 DEG C /D-FORM/
     * SADTLER REF NUMBER: 5190 (IR, PRISM)
     * MAX ABSORPTION (HEXANE): 293 NM (LOG E+ 1.3) /L-FORM/
     * COLORLESS LIQUID /OPTICALLY ACTIVE FORM/
     * Slightly sol in water; sol in org solvents /L-form/
     * SOL IN ALC, ETHER, ACETONE, ACETIC ACID, ALL PROP IN BENZENE;
       SLIGHTLY SOL IN WATER /D & DL-FORMS/
     * SOL IN ALL PROP IN ALC, ETHER, CARBON DISULFIDE /L-FORM/
     * SOL IN ACETONE /L-FORM/
     * Index of refraction: 1.4505 @ 20 deg C; 1.4490 @ 23 deg C; Specific
       optical rotation: -24.8 deg @ 20 deg C/D; -28.9 Deg @ 27 deg C/D
       /L-form/

   from [7]HSDB

   Computed Properties
   Molecular Weight                  154.24932 [g/mol]
   Molecular Formula                 C[10]H[18]O
   XLogP3-AA                         2.7
   H-Bond Donor                      0
   H-Bond Acceptor                   1
   Rotatable Bond Count              1
   Tautomer Count                    3
   Exact Mass                        154.135765
   MonoIsotopic Mass                 154.135765
   Topological Polar Surface Area    17.1
   Heavy Atom Count                  11
   Formal Charge                     0
   Complexity                        149
   Isotope Atom Count                0
   Defined Atom Stereocenter Count   2
   Undefined Atom Stereocenter Count 0
   Defined Bond Stereocenter Count   0
   Undefined Bond Stereocenter Count 0
   Covalently-Bonded Unit Count      1
   Feature 3D Acceptor Count         1
   Feature 3D Hydrophobe Count       1
   Feature 3D Ring Count             1
   Effective Rotor Count             2
   Conformer Sampling RMSD           0.4
   CID Conformer Count               [8]12

References

   1. http://toxnet.nlm.nih.gov/cgi-bin/sis/search/r?dbs+hsdb:@term+@rn+@rel+89-80-5
   2. http://toxnet.nlm.nih.gov/cgi-bin/sis/search/r?dbs+hsdb:@term+@rn+@rel+89-80-5
   3. http://toxnet.nlm.nih.gov/cgi-bin/sis/search/r?dbs+hsdb:@term+@rn+@rel+89-80-5
   4. http://toxnet.nlm.nih.gov/cgi-bin/sis/search/r?dbs+hsdb:@term+@rn+@rel+89-80-5
   5. http://toxnet.nlm.nih.gov/cgi-bin/sis/search/r?dbs+hsdb:@term+@rn+@rel+89-80-5
   6. http://toxnet.nlm.nih.gov/cgi-bin/sis/search/r?dbs+hsdb:@term+@rn+@rel+89-80-5
   7. http://toxnet.nlm.nih.gov/cgi-bin/sis/search/r?dbs+hsdb:@term+@rn+@rel+89-80-5
   8. http://pubchem.ncbi.nlm.nih.gov/vw3d/vw3d.cgi?cid=26447
