223527
  -OEChem-07051213072D

 61 64  0     1  0  0  0  0  0999 V2000
   10.3820    1.5983    0.0000 O   0  0  0  0  0  0  0  0  0  0  0  0
    3.7320   -2.7092    0.0000 O   0  0  0  0  0  0  0  0  0  0  0  0
   12.0284    1.0603    0.0000 O   0  0  0  0  0  0  0  0  0  0  0  0
    2.8718   -1.2059    0.0000 O   0  0  0  0  0  0  0  0  0  0  0  0
    9.1251   -0.6569    0.0000 C   0  0  2  0  0  0  0  0  0  0  0  0
    9.1251    0.3431    0.0000 C   0  0  2  0  0  0  0  0  0  0  0  0
    8.2591   -1.1569    0.0000 C   0  0  1  0  0  0  0  0  0  0  0  0
    7.3931   -0.6569    0.0000 C   0  0  1  0  0  0  0  0  0  0  0  0
    6.4831   -1.1638    0.0000 C   0  0  2  0  0  0  0  0  0  0  0  0
    8.2591    0.8431    0.0000 C   0  0  0  0  0  0  0  0  0  0  0  0
    7.3931    0.3431    0.0000 C   0  0  0  0  0  0  0  0  0  0  0  0
   10.0713    0.6478    0.0000 C   0  0  2  0  0  0  0  0  0  0  0  0
   10.0713   -0.9616    0.0000 C   0  0  0  0  0  0  0  0  0  0  0  0
    8.2752   -2.1984    0.0000 C   0  0  0  0  0  0  0  0  0  0  0  0
   10.6550   -0.1569    0.0000 C   0  0  0  0  0  0  0  0  0  0  0  0
    6.4750   -2.2054    0.0000 C   0  0  0  0  0  0  0  0  0  0  0  0
    7.3771   -2.7262    0.0000 C   0  0  0  0  0  0  0  0  0  0  0  0
    9.1251    1.3431    0.0000 C   0  0  0  0  0  0  0  0  0  0  0  0
    5.5562   -0.5997    0.0000 C   0  0  0  0  0  0  0  0  0  0  0  0
    6.4908   -0.1638    0.0000 C   0  0  0  0  0  0  0  0  0  0  0  0
    4.6084   -1.1276    0.0000 C   0  0  0  0  0  0  0  0  0  0  0  0
    5.5396   -2.7551    0.0000 C   0  0  0  0  0  0  0  0  0  0  0  0
    4.6000   -2.2126    0.0000 C   0  0  2  0  0  0  0  0  0  0  0  0
   11.3605    1.8046    0.0000 C   0  0  0  0  0  0  0  0  0  0  0  0
   11.6712    2.7551    0.0000 C   0  0  0  0  0  0  0  0  0  0  0  0
    2.8680   -2.2059    0.0000 C   0  0  0  0  0  0  0  0  0  0  0  0
    2.0000   -2.7026    0.0000 C   0  0  0  0  0  0  0  0  0  0  0  0
    9.2151   -1.5021    0.0000 H   0  0  0  0  0  0  0  0  0  0  0  0
    8.9985   -1.5762    0.0000 H   0  0  0  0  0  0  0  0  0  0  0  0
    8.1292   -0.2319    0.0000 H   0  0  0  0  0  0  0  0  0  0  0  0
    8.6576    1.3180    0.0000 H   0  0  0  0  0  0  0  0  0  0  0  0
    7.8606    1.3180    0.0000 H   0  0  0  0  0  0  0  0  0  0  0  0
    7.1810    0.9257    0.0000 H   0  0  0  0  0  0  0  0  0  0  0  0
    6.7825    0.2354    0.0000 H   0  0  0  0  0  0  0  0  0  0  0  0
    9.6339    1.0872    0.0000 H   0  0  0  0  0  0  0  0  0  0  0  0
    9.8203   -1.5286    0.0000 H   0  0  0  0  0  0  0  0  0  0  0  0
   10.6087   -1.2709    0.0000 H   0  0  0  0  0  0  0  0  0  0  0  0
    8.4932   -2.7788    0.0000 H   0  0  0  0  0  0  0  0  0  0  0  0
    8.8843   -2.0829    0.0000 H   0  0  0  0  0  0  0  0  0  0  0  0
   11.1158   -0.5716    0.0000 H   0  0  0  0  0  0  0  0  0  0  0  0
   11.1158    0.2578    0.0000 H   0  0  0  0  0  0  0  0  0  0  0  0
    6.9798   -3.2021    0.0000 H   0  0  0  0  0  0  0  0  0  0  0  0
    7.7781   -3.1991    0.0000 H   0  0  0  0  0  0  0  0  0  0  0  0
    9.7451    1.3431    0.0000 H   0  0  0  0  0  0  0  0  0  0  0  0
    9.1251    1.9631    0.0000 H   0  0  0  0  0  0  0  0  0  0  0  0
    8.5051    1.3431    0.0000 H   0  0  0  0  0  0  0  0  0  0  0  0
    5.9644   -0.1330    0.0000 H   0  0  0  0  0  0  0  0  0  0  0  0
    5.1663   -0.1176    0.0000 H   0  0  0  0  0  0  0  0  0  0  0  0
    7.1108   -0.1686    0.0000 H   0  0  0  0  0  0  0  0  0  0  0  0
    6.4956    0.4562    0.0000 H   0  0  0  0  0  0  0  0  0  0  0  0
    5.8708   -0.1590    0.0000 H   0  0  0  0  0  0  0  0  0  0  0  0
    4.4038   -0.5423    0.0000 H   0  0  0  0  0  0  0  0  0  0  0  0
    3.9967   -1.2290    0.0000 H   0  0  0  0  0  0  0  0  0  0  0  0
    5.5420   -3.3751    0.0000 H   0  0  0  0  0  0  0  0  0  0  0  0
    4.0648   -1.8995    0.0000 H   0  0  0  0  0  0  0  0  0  0  0  0
   12.2605    2.5625    0.0000 H   0  0  0  0  0  0  0  0  0  0  0  0
   11.8638    3.3444    0.0000 H   0  0  0  0  0  0  0  0  0  0  0  0
   11.0818    2.9477    0.0000 H   0  0  0  0  0  0  0  0  0  0  0  0
    1.6921   -2.1644    0.0000 H   0  0  0  0  0  0  0  0  0  0  0  0
    1.4619   -3.0105    0.0000 H   0  0  0  0  0  0  0  0  0  0  0  0
    2.3079   -3.2407    0.0000 H   0  0  0  0  0  0  0  0  0  0  0  0
 12  1  1  1  0  0  0
  1 24  1  0  0  0  0
 23  2  1  6  0  0  0
  2 26  1  0  0  0  0
  3 24  2  0  0  0  0
  4 26  2  0  0  0  0
  5  6  1  0  0  0  0
  5  7  1  0  0  0  0
  5 13  1  0  0  0  0
  5 28  1  6  0  0  0
  6 10  1  0  0  0  0
  6 12  1  0  0  0  0
  6 18  1  1  0  0  0
  7  8  1  0  0  0  0
  7 14  1  0  0  0  0
  7 29  1  1  0  0  0
  8  9  1  0  0  0  0
  8 11  1  0  0  0  0
  8 30  1  6  0  0  0
  9 16  1  0  0  0  0
  9 19  1  0  0  0  0
  9 20  1  1  0  0  0
 10 11  1  0  0  0  0
 10 31  1  0  0  0  0
 10 32  1  0  0  0  0
 11 33  1  0  0  0  0
 11 34  1  0  0  0  0
 12 15  1  0  0  0  0
 12 35  1  0  0  0  0
 13 15  1  0  0  0  0
 13 36  1  0  0  0  0
 13 37  1  0  0  0  0
 14 17  1  0  0  0  0
 14 38  1  0  0  0  0
 14 39  1  0  0  0  0
 15 40  1  0  0  0  0
 15 41  1  0  0  0  0
 16 17  1  0  0  0  0
 16 22  2  0  0  0  0
 17 42  1  0  0  0  0
 17 43  1  0  0  0  0
 18 44  1  0  0  0  0
 18 45  1  0  0  0  0
 18 46  1  0  0  0  0
 19 21  1  0  0  0  0
 19 47  1  0  0  0  0
 19 48  1  0  0  0  0
 20 49  1  0  0  0  0
 20 50  1  0  0  0  0
 20 51  1  0  0  0  0
 21 23  1  0  0  0  0
 21 52  1  0  0  0  0
 21 53  1  0  0  0  0
 22 23  1  0  0  0  0
 22 54  1  0  0  0  0
 23 55  1  0  0  0  0
 24 25  1  0  0  0  0
 25 56  1  0  0  0  0
 25 57  1  0  0  0  0
 25 58  1  0  0  0  0
 26 27  1  0  0  0  0
 27 59  1  0  0  0  0
 27 60  1  0  0  0  0
 27 61  1  0  0  0  0
M  END
> <PUBCHEM_COMPOUND_CID>
223527

> <PUBCHEM_COMPOUND_CANONICALIZED>
1

> <PUBCHEM_CACTVS_COMPLEXITY>
667

> <PUBCHEM_CACTVS_HBOND_ACCEPTOR>
4

> <PUBCHEM_CACTVS_HBOND_DONOR>
0

> <PUBCHEM_CACTVS_ROTATABLE_BOND>
4

> <PUBCHEM_CACTVS_SUBSKEYS>
AAADcfB4OAAAAAAAAAAAAAAAAAAAAYAAAAAwYIAAAAAAAGDAAAAAGgAAAAAADxSggAICCAAABACIAiDSCAAAAAAgAAAACAAAAAgABAIAIQACEAAEgAAIIAOAwPAPgAAAAAAAAACAAAQAACAAAIAADAAAAA==

> <PUBCHEM_IUPAC_OPENEYE_NAME>
[(3R,8R,9S,10R,13S,14S,17S)-17-acetoxy-10,13-dimethyl-2,3,6,7,8,9,11,12,14,15,16,17-dodecahydro-1H-cyclopenta[a]phenanthren-3-yl] acetate

> <PUBCHEM_IUPAC_CAS_NAME>
acetic acid [(3R,8R,9S,10R,13S,14S,17S)-17-acetyloxy-10,13-dimethyl-2,3,6,7,8,9,11,12,14,15,16,17-dodecahydro-1H-cyclopenta[a]phenanthren-3-yl] ester

> <PUBCHEM_IUPAC_NAME>
[(3R,8R,9S,10R,13S,14S,17S)-17-acetyloxy-10,13-dimethyl-2,3,6,7,8,9,11,12,14,15,16,17-dodecahydro-1H-cyclopenta[a]phenanthren-3-yl] acetate

> <PUBCHEM_IUPAC_SYSTEMATIC_NAME>
[(3R,8R,9S,10R,13S,14S,17S)-17-acetyloxy-10,13-dimethyl-2,3,6,7,8,9,11,12,14,15,16,17-dodecahydro-1H-cyclopenta[a]phenanthren-3-yl] ethanoate

> <PUBCHEM_IUPAC_TRADITIONAL_NAME>
acetic acid [(3R,8R,9S,10R,13S,14S,17S)-17-acetoxy-10,13-dimethyl-2,3,6,7,8,9,11,12,14,15,16,17-dodecahydro-1H-cyclopenta[a]phenanthren-3-yl] ester

> <PUBCHEM_IUPAC_INCHI>
InChI=1S/C23H34O4/c1-14(24)26-17-9-11-22(3)16(13-17)5-6-18-19-7-8-21(27-15(2)25)23(19,4)12-10-20(18)22/h13,17-21H,5-12H2,1-4H3/t17-,18+,19+,20+,21+,22+,23+/m1/s1

> <PUBCHEM_IUPAC_INCHIKEY>
FKDRTPPOFBKQAT-KVWWBZGASA-N

> <PUBCHEM_XLOGP3_AA>
4.6

> <PUBCHEM_EXACT_MASS>
374.24571

> <PUBCHEM_MOLECULAR_FORMULA>
C23H34O4

> <PUBCHEM_MOLECULAR_WEIGHT>
374.51366

> <PUBCHEM_OPENEYE_CAN_SMILES>
CC(=O)OC1CCC2(C3CCC4(C(C3CCC2=C1)CCC4OC(=O)C)C)C

> <PUBCHEM_OPENEYE_ISO_SMILES>
CC(=O)O[C@@H]1CC[C@@]2([C@H]3CC[C@]4([C@H]([C@@H]3CCC2=C1)CC[C@@H]4OC(=O)C)C)C

> <PUBCHEM_CACTVS_TPSA>
52.6

> <PUBCHEM_MONOISOTOPIC_WEIGHT>
374.24571

> <PUBCHEM_TOTAL_CHARGE>
0

> <PUBCHEM_HEAVY_ATOM_COUNT>
27

> <PUBCHEM_ATOM_DEF_STEREO_COUNT>
7

> <PUBCHEM_ATOM_UDEF_STEREO_COUNT>
0

> <PUBCHEM_BOND_DEF_STEREO_COUNT>
0

> <PUBCHEM_BOND_UDEF_STEREO_COUNT>
0

> <PUBCHEM_ISOTOPIC_ATOM_COUNT>
0

> <PUBCHEM_COMPONENT_COUNT>
1

> <PUBCHEM_CACTVS_TAUTO_COUNT>
1

> <PUBCHEM_COORDINATE_TYPE>
1
5
255

> <PUBCHEM_BONDANNOTATIONS>
12  1  5
23  2  6
5  28  6
6  18  5
7  29  5
8  30  6
9  20  5

$$$$

