   Boiling Point
        DECOMP AT BP OF 245 DEG C
   from [1]HSDB

   Melting Point
        84 DEG C
   from [2]HSDB

   Dissociation Constants
        PKA: 4.05
   from [3]HSDB

   Solubilities

     * SOL IN WATER, ALCOHOL, & ACETONE
     * INSOL IN ETHER & CHLOROFORM

   from [4]HSDB

   Other Chemical/Physical Properties

     * HYGROSCOPIC
     * TABLETS (WATER + 1)
     * CRYSTALS /MONOHYDRATE/
     * SOL IN WATER, & ALCOHOL; INSOL IN ETHER & CHLOROFORM /MONOHYDRATE/

   from [5]HSDB

   Computed Properties
   Molecular Weight                  140.11516 [g/mol]
   Molecular Formula                 C[2]H[4]O[5]S
   XLogP3-AA                         -1.3
   H-Bond Donor                      2
   H-Bond Acceptor                   5
   Rotatable Bond Count              2
   Exact Mass                        139.977944
   MonoIsotopic Mass                 139.977944
   Topological Polar Surface Area    100
   Heavy Atom Count                  8
   Formal Charge                     0
   Complexity                        171
   Isotope Atom Count                0
   Defined Atom Stereocenter Count   0
   Undefined Atom Stereocenter Count 0
   Defined Bond Stereocenter Count   0
   Undefined Bond Stereocenter Count 0
   Covalently-Bonded Unit Count      1
   Feature 3D Acceptor Count         5
   Feature 3D Anion Count            2
   Effective Rotor Count             2
   Conformer Sampling RMSD           0.4
   CID Conformer Count               [6]3

References

   1. http://toxnet.nlm.nih.gov/cgi-bin/sis/search/r?dbs+hsdb:@term+@rn+@rel+123-43-3
   2. http://toxnet.nlm.nih.gov/cgi-bin/sis/search/r?dbs+hsdb:@term+@rn+@rel+123-43-3
   3. http://toxnet.nlm.nih.gov/cgi-bin/sis/search/r?dbs+hsdb:@term+@rn+@rel+123-43-3
   4. http://toxnet.nlm.nih.gov/cgi-bin/sis/search/r?dbs+hsdb:@term+@rn+@rel+123-43-3
   5. http://toxnet.nlm.nih.gov/cgi-bin/sis/search/r?dbs+hsdb:@term+@rn+@rel+123-43-3
   6. http://pubchem.ncbi.nlm.nih.gov/vw3d/vw3d.cgi?cid=31257
