12308614
  -OEChem-07051213102D

 38 40  0     1  0  0  0  0  0999 V2000
    3.0291   -2.1265    0.0000 O   0  0  0  0  0  0  0  0  0  0  0  0
    4.5772   -0.0641    0.0000 C   0  0  3  0  0  0  0  0  0  0  0  0
    4.6841    1.1126    0.0000 C   0  0  0  0  0  0  0  0  0  0  0  0
    4.0772    2.1265    0.0000 C   0  0  3  0  0  0  0  0  0  0  0  0
    5.4782    0.3697    0.0000 C   0  0  3  0  0  0  0  0  0  0  0  0
    3.6763    0.3697    0.0000 C   0  0  0  0  0  0  0  0  0  0  0  0
    3.4538    1.3447    0.0000 C   0  0  0  0  0  0  0  0  0  0  0  0
    5.0772    2.1265    0.0000 C   0  0  0  0  0  0  0  0  0  0  0  0
    4.4413   -1.0489    0.0000 C   0  0  0  0  0  0  0  0  0  0  0  0
    5.7007    1.3447    0.0000 C   0  0  0  0  0  0  0  0  0  0  0  0
    5.5796    1.8341    0.0000 C   0  0  0  0  0  0  0  0  0  0  0  0
    5.8040    0.8511    0.0000 C   0  0  0  0  0  0  0  0  0  0  0  0
    2.9912   -0.3506    0.0000 C   0  0  0  0  0  0  0  0  0  0  0  0
    3.4630   -1.2255    0.0000 C   0  0  0  0  0  0  0  0  0  0  0  0
    6.2600   -0.2537    0.0000 C   0  0  0  0  0  0  0  0  0  0  0  0
    2.0000   -0.2180    0.0000 C   0  0  0  0  0  0  0  0  0  0  0  0
    3.8082    2.6851    0.0000 H   0  0  0  0  0  0  0  0  0  0  0  0
    5.4088   -0.2464    0.0000 H   0  0  0  0  0  0  0  0  0  0  0  0
    3.0672    1.8294    0.0000 H   0  0  0  0  0  0  0  0  0  0  0  0
    2.8952    1.0757    0.0000 H   0  0  0  0  0  0  0  0  0  0  0  0
    5.6358    2.3955    0.0000 H   0  0  0  0  0  0  0  0  0  0  0  0
    4.9393    2.7310    0.0000 H   0  0  0  0  0  0  0  0  0  0  0  0
    4.4867   -1.6672    0.0000 H   0  0  0  0  0  0  0  0  0  0  0  0
    5.0609   -1.0687    0.0000 H   0  0  0  0  0  0  0  0  0  0  0  0
    6.2593    1.0757    0.0000 H   0  0  0  0  0  0  0  0  0  0  0  0
    6.0873    1.8294    0.0000 H   0  0  0  0  0  0  0  0  0  0  0  0
    5.6630    0.2474    0.0000 H   0  0  0  0  0  0  0  0  0  0  0  0
    6.4077    0.7102    0.0000 H   0  0  0  0  0  0  0  0  0  0  0  0
    5.9450    1.4549    0.0000 H   0  0  0  0  0  0  0  0  0  0  0  0
    5.9686    1.3513    0.0000 H   0  0  0  0  0  0  0  0  0  0  0  0
    6.0624    2.2231    0.0000 H   0  0  0  0  0  0  0  0  0  0  0  0
    5.1906    2.3169    0.0000 H   0  0  0  0  0  0  0  0  0  0  0  0
    5.8735   -0.7385    0.0000 H   0  0  0  0  0  0  0  0  0  0  0  0
    6.7448   -0.6403    0.0000 H   0  0  0  0  0  0  0  0  0  0  0  0
    6.6466    0.2310    0.0000 H   0  0  0  0  0  0  0  0  0  0  0  0
    2.0822    0.3965    0.0000 H   0  0  0  0  0  0  0  0  0  0  0  0
    1.3855   -0.1359    0.0000 H   0  0  0  0  0  0  0  0  0  0  0  0
    1.9178   -0.8326    0.0000 H   0  0  0  0  0  0  0  0  0  0  0  0
  1 14  2  0  0  0  0
  2  3  1  0  0  0  0
  2  5  1  0  0  0  0
  2  6  1  0  0  0  0
  2  9  1  0  0  0  0
  3  4  1  0  0  0  0
  3 11  1  0  0  0  0
  3 12  1  0  0  0  0
  4  7  1  0  0  0  0
  4  8  1  0  0  0  0
  4 17  1  0  0  0  0
  5 10  1  0  0  0  0
  5 15  1  0  0  0  0
  5 18  1  0  0  0  0
  6  7  1  0  0  0  0
  6 13  2  0  0  0  0
  7 19  1  0  0  0  0
  7 20  1  0  0  0  0
  8 10  1  0  0  0  0
  8 21  1  0  0  0  0
  8 22  1  0  0  0  0
  9 14  1  0  0  0  0
  9 23  1  0  0  0  0
  9 24  1  0  0  0  0
 10 25  1  0  0  0  0
 10 26  1  0  0  0  0
 11 30  1  0  0  0  0
 11 31  1  0  0  0  0
 11 32  1  0  0  0  0
 12 27  1  0  0  0  0
 12 28  1  0  0  0  0
 12 29  1  0  0  0  0
 13 14  1  0  0  0  0
 13 16  1  0  0  0  0
 15 33  1  0  0  0  0
 15 34  1  0  0  0  0
 15 35  1  0  0  0  0
 16 36  1  0  0  0  0
 16 37  1  0  0  0  0
 16 38  1  0  0  0  0
M  END
> <PUBCHEM_COMPOUND_CID>
12308614

> <PUBCHEM_COMPOUND_CANONICALIZED>
1

> <PUBCHEM_CACTVS_COMPLEXITY>
402

> <PUBCHEM_CACTVS_HBOND_ACCEPTOR>
1

> <PUBCHEM_CACTVS_HBOND_DONOR>
0

> <PUBCHEM_CACTVS_ROTATABLE_BOND>
0

> <PUBCHEM_CACTVS_SUBSKEYS>
AAADceBwIAAAAAAAAAAAAAAAAAAAAYIAAAAwAAAABgAQAACAAAAAGgAAAAAADwSAgAACAAAAAACIAoBQAAAAAAAgAAAACAEAAEgAABIAAAAAAAAAgAAIAQMIiMCPgAAAAAAAAACAAAQAACAAAQAACAAAAA==

> <PUBCHEM_IUPAC_INCHI>
InChI=1S/C15H22O/c1-9-5-6-11-7-12-10(2)13(16)8-15(9,12)14(11,3)4/h9,11H,5-8H2,1-4H3

> <PUBCHEM_IUPAC_INCHIKEY>
GIGKXOAUYMWORB-UHFFFAOYSA-N

> <PUBCHEM_XLOGP3_AA>
3.4

> <PUBCHEM_EXACT_MASS>
218.167065

> <PUBCHEM_MOLECULAR_FORMULA>
C15H22O

> <PUBCHEM_MOLECULAR_WEIGHT>
218.33458

> <PUBCHEM_OPENEYE_CAN_SMILES>
CC1CCC2CC3=C(C(=O)CC13C2(C)C)C

> <PUBCHEM_OPENEYE_ISO_SMILES>
CC1CCC2CC3=C(C(=O)CC13C2(C)C)C

> <PUBCHEM_CACTVS_TPSA>
17.1

> <PUBCHEM_MONOISOTOPIC_WEIGHT>
218.167065

> <PUBCHEM_TOTAL_CHARGE>
0

> <PUBCHEM_HEAVY_ATOM_COUNT>
16

> <PUBCHEM_ATOM_DEF_STEREO_COUNT>
0

> <PUBCHEM_ATOM_UDEF_STEREO_COUNT>
3

> <PUBCHEM_BOND_DEF_STEREO_COUNT>
0

> <PUBCHEM_BOND_UDEF_STEREO_COUNT>
0

> <PUBCHEM_ISOTOPIC_ATOM_COUNT>
0

> <PUBCHEM_COMPONENT_COUNT>
1

> <PUBCHEM_CACTVS_TAUTO_COUNT>
5

> <PUBCHEM_COORDINATE_TYPE>
1
5
255

> <PUBCHEM_BONDANNOTATIONS>
2  3  3
4  3  3
5  15  3

$$$$

