   Color/Form

     * COLORLESS CRYSTALLINE POWDER
     * Pale yellow to brownish crystals

   from [1]HSDB

   Odor
        Faint aromatic odor
   from [2]HSDB

   Melting Point
        66-67 DEG C
   from [3]HSDB

   Density/Specific Gravity
        1.2307 @ 20 DEG C/4 DEG C
   from [4]HSDB

   Octanol/Water Partition Coefficient
        log Kow= 4.75 (est)
   from [5]HSDB

   Solubilities

     * Insoluble in water but soluble in organic solvents as follows:
       acetone 78%; ethanol 11%; isophorone 57%; kerosene 10%; xylene 70%
     * Sol in: 400 mg/l hexane; greater than 500 g/l dichloromethane,
       ethyl acetate, toluene; 21 g/l methanol
     * Sol in 75% methylene chloride

   from [6]HSDB

   Vapor Pressure
        13 mPa at 60 deg C
   from [7]HSDB

   Other Chemical/Physical Properties
        VAPOR PRESSURE: 1X10-4 MM HG @ 60 DEG C
   from [8]HSDB

   Computed Properties
   Molecular Weight                  322.31322 [g/mol]
   Molecular Formula                 C[15]H[18]N[2]O[6]
   XLogP3                            4.6
   H-Bond Donor                      0
   H-Bond Acceptor                   6
   Rotatable Bond Count              5
   Exact Mass                        322.116486
   MonoIsotopic Mass                 322.116486
   Topological Polar Surface Area    118
   Heavy Atom Count                  23
   Formal Charge                     0
   Complexity                        489
   Isotope Atom Count                0
   Defined Atom Stereocenter Count   0
   Undefined Atom Stereocenter Count 1
   Defined Bond Stereocenter Count   0
   Undefined Bond Stereocenter Count 0
   Covalently-Bonded Unit Count      1
   Feature 3D Acceptor Count         5
   Feature 3D Anion Count            2
   Feature 3D Hydrophobe Count       3
   Feature 3D Ring Count             1
   Effective Rotor Count             7
   Conformer Sampling RMSD           0.8
   CID Conformer Count               [9]24

References

   1. http://toxnet.nlm.nih.gov/cgi-bin/sis/search/r?dbs+hsdb:@term+@rn+@rel+485-31-4
   2. http://toxnet.nlm.nih.gov/cgi-bin/sis/search/r?dbs+hsdb:@term+@rn+@rel+485-31-4
   3. http://toxnet.nlm.nih.gov/cgi-bin/sis/search/r?dbs+hsdb:@term+@rn+@rel+485-31-4
   4. http://toxnet.nlm.nih.gov/cgi-bin/sis/search/r?dbs+hsdb:@term+@rn+@rel+485-31-4
   5. http://toxnet.nlm.nih.gov/cgi-bin/sis/search/r?dbs+hsdb:@term+@rn+@rel+485-31-4
   6. http://toxnet.nlm.nih.gov/cgi-bin/sis/search/r?dbs+hsdb:@term+@rn+@rel+485-31-4
   7. http://toxnet.nlm.nih.gov/cgi-bin/sis/search/r?dbs+hsdb:@term+@rn+@rel+485-31-4
   8. http://toxnet.nlm.nih.gov/cgi-bin/sis/search/r?dbs+hsdb:@term+@rn+@rel+485-31-4
   9. http://pubchem.ncbi.nlm.nih.gov/vw3d/vw3d.cgi?cid=10234
