13392
  -OEChem-06261209342D

 16 16  0     0  0  0  0  0  0999 V2000
    2.5369   -2.4239    0.0000 O   0  0  0  0  0  0  0  0  0  0  0  0
    3.4030    0.0761    0.0000 N   0  0  0  0  0  0  0  0  0  0  0  0
    4.2120    0.6639    0.0000 N   0  0  0  0  0  0  0  0  0  0  0  0
    3.4030   -0.9239    0.0000 N   0  0  0  0  0  0  0  0  0  0  0  0
    3.9030    1.6149    0.0000 C   0  0  0  0  0  0  0  0  0  0  0  0
    2.9030    1.6149    0.0000 C   0  0  0  0  0  0  0  0  0  0  0  0
    2.5939    0.6639    0.0000 C   0  0  0  0  0  0  0  0  0  0  0  0
    4.4908    2.4239    0.0000 C   0  0  0  0  0  0  0  0  0  0  0  0
    2.5369   -1.4239    0.0000 C   0  0  0  0  0  0  0  0  0  0  0  0
    2.5385    2.1165    0.0000 H   0  0  0  0  0  0  0  0  0  0  0  0
    2.0043    0.4723    0.0000 H   0  0  0  0  0  0  0  0  0  0  0  0
    4.9923    2.0595    0.0000 H   0  0  0  0  0  0  0  0  0  0  0  0
    4.8552    2.9255    0.0000 H   0  0  0  0  0  0  0  0  0  0  0  0
    3.9892    2.7884    0.0000 H   0  0  0  0  0  0  0  0  0  0  0  0
    3.9399   -1.2339    0.0000 H   0  0  0  0  0  0  0  0  0  0  0  0
    2.0000   -1.1139    0.0000 H   0  0  0  0  0  0  0  0  0  0  0  0
  1  9  2  0  0  0  0
  2  3  1  0  0  0  0
  2  4  1  0  0  0  0
  2  7  1  0  0  0  0
  3  5  2  0  0  0  0
  4  9  1  0  0  0  0
  4 15  1  0  0  0  0
  5  6  1  0  0  0  0
  5  8  1  0  0  0  0
  6  7  2  0  0  0  0
  6 10  1  0  0  0  0
  7 11  1  0  0  0  0
  8 12  1  0  0  0  0
  8 13  1  0  0  0  0
  8 14  1  0  0  0  0
  9 16  1  0  0  0  0
M  END
> <PUBCHEM_COMPOUND_CID>
13392

> <PUBCHEM_COMPOUND_CANONICALIZED>
1

> <PUBCHEM_CACTVS_COMPLEXITY>
106

> <PUBCHEM_CACTVS_HBOND_ACCEPTOR>
2

> <PUBCHEM_CACTVS_HBOND_DONOR>
1

> <PUBCHEM_CACTVS_ROTATABLE_BOND>
1

> <PUBCHEM_CACTVS_SUBSKEYS>
AAADcYBjIAAAAAAAAAAAAAAAAAAAAWAAAAAAAAAAAAAAAAABgAAAHgAYAAAACAjBFgY+gJBiAACqATRn0ACQBAAgggAaOKAwZBgAIIAAwcAAhABACAAAQAAAAAAAAAAAAAAAAAAAAAAAAAAAAAAAAAAAAA==

> <PUBCHEM_IUPAC_OPENEYE_NAME>
N-(3-methylpyrazol-1-yl)formamide

> <PUBCHEM_IUPAC_CAS_NAME>
N-(3-methyl-1-pyrazolyl)formamide

> <PUBCHEM_IUPAC_NAME>
N-(3-methylpyrazol-1-yl)formamide

> <PUBCHEM_IUPAC_SYSTEMATIC_NAME>
N-(3-methylpyrazol-1-yl)methanamide

> <PUBCHEM_IUPAC_TRADITIONAL_NAME>
N-(3-methylpyrazol-1-yl)formamide

> <PUBCHEM_IUPAC_INCHI>
InChI=1S/C5H7N3O/c1-5-2-3-8(7-5)6-4-9/h2-4H,1H3,(H,6,9)

> <PUBCHEM_IUPAC_INCHIKEY>
AJDAWQUQDDHYHH-UHFFFAOYSA-N

> <PUBCHEM_XLOGP3_AA>
0.3

> <PUBCHEM_EXACT_MASS>
125.058912

> <PUBCHEM_MOLECULAR_FORMULA>
C5H7N3O

> <PUBCHEM_MOLECULAR_WEIGHT>
125.12858

> <PUBCHEM_OPENEYE_CAN_SMILES>
CC1=NN(C=C1)NC=O

> <PUBCHEM_OPENEYE_ISO_SMILES>
CC1=NN(C=C1)NC=O

> <PUBCHEM_CACTVS_TPSA>
46.9

> <PUBCHEM_MONOISOTOPIC_WEIGHT>
125.058912

> <PUBCHEM_TOTAL_CHARGE>
0

> <PUBCHEM_HEAVY_ATOM_COUNT>
9

> <PUBCHEM_ATOM_DEF_STEREO_COUNT>
0

> <PUBCHEM_ATOM_UDEF_STEREO_COUNT>
0

> <PUBCHEM_BOND_DEF_STEREO_COUNT>
0

> <PUBCHEM_BOND_UDEF_STEREO_COUNT>
0

> <PUBCHEM_ISOTOPIC_ATOM_COUNT>
0

> <PUBCHEM_COMPONENT_COUNT>
1

> <PUBCHEM_CACTVS_TAUTO_COUNT>
2

> <PUBCHEM_COORDINATE_TYPE>
1
5
255

> <PUBCHEM_BONDANNOTATIONS>
2  3  8
2  7  8
3  5  8
5  6  8
6  7  8

$$$$

