87653
  -OEChem-07051213112D

 16 16  0     0  0  0  0  0  0999 V2000
    2.8090    0.0380    0.0000 S   0  0  0  0  0  0  0  0  0  0  0  0
    5.7281   -0.9704    0.0000 N   0  0  0  0  0  0  0  0  0  0  0  0
    3.3090    1.5768    0.0000 N   0  0  0  0  0  0  0  0  0  0  0  0
    4.5691    0.3168    0.0000 C   0  0  0  0  0  0  0  0  0  0  0  0
    4.7770   -0.6614    0.0000 C   0  0  0  0  0  0  0  0  0  0  0  0
    3.6180    0.6258    0.0000 C   0  0  0  0  0  0  0  0  0  0  0  0
    2.0000    0.6258    0.0000 C   0  0  0  0  0  0  0  0  0  0  0  0
    2.3090    1.5768    0.0000 C   0  0  0  0  0  0  0  0  0  0  0  0
    5.1887    0.3384    0.0000 H   0  0  0  0  0  0  0  0  0  0  0  0
    4.6554    0.9307    0.0000 H   0  0  0  0  0  0  0  0  0  0  0  0
    4.1574   -0.6830    0.0000 H   0  0  0  0  0  0  0  0  0  0  0  0
    4.6907   -1.2753    0.0000 H   0  0  0  0  0  0  0  0  0  0  0  0
    5.8570   -1.5768    0.0000 H   0  0  0  0  0  0  0  0  0  0  0  0
    6.1888   -0.5555    0.0000 H   0  0  0  0  0  0  0  0  0  0  0  0
    1.4103    0.4342    0.0000 H   0  0  0  0  0  0  0  0  0  0  0  0
    1.9446    2.0784    0.0000 H   0  0  0  0  0  0  0  0  0  0  0  0
  1  6  1  0  0  0  0
  1  7  1  0  0  0  0
  2  5  1  0  0  0  0
  2 13  1  0  0  0  0
  2 14  1  0  0  0  0
  3  6  2  0  0  0  0
  3  8  1  0  0  0  0
  4  5  1  0  0  0  0
  4  6  1  0  0  0  0
  4  9  1  0  0  0  0
  4 10  1  0  0  0  0
  5 11  1  0  0  0  0
  5 12  1  0  0  0  0
  7  8  2  0  0  0  0
  7 15  1  0  0  0  0
  8 16  1  0  0  0  0
M  END
> <PUBCHEM_COMPOUND_CID>
87653

> <PUBCHEM_COMPOUND_CANONICALIZED>
1

> <PUBCHEM_CACTVS_COMPLEXITY>
67.4

> <PUBCHEM_CACTVS_HBOND_ACCEPTOR>
3

> <PUBCHEM_CACTVS_HBOND_DONOR>
1

> <PUBCHEM_CACTVS_ROTATABLE_BOND>
2

> <PUBCHEM_CACTVS_SUBSKEYS>
AAADccBjAABAAAAAAAAAAAAAAAAAAWAAAAAAAAAAAAAAAAABgAAAHAQQAAAACADFQgSsgRJIEAikABAnRAAA8KBRCjhIQIw4IAAAAAAgQAAEAAAAEACgAAAAAAAAAAAAAAAAAAAAAAAAAAAAAAAAAAAAAA==

> <PUBCHEM_IUPAC_OPENEYE_NAME>
2-thiazol-2-ylethanamine

> <PUBCHEM_IUPAC_CAS_NAME>
2-(2-thiazolyl)ethanamine

> <PUBCHEM_IUPAC_NAME>
2-(1,3-thiazol-2-yl)ethanamine

> <PUBCHEM_IUPAC_SYSTEMATIC_NAME>
2-(1,3-thiazol-2-yl)ethanamine

> <PUBCHEM_IUPAC_TRADITIONAL_NAME>
2-thiazol-2-ylethylamine

> <PUBCHEM_IUPAC_INCHI>
InChI=1S/C5H8N2S/c6-2-1-5-7-3-4-8-5/h3-4H,1-2,6H2

> <PUBCHEM_IUPAC_INCHIKEY>
TWZOYAWHWDRMEZ-UHFFFAOYSA-N

> <PUBCHEM_XLOGP3_AA>
0.3

> <PUBCHEM_EXACT_MASS>
128.040819

> <PUBCHEM_MOLECULAR_FORMULA>
C5H8N2S

> <PUBCHEM_MOLECULAR_WEIGHT>
128.19542

> <PUBCHEM_OPENEYE_CAN_SMILES>
C1=CSC(=N1)CCN

> <PUBCHEM_OPENEYE_ISO_SMILES>
C1=CSC(=N1)CCN

> <PUBCHEM_CACTVS_TPSA>
67.2

> <PUBCHEM_MONOISOTOPIC_WEIGHT>
128.040819

> <PUBCHEM_TOTAL_CHARGE>
0

> <PUBCHEM_HEAVY_ATOM_COUNT>
8

> <PUBCHEM_ATOM_DEF_STEREO_COUNT>
0

> <PUBCHEM_ATOM_UDEF_STEREO_COUNT>
0

> <PUBCHEM_BOND_DEF_STEREO_COUNT>
0

> <PUBCHEM_BOND_UDEF_STEREO_COUNT>
0

> <PUBCHEM_ISOTOPIC_ATOM_COUNT>
0

> <PUBCHEM_COMPONENT_COUNT>
1

> <PUBCHEM_CACTVS_TAUTO_COUNT>
2

> <PUBCHEM_COORDINATE_TYPE>
1
5
255

> <PUBCHEM_BONDANNOTATIONS>
1  6  8
1  7  8
3  6  8
3  8  8
7  8  8

$$$$

