8715
  -OEChem-06261203022D

 21 19  0     0  0  0  0  0  0999 V2000
    0.0000    2.9650    0.0000 Cl  0  0  0  0  0  0  0  0  0  0  0  0
    4.7690    0.0000    0.0000 Cl  0  0  0  0  0  0  0  0  0  0  0  0
    3.5369    5.1200    0.0000 O   0  0  0  0  0  0  0  0  0  0  0  0
    5.2690    6.1200    0.0000 N   0  0  0  0  0  0  0  0  0  0  0  0
    7.0010    3.1200    0.0000 N   0  0  0  0  0  0  0  0  0  0  0  0
    5.2690    5.1200    0.0000 C   0  0  0  0  0  0  0  0  0  0  0  0
    6.1350    3.6200    0.0000 C   0  0  0  0  0  0  0  0  0  0  0  0
    6.1350    4.6200    0.0000 C   0  0  0  0  0  0  0  0  0  0  0  0
    4.4030    4.6200    0.0000 C   0  0  0  0  0  0  0  0  0  0  0  0
    5.2690    3.1200    0.0000 C   0  0  0  0  0  0  0  0  0  0  0  0
    4.4030    3.6200    0.0000 C   0  0  0  0  0  0  0  0  0  0  0  0
    6.6720    4.9300    0.0000 H   0  0  0  0  0  0  0  0  0  0  0  0
    5.2690    2.5000    0.0000 H   0  0  0  0  0  0  0  0  0  0  0  0
    3.8660    3.3100    0.0000 H   0  0  0  0  0  0  0  0  0  0  0  0
    5.8059    6.4300    0.0000 H   0  0  0  0  0  0  0  0  0  0  0  0
    4.7320    6.4300    0.0000 H   0  0  0  0  0  0  0  0  0  0  0  0
    7.0010    2.5000    0.0000 H   0  0  0  0  0  0  0  0  0  0  0  0
    7.5380    3.4300    0.0000 H   0  0  0  0  0  0  0  0  0  0  0  0
    3.0000    4.8100    0.0000 H   0  0  0  0  0  0  0  0  0  0  0  0
    5.7690    0.0000    0.0000 H   0  0  0  0  0  0  0  0  0  0  0  0
    1.0000    2.9650    0.0000 H   0  0  0  0  0  0  0  0  0  0  0  0
  1 21  1  0  0  0  0
  2 20  1  0  0  0  0
  3  9  1  0  0  0  0
  3 19  1  0  0  0  0
  4  6  1  0  0  0  0
  4 15  1  0  0  0  0
  4 16  1  0  0  0  0
  5  7  1  0  0  0  0
  5 17  1  0  0  0  0
  5 18  1  0  0  0  0
  6  8  1  0  0  0  0
  6  9  2  0  0  0  0
  7  8  2  0  0  0  0
  7 10  1  0  0  0  0
  8 12  1  0  0  0  0
  9 11  1  0  0  0  0
 10 11  2  0  0  0  0
 10 13  1  0  0  0  0
 11 14  1  0  0  0  0
M  END
> <PUBCHEM_COMPOUND_CID>
8715

> <PUBCHEM_COMPOUND_CANONICALIZED>
1

> <PUBCHEM_CACTVS_COMPLEXITY>
97.1

> <PUBCHEM_CACTVS_HBOND_ACCEPTOR>
3

> <PUBCHEM_CACTVS_HBOND_DONOR>
5

> <PUBCHEM_CACTVS_ROTATABLE_BOND>
0

> <PUBCHEM_CACTVS_SUBSKEYS>
AAADccBjIAAGAAAAAAAAAAAAAAAAAAAAAAAwAAAAAAAAAAABAAAAHgAQCAAACAyBkAAwxoBAAgCAACRCQACCAAAgIgAIiAAHbIgKJiKS0dOAcABk0BEI2AewQAAAAEAAAAQAEAAAgAAACAAgAAAAAAAAAA==

> <PUBCHEM_IUPAC_OPENEYE_NAME>
2,4-diaminophenol dihydrochloride

> <PUBCHEM_IUPAC_CAS_NAME>
2,4-diaminophenol dihydrochloride

> <PUBCHEM_IUPAC_NAME>
2,4-diaminophenol dihydrochloride

> <PUBCHEM_IUPAC_SYSTEMATIC_NAME>
2,4-bis(azanyl)phenol dihydrochloride

> <PUBCHEM_IUPAC_TRADITIONAL_NAME>
2,4-diaminophenol dihydrochloride

> <PUBCHEM_IUPAC_INCHI>
InChI=1S/C6H8N2O.2ClH/c7-4-1-2-6(9)5(8)3-4;;/h1-3,9H,7-8H2;2*1H

> <PUBCHEM_IUPAC_INCHIKEY>
KQEIJFWAXDQUPR-UHFFFAOYSA-N

> <PUBCHEM_EXACT_MASS>
196.017018

> <PUBCHEM_MOLECULAR_FORMULA>
C6H10Cl2N2O

> <PUBCHEM_MOLECULAR_WEIGHT>
197.0624

> <PUBCHEM_OPENEYE_CAN_SMILES>
C1=CC(=C(C=C1N)N)O.Cl.Cl

> <PUBCHEM_OPENEYE_ISO_SMILES>
C1=CC(=C(C=C1N)N)O.Cl.Cl

> <PUBCHEM_CACTVS_TPSA>
72.3

> <PUBCHEM_MONOISOTOPIC_WEIGHT>
196.017018

> <PUBCHEM_TOTAL_CHARGE>
0

> <PUBCHEM_HEAVY_ATOM_COUNT>
11

> <PUBCHEM_ATOM_DEF_STEREO_COUNT>
0

> <PUBCHEM_ATOM_UDEF_STEREO_COUNT>
0

> <PUBCHEM_BOND_DEF_STEREO_COUNT>
0

> <PUBCHEM_BOND_UDEF_STEREO_COUNT>
0

> <PUBCHEM_ISOTOPIC_ATOM_COUNT>
0

> <PUBCHEM_COMPONENT_COUNT>
3

> <PUBCHEM_CACTVS_TAUTO_COUNT>
16

> <PUBCHEM_COORDINATE_TYPE>
1
5
255

> <PUBCHEM_BONDANNOTATIONS>
10  11  8
6  8  8
6  9  8
7  10  8
7  8  8
9  11  8

$$$$

