52923
  -OEChem-07051213122D

 51 51  0     1  0  0  0  0  0999 V2000
    3.2320   -3.4330    0.0000 S   0  0  0  0  0  0  0  0  0  0  0  0
    5.4641    1.1651    0.0000 O   0  0  0  0  0  0  0  0  0  0  0  0
    2.0000    1.1651    0.0000 O   0  0  0  0  0  0  0  0  0  0  0  0
    4.5981    3.6651    0.0000 O   0  0  0  0  0  0  0  0  0  0  0  0
    4.5981    2.6651    0.0000 N   0  0  0  0  0  0  0  0  0  0  0  0
    3.7320   -0.8349    0.0000 C   0  0  0  0  0  0  0  0  0  0  0  0
    3.2320   -1.7010    0.0000 C   0  0  0  0  0  0  0  0  0  0  0  0
    4.5981   -0.3349    0.0000 C   0  0  0  0  0  0  0  0  0  0  0  0
    2.8660   -0.3349    0.0000 C   0  0  0  0  0  0  0  0  0  0  0  0
    3.7320   -2.5670    0.0000 C   0  0  3  0  0  0  0  0  0  0  0  0
    4.5981    0.6651    0.0000 C   0  0  0  0  0  0  0  0  0  0  0  0
    2.8660    0.6651    0.0000 C   0  0  0  0  0  0  0  0  0  0  0  0
    3.7320    1.1651    0.0000 C   0  0  0  0  0  0  0  0  0  0  0  0
    3.7320    2.1651    0.0000 C   0  0  0  0  0  0  0  0  0  0  0  0
    4.7320   -2.5670    0.0000 C   0  0  0  0  0  0  0  0  0  0  0  0
    2.8660    2.6651    0.0000 C   0  0  0  0  0  0  0  0  0  0  0  0
    2.8660    3.6651    0.0000 C   0  0  0  0  0  0  0  0  0  0  0  0
    3.7320   -4.2990    0.0000 C   0  0  0  0  0  0  0  0  0  0  0  0
    2.0000    4.1651    0.0000 C   0  0  0  0  0  0  0  0  0  0  0  0
    3.2320   -5.1651    0.0000 C   0  0  0  0  0  0  0  0  0  0  0  0
    5.4641    4.1651    0.0000 C   0  0  0  0  0  0  0  0  0  0  0  0
    5.4641    5.1651    0.0000 C   0  0  0  0  0  0  0  0  0  0  0  0
    4.0420   -1.3719    0.0000 H   0  0  0  0  0  0  0  0  0  0  0  0
    2.7571   -1.3024    0.0000 H   0  0  0  0  0  0  0  0  0  0  0  0
    2.7571   -2.0995    0.0000 H   0  0  0  0  0  0  0  0  0  0  0  0
    4.8101   -0.9175    0.0000 H   0  0  0  0  0  0  0  0  0  0  0  0
    5.2087   -0.2273    0.0000 H   0  0  0  0  0  0  0  0  0  0  0  0
    2.2554   -0.2273    0.0000 H   0  0  0  0  0  0  0  0  0  0  0  0
    2.6540   -0.9175    0.0000 H   0  0  0  0  0  0  0  0  0  0  0  0
    4.1570   -3.3031    0.0000 H   0  0  0  0  0  0  0  0  0  0  0  0
    4.7320   -3.1870    0.0000 H   0  0  0  0  0  0  0  0  0  0  0  0
    5.3520   -2.5670    0.0000 H   0  0  0  0  0  0  0  0  0  0  0  0
    4.7320   -1.9470    0.0000 H   0  0  0  0  0  0  0  0  0  0  0  0
    2.2554    2.7727    0.0000 H   0  0  0  0  0  0  0  0  0  0  0  0
    2.6540    2.0824    0.0000 H   0  0  0  0  0  0  0  0  0  0  0  0
    3.4766    3.5574    0.0000 H   0  0  0  0  0  0  0  0  0  0  0  0
    3.0781    4.2477    0.0000 H   0  0  0  0  0  0  0  0  0  0  0  0
    4.2070   -4.6976    0.0000 H   0  0  0  0  0  0  0  0  0  0  0  0
    4.2070   -3.9005    0.0000 H   0  0  0  0  0  0  0  0  0  0  0  0
    5.1350    2.3551    0.0000 H   0  0  0  0  0  0  0  0  0  0  0  0
    2.3100    4.7020    0.0000 H   0  0  0  0  0  0  0  0  0  0  0  0
    1.4631    4.4751    0.0000 H   0  0  0  0  0  0  0  0  0  0  0  0
    1.6900    3.6281    0.0000 H   0  0  0  0  0  0  0  0  0  0  0  0
    2.6951   -4.8551    0.0000 H   0  0  0  0  0  0  0  0  0  0  0  0
    2.9220   -5.7020    0.0000 H   0  0  0  0  0  0  0  0  0  0  0  0
    3.7690   -5.4751    0.0000 H   0  0  0  0  0  0  0  0  0  0  0  0
    5.6762    3.5824    0.0000 H   0  0  0  0  0  0  0  0  0  0  0  0
    6.0747    4.2727    0.0000 H   0  0  0  0  0  0  0  0  0  0  0  0
    6.0841    5.1651    0.0000 H   0  0  0  0  0  0  0  0  0  0  0  0
    5.4641    5.7851    0.0000 H   0  0  0  0  0  0  0  0  0  0  0  0
    4.8441    5.1651    0.0000 H   0  0  0  0  0  0  0  0  0  0  0  0
  1 10  1  0  0  0  0
  1 18  1  0  0  0  0
  2 11  2  0  0  0  0
  3 12  2  0  0  0  0
  4  5  1  0  0  0  0
  4 21  1  0  0  0  0
  5 14  1  0  0  0  0
  5 40  1  0  0  0  0
  6  7  1  0  0  0  0
  6  8  1  0  0  0  0
  6  9  1  0  0  0  0
  6 23  1  0  0  0  0
  7 10  1  0  0  0  0
  7 24  1  0  0  0  0
  7 25  1  0  0  0  0
  8 11  1  0  0  0  0
  8 26  1  0  0  0  0
  8 27  1  0  0  0  0
  9 12  1  0  0  0  0
  9 28  1  0  0  0  0
  9 29  1  0  0  0  0
 10 15  1  0  0  0  0
 10 30  1  0  0  0  0
 11 13  1  0  0  0  0
 12 13  1  0  0  0  0
 13 14  2  0  0  0  0
 14 16  1  0  0  0  0
 15 31  1  0  0  0  0
 15 32  1  0  0  0  0
 15 33  1  0  0  0  0
 16 17  1  0  0  0  0
 16 34  1  0  0  0  0
 16 35  1  0  0  0  0
 17 19  1  0  0  0  0
 17 36  1  0  0  0  0
 17 37  1  0  0  0  0
 18 20  1  0  0  0  0
 18 38  1  0  0  0  0
 18 39  1  0  0  0  0
 19 41  1  0  0  0  0
 19 42  1  0  0  0  0
 19 43  1  0  0  0  0
 20 44  1  0  0  0  0
 20 45  1  0  0  0  0
 20 46  1  0  0  0  0
 21 22  1  0  0  0  0
 21 47  1  0  0  0  0
 21 48  1  0  0  0  0
 22 49  1  0  0  0  0
 22 50  1  0  0  0  0
 22 51  1  0  0  0  0
M  END
> <PUBCHEM_COMPOUND_CID>
52923

> <PUBCHEM_COMPOUND_CANONICALIZED>
1

> <PUBCHEM_CACTVS_COMPLEXITY>
400

> <PUBCHEM_CACTVS_HBOND_ACCEPTOR>
5

> <PUBCHEM_CACTVS_HBOND_DONOR>
1

> <PUBCHEM_CACTVS_ROTATABLE_BOND>
9

> <PUBCHEM_CACTVS_SUBSKEYS>
AAADceB6MABAAAAAAAAAAAAAAAAAAAAAAAAwAAAAAAAAAAAAAAAAHgQUAAAADQylwAKCAABQAAiIAoRQQAAAAAAgABAgCAEAAEgAABIogAAAAAAAkAAoAUMIioCuAAAAAAAAAAAAAAAAAAAAAAAAAAAAAA==

> <PUBCHEM_IUPAC_OPENEYE_NAME>
2-[1-(ethoxyamino)butylidene]-5-(2-ethylsulfanylpropyl)cyclohexane-1,3-dione

> <PUBCHEM_IUPAC_CAS_NAME>
2-[1-(ethoxyamino)butylidene]-5-[2-(ethylthio)propyl]cyclohexane-1,3-dione

> <PUBCHEM_IUPAC_NAME>
2-[1-(ethoxyamino)butylidene]-5-(2-ethylsulfanylpropyl)cyclohexane-1,3-dione

> <PUBCHEM_IUPAC_SYSTEMATIC_NAME>
2-[1-(ethoxyamino)butylidene]-5-(2-ethylsulfanylpropyl)cyclohexane-1,3-dione

> <PUBCHEM_IUPAC_TRADITIONAL_NAME>
2-[1-(ethoxyamino)butylidene]-5-[2-(ethylthio)propyl]cyclohexane-1,3-quinone

> <PUBCHEM_IUPAC_INCHI>
InChI=1S/C17H29NO3S/c1-5-8-14(18-21-6-2)17-15(19)10-13(11-16(17)20)9-12(4)22-7-3/h12-13,18H,5-11H2,1-4H3

> <PUBCHEM_IUPAC_INCHIKEY>
JEFHGYSGNIFAEY-UHFFFAOYSA-N

> <PUBCHEM_XLOGP3_AA>
4.1

> <PUBCHEM_EXACT_MASS>
327.186815

> <PUBCHEM_MOLECULAR_FORMULA>
C17H29NO3S

> <PUBCHEM_MOLECULAR_WEIGHT>
327.48206

> <PUBCHEM_OPENEYE_CAN_SMILES>
CCCC(=C1C(=O)CC(CC1=O)CC(C)SCC)NOCC

> <PUBCHEM_OPENEYE_ISO_SMILES>
CCCC(=C1C(=O)CC(CC1=O)CC(C)SCC)NOCC

> <PUBCHEM_CACTVS_TPSA>
80.7

> <PUBCHEM_MONOISOTOPIC_WEIGHT>
327.186815

> <PUBCHEM_TOTAL_CHARGE>
0

> <PUBCHEM_HEAVY_ATOM_COUNT>
22

> <PUBCHEM_ATOM_DEF_STEREO_COUNT>
0

> <PUBCHEM_ATOM_UDEF_STEREO_COUNT>
1

> <PUBCHEM_BOND_DEF_STEREO_COUNT>
0

> <PUBCHEM_BOND_UDEF_STEREO_COUNT>
0

> <PUBCHEM_ISOTOPIC_ATOM_COUNT>
0

> <PUBCHEM_COMPONENT_COUNT>
1

> <PUBCHEM_CACTVS_TAUTO_COUNT>
13

> <PUBCHEM_COORDINATE_TYPE>
1
5
255

> <PUBCHEM_BONDANNOTATIONS>
10  30  3

$$$$

