5281853
  -OEChem-07051213002D

 56 61  0     1  0  0  0  0  0999 V2000
    3.2176   -0.5285    0.0000 N   0  0  3  0  0  0  0  0  0  0  0  0
    6.2841    1.0167    0.0000 N   0  0  3  0  0  0  0  0  0  0  0  0
    4.3079   -1.9609    0.0000 N   0  0  0  0  0  0  0  0  0  0  0  0
    4.9775   -0.2899    0.0000 C   0  0  1  0  0  0  0  0  0  0  0  0
    4.0536    0.0928    0.0000 C   0  0  1  0  0  0  0  0  0  0  0  0
    3.6710    1.0167    0.0000 C   0  0  2  0  0  0  0  0  0  0  0  0
    4.9775    2.3232    0.0000 C   0  0  1  0  0  0  0  0  0  0  0  0
    4.6115    1.0167    0.0000 C   0  0  0  0  0  0  0  0  0  0  0  0
    5.1294   -1.3204    0.0000 C   0  0  2  0  0  0  0  0  0  0  0  0
    5.9014    0.0928    0.0000 C   0  0  0  0  0  0  0  0  0  0  0  0
    4.0536    1.9405    0.0000 C   0  0  0  0  0  0  0  0  0  0  0  0
    5.9014    1.9405    0.0000 C   0  0  1  0  0  0  0  0  0  0  0  0
    3.3456   -1.5623    0.0000 C   0  0  2  0  0  0  0  0  0  0  0  0
    2.6405    1.1685    0.0000 C   0  0  0  0  0  0  0  0  0  0  0  0
    5.2471   -2.3277    0.0000 C   0  0  0  0  0  0  0  0  0  0  0  0
    2.3986   -0.6153    0.0000 C   0  0  0  0  0  0  0  0  0  0  0  0
    3.5003   -2.5645    0.0000 C   0  0  0  0  0  0  0  0  0  0  0  0
    2.0000    0.3471    0.0000 C   0  0  0  0  0  0  0  0  0  0  0  0
    6.5227    2.7766    0.0000 C   0  0  0  0  0  0  0  0  0  0  0  0
    4.4411   -2.9432    0.0000 C   0  0  0  0  0  0  0  0  0  0  0  0
    7.3146    0.8648    0.0000 C   0  0  0  0  0  0  0  0  0  0  0  0
    7.5564    2.6486    0.0000 C   0  0  0  0  0  0  0  0  0  0  0  0
    7.9550    1.6863    0.0000 C   0  0  0  0  0  0  0  0  0  0  0  0
    4.3598   -0.6463    0.0000 H   0  0  0  0  0  0  0  0  0  0  0  0
    3.3648    1.7558    0.0000 H   0  0  0  0  0  0  0  0  0  0  0  0
    4.9775    3.1232    0.0000 H   0  0  0  0  0  0  0  0  0  0  0  0
    4.1050    1.3742    0.0000 H   0  0  0  0  0  0  0  0  0  0  0  0
    5.2315    1.0167    0.0000 H   0  0  0  0  0  0  0  0  0  0  0  0
    5.7603   -0.8285    0.0000 H   0  0  0  0  0  0  0  0  0  0  0  0
    5.9823   -0.5219    0.0000 H   0  0  0  0  0  0  0  0  0  0  0  0
    6.5161    0.0118    0.0000 H   0  0  0  0  0  0  0  0  0  0  0  0
    3.4389    2.0215    0.0000 H   0  0  0  0  0  0  0  0  0  0  0  0
    3.9727    2.5552    0.0000 H   0  0  0  0  0  0  0  0  0  0  0  0
    5.5953    2.6796    0.0000 H   0  0  0  0  0  0  0  0  0  0  0  0
    2.7072   -2.0444    0.0000 H   0  0  0  0  0  0  0  0  0  0  0  0
    2.8345    1.7574    0.0000 H   0  0  0  0  0  0  0  0  0  0  0  0
    2.0935    1.4604    0.0000 H   0  0  0  0  0  0  0  0  0  0  0  0
    4.6872   -2.4513    0.0000 H   0  0  0  0  0  0  0  0  0  0  0  0
    5.5298   -2.8795    0.0000 H   0  0  0  0  0  0  0  0  0  0  0  0
    5.8403   -2.1475    0.0000 H   0  0  0  0  0  0  0  0  0  0  0  0
    2.5226   -1.2228    0.0000 H   0  0  0  0  0  0  0  0  0  0  0  0
    1.8058   -0.7967    0.0000 H   0  0  0  0  0  0  0  0  0  0  0  0
    2.8805   -2.5487    0.0000 H   0  0  0  0  0  0  0  0  0  0  0  0
    3.3747   -3.1716    0.0000 H   0  0  0  0  0  0  0  0  0  0  0  0
    1.5835    0.8063    0.0000 H   0  0  0  0  0  0  0  0  0  0  0  0
    1.4762    0.0153    0.0000 H   0  0  0  0  0  0  0  0  0  0  0  0
    5.9691    3.0558    0.0000 H   0  0  0  0  0  0  0  0  0  0  0  0
    6.7030    3.3698    0.0000 H   0  0  0  0  0  0  0  0  0  0  0  0
    4.1111   -3.4681    0.0000 H   0  0  0  0  0  0  0  0  0  0  0  0
    4.8990   -3.3613    0.0000 H   0  0  0  0  0  0  0  0  0  0  0  0
    7.1206    0.2759    0.0000 H   0  0  0  0  0  0  0  0  0  0  0  0
    7.8616    0.5729    0.0000 H   0  0  0  0  0  0  0  0  0  0  0  0
    7.5262    3.2679    0.0000 H   0  0  0  0  0  0  0  0  0  0  0  0
    8.1614    2.7843    0.0000 H   0  0  0  0  0  0  0  0  0  0  0  0
    8.4788    2.0180    0.0000 H   0  0  0  0  0  0  0  0  0  0  0  0
    8.3716    1.2270    0.0000 H   0  0  0  0  0  0  0  0  0  0  0  0
  1  5  1  0  0  0  0
  1 13  1  0  0  0  0
  1 16  1  0  0  0  0
  2 10  1  0  0  0  0
  2 12  1  0  0  0  0
  2 21  1  0  0  0  0
  3  9  1  0  0  0  0
  3 13  1  0  0  0  0
  3 38  1  0  0  0  0
  4  5  1  0  0  0  0
  4  8  1  1  0  0  0
  4  9  1  0  0  0  0
  4 10  1  6  0  0  0
  5  6  1  0  0  0  0
  5 24  1  1  0  0  0
  6 11  1  0  0  0  0
  6 14  1  0  0  0  0
  6 25  1  6  0  0  0
  7  8  1  0  0  0  0
  7 11  1  0  0  0  0
  7 12  1  0  0  0  0
  7 26  1  6  0  0  0
  8 27  1  0  0  0  0
  8 28  1  0  0  0  0
  9 15  1  0  0  0  0
  9 29  1  1  0  0  0
 10 30  1  0  0  0  0
 10 31  1  0  0  0  0
 11 32  1  0  0  0  0
 11 33  1  0  0  0  0
 12 19  1  0  0  0  0
 12 34  1  6  0  0  0
 13 17  1  0  0  0  0
 13 35  1  1  0  0  0
 14 18  1  0  0  0  0
 14 36  1  0  0  0  0
 14 37  1  0  0  0  0
 15 20  1  0  0  0  0
 15 39  1  0  0  0  0
 15 40  1  0  0  0  0
 16 18  1  0  0  0  0
 16 41  1  0  0  0  0
 16 42  1  0  0  0  0
 17 20  1  0  0  0  0
 17 43  1  0  0  0  0
 17 44  1  0  0  0  0
 18 45  1  0  0  0  0
 18 46  1  0  0  0  0
 19 22  1  0  0  0  0
 19 47  1  0  0  0  0
 19 48  1  0  0  0  0
 20 49  1  0  0  0  0
 20 50  1  0  0  0  0
 21 23  1  0  0  0  0
 21 51  1  0  0  0  0
 21 52  1  0  0  0  0
 22 23  1  0  0  0  0
 22 53  1  0  0  0  0
 22 54  1  0  0  0  0
 23 55  1  0  0  0  0
 23 56  1  0  0  0  0
M  END
> <PUBCHEM_COMPOUND_CID>
5281853

> <PUBCHEM_COMPOUND_CANONICALIZED>
1

> <PUBCHEM_CACTVS_COMPLEXITY>
493

> <PUBCHEM_CACTVS_HBOND_ACCEPTOR>
3

> <PUBCHEM_CACTVS_HBOND_DONOR>
1

> <PUBCHEM_CACTVS_ROTATABLE_BOND>
0

> <PUBCHEM_CACTVS_SUBSKEYS>
AAADcfB7AAAAAAAAAAAAAAAAAAAAAAAAAAA8WLFiwAAWLACwAAAAHAAQAAAADyjBAAQBAAPAAAAAAAAAAAAAAAAAAAAAAIAIAACAAAIAwAAEAAAIEAKAAAEQgMAPAAAAAAAAAAAQAAQAAAQAAAAAAAAAAA==

> <PUBCHEM_IUPAC_INCHI>
InChI=1S/C20H33N3/c1-2-9-22-13-20-12-15(16(22)6-1)11-14-5-4-10-23(19(14)20)18-8-3-7-17(20)21-18/h14-19,21H,1-13H2/t14-,15+,16+,17-,18-,19+,20+/m0/s1

> <PUBCHEM_IUPAC_INCHIKEY>
MRLGBUWOAFGOBH-AKIVOZEDSA-N

> <PUBCHEM_XLOGP3_AA>
3.1

> <PUBCHEM_EXACT_MASS>
315.267448

> <PUBCHEM_MOLECULAR_FORMULA>
C20H33N3

> <PUBCHEM_MOLECULAR_WEIGHT>
315.49612

> <PUBCHEM_OPENEYE_CAN_SMILES>
C1CCN2CC34CC(C2C1)CC5C3N(CCC5)C6CCCC4N6

> <PUBCHEM_OPENEYE_ISO_SMILES>
C1CCN2C[C@@]34C[C@H]([C@H]2C1)C[C@H]5[C@H]3N(CCC5)[C@H]6CCC[C@@H]4N6

> <PUBCHEM_CACTVS_TPSA>
18.5

> <PUBCHEM_MONOISOTOPIC_WEIGHT>
315.267448

> <PUBCHEM_TOTAL_CHARGE>
0

> <PUBCHEM_HEAVY_ATOM_COUNT>
23

> <PUBCHEM_ATOM_DEF_STEREO_COUNT>
7

> <PUBCHEM_ATOM_UDEF_STEREO_COUNT>
0

> <PUBCHEM_BOND_DEF_STEREO_COUNT>
0

> <PUBCHEM_BOND_UDEF_STEREO_COUNT>
0

> <PUBCHEM_ISOTOPIC_ATOM_COUNT>
0

> <PUBCHEM_COMPONENT_COUNT>
1

> <PUBCHEM_CACTVS_TAUTO_COUNT>
1

> <PUBCHEM_COORDINATE_TYPE>
1
5
255

> <PUBCHEM_BONDANNOTATIONS>
12  34  6
13  35  5
4  10  6
4  8  5
5  24  5
6  25  6
7  26  6
9  29  5

$$$$

