73170
  -OEChem-07051212552D

 81 85  0     1  0  0  0  0  0999 V2000
    2.5357   -2.6574    0.0000 O   0  0  0  0  0  0  0  0  0  0  0  0
    7.0628   -1.1050    0.0000 C   0  0  2  0  0  0  0  0  0  0  0  0
    6.1968   -0.6051    0.0000 C   0  0  1  0  0  0  0  0  0  0  0  0
    5.2868   -1.1119    0.0000 C   0  0  2  0  0  0  0  0  0  0  0  0
    7.9288   -0.6051    0.0000 C   0  0  1  0  0  0  0  0  0  0  0  0
    5.2787   -2.1535    0.0000 C   0  0  1  0  0  0  0  0  0  0  0  0
    7.0789   -2.1466    0.0000 C   0  0  0  0  0  0  0  0  0  0  0  0
    7.9288    0.3949    0.0000 C   0  0  0  0  0  0  0  0  0  0  0  0
    8.8228    0.9296    0.0000 C   0  0  1  0  0  0  0  0  0  0  0  0
    6.1808   -2.6743    0.0000 C   0  0  0  0  0  0  0  0  0  0  0  0
    9.7288    0.4158    0.0000 C   0  0  1  0  0  0  0  0  0  0  0  0
    4.3433   -2.7032    0.0000 C   0  0  0  0  0  0  0  0  0  0  0  0
    8.8228   -1.1397    0.0000 C   0  0  0  0  0  0  0  0  0  0  0  0
    6.1968    0.3949    0.0000 C   0  0  0  0  0  0  0  0  0  0  0  0
    4.3599   -0.5478    0.0000 C   0  0  0  0  0  0  0  0  0  0  0  0
    9.7288   -0.6259    0.0000 C   0  0  0  0  0  0  0  0  0  0  0  0
    7.7056   -1.8711    0.0000 C   0  0  0  0  0  0  0  0  0  0  0  0
    7.0628    0.8949    0.0000 C   0  0  0  0  0  0  0  0  0  0  0  0
    8.7977    2.0143    0.0000 C   0  0  2  0  0  0  0  0  0  0  0  0
    3.4037   -2.1607    0.0000 C   0  0  2  0  0  0  0  0  0  0  0  0
    5.2945   -0.1119    0.0000 C   0  0  0  0  0  0  0  0  0  0  0  0
    8.2709   -1.5447    0.0000 C   0  0  0  0  0  0  0  0  0  0  0  0
    3.4120   -1.0758    0.0000 C   0  0  0  0  0  0  0  0  0  0  0  0
   10.6726    0.9510    0.0000 C   0  0  0  0  0  0  0  0  0  0  0  0
    9.7288    2.5712    0.0000 C   0  0  1  0  0  0  0  0  0  0  0  0
   10.6726    2.0360    0.0000 C   0  0  0  0  0  0  0  0  0  0  0  0
   10.5987   -0.0775    0.0000 C   0  0  0  0  0  0  0  0  0  0  0  0
    3.8467   -3.5712    0.0000 C   0  0  0  0  0  0  0  0  0  0  0  0
    4.8466   -3.5673    0.0000 C   0  0  0  0  0  0  0  0  0  0  0  0
    7.9222    2.4975    0.0000 C   0  0  0  0  0  0  0  0  0  0  0  0
    9.7173    3.5712    0.0000 C   0  0  0  0  0  0  0  0  0  0  0  0
    6.9329   -0.1801    0.0000 H   0  0  0  0  0  0  0  0  0  0  0  0
    5.2820   -3.0035    0.0000 H   0  0  0  0  0  0  0  0  0  0  0  0
    7.2969   -2.7270    0.0000 H   0  0  0  0  0  0  0  0  0  0  0  0
    7.6880   -2.0311    0.0000 H   0  0  0  0  0  0  0  0  0  0  0  0
    8.0786    1.3404    0.0000 H   0  0  0  0  0  0  0  0  0  0  0  0
    5.7835   -3.1503    0.0000 H   0  0  0  0  0  0  0  0  0  0  0  0
    6.5818   -3.1472    0.0000 H   0  0  0  0  0  0  0  0  0  0  0  0
    8.4182   -1.6095    0.0000 H   0  0  0  0  0  0  0  0  0  0  0  0
    9.2164   -1.6187    0.0000 H   0  0  0  0  0  0  0  0  0  0  0  0
    5.9847    0.9776    0.0000 H   0  0  0  0  0  0  0  0  0  0  0  0
    5.5862    0.2873    0.0000 H   0  0  0  0  0  0  0  0  0  0  0  0
    4.7681   -0.0812    0.0000 H   0  0  0  0  0  0  0  0  0  0  0  0
    3.9700   -0.0658    0.0000 H   0  0  0  0  0  0  0  0  0  0  0  0
    9.9379   -1.2096    0.0000 H   0  0  0  0  0  0  0  0  0  0  0  0
   10.3397   -0.5198    0.0000 H   0  0  0  0  0  0  0  0  0  0  0  0
    7.2306   -2.2696    0.0000 H   0  0  0  0  0  0  0  0  0  0  0  0
    8.1041   -2.3460    0.0000 H   0  0  0  0  0  0  0  0  0  0  0  0
    8.1805   -1.4726    0.0000 H   0  0  0  0  0  0  0  0  0  0  0  0
    7.0628    1.5150    0.0000 H   0  0  0  0  0  0  0  0  0  0  0  0
    8.2674    1.6930    0.0000 H   0  0  0  0  0  0  0  0  0  0  0  0
    3.4025   -2.7807    0.0000 H   0  0  0  0  0  0  0  0  0  0  0  0
    5.9145   -0.1167    0.0000 H   0  0  0  0  0  0  0  0  0  0  0  0
    5.2993    0.5081    0.0000 H   0  0  0  0  0  0  0  0  0  0  0  0
    4.6745   -0.1071    0.0000 H   0  0  0  0  0  0  0  0  0  0  0  0
    7.6884   -1.7568    0.0000 H   0  0  0  0  0  0  0  0  0  0  0  0
    8.4830   -2.1273    0.0000 H   0  0  0  0  0  0  0  0  0  0  0  0
    8.8535   -1.3326    0.0000 H   0  0  0  0  0  0  0  0  0  0  0  0
    3.2075   -0.4905    0.0000 H   0  0  0  0  0  0  0  0  0  0  0  0
    2.8004   -1.1771    0.0000 H   0  0  0  0  0  0  0  0  0  0  0  0
   10.8817    0.3673    0.0000 H   0  0  0  0  0  0  0  0  0  0  0  0
   11.2835    1.0571    0.0000 H   0  0  0  0  0  0  0  0  0  0  0  0
   10.2628    2.8864    0.0000 H   0  0  0  0  0  0  0  0  0  0  0  0
   11.2835    1.9299    0.0000 H   0  0  0  0  0  0  0  0  0  0  0  0
   10.8817    2.6197    0.0000 H   0  0  0  0  0  0  0  0  0  0  0  0
   10.2928   -0.6169    0.0000 H   0  0  0  0  0  0  0  0  0  0  0  0
   11.1380   -0.3834    0.0000 H   0  0  0  0  0  0  0  0  0  0  0  0
   10.9045    0.4618    0.0000 H   0  0  0  0  0  0  0  0  0  0  0  0
    3.3085   -3.2632    0.0000 H   0  0  0  0  0  0  0  0  0  0  0  0
    3.5387   -4.1093    0.0000 H   0  0  0  0  0  0  0  0  0  0  0  0
    4.3848   -3.8791    0.0000 H   0  0  0  0  0  0  0  0  0  0  0  0
    4.3109   -3.8794    0.0000 H   0  0  0  0  0  0  0  0  0  0  0  0
    5.1587   -4.1030    0.0000 H   0  0  0  0  0  0  0  0  0  0  0  0
    5.3824   -3.2553    0.0000 H   0  0  0  0  0  0  0  0  0  0  0  0
    8.2218    3.0403    0.0000 H   0  0  0  0  0  0  0  0  0  0  0  0
    7.3794    2.7971    0.0000 H   0  0  0  0  0  0  0  0  0  0  0  0
    7.6226    1.9547    0.0000 H   0  0  0  0  0  0  0  0  0  0  0  0
   10.3372    3.5783    0.0000 H   0  0  0  0  0  0  0  0  0  0  0  0
    9.7101    4.1911    0.0000 H   0  0  0  0  0  0  0  0  0  0  0  0
    9.0973    3.5640    0.0000 H   0  0  0  0  0  0  0  0  0  0  0  0
    2.0000   -2.3453    0.0000 H   0  0  0  0  0  0  0  0  0  0  0  0
 20  1  1  1  0  0  0
  1 81  1  0  0  0  0
  2  3  1  0  0  0  0
  2  5  1  0  0  0  0
  2  7  1  0  0  0  0
  2 17  1  1  0  0  0
  3  4  1  0  0  0  0
  3 14  1  0  0  0  0
  3 32  1  6  0  0  0
  4  6  1  0  0  0  0
  4 15  1  0  0  0  0
  4 21  1  1  0  0  0
  5  8  1  0  0  0  0
  5 13  1  0  0  0  0
  5 22  1  6  0  0  0
  6 10  1  0  0  0  0
  6 12  1  0  0  0  0
  6 33  1  6  0  0  0
  7 10  1  0  0  0  0
  7 34  1  0  0  0  0
  7 35  1  0  0  0  0
  8  9  1  0  0  0  0
  8 18  2  0  0  0  0
  9 11  1  0  0  0  0
  9 19  1  0  0  0  0
  9 36  1  1  0  0  0
 10 37  1  0  0  0  0
 10 38  1  0  0  0  0
 11 16  1  0  0  0  0
 11 24  1  0  0  0  0
 11 27  1  1  0  0  0
 12 20  1  0  0  0  0
 12 28  1  0  0  0  0
 12 29  1  0  0  0  0
 13 16  1  0  0  0  0
 13 39  1  0  0  0  0
 13 40  1  0  0  0  0
 14 18  1  0  0  0  0
 14 41  1  0  0  0  0
 14 42  1  0  0  0  0
 15 23  1  0  0  0  0
 15 43  1  0  0  0  0
 15 44  1  0  0  0  0
 16 45  1  0  0  0  0
 16 46  1  0  0  0  0
 17 47  1  0  0  0  0
 17 48  1  0  0  0  0
 17 49  1  0  0  0  0
 18 50  1  0  0  0  0
 19 25  1  0  0  0  0
 19 30  1  1  0  0  0
 19 51  1  0  0  0  0
 20 23  1  0  0  0  0
 20 52  1  0  0  0  0
 21 53  1  0  0  0  0
 21 54  1  0  0  0  0
 21 55  1  0  0  0  0
 22 56  1  0  0  0  0
 22 57  1  0  0  0  0
 22 58  1  0  0  0  0
 23 59  1  0  0  0  0
 23 60  1  0  0  0  0
 24 26  1  0  0  0  0
 24 61  1  0  0  0  0
 24 62  1  0  0  0  0
 25 26  1  0  0  0  0
 25 31  1  6  0  0  0
 25 63  1  0  0  0  0
 26 64  1  0  0  0  0
 26 65  1  0  0  0  0
 27 66  1  0  0  0  0
 27 67  1  0  0  0  0
 27 68  1  0  0  0  0
 28 69  1  0  0  0  0
 28 70  1  0  0  0  0
 28 71  1  0  0  0  0
 29 72  1  0  0  0  0
 29 73  1  0  0  0  0
 29 74  1  0  0  0  0
 30 75  1  0  0  0  0
 30 76  1  0  0  0  0
 30 77  1  0  0  0  0
 31 78  1  0  0  0  0
 31 79  1  0  0  0  0
 31 80  1  0  0  0  0
M  END
> <PUBCHEM_COMPOUND_CID>
73170

> <PUBCHEM_COMPOUND_CANONICALIZED>
1

> <PUBCHEM_CACTVS_COMPLEXITY>
779

> <PUBCHEM_CACTVS_HBOND_ACCEPTOR>
1

> <PUBCHEM_CACTVS_HBOND_DONOR>
1

> <PUBCHEM_CACTVS_ROTATABLE_BOND>
0

> <PUBCHEM_CACTVS_SUBSKEYS>
AAADcfB4IAAAAAAAAAAAAAAAAAAAAAAAAAAwYMGCAAAAAADAAAAAGgAACAAADxSggAICAAAAAgCAAiBCAAAAAAAgAAAACAAAAAgAEAIAAQAAQAAEgAAIAAOAwPAPgAAAAAAAAADAAAYAADAAAAAAAAAAAA==

> <PUBCHEM_IUPAC_OPENEYE_NAME>
(3S,4aR,6aR,6bS,8aR,11R,12S,12aR,14aR,14bR)-4,4,6a,6b,8a,11,12,14b-octamethyl-2,3,4a,5,6,7,8,9,10,11,12,12a,14,14a-tetradecahydro-1H-picen-3-ol

> <PUBCHEM_IUPAC_CAS_NAME>
(3S,4aR,6aR,6bS,8aR,11R,12S,12aR,14aR,14bR)-4,4,6a,6b,8a,11,12,14b-octamethyl-2,3,4a,5,6,7,8,9,10,11,12,12a,14,14a-tetradecahydro-1H-picen-3-ol

> <PUBCHEM_IUPAC_NAME>
(3S,4aR,6aR,6bS,8aR,11R,12S,12aR,14aR,14bR)-4,4,6a,6b,8a,11,12,14b-octamethyl-2,3,4a,5,6,7,8,9,10,11,12,12a,14,14a-tetradecahydro-1H-picen-3-ol

> <PUBCHEM_IUPAC_SYSTEMATIC_NAME>
(3S,4aR,6aR,6bS,8aR,11R,12S,12aR,14aR,14bR)-4,4,6a,6b,8a,11,12,14b-octamethyl-2,3,4a,5,6,7,8,9,10,11,12,12a,14,14a-tetradecahydro-1H-picen-3-ol

> <PUBCHEM_IUPAC_TRADITIONAL_NAME>
(3S,4aR,6aR,6bS,8aR,11R,12S,12aR,14aR,14bR)-4,4,6a,6b,8a,11,12,14b-octamethyl-2,3,4a,5,6,7,8,9,10,11,12,12a,14,14a-tetradecahydro-1H-picen-3-ol

> <PUBCHEM_IUPAC_INCHI>
InChI=1S/C30H50O/c1-19-11-14-27(5)17-18-29(7)21(25(27)20(19)2)9-10-23-28(6)15-13-24(31)26(3,4)22(28)12-16-30(23,29)8/h9,19-20,22-25,31H,10-18H2,1-8H3/t19-,20+,22+,23-,24+,25+,27-,28+,29-,30-/m1/s1

> <PUBCHEM_IUPAC_INCHIKEY>
FSLPMRQHCOLESF-SFMCKYFRSA-N

> <PUBCHEM_XLOGP3_AA>
9

> <PUBCHEM_EXACT_MASS>
426.386166

> <PUBCHEM_MOLECULAR_FORMULA>
C30H50O

> <PUBCHEM_MOLECULAR_WEIGHT>
426.7174

> <PUBCHEM_OPENEYE_CAN_SMILES>
CC1CCC2(CCC3(C(=CCC4C3(CCC5C4(CCC(C5(C)C)O)C)C)C2C1C)C)C

> <PUBCHEM_OPENEYE_ISO_SMILES>
C[C@@H]1CC[C@@]2(CC[C@@]3(C(=CC[C@H]4[C@]3(CC[C@@H]5[C@@]4(CC[C@@H](C5(C)C)O)C)C)[C@@H]2[C@H]1C)C)C

> <PUBCHEM_CACTVS_TPSA>
20.2

> <PUBCHEM_MONOISOTOPIC_WEIGHT>
426.386166

> <PUBCHEM_TOTAL_CHARGE>
0

> <PUBCHEM_HEAVY_ATOM_COUNT>
31

> <PUBCHEM_ATOM_DEF_STEREO_COUNT>
10

> <PUBCHEM_ATOM_UDEF_STEREO_COUNT>
0

> <PUBCHEM_BOND_DEF_STEREO_COUNT>
0

> <PUBCHEM_BOND_UDEF_STEREO_COUNT>
0

> <PUBCHEM_ISOTOPIC_ATOM_COUNT>
0

> <PUBCHEM_COMPONENT_COUNT>
1

> <PUBCHEM_CACTVS_TAUTO_COUNT>
1

> <PUBCHEM_COORDINATE_TYPE>
1
5
255

> <PUBCHEM_BONDANNOTATIONS>
20  1  5
11  27  5
19  30  5
2  17  5
25  31  6
3  32  6
4  21  5
5  22  6
6  33  6
9  36  5

$$$$

