   Color/Form

     * Crystals
     * WHITE OR PRACTICALLY WHITE

   from [1]HSDB

   Odor
        ODORLESS
   from [2]HSDB

   Melting Point
        Decomposes at 342.5-343 deg C
   from [3]HSDB

   Dissociation Constants
        pKa1 = 6.85; pKa2 = 9.45
   from [4]HSDB

   Octanol/Water Partition Coefficient
        log Kow = -0.24
   from [5]HSDB

   Solubilities

     * SOL IN WATER: 0 G/L @ PH 4, 0.65 G/L @ PH 7; SOL IN ALKALINE AQ
       SOLN
     * FREELY SOL IN DIMETHYLFORMAMIDE & DIMETHYL SULFOXIDE; SLIGHTLY SOL
       IN METHANOL & PYRIDINE; PRACTICALLY INSOL IN ETHER, BENZENE, &
       CHLOROFORM

   from [6]HSDB

   Computed Properties
   Molecular Weight                  295.72324 [g/mol]
   Molecular Formula                 C[7]H[6]ClN[3]O[4]S[2]
   XLogP3                            -0.2
   H-Bond Donor                      2
   H-Bond Acceptor                   6
   Rotatable Bond Count              1
   Tautomer Count                    2
   Exact Mass                        294.948825
   MonoIsotopic Mass                 294.948825
   Topological Polar Surface Area    135
   Heavy Atom Count                  17
   Formal Charge                     0
   Complexity                        532
   Isotope Atom Count                0
   Defined Atom Stereocenter Count   0
   Undefined Atom Stereocenter Count 0
   Defined Bond Stereocenter Count   0
   Undefined Bond Stereocenter Count 0
   Covalently-Bonded Unit Count      1
   Feature 3D Acceptor Count         4
   Feature 3D Donor Count            3
   Feature 3D Ring Count             2
   Effective Rotor Count             1.2
   Conformer Sampling RMSD           0.6
   CID Conformer Count               [7]2

References

   1. http://toxnet.nlm.nih.gov/cgi-bin/sis/search/r?dbs+hsdb:@term+@rn+@rel+58-94-6
   2. http://toxnet.nlm.nih.gov/cgi-bin/sis/search/r?dbs+hsdb:@term+@rn+@rel+58-94-6
   3. http://toxnet.nlm.nih.gov/cgi-bin/sis/search/r?dbs+hsdb:@term+@rn+@rel+58-94-6
   4. http://toxnet.nlm.nih.gov/cgi-bin/sis/search/r?dbs+hsdb:@term+@rn+@rel+58-94-6
   5. http://toxnet.nlm.nih.gov/cgi-bin/sis/search/r?dbs+hsdb:@term+@rn+@rel+58-94-6
   6. http://toxnet.nlm.nih.gov/cgi-bin/sis/search/r?dbs+hsdb:@term+@rn+@rel+58-94-6
   7. http://pubchem.ncbi.nlm.nih.gov/vw3d/vw3d.cgi?cid=2720
