   Color/Form
        Colorless, oily liquid ... darkens with age
   from [1]HSDB

   Odor

     * Peppermint odor
     * Faint ethereal odor

   from [2]HSDB

   Boiling Point
        209.5 deg C with decomposition
   from [3]HSDB

   Melting Point
        -25 deg C
   from [4]HSDB

   Corrosivity
        Noncorrosive
   from [5]HSDB

   Density/Specific Gravity
        1.172 g/cu cm @ 25 deg C
   from [6]HSDB

   Octanol/Water Partition Coefficient
        log Kow= 1.14
   from [7]HSDB

   Solubilities

     * Miscible in alcohol and ether.
     * In water, 7,000 mg/l @ 20 deg C

   from [8]HSDB

   Spectral Properties

     * Index of Refraction = 1.40037 @ 20 deg C/D
     * IR: 8023 (Sadtler Research Laboratories Prism Collection)
     * 13-C NMR: 13 (Johnson and Jankowski, Carbon-13 NMR Spectra, John
       Wilet & Sons, New York)
     * MASS: 5205 (NIST/EPA/MSDC Mass Spectral Database, 1990 Version);
       527 (atlas of Mass Spectral data, John Wiley & Sons, New York)

   from [9]HSDB

   Vapor Density
        5.31 (Air= 1)
   from [10]HSDB

   Vapor Pressure
        0.212 mm Hg @ 25 deg C
   from [11]HSDB

   Viscosity
        1.79 centipoises @ 20 deg C
   from [12]HSDB

   Other Chemical/Physical Properties

     * Liquid slightly heavier than water.
     * Gradually decomp by water; rapidly decomp by hot water into
       monoethyl sulfate and alcohol
     * Vapor pressure: 1 mm Hg @ 47 deg C
     * Wt/gal: 9.8 lb @ 20 deg C
     * Hydrolysis rate constant: 1.15X10-4/sec at 25 deg C; hydrolysis
       half-life = 1.7 hours at pH 7 and 298 K.
     * Hydroxyl radical reaction rate constant = 1.8X10-12 cu
       cm/molecule-sec @ 25 deg C

   from [13]HSDB

   Computed Properties
   Molecular Weight                  154.1848 [g/mol]
   Molecular Formula                 C[4]H[10]O[4]S
   XLogP3                            1.1
   H-Bond Donor                      0
   H-Bond Acceptor                   4
   Rotatable Bond Count              4
   Exact Mass                        154.02998
   MonoIsotopic Mass                 154.02998
   Topological Polar Surface Area    61
   Heavy Atom Count                  9
   Formal Charge                     0
   Complexity                        130
   Isotope Atom Count                0
   Defined Atom Stereocenter Count   0
   Undefined Atom Stereocenter Count 0
   Defined Bond Stereocenter Count   0
   Undefined Bond Stereocenter Count 0
   Covalently-Bonded Unit Count      1
   Feature 3D Acceptor Count         2
   Effective Rotor Count             4
   Conformer Sampling RMSD           0.6
   CID Conformer Count               [14]15

References

   1. http://toxnet.nlm.nih.gov/cgi-bin/sis/search/r?dbs+hsdb:@term+@rn+@rel+64-67-5
   2. http://toxnet.nlm.nih.gov/cgi-bin/sis/search/r?dbs+hsdb:@term+@rn+@rel+64-67-5
   3. http://toxnet.nlm.nih.gov/cgi-bin/sis/search/r?dbs+hsdb:@term+@rn+@rel+64-67-5
   4. http://toxnet.nlm.nih.gov/cgi-bin/sis/search/r?dbs+hsdb:@term+@rn+@rel+64-67-5
   5. http://toxnet.nlm.nih.gov/cgi-bin/sis/search/r?dbs+hsdb:@term+@rn+@rel+64-67-5
   6. http://toxnet.nlm.nih.gov/cgi-bin/sis/search/r?dbs+hsdb:@term+@rn+@rel+64-67-5
   7. http://toxnet.nlm.nih.gov/cgi-bin/sis/search/r?dbs+hsdb:@term+@rn+@rel+64-67-5
   8. http://toxnet.nlm.nih.gov/cgi-bin/sis/search/r?dbs+hsdb:@term+@rn+@rel+64-67-5
   9. http://toxnet.nlm.nih.gov/cgi-bin/sis/search/r?dbs+hsdb:@term+@rn+@rel+64-67-5
  10. http://toxnet.nlm.nih.gov/cgi-bin/sis/search/r?dbs+hsdb:@term+@rn+@rel+64-67-5
  11. http://toxnet.nlm.nih.gov/cgi-bin/sis/search/r?dbs+hsdb:@term+@rn+@rel+64-67-5
  12. http://toxnet.nlm.nih.gov/cgi-bin/sis/search/r?dbs+hsdb:@term+@rn+@rel+64-67-5
  13. http://toxnet.nlm.nih.gov/cgi-bin/sis/search/r?dbs+hsdb:@term+@rn+@rel+64-67-5
  14. http://pubchem.ncbi.nlm.nih.gov/vw3d/vw3d.cgi?cid=6163
