   Color/Form
        CRYSTALS
   from [1]HSDB

   Melting Point
        194-196 DEG C
   from [2]HSDB

   Spectral Properties
        SPECIFIC OPTICAL ROTATION: -45 DEG @ 20 DEG C/D (C= 0.5 IN
   PYRIDINE)
   from [3]HSDB

   Other Chemical/Physical Properties

     * MP IS UNCHARACTERISTIC SHOWING DECOMP ABOVE APPROX 165 DEG C;
       ODORLESS OR HAS NOT MORE THAN SLIGHT ODOR; WHITE TO YELLOWISH WHITE
       OR REDDISH WHITE CRYSTALLINE POWDER; 1 G SOL IN 200 ML WATER, 165
       ML ALCOHOL, 3400 ML CHLOROFORM; PRACTICALLY INSOL IN ETHER
       /MALEATE/
     * CRYSTALS; SPARINGLY SOL IN WATER /TARTRATE/
     * DECOMP ABOVE 165 DEG C; SOL IN METHANOL, LESS SOL IN WATER (1:250);
       PRACTICALLY INSOL IN ABSOLUTE ETHANOL; PRACTICALLY INSOL IN
       ABSOLUTE ETHANOL /DIMALEATE/

   from [4]HSDB

   Computed Properties
   Molecular Weight                  353.45798 [g/mol]
   Molecular Formula                 C[21]H[27]N[3]O[2]
   XLogP3                            2.3
   H-Bond Donor                      2
   H-Bond Acceptor                   3
   Rotatable Bond Count              4
   Tautomer Count                    2
   Exact Mass                        353.210327
   MonoIsotopic Mass                 353.210327
   Topological Polar Surface Area    57.5
   Heavy Atom Count                  26
   Formal Charge                     0
   Complexity                        578
   Isotope Atom Count                0
   Defined Atom Stereocenter Count   3
   Undefined Atom Stereocenter Count 0
   Defined Bond Stereocenter Count   0
   Undefined Bond Stereocenter Count 0
   Covalently-Bonded Unit Count      1
   Feature 3D Acceptor Count         2
   Feature 3D Donor Count            2
   Feature 3D Cation Count           2
   Feature 3D Hydrophobe Count       1
   Feature 3D Ring Count             4
   Effective Rotor Count             5.8
   Conformer Sampling RMSD           0.8
   CID Conformer Count               [5]30

References

   1. http://toxnet.nlm.nih.gov/cgi-bin/sis/search/r?dbs+hsdb:@term+@rn+@rel+361-37-5
   2. http://toxnet.nlm.nih.gov/cgi-bin/sis/search/r?dbs+hsdb:@term+@rn+@rel+361-37-5
   3. http://toxnet.nlm.nih.gov/cgi-bin/sis/search/r?dbs+hsdb:@term+@rn+@rel+361-37-5
   4. http://toxnet.nlm.nih.gov/cgi-bin/sis/search/r?dbs+hsdb:@term+@rn+@rel+361-37-5
   5. http://pubchem.ncbi.nlm.nih.gov/vw3d/vw3d.cgi?cid=9681
