68654
  -OEChem-07051213032D

 44 44  0     0  0  0  0  0  0999 V2000
    8.0622    3.7500    0.0000 S   0  0  0  0  0  0  0  0  0  0  0  0
    3.7320   -3.7500    0.0000 S   0  0  0  0  0  0  0  0  0  0  0  0
    2.8660   -5.2500    0.0000 Na  0  3  0  0  0  0  0  0  0  0  0  0
    8.9282    5.2500    0.0000 Na  0  3  0  0  0  0  0  0  0  0  0  0
    4.5981   -3.2500    0.0000 O   0  0  0  0  0  0  0  0  0  0  0  0
    8.0622    2.7500    0.0000 O   0  0  0  0  0  0  0  0  0  0  0  0
    2.8660   -4.2500    0.0000 O   0  5  0  0  0  0  0  0  0  0  0  0
    8.0622    4.7500    0.0000 O   0  5  0  0  0  0  0  0  0  0  0  0
    4.2320   -4.6160    0.0000 O   0  0  0  0  0  0  0  0  0  0  0  0
    3.2320   -2.8840    0.0000 O   0  0  0  0  0  0  0  0  0  0  0  0
    9.0622    3.7500    0.0000 O   0  0  0  0  0  0  0  0  0  0  0  0
    7.0622    3.7500    0.0000 O   0  0  0  0  0  0  0  0  0  0  0  0
    3.7320    2.2500    0.0000 N   0  0  0  0  0  0  0  0  0  0  0  0
    4.5981    0.7500    0.0000 C   0  0  0  0  0  0  0  0  0  0  0  0
    4.5981   -0.2500    0.0000 C   0  0  0  0  0  0  0  0  0  0  0  0
    5.4641    1.2500    0.0000 C   0  0  0  0  0  0  0  0  0  0  0  0
    3.7320    1.2500    0.0000 C   0  0  0  0  0  0  0  0  0  0  0  0
    3.7320   -0.7500    0.0000 C   0  0  0  0  0  0  0  0  0  0  0  0
    6.3301    0.7500    0.0000 C   0  0  0  0  0  0  0  0  0  0  0  0
    5.4641   -0.7500    0.0000 C   0  0  0  0  0  0  0  0  0  0  0  0
    5.4641    2.2500    0.0000 C   0  0  0  0  0  0  0  0  0  0  0  0
    2.8660    0.7500    0.0000 C   0  0  0  0  0  0  0  0  0  0  0  0
    3.7320   -1.7500    0.0000 C   0  0  0  0  0  0  0  0  0  0  0  0
    7.1962    1.2500    0.0000 C   0  0  0  0  0  0  0  0  0  0  0  0
    5.4641   -1.7500    0.0000 C   0  0  0  0  0  0  0  0  0  0  0  0
    6.3301    2.7500    0.0000 C   0  0  0  0  0  0  0  0  0  0  0  0
    4.5981   -2.2500    0.0000 C   0  0  0  0  0  0  0  0  0  0  0  0
    7.1962    2.2500    0.0000 C   0  0  0  0  0  0  0  0  0  0  0  0
    2.0000    1.2500    0.0000 C   0  0  0  0  0  0  0  0  0  0  0  0
    2.8660    2.7500    0.0000 C   0  0  0  0  0  0  0  0  0  0  0  0
    2.0000    2.2500    0.0000 C   0  0  0  0  0  0  0  0  0  0  0  0
    4.5981    1.3700    0.0000 H   0  0  0  0  0  0  0  0  0  0  0  0
    6.3301    0.1300    0.0000 H   0  0  0  0  0  0  0  0  0  0  0  0
    3.1951   -0.4400    0.0000 H   0  0  0  0  0  0  0  0  0  0  0  0
    4.9272    2.5600    0.0000 H   0  0  0  0  0  0  0  0  0  0  0  0
    6.0010   -0.4400    0.0000 H   0  0  0  0  0  0  0  0  0  0  0  0
    2.8660    0.1300    0.0000 H   0  0  0  0  0  0  0  0  0  0  0  0
    7.7331    0.9400    0.0000 H   0  0  0  0  0  0  0  0  0  0  0  0
    3.1951   -2.0600    0.0000 H   0  0  0  0  0  0  0  0  0  0  0  0
    6.3301    3.3700    0.0000 H   0  0  0  0  0  0  0  0  0  0  0  0
    6.0010   -2.0600    0.0000 H   0  0  0  0  0  0  0  0  0  0  0  0
    1.4631    0.9400    0.0000 H   0  0  0  0  0  0  0  0  0  0  0  0
    2.8660    3.3700    0.0000 H   0  0  0  0  0  0  0  0  0  0  0  0
    1.4631    2.5600    0.0000 H   0  0  0  0  0  0  0  0  0  0  0  0
  1  6  1  0  0  0  0
  1  8  1  0  0  0  0
  1 11  2  0  0  0  0
  1 12  2  0  0  0  0
  2  5  1  0  0  0  0
  2  7  1  0  0  0  0
  2  9  2  0  0  0  0
  2 10  2  0  0  0  0
  5 27  1  0  0  0  0
  6 28  1  0  0  0  0
 13 17  1  0  0  0  0
 13 30  2  0  0  0  0
 14 15  1  0  0  0  0
 14 16  1  0  0  0  0
 14 17  1  0  0  0  0
 14 32  1  0  0  0  0
 15 18  2  0  0  0  0
 15 20  1  0  0  0  0
 16 19  2  0  0  0  0
 16 21  1  0  0  0  0
 17 22  2  0  0  0  0
 18 23  1  0  0  0  0
 18 34  1  0  0  0  0
 19 24  1  0  0  0  0
 19 33  1  0  0  0  0
 20 25  2  0  0  0  0
 20 36  1  0  0  0  0
 21 26  2  0  0  0  0
 21 35  1  0  0  0  0
 22 29  1  0  0  0  0
 22 37  1  0  0  0  0
 23 27  2  0  0  0  0
 23 39  1  0  0  0  0
 24 28  2  0  0  0  0
 24 38  1  0  0  0  0
 25 27  1  0  0  0  0
 25 41  1  0  0  0  0
 26 28  1  0  0  0  0
 26 40  1  0  0  0  0
 29 31  2  0  0  0  0
 29 42  1  0  0  0  0
 30 31  1  0  0  0  0
 30 43  1  0  0  0  0
 31 44  1  0  0  0  0
M  CHG  4   3   1   4   1   7  -1   8  -1
M  END
> <PUBCHEM_COMPOUND_CID>
68654

> <PUBCHEM_COMPOUND_CANONICALIZED>
1

> <PUBCHEM_CACTVS_COMPLEXITY>
633

> <PUBCHEM_CACTVS_HBOND_ACCEPTOR>
9

> <PUBCHEM_CACTVS_HBOND_DONOR>
0

> <PUBCHEM_CACTVS_ROTATABLE_BOND>
5

> <PUBCHEM_CACTVS_SUBSKEYS>
AAADccB6PDBgAAAAAAAAAAAAAAAAAAAAAAA8YIAAAAAAAAAB0AAAHgAAAAAADQzBngQ8hpIIEACgAzRnRDCCgCAxIiAI2CA+bJgIJuLAkZOEMAhkwBHIyAeQwPAOoAAAAAAAAABAAAAAAAAAAAAAAAAAAA==

> <PUBCHEM_IUPAC_OPENEYE_NAME>
disodium [4-[2-pyridyl-(4-sulfonatooxyphenyl)methyl]phenyl] sulfate

> <PUBCHEM_IUPAC_CAS_NAME>
disodium [4-[2-pyridinyl-(4-sulfonatooxyphenyl)methyl]phenyl] sulfate

> <PUBCHEM_IUPAC_NAME>
disodium [4-[pyridin-2-yl-(4-sulfonatooxyphenyl)methyl]phenyl] sulfate

> <PUBCHEM_IUPAC_SYSTEMATIC_NAME>
disodium [4-[pyridin-2-yl-(4-sulfonatooxyphenyl)methyl]phenyl] sulfate

> <PUBCHEM_IUPAC_TRADITIONAL_NAME>
disodium [4-[2-pyridyl-(4-sulfatophenyl)methyl]phenyl] sulfate

> <PUBCHEM_IUPAC_INCHI>
InChI=1S/C18H15NO8S2.2Na/c20-28(21,22)26-15-8-4-13(5-9-15)18(17-3-1-2-12-19-17)14-6-10-16(11-7-14)27-29(23,24)25;;/h1-12,18H,(H,20,21,22)(H,23,24,25);;/q;2*+1/p-2

> <PUBCHEM_IUPAC_INCHIKEY>
GOZDTZWAMGHLDY-UHFFFAOYSA-L

> <PUBCHEM_EXACT_MASS>
480.987797

> <PUBCHEM_MOLECULAR_FORMULA>
C18H13NNa2O8S2

> <PUBCHEM_MOLECULAR_WEIGHT>
481.407259

> <PUBCHEM_OPENEYE_CAN_SMILES>
C1=CC=NC(=C1)C(C2=CC=C(C=C2)OS(=O)(=O)[O-])C3=CC=C(C=C3)OS(=O)(=O)[O-].[Na+].[Na+]

> <PUBCHEM_OPENEYE_ISO_SMILES>
C1=CC=NC(=C1)C(C2=CC=C(C=C2)OS(=O)(=O)[O-])C3=CC=C(C=C3)OS(=O)(=O)[O-].[Na+].[Na+]

> <PUBCHEM_CACTVS_TPSA>
163

> <PUBCHEM_MONOISOTOPIC_WEIGHT>
480.987797

> <PUBCHEM_TOTAL_CHARGE>
0

> <PUBCHEM_HEAVY_ATOM_COUNT>
31

> <PUBCHEM_ATOM_DEF_STEREO_COUNT>
0

> <PUBCHEM_ATOM_UDEF_STEREO_COUNT>
0

> <PUBCHEM_BOND_DEF_STEREO_COUNT>
0

> <PUBCHEM_BOND_UDEF_STEREO_COUNT>
0

> <PUBCHEM_ISOTOPIC_ATOM_COUNT>
0

> <PUBCHEM_COMPONENT_COUNT>
3

> <PUBCHEM_CACTVS_TAUTO_COUNT>
1

> <PUBCHEM_COORDINATE_TYPE>
1
5
255

> <PUBCHEM_BONDANNOTATIONS>
13  17  8
13  30  8
15  18  8
15  20  8
16  19  8
16  21  8
17  22  8
18  23  8
19  24  8
20  25  8
21  26  8
22  29  8
23  27  8
24  28  8
25  27  8
26  28  8
29  31  8
30  31  8

$$$$

