65645
  -OEChem-07051213062D

 47 49  0     0  0  0  0  0  0999 V2000
    3.7320    1.3722    0.0000 O   0  0  0  0  0  0  0  0  0  0  0  0
   11.8600    0.3722    0.0000 O   0  0  0  0  0  0  0  0  0  0  0  0
    2.8660   -0.1278    0.0000 O   0  0  0  0  0  0  0  0  0  0  0  0
   11.8600    2.1042    0.0000 O   0  0  0  0  0  0  0  0  0  0  0  0
    7.2764   -0.4326    0.0000 N   0  0  0  0  0  0  0  0  0  0  0  0
    7.8600    0.3722    0.0000 C   0  0  0  0  0  0  0  0  0  0  0  0
    6.3301   -0.1278    0.0000 C   0  0  0  0  0  0  0  0  0  0  0  0
    7.2764    1.1769    0.0000 C   0  0  0  0  0  0  0  0  0  0  0  0
    6.3301    0.8722    0.0000 C   0  0  0  0  0  0  0  0  0  0  0  0
    7.5870   -1.3831    0.0000 C   0  0  0  0  0  0  0  0  0  0  0  0
    8.8600    0.3722    0.0000 C   0  0  0  0  0  0  0  0  0  0  0  0
    5.4641   -0.6278    0.0000 C   0  0  0  0  0  0  0  0  0  0  0  0
    5.4641    1.3722    0.0000 C   0  0  0  0  0  0  0  0  0  0  0  0
    7.5870    2.1274    0.0000 C   0  0  0  0  0  0  0  0  0  0  0  0
    4.5981    0.8722    0.0000 C   0  0  0  0  0  0  0  0  0  0  0  0
    6.9192   -2.1274    0.0000 C   0  0  0  0  0  0  0  0  0  0  0  0
    4.5981   -0.1278    0.0000 C   0  0  0  0  0  0  0  0  0  0  0  0
    9.3600   -0.4939    0.0000 C   0  0  0  0  0  0  0  0  0  0  0  0
    9.3600    1.2382    0.0000 C   0  0  0  0  0  0  0  0  0  0  0  0
   10.3600   -0.4939    0.0000 C   0  0  0  0  0  0  0  0  0  0  0  0
   10.3600    1.2382    0.0000 C   0  0  0  0  0  0  0  0  0  0  0  0
   10.8600    0.3722    0.0000 C   0  0  0  0  0  0  0  0  0  0  0  0
    2.8660    0.8722    0.0000 C   0  0  0  0  0  0  0  0  0  0  0  0
    2.0000    1.3722    0.0000 C   0  0  0  0  0  0  0  0  0  0  0  0
   12.3600    1.2382    0.0000 C   0  0  0  0  0  0  0  0  0  0  0  0
   13.3600    1.2382    0.0000 C   0  0  0  0  0  0  0  0  0  0  0  0
    7.9696   -1.8710    0.0000 H   0  0  0  0  0  0  0  0  0  0  0  0
    8.1339   -1.0911    0.0000 H   0  0  0  0  0  0  0  0  0  0  0  0
    5.4641   -1.2478    0.0000 H   0  0  0  0  0  0  0  0  0  0  0  0
    5.4641    1.9922    0.0000 H   0  0  0  0  0  0  0  0  0  0  0  0
    8.1763    1.9348    0.0000 H   0  0  0  0  0  0  0  0  0  0  0  0
    7.7796    2.7167    0.0000 H   0  0  0  0  0  0  0  0  0  0  0  0
    6.9977    2.3200    0.0000 H   0  0  0  0  0  0  0  0  0  0  0  0
    6.4577   -1.7133    0.0000 H   0  0  0  0  0  0  0  0  0  0  0  0
    6.5051   -2.5889    0.0000 H   0  0  0  0  0  0  0  0  0  0  0  0
    7.3806   -2.5415    0.0000 H   0  0  0  0  0  0  0  0  0  0  0  0
    4.0611   -0.4378    0.0000 H   0  0  0  0  0  0  0  0  0  0  0  0
    9.0500   -1.0308    0.0000 H   0  0  0  0  0  0  0  0  0  0  0  0
    9.0500    1.7751    0.0000 H   0  0  0  0  0  0  0  0  0  0  0  0
   10.6700   -1.0308    0.0000 H   0  0  0  0  0  0  0  0  0  0  0  0
   10.6700    1.7751    0.0000 H   0  0  0  0  0  0  0  0  0  0  0  0
    2.3100    1.9091    0.0000 H   0  0  0  0  0  0  0  0  0  0  0  0
    1.4631    1.6822    0.0000 H   0  0  0  0  0  0  0  0  0  0  0  0
    1.6900    0.8352    0.0000 H   0  0  0  0  0  0  0  0  0  0  0  0
   13.3600    0.6182    0.0000 H   0  0  0  0  0  0  0  0  0  0  0  0
   13.9800    1.2382    0.0000 H   0  0  0  0  0  0  0  0  0  0  0  0
   13.3600    1.8582    0.0000 H   0  0  0  0  0  0  0  0  0  0  0  0
  1 15  1  0  0  0  0
  1 23  1  0  0  0  0
  2 22  1  0  0  0  0
  2 25  1  0  0  0  0
  3 23  2  0  0  0  0
  4 25  2  0  0  0  0
  5  6  1  0  0  0  0
  5  7  1  0  0  0  0
  5 10  1  0  0  0  0
  6  8  2  0  0  0  0
  6 11  1  0  0  0  0
  7  9  2  0  0  0  0
  7 12  1  0  0  0  0
  8  9  1  0  0  0  0
  8 14  1  0  0  0  0
  9 13  1  0  0  0  0
 10 16  1  0  0  0  0
 10 27  1  0  0  0  0
 10 28  1  0  0  0  0
 11 18  2  0  0  0  0
 11 19  1  0  0  0  0
 12 17  2  0  0  0  0
 12 29  1  0  0  0  0
 13 15  2  0  0  0  0
 13 30  1  0  0  0  0
 14 31  1  0  0  0  0
 14 32  1  0  0  0  0
 14 33  1  0  0  0  0
 15 17  1  0  0  0  0
 16 34  1  0  0  0  0
 16 35  1  0  0  0  0
 16 36  1  0  0  0  0
 17 37  1  0  0  0  0
 18 20  1  0  0  0  0
 18 38  1  0  0  0  0
 19 21  2  0  0  0  0
 19 39  1  0  0  0  0
 20 22  2  0  0  0  0
 20 40  1  0  0  0  0
 21 22  1  0  0  0  0
 21 41  1  0  0  0  0
 23 24  1  0  0  0  0
 24 42  1  0  0  0  0
 24 43  1  0  0  0  0
 24 44  1  0  0  0  0
 25 26  1  0  0  0  0
 26 45  1  0  0  0  0
 26 46  1  0  0  0  0
 26 47  1  0  0  0  0
M  END
> <PUBCHEM_COMPOUND_CID>
65645

> <PUBCHEM_COMPOUND_CANONICALIZED>
1

> <PUBCHEM_CACTVS_COMPLEXITY>
514

> <PUBCHEM_CACTVS_HBOND_ACCEPTOR>
4

> <PUBCHEM_CACTVS_HBOND_DONOR>
0

> <PUBCHEM_CACTVS_ROTATABLE_BOND>
6

> <PUBCHEM_CACTVS_SUBSKEYS>
AAADceB6OAAAAAAAAAAAAAAAAAAAAWAAAAAwYAAAAAAAAFgB9AAAHgAAAAAADAzBngQyzvMMFACoAyTyTACCiCAhIiAI2CA+bJgMJuLEsZuGOijkwBHI6Aew0PMOoEABAAACAABAgAIAAAQAAAAAAAAAAA==

> <PUBCHEM_IUPAC_OPENEYE_NAME>
[4-(5-acetoxy-1-ethyl-3-methyl-indol-2-yl)phenyl] acetate

> <PUBCHEM_IUPAC_CAS_NAME>
acetic acid [4-(5-acetyloxy-1-ethyl-3-methyl-2-indolyl)phenyl] ester

> <PUBCHEM_IUPAC_NAME>
[4-(5-acetyloxy-1-ethyl-3-methylindol-2-yl)phenyl] acetate

> <PUBCHEM_IUPAC_SYSTEMATIC_NAME>
[4-(5-acetyloxy-1-ethyl-3-methyl-indol-2-yl)phenyl] ethanoate

> <PUBCHEM_IUPAC_TRADITIONAL_NAME>
acetic acid [4-(5-acetoxy-1-ethyl-3-methyl-indol-2-yl)phenyl] ester

> <PUBCHEM_IUPAC_INCHI>
InChI=1S/C21H21NO4/c1-5-22-20-11-10-18(26-15(4)24)12-19(20)13(2)21(22)16-6-8-17(9-7-16)25-14(3)23/h6-12H,5H2,1-4H3

> <PUBCHEM_IUPAC_INCHIKEY>
KSZGVNZSUJHOJA-UHFFFAOYSA-N

> <PUBCHEM_XLOGP3_AA>
3.8

> <PUBCHEM_EXACT_MASS>
351.147058

> <PUBCHEM_MOLECULAR_FORMULA>
C21H21NO4

> <PUBCHEM_MOLECULAR_WEIGHT>
351.39574

> <PUBCHEM_OPENEYE_CAN_SMILES>
CCN1C2=C(C=C(C=C2)OC(=O)C)C(=C1C3=CC=C(C=C3)OC(=O)C)C

> <PUBCHEM_OPENEYE_ISO_SMILES>
CCN1C2=C(C=C(C=C2)OC(=O)C)C(=C1C3=CC=C(C=C3)OC(=O)C)C

> <PUBCHEM_CACTVS_TPSA>
57.5

> <PUBCHEM_MONOISOTOPIC_WEIGHT>
351.147058

> <PUBCHEM_TOTAL_CHARGE>
0

> <PUBCHEM_HEAVY_ATOM_COUNT>
26

> <PUBCHEM_ATOM_DEF_STEREO_COUNT>
0

> <PUBCHEM_ATOM_UDEF_STEREO_COUNT>
0

> <PUBCHEM_BOND_DEF_STEREO_COUNT>
0

> <PUBCHEM_BOND_UDEF_STEREO_COUNT>
0

> <PUBCHEM_ISOTOPIC_ATOM_COUNT>
0

> <PUBCHEM_COMPONENT_COUNT>
1

> <PUBCHEM_CACTVS_TAUTO_COUNT>
1

> <PUBCHEM_COORDINATE_TYPE>
1
5
255

> <PUBCHEM_BONDANNOTATIONS>
11  18  8
11  19  8
12  17  8
13  15  8
15  17  8
18  20  8
19  21  8
20  22  8
21  22  8
5  6  8
5  7  8
6  8  8
7  12  8
7  9  8
8  9  8
9  13  8

$$$$

