   Color/Form

     * Needles or elongated plates from water or ethylene dichloride
     * Yellow plates or needles from water
     * White to greyish-white or yellowish-white fine crystalline powder
       or fine crystals, needles or elongated plates. Of the four possible
       stereoisomers, only the alphaR,betaR (or D-threo) form is active
       ... .

   from [1]HSDB

   Taste
        Bitter to taste
   from [2]HSDB

   Boiling Point
        Sublimes
   from [3]HSDB

   Melting Point
        150.5-151.5 deg C
   from [4]HSDB

   Octanol/Water Partition Coefficient
        log Kow = 1.14
   from [5]HSDB

   pH
        NEUTRAL TO LITMUS
   from [6]HSDB

   Solubilities

     * Solubility in propylene glycol: 150.8 mg/mol. Very sol in methanol,
       ethanol, butanol, ethyl acetate, acetone. Fairly soluble in ether.
       Insoluble in benzene, petroleum ether, vegetable oils. Solubility
       in 50% acetamide solution about 5%.
     * Very soluble in chloroform
     * In water, 25,000 mg/L at 25 deg C

   from [7]HSDB

   Spectral Properties

     * Specific optical rotation: +18.6 deg @ 20 deg C/D (c= 4.86 in
       ethanol); -25.5 deg @ 25 deg C/d (ethyl acetate).
     * IR: u 5174 (Coblentz Society spectral collection)
     * UV: 385 (Adsorption Spectra in the UV and Visible Region, Academic
       Press, New York)
     * MASS: 236 (The Aldrich Handbook of Organic Chemicals and
       Biochemicals, Aldrich Chemical Co., Inc., Aldrich Chemical Co.,
       Milwaukee, WI)

   from [8]HSDB

   Vapor Pressure
        1.7X10-12 mm Hg at 25 deg C /Estimated/
   from [9]HSDB

   Other Chemical/Physical Properties

     * Aqueous solutions are neutral. Neutral and acid solutions are
       stable on heating.
     * Crystals from benzene, mp 90 deg C. Practically tasteless. Specific
       optical rotation: +24.6 deg @ 26 deg C/D (c= 5 in ethanol), uv max
       (ethanol): 271 nm (absorbance of a solution containing one gram per
       100 ml contained in a cell having an absorption path of one cm =
       179). Very slightly soluble in water (1.05 mg/ml @ 28 deg C;
       petroleum ether (0.225 mg/ml). Freely soluble in methanol, ethanol,
       chloroform, ether, benzene. /Palmitate/
     * MW: 597.41, mp 135-145 deg C (decomposes) /Monosuccinate arginine
       salt/
     * MW: 445.19. Freely soluble in water (about 50% wt/wt)
       /Monosuccinate sodium salt/
     * Henry's Law constant = 2.3X10-18 atm-cu m/mol at 25 deg C
       /Estimated/
     * Hydroxyl radical reaction rate constant = 3.1 X10-11 cu
       cm/molecule-sec at 25 deg C /Estimated/

   from [10]HSDB

   Computed Properties
   Molecular Weight                  323.12938 [g/mol]
   Molecular Formula                 C[11]H[12]Cl[2]N[2]O[5]
   XLogP3                            1.1
   H-Bond Donor                      3
   H-Bond Acceptor                   5
   Rotatable Bond Count              5
   Tautomer Count                    2
   Exact Mass                        322.012327
   MonoIsotopic Mass                 322.012327
   Topological Polar Surface Area    115
   Heavy Atom Count                  20
   Formal Charge                     0
   Complexity                        342
   Isotope Atom Count                0
   Defined Atom Stereocenter Count   2
   Undefined Atom Stereocenter Count 0
   Defined Bond Stereocenter Count   0
   Undefined Bond Stereocenter Count 0
   Covalently-Bonded Unit Count      1
   Feature 3D Acceptor Count         5
   Feature 3D Donor Count            3
   Feature 3D Anion Count            1
   Feature 3D Ring Count             1
   Effective Rotor Count             7
   Conformer Sampling RMSD           0.8
   CID Conformer Count               [11]21

References

   1. http://toxnet.nlm.nih.gov/cgi-bin/sis/search/r?dbs+hsdb:@term+@rn+@rel+56-75-7
   2. http://toxnet.nlm.nih.gov/cgi-bin/sis/search/r?dbs+hsdb:@term+@rn+@rel+56-75-7
   3. http://toxnet.nlm.nih.gov/cgi-bin/sis/search/r?dbs+hsdb:@term+@rn+@rel+56-75-7
   4. http://toxnet.nlm.nih.gov/cgi-bin/sis/search/r?dbs+hsdb:@term+@rn+@rel+56-75-7
   5. http://toxnet.nlm.nih.gov/cgi-bin/sis/search/r?dbs+hsdb:@term+@rn+@rel+56-75-7
   6. http://toxnet.nlm.nih.gov/cgi-bin/sis/search/r?dbs+hsdb:@term+@rn+@rel+56-75-7
   7. http://toxnet.nlm.nih.gov/cgi-bin/sis/search/r?dbs+hsdb:@term+@rn+@rel+56-75-7
   8. http://toxnet.nlm.nih.gov/cgi-bin/sis/search/r?dbs+hsdb:@term+@rn+@rel+56-75-7
   9. http://toxnet.nlm.nih.gov/cgi-bin/sis/search/r?dbs+hsdb:@term+@rn+@rel+56-75-7
  10. http://toxnet.nlm.nih.gov/cgi-bin/sis/search/r?dbs+hsdb:@term+@rn+@rel+56-75-7
  11. http://pubchem.ncbi.nlm.nih.gov/vw3d/vw3d.cgi?cid=5959
