17396545
  -OEChem-06241222572D

 41 42  0     0  0  0  0  0  0999 V2000
    6.6381   -0.7068    0.0000 O   0  0  0  0  0  0  0  0  0  0  0  0
    2.5878    2.2359    0.0000 O   0  0  0  0  0  0  0  0  0  0  0  0
    7.1733    0.9405    0.0000 O   0  0  0  0  0  0  0  0  0  0  0  0
    3.9890    3.2540    0.0000 O   0  0  0  0  0  0  0  0  0  0  0  0
    7.0539   -2.6631    0.0000 O   0  0  0  0  0  0  0  0  0  0  0  0
    4.6701   -0.0074    0.0000 N   0  0  0  0  0  0  0  0  0  0  0  0
    9.5571   -1.7152    0.0000 N   0  0  0  0  0  0  0  0  0  0  0  0
    5.1701    1.5314    0.0000 C   0  0  0  0  0  0  0  0  0  0  0  0
    4.1701    1.5314    0.0000 C   0  0  0  0  0  0  0  0  0  0  0  0
    5.4791    0.5804    0.0000 C   0  0  0  0  0  0  0  0  0  0  0  0
    3.8611    0.5804    0.0000 C   0  0  0  0  0  0  0  0  0  0  0  0
    5.7579    2.3405    0.0000 C   0  0  0  0  0  0  0  0  0  0  0  0
    2.9100    0.2714    0.0000 C   0  0  0  0  0  0  0  0  0  0  0  0
    6.4302    0.2714    0.0000 C   0  0  0  0  0  0  0  0  0  0  0  0
    8.7481   -2.3030    0.0000 C   0  0  0  0  0  0  0  0  0  0  0  0
    3.5823    2.3405    0.0000 C   0  0  0  0  0  0  0  0  0  0  0  0
    7.5891   -1.0158    0.0000 C   0  0  0  0  0  0  0  0  0  0  0  0
    7.7970   -1.9939    0.0000 C   0  0  0  0  0  0  0  0  0  0  0  0
    9.0571   -3.2540    0.0000 C   0  0  0  0  0  0  0  0  0  0  0  0
   10.3661   -2.3030    0.0000 C   0  0  0  0  0  0  0  0  0  0  0  0
   10.0571   -3.2540    0.0000 C   0  0  0  0  0  0  0  0  0  0  0  0
    9.5571   -0.7152    0.0000 C   0  0  0  0  0  0  0  0  0  0  0  0
    2.0000    3.0450    0.0000 C   0  0  0  0  0  0  0  0  0  0  0  0
    4.6701   -0.6274    0.0000 H   0  0  0  0  0  0  0  0  0  0  0  0
    6.2595    1.9760    0.0000 H   0  0  0  0  0  0  0  0  0  0  0  0
    6.1223    2.8421    0.0000 H   0  0  0  0  0  0  0  0  0  0  0  0
    5.2563    2.7049    0.0000 H   0  0  0  0  0  0  0  0  0  0  0  0
    2.7184    0.8610    0.0000 H   0  0  0  0  0  0  0  0  0  0  0  0
    2.3204    0.0798    0.0000 H   0  0  0  0  0  0  0  0  0  0  0  0
    3.1016   -0.3183    0.0000 H   0  0  0  0  0  0  0  0  0  0  0  0
    8.2088   -0.9942    0.0000 H   0  0  0  0  0  0  0  0  0  0  0  0
    7.6754   -0.4018    0.0000 H   0  0  0  0  0  0  0  0  0  0  0  0
    8.6927   -3.7556    0.0000 H   0  0  0  0  0  0  0  0  0  0  0  0
   10.9558   -2.1114    0.0000 H   0  0  0  0  0  0  0  0  0  0  0  0
   10.4215   -3.7556    0.0000 H   0  0  0  0  0  0  0  0  0  0  0  0
   10.1771   -0.7152    0.0000 H   0  0  0  0  0  0  0  0  0  0  0  0
    9.5571   -0.0952    0.0000 H   0  0  0  0  0  0  0  0  0  0  0  0
    8.9371   -0.7152    0.0000 H   0  0  0  0  0  0  0  0  0  0  0  0
    2.5016    3.4094    0.0000 H   0  0  0  0  0  0  0  0  0  0  0  0
    1.6356    3.5465    0.0000 H   0  0  0  0  0  0  0  0  0  0  0  0
    1.4984    2.6805    0.0000 H   0  0  0  0  0  0  0  0  0  0  0  0
  1 14  1  0  0  0  0
  1 17  1  0  0  0  0
  2 16  1  0  0  0  0
  2 23  1  0  0  0  0
  3 14  2  0  0  0  0
  4 16  2  0  0  0  0
  5 18  2  0  0  0  0
  6 10  1  0  0  0  0
  6 11  1  0  0  0  0
  6 24  1  0  0  0  0
  7 15  1  0  0  0  0
  7 20  1  0  0  0  0
  7 22  1  0  0  0  0
  8  9  1  0  0  0  0
  8 10  2  0  0  0  0
  8 12  1  0  0  0  0
  9 11  2  0  0  0  0
  9 16  1  0  0  0  0
 10 14  1  0  0  0  0
 11 13  1  0  0  0  0
 12 25  1  0  0  0  0
 12 26  1  0  0  0  0
 12 27  1  0  0  0  0
 13 28  1  0  0  0  0
 13 29  1  0  0  0  0
 13 30  1  0  0  0  0
 15 18  1  0  0  0  0
 15 19  2  0  0  0  0
 17 18  1  0  0  0  0
 17 31  1  0  0  0  0
 17 32  1  0  0  0  0
 19 21  1  0  0  0  0
 19 33  1  0  0  0  0
 20 21  2  0  0  0  0
 20 34  1  0  0  0  0
 21 35  1  0  0  0  0
 22 36  1  0  0  0  0
 22 37  1  0  0  0  0
 22 38  1  0  0  0  0
 23 39  1  0  0  0  0
 23 40  1  0  0  0  0
 23 41  1  0  0  0  0
M  END
> <PUBCHEM_COMPOUND_CID>
17396545

> <PUBCHEM_COMPOUND_CANONICALIZED>
1

> <PUBCHEM_CACTVS_COMPLEXITY>
481

> <PUBCHEM_CACTVS_HBOND_ACCEPTOR>
5

> <PUBCHEM_CACTVS_HBOND_DONOR>
1

> <PUBCHEM_CACTVS_ROTATABLE_BOND>
7

> <PUBCHEM_CACTVS_SUBSKEYS>
AAADceB7OAAAAAAAAAAAAAAAAAAAAWLAAAAAAAAAAAAAAAAB4AAAHgAQAAAADAzhngY+iJPNlACoA7T3TAaCgCA3AiAI2SH4bNgKJvrAtb2HEYhm0AHY6ce8fwkegAAAAAAAAAAAAAAAAAAAAAAAAAAAAA==

> <PUBCHEM_IUPAC_OPENEYE_NAME>
O4-methyl O2-[2-(1-methylpyrrol-2-yl)-2-oxo-ethyl] 3,5-dimethyl-1H-pyrrole-2,4-dicarboxylate

> <PUBCHEM_IUPAC_CAS_NAME>
3,5-dimethyl-1H-pyrrole-2,4-dicarboxylic acid O4-methyl ester O2-[2-(1-methyl-2-pyrrolyl)-2-oxoethyl] ester

> <PUBCHEM_IUPAC_NAME>
4-O-methyl 2-O-[2-(1-methylpyrrol-2-yl)-2-oxoethyl] 3,5-dimethyl-1H-pyrrole-2,4-dicarboxylate

> <PUBCHEM_IUPAC_SYSTEMATIC_NAME>
O4-methyl O2-[2-(1-methylpyrrol-2-yl)-2-oxidanylidene-ethyl] 3,5-dimethyl-1H-pyrrole-2,4-dicarboxylate

> <PUBCHEM_IUPAC_TRADITIONAL_NAME>
3,5-dimethyl-1H-pyrrole-2,4-dicarboxylic acid O2-[2-keto-2-(1-methylpyrrol-2-yl)ethyl] ester O4-methyl ester

> <PUBCHEM_IUPAC_INCHI>
InChI=1S/C16H18N2O5/c1-9-13(15(20)22-4)10(2)17-14(9)16(21)23-8-12(19)11-6-5-7-18(11)3/h5-7,17H,8H2,1-4H3

> <PUBCHEM_IUPAC_INCHIKEY>
DFVCTUWUIILXHZ-UHFFFAOYSA-N

> <PUBCHEM_XLOGP3_AA>
2

> <PUBCHEM_EXACT_MASS>
318.121572

> <PUBCHEM_MOLECULAR_FORMULA>
C16H18N2O5

> <PUBCHEM_MOLECULAR_WEIGHT>
318.32452

> <PUBCHEM_OPENEYE_CAN_SMILES>
CC1=C(NC(=C1C(=O)OC)C)C(=O)OCC(=O)C2=CC=CN2C

> <PUBCHEM_OPENEYE_ISO_SMILES>
CC1=C(NC(=C1C(=O)OC)C)C(=O)OCC(=O)C2=CC=CN2C

> <PUBCHEM_CACTVS_TPSA>
90.4

> <PUBCHEM_MONOISOTOPIC_WEIGHT>
318.121572

> <PUBCHEM_TOTAL_CHARGE>
0

> <PUBCHEM_HEAVY_ATOM_COUNT>
23

> <PUBCHEM_ATOM_DEF_STEREO_COUNT>
0

> <PUBCHEM_ATOM_UDEF_STEREO_COUNT>
0

> <PUBCHEM_BOND_DEF_STEREO_COUNT>
0

> <PUBCHEM_BOND_UDEF_STEREO_COUNT>
0

> <PUBCHEM_ISOTOPIC_ATOM_COUNT>
0

> <PUBCHEM_COMPONENT_COUNT>
1

> <PUBCHEM_CACTVS_TAUTO_COUNT>
20

> <PUBCHEM_COORDINATE_TYPE>
1
5
255

> <PUBCHEM_BONDANNOTATIONS>
15  19  8
19  21  8
20  21  8
6  10  8
6  11  8
7  15  8
7  20  8
8  10  8
8  9  8
9  11  8

$$$$

