   Chemical and Physical Properties References

   [1]USDA ARS - USDA chemical properties
   from [2]ChemIDplus

   Color/Form

     * Tan to brown crystalline solid
     * Powder
     * Off-white crystalline solid

   from [3]HSDB

   Odor
        ... Mild chemical odor. /Gardona/
   from [4]HSDB

   Melting Point
        97-98 deg C
   from [5]HSDB

   Octanol/Water Partition Coefficient
        log Kow = 3.53
   from [6]HSDB

   Solubilities

     * Solubility in acetone <200, dichloromethane 400, xylene <150 (all
       in g/kg, 20 deg C)
     * Partially soluble in chloroform
     * Limited solubility in most aromatic hydrocarbons.
     * In water, 11 mg/L at 20 deg C

   from [7]HSDB

   Vapor Pressure
        4.20X10-8 mm Hg at 20 deg C
   from [8]HSDB

   Other Chemical/Physical Properties

     * Off-white, crystalline solid /Technical grade/
     * Melting point = 94-97 deg C
     * Bulk density 50-55 lb/cu ft
     * SOLUBILITY IS LOW IN HYDROCARBON SOLVENTS; TECHNICAL RABON NOT LESS
       THAN 94% BY WT ACTIVE INGREDIENT. /TECHNICAL PRODUCT/
     * Henry's Law constant = 1.8X10-9 atm-cu m/mol at 25 deg C (est)
     * Hydroxyl radical reaction rate constant = 2.41X10-11 cu
       cm/molec-sec at 25 deg C (est)

   from [9]HSDB

   Computed Properties
   Molecular Weight                  365.961822 [g/mol]
   Molecular Formula                 C[10]H[9]Cl[4]O[4]P
   XLogP3                            3.5
   H-Bond Donor                      0
   H-Bond Acceptor                   4
   Rotatable Bond Count              5
   Exact Mass                        365.896306
   MonoIsotopic Mass                 363.899256
   Topological Polar Surface Area    44.8
   Heavy Atom Count                  19
   Formal Charge                     0
   Complexity                        371
   Isotope Atom Count                0
   Defined Atom Stereocenter Count   0
   Undefined Atom Stereocenter Count 0
   Defined Bond Stereocenter Count   1
   Undefined Bond Stereocenter Count 0
   Covalently-Bonded Unit Count      1
   Feature 3D Acceptor Count         1
   Feature 3D Ring Count             1
   Effective Rotor Count             5
   Conformer Sampling RMSD           0.6
   CID Conformer Count               [10]74

References

   1. http://www.ars.usda.gov/SP2UserFiles/ad_hoc/12755100DatabaseFiles/PesticidePropertiesDatabase/IndividualPesticideFiles/TETRACHLORVINPHOS.TXT
   2. http://chem.sis.nlm.nih.gov/chemidplus/
   3. http://toxnet.nlm.nih.gov/cgi-bin/sis/search/r?dbs+hsdb:@term+@rn+@rel+22248-79-9
   4. http://toxnet.nlm.nih.gov/cgi-bin/sis/search/r?dbs+hsdb:@term+@rn+@rel+22248-79-9
   5. http://toxnet.nlm.nih.gov/cgi-bin/sis/search/r?dbs+hsdb:@term+@rn+@rel+22248-79-9
   6. http://toxnet.nlm.nih.gov/cgi-bin/sis/search/r?dbs+hsdb:@term+@rn+@rel+22248-79-9
   7. http://toxnet.nlm.nih.gov/cgi-bin/sis/search/r?dbs+hsdb:@term+@rn+@rel+22248-79-9
   8. http://toxnet.nlm.nih.gov/cgi-bin/sis/search/r?dbs+hsdb:@term+@rn+@rel+22248-79-9
   9. http://toxnet.nlm.nih.gov/cgi-bin/sis/search/r?dbs+hsdb:@term+@rn+@rel+22248-79-9
  10. http://pubchem.ncbi.nlm.nih.gov/vw3d/vw3d.cgi?cid=5284462
