6438887
  -OEChem-07051213032D

 44 46  0     0  0  0  0  0  0999 V2000
    6.0682    3.1433    0.0000 O   0  0  0  0  0  0  0  0  0  0  0  0
    7.8167    3.1779    0.0000 O   0  0  0  0  0  0  0  0  0  0  0  0
    4.3198    3.1779    0.0000 O   0  0  0  0  0  0  0  0  0  0  0  0
    2.5381    0.1192    0.0000 O   0  0  0  0  0  0  0  0  0  0  0  0
   10.4663    1.6708    0.0000 O   0  0  0  0  0  0  0  0  0  0  0  0
   10.4586   -1.3841    0.0000 O   0  0  0  0  0  0  0  0  0  0  0  0
    7.8548   -2.8741    0.0000 O   0  0  0  0  0  0  0  0  0  0  0  0
    9.5868   -2.8808    0.0000 O   0  0  0  0  0  0  0  0  0  0  0  0
    6.9343    1.6433    0.0000 C   0  0  0  0  0  0  0  0  0  0  0  0
    6.9343    0.6433    0.0000 C   0  0  0  0  0  0  0  0  0  0  0  0
    5.2022    1.6433    0.0000 C   0  0  0  0  0  0  0  0  0  0  0  0
    5.2022    0.6433    0.0000 C   0  0  0  0  0  0  0  0  0  0  0  0
    6.0682    2.1433    0.0000 C   0  0  0  0  0  0  0  0  0  0  0  0
    6.0682    0.1433    0.0000 C   0  0  0  0  0  0  0  0  0  0  0  0
    7.8282    2.1780    0.0000 C   0  0  0  0  0  0  0  0  0  0  0  0
    8.7343    1.6642    0.0000 C   0  0  0  0  0  0  0  0  0  0  0  0
    8.7343    0.6225    0.0000 C   0  0  0  0  0  0  0  0  0  0  0  0
    7.8282    0.1087    0.0000 C   0  0  0  0  0  0  0  0  0  0  0  0
    4.3083    2.1780    0.0000 C   0  0  0  0  0  0  0  0  0  0  0  0
    4.3083    0.1087    0.0000 C   0  0  0  0  0  0  0  0  0  0  0  0
    9.5984    0.1192    0.0000 C   0  0  0  0  0  0  0  0  0  0  0  0
    9.5984    2.1675    0.0000 C   0  0  0  0  0  0  0  0  0  0  0  0
    3.4022    0.6225    0.0000 C   0  0  0  0  0  0  0  0  0  0  0  0
    3.4022    1.6642    0.0000 C   0  0  0  0  0  0  0  0  0  0  0  0
    9.5945   -0.8808    0.0000 C   0  0  0  0  0  0  0  0  0  0  0  0
    9.5945    3.1675    0.0000 C   0  0  0  0  0  0  0  0  0  0  0  0
    8.7266   -1.3775    0.0000 C   0  0  0  0  0  0  0  0  0  0  0  0
    8.7227   -2.3775    0.0000 C   0  0  0  0  0  0  0  0  0  0  0  0
    6.0682   -0.4767    0.0000 H   0  0  0  0  0  0  0  0  0  0  0  0
    7.8210   -0.5113    0.0000 H   0  0  0  0  0  0  0  0  0  0  0  0
    4.3154   -0.5113    0.0000 H   0  0  0  0  0  0  0  0  0  0  0  0
   10.1365    0.4271    0.0000 H   0  0  0  0  0  0  0  0  0  0  0  0
    2.8665    1.9762    0.0000 H   0  0  0  0  0  0  0  0  0  0  0  0
    5.5313    3.4533    0.0000 H   0  0  0  0  0  0  0  0  0  0  0  0
    8.3500    3.4941    0.0000 H   0  0  0  0  0  0  0  0  0  0  0  0
   10.2145    3.1699    0.0000 H   0  0  0  0  0  0  0  0  0  0  0  0
    9.5921    3.7875    0.0000 H   0  0  0  0  0  0  0  0  0  0  0  0
    8.9745    3.1651    0.0000 H   0  0  0  0  0  0  0  0  0  0  0  0
    8.5168   -0.7940    0.0000 H   0  0  0  0  0  0  0  0  0  0  0  0
    8.1156   -1.4828    0.0000 H   0  0  0  0  0  0  0  0  0  0  0  0
    3.7865    3.4941    0.0000 H   0  0  0  0  0  0  0  0  0  0  0  0
    2.0000    0.4271    0.0000 H   0  0  0  0  0  0  0  0  0  0  0  0
   10.4562   -2.0041    0.0000 H   0  0  0  0  0  0  0  0  0  0  0  0
    7.8524   -3.4941    0.0000 H   0  0  0  0  0  0  0  0  0  0  0  0
  1 13  1  0  0  0  0
  1 34  1  0  0  0  0
  2 15  1  0  0  0  0
  2 35  1  0  0  0  0
  3 19  1  0  0  0  0
  3 41  1  0  0  0  0
  4 23  1  0  0  0  0
  4 42  1  0  0  0  0
  5 22  2  0  0  0  0
  6 25  1  0  0  0  0
  6 43  1  0  0  0  0
  7 28  1  0  0  0  0
  7 44  1  0  0  0  0
  8 28  2  0  0  0  0
  9 10  1  0  0  0  0
  9 13  1  0  0  0  0
  9 15  2  0  0  0  0
 10 14  1  0  0  0  0
 10 18  2  0  0  0  0
 11 12  1  0  0  0  0
 11 13  2  0  0  0  0
 11 19  1  0  0  0  0
 12 14  2  0  0  0  0
 12 20  1  0  0  0  0
 14 29  1  0  0  0  0
 15 16  1  0  0  0  0
 16 17  2  0  0  0  0
 16 22  1  0  0  0  0
 17 18  1  0  0  0  0
 17 21  1  0  0  0  0
 18 30  1  0  0  0  0
 19 24  2  0  0  0  0
 20 23  2  0  0  0  0
 20 31  1  0  0  0  0
 21 25  2  0  0  0  0
 21 32  1  0  0  0  0
 22 26  1  0  0  0  0
 23 24  1  0  0  0  0
 24 33  1  0  0  0  0
 25 27  1  0  0  0  0
 26 36  1  0  0  0  0
 26 37  1  0  0  0  0
 26 38  1  0  0  0  0
 27 28  1  0  0  0  0
 27 39  1  0  0  0  0
 27 40  1  0  0  0  0
M  END
> <PUBCHEM_COMPOUND_CID>
6438887

> <PUBCHEM_COMPOUND_CANONICALIZED>
1

> <PUBCHEM_CACTVS_COMPLEXITY>
646

> <PUBCHEM_CACTVS_HBOND_ACCEPTOR>
8

> <PUBCHEM_CACTVS_HBOND_DONOR>
6

> <PUBCHEM_CACTVS_ROTATABLE_BOND>
4

> <PUBCHEM_CACTVS_SUBSKEYS>
AAADceB4PAAAAAAAAAAAAAAAAAAAAAAAAAAwYMAAAAAAAADBVAAAGgAACAAADASAmAAyDsAAAgCIAqDSCAACAAAkIAAAiAEGCMgIJzaCFRKAcUAl4BUImQeI7PTO4AADCAAYAADAAAYQADAAAAAAAAAAAA==

> <PUBCHEM_IUPAC_OPENEYE_NAME>
(E)-4-(3-acetyl-4,5,7,10-tetrahydroxy-2-anthryl)-3-hydroxy-but-3-enoic acid

> <PUBCHEM_IUPAC_CAS_NAME>
(E)-4-(3-acetyl-4,5,7,10-tetrahydroxy-2-anthracenyl)-3-hydroxy-3-butenoic acid

> <PUBCHEM_IUPAC_NAME>
(E)-4-(3-acetyl-4,5,7,10-tetrahydroxyanthracen-2-yl)-3-hydroxybut-3-enoic acid

> <PUBCHEM_IUPAC_SYSTEMATIC_NAME>
(E)-4-[3-ethanoyl-4,5,7,10-tetrakis(oxidanyl)anthracen-2-yl]-3-oxidanyl-but-3-enoic acid

> <PUBCHEM_IUPAC_TRADITIONAL_NAME>
(E)-4-(3-acetyl-4,5,7,10-tetrahydroxy-2-anthryl)-3-hydroxy-but-3-enoic acid

> <PUBCHEM_IUPAC_INCHI>
InChI=1S/C20H16O8/c1-8(21)16-10(4-13(23)7-15(25)26)2-9-3-11-5-12(22)6-14(24)17(11)20(28)18(9)19(16)27/h2-6,22-24,27-28H,7H2,1H3,(H,25,26)/b13-4+

> <PUBCHEM_IUPAC_INCHIKEY>
DHOSUPJHLBTMAV-YIXHJXPBSA-N

> <PUBCHEM_XLOGP3_AA>
2.8

> <PUBCHEM_EXACT_MASS>
384.084517

> <PUBCHEM_MOLECULAR_FORMULA>
C20H16O8

> <PUBCHEM_MOLECULAR_WEIGHT>
384.33624

> <PUBCHEM_OPENEYE_CAN_SMILES>
CC(=O)C1=C(C2=C(C3=C(C=C(C=C3C=C2C=C1C=C(CC(=O)O)O)O)O)O)O

> <PUBCHEM_OPENEYE_ISO_SMILES>
CC(=O)C1=C(C2=C(C3=C(C=C(C=C3C=C2C=C1/C=C(\CC(=O)O)/O)O)O)O)O

> <PUBCHEM_CACTVS_TPSA>
156

> <PUBCHEM_MONOISOTOPIC_WEIGHT>
384.084517

> <PUBCHEM_TOTAL_CHARGE>
0

> <PUBCHEM_HEAVY_ATOM_COUNT>
28

> <PUBCHEM_ATOM_DEF_STEREO_COUNT>
0

> <PUBCHEM_ATOM_UDEF_STEREO_COUNT>
0

> <PUBCHEM_BOND_DEF_STEREO_COUNT>
1

> <PUBCHEM_BOND_UDEF_STEREO_COUNT>
0

> <PUBCHEM_ISOTOPIC_ATOM_COUNT>
0

> <PUBCHEM_COMPONENT_COUNT>
1

> <PUBCHEM_CACTVS_TAUTO_COUNT>
998

> <PUBCHEM_COORDINATE_TYPE>
1
5
255

> <PUBCHEM_BONDANNOTATIONS>
10  14  8
10  18  8
11  12  8
11  13  8
11  19  8
12  14  8
12  20  8
15  16  8
16  17  8
17  18  8
19  24  8
20  23  8
23  24  8
9  10  8
9  13  8
9  15  8

$$$$

