   Chemical and Physical Properties References

   [1]USDA ARS - USDA chemical properties
   from [2]ChemIDplus

   Color/Form
        Crystals
   from [3]HSDB

   Melting Point
        240-242 deg C
   from [4]HSDB

   Octanol/Water Partition Coefficient
        log Kow = 6.75 (est)
   from [5]HSDB

   Solubilities
        In water, 0.014 mg/L at 25 deg C (est)
   from [6]HSDB

   Spectral Properties
        Intense mass spectral peaks: 193 m/z (100%), 195 m/z (97%), 66 m/z
   (80%), 263 m/z (37%)
   from [7]HSDB

   Vapor Pressure
        4.40X10-5 mm Hg at 25 deg C (est)
   from [8]HSDB

   Other Chemical/Physical Properties

     * Decomposes above 100 deg C; an isomer of aldrin
     * Examination of the spectra and the ionic composition from mass
       measurements disclosed that isodrin yields strong peaks
       corresponding to the elimination of hexachlorocyclopentadiene as
       the neutral species in a retro-diels-alder process.
     * Henry's Law constant = 3.9X10-4 atm-cu m/mol at 25 deg C (est)
     * Hydroxyl radical reaction rate constant = 6.67X10-13 cu
       cm/molec-sec at 25 deg C (est)

   from [9]HSDB

   Computed Properties
   Molecular Weight                  364.90992 [g/mol]
   Molecular Formula                 C[12]H[8]Cl[6]
   XLogP3-AA                         4.5
   H-Bond Donor                      0
   H-Bond Acceptor                   0
   Rotatable Bond Count              0
   Exact Mass                        363.872766
   MonoIsotopic Mass                 361.875716
   Topological Polar Surface Area    0
   Heavy Atom Count                  18
   Formal Charge                     0
   Complexity                        481
   Isotope Atom Count                0
   Defined Atom Stereocenter Count   6
   Undefined Atom Stereocenter Count 0
   Defined Bond Stereocenter Count   0
   Undefined Bond Stereocenter Count 0
   Covalently-Bonded Unit Count      1

References

   1. http://www.ars.usda.gov/SP2UserFiles/ad_hoc/12755100DatabaseFiles/PesticidePropertiesDatabase/IndividualPesticideFiles/ALDRIN.TXT
   2. http://chem.sis.nlm.nih.gov/chemidplus/
   3. http://toxnet.nlm.nih.gov/cgi-bin/sis/search/r?dbs+hsdb:@term+@rn+@rel+465-73-6
   4. http://toxnet.nlm.nih.gov/cgi-bin/sis/search/r?dbs+hsdb:@term+@rn+@rel+465-73-6
   5. http://toxnet.nlm.nih.gov/cgi-bin/sis/search/r?dbs+hsdb:@term+@rn+@rel+465-73-6
   6. http://toxnet.nlm.nih.gov/cgi-bin/sis/search/r?dbs+hsdb:@term+@rn+@rel+465-73-6
   7. http://toxnet.nlm.nih.gov/cgi-bin/sis/search/r?dbs+hsdb:@term+@rn+@rel+465-73-6
   8. http://toxnet.nlm.nih.gov/cgi-bin/sis/search/r?dbs+hsdb:@term+@rn+@rel+465-73-6
   9. http://toxnet.nlm.nih.gov/cgi-bin/sis/search/r?dbs+hsdb:@term+@rn+@rel+465-73-6
