   Color/Form
        PLATES, LEAFLETS FROM ACETONE & ALC, FAINT GREENISH-YELLOW TINGE
   from [1]HSDB

   Melting Point
        123.5 DEG C
   from [2]HSDB

   Octanol/Water Partition Coefficient
        Log Kow = 5.80
   from [3]HSDB

   Solubilities

     * SLIGHTLY SOL IN ALC; SOL IN CARBON DISULFIDE, TOLUENE
     * MAY BE SOLUBILIZED IN WATER BY PURINES SUCH AS CAFFEINE,
       TETRAMETHYLURIC ACID; NUCLEOSIDES, ADENOSINE, & GUANOSINE ALSO SHOW
       A SOLVENT ACTION
     * 0.055 mg/l water @ 24 deg C (99% purity)
     * Freely soluble in benzene; moderately soluble in acetone; slightly
       soluble in alcohol

   from [4]HSDB

   Spectral Properties

     * MAX ABSORPTION (ALC): 296 NM (LOG E= 4.90); 345 NM (LOG E= 3.83);
       364 NM (LOG E= 3.54); 384 NM (LOG E= 3.83)
     * MAX FLUORESCENCE @ 440 NM
     * Intense mass spectral peaks: 256 m/z (100%), 241 m/z (40%), 239 m/z
       (37%), 240 m/z (24%)
     * IR: 23860 (Sadtler Research Laboratories IR Grating Collection)
     * NMR: 15010 (Sadtler Research Laboratories Spectral Collection)
     * MASS: 1823 (National Bureau of Standards EPA-NIH Mass Spectra Data
       Base, NSRDS-NBS-63)

   from [5]HSDB

   Computed Properties
   Molecular Weight                  256.34104 [g/mol]
   Molecular Formula                 C[20]H[16]
   XLogP3                            5.8
   H-Bond Donor                      0
   H-Bond Acceptor                   0
   Rotatable Bond Count              0
   Exact Mass                        256.125201
   MonoIsotopic Mass                 256.125201
   Topological Polar Surface Area    0
   Heavy Atom Count                  20
   Formal Charge                     0
   Complexity                        346
   Isotope Atom Count                0
   Defined Atom Stereocenter Count   0
   Undefined Atom Stereocenter Count 0
   Defined Bond Stereocenter Count   0
   Undefined Bond Stereocenter Count 0
   Covalently-Bonded Unit Count      1
   Feature 3D Ring Count             4
   Effective Rotor Count             0
   Conformer Sampling RMSD           0.6
   CID Conformer Count               [6]1

References

   1. http://toxnet.nlm.nih.gov/cgi-bin/sis/search/r?dbs+hsdb:@term+@rn+@rel+57-97-6
   2. http://toxnet.nlm.nih.gov/cgi-bin/sis/search/r?dbs+hsdb:@term+@rn+@rel+57-97-6
   3. http://toxnet.nlm.nih.gov/cgi-bin/sis/search/r?dbs+hsdb:@term+@rn+@rel+57-97-6
   4. http://toxnet.nlm.nih.gov/cgi-bin/sis/search/r?dbs+hsdb:@term+@rn+@rel+57-97-6
   5. http://toxnet.nlm.nih.gov/cgi-bin/sis/search/r?dbs+hsdb:@term+@rn+@rel+57-97-6
   6. http://pubchem.ncbi.nlm.nih.gov/vw3d/vw3d.cgi?cid=6001
