   Color/Form

     * Crystals from ethyl acetate
     * WHITE, CRYSTALLINE POWDER

   from [1]HSDB

   Odor
        ODORLESS
   from [2]HSDB

   Melting Point
        231-234 deg C, decomposes
   from [3]HSDB

   Octanol/Water Partition Coefficient
        log Kow= 1.94
   from [4]HSDB

   Solubilities

     * SPARINGLY SOL IN ACETONE AND ALC
     * SPARINGLY SOL IN DIOXANE, METHANOL; VERY SLIGHTLY SOL IN CHLOROFORM
       & ETHER
     * In water, 66.5 mg/l @ 25 deg C

   from [5]HSDB

   Spectral Properties

     * Specific optical rotation: +63.5 deg @ 24 deg C/D (dioxane)
     * Specific optical rotation: +108 deg/D acetone; max UV absorption
       (methanol)

   from [6]HSDB

   Other Chemical/Physical Properties

     * SOLUBILITIES: 1 G IN 1.6 ML WATER & 6.25 ML METHANOL; PRACTICALLY
       INSOL IN ACETONE, CHLOROFORM /SODIUM PHOSPHATE/
     * Hexagonal prisims from acetone and ether; MP 205-208 deg C; also
       reported as MP 196-201 deg C; specific optical rotation: +140 deg
       (chloroform); UV max (methanol: 238 nm (E 14800) /21-acetate/
     * Crystals from acetone-ether, MP 225-228 deg C; specific optical
       rotation: +63.5 deg C at 24 deg C/D (dioxane) /17-benzoate/
     * Powder, MP 170-179 deg C (decomposes); specific optical rotation:
       +65.7 deg at 26 deg C/D (dioxane); UV max (methanol): 238 nm (E
       15700) /17,21-dipropionate/
     * Needles from acetone + petroleum ether; MP 183-184 deg C; specific
       optical rotation: +77 deg (dioxane); UV max: 239 nm (E 15920)
       /17-valerate/

   from [7]HSDB

   Computed Properties
   Molecular Weight                  392.461063 [g/mol]
   Molecular Formula                 C[22]H[29]FO[5]
   XLogP3                            1.9
   H-Bond Donor                      3
   H-Bond Acceptor                   6
   Rotatable Bond Count              2
   Tautomer Count                    9
   Exact Mass                        392.199902
   MonoIsotopic Mass                 392.199902
   Topological Polar Surface Area    94.8
   Heavy Atom Count                  28
   Formal Charge                     0
   Complexity                        805
   Isotope Atom Count                0
   Defined Atom Stereocenter Count   8
   Undefined Atom Stereocenter Count 0
   Defined Bond Stereocenter Count   0
   Undefined Bond Stereocenter Count 0
   Covalently-Bonded Unit Count      1
   Feature 3D Acceptor Count         5
   Feature 3D Donor Count            3
   Feature 3D Ring Count             4
   Effective Rotor Count             3.4
   Conformer Sampling RMSD           0.8
   CID Conformer Count               [8]2

References

   1. http://toxnet.nlm.nih.gov/cgi-bin/sis/search/r?dbs+hsdb:@term+@rn+@rel+378-44-9
   2. http://toxnet.nlm.nih.gov/cgi-bin/sis/search/r?dbs+hsdb:@term+@rn+@rel+378-44-9
   3. http://toxnet.nlm.nih.gov/cgi-bin/sis/search/r?dbs+hsdb:@term+@rn+@rel+378-44-9
   4. http://toxnet.nlm.nih.gov/cgi-bin/sis/search/r?dbs+hsdb:@term+@rn+@rel+378-44-9
   5. http://toxnet.nlm.nih.gov/cgi-bin/sis/search/r?dbs+hsdb:@term+@rn+@rel+378-44-9
   6. http://toxnet.nlm.nih.gov/cgi-bin/sis/search/r?dbs+hsdb:@term+@rn+@rel+378-44-9
   7. http://toxnet.nlm.nih.gov/cgi-bin/sis/search/r?dbs+hsdb:@term+@rn+@rel+378-44-9
   8. http://pubchem.ncbi.nlm.nih.gov/vw3d/vw3d.cgi?cid=9782
