   Color/Form
        Solid
   from [1]HSDB

   Octanol/Water Partition Coefficient
        log Kow = 2.29
   from [2]HSDB

   Solubilities

     * Moderate solubility in water.
     * In water, 4.35X10+5 mg/L at 25 deg C (est)

   from [3]HSDB

   Vapor Pressure
        2.74X10-13 mm Hg at 25 deg C (est)
   from [4]HSDB

   Other Chemical/Physical Properties

     * MW 883.09. Crystals from ethanol, MP 172-173 deg C /Hemifumarate
     * Henry's Law Constant = 4.127X10-15 atm-cu m/mole at 25 deg C (est)
     * Hydroxyl radical reaction rate constant = 2.52X10-14 cu
       cm/molec-sec at 25 deg C (est)

   from [5]HSDB

   Computed Properties
   Molecular Weight                  383.5071 [g/mol]
   Molecular Formula                 C[21]H[25]N[3]O[2]S
   XLogP3-AA                         2.1
   H-Bond Donor                      1
   H-Bond Acceptor                   5
   Rotatable Bond Count              6
   Exact Mass                        383.166748
   MonoIsotopic Mass                 383.166748
   Topological Polar Surface Area    73.6
   Heavy Atom Count                  27
   Formal Charge                     0
   Complexity                        496
   Isotope Atom Count                0
   Defined Atom Stereocenter Count   0
   Undefined Atom Stereocenter Count 0
   Defined Bond Stereocenter Count   0
   Undefined Bond Stereocenter Count 0
   Covalently-Bonded Unit Count      1
   Feature 3D Acceptor Count         2
   Feature 3D Donor Count            1
   Feature 3D Cation Count           2
   Feature 3D Ring Count             4
   Effective Rotor Count             7.4
   Conformer Sampling RMSD           0.8
   CID Conformer Count               [6]119

References

   1. http://toxnet.nlm.nih.gov/cgi-bin/sis/search/r?dbs+hsdb:@term+@rn+@rel+111974-69-7
   2. http://toxnet.nlm.nih.gov/cgi-bin/sis/search/r?dbs+hsdb:@term+@rn+@rel+111974-69-7
   3. http://toxnet.nlm.nih.gov/cgi-bin/sis/search/r?dbs+hsdb:@term+@rn+@rel+111974-69-7
   4. http://toxnet.nlm.nih.gov/cgi-bin/sis/search/r?dbs+hsdb:@term+@rn+@rel+111974-69-7
   5. http://toxnet.nlm.nih.gov/cgi-bin/sis/search/r?dbs+hsdb:@term+@rn+@rel+111974-69-7
   6. http://pubchem.ncbi.nlm.nih.gov/vw3d/vw3d.cgi?cid=5002
