656724
  -OEChem-07051213042D

 20 20  0     1  0  0  0  0  0999 V2000
    4.2601   -1.9236    0.0000 O   0  0  0  0  0  0  0  0  0  0  0  0
    2.0000   -0.6636    0.0000 O   0  0  0  0  0  0  0  0  0  0  0  0
    4.6261    2.1152    0.0000 O   0  0  0  0  0  0  0  0  0  0  0  0
    5.4921    0.6152    0.0000 O   0  0  0  0  0  0  0  0  0  0  0  0
    3.2601   -1.9236    0.0000 N   0  0  0  0  0  0  0  0  0  0  0  0
    2.8940    1.1152    0.0000 N   0  0  0  0  0  0  0  0  0  0  0  0
    3.7601   -0.3848    0.0000 C   0  0  0  0  0  0  0  0  0  0  0  0
    3.7601    0.6152    0.0000 C   0  0  2  0  0  0  0  0  0  0  0  0
    4.5691   -0.9726    0.0000 C   0  0  0  0  0  0  0  0  0  0  0  0
    2.9511   -0.9726    0.0000 C   0  0  0  0  0  0  0  0  0  0  0  0
    5.5202   -0.6636    0.0000 C   0  0  0  0  0  0  0  0  0  0  0  0
    4.6261    1.1152    0.0000 C   0  0  0  0  0  0  0  0  0  0  0  0
    3.2231    0.3052    0.0000 H   0  0  0  0  0  0  0  0  0  0  0  0
    5.7117   -1.2532    0.0000 H   0  0  0  0  0  0  0  0  0  0  0  0
    6.1098   -0.4720    0.0000 H   0  0  0  0  0  0  0  0  0  0  0  0
    5.3286   -0.0739    0.0000 H   0  0  0  0  0  0  0  0  0  0  0  0
    2.8956   -2.4252    0.0000 H   0  0  0  0  0  0  0  0  0  0  0  0
    2.8940    1.7352    0.0000 H   0  0  0  0  0  0  0  0  0  0  0  0
    2.3571    0.8052    0.0000 H   0  0  0  0  0  0  0  0  0  0  0  0
    5.1630    2.4252    0.0000 H   0  0  0  0  0  0  0  0  0  0  0  0
  1  5  1  0  0  0  0
  1  9  1  0  0  0  0
  2 10  2  0  0  0  0
  3 12  1  0  0  0  0
  3 20  1  0  0  0  0
  4 12  2  0  0  0  0
  5 10  1  0  0  0  0
  5 17  1  0  0  0  0
  8  6  1  1  0  0  0
  6 18  1  0  0  0  0
  6 19  1  0  0  0  0
  7  8  1  0  0  0  0
  7  9  2  0  0  0  0
  7 10  1  0  0  0  0
  8 12  1  0  0  0  0
  8 13  1  0  0  0  0
  9 11  1  0  0  0  0
 11 14  1  0  0  0  0
 11 15  1  0  0  0  0
 11 16  1  0  0  0  0
M  END
> <PUBCHEM_COMPOUND_CID>
656724

> <PUBCHEM_COMPOUND_CANONICALIZED>
1

> <PUBCHEM_CACTVS_COMPLEXITY>
271

> <PUBCHEM_CACTVS_HBOND_ACCEPTOR>
5

> <PUBCHEM_CACTVS_HBOND_DONOR>
3

> <PUBCHEM_CACTVS_ROTATABLE_BOND>
2

> <PUBCHEM_CACTVS_SUBSKEYS>
AAADccBjOAAAAAAAAAAAAAAAAAAAAQAAAAAAAAAAAAAAAAAAAAAAHgAUCAAADCzBgAQCCABQAgCIAgHQGACAAAAgIAAgCIGAAEgCABgAwAAAQAAEQAAIAQInAAAAAAAAAAAAAAAAAAAAAAAAAAAAAAAAAA==

> <PUBCHEM_IUPAC_OPENEYE_NAME>
(2R)-2-amino-2-(5-methyl-3-oxo-isoxazol-4-yl)acetic acid

> <PUBCHEM_IUPAC_CAS_NAME>
(2R)-2-amino-2-(5-methyl-3-oxo-4-isoxazolyl)acetic acid

> <PUBCHEM_IUPAC_NAME>
(2R)-2-amino-2-(5-methyl-3-oxo-1,2-oxazol-4-yl)acetic acid

> <PUBCHEM_IUPAC_SYSTEMATIC_NAME>
(2R)-2-azanyl-2-(5-methyl-3-oxidanylidene-1,2-oxazol-4-yl)ethanoic acid

> <PUBCHEM_IUPAC_TRADITIONAL_NAME>
(2R)-2-amino-2-(3-keto-5-methyl-4-isoxazolin-4-yl)acetic acid

> <PUBCHEM_IUPAC_INCHI>
InChI=1S/C6H8N2O4/c1-2-3(4(7)6(10)11)5(9)8-12-2/h4H,7H2,1H3,(H,8,9)(H,10,11)/t4-/m1/s1

> <PUBCHEM_IUPAC_INCHIKEY>
XIHYCWZNHQMZSX-SCSAIBSYSA-N

> <PUBCHEM_XLOGP3_AA>
-3

> <PUBCHEM_EXACT_MASS>
172.048407

> <PUBCHEM_MOLECULAR_FORMULA>
C6H8N2O4

> <PUBCHEM_MOLECULAR_WEIGHT>
172.13872

> <PUBCHEM_OPENEYE_CAN_SMILES>
CC1=C(C(=O)NO1)C(C(=O)O)N

> <PUBCHEM_OPENEYE_ISO_SMILES>
CC1=C(C(=O)NO1)[C@H](C(=O)O)N

> <PUBCHEM_CACTVS_TPSA>
102

> <PUBCHEM_MONOISOTOPIC_WEIGHT>
172.048407

> <PUBCHEM_TOTAL_CHARGE>
0

> <PUBCHEM_HEAVY_ATOM_COUNT>
12

> <PUBCHEM_ATOM_DEF_STEREO_COUNT>
1

> <PUBCHEM_ATOM_UDEF_STEREO_COUNT>
0

> <PUBCHEM_BOND_DEF_STEREO_COUNT>
0

> <PUBCHEM_BOND_UDEF_STEREO_COUNT>
0

> <PUBCHEM_ISOTOPIC_ATOM_COUNT>
0

> <PUBCHEM_COMPONENT_COUNT>
1

> <PUBCHEM_CACTVS_TAUTO_COUNT>
2

> <PUBCHEM_COORDINATE_TYPE>
1
5
255

> <PUBCHEM_BONDANNOTATIONS>
1  5  8
1  9  8
5  10  8
8  6  5
7  10  8
7  9  8

$$$$

