   Chemical and Physical Properties References

   [1]USDA ARS - USDA chemical properties
   from [2]ChemIDplus

   Color/Form

     * Colorless needles
     * Brown to white, crystalline solid
     * Colorless to dark brown crystalline solid ...

   from [3]HSDB

   Odor
        ... Mild chemical odor ...
   from [4]HSDB

   Boiling Point
        145 deg C at 2 mm Hg
   from [5]HSDB

   Melting Point
        104 deg C
   from [6]HSDB

   Corrosivity

     * NONCORROSIVE TO STEEL, BRASS, MONEL, COPPER, NICKEL, ALUMINUM
     * Corrosive to metals, owing to the slow formation of hydrogen
       chloride during storage.

   from [7]HSDB

   Density/Specific Gravity
        1.6 at 20 deg C/4 deg C (solid)
   from [8]HSDB

   Octanol/Water Partition Coefficient
        Log kow= 6.50
   from [9]HSDB

   Solubilities

     * 0.027 MG/L IN WATER AT 27 DEG C; > 600 G/L AT 27 DEG C IN ACETONE,
       BENZENE, XYLENE
     * Sol in aromatics, esters, ketones, paraffins and halogenated
       solvents.
     * Sol in ethanol, ether, and acetone.
     * Moderately sol in petroleum oils
     * In water, 170 mg/l @ 25 deg C

   from [10]HSDB

   Spectral Properties

     * SADTLER REFERENCE NUMBER: 1935 (IR, PRISM)
     * Intense mass spectral peaks: 66 m/z (100%), 79 m/z (43%), 91 m/z
       (34%), 263 m/z (32%)
     * IR: 15178 (Sadtler Research Laboratories IR Grating Collection)
     * UV: 8-224 (Organic Electronic Spectral Data, Phillips et al, John
       Wiley & Sons, New York)
     * NMR: 6239 (Sadtler Research Laboratories Spectral Collection)
     * MASS: 2832 (National Bureau of Standards EPA-NIH Mass Spectra Data
       Base, NSRDS-NBS-63)
     * Intense mass spectral peaks: 261 m/z, 291 m/z, 327 m/z, 362 m/z

   from [11]HSDB

   Vapor Pressure
        1.20X10-4 mm Hg @ 25 deg C
   from [12]HSDB

   Other Chemical/Physical Properties

     * OCCURS AS FOUR ISOMERS
     * EPOXIDATION OF ALDRIN WITH PERACETIC OR PERBENZOIC ACID FORMS THE
       6,7-EPOXY DERIVATIVE, DIELDRIN
     * MP: 40-60 DEG C /TECHNICAL GRADE ALDRIN/
     * TAN TO DARK BROWN WAXY SOLID /TECHNICAL GRADE ALDRIN (95%)/
     * Conversion factor: 1 ppm= 14.96 mg/cu m at 25 deg and 760 mm Hg
     * Decomposes on boiling
     * Henry's Law constant = 4.4X10-5 atm-cu m/mole @ 25 deg C

   from [13]HSDB

   Computed Properties
   Molecular Weight                  364.90992 [g/mol]
   Molecular Formula                 C[12]H[8]Cl[6]
   XLogP3-AA                         4.5
   H-Bond Donor                      0
   H-Bond Acceptor                   0
   Rotatable Bond Count              0
   Exact Mass                        363.872766
   MonoIsotopic Mass                 361.875716
   Topological Polar Surface Area    0
   Heavy Atom Count                  18
   Formal Charge                     0
   Complexity                        481
   Isotope Atom Count                0
   Defined Atom Stereocenter Count   6
   Undefined Atom Stereocenter Count 0
   Defined Bond Stereocenter Count   0
   Undefined Bond Stereocenter Count 0
   Covalently-Bonded Unit Count      1

References

   1. http://www.ars.usda.gov/SP2UserFiles/ad_hoc/12755100DatabaseFiles/PesticidePropertiesDatabase/IndividualPesticideFiles/ALDRIN.TXT
   2. http://chem.sis.nlm.nih.gov/chemidplus/
   3. http://toxnet.nlm.nih.gov/cgi-bin/sis/search/r?dbs+hsdb:@term+@rn+@rel+309-00-2
   4. http://toxnet.nlm.nih.gov/cgi-bin/sis/search/r?dbs+hsdb:@term+@rn+@rel+309-00-2
   5. http://toxnet.nlm.nih.gov/cgi-bin/sis/search/r?dbs+hsdb:@term+@rn+@rel+309-00-2
   6. http://toxnet.nlm.nih.gov/cgi-bin/sis/search/r?dbs+hsdb:@term+@rn+@rel+309-00-2
   7. http://toxnet.nlm.nih.gov/cgi-bin/sis/search/r?dbs+hsdb:@term+@rn+@rel+309-00-2
   8. http://toxnet.nlm.nih.gov/cgi-bin/sis/search/r?dbs+hsdb:@term+@rn+@rel+309-00-2
   9. http://toxnet.nlm.nih.gov/cgi-bin/sis/search/r?dbs+hsdb:@term+@rn+@rel+309-00-2
  10. http://toxnet.nlm.nih.gov/cgi-bin/sis/search/r?dbs+hsdb:@term+@rn+@rel+309-00-2
  11. http://toxnet.nlm.nih.gov/cgi-bin/sis/search/r?dbs+hsdb:@term+@rn+@rel+309-00-2
  12. http://toxnet.nlm.nih.gov/cgi-bin/sis/search/r?dbs+hsdb:@term+@rn+@rel+309-00-2
  13. http://toxnet.nlm.nih.gov/cgi-bin/sis/search/r?dbs+hsdb:@term+@rn+@rel+309-00-2
