5361997
  -OEChem-07051213132D

 34 35  0     1  0  0  0  0  0999 V2000
    7.5640   -1.8509    0.0000 O   0  0  0  0  0  0  0  0  0  0  0  0
    6.5640   -1.8509    0.0000 N   0  0  0  0  0  0  0  0  0  0  0  0
    3.7543    1.7224    0.0000 C   0  0  0  0  0  0  0  0  0  0  0  0
    4.2320   -0.2261    0.0000 C   0  0  3  0  0  0  0  0  0  0  0  0
    4.4909    0.7398    0.0000 C   0  0  3  0  0  0  0  0  0  0  0  0
    2.5000   -1.2261    0.0000 C   0  0  0  0  0  0  0  0  0  0  0  0
    2.0000   -0.3601    0.0000 C   0  0  0  0  0  0  0  0  0  0  0  0
    6.3228   -0.0190    0.0000 C   0  0  0  0  0  0  0  0  0  0  0  0
    6.0640   -0.9849    0.0000 C   0  0  0  0  0  0  0  0  0  0  0  0
    3.8588    2.7170    0.0000 C   0  0  0  0  0  0  0  0  0  0  0  0
    2.8407    2.1292    0.0000 C   0  0  0  0  0  0  0  0  0  0  0  0
    3.9732   -1.1920    0.0000 C   0  0  0  0  0  0  0  0  0  0  0  0
    8.0640   -2.7170    0.0000 C   0  0  0  0  0  0  0  0  0  0  0  0
    9.0640   -2.7170    0.0000 C   0  0  0  0  0  0  0  0  0  0  0  0
   10.0640   -2.7170    0.0000 C   0  0  0  0  0  0  0  0  0  0  0  0
    4.4980    0.1199    0.0000 H   0  0  0  0  0  0  0  0  0  0  0  0
    1.9631   -1.5361    0.0000 H   0  0  0  0  0  0  0  0  0  0  0  0
    2.8100   -1.7630    0.0000 H   0  0  0  0  0  0  0  0  0  0  0  0
    1.7294    0.1977    0.0000 H   0  0  0  0  0  0  0  0  0  0  0  0
    1.4523   -0.6506    0.0000 H   0  0  0  0  0  0  0  0  0  0  0  0
    6.9141   -0.2054    0.0000 H   0  0  0  0  0  0  0  0  0  0  0  0
    6.5349    0.5636    0.0000 H   0  0  0  0  0  0  0  0  0  0  0  0
    3.0929    2.6956    0.0000 H   0  0  0  0  0  0  0  0  0  0  0  0
    4.4754    2.6522    0.0000 H   0  0  0  0  0  0  0  0  0  0  0  0
    3.9236    3.3336    0.0000 H   0  0  0  0  0  0  0  0  0  0  0  0
    3.2422    2.7818    0.0000 H   0  0  0  0  0  0  0  0  0  0  0  0
    2.2743    2.3814    0.0000 H   0  0  0  0  0  0  0  0  0  0  0  0
    2.5885    1.5628    0.0000 H   0  0  0  0  0  0  0  0  0  0  0  0
    3.3744   -1.0316    0.0000 H   0  0  0  0  0  0  0  0  0  0  0  0
    3.8128   -1.7909    0.0000 H   0  0  0  0  0  0  0  0  0  0  0  0
    4.5721   -1.3525    0.0000 H   0  0  0  0  0  0  0  0  0  0  0  0
    7.4814   -2.9290    0.0000 H   0  0  0  0  0  0  0  0  0  0  0  0
    8.1717   -3.3276    0.0000 H   0  0  0  0  0  0  0  0  0  0  0  0
   10.6840   -2.7170    0.0000 H   0  0  0  0  0  0  0  0  0  0  0  0
  1  2  1  0  0  0  0
  1 13  1  0  0  0  0
  2  9  2  0  0  0  0
  3  4  1  0  0  0  0
  3  5  1  0  0  0  0
  3 10  1  0  0  0  0
  3 11  1  0  0  0  0
  4  6  1  0  0  0  0
  4  9  1  0  0  0  0
  4 12  1  0  0  0  0
  5  7  1  0  0  0  0
  5  8  1  0  0  0  0
  5 16  1  0  0  0  0
  6  7  1  0  0  0  0
  6 17  1  0  0  0  0
  6 18  1  0  0  0  0
  7 19  1  0  0  0  0
  7 20  1  0  0  0  0
  8  9  1  0  0  0  0
  8 21  1  0  0  0  0
  8 22  1  0  0  0  0
 10 24  1  0  0  0  0
 10 25  1  0  0  0  0
 10 26  1  0  0  0  0
 11 23  1  0  0  0  0
 11 27  1  0  0  0  0
 11 28  1  0  0  0  0
 12 29  1  0  0  0  0
 12 30  1  0  0  0  0
 12 31  1  0  0  0  0
 13 14  1  0  0  0  0
 13 32  1  0  0  0  0
 13 33  1  0  0  0  0
 14 15  3  0  0  0  0
 15 34  1  0  0  0  0
M  END
> <PUBCHEM_COMPOUND_CID>
5361997

> <PUBCHEM_COMPOUND_CANONICALIZED>
1

> <PUBCHEM_CACTVS_COMPLEXITY>
347

> <PUBCHEM_CACTVS_HBOND_ACCEPTOR>
2

> <PUBCHEM_CACTVS_HBOND_DONOR>
0

> <PUBCHEM_CACTVS_ROTATABLE_BOND>
2

> <PUBCHEM_CACTVS_SUBSKEYS>
AAADceByIAAAAAAAAAAAAAAAAAAAAYMAAAAwAAAAAAAAAAAAAAAAHgAEAAAADwihgAICAAAQAABgGQAgAAAAAAAAAAAAAAAwAAAAAAIAAAAAAAAAAAAAAAEAgMAPgAAAAAAAAACAAAAAAAAAAQAACAAAAA==

> <PUBCHEM_IUPAC_OPENEYE_NAME>
1,7,7-trimethyl-N-prop-2-ynoxy-norbornan-2-imine

> <PUBCHEM_IUPAC_CAS_NAME>
4,7,7-trimethyl-N-prop-2-ynoxy-3-bicyclo[2.2.1]heptanimine

> <PUBCHEM_IUPAC_NAME>
4,7,7-trimethyl-N-prop-2-ynoxybicyclo[2.2.1]heptan-3-imine

> <PUBCHEM_IUPAC_SYSTEMATIC_NAME>
4,7,7-trimethyl-N-prop-2-ynoxy-bicyclo[2.2.1]heptan-3-imine

> <PUBCHEM_IUPAC_TRADITIONAL_NAME>
(E)-propargyloxy-(1,7,7-trimethylnorbornan-2-ylidene)amine

> <PUBCHEM_IUPAC_INCHI>
InChI=1S/C13H19NO/c1-5-8-15-14-11-9-10-6-7-13(11,4)12(10,2)3/h1,10H,6-9H2,2-4H3/b14-11+

> <PUBCHEM_IUPAC_INCHIKEY>
RYOCQKYEVIJALB-SDNWHVSQSA-N

> <PUBCHEM_XLOGP3_AA>
2.9

> <PUBCHEM_EXACT_MASS>
205.146664

> <PUBCHEM_MOLECULAR_FORMULA>
C13H19NO

> <PUBCHEM_MOLECULAR_WEIGHT>
205.29606

> <PUBCHEM_OPENEYE_CAN_SMILES>
CC1(C2CCC1(C(=NOCC#C)C2)C)C

> <PUBCHEM_OPENEYE_ISO_SMILES>
CC1(C2CCC1(/C(=N/OCC#C)/C2)C)C

> <PUBCHEM_CACTVS_TPSA>
21.6

> <PUBCHEM_MONOISOTOPIC_WEIGHT>
205.146664

> <PUBCHEM_TOTAL_CHARGE>
0

> <PUBCHEM_HEAVY_ATOM_COUNT>
15

> <PUBCHEM_ATOM_DEF_STEREO_COUNT>
0

> <PUBCHEM_ATOM_UDEF_STEREO_COUNT>
2

> <PUBCHEM_BOND_DEF_STEREO_COUNT>
1

> <PUBCHEM_BOND_UDEF_STEREO_COUNT>
0

> <PUBCHEM_ISOTOPIC_ATOM_COUNT>
0

> <PUBCHEM_COMPONENT_COUNT>
1

> <PUBCHEM_CACTVS_TAUTO_COUNT>
2

> <PUBCHEM_COORDINATE_TYPE>
1
5
255

> <PUBCHEM_BONDANNOTATIONS>
5  3  3
4  12  3

$$$$

