   Color/Form

     * White powder
     * Ivory powder

   from [1]HSDB

   Odor
        Odorless
   from [2]HSDB

   Melting Point
        104.6 deg C
   from [3]HSDB

   Density/Specific Gravity
        0.43 (bulk at 20 deg C)
   from [4]HSDB

   Octanol/Water Partition Coefficient
        log Kow = 3.77
   from [5]HSDB

   Solubilities

     * In methanol 4.41, acetone 101, toluene 84, n-octanol 1.86,
       acetonitrile 68.7, ethyl acetate 73.5, dichloromethane 9 (all in
       g/L at 25 deg C); in n-hexane 0.232 g/L at 20 deg C.
     * In water 0.85 (distilled), 0.78 (pH 5 and 7) mg/L at 25 deg C.

   from [6]HSDB

   Vapor Pressure
        4.41X10-4 mPa at 25 deg C /3.31X10-9 mm Hg/
   from [7]HSDB

   Other Chemical/Physical Properties

     * Henry's Law constant= 2.1X10-9 atm-cu m/mole at 25 deg C
       /Estimated/
     * Hydroxyl radical reaction rate constant= 3.4X10-11 cu
       cm/molecule-sec at 25 deg C /Estimated/

   from [8]HSDB

   Computed Properties
   Molecular Weight                  403.879303 [g/mol]
   Molecular Formula                 C[15]H[15]ClFN[3]O[3]S[2]
   XLogP3-AA                         3.9
   H-Bond Donor                      0
   H-Bond Acceptor                   7
   Rotatable Bond Count              5
   Exact Mass                        403.022739
   MonoIsotopic Mass                 403.022739
   Topological Polar Surface Area    113
   Heavy Atom Count                  25
   Formal Charge                     0
   Complexity                        568
   Isotope Atom Count                0
   Defined Atom Stereocenter Count   0
   Undefined Atom Stereocenter Count 0
   Defined Bond Stereocenter Count   0
   Undefined Bond Stereocenter Count 0
   Covalently-Bonded Unit Count      1
   Feature 3D Acceptor Count         1
   Feature 3D Cation Count           1
   Feature 3D Ring Count             3
   Effective Rotor Count             5.8
   Conformer Sampling RMSD           0.8
   CID Conformer Count               [9]44

References

   1. http://toxnet.nlm.nih.gov/cgi-bin/sis/search/r?dbs+hsdb:@term+@rn+@rel+117337-19-6
   2. http://toxnet.nlm.nih.gov/cgi-bin/sis/search/r?dbs+hsdb:@term+@rn+@rel+117337-19-6
   3. http://toxnet.nlm.nih.gov/cgi-bin/sis/search/r?dbs+hsdb:@term+@rn+@rel+117337-19-6
   4. http://toxnet.nlm.nih.gov/cgi-bin/sis/search/r?dbs+hsdb:@term+@rn+@rel+117337-19-6
   5. http://toxnet.nlm.nih.gov/cgi-bin/sis/search/r?dbs+hsdb:@term+@rn+@rel+117337-19-6
   6. http://toxnet.nlm.nih.gov/cgi-bin/sis/search/r?dbs+hsdb:@term+@rn+@rel+117337-19-6
   7. http://toxnet.nlm.nih.gov/cgi-bin/sis/search/r?dbs+hsdb:@term+@rn+@rel+117337-19-6
   8. http://toxnet.nlm.nih.gov/cgi-bin/sis/search/r?dbs+hsdb:@term+@rn+@rel+117337-19-6
   9. http://pubchem.ncbi.nlm.nih.gov/vw3d/vw3d.cgi?cid=93542
