   Color/Form

     * COLORLESS CRYSTALS
     * CRYSTALLINE POWDER
     * Pale yellow oil, solidifies to crystals

   from [1]HSDB

   Odor
        MILD ODOR
   from [2]HSDB

   Melting Point
        72-73 DEG C
   from [3]HSDB

   Corrosivity
        Noncorrosive
   from [4]HSDB

   Density/Specific Gravity
        2.0 gm/cu cm @ 20 deg C
   from [5]HSDB

   Octanol/Water Partition Coefficient
        log Kow = 5.51
   from [6]HSDB

   Solubilities

     * AT 20 DEG C: <2 MG/L WATER; 450 G/L ACETONE, TOLUENE; 810 G/L
       DICHLOROMETHANE; 30 G/L METHANOL, OCTAN-1-OL
     * AT 20 DEG C: BENZENE 61%; ISOPROPANOL 23%, HEXANE 3.3%
     * Soluble in acetone, xylene. Slightly soluble in alcohol, soluble in
       water

   from [7]HSDB

   Vapor Pressure
        8.25X10-7 mm Hg at 20 deg C
   from [8]HSDB

   Computed Properties
   Molecular Weight                  412.996552 [g/mol]
   Molecular Formula                 C[8]H[8]Cl[2]IO[3]PS
   XLogP3                            5.5
   H-Bond Donor                      0
   H-Bond Acceptor                   4
   Rotatable Bond Count              4
   Exact Mass                        411.835355
   MonoIsotopic Mass                 411.835355
   Topological Polar Surface Area    59.8
   Heavy Atom Count                  16
   Formal Charge                     0
   Complexity                        276
   Isotope Atom Count                0
   Defined Atom Stereocenter Count   0
   Undefined Atom Stereocenter Count 0
   Defined Bond Stereocenter Count   0
   Undefined Bond Stereocenter Count 0
   Covalently-Bonded Unit Count      1
   Feature 3D Hydrophobe Count       1
   Feature 3D Ring Count             1
   Effective Rotor Count             4
   Conformer Sampling RMSD           0.6
   CID Conformer Count               [9]29

References

   1. http://toxnet.nlm.nih.gov/cgi-bin/sis/search/r?dbs+hsdb:@term+@rn+@rel+18181-70-9
   2. http://toxnet.nlm.nih.gov/cgi-bin/sis/search/r?dbs+hsdb:@term+@rn+@rel+18181-70-9
   3. http://toxnet.nlm.nih.gov/cgi-bin/sis/search/r?dbs+hsdb:@term+@rn+@rel+18181-70-9
   4. http://toxnet.nlm.nih.gov/cgi-bin/sis/search/r?dbs+hsdb:@term+@rn+@rel+18181-70-9
   5. http://toxnet.nlm.nih.gov/cgi-bin/sis/search/r?dbs+hsdb:@term+@rn+@rel+18181-70-9
   6. http://toxnet.nlm.nih.gov/cgi-bin/sis/search/r?dbs+hsdb:@term+@rn+@rel+18181-70-9
   7. http://toxnet.nlm.nih.gov/cgi-bin/sis/search/r?dbs+hsdb:@term+@rn+@rel+18181-70-9
   8. http://toxnet.nlm.nih.gov/cgi-bin/sis/search/r?dbs+hsdb:@term+@rn+@rel+18181-70-9
   9. http://pubchem.ncbi.nlm.nih.gov/vw3d/vw3d.cgi?cid=28935
