5281601
  -OEChem-07051212582D

 36 38  0     0  0  0  0  0  0999 V2000
    7.1962    0.9254    0.0000 O   0  0  0  0  0  0  0  0  0  0  0  0
   10.7263    0.9495    0.0000 O   0  0  0  0  0  0  0  0  0  0  0  0
    8.9446   -2.1092    0.0000 O   0  0  0  0  0  0  0  0  0  0  0  0
    7.1962   -2.0746    0.0000 O   0  0  0  0  0  0  0  0  0  0  0  0
    2.8660    2.4254    0.0000 O   0  0  0  0  0  0  0  0  0  0  0  0
    8.0622   -0.5746    0.0000 C   0  0  0  0  0  0  0  0  0  0  0  0
    8.0622    0.4254    0.0000 C   0  0  0  0  0  0  0  0  0  0  0  0
    6.3301    0.4254    0.0000 C   0  0  0  0  0  0  0  0  0  0  0  0
    5.4641    0.9254    0.0000 C   0  0  0  0  0  0  0  0  0  0  0  0
    7.1962   -1.0746    0.0000 C   0  0  0  0  0  0  0  0  0  0  0  0
    8.9561   -1.1093    0.0000 C   0  0  0  0  0  0  0  0  0  0  0  0
    6.3301   -0.5746    0.0000 C   0  0  0  0  0  0  0  0  0  0  0  0
    8.9561    0.9601    0.0000 C   0  0  0  0  0  0  0  0  0  0  0  0
    9.8622    0.4462    0.0000 C   0  0  0  0  0  0  0  0  0  0  0  0
    9.8622   -0.5954    0.0000 C   0  0  0  0  0  0  0  0  0  0  0  0
    5.4641    1.9254    0.0000 C   0  0  0  0  0  0  0  0  0  0  0  0
    4.5981    0.4254    0.0000 C   0  0  0  0  0  0  0  0  0  0  0  0
    4.5981    2.4254    0.0000 C   0  0  0  0  0  0  0  0  0  0  0  0
    3.7320    0.9254    0.0000 C   0  0  0  0  0  0  0  0  0  0  0  0
    3.7320    1.9254    0.0000 C   0  0  0  0  0  0  0  0  0  0  0  0
   11.5942    0.4529    0.0000 C   0  0  0  0  0  0  0  0  0  0  0  0
    2.0000    1.9254    0.0000 C   0  0  0  0  0  0  0  0  0  0  0  0
    5.7932   -0.8846    0.0000 H   0  0  0  0  0  0  0  0  0  0  0  0
    8.9490    1.5800    0.0000 H   0  0  0  0  0  0  0  0  0  0  0  0
   10.3979   -0.9075    0.0000 H   0  0  0  0  0  0  0  0  0  0  0  0
    6.0010    2.2354    0.0000 H   0  0  0  0  0  0  0  0  0  0  0  0
    4.5981   -0.1946    0.0000 H   0  0  0  0  0  0  0  0  0  0  0  0
    4.5981    3.0454    0.0000 H   0  0  0  0  0  0  0  0  0  0  0  0
    3.1951    0.6154    0.0000 H   0  0  0  0  0  0  0  0  0  0  0  0
    9.4779   -2.4254    0.0000 H   0  0  0  0  0  0  0  0  0  0  0  0
   11.2863   -0.0852    0.0000 H   0  0  0  0  0  0  0  0  0  0  0  0
   12.1324    0.1450    0.0000 H   0  0  0  0  0  0  0  0  0  0  0  0
   11.9022    0.9910    0.0000 H   0  0  0  0  0  0  0  0  0  0  0  0
    1.6900    2.4623    0.0000 H   0  0  0  0  0  0  0  0  0  0  0  0
    1.4631    1.6154    0.0000 H   0  0  0  0  0  0  0  0  0  0  0  0
    2.3100    1.3885    0.0000 H   0  0  0  0  0  0  0  0  0  0  0  0
  1  7  1  0  0  0  0
  1  8  1  0  0  0  0
  2 14  1  0  0  0  0
  2 21  1  0  0  0  0
  3 11  1  0  0  0  0
  3 30  1  0  0  0  0
  4 10  2  0  0  0  0
  5 20  1  0  0  0  0
  5 22  1  0  0  0  0
  6  7  1  0  0  0  0
  6 10  1  0  0  0  0
  6 11  2  0  0  0  0
  7 13  2  0  0  0  0
  8  9  1  0  0  0  0
  8 12  2  0  0  0  0
  9 16  2  0  0  0  0
  9 17  1  0  0  0  0
 10 12  1  0  0  0  0
 11 15  1  0  0  0  0
 12 23  1  0  0  0  0
 13 14  1  0  0  0  0
 13 24  1  0  0  0  0
 14 15  2  0  0  0  0
 15 25  1  0  0  0  0
 16 18  1  0  0  0  0
 16 26  1  0  0  0  0
 17 19  2  0  0  0  0
 17 27  1  0  0  0  0
 18 20  2  0  0  0  0
 18 28  1  0  0  0  0
 19 20  1  0  0  0  0
 19 29  1  0  0  0  0
 21 31  1  0  0  0  0
 21 32  1  0  0  0  0
 21 33  1  0  0  0  0
 22 34  1  0  0  0  0
 22 35  1  0  0  0  0
 22 36  1  0  0  0  0
M  END
> <PUBCHEM_COMPOUND_CID>
5281601

> <PUBCHEM_COMPOUND_CANONICALIZED>
1

> <PUBCHEM_CACTVS_COMPLEXITY>
438

> <PUBCHEM_CACTVS_HBOND_ACCEPTOR>
5

> <PUBCHEM_CACTVS_HBOND_DONOR>
1

> <PUBCHEM_CACTVS_ROTATABLE_BOND>
3

> <PUBCHEM_CACTVS_SUBSKEYS>
AAADccB4OAAAAAAAAAAAAAAAAAAAAAAAAAAwYIAAAAAAAACBQAAAGgAACAAADASAmAIyBoAABgCIAqBSAAACCAAkIAAIiAEGCMgMJzaGNRqCeWCl4BUIuQeI7KzOIAAACAAIAABAAAAQABAAAAAAAAAAAA==

> <PUBCHEM_IUPAC_OPENEYE_NAME>
5-hydroxy-7-methoxy-2-(4-methoxyphenyl)chromen-4-one

> <PUBCHEM_IUPAC_CAS_NAME>
5-hydroxy-7-methoxy-2-(4-methoxyphenyl)-1-benzopyran-4-one

> <PUBCHEM_IUPAC_NAME>
5-hydroxy-7-methoxy-2-(4-methoxyphenyl)chromen-4-one

> <PUBCHEM_IUPAC_SYSTEMATIC_NAME>
7-methoxy-2-(4-methoxyphenyl)-5-oxidanyl-chromen-4-one

> <PUBCHEM_IUPAC_TRADITIONAL_NAME>
5-hydroxy-7-methoxy-2-(4-methoxyphenyl)chromone

> <PUBCHEM_IUPAC_INCHI>
InChI=1S/C17H14O5/c1-20-11-5-3-10(4-6-11)15-9-14(19)17-13(18)7-12(21-2)8-16(17)22-15/h3-9,18H,1-2H3

> <PUBCHEM_IUPAC_INCHIKEY>
LZERJKGWTQYMBB-UHFFFAOYSA-N

> <PUBCHEM_XLOGP3>
2.4

> <PUBCHEM_EXACT_MASS>
298.084124

> <PUBCHEM_MOLECULAR_FORMULA>
C17H14O5

> <PUBCHEM_MOLECULAR_WEIGHT>
298.29006

> <PUBCHEM_OPENEYE_CAN_SMILES>
COC1=CC=C(C=C1)C2=CC(=O)C3=C(C=C(C=C3O2)OC)O

> <PUBCHEM_OPENEYE_ISO_SMILES>
COC1=CC=C(C=C1)C2=CC(=O)C3=C(C=C(C=C3O2)OC)O

> <PUBCHEM_CACTVS_TPSA>
65

> <PUBCHEM_MONOISOTOPIC_WEIGHT>
298.084124

> <PUBCHEM_TOTAL_CHARGE>
0

> <PUBCHEM_HEAVY_ATOM_COUNT>
22

> <PUBCHEM_ATOM_DEF_STEREO_COUNT>
0

> <PUBCHEM_ATOM_UDEF_STEREO_COUNT>
0

> <PUBCHEM_BOND_DEF_STEREO_COUNT>
0

> <PUBCHEM_BOND_UDEF_STEREO_COUNT>
0

> <PUBCHEM_ISOTOPIC_ATOM_COUNT>
0

> <PUBCHEM_COMPONENT_COUNT>
1

> <PUBCHEM_CACTVS_TAUTO_COUNT>
5

> <PUBCHEM_COORDINATE_TYPE>
1
5
255

> <PUBCHEM_BONDANNOTATIONS>
1  7  8
1  8  8
10  12  8
11  15  8
13  14  8
14  15  8
16  18  8
17  19  8
18  20  8
19  20  8
6  10  8
6  11  8
6  7  8
7  13  8
8  12  8
9  16  8
9  17  8

$$$$

