47205705
  -OEChem-06241222592D

 35 36  0     0  0  0  0  0  0999 V2000
    2.8660    0.1156    0.0000 O   0  0  0  0  0  0  0  0  0  0  0  0
    6.3301    1.1156    0.0000 O   0  0  0  0  0  0  0  0  0  0  0  0
    3.7320   -1.3844    0.0000 N   0  0  0  0  0  0  0  0  0  0  0  0
    4.5981    0.1156    0.0000 N   0  0  0  0  0  0  0  0  0  0  0  0
    5.4641    2.6156    0.0000 N   0  0  0  0  0  0  0  0  0  0  0  0
    7.4128    4.3180    0.0000 N   0  0  0  0  0  0  0  0  0  0  0  0
    7.9128    3.4520    0.0000 N   0  0  0  0  0  0  0  0  0  0  0  0
    2.8660   -1.8844    0.0000 C   0  0  0  0  0  0  0  0  0  0  0  0
    2.8660   -2.8844    0.0000 C   0  0  0  0  0  0  0  0  0  0  0  0
    4.5981    1.1156    0.0000 C   0  0  0  0  0  0  0  0  0  0  0  0
    2.0000   -3.3844    0.0000 C   0  0  0  0  0  0  0  0  0  0  0  0
    3.7320   -3.3844    0.0000 C   0  0  0  0  0  0  0  0  0  0  0  0
    3.7320   -0.3844    0.0000 C   0  0  0  0  0  0  0  0  0  0  0  0
    5.4641    1.6156    0.0000 C   0  0  0  0  0  0  0  0  0  0  0  0
    6.3301    3.1156    0.0000 C   0  0  0  0  0  0  0  0  0  0  0  0
    2.0000   -4.3844    0.0000 C   0  0  0  0  0  0  0  0  0  0  0  0
    3.7320   -4.3844    0.0000 C   0  0  0  0  0  0  0  0  0  0  0  0
    2.8660   -4.8844    0.0000 C   0  0  0  0  0  0  0  0  0  0  0  0
    6.4347    4.1101    0.0000 C   0  0  0  0  0  0  0  0  0  0  0  0
    7.2437    2.7088    0.0000 C   0  0  0  0  0  0  0  0  0  0  0  0
    2.6540   -1.3018    0.0000 H   0  0  0  0  0  0  0  0  0  0  0  0
    2.2554   -1.9921    0.0000 H   0  0  0  0  0  0  0  0  0  0  0  0
    4.3860    1.6982    0.0000 H   0  0  0  0  0  0  0  0  0  0  0  0
    3.9875    1.0079    0.0000 H   0  0  0  0  0  0  0  0  0  0  0  0
    4.2690   -1.6944    0.0000 H   0  0  0  0  0  0  0  0  0  0  0  0
    5.1350   -0.1944    0.0000 H   0  0  0  0  0  0  0  0  0  0  0  0
    1.4631   -3.0744    0.0000 H   0  0  0  0  0  0  0  0  0  0  0  0
    4.2690   -3.0744    0.0000 H   0  0  0  0  0  0  0  0  0  0  0  0
    4.9272    2.9256    0.0000 H   0  0  0  0  0  0  0  0  0  0  0  0
    1.4631   -4.6944    0.0000 H   0  0  0  0  0  0  0  0  0  0  0  0
    4.2690   -4.6944    0.0000 H   0  0  0  0  0  0  0  0  0  0  0  0
    2.8660   -5.5044    0.0000 H   0  0  0  0  0  0  0  0  0  0  0  0
    5.9739    4.5250    0.0000 H   0  0  0  0  0  0  0  0  0  0  0  0
    7.3726    2.1024    0.0000 H   0  0  0  0  0  0  0  0  0  0  0  0
    7.6650    4.8844    0.0000 H   0  0  0  0  0  0  0  0  0  0  0  0
  1 13  2  0  0  0  0
  2 14  2  0  0  0  0
  3  8  1  0  0  0  0
  3 13  1  0  0  0  0
  3 25  1  0  0  0  0
  4 10  1  0  0  0  0
  4 13  1  0  0  0  0
  4 26  1  0  0  0  0
  5 14  1  0  0  0  0
  5 15  1  0  0  0  0
  5 29  1  0  0  0  0
  6  7  1  0  0  0  0
  6 19  1  0  0  0  0
  6 35  1  0  0  0  0
  7 20  2  0  0  0  0
  8  9  1  0  0  0  0
  8 21  1  0  0  0  0
  8 22  1  0  0  0  0
  9 11  2  0  0  0  0
  9 12  1  0  0  0  0
 10 14  1  0  0  0  0
 10 23  1  0  0  0  0
 10 24  1  0  0  0  0
 11 16  1  0  0  0  0
 11 27  1  0  0  0  0
 12 17  2  0  0  0  0
 12 28  1  0  0  0  0
 15 19  2  0  0  0  0
 15 20  1  0  0  0  0
 16 18  2  0  0  0  0
 16 30  1  0  0  0  0
 17 18  1  0  0  0  0
 17 31  1  0  0  0  0
 18 32  1  0  0  0  0
 19 33  1  0  0  0  0
 20 34  1  0  0  0  0
M  END
> <PUBCHEM_COMPOUND_CID>
47205705

> <PUBCHEM_COMPOUND_CANONICALIZED>
1

> <PUBCHEM_CACTVS_COMPLEXITY>
331

> <PUBCHEM_CACTVS_HBOND_ACCEPTOR>
3

> <PUBCHEM_CACTVS_HBOND_DONOR>
4

> <PUBCHEM_CACTVS_ROTATABLE_BOND>
5

> <PUBCHEM_CACTVS_SUBSKEYS>
AAADccBzsAAAAAAAAAAAAAAAAAAAAWAAAAAwAAAAAAAAAAABwAAAHgAYAAAADAjBmgQ9wJLjAACqAjV3UACSBAAhkgAYuaCodJiIYKKA0XGUpAhongKIiAcQgAAOAAAAAAAAAAAAAAAAAAAAAAAAAAAAAA==

> <PUBCHEM_IUPAC_OPENEYE_NAME>
2-(benzylcarbamoylamino)-N-(1H-pyrazol-4-yl)acetamide

> <PUBCHEM_IUPAC_CAS_NAME>
2-[[oxo-[(phenylmethyl)amino]methyl]amino]-N-(1H-pyrazol-4-yl)acetamide

> <PUBCHEM_IUPAC_NAME>
2-(benzylcarbamoylamino)-N-(1H-pyrazol-4-yl)acetamide

> <PUBCHEM_IUPAC_SYSTEMATIC_NAME>
2-[(phenylmethyl)carbamoylamino]-N-(1H-pyrazol-4-yl)ethanamide

> <PUBCHEM_IUPAC_TRADITIONAL_NAME>
2-(benzylcarbamoylamino)-N-(1H-pyrazol-4-yl)acetamide

> <PUBCHEM_IUPAC_INCHI>
InChI=1S/C13H15N5O2/c19-12(18-11-7-16-17-8-11)9-15-13(20)14-6-10-4-2-1-3-5-10/h1-5,7-8H,6,9H2,(H,16,17)(H,18,19)(H2,14,15,20)

> <PUBCHEM_IUPAC_INCHIKEY>
USYIJICJVADSMD-UHFFFAOYSA-N

> <PUBCHEM_XLOGP3_AA>
0.1

> <PUBCHEM_EXACT_MASS>
273.122575

> <PUBCHEM_MOLECULAR_FORMULA>
C13H15N5O2

> <PUBCHEM_MOLECULAR_WEIGHT>
273.2905

> <PUBCHEM_OPENEYE_CAN_SMILES>
C1=CC=C(C=C1)CNC(=O)NCC(=O)NC2=CNN=C2

> <PUBCHEM_OPENEYE_ISO_SMILES>
C1=CC=C(C=C1)CNC(=O)NCC(=O)NC2=CNN=C2

> <PUBCHEM_CACTVS_TPSA>
98.9

> <PUBCHEM_MONOISOTOPIC_WEIGHT>
273.122575

> <PUBCHEM_TOTAL_CHARGE>
0

> <PUBCHEM_HEAVY_ATOM_COUNT>
20

> <PUBCHEM_ATOM_DEF_STEREO_COUNT>
0

> <PUBCHEM_ATOM_UDEF_STEREO_COUNT>
0

> <PUBCHEM_BOND_DEF_STEREO_COUNT>
0

> <PUBCHEM_BOND_UDEF_STEREO_COUNT>
0

> <PUBCHEM_ISOTOPIC_ATOM_COUNT>
0

> <PUBCHEM_COMPONENT_COUNT>
1

> <PUBCHEM_CACTVS_TAUTO_COUNT>
9

> <PUBCHEM_COORDINATE_TYPE>
1
5
255

> <PUBCHEM_BONDANNOTATIONS>
11  16  8
12  17  8
15  19  8
15  20  8
16  18  8
17  18  8
6  19  8
6  7  8
7  20  8
9  11  8
9  12  8

$$$$

