10790775
  -OEChem-07051213152D

 86 90  0     1  0  0  0  0  0999 V2000
    5.3307    0.6734    0.0000 O   0  0  0  0  0  0  0  0  0  0  0  0
    5.2710   -3.3750    0.0000 O   0  0  0  0  0  0  0  0  0  0  0  0
    6.1847   -3.8958    0.0000 O   0  0  0  0  0  0  0  0  0  0  0  0
    2.5357   -2.8789    0.0000 O   0  0  0  0  0  0  0  0  0  0  0  0
    7.9288    0.1734    0.0000 C   0  0  1  0  0  0  0  0  0  0  0  0
    7.9288   -0.8266    0.0000 C   0  0  2  0  0  0  0  0  0  0  0  0
    8.8750    0.4781    0.0000 C   0  0  1  0  0  0  0  0  0  0  0  0
    7.0628   -1.3266    0.0000 C   0  0  1  0  0  0  0  0  0  0  0  0
    6.1968   -0.8266    0.0000 C   0  0  1  0  0  0  0  0  0  0  0  0
   10.1642    1.6349    0.0000 C   0  0  2  0  0  0  0  0  0  0  0  0
    9.1857    1.4287    0.0000 C   0  0  1  0  0  0  0  0  0  0  0  0
    5.2868   -1.3334    0.0000 C   0  0  2  0  0  0  0  0  0  0  0  0
   10.9085    2.3027    0.0000 C   0  0  2  0  0  0  0  0  0  0  0  0
    7.0628    0.6734    0.0000 C   0  0  0  0  0  0  0  0  0  0  0  0
    8.8750   -1.1313    0.0000 C   0  0  0  0  0  0  0  0  0  0  0  0
    6.1968    0.1734    0.0000 C   0  0  1  0  0  0  0  0  0  0  0  0
    9.4586   -0.3266    0.0000 C   0  0  0  0  0  0  0  0  0  0  0  0
   11.1147    1.3242    0.0000 C   0  0  0  0  0  0  0  0  0  0  0  0
    5.2787   -2.3750    0.0000 C   0  0  2  0  0  0  0  0  0  0  0  0
    7.0789   -2.3681    0.0000 C   0  0  0  0  0  0  0  0  0  0  0  0
    6.1808   -2.8958    0.0000 C   0  0  1  0  0  0  0  0  0  0  0  0
    7.9288    1.1734    0.0000 C   0  0  0  0  0  0  0  0  0  0  0  0
   11.8870    2.5090    0.0000 C   0  0  1  0  0  0  0  0  0  0  0  0
    4.3599   -0.7694    0.0000 C   0  0  0  0  0  0  0  0  0  0  0  0
    4.3433   -2.9248    0.0000 C   0  0  0  0  0  0  0  0  0  0  0  0
    8.5179    2.1730    0.0000 C   0  0  0  0  0  0  0  0  0  0  0  0
    5.2945   -0.3335    0.0000 C   0  0  0  0  0  0  0  0  0  0  0  0
   10.2407    3.0470    0.0000 C   0  0  0  0  0  0  0  0  0  0  0  0
    3.4120   -1.2973    0.0000 C   0  0  0  0  0  0  0  0  0  0  0  0
    3.4037   -2.3823    0.0000 C   0  0  2  0  0  0  0  0  0  0  0  0
   12.1977    3.4595    0.0000 C   0  0  0  0  0  0  0  0  0  0  0  0
   12.5549    1.7646    0.0000 C   0  0  0  0  0  0  0  0  0  0  0  0
   13.1762    3.6657    0.0000 C   0  0  0  0  0  0  0  0  0  0  0  0
   11.5298    4.2038    0.0000 C   0  0  0  0  0  0  0  0  0  0  0  0
    8.0188   -1.6718    0.0000 H   0  0  0  0  0  0  0  0  0  0  0  0
    9.7148    0.6100    0.0000 H   0  0  0  0  0  0  0  0  0  0  0  0
    7.8022   -1.7459    0.0000 H   0  0  0  0  0  0  0  0  0  0  0  0
    6.9329   -0.4016    0.0000 H   0  0  0  0  0  0  0  0  0  0  0  0
   10.1183    0.7861    0.0000 H   0  0  0  0  0  0  0  0  0  0  0  0
    9.3783    2.0180    0.0000 H   0  0  0  0  0  0  0  0  0  0  0  0
    7.4613    1.1484    0.0000 H   0  0  0  0  0  0  0  0  0  0  0  0
    6.6643    1.1484    0.0000 H   0  0  0  0  0  0  0  0  0  0  0  0
    8.6240   -1.6982    0.0000 H   0  0  0  0  0  0  0  0  0  0  0  0
    9.4124   -1.4405    0.0000 H   0  0  0  0  0  0  0  0  0  0  0  0
    6.1968    0.7934    0.0000 H   0  0  0  0  0  0  0  0  0  0  0  0
    9.9195   -0.7413    0.0000 H   0  0  0  0  0  0  0  0  0  0  0  0
    9.9195    0.0881    0.0000 H   0  0  0  0  0  0  0  0  0  0  0  0
   11.0274    0.7104    0.0000 H   0  0  0  0  0  0  0  0  0  0  0  0
   11.7344    1.3448    0.0000 H   0  0  0  0  0  0  0  0  0  0  0  0
    7.2969   -2.9485    0.0000 H   0  0  0  0  0  0  0  0  0  0  0  0
    7.6880   -2.2526    0.0000 H   0  0  0  0  0  0  0  0  0  0  0  0
    6.7195   -3.2027    0.0000 H   0  0  0  0  0  0  0  0  0  0  0  0
    8.5488    1.1734    0.0000 H   0  0  0  0  0  0  0  0  0  0  0  0
    7.9288    1.7934    0.0000 H   0  0  0  0  0  0  0  0  0  0  0  0
    7.3088    1.1734    0.0000 H   0  0  0  0  0  0  0  0  0  0  0  0
   11.6944    1.9196    0.0000 H   0  0  0  0  0  0  0  0  0  0  0  0
    4.7681   -0.3027    0.0000 H   0  0  0  0  0  0  0  0  0  0  0  0
    3.9700   -0.2873    0.0000 H   0  0  0  0  0  0  0  0  0  0  0  0
    3.9460   -3.4007    0.0000 H   0  0  0  0  0  0  0  0  0  0  0  0
    4.7443   -3.3976    0.0000 H   0  0  0  0  0  0  0  0  0  0  0  0
    8.9793    2.5870    0.0000 H   0  0  0  0  0  0  0  0  0  0  0  0
    8.1038    2.6344    0.0000 H   0  0  0  0  0  0  0  0  0  0  0  0
    8.0564    1.7589    0.0000 H   0  0  0  0  0  0  0  0  0  0  0  0
    5.9145   -0.3382    0.0000 H   0  0  0  0  0  0  0  0  0  0  0  0
    5.2993    0.2865    0.0000 H   0  0  0  0  0  0  0  0  0  0  0  0
    4.6745   -0.3287    0.0000 H   0  0  0  0  0  0  0  0  0  0  0  0
   10.7021    3.4611    0.0000 H   0  0  0  0  0  0  0  0  0  0  0  0
    9.8266    3.5085    0.0000 H   0  0  0  0  0  0  0  0  0  0  0  0
    9.7792    2.6330    0.0000 H   0  0  0  0  0  0  0  0  0  0  0  0
    3.2075   -0.7120    0.0000 H   0  0  0  0  0  0  0  0  0  0  0  0
    2.8004   -1.3987    0.0000 H   0  0  0  0  0  0  0  0  0  0  0  0
    3.4025   -3.0023    0.0000 H   0  0  0  0  0  0  0  0  0  0  0  0
   11.5910    3.3316    0.0000 H   0  0  0  0  0  0  0  0  0  0  0  0
    5.3307    1.2934    0.0000 H   0  0  0  0  0  0  0  0  0  0  0  0
    4.7317   -3.6808    0.0000 H   0  0  0  0  0  0  0  0  0  0  0  0
   12.0934    1.3506    0.0000 H   0  0  0  0  0  0  0  0  0  0  0  0
   12.9689    1.3032    0.0000 H   0  0  0  0  0  0  0  0  0  0  0  0
   13.0163    2.1787    0.0000 H   0  0  0  0  0  0  0  0  0  0  0  0
    6.7228   -4.2038    0.0000 H   0  0  0  0  0  0  0  0  0  0  0  0
   13.3040    3.0590    0.0000 H   0  0  0  0  0  0  0  0  0  0  0  0
   13.7829    3.7935    0.0000 H   0  0  0  0  0  0  0  0  0  0  0  0
   13.0483    4.2724    0.0000 H   0  0  0  0  0  0  0  0  0  0  0  0
   11.9913    4.6178    0.0000 H   0  0  0  0  0  0  0  0  0  0  0  0
   11.1158    4.6652    0.0000 H   0  0  0  0  0  0  0  0  0  0  0  0
   11.0684    3.7897    0.0000 H   0  0  0  0  0  0  0  0  0  0  0  0
    2.0000   -2.5668    0.0000 H   0  0  0  0  0  0  0  0  0  0  0  0
 16  1  1  6  0  0  0
  1 74  1  0  0  0  0
 19  2  1  6  0  0  0
  2 75  1  0  0  0  0
 21  3  1  1  0  0  0
  3 79  1  0  0  0  0
 30  4  1  1  0  0  0
  4 86  1  0  0  0  0
  5  6  1  0  0  0  0
  5  7  1  0  0  0  0
  5 14  1  0  0  0  0
  5 22  1  1  0  0  0
  6  8  1  0  0  0  0
  6 15  1  0  0  0  0
  6 35  1  6  0  0  0
  7 11  1  0  0  0  0
  7 17  1  0  0  0  0
  7 36  1  6  0  0  0
  8  9  1  0  0  0  0
  8 20  1  0  0  0  0
  8 37  1  1  0  0  0
  9 12  1  0  0  0  0
  9 16  1  0  0  0  0
  9 38  1  6  0  0  0
 10 11  1  0  0  0  0
 10 13  1  0  0  0  0
 10 18  1  0  0  0  0
 10 39  1  1  0  0  0
 11 26  1  6  0  0  0
 11 40  1  0  0  0  0
 12 19  1  0  0  0  0
 12 24  1  0  0  0  0
 12 27  1  1  0  0  0
 13 18  1  0  0  0  0
 13 23  1  0  0  0  0
 13 28  1  6  0  0  0
 14 16  1  0  0  0  0
 14 41  1  0  0  0  0
 14 42  1  0  0  0  0
 15 17  1  0  0  0  0
 15 43  1  0  0  0  0
 15 44  1  0  0  0  0
 16 45  1  0  0  0  0
 17 46  1  0  0  0  0
 17 47  1  0  0  0  0
 18 48  1  0  0  0  0
 18 49  1  0  0  0  0
 19 21  1  0  0  0  0
 19 25  1  0  0  0  0
 20 21  1  0  0  0  0
 20 50  1  0  0  0  0
 20 51  1  0  0  0  0
 21 52  1  0  0  0  0
 22 53  1  0  0  0  0
 22 54  1  0  0  0  0
 22 55  1  0  0  0  0
 23 31  1  0  0  0  0
 23 32  1  1  0  0  0
 23 56  1  0  0  0  0
 24 29  1  0  0  0  0
 24 57  1  0  0  0  0
 24 58  1  0  0  0  0
 25 30  1  0  0  0  0
 25 59  1  0  0  0  0
 25 60  1  0  0  0  0
 26 61  1  0  0  0  0
 26 62  1  0  0  0  0
 26 63  1  0  0  0  0
 27 64  1  0  0  0  0
 27 65  1  0  0  0  0
 27 66  1  0  0  0  0
 28 67  1  0  0  0  0
 28 68  1  0  0  0  0
 28 69  1  0  0  0  0
 29 30  1  0  0  0  0
 29 70  1  0  0  0  0
 29 71  1  0  0  0  0
 30 72  1  0  0  0  0
 31 33  1  0  0  0  0
 31 34  1  0  0  0  0
 31 73  1  0  0  0  0
 32 76  1  0  0  0  0
 32 77  1  0  0  0  0
 32 78  1  0  0  0  0
 33 80  1  0  0  0  0
 33 81  1  0  0  0  0
 33 82  1  0  0  0  0
 34 83  1  0  0  0  0
 34 84  1  0  0  0  0
 34 85  1  0  0  0  0
M  END
> <PUBCHEM_COMPOUND_CID>
10790775

> <PUBCHEM_COMPOUND_CANONICALIZED>
1

> <PUBCHEM_CACTVS_COMPLEXITY>
799

> <PUBCHEM_CACTVS_HBOND_ACCEPTOR>
4

> <PUBCHEM_CACTVS_HBOND_DONOR>
4

> <PUBCHEM_CACTVS_ROTATABLE_BOND>
4

> <PUBCHEM_CACTVS_SUBSKEYS>
AAADcfB4OAAAAAAAAAAAAAAAGAAAAYAAAAAwYMAAAAAAAGDAAAAAGgAACAAAD1SggAICAAAAAgAAAAAAAAAAAAAAAAAAAAAAAAABEAIAAAAAQAAFAAABAAHA4PQPgAAAAAAAAADAAAYQADCAAQAACAAAAA==

> <PUBCHEM_IUPAC_OPENEYE_NAME>
(3S,5R,6R,8S,9S,10R,11R,13R,14S,17R)-17-[(1S)-1-[(1R,2R)-2-[(1R)-1,2-dimethylpropyl]-2-methyl-cyclopropyl]ethyl]-10,13-dimethyl-1,2,3,4,6,7,8,9,11,12,14,15,16,17-tetradecahydrocyclopenta[a]phenanthrene-3,5,6,11-tetrol

> <PUBCHEM_IUPAC_CAS_NAME>
(3S,5R,6R,8S,9S,10R,11R,13R,14S,17R)-10,13-dimethyl-17-[(1S)-1-[(1R,2R)-2-methyl-2-[(2R)-3-methylbutan-2-yl]cyclopropyl]ethyl]-1,2,3,4,6,7,8,9,11,12,14,15,16,17-tetradecahydrocyclopenta[a]phenanthrene-3,5,6,11-tetrol

> <PUBCHEM_IUPAC_NAME>
(3S,5R,6R,8S,9S,10R,11R,13R,14S,17R)-10,13-dimethyl-17-[(1S)-1-[(1R,2R)-2-methyl-2-[(2R)-3-methylbutan-2-yl]cyclopropyl]ethyl]-1,2,3,4,6,7,8,9,11,12,14,15,16,17-tetradecahydrocyclopenta[a]phenanthrene-3,5,6,11-tetrol

> <PUBCHEM_IUPAC_SYSTEMATIC_NAME>
(3S,5R,6R,8S,9S,10R,11R,13R,14S,17R)-10,13-dimethyl-17-[(1S)-1-[(1R,2R)-2-methyl-2-[(2R)-3-methylbutan-2-yl]cyclopropyl]ethyl]-1,2,3,4,6,7,8,9,11,12,14,15,16,17-tetradecahydrocyclopenta[a]phenanthrene-3,5,6,11-tetrol

> <PUBCHEM_IUPAC_TRADITIONAL_NAME>
(3S,5R,6R,8S,9S,10R,11R,13R,14S,17R)-17-[(1S)-1-[(1R,2R)-2-[(1R)-1,2-dimethylpropyl]-2-methyl-cyclopropyl]ethyl]-10,13-dimethyl-1,2,3,4,6,7,8,9,11,12,14,15,16,17-tetradecahydrocyclopenta[a]phenanthrene-3,5,6,11-tetrol

> <PUBCHEM_IUPAC_INCHI>
InChI=1S/C30H52O4/c1-16(2)18(4)27(5)14-23(27)17(3)21-8-9-22-20-12-25(33)30(34)13-19(31)10-11-29(30,7)26(20)24(32)15-28(21,22)6/h16-26,31-34H,8-15H2,1-7H3/t17-,18+,19-,20-,21+,22-,23+,24+,25+,26+,27+,28+,29+,30-/m0/s1

> <PUBCHEM_IUPAC_INCHIKEY>
WIHVWOTVUSDCRF-LYBIKMEUSA-N

> <PUBCHEM_XLOGP3_AA>
6

> <PUBCHEM_EXACT_MASS>
476.38656

> <PUBCHEM_MOLECULAR_FORMULA>
C30H52O4

> <PUBCHEM_MOLECULAR_WEIGHT>
476.73148

> <PUBCHEM_OPENEYE_CAN_SMILES>
CC(C)C(C)C1(CC1C(C)C2CCC3C2(CC(C4C3CC(C5(C4(CCC(C5)O)C)O)O)O)C)C

> <PUBCHEM_OPENEYE_ISO_SMILES>
C[C@@H]([C@H]1CC[C@@H]2[C@@]1(C[C@H]([C@H]3[C@H]2C[C@H]([C@@]4([C@@]3(CC[C@@H](C4)O)C)O)O)O)C)[C@H]5C[C@]5(C)[C@H](C)C(C)C

> <PUBCHEM_CACTVS_TPSA>
80.9

> <PUBCHEM_MONOISOTOPIC_WEIGHT>
476.38656

> <PUBCHEM_TOTAL_CHARGE>
0

> <PUBCHEM_HEAVY_ATOM_COUNT>
34

> <PUBCHEM_ATOM_DEF_STEREO_COUNT>
14

> <PUBCHEM_ATOM_UDEF_STEREO_COUNT>
0

> <PUBCHEM_BOND_DEF_STEREO_COUNT>
0

> <PUBCHEM_BOND_UDEF_STEREO_COUNT>
0

> <PUBCHEM_ISOTOPIC_ATOM_COUNT>
0

> <PUBCHEM_COMPONENT_COUNT>
1

> <PUBCHEM_CACTVS_TAUTO_COUNT>
1

> <PUBCHEM_COORDINATE_TYPE>
1
5
255

> <PUBCHEM_BONDANNOTATIONS>
16  1  6
10  39  5
11  26  6
12  27  5
13  28  6
19  2  6
23  32  5
21  3  5
30  4  5
5  22  5
6  35  6
7  36  6
8  37  5
9  38  6

$$$$

