   Color/Form

     * Colorless or slightly yellow cyrstalline needles or prisms.
     * NEEDLES FROM ABSOLUTE METHANOL OR CHLOROFORM
     * White needles

   from [1]HSDB

   Melting Point
        sublimes at 210
   from [2]HSDB

   Density/Specific Gravity
        1.69 kg/l at 20 deg C
   from [3]HSDB

   Dissociation Constants
        pKa = 4.40
   from [4]HSDB

   Octanol/Water Partition Coefficient
        log Kow = 0.70
   from [5]HSDB

   Solubilities

     * 1 G DISSOLVES IN: 87 ML WATER, 3 ML BOILING WATER, 6 ML ALCOHOL,
       100 ML ETHER, 10 ML GLYCEROL, 5 ML ACETONE; PRACTICALLY INSOL IN
       BENZENE, CHLOROFORM, PETROLEUM ETHER.
     * Water solubility = 1.19X10+4 mg/l @ 25 deg C
     * Soluble in oxygenated solvents

   from [6]HSDB

   Spectral Properties

     * MAX ABSORPTION (ALC): 272.5 NM (LOG E= 4.06)
     * IR: 2:859B (Aldrich Library of Infrared Spectra, Aldrich Chemical
       Co, Milwaukee, WI)
     * NMR: 6:178D (Aldrich Library of Mass Spectra, Aldrich Chemical Co,
       Milwaukee, WI)

   from [7]HSDB

   Other Chemical/Physical Properties

     * Formerly reported as decomp at 235-240 deg C
     * WHITE TO PALE FAWN COLORED CRYSTALS; ODORLESS /MONOHYDRATE/
     * Sublimes at 210 deg C giving a stable form with melting point 258
       to 265 deg C (dec) and an unstable form with melting point 225 to
       230 deg C
     * Solutions of gallic acid, particularly of the alkali metal salts,
       absorb oxygen and turn brown in air
     * Density = 1.694 g/cu m at 6 deg C

   from [8]HSDB

   Computed Properties
   Molecular Weight                  170.11954 [g/mol]
   Molecular Formula                 C[7]H[6]O[5]
   XLogP3                            0.7
   H-Bond Donor                      4
   H-Bond Acceptor                   5
   Rotatable Bond Count              1
   Tautomer Count                    14
   Exact Mass                        170.021523
   MonoIsotopic Mass                 170.021523
   Topological Polar Surface Area    98
   Heavy Atom Count                  12
   Formal Charge                     0
   Complexity                        169
   Isotope Atom Count                0
   Defined Atom Stereocenter Count   0
   Undefined Atom Stereocenter Count 0
   Defined Bond Stereocenter Count   0
   Undefined Bond Stereocenter Count 0
   Covalently-Bonded Unit Count      1
   Feature 3D Acceptor Count         2
   Feature 3D Donor Count            3
   Feature 3D Anion Count            1
   Feature 3D Ring Count             1
   Effective Rotor Count             1
   Conformer Sampling RMSD           0.4
   CID Conformer Count               [9]2

References

   1. http://toxnet.nlm.nih.gov/cgi-bin/sis/search/r?dbs+hsdb:@term+@rn+@rel+149-91-7
   2. http://toxnet.nlm.nih.gov/cgi-bin/sis/search/r?dbs+hsdb:@term+@rn+@rel+149-91-7
   3. http://toxnet.nlm.nih.gov/cgi-bin/sis/search/r?dbs+hsdb:@term+@rn+@rel+149-91-7
   4. http://toxnet.nlm.nih.gov/cgi-bin/sis/search/r?dbs+hsdb:@term+@rn+@rel+149-91-7
   5. http://toxnet.nlm.nih.gov/cgi-bin/sis/search/r?dbs+hsdb:@term+@rn+@rel+149-91-7
   6. http://toxnet.nlm.nih.gov/cgi-bin/sis/search/r?dbs+hsdb:@term+@rn+@rel+149-91-7
   7. http://toxnet.nlm.nih.gov/cgi-bin/sis/search/r?dbs+hsdb:@term+@rn+@rel+149-91-7
   8. http://toxnet.nlm.nih.gov/cgi-bin/sis/search/r?dbs+hsdb:@term+@rn+@rel+149-91-7
   9. http://pubchem.ncbi.nlm.nih.gov/vw3d/vw3d.cgi?cid=370
