   Color/Form

     * Orange-red triclinic crystals
     * Bright orange-red crystals

   from [1]HSDB

   Odor
        Odorless
   from [2]HSDB

   Taste
        Bitter, metallic taste
   from [3]HSDB

   Boiling Point
        Decomposes @ about 500 deg C
   from [4]HSDB

   Melting Point
        398 deg C
   from [5]HSDB

   Density/Specific Gravity
        2.676 @ 25 deg C/4 deg C
   from [6]HSDB

   pH
        Acid reaction: a 1% aq soln has pH of 4.04 and a 10% soln has a pH
   of 3.57.
   from [7]HSDB

   Solubilities

     * SOLUBILITY IN WATER: 4.9 G/100 CC @ 0 DEG C; 102 G/100 CC @ 100 DEG
       C; INSOL IN ALCOHOL
     * Saturated aq soln contains 4.3% @ 0 deg C; 11.7% @ 20 deg C; 20.9%
       @ 40 deg C; 50.2% @ 100 deg C
     * In water, 45,000 mg/l @ 25 deg C

   from [8]HSDB

   Spectral Properties
        INDEX OF REFRACTION: 1.738
   from [9]HSDB

   Other Chemical/Physical Properties

     * Crystal system: triclinic pinacoidal, transition to monoclinic @
       241.6 deg C; not hygroscopic or deliquescent; crystal habit:
       prismatic; bulk density: 100 lb/cu ft; heat of soln: -62.5 cal/g;
       specific heat: 0.186 @ 16-98 deg C
     * HEAT OF FUSION: 8770 CAL/G MOLE; 29.8 CAL/G

   from [10]HSDB

   Computed Properties
   Molecular Weight                  294.1846 [g/mol]
   Molecular Formula                 Cr[2]K[2]O[7]
   H-Bond Donor                      0
   H-Bond Acceptor                   7
   Rotatable Bond Count              0
   Exact Mass                        293.772831
   MonoIsotopic Mass                 293.772831
   Topological Polar Surface Area    124
   Heavy Atom Count                  11
   Formal Charge                     0
   Complexity                        194
   Isotope Atom Count                0
   Defined Atom Stereocenter Count   0
   Undefined Atom Stereocenter Count 0
   Defined Bond Stereocenter Count   0
   Undefined Bond Stereocenter Count 0
   Covalently-Bonded Unit Count      3

References

   1. http://toxnet.nlm.nih.gov/cgi-bin/sis/search/r?dbs+hsdb:@term+@rn+@rel+7778-50-9
   2. http://toxnet.nlm.nih.gov/cgi-bin/sis/search/r?dbs+hsdb:@term+@rn+@rel+7778-50-9
   3. http://toxnet.nlm.nih.gov/cgi-bin/sis/search/r?dbs+hsdb:@term+@rn+@rel+7778-50-9
   4. http://toxnet.nlm.nih.gov/cgi-bin/sis/search/r?dbs+hsdb:@term+@rn+@rel+7778-50-9
   5. http://toxnet.nlm.nih.gov/cgi-bin/sis/search/r?dbs+hsdb:@term+@rn+@rel+7778-50-9
   6. http://toxnet.nlm.nih.gov/cgi-bin/sis/search/r?dbs+hsdb:@term+@rn+@rel+7778-50-9
   7. http://toxnet.nlm.nih.gov/cgi-bin/sis/search/r?dbs+hsdb:@term+@rn+@rel+7778-50-9
   8. http://toxnet.nlm.nih.gov/cgi-bin/sis/search/r?dbs+hsdb:@term+@rn+@rel+7778-50-9
   9. http://toxnet.nlm.nih.gov/cgi-bin/sis/search/r?dbs+hsdb:@term+@rn+@rel+7778-50-9
  10. http://toxnet.nlm.nih.gov/cgi-bin/sis/search/r?dbs+hsdb:@term+@rn+@rel+7778-50-9
