440331
  -OEChem-07051212492D

 49 50  0     1  0  0  0  0  0999 V2000
    5.4641   -4.0950    0.0000 I   0  0  0  0  0  0  0  0  0  0  0  0
    2.0000   -4.0950    0.0000 I   0  0  0  0  0  0  0  0  0  0  0  0
    6.3301    0.4050    0.0000 O   0  0  0  0  0  0  0  0  0  0  0  0
    6.3301   -0.5950    0.0000 O   0  0  0  0  0  0  0  0  0  0  0  0
    5.4641   -2.0950    0.0000 O   0  0  0  0  0  0  0  0  0  0  0  0
    7.1962    0.9050    0.0000 O   0  0  0  0  0  0  0  0  0  0  0  0
    3.7320   -5.0950    0.0000 O   0  0  0  0  0  0  0  0  0  0  0  0
    4.5981    0.4050    0.0000 N   0  0  0  0  0  0  0  0  0  0  0  0
    6.3301    2.4050    0.0000 N   0  0  0  0  0  0  0  0  0  0  0  0
    5.4641    1.9050    0.0000 C   0  0  1  0  0  0  0  0  0  0  0  0
    4.5981   -0.5950    0.0000 C   0  0  1  0  0  0  0  0  0  0  0  0
    4.5981    2.4050    0.0000 C   0  0  0  0  0  0  0  0  0  0  0  0
    3.7320   -1.0950    0.0000 C   0  0  0  0  0  0  0  0  0  0  0  0
    5.4641    0.9050    0.0000 C   0  0  0  0  0  0  0  0  0  0  0  0
    4.5981    3.4050    0.0000 C   0  0  0  0  0  0  0  0  0  0  0  0
    3.7320   -2.0950    0.0000 C   0  0  0  0  0  0  0  0  0  0  0  0
    5.4641   -1.0950    0.0000 C   0  0  0  0  0  0  0  0  0  0  0  0
    2.8660   -2.5950    0.0000 C   0  0  0  0  0  0  0  0  0  0  0  0
    4.5981   -2.5950    0.0000 C   0  0  0  0  0  0  0  0  0  0  0  0
    5.4641    3.9050    0.0000 C   0  0  0  0  0  0  0  0  0  0  0  0
    3.7320    3.9050    0.0000 C   0  0  0  0  0  0  0  0  0  0  0  0
    7.1962    1.9050    0.0000 C   0  0  0  0  0  0  0  0  0  0  0  0
    4.5981   -3.5950    0.0000 C   0  0  0  0  0  0  0  0  0  0  0  0
    2.8660   -3.5950    0.0000 C   0  0  0  0  0  0  0  0  0  0  0  0
    5.4641    4.9050    0.0000 C   0  0  0  0  0  0  0  0  0  0  0  0
    3.7320    4.9050    0.0000 C   0  0  0  0  0  0  0  0  0  0  0  0
    3.7320   -4.0950    0.0000 C   0  0  0  0  0  0  0  0  0  0  0  0
    4.5981    5.4050    0.0000 C   0  0  0  0  0  0  0  0  0  0  0  0
    8.0622    2.4050    0.0000 C   0  0  0  0  0  0  0  0  0  0  0  0
    5.4641    2.5250    0.0000 H   0  0  0  0  0  0  0  0  0  0  0  0
    5.1350   -0.2850    0.0000 H   0  0  0  0  0  0  0  0  0  0  0  0
    3.9875    2.5127    0.0000 H   0  0  0  0  0  0  0  0  0  0  0  0
    4.3860    1.8224    0.0000 H   0  0  0  0  0  0  0  0  0  0  0  0
    3.5200   -0.5124    0.0000 H   0  0  0  0  0  0  0  0  0  0  0  0
    3.1215   -1.2027    0.0000 H   0  0  0  0  0  0  0  0  0  0  0  0
    4.0611    0.7150    0.0000 H   0  0  0  0  0  0  0  0  0  0  0  0
    6.3301    3.0250    0.0000 H   0  0  0  0  0  0  0  0  0  0  0  0
    2.3291   -2.2850    0.0000 H   0  0  0  0  0  0  0  0  0  0  0  0
    5.1350   -2.2850    0.0000 H   0  0  0  0  0  0  0  0  0  0  0  0
    6.0010    3.5950    0.0000 H   0  0  0  0  0  0  0  0  0  0  0  0
    3.1951    3.5950    0.0000 H   0  0  0  0  0  0  0  0  0  0  0  0
    6.0010    5.2150    0.0000 H   0  0  0  0  0  0  0  0  0  0  0  0
    3.1951    5.2150    0.0000 H   0  0  0  0  0  0  0  0  0  0  0  0
    4.5981    6.0250    0.0000 H   0  0  0  0  0  0  0  0  0  0  0  0
    8.3722    1.8681    0.0000 H   0  0  0  0  0  0  0  0  0  0  0  0
    8.5991    2.7150    0.0000 H   0  0  0  0  0  0  0  0  0  0  0  0
    7.7522    2.9419    0.0000 H   0  0  0  0  0  0  0  0  0  0  0  0
    6.8671   -0.9050    0.0000 H   0  0  0  0  0  0  0  0  0  0  0  0
    3.1951   -5.4050    0.0000 H   0  0  0  0  0  0  0  0  0  0  0  0
  1 23  1  0  0  0  0
  2 24  1  0  0  0  0
  3 14  2  0  0  0  0
  4 17  1  0  0  0  0
  4 48  1  0  0  0  0
  5 17  2  0  0  0  0
  6 22  2  0  0  0  0
  7 27  1  0  0  0  0
  7 49  1  0  0  0  0
 11  8  1  6  0  0  0
  8 14  1  0  0  0  0
  8 36  1  0  0  0  0
 10  9  1  6  0  0  0
  9 22  1  0  0  0  0
  9 37  1  0  0  0  0
 10 12  1  0  0  0  0
 10 14  1  0  0  0  0
 10 30  1  0  0  0  0
 11 13  1  0  0  0  0
 11 17  1  0  0  0  0
 11 31  1  0  0  0  0
 12 15  1  0  0  0  0
 12 32  1  0  0  0  0
 12 33  1  0  0  0  0
 13 16  1  0  0  0  0
 13 34  1  0  0  0  0
 13 35  1  0  0  0  0
 15 20  2  0  0  0  0
 15 21  1  0  0  0  0
 16 18  2  0  0  0  0
 16 19  1  0  0  0  0
 18 24  1  0  0  0  0
 18 38  1  0  0  0  0
 19 23  2  0  0  0  0
 19 39  1  0  0  0  0
 20 25  1  0  0  0  0
 20 40  1  0  0  0  0
 21 26  2  0  0  0  0
 21 41  1  0  0  0  0
 22 29  1  0  0  0  0
 23 27  1  0  0  0  0
 24 27  2  0  0  0  0
 25 28  2  0  0  0  0
 25 42  1  0  0  0  0
 26 28  1  0  0  0  0
 26 43  1  0  0  0  0
 28 44  1  0  0  0  0
 29 45  1  0  0  0  0
 29 46  1  0  0  0  0
 29 47  1  0  0  0  0
M  END
> <PUBCHEM_COMPOUND_CID>
440331

> <PUBCHEM_COMPOUND_CANONICALIZED>
1

> <PUBCHEM_CACTVS_COMPLEXITY>
573

> <PUBCHEM_CACTVS_HBOND_ACCEPTOR>
5

> <PUBCHEM_CACTVS_HBOND_DONOR>
4

> <PUBCHEM_CACTVS_ROTATABLE_BOND>
8

> <PUBCHEM_CACTVS_SUBSKEYS>
AAADceB7OAAAAwAAAAAAAAAAAAAAAAAAAAAwYAAAAAAAAAABQAAAHgAwCAAADCzDmAQyDoLAAgCIAiHSGAACAAAgIAAIiIGMCIgKZjKCkTOUcAAk1hGYmAeYyKCOIAAAAAAAAABAAAAAAAAAAAAAAAAAAA==

> <PUBCHEM_IUPAC_OPENEYE_NAME>
(2S)-2-[[(2S)-2-acetamido-3-phenyl-propanoyl]amino]-3-(4-hydroxy-3,5-diiodo-phenyl)propanoic acid

> <PUBCHEM_IUPAC_CAS_NAME>
(2S)-2-[[(2S)-2-acetamido-1-oxo-3-phenylpropyl]amino]-3-(4-hydroxy-3,5-diiodophenyl)propanoic acid

> <PUBCHEM_IUPAC_NAME>
(2S)-2-[[(2S)-2-acetamido-3-phenylpropanoyl]amino]-3-(4-hydroxy-3,5-diiodophenyl)propanoic acid

> <PUBCHEM_IUPAC_SYSTEMATIC_NAME>
(2S)-2-[[(2S)-2-acetamido-3-phenyl-propanoyl]amino]-3-[3,5-bis(iodanyl)-4-oxidanyl-phenyl]propanoic acid

> <PUBCHEM_IUPAC_TRADITIONAL_NAME>
(2S)-2-[[(2S)-2-acetamido-3-phenyl-propanoyl]amino]-3-(4-hydroxy-3,5-diiodo-phenyl)propionic acid

> <PUBCHEM_IUPAC_INCHI>
InChI=1S/C20H20I2N2O5/c1-11(25)23-16(9-12-5-3-2-4-6-12)19(27)24-17(20(28)29)10-13-7-14(21)18(26)15(22)8-13/h2-8,16-17,26H,9-10H2,1H3,(H,23,25)(H,24,27)(H,28,29)/t16-,17-/m0/s1

> <PUBCHEM_IUPAC_INCHIKEY>
DWIHCEZUWCRUES-IRXDYDNUSA-N

> <PUBCHEM_XLOGP3>
2.8

> <PUBCHEM_EXACT_MASS>
621.946168

> <PUBCHEM_MOLECULAR_FORMULA>
C20H20I2N2O5

> <PUBCHEM_MOLECULAR_WEIGHT>
622.19214

> <PUBCHEM_OPENEYE_CAN_SMILES>
CC(=O)NC(CC1=CC=CC=C1)C(=O)NC(CC2=CC(=C(C(=C2)I)O)I)C(=O)O

> <PUBCHEM_OPENEYE_ISO_SMILES>
CC(=O)N[C@@H](CC1=CC=CC=C1)C(=O)N[C@@H](CC2=CC(=C(C(=C2)I)O)I)C(=O)O

> <PUBCHEM_CACTVS_TPSA>
116

> <PUBCHEM_MONOISOTOPIC_WEIGHT>
621.946168

> <PUBCHEM_TOTAL_CHARGE>
0

> <PUBCHEM_HEAVY_ATOM_COUNT>
29

> <PUBCHEM_ATOM_DEF_STEREO_COUNT>
2

> <PUBCHEM_ATOM_UDEF_STEREO_COUNT>
0

> <PUBCHEM_BOND_DEF_STEREO_COUNT>
0

> <PUBCHEM_BOND_UDEF_STEREO_COUNT>
0

> <PUBCHEM_ISOTOPIC_ATOM_COUNT>
0

> <PUBCHEM_COMPONENT_COUNT>
1

> <PUBCHEM_CACTVS_TAUTO_COUNT>
8

> <PUBCHEM_COORDINATE_TYPE>
1
5
255

> <PUBCHEM_BONDANNOTATIONS>
15  20  8
15  21  8
16  18  8
16  19  8
18  24  8
19  23  8
20  25  8
21  26  8
23  27  8
24  27  8
25  28  8
26  28  8
11  8  6
10  9  6

$$$$

