   Color/Form

     * Crystals
     * Colorless crystals
     * White or slightly beige powder

   from [1]HSDB

   Odor
        Odorless
   from [2]HSDB

   Melting Point
        101-102 deg C
   from [3]HSDB

   Corrosivity
        Non-corrosive to metals
   from [4]HSDB

   Octanol/Water Partition Coefficient
        log Kow= 6.20
   from [5]HSDB

   Solubilities

     * Acetone: 500 g/l @ 20 deg C
     * Sol in ethanol, acetone, dioxane.
     * Water solubility= < 0.002 mg/l
     * Acetone (500 g/l), ethanol (15 g/l), cyclohexanone (750 g/l),
       dioxan (900 g/l), xylene (250 g/l), ethyl acetate.
     * Solubility; in cyclohexanone 750, dichloromethane 700, benzene 450,
       dimethyl sulphoxide 450, xylene 250, isopropanol 6 (all in g/l at
       20 deg C)
     * In water, 0.002 mg/l @ 25 deg C

   from [6]HSDB

   Spectral Properties
        Specific rotation: +61 deg (40 g/l benzene)
   from [7]HSDB

   Vapor Pressure
        1.5X10-8 mm Hg @ 25 deg C
   from [8]HSDB

   Other Chemical/Physical Properties
        The technical material produced industrially ... contains greater
   than or equal to 98% deltamethrin m/m (proportion by mass) and is a
   colorless crystalline powder. /Technical deltamethrin/
   from [9]HSDB

   Computed Properties
   Molecular Weight                  505.19916 [g/mol]
   Molecular Formula                 C[22]H[19]Br[2]NO[3]
   XLogP3                            6.2
   H-Bond Donor                      0
   H-Bond Acceptor                   4
   Rotatable Bond Count              7
   Exact Mass                        504.971121
   MonoIsotopic Mass                 502.973168
   Topological Polar Surface Area    59.3
   Heavy Atom Count                  28
   Formal Charge                     0
   Complexity                        643
   Isotope Atom Count                0
   Defined Atom Stereocenter Count   3
   Undefined Atom Stereocenter Count 0
   Defined Bond Stereocenter Count   0
   Undefined Bond Stereocenter Count 0
   Covalently-Bonded Unit Count      1
   Feature 3D Acceptor Count         3
   Feature 3D Hydrophobe Count       4
   Feature 3D Ring Count             2
   Effective Rotor Count             7.6
   Conformer Sampling RMSD           1.2
   CID Conformer Count               [10]154

References

   1. http://toxnet.nlm.nih.gov/cgi-bin/sis/search/r?dbs+hsdb:@term+@rn+@rel+52918-63-5
   2. http://toxnet.nlm.nih.gov/cgi-bin/sis/search/r?dbs+hsdb:@term+@rn+@rel+52918-63-5
   3. http://toxnet.nlm.nih.gov/cgi-bin/sis/search/r?dbs+hsdb:@term+@rn+@rel+52918-63-5
   4. http://toxnet.nlm.nih.gov/cgi-bin/sis/search/r?dbs+hsdb:@term+@rn+@rel+52918-63-5
   5. http://toxnet.nlm.nih.gov/cgi-bin/sis/search/r?dbs+hsdb:@term+@rn+@rel+52918-63-5
   6. http://toxnet.nlm.nih.gov/cgi-bin/sis/search/r?dbs+hsdb:@term+@rn+@rel+52918-63-5
   7. http://toxnet.nlm.nih.gov/cgi-bin/sis/search/r?dbs+hsdb:@term+@rn+@rel+52918-63-5
   8. http://toxnet.nlm.nih.gov/cgi-bin/sis/search/r?dbs+hsdb:@term+@rn+@rel+52918-63-5
   9. http://toxnet.nlm.nih.gov/cgi-bin/sis/search/r?dbs+hsdb:@term+@rn+@rel+52918-63-5
  10. http://pubchem.ncbi.nlm.nih.gov/vw3d/vw3d.cgi?cid=40585
