24892776
  -OEChem-07051213032D

 62 64  0     1  0  0  0  0  0999 V2000
    6.3301    0.4768    0.0000 P   0  0  3  0  0  0  0  0  0  0  0  0
    5.4641    1.9768    0.0000 P   0  0  3  0  0  0  0  0  0  0  0  0
    8.1667   -2.5177    0.0000 O   0  0  0  0  0  0  0  0  0  0  0  0
    3.7320    2.9768    0.0000 O   0  0  0  0  0  0  0  0  0  0  0  0
    9.1836   -0.1383    0.0000 O   0  0  0  0  0  0  0  0  0  0  0  0
    7.1962   -0.0232    0.0000 O   0  0  0  0  0  0  0  0  0  0  0  0
    5.4641    2.9768    0.0000 O   0  0  0  0  0  0  0  0  0  0  0  0
    2.0000    4.9768    0.0000 O   0  0  0  0  0  0  0  0  0  0  0  0
    5.4641    0.9768    0.0000 O   0  0  0  0  0  0  0  0  0  0  0  0
    7.9693   -4.3436    0.0000 O   0  0  0  0  0  0  0  0  0  0  0  0
    5.8301   -0.3892    0.0000 O   0  0  0  0  0  0  0  0  0  0  0  0
    6.4641    1.9768    0.0000 O   0  0  0  0  0  0  0  0  0  0  0  0
    6.8301    1.3429    0.0000 O   0  0  0  0  0  0  0  0  0  0  0  0
    4.4641    1.9768    0.0000 O   0  0  0  0  0  0  0  0  0  0  0  0
   10.7718   -6.3798    0.0000 O   0  0  0  0  0  0  0  0  0  0  0  0
    9.5516   -3.6392    0.0000 N   0  0  0  0  0  0  0  0  0  0  0  0
    4.2320    5.8428    0.0000 N   0  0  0  0  0  0  0  0  0  0  0  0
    9.3705   -5.3617    0.0000 N   0  0  0  0  0  0  0  0  0  0  0  0
    8.9757   -1.1164    0.0000 C   0  0  2  0  0  0  0  0  0  0  0  0
    8.0622   -1.5232    0.0000 C   0  0  1  0  0  0  0  0  0  0  0  0
    9.6448   -1.8596    0.0000 C   0  0  0  0  0  0  0  0  0  0  0  0
    9.1448   -2.7256    0.0000 C   0  0  1  0  0  0  0  0  0  0  0  0
    3.7320    4.9768    0.0000 C   0  0  1  0  0  0  0  0  0  0  0  0
    4.5981    4.4768    0.0000 C   0  0  0  0  0  0  0  0  0  0  0  0
    7.1962   -1.0232    0.0000 C   0  0  0  0  0  0  0  0  0  0  0  0
    4.5981    3.4768    0.0000 C   0  0  2  0  0  0  0  0  0  0  0  0
    2.8660    3.4768    0.0000 C   0  0  2  0  0  0  0  0  0  0  0  0
    2.8660    4.4768    0.0000 C   0  0  0  0  0  0  0  0  0  0  0  0
    3.2320    5.8428    0.0000 C   0  0  0  0  0  0  0  0  0  0  0  0
   10.5461   -3.7437    0.0000 C   0  0  0  0  0  0  0  0  0  0  0  0
    8.9638   -4.4482    0.0000 C   0  0  0  0  0  0  0  0  0  0  0  0
    2.0000    2.9768    0.0000 C   0  0  0  0  0  0  0  0  0  0  0  0
   10.9528   -4.6572    0.0000 C   0  0  0  0  0  0  0  0  0  0  0  0
   10.3651   -5.4662    0.0000 C   0  0  0  0  0  0  0  0  0  0  0  0
   11.9474   -4.7618    0.0000 C   0  0  0  0  0  0  0  0  0  0  0  0
    9.5746   -0.9560    0.0000 H   0  0  0  0  0  0  0  0  0  0  0  0
    7.5422   -1.8608    0.0000 H   0  0  0  0  0  0  0  0  0  0  0  0
   10.1464   -2.2240    0.0000 H   0  0  0  0  0  0  0  0  0  0  0  0
   10.0597   -1.3988    0.0000 H   0  0  0  0  0  0  0  0  0  0  0  0
    8.7547   -3.2074    0.0000 H   0  0  0  0  0  0  0  0  0  0  0  0
    5.2087    4.3692    0.0000 H   0  0  0  0  0  0  0  0  0  0  0  0
    4.8101    5.0594    0.0000 H   0  0  0  0  0  0  0  0  0  0  0  0
    6.5856   -0.9155    0.0000 H   0  0  0  0  0  0  0  0  0  0  0  0
    6.9841   -1.6058    0.0000 H   0  0  0  0  0  0  0  0  0  0  0  0
    4.5981    2.8568    0.0000 H   0  0  0  0  0  0  0  0  0  0  0  0
    2.8660    2.8568    0.0000 H   0  0  0  0  0  0  0  0  0  0  0  0
    3.7690    6.1528    0.0000 H   0  0  0  0  0  0  0  0  0  0  0  0
    2.9220    6.3798    0.0000 H   0  0  0  0  0  0  0  0  0  0  0  0
    2.6951    5.5328    0.0000 H   0  0  0  0  0  0  0  0  0  0  0  0
    9.7733    0.0533    0.0000 H   0  0  0  0  0  0  0  0  0  0  0  0
    4.8520    5.8428    0.0000 H   0  0  0  0  0  0  0  0  0  0  0  0
    3.9220    6.3798    0.0000 H   0  0  0  0  0  0  0  0  0  0  0  0
   10.9105   -3.2421    0.0000 H   0  0  0  0  0  0  0  0  0  0  0  0
    1.6900    3.5138    0.0000 H   0  0  0  0  0  0  0  0  0  0  0  0
    1.4631    2.6668    0.0000 H   0  0  0  0  0  0  0  0  0  0  0  0
    2.3100    2.4399    0.0000 H   0  0  0  0  0  0  0  0  0  0  0  0
    9.0061   -5.8633    0.0000 H   0  0  0  0  0  0  0  0  0  0  0  0
   11.8826   -5.3784    0.0000 H   0  0  0  0  0  0  0  0  0  0  0  0
   12.5640   -4.8266    0.0000 H   0  0  0  0  0  0  0  0  0  0  0  0
   12.0122   -4.1452    0.0000 H   0  0  0  0  0  0  0  0  0  0  0  0
    5.2101   -0.3892    0.0000 H   0  0  0  0  0  0  0  0  0  0  0  0
    6.7741    2.5138    0.0000 H   0  0  0  0  0  0  0  0  0  0  0  0
  1  6  1  0  0  0  0
  1  9  1  0  0  0  0
  1 11  1  0  0  0  0
  1 13  2  0  0  0  0
  2  7  1  0  0  0  0
  2  9  1  0  0  0  0
  2 12  1  0  0  0  0
  2 14  2  0  0  0  0
  3 20  1  0  0  0  0
  3 22  1  0  0  0  0
  4 26  1  0  0  0  0
  4 27  1  0  0  0  0
 19  5  1  1  0  0  0
  5 50  1  0  0  0  0
  6 25  1  0  0  0  0
 26  7  1  1  0  0  0
  8 28  2  0  0  0  0
 10 31  2  0  0  0  0
 11 61  1  0  0  0  0
 12 62  1  0  0  0  0
 15 34  2  0  0  0  0
 22 16  1  6  0  0  0
 16 30  1  0  0  0  0
 16 31  1  0  0  0  0
 23 17  1  1  0  0  0
 17 51  1  0  0  0  0
 17 52  1  0  0  0  0
 18 31  1  0  0  0  0
 18 34  1  0  0  0  0
 18 57  1  0  0  0  0
 19 20  1  0  0  0  0
 19 21  1  0  0  0  0
 19 36  1  0  0  0  0
 20 25  1  6  0  0  0
 20 37  1  0  0  0  0
 21 22  1  0  0  0  0
 21 38  1  0  0  0  0
 21 39  1  0  0  0  0
 22 40  1  0  0  0  0
 23 24  1  0  0  0  0
 23 28  1  0  0  0  0
 23 29  1  0  0  0  0
 24 26  1  0  0  0  0
 24 41  1  0  0  0  0
 24 42  1  0  0  0  0
 25 43  1  0  0  0  0
 25 44  1  0  0  0  0
 26 45  1  0  0  0  0
 27 28  1  0  0  0  0
 27 32  1  1  0  0  0
 27 46  1  0  0  0  0
 29 47  1  0  0  0  0
 29 48  1  0  0  0  0
 29 49  1  0  0  0  0
 30 33  2  0  0  0  0
 30 53  1  0  0  0  0
 32 54  1  0  0  0  0
 32 55  1  0  0  0  0
 32 56  1  0  0  0  0
 33 34  1  0  0  0  0
 33 35  1  0  0  0  0
 35 58  1  0  0  0  0
 35 59  1  0  0  0  0
 35 60  1  0  0  0  0
M  END
> <PUBCHEM_COMPOUND_CID>
24892776

> <PUBCHEM_COMPOUND_CANONICALIZED>
1

> <PUBCHEM_CACTVS_COMPLEXITY>
1020

> <PUBCHEM_CACTVS_HBOND_ACCEPTOR>
14

> <PUBCHEM_CACTVS_HBOND_DONOR>
5

> <PUBCHEM_CACTVS_ROTATABLE_BOND>
8

> <PUBCHEM_CACTVS_SUBSKEYS>
AAADceB7PAMAAAAAAAAAAAAAAAAAASAAAAAkQAAAAAAAAAAAAAAAHgAQCCAADJzxgAcDCAPABxCIQoFWUIKAAAAAAAAAAAHIAECREBIAgQQOQAAPFyIHAMGycAYOAAAAAAAAAAAAAAAAAAAAAAAAAAAAAA==

> <PUBCHEM_IUPAC_OPENEYE_NAME>
[(2R,4S,6S)-4-amino-4,6-dimethyl-5-oxo-tetrahydropyran-2-yl] [hydroxy-[[(2R,3S,5R)-3-hydroxy-5-(5-methyl-2,4-dioxo-pyrimidin-1-yl)tetrahydrofuran-2-yl]methoxy]phosphoryl] hydrogen phosphate

> <PUBCHEM_IUPAC_CAS_NAME>
[(2R,4S,6S)-4-amino-4,6-dimethyl-5-oxo-2-oxanyl] [hydroxy-[[(2R,3S,5R)-3-hydroxy-5-(5-methyl-2,4-dioxo-1-pyrimidinyl)-2-oxolanyl]methoxy]phosphoryl] hydrogen phosphate

> <PUBCHEM_IUPAC_NAME>
[(2R,4S,6S)-4-amino-4,6-dimethyl-5-oxooxan-2-yl] [hydroxy-[[(2R,3S,5R)-3-hydroxy-5-(5-methyl-2,4-dioxopyrimidin-1-yl)oxolan-2-yl]methoxy]phosphoryl] hydrogen phosphate

> <PUBCHEM_IUPAC_SYSTEMATIC_NAME>
[(2R,4S,6S)-4-azanyl-4,6-dimethyl-5-oxidanylidene-oxan-2-yl] [[(2R,3S,5R)-5-[5-methyl-2,4-bis(oxidanylidene)pyrimidin-1-yl]-3-oxidanyl-oxolan-2-yl]methoxy-oxidanyl-phosphoryl] hydrogen phosphate

> <PUBCHEM_IUPAC_TRADITIONAL_NAME>
[(2R,4S,6S)-4-amino-5-keto-4,6-dimethyl-tetrahydropyran-2-yl] [[(2R,3S,5R)-5-(2,4-diketo-5-methyl-pyrimidin-1-yl)-3-hydroxy-tetrahydrofuran-2-yl]methoxy-hydroxy-phosphoryl] hydrogen phosphate

> <PUBCHEM_IUPAC_INCHI>
InChI=1S/C17H27N3O13P2/c1-8-6-20(16(24)19-15(8)23)12-4-10(21)11(31-12)7-29-34(25,26)33-35(27,28)32-13-5-17(3,18)14(22)9(2)30-13/h6,9-13,21H,4-5,7,18H2,1-3H3,(H,25,26)(H,27,28)(H,19,23,24)/t9-,10-,11+,12+,13+,17-/m0/s1

> <PUBCHEM_IUPAC_INCHIKEY>
LXNLHPYBLNFMEH-VRLCQRPESA-N

> <PUBCHEM_XLOGP3_AA>
-5.7

> <PUBCHEM_EXACT_MASS>
543.101911

> <PUBCHEM_MOLECULAR_FORMULA>
C17H27N3O13P2

> <PUBCHEM_MOLECULAR_WEIGHT>
543.356104

> <PUBCHEM_OPENEYE_CAN_SMILES>
CC1C(=O)C(CC(O1)OP(=O)(O)OP(=O)(O)OCC2C(CC(O2)N3C=C(C(=O)NC3=O)C)O)(C)N

> <PUBCHEM_OPENEYE_ISO_SMILES>
C[C@H]1C(=O)[C@@](C[C@H](O1)OP(=O)(O)OP(=O)(O)OC[C@@H]2[C@H](C[C@@H](O2)N3C=C(C(=O)NC3=O)C)O)(C)N

> <PUBCHEM_CACTVS_TPSA>
234

> <PUBCHEM_MONOISOTOPIC_WEIGHT>
543.101911

> <PUBCHEM_TOTAL_CHARGE>
0

> <PUBCHEM_HEAVY_ATOM_COUNT>
35

> <PUBCHEM_ATOM_DEF_STEREO_COUNT>
6

> <PUBCHEM_ATOM_UDEF_STEREO_COUNT>
0

> <PUBCHEM_BOND_DEF_STEREO_COUNT>
0

> <PUBCHEM_BOND_UDEF_STEREO_COUNT>
0

> <PUBCHEM_ISOTOPIC_ATOM_COUNT>
0

> <PUBCHEM_COMPONENT_COUNT>
1

> <PUBCHEM_CACTVS_TAUTO_COUNT>
6

> <PUBCHEM_COORDINATE_TYPE>
1
5
255

> <PUBCHEM_BONDANNOTATIONS>
22  16  6
16  30  8
16  31  8
23  17  5
18  31  8
18  34  8
20  25  6
27  32  5
30  33  8
33  34  8
19  5  5
26  7  5

$$$$

