9136
  -OEChem-07051213132D

 30 33  0     0  0  0  0  0  0999 V2000
    4.6660    0.5810    0.0000 C   0  0  0  0  0  0  0  0  0  0  0  0
    4.6500   -0.4605    0.0000 C   0  0  0  0  0  0  0  0  0  0  0  0
    3.8000    1.0810    0.0000 C   0  0  0  0  0  0  0  0  0  0  0  0
    5.5321    1.0810    0.0000 C   0  0  0  0  0  0  0  0  0  0  0  0
    3.8000    2.0810    0.0000 C   0  0  0  0  0  0  0  0  0  0  0  0
    5.5480   -0.9882    0.0000 C   0  0  0  0  0  0  0  0  0  0  0  0
    5.5321    2.0810    0.0000 C   0  0  0  0  0  0  0  0  0  0  0  0
    6.4421    0.5742    0.0000 C   0  0  0  0  0  0  0  0  0  0  0  0
    4.6660    2.5810    0.0000 C   0  0  0  0  0  0  0  0  0  0  0  0
    6.4501   -0.4674    0.0000 C   0  0  0  0  0  0  0  0  0  0  0  0
    2.9061    0.5464    0.0000 C   0  0  0  0  0  0  0  0  0  0  0  0
    3.6980   -0.9811    0.0000 C   0  0  0  0  0  0  0  0  0  0  0  0
    2.9061    2.6157    0.0000 C   0  0  0  0  0  0  0  0  0  0  0  0
    5.5564   -2.0732    0.0000 C   0  0  0  0  0  0  0  0  0  0  0  0
    2.0000    1.0602    0.0000 C   0  0  0  0  0  0  0  0  0  0  0  0
    3.6813   -2.0660    0.0000 C   0  0  0  0  0  0  0  0  0  0  0  0
    4.6167   -2.6157    0.0000 C   0  0  0  0  0  0  0  0  0  0  0  0
    2.0000    2.1019    0.0000 C   0  0  0  0  0  0  0  0  0  0  0  0
    6.0690    2.3910    0.0000 H   0  0  0  0  0  0  0  0  0  0  0  0
    6.9754    0.8904    0.0000 H   0  0  0  0  0  0  0  0  0  0  0  0
    4.6660    3.2010    0.0000 H   0  0  0  0  0  0  0  0  0  0  0  0
    6.9882   -0.7753    0.0000 H   0  0  0  0  0  0  0  0  0  0  0  0
    2.9132   -0.0736    0.0000 H   0  0  0  0  0  0  0  0  0  0  0  0
    3.1672   -0.6608    0.0000 H   0  0  0  0  0  0  0  0  0  0  0  0
    2.9132    3.2356    0.0000 H   0  0  0  0  0  0  0  0  0  0  0  0
    6.0945   -2.3811    0.0000 H   0  0  0  0  0  0  0  0  0  0  0  0
    1.4643    0.7481    0.0000 H   0  0  0  0  0  0  0  0  0  0  0  0
    3.1408   -2.3697    0.0000 H   0  0  0  0  0  0  0  0  0  0  0  0
    1.4643    2.4139    0.0000 H   0  0  0  0  0  0  0  0  0  0  0  0
    4.6144   -3.2357    0.0000 H   0  0  0  0  0  0  0  0  0  0  0  0
  1  2  1  0  0  0  0
  1  3  1  0  0  0  0
  1  4  2  0  0  0  0
  2  6  1  0  0  0  0
  2 12  2  0  0  0  0
  3  5  1  0  0  0  0
  3 11  2  0  0  0  0
  4  7  1  0  0  0  0
  4  8  1  0  0  0  0
  5  9  1  0  0  0  0
  5 13  2  0  0  0  0
  6 10  1  0  0  0  0
  6 14  2  0  0  0  0
  7  9  2  0  0  0  0
  7 19  1  0  0  0  0
  8 10  2  0  0  0  0
  8 20  1  0  0  0  0
  9 21  1  0  0  0  0
 10 22  1  0  0  0  0
 11 15  1  0  0  0  0
 11 23  1  0  0  0  0
 12 16  1  0  0  0  0
 12 24  1  0  0  0  0
 13 18  1  0  0  0  0
 13 25  1  0  0  0  0
 14 17  1  0  0  0  0
 14 26  1  0  0  0  0
 15 18  2  0  0  0  0
 15 27  1  0  0  0  0
 16 17  2  0  0  0  0
 16 28  1  0  0  0  0
 17 30  1  0  0  0  0
 18 29  1  0  0  0  0
M  END
> <PUBCHEM_COMPOUND_CID>
9136

> <PUBCHEM_COMPOUND_CANONICALIZED>
1

> <PUBCHEM_CACTVS_COMPLEXITY>
266

> <PUBCHEM_CACTVS_HBOND_ACCEPTOR>
0

> <PUBCHEM_CACTVS_HBOND_DONOR>
0

> <PUBCHEM_CACTVS_ROTATABLE_BOND>
0

> <PUBCHEM_CACTVS_SUBSKEYS>
AAADccB4AAAAAAAAAAAAAAAAAAAAAAAAAAAwYMGAAAAAAADBVAAAGAAAAAAADACAGAAwAMAAAACAAiBCAAACAAAgAAAIiAAAAIgIICKAERCAIAAggAAIiAcAgMAOwAACAAAQAACAAAQAACAAAAAAAAAAAA==

> <PUBCHEM_IUPAC_OPENEYE_NAME>
benzo[c]phenanthrene

> <PUBCHEM_IUPAC_CAS_NAME>
benzo[c]phenanthrene

> <PUBCHEM_IUPAC_NAME>
benzo[c]phenanthrene

> <PUBCHEM_IUPAC_SYSTEMATIC_NAME>
benzo[c]phenanthrene

> <PUBCHEM_IUPAC_TRADITIONAL_NAME>
benzo[c]phenanthrene

> <PUBCHEM_IUPAC_INCHI>
InChI=1S/C18H12/c1-3-7-16-13(5-1)9-11-15-12-10-14-6-2-4-8-17(14)18(15)16/h1-12H

> <PUBCHEM_IUPAC_INCHIKEY>
TUAHORSUHVUKBD-UHFFFAOYSA-N

> <PUBCHEM_XLOGP3>
5.7

> <PUBCHEM_EXACT_MASS>
228.0939

> <PUBCHEM_MOLECULAR_FORMULA>
C18H12

> <PUBCHEM_MOLECULAR_WEIGHT>
228.28788

> <PUBCHEM_OPENEYE_CAN_SMILES>
C1=CC=C2C(=C1)C=CC3=C2C4=CC=CC=C4C=C3

> <PUBCHEM_OPENEYE_ISO_SMILES>
C1=CC=C2C(=C1)C=CC3=C2C4=CC=CC=C4C=C3

> <PUBCHEM_CACTVS_TPSA>
0

> <PUBCHEM_MONOISOTOPIC_WEIGHT>
228.0939

> <PUBCHEM_TOTAL_CHARGE>
0

> <PUBCHEM_HEAVY_ATOM_COUNT>
18

> <PUBCHEM_ATOM_DEF_STEREO_COUNT>
0

> <PUBCHEM_ATOM_UDEF_STEREO_COUNT>
0

> <PUBCHEM_BOND_DEF_STEREO_COUNT>
0

> <PUBCHEM_BOND_UDEF_STEREO_COUNT>
0

> <PUBCHEM_ISOTOPIC_ATOM_COUNT>
0

> <PUBCHEM_COMPONENT_COUNT>
1

> <PUBCHEM_CACTVS_TAUTO_COUNT>
1

> <PUBCHEM_COORDINATE_TYPE>
1
5
255

> <PUBCHEM_BONDANNOTATIONS>
1  2  8
1  3  8
1  4  8
11  15  8
12  16  8
13  18  8
14  17  8
15  18  8
16  17  8
2  12  8
2  6  8
3  11  8
3  5  8
4  7  8
4  8  8
5  13  8
5  9  8
6  10  8
6  14  8
7  9  8
8  10  8

$$$$

