   Color/Form

     * Viscous semi-solid
     * Pure isomers; colorless crystals

   from [1]HSDB

   Odor
        Odorless
   from [2]HSDB

   Melting Point
        80.5 deg C
   from [3]HSDB

   Corrosivity
        Non-corrosive to metals
   from [4]HSDB

   Density/Specific Gravity
        1.25 g/cu cm @ 20 deg C
   from [5]HSDB

   Octanol/Water Partition Coefficient
        log Kow = 6.60
   from [6]HSDB

   Solubilities

     * In acetone, chloroform, cyclohexanone, xylene greater than 450,
       ethanol 337, hexane 103 (all in g/l at 20 deg C).
     * Soluble in methanol and methylene dichloride
     * In water, 4X10-3 mg/l @ 20 deg C

   from [7]HSDB

   Vapor Pressure
        3.07X10-9 mm Hg @ 20 deg C
   from [8]HSDB

   Other Chemical/Physical Properties
        Yellow-brown viscous semi-solid /Technical/
   from [9]HSDB

   Computed Properties
   Molecular Weight                  416.29716 [g/mol]
   Molecular Formula                 C[22]H[19]Cl[2]NO[3]
   XLogP3                            6
   H-Bond Donor                      0
   H-Bond Acceptor                   4
   Rotatable Bond Count              7
   Exact Mass                        415.074199
   MonoIsotopic Mass                 415.074199
   Topological Polar Surface Area    59.3
   Heavy Atom Count                  28
   Formal Charge                     0
   Complexity                        643
   Isotope Atom Count                0
   Defined Atom Stereocenter Count   0
   Undefined Atom Stereocenter Count 3
   Defined Bond Stereocenter Count   0
   Undefined Bond Stereocenter Count 0
   Covalently-Bonded Unit Count      1
   Feature 3D Acceptor Count         3
   Feature 3D Hydrophobe Count       1
   Feature 3D Ring Count             2
   Effective Rotor Count             7.6
   Conformer Sampling RMSD           1.4
   CID Conformer Count               [10]217

References

   1. http://toxnet.nlm.nih.gov/cgi-bin/sis/search/r?dbs+hsdb:@term+@rn+@rel+52315-07-8
   2. http://toxnet.nlm.nih.gov/cgi-bin/sis/search/r?dbs+hsdb:@term+@rn+@rel+52315-07-8
   3. http://toxnet.nlm.nih.gov/cgi-bin/sis/search/r?dbs+hsdb:@term+@rn+@rel+52315-07-8
   4. http://toxnet.nlm.nih.gov/cgi-bin/sis/search/r?dbs+hsdb:@term+@rn+@rel+52315-07-8
   5. http://toxnet.nlm.nih.gov/cgi-bin/sis/search/r?dbs+hsdb:@term+@rn+@rel+52315-07-8
   6. http://toxnet.nlm.nih.gov/cgi-bin/sis/search/r?dbs+hsdb:@term+@rn+@rel+52315-07-8
   7. http://toxnet.nlm.nih.gov/cgi-bin/sis/search/r?dbs+hsdb:@term+@rn+@rel+52315-07-8
   8. http://toxnet.nlm.nih.gov/cgi-bin/sis/search/r?dbs+hsdb:@term+@rn+@rel+52315-07-8
   9. http://toxnet.nlm.nih.gov/cgi-bin/sis/search/r?dbs+hsdb:@term+@rn+@rel+52315-07-8
  10. http://pubchem.ncbi.nlm.nih.gov/vw3d/vw3d.cgi?cid=2912
