12003
  -OEChem-06261206232D

 13 13  0     0  0  0  0  0  0999 V2000
    3.7320    1.8100    0.0000 Br  0  0  0  0  0  0  0  0  0  0  0  0
    2.0000    0.8100    0.0000 Br  0  0  0  0  0  0  0  0  0  0  0  0
    5.4641   -1.1900    0.0000 O   0  0  0  0  0  0  0  0  0  0  0  0
    4.5981   -0.6900    0.0000 C   0  0  0  0  0  0  0  0  0  0  0  0
    4.5981    0.3100    0.0000 C   0  0  0  0  0  0  0  0  0  0  0  0
    3.7320   -1.1900    0.0000 C   0  0  0  0  0  0  0  0  0  0  0  0
    3.7320    0.8100    0.0000 C   0  0  0  0  0  0  0  0  0  0  0  0
    2.8660    0.3100    0.0000 C   0  0  0  0  0  0  0  0  0  0  0  0
    2.8660   -0.6900    0.0000 C   0  0  0  0  0  0  0  0  0  0  0  0
    5.1350    0.6200    0.0000 H   0  0  0  0  0  0  0  0  0  0  0  0
    3.7320   -1.8100    0.0000 H   0  0  0  0  0  0  0  0  0  0  0  0
    2.3291   -1.0000    0.0000 H   0  0  0  0  0  0  0  0  0  0  0  0
    5.4641   -1.8100    0.0000 H   0  0  0  0  0  0  0  0  0  0  0  0
  1  7  1  0  0  0  0
  2  8  1  0  0  0  0
  3  4  1  0  0  0  0
  3 13  1  0  0  0  0
  4  5  2  0  0  0  0
  4  6  1  0  0  0  0
  5  7  1  0  0  0  0
  5 10  1  0  0  0  0
  6  9  2  0  0  0  0
  6 11  1  0  0  0  0
  7  8  2  0  0  0  0
  8  9  1  0  0  0  0
  9 12  1  0  0  0  0
M  END
> <PUBCHEM_COMPOUND_CID>
12003

> <PUBCHEM_COMPOUND_CANONICALIZED>
1

> <PUBCHEM_CACTVS_COMPLEXITY>
97.1

> <PUBCHEM_CACTVS_HBOND_ACCEPTOR>
1

> <PUBCHEM_CACTVS_HBOND_DONOR>
1

> <PUBCHEM_CACTVS_ROTATABLE_BOND>
0

> <PUBCHEM_CACTVS_SUBSKEYS>
AAADcYBgIAAAGAAAAAAAAAAAAAAAAAAAAAAwAAAAAAAAAAABAAAAGgBACAABqASAkAAwBoAAAgCAACBCAAACAAAgIAQIiAAGCKgIJiKCERKAcAAkwBEImheAQAAAABAAAIAAAAEAIAABAAAAAgAAAAAAAA==

> <PUBCHEM_IUPAC_OPENEYE_NAME>
3,4-dibromophenol

> <PUBCHEM_IUPAC_CAS_NAME>
3,4-dibromophenol

> <PUBCHEM_IUPAC_NAME>
3,4-dibromophenol

> <PUBCHEM_IUPAC_SYSTEMATIC_NAME>
3,4-bis(bromanyl)phenol

> <PUBCHEM_IUPAC_TRADITIONAL_NAME>
3,4-dibromophenol

> <PUBCHEM_IUPAC_INCHI>
InChI=1S/C6H4Br2O/c7-5-2-1-4(9)3-6(5)8/h1-3,9H

> <PUBCHEM_IUPAC_INCHIKEY>
KYZSNVXYOQKZAK-UHFFFAOYSA-N

> <PUBCHEM_XLOGP3>
3.2

> <PUBCHEM_EXACT_MASS>
251.860842

> <PUBCHEM_MOLECULAR_FORMULA>
C6H4Br2O

> <PUBCHEM_MOLECULAR_WEIGHT>
251.90336

> <PUBCHEM_OPENEYE_CAN_SMILES>
C1=CC(=C(C=C1O)Br)Br

> <PUBCHEM_OPENEYE_ISO_SMILES>
C1=CC(=C(C=C1O)Br)Br

> <PUBCHEM_CACTVS_TPSA>
20.2

> <PUBCHEM_MONOISOTOPIC_WEIGHT>
249.862889

> <PUBCHEM_TOTAL_CHARGE>
0

> <PUBCHEM_HEAVY_ATOM_COUNT>
9

> <PUBCHEM_ATOM_DEF_STEREO_COUNT>
0

> <PUBCHEM_ATOM_UDEF_STEREO_COUNT>
0

> <PUBCHEM_BOND_DEF_STEREO_COUNT>
0

> <PUBCHEM_BOND_UDEF_STEREO_COUNT>
0

> <PUBCHEM_ISOTOPIC_ATOM_COUNT>
0

> <PUBCHEM_COMPONENT_COUNT>
1

> <PUBCHEM_CACTVS_TAUTO_COUNT>
3

> <PUBCHEM_COORDINATE_TYPE>
1
5
255

> <PUBCHEM_BONDANNOTATIONS>
4  5  8
4  6  8
5  7  8
6  9  8
7  8  8
8  9  8

$$$$

