440231
  -OEChem-07051212492D

 19 18  0     1  0  0  0  0  0999 V2000
    3.4030   -0.2015    0.0000 P   0  0  0  0  0  0  0  0  0  0  0  0
    4.2690    0.2985    0.0000 O   0  0  0  0  0  0  0  0  0  0  0  0
    2.5369   -0.7015    0.0000 O   0  0  0  0  0  0  0  0  0  0  0  0
    2.9030    0.6645    0.0000 O   0  0  0  0  0  0  0  0  0  0  0  0
    3.9030   -1.0675    0.0000 O   0  0  0  0  0  0  0  0  0  0  0  0
    6.8671   -0.2015    0.0000 N   0  0  0  0  0  0  0  0  0  0  0  0
    5.1350   -0.2015    0.0000 C   0  0  2  0  0  0  0  0  0  0  0  0
    6.0010    0.2985    0.0000 C   0  0  0  0  0  0  0  0  0  0  0  0
    5.1350   -1.2015    0.0000 C   0  0  0  0  0  0  0  0  0  0  0  0
    5.1350    0.4185    0.0000 H   0  0  0  0  0  0  0  0  0  0  0  0
    6.3996    0.7735    0.0000 H   0  0  0  0  0  0  0  0  0  0  0  0
    5.6025    0.7735    0.0000 H   0  0  0  0  0  0  0  0  0  0  0  0
    4.5150   -1.2015    0.0000 H   0  0  0  0  0  0  0  0  0  0  0  0
    5.1350   -1.8215    0.0000 H   0  0  0  0  0  0  0  0  0  0  0  0
    5.7550   -1.2015    0.0000 H   0  0  0  0  0  0  0  0  0  0  0  0
    7.4040    0.1085    0.0000 H   0  0  0  0  0  0  0  0  0  0  0  0
    6.8671   -0.8215    0.0000 H   0  0  0  0  0  0  0  0  0  0  0  0
    2.0000   -0.3915    0.0000 H   0  0  0  0  0  0  0  0  0  0  0  0
    3.2130    1.2015    0.0000 H   0  0  0  0  0  0  0  0  0  0  0  0
  1  2  1  0  0  0  0
  1  3  1  0  0  0  0
  1  4  1  0  0  0  0
  1  5  2  0  0  0  0
  7  2  1  6  0  0  0
  3 18  1  0  0  0  0
  4 19  1  0  0  0  0
  6  8  1  0  0  0  0
  6 16  1  0  0  0  0
  6 17  1  0  0  0  0
  7  8  1  0  0  0  0
  7  9  1  0  0  0  0
  7 10  1  0  0  0  0
  8 11  1  0  0  0  0
  8 12  1  0  0  0  0
  9 13  1  0  0  0  0
  9 14  1  0  0  0  0
  9 15  1  0  0  0  0
M  END
> <PUBCHEM_COMPOUND_CID>
440231

> <PUBCHEM_COMPOUND_CANONICALIZED>
1

> <PUBCHEM_CACTVS_COMPLEXITY>
121

> <PUBCHEM_CACTVS_HBOND_ACCEPTOR>
5

> <PUBCHEM_CACTVS_HBOND_DONOR>
3

> <PUBCHEM_CACTVS_ROTATABLE_BOND>
3

> <PUBCHEM_CACTVS_SUBSKEYS>
AAADccBCOAIAAAAAAAAAAAAAAAAAAAAAAAAAAAAAAAAAAAAAAAAAHgAQCCAACBThgAYCAABAARAAQAAAAIAAAAAAAAAAAIAAAAACAAAAAAAAAAAAEAAAAAAAAAAAAAAAAAAAAAAAAAAAAAAAAAAAAAAAAA==

> <PUBCHEM_IUPAC_OPENEYE_NAME>
[(1S)-2-amino-1-methyl-ethyl] dihydrogen phosphate

> <PUBCHEM_IUPAC_CAS_NAME>
[(2S)-1-aminopropan-2-yl] dihydrogen phosphate

> <PUBCHEM_IUPAC_NAME>
[(2S)-1-aminopropan-2-yl] dihydrogen phosphate

> <PUBCHEM_IUPAC_SYSTEMATIC_NAME>
[(2S)-1-azanylpropan-2-yl] dihydrogen phosphate

> <PUBCHEM_IUPAC_TRADITIONAL_NAME>
[(1S)-2-amino-1-methyl-ethyl] dihydrogen phosphate

> <PUBCHEM_IUPAC_INCHI>
InChI=1S/C3H10NO4P/c1-3(2-4)8-9(5,6)7/h3H,2,4H2,1H3,(H2,5,6,7)/t3-/m0/s1

> <PUBCHEM_IUPAC_INCHIKEY>
YBOLZUJJGUZUDC-VKHMYHEASA-N

> <PUBCHEM_XLOGP3_AA>
-4.3

> <PUBCHEM_EXACT_MASS>
155.034744

> <PUBCHEM_MOLECULAR_FORMULA>
C3H10NO4P

> <PUBCHEM_MOLECULAR_WEIGHT>
155.089562

> <PUBCHEM_OPENEYE_CAN_SMILES>
CC(CN)OP(=O)(O)O

> <PUBCHEM_OPENEYE_ISO_SMILES>
C[C@@H](CN)OP(=O)(O)O

> <PUBCHEM_CACTVS_TPSA>
92.8

> <PUBCHEM_MONOISOTOPIC_WEIGHT>
155.034744

> <PUBCHEM_TOTAL_CHARGE>
0

> <PUBCHEM_HEAVY_ATOM_COUNT>
9

> <PUBCHEM_ATOM_DEF_STEREO_COUNT>
1

> <PUBCHEM_ATOM_UDEF_STEREO_COUNT>
0

> <PUBCHEM_BOND_DEF_STEREO_COUNT>
0

> <PUBCHEM_BOND_UDEF_STEREO_COUNT>
0

> <PUBCHEM_ISOTOPIC_ATOM_COUNT>
0

> <PUBCHEM_COMPONENT_COUNT>
1

> <PUBCHEM_CACTVS_TAUTO_COUNT>
1

> <PUBCHEM_COORDINATE_TYPE>
1
5
255

> <PUBCHEM_BONDANNOTATIONS>
7  2  6

$$$$

