5281160
  -OEChem-07051212552D

 42 43  0     1  0  0  0  0  0999 V2000
    7.0935   -0.2855    0.0000 O   0  0  0  0  0  0  0  0  0  0  0  0
    3.6759   -2.5865    0.0000 O   0  0  0  0  0  0  0  0  0  0  0  0
    3.8270    2.4554    0.0000 O   0  0  0  0  0  0  0  0  0  0  0  0
    6.8011    1.3729    0.0000 O   0  0  0  0  0  0  0  0  0  0  0  0
    5.4187   -2.9303    0.0000 O   0  0  0  0  0  0  0  0  0  0  0  0
    2.1199   -1.7297    0.0000 O   0  0  0  0  0  0  0  0  0  0  0  0
    5.6087   -0.9779    0.0000 C   0  0  2  0  0  0  0  0  0  0  0  0
    6.1087   -0.1119    0.0000 C   0  0  1  0  0  0  0  0  0  0  0  0
    6.2515   -1.7440    0.0000 C   0  0  0  0  0  0  0  0  0  0  0  0
    4.6690   -1.3199    0.0000 C   0  0  0  0  0  0  0  0  0  0  0  0
    3.7293   -0.9779    0.0000 C   0  0  0  0  0  0  0  0  0  0  0  0
    3.2293   -0.1119    0.0000 C   0  0  0  0  0  0  0  0  0  0  0  0
    5.9351    0.8729    0.0000 C   0  0  0  0  0  0  0  0  0  0  0  0
    5.1690    1.5157    0.0000 C   0  0  0  0  0  0  0  0  0  0  0  0
    4.1690    1.5157    0.0000 C   0  0  1  0  0  0  0  0  0  0  0  0
    7.2363   -1.5703    0.0000 C   0  0  0  0  0  0  0  0  0  0  0  0
    3.4030    0.8729    0.0000 C   0  0  0  0  0  0  0  0  0  0  0  0
    4.6317   -2.3133    0.0000 C   0  0  0  0  0  0  0  0  0  0  0  0
    3.1193   -1.7628    0.0000 C   0  0  0  0  0  0  0  0  0  0  0  0
    7.8791   -2.3364    0.0000 C   0  0  0  0  0  0  0  0  0  0  0  0
    2.5369    1.3729    0.0000 C   0  0  0  0  0  0  0  0  0  0  0  0
    2.5369    2.3729    0.0000 C   0  0  0  0  0  0  0  0  0  0  0  0
    6.2263   -0.9239    0.0000 H   0  0  0  0  0  0  0  0  0  0  0  0
    6.5471    0.3265    0.0000 H   0  0  0  0  0  0  0  0  0  0  0  0
    5.7146   -2.0540    0.0000 H   0  0  0  0  0  0  0  0  0  0  0  0
    6.4635   -2.3266    0.0000 H   0  0  0  0  0  0  0  0  0  0  0  0
    2.6753    0.1664    0.0000 H   0  0  0  0  0  0  0  0  0  0  0  0
    2.8038   -0.5629    0.0000 H   0  0  0  0  0  0  0  0  0  0  0  0
    5.6870    1.8564    0.0000 H   0  0  0  0  0  0  0  0  0  0  0  0
    4.9912    2.1097    0.0000 H   0  0  0  0  0  0  0  0  0  0  0  0
    3.5701    1.6762    0.0000 H   0  0  0  0  0  0  0  0  0  0  0  0
    7.7732   -1.2603    0.0000 H   0  0  0  0  0  0  0  0  0  0  0  0
    7.0242   -0.9877    0.0000 H   0  0  0  0  0  0  0  0  0  0  0  0
    7.4920    0.1894    0.0000 H   0  0  0  0  0  0  0  0  0  0  0  0
    7.4041   -2.7349    0.0000 H   0  0  0  0  0  0  0  0  0  0  0  0
    8.2776   -2.8113    0.0000 H   0  0  0  0  0  0  0  0  0  0  0  0
    8.3540   -1.9378    0.0000 H   0  0  0  0  0  0  0  0  0  0  0  0
    2.0000    1.0629    0.0000 H   0  0  0  0  0  0  0  0  0  0  0  0
    4.2255    2.9303    0.0000 H   0  0  0  0  0  0  0  0  0  0  0  0
    3.1569    2.3729    0.0000 H   0  0  0  0  0  0  0  0  0  0  0  0
    2.5369    2.9929    0.0000 H   0  0  0  0  0  0  0  0  0  0  0  0
    1.9169    2.3729    0.0000 H   0  0  0  0  0  0  0  0  0  0  0  0
  8  1  1  1  0  0  0
  1 34  1  0  0  0  0
  2 18  1  0  0  0  0
  2 19  1  0  0  0  0
 15  3  1  1  0  0  0
  3 39  1  0  0  0  0
  4 13  2  0  0  0  0
  5 18  2  0  0  0  0
  6 19  2  0  0  0  0
  7  8  1  0  0  0  0
  7  9  1  6  0  0  0
  7 10  1  0  0  0  0
  7 23  1  0  0  0  0
  8 13  1  0  0  0  0
  8 24  1  0  0  0  0
  9 16  1  0  0  0  0
  9 25  1  0  0  0  0
  9 26  1  0  0  0  0
 10 11  2  0  0  0  0
 10 18  1  0  0  0  0
 11 12  1  0  0  0  0
 11 19  1  0  0  0  0
 12 17  1  0  0  0  0
 12 27  1  0  0  0  0
 12 28  1  0  0  0  0
 13 14  1  0  0  0  0
 14 15  1  0  0  0  0
 14 29  1  0  0  0  0
 14 30  1  0  0  0  0
 15 17  1  0  0  0  0
 15 31  1  0  0  0  0
 16 20  1  0  0  0  0
 16 32  1  0  0  0  0
 16 33  1  0  0  0  0
 17 21  2  0  0  0  0
 20 35  1  0  0  0  0
 20 36  1  0  0  0  0
 20 37  1  0  0  0  0
 21 22  1  0  0  0  0
 21 38  1  0  0  0  0
 22 40  1  0  0  0  0
 22 41  1  0  0  0  0
 22 42  1  0  0  0  0
M  END
> <PUBCHEM_COMPOUND_CID>
5281160

> <PUBCHEM_COMPOUND_CANONICALIZED>
1

> <PUBCHEM_CACTVS_COMPLEXITY>
571

> <PUBCHEM_CACTVS_HBOND_ACCEPTOR>
6

> <PUBCHEM_CACTVS_HBOND_DONOR>
2

> <PUBCHEM_CACTVS_ROTATABLE_BOND>
2

> <PUBCHEM_CACTVS_SUBSKEYS>
AAADceB4OAAAAAAAAAAAAAAAAAAAAQAAAAAAAAAAAAAAAEAAAAAAGgAACAAADRSggAICCAAABgCIAqDSCAIAAAAgAAAACAFAAEgAFBYAIQACUAAE4AAIMQPK7vzuAAAAAAAAAAAAAAAAAAAAAAAAAAAAAA==

> <PUBCHEM_IUPAC_OPENEYE_NAME>
(4R,5S,8S,9Z)-9-ethylidene-5,8-dihydroxy-4-propyl-5,7,8,10-tetrahydro-4H-cyclonona[c]furan-1,3,6-trione

> <PUBCHEM_IUPAC_CAS_NAME>
(4R,5S,8S,9Z)-9-ethylidene-5,8-dihydroxy-4-propyl-5,7,8,10-tetrahydro-4H-cyclonona[c]furan-1,3,6-trione

> <PUBCHEM_IUPAC_NAME>
(4R,5S,8S,9Z)-9-ethylidene-5,8-dihydroxy-4-propyl-5,7,8,10-tetrahydro-4H-cyclonona[c]furan-1,3,6-trione

> <PUBCHEM_IUPAC_SYSTEMATIC_NAME>
(4R,5S,8S,9Z)-9-ethylidene-5,8-bis(oxidanyl)-4-propyl-5,7,8,10-tetrahydro-4H-cyclonona[c]furan-1,3,6-trione

> <PUBCHEM_IUPAC_TRADITIONAL_NAME>
(4R,5S,8S,9Z)-9-ethylidene-5,8-dihydroxy-4-propyl-5,7,8,10-tetrahydro-4H-cyclonona[c]furan-1,3,6-trione

> <PUBCHEM_IUPAC_INCHI>
InChI=1S/C16H20O6/c1-3-5-9-13-10(15(20)22-16(13)21)6-8(4-2)11(17)7-12(18)14(9)19/h4,9,11,14,17,19H,3,5-7H2,1-2H3/b8-4-/t9-,11+,14+/m1/s1

> <PUBCHEM_IUPAC_INCHIKEY>
ILMHTGUGRLGMCR-LRIVTRFWSA-N

> <PUBCHEM_XLOGP3_AA>
0.4

> <PUBCHEM_EXACT_MASS>
308.125988

> <PUBCHEM_MOLECULAR_FORMULA>
C16H20O6

> <PUBCHEM_MOLECULAR_WEIGHT>
308.3264

> <PUBCHEM_OPENEYE_CAN_SMILES>
CCCC1C(C(=O)CC(C(=CC)CC2=C1C(=O)OC2=O)O)O

> <PUBCHEM_OPENEYE_ISO_SMILES>
CCC[C@H]1[C@@H](C(=O)C[C@@H](/C(=C\C)/CC2=C1C(=O)OC2=O)O)O

> <PUBCHEM_CACTVS_TPSA>
101

> <PUBCHEM_MONOISOTOPIC_WEIGHT>
308.125988

> <PUBCHEM_TOTAL_CHARGE>
0

> <PUBCHEM_HEAVY_ATOM_COUNT>
22

> <PUBCHEM_ATOM_DEF_STEREO_COUNT>
3

> <PUBCHEM_ATOM_UDEF_STEREO_COUNT>
0

> <PUBCHEM_BOND_DEF_STEREO_COUNT>
1

> <PUBCHEM_BOND_UDEF_STEREO_COUNT>
0

> <PUBCHEM_ISOTOPIC_ATOM_COUNT>
0

> <PUBCHEM_COMPONENT_COUNT>
1

> <PUBCHEM_CACTVS_TAUTO_COUNT>
65

> <PUBCHEM_COORDINATE_TYPE>
1
5
255

> <PUBCHEM_BONDANNOTATIONS>
8  1  5
15  3  5
7  9  6

$$$$

