62998
  -OEChem-07051213042D

 47 48  0     0  0  0  0  0  0999 V2000
    4.0037    0.0000    0.0000 Cl  0  0  0  0  0  0  0  0  0  0  0  0
    6.6651    7.0200    0.0000 F   0  0  0  0  0  0  0  0  0  0  0  0
    3.1350    7.9959    0.0000 O   0  0  0  0  0  0  0  0  0  0  0  0
    0.5369    6.4959    0.0000 O   0  0  0  0  0  0  0  0  0  0  0  0
    1.4030    7.9959    0.0000 O   0  0  0  0  0  0  0  0  0  0  0  0
    4.5037   10.0113    0.0000 O   0  0  0  0  0  0  0  0  0  0  0  0
    3.1350    4.9959    0.0000 N   0  0  0  0  0  0  0  0  0  0  0  0
    6.6651    4.9717    0.0000 N   0  0  0  0  0  0  0  0  0  0  0  0
    8.3933    3.9651    0.0000 N   0  0  0  0  0  0  0  0  0  0  0  0
    3.1350    3.9959    0.0000 C   0  0  0  0  0  0  0  0  0  0  0  0
    2.6350    3.1298    0.0000 C   0  0  0  0  0  0  0  0  0  0  0  0
    3.6350    3.1298    0.0000 C   0  0  0  0  0  0  0  0  0  0  0  0
    4.0010    5.4959    0.0000 C   0  0  0  0  0  0  0  0  0  0  0  0
    2.2690    5.4959    0.0000 C   0  0  0  0  0  0  0  0  0  0  0  0
    4.0010    6.4959    0.0000 C   0  0  0  0  0  0  0  0  0  0  0  0
    4.8950    4.9612    0.0000 C   0  0  0  0  0  0  0  0  0  0  0  0
    5.8010    5.4751    0.0000 C   0  0  0  0  0  0  0  0  0  0  0  0
    2.2690    6.4959    0.0000 C   0  0  0  0  0  0  0  0  0  0  0  0
    6.6613    3.9717    0.0000 C   0  0  0  0  0  0  0  0  0  0  0  0
    7.5331    5.4684    0.0000 C   0  0  0  0  0  0  0  0  0  0  0  0
    3.1350    6.9959    0.0000 C   0  0  0  0  0  0  0  0  0  0  0  0
    4.8950    7.0305    0.0000 C   0  0  0  0  0  0  0  0  0  0  0  0
    8.3972    4.9650    0.0000 C   0  0  0  0  0  0  0  0  0  0  0  0
    7.5254    3.4684    0.0000 C   0  0  0  0  0  0  0  0  0  0  0  0
    5.8010    6.5167    0.0000 C   0  0  0  0  0  0  0  0  0  0  0  0
    1.4030    6.9959    0.0000 C   0  0  0  0  0  0  0  0  0  0  0  0
    2.5361    4.1564    0.0000 H   0  0  0  0  0  0  0  0  0  0  0  0
    2.0524    3.3419    0.0000 H   0  0  0  0  0  0  0  0  0  0  0  0
    3.7427    2.5193    0.0000 H   0  0  0  0  0  0  0  0  0  0  0  0
    4.2176    3.3419    0.0000 H   0  0  0  0  0  0  0  0  0  0  0  0
    2.5274    2.5193    0.0000 H   0  0  0  0  0  0  0  0  0  0  0  0
    1.7320    5.1859    0.0000 H   0  0  0  0  0  0  0  0  0  0  0  0
    4.8878    4.3413    0.0000 H   0  0  0  0  0  0  0  0  0  0  0  0
    6.0511    4.0818    0.0000 H   0  0  0  0  0  0  0  0  0  0  0  0
    6.4470    3.3900    0.0000 H   0  0  0  0  0  0  0  0  0  0  0  0
    7.9334    5.9418    0.0000 H   0  0  0  0  0  0  0  0  0  0  0  0
    7.1364    5.9449    0.0000 H   0  0  0  0  0  0  0  0  0  0  0  0
    4.8878    7.6505    0.0000 H   0  0  0  0  0  0  0  0  0  0  0  0
    7.1250    2.9950    0.0000 H   0  0  0  0  0  0  0  0  0  0  0  0
    7.9221    2.9919    0.0000 H   0  0  0  0  0  0  0  0  0  0  0  0
    9.0073    4.8550    0.0000 H   0  0  0  0  0  0  0  0  0  0  0  0
    8.6115    5.5468    0.0000 H   0  0  0  0  0  0  0  0  0  0  0  0
    8.9291    3.6530    0.0000 H   0  0  0  0  0  0  0  0  0  0  0  0
    0.0000    6.8059    0.0000 H   0  0  0  0  0  0  0  0  0  0  0  0
    5.0406   10.3213    0.0000 H   0  0  0  0  0  0  0  0  0  0  0  0
    3.9667   10.3213    0.0000 H   0  0  0  0  0  0  0  0  0  0  0  0
    5.0037    0.0000    0.0000 H   0  0  0  0  0  0  0  0  0  0  0  0
  1 47  1  0  0  0  0
  2 25  1  0  0  0  0
  3 21  2  0  0  0  0
  4 26  1  0  0  0  0
  4 44  1  0  0  0  0
  5 26  2  0  0  0  0
  6 45  1  0  0  0  0
  6 46  1  0  0  0  0
  7 10  1  0  0  0  0
  7 13  1  0  0  0  0
  7 14  1  0  0  0  0
  8 17  1  0  0  0  0
  8 19  1  0  0  0  0
  8 20  1  0  0  0  0
  9 23  1  0  0  0  0
  9 24  1  0  0  0  0
  9 43  1  0  0  0  0
 10 11  1  0  0  0  0
 10 12  1  0  0  0  0
 10 27  1  0  0  0  0
 11 12  1  0  0  0  0
 11 28  1  0  0  0  0
 11 31  1  0  0  0  0
 12 29  1  0  0  0  0
 12 30  1  0  0  0  0
 13 15  1  0  0  0  0
 13 16  2  0  0  0  0
 14 18  2  0  0  0  0
 14 32  1  0  0  0  0
 15 21  1  0  0  0  0
 15 22  2  0  0  0  0
 16 17  1  0  0  0  0
 16 33  1  0  0  0  0
 17 25  2  0  0  0  0
 18 21  1  0  0  0  0
 18 26  1  0  0  0  0
 19 24  1  0  0  0  0
 19 34  1  0  0  0  0
 19 35  1  0  0  0  0
 20 23  1  0  0  0  0
 20 36  1  0  0  0  0
 20 37  1  0  0  0  0
 22 25  1  0  0  0  0
 22 38  1  0  0  0  0
 23 41  1  0  0  0  0
 23 42  1  0  0  0  0
 24 39  1  0  0  0  0
 24 40  1  0  0  0  0
M  END
> <PUBCHEM_COMPOUND_CID>
62998

> <PUBCHEM_COMPOUND_CANONICALIZED>
1

> <PUBCHEM_CACTVS_COMPLEXITY>
571

> <PUBCHEM_CACTVS_HBOND_ACCEPTOR>
8

> <PUBCHEM_CACTVS_HBOND_DONOR>
4

> <PUBCHEM_CACTVS_ROTATABLE_BOND>
3

> <PUBCHEM_CACTVS_SUBSKEYS>
AAADceB7OQAEAAAAAAAAAAAAGAAAAAAAAAA8QIAAAAAAAACBAAAAHwAQCAAADCzBmAwwyIPAAgCIAqTWSACCAAAlAgAAiIEIZMgIZD7I1NGUYYhksADI2ceY2aOeCAAAAAQCAAAQAAAACAQAAAAAAAAAAA==

> <PUBCHEM_IUPAC_OPENEYE_NAME>
1-cyclopropyl-6-fluoro-4-oxo-7-piperazin-1-yl-quinoline-3-carboxylic acid hydrate hydrochloride

> <PUBCHEM_IUPAC_CAS_NAME>
1-cyclopropyl-6-fluoro-4-oxo-7-(1-piperazinyl)-3-quinolinecarboxylic acid hydrate hydrochloride

> <PUBCHEM_IUPAC_NAME>
1-cyclopropyl-6-fluoro-4-oxo-7-piperazin-1-ylquinoline-3-carboxylic acid hydrate hydrochloride

> <PUBCHEM_IUPAC_SYSTEMATIC_NAME>
1-cyclopropyl-6-fluoranyl-4-oxidanylidene-7-piperazin-1-yl-quinoline-3-carboxylic acid hydrate hydrochloride

> <PUBCHEM_IUPAC_TRADITIONAL_NAME>
1-cyclopropyl-6-fluoro-4-keto-7-piperazino-quinoline-3-carboxylic acid hydrate hydrochloride

> <PUBCHEM_IUPAC_INCHI>
InChI=1S/C17H18FN3O3.ClH.H2O/c18-13-7-11-14(8-15(13)20-5-3-19-4-6-20)21(10-1-2-10)9-12(16(11)22)17(23)24;;/h7-10,19H,1-6H2,(H,23,24);1H;1H2

> <PUBCHEM_IUPAC_INCHIKEY>
ARPUHYJMCVWYCZ-UHFFFAOYSA-N

> <PUBCHEM_EXACT_MASS>
385.120462

> <PUBCHEM_MOLECULAR_FORMULA>
C17H21ClFN3O4

> <PUBCHEM_MOLECULAR_WEIGHT>
385.817743

> <PUBCHEM_OPENEYE_CAN_SMILES>
C1CC1N2C=C(C(=O)C3=CC(=C(C=C32)N4CCNCC4)F)C(=O)O.O.Cl

> <PUBCHEM_OPENEYE_ISO_SMILES>
C1CC1N2C=C(C(=O)C3=CC(=C(C=C32)N4CCNCC4)F)C(=O)O.O.Cl

> <PUBCHEM_CACTVS_TPSA>
73.9

> <PUBCHEM_MONOISOTOPIC_WEIGHT>
385.120462

> <PUBCHEM_TOTAL_CHARGE>
0

> <PUBCHEM_HEAVY_ATOM_COUNT>
26

> <PUBCHEM_ATOM_DEF_STEREO_COUNT>
0

> <PUBCHEM_ATOM_UDEF_STEREO_COUNT>
0

> <PUBCHEM_BOND_DEF_STEREO_COUNT>
0

> <PUBCHEM_BOND_UDEF_STEREO_COUNT>
0

> <PUBCHEM_ISOTOPIC_ATOM_COUNT>
0

> <PUBCHEM_COMPONENT_COUNT>
3

> <PUBCHEM_CACTVS_TAUTO_COUNT>
1

> <PUBCHEM_COORDINATE_TYPE>
1
5
255

> <PUBCHEM_BONDANNOTATIONS>
13  15  8
13  16  8
14  18  8
15  21  8
15  22  8
16  17  8
17  25  8
18  21  8
22  25  8
7  13  8
7  14  8

$$$$

