441978
  -OEChem-07051212562D

 54 59  0     1  0  0  0  0  0999 V2000
    2.2823    0.6225    0.0000 O   0  0  0  0  0  0  0  0  0  0  0  0
    3.9401   -2.0187    0.0000 O   0  0  0  0  0  0  0  0  0  0  0  0
    2.2943   -1.4792    0.0000 O   0  0  0  0  0  0  0  0  0  0  0  0
    7.3988    1.5336    0.0000 O   0  0  0  0  0  0  0  0  0  0  0  0
    3.1131    2.0014    0.0000 N   0  0  3  0  0  0  0  0  0  0  0  0
    3.3941    2.1599    0.0000 N   0  0  3  0  0  0  0  0  0  0  0  0
    3.8941    0.6211    0.0000 C   0  0  1  0  0  0  0  0  0  0  0  0
    3.0851    1.2089    0.0000 C   0  0  1  0  0  0  0  0  0  0  0  0
    3.5844   -0.3236    0.0000 C   0  0  3  0  0  0  0  0  0  0  0  0
    4.0088    1.5530    0.0000 C   0  0  2  0  0  0  0  0  0  0  0  0
    4.5336   -0.0573    0.0000 C   0  0  2  0  0  0  0  0  0  0  0  0
    4.7511    0.9042    0.0000 C   0  0  0  0  0  0  0  0  0  0  0  0
    2.9162    0.4034    0.0000 C   0  0  0  0  0  0  0  0  0  0  0  0
    2.5904   -0.3227    0.0000 C   0  0  0  0  0  0  0  0  0  0  0  0
    4.7031    1.2089    0.0000 C   0  0  0  0  0  0  0  0  0  0  0  0
    2.4229    1.2753    0.0000 C   0  0  0  0  0  0  0  0  0  0  0  0
    3.5687    0.1910    0.0000 C   0  0  0  0  0  0  0  0  0  0  0  0
    3.0028    1.0111    0.0000 C   0  0  0  0  0  0  0  0  0  0  0  0
    4.3941    2.1599    0.0000 C   0  0  0  0  0  0  0  0  0  0  0  0
    3.2729   -1.2738    0.0000 C   0  0  0  0  0  0  0  0  0  0  0  0
    2.8063    2.9689    0.0000 C   0  0  0  0  0  0  0  0  0  0  0  0
    5.7185    0.9766    0.0000 C   0  0  0  0  0  0  0  0  0  0  0  0
    5.0790    2.9447    0.0000 C   0  0  0  0  0  0  0  0  0  0  0  0
    2.9963   -0.6290    0.0000 C   0  0  0  0  0  0  0  0  0  0  0  0
    6.4214    1.7453    0.0000 C   0  0  0  0  0  0  0  0  0  0  0  0
    6.0995    2.7359    0.0000 C   0  0  0  0  0  0  0  0  0  0  0  0
    2.0000   -0.5434    0.0000 C   0  0  0  0  0  0  0  0  0  0  0  0
    3.6287   -2.9689    0.0000 C   0  0  0  0  0  0  0  0  0  0  0  0
    4.7585    1.8322    0.0000 H   0  0  0  0  0  0  0  0  0  0  0  0
    5.3084   -0.2567    0.0000 H   0  0  0  0  0  0  0  0  0  0  0  0
    5.3251    0.6698    0.0000 H   0  0  0  0  0  0  0  0  0  0  0  0
    5.0767    1.4318    0.0000 H   0  0  0  0  0  0  0  0  0  0  0  0
    2.3492    0.1527    0.0000 H   0  0  0  0  0  0  0  0  0  0  0  0
    3.1099   -0.1856    0.0000 H   0  0  0  0  0  0  0  0  0  0  0  0
    1.9839   -0.4518    0.0000 H   0  0  0  0  0  0  0  0  0  0  0  0
    2.6550   -0.9393    0.0000 H   0  0  0  0  0  0  0  0  0  0  0  0
    2.0178    1.7446    0.0000 H   0  0  0  0  0  0  0  0  0  0  0  0
    1.9160    0.9183    0.0000 H   0  0  0  0  0  0  0  0  0  0  0  0
    2.4308    1.2504    0.0000 H   0  0  0  0  0  0  0  0  0  0  0  0
    2.6122    0.5296    0.0000 H   0  0  0  0  0  0  0  0  0  0  0  0
    3.3079    3.3334    0.0000 H   0  0  0  0  0  0  0  0  0  0  0  0
    2.4419    3.4705    0.0000 H   0  0  0  0  0  0  0  0  0  0  0  0
    2.3047    2.6045    0.0000 H   0  0  0  0  0  0  0  0  0  0  0  0
    5.9033    0.3848    0.0000 H   0  0  0  0  0  0  0  0  0  0  0  0
    4.8806    3.5321    0.0000 H   0  0  0  0  0  0  0  0  0  0  0  0
    3.2592   -1.1905    0.0000 H   0  0  0  0  0  0  0  0  0  0  0  0
    6.5126    3.1983    0.0000 H   0  0  0  0  0  0  0  0  0  0  0  0
    2.0531    0.0744    0.0000 H   0  0  0  0  0  0  0  0  0  0  0  0
    1.3823   -0.4903    0.0000 H   0  0  0  0  0  0  0  0  0  0  0  0
    1.9469   -1.1611    0.0000 H   0  0  0  0  0  0  0  0  0  0  0  0
    3.0395   -2.7758    0.0000 H   0  0  0  0  0  0  0  0  0  0  0  0
    3.4355   -3.5581    0.0000 H   0  0  0  0  0  0  0  0  0  0  0  0
    4.2178   -3.1621    0.0000 H   0  0  0  0  0  0  0  0  0  0  0  0
    7.8154    1.9928    0.0000 H   0  0  0  0  0  0  0  0  0  0  0  0
  1  8  1  0  0  0  0
  1 14  1  0  0  0  0
  2 20  1  0  0  0  0
  2 28  1  0  0  0  0
  3 20  2  0  0  0  0
  4 25  1  0  0  0  0
  4 54  1  0  0  0  0
  5 10  1  0  0  0  0
  5 16  1  0  0  0  0
  5 18  1  0  0  0  0
  8  6  1  1  0  0  0
  6 19  1  0  0  0  0
  6 21  1  0  0  0  0
  7  8  1  0  0  0  0
  7  9  1  0  0  0  0
  7 13  1  0  0  0  0
  7 15  1  6  0  0  0
  8 10  1  0  0  0  0
  9 11  1  0  0  0  0
  9 14  1  0  0  0  0
  9 20  1  0  0  0  0
 10 12  1  0  0  0  0
 10 29  1  6  0  0  0
 11 12  1  0  0  0  0
 11 17  1  0  0  0  0
 11 30  1  6  0  0  0
 12 31  1  0  0  0  0
 12 32  1  0  0  0  0
 13 16  1  0  0  0  0
 13 33  1  0  0  0  0
 13 34  1  0  0  0  0
 14 35  1  0  0  0  0
 14 36  1  0  0  0  0
 15 19  2  0  0  0  0
 15 22  1  0  0  0  0
 16 37  1  0  0  0  0
 16 38  1  0  0  0  0
 17 18  1  0  0  0  0
 17 24  2  3  0  0  0
 18 39  1  0  0  0  0
 18 40  1  0  0  0  0
 19 23  1  0  0  0  0
 21 41  1  0  0  0  0
 21 42  1  0  0  0  0
 21 43  1  0  0  0  0
 22 25  2  0  0  0  0
 22 44  1  0  0  0  0
 23 26  2  0  0  0  0
 23 45  1  0  0  0  0
 24 27  1  0  0  0  0
 24 46  1  0  0  0  0
 25 26  1  0  0  0  0
 26 47  1  0  0  0  0
 27 48  1  0  0  0  0
 27 49  1  0  0  0  0
 27 50  1  0  0  0  0
 28 51  1  0  0  0  0
 28 52  1  0  0  0  0
 28 53  1  0  0  0  0
M  END
> <PUBCHEM_COMPOUND_CID>
441978

> <PUBCHEM_COMPOUND_CANONICALIZED>
1

> <PUBCHEM_CACTVS_COMPLEXITY>
770

> <PUBCHEM_CACTVS_HBOND_ACCEPTOR>
6

> <PUBCHEM_CACTVS_HBOND_DONOR>
1

> <PUBCHEM_CACTVS_ROTATABLE_BOND>
2

> <PUBCHEM_CACTVS_SUBSKEYS>
AAADceB7OAAAAAAAAAAAAAAAAAAAAWJAAAA8eIEABIAWLFgBAAAAHgAACAAADyzhmAYyzoMABgCIAiTSSACCAAAhIgAIiAEObIgKZjbCkZOfcAhl4BHY2Af++f+fgEABAAACAABQgAaAADQgQAAAAAAAAA==

> <PUBCHEM_IUPAC_INCHI>
InChI=1S/C22H26N2O4/c1-4-13-11-24-8-7-21-16-9-14(25)5-6-17(16)23(2)22(21)18(24)10-15(13)20(21,12-28-22)19(26)27-3/h4-6,9,15,18,25H,7-8,10-12H2,1-3H3/t15-,18+,20?,21+,22-/m1/s1

> <PUBCHEM_IUPAC_INCHIKEY>
YILKZADAWNUTTB-LPYPRUTJSA-N

> <PUBCHEM_XLOGP3_AA>
1.5

> <PUBCHEM_EXACT_MASS>
382.189257

> <PUBCHEM_MOLECULAR_FORMULA>
C22H26N2O4

> <PUBCHEM_MOLECULAR_WEIGHT>
382.45284

> <PUBCHEM_OPENEYE_CAN_SMILES>
CC=C1CN2CCC34C5=C(C=CC(=C5)O)N(C36C2CC1C4(CO6)C(=O)OC)C

> <PUBCHEM_OPENEYE_ISO_SMILES>
CC=C1CN2CC[C@@]34C5=C(C=CC(=C5)O)N([C@@]36[C@@H]2C[C@H]1C4(CO6)C(=O)OC)C

> <PUBCHEM_CACTVS_TPSA>
62.2

> <PUBCHEM_MONOISOTOPIC_WEIGHT>
382.189257

> <PUBCHEM_TOTAL_CHARGE>
0

> <PUBCHEM_HEAVY_ATOM_COUNT>
28

> <PUBCHEM_ATOM_DEF_STEREO_COUNT>
4

> <PUBCHEM_ATOM_UDEF_STEREO_COUNT>
1

> <PUBCHEM_BOND_DEF_STEREO_COUNT>
0

> <PUBCHEM_BOND_UDEF_STEREO_COUNT>
1

> <PUBCHEM_ISOTOPIC_ATOM_COUNT>
0

> <PUBCHEM_COMPONENT_COUNT>
1

> <PUBCHEM_CACTVS_TAUTO_COUNT>
3

> <PUBCHEM_COORDINATE_TYPE>
1
5
255

> <PUBCHEM_BONDANNOTATIONS>
10  29  6
11  30  6
15  19  8
15  22  8
17  24  1
19  23  8
22  25  8
23  26  8
25  26  8
8  6  5
7  15  6
9  20  3

$$$$

