5197
  -OEChem-06261200342D

102109  0     1  0  0  0  0  0999 V2000
    5.8065   -4.6282    0.0000 O   0  0  0  0  0  0  0  0  0  0  0  0
   10.7951    3.0764    0.0000 O   0  0  0  0  0  0  0  0  0  0  0  0
    3.4233   -0.6292    0.0000 O   0  0  0  0  0  0  0  0  0  0  0  0
    7.2707    0.0349    0.0000 O   0  0  0  0  0  0  0  0  0  0  0  0
    3.1025    0.3513    0.0000 O   0  0  0  0  0  0  0  0  0  0  0  0
    5.1918    3.6424    0.0000 O   0  0  0  0  0  0  0  0  0  0  0  0
    7.4306   -1.3358    0.0000 O   0  0  0  0  0  0  0  0  0  0  0  0
    7.2707    4.1041    0.0000 O   0  0  0  0  0  0  0  0  0  0  0  0
    6.1030    0.8308    0.0000 O   0  0  0  0  0  0  0  0  0  0  0  0
    5.8564    3.4583    0.0000 O   0  0  0  0  0  0  0  0  0  0  0  0
    6.8309   -4.8170    0.0000 C   0  0  3  0  0  0  0  0  0  0  0  0
   10.8031    4.1180    0.0000 C   0  0  3  0  0  0  0  0  0  0  0  0
    6.6534   -5.8011    0.0000 C   0  0  0  0  0  0  0  0  0  0  0  0
   11.3065    4.9821    0.0000 C   0  0  0  0  0  0  0  0  0  0  0  0
    6.1081   -2.8779    0.0000 C   0  0  0  0  0  0  0  0  0  0  0  0
    9.0191    3.0695    0.0000 C   0  0  0  0  0  0  0  0  0  0  0  0
    7.5004   -4.0190    0.0000 C   0  0  0  0  0  0  0  0  0  0  0  0
    9.9011    4.6388    0.0000 C   0  0  0  0  0  0  0  0  0  0  0  0
    5.4654   -3.6440    0.0000 C   0  0  0  0  0  0  0  0  0  0  0  0
    9.8851    2.5695    0.0000 C   0  0  0  0  0  0  0  0  0  0  0  0
    5.7661   -1.9382    0.0000 C   0  0  0  0  0  0  0  0  0  0  0  0
    8.1531    2.5695    0.0000 C   0  0  0  0  0  0  0  0  0  0  0  0
    7.5944   -5.4627    0.0000 C   0  0  0  0  0  0  0  0  0  0  0  0
   11.8031    4.1141    0.0000 C   0  0  0  0  0  0  0  0  0  0  0  0
    5.7124   -6.1395    0.0000 C   0  0  0  0  0  0  0  0  0  0  0  0
   10.8098    5.8500    0.0000 C   0  0  0  0  0  0  0  0  0  0  0  0
    7.1366   -3.0430    0.0000 C   0  0  0  0  0  0  0  0  0  0  0  0
    9.0030    4.1110    0.0000 C   0  0  0  0  0  0  0  0  0  0  0  0
    4.7813   -1.7646    0.0000 C   0  0  0  0  0  0  0  0  0  0  0  0
    8.1531    1.5695    0.0000 C   0  0  0  0  0  0  0  0  0  0  0  0
    4.7278    0.9500    0.0000 C   0  0  0  0  0  0  0  0  0  0  0  0
    5.3676    1.7186    0.0000 C   0  0  0  0  0  0  0  0  0  0  0  0
    5.0734    0.0117    0.0000 C   0  0  0  0  0  0  0  0  0  0  0  0
    6.3530    1.5487    0.0000 C   0  0  0  0  0  0  0  0  0  0  0  0
    4.4100   -0.7914    0.0000 C   0  0  0  0  0  0  0  0  0  0  0  0
    7.2591    1.0349    0.0000 C   0  0  0  0  0  0  0  0  0  0  0  0
    4.4805   -3.4703    0.0000 C   0  0  0  0  0  0  0  0  0  0  0  0
    9.8851    1.5695    0.0000 C   0  0  0  0  0  0  0  0  0  0  0  0
    6.4479   -1.1507    0.0000 C   0  0  0  0  0  0  0  0  0  0  0  0
    7.2591    3.1042    0.0000 C   0  0  0  0  0  0  0  0  0  0  0  0
    4.1385   -2.5306    0.0000 C   0  0  0  0  0  0  0  0  0  0  0  0
    9.0191    1.0695    0.0000 C   0  0  0  0  0  0  0  0  0  0  0  0
    6.0992   -0.1692    0.0000 C   0  0  0  0  0  0  0  0  0  0  0  0
    6.3530    2.5903    0.0000 C   0  0  0  0  0  0  0  0  0  0  0  0
    3.7423    1.1199    0.0000 C   0  0  0  0  0  0  0  0  0  0  0  0
    5.0220    2.6570    0.0000 C   0  0  0  0  0  0  0  0  0  0  0  0
    3.3966    2.0583    0.0000 C   0  0  0  0  0  0  0  0  0  0  0  0
    4.0365    2.8268    0.0000 C   0  0  0  0  0  0  0  0  0  0  0  0
    5.5350   -7.1236    0.0000 C   0  0  0  0  0  0  0  0  0  0  0  0
   11.3131    6.7141    0.0000 C   0  0  0  0  0  0  0  0  0  0  0  0
    4.5940   -7.4620    0.0000 C   0  0  0  0  0  0  0  0  0  0  0  0
   10.8165    7.5820    0.0000 C   0  0  0  0  0  0  0  0  0  0  0  0
    2.3675    2.2194    0.0000 C   0  0  0  0  0  0  0  0  0  0  0  0
    3.6915    3.8096    0.0000 C   0  0  0  0  0  0  0  0  0  0  0  0
    2.0000    3.1940    0.0000 C   0  0  0  0  0  0  0  0  0  0  0  0
    2.6665    3.9945    0.0000 C   0  0  0  0  0  0  0  0  0  0  0  0
    4.4165   -8.4461    0.0000 C   0  0  0  0  0  0  0  0  0  0  0  0
    3.8304   -6.8163    0.0000 C   0  0  0  0  0  0  0  0  0  0  0  0
   11.3198    8.4461    0.0000 C   0  0  0  0  0  0  0  0  0  0  0  0
    9.8165    7.5859    0.0000 C   0  0  0  0  0  0  0  0  0  0  0  0
    6.7587   -6.4121    0.0000 H   0  0  0  0  0  0  0  0  0  0  0  0
    7.2734   -5.8035    0.0000 H   0  0  0  0  0  0  0  0  0  0  0  0
   11.7799    4.5817    0.0000 H   0  0  0  0  0  0  0  0  0  0  0  0
   11.7829    5.3788    0.0000 H   0  0  0  0  0  0  0  0  0  0  0  0
    8.1114   -4.1243    0.0000 H   0  0  0  0  0  0  0  0  0  0  0  0
    9.8987    5.2588    0.0000 H   0  0  0  0  0  0  0  0  0  0  0  0
    7.1941   -5.9361    0.0000 H   0  0  0  0  0  0  0  0  0  0  0  0
    8.0678   -5.8630    0.0000 H   0  0  0  0  0  0  0  0  0  0  0  0
    7.9948   -4.9893    0.0000 H   0  0  0  0  0  0  0  0  0  0  0  0
   11.8007    3.4941    0.0000 H   0  0  0  0  0  0  0  0  0  0  0  0
   12.4231    4.1117    0.0000 H   0  0  0  0  0  0  0  0  0  0  0  0
   11.8055    4.7341    0.0000 H   0  0  0  0  0  0  0  0  0  0  0  0
    5.6071   -5.5285    0.0000 H   0  0  0  0  0  0  0  0  0  0  0  0
    5.0924   -6.1371    0.0000 H   0  0  0  0  0  0  0  0  0  0  0  0
   10.3364    6.2504    0.0000 H   0  0  0  0  0  0  0  0  0  0  0  0
   10.3333    5.4533    0.0000 H   0  0  0  0  0  0  0  0  0  0  0  0
    7.5296   -2.5635    0.0000 H   0  0  0  0  0  0  0  0  0  0  0  0
    8.4625    4.4148    0.0000 H   0  0  0  0  0  0  0  0  0  0  0  0
    4.0820   -3.9453    0.0000 H   0  0  0  0  0  0  0  0  0  0  0  0
   10.4220    1.2595    0.0000 H   0  0  0  0  0  0  0  0  0  0  0  0
    3.5279   -2.4230    0.0000 H   0  0  0  0  0  0  0  0  0  0  0  0
    9.0191    0.4495    0.0000 H   0  0  0  0  0  0  0  0  0  0  0  0
    6.0084   -7.5240    0.0000 H   0  0  0  0  0  0  0  0  0  0  0  0
   11.9331    6.7117    0.0000 H   0  0  0  0  0  0  0  0  0  0  0  0
    1.9764    1.7383    0.0000 H   0  0  0  0  0  0  0  0  0  0  0  0
    4.0937    4.2815    0.0000 H   0  0  0  0  0  0  0  0  0  0  0  0
    1.3886    3.2970    0.0000 H   0  0  0  0  0  0  0  0  0  0  0  0
    2.4545    4.5772    0.0000 H   0  0  0  0  0  0  0  0  0  0  0  0
    2.4915    0.4567    0.0000 H   0  0  0  0  0  0  0  0  0  0  0  0
    4.7154    4.0391    0.0000 H   0  0  0  0  0  0  0  0  0  0  0  0
    3.8064   -8.3361    0.0000 H   0  0  0  0  0  0  0  0  0  0  0  0
    4.3065   -9.0563    0.0000 H   0  0  0  0  0  0  0  0  0  0  0  0
    5.0267   -8.5562    0.0000 H   0  0  0  0  0  0  0  0  0  0  0  0
    4.2308   -6.3429    0.0000 H   0  0  0  0  0  0  0  0  0  0  0  0
    3.3570   -6.4159    0.0000 H   0  0  0  0  0  0  0  0  0  0  0  0
    3.4300   -7.2897    0.0000 H   0  0  0  0  0  0  0  0  0  0  0  0
   11.8556    8.1341    0.0000 H   0  0  0  0  0  0  0  0  0  0  0  0
   11.6319    8.9819    0.0000 H   0  0  0  0  0  0  0  0  0  0  0  0
   10.7841    8.7582    0.0000 H   0  0  0  0  0  0  0  0  0  0  0  0
    9.8189    8.2059    0.0000 H   0  0  0  0  0  0  0  0  0  0  0  0
    9.1965    7.5883    0.0000 H   0  0  0  0  0  0  0  0  0  0  0  0
    9.8141    6.9659    0.0000 H   0  0  0  0  0  0  0  0  0  0  0  0
  1 11  1  0  0  0  0
  1 19  1  0  0  0  0
  2 12  1  0  0  0  0
  2 20  1  0  0  0  0
  3 35  2  0  0  0  0
  4 36  2  0  0  0  0
  5 45  1  0  0  0  0
  5 89  1  0  0  0  0
  6 46  1  0  0  0  0
  6 90  1  0  0  0  0
  7 39  2  0  0  0  0
  8 40  2  0  0  0  0
  9 43  2  0  0  0  0
 10 44  2  0  0  0  0
 11 13  1  0  0  0  0
 11 17  1  0  0  0  0
 11 23  1  0  0  0  0
 12 14  1  0  0  0  0
 12 18  1  0  0  0  0
 12 24  1  0  0  0  0
 13 25  1  0  0  0  0
 13 61  1  0  0  0  0
 13 62  1  0  0  0  0
 14 26  1  0  0  0  0
 14 63  1  0  0  0  0
 14 64  1  0  0  0  0
 15 19  2  0  0  0  0
 15 21  1  0  0  0  0
 15 27  1  0  0  0  0
 16 20  2  0  0  0  0
 16 22  1  0  0  0  0
 16 28  1  0  0  0  0
 17 27  2  0  0  0  0
 17 65  1  0  0  0  0
 18 28  2  0  0  0  0
 18 66  1  0  0  0  0
 19 37  1  0  0  0  0
 20 38  1  0  0  0  0
 21 29  2  0  0  0  0
 21 39  1  0  0  0  0
 22 30  2  0  0  0  0
 22 40  1  0  0  0  0
 23 67  1  0  0  0  0
 23 68  1  0  0  0  0
 23 69  1  0  0  0  0
 24 70  1  0  0  0  0
 24 71  1  0  0  0  0
 24 72  1  0  0  0  0
 25 49  1  0  0  0  0
 25 73  1  0  0  0  0
 25 74  1  0  0  0  0
 26 50  1  0  0  0  0
 26 75  1  0  0  0  0
 26 76  1  0  0  0  0
 27 77  1  0  0  0  0
 28 78  1  0  0  0  0
 29 35  1  0  0  0  0
 29 41  1  0  0  0  0
 30 36  1  0  0  0  0
 30 42  1  0  0  0  0
 31 32  1  0  0  0  0
 31 33  2  3  0  0  0
 31 45  1  0  0  0  0
 32 34  2  3  0  0  0
 32 46  1  0  0  0  0
 33 35  1  0  0  0  0
 33 43  1  0  0  0  0
 34 36  1  0  0  0  0
 34 44  1  0  0  0  0
 37 41  2  0  0  0  0
 37 79  1  0  0  0  0
 38 42  2  0  0  0  0
 38 80  1  0  0  0  0
 39 43  1  0  0  0  0
 40 44  1  0  0  0  0
 41 81  1  0  0  0  0
 42 82  1  0  0  0  0
 45 47  2  0  0  0  0
 46 48  2  0  0  0  0
 47 48  1  0  0  0  0
 47 53  1  0  0  0  0
 48 54  1  0  0  0  0
 49 51  2  0  0  0  0
 49 83  1  0  0  0  0
 50 52  2  0  0  0  0
 50 84  1  0  0  0  0
 51 57  1  0  0  0  0
 51 58  1  0  0  0  0
 52 59  1  0  0  0  0
 52 60  1  0  0  0  0
 53 55  2  0  0  0  0
 53 85  1  0  0  0  0
 54 56  2  0  0  0  0
 54 86  1  0  0  0  0
 55 56  1  0  0  0  0
 55 87  1  0  0  0  0
 56 88  1  0  0  0  0
 57 91  1  0  0  0  0
 57 92  1  0  0  0  0
 57 93  1  0  0  0  0
 58 94  1  0  0  0  0
 58 95  1  0  0  0  0
 58 96  1  0  0  0  0
 59 97  1  0  0  0  0
 59 98  1  0  0  0  0
 59 99  1  0  0  0  0
 60100  1  0  0  0  0
 60101  1  0  0  0  0
 60102  1  0  0  0  0
M  END
> <PUBCHEM_COMPOUND_CID>
5197

> <PUBCHEM_COMPOUND_CANONICALIZED>
1

> <PUBCHEM_CACTVS_COMPLEXITY>
2160

> <PUBCHEM_CACTVS_HBOND_ACCEPTOR>
10

> <PUBCHEM_CACTVS_HBOND_DONOR>
2

> <PUBCHEM_CACTVS_ROTATABLE_BOND>
6

> <PUBCHEM_CACTVS_SUBSKEYS>
AAADcfB8PAAAAAAAAAAAAAAAAAAAAAAAAAAwYMGCAAAAAADBQAAAGgAACAAADESAmAAyBoAABgCIAqBSAAACCAAkIAAIiAEGCMgMJjKMNRqCeSCkwBEIuYfLzvDuoAADAAAYAABAAAYAADAAAAAAAAAAAA==

> <PUBCHEM_IUPAC_OPENEYE_NAME>
8-[1,4-dihydroxy-3-[3-methyl-3-(4-methylpent-3-enyl)-7,9,10-trioxo-benzo[f]chromen-8-ylidene]-2-naphthylidene]-3-methyl-3-(4-methylpent-3-enyl)benzo[f]chromene-7,9,10-trione

> <PUBCHEM_IUPAC_CAS_NAME>
8-[1,4-dihydroxy-3-[3-methyl-3-(4-methylpent-3-enyl)-7,9,10-trioxo-8-benzo[f][1]benzopyranylidene]-2-naphthalenylidene]-3-methyl-3-(4-methylpent-3-enyl)benzo[f][1]benzopyran-7,9,10-trione

> <PUBCHEM_IUPAC_NAME>
8-[1,4-dihydroxy-3-[3-methyl-3-(4-methylpent-3-enyl)-7,9,10-trioxobenzo[f]chromen-8-ylidene]naphthalen-2-ylidene]-3-methyl-3-(4-methylpent-3-enyl)benzo[f]chromene-7,9,10-trione

> <PUBCHEM_IUPAC_SYSTEMATIC_NAME>
3-methyl-8-[3-[3-methyl-3-(4-methylpent-3-enyl)-7,9,10-tris(oxidanylidene)benzo[f]chromen-8-ylidene]-1,4-bis(oxidanyl)naphthalen-2-ylidene]-3-(4-methylpent-3-enyl)benzo[f]chromene-7,9,10-trione

> <PUBCHEM_IUPAC_TRADITIONAL_NAME>
8-[1,4-dihydroxy-3-[7,9,10-triketo-3-methyl-3-(4-methylpent-3-enyl)benzo[f]chromen-8-ylidene]-2-naphthylidene]-3-methyl-3-(4-methylpent-3-enyl)benzo[f]chromene-7,9,10-trione

> <PUBCHEM_IUPAC_INCHI>
InChI=1S/C50H42O10/c1-25(2)11-9-21-49(5)23-19-29-33(59-49)17-15-31-35(29)45(55)47(57)39(43(31)53)37-38(42(52)28-14-8-7-13-27(28)41(37)51)40-44(54)32-16-18-34-30(36(32)46(56)48(40)58)20-24-50(6,60-34)22-10-12-26(3)4/h7-8,11-20,23-24,51-52H,9-10,21-22H2,1-6H3

> <PUBCHEM_IUPAC_INCHIKEY>
JERSOOYEUQPDMR-UHFFFAOYSA-N

> <PUBCHEM_XLOGP3_AA>
8

> <PUBCHEM_EXACT_MASS>
802.277798

> <PUBCHEM_MOLECULAR_FORMULA>
C50H42O10

> <PUBCHEM_MOLECULAR_WEIGHT>
802.86248

> <PUBCHEM_OPENEYE_CAN_SMILES>
CC(=CCCC1(C=CC2=C(O1)C=CC3=C2C(=O)C(=O)C(=C4C(=C5C(=O)C6=C(C7=C(C=C6)OC(C=C7)(C)CCC=C(C)C)C(=O)C5=O)C(=C8C=CC=CC8=C4O)O)C3=O)C)C

> <PUBCHEM_OPENEYE_ISO_SMILES>
CC(=CCCC1(C=CC2=C(O1)C=CC3=C2C(=O)C(=O)C(=C4C(=C5C(=O)C6=C(C7=C(C=C6)OC(C=C7)(C)CCC=C(C)C)C(=O)C5=O)C(=C8C=CC=CC8=C4O)O)C3=O)C)C

> <PUBCHEM_CACTVS_TPSA>
161

> <PUBCHEM_MONOISOTOPIC_WEIGHT>
802.277798

> <PUBCHEM_TOTAL_CHARGE>
0

> <PUBCHEM_HEAVY_ATOM_COUNT>
60

> <PUBCHEM_ATOM_DEF_STEREO_COUNT>
0

> <PUBCHEM_ATOM_UDEF_STEREO_COUNT>
2

> <PUBCHEM_BOND_DEF_STEREO_COUNT>
0

> <PUBCHEM_BOND_UDEF_STEREO_COUNT>
2

> <PUBCHEM_ISOTOPIC_ATOM_COUNT>
0

> <PUBCHEM_COMPONENT_COUNT>
1

> <PUBCHEM_CACTVS_TAUTO_COUNT>
7

> <PUBCHEM_COORDINATE_TYPE>
1
5
255

> <PUBCHEM_BONDANNOTATIONS>
11  13  3
12  24  3
15  19  8
15  21  8
16  20  8
16  22  8
19  37  8
20  38  8
21  29  8
22  30  8
29  41  8
30  42  8
31  32  8
31  33  1
31  45  8
32  34  1
32  46  8
37  41  8
38  42  8
45  47  8
46  48  8
47  48  8
47  53  8
48  54  8
53  55  8
54  56  8
55  56  8

$$$$

