   Color/Form
        Needles from petroleum ether
   from [1]HSDB

   Boiling Point
        238.5 deg C
   from [2]HSDB

   Melting Point
        38 deg C
   from [3]HSDB

   Density/Specific Gravity
        2.0700 g/cu cm at 20 deg C
   from [4]HSDB

   Dissociation Constants
        pKa = 7.79
   from [5]HSDB

   Octanol/Water Partition Coefficient
        log Kow = 3.22
   from [6]HSDB

   Solubilities

     * Slightly soluble in carbon tetrachloride; very soluble in ethanol,
       ether, benzene
     * Very soluble in carbon disulfide
     * In water, 1.9X10+3 mg/L

   from [7]HSDB

   Spectral Properties

     * MASS: 75310 (NIST/EPA/MSDC Mass Spectral Database, 1990 version)
     * IR: 1007 (Coblentz Society spectral collection)
     * UV: 8349 (Sadtler Research Laboratories spectral collection)
     * 1H NMR: 2735 (Sadlter Research Laboratories spectral collection)

   from [8]HSDB

   Vapor Pressure
        1.34X10-3 mm Hg at 25 deg C (est)
   from [9]HSDB

   Other Chemical/Physical Properties

     * Henry's Law constant = 8.90X10-8 atm-cu m/mol at 25 deg C (est)
     * Hydroxyl radical reaction rate constant = 2.88X10-12 cu
       cm/molec-sec at 25 deg C (est)

   from [10]HSDB

   Computed Properties
   Molecular Weight                  251.90336 [g/mol]
   Molecular Formula                 C[6]H[4]Br[2]O
   XLogP3                            3.2
   H-Bond Donor                      1
   H-Bond Acceptor                   1
   Rotatable Bond Count              0
   Tautomer Count                    3
   Exact Mass                        251.860842
   MonoIsotopic Mass                 249.862889
   Topological Polar Surface Area    20.2
   Heavy Atom Count                  9
   Formal Charge                     0
   Complexity                        97.1
   Isotope Atom Count                0
   Defined Atom Stereocenter Count   0
   Undefined Atom Stereocenter Count 0
   Defined Bond Stereocenter Count   0
   Undefined Bond Stereocenter Count 0
   Covalently-Bonded Unit Count      1
   Feature 3D Donor Count            1
   Feature 3D Hydrophobe Count       2
   Feature 3D Ring Count             1
   Effective Rotor Count             0
   Conformer Sampling RMSD           0.4
   CID Conformer Count               [11]1

References

   1. http://toxnet.nlm.nih.gov/cgi-bin/sis/search/r?dbs+hsdb:@term+@rn+@rel+615-58-7
   2. http://toxnet.nlm.nih.gov/cgi-bin/sis/search/r?dbs+hsdb:@term+@rn+@rel+615-58-7
   3. http://toxnet.nlm.nih.gov/cgi-bin/sis/search/r?dbs+hsdb:@term+@rn+@rel+615-58-7
   4. http://toxnet.nlm.nih.gov/cgi-bin/sis/search/r?dbs+hsdb:@term+@rn+@rel+615-58-7
   5. http://toxnet.nlm.nih.gov/cgi-bin/sis/search/r?dbs+hsdb:@term+@rn+@rel+615-58-7
   6. http://toxnet.nlm.nih.gov/cgi-bin/sis/search/r?dbs+hsdb:@term+@rn+@rel+615-58-7
   7. http://toxnet.nlm.nih.gov/cgi-bin/sis/search/r?dbs+hsdb:@term+@rn+@rel+615-58-7
   8. http://toxnet.nlm.nih.gov/cgi-bin/sis/search/r?dbs+hsdb:@term+@rn+@rel+615-58-7
   9. http://toxnet.nlm.nih.gov/cgi-bin/sis/search/r?dbs+hsdb:@term+@rn+@rel+615-58-7
  10. http://toxnet.nlm.nih.gov/cgi-bin/sis/search/r?dbs+hsdb:@term+@rn+@rel+615-58-7
  11. http://pubchem.ncbi.nlm.nih.gov/vw3d/vw3d.cgi?cid=12005
