443460
  -OEChem-07051213022D

 46 50  0     1  0  0  0  0  0999 V2000
    5.2308    0.3935    0.0000 O   0  0  0  0  0  0  0  0  0  0  0  0
    2.2862   -0.7071    0.0000 O   0  0  0  0  0  0  0  0  0  0  0  0
    2.8090    0.9501    0.0000 O   0  0  0  0  0  0  0  0  0  0  0  0
    6.3076    1.6219    0.0000 O   0  0  0  0  0  0  0  0  0  0  0  0
    4.5817    1.4764    0.0000 O   0  0  0  0  0  0  0  0  0  0  0  0
    6.2989   -0.4947    0.0000 C   0  0  1  0  0  0  0  0  0  0  0  0
    5.9970   -1.3619    0.0000 C   0  0  2  0  0  0  0  0  0  0  0  0
    4.8219   -0.4664    0.0000 C   0  0  2  0  0  0  0  0  0  0  0  0
    5.0849   -1.3404    0.0000 C   0  0  2  0  0  0  0  0  0  0  0  0
    5.5707    0.0545    0.0000 C   0  0  2  0  0  0  0  0  0  0  0  0
    6.9949   -1.3272    0.0000 C   0  0  0  0  0  0  0  0  0  0  0  0
    3.9046   -0.2503    0.0000 C   0  0  3  0  0  0  0  0  0  0  0  0
    7.1658   -0.1901    0.0000 C   0  0  0  0  0  0  0  0  0  0  0  0
    8.0478   -1.5897    0.0000 C   0  0  1  0  0  0  0  0  0  0  0  0
    6.4872   -2.1385    0.0000 C   0  0  0  0  0  0  0  0  0  0  0  0
    7.3995   -2.2397    0.0000 C   0  0  0  0  0  0  0  0  0  0  0  0
    7.9434   -0.6771    0.0000 C   0  0  0  0  0  0  0  0  0  0  0  0
    4.4471   -2.0549    0.0000 C   0  0  0  0  0  0  0  0  0  0  0  0
    3.2595   -0.9365    0.0000 C   0  0  2  0  0  0  0  0  0  0  0  0
    3.6398    0.3935    0.0000 C   0  0  0  0  0  0  0  0  0  0  0  0
    5.4867    1.0509    0.0000 C   0  0  0  0  0  0  0  0  0  0  0  0
    2.9212   -0.0692    0.0000 C   0  0  0  0  0  0  0  0  0  0  0  0
    3.5310   -1.8392    0.0000 C   0  0  0  0  0  0  0  0  0  0  0  0
    8.7470   -0.0820    0.0000 C   0  0  0  0  0  0  0  0  0  0  0  0
    5.5778   -2.1014    0.0000 H   0  0  0  0  0  0  0  0  0  0  0  0
    4.3868    0.2639    0.0000 H   0  0  0  0  0  0  0  0  0  0  0  0
    6.1135    0.3541    0.0000 H   0  0  0  0  0  0  0  0  0  0  0  0
    7.0378   -1.9457    0.0000 H   0  0  0  0  0  0  0  0  0  0  0  0
    6.4198   -1.5587    0.0000 H   0  0  0  0  0  0  0  0  0  0  0  0
    6.8352    0.3344    0.0000 H   0  0  0  0  0  0  0  0  0  0  0  0
    7.6036    0.2489    0.0000 H   0  0  0  0  0  0  0  0  0  0  0  0
    8.8505   -1.8692    0.0000 H   0  0  0  0  0  0  0  0  0  0  0  0
    6.5578   -2.7544    0.0000 H   0  0  0  0  0  0  0  0  0  0  0  0
    5.9024   -2.3444    0.0000 H   0  0  0  0  0  0  0  0  0  0  0  0
    7.9250   -2.5688    0.0000 H   0  0  0  0  0  0  0  0  0  0  0  0
    7.1956   -2.8253    0.0000 H   0  0  0  0  0  0  0  0  0  0  0  0
    4.6335   -2.6462    0.0000 H   0  0  0  0  0  0  0  0  0  0  0  0
    2.8346   -1.3880    0.0000 H   0  0  0  0  0  0  0  0  0  0  0  0
    2.8088   -0.6789    0.0000 H   0  0  0  0  0  0  0  0  0  0  0  0
    2.3114    0.0432    0.0000 H   0  0  0  0  0  0  0  0  0  0  0  0
    3.0335    0.5406    0.0000 H   0  0  0  0  0  0  0  0  0  0  0  0
    3.1061   -2.2907    0.0000 H   0  0  0  0  0  0  0  0  0  0  0  0
    8.6766    0.5340    0.0000 H   0  0  0  0  0  0  0  0  0  0  0  0
    9.3157   -0.3290    0.0000 H   0  0  0  0  0  0  0  0  0  0  0  0
    1.8612   -1.1586    0.0000 H   0  0  0  0  0  0  0  0  0  0  0  0
    6.2556    2.2397    0.0000 H   0  0  0  0  0  0  0  0  0  0  0  0
  9  1  1  1  0  0  0
  1 20  1  0  0  0  0
 19  2  1  6  0  0  0
  2 45  1  0  0  0  0
  3 20  2  0  0  0  0
  4 21  1  0  0  0  0
  4 46  1  0  0  0  0
  5 21  2  0  0  0  0
  6  7  1  0  0  0  0
  6 10  1  0  0  0  0
  6 11  1  1  0  0  0
  6 13  1  0  0  0  0
  7  9  1  0  0  0  0
  7 15  1  0  0  0  0
  7 25  1  6  0  0  0
  8  9  1  0  0  0  0
  8 10  1  0  0  0  0
  8 12  1  0  0  0  0
  8 26  1  6  0  0  0
  9 18  1  0  0  0  0
 10 21  1  6  0  0  0
 10 27  1  0  0  0  0
 11 14  1  0  0  0  0
 11 28  1  0  0  0  0
 11 29  1  0  0  0  0
 12 19  1  0  0  0  0
 12 20  1  0  0  0  0
 12 22  1  0  0  0  0
 13 17  1  0  0  0  0
 13 30  1  0  0  0  0
 13 31  1  0  0  0  0
 14 16  1  0  0  0  0
 14 17  1  0  0  0  0
 14 32  1  1  0  0  0
 15 16  1  0  0  0  0
 15 33  1  0  0  0  0
 15 34  1  0  0  0  0
 16 35  1  0  0  0  0
 16 36  1  0  0  0  0
 17 24  2  0  0  0  0
 18 23  2  0  0  0  0
 18 37  1  0  0  0  0
 19 23  1  0  0  0  0
 19 38  1  0  0  0  0
 22 39  1  0  0  0  0
 22 40  1  0  0  0  0
 22 41  1  0  0  0  0
 23 42  1  0  0  0  0
 24 43  1  0  0  0  0
 24 44  1  0  0  0  0
M  END
> <PUBCHEM_COMPOUND_CID>
443460

> <PUBCHEM_COMPOUND_CANONICALIZED>
1

> <PUBCHEM_CACTVS_COMPLEXITY>
725

> <PUBCHEM_CACTVS_HBOND_ACCEPTOR>
5

> <PUBCHEM_CACTVS_HBOND_DONOR>
2

> <PUBCHEM_CACTVS_ROTATABLE_BOND>
1

> <PUBCHEM_CACTVS_SUBSKEYS>
AAADceB4OAAAAAAAAAAAAAAAAAAAAaMEAAAwQAAABggSAGDAAAAAGgAACAAAD1SggAICCAAABgCIAiDSCAAAAAAgAAAICAEAAAgAFBYAIQACUAAFoAAIMAPK7vzPgAAAAAAAAACAAAQAACAAAYAADAAAAA==

> <PUBCHEM_IUPAC_INCHI>
InChI=1S/C19H22O5/c1-9-7-18-8-10(9)3-4-11(18)19-6-5-12(20)17(2,16(23)24-19)14(19)13(18)15(21)22/h5-6,10-14,20H,1,3-4,7-8H2,2H3,(H,21,22)/t10-,11-,12+,13-,14-,17?,18+,19-/m1/s1

> <PUBCHEM_IUPAC_INCHIKEY>
SEEGHKWOBVVBTQ-WTVOOMFRSA-N

> <PUBCHEM_XLOGP3>
1.7

> <PUBCHEM_EXACT_MASS>
330.146724

> <PUBCHEM_MOLECULAR_FORMULA>
C19H22O5

> <PUBCHEM_MOLECULAR_WEIGHT>
330.37498

> <PUBCHEM_OPENEYE_CAN_SMILES>
CC12C(C=CC3(C1C(C45C3CCC(C4)C(=C)C5)C(=O)O)OC2=O)O

> <PUBCHEM_OPENEYE_ISO_SMILES>
CC12[C@H](C=C[C@@]3([C@@H]1[C@@H]([C@]45[C@H]3CC[C@H](C4)C(=C)C5)C(=O)O)OC2=O)O

> <PUBCHEM_CACTVS_TPSA>
83.8

> <PUBCHEM_MONOISOTOPIC_WEIGHT>
330.146724

> <PUBCHEM_TOTAL_CHARGE>
0

> <PUBCHEM_HEAVY_ATOM_COUNT>
24

> <PUBCHEM_ATOM_DEF_STEREO_COUNT>
7

> <PUBCHEM_ATOM_UDEF_STEREO_COUNT>
1

> <PUBCHEM_BOND_DEF_STEREO_COUNT>
0

> <PUBCHEM_BOND_UDEF_STEREO_COUNT>
0

> <PUBCHEM_ISOTOPIC_ATOM_COUNT>
0

> <PUBCHEM_COMPONENT_COUNT>
1

> <PUBCHEM_CACTVS_TAUTO_COUNT>
1

> <PUBCHEM_COORDINATE_TYPE>
1
5
255

> <PUBCHEM_BONDANNOTATIONS>
9  1  5
10  21  6
12  22  3
14  32  5
19  2  6
6  11  5
7  25  6
8  26  6

$$$$

