3910
  -OEChem-06251223452D

 68 67  0     1  0  0  0  0  0999 V2000
   11.1972   -1.5000    0.0000 O   0  0  0  0  0  0  0  0  0  0  0  0
    7.7331   -0.5000    0.0000 O   0  0  0  0  0  0  0  0  0  0  0  0
   12.0632   -2.0000    0.0000 O   0  0  0  0  0  0  0  0  0  0  0  0
    6.8671    3.0000    0.0000 O   0  0  0  0  0  0  0  0  0  0  0  0
   10.3312    0.0000    0.0000 N   0  0  0  0  0  0  0  0  0  0  0  0
    8.5991    1.0000    0.0000 N   0  0  0  0  0  0  0  0  0  0  0  0
   12.9292   -0.5000    0.0000 N   0  0  0  0  0  0  0  0  0  0  0  0
    4.2690    1.5000    0.0000 N   0  0  0  0  0  0  0  0  0  0  0  0
    2.5369    1.5000    0.0000 N   0  0  0  0  0  0  0  0  0  0  0  0
    3.4030    0.0000    0.0000 N   0  0  0  0  0  0  0  0  0  0  0  0
    9.4651   -0.5000    0.0000 C   0  0  3  0  0  0  0  0  0  0  0  0
    9.4651   -1.5000    0.0000 C   0  0  0  0  0  0  0  0  0  0  0  0
    8.5991   -2.0000    0.0000 C   0  0  0  0  0  0  0  0  0  0  0  0
   12.0632    0.0000    0.0000 C   0  0  3  0  0  0  0  0  0  0  0  0
   12.0632    1.0000    0.0000 C   0  0  0  0  0  0  0  0  0  0  0  0
   12.9292    1.5000    0.0000 C   0  0  0  0  0  0  0  0  0  0  0  0
   11.1972   -0.5000    0.0000 C   0  0  0  0  0  0  0  0  0  0  0  0
    8.5991    0.0000    0.0000 C   0  0  0  0  0  0  0  0  0  0  0  0
    8.5991   -3.0000    0.0000 C   0  0  0  0  0  0  0  0  0  0  0  0
    7.7331   -1.5000    0.0000 C   0  0  0  0  0  0  0  0  0  0  0  0
    7.7331    1.5000    0.0000 C   0  0  3  0  0  0  0  0  0  0  0  0
   12.9292    2.5000    0.0000 C   0  0  0  0  0  0  0  0  0  0  0  0
   13.7953    1.0000    0.0000 C   0  0  0  0  0  0  0  0  0  0  0  0
    6.8671    1.0000    0.0000 C   0  0  0  0  0  0  0  0  0  0  0  0
    6.0010    1.5000    0.0000 C   0  0  0  0  0  0  0  0  0  0  0  0
   12.9292   -1.5000    0.0000 C   0  0  0  0  0  0  0  0  0  0  0  0
    7.7331    2.5000    0.0000 C   0  0  0  0  0  0  0  0  0  0  0  0
    5.1350    1.0000    0.0000 C   0  0  0  0  0  0  0  0  0  0  0  0
   13.7953   -2.0000    0.0000 C   0  0  0  0  0  0  0  0  0  0  0  0
    3.4030    1.0000    0.0000 C   0  0  0  0  0  0  0  0  0  0  0  0
   10.2013   -0.9250    0.0000 H   0  0  0  0  0  0  0  0  0  0  0  0
    9.6772   -2.0826    0.0000 H   0  0  0  0  0  0  0  0  0  0  0  0
   10.0757   -1.3923    0.0000 H   0  0  0  0  0  0  0  0  0  0  0  0
    8.5991   -1.3800    0.0000 H   0  0  0  0  0  0  0  0  0  0  0  0
   12.7993    0.4250    0.0000 H   0  0  0  0  0  0  0  0  0  0  0  0
   11.8512    1.5826    0.0000 H   0  0  0  0  0  0  0  0  0  0  0  0
   11.4526    0.8923    0.0000 H   0  0  0  0  0  0  0  0  0  0  0  0
   12.3923    1.8100    0.0000 H   0  0  0  0  0  0  0  0  0  0  0  0
   10.3312    0.6200    0.0000 H   0  0  0  0  0  0  0  0  0  0  0  0
    7.7331    0.6500    0.0000 H   0  0  0  0  0  0  0  0  0  0  0  0
    8.0431   -0.9631    0.0000 H   0  0  0  0  0  0  0  0  0  0  0  0
    7.9791   -3.0000    0.0000 H   0  0  0  0  0  0  0  0  0  0  0  0
    8.5991   -3.6200    0.0000 H   0  0  0  0  0  0  0  0  0  0  0  0
    9.2191   -3.0000    0.0000 H   0  0  0  0  0  0  0  0  0  0  0  0
    7.1962   -1.1900    0.0000 H   0  0  0  0  0  0  0  0  0  0  0  0
    7.4231   -2.0369    0.0000 H   0  0  0  0  0  0  0  0  0  0  0  0
    9.1360    1.3100    0.0000 H   0  0  0  0  0  0  0  0  0  0  0  0
   13.4662   -0.1900    0.0000 H   0  0  0  0  0  0  0  0  0  0  0  0
    6.4685    0.5251    0.0000 H   0  0  0  0  0  0  0  0  0  0  0  0
    7.2656    0.5251    0.0000 H   0  0  0  0  0  0  0  0  0  0  0  0
   13.4853    0.4631    0.0000 H   0  0  0  0  0  0  0  0  0  0  0  0
   13.5492    2.5000    0.0000 H   0  0  0  0  0  0  0  0  0  0  0  0
   12.9292    3.1200    0.0000 H   0  0  0  0  0  0  0  0  0  0  0  0
   12.3092    2.5000    0.0000 H   0  0  0  0  0  0  0  0  0  0  0  0
   14.3322    0.6900    0.0000 H   0  0  0  0  0  0  0  0  0  0  0  0
   14.1053    1.5369    0.0000 H   0  0  0  0  0  0  0  0  0  0  0  0
    6.3996    1.9750    0.0000 H   0  0  0  0  0  0  0  0  0  0  0  0
    5.6025    1.9750    0.0000 H   0  0  0  0  0  0  0  0  0  0  0  0
    8.2700    2.8100    0.0000 H   0  0  0  0  0  0  0  0  0  0  0  0
    4.7365    0.5251    0.0000 H   0  0  0  0  0  0  0  0  0  0  0  0
    5.5335    0.5251    0.0000 H   0  0  0  0  0  0  0  0  0  0  0  0
   13.4853   -2.5369    0.0000 H   0  0  0  0  0  0  0  0  0  0  0  0
   14.3322   -2.3100    0.0000 H   0  0  0  0  0  0  0  0  0  0  0  0
   14.1053   -1.4631    0.0000 H   0  0  0  0  0  0  0  0  0  0  0  0
    2.0000    1.1900    0.0000 H   0  0  0  0  0  0  0  0  0  0  0  0
    2.5369    2.1200    0.0000 H   0  0  0  0  0  0  0  0  0  0  0  0
    2.8660   -0.3100    0.0000 H   0  0  0  0  0  0  0  0  0  0  0  0
    3.9399   -0.3100    0.0000 H   0  0  0  0  0  0  0  0  0  0  0  0
  1 17  2  0  0  0  0
  2 18  2  0  0  0  0
  3 26  2  0  0  0  0
  4 27  2  0  0  0  0
  5 11  1  0  0  0  0
  5 17  1  0  0  0  0
  5 39  1  0  0  0  0
  6 18  1  0  0  0  0
  6 21  1  0  0  0  0
  6 47  1  0  0  0  0
  7 14  1  0  0  0  0
  7 26  1  0  0  0  0
  7 48  1  0  0  0  0
  8 28  1  0  0  0  0
  8 30  2  0  0  0  0
  9 30  1  0  0  0  0
  9 65  1  0  0  0  0
  9 66  1  0  0  0  0
 10 30  1  0  0  0  0
 10 67  1  0  0  0  0
 10 68  1  0  0  0  0
 11 12  1  0  0  0  0
 11 18  1  0  0  0  0
 11 31  1  0  0  0  0
 12 13  1  0  0  0  0
 12 32  1  0  0  0  0
 12 33  1  0  0  0  0
 13 19  1  0  0  0  0
 13 20  1  0  0  0  0
 13 34  1  0  0  0  0
 14 15  1  0  0  0  0
 14 17  1  0  0  0  0
 14 35  1  0  0  0  0
 15 16  1  0  0  0  0
 15 36  1  0  0  0  0
 15 37  1  0  0  0  0
 16 22  1  0  0  0  0
 16 23  1  0  0  0  0
 16 38  1  0  0  0  0
 19 42  1  0  0  0  0
 19 43  1  0  0  0  0
 19 44  1  0  0  0  0
 20 41  1  0  0  0  0
 20 45  1  0  0  0  0
 20 46  1  0  0  0  0
 21 24  1  0  0  0  0
 21 27  1  0  0  0  0
 21 40  1  0  0  0  0
 22 52  1  0  0  0  0
 22 53  1  0  0  0  0
 22 54  1  0  0  0  0
 23 51  1  0  0  0  0
 23 55  1  0  0  0  0
 23 56  1  0  0  0  0
 24 25  1  0  0  0  0
 24 49  1  0  0  0  0
 24 50  1  0  0  0  0
 25 28  1  0  0  0  0
 25 57  1  0  0  0  0
 25 58  1  0  0  0  0
 26 29  1  0  0  0  0
 27 59  1  0  0  0  0
 28 60  1  0  0  0  0
 28 61  1  0  0  0  0
 29 62  1  0  0  0  0
 29 63  1  0  0  0  0
 29 64  1  0  0  0  0
M  END
> <PUBCHEM_COMPOUND_CID>
3910

> <PUBCHEM_COMPOUND_CANONICALIZED>
1

> <PUBCHEM_CACTVS_COMPLEXITY>
602

> <PUBCHEM_CACTVS_HBOND_ACCEPTOR>
5

> <PUBCHEM_CACTVS_HBOND_DONOR>
5

> <PUBCHEM_CACTVS_ROTATABLE_BOND>
14

> <PUBCHEM_CACTVS_SUBSKEYS>
AAADcfB7uAAAAAAAAAAAAAAAAAAAAAAAAAAAAAAAAAAAAAAAAAAAHgAQAAAADSjhgAYDAALAAAAoAAkQtAAAAAEAAAAAAIGIAAAAQBIAgCAUAAAAFgCAAAAYAQAMAAAAAAAAAAAAAAAAAAAAAAAAAAAAAA==

> <PUBCHEM_IUPAC_OPENEYE_NAME>
2-acetamido-N-[1-[(1-formyl-4-guanidino-butyl)carbamoyl]-3-methyl-butyl]-4-methyl-pentanamide

> <PUBCHEM_IUPAC_CAS_NAME>
2-acetamido-N-[1-[[5-(diaminomethylideneamino)-1-oxopentan-2-yl]amino]-4-methyl-1-oxopentan-2-yl]-4-methylpentanamide

> <PUBCHEM_IUPAC_NAME>
2-acetamido-N-[1-[[5-(diaminomethylideneamino)-1-oxopentan-2-yl]amino]-4-methyl-1-oxopentan-2-yl]-4-methylpentanamide

> <PUBCHEM_IUPAC_SYSTEMATIC_NAME>
2-acetamido-N-[1-[[5-[bis(azanyl)methylideneamino]-1-oxidanylidene-pentan-2-yl]amino]-4-methyl-1-oxidanylidene-pentan-2-yl]-4-methyl-pentanamide

> <PUBCHEM_IUPAC_TRADITIONAL_NAME>
2-acetamido-N-[1-[(1-formyl-4-guanidino-butyl)carbamoyl]-3-methyl-butyl]-4-methyl-valeramide

> <PUBCHEM_IUPAC_INCHI>
InChI=1S/C20H38N6O4/c1-12(2)9-16(24-14(5)28)19(30)26-17(10-13(3)4)18(29)25-15(11-27)7-6-8-23-20(21)22/h11-13,15-17H,6-10H2,1-5H3,(H,24,28)(H,25,29)(H,26,30)(H4,21,22,23)

> <PUBCHEM_IUPAC_INCHIKEY>
GDBQQVLCIARPGH-UHFFFAOYSA-N

> <PUBCHEM_XLOGP3_AA>
0.4

> <PUBCHEM_EXACT_MASS>
426.295454

> <PUBCHEM_MOLECULAR_FORMULA>
C20H38N6O4

> <PUBCHEM_MOLECULAR_WEIGHT>
426.55352

> <PUBCHEM_OPENEYE_CAN_SMILES>
CC(C)CC(C(=O)NC(CC(C)C)C(=O)NC(CCCN=C(N)N)C=O)NC(=O)C

> <PUBCHEM_OPENEYE_ISO_SMILES>
CC(C)CC(C(=O)NC(CC(C)C)C(=O)NC(CCCN=C(N)N)C=O)NC(=O)C

> <PUBCHEM_CACTVS_TPSA>
169

> <PUBCHEM_MONOISOTOPIC_WEIGHT>
426.295454

> <PUBCHEM_TOTAL_CHARGE>
0

> <PUBCHEM_HEAVY_ATOM_COUNT>
30

> <PUBCHEM_ATOM_DEF_STEREO_COUNT>
0

> <PUBCHEM_ATOM_UDEF_STEREO_COUNT>
3

> <PUBCHEM_BOND_DEF_STEREO_COUNT>
0

> <PUBCHEM_BOND_UDEF_STEREO_COUNT>
0

> <PUBCHEM_ISOTOPIC_ATOM_COUNT>
0

> <PUBCHEM_COMPONENT_COUNT>
1

> <PUBCHEM_CACTVS_TAUTO_COUNT>
32

> <PUBCHEM_COORDINATE_TYPE>
1
5
255

> <PUBCHEM_BONDANNOTATIONS>
11  31  3
14  35  3
21  40  3

$$$$

