6632
  -OEChem-06261201252D

 34 34  0     1  0  0  0  0  0999 V2000
    3.5000    1.5000    0.0000 O   0  0  0  0  0  0  0  0  0  0  0  0
    2.0000    0.6340    0.0000 O   0  0  0  0  0  0  0  0  0  0  0  0
    4.0000    0.6340    0.0000 C   0  0  3  0  0  0  0  0  0  0  0  0
    3.1340    0.1340    0.0000 C   0  0  0  0  0  0  0  0  0  0  0  0
    4.5000    1.5000    0.0000 C   0  0  0  0  0  0  0  0  0  0  0  0
    3.1340   -0.8660    0.0000 C   0  0  0  0  0  0  0  0  0  0  0  0
    4.0000   -1.3660    0.0000 C   0  0  3  0  0  0  0  0  0  0  0  0
    4.8660    0.1340    0.0000 C   0  0  0  0  0  0  0  0  0  0  0  0
    4.8660   -0.8660    0.0000 C   0  0  0  0  0  0  0  0  0  0  0  0
    5.5000    1.5000    0.0000 C   0  0  0  0  0  0  0  0  0  0  0  0
    4.0000    2.3660    0.0000 C   0  0  0  0  0  0  0  0  0  0  0  0
    4.0000   -2.3660    0.0000 C   0  0  0  0  0  0  0  0  0  0  0  0
    2.5000    1.5000    0.0000 C   0  0  0  0  0  0  0  0  0  0  0  0
    2.0000    2.3660    0.0000 C   0  0  0  0  0  0  0  0  0  0  0  0
    2.9219    0.7166    0.0000 H   0  0  0  0  0  0  0  0  0  0  0  0
    2.5234    0.0263    0.0000 H   0  0  0  0  0  0  0  0  0  0  0  0
    3.8800    1.5000    0.0000 H   0  0  0  0  0  0  0  0  0  0  0  0
    2.5234   -0.7584    0.0000 H   0  0  0  0  0  0  0  0  0  0  0  0
    2.9219   -1.4486    0.0000 H   0  0  0  0  0  0  0  0  0  0  0  0
    4.7361   -1.7910    0.0000 H   0  0  0  0  0  0  0  0  0  0  0  0
    5.4030    0.4440    0.0000 H   0  0  0  0  0  0  0  0  0  0  0  0
    5.4030   -1.1760    0.0000 H   0  0  0  0  0  0  0  0  0  0  0  0
    5.5000    0.8800    0.0000 H   0  0  0  0  0  0  0  0  0  0  0  0
    6.1200    1.5000    0.0000 H   0  0  0  0  0  0  0  0  0  0  0  0
    4.5369    2.6760    0.0000 H   0  0  0  0  0  0  0  0  0  0  0  0
    3.6900    2.9030    0.0000 H   0  0  0  0  0  0  0  0  0  0  0  0
    3.4631    2.0560    0.0000 H   0  0  0  0  0  0  0  0  0  0  0  0
    5.5000    2.1200    0.0000 H   0  0  0  0  0  0  0  0  0  0  0  0
    3.3800   -2.3660    0.0000 H   0  0  0  0  0  0  0  0  0  0  0  0
    4.0000   -2.9860    0.0000 H   0  0  0  0  0  0  0  0  0  0  0  0
    4.6200   -2.3660    0.0000 H   0  0  0  0  0  0  0  0  0  0  0  0
    2.5369    2.6760    0.0000 H   0  0  0  0  0  0  0  0  0  0  0  0
    1.6900    2.9030    0.0000 H   0  0  0  0  0  0  0  0  0  0  0  0
    1.4631    2.0560    0.0000 H   0  0  0  0  0  0  0  0  0  0  0  0
  1  3  1  0  0  0  0
  1 13  1  0  0  0  0
  2 13  2  0  0  0  0
  3  4  1  0  0  0  0
  3  5  1  0  0  0  0
  3  8  1  0  0  0  0
  4  6  1  0  0  0  0
  4 15  1  0  0  0  0
  4 16  1  0  0  0  0
  5 10  1  0  0  0  0
  5 11  1  0  0  0  0
  5 17  1  0  0  0  0
  6  7  1  0  0  0  0
  6 18  1  0  0  0  0
  6 19  1  0  0  0  0
  7  9  1  0  0  0  0
  7 12  1  0  0  0  0
  7 20  1  0  0  0  0
  8  9  2  0  0  0  0
  8 21  1  0  0  0  0
  9 22  1  0  0  0  0
 10 23  1  0  0  0  0
 10 24  1  0  0  0  0
 10 28  1  0  0  0  0
 11 25  1  0  0  0  0
 11 26  1  0  0  0  0
 11 27  1  0  0  0  0
 12 29  1  0  0  0  0
 12 30  1  0  0  0  0
 12 31  1  0  0  0  0
 13 14  1  0  0  0  0
 14 32  1  0  0  0  0
 14 33  1  0  0  0  0
 14 34  1  0  0  0  0
M  END
> <PUBCHEM_COMPOUND_CID>
6632

> <PUBCHEM_COMPOUND_CANONICALIZED>
1

> <PUBCHEM_CACTVS_COMPLEXITY>
243

> <PUBCHEM_CACTVS_HBOND_ACCEPTOR>
2

> <PUBCHEM_CACTVS_HBOND_DONOR>
0

> <PUBCHEM_CACTVS_ROTATABLE_BOND>
3

> <PUBCHEM_CACTVS_SUBSKEYS>
AAADceBwMAAAAAAAAAAAAAAAAAAAAAAAAAAgAAAAAAAAAAAAAAAAGgAAAAAADUSAgAACCAAABACIACDSCAAAAAAgAAAICAAAAAgABAIAIQACEAAEgAAIIAOAgEAOgAAAAAAAAAAAAAAAAAAAAAAAAAAAAA==

> <PUBCHEM_IUPAC_OPENEYE_NAME>
(1-isopropyl-4-methyl-cyclohex-2-en-1-yl) acetate

> <PUBCHEM_IUPAC_CAS_NAME>
acetic acid (4-methyl-1-propan-2-yl-1-cyclohex-2-enyl) ester

> <PUBCHEM_IUPAC_NAME>
(4-methyl-1-propan-2-ylcyclohex-2-en-1-yl) acetate

> <PUBCHEM_IUPAC_SYSTEMATIC_NAME>
(4-methyl-1-propan-2-yl-cyclohex-2-en-1-yl) ethanoate

> <PUBCHEM_IUPAC_TRADITIONAL_NAME>
acetic acid (1-isopropyl-4-methyl-cyclohex-2-en-1-yl) ester

> <PUBCHEM_IUPAC_INCHI>
InChI=1S/C12H20O2/c1-9(2)12(14-11(4)13)7-5-10(3)6-8-12/h5,7,9-10H,6,8H2,1-4H3

> <PUBCHEM_IUPAC_INCHIKEY>
VADBNYMWNNFOSH-UHFFFAOYSA-N

> <PUBCHEM_XLOGP3_AA>
3

> <PUBCHEM_EXACT_MASS>
196.14633

> <PUBCHEM_MOLECULAR_FORMULA>
C12H20O2

> <PUBCHEM_MOLECULAR_WEIGHT>
196.286

> <PUBCHEM_OPENEYE_CAN_SMILES>
CC1CCC(C=C1)(C(C)C)OC(=O)C

> <PUBCHEM_OPENEYE_ISO_SMILES>
CC1CCC(C=C1)(C(C)C)OC(=O)C

> <PUBCHEM_CACTVS_TPSA>
26.3

> <PUBCHEM_MONOISOTOPIC_WEIGHT>
196.14633

> <PUBCHEM_TOTAL_CHARGE>
0

> <PUBCHEM_HEAVY_ATOM_COUNT>
14

> <PUBCHEM_ATOM_DEF_STEREO_COUNT>
0

> <PUBCHEM_ATOM_UDEF_STEREO_COUNT>
2

> <PUBCHEM_BOND_DEF_STEREO_COUNT>
0

> <PUBCHEM_BOND_UDEF_STEREO_COUNT>
0

> <PUBCHEM_ISOTOPIC_ATOM_COUNT>
0

> <PUBCHEM_COMPONENT_COUNT>
1

> <PUBCHEM_CACTVS_TAUTO_COUNT>
1

> <PUBCHEM_COORDINATE_TYPE>
1
5
255

> <PUBCHEM_BONDANNOTATIONS>
3  5  3
7  20  3

$$$$

