11077
  -OEChem-06261205182D

 24 26  0     0  0  0  0  0  0999 V2000
    5.5301   -1.4827    0.0000 O   0  0  0  0  0  0  0  0  0  0  0  0
    5.5301    1.5173    0.0000 O   0  5  0  0  0  0  0  0  0  0  0  0
    9.0602   -1.5068    0.0000 O   0  0  0  0  0  0  0  0  0  0  0  0
    2.0000   -1.5068    0.0000 O   0  0  0  0  0  0  0  0  0  0  0  0
    5.5301    0.5173    0.0000 N   0  3  0  0  0  0  0  0  0  0  0  0
    6.3961    0.0173    0.0000 C   0  0  0  0  0  0  0  0  0  0  0  0
    4.6641    0.0173    0.0000 C   0  0  0  0  0  0  0  0  0  0  0  0
    6.3961   -0.9827    0.0000 C   0  0  0  0  0  0  0  0  0  0  0  0
    4.6641   -0.9827    0.0000 C   0  0  0  0  0  0  0  0  0  0  0  0
    7.2901    0.5520    0.0000 C   0  0  0  0  0  0  0  0  0  0  0  0
    3.7702    0.5520    0.0000 C   0  0  0  0  0  0  0  0  0  0  0  0
    7.2901   -1.5173    0.0000 C   0  0  0  0  0  0  0  0  0  0  0  0
    3.7702   -1.5173    0.0000 C   0  0  0  0  0  0  0  0  0  0  0  0
    8.1962   -1.0035    0.0000 C   0  0  0  0  0  0  0  0  0  0  0  0
    8.1962    0.0381    0.0000 C   0  0  0  0  0  0  0  0  0  0  0  0
    2.8641    0.0381    0.0000 C   0  0  0  0  0  0  0  0  0  0  0  0
    2.8641   -1.0035    0.0000 C   0  0  0  0  0  0  0  0  0  0  0  0
    7.2829    1.1720    0.0000 H   0  0  0  0  0  0  0  0  0  0  0  0
    3.7773    1.1720    0.0000 H   0  0  0  0  0  0  0  0  0  0  0  0
    7.2829   -2.1373    0.0000 H   0  0  0  0  0  0  0  0  0  0  0  0
    3.7773   -2.1373    0.0000 H   0  0  0  0  0  0  0  0  0  0  0  0
    8.7319    0.3502    0.0000 H   0  0  0  0  0  0  0  0  0  0  0  0
    2.3284    0.3502    0.0000 H   0  0  0  0  0  0  0  0  0  0  0  0
    9.5984   -1.1989    0.0000 H   0  0  0  0  0  0  0  0  0  0  0  0
  1  8  1  0  0  0  0
  1  9  1  0  0  0  0
  2  5  1  0  0  0  0
  3 14  1  0  0  0  0
  3 24  1  0  0  0  0
  4 17  2  0  0  0  0
  5  6  1  0  0  0  0
  5  7  2  0  0  0  0
  6  8  2  0  0  0  0
  6 10  1  0  0  0  0
  7  9  1  0  0  0  0
  7 11  1  0  0  0  0
  8 12  1  0  0  0  0
  9 13  2  0  0  0  0
 10 15  2  0  0  0  0
 10 18  1  0  0  0  0
 11 16  2  0  0  0  0
 11 19  1  0  0  0  0
 12 14  2  0  0  0  0
 12 20  1  0  0  0  0
 13 17  1  0  0  0  0
 13 21  1  0  0  0  0
 14 15  1  0  0  0  0
 15 22  1  0  0  0  0
 16 17  1  0  0  0  0
 16 23  1  0  0  0  0
M  CHG  2   2  -1   5   1
M  END
> <PUBCHEM_COMPOUND_CID>
11077

> <PUBCHEM_COMPOUND_CANONICALIZED>
1

> <PUBCHEM_CACTVS_COMPLEXITY>
463

> <PUBCHEM_CACTVS_HBOND_ACCEPTOR>
4

> <PUBCHEM_CACTVS_HBOND_DONOR>
1

> <PUBCHEM_CACTVS_ROTATABLE_BOND>
0

> <PUBCHEM_CACTVS_SUBSKEYS>
AAADcYByOAAAAAAAAAAAAAAAAAAAAAAAAAAwQIAAAAAAAACBAAAAHgAECAAACAyBkAAwxoIQBgCoAaRyRASCCAAgIgAoiAAXbNoOJyKGsZuDeCDlwFUI+YewYAwAAEAACAAAEAAAgAAQAAAgAAAAAAAAAA==

> <PUBCHEM_IUPAC_OPENEYE_NAME>
7-hydroxy-10-oxido-phenoxazin-10-ium-3-one

> <PUBCHEM_IUPAC_CAS_NAME>
7-hydroxy-10-oxido-3-phenoxazin-10-iumone

> <PUBCHEM_IUPAC_NAME>
7-hydroxy-10-oxidophenoxazin-10-ium-3-one

> <PUBCHEM_IUPAC_SYSTEMATIC_NAME>
10-oxidanidyl-7-oxidanyl-phenoxazin-10-ium-3-one

> <PUBCHEM_IUPAC_TRADITIONAL_NAME>
7-hydroxy-10-oxido-phenoxazin-10-ium-3-one

> <PUBCHEM_IUPAC_INCHI>
InChI=1S/C12H7NO4/c14-7-1-3-9-11(5-7)17-12-6-8(15)2-4-10(12)13(9)16/h1-6,14H

> <PUBCHEM_IUPAC_INCHIKEY>
PLXBWHJQWKZRKG-UHFFFAOYSA-N

> <PUBCHEM_XLOGP3_AA>
-0.1

> <PUBCHEM_EXACT_MASS>
229.037508

> <PUBCHEM_MOLECULAR_FORMULA>
C12H7NO4

> <PUBCHEM_MOLECULAR_WEIGHT>
229.18828

> <PUBCHEM_OPENEYE_CAN_SMILES>
C1=CC2=C(C=C1O)OC3=CC(=O)C=CC3=[N+]2[O-]

> <PUBCHEM_OPENEYE_ISO_SMILES>
C1=CC2=C(C=C1O)OC3=CC(=O)C=CC3=[N+]2[O-]

> <PUBCHEM_CACTVS_TPSA>
75.3

> <PUBCHEM_MONOISOTOPIC_WEIGHT>
229.037508

> <PUBCHEM_TOTAL_CHARGE>
0

> <PUBCHEM_HEAVY_ATOM_COUNT>
17

> <PUBCHEM_ATOM_DEF_STEREO_COUNT>
0

> <PUBCHEM_ATOM_UDEF_STEREO_COUNT>
0

> <PUBCHEM_BOND_DEF_STEREO_COUNT>
0

> <PUBCHEM_BOND_UDEF_STEREO_COUNT>
0

> <PUBCHEM_ISOTOPIC_ATOM_COUNT>
0

> <PUBCHEM_COMPONENT_COUNT>
1

> <PUBCHEM_CACTVS_TAUTO_COUNT>
5

> <PUBCHEM_COORDINATE_TYPE>
1
5
255

> <PUBCHEM_BONDANNOTATIONS>
1  8  8
1  9  8
10  15  8
11  16  8
12  14  8
13  17  8
14  15  8
16  17  8
5  6  8
5  7  8
6  10  8
6  8  8
7  11  8
8  12  8
9  13  8

$$$$

