249679
  -OEChem-07051213062D

 36 39  0     0  0  0  0  0  0999 V2000
    3.7205    0.4516    0.0000 Cl  0  0  0  0  0  0  0  0  0  0  0  0
    2.0000   -2.5550    0.0000 Cl  0  0  0  0  0  0  0  0  0  0  0  0
    9.8544   -1.0142    0.0000 O   0  0  0  0  0  0  0  0  0  0  0  0
   11.5865   -1.0142    0.0000 O   0  0  0  0  0  0  0  0  0  0  0  0
    6.3243   -1.0384    0.0000 N   0  0  0  0  0  0  0  0  0  0  0  0
    8.9884    0.4858    0.0000 C   0  0  0  0  0  0  0  0  0  0  0  0
    9.8544    0.9858    0.0000 C   0  0  0  0  0  0  0  0  0  0  0  0
    8.9884   -0.5142    0.0000 C   0  0  0  0  0  0  0  0  0  0  0  0
   10.7205    0.4858    0.0000 C   0  0  0  0  0  0  0  0  0  0  0  0
    8.0945    1.0204    0.0000 C   0  0  0  0  0  0  0  0  0  0  0  0
    8.0945   -1.0489    0.0000 C   0  0  0  0  0  0  0  0  0  0  0  0
    9.8384    2.0273    0.0000 C   0  0  0  0  0  0  0  0  0  0  0  0
    7.1884   -0.5350    0.0000 C   0  0  0  0  0  0  0  0  0  0  0  0
   10.7205   -0.5142    0.0000 C   0  0  0  0  0  0  0  0  0  0  0  0
    7.1884    0.5066    0.0000 C   0  0  0  0  0  0  0  0  0  0  0  0
   11.6305    0.9926    0.0000 C   0  0  0  0  0  0  0  0  0  0  0  0
   10.7364    2.5550    0.0000 C   0  0  0  0  0  0  0  0  0  0  0  0
   11.6385    2.0342    0.0000 C   0  0  0  0  0  0  0  0  0  0  0  0
    4.5923   -1.0450    0.0000 C   0  0  0  0  0  0  0  0  0  0  0  0
    5.4564   -0.5417    0.0000 C   0  0  0  0  0  0  0  0  0  0  0  0
    3.7243   -0.5484    0.0000 C   0  0  0  0  0  0  0  0  0  0  0  0
    4.5961   -2.0450    0.0000 C   0  0  0  0  0  0  0  0  0  0  0  0
    2.8602   -1.0517    0.0000 C   0  0  0  0  0  0  0  0  0  0  0  0
    3.7320   -2.5484    0.0000 C   0  0  0  0  0  0  0  0  0  0  0  0
    2.8641   -2.0517    0.0000 C   0  0  0  0  0  0  0  0  0  0  0  0
    8.1016    1.6404    0.0000 H   0  0  0  0  0  0  0  0  0  0  0  0
    8.1016   -1.6688    0.0000 H   0  0  0  0  0  0  0  0  0  0  0  0
    9.2979    2.3311    0.0000 H   0  0  0  0  0  0  0  0  0  0  0  0
    6.6527    0.8187    0.0000 H   0  0  0  0  0  0  0  0  0  0  0  0
   12.1638    0.6764    0.0000 H   0  0  0  0  0  0  0  0  0  0  0  0
   10.7340    3.1750    0.0000 H   0  0  0  0  0  0  0  0  0  0  0  0
   12.1766    2.3422    0.0000 H   0  0  0  0  0  0  0  0  0  0  0  0
    5.4540    0.0783    0.0000 H   0  0  0  0  0  0  0  0  0  0  0  0
    5.1343   -2.3530    0.0000 H   0  0  0  0  0  0  0  0  0  0  0  0
    2.3221   -0.7438    0.0000 H   0  0  0  0  0  0  0  0  0  0  0  0
    3.7344   -3.1684    0.0000 H   0  0  0  0  0  0  0  0  0  0  0  0
  1 21  1  0  0  0  0
  2 25  1  0  0  0  0
  3  8  1  0  0  0  0
  3 14  1  0  0  0  0
  4 14  2  0  0  0  0
  5 13  1  0  0  0  0
  5 20  2  0  0  0  0
  6  7  1  0  0  0  0
  6  8  2  0  0  0  0
  6 10  1  0  0  0  0
  7  9  1  0  0  0  0
  7 12  2  0  0  0  0
  8 11  1  0  0  0  0
  9 14  1  0  0  0  0
  9 16  2  0  0  0  0
 10 15  2  0  0  0  0
 10 26  1  0  0  0  0
 11 13  2  0  0  0  0
 11 27  1  0  0  0  0
 12 17  1  0  0  0  0
 12 28  1  0  0  0  0
 13 15  1  0  0  0  0
 15 29  1  0  0  0  0
 16 18  1  0  0  0  0
 16 30  1  0  0  0  0
 17 18  2  0  0  0  0
 17 31  1  0  0  0  0
 18 32  1  0  0  0  0
 19 20  1  0  0  0  0
 19 21  2  0  0  0  0
 19 22  1  0  0  0  0
 20 33  1  0  0  0  0
 21 23  1  0  0  0  0
 22 24  2  0  0  0  0
 22 34  1  0  0  0  0
 23 25  2  0  0  0  0
 23 35  1  0  0  0  0
 24 25  1  0  0  0  0
 24 36  1  0  0  0  0
M  END
> <PUBCHEM_COMPOUND_CID>
249679

> <PUBCHEM_COMPOUND_CANONICALIZED>
1

> <PUBCHEM_CACTVS_COMPLEXITY>
526

> <PUBCHEM_CACTVS_HBOND_ACCEPTOR>
3

> <PUBCHEM_CACTVS_HBOND_DONOR>
0

> <PUBCHEM_CACTVS_ROTATABLE_BOND>
2

> <PUBCHEM_CACTVS_SUBSKEYS>
AAADccB6MAAGAAAAAAAAAAAAAAAAAAAAAAA0YMEAAAAAAACRUAAAHgIAAAAADA7BmCQwzoIABACoAjTzTACCCAAkJwAIiAEmbtgMJrKFt5uCOyDmwBkI6YeY3OHOjAAAAgCZAAAYAAAEATIAAAAAAAAAAA==

> <PUBCHEM_IUPAC_OPENEYE_NAME>
3-[(2,4-dichlorophenyl)methyleneamino]benzo[c]chromen-6-one

> <PUBCHEM_IUPAC_CAS_NAME>
3-[(2,4-dichlorophenyl)methylideneamino]-6-benzo[c][1]benzopyranone

> <PUBCHEM_IUPAC_NAME>
3-[(2,4-dichlorophenyl)methylideneamino]benzo[c]chromen-6-one

> <PUBCHEM_IUPAC_SYSTEMATIC_NAME>
3-[(2,4-dichlorophenyl)methylideneamino]benzo[c]chromen-6-one

> <PUBCHEM_IUPAC_TRADITIONAL_NAME>
3-[(2,4-dichlorobenzylidene)amino]benzo[c]chromen-6-one

> <PUBCHEM_IUPAC_INCHI>
InChI=1S/C20H11Cl2NO2/c21-13-6-5-12(18(22)9-13)11-23-14-7-8-16-15-3-1-2-4-17(15)20(24)25-19(16)10-14/h1-11H

> <PUBCHEM_IUPAC_INCHIKEY>
LHPIPCCMOMTVQL-UHFFFAOYSA-N

> <PUBCHEM_XLOGP3_AA>
5.6

> <PUBCHEM_EXACT_MASS>
367.016684

> <PUBCHEM_MOLECULAR_FORMULA>
C20H11Cl2NO2

> <PUBCHEM_MOLECULAR_WEIGHT>
368.21284

> <PUBCHEM_OPENEYE_CAN_SMILES>
C1=CC=C2C(=C1)C3=C(C=C(C=C3)N=CC4=C(C=C(C=C4)Cl)Cl)OC2=O

> <PUBCHEM_OPENEYE_ISO_SMILES>
C1=CC=C2C(=C1)C3=C(C=C(C=C3)N=CC4=C(C=C(C=C4)Cl)Cl)OC2=O

> <PUBCHEM_CACTVS_TPSA>
38.7

> <PUBCHEM_MONOISOTOPIC_WEIGHT>
367.016684

> <PUBCHEM_TOTAL_CHARGE>
0

> <PUBCHEM_HEAVY_ATOM_COUNT>
25

> <PUBCHEM_ATOM_DEF_STEREO_COUNT>
0

> <PUBCHEM_ATOM_UDEF_STEREO_COUNT>
0

> <PUBCHEM_BOND_DEF_STEREO_COUNT>
0

> <PUBCHEM_BOND_UDEF_STEREO_COUNT>
0

> <PUBCHEM_ISOTOPIC_ATOM_COUNT>
0

> <PUBCHEM_COMPONENT_COUNT>
1

> <PUBCHEM_CACTVS_TAUTO_COUNT>
1

> <PUBCHEM_COORDINATE_TYPE>
1
5
255

> <PUBCHEM_BONDANNOTATIONS>
10  15  8
11  13  8
12  17  8
13  15  8
16  18  8
17  18  8
19  21  8
19  22  8
21  23  8
22  24  8
23  25  8
24  25  8
3  14  8
3  8  8
6  10  8
6  7  8
6  8  8
7  12  8
7  9  8
8  11  8
9  14  8
9  16  8

$$$$

