   Color/Form
        Colorless liquid
   from [1]HSDB

   Boiling Point
        213-213.5 deg C at 761 mm Hg
   from [2]HSDB

   Density/Specific Gravity
        Specific gravity: 1.1452 at 22 deg C/4 deg C
   from [3]HSDB

   Octanol/Water Partition Coefficient
        log Kow = -0.2 (est)
   from [4]HSDB

   Spectral Properties

     * IR: 23120(Sadtler Research Laboratories IR grating collection)
     * NMR: 13989 (Sadtler Research Laboratories spectral collection)
     * Raman: 538 (Sadtler Research Laboratories spectral collection)
     * MASS: 20604 (NIST/EPA/MSDC Mass Spectral Database, 1990 Version);
       4024 (National Bureau of Standards EPA-NIH Mass Spectra Data Base,
       NSRDS-NBS-63).

   from [5]HSDB

   Vapor Pressure
        0.206 mm Hg at 25 deg C
   from [6]HSDB

   Other Chemical/Physical Properties

     * Henry's Law constant = 5.4X10-10 atm-cu m/mol at 25 deg C (est)
     * Hydroxyl radical reaction rate constant = 4.0X10-16 cu
       cm/molecule-sec at 25 deg C (est)
     * ... decompose on distillation at normal pressure ... darken when
       stored in the absence of light ... form hydrates, are hygroscopic,
       and dissolve readily in water /Alkanesulfonic acids/

   from [7]HSDB

   Computed Properties
   Molecular Weight                  124.15882 [g/mol]
   Molecular Formula                 C[3]H[8]O[3]S
   XLogP3-AA                         0
   H-Bond Donor                      0
   H-Bond Acceptor                   3
   Rotatable Bond Count              2
   Exact Mass                        124.019415
   MonoIsotopic Mass                 124.019415
   Topological Polar Surface Area    51.8
   Heavy Atom Count                  7
   Formal Charge                     0
   Complexity                        118
   Isotope Atom Count                0
   Defined Atom Stereocenter Count   0
   Undefined Atom Stereocenter Count 0
   Defined Bond Stereocenter Count   0
   Undefined Bond Stereocenter Count 0
   Covalently-Bonded Unit Count      1
   Feature 3D Acceptor Count         2
   Effective Rotor Count             2
   Conformer Sampling RMSD           0.4
   CID Conformer Count               [8]7

References

   1. http://toxnet.nlm.nih.gov/cgi-bin/sis/search/r?dbs+hsdb:@term+@rn+@rel+62-50-0
   2. http://toxnet.nlm.nih.gov/cgi-bin/sis/search/r?dbs+hsdb:@term+@rn+@rel+62-50-0
   3. http://toxnet.nlm.nih.gov/cgi-bin/sis/search/r?dbs+hsdb:@term+@rn+@rel+62-50-0
   4. http://toxnet.nlm.nih.gov/cgi-bin/sis/search/r?dbs+hsdb:@term+@rn+@rel+62-50-0
   5. http://toxnet.nlm.nih.gov/cgi-bin/sis/search/r?dbs+hsdb:@term+@rn+@rel+62-50-0
   6. http://toxnet.nlm.nih.gov/cgi-bin/sis/search/r?dbs+hsdb:@term+@rn+@rel+62-50-0
   7. http://toxnet.nlm.nih.gov/cgi-bin/sis/search/r?dbs+hsdb:@term+@rn+@rel+62-50-0
   8. http://pubchem.ncbi.nlm.nih.gov/vw3d/vw3d.cgi?cid=6113
