13416
  -OEChem-06261209512D

 28 28  0     0  0  0  0  0  0999 V2000
    2.1340   -2.4400    0.0000 O   0  0  0  0  0  0  0  0  0  0  0  0
    3.0000    2.0600    0.0000 C   0  0  0  0  0  0  0  0  0  0  0  0
    3.0000    1.0600    0.0000 C   0  0  0  0  0  0  0  0  0  0  0  0
    3.0000    3.0600    0.0000 C   0  0  0  0  0  0  0  0  0  0  0  0
    4.0000    2.0600    0.0000 C   0  0  0  0  0  0  0  0  0  0  0  0
    2.0000    2.0600    0.0000 C   0  0  0  0  0  0  0  0  0  0  0  0
    2.1340    0.5600    0.0000 C   0  0  0  0  0  0  0  0  0  0  0  0
    3.8660    0.5600    0.0000 C   0  0  0  0  0  0  0  0  0  0  0  0
    3.0000   -0.9400    0.0000 C   0  0  0  0  0  0  0  0  0  0  0  0
    2.1340   -0.4400    0.0000 C   0  0  0  0  0  0  0  0  0  0  0  0
    3.8660   -0.4400    0.0000 C   0  0  0  0  0  0  0  0  0  0  0  0
    3.0000   -1.9400    0.0000 C   0  0  0  0  0  0  0  0  0  0  0  0
    3.6200    3.0600    0.0000 H   0  0  0  0  0  0  0  0  0  0  0  0
    3.0000    3.6800    0.0000 H   0  0  0  0  0  0  0  0  0  0  0  0
    2.3800    3.0600    0.0000 H   0  0  0  0  0  0  0  0  0  0  0  0
    4.0000    1.4400    0.0000 H   0  0  0  0  0  0  0  0  0  0  0  0
    4.6200    2.0600    0.0000 H   0  0  0  0  0  0  0  0  0  0  0  0
    4.0000    2.6800    0.0000 H   0  0  0  0  0  0  0  0  0  0  0  0
    2.0000    2.6800    0.0000 H   0  0  0  0  0  0  0  0  0  0  0  0
    1.3800    2.0600    0.0000 H   0  0  0  0  0  0  0  0  0  0  0  0
    2.0000    1.4400    0.0000 H   0  0  0  0  0  0  0  0  0  0  0  0
    1.5970    0.8700    0.0000 H   0  0  0  0  0  0  0  0  0  0  0  0
    4.4030    0.8700    0.0000 H   0  0  0  0  0  0  0  0  0  0  0  0
    1.5970   -0.7500    0.0000 H   0  0  0  0  0  0  0  0  0  0  0  0
    4.4030   -0.7500    0.0000 H   0  0  0  0  0  0  0  0  0  0  0  0
    3.2120   -2.5226    0.0000 H   0  0  0  0  0  0  0  0  0  0  0  0
    3.6106   -1.8323    0.0000 H   0  0  0  0  0  0  0  0  0  0  0  0
    2.1340   -3.0600    0.0000 H   0  0  0  0  0  0  0  0  0  0  0  0
  1 12  1  0  0  0  0
  1 28  1  0  0  0  0
  2  3  1  0  0  0  0
  2  4  1  0  0  0  0
  2  5  1  0  0  0  0
  2  6  1  0  0  0  0
  3  7  2  0  0  0  0
  3  8  1  0  0  0  0
  4 13  1  0  0  0  0
  4 14  1  0  0  0  0
  4 15  1  0  0  0  0
  5 16  1  0  0  0  0
  5 17  1  0  0  0  0
  5 18  1  0  0  0  0
  6 19  1  0  0  0  0
  6 20  1  0  0  0  0
  6 21  1  0  0  0  0
  7 10  1  0  0  0  0
  7 22  1  0  0  0  0
  8 11  2  0  0  0  0
  8 23  1  0  0  0  0
  9 10  2  0  0  0  0
  9 11  1  0  0  0  0
  9 12  1  0  0  0  0
 10 24  1  0  0  0  0
 11 25  1  0  0  0  0
 12 26  1  0  0  0  0
 12 27  1  0  0  0  0
M  END
> <PUBCHEM_COMPOUND_CID>
13416

> <PUBCHEM_COMPOUND_CANONICALIZED>
1

> <PUBCHEM_CACTVS_COMPLEXITY>
126

> <PUBCHEM_CACTVS_HBOND_ACCEPTOR>
1

> <PUBCHEM_CACTVS_HBOND_DONOR>
1

> <PUBCHEM_CACTVS_ROTATABLE_BOND>
2

> <PUBCHEM_CACTVS_SUBSKEYS>
AAADceBwIAAAAAAAAAAAAAAAAAAAAAAAAAAwAAAAAAAAAAABAAAAGgAACAAADgCgmAIyAIAAAgCAAiBCAAACAAAgAAAIiAAACIgINiKAERCAcAAkwAEImAeAwPAPwAAAAAAAAACAAAAAAAAAAAAAAAAAAA==

> <PUBCHEM_IUPAC_OPENEYE_NAME>
(4-tert-butylphenyl)methanol

> <PUBCHEM_IUPAC_CAS_NAME>
(4-tert-butylphenyl)methanol

> <PUBCHEM_IUPAC_NAME>
(4-tert-butylphenyl)methanol

> <PUBCHEM_IUPAC_SYSTEMATIC_NAME>
(4-tert-butylphenyl)methanol

> <PUBCHEM_IUPAC_TRADITIONAL_NAME>
(4-tert-butylphenyl)methanol

> <PUBCHEM_IUPAC_INCHI>
InChI=1S/C11H16O/c1-11(2,3)10-6-4-9(8-12)5-7-10/h4-7,12H,8H2,1-3H3

> <PUBCHEM_IUPAC_INCHIKEY>
FVEINXLJOJPHLH-UHFFFAOYSA-N

> <PUBCHEM_XLOGP3>
2.9

> <PUBCHEM_EXACT_MASS>
164.120115

> <PUBCHEM_MOLECULAR_FORMULA>
C11H16O

> <PUBCHEM_MOLECULAR_WEIGHT>
164.24414

> <PUBCHEM_OPENEYE_CAN_SMILES>
CC(C)(C)C1=CC=C(C=C1)CO

> <PUBCHEM_OPENEYE_ISO_SMILES>
CC(C)(C)C1=CC=C(C=C1)CO

> <PUBCHEM_CACTVS_TPSA>
20.2

> <PUBCHEM_MONOISOTOPIC_WEIGHT>
164.120115

> <PUBCHEM_TOTAL_CHARGE>
0

> <PUBCHEM_HEAVY_ATOM_COUNT>
12

> <PUBCHEM_ATOM_DEF_STEREO_COUNT>
0

> <PUBCHEM_ATOM_UDEF_STEREO_COUNT>
0

> <PUBCHEM_BOND_DEF_STEREO_COUNT>
0

> <PUBCHEM_BOND_UDEF_STEREO_COUNT>
0

> <PUBCHEM_ISOTOPIC_ATOM_COUNT>
0

> <PUBCHEM_COMPONENT_COUNT>
1

> <PUBCHEM_CACTVS_TAUTO_COUNT>
1

> <PUBCHEM_COORDINATE_TYPE>
1
5
255

> <PUBCHEM_BONDANNOTATIONS>
3  7  8
3  8  8
7  10  8
8  11  8
9  10  8
9  11  8

$$$$

