5459873
  -OEChem-07051213022D

 48 52  0     1  0  0  0  0  0999 V2000
    6.7833    2.3991    0.0000 O   0  0  0  0  0  0  0  0  0  0  0  0
    8.4646    1.9831    0.0000 O   0  0  0  0  0  0  0  0  0  0  0  0
    8.5117   -0.4660    0.0000 O   0  0  0  0  0  0  0  0  0  0  0  0
    6.5117   -0.5674    0.0000 N   0  0  3  0  0  0  0  0  0  0  0  0
    4.2558   -1.0016    0.0000 N   0  0  0  0  0  0  0  0  0  0  0  0
    6.5117    0.3009    0.0000 C   0  0  2  0  0  0  0  0  0  0  0  0
    7.2636    0.7350    0.0000 C   0  0  3  0  0  0  0  0  0  0  0  0
    6.5117   -2.3040    0.0000 C   0  0  1  0  0  0  0  0  0  0  0  0
    5.7597   -1.0016    0.0000 C   0  0  1  0  0  0  0  0  0  0  0  0
    5.7597   -1.8698    0.0000 C   0  0  0  0  0  0  0  0  0  0  0  0
    5.7597    0.7350    0.0000 C   0  0  0  0  0  0  0  0  0  0  0  0
    7.2636   -1.0016    0.0000 C   0  0  0  0  0  0  0  0  0  0  0  0
    7.2636   -1.8698    0.0000 C   0  0  0  0  0  0  0  0  0  0  0  0
    5.0078   -0.5674    0.0000 C   0  0  0  0  0  0  0  0  0  0  0  0
    5.0078    0.3009    0.0000 C   0  0  0  0  0  0  0  0  0  0  0  0
    7.5038    1.7057    0.0000 C   0  0  0  0  0  0  0  0  0  0  0  0
    8.2344    0.4948    0.0000 C   0  0  0  0  0  0  0  0  0  0  0  0
    3.5039    0.3009    0.0000 C   0  0  0  0  0  0  0  0  0  0  0  0
    8.1297   -2.3698    0.0000 C   0  0  0  0  0  0  0  0  0  0  0  0
    3.5039   -0.5674    0.0000 C   0  0  0  0  0  0  0  0  0  0  0  0
    2.7520    0.7350    0.0000 C   0  0  0  0  0  0  0  0  0  0  0  0
    8.1297   -3.3698    0.0000 C   0  0  0  0  0  0  0  0  0  0  0  0
    2.7520   -1.0016    0.0000 C   0  0  0  0  0  0  0  0  0  0  0  0
    2.0000    0.3009    0.0000 C   0  0  0  0  0  0  0  0  0  0  0  0
    2.0000   -0.5674    0.0000 C   0  0  0  0  0  0  0  0  0  0  0  0
    7.0235    3.3698    0.0000 C   0  0  0  0  0  0  0  0  0  0  0  0
    6.5117    1.1508    0.0000 H   0  0  0  0  0  0  0  0  0  0  0  0
    6.5117   -3.1540    0.0000 H   0  0  0  0  0  0  0  0  0  0  0  0
    5.0902   -1.5251    0.0000 H   0  0  0  0  0  0  0  0  0  0  0  0
    5.1492   -1.7622    0.0000 H   0  0  0  0  0  0  0  0  0  0  0  0
    5.5477   -2.4524    0.0000 H   0  0  0  0  0  0  0  0  0  0  0  0
    6.1583    1.2099    0.0000 H   0  0  0  0  0  0  0  0  0  0  0  0
    5.3612    1.2099    0.0000 H   0  0  0  0  0  0  0  0  0  0  0  0
    7.8742   -1.1092    0.0000 H   0  0  0  0  0  0  0  0  0  0  0  0
    7.4757   -0.4189    0.0000 H   0  0  0  0  0  0  0  0  0  0  0  0
    8.8300    0.6668    0.0000 H   0  0  0  0  0  0  0  0  0  0  0  0
    4.2558   -1.6216    0.0000 H   0  0  0  0  0  0  0  0  0  0  0  0
    8.6666   -2.0598    0.0000 H   0  0  0  0  0  0  0  0  0  0  0  0
    2.7520    1.3550    0.0000 H   0  0  0  0  0  0  0  0  0  0  0  0
    7.5097   -3.3698    0.0000 H   0  0  0  0  0  0  0  0  0  0  0  0
    8.1297   -3.9898    0.0000 H   0  0  0  0  0  0  0  0  0  0  0  0
    8.7497   -3.3698    0.0000 H   0  0  0  0  0  0  0  0  0  0  0  0
    2.7520   -1.6216    0.0000 H   0  0  0  0  0  0  0  0  0  0  0  0
    1.4631    0.6109    0.0000 H   0  0  0  0  0  0  0  0  0  0  0  0
    1.4631   -0.8774    0.0000 H   0  0  0  0  0  0  0  0  0  0  0  0
    7.6253    3.2209    0.0000 H   0  0  0  0  0  0  0  0  0  0  0  0
    7.1724    3.9717    0.0000 H   0  0  0  0  0  0  0  0  0  0  0  0
    6.4216    3.5187    0.0000 H   0  0  0  0  0  0  0  0  0  0  0  0
  1 16  1  0  0  0  0
  1 26  1  0  0  0  0
  2 16  2  0  0  0  0
  3 17  2  0  0  0  0
  4  6  1  0  0  0  0
  4  9  1  0  0  0  0
  4 12  1  0  0  0  0
  5 14  1  0  0  0  0
  5 20  1  0  0  0  0
  5 37  1  0  0  0  0
  6  7  1  0  0  0  0
  6 11  1  0  0  0  0
  6 27  1  6  0  0  0
  7  8  1  0  0  0  0
  7 16  1  0  0  0  0
  7 17  1  0  0  0  0
  8 10  1  0  0  0  0
  8 13  1  0  0  0  0
  8 28  1  1  0  0  0
  9 10  1  0  0  0  0
  9 14  1  0  0  0  0
  9 29  1  6  0  0  0
 10 30  1  0  0  0  0
 10 31  1  0  0  0  0
 11 15  1  0  0  0  0
 11 32  1  0  0  0  0
 11 33  1  0  0  0  0
 12 13  1  0  0  0  0
 12 34  1  0  0  0  0
 12 35  1  0  0  0  0
 13 19  2  0  0  0  0
 14 15  2  0  0  0  0
 15 18  1  0  0  0  0
 17 36  1  0  0  0  0
 18 20  1  0  0  0  0
 18 21  2  0  0  0  0
 19 22  1  0  0  0  0
 19 38  1  0  0  0  0
 20 23  2  0  0  0  0
 21 24  1  0  0  0  0
 21 39  1  0  0  0  0
 22 40  1  0  0  0  0
 22 41  1  0  0  0  0
 22 42  1  0  0  0  0
 23 25  1  0  0  0  0
 23 43  1  0  0  0  0
 24 25  2  0  0  0  0
 24 44  1  0  0  0  0
 25 45  1  0  0  0  0
 26 46  1  0  0  0  0
 26 47  1  0  0  0  0
 26 48  1  0  0  0  0
M  END
> <PUBCHEM_COMPOUND_CID>
5459873

> <PUBCHEM_COMPOUND_CANONICALIZED>
1

> <PUBCHEM_CACTVS_COMPLEXITY>
662

> <PUBCHEM_CACTVS_HBOND_ACCEPTOR>
4

> <PUBCHEM_CACTVS_HBOND_DONOR>
1

> <PUBCHEM_CACTVS_ROTATABLE_BOND>
3

> <PUBCHEM_CACTVS_SUBSKEYS>
AAADceB7MAAAAAAAAAAAAAAAAAAAAWAAAAA8WLFiAAAYAFgB8AAAHgAQAAAADyjhngYyyPPJlACoAyzyzACCgCAhAiAImSE4ZJgIYP7IkZGUIAhmsADIyAeY2fOfgAAAAAACAAAAAAAAAAQAAAAAAAAAAA==

> <PUBCHEM_IUPAC_INCHI>
InChI=1S/C21H22N2O3/c1-3-12-10-23-17-9-15(12)21(11-24,20(25)26-2)18(23)8-14-13-6-4-5-7-16(13)22-19(14)17/h3-7,11,15,17-18,22H,8-10H2,1-2H3/b12-3-/t15-,17-,18-,21?/m0/s1

> <PUBCHEM_IUPAC_INCHIKEY>
BRJNQOSDCDNITN-WBOATDDDSA-N

> <PUBCHEM_XLOGP3_AA>
1.9

> <PUBCHEM_EXACT_MASS>
350.163043

> <PUBCHEM_MOLECULAR_FORMULA>
C21H22N2O3

> <PUBCHEM_MOLECULAR_WEIGHT>
350.41098

> <PUBCHEM_OPENEYE_CAN_SMILES>
CC=C1CN2C3CC1C(C2CC4=C3NC5=CC=CC=C45)(C=O)C(=O)OC

> <PUBCHEM_OPENEYE_ISO_SMILES>
C/C=C\1/CN2[C@H]3C[C@@H]1C([C@@H]2CC4=C3NC5=CC=CC=C45)(C=O)C(=O)OC

> <PUBCHEM_CACTVS_TPSA>
62.4

> <PUBCHEM_MONOISOTOPIC_WEIGHT>
350.163043

> <PUBCHEM_TOTAL_CHARGE>
0

> <PUBCHEM_HEAVY_ATOM_COUNT>
26

> <PUBCHEM_ATOM_DEF_STEREO_COUNT>
3

> <PUBCHEM_ATOM_UDEF_STEREO_COUNT>
1

> <PUBCHEM_BOND_DEF_STEREO_COUNT>
1

> <PUBCHEM_BOND_UDEF_STEREO_COUNT>
0

> <PUBCHEM_ISOTOPIC_ATOM_COUNT>
0

> <PUBCHEM_COMPONENT_COUNT>
1

> <PUBCHEM_CACTVS_TAUTO_COUNT>
1

> <PUBCHEM_COORDINATE_TYPE>
1
5
255

> <PUBCHEM_BONDANNOTATIONS>
14  15  8
15  18  8
18  20  8
18  21  8
20  23  8
21  24  8
23  25  8
24  25  8
5  14  8
5  20  8
6  27  6
7  17  3
8  28  5
9  29  6

$$$$

