6164
  -OEChem-06261201092D

 58 60  0     1  0  0  0  0  0999 V2000
    4.5053    7.5198    0.0000 Cl  0  0  0  0  0  0  0  0  0  0  0  0
    4.0678    4.5779    0.0000 O   0  0  0  0  0  0  0  0  0  0  0  0
    7.1837    1.1715    0.0000 O   0  0  0  0  0  0  0  0  0  0  0  0
    4.9338    5.0779    0.0000 O   0  0  0  0  0  0  0  0  0  0  0  0
    6.6822    5.1125    0.0000 O   0  0  0  0  0  0  0  0  0  0  0  0
    2.6839    4.9843    0.0000 O   0  0  0  0  0  0  0  0  0  0  0  0
    1.4037    2.0537    0.0000 O   0  0  0  0  0  0  0  0  0  0  0  0
    8.5194    5.1556    0.0000 O   0  0  0  0  0  0  0  0  0  0  0  0
    1.4075    5.1020    0.0000 O   0  0  0  0  0  0  0  0  0  0  0  0
    3.1854    1.0433    0.0000 N   0  0  0  0  0  0  0  0  0  0  0  0
    0.5357    3.6054    0.0000 N   0  0  0  0  0  0  0  0  0  0  0  0
    4.0678    2.5779    0.0000 C   0  0  3  0  0  0  0  0  0  0  0  0
    5.7998    2.5779    0.0000 C   0  0  3  0  0  0  0  0  0  0  0  0
    4.9338    2.0779    0.0000 C   0  0  0  0  0  0  0  0  0  0  0  0
    4.0678    3.5779    0.0000 C   0  0  1  0  0  0  0  0  0  0  0  0
    3.1738    2.0432    0.0000 C   0  0  3  0  0  0  0  0  0  0  0  0
    6.6938    2.0432    0.0000 C   0  0  1  0  0  0  0  0  0  0  0  0
    5.7998    3.5779    0.0000 C   0  0  0  0  0  0  0  0  0  0  0  0
    4.9338    4.0779    0.0000 C   0  0  0  0  0  0  0  0  0  0  0  0
    3.1738    4.1126    0.0000 C   0  0  0  0  0  0  0  0  0  0  0  0
    7.5998    2.5571    0.0000 C   0  0  0  0  0  0  0  0  0  0  0  0
    2.2678    2.5571    0.0000 C   0  0  0  0  0  0  0  0  0  0  0  0
    6.6938    4.1126    0.0000 C   0  0  0  0  0  0  0  0  0  0  0  0
    7.5998    3.5987    0.0000 C   0  0  0  0  0  0  0  0  0  0  0  0
    6.1838    1.1830    0.0000 C   0  0  0  0  0  0  0  0  0  0  0  0
    2.2678    3.5987    0.0000 C   0  0  0  0  0  0  0  0  0  0  0  0
    8.5310    2.0002    0.0000 C   0  0  0  0  0  0  0  0  0  0  0  0
    2.3252    0.5333    0.0000 C   0  0  0  0  0  0  0  0  0  0  0  0
    4.0572    0.5533    0.0000 C   0  0  0  0  0  0  0  0  0  0  0  0
    8.5310    4.1556    0.0000 C   0  0  0  0  0  0  0  0  0  0  0  0
    1.4037    4.1020    0.0000 C   0  0  0  0  0  0  0  0  0  0  0  0
    9.4748    2.5354    0.0000 C   0  0  0  0  0  0  0  0  0  0  0  0
    9.4748    3.6204    0.0000 C   0  0  0  0  0  0  0  0  0  0  0  0
    4.0726    1.9579    0.0000 H   0  0  0  0  0  0  0  0  0  0  0  0
    5.7951    1.9579    0.0000 H   0  0  0  0  0  0  0  0  0  0  0  0
    4.5353    1.6029    0.0000 H   0  0  0  0  0  0  0  0  0  0  0  0
    5.3323    1.6029    0.0000 H   0  0  0  0  0  0  0  0  0  0  0  0
    3.7149    1.7405    0.0000 H   0  0  0  0  0  0  0  0  0  0  0  0
    5.6505    1.4992    0.0000 H   0  0  0  0  0  0  0  0  0  0  0  0
    5.8676    0.6497    0.0000 H   0  0  0  0  0  0  0  0  0  0  0  0
    6.7171    0.8669    0.0000 H   0  0  0  0  0  0  0  0  0  0  0  0
    3.7578    5.1148    0.0000 H   0  0  0  0  0  0  0  0  0  0  0  0
    6.8675    0.6382    0.0000 H   0  0  0  0  0  0  0  0  0  0  0  0
    8.5238    1.3802    0.0000 H   0  0  0  0  0  0  0  0  0  0  0  0
    2.0090    1.0666    0.0000 H   0  0  0  0  0  0  0  0  0  0  0  0
    1.7919    0.2171    0.0000 H   0  0  0  0  0  0  0  0  0  0  0  0
    2.6414    0.0000    0.0000 H   0  0  0  0  0  0  0  0  0  0  0  0
    3.7534    0.0129    0.0000 H   0  0  0  0  0  0  0  0  0  0  0  0
    4.5976    0.2496    0.0000 H   0  0  0  0  0  0  0  0  0  0  0  0
    4.3609    1.0938    0.0000 H   0  0  0  0  0  0  0  0  0  0  0  0
    7.2155    5.4287    0.0000 H   0  0  0  0  0  0  0  0  0  0  0  0
   10.0105    2.2233    0.0000 H   0  0  0  0  0  0  0  0  0  0  0  0
   10.0105    3.9325    0.0000 H   0  0  0  0  0  0  0  0  0  0  0  0
    0.0000    3.9174    0.0000 H   0  0  0  0  0  0  0  0  0  0  0  0
    0.5333    2.9854    0.0000 H   0  0  0  0  0  0  0  0  0  0  0  0
    9.0528    5.4717    0.0000 H   0  0  0  0  0  0  0  0  0  0  0  0
    0.8718    5.4141    0.0000 H   0  0  0  0  0  0  0  0  0  0  0  0
    5.5053    7.5198    0.0000 H   0  0  0  0  0  0  0  0  0  0  0  0
  1 58  1  0  0  0  0
  2 15  1  0  0  0  0
  2 42  1  0  0  0  0
  3 17  1  0  0  0  0
  3 43  1  0  0  0  0
  4 19  2  0  0  0  0
  5 23  1  0  0  0  0
  5 51  1  0  0  0  0
  6 20  2  0  0  0  0
  7 22  2  0  0  0  0
  8 30  1  0  0  0  0
  8 56  1  0  0  0  0
  9 31  1  0  0  0  0
  9 57  1  0  0  0  0
 10 16  1  0  0  0  0
 10 28  1  0  0  0  0
 10 29  1  0  0  0  0
 11 31  1  0  0  0  0
 11 54  1  0  0  0  0
 11 55  1  0  0  0  0
 12 14  1  0  0  0  0
 12 15  1  0  0  0  0
 12 16  1  0  0  0  0
 12 34  1  0  0  0  0
 13 14  1  0  0  0  0
 13 17  1  0  0  0  0
 13 18  1  0  0  0  0
 13 35  1  0  0  0  0
 14 36  1  0  0  0  0
 14 37  1  0  0  0  0
 15 19  1  0  0  0  0
 15 20  1  0  0  0  0
 16 22  1  0  0  0  0
 16 38  1  0  0  0  0
 17 21  1  0  0  0  0
 17 25  1  0  0  0  0
 18 19  1  0  0  0  0
 18 23  2  0  0  0  0
 20 26  1  0  0  0  0
 21 24  2  0  0  0  0
 21 27  1  0  0  0  0
 22 26  1  0  0  0  0
 23 24  1  0  0  0  0
 24 30  1  0  0  0  0
 25 39  1  0  0  0  0
 25 40  1  0  0  0  0
 25 41  1  0  0  0  0
 26 31  2  3  0  0  0
 27 32  2  0  0  0  0
 27 44  1  0  0  0  0
 28 45  1  0  0  0  0
 28 46  1  0  0  0  0
 28 47  1  0  0  0  0
 29 48  1  0  0  0  0
 29 49  1  0  0  0  0
 29 50  1  0  0  0  0
 30 33  2  0  0  0  0
 32 33  1  0  0  0  0
 32 52  1  0  0  0  0
 33 53  1  0  0  0  0
M  END
> <PUBCHEM_COMPOUND_CID>
6164

> <PUBCHEM_COMPOUND_CANONICALIZED>
1

> <PUBCHEM_CACTVS_COMPLEXITY>
971

> <PUBCHEM_CACTVS_HBOND_ACCEPTOR>
10

> <PUBCHEM_CACTVS_HBOND_DONOR>
7

> <PUBCHEM_CACTVS_ROTATABLE_BOND>
1

> <PUBCHEM_CACTVS_SUBSKEYS>
AAADceB7PAAEAAAAAAAAAAAAAAAAAAAAAAAwYMEAAAAAAADBAAAAHgAQCAAADWzBmAQyBoNAAgCIAqBSQAICAAAgIAAIiAHOCMkIJzKKkTKEcAAnwBEImUfe+veugAABAAAYAADAAAaEADQAAAAAAAAAAA==

> <PUBCHEM_IUPAC_OPENEYE_NAME>
(6S,12aS)-2-[amino(hydroxy)methylene]-4-(dimethylamino)-6,10,11,12a-tetrahydroxy-6-methyl-4,4a,5,5a-tetrahydrotetracene-1,3,12-trione hydrochloride

> <PUBCHEM_IUPAC_CAS_NAME>
(6S,12aS)-2-[amino(hydroxy)methylidene]-4-(dimethylamino)-6,10,11,12a-tetrahydroxy-6-methyl-4,4a,5,5a-tetrahydrotetracene-1,3,12-trione hydrochloride

> <PUBCHEM_IUPAC_NAME>
(6S,12aS)-2-[amino(hydroxy)methylidene]-4-(dimethylamino)-6,10,11,12a-tetrahydroxy-6-methyl-4,4a,5,5a-tetrahydrotetracene-1,3,12-trione hydrochloride

> <PUBCHEM_IUPAC_SYSTEMATIC_NAME>
(6S,12aS)-2-[azanyl(oxidanyl)methylidene]-4-(dimethylamino)-6-methyl-6,10,11,12a-tetrakis(oxidanyl)-4,4a,5,5a-tetrahydrotetracene-1,3,12-trione hydrochloride

> <PUBCHEM_IUPAC_TRADITIONAL_NAME>
(6S,12aS)-2-[amino(hydroxy)methylene]-4-(dimethylamino)-6,10,11,12a-tetrahydroxy-6-methyl-4,4a,5,5a-tetrahydrotetracene-1,3,12-trione hydrochloride

> <PUBCHEM_IUPAC_INCHI>
InChI=1S/C22H24N2O8.ClH/c1-21(31)8-5-4-6-11(25)12(8)16(26)13-9(21)7-10-15(24(2)3)17(27)14(20(23)30)19(29)22(10,32)18(13)28;/h4-6,9-10,15,25-26,30-32H,7,23H2,1-3H3;1H/t9?,10?,15?,21-,22+;/m1./s1

> <PUBCHEM_IUPAC_INCHIKEY>
DYQBMRZOOXYHIM-PNYJHNNPSA-N

> <PUBCHEM_XLOGP3_AA>
0.752

> <PUBCHEM_EXACT_MASS>
480.129943

> <PUBCHEM_MOLECULAR_FORMULA>
C22H25ClN2O8

> <PUBCHEM_MOLECULAR_WEIGHT>
480.8955

> <PUBCHEM_OPENEYE_CAN_SMILES>
CC1(C2CC3C(C(=O)C(=C(N)O)C(=O)C3(C(=O)C2=C(C4=C1C=CC=C4O)O)O)N(C)C)O.Cl

> <PUBCHEM_OPENEYE_ISO_SMILES>
C[C@@]1(C2CC3C(C(=O)C(=C(N)O)C(=O)[C@]3(C(=O)C2=C(C4=C1C=CC=C4O)O)O)N(C)C)O.Cl

> <PUBCHEM_CACTVS_TPSA>
182

> <PUBCHEM_MONOISOTOPIC_WEIGHT>
480.129943

> <PUBCHEM_TOTAL_CHARGE>
0

> <PUBCHEM_HEAVY_ATOM_COUNT>
33

> <PUBCHEM_ATOM_DEF_STEREO_COUNT>
2

> <PUBCHEM_ATOM_UDEF_STEREO_COUNT>
3

> <PUBCHEM_BOND_DEF_STEREO_COUNT>
0

> <PUBCHEM_BOND_UDEF_STEREO_COUNT>
1

> <PUBCHEM_ISOTOPIC_ATOM_COUNT>
0

> <PUBCHEM_COMPONENT_COUNT>
2

> <PUBCHEM_CACTVS_TAUTO_COUNT>
168

> <PUBCHEM_COORDINATE_TYPE>
1
5
255

> <PUBCHEM_BONDANNOTATIONS>
16  10  3
12  34  3
13  35  3
17  25  3
15  2  3
21  24  8
21  27  8
24  30  8
26  31  1
27  32  8
17  3  3
30  33  8
32  33  8

$$$$

