   Chemical and Physical Properties References

   [1]USDA ARS - USDA chemical properties
   from [2]ChemIDplus

   Color/Form

     * Reddish brown solid
     * Colorless to reddish-brown solid.

   from [3]HSDB

   Odor
        Mild, ester odor.
   from [4]HSDB

   Boiling Point
        125 DEG C @ 760 MM HG
   from [5]HSDB

   Melting Point
        54-55 DEG C
   from [6]HSDB

   Corrosivity

     * Non-corrosive to aluminum.
     * CORROSIVE TO BLACK IRON, DRUM STEEL, STAINLESS STEEL 304 & BRASS.

   from [7]HSDB

   Density/Specific Gravity
        1.22 kg/l at 20 deg C
   from [8]HSDB

   Octanol/Water Partition Coefficient
        log Kow = -0.20
   from [9]HSDB

   Solubilities

     * MISCIBLE WITH WATER; SOL IN ACETONE, ETHANOL; PRACTICALLY INSOL IN
       DIESEL OILS, KEROSINE.
     * Solubility (20 deg C) 1 kg/kg water; 700 g/kg acetone; 800 g/kg
       dichloromethane; 1 kg/kg methanol; 250 g/kg octan-1-ol; 60 g/kg
       toluene.
     * Sparingly sol in xylene.
     * In water 100% at 20 deg C; in methanol 100%, acetone 70%, n-octanol
       25%, toluene 6% (all at 20 deg C). Sparingly soluble in kerosene
       and diesel oil.

   from [10]HSDB

   Spectral Properties

     * Index of refraction 1.4738 @ 25 deg C/D
     * Intense mass spectral peaks: 127 m/z (100%), 67 m/z (66%), 58 m/z
       (36%), 97 m/z (34%)

   from [11]HSDB

   Vapor Pressure
        2.9X10-4 Pa at 20 deg C
   from [12]HSDB

   Other Chemical/Physical Properties

     * SOL IN WATER, ETHANOL, PETROLEUM ETHER, ACETONE /TECHNICAL GRADE/
     * Rapidly hydrolyzed under alkaline conditions.
     * technical grade contains < or = 74% monocrotophos.
     * ... Decomposes on some inert materials.

   from [13]HSDB

   Computed Properties
   Molecular Weight                  223.163522 [g/mol]
   Molecular Formula                 C[7]H[14]NO[5]P
   XLogP3                            -0.2
   H-Bond Donor                      1
   H-Bond Acceptor                   5
   Rotatable Bond Count              5
   Tautomer Count                    2
   Exact Mass                        223.060959
   MonoIsotopic Mass                 223.060959
   Topological Polar Surface Area    73.9
   Heavy Atom Count                  14
   Formal Charge                     0
   Complexity                        267
   Isotope Atom Count                0
   Defined Atom Stereocenter Count   0
   Undefined Atom Stereocenter Count 0
   Defined Bond Stereocenter Count   1
   Undefined Bond Stereocenter Count 0
   Covalently-Bonded Unit Count      1
   Feature 3D Acceptor Count         2
   Feature 3D Donor Count            1
   Effective Rotor Count             6
   Conformer Sampling RMSD           0.6
   CID Conformer Count               [14]151

References

   1. http://www.ars.usda.gov/SP2UserFiles/ad_hoc/12755100DatabaseFiles/PesticidePropertiesDatabase/IndividualPesticideFiles/MONOCROTOPHOS.TXT
   2. http://chem.sis.nlm.nih.gov/chemidplus/
   3. http://toxnet.nlm.nih.gov/cgi-bin/sis/search/r?dbs+hsdb:@term+@rn+@rel+6923-22-4
   4. http://toxnet.nlm.nih.gov/cgi-bin/sis/search/r?dbs+hsdb:@term+@rn+@rel+6923-22-4
   5. http://toxnet.nlm.nih.gov/cgi-bin/sis/search/r?dbs+hsdb:@term+@rn+@rel+6923-22-4
   6. http://toxnet.nlm.nih.gov/cgi-bin/sis/search/r?dbs+hsdb:@term+@rn+@rel+6923-22-4
   7. http://toxnet.nlm.nih.gov/cgi-bin/sis/search/r?dbs+hsdb:@term+@rn+@rel+6923-22-4
   8. http://toxnet.nlm.nih.gov/cgi-bin/sis/search/r?dbs+hsdb:@term+@rn+@rel+6923-22-4
   9. http://toxnet.nlm.nih.gov/cgi-bin/sis/search/r?dbs+hsdb:@term+@rn+@rel+6923-22-4
  10. http://toxnet.nlm.nih.gov/cgi-bin/sis/search/r?dbs+hsdb:@term+@rn+@rel+6923-22-4
  11. http://toxnet.nlm.nih.gov/cgi-bin/sis/search/r?dbs+hsdb:@term+@rn+@rel+6923-22-4
  12. http://toxnet.nlm.nih.gov/cgi-bin/sis/search/r?dbs+hsdb:@term+@rn+@rel+6923-22-4
  13. http://toxnet.nlm.nih.gov/cgi-bin/sis/search/r?dbs+hsdb:@term+@rn+@rel+6923-22-4
  14. http://pubchem.ncbi.nlm.nih.gov/vw3d/vw3d.cgi?cid=5371562
