13235
  -OEChem-06261207552D

 29 31  0     0  0  0  0  0  0999 V2000
    4.5390    1.6201    0.0000 O   0  0  0  0  0  0  0  0  0  0  0  0
    2.8070    1.6201    0.0000 O   0  0  0  0  0  0  0  0  0  0  0  0
    3.6730    0.1201    0.0000 C   0  0  0  0  0  0  0  0  0  0  0  0
    2.8368   -1.3282    0.0000 C   0  0  0  0  0  0  0  0  0  0  0  0
    2.9819   -1.7633    0.0000 C   0  0  0  0  0  0  0  0  0  0  0  0
    4.5092   -1.3282    0.0000 C   0  0  0  0  0  0  0  0  0  0  0  0
    4.5092   -0.3627    0.0000 C   0  0  0  0  0  0  0  0  0  0  0  0
    2.9819   -0.7180    0.0000 C   0  0  0  0  0  0  0  0  0  0  0  0
    2.8368   -0.3627    0.0000 C   0  0  0  0  0  0  0  0  0  0  0  0
    2.0000   -1.8110    0.0000 C   0  0  0  0  0  0  0  0  0  0  0  0
    3.6730   -1.6310    0.0000 C   0  0  0  0  0  0  0  0  0  0  0  0
    3.8876   -2.2401    0.0000 C   0  0  0  0  0  0  0  0  0  0  0  0
    3.6730    1.1201    0.0000 C   0  0  0  0  0  0  0  0  0  0  0  0
    5.1016   -1.5109    0.0000 H   0  0  0  0  0  0  0  0  0  0  0  0
    2.8478   -2.3686    0.0000 H   0  0  0  0  0  0  0  0  0  0  0  0
    2.8912   -1.9458    0.0000 H   0  0  0  0  0  0  0  0  0  0  0  0
    5.1198   -0.4703    0.0000 H   0  0  0  0  0  0  0  0  0  0  0  0
    4.7212    0.2199    0.0000 H   0  0  0  0  0  0  0  0  0  0  0  0
    2.6383   -0.2020    0.0000 H   0  0  0  0  0  0  0  0  0  0  0  0
    2.3885   -0.8975    0.0000 H   0  0  0  0  0  0  0  0  0  0  0  0
    2.6247    0.2199    0.0000 H   0  0  0  0  0  0  0  0  0  0  0  0
    2.2262   -0.4703    0.0000 H   0  0  0  0  0  0  0  0  0  0  0  0
    1.5188   -1.4201    0.0000 H   0  0  0  0  0  0  0  0  0  0  0  0
    1.8068   -2.4001    0.0000 H   0  0  0  0  0  0  0  0  0  0  0  0
    3.3030   -2.1285    0.0000 H   0  0  0  0  0  0  0  0  0  0  0  0
    4.0430   -2.1285    0.0000 H   0  0  0  0  0  0  0  0  0  0  0  0
    3.5782   -2.7774    0.0000 H   0  0  0  0  0  0  0  0  0  0  0  0
    4.4127   -2.5697    0.0000 H   0  0  0  0  0  0  0  0  0  0  0  0
    4.5390    2.2401    0.0000 H   0  0  0  0  0  0  0  0  0  0  0  0
  1 13  1  0  0  0  0
  1 29  1  0  0  0  0
  2 13  2  0  0  0  0
  3  7  1  0  0  0  0
  3  8  1  0  0  0  0
  3  9  1  0  0  0  0
  3 13  1  0  0  0  0
  4  9  1  0  0  0  0
  4 10  1  0  0  0  0
  4 11  1  0  0  0  0
  4 16  1  0  0  0  0
  5  8  1  0  0  0  0
  5 10  1  0  0  0  0
  5 12  1  0  0  0  0
  5 15  1  0  0  0  0
  6  7  1  0  0  0  0
  6 11  1  0  0  0  0
  6 12  1  0  0  0  0
  6 14  1  0  0  0  0
  7 17  1  0  0  0  0
  7 18  1  0  0  0  0
  8 19  1  0  0  0  0
  8 20  1  0  0  0  0
  9 21  1  0  0  0  0
  9 22  1  0  0  0  0
 10 23  1  0  0  0  0
 10 24  1  0  0  0  0
 11 25  1  0  0  0  0
 11 26  1  0  0  0  0
 12 27  1  0  0  0  0
 12 28  1  0  0  0  0
M  END
> <PUBCHEM_COMPOUND_CID>
13235

> <PUBCHEM_COMPOUND_CANONICALIZED>
1

> <PUBCHEM_CACTVS_COMPLEXITY>
216

> <PUBCHEM_CACTVS_HBOND_ACCEPTOR>
2

> <PUBCHEM_CACTVS_HBOND_DONOR>
1

> <PUBCHEM_CACTVS_ROTATABLE_BOND>
1

> <PUBCHEM_CACTVS_SUBSKEYS>
AAADceBwMAAAAAAAAAAAAAAAAAAAAAAAAAAwYMGAAAAAAAAAAAAAGgAACAAADwCAgAAACAAAAgAIAACQCAAAAAAAAAAAAAEAAAAAABIAAAAAQAAEAAAAAAGIyOCPAAAAAAAAAAAAAAQAAAAAAAAAAAAAAA==

> <PUBCHEM_IUPAC_OPENEYE_NAME>
adamantane-1-carboxylic acid

> <PUBCHEM_IUPAC_CAS_NAME>
1-adamantanecarboxylic acid

> <PUBCHEM_IUPAC_NAME>
adamantane-1-carboxylic acid

> <PUBCHEM_IUPAC_SYSTEMATIC_NAME>
adamantane-1-carboxylic acid

> <PUBCHEM_IUPAC_TRADITIONAL_NAME>
adamantane-1-carboxylic acid

> <PUBCHEM_IUPAC_INCHI>
InChI=1S/C11H16O2/c12-10(13)11-4-7-1-8(5-11)3-9(2-7)6-11/h7-9H,1-6H2,(H,12,13)

> <PUBCHEM_IUPAC_INCHIKEY>
JIMXXGFJRDUSRO-UHFFFAOYSA-N

> <PUBCHEM_XLOGP3>
2.6

> <PUBCHEM_EXACT_MASS>
180.11503

> <PUBCHEM_MOLECULAR_FORMULA>
C11H16O2

> <PUBCHEM_MOLECULAR_WEIGHT>
180.24354

> <PUBCHEM_OPENEYE_CAN_SMILES>
C1C2CC3CC1CC(C2)(C3)C(=O)O

> <PUBCHEM_OPENEYE_ISO_SMILES>
C1C2CC3CC1CC(C2)(C3)C(=O)O

> <PUBCHEM_CACTVS_TPSA>
37.3

> <PUBCHEM_MONOISOTOPIC_WEIGHT>
180.11503

> <PUBCHEM_TOTAL_CHARGE>
0

> <PUBCHEM_HEAVY_ATOM_COUNT>
13

> <PUBCHEM_ATOM_DEF_STEREO_COUNT>
0

> <PUBCHEM_ATOM_UDEF_STEREO_COUNT>
0

> <PUBCHEM_BOND_DEF_STEREO_COUNT>
0

> <PUBCHEM_BOND_UDEF_STEREO_COUNT>
0

> <PUBCHEM_ISOTOPIC_ATOM_COUNT>
0

> <PUBCHEM_COMPONENT_COUNT>
1

> <PUBCHEM_CACTVS_TAUTO_COUNT>
1

> <PUBCHEM_COORDINATE_TYPE>
1
5
255

$$$$

