18689
  -OEChem-07051213052D

 50 49  0     0  0  0  0  0  0999 V2000
    8.0622   -1.2990    0.0000 O   0  0  0  0  0  0  0  0  0  0  0  0
    4.5981   -1.2990    0.0000 O   0  0  0  0  0  0  0  0  0  0  0  0
    6.3301    0.4330    0.0000 O   0  0  0  0  0  0  0  0  0  0  0  0
    8.9282    0.2010    0.0000 O   0  0  0  0  0  0  0  0  0  0  0  0
    3.7320   -2.7990    0.0000 O   0  0  0  0  0  0  0  0  0  0  0  0
    4.8301    1.2990    0.0000 O   0  0  0  0  0  0  0  0  0  0  0  0
    6.3301   -1.2990    0.0000 C   0  0  0  0  0  0  0  0  0  0  0  0
    6.8301   -2.1651    0.0000 C   0  0  0  0  0  0  0  0  0  0  0  0
    7.1962   -0.7990    0.0000 C   0  0  0  0  0  0  0  0  0  0  0  0
    5.4641   -1.7990    0.0000 C   0  0  0  0  0  0  0  0  0  0  0  0
    5.8301   -0.4330    0.0000 C   0  0  0  0  0  0  0  0  0  0  0  0
    6.3301   -3.0311    0.0000 C   0  0  0  0  0  0  0  0  0  0  0  0
    8.9282   -0.7990    0.0000 C   0  0  0  0  0  0  0  0  0  0  0  0
    3.7320   -1.7990    0.0000 C   0  0  0  0  0  0  0  0  0  0  0  0
    5.8301    1.2990    0.0000 C   0  0  0  0  0  0  0  0  0  0  0  0
    9.7942   -1.2990    0.0000 C   0  0  0  0  0  0  0  0  0  0  0  0
    2.8660   -1.2990    0.0000 C   0  0  0  0  0  0  0  0  0  0  0  0
    6.3301    2.1651    0.0000 C   0  0  0  0  0  0  0  0  0  0  0  0
   10.6603   -0.7990    0.0000 C   0  0  0  0  0  0  0  0  0  0  0  0
    2.0000   -1.7990    0.0000 C   0  0  0  0  0  0  0  0  0  0  0  0
    5.8301    3.0311    0.0000 C   0  0  0  0  0  0  0  0  0  0  0  0
    9.7942   -2.2990    0.0000 C   0  0  0  0  0  0  0  0  0  0  0  0
    2.8660   -0.2990    0.0000 C   0  0  0  0  0  0  0  0  0  0  0  0
    7.3301    2.1651    0.0000 C   0  0  0  0  0  0  0  0  0  0  0  0
    7.3051   -2.5636    0.0000 H   0  0  0  0  0  0  0  0  0  0  0  0
    7.3051   -1.7665    0.0000 H   0  0  0  0  0  0  0  0  0  0  0  0
    7.5947   -0.3241    0.0000 H   0  0  0  0  0  0  0  0  0  0  0  0
    6.7976   -0.3241    0.0000 H   0  0  0  0  0  0  0  0  0  0  0  0
    5.3552   -0.0345    0.0000 H   0  0  0  0  0  0  0  0  0  0  0  0
    5.3552   -0.8315    0.0000 H   0  0  0  0  0  0  0  0  0  0  0  0
    5.0656   -2.2740    0.0000 H   0  0  0  0  0  0  0  0  0  0  0  0
    5.8626   -2.2740    0.0000 H   0  0  0  0  0  0  0  0  0  0  0  0
    5.7932   -2.7211    0.0000 H   0  0  0  0  0  0  0  0  0  0  0  0
    6.0201   -3.5680    0.0000 H   0  0  0  0  0  0  0  0  0  0  0  0
    6.8671   -3.3411    0.0000 H   0  0  0  0  0  0  0  0  0  0  0  0
   10.9703   -1.3360    0.0000 H   0  0  0  0  0  0  0  0  0  0  0  0
   11.1972   -0.4890    0.0000 H   0  0  0  0  0  0  0  0  0  0  0  0
   10.3503   -0.2621    0.0000 H   0  0  0  0  0  0  0  0  0  0  0  0
    1.6900   -1.2621    0.0000 H   0  0  0  0  0  0  0  0  0  0  0  0
    1.4631   -2.1090    0.0000 H   0  0  0  0  0  0  0  0  0  0  0  0
    2.3100   -2.3360    0.0000 H   0  0  0  0  0  0  0  0  0  0  0  0
    6.3671    3.3411    0.0000 H   0  0  0  0  0  0  0  0  0  0  0  0
    5.5201    3.5680    0.0000 H   0  0  0  0  0  0  0  0  0  0  0  0
    5.2932    2.7211    0.0000 H   0  0  0  0  0  0  0  0  0  0  0  0
    9.2573   -2.6090    0.0000 H   0  0  0  0  0  0  0  0  0  0  0  0
   10.3312   -2.6090    0.0000 H   0  0  0  0  0  0  0  0  0  0  0  0
    3.4030    0.0110    0.0000 H   0  0  0  0  0  0  0  0  0  0  0  0
    2.3291    0.0110    0.0000 H   0  0  0  0  0  0  0  0  0  0  0  0
    7.6401    1.6281    0.0000 H   0  0  0  0  0  0  0  0  0  0  0  0
    7.6401    2.7020    0.0000 H   0  0  0  0  0  0  0  0  0  0  0  0
  1  9  1  0  0  0  0
  1 13  1  0  0  0  0
  2 10  1  0  0  0  0
  2 14  1  0  0  0  0
  3 11  1  0  0  0  0
  3 15  1  0  0  0  0
  4 13  2  0  0  0  0
  5 14  2  0  0  0  0
  6 15  2  0  0  0  0
  7  8  1  0  0  0  0
  7  9  1  0  0  0  0
  7 10  1  0  0  0  0
  7 11  1  0  0  0  0
  8 12  1  0  0  0  0
  8 25  1  0  0  0  0
  8 26  1  0  0  0  0
  9 27  1  0  0  0  0
  9 28  1  0  0  0  0
 10 31  1  0  0  0  0
 10 32  1  0  0  0  0
 11 29  1  0  0  0  0
 11 30  1  0  0  0  0
 12 33  1  0  0  0  0
 12 34  1  0  0  0  0
 12 35  1  0  0  0  0
 13 16  1  0  0  0  0
 14 17  1  0  0  0  0
 15 18  1  0  0  0  0
 16 19  1  0  0  0  0
 16 22  2  0  0  0  0
 17 20  1  0  0  0  0
 17 23  2  0  0  0  0
 18 21  1  0  0  0  0
 18 24  2  0  0  0  0
 19 36  1  0  0  0  0
 19 37  1  0  0  0  0
 19 38  1  0  0  0  0
 20 39  1  0  0  0  0
 20 40  1  0  0  0  0
 20 41  1  0  0  0  0
 21 42  1  0  0  0  0
 21 43  1  0  0  0  0
 21 44  1  0  0  0  0
 22 45  1  0  0  0  0
 22 46  1  0  0  0  0
 23 47  1  0  0  0  0
 23 48  1  0  0  0  0
 24 49  1  0  0  0  0
 24 50  1  0  0  0  0
M  END
> <PUBCHEM_COMPOUND_CID>
18689

> <PUBCHEM_COMPOUND_CANONICALIZED>
1

> <PUBCHEM_CACTVS_COMPLEXITY>
470

> <PUBCHEM_CACTVS_HBOND_ACCEPTOR>
6

> <PUBCHEM_CACTVS_HBOND_DONOR>
0

> <PUBCHEM_CACTVS_ROTATABLE_BOND>
13

> <PUBCHEM_CACTVS_SUBSKEYS>
AAADceB4OAAAAAAAAAAAAAAAAAAAAAAAAAAAAAAAAAAAAAAAAAAAGgAAAAAADgCggAICCAAABACIAgDSCAAAAAAAAAAAAAEAAEAABAAAIQACAAAFAAAAIIAAAAAJAAAAAAAAAAAAAAAAAAAAAAAAAAAAAA==

> <PUBCHEM_IUPAC_OPENEYE_NAME>
2,2-bis(2-methylprop-2-enoyloxymethyl)butyl 2-methylprop-2-enoate

> <PUBCHEM_IUPAC_CAS_NAME>
2-methyl-2-propenoic acid 2,2-bis[(2-methyl-1-oxoprop-2-enoxy)methyl]butyl ester

> <PUBCHEM_IUPAC_NAME>
2,2-bis(2-methylprop-2-enoyloxymethyl)butyl 2-methylprop-2-enoate

> <PUBCHEM_IUPAC_SYSTEMATIC_NAME>
2,2-bis(2-methylprop-2-enoyloxymethyl)butyl 2-methylprop-2-enoate

> <PUBCHEM_IUPAC_TRADITIONAL_NAME>
2-methylacrylic acid 2,2-bis(methacryloyloxymethyl)butyl ester

> <PUBCHEM_IUPAC_INCHI>
InChI=1S/C18H26O6/c1-8-18(9-22-15(19)12(2)3,10-23-16(20)13(4)5)11-24-17(21)14(6)7/h2,4,6,8-11H2,1,3,5,7H3

> <PUBCHEM_IUPAC_INCHIKEY>
OKKRPWIIYQTPQF-UHFFFAOYSA-N

> <PUBCHEM_XLOGP3_AA>
3.8

> <PUBCHEM_EXACT_MASS>
338.172939

> <PUBCHEM_MOLECULAR_FORMULA>
C18H26O6

> <PUBCHEM_MOLECULAR_WEIGHT>
338.39544

> <PUBCHEM_OPENEYE_CAN_SMILES>
CCC(COC(=O)C(=C)C)(COC(=O)C(=C)C)COC(=O)C(=C)C

> <PUBCHEM_OPENEYE_ISO_SMILES>
CCC(COC(=O)C(=C)C)(COC(=O)C(=C)C)COC(=O)C(=C)C

> <PUBCHEM_CACTVS_TPSA>
78.9

> <PUBCHEM_MONOISOTOPIC_WEIGHT>
338.172939

> <PUBCHEM_TOTAL_CHARGE>
0

> <PUBCHEM_HEAVY_ATOM_COUNT>
24

> <PUBCHEM_ATOM_DEF_STEREO_COUNT>
0

> <PUBCHEM_ATOM_UDEF_STEREO_COUNT>
0

> <PUBCHEM_BOND_DEF_STEREO_COUNT>
0

> <PUBCHEM_BOND_UDEF_STEREO_COUNT>
0

> <PUBCHEM_ISOTOPIC_ATOM_COUNT>
0

> <PUBCHEM_COMPONENT_COUNT>
1

> <PUBCHEM_CACTVS_TAUTO_COUNT>
1

> <PUBCHEM_COORDINATE_TYPE>
1
5
255

$$$$

