   Color/Form
        Colorless to yellow crystals
   from [1]HSDB

   Melting Point
        337 deg C
   from [2]HSDB

   Corrosivity

     * The active ingredient is corrosive to metals.
     * Formulated product contains corrosive inhibitors that allow use
       through spray machinery
     * Concentrated diquat solutions corrode aluminum

   from [3]HSDB

   Density/Specific Gravity
        1.22 to 1.27 @ 20 deg C/20 deg C
   from [4]HSDB

   Octanol/Water Partition Coefficient
        log Kow = -4.60
   from [5]HSDB

   Solubilities

     * Slightly soluble in alcohols, hydroxylic solvents. Practically
       insoluble in nonpolar organic solvents.
     * In water, 708,000 mg/l @ 20 deg C

   from [6]HSDB

   Spectral Properties
        Spectrophotometric extinction in acetate buffer is 310 nm.
   from [7]HSDB

   Vapor Density

   from [8]HSDB

   Vapor Pressure
        <<1X10-7 mm Hg @ 25 deg C
   from [9]HSDB

   Other Chemical/Physical Properties

     * MP: below 320 deg C, decomp, also reported as mp 335-340 deg C; Sol
       in water @ 20 deg C: 70%; Insol in organic solvents; slightly
       soluble in alcohol; Max absorption: 308.31 nm (E= 18,000); Stable
       in acid or neutral soln /Monohydrate/
     * SALT DECOMP @ HIGH TEMP, CHARRING RATHER THAN MELTING OR BOILING
     * Elemental Analysis: C 41.89%; H 3.52%; Br 46.45%; N 8.14%
     * Yellow crystalline solid /Pure salt monohydrate/

   from [10]HSDB

   Computed Properties
   Molecular Weight                  184.23708 [g/mol]
   Molecular Formula                 C[12]H[12]N[2]^+2
   XLogP3-AA                         1.4
   H-Bond Donor                      0
   H-Bond Acceptor                   0
   Rotatable Bond Count              0
   Exact Mass                        184.100048
   MonoIsotopic Mass                 184.100048
   Topological Polar Surface Area    7.8
   Heavy Atom Count                  14
   Formal Charge                     2
   Complexity                        183
   Isotope Atom Count                0
   Defined Atom Stereocenter Count   0
   Undefined Atom Stereocenter Count 0
   Defined Bond Stereocenter Count   0
   Undefined Bond Stereocenter Count 0
   Covalently-Bonded Unit Count      1
   Feature 3D Ring Count             3
   Effective Rotor Count             0.4
   Conformer Sampling RMSD           0.4
   CID Conformer Count               [11]2

References

   1. http://toxnet.nlm.nih.gov/cgi-bin/sis/search/r?dbs+hsdb:@term+@rn+@rel+85-00-7
   2. http://toxnet.nlm.nih.gov/cgi-bin/sis/search/r?dbs+hsdb:@term+@rn+@rel+85-00-7
   3. http://toxnet.nlm.nih.gov/cgi-bin/sis/search/r?dbs+hsdb:@term+@rn+@rel+85-00-7
   4. http://toxnet.nlm.nih.gov/cgi-bin/sis/search/r?dbs+hsdb:@term+@rn+@rel+85-00-7
   5. http://toxnet.nlm.nih.gov/cgi-bin/sis/search/r?dbs+hsdb:@term+@rn+@rel+85-00-7
   6. http://toxnet.nlm.nih.gov/cgi-bin/sis/search/r?dbs+hsdb:@term+@rn+@rel+85-00-7
   7. http://toxnet.nlm.nih.gov/cgi-bin/sis/search/r?dbs+hsdb:@term+@rn+@rel+85-00-7
   8. http://toxnet.nlm.nih.gov/cgi-bin/sis/search/r?dbs+hsdb:@term+@rn+@rel+85-00-7
   9. http://toxnet.nlm.nih.gov/cgi-bin/sis/search/r?dbs+hsdb:@term+@rn+@rel+85-00-7
  10. http://toxnet.nlm.nih.gov/cgi-bin/sis/search/r?dbs+hsdb:@term+@rn+@rel+85-00-7
  11. http://pubchem.ncbi.nlm.nih.gov/vw3d/vw3d.cgi?cid=6795
