   Color/Form

     * White powder
     * Solid

   from [1]HSDB

   Boiling Point
        320 deg C
   from [2]HSDB

   Melting Point
        153 deg C
   from [3]HSDB

   Density/Specific Gravity
        1.34 at 20 deg C
   from [4]HSDB

   Dissociation Constants
        pKa = 7.10 /Estimated/
   from [5]HSDB

   Octanol/Water Partition Coefficient
        log Kow = 3.51
   from [6]HSDB

   pH
        pH = 5-7
   from [7]HSDB

   Solubilities
        In water, 20 mg/L at 20 deg C
   from [8]HSDB

   Vapor Pressure
        3X10-9 mm Hg at 20 deg C /Extrapolated/
   from [9]HSDB

   Other Chemical/Physical Properties

     * Henry's Law constant = 4.9X10-11 atm-cu m/mol at pH 7, 20 deg C
       (calculated)
     * Hydroxy radical reaction rate constant: 17X10-12 cu cm/molecule-sec
       @ 25 deg C /Estimated/

   from [10]HSDB

   Computed Properties
   Molecular Weight                  302.19628 [g/mol]
   Molecular Formula                 C[14]H[17]Cl[2]NO[2]
   XLogP3-AA                         4.4
   H-Bond Donor                      2
   H-Bond Acceptor                   2
   Rotatable Bond Count              2
   Tautomer Count                    6
   Exact Mass                        301.063634
   MonoIsotopic Mass                 301.063634
   Topological Polar Surface Area    49.3
   Heavy Atom Count                  19
   Formal Charge                     0
   Complexity                        331
   Isotope Atom Count                0
   Defined Atom Stereocenter Count   0
   Undefined Atom Stereocenter Count 0
   Defined Bond Stereocenter Count   0
   Undefined Bond Stereocenter Count 0
   Covalently-Bonded Unit Count      1
   Feature 3D Acceptor Count         1
   Feature 3D Donor Count            2
   Feature 3D Ring Count             2
   Effective Rotor Count             4.2
   Conformer Sampling RMSD           0.6
   CID Conformer Count               [11]19

References

   1. http://toxnet.nlm.nih.gov/cgi-bin/sis/search/r?dbs+hsdb:@term+@rn+@rel+126833-17-8
   2. http://toxnet.nlm.nih.gov/cgi-bin/sis/search/r?dbs+hsdb:@term+@rn+@rel+126833-17-8
   3. http://toxnet.nlm.nih.gov/cgi-bin/sis/search/r?dbs+hsdb:@term+@rn+@rel+126833-17-8
   4. http://toxnet.nlm.nih.gov/cgi-bin/sis/search/r?dbs+hsdb:@term+@rn+@rel+126833-17-8
   5. http://toxnet.nlm.nih.gov/cgi-bin/sis/search/r?dbs+hsdb:@term+@rn+@rel+126833-17-8
   6. http://toxnet.nlm.nih.gov/cgi-bin/sis/search/r?dbs+hsdb:@term+@rn+@rel+126833-17-8
   7. http://toxnet.nlm.nih.gov/cgi-bin/sis/search/r?dbs+hsdb:@term+@rn+@rel+126833-17-8
   8. http://toxnet.nlm.nih.gov/cgi-bin/sis/search/r?dbs+hsdb:@term+@rn+@rel+126833-17-8
   9. http://toxnet.nlm.nih.gov/cgi-bin/sis/search/r?dbs+hsdb:@term+@rn+@rel+126833-17-8
  10. http://toxnet.nlm.nih.gov/cgi-bin/sis/search/r?dbs+hsdb:@term+@rn+@rel+126833-17-8
  11. http://pubchem.ncbi.nlm.nih.gov/vw3d/vw3d.cgi?cid=213031
