4009
  -OEChem-06251223492D

 66 68  0     1  0  0  0  0  0999 V2000
    5.4432   -2.9420    0.0000 O   0  0  0  0  0  0  0  0  0  0  0  0
    7.1752   -2.9420    0.0000 O   0  0  0  0  0  0  0  0  0  0  0  0
    2.1284   -3.2784    0.0000 O   0  0  0  0  0  0  0  0  0  0  0  0
    2.5896   -1.5571    0.0000 O   0  0  0  0  0  0  0  0  0  0  0  0
    2.2217   -5.0580    0.0000 O   0  0  0  0  0  0  0  0  0  0  0  0
   10.6393    3.0580    0.0000 C   0  0  0  0  0  0  0  0  0  0  0  0
   11.5053    3.5580    0.0000 C   0  0  0  0  0  0  0  0  0  0  0  0
    9.7733    3.5580    0.0000 C   0  0  0  0  0  0  0  0  0  0  0  0
   11.5053    4.5580    0.0000 C   0  0  0  0  0  0  0  0  0  0  0  0
    9.7733    4.5580    0.0000 C   0  0  0  0  0  0  0  0  0  0  0  0
   10.6393    5.0580    0.0000 C   0  0  0  0  0  0  0  0  0  0  0  0
    8.9073    3.0580    0.0000 C   0  0  0  0  0  0  0  0  0  0  0  0
   11.1393    2.1920    0.0000 C   0  0  0  0  0  0  0  0  0  0  0  0
   10.1393    2.1920    0.0000 C   0  0  0  0  0  0  0  0  0  0  0  0
    8.9073    2.0580    0.0000 C   0  0  0  0  0  0  0  0  0  0  0  0
    8.9073    5.0580    0.0000 C   0  0  0  0  0  0  0  0  0  0  0  0
    8.0412    1.5580    0.0000 C   0  0  0  0  0  0  0  0  0  0  0  0
    8.0412    0.5580    0.0000 C   0  0  0  0  0  0  0  0  0  0  0  0
    4.5771   -2.4420    0.0000 C   0  0  3  0  0  0  0  0  0  0  0  0
    7.1752    0.0580    0.0000 C   0  0  0  0  0  0  0  0  0  0  0  0
    7.1752   -0.9420    0.0000 C   0  0  0  0  0  0  0  0  0  0  0  0
    6.3092   -1.4420    0.0000 C   0  0  0  0  0  0  0  0  0  0  0  0
    4.5771   -1.4420    0.0000 C   0  0  0  0  0  0  0  0  0  0  0  0
    7.1752    2.0580    0.0000 C   0  0  0  0  0  0  0  0  0  0  0  0
    6.3092   -2.4420    0.0000 C   0  0  3  0  0  0  0  0  0  0  0  0
    5.4432   -0.9420    0.0000 C   0  0  0  0  0  0  0  0  0  0  0  0
    3.7111   -2.9420    0.0000 C   0  0  0  0  0  0  0  0  0  0  0  0
    2.7976   -2.5353    0.0000 C   0  0  3  0  0  0  0  0  0  0  0  0
    3.6066   -3.9365    0.0000 C   0  0  0  0  0  0  0  0  0  0  0  0
    2.6284   -4.1444    0.0000 C   0  0  0  0  0  0  0  0  0  0  0  0
   11.7174    2.9754    0.0000 H   0  0  0  0  0  0  0  0  0  0  0  0
   12.1159    3.6656    0.0000 H   0  0  0  0  0  0  0  0  0  0  0  0
   12.1159    4.4503    0.0000 H   0  0  0  0  0  0  0  0  0  0  0  0
   11.7174    5.1406    0.0000 H   0  0  0  0  0  0  0  0  0  0  0  0
   11.0378    5.5329    0.0000 H   0  0  0  0  0  0  0  0  0  0  0  0
   10.2408    5.5329    0.0000 H   0  0  0  0  0  0  0  0  0  0  0  0
    8.6952    3.6406    0.0000 H   0  0  0  0  0  0  0  0  0  0  0  0
    8.2967    2.9503    0.0000 H   0  0  0  0  0  0  0  0  0  0  0  0
    9.6024    2.5020    0.0000 H   0  0  0  0  0  0  0  0  0  0  0  0
    9.8293    1.6550    0.0000 H   0  0  0  0  0  0  0  0  0  0  0  0
   10.6763    1.8820    0.0000 H   0  0  0  0  0  0  0  0  0  0  0  0
   10.6024    1.8820    0.0000 H   0  0  0  0  0  0  0  0  0  0  0  0
   11.4493    1.6550    0.0000 H   0  0  0  0  0  0  0  0  0  0  0  0
   11.6763    2.5020    0.0000 H   0  0  0  0  0  0  0  0  0  0  0  0
    9.1193    1.4754    0.0000 H   0  0  0  0  0  0  0  0  0  0  0  0
    9.5178    2.1656    0.0000 H   0  0  0  0  0  0  0  0  0  0  0  0
    9.2173    5.5949    0.0000 H   0  0  0  0  0  0  0  0  0  0  0  0
    8.3703    5.3680    0.0000 H   0  0  0  0  0  0  0  0  0  0  0  0
    8.5973    4.5210    0.0000 H   0  0  0  0  0  0  0  0  0  0  0  0
    3.8410   -2.0170    0.0000 H   0  0  0  0  0  0  0  0  0  0  0  0
    8.5782    0.2480    0.0000 H   0  0  0  0  0  0  0  0  0  0  0  0
    6.9632    0.6406    0.0000 H   0  0  0  0  0  0  0  0  0  0  0  0
    6.5646   -0.0497    0.0000 H   0  0  0  0  0  0  0  0  0  0  0  0
    7.3873   -1.5246    0.0000 H   0  0  0  0  0  0  0  0  0  0  0  0
    7.7858   -0.8343    0.0000 H   0  0  0  0  0  0  0  0  0  0  0  0
    4.3651   -0.8594    0.0000 H   0  0  0  0  0  0  0  0  0  0  0  0
    3.9666   -1.5497    0.0000 H   0  0  0  0  0  0  0  0  0  0  0  0
    6.3092   -3.2920    0.0000 H   0  0  0  0  0  0  0  0  0  0  0  0
    7.4852    2.5949    0.0000 H   0  0  0  0  0  0  0  0  0  0  0  0
    6.6383    2.3680    0.0000 H   0  0  0  0  0  0  0  0  0  0  0  0
    6.8652    1.5210    0.0000 H   0  0  0  0  0  0  0  0  0  0  0  0
    5.4432   -0.3220    0.0000 H   0  0  0  0  0  0  0  0  0  0  0  0
    1.9765   -2.3153    0.0000 H   0  0  0  0  0  0  0  0  0  0  0  0
    4.0673   -4.3514    0.0000 H   0  0  0  0  0  0  0  0  0  0  0  0
    7.1752   -3.5620    0.0000 H   0  0  0  0  0  0  0  0  0  0  0  0
    2.0000   -1.3655    0.0000 H   0  0  0  0  0  0  0  0  0  0  0  0
  1 19  1  0  0  0  0
  1 25  1  0  0  0  0
  2 25  1  0  0  0  0
  2 65  1  0  0  0  0
  3 28  1  0  0  0  0
  3 30  1  0  0  0  0
  4 28  1  0  0  0  0
  4 66  1  0  0  0  0
  5 30  2  0  0  0  0
  6  7  1  0  0  0  0
  6  8  1  0  0  0  0
  6 13  1  0  0  0  0
  6 14  1  0  0  0  0
  7  9  1  0  0  0  0
  7 31  1  0  0  0  0
  7 32  1  0  0  0  0
  8 10  2  0  0  0  0
  8 12  1  0  0  0  0
  9 11  1  0  0  0  0
  9 33  1  0  0  0  0
  9 34  1  0  0  0  0
 10 11  1  0  0  0  0
 10 16  1  0  0  0  0
 11 35  1  0  0  0  0
 11 36  1  0  0  0  0
 12 15  1  0  0  0  0
 12 37  1  0  0  0  0
 12 38  1  0  0  0  0
 13 42  1  0  0  0  0
 13 43  1  0  0  0  0
 13 44  1  0  0  0  0
 14 39  1  0  0  0  0
 14 40  1  0  0  0  0
 14 41  1  0  0  0  0
 15 17  1  0  0  0  0
 15 45  1  0  0  0  0
 15 46  1  0  0  0  0
 16 47  1  0  0  0  0
 16 48  1  0  0  0  0
 16 49  1  0  0  0  0
 17 18  2  3  0  0  0
 17 24  1  0  0  0  0
 18 20  1  0  0  0  0
 18 51  1  0  0  0  0
 19 23  1  0  0  0  0
 19 27  1  0  0  0  0
 19 50  1  0  0  0  0
 20 21  1  0  0  0  0
 20 52  1  0  0  0  0
 20 53  1  0  0  0  0
 21 22  1  0  0  0  0
 21 54  1  0  0  0  0
 21 55  1  0  0  0  0
 22 25  1  0  0  0  0
 22 26  2  0  0  0  0
 23 26  1  0  0  0  0
 23 56  1  0  0  0  0
 23 57  1  0  0  0  0
 24 59  1  0  0  0  0
 24 60  1  0  0  0  0
 24 61  1  0  0  0  0
 25 58  1  0  0  0  0
 26 62  1  0  0  0  0
 27 28  1  0  0  0  0
 27 29  2  0  0  0  0
 28 63  1  0  0  0  0
 29 30  1  0  0  0  0
 29 64  1  0  0  0  0
M  END
> <PUBCHEM_COMPOUND_CID>
4009

> <PUBCHEM_COMPOUND_CANONICALIZED>
1

> <PUBCHEM_CACTVS_COMPLEXITY>
783

> <PUBCHEM_CACTVS_HBOND_ACCEPTOR>
5

> <PUBCHEM_CACTVS_HBOND_DONOR>
2

> <PUBCHEM_CACTVS_ROTATABLE_BOND>
7

> <PUBCHEM_CACTVS_SUBSKEYS>
AAADcfB4OAAAAAAAAAAAAAAAAAAAAQAAAAAgQAAAAAAAAAAAAAAAGgAACAAADhSwgAMCCAAABgCIAiDSCAAAAAAgAAAACAAAAEgQFAIAIQACUAAFwAAMMQOAgMAPAAAAAAAAAAAAAAAAAAAAAAAAAAAAAA==

> <PUBCHEM_IUPAC_OPENEYE_NAME>
2-hydroxy-3-[6-hydroxy-5-[4-methyl-6-(2,6,6-trimethylcyclohexen-1-yl)hex-3-enyl]-3,6-dihydro-2H-pyran-2-yl]-2H-furan-5-one

> <PUBCHEM_IUPAC_CAS_NAME>
2-hydroxy-3-[6-hydroxy-5-[4-methyl-6-(2,6,6-trimethyl-1-cyclohexenyl)hex-3-enyl]-3,6-dihydro-2H-pyran-2-yl]-2H-furan-5-one

> <PUBCHEM_IUPAC_NAME>
2-hydroxy-3-[6-hydroxy-5-[4-methyl-6-(2,6,6-trimethylcyclohexen-1-yl)hex-3-enyl]-3,6-dihydro-2H-pyran-2-yl]-2H-furan-5-one

> <PUBCHEM_IUPAC_SYSTEMATIC_NAME>
3-[5-[4-methyl-6-(2,6,6-trimethylcyclohexen-1-yl)hex-3-enyl]-6-oxidanyl-3,6-dihydro-2H-pyran-2-yl]-2-oxidanyl-2H-furan-5-one

> <PUBCHEM_IUPAC_TRADITIONAL_NAME>
2-hydroxy-3-[6-hydroxy-5-[4-methyl-6-(2,6,6-trimethylcyclohexen-1-yl)hex-3-enyl]-3,6-dihydro-2H-pyran-2-yl]-2H-furan-5-one

> <PUBCHEM_IUPAC_INCHI>
InChI=1S/C25H36O5/c1-16(10-12-20-17(2)8-6-14-25(20,3)4)7-5-9-18-11-13-21(29-23(18)27)19-15-22(26)30-24(19)28/h7,11,15,21,23-24,27-28H,5-6,8-10,12-14H2,1-4H3

> <PUBCHEM_IUPAC_INCHIKEY>
FGJIDQWRRLDGDB-UHFFFAOYSA-N

> <PUBCHEM_XLOGP3_AA>
3.5

> <PUBCHEM_EXACT_MASS>
416.256274

> <PUBCHEM_MOLECULAR_FORMULA>
C25H36O5

> <PUBCHEM_MOLECULAR_WEIGHT>
416.55034

> <PUBCHEM_OPENEYE_CAN_SMILES>
CC1=C(C(CCC1)(C)C)CCC(=CCCC2=CCC(OC2O)C3=CC(=O)OC3O)C

> <PUBCHEM_OPENEYE_ISO_SMILES>
CC1=C(C(CCC1)(C)C)CCC(=CCCC2=CCC(OC2O)C3=CC(=O)OC3O)C

> <PUBCHEM_CACTVS_TPSA>
76

> <PUBCHEM_MONOISOTOPIC_WEIGHT>
416.256274

> <PUBCHEM_TOTAL_CHARGE>
0

> <PUBCHEM_HEAVY_ATOM_COUNT>
30

> <PUBCHEM_ATOM_DEF_STEREO_COUNT>
0

> <PUBCHEM_ATOM_UDEF_STEREO_COUNT>
3

> <PUBCHEM_BOND_DEF_STEREO_COUNT>
0

> <PUBCHEM_BOND_UDEF_STEREO_COUNT>
1

> <PUBCHEM_ISOTOPIC_ATOM_COUNT>
0

> <PUBCHEM_COMPONENT_COUNT>
1

> <PUBCHEM_CACTVS_TAUTO_COUNT>
1

> <PUBCHEM_COORDINATE_TYPE>
1
5
255

> <PUBCHEM_BONDANNOTATIONS>
17  18  1
19  50  3
25  58  3
28  63  3

$$$$

