163527
  -OEChem-07051213082D

104108  0     1  0  0  0  0  0999 V2000
    6.5644   -0.1272    0.0000 S   0  0  0  0  0  0  0  0  0  0  0  0
    7.3063   -2.6179    0.0000 S   0  0  0  0  0  0  0  0  0  0  0  0
    4.0845   -1.6561    0.0000 O   0  0  0  0  0  0  0  0  0  0  0  0
    9.4787    1.0874    0.0000 O   0  0  0  0  0  0  0  0  0  0  0  0
    2.2402    0.9422    0.0000 O   0  0  0  0  0  0  0  0  0  0  0  0
   10.7112   -0.8583    0.0000 O   0  0  0  0  0  0  0  0  0  0  0  0
    4.4697   -1.0652    0.0000 O   0  0  0  0  0  0  0  0  0  0  0  0
    6.2524    3.1564    0.0000 O   0  0  0  0  0  0  0  0  0  0  0  0
    2.4664   -1.6561    0.0000 N   0  0  0  0  0  0  0  0  0  0  0  0
    9.2250    0.4799    0.0000 N   0  0  0  0  0  0  0  0  0  0  0  0
    5.0049   -2.7124    0.0000 N   0  0  0  0  0  0  0  0  0  0  0  0
    7.9466    2.7963    0.0000 N   0  0  0  0  0  0  0  0  0  0  0  0
    3.9344    0.5821    0.0000 N   0  0  0  0  0  0  0  0  0  0  0  0
    9.5523   -2.1455    0.0000 N   0  0  0  0  0  0  0  0  0  0  0  0
    5.8365    1.2002    0.0000 N   0  0  0  0  0  0  0  0  0  0  0  0
    6.9070   -2.0944    0.0000 N   0  0  0  0  0  0  0  0  0  0  0  0
    4.0186   -2.9130    0.0000 C   0  0  1  0  0  0  0  0  0  0  0  0
    8.6897    2.1272    0.0000 C   0  0  1  0  0  0  0  0  0  0  0  0
    3.5093   -3.7736    0.0000 C   0  0  2  0  0  0  0  0  0  0  0  0
    9.2915    2.9258    0.0000 C   0  0  2  0  0  0  0  0  0  0  0  0
    2.7755   -0.7051    0.0000 C   0  0  1  0  0  0  0  0  0  0  0  0
    9.0170   -0.4982    0.0000 C   0  0  1  0  0  0  0  0  0  0  0  0
    3.7755   -0.7051    0.0000 C   0  0  1  0  0  0  0  0  0  0  0  0
    9.7873    0.1376    0.0000 C   0  0  1  0  0  0  0  0  0  0  0  0
    3.2755   -2.2439    0.0000 C   0  0  0  0  0  0  0  0  0  0  0  0
    8.4818    1.1490    0.0000 C   0  0  0  0  0  0  0  0  0  0  0  0
    2.5093   -3.7628    0.0000 C   0  0  0  0  0  0  0  0  0  0  0  0
    8.9008    3.8463    0.0000 C   0  0  0  0  0  0  0  0  0  0  0  0
    4.6776   -0.0870    0.0000 C   0  0  2  0  0  0  0  0  0  0  0  0
    8.6012   -2.4545    0.0000 C   0  0  2  0  0  0  0  0  0  0  0  0
    3.9999   -4.6450    0.0000 C   0  0  0  0  0  0  0  0  0  0  0  0
   10.2841    2.8040    0.0000 C   0  0  0  0  0  0  0  0  0  0  0  0
    2.9834    0.2731    0.0000 C   0  0  0  0  0  0  0  0  0  0  0  0
    9.7602   -1.1674    0.0000 C   0  0  0  0  0  0  0  0  0  0  0  0
    5.2222   -0.9257    0.0000 C   0  0  0  0  0  0  0  0  0  0  0  0
    8.9919   -3.3750    0.0000 C   0  0  0  0  0  0  0  0  0  0  0  0
    4.2796    0.3286    0.0000 C   0  0  0  0  0  0  0  0  0  0  0  0
   10.7474   -0.1420    0.0000 C   0  0  0  0  0  0  0  0  0  0  0  0
    2.0000   -4.6234    0.0000 C   0  0  0  0  0  0  0  0  0  0  0  0
    5.6286    0.2220    0.0000 C   0  0  0  0  0  0  0  0  0  0  0  0
    7.8581   -1.7854    0.0000 C   0  0  0  0  0  0  0  0  0  0  0  0
    9.5026    4.6450    0.0000 C   0  0  0  0  0  0  0  0  0  0  0  0
    5.2128   -1.7343    0.0000 C   0  0  0  0  0  0  0  0  0  0  0  0
    6.9955    2.4873    0.0000 C   0  0  0  0  0  0  0  0  0  0  0  0
    6.1966   -0.7007    0.0000 C   0  0  0  0  0  0  0  0  0  0  0  0
    4.6206   -1.7244    0.0000 C   0  0  0  0  0  0  0  0  0  0  0  0
    9.9845   -3.4969    0.0000 C   0  0  0  0  0  0  0  0  0  0  0  0
    8.3902   -4.1737    0.0000 C   0  0  0  0  0  0  0  0  0  0  0  0
    6.1639   -1.4253    0.0000 C   0  0  0  0  0  0  0  0  0  0  0  0
    6.7876    1.5092    0.0000 C   0  0  0  0  0  0  0  0  0  0  0  0
    7.2327    0.6151    0.0000 C   0  0  0  0  0  0  0  0  0  0  0  0
    6.3293   -2.4102    0.0000 C   0  0  0  0  0  0  0  0  0  0  0  0
    4.4357   -3.6536    0.0000 H   0  0  0  0  0  0  0  0  0  0  0  0
    9.5386    2.1717    0.0000 H   0  0  0  0  0  0  0  0  0  0  0  0
    3.1935   -4.3072    0.0000 H   0  0  0  0  0  0  0  0  0  0  0  0
    9.6646    3.4210    0.0000 H   0  0  0  0  0  0  0  0  0  0  0  0
    1.9544   -0.4851    0.0000 H   0  0  0  0  0  0  0  0  0  0  0  0
    8.2086   -0.7609    0.0000 H   0  0  0  0  0  0  0  0  0  0  0  0
    4.3940   -0.7483    0.0000 H   0  0  0  0  0  0  0  0  0  0  0  0
   10.2189    0.5827    0.0000 H   0  0  0  0  0  0  0  0  0  0  0  0
    2.6236   -3.1534    0.0000 H   0  0  0  0  0  0  0  0  0  0  0  0
    1.9290   -3.5444    0.0000 H   0  0  0  0  0  0  0  0  0  0  0  0
    8.4780    4.2998    0.0000 H   0  0  0  0  0  0  0  0  0  0  0  0
    8.3808    3.5087    0.0000 H   0  0  0  0  0  0  0  0  0  0  0  0
    4.1069   -0.3293    0.0000 H   0  0  0  0  0  0  0  0  0  0  0  0
    8.3197   -3.0069    0.0000 H   0  0  0  0  0  0  0  0  0  0  0  0
    3.4596   -4.9492    0.0000 H   0  0  0  0  0  0  0  0  0  0  0  0
    4.3041   -5.1852    0.0000 H   0  0  0  0  0  0  0  0  0  0  0  0
    4.5401   -4.3408    0.0000 H   0  0  0  0  0  0  0  0  0  0  0  0
   10.2085    2.1886    0.0000 H   0  0  0  0  0  0  0  0  0  0  0  0
   10.8995    2.7284    0.0000 H   0  0  0  0  0  0  0  0  0  0  0  0
   10.3596    3.4193    0.0000 H   0  0  0  0  0  0  0  0  0  0  0  0
    5.4435   -3.1506    0.0000 H   0  0  0  0  0  0  0  0  0  0  0  0
    8.0755    3.4028    0.0000 H   0  0  0  0  0  0  0  0  0  0  0  0
    5.5599   -1.4456    0.0000 H   0  0  0  0  0  0  0  0  0  0  0  0
    8.3766   -3.2995    0.0000 H   0  0  0  0  0  0  0  0  0  0  0  0
    4.0633    1.1886    0.0000 H   0  0  0  0  0  0  0  0  0  0  0  0
   10.0130   -2.5604    0.0000 H   0  0  0  0  0  0  0  0  0  0  0  0
    4.8368    0.0568    0.0000 H   0  0  0  0  0  0  0  0  0  0  0  0
    4.5514    0.8858    0.0000 H   0  0  0  0  0  0  0  0  0  0  0  0
    3.7223    0.6004    0.0000 H   0  0  0  0  0  0  0  0  0  0  0  0
   10.5741   -0.7372    0.0000 H   0  0  0  0  0  0  0  0  0  0  0  0
   11.3427   -0.3153    0.0000 H   0  0  0  0  0  0  0  0  0  0  0  0
   10.9207    0.4533    0.0000 H   0  0  0  0  0  0  0  0  0  0  0  0
    1.4664   -4.3076    0.0000 H   0  0  0  0  0  0  0  0  0  0  0  0
    1.6842   -5.1569    0.0000 H   0  0  0  0  0  0  0  0  0  0  0  0
    2.5336   -4.9391    0.0000 H   0  0  0  0  0  0  0  0  0  0  0  0
    9.9978    4.2718    0.0000 H   0  0  0  0  0  0  0  0  0  0  0  0
    9.8757    5.1401    0.0000 H   0  0  0  0  0  0  0  0  0  0  0  0
    9.0075    5.0181    0.0000 H   0  0  0  0  0  0  0  0  0  0  0  0
    4.1254   -1.3513    0.0000 H   0  0  0  0  0  0  0  0  0  0  0  0
    4.2475   -2.2196    0.0000 H   0  0  0  0  0  0  0  0  0  0  0  0
    5.1158   -2.0974    0.0000 H   0  0  0  0  0  0  0  0  0  0  0  0
    6.3360   -1.3048    0.0000 H   0  0  0  0  0  0  0  0  0  0  0  0
    6.8007   -0.5613    0.0000 H   0  0  0  0  0  0  0  0  0  0  0  0
    6.0571   -0.0966    0.0000 H   0  0  0  0  0  0  0  0  0  0  0  0
    7.8950   -3.8006    0.0000 H   0  0  0  0  0  0  0  0  0  0  0  0
    8.0171   -4.6688    0.0000 H   0  0  0  0  0  0  0  0  0  0  0  0
    8.8853   -4.5468    0.0000 H   0  0  0  0  0  0  0  0  0  0  0  0
    9.9089   -4.1123    0.0000 H   0  0  0  0  0  0  0  0  0  0  0  0
   10.5999   -3.5725    0.0000 H   0  0  0  0  0  0  0  0  0  0  0  0
   10.0600   -2.8815    0.0000 H   0  0  0  0  0  0  0  0  0  0  0  0
    7.8470    0.5312    0.0000 H   0  0  0  0  0  0  0  0  0  0  0  0
    5.8816   -2.8391    0.0000 H   0  0  0  0  0  0  0  0  0  0  0  0
  1 40  1  0  0  0  0
  1 51  1  0  0  0  0
  2 41  1  0  0  0  0
  2 52  1  0  0  0  0
  3 23  1  0  0  0  0
  3 25  1  0  0  0  0
  4 24  1  0  0  0  0
  4 26  1  0  0  0  0
  5 33  2  0  0  0  0
  6 34  2  0  0  0  0
  7 43  2  0  0  0  0
  8 44  2  0  0  0  0
  9 21  1  0  0  0  0
  9 25  2  0  0  0  0
 10 22  1  0  0  0  0
 10 26  2  0  0  0  0
 11 17  1  0  0  0  0
 11 43  1  0  0  0  0
 11 73  1  0  0  0  0
 12 18  1  0  0  0  0
 12 44  1  0  0  0  0
 12 74  1  0  0  0  0
 13 29  1  0  0  0  0
 13 33  1  0  0  0  0
 13 77  1  0  0  0  0
 14 30  1  0  0  0  0
 14 34  1  0  0  0  0
 14 78  1  0  0  0  0
 15 40  2  0  0  0  0
 15 50  1  0  0  0  0
 16 41  2  0  0  0  0
 16 49  1  0  0  0  0
 17 19  1  0  0  0  0
 17 25  1  0  0  0  0
 17 53  1  6  0  0  0
 18 20  1  0  0  0  0
 18 26  1  0  0  0  0
 18 54  1  6  0  0  0
 19 27  1  0  0  0  0
 19 31  1  1  0  0  0
 19 55  1  0  0  0  0
 20 28  1  0  0  0  0
 20 32  1  6  0  0  0
 20 56  1  0  0  0  0
 21 23  1  0  0  0  0
 21 33  1  0  0  0  0
 21 57  1  1  0  0  0
 22 24  1  0  0  0  0
 22 34  1  0  0  0  0
 22 58  1  6  0  0  0
 23 37  1  1  0  0  0
 23 59  1  0  0  0  0
 24 38  1  6  0  0  0
 24 60  1  0  0  0  0
 27 39  1  0  0  0  0
 27 61  1  0  0  0  0
 27 62  1  0  0  0  0
 28 42  1  0  0  0  0
 28 63  1  0  0  0  0
 28 64  1  0  0  0  0
 29 35  1  1  0  0  0
 29 40  1  0  0  0  0
 29 65  1  0  0  0  0
 30 36  1  6  0  0  0
 30 41  1  0  0  0  0
 30 66  1  0  0  0  0
 31 67  1  0  0  0  0
 31 68  1  0  0  0  0
 31 69  1  0  0  0  0
 32 70  1  0  0  0  0
 32 71  1  0  0  0  0
 32 72  1  0  0  0  0
 35 45  1  0  0  0  0
 35 46  1  0  0  0  0
 35 75  1  0  0  0  0
 36 47  1  0  0  0  0
 36 48  1  0  0  0  0
 36 76  1  0  0  0  0
 37 79  1  0  0  0  0
 37 80  1  0  0  0  0
 37 81  1  0  0  0  0
 38 82  1  0  0  0  0
 38 83  1  0  0  0  0
 38 84  1  0  0  0  0
 39 85  1  0  0  0  0
 39 86  1  0  0  0  0
 39 87  1  0  0  0  0
 42 88  1  0  0  0  0
 42 89  1  0  0  0  0
 42 90  1  0  0  0  0
 43 49  1  0  0  0  0
 44 50  1  0  0  0  0
 45 94  1  0  0  0  0
 45 95  1  0  0  0  0
 45 96  1  0  0  0  0
 46 91  1  0  0  0  0
 46 92  1  0  0  0  0
 46 93  1  0  0  0  0
 47100  1  0  0  0  0
 47101  1  0  0  0  0
 47102  1  0  0  0  0
 48 97  1  0  0  0  0
 48 98  1  0  0  0  0
 48 99  1  0  0  0  0
 49 52  2  0  0  0  0
 50 51  2  0  0  0  0
 51103  1  0  0  0  0
 52104  1  0  0  0  0
M  END
> <PUBCHEM_COMPOUND_CID>
163527

> <PUBCHEM_COMPOUND_CANONICALIZED>
1

> <PUBCHEM_CACTVS_COMPLEXITY>
1300

> <PUBCHEM_CACTVS_HBOND_ACCEPTOR>
12

> <PUBCHEM_CACTVS_HBOND_DONOR>
4

> <PUBCHEM_CACTVS_ROTATABLE_BOND>
6

> <PUBCHEM_CACTVS_SUBSKEYS>
AAADcfB/+ABgAAAAAAAAAAAAAAAAAWLECAAAAAAAAAAAAAAB4AAAHgQQAAAADTzl1gaigRLIFAisAQVyVACA8KBHCjgAAJW4JEACQBYggCAXAAgGNgCwAICAAAAKAAAAAAAAAAAAAAAAAAAAAAAAAAAAAA==

> <PUBCHEM_IUPAC_INCHI>
InChI=1S/C36H52N8O6S2/c1-11-17(7)25-33-43-27(19(9)49-33)31(47)39-24(16(5)6)36-38-22(14-52-36)30(46)42-26(18(8)12-2)34-44-28(20(10)50-34)32(48)40-23(15(3)4)35-37-21(13-51-35)29(45)41-25/h13-20,23-28H,11-12H2,1-10H3,(H,39,47)(H,40,48)(H,41,45)(H,42,46)/t17-,18-,19+,20+,23+,24+,25-,26-,27-,28-/m0/s1

> <PUBCHEM_IUPAC_INCHIKEY>
QBRRPBPLIGDANJ-AXCFFLBZSA-N

> <PUBCHEM_XLOGP3_AA>
5.7

> <PUBCHEM_EXACT_MASS>
756.345123

> <PUBCHEM_MOLECULAR_FORMULA>
C36H52N8O6S2

> <PUBCHEM_MOLECULAR_WEIGHT>
756.97808

> <PUBCHEM_OPENEYE_CAN_SMILES>
CCC(C)C1C2=NC(C(O2)C)C(=O)NC(C3=NC(=CS3)C(=O)NC(C4=NC(C(O4)C)C(=O)NC(C5=NC(=CS5)C(=O)N1)C(C)C)C(C)CC)C(C)C

> <PUBCHEM_OPENEYE_ISO_SMILES>
CC[C@H](C)[C@H]1C2=N[C@@H]([C@H](O2)C)C(=O)N[C@@H](C3=NC(=CS3)C(=O)N[C@H](C4=N[C@@H]([C@H](O4)C)C(=O)N[C@@H](C5=NC(=CS5)C(=O)N1)C(C)C)[C@@H](C)CC)C(C)C

> <PUBCHEM_CACTVS_TPSA>
242

> <PUBCHEM_MONOISOTOPIC_WEIGHT>
756.345123

> <PUBCHEM_TOTAL_CHARGE>
0

> <PUBCHEM_HEAVY_ATOM_COUNT>
52

> <PUBCHEM_ATOM_DEF_STEREO_COUNT>
10

> <PUBCHEM_ATOM_UDEF_STEREO_COUNT>
0

> <PUBCHEM_BOND_DEF_STEREO_COUNT>
0

> <PUBCHEM_BOND_UDEF_STEREO_COUNT>
0

> <PUBCHEM_ISOTOPIC_ATOM_COUNT>
0

> <PUBCHEM_COMPONENT_COUNT>
1

> <PUBCHEM_CACTVS_TAUTO_COUNT>
10

> <PUBCHEM_COORDINATE_TYPE>
1
5
255

> <PUBCHEM_BONDANNOTATIONS>
1  40  8
1  51  8
15  40  8
15  50  8
16  41  8
16  49  8
17  53  6
18  54  6
19  31  5
2  41  8
2  52  8
20  32  6
21  57  5
22  58  6
23  37  5
24  38  6
29  35  5
30  36  6
49  52  8
50  51  8

$$$$

