3080551
  -OEChem-07051213152D

 42 43  0     1  0  0  0  0  0999 V2000
    2.8660   -1.8932    0.0000 O   0  0  0  0  0  0  0  0  0  0  0  0
    4.5981    0.1068    0.0000 C   0  0  1  0  0  0  0  0  0  0  0  0
    4.5981    1.1068    0.0000 C   0  0  2  0  0  0  0  0  0  0  0  0
    5.4920    1.6415    0.0000 C   0  0  0  0  0  0  0  0  0  0  0  0
    3.7320   -0.3932    0.0000 C   0  0  2  0  0  0  0  0  0  0  0  0
    5.4920   -0.4279    0.0000 C   0  0  0  0  0  0  0  0  0  0  0  0
    6.3981    1.1276    0.0000 C   0  0  0  0  0  0  0  0  0  0  0  0
    3.7320    1.6068    0.0000 C   0  0  0  0  0  0  0  0  0  0  0  0
    6.3981    0.0860    0.0000 C   0  0  0  0  0  0  0  0  0  0  0  0
    4.5981   -0.8932    0.0000 C   0  0  0  0  0  0  0  0  0  0  0  0
    2.8660    0.1068    0.0000 C   0  0  0  0  0  0  0  0  0  0  0  0
    5.9820    2.5132    0.0000 C   0  0  0  0  0  0  0  0  0  0  0  0
    4.9820    2.5016    0.0000 C   0  0  0  0  0  0  0  0  0  0  0  0
    2.8660    1.1068    0.0000 C   0  0  0  0  0  0  0  0  0  0  0  0
    3.7320   -1.3932    0.0000 C   0  0  0  0  0  0  0  0  0  0  0  0
    2.0000   -0.3932    0.0000 C   0  0  0  0  0  0  0  0  0  0  0  0
    4.5915    1.9568    0.0000 H   0  0  0  0  0  0  0  0  0  0  0  0
    4.2690   -0.7032    0.0000 H   0  0  0  0  0  0  0  0  0  0  0  0
    5.0874   -0.8977    0.0000 H   0  0  0  0  0  0  0  0  0  0  0  0
    5.8856   -0.9069    0.0000 H   0  0  0  0  0  0  0  0  0  0  0  0
    7.0089    1.0215    0.0000 H   0  0  0  0  0  0  0  0  0  0  0  0
    6.6071    1.7113    0.0000 H   0  0  0  0  0  0  0  0  0  0  0  0
    4.1306    2.0817    0.0000 H   0  0  0  0  0  0  0  0  0  0  0  0
    3.3335    2.0817    0.0000 H   0  0  0  0  0  0  0  0  0  0  0  0
    6.6071   -0.4977    0.0000 H   0  0  0  0  0  0  0  0  0  0  0  0
    7.0089    0.1921    0.0000 H   0  0  0  0  0  0  0  0  0  0  0  0
    3.9781   -0.8932    0.0000 H   0  0  0  0  0  0  0  0  0  0  0  0
    4.5981   -1.5132    0.0000 H   0  0  0  0  0  0  0  0  0  0  0  0
    5.2181   -0.8932    0.0000 H   0  0  0  0  0  0  0  0  0  0  0  0
    6.5225    2.2094    0.0000 H   0  0  0  0  0  0  0  0  0  0  0  0
    6.2857    3.0537    0.0000 H   0  0  0  0  0  0  0  0  0  0  0  0
    5.4415    2.8170    0.0000 H   0  0  0  0  0  0  0  0  0  0  0  0
    5.5154    2.8178    0.0000 H   0  0  0  0  0  0  0  0  0  0  0  0
    4.6658    3.0350    0.0000 H   0  0  0  0  0  0  0  0  0  0  0  0
    4.4487    2.1854    0.0000 H   0  0  0  0  0  0  0  0  0  0  0  0
    2.3291    1.4168    0.0000 H   0  0  0  0  0  0  0  0  0  0  0  0
    3.9441   -1.9758    0.0000 H   0  0  0  0  0  0  0  0  0  0  0  0
    4.3426   -1.2855    0.0000 H   0  0  0  0  0  0  0  0  0  0  0  0
    1.6900    0.1437    0.0000 H   0  0  0  0  0  0  0  0  0  0  0  0
    1.4631   -0.7032    0.0000 H   0  0  0  0  0  0  0  0  0  0  0  0
    2.3100   -0.9301    0.0000 H   0  0  0  0  0  0  0  0  0  0  0  0
    2.8660   -2.5132    0.0000 H   0  0  0  0  0  0  0  0  0  0  0  0
  1 15  1  0  0  0  0
  1 42  1  0  0  0  0
  2  3  1  0  0  0  0
  2  5  1  0  0  0  0
  2  6  1  0  0  0  0
  2 10  1  1  0  0  0
  3  4  1  0  0  0  0
  3  8  1  0  0  0  0
  3 17  1  6  0  0  0
  4  7  1  0  0  0  0
  4 12  1  0  0  0  0
  4 13  1  0  0  0  0
  5 11  1  0  0  0  0
  5 15  1  1  0  0  0
  5 18  1  0  0  0  0
  6  9  1  0  0  0  0
  6 19  1  0  0  0  0
  6 20  1  0  0  0  0
  7  9  1  0  0  0  0
  7 21  1  0  0  0  0
  7 22  1  0  0  0  0
  8 14  1  0  0  0  0
  8 23  1  0  0  0  0
  8 24  1  0  0  0  0
  9 25  1  0  0  0  0
  9 26  1  0  0  0  0
 10 27  1  0  0  0  0
 10 28  1  0  0  0  0
 10 29  1  0  0  0  0
 11 14  2  0  0  0  0
 11 16  1  0  0  0  0
 12 30  1  0  0  0  0
 12 31  1  0  0  0  0
 12 32  1  0  0  0  0
 13 33  1  0  0  0  0
 13 34  1  0  0  0  0
 13 35  1  0  0  0  0
 14 36  1  0  0  0  0
 15 37  1  0  0  0  0
 15 38  1  0  0  0  0
 16 39  1  0  0  0  0
 16 40  1  0  0  0  0
 16 41  1  0  0  0  0
M  END
> <PUBCHEM_COMPOUND_CID>
3080551

> <PUBCHEM_COMPOUND_CANONICALIZED>
1

> <PUBCHEM_CACTVS_COMPLEXITY>
303

> <PUBCHEM_CACTVS_HBOND_ACCEPTOR>
1

> <PUBCHEM_CACTVS_HBOND_DONOR>
1

> <PUBCHEM_CACTVS_ROTATABLE_BOND>
1

> <PUBCHEM_CACTVS_SUBSKEYS>
AAADceBwIAAAAAAAAAAAAAAAAAAAAAAAAAAwQAAAAAAAAACAAAAAGgAACAAADwCggAICAAAAAgCAAiBCAAAAAAAgAAAACAAAAAgAEAIAAQAAQAAEwAAIAAOAwPAPgAAAAAAAAAAAAAQAACAAAAAAAAAAAA==

> <PUBCHEM_IUPAC_OPENEYE_NAME>
[(1S,4aS,8aS)-2,5,5,8a-tetramethyl-1,4,4a,6,7,8-hexahydronaphthalen-1-yl]methanol

> <PUBCHEM_IUPAC_CAS_NAME>
[(1S,4aS,8aS)-2,5,5,8a-tetramethyl-1,4,4a,6,7,8-hexahydronaphthalen-1-yl]methanol

> <PUBCHEM_IUPAC_NAME>
[(1S,4aS,8aS)-2,5,5,8a-tetramethyl-1,4,4a,6,7,8-hexahydronaphthalen-1-yl]methanol

> <PUBCHEM_IUPAC_SYSTEMATIC_NAME>
[(1S,4aS,8aS)-2,5,5,8a-tetramethyl-1,4,4a,6,7,8-hexahydronaphthalen-1-yl]methanol

> <PUBCHEM_IUPAC_TRADITIONAL_NAME>
[(1S,4aS,8aS)-2,5,5,8a-tetramethyl-1,4,4a,6,7,8-hexahydronaphthalen-1-yl]methanol

> <PUBCHEM_IUPAC_INCHI>
InChI=1S/C15H26O/c1-11-6-7-13-14(2,3)8-5-9-15(13,4)12(11)10-16/h6,12-13,16H,5,7-10H2,1-4H3/t12-,13-,15+/m0/s1

> <PUBCHEM_IUPAC_INCHIKEY>
HMWSKUKBAWWOJL-KCQAQPDRSA-N

> <PUBCHEM_XLOGP3_AA>
3.9

> <PUBCHEM_EXACT_MASS>
222.198365

> <PUBCHEM_MOLECULAR_FORMULA>
C15H26O

> <PUBCHEM_MOLECULAR_WEIGHT>
222.36634

> <PUBCHEM_OPENEYE_CAN_SMILES>
CC1=CCC2C(CCCC2(C1CO)C)(C)C

> <PUBCHEM_OPENEYE_ISO_SMILES>
CC1=CC[C@@H]2[C@@]([C@H]1CO)(CCCC2(C)C)C

> <PUBCHEM_CACTVS_TPSA>
20.2

> <PUBCHEM_MONOISOTOPIC_WEIGHT>
222.198365

> <PUBCHEM_TOTAL_CHARGE>
0

> <PUBCHEM_HEAVY_ATOM_COUNT>
16

> <PUBCHEM_ATOM_DEF_STEREO_COUNT>
3

> <PUBCHEM_ATOM_UDEF_STEREO_COUNT>
0

> <PUBCHEM_BOND_DEF_STEREO_COUNT>
0

> <PUBCHEM_BOND_UDEF_STEREO_COUNT>
0

> <PUBCHEM_ISOTOPIC_ATOM_COUNT>
0

> <PUBCHEM_COMPONENT_COUNT>
1

> <PUBCHEM_CACTVS_TAUTO_COUNT>
1

> <PUBCHEM_COORDINATE_TYPE>
1
5
255

> <PUBCHEM_BONDANNOTATIONS>
2  10  5
3  17  6
5  15  5

$$$$

