439635
  -OEChem-07051212462D

 48 52  0     1  0  0  0  0  0999 V2000
    5.0333    0.5374    0.0000 O   0  0  0  0  0  0  0  0  0  0  0  0
    8.7947   -1.7746    0.0000 O   0  0  0  0  0  0  0  0  0  0  0  0
    2.6115    1.0940    0.0000 O   0  0  0  0  0  0  0  0  0  0  0  0
    6.1102    1.7658    0.0000 O   0  0  0  0  0  0  0  0  0  0  0  0
    4.3842    1.6203    0.0000 O   0  0  0  0  0  0  0  0  0  0  0  0
    6.1014   -0.3508    0.0000 C   0  0  1  0  0  0  0  0  0  0  0  0
    4.8874   -1.1965    0.0000 C   0  0  2  0  0  0  0  0  0  0  0  0
    5.7995   -1.2180    0.0000 C   0  0  2  0  0  0  0  0  0  0  0  0
    4.6244   -0.3224    0.0000 C   0  0  2  0  0  0  0  0  0  0  0  0
    5.3732    0.1984    0.0000 C   0  0  2  0  0  0  0  0  0  0  0  0
    3.7072   -0.1064    0.0000 C   0  0  3  0  0  0  0  0  0  0  0  0
    6.7974   -1.1832    0.0000 C   0  0  0  0  0  0  0  0  0  0  0  0
    7.8503   -1.4458    0.0000 C   0  0  2  0  0  0  0  0  0  0  0  0
    6.9683   -0.0462    0.0000 C   0  0  0  0  0  0  0  0  0  0  0  0
    6.2897   -1.9946    0.0000 C   0  0  0  0  0  0  0  0  0  0  0  0
    4.2496   -1.9110    0.0000 C   0  0  0  0  0  0  0  0  0  0  0  0
    7.2020   -2.0958    0.0000 C   0  0  0  0  0  0  0  0  0  0  0  0
    3.0620   -0.7926    0.0000 C   0  0  0  0  0  0  0  0  0  0  0  0
    7.7459   -0.5332    0.0000 C   0  0  0  0  0  0  0  0  0  0  0  0
    3.3335   -1.6953    0.0000 C   0  0  0  0  0  0  0  0  0  0  0  0
    3.4423    0.5374    0.0000 C   0  0  0  0  0  0  0  0  0  0  0  0
    5.2892    1.1949    0.0000 C   0  0  0  0  0  0  0  0  0  0  0  0
    2.7237    0.0748    0.0000 C   0  0  0  0  0  0  0  0  0  0  0  0
    8.5495    0.0619    0.0000 C   0  0  0  0  0  0  0  0  0  0  0  0
    5.3803   -1.9575    0.0000 H   0  0  0  0  0  0  0  0  0  0  0  0
    4.1894    0.4078    0.0000 H   0  0  0  0  0  0  0  0  0  0  0  0
    5.9160    0.4980    0.0000 H   0  0  0  0  0  0  0  0  0  0  0  0
    6.8403   -1.8018    0.0000 H   0  0  0  0  0  0  0  0  0  0  0  0
    6.2223   -1.4148    0.0000 H   0  0  0  0  0  0  0  0  0  0  0  0
    6.6377    0.4783    0.0000 H   0  0  0  0  0  0  0  0  0  0  0  0
    7.4061    0.3928    0.0000 H   0  0  0  0  0  0  0  0  0  0  0  0
    6.3603   -2.6105    0.0000 H   0  0  0  0  0  0  0  0  0  0  0  0
    5.7050   -2.2005    0.0000 H   0  0  0  0  0  0  0  0  0  0  0  0
    4.7740   -2.2419    0.0000 H   0  0  0  0  0  0  0  0  0  0  0  0
    4.0099   -2.4828    0.0000 H   0  0  0  0  0  0  0  0  0  0  0  0
    7.7275   -2.4249    0.0000 H   0  0  0  0  0  0  0  0  0  0  0  0
    6.9982   -2.6813    0.0000 H   0  0  0  0  0  0  0  0  0  0  0  0
    2.5084   -1.0716    0.0000 H   0  0  0  0  0  0  0  0  0  0  0  0
    2.6910   -0.2959    0.0000 H   0  0  0  0  0  0  0  0  0  0  0  0
    3.2983   -2.3143    0.0000 H   0  0  0  0  0  0  0  0  0  0  0  0
    2.7178   -1.7680    0.0000 H   0  0  0  0  0  0  0  0  0  0  0  0
    2.6114   -0.5350    0.0000 H   0  0  0  0  0  0  0  0  0  0  0  0
    2.1140    0.1871    0.0000 H   0  0  0  0  0  0  0  0  0  0  0  0
    2.8360    0.6845    0.0000 H   0  0  0  0  0  0  0  0  0  0  0  0
    8.9109   -2.3836    0.0000 H   0  0  0  0  0  0  0  0  0  0  0  0
    8.4791    0.6779    0.0000 H   0  0  0  0  0  0  0  0  0  0  0  0
    9.1182   -0.1851    0.0000 H   0  0  0  0  0  0  0  0  0  0  0  0
    6.0581    2.3836    0.0000 H   0  0  0  0  0  0  0  0  0  0  0  0
  7  1  1  1  0  0  0
  1 21  1  0  0  0  0
 13  2  1  1  0  0  0
  2 45  1  0  0  0  0
  3 21  2  0  0  0  0
  4 22  1  0  0  0  0
  4 48  1  0  0  0  0
  5 22  2  0  0  0  0
  6  8  1  0  0  0  0
  6 10  1  0  0  0  0
  6 12  1  1  0  0  0
  6 14  1  0  0  0  0
  7  8  1  0  0  0  0
  7  9  1  0  0  0  0
  7 16  1  0  0  0  0
  8 15  1  0  0  0  0
  8 25  1  6  0  0  0
  9 10  1  0  0  0  0
  9 11  1  0  0  0  0
  9 26  1  6  0  0  0
 10 22  1  6  0  0  0
 10 27  1  0  0  0  0
 11 18  1  0  0  0  0
 11 21  1  0  0  0  0
 11 23  1  0  0  0  0
 12 13  1  0  0  0  0
 12 28  1  0  0  0  0
 12 29  1  0  0  0  0
 13 17  1  0  0  0  0
 13 19  1  0  0  0  0
 14 19  1  0  0  0  0
 14 30  1  0  0  0  0
 14 31  1  0  0  0  0
 15 17  1  0  0  0  0
 15 32  1  0  0  0  0
 15 33  1  0  0  0  0
 16 20  1  0  0  0  0
 16 34  1  0  0  0  0
 16 35  1  0  0  0  0
 17 36  1  0  0  0  0
 17 37  1  0  0  0  0
 18 20  1  0  0  0  0
 18 38  1  0  0  0  0
 18 39  1  0  0  0  0
 19 24  2  0  0  0  0
 20 40  1  0  0  0  0
 20 41  1  0  0  0  0
 23 42  1  0  0  0  0
 23 43  1  0  0  0  0
 23 44  1  0  0  0  0
 24 46  1  0  0  0  0
 24 47  1  0  0  0  0
M  END
> <PUBCHEM_COMPOUND_CID>
439635

> <PUBCHEM_COMPOUND_CANONICALIZED>
1

> <PUBCHEM_CACTVS_COMPLEXITY>
700

> <PUBCHEM_CACTVS_HBOND_ACCEPTOR>
5

> <PUBCHEM_CACTVS_HBOND_DONOR>
2

> <PUBCHEM_CACTVS_ROTATABLE_BOND>
1

> <PUBCHEM_CACTVS_SUBSKEYS>
AAADceB4OAAAAAAAAAAAAAAAAAAAAaMEAAAwYAAABogSAGDAAAAAGgAACAAAD0SAgAACCAAABgCIAgDSCAAAAAAgAAAAAAEAAAgABBIAAQACQAAEgAAAEAHK7vzPgAAAAAAAAADAAAYAADAAAYAADAAAAA==

> <PUBCHEM_IUPAC_INCHI>
InChI=1S/C19H24O5/c1-10-8-17-9-18(10,23)7-4-11(17)19-6-3-5-16(2,15(22)24-19)13(19)12(17)14(20)21/h11-13,23H,1,3-9H2,2H3,(H,20,21)/t11-,12-,13-,16?,17+,18+,19-/m1/s1

> <PUBCHEM_IUPAC_INCHIKEY>
OXFPYCSNYOFUCH-LUGKBOQRSA-N

> <PUBCHEM_XLOGP3_AA>
1.2

> <PUBCHEM_EXACT_MASS>
332.162374

> <PUBCHEM_MOLECULAR_FORMULA>
C19H24O5

> <PUBCHEM_MOLECULAR_WEIGHT>
332.39086

> <PUBCHEM_OPENEYE_CAN_SMILES>
CC12CCCC3(C1C(C45C3CCC(C4)(C(=C)C5)O)C(=O)O)OC2=O

> <PUBCHEM_OPENEYE_ISO_SMILES>
CC12CCC[C@@]3([C@@H]1[C@@H]([C@]45[C@H]3CC[C@](C4)(C(=C)C5)O)C(=O)O)OC2=O

> <PUBCHEM_CACTVS_TPSA>
83.8

> <PUBCHEM_MONOISOTOPIC_WEIGHT>
332.162374

> <PUBCHEM_TOTAL_CHARGE>
0

> <PUBCHEM_HEAVY_ATOM_COUNT>
24

> <PUBCHEM_ATOM_DEF_STEREO_COUNT>
6

> <PUBCHEM_ATOM_UDEF_STEREO_COUNT>
1

> <PUBCHEM_BOND_DEF_STEREO_COUNT>
0

> <PUBCHEM_BOND_UDEF_STEREO_COUNT>
0

> <PUBCHEM_ISOTOPIC_ATOM_COUNT>
0

> <PUBCHEM_COMPONENT_COUNT>
1

> <PUBCHEM_CACTVS_TAUTO_COUNT>
1

> <PUBCHEM_COORDINATE_TYPE>
1
5
255

> <PUBCHEM_BONDANNOTATIONS>
7  1  5
10  22  6
11  23  3
13  2  5
6  12  5
8  25  6
9  26  6

$$$$

