   Color/Form
        Colorless liquid
   from [1]HSDB

   Odor

     * Sweet
     * Aromatic odor

   from [2]HSDB

   Boiling Point
        144.5 deg C
   from [3]HSDB

   Melting Point
        -25.2 deg C
   from [4]HSDB

   Critical Temperature and Pressure
        Critical temperature: 357.1 deg C; Critical pressure 35.20 bar
   from [5]HSDB

   Density/Specific Gravity
        0.8801 at 20 deg C/4 deg C
   from [6]HSDB

   Heat of Combustion
        1,091.7 kg/cal
   from [7]HSDB

   Heat of Vaporization
        43.43 kJ/mol at 25 deg C
   from [8]HSDB

   Octanol/Water Partition Coefficient
        log Kow = 3.12
   from [9]HSDB

   Solubilities

     * Miscible with ethanol, ethyl ether, acetone, petroleum ether,
       benzene, carbon tetrachloride
     * Soluble with most organic solvents.
     * In water, 1.78X10+2 mg/L at 25 deg C

   from [10]HSDB

   Spectral Properties

     * Index of refraction: 1.5058 at 20 deg C/D
     * Negligible absorption above 290 nm
     * IR: 3576 (Coblentz Society Spectral Collection)
     * UV: 7 (Sadtler Research Laboratories Spectral Collection)
     * 1H NMR: 201 (Varian Associates NMR Spectra Catalogue)
     * MASS: 63387 (NIST/EPA/MSDC Mass Spectral Database, 1990 Version);
       322 (Atlas of Mass Spectral Data, John Wiley & Sons, New York)
     * Raman: 78 (Dollish et al, Characteristic Raman Frequencies of
       Organic Compounds, John Wiley and Sons, New York)

   from [11]HSDB

   Surface Tension
        29.76 dynes/cm at 25 deg C
   from [12]HSDB

   Vapor Density
        3.7 (Air = 1)
   from [13]HSDB

   Vapor Pressure
        6.61 mm Hg at 25 deg C /extrapolated/
   from [14]HSDB

   Relative Evaporation Rate
        9.2 (Ether = 1)
   from [15]HSDB

   Viscosity
        0.760 mPa.s at 25 deg C
   from [16]HSDB

   Other Chemical/Physical Properties

     * Dielectric constant 2.568 at 25 deg C
     * Critical density: 2.71 mmol/cu cm
     * Critical volume: 369.0 cu cm/mol
     * Heat of fusion: 13.78 kJ/mol
     * Heat of formation: (endothermal) at 25 deg C = -24.439 J/mole deg K
     * Standard molar entropy at 25 deg C: 246.5 J/mole deg K
     * ... Combustion characteristics: critical compression ratio 13.6;
       research octane value 117.5 and motor octane number is 8 units
       lower.
     * Saturation concn in air: 29 g/cu m at 20 deg C; 50 g/cu m at 30 deg
       C
     * Enthalpy of crystallization, kJ/kg: 109
     * Henry's Law constant = 5.18X10-3 atm-cu m/mol at 25 deg C
     * Hydroxyl radical reaction rate constant = 1.37X10-11 cu m/molec-sec
       at 25 deg C

   from [17]HSDB

   Computed Properties
   Molecular Weight                  106.165 [g/mol]
   Molecular Formula                 C[8]H[10]
   XLogP3                            3.1
   H-Bond Donor                      0
   H-Bond Acceptor                   0
   Rotatable Bond Count              0
   Exact Mass                        106.07825
   MonoIsotopic Mass                 106.07825
   Topological Polar Surface Area    0
   Heavy Atom Count                  8
   Formal Charge                     0
   Complexity                        56.4
   Isotope Atom Count                0
   Defined Atom Stereocenter Count   0
   Undefined Atom Stereocenter Count 0
   Defined Bond Stereocenter Count   0
   Undefined Bond Stereocenter Count 0
   Covalently-Bonded Unit Count      1
   Feature 3D Ring Count             1
   Effective Rotor Count             0
   Conformer Sampling RMSD           0.4
   CID Conformer Count               [18]1

References

   1. http://toxnet.nlm.nih.gov/cgi-bin/sis/search/r?dbs+hsdb:@term+@rn+@rel+95-47-6
   2. http://toxnet.nlm.nih.gov/cgi-bin/sis/search/r?dbs+hsdb:@term+@rn+@rel+95-47-6
   3. http://toxnet.nlm.nih.gov/cgi-bin/sis/search/r?dbs+hsdb:@term+@rn+@rel+95-47-6
   4. http://toxnet.nlm.nih.gov/cgi-bin/sis/search/r?dbs+hsdb:@term+@rn+@rel+95-47-6
   5. http://toxnet.nlm.nih.gov/cgi-bin/sis/search/r?dbs+hsdb:@term+@rn+@rel+95-47-6
   6. http://toxnet.nlm.nih.gov/cgi-bin/sis/search/r?dbs+hsdb:@term+@rn+@rel+95-47-6
   7. http://toxnet.nlm.nih.gov/cgi-bin/sis/search/r?dbs+hsdb:@term+@rn+@rel+95-47-6
   8. http://toxnet.nlm.nih.gov/cgi-bin/sis/search/r?dbs+hsdb:@term+@rn+@rel+95-47-6
   9. http://toxnet.nlm.nih.gov/cgi-bin/sis/search/r?dbs+hsdb:@term+@rn+@rel+95-47-6
  10. http://toxnet.nlm.nih.gov/cgi-bin/sis/search/r?dbs+hsdb:@term+@rn+@rel+95-47-6
  11. http://toxnet.nlm.nih.gov/cgi-bin/sis/search/r?dbs+hsdb:@term+@rn+@rel+95-47-6
  12. http://toxnet.nlm.nih.gov/cgi-bin/sis/search/r?dbs+hsdb:@term+@rn+@rel+95-47-6
  13. http://toxnet.nlm.nih.gov/cgi-bin/sis/search/r?dbs+hsdb:@term+@rn+@rel+95-47-6
  14. http://toxnet.nlm.nih.gov/cgi-bin/sis/search/r?dbs+hsdb:@term+@rn+@rel+95-47-6
  15. http://toxnet.nlm.nih.gov/cgi-bin/sis/search/r?dbs+hsdb:@term+@rn+@rel+95-47-6
  16. http://toxnet.nlm.nih.gov/cgi-bin/sis/search/r?dbs+hsdb:@term+@rn+@rel+95-47-6
  17. http://toxnet.nlm.nih.gov/cgi-bin/sis/search/r?dbs+hsdb:@term+@rn+@rel+95-47-6
  18. http://pubchem.ncbi.nlm.nih.gov/vw3d/vw3d.cgi?cid=7237
