   Color/Form

     * LEAFLETS (WATER, PETROLEUM), CRYSTALS (ETHER)
     * Colorless to yellowish scales, turning red on exposure to light and
       air.
     * WHITE CRYSTALLINE SOLID
     * Colorless, shiny flakes

   from [1]HSDB

   Odor

     * ALMOST FLORAL ODOR WHEN HIGHLY PURIFIED, OTHERWISE EXHIBITS
       CHARACTERISTIC ODOR OF FECES
     * Unpleasant odor in high concentration but pleasant in dilute
       solution.
     * Light jasmine odor

   from [2]HSDB

   Boiling Point
        253 deg C @ 762 mm Hg; 128-133 deg C @ 28 mm Hg
   from [3]HSDB

   Melting Point
        52 deg C
   from [4]HSDB

   Density/Specific Gravity
        1.22 g/cu m at 25 deg C
   from [5]HSDB

   Dissociation Constants
        pKa (basic)= -2.4 [Adler TK, Albert A; J Med Chem 6: 480-3 (1963)]
   [6]PubMed Abstract
   from [7]HSDB

   Heat of Combustion
        3.650 kJ/kg at 25 deg C
   from [8]HSDB

   Octanol/Water Partition Coefficient
        Log P= 2.14
   from [9]HSDB

   Solubilities

     * SOL IN HOT WATER, HOT ALC, ETHER, BENZENE
     * 1 G IN 2 ML OF 70% ALC
     * SOL IN TOLUENE
     * Soluble in fixed oils; insoluble in mineral oil and glycerol.
     * Soluble in oxygenated solvents.
     * In water= 3560 mg/l at 25 deg C

   from [10]HSDB

   Spectral Properties

     * MAX ABSORPTION (ALCOHOL): 218 NM (LOG E= 4.44); 271 NM (LOG E=
       3.79); 287 NM (LOG E= 3.66)
     * SADTLER REF NUMBER: 4586 (IR, PRISM)
     * Intense mass spectral peaks: 117 m/z (100%), 90 m/z (33%), 89 m/z
       (21%), 118 m/z (9%)
     * IR: 415 (Sadtler Research Laboratories IR Grating Collection)
     * UV: 1269 (Sadtler Research Laboratories Spectral Collection)
     * NMR: 473 (Sadtler Research Laboratories Spectral Collection)
     * MASS: 442 (Atlas of Mass Spectral Data, John Wiley & Sons, New
       York)
     * Intense mass spectral peaks: 63 m/z

   from [11]HSDB

   Vapor Pressure
        0.0122 mm Hg at 25 deg C
   from [12]HSDB

   Other Chemical/Physical Properties

     * CONGEALING POINT: MORE THAN 51 DEG C (AFTER BEING DRIED OVER
       SULFURIC ACID)
     * Heat of Formation= 1.5660X10+8 J/kmol; Heat of Fusion at the
       Melting Point= 9.0000X10+6 J/kmol
     * Enthalpy of vaporization= 597.5 kJ/kg from 10.3 to 27.4 deg C
     * hydroxyl radical rate constant = 1.54X10-10 cu-cm/molc sec @ 25 deg
       C

   from [13]HSDB

   Computed Properties
   Molecular Weight                  117.14788 [g/mol]
   Molecular Formula                 C[8]H[7]N
   XLogP3                            2.1
   H-Bond Donor                      1
   H-Bond Acceptor                   0
   Rotatable Bond Count              0
   Exact Mass                        117.057849
   MonoIsotopic Mass                 117.057849
   Topological Polar Surface Area    15.8
   Heavy Atom Count                  9
   Formal Charge                     0
   Complexity                        101
   Isotope Atom Count                0
   Defined Atom Stereocenter Count   0
   Undefined Atom Stereocenter Count 0
   Defined Bond Stereocenter Count   0
   Undefined Bond Stereocenter Count 0
   Covalently-Bonded Unit Count      1
   Feature 3D Donor Count            1
   Feature 3D Cation Count           1
   Feature 3D Ring Count             2
   Effective Rotor Count             0
   Conformer Sampling RMSD           0.4
   CID Conformer Count               [14]1

References

   1. http://toxnet.nlm.nih.gov/cgi-bin/sis/search/r?dbs+hsdb:@term+@rn+@rel+120-72-9
   2. http://toxnet.nlm.nih.gov/cgi-bin/sis/search/r?dbs+hsdb:@term+@rn+@rel+120-72-9
   3. http://toxnet.nlm.nih.gov/cgi-bin/sis/search/r?dbs+hsdb:@term+@rn+@rel+120-72-9
   4. http://toxnet.nlm.nih.gov/cgi-bin/sis/search/r?dbs+hsdb:@term+@rn+@rel+120-72-9
   5. http://toxnet.nlm.nih.gov/cgi-bin/sis/search/r?dbs+hsdb:@term+@rn+@rel+120-72-9
   6. http://www.ncbi.nlm.nih.gov/entrez/query.fcgi?cmd=Retrieve&db=pubmed&dopt=Abstract&list_uids=14173565
   7. http://toxnet.nlm.nih.gov/cgi-bin/sis/search/r?dbs+hsdb:@term+@rn+@rel+120-72-9
   8. http://toxnet.nlm.nih.gov/cgi-bin/sis/search/r?dbs+hsdb:@term+@rn+@rel+120-72-9
   9. http://toxnet.nlm.nih.gov/cgi-bin/sis/search/r?dbs+hsdb:@term+@rn+@rel+120-72-9
  10. http://toxnet.nlm.nih.gov/cgi-bin/sis/search/r?dbs+hsdb:@term+@rn+@rel+120-72-9
  11. http://toxnet.nlm.nih.gov/cgi-bin/sis/search/r?dbs+hsdb:@term+@rn+@rel+120-72-9
  12. http://toxnet.nlm.nih.gov/cgi-bin/sis/search/r?dbs+hsdb:@term+@rn+@rel+120-72-9
  13. http://toxnet.nlm.nih.gov/cgi-bin/sis/search/r?dbs+hsdb:@term+@rn+@rel+120-72-9
  14. http://pubchem.ncbi.nlm.nih.gov/vw3d/vw3d.cgi?cid=798
