12687
  -OEChem-06261207152D

 53 52  0     0  0  0  0  0  0999 V2000
   14.9904    0.5670    0.0000 O   0  0  0  0  0  0  0  0  0  0  0  0
   14.1244   -0.9330    0.0000 O   0  0  0  0  0  0  0  0  0  0  0  0
   12.3923    0.0670    0.0000 N   0  3  0  0  0  0  0  0  0  0  0  0
   11.5263   -0.4330    0.0000 C   0  0  0  0  0  0  0  0  0  0  0  0
   10.6603    0.0670    0.0000 C   0  0  0  0  0  0  0  0  0  0  0  0
    9.7942   -0.4330    0.0000 C   0  0  0  0  0  0  0  0  0  0  0  0
   13.2583    0.5670    0.0000 C   0  0  0  0  0  0  0  0  0  0  0  0
    8.9282    0.0670    0.0000 C   0  0  0  0  0  0  0  0  0  0  0  0
   11.8923    0.9330    0.0000 C   0  0  0  0  0  0  0  0  0  0  0  0
   12.8923   -0.7990    0.0000 C   0  0  0  0  0  0  0  0  0  0  0  0
    8.0622   -0.4330    0.0000 C   0  0  0  0  0  0  0  0  0  0  0  0
    7.1962    0.0670    0.0000 C   0  0  0  0  0  0  0  0  0  0  0  0
    6.3301   -0.4330    0.0000 C   0  0  0  0  0  0  0  0  0  0  0  0
    5.4641    0.0670    0.0000 C   0  0  0  0  0  0  0  0  0  0  0  0
    4.5981   -0.4330    0.0000 C   0  0  0  0  0  0  0  0  0  0  0  0
   14.1244    0.0670    0.0000 C   0  0  0  0  0  0  0  0  0  0  0  0
    3.7320    0.0670    0.0000 C   0  0  0  0  0  0  0  0  0  0  0  0
    2.8660   -0.4330    0.0000 C   0  0  0  0  0  0  0  0  0  0  0  0
    2.0000    0.0670    0.0000 C   0  0  0  0  0  0  0  0  0  0  0  0
   11.1278   -0.9080    0.0000 H   0  0  0  0  0  0  0  0  0  0  0  0
   11.9248   -0.9080    0.0000 H   0  0  0  0  0  0  0  0  0  0  0  0
   11.0588    0.5419    0.0000 H   0  0  0  0  0  0  0  0  0  0  0  0
   10.2617    0.5419    0.0000 H   0  0  0  0  0  0  0  0  0  0  0  0
    9.3957   -0.9080    0.0000 H   0  0  0  0  0  0  0  0  0  0  0  0
   10.1928   -0.9080    0.0000 H   0  0  0  0  0  0  0  0  0  0  0  0
   13.6569    1.0419    0.0000 H   0  0  0  0  0  0  0  0  0  0  0  0
   12.8598    1.0419    0.0000 H   0  0  0  0  0  0  0  0  0  0  0  0
    9.3267    0.5419    0.0000 H   0  0  0  0  0  0  0  0  0  0  0  0
    8.5297    0.5419    0.0000 H   0  0  0  0  0  0  0  0  0  0  0  0
   12.4292    1.2430    0.0000 H   0  0  0  0  0  0  0  0  0  0  0  0
   11.5823    1.4700    0.0000 H   0  0  0  0  0  0  0  0  0  0  0  0
   11.3554    0.6230    0.0000 H   0  0  0  0  0  0  0  0  0  0  0  0
   12.3554   -1.1090    0.0000 H   0  0  0  0  0  0  0  0  0  0  0  0
   13.2023   -1.3360    0.0000 H   0  0  0  0  0  0  0  0  0  0  0  0
   13.4292   -0.4890    0.0000 H   0  0  0  0  0  0  0  0  0  0  0  0
    7.6636   -0.9080    0.0000 H   0  0  0  0  0  0  0  0  0  0  0  0
    8.4607   -0.9080    0.0000 H   0  0  0  0  0  0  0  0  0  0  0  0
    7.5947    0.5419    0.0000 H   0  0  0  0  0  0  0  0  0  0  0  0
    6.7976    0.5419    0.0000 H   0  0  0  0  0  0  0  0  0  0  0  0
    5.9316   -0.9080    0.0000 H   0  0  0  0  0  0  0  0  0  0  0  0
    6.7287   -0.9080    0.0000 H   0  0  0  0  0  0  0  0  0  0  0  0
    5.8626    0.5419    0.0000 H   0  0  0  0  0  0  0  0  0  0  0  0
    5.0656    0.5419    0.0000 H   0  0  0  0  0  0  0  0  0  0  0  0
    4.1996   -0.9080    0.0000 H   0  0  0  0  0  0  0  0  0  0  0  0
    4.9966   -0.9080    0.0000 H   0  0  0  0  0  0  0  0  0  0  0  0
    4.1306    0.5419    0.0000 H   0  0  0  0  0  0  0  0  0  0  0  0
    3.3335    0.5419    0.0000 H   0  0  0  0  0  0  0  0  0  0  0  0
    2.4675   -0.9080    0.0000 H   0  0  0  0  0  0  0  0  0  0  0  0
    3.2646   -0.9080    0.0000 H   0  0  0  0  0  0  0  0  0  0  0  0
    2.3100    0.6039    0.0000 H   0  0  0  0  0  0  0  0  0  0  0  0
    1.4631    0.3770    0.0000 H   0  0  0  0  0  0  0  0  0  0  0  0
    1.6900   -0.4699    0.0000 H   0  0  0  0  0  0  0  0  0  0  0  0
   15.5273    0.2570    0.0000 H   0  0  0  0  0  0  0  0  0  0  0  0
  1 16  1  0  0  0  0
  1 53  1  0  0  0  0
  2 16  2  0  0  0  0
  3  4  1  0  0  0  0
  3  7  1  0  0  0  0
  3  9  1  0  0  0  0
  3 10  1  0  0  0  0
  4  5  1  0  0  0  0
  4 20  1  0  0  0  0
  4 21  1  0  0  0  0
  5  6  1  0  0  0  0
  5 22  1  0  0  0  0
  5 23  1  0  0  0  0
  6  8  1  0  0  0  0
  6 24  1  0  0  0  0
  6 25  1  0  0  0  0
  7 16  1  0  0  0  0
  7 26  1  0  0  0  0
  7 27  1  0  0  0  0
  8 11  1  0  0  0  0
  8 28  1  0  0  0  0
  8 29  1  0  0  0  0
  9 30  1  0  0  0  0
  9 31  1  0  0  0  0
  9 32  1  0  0  0  0
 10 33  1  0  0  0  0
 10 34  1  0  0  0  0
 10 35  1  0  0  0  0
 11 12  1  0  0  0  0
 11 36  1  0  0  0  0
 11 37  1  0  0  0  0
 12 13  1  0  0  0  0
 12 38  1  0  0  0  0
 12 39  1  0  0  0  0
 13 14  1  0  0  0  0
 13 40  1  0  0  0  0
 13 41  1  0  0  0  0
 14 15  1  0  0  0  0
 14 42  1  0  0  0  0
 14 43  1  0  0  0  0
 15 17  1  0  0  0  0
 15 44  1  0  0  0  0
 15 45  1  0  0  0  0
 17 18  1  0  0  0  0
 17 46  1  0  0  0  0
 17 47  1  0  0  0  0
 18 19  1  0  0  0  0
 18 48  1  0  0  0  0
 18 49  1  0  0  0  0
 19 50  1  0  0  0  0
 19 51  1  0  0  0  0
 19 52  1  0  0  0  0
M  CHG  1   3   1
M  END
> <PUBCHEM_COMPOUND_CID>
12687

> <PUBCHEM_COMPOUND_CANONICALIZED>
1

> <PUBCHEM_CACTVS_COMPLEXITY>
227

> <PUBCHEM_CACTVS_HBOND_ACCEPTOR>
2

> <PUBCHEM_CACTVS_HBOND_DONOR>
1

> <PUBCHEM_CACTVS_ROTATABLE_BOND>
13

> <PUBCHEM_CACTVS_SUBSKEYS>
AAADcfB6MAAAAAAAAAAAAAAAAAAAAAAAAAAAAAAAAAAAAAAAAAAAHgAACAAACADBgAQCCAMAAgAIAACQCAAAAAAAAAAAAACIAAACAAIAgCAEAAAAAACQAAEQgIAAAAAAAAAAAAAAAAAAAAAAAAAAAAAAAA==

> <PUBCHEM_IUPAC_OPENEYE_NAME>
carboxymethyl-dodecyl-dimethyl-ammonium

> <PUBCHEM_IUPAC_CAS_NAME>
carboxymethyl-dodecyl-dimethylammonium

> <PUBCHEM_IUPAC_NAME>
carboxymethyl-dodecyl-dimethylazanium

> <PUBCHEM_IUPAC_SYSTEMATIC_NAME>
dodecyl-(2-hydroxy-2-oxoethyl)-dimethyl-azanium

> <PUBCHEM_IUPAC_TRADITIONAL_NAME>
carboxymethyl-lauryl-dimethyl-ammonium

> <PUBCHEM_IUPAC_INCHI>
InChI=1S/C16H33NO2/c1-4-5-6-7-8-9-10-11-12-13-14-17(2,3)15-16(18)19/h4-15H2,1-3H3/p+1

> <PUBCHEM_IUPAC_INCHIKEY>
DVEKCXOJTLDBFE-UHFFFAOYSA-O

> <PUBCHEM_XLOGP3_AA>
5.5

> <PUBCHEM_EXACT_MASS>
272.258954

> <PUBCHEM_MOLECULAR_FORMULA>
C16H34NO2+

> <PUBCHEM_MOLECULAR_WEIGHT>
272.44666

> <PUBCHEM_OPENEYE_CAN_SMILES>
CCCCCCCCCCCC[N+](C)(C)CC(=O)O

> <PUBCHEM_OPENEYE_ISO_SMILES>
CCCCCCCCCCCC[N+](C)(C)CC(=O)O

> <PUBCHEM_CACTVS_TPSA>
37.3

> <PUBCHEM_MONOISOTOPIC_WEIGHT>
272.258954

> <PUBCHEM_TOTAL_CHARGE>
1

> <PUBCHEM_HEAVY_ATOM_COUNT>
19

> <PUBCHEM_ATOM_DEF_STEREO_COUNT>
0

> <PUBCHEM_ATOM_UDEF_STEREO_COUNT>
0

> <PUBCHEM_BOND_DEF_STEREO_COUNT>
0

> <PUBCHEM_BOND_UDEF_STEREO_COUNT>
0

> <PUBCHEM_ISOTOPIC_ATOM_COUNT>
0

> <PUBCHEM_COMPONENT_COUNT>
1

> <PUBCHEM_CACTVS_TAUTO_COUNT>
1

> <PUBCHEM_COORDINATE_TYPE>
1
5
255

$$$$

