5283892
  -OEChem-07051213102D

 69 72  0     1  0  0  0  0  0999 V2000
    7.0628    1.1763    0.0000 O   0  0  0  0  0  0  0  0  0  0  0  0
    2.5357   -3.3760    0.0000 O   0  0  0  0  0  0  0  0  0  0  0  0
    9.8070    2.8326    0.0000 O   0  0  0  0  0  0  0  0  0  0  0  0
   11.7640    3.2450    0.0000 O   0  0  0  0  0  0  0  0  0  0  0  0
   12.1212    1.5502    0.0000 O   0  0  0  0  0  0  0  0  0  0  0  0
    7.9288   -0.3237    0.0000 C   0  0  1  0  0  0  0  0  0  0  0  0
    7.9288   -1.3237    0.0000 C   0  0  2  0  0  0  0  0  0  0  0  0
    7.0628   -1.8237    0.0000 C   0  0  1  0  0  0  0  0  0  0  0  0
    6.1968   -1.3237    0.0000 C   0  0  1  0  0  0  0  0  0  0  0  0
    5.2868   -1.8306    0.0000 C   0  0  2  0  0  0  0  0  0  0  0  0
    8.8750   -0.0190    0.0000 C   0  0  2  0  0  0  0  0  0  0  0  0
    7.0628    0.1763    0.0000 C   0  0  2  0  0  0  0  0  0  0  0  0
    6.1968   -0.3237    0.0000 C   0  0  0  0  0  0  0  0  0  0  0  0
    5.2787   -2.8722    0.0000 C   0  0  2  0  0  0  0  0  0  0  0  0
    8.8750   -1.6285    0.0000 C   0  0  0  0  0  0  0  0  0  0  0  0
    7.0789   -2.8652    0.0000 C   0  0  0  0  0  0  0  0  0  0  0  0
    9.4586   -0.8237    0.0000 C   0  0  0  0  0  0  0  0  0  0  0  0
    6.1808   -3.3930    0.0000 C   0  0  0  0  0  0  0  0  0  0  0  0
    4.3599   -1.2665    0.0000 C   0  0  0  0  0  0  0  0  0  0  0  0
    7.9288    0.6763    0.0000 C   0  0  0  0  0  0  0  0  0  0  0  0
    9.1857    0.9315    0.0000 C   0  0  1  0  0  0  0  0  0  0  0  0
    4.3433   -3.4219    0.0000 C   0  0  0  0  0  0  0  0  0  0  0  0
    5.2945   -0.8306    0.0000 C   0  0  0  0  0  0  0  0  0  0  0  0
    3.4120   -1.7944    0.0000 C   0  0  0  0  0  0  0  0  0  0  0  0
    3.4037   -2.8794    0.0000 C   0  0  1  0  0  0  0  0  0  0  0  0
   10.1642    1.1378    0.0000 C   0  0  0  0  0  0  0  0  0  0  0  0
    8.5179    1.6758    0.0000 C   0  0  0  0  0  0  0  0  0  0  0  0
   10.4749    2.0883    0.0000 C   0  0  2  0  0  0  0  0  0  0  0  0
   11.4534    2.2945    0.0000 C   0  0  0  0  0  0  0  0  0  0  0  0
    8.0188   -2.1690    0.0000 H   0  0  0  0  0  0  0  0  0  0  0  0
    7.8022   -2.2430    0.0000 H   0  0  0  0  0  0  0  0  0  0  0  0
    6.9329   -0.8987    0.0000 H   0  0  0  0  0  0  0  0  0  0  0  0
    9.7148    0.1129    0.0000 H   0  0  0  0  0  0  0  0  0  0  0  0
    7.5997    0.4863    0.0000 H   0  0  0  0  0  0  0  0  0  0  0  0
    5.9847    0.2589    0.0000 H   0  0  0  0  0  0  0  0  0  0  0  0
    5.5862   -0.4314    0.0000 H   0  0  0  0  0  0  0  0  0  0  0  0
    5.2820   -3.7222    0.0000 H   0  0  0  0  0  0  0  0  0  0  0  0
    8.6240   -2.1954    0.0000 H   0  0  0  0  0  0  0  0  0  0  0  0
    9.4124   -1.9377    0.0000 H   0  0  0  0  0  0  0  0  0  0  0  0
    7.2969   -3.4456    0.0000 H   0  0  0  0  0  0  0  0  0  0  0  0
    7.6880   -2.7497    0.0000 H   0  0  0  0  0  0  0  0  0  0  0  0
    9.9195   -1.2384    0.0000 H   0  0  0  0  0  0  0  0  0  0  0  0
    9.9195   -0.4090    0.0000 H   0  0  0  0  0  0  0  0  0  0  0  0
    5.7835   -3.8690    0.0000 H   0  0  0  0  0  0  0  0  0  0  0  0
    6.5818   -3.8659    0.0000 H   0  0  0  0  0  0  0  0  0  0  0  0
    4.7681   -0.7998    0.0000 H   0  0  0  0  0  0  0  0  0  0  0  0
    3.9700   -0.7844    0.0000 H   0  0  0  0  0  0  0  0  0  0  0  0
    8.5488    0.6763    0.0000 H   0  0  0  0  0  0  0  0  0  0  0  0
    7.9288    1.2963    0.0000 H   0  0  0  0  0  0  0  0  0  0  0  0
    7.3088    0.6763    0.0000 H   0  0  0  0  0  0  0  0  0  0  0  0
    9.3783    1.5208    0.0000 H   0  0  0  0  0  0  0  0  0  0  0  0
    3.9460   -3.8979    0.0000 H   0  0  0  0  0  0  0  0  0  0  0  0
    4.7443   -3.8948    0.0000 H   0  0  0  0  0  0  0  0  0  0  0  0
    5.9145   -0.8354    0.0000 H   0  0  0  0  0  0  0  0  0  0  0  0
    5.2993   -0.2106    0.0000 H   0  0  0  0  0  0  0  0  0  0  0  0
    4.6745   -0.8258    0.0000 H   0  0  0  0  0  0  0  0  0  0  0  0
    3.2075   -1.2092    0.0000 H   0  0  0  0  0  0  0  0  0  0  0  0
    2.8004   -1.8958    0.0000 H   0  0  0  0  0  0  0  0  0  0  0  0
    2.8686   -2.5663    0.0000 H   0  0  0  0  0  0  0  0  0  0  0  0
    6.5259    1.4863    0.0000 H   0  0  0  0  0  0  0  0  0  0  0  0
   10.1848    0.5181    0.0000 H   0  0  0  0  0  0  0  0  0  0  0  0
   10.7780    1.0504    0.0000 H   0  0  0  0  0  0  0  0  0  0  0  0
    8.9793    2.0899    0.0000 H   0  0  0  0  0  0  0  0  0  0  0  0
    8.1038    2.1373    0.0000 H   0  0  0  0  0  0  0  0  0  0  0  0
    8.0564    1.2618    0.0000 H   0  0  0  0  0  0  0  0  0  0  0  0
   10.6675    2.6776    0.0000 H   0  0  0  0  0  0  0  0  0  0  0  0
    2.0000   -3.0640    0.0000 H   0  0  0  0  0  0  0  0  0  0  0  0
    9.9996    3.4219    0.0000 H   0  0  0  0  0  0  0  0  0  0  0  0
   12.3707    3.3729    0.0000 H   0  0  0  0  0  0  0  0  0  0  0  0
 12  1  1  6  0  0  0
  1 60  1  0  0  0  0
 25  2  1  6  0  0  0
  2 67  1  0  0  0  0
 28  3  1  1  0  0  0
  3 68  1  0  0  0  0
  4 29  1  0  0  0  0
  4 69  1  0  0  0  0
  5 29  2  0  0  0  0
  6  7  1  0  0  0  0
  6 11  1  0  0  0  0
  6 12  1  0  0  0  0
  6 20  1  1  0  0  0
  7  8  1  0  0  0  0
  7 15  1  0  0  0  0
  7 30  1  6  0  0  0
  8  9  1  0  0  0  0
  8 16  1  0  0  0  0
  8 31  1  1  0  0  0
  9 10  1  0  0  0  0
  9 13  1  0  0  0  0
  9 32  1  6  0  0  0
 10 14  1  0  0  0  0
 10 19  1  0  0  0  0
 10 23  1  1  0  0  0
 11 17  1  0  0  0  0
 11 21  1  0  0  0  0
 11 33  1  6  0  0  0
 12 13  1  0  0  0  0
 12 34  1  0  0  0  0
 13 35  1  0  0  0  0
 13 36  1  0  0  0  0
 14 18  1  0  0  0  0
 14 22  1  0  0  0  0
 14 37  1  1  0  0  0
 15 17  1  0  0  0  0
 15 38  1  0  0  0  0
 15 39  1  0  0  0  0
 16 18  1  0  0  0  0
 16 40  1  0  0  0  0
 16 41  1  0  0  0  0
 17 42  1  0  0  0  0
 17 43  1  0  0  0  0
 18 44  1  0  0  0  0
 18 45  1  0  0  0  0
 19 24  1  0  0  0  0
 19 46  1  0  0  0  0
 19 47  1  0  0  0  0
 20 48  1  0  0  0  0
 20 49  1  0  0  0  0
 20 50  1  0  0  0  0
 21 26  1  0  0  0  0
 21 27  1  6  0  0  0
 21 51  1  0  0  0  0
 22 25  1  0  0  0  0
 22 52  1  0  0  0  0
 22 53  1  0  0  0  0
 23 54  1  0  0  0  0
 23 55  1  0  0  0  0
 23 56  1  0  0  0  0
 24 25  1  0  0  0  0
 24 57  1  0  0  0  0
 24 58  1  0  0  0  0
 25 59  1  0  0  0  0
 26 28  1  0  0  0  0
 26 61  1  0  0  0  0
 26 62  1  0  0  0  0
 27 63  1  0  0  0  0
 27 64  1  0  0  0  0
 27 65  1  0  0  0  0
 28 29  1  0  0  0  0
 28 66  1  0  0  0  0
M  END
> <PUBCHEM_COMPOUND_CID>
5283892

> <PUBCHEM_COMPOUND_CANONICALIZED>
1

> <PUBCHEM_CACTVS_COMPLEXITY>
637

> <PUBCHEM_CACTVS_HBOND_ACCEPTOR>
5

> <PUBCHEM_CACTVS_HBOND_DONOR>
4

> <PUBCHEM_CACTVS_ROTATABLE_BOND>
4

> <PUBCHEM_CACTVS_SUBSKEYS>
AAADcfB4OAAAAAAAAAAAAAAAAAAAAYAAAAAwYMAAAAAAAGDAAAAAGgAACAAADxSggAICCAAAAgAIAACQCAIAAAAAAAAAAAFAAAABEBIAAAAAQAAEAAABAAGIyPCPgAAAAAAAAADAAAYAADAAAQAACAAAAA==

> <PUBCHEM_IUPAC_OPENEYE_NAME>
(2R,4R)-4-[(3R,5R,8R,9S,10S,12S,13R,14S,17R)-3,12-dihydroxy-10,13-dimethyl-2,3,4,5,6,7,8,9,11,12,14,15,16,17-tetradecahydro-1H-cyclopenta[a]phenanthren-17-yl]-2-hydroxy-pentanoic acid

> <PUBCHEM_IUPAC_CAS_NAME>
(2R,4R)-4-[(3R,5R,8R,9S,10S,12S,13R,14S,17R)-3,12-dihydroxy-10,13-dimethyl-2,3,4,5,6,7,8,9,11,12,14,15,16,17-tetradecahydro-1H-cyclopenta[a]phenanthren-17-yl]-2-hydroxypentanoic acid

> <PUBCHEM_IUPAC_NAME>
(2R,4R)-4-[(3R,5R,8R,9S,10S,12S,13R,14S,17R)-3,12-dihydroxy-10,13-dimethyl-2,3,4,5,6,7,8,9,11,12,14,15,16,17-tetradecahydro-1H-cyclopenta[a]phenanthren-17-yl]-2-hydroxypentanoic acid

> <PUBCHEM_IUPAC_SYSTEMATIC_NAME>
(2R,4R)-4-[(3R,5R,8R,9S,10S,12S,13R,14S,17R)-10,13-dimethyl-3,12-bis(oxidanyl)-2,3,4,5,6,7,8,9,11,12,14,15,16,17-tetradecahydro-1H-cyclopenta[a]phenanthren-17-yl]-2-oxidanyl-pentanoic acid

> <PUBCHEM_IUPAC_TRADITIONAL_NAME>
(2R,4R)-4-[(3R,5R,8R,9S,10S,12S,13R,14S,17R)-3,12-dihydroxy-10,13-dimethyl-2,3,4,5,6,7,8,9,11,12,14,15,16,17-tetradecahydro-1H-cyclopenta[a]phenanthren-17-yl]-2-hydroxy-valeric acid

> <PUBCHEM_IUPAC_INCHI>
InChI=1S/C24H40O5/c1-13(10-20(26)22(28)29)17-6-7-18-16-5-4-14-11-15(25)8-9-23(14,2)19(16)12-21(27)24(17,18)3/h13-21,25-27H,4-12H2,1-3H3,(H,28,29)/t13-,14-,15-,16+,17-,18+,19+,20-,21+,23+,24-/m1/s1

> <PUBCHEM_IUPAC_INCHIKEY>
JVQJVQQIJKFTBS-OIQRMTBLSA-N

> <PUBCHEM_XLOGP3_AA>
4.4

> <PUBCHEM_EXACT_MASS>
408.287574

> <PUBCHEM_MOLECULAR_FORMULA>
C24H40O5

> <PUBCHEM_MOLECULAR_WEIGHT>
408.5714

> <PUBCHEM_OPENEYE_CAN_SMILES>
CC(CC(C(=O)O)O)C1CCC2C1(C(CC3C2CCC4C3(CCC(C4)O)C)O)C

> <PUBCHEM_OPENEYE_ISO_SMILES>
C[C@H](C[C@H](C(=O)O)O)[C@H]1CC[C@@H]2[C@@]1([C@H](C[C@H]3[C@H]2CC[C@H]4[C@@]3(CC[C@H](C4)O)C)O)C

> <PUBCHEM_CACTVS_TPSA>
98

> <PUBCHEM_MONOISOTOPIC_WEIGHT>
408.287574

> <PUBCHEM_TOTAL_CHARGE>
0

> <PUBCHEM_HEAVY_ATOM_COUNT>
29

> <PUBCHEM_ATOM_DEF_STEREO_COUNT>
11

> <PUBCHEM_ATOM_UDEF_STEREO_COUNT>
0

> <PUBCHEM_BOND_DEF_STEREO_COUNT>
0

> <PUBCHEM_BOND_UDEF_STEREO_COUNT>
0

> <PUBCHEM_ISOTOPIC_ATOM_COUNT>
0

> <PUBCHEM_COMPONENT_COUNT>
1

> <PUBCHEM_CACTVS_TAUTO_COUNT>
1

> <PUBCHEM_COORDINATE_TYPE>
1
5
255

> <PUBCHEM_BONDANNOTATIONS>
12  1  6
10  23  5
11  33  6
14  37  5
25  2  6
21  27  6
28  3  5
6  20  5
7  30  6
8  31  5
9  32  6

$$$$

