442969
  -OEChem-07051213002D

 38 41  0     1  0  0  0  0  0999 V2000
    6.4740    0.8802    0.0000 O   0  0  0  0  0  0  0  0  0  0  0  0
    2.0800   -0.1379    0.0000 N   0  0  3  0  0  0  0  0  0  0  0  0
    4.7039    0.8770    0.0000 N   0  0  0  0  0  0  0  0  0  0  0  0
    3.8378    0.3770    0.0000 C   0  0  2  0  0  0  0  0  0  0  0  0
    2.9718    0.8770    0.0000 C   0  0  2  0  0  0  0  0  0  0  0  0
    3.1708   -0.3600    0.0000 C   0  0  1  0  0  0  0  0  0  0  0  0
    3.8378    2.3770    0.0000 C   0  0  1  0  0  0  0  0  0  0  0  0
    2.9718    1.8770    0.0000 C   0  0  0  0  0  0  0  0  0  0  0  0
    2.0000    0.6678    0.0000 C   0  0  0  0  0  0  0  0  0  0  0  0
    2.2329    1.6270    0.0000 C   0  0  0  0  0  0  0  0  0  0  0  0
    4.7039    1.8770    0.0000 C   0  0  0  0  0  0  0  0  0  0  0  0
    3.8218   -0.6645    0.0000 C   0  0  0  0  0  0  0  0  0  0  0  0
    3.5759   -1.2742    0.0000 C   0  0  0  0  0  0  0  0  0  0  0  0
    5.6139    0.3702    0.0000 C   0  0  0  0  0  0  0  0  0  0  0  0
    4.7198   -1.1922    0.0000 C   0  0  0  0  0  0  0  0  0  0  0  0
    5.6219   -0.6714    0.0000 C   0  0  0  0  0  0  0  0  0  0  0  0
    2.9867   -2.0822    0.0000 C   0  0  0  0  0  0  0  0  0  0  0  0
    3.3919   -2.9965    0.0000 C   0  0  0  0  0  0  0  0  0  0  0  0
    2.1731    1.1678    0.0000 H   0  0  0  0  0  0  0  0  0  0  0  0
    2.7822   -0.8431    0.0000 H   0  0  0  0  0  0  0  0  0  0  0  0
    3.8746    3.2262    0.0000 H   0  0  0  0  0  0  0  0  0  0  0  0
    2.7598    2.4596    0.0000 H   0  0  0  0  0  0  0  0  0  0  0  0
    2.3612    1.7694    0.0000 H   0  0  0  0  0  0  0  0  0  0  0  0
    1.8925    1.2784    0.0000 H   0  0  0  0  0  0  0  0  0  0  0  0
    1.3858    0.5834    0.0000 H   0  0  0  0  0  0  0  0  0  0  0  0
    2.0720    2.2258    0.0000 H   0  0  0  0  0  0  0  0  0  0  0  0
    1.6153    1.5725    0.0000 H   0  0  0  0  0  0  0  0  0  0  0  0
    5.3144    1.7694    0.0000 H   0  0  0  0  0  0  0  0  0  0  0  0
    4.9159    2.4596    0.0000 H   0  0  0  0  0  0  0  0  0  0  0  0
    3.2813   -0.9682    0.0000 H   0  0  0  0  0  0  0  0  0  0  0  0
    4.0058   -1.7210    0.0000 H   0  0  0  0  0  0  0  0  0  0  0  0
    4.0905   -0.9284    0.0000 H   0  0  0  0  0  0  0  0  0  0  0  0
    4.7174   -1.8122    0.0000 H   0  0  0  0  0  0  0  0  0  0  0  0
    5.8354   -1.2535    0.0000 H   0  0  0  0  0  0  0  0  0  0  0  0
    6.2319   -0.5606    0.0000 H   0  0  0  0  0  0  0  0  0  0  0  0
    2.3702   -2.0163    0.0000 H   0  0  0  0  0  0  0  0  0  0  0  0
    3.0266   -3.4974    0.0000 H   0  0  0  0  0  0  0  0  0  0  0  0
    4.0084   -3.0623    0.0000 H   0  0  0  0  0  0  0  0  0  0  0  0
  1 14  2  0  0  0  0
  2  6  1  0  0  0  0
  2  9  1  0  0  0  0
  2 10  1  0  0  0  0
  3  4  1  0  0  0  0
  3 11  1  0  0  0  0
  3 14  1  0  0  0  0
  4  5  1  0  0  0  0
  4  6  1  0  0  0  0
  4 12  1  6  0  0  0
  5  8  1  0  0  0  0
  5  9  1  0  0  0  0
  5 19  1  6  0  0  0
  6 13  1  1  0  0  0
  6 20  1  0  0  0  0
  7  8  1  0  0  0  0
  7 10  1  0  0  0  0
  7 11  1  0  0  0  0
  7 21  1  6  0  0  0
  8 22  1  0  0  0  0
  8 23  1  0  0  0  0
  9 24  1  0  0  0  0
  9 25  1  0  0  0  0
 10 26  1  0  0  0  0
 10 27  1  0  0  0  0
 11 28  1  0  0  0  0
 11 29  1  0  0  0  0
 12 15  2  0  0  0  0
 12 30  1  0  0  0  0
 13 17  1  0  0  0  0
 13 31  1  0  0  0  0
 13 32  1  0  0  0  0
 14 16  1  0  0  0  0
 15 16  1  0  0  0  0
 15 33  1  0  0  0  0
 16 34  1  0  0  0  0
 16 35  1  0  0  0  0
 17 18  2  0  0  0  0
 17 36  1  0  0  0  0
 18 37  1  0  0  0  0
 18 38  1  0  0  0  0
M  END
> <PUBCHEM_COMPOUND_CID>
442969

> <PUBCHEM_COMPOUND_CANONICALIZED>
1

> <PUBCHEM_CACTVS_COMPLEXITY>
444

> <PUBCHEM_CACTVS_HBOND_ACCEPTOR>
2

> <PUBCHEM_CACTVS_HBOND_DONOR>
0

> <PUBCHEM_CACTVS_ROTATABLE_BOND>
2

> <PUBCHEM_CACTVS_SUBSKEYS>
AAADceBzIAAAAAAAAAAAAAAAAAAAAWAAAAAsWIAABYAAAACAAAAAHgAAAAAADajBgAQAAAMAAACIACFSEACAAAAgAAAICAEIAAgAQAIAwQAUAAAAhgCIAAMQgMAOgAAAAAAAAAAAAAAAAAAAAAAAAAAAAA==

> <PUBCHEM_IUPAC_INCHI>
InChI=1S/C15H20N2O/c1-2-4-13-15-6-3-5-14(18)17(15)9-11-7-12(15)10-16(13)8-11/h2-3,6,11-13H,1,4-5,7-10H2/t11-,12+,13+,15+/m0/s1

> <PUBCHEM_IUPAC_INCHIKEY>
DEDKBUWNGGQJMQ-KYEXWDHISA-N

> <PUBCHEM_XLOGP3_AA>
1.3

> <PUBCHEM_EXACT_MASS>
244.157563

> <PUBCHEM_MOLECULAR_FORMULA>
C15H20N2O

> <PUBCHEM_MOLECULAR_WEIGHT>
244.3321

> <PUBCHEM_OPENEYE_CAN_SMILES>
C=CCC1C23C=CCC(=O)N2CC4CC3CN1C4

> <PUBCHEM_OPENEYE_ISO_SMILES>
C=CC[C@@H]1[C@]23C=CCC(=O)N2C[C@H]4C[C@@H]3CN1C4

> <PUBCHEM_CACTVS_TPSA>
23.6

> <PUBCHEM_MONOISOTOPIC_WEIGHT>
244.157563

> <PUBCHEM_TOTAL_CHARGE>
0

> <PUBCHEM_HEAVY_ATOM_COUNT>
18

> <PUBCHEM_ATOM_DEF_STEREO_COUNT>
4

> <PUBCHEM_ATOM_UDEF_STEREO_COUNT>
0

> <PUBCHEM_BOND_DEF_STEREO_COUNT>
0

> <PUBCHEM_BOND_UDEF_STEREO_COUNT>
0

> <PUBCHEM_ISOTOPIC_ATOM_COUNT>
0

> <PUBCHEM_COMPONENT_COUNT>
1

> <PUBCHEM_CACTVS_TAUTO_COUNT>
2

> <PUBCHEM_COORDINATE_TYPE>
1
5
255

> <PUBCHEM_BONDANNOTATIONS>
4  12  6
5  19  6
6  13  5
7  21  6

$$$$

