   Melting Point
        112.5-113.5 deg C
   from [1]HSDB

   Dissociation Constants
        pKa = 6.5 (dimethylformamide)
   from [2]HSDB

   Spectral Properties

     * Specific optical rotation at 25 deg C = -63 deg for D (sodium) line
       (c = 1 in ethanol)
     * UV max (ethanol-water 2:1) = 284 nm (sigma 126)

   from [3]HSDB

   Other Chemical/Physical Properties
        MW: 140-142 deg C. Specific optical rotation at 25 deg C = -37 deg
   for D (sodium) line (c = 1 in ethanol) /Sodium salt/
   from [4]HSDB

   Computed Properties
   Molecular Weight                  750.9986 [g/mol]
   Molecular Formula                 C[42]H[70]O[11]
   XLogP3-AA                         5.7
   H-Bond Donor                      4
   H-Bond Acceptor                   11
   Rotatable Bond Count              12
   Tautomer Count                    3
   Exact Mass                        750.491813
   MonoIsotopic Mass                 750.491813
   Topological Polar Surface Area    161
   Heavy Atom Count                  53
   Formal Charge                     0
   Complexity                        1320
   Isotope Atom Count                0
   Defined Atom Stereocenter Count   18
   Undefined Atom Stereocenter Count 0
   Defined Bond Stereocenter Count   0
   Undefined Bond Stereocenter Count 0
   Covalently-Bonded Unit Count      1

References

   1. http://toxnet.nlm.nih.gov/cgi-bin/sis/search/r?dbs+hsdb:@term+@rn+@rel+53003-10-4
   2. http://toxnet.nlm.nih.gov/cgi-bin/sis/search/r?dbs+hsdb:@term+@rn+@rel+53003-10-4
   3. http://toxnet.nlm.nih.gov/cgi-bin/sis/search/r?dbs+hsdb:@term+@rn+@rel+53003-10-4
   4. http://toxnet.nlm.nih.gov/cgi-bin/sis/search/r?dbs+hsdb:@term+@rn+@rel+53003-10-4
