   Color/Form

     * Viscous amber liquid above 34.4 deg C, solid below
     * Colorless liquid or white crystalline solid
     * Colorless solid

   from [1]HSDB

   Odor
        Camphor-like odor
   from [2]HSDB

   Melting Point
        34.4 deg C
   from [3]HSDB

   Corrosivity
        Corrosive to copper, but not to mild iron, steel, tin, or brass.
   from [4]HSDB

   Density/Specific Gravity
        1.23 @ 20 DEG C/20 DEG C
   from [5]HSDB

   Octanol/Water Partition Coefficient
        log Kow = 4.20
   from [6]HSDB

   Solubilities

     * Solubility at 20 deg C: 300 mg/l kerosene; miscible with acetone,
       ethanol, methyl isobutyl ketone, xylene.
     * In water, 25 mg/l @ 25 deg C

   from [7]HSDB

   Spectral Properties
        INDEX OF REFRACTION: 1.5438 @ 30 DEG C/D
   from [8]HSDB

   Vapor Pressure
        8.0X10-7 mm Hg @ 25 deg C
   from [9]HSDB

   Other Chemical/Physical Properties
        ... amber solid or supercooled liquid with a camphor-like odor ...
   decomposes at 155 deg C /Technical grade/
   from [10]HSDB

   Computed Properties
   Molecular Weight                  397.513422 [g/mol]
   Molecular Formula                 C[14]H[24]NO[4]PS[3]
   XLogP3                            4.2
   H-Bond Donor                      1
   H-Bond Acceptor                   7
   Rotatable Bond Count              10
   Exact Mass                        397.060508
   MonoIsotopic Mass                 397.060508
   Topological Polar Surface Area    130
   Heavy Atom Count                  23
   Formal Charge                     0
   Complexity                        471
   Isotope Atom Count                0
   Defined Atom Stereocenter Count   0
   Undefined Atom Stereocenter Count 0
   Defined Bond Stereocenter Count   0
   Undefined Bond Stereocenter Count 0
   Covalently-Bonded Unit Count      1
   Feature 3D Acceptor Count         2
   Feature 3D Donor Count            1
   Feature 3D Hydrophobe Count       2
   Feature 3D Ring Count             1
   Effective Rotor Count             10
   Conformer Sampling RMSD           1
   CID Conformer Count               [11]184

References

   1. http://toxnet.nlm.nih.gov/cgi-bin/sis/search/r?dbs+hsdb:@term+@rn+@rel+741-58-2
   2. http://toxnet.nlm.nih.gov/cgi-bin/sis/search/r?dbs+hsdb:@term+@rn+@rel+741-58-2
   3. http://toxnet.nlm.nih.gov/cgi-bin/sis/search/r?dbs+hsdb:@term+@rn+@rel+741-58-2
   4. http://toxnet.nlm.nih.gov/cgi-bin/sis/search/r?dbs+hsdb:@term+@rn+@rel+741-58-2
   5. http://toxnet.nlm.nih.gov/cgi-bin/sis/search/r?dbs+hsdb:@term+@rn+@rel+741-58-2
   6. http://toxnet.nlm.nih.gov/cgi-bin/sis/search/r?dbs+hsdb:@term+@rn+@rel+741-58-2
   7. http://toxnet.nlm.nih.gov/cgi-bin/sis/search/r?dbs+hsdb:@term+@rn+@rel+741-58-2
   8. http://toxnet.nlm.nih.gov/cgi-bin/sis/search/r?dbs+hsdb:@term+@rn+@rel+741-58-2
   9. http://toxnet.nlm.nih.gov/cgi-bin/sis/search/r?dbs+hsdb:@term+@rn+@rel+741-58-2
  10. http://toxnet.nlm.nih.gov/cgi-bin/sis/search/r?dbs+hsdb:@term+@rn+@rel+741-58-2
  11. http://pubchem.ncbi.nlm.nih.gov/vw3d/vw3d.cgi?cid=12932
