11953972
  -OEChem-07051213022D

112117  0     1  0  0  0  0  0999 V2000
    8.6663   -2.0000    0.0000 O   0  0  0  0  0  0  0  0  0  0  0  0
    8.6663   -1.0000    0.0000 O   0  0  0  0  0  0  0  0  0  0  0  0
    6.0682    0.5000    0.0000 O   0  0  0  0  0  0  0  0  0  0  0  0
    6.0682   -3.5000    0.0000 O   0  0  0  0  0  0  0  0  0  0  0  0
    4.7095    4.4439    0.0000 O   0  0  0  0  0  0  0  0  0  0  0  0
    4.8602    3.9397    0.0000 O   0  0  0  0  0  0  0  0  0  0  0  0
    2.5381    3.5242    0.0000 O   0  0  0  0  0  0  0  0  0  0  0  0
    7.0682    1.5000    0.0000 O   0  0  0  0  0  0  0  0  0  0  0  0
   11.2644    3.5000    0.0000 O   0  0  0  0  0  0  0  0  0  0  0  0
   12.1304    2.0000    0.0000 O   0  0  0  0  0  0  0  0  0  0  0  0
   14.7285    3.5000    0.0000 O   0  0  0  0  0  0  0  0  0  0  0  0
   14.7285    1.5000    0.0000 O   0  0  0  0  0  0  0  0  0  0  0  0
    7.8003   -1.5000    0.0000 C   0  0  2  0  0  0  0  0  0  0  0  0
    6.9343   -2.0000    0.0000 C   0  0  0  0  0  0  0  0  0  0  0  0
    7.8003   -3.5000    0.0000 C   0  0  2  0  0  0  0  0  0  0  0  0
    8.6663   -3.0000    0.0000 C   0  0  1  0  0  0  0  0  0  0  0  0
    6.9343   -1.0000    0.0000 C   0  0  0  0  0  0  0  0  0  0  0  0
    6.9343   -3.0000    0.0000 C   0  0  1  0  0  0  0  0  0  0  0  0
    6.9343    0.0000    0.0000 C   0  0  2  0  0  0  0  0  0  0  0  0
    8.6663    0.0000    0.0000 C   0  0  1  0  0  0  0  0  0  0  0  0
    7.8003    0.5000    0.0000 C   0  0  0  0  0  0  0  0  0  0  0  0
    9.5323   -3.5000    0.0000 C   0  0  0  0  0  0  0  0  0  0  0  0
    5.2022    3.0000    0.0000 C   0  0  2  0  0  0  0  0  0  0  0  0
    5.2022    2.0000    0.0000 C   0  0  2  0  0  0  0  0  0  0  0  0
    4.3083    3.5347    0.0000 C   0  0  1  0  0  0  0  0  0  0  0  0
    7.8003   -4.5000    0.0000 C   0  0  0  0  0  0  0  0  0  0  0  0
    9.5323    0.5000    0.0000 C   0  0  0  0  0  0  0  0  0  0  0  0
    3.4022    3.0208    0.0000 C   0  0  1  0  0  0  0  0  0  0  0  0
    6.0682    3.5000    0.0000 C   0  0  0  0  0  0  0  0  0  0  0  0
    6.0682    1.5000    0.0000 C   0  0  0  0  0  0  0  0  0  0  0  0
    4.3083    1.4653    0.0000 C   0  0  0  0  0  0  0  0  0  0  0  0
    9.5323   -4.5000    0.0000 C   0  0  0  0  0  0  0  0  0  0  0  0
   10.3984   -3.0000    0.0000 C   0  0  0  0  0  0  0  0  0  0  0  0
    3.4022    1.9792    0.0000 C   0  0  0  0  0  0  0  0  0  0  0  0
    5.7031    4.4243    0.0000 C   0  0  0  0  0  0  0  0  0  0  0  0
    9.5323    1.5000    0.0000 C   0  0  0  0  0  0  0  0  0  0  0  0
    6.9343    3.0000    0.0000 C   0  0  0  0  0  0  0  0  0  0  0  0
   10.3984    2.0000    0.0000 C   0  0  0  0  0  0  0  0  0  0  0  0
    2.5381    1.4759    0.0000 C   0  0  0  0  0  0  0  0  0  0  0  0
   10.3984    3.0000    0.0000 C   0  0  2  0  0  0  0  0  0  0  0  0
    9.5323    3.5000    0.0000 C   0  0  2  0  0  0  0  0  0  0  0  0
    7.8003    3.5000    0.0000 C   0  0  0  0  0  0  0  0  0  0  0  0
    8.6663    3.0000    0.0000 C   0  0  0  0  0  0  0  0  0  0  0  0
   11.2644    1.5000    0.0000 C   0  0  0  0  0  0  0  0  0  0  0  0
   12.1304    3.0000    0.0000 C   0  0  2  0  0  0  0  0  0  0  0  0
   12.9965    3.5000    0.0000 C   0  0  0  0  0  0  0  0  0  0  0  0
    9.5323    4.5000    0.0000 C   0  0  0  0  0  0  0  0  0  0  0  0
   13.8625    3.0000    0.0000 C   0  0  1  0  0  0  0  0  0  0  0  0
   13.8625    2.0000    0.0000 C   0  0  2  0  0  0  0  0  0  0  0  0
   12.9965    1.5000    0.0000 C   0  0  2  0  0  0  0  0  0  0  0  0
   12.9965    0.5000    0.0000 C   0  0  0  0  0  0  0  0  0  0  0  0
   14.7285    4.5000    0.0000 C   0  0  0  0  0  0  0  0  0  0  0  0
    6.7222   -1.4174    0.0000 H   0  0  0  0  0  0  0  0  0  0  0  0
    6.3237   -2.1077    0.0000 H   0  0  0  0  0  0  0  0  0  0  0  0
    8.3372   -3.8100    0.0000 H   0  0  0  0  0  0  0  0  0  0  0  0
    9.2033   -2.6900    0.0000 H   0  0  0  0  0  0  0  0  0  0  0  0
    6.3237   -0.8923    0.0000 H   0  0  0  0  0  0  0  0  0  0  0  0
    6.7222   -1.5826    0.0000 H   0  0  0  0  0  0  0  0  0  0  0  0
    6.9343   -3.6200    0.0000 H   0  0  0  0  0  0  0  0  0  0  0  0
    6.1982   -0.4250    0.0000 H   0  0  0  0  0  0  0  0  0  0  0  0
    9.4024   -0.4250    0.0000 H   0  0  0  0  0  0  0  0  0  0  0  0
    8.1988    0.9749    0.0000 H   0  0  0  0  0  0  0  0  0  0  0  0
    7.4018    0.9749    0.0000 H   0  0  0  0  0  0  0  0  0  0  0  0
   10.0693   -3.8100    0.0000 H   0  0  0  0  0  0  0  0  0  0  0  0
    5.2022    1.1500    0.0000 H   0  0  0  0  0  0  0  0  0  0  0  0
    3.6779    4.1048    0.0000 H   0  0  0  0  0  0  0  0  0  0  0  0
    7.1803   -4.5000    0.0000 H   0  0  0  0  0  0  0  0  0  0  0  0
    7.8003   -5.1200    0.0000 H   0  0  0  0  0  0  0  0  0  0  0  0
    8.4203   -4.5000    0.0000 H   0  0  0  0  0  0  0  0  0  0  0  0
    9.7444   -0.0826    0.0000 H   0  0  0  0  0  0  0  0  0  0  0  0
   10.1429    0.6077    0.0000 H   0  0  0  0  0  0  0  0  0  0  0  0
    2.8647    2.7118    0.0000 H   0  0  0  0  0  0  0  0  0  0  0  0
    4.3154    0.8454    0.0000 H   0  0  0  0  0  0  0  0  0  0  0  0
    8.9124   -4.5000    0.0000 H   0  0  0  0  0  0  0  0  0  0  0  0
    9.5323   -5.1200    0.0000 H   0  0  0  0  0  0  0  0  0  0  0  0
   10.1524   -4.5000    0.0000 H   0  0  0  0  0  0  0  0  0  0  0  0
   10.7084   -3.5369    0.0000 H   0  0  0  0  0  0  0  0  0  0  0  0
   10.9353   -2.6900    0.0000 H   0  0  0  0  0  0  0  0  0  0  0  0
   10.0884   -2.4631    0.0000 H   0  0  0  0  0  0  0  0  0  0  0  0
    6.0682   -4.1200    0.0000 H   0  0  0  0  0  0  0  0  0  0  0  0
    6.3047    4.5742    0.0000 H   0  0  0  0  0  0  0  0  0  0  0  0
    5.6337    5.0404    0.0000 H   0  0  0  0  0  0  0  0  0  0  0  0
    8.9954    1.8100    0.0000 H   0  0  0  0  0  0  0  0  0  0  0  0
    4.2776    4.1518    0.0000 H   0  0  0  0  0  0  0  0  0  0  0  0
    7.2444    2.4631    0.0000 H   0  0  0  0  0  0  0  0  0  0  0  0
    2.2261    2.0116    0.0000 H   0  0  0  0  0  0  0  0  0  0  0  0
    2.0024    1.1638    0.0000 H   0  0  0  0  0  0  0  0  0  0  0  0
    2.8502    0.9401    0.0000 H   0  0  0  0  0  0  0  0  0  0  0  0
   10.3984    3.6200    0.0000 H   0  0  0  0  0  0  0  0  0  0  0  0
    2.0000    3.2162    0.0000 H   0  0  0  0  0  0  0  0  0  0  0  0
   10.0693    3.8100    0.0000 H   0  0  0  0  0  0  0  0  0  0  0  0
    7.8003    4.1200    0.0000 H   0  0  0  0  0  0  0  0  0  0  0  0
    8.6663    2.3800    0.0000 H   0  0  0  0  0  0  0  0  0  0  0  0
   10.9544    0.9631    0.0000 H   0  0  0  0  0  0  0  0  0  0  0  0
   11.8013    1.1900    0.0000 H   0  0  0  0  0  0  0  0  0  0  0  0
   11.5744    2.0369    0.0000 H   0  0  0  0  0  0  0  0  0  0  0  0
   11.5935    2.6900    0.0000 H   0  0  0  0  0  0  0  0  0  0  0  0
   13.3950    3.9750    0.0000 H   0  0  0  0  0  0  0  0  0  0  0  0
   12.5979    3.9750    0.0000 H   0  0  0  0  0  0  0  0  0  0  0  0
   10.1524    4.5000    0.0000 H   0  0  0  0  0  0  0  0  0  0  0  0
    9.5323    5.1200    0.0000 H   0  0  0  0  0  0  0  0  0  0  0  0
    8.9124    4.5000    0.0000 H   0  0  0  0  0  0  0  0  0  0  0  0
   13.8625    3.6200    0.0000 H   0  0  0  0  0  0  0  0  0  0  0  0
   13.8625    1.3800    0.0000 H   0  0  0  0  0  0  0  0  0  0  0  0
   12.4595    1.1900    0.0000 H   0  0  0  0  0  0  0  0  0  0  0  0
   12.3765    0.5000    0.0000 H   0  0  0  0  0  0  0  0  0  0  0  0
   12.9965   -0.1200    0.0000 H   0  0  0  0  0  0  0  0  0  0  0  0
   13.6165    0.5000    0.0000 H   0  0  0  0  0  0  0  0  0  0  0  0
   15.2654    1.8100    0.0000 H   0  0  0  0  0  0  0  0  0  0  0  0
   15.3485    4.5000    0.0000 H   0  0  0  0  0  0  0  0  0  0  0  0
   14.7285    5.1200    0.0000 H   0  0  0  0  0  0  0  0  0  0  0  0
   14.1085    4.5000    0.0000 H   0  0  0  0  0  0  0  0  0  0  0  0
 13  1  1  6  0  0  0
  1 16  1  0  0  0  0
  2 13  1  0  0  0  0
  2 20  1  0  0  0  0
  3 19  1  0  0  0  0
  3 30  1  0  0  0  0
 18  4  1  1  0  0  0
  4 80  1  0  0  0  0
  5 25  1  0  0  0  0
  5 35  1  0  0  0  0
 23  6  1  6  0  0  0
  6 84  1  0  0  0  0
 28  7  1  1  0  0  0
  7 90  1  0  0  0  0
  8 30  2  0  0  0  0
 40  9  1  6  0  0  0
 45  9  1  1  0  0  0
 10 45  1  0  0  0  0
 10 50  1  0  0  0  0
 48 11  1  6  0  0  0
 11 52  1  0  0  0  0
 49 12  1  1  0  0  0
 12109  1  0  0  0  0
 13 14  1  0  0  0  0
 13 17  1  0  0  0  0
 14 18  1  0  0  0  0
 14 53  1  0  0  0  0
 14 54  1  0  0  0  0
 15 16  1  0  0  0  0
 15 18  1  0  0  0  0
 15 26  1  1  0  0  0
 15 55  1  0  0  0  0
 16 22  1  6  0  0  0
 16 56  1  0  0  0  0
 17 19  1  0  0  0  0
 17 57  1  0  0  0  0
 17 58  1  0  0  0  0
 18 59  1  0  0  0  0
 19 21  1  0  0  0  0
 19 60  1  6  0  0  0
 20 21  1  0  0  0  0
 20 27  1  0  0  0  0
 20 61  1  6  0  0  0
 21 62  1  0  0  0  0
 21 63  1  0  0  0  0
 22 32  1  0  0  0  0
 22 33  1  0  0  0  0
 22 64  1  0  0  0  0
 23 24  1  0  0  0  0
 23 25  1  0  0  0  0
 23 29  1  0  0  0  0
 24 30  1  0  0  0  0
 24 31  1  0  0  0  0
 24 65  1  1  0  0  0
 25 28  1  0  0  0  0
 25 66  1  6  0  0  0
 26 67  1  0  0  0  0
 26 68  1  0  0  0  0
 26 69  1  0  0  0  0
 27 36  1  0  0  0  0
 27 70  1  0  0  0  0
 27 71  1  0  0  0  0
 28 34  1  0  0  0  0
 28 72  1  0  0  0  0
 29 35  1  0  0  0  0
 29 37  2  0  0  0  0
 31 34  2  0  0  0  0
 31 73  1  0  0  0  0
 32 74  1  0  0  0  0
 32 75  1  0  0  0  0
 32 76  1  0  0  0  0
 33 77  1  0  0  0  0
 33 78  1  0  0  0  0
 33 79  1  0  0  0  0
 34 39  1  0  0  0  0
 35 81  1  0  0  0  0
 35 82  1  0  0  0  0
 36 38  2  0  0  0  0
 36 83  1  0  0  0  0
 37 42  1  0  0  0  0
 37 85  1  0  0  0  0
 38 40  1  0  0  0  0
 38 44  1  0  0  0  0
 39 86  1  0  0  0  0
 39 87  1  0  0  0  0
 39 88  1  0  0  0  0
 40 41  1  0  0  0  0
 40 89  1  0  0  0  0
 41 43  1  0  0  0  0
 41 47  1  6  0  0  0
 41 91  1  0  0  0  0
 42 43  2  0  0  0  0
 42 92  1  0  0  0  0
 43 93  1  0  0  0  0
 44 94  1  0  0  0  0
 44 95  1  0  0  0  0
 44 96  1  0  0  0  0
 45 46  1  0  0  0  0
 45 97  1  0  0  0  0
 46 48  1  0  0  0  0
 46 98  1  0  0  0  0
 46 99  1  0  0  0  0
 47100  1  0  0  0  0
 47101  1  0  0  0  0
 47102  1  0  0  0  0
 48 49  1  0  0  0  0
 48103  1  0  0  0  0
 49 50  1  0  0  0  0
 49104  1  0  0  0  0
 50 51  1  6  0  0  0
 50105  1  0  0  0  0
 51106  1  0  0  0  0
 51107  1  0  0  0  0
 51108  1  0  0  0  0
 52110  1  0  0  0  0
 52111  1  0  0  0  0
 52112  1  0  0  0  0
M  END
> <PUBCHEM_COMPOUND_CID>
11953972

> <PUBCHEM_COMPOUND_CANONICALIZED>
1

> <PUBCHEM_CACTVS_COMPLEXITY>
1420

> <PUBCHEM_CACTVS_HBOND_ACCEPTOR>
12

> <PUBCHEM_CACTVS_HBOND_DONOR>
4

> <PUBCHEM_CACTVS_ROTATABLE_BOND>
4

> <PUBCHEM_CACTVS_SUBSKEYS>
AAADcfB8PAAAAAAAAAAAAAAAAAAAASAAAAAkSJEAAAAAAEAAAAAAGgAACAAADVSwgAMCCAAABgCIAiDSCAAAAAAgAAAICAEAAAgZFBYAIQAiUAAF4AAPsAPK7OzOgAAAAAAAAAAAAAAAAAAAAAAAAAAAAA==

> <PUBCHEM_IUPAC_INCHI>
InChI=1S/C40H60O12/c1-20(2)35-24(6)30(41)18-39(52-35)17-28-15-27(51-39)13-12-22(4)36(50-32-16-31(46-8)34(43)25(7)48-32)21(3)10-9-11-26-19-47-37-33(42)23(5)14-29(38(44)49-28)40(26,37)45/h9-12,14,20-21,24-25,27-37,41-43,45H,13,15-19H2,1-8H3/b10-9+,22-12+,26-11+/t21-,24-,25-,27+,28-,29-,30-,31-,32-,33+,34-,35+,36-,37+,39-,40+/m0/s1

> <PUBCHEM_IUPAC_INCHIKEY>
YIPLIYLHPUXRMG-XUSSLDSFSA-N

> <PUBCHEM_XLOGP3_AA>
2.4

> <PUBCHEM_EXACT_MASS>
732.408477

> <PUBCHEM_MOLECULAR_FORMULA>
C40H60O12

> <PUBCHEM_MOLECULAR_WEIGHT>
732.8972

> <PUBCHEM_OPENEYE_CAN_SMILES>
CC1C=CC=C2COC3C2(C(C=C(C3O)C)C(=O)OC4CC(CC=C(C1OC5CC(C(C(O5)C)O)OC)C)OC6(C4)CC(C(C(O6)C(C)C)C)O)O

> <PUBCHEM_OPENEYE_ISO_SMILES>
C[C@H]1/C=C/C=C/2\CO[C@H]3[C@@]2([C@@H](C=C([C@H]3O)C)C(=O)O[C@H]4C[C@@H](C/C=C(/[C@H]1O[C@H]5C[C@@H]([C@H]([C@@H](O5)C)O)OC)\C)O[C@]6(C4)C[C@@H]([C@@H]([C@H](O6)C(C)C)C)O)O

> <PUBCHEM_CACTVS_TPSA>
163

> <PUBCHEM_MONOISOTOPIC_WEIGHT>
732.408477

> <PUBCHEM_TOTAL_CHARGE>
0

> <PUBCHEM_HEAVY_ATOM_COUNT>
52

> <PUBCHEM_ATOM_DEF_STEREO_COUNT>
16

> <PUBCHEM_ATOM_UDEF_STEREO_COUNT>
0

> <PUBCHEM_BOND_DEF_STEREO_COUNT>
3

> <PUBCHEM_BOND_UDEF_STEREO_COUNT>
0

> <PUBCHEM_ISOTOPIC_ATOM_COUNT>
0

> <PUBCHEM_COMPONENT_COUNT>
1

> <PUBCHEM_CACTVS_TAUTO_COUNT>
1

> <PUBCHEM_COORDINATE_TYPE>
1
5
255

> <PUBCHEM_BONDANNOTATIONS>
13  1  6
48  11  6
49  12  5
15  26  5
16  22  6
19  60  6
20  61  6
24  65  5
25  66  6
18  4  5
41  47  6
50  51  6
23  6  6
28  7  5
40  9  6
45  9  5

$$$$

