   Color/Form
        YELLOWISH-WHITE, AMORPHOUS POWDER
   from [1]HSDB

   Melting Point
        180 DEG C
   from [2]HSDB

   Solubilities
        SOL IN WATER; SLIGHTLY SOL IN ETHER
   from [3]HSDB

   Spectral Properties
        SPECIFIC OPTICAL ROTATION @ 20 DEG C/D (ETHANOL)= +8.0 DEG
   from [4]HSDB

   Other Chemical/Physical Properties
        RETAINS WATER TENACIOUSLY
   from [5]HSDB

   Computed Properties
   Molecular Weight                  673.79024 [g/mol]
   Molecular Formula                 C[36]H[51]NO[11]
   XLogP3-AA                         1
   H-Bond Donor                      6
   H-Bond Acceptor                   12
   Rotatable Bond Count              5
   Exact Mass                        673.346211
   MonoIsotopic Mass                 673.346211
   Topological Polar Surface Area    179
   Heavy Atom Count                  48
   Formal Charge                     0
   Complexity                        1340
   Isotope Atom Count                0
   Defined Atom Stereocenter Count   7
   Undefined Atom Stereocenter Count 7
   Defined Bond Stereocenter Count   0
   Undefined Bond Stereocenter Count 0
   Covalently-Bonded Unit Count      1

References

   1. http://toxnet.nlm.nih.gov/cgi-bin/sis/search/r?dbs+hsdb:@term+@rn+@rel+71-62-5
   2. http://toxnet.nlm.nih.gov/cgi-bin/sis/search/r?dbs+hsdb:@term+@rn+@rel+71-62-5
   3. http://toxnet.nlm.nih.gov/cgi-bin/sis/search/r?dbs+hsdb:@term+@rn+@rel+71-62-5
   4. http://toxnet.nlm.nih.gov/cgi-bin/sis/search/r?dbs+hsdb:@term+@rn+@rel+71-62-5
   5. http://toxnet.nlm.nih.gov/cgi-bin/sis/search/r?dbs+hsdb:@term+@rn+@rel+71-62-5
