4266
  -OEChem-07051212552D

 14 14  0     0  0  0  0  0  0999 V2000
    2.2788   -0.9837    0.0000 O   0  0  0  0  0  0  0  0  0  0  0  0
    4.8479   -1.2927    0.0000 O   0  0  0  0  0  0  0  0  0  0  0  0
    3.0878   -1.5715    0.0000 N   0  0  0  0  0  0  0  0  0  0  0  0
    2.4067    1.6899    0.0000 N   0  0  0  0  0  0  0  0  0  0  0  0
    2.5878   -0.0327    0.0000 C   0  0  0  0  0  0  0  0  0  0  0  0
    2.0000    0.7764    0.0000 C   0  0  0  0  0  0  0  0  0  0  0  0
    3.5878   -0.0327    0.0000 C   0  0  0  0  0  0  0  0  0  0  0  0
    3.8968   -0.9837    0.0000 C   0  0  0  0  0  0  0  0  0  0  0  0
    1.4860    1.1231    0.0000 H   0  0  0  0  0  0  0  0  0  0  0  0
    1.5693    0.3304    0.0000 H   0  0  0  0  0  0  0  0  0  0  0  0
    3.9522    0.4689    0.0000 H   0  0  0  0  0  0  0  0  0  0  0  0
    3.0878   -2.1915    0.0000 H   0  0  0  0  0  0  0  0  0  0  0  0
    2.0423    2.1915    0.0000 H   0  0  0  0  0  0  0  0  0  0  0  0
    3.0233    1.7547    0.0000 H   0  0  0  0  0  0  0  0  0  0  0  0
  1  3  1  0  0  0  0
  1  5  1  0  0  0  0
  2  8  2  0  0  0  0
  3  8  1  0  0  0  0
  3 12  1  0  0  0  0
  4  6  1  0  0  0  0
  4 13  1  0  0  0  0
  4 14  1  0  0  0  0
  5  6  1  0  0  0  0
  5  7  2  0  0  0  0
  6  9  1  0  0  0  0
  6 10  1  0  0  0  0
  7  8  1  0  0  0  0
  7 11  1  0  0  0  0
M  END
> <PUBCHEM_COMPOUND_CID>
4266

> <PUBCHEM_COMPOUND_CANONICALIZED>
1

> <PUBCHEM_CACTVS_COMPLEXITY>
141

> <PUBCHEM_CACTVS_HBOND_ACCEPTOR>
3

> <PUBCHEM_CACTVS_HBOND_DONOR>
2

> <PUBCHEM_CACTVS_ROTATABLE_BOND>
1

> <PUBCHEM_CACTVS_SUBSKEYS>
AAADcYBjMAAAAAAAAAAAAAAAAAAAAQAAAAAAAAAAAAAAAAAAAAAAHgAUAAAACATBgAQAAABQAACIACFSEACAAAAAIAAgCIAAAEACAAAAAQAAAAAAEAAAAQAAAAAAAAAAAAAAAAAAAAAAAAAAAAAAAAAAAA==

> <PUBCHEM_IUPAC_OPENEYE_NAME>
5-(aminomethyl)isoxazol-3-one

> <PUBCHEM_IUPAC_CAS_NAME>
5-(aminomethyl)-3-isoxazolone

> <PUBCHEM_IUPAC_NAME>
5-(aminomethyl)-1,2-oxazol-3-one

> <PUBCHEM_IUPAC_SYSTEMATIC_NAME>
5-(aminomethyl)-1,2-oxazol-3-one

> <PUBCHEM_IUPAC_TRADITIONAL_NAME>
5-(aminomethyl)-4-isoxazolin-3-one

> <PUBCHEM_IUPAC_INCHI>
InChI=1S/C4H6N2O2/c5-2-3-1-4(7)6-8-3/h1H,2,5H2,(H,6,7)

> <PUBCHEM_IUPAC_INCHIKEY>
ZJQHPWUVQPJPQT-UHFFFAOYSA-N

> <PUBCHEM_XLOGP3_AA>
-1.4

> <PUBCHEM_EXACT_MASS>
114.042927

> <PUBCHEM_MOLECULAR_FORMULA>
C4H6N2O2

> <PUBCHEM_MOLECULAR_WEIGHT>
114.10264

> <PUBCHEM_OPENEYE_CAN_SMILES>
C1=C(ONC1=O)CN

> <PUBCHEM_OPENEYE_ISO_SMILES>
C1=C(ONC1=O)CN

> <PUBCHEM_CACTVS_TPSA>
64.4

> <PUBCHEM_MONOISOTOPIC_WEIGHT>
114.042927

> <PUBCHEM_TOTAL_CHARGE>
0

> <PUBCHEM_HEAVY_ATOM_COUNT>
8

> <PUBCHEM_ATOM_DEF_STEREO_COUNT>
0

> <PUBCHEM_ATOM_UDEF_STEREO_COUNT>
0

> <PUBCHEM_BOND_DEF_STEREO_COUNT>
0

> <PUBCHEM_BOND_UDEF_STEREO_COUNT>
0

> <PUBCHEM_ISOTOPIC_ATOM_COUNT>
0

> <PUBCHEM_COMPONENT_COUNT>
1

> <PUBCHEM_CACTVS_TAUTO_COUNT>
2

> <PUBCHEM_COORDINATE_TYPE>
1
5
255

> <PUBCHEM_BONDANNOTATIONS>
1  3  8
1  5  8
3  8  8
5  7  8
7  8  8

$$$$

