   Color/Form
        GRAYISH-WHITE SOLID
   from [1]HSDB

   Boiling Point
        237 DEG C AT 722 MM HG
   from [2]HSDB

   Melting Point
        26 DEG C
   from [3]HSDB

   Octanol/Water Partition Coefficient
        log Kow= 2.58 (estimated)
   from [4]HSDB

   Solubilities
        SOL IN HOT ALCOHOL
   from [5]HSDB

   Spectral Properties

     * SADTLER REFERENCE NUMBER: 4721 (IR, PRISM)
     * IR: 2315 (Coblentz Society Spectral Collection)
     * UV: 1302 (Sadtler Research Laboratories Spectral Collection)
     * MASS: 90 (Aldermaston, Eight Peak Index of Mass Spectra, UK)

   from [6]HSDB

   Other Chemical/Physical Properties
        Henry's Law constant= 1.56X10-6 atm-cu m/mole (estimated)
   from [7]HSDB

   Computed Properties
   Molecular Weight                  141.59812 [g/mol]
   Molecular Formula                 C[7]H[8]ClN
   XLogP3                            1.4
   H-Bond Donor                      1
   H-Bond Acceptor                   1
   Rotatable Bond Count              0
   Exact Mass                        141.034527
   MonoIsotopic Mass                 141.034527
   Topological Polar Surface Area    26
   Heavy Atom Count                  9
   Formal Charge                     0
   Complexity                        94.9
   Isotope Atom Count                0
   Defined Atom Stereocenter Count   0
   Undefined Atom Stereocenter Count 0
   Defined Bond Stereocenter Count   0
   Undefined Bond Stereocenter Count 0
   Covalently-Bonded Unit Count      1
   Feature 3D Donor Count            1
   Feature 3D Cation Count           1
   Feature 3D Ring Count             1
   Effective Rotor Count             0
   Conformer Sampling RMSD           0.4
   CID Conformer Count               [8]1

References

   1. http://toxnet.nlm.nih.gov/cgi-bin/sis/search/r?dbs+hsdb:@term+@rn+@rel+95-79-4
   2. http://toxnet.nlm.nih.gov/cgi-bin/sis/search/r?dbs+hsdb:@term+@rn+@rel+95-79-4
   3. http://toxnet.nlm.nih.gov/cgi-bin/sis/search/r?dbs+hsdb:@term+@rn+@rel+95-79-4
   4. http://toxnet.nlm.nih.gov/cgi-bin/sis/search/r?dbs+hsdb:@term+@rn+@rel+95-79-4
   5. http://toxnet.nlm.nih.gov/cgi-bin/sis/search/r?dbs+hsdb:@term+@rn+@rel+95-79-4
   6. http://toxnet.nlm.nih.gov/cgi-bin/sis/search/r?dbs+hsdb:@term+@rn+@rel+95-79-4
   7. http://toxnet.nlm.nih.gov/cgi-bin/sis/search/r?dbs+hsdb:@term+@rn+@rel+95-79-4
   8. http://pubchem.ncbi.nlm.nih.gov/vw3d/vw3d.cgi?cid=7260
