   Odor
        SWEET, SANDALWOOD ODOR
   from [1]HSDB

   Boiling Point
        166-167 DEG C @ 14 MM HG
   from [2]HSDB

   Density/Specific Gravity
        0.9770 @ 25 DEG C/25 DEG C
   from [3]HSDB

   Solubilities

     * SOL IN ALC; SLIGHTLY SOL IN PROPYLENE GLYCOL, GLYCERINE
     * PRACTICALLY INSOL IN WATER

   from [4]HSDB

   Spectral Properties

     * INDEX OF REFRACTION: 1.5017 @ 25 DEG C/D; NATURAL ALPHA-SANTALOL
       HAS SEQCIS-CONFIGURATION
     * SPECIFIC OPTICAL ROTATION: +17.0 DEG @ 20 DEG C/D
     * MASS: 180 (Aldermaston, Eight Peak Index of Mass Spectra, UK)

   from [5]HSDB

   Other Chemical/Physical Properties

     * NATURAL BETA-SANTALOL HAS SEQCIS-CONFIGURATION; BP 177-178 DEG C;
       DENSITY 0.9717 @ 25 DEG C/25 DEG C /BETA-SANTALOL/
     * SWEET, WOODY AROMA WITH NUTTY TASTE /ALPHA & BETA SANTALOL/
     * COLORLESS TO SLIGHTLY YELLOW, VISCOUS LIQ /ALPHA & BETA SANTALOL/
     * SOL IN ALC; PRACTICALLY INSOL IN WATER /BETA-SANTALOL/
     * INDEX OF REFRACTION: 1.5100 @ 25 DEG C/D /BETA-SANTALOL/
     * SPECIFIC OPTICAL ROTATION: -90.5 DEG @ 20 DEG C/D /BETA-SANTALOL/
     * MASS: 180 (Aldermaston, Eight Peak Index of Mass Spectra, UK)
       /Beta-Santalol/

   from [6]HSDB

   Computed Properties
   Molecular Weight                  220.35046 [g/mol]
   Molecular Formula                 C[15]H[24]O
   XLogP3-AA                         4
   H-Bond Donor                      1
   H-Bond Acceptor                   1
   Rotatable Bond Count              4
   Exact Mass                        220.182715
   MonoIsotopic Mass                 220.182715
   Topological Polar Surface Area    20.2
   Heavy Atom Count                  16
   Formal Charge                     0
   Complexity                        331
   Isotope Atom Count                0
   Defined Atom Stereocenter Count   0
   Undefined Atom Stereocenter Count 3
   Defined Bond Stereocenter Count   1
   Undefined Bond Stereocenter Count 0
   Covalently-Bonded Unit Count      1
   Feature 3D Acceptor Count         1
   Feature 3D Donor Count            1
   Feature 3D Hydrophobe Count       1
   Feature 3D Ring Count             1
   Effective Rotor Count             4.6
   Conformer Sampling RMSD           0.6
   CID Conformer Count               [7]45

References

   1. http://toxnet.nlm.nih.gov/cgi-bin/sis/search/r?dbs+hsdb:@term+@rn+@rel+115-71-9
   2. http://toxnet.nlm.nih.gov/cgi-bin/sis/search/r?dbs+hsdb:@term+@rn+@rel+115-71-9
   3. http://toxnet.nlm.nih.gov/cgi-bin/sis/search/r?dbs+hsdb:@term+@rn+@rel+115-71-9
   4. http://toxnet.nlm.nih.gov/cgi-bin/sis/search/r?dbs+hsdb:@term+@rn+@rel+115-71-9
   5. http://toxnet.nlm.nih.gov/cgi-bin/sis/search/r?dbs+hsdb:@term+@rn+@rel+115-71-9
   6. http://toxnet.nlm.nih.gov/cgi-bin/sis/search/r?dbs+hsdb:@term+@rn+@rel+115-71-9
   7. http://pubchem.ncbi.nlm.nih.gov/vw3d/vw3d.cgi?cid=5281531
