6443204
  -OEChem-07051212592D

 34 36  0     1  0  0  0  0  0999 V2000
    3.0934    2.5292    0.0000 O   0  0  0  0  0  0  0  0  0  0  0  0
    4.8147    2.0680    0.0000 N   0  0  0  0  0  0  0  0  0  0  0  0
    6.7160   -1.0933    0.0000 N   0  0  0  0  0  0  0  0  0  0  0  0
    5.1069   -1.2624    0.0000 N   0  0  0  0  0  0  0  0  0  0  0  0
    4.6456    0.4588    0.0000 C   0  0  2  0  0  0  0  0  0  0  0  0
    5.3147    1.2020    0.0000 C   0  0  0  0  0  0  0  0  0  0  0  0
    3.7320    0.8656    0.0000 C   0  0  0  0  0  0  0  0  0  0  0  0
    5.3147   -0.2843    0.0000 C   0  0  0  0  0  0  0  0  0  0  0  0
    3.8366    1.8601    0.0000 C   0  0  0  0  0  0  0  0  0  0  0  0
    2.8660    0.3656    0.0000 C   0  0  0  0  0  0  0  0  0  0  0  0
    6.3092   -0.1798    0.0000 C   0  0  0  0  0  0  0  0  0  0  0  0
    2.8660   -0.6344    0.0000 C   0  0  0  0  0  0  0  0  0  0  0  0
    5.9728   -1.7624    0.0000 C   0  0  0  0  0  0  0  0  0  0  0  0
    7.6941   -1.3012    0.0000 C   0  0  0  0  0  0  0  0  0  0  0  0
    2.0000   -1.1344    0.0000 C   0  0  0  0  0  0  0  0  0  0  0  0
    3.7320   -1.1344    0.0000 C   0  0  0  0  0  0  0  0  0  0  0  0
    2.0000   -2.1344    0.0000 C   0  0  0  0  0  0  0  0  0  0  0  0
    3.7320   -2.1344    0.0000 C   0  0  0  0  0  0  0  0  0  0  0  0
    2.8660   -2.6344    0.0000 C   0  0  0  0  0  0  0  0  0  0  0  0
    4.1460   -0.2288    0.0000 H   0  0  0  0  0  0  0  0  0  0  0  0
    5.7296    0.7412    0.0000 H   0  0  0  0  0  0  0  0  0  0  0  0
    5.8163    1.5664    0.0000 H   0  0  0  0  0  0  0  0  0  0  0  0
    5.0669    2.6344    0.0000 H   0  0  0  0  0  0  0  0  0  0  0  0
    2.3291    0.6756    0.0000 H   0  0  0  0  0  0  0  0  0  0  0  0
    6.6192    0.3572    0.0000 H   0  0  0  0  0  0  0  0  0  0  0  0
    6.0376   -2.3790    0.0000 H   0  0  0  0  0  0  0  0  0  0  0  0
    7.5652   -1.9077    0.0000 H   0  0  0  0  0  0  0  0  0  0  0  0
    8.3006   -1.4301    0.0000 H   0  0  0  0  0  0  0  0  0  0  0  0
    7.8230   -0.6948    0.0000 H   0  0  0  0  0  0  0  0  0  0  0  0
    1.4631   -0.8244    0.0000 H   0  0  0  0  0  0  0  0  0  0  0  0
    4.2690   -0.8244    0.0000 H   0  0  0  0  0  0  0  0  0  0  0  0
    1.4631   -2.4444    0.0000 H   0  0  0  0  0  0  0  0  0  0  0  0
    4.2690   -2.4444    0.0000 H   0  0  0  0  0  0  0  0  0  0  0  0
    2.8660   -3.2544    0.0000 H   0  0  0  0  0  0  0  0  0  0  0  0
  1  9  2  0  0  0  0
  2  6  1  0  0  0  0
  2  9  1  0  0  0  0
  2 23  1  0  0  0  0
  3 11  1  0  0  0  0
  3 13  1  0  0  0  0
  3 14  1  0  0  0  0
  4  8  1  0  0  0  0
  4 13  2  0  0  0  0
  5  6  1  0  0  0  0
  5  7  1  0  0  0  0
  5  8  1  0  0  0  0
  5 20  1  6  0  0  0
  6 21  1  0  0  0  0
  6 22  1  0  0  0  0
  7  9  1  0  0  0  0
  7 10  2  0  0  0  0
  8 11  2  0  0  0  0
 10 12  1  0  0  0  0
 10 24  1  0  0  0  0
 11 25  1  0  0  0  0
 12 15  2  0  0  0  0
 12 16  1  0  0  0  0
 13 26  1  0  0  0  0
 14 27  1  0  0  0  0
 14 28  1  0  0  0  0
 14 29  1  0  0  0  0
 15 17  1  0  0  0  0
 15 30  1  0  0  0  0
 16 18  2  0  0  0  0
 16 31  1  0  0  0  0
 17 19  2  0  0  0  0
 17 32  1  0  0  0  0
 18 19  1  0  0  0  0
 18 33  1  0  0  0  0
 19 34  1  0  0  0  0
M  END
> <PUBCHEM_COMPOUND_CID>
6443204

> <PUBCHEM_COMPOUND_CANONICALIZED>
1

> <PUBCHEM_CACTVS_COMPLEXITY>
374

> <PUBCHEM_CACTVS_HBOND_ACCEPTOR>
2

> <PUBCHEM_CACTVS_HBOND_DONOR>
1

> <PUBCHEM_CACTVS_ROTATABLE_BOND>
2

> <PUBCHEM_CACTVS_SUBSKEYS>
AAADccBzIAAAAAAAAAAAAAAAAAAAAWLAAAAwAAAAAAAAAAABwAAAHgAQAAAADQjBngQ/kJfMEACoAzV3dACCgC0xEqAJ2IE4cMiIaDLA2RGUIAAolgLIyaccgQAOAAAAAAAAAAAAAAAAAAAAAAAAAAAAAA==

> <PUBCHEM_IUPAC_OPENEYE_NAME>
(3E,4S)-3-benzylidene-4-(1-methylimidazol-4-yl)pyrrolidin-2-one

> <PUBCHEM_IUPAC_CAS_NAME>
(3E,4S)-4-(1-methyl-4-imidazolyl)-3-(phenylmethylene)-2-pyrrolidinone

> <PUBCHEM_IUPAC_NAME>
(3E,4S)-3-benzylidene-4-(1-methylimidazol-4-yl)pyrrolidin-2-one

> <PUBCHEM_IUPAC_SYSTEMATIC_NAME>
(3E,4S)-4-(1-methylimidazol-4-yl)-3-(phenylmethylidene)pyrrolidin-2-one

> <PUBCHEM_IUPAC_TRADITIONAL_NAME>
(3E,4S)-3-benzal-4-(1-methylimidazol-4-yl)-2-pyrrolidone

> <PUBCHEM_IUPAC_INCHI>
InChI=1S/C15H15N3O/c1-18-9-14(17-10-18)13-8-16-15(19)12(13)7-11-5-3-2-4-6-11/h2-7,9-10,13H,8H2,1H3,(H,16,19)/b12-7+/t13-/m1/s1

> <PUBCHEM_IUPAC_INCHIKEY>
UKNFHVAQMUDAFF-BWODNOAJSA-N

> <PUBCHEM_XLOGP3_AA>
1.2

> <PUBCHEM_EXACT_MASS>
253.121512

> <PUBCHEM_MOLECULAR_FORMULA>
C15H15N3O

> <PUBCHEM_MOLECULAR_WEIGHT>
253.2991

> <PUBCHEM_OPENEYE_CAN_SMILES>
CN1C=C(N=C1)C2CNC(=O)C2=CC3=CC=CC=C3

> <PUBCHEM_OPENEYE_ISO_SMILES>
CN1C=C(N=C1)[C@@H]\2CNC(=O)/C2=C/C3=CC=CC=C3

> <PUBCHEM_CACTVS_TPSA>
46.9

> <PUBCHEM_MONOISOTOPIC_WEIGHT>
253.121512

> <PUBCHEM_TOTAL_CHARGE>
0

> <PUBCHEM_HEAVY_ATOM_COUNT>
19

> <PUBCHEM_ATOM_DEF_STEREO_COUNT>
1

> <PUBCHEM_ATOM_UDEF_STEREO_COUNT>
0

> <PUBCHEM_BOND_DEF_STEREO_COUNT>
1

> <PUBCHEM_BOND_UDEF_STEREO_COUNT>
0

> <PUBCHEM_ISOTOPIC_ATOM_COUNT>
0

> <PUBCHEM_COMPONENT_COUNT>
1

> <PUBCHEM_CACTVS_TAUTO_COUNT>
2

> <PUBCHEM_COORDINATE_TYPE>
1
5
255

> <PUBCHEM_BONDANNOTATIONS>
12  15  8
12  16  8
15  17  8
16  18  8
17  19  8
18  19  8
3  11  8
3  13  8
4  13  8
4  8  8
5  20  6
8  11  8

$$$$

