   Color/Form
        YELLOW CRYSTALS FROM DIL METHANOL OR ETHANOL
   from [1]HSDB

   Melting Point
        176-179 DEG C; FROM WATER, MP 167 DEG C
   from [2]HSDB

   Solubilities
        PRACTICALLY INSOL IN COLD WATER, ETHER; SOL IN ALCOHOL; MODERATELY
   SOL IN HOT WATER; SOL IN AQ ALKALINE SOLN
   from [3]HSDB

   Spectral Properties

     * MAX ABSORPTION (ETHANOL): 350 NM (LOG E= 4.18), 258 NM (LOG E=
       4.30)
     * UV: 6-925 (Organic Electronic Spectral Data, Phillips et al, John
       Wiley & Sons, New York)

   from [4]HSDB

   Computed Properties
   Molecular Weight                  448.3769 [g/mol]
   Molecular Formula                 C[21]H[20]O[11]
   XLogP3-AA                         0.9
   H-Bond Donor                      7
   H-Bond Acceptor                   11
   Rotatable Bond Count              3
   Tautomer Count                    162
   Exact Mass                        448.100561
   MonoIsotopic Mass                 448.100561
   Topological Polar Surface Area    186
   Heavy Atom Count                  32
   Formal Charge                     0
   Complexity                        741
   Isotope Atom Count                0
   Defined Atom Stereocenter Count   5
   Undefined Atom Stereocenter Count 0
   Defined Bond Stereocenter Count   0
   Undefined Bond Stereocenter Count 0
   Covalently-Bonded Unit Count      1
   Feature 3D Acceptor Count         7
   Feature 3D Donor Count            7
   Feature 3D Ring Count             4
   Effective Rotor Count             4.2
   Conformer Sampling RMSD           0.8
   CID Conformer Count               [5]45

References

   1. http://toxnet.nlm.nih.gov/cgi-bin/sis/search/r?dbs+hsdb:@term+@rn+@rel+522-12-3
   2. http://toxnet.nlm.nih.gov/cgi-bin/sis/search/r?dbs+hsdb:@term+@rn+@rel+522-12-3
   3. http://toxnet.nlm.nih.gov/cgi-bin/sis/search/r?dbs+hsdb:@term+@rn+@rel+522-12-3
   4. http://toxnet.nlm.nih.gov/cgi-bin/sis/search/r?dbs+hsdb:@term+@rn+@rel+522-12-3
   5. http://pubchem.ncbi.nlm.nih.gov/vw3d/vw3d.cgi?cid=5280459
