   Color/Form
        DARK, REDDISH-BROWN POWDER
   from [1]HSDB

   Density/Specific Gravity
        Approximately 1.50
   from [2]HSDB

   Solubilities

     * 1 G SOL IN 15 ML WATER, 7.2 G/100 ML WATER AT 26 DEG C; VERY
       SLIGHTLY SOL IN ALC
     * Solubility in water=60 mg/ml, in methyl Cellosolve (monomethyl
       ether of ethylene glycol) = 10 mg/ml, in ethanol = 0.7 mg/ml.
     * Soluble in water, glycerol, propylene glycol; insoluble in most
       organic solvents.

   from [3]HSDB

   Spectral Properties
        MAX ABSORPTION (WATER): 522.5 NM
   from [4]HSDB

   Other Chemical/Physical Properties

     * DISCHARGE WHITE BY HYDROSULFITE ON WOOL & SILK
     * HYDROCHLORIC ACID DOES NOT CHANGE COLOR INTENSITY OF SOLN, SODIUM
       HYDROXIDE INCR IT
     * AQ SOLN IS VIVID RED (1 CM LAYER)
     * Stable to light in aqueous solution

   from [5]HSDB

   Computed Properties
   Molecular Weight                  604.473048 [g/mol]
   Molecular Formula                 C[20]H[11]N[2]Na[3]O[10]S[3]
   H-Bond Donor                      1
   H-Bond Acceptor                   12
   Rotatable Bond Count              2
   Tautomer Count                    3
   Exact Mass                        603.92689
   MonoIsotopic Mass                 603.92689
   Topological Polar Surface Area    238
   Heavy Atom Count                  38
   Formal Charge                     0
   Complexity                        1200
   Isotope Atom Count                0
   Defined Atom Stereocenter Count   0
   Undefined Atom Stereocenter Count 0
   Defined Bond Stereocenter Count   1
   Undefined Bond Stereocenter Count 0
   Covalently-Bonded Unit Count      4

References

   1. http://toxnet.nlm.nih.gov/cgi-bin/sis/search/r?dbs+hsdb:@term+@rn+@rel+915-67-3
   2. http://toxnet.nlm.nih.gov/cgi-bin/sis/search/r?dbs+hsdb:@term+@rn+@rel+915-67-3
   3. http://toxnet.nlm.nih.gov/cgi-bin/sis/search/r?dbs+hsdb:@term+@rn+@rel+915-67-3
   4. http://toxnet.nlm.nih.gov/cgi-bin/sis/search/r?dbs+hsdb:@term+@rn+@rel+915-67-3
   5. http://toxnet.nlm.nih.gov/cgi-bin/sis/search/r?dbs+hsdb:@term+@rn+@rel+915-67-3
