   Color/Form

     * PALE YELLOWISH LIQUID
     * Reddish or yellowish colored oil
     * Colorless to pink liquid
     * Red to yellow, oily liquid [Note: A solid below 41 degrees F].

   from [1]HSDB

   Odor
        Amine-like odor.
   from [2]HSDB

   Boiling Point
        225 deg C
   from [3]HSDB

   Melting Point
        5 deg C
   from [4]HSDB

   Density/Specific Gravity
        1.098 @ 15 deg C/15 deg C
   from [5]HSDB

   Dissociation Constants
        pKa = 4.53
   from [6]HSDB

   Octanol/Water Partition Coefficient
        log Kow= 1.18
   from [7]HSDB

   Solubilities

     * MISCIBLE WITH ETHANOL, BENZENE, DIETHYL ETHER AND ACETONE
     * Sol in dilute mineral acid
     * 1.3 g/100 g water
     * Water solubility of 1.4X10+4 mg/l at 25 deg C

   from [8]HSDB

   Spectral Properties

     * MAX ABSORPTION (ALCOHOL): 236 NM (LOG E= 3.89); 286 NM (LOG E=
       3.40)
     * Index of refraction: 1.5715 @ 10 deg C/D
     * IR: 2153 (National Research Council Spectral Collection)
     * UV: 5-107 (Organic Electronic Spectral Data, Phillips et al, John
       Wiley & Sons, New York)
     * MASS: 2313 (NIST/EPA/MSDC Mass Spectral Database, 1990 version)

   from [9]HSDB

   Vapor Density
        4.25 (air= 1)
   from [10]HSDB

   Vapor Pressure
        8.0X10-2 mm Hg @ 25 deg C
   from [11]HSDB

   Other Chemical/Physical Properties

     * Becomes brownish on exposure to air; volatile with steam
     * VP: 1 mm Hg @ 61.0 deg C; 10 mm Hg @ 101.7 deg C; 40 mm Hg @ 132.0
       deg C; 100 mm Hg @ 155.2 deg C; 400 mm Hg @ 197.3 deg C

   from [12]HSDB

   Computed Properties
   Molecular Weight                  123.15246 [g/mol]
   Molecular Formula                 C[7]H[9]NO
   XLogP3                            1.2
   H-Bond Donor                      1
   H-Bond Acceptor                   2
   Rotatable Bond Count              1
   Exact Mass                        123.068414
   MonoIsotopic Mass                 123.068414
   Topological Polar Surface Area    35.2
   Heavy Atom Count                  9
   Formal Charge                     0
   Complexity                        85
   Isotope Atom Count                0
   Defined Atom Stereocenter Count   0
   Undefined Atom Stereocenter Count 0
   Defined Bond Stereocenter Count   0
   Undefined Bond Stereocenter Count 0
   Covalently-Bonded Unit Count      1
   Feature 3D Acceptor Count         1
   Feature 3D Donor Count            1
   Feature 3D Cation Count           1
   Feature 3D Ring Count             1
   Effective Rotor Count             1
   Conformer Sampling RMSD           0.4
   CID Conformer Count               [13]3

References

   1. http://toxnet.nlm.nih.gov/cgi-bin/sis/search/r?dbs+hsdb:@term+@rn+@rel+90-04-0
   2. http://toxnet.nlm.nih.gov/cgi-bin/sis/search/r?dbs+hsdb:@term+@rn+@rel+90-04-0
   3. http://toxnet.nlm.nih.gov/cgi-bin/sis/search/r?dbs+hsdb:@term+@rn+@rel+90-04-0
   4. http://toxnet.nlm.nih.gov/cgi-bin/sis/search/r?dbs+hsdb:@term+@rn+@rel+90-04-0
   5. http://toxnet.nlm.nih.gov/cgi-bin/sis/search/r?dbs+hsdb:@term+@rn+@rel+90-04-0
   6. http://toxnet.nlm.nih.gov/cgi-bin/sis/search/r?dbs+hsdb:@term+@rn+@rel+90-04-0
   7. http://toxnet.nlm.nih.gov/cgi-bin/sis/search/r?dbs+hsdb:@term+@rn+@rel+90-04-0
   8. http://toxnet.nlm.nih.gov/cgi-bin/sis/search/r?dbs+hsdb:@term+@rn+@rel+90-04-0
   9. http://toxnet.nlm.nih.gov/cgi-bin/sis/search/r?dbs+hsdb:@term+@rn+@rel+90-04-0
  10. http://toxnet.nlm.nih.gov/cgi-bin/sis/search/r?dbs+hsdb:@term+@rn+@rel+90-04-0
  11. http://toxnet.nlm.nih.gov/cgi-bin/sis/search/r?dbs+hsdb:@term+@rn+@rel+90-04-0
  12. http://toxnet.nlm.nih.gov/cgi-bin/sis/search/r?dbs+hsdb:@term+@rn+@rel+90-04-0
  13. http://pubchem.ncbi.nlm.nih.gov/vw3d/vw3d.cgi?cid=7000
