   Color/Form

     * White, crystal powder
     * White rhombic crystals

   from [1]HSDB

   Corrosivity
        Neutral in solution
   from [2]HSDB

   Density/Specific Gravity
        4.28
   from [3]HSDB

   pH
        Aq soln is neutral
   from [4]HSDB

   Solubilities

     * Solubility in water: 9 g/100 cc @ 20 deg C; 34 g/100 cc @ 100 deg
       C; soluble in acetic acid; insol in alcohol
     * 9.0 g/100g H2O at 25 deg C

   from [5]HSDB

   Other Chemical/Physical Properties

     * MP: decomp
     * Two hydrates exist in saturated solution, the pentahydrate up to
       19.85 deg C and the monohydrate from 19.85-73.4 deg C.

   from [6]HSDB

   Computed Properties
   Molecular Weight                  197.892439 [g/mol]
   Molecular Formula                 INaO[3]
   H-Bond Donor                      0
   H-Bond Acceptor                   3
   Rotatable Bond Count              0
   Exact Mass                        197.878986
   MonoIsotopic Mass                 197.878986
   Topological Polar Surface Area    57.2
   Heavy Atom Count                  5
   Formal Charge                     0
   Complexity                        49.8
   Isotope Atom Count                0
   Defined Atom Stereocenter Count   0
   Undefined Atom Stereocenter Count 0
   Defined Bond Stereocenter Count   0
   Undefined Bond Stereocenter Count 0
   Covalently-Bonded Unit Count      2

References

   1. http://toxnet.nlm.nih.gov/cgi-bin/sis/search/r?dbs+hsdb:@term+@rn+@rel+7681-55-2
   2. http://toxnet.nlm.nih.gov/cgi-bin/sis/search/r?dbs+hsdb:@term+@rn+@rel+7681-55-2
   3. http://toxnet.nlm.nih.gov/cgi-bin/sis/search/r?dbs+hsdb:@term+@rn+@rel+7681-55-2
   4. http://toxnet.nlm.nih.gov/cgi-bin/sis/search/r?dbs+hsdb:@term+@rn+@rel+7681-55-2
   5. http://toxnet.nlm.nih.gov/cgi-bin/sis/search/r?dbs+hsdb:@term+@rn+@rel+7681-55-2
   6. http://toxnet.nlm.nih.gov/cgi-bin/sis/search/r?dbs+hsdb:@term+@rn+@rel+7681-55-2
