   Color/Form

     * LUSTROUS LEAFLETS
     * YELLOWISH LEAFLETS OR GLISTENING PLATES

   from [1]HSDB

   Boiling Point
        390 DEG C; 155-157 DEG C AT 0.1 MM HG
   from [2]HSDB

   Melting Point
        90-91 DEG C
   from [3]HSDB

   Solubilities
        INSOL IN WATER; SOL IN BENZENE, ETHER, CARBON DISULFIDE, ACIDS;
   SLIGHTLY SOL IN COLD ALCOHOL, MORE SOL IN HOT ALCOHOL
   from [4]HSDB

   Spectral Properties

     * IR: 5649 (Coblentz Society Spectral Collection)
     * NMR: 9462 (Sadtler Research Laboratories Spectral Collection)
     * MASS: 203 (Aldermaston, Eight Peak Index of Mass Spectra, UK)

   from [5]HSDB

   Other Chemical/Physical Properties
        SUBLIMES WITHOUT DECOMP
   from [6]HSDB

   Computed Properties
   Molecular Weight                  254.36998 [g/mol]
   Molecular Formula                 C[17]H[22]N[2]
   XLogP3                            3.9
   H-Bond Donor                      0
   H-Bond Acceptor                   2
   Rotatable Bond Count              4
   Exact Mass                        254.178299
   MonoIsotopic Mass                 254.178299
   Topological Polar Surface Area    6.5
   Heavy Atom Count                  19
   Formal Charge                     0
   Complexity                        220
   Isotope Atom Count                0
   Defined Atom Stereocenter Count   0
   Undefined Atom Stereocenter Count 0
   Defined Bond Stereocenter Count   0
   Undefined Bond Stereocenter Count 0
   Covalently-Bonded Unit Count      1
   Feature 3D Cation Count           2
   Feature 3D Ring Count             2
   Effective Rotor Count             4
   Conformer Sampling RMSD           0.6
   CID Conformer Count               [7]7

References

   1. http://toxnet.nlm.nih.gov/cgi-bin/sis/search/r?dbs+hsdb:@term+@rn+@rel+101-61-1
   2. http://toxnet.nlm.nih.gov/cgi-bin/sis/search/r?dbs+hsdb:@term+@rn+@rel+101-61-1
   3. http://toxnet.nlm.nih.gov/cgi-bin/sis/search/r?dbs+hsdb:@term+@rn+@rel+101-61-1
   4. http://toxnet.nlm.nih.gov/cgi-bin/sis/search/r?dbs+hsdb:@term+@rn+@rel+101-61-1
   5. http://toxnet.nlm.nih.gov/cgi-bin/sis/search/r?dbs+hsdb:@term+@rn+@rel+101-61-1
   6. http://toxnet.nlm.nih.gov/cgi-bin/sis/search/r?dbs+hsdb:@term+@rn+@rel+101-61-1
   7. http://pubchem.ncbi.nlm.nih.gov/vw3d/vw3d.cgi?cid=7567
