   Color/Form
        Light, bulky, white powder
   from [1]HSDB

   Odor
        Odorless
   from [2]HSDB

   Melting Point
        990 deg C
   from [3]HSDB

   Density/Specific Gravity
        3.0
   from [4]HSDB

   Solubilities

     * 0.0106 G/100 CC COLD WATER
     * SOL IN ACID, AQ CARBON DIOXIDE; INSOL IN ACETONE, AMMONIA
     * Insoluble in alcohol; soluble in acids

   from [5]HSDB

   Spectral Properties
        Index of refraction: 1.536 (alpha), 1.741 (beta)
   from [6]HSDB

   Other Chemical/Physical Properties

     * HEATED ... MAGNESIUM BICARBONATE LOSES CARBON DIOXIDE & WATER &
       MAGNESIUM CARBONATE PPT. ... GENERALLY YIELDS LIGHT CARBONATE.
     * Bulk density approximately 4 lb/cu ft
     * Heat of Formation = -1096 kJ/mol
     * White, friable masses or bulky, white powder; at about 700 deg C is
       converted to MgO; sol in about 3,300 parts CO2-free water; more sol
       in water containing CO2; sol in dilute acids with effervescence;
       insol in alcohol /Magnesium carbonate hydroxide/
     * Colorless crystals; refractive index: 1.458, 1.473, 1.501; density:
       2.83 g/cu-cm /Dihydrate/
     * Colorless to white crystals; density: 1.84 g/cu cm; MP: 165 deg C
       (decomp); soluble in cold water (0.129 wt%) /Trihydrate/
     * White monoclinic crystals; density: 1.73 g/cu cm /Pentahydrate/

   from [7]HSDB

   Computed Properties
   Molecular Weight                  84.3139 [g/mol]
   Molecular Formula                 CMgO[3]
   H-Bond Donor                      0
   H-Bond Acceptor                   3
   Rotatable Bond Count              0
   Exact Mass                        83.969786
   MonoIsotopic Mass                 83.969786
   Topological Polar Surface Area    63.2
   Heavy Atom Count                  5
   Formal Charge                     0
   Complexity                        18.8
   Isotope Atom Count                0
   Defined Atom Stereocenter Count   0
   Undefined Atom Stereocenter Count 0
   Defined Bond Stereocenter Count   0
   Undefined Bond Stereocenter Count 0
   Covalently-Bonded Unit Count      2

References

   1. http://toxnet.nlm.nih.gov/cgi-bin/sis/search/r?dbs+hsdb:@term+@rn+@rel+546-93-0
   2. http://toxnet.nlm.nih.gov/cgi-bin/sis/search/r?dbs+hsdb:@term+@rn+@rel+546-93-0
   3. http://toxnet.nlm.nih.gov/cgi-bin/sis/search/r?dbs+hsdb:@term+@rn+@rel+546-93-0
   4. http://toxnet.nlm.nih.gov/cgi-bin/sis/search/r?dbs+hsdb:@term+@rn+@rel+546-93-0
   5. http://toxnet.nlm.nih.gov/cgi-bin/sis/search/r?dbs+hsdb:@term+@rn+@rel+546-93-0
   6. http://toxnet.nlm.nih.gov/cgi-bin/sis/search/r?dbs+hsdb:@term+@rn+@rel+546-93-0
   7. http://toxnet.nlm.nih.gov/cgi-bin/sis/search/r?dbs+hsdb:@term+@rn+@rel+546-93-0
