5289019
  -OEChem-07051213122D

105111  0     1  0  0  0  0  0999 V2000
    3.9056    4.9434    0.0000 O   0  0  0  0  0  0  0  0  0  0  0  0
   11.2720   -1.5857    0.0000 O   0  0  0  0  0  0  0  0  0  0  0  0
    5.7720    3.1530    0.0000 O   0  0  0  0  0  0  0  0  0  0  0  0
   11.9704   -3.1707    0.0000 O   0  0  0  0  0  0  0  0  0  0  0  0
    1.6708    0.9516    0.0000 O   0  0  0  0  0  0  0  0  0  0  0  0
    0.7597    4.3518    0.0000 O   0  0  0  0  0  0  0  0  0  0  0  0
   14.7947   -2.4726    0.0000 O   0  0  0  0  0  0  0  0  0  0  0  0
   13.5655    0.9659    0.0000 O   0  0  0  0  0  0  0  0  0  0  0  0
   13.1022   -0.7793    0.0000 O   0  0  0  0  0  0  0  0  0  0  0  0
   14.4990   -3.9493    0.0000 O   0  0  0  0  0  0  0  0  0  0  0  0
    9.2925   -1.3461    0.0000 O   0  0  0  0  0  0  0  0  0  0  0  0
   12.5978    3.1567    0.0000 O   0  0  0  0  0  0  0  0  0  0  0  0
    5.5678   -0.8953    0.0000 O   0  0  0  0  0  0  0  0  0  0  0  0
    7.7946    3.0197    0.0000 O   0  0  0  0  0  0  0  0  0  0  0  0
   10.8720    3.3045    0.0000 O   0  0  0  0  0  0  0  0  0  0  0  0
    7.3922   -1.1161    0.0000 O   0  0  0  0  0  0  0  0  0  0  0  0
   -0.0199    2.3207    0.0000 N   0  0  0  0  0  0  0  0  0  0  0  0
    3.4278    2.9948    0.0000 C   0  0  1  0  0  0  0  0  0  0  0  0
    1.7232    1.9502    0.0000 C   0  0  1  0  0  0  0  0  0  0  0  0
    0.9460    2.5795    0.0000 C   0  0  2  0  0  0  0  0  0  0  0  0
    1.3044    3.5131    0.0000 C   0  0  1  0  0  0  0  0  0  0  0  0
    3.1690    3.9608    0.0000 C   0  0  1  0  0  0  0  0  0  0  0  0
   12.5698    1.0589    0.0000 C   0  0  1  0  0  0  0  0  0  0  0  0
   11.3804   -0.5916    0.0000 C   0  0  1  0  0  0  0  0  0  0  0  0
   13.8006   -2.3643    0.0000 C   0  0  1  0  0  0  0  0  0  0  0  0
    4.9630    1.7517    0.0000 C   0  0  0  0  0  0  0  0  0  0  0  0
   12.4558   -0.1128    0.0000 C   0  0  0  0  0  0  0  0  0  0  0  0
   11.6069    1.7361    0.0000 C   0  0  1  0  0  0  0  0  0  0  0  0
   12.9939   -1.7734    0.0000 C   0  0  2  0  0  0  0  0  0  0  0  0
   12.0788   -2.1766    0.0000 C   0  0  2  0  0  0  0  0  0  0  0  0
   10.4334    0.1077    0.0000 C   0  0  0  0  0  0  0  0  0  0  0  0
   13.6923   -3.3584    0.0000 C   0  0  2  0  0  0  0  0  0  0  0  0
   10.5428    1.2326    0.0000 C   0  0  0  0  0  0  0  0  0  0  0  0
    5.8766    2.1585    0.0000 C   0  0  0  0  0  0  0  0  0  0  0  0
    3.6867    2.0289    0.0000 C   0  0  0  0  0  0  0  0  0  0  0  0
   12.7771   -3.7616    0.0000 C   0  0  2  0  0  0  0  0  0  0  0  0
    6.7286    1.5593    0.0000 C   0  0  0  0  0  0  0  0  0  0  0  0
    9.4009   -0.3520    0.0000 C   0  0  0  0  0  0  0  0  0  0  0  0
    8.5968    1.3992    0.0000 C   0  0  0  0  0  0  0  0  0  0  0  0
    8.4917    0.3193    0.0000 C   0  0  0  0  0  0  0  0  0  0  0  0
    4.8382    0.7176    0.0000 C   0  0  0  0  0  0  0  0  0  0  0  0
    9.6184    1.8827    0.0000 C   0  0  0  0  0  0  0  0  0  0  0  0
   13.1482    1.8747    0.0000 C   0  0  0  0  0  0  0  0  0  0  0  0
    6.6277    0.5225    0.0000 C   0  0  0  0  0  0  0  0  0  0  0  0
   14.3915   -1.5575    0.0000 C   0  0  0  0  0  0  0  0  0  0  0  0
    7.7093    2.0234    0.0000 C   0  0  0  0  0  0  0  0  0  0  0  0
    5.6761    0.0989    0.0000 C   0  0  0  0  0  0  0  0  0  0  0  0
    7.5005   -0.1220    0.0000 C   0  0  0  0  0  0  0  0  0  0  0  0
   11.6922    2.7324    0.0000 C   0  0  0  0  0  0  0  0  0  0  0  0
   12.6688   -4.7557    0.0000 C   0  0  0  0  0  0  0  0  0  0  0  0
   -0.7270    3.0278    0.0000 C   0  0  0  0  0  0  0  0  0  0  0  0
   -0.2787    1.3548    0.0000 C   0  0  0  0  0  0  0  0  0  0  0  0
   15.3856   -1.6659    0.0000 C   0  0  0  0  0  0  0  0  0  0  0  0
   14.0173   -0.3760    0.0000 C   0  0  0  0  0  0  0  0  0  0  0  0
   14.3906   -4.9434    0.0000 C   0  0  0  0  0  0  0  0  0  0  0  0
   12.6831    4.1531    0.0000 C   0  0  0  0  0  0  0  0  0  0  0  0
    1.1568    1.6980    0.0000 H   0  0  0  0  0  0  0  0  0  0  0  0
    0.8171    1.9731    0.0000 H   0  0  0  0  0  0  0  0  0  0  0  0
    0.6878    3.4483    0.0000 H   0  0  0  0  0  0  0  0  0  0  0  0
    2.9490    4.7818    0.0000 H   0  0  0  0  0  0  0  0  0  0  0  0
   10.8125   -0.8405    0.0000 H   0  0  0  0  0  0  0  0  0  0  0  0
   13.0741   -0.0663    0.0000 H   0  0  0  0  0  0  0  0  0  0  0  0
   12.6074   -0.7140    0.0000 H   0  0  0  0  0  0  0  0  0  0  0  0
   11.0977    2.0898    0.0000 H   0  0  0  0  0  0  0  0  0  0  0  0
   13.5612   -1.5234    0.0000 H   0  0  0  0  0  0  0  0  0  0  0  0
   12.1459   -1.5602    0.0000 H   0  0  0  0  0  0  0  0  0  0  0  0
   13.6251   -3.9747    0.0000 H   0  0  0  0  0  0  0  0  0  0  0  0
    4.2855    2.1894    0.0000 H   0  0  0  0  0  0  0  0  0  0  0  0
    3.8471    1.4301    0.0000 H   0  0  0  0  0  0  0  0  0  0  0  0
    3.0878    1.8685    0.0000 H   0  0  0  0  0  0  0  0  0  0  0  0
   12.2098   -4.0116    0.0000 H   0  0  0  0  0  0  0  0  0  0  0  0
    4.2689    0.4720    0.0000 H   0  0  0  0  0  0  0  0  0  0  0  0
    9.6713    2.5004    0.0000 H   0  0  0  0  0  0  0  0  0  0  0  0
   12.6425    2.2333    0.0000 H   0  0  0  0  0  0  0  0  0  0  0  0
   13.5068    2.3804    0.0000 H   0  0  0  0  0  0  0  0  0  0  0  0
   13.6540    1.5161    0.0000 H   0  0  0  0  0  0  0  0  0  0  0  0
   13.8913   -1.1912    0.0000 H   0  0  0  0  0  0  0  0  0  0  0  0
   14.7579   -1.0574    0.0000 H   0  0  0  0  0  0  0  0  0  0  0  0
   14.8917   -1.9239    0.0000 H   0  0  0  0  0  0  0  0  0  0  0  0
    1.1184    0.6701    0.0000 H   0  0  0  0  0  0  0  0  0  0  0  0
    1.0412    4.9042    0.0000 H   0  0  0  0  0  0  0  0  0  0  0  0
   13.2851   -4.8229    0.0000 H   0  0  0  0  0  0  0  0  0  0  0  0
   12.6016   -5.3721    0.0000 H   0  0  0  0  0  0  0  0  0  0  0  0
   12.0524   -4.6885    0.0000 H   0  0  0  0  0  0  0  0  0  0  0  0
   13.8242    0.4025    0.0000 H   0  0  0  0  0  0  0  0  0  0  0  0
    0.3201    1.1943    0.0000 H   0  0  0  0  0  0  0  0  0  0  0  0
   -0.4392    0.7559    0.0000 H   0  0  0  0  0  0  0  0  0  0  0  0
   -0.8776    1.5153    0.0000 H   0  0  0  0  0  0  0  0  0  0  0  0
   -1.1654    2.5894    0.0000 H   0  0  0  0  0  0  0  0  0  0  0  0
   -1.1654    3.4662    0.0000 H   0  0  0  0  0  0  0  0  0  0  0  0
   -0.2886    3.4662    0.0000 H   0  0  0  0  0  0  0  0  0  0  0  0
   14.8854   -1.2995    0.0000 H   0  0  0  0  0  0  0  0  0  0  0  0
   15.7520   -1.1657    0.0000 H   0  0  0  0  0  0  0  0  0  0  0  0
   15.8858   -2.0322    0.0000 H   0  0  0  0  0  0  0  0  0  0  0  0
    8.7252   -1.5961    0.0000 H   0  0  0  0  0  0  0  0  0  0  0  0
   13.7673    0.1913    0.0000 H   0  0  0  0  0  0  0  0  0  0  0  0
   14.5847   -0.1261    0.0000 H   0  0  0  0  0  0  0  0  0  0  0  0
   14.2673   -0.9434    0.0000 H   0  0  0  0  0  0  0  0  0  0  0  0
   15.0070   -5.0106    0.0000 H   0  0  0  0  0  0  0  0  0  0  0  0
   14.3235   -5.5597    0.0000 H   0  0  0  0  0  0  0  0  0  0  0  0
   13.7743   -4.8762    0.0000 H   0  0  0  0  0  0  0  0  0  0  0  0
    5.0004   -1.1453    0.0000 H   0  0  0  0  0  0  0  0  0  0  0  0
   12.0654    4.2060    0.0000 H   0  0  0  0  0  0  0  0  0  0  0  0
   12.7360    4.7708    0.0000 H   0  0  0  0  0  0  0  0  0  0  0  0
   13.3009    4.1002    0.0000 H   0  0  0  0  0  0  0  0  0  0  0  0
  1 18  1  0  0  0  0
  1 22  1  0  0  0  0
 24  2  1  6  0  0  0
 30  2  1  1  0  0  0
  3 22  1  0  0  0  0
  3 34  1  0  0  0  0
  4 30  1  0  0  0  0
  4 36  1  0  0  0  0
 19  5  1  6  0  0  0
  5 80  1  0  0  0  0
 21  6  1  6  0  0  0
  6 81  1  0  0  0  0
 25  7  1  6  0  0  0
  7 53  1  0  0  0  0
 23  8  1  1  0  0  0
  8 85  1  0  0  0  0
 29  9  1  6  0  0  0
  9 54  1  0  0  0  0
 32 10  1  1  0  0  0
 10 55  1  0  0  0  0
 11 38  1  0  0  0  0
 11 95  1  0  0  0  0
 12 49  1  0  0  0  0
 12 56  1  0  0  0  0
 13 47  1  0  0  0  0
 13102  1  0  0  0  0
 14 46  2  0  0  0  0
 15 49  2  0  0  0  0
 16 48  2  0  0  0  0
 20 17  1  1  0  0  0
 17 51  1  0  0  0  0
 17 52  1  0  0  0  0
 18 19  1  0  0  0  0
 18 26  1  0  0  0  0
 18 35  1  1  0  0  0
 19 20  1  0  0  0  0
 19 57  1  0  0  0  0
 20 21  1  0  0  0  0
 20 58  1  0  0  0  0
 21 22  1  0  0  0  0
 21 59  1  0  0  0  0
 22 60  1  6  0  0  0
 23 27  1  0  0  0  0
 23 28  1  0  0  0  0
 23 43  1  0  0  0  0
 24 27  1  0  0  0  0
 24 31  1  0  0  0  0
 24 61  1  0  0  0  0
 25 29  1  0  0  0  0
 25 32  1  0  0  0  0
 25 45  1  0  0  0  0
 26 34  1  0  0  0  0
 26 41  2  0  0  0  0
 27 62  1  0  0  0  0
 27 63  1  0  0  0  0
 28 33  1  0  0  0  0
 28 49  1  1  0  0  0
 28 64  1  0  0  0  0
 29 30  1  0  0  0  0
 29 65  1  0  0  0  0
 30 66  1  0  0  0  0
 31 33  1  0  0  0  0
 31 38  2  0  0  0  0
 32 36  1  0  0  0  0
 32 67  1  0  0  0  0
 33 42  2  0  0  0  0
 34 37  2  0  0  0  0
 35 68  1  0  0  0  0
 35 69  1  0  0  0  0
 35 70  1  0  0  0  0
 36 50  1  6  0  0  0
 36 71  1  0  0  0  0
 37 44  1  0  0  0  0
 37 46  1  0  0  0  0
 38 40  1  0  0  0  0
 39 40  2  0  0  0  0
 39 42  1  0  0  0  0
 39 46  1  0  0  0  0
 40 48  1  0  0  0  0
 41 47  1  0  0  0  0
 41 72  1  0  0  0  0
 42 73  1  0  0  0  0
 43 74  1  0  0  0  0
 43 75  1  0  0  0  0
 43 76  1  0  0  0  0
 44 47  2  0  0  0  0
 44 48  1  0  0  0  0
 45 77  1  0  0  0  0
 45 78  1  0  0  0  0
 45 79  1  0  0  0  0
 50 82  1  0  0  0  0
 50 83  1  0  0  0  0
 50 84  1  0  0  0  0
 51 89  1  0  0  0  0
 51 90  1  0  0  0  0
 51 91  1  0  0  0  0
 52 86  1  0  0  0  0
 52 87  1  0  0  0  0
 52 88  1  0  0  0  0
 53 92  1  0  0  0  0
 53 93  1  0  0  0  0
 53 94  1  0  0  0  0
 54 96  1  0  0  0  0
 54 97  1  0  0  0  0
 54 98  1  0  0  0  0
 55 99  1  0  0  0  0
 55100  1  0  0  0  0
 55101  1  0  0  0  0
 56103  1  0  0  0  0
 56104  1  0  0  0  0
 56105  1  0  0  0  0
M  END
> <PUBCHEM_COMPOUND_CID>
5289019

> <PUBCHEM_COMPOUND_CANONICALIZED>
1

> <PUBCHEM_CACTVS_COMPLEXITY>
1530

> <PUBCHEM_CACTVS_HBOND_ACCEPTOR>
17

> <PUBCHEM_CACTVS_HBOND_DONOR>
5

> <PUBCHEM_CACTVS_ROTATABLE_BOND>
8

> <PUBCHEM_CACTVS_SUBSKEYS>
AAADcfB+PgAAAAAAAAAAAAAAAAAAAAAAAAA0aNGCAAASAADRQAAAHgAACAAADXzxmAcyDoMABgCIAqDSCAACCAAkIAAAiAEOCMgfNzaGtRqmeWCn4BEfuYfb/P/OwQADAAAYAADCAAYQADAAAAAAAAAAAA==

> <PUBCHEM_IUPAC_INCHI>
InChI=1S/C39H49NO16/c1-14-32(49-7)39(4,52-10)33(50-8)36(53-14)54-19-13-37(2,48)24(34(47)51-9)15-11-16-21(27(43)20(15)19)28(44)22-18(41)12-17-30(23(22)26(16)42)55-35-29(45)25(40(5)6)31(46)38(17,3)56-35/h11-12,14,19,24-25,29,31-33,35-36,41,43,45-46,48H,13H2,1-10H3/t14-,19-,24-,25-,29-,31+,32-,33-,35+,36-,37-,38+,39+/m0/s1

> <PUBCHEM_IUPAC_INCHIKEY>
KGTDRFCXGRULNK-JYOBTZKQSA-N

> <PUBCHEM_XLOGP3_AA>
1.1

> <PUBCHEM_EXACT_MASS>
787.305134

> <PUBCHEM_MOLECULAR_FORMULA>
C39H49NO16

> <PUBCHEM_MOLECULAR_WEIGHT>
787.80346

> <PUBCHEM_OPENEYE_CAN_SMILES>
CC1C(C(C(C(O1)OC2CC(C(C3=C2C(=C4C(=C3)C(=O)C5=C6C(=CC(=C5C4=O)O)C7(C(C(C(C(O6)O7)O)N(C)C)O)C)O)C(=O)OC)(C)O)OC)(C)OC)OC

> <PUBCHEM_OPENEYE_ISO_SMILES>
C[C@H]1[C@@H]([C@@]([C@H]([C@@H](O1)O[C@H]2C[C@]([C@@H](C3=C2C(=C4C(=C3)C(=O)C5=C6C(=CC(=C5C4=O)O)[C@@]7([C@@H]([C@H]([C@@H]([C@H](O6)O7)O)N(C)C)O)C)O)C(=O)OC)(C)O)OC)(C)OC)OC

> <PUBCHEM_CACTVS_TPSA>
229

> <PUBCHEM_MONOISOTOPIC_WEIGHT>
787.305134

> <PUBCHEM_TOTAL_CHARGE>
0

> <PUBCHEM_HEAVY_ATOM_COUNT>
56

> <PUBCHEM_ATOM_DEF_STEREO_COUNT>
13

> <PUBCHEM_ATOM_UDEF_STEREO_COUNT>
0

> <PUBCHEM_BOND_DEF_STEREO_COUNT>
0

> <PUBCHEM_BOND_UDEF_STEREO_COUNT>
0

> <PUBCHEM_ISOTOPIC_ATOM_COUNT>
0

> <PUBCHEM_COMPONENT_COUNT>
1

> <PUBCHEM_CACTVS_TAUTO_COUNT>
64

> <PUBCHEM_COORDINATE_TYPE>
1
5
255

> <PUBCHEM_BONDANNOTATIONS>
32  10  5
20  17  5
18  35  5
24  2  6
30  2  5
22  60  6
26  34  8
26  41  8
28  49  5
31  33  8
31  38  8
33  42  8
34  37  8
36  50  6
37  44  8
38  40  8
39  40  8
39  42  8
41  47  8
44  47  8
19  5  6
21  6  6
25  7  6
23  8  5
29  9  6

$$$$

