354616
  -OEChem-07051212512D

 22 23  0     0  0  0  0  0  0999 V2000
    5.5321    0.7535    0.0000 O   0  0  0  0  0  0  0  0  0  0  0  0
    4.6144    2.2673    0.0000 O   0  0  0  0  0  0  0  0  0  0  0  0
    2.0000    0.7327    0.0000 N   0  0  0  0  0  0  0  0  0  0  0  0
    4.6260   -0.8020    0.0000 C   0  0  0  0  0  0  0  0  0  0  0  0
    3.7320   -0.2673    0.0000 C   0  0  0  0  0  0  0  0  0  0  0  0
    5.5321   -0.2881    0.0000 C   0  0  0  0  0  0  0  0  0  0  0  0
    3.7320    0.7327    0.0000 C   0  0  0  0  0  0  0  0  0  0  0  0
    2.8660   -0.7673    0.0000 C   0  0  0  0  0  0  0  0  0  0  0  0
    4.6260    1.2674    0.0000 C   0  0  0  0  0  0  0  0  0  0  0  0
    2.8660    1.2327    0.0000 C   0  0  0  0  0  0  0  0  0  0  0  0
    2.0000   -0.2673    0.0000 C   0  0  0  0  0  0  0  0  0  0  0  0
    2.8660   -1.7673    0.0000 C   0  0  0  0  0  0  0  0  0  0  0  0
    2.0000   -2.2673    0.0000 C   0  0  0  0  0  0  0  0  0  0  0  0
    4.2214   -1.2718    0.0000 H   0  0  0  0  0  0  0  0  0  0  0  0
    5.0196   -1.2810    0.0000 H   0  0  0  0  0  0  0  0  0  0  0  0
    5.7411   -0.8718    0.0000 H   0  0  0  0  0  0  0  0  0  0  0  0
    6.1429   -0.1820    0.0000 H   0  0  0  0  0  0  0  0  0  0  0  0
    2.8660    1.8527    0.0000 H   0  0  0  0  0  0  0  0  0  0  0  0
    1.4631   -0.5773    0.0000 H   0  0  0  0  0  0  0  0  0  0  0  0
    3.4030   -2.0773    0.0000 H   0  0  0  0  0  0  0  0  0  0  0  0
    1.4631   -1.9573    0.0000 H   0  0  0  0  0  0  0  0  0  0  0  0
    2.0000   -2.8873    0.0000 H   0  0  0  0  0  0  0  0  0  0  0  0
  1  6  1  0  0  0  0
  1  9  1  0  0  0  0
  2  9  2  0  0  0  0
  3 10  2  0  0  0  0
  3 11  1  0  0  0  0
  4  5  1  0  0  0  0
  4  6  1  0  0  0  0
  4 14  1  0  0  0  0
  4 15  1  0  0  0  0
  5  7  2  0  0  0  0
  5  8  1  0  0  0  0
  6 16  1  0  0  0  0
  6 17  1  0  0  0  0
  7  9  1  0  0  0  0
  7 10  1  0  0  0  0
  8 11  2  0  0  0  0
  8 12  1  0  0  0  0
 10 18  1  0  0  0  0
 11 19  1  0  0  0  0
 12 13  2  0  0  0  0
 12 20  1  0  0  0  0
 13 21  1  0  0  0  0
 13 22  1  0  0  0  0
M  END
> <PUBCHEM_COMPOUND_CID>
354616

> <PUBCHEM_COMPOUND_CANONICALIZED>
1

> <PUBCHEM_CACTVS_COMPLEXITY>
227

> <PUBCHEM_CACTVS_HBOND_ACCEPTOR>
3

> <PUBCHEM_CACTVS_HBOND_DONOR>
0

> <PUBCHEM_CACTVS_ROTATABLE_BOND>
1

> <PUBCHEM_CACTVS_SUBSKEYS>
AAADccByMAAAAAAAAAAAAAAAAAAAAAAAAAAsSAAAAAAAAACxgAAAHgAAAAAADADhmgYsiJIIFACoAjD3TACCgCA1ACAI2CEoTNgIJnrAtZmGMYhmwAHI6caYFQIOgAAAAAAAAAAAAAAAAAAAAAAAAAAAAA==

> <PUBCHEM_IUPAC_OPENEYE_NAME>
5-vinyl-3,4-dihydropyrano[3,4-c]pyridin-1-one

> <PUBCHEM_IUPAC_CAS_NAME>
5-ethenyl-3,4-dihydropyrano[3,4-c]pyridin-1-one

> <PUBCHEM_IUPAC_NAME>
5-ethenyl-3,4-dihydropyrano[3,4-c]pyridin-1-one

> <PUBCHEM_IUPAC_SYSTEMATIC_NAME>
5-ethenyl-3,4-dihydropyrano[3,4-c]pyridin-1-one

> <PUBCHEM_IUPAC_TRADITIONAL_NAME>
5-vinyl-3,4-dihydropyrano[3,4-c]pyridin-1-one

> <PUBCHEM_IUPAC_INCHI>
InChI=1S/C10H9NO2/c1-2-7-5-11-6-9-8(7)3-4-13-10(9)12/h2,5-6H,1,3-4H2

> <PUBCHEM_IUPAC_INCHIKEY>
DFNZYFAJQPLJFI-UHFFFAOYSA-N

> <PUBCHEM_XLOGP3_AA>
1.5

> <PUBCHEM_EXACT_MASS>
175.063329

> <PUBCHEM_MOLECULAR_FORMULA>
C10H9NO2

> <PUBCHEM_MOLECULAR_WEIGHT>
175.18396

> <PUBCHEM_OPENEYE_CAN_SMILES>
C=CC1=C2CCOC(=O)C2=CN=C1

> <PUBCHEM_OPENEYE_ISO_SMILES>
C=CC1=C2CCOC(=O)C2=CN=C1

> <PUBCHEM_CACTVS_TPSA>
39.2

> <PUBCHEM_MONOISOTOPIC_WEIGHT>
175.063329

> <PUBCHEM_TOTAL_CHARGE>
0

> <PUBCHEM_HEAVY_ATOM_COUNT>
13

> <PUBCHEM_ATOM_DEF_STEREO_COUNT>
0

> <PUBCHEM_ATOM_UDEF_STEREO_COUNT>
0

> <PUBCHEM_BOND_DEF_STEREO_COUNT>
0

> <PUBCHEM_BOND_UDEF_STEREO_COUNT>
0

> <PUBCHEM_ISOTOPIC_ATOM_COUNT>
0

> <PUBCHEM_COMPONENT_COUNT>
1

> <PUBCHEM_CACTVS_TAUTO_COUNT>
1

> <PUBCHEM_COORDINATE_TYPE>
1
5
255

> <PUBCHEM_BONDANNOTATIONS>
3  10  8
3  11  8
5  7  8
5  8  8
7  10  8
8  11  8

$$$$

