439853
  -OEChem-07051212472D

 58 57  0     1  0  0  0  0  0999 V2000
    4.2690    1.8100    0.0000 O   0  0  0  0  0  0  0  0  0  0  0  0
    2.5369   -1.1900    0.0000 O   0  0  0  0  0  0  0  0  0  0  0  0
    2.5369    0.8100    0.0000 N   0  0  0  0  0  0  0  0  0  0  0  0
   10.3312    0.3100    0.0000 C   0  0  0  0  0  0  0  0  0  0  0  0
   11.1972    0.8100    0.0000 C   0  0  0  0  0  0  0  0  0  0  0  0
    9.4651    0.8100    0.0000 C   0  0  0  0  0  0  0  0  0  0  0  0
   12.0632    0.3100    0.0000 C   0  0  0  0  0  0  0  0  0  0  0  0
    8.5991    0.3100    0.0000 C   0  0  0  0  0  0  0  0  0  0  0  0
   12.9292    0.8100    0.0000 C   0  0  0  0  0  0  0  0  0  0  0  0
    7.7331    0.8100    0.0000 C   0  0  0  0  0  0  0  0  0  0  0  0
   13.7953    0.3100    0.0000 C   0  0  0  0  0  0  0  0  0  0  0  0
    6.8671    0.3100    0.0000 C   0  0  0  0  0  0  0  0  0  0  0  0
   14.6613    0.8100    0.0000 C   0  0  0  0  0  0  0  0  0  0  0  0
    6.0010    0.8100    0.0000 C   0  0  0  0  0  0  0  0  0  0  0  0
   15.5273    0.3100    0.0000 C   0  0  0  0  0  0  0  0  0  0  0  0
    5.1350    0.3100    0.0000 C   0  0  0  0  0  0  0  0  0  0  0  0
   16.3933    0.8100    0.0000 C   0  0  0  0  0  0  0  0  0  0  0  0
    4.2690    0.8100    0.0000 C   0  0  0  0  0  0  0  0  0  0  0  0
    3.4030    0.3100    0.0000 C   0  0  2  0  0  0  0  0  0  0  0  0
   17.2594    0.3100    0.0000 C   0  0  0  0  0  0  0  0  0  0  0  0
    3.4030   -0.6900    0.0000 C   0  0  0  0  0  0  0  0  0  0  0  0
    9.9326   -0.1649    0.0000 H   0  0  0  0  0  0  0  0  0  0  0  0
   10.7297   -0.1649    0.0000 H   0  0  0  0  0  0  0  0  0  0  0  0
   11.5957    1.2850    0.0000 H   0  0  0  0  0  0  0  0  0  0  0  0
   10.7987    1.2850    0.0000 H   0  0  0  0  0  0  0  0  0  0  0  0
    9.8637    1.2850    0.0000 H   0  0  0  0  0  0  0  0  0  0  0  0
    9.0666    1.2850    0.0000 H   0  0  0  0  0  0  0  0  0  0  0  0
   11.6647   -0.1649    0.0000 H   0  0  0  0  0  0  0  0  0  0  0  0
   12.4617   -0.1649    0.0000 H   0  0  0  0  0  0  0  0  0  0  0  0
    8.2006   -0.1649    0.0000 H   0  0  0  0  0  0  0  0  0  0  0  0
    8.9976   -0.1649    0.0000 H   0  0  0  0  0  0  0  0  0  0  0  0
   13.3278    1.2850    0.0000 H   0  0  0  0  0  0  0  0  0  0  0  0
   12.5307    1.2850    0.0000 H   0  0  0  0  0  0  0  0  0  0  0  0
    8.1316    1.2850    0.0000 H   0  0  0  0  0  0  0  0  0  0  0  0
    7.3346    1.2850    0.0000 H   0  0  0  0  0  0  0  0  0  0  0  0
   13.3967   -0.1649    0.0000 H   0  0  0  0  0  0  0  0  0  0  0  0
   14.1938   -0.1649    0.0000 H   0  0  0  0  0  0  0  0  0  0  0  0
    6.4685   -0.1649    0.0000 H   0  0  0  0  0  0  0  0  0  0  0  0
    7.2656   -0.1649    0.0000 H   0  0  0  0  0  0  0  0  0  0  0  0
   15.0598    1.2850    0.0000 H   0  0  0  0  0  0  0  0  0  0  0  0
   14.2628    1.2850    0.0000 H   0  0  0  0  0  0  0  0  0  0  0  0
    6.3996    1.2850    0.0000 H   0  0  0  0  0  0  0  0  0  0  0  0
    5.6025    1.2850    0.0000 H   0  0  0  0  0  0  0  0  0  0  0  0
   15.1288   -0.1649    0.0000 H   0  0  0  0  0  0  0  0  0  0  0  0
   15.9258   -0.1649    0.0000 H   0  0  0  0  0  0  0  0  0  0  0  0
    4.7365   -0.1649    0.0000 H   0  0  0  0  0  0  0  0  0  0  0  0
    5.5335   -0.1649    0.0000 H   0  0  0  0  0  0  0  0  0  0  0  0
   16.7919    1.2850    0.0000 H   0  0  0  0  0  0  0  0  0  0  0  0
   15.9948    1.2850    0.0000 H   0  0  0  0  0  0  0  0  0  0  0  0
    3.4030    0.9300    0.0000 H   0  0  0  0  0  0  0  0  0  0  0  0
   16.9494   -0.2269    0.0000 H   0  0  0  0  0  0  0  0  0  0  0  0
   17.7963    0.0000    0.0000 H   0  0  0  0  0  0  0  0  0  0  0  0
   17.5694    0.8469    0.0000 H   0  0  0  0  0  0  0  0  0  0  0  0
    3.6150   -1.2726    0.0000 H   0  0  0  0  0  0  0  0  0  0  0  0
    4.0135   -0.5823    0.0000 H   0  0  0  0  0  0  0  0  0  0  0  0
    2.0000    0.5000    0.0000 H   0  0  0  0  0  0  0  0  0  0  0  0
    2.5369    1.4300    0.0000 H   0  0  0  0  0  0  0  0  0  0  0  0
    2.5369   -1.8100    0.0000 H   0  0  0  0  0  0  0  0  0  0  0  0
  1 18  2  0  0  0  0
  2 21  1  0  0  0  0
  2 58  1  0  0  0  0
 19  3  1  6  0  0  0
  3 56  1  0  0  0  0
  3 57  1  0  0  0  0
  4  5  1  0  0  0  0
  4  6  1  0  0  0  0
  4 22  1  0  0  0  0
  4 23  1  0  0  0  0
  5  7  1  0  0  0  0
  5 24  1  0  0  0  0
  5 25  1  0  0  0  0
  6  8  1  0  0  0  0
  6 26  1  0  0  0  0
  6 27  1  0  0  0  0
  7  9  1  0  0  0  0
  7 28  1  0  0  0  0
  7 29  1  0  0  0  0
  8 10  1  0  0  0  0
  8 30  1  0  0  0  0
  8 31  1  0  0  0  0
  9 11  1  0  0  0  0
  9 32  1  0  0  0  0
  9 33  1  0  0  0  0
 10 12  1  0  0  0  0
 10 34  1  0  0  0  0
 10 35  1  0  0  0  0
 11 13  1  0  0  0  0
 11 36  1  0  0  0  0
 11 37  1  0  0  0  0
 12 14  1  0  0  0  0
 12 38  1  0  0  0  0
 12 39  1  0  0  0  0
 13 15  1  0  0  0  0
 13 40  1  0  0  0  0
 13 41  1  0  0  0  0
 14 16  1  0  0  0  0
 14 42  1  0  0  0  0
 14 43  1  0  0  0  0
 15 17  1  0  0  0  0
 15 44  1  0  0  0  0
 15 45  1  0  0  0  0
 16 18  1  0  0  0  0
 16 46  1  0  0  0  0
 16 47  1  0  0  0  0
 17 20  1  0  0  0  0
 17 48  1  0  0  0  0
 17 49  1  0  0  0  0
 18 19  1  0  0  0  0
 19 21  1  0  0  0  0
 19 50  1  0  0  0  0
 20 51  1  0  0  0  0
 20 52  1  0  0  0  0
 20 53  1  0  0  0  0
 21 54  1  0  0  0  0
 21 55  1  0  0  0  0
M  END
> <PUBCHEM_COMPOUND_CID>
439853

> <PUBCHEM_COMPOUND_CANONICALIZED>
1

> <PUBCHEM_CACTVS_COMPLEXITY>
231

> <PUBCHEM_CACTVS_HBOND_ACCEPTOR>
3

> <PUBCHEM_CACTVS_HBOND_DONOR>
2

> <PUBCHEM_CACTVS_ROTATABLE_BOND>
16

> <PUBCHEM_CACTVS_SUBSKEYS>
AAADcfB6MAAAAAAAAAAAAAAAAAAAAAAAAAAAAAAAAAAAAAAAAAAAHgAQCAAACCzhgAYCAABAAgAIAIAQAAAAAAAAAAAAAIGAAAACEBYAgAAAQAAEMAAAAAGYyKCAAAAAAAAAAAAAAAAAAAAAAAAAAAAAAA==

> <PUBCHEM_IUPAC_OPENEYE_NAME>
(2S)-2-amino-1-hydroxy-octadecan-3-one

> <PUBCHEM_IUPAC_CAS_NAME>
(2S)-2-amino-1-hydroxy-3-octadecanone

> <PUBCHEM_IUPAC_NAME>
(2S)-2-amino-1-hydroxyoctadecan-3-one

> <PUBCHEM_IUPAC_SYSTEMATIC_NAME>
(2S)-2-azanyl-1-oxidanyl-octadecan-3-one

> <PUBCHEM_IUPAC_TRADITIONAL_NAME>
(2S)-2-amino-1-hydroxy-octadecan-3-one

> <PUBCHEM_IUPAC_INCHI>
InChI=1S/C18H37NO2/c1-2-3-4-5-6-7-8-9-10-11-12-13-14-15-18(21)17(19)16-20/h17,20H,2-16,19H2,1H3/t17-/m0/s1

> <PUBCHEM_IUPAC_INCHIKEY>
KBUNOSOGGAARKZ-KRWDZBQOSA-N

> <PUBCHEM_XLOGP3_AA>
5.7

> <PUBCHEM_EXACT_MASS>
299.282429

> <PUBCHEM_MOLECULAR_FORMULA>
C18H37NO2

> <PUBCHEM_MOLECULAR_WEIGHT>
299.49188

> <PUBCHEM_OPENEYE_CAN_SMILES>
CCCCCCCCCCCCCCCC(=O)C(CO)N

> <PUBCHEM_OPENEYE_ISO_SMILES>
CCCCCCCCCCCCCCCC(=O)[C@H](CO)N

> <PUBCHEM_CACTVS_TPSA>
63.3

> <PUBCHEM_MONOISOTOPIC_WEIGHT>
299.282429

> <PUBCHEM_TOTAL_CHARGE>
0

> <PUBCHEM_HEAVY_ATOM_COUNT>
21

> <PUBCHEM_ATOM_DEF_STEREO_COUNT>
1

> <PUBCHEM_ATOM_UDEF_STEREO_COUNT>
0

> <PUBCHEM_BOND_DEF_STEREO_COUNT>
0

> <PUBCHEM_BOND_UDEF_STEREO_COUNT>
0

> <PUBCHEM_ISOTOPIC_ATOM_COUNT>
0

> <PUBCHEM_COMPONENT_COUNT>
1

> <PUBCHEM_CACTVS_TAUTO_COUNT>
6

> <PUBCHEM_COORDINATE_TYPE>
1
5
255

> <PUBCHEM_BONDANNOTATIONS>
19  3  6

$$$$

