5280933
  -OEChem-07051212512D

 50 49  0     0  0  0  0  0  0999 V2000
    2.0000    2.0600    0.0000 O   0  0  0  0  0  0  0  0  0  0  0  0
    3.7320    2.0600    0.0000 O   0  0  0  0  0  0  0  0  0  0  0  0
    8.0622    1.5600    0.0000 C   0  0  0  0  0  0  0  0  0  0  0  0
    7.1962    2.0600    0.0000 C   0  0  0  0  0  0  0  0  0  0  0  0
    8.0622    0.5600    0.0000 C   0  0  0  0  0  0  0  0  0  0  0  0
    3.7320   -0.9400    0.0000 C   0  0  0  0  0  0  0  0  0  0  0  0
    7.1962    3.0600    0.0000 C   0  0  0  0  0  0  0  0  0  0  0  0
    3.7320    0.0600    0.0000 C   0  0  0  0  0  0  0  0  0  0  0  0
    4.5981   -1.4400    0.0000 C   0  0  0  0  0  0  0  0  0  0  0  0
    2.8660    0.5600    0.0000 C   0  0  0  0  0  0  0  0  0  0  0  0
    8.9282    0.0600    0.0000 C   0  0  0  0  0  0  0  0  0  0  0  0
    6.3301    3.5600    0.0000 C   0  0  0  0  0  0  0  0  0  0  0  0
    4.5981   -2.4400    0.0000 C   0  0  0  0  0  0  0  0  0  0  0  0
    8.9282   -0.9400    0.0000 C   0  0  0  0  0  0  0  0  0  0  0  0
    8.0622   -1.4400    0.0000 C   0  0  0  0  0  0  0  0  0  0  0  0
    5.4641   -2.9400    0.0000 C   0  0  0  0  0  0  0  0  0  0  0  0
    6.3301   -2.4400    0.0000 C   0  0  0  0  0  0  0  0  0  0  0  0
    8.0622   -2.4400    0.0000 C   0  0  0  0  0  0  0  0  0  0  0  0
    7.1962   -2.9400    0.0000 C   0  0  0  0  0  0  0  0  0  0  0  0
    2.8660    1.5600    0.0000 C   0  0  0  0  0  0  0  0  0  0  0  0
    8.6728    1.4523    0.0000 H   0  0  0  0  0  0  0  0  0  0  0  0
    8.2742    2.1426    0.0000 H   0  0  0  0  0  0  0  0  0  0  0  0
    6.5856    2.1677    0.0000 H   0  0  0  0  0  0  0  0  0  0  0  0
    6.9841    1.4774    0.0000 H   0  0  0  0  0  0  0  0  0  0  0  0
    7.4516    0.6677    0.0000 H   0  0  0  0  0  0  0  0  0  0  0  0
    7.8501   -0.0226    0.0000 H   0  0  0  0  0  0  0  0  0  0  0  0
    3.1215   -0.8323    0.0000 H   0  0  0  0  0  0  0  0  0  0  0  0
    3.5200   -1.5226    0.0000 H   0  0  0  0  0  0  0  0  0  0  0  0
    7.8067    2.9523    0.0000 H   0  0  0  0  0  0  0  0  0  0  0  0
    7.4082    3.6426    0.0000 H   0  0  0  0  0  0  0  0  0  0  0  0
    4.3426   -0.0477    0.0000 H   0  0  0  0  0  0  0  0  0  0  0  0
    3.9441    0.6426    0.0000 H   0  0  0  0  0  0  0  0  0  0  0  0
    5.2087   -1.5477    0.0000 H   0  0  0  0  0  0  0  0  0  0  0  0
    4.8101   -0.8574    0.0000 H   0  0  0  0  0  0  0  0  0  0  0  0
    2.2554    0.6677    0.0000 H   0  0  0  0  0  0  0  0  0  0  0  0
    2.6540   -0.0226    0.0000 H   0  0  0  0  0  0  0  0  0  0  0  0
    9.4651    0.3700    0.0000 H   0  0  0  0  0  0  0  0  0  0  0  0
    6.6401    4.0969    0.0000 H   0  0  0  0  0  0  0  0  0  0  0  0
    5.7932    3.8700    0.0000 H   0  0  0  0  0  0  0  0  0  0  0  0
    6.0201    3.0231    0.0000 H   0  0  0  0  0  0  0  0  0  0  0  0
    4.0611   -2.7500    0.0000 H   0  0  0  0  0  0  0  0  0  0  0  0
    9.4651   -1.2500    0.0000 H   0  0  0  0  0  0  0  0  0  0  0  0
    7.8501   -0.8574    0.0000 H   0  0  0  0  0  0  0  0  0  0  0  0
    7.4516   -1.5477    0.0000 H   0  0  0  0  0  0  0  0  0  0  0  0
    5.4641   -3.5600    0.0000 H   0  0  0  0  0  0  0  0  0  0  0  0
    6.7287   -1.9650    0.0000 H   0  0  0  0  0  0  0  0  0  0  0  0
    5.9316   -1.9650    0.0000 H   0  0  0  0  0  0  0  0  0  0  0  0
    8.5991   -2.7500    0.0000 H   0  0  0  0  0  0  0  0  0  0  0  0
    7.1962   -3.5600    0.0000 H   0  0  0  0  0  0  0  0  0  0  0  0
    2.0000    2.6800    0.0000 H   0  0  0  0  0  0  0  0  0  0  0  0
  1 20  1  0  0  0  0
  1 50  1  0  0  0  0
  2 20  2  0  0  0  0
  3  4  1  0  0  0  0
  3  5  1  0  0  0  0
  3 21  1  0  0  0  0
  3 22  1  0  0  0  0
  4  7  1  0  0  0  0
  4 23  1  0  0  0  0
  4 24  1  0  0  0  0
  5 11  1  0  0  0  0
  5 25  1  0  0  0  0
  5 26  1  0  0  0  0
  6  8  1  0  0  0  0
  6  9  1  0  0  0  0
  6 27  1  0  0  0  0
  6 28  1  0  0  0  0
  7 12  1  0  0  0  0
  7 29  1  0  0  0  0
  7 30  1  0  0  0  0
  8 10  1  0  0  0  0
  8 31  1  0  0  0  0
  8 32  1  0  0  0  0
  9 13  1  0  0  0  0
  9 33  1  0  0  0  0
  9 34  1  0  0  0  0
 10 20  1  0  0  0  0
 10 35  1  0  0  0  0
 10 36  1  0  0  0  0
 11 14  2  0  0  0  0
 11 37  1  0  0  0  0
 12 38  1  0  0  0  0
 12 39  1  0  0  0  0
 12 40  1  0  0  0  0
 13 16  2  0  0  0  0
 13 41  1  0  0  0  0
 14 15  1  0  0  0  0
 14 42  1  0  0  0  0
 15 18  1  0  0  0  0
 15 43  1  0  0  0  0
 15 44  1  0  0  0  0
 16 17  1  0  0  0  0
 16 45  1  0  0  0  0
 17 19  1  0  0  0  0
 17 46  1  0  0  0  0
 17 47  1  0  0  0  0
 18 19  2  0  0  0  0
 18 48  1  0  0  0  0
 19 49  1  0  0  0  0
M  END
> <PUBCHEM_COMPOUND_CID>
5280933

> <PUBCHEM_COMPOUND_CANONICALIZED>
1

> <PUBCHEM_CACTVS_COMPLEXITY>
301

> <PUBCHEM_CACTVS_HBOND_ACCEPTOR>
2

> <PUBCHEM_CACTVS_HBOND_DONOR>
1

> <PUBCHEM_CACTVS_ROTATABLE_BOND>
13

> <PUBCHEM_CACTVS_SUBSKEYS>
AAADceB4MAAAAAAAAAAAAAAAAAAAAAAAAAAAAAAAAAAAAAAAAAAAGgAACAAACACAgAACCAAAAgCIACDSCAAAAAAgAAAICAEAAAgAABIAAQAAQAAEgAAIAAOISAAAAAAAAAAAAAAAAAAAAAAAAAAAAAAAAA==

> <PUBCHEM_IUPAC_OPENEYE_NAME>
(6Z,9Z,12Z)-octadeca-6,9,12-trienoic acid

> <PUBCHEM_IUPAC_CAS_NAME>
(6Z,9Z,12Z)-octadeca-6,9,12-trienoic acid

> <PUBCHEM_IUPAC_NAME>
(6Z,9Z,12Z)-octadeca-6,9,12-trienoic acid

> <PUBCHEM_IUPAC_SYSTEMATIC_NAME>
(6Z,9Z,12Z)-octadeca-6,9,12-trienoic acid

> <PUBCHEM_IUPAC_TRADITIONAL_NAME>
(6Z,9Z,12Z)-octadeca-6,9,12-trienoic acid

> <PUBCHEM_IUPAC_INCHI>
InChI=1S/C18H30O2/c1-2-3-4-5-6-7-8-9-10-11-12-13-14-15-16-17-18(19)20/h6-7,9-10,12-13H,2-5,8,11,14-17H2,1H3,(H,19,20)/b7-6-,10-9-,13-12-

> <PUBCHEM_IUPAC_INCHIKEY>
VZCCETWTMQHEPK-QNEBEIHSSA-N

> <PUBCHEM_XLOGP3_AA>
5.9

> <PUBCHEM_EXACT_MASS>
278.22458

> <PUBCHEM_MOLECULAR_FORMULA>
C18H30O2

> <PUBCHEM_MOLECULAR_WEIGHT>
278.4296

> <PUBCHEM_OPENEYE_CAN_SMILES>
CCCCCC=CCC=CCC=CCCCCC(=O)O

> <PUBCHEM_OPENEYE_ISO_SMILES>
CCCCC/C=C\C/C=C\C/C=C\CCCCC(=O)O

> <PUBCHEM_CACTVS_TPSA>
37.3

> <PUBCHEM_MONOISOTOPIC_WEIGHT>
278.22458

> <PUBCHEM_TOTAL_CHARGE>
0

> <PUBCHEM_HEAVY_ATOM_COUNT>
20

> <PUBCHEM_ATOM_DEF_STEREO_COUNT>
0

> <PUBCHEM_ATOM_UDEF_STEREO_COUNT>
0

> <PUBCHEM_BOND_DEF_STEREO_COUNT>
3

> <PUBCHEM_BOND_UDEF_STEREO_COUNT>
0

> <PUBCHEM_ISOTOPIC_ATOM_COUNT>
0

> <PUBCHEM_COMPONENT_COUNT>
1

> <PUBCHEM_CACTVS_TAUTO_COUNT>
1

> <PUBCHEM_COORDINATE_TYPE>
1
5
255

$$$$

