443691
  -OEChem-07051213022D

 41 45  0     1  0  0  0  0  0999 V2000
    6.2596   -2.6176    0.0000 O   0  0  0  0  0  0  0  0  0  0  0  0
    8.9116    1.9276    0.0000 O   0  0  0  0  0  0  0  0  0  0  0  0
    2.6079    0.2207    0.0000 O   0  0  0  0  0  0  0  0  0  0  0  0
    2.6079   -1.4558    0.0000 O   0  0  0  0  0  0  0  0  0  0  0  0
    7.1256   -1.1176    0.0000 N   0  0  3  0  0  0  0  0  0  0  0  0
    6.2596    0.3825    0.0000 C   0  0  1  0  0  0  0  0  0  0  0  0
    7.1256   -0.1175    0.0000 C   0  0  2  0  0  0  0  0  0  0  0  0
    6.1461   -0.2211    0.0000 C   0  0  0  0  0  0  0  0  0  0  0  0
    6.5462   -0.9140    0.0000 C   0  0  0  0  0  0  0  0  0  0  0  0
    8.0356    0.3893    0.0000 C   0  0  0  0  0  0  0  0  0  0  0  0
    5.3935   -0.1175    0.0000 C   0  0  0  0  0  0  0  0  0  0  0  0
    6.2596   -1.6176    0.0000 C   0  0  2  0  0  0  0  0  0  0  0  0
    6.2435    1.4240    0.0000 C   0  0  0  0  0  0  0  0  0  0  0  0
    5.3935   -1.1176    0.0000 C   0  0  0  0  0  0  0  0  0  0  0  0
    8.0436    1.4309    0.0000 C   0  0  1  0  0  0  0  0  0  0  0  0
    7.1415    1.9517    0.0000 C   0  0  0  0  0  0  0  0  0  0  0  0
    4.4996    0.4171    0.0000 C   0  0  0  0  0  0  0  0  0  0  0  0
    4.4996   -1.6522    0.0000 C   0  0  0  0  0  0  0  0  0  0  0  0
    3.5935   -0.0967    0.0000 C   0  0  0  0  0  0  0  0  0  0  0  0
    3.5935   -1.1384    0.0000 C   0  0  0  0  0  0  0  0  0  0  0  0
    8.9154    2.9276    0.0000 C   0  0  0  0  0  0  0  0  0  0  0  0
    2.0000   -0.6175    0.0000 C   0  0  0  0  0  0  0  0  0  0  0  0
    7.8617   -0.5425    0.0000 H   0  0  0  0  0  0  0  0  0  0  0  0
    5.5942    0.0612    0.0000 H   0  0  0  0  0  0  0  0  0  0  0  0
    5.7190   -0.6705    0.0000 H   0  0  0  0  0  0  0  0  0  0  0  0
    5.9434   -1.0592    0.0000 H   0  0  0  0  0  0  0  0  0  0  0  0
    6.5147   -1.5332    0.0000 H   0  0  0  0  0  0  0  0  0  0  0  0
    8.2401   -0.1960    0.0000 H   0  0  0  0  0  0  0  0  0  0  0  0
    8.6472    0.4907    0.0000 H   0  0  0  0  0  0  0  0  0  0  0  0
    5.7226   -1.9276    0.0000 H   0  0  0  0  0  0  0  0  0  0  0  0
    5.7030    1.7277    0.0000 H   0  0  0  0  0  0  0  0  0  0  0  0
    8.0448    2.0509    0.0000 H   0  0  0  0  0  0  0  0  0  0  0  0
    7.1391    2.5717    0.0000 H   0  0  0  0  0  0  0  0  0  0  0  0
    4.5068    1.0371    0.0000 H   0  0  0  0  0  0  0  0  0  0  0  0
    4.5068   -2.2722    0.0000 H   0  0  0  0  0  0  0  0  0  0  0  0
    6.7965   -2.9276    0.0000 H   0  0  0  0  0  0  0  0  0  0  0  0
    9.5354    2.9252    0.0000 H   0  0  0  0  0  0  0  0  0  0  0  0
    8.9178    3.5475    0.0000 H   0  0  0  0  0  0  0  0  0  0  0  0
    8.2954    2.9299    0.0000 H   0  0  0  0  0  0  0  0  0  0  0  0
    1.5391   -0.2028    0.0000 H   0  0  0  0  0  0  0  0  0  0  0  0
    1.5391   -1.0323    0.0000 H   0  0  0  0  0  0  0  0  0  0  0  0
 12  1  1  1  0  0  0
  1 36  1  0  0  0  0
 15  2  1  1  0  0  0
  2 21  1  0  0  0  0
  3 19  1  0  0  0  0
  3 22  1  0  0  0  0
  4 20  1  0  0  0  0
  4 22  1  0  0  0  0
  5  7  1  0  0  0  0
  5  9  1  0  0  0  0
  5 12  1  0  0  0  0
  6  7  1  0  0  0  0
  6  8  1  0  0  0  0
  6 11  1  0  0  0  0
  6 13  1  6  0  0  0
  7 10  1  0  0  0  0
  7 23  1  1  0  0  0
  8  9  1  0  0  0  0
  8 24  1  0  0  0  0
  8 25  1  0  0  0  0
  9 26  1  0  0  0  0
  9 27  1  0  0  0  0
 10 15  1  0  0  0  0
 10 28  1  0  0  0  0
 10 29  1  0  0  0  0
 11 14  1  0  0  0  0
 11 17  2  0  0  0  0
 12 14  1  0  0  0  0
 12 30  1  0  0  0  0
 13 16  2  0  0  0  0
 13 31  1  0  0  0  0
 14 18  2  0  0  0  0
 15 16  1  0  0  0  0
 15 32  1  0  0  0  0
 16 33  1  0  0  0  0
 17 19  1  0  0  0  0
 17 34  1  0  0  0  0
 18 20  1  0  0  0  0
 18 35  1  0  0  0  0
 19 20  2  0  0  0  0
 21 37  1  0  0  0  0
 21 38  1  0  0  0  0
 21 39  1  0  0  0  0
 22 40  1  0  0  0  0
 22 41  1  0  0  0  0
M  END
> <PUBCHEM_COMPOUND_CID>
443691

> <PUBCHEM_COMPOUND_CANONICALIZED>
1

> <PUBCHEM_CACTVS_COMPLEXITY>
497

> <PUBCHEM_CACTVS_HBOND_ACCEPTOR>
5

> <PUBCHEM_CACTVS_HBOND_DONOR>
1

> <PUBCHEM_CACTVS_ROTATABLE_BOND>
1

> <PUBCHEM_CACTVS_SUBSKEYS>
AAADceB6OAAAAAAAAAAAAAAAAAAAAWJAAAA8QIAABYAAAEixAAAAHgAACAAADjzhmAcyDoMABgCAAiBCAACCCAAgIAAIiAAOjIgdNiKEsRukcCpmwBGOuAfw8P8PoAABAAAQQABAAAIAACCAAAAAAAAAAA==

> <PUBCHEM_IUPAC_INCHI>
InChI=1S/C17H19NO4/c1-20-10-2-3-17-4-5-18(15(17)6-10)16(19)11-7-13-14(8-12(11)17)22-9-21-13/h2-3,7-8,10,15-16,19H,4-6,9H2,1H3/t10-,15+,16+,17+/m1/s1

> <PUBCHEM_IUPAC_INCHIKEY>
VCFGXYUXSWZFDE-GEMNNEOKSA-N

> <PUBCHEM_XLOGP3_AA>
1.7

> <PUBCHEM_EXACT_MASS>
301.131408

> <PUBCHEM_MOLECULAR_FORMULA>
C17H19NO4

> <PUBCHEM_MOLECULAR_WEIGHT>
301.33706

> <PUBCHEM_OPENEYE_CAN_SMILES>
COC1CC2C3(CCN2C(C4=CC5=C(C=C43)OCO5)O)C=C1

> <PUBCHEM_OPENEYE_ISO_SMILES>
CO[C@H]1C[C@H]2[C@]3(CCN2[C@H](C4=CC5=C(C=C43)OCO5)O)C=C1

> <PUBCHEM_CACTVS_TPSA>
51.2

> <PUBCHEM_MONOISOTOPIC_WEIGHT>
301.131408

> <PUBCHEM_TOTAL_CHARGE>
0

> <PUBCHEM_HEAVY_ATOM_COUNT>
22

> <PUBCHEM_ATOM_DEF_STEREO_COUNT>
4

> <PUBCHEM_ATOM_UDEF_STEREO_COUNT>
0

> <PUBCHEM_BOND_DEF_STEREO_COUNT>
0

> <PUBCHEM_BOND_UDEF_STEREO_COUNT>
0

> <PUBCHEM_ISOTOPIC_ATOM_COUNT>
0

> <PUBCHEM_COMPONENT_COUNT>
1

> <PUBCHEM_CACTVS_TAUTO_COUNT>
1

> <PUBCHEM_COORDINATE_TYPE>
1
5
255

> <PUBCHEM_BONDANNOTATIONS>
12  1  5
11  14  8
11  17  8
14  18  8
17  19  8
18  20  8
19  20  8
15  2  5
6  13  6
7  23  5

$$$$

