   Chemical and Physical Properties References

   [1]USDA ARS - USDA chemical properties
   from [2]ChemIDplus

   Color/Form

     * Crystals
     * White powder
     * WHITE SOLID

   from [3]HSDB

   Odor
        Odorless.
   from [4]HSDB

   Melting Point
        119 deg C
   from [5]HSDB

   Corrosivity
        Non-corrosive under normal application conditions
   from [6]HSDB

   Density/Specific Gravity
        1.157 g/cu cm at 20 deg C
   from [7]HSDB

   Dissociation Constants
        pKa = 4.05
   from [8]HSDB

   Octanol/Water Partition Coefficient
        log Kow = 3.51
   from [9]HSDB

   Solubilities

     * Solubilities in organic solvents at 25 deg C.

       Solvent

   g/L

   Acetone 330
   Ethanol 140
   Hexane 6.3
   Toluene 200
   n-Octanol 110

     Solubilities in organic solvents at 20 deg C

   Solvent g/L
   Acetone 240
   Methanol 160
   Dichloromethane 300
   Hexane 5.5
   Toluene 170

     In water solubility, 33 mg/L at 25 deg C

   from [10]HSDB

   Spectral Properties
        Intense mass spectral peaks: 241 m/z (100%), 58 m/z (84%), 184 m/z
   (72%), 226 m/z (62%)
   from [11]HSDB

   Vapor Pressure
        1.24X10-6 mm Hg at 25 deg C
   from [12]HSDB

   Other Chemical/Physical Properties

     * Stable to hydrolysis at 20 deg C in neutral, slightly acidic or
       slightly alkaline media. Hydrolyzed by warm acids and alkalis.
       Decomposed by U.V. irradiation.
     * Colorless crystals /technical, 97%/
     * Half-life at 25 deg C of 22.2 days and 1200 days in 0.1N
       hydrochloric acid and 0.1N sodium hydroxide respectively.
     * Henry's Law constant = 1.32X10-8 atm-cu m/mol at 25 deg C (est)
     * Hydroxyl radical reaction rate constant = 3.81X10-11 cu
       cm/molec-sec at 25 deg C (est)

   from [13]HSDB

   Computed Properties
   Molecular Weight                  241.35636 [g/mol]
   Molecular Formula                 C[10]H[19]N[5]S
   XLogP3                            3.5
   H-Bond Donor                      2
   H-Bond Acceptor                   6
   Rotatable Bond Count              5
   Tautomer Count                    5
   Exact Mass                        241.136117
   MonoIsotopic Mass                 241.136117
   Topological Polar Surface Area    88
   Heavy Atom Count                  16
   Formal Charge                     0
   Complexity                        182
   Isotope Atom Count                0
   Defined Atom Stereocenter Count   0
   Undefined Atom Stereocenter Count 0
   Defined Bond Stereocenter Count   0
   Undefined Bond Stereocenter Count 0
   Covalently-Bonded Unit Count      1
   Feature 3D Donor Count            2
   Feature 3D Cation Count           2
   Feature 3D Hydrophobe Count       3
   Feature 3D Ring Count             1
   Effective Rotor Count             5
   Conformer Sampling RMSD           0.6
   CID Conformer Count               [14]166

References

   1. http://www.ars.usda.gov/SP2UserFiles/ad_hoc/12755100DatabaseFiles/PesticidePropertiesDatabase/IndividualPesticideFiles/PROMETRYN.TXT
   2. http://chem.sis.nlm.nih.gov/chemidplus/
   3. http://toxnet.nlm.nih.gov/cgi-bin/sis/search/r?dbs+hsdb:@term+@rn+@rel+7287-19-6
   4. http://toxnet.nlm.nih.gov/cgi-bin/sis/search/r?dbs+hsdb:@term+@rn+@rel+7287-19-6
   5. http://toxnet.nlm.nih.gov/cgi-bin/sis/search/r?dbs+hsdb:@term+@rn+@rel+7287-19-6
   6. http://toxnet.nlm.nih.gov/cgi-bin/sis/search/r?dbs+hsdb:@term+@rn+@rel+7287-19-6
   7. http://toxnet.nlm.nih.gov/cgi-bin/sis/search/r?dbs+hsdb:@term+@rn+@rel+7287-19-6
   8. http://toxnet.nlm.nih.gov/cgi-bin/sis/search/r?dbs+hsdb:@term+@rn+@rel+7287-19-6
   9. http://toxnet.nlm.nih.gov/cgi-bin/sis/search/r?dbs+hsdb:@term+@rn+@rel+7287-19-6
  10. http://toxnet.nlm.nih.gov/cgi-bin/sis/search/r?dbs+hsdb:@term+@rn+@rel+7287-19-6
  11. http://toxnet.nlm.nih.gov/cgi-bin/sis/search/r?dbs+hsdb:@term+@rn+@rel+7287-19-6
  12. http://toxnet.nlm.nih.gov/cgi-bin/sis/search/r?dbs+hsdb:@term+@rn+@rel+7287-19-6
  13. http://toxnet.nlm.nih.gov/cgi-bin/sis/search/r?dbs+hsdb:@term+@rn+@rel+7287-19-6
  14. http://pubchem.ncbi.nlm.nih.gov/vw3d/vw3d.cgi?cid=4929
