5462452
  -OEChem-07051212592D

 52 55  0     1  0  0  0  0  0999 V2000
    4.6364   -0.8473    0.0000 O   0  0  0  0  0  0  0  0  0  0  0  0
    6.7399   -2.2164    0.0000 O   0  0  0  0  0  0  0  0  0  0  0  0
    8.5853   -1.3277    0.0000 O   0  0  0  0  0  0  0  0  0  0  0  0
    2.2188    1.7383    0.0000 O   0  0  0  0  0  0  0  0  0  0  0  0
    2.6746   -0.2587    0.0000 O   0  0  0  0  0  0  0  0  0  0  0  0
    6.7394    1.8467    0.0000 N   0  0  3  0  0  0  0  0  0  0  0  0
    6.0562    0.4113    0.0000 C   0  0  2  0  0  0  0  0  0  0  0  0
    7.1797    1.8201    0.0000 C   0  0  2  0  0  0  0  0  0  0  0  0
    6.9572    0.8452    0.0000 C   0  0  0  0  0  0  0  0  0  0  0  0
    5.9323    0.8347    0.0000 C   0  0  0  0  0  0  0  0  0  0  0  0
    5.9682    1.6338    0.0000 C   0  0  0  0  0  0  0  0  0  0  0  0
    5.1552    0.8452    0.0000 C   0  0  0  0  0  0  0  0  0  0  0  0
    6.5562    2.6019    0.0000 C   0  0  0  0  0  0  0  0  0  0  0  0
    5.5562    2.6019    0.0000 C   0  0  0  0  0  0  0  0  0  0  0  0
    4.9327    1.8201    0.0000 C   0  0  0  0  0  0  0  0  0  0  0  0
    5.9624   -0.6261    0.0000 C   0  0  0  0  0  0  0  0  0  0  0  0
    7.8267    0.2717    0.0000 C   0  0  0  0  0  0  0  0  0  0  0  0
    4.4027    0.1250    0.0000 C   0  0  0  0  0  0  0  0  0  0  0  0
    7.0907    2.7829    0.0000 C   0  0  0  0  0  0  0  0  0  0  0  0
    6.8184   -1.2195    0.0000 C   0  0  0  0  0  0  0  0  0  0  0  0
    7.7569   -0.7676    0.0000 C   0  0  0  0  0  0  0  0  0  0  0  0
    3.9422    2.1424    0.0000 C   0  0  0  0  0  0  0  0  0  0  0  0
    3.4050    0.4243    0.0000 C   0  0  0  0  0  0  0  0  0  0  0  0
    3.1732    1.4398    0.0000 C   0  0  0  0  0  0  0  0  0  0  0  0
    3.9113   -1.5359    0.0000 C   0  0  0  0  0  0  0  0  0  0  0  0
    7.5639   -2.7829    0.0000 C   0  0  0  0  0  0  0  0  0  0  0  0
    2.0000    2.7141    0.0000 C   0  0  0  0  0  0  0  0  0  0  0  0
    7.7096    2.4846    0.0000 H   0  0  0  0  0  0  0  0  0  0  0  0
    5.3764    1.1091    0.0000 H   0  0  0  0  0  0  0  0  0  0  0  0
    6.5478    0.9088    0.0000 H   0  0  0  0  0  0  0  0  0  0  0  0
    5.8666    2.2455    0.0000 H   0  0  0  0  0  0  0  0  0  0  0  0
    5.3493    1.5968    0.0000 H   0  0  0  0  0  0  0  0  0  0  0  0
    7.1148    2.8709    0.0000 H   0  0  0  0  0  0  0  0  0  0  0  0
    6.4182    3.2064    0.0000 H   0  0  0  0  0  0  0  0  0  0  0  0
    5.6941    3.2064    0.0000 H   0  0  0  0  0  0  0  0  0  0  0  0
    4.9976    2.8709    0.0000 H   0  0  0  0  0  0  0  0  0  0  0  0
    5.4007   -0.8886    0.0000 H   0  0  0  0  0  0  0  0  0  0  0  0
    8.3822    0.5472    0.0000 H   0  0  0  0  0  0  0  0  0  0  0  0
    7.6712    2.5651    0.0000 H   0  0  0  0  0  0  0  0  0  0  0  0
    7.3086    3.3634    0.0000 H   0  0  0  0  0  0  0  0  0  0  0  0
    6.5103    3.0008    0.0000 H   0  0  0  0  0  0  0  0  0  0  0  0
    3.8112    2.7484    0.0000 H   0  0  0  0  0  0  0  0  0  0  0  0
    2.0814   -0.0782    0.0000 H   0  0  0  0  0  0  0  0  0  0  0  0
    3.4844   -1.0863    0.0000 H   0  0  0  0  0  0  0  0  0  0  0  0
    3.4617   -1.9628    0.0000 H   0  0  0  0  0  0  0  0  0  0  0  0
    4.3382   -1.9855    0.0000 H   0  0  0  0  0  0  0  0  0  0  0  0
    7.2127   -3.2938    0.0000 H   0  0  0  0  0  0  0  0  0  0  0  0
    8.0748   -3.1341    0.0000 H   0  0  0  0  0  0  0  0  0  0  0  0
    7.9152   -2.2720    0.0000 H   0  0  0  0  0  0  0  0  0  0  0  0
    2.6050    2.8497    0.0000 H   0  0  0  0  0  0  0  0  0  0  0  0
    1.8644    3.3190    0.0000 H   0  0  0  0  0  0  0  0  0  0  0  0
    1.3950    2.5784    0.0000 H   0  0  0  0  0  0  0  0  0  0  0  0
  1 18  1  0  0  0  0
  1 25  1  0  0  0  0
  2 20  1  0  0  0  0
  2 26  1  0  0  0  0
  3 21  2  0  0  0  0
  4 24  1  0  0  0  0
  4 27  1  0  0  0  0
  5 23  1  0  0  0  0
  5 43  1  0  0  0  0
  6  8  1  0  0  0  0
  6 11  1  0  0  0  0
  6 19  1  0  0  0  0
  7  9  1  0  0  0  0
  7 10  1  0  0  0  0
  7 12  1  0  0  0  0
  7 16  1  6  0  0  0
  8  9  1  0  0  0  0
  8 13  1  0  0  0  0
  8 28  1  6  0  0  0
  9 17  2  0  0  0  0
 10 11  1  0  0  0  0
 10 29  1  0  0  0  0
 10 30  1  0  0  0  0
 11 31  1  0  0  0  0
 11 32  1  0  0  0  0
 12 15  1  0  0  0  0
 12 18  2  0  0  0  0
 13 14  1  0  0  0  0
 13 33  1  0  0  0  0
 13 34  1  0  0  0  0
 14 15  1  0  0  0  0
 14 35  1  0  0  0  0
 14 36  1  0  0  0  0
 15 22  2  0  0  0  0
 16 20  2  0  0  0  0
 16 37  1  0  0  0  0
 17 21  1  0  0  0  0
 17 38  1  0  0  0  0
 18 23  1  0  0  0  0
 19 39  1  0  0  0  0
 19 40  1  0  0  0  0
 19 41  1  0  0  0  0
 20 21  1  0  0  0  0
 22 24  1  0  0  0  0
 22 42  1  0  0  0  0
 23 24  2  0  0  0  0
 25 44  1  0  0  0  0
 25 45  1  0  0  0  0
 25 46  1  0  0  0  0
 26 47  1  0  0  0  0
 26 48  1  0  0  0  0
 26 49  1  0  0  0  0
 27 50  1  0  0  0  0
 27 51  1  0  0  0  0
 27 52  1  0  0  0  0
M  END
> <PUBCHEM_COMPOUND_CID>
5462452

> <PUBCHEM_COMPOUND_CANONICALIZED>
1

> <PUBCHEM_CACTVS_COMPLEXITY>
674

> <PUBCHEM_CACTVS_HBOND_ACCEPTOR>
6

> <PUBCHEM_CACTVS_HBOND_DONOR>
1

> <PUBCHEM_CACTVS_ROTATABLE_BOND>
3

> <PUBCHEM_CACTVS_SUBSKEYS>
AAADceB6OAAAAAAAAAAAAAAAAAAAAAAAAAA8QIAABgAAAFiBAAAAHgAACAAADizBmAYyBoMABgCIAqBSAAKCCAAgIAAAiABOiMgNJyKGsR6EcCMlwBWLuYeQ8P8PoAABCAAYQABAAAIQADCAAAAAAAAAAA==

> <PUBCHEM_IUPAC_INCHI>
InChI=1S/C21H25NO5/c1-22-8-7-21-11-17(26-3)15(23)10-13(21)14(22)6-5-12-9-16(25-2)19(24)20(27-4)18(12)21/h9-11,14,24H,5-8H2,1-4H3/t14-,21+/m0/s1

> <PUBCHEM_IUPAC_INCHIKEY>
ABMMKLCVJJTPJD-LHSJRXKWSA-N

> <PUBCHEM_XLOGP3_AA>
2.3

> <PUBCHEM_EXACT_MASS>
371.173273

> <PUBCHEM_MOLECULAR_FORMULA>
C21H25NO5

> <PUBCHEM_MOLECULAR_WEIGHT>
371.4269

> <PUBCHEM_OPENEYE_CAN_SMILES>
CN1CCC23C=C(C(=O)C=C2C1CCC4=CC(=C(C(=C34)OC)O)OC)OC

> <PUBCHEM_OPENEYE_ISO_SMILES>
CN1CC[C@@]23C=C(C(=O)C=C2[C@@H]1CCC4=CC(=C(C(=C34)OC)O)OC)OC

> <PUBCHEM_CACTVS_TPSA>
68.2

> <PUBCHEM_MONOISOTOPIC_WEIGHT>
371.173273

> <PUBCHEM_TOTAL_CHARGE>
0

> <PUBCHEM_HEAVY_ATOM_COUNT>
27

> <PUBCHEM_ATOM_DEF_STEREO_COUNT>
2

> <PUBCHEM_ATOM_UDEF_STEREO_COUNT>
0

> <PUBCHEM_BOND_DEF_STEREO_COUNT>
0

> <PUBCHEM_BOND_UDEF_STEREO_COUNT>
0

> <PUBCHEM_ISOTOPIC_ATOM_COUNT>
0

> <PUBCHEM_COMPONENT_COUNT>
1

> <PUBCHEM_CACTVS_TAUTO_COUNT>
3

> <PUBCHEM_COORDINATE_TYPE>
1
5
255

> <PUBCHEM_BONDANNOTATIONS>
12  15  8
12  18  8
15  22  8
18  23  8
22  24  8
23  24  8
7  16  6
8  28  6

$$$$

