54682463
  -OEChem-07051212472D

 45 49  0     1  0  0  0  0  0999 V2000
    3.8150   -1.8122    0.0000 O   0  0  0  0  0  0  0  0  0  0  0  0
    7.2971   -2.1752    0.0000 O   0  0  0  0  0  0  0  0  0  0  0  0
    4.5113   -3.6639    0.0000 O   0  0  0  0  0  0  0  0  0  0  0  0
    6.1802   -0.8007    0.0000 N   0  0  0  0  0  0  0  0  0  0  0  0
    2.6194    1.4789    0.0000 N   0  0  0  0  0  0  0  0  0  0  0  0
    5.8482    0.7742    0.0000 C   0  0  2  0  0  0  0  0  0  0  0  0
    4.9822    0.2742    0.0000 C   0  0  1  0  0  0  0  0  0  0  0  0
    6.5853    0.1071    0.0000 C   0  0  0  0  0  0  0  0  0  0  0  0
    5.1914   -0.6976    0.0000 C   0  0  1  0  0  0  0  0  0  0  0  0
    5.8482    1.7742    0.0000 C   0  0  0  0  0  0  0  0  0  0  0  0
    4.1162    0.7742    0.0000 C   0  0  0  0  0  0  0  0  0  0  0  0
    7.4981   -0.3012    0.0000 C   0  0  0  0  0  0  0  0  0  0  0  0
    7.2557    0.8491    0.0000 C   0  0  0  0  0  0  0  0  0  0  0  0
    4.7926   -1.6018    0.0000 C   0  0  0  0  0  0  0  0  0  0  0  0
    4.1162    1.7742    0.0000 C   0  0  0  0  0  0  0  0  0  0  0  0
    4.9822    2.2742    0.0000 C   0  0  0  0  0  0  0  0  0  0  0  0
    6.3839   -1.7676    0.0000 C   0  0  0  0  0  0  0  0  0  0  0  0
    5.5281   -2.2617    0.0000 C   0  0  0  0  0  0  0  0  0  0  0  0
    3.1332    0.6282    0.0000 C   0  0  0  0  0  0  0  0  0  0  0  0
    3.2062    2.2810    0.0000 C   0  0  0  0  0  0  0  0  0  0  0  0
    4.9983    3.3157    0.0000 C   0  0  0  0  0  0  0  0  0  0  0  0
    5.4245   -3.2564    0.0000 C   0  0  0  0  0  0  0  0  0  0  0  0
    3.1982    3.3226    0.0000 C   0  0  0  0  0  0  0  0  0  0  0  0
    4.1002    3.8434    0.0000 C   0  0  0  0  0  0  0  0  0  0  0  0
    6.2340   -3.8434    0.0000 C   0  0  0  0  0  0  0  0  0  0  0  0
    6.6252    1.1189    0.0000 H   0  0  0  0  0  0  0  0  0  0  0  0
    4.2952   -0.2263    0.0000 H   0  0  0  0  0  0  0  0  0  0  0  0
    4.3458   -0.6113    0.0000 H   0  0  0  0  0  0  0  0  0  0  0  0
    6.4588    1.6665    0.0000 H   0  0  0  0  0  0  0  0  0  0  0  0
    6.0603    2.3568    0.0000 H   0  0  0  0  0  0  0  0  0  0  0  0
    7.2450   -0.8672    0.0000 H   0  0  0  0  0  0  0  0  0  0  0  0
    8.0641   -0.5544    0.0000 H   0  0  0  0  0  0  0  0  0  0  0  0
    7.7513    0.2647    0.0000 H   0  0  0  0  0  0  0  0  0  0  0  0
    7.7157    0.4334    0.0000 H   0  0  0  0  0  0  0  0  0  0  0  0
    7.6713    1.3091    0.0000 H   0  0  0  0  0  0  0  0  0  0  0  0
    6.7956    1.2647    0.0000 H   0  0  0  0  0  0  0  0  0  0  0  0
    2.8690    0.0673    0.0000 H   0  0  0  0  0  0  0  0  0  0  0  0
    2.0000    1.5063    0.0000 H   0  0  0  0  0  0  0  0  0  0  0  0
    5.5388    3.6195    0.0000 H   0  0  0  0  0  0  0  0  0  0  0  0
    3.6250   -2.4024    0.0000 H   0  0  0  0  0  0  0  0  0  0  0  0
    2.6600    3.6306    0.0000 H   0  0  0  0  0  0  0  0  0  0  0  0
    4.1026    4.4634    0.0000 H   0  0  0  0  0  0  0  0  0  0  0  0
    5.8700   -4.3454    0.0000 H   0  0  0  0  0  0  0  0  0  0  0  0
    6.7359   -4.2074    0.0000 H   0  0  0  0  0  0  0  0  0  0  0  0
    6.5980   -3.3415    0.0000 H   0  0  0  0  0  0  0  0  0  0  0  0
  1 14  1  0  0  0  0
  1 40  1  0  0  0  0
  2 17  2  0  0  0  0
  3 22  2  0  0  0  0
  4  8  1  0  0  0  0
  4  9  1  0  0  0  0
  4 17  1  0  0  0  0
  5 19  1  0  0  0  0
  5 20  1  0  0  0  0
  5 38  1  0  0  0  0
  6  7  1  0  0  0  0
  6  8  1  0  0  0  0
  6 10  1  0  0  0  0
  6 26  1  6  0  0  0
  7  9  1  0  0  0  0
  7 11  1  0  0  0  0
  7 27  1  6  0  0  0
  8 12  1  0  0  0  0
  8 13  1  0  0  0  0
  9 14  1  0  0  0  0
  9 28  1  1  0  0  0
 10 16  1  0  0  0  0
 10 29  1  0  0  0  0
 10 30  1  0  0  0  0
 11 15  1  0  0  0  0
 11 19  2  0  0  0  0
 12 31  1  0  0  0  0
 12 32  1  0  0  0  0
 12 33  1  0  0  0  0
 13 34  1  0  0  0  0
 13 35  1  0  0  0  0
 13 36  1  0  0  0  0
 14 18  2  0  0  0  0
 15 16  2  0  0  0  0
 15 20  1  0  0  0  0
 16 21  1  0  0  0  0
 17 18  1  0  0  0  0
 18 22  1  0  0  0  0
 19 37  1  0  0  0  0
 20 23  2  0  0  0  0
 21 24  2  0  0  0  0
 21 39  1  0  0  0  0
 22 25  1  0  0  0  0
 23 24  1  0  0  0  0
 23 41  1  0  0  0  0
 24 42  1  0  0  0  0
 25 43  1  0  0  0  0
 25 44  1  0  0  0  0
 25 45  1  0  0  0  0
M  END
> <PUBCHEM_COMPOUND_CID>
54682463

> <PUBCHEM_COMPOUND_CANONICALIZED>
1

> <PUBCHEM_CACTVS_COMPLEXITY>
697

> <PUBCHEM_CACTVS_HBOND_ACCEPTOR>
3

> <PUBCHEM_CACTVS_HBOND_DONOR>
2

> <PUBCHEM_CACTVS_ROTATABLE_BOND>
1

> <PUBCHEM_CACTVS_SUBSKEYS>
AAADceB7MAAAAAAAAAAAAAAAAAAAAWLEAAAwYAAAAAAQAFjB8AAAHgAQCAAADazBngQ+wPPJkgCoA7V3VACCgCAxIiAI2aE4ZNgKIPrIkZGEYAhklgDYyQeQ0PMOgAAAQAASAACAAASAACQAAAAAAAAAAA==

> <PUBCHEM_IUPAC_INCHI>
InChI=1S/C20H20N2O3/c1-9(23)14-18(24)17-16-11-8-21-13-6-4-5-10(15(11)13)7-12(16)20(2,3)22(17)19(14)25/h4-6,8,12,16-17,21,24H,7H2,1-3H3/t12-,16+,17+/m1/s1

> <PUBCHEM_IUPAC_INCHIKEY>
SZINUGQCTHLQAZ-DQYPLSBCSA-N

> <PUBCHEM_XLOGP3_AA>
2.2

> <PUBCHEM_EXACT_MASS>
336.147393

> <PUBCHEM_MOLECULAR_FORMULA>
C20H20N2O3

> <PUBCHEM_MOLECULAR_WEIGHT>
336.3844

> <PUBCHEM_OPENEYE_CAN_SMILES>
CC(=O)C1=C(C2C3C(CC4=C5C3=CNC5=CC=C4)C(N2C1=O)(C)C)O

> <PUBCHEM_OPENEYE_ISO_SMILES>
CC(=O)C1=C([C@@H]2[C@@H]3[C@@H](CC4=C5C3=CNC5=CC=C4)C(N2C1=O)(C)C)O

> <PUBCHEM_CACTVS_TPSA>
73.4

> <PUBCHEM_MONOISOTOPIC_WEIGHT>
336.147393

> <PUBCHEM_TOTAL_CHARGE>
0

> <PUBCHEM_HEAVY_ATOM_COUNT>
25

> <PUBCHEM_ATOM_DEF_STEREO_COUNT>
3

> <PUBCHEM_ATOM_UDEF_STEREO_COUNT>
0

> <PUBCHEM_BOND_DEF_STEREO_COUNT>
0

> <PUBCHEM_BOND_UDEF_STEREO_COUNT>
0

> <PUBCHEM_ISOTOPIC_ATOM_COUNT>
0

> <PUBCHEM_COMPONENT_COUNT>
1

> <PUBCHEM_CACTVS_TAUTO_COUNT>
12

> <PUBCHEM_COORDINATE_TYPE>
1
5
255

> <PUBCHEM_BONDANNOTATIONS>
11  15  8
11  19  8
15  16  8
15  20  8
16  21  8
20  23  8
21  24  8
23  24  8
5  19  8
5  20  8
6  26  6
7  27  6
9  28  5

$$$$

