14002
  -OEChem-06241222412D

 74 78  0     1  0  0  0  0  0999 V2000
    5.1224    1.1194    0.0000 F   0  0  0  0  0  0  0  0  0  0  0  0
    4.9069   -1.8198    0.0000 O   0  0  0  0  0  0  0  0  0  0  0  0
    5.8697    0.9458    0.0000 O   0  0  0  0  0  0  0  0  0  0  0  0
    5.2641   -3.5147    0.0000 O   0  0  0  0  0  0  0  0  0  0  0  0
    3.0007   -3.7635    0.0000 O   0  0  0  0  0  0  0  0  0  0  0  0
    6.3190   -1.8963    0.0000 O   0  0  0  0  0  0  0  0  0  0  0  0
    4.1908    5.1425    0.0000 O   0  0  0  0  0  0  0  0  0  0  0  0
    4.1376   -1.0542    0.0000 C   0  0  3  0  0  0  0  0  0  0  0  0
    3.2716   -0.5542    0.0000 C   0  0  3  0  0  0  0  0  0  0  0  0
    3.2716    0.4458    0.0000 C   0  0  3  0  0  0  0  0  0  0  0  0
    3.9284   -2.0261    0.0000 C   0  0  3  0  0  0  0  0  0  0  0  0
    4.1376    0.9458    0.0000 C   0  0  3  0  0  0  0  0  0  0  0  0
    2.5346   -1.2213    0.0000 C   0  0  0  0  0  0  0  0  0  0  0  0
    2.9397   -2.1291    0.0000 C   0  0  3  0  0  0  0  0  0  0  0  0
    5.0036   -0.5542    0.0000 C   0  0  0  0  0  0  0  0  0  0  0  0
    5.0036    0.4458    0.0000 C   0  0  3  0  0  0  0  0  0  0  0  0
    4.1537    1.9873    0.0000 C   0  0  3  0  0  0  0  0  0  0  0  0
    2.3616    0.9526    0.0000 C   0  0  0  0  0  0  0  0  0  0  0  0
    5.1224   -1.2279    0.0000 C   0  0  0  0  0  0  0  0  0  0  0  0
    3.6177   -2.9766    0.0000 C   0  0  0  0  0  0  0  0  0  0  0  0
    2.3535    1.9942    0.0000 C   0  0  0  0  0  0  0  0  0  0  0  0
    3.2556    2.5150    0.0000 C   0  0  0  0  0  0  0  0  0  0  0  0
    2.0000   -2.4712    0.0000 C   0  0  0  0  0  0  0  0  0  0  0  0
    5.1371    1.8060    0.0000 C   0  0  0  0  0  0  0  0  0  0  0  0
    5.1056    2.5079    0.0000 C   0  0  0  0  0  0  0  0  0  0  0  0
    5.5748   -2.5641    0.0000 C   0  0  3  0  0  0  0  0  0  0  0  0
    4.2856   -3.7209    0.0000 C   0  0  0  0  0  0  0  0  0  0  0  0
    3.2473    3.6000    0.0000 C   0  0  0  0  0  0  0  0  0  0  0  0
    5.1223    3.5928    0.0000 C   0  0  0  0  0  0  0  0  0  0  0  0
    6.5253   -2.8748    0.0000 C   0  0  0  0  0  0  0  0  0  0  0  0
    4.1869    4.1425    0.0000 C   0  0  0  0  0  0  0  0  0  0  0  0
    6.7315   -3.8533    0.0000 C   0  0  0  0  0  0  0  0  0  0  0  0
    7.2696   -2.2070    0.0000 C   0  0  0  0  0  0  0  0  0  0  0  0
    7.6820   -4.1640    0.0000 C   0  0  0  0  0  0  0  0  0  0  0  0
    7.8882   -5.1425    0.0000 C   0  0  0  0  0  0  0  0  0  0  0  0
    2.4946   -0.2095    0.0000 H   0  0  0  0  0  0  0  0  0  0  0  0
    2.5388    0.0151    0.0000 H   0  0  0  0  0  0  0  0  0  0  0  0
    2.1691   -0.7205    0.0000 H   0  0  0  0  0  0  0  0  0  0  0  0
    1.9981   -1.5321    0.0000 H   0  0  0  0  0  0  0  0  0  0  0  0
    3.1306   -2.9574    0.0000 H   0  0  0  0  0  0  0  0  0  0  0  0
    5.2157   -1.1368    0.0000 H   0  0  0  0  0  0  0  0  0  0  0  0
    5.6142   -0.4466    0.0000 H   0  0  0  0  0  0  0  0  0  0  0  0
    5.0036    1.2958    0.0000 H   0  0  0  0  0  0  0  0  0  0  0  0
    1.7499    1.0540    0.0000 H   0  0  0  0  0  0  0  0  0  0  0  0
    2.1570    0.3673    0.0000 H   0  0  0  0  0  0  0  0  0  0  0  0
    5.0148   -1.8385    0.0000 H   0  0  0  0  0  0  0  0  0  0  0  0
    5.7330   -1.3356    0.0000 H   0  0  0  0  0  0  0  0  0  0  0  0
    5.2301   -0.6173    0.0000 H   0  0  0  0  0  0  0  0  0  0  0  0
    2.1400    2.5763    0.0000 H   0  0  0  0  0  0  0  0  0  0  0  0
    1.7435    1.8834    0.0000 H   0  0  0  0  0  0  0  0  0  0  0  0
    1.7879   -1.8886    0.0000 H   0  0  0  0  0  0  0  0  0  0  0  0
    1.4174   -2.6832    0.0000 H   0  0  0  0  0  0  0  0  0  0  0  0
    2.2121   -3.0538    0.0000 H   0  0  0  0  0  0  0  0  0  0  0  0
    5.0247    1.1963    0.0000 H   0  0  0  0  0  0  0  0  0  0  0  0
    5.7468    1.6937    0.0000 H   0  0  0  0  0  0  0  0  0  0  0  0
    5.2495    2.4158    0.0000 H   0  0  0  0  0  0  0  0  0  0  0  0
    5.6365    2.1876    0.0000 H   0  0  0  0  0  0  0  0  0  0  0  0
    3.7592   -4.0485    0.0000 H   0  0  0  0  0  0  0  0  0  0  0  0
    4.5168   -4.2961    0.0000 H   0  0  0  0  0  0  0  0  0  0  0  0
    6.4066    0.6358    0.0000 H   0  0  0  0  0  0  0  0  0  0  0  0
    2.7091    3.9079    0.0000 H   0  0  0  0  0  0  0  0  0  0  0  0
    5.6628    3.8965    0.0000 H   0  0  0  0  0  0  0  0  0  0  0  0
    7.1449   -2.8542    0.0000 H   0  0  0  0  0  0  0  0  0  0  0  0
    6.6126   -2.2610    0.0000 H   0  0  0  0  0  0  0  0  0  0  0  0
    6.1118   -3.8739    0.0000 H   0  0  0  0  0  0  0  0  0  0  0  0
    6.6441   -4.4671    0.0000 H   0  0  0  0  0  0  0  0  0  0  0  0
    7.0770   -2.7963    0.0000 H   0  0  0  0  0  0  0  0  0  0  0  0
    7.8589   -2.3996    0.0000 H   0  0  0  0  0  0  0  0  0  0  0  0
    7.4622   -1.6176    0.0000 H   0  0  0  0  0  0  0  0  0  0  0  0
    8.3017   -4.1434    0.0000 H   0  0  0  0  0  0  0  0  0  0  0  0
    7.7694   -3.5502    0.0000 H   0  0  0  0  0  0  0  0  0  0  0  0
    7.2816   -5.2703    0.0000 H   0  0  0  0  0  0  0  0  0  0  0  0
    8.0161   -5.7492    0.0000 H   0  0  0  0  0  0  0  0  0  0  0  0
    8.4949   -5.0146    0.0000 H   0  0  0  0  0  0  0  0  0  0  0  0
  1 12  1  0  0  0  0
  2 11  1  0  0  0  0
  2 26  1  0  0  0  0
  3 16  1  0  0  0  0
  3 60  1  0  0  0  0
  4 26  1  0  0  0  0
  4 27  1  0  0  0  0
  5 20  2  0  0  0  0
  6 26  1  0  0  0  0
  6 33  1  0  0  0  0
  7 31  2  0  0  0  0
  8  9  1  0  0  0  0
  8 11  1  0  0  0  0
  8 15  1  0  0  0  0
  8 19  1  0  0  0  0
  9 10  1  0  0  0  0
  9 13  1  0  0  0  0
  9 36  1  0  0  0  0
 10 12  1  0  0  0  0
 10 18  1  0  0  0  0
 10 37  1  0  0  0  0
 11 14  1  0  0  0  0
 11 20  1  0  0  0  0
 12 16  1  0  0  0  0
 12 17  1  0  0  0  0
 13 14  1  0  0  0  0
 13 38  1  0  0  0  0
 13 39  1  0  0  0  0
 14 23  1  0  0  0  0
 14 40  1  0  0  0  0
 15 16  1  0  0  0  0
 15 41  1  0  0  0  0
 15 42  1  0  0  0  0
 16 43  1  0  0  0  0
 17 22  1  0  0  0  0
 17 24  1  0  0  0  0
 17 25  1  0  0  0  0
 18 21  1  0  0  0  0
 18 44  1  0  0  0  0
 18 45  1  0  0  0  0
 19 46  1  0  0  0  0
 19 47  1  0  0  0  0
 19 48  1  0  0  0  0
 20 27  1  0  0  0  0
 21 22  1  0  0  0  0
 21 49  1  0  0  0  0
 21 50  1  0  0  0  0
 22 28  2  0  0  0  0
 23 51  1  0  0  0  0
 23 52  1  0  0  0  0
 23 53  1  0  0  0  0
 24 54  1  0  0  0  0
 24 55  1  0  0  0  0
 24 56  1  0  0  0  0
 25 29  2  0  0  0  0
 25 57  1  0  0  0  0
 26 30  1  0  0  0  0
 27 58  1  0  0  0  0
 27 59  1  0  0  0  0
 28 31  1  0  0  0  0
 28 61  1  0  0  0  0
 29 31  1  0  0  0  0
 29 62  1  0  0  0  0
 30 32  1  0  0  0  0
 30 63  1  0  0  0  0
 30 64  1  0  0  0  0
 32 34  1  0  0  0  0
 32 65  1  0  0  0  0
 32 66  1  0  0  0  0
 33 67  1  0  0  0  0
 33 68  1  0  0  0  0
 33 69  1  0  0  0  0
 34 35  1  0  0  0  0
 34 70  1  0  0  0  0
 34 71  1  0  0  0  0
 35 72  1  0  0  0  0
 35 73  1  0  0  0  0
 35 74  1  0  0  0  0
M  END
> <PUBCHEM_COMPOUND_CID>
14002

> <PUBCHEM_COMPOUND_CANONICALIZED>
1

> <PUBCHEM_CACTVS_COMPLEXITY>
992

> <PUBCHEM_CACTVS_HBOND_ACCEPTOR>
7

> <PUBCHEM_CACTVS_HBOND_DONOR>
1

> <PUBCHEM_CACTVS_ROTATABLE_BOND>
4

> <PUBCHEM_CACTVS_SUBSKEYS>
AAADcfB4OQAAAAAAAAAAAAAAAAAAAYAAAAA0YIEAAAAAAGDAAAAAGwAACAAAD1SggAICCAAABgCIAqBSAAIAAAAgAAAICAFAAEgQEBIAAQQiQAAFgAAMAYPIzPDPgAAAAAAAAADAAAYAADAAAYAADAAAAA==

> <PUBCHEM_IUPAC_OPENEYE_NAME>
2-butyl-9'-fluoro-11'-hydroxy-2-methoxy-10',13',16'-trimethyl-spiro[1,3-dioxane-4,17'-6,7,8,11,12,14,15,16-octahydrocyclopenta[a]phenanthrene]-3',5-dione

> <PUBCHEM_IUPAC_CAS_NAME>
2-butyl-9'-fluoro-11'-hydroxy-2-methoxy-10',13',16'-trimethylspiro[1,3-dioxane-4,17'-6,7,8,11,12,14,15,16-octahydrocyclopenta[a]phenanthrene]-3',5-dione

> <PUBCHEM_IUPAC_NAME>
2-butyl-9'-fluoro-11'-hydroxy-2-methoxy-10',13',16'-trimethylspiro[1,3-dioxane-4,17'-6,7,8,11,12,14,15,16-octahydrocyclopenta[a]phenanthrene]-3',5-dione

> <PUBCHEM_IUPAC_SYSTEMATIC_NAME>
2-butyl-9'-fluoranyl-2-methoxy-10',13',16'-trimethyl-11'-oxidanyl-spiro[1,3-dioxane-4,17'-6,7,8,11,12,14,15,16-octahydrocyclopenta[a]phenanthrene]-3',5-dione

> <PUBCHEM_IUPAC_TRADITIONAL_NAME>
2-butyl-9'-fluoro-11'-hydroxy-2-methoxy-10',13',16'-trimethyl-spiro[1,3-dioxane-4,17'-6,7,8,11,12,14,15,16-octahydrocyclopenta[a]phenanthrene]-3',5-quinone

> <PUBCHEM_IUPAC_INCHI>
InChI=1S/C28H39FO6/c1-6-7-11-26(33-5)34-16-23(32)28(35-26)17(2)13-21-20-9-8-18-14-19(30)10-12-24(18,3)27(20,29)22(31)15-25(21,28)4/h10,12,14,17,20-22,31H,6-9,11,13,15-16H2,1-5H3

> <PUBCHEM_IUPAC_INCHIKEY>
BDIYOTVTJVHFJF-UHFFFAOYSA-N

> <PUBCHEM_XLOGP3>
4.4

> <PUBCHEM_EXACT_MASS>
490.273067

> <PUBCHEM_MOLECULAR_FORMULA>
C28H39FO6

> <PUBCHEM_MOLECULAR_WEIGHT>
490.604063

> <PUBCHEM_OPENEYE_CAN_SMILES>
CCCCC1(OCC(=O)C2(O1)C(CC3C2(CC(C4(C3CCC5=CC(=O)C=CC54C)F)O)C)C)OC

> <PUBCHEM_OPENEYE_ISO_SMILES>
CCCCC1(OCC(=O)C2(O1)C(CC3C2(CC(C4(C3CCC5=CC(=O)C=CC54C)F)O)C)C)OC

> <PUBCHEM_CACTVS_TPSA>
82.1

> <PUBCHEM_MONOISOTOPIC_WEIGHT>
490.273067

> <PUBCHEM_TOTAL_CHARGE>
0

> <PUBCHEM_HEAVY_ATOM_COUNT>
35

> <PUBCHEM_ATOM_DEF_STEREO_COUNT>
0

> <PUBCHEM_ATOM_UDEF_STEREO_COUNT>
9

> <PUBCHEM_BOND_DEF_STEREO_COUNT>
0

> <PUBCHEM_BOND_UDEF_STEREO_COUNT>
0

> <PUBCHEM_ISOTOPIC_ATOM_COUNT>
0

> <PUBCHEM_COMPONENT_COUNT>
1

> <PUBCHEM_CACTVS_TAUTO_COUNT>
6

> <PUBCHEM_COORDINATE_TYPE>
1
5
255

> <PUBCHEM_BONDANNOTATIONS>
12  1  3
10  37  3
11  20  3
14  40  3
16  43  3
17  24  3
26  30  3
8  19  3
9  36  3

$$$$

