   Color/Form

     * White or pale buff to slightly yellowish powder
     * Long prisms from dil acetone

   from [1]HSDB

   Odor
        Odorless
   from [2]HSDB

   Melting Point
        264.5 deg C
   from [3]HSDB

   Dissociation Constants
        Weak base; pK 6.6
   from [4]HSDB

   Solubilities

     * Freely sol in chloroform (approx. 1 g/6 ml), methylene chloride,
       glacial acetic acid; sol in benzene, ethyl acetate; slightly sol in
       acetone, methanol, alcohol (1 g/1800 ml), ether, and in aq solns of
       acetic and citric acids.
     * In water, 73 mg/l @ 30 deg C

   from [5]HSDB

   Spectral Properties

     * Specific optical rotation: -118 deg @ 23 deg C/D (c= 1 in
       chloroform), -168 deg @ 26 deg C/D (c= 0.624 in dimethylformamide),
       -164 deg @ 26 deg C/D (c= 0.96 in pyridine); max absorption
       (chloroform): 216 nm, 267 nm, 295 nm (log e= 61,700; 17,000;
       10,200)
     * UV: 6-1224 (Organic Electronic Spectral Data, Phillips et al, John
       Wiley & Sons, New York)
     * MASS: 283 (Aldermaston, Eight Peak Index of Mass Spectra, UK)
     * Intense mass spectral peaks: 195 m/z, 365 m/z, 397 m/z, 608 m/z

   from [6]HSDB

   Other Chemical/Physical Properties

     * Darkens slowly upon exposure to light, but more rapidly in
       solution.
     * An alkaloid.
     * Upon standing most solns acquire a yellow color and pronounced
       fluorescence; esp after the addition of acid or upon exposure to
       light.

   from [7]HSDB

   Computed Properties
   Molecular Weight                  608.6787 [g/mol]
   Molecular Formula                 C[33]H[40]N[2]O[9]
   XLogP3-AA                         4
   H-Bond Donor                      1
   H-Bond Acceptor                   10
   Rotatable Bond Count              10
   Exact Mass                        608.273381
   MonoIsotopic Mass                 608.273381
   Topological Polar Surface Area    118
   Heavy Atom Count                  44
   Formal Charge                     0
   Complexity                        1000
   Isotope Atom Count                0
   Defined Atom Stereocenter Count   6
   Undefined Atom Stereocenter Count 0
   Defined Bond Stereocenter Count   0
   Undefined Bond Stereocenter Count 0
   Covalently-Bonded Unit Count      1
   Feature 3D Acceptor Count         7
   Feature 3D Donor Count            1
   Feature 3D Cation Count           2
   Feature 3D Ring Count             6
   Effective Rotor Count             11.6
   Conformer Sampling RMSD           1.2
   CID Conformer Count               [8]34

References

   1. http://toxnet.nlm.nih.gov/cgi-bin/sis/search/r?dbs+hsdb:@term+@rn+@rel+50-55-5
   2. http://toxnet.nlm.nih.gov/cgi-bin/sis/search/r?dbs+hsdb:@term+@rn+@rel+50-55-5
   3. http://toxnet.nlm.nih.gov/cgi-bin/sis/search/r?dbs+hsdb:@term+@rn+@rel+50-55-5
   4. http://toxnet.nlm.nih.gov/cgi-bin/sis/search/r?dbs+hsdb:@term+@rn+@rel+50-55-5
   5. http://toxnet.nlm.nih.gov/cgi-bin/sis/search/r?dbs+hsdb:@term+@rn+@rel+50-55-5
   6. http://toxnet.nlm.nih.gov/cgi-bin/sis/search/r?dbs+hsdb:@term+@rn+@rel+50-55-5
   7. http://toxnet.nlm.nih.gov/cgi-bin/sis/search/r?dbs+hsdb:@term+@rn+@rel+50-55-5
   8. http://pubchem.ncbi.nlm.nih.gov/vw3d/vw3d.cgi?cid=5770
