440940
  -OEChem-07051212512D

 63 66  0     1  0  0  0  0  0999 V2000
    5.0474    0.8132    0.0000 P   0  0  3  0  0  0  0  0  0  0  0  0
    5.4104    2.5068    0.0000 P   0  0  3  0  0  0  0  0  0  0  0  0
    4.4026   -2.6399    0.0000 O   0  0  0  0  0  0  0  0  0  0  0  0
    6.4439    4.9424    0.0000 O   0  0  0  0  0  0  0  0  0  0  0  0
    6.7523   -1.5562    0.0000 O   0  0  0  0  0  0  0  0  0  0  0  0
    6.7485   -3.7318    0.0000 O   0  0  0  0  0  0  0  0  0  0  0  0
    5.3548   -0.1383    0.0000 O   0  0  0  0  0  0  0  0  0  0  0  0
    6.0809    3.2488    0.0000 O   0  0  0  0  0  0  0  0  0  0  0  0
    3.5106    5.5712    0.0000 O   0  0  0  0  0  0  0  0  0  0  0  0
    4.8514    7.0552    0.0000 O   0  0  0  0  0  0  0  0  0  0  0  0
    4.1253    3.6680    0.0000 O   0  0  0  0  0  0  0  0  0  0  0  0
    4.7400    1.7648    0.0000 O   0  0  0  0  0  0  0  0  0  0  0  0
    7.7847    6.4264    0.0000 O   0  0  0  0  0  0  0  0  0  0  0  0
    5.9990    1.1206    0.0000 O   0  0  0  0  0  0  0  0  0  0  0  0
    4.6685    3.1772    0.0000 O   0  0  0  0  0  0  0  0  0  0  0  0
    4.0958    0.5059    0.0000 O   0  0  0  0  0  0  0  0  0  0  0  0
    6.1524    1.8364    0.0000 O   0  0  0  0  0  0  0  0  0  0  0  0
    4.6783   -4.4005    0.0000 N   0  0  0  0  0  0  0  0  0  0  0  0
    4.6783   -6.0099    0.0000 N   0  0  0  0  0  0  0  0  0  0  0  0
    2.8660   -4.2052    0.0000 N   0  0  0  0  0  0  0  0  0  0  0  0
    2.0000   -5.7052    0.0000 N   0  0  0  0  0  0  0  0  0  0  0  0
    2.8660   -7.2052    0.0000 N   0  0  0  0  0  0  0  0  0  0  0  0
    5.9422   -2.1426    0.0000 C   0  0  1  0  0  0  0  0  0  0  0  0
    5.9405   -3.1426    0.0000 C   0  0  2  0  0  0  0  0  0  0  0  0
    4.9917   -1.8319    0.0000 C   0  0  1  0  0  0  0  0  0  0  0  0
    4.9889   -3.4500    0.0000 C   0  0  1  0  0  0  0  0  0  0  0  0
    4.4883    5.3616    0.0000 C   0  0  1  0  0  0  0  0  0  0  0  0
    5.1588    6.1036    0.0000 C   0  0  1  0  0  0  0  0  0  0  0  0
    4.7957    4.4100    0.0000 C   0  0  1  0  0  0  0  0  0  0  0  0
    6.1365    5.8940    0.0000 C   0  0  1  0  0  0  0  0  0  0  0  0
    4.6844   -0.8803    0.0000 C   0  0  0  0  0  0  0  0  0  0  0  0
    5.7735    4.2004    0.0000 C   0  0  2  0  0  0  0  0  0  0  0  0
    6.8070    6.6360    0.0000 C   0  0  0  0  0  0  0  0  0  0  0  0
    3.7320   -4.7052    0.0000 C   0  0  0  0  0  0  0  0  0  0  0  0
    5.2619   -5.2052    0.0000 C   0  0  0  0  0  0  0  0  0  0  0  0
    3.7320   -5.7052    0.0000 C   0  0  0  0  0  0  0  0  0  0  0  0
    2.8660   -6.2052    0.0000 C   0  0  0  0  0  0  0  0  0  0  0  0
    2.0000   -4.7052    0.0000 C   0  0  0  0  0  0  0  0  0  0  0  0
    5.8463   -1.5300    0.0000 H   0  0  0  0  0  0  0  0  0  0  0  0
    5.8425   -3.7548    0.0000 H   0  0  0  0  0  0  0  0  0  0  0  0
    4.3795   -1.7339    0.0000 H   0  0  0  0  0  0  0  0  0  0  0  0
    5.4266   -3.8891    0.0000 H   0  0  0  0  0  0  0  0  0  0  0  0
    4.2978    5.9516    0.0000 H   0  0  0  0  0  0  0  0  0  0  0  0
    5.5744    6.5636    0.0000 H   0  0  0  0  0  0  0  0  0  0  0  0
    4.1895    4.5400    0.0000 H   0  0  0  0  0  0  0  0  0  0  0  0
    6.7428    5.7640    0.0000 H   0  0  0  0  0  0  0  0  0  0  0  0
    4.3035   -0.3911    0.0000 H   0  0  0  0  0  0  0  0  0  0  0  0
    4.1364   -1.1704    0.0000 H   0  0  0  0  0  0  0  0  0  0  0  0
    5.3578    3.7404    0.0000 H   0  0  0  0  0  0  0  0  0  0  0  0
    7.0402    7.2104    0.0000 H   0  0  0  0  0  0  0  0  0  0  0  0
    6.2817    6.9654    0.0000 H   0  0  0  0  0  0  0  0  0  0  0  0
    7.3182   -1.8094    0.0000 H   0  0  0  0  0  0  0  0  0  0  0  0
    7.3154   -3.4806    0.0000 H   0  0  0  0  0  0  0  0  0  0  0  0
    5.8819   -5.2052    0.0000 H   0  0  0  0  0  0  0  0  0  0  0  0
    3.3200    6.1612    0.0000 H   0  0  0  0  0  0  0  0  0  0  0  0
    5.2670    7.5152    0.0000 H   0  0  0  0  0  0  0  0  0  0  0  0
    3.5191    3.7980    0.0000 H   0  0  0  0  0  0  0  0  0  0  0  0
    8.2004    6.8864    0.0000 H   0  0  0  0  0  0  0  0  0  0  0  0
    1.4631   -4.3952    0.0000 H   0  0  0  0  0  0  0  0  0  0  0  0
    4.0785    2.9867    0.0000 H   0  0  0  0  0  0  0  0  0  0  0  0
    6.4590    0.7050    0.0000 H   0  0  0  0  0  0  0  0  0  0  0  0
    2.3291   -7.5152    0.0000 H   0  0  0  0  0  0  0  0  0  0  0  0
    3.4030   -7.5152    0.0000 H   0  0  0  0  0  0  0  0  0  0  0  0
  1  7  1  0  0  0  0
  1 12  1  0  0  0  0
  1 14  1  0  0  0  0
  1 16  2  0  0  0  0
  2  8  1  0  0  0  0
  2 12  1  0  0  0  0
  2 15  1  0  0  0  0
  2 17  2  0  0  0  0
  3 25  1  0  0  0  0
  3 26  1  0  0  0  0
  4 30  1  0  0  0  0
  4 32  1  0  0  0  0
 23  5  1  1  0  0  0
  5 52  1  0  0  0  0
 24  6  1  1  0  0  0
  6 53  1  0  0  0  0
  7 31  1  0  0  0  0
 32  8  1  6  0  0  0
 27  9  1  1  0  0  0
  9 55  1  0  0  0  0
 28 10  1  6  0  0  0
 10 56  1  0  0  0  0
 29 11  1  1  0  0  0
 11 57  1  0  0  0  0
 13 33  1  0  0  0  0
 13 58  1  0  0  0  0
 14 61  1  0  0  0  0
 15 60  1  0  0  0  0
 26 18  1  6  0  0  0
 18 34  1  0  0  0  0
 18 35  1  0  0  0  0
 19 35  2  0  0  0  0
 19 36  1  0  0  0  0
 20 34  1  0  0  0  0
 20 38  2  0  0  0  0
 21 37  2  0  0  0  0
 21 38  1  0  0  0  0
 22 37  1  0  0  0  0
 22 62  1  0  0  0  0
 22 63  1  0  0  0  0
 23 24  1  0  0  0  0
 23 25  1  0  0  0  0
 23 39  1  0  0  0  0
 24 26  1  0  0  0  0
 24 40  1  0  0  0  0
 25 31  1  6  0  0  0
 25 41  1  0  0  0  0
 26 42  1  0  0  0  0
 27 28  1  0  0  0  0
 27 29  1  0  0  0  0
 27 43  1  0  0  0  0
 28 30  1  0  0  0  0
 28 44  1  0  0  0  0
 29 32  1  0  0  0  0
 29 45  1  0  0  0  0
 30 33  1  1  0  0  0
 30 46  1  0  0  0  0
 31 47  1  0  0  0  0
 31 48  1  0  0  0  0
 32 49  1  0  0  0  0
 33 50  1  0  0  0  0
 33 51  1  0  0  0  0
 34 36  2  0  0  0  0
 35 54  1  0  0  0  0
 36 37  1  0  0  0  0
 38 59  1  0  0  0  0
M  END
> <PUBCHEM_COMPOUND_CID>
440940

> <PUBCHEM_COMPOUND_CANONICALIZED>
1

> <PUBCHEM_CACTVS_COMPLEXITY>
925

> <PUBCHEM_CACTVS_HBOND_ACCEPTOR>
19

> <PUBCHEM_CACTVS_HBOND_DONOR>
9

> <PUBCHEM_CACTVS_ROTATABLE_BOND>
9

> <PUBCHEM_CACTVS_SUBSKEYS>
AAADceB7vAMAAAAAAAAAAAAAAAAAAWJAAAAsSAAAAAAAAFgB+AAAHgAQCCAACBzxlwcF+L9MFxCgQQZhZICAgC0REKABUCAoVBCTWAJAyEAeRAgPAALXACHwcAYAAAAAAAAAAAAAAAAAAAAAAAAAAAAAAA==

> <PUBCHEM_IUPAC_OPENEYE_NAME>
[[(2R,3S,4R,5R)-5-(6-aminopurin-9-yl)-3,4-dihydroxy-tetrahydrofuran-2-yl]methoxy-hydroxy-phosphoryl] [(2R,3S,4S,5S,6R)-3,4,5-trihydroxy-6-(hydroxymethyl)tetrahydropyran-2-yl] hydrogen phosphate

> <PUBCHEM_IUPAC_CAS_NAME>
[[(2R,3S,4R,5R)-5-(6-aminopurin-9-yl)-3,4-dihydroxy-2-oxolanyl]methoxy-hydroxyphosphoryl] [(2R,3S,4S,5S,6R)-3,4,5-trihydroxy-6-(hydroxymethyl)-2-oxanyl] hydrogen phosphate

> <PUBCHEM_IUPAC_NAME>
[[(2R,3S,4R,5R)-5-(6-aminopurin-9-yl)-3,4-dihydroxyoxolan-2-yl]methoxy-hydroxyphosphoryl] [(2R,3S,4S,5S,6R)-3,4,5-trihydroxy-6-(hydroxymethyl)oxan-2-yl] hydrogen phosphate

> <PUBCHEM_IUPAC_SYSTEMATIC_NAME>
[[(2R,3S,4R,5R)-5-(6-aminopurin-9-yl)-3,4-bis(oxidanyl)oxolan-2-yl]methoxy-oxidanyl-phosphoryl] [(2R,3S,4S,5S,6R)-6-(hydroxymethyl)-3,4,5-tris(oxidanyl)oxan-2-yl] hydrogen phosphate

> <PUBCHEM_IUPAC_TRADITIONAL_NAME>
[[(2R,3S,4R,5R)-5-adenin-9-yl-3,4-dihydroxy-tetrahydrofuran-2-yl]methoxy-hydroxy-phosphoryl] [(2R,3S,4S,5S,6R)-3,4,5-trihydroxy-6-methylol-tetrahydropyran-2-yl] hydrogen phosphate

> <PUBCHEM_IUPAC_INCHI>
InChI=1S/C16H25N5O15P2/c17-13-7-14(19-3-18-13)21(4-20-7)15-11(26)9(24)6(33-15)2-32-37(28,29)36-38(30,31)35-16-12(27)10(25)8(23)5(1-22)34-16/h3-6,8-12,15-16,22-27H,1-2H2,(H,28,29)(H,30,31)(H2,17,18,19)/t5-,6-,8-,9-,10+,11-,12+,15-,16-/m1/s1

> <PUBCHEM_IUPAC_INCHIKEY>
WFPZSXYXPSUOPY-RYRBFGMPSA-N

> <PUBCHEM_XLOGP3>
-6.2

> <PUBCHEM_EXACT_MASS>
589.082238

> <PUBCHEM_MOLECULAR_FORMULA>
C16H25N5O15P2

> <PUBCHEM_MOLECULAR_WEIGHT>
589.341724

> <PUBCHEM_OPENEYE_CAN_SMILES>
C1=NC2=C(C(=N1)N)N=CN2C3C(C(C(O3)COP(=O)(O)OP(=O)(O)OC4C(C(C(C(O4)CO)O)O)O)O)O

> <PUBCHEM_OPENEYE_ISO_SMILES>
C1=NC2=C(C(=N1)N)N=CN2[C@H]3[C@@H]([C@@H]([C@H](O3)COP(=O)(O)OP(=O)(O)O[C@@H]4[C@H]([C@H]([C@@H]([C@H](O4)CO)O)O)O)O)O

> <PUBCHEM_CACTVS_TPSA>
312

> <PUBCHEM_MONOISOTOPIC_WEIGHT>
589.082238

> <PUBCHEM_TOTAL_CHARGE>
0

> <PUBCHEM_HEAVY_ATOM_COUNT>
38

> <PUBCHEM_ATOM_DEF_STEREO_COUNT>
9

> <PUBCHEM_ATOM_UDEF_STEREO_COUNT>
0

> <PUBCHEM_BOND_DEF_STEREO_COUNT>
0

> <PUBCHEM_BOND_UDEF_STEREO_COUNT>
0

> <PUBCHEM_ISOTOPIC_ATOM_COUNT>
0

> <PUBCHEM_COMPONENT_COUNT>
1

> <PUBCHEM_CACTVS_TAUTO_COUNT>
3

> <PUBCHEM_COORDINATE_TYPE>
1
5
255

> <PUBCHEM_BONDANNOTATIONS>
28  10  6
29  11  5
26  18  6
18  34  8
18  35  8
19  35  8
19  36  8
20  34  8
20  38  8
21  37  8
21  38  8
25  31  6
30  33  5
34  36  8
36  37  8
23  5  5
24  6  5
32  8  6
27  9  5

$$$$

