5283162
  -OEChem-07051213062D

 53 52  0     0  0  0  0  0  0999 V2000
    8.0622   -4.9400    0.0000 O   0  0  0  0  0  0  0  0  0  0  0  0
    6.3301    0.0600    0.0000 O   0  0  0  0  0  0  0  0  0  0  0  0
    9.7942   -4.9400    0.0000 O   0  0  0  0  0  0  0  0  0  0  0  0
    2.8660    4.0600    0.0000 C   0  0  0  0  0  0  0  0  0  0  0  0
    2.8660    3.0600    0.0000 C   0  0  0  0  0  0  0  0  0  0  0  0
    2.0000    4.5600    0.0000 C   0  0  0  0  0  0  0  0  0  0  0  0
    3.7320    2.5600    0.0000 C   0  0  0  0  0  0  0  0  0  0  0  0
    2.0000    5.5600    0.0000 C   0  0  0  0  0  0  0  0  0  0  0  0
    3.7320    1.5600    0.0000 C   0  0  0  0  0  0  0  0  0  0  0  0
    9.7942   -2.9400    0.0000 C   0  0  0  0  0  0  0  0  0  0  0  0
    9.7942   -1.9400    0.0000 C   0  0  0  0  0  0  0  0  0  0  0  0
    4.5981    1.0600    0.0000 C   0  0  0  0  0  0  0  0  0  0  0  0
    8.9282   -3.4400    0.0000 C   0  0  0  0  0  0  0  0  0  0  0  0
    5.4641    1.5600    0.0000 C   0  0  0  0  0  0  0  0  0  0  0  0
   10.6603   -1.4400    0.0000 C   0  0  0  0  0  0  0  0  0  0  0  0
   10.6603   -0.4400    0.0000 C   0  0  0  0  0  0  0  0  0  0  0  0
    9.7942    0.0600    0.0000 C   0  0  0  0  0  0  0  0  0  0  0  0
    6.3301    1.0600    0.0000 C   0  0  0  0  0  0  0  0  0  0  0  0
    8.9282   -4.4400    0.0000 C   0  0  0  0  0  0  0  0  0  0  0  0
    9.7942    1.0600    0.0000 C   0  0  0  0  0  0  0  0  0  0  0  0
    7.1962    1.5600    0.0000 C   0  0  0  0  0  0  0  0  0  0  0  0
    8.9282    1.5600    0.0000 C   0  0  0  0  0  0  0  0  0  0  0  0
    8.0622    1.0600    0.0000 C   0  0  0  0  0  0  0  0  0  0  0  0
    3.4766    3.9523    0.0000 H   0  0  0  0  0  0  0  0  0  0  0  0
    3.0781    4.6426    0.0000 H   0  0  0  0  0  0  0  0  0  0  0  0
    2.2554    3.1677    0.0000 H   0  0  0  0  0  0  0  0  0  0  0  0
    2.6540    2.4774    0.0000 H   0  0  0  0  0  0  0  0  0  0  0  0
    1.3894    4.6677    0.0000 H   0  0  0  0  0  0  0  0  0  0  0  0
    1.7880    3.9774    0.0000 H   0  0  0  0  0  0  0  0  0  0  0  0
    4.3426    2.4523    0.0000 H   0  0  0  0  0  0  0  0  0  0  0  0
    3.9441    3.1426    0.0000 H   0  0  0  0  0  0  0  0  0  0  0  0
    2.6200    5.5600    0.0000 H   0  0  0  0  0  0  0  0  0  0  0  0
    2.0000    6.1800    0.0000 H   0  0  0  0  0  0  0  0  0  0  0  0
    1.3800    5.5600    0.0000 H   0  0  0  0  0  0  0  0  0  0  0  0
    3.1951    1.2500    0.0000 H   0  0  0  0  0  0  0  0  0  0  0  0
   10.0063   -3.5226    0.0000 H   0  0  0  0  0  0  0  0  0  0  0  0
   10.4048   -2.8323    0.0000 H   0  0  0  0  0  0  0  0  0  0  0  0
    9.5822   -1.3574    0.0000 H   0  0  0  0  0  0  0  0  0  0  0  0
    9.1836   -2.0477    0.0000 H   0  0  0  0  0  0  0  0  0  0  0  0
    4.5981    0.4400    0.0000 H   0  0  0  0  0  0  0  0  0  0  0  0
    8.7162   -2.8574    0.0000 H   0  0  0  0  0  0  0  0  0  0  0  0
    8.3176   -3.5477    0.0000 H   0  0  0  0  0  0  0  0  0  0  0  0
    5.8626    2.0349    0.0000 H   0  0  0  0  0  0  0  0  0  0  0  0
    5.0656    2.0349    0.0000 H   0  0  0  0  0  0  0  0  0  0  0  0
   11.1972   -1.7500    0.0000 H   0  0  0  0  0  0  0  0  0  0  0  0
   11.1972   -0.1300    0.0000 H   0  0  0  0  0  0  0  0  0  0  0  0
    9.1836    0.1677    0.0000 H   0  0  0  0  0  0  0  0  0  0  0  0
    9.5822   -0.5226    0.0000 H   0  0  0  0  0  0  0  0  0  0  0  0
   10.3312    1.3700    0.0000 H   0  0  0  0  0  0  0  0  0  0  0  0
    7.1962    2.1800    0.0000 H   0  0  0  0  0  0  0  0  0  0  0  0
    8.9282    2.1800    0.0000 H   0  0  0  0  0  0  0  0  0  0  0  0
    8.0622    0.4400    0.0000 H   0  0  0  0  0  0  0  0  0  0  0  0
    8.0622   -5.5600    0.0000 H   0  0  0  0  0  0  0  0  0  0  0  0
  1 19  1  0  0  0  0
  1 53  1  0  0  0  0
  2 18  2  0  0  0  0
  3 19  2  0  0  0  0
  4  5  1  0  0  0  0
  4  6  1  0  0  0  0
  4 24  1  0  0  0  0
  4 25  1  0  0  0  0
  5  7  1  0  0  0  0
  5 26  1  0  0  0  0
  5 27  1  0  0  0  0
  6  8  1  0  0  0  0
  6 28  1  0  0  0  0
  6 29  1  0  0  0  0
  7  9  1  0  0  0  0
  7 30  1  0  0  0  0
  7 31  1  0  0  0  0
  8 32  1  0  0  0  0
  8 33  1  0  0  0  0
  8 34  1  0  0  0  0
  9 12  2  0  0  0  0
  9 35  1  0  0  0  0
 10 11  1  0  0  0  0
 10 13  1  0  0  0  0
 10 36  1  0  0  0  0
 10 37  1  0  0  0  0
 11 15  1  0  0  0  0
 11 38  1  0  0  0  0
 11 39  1  0  0  0  0
 12 14  1  0  0  0  0
 12 40  1  0  0  0  0
 13 19  1  0  0  0  0
 13 41  1  0  0  0  0
 13 42  1  0  0  0  0
 14 18  1  0  0  0  0
 14 43  1  0  0  0  0
 14 44  1  0  0  0  0
 15 16  2  0  0  0  0
 15 45  1  0  0  0  0
 16 17  1  0  0  0  0
 16 46  1  0  0  0  0
 17 20  1  0  0  0  0
 17 47  1  0  0  0  0
 17 48  1  0  0  0  0
 18 21  1  0  0  0  0
 20 22  2  0  0  0  0
 20 49  1  0  0  0  0
 21 23  2  0  0  0  0
 21 50  1  0  0  0  0
 22 23  1  0  0  0  0
 22 51  1  0  0  0  0
 23 52  1  0  0  0  0
M  END
> <PUBCHEM_COMPOUND_CID>
5283162

> <PUBCHEM_COMPOUND_CANONICALIZED>
1

> <PUBCHEM_CACTVS_COMPLEXITY>
428

> <PUBCHEM_CACTVS_HBOND_ACCEPTOR>
3

> <PUBCHEM_CACTVS_HBOND_DONOR>
1

> <PUBCHEM_CACTVS_ROTATABLE_BOND>
14

> <PUBCHEM_CACTVS_SUBSKEYS>
AAADceB4MAAAAAAAAAAAAAAAAAAAAAAAAAAAAAAAAAAAAAAAAAAAGgAACAAACASAgAACCAAAAgCIAKDSCAAAAAAgAAAICAEAAEgIABIAAQAAQAAEgAAIgYOIAAAAAAAAAAAAAAAAAAAAAAAAAAAAAAAAAA==

> <PUBCHEM_IUPAC_OPENEYE_NAME>
(5Z,8Z,10E,14Z)-12-oxoicosa-5,8,10,14-tetraenoic acid

> <PUBCHEM_IUPAC_CAS_NAME>
(5Z,8Z,10E,14Z)-12-oxoeicosa-5,8,10,14-tetraenoic acid

> <PUBCHEM_IUPAC_NAME>
(5Z,8Z,10E,14Z)-12-oxoicosa-5,8,10,14-tetraenoic acid

> <PUBCHEM_IUPAC_SYSTEMATIC_NAME>
(5Z,8Z,10E,14Z)-12-oxidanylideneicosa-5,8,10,14-tetraenoic acid

> <PUBCHEM_IUPAC_TRADITIONAL_NAME>
(5Z,8Z,10E,14Z)-12-ketoeicosa-5,8,10,14-tetraenoic acid

> <PUBCHEM_IUPAC_INCHI>
InChI=1S/C20H30O3/c1-2-3-4-5-10-13-16-19(21)17-14-11-8-6-7-9-12-15-18-20(22)23/h7-11,13-14,17H,2-6,12,15-16,18H2,1H3,(H,22,23)/b9-7-,11-8-,13-10-,17-14+

> <PUBCHEM_IUPAC_INCHIKEY>
GURBRQGDZZKITB-VXBMJZGYSA-N

> <PUBCHEM_XLOGP3_AA>
5.1

> <PUBCHEM_EXACT_MASS>
318.219495

> <PUBCHEM_MOLECULAR_FORMULA>
C20H30O3

> <PUBCHEM_MOLECULAR_WEIGHT>
318.4504

> <PUBCHEM_OPENEYE_CAN_SMILES>
CCCCCC=CCC(=O)C=CC=CCC=CCCCC(=O)O

> <PUBCHEM_OPENEYE_ISO_SMILES>
CCCCC/C=C\CC(=O)/C=C/C=C\C/C=C\CCCC(=O)O

> <PUBCHEM_CACTVS_TPSA>
54.4

> <PUBCHEM_MONOISOTOPIC_WEIGHT>
318.219495

> <PUBCHEM_TOTAL_CHARGE>
0

> <PUBCHEM_HEAVY_ATOM_COUNT>
23

> <PUBCHEM_ATOM_DEF_STEREO_COUNT>
0

> <PUBCHEM_ATOM_UDEF_STEREO_COUNT>
0

> <PUBCHEM_BOND_DEF_STEREO_COUNT>
4

> <PUBCHEM_BOND_UDEF_STEREO_COUNT>
0

> <PUBCHEM_ISOTOPIC_ATOM_COUNT>
0

> <PUBCHEM_COMPONENT_COUNT>
1

> <PUBCHEM_CACTVS_TAUTO_COUNT>
11

> <PUBCHEM_COORDINATE_TYPE>
1
5
255

$$$$

