4132
  -OEChem-06251223542D

 64 68  0     1  0  0  0  0  0999 V2000
    6.3507    0.8751    0.0000 O   0  0  0  0  0  0  0  0  0  0  0  0
    5.0417   -1.2515    0.0000 O   0  0  0  0  0  0  0  0  0  0  0  0
    5.5739   -2.4184    0.0000 O   0  0  0  0  0  0  0  0  0  0  0  0
    7.3354   -3.3300    0.0000 O   0  0  0  0  0  0  0  0  0  0  0  0
    3.7283   -1.2627    0.0000 O   0  0  0  0  0  0  0  0  0  0  0  0
    8.7367   -2.3120    0.0000 O   0  0  0  0  0  0  0  0  0  0  0  0
    2.9789    2.1969    0.0000 O   0  0  0  0  0  0  0  0  0  0  0  0
    8.8965    3.2402    0.0000 O   0  0  0  0  0  0  0  0  0  0  0  0
    6.6597   -0.0759    0.0000 C   0  0  3  0  0  0  0  0  0  0  0  0
    5.8507   -0.6637    0.0000 C   0  0  3  0  0  0  0  0  0  0  0  0
    7.4624   -0.6623    0.0000 C   0  0  3  0  0  0  0  0  0  0  0  0
    6.1603   -1.6083    0.0000 C   0  0  3  0  0  0  0  0  0  0  0  0
    7.1544   -1.6075    0.0000 C   0  0  3  0  0  0  0  0  0  0  0  0
    5.0417   -0.0759    0.0000 C   0  0  0  0  0  0  0  0  0  0  0  0
    7.2189    0.7531    0.0000 C   0  0  0  0  0  0  0  0  0  0  0  0
    5.3507    0.8751    0.0000 C   0  0  0  0  0  0  0  0  0  0  0  0
    8.4617   -0.6989    0.0000 C   0  0  0  0  0  0  0  0  0  0  0  0
    7.7422   -2.4165    0.0000 C   0  0  0  0  0  0  0  0  0  0  0  0
    4.0263   -0.3082    0.0000 C   0  0  0  0  0  0  0  0  0  0  0  0
    8.2164    0.6834    0.0000 C   0  0  0  0  0  0  0  0  0  0  0  0
    6.7805    1.6519    0.0000 C   0  0  0  0  0  0  0  0  0  0  0  0
    4.6657    1.6599    0.0000 C   0  0  0  0  0  0  0  0  0  0  0  0
    8.9297   -1.5827    0.0000 C   0  0  0  0  0  0  0  0  0  0  0  0
    8.9931    0.1482    0.0000 C   0  0  0  0  0  0  0  0  0  0  0  0
    3.3233    0.4605    0.0000 C   0  0  0  0  0  0  0  0  0  0  0  0
    3.6452    1.4512    0.0000 C   0  0  0  0  0  0  0  0  0  0  0  0
    8.7756    1.5124    0.0000 C   0  0  0  0  0  0  0  0  0  0  0  0
    7.3397    2.4810    0.0000 C   0  0  0  0  0  0  0  0  0  0  0  0
    9.9290   -1.6193    0.0000 C   0  0  0  0  0  0  0  0  0  0  0  0
    9.9924    0.1116    0.0000 C   0  0  0  0  0  0  0  0  0  0  0  0
    8.3373    2.4112    0.0000 C   0  0  0  0  0  0  0  0  0  0  0  0
   10.4604   -0.7722    0.0000 C   0  0  0  0  0  0  0  0  0  0  0  0
    7.9232   -4.1390    0.0000 C   0  0  0  0  0  0  0  0  0  0  0  0
    2.7526   -1.4819    0.0000 C   0  0  0  0  0  0  0  0  0  0  0  0
    2.0000    1.9928    0.0000 C   0  0  0  0  0  0  0  0  0  0  0  0
    8.4581    4.1390    0.0000 C   0  0  0  0  0  0  0  0  0  0  0  0
    7.8174   -1.1706    0.0000 H   0  0  0  0  0  0  0  0  0  0  0  0
    5.5478   -1.5126    0.0000 H   0  0  0  0  0  0  0  0  0  0  0  0
    7.7668   -1.5107    0.0000 H   0  0  0  0  0  0  0  0  0  0  0  0
    5.1065   -1.8681    0.0000 H   0  0  0  0  0  0  0  0  0  0  0  0
    5.8271   -2.9843    0.0000 H   0  0  0  0  0  0  0  0  0  0  0  0
    8.4883    0.1261    0.0000 H   0  0  0  0  0  0  0  0  0  0  0  0
    6.1620    1.6952    0.0000 H   0  0  0  0  0  0  0  0  0  0  0  0
    4.8641    2.2473    0.0000 H   0  0  0  0  0  0  0  0  0  0  0  0
    8.6002   -2.1079    0.0000 H   0  0  0  0  0  0  0  0  0  0  0  0
    8.7030    0.6961    0.0000 H   0  0  0  0  0  0  0  0  0  0  0  0
    2.7174    0.3293    0.0000 H   0  0  0  0  0  0  0  0  0  0  0  0
    9.3941    1.4692    0.0000 H   0  0  0  0  0  0  0  0  0  0  0  0
    7.0679    3.0382    0.0000 H   0  0  0  0  0  0  0  0  0  0  0  0
   10.2191   -2.1672    0.0000 H   0  0  0  0  0  0  0  0  0  0  0  0
   10.3219    0.6368    0.0000 H   0  0  0  0  0  0  0  0  0  0  0  0
   11.0800   -0.7949    0.0000 H   0  0  0  0  0  0  0  0  0  0  0  0
    7.4216   -4.5035    0.0000 H   0  0  0  0  0  0  0  0  0  0  0  0
    8.2877   -4.6406    0.0000 H   0  0  0  0  0  0  0  0  0  0  0  0
    8.4248   -3.7746    0.0000 H   0  0  0  0  0  0  0  0  0  0  0  0
    2.6167   -0.8770    0.0000 H   0  0  0  0  0  0  0  0  0  0  0  0
    2.1477   -1.6178    0.0000 H   0  0  0  0  0  0  0  0  0  0  0  0
    2.8885   -2.0868    0.0000 H   0  0  0  0  0  0  0  0  0  0  0  0
    1.8734    2.5997    0.0000 H   0  0  0  0  0  0  0  0  0  0  0  0
    1.3931    1.8662    0.0000 H   0  0  0  0  0  0  0  0  0  0  0  0
    2.1266    1.3858    0.0000 H   0  0  0  0  0  0  0  0  0  0  0  0
    9.0154    4.4108    0.0000 H   0  0  0  0  0  0  0  0  0  0  0  0
    8.1863    4.6963    0.0000 H   0  0  0  0  0  0  0  0  0  0  0  0
    7.9008    3.8672    0.0000 H   0  0  0  0  0  0  0  0  0  0  0  0
  1  9  1  0  0  0  0
  1 16  1  0  0  0  0
  2 10  1  0  0  0  0
  2 40  1  0  0  0  0
  3 12  1  0  0  0  0
  3 41  1  0  0  0  0
  4 18  1  0  0  0  0
  4 33  1  0  0  0  0
  5 19  1  0  0  0  0
  5 34  1  0  0  0  0
  6 18  2  0  0  0  0
  7 26  1  0  0  0  0
  7 35  1  0  0  0  0
  8 31  1  0  0  0  0
  8 36  1  0  0  0  0
  9 10  1  0  0  0  0
  9 11  1  0  0  0  0
  9 15  1  0  0  0  0
 10 12  1  0  0  0  0
 10 14  1  0  0  0  0
 11 13  1  0  0  0  0
 11 17  1  0  0  0  0
 11 37  1  0  0  0  0
 12 13  1  0  0  0  0
 12 38  1  0  0  0  0
 13 18  1  0  0  0  0
 13 39  1  0  0  0  0
 14 16  2  0  0  0  0
 14 19  1  0  0  0  0
 15 20  2  0  0  0  0
 15 21  1  0  0  0  0
 16 22  1  0  0  0  0
 17 23  2  0  0  0  0
 17 24  1  0  0  0  0
 19 25  2  0  0  0  0
 20 27  1  0  0  0  0
 20 42  1  0  0  0  0
 21 28  2  0  0  0  0
 21 43  1  0  0  0  0
 22 26  2  0  0  0  0
 22 44  1  0  0  0  0
 23 29  1  0  0  0  0
 23 45  1  0  0  0  0
 24 30  2  0  0  0  0
 24 46  1  0  0  0  0
 25 26  1  0  0  0  0
 25 47  1  0  0  0  0
 27 31  2  0  0  0  0
 27 48  1  0  0  0  0
 28 31  1  0  0  0  0
 28 49  1  0  0  0  0
 29 32  2  0  0  0  0
 29 50  1  0  0  0  0
 30 32  1  0  0  0  0
 30 51  1  0  0  0  0
 32 52  1  0  0  0  0
 33 53  1  0  0  0  0
 33 54  1  0  0  0  0
 33 55  1  0  0  0  0
 34 56  1  0  0  0  0
 34 57  1  0  0  0  0
 34 58  1  0  0  0  0
 35 59  1  0  0  0  0
 35 60  1  0  0  0  0
 35 61  1  0  0  0  0
 36 62  1  0  0  0  0
 36 63  1  0  0  0  0
 36 64  1  0  0  0  0
M  END
> <PUBCHEM_COMPOUND_CID>
4132

> <PUBCHEM_COMPOUND_CANONICALIZED>
1

> <PUBCHEM_CACTVS_COMPLEXITY>
778

> <PUBCHEM_CACTVS_HBOND_ACCEPTOR>
8

> <PUBCHEM_CACTVS_HBOND_DONOR>
2

> <PUBCHEM_CACTVS_ROTATABLE_BOND>
7

> <PUBCHEM_CACTVS_SUBSKEYS>
AAADceB4PAAAAAAAAAAAAAAAAAAAAaIAAAAwYMAAAAASAEgBUAAAGgAACAAADVSgmAIyDoAABgCIAiDSCAACCAAgIAAIiAEGCIgNNzaEMRqCeCCl4BULuAfK7PzOoAAACAAIAABAAAAQABAAAYQADCAAAA==

> <PUBCHEM_IUPAC_OPENEYE_NAME>
methyl 1,8b-dihydroxy-6,8-dimethoxy-3a-(4-methoxyphenyl)-3-phenyl-2,3-dihydro-1H-cyclopenta[b]benzofuran-2-carboxylate

> <PUBCHEM_IUPAC_CAS_NAME>
1,8b-dihydroxy-6,8-dimethoxy-3a-(4-methoxyphenyl)-3-phenyl-2,3-dihydro-1H-cyclopenta[b]benzofuran-2-carboxylic acid methyl ester

> <PUBCHEM_IUPAC_NAME>
methyl 1,8b-dihydroxy-6,8-dimethoxy-3a-(4-methoxyphenyl)-3-phenyl-2,3-dihydro-1H-cyclopenta[b][1]benzofuran-2-carboxylate

> <PUBCHEM_IUPAC_SYSTEMATIC_NAME>
methyl 6,8-dimethoxy-3a-(4-methoxyphenyl)-1,8b-bis(oxidanyl)-3-phenyl-2,3-dihydro-1H-cyclopenta[b][1]benzofuran-2-carboxylate

> <PUBCHEM_IUPAC_TRADITIONAL_NAME>
1,8b-dihydroxy-6,8-dimethoxy-3a-(4-methoxyphenyl)-3-phenyl-2,3-dihydro-1H-cyclopenta[b]benzofuran-2-carboxylic acid methyl ester

> <PUBCHEM_IUPAC_INCHI>
InChI=1S/C28H28O8/c1-32-18-12-10-17(11-13-18)28-23(16-8-6-5-7-9-16)22(26(30)35-4)25(29)27(28,31)24-20(34-3)14-19(33-2)15-21(24)36-28/h5-15,22-23,25,29,31H,1-4H3

> <PUBCHEM_IUPAC_INCHIKEY>
VFTGDXPPYSWBSO-UHFFFAOYSA-N

> <PUBCHEM_XLOGP3_AA>
3.2

> <PUBCHEM_EXACT_MASS>
492.178418

> <PUBCHEM_MOLECULAR_FORMULA>
C28H28O8

> <PUBCHEM_MOLECULAR_WEIGHT>
492.51712

> <PUBCHEM_OPENEYE_CAN_SMILES>
COC1=CC=C(C=C1)C23C(C(C(C2(C4=C(C=C(C=C4O3)OC)OC)O)O)C(=O)OC)C5=CC=CC=C5

> <PUBCHEM_OPENEYE_ISO_SMILES>
COC1=CC=C(C=C1)C23C(C(C(C2(C4=C(C=C(C=C4O3)OC)OC)O)O)C(=O)OC)C5=CC=CC=C5

> <PUBCHEM_CACTVS_TPSA>
104

> <PUBCHEM_MONOISOTOPIC_WEIGHT>
492.178418

> <PUBCHEM_TOTAL_CHARGE>
0

> <PUBCHEM_HEAVY_ATOM_COUNT>
36

> <PUBCHEM_ATOM_DEF_STEREO_COUNT>
0

> <PUBCHEM_ATOM_UDEF_STEREO_COUNT>
5

> <PUBCHEM_BOND_DEF_STEREO_COUNT>
0

> <PUBCHEM_BOND_UDEF_STEREO_COUNT>
0

> <PUBCHEM_ISOTOPIC_ATOM_COUNT>
0

> <PUBCHEM_COMPONENT_COUNT>
1

> <PUBCHEM_CACTVS_TAUTO_COUNT>
1

> <PUBCHEM_COORDINATE_TYPE>
1
5
255

> <PUBCHEM_BONDANNOTATIONS>
11  17  3
13  18  3
14  16  8
14  19  8
15  20  8
15  21  8
16  22  8
17  23  8
17  24  8
19  25  8
10  2  3
20  27  8
21  28  8
22  26  8
23  29  8
24  30  8
25  26  8
27  31  8
28  31  8
29  32  8
12  3  3
30  32  8
9  15  3

$$$$

