249698
  -OEChem-07051213072D

 50 54  0     1  0  0  0  0  0999 V2000
    4.6946   -2.1808    0.0000 O   0  0  0  0  0  0  0  0  0  0  0  0
    2.4657    3.6553    0.0000 O   0  0  0  0  0  0  0  0  0  0  0  0
    2.9059   -4.2432    0.0000 O   0  0  0  0  0  0  0  0  0  0  0  0
    2.9180   -1.1739    0.0000 C   0  0  1  0  0  0  0  0  0  0  0  0
    3.7841   -1.6739    0.0000 C   0  0  2  0  0  0  0  0  0  0  0  0
    2.9180   -0.1739    0.0000 C   0  0  2  0  0  0  0  0  0  0  0  0
    3.7841    0.3261    0.0000 C   0  0  2  0  0  0  0  0  0  0  0  0
    3.8001    1.3676    0.0000 C   0  0  1  0  0  0  0  0  0  0  0  0
    2.9021    1.8954    0.0000 C   0  0  2  0  0  0  0  0  0  0  0  0
    3.8001   -2.7154    0.0000 C   0  0  2  0  0  0  0  0  0  0  0  0
    4.6501   -1.1739    0.0000 C   0  0  0  0  0  0  0  0  0  0  0  0
    4.6501   -0.1739    0.0000 C   0  0  0  0  0  0  0  0  0  0  0  0
    2.0080    0.3329    0.0000 C   0  0  0  0  0  0  0  0  0  0  0  0
    2.0080   -1.6808    0.0000 C   0  0  0  0  0  0  0  0  0  0  0  0
    2.0000    1.3745    0.0000 C   0  0  0  0  0  0  0  0  0  0  0  0
    4.5732    2.0565    0.0000 C   0  0  0  0  0  0  0  0  0  0  0  0
    3.1278    2.9059    0.0000 C   0  0  2  0  0  0  0  0  0  0  0  0
    2.0520   -0.6739    0.0000 C   0  0  0  0  0  0  0  0  0  0  0  0
    2.0000   -2.7224    0.0000 C   0  0  0  0  0  0  0  0  0  0  0  0
    2.9021   -3.2432    0.0000 C   0  0  0  0  0  0  0  0  0  0  0  0
    4.1585    3.0053    0.0000 C   0  0  0  0  0  0  0  0  0  0  0  0
    2.0399    2.4020    0.0000 C   0  0  0  0  0  0  0  0  0  0  0  0
    2.1852   -0.6046    0.0000 H   0  0  0  0  0  0  0  0  0  0  0  0
    4.5234    0.7454    0.0000 H   0  0  0  0  0  0  0  0  0  0  0  0
    4.5730    1.0139    0.0000 H   0  0  0  0  0  0  0  0  0  0  0  0
    4.2335   -3.4466    0.0000 H   0  0  0  0  0  0  0  0  0  0  0  0
    4.8621   -1.7565    0.0000 H   0  0  0  0  0  0  0  0  0  0  0  0
    5.2607   -1.0662    0.0000 H   0  0  0  0  0  0  0  0  0  0  0  0
    5.2607   -0.2816    0.0000 H   0  0  0  0  0  0  0  0  0  0  0  0
    4.8621    0.4087    0.0000 H   0  0  0  0  0  0  0  0  0  0  0  0
    1.3964    0.4343    0.0000 H   0  0  0  0  0  0  0  0  0  0  0  0
    1.8035   -0.2524    0.0000 H   0  0  0  0  0  0  0  0  0  0  0  0
    1.8035   -1.0955    0.0000 H   0  0  0  0  0  0  0  0  0  0  0  0
    1.3964   -1.7821    0.0000 H   0  0  0  0  0  0  0  0  0  0  0  0
    1.7864    1.9566    0.0000 H   0  0  0  0  0  0  0  0  0  0  0  0
    1.3900    1.2637    0.0000 H   0  0  0  0  0  0  0  0  0  0  0  0
    4.9347    1.5529    0.0000 H   0  0  0  0  0  0  0  0  0  0  0  0
    5.1120    2.3631    0.0000 H   0  0  0  0  0  0  0  0  0  0  0  0
    2.5274    2.7514    0.0000 H   0  0  0  0  0  0  0  0  0  0  0  0
    2.3620   -0.1370    0.0000 H   0  0  0  0  0  0  0  0  0  0  0  0
    1.5151   -0.3639    0.0000 H   0  0  0  0  0  0  0  0  0  0  0  0
    1.7420   -1.2108    0.0000 H   0  0  0  0  0  0  0  0  0  0  0  0
    1.3900   -2.6116    0.0000 H   0  0  0  0  0  0  0  0  0  0  0  0
    1.7864   -3.3044    0.0000 H   0  0  0  0  0  0  0  0  0  0  0  0
    4.7495    3.1925    0.0000 H   0  0  0  0  0  0  0  0  0  0  0  0
    4.0344    3.6128    0.0000 H   0  0  0  0  0  0  0  0  0  0  0  0
    2.3541    2.9365    0.0000 H   0  0  0  0  0  0  0  0  0  0  0  0
    1.5054    2.7161    0.0000 H   0  0  0  0  0  0  0  0  0  0  0  0
    1.7258    1.8675    0.0000 H   0  0  0  0  0  0  0  0  0  0  0  0
    2.6628    4.2432    0.0000 H   0  0  0  0  0  0  0  0  0  0  0  0
  5  1  1  1  0  0  0
  1 10  1  0  0  0  0
 17  2  1  1  0  0  0
  2 50  1  0  0  0  0
  3 20  2  0  0  0  0
  4  5  1  0  0  0  0
  4  6  1  0  0  0  0
  4 14  1  0  0  0  0
  4 18  1  1  0  0  0
  5 10  1  0  0  0  0
  5 11  1  0  0  0  0
  6  7  1  0  0  0  0
  6 13  1  0  0  0  0
  6 23  1  6  0  0  0
  7  8  1  0  0  0  0
  7 12  1  0  0  0  0
  7 24  1  1  0  0  0
  8  9  1  0  0  0  0
  8 16  1  0  0  0  0
  8 25  1  6  0  0  0
  9 15  1  0  0  0  0
  9 17  1  0  0  0  0
  9 22  1  1  0  0  0
 10 20  1  0  0  0  0
 10 26  1  6  0  0  0
 11 12  1  0  0  0  0
 11 27  1  0  0  0  0
 11 28  1  0  0  0  0
 12 29  1  0  0  0  0
 12 30  1  0  0  0  0
 13 15  1  0  0  0  0
 13 31  1  0  0  0  0
 13 32  1  0  0  0  0
 14 19  1  0  0  0  0
 14 33  1  0  0  0  0
 14 34  1  0  0  0  0
 15 35  1  0  0  0  0
 15 36  1  0  0  0  0
 16 21  1  0  0  0  0
 16 37  1  0  0  0  0
 16 38  1  0  0  0  0
 17 21  1  0  0  0  0
 17 39  1  0  0  0  0
 18 40  1  0  0  0  0
 18 41  1  0  0  0  0
 18 42  1  0  0  0  0
 19 20  1  0  0  0  0
 19 43  1  0  0  0  0
 19 44  1  0  0  0  0
 21 45  1  0  0  0  0
 21 46  1  0  0  0  0
 22 47  1  0  0  0  0
 22 48  1  0  0  0  0
 22 49  1  0  0  0  0
M  END
> <PUBCHEM_COMPOUND_CID>
249698

> <PUBCHEM_COMPOUND_CANONICALIZED>
1

> <PUBCHEM_CACTVS_COMPLEXITY>
545

> <PUBCHEM_CACTVS_HBOND_ACCEPTOR>
3

> <PUBCHEM_CACTVS_HBOND_DONOR>
1

> <PUBCHEM_CACTVS_ROTATABLE_BOND>
0

> <PUBCHEM_CACTVS_SUBSKEYS>
AAADceB4MAAAAAAAAAAAAAAAEgAAAYAAAAAwYMAABIAAAGDAAAAAGgAACAAAD1SggAICAAAABgAIAIAQAAIAAAAAAAAAAAFAAAAAEBYAAAQCQAAEIAAAAAGIzPDPgAAAAAAAAADAAAYAADAAAIAADAAAAA==

> <PUBCHEM_IUPAC_INCHI>
InChI=1S/C19H28O3/c1-17-8-6-13-11(12(17)3-4-15(17)21)5-10-19-16(22-19)14(20)7-9-18(13,19)2/h11-13,15-16,21H,3-10H2,1-2H3/t11-,12-,13-,15-,16-,17-,18+,19-/m0/s1

> <PUBCHEM_IUPAC_INCHIKEY>
FNRMBSNOUHBOND-CTPLVLMWSA-N

> <PUBCHEM_XLOGP3_AA>
2.8

> <PUBCHEM_EXACT_MASS>
304.203845

> <PUBCHEM_MOLECULAR_FORMULA>
C19H28O3

> <PUBCHEM_MOLECULAR_WEIGHT>
304.42382

> <PUBCHEM_OPENEYE_CAN_SMILES>
CC12CCC3C(C1CCC2O)CCC45C3(CCC(=O)C4O5)C

> <PUBCHEM_OPENEYE_ISO_SMILES>
C[C@]12CC[C@H]3[C@H]([C@@H]1CC[C@@H]2O)CC[C@@]45[C@@]3(CCC(=O)[C@@H]4O5)C

> <PUBCHEM_CACTVS_TPSA>
49.8

> <PUBCHEM_MONOISOTOPIC_WEIGHT>
304.203845

> <PUBCHEM_TOTAL_CHARGE>
0

> <PUBCHEM_HEAVY_ATOM_COUNT>
22

> <PUBCHEM_ATOM_DEF_STEREO_COUNT>
8

> <PUBCHEM_ATOM_UDEF_STEREO_COUNT>
0

> <PUBCHEM_BOND_DEF_STEREO_COUNT>
0

> <PUBCHEM_BOND_UDEF_STEREO_COUNT>
0

> <PUBCHEM_ISOTOPIC_ATOM_COUNT>
0

> <PUBCHEM_COMPONENT_COUNT>
1

> <PUBCHEM_CACTVS_TAUTO_COUNT>
3

> <PUBCHEM_COORDINATE_TYPE>
1
5
255

> <PUBCHEM_BONDANNOTATIONS>
5  1  5
10  26  6
17  2  5
4  18  5
6  23  6
7  24  5
8  25  6
9  22  5

$$$$

