   Color/Form

     * Crystals
     * Monoclinic crystals from water

   from [1]HSDB

   Odor
        Odorless
   from [2]HSDB

   Melting Point
        228.5 deg C
   from [3]HSDB

   Dissociation Constants

     * pKa1 = 2.43
     * pKa2 = 5.48 (est)

   from [4]HSDB

   Octanol/Water Partition Coefficient
        log Kow = -0.12 (est)
   from [5]HSDB

   Solubilities

     * Soluble in 180 parts water, in alkalies, slightly in alcohol.
       Almost insol in ether or benzene.
     * Slightly soluble in trifluoroacetic acid. Insoluble in ethanol.
     * In water, 1.1X10+4 mg/L at 25 deg C

   from [6]HSDB

   Spectral Properties

     * UV: 11493 (Sadtler Research Laboratories spectral collection)
     * IR: 8439 (Sadtler Research Laboratories IR grating collection)
     * 1H NMR: 6824 (Sadtler Research Laboratories spectral collection)
     * MASS: 42456 (NIST/EPA/MSDC Mass Spectral database, 1990 version)

   from [7]HSDB

   Vapor Pressure
        6.1X10-6 mm Hg at 25 deg C (est)
   from [8]HSDB

   Other Chemical/Physical Properties

     * 190 deg C when rapidly heated, with decomposition into CO2 and
       nicotinic acid
     * Henry's Law constant = 2.86X10-15 atm-cu m/mol at 25 deg C (est)
     * Hydroxyl radical reaction rate constant = 1.08X10-12 cu
       cm/molec-sec at 25 deg C (est)

   from [9]HSDB

   Computed Properties
   Molecular Weight                  167.1189 [g/mol]
   Molecular Formula                 C[7]H[5]NO[4]
   XLogP3-AA                         0.2
   H-Bond Donor                      2
   H-Bond Acceptor                   5
   Rotatable Bond Count              2
   Exact Mass                        167.021858
   MonoIsotopic Mass                 167.021858
   Topological Polar Surface Area    87.5
   Heavy Atom Count                  12
   Formal Charge                     0
   Complexity                        204
   Isotope Atom Count                0
   Defined Atom Stereocenter Count   0
   Undefined Atom Stereocenter Count 0
   Defined Bond Stereocenter Count   0
   Undefined Bond Stereocenter Count 0
   Covalently-Bonded Unit Count      1
   Feature 3D Acceptor Count         5
   Feature 3D Anion Count            2
   Feature 3D Ring Count             1
   Effective Rotor Count             2
   Conformer Sampling RMSD           0.6
   CID Conformer Count               [10]3

References

   1. http://toxnet.nlm.nih.gov/cgi-bin/sis/search/r?dbs+hsdb:@term+@rn+@rel+89-00-9
   2. http://toxnet.nlm.nih.gov/cgi-bin/sis/search/r?dbs+hsdb:@term+@rn+@rel+89-00-9
   3. http://toxnet.nlm.nih.gov/cgi-bin/sis/search/r?dbs+hsdb:@term+@rn+@rel+89-00-9
   4. http://toxnet.nlm.nih.gov/cgi-bin/sis/search/r?dbs+hsdb:@term+@rn+@rel+89-00-9
   5. http://toxnet.nlm.nih.gov/cgi-bin/sis/search/r?dbs+hsdb:@term+@rn+@rel+89-00-9
   6. http://toxnet.nlm.nih.gov/cgi-bin/sis/search/r?dbs+hsdb:@term+@rn+@rel+89-00-9
   7. http://toxnet.nlm.nih.gov/cgi-bin/sis/search/r?dbs+hsdb:@term+@rn+@rel+89-00-9
   8. http://toxnet.nlm.nih.gov/cgi-bin/sis/search/r?dbs+hsdb:@term+@rn+@rel+89-00-9
   9. http://toxnet.nlm.nih.gov/cgi-bin/sis/search/r?dbs+hsdb:@term+@rn+@rel+89-00-9
  10. http://pubchem.ncbi.nlm.nih.gov/vw3d/vw3d.cgi?cid=1066
