3571
  -OEChem-06251223312D

 63 65  0     1  0  0  0  0  0999 V2000
    7.8127    2.1502    0.0000 O   0  0  0  0  0  0  0  0  0  0  0  0
   10.7903   -4.6684    0.0000 O   0  0  0  0  0  0  0  0  0  0  0  0
    5.9483    2.5936    0.0000 O   0  0  0  0  0  0  0  0  0  0  0  0
    4.3827   -0.1566    0.0000 O   0  0  0  0  0  0  0  0  0  0  0  0
    8.5350   -3.8648    0.0000 O   0  0  0  0  0  0  0  0  0  0  0  0
    2.0000    2.2382    0.0000 O   0  0  0  0  0  0  0  0  0  0  0  0
    6.8143    3.0935    0.0000 N   0  0  0  0  0  0  0  0  0  0  0  0
    5.9574    0.3779    0.0000 N   0  0  0  0  0  0  0  0  0  0  0  0
    4.2162    3.5935    0.0000 N   0  0  0  0  0  0  0  0  0  0  0  0
    3.4914    1.5028    0.0000 N   0  0  0  0  0  0  0  0  0  0  0  0
    5.9482    3.5935    0.0000 C   0  0  3  0  0  0  0  0  0  0  0  0
    6.1574    4.5653    0.0000 C   0  0  0  0  0  0  0  0  0  0  0  0
    7.5513    3.7606    0.0000 C   0  0  0  0  0  0  0  0  0  0  0  0
    7.1462    4.6684    0.0000 C   0  0  0  0  0  0  0  0  0  0  0  0
    6.6645    1.0850    0.0000 C   0  0  3  0  0  0  0  0  0  0  0  0
    6.8143    2.0935    0.0000 C   0  0  0  0  0  0  0  0  0  0  0  0
    7.5441    0.6093    0.0000 C   0  0  0  0  0  0  0  0  0  0  0  0
    5.0822    3.0935    0.0000 C   0  0  0  0  0  0  0  0  0  0  0  0
    7.5719   -0.3903    0.0000 C   0  0  0  0  0  0  0  0  0  0  0  0
    8.4515   -0.8660    0.0000 C   0  0  0  0  0  0  0  0  0  0  0  0
    8.4794   -1.8656    0.0000 C   0  0  0  0  0  0  0  0  0  0  0  0
    3.2503    3.3347    0.0000 C   0  0  3  0  0  0  0  0  0  0  0  0
    9.3590   -2.3413    0.0000 C   0  0  0  0  0  0  0  0  0  0  0  0
   10.2664   -3.8166    0.0000 C   0  0  3  0  0  0  0  0  0  0  0  0
    4.9915    0.6367    0.0000 C   0  0  0  0  0  0  0  0  0  0  0  0
    4.4915    1.5028    0.0000 C   0  0  3  0  0  0  0  0  0  0  0  0
    9.3868   -3.3409    0.0000 C   0  0  0  0  0  0  0  0  0  0  0  0
   11.2660   -3.7888    0.0000 C   0  0  0  0  0  0  0  0  0  0  0  0
    2.9914    2.3688    0.0000 C   0  0  0  0  0  0  0  0  0  0  0  0
    2.5432    4.0418    0.0000 C   0  0  0  0  0  0  0  0  0  0  0  0
    5.4915    1.5028    0.0000 C   0  0  0  0  0  0  0  0  0  0  0  0
    5.4471    3.9586    0.0000 H   0  0  0  0  0  0  0  0  0  0  0  0
    6.1583    5.1853    0.0000 H   0  0  0  0  0  0  0  0  0  0  0  0
    5.5410    4.6314    0.0000 H   0  0  0  0  0  0  0  0  0  0  0  0
    7.9167    3.2598    0.0000 H   0  0  0  0  0  0  0  0  0  0  0  0
    8.0878    4.0714    0.0000 H   0  0  0  0  0  0  0  0  0  0  0  0
    7.7358    4.8602    0.0000 H   0  0  0  0  0  0  0  0  0  0  0  0
    7.0174    5.2749    0.0000 H   0  0  0  0  0  0  0  0  0  0  0  0
    6.7540    0.4715    0.0000 H   0  0  0  0  0  0  0  0  0  0  0  0
    8.1574    0.5187    0.0000 H   0  0  0  0  0  0  0  0  0  0  0  0
    7.7398    1.1976    0.0000 H   0  0  0  0  0  0  0  0  0  0  0  0
    6.9586   -0.2997    0.0000 H   0  0  0  0  0  0  0  0  0  0  0  0
    7.3762   -0.9786    0.0000 H   0  0  0  0  0  0  0  0  0  0  0  0
    9.0649   -0.9566    0.0000 H   0  0  0  0  0  0  0  0  0  0  0  0
    8.6473   -0.2777    0.0000 H   0  0  0  0  0  0  0  0  0  0  0  0
    6.1178   -0.2210    0.0000 H   0  0  0  0  0  0  0  0  0  0  0  0
    7.8660   -1.7750    0.0000 H   0  0  0  0  0  0  0  0  0  0  0  0
    8.2836   -2.4539    0.0000 H   0  0  0  0  0  0  0  0  0  0  0  0
    4.2971    4.2082    0.0000 H   0  0  0  0  0  0  0  0  0  0  0  0
    3.4107    3.9336    0.0000 H   0  0  0  0  0  0  0  0  0  0  0  0
    9.9723   -2.4319    0.0000 H   0  0  0  0  0  0  0  0  0  0  0  0
    9.5547   -1.7530    0.0000 H   0  0  0  0  0  0  0  0  0  0  0  0
    9.8404   -4.2671    0.0000 H   0  0  0  0  0  0  0  0  0  0  0  0
    4.4915    2.1228    0.0000 H   0  0  0  0  0  0  0  0  0  0  0  0
   11.8543   -3.9845    0.0000 H   0  0  0  0  0  0  0  0  0  0  0  0
   11.3567   -3.1754    0.0000 H   0  0  0  0  0  0  0  0  0  0  0  0
    3.1814    0.9658    0.0000 H   0  0  0  0  0  0  0  0  0  0  0  0
    2.9816    4.4802    0.0000 H   0  0  0  0  0  0  0  0  0  0  0  0
    2.1048    4.4802    0.0000 H   0  0  0  0  0  0  0  0  0  0  0  0
    2.1048    3.6034    0.0000 H   0  0  0  0  0  0  0  0  0  0  0  0
    5.4915    0.8827    0.0000 H   0  0  0  0  0  0  0  0  0  0  0  0
    6.1114    1.5028    0.0000 H   0  0  0  0  0  0  0  0  0  0  0  0
    5.4915    2.1228    0.0000 H   0  0  0  0  0  0  0  0  0  0  0  0
  1 16  2  0  0  0  0
  2 24  1  0  0  0  0
  2 28  1  0  0  0  0
  3 18  2  0  0  0  0
  4 25  2  0  0  0  0
  5 27  2  0  0  0  0
  6 29  2  0  0  0  0
  7 11  1  0  0  0  0
  7 13  1  0  0  0  0
  7 16  1  0  0  0  0
  8 15  1  0  0  0  0
  8 25  1  0  0  0  0
  8 46  1  0  0  0  0
  9 18  1  0  0  0  0
  9 22  1  0  0  0  0
  9 49  1  0  0  0  0
 10 26  1  0  0  0  0
 10 29  1  0  0  0  0
 10 57  1  0  0  0  0
 11 12  1  0  0  0  0
 11 18  1  0  0  0  0
 11 32  1  0  0  0  0
 12 14  1  0  0  0  0
 12 33  1  0  0  0  0
 12 34  1  0  0  0  0
 13 14  1  0  0  0  0
 13 35  1  0  0  0  0
 13 36  1  0  0  0  0
 14 37  1  0  0  0  0
 14 38  1  0  0  0  0
 15 16  1  0  0  0  0
 15 17  1  0  0  0  0
 15 39  1  0  0  0  0
 17 19  1  0  0  0  0
 17 40  1  0  0  0  0
 17 41  1  0  0  0  0
 19 20  1  0  0  0  0
 19 42  1  0  0  0  0
 19 43  1  0  0  0  0
 20 21  1  0  0  0  0
 20 44  1  0  0  0  0
 20 45  1  0  0  0  0
 21 23  1  0  0  0  0
 21 47  1  0  0  0  0
 21 48  1  0  0  0  0
 22 29  1  0  0  0  0
 22 30  1  0  0  0  0
 22 50  1  0  0  0  0
 23 27  1  0  0  0  0
 23 51  1  0  0  0  0
 23 52  1  0  0  0  0
 24 27  1  0  0  0  0
 24 28  1  0  0  0  0
 24 53  1  0  0  0  0
 25 26  1  0  0  0  0
 26 31  1  0  0  0  0
 26 54  1  0  0  0  0
 28 55  1  0  0  0  0
 28 56  1  0  0  0  0
 30 58  1  0  0  0  0
 30 59  1  0  0  0  0
 30 60  1  0  0  0  0
 31 61  1  0  0  0  0
 31 62  1  0  0  0  0
 31 63  1  0  0  0  0
M  END
> <PUBCHEM_COMPOUND_CID>
3571

> <PUBCHEM_COMPOUND_CANONICALIZED>
1

> <PUBCHEM_CACTVS_COMPLEXITY>
741

> <PUBCHEM_CACTVS_HBOND_ACCEPTOR>
6

> <PUBCHEM_CACTVS_HBOND_DONOR>
3

> <PUBCHEM_CACTVS_ROTATABLE_BOND>
7

> <PUBCHEM_CACTVS_SUBSKEYS>
AAADcfB7uAAAAAAAAAAAAAAAEgAAAWAAAAAAAAAAAAAAAAAAAAAAHgAQAAAACDzhgAYCAAPABAAIAIEQEAIAAAAAAAAAAIHIAAAAQBYAgCQUAAAENgCAAAGYyaCAAAAAAAAAAAAAAAAAAAAAAAAAAAAAAA==

> <PUBCHEM_IUPAC_OPENEYE_NAME>
6,9-dimethyl-3-[6-(oxiran-2-yl)-6-oxo-hexyl]-1,4,7,10-tetrazabicyclo[10.3.0]pentadecane-2,5,8,11-tetrone

> <PUBCHEM_IUPAC_CAS_NAME>
6,9-dimethyl-3-[6-(2-oxiranyl)-6-oxohexyl]-1,4,7,10-tetrazabicyclo[10.3.0]pentadecane-2,5,8,11-tetrone

> <PUBCHEM_IUPAC_NAME>
6,9-dimethyl-3-[6-(oxiran-2-yl)-6-oxohexyl]-1,4,7,10-tetrazabicyclo[10.3.0]pentadecane-2,5,8,11-tetrone

> <PUBCHEM_IUPAC_SYSTEMATIC_NAME>
6,9-dimethyl-3-[6-oxidanylidene-6-(oxiran-2-yl)hexyl]-1,4,7,10-tetrazabicyclo[10.3.0]pentadecane-2,5,8,11-tetrone

> <PUBCHEM_IUPAC_TRADITIONAL_NAME>
3-[6-keto-6-(oxiran-2-yl)hexyl]-6,9-dimethyl-1,4,7,10-tetrazabicyclo[10.3.0]pentadecane-2,5,8,11-diquinone

> <PUBCHEM_IUPAC_INCHI>
InChI=1S/C21H32N4O6/c1-12-18(27)22-13(2)19(28)24-14(7-4-3-5-9-16(26)17-11-31-17)21(30)25-10-6-8-15(25)20(29)23-12/h12-15,17H,3-11H2,1-2H3,(H,22,27)(H,23,29)(H,24,28)

> <PUBCHEM_IUPAC_INCHIKEY>
GNYCTMYOHGBSBI-UHFFFAOYSA-N

> <PUBCHEM_XLOGP3_AA>
-0.1

> <PUBCHEM_EXACT_MASS>
436.232185

> <PUBCHEM_MOLECULAR_FORMULA>
C21H32N4O6

> <PUBCHEM_MOLECULAR_WEIGHT>
436.50198

> <PUBCHEM_OPENEYE_CAN_SMILES>
CC1C(=O)NC(C(=O)N2CCCC2C(=O)NC(C(=O)N1)C)CCCCCC(=O)C3CO3

> <PUBCHEM_OPENEYE_ISO_SMILES>
CC1C(=O)NC(C(=O)N2CCCC2C(=O)NC(C(=O)N1)C)CCCCCC(=O)C3CO3

> <PUBCHEM_CACTVS_TPSA>
137

> <PUBCHEM_MONOISOTOPIC_WEIGHT>
436.232185

> <PUBCHEM_TOTAL_CHARGE>
0

> <PUBCHEM_HEAVY_ATOM_COUNT>
31

> <PUBCHEM_ATOM_DEF_STEREO_COUNT>
0

> <PUBCHEM_ATOM_UDEF_STEREO_COUNT>
5

> <PUBCHEM_BOND_DEF_STEREO_COUNT>
0

> <PUBCHEM_BOND_UDEF_STEREO_COUNT>
0

> <PUBCHEM_ISOTOPIC_ATOM_COUNT>
0

> <PUBCHEM_COMPONENT_COUNT>
1

> <PUBCHEM_CACTVS_TAUTO_COUNT>
162

> <PUBCHEM_COORDINATE_TYPE>
1
5
255

> <PUBCHEM_BONDANNOTATIONS>
11  18  3
15  17  3
22  30  3
24  27  3
26  31  3

$$$$

