356660
  -OEChem-07051213032D

 53 56  0     0  0  0  0  0  0999 V2000
    6.5042   -1.3106    0.0000 O   0  0  0  0  0  0  0  0  0  0  0  0
    2.9802   -3.3452    0.0000 O   0  0  0  0  0  0  0  0  0  0  0  0
    4.7462   -4.3830    0.0000 O   0  0  0  0  0  0  0  0  0  0  0  0
    2.0116    3.3232    0.0000 O   0  0  0  0  0  0  0  0  0  0  0  0
    3.8149    4.3830    0.0000 O   0  0  0  0  0  0  0  0  0  0  0  0
    3.0020   -0.3137    0.0000 N   0  3  0  0  0  0  0  0  0  0  0  0
    3.8680    0.1863    0.0000 C   0  0  0  0  0  0  0  0  0  0  0  0
    4.7340   -0.3137    0.0000 C   0  0  0  0  0  0  0  0  0  0  0  0
    4.7340   -1.3137    0.0000 C   0  0  0  0  0  0  0  0  0  0  0  0
    3.8520    1.2278    0.0000 C   0  0  0  0  0  0  0  0  0  0  0  0
    3.8680   -1.8137    0.0000 C   0  0  0  0  0  0  0  0  0  0  0  0
    4.7500    1.7555    0.0000 C   0  0  0  0  0  0  0  0  0  0  0  0
    3.0020   -1.3137    0.0000 C   0  0  0  0  0  0  0  0  0  0  0  0
    5.6440    0.1931    0.0000 C   0  0  0  0  0  0  0  0  0  0  0  0
    5.6440   -1.8206    0.0000 C   0  0  0  0  0  0  0  0  0  0  0  0
    5.6521    1.2347    0.0000 C   0  0  0  0  0  0  0  0  0  0  0  0
    3.8520   -2.8552    0.0000 C   0  0  0  0  0  0  0  0  0  0  0  0
    2.9000    1.7484    0.0000 C   0  0  0  0  0  0  0  0  0  0  0  0
    2.1360    0.1863    0.0000 C   0  0  0  0  0  0  0  0  0  0  0  0
    4.7584    2.8405    0.0000 C   0  0  0  0  0  0  0  0  0  0  0  0
    4.7500   -3.3830    0.0000 C   0  0  0  0  0  0  0  0  0  0  0  0
    5.6521   -2.8622    0.0000 C   0  0  0  0  0  0  0  0  0  0  0  0
    2.8833    2.8333    0.0000 C   0  0  0  0  0  0  0  0  0  0  0  0
    3.8187    3.3830    0.0000 C   0  0  0  0  0  0  0  0  0  0  0  0
    7.3760   -1.8006    0.0000 C   0  0  0  0  0  0  0  0  0  0  0  0
    2.9686   -4.3451    0.0000 C   0  0  0  0  0  0  0  0  0  0  0  0
    5.6102   -4.8863    0.0000 C   0  0  0  0  0  0  0  0  0  0  0  0
    2.0000    4.3232    0.0000 C   0  0  0  0  0  0  0  0  0  0  0  0
    4.6790    4.8863    0.0000 C   0  0  0  0  0  0  0  0  0  0  0  0
    2.4651   -1.6237    0.0000 H   0  0  0  0  0  0  0  0  0  0  0  0
    6.1774   -0.1231    0.0000 H   0  0  0  0  0  0  0  0  0  0  0  0
    6.1902    1.5426    0.0000 H   0  0  0  0  0  0  0  0  0  0  0  0
    2.3692    1.4281    0.0000 H   0  0  0  0  0  0  0  0  0  0  0  0
    2.4460    0.7232    0.0000 H   0  0  0  0  0  0  0  0  0  0  0  0
    1.5990    0.4963    0.0000 H   0  0  0  0  0  0  0  0  0  0  0  0
    1.8260   -0.3507    0.0000 H   0  0  0  0  0  0  0  0  0  0  0  0
    5.2965    3.1484    0.0000 H   0  0  0  0  0  0  0  0  0  0  0  0
    6.1902   -3.1701    0.0000 H   0  0  0  0  0  0  0  0  0  0  0  0
    7.0722   -2.3410    0.0000 H   0  0  0  0  0  0  0  0  0  0  0  0
    7.9165   -2.1043    0.0000 H   0  0  0  0  0  0  0  0  0  0  0  0
    7.6798   -1.2601    0.0000 H   0  0  0  0  0  0  0  0  0  0  0  0
    2.3487   -4.3380    0.0000 H   0  0  0  0  0  0  0  0  0  0  0  0
    2.9615   -4.9651    0.0000 H   0  0  0  0  0  0  0  0  0  0  0  0
    3.5886   -4.3523    0.0000 H   0  0  0  0  0  0  0  0  0  0  0  0
    5.2982   -5.4220    0.0000 H   0  0  0  0  0  0  0  0  0  0  0  0
    6.1460   -5.1984    0.0000 H   0  0  0  0  0  0  0  0  0  0  0  0
    5.9223   -4.3506    0.0000 H   0  0  0  0  0  0  0  0  0  0  0  0
    2.6200    4.3303    0.0000 H   0  0  0  0  0  0  0  0  0  0  0  0
    1.9928    4.9431    0.0000 H   0  0  0  0  0  0  0  0  0  0  0  0
    1.3800    4.3160    0.0000 H   0  0  0  0  0  0  0  0  0  0  0  0
    4.9910    4.3506    0.0000 H   0  0  0  0  0  0  0  0  0  0  0  0
    5.2147    5.1984    0.0000 H   0  0  0  0  0  0  0  0  0  0  0  0
    4.3669    5.4221    0.0000 H   0  0  0  0  0  0  0  0  0  0  0  0
  1 15  1  0  0  0  0
  1 25  1  0  0  0  0
  2 17  1  0  0  0  0
  2 26  1  0  0  0  0
  3 21  1  0  0  0  0
  3 27  1  0  0  0  0
  4 23  1  0  0  0  0
  4 28  1  0  0  0  0
  5 24  1  0  0  0  0
  5 29  1  0  0  0  0
  6  7  2  0  0  0  0
  6 13  1  0  0  0  0
  6 19  1  0  0  0  0
  7  8  1  0  0  0  0
  7 10  1  0  0  0  0
  8  9  2  0  0  0  0
  8 14  1  0  0  0  0
  9 11  1  0  0  0  0
  9 15  1  0  0  0  0
 10 12  1  0  0  0  0
 10 18  2  0  0  0  0
 11 13  2  0  0  0  0
 11 17  1  0  0  0  0
 12 16  1  0  0  0  0
 12 20  2  0  0  0  0
 13 30  1  0  0  0  0
 14 16  2  0  0  0  0
 14 31  1  0  0  0  0
 15 22  2  0  0  0  0
 16 32  1  0  0  0  0
 17 21  2  0  0  0  0
 18 23  1  0  0  0  0
 18 33  1  0  0  0  0
 19 34  1  0  0  0  0
 19 35  1  0  0  0  0
 19 36  1  0  0  0  0
 20 24  1  0  0  0  0
 20 37  1  0  0  0  0
 21 22  1  0  0  0  0
 22 38  1  0  0  0  0
 23 24  2  0  0  0  0
 25 39  1  0  0  0  0
 25 40  1  0  0  0  0
 25 41  1  0  0  0  0
 26 42  1  0  0  0  0
 26 43  1  0  0  0  0
 26 44  1  0  0  0  0
 27 45  1  0  0  0  0
 27 46  1  0  0  0  0
 27 47  1  0  0  0  0
 28 48  1  0  0  0  0
 28 49  1  0  0  0  0
 28 50  1  0  0  0  0
 29 51  1  0  0  0  0
 29 52  1  0  0  0  0
 29 53  1  0  0  0  0
M  CHG  1   6   1
M  END
> <PUBCHEM_COMPOUND_CID>
356660

> <PUBCHEM_COMPOUND_CANONICALIZED>
1

> <PUBCHEM_CACTVS_COMPLEXITY>
547

> <PUBCHEM_CACTVS_HBOND_ACCEPTOR>
5

> <PUBCHEM_CACTVS_HBOND_DONOR>
0

> <PUBCHEM_CACTVS_ROTATABLE_BOND>
5

> <PUBCHEM_CACTVS_SUBSKEYS>
AAADceB6OAAAAAAAAAAAAAAAAAAAAAAAAAA8YMEAAAAAAADx/AAAHgAAAAAADAzBngY+xvMMFACgAzRnRACCiCAxICAI2CAuzJgNJ+LEsZuEMCpnwB3K6Afw8P8O4QADSAAaQADCAAaQADSAAAAAAAAAAA==

> <PUBCHEM_IUPAC_OPENEYE_NAME>
2,3,7,8,10-pentamethoxy-5-methyl-benzo[c]phenanthridin-5-ium

> <PUBCHEM_IUPAC_CAS_NAME>
2,3,7,8,10-pentamethoxy-5-methylbenzo[c]phenanthridin-5-ium

> <PUBCHEM_IUPAC_NAME>
2,3,7,8,10-pentamethoxy-5-methylbenzo[c]phenanthridin-5-ium

> <PUBCHEM_IUPAC_SYSTEMATIC_NAME>
2,3,7,8,10-pentamethoxy-5-methyl-benzo[c]phenanthridin-5-ium

> <PUBCHEM_IUPAC_TRADITIONAL_NAME>
2,3,7,8,10-pentamethoxy-5-methyl-benzo[c]phenanthridin-5-ium

> <PUBCHEM_IUPAC_INCHI>
InChI=1S/C23H24NO5/c1-24-12-16-21(19(27-4)11-20(28-5)23(16)29-6)14-8-7-13-9-17(25-2)18(26-3)10-15(13)22(14)24/h7-12H,1-6H3/q+1

> <PUBCHEM_IUPAC_INCHIKEY>
QXVJDCUNQFSDBQ-UHFFFAOYSA-N

> <PUBCHEM_XLOGP3_AA>
4.7

> <PUBCHEM_EXACT_MASS>
394.165448

> <PUBCHEM_MOLECULAR_FORMULA>
C23H24NO5+

> <PUBCHEM_MOLECULAR_WEIGHT>
394.44036

> <PUBCHEM_OPENEYE_CAN_SMILES>
C[N+]1=C2C(=C3C(=CC(=C(C3=C1)OC)OC)OC)C=CC4=CC(=C(C=C42)OC)OC

> <PUBCHEM_OPENEYE_ISO_SMILES>
C[N+]1=C2C(=C3C(=CC(=C(C3=C1)OC)OC)OC)C=CC4=CC(=C(C=C42)OC)OC

> <PUBCHEM_CACTVS_TPSA>
50

> <PUBCHEM_MONOISOTOPIC_WEIGHT>
394.165448

> <PUBCHEM_TOTAL_CHARGE>
1

> <PUBCHEM_HEAVY_ATOM_COUNT>
29

> <PUBCHEM_ATOM_DEF_STEREO_COUNT>
0

> <PUBCHEM_ATOM_UDEF_STEREO_COUNT>
0

> <PUBCHEM_BOND_DEF_STEREO_COUNT>
0

> <PUBCHEM_BOND_UDEF_STEREO_COUNT>
0

> <PUBCHEM_ISOTOPIC_ATOM_COUNT>
0

> <PUBCHEM_COMPONENT_COUNT>
1

> <PUBCHEM_CACTVS_TAUTO_COUNT>
1

> <PUBCHEM_COORDINATE_TYPE>
1
5
255

> <PUBCHEM_BONDANNOTATIONS>
10  12  8
10  18  8
11  13  8
11  17  8
12  16  8
12  20  8
14  16  8
15  22  8
17  21  8
18  23  8
20  24  8
21  22  8
23  24  8
6  13  8
6  7  8
7  10  8
7  8  8
8  14  8
8  9  8
9  11  8
9  15  8

$$$$

