5282303
  -OEChem-07051213042D

103102  0     1  0  0  0  0  0999 V2000
    6.3301   -6.5000    0.0000 P   0  0  3  0  0  0  0  0  0  0  0  0
    5.4641   -7.0000    0.0000 O   0  0  0  0  0  0  0  0  0  0  0  0
    9.7942   -4.5000    0.0000 O   0  0  0  0  0  0  0  0  0  0  0  0
    7.1962   -6.0000    0.0000 O   0  0  0  0  0  0  0  0  0  0  0  0
    9.7942   -6.5000    0.0000 O   0  0  0  0  0  0  0  0  0  0  0  0
    8.9282   -3.0000    0.0000 O   0  0  0  0  0  0  0  0  0  0  0  0
    5.8301   -5.6340    0.0000 O   0  5  0  0  0  0  0  0  0  0  0  0
    6.8301   -7.3660    0.0000 O   0  0  0  0  0  0  0  0  0  0  0  0
   10.6603   -5.0000    0.0000 O   0  0  0  0  0  0  0  0  0  0  0  0
   14.1244   -5.0000    0.0000 O   0  0  0  0  0  0  0  0  0  0  0  0
   17.5885   -6.0000    0.0000 O   0  0  0  0  0  0  0  0  0  0  0  0
   16.7224   -7.5000    0.0000 O   0  0  0  0  0  0  0  0  0  0  0  0
    2.8660   -6.5000    0.0000 N   0  3  0  0  0  0  0  0  0  0  0  0
   13.2583    1.5000    0.0000 C   0  0  0  0  0  0  0  0  0  0  0  0
   13.2583    2.5000    0.0000 C   0  0  0  0  0  0  0  0  0  0  0  0
   12.3923    1.0000    0.0000 C   0  0  0  0  0  0  0  0  0  0  0  0
   14.1244    3.0000    0.0000 C   0  0  0  0  0  0  0  0  0  0  0  0
   12.3923    0.0000    0.0000 C   0  0  0  0  0  0  0  0  0  0  0  0
   14.1244    4.0000    0.0000 C   0  0  0  0  0  0  0  0  0  0  0  0
   11.5263   -0.5000    0.0000 C   0  0  0  0  0  0  0  0  0  0  0  0
   14.9904    4.5000    0.0000 C   0  0  0  0  0  0  0  0  0  0  0  0
    3.7320   -7.0000    0.0000 C   0  0  0  0  0  0  0  0  0  0  0  0
   11.5263   -1.5000    0.0000 C   0  0  0  0  0  0  0  0  0  0  0  0
   14.9904    5.5000    0.0000 C   0  0  0  0  0  0  0  0  0  0  0  0
   10.6603   -2.0000    0.0000 C   0  0  0  0  0  0  0  0  0  0  0  0
   15.8564    6.0000    0.0000 C   0  0  0  0  0  0  0  0  0  0  0  0
    2.0000   -6.0000    0.0000 C   0  0  0  0  0  0  0  0  0  0  0  0
    2.3660   -7.3660    0.0000 C   0  0  0  0  0  0  0  0  0  0  0  0
    3.3660   -5.6340    0.0000 C   0  0  0  0  0  0  0  0  0  0  0  0
    4.5981   -6.5000    0.0000 C   0  0  0  0  0  0  0  0  0  0  0  0
   15.8564    7.0000    0.0000 C   0  0  0  0  0  0  0  0  0  0  0  0
   10.6603   -3.0000    0.0000 C   0  0  0  0  0  0  0  0  0  0  0  0
   16.7224    7.5000    0.0000 C   0  0  0  0  0  0  0  0  0  0  0  0
    9.7942   -3.5000    0.0000 C   0  0  0  0  0  0  0  0  0  0  0  0
    8.9282   -6.0000    0.0000 C   0  0  3  0  0  0  0  0  0  0  0  0
    8.9282   -5.0000    0.0000 C   0  0  0  0  0  0  0  0  0  0  0  0
    8.0622   -6.5000    0.0000 C   0  0  0  0  0  0  0  0  0  0  0  0
   10.6603   -6.0000    0.0000 C   0  0  0  0  0  0  0  0  0  0  0  0
   11.5263   -6.5000    0.0000 C   0  0  0  0  0  0  0  0  0  0  0  0
   12.3923   -6.0000    0.0000 C   0  0  0  0  0  0  0  0  0  0  0  0
   13.2583   -6.5000    0.0000 C   0  0  0  0  0  0  0  0  0  0  0  0
   14.1244   -6.0000    0.0000 C   0  0  0  0  0  0  0  0  0  0  0  0
   14.9904   -6.5000    0.0000 C   0  0  0  0  0  0  0  0  0  0  0  0
   15.8564   -6.0000    0.0000 C   0  0  0  0  0  0  0  0  0  0  0  0
   16.7224   -6.5000    0.0000 C   0  0  0  0  0  0  0  0  0  0  0  0
   13.4704    0.9174    0.0000 H   0  0  0  0  0  0  0  0  0  0  0  0
   13.8689    1.6077    0.0000 H   0  0  0  0  0  0  0  0  0  0  0  0
   13.0463    3.0826    0.0000 H   0  0  0  0  0  0  0  0  0  0  0  0
   12.6477    2.3923    0.0000 H   0  0  0  0  0  0  0  0  0  0  0  0
   12.1803    1.5826    0.0000 H   0  0  0  0  0  0  0  0  0  0  0  0
   11.7817    0.8923    0.0000 H   0  0  0  0  0  0  0  0  0  0  0  0
   14.3364    2.4174    0.0000 H   0  0  0  0  0  0  0  0  0  0  0  0
   14.7349    3.1077    0.0000 H   0  0  0  0  0  0  0  0  0  0  0  0
   12.6044   -0.5826    0.0000 H   0  0  0  0  0  0  0  0  0  0  0  0
   13.0029    0.1077    0.0000 H   0  0  0  0  0  0  0  0  0  0  0  0
   13.9123    4.5826    0.0000 H   0  0  0  0  0  0  0  0  0  0  0  0
   13.5138    3.8923    0.0000 H   0  0  0  0  0  0  0  0  0  0  0  0
   11.3142    0.0826    0.0000 H   0  0  0  0  0  0  0  0  0  0  0  0
   10.9157   -0.6077    0.0000 H   0  0  0  0  0  0  0  0  0  0  0  0
   15.2024    3.9174    0.0000 H   0  0  0  0  0  0  0  0  0  0  0  0
   15.6010    4.6077    0.0000 H   0  0  0  0  0  0  0  0  0  0  0  0
    3.3335   -7.4750    0.0000 H   0  0  0  0  0  0  0  0  0  0  0  0
    4.1306   -7.4750    0.0000 H   0  0  0  0  0  0  0  0  0  0  0  0
   11.7383   -2.0826    0.0000 H   0  0  0  0  0  0  0  0  0  0  0  0
   12.1369   -1.3923    0.0000 H   0  0  0  0  0  0  0  0  0  0  0  0
   14.7783    6.0826    0.0000 H   0  0  0  0  0  0  0  0  0  0  0  0
   14.3798    5.3923    0.0000 H   0  0  0  0  0  0  0  0  0  0  0  0
   10.4482   -1.4174    0.0000 H   0  0  0  0  0  0  0  0  0  0  0  0
   10.0497   -2.1077    0.0000 H   0  0  0  0  0  0  0  0  0  0  0  0
   16.0685    5.4174    0.0000 H   0  0  0  0  0  0  0  0  0  0  0  0
   16.4670    6.1077    0.0000 H   0  0  0  0  0  0  0  0  0  0  0  0
    3.9030   -5.9440    0.0000 H   0  0  0  0  0  0  0  0  0  0  0  0
    3.6760   -5.0970    0.0000 H   0  0  0  0  0  0  0  0  0  0  0  0
    2.8291   -5.3240    0.0000 H   0  0  0  0  0  0  0  0  0  0  0  0
    1.8291   -7.0560    0.0000 H   0  0  0  0  0  0  0  0  0  0  0  0
    2.0560   -7.9030    0.0000 H   0  0  0  0  0  0  0  0  0  0  0  0
    2.9030   -7.6760    0.0000 H   0  0  0  0  0  0  0  0  0  0  0  0
    2.3100   -5.4631    0.0000 H   0  0  0  0  0  0  0  0  0  0  0  0
    1.4631   -5.6900    0.0000 H   0  0  0  0  0  0  0  0  0  0  0  0
    1.6900   -6.5369    0.0000 H   0  0  0  0  0  0  0  0  0  0  0  0
    4.9966   -6.0250    0.0000 H   0  0  0  0  0  0  0  0  0  0  0  0
    4.1996   -6.0250    0.0000 H   0  0  0  0  0  0  0  0  0  0  0  0
   15.6444    7.5826    0.0000 H   0  0  0  0  0  0  0  0  0  0  0  0
   15.2458    6.8923    0.0000 H   0  0  0  0  0  0  0  0  0  0  0  0
   10.8723   -3.5826    0.0000 H   0  0  0  0  0  0  0  0  0  0  0  0
   11.2708   -2.8923    0.0000 H   0  0  0  0  0  0  0  0  0  0  0  0
   17.0324    6.9631    0.0000 H   0  0  0  0  0  0  0  0  0  0  0  0
   17.2594    7.8100    0.0000 H   0  0  0  0  0  0  0  0  0  0  0  0
   16.4124    8.0369    0.0000 H   0  0  0  0  0  0  0  0  0  0  0  0
    9.4651   -5.6900    0.0000 H   0  0  0  0  0  0  0  0  0  0  0  0
    8.7162   -4.4174    0.0000 H   0  0  0  0  0  0  0  0  0  0  0  0
    8.3176   -5.1077    0.0000 H   0  0  0  0  0  0  0  0  0  0  0  0
    7.6636   -6.9750    0.0000 H   0  0  0  0  0  0  0  0  0  0  0  0
    8.4607   -6.9750    0.0000 H   0  0  0  0  0  0  0  0  0  0  0  0
   11.1278   -6.9750    0.0000 H   0  0  0  0  0  0  0  0  0  0  0  0
   11.9248   -6.9750    0.0000 H   0  0  0  0  0  0  0  0  0  0  0  0
   12.7908   -5.5250    0.0000 H   0  0  0  0  0  0  0  0  0  0  0  0
   11.9938   -5.5250    0.0000 H   0  0  0  0  0  0  0  0  0  0  0  0
   12.8598   -6.9750    0.0000 H   0  0  0  0  0  0  0  0  0  0  0  0
   13.6569   -6.9750    0.0000 H   0  0  0  0  0  0  0  0  0  0  0  0
   14.9904   -7.1200    0.0000 H   0  0  0  0  0  0  0  0  0  0  0  0
   15.8564   -5.3800    0.0000 H   0  0  0  0  0  0  0  0  0  0  0  0
   18.1254   -6.3100    0.0000 H   0  0  0  0  0  0  0  0  0  0  0  0
  1  2  1  0  0  0  0
  1  4  1  0  0  0  0
  1  7  1  0  0  0  0
  1  8  2  0  0  0  0
  2 30  1  0  0  0  0
  3 34  1  0  0  0  0
  3 36  1  0  0  0  0
  4 37  1  0  0  0  0
  5 35  1  0  0  0  0
  5 38  1  0  0  0  0
  6 34  2  0  0  0  0
  9 38  2  0  0  0  0
 10 42  2  0  0  0  0
 11 45  1  0  0  0  0
 11103  1  0  0  0  0
 12 45  2  0  0  0  0
 13 22  1  0  0  0  0
 13 27  1  0  0  0  0
 13 28  1  0  0  0  0
 13 29  1  0  0  0  0
 14 15  1  0  0  0  0
 14 16  1  0  0  0  0
 14 46  1  0  0  0  0
 14 47  1  0  0  0  0
 15 17  1  0  0  0  0
 15 48  1  0  0  0  0
 15 49  1  0  0  0  0
 16 18  1  0  0  0  0
 16 50  1  0  0  0  0
 16 51  1  0  0  0  0
 17 19  1  0  0  0  0
 17 52  1  0  0  0  0
 17 53  1  0  0  0  0
 18 20  1  0  0  0  0
 18 54  1  0  0  0  0
 18 55  1  0  0  0  0
 19 21  1  0  0  0  0
 19 56  1  0  0  0  0
 19 57  1  0  0  0  0
 20 23  1  0  0  0  0
 20 58  1  0  0  0  0
 20 59  1  0  0  0  0
 21 24  1  0  0  0  0
 21 60  1  0  0  0  0
 21 61  1  0  0  0  0
 22 30  1  0  0  0  0
 22 62  1  0  0  0  0
 22 63  1  0  0  0  0
 23 25  1  0  0  0  0
 23 64  1  0  0  0  0
 23 65  1  0  0  0  0
 24 26  1  0  0  0  0
 24 66  1  0  0  0  0
 24 67  1  0  0  0  0
 25 32  1  0  0  0  0
 25 68  1  0  0  0  0
 25 69  1  0  0  0  0
 26 31  1  0  0  0  0
 26 70  1  0  0  0  0
 26 71  1  0  0  0  0
 27 78  1  0  0  0  0
 27 79  1  0  0  0  0
 27 80  1  0  0  0  0
 28 75  1  0  0  0  0
 28 76  1  0  0  0  0
 28 77  1  0  0  0  0
 29 72  1  0  0  0  0
 29 73  1  0  0  0  0
 29 74  1  0  0  0  0
 30 81  1  0  0  0  0
 30 82  1  0  0  0  0
 31 33  1  0  0  0  0
 31 83  1  0  0  0  0
 31 84  1  0  0  0  0
 32 34  1  0  0  0  0
 32 85  1  0  0  0  0
 32 86  1  0  0  0  0
 33 87  1  0  0  0  0
 33 88  1  0  0  0  0
 33 89  1  0  0  0  0
 35 36  1  0  0  0  0
 35 37  1  0  0  0  0
 35 90  1  0  0  0  0
 36 91  1  0  0  0  0
 36 92  1  0  0  0  0
 37 93  1  0  0  0  0
 37 94  1  0  0  0  0
 38 39  1  0  0  0  0
 39 40  1  0  0  0  0
 39 95  1  0  0  0  0
 39 96  1  0  0  0  0
 40 41  1  0  0  0  0
 40 97  1  0  0  0  0
 40 98  1  0  0  0  0
 41 42  1  0  0  0  0
 41 99  1  0  0  0  0
 41100  1  0  0  0  0
 42 43  1  0  0  0  0
 43 44  2  0  0  0  0
 43101  1  0  0  0  0
 44 45  1  0  0  0  0
 44102  1  0  0  0  0
M  CHG  2   7  -1  13   1
M  END
> <PUBCHEM_COMPOUND_CID>
5282303

> <PUBCHEM_COMPOUND_CANONICALIZED>
1

> <PUBCHEM_CACTVS_COMPLEXITY>
909

> <PUBCHEM_CACTVS_HBOND_ACCEPTOR>
11

> <PUBCHEM_CACTVS_HBOND_DONOR>
1

> <PUBCHEM_CACTVS_ROTATABLE_BOND>
32

> <PUBCHEM_CACTVS_SUBSKEYS>
AAADcfB+PAIAAAAAAAAAAAAAAAAAAAAAAAAAAAAAAAAAAAAAAAAAHgAACCAACBThgAYCCAMABxCIQKDSCIAAAAAgAAAICAEIAEgDBBIAAAACEAAFgAAaEYOIzqCgAAAAAAAAAAAAAAAAAAAAAAAAAAAAAA==

> <PUBCHEM_IUPAC_OPENEYE_NAME>
[2-[(E)-7-carboxy-5-oxo-hept-6-enoyl]oxy-3-hexadecanoyloxy-propyl] 2-(trimethylammonio)ethyl phosphate

> <PUBCHEM_IUPAC_CAS_NAME>
[2-[(E)-7-carboxy-1,5-dioxohept-6-enoxy]-3-(1-oxohexadecoxy)propyl] 2-(trimethylammonio)ethyl phosphate

> <PUBCHEM_IUPAC_NAME>
[2-[(E)-7-carboxy-5-oxohept-6-enoyl]oxy-3-hexadecanoyloxypropyl] 2-(trimethylazaniumyl)ethyl phosphate

> <PUBCHEM_IUPAC_SYSTEMATIC_NAME>
[3-hexadecanoyloxy-2-[(E)-8-oxidanyl-5,8-bis(oxidanylidene)oct-6-enoyl]oxy-propyl] 2-(trimethylazaniumyl)ethyl phosphate

> <PUBCHEM_IUPAC_TRADITIONAL_NAME>
[2-[(E)-7-carboxy-5-keto-hept-6-enoyl]oxy-3-hexadecanoyloxy-propyl] 2-(trimethylammonio)ethyl phosphate

> <PUBCHEM_IUPAC_INCHI>
InChI=1S/C32H58NO11P/c1-5-6-7-8-9-10-11-12-13-14-15-16-17-20-31(37)41-26-29(27-43-45(39,40)42-25-24-33(2,3)4)44-32(38)21-18-19-28(34)22-23-30(35)36/h22-23,29H,5-21,24-27H2,1-4H3,(H-,35,36,39,40)/b23-22+

> <PUBCHEM_IUPAC_INCHIKEY>
PEZXEQJZQAVYCZ-GHVJWSGMSA-N

> <PUBCHEM_XLOGP3_AA>
5.8

> <PUBCHEM_EXACT_MASS>
663.374748

> <PUBCHEM_MOLECULAR_FORMULA>
C32H58NO11P

> <PUBCHEM_MOLECULAR_WEIGHT>
663.776782

> <PUBCHEM_OPENEYE_CAN_SMILES>
CCCCCCCCCCCCCCCC(=O)OCC(COP(=O)([O-])OCC[N+](C)(C)C)OC(=O)CCCC(=O)C=CC(=O)O

> <PUBCHEM_OPENEYE_ISO_SMILES>
CCCCCCCCCCCCCCCC(=O)OCC(COP(=O)([O-])OCC[N+](C)(C)C)OC(=O)CCCC(=O)/C=C/C(=O)O

> <PUBCHEM_CACTVS_TPSA>
166

> <PUBCHEM_MONOISOTOPIC_WEIGHT>
663.374748

> <PUBCHEM_TOTAL_CHARGE>
0

> <PUBCHEM_HEAVY_ATOM_COUNT>
45

> <PUBCHEM_ATOM_DEF_STEREO_COUNT>
0

> <PUBCHEM_ATOM_UDEF_STEREO_COUNT>
1

> <PUBCHEM_BOND_DEF_STEREO_COUNT>
1

> <PUBCHEM_BOND_UDEF_STEREO_COUNT>
0

> <PUBCHEM_ISOTOPIC_ATOM_COUNT>
0

> <PUBCHEM_COMPONENT_COUNT>
1

> <PUBCHEM_CACTVS_TAUTO_COUNT>
18

> <PUBCHEM_COORDINATE_TYPE>
1
5
255

> <PUBCHEM_BONDANNOTATIONS>
35  37  3

$$$$

