   Color/Form
        RHOMBIC CRYSTALS FROM ETHER, TETRAGONAL RHOMBIC CRYSTALS FROM
   WATER OR DIL ALCOHOL, CRYSTALS FROM ALCOHOL
   from [1]HSDB

   Taste
        BITTER, WITH SWEETISH AFTERTASTE
   from [2]HSDB

   Melting Point
        198 DEG C
   from [3]HSDB

   Dissociation Constants
        pKa = 4.98 at 20 deg C
   from [4]HSDB

   Solubilities
        AT 15 DEG C IN WATER 0.28 G/L; IN ALC 30.56 G/L; CHLOROFORM 5.08
   G/L; BENZENE 0.36 G/L; IN ACETONE 28.24 G/L; GLACIAL ACETIC ACID 152.12
   G/L; SOL IN SOLN OF ALKALI HYDROXIDES OR CARBONATES; IN ETHER 1.22 G/L
   from [5]HSDB

   Spectral Properties

     * Specific optical rotation: +37 deg @ 20 deg C/D (c= 0.6 in alc)
     * MAX ABSORPTION (65% SULFURIC ACID): 318 NM (LOG E= 4.16); 377.5 NM
       (LOG E= 2.71); SADTLER REF NUMBER: 722 (IR, PRISM)
     * IR: 3798 (Coblentz Society Spectral Collection)
     * UV: 3-953 (Organic Electronic Spectral Data, Phillips et al, John
       Wiley & Sons, New York)
     * MASS: 2168 (Atlas of Mass Spectral Data, John Wiley & Sons, New
       York)

   from [6]HSDB

   Other Chemical/Physical Properties

     * MP: 155-156 DEG C /METHYL ESTER/; MP: 162-163 DEG C /ETHYL ESTER/
     * NOT PRECIPITATED BY DIGITOXIN
     * CAPABLE TO FORM MOLECULAR CMPD /BILE ACIDS/
     * MONOHYDRATE PLATES FROM DILUTE ACETIC ACID

   from [7]HSDB

   Computed Properties
   Molecular Weight                  408.5714 [g/mol]
   Molecular Formula                 C[24]H[40]O[5]
   XLogP3-AA                         3.6
   H-Bond Donor                      4
   H-Bond Acceptor                   5
   Rotatable Bond Count              4
   Exact Mass                        408.287574
   MonoIsotopic Mass                 408.287574
   Topological Polar Surface Area    98
   Heavy Atom Count                  29
   Formal Charge                     0
   Complexity                        637
   Isotope Atom Count                0
   Defined Atom Stereocenter Count   11
   Undefined Atom Stereocenter Count 0
   Defined Bond Stereocenter Count   0
   Undefined Bond Stereocenter Count 0
   Covalently-Bonded Unit Count      1
   Feature 3D Acceptor Count         5
   Feature 3D Donor Count            3
   Feature 3D Anion Count            1
   Feature 3D Hydrophobe Count       1
   Feature 3D Ring Count             4
   Effective Rotor Count             6.2
   Conformer Sampling RMSD           0.8
   CID Conformer Count               [8]5

References

   1. http://toxnet.nlm.nih.gov/cgi-bin/sis/search/r?dbs+hsdb:@term+@rn+@rel+81-25-4
   2. http://toxnet.nlm.nih.gov/cgi-bin/sis/search/r?dbs+hsdb:@term+@rn+@rel+81-25-4
   3. http://toxnet.nlm.nih.gov/cgi-bin/sis/search/r?dbs+hsdb:@term+@rn+@rel+81-25-4
   4. http://toxnet.nlm.nih.gov/cgi-bin/sis/search/r?dbs+hsdb:@term+@rn+@rel+81-25-4
   5. http://toxnet.nlm.nih.gov/cgi-bin/sis/search/r?dbs+hsdb:@term+@rn+@rel+81-25-4
   6. http://toxnet.nlm.nih.gov/cgi-bin/sis/search/r?dbs+hsdb:@term+@rn+@rel+81-25-4
   7. http://toxnet.nlm.nih.gov/cgi-bin/sis/search/r?dbs+hsdb:@term+@rn+@rel+81-25-4
   8. http://pubchem.ncbi.nlm.nih.gov/vw3d/vw3d.cgi?cid=221493
