12921
  -OEChem-07051212552D

 55 55  0     0  0  0  0  0  0999 V2000
   15.8660    3.2811    0.0000 O   0  0  0  0  0  0  0  0  0  0  0  0
   14.3660    4.1471    0.0000 O   0  0  0  0  0  0  0  0  0  0  0  0
    8.0000   -0.6830    0.0000 C   0  0  0  0  0  0  0  0  0  0  0  0
    8.8660   -0.1830    0.0000 C   0  0  0  0  0  0  0  0  0  0  0  0
    8.0000    0.3170    0.0000 C   0  0  0  0  0  0  0  0  0  0  0  0
    7.5000   -1.5490    0.0000 C   0  0  0  0  0  0  0  0  0  0  0  0
    9.8660   -0.1830    0.0000 C   0  0  0  0  0  0  0  0  0  0  0  0
    6.5000   -1.5490    0.0000 C   0  0  0  0  0  0  0  0  0  0  0  0
   10.3660    0.6830    0.0000 C   0  0  0  0  0  0  0  0  0  0  0  0
    6.0000   -2.4151    0.0000 C   0  0  0  0  0  0  0  0  0  0  0  0
   11.3660    0.6830    0.0000 C   0  0  0  0  0  0  0  0  0  0  0  0
    5.0000   -2.4151    0.0000 C   0  0  0  0  0  0  0  0  0  0  0  0
   11.8660    1.5490    0.0000 C   0  0  0  0  0  0  0  0  0  0  0  0
    4.5000   -3.2811    0.0000 C   0  0  0  0  0  0  0  0  0  0  0  0
   12.8660    1.5490    0.0000 C   0  0  0  0  0  0  0  0  0  0  0  0
    3.5000   -3.2811    0.0000 C   0  0  0  0  0  0  0  0  0  0  0  0
   13.3660    2.4151    0.0000 C   0  0  0  0  0  0  0  0  0  0  0  0
    3.0000   -4.1471    0.0000 C   0  0  0  0  0  0  0  0  0  0  0  0
   14.3660    2.4151    0.0000 C   0  0  0  0  0  0  0  0  0  0  0  0
    2.0000   -4.1471    0.0000 C   0  0  0  0  0  0  0  0  0  0  0  0
   14.8660    3.2811    0.0000 C   0  0  0  0  0  0  0  0  0  0  0  0
    8.2120    0.8996    0.0000 H   0  0  0  0  0  0  0  0  0  0  0  0
    7.3894    0.4246    0.0000 H   0  0  0  0  0  0  0  0  0  0  0  0
    7.3923   -2.1596    0.0000 H   0  0  0  0  0  0  0  0  0  0  0  0
    8.0826   -1.7611    0.0000 H   0  0  0  0  0  0  0  0  0  0  0  0
    9.7584   -0.7936    0.0000 H   0  0  0  0  0  0  0  0  0  0  0  0
   10.4486   -0.3951    0.0000 H   0  0  0  0  0  0  0  0  0  0  0  0
    6.6077   -0.9385    0.0000 H   0  0  0  0  0  0  0  0  0  0  0  0
    5.9174   -1.3370    0.0000 H   0  0  0  0  0  0  0  0  0  0  0  0
   10.4737    1.2936    0.0000 H   0  0  0  0  0  0  0  0  0  0  0  0
    9.7834    0.8951    0.0000 H   0  0  0  0  0  0  0  0  0  0  0  0
    5.8923   -3.0256    0.0000 H   0  0  0  0  0  0  0  0  0  0  0  0
    6.5826   -2.6271    0.0000 H   0  0  0  0  0  0  0  0  0  0  0  0
   11.2584    0.0724    0.0000 H   0  0  0  0  0  0  0  0  0  0  0  0
   11.9486    0.4710    0.0000 H   0  0  0  0  0  0  0  0  0  0  0  0
    5.1077   -1.8045    0.0000 H   0  0  0  0  0  0  0  0  0  0  0  0
    4.4174   -2.2030    0.0000 H   0  0  0  0  0  0  0  0  0  0  0  0
   11.9737    2.1596    0.0000 H   0  0  0  0  0  0  0  0  0  0  0  0
   11.2834    1.7611    0.0000 H   0  0  0  0  0  0  0  0  0  0  0  0
    4.3923   -3.8917    0.0000 H   0  0  0  0  0  0  0  0  0  0  0  0
    5.0826   -3.4931    0.0000 H   0  0  0  0  0  0  0  0  0  0  0  0
   12.7584    0.9385    0.0000 H   0  0  0  0  0  0  0  0  0  0  0  0
   13.4486    1.3370    0.0000 H   0  0  0  0  0  0  0  0  0  0  0  0
    3.6077   -2.6705    0.0000 H   0  0  0  0  0  0  0  0  0  0  0  0
    2.9174   -3.0690    0.0000 H   0  0  0  0  0  0  0  0  0  0  0  0
   13.4737    3.0256    0.0000 H   0  0  0  0  0  0  0  0  0  0  0  0
   12.7834    2.6271    0.0000 H   0  0  0  0  0  0  0  0  0  0  0  0
    2.8923   -4.7577    0.0000 H   0  0  0  0  0  0  0  0  0  0  0  0
    3.5826   -4.3592    0.0000 H   0  0  0  0  0  0  0  0  0  0  0  0
   14.2584    1.8045    0.0000 H   0  0  0  0  0  0  0  0  0  0  0  0
   14.9486    2.2030    0.0000 H   0  0  0  0  0  0  0  0  0  0  0  0
    2.0000   -3.5271    0.0000 H   0  0  0  0  0  0  0  0  0  0  0  0
    1.3800   -4.1471    0.0000 H   0  0  0  0  0  0  0  0  0  0  0  0
    2.0000   -4.7671    0.0000 H   0  0  0  0  0  0  0  0  0  0  0  0
   16.1760    3.8180    0.0000 H   0  0  0  0  0  0  0  0  0  0  0  0
  1 21  1  0  0  0  0
  1 55  1  0  0  0  0
  2 21  2  0  0  0  0
  3  4  2  0  0  0  0
  3  5  1  0  0  0  0
  3  6  1  0  0  0  0
  4  5  1  0  0  0  0
  4  7  1  0  0  0  0
  5 22  1  0  0  0  0
  5 23  1  0  0  0  0
  6  8  1  0  0  0  0
  6 24  1  0  0  0  0
  6 25  1  0  0  0  0
  7  9  1  0  0  0  0
  7 26  1  0  0  0  0
  7 27  1  0  0  0  0
  8 10  1  0  0  0  0
  8 28  1  0  0  0  0
  8 29  1  0  0  0  0
  9 11  1  0  0  0  0
  9 30  1  0  0  0  0
  9 31  1  0  0  0  0
 10 12  1  0  0  0  0
 10 32  1  0  0  0  0
 10 33  1  0  0  0  0
 11 13  1  0  0  0  0
 11 34  1  0  0  0  0
 11 35  1  0  0  0  0
 12 14  1  0  0  0  0
 12 36  1  0  0  0  0
 12 37  1  0  0  0  0
 13 15  1  0  0  0  0
 13 38  1  0  0  0  0
 13 39  1  0  0  0  0
 14 16  1  0  0  0  0
 14 40  1  0  0  0  0
 14 41  1  0  0  0  0
 15 17  1  0  0  0  0
 15 42  1  0  0  0  0
 15 43  1  0  0  0  0
 16 18  1  0  0  0  0
 16 44  1  0  0  0  0
 16 45  1  0  0  0  0
 17 19  1  0  0  0  0
 17 46  1  0  0  0  0
 17 47  1  0  0  0  0
 18 20  1  0  0  0  0
 18 48  1  0  0  0  0
 18 49  1  0  0  0  0
 19 21  1  0  0  0  0
 19 50  1  0  0  0  0
 19 51  1  0  0  0  0
 20 52  1  0  0  0  0
 20 53  1  0  0  0  0
 20 54  1  0  0  0  0
M  END
> <PUBCHEM_COMPOUND_CID>
12921

> <PUBCHEM_COMPOUND_CANONICALIZED>
1

> <PUBCHEM_CACTVS_COMPLEXITY>
318

> <PUBCHEM_CACTVS_HBOND_ACCEPTOR>
2

> <PUBCHEM_CACTVS_HBOND_DONOR>
1

> <PUBCHEM_CACTVS_ROTATABLE_BOND>
15

> <PUBCHEM_CACTVS_SUBSKEYS>
AAADcfB4MAAAAAAAAAAAAAAAEAAAAAAAAAAAAAAAAAAAAAAAAAAAGgAACAAADACAgAACCAAAAgCIAgDQCAAAAAAgAAAACAEAAAgAABIAAAAAQAAEgAAIAAOIyKCAAAAAAAAAAAAAAAAAAAAAAAAAAAAAAA==

> <PUBCHEM_IUPAC_OPENEYE_NAME>
8-(2-octylcyclopropen-1-yl)octanoic acid

> <PUBCHEM_IUPAC_CAS_NAME>
8-(2-octyl-1-cyclopropenyl)octanoic acid

> <PUBCHEM_IUPAC_NAME>
8-(2-octylcyclopropen-1-yl)octanoic acid

> <PUBCHEM_IUPAC_SYSTEMATIC_NAME>
8-(2-octylcyclopropen-1-yl)octanoic acid

> <PUBCHEM_IUPAC_TRADITIONAL_NAME>
8-(2-octylcyclopropen-1-yl)caprylic acid

> <PUBCHEM_IUPAC_INCHI>
InChI=1S/C19H34O2/c1-2-3-4-5-7-10-13-17-16-18(17)14-11-8-6-9-12-15-19(20)21/h2-16H2,1H3,(H,20,21)

> <PUBCHEM_IUPAC_INCHIKEY>
PQRKPYLNZGDCFH-UHFFFAOYSA-N

> <PUBCHEM_XLOGP3>
5.8

> <PUBCHEM_EXACT_MASS>
294.25588

> <PUBCHEM_MOLECULAR_FORMULA>
C19H34O2

> <PUBCHEM_MOLECULAR_WEIGHT>
294.47206

> <PUBCHEM_OPENEYE_CAN_SMILES>
CCCCCCCCC1=C(C1)CCCCCCCC(=O)O

> <PUBCHEM_OPENEYE_ISO_SMILES>
CCCCCCCCC1=C(C1)CCCCCCCC(=O)O

> <PUBCHEM_CACTVS_TPSA>
37.3

> <PUBCHEM_MONOISOTOPIC_WEIGHT>
294.25588

> <PUBCHEM_TOTAL_CHARGE>
0

> <PUBCHEM_HEAVY_ATOM_COUNT>
21

> <PUBCHEM_ATOM_DEF_STEREO_COUNT>
0

> <PUBCHEM_ATOM_UDEF_STEREO_COUNT>
0

> <PUBCHEM_BOND_DEF_STEREO_COUNT>
0

> <PUBCHEM_BOND_UDEF_STEREO_COUNT>
0

> <PUBCHEM_ISOTOPIC_ATOM_COUNT>
0

> <PUBCHEM_COMPONENT_COUNT>
1

> <PUBCHEM_CACTVS_TAUTO_COUNT>
1

> <PUBCHEM_COORDINATE_TYPE>
1
5
255

$$$$

