   Color/Form
        Clear, colorless liquid
   from [1]HSDB

   Odor

     * Odor of lavender
     * Sweet, fruity-floral, rosy, somewhat green and remotely
       Lavender-like odor of moderate tenacity.
     * Sweet, fragrant odor

   from [2]HSDB

   Taste

     * Taste threshold values: Taste characteristics at 20 ppm: Green,
       floral, fruity with a citrus nuance
     * Sweet, fruity, overall nondescript taste with notes resembling
       those of banana, pear, apple and peach, but not a purely sweet
       aftertaste.

   from [3]HSDB

   Boiling Point
        Approx. 242 deg C with decomposition.
   from [4]HSDB

   Density/Specific Gravity
        0.9174 at 15 deg C/15 deg C
   from [5]HSDB

   Octanol/Water Partition Coefficient
        log Kow = 4.04
   from [6]HSDB

   Solubilities

     * 1.8 IN 70% ALCOHOL; SOL IN MOST ORG SOLVENTS
     * Soluble in most fixed oils; slightly soluble in propylene glycol.
     * Solubility in alcohol: 1 mL in 9 mL 70% alcohol
     * Insoluble in glycerol; soluble in alcohol, ether
     * MISCIBLE WITH ETHER
     * In water, 6.8 mg/L at 25 deg C (est)

   from [7]HSDB

   Spectral Properties

     * INDEX OF REFRACTION: 1.4580-1.4640 AT 20 DEG C; 1.4570-1.4620
     * Index of refraction = 1.4624 at 20 deg C
     * Specific optical rotation: -2 ro +2 degrees
     * IR: 6944 (Coblentz Society Spectral Collection)
     * NMR: 4240 (Sadtler Research Laboratories Spectral Collection)
     * MASS: 1378 (Atlas of Mass Spectral Data, John Wiley & Sons, New
       York)

   from [8]HSDB

   Vapor Pressure
        3.3X10-2 mm Hg at 25 deg C (est)
   from [9]HSDB

   Other Chemical/Physical Properties

     * ASSAY: 90% MIN; 92% (85% TECHNICAL)
     * Henry's Law constant = 2.42X10-3 atm-cu m/mol at 25 deg C (est)
     * Hydroxyl radical reaction rate constant = 1.78X10-10 cu
       cm/molec-sec at 25 deg C (est)

   from [10]HSDB

   Computed Properties
   Molecular Weight                  196.286 [g/mol]
   Molecular Formula                 C[12]H[20]O[2]
   XLogP3-AA                         3.5
   H-Bond Donor                      0
   H-Bond Acceptor                   2
   Rotatable Bond Count              6
   Exact Mass                        196.14633
   MonoIsotopic Mass                 196.14633
   Topological Polar Surface Area    26.3
   Heavy Atom Count                  14
   Formal Charge                     0
   Complexity                        233
   Isotope Atom Count                0
   Defined Atom Stereocenter Count   0
   Undefined Atom Stereocenter Count 0
   Defined Bond Stereocenter Count   1
   Undefined Bond Stereocenter Count 0
   Covalently-Bonded Unit Count      1
   Feature 3D Acceptor Count         1
   Feature 3D Hydrophobe Count       3
   Effective Rotor Count             6
   Conformer Sampling RMSD           0.8
   CID Conformer Count               [11]262

References

   1. http://toxnet.nlm.nih.gov/cgi-bin/sis/search/r?dbs+hsdb:@term+@rn+@rel+105-87-3
   2. http://toxnet.nlm.nih.gov/cgi-bin/sis/search/r?dbs+hsdb:@term+@rn+@rel+105-87-3
   3. http://toxnet.nlm.nih.gov/cgi-bin/sis/search/r?dbs+hsdb:@term+@rn+@rel+105-87-3
   4. http://toxnet.nlm.nih.gov/cgi-bin/sis/search/r?dbs+hsdb:@term+@rn+@rel+105-87-3
   5. http://toxnet.nlm.nih.gov/cgi-bin/sis/search/r?dbs+hsdb:@term+@rn+@rel+105-87-3
   6. http://toxnet.nlm.nih.gov/cgi-bin/sis/search/r?dbs+hsdb:@term+@rn+@rel+105-87-3
   7. http://toxnet.nlm.nih.gov/cgi-bin/sis/search/r?dbs+hsdb:@term+@rn+@rel+105-87-3
   8. http://toxnet.nlm.nih.gov/cgi-bin/sis/search/r?dbs+hsdb:@term+@rn+@rel+105-87-3
   9. http://toxnet.nlm.nih.gov/cgi-bin/sis/search/r?dbs+hsdb:@term+@rn+@rel+105-87-3
  10. http://toxnet.nlm.nih.gov/cgi-bin/sis/search/r?dbs+hsdb:@term+@rn+@rel+105-87-3
  11. http://pubchem.ncbi.nlm.nih.gov/vw3d/vw3d.cgi?cid=1549026
