3897
  -OEChem-06251223452D

 87 89  0     1  0  0  0  0  0999 V2000
    6.9350    2.6518    0.0000 O   0  0  0  0  0  0  0  0  0  0  0  0
    4.5905    0.2032    0.0000 O   0  0  0  0  0  0  0  0  0  0  0  0
    6.5856   -2.3841    0.0000 O   0  0  0  0  0  0  0  0  0  0  0  0
    4.5981   -2.4992    0.0000 O   0  0  0  0  0  0  0  0  0  0  0  0
    6.8216    0.9499    0.0000 O   0  0  0  0  0  0  0  0  0  0  0  0
    5.2082    0.6656    0.0000 O   0  0  0  0  0  0  0  0  0  0  0  0
    7.9128   -0.1628    0.0000 C   0  0  3  0  0  0  0  0  0  0  0  0
    9.6175   -1.2074    0.0000 C   0  0  0  0  0  0  0  0  0  0  0  0
   10.3946   -0.5781    0.0000 C   0  0  3  0  0  0  0  0  0  0  0  0
    8.1716    0.8031    0.0000 C   0  0  3  0  0  0  0  0  0  0  0  0
   10.0363    0.3554    0.0000 C   0  0  0  0  0  0  0  0  0  0  0  0
    7.4350    1.7857    0.0000 C   0  0  0  0  0  0  0  0  0  0  0  0
    7.3393   -0.9820    0.0000 C   0  0  3  0  0  0  0  0  0  0  0  0
    6.3776   -1.4060    0.0000 C   0  0  0  0  0  0  0  0  0  0  0  0
   10.1621   -2.0461    0.0000 C   0  0  0  0  0  0  0  0  0  0  0  0
    9.4957   -2.2000    0.0000 C   0  0  0  0  0  0  0  0  0  0  0  0
    5.5686   -0.0047    0.0000 C   0  0  0  0  0  0  0  0  0  0  0  0
   11.3606   -0.8370    0.0000 C   0  0  0  0  0  0  0  0  0  0  0  0
    8.4304    1.7690    0.0000 C   0  0  0  0  0  0  0  0  0  0  0  0
    5.4641   -0.9992    0.0000 C   0  0  0  0  0  0  0  0  0  0  0  0
    6.3733   -0.7231    0.0000 C   0  0  0  0  0  0  0  0  0  0  0  0
    7.7618   -1.8883    0.0000 C   0  0  0  0  0  0  0  0  0  0  0  0
   12.0677   -0.1298    0.0000 C   0  0  0  0  0  0  0  0  0  0  0  0
    9.3964    2.0279    0.0000 C   0  0  0  0  0  0  0  0  0  0  0  0
    4.5981   -1.4992    0.0000 C   0  0  0  0  0  0  0  0  0  0  0  0
    6.1145    0.2429    0.0000 C   0  0  0  0  0  0  0  0  0  0  0  0
    7.1883   -2.7074    0.0000 C   0  0  0  0  0  0  0  0  0  0  0  0
    8.7580   -1.9754    0.0000 C   0  0  0  0  0  0  0  0  0  0  0  0
    3.7320   -0.9992    0.0000 C   0  0  0  0  0  0  0  0  0  0  0  0
   13.0336   -0.3887    0.0000 C   0  0  0  0  0  0  0  0  0  0  0  0
    9.6552    2.9938    0.0000 C   0  0  0  0  0  0  0  0  0  0  0  0
    7.6109   -3.6137    0.0000 C   0  0  0  0  0  0  0  0  0  0  0  0
    9.1807   -2.8817    0.0000 C   0  0  0  0  0  0  0  0  0  0  0  0
    2.8660   -1.4992    0.0000 C   0  0  0  0  0  0  0  0  0  0  0  0
    8.6071   -3.7009    0.0000 C   0  0  0  0  0  0  0  0  0  0  0  0
   13.7407    0.3184    0.0000 C   0  0  0  0  0  0  0  0  0  0  0  0
   13.2924   -1.3546    0.0000 C   0  0  0  0  0  0  0  0  0  0  0  0
   10.6211    3.2526    0.0000 C   0  0  0  0  0  0  0  0  0  0  0  0
    8.9481    3.7009    0.0000 C   0  0  0  0  0  0  0  0  0  0  0  0
    2.0000   -0.9992    0.0000 C   0  0  0  0  0  0  0  0  0  0  0  0
    2.8660   -2.4992    0.0000 C   0  0  0  0  0  0  0  0  0  0  0  0
   10.8095   -0.1174    0.0000 H   0  0  0  0  0  0  0  0  0  0  0  0
   10.6478    0.4578    0.0000 H   0  0  0  0  0  0  0  0  0  0  0  0
   10.0579    0.9751    0.0000 H   0  0  0  0  0  0  0  0  0  0  0  0
    6.9407   -1.4569    0.0000 H   0  0  0  0  0  0  0  0  0  0  0  0
    8.8803   -2.1245    0.0000 H   0  0  0  0  0  0  0  0  0  0  0  0
    9.4201   -2.8154    0.0000 H   0  0  0  0  0  0  0  0  0  0  0  0
   10.1111   -2.2755    0.0000 H   0  0  0  0  0  0  0  0  0  0  0  0
    9.6422   -2.3838    0.0000 H   0  0  0  0  0  0  0  0  0  0  0  0
   10.4998   -2.5661    0.0000 H   0  0  0  0  0  0  0  0  0  0  0  0
   10.6821   -1.7084    0.0000 H   0  0  0  0  0  0  0  0  0  0  0  0
   11.0985   -1.3989    0.0000 H   0  0  0  0  0  0  0  0  0  0  0  0
   11.8684   -1.1926    0.0000 H   0  0  0  0  0  0  0  0  0  0  0  0
    8.3764    2.3867    0.0000 H   0  0  0  0  0  0  0  0  0  0  0  0
    7.8128    1.8231    0.0000 H   0  0  0  0  0  0  0  0  0  0  0  0
    5.7557   -0.7772    0.0000 H   0  0  0  0  0  0  0  0  0  0  0  0
    6.3192   -1.3408    0.0000 H   0  0  0  0  0  0  0  0  0  0  0  0
   11.9072    0.4690    0.0000 H   0  0  0  0  0  0  0  0  0  0  0  0
    9.8348    1.5894    0.0000 H   0  0  0  0  0  0  0  0  0  0  0  0
    4.3989    0.7929    0.0000 H   0  0  0  0  0  0  0  0  0  0  0  0
    6.5706   -2.6534    0.0000 H   0  0  0  0  0  0  0  0  0  0  0  0
    9.1137   -1.4676    0.0000 H   0  0  0  0  0  0  0  0  0  0  0  0
    4.1306   -0.5243    0.0000 H   0  0  0  0  0  0  0  0  0  0  0  0
    3.3335   -0.5243    0.0000 H   0  0  0  0  0  0  0  0  0  0  0  0
    7.2553   -4.1216    0.0000 H   0  0  0  0  0  0  0  0  0  0  0  0
    9.7983   -2.9358    0.0000 H   0  0  0  0  0  0  0  0  0  0  0  0
    2.8660   -0.8792    0.0000 H   0  0  0  0  0  0  0  0  0  0  0  0
    8.8691   -4.2628    0.0000 H   0  0  0  0  0  0  0  0  0  0  0  0
   12.6935   -1.5151    0.0000 H   0  0  0  0  0  0  0  0  0  0  0  0
   13.4529   -1.9535    0.0000 H   0  0  0  0  0  0  0  0  0  0  0  0
   13.8913   -1.1941    0.0000 H   0  0  0  0  0  0  0  0  0  0  0  0
   14.1791   -0.1200    0.0000 H   0  0  0  0  0  0  0  0  0  0  0  0
   14.1791    0.7568    0.0000 H   0  0  0  0  0  0  0  0  0  0  0  0
   13.3023    0.7568    0.0000 H   0  0  0  0  0  0  0  0  0  0  0  0
    9.3865    4.1393    0.0000 H   0  0  0  0  0  0  0  0  0  0  0  0
    8.5097    4.1393    0.0000 H   0  0  0  0  0  0  0  0  0  0  0  0
    8.5097    3.2625    0.0000 H   0  0  0  0  0  0  0  0  0  0  0  0
   10.7816    2.6537    0.0000 H   0  0  0  0  0  0  0  0  0  0  0  0
   11.2200    3.4131    0.0000 H   0  0  0  0  0  0  0  0  0  0  0  0
   10.4606    3.8515    0.0000 H   0  0  0  0  0  0  0  0  0  0  0  0
    6.6611    1.5488    0.0000 H   0  0  0  0  0  0  0  0  0  0  0  0
    2.2460   -2.4992    0.0000 H   0  0  0  0  0  0  0  0  0  0  0  0
    2.8660   -3.1192    0.0000 H   0  0  0  0  0  0  0  0  0  0  0  0
    3.4860   -2.4992    0.0000 H   0  0  0  0  0  0  0  0  0  0  0  0
    2.3100   -0.4623    0.0000 H   0  0  0  0  0  0  0  0  0  0  0  0
    1.4631   -0.6892    0.0000 H   0  0  0  0  0  0  0  0  0  0  0  0
    1.6900   -1.5362    0.0000 H   0  0  0  0  0  0  0  0  0  0  0  0
  1 12  2  0  0  0  0
  2 17  1  0  0  0  0
  2 60  1  0  0  0  0
  3 14  2  0  0  0  0
  4 25  2  0  0  0  0
  5 26  1  0  0  0  0
  5 81  1  0  0  0  0
  6 26  2  0  0  0  0
  7  8  1  0  0  0  0
  7 12  1  0  0  0  0
  7 13  1  0  0  0  0
  7 14  1  0  0  0  0
  8  9  1  0  0  0  0
  8 15  1  0  0  0  0
  8 16  1  0  0  0  0
  9 11  1  0  0  0  0
  9 18  1  0  0  0  0
  9 42  1  0  0  0  0
 10 11  1  0  0  0  0
 10 12  1  0  0  0  0
 10 17  1  0  0  0  0
 10 19  1  0  0  0  0
 11 43  1  0  0  0  0
 11 44  1  0  0  0  0
 13 21  1  0  0  0  0
 13 22  1  0  0  0  0
 13 45  1  0  0  0  0
 14 20  1  0  0  0  0
 15 49  1  0  0  0  0
 15 50  1  0  0  0  0
 15 51  1  0  0  0  0
 16 46  1  0  0  0  0
 16 47  1  0  0  0  0
 16 48  1  0  0  0  0
 17 20  2  0  0  0  0
 18 23  1  0  0  0  0
 18 52  1  0  0  0  0
 18 53  1  0  0  0  0
 19 24  1  0  0  0  0
 19 54  1  0  0  0  0
 19 55  1  0  0  0  0
 20 25  1  0  0  0  0
 21 26  1  0  0  0  0
 21 56  1  0  0  0  0
 21 57  1  0  0  0  0
 22 27  2  0  0  0  0
 22 28  1  0  0  0  0
 23 30  2  0  0  0  0
 23 58  1  0  0  0  0
 24 31  2  0  0  0  0
 24 59  1  0  0  0  0
 25 29  1  0  0  0  0
 27 32  1  0  0  0  0
 27 61  1  0  0  0  0
 28 33  2  0  0  0  0
 28 62  1  0  0  0  0
 29 34  1  0  0  0  0
 29 63  1  0  0  0  0
 29 64  1  0  0  0  0
 30 36  1  0  0  0  0
 30 37  1  0  0  0  0
 31 38  1  0  0  0  0
 31 39  1  0  0  0  0
 32 35  2  0  0  0  0
 32 65  1  0  0  0  0
 33 35  1  0  0  0  0
 33 66  1  0  0  0  0
 34 40  1  0  0  0  0
 34 41  1  0  0  0  0
 34 67  1  0  0  0  0
 35 68  1  0  0  0  0
 36 72  1  0  0  0  0
 36 73  1  0  0  0  0
 36 74  1  0  0  0  0
 37 69  1  0  0  0  0
 37 70  1  0  0  0  0
 37 71  1  0  0  0  0
 38 78  1  0  0  0  0
 38 79  1  0  0  0  0
 38 80  1  0  0  0  0
 39 75  1  0  0  0  0
 39 76  1  0  0  0  0
 39 77  1  0  0  0  0
 40 85  1  0  0  0  0
 40 86  1  0  0  0  0
 40 87  1  0  0  0  0
 41 82  1  0  0  0  0
 41 83  1  0  0  0  0
 41 84  1  0  0  0  0
M  END
> <PUBCHEM_COMPOUND_CID>
3897

> <PUBCHEM_COMPOUND_CANONICALIZED>
1

> <PUBCHEM_CACTVS_COMPLEXITY>
1150

> <PUBCHEM_CACTVS_HBOND_ACCEPTOR>
6

> <PUBCHEM_CACTVS_HBOND_DONOR>
2

> <PUBCHEM_CACTVS_ROTATABLE_BOND>
11

> <PUBCHEM_CACTVS_SUBSKEYS>
AAADcfB8OAAAAAAAAAAAAAAAAAAAAAAAAAAwYIAAAAAQAAABAAAAGgAACAAADwSAmAAyCIAAAgCIAqDSCAACAAAgIAAIiAEAAMgIIDaIERCAYAAkoAAIiQeIzvCvgAAAAAAAAACAAAQAACAAAAAAAAAAAA==

> <PUBCHEM_IUPAC_OPENEYE_NAME>
3-[2-hydroxy-6,6-dimethyl-3-(3-methylbutanoyl)-1,7-bis(3-methylbut-2-enyl)-4,9-dioxo-5-bicyclo[3.3.1]non-2-enyl]-3-phenyl-propanoic acid

> <PUBCHEM_IUPAC_CAS_NAME>
3-[2-hydroxy-6,6-dimethyl-1,7-bis(3-methylbut-2-enyl)-3-(3-methyl-1-oxobutyl)-4,9-dioxo-5-bicyclo[3.3.1]non-2-enyl]-3-phenylpropanoic acid

> <PUBCHEM_IUPAC_NAME>
3-[2-hydroxy-6,6-dimethyl-3-(3-methylbutanoyl)-1,7-bis(3-methylbut-2-enyl)-4,9-dioxo-5-bicyclo[3.3.1]non-2-enyl]-3-phenylpropanoic acid

> <PUBCHEM_IUPAC_SYSTEMATIC_NAME>
3-[6,6-dimethyl-3-(3-methylbutanoyl)-1,7-bis(3-methylbut-2-enyl)-2-oxidanyl-4,9-bis(oxidanylidene)-5-bicyclo[3.3.1]non-2-enyl]-3-phenyl-propanoic acid

> <PUBCHEM_IUPAC_TRADITIONAL_NAME>
3-[2-hydroxy-3-isovaleryl-4,9-diketo-6,6-dimethyl-1,7-bis(3-methylbut-2-enyl)-5-bicyclo[3.3.1]non-2-enyl]-3-phenyl-propionic acid

> <PUBCHEM_IUPAC_INCHI>
InChI=1S/C35H46O6/c1-21(2)14-15-25-20-34(17-16-22(3)4)30(39)29(27(36)18-23(5)6)31(40)35(32(34)41,33(25,7)8)26(19-28(37)38)24-12-10-9-11-13-24/h9-14,16,23,25-26,39H,15,17-20H2,1-8H3,(H,37,38)

> <PUBCHEM_IUPAC_INCHIKEY>
NOURDCRRJHGPSF-UHFFFAOYSA-N

> <PUBCHEM_XLOGP3_AA>
7.7

> <PUBCHEM_EXACT_MASS>
562.329439

> <PUBCHEM_MOLECULAR_FORMULA>
C35H46O6

> <PUBCHEM_MOLECULAR_WEIGHT>
562.73614

> <PUBCHEM_OPENEYE_CAN_SMILES>
CC(C)CC(=O)C1=C(C2(CC(C(C(C1=O)(C2=O)C(CC(=O)O)C3=CC=CC=C3)(C)C)CC=C(C)C)CC=C(C)C)O

> <PUBCHEM_OPENEYE_ISO_SMILES>
CC(C)CC(=O)C1=C(C2(CC(C(C(C1=O)(C2=O)C(CC(=O)O)C3=CC=CC=C3)(C)C)CC=C(C)C)CC=C(C)C)O

> <PUBCHEM_CACTVS_TPSA>
109

> <PUBCHEM_MONOISOTOPIC_WEIGHT>
562.329439

> <PUBCHEM_TOTAL_CHARGE>
0

> <PUBCHEM_HEAVY_ATOM_COUNT>
41

> <PUBCHEM_ATOM_DEF_STEREO_COUNT>
0

> <PUBCHEM_ATOM_UDEF_STEREO_COUNT>
4

> <PUBCHEM_BOND_DEF_STEREO_COUNT>
0

> <PUBCHEM_BOND_UDEF_STEREO_COUNT>
0

> <PUBCHEM_ISOTOPIC_ATOM_COUNT>
0

> <PUBCHEM_COMPONENT_COUNT>
1

> <PUBCHEM_CACTVS_TAUTO_COUNT>
7

> <PUBCHEM_COORDINATE_TYPE>
1
5
255

> <PUBCHEM_BONDANNOTATIONS>
10  19  3
13  21  3
22  27  8
22  28  8
27  32  8
28  33  8
32  35  8
33  35  8
7  14  3
9  18  3

$$$$

