17396479
  -OEChem-06241222562D

 40 42  0     1  0  0  0  0  0999 V2000
    3.6180   -2.5684    0.0000 O   0  0  0  0  0  0  0  0  0  0  0  0
    3.6750    2.5194    0.0000 O   0  0  0  0  0  0  0  0  0  0  0  0
    2.8090    1.0194    0.0000 O   0  0  0  0  0  0  0  0  0  0  0  0
    3.6750   -0.4806    0.0000 N   0  0  0  0  0  0  0  0  0  0  0  0
    2.8090   -1.9806    0.0000 C   0  0  3  0  0  0  0  0  0  0  0  0
    2.0000   -2.5684    0.0000 C   0  0  0  0  0  0  0  0  0  0  0  0
    2.3090   -3.5194    0.0000 C   0  0  0  0  0  0  0  0  0  0  0  0
    3.3090   -3.5194    0.0000 C   0  0  0  0  0  0  0  0  0  0  0  0
    2.8090   -0.9806    0.0000 C   0  0  0  0  0  0  0  0  0  0  0  0
    3.6750    0.5194    0.0000 C   0  0  0  0  0  0  0  0  0  0  0  0
    4.5411    1.0194    0.0000 C   0  0  0  0  0  0  0  0  0  0  0  0
    6.2731    1.0194    0.0000 C   0  0  0  0  0  0  0  0  0  0  0  0
    5.4071    0.5194    0.0000 C   0  0  0  0  0  0  0  0  0  0  0  0
    4.5411    2.0194    0.0000 C   0  0  0  0  0  0  0  0  0  0  0  0
    6.2731    2.0194    0.0000 C   0  0  0  0  0  0  0  0  0  0  0  0
    5.4071    2.5194    0.0000 C   0  0  0  0  0  0  0  0  0  0  0  0
    7.1671    0.4848    0.0000 C   0  0  0  0  0  0  0  0  0  0  0  0
    7.1671    2.5541    0.0000 C   0  0  0  0  0  0  0  0  0  0  0  0
    8.0731    0.9986    0.0000 C   0  0  0  0  0  0  0  0  0  0  0  0
    8.0731    2.0402    0.0000 C   0  0  0  0  0  0  0  0  0  0  0  0
    3.6750    3.5194    0.0000 C   0  0  0  0  0  0  0  0  0  0  0  0
    3.3614   -1.6991    0.0000 H   0  0  0  0  0  0  0  0  0  0  0  0
    1.6900   -2.0314    0.0000 H   0  0  0  0  0  0  0  0  0  0  0  0
    1.4336   -2.8205    0.0000 H   0  0  0  0  0  0  0  0  0  0  0  0
    1.7026   -3.6483    0.0000 H   0  0  0  0  0  0  0  0  0  0  0  0
    2.3738   -4.1360    0.0000 H   0  0  0  0  0  0  0  0  0  0  0  0
    3.2442   -4.1360    0.0000 H   0  0  0  0  0  0  0  0  0  0  0  0
    3.9155   -3.6483    0.0000 H   0  0  0  0  0  0  0  0  0  0  0  0
    2.5970   -0.3980    0.0000 H   0  0  0  0  0  0  0  0  0  0  0  0
    2.1984   -1.0882    0.0000 H   0  0  0  0  0  0  0  0  0  0  0  0
    4.2120   -0.7906    0.0000 H   0  0  0  0  0  0  0  0  0  0  0  0
    5.4071   -0.1006    0.0000 H   0  0  0  0  0  0  0  0  0  0  0  0
    5.4071    3.1394    0.0000 H   0  0  0  0  0  0  0  0  0  0  0  0
    7.1599   -0.1352    0.0000 H   0  0  0  0  0  0  0  0  0  0  0  0
    7.1599    3.1740    0.0000 H   0  0  0  0  0  0  0  0  0  0  0  0
    8.6089    0.6865    0.0000 H   0  0  0  0  0  0  0  0  0  0  0  0
    8.6089    2.3523    0.0000 H   0  0  0  0  0  0  0  0  0  0  0  0
    4.2950    3.5194    0.0000 H   0  0  0  0  0  0  0  0  0  0  0  0
    3.6750    4.1394    0.0000 H   0  0  0  0  0  0  0  0  0  0  0  0
    3.0550    3.5194    0.0000 H   0  0  0  0  0  0  0  0  0  0  0  0
  1  5  1  0  0  0  0
  1  8  1  0  0  0  0
  2 14  1  0  0  0  0
  2 21  1  0  0  0  0
  3 10  2  0  0  0  0
  4  9  1  0  0  0  0
  4 10  1  0  0  0  0
  4 31  1  0  0  0  0
  5  6  1  0  0  0  0
  5  9  1  0  0  0  0
  5 22  1  0  0  0  0
  6  7  1  0  0  0  0
  6 23  1  0  0  0  0
  6 24  1  0  0  0  0
  7  8  1  0  0  0  0
  7 25  1  0  0  0  0
  7 26  1  0  0  0  0
  8 27  1  0  0  0  0
  8 28  1  0  0  0  0
  9 29  1  0  0  0  0
  9 30  1  0  0  0  0
 10 11  1  0  0  0  0
 11 13  2  0  0  0  0
 11 14  1  0  0  0  0
 12 13  1  0  0  0  0
 12 15  1  0  0  0  0
 12 17  2  0  0  0  0
 13 32  1  0  0  0  0
 14 16  2  0  0  0  0
 15 16  1  0  0  0  0
 15 18  2  0  0  0  0
 16 33  1  0  0  0  0
 17 19  1  0  0  0  0
 17 34  1  0  0  0  0
 18 20  1  0  0  0  0
 18 35  1  0  0  0  0
 19 20  2  0  0  0  0
 19 36  1  0  0  0  0
 20 37  1  0  0  0  0
 21 38  1  0  0  0  0
 21 39  1  0  0  0  0
 21 40  1  0  0  0  0
M  END
> <PUBCHEM_COMPOUND_CID>
17396479

> <PUBCHEM_COMPOUND_CANONICALIZED>
1

> <PUBCHEM_CACTVS_COMPLEXITY>
360

> <PUBCHEM_CACTVS_HBOND_ACCEPTOR>
3

> <PUBCHEM_CACTVS_HBOND_DONOR>
1

> <PUBCHEM_CACTVS_ROTATABLE_BOND>
4

> <PUBCHEM_CACTVS_SUBSKEYS>
AAADceB6MAAAAAAAAAAAAAAAAAAAASAAAAAwYAAAAAAAAADBUAAAHgAQAAAADBThmAYyBsLABACIAiFSEACCCAAkIAAIiIEODMgOJjaEtRuHMWhm9hGYqYeY2PKO4AADAAAYAADAAAYAADAAAAAAAAAAAA==

> <PUBCHEM_IUPAC_OPENEYE_NAME>
3-methoxy-N-(tetrahydrofuran-2-ylmethyl)naphthalene-2-carboxamide

> <PUBCHEM_IUPAC_CAS_NAME>
3-methoxy-N-(2-oxolanylmethyl)-2-naphthalenecarboxamide

> <PUBCHEM_IUPAC_NAME>
3-methoxy-N-(oxolan-2-ylmethyl)naphthalene-2-carboxamide

> <PUBCHEM_IUPAC_SYSTEMATIC_NAME>
3-methoxy-N-(oxolan-2-ylmethyl)naphthalene-2-carboxamide

> <PUBCHEM_IUPAC_TRADITIONAL_NAME>
3-methoxy-N-(tetrahydrofurfuryl)-2-naphthamide

> <PUBCHEM_IUPAC_INCHI>
InChI=1S/C17H19NO3/c1-20-16-10-13-6-3-2-5-12(13)9-15(16)17(19)18-11-14-7-4-8-21-14/h2-3,5-6,9-10,14H,4,7-8,11H2,1H3,(H,18,19)

> <PUBCHEM_IUPAC_INCHIKEY>
OPSFEATVFPIRNP-UHFFFAOYSA-N

> <PUBCHEM_XLOGP3_AA>
2.8

> <PUBCHEM_EXACT_MASS>
285.136493

> <PUBCHEM_MOLECULAR_FORMULA>
C17H19NO3

> <PUBCHEM_MOLECULAR_WEIGHT>
285.33766

> <PUBCHEM_OPENEYE_CAN_SMILES>
COC1=CC2=CC=CC=C2C=C1C(=O)NCC3CCCO3

> <PUBCHEM_OPENEYE_ISO_SMILES>
COC1=CC2=CC=CC=C2C=C1C(=O)NCC3CCCO3

> <PUBCHEM_CACTVS_TPSA>
47.6

> <PUBCHEM_MONOISOTOPIC_WEIGHT>
285.136493

> <PUBCHEM_TOTAL_CHARGE>
0

> <PUBCHEM_HEAVY_ATOM_COUNT>
21

> <PUBCHEM_ATOM_DEF_STEREO_COUNT>
0

> <PUBCHEM_ATOM_UDEF_STEREO_COUNT>
1

> <PUBCHEM_BOND_DEF_STEREO_COUNT>
0

> <PUBCHEM_BOND_UDEF_STEREO_COUNT>
0

> <PUBCHEM_ISOTOPIC_ATOM_COUNT>
0

> <PUBCHEM_COMPONENT_COUNT>
1

> <PUBCHEM_CACTVS_TAUTO_COUNT>
2

> <PUBCHEM_COORDINATE_TYPE>
1
5
255

> <PUBCHEM_BONDANNOTATIONS>
11  13  8
11  14  8
12  13  8
12  15  8
12  17  8
14  16  8
15  16  8
15  18  8
17  19  8
18  20  8
19  20  8
5  9  3

$$$$

