9576097
  -OEChem-07051213132D

 38 38  0     0  0  0  0  0  0999 V2000
    6.3301    0.0670    0.0000 S   0  0  0  0  0  0  0  0  0  0  0  0
    2.8660    0.0670    0.0000 O   0  0  0  0  0  0  0  0  0  0  0  0
    4.5981    0.0670    0.0000 N   0  0  0  0  0  0  0  0  0  0  0  0
    4.5981    2.0670    0.0000 N   0  0  0  0  0  0  0  0  0  0  0  0
    4.5981   -0.9330    0.0000 N   0  0  0  0  0  0  0  0  0  0  0  0
    5.4641    1.5670    0.0000 N   0  0  0  0  0  0  0  0  0  0  0  0
    2.8660    2.0670    0.0000 C   0  0  0  0  0  0  0  0  0  0  0  0
    3.7320    1.5670    0.0000 C   0  0  0  0  0  0  0  0  0  0  0  0
    2.0000    2.5670    0.0000 C   0  0  0  0  0  0  0  0  0  0  0  0
    3.3660    2.9330    0.0000 C   0  0  0  0  0  0  0  0  0  0  0  0
    2.3660    1.2010    0.0000 C   0  0  0  0  0  0  0  0  0  0  0  0
    3.7320    0.5670    0.0000 C   0  0  0  0  0  0  0  0  0  0  0  0
    5.4641   -2.4330    0.0000 C   0  0  0  0  0  0  0  0  0  0  0  0
    5.4641    0.5670    0.0000 C   0  0  0  0  0  0  0  0  0  0  0  0
    5.4641   -1.4330    0.0000 C   0  0  0  0  0  0  0  0  0  0  0  0
    6.3301   -2.9330    0.0000 C   0  0  0  0  0  0  0  0  0  0  0  0
    4.5981   -2.9330    0.0000 C   0  0  0  0  0  0  0  0  0  0  0  0
    7.1962    0.5670    0.0000 C   0  0  0  0  0  0  0  0  0  0  0  0
    2.3100    3.1039    0.0000 H   0  0  0  0  0  0  0  0  0  0  0  0
    1.4631    2.8770    0.0000 H   0  0  0  0  0  0  0  0  0  0  0  0
    1.6900    2.0300    0.0000 H   0  0  0  0  0  0  0  0  0  0  0  0
    3.9030    2.6230    0.0000 H   0  0  0  0  0  0  0  0  0  0  0  0
    3.6760    3.4700    0.0000 H   0  0  0  0  0  0  0  0  0  0  0  0
    2.8291    3.2430    0.0000 H   0  0  0  0  0  0  0  0  0  0  0  0
    1.8291    1.5110    0.0000 H   0  0  0  0  0  0  0  0  0  0  0  0
    2.0560    0.6640    0.0000 H   0  0  0  0  0  0  0  0  0  0  0  0
    2.9030    0.8910    0.0000 H   0  0  0  0  0  0  0  0  0  0  0  0
    5.4641   -3.0530    0.0000 H   0  0  0  0  0  0  0  0  0  0  0  0
    6.0010   -1.1230    0.0000 H   0  0  0  0  0  0  0  0  0  0  0  0
    6.0201   -3.4700    0.0000 H   0  0  0  0  0  0  0  0  0  0  0  0
    6.8671   -3.2430    0.0000 H   0  0  0  0  0  0  0  0  0  0  0  0
    6.6401   -2.3961    0.0000 H   0  0  0  0  0  0  0  0  0  0  0  0
    4.2881   -2.3961    0.0000 H   0  0  0  0  0  0  0  0  0  0  0  0
    4.0611   -3.2430    0.0000 H   0  0  0  0  0  0  0  0  0  0  0  0
    4.9081   -3.4700    0.0000 H   0  0  0  0  0  0  0  0  0  0  0  0
    7.5062    0.0301    0.0000 H   0  0  0  0  0  0  0  0  0  0  0  0
    7.7331    0.8770    0.0000 H   0  0  0  0  0  0  0  0  0  0  0  0
    6.8862    1.1039    0.0000 H   0  0  0  0  0  0  0  0  0  0  0  0
  1 14  1  0  0  0  0
  1 18  1  0  0  0  0
  2 12  2  0  0  0  0
  3  5  1  0  0  0  0
  3 12  1  0  0  0  0
  3 14  1  0  0  0  0
  4  6  1  0  0  0  0
  4  8  2  0  0  0  0
  5 15  2  0  0  0  0
  6 14  2  0  0  0  0
  7  8  1  0  0  0  0
  7  9  1  0  0  0  0
  7 10  1  0  0  0  0
  7 11  1  0  0  0  0
  8 12  1  0  0  0  0
  9 19  1  0  0  0  0
  9 20  1  0  0  0  0
  9 21  1  0  0  0  0
 10 22  1  0  0  0  0
 10 23  1  0  0  0  0
 10 24  1  0  0  0  0
 11 25  1  0  0  0  0
 11 26  1  0  0  0  0
 11 27  1  0  0  0  0
 13 15  1  0  0  0  0
 13 16  1  0  0  0  0
 13 17  1  0  0  0  0
 13 28  1  0  0  0  0
 15 29  1  0  0  0  0
 16 30  1  0  0  0  0
 16 31  1  0  0  0  0
 16 32  1  0  0  0  0
 17 33  1  0  0  0  0
 17 34  1  0  0  0  0
 17 35  1  0  0  0  0
 18 36  1  0  0  0  0
 18 37  1  0  0  0  0
 18 38  1  0  0  0  0
M  END
> <PUBCHEM_COMPOUND_CID>
9576097

> <PUBCHEM_COMPOUND_CANONICALIZED>
1

> <PUBCHEM_CACTVS_COMPLEXITY>
418

> <PUBCHEM_CACTVS_HBOND_ACCEPTOR>
5

> <PUBCHEM_CACTVS_HBOND_DONOR>
0

> <PUBCHEM_CACTVS_ROTATABLE_BOND>
4

> <PUBCHEM_CACTVS_SUBSKEYS>
AAADceBzoABAAAAAAAAAAAAAAAAAAAAAAAAgAAAAAAAAAAAAAAAAHgQIAAAADwjBgASDAAIAAAgoARExMAAQAABAAAATAAEwAAAAABAAiAAEAAAACAAAAAAAAAAJAAAAAAAAAAAAAAAAAAAAAAAAAAAAAA==

> <PUBCHEM_IUPAC_OPENEYE_NAME>
6-tert-butyl-4-[(E)-2-methylpropylideneamino]-3-methylsulfanyl-1,2,4-triazin-5-one

> <PUBCHEM_IUPAC_CAS_NAME>
6-tert-butyl-4-[(E)-2-methylpropylideneamino]-3-(methylthio)-1,2,4-triazin-5-one

> <PUBCHEM_IUPAC_NAME>
6-tert-butyl-4-[(E)-2-methylpropylideneamino]-3-methylsulfanyl-1,2,4-triazin-5-one

> <PUBCHEM_IUPAC_SYSTEMATIC_NAME>
6-tert-butyl-4-[(E)-2-methylpropylideneamino]-3-methylsulfanyl-1,2,4-triazin-5-one

> <PUBCHEM_IUPAC_TRADITIONAL_NAME>
6-tert-butyl-4-[(E)-2-methylpropylideneamino]-3-(methylthio)-1,2,4-triazin-5-one

> <PUBCHEM_IUPAC_INCHI>
InChI=1S/C12H20N4OS/c1-8(2)7-13-16-10(17)9(12(3,4)5)14-15-11(16)18-6/h7-8H,1-6H3/b13-7+

> <PUBCHEM_IUPAC_INCHIKEY>
MZTLOILRKLUURT-NTUHNPAUSA-N

> <PUBCHEM_XLOGP3>
3.5

> <PUBCHEM_EXACT_MASS>
268.135782

> <PUBCHEM_MOLECULAR_FORMULA>
C12H20N4OS

> <PUBCHEM_MOLECULAR_WEIGHT>
268.3784

> <PUBCHEM_OPENEYE_CAN_SMILES>
CC(C)C=NN1C(=O)C(=NN=C1SC)C(C)(C)C

> <PUBCHEM_OPENEYE_ISO_SMILES>
CC(C)/C=N/N1C(=O)C(=NN=C1SC)C(C)(C)C

> <PUBCHEM_CACTVS_TPSA>
82.7

> <PUBCHEM_MONOISOTOPIC_WEIGHT>
268.135782

> <PUBCHEM_TOTAL_CHARGE>
0

> <PUBCHEM_HEAVY_ATOM_COUNT>
18

> <PUBCHEM_ATOM_DEF_STEREO_COUNT>
0

> <PUBCHEM_ATOM_UDEF_STEREO_COUNT>
0

> <PUBCHEM_BOND_DEF_STEREO_COUNT>
1

> <PUBCHEM_BOND_UDEF_STEREO_COUNT>
0

> <PUBCHEM_ISOTOPIC_ATOM_COUNT>
0

> <PUBCHEM_COMPONENT_COUNT>
1

> <PUBCHEM_CACTVS_TAUTO_COUNT>
1

> <PUBCHEM_COORDINATE_TYPE>
1
5
255

> <PUBCHEM_BONDANNOTATIONS>
3  12  8
3  14  8
4  6  8
4  8  8
6  14  8
8  12  8

$$$$

