   Color/Form

     * NEEDLES FROM WATER OR CRYSTALS FROM ALCOHOL
     * PRISMS
     * COLORLESS CRYSTALS
     * Colorless to brown, needle shaped crystals or powder [Note: Tends
       to darken on storage & exposure to air].

   from [1]HSDB

   Boiling Point
        292 DEG C
   from [2]HSDB

   Melting Point
        99 DEG C
   from [3]HSDB

   Octanol/Water Partition Coefficient
        log Kow= 0.337 (est)
   from [4]HSDB

   Solubilities

     * VERY SOL IN ALC, ETHER, BENZENE
     * Water solubility= 7.74 g/l (est).

   from [5]HSDB

   Spectral Properties

     * MAX ABSORPTION (METHANOL): 294 NM
     * IR: 8304 (Sadtler Research Laboratories IR Grating Collection)
     * UV: 2177 (Sadtler Research Laboratories Spectral Collection)
     * NMR: 3216 (Sadtler Research Laboratories Spectral Collection)
     * MASS: 511 (Atlas of Mass Spectral Data, John Wiley & Sons, New
       York)

   from [6]HSDB

   Vapor Pressure
        Vapor pressure= 5.52X10-5 mm Hg (est).
   from [7]HSDB

   Other Chemical/Physical Properties

     * 1 MM HG @ 106.5 DEG C
     * Henry's Law constant= 1.2x10-9 atm cu m/mol (est)

   from [8]HSDB

   Computed Properties
   Molecular Weight                  122.1677 [g/mol]
   Molecular Formula                 C[7]H[10]N[2]
   XLogP3                            0.1
   H-Bond Donor                      2
   H-Bond Acceptor                   2
   Rotatable Bond Count              0
   Exact Mass                        122.084398
   MonoIsotopic Mass                 122.084398
   Topological Polar Surface Area    52
   Heavy Atom Count                  9
   Formal Charge                     0
   Complexity                        92.9
   Isotope Atom Count                0
   Defined Atom Stereocenter Count   0
   Undefined Atom Stereocenter Count 0
   Defined Bond Stereocenter Count   0
   Undefined Bond Stereocenter Count 0
   Covalently-Bonded Unit Count      1
   Feature 3D Donor Count            2
   Feature 3D Cation Count           2
   Feature 3D Ring Count             1
   Effective Rotor Count             0
   Conformer Sampling RMSD           0.4
   CID Conformer Count               [9]1

References

   1. http://toxnet.nlm.nih.gov/cgi-bin/sis/search/r?dbs+hsdb:@term+@rn+@rel+95-80-7
   2. http://toxnet.nlm.nih.gov/cgi-bin/sis/search/r?dbs+hsdb:@term+@rn+@rel+95-80-7
   3. http://toxnet.nlm.nih.gov/cgi-bin/sis/search/r?dbs+hsdb:@term+@rn+@rel+95-80-7
   4. http://toxnet.nlm.nih.gov/cgi-bin/sis/search/r?dbs+hsdb:@term+@rn+@rel+95-80-7
   5. http://toxnet.nlm.nih.gov/cgi-bin/sis/search/r?dbs+hsdb:@term+@rn+@rel+95-80-7
   6. http://toxnet.nlm.nih.gov/cgi-bin/sis/search/r?dbs+hsdb:@term+@rn+@rel+95-80-7
   7. http://toxnet.nlm.nih.gov/cgi-bin/sis/search/r?dbs+hsdb:@term+@rn+@rel+95-80-7
   8. http://toxnet.nlm.nih.gov/cgi-bin/sis/search/r?dbs+hsdb:@term+@rn+@rel+95-80-7
   9. http://pubchem.ncbi.nlm.nih.gov/vw3d/vw3d.cgi?cid=7261
