11342
  -OEChem-06261205332D

 27 29  0     0  0  0  0  0  0999 V2000
    4.6660   -2.0204    0.0000 O   0  0  0  0  0  0  0  0  0  0  0  0
    6.4144    2.0142    0.0000 O   0  0  0  0  0  0  0  0  0  0  0  0
    8.1962    1.0038    0.0000 O   0  0  0  0  0  0  0  0  0  0  0  0
    5.5321    0.4796    0.0000 C   0  0  0  0  0  0  0  0  0  0  0  0
    5.5321   -0.5204    0.0000 C   0  0  0  0  0  0  0  0  0  0  0  0
    3.8000   -0.5204    0.0000 C   0  0  0  0  0  0  0  0  0  0  0  0
    3.8000    0.4796    0.0000 C   0  0  0  0  0  0  0  0  0  0  0  0
    4.6660   -1.0204    0.0000 C   0  0  0  0  0  0  0  0  0  0  0  0
    4.6660    0.9796    0.0000 C   0  0  0  0  0  0  0  0  0  0  0  0
    6.4260    1.0143    0.0000 C   0  0  0  0  0  0  0  0  0  0  0  0
    6.4260   -1.0550    0.0000 C   0  0  0  0  0  0  0  0  0  0  0  0
    2.9061   -1.0550    0.0000 C   0  0  0  0  0  0  0  0  0  0  0  0
    2.9061    1.0143    0.0000 C   0  0  0  0  0  0  0  0  0  0  0  0
    7.3321    0.5004    0.0000 C   0  0  0  0  0  0  0  0  0  0  0  0
    7.3321   -0.5412    0.0000 C   0  0  0  0  0  0  0  0  0  0  0  0
    2.0000   -0.5412    0.0000 C   0  0  0  0  0  0  0  0  0  0  0  0
    2.0000    0.5004    0.0000 C   0  0  0  0  0  0  0  0  0  0  0  0
    4.6660    1.5996    0.0000 H   0  0  0  0  0  0  0  0  0  0  0  0
    6.4188   -1.6750    0.0000 H   0  0  0  0  0  0  0  0  0  0  0  0
    2.9132   -1.6750    0.0000 H   0  0  0  0  0  0  0  0  0  0  0  0
    2.9132    1.6342    0.0000 H   0  0  0  0  0  0  0  0  0  0  0  0
    7.8678   -0.8533    0.0000 H   0  0  0  0  0  0  0  0  0  0  0  0
    1.4643   -0.8533    0.0000 H   0  0  0  0  0  0  0  0  0  0  0  0
    1.4643    0.8125    0.0000 H   0  0  0  0  0  0  0  0  0  0  0  0
    4.1291   -2.3304    0.0000 H   0  0  0  0  0  0  0  0  0  0  0  0
    6.9478    2.3304    0.0000 H   0  0  0  0  0  0  0  0  0  0  0  0
    8.7343    0.6958    0.0000 H   0  0  0  0  0  0  0  0  0  0  0  0
  1  8  1  0  0  0  0
  1 25  1  0  0  0  0
  2 10  1  0  0  0  0
  2 26  1  0  0  0  0
  3 14  1  0  0  0  0
  3 27  1  0  0  0  0
  4  5  1  0  0  0  0
  4  9  2  0  0  0  0
  4 10  1  0  0  0  0
  5  8  2  0  0  0  0
  5 11  1  0  0  0  0
  6  7  1  0  0  0  0
  6  8  1  0  0  0  0
  6 12  2  0  0  0  0
  7  9  1  0  0  0  0
  7 13  2  0  0  0  0
  9 18  1  0  0  0  0
 10 14  2  0  0  0  0
 11 15  2  0  0  0  0
 11 19  1  0  0  0  0
 12 16  1  0  0  0  0
 12 20  1  0  0  0  0
 13 17  1  0  0  0  0
 13 21  1  0  0  0  0
 14 15  1  0  0  0  0
 15 22  1  0  0  0  0
 16 17  2  0  0  0  0
 16 23  1  0  0  0  0
 17 24  1  0  0  0  0
M  END
> <PUBCHEM_COMPOUND_CID>
11342

> <PUBCHEM_COMPOUND_CANONICALIZED>
1

> <PUBCHEM_CACTVS_COMPLEXITY>
281

> <PUBCHEM_CACTVS_HBOND_ACCEPTOR>
3

> <PUBCHEM_CACTVS_HBOND_DONOR>
3

> <PUBCHEM_CACTVS_ROTATABLE_BOND>
0

> <PUBCHEM_CACTVS_SUBSKEYS>
AAADccBwMAAAAAAAAAAAAAAAAAAAAAAAAAAwYMAAAAAAAADBVAAAGgAACAAADASAmAAwBsAAAgCAAiBCAAACAAAgIAAIiAAGiIgJJiKCERKAcAEkwBEJmAfA4PQO4AADAAAYQADAAAYAADCAAAAAAAAAAA==

> <PUBCHEM_IUPAC_OPENEYE_NAME>
anthracene-1,2,10-triol

> <PUBCHEM_IUPAC_CAS_NAME>
anthracene-1,2,10-triol

> <PUBCHEM_IUPAC_NAME>
anthracene-1,2,10-triol

> <PUBCHEM_IUPAC_SYSTEMATIC_NAME>
anthracene-1,2,10-triol

> <PUBCHEM_IUPAC_TRADITIONAL_NAME>
anthracene-1,2,10-triol

> <PUBCHEM_IUPAC_INCHI>
InChI=1S/C14H10O3/c15-12-6-5-10-11(14(12)17)7-8-3-1-2-4-9(8)13(10)16/h1-7,15-17H

> <PUBCHEM_IUPAC_INCHIKEY>
TZIQWQARHPGHIG-UHFFFAOYSA-N

> <PUBCHEM_XLOGP3_AA>
3.4

> <PUBCHEM_EXACT_MASS>
226.062994

> <PUBCHEM_MOLECULAR_FORMULA>
C14H10O3

> <PUBCHEM_MOLECULAR_WEIGHT>
226.2274

> <PUBCHEM_OPENEYE_CAN_SMILES>
C1=CC=C2C(=C1)C=C3C(=C2O)C=CC(=C3O)O

> <PUBCHEM_OPENEYE_ISO_SMILES>
C1=CC=C2C(=C1)C=C3C(=C2O)C=CC(=C3O)O

> <PUBCHEM_CACTVS_TPSA>
60.7

> <PUBCHEM_MONOISOTOPIC_WEIGHT>
226.062994

> <PUBCHEM_TOTAL_CHARGE>
0

> <PUBCHEM_HEAVY_ATOM_COUNT>
17

> <PUBCHEM_ATOM_DEF_STEREO_COUNT>
0

> <PUBCHEM_ATOM_UDEF_STEREO_COUNT>
0

> <PUBCHEM_BOND_DEF_STEREO_COUNT>
0

> <PUBCHEM_BOND_UDEF_STEREO_COUNT>
0

> <PUBCHEM_ISOTOPIC_ATOM_COUNT>
0

> <PUBCHEM_COMPONENT_COUNT>
1

> <PUBCHEM_CACTVS_TAUTO_COUNT>
127

> <PUBCHEM_COORDINATE_TYPE>
1
5
255

> <PUBCHEM_BONDANNOTATIONS>
10  14  8
11  15  8
12  16  8
13  17  8
14  15  8
16  17  8
4  10  8
4  5  8
4  9  8
5  11  8
5  8  8
6  12  8
6  7  8
6  8  8
7  13  8
7  9  8

$$$$

