6135
  -OEChem-06261201082D

 56 55  0     1  0  0  0  0  0999 V2000
    1.4030    6.2435    0.0000 P   0  0  0  0  0  0  0  0  0  0  0  0
    7.9892    0.8660    0.0000 P   0  0  0  0  0  0  0  0  0  0  0  0
    6.2238   11.4039    0.0000 O   0  0  0  0  0  0  0  0  0  0  0  0
    8.8552    1.3660    0.0000 O   0  0  0  0  0  0  0  0  0  0  0  0
    7.1232    0.3660    0.0000 O   0  0  0  0  0  0  0  0  0  0  0  0
    7.4892    1.7320    0.0000 O   0  0  0  0  0  0  0  0  0  0  0  0
    2.2690    6.7435    0.0000 O   0  0  0  0  0  0  0  0  0  0  0  0
    0.5369    5.7435    0.0000 O   0  0  0  0  0  0  0  0  0  0  0  0
    0.9030    7.1095    0.0000 O   0  0  0  0  0  0  0  0  0  0  0  0
    8.4892    0.0000    0.0000 O   0  0  0  0  0  0  0  0  0  0  0  0
    1.9030    5.3774    0.0000 O   0  0  0  0  0  0  0  0  0  0  0  0
    7.9558    8.4039    0.0000 N   0  0  0  0  0  0  0  0  0  0  0  0
    5.3577    4.9038    0.0000 N   0  0  0  0  0  0  0  0  0  0  0  0
    9.7158    9.3692    0.0000 N   0  0  0  0  0  0  0  0  0  0  0  0
    7.0898    7.9038    0.0000 C   0  0  3  0  0  0  0  0  0  0  0  0
    7.0898    6.9038    0.0000 C   0  0  0  0  0  0  0  0  0  0  0  0
    6.2238    6.4038    0.0000 C   0  0  0  0  0  0  0  0  0  0  0  0
    6.2238    8.4039    0.0000 C   0  0  0  0  0  0  0  0  0  0  0  0
    7.9558    9.4038    0.0000 C   0  0  0  0  0  0  0  0  0  0  0  0
    6.2238    5.4038    0.0000 C   0  0  0  0  0  0  0  0  0  0  0  0
    8.8218    9.9038    0.0000 C   0  0  0  0  0  0  0  0  0  0  0  0
    7.0898    9.9038    0.0000 C   0  0  0  0  0  0  0  0  0  0  0  0
    8.8218   10.9039    0.0000 C   0  0  0  0  0  0  0  0  0  0  0  0
    7.0898   10.9039    0.0000 C   0  0  0  0  0  0  0  0  0  0  0  0
    7.9558   11.4039    0.0000 C   0  0  0  0  0  0  0  0  0  0  0  0
    9.7158   11.4385    0.0000 C   0  0  0  0  0  0  0  0  0  0  0  0
   10.6218   10.9247    0.0000 C   0  0  0  0  0  0  0  0  0  0  0  0
   10.6218    9.8830    0.0000 C   0  0  0  0  0  0  0  0  0  0  0  0
    6.2238   12.4039    0.0000 C   0  0  0  0  0  0  0  0  0  0  0  0
    7.0898    8.5239    0.0000 H   0  0  0  0  0  0  0  0  0  0  0  0
    7.3018    6.3212    0.0000 H   0  0  0  0  0  0  0  0  0  0  0  0
    7.7004    7.0115    0.0000 H   0  0  0  0  0  0  0  0  0  0  0  0
    6.0117    6.9865    0.0000 H   0  0  0  0  0  0  0  0  0  0  0  0
    5.6132    6.2962    0.0000 H   0  0  0  0  0  0  0  0  0  0  0  0
    8.4927    8.0938    0.0000 H   0  0  0  0  0  0  0  0  0  0  0  0
    6.5338    8.9408    0.0000 H   0  0  0  0  0  0  0  0  0  0  0  0
    5.6868    8.7139    0.0000 H   0  0  0  0  0  0  0  0  0  0  0  0
    5.9138    7.8669    0.0000 H   0  0  0  0  0  0  0  0  0  0  0  0
    6.4358    4.8212    0.0000 H   0  0  0  0  0  0  0  0  0  0  0  0
    6.8343    5.5115    0.0000 H   0  0  0  0  0  0  0  0  0  0  0  0
    6.5528    9.5938    0.0000 H   0  0  0  0  0  0  0  0  0  0  0  0
    7.9558   12.0239    0.0000 H   0  0  0  0  0  0  0  0  0  0  0  0
    5.3577    4.2838    0.0000 H   0  0  0  0  0  0  0  0  0  0  0  0
    4.8208    5.2138    0.0000 H   0  0  0  0  0  0  0  0  0  0  0  0
    9.7086   12.0585    0.0000 H   0  0  0  0  0  0  0  0  0  0  0  0
   11.1576   11.2367    0.0000 H   0  0  0  0  0  0  0  0  0  0  0  0
   11.1576    9.5710    0.0000 H   0  0  0  0  0  0  0  0  0  0  0  0
    6.8438   12.4039    0.0000 H   0  0  0  0  0  0  0  0  0  0  0  0
    6.2238   13.0239    0.0000 H   0  0  0  0  0  0  0  0  0  0  0  0
    5.6038   12.4039    0.0000 H   0  0  0  0  0  0  0  0  0  0  0  0
    1.2130    7.6464    0.0000 H   0  0  0  0  0  0  0  0  0  0  0  0
    0.0000    6.0535    0.0000 H   0  0  0  0  0  0  0  0  0  0  0  0
    2.8059    6.4335    0.0000 H   0  0  0  0  0  0  0  0  0  0  0  0
    7.7992    2.2690    0.0000 H   0  0  0  0  0  0  0  0  0  0  0  0
    6.5862    0.6760    0.0000 H   0  0  0  0  0  0  0  0  0  0  0  0
    9.3921    1.0560    0.0000 H   0  0  0  0  0  0  0  0  0  0  0  0
  1  7  1  0  0  0  0
  1  8  1  0  0  0  0
  1  9  1  0  0  0  0
  1 11  2  0  0  0  0
  2  4  1  0  0  0  0
  2  5  1  0  0  0  0
  2  6  1  0  0  0  0
  2 10  2  0  0  0  0
  3 24  1  0  0  0  0
  3 29  1  0  0  0  0
  4 56  1  0  0  0  0
  5 55  1  0  0  0  0
  6 54  1  0  0  0  0
  7 53  1  0  0  0  0
  8 52  1  0  0  0  0
  9 51  1  0  0  0  0
 12 15  1  0  0  0  0
 12 19  1  0  0  0  0
 12 35  1  0  0  0  0
 13 20  1  0  0  0  0
 13 43  1  0  0  0  0
 13 44  1  0  0  0  0
 14 21  1  0  0  0  0
 14 28  2  0  0  0  0
 15 16  1  0  0  0  0
 15 18  1  0  0  0  0
 15 30  1  0  0  0  0
 16 17  1  0  0  0  0
 16 31  1  0  0  0  0
 16 32  1  0  0  0  0
 17 20  1  0  0  0  0
 17 33  1  0  0  0  0
 17 34  1  0  0  0  0
 18 36  1  0  0  0  0
 18 37  1  0  0  0  0
 18 38  1  0  0  0  0
 19 21  2  0  0  0  0
 19 22  1  0  0  0  0
 20 39  1  0  0  0  0
 20 40  1  0  0  0  0
 21 23  1  0  0  0  0
 22 24  2  0  0  0  0
 22 41  1  0  0  0  0
 23 25  2  0  0  0  0
 23 26  1  0  0  0  0
 24 25  1  0  0  0  0
 25 42  1  0  0  0  0
 26 27  2  0  0  0  0
 26 45  1  0  0  0  0
 27 28  1  0  0  0  0
 27 46  1  0  0  0  0
 28 47  1  0  0  0  0
 29 48  1  0  0  0  0
 29 49  1  0  0  0  0
 29 50  1  0  0  0  0
M  END
> <PUBCHEM_COMPOUND_CID>
6135

> <PUBCHEM_COMPOUND_CANONICALIZED>
1

> <PUBCHEM_CACTVS_COMPLEXITY>
312

> <PUBCHEM_CACTVS_HBOND_ACCEPTOR>
12

> <PUBCHEM_CACTVS_HBOND_DONOR>
8

> <PUBCHEM_CACTVS_ROTATABLE_BOND>
6

> <PUBCHEM_CACTVS_SUBSKEYS>
AAADceBzPAMAAAAAAAAAAAAAAAAAAAAAAAA8QAAAAAAAAACx8AAAHgAQCCAADCzBngY+xvLIFBCgQzRnRICCiCAxMiAI2KA+fJgMZuLEsZuUMChm0BnI6Aew0LMOAEABQgACACAAgAKEAAQAQAAAAAAAAA==

> <PUBCHEM_IUPAC_OPENEYE_NAME>
N4-(6-methoxy-8-quinolyl)pentane-1,4-diamine; phosphoric acid

> <PUBCHEM_IUPAC_CAS_NAME>
N4-(6-methoxy-8-quinolinyl)pentane-1,4-diamine; phosphoric acid

> <PUBCHEM_IUPAC_NAME>
4-N-(6-methoxyquinolin-8-yl)pentane-1,4-diamine; phosphoric acid

> <PUBCHEM_IUPAC_SYSTEMATIC_NAME>
N4-(6-methoxyquinolin-8-yl)pentane-1,4-diamine; phosphoric acid

> <PUBCHEM_IUPAC_TRADITIONAL_NAME>
(4-amino-1-methyl-butyl)-(6-methoxy-8-quinolyl)amine; phosphoric acid

> <PUBCHEM_IUPAC_INCHI>
InChI=1S/C15H21N3O.2H3O4P/c1-11(5-3-7-16)18-14-10-13(19-2)9-12-6-4-8-17-15(12)14;2*1-5(2,3)4/h4,6,8-11,18H,3,5,7,16H2,1-2H3;2*(H3,1,2,3,4)

> <PUBCHEM_IUPAC_INCHIKEY>
GJOHLWZHWQUKAU-UHFFFAOYSA-N

> <PUBCHEM_EXACT_MASS>
455.122253

> <PUBCHEM_MOLECULAR_FORMULA>
C15H27N3O9P2

> <PUBCHEM_MOLECULAR_WEIGHT>
455.337104

> <PUBCHEM_OPENEYE_CAN_SMILES>
CC(CCCN)NC1=C2C(=CC(=C1)OC)C=CC=N2.OP(=O)(O)O.OP(=O)(O)O

> <PUBCHEM_OPENEYE_ISO_SMILES>
CC(CCCN)NC1=C2C(=CC(=C1)OC)C=CC=N2.OP(=O)(O)O.OP(=O)(O)O

> <PUBCHEM_CACTVS_TPSA>
216

> <PUBCHEM_MONOISOTOPIC_WEIGHT>
455.122253

> <PUBCHEM_TOTAL_CHARGE>
0

> <PUBCHEM_HEAVY_ATOM_COUNT>
29

> <PUBCHEM_ATOM_DEF_STEREO_COUNT>
0

> <PUBCHEM_ATOM_UDEF_STEREO_COUNT>
1

> <PUBCHEM_BOND_DEF_STEREO_COUNT>
0

> <PUBCHEM_BOND_UDEF_STEREO_COUNT>
0

> <PUBCHEM_ISOTOPIC_ATOM_COUNT>
0

> <PUBCHEM_COMPONENT_COUNT>
3

> <PUBCHEM_CACTVS_TAUTO_COUNT>
1

> <PUBCHEM_COORDINATE_TYPE>
1
5
255

> <PUBCHEM_BONDANNOTATIONS>
14  21  8
14  28  8
15  18  3
19  21  8
19  22  8
21  23  8
22  24  8
23  25  8
23  26  8
24  25  8
26  27  8
27  28  8

$$$$

