   Color/Form

     * Yellow powder or crystals
     * YELLOW HEXAGONAL PRISMS OR NEEDLES FROM ACETONE

   from [1]HSDB

   Odor
        Characteristic, disagreeable odor
   from [2]HSDB

   Boiling Point
        218 deg C
   from [3]HSDB

   Melting Point
        119 deg C
   from [4]HSDB

   Density/Specific Gravity
        Specific Gravity: 4.008 g/cu cm @ 25 deg C
   from [5]HSDB

   Heat of Combustion
        161.9 kg cal/g mol wt at 20 deg C (solid)
   from [6]HSDB

   Solubilities

     * SOL IN ACETIC ACID
     * 13.6 g/100 ml ether @ 25 deg C
     * 7.8 g/100 ml ethanol @ 25 deg C
     * One gram dissolves in 60 ml cold alcohol, 16 ml boiling alcohol, 10
       ml chloroform, 7.5 ml ether, 80 ml glycerol, 3 ml carbon disulfide,
       34 ml olive oil; freely sol in benzene, acetone, slightly sol in
       petr ether.
     * In water, 100 mg/l @ room temperature.

   from [7]HSDB

   Spectral Properties

     * INDEX OF REFRACTION: 1.8 @ 20 DEG C
     * MAX ABSORPTION (IN CHLORFORM): 244 NM (LOG E= 3.0), 307 NM (LOG E=
       3.2); 347 NM (LOG E= 3.2)
     * IR: 2:49H (Aldrich Library of Infrared Spectra, Aldrich Chemical
       Co, Milwaukee, WI)
     * NMR: 1:64D (Aldrich Library of Mass Spectra, Aldrich Chemical Co,
       Milwaukee, WI)
     * IR: 4553 (Sadtler Research Laboratories Prism Collection)
     * UV: 5-1 (Organic Electronic Spectral Data, Phillips et al, John
       Wiley & Sons, New York)
     * NMR: 6753 (Sadtler Research Laboratories Spectral Collection)
     * UV absorption maximum at 349 nm; molar extinction coefficient 2170.

   from [8]HSDB

   Vapor Density
        13.6 (Air= 1)
   from [9]HSDB

   Other Chemical/Physical Properties

     * Iodoform oxidizes arsenites to arsenates, antimonites to
       antimonates, and stannites to stannates.
     * Enthalpy of melting @ mp: 3.9 kcal/mole; enthalpy of sublimation @
       298 K: 16.7 kcal/mole; specific heat @ 400 K: 19.60 cal/K.mole, @
       600 K: 21.52 cal/K.mole, @ 800 K: 22.64 cal/K.mole, @ 1000 K: 23.38
       cal/K.mole
     * Enthalpy of formation (gas) @ 25 deg C: 50.40 kcal/mole; Gibbs
       (free) energy of formation (gas) @ 25 deg C: 42.54 kcal/mole;
       entropy (gas) @ 25 deg C: 84.97 cal/deg.mole; heat capacity (gas) @
       25 deg C: 17.94 cal/deg.mole
     * Unctuous touch; characteristic, disagreeable odor. Volatile with
       steam.
     * Decomposes at high temperatures with evolution of iodine.

   from [10]HSDB

   Computed Properties
   Molecular Weight                  393.73205 [g/mol]
   Molecular Formula                 CHI[3]
   XLogP3-AA                         2.7
   H-Bond Donor                      0
   H-Bond Acceptor                   0
   Rotatable Bond Count              0
   Exact Mass                        393.721244
   MonoIsotopic Mass                 393.721244
   Topological Polar Surface Area    0
   Heavy Atom Count                  4
   Formal Charge                     0
   Complexity                        8
   Isotope Atom Count                0
   Defined Atom Stereocenter Count   0
   Undefined Atom Stereocenter Count 0
   Defined Bond Stereocenter Count   0
   Undefined Bond Stereocenter Count 0
   Covalently-Bonded Unit Count      1
   Feature 3D Hydrophobe Count       4
   Effective Rotor Count             0
   Conformer Sampling RMSD           0.4
   CID Conformer Count               [11]1

References

   1. http://toxnet.nlm.nih.gov/cgi-bin/sis/search/r?dbs+hsdb:@term+@rn+@rel+75-47-8
   2. http://toxnet.nlm.nih.gov/cgi-bin/sis/search/r?dbs+hsdb:@term+@rn+@rel+75-47-8
   3. http://toxnet.nlm.nih.gov/cgi-bin/sis/search/r?dbs+hsdb:@term+@rn+@rel+75-47-8
   4. http://toxnet.nlm.nih.gov/cgi-bin/sis/search/r?dbs+hsdb:@term+@rn+@rel+75-47-8
   5. http://toxnet.nlm.nih.gov/cgi-bin/sis/search/r?dbs+hsdb:@term+@rn+@rel+75-47-8
   6. http://toxnet.nlm.nih.gov/cgi-bin/sis/search/r?dbs+hsdb:@term+@rn+@rel+75-47-8
   7. http://toxnet.nlm.nih.gov/cgi-bin/sis/search/r?dbs+hsdb:@term+@rn+@rel+75-47-8
   8. http://toxnet.nlm.nih.gov/cgi-bin/sis/search/r?dbs+hsdb:@term+@rn+@rel+75-47-8
   9. http://toxnet.nlm.nih.gov/cgi-bin/sis/search/r?dbs+hsdb:@term+@rn+@rel+75-47-8
  10. http://toxnet.nlm.nih.gov/cgi-bin/sis/search/r?dbs+hsdb:@term+@rn+@rel+75-47-8
  11. http://pubchem.ncbi.nlm.nih.gov/vw3d/vw3d.cgi?cid=6374
