   Color/Form
        YELLOW NEEDLES FROM ACETIC ACID
   from [1]HSDB

   Melting Point
        261 DEG C
   from [2]HSDB

   Solubilities
        INSOL IN WATER; SLIGHTLY SOL IN ACETIC ACID; SLIGHTLY SOL IN ALC,
   HOT BENZENE; HOT PETROLEUM ETHER
   from [3]HSDB

   Spectral Properties

     * MAX ABSORPTION (ALCOHOL): 225 NM (LOG E= 4.45); 327 NM (LOG E=
       3.86); 338 NM (LOG E= 3.86)
     * IR: 14633 (Sadtler Research Laboratories Prism Collection)
     * UV: 4140 (Sadtler Research Laboratories Spectral Collection)
     * NMR: 18777 (Sadtler Research Laboratories Spectral Collection)

   from [4]HSDB

   Computed Properties
   Molecular Weight                  182.17484 [g/mol]
   Molecular Formula                 C[12]H[6]O[2]
   XLogP3                            1.9
   H-Bond Donor                      0
   H-Bond Acceptor                   2
   Rotatable Bond Count              0
   Exact Mass                        182.036779
   MonoIsotopic Mass                 182.036779
   Topological Polar Surface Area    34.1
   Heavy Atom Count                  14
   Formal Charge                     0
   Complexity                        267
   Isotope Atom Count                0
   Defined Atom Stereocenter Count   0
   Undefined Atom Stereocenter Count 0
   Defined Bond Stereocenter Count   0
   Undefined Bond Stereocenter Count 0
   Covalently-Bonded Unit Count      1
   Feature 3D Acceptor Count         2
   Feature 3D Ring Count             3
   Effective Rotor Count             0
   Conformer Sampling RMSD           0.4
   CID Conformer Count               [5]1

References

   1. http://toxnet.nlm.nih.gov/cgi-bin/sis/search/r?dbs+hsdb:@term+@rn+@rel+82-86-0
   2. http://toxnet.nlm.nih.gov/cgi-bin/sis/search/r?dbs+hsdb:@term+@rn+@rel+82-86-0
   3. http://toxnet.nlm.nih.gov/cgi-bin/sis/search/r?dbs+hsdb:@term+@rn+@rel+82-86-0
   4. http://toxnet.nlm.nih.gov/cgi-bin/sis/search/r?dbs+hsdb:@term+@rn+@rel+82-86-0
   5. http://pubchem.ncbi.nlm.nih.gov/vw3d/vw3d.cgi?cid=6724
