4252
  -OEChem-06251223592D

 50 52  0     1  0  0  0  0  0999 V2000
    5.7361    0.4957    0.0000 S   0  0  0  0  0  0  0  0  0  0  0  0
   13.2049   -2.2466    0.0000 S   0  0  0  0  0  0  0  0  0  0  0  0
   14.7031   -3.1157    0.0000 F   0  0  0  0  0  0  0  0  0  0  0  0
   14.7067   -1.3837    0.0000 F   0  0  0  0  0  0  0  0  0  0  0  0
    8.3342   -1.0043    0.0000 O   0  0  0  0  0  0  0  0  0  0  0  0
   10.2064   -1.5084    0.0000 O   0  0  0  0  0  0  0  0  0  0  0  0
   10.9141    1.2084    0.0000 O   0  0  0  0  0  0  0  0  0  0  0  0
    7.4682    2.4957    0.0000 O   0  0  0  0  0  0  0  0  0  0  0  0
    9.2002    2.4957    0.0000 O   0  0  0  0  0  0  0  0  0  0  0  0
   11.2049   -2.2425    0.0000 O   0  0  0  0  0  0  0  0  0  0  0  0
    2.5896   -1.6763    0.0000 O   0  0  0  0  0  0  0  0  0  0  0  0
    9.2002    0.4957    0.0000 N   0  0  0  0  0  0  0  0  0  0  0  0
   11.2085   -0.5105    0.0000 N   0  0  0  0  0  0  0  0  0  0  0  0
    3.9565    0.5890    0.0000 N   0  0  0  0  0  0  0  0  0  0  0  0
    4.7656    1.9902    0.0000 N   0  0  0  0  0  0  0  0  0  0  0  0
    3.2874    1.3321    0.0000 N   0  0  0  0  0  0  0  0  0  0  0  0
    3.7874    2.1982    0.0000 N   0  0  0  0  0  0  0  0  0  0  0  0
    9.2002   -0.5043    0.0000 C   0  0  3  0  0  0  0  0  0  0  0  0
   10.2085   -0.5084    0.0000 C   0  0  3  0  0  0  0  0  0  0  0  0
   10.2085    0.4999    0.0000 C   0  0  0  0  0  0  0  0  0  0  0  0
    8.3342    0.9957    0.0000 C   0  0  0  0  0  0  0  0  0  0  0  0
    7.4682    0.4957    0.0000 C   0  0  0  0  0  0  0  0  0  0  0  0
    7.4682   -0.5043    0.0000 C   0  0  0  0  0  0  0  0  0  0  0  0
    6.6021    0.9957    0.0000 C   0  0  0  0  0  0  0  0  0  0  0  0
    8.3342    1.9957    0.0000 C   0  0  0  0  0  0  0  0  0  0  0  0
   11.7067   -1.3775    0.0000 C   0  0  0  0  0  0  0  0  0  0  0  0
    9.3394   -2.0066    0.0000 C   0  0  0  0  0  0  0  0  0  0  0  0
   12.7067   -1.3796    0.0000 C   0  0  0  0  0  0  0  0  0  0  0  0
    4.8701    0.9957    0.0000 C   0  0  0  0  0  0  0  0  0  0  0  0
    3.7486   -0.3892    0.0000 C   0  0  0  0  0  0  0  0  0  0  0  0
   14.2049   -2.2487    0.0000 C   0  0  0  0  0  0  0  0  0  0  0  0
    2.7976   -0.6982    0.0000 C   0  0  0  0  0  0  0  0  0  0  0  0
    9.4185   -1.3258    0.0000 H   0  0  0  0  0  0  0  0  0  0  0  0
   11.5196    0.0258    0.0000 H   0  0  0  0  0  0  0  0  0  0  0  0
    6.8576   -0.3966    0.0000 H   0  0  0  0  0  0  0  0  0  0  0  0
    7.2561   -1.0869    0.0000 H   0  0  0  0  0  0  0  0  0  0  0  0
    7.0007    1.4707    0.0000 H   0  0  0  0  0  0  0  0  0  0  0  0
    6.2036    1.4707    0.0000 H   0  0  0  0  0  0  0  0  0  0  0  0
    9.0305   -1.4691    0.0000 H   0  0  0  0  0  0  0  0  0  0  0  0
    8.8018   -2.3155    0.0000 H   0  0  0  0  0  0  0  0  0  0  0  0
    9.6483   -2.5442    0.0000 H   0  0  0  0  0  0  0  0  0  0  0  0
   13.2897   -1.1687    0.0000 H   0  0  0  0  0  0  0  0  0  0  0  0
   12.6003   -0.7688    0.0000 H   0  0  0  0  0  0  0  0  0  0  0  0
    7.4682    3.1157    0.0000 H   0  0  0  0  0  0  0  0  0  0  0  0
    3.8349   -1.0031    0.0000 H   0  0  0  0  0  0  0  0  0  0  0  0
    4.3682   -0.4108    0.0000 H   0  0  0  0  0  0  0  0  0  0  0  0
   14.8249   -2.2500    0.0000 H   0  0  0  0  0  0  0  0  0  0  0  0
    2.7113   -0.0842    0.0000 H   0  0  0  0  0  0  0  0  0  0  0  0
    2.1779   -0.6765    0.0000 H   0  0  0  0  0  0  0  0  0  0  0  0
    2.0000   -1.8679    0.0000 H   0  0  0  0  0  0  0  0  0  0  0  0
  1 24  1  0  0  0  0
  1 29  1  0  0  0  0
  2 28  1  0  0  0  0
  2 31  1  0  0  0  0
  3 31  1  0  0  0  0
  4 31  1  0  0  0  0
  5 18  1  0  0  0  0
  5 23  1  0  0  0  0
  6 19  1  0  0  0  0
  6 27  1  0  0  0  0
  7 20  2  0  0  0  0
  8 25  1  0  0  0  0
  8 44  1  0  0  0  0
  9 25  2  0  0  0  0
 10 26  2  0  0  0  0
 11 32  1  0  0  0  0
 11 50  1  0  0  0  0
 12 18  1  0  0  0  0
 12 20  1  0  0  0  0
 12 21  1  0  0  0  0
 13 19  1  0  0  0  0
 13 26  1  0  0  0  0
 13 34  1  0  0  0  0
 14 16  1  0  0  0  0
 14 29  1  0  0  0  0
 14 30  1  0  0  0  0
 15 17  1  0  0  0  0
 15 29  2  0  0  0  0
 16 17  2  0  0  0  0
 18 19  1  0  0  0  0
 18 33  1  0  0  0  0
 19 20  1  0  0  0  0
 21 22  2  0  0  0  0
 21 25  1  0  0  0  0
 22 23  1  0  0  0  0
 22 24  1  0  0  0  0
 23 35  1  0  0  0  0
 23 36  1  0  0  0  0
 24 37  1  0  0  0  0
 24 38  1  0  0  0  0
 26 28  1  0  0  0  0
 27 39  1  0  0  0  0
 27 40  1  0  0  0  0
 27 41  1  0  0  0  0
 28 42  1  0  0  0  0
 28 43  1  0  0  0  0
 30 32  1  0  0  0  0
 30 45  1  0  0  0  0
 30 46  1  0  0  0  0
 31 47  1  0  0  0  0
 32 48  1  0  0  0  0
 32 49  1  0  0  0  0
M  END
> <PUBCHEM_COMPOUND_CID>
4252

> <PUBCHEM_COMPOUND_CANONICALIZED>
1

> <PUBCHEM_CACTVS_COMPLEXITY>
793

> <PUBCHEM_CACTVS_HBOND_ACCEPTOR>
14

> <PUBCHEM_CACTVS_HBOND_DONOR>
3

> <PUBCHEM_CACTVS_ROTATABLE_BOND>
11

> <PUBCHEM_CACTVS_SUBSKEYS>
AAADceBzuYBgAAAAAAAAAAAAAABYAWAAAAAgAAAAAAAQAAABgAAAHwQYCAAADAzlwBaDGAfIBgiqAgXQfAIAEANAgJAVSAHIAEGDVAwgKCQfEAACNgKSMQAAAAAAAAAAAAAAAAAAAAAAAAAAAAAAAAAAAA==

> <PUBCHEM_IUPAC_OPENEYE_NAME>
7-[[2-(difluoromethylsulfanyl)acetyl]amino]-3-[[1-(2-hydroxyethyl)tetrazol-5-yl]sulfanylmethyl]-7-methoxy-8-oxo-5-oxa-1-azabicyclo[4.2.0]oct-2-ene-2-carboxylic acid

> <PUBCHEM_IUPAC_CAS_NAME>
7-[[2-(difluoromethylthio)-1-oxoethyl]amino]-3-[[[1-(2-hydroxyethyl)-5-tetrazolyl]thio]methyl]-7-methoxy-8-oxo-5-oxa-1-azabicyclo[4.2.0]oct-2-ene-2-carboxylic acid

> <PUBCHEM_IUPAC_NAME>
7-[[2-(difluoromethylsulfanyl)acetyl]amino]-3-[[1-(2-hydroxyethyl)tetrazol-5-yl]sulfanylmethyl]-7-methoxy-8-oxo-5-oxa-1-azabicyclo[4.2.0]oct-2-ene-2-carboxylic acid

> <PUBCHEM_IUPAC_SYSTEMATIC_NAME>
7-[2-[bis(fluoranyl)methylsulfanyl]ethanoylamino]-3-[[1-(2-hydroxyethyl)-1,2,3,4-tetrazol-5-yl]sulfanylmethyl]-7-methoxy-8-oxidanylidene-5-oxa-1-azabicyclo[4.2.0]oct-2-ene-2-carboxylic acid

> <PUBCHEM_IUPAC_TRADITIONAL_NAME>
7-[[2-(difluoromethylthio)acetyl]amino]-3-[[[1-(2-hydroxyethyl)tetrazol-5-yl]thio]methyl]-8-keto-7-methoxy-5-oxa-1-azabicyclo[4.2.0]oct-2-ene-2-carboxylic acid

> <PUBCHEM_IUPAC_INCHI>
InChI=1S/C15H18F2N6O7S2/c1-29-15(18-8(25)6-31-13(16)17)11(28)23-9(10(26)27)7(4-30-12(15)23)5-32-14-19-20-21-22(14)2-3-24/h12-13,24H,2-6H2,1H3,(H,18,25)(H,26,27)

> <PUBCHEM_IUPAC_INCHIKEY>
UHRBTBZOWWGKMK-UHFFFAOYSA-N

> <PUBCHEM_XLOGP3>
-1.3

> <PUBCHEM_EXACT_MASS>
496.064645

> <PUBCHEM_MOLECULAR_FORMULA>
C15H18F2N6O7S2

> <PUBCHEM_MOLECULAR_WEIGHT>
496.466226

> <PUBCHEM_OPENEYE_CAN_SMILES>
COC1(C2N(C1=O)C(=C(CO2)CSC3=NN=NN3CCO)C(=O)O)NC(=O)CSC(F)F

> <PUBCHEM_OPENEYE_ISO_SMILES>
COC1(C2N(C1=O)C(=C(CO2)CSC3=NN=NN3CCO)C(=O)O)NC(=O)CSC(F)F

> <PUBCHEM_CACTVS_TPSA>
220

> <PUBCHEM_MONOISOTOPIC_WEIGHT>
496.064645

> <PUBCHEM_TOTAL_CHARGE>
0

> <PUBCHEM_HEAVY_ATOM_COUNT>
32

> <PUBCHEM_ATOM_DEF_STEREO_COUNT>
0

> <PUBCHEM_ATOM_UDEF_STEREO_COUNT>
2

> <PUBCHEM_BOND_DEF_STEREO_COUNT>
0

> <PUBCHEM_BOND_UDEF_STEREO_COUNT>
0

> <PUBCHEM_ISOTOPIC_ATOM_COUNT>
0

> <PUBCHEM_COMPONENT_COUNT>
1

> <PUBCHEM_CACTVS_TAUTO_COUNT>
2

> <PUBCHEM_COORDINATE_TYPE>
1
5
255

> <PUBCHEM_BONDANNOTATIONS>
19  13  3
14  16  8
14  29  8
15  17  8
15  29  8
16  17  8
18  33  3

$$$$

