   Color/Form

     * CLEAR LIQUID
     * Colorless liquid.

   from [1]HSDB

   Odor

     * CHARACTERISTIC ETHER-LIKE ODOR REMINISCENT OF PINEAPPLE.
     * Fragrant odor
     * Ether-like, fruity odor.
     * Fruity with a brandy note.

   from [2]HSDB

   Taste

     * PLEASANT TASTE WHEN DILUTED.
     * BITTERSWEET, WINE-LIKE BURNING TASTE.
     * Ethyl acetate ... contributes a fruity flavor to beer.

   from [3]HSDB

   Boiling Point
        77 DEG C
   from [4]HSDB

   Melting Point
        -83 DEG C
   from [5]HSDB

   Critical Temperature and Pressure
        Critical temperature: 250 DEG C; Critical pressure: 3.8 MN/SQ M
   from [6]HSDB

   Density/Specific Gravity
        Sp gr: 0.902 AT 20 DEG C/4 DEG C
   from [7]HSDB

   Heat of Combustion
        -5616 CAL/G
   from [8]HSDB

   Heat of Vaporization
        87.6 CAL/G
   from [9]HSDB

   Octanol/Water Partition Coefficient
        log Kow= 0.73
   from [10]HSDB

   Solubilities

     * SOL IN ALCOHOL, ETHER, ACETONE, AND BENZENE
     * MISCIBLE WITH CHLOROFORM
     * MISCIBLE IN FIXED & VOLATILE OILS.
     * Very soluble in water (64 g/l at 25 deg C)
     * Miscible with oxygenated and chlorinated solvents.
     * In water, 8.01X10+4 mg/l at 25 deg C.

   from [11]HSDB

   Spectral Properties

     * Index of Refraction = 1.3719 at 20 deg C/D
     * MAX ABSORPTION (METHANOL): 209 NM (LOG E= 1.86); SADTLER REFERENCE
       NUMBER: 4 (IR, PRISM); 3 (IR, GRATING)
     * IR: 4802 (Coblentz Society Spectral Collection)
     * UV: 4-21 (Organic Electronic Spectral Data, Phillips et al, John
       Wiley & Sons, New York)
     * NMR: 79 (Varian Associates NMR Spectra Catalogue)
     * MASS: 158 (Atlas of Mass Spectral Data, John Wiley & Sons, New
       York)
     * Intense mass spectral peaks: 43 m/z, 61 m/z, 70 m/z, 73 m/z, 88 m/z

   from [12]HSDB

   Surface Tension
        24 DYNES/CM AT 20 DEG C
   from [13]HSDB

   Vapor Density
        3.04 (AIR= 1)
   from [14]HSDB

   Vapor Pressure
        Vapor pressure = 93.2 mm Hg at 25 deg C /from
   experimentally-derived coefficients/
   from [15]HSDB

   Viscosity
        0.44 CP at 25 deg C
   from [16]HSDB

   Other Chemical/Physical Properties

     * ACID VALUE NOT MORE THAN 0.01%
     * DISTILLS BETWEEN 76 & 77.5 DEG C
     * DENSITY OF SATURATED AIR (AIR= 1) 1.02; CONVERSION FACTORS: 1 MG/L=
       278 PPM; 1 PPM= 3.60 MG/CU M
     * AZEOTROPIC MIXT WITH WATER (6.1% WT/WT), BP: 70.4 DEG C; AZEOTROPIC
       MIXT WITH WATER (7.8% WT/WT) & ALC (9.0% WT/WT) BP 70.3 DEG;
       ACQUIRES ACID REACTION WHEN DECOMP BY MOISTURE; ABSORBS WATER (UP
       TO 3.3% WT/WT)
     * LIQUID-WATER INTERFACIAL TENSION: 6.79 DYNES/CM AT 30 DEG C; VAPOR
       (GAS) SPECIFIC GRAVITY: 3.0; RATIO OF SPECIFIC HEATS OF VAPOR
       (GAS): 1.080
     * Heat of fusion: 28.43 cal/g
     * Heat capacity: 167.4 J/mol K @ 1 atm
     * Henry's Law constant = 1.34X10-4 atm-cu m/mole at 25 deg C
     * More soluble (in water) at lower temps and less sol at higher
       temps.

   from [17]HSDB

   Computed Properties
   Molecular Weight                  88.10512 [g/mol]
   Molecular Formula                 C[4]H[8]O[2]
   XLogP3                            0.7
   H-Bond Donor                      0
   H-Bond Acceptor                   2
   Rotatable Bond Count              2
   Exact Mass                        88.052429
   MonoIsotopic Mass                 88.052429
   Topological Polar Surface Area    26.3
   Heavy Atom Count                  6
   Formal Charge                     0
   Complexity                        49.5
   Isotope Atom Count                0
   Defined Atom Stereocenter Count   0
   Undefined Atom Stereocenter Count 0
   Defined Bond Stereocenter Count   0
   Undefined Bond Stereocenter Count 0
   Covalently-Bonded Unit Count      1
   Feature 3D Acceptor Count         1
   Effective Rotor Count             2
   Conformer Sampling RMSD           0.4
   CID Conformer Count               [18]9

References

   1. http://toxnet.nlm.nih.gov/cgi-bin/sis/search/r?dbs+hsdb:@term+@rn+@rel+141-78-6
   2. http://toxnet.nlm.nih.gov/cgi-bin/sis/search/r?dbs+hsdb:@term+@rn+@rel+141-78-6
   3. http://toxnet.nlm.nih.gov/cgi-bin/sis/search/r?dbs+hsdb:@term+@rn+@rel+141-78-6
   4. http://toxnet.nlm.nih.gov/cgi-bin/sis/search/r?dbs+hsdb:@term+@rn+@rel+141-78-6
   5. http://toxnet.nlm.nih.gov/cgi-bin/sis/search/r?dbs+hsdb:@term+@rn+@rel+141-78-6
   6. http://toxnet.nlm.nih.gov/cgi-bin/sis/search/r?dbs+hsdb:@term+@rn+@rel+141-78-6
   7. http://toxnet.nlm.nih.gov/cgi-bin/sis/search/r?dbs+hsdb:@term+@rn+@rel+141-78-6
   8. http://toxnet.nlm.nih.gov/cgi-bin/sis/search/r?dbs+hsdb:@term+@rn+@rel+141-78-6
   9. http://toxnet.nlm.nih.gov/cgi-bin/sis/search/r?dbs+hsdb:@term+@rn+@rel+141-78-6
  10. http://toxnet.nlm.nih.gov/cgi-bin/sis/search/r?dbs+hsdb:@term+@rn+@rel+141-78-6
  11. http://toxnet.nlm.nih.gov/cgi-bin/sis/search/r?dbs+hsdb:@term+@rn+@rel+141-78-6
  12. http://toxnet.nlm.nih.gov/cgi-bin/sis/search/r?dbs+hsdb:@term+@rn+@rel+141-78-6
  13. http://toxnet.nlm.nih.gov/cgi-bin/sis/search/r?dbs+hsdb:@term+@rn+@rel+141-78-6
  14. http://toxnet.nlm.nih.gov/cgi-bin/sis/search/r?dbs+hsdb:@term+@rn+@rel+141-78-6
  15. http://toxnet.nlm.nih.gov/cgi-bin/sis/search/r?dbs+hsdb:@term+@rn+@rel+141-78-6
  16. http://toxnet.nlm.nih.gov/cgi-bin/sis/search/r?dbs+hsdb:@term+@rn+@rel+141-78-6
  17. http://toxnet.nlm.nih.gov/cgi-bin/sis/search/r?dbs+hsdb:@term+@rn+@rel+141-78-6
  18. http://pubchem.ncbi.nlm.nih.gov/vw3d/vw3d.cgi?cid=8857
