   Color/Form

     * Colorless, oily liquid ... Turns yellow to brown on exposure to air
       and light and resinifies
     * Colorless liquid (becomes reddish-brown on exposure to light and
       air)

   from [1]HSDB

   Odor

     * Peculiar odor, somewhat resembling the odor of benzaldehyde
     * ... Almond-like odor ...

   from [2]HSDB

   Taste
        Distinct caramel taste
   from [3]HSDB

   Boiling Point
        161.7 deg C
   from [4]HSDB

   Melting Point
        -38.1 deg C
   from [5]HSDB

   Critical Temperature and Pressure
        Critical temperature = 670 K /Extrapolated/; critical pressure =
   5.89 MPa /Extrapolated/
   from [6]HSDB

   Density/Specific Gravity
        1.1594 g/cu cm at 20 deg C
   from [7]HSDB

   Heat of Combustion
        560 kcal/mol
   from [8]HSDB

   Heat of Vaporization
        38.6 kJ/mol
   from [9]HSDB

   Octanol/Water Partition Coefficient
        log Kow= 0.41
   from [10]HSDB

   Solubilities

     * Soluble in alcohol, ether; 8.3% soluble in water at 20 deg C
     * Soluble in benzene, chloroform; very soluble in ethanol, acetone;
       miscible with ethyl ether
     * In water, 7.41X10+4 mg/L at 25 deg C

   from [11]HSDB

   Spectral Properties

     * Index of refraction = 1.5261 at 20 deg C/D
     * Sadtler Reference Number: 113 (IR, Prism); 35 (IR, Grating); max
       absorption (sulfuric acid): 280 nm (log E = 3.07) (initial)
     * 2-Furaldehyde, 99%, exhibits its two strongest infra red absorption
       bands at wavelengths of 6.0 and 13.3 microns.
     * MASS: 68584 (NIST/EPA/MSDC Mass Spectral Database 1990 version)
     * IR: 6172 (Coblentz Society Spectral Collection)
     * UV: 42 (Sadtler Research Laboratories Spectral Collection)
     * 1H NMR: 95 (Varian Associates NMR Spectra Catalogue)

   from [12]HSDB

   Surface Tension
        40.7 mN/m at 29.9 deg C
   from [13]HSDB

   Vapor Density
        3.3 (Air= 1)
   from [14]HSDB

   Vapor Pressure
        2.21 mm Hg at 25 deg C (est)
   from [15]HSDB

   Viscosity
        1.587 mPa-s at 25 deg C
   from [16]HSDB

   Other Chemical/Physical Properties

     * Henry's Law constant = 3.8X10-6 atm-cu m/mol at 25 deg C (est)
     * Hydroxyl radical reaction rate constant = 3.51X10-11 cu
       cm/molec-sec at 27 deg C
     * Thermal conductivity: 0.1525 BTU/(hr)(sq ft)(deg F/ft) @ 100 deg F
     * Molar volume= 83.19 ml/mole @ 25 deg C
     * Heat of formation = -201.6 kJ/mol at 25 deg C. Heat capacity =
       163.2 J/mol-K at 25 deg C
     * Heat of fusion = 14.37 kJ/mol
     * Ionization potential= 9.21 eV
     * Vapor diffusion coefficient= 0.087 sq cm/sec at 25 deg C
     * Dielectric constant = 42.1 at 20 deg C
     * Specific conductivity= 0.26X10-5 ohm (minimum), 0.37X10-5 ohm
       (maximum)
     * Forms condensation products with many types of cmpd, phenol,
       amines, urea, etc.
     * Dipole moment: 2.13 at 25 deg C (liquid); 3.63 in benzene st 25 deg
       C
     * Saturation concentration in air = 5.8 g/cu m at 20 deg C; 12 g/cu m
       at 30 deg C

   from [17]HSDB

   Computed Properties
   Molecular Weight                  96.08406 [g/mol]
   Molecular Formula                 C[5]H[4]O[2]
   XLogP3                            0.4
   H-Bond Donor                      0
   H-Bond Acceptor                   2
   Rotatable Bond Count              1
   Exact Mass                        96.021129
   MonoIsotopic Mass                 96.021129
   Topological Polar Surface Area    30.2
   Heavy Atom Count                  7
   Formal Charge                     0
   Complexity                        70.5
   Isotope Atom Count                0
   Defined Atom Stereocenter Count   0
   Undefined Atom Stereocenter Count 0
   Defined Bond Stereocenter Count   0
   Undefined Bond Stereocenter Count 0
   Covalently-Bonded Unit Count      1
   Feature 3D Acceptor Count         2
   Feature 3D Ring Count             1
   Effective Rotor Count             1
   Conformer Sampling RMSD           0.4
   CID Conformer Count               [18]2

References

   1. http://toxnet.nlm.nih.gov/cgi-bin/sis/search/r?dbs+hsdb:@term+@rn+@rel+98-01-1
   2. http://toxnet.nlm.nih.gov/cgi-bin/sis/search/r?dbs+hsdb:@term+@rn+@rel+98-01-1
   3. http://toxnet.nlm.nih.gov/cgi-bin/sis/search/r?dbs+hsdb:@term+@rn+@rel+98-01-1
   4. http://toxnet.nlm.nih.gov/cgi-bin/sis/search/r?dbs+hsdb:@term+@rn+@rel+98-01-1
   5. http://toxnet.nlm.nih.gov/cgi-bin/sis/search/r?dbs+hsdb:@term+@rn+@rel+98-01-1
   6. http://toxnet.nlm.nih.gov/cgi-bin/sis/search/r?dbs+hsdb:@term+@rn+@rel+98-01-1
   7. http://toxnet.nlm.nih.gov/cgi-bin/sis/search/r?dbs+hsdb:@term+@rn+@rel+98-01-1
   8. http://toxnet.nlm.nih.gov/cgi-bin/sis/search/r?dbs+hsdb:@term+@rn+@rel+98-01-1
   9. http://toxnet.nlm.nih.gov/cgi-bin/sis/search/r?dbs+hsdb:@term+@rn+@rel+98-01-1
  10. http://toxnet.nlm.nih.gov/cgi-bin/sis/search/r?dbs+hsdb:@term+@rn+@rel+98-01-1
  11. http://toxnet.nlm.nih.gov/cgi-bin/sis/search/r?dbs+hsdb:@term+@rn+@rel+98-01-1
  12. http://toxnet.nlm.nih.gov/cgi-bin/sis/search/r?dbs+hsdb:@term+@rn+@rel+98-01-1
  13. http://toxnet.nlm.nih.gov/cgi-bin/sis/search/r?dbs+hsdb:@term+@rn+@rel+98-01-1
  14. http://toxnet.nlm.nih.gov/cgi-bin/sis/search/r?dbs+hsdb:@term+@rn+@rel+98-01-1
  15. http://toxnet.nlm.nih.gov/cgi-bin/sis/search/r?dbs+hsdb:@term+@rn+@rel+98-01-1
  16. http://toxnet.nlm.nih.gov/cgi-bin/sis/search/r?dbs+hsdb:@term+@rn+@rel+98-01-1
  17. http://toxnet.nlm.nih.gov/cgi-bin/sis/search/r?dbs+hsdb:@term+@rn+@rel+98-01-1
  18. http://pubchem.ncbi.nlm.nih.gov/vw3d/vw3d.cgi?cid=7362
