   Color/Form

     * Mobile liquid
     * Colorless liquid

   from [1]HSDB

   Odor
        Pungent, mustard-like odor.
   from [2]HSDB

   Boiling Point
        97 deg C
   from [3]HSDB

   Melting Point
        -129 deg C
   from [4]HSDB

   Corrosivity

     * Non corrosive to metals
     * Attack some forms of plastics, rubber, and coatings.

   from [5]HSDB

   Critical Temperature and Pressure
        Critical temperature: 545.1 K (272 deg C)
   from [6]HSDB

   Density/Specific Gravity
        0.8540 @ 20 deg C/4 deg C
   from [7]HSDB

   Dissociation Constants
        pKa = 15.5 @ 25 deg C
   from [8]HSDB

   Heat of Combustion
        1853.8 kJ/mol
   from [9]HSDB

   Heat of Vaporization
        35.18 kJ/mol @ 97.0 deg C
   from [10]HSDB

   Octanol/Water Partition Coefficient
        log Kow= 0.17
   from [11]HSDB

   Solubilities

     * Miscible with alcohol, chloroform, ether, petroleum ether
     * Infinitely soluble in water @ 20 deg C

   from [12]HSDB

   Spectral Properties

     * Index of refraction: 1.41345 @ 20 deg C/D
     * SADTLER REFERENCE NUMBER: 284 (IR, PRISM); MAX ABSORPTION (98%
       SULFURIC ACID): 273 NM (LOG E= 3.67)
     * Allyl alcohol, 99%, exhibits its two strongest infrared absorption
       bands at wavelengths of 3.0 and 9.7 microns.
     * MASS: 18946 (NIST/EPA/MSDC Mass Spectral Database, 1990 Version)
     * IR: 97 (Sadtler Research Laboratories IR grating collection)
     * UV: 5-10 (Phillip et al., Organic Electronic Spectral Data, John
       Wiley and Sons, New York)
     * Raman: 624 (Raman Sadtler Research Laboratories spectral
       collection)
     * 1H NMR: 34 (Varian Associates NMR spectral collection)
     * 13C NMR: 30 FT (Johnson and Jankowski, Carbon-13 NMR Spectra, John
       Wiley and Sons, New York)

   from [13]HSDB

   Surface Tension
        25.68 mN/m @ 20 deg C; 22.11 mN/m @ 60 deg C
   from [14]HSDB

   Vapor Density
        2.00 (Air= 1)
   from [15]HSDB

   Vapor Pressure
        26.1 mm Hg @ 25 deg C /Extrapolated/
   from [16]HSDB

   Viscosity
        1.218 mPa s @ 25 deg C; 0.759 mPa s @ 50 deg C; 0.505 mPa s @ 75
   deg C
   from [17]HSDB

   Other Chemical/Physical Properties

     * Saturation concentration in air: 57 g/cu m @ 20 deg C; 98 g/cu m @
       30 deg C
     * Dipole moment: 1.63 D; dielectric constant: 20.3 @ 16.2 deg C
     * 1 mg/liter= 422 ppm; 1 ppm= 2.37 mg/cu m @ 25 deg C, 760 mm Hg
     * Bulk density: 7.11 lb/gal @ 20 deg C
     * Coefficient of expansion: 0.00101 per deg C at 20 deg C; becomes a
       glass at -190 deg C; forms binary azeotropes with allyl ether,
       benzene, 1-bromobutane, 1-bromopropane, chlorobenzene,
       1-chlorobutane, 1-chloro-3-methylbutane, 1-chloro-2-methylpropane,
       cyclohexane, cyclohexene, diethoxymethane, ethyl propionate, ethyl
       sulfide, heptane, hexane, isobutyl formate, 3-methyl-2-butanone,
       methyl butyrate, methyl carbonate, methylcyclohexane, methyl
       isobutyrate, octane, 2-pentanone, 3-pentanone, propyl acetate,
       propyl alcohol, propyl ether, toluene
     * Liquid heat capacity= 0.493 BTU/lb-F @ 70 deg F; Liquid thermal
       conductivity= 1.123 BTU-in/hr-sq ft-F at 77.09 deg F; Saturated
       vapor density= 0.00375 lb/cu ft @ 70 deg F; Ideal gas heat
       capacity= 0.327 BTU/lb-F @ 70 deg F
     * Enthalpy of formation: -171.8 kJ/mol (liquid); -124.5 kJ/mol (gas);
       heat capacity: 138-9 J/mol K
     * Azeotropic boiling point of 72.3% allyl alcohol and 27.7% water:
       88.89 deg C
     * Henry's Law constant = 4.99X10-6 atm-cu m/mole @ 25 deg C
     * Hydroxyl radical reaction rate constant = 2.59X10-11 cu cm/molecule
       sec @ 25 deg C

   from [18]HSDB

   Computed Properties
   Molecular Weight                  58.07914 [g/mol]
   Molecular Formula                 C[3]H[6]O
   XLogP3                            0.2
   H-Bond Donor                      1
   H-Bond Acceptor                   1
   Rotatable Bond Count              1
   Exact Mass                        58.041865
   MonoIsotopic Mass                 58.041865
   Topological Polar Surface Area    20.2
   Heavy Atom Count                  4
   Formal Charge                     0
   Complexity                        17.2
   Isotope Atom Count                0
   Defined Atom Stereocenter Count   0
   Undefined Atom Stereocenter Count 0
   Defined Bond Stereocenter Count   0
   Undefined Bond Stereocenter Count 0
   Covalently-Bonded Unit Count      1
   Feature 3D Acceptor Count         1
   Feature 3D Donor Count            1
   Feature 3D Hydrophobe Count       1
   Effective Rotor Count             1
   Conformer Sampling RMSD           0.4
   CID Conformer Count               [19]3

References

   1. http://toxnet.nlm.nih.gov/cgi-bin/sis/search/r?dbs+hsdb:@term+@rn+@rel+107-18-6
   2. http://toxnet.nlm.nih.gov/cgi-bin/sis/search/r?dbs+hsdb:@term+@rn+@rel+107-18-6
   3. http://toxnet.nlm.nih.gov/cgi-bin/sis/search/r?dbs+hsdb:@term+@rn+@rel+107-18-6
   4. http://toxnet.nlm.nih.gov/cgi-bin/sis/search/r?dbs+hsdb:@term+@rn+@rel+107-18-6
   5. http://toxnet.nlm.nih.gov/cgi-bin/sis/search/r?dbs+hsdb:@term+@rn+@rel+107-18-6
   6. http://toxnet.nlm.nih.gov/cgi-bin/sis/search/r?dbs+hsdb:@term+@rn+@rel+107-18-6
   7. http://toxnet.nlm.nih.gov/cgi-bin/sis/search/r?dbs+hsdb:@term+@rn+@rel+107-18-6
   8. http://toxnet.nlm.nih.gov/cgi-bin/sis/search/r?dbs+hsdb:@term+@rn+@rel+107-18-6
   9. http://toxnet.nlm.nih.gov/cgi-bin/sis/search/r?dbs+hsdb:@term+@rn+@rel+107-18-6
  10. http://toxnet.nlm.nih.gov/cgi-bin/sis/search/r?dbs+hsdb:@term+@rn+@rel+107-18-6
  11. http://toxnet.nlm.nih.gov/cgi-bin/sis/search/r?dbs+hsdb:@term+@rn+@rel+107-18-6
  12. http://toxnet.nlm.nih.gov/cgi-bin/sis/search/r?dbs+hsdb:@term+@rn+@rel+107-18-6
  13. http://toxnet.nlm.nih.gov/cgi-bin/sis/search/r?dbs+hsdb:@term+@rn+@rel+107-18-6
  14. http://toxnet.nlm.nih.gov/cgi-bin/sis/search/r?dbs+hsdb:@term+@rn+@rel+107-18-6
  15. http://toxnet.nlm.nih.gov/cgi-bin/sis/search/r?dbs+hsdb:@term+@rn+@rel+107-18-6
  16. http://toxnet.nlm.nih.gov/cgi-bin/sis/search/r?dbs+hsdb:@term+@rn+@rel+107-18-6
  17. http://toxnet.nlm.nih.gov/cgi-bin/sis/search/r?dbs+hsdb:@term+@rn+@rel+107-18-6
  18. http://toxnet.nlm.nih.gov/cgi-bin/sis/search/r?dbs+hsdb:@term+@rn+@rel+107-18-6
  19. http://pubchem.ncbi.nlm.nih.gov/vw3d/vw3d.cgi?cid=7858
