47205541
  -OEChem-06241222592D

 31 32  0     1  0  0  0  0  0999 V2000
    5.3147    1.0000    0.0000 O   0  0  0  0  0  0  0  0  0  0  0  0
    3.5827    0.0000    0.0000 N   0  0  0  0  0  0  0  0  0  0  0  0
    6.1808   -0.5000    0.0000 N   0  0  0  0  0  0  0  0  0  0  0  0
    2.0000    0.3364    0.0000 N   0  0  0  0  0  0  0  0  0  0  0  0
    7.9128   -0.5000    0.0000 N   0  0  0  0  0  0  0  0  0  0  0  0
    4.4487   -0.5000    0.0000 C   0  0  3  0  0  0  0  0  0  0  0  0
    4.4487   -1.5000    0.0000 C   0  0  0  0  0  0  0  0  0  0  0  0
    5.3147    0.0000    0.0000 C   0  0  0  0  0  0  0  0  0  0  0  0
    3.4782    0.9945    0.0000 C   0  0  0  0  0  0  0  0  0  0  0  0
    2.6691   -0.4067    0.0000 C   0  0  0  0  0  0  0  0  0  0  0  0
    7.0468    0.0000    0.0000 C   0  0  0  0  0  0  0  0  0  0  0  0
    2.5000    1.2024    0.0000 C   0  0  0  0  0  0  0  0  0  0  0  0
    7.0468    1.0000    0.0000 C   0  0  0  0  0  0  0  0  0  0  0  0
    8.7788    1.0000    0.0000 C   0  0  0  0  0  0  0  0  0  0  0  0
    7.9128    1.5000    0.0000 C   0  0  0  0  0  0  0  0  0  0  0  0
    8.7788    0.0000    0.0000 C   0  0  0  0  0  0  0  0  0  0  0  0
    9.6448    1.5000    0.0000 C   0  0  0  0  0  0  0  0  0  0  0  0
    3.9118   -0.8100    0.0000 H   0  0  0  0  0  0  0  0  0  0  0  0
    3.8287   -1.5000    0.0000 H   0  0  0  0  0  0  0  0  0  0  0  0
    4.4487   -2.1200    0.0000 H   0  0  0  0  0  0  0  0  0  0  0  0
    5.0687   -1.5000    0.0000 H   0  0  0  0  0  0  0  0  0  0  0  0
    3.9389    1.4094    0.0000 H   0  0  0  0  0  0  0  0  0  0  0  0
    6.1808   -1.1200    0.0000 H   0  0  0  0  0  0  0  0  0  0  0  0
    2.5402   -1.0132    0.0000 H   0  0  0  0  0  0  0  0  0  0  0  0
    2.2478    1.7688    0.0000 H   0  0  0  0  0  0  0  0  0  0  0  0
    6.5098    1.3100    0.0000 H   0  0  0  0  0  0  0  0  0  0  0  0
    7.9128    2.1200    0.0000 H   0  0  0  0  0  0  0  0  0  0  0  0
    9.3158   -0.3100    0.0000 H   0  0  0  0  0  0  0  0  0  0  0  0
    9.9548    0.9631    0.0000 H   0  0  0  0  0  0  0  0  0  0  0  0
   10.1818    1.8100    0.0000 H   0  0  0  0  0  0  0  0  0  0  0  0
    9.3348    2.0369    0.0000 H   0  0  0  0  0  0  0  0  0  0  0  0
  1  8  2  0  0  0  0
  2  6  1  0  0  0  0
  2  9  1  0  0  0  0
  2 10  1  0  0  0  0
  3  8  1  0  0  0  0
  3 11  1  0  0  0  0
  3 23  1  0  0  0  0
  4 10  2  0  0  0  0
  4 12  1  0  0  0  0
  5 11  2  0  0  0  0
  5 16  1  0  0  0  0
  6  7  1  0  0  0  0
  6  8  1  0  0  0  0
  6 18  1  0  0  0  0
  7 19  1  0  0  0  0
  7 20  1  0  0  0  0
  7 21  1  0  0  0  0
  9 12  2  0  0  0  0
  9 22  1  0  0  0  0
 10 24  1  0  0  0  0
 11 13  1  0  0  0  0
 12 25  1  0  0  0  0
 13 15  2  0  0  0  0
 13 26  1  0  0  0  0
 14 15  1  0  0  0  0
 14 16  2  0  0  0  0
 14 17  1  0  0  0  0
 15 27  1  0  0  0  0
 16 28  1  0  0  0  0
 17 29  1  0  0  0  0
 17 30  1  0  0  0  0
 17 31  1  0  0  0  0
M  END
> <PUBCHEM_COMPOUND_CID>
47205541

> <PUBCHEM_COMPOUND_CANONICALIZED>
1

> <PUBCHEM_CACTVS_COMPLEXITY>
271

> <PUBCHEM_CACTVS_HBOND_ACCEPTOR>
3

> <PUBCHEM_CACTVS_HBOND_DONOR>
1

> <PUBCHEM_CACTVS_ROTATABLE_BOND>
3

> <PUBCHEM_CACTVS_SUBSKEYS>
AAADccBzoAAAAAAAAAAAAAAAAAAAAWAAAAAsAAAAAAAAAAAB4AAAHgAQAAAADCjBmgQ/sJfMEACoAjN3dACCgC0xEqAJ2CG4dJiIaOLAmbGUIAholQLIyCYQAAAMAAAAAAAAAAAAAAAAAAAAAAAAAAAAAA==

> <PUBCHEM_IUPAC_OPENEYE_NAME>
2-imidazol-1-yl-N-(5-methyl-2-pyridyl)propanamide

> <PUBCHEM_IUPAC_CAS_NAME>
2-(1-imidazolyl)-N-(5-methyl-2-pyridinyl)propanamide

> <PUBCHEM_IUPAC_NAME>
2-imidazol-1-yl-N-(5-methylpyridin-2-yl)propanamide

> <PUBCHEM_IUPAC_SYSTEMATIC_NAME>
2-imidazol-1-yl-N-(5-methylpyridin-2-yl)propanamide

> <PUBCHEM_IUPAC_TRADITIONAL_NAME>
2-imidazol-1-yl-N-(5-methyl-2-pyridyl)propionamide

> <PUBCHEM_IUPAC_INCHI>
InChI=1S/C12H14N4O/c1-9-3-4-11(14-7-9)15-12(17)10(2)16-6-5-13-8-16/h3-8,10H,1-2H3,(H,14,15,17)

> <PUBCHEM_IUPAC_INCHIKEY>
NFDRPVKKAQVDHS-UHFFFAOYSA-N

> <PUBCHEM_XLOGP3_AA>
1

> <PUBCHEM_EXACT_MASS>
230.116761

> <PUBCHEM_MOLECULAR_FORMULA>
C12H14N4O

> <PUBCHEM_MOLECULAR_WEIGHT>
230.26576

> <PUBCHEM_OPENEYE_CAN_SMILES>
CC1=CN=C(C=C1)NC(=O)C(C)N2C=CN=C2

> <PUBCHEM_OPENEYE_ISO_SMILES>
CC1=CN=C(C=C1)NC(=O)C(C)N2C=CN=C2

> <PUBCHEM_CACTVS_TPSA>
59.8

> <PUBCHEM_MONOISOTOPIC_WEIGHT>
230.116761

> <PUBCHEM_TOTAL_CHARGE>
0

> <PUBCHEM_HEAVY_ATOM_COUNT>
17

> <PUBCHEM_ATOM_DEF_STEREO_COUNT>
0

> <PUBCHEM_ATOM_UDEF_STEREO_COUNT>
1

> <PUBCHEM_BOND_DEF_STEREO_COUNT>
0

> <PUBCHEM_BOND_UDEF_STEREO_COUNT>
0

> <PUBCHEM_ISOTOPIC_ATOM_COUNT>
0

> <PUBCHEM_COMPONENT_COUNT>
1

> <PUBCHEM_CACTVS_TAUTO_COUNT>
5

> <PUBCHEM_COORDINATE_TYPE>
1
5
255

> <PUBCHEM_BONDANNOTATIONS>
11  13  8
13  15  8
14  15  8
14  16  8
2  10  8
2  9  8
4  10  8
4  12  8
5  11  8
5  16  8
6  7  3
9  12  8

$$$$

