   Color/Form
        White to off-white crystalline powder
   from [1]HSDB

   Odor
        Odorless
   from [2]HSDB

   Octanol/Water Partition Coefficient
        log Kow = 7.1 at pH 7.0
   from [3]HSDB

   Solubilities

     * Very slightly soluble in water, with its solubility essentially pH
       dependent
     * In water, 2.1X10-3 mg/L at 25 deg C (est)

   from [4]HSDB

   Vapor Pressure
        1.5X10-10 mm Hg at 25 deg C (est)
   from [5]HSDB

   Other Chemical/Physical Properties

     * Henry's Law constant = 4.9X10-14 atm-cu m/mol at 25 deg C (est)
     * Hydroxyl radical reaction rate constant = 9.4X10-11 cu cm/molec-sec
       at 25 deg C (est)
     * Ozone radical reaction rate constant = 1.13X10-17 cu cm/molec-sec
       at 25 deg C (est)

   from [6]HSDB

   Computed Properties
   Molecular Weight                  414.4914 [g/mol]
   Molecular Formula                 C[24]H[30]O[6]
   XLogP3                            1.4
   H-Bond Donor                      0
   H-Bond Acceptor                   6
   Rotatable Bond Count              2
   Tautomer Count                    10
   Exact Mass                        414.204239
   MonoIsotopic Mass                 414.204239
   Topological Polar Surface Area    82.2
   Heavy Atom Count                  30
   Formal Charge                     0
   Complexity                        907
   Isotope Atom Count                0
   Defined Atom Stereocenter Count   8
   Undefined Atom Stereocenter Count 0
   Defined Bond Stereocenter Count   0
   Undefined Bond Stereocenter Count 0
   Covalently-Bonded Unit Count      1
   Feature 3D Acceptor Count         4
   Feature 3D Ring Count             5
   Effective Rotor Count             4.2
   Conformer Sampling RMSD           0.8
   CID Conformer Count               [7]2

References

   1. http://toxnet.nlm.nih.gov/cgi-bin/sis/search/r?dbs+hsdb:@term+@rn+@rel+107724-20-9
   2. http://toxnet.nlm.nih.gov/cgi-bin/sis/search/r?dbs+hsdb:@term+@rn+@rel+107724-20-9
   3. http://toxnet.nlm.nih.gov/cgi-bin/sis/search/r?dbs+hsdb:@term+@rn+@rel+107724-20-9
   4. http://toxnet.nlm.nih.gov/cgi-bin/sis/search/r?dbs+hsdb:@term+@rn+@rel+107724-20-9
   5. http://toxnet.nlm.nih.gov/cgi-bin/sis/search/r?dbs+hsdb:@term+@rn+@rel+107724-20-9
   6. http://toxnet.nlm.nih.gov/cgi-bin/sis/search/r?dbs+hsdb:@term+@rn+@rel+107724-20-9
   7. http://pubchem.ncbi.nlm.nih.gov/vw3d/vw3d.cgi?cid=443872
