11954087
  -OEChem-07051213062D

 57 60  0     1  0  0  0  0  0999 V2000
   10.8814    1.8120    0.0000 O   0  0  0  0  0  0  0  0  0  0  0  0
    3.7320   -2.1314    0.0000 O   0  0  0  0  0  0  0  0  0  0  0  0
    2.8718   -0.6281    0.0000 O   0  0  0  0  0  0  0  0  0  0  0  0
    9.1251    0.9209    0.0000 C   0  0  1  0  0  0  0  0  0  0  0  0
    9.1251   -0.0791    0.0000 C   0  0  2  0  0  0  0  0  0  0  0  0
    8.2591   -0.5791    0.0000 C   0  0  1  0  0  0  0  0  0  0  0  0
    7.3931   -0.0791    0.0000 C   0  0  1  0  0  0  0  0  0  0  0  0
   10.0713    1.2257    0.0000 C   0  0  2  0  0  0  0  0  0  0  0  0
    8.2591    1.4209    0.0000 C   0  0  0  0  0  0  0  0  0  0  0  0
   10.0713   -0.3838    0.0000 C   0  0  0  0  0  0  0  0  0  0  0  0
    6.4831   -0.5859    0.0000 C   0  0  2  0  0  0  0  0  0  0  0  0
    7.3931    0.9209    0.0000 C   0  0  0  0  0  0  0  0  0  0  0  0
   10.6550    0.4209    0.0000 C   0  0  0  0  0  0  0  0  0  0  0  0
    9.1251    1.9209    0.0000 C   0  0  0  0  0  0  0  0  0  0  0  0
    8.2752   -1.6206    0.0000 C   0  0  0  0  0  0  0  0  0  0  0  0
    6.4750   -1.6275    0.0000 C   0  0  0  0  0  0  0  0  0  0  0  0
    5.5562   -0.0218    0.0000 C   0  0  0  0  0  0  0  0  0  0  0  0
    9.7640    2.1772    0.0000 C   0  0  0  0  0  0  0  0  0  0  0  0
    6.4908    0.4140    0.0000 C   0  0  0  0  0  0  0  0  0  0  0  0
    7.3771   -2.1483    0.0000 C   0  0  0  0  0  0  0  0  0  0  0  0
    4.6084   -0.5498    0.0000 C   0  0  0  0  0  0  0  0  0  0  0  0
    5.5396   -2.1772    0.0000 C   0  0  0  0  0  0  0  0  0  0  0  0
    4.6000   -1.6348    0.0000 C   0  0  1  0  0  0  0  0  0  0  0  0
    2.8680   -1.6281    0.0000 C   0  0  0  0  0  0  0  0  0  0  0  0
    2.0000   -2.1247    0.0000 C   0  0  0  0  0  0  0  0  0  0  0  0
    9.2151   -0.9243    0.0000 H   0  0  0  0  0  0  0  0  0  0  0  0
    8.9985   -0.9984    0.0000 H   0  0  0  0  0  0  0  0  0  0  0  0
    8.1292    0.3459    0.0000 H   0  0  0  0  0  0  0  0  0  0  0  0
    8.6576    1.8959    0.0000 H   0  0  0  0  0  0  0  0  0  0  0  0
    7.8606    1.8959    0.0000 H   0  0  0  0  0  0  0  0  0  0  0  0
    9.8203   -0.9507    0.0000 H   0  0  0  0  0  0  0  0  0  0  0  0
   10.6087   -0.6930    0.0000 H   0  0  0  0  0  0  0  0  0  0  0  0
    7.1810    1.5035    0.0000 H   0  0  0  0  0  0  0  0  0  0  0  0
    6.7825    0.8133    0.0000 H   0  0  0  0  0  0  0  0  0  0  0  0
   11.1158    0.0062    0.0000 H   0  0  0  0  0  0  0  0  0  0  0  0
   11.1158    0.8357    0.0000 H   0  0  0  0  0  0  0  0  0  0  0  0
    9.7451    1.9209    0.0000 H   0  0  0  0  0  0  0  0  0  0  0  0
    9.1251    2.5409    0.0000 H   0  0  0  0  0  0  0  0  0  0  0  0
    8.5051    1.9209    0.0000 H   0  0  0  0  0  0  0  0  0  0  0  0
    8.8156   -1.9244    0.0000 H   0  0  0  0  0  0  0  0  0  0  0  0
    5.9644    0.4448    0.0000 H   0  0  0  0  0  0  0  0  0  0  0  0
    5.1663    0.4602    0.0000 H   0  0  0  0  0  0  0  0  0  0  0  0
   10.3540    2.3678    0.0000 H   0  0  0  0  0  0  0  0  0  0  0  0
    9.5734    2.7672    0.0000 H   0  0  0  0  0  0  0  0  0  0  0  0
    9.1740    1.9867    0.0000 H   0  0  0  0  0  0  0  0  0  0  0  0
    7.1108    0.4093    0.0000 H   0  0  0  0  0  0  0  0  0  0  0  0
    6.4956    1.0340    0.0000 H   0  0  0  0  0  0  0  0  0  0  0  0
    5.8708    0.4188    0.0000 H   0  0  0  0  0  0  0  0  0  0  0  0
    7.3795   -2.7683    0.0000 H   0  0  0  0  0  0  0  0  0  0  0  0
   11.4473    1.5589    0.0000 H   0  0  0  0  0  0  0  0  0  0  0  0
    4.4038    0.0355    0.0000 H   0  0  0  0  0  0  0  0  0  0  0  0
    3.9967   -0.6512    0.0000 H   0  0  0  0  0  0  0  0  0  0  0  0
    5.5420   -2.7972    0.0000 H   0  0  0  0  0  0  0  0  0  0  0  0
    4.0648   -1.3216    0.0000 H   0  0  0  0  0  0  0  0  0  0  0  0
    1.6921   -1.5866    0.0000 H   0  0  0  0  0  0  0  0  0  0  0  0
    1.4619   -2.4327    0.0000 H   0  0  0  0  0  0  0  0  0  0  0  0
    2.3079   -2.6629    0.0000 H   0  0  0  0  0  0  0  0  0  0  0  0
  8  1  1  1  0  0  0
  1 50  1  0  0  0  0
 23  2  1  1  0  0  0
  2 24  1  0  0  0  0
  3 24  2  0  0  0  0
  4  5  1  0  0  0  0
  4  8  1  0  0  0  0
  4  9  1  0  0  0  0
  4 14  1  1  0  0  0
  5  6  1  0  0  0  0
  5 10  1  0  0  0  0
  5 26  1  6  0  0  0
  6  7  1  0  0  0  0
  6 15  1  0  0  0  0
  6 27  1  1  0  0  0
  7 11  1  0  0  0  0
  7 12  1  0  0  0  0
  7 28  1  6  0  0  0
  8 13  1  0  0  0  0
  8 18  1  0  0  0  0
  9 12  1  0  0  0  0
  9 29  1  0  0  0  0
  9 30  1  0  0  0  0
 10 13  1  0  0  0  0
 10 31  1  0  0  0  0
 10 32  1  0  0  0  0
 11 16  1  0  0  0  0
 11 17  1  0  0  0  0
 11 19  1  1  0  0  0
 12 33  1  0  0  0  0
 12 34  1  0  0  0  0
 13 35  1  0  0  0  0
 13 36  1  0  0  0  0
 14 37  1  0  0  0  0
 14 38  1  0  0  0  0
 14 39  1  0  0  0  0
 15 20  2  0  0  0  0
 15 40  1  0  0  0  0
 16 20  1  0  0  0  0
 16 22  2  0  0  0  0
 17 21  1  0  0  0  0
 17 41  1  0  0  0  0
 17 42  1  0  0  0  0
 18 43  1  0  0  0  0
 18 44  1  0  0  0  0
 18 45  1  0  0  0  0
 19 46  1  0  0  0  0
 19 47  1  0  0  0  0
 19 48  1  0  0  0  0
 20 49  1  0  0  0  0
 21 23  1  0  0  0  0
 21 51  1  0  0  0  0
 21 52  1  0  0  0  0
 22 23  1  0  0  0  0
 22 53  1  0  0  0  0
 23 54  1  0  0  0  0
 24 25  1  0  0  0  0
 25 55  1  0  0  0  0
 25 56  1  0  0  0  0
 25 57  1  0  0  0  0
M  END
> <PUBCHEM_COMPOUND_CID>
11954087

> <PUBCHEM_COMPOUND_CANONICALIZED>
1

> <PUBCHEM_CACTVS_COMPLEXITY>
650

> <PUBCHEM_CACTVS_HBOND_ACCEPTOR>
3

> <PUBCHEM_CACTVS_HBOND_DONOR>
1

> <PUBCHEM_CACTVS_ROTATABLE_BOND>
2

> <PUBCHEM_CACTVS_SUBSKEYS>
AAADcfB4MAAAAAAAAAAAAAAAAAAAAYAAAAAwQIAAAAAAAGCAAAAAGgAACAAAD1SggAICCAAABgCIAiDSCAAAAAAgAAAICAAAAAgIBAIAIQACUAAEgAAIoAOAwPAPgAAAAAAAAACAAAQAACAAAYAADAAAAA==

> <PUBCHEM_IUPAC_OPENEYE_NAME>
[(3S,8R,9S,10R,13S,14S,17S)-17-hydroxy-10,13,17-trimethyl-1,2,3,8,9,11,12,14,15,16-decahydrocyclopenta[a]phenanthren-3-yl] acetate

> <PUBCHEM_IUPAC_CAS_NAME>
acetic acid [(3S,8R,9S,10R,13S,14S,17S)-17-hydroxy-10,13,17-trimethyl-1,2,3,8,9,11,12,14,15,16-decahydrocyclopenta[a]phenanthren-3-yl] ester

> <PUBCHEM_IUPAC_NAME>
[(3S,8R,9S,10R,13S,14S,17S)-17-hydroxy-10,13,17-trimethyl-1,2,3,8,9,11,12,14,15,16-decahydrocyclopenta[a]phenanthren-3-yl] acetate

> <PUBCHEM_IUPAC_SYSTEMATIC_NAME>
[(3S,8R,9S,10R,13S,14S,17S)-10,13,17-trimethyl-17-oxidanyl-1,2,3,8,9,11,12,14,15,16-decahydrocyclopenta[a]phenanthren-3-yl] ethanoate

> <PUBCHEM_IUPAC_TRADITIONAL_NAME>
acetic acid [(3S,8R,9S,10R,13S,14S,17S)-17-hydroxy-10,13,17-trimethyl-1,2,3,8,9,11,12,14,15,16-decahydrocyclopenta[a]phenanthren-3-yl] ester

> <PUBCHEM_IUPAC_INCHI>
InChI=1S/C22H32O3/c1-14(23)25-16-7-10-20(2)15(13-16)5-6-17-18(20)8-11-21(3)19(17)9-12-22(21,4)24/h5-6,13,16-19,24H,7-12H2,1-4H3/t16-,17+,18-,19-,20-,21-,22-/m0/s1

> <PUBCHEM_IUPAC_INCHIKEY>
CGBFTMGKAPXWPF-YRCTWBNTSA-N

> <PUBCHEM_XLOGP3_AA>
4

> <PUBCHEM_EXACT_MASS>
344.235145

> <PUBCHEM_MOLECULAR_FORMULA>
C22H32O3

> <PUBCHEM_MOLECULAR_WEIGHT>
344.48768

> <PUBCHEM_OPENEYE_CAN_SMILES>
CC(=O)OC1CCC2(C3CCC4(C(C3C=CC2=C1)CCC4(C)O)C)C

> <PUBCHEM_OPENEYE_ISO_SMILES>
CC(=O)O[C@H]1CC[C@@]2([C@H]3CC[C@]4([C@H]([C@@H]3C=CC2=C1)CC[C@]4(C)O)C)C

> <PUBCHEM_CACTVS_TPSA>
46.5

> <PUBCHEM_MONOISOTOPIC_WEIGHT>
344.235145

> <PUBCHEM_TOTAL_CHARGE>
0

> <PUBCHEM_HEAVY_ATOM_COUNT>
25

> <PUBCHEM_ATOM_DEF_STEREO_COUNT>
7

> <PUBCHEM_ATOM_UDEF_STEREO_COUNT>
0

> <PUBCHEM_BOND_DEF_STEREO_COUNT>
0

> <PUBCHEM_BOND_UDEF_STEREO_COUNT>
0

> <PUBCHEM_ISOTOPIC_ATOM_COUNT>
0

> <PUBCHEM_COMPONENT_COUNT>
1

> <PUBCHEM_CACTVS_TAUTO_COUNT>
1

> <PUBCHEM_COORDINATE_TYPE>
1
5
255

> <PUBCHEM_BONDANNOTATIONS>
8  1  5
11  19  5
23  2  5
4  14  5
5  26  6
6  27  5
7  28  6

$$$$

