91699
  -OEChem-07051213122D

 38 39  0     0  0  0  0  0  0999 V2000
    8.7788   -0.7500    0.0000 Cl  0  0  0  0  0  0  0  0  0  0  0  0
    7.0468    3.2500    0.0000 F   0  0  0  0  0  0  0  0  0  0  0  0
    8.0468    2.2500    0.0000 F   0  0  0  0  0  0  0  0  0  0  0  0
    6.0468    2.2500    0.0000 F   0  0  0  0  0  0  0  0  0  0  0  0
    3.5827   -0.7500    0.0000 O   0  0  0  0  0  0  0  0  0  0  0  0
    3.5827    1.2500    0.0000 N   0  0  0  0  0  0  0  0  0  0  0  0
    5.3147    1.2500    0.0000 N   0  0  0  0  0  0  0  0  0  0  0  0
    2.0000    1.5864    0.0000 N   0  0  0  0  0  0  0  0  0  0  0  0
    4.4487    0.7500    0.0000 C   0  0  0  0  0  0  0  0  0  0  0  0
    4.4487   -0.2500    0.0000 C   0  0  0  0  0  0  0  0  0  0  0  0
    3.5827   -1.7500    0.0000 C   0  0  0  0  0  0  0  0  0  0  0  0
    6.1808    0.7500    0.0000 C   0  0  0  0  0  0  0  0  0  0  0  0
    2.7166   -2.2500    0.0000 C   0  0  0  0  0  0  0  0  0  0  0  0
    7.0468    1.2500    0.0000 C   0  0  0  0  0  0  0  0  0  0  0  0
    6.1808   -0.2500    0.0000 C   0  0  0  0  0  0  0  0  0  0  0  0
    7.9128    0.7500    0.0000 C   0  0  0  0  0  0  0  0  0  0  0  0
    3.4782    2.2445    0.0000 C   0  0  0  0  0  0  0  0  0  0  0  0
    2.7166   -3.2500    0.0000 C   0  0  0  0  0  0  0  0  0  0  0  0
    2.6691    0.8433    0.0000 C   0  0  0  0  0  0  0  0  0  0  0  0
    7.0468    2.2500    0.0000 C   0  0  0  0  0  0  0  0  0  0  0  0
    7.0468   -0.7500    0.0000 C   0  0  0  0  0  0  0  0  0  0  0  0
    7.9128   -0.2500    0.0000 C   0  0  0  0  0  0  0  0  0  0  0  0
    2.5000    2.4524    0.0000 C   0  0  0  0  0  0  0  0  0  0  0  0
    4.6608   -0.8326    0.0000 H   0  0  0  0  0  0  0  0  0  0  0  0
    5.0593   -0.1423    0.0000 H   0  0  0  0  0  0  0  0  0  0  0  0
    3.7947   -2.3326    0.0000 H   0  0  0  0  0  0  0  0  0  0  0  0
    4.1933   -1.6423    0.0000 H   0  0  0  0  0  0  0  0  0  0  0  0
    2.5046   -1.6674    0.0000 H   0  0  0  0  0  0  0  0  0  0  0  0
    2.1061   -2.3577    0.0000 H   0  0  0  0  0  0  0  0  0  0  0  0
    5.6438   -0.5600    0.0000 H   0  0  0  0  0  0  0  0  0  0  0  0
    8.4497    1.0600    0.0000 H   0  0  0  0  0  0  0  0  0  0  0  0
    3.9389    2.6594    0.0000 H   0  0  0  0  0  0  0  0  0  0  0  0
    2.0966   -3.2500    0.0000 H   0  0  0  0  0  0  0  0  0  0  0  0
    2.7166   -3.8700    0.0000 H   0  0  0  0  0  0  0  0  0  0  0  0
    3.3366   -3.2500    0.0000 H   0  0  0  0  0  0  0  0  0  0  0  0
    2.5402    0.2368    0.0000 H   0  0  0  0  0  0  0  0  0  0  0  0
    7.0468   -1.3700    0.0000 H   0  0  0  0  0  0  0  0  0  0  0  0
    2.2478    3.0188    0.0000 H   0  0  0  0  0  0  0  0  0  0  0  0
  1 22  1  0  0  0  0
  2 20  1  0  0  0  0
  3 20  1  0  0  0  0
  4 20  1  0  0  0  0
  5 10  1  0  0  0  0
  5 11  1  0  0  0  0
  6  9  1  0  0  0  0
  6 17  1  0  0  0  0
  6 19  1  0  0  0  0
  7  9  2  0  0  0  0
  7 12  1  0  0  0  0
  8 19  2  0  0  0  0
  8 23  1  0  0  0  0
  9 10  1  0  0  0  0
 10 24  1  0  0  0  0
 10 25  1  0  0  0  0
 11 13  1  0  0  0  0
 11 26  1  0  0  0  0
 11 27  1  0  0  0  0
 12 14  2  0  0  0  0
 12 15  1  0  0  0  0
 13 18  1  0  0  0  0
 13 28  1  0  0  0  0
 13 29  1  0  0  0  0
 14 16  1  0  0  0  0
 14 20  1  0  0  0  0
 15 21  2  0  0  0  0
 15 30  1  0  0  0  0
 16 22  2  0  0  0  0
 16 31  1  0  0  0  0
 17 23  2  0  0  0  0
 17 32  1  0  0  0  0
 18 33  1  0  0  0  0
 18 34  1  0  0  0  0
 18 35  1  0  0  0  0
 19 36  1  0  0  0  0
 21 22  1  0  0  0  0
 21 37  1  0  0  0  0
 23 38  1  0  0  0  0
M  END
> <PUBCHEM_COMPOUND_CID>
91699

> <PUBCHEM_COMPOUND_CANONICALIZED>
1

> <PUBCHEM_CACTVS_COMPLEXITY>
406

> <PUBCHEM_CACTVS_HBOND_ACCEPTOR>
6

> <PUBCHEM_CACTVS_HBOND_DONOR>
0

> <PUBCHEM_CACTVS_ROTATABLE_BOND>
6

> <PUBCHEM_CACTVS_SUBSKEYS>
AAADccBzIYAEAAAAAAAAAAAAAAAAAWAAAAAwAAAAAAAAAAABwAAAHwIAAAAADArhmjY/0JcMFACgAjZnZASCgC0xF6AJyAAYdoiKaCKBm5GTIABogAKYyCcQgAAOAABAIAACAAAAAIBAAAQAAAAAAAAAAA==

> <PUBCHEM_IUPAC_OPENEYE_NAME>
N-[4-chloro-2-(trifluoromethyl)phenyl]-1-imidazol-1-yl-2-propoxy-ethanimine

> <PUBCHEM_IUPAC_CAS_NAME>
N-[4-chloro-2-(trifluoromethyl)phenyl]-1-(1-imidazolyl)-2-propoxyethanimine

> <PUBCHEM_IUPAC_NAME>
N-[4-chloro-2-(trifluoromethyl)phenyl]-1-imidazol-1-yl-2-propoxyethanimine

> <PUBCHEM_IUPAC_SYSTEMATIC_NAME>
N-[4-chloranyl-2-(trifluoromethyl)phenyl]-1-imidazol-1-yl-2-propoxy-ethanimine

> <PUBCHEM_IUPAC_TRADITIONAL_NAME>
[4-chloro-2-(trifluoromethyl)phenyl]-(1-imidazol-1-yl-2-propoxy-ethylidene)amine

> <PUBCHEM_IUPAC_INCHI>
InChI=1S/C15H15ClF3N3O/c1-2-7-23-9-14(22-6-5-20-10-22)21-13-4-3-11(16)8-12(13)15(17,18)19/h3-6,8,10H,2,7,9H2,1H3

> <PUBCHEM_IUPAC_INCHIKEY>
HSMVPDGQOIQYSR-UHFFFAOYSA-N

> <PUBCHEM_XLOGP3_AA>
4

> <PUBCHEM_EXACT_MASS>
345.085574

> <PUBCHEM_MOLECULAR_FORMULA>
C15H15ClF3N3O

> <PUBCHEM_MOLECULAR_WEIGHT>
345.74731

> <PUBCHEM_OPENEYE_CAN_SMILES>
CCCOCC(=NC1=C(C=C(C=C1)Cl)C(F)(F)F)N2C=CN=C2

> <PUBCHEM_OPENEYE_ISO_SMILES>
CCCOCC(=NC1=C(C=C(C=C1)Cl)C(F)(F)F)N2C=CN=C2

> <PUBCHEM_CACTVS_TPSA>
39.4

> <PUBCHEM_MONOISOTOPIC_WEIGHT>
345.085574

> <PUBCHEM_TOTAL_CHARGE>
0

> <PUBCHEM_HEAVY_ATOM_COUNT>
23

> <PUBCHEM_ATOM_DEF_STEREO_COUNT>
0

> <PUBCHEM_ATOM_UDEF_STEREO_COUNT>
0

> <PUBCHEM_BOND_DEF_STEREO_COUNT>
0

> <PUBCHEM_BOND_UDEF_STEREO_COUNT>
0

> <PUBCHEM_ISOTOPIC_ATOM_COUNT>
0

> <PUBCHEM_COMPONENT_COUNT>
1

> <PUBCHEM_CACTVS_TAUTO_COUNT>
2

> <PUBCHEM_COORDINATE_TYPE>
1
5
255

> <PUBCHEM_BONDANNOTATIONS>
12  14  8
12  15  8
14  16  8
15  21  8
16  22  8
17  23  8
21  22  8
6  17  8
6  19  8
8  19  8
8  23  8

$$$$

