656885
  -OEChem-07051213042D

 31 32  0     1  0  0  0  0  0999 V2000
    2.5369   -0.0173    0.0000 O   0  0  0  0  0  0  0  0  0  0  0  0
    3.4030   -1.5173    0.0000 O   0  0  0  0  0  0  0  0  0  0  0  0
    6.0010   -0.0173    0.0000 C   0  0  3  0  0  0  0  0  0  0  0  0
    6.0010    0.9827    0.0000 C   0  0  3  0  0  0  0  0  0  0  0  0
    5.1350   -0.5173    0.0000 C   0  0  0  0  0  0  0  0  0  0  0  0
    5.1350    1.4827    0.0000 C   0  0  0  0  0  0  0  0  0  0  0  0
    6.8950   -0.5520    0.0000 C   0  0  0  0  0  0  0  0  0  0  0  0
    6.8950    1.5173    0.0000 C   0  0  0  0  0  0  0  0  0  0  0  0
    4.2690   -0.0173    0.0000 C   0  0  3  0  0  0  0  0  0  0  0  0
    4.2690    0.9827    0.0000 C   0  0  0  0  0  0  0  0  0  0  0  0
    7.8010   -0.0381    0.0000 C   0  0  0  0  0  0  0  0  0  0  0  0
    7.8010    1.0035    0.0000 C   0  0  0  0  0  0  0  0  0  0  0  0
    3.4030   -0.5173    0.0000 C   0  0  0  0  0  0  0  0  0  0  0  0
    5.9963   -0.6373    0.0000 H   0  0  0  0  0  0  0  0  0  0  0  0
    5.9963    1.6026    0.0000 H   0  0  0  0  0  0  0  0  0  0  0  0
    4.7365   -0.9923    0.0000 H   0  0  0  0  0  0  0  0  0  0  0  0
    5.5335   -0.9923    0.0000 H   0  0  0  0  0  0  0  0  0  0  0  0
    5.5335    1.9576    0.0000 H   0  0  0  0  0  0  0  0  0  0  0  0
    4.7365    1.9576    0.0000 H   0  0  0  0  0  0  0  0  0  0  0  0
    6.4904   -1.0218    0.0000 H   0  0  0  0  0  0  0  0  0  0  0  0
    7.2886   -1.0310    0.0000 H   0  0  0  0  0  0  0  0  0  0  0  0
    7.2886    1.9964    0.0000 H   0  0  0  0  0  0  0  0  0  0  0  0
    6.4904    1.9871    0.0000 H   0  0  0  0  0  0  0  0  0  0  0  0
    4.2690   -0.6373    0.0000 H   0  0  0  0  0  0  0  0  0  0  0  0
    4.0569    1.5653    0.0000 H   0  0  0  0  0  0  0  0  0  0  0  0
    3.6584    0.8750    0.0000 H   0  0  0  0  0  0  0  0  0  0  0  0
    8.0101   -0.6218    0.0000 H   0  0  0  0  0  0  0  0  0  0  0  0
    8.4119    0.0679    0.0000 H   0  0  0  0  0  0  0  0  0  0  0  0
    8.4119    0.8974    0.0000 H   0  0  0  0  0  0  0  0  0  0  0  0
    8.0101    1.5872    0.0000 H   0  0  0  0  0  0  0  0  0  0  0  0
    2.0000   -0.3273    0.0000 H   0  0  0  0  0  0  0  0  0  0  0  0
  1 13  1  0  0  0  0
  1 31  1  0  0  0  0
  2 13  2  0  0  0  0
  3  4  1  0  0  0  0
  3  5  1  0  0  0  0
  3  7  1  0  0  0  0
  3 14  1  0  0  0  0
  4  6  1  0  0  0  0
  4  8  1  0  0  0  0
  4 15  1  0  0  0  0
  5  9  1  0  0  0  0
  5 16  1  0  0  0  0
  5 17  1  0  0  0  0
  6 10  1  0  0  0  0
  6 18  1  0  0  0  0
  6 19  1  0  0  0  0
  7 11  1  0  0  0  0
  7 20  1  0  0  0  0
  7 21  1  0  0  0  0
  8 12  1  0  0  0  0
  8 22  1  0  0  0  0
  8 23  1  0  0  0  0
  9 10  1  0  0  0  0
  9 13  1  0  0  0  0
  9 24  1  0  0  0  0
 10 25  1  0  0  0  0
 10 26  1  0  0  0  0
 11 12  1  0  0  0  0
 11 27  1  0  0  0  0
 11 28  1  0  0  0  0
 12 29  1  0  0  0  0
 12 30  1  0  0  0  0
M  END
> <PUBCHEM_COMPOUND_CID>
656885

> <PUBCHEM_COMPOUND_CANONICALIZED>
1

> <PUBCHEM_CACTVS_COMPLEXITY>
200

> <PUBCHEM_CACTVS_HBOND_ACCEPTOR>
2

> <PUBCHEM_CACTVS_HBOND_DONOR>
1

> <PUBCHEM_CACTVS_ROTATABLE_BOND>
1

> <PUBCHEM_CACTVS_SUBSKEYS>
AAADceBwMAAAAAAAAAAAAAAAAAAAAAAAAAAwYAAAAAAAAADAAAAAGgAACAAADQCAgAAACAAAAgAIAACQCAAAAAAAAAAAAAEAAAAAABIAAAAAQAAEAAAAAAGIyPCOgAAAAAAAAACAAAQAACAAAAAAAAAAAA==

> <PUBCHEM_IUPAC_OPENEYE_NAME>
decalin-2-carboxylic acid

> <PUBCHEM_IUPAC_CAS_NAME>
1,2,3,4,4a,5,6,7,8,8a-decahydronaphthalene-2-carboxylic acid

> <PUBCHEM_IUPAC_NAME>
1,2,3,4,4a,5,6,7,8,8a-decahydronaphthalene-2-carboxylic acid

> <PUBCHEM_IUPAC_SYSTEMATIC_NAME>
1,2,3,4,4a,5,6,7,8,8a-decahydronaphthalene-2-carboxylic acid

> <PUBCHEM_IUPAC_TRADITIONAL_NAME>
decalin-2-carboxylic acid

> <PUBCHEM_IUPAC_INCHI>
InChI=1S/C11H18O2/c12-11(13)10-6-5-8-3-1-2-4-9(8)7-10/h8-10H,1-7H2,(H,12,13)

> <PUBCHEM_IUPAC_INCHIKEY>
MYVFQFVSXKPBEM-UHFFFAOYSA-N

> <PUBCHEM_XLOGP3_AA>
3.2

> <PUBCHEM_EXACT_MASS>
182.13068

> <PUBCHEM_MOLECULAR_FORMULA>
C11H18O2

> <PUBCHEM_MOLECULAR_WEIGHT>
182.25942

> <PUBCHEM_OPENEYE_CAN_SMILES>
C1CCC2CC(CCC2C1)C(=O)O

> <PUBCHEM_OPENEYE_ISO_SMILES>
C1CCC2CC(CCC2C1)C(=O)O

> <PUBCHEM_CACTVS_TPSA>
37.3

> <PUBCHEM_MONOISOTOPIC_WEIGHT>
182.13068

> <PUBCHEM_TOTAL_CHARGE>
0

> <PUBCHEM_HEAVY_ATOM_COUNT>
13

> <PUBCHEM_ATOM_DEF_STEREO_COUNT>
0

> <PUBCHEM_ATOM_UDEF_STEREO_COUNT>
3

> <PUBCHEM_BOND_DEF_STEREO_COUNT>
0

> <PUBCHEM_BOND_UDEF_STEREO_COUNT>
0

> <PUBCHEM_ISOTOPIC_ATOM_COUNT>
0

> <PUBCHEM_COMPONENT_COUNT>
1

> <PUBCHEM_CACTVS_TAUTO_COUNT>
1

> <PUBCHEM_COORDINATE_TYPE>
1
5
255

> <PUBCHEM_BONDANNOTATIONS>
3  5  3
4  8  3
9  13  3

$$$$

