   Color/Form

     * CLEAR, COLORLESS, OILY LIQUID
     * DARK RED OIL

   from [1]HSDB

   Odor

     * BITTER ALMOND-LIKE ODOR
     * PUNGENT, IRRITATING ODOR SIMILAR TO BENZENALDEHYDE, ACETOPHENONE, &
       NITROBENZENE, BUT WITH PHENOLIC NOTES
     * PHENOLIC ODOR

   from [2]HSDB

   Taste

     * NUT-LIKE, COUMARIN FLAVOR AT LOW LEVELS
     * BURNING TASTE
     * SPICY, NUT TASTE

   from [3]HSDB

   Boiling Point
        197 DEG C @ 760 MM HG
   from [4]HSDB

   Melting Point
        -7 DEG C
   from [5]HSDB

   Density/Specific Gravity
        1.1674 @ 20 DEG C/4 DEG C
   from [6]HSDB

   Octanol/Water Partition Coefficient
        log Kow = 1.81
   from [7]HSDB

   Solubilities

     * SLIGHTLY SOL IN WATER; MISCIBLE WITH ALC, ETHER; VERY SOL IN
       ACETONE, BENZENE
     * SOL IN MOST ORGANIC SOLVENTS
     * water solubility = 1.7X10+4 mg/l @ 86 deg C

   from [8]HSDB

   Spectral Properties

     * INDEX OF REFRACTION: 1.5740 @ 20 DEG C/D; SADTLER REF NUMBER: 9989
       (IR, PRISM); MAX ABSORPTION (HEXANE): 257 NM (LOG E= 4.07); 324 NM
       (LOG E= 3.56)
     * IR: 8567 (Sadtler Research Laboratories IR Grating Collection)
     * UV: 2646 (Sadtler Research Laboratories Spectral Collection)
     * NMR: 3232 (Sadtler Research Laboratories Spectral Collection)
     * MASS: 502 (Atlas of Mass Spectral Data, John Wiley & Sons, New
       York)

   from [9]HSDB

   Vapor Density
        4.2 (AIR= 1)
   from [10]HSDB

   Vapor Pressure
        vapor pressure = 0.593 mm Hg @ 25 deg C /calculated from
   experimentally derived coefficients/
   from [11]HSDB

   Other Chemical/Physical Properties

     * WITH SULFURIC ACID IT GIVES AN ORANGE COLOR
     * CONVERSION FACTORS: 1 MG/L IS EQUIVALENT TO 200 PPM; 1 PPM IS
       EQUIVALENT TO 5.0 MG/CU M
     * CONGEALING POINT: 1.6 DEG C
     * IR: 1576 (Coblentz Society Spectral Collection) /Benzaldehyde,
       3-hydroxy/
     * UV: 562 (Sadtler Research Laboratories Spectral Collection)
       /Benzaldehyde, 3-hydroxy/
     * NMR: 7840 (Sadtler Research Laboratories Spectral Collection)
       /Benzaldehyde, 3-hydroxy/
     * MASS: 198 (National Bureau of Standards EPA-NIH Mass Spectra Data
       Base, NSRDS-NBS-63) /Benzaldehyde, 3-hydroxy/
     * IR: 4315 (Coblentz Society Spectral Collection) /Benzaldehyde,
       4-hydroxy/
     * UV: 1266 (Sadtler Research Laboratories Spectral Collection)
       /Benzaldehyde, 4-hydroxy/
     * NMR: 7349 (Sadtler Research Laboratories Spectral Collection)
       /Benzaldehyde, 4-hydroxy/
     * MASS: 1-305 (Archives of Mass Spectral Data, John Wiley & Sons, New
       York) /Benzaldehyde, 4-hydroxy/

   from [12]HSDB

   Computed Properties
   Molecular Weight                  122.12134 [g/mol]
   Molecular Formula                 C[7]H[6]O[2]
   XLogP3                            1.8
   H-Bond Donor                      1
   H-Bond Acceptor                   2
   Rotatable Bond Count              1
   Tautomer Count                    5
   Exact Mass                        122.036779
   MonoIsotopic Mass                 122.036779
   Topological Polar Surface Area    37.3
   Heavy Atom Count                  9
   Formal Charge                     0
   Complexity                        101
   Isotope Atom Count                0
   Defined Atom Stereocenter Count   0
   Undefined Atom Stereocenter Count 0
   Defined Bond Stereocenter Count   0
   Undefined Bond Stereocenter Count 0
   Covalently-Bonded Unit Count      1
   Feature 3D Acceptor Count         1
   Feature 3D Donor Count            1
   Feature 3D Ring Count             1
   Effective Rotor Count             1
   Conformer Sampling RMSD           0.4
   CID Conformer Count               [13]2

References

   1. http://toxnet.nlm.nih.gov/cgi-bin/sis/search/r?dbs+hsdb:@term+@rn+@rel+90-02-8
   2. http://toxnet.nlm.nih.gov/cgi-bin/sis/search/r?dbs+hsdb:@term+@rn+@rel+90-02-8
   3. http://toxnet.nlm.nih.gov/cgi-bin/sis/search/r?dbs+hsdb:@term+@rn+@rel+90-02-8
   4. http://toxnet.nlm.nih.gov/cgi-bin/sis/search/r?dbs+hsdb:@term+@rn+@rel+90-02-8
   5. http://toxnet.nlm.nih.gov/cgi-bin/sis/search/r?dbs+hsdb:@term+@rn+@rel+90-02-8
   6. http://toxnet.nlm.nih.gov/cgi-bin/sis/search/r?dbs+hsdb:@term+@rn+@rel+90-02-8
   7. http://toxnet.nlm.nih.gov/cgi-bin/sis/search/r?dbs+hsdb:@term+@rn+@rel+90-02-8
   8. http://toxnet.nlm.nih.gov/cgi-bin/sis/search/r?dbs+hsdb:@term+@rn+@rel+90-02-8
   9. http://toxnet.nlm.nih.gov/cgi-bin/sis/search/r?dbs+hsdb:@term+@rn+@rel+90-02-8
  10. http://toxnet.nlm.nih.gov/cgi-bin/sis/search/r?dbs+hsdb:@term+@rn+@rel+90-02-8
  11. http://toxnet.nlm.nih.gov/cgi-bin/sis/search/r?dbs+hsdb:@term+@rn+@rel+90-02-8
  12. http://toxnet.nlm.nih.gov/cgi-bin/sis/search/r?dbs+hsdb:@term+@rn+@rel+90-02-8
  13. http://pubchem.ncbi.nlm.nih.gov/vw3d/vw3d.cgi?cid=6998
