   Color/Form

     * Monoclinic sphenoidal crystals, crystalline masses, blocks, or
       powder
     * Hard, white ... crystals, lumps, or powder ...

   from [1]HSDB

   Odor

     * Characteristic caramel
     * ... Odorless ... [Note: May have a characteristic caramel odor when
       heated].

   from [2]HSDB

   Taste
        Sweet
   from [3]HSDB

   Melting Point
        185.5 deg C
   from [4]HSDB

   Density/Specific Gravity
        1.5805 g/cu cm @ 17 deg C
   from [5]HSDB

   Dissociation Constants
        pKa= 12.62
   from [6]HSDB

   Heat of Combustion
        -1.35X10+6 cal/mol
   from [7]HSDB

   Octanol/Water Partition Coefficient
        log Kow = -3.70
   from [8]HSDB

   pH
        Soln are neutral to litmus
   from [9]HSDB

   Solubilities

     * 1 g dissolves in 0.5 ml water, 170 ml alcohol, about 100 ml
       methanol. Moderately sol in glycerol, pyridine.
     * Very soluble in water, methanol; slightly soluble in ethanol;
       insoluble in ethyl ether.
     * water solubility = 2.12X10+6 mg/l @ 25 deg C

   from [10]HSDB

   Spectral Properties

     * INDEX OF REFRACTION: 1.5376; SADTLER REFERENCE NUMBER: 8659 (IR,
       PRISM), 563 (IR, GRATING); SPECIFIC OPTICAL ROTATION: +66.37 @ 20
       DEG C/D (WATER)
     * IR: 3335 (Coblentz Society Spectral Collection)
     * NMR: 6242 (Sadtler Research Laboratories Spectral Collection)
     * MASS: 4955 (National Bureau of Standards EPA-NIH Mass Spectra Data
       Base, NSRDS-NBS-63)

   from [11]HSDB

   Surface Tension
        71-75 mN/m @ 1-0.6 mol/l
   from [12]HSDB

   Other Chemical/Physical Properties

     * Decomp @ 160-186 deg C; does not reduce Fehling's soln, form
       osazone, or show mutarotation; hydrolyzed to glucose and fructose
       by dil acids and by invertase, a yeast enzyme; upon hydrolysis
       optical rotation falls and is negative when hydrolysis is complete.
     * Surface tension of aqueous solution (0.1-0.6 mol/l) = 71-75 mN/m
     * Enthalpy of formation = 86 cal/mol-deg K

   from [13]HSDB

   Computed Properties
   Molecular Weight                  342.29648 [g/mol]
   Molecular Formula                 C[12]H[22]O[11]
   XLogP3                            -3.7
   H-Bond Donor                      8
   H-Bond Acceptor                   11
   Rotatable Bond Count              5
   Exact Mass                        342.116212
   MonoIsotopic Mass                 342.116212
   Topological Polar Surface Area    190
   Heavy Atom Count                  23
   Formal Charge                     0
   Complexity                        395
   Isotope Atom Count                0
   Defined Atom Stereocenter Count   9
   Undefined Atom Stereocenter Count 0
   Defined Bond Stereocenter Count   0
   Undefined Bond Stereocenter Count 0
   Covalently-Bonded Unit Count      1
   Feature 3D Acceptor Count         11
   Feature 3D Donor Count            8
   Feature 3D Ring Count             2
   Effective Rotor Count             7.2
   Conformer Sampling RMSD           0.8
   CID Conformer Count               [14]7

References

   1. http://toxnet.nlm.nih.gov/cgi-bin/sis/search/r?dbs+hsdb:@term+@rn+@rel+57-50-1
   2. http://toxnet.nlm.nih.gov/cgi-bin/sis/search/r?dbs+hsdb:@term+@rn+@rel+57-50-1
   3. http://toxnet.nlm.nih.gov/cgi-bin/sis/search/r?dbs+hsdb:@term+@rn+@rel+57-50-1
   4. http://toxnet.nlm.nih.gov/cgi-bin/sis/search/r?dbs+hsdb:@term+@rn+@rel+57-50-1
   5. http://toxnet.nlm.nih.gov/cgi-bin/sis/search/r?dbs+hsdb:@term+@rn+@rel+57-50-1
   6. http://toxnet.nlm.nih.gov/cgi-bin/sis/search/r?dbs+hsdb:@term+@rn+@rel+57-50-1
   7. http://toxnet.nlm.nih.gov/cgi-bin/sis/search/r?dbs+hsdb:@term+@rn+@rel+57-50-1
   8. http://toxnet.nlm.nih.gov/cgi-bin/sis/search/r?dbs+hsdb:@term+@rn+@rel+57-50-1
   9. http://toxnet.nlm.nih.gov/cgi-bin/sis/search/r?dbs+hsdb:@term+@rn+@rel+57-50-1
  10. http://toxnet.nlm.nih.gov/cgi-bin/sis/search/r?dbs+hsdb:@term+@rn+@rel+57-50-1
  11. http://toxnet.nlm.nih.gov/cgi-bin/sis/search/r?dbs+hsdb:@term+@rn+@rel+57-50-1
  12. http://toxnet.nlm.nih.gov/cgi-bin/sis/search/r?dbs+hsdb:@term+@rn+@rel+57-50-1
  13. http://toxnet.nlm.nih.gov/cgi-bin/sis/search/r?dbs+hsdb:@term+@rn+@rel+57-50-1
  14. http://pubchem.ncbi.nlm.nih.gov/vw3d/vw3d.cgi?cid=5988
