   Color/Form
        LIQUID
   from [1]HSDB

   Boiling Point
        100-102 DEG C @ 2 MM HG
   from [2]HSDB

   Spectral Properties
        Intense mass spectral peaks: 58 m/z, 107 m/z, 125 m/z, 168 m/z
   from [3]HSDB

   Other Chemical/Physical Properties

     * CRYSTALS FROM ALCOHOL + ETHER; MP: 234 DEG C; PH OF 1% AQ SOLN:
       APPROX 5.5; SOL IN WATER: >20% /CHLORPHENTERMINE HYDROCHLORIDE/
     * MAX ABSORPTION: 266 NM (A= 11, 1%, 1 CM); MAX ABSORPTION (WATER):
       259 (A= 48, 1%, 1 CM); 268 NM (A= 52, 1%, 1 CM); 278 NM (A= 40, 1%,
       1 CM) /CHLORPHENTERMINE HYDROCHLORIDE/
     * WHITE TO OFF-WHITE POWDER; ODORLESS & HAS BITTER TASTE; FREELY SOL
       IN WATER & ALC; SPARINGLY SOL IN CHLOROFORM; PRACTICALLY INSOL IN
       ETHER /CHLORPHENTERMINE HYDROCHLORIDE/

   from [4]HSDB

   Computed Properties
   Molecular Weight                  183.67786 [g/mol]
   Molecular Formula                 C[10]H[14]ClN
   XLogP3                            2.6
   H-Bond Donor                      1
   H-Bond Acceptor                   1
   Rotatable Bond Count              2
   Exact Mass                        183.081477
   MonoIsotopic Mass                 183.081477
   Topological Polar Surface Area    26
   Heavy Atom Count                  12
   Formal Charge                     0
   Complexity                        137
   Isotope Atom Count                0
   Defined Atom Stereocenter Count   0
   Undefined Atom Stereocenter Count 0
   Defined Bond Stereocenter Count   0
   Undefined Bond Stereocenter Count 0
   Covalently-Bonded Unit Count      1
   Feature 3D Donor Count            1
   Feature 3D Cation Count           1
   Feature 3D Hydrophobe Count       1
   Feature 3D Ring Count             1
   Effective Rotor Count             2
   Conformer Sampling RMSD           0.6
   CID Conformer Count               [5]3

References

   1. http://toxnet.nlm.nih.gov/cgi-bin/sis/search/r?dbs+hsdb:@term+@rn+@rel+461-78-9
   2. http://toxnet.nlm.nih.gov/cgi-bin/sis/search/r?dbs+hsdb:@term+@rn+@rel+461-78-9
   3. http://toxnet.nlm.nih.gov/cgi-bin/sis/search/r?dbs+hsdb:@term+@rn+@rel+461-78-9
   4. http://toxnet.nlm.nih.gov/cgi-bin/sis/search/r?dbs+hsdb:@term+@rn+@rel+461-78-9
   5. http://pubchem.ncbi.nlm.nih.gov/vw3d/vw3d.cgi?cid=10007
