172502
  -OEChem-07051212492D

 73 75  0     1  0  0  0  0  0999 V2000
    9.4651    0.2512    0.0000 P   0  0  3  0  0  0  0  0  0  0  0  0
   11.1972    0.2512    0.0000 P   0  0  3  0  0  0  0  0  0  0  0  0
    7.7331   -0.7488    0.0000 O   0  0  0  0  0  0  0  0  0  0  0  0
   14.7088    0.3445    0.0000 O   0  0  0  0  0  0  0  0  0  0  0  0
    5.1350    0.7512    0.0000 O   0  0  0  0  0  0  0  0  0  0  0  0
    8.5991    0.7512    0.0000 O   0  0  0  0  0  0  0  0  0  0  0  0
    5.1350   -1.2488    0.0000 O   0  0  0  0  0  0  0  0  0  0  0  0
   13.1566    2.4149    0.0000 O   0  0  0  0  0  0  0  0  0  0  0  0
   15.2847    2.8672    0.0000 O   0  0  0  0  0  0  0  0  0  0  0  0
   12.0632    0.7512    0.0000 O   0  0  0  0  0  0  0  0  0  0  0  0
    7.7331   -2.7488    0.0000 O   0  0  0  0  0  0  0  0  0  0  0  0
   10.3312   -0.2488    0.0000 O   0  0  0  0  0  0  0  0  0  0  0  0
    9.9651    1.1172    0.0000 O   0  0  0  0  0  0  0  0  0  0  0  0
    8.9651   -0.6148    0.0000 O   0  0  0  0  0  0  0  0  0  0  0  0
    8.5991    1.7512    0.0000 O   0  0  0  0  0  0  0  0  0  0  0  0
   11.6972   -0.6148    0.0000 O   0  0  0  0  0  0  0  0  0  0  0  0
   16.1914   -0.7395    0.0000 O   0  0  0  0  0  0  0  0  0  0  0  0
   10.6972    1.1172    0.0000 O   0  0  0  0  0  0  0  0  0  0  0  0
   19.3560    0.6695    0.0000 O   0  0  0  0  0  0  0  0  0  0  0  0
    2.5369    0.2512    0.0000 O   0  0  0  0  0  0  0  0  0  0  0  0
    3.4030    1.7512    0.0000 O   0  0  0  0  0  0  0  0  0  0  0  0
    6.8671    1.7512    0.0000 N   0  0  0  0  0  0  0  0  0  0  0  0
   16.3725    0.9831    0.0000 N   0  0  0  0  0  0  0  0  0  0  0  0
   17.7737   -0.0350    0.0000 N   0  0  0  0  0  0  0  0  0  0  0  0
    6.0010    0.2512    0.0000 C   0  0  2  0  0  0  0  0  0  0  0  0
    6.8671    0.7512    0.0000 C   0  0  2  0  0  0  0  0  0  0  0  0
    6.0010   -0.7488    0.0000 C   0  0  1  0  0  0  0  0  0  0  0  0
    6.8671   -1.2488    0.0000 C   0  0  1  0  0  0  0  0  0  0  0  0
    7.7331    0.2512    0.0000 C   0  0  2  0  0  0  0  0  0  0  0  0
   13.8998    1.7457    0.0000 C   0  0  1  0  0  0  0  0  0  0  0  0
   14.8779    1.9536    0.0000 C   0  0  2  0  0  0  0  0  0  0  0  0
   13.7953    0.7512    0.0000 C   0  0  1  0  0  0  0  0  0  0  0  0
   15.3779    1.0876    0.0000 C   0  0  1  0  0  0  0  0  0  0  0  0
   12.9292    0.2512    0.0000 C   0  0  0  0  0  0  0  0  0  0  0  0
    6.8671   -2.2488    0.0000 C   0  0  0  0  0  0  0  0  0  0  0  0
    7.7331    2.2512    0.0000 C   0  0  0  0  0  0  0  0  0  0  0  0
   16.7792    0.0695    0.0000 C   0  0  0  0  0  0  0  0  0  0  0  0
   16.9602    1.7921    0.0000 C   0  0  0  0  0  0  0  0  0  0  0  0
    4.2690    0.2512    0.0000 C   0  0  0  0  0  0  0  0  0  0  0  0
   17.9548    1.6876    0.0000 C   0  0  0  0  0  0  0  0  0  0  0  0
    7.7331    3.2512    0.0000 C   0  0  0  0  0  0  0  0  0  0  0  0
   18.3615    0.7740    0.0000 C   0  0  0  0  0  0  0  0  0  0  0  0
    3.4030    0.7512    0.0000 C   0  0  0  0  0  0  0  0  0  0  0  0
    4.2690   -0.7488    0.0000 C   0  0  0  0  0  0  0  0  0  0  0  0
    5.4641   -0.0588    0.0000 H   0  0  0  0  0  0  0  0  0  0  0  0
    6.3301    1.0612    0.0000 H   0  0  0  0  0  0  0  0  0  0  0  0
    5.4641   -0.4388    0.0000 H   0  0  0  0  0  0  0  0  0  0  0  0
    7.4040   -1.5588    0.0000 H   0  0  0  0  0  0  0  0  0  0  0  0
    7.7331    0.8712    0.0000 H   0  0  0  0  0  0  0  0  0  0  0  0
   14.0603    2.3446    0.0000 H   0  0  0  0  0  0  0  0  0  0  0  0
   15.4971    1.9861    0.0000 H   0  0  0  0  0  0  0  0  0  0  0  0
   13.8277    0.1321    0.0000 H   0  0  0  0  0  0  0  0  0  0  0  0
   15.7156    1.6076    0.0000 H   0  0  0  0  0  0  0  0  0  0  0  0
   12.5307   -0.2237    0.0000 H   0  0  0  0  0  0  0  0  0  0  0  0
   13.3278   -0.2237    0.0000 H   0  0  0  0  0  0  0  0  0  0  0  0
    6.2565   -2.1411    0.0000 H   0  0  0  0  0  0  0  0  0  0  0  0
    6.6550   -2.8314    0.0000 H   0  0  0  0  0  0  0  0  0  0  0  0
    6.3301    2.0612    0.0000 H   0  0  0  0  0  0  0  0  0  0  0  0
    5.1350   -1.8688    0.0000 H   0  0  0  0  0  0  0  0  0  0  0  0
   13.2856    3.0213    0.0000 H   0  0  0  0  0  0  0  0  0  0  0  0
   14.9203    3.3688    0.0000 H   0  0  0  0  0  0  0  0  0  0  0  0
   16.7081    2.3585    0.0000 H   0  0  0  0  0  0  0  0  0  0  0  0
    7.7331   -3.3688    0.0000 H   0  0  0  0  0  0  0  0  0  0  0  0
   18.0259   -0.6014    0.0000 H   0  0  0  0  0  0  0  0  0  0  0  0
   18.3192    2.1892    0.0000 H   0  0  0  0  0  0  0  0  0  0  0  0
    8.3531    3.2512    0.0000 H   0  0  0  0  0  0  0  0  0  0  0  0
    7.7331    3.8712    0.0000 H   0  0  0  0  0  0  0  0  0  0  0  0
    7.1131    3.2512    0.0000 H   0  0  0  0  0  0  0  0  0  0  0  0
    9.6551    1.6542    0.0000 H   0  0  0  0  0  0  0  0  0  0  0  0
    3.7320   -1.0588    0.0000 H   0  0  0  0  0  0  0  0  0  0  0  0
    4.8059   -1.0588    0.0000 H   0  0  0  0  0  0  0  0  0  0  0  0
   11.3872   -1.1518    0.0000 H   0  0  0  0  0  0  0  0  0  0  0  0
    2.0000    0.5612    0.0000 H   0  0  0  0  0  0  0  0  0  0  0  0
  1  6  1  0  0  0  0
  1 12  1  0  0  0  0
  1 13  1  0  0  0  0
  1 14  2  0  0  0  0
  2 10  1  0  0  0  0
  2 12  1  0  0  0  0
  2 16  1  0  0  0  0
  2 18  2  0  0  0  0
  3 28  1  0  0  0  0
  3 29  1  0  0  0  0
  4 32  1  0  0  0  0
  4 33  1  0  0  0  0
 25  5  1  6  0  0  0
  5 39  1  0  0  0  0
 29  6  1  1  0  0  0
 27  7  1  1  0  0  0
  7 59  1  0  0  0  0
 30  8  1  1  0  0  0
  8 60  1  0  0  0  0
 31  9  1  1  0  0  0
  9 61  1  0  0  0  0
 10 34  1  0  0  0  0
 11 35  1  0  0  0  0
 11 63  1  0  0  0  0
 13 69  1  0  0  0  0
 15 36  2  0  0  0  0
 16 72  1  0  0  0  0
 17 37  2  0  0  0  0
 19 42  2  0  0  0  0
 20 43  1  0  0  0  0
 20 73  1  0  0  0  0
 21 43  2  0  0  0  0
 26 22  1  1  0  0  0
 22 36  1  0  0  0  0
 22 58  1  0  0  0  0
 33 23  1  6  0  0  0
 23 37  1  0  0  0  0
 23 38  1  0  0  0  0
 24 37  1  0  0  0  0
 24 42  1  0  0  0  0
 24 64  1  0  0  0  0
 25 26  1  0  0  0  0
 25 27  1  0  0  0  0
 25 45  1  0  0  0  0
 26 29  1  0  0  0  0
 26 46  1  0  0  0  0
 27 28  1  0  0  0  0
 27 47  1  0  0  0  0
 28 35  1  6  0  0  0
 28 48  1  0  0  0  0
 29 49  1  0  0  0  0
 30 31  1  0  0  0  0
 30 32  1  0  0  0  0
 30 50  1  0  0  0  0
 31 33  1  0  0  0  0
 31 51  1  0  0  0  0
 32 34  1  6  0  0  0
 32 52  1  0  0  0  0
 33 53  1  0  0  0  0
 34 54  1  0  0  0  0
 34 55  1  0  0  0  0
 35 56  1  0  0  0  0
 35 57  1  0  0  0  0
 36 41  1  0  0  0  0
 38 40  2  0  0  0  0
 38 62  1  0  0  0  0
 39 43  1  0  0  0  0
 39 44  2  0  0  0  0
 40 42  1  0  0  0  0
 40 65  1  0  0  0  0
 41 66  1  0  0  0  0
 41 67  1  0  0  0  0
 41 68  1  0  0  0  0
 44 70  1  0  0  0  0
 44 71  1  0  0  0  0
M  END
> <PUBCHEM_COMPOUND_CID>
172502

> <PUBCHEM_COMPOUND_CANONICALIZED>
1

> <PUBCHEM_CACTVS_COMPLEXITY>
1280

> <PUBCHEM_CACTVS_HBOND_ACCEPTOR>
19

> <PUBCHEM_CACTVS_HBOND_DONOR>
9

> <PUBCHEM_CACTVS_ROTATABLE_BOND>
13

> <PUBCHEM_CACTVS_SUBSKEYS>
AAADceB7PgMAAAAAAAAAAAAAAAAAASAAAAAkQAAAAAAAAAAAAAAAHgAQCCAACDzxgAcDCAPABxCIQCHWWIKACAAAAgAIAIBIAECTFAIAgAQPQAAPFyKXEMHwcAcAAAAAAAAAAAAAAAAAAAAAAAAAAAAAAA==

> <PUBCHEM_IUPAC_OPENEYE_NAME>
2-[(2R,3R,4R,5S,6R)-3-acetamido-2-[[[(2R,3S,4R,5R)-5-(2,4-dioxopyrimidin-1-yl)-3,4-dihydroxy-tetrahydrofuran-2-yl]methoxy-hydroxy-phosphoryl]oxy-hydroxy-phosphoryl]oxy-5-hydroxy-6-(hydroxymethyl)tetrahydropyran-4-yl]oxyprop-2-enoic acid

> <PUBCHEM_IUPAC_CAS_NAME>
2-[[(2R,3R,4R,5S,6R)-3-acetamido-2-[[[(2R,3S,4R,5R)-5-(2,4-dioxo-1-pyrimidinyl)-3,4-dihydroxy-2-oxolanyl]methoxy-hydroxyphosphoryl]oxy-hydroxyphosphoryl]oxy-5-hydroxy-6-(hydroxymethyl)-4-oxanyl]oxy]-2-propenoic acid

> <PUBCHEM_IUPAC_NAME>
2-[(2R,3R,4R,5S,6R)-3-acetamido-2-[[[(2R,3S,4R,5R)-5-(2,4-dioxopyrimidin-1-yl)-3,4-dihydroxyoxolan-2-yl]methoxy-hydroxyphosphoryl]oxy-hydroxyphosphoryl]oxy-5-hydroxy-6-(hydroxymethyl)oxan-4-yl]oxyprop-2-enoic acid

> <PUBCHEM_IUPAC_SYSTEMATIC_NAME>
2-[(2R,3R,4R,5S,6R)-3-acetamido-2-[[[(2R,3S,4R,5R)-5-[2,4-bis(oxidanylidene)pyrimidin-1-yl]-3,4-bis(oxidanyl)oxolan-2-yl]methoxy-oxidanyl-phosphoryl]oxy-oxidanyl-phosphoryl]oxy-6-(hydroxymethyl)-5-oxidanyl-oxan-4-yl]oxyprop-2-enoic acid

> <PUBCHEM_IUPAC_TRADITIONAL_NAME>
2-[(2R,3R,4R,5S,6R)-3-acetamido-2-[[[(2R,3S,4R,5R)-5-(2,4-diketopyrimidin-1-yl)-3,4-dihydroxy-tetrahydrofuran-2-yl]methoxy-hydroxy-phosphoryl]oxy-hydroxy-phosphoryl]oxy-5-hydroxy-6-methylol-tetrahydropyran-4-yl]oxyacrylic acid

> <PUBCHEM_IUPAC_INCHI>
InChI=1S/C20H29N3O19P2/c1-7(18(30)31)38-16-12(21-8(2)25)19(40-9(5-24)14(16)28)41-44(35,36)42-43(33,34)37-6-10-13(27)15(29)17(39-10)23-4-3-11(26)22-20(23)32/h3-4,9-10,12-17,19,24,27-29H,1,5-6H2,2H3,(H,21,25)(H,30,31)(H,33,34)(H,35,36)(H,22,26,32)/t9-,10-,12-,13-,14-,15-,16-,17-,19-/m1/s1

> <PUBCHEM_IUPAC_INCHIKEY>
BEGZZYPUNCJHKP-DBYWSUQTSA-N

> <PUBCHEM_XLOGP3_AA>
-5.6

> <PUBCHEM_EXACT_MASS>
677.087049

> <PUBCHEM_MOLECULAR_FORMULA>
C20H29N3O19P2

> <PUBCHEM_MOLECULAR_WEIGHT>
677.400484

> <PUBCHEM_OPENEYE_CAN_SMILES>
CC(=O)NC1C(C(C(OC1OP(=O)(O)OP(=O)(O)OCC2C(C(C(O2)N3C=CC(=O)NC3=O)O)O)CO)O)OC(=C)C(=O)O

> <PUBCHEM_OPENEYE_ISO_SMILES>
CC(=O)N[C@@H]1[C@H]([C@@H]([C@H](O[C@@H]1OP(=O)(O)OP(=O)(O)OC[C@@H]2[C@H]([C@H]([C@@H](O2)N3C=CC(=O)NC3=O)O)O)CO)O)OC(=C)C(=O)O

> <PUBCHEM_CACTVS_TPSA>
327

> <PUBCHEM_MONOISOTOPIC_WEIGHT>
677.087049

> <PUBCHEM_TOTAL_CHARGE>
0

> <PUBCHEM_HEAVY_ATOM_COUNT>
44

> <PUBCHEM_ATOM_DEF_STEREO_COUNT>
9

> <PUBCHEM_ATOM_UDEF_STEREO_COUNT>
0

> <PUBCHEM_BOND_DEF_STEREO_COUNT>
0

> <PUBCHEM_BOND_UDEF_STEREO_COUNT>
0

> <PUBCHEM_ISOTOPIC_ATOM_COUNT>
0

> <PUBCHEM_COMPONENT_COUNT>
1

> <PUBCHEM_CACTVS_TAUTO_COUNT>
6

> <PUBCHEM_COORDINATE_TYPE>
1
5
255

> <PUBCHEM_BONDANNOTATIONS>
26  22  5
33  23  6
23  37  8
23  38  8
24  37  8
24  42  8
28  35  6
32  34  6
38  40  8
40  42  8
25  5  6
29  6  5
27  7  5
30  8  5
31  9  5

$$$$

