23694215
  -OEChem-07051212542D

 40 40  0     1  0  0  0  0  0999 V2000
    9.4651    0.3450    0.0000 Na  0  3  0  0  0  0  0  0  0  0  0  0
    5.1350   -2.1550    0.0000 O   0  0  0  0  0  0  0  0  0  0  0  0
    4.2690    0.3450    0.0000 O   0  0  0  0  0  0  0  0  0  0  0  0
    2.5369   -0.6550    0.0000 O   0  0  0  0  0  0  0  0  0  0  0  0
    2.5369   -2.6550    0.0000 O   0  0  0  0  0  0  0  0  0  0  0  0
    6.0010    0.3450    0.0000 O   0  0  0  0  0  0  0  0  0  0  0  0
    6.0010   -0.6550    0.0000 O   0  0  0  0  0  0  0  0  0  0  0  0
    4.2690    2.3450    0.0000 O   0  0  0  0  0  0  0  0  0  0  0  0
    6.0010    3.3450    0.0000 O   0  0  0  0  0  0  0  0  0  0  0  0
    8.5991    0.8450    0.0000 O   0  5  0  0  0  0  0  0  0  0  0  0
    7.7331   -0.6550    0.0000 O   0  0  0  0  0  0  0  0  0  0  0  0
    4.2690   -0.6550    0.0000 C   0  0  2  0  0  0  0  0  0  0  0  0
    3.4030   -1.1550    0.0000 C   0  0  1  0  0  0  0  0  0  0  0  0
    3.4030   -2.1550    0.0000 C   0  0  2  0  0  0  0  0  0  0  0  0
    4.2690   -2.6550    0.0000 C   0  0  2  0  0  0  0  0  0  0  0  0
    5.1350   -1.1550    0.0000 C   0  0  2  0  0  0  0  0  0  0  0  0
    5.1350    0.8450    0.0000 C   0  0  1  0  0  0  0  0  0  0  0  0
    5.1350    1.8450    0.0000 C   0  0  1  0  0  0  0  0  0  0  0  0
    4.2690   -3.6550    0.0000 C   0  0  0  0  0  0  0  0  0  0  0  0
    6.0010    2.3450    0.0000 C   0  0  2  0  0  0  0  0  0  0  0  0
    6.8671    1.8450    0.0000 C   0  0  0  0  0  0  0  0  0  0  0  0
    6.8671    0.8450    0.0000 C   0  0  0  0  0  0  0  0  0  0  0  0
    7.7331    0.3450    0.0000 C   0  0  0  0  0  0  0  0  0  0  0  0
    4.8059   -0.3450    0.0000 H   0  0  0  0  0  0  0  0  0  0  0  0
    3.4030   -0.5350    0.0000 H   0  0  0  0  0  0  0  0  0  0  0  0
    3.4030   -2.7750    0.0000 H   0  0  0  0  0  0  0  0  0  0  0  0
    4.8059   -2.9650    0.0000 H   0  0  0  0  0  0  0  0  0  0  0  0
    5.1350   -0.5350    0.0000 H   0  0  0  0  0  0  0  0  0  0  0  0
    5.1350    0.2250    0.0000 H   0  0  0  0  0  0  0  0  0  0  0  0
    5.1350    2.4650    0.0000 H   0  0  0  0  0  0  0  0  0  0  0  0
    3.6490   -3.6550    0.0000 H   0  0  0  0  0  0  0  0  0  0  0  0
    4.2690   -4.2750    0.0000 H   0  0  0  0  0  0  0  0  0  0  0  0
    4.8890   -3.6550    0.0000 H   0  0  0  0  0  0  0  0  0  0  0  0
    6.5380    2.6550    0.0000 H   0  0  0  0  0  0  0  0  0  0  0  0
    2.0000   -0.9650    0.0000 H   0  0  0  0  0  0  0  0  0  0  0  0
    2.5369   -3.2750    0.0000 H   0  0  0  0  0  0  0  0  0  0  0  0
    6.5380   -0.9650    0.0000 H   0  0  0  0  0  0  0  0  0  0  0  0
    7.4040    2.1550    0.0000 H   0  0  0  0  0  0  0  0  0  0  0  0
    4.2690    2.9650    0.0000 H   0  0  0  0  0  0  0  0  0  0  0  0
    6.5380    3.6550    0.0000 H   0  0  0  0  0  0  0  0  0  0  0  0
  2 15  1  0  0  0  0
  2 16  1  0  0  0  0
 12  3  1  1  0  0  0
 17  3  1  6  0  0  0
 13  4  1  1  0  0  0
  4 35  1  0  0  0  0
 14  5  1  6  0  0  0
  5 36  1  0  0  0  0
  6 17  1  0  0  0  0
  6 22  1  0  0  0  0
 16  7  1  1  0  0  0
  7 37  1  0  0  0  0
 18  8  1  6  0  0  0
  8 39  1  0  0  0  0
 20  9  1  1  0  0  0
  9 40  1  0  0  0  0
 10 23  1  0  0  0  0
 11 23  2  0  0  0  0
 12 13  1  0  0  0  0
 12 16  1  0  0  0  0
 12 24  1  0  0  0  0
 13 14  1  0  0  0  0
 13 25  1  0  0  0  0
 14 15  1  0  0  0  0
 14 26  1  0  0  0  0
 15 19  1  1  0  0  0
 15 27  1  0  0  0  0
 16 28  1  0  0  0  0
 17 18  1  0  0  0  0
 17 29  1  0  0  0  0
 18 20  1  0  0  0  0
 18 30  1  0  0  0  0
 19 31  1  0  0  0  0
 19 32  1  0  0  0  0
 19 33  1  0  0  0  0
 20 21  1  0  0  0  0
 20 34  1  0  0  0  0
 21 22  2  0  0  0  0
 21 38  1  0  0  0  0
 22 23  1  0  0  0  0
M  CHG  2   1   1  10  -1
M  END
> <PUBCHEM_COMPOUND_CID>
23694215

> <PUBCHEM_COMPOUND_CANONICALIZED>
1

> <PUBCHEM_CACTVS_COMPLEXITY>
457

> <PUBCHEM_CACTVS_HBOND_ACCEPTOR>
10

> <PUBCHEM_CACTVS_HBOND_DONOR>
5

> <PUBCHEM_CACTVS_ROTATABLE_BOND>
3

> <PUBCHEM_CACTVS_SUBSKEYS>
AAADceBwPCAAAAAAAAAAAAAAAAAAAAAAAAAkQAAAAAAAAAAAAAAAGgAACAAACBSwgAMCCAAABgCIACDSCAIACAAgIAAACABAAEgRFAIAAAQiUAAFwAAPEYPAYAQAAAAAAAAAAAAAAAAAAAAAAAAAAAAAAA==

> <PUBCHEM_IUPAC_OPENEYE_NAME>
sodium (2S,3R,4S)-3,4-dihydroxy-2-[(2S,3R,4R,5R,6S)-2,4,5-trihydroxy-6-methyl-tetrahydropyran-3-yl]oxy-3,4-dihydro-2H-pyran-6-carboxylate

> <PUBCHEM_IUPAC_CAS_NAME>
sodium (2S,3R,4S)-3,4-dihydroxy-2-[[(2S,3R,4R,5R,6S)-2,4,5-trihydroxy-6-methyl-3-oxanyl]oxy]-3,4-dihydro-2H-pyran-6-carboxylate

> <PUBCHEM_IUPAC_NAME>
sodium (2S,3R,4S)-3,4-dihydroxy-2-[(2S,3R,4R,5R,6S)-2,4,5-trihydroxy-6-methyloxan-3-yl]oxy-3,4-dihydro-2H-pyran-6-carboxylate

> <PUBCHEM_IUPAC_SYSTEMATIC_NAME>
sodium (2S,3R,4S)-2-[(2S,3R,4R,5R,6S)-6-methyl-2,4,5-tris(oxidanyl)oxan-3-yl]oxy-3,4-bis(oxidanyl)-3,4-dihydro-2H-pyran-6-carboxylate

> <PUBCHEM_IUPAC_TRADITIONAL_NAME>
sodium (2S,3R,4S)-3,4-dihydroxy-2-[(2S,3R,4R,5R,6S)-2,4,5-trihydroxy-6-methyl-tetrahydropyran-3-yl]oxy-3,4-dihydro-2H-pyran-6-carboxylate

> <PUBCHEM_IUPAC_INCHI>
InChI=1S/C12H18O10.Na/c1-3-6(14)8(16)9(11(19)20-3)22-12-7(15)4(13)2-5(21-12)10(17)18;/h2-4,6-9,11-16,19H,1H3,(H,17,18);/q;+1/p-1/t3-,4-,6-,7+,8+,9+,11-,12+;/m0./s1

> <PUBCHEM_IUPAC_INCHIKEY>
ZGUYXYAGTSSIIA-DUQBLKLASA-M

> <PUBCHEM_EXACT_MASS>
344.071941

> <PUBCHEM_MOLECULAR_FORMULA>
C12H17NaO10

> <PUBCHEM_MOLECULAR_WEIGHT>
344.247149

> <PUBCHEM_OPENEYE_CAN_SMILES>
CC1C(C(C(C(O1)O)OC2C(C(C=C(O2)C(=O)[O-])O)O)O)O.[Na+]

> <PUBCHEM_OPENEYE_ISO_SMILES>
C[C@H]1[C@@H]([C@H]([C@H]([C@H](O1)O)O[C@@H]2[C@@H]([C@H](C=C(O2)C(=O)[O-])O)O)O)O.[Na+]

> <PUBCHEM_CACTVS_TPSA>
169

> <PUBCHEM_MONOISOTOPIC_WEIGHT>
344.071941

> <PUBCHEM_TOTAL_CHARGE>
0

> <PUBCHEM_HEAVY_ATOM_COUNT>
23

> <PUBCHEM_ATOM_DEF_STEREO_COUNT>
8

> <PUBCHEM_ATOM_UDEF_STEREO_COUNT>
0

> <PUBCHEM_BOND_DEF_STEREO_COUNT>
0

> <PUBCHEM_BOND_UDEF_STEREO_COUNT>
0

> <PUBCHEM_ISOTOPIC_ATOM_COUNT>
0

> <PUBCHEM_COMPONENT_COUNT>
2

> <PUBCHEM_CACTVS_TAUTO_COUNT>
1

> <PUBCHEM_NONSTANDARDBOND>
1  10  7

> <PUBCHEM_COORDINATE_TYPE>
1
5
255

> <PUBCHEM_BONDANNOTATIONS>
15  19  5
12  3  5
17  3  6
13  4  5
14  5  6
16  7  5
18  8  6
20  9  5

$$$$

