6146
  -OEChem-06261201082D

 87 94  0     1  0  0  0  0  0999 V2000
    2.8472    9.2091    0.0000 S   0  0  0  0  0  0  0  0  0  0  0  0
    4.4037    3.1497    0.0000 O   0  0  0  0  0  0  0  0  0  0  0  0
   12.0360    4.9847    0.0000 O   0  0  0  0  0  0  0  0  0  0  0  0
    5.4342    5.0868    0.0000 O   0  0  0  0  0  0  0  0  0  0  0  0
   13.0665    6.9218    0.0000 O   0  0  0  0  0  0  0  0  0  0  0  0
    4.1251    0.6069    0.0000 O   0  0  0  0  0  0  0  0  0  0  0  0
   11.7574    2.4419    0.0000 O   0  0  0  0  0  0  0  0  0  0  0  0
    3.7132    9.7091    0.0000 O   0  5  0  0  0  0  0  0  0  0  0  0
    1.9812    8.7091    0.0000 O   0  5  0  0  0  0  0  0  0  0  0  0
    2.3472   10.0751    0.0000 O   0  0  0  0  0  0  0  0  0  0  0  0
    3.3472    8.3430    0.0000 O   0  0  0  0  0  0  0  0  0  0  0  0
    1.4561    3.9185    0.0000 N   0  3  3  0  0  0  0  0  0  0  0  0
    9.0884    5.7535    0.0000 N   0  3  3  0  0  0  0  0  0  0  0  0
    3.0113    3.9568    0.0000 C   0  0  2  0  0  0  0  0  0  0  0  0
   10.6436    5.7918    0.0000 C   0  0  2  0  0  0  0  0  0  0  0  0
    2.2681    4.6260    0.0000 C   0  0  1  0  0  0  0  0  0  0  0  0
    9.9004    6.4610    0.0000 C   0  0  1  0  0  0  0  0  0  0  0  0
    1.3171    4.3169    0.0000 C   0  0  1  0  0  0  0  0  0  0  0  0
    8.9494    6.1519    0.0000 C   0  0  1  0  0  0  0  0  0  0  0  0
    4.0002    4.0582    0.0000 C   0  0  3  0  0  0  0  0  0  0  0  0
   11.6325    5.8932    0.0000 C   0  0  3  0  0  0  0  0  0  0  0  0
    2.7222    3.6494    0.0000 C   0  0  0  0  0  0  0  0  0  0  0  0
   10.3545    5.4844    0.0000 C   0  0  0  0  0  0  0  0  0  0  0  0
    2.8033    2.9787    0.0000 C   0  0  0  0  0  0  0  0  0  0  0  0
   10.4357    4.8137    0.0000 C   0  0  0  0  0  0  0  0  0  0  0  0
    1.9914    3.3240    0.0000 C   0  0  0  0  0  0  0  0  0  0  0  0
    9.6237    5.1590    0.0000 C   0  0  0  0  0  0  0  0  0  0  0  0
    1.1091    3.3388    0.0000 C   0  0  0  0  0  0  0  0  0  0  0  0
    8.7415    5.1738    0.0000 C   0  0  0  0  0  0  0  0  0  0  0  0
    1.8523    2.6697    0.0000 C   0  0  0  0  0  0  0  0  0  0  0  0
    9.4846    4.5047    0.0000 C   0  0  0  0  0  0  0  0  0  0  0  0
    4.4383    4.9964    0.0000 C   0  0  1  0  0  0  0  0  0  0  0  0
   12.0706    6.8314    0.0000 C   0  0  1  0  0  0  0  0  0  0  0  0
    2.8083    5.7347    0.0000 C   0  0  0  0  0  0  0  0  0  0  0  0
   10.4406    7.5698    0.0000 C   0  0  0  0  0  0  0  0  0  0  0  0
    3.5881    2.2937    0.0000 C   0  0  0  0  0  0  0  0  0  0  0  0
   11.2204    4.1287    0.0000 C   0  0  0  0  0  0  0  0  0  0  0  0
    3.8383    5.8403    0.0000 C   0  0  0  0  0  0  0  0  0  0  0  0
   11.4706    7.6753    0.0000 C   0  0  0  0  0  0  0  0  0  0  0  0
    0.5573    3.4801    0.0000 C   0  0  0  0  0  0  0  0  0  0  0  0
    8.1896    5.3151    0.0000 C   0  0  0  0  0  0  0  0  0  0  0  0
    1.6200    1.6543    0.0000 C   0  0  0  0  0  0  0  0  0  0  0  0
    9.2524    3.4893    0.0000 C   0  0  0  0  0  0  0  0  0  0  0  0
    3.3794    1.2732    0.0000 C   0  0  0  0  0  0  0  0  0  0  0  0
   11.0117    3.1082    0.0000 C   0  0  0  0  0  0  0  0  0  0  0  0
    2.3887    0.9513    0.0000 C   0  0  0  0  0  0  0  0  0  0  0  0
   10.0210    2.7863    0.0000 C   0  0  0  0  0  0  0  0  0  0  0  0
    2.4344    5.4085    0.0000 H   0  0  0  0  0  0  0  0  0  0  0  0
   10.0668    7.2435    0.0000 H   0  0  0  0  0  0  0  0  0  0  0  0
    0.7225    4.8522    0.0000 H   0  0  0  0  0  0  0  0  0  0  0  0
    8.3549    6.6873    0.0000 H   0  0  0  0  0  0  0  0  0  0  0  0
    4.6201    4.0523    0.0000 H   0  0  0  0  0  0  0  0  0  0  0  0
   12.2524    5.8873    0.0000 H   0  0  0  0  0  0  0  0  0  0  0  0
    2.7394    3.0296    0.0000 H   0  0  0  0  0  0  0  0  0  0  0  0
    2.3632    4.1548    0.0000 H   0  0  0  0  0  0  0  0  0  0  0  0
   10.3717    4.8646    0.0000 H   0  0  0  0  0  0  0  0  0  0  0  0
    9.9955    5.9898    0.0000 H   0  0  0  0  0  0  0  0  0  0  0  0
    0.8545    4.0685    0.0000 H   0  0  0  0  0  0  0  0  0  0  0  0
    8.4868    5.9035    0.0000 H   0  0  0  0  0  0  0  0  0  0  0  0
    1.4898    2.9595    0.0000 H   0  0  0  0  0  0  0  0  0  0  0  0
    2.3014    2.7870    0.0000 H   0  0  0  0  0  0  0  0  0  0  0  0
    9.1221    4.7946    0.0000 H   0  0  0  0  0  0  0  0  0  0  0  0
    9.9337    4.6220    0.0000 H   0  0  0  0  0  0  0  0  0  0  0  0
    0.5343    3.5711    0.0000 H   0  0  0  0  0  0  0  0  0  0  0  0
    0.7806    2.8130    0.0000 H   0  0  0  0  0  0  0  0  0  0  0  0
    8.1666    5.4061    0.0000 H   0  0  0  0  0  0  0  0  0  0  0  0
    8.4129    4.6480    0.0000 H   0  0  0  0  0  0  0  0  0  0  0  0
    4.7946    4.4890    0.0000 H   0  0  0  0  0  0  0  0  0  0  0  0
   12.3297    7.3947    0.0000 H   0  0  0  0  0  0  0  0  0  0  0  0
    2.4532    6.2430    0.0000 H   0  0  0  0  0  0  0  0  0  0  0  0
   10.0855    8.0780    0.0000 H   0  0  0  0  0  0  0  0  0  0  0  0
    4.0941    6.4051    0.0000 H   0  0  0  0  0  0  0  0  0  0  0  0
   11.7265    8.2401    0.0000 H   0  0  0  0  0  0  0  0  0  0  0  0
    0.2855    4.0374    0.0000 H   0  0  0  0  0  0  0  0  0  0  0  0
    0.0000    3.2084    0.0000 H   0  0  0  0  0  0  0  0  0  0  0  0
    0.8290    2.9229    0.0000 H   0  0  0  0  0  0  0  0  0  0  0  0
    7.9178    5.8724    0.0000 H   0  0  0  0  0  0  0  0  0  0  0  0
    7.6323    5.0434    0.0000 H   0  0  0  0  0  0  0  0  0  0  0  0
    8.4614    4.7579    0.0000 H   0  0  0  0  0  0  0  0  0  0  0  0
    1.0282    1.4695    0.0000 H   0  0  0  0  0  0  0  0  0  0  0  0
    8.6605    3.3045    0.0000 H   0  0  0  0  0  0  0  0  0  0  0  0
    2.2575    0.3454    0.0000 H   0  0  0  0  0  0  0  0  0  0  0  0
    9.8898    2.1804    0.0000 H   0  0  0  0  0  0  0  0  0  0  0  0
    5.6944    5.6496    0.0000 H   0  0  0  0  0  0  0  0  0  0  0  0
   13.3267    7.4846    0.0000 H   0  0  0  0  0  0  0  0  0  0  0  0
    3.9985    0.0000    0.0000 H   0  0  0  0  0  0  0  0  0  0  0  0
   11.6308    1.8350    0.0000 H   0  0  0  0  0  0  0  0  0  0  0  0
  1  8  1  0  0  0  0
  1  9  1  0  0  0  0
  1 10  2  0  0  0  0
  1 11  2  0  0  0  0
  2 20  1  0  0  0  0
  2 36  1  0  0  0  0
  3 21  1  0  0  0  0
  3 37  1  0  0  0  0
 32  4  1  1  0  0  0
  4 84  1  0  0  0  0
 33  5  1  1  0  0  0
  5 85  1  0  0  0  0
  6 44  1  0  0  0  0
  6 86  1  0  0  0  0
  7 45  1  0  0  0  0
  7 87  1  0  0  0  0
 12 18  1  0  0  0  0
 12 26  1  0  0  0  0
 12 40  1  0  0  0  0
 12 58  1  0  0  0  0
 13 19  1  0  0  0  0
 13 27  1  0  0  0  0
 13 41  1  0  0  0  0
 13 59  1  0  0  0  0
 14 16  1  0  0  0  0
 14 20  1  0  0  0  0
 14 22  1  6  0  0  0
 14 24  1  0  0  0  0
 15 17  1  0  0  0  0
 15 21  1  0  0  0  0
 15 23  1  6  0  0  0
 15 25  1  0  0  0  0
 16 18  1  0  0  0  0
 16 34  1  0  0  0  0
 16 48  1  6  0  0  0
 17 19  1  0  0  0  0
 17 35  1  0  0  0  0
 17 49  1  6  0  0  0
 18 28  1  0  0  0  0
 18 50  1  6  0  0  0
 19 29  1  0  0  0  0
 19 51  1  6  0  0  0
 20 32  1  0  0  0  0
 20 52  1  0  0  0  0
 21 33  1  0  0  0  0
 21 53  1  0  0  0  0
 22 26  1  0  0  0  0
 22 54  1  0  0  0  0
 22 55  1  0  0  0  0
 23 27  1  0  0  0  0
 23 56  1  0  0  0  0
 23 57  1  0  0  0  0
 24 30  2  0  0  0  0
 24 36  1  0  0  0  0
 25 31  2  0  0  0  0
 25 37  1  0  0  0  0
 26 60  1  0  0  0  0
 26 61  1  0  0  0  0
 27 62  1  0  0  0  0
 27 63  1  0  0  0  0
 28 30  1  0  0  0  0
 28 64  1  0  0  0  0
 28 65  1  0  0  0  0
 29 31  1  0  0  0  0
 29 66  1  0  0  0  0
 29 67  1  0  0  0  0
 30 42  1  0  0  0  0
 31 43  1  0  0  0  0
 32 38  1  0  0  0  0
 32 68  1  0  0  0  0
 33 39  1  0  0  0  0
 33 69  1  0  0  0  0
 34 38  2  0  0  0  0
 34 70  1  0  0  0  0
 35 39  2  0  0  0  0
 35 71  1  0  0  0  0
 36 44  2  0  0  0  0
 37 45  2  0  0  0  0
 38 72  1  0  0  0  0
 39 73  1  0  0  0  0
 40 74  1  0  0  0  0
 40 75  1  0  0  0  0
 40 76  1  0  0  0  0
 41 77  1  0  0  0  0
 41 78  1  0  0  0  0
 41 79  1  0  0  0  0
 42 46  2  0  0  0  0
 42 80  1  0  0  0  0
 43 47  2  0  0  0  0
 43 81  1  0  0  0  0
 44 46  1  0  0  0  0
 45 47  1  0  0  0  0
 46 82  1  0  0  0  0
 47 83  1  0  0  0  0
M  CHG  4   8  -1   9  -1  12   1  13   1
M  END
> <PUBCHEM_COMPOUND_CID>
6146

> <PUBCHEM_COMPOUND_CANONICALIZED>
1

> <PUBCHEM_CACTVS_COMPLEXITY>
557

> <PUBCHEM_CACTVS_HBOND_ACCEPTOR>
10

> <PUBCHEM_CACTVS_HBOND_DONOR>
6

> <PUBCHEM_CACTVS_ROTATABLE_BOND>
0

> <PUBCHEM_CACTVS_SUBSKEYS>
AAADcfB/PABAAAAAAAAAAAAAAAAAASJAAAA8eMGCAAAWLEjBQAAAHgAQCAAADzzhmAYyBoPABgCAAiBCADACCAAgIAAIiIAOiIgNNiKGsRuGeCOk0BGLuAew8PcPoAABAAAYQADQAAaAADSAAAAAAAAAAA==

> <PUBCHEM_IUPAC_OPENEYE_NAME>
(4R,4aS,7R,12bR)-3-methyl-1,2,3,4,4a,7,7a,13-octahydro-4,12-methanobenzofuro[3,2-e]isoquinoline-3-ium-7,9-diol sulfate

> <PUBCHEM_IUPAC_CAS_NAME>
(4R,4aS,7R,12bR)-3-methyl-1,2,3,4,4a,7,7a,13-octahydro-4,12-methanobenzofuro[3,2-e]isoquinoline-3-ium-7,9-diol sulfate

> <PUBCHEM_IUPAC_NAME>
(4R,4aS,7R,12bR)-3-methyl-1,2,3,4,4a,7,7a,13-octahydro-4,12-methanobenzofuro[3,2-e]isoquinoline-3-ium-7,9-diol sulfate

> <PUBCHEM_IUPAC_SYSTEMATIC_NAME>
(4R,4aS,7R,12bR)-3-methyl-1,2,3,4,4a,7,7a,13-octahydro-4,12-methanobenzofuro[3,2-e]isoquinoline-3-ium-7,9-diol sulfate

> <PUBCHEM_IUPAC_TRADITIONAL_NAME>
(4R,4aS,7R,12bR)-3-methyl-1,2,3,4,4a,7,7a,13-octahydro-4,12-methanobenzofuro[3,2-e]isoquinoline-3-ium-7,9-diol sulfate

> <PUBCHEM_IUPAC_INCHI>
InChI=1S/2C17H19NO3.H2O4S/c2*1-18-7-6-17-10-3-5-13(20)16(17)21-15-12(19)4-2-9(14(15)17)8-11(10)18;1-5(2,3)4/h2*2-5,10-11,13,16,19-20H,6-8H2,1H3;(H2,1,2,3,4)/t2*10-,11-,13-,16?,17-;/m11./s1

> <PUBCHEM_IUPAC_INCHIKEY>
USAHOPJHPJHUNS-KGTDQVKUSA-N

> <PUBCHEM_EXACT_MASS>
668.240366

> <PUBCHEM_MOLECULAR_FORMULA>
C34H40N2O10S

> <PUBCHEM_MOLECULAR_WEIGHT>
668.7538

> <PUBCHEM_OPENEYE_CAN_SMILES>
C[NH+]1CCC23C4C1CC5=C2C(=C(C=C5)O)OC3C(C=C4)O.C[NH+]1CCC23C4C1CC5=C2C(=C(C=C5)O)OC3C(C=C4)O.[O-]S(=O)(=O)[O-]

> <PUBCHEM_OPENEYE_ISO_SMILES>
C[NH+]1CC[C@@]23[C@H]4[C@H]1CC5=C2C(=C(C=C5)O)OC3[C@@H](C=C4)O.C[NH+]1CC[C@@]23[C@H]4[C@H]1CC5=C2C(=C(C=C5)O)OC3[C@@H](C=C4)O.[O-]S(=O)(=O)[O-]

> <PUBCHEM_CACTVS_TPSA>
197

> <PUBCHEM_MONOISOTOPIC_WEIGHT>
668.240366

> <PUBCHEM_TOTAL_CHARGE>
0

> <PUBCHEM_HEAVY_ATOM_COUNT>
47

> <PUBCHEM_ATOM_DEF_STEREO_COUNT>
8

> <PUBCHEM_ATOM_UDEF_STEREO_COUNT>
2

> <PUBCHEM_BOND_DEF_STEREO_COUNT>
0

> <PUBCHEM_BOND_UDEF_STEREO_COUNT>
0

> <PUBCHEM_ISOTOPIC_ATOM_COUNT>
0

> <PUBCHEM_COMPONENT_COUNT>
3

> <PUBCHEM_CACTVS_TAUTO_COUNT>
5

> <PUBCHEM_COORDINATE_TYPE>
1
5
255

> <PUBCHEM_BONDANNOTATIONS>
14  22  6
15  23  6
16  48  6
17  49  6
18  50  6
19  51  6
20  52  3
21  53  3
24  30  8
24  36  8
25  31  8
25  37  8
30  42  8
31  43  8
36  44  8
37  45  8
32  4  5
42  46  8
43  47  8
44  46  8
45  47  8
33  5  5

$$$$

