56928143
  -OEChem-07051213152D

 75 82  0     1  0  0  0  0  0999 V2000
    8.0221   -1.9058    0.0000 O   0  0  0  0  0  0  0  0  0  0  0  0
    5.8382    0.7530    0.0000 O   0  0  0  0  0  0  0  0  0  0  0  0
    5.0560   -0.0424    0.0000 O   0  0  0  0  0  0  0  0  0  0  0  0
    9.6143   -1.1640    0.0000 O   0  0  0  0  0  0  0  0  0  0  0  0
    5.5829    2.0099    0.0000 O   0  0  0  0  0  0  0  0  0  0  0  0
    5.2148   -2.2648    0.0000 O   0  0  0  0  0  0  0  0  0  0  0  0
    7.7160   -2.9283    0.0000 O   0  0  0  0  0  0  0  0  0  0  0  0
    4.8052   -0.8360    0.0000 O   0  0  0  0  0  0  0  0  0  0  0  0
   10.7115    2.0127    0.0000 O   0  0  0  0  0  0  0  0  0  0  0  0
    8.8116    3.7695    0.0000 O   0  0  0  0  0  0  0  0  0  0  0  0
    9.9052    0.4235    0.0000 O   0  0  0  0  0  0  0  0  0  0  0  0
    6.4439   -5.5556    0.0000 O   0  0  0  0  0  0  0  0  0  0  0  0
    7.5103   -4.1908    0.0000 O   0  0  0  0  0  0  0  0  0  0  0  0
   11.1652    5.4961    0.0000 O   0  0  0  0  0  0  0  0  0  0  0  0
    9.5842    4.7889    0.0000 O   0  0  0  0  0  0  0  0  0  0  0  0
    2.0863   -5.4481    0.0000 O   0  0  0  0  0  0  0  0  0  0  0  0
   14.9660    3.3620    0.0000 O   0  0  0  0  0  0  0  0  0  0  0  0
    7.3382   -0.7858    0.0000 C   0  0  1  0  0  0  0  0  0  0  0  0
    6.5291   -0.1980    0.0000 C   0  0  2  0  0  0  0  0  0  0  0  0
    8.1472   -0.1980    0.0000 C   0  0  1  0  0  0  0  0  0  0  0  0
    6.8382    0.7530    0.0000 C   0  0  2  0  0  0  0  0  0  0  0  0
    7.8382    0.7530    0.0000 C   0  0  2  0  0  0  0  0  0  0  0  0
    7.0285   -1.7304    0.0000 C   0  0  2  0  0  0  0  0  0  0  0  0
    6.0344   -1.7296    0.0000 C   0  0  0  0  0  0  0  0  0  0  0  0
    5.7264   -0.7844    0.0000 C   0  0  0  0  0  0  0  0  0  0  0  0
    6.6435   -1.5052    0.0000 C   0  0  0  0  0  0  0  0  0  0  0  0
    8.6169   -1.0909    0.0000 C   0  0  0  0  0  0  0  0  0  0  0  0
    8.1429    1.6992    0.0000 C   0  0  0  0  0  0  0  0  0  0  0  0
    6.5334    1.6992    0.0000 C   0  0  0  0  0  0  0  0  0  0  0  0
    7.3382    2.2828    0.0000 C   0  0  0  0  0  0  0  0  0  0  0  0
    6.8172   -2.4900    0.0000 C   0  0  0  0  0  0  0  0  0  0  0  0
    5.6532   -1.3659    0.0000 C   0  0  0  0  0  0  0  0  0  0  0  0
    9.0934    2.0099    0.0000 C   0  0  0  0  0  0  0  0  0  0  0  0
    5.9342   -2.9594    0.0000 C   0  0  0  0  0  0  0  0  0  0  0  0
    9.4008    2.9615    0.0000 C   0  0  0  0  0  0  0  0  0  0  0  0
    9.9035    1.4235    0.0000 C   0  0  0  0  0  0  0  0  0  0  0  0
    5.7951   -3.9497    0.0000 C   0  0  0  0  0  0  0  0  0  0  0  0
   10.4008    2.9632    0.0000 C   0  0  0  0  0  0  0  0  0  0  0  0
    4.8679   -4.3243    0.0000 C   0  0  0  0  0  0  0  0  0  0  0  0
   10.9872    3.7732    0.0000 C   0  0  0  0  0  0  0  0  0  0  0  0
    6.5831   -4.5654    0.0000 C   0  0  0  0  0  0  0  0  0  0  0  0
    4.0798   -3.7086    0.0000 C   0  0  0  0  0  0  0  0  0  0  0  0
    4.7287   -5.3146    0.0000 C   0  0  0  0  0  0  0  0  0  0  0  0
   11.9819    3.6704    0.0000 C   0  0  0  0  0  0  0  0  0  0  0  0
   10.5789    4.6861    0.0000 C   0  0  0  0  0  0  0  0  0  0  0  0
    3.1526   -4.0832    0.0000 C   0  0  0  0  0  0  0  0  0  0  0  0
    3.8015   -5.6892    0.0000 C   0  0  0  0  0  0  0  0  0  0  0  0
   12.5683    4.4805    0.0000 C   0  0  0  0  0  0  0  0  0  0  0  0
   12.3902    2.7576    0.0000 C   0  0  0  0  0  0  0  0  0  0  0  0
    3.0135   -5.0735    0.0000 C   0  0  0  0  0  0  0  0  0  0  0  0
   13.5630    4.3777    0.0000 C   0  0  0  0  0  0  0  0  0  0  0  0
   13.3849    2.6548    0.0000 C   0  0  0  0  0  0  0  0  0  0  0  0
   13.9713    3.4648    0.0000 C   0  0  0  0  0  0  0  0  0  0  0  0
    5.8408    0.3007    0.0000 H   0  0  0  0  0  0  0  0  0  0  0  0
    8.9303    0.1324    0.0000 H   0  0  0  0  0  0  0  0  0  0  0  0
    8.6882    0.7541    0.0000 H   0  0  0  0  0  0  0  0  0  0  0  0
    6.9540   -2.5772    0.0000 H   0  0  0  0  0  0  0  0  0  0  0  0
    5.4280   -1.8587    0.0000 H   0  0  0  0  0  0  0  0  0  0  0  0
    6.0991   -2.3462    0.0000 H   0  0  0  0  0  0  0  0  0  0  0  0
    7.3382    2.9028    0.0000 H   0  0  0  0  0  0  0  0  0  0  0  0
    5.5282    1.2900    0.0000 H   0  0  0  0  0  0  0  0  0  0  0  0
    7.7593   -3.5468    0.0000 H   0  0  0  0  0  0  0  0  0  0  0  0
    9.0628    4.3363    0.0000 H   0  0  0  0  0  0  0  0  0  0  0  0
    4.1661   -3.0947    0.0000 H   0  0  0  0  0  0  0  0  0  0  0  0
    5.2173   -5.6963    0.0000 H   0  0  0  0  0  0  0  0  0  0  0  0
    6.9325   -5.9374    0.0000 H   0  0  0  0  0  0  0  0  0  0  0  0
    2.6641   -3.7015    0.0000 H   0  0  0  0  0  0  0  0  0  0  0  0
    3.7152   -6.3032    0.0000 H   0  0  0  0  0  0  0  0  0  0  0  0
   12.3151    5.0464    0.0000 H   0  0  0  0  0  0  0  0  0  0  0  0
   12.0266    2.2554    0.0000 H   0  0  0  0  0  0  0  0  0  0  0  0
   10.9121    6.0621    0.0000 H   0  0  0  0  0  0  0  0  0  0  0  0
   13.9265    4.8799    0.0000 H   0  0  0  0  0  0  0  0  0  0  0  0
   13.6381    2.0888    0.0000 H   0  0  0  0  0  0  0  0  0  0  0  0
    2.0000   -6.0621    0.0000 H   0  0  0  0  0  0  0  0  0  0  0  0
   15.3295    3.8642    0.0000 H   0  0  0  0  0  0  0  0  0  0  0  0
  1 23  1  0  0  0  0
  1 27  1  0  0  0  0
 21  2  1  1  0  0  0
  2 61  1  0  0  0  0
  3 25  2  0  0  0  0
  4 27  2  0  0  0  0
  5 29  2  0  0  0  0
  6 32  1  0  0  0  0
  6 34  1  0  0  0  0
  7 31  1  0  0  0  0
  7 62  1  0  0  0  0
  8 32  2  0  0  0  0
  9 36  1  0  0  0  0
  9 38  1  0  0  0  0
 10 35  1  0  0  0  0
 10 63  1  0  0  0  0
 11 36  2  0  0  0  0
 12 41  1  0  0  0  0
 12 66  1  0  0  0  0
 13 41  2  0  0  0  0
 14 45  1  0  0  0  0
 14 71  1  0  0  0  0
 15 45  2  0  0  0  0
 16 50  1  0  0  0  0
 16 74  1  0  0  0  0
 17 53  1  0  0  0  0
 17 75  1  0  0  0  0
 18 19  1  0  0  0  0
 18 20  1  0  0  0  0
 18 23  1  0  0  0  0
 18 26  1  6  0  0  0
 19 21  1  0  0  0  0
 19 25  1  0  0  0  0
 19 54  1  6  0  0  0
 20 22  1  0  0  0  0
 20 27  1  0  0  0  0
 20 55  1  6  0  0  0
 21 22  1  0  0  0  0
 21 29  1  0  0  0  0
 22 28  1  0  0  0  0
 22 56  1  1  0  0  0
 23 24  1  0  0  0  0
 23 57  1  6  0  0  0
 24 25  1  0  0  0  0
 24 58  1  0  0  0  0
 24 59  1  0  0  0  0
 26 31  2  0  0  0  0
 26 32  1  0  0  0  0
 28 30  2  0  0  0  0
 28 33  1  0  0  0  0
 29 30  1  0  0  0  0
 30 60  1  0  0  0  0
 31 34  1  0  0  0  0
 33 35  2  0  0  0  0
 33 36  1  0  0  0  0
 34 37  2  0  0  0  0
 35 38  1  0  0  0  0
 37 39  1  0  0  0  0
 37 41  1  0  0  0  0
 38 40  2  0  0  0  0
 39 42  2  0  0  0  0
 39 43  1  0  0  0  0
 40 44  1  0  0  0  0
 40 45  1  0  0  0  0
 42 46  1  0  0  0  0
 42 64  1  0  0  0  0
 43 47  2  0  0  0  0
 43 65  1  0  0  0  0
 44 48  2  0  0  0  0
 44 49  1  0  0  0  0
 46 50  2  0  0  0  0
 46 67  1  0  0  0  0
 47 50  1  0  0  0  0
 47 68  1  0  0  0  0
 48 51  1  0  0  0  0
 48 69  1  0  0  0  0
 49 52  2  0  0  0  0
 49 70  1  0  0  0  0
 51 53  2  0  0  0  0
 51 72  1  0  0  0  0
 52 53  1  0  0  0  0
 52 73  1  0  0  0  0
M  END
> <PUBCHEM_COMPOUND_CID>
56928143

> <PUBCHEM_COMPOUND_CANONICALIZED>
1

> <PUBCHEM_CACTVS_COMPLEXITY>
2000

> <PUBCHEM_CACTVS_HBOND_ACCEPTOR>
17

> <PUBCHEM_CACTVS_HBOND_DONOR>
7

> <PUBCHEM_CACTVS_ROTATABLE_BOND>
6

> <PUBCHEM_CACTVS_SUBSKEYS>
AAADceB8PgAAAAAAAAAAAAAAAAAAAaMECBAwYAAAAAAaJAABQAAAGgAACAAAD1SgmAIwDoAABgCIAqDSCAICCAAgIAAIiAFGCMgJJjaCNRKCcAAk4BELuQfL7vzvoAAAAAAAAABAAAAAAAAAAYAADAAAAA==

> <PUBCHEM_IUPAC_INCHI>
InChI=1S/C36H22O17/c37-13-5-1-11(2-6-13)19(30(43)44)27-25(41)21(32(47)52-27)15-9-17(40)36(50)22(15)23-33(48)51-18-10-16(39)29(36)35(18,23)24-26(42)28(53-34(24)49)20(31(45)46)12-3-7-14(38)8-4-12/h1-9,18,22-23,29,37-38,41-42,50H,10H2,(H,43,44)(H,45,46)/b27-19+,28-20+/t18-,22+,23-,29+,35+,36-/m0/s1

> <PUBCHEM_IUPAC_INCHIKEY>
SVYYSNVOFSSGHF-VYMFFPAYSA-N

> <PUBCHEM_XLOGP3_AA>
-1

> <PUBCHEM_EXACT_MASS>
726.085699

> <PUBCHEM_MOLECULAR_FORMULA>
C36H22O17

> <PUBCHEM_MOLECULAR_WEIGHT>
726.54968

> <PUBCHEM_OPENEYE_CAN_SMILES>
C1C2C3(C(C4C(=CC(=O)C4(C3C1=O)O)C5=C(C(=C(C6=CC=C(C=C6)O)C(=O)O)OC5=O)O)C(=O)O2)C7=C(C(=C(C8=CC=C(C=C8)O)C(=O)O)OC7=O)O

> <PUBCHEM_OPENEYE_ISO_SMILES>
C1[C@H]2[C@@]3([C@@H]([C@H]4C(=CC(=O)[C@]4([C@@H]3C1=O)O)C5=C(/C(=C(/C6=CC=C(C=C6)O)\C(=O)O)/OC5=O)O)C(=O)O2)C7=C(/C(=C(/C8=CC=C(C=C8)O)\C(=O)O)/OC7=O)O

> <PUBCHEM_CACTVS_TPSA>
289

> <PUBCHEM_MONOISOTOPIC_WEIGHT>
726.085699

> <PUBCHEM_TOTAL_CHARGE>
0

> <PUBCHEM_HEAVY_ATOM_COUNT>
53

> <PUBCHEM_ATOM_DEF_STEREO_COUNT>
6

> <PUBCHEM_ATOM_UDEF_STEREO_COUNT>
0

> <PUBCHEM_BOND_DEF_STEREO_COUNT>
2

> <PUBCHEM_BOND_UDEF_STEREO_COUNT>
0

> <PUBCHEM_ISOTOPIC_ATOM_COUNT>
0

> <PUBCHEM_COMPONENT_COUNT>
1

> <PUBCHEM_CACTVS_TAUTO_COUNT>
1001

> <PUBCHEM_COORDINATE_TYPE>
1
5
255

> <PUBCHEM_BONDANNOTATIONS>
18  26  6
19  54  6
21  2  5
20  55  6
22  56  5
23  57  6
39  42  8
39  43  8
42  46  8
43  47  8
44  48  8
44  49  8
46  50  8
47  50  8
48  51  8
49  52  8
51  53  8
52  53  8

$$$$

