24501
  -OEChem-07051213122D

 13  8  0     0  0  0  0  0  0999 V2000
    3.0000   -1.0490    0.0000 As  0  0  0  0  0  0  0  0  0  0  0  0
    6.0000    0.6830    0.0000 As  0  0  0  0  0  0  0  0  0  0  0  0
    2.0000   -2.0490    0.0000 Ca  0  2  0  0  0  0  0  0  0  0  0  0
    4.5000   -0.1830    0.0000 Ca  0  2  0  0  0  0  0  0  0  0  0  0
    5.6340    2.0490    0.0000 Ca  0  2  0  0  0  0  0  0  0  0  0  0
    2.0000   -1.0490    0.0000 O   0  5  0  0  0  0  0  0  0  0  0  0
    3.0000   -2.0490    0.0000 O   0  5  0  0  0  0  0  0  0  0  0  0
    4.0000   -1.0490    0.0000 O   0  5  0  0  0  0  0  0  0  0  0  0
    5.5000   -0.1830    0.0000 O   0  5  0  0  0  0  0  0  0  0  0  0
    5.1340    1.1830    0.0000 O   0  5  0  0  0  0  0  0  0  0  0  0
    6.5000    1.5490    0.0000 O   0  5  0  0  0  0  0  0  0  0  0  0
    3.0000   -0.0490    0.0000 O   0  0  0  0  0  0  0  0  0  0  0  0
    6.8660    0.1830    0.0000 O   0  0  0  0  0  0  0  0  0  0  0  0
  1  6  1  0  0  0  0
  1  7  1  0  0  0  0
  1  8  1  0  0  0  0
  1 12  2  0  0  0  0
  2  9  1  0  0  0  0
  2 10  1  0  0  0  0
  2 11  1  0  0  0  0
  2 13  2  0  0  0  0
M  CHG  8   3   2   4   2   5   2   6  -1   7  -1   8  -1   9  -1  10  -1
M  CHG  1  11  -1
M  END
> <PUBCHEM_COMPOUND_CID>
24501

> <PUBCHEM_COMPOUND_CANONICALIZED>
1

> <PUBCHEM_CACTVS_COMPLEXITY>
36.8

> <PUBCHEM_CACTVS_HBOND_ACCEPTOR>
8

> <PUBCHEM_CACTVS_HBOND_DONOR>
0

> <PUBCHEM_CACTVS_ROTATABLE_BOND>
0

> <PUBCHEM_CACTVS_SUBSKEYS>
AAADcQAAPAAAAAgAQAAAAAAAAAAAAAAAAAAAAAAAAAAAAAAAAAAAAAAAAAAAAAAAAAAAAAAAAAAAAAAAAAAAAAAAAAAAAAAAAAAAAAAAAAAAAAAAAAAAAAAAAAAAAAAAAAAAAAAAAAAAAAAAAAAAAAAAAA==

> <PUBCHEM_IUPAC_OPENEYE_NAME>
tricalcium trioxido(oxo)-$l^{5}-arsane

> <PUBCHEM_IUPAC_CAS_NAME>
tricalcium trioxido(oxo)arsorane

> <PUBCHEM_IUPAC_NAME>
tricalcium trioxido(oxo)-$l^{5}-arsane

> <PUBCHEM_IUPAC_SYSTEMATIC_NAME>
tricalcium tris(oxidanidyl)-oxidanylidene-$l^{5}-arsane

> <PUBCHEM_IUPAC_TRADITIONAL_NAME>
tricalcium keto(trioxido)arsorane

> <PUBCHEM_IUPAC_INCHI>
InChI=1S/2AsH3O4.3Ca/c2*2-1(3,4)5;;;/h2*(H3,2,3,4,5);;;/q;;3*+2/p-6

> <PUBCHEM_IUPAC_INCHIKEY>
RMBBSOLAGVEUSI-UHFFFAOYSA-H

> <PUBCHEM_EXACT_MASS>
397.690283

> <PUBCHEM_MOLECULAR_FORMULA>
As2Ca3O8

> <PUBCHEM_MOLECULAR_WEIGHT>
398.0724

> <PUBCHEM_OPENEYE_CAN_SMILES>
[O-][As](=O)([O-])[O-].[O-][As](=O)([O-])[O-].[Ca+2].[Ca+2].[Ca+2]

> <PUBCHEM_OPENEYE_ISO_SMILES>
[O-][As](=O)([O-])[O-].[O-][As](=O)([O-])[O-].[Ca+2].[Ca+2].[Ca+2]

> <PUBCHEM_CACTVS_TPSA>
173

> <PUBCHEM_MONOISOTOPIC_WEIGHT>
397.690283

> <PUBCHEM_TOTAL_CHARGE>
0

> <PUBCHEM_HEAVY_ATOM_COUNT>
13

> <PUBCHEM_ATOM_DEF_STEREO_COUNT>
0

> <PUBCHEM_ATOM_UDEF_STEREO_COUNT>
0

> <PUBCHEM_BOND_DEF_STEREO_COUNT>
0

> <PUBCHEM_BOND_UDEF_STEREO_COUNT>
0

> <PUBCHEM_ISOTOPIC_ATOM_COUNT>
0

> <PUBCHEM_COMPONENT_COUNT>
5

> <PUBCHEM_CACTVS_TAUTO_COUNT>
1

> <PUBCHEM_COORDINATE_TYPE>
1
5
255

$$$$

