15096493
  -OEChem-07051213102D

 28 28  0     1  0  0  0  0  0999 V2000
    2.0000   -2.1651    0.0000 Br  0  0  0  0  0  0  0  0  0  0  0  0
    2.5000   -1.2990    0.0000 Cl  0  0  0  0  0  0  0  0  0  0  0  0
    6.0981    0.2010    0.0000 Cl  0  0  0  0  0  0  0  0  0  0  0  0
    4.3660   -2.7990    0.0000 Cl  0  0  0  0  0  0  0  0  0  0  0  0
    4.8660    2.7990    0.0000 Cl  0  0  0  0  0  0  0  0  0  0  0  0
    4.3660    0.2010    0.0000 C   0  0  2  0  0  0  0  0  0  0  0  0
    3.5000   -0.2990    0.0000 C   0  0  0  0  0  0  0  0  0  0  0  0
    3.5000   -1.2990    0.0000 C   0  0  2  0  0  0  0  0  0  0  0  0
    5.2320   -0.2990    0.0000 C   0  0  1  0  0  0  0  0  0  0  0  0
    4.3660   -1.7990    0.0000 C   0  0  2  0  0  0  0  0  0  0  0  0
    5.2320   -1.2990    0.0000 C   0  0  0  0  0  0  0  0  0  0  0  0
    3.8660    1.0670    0.0000 C   0  0  0  0  0  0  0  0  0  0  0  0
    3.0000   -2.1651    0.0000 C   0  0  0  0  0  0  0  0  0  0  0  0
    4.8660    1.0670    0.0000 C   0  0  0  0  0  0  0  0  0  0  0  0
    4.3660    1.9330    0.0000 C   0  0  0  0  0  0  0  0  0  0  0  0
    3.2880    0.2836    0.0000 H   0  0  0  0  0  0  0  0  0  0  0  0
    2.8894   -0.4067    0.0000 H   0  0  0  0  0  0  0  0  0  0  0  0
    5.2320    0.3210    0.0000 H   0  0  0  0  0  0  0  0  0  0  0  0
    4.9030   -2.1090    0.0000 H   0  0  0  0  0  0  0  0  0  0  0  0
    5.4441   -1.8816    0.0000 H   0  0  0  0  0  0  0  0  0  0  0  0
    5.8426   -1.1914    0.0000 H   0  0  0  0  0  0  0  0  0  0  0  0
    4.4030    1.3770    0.0000 H   0  0  0  0  0  0  0  0  0  0  0  0
    3.5560    1.6039    0.0000 H   0  0  0  0  0  0  0  0  0  0  0  0
    3.3291    0.7570    0.0000 H   0  0  0  0  0  0  0  0  0  0  0  0
    2.8923   -2.7756    0.0000 H   0  0  0  0  0  0  0  0  0  0  0  0
    3.5826   -2.3771    0.0000 H   0  0  0  0  0  0  0  0  0  0  0  0
    5.4860    1.0670    0.0000 H   0  0  0  0  0  0  0  0  0  0  0  0
    3.7460    1.9330    0.0000 H   0  0  0  0  0  0  0  0  0  0  0  0
  1 13  1  0  0  0  0
  8  2  1  6  0  0  0
  9  3  1  6  0  0  0
 10  4  1  6  0  0  0
  5 15  1  0  0  0  0
  6  7  1  0  0  0  0
  6  9  1  0  0  0  0
  6 12  1  1  0  0  0
  6 14  1  0  0  0  0
  7  8  1  0  0  0  0
  7 16  1  0  0  0  0
  7 17  1  0  0  0  0
  8 10  1  0  0  0  0
  8 13  1  0  0  0  0
  9 11  1  0  0  0  0
  9 18  1  0  0  0  0
 10 11  1  0  0  0  0
 10 19  1  0  0  0  0
 11 20  1  0  0  0  0
 11 21  1  0  0  0  0
 12 22  1  0  0  0  0
 12 23  1  0  0  0  0
 12 24  1  0  0  0  0
 13 25  1  0  0  0  0
 13 26  1  0  0  0  0
 14 15  2  0  0  0  0
 14 27  1  0  0  0  0
 15 28  1  0  0  0  0
M  END
> <PUBCHEM_COMPOUND_CID>
15096493

> <PUBCHEM_COMPOUND_CANONICALIZED>
1

> <PUBCHEM_CACTVS_COMPLEXITY>
258

> <PUBCHEM_CACTVS_HBOND_ACCEPTOR>
0

> <PUBCHEM_CACTVS_HBOND_DONOR>
0

> <PUBCHEM_CACTVS_ROTATABLE_BOND>
2

> <PUBCHEM_CACTVS_SUBSKEYS>
AAADccBwAAAHEAAAAAAAAAAAAAAAAAAAAAAwAAAAAAAAAAAAAAAAGAJAAAABTgOAAEACAAAAAACAACBCAAAAAAAgAAAIAEAAAigAAAIBAAAAAAAAgAAAAAEAgEAPAAAAAAAAAAAIACRAAQIACAAAAAAAAA==

> <PUBCHEM_IUPAC_OPENEYE_NAME>
(1R,2S,4R,5R)-1-(bromomethyl)-1,2,4-trichloro-5-[(E)-2-chlorovinyl]-5-methyl-cyclohexane

> <PUBCHEM_IUPAC_CAS_NAME>
(1R,2S,4R,5R)-1-(bromomethyl)-1,2,4-trichloro-5-[(E)-2-chloroethenyl]-5-methylcyclohexane

> <PUBCHEM_IUPAC_NAME>
(1R,2S,4R,5R)-1-(bromomethyl)-1,2,4-trichloro-5-[(E)-2-chloroethenyl]-5-methylcyclohexane

> <PUBCHEM_IUPAC_SYSTEMATIC_NAME>
(1R,2S,4R,5R)-1-(bromomethyl)-1,2,4-tris(chloranyl)-5-[(E)-2-chloranylethenyl]-5-methyl-cyclohexane

> <PUBCHEM_IUPAC_TRADITIONAL_NAME>
(1R,2S,4R,5R)-1-(bromomethyl)-1,2,4-trichloro-5-[(E)-2-chlorovinyl]-5-methyl-cyclohexane

> <PUBCHEM_IUPAC_INCHI>
InChI=1S/C10H13BrCl4/c1-9(2-3-12)5-10(15,6-11)8(14)4-7(9)13/h2-3,7-8H,4-6H2,1H3/b3-2+/t7-,8+,9+,10+/m1/s1

> <PUBCHEM_IUPAC_INCHIKEY>
UJTXKWHTNURSMJ-VTLUXTFQSA-N

> <PUBCHEM_XLOGP3_AA>
5

> <PUBCHEM_EXACT_MASS>
353.892523

> <PUBCHEM_MOLECULAR_FORMULA>
C10H13BrCl4

> <PUBCHEM_MOLECULAR_WEIGHT>
354.92622

> <PUBCHEM_OPENEYE_CAN_SMILES>
CC1(CC(C(CC1Cl)Cl)(CBr)Cl)C=CCl

> <PUBCHEM_OPENEYE_ISO_SMILES>
C[C@@]1(C[C@@]([C@H](C[C@H]1Cl)Cl)(CBr)Cl)/C=C/Cl

> <PUBCHEM_CACTVS_TPSA>
0

> <PUBCHEM_MONOISOTOPIC_WEIGHT>
351.895473

> <PUBCHEM_TOTAL_CHARGE>
0

> <PUBCHEM_HEAVY_ATOM_COUNT>
15

> <PUBCHEM_ATOM_DEF_STEREO_COUNT>
4

> <PUBCHEM_ATOM_UDEF_STEREO_COUNT>
0

> <PUBCHEM_BOND_DEF_STEREO_COUNT>
1

> <PUBCHEM_BOND_UDEF_STEREO_COUNT>
0

> <PUBCHEM_ISOTOPIC_ATOM_COUNT>
0

> <PUBCHEM_COMPONENT_COUNT>
1

> <PUBCHEM_CACTVS_TAUTO_COUNT>
1

> <PUBCHEM_COORDINATE_TYPE>
1
5
255

> <PUBCHEM_BONDANNOTATIONS>
8  2  6
9  3  6
10  4  6
6  12  5

$$$$

