586346
  -OEChem-06241222462D

 53 53  0     0  0  0  0  0  0999 V2000
    3.0000   -3.0000    0.0000 Si  0  0  0  0  0  0  0  0  0  0  0  0
    3.0000   -2.0000    0.0000 O   0  0  0  0  0  0  0  0  0  0  0  0
    4.7320    1.0000    0.0000 C   0  0  0  0  0  0  0  0  0  0  0  0
    5.5981    1.5000    0.0000 C   0  0  0  0  0  0  0  0  0  0  0  0
    4.7320    0.0000    0.0000 C   0  0  0  0  0  0  0  0  0  0  0  0
    5.5981    2.5000    0.0000 C   0  0  0  0  0  0  0  0  0  0  0  0
    3.8660   -0.5000    0.0000 C   0  0  0  0  0  0  0  0  0  0  0  0
    6.4641    3.0000    0.0000 C   0  0  0  0  0  0  0  0  0  0  0  0
    3.8660   -1.5000    0.0000 C   0  0  0  0  0  0  0  0  0  0  0  0
    6.4641    4.0000    0.0000 C   0  0  0  0  0  0  0  0  0  0  0  0
    3.0000   -4.0000    0.0000 C   0  0  0  0  0  0  0  0  0  0  0  0
    4.0000   -3.0000    0.0000 C   0  0  0  0  0  0  0  0  0  0  0  0
    2.0000   -3.0000    0.0000 C   0  0  0  0  0  0  0  0  0  0  0  0
    7.3301    4.5000    0.0000 C   0  0  0  0  0  0  0  0  0  0  0  0
    2.1340   -4.5000    0.0000 C   0  0  0  0  0  0  0  0  0  0  0  0
    3.8660   -4.5000    0.0000 C   0  0  0  0  0  0  0  0  0  0  0  0
    7.3301    5.5000    0.0000 C   0  0  0  0  0  0  0  0  0  0  0  0
    2.1340   -5.5000    0.0000 C   0  0  0  0  0  0  0  0  0  0  0  0
    3.8660   -5.5000    0.0000 C   0  0  0  0  0  0  0  0  0  0  0  0
    3.0000   -6.0000    0.0000 C   0  0  0  0  0  0  0  0  0  0  0  0
    8.1962    6.0000    0.0000 C   0  0  0  0  0  0  0  0  0  0  0  0
    4.5200    1.5826    0.0000 H   0  0  0  0  0  0  0  0  0  0  0  0
    4.1215    0.8923    0.0000 H   0  0  0  0  0  0  0  0  0  0  0  0
    5.8101    0.9174    0.0000 H   0  0  0  0  0  0  0  0  0  0  0  0
    6.2087    1.6077    0.0000 H   0  0  0  0  0  0  0  0  0  0  0  0
    4.9441   -0.5826    0.0000 H   0  0  0  0  0  0  0  0  0  0  0  0
    5.3426    0.1077    0.0000 H   0  0  0  0  0  0  0  0  0  0  0  0
    5.3860    3.0826    0.0000 H   0  0  0  0  0  0  0  0  0  0  0  0
    4.9875    2.3923    0.0000 H   0  0  0  0  0  0  0  0  0  0  0  0
    3.6540    0.0826    0.0000 H   0  0  0  0  0  0  0  0  0  0  0  0
    3.2554   -0.6077    0.0000 H   0  0  0  0  0  0  0  0  0  0  0  0
    6.6762    2.4174    0.0000 H   0  0  0  0  0  0  0  0  0  0  0  0
    7.0747    3.1077    0.0000 H   0  0  0  0  0  0  0  0  0  0  0  0
    4.0781   -2.0826    0.0000 H   0  0  0  0  0  0  0  0  0  0  0  0
    4.4766   -1.3923    0.0000 H   0  0  0  0  0  0  0  0  0  0  0  0
    6.2520    4.5826    0.0000 H   0  0  0  0  0  0  0  0  0  0  0  0
    5.8535    3.8923    0.0000 H   0  0  0  0  0  0  0  0  0  0  0  0
    4.0000   -3.6200    0.0000 H   0  0  0  0  0  0  0  0  0  0  0  0
    4.6200   -3.0000    0.0000 H   0  0  0  0  0  0  0  0  0  0  0  0
    4.0000   -2.3800    0.0000 H   0  0  0  0  0  0  0  0  0  0  0  0
    2.0000   -2.3800    0.0000 H   0  0  0  0  0  0  0  0  0  0  0  0
    1.3800   -3.0000    0.0000 H   0  0  0  0  0  0  0  0  0  0  0  0
    2.0000   -3.6200    0.0000 H   0  0  0  0  0  0  0  0  0  0  0  0
    7.5422    3.9174    0.0000 H   0  0  0  0  0  0  0  0  0  0  0  0
    7.9407    4.6077    0.0000 H   0  0  0  0  0  0  0  0  0  0  0  0
    1.5970   -4.1900    0.0000 H   0  0  0  0  0  0  0  0  0  0  0  0
    4.4030   -4.1900    0.0000 H   0  0  0  0  0  0  0  0  0  0  0  0
    6.7932    5.8100    0.0000 H   0  0  0  0  0  0  0  0  0  0  0  0
    1.5970   -5.8100    0.0000 H   0  0  0  0  0  0  0  0  0  0  0  0
    4.4030   -5.8100    0.0000 H   0  0  0  0  0  0  0  0  0  0  0  0
    3.0000   -6.6200    0.0000 H   0  0  0  0  0  0  0  0  0  0  0  0
    8.7331    5.6900    0.0000 H   0  0  0  0  0  0  0  0  0  0  0  0
    8.1962    6.6200    0.0000 H   0  0  0  0  0  0  0  0  0  0  0  0
  1  2  1  0  0  0  0
  1 11  1  0  0  0  0
  1 12  1  0  0  0  0
  1 13  1  0  0  0  0
  2  9  1  0  0  0  0
  3  4  1  0  0  0  0
  3  5  1  0  0  0  0
  3 22  1  0  0  0  0
  3 23  1  0  0  0  0
  4  6  1  0  0  0  0
  4 24  1  0  0  0  0
  4 25  1  0  0  0  0
  5  7  1  0  0  0  0
  5 26  1  0  0  0  0
  5 27  1  0  0  0  0
  6  8  1  0  0  0  0
  6 28  1  0  0  0  0
  6 29  1  0  0  0  0
  7  9  1  0  0  0  0
  7 30  1  0  0  0  0
  7 31  1  0  0  0  0
  8 10  1  0  0  0  0
  8 32  1  0  0  0  0
  8 33  1  0  0  0  0
  9 34  1  0  0  0  0
  9 35  1  0  0  0  0
 10 14  1  0  0  0  0
 10 36  1  0  0  0  0
 10 37  1  0  0  0  0
 11 15  2  0  0  0  0
 11 16  1  0  0  0  0
 12 38  1  0  0  0  0
 12 39  1  0  0  0  0
 12 40  1  0  0  0  0
 13 41  1  0  0  0  0
 13 42  1  0  0  0  0
 13 43  1  0  0  0  0
 14 17  1  0  0  0  0
 14 44  1  0  0  0  0
 14 45  1  0  0  0  0
 15 18  1  0  0  0  0
 15 46  1  0  0  0  0
 16 19  2  0  0  0  0
 16 47  1  0  0  0  0
 17 21  2  0  0  0  0
 17 48  1  0  0  0  0
 18 20  2  0  0  0  0
 18 49  1  0  0  0  0
 19 20  1  0  0  0  0
 19 50  1  0  0  0  0
 20 51  1  0  0  0  0
 21 52  1  0  0  0  0
 21 53  1  0  0  0  0
M  END
> <PUBCHEM_COMPOUND_CID>
586346

> <PUBCHEM_COMPOUND_CANONICALIZED>
1

> <PUBCHEM_CACTVS_COMPLEXITY>
256

> <PUBCHEM_CACTVS_HBOND_ACCEPTOR>
1

> <PUBCHEM_CACTVS_HBOND_DONOR>
0

> <PUBCHEM_CACTVS_ROTATABLE_BOND>
12

> <PUBCHEM_CACTVS_SUBSKEYS>
AAADcfB4IAgAAAAAAAAAAAAAAAAAAAAAAAAwAAAAAAAAAAABAAAAGhAAAEAACACgsAJyAIAAAAGAACBCAAACAAAgAAAIiAAAAIgIICKAERCAIAAkgAAIiAeAwKAAAAAAAAAAAAAAAAAAAAAAAAAAAAAAAA==

> <PUBCHEM_IUPAC_OPENEYE_NAME>
dimethyl-phenyl-undec-10-enoxy-silane

> <PUBCHEM_IUPAC_CAS_NAME>
dimethyl-phenyl-undec-10-enoxysilane

> <PUBCHEM_IUPAC_NAME>
dimethyl-phenyl-undec-10-enoxysilane

> <PUBCHEM_IUPAC_SYSTEMATIC_NAME>
dimethyl-phenyl-undec-10-enoxy-silane

> <PUBCHEM_IUPAC_TRADITIONAL_NAME>
dimethyl-phenyl-undec-10-enoxy-silane

> <PUBCHEM_IUPAC_INCHI>
InChI=1S/C19H32OSi/c1-4-5-6-7-8-9-10-11-15-18-20-21(2,3)19-16-13-12-14-17-19/h4,12-14,16-17H,1,5-11,15,18H2,2-3H3

> <PUBCHEM_IUPAC_INCHIKEY>
DMHJDDDTPQOBFY-UHFFFAOYSA-N

> <PUBCHEM_EXACT_MASS>
304.222242

> <PUBCHEM_MOLECULAR_FORMULA>
C19H32OSi

> <PUBCHEM_MOLECULAR_WEIGHT>
304.54228

> <PUBCHEM_OPENEYE_CAN_SMILES>
C[Si](C)(C1=CC=CC=C1)OCCCCCCCCCC=C

> <PUBCHEM_OPENEYE_ISO_SMILES>
C[Si](C)(C1=CC=CC=C1)OCCCCCCCCCC=C

> <PUBCHEM_CACTVS_TPSA>
9.2

> <PUBCHEM_MONOISOTOPIC_WEIGHT>
304.222242

> <PUBCHEM_TOTAL_CHARGE>
0

> <PUBCHEM_HEAVY_ATOM_COUNT>
21

> <PUBCHEM_ATOM_DEF_STEREO_COUNT>
0

> <PUBCHEM_ATOM_UDEF_STEREO_COUNT>
0

> <PUBCHEM_BOND_DEF_STEREO_COUNT>
0

> <PUBCHEM_BOND_UDEF_STEREO_COUNT>
0

> <PUBCHEM_ISOTOPIC_ATOM_COUNT>
0

> <PUBCHEM_COMPONENT_COUNT>
1

> <PUBCHEM_CACTVS_TAUTO_COUNT>
1

> <PUBCHEM_COORDINATE_TYPE>
1
5
255

> <PUBCHEM_BONDANNOTATIONS>
11  15  8
11  16  8
15  18  8
16  19  8
18  20  8
19  20  8

$$$$

