5281877
  -OEChem-07051213012D

 70 71  0     1  0  0  0  0  0999 V2000
    9.7942   -3.0280    0.0000 O   0  0  0  0  0  0  0  0  0  0  0  0
    9.7942   -6.0280    0.0000 O   0  0  0  0  0  0  0  0  0  0  0  0
   11.5263   -5.0280    0.0000 O   0  0  0  0  0  0  0  0  0  0  0  0
    8.0622   -5.0280    0.0000 O   0  0  0  0  0  0  0  0  0  0  0  0
    8.0622   -3.0280    0.0000 O   0  0  0  0  0  0  0  0  0  0  0  0
   11.5263   -2.0280    0.0000 O   0  0  0  0  0  0  0  0  0  0  0  0
   12.3923   -3.5280    0.0000 O   0  0  0  0  0  0  0  0  0  0  0  0
    8.9282   -1.5280    0.0000 O   0  0  0  0  0  0  0  0  0  0  0  0
    3.7320    5.4720    0.0000 C   0  0  0  0  0  0  0  0  0  0  0  0
    2.8660    5.9720    0.0000 C   0  0  0  0  0  0  0  0  0  0  0  0
    2.0000    5.4720    0.0000 C   0  0  0  0  0  0  0  0  0  0  0  0
    3.7320    4.4720    0.0000 C   0  0  0  0  0  0  0  0  0  0  0  0
    2.0000    4.4720    0.0000 C   0  0  0  0  0  0  0  0  0  0  0  0
    2.8660    3.9720    0.0000 C   0  0  0  0  0  0  0  0  0  0  0  0
    4.2320    6.3380    0.0000 C   0  0  0  0  0  0  0  0  0  0  0  0
    4.7320    5.4720    0.0000 C   0  0  0  0  0  0  0  0  0  0  0  0
    9.7942   -5.0280    0.0000 C   0  0  1  0  0  0  0  0  0  0  0  0
   10.6603   -4.5280    0.0000 C   0  0  1  0  0  0  0  0  0  0  0  0
    4.5981    3.9720    0.0000 C   0  0  0  0  0  0  0  0  0  0  0  0
    8.9282   -4.5280    0.0000 C   0  0  2  0  0  0  0  0  0  0  0  0
    2.8660    2.9720    0.0000 C   0  0  0  0  0  0  0  0  0  0  0  0
   10.6603   -3.5280    0.0000 C   0  0  1  0  0  0  0  0  0  0  0  0
    8.9282   -3.5280    0.0000 C   0  0  1  0  0  0  0  0  0  0  0  0
    4.5981    2.9720    0.0000 C   0  0  0  0  0  0  0  0  0  0  0  0
   11.5263   -3.0280    0.0000 C   0  0  0  0  0  0  0  0  0  0  0  0
    5.4641    2.4720    0.0000 C   0  0  0  0  0  0  0  0  0  0  0  0
    8.0622   -2.0280    0.0000 C   0  0  0  0  0  0  0  0  0  0  0  0
    6.3301    2.9720    0.0000 C   0  0  0  0  0  0  0  0  0  0  0  0
    5.4641    1.4720    0.0000 C   0  0  0  0  0  0  0  0  0  0  0  0
    7.1962   -1.5280    0.0000 C   0  0  0  0  0  0  0  0  0  0  0  0
    6.3301    0.9720    0.0000 C   0  0  0  0  0  0  0  0  0  0  0  0
    7.1962   -0.5280    0.0000 C   0  0  0  0  0  0  0  0  0  0  0  0
    6.3301   -0.0280    0.0000 C   0  0  0  0  0  0  0  0  0  0  0  0
    8.0622   -0.0280    0.0000 C   0  0  0  0  0  0  0  0  0  0  0  0
    3.2646    6.4469    0.0000 H   0  0  0  0  0  0  0  0  0  0  0  0
    2.4675    6.4469    0.0000 H   0  0  0  0  0  0  0  0  0  0  0  0
    1.7880    6.0546    0.0000 H   0  0  0  0  0  0  0  0  0  0  0  0
    1.3894    5.3643    0.0000 H   0  0  0  0  0  0  0  0  0  0  0  0
    1.3894    4.5796    0.0000 H   0  0  0  0  0  0  0  0  0  0  0  0
    1.7880    3.8894    0.0000 H   0  0  0  0  0  0  0  0  0  0  0  0
    4.7690    6.0280    0.0000 H   0  0  0  0  0  0  0  0  0  0  0  0
    4.5420    6.8750    0.0000 H   0  0  0  0  0  0  0  0  0  0  0  0
    3.6951    6.6480    0.0000 H   0  0  0  0  0  0  0  0  0  0  0  0
    4.7320    4.8520    0.0000 H   0  0  0  0  0  0  0  0  0  0  0  0
    5.3520    5.4720    0.0000 H   0  0  0  0  0  0  0  0  0  0  0  0
    4.7320    6.0920    0.0000 H   0  0  0  0  0  0  0  0  0  0  0  0
    9.2573   -5.3380    0.0000 H   0  0  0  0  0  0  0  0  0  0  0  0
   11.1972   -4.2180    0.0000 H   0  0  0  0  0  0  0  0  0  0  0  0
    8.9282   -5.1480    0.0000 H   0  0  0  0  0  0  0  0  0  0  0  0
    5.1350    4.2820    0.0000 H   0  0  0  0  0  0  0  0  0  0  0  0
    2.2460    2.9720    0.0000 H   0  0  0  0  0  0  0  0  0  0  0  0
    2.8660    2.3520    0.0000 H   0  0  0  0  0  0  0  0  0  0  0  0
    3.4860    2.9720    0.0000 H   0  0  0  0  0  0  0  0  0  0  0  0
   10.6603   -2.9080    0.0000 H   0  0  0  0  0  0  0  0  0  0  0  0
    8.9282   -2.9080    0.0000 H   0  0  0  0  0  0  0  0  0  0  0  0
    4.0611    2.6620    0.0000 H   0  0  0  0  0  0  0  0  0  0  0  0
    9.2573   -6.3380    0.0000 H   0  0  0  0  0  0  0  0  0  0  0  0
   11.5263   -5.6480    0.0000 H   0  0  0  0  0  0  0  0  0  0  0  0
    7.5252   -4.7180    0.0000 H   0  0  0  0  0  0  0  0  0  0  0  0
    6.6401    2.4350    0.0000 H   0  0  0  0  0  0  0  0  0  0  0  0
    6.8671    3.2820    0.0000 H   0  0  0  0  0  0  0  0  0  0  0  0
    6.0201    3.5089    0.0000 H   0  0  0  0  0  0  0  0  0  0  0  0
   12.0632   -1.7180    0.0000 H   0  0  0  0  0  0  0  0  0  0  0  0
    4.9272    1.1620    0.0000 H   0  0  0  0  0  0  0  0  0  0  0  0
    6.6592   -1.8380    0.0000 H   0  0  0  0  0  0  0  0  0  0  0  0
    6.8671    1.2820    0.0000 H   0  0  0  0  0  0  0  0  0  0  0  0
    5.7932   -0.3380    0.0000 H   0  0  0  0  0  0  0  0  0  0  0  0
    8.3722   -0.5649    0.0000 H   0  0  0  0  0  0  0  0  0  0  0  0
    8.5991    0.2820    0.0000 H   0  0  0  0  0  0  0  0  0  0  0  0
    7.7522    0.5089    0.0000 H   0  0  0  0  0  0  0  0  0  0  0  0
  1 22  1  0  0  0  0
  1 23  1  0  0  0  0
 17  2  1  6  0  0  0
  2 57  1  0  0  0  0
 18  3  1  1  0  0  0
  3 58  1  0  0  0  0
 20  4  1  1  0  0  0
  4 59  1  0  0  0  0
 23  5  1  6  0  0  0
  5 27  1  0  0  0  0
  6 25  1  0  0  0  0
  6 63  1  0  0  0  0
  7 25  2  0  0  0  0
  8 27  2  0  0  0  0
  9 10  1  0  0  0  0
  9 12  1  0  0  0  0
  9 15  1  0  0  0  0
  9 16  1  0  0  0  0
 10 11  1  0  0  0  0
 10 35  1  0  0  0  0
 10 36  1  0  0  0  0
 11 13  1  0  0  0  0
 11 37  1  0  0  0  0
 11 38  1  0  0  0  0
 12 14  2  0  0  0  0
 12 19  1  0  0  0  0
 13 14  1  0  0  0  0
 13 39  1  0  0  0  0
 13 40  1  0  0  0  0
 14 21  1  0  0  0  0
 15 41  1  0  0  0  0
 15 42  1  0  0  0  0
 15 43  1  0  0  0  0
 16 44  1  0  0  0  0
 16 45  1  0  0  0  0
 16 46  1  0  0  0  0
 17 18  1  0  0  0  0
 17 20  1  0  0  0  0
 17 47  1  0  0  0  0
 18 22  1  0  0  0  0
 18 48  1  0  0  0  0
 19 24  2  0  0  0  0
 19 50  1  0  0  0  0
 20 23  1  0  0  0  0
 20 49  1  0  0  0  0
 21 51  1  0  0  0  0
 21 52  1  0  0  0  0
 21 53  1  0  0  0  0
 22 25  1  6  0  0  0
 22 54  1  0  0  0  0
 23 55  1  0  0  0  0
 24 26  1  0  0  0  0
 24 56  1  0  0  0  0
 26 28  1  0  0  0  0
 26 29  2  0  0  0  0
 27 30  1  0  0  0  0
 28 60  1  0  0  0  0
 28 61  1  0  0  0  0
 28 62  1  0  0  0  0
 29 31  1  0  0  0  0
 29 64  1  0  0  0  0
 30 32  2  0  0  0  0
 30 65  1  0  0  0  0
 31 33  2  0  0  0  0
 31 66  1  0  0  0  0
 32 33  1  0  0  0  0
 32 34  1  0  0  0  0
 33 67  1  0  0  0  0
 34 68  1  0  0  0  0
 34 69  1  0  0  0  0
 34 70  1  0  0  0  0
M  END
> <PUBCHEM_COMPOUND_CID>
5281877

> <PUBCHEM_COMPOUND_CANONICALIZED>
1

> <PUBCHEM_CACTVS_COMPLEXITY>
921

> <PUBCHEM_CACTVS_HBOND_ACCEPTOR>
8

> <PUBCHEM_CACTVS_HBOND_DONOR>
4

> <PUBCHEM_CACTVS_ROTATABLE_BOND>
8

> <PUBCHEM_CACTVS_SUBSKEYS>
AAADcfB4PAAAAAAAAAAAAAAAAAAAAAAAAAAkQAAAAAAAAAAAAAAAGgAACAAADhSwgAMCCAAABgCIAiDSCAIAAAAgAAAICAFAAEgZFBYAIQQiUAAFoAAPoQPK7MxPAAAAAAAAAAAAAAAAAAAAAAAAAAAAAA==

> <PUBCHEM_IUPAC_OPENEYE_NAME>
(2S,3S,4S,5R,6S)-6-[(2E,4E,6E,8E)-3,7-dimethyl-9-(2,6,6-trimethylcyclohexen-1-yl)nona-2,4,6,8-tetraenoyl]oxy-3,4,5-trihydroxy-tetrahydropyran-2-carboxylic acid

> <PUBCHEM_IUPAC_CAS_NAME>
(2S,3S,4S,5R,6S)-6-[(2E,4E,6E,8E)-3,7-dimethyl-1-oxo-9-(2,6,6-trimethyl-1-cyclohexenyl)nona-2,4,6,8-tetraenoxy]-3,4,5-trihydroxy-2-oxanecarboxylic acid

> <PUBCHEM_IUPAC_NAME>
(2S,3S,4S,5R,6S)-6-[(2E,4E,6E,8E)-3,7-dimethyl-9-(2,6,6-trimethylcyclohexen-1-yl)nona-2,4,6,8-tetraenoyl]oxy-3,4,5-trihydroxyoxane-2-carboxylic acid

> <PUBCHEM_IUPAC_SYSTEMATIC_NAME>
(2S,3S,4S,5R,6S)-6-[(2E,4E,6E,8E)-3,7-dimethyl-9-(2,6,6-trimethylcyclohexen-1-yl)nona-2,4,6,8-tetraenoyl]oxy-3,4,5-tris(oxidanyl)oxane-2-carboxylic acid

> <PUBCHEM_IUPAC_TRADITIONAL_NAME>
(2S,3S,4S,5R,6S)-6-[(2E,4E,6E,8E)-3,7-dimethyl-9-(2,6,6-trimethylcyclohexen-1-yl)nona-2,4,6,8-tetraenoyl]oxy-3,4,5-trihydroxy-tetrahydropyran-2-carboxylic acid

> <PUBCHEM_IUPAC_INCHI>
InChI=1S/C26H36O8/c1-15(11-12-18-17(3)10-7-13-26(18,4)5)8-6-9-16(2)14-19(27)33-25-22(30)20(28)21(29)23(34-25)24(31)32/h6,8-9,11-12,14,20-23,25,28-30H,7,10,13H2,1-5H3,(H,31,32)/b9-6+,12-11+,15-8+,16-14+/t20-,21-,22+,23-,25+/m0/s1

> <PUBCHEM_IUPAC_INCHIKEY>
MTGFYEHKPMOVNE-NEFMKCFNSA-N

> <PUBCHEM_XLOGP3_AA>
4.4

> <PUBCHEM_EXACT_MASS>
476.241018

> <PUBCHEM_MOLECULAR_FORMULA>
C26H36O8

> <PUBCHEM_MOLECULAR_WEIGHT>
476.55924

> <PUBCHEM_OPENEYE_CAN_SMILES>
CC1=C(C(CCC1)(C)C)C=CC(=CC=CC(=CC(=O)OC2C(C(C(C(O2)C(=O)O)O)O)O)C)C

> <PUBCHEM_OPENEYE_ISO_SMILES>
CC1=C(C(CCC1)(C)C)/C=C/C(=C/C=C/C(=C/C(=O)O[C@H]2[C@@H]([C@H]([C@@H]([C@H](O2)C(=O)O)O)O)O)/C)/C

> <PUBCHEM_CACTVS_TPSA>
134

> <PUBCHEM_MONOISOTOPIC_WEIGHT>
476.241018

> <PUBCHEM_TOTAL_CHARGE>
0

> <PUBCHEM_HEAVY_ATOM_COUNT>
34

> <PUBCHEM_ATOM_DEF_STEREO_COUNT>
5

> <PUBCHEM_ATOM_UDEF_STEREO_COUNT>
0

> <PUBCHEM_BOND_DEF_STEREO_COUNT>
4

> <PUBCHEM_BOND_UDEF_STEREO_COUNT>
0

> <PUBCHEM_ISOTOPIC_ATOM_COUNT>
0

> <PUBCHEM_COMPONENT_COUNT>
1

> <PUBCHEM_CACTVS_TAUTO_COUNT>
1

> <PUBCHEM_COORDINATE_TYPE>
1
5
255

> <PUBCHEM_BONDANNOTATIONS>
17  2  6
22  25  6
18  3  5
20  4  5
23  5  6

$$$$

