   Color/Form

     * Colorless crystals
     * Plates from water

   from [1]HSDB

   Boiling Point
        Decomposes
   from [2]HSDB

   Melting Point
        Decomposes at 230 deg C
   from [3]HSDB

   Critical Temperature and Pressure
        Critical temperature = 800.00 K; Critical pressure = 3.9500X10+6
   Pa
   from [4]HSDB

   Density/Specific Gravity
        1.593 g/cu cm at 15 deg C
   from [5]HSDB

   Dissociation Constants
        pKa1 = 2.76; pKa2 = 4.92 at 25 deg C
   from [6]HSDB

   Heat of Combustion
        19657.03 J/g
   from [7]HSDB

   Octanol/Water Partition Coefficient
        log Kow = 0.73
   from [8]HSDB

   Solubilities

     * Soluble in alcohol; sparingly soluble in ether
     * 1 g dissolves in 160 ml water, 10 ml alc, 205 ml ether, 5.3 ml
       methanol; practically insol in chloroform
     * In water, 6,965 mg/L at 25 deg C

   from [9]HSDB

   Spectral Properties

     * MAX ABSORPTION (ALCOHOL): 225 NM (LOG E= 3.88); 275 NM (LOG E=
       3.08); SADTLER REF NUMBER: 6272 (IR, PRISM); 8442 (IR, GRATING)
     * IR: 1603 (Coblentz Society Spectral Collection)
     * UV: 1730 (Sadtler Research Laboratories Spectral Collection)
     * 1H NMR: 17103 (Sadtler Research Laboratories Spectral Collection)
     * MASS: 1080 (Atlas of Mass Spectral Data, John Wiley & Sons, New
       York); 21933 (NIST/EPA/MSDC Mass Spectral Database, 1990 version)

   from [10]HSDB

   Vapor Density
        5.73 (AIR= 1)
   from [11]HSDB

   Vapor Pressure
        6.36X10-7 mm Hg at 25 deg C
   from [12]HSDB

   Other Chemical/Physical Properties

     * ...When rapidly heated, forming phthalic anhydride and water
     * Melting point: ca. 210 deg C, converted into phthalic anhydride
       with the elimination of water.
     * Density/specific gravity: 9.4864 kmol/cu m @ 20 deg C
     * Specific heat = 1138 J/kg-K at 300 K
     * Specific heat of solid (0-99 deg C) 1.214 J/g-K
     * Heat of fusion = 315.3 J/g
     * Heat of solution = 123.55 J/g at 25 deg C
     * Triple point temperature and pressure = 464.15 K (estimated to be
       equal to the melting point), 7.8183X10+3 Pa
     * Boiling point = 598.00 K (Based on predicted value for phthalic
       acid by Meissner's method with a suitable adjustment for isomerism
       based on similar compound relationships.)
     * Melting point = 464.15 K (determined in a sealed tube)
     * Henry's Law constant = 2.1X10-11 atm-cu m/mole at 25 deg C (est)
     * Hydroxyl radical reaction rate constant = 1.24X10-12 cu
       cm/molecule-sec at 25 deg C (est)

   from [13]HSDB

   Computed Properties
   Molecular Weight                  166.13084 [g/mol]
   Molecular Formula                 C[8]H[6]O[4]
   XLogP3                            0.7
   H-Bond Donor                      2
   H-Bond Acceptor                   4
   Rotatable Bond Count              2
   Exact Mass                        166.026609
   MonoIsotopic Mass                 166.026609
   Topological Polar Surface Area    74.6
   Heavy Atom Count                  12
   Formal Charge                     0
   Complexity                        177
   Isotope Atom Count                0
   Defined Atom Stereocenter Count   0
   Undefined Atom Stereocenter Count 0
   Defined Bond Stereocenter Count   0
   Undefined Bond Stereocenter Count 0
   Covalently-Bonded Unit Count      1
   Feature 3D Acceptor Count         4
   Feature 3D Anion Count            2
   Feature 3D Ring Count             1
   Effective Rotor Count             2
   Conformer Sampling RMSD           0.6
   CID Conformer Count               [14]2

References

   1. http://toxnet.nlm.nih.gov/cgi-bin/sis/search/r?dbs+hsdb:@term+@rn+@rel+88-99-3
   2. http://toxnet.nlm.nih.gov/cgi-bin/sis/search/r?dbs+hsdb:@term+@rn+@rel+88-99-3
   3. http://toxnet.nlm.nih.gov/cgi-bin/sis/search/r?dbs+hsdb:@term+@rn+@rel+88-99-3
   4. http://toxnet.nlm.nih.gov/cgi-bin/sis/search/r?dbs+hsdb:@term+@rn+@rel+88-99-3
   5. http://toxnet.nlm.nih.gov/cgi-bin/sis/search/r?dbs+hsdb:@term+@rn+@rel+88-99-3
   6. http://toxnet.nlm.nih.gov/cgi-bin/sis/search/r?dbs+hsdb:@term+@rn+@rel+88-99-3
   7. http://toxnet.nlm.nih.gov/cgi-bin/sis/search/r?dbs+hsdb:@term+@rn+@rel+88-99-3
   8. http://toxnet.nlm.nih.gov/cgi-bin/sis/search/r?dbs+hsdb:@term+@rn+@rel+88-99-3
   9. http://toxnet.nlm.nih.gov/cgi-bin/sis/search/r?dbs+hsdb:@term+@rn+@rel+88-99-3
  10. http://toxnet.nlm.nih.gov/cgi-bin/sis/search/r?dbs+hsdb:@term+@rn+@rel+88-99-3
  11. http://toxnet.nlm.nih.gov/cgi-bin/sis/search/r?dbs+hsdb:@term+@rn+@rel+88-99-3
  12. http://toxnet.nlm.nih.gov/cgi-bin/sis/search/r?dbs+hsdb:@term+@rn+@rel+88-99-3
  13. http://toxnet.nlm.nih.gov/cgi-bin/sis/search/r?dbs+hsdb:@term+@rn+@rel+88-99-3
  14. http://pubchem.ncbi.nlm.nih.gov/vw3d/vw3d.cgi?cid=1017
