   Color/Form
        COLORLESS LIQUID
   from [1]HSDB

   Odor

     * SWEETISH AROMATIC ODOR
     * MILD PLEASANT ODOR

   from [2]HSDB

   Boiling Point
        177.10 deg C
   from [3]HSDB

   Melting Point
        -68.9 deg C
   from [4]HSDB

   Density/Specific Gravity
        Specific gravity: 0.8610 @ 20 deg C/4 deg C
   from [5]HSDB

   Heat of Combustion
        -10,400 CAL/G= -437 X 10(5) J/KG
   from [6]HSDB

   Heat of Vaporization
        67.8 CAL/G= 2.84 X 10(5) J/KG
   from [7]HSDB

   Octanol/Water Partition Coefficient
        log Kow= 4.10
   from [8]HSDB

   Solubilities

     * Miscible in ethanol, acetone, and ether
     * Water solubility of 23.4 mg/l at 25 deg C.
     * Soluble in alcohol, ether, acetone, benzene.

   from [9]HSDB

   Spectral Properties

     * Index of refraction: 1.4909 @ 20 deg C/D
     * MAX ABSORPTION (HEXANE): 261 NM (LOG E= 2.4), 267 NM (LOG E= 2.6),
       274 NM (LOG E= 2.6)
     * IR: 3602 (Coblentz Society Spectral Collection)
     * UV: 324 (Sadtler Research Laboratories Spectral Collection)
     * NMR: 268 (Varian Associates NMR Spectra Catalogue)
     * MASS: 675 (Atlas of Mass Spectral Data, John Wiley & Sons, New
       York)
     * UV: 5-155 (Organic Electronic Spectral Data, Phillips et al, John
       Wiley & Sons, New York)

   from [10]HSDB

   Surface Tension
        28.09 DYNES/CM= 0.02809 N/M @ 20 DEG C
   from [11]HSDB

   Vapor Density
        4.62 (AIR= 1)
   from [12]HSDB

   Vapor Pressure
        1.5 mm Hg @ 25 deg C
   from [13]HSDB

   Other Chemical/Physical Properties

     * LIQUID-WATER INTERFACIAL TENSION: 36.41 DYNES/CM @ 20 DEG C
     * Hydroxyl radical rate constant= 1.51X10-11 cu cm/molecule-sec @ 22
       deg C

   from [14]HSDB

   Computed Properties
   Molecular Weight                  134.21816 [g/mol]
   Molecular Formula                 C[10]H[14]
   XLogP3                            4.1
   H-Bond Donor                      0
   H-Bond Acceptor                   0
   Rotatable Bond Count              1
   Exact Mass                        134.10955
   MonoIsotopic Mass                 134.10955
   Topological Polar Surface Area    0
   Heavy Atom Count                  10
   Formal Charge                     0
   Complexity                        86.2
   Isotope Atom Count                0
   Defined Atom Stereocenter Count   0
   Undefined Atom Stereocenter Count 0
   Defined Bond Stereocenter Count   0
   Undefined Bond Stereocenter Count 0
   Covalently-Bonded Unit Count      1
   Feature 3D Hydrophobe Count       1
   Feature 3D Ring Count             1
   Effective Rotor Count             1
   Conformer Sampling RMSD           0.4
   CID Conformer Count               [15]2

References

   1. http://toxnet.nlm.nih.gov/cgi-bin/sis/search/r?dbs+hsdb:@term+@rn+@rel+99-87-6
   2. http://toxnet.nlm.nih.gov/cgi-bin/sis/search/r?dbs+hsdb:@term+@rn+@rel+99-87-6
   3. http://toxnet.nlm.nih.gov/cgi-bin/sis/search/r?dbs+hsdb:@term+@rn+@rel+99-87-6
   4. http://toxnet.nlm.nih.gov/cgi-bin/sis/search/r?dbs+hsdb:@term+@rn+@rel+99-87-6
   5. http://toxnet.nlm.nih.gov/cgi-bin/sis/search/r?dbs+hsdb:@term+@rn+@rel+99-87-6
   6. http://toxnet.nlm.nih.gov/cgi-bin/sis/search/r?dbs+hsdb:@term+@rn+@rel+99-87-6
   7. http://toxnet.nlm.nih.gov/cgi-bin/sis/search/r?dbs+hsdb:@term+@rn+@rel+99-87-6
   8. http://toxnet.nlm.nih.gov/cgi-bin/sis/search/r?dbs+hsdb:@term+@rn+@rel+99-87-6
   9. http://toxnet.nlm.nih.gov/cgi-bin/sis/search/r?dbs+hsdb:@term+@rn+@rel+99-87-6
  10. http://toxnet.nlm.nih.gov/cgi-bin/sis/search/r?dbs+hsdb:@term+@rn+@rel+99-87-6
  11. http://toxnet.nlm.nih.gov/cgi-bin/sis/search/r?dbs+hsdb:@term+@rn+@rel+99-87-6
  12. http://toxnet.nlm.nih.gov/cgi-bin/sis/search/r?dbs+hsdb:@term+@rn+@rel+99-87-6
  13. http://toxnet.nlm.nih.gov/cgi-bin/sis/search/r?dbs+hsdb:@term+@rn+@rel+99-87-6
  14. http://toxnet.nlm.nih.gov/cgi-bin/sis/search/r?dbs+hsdb:@term+@rn+@rel+99-87-6
  15. http://pubchem.ncbi.nlm.nih.gov/vw3d/vw3d.cgi?cid=7463
