   Color/Form

     * Crystals
     * WHITE TO CREAMY-WHITE POWDER

   from [1]HSDB

   Odor
        ALMOST ODORLESS
   from [2]HSDB

   Taste
        BITTER TASTE
   from [3]HSDB

   Boiling Point
        214-218 deg C @ 0.15 mm Hg; 278-281 @ 1 mm Hg
   from [4]HSDB

   Melting Point
        94-100 deg C
   from [5]HSDB

   Octanol/Water Partition Coefficient
        log Kow= 4.20
   from [6]HSDB

   pH
        pH = 4.2 - 5.6
   from [7]HSDB

   Solubilities

     * Practically insol in sesame oil; 153 mg/ml in ethanol; 82 mg/ml in
       acetone
     * FREELY SOL IN CHLOROFORM; SPARINGLY SOL IN DIETHYL ETHER
     * In water, 28.3 mg/l @ 24 deg C

   from [8]HSDB

   Spectral Properties

     * MAX ABSORPTION (ACID): 255 NM (A= 860, 1%, 1 CM); 309 NM (A= 110,
       1%, 1 CM)
     * MAX ABSORPTION (BASE): 256 NM (A= 860, 1%, 1 CM); 309 NM (A= 110,
       1%, 1 CM)
     * IR: 5165 (Coblentz Society Spectral Collection)
     * MASS: 3134 (National Bureau of Standards EPA-NIH Mass Spectra Data
       Base, NSRDS-NBS-63)

   from [9]HSDB

   Other Chemical/Physical Properties

     * Crystals from alcohol /Dihydrochloride/
     * Osmolality of 5 mg/ml is 263 mOsm/kg.

   from [10]HSDB

   Computed Properties
   Molecular Weight                  403.96864 [g/mol]
   Molecular Formula                 C[21]H[26]ClN[3]OS
   XLogP3                            4.2
   H-Bond Donor                      1
   H-Bond Acceptor                   5
   Rotatable Bond Count              6
   Exact Mass                        403.148511
   MonoIsotopic Mass                 403.148511
   Topological Polar Surface Area    55.2
   Heavy Atom Count                  27
   Formal Charge                     0
   Complexity                        463
   Isotope Atom Count                0
   Defined Atom Stereocenter Count   0
   Undefined Atom Stereocenter Count 0
   Defined Bond Stereocenter Count   0
   Undefined Bond Stereocenter Count 0
   Covalently-Bonded Unit Count      1
   Feature 3D Acceptor Count         1
   Feature 3D Donor Count            1
   Feature 3D Cation Count           3
   Feature 3D Ring Count             4
   Effective Rotor Count             7.6
   Conformer Sampling RMSD           0.8
   CID Conformer Count               [11]112

References

   1. http://toxnet.nlm.nih.gov/cgi-bin/sis/search/r?dbs+hsdb:@term+@rn+@rel+58-39-9
   2. http://toxnet.nlm.nih.gov/cgi-bin/sis/search/r?dbs+hsdb:@term+@rn+@rel+58-39-9
   3. http://toxnet.nlm.nih.gov/cgi-bin/sis/search/r?dbs+hsdb:@term+@rn+@rel+58-39-9
   4. http://toxnet.nlm.nih.gov/cgi-bin/sis/search/r?dbs+hsdb:@term+@rn+@rel+58-39-9
   5. http://toxnet.nlm.nih.gov/cgi-bin/sis/search/r?dbs+hsdb:@term+@rn+@rel+58-39-9
   6. http://toxnet.nlm.nih.gov/cgi-bin/sis/search/r?dbs+hsdb:@term+@rn+@rel+58-39-9
   7. http://toxnet.nlm.nih.gov/cgi-bin/sis/search/r?dbs+hsdb:@term+@rn+@rel+58-39-9
   8. http://toxnet.nlm.nih.gov/cgi-bin/sis/search/r?dbs+hsdb:@term+@rn+@rel+58-39-9
   9. http://toxnet.nlm.nih.gov/cgi-bin/sis/search/r?dbs+hsdb:@term+@rn+@rel+58-39-9
  10. http://toxnet.nlm.nih.gov/cgi-bin/sis/search/r?dbs+hsdb:@term+@rn+@rel+58-39-9
  11. http://pubchem.ncbi.nlm.nih.gov/vw3d/vw3d.cgi?cid=4748
