14036
  -OEChem-06241222412D

 24 22  0     0  0  0  0  0  0999 V2000
    2.6350    1.9030    0.0000 S   0  5  0  0  0  0  0  0  0  0  0  0
    3.6350    0.1709    0.0000 S   0  0  0  0  0  0  0  0  0  0  0  0
    3.1350    1.0369    0.0000 P   0  0  0  0  0  0  0  0  0  0  0  0
    4.0010    1.5369    0.0000 O   0  0  0  0  0  0  0  0  0  0  0  0
    2.2690    0.5369    0.0000 O   0  0  0  0  0  0  0  0  0  0  0  0
    3.1350    4.6108    0.0000 N   0  3  0  0  0  0  0  0  0  0  0  0
    4.8671    1.0369    0.0000 C   0  0  0  0  0  0  0  0  0  0  0  0
    1.4030    1.0369    0.0000 C   0  0  0  0  0  0  0  0  0  0  0  0
    5.7331    1.5369    0.0000 C   0  0  0  0  0  0  0  0  0  0  0  0
    0.5369    0.5369    0.0000 C   0  0  0  0  0  0  0  0  0  0  0  0
    4.4685    0.5620    0.0000 H   0  0  0  0  0  0  0  0  0  0  0  0
    5.2656    0.5620    0.0000 H   0  0  0  0  0  0  0  0  0  0  0  0
    1.8015    1.5119    0.0000 H   0  0  0  0  0  0  0  0  0  0  0  0
    1.0044    1.5119    0.0000 H   0  0  0  0  0  0  0  0  0  0  0  0
    6.0431    1.0000    0.0000 H   0  0  0  0  0  0  0  0  0  0  0  0
    6.2700    1.8469    0.0000 H   0  0  0  0  0  0  0  0  0  0  0  0
    5.4231    2.0739    0.0000 H   0  0  0  0  0  0  0  0  0  0  0  0
    0.2269    1.0739    0.0000 H   0  0  0  0  0  0  0  0  0  0  0  0
    0.0000    0.2269    0.0000 H   0  0  0  0  0  0  0  0  0  0  0  0
    0.8469    0.0000    0.0000 H   0  0  0  0  0  0  0  0  0  0  0  0
    3.6720    4.9208    0.0000 H   0  0  0  0  0  0  0  0  0  0  0  0
    2.5981    4.3008    0.0000 H   0  0  0  0  0  0  0  0  0  0  0  0
    2.8250    5.1477    0.0000 H   0  0  0  0  0  0  0  0  0  0  0  0
    3.4450    4.0739    0.0000 H   0  0  0  0  0  0  0  0  0  0  0  0
  1  3  1  0  0  0  0
  2  3  2  0  0  0  0
  3  4  1  0  0  0  0
  3  5  1  0  0  0  0
  4  7  1  0  0  0  0
  5  8  1  0  0  0  0
  6 21  1  0  0  0  0
  6 22  1  0  0  0  0
  6 23  1  0  0  0  0
  6 24  1  0  0  0  0
  7  9  1  0  0  0  0
  7 11  1  0  0  0  0
  7 12  1  0  0  0  0
  8 10  1  0  0  0  0
  8 13  1  0  0  0  0
  8 14  1  0  0  0  0
  9 15  1  0  0  0  0
  9 16  1  0  0  0  0
  9 17  1  0  0  0  0
 10 18  1  0  0  0  0
 10 19  1  0  0  0  0
 10 20  1  0  0  0  0
M  CHG  2   1  -1   6   1
M  END
> <PUBCHEM_COMPOUND_CID>
14036

> <PUBCHEM_COMPOUND_CANONICALIZED>
1

> <PUBCHEM_CACTVS_COMPLEXITY>
98.9

> <PUBCHEM_CACTVS_HBOND_ACCEPTOR>
4

> <PUBCHEM_CACTVS_HBOND_DONOR>
1

> <PUBCHEM_CACTVS_ROTATABLE_BOND>
4

> <PUBCHEM_CACTVS_SUBSKEYS>
AAADccBiMAJgAAAAAAAAAAAAAAAAAAAAAAAAAAAAAAAAAAAAAAAAGgAQACAAAACggAICAAAAARAAAAAAAAAAAAAAAAAAAAAAAAAAAAAAAAAAAAAAAAAAAAAAAAAAAAAAAAAAAAAAAAAAAAAAAAAAAAAAAA==

> <PUBCHEM_IUPAC_OPENEYE_NAME>
ammonium diethoxy-sulfido-thioxo-$l^{5}-phosphane

> <PUBCHEM_IUPAC_CAS_NAME>
ammonium diethoxy-sulfanylidene-sulfidophosphorane

> <PUBCHEM_IUPAC_NAME>
azanium diethoxy-sulfanylidene-sulfido-$l^{5}-phosphane

> <PUBCHEM_IUPAC_SYSTEMATIC_NAME>
azanium diethoxy-sulfanidyl-sulfanylidene-$l^{5}-phosphane

> <PUBCHEM_IUPAC_TRADITIONAL_NAME>
ammonium diethoxy-sulfido-thioxo-phosphorane

> <PUBCHEM_IUPAC_INCHI>
InChI=1S/C4H11O2PS2.H3N/c1-3-5-7(8,9)6-4-2;/h3-4H2,1-2H3,(H,8,9);1H3

> <PUBCHEM_IUPAC_INCHIKEY>
HFRHTRKMBOQLLL-UHFFFAOYSA-N

> <PUBCHEM_EXACT_MASS>
203.020357

> <PUBCHEM_MOLECULAR_FORMULA>
C4H14NO2PS2

> <PUBCHEM_MOLECULAR_WEIGHT>
203.263222

> <PUBCHEM_OPENEYE_CAN_SMILES>
CCOP(=S)(OCC)[S-].[NH4+]

> <PUBCHEM_OPENEYE_ISO_SMILES>
CCOP(=S)(OCC)[S-].[NH4+]

> <PUBCHEM_CACTVS_TPSA>
52.6

> <PUBCHEM_MONOISOTOPIC_WEIGHT>
203.020357

> <PUBCHEM_TOTAL_CHARGE>
0

> <PUBCHEM_HEAVY_ATOM_COUNT>
10

> <PUBCHEM_ATOM_DEF_STEREO_COUNT>
0

> <PUBCHEM_ATOM_UDEF_STEREO_COUNT>
0

> <PUBCHEM_BOND_DEF_STEREO_COUNT>
0

> <PUBCHEM_BOND_UDEF_STEREO_COUNT>
0

> <PUBCHEM_ISOTOPIC_ATOM_COUNT>
0

> <PUBCHEM_COMPONENT_COUNT>
2

> <PUBCHEM_CACTVS_TAUTO_COUNT>
1

> <PUBCHEM_COORDINATE_TYPE>
1
5
255

$$$$

