3705
  -OEChem-06251223362D

 38 41  0     0  0  0  0  0  0999 V2000
    3.4030    0.5887    0.0000 S   0  0  0  0  0  0  0  0  0  0  0  0
   12.6588    0.5887    0.0000 S   0  0  0  0  0  0  0  0  0  0  0  0
    7.2579    1.3439    0.0000 O   0  0  0  0  0  0  0  0  0  0  0  0
    8.8038    1.3439    0.0000 O   0  0  0  0  0  0  0  0  0  0  0  0
    2.5369    1.0887    0.0000 O   0  0  0  0  0  0  0  0  0  0  0  0
   13.5248    1.0887    0.0000 O   0  0  0  0  0  0  0  0  0  0  0  0
    2.9030   -0.2774    0.0000 O   0  0  0  0  0  0  0  0  0  0  0  0
    3.9030    1.4547    0.0000 O   0  0  0  0  0  0  0  0  0  0  0  0
   13.1588   -0.2774    0.0000 O   0  0  0  0  0  0  0  0  0  0  0  0
   12.1588    1.4547    0.0000 O   0  0  0  0  0  0  0  0  0  0  0  0
    6.9473   -1.2161    0.0000 N   0  0  0  0  0  0  0  0  0  0  0  0
    9.1145   -1.2161    0.0000 N   0  0  0  0  0  0  0  0  0  0  0  0
    7.5309   -0.4113    0.0000 C   0  0  0  0  0  0  0  0  0  0  0  0
    6.0010    0.0887    0.0000 C   0  0  0  0  0  0  0  0  0  0  0  0
    6.0010   -0.9113    0.0000 C   0  0  0  0  0  0  0  0  0  0  0  0
    8.5309   -0.4113    0.0000 C   0  0  0  0  0  0  0  0  0  0  0  0
    6.9473    0.3934    0.0000 C   0  0  0  0  0  0  0  0  0  0  0  0
   10.0607    0.0887    0.0000 C   0  0  0  0  0  0  0  0  0  0  0  0
   10.0607   -0.9113    0.0000 C   0  0  0  0  0  0  0  0  0  0  0  0
    9.1145    0.3934    0.0000 C   0  0  0  0  0  0  0  0  0  0  0  0
    5.1350    0.5887    0.0000 C   0  0  0  0  0  0  0  0  0  0  0  0
    5.1350   -1.4113    0.0000 C   0  0  0  0  0  0  0  0  0  0  0  0
    4.2690    0.0887    0.0000 C   0  0  0  0  0  0  0  0  0  0  0  0
   10.9267    0.5887    0.0000 C   0  0  0  0  0  0  0  0  0  0  0  0
    4.2690   -0.9113    0.0000 C   0  0  0  0  0  0  0  0  0  0  0  0
   11.7927    0.0887    0.0000 C   0  0  0  0  0  0  0  0  0  0  0  0
   10.9267   -1.4113    0.0000 C   0  0  0  0  0  0  0  0  0  0  0  0
   11.7927   -0.9113    0.0000 C   0  0  0  0  0  0  0  0  0  0  0  0
    7.1399   -1.8054    0.0000 H   0  0  0  0  0  0  0  0  0  0  0  0
    5.1350    1.2087    0.0000 H   0  0  0  0  0  0  0  0  0  0  0  0
    5.1350   -2.0313    0.0000 H   0  0  0  0  0  0  0  0  0  0  0  0
   10.9267    1.2087    0.0000 H   0  0  0  0  0  0  0  0  0  0  0  0
    3.7321   -1.2213    0.0000 H   0  0  0  0  0  0  0  0  0  0  0  0
   10.9267   -2.0313    0.0000 H   0  0  0  0  0  0  0  0  0  0  0  0
   12.3297   -1.2213    0.0000 H   0  0  0  0  0  0  0  0  0  0  0  0
    6.8439    1.8054    0.0000 H   0  0  0  0  0  0  0  0  0  0  0  0
    2.0000    0.7787    0.0000 H   0  0  0  0  0  0  0  0  0  0  0  0
   14.0617    0.7787    0.0000 H   0  0  0  0  0  0  0  0  0  0  0  0
  1  5  1  0  0  0  0
  1  7  2  0  0  0  0
  1  8  2  0  0  0  0
  1 23  1  0  0  0  0
  2  6  1  0  0  0  0
  2  9  2  0  0  0  0
  2 10  2  0  0  0  0
  2 26  1  0  0  0  0
  3 17  1  0  0  0  0
  3 36  1  0  0  0  0
  4 20  2  0  0  0  0
  5 37  1  0  0  0  0
  6 38  1  0  0  0  0
 11 13  1  0  0  0  0
 11 15  1  0  0  0  0
 11 29  1  0  0  0  0
 12 16  2  0  0  0  0
 12 19  1  0  0  0  0
 13 16  1  0  0  0  0
 13 17  2  0  0  0  0
 14 15  2  0  0  0  0
 14 17  1  0  0  0  0
 14 21  1  0  0  0  0
 15 22  1  0  0  0  0
 16 20  1  0  0  0  0
 18 19  2  0  0  0  0
 18 20  1  0  0  0  0
 18 24  1  0  0  0  0
 19 27  1  0  0  0  0
 21 23  2  0  0  0  0
 21 30  1  0  0  0  0
 22 25  2  0  0  0  0
 22 31  1  0  0  0  0
 23 25  1  0  0  0  0
 24 26  2  0  0  0  0
 24 32  1  0  0  0  0
 25 33  1  0  0  0  0
 26 28  1  0  0  0  0
 27 28  2  0  0  0  0
 27 34  1  0  0  0  0
 28 35  1  0  0  0  0
M  END
> <PUBCHEM_COMPOUND_CID>
3705

> <PUBCHEM_COMPOUND_CANONICALIZED>
1

> <PUBCHEM_CACTVS_COMPLEXITY>
904

> <PUBCHEM_CACTVS_HBOND_ACCEPTOR>
9

> <PUBCHEM_CACTVS_HBOND_DONOR>
4

> <PUBCHEM_CACTVS_ROTATABLE_BOND>
3

> <PUBCHEM_CACTVS_SUBSKEYS>
AAADccB7PABgAAAAAAAAAAAAAAAAAWIAAAAwYAAAAAAAAFgB9AAAHgQQCAAADAyB3gAwx/LJkoKoA6RyRHTCgGAlYiAImTk1bNgKJvrSlZOEcYhm0BnY2ceayPCOAAQAgAACAAAACAEAAAQAAAAAAAAAAA==

> <PUBCHEM_IUPAC_OPENEYE_NAME>
2-(3-hydroxy-5-sulfo-1H-indol-2-yl)-3-oxo-indole-5-sulfonic acid

> <PUBCHEM_IUPAC_CAS_NAME>
2-(3-hydroxy-5-sulfo-1H-indol-2-yl)-3-oxo-5-indolesulfonic acid

> <PUBCHEM_IUPAC_NAME>
2-(3-hydroxy-5-sulfo-1H-indol-2-yl)-3-oxoindole-5-sulfonic acid

> <PUBCHEM_IUPAC_SYSTEMATIC_NAME>
3-oxidanylidene-2-(3-oxidanyl-5-sulfo-1H-indol-2-yl)indole-5-sulfonic acid

> <PUBCHEM_IUPAC_TRADITIONAL_NAME>
2-(3-hydroxy-5-sulfo-1H-indol-2-yl)-3-keto-indole-5-sulfonic acid

> <PUBCHEM_IUPAC_INCHI>
InChI=1S/C16H10N2O8S2/c19-15-9-5-7(27(21,22)23)1-3-11(9)17-13(15)14-16(20)10-6-8(28(24,25)26)2-4-12(10)18-14/h1-6,17,19H,(H,21,22,23)(H,24,25,26)

> <PUBCHEM_IUPAC_INCHIKEY>
JMEVHYCNAPFOAB-UHFFFAOYSA-N

> <PUBCHEM_XLOGP3_AA>
0.2

> <PUBCHEM_EXACT_MASS>
421.987857

> <PUBCHEM_MOLECULAR_FORMULA>
C16H10N2O8S2

> <PUBCHEM_MOLECULAR_WEIGHT>
422.3892

> <PUBCHEM_OPENEYE_CAN_SMILES>
C1=CC2=C(C=C1S(=O)(=O)O)C(=C(N2)C3=NC4=C(C3=O)C=C(C=C4)S(=O)(=O)O)O

> <PUBCHEM_OPENEYE_ISO_SMILES>
C1=CC2=C(C=C1S(=O)(=O)O)C(=C(N2)C3=NC4=C(C3=O)C=C(C=C4)S(=O)(=O)O)O

> <PUBCHEM_CACTVS_TPSA>
191

> <PUBCHEM_MONOISOTOPIC_WEIGHT>
421.987857

> <PUBCHEM_TOTAL_CHARGE>
0

> <PUBCHEM_HEAVY_ATOM_COUNT>
28

> <PUBCHEM_ATOM_DEF_STEREO_COUNT>
0

> <PUBCHEM_ATOM_UDEF_STEREO_COUNT>
0

> <PUBCHEM_BOND_DEF_STEREO_COUNT>
0

> <PUBCHEM_BOND_UDEF_STEREO_COUNT>
0

> <PUBCHEM_ISOTOPIC_ATOM_COUNT>
0

> <PUBCHEM_COMPONENT_COUNT>
1

> <PUBCHEM_CACTVS_TAUTO_COUNT>
11

> <PUBCHEM_COORDINATE_TYPE>
1
5
255

> <PUBCHEM_BONDANNOTATIONS>
11  13  8
11  15  8
13  17  8
14  15  8
14  17  8
14  21  8
15  22  8
18  19  8
18  24  8
19  27  8
21  23  8
22  25  8
23  25  8
24  26  8
26  28  8
27  28  8

$$$$

