5896
  -OEChem-07051212492D

 31 33  0     0  0  0  0  0  0999 V2000
    8.3374    1.2569    0.0000 O   0  0  0  0  0  0  0  0  0  0  0  0
    8.3987   -1.3881    0.0000 O   0  0  0  0  0  0  0  0  0  0  0  0
    8.0321    0.3047    0.0000 N   0  0  0  0  0  0  0  0  0  0  0  0
    4.5274    1.2172    0.0000 C   0  0  0  0  0  0  0  0  0  0  0  0
    5.3364    0.6294    0.0000 C   0  0  0  0  0  0  0  0  0  0  0  0
    5.0274   -0.3216    0.0000 C   0  0  0  0  0  0  0  0  0  0  0  0
    3.7183    0.6294    0.0000 C   0  0  0  0  0  0  0  0  0  0  0  0
    4.0274   -0.3216    0.0000 C   0  0  0  0  0  0  0  0  0  0  0  0
    6.3518    0.8617    0.0000 C   0  0  0  0  0  0  0  0  0  0  0  0
    5.7123   -1.1064    0.0000 C   0  0  0  0  0  0  0  0  0  0  0  0
    7.0547    0.0930    0.0000 C   0  0  0  0  0  0  0  0  0  0  0  0
    2.7029    0.8617    0.0000 C   0  0  0  0  0  0  0  0  0  0  0  0
    3.3424   -1.1064    0.0000 C   0  0  0  0  0  0  0  0  0  0  0  0
    6.7328   -0.8977    0.0000 C   0  0  0  0  0  0  0  0  0  0  0  0
    2.0000    0.0930    0.0000 C   0  0  0  0  0  0  0  0  0  0  0  0
    2.3219   -0.8977    0.0000 C   0  0  0  0  0  0  0  0  0  0  0  0
    8.7040   -0.4359    0.0000 C   0  0  0  0  0  0  0  0  0  0  0  0
    9.6814   -0.2242    0.0000 C   0  0  0  0  0  0  0  0  0  0  0  0
    4.9422    1.6780    0.0000 H   0  0  0  0  0  0  0  0  0  0  0  0
    4.1125    1.6780    0.0000 H   0  0  0  0  0  0  0  0  0  0  0  0
    6.5365    1.4535    0.0000 H   0  0  0  0  0  0  0  0  0  0  0  0
    5.5139   -1.6938    0.0000 H   0  0  0  0  0  0  0  0  0  0  0  0
    2.5182    1.4535    0.0000 H   0  0  0  0  0  0  0  0  0  0  0  0
    3.5408   -1.6938    0.0000 H   0  0  0  0  0  0  0  0  0  0  0  0
    7.1459   -1.3600    0.0000 H   0  0  0  0  0  0  0  0  0  0  0  0
    1.3940    0.2242    0.0000 H   0  0  0  0  0  0  0  0  0  0  0  0
    1.9088   -1.3600    0.0000 H   0  0  0  0  0  0  0  0  0  0  0  0
    9.8126   -0.8302    0.0000 H   0  0  0  0  0  0  0  0  0  0  0  0
   10.2873   -0.0930    0.0000 H   0  0  0  0  0  0  0  0  0  0  0  0
    9.5502    0.3817    0.0000 H   0  0  0  0  0  0  0  0  0  0  0  0
    8.9434    1.3881    0.0000 H   0  0  0  0  0  0  0  0  0  0  0  0
  1  3  1  0  0  0  0
  1 31  1  0  0  0  0
  2 17  2  0  0  0  0
  3 11  1  0  0  0  0
  3 17  1  0  0  0  0
  4  5  1  0  0  0  0
  4  7  1  0  0  0  0
  4 19  1  0  0  0  0
  4 20  1  0  0  0  0
  5  6  2  0  0  0  0
  5  9  1  0  0  0  0
  6  8  1  0  0  0  0
  6 10  1  0  0  0  0
  7  8  1  0  0  0  0
  7 12  2  0  0  0  0
  8 13  2  0  0  0  0
  9 11  2  0  0  0  0
  9 21  1  0  0  0  0
 10 14  2  0  0  0  0
 10 22  1  0  0  0  0
 11 14  1  0  0  0  0
 12 15  1  0  0  0  0
 12 23  1  0  0  0  0
 13 16  1  0  0  0  0
 13 24  1  0  0  0  0
 14 25  1  0  0  0  0
 15 16  2  0  0  0  0
 15 26  1  0  0  0  0
 16 27  1  0  0  0  0
 17 18  1  0  0  0  0
 18 28  1  0  0  0  0
 18 29  1  0  0  0  0
 18 30  1  0  0  0  0
M  END
> <PUBCHEM_COMPOUND_CID>
5896

> <PUBCHEM_COMPOUND_CANONICALIZED>
1

> <PUBCHEM_CACTVS_COMPLEXITY>
331

> <PUBCHEM_CACTVS_HBOND_ACCEPTOR>
2

> <PUBCHEM_CACTVS_HBOND_DONOR>
1

> <PUBCHEM_CACTVS_ROTATABLE_BOND>
1

> <PUBCHEM_CACTVS_SUBSKEYS>
AAADccByMAAAAAAAAAAAAAAAAAAAAYAAAAAwYAAAAAAAAGABQAAAHgAECAAADAiBmAAywIIQAACIAiVSUACCAAAhAgAoiAAAZIgIICLAkZGEIAhghADIyAcQgMAOiAAAQAAQAAAQAACAACAAAQAACAAAAA==

> <PUBCHEM_IUPAC_OPENEYE_NAME>
N-(9H-fluoren-2-yl)-N-hydroxy-acetamide

> <PUBCHEM_IUPAC_CAS_NAME>
N-(9H-fluoren-2-yl)-N-hydroxyacetamide

> <PUBCHEM_IUPAC_NAME>
N-(9H-fluoren-2-yl)-N-hydroxyacetamide

> <PUBCHEM_IUPAC_SYSTEMATIC_NAME>
N-(9H-fluoren-2-yl)-N-oxidanyl-ethanamide

> <PUBCHEM_IUPAC_TRADITIONAL_NAME>
N-(9H-fluoren-2-yl)-N-hydroxy-acetamide

> <PUBCHEM_IUPAC_INCHI>
InChI=1S/C15H13NO2/c1-10(17)16(18)13-6-7-15-12(9-13)8-11-4-2-3-5-14(11)15/h2-7,9,18H,8H2,1H3

> <PUBCHEM_IUPAC_INCHIKEY>
SOKUIEGXJHVFDV-UHFFFAOYSA-N

> <PUBCHEM_XLOGP3>
2.7

> <PUBCHEM_EXACT_MASS>
239.094629

> <PUBCHEM_MOLECULAR_FORMULA>
C15H13NO2

> <PUBCHEM_MOLECULAR_WEIGHT>
239.26922

> <PUBCHEM_OPENEYE_CAN_SMILES>
CC(=O)N(C1=CC2=C(C=C1)C3=CC=CC=C3C2)O

> <PUBCHEM_OPENEYE_ISO_SMILES>
CC(=O)N(C1=CC2=C(C=C1)C3=CC=CC=C3C2)O

> <PUBCHEM_CACTVS_TPSA>
40.5

> <PUBCHEM_MONOISOTOPIC_WEIGHT>
239.094629

> <PUBCHEM_TOTAL_CHARGE>
0

> <PUBCHEM_HEAVY_ATOM_COUNT>
18

> <PUBCHEM_ATOM_DEF_STEREO_COUNT>
0

> <PUBCHEM_ATOM_UDEF_STEREO_COUNT>
0

> <PUBCHEM_BOND_DEF_STEREO_COUNT>
0

> <PUBCHEM_BOND_UDEF_STEREO_COUNT>
0

> <PUBCHEM_ISOTOPIC_ATOM_COUNT>
0

> <PUBCHEM_COMPONENT_COUNT>
1

> <PUBCHEM_CACTVS_TAUTO_COUNT>
1

> <PUBCHEM_COORDINATE_TYPE>
1
5
255

> <PUBCHEM_BONDANNOTATIONS>
10  14  8
11  14  8
12  15  8
13  16  8
15  16  8
5  6  8
5  9  8
6  10  8
7  12  8
7  8  8
8  13  8
9  11  8

$$$$

