   Color/Form
        Crystals
   from [1]HSDB

   Melting Point
        175 deg C (decomposes)
   from [2]HSDB

   Octanol/Water Partition Coefficient
        log Kow = -2.39
   from [3]HSDB

   Solubilities
        In water, 5.67X10+5 mg/L (est)
   from [4]HSDB

   Vapor Pressure
        2.94X10-4 mm Hg at 25 deg C (est)
   from [5]HSDB

   Other Chemical/Physical Properties

     * Henry's Law constant = 1.61X10-12 atm-cu m/mol at 25 deg C (est)
     * Hydroxyl radical reaction rate constant = 6.56X10-11 cu
       cm/molec-sec at 25 deg C (est)
     * Ozone reaction rate constant = 1.13X10-17 cu cm/molec-sec at 25 deg
       C (est)

   from [6]HSDB

   Computed Properties
   Molecular Weight                  114.10264 [g/mol]
   Molecular Formula                 C[4]H[6]N[2]O[2]
   XLogP3-AA                         -1.4
   H-Bond Donor                      2
   H-Bond Acceptor                   3
   Rotatable Bond Count              1
   Tautomer Count                    2
   Exact Mass                        114.042927
   MonoIsotopic Mass                 114.042927
   Topological Polar Surface Area    64.4
   Heavy Atom Count                  8
   Formal Charge                     0
   Complexity                        141
   Isotope Atom Count                0
   Defined Atom Stereocenter Count   0
   Undefined Atom Stereocenter Count 0
   Defined Bond Stereocenter Count   0
   Undefined Bond Stereocenter Count 0
   Covalently-Bonded Unit Count      1
   Feature 3D Acceptor Count         1
   Feature 3D Donor Count            2
   Feature 3D Cation Count           1
   Feature 3D Ring Count             1
   Effective Rotor Count             1
   Conformer Sampling RMSD           0.4
   CID Conformer Count               [7]4

References

   1. http://toxnet.nlm.nih.gov/cgi-bin/sis/search/r?dbs+hsdb:@term+@rn+@rel+2763-96-4
   2. http://toxnet.nlm.nih.gov/cgi-bin/sis/search/r?dbs+hsdb:@term+@rn+@rel+2763-96-4
   3. http://toxnet.nlm.nih.gov/cgi-bin/sis/search/r?dbs+hsdb:@term+@rn+@rel+2763-96-4
   4. http://toxnet.nlm.nih.gov/cgi-bin/sis/search/r?dbs+hsdb:@term+@rn+@rel+2763-96-4
   5. http://toxnet.nlm.nih.gov/cgi-bin/sis/search/r?dbs+hsdb:@term+@rn+@rel+2763-96-4
   6. http://toxnet.nlm.nih.gov/cgi-bin/sis/search/r?dbs+hsdb:@term+@rn+@rel+2763-96-4
   7. http://pubchem.ncbi.nlm.nih.gov/vw3d/vw3d.cgi?cid=4266
