   Color/Form
        Greenish-yellow needles, prisms or lamellae
   from [1]HSDB

   Boiling Point
        275 deg C at 0.05 mm Hg
   from [2]HSDB

   Melting Point
        281.5 deg C
   from [3]HSDB

   Octanol/Water Partition Coefficient
        log Kow = 7.28 (est)
   from [4]HSDB

   Solubilities

     * Soluble in 1,4-dioxane, boiling glacial acetic acid (2 g/L) and
       boiling benzene (5 g/L); almost insoluble in diethyl ether and
       ethanol
     * In water, 5.5X10-4 mg/L at 25 deg C (est)

   from [5]HSDB

   Spectral Properties

     * MAX ABSORPTION (ETHANOL): 222, 242, 272 NM; (BENZENE): 285, 297,
       317, 332, 356, 375, 397, 419, 433 NM
     * MASS: 2020 (National Bureau of Standards)
     * UV: 248 (Friedel and Orchin, Ultraviolet Spectra of Aromatic
       Compounds, John Wiley & Sons, New York)

   from [6]HSDB

   Vapor Pressure
        1.8X10-11 mm Hg at 25 deg C (est)
   from [7]HSDB

   Other Chemical/Physical Properties

     * IONIZATION POTENTIAL: 7.06 eV
     * ATTACKED BY NITRIC ACID & BY OTHER REAGENTS, MAINLY AT 5- &
       8-POSITIONS; SLOWLY OXIDIZED BY SULFURIC ACID TO A QUINONE;
       OXIDIZED BY LEAD TETRAACETATE TO THE 5,8-DIACETOXY DERIVATIVE & BY
       CHROMIC OXIDE OR SELENIUM DIOXIDE TO THE 5,8-QUINONE
     * CONCENTRATED H2SO4 SOLN OF DIBENZO(A,I)PYRENE) ARE BLUE WITH RED
       FLUORESCENCE; IT IS ALMOST INSOLUBLE IN ALCOHOL AND ETHER. DB(A,I)P
       CAN BE SUBLIMED UNCHANGED
     * Henry's Law constant = 1.4X10-8 atm-cu m/mol at 25 deg C (est)
     * Hydroxyl radical reaction rate constant = 5.0X10-11 cu cm/molec-sec
       at 25 deg C (est)

   from [8]HSDB

   Computed Properties
   Molecular Weight                  302.36796 [g/mol]
   Molecular Formula                 C[24]H[14]
   XLogP3-AA                         7.3
   H-Bond Donor                      0
   H-Bond Acceptor                   0
   Rotatable Bond Count              0
   Exact Mass                        302.10955
   MonoIsotopic Mass                 302.10955
   Topological Polar Surface Area    0
   Heavy Atom Count                  24
   Formal Charge                     0
   Complexity                        436
   Isotope Atom Count                0
   Defined Atom Stereocenter Count   0
   Undefined Atom Stereocenter Count 0
   Defined Bond Stereocenter Count   0
   Undefined Bond Stereocenter Count 0
   Covalently-Bonded Unit Count      1
   Feature 3D Ring Count             6
   Effective Rotor Count             0
   Conformer Sampling RMSD           0.6
   CID Conformer Count               [9]1

References

   1. http://toxnet.nlm.nih.gov/cgi-bin/sis/search/r?dbs+hsdb:@term+@rn+@rel+189-55-9
   2. http://toxnet.nlm.nih.gov/cgi-bin/sis/search/r?dbs+hsdb:@term+@rn+@rel+189-55-9
   3. http://toxnet.nlm.nih.gov/cgi-bin/sis/search/r?dbs+hsdb:@term+@rn+@rel+189-55-9
   4. http://toxnet.nlm.nih.gov/cgi-bin/sis/search/r?dbs+hsdb:@term+@rn+@rel+189-55-9
   5. http://toxnet.nlm.nih.gov/cgi-bin/sis/search/r?dbs+hsdb:@term+@rn+@rel+189-55-9
   6. http://toxnet.nlm.nih.gov/cgi-bin/sis/search/r?dbs+hsdb:@term+@rn+@rel+189-55-9
   7. http://toxnet.nlm.nih.gov/cgi-bin/sis/search/r?dbs+hsdb:@term+@rn+@rel+189-55-9
   8. http://toxnet.nlm.nih.gov/cgi-bin/sis/search/r?dbs+hsdb:@term+@rn+@rel+189-55-9
   9. http://pubchem.ncbi.nlm.nih.gov/vw3d/vw3d.cgi?cid=9106
