443726
  -OEChem-07051213032D

 45 48  0     1  0  0  0  0  0999 V2000
    2.8876   -0.5056    0.0000 O   0  0  0  0  0  0  0  0  0  0  0  0
    2.8718   -2.5538    0.0000 O   0  0  0  0  0  0  0  0  0  0  0  0
    4.6457    3.5605    0.0000 O   0  0  0  0  0  0  0  0  0  0  0  0
    2.8718    2.5364    0.0000 O   0  0  0  0  0  0  0  0  0  0  0  0
    3.7320   -4.0572    0.0000 O   0  0  0  0  0  0  0  0  0  0  0  0
    6.3898   -0.5087    0.0000 N   0  0  3  0  0  0  0  0  0  0  0  0
    5.5238   -1.0087    0.0000 C   0  0  1  0  0  0  0  0  0  0  0  0
    4.6578   -0.5087    0.0000 C   0  0  1  0  0  0  0  0  0  0  0  0
    5.5399   -2.0502    0.0000 C   0  0  0  0  0  0  0  0  0  0  0  0
    3.7478   -1.0156    0.0000 C   0  0  1  0  0  0  0  0  0  0  0  0
    7.0078   -1.2871    0.0000 C   0  0  0  0  0  0  0  0  0  0  0  0
    6.5279   -2.1574    0.0000 C   0  0  0  0  0  0  0  0  0  0  0  0
    4.6578    0.4913    0.0000 C   0  0  0  0  0  0  0  0  0  0  0  0
    6.3898    0.4913    0.0000 C   0  0  0  0  0  0  0  0  0  0  0  0
    3.7398   -2.0572    0.0000 C   0  0  2  0  0  0  0  0  0  0  0  0
    4.6418   -2.5780    0.0000 C   0  0  0  0  0  0  0  0  0  0  0  0
    5.5238    0.9913    0.0000 C   0  0  0  0  0  0  0  0  0  0  0  0
    3.7478    0.9981    0.0000 C   0  0  0  0  0  0  0  0  0  0  0  0
    5.5399    2.0328    0.0000 C   0  0  0  0  0  0  0  0  0  0  0  0
    3.7398    2.0397    0.0000 C   0  0  0  0  0  0  0  0  0  0  0  0
    4.6418    2.5605    0.0000 C   0  0  0  0  0  0  0  0  0  0  0  0
    2.8680   -3.5538    0.0000 C   0  0  0  0  0  0  0  0  0  0  0  0
    2.0000   -4.0505    0.0000 C   0  0  0  0  0  0  0  0  0  0  0  0
    5.5136    4.0572    0.0000 C   0  0  0  0  0  0  0  0  0  0  0  0
    4.7877   -1.4337    0.0000 H   0  0  0  0  0  0  0  0  0  0  0  0
    5.3939   -0.0837    0.0000 H   0  0  0  0  0  0  0  0  0  0  0  0
    3.7561   -0.3956    0.0000 H   0  0  0  0  0  0  0  0  0  0  0  0
    7.5066   -1.6553    0.0000 H   0  0  0  0  0  0  0  0  0  0  0  0
    7.4384   -0.8411    0.0000 H   0  0  0  0  0  0  0  0  0  0  0  0
    6.3805   -2.7596    0.0000 H   0  0  0  0  0  0  0  0  0  0  0  0
    7.1055   -2.3827    0.0000 H   0  0  0  0  0  0  0  0  0  0  0  0
    7.0004    0.3836    0.0000 H   0  0  0  0  0  0  0  0  0  0  0  0
    6.6019    1.0739    0.0000 H   0  0  0  0  0  0  0  0  0  0  0  0
    3.7386   -2.6772    0.0000 H   0  0  0  0  0  0  0  0  0  0  0  0
    4.6442   -3.1980    0.0000 H   0  0  0  0  0  0  0  0  0  0  0  0
    3.2145    0.6819    0.0000 H   0  0  0  0  0  0  0  0  0  0  0  0
    6.0804    2.3365    0.0000 H   0  0  0  0  0  0  0  0  0  0  0  0
    2.3471   -0.8094    0.0000 H   0  0  0  0  0  0  0  0  0  0  0  0
    2.8694    3.1564    0.0000 H   0  0  0  0  0  0  0  0  0  0  0  0
    1.6921   -3.5124    0.0000 H   0  0  0  0  0  0  0  0  0  0  0  0
    1.4619   -4.3584    0.0000 H   0  0  0  0  0  0  0  0  0  0  0  0
    2.3079   -4.5886    0.0000 H   0  0  0  0  0  0  0  0  0  0  0  0
    5.8216    3.5190    0.0000 H   0  0  0  0  0  0  0  0  0  0  0  0
    6.0518    4.3651    0.0000 H   0  0  0  0  0  0  0  0  0  0  0  0
    5.2057    4.5953    0.0000 H   0  0  0  0  0  0  0  0  0  0  0  0
 10  1  1  1  0  0  0
  1 38  1  0  0  0  0
 15  2  1  6  0  0  0
  2 22  1  0  0  0  0
  3 21  1  0  0  0  0
  3 24  1  0  0  0  0
  4 20  1  0  0  0  0
  4 39  1  0  0  0  0
  5 22  2  0  0  0  0
  6  7  1  0  0  0  0
  6 11  1  0  0  0  0
  6 14  1  0  0  0  0
  7  8  1  0  0  0  0
  7  9  1  0  0  0  0
  7 25  1  1  0  0  0
  8 10  1  0  0  0  0
  8 13  1  0  0  0  0
  8 26  1  6  0  0  0
  9 12  1  0  0  0  0
  9 16  2  0  0  0  0
 10 15  1  0  0  0  0
 10 27  1  0  0  0  0
 11 12  1  0  0  0  0
 11 28  1  0  0  0  0
 11 29  1  0  0  0  0
 12 30  1  0  0  0  0
 12 31  1  0  0  0  0
 13 17  1  0  0  0  0
 13 18  2  0  0  0  0
 14 17  1  0  0  0  0
 14 32  1  0  0  0  0
 14 33  1  0  0  0  0
 15 16  1  0  0  0  0
 15 34  1  0  0  0  0
 16 35  1  0  0  0  0
 17 19  2  0  0  0  0
 18 20  1  0  0  0  0
 18 36  1  0  0  0  0
 19 21  1  0  0  0  0
 19 37  1  0  0  0  0
 20 21  2  0  0  0  0
 22 23  1  0  0  0  0
 23 40  1  0  0  0  0
 23 41  1  0  0  0  0
 23 42  1  0  0  0  0
 24 43  1  0  0  0  0
 24 44  1  0  0  0  0
 24 45  1  0  0  0  0
M  END
> <PUBCHEM_COMPOUND_CID>
443726

> <PUBCHEM_COMPOUND_CANONICALIZED>
1

> <PUBCHEM_CACTVS_COMPLEXITY>
550

> <PUBCHEM_CACTVS_HBOND_ACCEPTOR>
6

> <PUBCHEM_CACTVS_HBOND_DONOR>
2

> <PUBCHEM_CACTVS_ROTATABLE_BOND>
3

> <PUBCHEM_CACTVS_SUBSKEYS>
AAADceB6OAAAAAAAAAAAAAAAAAAAAWAAAAA8QIAAAAAAAFixAAAAHgAACAAADTzhmAYyDoMABgCIAiDSCACCCAAgIAAAiAAOjIgNNiKGsRuGcCtmwBGLuAew8PcOoAABAAAQQABAAAIAACCAAAAAAAAAAA==

> <PUBCHEM_IUPAC_INCHI>
InChI=1S/C18H21NO5/c1-9(20)24-15-5-10-3-4-19-8-11-6-14(23-2)13(21)7-12(11)16(17(10)19)18(15)22/h5-7,15-18,21-22H,3-4,8H2,1-2H3/t15-,16-,17+,18+/m0/s1

> <PUBCHEM_IUPAC_INCHIKEY>
GLXYETATWBSVGO-WNRNVDISSA-N

> <PUBCHEM_XLOGP3_AA>
0.4

> <PUBCHEM_EXACT_MASS>
331.141973

> <PUBCHEM_MOLECULAR_FORMULA>
C18H21NO5

> <PUBCHEM_MOLECULAR_WEIGHT>
331.36304

> <PUBCHEM_OPENEYE_CAN_SMILES>
CC(=O)OC1C=C2CCN3C2C(C1O)C4=CC(=C(C=C4C3)OC)O

> <PUBCHEM_OPENEYE_ISO_SMILES>
CC(=O)O[C@H]1C=C2CCN3[C@H]2[C@@H]([C@@H]1O)C4=CC(=C(C=C4C3)OC)O

> <PUBCHEM_CACTVS_TPSA>
79.2

> <PUBCHEM_MONOISOTOPIC_WEIGHT>
331.141973

> <PUBCHEM_TOTAL_CHARGE>
0

> <PUBCHEM_HEAVY_ATOM_COUNT>
24

> <PUBCHEM_ATOM_DEF_STEREO_COUNT>
4

> <PUBCHEM_ATOM_UDEF_STEREO_COUNT>
0

> <PUBCHEM_BOND_DEF_STEREO_COUNT>
0

> <PUBCHEM_BOND_UDEF_STEREO_COUNT>
0

> <PUBCHEM_ISOTOPIC_ATOM_COUNT>
0

> <PUBCHEM_COMPONENT_COUNT>
1

> <PUBCHEM_CACTVS_TAUTO_COUNT>
9

> <PUBCHEM_COORDINATE_TYPE>
1
5
255

> <PUBCHEM_BONDANNOTATIONS>
10  1  5
13  17  8
13  18  8
17  19  8
18  20  8
19  21  8
15  2  6
20  21  8
7  25  5
8  26  6

$$$$

