17395934
  -OEChem-06241222532D

 42 45  0     0  0  0  0  0  0999 V2000
    6.2970   -1.8033    0.0000 S   0  0  0  0  0  0  0  0  0  0  0  0
   10.8717    1.4338    0.0000 O   0  0  0  0  0  0  0  0  0  0  0  0
    4.9836    0.8898    0.0000 O   0  0  0  0  0  0  0  0  0  0  0  0
    2.9945    1.0988    0.0000 O   0  0  0  0  0  0  0  0  0  0  0  0
   12.6419   -0.6250    0.0000 O   0  0  0  0  0  0  0  0  0  0  0  0
   10.8717   -0.6356    0.0000 N   0  0  0  0  0  0  0  0  0  0  0  0
    6.4662   -0.1942    0.0000 N   0  0  0  0  0  0  0  0  0  0  0  0
    8.2457   -0.1009    0.0000 C   0  0  0  0  0  0  0  0  0  0  0  0
    9.9778   -0.1009    0.0000 C   0  0  0  0  0  0  0  0  0  0  0  0
    9.9778    0.8991    0.0000 C   0  0  0  0  0  0  0  0  0  0  0  0
    9.1118   -0.6009    0.0000 C   0  0  0  0  0  0  0  0  0  0  0  0
    7.3797   -0.6009    0.0000 C   0  0  0  0  0  0  0  0  0  0  0  0
    8.2457    0.8991    0.0000 C   0  0  0  0  0  0  0  0  0  0  0  0
    9.1118    1.3991    0.0000 C   0  0  0  0  0  0  0  0  0  0  0  0
    4.8025   -0.8328    0.0000 C   0  0  0  0  0  0  0  0  0  0  0  0
    5.7970   -0.9373    0.0000 C   0  0  0  0  0  0  0  0  0  0  0  0
   11.7778    0.9199    0.0000 C   0  0  0  0  0  0  0  0  0  0  0  0
    4.3958    0.0808    0.0000 C   0  0  0  0  0  0  0  0  0  0  0  0
   11.7778   -0.1217    0.0000 C   0  0  0  0  0  0  0  0  0  0  0  0
    7.2752   -1.5954    0.0000 C   0  0  0  0  0  0  0  0  0  0  0  0
    4.2147   -1.6418    0.0000 C   0  0  0  0  0  0  0  0  0  0  0  0
    3.4013    0.1853    0.0000 C   0  0  0  0  0  0  0  0  0  0  0  0
    3.2202   -1.5373    0.0000 C   0  0  0  0  0  0  0  0  0  0  0  0
    2.8135   -0.6237    0.0000 C   0  0  0  0  0  0  0  0  0  0  0  0
    4.5768    1.8033    0.0000 C   0  0  0  0  0  0  0  0  0  0  0  0
    2.0000    1.2034    0.0000 C   0  0  0  0  0  0  0  0  0  0  0  0
    9.1118   -1.2209    0.0000 H   0  0  0  0  0  0  0  0  0  0  0  0
    7.7088    1.2091    0.0000 H   0  0  0  0  0  0  0  0  0  0  0  0
    9.1118    2.0191    0.0000 H   0  0  0  0  0  0  0  0  0  0  0  0
   10.8646   -1.2555    0.0000 H   0  0  0  0  0  0  0  0  0  0  0  0
   12.3887    0.8138    0.0000 H   0  0  0  0  0  0  0  0  0  0  0  0
   11.9869    1.5036    0.0000 H   0  0  0  0  0  0  0  0  0  0  0  0
    7.7359   -2.0103    0.0000 H   0  0  0  0  0  0  0  0  0  0  0  0
    4.4669   -2.2082    0.0000 H   0  0  0  0  0  0  0  0  0  0  0  0
    2.8558   -2.0389    0.0000 H   0  0  0  0  0  0  0  0  0  0  0  0
    2.1969   -0.5589    0.0000 H   0  0  0  0  0  0  0  0  0  0  0  0
    5.1432    2.0555    0.0000 H   0  0  0  0  0  0  0  0  0  0  0  0
    4.3246    2.3697    0.0000 H   0  0  0  0  0  0  0  0  0  0  0  0
    4.0104    1.5512    0.0000 H   0  0  0  0  0  0  0  0  0  0  0  0
    2.0648    1.8200    0.0000 H   0  0  0  0  0  0  0  0  0  0  0  0
    1.3834    1.2682    0.0000 H   0  0  0  0  0  0  0  0  0  0  0  0
    1.9352    0.5868    0.0000 H   0  0  0  0  0  0  0  0  0  0  0  0
  1 16  1  0  0  0  0
  1 20  1  0  0  0  0
  2 10  1  0  0  0  0
  2 17  1  0  0  0  0
  3 18  1  0  0  0  0
  3 25  1  0  0  0  0
  4 22  1  0  0  0  0
  4 26  1  0  0  0  0
  5 19  2  0  0  0  0
  6  9  1  0  0  0  0
  6 19  1  0  0  0  0
  6 30  1  0  0  0  0
  7 12  1  0  0  0  0
  7 16  2  0  0  0  0
  8 11  2  0  0  0  0
  8 12  1  0  0  0  0
  8 13  1  0  0  0  0
  9 10  2  0  0  0  0
  9 11  1  0  0  0  0
 10 14  1  0  0  0  0
 11 27  1  0  0  0  0
 12 20  2  0  0  0  0
 13 14  2  0  0  0  0
 13 28  1  0  0  0  0
 14 29  1  0  0  0  0
 15 16  1  0  0  0  0
 15 18  2  0  0  0  0
 15 21  1  0  0  0  0
 17 19  1  0  0  0  0
 17 31  1  0  0  0  0
 17 32  1  0  0  0  0
 18 22  1  0  0  0  0
 20 33  1  0  0  0  0
 21 23  2  0  0  0  0
 21 34  1  0  0  0  0
 22 24  2  0  0  0  0
 23 24  1  0  0  0  0
 23 35  1  0  0  0  0
 24 36  1  0  0  0  0
 25 37  1  0  0  0  0
 25 38  1  0  0  0  0
 25 39  1  0  0  0  0
 26 40  1  0  0  0  0
 26 41  1  0  0  0  0
 26 42  1  0  0  0  0
M  END
> <PUBCHEM_COMPOUND_CID>
17395934

> <PUBCHEM_COMPOUND_CANONICALIZED>
1

> <PUBCHEM_CACTVS_COMPLEXITY>
508

> <PUBCHEM_CACTVS_HBOND_ACCEPTOR>
6

> <PUBCHEM_CACTVS_HBOND_DONOR>
1

> <PUBCHEM_CACTVS_ROTATABLE_BOND>
4

> <PUBCHEM_CACTVS_SUBSKEYS>
AAADceB7OABAAAAAAAAAAAAAAAAAAWAAAAA8YIAAAAAAAACx0AAAHgQQAAAADAyl3gKyx5LIFAisAyVyVAKC+KBhKjgIiDR37JgPJqLksZ+HOCrm1BH66Aew0LMOIAABQAAIUABAAAKAABCgAAAAAAAAAA==

> <PUBCHEM_IUPAC_OPENEYE_NAME>
6-[2-(2,3-dimethoxyphenyl)thiazol-4-yl]-4H-1,4-benzoxazin-3-one

> <PUBCHEM_IUPAC_CAS_NAME>
6-[2-(2,3-dimethoxyphenyl)-4-thiazolyl]-4H-1,4-benzoxazin-3-one

> <PUBCHEM_IUPAC_NAME>
6-[2-(2,3-dimethoxyphenyl)-1,3-thiazol-4-yl]-4H-1,4-benzoxazin-3-one

> <PUBCHEM_IUPAC_SYSTEMATIC_NAME>
6-[2-(2,3-dimethoxyphenyl)-1,3-thiazol-4-yl]-4H-1,4-benzoxazin-3-one

> <PUBCHEM_IUPAC_TRADITIONAL_NAME>
6-[2-(2,3-dimethoxyphenyl)thiazol-4-yl]-4H-1,4-benzoxazin-3-one

> <PUBCHEM_IUPAC_INCHI>
InChI=1S/C19H16N2O4S/c1-23-16-5-3-4-12(18(16)24-2)19-21-14(10-26-19)11-6-7-15-13(8-11)20-17(22)9-25-15/h3-8,10H,9H2,1-2H3,(H,20,22)

> <PUBCHEM_IUPAC_INCHIKEY>
GQNIDPWTTKCXHC-UHFFFAOYSA-N

> <PUBCHEM_XLOGP3_AA>
3.2

> <PUBCHEM_EXACT_MASS>
368.083078

> <PUBCHEM_MOLECULAR_FORMULA>
C19H16N2O4S

> <PUBCHEM_MOLECULAR_WEIGHT>
368.40634

> <PUBCHEM_OPENEYE_CAN_SMILES>
COC1=CC=CC(=C1OC)C2=NC(=CS2)C3=CC4=C(C=C3)OCC(=O)N4

> <PUBCHEM_OPENEYE_ISO_SMILES>
COC1=CC=CC(=C1OC)C2=NC(=CS2)C3=CC4=C(C=C3)OCC(=O)N4

> <PUBCHEM_CACTVS_TPSA>
97.9

> <PUBCHEM_MONOISOTOPIC_WEIGHT>
368.083078

> <PUBCHEM_TOTAL_CHARGE>
0

> <PUBCHEM_HEAVY_ATOM_COUNT>
26

> <PUBCHEM_ATOM_DEF_STEREO_COUNT>
0

> <PUBCHEM_ATOM_UDEF_STEREO_COUNT>
0

> <PUBCHEM_BOND_DEF_STEREO_COUNT>
0

> <PUBCHEM_BOND_UDEF_STEREO_COUNT>
0

> <PUBCHEM_ISOTOPIC_ATOM_COUNT>
0

> <PUBCHEM_COMPONENT_COUNT>
1

> <PUBCHEM_CACTVS_TAUTO_COUNT>
3

> <PUBCHEM_COORDINATE_TYPE>
1
5
255

> <PUBCHEM_BONDANNOTATIONS>
1  16  8
1  20  8
10  14  8
12  20  8
13  14  8
15  18  8
15  21  8
18  22  8
21  23  8
22  24  8
23  24  8
7  12  8
7  16  8
8  11  8
8  13  8
9  10  8
9  11  8

$$$$

