17395969
  -OEChem-06241222532D

 58 62  0     0  0  0  0  0  0999 V2000
    3.6372    0.5179    0.0000 O   0  0  0  0  0  0  0  0  0  0  0  0
    2.7431   -1.2609    0.0000 O   0  0  0  0  0  0  0  0  0  0  0  0
    7.1013    1.5179    0.0000 N   0  0  0  0  0  0  0  0  0  0  0  0
    5.3692    0.5179    0.0000 N   0  0  0  0  0  0  0  0  0  0  0  0
    5.3122   -1.5699    0.0000 N   0  0  0  0  0  0  0  0  0  0  0  0
    5.0032   -2.5210    0.0000 N   0  0  0  0  0  0  0  0  0  0  0  0
    6.2353    2.0179    0.0000 C   0  0  0  0  0  0  0  0  0  0  0  0
    7.1013    0.5179    0.0000 C   0  0  0  0  0  0  0  0  0  0  0  0
    5.3692    1.5179    0.0000 C   0  0  0  0  0  0  0  0  0  0  0  0
    6.2353    0.0179    0.0000 C   0  0  0  0  0  0  0  0  0  0  0  0
    7.9673    2.0179    0.0000 C   0  0  0  0  0  0  0  0  0  0  0  0
    7.9673    3.0179    0.0000 C   0  0  0  0  0  0  0  0  0  0  0  0
    4.5032    0.0179    0.0000 C   0  0  0  0  0  0  0  0  0  0  0  0
    8.8334    3.5179    0.0000 C   0  0  0  0  0  0  0  0  0  0  0  0
    4.5032   -0.9821    0.0000 C   0  0  0  0  0  0  0  0  0  0  0  0
    7.1013    3.5179    0.0000 C   0  0  0  0  0  0  0  0  0  0  0  0
    8.8334    4.5179    0.0000 C   0  0  0  0  0  0  0  0  0  0  0  0
    9.7273    2.9832    0.0000 C   0  0  0  0  0  0  0  0  0  0  0  0
    7.1013    4.5179    0.0000 C   0  0  0  0  0  0  0  0  0  0  0  0
    7.9673    5.0179    0.0000 C   0  0  0  0  0  0  0  0  0  0  0  0
    3.6942   -1.5699    0.0000 C   0  0  0  0  0  0  0  0  0  0  0  0
    9.7273    5.0525    0.0000 C   0  0  0  0  0  0  0  0  0  0  0  0
    4.0032   -2.5210    0.0000 C   0  0  0  0  0  0  0  0  0  0  0  0
   10.6334    3.4971    0.0000 C   0  0  0  0  0  0  0  0  0  0  0  0
   10.6334    4.5387    0.0000 C   0  0  0  0  0  0  0  0  0  0  0  0
    5.5910   -3.3300    0.0000 C   0  0  0  0  0  0  0  0  0  0  0  0
    6.5855   -3.2254    0.0000 C   0  0  0  0  0  0  0  0  0  0  0  0
    5.1843   -4.2435    0.0000 C   0  0  0  0  0  0  0  0  0  0  0  0
    2.0000   -1.9300    0.0000 C   0  0  0  0  0  0  0  0  0  0  0  0
    7.1733   -4.0345    0.0000 C   0  0  0  0  0  0  0  0  0  0  0  0
    5.7720   -5.0525    0.0000 C   0  0  0  0  0  0  0  0  0  0  0  0
    6.7666   -4.9480    0.0000 C   0  0  0  0  0  0  0  0  0  0  0  0
    6.6338    2.4928    0.0000 H   0  0  0  0  0  0  0  0  0  0  0  0
    5.8367    2.4928    0.0000 H   0  0  0  0  0  0  0  0  0  0  0  0
    7.3134   -0.0647    0.0000 H   0  0  0  0  0  0  0  0  0  0  0  0
    7.7119    0.6255    0.0000 H   0  0  0  0  0  0  0  0  0  0  0  0
    5.1572    2.1005    0.0000 H   0  0  0  0  0  0  0  0  0  0  0  0
    4.7587    1.4102    0.0000 H   0  0  0  0  0  0  0  0  0  0  0  0
    5.8367   -0.4571    0.0000 H   0  0  0  0  0  0  0  0  0  0  0  0
    6.6338   -0.4571    0.0000 H   0  0  0  0  0  0  0  0  0  0  0  0
    8.1794    1.4353    0.0000 H   0  0  0  0  0  0  0  0  0  0  0  0
    8.5779    2.1255    0.0000 H   0  0  0  0  0  0  0  0  0  0  0  0
    6.5644    3.2079    0.0000 H   0  0  0  0  0  0  0  0  0  0  0  0
    9.7201    2.3633    0.0000 H   0  0  0  0  0  0  0  0  0  0  0  0
    6.5644    4.8279    0.0000 H   0  0  0  0  0  0  0  0  0  0  0  0
    7.9673    5.6379    0.0000 H   0  0  0  0  0  0  0  0  0  0  0  0
    9.7201    5.6725    0.0000 H   0  0  0  0  0  0  0  0  0  0  0  0
    3.6388   -3.0226    0.0000 H   0  0  0  0  0  0  0  0  0  0  0  0
   11.1691    3.1850    0.0000 H   0  0  0  0  0  0  0  0  0  0  0  0
   11.1691    4.8508    0.0000 H   0  0  0  0  0  0  0  0  0  0  0  0
    6.8377   -2.6590    0.0000 H   0  0  0  0  0  0  0  0  0  0  0  0
    4.5677   -4.3083    0.0000 H   0  0  0  0  0  0  0  0  0  0  0  0
    1.5851   -1.4693    0.0000 H   0  0  0  0  0  0  0  0  0  0  0  0
    1.5392   -2.3449    0.0000 H   0  0  0  0  0  0  0  0  0  0  0  0
    2.4149   -2.3908    0.0000 H   0  0  0  0  0  0  0  0  0  0  0  0
    7.7899   -3.9697    0.0000 H   0  0  0  0  0  0  0  0  0  0  0  0
    5.5199   -5.6189    0.0000 H   0  0  0  0  0  0  0  0  0  0  0  0
    7.1310   -5.4496    0.0000 H   0  0  0  0  0  0  0  0  0  0  0  0
  1 13  2  0  0  0  0
  2 21  1  0  0  0  0
  2 29  1  0  0  0  0
  3  7  1  0  0  0  0
  3  8  1  0  0  0  0
  3 11  1  0  0  0  0
  4  9  1  0  0  0  0
  4 10  1  0  0  0  0
  4 13  1  0  0  0  0
  5  6  1  0  0  0  0
  5 15  2  0  0  0  0
  6 23  1  0  0  0  0
  6 26  1  0  0  0  0
  7  9  1  0  0  0  0
  7 33  1  0  0  0  0
  7 34  1  0  0  0  0
  8 10  1  0  0  0  0
  8 35  1  0  0  0  0
  8 36  1  0  0  0  0
  9 37  1  0  0  0  0
  9 38  1  0  0  0  0
 10 39  1  0  0  0  0
 10 40  1  0  0  0  0
 11 12  1  0  0  0  0
 11 41  1  0  0  0  0
 11 42  1  0  0  0  0
 12 14  1  0  0  0  0
 12 16  2  0  0  0  0
 13 15  1  0  0  0  0
 14 17  1  0  0  0  0
 14 18  2  0  0  0  0
 15 21  1  0  0  0  0
 16 19  1  0  0  0  0
 16 43  1  0  0  0  0
 17 20  1  0  0  0  0
 17 22  2  0  0  0  0
 18 24  1  0  0  0  0
 18 44  1  0  0  0  0
 19 20  2  0  0  0  0
 19 45  1  0  0  0  0
 20 46  1  0  0  0  0
 21 23  2  0  0  0  0
 22 25  1  0  0  0  0
 22 47  1  0  0  0  0
 23 48  1  0  0  0  0
 24 25  2  0  0  0  0
 24 49  1  0  0  0  0
 25 50  1  0  0  0  0
 26 27  2  0  0  0  0
 26 28  1  0  0  0  0
 27 30  1  0  0  0  0
 27 51  1  0  0  0  0
 28 31  2  0  0  0  0
 28 52  1  0  0  0  0
 29 53  1  0  0  0  0
 29 54  1  0  0  0  0
 29 55  1  0  0  0  0
 30 32  2  0  0  0  0
 30 56  1  0  0  0  0
 31 32  1  0  0  0  0
 31 57  1  0  0  0  0
 32 58  1  0  0  0  0
M  END
> <PUBCHEM_COMPOUND_CID>
17395969

> <PUBCHEM_COMPOUND_CANONICALIZED>
1

> <PUBCHEM_CACTVS_COMPLEXITY>
617

> <PUBCHEM_CACTVS_HBOND_ACCEPTOR>
4

> <PUBCHEM_CACTVS_HBOND_DONOR>
0

> <PUBCHEM_CACTVS_ROTATABLE_BOND>
5

> <PUBCHEM_CACTVS_SUBSKEYS>
AAADceB7sAAAAAAAAAAAAAAAAAAAAWAAAAA8YMEAAAAAAADB1AAAHgAIAAAADAzBngY+xtMIBACqAzV3VASSDCA34gAYmCGvZNgOYPbE1dGVpWhirgDYyQcUgMAOgAACAAAQAAAAAAQAACAAAAAAAAAAAA==

> <PUBCHEM_IUPAC_OPENEYE_NAME>
(4-methoxy-1-phenyl-pyrazol-3-yl)-[4-(1-naphthylmethyl)piperazin-1-yl]methanone

> <PUBCHEM_IUPAC_CAS_NAME>
(4-methoxy-1-phenyl-3-pyrazolyl)-[4-(1-naphthalenylmethyl)-1-piperazinyl]methanone

> <PUBCHEM_IUPAC_NAME>
(4-methoxy-1-phenylpyrazol-3-yl)-[4-(naphthalen-1-ylmethyl)piperazin-1-yl]methanone

> <PUBCHEM_IUPAC_SYSTEMATIC_NAME>
(4-methoxy-1-phenyl-pyrazol-3-yl)-[4-(naphthalen-1-ylmethyl)piperazin-1-yl]methanone

> <PUBCHEM_IUPAC_TRADITIONAL_NAME>
(4-methoxy-1-phenyl-pyrazol-3-yl)-[4-(1-naphthylmethyl)piperazino]methanone

> <PUBCHEM_IUPAC_INCHI>
InChI=1S/C26H26N4O2/c1-32-24-19-30(22-11-3-2-4-12-22)27-25(24)26(31)29-16-14-28(15-17-29)18-21-10-7-9-20-8-5-6-13-23(20)21/h2-13,19H,14-18H2,1H3

> <PUBCHEM_IUPAC_INCHIKEY>
XPZOXAKCQHNLPD-UHFFFAOYSA-N

> <PUBCHEM_XLOGP3_AA>
4.2

> <PUBCHEM_EXACT_MASS>
426.205576

> <PUBCHEM_MOLECULAR_FORMULA>
C26H26N4O2

> <PUBCHEM_MOLECULAR_WEIGHT>
426.51024

> <PUBCHEM_OPENEYE_CAN_SMILES>
COC1=CN(N=C1C(=O)N2CCN(CC2)CC3=CC=CC4=CC=CC=C43)C5=CC=CC=C5

> <PUBCHEM_OPENEYE_ISO_SMILES>
COC1=CN(N=C1C(=O)N2CCN(CC2)CC3=CC=CC4=CC=CC=C43)C5=CC=CC=C5

> <PUBCHEM_CACTVS_TPSA>
50.6

> <PUBCHEM_MONOISOTOPIC_WEIGHT>
426.205576

> <PUBCHEM_TOTAL_CHARGE>
0

> <PUBCHEM_HEAVY_ATOM_COUNT>
32

> <PUBCHEM_ATOM_DEF_STEREO_COUNT>
0

> <PUBCHEM_ATOM_UDEF_STEREO_COUNT>
0

> <PUBCHEM_BOND_DEF_STEREO_COUNT>
0

> <PUBCHEM_BOND_UDEF_STEREO_COUNT>
0

> <PUBCHEM_ISOTOPIC_ATOM_COUNT>
0

> <PUBCHEM_COMPONENT_COUNT>
1

> <PUBCHEM_CACTVS_TAUTO_COUNT>
1

> <PUBCHEM_COORDINATE_TYPE>
1
5
255

> <PUBCHEM_BONDANNOTATIONS>
12  14  8
12  16  8
14  17  8
14  18  8
15  21  8
16  19  8
17  20  8
17  22  8
18  24  8
19  20  8
21  23  8
22  25  8
24  25  8
26  27  8
26  28  8
27  30  8
28  31  8
30  32  8
31  32  8
5  15  8
5  6  8
6  23  8

$$$$

