17396551
  -OEChem-06241222572D

 32 34  0     0  0  0  0  0  0999 V2000
    2.0000   -1.7852    0.0000 F   0  0  0  0  0  0  0  0  0  0  0  0
    2.0000   -3.7852    0.0000 F   0  0  0  0  0  0  0  0  0  0  0  0
    3.7320   -4.7852    0.0000 F   0  0  0  0  0  0  0  0  0  0  0  0
    5.4641   -0.7852    0.0000 O   0  0  0  0  0  0  0  0  0  0  0  0
    5.0981    2.2536    0.0000 N   0  0  0  0  0  0  0  0  0  0  0  0
    3.7320   -0.7852    0.0000 N   0  0  0  0  0  0  0  0  0  0  0  0
    5.4071    1.3026    0.0000 N   0  0  0  0  0  0  0  0  0  0  0  0
    4.0981    2.2536    0.0000 N   0  0  0  0  0  0  0  0  0  0  0  0
    3.7320   -1.7852    0.0000 C   0  0  0  0  0  0  0  0  0  0  0  0
    5.6859    3.0626    0.0000 C   0  0  0  0  0  0  0  0  0  0  0  0
    4.5981    0.7148    0.0000 C   0  0  0  0  0  0  0  0  0  0  0  0
    4.5981   -0.2852    0.0000 C   0  0  0  0  0  0  0  0  0  0  0  0
    2.8660   -2.2852    0.0000 C   0  0  0  0  0  0  0  0  0  0  0  0
    4.5981   -2.2852    0.0000 C   0  0  0  0  0  0  0  0  0  0  0  0
    3.7891    1.3026    0.0000 C   0  0  0  0  0  0  0  0  0  0  0  0
    6.6804    2.9581    0.0000 C   0  0  0  0  0  0  0  0  0  0  0  0
    5.2791    3.9762    0.0000 C   0  0  0  0  0  0  0  0  0  0  0  0
    2.8660   -3.2852    0.0000 C   0  0  0  0  0  0  0  0  0  0  0  0
    4.5981   -3.2852    0.0000 C   0  0  0  0  0  0  0  0  0  0  0  0
    3.7320   -3.7852    0.0000 C   0  0  0  0  0  0  0  0  0  0  0  0
    7.2682    3.7671    0.0000 C   0  0  0  0  0  0  0  0  0  0  0  0
    5.8669    4.7852    0.0000 C   0  0  0  0  0  0  0  0  0  0  0  0
    6.8614    4.6807    0.0000 C   0  0  0  0  0  0  0  0  0  0  0  0
    3.1951   -0.4752    0.0000 H   0  0  0  0  0  0  0  0  0  0  0  0
    5.1350   -1.9752    0.0000 H   0  0  0  0  0  0  0  0  0  0  0  0
    3.1994    1.1110    0.0000 H   0  0  0  0  0  0  0  0  0  0  0  0
    6.9326    2.3917    0.0000 H   0  0  0  0  0  0  0  0  0  0  0  0
    4.6625    4.0410    0.0000 H   0  0  0  0  0  0  0  0  0  0  0  0
    5.1350   -3.5952    0.0000 H   0  0  0  0  0  0  0  0  0  0  0  0
    7.8848    3.7023    0.0000 H   0  0  0  0  0  0  0  0  0  0  0  0
    5.6147    5.3516    0.0000 H   0  0  0  0  0  0  0  0  0  0  0  0
    7.2259    5.1823    0.0000 H   0  0  0  0  0  0  0  0  0  0  0  0
  1 13  1  0  0  0  0
  2 18  1  0  0  0  0
  3 20  1  0  0  0  0
  4 12  2  0  0  0  0
  5  7  1  0  0  0  0
  5  8  1  0  0  0  0
  5 10  1  0  0  0  0
  6  9  1  0  0  0  0
  6 12  1  0  0  0  0
  6 24  1  0  0  0  0
  7 11  2  0  0  0  0
  8 15  2  0  0  0  0
  9 13  2  0  0  0  0
  9 14  1  0  0  0  0
 10 16  2  0  0  0  0
 10 17  1  0  0  0  0
 11 12  1  0  0  0  0
 11 15  1  0  0  0  0
 13 18  1  0  0  0  0
 14 19  2  0  0  0  0
 14 25  1  0  0  0  0
 15 26  1  0  0  0  0
 16 21  1  0  0  0  0
 16 27  1  0  0  0  0
 17 22  2  0  0  0  0
 17 28  1  0  0  0  0
 18 20  2  0  0  0  0
 19 20  1  0  0  0  0
 19 29  1  0  0  0  0
 21 23  2  0  0  0  0
 21 30  1  0  0  0  0
 22 23  1  0  0  0  0
 22 31  1  0  0  0  0
 23 32  1  0  0  0  0
M  END
> <PUBCHEM_COMPOUND_CID>
17396551

> <PUBCHEM_COMPOUND_CANONICALIZED>
1

> <PUBCHEM_CACTVS_COMPLEXITY>
422

> <PUBCHEM_CACTVS_HBOND_ACCEPTOR>
6

> <PUBCHEM_CACTVS_HBOND_DONOR>
1

> <PUBCHEM_CACTVS_ROTATABLE_BOND>
3

> <PUBCHEM_CACTVS_SUBSKEYS>
AAADccBzoYAAAAAAAAAAAAAAAAAAAWAAAAAwYAAAAAAAAAAB0AAAHwAYAAAACAjBlgw8wJLAAACqATV3UACSBAQnkgAYmAGwdMgIYCrA0ZGUIIhgnADIyMcQAAAAAAAAAAAAAAAAAAAAAAAAAAAAAAAAAA==

> <PUBCHEM_IUPAC_OPENEYE_NAME>
2-phenyl-N-(2,3,4-trifluorophenyl)triazole-4-carboxamide

> <PUBCHEM_IUPAC_CAS_NAME>
2-phenyl-N-(2,3,4-trifluorophenyl)-4-triazolecarboxamide

> <PUBCHEM_IUPAC_NAME>
2-phenyl-N-(2,3,4-trifluorophenyl)triazole-4-carboxamide

> <PUBCHEM_IUPAC_SYSTEMATIC_NAME>
2-phenyl-N-[2,3,4-tris(fluoranyl)phenyl]-1,2,3-triazole-4-carboxamide

> <PUBCHEM_IUPAC_TRADITIONAL_NAME>
2-phenyl-N-(2,3,4-trifluorophenyl)triazole-4-carboxamide

> <PUBCHEM_IUPAC_INCHI>
InChI=1S/C15H9F3N4O/c16-10-6-7-11(14(18)13(10)17)20-15(23)12-8-19-22(21-12)9-4-2-1-3-5-9/h1-8H,(H,20,23)

> <PUBCHEM_IUPAC_INCHIKEY>
ALEAFABOEABJGG-UHFFFAOYSA-N

> <PUBCHEM_XLOGP3_AA>
3.4

> <PUBCHEM_EXACT_MASS>
318.072846

> <PUBCHEM_MOLECULAR_FORMULA>
C15H9F3N4O

> <PUBCHEM_MOLECULAR_WEIGHT>
318.25337

> <PUBCHEM_OPENEYE_CAN_SMILES>
C1=CC=C(C=C1)N2N=CC(=N2)C(=O)NC3=C(C(=C(C=C3)F)F)F

> <PUBCHEM_OPENEYE_ISO_SMILES>
C1=CC=C(C=C1)N2N=CC(=N2)C(=O)NC3=C(C(=C(C=C3)F)F)F

> <PUBCHEM_CACTVS_TPSA>
59.8

> <PUBCHEM_MONOISOTOPIC_WEIGHT>
318.072846

> <PUBCHEM_TOTAL_CHARGE>
0

> <PUBCHEM_HEAVY_ATOM_COUNT>
23

> <PUBCHEM_ATOM_DEF_STEREO_COUNT>
0

> <PUBCHEM_ATOM_UDEF_STEREO_COUNT>
0

> <PUBCHEM_BOND_DEF_STEREO_COUNT>
0

> <PUBCHEM_BOND_UDEF_STEREO_COUNT>
0

> <PUBCHEM_ISOTOPIC_ATOM_COUNT>
0

> <PUBCHEM_COMPONENT_COUNT>
1

> <PUBCHEM_CACTVS_TAUTO_COUNT>
2

> <PUBCHEM_COORDINATE_TYPE>
1
5
255

> <PUBCHEM_BONDANNOTATIONS>
10  16  8
10  17  8
11  15  8
13  18  8
14  19  8
16  21  8
17  22  8
18  20  8
19  20  8
21  23  8
22  23  8
5  7  8
5  8  8
7  11  8
8  15  8
9  13  8
9  14  8

$$$$

