12309986
  -OEChem-07051213152D

 47 50  0     1  0  0  0  0  0999 V2000
    1.3950   -0.8764    0.0000 O   0  0  0  0  0  0  0  0  0  0  0  0
    6.2783    0.2300    0.0000 O   0  0  0  0  0  0  0  0  0  0  0  0
    5.8778    2.1452    0.0000 O   0  0  0  0  0  0  0  0  0  0  0  0
    3.7870    3.3523    0.0000 O   0  0  0  0  0  0  0  0  0  0  0  0
    4.4262   -2.6016    0.0000 O   0  0  0  0  0  0  0  0  0  0  0  0
    3.5612   -1.4735    0.0000 O   0  0  0  0  0  0  0  0  0  0  0  0
    6.0740   -3.8183    0.0000 O   0  0  0  0  0  0  0  0  0  0  0  0
    5.4295    3.8183    0.0000 O   0  0  0  0  0  0  0  0  0  0  0  0
    3.9341    0.0718    0.0000 C   0  0  1  0  0  0  0  0  0  0  0  0
    2.1021   -0.1693    0.0000 C   0  0  1  0  0  0  0  0  0  0  0  0
    5.4692   -1.1713    0.0000 C   0  0  2  0  0  0  0  0  0  0  0  0
    3.6753    1.0378    0.0000 C   0  0  1  0  0  0  0  0  0  0  0  0
    4.9119    1.8864    0.0000 C   0  0  1  0  0  0  0  0  0  0  0  0
    1.1362    0.0895    0.0000 C   0  0  0  0  0  0  0  0  0  0  0  0
    4.0459    2.3864    0.0000 C   0  0  1  0  0  0  0  0  0  0  0  0
    6.3828   -0.7646    0.0000 C   0  0  1  0  0  0  0  0  0  0  0  0
    4.1929   -0.8941    0.0000 C   0  0  0  0  0  0  0  0  0  0  0  0
    5.3444   -2.2054    0.0000 C   0  0  1  0  0  0  0  0  0  0  0  0
    4.5557   -1.5780    0.0000 C   0  0  0  0  0  0  0  0  0  0  0  0
    7.2348   -1.3638    0.0000 C   0  0  0  0  0  0  0  0  0  0  0  0
    6.1824   -2.8242    0.0000 C   0  0  0  0  0  0  0  0  0  0  0  0
    7.1339   -2.4005    0.0000 C   0  0  0  0  0  0  0  0  0  0  0  0
    6.1366    3.1112    0.0000 C   0  0  0  0  0  0  0  0  0  0  0  0
    7.9452   -2.9852    0.0000 C   0  0  0  0  0  0  0  0  0  0  0  0
    7.1026    3.3700    0.0000 C   0  0  0  0  0  0  0  0  0  0  0  0
    3.4553    1.8588    0.0000 H   0  0  0  0  0  0  0  0  0  0  0  0
    4.9928    2.5011    0.0000 H   0  0  0  0  0  0  0  0  0  0  0  0
    0.5186    0.0354    0.0000 H   0  0  0  0  0  0  0  0  0  0  0  0
    1.1902    0.7071    0.0000 H   0  0  0  0  0  0  0  0  0  0  0  0
    3.4259    2.3884    0.0000 H   0  0  0  0  0  0  0  0  0  0  0  0
    7.1593   -0.4188    0.0000 H   0  0  0  0  0  0  0  0  0  0  0  0
    4.7918   -0.7336    0.0000 H   0  0  0  0  0  0  0  0  0  0  0  0
    4.3534   -1.4930    0.0000 H   0  0  0  0  0  0  0  0  0  0  0  0
    3.5940   -1.0546    0.0000 H   0  0  0  0  0  0  0  0  0  0  0  0
    5.2737   -2.8214    0.0000 H   0  0  0  0  0  0  0  0  0  0  0  0
    4.9864   -2.0240    0.0000 H   0  0  0  0  0  0  0  0  0  0  0  0
    4.4587   -0.9657    0.0000 H   0  0  0  0  0  0  0  0  0  0  0  0
    7.7983   -1.1050    0.0000 H   0  0  0  0  0  0  0  0  0  0  0  0
    3.1882    3.5128    0.0000 H   0  0  0  0  0  0  0  0  0  0  0  0
    4.3543   -3.2174    0.0000 H   0  0  0  0  0  0  0  0  0  0  0  0
    3.1968   -1.9751    0.0000 H   0  0  0  0  0  0  0  0  0  0  0  0
    8.3077   -2.4822    0.0000 H   0  0  0  0  0  0  0  0  0  0  0  0
    8.4482   -3.3476    0.0000 H   0  0  0  0  0  0  0  0  0  0  0  0
    7.5827   -3.4881    0.0000 H   0  0  0  0  0  0  0  0  0  0  0  0
    6.9421    3.9688    0.0000 H   0  0  0  0  0  0  0  0  0  0  0  0
    7.7014    3.5304    0.0000 H   0  0  0  0  0  0  0  0  0  0  0  0
    7.2630    2.7711    0.0000 H   0  0  0  0  0  0  0  0  0  0  0  0
 10  1  1  6  0  0  0
  1 14  1  0  0  0  0
  2 12  1  0  0  0  0
  2 16  1  0  0  0  0
 13  3  1  1  0  0  0
  3 23  1  0  0  0  0
 15  4  1  6  0  0  0
  4 39  1  0  0  0  0
 18  5  1  1  0  0  0
  5 40  1  0  0  0  0
  6 19  1  0  0  0  0
  6 41  1  0  0  0  0
  7 21  2  0  0  0  0
  8 23  2  0  0  0  0
  9 10  1  0  0  0  0
  9 11  1  0  0  0  0
  9 13  1  0  0  0  0
  9 17  1  1  0  0  0
 10 12  1  0  0  0  0
 10 14  1  0  0  0  0
 11 16  1  0  0  0  0
 11 18  1  0  0  0  0
 11 19  1  1  0  0  0
 12 15  1  0  0  0  0
 12 26  1  6  0  0  0
 13 15  1  0  0  0  0
 13 27  1  0  0  0  0
 14 28  1  0  0  0  0
 14 29  1  0  0  0  0
 15 30  1  0  0  0  0
 16 20  1  0  0  0  0
 16 31  1  1  0  0  0
 17 32  1  0  0  0  0
 17 33  1  0  0  0  0
 17 34  1  0  0  0  0
 18 21  1  0  0  0  0
 18 35  1  0  0  0  0
 19 36  1  0  0  0  0
 19 37  1  0  0  0  0
 20 22  2  0  0  0  0
 20 38  1  0  0  0  0
 21 22  1  0  0  0  0
 22 24  1  0  0  0  0
 23 25  1  0  0  0  0
 24 42  1  0  0  0  0
 24 43  1  0  0  0  0
 24 44  1  0  0  0  0
 25 45  1  0  0  0  0
 25 46  1  0  0  0  0
 25 47  1  0  0  0  0
M  END
> <PUBCHEM_COMPOUND_CID>
12309986

> <PUBCHEM_COMPOUND_CANONICALIZED>
1

> <PUBCHEM_CACTVS_COMPLEXITY>
688

> <PUBCHEM_CACTVS_HBOND_ACCEPTOR>
8

> <PUBCHEM_CACTVS_HBOND_DONOR>
3

> <PUBCHEM_CACTVS_ROTATABLE_BOND>
3

> <PUBCHEM_CACTVS_SUBSKEYS>
AAADceB4PAAAAAAAAAAAAAAAEgAAAYAAAAAkQAAABIAAAACAAAAAGgAACAAADlSggAICCAAABgCIAqDSCAIAAAAgAAAACAFAAEgBFBIAIQACUAAFwAALIYPK7PzPgAAAAAAAAAAAAAAAAAAAAIQADCAAAA==

> <PUBCHEM_IUPAC_INCHI>
InChI=1S/C17H22O8/c1-7-4-9-16(5-18,12(22)10(7)20)15(3)13(24-8(2)19)11(21)14(25-9)17(15)6-23-17/h4,9,11-14,18,21-22H,5-6H2,1-3H3/t9-,11-,12-,13-,14-,15-,16-,17-/m1/s1

> <PUBCHEM_IUPAC_INCHIKEY>
XGCUCFKWVIWWNW-UWKSZNKUSA-N

> <PUBCHEM_XLOGP3_AA>
-1.1

> <PUBCHEM_EXACT_MASS>
354.131468

> <PUBCHEM_MOLECULAR_FORMULA>
C17H22O8

> <PUBCHEM_MOLECULAR_WEIGHT>
354.35178

> <PUBCHEM_OPENEYE_CAN_SMILES>
CC1=CC2C(C(C1=O)O)(C3(C(C(C(C34CO4)O2)O)OC(=O)C)C)CO

> <PUBCHEM_OPENEYE_ISO_SMILES>
CC1=C[C@@H]2[C@]([C@@H](C1=O)O)([C@]3([C@@H]([C@H]([C@H]([C@]34CO4)O2)O)OC(=O)C)C)CO

> <PUBCHEM_CACTVS_TPSA>
126

> <PUBCHEM_MONOISOTOPIC_WEIGHT>
354.131468

> <PUBCHEM_TOTAL_CHARGE>
0

> <PUBCHEM_HEAVY_ATOM_COUNT>
25

> <PUBCHEM_ATOM_DEF_STEREO_COUNT>
8

> <PUBCHEM_ATOM_UDEF_STEREO_COUNT>
0

> <PUBCHEM_BOND_DEF_STEREO_COUNT>
0

> <PUBCHEM_BOND_UDEF_STEREO_COUNT>
0

> <PUBCHEM_ISOTOPIC_ATOM_COUNT>
0

> <PUBCHEM_COMPONENT_COUNT>
1

> <PUBCHEM_CACTVS_TAUTO_COUNT>
8

> <PUBCHEM_COORDINATE_TYPE>
1
5
255

> <PUBCHEM_BONDANNOTATIONS>
10  1  6
11  19  5
12  26  6
16  31  5
13  3  5
15  4  6
18  5  5
9  17  5

$$$$

