   Color/Form
        Yellowish-orange crystals; extremely thin platelets (elongated @ 2
   ends) from hot water
   from [1]HSDB

   Odor
        Odorless or almost odorless
   from [2]HSDB

   Taste
        Tasteless
   from [3]HSDB

   Dissociation Constants
        pKa = 3.5, 4.3 (carboxylic acid moieties) /Estimated/
   from [4]HSDB

   Octanol/Water Partition Coefficient
        log Kow = -2.81 /Estimated/
   from [5]HSDB

   pH
        A suspension of 1 g of folic acid in 10 ml of water has a pH of
   4.0-4.8. Aq solutions prepared with sodium bicarbonate have a pH
   between 6.5 and 6.8.
   from [6]HSDB

   Solubilities

     * Slightly sol in methanol, less in ethanol and butanol; insol in
       acetone, chloroform, ether, benzene; relatively sol in acetic acid,
       phenol, pyridine, and in soln of alkali hydroxides and carbonates.
       Soluble in hot dil HCl and H2SO4.
     * In water, 1.6 mg/L at 25 deg C; soluble up to about 1% in boiling
       water

   from [7]HSDB

   Spectral Properties

     * Specific optical rotation: +23 deg at 25 deg C/D (c= 0.5 in 0.1 N
       sodium hyroxide)
     * UV max (pH 13): 256, 283, 368 nm (log E 4.43, 4.40, 3.96)
     * MASS: 76456 44 (NIST/EPA/MSDC Mass Specral Database 1990 Version)
     * IR: 5025 (Coblentz Society Spectral Collection)
     * UV: 2-601 (Organic Electronic Spectral Data, Phillips et al, John
       Wiley & Sons, New York)

   from [8]HSDB

   Vapor Pressure
        6.2X10-20 mm Hg at 25 deg C /Estimated/
   from [9]HSDB

   Other Chemical/Physical Properties

     * Darkens and chars from about 250 deg C
     * Folic acid elixir ... incompatible with chloral hydrate, ferrous
       sulfate, sulfonamides, acacia mucilage, sol calcium salts, acidic
       vitamin preparations, & cherry & raspberry syrups.
     * Soluble in dilute solutions of alkali hydroxides and carbonates,
       yielding a clear orange-brown solution; soluble in hydrochloric
       acid and in sulphuric acid, yielding very pale yellow solutions. A
       solution in 0.1 M sodium hydroxide is dextrorotatory. Solutions of
       the sodium salt are sterilized by filtration.
     * Henry's Law constant = 3.6X10-33 atm-cu m/mol at 25 deg C
       /Estimated/
     * Hydroxyl radical reaction rate constant = 8.5X10-11 cu cm/molec-sec
       at 25 deg C /Estimated/

   from [10]HSDB

   Computed Properties
   Molecular Weight                  441.39746 [g/mol]
   Molecular Formula                 C[19]H[19]N[7]O[6]
   XLogP3-AA                         -1.1
   H-Bond Donor                      6
   H-Bond Acceptor                   9
   Rotatable Bond Count              9
   Tautomer Count                    60
   Exact Mass                        441.139681
   MonoIsotopic Mass                 441.139681
   Topological Polar Surface Area    209
   Heavy Atom Count                  32
   Formal Charge                     0
   Complexity                        767
   Isotope Atom Count                0
   Defined Atom Stereocenter Count   1
   Undefined Atom Stereocenter Count 0
   Defined Bond Stereocenter Count   0
   Undefined Bond Stereocenter Count 0
   Covalently-Bonded Unit Count      1
   Feature 3D Acceptor Count         7
   Feature 3D Donor Count            5
   Feature 3D Anion Count            2
   Feature 3D Cation Count           2
   Feature 3D Ring Count             3
   Effective Rotor Count             10
   Conformer Sampling RMSD           1
   CID Conformer Count               [11]60

References

   1. http://toxnet.nlm.nih.gov/cgi-bin/sis/search/r?dbs+hsdb:@term+@rn+@rel+59-30-3
   2. http://toxnet.nlm.nih.gov/cgi-bin/sis/search/r?dbs+hsdb:@term+@rn+@rel+59-30-3
   3. http://toxnet.nlm.nih.gov/cgi-bin/sis/search/r?dbs+hsdb:@term+@rn+@rel+59-30-3
   4. http://toxnet.nlm.nih.gov/cgi-bin/sis/search/r?dbs+hsdb:@term+@rn+@rel+59-30-3
   5. http://toxnet.nlm.nih.gov/cgi-bin/sis/search/r?dbs+hsdb:@term+@rn+@rel+59-30-3
   6. http://toxnet.nlm.nih.gov/cgi-bin/sis/search/r?dbs+hsdb:@term+@rn+@rel+59-30-3
   7. http://toxnet.nlm.nih.gov/cgi-bin/sis/search/r?dbs+hsdb:@term+@rn+@rel+59-30-3
   8. http://toxnet.nlm.nih.gov/cgi-bin/sis/search/r?dbs+hsdb:@term+@rn+@rel+59-30-3
   9. http://toxnet.nlm.nih.gov/cgi-bin/sis/search/r?dbs+hsdb:@term+@rn+@rel+59-30-3
  10. http://toxnet.nlm.nih.gov/cgi-bin/sis/search/r?dbs+hsdb:@term+@rn+@rel+59-30-3
  11. http://pubchem.ncbi.nlm.nih.gov/vw3d/vw3d.cgi?cid=6037
