   Color/Form

     * Monoclinic prismatic tablets from alcohol or by sublimation; pure
       pyrene is colorless
     * Pale yellow plates (from toluene, sublimes)
     * Colorless solid (tetracene impuritites give yellow color)

   from [1]HSDB

   Boiling Point
        404 deg C
   from [2]HSDB

   Melting Point
        150.62 deg C
   from [3]HSDB

   Density/Specific Gravity
        1.271 at 23 deg C
   from [4]HSDB

   Heat of Combustion
        3.878X10+7 J/kg
   from [5]HSDB

   Heat of Vaporization
        3.21X10+5 J/kg
   from [6]HSDB

   Octanol/Water Partition Coefficient
        log Kow = 4.88
   from [7]HSDB

   Solubilities

     * Soluble in ethanol, ethyl ether, benzene, toluene; slightly soluble
       in carbon tetrachloride
     * Soluble in carbon disulfide, ligroin
     * Partially soluble in organic solvents
     * In water, 0.135 mg/L at 25 deg C

   from [8]HSDB

   Spectral Properties

     * MAX ABSORPTION (CYCLOHEXANE): 273 NM (LOG E= 4.77), 306 NM (LOG E=
       5.07), 320 NM (LOG E= 4.51), 335 (LOG E= 4.78)
     * Sadtler reference number: 870 (IR, Prism); 173 (IR, Grating)
     * Intense mass spectral peaks: 202 m/z (100%), 203 m/z (26%), 200 m/z
       (21%), 101 m/z (21%)
     * IR: 6032 (Coblentz Society Spectral Collection)
     * UV: 269 (Sadtler Research Laboratories Spectral Collection)
     * 1H NMR: 64 (Sadtler Research Laboratories Spectral Collection)
     * 13C NMR: 469 (Johnson and Jankowski, Carbon-13 NMR Spectra, John
       Wiley & Sons, New York)
     * MASS: 39309 (NIST/EPA/MSDC Mass Spectral Database, 1990 version)

   from [9]HSDB

   Vapor Pressure
        4.5X10-6 mm Hg at 25 deg C
   from [10]HSDB

   Other Chemical/Physical Properties

     * ABSORPTION COEFFICIENT FOR THERMAL ELECTRONS: 6.0; IONIZATION
       POTENTIAL: 7.58; COEFFICIENT OF HIGHEST FILLED OR LOWEST EMPTY
       MOLECULAR ORBITAL: 0.445; K-REGION: BOND= 4,5, BOND ORDER= 1.777,
       (CLE) MIN CARBON LOCALIZATION ENERGY PLUS (BLE) BOND LOCALIZATION
       ENERGY= 3.33
     * Solid and solution have slight blue fluorescence
     * Henry's Law constant = 1.19X10-5 atm-cu m/mole at 25 deg C
     * Hydroxyl radical reaction rate constant = 5.0X10-11 cu
       cm/molecule-sec at 25 deg C

   from [11]HSDB

   Computed Properties
   Molecular Weight                  202.2506 [g/mol]
   Molecular Formula                 C[16]H[10]
   XLogP3                            4.9
   H-Bond Donor                      0
   H-Bond Acceptor                   0
   Rotatable Bond Count              0
   Exact Mass                        202.07825
   MonoIsotopic Mass                 202.07825
   Topological Polar Surface Area    0
   Heavy Atom Count                  16
   Formal Charge                     0
   Complexity                        217
   Isotope Atom Count                0
   Defined Atom Stereocenter Count   0
   Undefined Atom Stereocenter Count 0
   Defined Bond Stereocenter Count   0
   Undefined Bond Stereocenter Count 0
   Covalently-Bonded Unit Count      1
   Feature 3D Ring Count             4
   Effective Rotor Count             0
   Conformer Sampling RMSD           0.4
   CID Conformer Count               [12]1

References

   1. http://toxnet.nlm.nih.gov/cgi-bin/sis/search/r?dbs+hsdb:@term+@rn+@rel+129-00-0
   2. http://toxnet.nlm.nih.gov/cgi-bin/sis/search/r?dbs+hsdb:@term+@rn+@rel+129-00-0
   3. http://toxnet.nlm.nih.gov/cgi-bin/sis/search/r?dbs+hsdb:@term+@rn+@rel+129-00-0
   4. http://toxnet.nlm.nih.gov/cgi-bin/sis/search/r?dbs+hsdb:@term+@rn+@rel+129-00-0
   5. http://toxnet.nlm.nih.gov/cgi-bin/sis/search/r?dbs+hsdb:@term+@rn+@rel+129-00-0
   6. http://toxnet.nlm.nih.gov/cgi-bin/sis/search/r?dbs+hsdb:@term+@rn+@rel+129-00-0
   7. http://toxnet.nlm.nih.gov/cgi-bin/sis/search/r?dbs+hsdb:@term+@rn+@rel+129-00-0
   8. http://toxnet.nlm.nih.gov/cgi-bin/sis/search/r?dbs+hsdb:@term+@rn+@rel+129-00-0
   9. http://toxnet.nlm.nih.gov/cgi-bin/sis/search/r?dbs+hsdb:@term+@rn+@rel+129-00-0
  10. http://toxnet.nlm.nih.gov/cgi-bin/sis/search/r?dbs+hsdb:@term+@rn+@rel+129-00-0
  11. http://toxnet.nlm.nih.gov/cgi-bin/sis/search/r?dbs+hsdb:@term+@rn+@rel+129-00-0
  12. http://pubchem.ncbi.nlm.nih.gov/vw3d/vw3d.cgi?cid=31423
