   Color/Form
        Crystals from petroleum ether
   from [1]HSDB

   Odor
        ODORLESS
   from [2]HSDB

   Boiling Point
        125 deg C
   from [3]HSDB

   Melting Point
        65 deg C
   from [4]HSDB

   Density/Specific Gravity
        1.2 at 25 deg C
   from [5]HSDB

   Octanol/Water Partition Coefficient
        log Kow = 0.29 /Estimated/
   from [6]HSDB

   Solubilities

     * Soluble in polar organic solvents and slightly soluble in petroleum
       ether.
     * In water, 80,000 mg/L at 25 deg C [Shiu WY et al; Rev Environ
       Contam Toxicol 116: 15-187 (1990)] [7]PubMed Abstract

   from [8]HSDB

   Vapor Pressure
        0.001 mm Hg at 15 deg C
   from [9]HSDB

   Other Chemical/Physical Properties

     * Henry's Law constant = 3.0X10-9 atm-cu m/mole at 15 deg C
       /Estimated/
     * Hydroxyl radical reaction rate constant = 9.2X10-11 cm cu/molec-sec
       at 25 deg C /Estimated/
     * Decomposition by acid & alkali; commercial product hygroscopic

   from [10]HSDB

   Computed Properties
   Molecular Weight                  182.176205 [g/mol]
   Molecular Formula                 C[6]H[16]FN[2]OP
   XLogP3-AA                         1
   H-Bond Donor                      2
   H-Bond Acceptor                   4
   Rotatable Bond Count              4
   Tautomer Count                    2
   Exact Mass                        182.098428
   MonoIsotopic Mass                 182.098428
   Topological Polar Surface Area    41.1
   Heavy Atom Count                  11
   Formal Charge                     0
   Complexity                        147
   Isotope Atom Count                0
   Defined Atom Stereocenter Count   0
   Undefined Atom Stereocenter Count 0
   Defined Bond Stereocenter Count   0
   Undefined Bond Stereocenter Count 0
   Covalently-Bonded Unit Count      1
   Feature 3D Acceptor Count         1
   Feature 3D Hydrophobe Count       2
   Effective Rotor Count             4
   Conformer Sampling RMSD           0.6
   CID Conformer Count               [11]10

References

   1. http://toxnet.nlm.nih.gov/cgi-bin/sis/search/r?dbs+hsdb:@term+@rn+@rel+371-86-8
   2. http://toxnet.nlm.nih.gov/cgi-bin/sis/search/r?dbs+hsdb:@term+@rn+@rel+371-86-8
   3. http://toxnet.nlm.nih.gov/cgi-bin/sis/search/r?dbs+hsdb:@term+@rn+@rel+371-86-8
   4. http://toxnet.nlm.nih.gov/cgi-bin/sis/search/r?dbs+hsdb:@term+@rn+@rel+371-86-8
   5. http://toxnet.nlm.nih.gov/cgi-bin/sis/search/r?dbs+hsdb:@term+@rn+@rel+371-86-8
   6. http://toxnet.nlm.nih.gov/cgi-bin/sis/search/r?dbs+hsdb:@term+@rn+@rel+371-86-8
   7. http://www.ncbi.nlm.nih.gov/entrez/query.fcgi?cmd=Retrieve&db=pubmed&dopt=Abstract&list_uids=2205893
   8. http://toxnet.nlm.nih.gov/cgi-bin/sis/search/r?dbs+hsdb:@term+@rn+@rel+371-86-8
   9. http://toxnet.nlm.nih.gov/cgi-bin/sis/search/r?dbs+hsdb:@term+@rn+@rel+371-86-8
  10. http://toxnet.nlm.nih.gov/cgi-bin/sis/search/r?dbs+hsdb:@term+@rn+@rel+371-86-8
  11. http://pubchem.ncbi.nlm.nih.gov/vw3d/vw3d.cgi?cid=9738
