17395334
  -OEChem-06241222492D

 39 40  0     0  0  0  0  0  0999 V2000
    5.5211    4.0684    0.0000 O   0  0  0  0  0  0  0  0  0  0  0  0
    2.8660   -0.5194    0.0000 O   0  0  0  0  0  0  0  0  0  0  0  0
    6.3301    0.4806    0.0000 O   0  0  0  0  0  0  0  0  0  0  0  0
    4.5981   -0.5194    0.0000 N   0  0  0  0  0  0  0  0  0  0  0  0
    5.4641    1.9806    0.0000 N   0  0  0  0  0  0  0  0  0  0  0  0
    3.7320   -2.0194    0.0000 C   0  0  0  0  0  0  0  0  0  0  0  0
    2.8660   -2.5194    0.0000 C   0  0  0  0  0  0  0  0  0  0  0  0
    3.7320   -4.0194    0.0000 C   0  0  0  0  0  0  0  0  0  0  0  0
    2.8660   -3.5194    0.0000 C   0  0  0  0  0  0  0  0  0  0  0  0
    4.5981   -2.5194    0.0000 C   0  0  0  0  0  0  0  0  0  0  0  0
    3.7320   -1.0194    0.0000 C   0  0  0  0  0  0  0  0  0  0  0  0
    4.5981    0.4806    0.0000 C   0  0  0  0  0  0  0  0  0  0  0  0
    4.5981   -3.5194    0.0000 C   0  0  0  0  0  0  0  0  0  0  0  0
    6.3301    2.4806    0.0000 C   0  0  0  0  0  0  0  0  0  0  0  0
    2.0000   -2.0194    0.0000 C   0  0  0  0  0  0  0  0  0  0  0  0
    5.4641    0.9806    0.0000 C   0  0  0  0  0  0  0  0  0  0  0  0
    6.3301    3.4806    0.0000 C   0  0  0  0  0  0  0  0  0  0  0  0
    3.7320   -5.0194    0.0000 C   0  0  0  0  0  0  0  0  0  0  0  0
    7.1391    4.0684    0.0000 C   0  0  0  0  0  0  0  0  0  0  0  0
    6.8301    5.0194    0.0000 C   0  0  0  0  0  0  0  0  0  0  0  0
    5.8301    5.0194    0.0000 C   0  0  0  0  0  0  0  0  0  0  0  0
    2.3291   -3.8294    0.0000 H   0  0  0  0  0  0  0  0  0  0  0  0
    5.1350   -2.2094    0.0000 H   0  0  0  0  0  0  0  0  0  0  0  0
    4.3860    1.0632    0.0000 H   0  0  0  0  0  0  0  0  0  0  0  0
    3.9875    0.3729    0.0000 H   0  0  0  0  0  0  0  0  0  0  0  0
    5.1350   -3.8294    0.0000 H   0  0  0  0  0  0  0  0  0  0  0  0
    6.5422    1.8980    0.0000 H   0  0  0  0  0  0  0  0  0  0  0  0
    6.9407    2.5882    0.0000 H   0  0  0  0  0  0  0  0  0  0  0  0
    5.1350   -0.8294    0.0000 H   0  0  0  0  0  0  0  0  0  0  0  0
    2.3100   -1.4825    0.0000 H   0  0  0  0  0  0  0  0  0  0  0  0
    1.4631   -1.7094    0.0000 H   0  0  0  0  0  0  0  0  0  0  0  0
    1.6900   -2.5564    0.0000 H   0  0  0  0  0  0  0  0  0  0  0  0
    4.9272    2.2906    0.0000 H   0  0  0  0  0  0  0  0  0  0  0  0
    3.1120   -5.0194    0.0000 H   0  0  0  0  0  0  0  0  0  0  0  0
    3.7320   -5.6394    0.0000 H   0  0  0  0  0  0  0  0  0  0  0  0
    4.3520   -5.0194    0.0000 H   0  0  0  0  0  0  0  0  0  0  0  0
    7.7288    3.8768    0.0000 H   0  0  0  0  0  0  0  0  0  0  0  0
    7.1946    5.5210    0.0000 H   0  0  0  0  0  0  0  0  0  0  0  0
    5.4657    5.5210    0.0000 H   0  0  0  0  0  0  0  0  0  0  0  0
  1 17  1  0  0  0  0
  1 21  1  0  0  0  0
  2 11  2  0  0  0  0
  3 16  2  0  0  0  0
  4 11  1  0  0  0  0
  4 12  1  0  0  0  0
  4 29  1  0  0  0  0
  5 14  1  0  0  0  0
  5 16  1  0  0  0  0
  5 33  1  0  0  0  0
  6  7  2  0  0  0  0
  6 10  1  0  0  0  0
  6 11  1  0  0  0  0
  7  9  1  0  0  0  0
  7 15  1  0  0  0  0
  8  9  2  0  0  0  0
  8 13  1  0  0  0  0
  8 18  1  0  0  0  0
  9 22  1  0  0  0  0
 10 13  2  0  0  0  0
 10 23  1  0  0  0  0
 12 16  1  0  0  0  0
 12 24  1  0  0  0  0
 12 25  1  0  0  0  0
 13 26  1  0  0  0  0
 14 17  1  0  0  0  0
 14 27  1  0  0  0  0
 14 28  1  0  0  0  0
 15 30  1  0  0  0  0
 15 31  1  0  0  0  0
 15 32  1  0  0  0  0
 17 19  2  0  0  0  0
 18 34  1  0  0  0  0
 18 35  1  0  0  0  0
 18 36  1  0  0  0  0
 19 20  1  0  0  0  0
 19 37  1  0  0  0  0
 20 21  2  0  0  0  0
 20 38  1  0  0  0  0
 21 39  1  0  0  0  0
M  END
> <PUBCHEM_COMPOUND_CID>
17395334

> <PUBCHEM_COMPOUND_CANONICALIZED>
1

> <PUBCHEM_CACTVS_COMPLEXITY>
373

> <PUBCHEM_CACTVS_HBOND_ACCEPTOR>
3

> <PUBCHEM_CACTVS_HBOND_DONOR>
2

> <PUBCHEM_CACTVS_ROTATABLE_BOND>
5

> <PUBCHEM_CACTVS_SUBSKEYS>
AAADceB7MAAAAAAAAAAAAAAAAAAAASAAAAAwAAAAAAAAAAABwAAAHgAQAAAADAThmAYyBILABECIAqlSkACCCAAkIAAIiIGODMgOZjKEtTuXOSjk1hGYqYeYmcKOwAACAAAQAACAAAQAACAAAAAAAAAAAA==

> <PUBCHEM_IUPAC_OPENEYE_NAME>
N-[2-(2-furylmethylamino)-2-oxo-ethyl]-2,4-dimethyl-benzamide

> <PUBCHEM_IUPAC_CAS_NAME>
N-[2-(2-furanylmethylamino)-2-oxoethyl]-2,4-dimethylbenzamide

> <PUBCHEM_IUPAC_NAME>
N-[2-(furan-2-ylmethylamino)-2-oxoethyl]-2,4-dimethylbenzamide

> <PUBCHEM_IUPAC_SYSTEMATIC_NAME>
N-[2-(furan-2-ylmethylamino)-2-oxidanylidene-ethyl]-2,4-dimethyl-benzamide

> <PUBCHEM_IUPAC_TRADITIONAL_NAME>
N-[2-(2-furfurylamino)-2-keto-ethyl]-2,4-dimethyl-benzamide

> <PUBCHEM_IUPAC_INCHI>
InChI=1S/C16H18N2O3/c1-11-5-6-14(12(2)8-11)16(20)18-10-15(19)17-9-13-4-3-7-21-13/h3-8H,9-10H2,1-2H3,(H,17,19)(H,18,20)

> <PUBCHEM_IUPAC_INCHIKEY>
MHOBPBKAOFOODB-UHFFFAOYSA-N

> <PUBCHEM_XLOGP3_AA>
1.9

> <PUBCHEM_EXACT_MASS>
286.131742

> <PUBCHEM_MOLECULAR_FORMULA>
C16H18N2O3

> <PUBCHEM_MOLECULAR_WEIGHT>
286.32572

> <PUBCHEM_OPENEYE_CAN_SMILES>
CC1=CC(=C(C=C1)C(=O)NCC(=O)NCC2=CC=CO2)C

> <PUBCHEM_OPENEYE_ISO_SMILES>
CC1=CC(=C(C=C1)C(=O)NCC(=O)NCC2=CC=CO2)C

> <PUBCHEM_CACTVS_TPSA>
71.3

> <PUBCHEM_MONOISOTOPIC_WEIGHT>
286.131742

> <PUBCHEM_TOTAL_CHARGE>
0

> <PUBCHEM_HEAVY_ATOM_COUNT>
21

> <PUBCHEM_ATOM_DEF_STEREO_COUNT>
0

> <PUBCHEM_ATOM_UDEF_STEREO_COUNT>
0

> <PUBCHEM_BOND_DEF_STEREO_COUNT>
0

> <PUBCHEM_BOND_UDEF_STEREO_COUNT>
0

> <PUBCHEM_ISOTOPIC_ATOM_COUNT>
0

> <PUBCHEM_COMPONENT_COUNT>
1

> <PUBCHEM_CACTVS_TAUTO_COUNT>
10

> <PUBCHEM_COORDINATE_TYPE>
1
5
255

> <PUBCHEM_BONDANNOTATIONS>
1  17  8
1  21  8
10  13  8
17  19  8
19  20  8
20  21  8
6  10  8
6  7  8
7  9  8
8  13  8
8  9  8

$$$$

