13915
  -OEChem-06241222402D

 24 25  0     1  0  0  0  0  0999 V2000
    2.0000   -0.3263    0.0000 N   0  0  0  0  0  0  0  0  0  0  0  0
    2.5176    1.6056    0.0000 N   0  0  0  0  0  0  0  0  0  0  0  0
    6.2121    2.1056    0.0000 N   0  0  0  0  0  0  0  0  0  0  0  0
    4.2802    2.6232    0.0000 N   0  0  0  0  0  0  0  0  0  0  0  0
    4.9096   -1.6232    0.0000 C   0  0  3  0  0  0  0  0  0  0  0  0
    5.1685   -0.6573    0.0000 C   0  0  3  0  0  0  0  0  0  0  0  0
    3.9318    0.1914    0.0000 C   0  0  0  0  0  0  0  0  0  0  0  0
    4.7979    0.6914    0.0000 C   0  0  0  0  0  0  0  0  0  0  0  0
    3.1776   -2.6232    0.0000 C   0  0  0  0  0  0  0  0  0  0  0  0
    2.6776   -1.7572    0.0000 C   0  0  0  0  0  0  0  0  0  0  0  0
    6.7416   -2.3820    0.0000 C   0  0  0  0  0  0  0  0  0  0  0  0
    7.0004   -1.4161    0.0000 C   0  0  0  0  0  0  0  0  0  0  0  0
    2.9659   -0.0675    0.0000 C   0  0  0  0  0  0  0  0  0  0  0  0
    3.2247    0.8985    0.0000 C   0  0  0  0  0  0  0  0  0  0  0  0
    5.5050    1.3985    0.0000 C   0  0  0  0  0  0  0  0  0  0  0  0
    4.5391    1.6573    0.0000 C   0  0  0  0  0  0  0  0  0  0  0  0
    4.9502   -2.2419    0.0000 H   0  0  0  0  0  0  0  0  0  0  0  0
    5.1756   -1.2772    0.0000 H   0  0  0  0  0  0  0  0  0  0  0  0
    2.6407   -2.9332    0.0000 H   0  0  0  0  0  0  0  0  0  0  0  0
    3.4876   -3.1601    0.0000 H   0  0  0  0  0  0  0  0  0  0  0  0
    2.4069   -1.1994    0.0000 H   0  0  0  0  0  0  0  0  0  0  0  0
    2.1299   -2.0477    0.0000 H   0  0  0  0  0  0  0  0  0  0  0  0
    7.0158   -2.9381    0.0000 H   0  0  0  0  0  0  0  0  0  0  0  0
    7.5565   -1.1419    0.0000 H   0  0  0  0  0  0  0  0  0  0  0  0
  1 13  3  0  0  0  0
  2 14  3  0  0  0  0
  3 15  3  0  0  0  0
  4 16  3  0  0  0  0
  5  7  1  0  0  0  0
  5  9  1  0  0  0  0
  5 11  1  0  0  0  0
  5 17  1  0  0  0  0
  6  8  1  0  0  0  0
  6 10  1  0  0  0  0
  6 12  1  0  0  0  0
  6 18  1  0  0  0  0
  7  8  1  0  0  0  0
  7 13  1  0  0  0  0
  7 14  1  0  0  0  0
  8 15  1  0  0  0  0
  8 16  1  0  0  0  0
  9 10  1  0  0  0  0
  9 19  1  0  0  0  0
  9 20  1  0  0  0  0
 10 21  1  0  0  0  0
 10 22  1  0  0  0  0
 11 12  2  0  0  0  0
 11 23  1  0  0  0  0
 12 24  1  0  0  0  0
M  END
> <PUBCHEM_COMPOUND_CID>
13915

> <PUBCHEM_COMPOUND_CANONICALIZED>
1

> <PUBCHEM_CACTVS_COMPLEXITY>
477

> <PUBCHEM_CACTVS_HBOND_ACCEPTOR>
4

> <PUBCHEM_CACTVS_HBOND_DONOR>
0

> <PUBCHEM_CACTVS_ROTATABLE_BOND>
0

> <PUBCHEM_CACTVS_SUBSKEYS>
AAADccBzgAAAAAAAAAAAAAAAAAAAAAAAAAAwQIAAAAAAAAAAAAAAHAAAAAAADwCBAAAAAAAAAACQBCBCAAAAAAAgAAAICAAAAAgAgAIAAQAAAAAAgAAIAAsAgMAPgAAAAAAAAACAAAQAACAAAAAAAAAAAA==

> <PUBCHEM_IUPAC_OPENEYE_NAME>
bicyclo[2.2.2]oct-5-ene-2,2,3,3-tetracarbonitrile

> <PUBCHEM_IUPAC_CAS_NAME>
bicyclo[2.2.2]oct-5-ene-2,2,3,3-tetracarbonitrile

> <PUBCHEM_IUPAC_NAME>
bicyclo[2.2.2]oct-5-ene-2,2,3,3-tetracarbonitrile

> <PUBCHEM_IUPAC_SYSTEMATIC_NAME>
bicyclo[2.2.2]oct-5-ene-2,2,3,3-tetracarbonitrile

> <PUBCHEM_IUPAC_TRADITIONAL_NAME>
bicyclo[2.2.2]oct-5-ene-2,2,3,3-tetracarbonitrile

> <PUBCHEM_IUPAC_INCHI>
InChI=1S/C12H8N4/c13-5-11(6-14)9-1-2-10(4-3-9)12(11,7-15)8-16/h1-2,9-10H,3-4H2

> <PUBCHEM_IUPAC_INCHIKEY>
GFDRDNGZQZLSRI-UHFFFAOYSA-N

> <PUBCHEM_XLOGP3_AA>
0.8

> <PUBCHEM_EXACT_MASS>
208.074896

> <PUBCHEM_MOLECULAR_FORMULA>
C12H8N4

> <PUBCHEM_MOLECULAR_WEIGHT>
208.21872

> <PUBCHEM_OPENEYE_CAN_SMILES>
C1CC2C=CC1C(C2(C#N)C#N)(C#N)C#N

> <PUBCHEM_OPENEYE_ISO_SMILES>
C1CC2C=CC1C(C2(C#N)C#N)(C#N)C#N

> <PUBCHEM_CACTVS_TPSA>
95.2

> <PUBCHEM_MONOISOTOPIC_WEIGHT>
208.074896

> <PUBCHEM_TOTAL_CHARGE>
0

> <PUBCHEM_HEAVY_ATOM_COUNT>
16

> <PUBCHEM_ATOM_DEF_STEREO_COUNT>
0

> <PUBCHEM_ATOM_UDEF_STEREO_COUNT>
2

> <PUBCHEM_BOND_DEF_STEREO_COUNT>
0

> <PUBCHEM_BOND_UDEF_STEREO_COUNT>
0

> <PUBCHEM_ISOTOPIC_ATOM_COUNT>
0

> <PUBCHEM_COMPONENT_COUNT>
1

> <PUBCHEM_CACTVS_TAUTO_COUNT>
1

> <PUBCHEM_COORDINATE_TYPE>
1
5
255

> <PUBCHEM_BONDANNOTATIONS>
5  7  3
6  8  3

$$$$

