250820
  -OEChem-07051213062D

 51 54  0     1  0  0  0  0  0999 V2000
    8.5677    1.9472    0.0000 O   0  0  0  0  0  0  0  0  0  0  0  0
    2.5357   -2.3614    0.0000 O   0  0  0  0  0  0  0  0  0  0  0  0
    7.9288    0.6909    0.0000 C   0  0  1  0  0  0  0  0  0  0  0  0
    7.9288   -0.3091    0.0000 C   0  0  2  0  0  0  0  0  0  0  0  0
    7.0628   -0.8091    0.0000 C   0  0  1  0  0  0  0  0  0  0  0  0
    8.8750    0.9956    0.0000 C   0  0  2  0  0  0  0  0  0  0  0  0
    8.8750   -0.6138    0.0000 C   0  0  0  0  0  0  0  0  0  0  0  0
    7.0628    1.1909    0.0000 C   0  0  0  0  0  0  0  0  0  0  0  0
    6.1968   -0.3091    0.0000 C   0  0  2  0  0  0  0  0  0  0  0  0
    9.4586    0.1909    0.0000 C   0  0  0  0  0  0  0  0  0  0  0  0
    6.1968    0.6909    0.0000 C   0  0  0  0  0  0  0  0  0  0  0  0
    7.0789   -1.8506    0.0000 C   0  0  0  0  0  0  0  0  0  0  0  0
    7.9288    1.6909    0.0000 C   0  0  0  0  0  0  0  0  0  0  0  0
    9.6851    1.5820    0.0000 C   0  0  0  0  0  0  0  0  0  0  0  0
    5.2868   -0.8159    0.0000 C   0  0  0  0  0  0  0  0  0  0  0  0
    6.1808   -2.3784    0.0000 C   0  0  0  0  0  0  0  0  0  0  0  0
    5.2787   -1.8575    0.0000 C   0  0  0  0  0  0  0  0  0  0  0  0
   10.5979    1.1737    0.0000 C   0  0  0  0  0  0  0  0  0  0  0  0
    4.3599   -0.2519    0.0000 C   0  0  0  0  0  0  0  0  0  0  0  0
    4.3433   -2.4073    0.0000 C   0  0  0  0  0  0  0  0  0  0  0  0
    3.4120   -0.7798    0.0000 C   0  0  0  0  0  0  0  0  0  0  0  0
    3.4037   -1.8648    0.0000 C   0  0  0  0  0  0  0  0  0  0  0  0
   11.4079    1.7601    0.0000 C   0  0  0  0  0  0  0  0  0  0  0  0
    8.0188   -1.1543    0.0000 H   0  0  0  0  0  0  0  0  0  0  0  0
    7.8022   -1.2284    0.0000 H   0  0  0  0  0  0  0  0  0  0  0  0
    8.6240   -1.1807    0.0000 H   0  0  0  0  0  0  0  0  0  0  0  0
    9.4124   -0.9230    0.0000 H   0  0  0  0  0  0  0  0  0  0  0  0
    7.4613    1.6659    0.0000 H   0  0  0  0  0  0  0  0  0  0  0  0
    6.6643    1.6659    0.0000 H   0  0  0  0  0  0  0  0  0  0  0  0
    6.9329    0.1159    0.0000 H   0  0  0  0  0  0  0  0  0  0  0  0
    9.9195   -0.2238    0.0000 H   0  0  0  0  0  0  0  0  0  0  0  0
    9.9195    0.6056    0.0000 H   0  0  0  0  0  0  0  0  0  0  0  0
    5.9847    1.2735    0.0000 H   0  0  0  0  0  0  0  0  0  0  0  0
    5.5862    0.5832    0.0000 H   0  0  0  0  0  0  0  0  0  0  0  0
    7.2969   -2.4310    0.0000 H   0  0  0  0  0  0  0  0  0  0  0  0
    7.6880   -1.7351    0.0000 H   0  0  0  0  0  0  0  0  0  0  0  0
    8.5488    1.6909    0.0000 H   0  0  0  0  0  0  0  0  0  0  0  0
    7.9288    2.3109    0.0000 H   0  0  0  0  0  0  0  0  0  0  0  0
    7.3088    1.6909    0.0000 H   0  0  0  0  0  0  0  0  0  0  0  0
   10.0327    2.0954    0.0000 H   0  0  0  0  0  0  0  0  0  0  0  0
    9.2398    2.0135    0.0000 H   0  0  0  0  0  0  0  0  0  0  0  0
    5.7835   -2.8543    0.0000 H   0  0  0  0  0  0  0  0  0  0  0  0
    6.5818   -2.8512    0.0000 H   0  0  0  0  0  0  0  0  0  0  0  0
    8.9833    2.4073    0.0000 H   0  0  0  0  0  0  0  0  0  0  0  0
   10.6617    0.5570    0.0000 H   0  0  0  0  0  0  0  0  0  0  0  0
    4.3719    0.3680    0.0000 H   0  0  0  0  0  0  0  0  0  0  0  0
    4.3457   -3.0273    0.0000 H   0  0  0  0  0  0  0  0  0  0  0  0
    2.8787   -0.4636    0.0000 H   0  0  0  0  0  0  0  0  0  0  0  0
   11.9739    1.5069    0.0000 H   0  0  0  0  0  0  0  0  0  0  0  0
   11.3442    2.3768    0.0000 H   0  0  0  0  0  0  0  0  0  0  0  0
    2.0000   -2.0494    0.0000 H   0  0  0  0  0  0  0  0  0  0  0  0
  6  1  1  1  0  0  0
  1 44  1  0  0  0  0
  2 22  1  0  0  0  0
  2 51  1  0  0  0  0
  3  4  1  0  0  0  0
  3  6  1  0  0  0  0
  3  8  1  0  0  0  0
  3 13  1  1  0  0  0
  4  5  1  0  0  0  0
  4  7  1  0  0  0  0
  4 24  1  6  0  0  0
  5  9  1  0  0  0  0
  5 12  1  0  0  0  0
  5 25  1  1  0  0  0
  6 10  1  0  0  0  0
  6 14  1  0  0  0  0
  7 10  1  0  0  0  0
  7 26  1  0  0  0  0
  7 27  1  0  0  0  0
  8 11  1  0  0  0  0
  8 28  1  0  0  0  0
  8 29  1  0  0  0  0
  9 11  1  0  0  0  0
  9 15  1  0  0  0  0
  9 30  1  6  0  0  0
 10 31  1  0  0  0  0
 10 32  1  0  0  0  0
 11 33  1  0  0  0  0
 11 34  1  0  0  0  0
 12 16  1  0  0  0  0
 12 35  1  0  0  0  0
 12 36  1  0  0  0  0
 13 37  1  0  0  0  0
 13 38  1  0  0  0  0
 13 39  1  0  0  0  0
 14 18  1  0  0  0  0
 14 40  1  0  0  0  0
 14 41  1  0  0  0  0
 15 17  2  0  0  0  0
 15 19  1  0  0  0  0
 16 17  1  0  0  0  0
 16 42  1  0  0  0  0
 16 43  1  0  0  0  0
 17 20  1  0  0  0  0
 18 23  2  0  0  0  0
 18 45  1  0  0  0  0
 19 21  2  0  0  0  0
 19 46  1  0  0  0  0
 20 22  2  0  0  0  0
 20 47  1  0  0  0  0
 21 22  1  0  0  0  0
 21 48  1  0  0  0  0
 23 49  1  0  0  0  0
 23 50  1  0  0  0  0
M  END
> <PUBCHEM_COMPOUND_CID>
250820

> <PUBCHEM_COMPOUND_CANONICALIZED>
1

> <PUBCHEM_CACTVS_COMPLEXITY>
475

> <PUBCHEM_CACTVS_HBOND_ACCEPTOR>
2

> <PUBCHEM_CACTVS_HBOND_DONOR>
2

> <PUBCHEM_CACTVS_ROTATABLE_BOND>
2

> <PUBCHEM_CACTVS_SUBSKEYS>
AAADceB4MAAAAAAAAAAAAAAAAAAAAYAAAAAwYMAAAAAAAGDBAAAAGgAACAAAD0SAmAAyBoAAAgCAAiBCAAACAAAgIAAIiAAGCIgIJiKCERKAcAAkwBEImAeAwPAPoAABAAAQAADAAAYAACAAAYAADAAAAA==

> <PUBCHEM_IUPAC_OPENEYE_NAME>
(8R,9S,13S,14S,17R)-17-allyl-13-methyl-7,8,9,11,12,14,15,16-octahydro-6H-cyclopenta[a]phenanthrene-3,17-diol

> <PUBCHEM_IUPAC_CAS_NAME>
(8R,9S,13S,14S,17R)-13-methyl-17-prop-2-enyl-7,8,9,11,12,14,15,16-octahydro-6H-cyclopenta[a]phenanthrene-3,17-diol

> <PUBCHEM_IUPAC_NAME>
(8R,9S,13S,14S,17R)-13-methyl-17-prop-2-enyl-7,8,9,11,12,14,15,16-octahydro-6H-cyclopenta[a]phenanthrene-3,17-diol

> <PUBCHEM_IUPAC_SYSTEMATIC_NAME>
(8R,9S,13S,14S,17R)-13-methyl-17-prop-2-enyl-7,8,9,11,12,14,15,16-octahydro-6H-cyclopenta[a]phenanthrene-3,17-diol

> <PUBCHEM_IUPAC_TRADITIONAL_NAME>
(8R,9S,13S,14S,17R)-17-allyl-13-methyl-7,8,9,11,12,14,15,16-octahydro-6H-cyclopenta[a]phenanthrene-3,17-diol

> <PUBCHEM_IUPAC_INCHI>
InChI=1S/C21H28O2/c1-3-10-21(23)12-9-19-18-6-4-14-13-15(22)5-7-16(14)17(18)8-11-20(19,21)2/h3,5,7,13,17-19,22-23H,1,4,6,8-12H2,2H3/t17-,18-,19+,20+,21+/m1/s1

> <PUBCHEM_IUPAC_INCHIKEY>
XEKBJRSLNPZRAN-MJCUULBUSA-N

> <PUBCHEM_XLOGP3>
4.9

> <PUBCHEM_EXACT_MASS>
312.20893

> <PUBCHEM_MOLECULAR_FORMULA>
C21H28O2

> <PUBCHEM_MOLECULAR_WEIGHT>
312.44582

> <PUBCHEM_OPENEYE_CAN_SMILES>
CC12CCC3C(C1CCC2(CC=C)O)CCC4=C3C=CC(=C4)O

> <PUBCHEM_OPENEYE_ISO_SMILES>
C[C@]12CC[C@H]3[C@H]([C@@H]1CC[C@]2(CC=C)O)CCC4=C3C=CC(=C4)O

> <PUBCHEM_CACTVS_TPSA>
40.5

> <PUBCHEM_MONOISOTOPIC_WEIGHT>
312.20893

> <PUBCHEM_TOTAL_CHARGE>
0

> <PUBCHEM_HEAVY_ATOM_COUNT>
23

> <PUBCHEM_ATOM_DEF_STEREO_COUNT>
5

> <PUBCHEM_ATOM_UDEF_STEREO_COUNT>
0

> <PUBCHEM_BOND_DEF_STEREO_COUNT>
0

> <PUBCHEM_BOND_UDEF_STEREO_COUNT>
0

> <PUBCHEM_ISOTOPIC_ATOM_COUNT>
0

> <PUBCHEM_COMPONENT_COUNT>
1

> <PUBCHEM_CACTVS_TAUTO_COUNT>
9

> <PUBCHEM_COORDINATE_TYPE>
1
5
255

> <PUBCHEM_BONDANNOTATIONS>
6  1  5
15  17  8
15  19  8
17  20  8
19  21  8
20  22  8
21  22  8
3  13  5
4  24  6
5  25  5
9  30  6

$$$$

