441790
  -OEChem-07051212562D

 68 72  0     1  0  0  0  0  0999 V2000
    8.3867    0.9165    0.0000 O   0  0  0  0  0  0  0  0  0  0  0  0
    7.2181   -1.9492    0.0000 O   0  0  0  0  0  0  0  0  0  0  0  0
    9.4661    1.9861    0.0000 O   0  0  0  0  0  0  0  0  0  0  0  0
    8.1001    2.6201    0.0000 O   0  0  0  0  0  0  0  0  0  0  0  0
    5.4639    0.1232    0.0000 O   0  0  0  0  0  0  0  0  0  0  0  0
   10.7504    1.2050    0.0000 O   0  0  0  0  0  0  0  0  0  0  0  0
    5.4481   -1.9250    0.0000 O   0  0  0  0  0  0  0  0  0  0  0  0
   12.5852    0.2208    0.0000 O   0  0  0  0  0  0  0  0  0  0  0  0
    4.5806   -1.3667    0.0000 O   0  0  0  0  0  0  0  0  0  0  0  0
    8.1001   -0.3799    0.0000 C   0  0  2  0  0  0  0  0  0  0  0  0
    8.9661    0.1201    0.0000 C   0  0  1  0  0  0  0  0  0  0  0  0
    9.8759   -0.3679    0.0000 C   0  0  2  0  0  0  0  0  0  0  0  0
    7.2341    0.1201    0.0000 C   0  0  2  0  0  0  0  0  0  0  0  0
    8.9661    1.1201    0.0000 C   0  0  2  0  0  0  0  0  0  0  0  0
    8.1161   -1.4214    0.0000 C   0  0  1  0  0  0  0  0  0  0  0  0
    9.9002   -1.4000    0.0000 C   0  0  1  0  0  0  0  0  0  0  0  0
    7.2341    1.1201    0.0000 C   0  0  2  0  0  0  0  0  0  0  0  0
    7.9867    0.2237    0.0000 C   0  0  0  0  0  0  0  0  0  0  0  0
    8.1001    1.6201    0.0000 C   0  0  1  0  0  0  0  0  0  0  0  0
    9.0144   -1.9303    0.0000 C   0  0  0  0  0  0  0  0  0  0  0  0
    6.3241   -0.3868    0.0000 C   0  0  2  0  0  0  0  0  0  0  0  0
   10.7855    0.2056    0.0000 C   0  0  1  0  0  0  0  0  0  0  0  0
    9.8524    0.6318    0.0000 C   0  0  0  0  0  0  0  0  0  0  0  0
   10.8358   -1.9302    0.0000 C   0  0  0  0  0  0  0  0  0  0  0  0
    6.3680    1.6201    0.0000 C   0  0  0  0  0  0  0  0  0  0  0  0
    6.3160   -1.4284    0.0000 C   0  0  0  0  0  0  0  0  0  0  0  0
   11.7332   -0.3027    0.0000 C   0  0  0  0  0  0  0  0  0  0  0  0
   11.7585   -1.3778    0.0000 C   0  0  0  0  0  0  0  0  0  0  0  0
   10.8478   -2.9301    0.0000 C   0  0  0  0  0  0  0  0  0  0  0  0
    4.5921   -0.3667    0.0000 C   0  0  0  0  0  0  0  0  0  0  0  0
    3.7319    0.1432    0.0000 C   0  0  0  0  0  0  0  0  0  0  0  0
    2.8602   -0.3467    0.0000 C   0  0  0  0  0  0  0  0  0  0  0  0
    2.0000    0.1633    0.0000 C   0  0  0  0  0  0  0  0  0  0  0  0
    2.8486   -1.3466    0.0000 C   0  0  0  0  0  0  0  0  0  0  0  0
    9.3911   -0.6160    0.0000 H   0  0  0  0  0  0  0  0  0  0  0  0
    6.4979    0.5451    0.0000 H   0  0  0  0  0  0  0  0  0  0  0  0
    8.1229   -2.2714    0.0000 H   0  0  0  0  0  0  0  0  0  0  0  0
    9.9104   -2.2500    0.0000 H   0  0  0  0  0  0  0  0  0  0  0  0
    7.2341    1.7401    0.0000 H   0  0  0  0  0  0  0  0  0  0  0  0
    7.5595    0.6731    0.0000 H   0  0  0  0  0  0  0  0  0  0  0  0
    7.4347   -0.0587    0.0000 H   0  0  0  0  0  0  0  0  0  0  0  0
    7.5632    1.9301    0.0000 H   0  0  0  0  0  0  0  0  0  0  0  0
    8.6210   -2.4095    0.0000 H   0  0  0  0  0  0  0  0  0  0  0  0
    9.4192   -2.4000    0.0000 H   0  0  0  0  0  0  0  0  0  0  0  0
    5.7842   -0.6916    0.0000 H   0  0  0  0  0  0  0  0  0  0  0  0
   11.3119    0.5333    0.0000 H   0  0  0  0  0  0  0  0  0  0  0  0
   10.4722    0.6464    0.0000 H   0  0  0  0  0  0  0  0  0  0  0  0
    9.8378    1.2516    0.0000 H   0  0  0  0  0  0  0  0  0  0  0  0
    9.2325    0.6172    0.0000 H   0  0  0  0  0  0  0  0  0  0  0  0
    6.6780    2.1570    0.0000 H   0  0  0  0  0  0  0  0  0  0  0  0
    5.8311    1.9301    0.0000 H   0  0  0  0  0  0  0  0  0  0  0  0
    6.0580    1.0831    0.0000 H   0  0  0  0  0  0  0  0  0  0  0  0
    9.1561    2.5230    0.0000 H   0  0  0  0  0  0  0  0  0  0  0  0
    7.5632    2.9301    0.0000 H   0  0  0  0  0  0  0  0  0  0  0  0
   12.3015   -1.6772    0.0000 H   0  0  0  0  0  0  0  0  0  0  0  0
   11.2762    1.5337    0.0000 H   0  0  0  0  0  0  0  0  0  0  0  0
   10.2279   -2.9375    0.0000 H   0  0  0  0  0  0  0  0  0  0  0  0
   10.8553   -3.5500    0.0000 H   0  0  0  0  0  0  0  0  0  0  0  0
   11.4678   -2.9226    0.0000 H   0  0  0  0  0  0  0  0  0  0  0  0
    4.1359    0.6136    0.0000 H   0  0  0  0  0  0  0  0  0  0  0  0
    3.3389    0.6228    0.0000 H   0  0  0  0  0  0  0  0  0  0  0  0
    3.3935   -0.6629    0.0000 H   0  0  0  0  0  0  0  0  0  0  0  0
    2.3162    0.6966    0.0000 H   0  0  0  0  0  0  0  0  0  0  0  0
    1.4667    0.4795    0.0000 H   0  0  0  0  0  0  0  0  0  0  0  0
    1.6838   -0.3700    0.0000 H   0  0  0  0  0  0  0  0  0  0  0  0
    2.2287   -1.3395    0.0000 H   0  0  0  0  0  0  0  0  0  0  0  0
    2.8414   -1.9666    0.0000 H   0  0  0  0  0  0  0  0  0  0  0  0
    3.4686   -1.3538    0.0000 H   0  0  0  0  0  0  0  0  0  0  0  0
  1 14  1  0  0  0  0
  1 18  1  0  0  0  0
  2 15  1  0  0  0  0
  2 26  1  0  0  0  0
 14  3  1  6  0  0  0
  3 53  1  0  0  0  0
 19  4  1  1  0  0  0
  4 54  1  0  0  0  0
 21  5  1  6  0  0  0
  5 30  1  0  0  0  0
 22  6  1  6  0  0  0
  6 56  1  0  0  0  0
  7 26  2  0  0  0  0
  8 27  2  0  0  0  0
  9 30  2  0  0  0  0
 10 11  1  0  0  0  0
 10 13  1  0  0  0  0
 10 15  1  0  0  0  0
 10 18  1  6  0  0  0
 11 12  1  0  0  0  0
 11 14  1  0  0  0  0
 11 35  1  1  0  0  0
 12 16  1  0  0  0  0
 12 22  1  0  0  0  0
 12 23  1  6  0  0  0
 13 17  1  0  0  0  0
 13 21  1  0  0  0  0
 13 36  1  6  0  0  0
 14 19  1  0  0  0  0
 15 20  1  0  0  0  0
 15 37  1  6  0  0  0
 16 20  1  0  0  0  0
 16 24  1  0  0  0  0
 16 38  1  1  0  0  0
 17 19  1  0  0  0  0
 17 25  1  1  0  0  0
 17 39  1  0  0  0  0
 18 40  1  0  0  0  0
 18 41  1  0  0  0  0
 19 42  1  0  0  0  0
 20 43  1  0  0  0  0
 20 44  1  0  0  0  0
 21 26  1  0  0  0  0
 21 45  1  0  0  0  0
 22 27  1  0  0  0  0
 22 46  1  0  0  0  0
 23 47  1  0  0  0  0
 23 48  1  0  0  0  0
 23 49  1  0  0  0  0
 24 28  2  0  0  0  0
 24 29  1  0  0  0  0
 25 50  1  0  0  0  0
 25 51  1  0  0  0  0
 25 52  1  0  0  0  0
 27 28  1  0  0  0  0
 28 55  1  0  0  0  0
 29 57  1  0  0  0  0
 29 58  1  0  0  0  0
 29 59  1  0  0  0  0
 30 31  1  0  0  0  0
 31 32  1  0  0  0  0
 31 60  1  0  0  0  0
 31 61  1  0  0  0  0
 32 33  1  0  0  0  0
 32 34  1  0  0  0  0
 32 62  1  0  0  0  0
 33 63  1  0  0  0  0
 33 64  1  0  0  0  0
 33 65  1  0  0  0  0
 34 66  1  0  0  0  0
 34 67  1  0  0  0  0
 34 68  1  0  0  0  0
M  END
> <PUBCHEM_COMPOUND_CID>
441790

> <PUBCHEM_COMPOUND_CANONICALIZED>
1

> <PUBCHEM_CACTVS_COMPLEXITY>
973

> <PUBCHEM_CACTVS_HBOND_ACCEPTOR>
9

> <PUBCHEM_CACTVS_HBOND_DONOR>
3

> <PUBCHEM_CACTVS_ROTATABLE_BOND>
4

> <PUBCHEM_CACTVS_SUBSKEYS>
AAADcfB4PAAAAAAAAAAAAAAAAAAAASAAAAA0YIEABIAAAEiQAAAAGgAACAAADxSggAICCAAABgCIAqDSCAIAAAAgAAAACAFAAEgREBIAAQQCQAAFwAAPAQPI7PzPgAAAAAAAAADAAAYAADCAAAAAAAAAAA==

> <PUBCHEM_IUPAC_INCHI>
InChI=1S/C25H34O9/c1-10(2)6-16(27)34-18-17-12(4)19(28)25(31)22-23(5)13(11(3)7-14(26)20(23)29)8-15(33-21(18)30)24(17,22)9-32-25/h7,10,12-13,15,17-20,22,28-29,31H,6,8-9H2,1-5H3/t12-,13+,15-,17-,18-,19-,20-,22-,23-,24+,25+/m1/s1

> <PUBCHEM_IUPAC_INCHIKEY>
XYGCQTNZODZWCL-RWTXECNMSA-N

> <PUBCHEM_XLOGP3_AA>
0.9

> <PUBCHEM_EXACT_MASS>
478.220283

> <PUBCHEM_MOLECULAR_FORMULA>
C25H34O9

> <PUBCHEM_MOLECULAR_WEIGHT>
478.53206

> <PUBCHEM_OPENEYE_CAN_SMILES>
CC1C2C(C(=O)OC3C24COC(C1O)(C4C5(C(C3)C(=CC(=O)C5O)C)C)O)OC(=O)CC(C)C

> <PUBCHEM_OPENEYE_ISO_SMILES>
C[C@@H]1[C@@H]2[C@H](C(=O)O[C@H]3[C@@]24CO[C@@]([C@@H]1O)([C@@H]4[C@@]5([C@@H](C3)C(=CC(=O)[C@H]5O)C)C)O)OC(=O)CC(C)C

> <PUBCHEM_CACTVS_TPSA>
140

> <PUBCHEM_MONOISOTOPIC_WEIGHT>
478.220283

> <PUBCHEM_TOTAL_CHARGE>
0

> <PUBCHEM_HEAVY_ATOM_COUNT>
34

> <PUBCHEM_ATOM_DEF_STEREO_COUNT>
11

> <PUBCHEM_ATOM_UDEF_STEREO_COUNT>
0

> <PUBCHEM_BOND_DEF_STEREO_COUNT>
0

> <PUBCHEM_BOND_UDEF_STEREO_COUNT>
0

> <PUBCHEM_ISOTOPIC_ATOM_COUNT>
0

> <PUBCHEM_COMPONENT_COUNT>
1

> <PUBCHEM_CACTVS_TAUTO_COUNT>
26

> <PUBCHEM_COORDINATE_TYPE>
1
5
255

> <PUBCHEM_BONDANNOTATIONS>
10  18  6
11  35  5
12  23  6
13  36  6
15  37  6
16  38  5
17  25  5
14  3  6
19  4  5
21  5  6
22  6  6

$$$$

