54676884
  -OEChem-07051213092D

 58 63  0     1  0  0  0  0  0999 V2000
    6.3821    4.7154    0.0000 O   0  0  0  0  0  0  0  0  0  0  0  0
    6.3821    1.7154    0.0000 O   0  0  0  0  0  0  0  0  0  0  0  0
    4.6501    4.7154    0.0000 O   0  0  0  0  0  0  0  0  0  0  0  0
    3.7841    1.2154    0.0000 C   0  0  3  0  0  0  0  0  0  0  0  0
    4.6501    2.7154    0.0000 C   0  0  3  0  0  0  0  0  0  0  0  0
    4.6501    1.7154    0.0000 C   0  0  0  0  0  0  0  0  0  0  0  0
    2.9180    1.7154    0.0000 C   0  0  0  0  0  0  0  0  0  0  0  0
    3.7841    3.2154    0.0000 C   0  0  0  0  0  0  0  0  0  0  0  0
    2.9180    2.7154    0.0000 C   0  0  0  0  0  0  0  0  0  0  0  0
    3.7841    0.2154    0.0000 C   0  0  0  0  0  0  0  0  0  0  0  0
    5.5161    3.2154    0.0000 C   0  0  0  0  0  0  0  0  0  0  0  0
    3.8001    4.2569    0.0000 C   0  0  0  0  0  0  0  0  0  0  0  0
    2.0080    3.2222    0.0000 C   0  0  0  0  0  0  0  0  0  0  0  0
    6.3821    2.7154    0.0000 C   0  0  0  0  0  0  0  0  0  0  0  0
    4.6501   -0.2846    0.0000 C   0  0  0  0  0  0  0  0  0  0  0  0
    2.9180   -0.2846    0.0000 C   0  0  0  0  0  0  0  0  0  0  0  0
    5.5161    4.2154    0.0000 C   0  0  0  0  0  0  0  0  0  0  0  0
    2.9021    4.7846    0.0000 C   0  0  0  0  0  0  0  0  0  0  0  0
    2.0000    4.2638    0.0000 C   0  0  0  0  0  0  0  0  0  0  0  0
    7.2482    3.2154    0.0000 C   0  0  0  0  0  0  0  0  0  0  0  0
    4.6501   -1.2846    0.0000 C   0  0  0  0  0  0  0  0  0  0  0  0
    2.9180   -1.2846    0.0000 C   0  0  0  0  0  0  0  0  0  0  0  0
    3.7841   -1.7846    0.0000 C   0  0  0  0  0  0  0  0  0  0  0  0
    7.2482    4.2154    0.0000 C   0  0  0  0  0  0  0  0  0  0  0  0
    8.1421    2.6807    0.0000 C   0  0  0  0  0  0  0  0  0  0  0  0
    3.7841   -2.7846    0.0000 C   0  0  0  0  0  0  0  0  0  0  0  0
    8.1421    4.7500    0.0000 C   0  0  0  0  0  0  0  0  0  0  0  0
    9.0482    3.1946    0.0000 C   0  0  0  0  0  0  0  0  0  0  0  0
    9.0482    4.2362    0.0000 C   0  0  0  0  0  0  0  0  0  0  0  0
    2.9180   -3.2846    0.0000 C   0  0  0  0  0  0  0  0  0  0  0  0
    4.6501   -3.2846    0.0000 C   0  0  0  0  0  0  0  0  0  0  0  0
    2.9180   -4.2846    0.0000 C   0  0  0  0  0  0  0  0  0  0  0  0
    4.6501   -4.2846    0.0000 C   0  0  0  0  0  0  0  0  0  0  0  0
    3.7841   -4.7846    0.0000 C   0  0  0  0  0  0  0  0  0  0  0  0
    3.2471    0.9054    0.0000 H   0  0  0  0  0  0  0  0  0  0  0  0
    5.1870    2.4054    0.0000 H   0  0  0  0  0  0  0  0  0  0  0  0
    4.8621    1.1328    0.0000 H   0  0  0  0  0  0  0  0  0  0  0  0
    5.2607    1.8230    0.0000 H   0  0  0  0  0  0  0  0  0  0  0  0
    2.3074    1.8230    0.0000 H   0  0  0  0  0  0  0  0  0  0  0  0
    2.7060    1.1328    0.0000 H   0  0  0  0  0  0  0  0  0  0  0  0
    4.3406    4.5606    0.0000 H   0  0  0  0  0  0  0  0  0  0  0  0
    1.4747    2.9060    0.0000 H   0  0  0  0  0  0  0  0  0  0  0  0
    5.1870    0.0254    0.0000 H   0  0  0  0  0  0  0  0  0  0  0  0
    2.3811    0.0254    0.0000 H   0  0  0  0  0  0  0  0  0  0  0  0
    2.9045    5.4046    0.0000 H   0  0  0  0  0  0  0  0  0  0  0  0
    1.4619    4.5717    0.0000 H   0  0  0  0  0  0  0  0  0  0  0  0
    5.1870   -1.5946    0.0000 H   0  0  0  0  0  0  0  0  0  0  0  0
    2.3811   -1.5946    0.0000 H   0  0  0  0  0  0  0  0  0  0  0  0
    8.1349    2.0608    0.0000 H   0  0  0  0  0  0  0  0  0  0  0  0
    6.9191    1.4054    0.0000 H   0  0  0  0  0  0  0  0  0  0  0  0
    8.1349    5.3700    0.0000 H   0  0  0  0  0  0  0  0  0  0  0  0
    9.5839    2.8825    0.0000 H   0  0  0  0  0  0  0  0  0  0  0  0
    9.5839    4.5482    0.0000 H   0  0  0  0  0  0  0  0  0  0  0  0
    2.3811   -2.9746    0.0000 H   0  0  0  0  0  0  0  0  0  0  0  0
    5.1870   -2.9746    0.0000 H   0  0  0  0  0  0  0  0  0  0  0  0
    2.3811   -4.5946    0.0000 H   0  0  0  0  0  0  0  0  0  0  0  0
    5.1870   -4.5946    0.0000 H   0  0  0  0  0  0  0  0  0  0  0  0
    3.7841   -5.4046    0.0000 H   0  0  0  0  0  0  0  0  0  0  0  0
  1 17  1  0  0  0  0
  1 24  1  0  0  0  0
  2 14  1  0  0  0  0
  2 50  1  0  0  0  0
  3 17  2  0  0  0  0
  4  6  1  0  0  0  0
  4  7  1  0  0  0  0
  4 10  1  0  0  0  0
  4 35  1  0  0  0  0
  5  6  1  0  0  0  0
  5  8  1  0  0  0  0
  5 11  1  0  0  0  0
  5 36  1  0  0  0  0
  6 37  1  0  0  0  0
  6 38  1  0  0  0  0
  7  9  1  0  0  0  0
  7 39  1  0  0  0  0
  7 40  1  0  0  0  0
  8  9  1  0  0  0  0
  8 12  2  0  0  0  0
  9 13  2  0  0  0  0
 10 15  2  0  0  0  0
 10 16  1  0  0  0  0
 11 14  2  0  0  0  0
 11 17  1  0  0  0  0
 12 18  1  0  0  0  0
 12 41  1  0  0  0  0
 13 19  1  0  0  0  0
 13 42  1  0  0  0  0
 14 20  1  0  0  0  0
 15 21  1  0  0  0  0
 15 43  1  0  0  0  0
 16 22  2  0  0  0  0
 16 44  1  0  0  0  0
 18 19  2  0  0  0  0
 18 45  1  0  0  0  0
 19 46  1  0  0  0  0
 20 24  1  0  0  0  0
 20 25  2  0  0  0  0
 21 23  2  0  0  0  0
 21 47  1  0  0  0  0
 22 23  1  0  0  0  0
 22 48  1  0  0  0  0
 23 26  1  0  0  0  0
 24 27  2  0  0  0  0
 25 28  1  0  0  0  0
 25 49  1  0  0  0  0
 26 30  2  0  0  0  0
 26 31  1  0  0  0  0
 27 29  1  0  0  0  0
 27 51  1  0  0  0  0
 28 29  2  0  0  0  0
 28 52  1  0  0  0  0
 29 53  1  0  0  0  0
 30 32  1  0  0  0  0
 30 54  1  0  0  0  0
 31 33  2  0  0  0  0
 31 55  1  0  0  0  0
 32 34  2  0  0  0  0
 32 56  1  0  0  0  0
 33 34  1  0  0  0  0
 33 57  1  0  0  0  0
 34 58  1  0  0  0  0
M  END
> <PUBCHEM_COMPOUND_CID>
54676884

> <PUBCHEM_COMPOUND_CANONICALIZED>
1

> <PUBCHEM_CACTVS_COMPLEXITY>
757

> <PUBCHEM_CACTVS_HBOND_ACCEPTOR>
3

> <PUBCHEM_CACTVS_HBOND_DONOR>
1

> <PUBCHEM_CACTVS_ROTATABLE_BOND>
3

> <PUBCHEM_CACTVS_SUBSKEYS>
AAADceB4MAAAAAAAAAAAAAAAAAAAAAAAAAAwYMGDAAAAAADBVAAAGgAACAAADQSAmAAwDoAABgCIAiDSCAACCAAgIAAIiAEGCMgMJzKEMRqCeiClwBEIuQeIyPCOwAAAAAAYAACAAAQAADAAAAAAAAAAAA==

> <PUBCHEM_IUPAC_OPENEYE_NAME>
4-hydroxy-3-[3-(4-phenylphenyl)tetralin-1-yl]chromen-2-one

> <PUBCHEM_IUPAC_CAS_NAME>
4-hydroxy-3-[3-(4-phenylphenyl)-1,2,3,4-tetrahydronaphthalen-1-yl]-1-benzopyran-2-one

> <PUBCHEM_IUPAC_NAME>
4-hydroxy-3-[3-(4-phenylphenyl)-1,2,3,4-tetrahydronaphthalen-1-yl]chromen-2-one

> <PUBCHEM_IUPAC_SYSTEMATIC_NAME>
4-oxidanyl-3-[3-(4-phenylphenyl)-1,2,3,4-tetrahydronaphthalen-1-yl]chromen-2-one

> <PUBCHEM_IUPAC_TRADITIONAL_NAME>
4-hydroxy-3-[3-(4-phenylphenyl)tetralin-1-yl]coumarin

> <PUBCHEM_IUPAC_INCHI>
InChI=1S/C31H24O3/c32-30-26-12-6-7-13-28(26)34-31(33)29(30)27-19-24(18-23-10-4-5-11-25(23)27)22-16-14-21(15-17-22)20-8-2-1-3-9-20/h1-17,24,27,32H,18-19H2

> <PUBCHEM_IUPAC_INCHIKEY>
FVQITOLOYMWVFU-UHFFFAOYSA-N

> <PUBCHEM_XLOGP3_AA>
6.9

> <PUBCHEM_EXACT_MASS>
444.172545

> <PUBCHEM_MOLECULAR_FORMULA>
C31H24O3

> <PUBCHEM_MOLECULAR_WEIGHT>
444.52046

> <PUBCHEM_OPENEYE_CAN_SMILES>
C1C(CC2=CC=CC=C2C1C3=C(C4=CC=CC=C4OC3=O)O)C5=CC=C(C=C5)C6=CC=CC=C6

> <PUBCHEM_OPENEYE_ISO_SMILES>
C1C(CC2=CC=CC=C2C1C3=C(C4=CC=CC=C4OC3=O)O)C5=CC=C(C=C5)C6=CC=CC=C6

> <PUBCHEM_CACTVS_TPSA>
46.5

> <PUBCHEM_MONOISOTOPIC_WEIGHT>
444.172545

> <PUBCHEM_TOTAL_CHARGE>
0

> <PUBCHEM_HEAVY_ATOM_COUNT>
34

> <PUBCHEM_ATOM_DEF_STEREO_COUNT>
0

> <PUBCHEM_ATOM_UDEF_STEREO_COUNT>
2

> <PUBCHEM_BOND_DEF_STEREO_COUNT>
0

> <PUBCHEM_BOND_UDEF_STEREO_COUNT>
0

> <PUBCHEM_ISOTOPIC_ATOM_COUNT>
0

> <PUBCHEM_COMPONENT_COUNT>
1

> <PUBCHEM_CACTVS_TAUTO_COUNT>
3

> <PUBCHEM_COORDINATE_TYPE>
1
5
255

> <PUBCHEM_BONDANNOTATIONS>
1  17  8
1  24  8
10  15  8
10  16  8
11  14  8
11  17  8
12  18  8
13  19  8
14  20  8
15  21  8
16  22  8
18  19  8
20  24  8
20  25  8
21  23  8
22  23  8
24  27  8
25  28  8
26  30  8
26  31  8
27  29  8
28  29  8
30  32  8
31  33  8
32  34  8
33  34  8
4  10  3
5  11  3
8  12  8
8  9  8
9  13  8

$$$$

