   Color/Form

     * Oily liquid
     * Colorless liquid

   from [1]HSDB

   Odor

     * Unpleasant, rancid odor
     * Penetrating and obnoxious odor

   from [2]HSDB

   Taste
        Butter-fat taste
   from [3]HSDB

   Boiling Point
        163.5 deg C
   from [4]HSDB

   Melting Point
        -7.9 deg C
   from [5]HSDB

   Corrosivity
        Corrosive material
   from [6]HSDB

   Critical Temperature and Pressure
        Critical temperature = 342.05 deg C; critical pressure = 4.06 MPa
   from [7]HSDB

   Density/Specific Gravity
        0.959 at 20 deg C/4 deg C
   from [8]HSDB

   Dissociation Constants
        pKa = 4.82 at 25 deg C
   from [9]HSDB

   Heat of Combustion
        521.87 kg cal/gm at 25 deg C
   from [10]HSDB

   Heat of Vaporization
        40.45 kJ/mol at 25 deg C
   from [11]HSDB

   Octanol/Water Partition Coefficient
        log Kow= 0.79
   from [12]HSDB

   Solubilities

     * Miscible with ethanol, ether; slightly soluble in carbon
       tetrachloride
     * In water, 6.00X10+4 mg/L at 25 deg C

   from [13]HSDB

   Spectral Properties

     * Index of refraction: 1.3991 at 20 deg C/D
     * SADTLER REF NUMBER: 125 (IR, PRISM); 37 (IR, GRATING); MAX
       ABSORPTION (WATER): 208 NM (LOG E= 1.8), 270 (IR, PRISM); 37 (IR,
       GRATING); MAX ABSORPTION (WATER): 208 NM (LOG E= 1.8), 270 NM
       (SHOULDER) (LOG E= -0.8)
     * IR: 4820 (Coblentz Society Spectral Collection)
     * UV: 2-21 (Philip et al, Organic Electronic Spectral Data, John
       Wiley & Sons, New York)
     * 1H NMR: 7312 (Sadtler Research Laboratories Spectral Collection)
     * MASS: 49308 (NIST/EPA/MSDC Mass Spectral Database 1990 version)

   from [14]HSDB

   Surface Tension
        26.05 mN/m at 25 deg C
   from [15]HSDB

   Vapor Density
        3.04 (Air= 1)
   from [16]HSDB

   Vapor Pressure
        1.65 mm Hg at 25 deg C
   from [17]HSDB

   Viscosity
        1.426 mPa-s at 25 deg C
   from [18]HSDB

   Other Chemical/Physical Properties

     * Heat capacity = 178.6 J/mol-K at 25 deg C. Heat capacity = 178.6
       J/mol-K at 25 deg C
     * Critical molar volume = 292 cu cm/mol
     * Heat of fusion = 11.59 kJ/mol
     * Dielectric constant = 2.98 at 14 deg C
     * Saturation concentration in air = 2.9 g/cu m at 20 deg C; 5.6 g/cu
       m at 30 deg C
     * Neutralization value = 636.79
     * Heat of Solution: -82 btu/lb= -45 cal/g= -1.9X10+5 j/kg; Heat of
       fusion: 30.04 cal/g
     * Henry's Law constant = 5.35X10-7 atm-cu m/mol at 25 deg C
     * Hydroxyl radical reaction rate constant = 2.40X10-12 cu
       cm/molec-sec at 25 deg C

   from [19]HSDB

   Computed Properties
   Molecular Weight                  88.10512 [g/mol]
   Molecular Formula                 C[4]H[8]O[2]
   XLogP3                            0.8
   H-Bond Donor                      1
   H-Bond Acceptor                   2
   Rotatable Bond Count              2
   Exact Mass                        88.052429
   MonoIsotopic Mass                 88.052429
   Topological Polar Surface Area    37.3
   Heavy Atom Count                  6
   Formal Charge                     0
   Complexity                        49.5
   Isotope Atom Count                0
   Defined Atom Stereocenter Count   0
   Undefined Atom Stereocenter Count 0
   Defined Bond Stereocenter Count   0
   Undefined Bond Stereocenter Count 0
   Covalently-Bonded Unit Count      1
   Feature 3D Acceptor Count         2
   Feature 3D Anion Count            1
   Feature 3D Hydrophobe Count       1
   Effective Rotor Count             2
   Conformer Sampling RMSD           0.4
   CID Conformer Count               [20]8

References

   1. http://toxnet.nlm.nih.gov/cgi-bin/sis/search/r?dbs+hsdb:@term+@rn+@rel+107-92-6
   2. http://toxnet.nlm.nih.gov/cgi-bin/sis/search/r?dbs+hsdb:@term+@rn+@rel+107-92-6
   3. http://toxnet.nlm.nih.gov/cgi-bin/sis/search/r?dbs+hsdb:@term+@rn+@rel+107-92-6
   4. http://toxnet.nlm.nih.gov/cgi-bin/sis/search/r?dbs+hsdb:@term+@rn+@rel+107-92-6
   5. http://toxnet.nlm.nih.gov/cgi-bin/sis/search/r?dbs+hsdb:@term+@rn+@rel+107-92-6
   6. http://toxnet.nlm.nih.gov/cgi-bin/sis/search/r?dbs+hsdb:@term+@rn+@rel+107-92-6
   7. http://toxnet.nlm.nih.gov/cgi-bin/sis/search/r?dbs+hsdb:@term+@rn+@rel+107-92-6
   8. http://toxnet.nlm.nih.gov/cgi-bin/sis/search/r?dbs+hsdb:@term+@rn+@rel+107-92-6
   9. http://toxnet.nlm.nih.gov/cgi-bin/sis/search/r?dbs+hsdb:@term+@rn+@rel+107-92-6
  10. http://toxnet.nlm.nih.gov/cgi-bin/sis/search/r?dbs+hsdb:@term+@rn+@rel+107-92-6
  11. http://toxnet.nlm.nih.gov/cgi-bin/sis/search/r?dbs+hsdb:@term+@rn+@rel+107-92-6
  12. http://toxnet.nlm.nih.gov/cgi-bin/sis/search/r?dbs+hsdb:@term+@rn+@rel+107-92-6
  13. http://toxnet.nlm.nih.gov/cgi-bin/sis/search/r?dbs+hsdb:@term+@rn+@rel+107-92-6
  14. http://toxnet.nlm.nih.gov/cgi-bin/sis/search/r?dbs+hsdb:@term+@rn+@rel+107-92-6
  15. http://toxnet.nlm.nih.gov/cgi-bin/sis/search/r?dbs+hsdb:@term+@rn+@rel+107-92-6
  16. http://toxnet.nlm.nih.gov/cgi-bin/sis/search/r?dbs+hsdb:@term+@rn+@rel+107-92-6
  17. http://toxnet.nlm.nih.gov/cgi-bin/sis/search/r?dbs+hsdb:@term+@rn+@rel+107-92-6
  18. http://toxnet.nlm.nih.gov/cgi-bin/sis/search/r?dbs+hsdb:@term+@rn+@rel+107-92-6
  19. http://toxnet.nlm.nih.gov/cgi-bin/sis/search/r?dbs+hsdb:@term+@rn+@rel+107-92-6
  20. http://pubchem.ncbi.nlm.nih.gov/vw3d/vw3d.cgi?cid=264
