   Chemical and Physical Properties References

   [1]USDA ARS - USDA chemical properties
   from [2]ChemIDplus

   Color/Form

     * Yellowish crystals
     * Crystals from methanol
     * Colorless crystals or a brown, waxy solid.
     * Colorless to white crystalline solid

   from [3]HSDB

   Odor
        Odorless
   from [4]HSDB

   Melting Point
        72-74 deg C
   from [5]HSDB

   Corrosivity
        Non-corrosive
   from [6]HSDB

   Density/Specific Gravity
        1.44 @ 20 deg C/4 deg C
   from [7]HSDB

   Heat of Combustion
        -8,600 Btu/lb= -4,800 cal/g= -200X10+5 J/k (est)
   from [8]HSDB

   Octanol/Water Partition Coefficient
        log Kow= 2.75
   from [9]HSDB

   Solubilities

     * Soluble in methanol, ethanol, and propylene glycol, ethylene, other
       organic solvents.
     * In dichloroethane, acetone, acetonitrile, ethyl acetate, and
       dimethyl sulfoxide, the solubility is >250 g/l @ 20 deg C;
       n-heptane, 1.2 g/l @ 20 deg C; xylene, 170 g/l @ 20 deg C
     * Readily soluble in most organic solvents (toluene, chloroform,
       acetonitrile, benzene, carbon tetrachloride, and chlorobenzene),
       slightly soluble in 1-propanol.
     * In water, 20.9 mg/liter @ 20 deg C [Bowman BT, Sans WW; J Environ
       Sci Health B18: 221-7 (1983)] [10]PubMed Abstract

   from [11]HSDB

   Spectral Properties

     * Index of refraction = 1.6115 @ 76 deg C/D
     * Intense mass spectral peaks: 132 m/z (100%), 77 m/z (91%), 160 m/z
       (45%), 104 m/z (33%)
     * Intense mass spectral peaks: 93 m/z, 317 m/z

   from [12]HSDB

   Vapor Pressure
        1.6X10-6 mm Hg @ 20 deg C
   from [13]HSDB

   Other Chemical/Physical Properties

     * Recrystallizable from methanol and isopropanol
     * Subject to hydrolysis. Decomposes at elevated temperatures with gas
       evolution.
     * Cream to yellow-brown granular solid, MP: 67-70 deg C /Technical/
     * Solutions in ethanol and propylene glycol are stable for at least 3
       weeks
     * Henry's Law constant = 2.4X10-8 atm-cu m/mol @ 25 deg C /Estimated/
     * Hydroxyl radical reaction rate constant = 1.5X10-10 cu cm/molec-sec
       @ 25 deg C /Estimated/

   from [14]HSDB

   Computed Properties
   Molecular Weight                  317.324342 [g/mol]
   Molecular Formula                 C[10]H[12]N[3]O[3]PS[2]
   XLogP3                            2.8
   H-Bond Donor                      0
   H-Bond Acceptor                   7
   Rotatable Bond Count              5
   Exact Mass                        317.00577
   MonoIsotopic Mass                 317.00577
   Topological Polar Surface Area    121
   Heavy Atom Count                  19
   Formal Charge                     0
   Complexity                        413
   Isotope Atom Count                0
   Defined Atom Stereocenter Count   0
   Undefined Atom Stereocenter Count 0
   Defined Bond Stereocenter Count   0
   Undefined Bond Stereocenter Count 0
   Covalently-Bonded Unit Count      1
   Feature 3D Acceptor Count         1
   Feature 3D Ring Count             2
   Effective Rotor Count             5
   Conformer Sampling RMSD           0.6
   CID Conformer Count               [15]70

References

   1. http://www.ars.usda.gov/SP2UserFiles/ad_hoc/12755100DatabaseFiles/PesticidePropertiesDatabase/IndividualPesticideFiles/AZINPHOS-METHYL.TXT
   2. http://chem.sis.nlm.nih.gov/chemidplus/
   3. http://toxnet.nlm.nih.gov/cgi-bin/sis/search/r?dbs+hsdb:@term+@rn+@rel+86-50-0
   4. http://toxnet.nlm.nih.gov/cgi-bin/sis/search/r?dbs+hsdb:@term+@rn+@rel+86-50-0
   5. http://toxnet.nlm.nih.gov/cgi-bin/sis/search/r?dbs+hsdb:@term+@rn+@rel+86-50-0
   6. http://toxnet.nlm.nih.gov/cgi-bin/sis/search/r?dbs+hsdb:@term+@rn+@rel+86-50-0
   7. http://toxnet.nlm.nih.gov/cgi-bin/sis/search/r?dbs+hsdb:@term+@rn+@rel+86-50-0
   8. http://toxnet.nlm.nih.gov/cgi-bin/sis/search/r?dbs+hsdb:@term+@rn+@rel+86-50-0
   9. http://toxnet.nlm.nih.gov/cgi-bin/sis/search/r?dbs+hsdb:@term+@rn+@rel+86-50-0
  10. http://www.ncbi.nlm.nih.gov/entrez/query.fcgi?cmd=Retrieve&db=pubmed&dopt=Abstract&list_uids=6853964
  11. http://toxnet.nlm.nih.gov/cgi-bin/sis/search/r?dbs+hsdb:@term+@rn+@rel+86-50-0
  12. http://toxnet.nlm.nih.gov/cgi-bin/sis/search/r?dbs+hsdb:@term+@rn+@rel+86-50-0
  13. http://toxnet.nlm.nih.gov/cgi-bin/sis/search/r?dbs+hsdb:@term+@rn+@rel+86-50-0
  14. http://toxnet.nlm.nih.gov/cgi-bin/sis/search/r?dbs+hsdb:@term+@rn+@rel+86-50-0
  15. http://pubchem.ncbi.nlm.nih.gov/vw3d/vw3d.cgi?cid=2268
