   Color/Form

     * Light brown viscous oil
     * Viscous liquid; crystaline or waxy solid
     * Off-white to pale tan waxy solid

   from [1]HSDB

   Odor
        Very faint, slightly sweet odor
   from [2]HSDB

   Melting Point
        69 deg C
   from [3]HSDB

   Corrosivity
        Non-corrosive
   from [4]HSDB

   Density/Specific Gravity
        1.212 g/ml @ 25 deg C/4 deg C
   from [5]HSDB

   Octanol/Water Partition Coefficient
        log Kow = >6.00
   from [6]HSDB

   Solubilities

     * Sol in methylene chloride, chloroform, acetone, ether, toluene;
       slightly sol in heptane, methanol.
     * In water, 0.1 mg/l, temp not specified.

   from [7]HSDB

   Vapor Pressure
        1.80X10-7 mm Hg @ 25 deg C
   from [8]HSDB

   Computed Properties
   Molecular Weight                  422.86779 [g/mol]
   Molecular Formula                 C[23]H[22]ClF[3]O[2]
   XLogP3                            6
   H-Bond Donor                      0
   H-Bond Acceptor                   5
   Rotatable Bond Count              6
   Exact Mass                        422.126042
   MonoIsotopic Mass                 422.126042
   Topological Polar Surface Area    26.3
   Heavy Atom Count                  29
   Formal Charge                     0
   Complexity                        622
   Isotope Atom Count                0
   Defined Atom Stereocenter Count   0
   Undefined Atom Stereocenter Count 2
   Defined Bond Stereocenter Count   1
   Undefined Bond Stereocenter Count 0
   Covalently-Bonded Unit Count      1
   Feature 3D Acceptor Count         1
   Feature 3D Hydrophobe Count       1
   Feature 3D Ring Count             2
   Effective Rotor Count             7.6
   Conformer Sampling RMSD           1
   CID Conformer Count               [9]258

References

   1. http://toxnet.nlm.nih.gov/cgi-bin/sis/search/r?dbs+hsdb:@term+@rn+@rel+82657-04-3
   2. http://toxnet.nlm.nih.gov/cgi-bin/sis/search/r?dbs+hsdb:@term+@rn+@rel+82657-04-3
   3. http://toxnet.nlm.nih.gov/cgi-bin/sis/search/r?dbs+hsdb:@term+@rn+@rel+82657-04-3
   4. http://toxnet.nlm.nih.gov/cgi-bin/sis/search/r?dbs+hsdb:@term+@rn+@rel+82657-04-3
   5. http://toxnet.nlm.nih.gov/cgi-bin/sis/search/r?dbs+hsdb:@term+@rn+@rel+82657-04-3
   6. http://toxnet.nlm.nih.gov/cgi-bin/sis/search/r?dbs+hsdb:@term+@rn+@rel+82657-04-3
   7. http://toxnet.nlm.nih.gov/cgi-bin/sis/search/r?dbs+hsdb:@term+@rn+@rel+82657-04-3
   8. http://toxnet.nlm.nih.gov/cgi-bin/sis/search/r?dbs+hsdb:@term+@rn+@rel+82657-04-3
   9. http://pubchem.ncbi.nlm.nih.gov/vw3d/vw3d.cgi?cid=5281872
