442276
  -OEChem-07051212572D

 40 44  0     1  0  0  0  0  0999 V2000
    4.0753   -3.3540    0.0000 O   0  0  0  0  0  0  0  0  0  0  0  0
    2.1028   -1.1673    0.0000 O   0  0  0  0  0  0  0  0  0  0  0  0
    5.4032   -1.8267    0.0000 O   0  0  0  0  0  0  0  0  0  0  0  0
    8.1156    0.0303    0.0000 O   0  0  0  0  0  0  0  0  0  0  0  0
    2.9375    0.6504    0.0000 O   0  0  0  0  0  0  0  0  0  0  0  0
    4.6334    2.1784    0.0000 O   0  0  0  0  0  0  0  0  0  0  0  0
    8.3567   -1.8017    0.0000 O   0  0  0  0  0  0  0  0  0  0  0  0
    3.5761   -1.0132    0.0000 C   0  0  1  0  0  0  0  0  0  0  0  0
    2.9128   -1.7537    0.0000 C   0  0  1  0  0  0  0  0  0  0  0  0
    4.4896   -1.4200    0.0000 C   0  0  2  0  0  0  0  0  0  0  0  0
    3.4106   -2.6142    0.0000 C   0  0  1  0  0  0  0  0  0  0  0  0
    4.3832   -2.4084    0.0000 C   0  0  2  0  0  0  0  0  0  0  0  0
    6.0248   -0.1768    0.0000 C   0  0  2  0  0  0  0  0  0  0  0  0
    3.6806   -0.0187    0.0000 C   0  0  1  0  0  0  0  0  0  0  0  0
    2.0000   -2.1620    0.0000 C   0  0  0  0  0  0  0  0  0  0  0  0
    5.5470    1.7717    0.0000 C   0  0  3  0  0  0  0  0  0  0  0  0
    6.2836    0.7891    0.0000 C   0  0  1  0  0  0  0  0  0  0  0  0
    2.6625   -0.6065    0.0000 C   0  0  0  0  0  0  0  0  0  0  0  0
    7.8567   -0.9357    0.0000 C   0  0  0  0  0  0  0  0  0  0  0  0
    5.6515    2.7662    0.0000 C   0  0  0  0  0  0  0  0  0  0  0  0
    6.5651    3.1730    0.0000 C   0  0  0  0  0  0  0  0  0  0  0  0
    4.8425    3.3540    0.0000 C   0  0  0  0  0  0  0  0  0  0  0  0
    2.9090   -2.9785    0.0000 H   0  0  0  0  0  0  0  0  0  0  0  0
    4.9894   -2.5382    0.0000 H   0  0  0  0  0  0  0  0  0  0  0  0
    5.8048   -0.9979    0.0000 H   0  0  0  0  0  0  0  0  0  0  0  0
    3.1018   -0.2409    0.0000 H   0  0  0  0  0  0  0  0  0  0  0  0
    1.3816   -2.2064    0.0000 H   0  0  0  0  0  0  0  0  0  0  0  0
    2.1510   -2.7634    0.0000 H   0  0  0  0  0  0  0  0  0  0  0  0
    6.5036    1.6101    0.0000 H   0  0  0  0  0  0  0  0  0  0  0  0
    2.9147   -0.0401    0.0000 H   0  0  0  0  0  0  0  0  0  0  0  0
    2.0962   -0.3543    0.0000 H   0  0  0  0  0  0  0  0  0  0  0  0
    2.4104   -1.1729    0.0000 H   0  0  0  0  0  0  0  0  0  0  0  0
    5.4680   -2.4433    0.0000 H   0  0  0  0  0  0  0  0  0  0  0  0
    2.3478    0.4588    0.0000 H   0  0  0  0  0  0  0  0  0  0  0  0
    4.1319    1.8140    0.0000 H   0  0  0  0  0  0  0  0  0  0  0  0
    6.8172    2.6066    0.0000 H   0  0  0  0  0  0  0  0  0  0  0  0
    7.1315    3.4251    0.0000 H   0  0  0  0  0  0  0  0  0  0  0  0
    6.3129    3.7394    0.0000 H   0  0  0  0  0  0  0  0  0  0  0  0
    4.9073    3.9706    0.0000 H   0  0  0  0  0  0  0  0  0  0  0  0
    4.2761    3.1018    0.0000 H   0  0  0  0  0  0  0  0  0  0  0  0
 11  1  1  1  0  0  0
 12  1  1  1  0  0  0
  9  2  1  1  0  0  0
  2 15  1  0  0  0  0
 10  3  1  1  0  0  0
  3 33  1  0  0  0  0
  4 17  1  0  0  0  0
  4 19  1  0  0  0  0
 14  5  1  6  0  0  0
  5 34  1  0  0  0  0
  6 16  1  0  0  0  0
  6 35  1  0  0  0  0
  7 19  2  0  0  0  0
  8  9  1  0  0  0  0
  8 10  1  0  0  0  0
  8 14  1  0  0  0  0
  8 18  1  1  0  0  0
  9 11  1  0  0  0  0
  9 15  1  0  0  0  0
 10 12  1  0  0  0  0
 10 13  1  0  0  0  0
 11 12  1  0  0  0  0
 11 23  1  0  0  0  0
 12 24  1  0  0  0  0
 13 16  1  0  0  0  0
 13 19  1  0  0  0  0
 13 25  1  1  0  0  0
 14 17  1  0  0  0  0
 14 26  1  0  0  0  0
 15 27  1  0  0  0  0
 15 28  1  0  0  0  0
 16 17  1  0  0  0  0
 16 20  1  0  0  0  0
 17 29  1  6  0  0  0
 18 30  1  0  0  0  0
 18 31  1  0  0  0  0
 18 32  1  0  0  0  0
 20 21  1  0  0  0  0
 20 22  2  0  0  0  0
 21 36  1  0  0  0  0
 21 37  1  0  0  0  0
 21 38  1  0  0  0  0
 22 39  1  0  0  0  0
 22 40  1  0  0  0  0
M  END
> <PUBCHEM_COMPOUND_CID>
442276

> <PUBCHEM_COMPOUND_CANONICALIZED>
1

> <PUBCHEM_CACTVS_COMPLEXITY>
648

> <PUBCHEM_CACTVS_HBOND_ACCEPTOR>
7

> <PUBCHEM_CACTVS_HBOND_DONOR>
3

> <PUBCHEM_CACTVS_ROTATABLE_BOND>
1

> <PUBCHEM_CACTVS_SUBSKEYS>
AAADceBwOAAAAAAAAAAAAAAAEiQAAaIAAAA0QAAABIAAAGAAAAAAGgAACAAAD1SggAICCAAABgCIAgDSCAAAAAAgAAAAAAEAAAgBFBYAAQACQAAF4AADEAHK7PzPgAAAAAAAAADCAAYQADCAAYQADCAAAA==

> <PUBCHEM_IUPAC_INCHI>
InChI=1S/C15H18O7/c1-5(2)14(18)6-11(17)22-8(14)7(16)12(3)13(4-20-13)9-10(21-9)15(6,12)19/h6-10,16,18-19H,1,4H2,2-3H3/t6-,7+,8-,9+,10-,12-,13+,14?,15-/m0/s1

> <PUBCHEM_IUPAC_INCHIKEY>
DWCJGLPGZULWPZ-GEETXFABSA-N

> <PUBCHEM_XLOGP3_AA>
-1.6

> <PUBCHEM_EXACT_MASS>
310.105253

> <PUBCHEM_MOLECULAR_FORMULA>
C15H18O7

> <PUBCHEM_MOLECULAR_WEIGHT>
310.29922

> <PUBCHEM_OPENEYE_CAN_SMILES>
CC(=C)C1(C2C(C3(C4(CO4)C5C(C3(C1C(=O)O2)O)O5)C)O)O

> <PUBCHEM_OPENEYE_ISO_SMILES>
CC(=C)C1([C@@H]2[C@H]([C@]3([C@@]4(CO4)[C@H]5[C@@H]([C@]3([C@H]1C(=O)O2)O)O5)C)O)O

> <PUBCHEM_CACTVS_TPSA>
112

> <PUBCHEM_MONOISOTOPIC_WEIGHT>
310.105253

> <PUBCHEM_TOTAL_CHARGE>
0

> <PUBCHEM_HEAVY_ATOM_COUNT>
22

> <PUBCHEM_ATOM_DEF_STEREO_COUNT>
8

> <PUBCHEM_ATOM_UDEF_STEREO_COUNT>
1

> <PUBCHEM_BOND_DEF_STEREO_COUNT>
0

> <PUBCHEM_BOND_UDEF_STEREO_COUNT>
0

> <PUBCHEM_ISOTOPIC_ATOM_COUNT>
0

> <PUBCHEM_COMPONENT_COUNT>
1

> <PUBCHEM_CACTVS_TAUTO_COUNT>
1

> <PUBCHEM_COORDINATE_TYPE>
1
5
255

> <PUBCHEM_BONDANNOTATIONS>
11  1  5
12  1  5
13  25  5
16  20  3
17  29  6
9  2  5
10  3  5
14  5  6
8  18  5

$$$$

