47205714
  -OEChem-06241223002D

 34 34  0     0  0  0  0  0  0999 V2000
    3.0878    0.8230    0.0000 O   0  0  0  0  0  0  0  0  0  0  0  0
    5.5910    1.7709    0.0000 O   0  0  0  0  0  0  0  0  0  0  0  0
    5.4716   -1.8326    0.0000 O   0  0  0  0  0  0  0  0  0  0  0  0
    5.0558    0.1237    0.0000 N   0  0  0  0  0  0  0  0  0  0  0  0
    7.1658   -1.4725    0.0000 N   0  0  0  0  0  0  0  0  0  0  0  0
    2.2788    1.4108    0.0000 N   0  0  0  0  0  0  0  0  0  0  0  0
    4.3126   -0.5455    0.0000 C   0  0  0  0  0  0  0  0  0  0  0  0
    4.5205   -1.5236    0.0000 C   0  0  0  0  0  0  0  0  0  0  0  0
    3.7774   -2.1928    0.0000 C   0  0  0  0  0  0  0  0  0  0  0  0
    6.0068   -0.1854    0.0000 C   0  0  0  0  0  0  0  0  0  0  0  0
    4.8479    1.1018    0.0000 C   0  0  0  0  0  0  0  0  0  0  0  0
    3.9853   -3.1709    0.0000 C   0  0  0  0  0  0  0  0  0  0  0  0
    3.8968    1.4108    0.0000 C   0  0  0  0  0  0  0  0  0  0  0  0
    6.2147   -1.1635    0.0000 C   0  0  0  0  0  0  0  0  0  0  0  0
    3.5878    2.3619    0.0000 C   0  0  0  0  0  0  0  0  0  0  0  0
    2.5878    2.3619    0.0000 C   0  0  0  0  0  0  0  0  0  0  0  0
    2.0000    3.1709    0.0000 C   0  0  0  0  0  0  0  0  0  0  0  0
    3.9841   -0.0197    0.0000 H   0  0  0  0  0  0  0  0  0  0  0  0
    3.7378   -0.7777    0.0000 H   0  0  0  0  0  0  0  0  0  0  0  0
    4.8491   -2.0494    0.0000 H   0  0  0  0  0  0  0  0  0  0  0  0
    5.0954   -1.2914    0.0000 H   0  0  0  0  0  0  0  0  0  0  0  0
    3.4488   -1.6670    0.0000 H   0  0  0  0  0  0  0  0  0  0  0  0
    3.2025   -2.4250    0.0000 H   0  0  0  0  0  0  0  0  0  0  0  0
    6.6264   -0.1637    0.0000 H   0  0  0  0  0  0  0  0  0  0  0  0
    6.0931    0.4286    0.0000 H   0  0  0  0  0  0  0  0  0  0  0  0
    3.3788   -3.2998    0.0000 H   0  0  0  0  0  0  0  0  0  0  0  0
    4.1142   -3.7774    0.0000 H   0  0  0  0  0  0  0  0  0  0  0  0
    4.5918   -3.0420    0.0000 H   0  0  0  0  0  0  0  0  0  0  0  0
    3.9522    2.8635    0.0000 H   0  0  0  0  0  0  0  0  0  0  0  0
    7.2947   -2.0790    0.0000 H   0  0  0  0  0  0  0  0  0  0  0  0
    7.6265   -1.0577    0.0000 H   0  0  0  0  0  0  0  0  0  0  0  0
    2.5016    3.5353    0.0000 H   0  0  0  0  0  0  0  0  0  0  0  0
    1.6356    3.6725    0.0000 H   0  0  0  0  0  0  0  0  0  0  0  0
    1.4984    2.8065    0.0000 H   0  0  0  0  0  0  0  0  0  0  0  0
  1  6  1  0  0  0  0
  1 13  1  0  0  0  0
  2 11  2  0  0  0  0
  3 14  2  0  0  0  0
  4  7  1  0  0  0  0
  4 10  1  0  0  0  0
  4 11  1  0  0  0  0
  5 14  1  0  0  0  0
  5 30  1  0  0  0  0
  5 31  1  0  0  0  0
  6 16  2  0  0  0  0
  7  8  1  0  0  0  0
  7 18  1  0  0  0  0
  7 19  1  0  0  0  0
  8  9  1  0  0  0  0
  8 20  1  0  0  0  0
  8 21  1  0  0  0  0
  9 12  1  0  0  0  0
  9 22  1  0  0  0  0
  9 23  1  0  0  0  0
 10 14  1  0  0  0  0
 10 24  1  0  0  0  0
 10 25  1  0  0  0  0
 11 13  1  0  0  0  0
 12 26  1  0  0  0  0
 12 27  1  0  0  0  0
 12 28  1  0  0  0  0
 13 15  2  0  0  0  0
 15 16  1  0  0  0  0
 15 29  1  0  0  0  0
 16 17  1  0  0  0  0
 17 32  1  0  0  0  0
 17 33  1  0  0  0  0
 17 34  1  0  0  0  0
M  END
> <PUBCHEM_COMPOUND_CID>
47205714

> <PUBCHEM_COMPOUND_CANONICALIZED>
1

> <PUBCHEM_CACTVS_COMPLEXITY>
283

> <PUBCHEM_CACTVS_HBOND_ACCEPTOR>
4

> <PUBCHEM_CACTVS_HBOND_DONOR>
1

> <PUBCHEM_CACTVS_ROTATABLE_BOND>
6

> <PUBCHEM_CACTVS_SUBSKEYS>
AAADceBzMAAAAAAAAAAAAAAAAAAAAWAAAAAAAAAAAAAAAAABgAAAHgAUAAAACAzBlgQyhJNQAACpAaVyUgKAAAAkIgAgGCH+bFoCZhoAhbMUEYhmFhiYScIcAAAAAAAAAAAAAAAAAAAAAAAAAAAAAAAAAA==

> <PUBCHEM_IUPAC_OPENEYE_NAME>
N-(2-amino-2-oxo-ethyl)-N-butyl-3-methyl-isoxazole-5-carboxamide

> <PUBCHEM_IUPAC_CAS_NAME>
N-(2-amino-2-oxoethyl)-N-butyl-3-methyl-5-isoxazolecarboxamide

> <PUBCHEM_IUPAC_NAME>
N-(2-amino-2-oxoethyl)-N-butyl-3-methyl-1,2-oxazole-5-carboxamide

> <PUBCHEM_IUPAC_SYSTEMATIC_NAME>
N-(2-azanyl-2-oxidanylidene-ethyl)-N-butyl-3-methyl-1,2-oxazole-5-carboxamide

> <PUBCHEM_IUPAC_TRADITIONAL_NAME>
N-(2-amino-2-keto-ethyl)-N-butyl-3-methyl-isoxazole-5-carboxamide

> <PUBCHEM_IUPAC_INCHI>
InChI=1S/C11H17N3O3/c1-3-4-5-14(7-10(12)15)11(16)9-6-8(2)13-17-9/h6H,3-5,7H2,1-2H3,(H2,12,15)

> <PUBCHEM_IUPAC_INCHIKEY>
HYJVWKBSACIQRL-UHFFFAOYSA-N

> <PUBCHEM_XLOGP3_AA>
0.8

> <PUBCHEM_EXACT_MASS>
239.126991

> <PUBCHEM_MOLECULAR_FORMULA>
C11H17N3O3

> <PUBCHEM_MOLECULAR_WEIGHT>
239.27098

> <PUBCHEM_OPENEYE_CAN_SMILES>
CCCCN(CC(=O)N)C(=O)C1=CC(=NO1)C

> <PUBCHEM_OPENEYE_ISO_SMILES>
CCCCN(CC(=O)N)C(=O)C1=CC(=NO1)C

> <PUBCHEM_CACTVS_TPSA>
89.4

> <PUBCHEM_MONOISOTOPIC_WEIGHT>
239.126991

> <PUBCHEM_TOTAL_CHARGE>
0

> <PUBCHEM_HEAVY_ATOM_COUNT>
17

> <PUBCHEM_ATOM_DEF_STEREO_COUNT>
0

> <PUBCHEM_ATOM_UDEF_STEREO_COUNT>
0

> <PUBCHEM_BOND_DEF_STEREO_COUNT>
0

> <PUBCHEM_BOND_UDEF_STEREO_COUNT>
0

> <PUBCHEM_ISOTOPIC_ATOM_COUNT>
0

> <PUBCHEM_COMPONENT_COUNT>
1

> <PUBCHEM_CACTVS_TAUTO_COUNT>
3

> <PUBCHEM_COORDINATE_TYPE>
1
5
255

> <PUBCHEM_BONDANNOTATIONS>
1  13  8
1  6  8
13  15  8
15  16  8
6  16  8

$$$$

