   Color/Form

     * Transparent, colorless liquid
     * Slightly brown liquid

   from [1]HSDB

   Odor

     * Penetrating odor
     * Fuming pungent

   from [2]HSDB

   Boiling Point
        197.2 deg C @ 760 mm Hg
   from [3]HSDB

   Melting Point
        -1.0 deg C
   from [4]HSDB

   Corrosivity
        Slow corrosion of metals, but no immediate hazard.
   from [5]HSDB

   Density/Specific Gravity
        1.2070 @ 25 deg C/4 deg C
   from [6]HSDB

   Heat of Combustion
        -12,000 Btu/lb = -6,700 Cal/g= -280x 10+5 J/kg
   from [7]HSDB

   Heat of Vaporization
        11,438.0 gcal/gmol
   from [8]HSDB

   Solubilities
        Miscible with ether, benzene, carbon disulfide, oils
   from [9]HSDB

   Spectral Properties

     * Index of refraction: 1.5537 @ 20 deg C/D
     * SADTLER REF NUMBER: 3 (IR, PRISM)
     * Benzoyl chloride, 99%, exhibits its two strongest infrared
       absorption bands at wavelengths of 5.6 and 8.3 microns.
     * IR: 5402 (Sadtler Research Laboratories IR Grating Collection)
     * UV: 2 (Sadtler Research Laboratories Spectral Collection)
     * H-1 NMR: 3147 (Sadtler Research Laboratories Spectral Collection)
     * C-13 NMR: 224 (Johnson and Jankowski, Carbon-13 NMR Spectra, John
       Wiley and Sons, New York)

   from [10]HSDB

   Surface Tension
        36.3 DYNES/CM = 0.0363 N/M @ 20 DEG C
   from [11]HSDB

   Vapor Density
        4.9 (AIR = 1)
   from [12]HSDB

   Vapor Pressure
        0.700 mm Hg @ 25 deg C, extrapolated
   from [13]HSDB

   Other Chemical/Physical Properties

     * Decomposes in water
     * Dipole moment: 3.28 debyes
     * VP: 1 mm Hg @ 32.1 deg C
     * Hydroxyl radical reaction rate constant = 1.9X10-12 cu-cm/molecule
       sec at 25 deg C /Estimated/

   from [14]HSDB

   Computed Properties
   Molecular Weight                  140.567 [g/mol]
   Molecular Formula                 C[7]H[5]ClO
   XLogP3                            2.9
   H-Bond Donor                      0
   H-Bond Acceptor                   1
   Rotatable Bond Count              1
   Exact Mass                        140.002892
   MonoIsotopic Mass                 140.002892
   Topological Polar Surface Area    17.1
   Heavy Atom Count                  9
   Formal Charge                     0
   Complexity                        106
   Isotope Atom Count                0
   Defined Atom Stereocenter Count   0
   Undefined Atom Stereocenter Count 0
   Defined Bond Stereocenter Count   0
   Undefined Bond Stereocenter Count 0
   Covalently-Bonded Unit Count      1
   Feature 3D Ring Count             1
   Effective Rotor Count             1
   Conformer Sampling RMSD           0.4
   CID Conformer Count               [15]2

References

   1. http://toxnet.nlm.nih.gov/cgi-bin/sis/search/r?dbs+hsdb:@term+@rn+@rel+98-88-4
   2. http://toxnet.nlm.nih.gov/cgi-bin/sis/search/r?dbs+hsdb:@term+@rn+@rel+98-88-4
   3. http://toxnet.nlm.nih.gov/cgi-bin/sis/search/r?dbs+hsdb:@term+@rn+@rel+98-88-4
   4. http://toxnet.nlm.nih.gov/cgi-bin/sis/search/r?dbs+hsdb:@term+@rn+@rel+98-88-4
   5. http://toxnet.nlm.nih.gov/cgi-bin/sis/search/r?dbs+hsdb:@term+@rn+@rel+98-88-4
   6. http://toxnet.nlm.nih.gov/cgi-bin/sis/search/r?dbs+hsdb:@term+@rn+@rel+98-88-4
   7. http://toxnet.nlm.nih.gov/cgi-bin/sis/search/r?dbs+hsdb:@term+@rn+@rel+98-88-4
   8. http://toxnet.nlm.nih.gov/cgi-bin/sis/search/r?dbs+hsdb:@term+@rn+@rel+98-88-4
   9. http://toxnet.nlm.nih.gov/cgi-bin/sis/search/r?dbs+hsdb:@term+@rn+@rel+98-88-4
  10. http://toxnet.nlm.nih.gov/cgi-bin/sis/search/r?dbs+hsdb:@term+@rn+@rel+98-88-4
  11. http://toxnet.nlm.nih.gov/cgi-bin/sis/search/r?dbs+hsdb:@term+@rn+@rel+98-88-4
  12. http://toxnet.nlm.nih.gov/cgi-bin/sis/search/r?dbs+hsdb:@term+@rn+@rel+98-88-4
  13. http://toxnet.nlm.nih.gov/cgi-bin/sis/search/r?dbs+hsdb:@term+@rn+@rel+98-88-4
  14. http://toxnet.nlm.nih.gov/cgi-bin/sis/search/r?dbs+hsdb:@term+@rn+@rel+98-88-4
  15. http://pubchem.ncbi.nlm.nih.gov/vw3d/vw3d.cgi?cid=7412
