   Color/Form

     * Brilliant, colorless cubes from chloroform-ether.
     * COLORLESS, TRANSPARENT, PRISMATIC CRYSTALS OR WHITE CRYSTALLINE
       POWDER
     * Colorless to white, crystalline solid.
     * Hard white crystals or powder
     * Colorless rhombohedrons (from ethanol)

   from [1]HSDB

   Odor
        Odorless.
   from [2]HSDB

   Taste

     * Very bitter metallic taste
     * BITTERNESS THRESHOLD: 1:130,000
     * Bitter taste in soln contg 1 part in 700,000 of water.

   from [3]HSDB

   Boiling Point
        270 deg C @ 5 mm Hg
   from [4]HSDB

   Melting Point
        287 deg C
   from [5]HSDB

   Density/Specific Gravity
        1.36 @ 20 deg C/4 deg C
   from [6]HSDB

   Dissociation Constants

     * pKa= 8.26, Ka= 5.49X10-9 at 25 deg C
     * pKa=8.26 @ 25 deg C

   from [7]HSDB

   Heat of Combustion
        2,685.7 kg/cal at 20 deg C (solid)
   from [8]HSDB

   Octanol/Water Partition Coefficient
        log Kow= 1.93
   from [9]HSDB

   pH
        SATURATED SOLN 9.5
   from [10]HSDB

   Solubilities

     * 160 mg/l at 25 deg C water
     * 6.7 g/l ethanol
     * One gram dissolves in 182 ml ethanol, 6.5 ml chloroform, 150 ml
       benzene, 250 ml methanol, 83 ml pyridine.
     * Very slightly soluble in ether.
     * Slightly soluble in ethanol and acetone; insoluble in ethyl ether.
     * Soluble in chloroform, slightly soluble in alcohol and benzene,
       slightly soluble in ether.
     * In water, 160 mg/l @ 25 deg C.

   from [11]HSDB

   Spectral Properties

     * UV max (95% ethanol): 2550, 2800, 2900 Angstroms (E 1% 1 cm: 377,
       130, 101).
     * Specific optical rotation: -139.3 deg @ 18 deg C/D (c= 0.4 in
       chloroform); -104 deg @ 20 deg C/D (c= 0.254 in absolute alcohol).
     * IR: 3801 (Sadtler Research Laboratories Prism Collection)
     * UV: 6-928 (Organic Electronic Spectral Data, Phillips et al, John
       Wiley & Sons, New York)
     * MASS: 4938 (National Bureau of Standards EPA-NIH Mass Spectra Data
       Base, NSRDS-NBS-63)
     * Intense mass spectral peaks: 334 m/z

   from [12]HSDB

   Vapor Pressure
        0 torr at 20 deg C
   from [13]HSDB

   Other Chemical/Physical Properties

     * EFFLORESCENT CRYSTALS; AQ SOLN IS ACID; SOLUBLE IN ABOUT 20 PARTS
       WATER; SLIGHTLY SOLUBLE IN ALCOHOL /STRYCHNINE ARSENATE DIHYDRATE/
     * pH OF 0.01 MOLAR SOLN: 5.5; SOLUBLE IN ABOUT 50 PARTS WATER,
       SOLUBLE IN ALCOHOL /STRYCHNINE HYDROBROMIDE MONOHYDRATE/
     * MAX ABSORPTION (WATER): 255 NM (LOG E= 4.03) /STRYCHNINE SULFATE
       PENTAHYDRATE/
     * SPECIFIC OPTICAL ROTATION: 13.25 DEG; WHITE MONOCLINIC CRYSTALS
       /STRYCHNINE SULFATE PENTAHYDRATE/
     * ORANGE-YELLOW NEEDLES FROM WATER; 1 G SOLUBLE IN 1800 ML WATER AT
       18 DEG C /STRYCHNINE DICHROMATE/
     * 1 g soluble in about 350 ml water, about 310 ml alc; slightly sol
       in chloroform; very slightly sol in ether /strychnine
       glycerophosphate hexahydrate/
     * SOL IN 2.5 PARTS WATER, SOL IN ALC /STRYCHNINE FORMATE/
     * VERY SLIGHTLY SOL IN WATER OR ETHER; SOL IN ALC, CHLOROFORM
       /STRYCHNINE VALERATE/
     * Sol in methanol; density 1.627 /Strychnine nitrate/
     * MP >199 deg C; 30 g/l water at 15 deg C /Strychnine sulfate/
     * Water solubility: 30,000 ppm /Strychnine sulfate/
     * Crystals, sol in 20 parts water, sol in alcohol. /Acetate/
     * Crystals, darken above 80 deg C, sol in 2 parts water, ~40 parts
       alcohol; the aq sol is neutral. /Gluconate pentahydrate/
     * One gram dissolves in ~350 ml water, ~310 ml alcohol. Slightly sol
       in chloroform; very slightly in ether. /Hydrochloride dihydrate/
     * Leaflets, sol in ~30 parts water; sparingly sol in alcohol.
       /Salicylate/
     * Colorless, odorless needles or white cryst. powder. One gram
       dissolves in 42 ml water, 10 ml boiling water, 150 ml alcohol, 80
       ml alcohol @ 20 deg C, 105 ml chloroform, 50 ml glycerol; insol in
       ether. pH ~5.7. /Strychnine nitrate/
     * Monoclinic prisms from water, dec 207 deg C, pK= 5.17. Freely sol
       in alc, glacial acetic acid, chloroform; fairly sol in water;
       sparingly sol in benzene. Practically insol in ether, petr ether.
       /Strychnine N6-oxide/
     * Dihydrate, colorless or white crystals or white powder. One gram
       dissolves slowly in ~30 ml water; more sol in hot water; slightly
       sol in alcohol. The aq soln is acid. /Strychnine phosphate/
     * Pentahydrate, colorless, odorless, very bitter crystals, or white,
       crystalline powder. Effloresces in dry air; loses all its water of
       crystallization at 100 deg C. MP when anhydr ~200 deg C with
       decompn. One gram dissolves in 35 ml water, 7 ml boiling water, 81
       ml alcohol; 25 ml alcohol at 60 deg C, 220 ml chloroform, 6 ml
       glycerol; insol in ether. pH 5.5 in 1:100 soln. /Strychnine
       sulfate/

   from [14]HSDB

   Computed Properties
   Molecular Weight                  334.41158 [g/mol]
   Molecular Formula                 C[21]H[22]N[2]O[2]
   XLogP3                            1.9
   H-Bond Donor                      0
   H-Bond Acceptor                   3
   Rotatable Bond Count              0
   Tautomer Count                    2
   Exact Mass                        334.168128
   MonoIsotopic Mass                 334.168128
   Topological Polar Surface Area    32.8
   Heavy Atom Count                  25
   Formal Charge                     0
   Complexity                        689
   Isotope Atom Count                0
   Defined Atom Stereocenter Count   6
   Undefined Atom Stereocenter Count 0
   Defined Bond Stereocenter Count   0
   Undefined Bond Stereocenter Count 0
   Covalently-Bonded Unit Count      1
   Feature 3D Acceptor Count         2
   Feature 3D Cation Count           1
   Feature 3D Ring Count             7
   Effective Rotor Count             1.4
   Conformer Sampling RMSD           0.6
   CID Conformer Count               [15]1

References

   1. http://toxnet.nlm.nih.gov/cgi-bin/sis/search/r?dbs+hsdb:@term+@rn+@rel+57-24-9
   2. http://toxnet.nlm.nih.gov/cgi-bin/sis/search/r?dbs+hsdb:@term+@rn+@rel+57-24-9
   3. http://toxnet.nlm.nih.gov/cgi-bin/sis/search/r?dbs+hsdb:@term+@rn+@rel+57-24-9
   4. http://toxnet.nlm.nih.gov/cgi-bin/sis/search/r?dbs+hsdb:@term+@rn+@rel+57-24-9
   5. http://toxnet.nlm.nih.gov/cgi-bin/sis/search/r?dbs+hsdb:@term+@rn+@rel+57-24-9
   6. http://toxnet.nlm.nih.gov/cgi-bin/sis/search/r?dbs+hsdb:@term+@rn+@rel+57-24-9
   7. http://toxnet.nlm.nih.gov/cgi-bin/sis/search/r?dbs+hsdb:@term+@rn+@rel+57-24-9
   8. http://toxnet.nlm.nih.gov/cgi-bin/sis/search/r?dbs+hsdb:@term+@rn+@rel+57-24-9
   9. http://toxnet.nlm.nih.gov/cgi-bin/sis/search/r?dbs+hsdb:@term+@rn+@rel+57-24-9
  10. http://toxnet.nlm.nih.gov/cgi-bin/sis/search/r?dbs+hsdb:@term+@rn+@rel+57-24-9
  11. http://toxnet.nlm.nih.gov/cgi-bin/sis/search/r?dbs+hsdb:@term+@rn+@rel+57-24-9
  12. http://toxnet.nlm.nih.gov/cgi-bin/sis/search/r?dbs+hsdb:@term+@rn+@rel+57-24-9
  13. http://toxnet.nlm.nih.gov/cgi-bin/sis/search/r?dbs+hsdb:@term+@rn+@rel+57-24-9
  14. http://toxnet.nlm.nih.gov/cgi-bin/sis/search/r?dbs+hsdb:@term+@rn+@rel+57-24-9
  15. http://pubchem.ncbi.nlm.nih.gov/vw3d/vw3d.cgi?cid=441071
