441883
  -OEChem-07051212562D

 93 99  0     1  0  0  0  0  0999 V2000
    5.5954   -4.3916    0.0000 O   0  0  0  0  0  0  0  0  0  0  0  0
   11.0647   -1.6293    0.0000 O   0  0  0  0  0  0  0  0  0  0  0  0
    3.9300   -3.3104    0.0000 O   0  0  0  0  0  0  0  0  0  0  0  0
    8.3882    0.9458    0.0000 O   0  0  0  0  0  0  0  0  0  0  0  0
   12.0027    0.9876    0.0000 O   0  0  0  0  0  0  0  0  0  0  0  0
   12.8630    2.4909    0.0000 O   0  0  0  0  0  0  0  0  0  0  0  0
   10.2668    1.9809    0.0000 O   0  0  0  0  0  0  0  0  0  0  0  0
   10.2591    3.9809    0.0000 O   0  0  0  0  0  0  0  0  0  0  0  0
   11.9873    4.9876    0.0000 O   0  0  0  0  0  0  0  0  0  0  0  0
    6.6628   -2.1568    0.0000 C   0  0  1  0  0  0  0  0  0  0  0  0
    7.5288   -2.6568    0.0000 C   0  0  2  0  0  0  0  0  0  0  0  0
    8.3948   -2.1568    0.0000 C   0  0  1  0  0  0  0  0  0  0  0  0
    5.9258   -2.8239    0.0000 C   0  0  2  0  0  0  0  0  0  0  0  0
    8.3948   -1.1568    0.0000 C   0  0  1  0  0  0  0  0  0  0  0  0
    9.2888   -0.6221    0.0000 C   0  0  2  0  0  0  0  0  0  0  0  0
    6.3309   -3.7316    0.0000 C   0  0  2  0  0  0  0  0  0  0  0  0
    7.3196   -3.6286    0.0000 C   0  0  0  0  0  0  0  0  0  0  0  0
    6.6628   -1.1568    0.0000 C   0  0  0  0  0  0  0  0  0  0  0  0
    7.5288   -0.6568    0.0000 C   0  0  0  0  0  0  0  0  0  0  0  0
   10.1949   -1.1360    0.0000 C   0  0  1  0  0  0  0  0  0  0  0  0
    4.9434   -2.9306    0.0000 C   0  0  1  0  0  0  0  0  0  0  0  0
    9.2888   -2.6914    0.0000 C   0  0  0  0  0  0  0  0  0  0  0  0
   10.1949   -2.1776    0.0000 C   0  0  0  0  0  0  0  0  0  0  0  0
    4.7396   -3.8975    0.0000 C   0  0  1  0  0  0  0  0  0  0  0  0
    5.7968   -1.6568    0.0000 C   0  0  0  0  0  0  0  0  0  0  0  0
    9.2637    0.4626    0.0000 C   0  0  1  0  0  0  0  0  0  0  0  0
   11.1386   -0.6007    0.0000 C   0  0  0  0  0  0  0  0  0  0  0  0
    8.4189   -0.1288    0.0000 C   0  0  0  0  0  0  0  0  0  0  0  0
   10.1949    1.0195    0.0000 C   0  0  0  0  0  0  0  0  0  0  0  0
   11.1386    0.4843    0.0000 C   0  0  2  0  0  0  0  0  0  0  0  0
    4.2723   -2.1892    0.0000 C   0  0  0  0  0  0  0  0  0  0  0  0
    4.6359   -4.8921    0.0000 C   0  0  0  0  0  0  0  0  0  0  0  0
    3.7227   -5.2996    0.0000 C   0  0  0  0  0  0  0  0  0  0  0  0
    3.0169   -3.7180    0.0000 C   0  0  0  0  0  0  0  0  0  0  0  0
    2.9132   -4.7126    0.0000 C   0  0  1  0  0  0  0  0  0  0  0  0
   11.9989    1.9876    0.0000 C   0  0  2  0  0  0  0  0  0  0  0  0
    2.0000   -5.1201    0.0000 C   0  0  0  0  0  0  0  0  0  0  0  0
   11.1309    2.4843    0.0000 C   0  0  1  0  0  0  0  0  0  0  0  0
   11.1271    3.4842    0.0000 C   0  0  2  0  0  0  0  0  0  0  0  0
   12.8591    3.4909    0.0000 C   0  0  0  0  0  0  0  0  0  0  0  0
   11.9912    3.9876    0.0000 C   0  0  2  0  0  0  0  0  0  0  0  0
    8.2158   -3.1573    0.0000 H   0  0  0  0  0  0  0  0  0  0  0  0
    8.3883   -3.0067    0.0000 H   0  0  0  0  0  0  0  0  0  0  0  0
    5.5777   -2.0484    0.0000 H   0  0  0  0  0  0  0  0  0  0  0  0
    8.3883   -0.3068    0.0000 H   0  0  0  0  0  0  0  0  0  0  0  0
    6.6756   -4.5086    0.0000 H   0  0  0  0  0  0  0  0  0  0  0  0
    7.3187   -4.2486    0.0000 H   0  0  0  0  0  0  0  0  0  0  0  0
    7.9361   -3.6946    0.0000 H   0  0  0  0  0  0  0  0  0  0  0  0
    6.4507   -0.5742    0.0000 H   0  0  0  0  0  0  0  0  0  0  0  0
    6.0522   -1.2644    0.0000 H   0  0  0  0  0  0  0  0  0  0  0  0
    7.9274   -0.1818    0.0000 H   0  0  0  0  0  0  0  0  0  0  0  0
    7.1303   -0.1818    0.0000 H   0  0  0  0  0  0  0  0  0  0  0  0
    4.3448   -3.0923    0.0000 H   0  0  0  0  0  0  0  0  0  0  0  0
    8.8842   -3.1612    0.0000 H   0  0  0  0  0  0  0  0  0  0  0  0
    9.6824   -3.1705    0.0000 H   0  0  0  0  0  0  0  0  0  0  0  0
   10.4039   -2.7613    0.0000 H   0  0  0  0  0  0  0  0  0  0  0  0
   10.8057   -2.0715    0.0000 H   0  0  0  0  0  0  0  0  0  0  0  0
    6.1068   -1.1198    0.0000 H   0  0  0  0  0  0  0  0  0  0  0  0
    5.2598   -1.3468    0.0000 H   0  0  0  0  0  0  0  0  0  0  0  0
    5.4868   -2.1937    0.0000 H   0  0  0  0  0  0  0  0  0  0  0  0
    9.2529    1.0825    0.0000 H   0  0  0  0  0  0  0  0  0  0  0  0
   11.3477   -1.1844    0.0000 H   0  0  0  0  0  0  0  0  0  0  0  0
   11.7495   -0.4946    0.0000 H   0  0  0  0  0  0  0  0  0  0  0  0
    8.7248    0.4105    0.0000 H   0  0  0  0  0  0  0  0  0  0  0  0
    7.8796    0.1770    0.0000 H   0  0  0  0  0  0  0  0  0  0  0  0
    8.1131   -0.6681    0.0000 H   0  0  0  0  0  0  0  0  0  0  0  0
   10.5885    1.4985    0.0000 H   0  0  0  0  0  0  0  0  0  0  0  0
    9.7903    1.4893    0.0000 H   0  0  0  0  0  0  0  0  0  0  0  0
   11.1351    1.1043    0.0000 H   0  0  0  0  0  0  0  0  0  0  0  0
    4.7320   -1.7731    0.0000 H   0  0  0  0  0  0  0  0  0  0  0  0
    3.8562   -1.7295    0.0000 H   0  0  0  0  0  0  0  0  0  0  0  0
    3.8126   -2.6052    0.0000 H   0  0  0  0  0  0  0  0  0  0  0  0
    4.7864   -5.4936    0.0000 H   0  0  0  0  0  0  0  0  0  0  0  0
    5.2544   -4.8483    0.0000 H   0  0  0  0  0  0  0  0  0  0  0  0
   11.0695   -2.2492    0.0000 H   0  0  0  0  0  0  0  0  0  0  0  0
    3.2771   -5.7307    0.0000 H   0  0  0  0  0  0  0  0  0  0  0  0
    4.0699   -5.8134    0.0000 H   0  0  0  0  0  0  0  0  0  0  0  0
    8.3762    1.5657    0.0000 H   0  0  0  0  0  0  0  0  0  0  0  0
    2.8664   -3.1165    0.0000 H   0  0  0  0  0  0  0  0  0  0  0  0
    2.3984   -3.7617    0.0000 H   0  0  0  0  0  0  0  0  0  0  0  0
    2.4113   -4.3486    0.0000 H   0  0  0  0  0  0  0  0  0  0  0  0
   11.4631    1.6755    0.0000 H   0  0  0  0  0  0  0  0  0  0  0  0
    1.7473   -4.5539    0.0000 H   0  0  0  0  0  0  0  0  0  0  0  0
    1.4338   -5.3728    0.0000 H   0  0  0  0  0  0  0  0  0  0  0  0
    2.2527   -5.6863    0.0000 H   0  0  0  0  0  0  0  0  0  0  0  0
   10.5928    2.7922    0.0000 H   0  0  0  0  0  0  0  0  0  0  0  0
   11.1247    4.1043    0.0000 H   0  0  0  0  0  0  0  0  0  0  0  0
   13.4701    3.3856    0.0000 H   0  0  0  0  0  0  0  0  0  0  0  0
   13.0689    4.0744    0.0000 H   0  0  0  0  0  0  0  0  0  0  0  0
   11.4530    4.2955    0.0000 H   0  0  0  0  0  0  0  0  0  0  0  0
    9.7287    2.2888    0.0000 H   0  0  0  0  0  0  0  0  0  0  0  0
   10.2567    4.6009    0.0000 H   0  0  0  0  0  0  0  0  0  0  0  0
   12.5231    5.2996    0.0000 H   0  0  0  0  0  0  0  0  0  0  0  0
  1 16  1  0  0  0  0
 24  1  1  1  0  0  0
 20  2  1  6  0  0  0
  2 75  1  0  0  0  0
  3 24  1  0  0  0  0
  3 34  1  0  0  0  0
 26  4  1  6  0  0  0
  4 78  1  0  0  0  0
 30  5  1  6  0  0  0
 36  5  1  1  0  0  0
  6 36  1  0  0  0  0
  6 40  1  0  0  0  0
 38  7  1  6  0  0  0
  7 91  1  0  0  0  0
 39  8  1  1  0  0  0
  8 92  1  0  0  0  0
 41  9  1  1  0  0  0
  9 93  1  0  0  0  0
 10 11  1  0  0  0  0
 10 13  1  0  0  0  0
 10 18  1  0  0  0  0
 10 25  1  6  0  0  0
 11 12  1  0  0  0  0
 11 17  1  0  0  0  0
 11 42  1  1  0  0  0
 12 14  1  0  0  0  0
 12 22  1  0  0  0  0
 12 43  1  6  0  0  0
 13 16  1  0  0  0  0
 13 21  1  0  0  0  0
 13 44  1  1  0  0  0
 14 15  1  0  0  0  0
 14 19  1  0  0  0  0
 14 45  1  1  0  0  0
 15 20  1  0  0  0  0
 15 26  1  0  0  0  0
 15 28  1  6  0  0  0
 16 17  1  0  0  0  0
 16 46  1  1  0  0  0
 17 47  1  0  0  0  0
 17 48  1  0  0  0  0
 18 19  1  0  0  0  0
 18 49  1  0  0  0  0
 18 50  1  0  0  0  0
 19 51  1  0  0  0  0
 19 52  1  0  0  0  0
 20 23  1  0  0  0  0
 20 27  1  0  0  0  0
 21 24  1  0  0  0  0
 21 31  1  1  0  0  0
 21 53  1  0  0  0  0
 22 23  1  0  0  0  0
 22 54  1  0  0  0  0
 22 55  1  0  0  0  0
 23 56  1  0  0  0  0
 23 57  1  0  0  0  0
 24 32  1  0  0  0  0
 25 58  1  0  0  0  0
 25 59  1  0  0  0  0
 25 60  1  0  0  0  0
 26 29  1  0  0  0  0
 26 61  1  0  0  0  0
 27 30  1  0  0  0  0
 27 62  1  0  0  0  0
 27 63  1  0  0  0  0
 28 64  1  0  0  0  0
 28 65  1  0  0  0  0
 28 66  1  0  0  0  0
 29 30  1  0  0  0  0
 29 67  1  0  0  0  0
 29 68  1  0  0  0  0
 30 69  1  0  0  0  0
 31 70  1  0  0  0  0
 31 71  1  0  0  0  0
 31 72  1  0  0  0  0
 32 33  1  0  0  0  0
 32 73  1  0  0  0  0
 32 74  1  0  0  0  0
 33 35  1  0  0  0  0
 33 76  1  0  0  0  0
 33 77  1  0  0  0  0
 34 35  1  0  0  0  0
 34 79  1  0  0  0  0
 34 80  1  0  0  0  0
 35 37  1  6  0  0  0
 35 81  1  0  0  0  0
 36 38  1  0  0  0  0
 36 82  1  0  0  0  0
 37 83  1  0  0  0  0
 37 84  1  0  0  0  0
 37 85  1  0  0  0  0
 38 39  1  0  0  0  0
 38 86  1  0  0  0  0
 39 41  1  0  0  0  0
 39 87  1  0  0  0  0
 40 41  1  0  0  0  0
 40 88  1  0  0  0  0
 40 89  1  0  0  0  0
 41 90  1  0  0  0  0
M  END
> <PUBCHEM_COMPOUND_CID>
441883

> <PUBCHEM_COMPOUND_CANONICALIZED>
1

> <PUBCHEM_CACTVS_COMPLEXITY>
1010

> <PUBCHEM_CACTVS_HBOND_ACCEPTOR>
9

> <PUBCHEM_CACTVS_HBOND_DONOR>
5

> <PUBCHEM_CACTVS_ROTATABLE_BOND>
2

> <PUBCHEM_CACTVS_SUBSKEYS>
AAADcfB8PAAAAAAAAAAAAAAAAAAAAaIAAAA0aMECAAASAGDAAAAAGgAACAAAD1SwgAMCCAAABgAAAAAAAAAAAAAAAAAAAAAAAAAREAIAAAAiQAAFAAAHAAHA4PwPgAAAAAAAAADAAAYQADAAAYAADAAAAA==

> <PUBCHEM_IUPAC_INCHI>
InChI=1S/C32H52O9/c1-16-5-10-32(39-14-16)17(2)25-23(41-32)12-21-19-6-9-31(37)13-18(40-28-27(36)26(35)22(33)15-38-28)11-24(34)30(31,4)20(19)7-8-29(21,25)3/h16-28,33-37H,5-15H2,1-4H3/t16-,17-,18-,19+,20-,21-,22-,23-,24+,25-,26-,27+,28-,29-,30-,31-,32+/m0/s1

> <PUBCHEM_IUPAC_INCHIKEY>
CDJCQFDFKCXDKX-ZCYOMUHCSA-N

> <PUBCHEM_XLOGP3_AA>
2.6

> <PUBCHEM_EXACT_MASS>
580.361133

> <PUBCHEM_MOLECULAR_FORMULA>
C32H52O9

> <PUBCHEM_MOLECULAR_WEIGHT>
580.74988

> <PUBCHEM_OPENEYE_CAN_SMILES>
CC1CCC2(C(C3C(O2)CC4C3(CCC5C4CCC6(C5(C(CC(C6)OC7C(C(C(CO7)O)O)O)O)C)O)C)C)OC1

> <PUBCHEM_OPENEYE_ISO_SMILES>
C[C@H]1CC[C@@]2([C@H]([C@H]3[C@@H](O2)C[C@@H]4[C@@]3(CC[C@H]5[C@H]4CC[C@]6([C@@]5([C@@H](C[C@@H](C6)O[C@H]7[C@@H]([C@H]([C@H](CO7)O)O)O)O)C)O)C)C)OC1

> <PUBCHEM_CACTVS_TPSA>
138

> <PUBCHEM_MONOISOTOPIC_WEIGHT>
580.361133

> <PUBCHEM_TOTAL_CHARGE>
0

> <PUBCHEM_HEAVY_ATOM_COUNT>
41

> <PUBCHEM_ATOM_DEF_STEREO_COUNT>
17

> <PUBCHEM_ATOM_UDEF_STEREO_COUNT>
0

> <PUBCHEM_BOND_DEF_STEREO_COUNT>
0

> <PUBCHEM_BOND_UDEF_STEREO_COUNT>
0

> <PUBCHEM_ISOTOPIC_ATOM_COUNT>
0

> <PUBCHEM_COMPONENT_COUNT>
1

> <PUBCHEM_CACTVS_TAUTO_COUNT>
1

> <PUBCHEM_COORDINATE_TYPE>
1
5
255

> <PUBCHEM_BONDANNOTATIONS>
24  1  5
10  25  6
11  42  5
12  43  6
13  44  5
14  45  5
15  28  6
16  46  5
20  2  6
21  31  5
35  37  6
26  4  6
30  5  6
36  5  5
38  7  6
39  8  5
41  9  5

$$$$

