   Color/Form

     * Orthorhombic, rectangular plates
     * Colorless, crystals, flakes, or powder
     * White crystals

   from [1]HSDB

   Odor

     * Pleasant, fragrant odor resembling that of vanilla beans.
     * Hay-like bittersweet odor

   from [2]HSDB

   Taste

     * Bitter undertone; nut-like flavor on dilution
     * Bitter, aromatic
     * Burning taste

   from [3]HSDB

   Boiling Point
        301.71 deg C
   from [4]HSDB

   Melting Point
        71 deg C
   from [5]HSDB

   Density/Specific Gravity
        0.935 @ 20 deg C/4 deg C
   from [6]HSDB

   Octanol/Water Partition Coefficient
        log Kow = 1.39
   from [7]HSDB

   Solubilities

     * Soluble in ethanol; very soluble in ether and chloroform
     * Freely soluble in oils
     * Soluble in aqueous alkali, oxygenated and chlorinated solvents
     * In chloroform 49.4 g/100 g @ 25 deg C; in pyridine 87.7 g/100 g @
       20-25 deg C
     * In water, 1,900 mg/l @ 20 deg C

   from [8]HSDB

   Spectral Properties

     * MAX ABSORPTION (ALCOHOL): 274.5 NM (LOG E= 4.20); 312 NM (LOG E=
       3.91)
     * IR: 270 (Sadtler Research Laboratories IR Grating Collection)
     * UV: 492 (Sadtler Research Laboratories Spectral Collection)
     * NMR: 225 (Varian Associates NMR Spectra Catalogue)
     * RAMAN: 130 (Sadtler Research Laboratories IR Grating collection)
     * 13C NMR: 33 (Johnson and Jankowski, Carbon13 NMR Spectra, John
       Wiley & Sons, New York)
     * MASS: 71714 (NIST/EPA/MSDC Mass Spectral Database, 1990 version);
       99 (Aldermaston Eight Peak Index of Mass Spectra UK)

   from [9]HSDB

   Vapor Pressure
        9.8X10-4 mm Hg @ 25 deg C, extrapolated
   from [10]HSDB

   Other Chemical/Physical Properties

     * VP: 1 mm Hg @ 106.0 deg C; 40 mm Hg @ 189 deg C
     * 1 g dissolves in 400 ml cold, 50 ml boiling water
     * The lactone is easily hydrolyzed to the corresponding salts of
       coumarinic acid or o-hydroxy-cis-cinnamic acid.

   from [11]HSDB

   Computed Properties
   Molecular Weight                  146.14274 [g/mol]
   Molecular Formula                 C[9]H[6]O[2]
   XLogP3                            1.4
   H-Bond Donor                      0
   H-Bond Acceptor                   2
   Rotatable Bond Count              0
   Exact Mass                        146.036779
   MonoIsotopic Mass                 146.036779
   Topological Polar Surface Area    26.3
   Heavy Atom Count                  11
   Formal Charge                     0
   Complexity                        196
   Isotope Atom Count                0
   Defined Atom Stereocenter Count   0
   Undefined Atom Stereocenter Count 0
   Defined Bond Stereocenter Count   0
   Undefined Bond Stereocenter Count 0
   Covalently-Bonded Unit Count      1
   Feature 3D Acceptor Count         1
   Feature 3D Ring Count             2
   Effective Rotor Count             0
   Conformer Sampling RMSD           0.4
   CID Conformer Count               [12]1

References

   1. http://toxnet.nlm.nih.gov/cgi-bin/sis/search/r?dbs+hsdb:@term+@rn+@rel+91-64-5
   2. http://toxnet.nlm.nih.gov/cgi-bin/sis/search/r?dbs+hsdb:@term+@rn+@rel+91-64-5
   3. http://toxnet.nlm.nih.gov/cgi-bin/sis/search/r?dbs+hsdb:@term+@rn+@rel+91-64-5
   4. http://toxnet.nlm.nih.gov/cgi-bin/sis/search/r?dbs+hsdb:@term+@rn+@rel+91-64-5
   5. http://toxnet.nlm.nih.gov/cgi-bin/sis/search/r?dbs+hsdb:@term+@rn+@rel+91-64-5
   6. http://toxnet.nlm.nih.gov/cgi-bin/sis/search/r?dbs+hsdb:@term+@rn+@rel+91-64-5
   7. http://toxnet.nlm.nih.gov/cgi-bin/sis/search/r?dbs+hsdb:@term+@rn+@rel+91-64-5
   8. http://toxnet.nlm.nih.gov/cgi-bin/sis/search/r?dbs+hsdb:@term+@rn+@rel+91-64-5
   9. http://toxnet.nlm.nih.gov/cgi-bin/sis/search/r?dbs+hsdb:@term+@rn+@rel+91-64-5
  10. http://toxnet.nlm.nih.gov/cgi-bin/sis/search/r?dbs+hsdb:@term+@rn+@rel+91-64-5
  11. http://toxnet.nlm.nih.gov/cgi-bin/sis/search/r?dbs+hsdb:@term+@rn+@rel+91-64-5
  12. http://pubchem.ncbi.nlm.nih.gov/vw3d/vw3d.cgi?cid=323
