68628
  -OEChem-07051213012D

 28 29  0     1  0  0  0  0  0999 V2000
    3.0748    0.0000    0.0000 Cl  0  0  0  0  0  0  0  0  0  0  0  0
    6.1051    3.0945    0.0000 S   0  0  0  0  0  0  0  0  0  0  0  0
    5.1588    4.3993    0.0000 N   0  0  0  0  0  0  0  0  0  0  0  0
    4.2078    3.0902    0.0000 N   0  0  0  0  0  0  0  0  0  0  0  0
    4.2078    4.7083    0.0000 C   0  0  0  0  0  0  0  0  0  0  0  0
    3.6200    3.8993    0.0000 C   0  0  3  0  0  0  0  0  0  0  0  0
    6.1051    4.7040    0.0000 C   0  0  0  0  0  0  0  0  0  0  0  0
    5.1588    3.3993    0.0000 C   0  0  0  0  0  0  0  0  0  0  0  0
    6.6887    3.8993    0.0000 C   0  0  0  0  0  0  0  0  0  0  0  0
    2.6200    3.8993    0.0000 C   0  0  0  0  0  0  0  0  0  0  0  0
    2.1200    4.7653    0.0000 C   0  0  0  0  0  0  0  0  0  0  0  0
    2.1200    3.0332    0.0000 C   0  0  0  0  0  0  0  0  0  0  0  0
    1.1200    4.7653    0.0000 C   0  0  0  0  0  0  0  0  0  0  0  0
    1.1200    3.0332    0.0000 C   0  0  0  0  0  0  0  0  0  0  0  0
    0.6200    3.8993    0.0000 C   0  0  0  0  0  0  0  0  0  0  0  0
    4.4600    5.2747    0.0000 H   0  0  0  0  0  0  0  0  0  0  0  0
    3.6708    5.0183    0.0000 H   0  0  0  0  0  0  0  0  0  0  0  0
    3.3385    3.3468    0.0000 H   0  0  0  0  0  0  0  0  0  0  0  0
    6.6424    5.0132    0.0000 H   0  0  0  0  0  0  0  0  0  0  0  0
    5.8540    5.2709    0.0000 H   0  0  0  0  0  0  0  0  0  0  0  0
    7.1495    3.4845    0.0000 H   0  0  0  0  0  0  0  0  0  0  0  0
    7.1495    4.3140    0.0000 H   0  0  0  0  0  0  0  0  0  0  0  0
    2.4300    5.3022    0.0000 H   0  0  0  0  0  0  0  0  0  0  0  0
    2.4300    2.4963    0.0000 H   0  0  0  0  0  0  0  0  0  0  0  0
    0.8100    5.3022    0.0000 H   0  0  0  0  0  0  0  0  0  0  0  0
    0.8100    2.4963    0.0000 H   0  0  0  0  0  0  0  0  0  0  0  0
    0.0000    3.8993    0.0000 H   0  0  0  0  0  0  0  0  0  0  0  0
    4.0748    0.0000    0.0000 H   0  0  0  0  0  0  0  0  0  0  0  0
  1 28  1  0  0  0  0
  2  8  1  0  0  0  0
  2  9  1  0  0  0  0
  3  5  1  0  0  0  0
  3  7  1  0  0  0  0
  3  8  1  0  0  0  0
  4  6  1  0  0  0  0
  4  8  2  0  0  0  0
  5  6  1  0  0  0  0
  5 16  1  0  0  0  0
  5 17  1  0  0  0  0
  6 10  1  0  0  0  0
  6 18  1  0  0  0  0
  7  9  1  0  0  0  0
  7 19  1  0  0  0  0
  7 20  1  0  0  0  0
  9 21  1  0  0  0  0
  9 22  1  0  0  0  0
 10 11  2  0  0  0  0
 10 12  1  0  0  0  0
 11 13  1  0  0  0  0
 11 23  1  0  0  0  0
 12 14  2  0  0  0  0
 12 24  1  0  0  0  0
 13 15  2  0  0  0  0
 13 25  1  0  0  0  0
 14 15  1  0  0  0  0
 14 26  1  0  0  0  0
 15 27  1  0  0  0  0
M  END
> <PUBCHEM_COMPOUND_CID>
68628

> <PUBCHEM_COMPOUND_CANONICALIZED>
1

> <PUBCHEM_CACTVS_COMPLEXITY>
246

> <PUBCHEM_CACTVS_HBOND_ACCEPTOR>
2

> <PUBCHEM_CACTVS_HBOND_DONOR>
1

> <PUBCHEM_CACTVS_ROTATABLE_BOND>
1

> <PUBCHEM_CACTVS_SUBSKEYS>
AAADccBzAABEAAAAAAAAAAAAAAAAAWIAAAAwAAAAAAAQAAABAAAAHAQAAAAADCjFWASxAIMAAAigAiBCJACCEAFgABAJiAAIBIgIYCKAmRGUIABggACIiAcQgIAOAAAAAAAAAAAAAAAAAAAAAAAAAAAAAA==

> <PUBCHEM_IUPAC_OPENEYE_NAME>
6-phenyl-2,3,5,6-tetrahydroimidazo[2,1-b]thiazole hydrochloride

> <PUBCHEM_IUPAC_CAS_NAME>
6-phenyl-2,3,5,6-tetrahydroimidazo[2,1-b]thiazole hydrochloride

> <PUBCHEM_IUPAC_NAME>
6-phenyl-2,3,5,6-tetrahydroimidazo[2,1-b][1,3]thiazole hydrochloride

> <PUBCHEM_IUPAC_SYSTEMATIC_NAME>
6-phenyl-2,3,5,6-tetrahydroimidazo[2,1-b][1,3]thiazole hydrochloride

> <PUBCHEM_IUPAC_TRADITIONAL_NAME>
6-phenyl-2,3,5,6-tetrahydroimidazo[2,1-b]thiazole hydrochloride

> <PUBCHEM_IUPAC_INCHI>
InChI=1S/C11H12N2S.ClH/c1-2-4-9(5-3-1)10-8-13-6-7-14-11(13)12-10;/h1-5,10H,6-8H2;1H

> <PUBCHEM_IUPAC_INCHIKEY>
LAZPBGZRMVRFKY-UHFFFAOYSA-N

> <PUBCHEM_EXACT_MASS>
240.048797

> <PUBCHEM_MOLECULAR_FORMULA>
C11H13ClN2S

> <PUBCHEM_MOLECULAR_WEIGHT>
240.75232

> <PUBCHEM_OPENEYE_CAN_SMILES>
C1CSC2=NC(CN21)C3=CC=CC=C3.Cl

> <PUBCHEM_OPENEYE_ISO_SMILES>
C1CSC2=NC(CN21)C3=CC=CC=C3.Cl

> <PUBCHEM_CACTVS_TPSA>
40.9

> <PUBCHEM_MONOISOTOPIC_WEIGHT>
240.048797

> <PUBCHEM_TOTAL_CHARGE>
0

> <PUBCHEM_HEAVY_ATOM_COUNT>
15

> <PUBCHEM_ATOM_DEF_STEREO_COUNT>
0

> <PUBCHEM_ATOM_UDEF_STEREO_COUNT>
1

> <PUBCHEM_BOND_DEF_STEREO_COUNT>
0

> <PUBCHEM_BOND_UDEF_STEREO_COUNT>
0

> <PUBCHEM_ISOTOPIC_ATOM_COUNT>
0

> <PUBCHEM_COMPONENT_COUNT>
2

> <PUBCHEM_CACTVS_TAUTO_COUNT>
1

> <PUBCHEM_COORDINATE_TYPE>
1
5
255

> <PUBCHEM_BONDANNOTATIONS>
10  11  8
10  12  8
11  13  8
12  14  8
13  15  8
14  15  8
6  10  3

$$$$

