   Color/Form
        Crystals from absolute ethanol
   from [1]HSDB

   Melting Point
        208 deg C (decomposes)
   from [2]HSDB

   Octanol/Water Partition Coefficient
        log Kow = 3.99 (est)
   from [3]HSDB

   Solubilities
        In water, 2.83 mg/L at 25 deg C (est)
   from [4]HSDB

   Vapor Pressure
        7X10-11 mm Hg at 25 deg C (est)
   from [5]HSDB

   Other Chemical/Physical Properties

     * Yellow bitter crystals. Decomposes at 150-160 deg C. UV max
       (methanol) 342 nm; 341.5 nm (water). Soluble in water, sparingly
       soluble in alcohol. Very slightly soluble in benzene, chloroform,
       and ether. pH 1% aqueous soln = 4-4.8. /Amodiaquine dihydrochloride
       dihydrate/
     * Yellow crystals from methanol. Melting point 243 deg C. Slightly
       soluble in water and alcohol /Amodiaquine dihydrochloride
       hemihydrate/
     * Henry's Law constant = 1X10-17 atm cu m/mol at 25 deg C (est)
     * Hydroxyl radical reaction rate constant = 3.6X10-10 cu cm/molec-sec
       at 25 deg C (est)

   from [6]HSDB

   Computed Properties
   Molecular Weight                  355.86118 [g/mol]
   Molecular Formula                 C[20]H[22]ClN[3]O
   XLogP3                            2.6
   H-Bond Donor                      2
   H-Bond Acceptor                   4
   Rotatable Bond Count              6
   Tautomer Count                    13
   Exact Mass                        355.14514
   MonoIsotopic Mass                 355.14514
   Topological Polar Surface Area    48.4
   Heavy Atom Count                  25
   Formal Charge                     0
   Complexity                        406
   Isotope Atom Count                0
   Defined Atom Stereocenter Count   0
   Undefined Atom Stereocenter Count 0
   Defined Bond Stereocenter Count   0
   Undefined Bond Stereocenter Count 0
   Covalently-Bonded Unit Count      1
   Feature 3D Acceptor Count         1
   Feature 3D Donor Count            2
   Feature 3D Cation Count           2
   Feature 3D Ring Count             3
   Effective Rotor Count             6
   Conformer Sampling RMSD           0.8
   CID Conformer Count               [7]134

References

   1. http://toxnet.nlm.nih.gov/cgi-bin/sis/search/r?dbs+hsdb:@term+@rn+@rel+86-42-0
   2. http://toxnet.nlm.nih.gov/cgi-bin/sis/search/r?dbs+hsdb:@term+@rn+@rel+86-42-0
   3. http://toxnet.nlm.nih.gov/cgi-bin/sis/search/r?dbs+hsdb:@term+@rn+@rel+86-42-0
   4. http://toxnet.nlm.nih.gov/cgi-bin/sis/search/r?dbs+hsdb:@term+@rn+@rel+86-42-0
   5. http://toxnet.nlm.nih.gov/cgi-bin/sis/search/r?dbs+hsdb:@term+@rn+@rel+86-42-0
   6. http://toxnet.nlm.nih.gov/cgi-bin/sis/search/r?dbs+hsdb:@term+@rn+@rel+86-42-0
   7. http://pubchem.ncbi.nlm.nih.gov/vw3d/vw3d.cgi?cid=2165
