13540
  -OEChem-06241222392D

 43 42  0     0  0  0  0  0  0999 V2000
    6.8671    0.9050    0.0000 O   0  0  0  0  0  0  0  0  0  0  0  0
   10.3312    3.9050    0.0000 O   0  0  0  0  0  0  0  0  0  0  0  0
    5.1350    3.9050    0.0000 O   0  0  0  0  0  0  0  0  0  0  0  0
    6.0010   -3.5950    0.0000 O   0  0  0  0  0  0  0  0  0  0  0  0
    2.5369   -0.5950    0.0000 O   0  0  0  0  0  0  0  0  0  0  0  0
    9.4651    2.4050    0.0000 O   0  0  0  0  0  0  0  0  0  0  0  0
    6.0010    2.4050    0.0000 O   0  0  0  0  0  0  0  0  0  0  0  0
    6.8671   -2.0950    0.0000 O   0  0  0  0  0  0  0  0  0  0  0  0
    3.4030   -2.0950    0.0000 O   0  0  0  0  0  0  0  0  0  0  0  0
    7.7331    3.4050    0.0000 N   0  0  0  0  0  0  0  0  0  0  0  0
    5.1350   -1.0950    0.0000 N   0  0  0  0  0  0  0  0  0  0  0  0
    7.7331    2.4050    0.0000 C   0  0  0  0  0  0  0  0  0  0  0  0
    6.0010   -0.5950    0.0000 C   0  0  0  0  0  0  0  0  0  0  0  0
    6.8671    1.9050    0.0000 C   0  0  0  0  0  0  0  0  0  0  0  0
    6.0010    0.4050    0.0000 C   0  0  0  0  0  0  0  0  0  0  0  0
    8.5991    3.9050    0.0000 C   0  0  0  0  0  0  0  0  0  0  0  0
    6.8671    3.9050    0.0000 C   0  0  0  0  0  0  0  0  0  0  0  0
    5.1350   -2.0950    0.0000 C   0  0  0  0  0  0  0  0  0  0  0  0
    4.2690   -0.5950    0.0000 C   0  0  0  0  0  0  0  0  0  0  0  0
    9.4651    3.4050    0.0000 C   0  0  0  0  0  0  0  0  0  0  0  0
    6.0010    3.4050    0.0000 C   0  0  0  0  0  0  0  0  0  0  0  0
    6.0010   -2.5950    0.0000 C   0  0  0  0  0  0  0  0  0  0  0  0
    3.4030   -1.0950    0.0000 C   0  0  0  0  0  0  0  0  0  0  0  0
    6.2131   -1.1776    0.0000 H   0  0  0  0  0  0  0  0  0  0  0  0
    6.6116   -0.4873    0.0000 H   0  0  0  0  0  0  0  0  0  0  0  0
    7.9451    1.8224    0.0000 H   0  0  0  0  0  0  0  0  0  0  0  0
    8.3437    2.5127    0.0000 H   0  0  0  0  0  0  0  0  0  0  0  0
    5.7890    0.9876    0.0000 H   0  0  0  0  0  0  0  0  0  0  0  0
    5.3905    0.2973    0.0000 H   0  0  0  0  0  0  0  0  0  0  0  0
    6.6550    2.4876    0.0000 H   0  0  0  0  0  0  0  0  0  0  0  0
    6.2565    1.7973    0.0000 H   0  0  0  0  0  0  0  0  0  0  0  0
    8.9976    4.3800    0.0000 H   0  0  0  0  0  0  0  0  0  0  0  0
    8.2006    4.3800    0.0000 H   0  0  0  0  0  0  0  0  0  0  0  0
    7.2656    4.3800    0.0000 H   0  0  0  0  0  0  0  0  0  0  0  0
    6.4685    4.3800    0.0000 H   0  0  0  0  0  0  0  0  0  0  0  0
    4.5244   -1.9873    0.0000 H   0  0  0  0  0  0  0  0  0  0  0  0
    4.9230   -2.6776    0.0000 H   0  0  0  0  0  0  0  0  0  0  0  0
    4.6675   -0.1201    0.0000 H   0  0  0  0  0  0  0  0  0  0  0  0
    3.8705   -0.1201    0.0000 H   0  0  0  0  0  0  0  0  0  0  0  0
   10.8681    3.5950    0.0000 H   0  0  0  0  0  0  0  0  0  0  0  0
    4.5981    3.5950    0.0000 H   0  0  0  0  0  0  0  0  0  0  0  0
    6.5380   -3.9050    0.0000 H   0  0  0  0  0  0  0  0  0  0  0  0
    2.0000   -0.9050    0.0000 H   0  0  0  0  0  0  0  0  0  0  0  0
  1 14  1  0  0  0  0
  1 15  1  0  0  0  0
  2 20  1  0  0  0  0
  2 40  1  0  0  0  0
  3 21  1  0  0  0  0
  3 41  1  0  0  0  0
  4 22  1  0  0  0  0
  4 42  1  0  0  0  0
  5 23  1  0  0  0  0
  5 43  1  0  0  0  0
  6 20  2  0  0  0  0
  7 21  2  0  0  0  0
  8 22  2  0  0  0  0
  9 23  2  0  0  0  0
 10 12  1  0  0  0  0
 10 16  1  0  0  0  0
 10 17  1  0  0  0  0
 11 13  1  0  0  0  0
 11 18  1  0  0  0  0
 11 19  1  0  0  0  0
 12 14  1  0  0  0  0
 12 26  1  0  0  0  0
 12 27  1  0  0  0  0
 13 15  1  0  0  0  0
 13 24  1  0  0  0  0
 13 25  1  0  0  0  0
 14 30  1  0  0  0  0
 14 31  1  0  0  0  0
 15 28  1  0  0  0  0
 15 29  1  0  0  0  0
 16 20  1  0  0  0  0
 16 32  1  0  0  0  0
 16 33  1  0  0  0  0
 17 21  1  0  0  0  0
 17 34  1  0  0  0  0
 17 35  1  0  0  0  0
 18 22  1  0  0  0  0
 18 36  1  0  0  0  0
 18 37  1  0  0  0  0
 19 23  1  0  0  0  0
 19 38  1  0  0  0  0
 19 39  1  0  0  0  0
M  END
> <PUBCHEM_COMPOUND_CID>
13540

> <PUBCHEM_COMPOUND_CANONICALIZED>
1

> <PUBCHEM_CACTVS_COMPLEXITY>
357

> <PUBCHEM_CACTVS_HBOND_ACCEPTOR>
11

> <PUBCHEM_CACTVS_HBOND_DONOR>
4

> <PUBCHEM_CACTVS_ROTATABLE_BOND>
14

> <PUBCHEM_CACTVS_SUBSKEYS>
AAADceBzPAAAAAAAAAAAAAAAAAAAAAAAAAAAAAAAAAAAAAAAAAAAHgAACAAAAADhgAYACAMABgAIAACQCAAAAAAAAAAAAACIAAACAAAAACADAAAAAACQAAAAAAAAAAAAAAAAAAAAAAAAAAAAAAAAAAAAAA==

> <PUBCHEM_IUPAC_OPENEYE_NAME>
2-[2-[2-[bis(carboxymethyl)amino]ethoxy]ethyl-(carboxymethyl)amino]acetic acid

> <PUBCHEM_IUPAC_CAS_NAME>
2-[2-[2-[bis(carboxymethyl)amino]ethoxy]ethyl-(carboxymethyl)amino]acetic acid

> <PUBCHEM_IUPAC_NAME>
2-[2-[2-[bis(carboxymethyl)amino]ethoxy]ethyl-(carboxymethyl)amino]acetic acid

> <PUBCHEM_IUPAC_SYSTEMATIC_NAME>
2-[2-[2-[bis(2-hydroxy-2-oxoethyl)amino]ethoxy]ethyl-(2-hydroxy-2-oxoethyl)amino]ethanoic acid

> <PUBCHEM_IUPAC_TRADITIONAL_NAME>
2-[2-[2-[bis(carboxymethyl)amino]ethoxy]ethyl-(carboxymethyl)amino]acetic acid

> <PUBCHEM_IUPAC_INCHI>
InChI=1S/C12H20N2O9/c15-9(16)5-13(6-10(17)18)1-3-23-4-2-14(7-11(19)20)8-12(21)22/h1-8H2,(H,15,16)(H,17,18)(H,19,20)(H,21,22)

> <PUBCHEM_IUPAC_INCHIKEY>
SLVOVFVZZFUEAS-UHFFFAOYSA-N

> <PUBCHEM_XLOGP3_AA>
-6

> <PUBCHEM_EXACT_MASS>
336.11688

> <PUBCHEM_MOLECULAR_FORMULA>
C12H20N2O9

> <PUBCHEM_MOLECULAR_WEIGHT>
336.2952

> <PUBCHEM_OPENEYE_CAN_SMILES>
C(COCCN(CC(=O)O)CC(=O)O)N(CC(=O)O)CC(=O)O

> <PUBCHEM_OPENEYE_ISO_SMILES>
C(COCCN(CC(=O)O)CC(=O)O)N(CC(=O)O)CC(=O)O

> <PUBCHEM_CACTVS_TPSA>
165

> <PUBCHEM_MONOISOTOPIC_WEIGHT>
336.11688

> <PUBCHEM_TOTAL_CHARGE>
0

> <PUBCHEM_HEAVY_ATOM_COUNT>
23

> <PUBCHEM_ATOM_DEF_STEREO_COUNT>
0

> <PUBCHEM_ATOM_UDEF_STEREO_COUNT>
0

> <PUBCHEM_BOND_DEF_STEREO_COUNT>
0

> <PUBCHEM_BOND_UDEF_STEREO_COUNT>
0

> <PUBCHEM_ISOTOPIC_ATOM_COUNT>
0

> <PUBCHEM_COMPONENT_COUNT>
1

> <PUBCHEM_CACTVS_TAUTO_COUNT>
1

> <PUBCHEM_COORDINATE_TYPE>
1
5
255

$$$$

