   Color/Form

     * Pale yellow liquid
     * Pale yellow oil

   from [1]HSDB

   Boiling Point
        86-91 deg C @ 0.2 mm Hg
   from [2]HSDB

   Melting Point
        -13 deg C
   from [3]HSDB

   Corrosivity
        Non-corrosive to metals
   from [4]HSDB

   Density/Specific Gravity
        1.094 g/cu cm @ 20 deg C
   from [5]HSDB

   Octanol/Water Partition Coefficient
        log Kow = 3.59 @ 21 deg C
   from [6]HSDB

   Solubilities

     * Readily sol in most organic solvents
     * SOLUBLE IN KEROSENE
     * Solubility >300 g/kg @ 20 deg C in acetone, ethanol, xylene,
       1,2-dichloroethane, diethyl ether, ethyl acetate, petroleum spirit,
       cyclohexane
     * In water, 750 mg/l @ 20-25 deg C

   from [7]HSDB

   Spectral Properties
        Intense mass spectral peaks: 158 m/z (100%), 43 m/z (85%), 97 m/z
   (73%), 139 m/z (58%)
   from [8]HSDB

   Vapor Pressure
        3.8X10-4 mm Hg @ 20-25 deg C
   from [9]HSDB

   Computed Properties
   Molecular Weight                  242.339022 [g/mol]
   Molecular Formula                 C[8]H[19]O[2]PS[2]
   XLogP3                            3.6
   H-Bond Donor                      0
   H-Bond Acceptor                   4
   Rotatable Bond Count              8
   Exact Mass                        242.056408
   MonoIsotopic Mass                 242.056408
   Topological Polar Surface Area    76.9
   Heavy Atom Count                  13
   Formal Charge                     0
   Complexity                        152
   Isotope Atom Count                0
   Defined Atom Stereocenter Count   0
   Undefined Atom Stereocenter Count 0
   Defined Bond Stereocenter Count   0
   Undefined Bond Stereocenter Count 0
   Covalently-Bonded Unit Count      1
   Feature 3D Hydrophobe Count       2
   Effective Rotor Count             8
   Conformer Sampling RMSD           0.8
   CID Conformer Count               [10]191

References

   1. http://toxnet.nlm.nih.gov/cgi-bin/sis/search/r?dbs+hsdb:@term+@rn+@rel+13194-48-4
   2. http://toxnet.nlm.nih.gov/cgi-bin/sis/search/r?dbs+hsdb:@term+@rn+@rel+13194-48-4
   3. http://toxnet.nlm.nih.gov/cgi-bin/sis/search/r?dbs+hsdb:@term+@rn+@rel+13194-48-4
   4. http://toxnet.nlm.nih.gov/cgi-bin/sis/search/r?dbs+hsdb:@term+@rn+@rel+13194-48-4
   5. http://toxnet.nlm.nih.gov/cgi-bin/sis/search/r?dbs+hsdb:@term+@rn+@rel+13194-48-4
   6. http://toxnet.nlm.nih.gov/cgi-bin/sis/search/r?dbs+hsdb:@term+@rn+@rel+13194-48-4
   7. http://toxnet.nlm.nih.gov/cgi-bin/sis/search/r?dbs+hsdb:@term+@rn+@rel+13194-48-4
   8. http://toxnet.nlm.nih.gov/cgi-bin/sis/search/r?dbs+hsdb:@term+@rn+@rel+13194-48-4
   9. http://toxnet.nlm.nih.gov/cgi-bin/sis/search/r?dbs+hsdb:@term+@rn+@rel+13194-48-4
  10. http://pubchem.ncbi.nlm.nih.gov/vw3d/vw3d.cgi?cid=3289
