24892798
  -OEChem-07051213092D

 98 98  0     1  0  0  0  0  0999 V2000
    8.4191    0.2304    0.0000 S   0  0  0  0  0  0  0  0  0  0  0  0
    8.8449   -0.6744    0.0000 S   0  0  0  0  0  0  0  0  0  0  0  0
    7.6987    3.5876    0.0000 O   0  0  0  0  0  0  0  0  0  0  0  0
   10.3765    6.1022    0.0000 O   0  0  0  0  0  0  0  0  0  0  0  0
   10.9724   -3.3694    0.0000 O   0  0  0  0  0  0  0  0  0  0  0  0
    6.9877    0.6967    0.0000 O   0  0  0  0  0  0  0  0  0  0  0  0
    8.2918   -2.0746    0.0000 O   0  0  0  0  0  0  0  0  0  0  0  0
   14.6169   -2.9090    0.0000 O   0  0  0  0  0  0  0  0  0  0  0  0
    2.4051    0.6893    0.0000 O   0  0  0  0  0  0  0  0  0  0  0  0
    5.3650   -5.6008    0.0000 O   0  0  0  0  0  0  0  0  0  0  0  0
    3.7163   -0.4425    0.0000 O   0  0  0  0  0  0  0  0  0  0  0  0
    5.3287   -3.8691    0.0000 O   0  0  0  0  0  0  0  0  0  0  0  0
   16.1319    2.2107    0.0000 N   0  0  0  0  0  0  0  0  0  0  0  0
   11.7132    5.4211    0.0000 N   0  0  0  0  0  0  0  0  0  0  0  0
    7.3122    2.3981    0.0000 N   0  0  0  0  0  0  0  0  0  0  0  0
   14.9441   -1.4449    0.0000 N   0  0  0  0  0  0  0  0  0  0  0  0
    9.8096   -2.9090    0.0000 N   0  0  0  0  0  0  0  0  0  0  0  0
    9.1394    4.0061    0.0000 N   0  0  0  0  0  0  0  0  0  0  0  0
   12.2132   -2.5262    0.0000 N   0  0  0  0  0  0  0  0  0  0  0  0
    3.7120    2.2033    0.0000 N   0  0  0  0  0  0  0  0  0  0  0  0
    7.3646   -5.5589    0.0000 N   0  0  0  0  0  0  0  0  0  0  0  0
   14.5581    4.6907    0.0000 C   0  0  0  0  0  0  0  0  0  0  0  0
   15.2871    4.0061    0.0000 C   0  0  0  0  0  0  0  0  0  0  0  0
   13.6818    5.1724    0.0000 C   0  0  0  0  0  0  0  0  0  0  0  0
   15.8229    3.1618    0.0000 C   0  0  0  0  0  0  0  0  0  0  0  0
   12.7132    5.4211    0.0000 C   0  0  0  0  0  0  0  0  0  0  0  0
   16.1947    1.2127    0.0000 C   0  0  0  0  0  0  0  0  0  0  0  0
   16.0073    0.2304    0.0000 C   0  0  0  0  0  0  0  0  0  0  0  0
   15.5816   -0.6744    0.0000 C   0  0  0  0  0  0  0  0  0  0  0  0
    8.2945    2.2107    0.0000 C   0  0  1  0  0  0  0  0  0  0  0  0
   10.2913   -2.0327    0.0000 C   0  0  1  0  0  0  0  0  0  0  0  0
    8.2317    1.2127    0.0000 C   0  0  0  0  0  0  0  0  0  0  0  0
    9.4823   -1.4449    0.0000 C   0  0  0  0  0  0  0  0  0  0  0  0
    5.6765    1.8285    0.0000 C   0  0  0  0  0  0  0  0  0  0  0  0
    5.0231    1.0715    0.0000 C   0  0  0  0  0  0  0  0  0  0  0  0
    8.3280   -3.8063    0.0000 C   0  0  0  0  0  0  0  0  0  0  0  0
    7.3283   -3.8272    0.0000 C   0  0  0  0  0  0  0  0  0  0  0  0
   10.7447    5.1724    0.0000 C   0  0  0  0  0  0  0  0  0  0  0  0
    8.6036    3.1618    0.0000 C   0  0  0  0  0  0  0  0  0  0  0  0
    9.8683    4.6907    0.0000 C   0  0  0  0  0  0  0  0  0  0  0  0
   11.2211   -2.4008    0.0000 C   0  0  0  0  0  0  0  0  0  0  0  0
    6.6588    1.6411    0.0000 C   0  0  0  0  0  0  0  0  0  0  0  0
    4.0408    1.2589    0.0000 C   0  0  1  0  0  0  0  0  0  0  0  0
    8.8098   -2.9300    0.0000 C   0  0  0  0  0  0  0  0  0  0  0  0
    6.8465   -4.7035    0.0000 C   0  0  1  0  0  0  0  0  0  0  0  0
   13.2053   -2.4008    0.0000 C   0  0  0  0  0  0  0  0  0  0  0  0
   14.1351   -2.0327    0.0000 C   0  0  0  0  0  0  0  0  0  0  0  0
    3.3874    0.5019    0.0000 C   0  0  0  0  0  0  0  0  0  0  0  0
    5.8467   -4.7245    0.0000 C   0  0  0  0  0  0  0  0  0  0  0  0
   15.1346    4.9189    0.0000 H   0  0  0  0  0  0  0  0  0  0  0  0
   14.1937    4.1891    0.0000 H   0  0  0  0  0  0  0  0  0  0  0  0
   15.9022    4.0838    0.0000 H   0  0  0  0  0  0  0  0  0  0  0  0
   14.8094    3.6109    0.0000 H   0  0  0  0  0  0  0  0  0  0  0  0
   14.1834    5.5368    0.0000 H   0  0  0  0  0  0  0  0  0  0  0  0
   13.4536    4.5960    0.0000 H   0  0  0  0  0  0  0  0  0  0  0  0
   16.4380    3.0841    0.0000 H   0  0  0  0  0  0  0  0  0  0  0  0
   15.2619    2.8978    0.0000 H   0  0  0  0  0  0  0  0  0  0  0  0
   13.1084    5.8988    0.0000 H   0  0  0  0  0  0  0  0  0  0  0  0
   12.6355    4.8060    0.0000 H   0  0  0  0  0  0  0  0  0  0  0  0
   16.6963    0.8483    0.0000 H   0  0  0  0  0  0  0  0  0  0  0  0
   15.5760    1.2516    0.0000 H   0  0  0  0  0  0  0  0  0  0  0  0
   16.7410    2.3269    0.0000 H   0  0  0  0  0  0  0  0  0  0  0  0
   16.4025   -0.2473    0.0000 H   0  0  0  0  0  0  0  0  0  0  0  0
   15.4177    0.4220    0.0000 H   0  0  0  0  0  0  0  0  0  0  0  0
   15.8455   -1.2354    0.0000 H   0  0  0  0  0  0  0  0  0  0  0  0
   15.0581   -0.3422    0.0000 H   0  0  0  0  0  0  0  0  0  0  0  0
    7.9789    2.7444    0.0000 H   0  0  0  0  0  0  0  0  0  0  0  0
    9.6863   -2.1680    0.0000 H   0  0  0  0  0  0  0  0  0  0  0  0
   11.6355    6.0362    0.0000 H   0  0  0  0  0  0  0  0  0  0  0  0
    7.6884    1.5114    0.0000 H   0  0  0  0  0  0  0  0  0  0  0  0
    8.8505    1.2516    0.0000 H   0  0  0  0  0  0  0  0  0  0  0  0
    8.8818   -1.5991    0.0000 H   0  0  0  0  0  0  0  0  0  0  0  0
    9.9067   -0.9930    0.0000 H   0  0  0  0  0  0  0  0  0  0  0  0
    5.8967    2.4081    0.0000 H   0  0  0  0  0  0  0  0  0  0  0  0
    5.1440    2.1460    0.0000 H   0  0  0  0  0  0  0  0  0  0  0  0
    4.8030    0.4919    0.0000 H   0  0  0  0  0  0  0  0  0  0  0  0
    5.5557    0.7540    0.0000 H   0  0  0  0  0  0  0  0  0  0  0  0
    8.2332   -4.4190    0.0000 H   0  0  0  0  0  0  0  0  0  0  0  0
    8.9150   -4.0061    0.0000 H   0  0  0  0  0  0  0  0  0  0  0  0
    7.4231   -3.2145    0.0000 H   0  0  0  0  0  0  0  0  0  0  0  0
    6.7414   -3.6274    0.0000 H   0  0  0  0  0  0  0  0  0  0  0  0
    7.1084    2.9836    0.0000 H   0  0  0  0  0  0  0  0  0  0  0  0
   15.3686   -1.8969    0.0000 H   0  0  0  0  0  0  0  0  0  0  0  0
    9.8294    5.3094    0.0000 H   0  0  0  0  0  0  0  0  0  0  0  0
   10.2328    4.1891    0.0000 H   0  0  0  0  0  0  0  0  0  0  0  0
   10.1308   -3.4393    0.0000 H   0  0  0  0  0  0  0  0  0  0  0  0
    4.4460    1.7282    0.0000 H   0  0  0  0  0  0  0  0  0  0  0  0
    7.4664   -4.6905    0.0000 H   0  0  0  0  0  0  0  0  0  0  0  0
    8.6617    4.4013    0.0000 H   0  0  0  0  0  0  0  0  0  0  0  0
   13.0138   -2.9905    0.0000 H   0  0  0  0  0  0  0  0  0  0  0  0
   13.0512   -1.8003    0.0000 H   0  0  0  0  0  0  0  0  0  0  0  0
   12.2132   -3.1462    0.0000 H   0  0  0  0  0  0  0  0  0  0  0  0
    3.1029    2.3194    0.0000 H   0  0  0  0  0  0  0  0  0  0  0  0
    4.1171    2.6726    0.0000 H   0  0  0  0  0  0  0  0  0  0  0  0
    7.0659   -6.1022    0.0000 H   0  0  0  0  0  0  0  0  0  0  0  0
    7.9844   -5.5459    0.0000 H   0  0  0  0  0  0  0  0  0  0  0  0
    2.0000    0.2199    0.0000 H   0  0  0  0  0  0  0  0  0  0  0  0
    4.7451   -5.6137    0.0000 H   0  0  0  0  0  0  0  0  0  0  0  0
  1  2  1  0  0  0  0
  1 32  1  0  0  0  0
  2 33  1  0  0  0  0
  3 39  2  0  0  0  0
  4 38  2  0  0  0  0
  5 41  2  0  0  0  0
  6 42  2  0  0  0  0
  7 44  2  0  0  0  0
  8 47  2  0  0  0  0
  9 48  1  0  0  0  0
  9 97  1  0  0  0  0
 10 49  1  0  0  0  0
 10 98  1  0  0  0  0
 11 48  2  0  0  0  0
 12 49  2  0  0  0  0
 13 25  1  0  0  0  0
 13 27  1  0  0  0  0
 13 62  1  0  0  0  0
 14 26  1  0  0  0  0
 14 38  1  0  0  0  0
 14 69  1  0  0  0  0
 30 15  1  6  0  0  0
 15 42  1  0  0  0  0
 15 82  1  0  0  0  0
 16 29  1  0  0  0  0
 16 47  1  0  0  0  0
 16 83  1  0  0  0  0
 31 17  1  1  0  0  0
 17 44  1  0  0  0  0
 17 86  1  0  0  0  0
 18 39  1  0  0  0  0
 18 40  1  0  0  0  0
 18 89  1  0  0  0  0
 19 41  1  0  0  0  0
 19 46  1  0  0  0  0
 19 92  1  0  0  0  0
 43 20  1  1  0  0  0
 20 93  1  0  0  0  0
 20 94  1  0  0  0  0
 45 21  1  6  0  0  0
 21 95  1  0  0  0  0
 21 96  1  0  0  0  0
 22 23  1  0  0  0  0
 22 24  1  0  0  0  0
 22 50  1  0  0  0  0
 22 51  1  0  0  0  0
 23 25  1  0  0  0  0
 23 52  1  0  0  0  0
 23 53  1  0  0  0  0
 24 26  1  0  0  0  0
 24 54  1  0  0  0  0
 24 55  1  0  0  0  0
 25 56  1  0  0  0  0
 25 57  1  0  0  0  0
 26 58  1  0  0  0  0
 26 59  1  0  0  0  0
 27 28  1  0  0  0  0
 27 60  1  0  0  0  0
 27 61  1  0  0  0  0
 28 29  1  0  0  0  0
 28 63  1  0  0  0  0
 28 64  1  0  0  0  0
 29 65  1  0  0  0  0
 29 66  1  0  0  0  0
 30 32  1  0  0  0  0
 30 39  1  0  0  0  0
 30 67  1  0  0  0  0
 31 33  1  0  0  0  0
 31 41  1  0  0  0  0
 31 68  1  0  0  0  0
 32 70  1  0  0  0  0
 32 71  1  0  0  0  0
 33 72  1  0  0  0  0
 33 73  1  0  0  0  0
 34 35  1  0  0  0  0
 34 42  1  0  0  0  0
 34 74  1  0  0  0  0
 34 75  1  0  0  0  0
 35 43  1  0  0  0  0
 35 76  1  0  0  0  0
 35 77  1  0  0  0  0
 36 37  1  0  0  0  0
 36 44  1  0  0  0  0
 36 78  1  0  0  0  0
 36 79  1  0  0  0  0
 37 45  1  0  0  0  0
 37 80  1  0  0  0  0
 37 81  1  0  0  0  0
 38 40  1  0  0  0  0
 40 84  1  0  0  0  0
 40 85  1  0  0  0  0
 43 48  1  0  0  0  0
 43 87  1  0  0  0  0
 45 49  1  0  0  0  0
 45 88  1  0  0  0  0
 46 47  1  0  0  0  0
 46 90  1  0  0  0  0
 46 91  1  0  0  0  0
M  END
> <PUBCHEM_COMPOUND_CID>
24892798

> <PUBCHEM_COMPOUND_CANONICALIZED>
1

> <PUBCHEM_CACTVS_COMPLEXITY>
1130

> <PUBCHEM_CACTVS_HBOND_ACCEPTOR>
15

> <PUBCHEM_CACTVS_HBOND_DONOR>
11

> <PUBCHEM_CACTVS_ROTATABLE_BOND>
10

> <PUBCHEM_CACTVS_SUBSKEYS>
AAADcfB7/ABgAAAAAAAAAAAAAAAAAAAAAAAAAAAAAAAAAAAAAAAAHgQQCAAACCjFwASACALAAgAIAAGQGAAAAAAAAAAAAIGIAAACQBIAwCAUQAAEFgCAAACcFwIAAAAAAAAAAAAAAAAAAAAAAAAAAAAAAA==

> <PUBCHEM_IUPAC_OPENEYE_NAME>
(2S)-2-amino-5-[[(4R,24R)-4-[[(4S)-4-amino-4-carboxy-butanoyl]amino]-5,8,20,23-tetraoxo-1,2-dithia-6,9,13,19,22-pentazacyclopentacos-24-yl]amino]-5-oxo-pentanoic acid

> <PUBCHEM_IUPAC_CAS_NAME>
(2S)-2-amino-5-[[(4R,24R)-4-[[(4S)-4-amino-4-carboxy-1-oxobutyl]amino]-5,8,20,23-tetraoxo-1,2-dithia-6,9,13,19,22-pentazacyclopentacos-24-yl]amino]-5-oxopentanoic acid

> <PUBCHEM_IUPAC_NAME>
(2S)-2-amino-5-[[(4R,24R)-4-[[(4S)-4-amino-4-carboxybutanoyl]amino]-5,8,20,23-tetraoxo-1,2-dithia-6,9,13,19,22-pentazacyclopentacos-24-yl]amino]-5-oxopentanoic acid

> <PUBCHEM_IUPAC_SYSTEMATIC_NAME>
(2S)-2-azanyl-5-[[(4R,24R)-4-[[(4S)-4-azanyl-5-oxidanyl-5-oxidanylidene-pentanoyl]amino]-5,8,20,23-tetrakis(oxidanylidene)-1,2-dithia-6,9,13,19,22-pentazacyclopentacos-24-yl]amino]-5-oxidanylidene-pentanoic acid

> <PUBCHEM_IUPAC_TRADITIONAL_NAME>
(2S)-2-amino-5-[[(4R,24R)-4-[[(4S)-4-amino-4-carboxy-butanoyl]amino]-5,8,20,23-tetraketo-1,2-dithia-6,9,13,19,22-pentazacyclopentacos-24-yl]amino]-5-keto-valeric acid

> <PUBCHEM_IUPAC_INCHI>
InChI=1S/C28H49N9O10S2/c29-17(27(44)45)5-7-21(38)36-19-15-48-49-16-20(37-22(39)8-6-18(30)28(46)47)26(43)35-14-24(41)33-12-4-10-31-9-2-1-3-11-32-23(40)13-34-25(19)42/h17-20,31H,1-16,29-30H2,(H,32,40)(H,33,41)(H,34,42)(H,35,43)(H,36,38)(H,37,39)(H,44,45)(H,46,47)/t17-,18-,19-,20-/m0/s1

> <PUBCHEM_IUPAC_INCHIKEY>
RNFGJWAPSRFYAS-MUGJNUQGSA-N

> <PUBCHEM_XLOGP3_AA>
-8.8

> <PUBCHEM_EXACT_MASS>
735.304381

> <PUBCHEM_MOLECULAR_FORMULA>
C28H49N9O10S2

> <PUBCHEM_MOLECULAR_WEIGHT>
735.87296

> <PUBCHEM_OPENEYE_CAN_SMILES>
C1CCNCCCNC(=O)CNC(=O)C(CSSCC(C(=O)NCC(=O)NCC1)NC(=O)CCC(C(=O)O)N)NC(=O)CCC(C(=O)O)N

> <PUBCHEM_OPENEYE_ISO_SMILES>
C1CCNCCCNC(=O)CNC(=O)[C@H](CSSC[C@@H](C(=O)NCC(=O)NCC1)NC(=O)CC[C@@H](C(=O)O)N)NC(=O)CC[C@@H](C(=O)O)N

> <PUBCHEM_CACTVS_TPSA>
364

> <PUBCHEM_MONOISOTOPIC_WEIGHT>
735.304381

> <PUBCHEM_TOTAL_CHARGE>
0

> <PUBCHEM_HEAVY_ATOM_COUNT>
49

> <PUBCHEM_ATOM_DEF_STEREO_COUNT>
4

> <PUBCHEM_ATOM_UDEF_STEREO_COUNT>
0

> <PUBCHEM_BOND_DEF_STEREO_COUNT>
0

> <PUBCHEM_BOND_UDEF_STEREO_COUNT>
0

> <PUBCHEM_ISOTOPIC_ATOM_COUNT>
0

> <PUBCHEM_COMPONENT_COUNT>
1

> <PUBCHEM_CACTVS_TAUTO_COUNT>
324

> <PUBCHEM_COORDINATE_TYPE>
1
5
255

> <PUBCHEM_BONDANNOTATIONS>
30  15  6
31  17  5
43  20  5
45  21  6

$$$$

