440963
  -OEChem-07051212512D

 29 29  0     1  0  0  0  0  0999 V2000
    4.2389    0.6233    0.0000 P   0  0  3  0  0  0  0  0  0  0  0  0
    3.0800    1.9104    0.0000 P   0  0  0  0  0  0  0  0  0  0  0  0
    6.2069   -0.0761    0.0000 O   0  0  0  0  0  0  0  0  0  0  0  0
    4.4468   -0.3549    0.0000 O   0  0  0  0  0  0  0  0  0  0  0  0
    7.2947   -2.4240    0.0000 O   0  0  0  0  0  0  0  0  0  0  0  0
    8.1749    0.6233    0.0000 O   0  0  0  0  0  0  0  0  0  0  0  0
    4.0310    1.6014    0.0000 O   0  0  0  0  0  0  0  0  0  0  0  0
    3.2608    0.4153    0.0000 O   0  0  0  0  0  0  0  0  0  0  0  0
    5.2171    0.8312    0.0000 O   0  0  0  0  0  0  0  0  0  0  0  0
    2.1289    2.2194    0.0000 O   0  0  0  0  0  0  0  0  0  0  0  0
    3.3890    2.8615    0.0000 O   0  0  0  0  0  0  0  0  0  0  0  0
    2.7709    0.9594    0.0000 O   0  0  0  0  0  0  0  0  0  0  0  0
    6.7069   -1.6150    0.0000 C   0  0  2  0  0  0  0  0  0  0  0  0
    7.0159   -0.6639    0.0000 C   0  0  1  0  0  0  0  0  0  0  0  0
    5.7069   -1.6150    0.0000 C   0  0  0  0  0  0  0  0  0  0  0  0
    5.3979   -0.6639    0.0000 C   0  0  3  0  0  0  0  0  0  0  0  0
    7.9670   -0.3549    0.0000 C   0  0  0  0  0  0  0  0  0  0  0  0
    7.3193   -1.5180    0.0000 H   0  0  0  0  0  0  0  0  0  0  0  0
    7.1129   -0.0515    0.0000 H   0  0  0  0  0  0  0  0  0  0  0  0
    5.1005   -1.7439    0.0000 H   0  0  0  0  0  0  0  0  0  0  0  0
    5.7717   -2.2316    0.0000 H   0  0  0  0  0  0  0  0  0  0  0  0
    4.7969   -1.2650    0.0000 H   0  0  0  0  0  0  0  0  0  0  0  0
    8.0533   -0.9689    0.0000 H   0  0  0  0  0  0  0  0  0  0  0  0
    8.5866   -0.3765    0.0000 H   0  0  0  0  0  0  0  0  0  0  0  0
    7.0425   -2.9904    0.0000 H   0  0  0  0  0  0  0  0  0  0  0  0
    8.7646    0.8148    0.0000 H   0  0  0  0  0  0  0  0  0  0  0  0
    3.0692   -0.1743    0.0000 H   0  0  0  0  0  0  0  0  0  0  0  0
    2.0000    2.8259    0.0000 H   0  0  0  0  0  0  0  0  0  0  0  0
    3.9954    2.9904    0.0000 H   0  0  0  0  0  0  0  0  0  0  0  0
  1  4  1  0  0  0  0
  1  7  1  0  0  0  0
  1  8  1  0  0  0  0
  1  9  2  0  0  0  0
  2  7  1  0  0  0  0
  2 10  1  0  0  0  0
  2 11  1  0  0  0  0
  2 12  2  0  0  0  0
  3 14  1  0  0  0  0
  3 16  1  0  0  0  0
  4 16  1  0  0  0  0
 13  5  1  1  0  0  0
  5 25  1  0  0  0  0
  6 17  1  0  0  0  0
  6 26  1  0  0  0  0
  8 27  1  0  0  0  0
 10 28  1  0  0  0  0
 11 29  1  0  0  0  0
 13 14  1  0  0  0  0
 13 15  1  0  0  0  0
 13 18  1  0  0  0  0
 14 17  1  6  0  0  0
 14 19  1  0  0  0  0
 15 16  1  0  0  0  0
 15 20  1  0  0  0  0
 15 21  1  0  0  0  0
 16 22  1  0  0  0  0
 17 23  1  0  0  0  0
 17 24  1  0  0  0  0
M  END
> <PUBCHEM_COMPOUND_CID>
440963

> <PUBCHEM_COMPOUND_CANONICALIZED>
1

> <PUBCHEM_CACTVS_COMPLEXITY>
351

> <PUBCHEM_CACTVS_HBOND_ACCEPTOR>
10

> <PUBCHEM_CACTVS_HBOND_DONOR>
5

> <PUBCHEM_CACTVS_ROTATABLE_BOND>
5

> <PUBCHEM_CACTVS_SUBSKEYS>
AAADccBgPAMAAAAAAAAAAAAAAAAAASAAAAAAAAAAAAAAAAAAAAAAGgAACCAACBSwgAMACAAABxAAQAAAAIAAAAAAAAAAAAAAAAAREAIAAAACQAAFAAAHAADAIAAAAAAAAAAAAAAAAAAAAAAAAAAAAAAAAA==

> <PUBCHEM_IUPAC_OPENEYE_NAME>
[(4S,5R)-4-hydroxy-5-(hydroxymethyl)tetrahydrofuran-2-yl] phosphono hydrogen phosphate

> <PUBCHEM_IUPAC_CAS_NAME>
[(4S,5R)-4-hydroxy-5-(hydroxymethyl)-2-oxolanyl] phosphono hydrogen phosphate

> <PUBCHEM_IUPAC_NAME>
[(4S,5R)-4-hydroxy-5-(hydroxymethyl)oxolan-2-yl] phosphono hydrogen phosphate

> <PUBCHEM_IUPAC_SYSTEMATIC_NAME>
[(4S,5R)-5-(hydroxymethyl)-4-oxidanyl-oxolan-2-yl] phosphono hydrogen phosphate

> <PUBCHEM_IUPAC_TRADITIONAL_NAME>
[(4S,5R)-4-hydroxy-5-methylol-tetrahydrofuran-2-yl] phosphono hydrogen phosphate

> <PUBCHEM_IUPAC_INCHI>
InChI=1S/C5H12O10P2/c6-2-4-3(7)1-5(13-4)14-17(11,12)15-16(8,9)10/h3-7H,1-2H2,(H,11,12)(H2,8,9,10)/t3-,4+,5?/m0/s1

> <PUBCHEM_IUPAC_INCHIKEY>
JMZCANZTMZRVOD-PYHARJCCSA-N

> <PUBCHEM_XLOGP3_AA>
-3.2

> <PUBCHEM_EXACT_MASS>
293.99057

> <PUBCHEM_MOLECULAR_FORMULA>
C5H12O10P2

> <PUBCHEM_MOLECULAR_WEIGHT>
294.090304

> <PUBCHEM_OPENEYE_CAN_SMILES>
C1C(C(OC1OP(=O)(O)OP(=O)(O)O)CO)O

> <PUBCHEM_OPENEYE_ISO_SMILES>
C1[C@@H]([C@H](OC1OP(=O)(O)OP(=O)(O)O)CO)O

> <PUBCHEM_CACTVS_TPSA>
163

> <PUBCHEM_MONOISOTOPIC_WEIGHT>
293.99057

> <PUBCHEM_TOTAL_CHARGE>
0

> <PUBCHEM_HEAVY_ATOM_COUNT>
17

> <PUBCHEM_ATOM_DEF_STEREO_COUNT>
2

> <PUBCHEM_ATOM_UDEF_STEREO_COUNT>
1

> <PUBCHEM_BOND_DEF_STEREO_COUNT>
0

> <PUBCHEM_BOND_UDEF_STEREO_COUNT>
0

> <PUBCHEM_ISOTOPIC_ATOM_COUNT>
0

> <PUBCHEM_COMPONENT_COUNT>
1

> <PUBCHEM_CACTVS_TAUTO_COUNT>
1

> <PUBCHEM_COORDINATE_TYPE>
1
5
255

> <PUBCHEM_BONDANNOTATIONS>
14  17  6
16  22  3
13  5  5

$$$$

