   Color/Form

     * COLORLESS GAS; BLUE LIQ
     * BLUISH-WHITE SNOW WHEN SOLID
     * Brown at high concn in air

   from [1]HSDB

   Odor
        Sharp, sweet odor
   from [2]HSDB

   Boiling Point
        -151.74 DEG C
   from [3]HSDB

   Melting Point
        -163.6 DEG C
   from [4]HSDB

   Critical Temperature and Pressure
        CRITICAL TEMP: -92.9 DEG C; CRITICAL PRESSURE: 64.6 ATM
   from [5]HSDB

   Density/Specific Gravity
        1.27 AT -150.2 DEG C, LIQ
   from [6]HSDB

   Heat of Vaporization
        3.293 KCAL/MOLE
   from [7]HSDB

   Solubilities

     * 7.38 ml/ 100 ml water at 0 deg C; 4.6 ml/ 100 ml water at 20 deg C;
       2.37 ml/ 100 ml water at 60 deg C
     * 3.4 CC/100 CC SULFURIC ACID
     * 26.6 CC/100 CC ALCOHOL
     * SOL IN CARBON DISULFIDE, IRON SULFATE

   from [8]HSDB

   Spectral Properties
        Index of Refraction: 1.0002697 @ 25 deg C
   from [9]HSDB

   Vapor Density
        1.04 (AIR= 1)
   from [10]HSDB

   Vapor Pressure
        45600 MM HG AT -94.8 DEG C
   from [11]HSDB

   Viscosity
        0.0188 cP at 25 deg C @ 101.325 KPa (gas)
   from [12]HSDB

   Other Chemical/Physical Properties

     * TROUTON CONSTANT: 27.1; CONTAINS ODD NUMBERS OF ELECTRONS & IS
       PARAMAGNETIC
     * CONVERSION FACTORS: 1 PPM IS EQUIVALENT TO 1.23 MG/CU M; 1 MG/CU M
       IS EQUIVALENT TO 0.813 PPM
     * HEAT OF FORMATION: -21.5 KCAL/MOLE AT 18 DEG C
     * COMBINES WITH OXYGEN TO FORM NITROGEN DIOXIDE (BROWN GAS) & WITH
       CHLORINE & BROMINE TO FORM NITROSYL HALIDES, SUCH AS NITROSYL
       CHLORIDE.
     * Ionization potential: 9.27 eV

   from [13]HSDB

   Computed Properties
   Molecular Weight                  30.0061 [g/mol]
   Molecular Formula                 NO
   XLogP3-AA                         0.2
   H-Bond Donor                      0
   H-Bond Acceptor                   1
   Rotatable Bond Count              0
   Exact Mass                        29.997989
   MonoIsotopic Mass                 29.997989
   Topological Polar Surface Area    18.1
   Heavy Atom Count                  2
   Formal Charge                     0
   Complexity                        2
   Isotope Atom Count                0
   Defined Atom Stereocenter Count   0
   Undefined Atom Stereocenter Count 0
   Defined Bond Stereocenter Count   0
   Undefined Bond Stereocenter Count 0
   Covalently-Bonded Unit Count      1

References

   1. http://toxnet.nlm.nih.gov/cgi-bin/sis/search/r?dbs+hsdb:@term+@rn+@rel+10102-43-9
   2. http://toxnet.nlm.nih.gov/cgi-bin/sis/search/r?dbs+hsdb:@term+@rn+@rel+10102-43-9
   3. http://toxnet.nlm.nih.gov/cgi-bin/sis/search/r?dbs+hsdb:@term+@rn+@rel+10102-43-9
   4. http://toxnet.nlm.nih.gov/cgi-bin/sis/search/r?dbs+hsdb:@term+@rn+@rel+10102-43-9
   5. http://toxnet.nlm.nih.gov/cgi-bin/sis/search/r?dbs+hsdb:@term+@rn+@rel+10102-43-9
   6. http://toxnet.nlm.nih.gov/cgi-bin/sis/search/r?dbs+hsdb:@term+@rn+@rel+10102-43-9
   7. http://toxnet.nlm.nih.gov/cgi-bin/sis/search/r?dbs+hsdb:@term+@rn+@rel+10102-43-9
   8. http://toxnet.nlm.nih.gov/cgi-bin/sis/search/r?dbs+hsdb:@term+@rn+@rel+10102-43-9
   9. http://toxnet.nlm.nih.gov/cgi-bin/sis/search/r?dbs+hsdb:@term+@rn+@rel+10102-43-9
  10. http://toxnet.nlm.nih.gov/cgi-bin/sis/search/r?dbs+hsdb:@term+@rn+@rel+10102-43-9
  11. http://toxnet.nlm.nih.gov/cgi-bin/sis/search/r?dbs+hsdb:@term+@rn+@rel+10102-43-9
  12. http://toxnet.nlm.nih.gov/cgi-bin/sis/search/r?dbs+hsdb:@term+@rn+@rel+10102-43-9
  13. http://toxnet.nlm.nih.gov/cgi-bin/sis/search/r?dbs+hsdb:@term+@rn+@rel+10102-43-9
