5281225
  -OEChem-07051212552D

 69 69  0     1  0  0  0  0  0999 V2000
    3.6760   -5.3306    0.0000 O   0  0  0  0  0  0  0  0  0  0  0  0
    2.3100   -6.6967    0.0000 O   0  0  0  0  0  0  0  0  0  0  0  0
    4.1760    7.6597    0.0000 O   0  0  0  0  0  0  0  0  0  0  0  0
    5.6760    6.7937    0.0000 O   0  0  0  0  0  0  0  0  0  0  0  0
    5.0420   -6.6967    0.0000 C   0  0  0  0  0  0  0  0  0  0  0  0
    4.1760   -6.1967    0.0000 C   0  0  2  0  0  0  0  0  0  0  0  0
    3.3100   -6.6967    0.0000 C   0  0  1  0  0  0  0  0  0  0  0  0
    5.0420   -7.6967    0.0000 C   0  0  0  0  0  0  0  0  0  0  0  0
    3.3100   -7.6967    0.0000 C   0  0  0  0  0  0  0  0  0  0  0  0
    4.1760   -8.1967    0.0000 C   0  0  0  0  0  0  0  0  0  0  0  0
    6.0420   -6.6967    0.0000 C   0  0  0  0  0  0  0  0  0  0  0  0
    5.8081   -6.0539    0.0000 C   0  0  0  0  0  0  0  0  0  0  0  0
    2.6672   -5.9306    0.0000 C   0  0  0  0  0  0  0  0  0  0  0  0
    4.6760   -5.3306    0.0000 C   0  0  0  0  0  0  0  0  0  0  0  0
    4.1760   -4.4646    0.0000 C   0  0  0  0  0  0  0  0  0  0  0  0
    4.6760   -3.5986    0.0000 C   0  0  0  0  0  0  0  0  0  0  0  0
    5.6760   -3.5986    0.0000 C   0  0  0  0  0  0  0  0  0  0  0  0
    4.1760   -2.7326    0.0000 C   0  0  0  0  0  0  0  0  0  0  0  0
    4.6760   -1.8665    0.0000 C   0  0  0  0  0  0  0  0  0  0  0  0
    4.1760   -1.0005    0.0000 C   0  0  0  0  0  0  0  0  0  0  0  0
    4.6760   -0.1345    0.0000 C   0  0  0  0  0  0  0  0  0  0  0  0
    5.6760   -0.1345    0.0000 C   0  0  0  0  0  0  0  0  0  0  0  0
    4.1760    0.7315    0.0000 C   0  0  0  0  0  0  0  0  0  0  0  0
    4.6760    1.5976    0.0000 C   0  0  0  0  0  0  0  0  0  0  0  0
    4.1760    2.4636    0.0000 C   0  0  0  0  0  0  0  0  0  0  0  0
    4.6760    3.3296    0.0000 C   0  0  0  0  0  0  0  0  0  0  0  0
    4.1760    4.1956    0.0000 C   0  0  0  0  0  0  0  0  0  0  0  0
    3.1760    4.1956    0.0000 C   0  0  0  0  0  0  0  0  0  0  0  0
    4.6760    5.0617    0.0000 C   0  0  0  0  0  0  0  0  0  0  0  0
    4.1760    5.9277    0.0000 C   0  0  0  0  0  0  0  0  0  0  0  0
    4.6760    6.7937    0.0000 C   0  0  0  0  0  0  0  0  0  0  0  0
    5.2541   -8.2793    0.0000 H   0  0  0  0  0  0  0  0  0  0  0  0
    5.6526   -7.5890    0.0000 H   0  0  0  0  0  0  0  0  0  0  0  0
    2.6994   -7.5890    0.0000 H   0  0  0  0  0  0  0  0  0  0  0  0
    3.0980   -8.2793    0.0000 H   0  0  0  0  0  0  0  0  0  0  0  0
    3.7775   -8.6716    0.0000 H   0  0  0  0  0  0  0  0  0  0  0  0
    4.5746   -8.6716    0.0000 H   0  0  0  0  0  0  0  0  0  0  0  0
    6.0420   -7.3167    0.0000 H   0  0  0  0  0  0  0  0  0  0  0  0
    6.6620   -6.6967    0.0000 H   0  0  0  0  0  0  0  0  0  0  0  0
    6.0420   -6.0767    0.0000 H   0  0  0  0  0  0  0  0  0  0  0  0
    6.2066   -6.5288    0.0000 H   0  0  0  0  0  0  0  0  0  0  0  0
    6.2830   -5.6554    0.0000 H   0  0  0  0  0  0  0  0  0  0  0  0
    5.4096   -5.5789    0.0000 H   0  0  0  0  0  0  0  0  0  0  0  0
    3.1422   -5.5321    0.0000 H   0  0  0  0  0  0  0  0  0  0  0  0
    2.2687   -5.4557    0.0000 H   0  0  0  0  0  0  0  0  0  0  0  0
    2.1923   -6.3292    0.0000 H   0  0  0  0  0  0  0  0  0  0  0  0
    5.2586   -5.1186    0.0000 H   0  0  0  0  0  0  0  0  0  0  0  0
    3.0655   -5.2229    0.0000 H   0  0  0  0  0  0  0  0  0  0  0  0
    2.0000   -7.2336    0.0000 H   0  0  0  0  0  0  0  0  0  0  0  0
    3.5560   -4.4646    0.0000 H   0  0  0  0  0  0  0  0  0  0  0  0
    5.6760   -4.2186    0.0000 H   0  0  0  0  0  0  0  0  0  0  0  0
    6.2960   -3.5986    0.0000 H   0  0  0  0  0  0  0  0  0  0  0  0
    5.6760   -2.9786    0.0000 H   0  0  0  0  0  0  0  0  0  0  0  0
    3.5560   -2.7326    0.0000 H   0  0  0  0  0  0  0  0  0  0  0  0
    5.2960   -1.8665    0.0000 H   0  0  0  0  0  0  0  0  0  0  0  0
    3.5560   -1.0005    0.0000 H   0  0  0  0  0  0  0  0  0  0  0  0
    5.6760   -0.7545    0.0000 H   0  0  0  0  0  0  0  0  0  0  0  0
    6.2960   -0.1345    0.0000 H   0  0  0  0  0  0  0  0  0  0  0  0
    5.6760    0.4855    0.0000 H   0  0  0  0  0  0  0  0  0  0  0  0
    3.5560    0.7315    0.0000 H   0  0  0  0  0  0  0  0  0  0  0  0
    5.2960    1.5976    0.0000 H   0  0  0  0  0  0  0  0  0  0  0  0
    3.5560    2.4636    0.0000 H   0  0  0  0  0  0  0  0  0  0  0  0
    5.2960    3.3296    0.0000 H   0  0  0  0  0  0  0  0  0  0  0  0
    3.1760    4.8156    0.0000 H   0  0  0  0  0  0  0  0  0  0  0  0
    2.5560    4.1956    0.0000 H   0  0  0  0  0  0  0  0  0  0  0  0
    3.1760    3.5756    0.0000 H   0  0  0  0  0  0  0  0  0  0  0  0
    5.2960    5.0617    0.0000 H   0  0  0  0  0  0  0  0  0  0  0  0
    3.5560    5.9277    0.0000 H   0  0  0  0  0  0  0  0  0  0  0  0
    4.4860    8.1967    0.0000 H   0  0  0  0  0  0  0  0  0  0  0  0
  6  1  1  6  0  0  0
  1 48  1  0  0  0  0
  7  2  1  1  0  0  0
  2 49  1  0  0  0  0
  3 31  1  0  0  0  0
  3 69  1  0  0  0  0
  4 31  2  0  0  0  0
  5  6  1  0  0  0  0
  5  8  1  0  0  0  0
  5 11  1  0  0  0  0
  5 12  1  0  0  0  0
  6  7  1  0  0  0  0
  6 14  1  0  0  0  0
  7  9  1  0  0  0  0
  7 13  1  0  0  0  0
  8 10  1  0  0  0  0
  8 32  1  0  0  0  0
  8 33  1  0  0  0  0
  9 10  1  0  0  0  0
  9 34  1  0  0  0  0
  9 35  1  0  0  0  0
 10 36  1  0  0  0  0
 10 37  1  0  0  0  0
 11 38  1  0  0  0  0
 11 39  1  0  0  0  0
 11 40  1  0  0  0  0
 12 41  1  0  0  0  0
 12 42  1  0  0  0  0
 12 43  1  0  0  0  0
 13 44  1  0  0  0  0
 13 45  1  0  0  0  0
 13 46  1  0  0  0  0
 14 15  2  0  0  0  0
 14 47  1  0  0  0  0
 15 16  1  0  0  0  0
 15 50  1  0  0  0  0
 16 17  1  0  0  0  0
 16 18  2  0  0  0  0
 17 51  1  0  0  0  0
 17 52  1  0  0  0  0
 17 53  1  0  0  0  0
 18 19  1  0  0  0  0
 18 54  1  0  0  0  0
 19 20  2  0  0  0  0
 19 55  1  0  0  0  0
 20 21  1  0  0  0  0
 20 56  1  0  0  0  0
 21 22  1  0  0  0  0
 21 23  2  0  0  0  0
 22 57  1  0  0  0  0
 22 58  1  0  0  0  0
 22 59  1  0  0  0  0
 23 24  1  0  0  0  0
 23 60  1  0  0  0  0
 24 25  2  0  0  0  0
 24 61  1  0  0  0  0
 25 26  1  0  0  0  0
 25 62  1  0  0  0  0
 26 27  2  0  0  0  0
 26 63  1  0  0  0  0
 27 28  1  0  0  0  0
 27 29  1  0  0  0  0
 28 64  1  0  0  0  0
 28 65  1  0  0  0  0
 28 66  1  0  0  0  0
 29 30  2  0  0  0  0
 29 67  1  0  0  0  0
 30 31  1  0  0  0  0
 30 68  1  0  0  0  0
M  END
> <PUBCHEM_COMPOUND_CID>
5281225

> <PUBCHEM_COMPOUND_CANONICALIZED>
1

> <PUBCHEM_CACTVS_COMPLEXITY>
849

> <PUBCHEM_CACTVS_HBOND_ACCEPTOR>
4

> <PUBCHEM_CACTVS_HBOND_DONOR>
3

> <PUBCHEM_CACTVS_ROTATABLE_BOND>
8

> <PUBCHEM_CACTVS_SUBSKEYS>
AAADcfB4OAAAAAAAAAAAAAAAAAAAAAAAAAAwAAAAAAAAAAAAAAAAGgAACAAADkSAgAACCAAAAgCIAiDSCAAAAAAgAAAICAAAAEgJBAIAAQAAUAAEwAAJkYOAwPAPgAAAAAAAAAAAAAYAADCAAAAAAAAAAA==

> <PUBCHEM_IUPAC_OPENEYE_NAME>
(2E,4E,6E,8E,10E,12E,14E)-15-[(1R,2R)-1,2-dihydroxy-2,6,6-trimethyl-cyclohexyl]-4,9,13-trimethyl-pentadeca-2,4,6,8,10,12,14-heptaenoic acid

> <PUBCHEM_IUPAC_CAS_NAME>
(2E,4E,6E,8E,10E,12E,14E)-15-[(1R,2R)-1,2-dihydroxy-2,6,6-trimethylcyclohexyl]-4,9,13-trimethylpentadeca-2,4,6,8,10,12,14-heptaenoic acid

> <PUBCHEM_IUPAC_NAME>
(2E,4E,6E,8E,10E,12E,14E)-15-[(1R,2R)-1,2-dihydroxy-2,6,6-trimethylcyclohexyl]-4,9,13-trimethylpentadeca-2,4,6,8,10,12,14-heptaenoic acid

> <PUBCHEM_IUPAC_SYSTEMATIC_NAME>
(2E,4E,6E,8E,10E,12E,14E)-4,9,13-trimethyl-15-[(1R,6R)-2,2,6-trimethyl-1,6-bis(oxidanyl)cyclohexyl]pentadeca-2,4,6,8,10,12,14-heptaenoic acid

> <PUBCHEM_IUPAC_TRADITIONAL_NAME>
(2E,4E,6E,8E,10E,12E,14E)-15-[(1R,2R)-1,2-dihydroxy-2,6,6-trimethyl-cyclohexyl]-4,9,13-trimethyl-pentadeca-2,4,6,8,10,12,14-heptaenoic acid

> <PUBCHEM_IUPAC_INCHI>
InChI=1S/C27H38O4/c1-21(11-7-8-12-22(2)15-16-24(28)29)13-9-14-23(3)17-20-27(31)25(4,5)18-10-19-26(27,6)30/h7-9,11-17,20,30-31H,10,18-19H2,1-6H3,(H,28,29)/b8-7+,13-9+,16-15+,20-17+,21-11+,22-12+,23-14+/t26-,27-/m1/s1

> <PUBCHEM_IUPAC_INCHIKEY>
NYWCITDWPAZNBU-DYISAODMSA-N

> <PUBCHEM_XLOGP3_AA>
6.6

> <PUBCHEM_EXACT_MASS>
426.27701

> <PUBCHEM_MOLECULAR_FORMULA>
C27H38O4

> <PUBCHEM_MOLECULAR_WEIGHT>
426.58822

> <PUBCHEM_OPENEYE_CAN_SMILES>
CC(=CC=CC=C(C)C=CC(=O)O)C=CC=C(C)C=CC1(C(CCCC1(C)O)(C)C)O

> <PUBCHEM_OPENEYE_ISO_SMILES>
C/C(=C\C=C\C=C(/C)\C=C\C(=O)O)/C=C/C=C(\C)/C=C/[C@@]1([C@](CCCC1(C)C)(C)O)O

> <PUBCHEM_CACTVS_TPSA>
77.8

> <PUBCHEM_MONOISOTOPIC_WEIGHT>
426.27701

> <PUBCHEM_TOTAL_CHARGE>
0

> <PUBCHEM_HEAVY_ATOM_COUNT>
31

> <PUBCHEM_ATOM_DEF_STEREO_COUNT>
2

> <PUBCHEM_ATOM_UDEF_STEREO_COUNT>
0

> <PUBCHEM_BOND_DEF_STEREO_COUNT>
7

> <PUBCHEM_BOND_UDEF_STEREO_COUNT>
0

> <PUBCHEM_ISOTOPIC_ATOM_COUNT>
0

> <PUBCHEM_COMPONENT_COUNT>
1

> <PUBCHEM_CACTVS_TAUTO_COUNT>
1

> <PUBCHEM_COORDINATE_TYPE>
1
5
255

> <PUBCHEM_BONDANNOTATIONS>
6  1  6
7  2  5

$$$$

