9839212
  -OEChem-07051212512D

 56 55  0     1  0  0  0  0  0999 V2000
   14.9904   -1.8100    0.0000 O   0  0  0  0  0  0  0  0  0  0  0  0
   16.7224    1.1900    0.0000 O   0  0  0  0  0  0  0  0  0  0  0  0
   16.7224   -0.8100    0.0000 N   0  0  0  0  0  0  0  0  0  0  0  0
    7.1962   -0.3100    0.0000 C   0  0  0  0  0  0  0  0  0  0  0  0
    8.0622   -0.8100    0.0000 C   0  0  0  0  0  0  0  0  0  0  0  0
    6.3301   -0.8100    0.0000 C   0  0  0  0  0  0  0  0  0  0  0  0
    8.9282   -0.3100    0.0000 C   0  0  0  0  0  0  0  0  0  0  0  0
    5.4641   -0.3100    0.0000 C   0  0  0  0  0  0  0  0  0  0  0  0
    9.7942   -0.8100    0.0000 C   0  0  0  0  0  0  0  0  0  0  0  0
    4.5981   -0.8100    0.0000 C   0  0  0  0  0  0  0  0  0  0  0  0
   10.6603   -0.3100    0.0000 C   0  0  0  0  0  0  0  0  0  0  0  0
    3.7320   -0.3100    0.0000 C   0  0  0  0  0  0  0  0  0  0  0  0
   11.5263   -0.8100    0.0000 C   0  0  0  0  0  0  0  0  0  0  0  0
    2.8660   -0.8100    0.0000 C   0  0  0  0  0  0  0  0  0  0  0  0
   12.3923   -0.3100    0.0000 C   0  0  0  0  0  0  0  0  0  0  0  0
    2.0000   -0.3100    0.0000 C   0  0  0  0  0  0  0  0  0  0  0  0
   13.2583   -0.8100    0.0000 C   0  0  0  0  0  0  0  0  0  0  0  0
   14.1244   -0.3100    0.0000 C   0  0  0  0  0  0  0  0  0  0  0  0
   14.9904   -0.8100    0.0000 C   0  0  0  0  0  0  0  0  0  0  0  0
   15.8564   -0.3100    0.0000 C   0  0  2  0  0  0  0  0  0  0  0  0
   15.8564    0.6900    0.0000 C   0  0  0  0  0  0  0  0  0  0  0  0
    7.5947    0.1649    0.0000 H   0  0  0  0  0  0  0  0  0  0  0  0
    6.7976    0.1649    0.0000 H   0  0  0  0  0  0  0  0  0  0  0  0
    7.6636   -1.2850    0.0000 H   0  0  0  0  0  0  0  0  0  0  0  0
    8.4607   -1.2850    0.0000 H   0  0  0  0  0  0  0  0  0  0  0  0
    5.9316   -1.2850    0.0000 H   0  0  0  0  0  0  0  0  0  0  0  0
    6.7287   -1.2850    0.0000 H   0  0  0  0  0  0  0  0  0  0  0  0
    9.3267    0.1649    0.0000 H   0  0  0  0  0  0  0  0  0  0  0  0
    8.5297    0.1649    0.0000 H   0  0  0  0  0  0  0  0  0  0  0  0
    5.8626    0.1649    0.0000 H   0  0  0  0  0  0  0  0  0  0  0  0
    5.0656    0.1649    0.0000 H   0  0  0  0  0  0  0  0  0  0  0  0
    9.3957   -1.2850    0.0000 H   0  0  0  0  0  0  0  0  0  0  0  0
   10.1928   -1.2850    0.0000 H   0  0  0  0  0  0  0  0  0  0  0  0
    4.1996   -1.2850    0.0000 H   0  0  0  0  0  0  0  0  0  0  0  0
    4.9966   -1.2850    0.0000 H   0  0  0  0  0  0  0  0  0  0  0  0
   11.0588    0.1649    0.0000 H   0  0  0  0  0  0  0  0  0  0  0  0
   10.2617    0.1649    0.0000 H   0  0  0  0  0  0  0  0  0  0  0  0
    4.1306    0.1649    0.0000 H   0  0  0  0  0  0  0  0  0  0  0  0
    3.3335    0.1649    0.0000 H   0  0  0  0  0  0  0  0  0  0  0  0
   11.1278   -1.2850    0.0000 H   0  0  0  0  0  0  0  0  0  0  0  0
   11.9248   -1.2850    0.0000 H   0  0  0  0  0  0  0  0  0  0  0  0
    2.4675   -1.2850    0.0000 H   0  0  0  0  0  0  0  0  0  0  0  0
    3.2646   -1.2850    0.0000 H   0  0  0  0  0  0  0  0  0  0  0  0
   12.7908    0.1649    0.0000 H   0  0  0  0  0  0  0  0  0  0  0  0
   11.9938    0.1649    0.0000 H   0  0  0  0  0  0  0  0  0  0  0  0
    2.3100    0.2269    0.0000 H   0  0  0  0  0  0  0  0  0  0  0  0
    1.4631    0.0000    0.0000 H   0  0  0  0  0  0  0  0  0  0  0  0
    1.6900   -0.8469    0.0000 H   0  0  0  0  0  0  0  0  0  0  0  0
   13.2583   -1.4300    0.0000 H   0  0  0  0  0  0  0  0  0  0  0  0
   14.1244    0.3100    0.0000 H   0  0  0  0  0  0  0  0  0  0  0  0
   16.3933    0.0000    0.0000 H   0  0  0  0  0  0  0  0  0  0  0  0
   15.6444    1.2726    0.0000 H   0  0  0  0  0  0  0  0  0  0  0  0
   15.2458    0.5823    0.0000 H   0  0  0  0  0  0  0  0  0  0  0  0
   17.2594   -0.5000    0.0000 H   0  0  0  0  0  0  0  0  0  0  0  0
   16.7224   -1.4300    0.0000 H   0  0  0  0  0  0  0  0  0  0  0  0
   16.7224    1.8100    0.0000 H   0  0  0  0  0  0  0  0  0  0  0  0
  1 19  2  0  0  0  0
  2 21  1  0  0  0  0
  2 56  1  0  0  0  0
 20  3  1  6  0  0  0
  3 54  1  0  0  0  0
  3 55  1  0  0  0  0
  4  5  1  0  0  0  0
  4  6  1  0  0  0  0
  4 22  1  0  0  0  0
  4 23  1  0  0  0  0
  5  7  1  0  0  0  0
  5 24  1  0  0  0  0
  5 25  1  0  0  0  0
  6  8  1  0  0  0  0
  6 26  1  0  0  0  0
  6 27  1  0  0  0  0
  7  9  1  0  0  0  0
  7 28  1  0  0  0  0
  7 29  1  0  0  0  0
  8 10  1  0  0  0  0
  8 30  1  0  0  0  0
  8 31  1  0  0  0  0
  9 11  1  0  0  0  0
  9 32  1  0  0  0  0
  9 33  1  0  0  0  0
 10 12  1  0  0  0  0
 10 34  1  0  0  0  0
 10 35  1  0  0  0  0
 11 13  1  0  0  0  0
 11 36  1  0  0  0  0
 11 37  1  0  0  0  0
 12 14  1  0  0  0  0
 12 38  1  0  0  0  0
 12 39  1  0  0  0  0
 13 15  1  0  0  0  0
 13 40  1  0  0  0  0
 13 41  1  0  0  0  0
 14 16  1  0  0  0  0
 14 42  1  0  0  0  0
 14 43  1  0  0  0  0
 15 17  1  0  0  0  0
 15 44  1  0  0  0  0
 15 45  1  0  0  0  0
 16 46  1  0  0  0  0
 16 47  1  0  0  0  0
 16 48  1  0  0  0  0
 17 18  2  0  0  0  0
 17 49  1  0  0  0  0
 18 19  1  0  0  0  0
 18 50  1  0  0  0  0
 19 20  1  0  0  0  0
 20 21  1  0  0  0  0
 20 51  1  0  0  0  0
 21 52  1  0  0  0  0
 21 53  1  0  0  0  0
M  END
> <PUBCHEM_COMPOUND_CID>
9839212

> <PUBCHEM_COMPOUND_CANONICALIZED>
1

> <PUBCHEM_CACTVS_COMPLEXITY>
264

> <PUBCHEM_CACTVS_HBOND_ACCEPTOR>
3

> <PUBCHEM_CACTVS_HBOND_DONOR>
2

> <PUBCHEM_CACTVS_ROTATABLE_BOND>
15

> <PUBCHEM_CACTVS_SUBSKEYS>
AAADcfB6MAAAAAAAAAAAAAAAAAAAAAAAAAAAAAAAAAAAAAAAAAAAHgAQCAAACCzhgAYCAABAAgCIAKBSAAAAAAAgAAAICIGAAEgCEAYAAQAAQAAEsAAIAYMAgIAAAAAAAAAAAAAAAAAAAAAAAAAAAAAAAA==

> <PUBCHEM_IUPAC_OPENEYE_NAME>
(E,2S)-2-amino-1-hydroxy-octadec-4-en-3-one

> <PUBCHEM_IUPAC_CAS_NAME>
(E,2S)-2-amino-1-hydroxy-4-octadecen-3-one

> <PUBCHEM_IUPAC_NAME>
(E,2S)-2-amino-1-hydroxyoctadec-4-en-3-one

> <PUBCHEM_IUPAC_SYSTEMATIC_NAME>
(E,2S)-2-azanyl-1-oxidanyl-octadec-4-en-3-one

> <PUBCHEM_IUPAC_TRADITIONAL_NAME>
(E,2S)-2-amino-1-hydroxy-octadec-4-en-3-one

> <PUBCHEM_IUPAC_INCHI>
InChI=1S/C18H35NO2/c1-2-3-4-5-6-7-8-9-10-11-12-13-14-15-18(21)17(19)16-20/h14-15,17,20H,2-13,16,19H2,1H3/b15-14+/t17-/m0/s1

> <PUBCHEM_IUPAC_INCHIKEY>
VWTPJNGTEYZXFV-ZWKQNVPVSA-N

> <PUBCHEM_XLOGP3_AA>
5.6

> <PUBCHEM_EXACT_MASS>
297.266779

> <PUBCHEM_MOLECULAR_FORMULA>
C18H35NO2

> <PUBCHEM_MOLECULAR_WEIGHT>
297.476

> <PUBCHEM_OPENEYE_CAN_SMILES>
CCCCCCCCCCCCCC=CC(=O)C(CO)N

> <PUBCHEM_OPENEYE_ISO_SMILES>
CCCCCCCCCCCCC/C=C/C(=O)[C@H](CO)N

> <PUBCHEM_CACTVS_TPSA>
63.3

> <PUBCHEM_MONOISOTOPIC_WEIGHT>
297.266779

> <PUBCHEM_TOTAL_CHARGE>
0

> <PUBCHEM_HEAVY_ATOM_COUNT>
21

> <PUBCHEM_ATOM_DEF_STEREO_COUNT>
1

> <PUBCHEM_ATOM_UDEF_STEREO_COUNT>
0

> <PUBCHEM_BOND_DEF_STEREO_COUNT>
1

> <PUBCHEM_BOND_UDEF_STEREO_COUNT>
0

> <PUBCHEM_ISOTOPIC_ATOM_COUNT>
0

> <PUBCHEM_COMPONENT_COUNT>
1

> <PUBCHEM_CACTVS_TAUTO_COUNT>
11

> <PUBCHEM_COORDINATE_TYPE>
1
5
255

> <PUBCHEM_BONDANNOTATIONS>
20  3  6

$$$$

