441782
  -OEChem-07051212562D

 35 37  0     0  0  0  0  0  0999 V2000
    5.8101    1.3156    0.0000 O   0  0  0  0  0  0  0  0  0  0  0  0
    7.9325    1.9147    0.0000 O   0  0  0  0  0  0  0  0  0  0  0  0
    9.3148    0.4031    0.0000 O   0  0  0  0  0  0  0  0  0  0  0  0
    2.3053    0.4031    0.0000 O   0  0  0  0  0  0  0  0  0  0  0  0
    8.6818   -1.5450    0.0000 O   0  0  0  0  0  0  0  0  0  0  0  0
    2.9383   -1.5450    0.0000 O   0  0  0  0  0  0  0  0  0  0  0  0
    6.3101   -0.2232    0.0000 C   0  0  0  0  0  0  0  0  0  0  0  0
    5.3101   -0.2232    0.0000 C   0  0  0  0  0  0  0  0  0  0  0  0
    6.6191    0.7278    0.0000 C   0  0  0  0  0  0  0  0  0  0  0  0
    5.0010    0.7278    0.0000 C   0  0  0  0  0  0  0  0  0  0  0  0
    7.6345    0.9601    0.0000 C   0  0  0  0  0  0  0  0  0  0  0  0
    6.9950   -1.0079    0.0000 C   0  0  0  0  0  0  0  0  0  0  0  0
    4.6251   -1.0079    0.0000 C   0  0  0  0  0  0  0  0  0  0  0  0
    8.3374    0.1914    0.0000 C   0  0  0  0  0  0  0  0  0  0  0  0
    3.9856    0.9601    0.0000 C   0  0  0  0  0  0  0  0  0  0  0  0
    8.0155   -0.7992    0.0000 C   0  0  0  0  0  0  0  0  0  0  0  0
    3.6046   -0.7992    0.0000 C   0  0  0  0  0  0  0  0  0  0  0  0
    3.2827    0.1914    0.0000 C   0  0  0  0  0  0  0  0  0  0  0  0
    8.9081    2.1339    0.0000 C   0  0  0  0  0  0  0  0  0  0  0  0
    9.9867   -0.3375    0.0000 C   0  0  0  0  0  0  0  0  0  0  0  0
    2.0000    1.3553    0.0000 C   0  0  0  0  0  0  0  0  0  0  0  0
    6.7966   -1.5954    0.0000 H   0  0  0  0  0  0  0  0  0  0  0  0
    4.8235   -1.5954    0.0000 H   0  0  0  0  0  0  0  0  0  0  0  0
    3.8009    1.5519    0.0000 H   0  0  0  0  0  0  0  0  0  0  0  0
    8.4879   -2.1339    0.0000 H   0  0  0  0  0  0  0  0  0  0  0  0
    9.0441    1.5290    0.0000 H   0  0  0  0  0  0  0  0  0  0  0  0
    9.5131    2.2698    0.0000 H   0  0  0  0  0  0  0  0  0  0  0  0
    8.7722    2.7388    0.0000 H   0  0  0  0  0  0  0  0  0  0  0  0
    3.1322   -2.1339    0.0000 H   0  0  0  0  0  0  0  0  0  0  0  0
    9.5276   -0.7541    0.0000 H   0  0  0  0  0  0  0  0  0  0  0  0
   10.4034   -0.7966    0.0000 H   0  0  0  0  0  0  0  0  0  0  0  0
   10.4459    0.0792    0.0000 H   0  0  0  0  0  0  0  0  0  0  0  0
    2.5904    1.5446    0.0000 H   0  0  0  0  0  0  0  0  0  0  0  0
    1.8107    1.9457    0.0000 H   0  0  0  0  0  0  0  0  0  0  0  0
    1.4096    1.1660    0.0000 H   0  0  0  0  0  0  0  0  0  0  0  0
  1  9  1  0  0  0  0
  1 10  1  0  0  0  0
  2 11  1  0  0  0  0
  2 19  1  0  0  0  0
  3 14  1  0  0  0  0
  3 20  1  0  0  0  0
  4 18  1  0  0  0  0
  4 21  1  0  0  0  0
  5 16  1  0  0  0  0
  5 25  1  0  0  0  0
  6 17  1  0  0  0  0
  6 29  1  0  0  0  0
  7  8  1  0  0  0  0
  7  9  1  0  0  0  0
  7 12  2  0  0  0  0
  8 10  1  0  0  0  0
  8 13  2  0  0  0  0
  9 11  2  0  0  0  0
 10 15  2  0  0  0  0
 11 14  1  0  0  0  0
 12 16  1  0  0  0  0
 12 22  1  0  0  0  0
 13 17  1  0  0  0  0
 13 23  1  0  0  0  0
 14 16  2  0  0  0  0
 15 18  1  0  0  0  0
 15 24  1  0  0  0  0
 17 18  2  0  0  0  0
 19 26  1  0  0  0  0
 19 27  1  0  0  0  0
 19 28  1  0  0  0  0
 20 30  1  0  0  0  0
 20 31  1  0  0  0  0
 20 32  1  0  0  0  0
 21 33  1  0  0  0  0
 21 34  1  0  0  0  0
 21 35  1  0  0  0  0
M  END
> <PUBCHEM_COMPOUND_CID>
441782

> <PUBCHEM_COMPOUND_CANONICALIZED>
1

> <PUBCHEM_CACTVS_COMPLEXITY>
364

> <PUBCHEM_CACTVS_HBOND_ACCEPTOR>
6

> <PUBCHEM_CACTVS_HBOND_DONOR>
2

> <PUBCHEM_CACTVS_ROTATABLE_BOND>
3

> <PUBCHEM_CACTVS_SUBSKEYS>
AAADccBwOAAAAAAAAAAAAAAAAAAAASAAAAAwYAAAAAAAAEgB/AAAGgAACAAADASAmAIyBsAABkCIAqBSAAICCAAkIAAAiAFGiMgNJzaGNB6CeWOl4BULuYfK7PzOoQABCAAIQABCAAIQABCAAAAAAAAAAA==

> <PUBCHEM_IUPAC_OPENEYE_NAME>
3,4,7-trimethoxydibenzofuran-2,8-diol

> <PUBCHEM_IUPAC_CAS_NAME>
3,4,7-trimethoxydibenzofuran-2,8-diol

> <PUBCHEM_IUPAC_NAME>
3,4,7-trimethoxydibenzofuran-2,8-diol

> <PUBCHEM_IUPAC_SYSTEMATIC_NAME>
3,4,7-trimethoxydibenzofuran-2,8-diol

> <PUBCHEM_IUPAC_TRADITIONAL_NAME>
3,4,7-trimethoxydibenzofuran-2,8-diol

> <PUBCHEM_IUPAC_INCHI>
InChI=1S/C15H14O6/c1-18-12-6-11-7(4-9(12)16)8-5-10(17)14(19-2)15(20-3)13(8)21-11/h4-6,16-17H,1-3H3

> <PUBCHEM_IUPAC_INCHIKEY>
BUJOWQKLLDUNTC-UHFFFAOYSA-N

> <PUBCHEM_XLOGP3_AA>
2.9

> <PUBCHEM_EXACT_MASS>
290.079038

> <PUBCHEM_MOLECULAR_FORMULA>
C15H14O6

> <PUBCHEM_MOLECULAR_WEIGHT>
290.26806

> <PUBCHEM_OPENEYE_CAN_SMILES>
COC1=C(C=C2C3=CC(=C(C(=C3OC2=C1)OC)OC)O)O

> <PUBCHEM_OPENEYE_ISO_SMILES>
COC1=C(C=C2C3=CC(=C(C(=C3OC2=C1)OC)OC)O)O

> <PUBCHEM_CACTVS_TPSA>
81.3

> <PUBCHEM_MONOISOTOPIC_WEIGHT>
290.079038

> <PUBCHEM_TOTAL_CHARGE>
0

> <PUBCHEM_HEAVY_ATOM_COUNT>
21

> <PUBCHEM_ATOM_DEF_STEREO_COUNT>
0

> <PUBCHEM_ATOM_UDEF_STEREO_COUNT>
0

> <PUBCHEM_BOND_DEF_STEREO_COUNT>
0

> <PUBCHEM_BOND_UDEF_STEREO_COUNT>
0

> <PUBCHEM_ISOTOPIC_ATOM_COUNT>
0

> <PUBCHEM_COMPONENT_COUNT>
1

> <PUBCHEM_CACTVS_TAUTO_COUNT>
8

> <PUBCHEM_COORDINATE_TYPE>
1
5
255

> <PUBCHEM_BONDANNOTATIONS>
1  10  8
1  9  8
10  15  8
11  14  8
12  16  8
13  17  8
14  16  8
15  18  8
17  18  8
7  12  8
7  8  8
7  9  8
8  10  8
8  13  8
9  11  8

$$$$

