10101
  -OEChem-07051213022D

 39 40  0     0  0  0  0  0  0999 V2000
    3.6736    2.2156    0.0000 O   0  0  0  0  0  0  0  0  0  0  0  0
    7.4115    0.9663    0.0000 O   0  0  0  0  0  0  0  0  0  0  0  0
    4.0000   -1.6352    0.0000 N   0  0  0  0  0  0  0  0  0  0  0  0
    4.0000    0.3648    0.0000 C   0  0  0  0  0  0  0  0  0  0  0  0
    4.8660   -0.1352    0.0000 C   0  0  0  0  0  0  0  0  0  0  0  0
    3.1340   -0.1352    0.0000 C   0  0  0  0  0  0  0  0  0  0  0  0
    4.8660   -1.1352    0.0000 C   0  0  0  0  0  0  0  0  0  0  0  0
    3.1340   -1.1352    0.0000 C   0  0  0  0  0  0  0  0  0  0  0  0
    4.7660    1.0076    0.0000 C   0  0  0  0  0  0  0  0  0  0  0  0
    3.5000    1.2308    0.0000 C   0  0  0  0  0  0  0  0  0  0  0  0
    2.5000    1.2308    0.0000 C   0  0  0  0  0  0  0  0  0  0  0  0
    4.0000   -2.6352    0.0000 C   0  0  0  0  0  0  0  0  0  0  0  0
    5.7057    0.6656    0.0000 C   0  0  0  0  0  0  0  0  0  0  0  0
    4.5924    1.9924    0.0000 C   0  0  0  0  0  0  0  0  0  0  0  0
    2.0000    2.0969    0.0000 C   0  0  0  0  0  0  0  0  0  0  0  0
    6.4718    1.3084    0.0000 C   0  0  0  0  0  0  0  0  0  0  0  0
    5.3584    2.6352    0.0000 C   0  0  0  0  0  0  0  0  0  0  0  0
    6.2981    2.2932    0.0000 C   0  0  0  0  0  0  0  0  0  0  0  0
    2.9219    0.4474    0.0000 H   0  0  0  0  0  0  0  0  0  0  0  0
    2.5234   -0.2429    0.0000 H   0  0  0  0  0  0  0  0  0  0  0  0
    5.4766   -0.2429    0.0000 H   0  0  0  0  0  0  0  0  0  0  0  0
    5.0781    0.4474    0.0000 H   0  0  0  0  0  0  0  0  0  0  0  0
    2.5234   -1.0275    0.0000 H   0  0  0  0  0  0  0  0  0  0  0  0
    2.9219   -1.7178    0.0000 H   0  0  0  0  0  0  0  0  0  0  0  0
    5.0781   -1.7178    0.0000 H   0  0  0  0  0  0  0  0  0  0  0  0
    5.4766   -1.0275    0.0000 H   0  0  0  0  0  0  0  0  0  0  0  0
    1.9174    1.0188    0.0000 H   0  0  0  0  0  0  0  0  0  0  0  0
    2.6077    0.6203    0.0000 H   0  0  0  0  0  0  0  0  0  0  0  0
    3.3800   -2.6352    0.0000 H   0  0  0  0  0  0  0  0  0  0  0  0
    4.0000   -3.2552    0.0000 H   0  0  0  0  0  0  0  0  0  0  0  0
    4.6200   -2.6352    0.0000 H   0  0  0  0  0  0  0  0  0  0  0  0
    5.8134    0.0550    0.0000 H   0  0  0  0  0  0  0  0  0  0  0  0
    4.0098    2.2045    0.0000 H   0  0  0  0  0  0  0  0  0  0  0  0
    2.5369    2.4069    0.0000 H   0  0  0  0  0  0  0  0  0  0  0  0
    1.6900    2.6338    0.0000 H   0  0  0  0  0  0  0  0  0  0  0  0
    1.4631    1.7869    0.0000 H   0  0  0  0  0  0  0  0  0  0  0  0
    5.2508    3.2458    0.0000 H   0  0  0  0  0  0  0  0  0  0  0  0
    6.7731    2.6917    0.0000 H   0  0  0  0  0  0  0  0  0  0  0  0
    7.8864    1.3649    0.0000 H   0  0  0  0  0  0  0  0  0  0  0  0
  1 10  2  0  0  0  0
  2 16  1  0  0  0  0
  2 39  1  0  0  0  0
  3  7  1  0  0  0  0
  3  8  1  0  0  0  0
  3 12  1  0  0  0  0
  4  5  1  0  0  0  0
  4  6  1  0  0  0  0
  4  9  1  0  0  0  0
  4 10  1  0  0  0  0
  5  7  1  0  0  0  0
  5 21  1  0  0  0  0
  5 22  1  0  0  0  0
  6  8  1  0  0  0  0
  6 19  1  0  0  0  0
  6 20  1  0  0  0  0
  7 25  1  0  0  0  0
  7 26  1  0  0  0  0
  8 23  1  0  0  0  0
  8 24  1  0  0  0  0
  9 13  2  0  0  0  0
  9 14  1  0  0  0  0
 10 11  1  0  0  0  0
 11 15  1  0  0  0  0
 11 27  1  0  0  0  0
 11 28  1  0  0  0  0
 12 29  1  0  0  0  0
 12 30  1  0  0  0  0
 12 31  1  0  0  0  0
 13 16  1  0  0  0  0
 13 32  1  0  0  0  0
 14 17  2  0  0  0  0
 14 33  1  0  0  0  0
 15 34  1  0  0  0  0
 15 35  1  0  0  0  0
 15 36  1  0  0  0  0
 16 18  2  0  0  0  0
 17 18  1  0  0  0  0
 17 37  1  0  0  0  0
 18 38  1  0  0  0  0
M  END
> <PUBCHEM_COMPOUND_CID>
10101

> <PUBCHEM_COMPOUND_CANONICALIZED>
1

> <PUBCHEM_CACTVS_COMPLEXITY>
295

> <PUBCHEM_CACTVS_HBOND_ACCEPTOR>
3

> <PUBCHEM_CACTVS_HBOND_DONOR>
1

> <PUBCHEM_CACTVS_ROTATABLE_BOND>
3

> <PUBCHEM_CACTVS_SUBSKEYS>
AAADceByMAAAAAAAAAAAAAAAAAAAAAAAAAA8QAAAAAAAAAABAAAAHgAACAAADgTBmAQyBoMAAgCIAqBSAAACAAAgIAAIiAEOCIgIJjKClRKEcAAkwBGImAeczPDPgAABAAAAAAAAAAIAAAAAAAAAAAAAAA==

> <PUBCHEM_IUPAC_OPENEYE_NAME>
1-[4-(3-hydroxyphenyl)-1-methyl-4-piperidyl]propan-1-one

> <PUBCHEM_IUPAC_CAS_NAME>
1-[4-(3-hydroxyphenyl)-1-methyl-4-piperidinyl]-1-propanone

> <PUBCHEM_IUPAC_NAME>
1-[4-(3-hydroxyphenyl)-1-methylpiperidin-4-yl]propan-1-one

> <PUBCHEM_IUPAC_SYSTEMATIC_NAME>
1-[4-(3-hydroxyphenyl)-1-methyl-piperidin-4-yl]propan-1-one

> <PUBCHEM_IUPAC_TRADITIONAL_NAME>
1-[4-(3-hydroxyphenyl)-1-methyl-4-piperidyl]propan-1-one

> <PUBCHEM_IUPAC_INCHI>
InChI=1S/C15H21NO2/c1-3-14(18)15(7-9-16(2)10-8-15)12-5-4-6-13(17)11-12/h4-6,11,17H,3,7-10H2,1-2H3

> <PUBCHEM_IUPAC_INCHIKEY>
ALFGKMXHOUSVAD-UHFFFAOYSA-N

> <PUBCHEM_XLOGP3>
1

> <PUBCHEM_EXACT_MASS>
247.157229

> <PUBCHEM_MOLECULAR_FORMULA>
C15H21NO2

> <PUBCHEM_MOLECULAR_WEIGHT>
247.33274

> <PUBCHEM_OPENEYE_CAN_SMILES>
CCC(=O)C1(CCN(CC1)C)C2=CC(=CC=C2)O

> <PUBCHEM_OPENEYE_ISO_SMILES>
CCC(=O)C1(CCN(CC1)C)C2=CC(=CC=C2)O

> <PUBCHEM_CACTVS_TPSA>
40.5

> <PUBCHEM_MONOISOTOPIC_WEIGHT>
247.157229

> <PUBCHEM_TOTAL_CHARGE>
0

> <PUBCHEM_HEAVY_ATOM_COUNT>
18

> <PUBCHEM_ATOM_DEF_STEREO_COUNT>
0

> <PUBCHEM_ATOM_UDEF_STEREO_COUNT>
0

> <PUBCHEM_BOND_DEF_STEREO_COUNT>
0

> <PUBCHEM_BOND_UDEF_STEREO_COUNT>
0

> <PUBCHEM_ISOTOPIC_ATOM_COUNT>
0

> <PUBCHEM_COMPONENT_COUNT>
1

> <PUBCHEM_CACTVS_TAUTO_COUNT>
6

> <PUBCHEM_COORDINATE_TYPE>
1
5
255

> <PUBCHEM_BONDANNOTATIONS>
13  16  8
14  17  8
16  18  8
17  18  8
9  13  8
9  14  8

$$$$

