   Color/Form

     * Colorless liquid
     * Oily

   from [1]HSDB

   Odor
        Aromatic
   from [2]HSDB

   Boiling Point
        145 deg C at 10 mm Hg
   from [3]HSDB

   Melting Point
        11.5 deg C
   from [4]HSDB

   Corrosivity
        Noncorrosive
   from [5]HSDB

   Density/Specific Gravity
        1.016 at 30 deg C/4 deg C
   from [6]HSDB

   Octanol/Water Partition Coefficient
        log Kow = 3.88
   from [7]HSDB

   Solubilities

     * Miscible with most organic solvents, e.g. acetone, benzene,
       methanol, ethanol, xylene, kerosene, etc.
     * Miscible with 4-methylpentan-2-one
     * In water, 85 mg/L at 22 deg C [Shiu WY et al; Rev Environ Contam
       Toxicol 116: 15-187 (1990)] [8]PubMed Abstract

   from [9]HSDB

   Spectral Properties
        INDEX OF REFRACTION: 1.5054 @ 30 DEG C/D
   from [10]HSDB

   Vapor Pressure
        1.57X10-3 mm Hg at 25 deg C
   from [11]HSDB

   Other Chemical/Physical Properties

     * Amber liquid /Technical/
     * Supercools readily
     * Henry's Law constant = 5.25X10-6 atm-cu m/mol at 25 deg C (est)
     * Hydroxyl radical reaction rate constant = 3.54X10-11 cu
       cm/molec-sec at 25 deg C

   from [12]HSDB

   Computed Properties
   Molecular Weight                  215.35554 [g/mol]
   Molecular Formula                 C[11]H[21]NOS
   XLogP3                            4.1
   H-Bond Donor                      0
   H-Bond Acceptor                   2
   Rotatable Bond Count              4
   Exact Mass                        215.134385
   MonoIsotopic Mass                 215.134385
   Topological Polar Surface Area    45.6
   Heavy Atom Count                  14
   Formal Charge                     0
   Complexity                        178
   Isotope Atom Count                0
   Defined Atom Stereocenter Count   0
   Undefined Atom Stereocenter Count 0
   Defined Bond Stereocenter Count   0
   Undefined Bond Stereocenter Count 0
   Covalently-Bonded Unit Count      1
   Feature 3D Hydrophobe Count       1
   Feature 3D Ring Count             1
   Effective Rotor Count             6.2
   Conformer Sampling RMSD           0.8
   CID Conformer Count               [13]44

References

   1. http://toxnet.nlm.nih.gov/cgi-bin/sis/search/r?dbs+hsdb:@term+@rn+@rel+1134-23-2
   2. http://toxnet.nlm.nih.gov/cgi-bin/sis/search/r?dbs+hsdb:@term+@rn+@rel+1134-23-2
   3. http://toxnet.nlm.nih.gov/cgi-bin/sis/search/r?dbs+hsdb:@term+@rn+@rel+1134-23-2
   4. http://toxnet.nlm.nih.gov/cgi-bin/sis/search/r?dbs+hsdb:@term+@rn+@rel+1134-23-2
   5. http://toxnet.nlm.nih.gov/cgi-bin/sis/search/r?dbs+hsdb:@term+@rn+@rel+1134-23-2
   6. http://toxnet.nlm.nih.gov/cgi-bin/sis/search/r?dbs+hsdb:@term+@rn+@rel+1134-23-2
   7. http://toxnet.nlm.nih.gov/cgi-bin/sis/search/r?dbs+hsdb:@term+@rn+@rel+1134-23-2
   8. http://www.ncbi.nlm.nih.gov/entrez/query.fcgi?cmd=Retrieve&db=pubmed&dopt=Abstract&list_uids=2205893
   9. http://toxnet.nlm.nih.gov/cgi-bin/sis/search/r?dbs+hsdb:@term+@rn+@rel+1134-23-2
  10. http://toxnet.nlm.nih.gov/cgi-bin/sis/search/r?dbs+hsdb:@term+@rn+@rel+1134-23-2
  11. http://toxnet.nlm.nih.gov/cgi-bin/sis/search/r?dbs+hsdb:@term+@rn+@rel+1134-23-2
  12. http://toxnet.nlm.nih.gov/cgi-bin/sis/search/r?dbs+hsdb:@term+@rn+@rel+1134-23-2
  13. http://pubchem.ncbi.nlm.nih.gov/vw3d/vw3d.cgi?cid=14337
