510
  -OEChem-07051212472D

 15 15  0     0  0  0  0  0  0999 V2000
    3.8660   -1.0185    0.0000 P   0  0  0  0  0  0  0  0  0  0  0  0
    3.0000    0.4815    0.0000 P   0  0  0  0  0  0  0  0  0  0  0  0
    4.7320    0.4815    0.0000 P   0  0  0  0  0  0  0  0  0  0  0  0
    3.0000   -0.5185    0.0000 O   0  0  0  0  0  0  0  0  0  0  0  0
    3.8660    0.9815    0.0000 O   0  0  0  0  0  0  0  0  0  0  0  0
    4.7320   -0.5185    0.0000 O   0  0  0  0  0  0  0  0  0  0  0  0
    5.7320    0.4815    0.0000 O   0  0  0  0  0  0  0  0  0  0  0  0
    2.5000    1.3476    0.0000 O   0  0  0  0  0  0  0  0  0  0  0  0
    3.3660   -1.8845    0.0000 O   0  0  0  0  0  0  0  0  0  0  0  0
    4.3660   -1.8845    0.0000 O   0  0  0  0  0  0  0  0  0  0  0  0
    2.0000    0.4815    0.0000 O   0  0  0  0  0  0  0  0  0  0  0  0
    5.2320    1.3476    0.0000 O   0  0  0  0  0  0  0  0  0  0  0  0
    6.0420   -0.0554    0.0000 H   0  0  0  0  0  0  0  0  0  0  0  0
    2.8100    1.8845    0.0000 H   0  0  0  0  0  0  0  0  0  0  0  0
    2.7460   -1.8845    0.0000 H   0  0  0  0  0  0  0  0  0  0  0  0
  1  4  1  0  0  0  0
  1  6  1  0  0  0  0
  1  9  1  0  0  0  0
  1 10  2  0  0  0  0
  2  4  1  0  0  0  0
  2  5  1  0  0  0  0
  2  8  1  0  0  0  0
  2 11  2  0  0  0  0
  3  5  1  0  0  0  0
  3  6  1  0  0  0  0
  3  7  1  0  0  0  0
  3 12  2  0  0  0  0
  7 13  1  0  0  0  0
  8 14  1  0  0  0  0
  9 15  1  0  0  0  0
M  END
> <PUBCHEM_COMPOUND_CID>
510

> <PUBCHEM_COMPOUND_CANONICALIZED>
1

> <PUBCHEM_CACTVS_COMPLEXITY>
248

> <PUBCHEM_CACTVS_HBOND_ACCEPTOR>
9

> <PUBCHEM_CACTVS_HBOND_DONOR>
3

> <PUBCHEM_CACTVS_ROTATABLE_BOND>
0

> <PUBCHEM_CACTVS_SUBSKEYS>
AAADcQAAPAMAAAAAAAAAAAAAAAAAAAAAAAAkAAAAAAAAAAAAAAAAAAAACCAAAAAAAAAAAAAAABAAQAAAAIAAAAAAAAAAAAAAAAAAAAAAAAAAAAAAAAAAAAAAAAAAAAAAAAAAAAAAAAAAAAAAAAAAAAAAAA==

> <PUBCHEM_IUPAC_OPENEYE_NAME>
2,4,6-trihydroxy-1,3,5,2$l^{5},4$l^{5},6$l^{5}-trioxatriphosphinane 2,4,6-trioxide

> <PUBCHEM_IUPAC_CAS_NAME>
2,4,6-trihydroxy-1,3,5,2$l^{5},4$l^{5},6$l^{5}-trioxatriphosphorinane 2,4,6-trioxide

> <PUBCHEM_IUPAC_NAME>
2,4,6-trihydroxy-1,3,5,2$l^{5},4$l^{5},6$l^{5}-trioxatriphosphinane 2,4,6-trioxide

> <PUBCHEM_IUPAC_SYSTEMATIC_NAME>
2,4,6-tris(oxidanyl)-1,3,5,2$l^{5},4$l^{5},6$l^{5}-trioxatriphosphinane 2,4,6-trioxide

> <PUBCHEM_IUPAC_TRADITIONAL_NAME>
2,4,6-trihydroxy-1,3,5,2$l^{5},4$l^{5},6$l^{5}-trioxatriphosphorinane 2,4,6-trioxide

> <PUBCHEM_IUPAC_INCHI>
InChI=1S/H3O9P3/c1-10(2)7-11(3,4)9-12(5,6)8-10/h(H,1,2)(H,3,4)(H,5,6)

> <PUBCHEM_IUPAC_INCHIKEY>
AZSFNUJOCKMOGB-UHFFFAOYSA-N

> <PUBCHEM_XLOGP3_AA>
-3.3

> <PUBCHEM_EXACT_MASS>
239.898992

> <PUBCHEM_MOLECULAR_FORMULA>
H3O9P3

> <PUBCHEM_MOLECULAR_WEIGHT>
239.939706

> <PUBCHEM_OPENEYE_CAN_SMILES>
OP1(=O)OP(=O)(OP(=O)(O1)O)O

> <PUBCHEM_OPENEYE_ISO_SMILES>
OP1(=O)OP(=O)(OP(=O)(O1)O)O

> <PUBCHEM_CACTVS_TPSA>
140

> <PUBCHEM_MONOISOTOPIC_WEIGHT>
239.898992

> <PUBCHEM_TOTAL_CHARGE>
0

> <PUBCHEM_HEAVY_ATOM_COUNT>
12

> <PUBCHEM_ATOM_DEF_STEREO_COUNT>
0

> <PUBCHEM_ATOM_UDEF_STEREO_COUNT>
0

> <PUBCHEM_BOND_DEF_STEREO_COUNT>
0

> <PUBCHEM_BOND_UDEF_STEREO_COUNT>
0

> <PUBCHEM_ISOTOPIC_ATOM_COUNT>
0

> <PUBCHEM_COMPONENT_COUNT>
1

> <PUBCHEM_CACTVS_TAUTO_COUNT>
1

> <PUBCHEM_COORDINATE_TYPE>
1
5
255

$$$$

