17395414
  -OEChem-06241222502D

 43 46  0     0  0  0  0  0  0999 V2000
    9.5708   -0.3800    0.0000 O   0  0  0  0  0  0  0  0  0  0  0  0
    4.6783   -1.4111    0.0000 N   0  0  0  0  0  0  0  0  0  0  0  0
    5.2619   -2.2158    0.0000 N   0  0  0  0  0  0  0  0  0  0  0  0
    4.6783   -3.0206    0.0000 N   0  0  0  0  0  0  0  0  0  0  0  0
    9.2136    1.3148    0.0000 N   0  0  0  0  0  0  0  0  0  0  0  0
   10.8600    0.7767    0.0000 N   0  0  0  0  0  0  0  0  0  0  0  0
    4.9889   -0.4606    0.0000 C   0  0  0  0  0  0  0  0  0  0  0  0
    5.9674   -0.2544    0.0000 C   0  0  0  0  0  0  0  0  0  0  0  0
    3.7320   -1.7158    0.0000 C   0  0  0  0  0  0  0  0  0  0  0  0
    3.7320   -2.7158    0.0000 C   0  0  0  0  0  0  0  0  0  0  0  0
    6.6353   -0.9987    0.0000 C   0  0  0  0  0  0  0  0  0  0  0  0
    6.2781    0.6961    0.0000 C   0  0  0  0  0  0  0  0  0  0  0  0
    7.9244    0.1581    0.0000 C   0  0  0  0  0  0  0  0  0  0  0  0
    2.8660   -1.2158    0.0000 C   0  0  0  0  0  0  0  0  0  0  0  0
    7.6138   -0.7925    0.0000 C   0  0  0  0  0  0  0  0  0  0  0  0
    7.2566    0.9024    0.0000 C   0  0  0  0  0  0  0  0  0  0  0  0
    2.8660   -3.2158    0.0000 C   0  0  0  0  0  0  0  0  0  0  0  0
    8.9030    0.3643    0.0000 C   0  0  0  0  0  0  0  0  0  0  0  0
    2.0000   -1.7158    0.0000 C   0  0  0  0  0  0  0  0  0  0  0  0
    2.0000   -2.7158    0.0000 C   0  0  0  0  0  0  0  0  0  0  0  0
   10.1921    1.5210    0.0000 C   0  0  0  0  0  0  0  0  0  0  0  0
   10.5028    2.4715    0.0000 C   0  0  0  0  0  0  0  0  0  0  0  0
   11.4813    2.6778    0.0000 C   0  0  0  0  0  0  0  0  0  0  0  0
    9.8349    3.2158    0.0000 C   0  0  0  0  0  0  0  0  0  0  0  0
   12.1491    1.9335    0.0000 C   0  0  0  0  0  0  0  0  0  0  0  0
   11.8385    0.9829    0.0000 C   0  0  0  0  0  0  0  0  0  0  0  0
    4.9684    0.1591    0.0000 H   0  0  0  0  0  0  0  0  0  0  0  0
    4.3751   -0.3732    0.0000 H   0  0  0  0  0  0  0  0  0  0  0  0
    6.4427   -1.5880    0.0000 H   0  0  0  0  0  0  0  0  0  0  0  0
    5.8640    1.1576    0.0000 H   0  0  0  0  0  0  0  0  0  0  0  0
    2.8660   -0.5958    0.0000 H   0  0  0  0  0  0  0  0  0  0  0  0
    8.0279   -1.2539    0.0000 H   0  0  0  0  0  0  0  0  0  0  0  0
    7.4492    1.4917    0.0000 H   0  0  0  0  0  0  0  0  0  0  0  0
    2.8660   -3.8358    0.0000 H   0  0  0  0  0  0  0  0  0  0  0  0
    1.4631   -1.4058    0.0000 H   0  0  0  0  0  0  0  0  0  0  0  0
    1.4631   -3.0258    0.0000 H   0  0  0  0  0  0  0  0  0  0  0  0
    8.7996    1.7763    0.0000 H   0  0  0  0  0  0  0  0  0  0  0  0
   11.6739    3.2671    0.0000 H   0  0  0  0  0  0  0  0  0  0  0  0
   10.2964    3.6299    0.0000 H   0  0  0  0  0  0  0  0  0  0  0  0
    9.4209    3.6773    0.0000 H   0  0  0  0  0  0  0  0  0  0  0  0
    9.3735    2.8018    0.0000 H   0  0  0  0  0  0  0  0  0  0  0  0
   12.7558    2.0613    0.0000 H   0  0  0  0  0  0  0  0  0  0  0  0
   12.2525    0.5215    0.0000 H   0  0  0  0  0  0  0  0  0  0  0  0
  1 18  2  0  0  0  0
  2  3  1  0  0  0  0
  2  7  1  0  0  0  0
  2  9  1  0  0  0  0
  3  4  2  0  0  0  0
  4 10  1  0  0  0  0
  5 18  1  0  0  0  0
  5 21  1  0  0  0  0
  5 37  1  0  0  0  0
  6 21  1  0  0  0  0
  6 26  2  0  0  0  0
  7  8  1  0  0  0  0
  7 27  1  0  0  0  0
  7 28  1  0  0  0  0
  8 11  2  0  0  0  0
  8 12  1  0  0  0  0
  9 10  1  0  0  0  0
  9 14  2  0  0  0  0
 10 17  2  0  0  0  0
 11 15  1  0  0  0  0
 11 29  1  0  0  0  0
 12 16  2  0  0  0  0
 12 30  1  0  0  0  0
 13 15  2  0  0  0  0
 13 16  1  0  0  0  0
 13 18  1  0  0  0  0
 14 19  1  0  0  0  0
 14 31  1  0  0  0  0
 15 32  1  0  0  0  0
 16 33  1  0  0  0  0
 17 20  1  0  0  0  0
 17 34  1  0  0  0  0
 19 20  2  0  0  0  0
 19 35  1  0  0  0  0
 20 36  1  0  0  0  0
 21 22  2  0  0  0  0
 22 23  1  0  0  0  0
 22 24  1  0  0  0  0
 23 25  2  0  0  0  0
 23 38  1  0  0  0  0
 24 39  1  0  0  0  0
 24 40  1  0  0  0  0
 24 41  1  0  0  0  0
 25 26  1  0  0  0  0
 25 42  1  0  0  0  0
 26 43  1  0  0  0  0
M  END
> <PUBCHEM_COMPOUND_CID>
17395414

> <PUBCHEM_COMPOUND_CANONICALIZED>
1

> <PUBCHEM_CACTVS_COMPLEXITY>
479

> <PUBCHEM_CACTVS_HBOND_ACCEPTOR>
4

> <PUBCHEM_CACTVS_HBOND_DONOR>
1

> <PUBCHEM_CACTVS_ROTATABLE_BOND>
4

> <PUBCHEM_CACTVS_SUBSKEYS>
AAADceB7oAAAAAAAAAAAAAAAAAAAAWAAAAA8YIAAAAAAAFgB/AAAHgAYAAAADAjBngQ/8LLIEACqAzd3dACChC01kiAZ2CE4dNiIYPLAnZGUIQhohQLIyacYiACOQAAAAAAAACCAAAAAAAAAQAAAAAAAAA==

> <PUBCHEM_IUPAC_OPENEYE_NAME>
4-(benzotriazol-1-ylmethyl)-N-(3-methyl-2-pyridyl)benzamide

> <PUBCHEM_IUPAC_CAS_NAME>
4-(1-benzotriazolylmethyl)-N-(3-methyl-2-pyridinyl)benzamide

> <PUBCHEM_IUPAC_NAME>
4-(benzotriazol-1-ylmethyl)-N-(3-methylpyridin-2-yl)benzamide

> <PUBCHEM_IUPAC_SYSTEMATIC_NAME>
4-(benzotriazol-1-ylmethyl)-N-(3-methylpyridin-2-yl)benzamide

> <PUBCHEM_IUPAC_TRADITIONAL_NAME>
4-(benzotriazol-1-ylmethyl)-N-(3-methyl-2-pyridyl)benzamide

> <PUBCHEM_IUPAC_INCHI>
InChI=1S/C20H17N5O/c1-14-5-4-12-21-19(14)22-20(26)16-10-8-15(9-11-16)13-25-18-7-3-2-6-17(18)23-24-25/h2-12H,13H2,1H3,(H,21,22,26)

> <PUBCHEM_IUPAC_INCHIKEY>
HSAOHANEBRNVSG-UHFFFAOYSA-N

> <PUBCHEM_XLOGP3_AA>
3.2

> <PUBCHEM_EXACT_MASS>
343.14331

> <PUBCHEM_MOLECULAR_FORMULA>
C20H17N5O

> <PUBCHEM_MOLECULAR_WEIGHT>
343.38188

> <PUBCHEM_OPENEYE_CAN_SMILES>
CC1=C(N=CC=C1)NC(=O)C2=CC=C(C=C2)CN3C4=CC=CC=C4N=N3

> <PUBCHEM_OPENEYE_ISO_SMILES>
CC1=C(N=CC=C1)NC(=O)C2=CC=C(C=C2)CN3C4=CC=CC=C4N=N3

> <PUBCHEM_CACTVS_TPSA>
72.7

> <PUBCHEM_MONOISOTOPIC_WEIGHT>
343.14331

> <PUBCHEM_TOTAL_CHARGE>
0

> <PUBCHEM_HEAVY_ATOM_COUNT>
26

> <PUBCHEM_ATOM_DEF_STEREO_COUNT>
0

> <PUBCHEM_ATOM_UDEF_STEREO_COUNT>
0

> <PUBCHEM_BOND_DEF_STEREO_COUNT>
0

> <PUBCHEM_BOND_UDEF_STEREO_COUNT>
0

> <PUBCHEM_ISOTOPIC_ATOM_COUNT>
0

> <PUBCHEM_COMPONENT_COUNT>
1

> <PUBCHEM_CACTVS_TAUTO_COUNT>
3

> <PUBCHEM_COORDINATE_TYPE>
1
5
255

> <PUBCHEM_BONDANNOTATIONS>
10  17  8
11  15  8
12  16  8
13  15  8
13  16  8
14  19  8
17  20  8
19  20  8
2  3  8
2  9  8
21  22  8
22  23  8
23  25  8
25  26  8
3  4  8
4  10  8
6  21  8
6  26  8
8  11  8
8  12  8
9  10  8
9  14  8

$$$$

