247854
  -OEChem-07051213062D

 49 52  0     1  0  0  0  0  0999 V2000
    4.7587    0.5422    0.0000 O   0  0  0  0  0  0  0  0  0  0  0  0
    2.0000   -2.0032    0.0000 O   0  0  0  0  0  0  0  0  0  0  0  0
    3.0267    0.5556    0.0000 O   0  0  0  0  0  0  0  0  0  0  0  0
    7.3931    0.0491    0.0000 C   0  0  2  0  0  0  0  0  0  0  0  0
    7.3931    1.0491    0.0000 C   0  0  2  0  0  0  0  0  0  0  0  0
    6.5271   -0.4509    0.0000 C   0  0  1  0  0  0  0  0  0  0  0  0
    5.6610    0.0491    0.0000 C   0  0  2  0  0  0  0  0  0  0  0  0
    6.5271    1.5491    0.0000 C   0  0  0  0  0  0  0  0  0  0  0  0
    8.3393   -0.2556    0.0000 C   0  0  0  0  0  0  0  0  0  0  0  0
    8.3393    1.3538    0.0000 C   0  0  0  0  0  0  0  0  0  0  0  0
    5.6610    1.0491    0.0000 C   0  0  0  0  0  0  0  0  0  0  0  0
    4.7510   -0.4578    0.0000 C   0  0  1  0  0  0  0  0  0  0  0  0
    6.5431   -1.4924    0.0000 C   0  0  0  0  0  0  0  0  0  0  0  0
    8.9229    0.5491    0.0000 C   0  0  0  0  0  0  0  0  0  0  0  0
    7.3931    2.0491    0.0000 C   0  0  0  0  0  0  0  0  0  0  0  0
    5.6451   -2.0202    0.0000 C   0  0  0  0  0  0  0  0  0  0  0  0
    4.7430   -1.4994    0.0000 C   0  0  0  0  0  0  0  0  0  0  0  0
    3.8242    0.1063    0.0000 C   0  0  0  0  0  0  0  0  0  0  0  0
    3.8076   -2.0491    0.0000 C   0  0  0  0  0  0  0  0  0  0  0  0
    2.8763   -0.4216    0.0000 C   0  0  0  0  0  0  0  0  0  0  0  0
    2.8680   -1.5066    0.0000 C   0  0  0  0  0  0  0  0  0  0  0  0
    3.8966    1.0489    0.0000 C   0  0  0  0  0  0  0  0  0  0  0  0
    3.9043    2.0488    0.0000 C   0  0  0  0  0  0  0  0  0  0  0  0
    7.4830   -0.7961    0.0000 H   0  0  0  0  0  0  0  0  0  0  0  0
    7.2664   -0.8702    0.0000 H   0  0  0  0  0  0  0  0  0  0  0  0
    6.3972    0.4741    0.0000 H   0  0  0  0  0  0  0  0  0  0  0  0
    6.9256    2.0240    0.0000 H   0  0  0  0  0  0  0  0  0  0  0  0
    6.1285    2.0240    0.0000 H   0  0  0  0  0  0  0  0  0  0  0  0
    8.0883   -0.8226    0.0000 H   0  0  0  0  0  0  0  0  0  0  0  0
    8.8767   -0.5649    0.0000 H   0  0  0  0  0  0  0  0  0  0  0  0
    5.4490    1.6317    0.0000 H   0  0  0  0  0  0  0  0  0  0  0  0
    5.0504    0.9414    0.0000 H   0  0  0  0  0  0  0  0  0  0  0  0
    8.8767    1.6630    0.0000 H   0  0  0  0  0  0  0  0  0  0  0  0
    8.0883    1.9207    0.0000 H   0  0  0  0  0  0  0  0  0  0  0  0
    6.7612   -2.0728    0.0000 H   0  0  0  0  0  0  0  0  0  0  0  0
    7.1523   -1.3769    0.0000 H   0  0  0  0  0  0  0  0  0  0  0  0
    9.3838    0.1344    0.0000 H   0  0  0  0  0  0  0  0  0  0  0  0
    9.3838    0.9638    0.0000 H   0  0  0  0  0  0  0  0  0  0  0  0
    8.0131    2.0491    0.0000 H   0  0  0  0  0  0  0  0  0  0  0  0
    7.3931    2.6691    0.0000 H   0  0  0  0  0  0  0  0  0  0  0  0
    6.7731    2.0491    0.0000 H   0  0  0  0  0  0  0  0  0  0  0  0
    5.2478   -2.4962    0.0000 H   0  0  0  0  0  0  0  0  0  0  0  0
    6.0460   -2.4931    0.0000 H   0  0  0  0  0  0  0  0  0  0  0  0
    3.8361    0.7262    0.0000 H   0  0  0  0  0  0  0  0  0  0  0  0
    3.8100   -2.6691    0.0000 H   0  0  0  0  0  0  0  0  0  0  0  0
    2.3430   -0.1054    0.0000 H   0  0  0  0  0  0  0  0  0  0  0  0
    4.5243    2.0441    0.0000 H   0  0  0  0  0  0  0  0  0  0  0  0
    3.9091    2.6688    0.0000 H   0  0  0  0  0  0  0  0  0  0  0  0
    3.2843    2.0536    0.0000 H   0  0  0  0  0  0  0  0  0  0  0  0
 12  1  1  1  0  0  0
  1 22  1  0  0  0  0
  2 21  2  0  0  0  0
  3 22  2  0  0  0  0
  4  5  1  0  0  0  0
  4  6  1  0  0  0  0
  4  9  1  0  0  0  0
  4 24  1  6  0  0  0
  5  8  1  0  0  0  0
  5 10  1  0  0  0  0
  5 15  1  1  0  0  0
  6  7  1  0  0  0  0
  6 13  1  0  0  0  0
  6 25  1  1  0  0  0
  7 11  1  0  0  0  0
  7 12  1  0  0  0  0
  7 26  1  6  0  0  0
  8 11  1  0  0  0  0
  8 27  1  0  0  0  0
  8 28  1  0  0  0  0
  9 14  1  0  0  0  0
  9 29  1  0  0  0  0
  9 30  1  0  0  0  0
 10 14  1  0  0  0  0
 10 33  1  0  0  0  0
 10 34  1  0  0  0  0
 11 31  1  0  0  0  0
 11 32  1  0  0  0  0
 12 17  1  0  0  0  0
 12 18  1  0  0  0  0
 13 16  1  0  0  0  0
 13 35  1  0  0  0  0
 13 36  1  0  0  0  0
 14 37  1  0  0  0  0
 14 38  1  0  0  0  0
 15 39  1  0  0  0  0
 15 40  1  0  0  0  0
 15 41  1  0  0  0  0
 16 17  1  0  0  0  0
 16 42  1  0  0  0  0
 16 43  1  0  0  0  0
 17 19  2  0  0  0  0
 18 20  2  0  0  0  0
 18 44  1  0  0  0  0
 19 21  1  0  0  0  0
 19 45  1  0  0  0  0
 20 21  1  0  0  0  0
 20 46  1  0  0  0  0
 22 23  1  0  0  0  0
 23 47  1  0  0  0  0
 23 48  1  0  0  0  0
 23 49  1  0  0  0  0
M  END
> <PUBCHEM_COMPOUND_CID>
247854

> <PUBCHEM_COMPOUND_CANONICALIZED>
1

> <PUBCHEM_CACTVS_COMPLEXITY>
616

> <PUBCHEM_CACTVS_HBOND_ACCEPTOR>
3

> <PUBCHEM_CACTVS_HBOND_DONOR>
0

> <PUBCHEM_CACTVS_ROTATABLE_BOND>
2

> <PUBCHEM_CACTVS_SUBSKEYS>
AAADceB4MAAAAAAAAAAAAAAAAAAAAYAAAAAwYIAAAAAAAGDAAAAAGgAAAAAAD0SAgAACCAAABACIAqDSCAAAAAAgAAAICAAAAEgABAIAIQACEAAEgAAIIYOAwPAPgAAAAAAAAACAAAYAADAAAAAACAAAAA==

> <PUBCHEM_IUPAC_OPENEYE_NAME>
[(8S,9S,10S,13S,14S)-13-methyl-3-oxo-6,7,8,9,11,12,14,15,16,17-decahydrocyclopenta[a]phenanthren-10-yl] acetate

> <PUBCHEM_IUPAC_CAS_NAME>
acetic acid [(8S,9S,10S,13S,14S)-13-methyl-3-oxo-6,7,8,9,11,12,14,15,16,17-decahydrocyclopenta[a]phenanthren-10-yl] ester

> <PUBCHEM_IUPAC_NAME>
[(8S,9S,10S,13S,14S)-13-methyl-3-oxo-6,7,8,9,11,12,14,15,16,17-decahydrocyclopenta[a]phenanthren-10-yl] acetate

> <PUBCHEM_IUPAC_SYSTEMATIC_NAME>
[(8S,9S,10S,13S,14S)-13-methyl-3-oxidanylidene-6,7,8,9,11,12,14,15,16,17-decahydrocyclopenta[a]phenanthren-10-yl] ethanoate

> <PUBCHEM_IUPAC_TRADITIONAL_NAME>
acetic acid [(8S,9S,10S,13S,14S)-3-keto-13-methyl-6,7,8,9,11,12,14,15,16,17-decahydrocyclopenta[a]phenanthren-10-yl] ester

> <PUBCHEM_IUPAC_INCHI>
InChI=1S/C20H26O3/c1-13(21)23-20-11-7-15(22)12-14(20)5-6-16-17-4-3-9-19(17,2)10-8-18(16)20/h7,11-12,16-18H,3-6,8-10H2,1-2H3/t16-,17-,18-,19-,20+/m0/s1

> <PUBCHEM_IUPAC_INCHIKEY>
GFPFWODQGPZXMQ-VYJAJWGXSA-N

> <PUBCHEM_XLOGP3_AA>
4

> <PUBCHEM_EXACT_MASS>
314.188195

> <PUBCHEM_MOLECULAR_FORMULA>
C20H26O3

> <PUBCHEM_MOLECULAR_WEIGHT>
314.41864

> <PUBCHEM_OPENEYE_CAN_SMILES>
CC(=O)OC12C=CC(=O)C=C1CCC3C2CCC4(C3CCC4)C

> <PUBCHEM_OPENEYE_ISO_SMILES>
CC(=O)O[C@]12C=CC(=O)C=C1CC[C@@H]3[C@@H]2CC[C@]4([C@H]3CCC4)C

> <PUBCHEM_CACTVS_TPSA>
43.4

> <PUBCHEM_MONOISOTOPIC_WEIGHT>
314.188195

> <PUBCHEM_TOTAL_CHARGE>
0

> <PUBCHEM_HEAVY_ATOM_COUNT>
23

> <PUBCHEM_ATOM_DEF_STEREO_COUNT>
5

> <PUBCHEM_ATOM_UDEF_STEREO_COUNT>
0

> <PUBCHEM_BOND_DEF_STEREO_COUNT>
0

> <PUBCHEM_BOND_UDEF_STEREO_COUNT>
0

> <PUBCHEM_ISOTOPIC_ATOM_COUNT>
0

> <PUBCHEM_COMPONENT_COUNT>
1

> <PUBCHEM_CACTVS_TAUTO_COUNT>
3

> <PUBCHEM_COORDINATE_TYPE>
1
5
255

> <PUBCHEM_BONDANNOTATIONS>
12  1  5
4  24  6
5  15  5
6  25  5
7  26  6

$$$$

