   Octanol/Water Partition Coefficient
        log Kow = -0.29 /Estimated/
   from [1]HSDB

   Solubilities
        Miscible in water. /Estimated/
   from [2]HSDB

   Vapor Pressure
        2.1X10-11 mm Hg at 25 deg C /Estimated/
   from [3]HSDB

   Other Chemical/Physical Properties

     * Henry's Law constant = 1.0X10-29 atm-cu m/mol at 25 deg C
       /Estimated/
     * Hydroxyl radical reaction rate constant = 5.2X10-12 cu
       cm/molecule-sec at 25 deg C /Estimated/
     * Fine, white to off-white crystalline powder; odorless; MW 305.09.
       Occurs as hemi-pentahydrate. Soluble in water. Essentially
       insoluble in common organic solvents. /Monosodium salt/
     * Soluble in aqueous solutions. /Sodium/
     * pKa1 = 2.9 phosphoric acid moiety based on etidronic acid; pKa2= 7
       phosphoric acid moiety based on etidronic acid /Etidronic acid/

   from [4]HSDB

   Computed Properties
   Molecular Weight                  283.112264 [g/mol]
   Molecular Formula                 C[7]H[11]NO[7]P[2]
   XLogP3-AA                         -3.1
   H-Bond Donor                      5
   H-Bond Acceptor                   8
   Rotatable Bond Count              4
   Exact Mass                        283.001075
   MonoIsotopic Mass                 283.001075
   Topological Polar Surface Area    148
   Heavy Atom Count                  17
   Formal Charge                     0
   Complexity                        339
   Isotope Atom Count                0
   Defined Atom Stereocenter Count   0
   Undefined Atom Stereocenter Count 0
   Defined Bond Stereocenter Count   0
   Undefined Bond Stereocenter Count 0
   Covalently-Bonded Unit Count      1
   Feature 3D Acceptor Count         8
   Feature 3D Donor Count            1
   Feature 3D Anion Count            2
   Feature 3D Ring Count             1
   Effective Rotor Count             4
   Conformer Sampling RMSD           0.6
   CID Conformer Count               [5]8

References

   1. http://toxnet.nlm.nih.gov/cgi-bin/sis/search/r?dbs+hsdb:@term+@rn+@rel+105462-24-6
   2. http://toxnet.nlm.nih.gov/cgi-bin/sis/search/r?dbs+hsdb:@term+@rn+@rel+105462-24-6
   3. http://toxnet.nlm.nih.gov/cgi-bin/sis/search/r?dbs+hsdb:@term+@rn+@rel+105462-24-6
   4. http://toxnet.nlm.nih.gov/cgi-bin/sis/search/r?dbs+hsdb:@term+@rn+@rel+105462-24-6
   5. http://pubchem.ncbi.nlm.nih.gov/vw3d/vw3d.cgi?cid=5245
