17395829
  -OEChem-06241222522D

 49 53  0     0  0  0  0  0  0999 V2000
    4.6844    0.5979    0.0000 S   0  0  0  0  0  0  0  0  0  0  0  0
    7.0586    4.5174    0.0000 O   0  0  0  0  0  0  0  0  0  0  0  0
    4.4026   -1.1617    0.0000 N   0  0  0  0  0  0  0  0  0  0  0  0
    5.9405   -1.6644    0.0000 N   0  0  0  0  0  0  0  0  0  0  0  0
    5.9422   -0.6644    0.0000 N   0  0  0  0  0  0  0  0  0  0  0  0
    5.7178    3.0334    0.0000 N   0  0  0  0  0  0  0  0  0  0  0  0
    4.6783   -4.5317    0.0000 N   0  0  0  0  0  0  0  0  0  0  0  0
    3.4026   -1.1600    0.0000 C   0  0  0  0  0  0  0  0  0  0  0  0
    2.5374   -0.6585    0.0000 C   0  0  0  0  0  0  0  0  0  0  0  0
    2.5357   -1.6585    0.0000 C   0  0  0  0  0  0  0  0  0  0  0  0
    4.9889   -1.9718    0.0000 C   0  0  0  0  0  0  0  0  0  0  0  0
    4.9917   -0.3537    0.0000 C   0  0  0  0  0  0  0  0  0  0  0  0
    4.6783   -2.9223    0.0000 C   0  0  0  0  0  0  0  0  0  0  0  0
    5.3548    1.3398    0.0000 C   0  0  0  0  0  0  0  0  0  0  0  0
    5.0474    2.2914    0.0000 C   0  0  0  0  0  0  0  0  0  0  0  0
    3.7320   -3.2270    0.0000 C   0  0  0  0  0  0  0  0  0  0  0  0
    5.4104    3.9850    0.0000 C   0  0  0  0  0  0  0  0  0  0  0  0
    6.6956    2.8238    0.0000 C   0  0  0  0  0  0  0  0  0  0  0  0
    5.2619   -3.7270    0.0000 C   0  0  0  0  0  0  0  0  0  0  0  0
    7.3660    3.5658    0.0000 C   0  0  0  0  0  0  0  0  0  0  0  0
    6.0809    4.7270    0.0000 C   0  0  0  0  0  0  0  0  0  0  0  0
    3.7320   -4.2270    0.0000 C   0  0  0  0  0  0  0  0  0  0  0  0
    2.8660   -2.7270    0.0000 C   0  0  0  0  0  0  0  0  0  0  0  0
    2.8660   -4.7270    0.0000 C   0  0  0  0  0  0  0  0  0  0  0  0
    2.0000   -3.2270    0.0000 C   0  0  0  0  0  0  0  0  0  0  0  0
    2.0000   -4.2270    0.0000 C   0  0  0  0  0  0  0  0  0  0  0  0
    3.5640   -0.5614    0.0000 H   0  0  0  0  0  0  0  0  0  0  0  0
    1.9249   -1.7651    0.0000 H   0  0  0  0  0  0  0  0  0  0  0  0
    2.7504   -0.0762    0.0000 H   0  0  0  0  0  0  0  0  0  0  0  0
    1.9270   -0.5498    0.0000 H   0  0  0  0  0  0  0  0  0  0  0  0
    2.7467   -2.2415    0.0000 H   0  0  0  0  0  0  0  0  0  0  0  0
    6.4415   -2.0297    0.0000 H   0  0  0  0  0  0  0  0  0  0  0  0
    4.6665    2.7807    0.0000 H   0  0  0  0  0  0  0  0  0  0  0  0
    4.4995    2.0013    0.0000 H   0  0  0  0  0  0  0  0  0  0  0  0
    5.7356    0.8506    0.0000 H   0  0  0  0  0  0  0  0  0  0  0  0
    5.9027    1.6300    0.0000 H   0  0  0  0  0  0  0  0  0  0  0  0
    6.4624    2.2494    0.0000 H   0  0  0  0  0  0  0  0  0  0  0  0
    7.2208    2.4944    0.0000 H   0  0  0  0  0  0  0  0  0  0  0  0
    5.0296    4.4742    0.0000 H   0  0  0  0  0  0  0  0  0  0  0  0
    4.8625    3.6949    0.0000 H   0  0  0  0  0  0  0  0  0  0  0  0
    5.8819   -3.7270    0.0000 H   0  0  0  0  0  0  0  0  0  0  0  0
    7.7469    3.0766    0.0000 H   0  0  0  0  0  0  0  0  0  0  0  0
    7.9140    3.8559    0.0000 H   0  0  0  0  0  0  0  0  0  0  0  0
    6.3141    5.3015    0.0000 H   0  0  0  0  0  0  0  0  0  0  0  0
    5.5556    5.0565    0.0000 H   0  0  0  0  0  0  0  0  0  0  0  0
    2.8660   -2.1070    0.0000 H   0  0  0  0  0  0  0  0  0  0  0  0
    2.8660   -5.3470    0.0000 H   0  0  0  0  0  0  0  0  0  0  0  0
    1.4631   -2.9170    0.0000 H   0  0  0  0  0  0  0  0  0  0  0  0
    1.4631   -4.5370    0.0000 H   0  0  0  0  0  0  0  0  0  0  0  0
  1 12  1  0  0  0  0
  1 14  1  0  0  0  0
  2 20  1  0  0  0  0
  2 21  1  0  0  0  0
  3  8  1  0  0  0  0
  3 11  1  0  0  0  0
  3 12  1  0  0  0  0
  4  5  1  0  0  0  0
  4 11  1  0  0  0  0
  4 32  1  0  0  0  0
  5 12  2  0  0  0  0
  6 15  1  0  0  0  0
  6 17  1  0  0  0  0
  6 18  1  0  0  0  0
  7 19  2  0  0  0  0
  7 22  1  0  0  0  0
  8  9  1  0  0  0  0
  8 10  1  0  0  0  0
  8 27  1  0  0  0  0
  9 10  1  0  0  0  0
  9 29  1  0  0  0  0
  9 30  1  0  0  0  0
 10 28  1  0  0  0  0
 10 31  1  0  0  0  0
 11 13  2  0  0  0  0
 13 16  1  0  0  0  0
 13 19  1  0  0  0  0
 14 15  1  0  0  0  0
 14 35  1  0  0  0  0
 14 36  1  0  0  0  0
 15 33  1  0  0  0  0
 15 34  1  0  0  0  0
 16 22  1  0  0  0  0
 16 23  2  0  0  0  0
 17 21  1  0  0  0  0
 17 39  1  0  0  0  0
 17 40  1  0  0  0  0
 18 20  1  0  0  0  0
 18 37  1  0  0  0  0
 18 38  1  0  0  0  0
 19 41  1  0  0  0  0
 20 42  1  0  0  0  0
 20 43  1  0  0  0  0
 21 44  1  0  0  0  0
 21 45  1  0  0  0  0
 22 24  2  0  0  0  0
 23 25  1  0  0  0  0
 23 46  1  0  0  0  0
 24 26  1  0  0  0  0
 24 47  1  0  0  0  0
 25 26  2  0  0  0  0
 25 48  1  0  0  0  0
 26 49  1  0  0  0  0
M  END
> <PUBCHEM_COMPOUND_CID>
17395829

> <PUBCHEM_COMPOUND_CANONICALIZED>
1

> <PUBCHEM_CACTVS_COMPLEXITY>
623

> <PUBCHEM_CACTVS_HBOND_ACCEPTOR>
6

> <PUBCHEM_CACTVS_HBOND_DONOR>
1

> <PUBCHEM_CACTVS_ROTATABLE_BOND>
5

> <PUBCHEM_CACTVS_SUBSKEYS>
AAADceB7oABAAAAAAAAAAAAAGAAAAQIAAAA8QAAAAAAAAEABAAAAHgQYAAAADCjl2AaxwINiBAigAjRjZACSAABgAhANiAAoZJiKICKAmZGHIABggAKYyAcQgIAOAAAAAAACAAAAAAAAAAQAAAAAAAAAAA==

> <PUBCHEM_IUPAC_OPENEYE_NAME>
4-[2-[[(5Z)-4-cyclopropyl-5-indol-3-ylidene-1H-1,2,4-triazol-3-yl]sulfanyl]ethyl]morpholine

> <PUBCHEM_IUPAC_CAS_NAME>
4-[2-[[(5Z)-4-cyclopropyl-5-(3-indolylidene)-1H-1,2,4-triazol-3-yl]thio]ethyl]morpholine

> <PUBCHEM_IUPAC_NAME>
4-[2-[[(5Z)-4-cyclopropyl-5-indol-3-ylidene-1H-1,2,4-triazol-3-yl]sulfanyl]ethyl]morpholine

> <PUBCHEM_IUPAC_SYSTEMATIC_NAME>
4-[2-[[(5Z)-4-cyclopropyl-5-indol-3-ylidene-1H-1,2,4-triazol-3-yl]sulfanyl]ethyl]morpholine

> <PUBCHEM_IUPAC_TRADITIONAL_NAME>
4-[2-[[(5Z)-4-cyclopropyl-5-indol-3-ylidene-1H-1,2,4-triazol-3-yl]thio]ethyl]morpholine

> <PUBCHEM_IUPAC_INCHI>
InChI=1S/C19H23N5OS/c1-2-4-17-15(3-1)16(13-20-17)18-21-22-19(24(18)14-5-6-14)26-12-9-23-7-10-25-11-8-23/h1-4,13-14,21H,5-12H2/b18-16-

> <PUBCHEM_IUPAC_INCHIKEY>
RRJCCTNBQGFHGT-VLGSPTGOSA-N

> <PUBCHEM_XLOGP3_AA>
2.1

> <PUBCHEM_EXACT_MASS>
369.162331

> <PUBCHEM_MOLECULAR_FORMULA>
C19H23N5OS

> <PUBCHEM_MOLECULAR_WEIGHT>
369.48382

> <PUBCHEM_OPENEYE_CAN_SMILES>
C1CC1N2C(=C3C=NC4=CC=CC=C43)NN=C2SCCN5CCOCC5

> <PUBCHEM_OPENEYE_ISO_SMILES>
C1CC1N2/C(=C\3/C=NC4=CC=CC=C43)/NN=C2SCCN5CCOCC5

> <PUBCHEM_CACTVS_TPSA>
77.8

> <PUBCHEM_MONOISOTOPIC_WEIGHT>
369.162331

> <PUBCHEM_TOTAL_CHARGE>
0

> <PUBCHEM_HEAVY_ATOM_COUNT>
26

> <PUBCHEM_ATOM_DEF_STEREO_COUNT>
0

> <PUBCHEM_ATOM_UDEF_STEREO_COUNT>
0

> <PUBCHEM_BOND_DEF_STEREO_COUNT>
1

> <PUBCHEM_BOND_UDEF_STEREO_COUNT>
0

> <PUBCHEM_ISOTOPIC_ATOM_COUNT>
0

> <PUBCHEM_COMPONENT_COUNT>
1

> <PUBCHEM_CACTVS_TAUTO_COUNT>
3

> <PUBCHEM_COORDINATE_TYPE>
1
5
255

> <PUBCHEM_BONDANNOTATIONS>
16  22  8
16  23  8
22  24  8
23  25  8
24  26  8
25  26  8

$$$$

