4674
  -OEChem-07051212532D

 24 23  0     0  0  0  0  0  0999 V2000
    5.1350   -0.3021    0.0000 P   0  0  0  0  0  0  0  0  0  0  0  0
    3.4030   -1.3021    0.0000 P   0  0  0  0  0  0  0  0  0  0  0  0
    4.7690   -1.6681    0.0000 O   0  0  0  0  0  0  0  0  0  0  0  0
    6.0010    0.1979    0.0000 O   0  0  0  0  0  0  0  0  0  0  0  0
    2.5369   -1.8021    0.0000 O   0  0  0  0  0  0  0  0  0  0  0  0
    5.6350   -1.1681    0.0000 O   0  0  0  0  0  0  0  0  0  0  0  0
    2.9030   -0.4361    0.0000 O   0  0  0  0  0  0  0  0  0  0  0  0
    3.4030   -2.3021    0.0000 O   0  0  0  0  0  0  0  0  0  0  0  0
    4.9614    0.6827    0.0000 O   0  0  0  0  0  0  0  0  0  0  0  0
    3.1766    1.6915    0.0000 N   0  0  0  0  0  0  0  0  0  0  0  0
    4.2690   -0.8021    0.0000 C   0  0  0  0  0  0  0  0  0  0  0  0
    3.7690    0.0639    0.0000 C   0  0  0  0  0  0  0  0  0  0  0  0
    3.9426    1.0487    0.0000 C   0  0  0  0  0  0  0  0  0  0  0  0
    3.2149    0.3422    0.0000 H   0  0  0  0  0  0  0  0  0  0  0  0
    3.3435   -0.3870    0.0000 H   0  0  0  0  0  0  0  0  0  0  0  0
    4.5252    0.8367    0.0000 H   0  0  0  0  0  0  0  0  0  0  0  0
    4.2526    1.5857    0.0000 H   0  0  0  0  0  0  0  0  0  0  0  0
    4.7690   -2.2881    0.0000 H   0  0  0  0  0  0  0  0  0  0  0  0
    6.0010    0.8179    0.0000 H   0  0  0  0  0  0  0  0  0  0  0  0
    2.0000   -1.4921    0.0000 H   0  0  0  0  0  0  0  0  0  0  0  0
    6.2550   -1.1681    0.0000 H   0  0  0  0  0  0  0  0  0  0  0  0
    2.2830   -0.4361    0.0000 H   0  0  0  0  0  0  0  0  0  0  0  0
    3.2842    2.3021    0.0000 H   0  0  0  0  0  0  0  0  0  0  0  0
    2.5940    1.4795    0.0000 H   0  0  0  0  0  0  0  0  0  0  0  0
  1  4  1  0  0  0  0
  1  6  1  0  0  0  0
  1  9  2  0  0  0  0
  1 11  1  0  0  0  0
  2  5  1  0  0  0  0
  2  7  1  0  0  0  0
  2  8  2  0  0  0  0
  2 11  1  0  0  0  0
  3 11  1  0  0  0  0
  3 18  1  0  0  0  0
  4 19  1  0  0  0  0
  5 20  1  0  0  0  0
  6 21  1  0  0  0  0
  7 22  1  0  0  0  0
 10 13  1  0  0  0  0
 10 23  1  0  0  0  0
 10 24  1  0  0  0  0
 11 12  1  0  0  0  0
 12 13  1  0  0  0  0
 12 14  1  0  0  0  0
 12 15  1  0  0  0  0
 13 16  1  0  0  0  0
 13 17  1  0  0  0  0
M  END
> <PUBCHEM_COMPOUND_CID>
4674

> <PUBCHEM_COMPOUND_CANONICALIZED>
1

> <PUBCHEM_CACTVS_COMPLEXITY>
243

> <PUBCHEM_CACTVS_HBOND_ACCEPTOR>
8

> <PUBCHEM_CACTVS_HBOND_DONOR>
6

> <PUBCHEM_CACTVS_ROTATABLE_BOND>
4

> <PUBCHEM_CACTVS_SUBSKEYS>
AAADccBCOAMAAAAAAAAAAAAAAAAAAAAAAAAAAAAAAAAAAAAAAAAAHggQCCAACADBgAQAAABAAhAAQAAAAIAAAAAAAAAAAIAAAAAAAAAAAAAAQAACEAAAAAAAAAAAAAAAAAAAAAAAAAAAAAAAAAAAAAAAAA==

> <PUBCHEM_IUPAC_OPENEYE_NAME>
(3-amino-1-hydroxy-1-phosphono-propyl)phosphonic acid

> <PUBCHEM_IUPAC_CAS_NAME>
(3-amino-1-hydroxy-1-phosphonopropyl)phosphonic acid

> <PUBCHEM_IUPAC_NAME>
(3-amino-1-hydroxy-1-phosphonopropyl)phosphonic acid

> <PUBCHEM_IUPAC_SYSTEMATIC_NAME>
(3-azanyl-1-oxidanyl-1-phosphono-propyl)phosphonic acid

> <PUBCHEM_IUPAC_TRADITIONAL_NAME>
(3-amino-1-hydroxy-1-phosphono-propyl)phosphonic acid

> <PUBCHEM_IUPAC_INCHI>
InChI=1S/C3H11NO7P2/c4-2-1-3(5,12(6,7)8)13(9,10)11/h5H,1-2,4H2,(H2,6,7,8)(H2,9,10,11)

> <PUBCHEM_IUPAC_INCHIKEY>
WRUUGTRCQOWXEG-UHFFFAOYSA-N

> <PUBCHEM_XLOGP3_AA>
-6.9

> <PUBCHEM_EXACT_MASS>
235.001075

> <PUBCHEM_MOLECULAR_FORMULA>
C3H11NO7P2

> <PUBCHEM_MOLECULAR_WEIGHT>
235.069464

> <PUBCHEM_OPENEYE_CAN_SMILES>
C(CN)C(O)(P(=O)(O)O)P(=O)(O)O

> <PUBCHEM_OPENEYE_ISO_SMILES>
C(CN)C(O)(P(=O)(O)O)P(=O)(O)O

> <PUBCHEM_CACTVS_TPSA>
161

> <PUBCHEM_MONOISOTOPIC_WEIGHT>
235.001075

> <PUBCHEM_TOTAL_CHARGE>
0

> <PUBCHEM_HEAVY_ATOM_COUNT>
13

> <PUBCHEM_ATOM_DEF_STEREO_COUNT>
0

> <PUBCHEM_ATOM_UDEF_STEREO_COUNT>
0

> <PUBCHEM_BOND_DEF_STEREO_COUNT>
0

> <PUBCHEM_BOND_UDEF_STEREO_COUNT>
0

> <PUBCHEM_ISOTOPIC_ATOM_COUNT>
0

> <PUBCHEM_COMPONENT_COUNT>
1

> <PUBCHEM_CACTVS_TAUTO_COUNT>
1

> <PUBCHEM_COORDINATE_TYPE>
1
5
255

$$$$

