5281634
  -OEChem-07051212582D

 33 35  0     0  0  0  0  0  0999 V2000
    6.3981   -1.7550    0.0000 O   0  0  0  0  0  0  0  0  0  0  0  0
    8.1465    1.2796    0.0000 O   0  0  0  0  0  0  0  0  0  0  0  0
    6.3981    1.2450    0.0000 O   0  0  0  0  0  0  0  0  0  0  0  0
    2.8680   -1.7791    0.0000 O   0  0  0  0  0  0  0  0  0  0  0  0
    4.6497    1.2796    0.0000 O   0  0  0  0  0  0  0  0  0  0  0  0
    9.9282    0.2692    0.0000 O   0  0  0  0  0  0  0  0  0  0  0  0
    7.2641   -0.2550    0.0000 C   0  0  0  0  0  0  0  0  0  0  0  0
    5.5320   -0.2550    0.0000 C   0  0  0  0  0  0  0  0  0  0  0  0
    5.5320   -1.2550    0.0000 C   0  0  0  0  0  0  0  0  0  0  0  0
    7.2641   -1.2550    0.0000 C   0  0  0  0  0  0  0  0  0  0  0  0
    6.3981    0.2450    0.0000 C   0  0  0  0  0  0  0  0  0  0  0  0
    8.1580    0.2797    0.0000 C   0  0  0  0  0  0  0  0  0  0  0  0
    4.6381    0.2797    0.0000 C   0  0  0  0  0  0  0  0  0  0  0  0
    4.6381   -1.7896    0.0000 C   0  0  0  0  0  0  0  0  0  0  0  0
    8.1580   -1.7896    0.0000 C   0  0  0  0  0  0  0  0  0  0  0  0
    9.0641   -0.2341    0.0000 C   0  0  0  0  0  0  0  0  0  0  0  0
    3.7320   -1.2758    0.0000 C   0  0  0  0  0  0  0  0  0  0  0  0
    3.7320   -0.2341    0.0000 C   0  0  0  0  0  0  0  0  0  0  0  0
    9.0641   -1.2758    0.0000 C   0  0  0  0  0  0  0  0  0  0  0  0
    9.0067    1.7896    0.0000 C   0  0  0  0  0  0  0  0  0  0  0  0
    2.0000   -1.2824    0.0000 C   0  0  0  0  0  0  0  0  0  0  0  0
    4.6453   -2.4096    0.0000 H   0  0  0  0  0  0  0  0  0  0  0  0
    8.1509   -2.4096    0.0000 H   0  0  0  0  0  0  0  0  0  0  0  0
    3.1963    0.0779    0.0000 H   0  0  0  0  0  0  0  0  0  0  0  0
    9.5998   -1.5878    0.0000 H   0  0  0  0  0  0  0  0  0  0  0  0
    4.1164    1.5958    0.0000 H   0  0  0  0  0  0  0  0  0  0  0  0
   10.4663   -0.0387    0.0000 H   0  0  0  0  0  0  0  0  0  0  0  0
    9.3229    1.2563    0.0000 H   0  0  0  0  0  0  0  0  0  0  0  0
    9.5400    2.1058    0.0000 H   0  0  0  0  0  0  0  0  0  0  0  0
    8.6905    2.3229    0.0000 H   0  0  0  0  0  0  0  0  0  0  0  0
    2.3079   -0.7443    0.0000 H   0  0  0  0  0  0  0  0  0  0  0  0
    1.4619   -0.9745    0.0000 H   0  0  0  0  0  0  0  0  0  0  0  0
    1.6921   -1.8206    0.0000 H   0  0  0  0  0  0  0  0  0  0  0  0
  1  9  1  0  0  0  0
  1 10  1  0  0  0  0
  2 12  1  0  0  0  0
  2 20  1  0  0  0  0
  3 11  2  0  0  0  0
  4 17  1  0  0  0  0
  4 21  1  0  0  0  0
  5 13  1  0  0  0  0
  5 26  1  0  0  0  0
  6 16  1  0  0  0  0
  6 27  1  0  0  0  0
  7 10  2  0  0  0  0
  7 11  1  0  0  0  0
  7 12  1  0  0  0  0
  8  9  1  0  0  0  0
  8 11  1  0  0  0  0
  8 13  2  0  0  0  0
  9 14  2  0  0  0  0
 10 15  1  0  0  0  0
 12 16  2  0  0  0  0
 13 18  1  0  0  0  0
 14 17  1  0  0  0  0
 14 22  1  0  0  0  0
 15 19  2  0  0  0  0
 15 23  1  0  0  0  0
 16 19  1  0  0  0  0
 17 18  2  0  0  0  0
 18 24  1  0  0  0  0
 19 25  1  0  0  0  0
 20 28  1  0  0  0  0
 20 29  1  0  0  0  0
 20 30  1  0  0  0  0
 21 31  1  0  0  0  0
 21 32  1  0  0  0  0
 21 33  1  0  0  0  0
M  END
> <PUBCHEM_COMPOUND_CID>
5281634

> <PUBCHEM_COMPOUND_CANONICALIZED>
1

> <PUBCHEM_CACTVS_COMPLEXITY>
400

> <PUBCHEM_CACTVS_HBOND_ACCEPTOR>
6

> <PUBCHEM_CACTVS_HBOND_DONOR>
2

> <PUBCHEM_CACTVS_ROTATABLE_BOND>
2

> <PUBCHEM_CACTVS_SUBSKEYS>
AAADccBwOAAAAAAAAAAAAAAAAAAAAAAAAAA0YIAAAAAAAACRQAAAGgAACAAADASAmAIyBoAABgCIAqBSAAACCAAkIAAIiAEGiMgNJzaGNRqCeWOl4BULuQfK7PzOIQABCAAIQABCAAIQABCAAAAAAAAAAA==

> <PUBCHEM_IUPAC_OPENEYE_NAME>
2,8-dihydroxy-1,6-dimethoxy-xanthen-9-one

> <PUBCHEM_IUPAC_CAS_NAME>
2,8-dihydroxy-1,6-dimethoxy-9-xanthenone

> <PUBCHEM_IUPAC_NAME>
2,8-dihydroxy-1,6-dimethoxyxanthen-9-one

> <PUBCHEM_IUPAC_SYSTEMATIC_NAME>
1,6-dimethoxy-2,8-bis(oxidanyl)xanthen-9-one

> <PUBCHEM_IUPAC_TRADITIONAL_NAME>
2,8-dihydroxy-1,6-dimethoxy-xanthone

> <PUBCHEM_IUPAC_INCHI>
InChI=1S/C15H12O6/c1-19-7-5-9(17)12-11(6-7)21-10-4-3-8(16)15(20-2)13(10)14(12)18/h3-6,16-17H,1-2H3

> <PUBCHEM_IUPAC_INCHIKEY>
WYOSCUWDVFHQFY-UHFFFAOYSA-N

> <PUBCHEM_XLOGP3_AA>
2.7

> <PUBCHEM_EXACT_MASS>
288.063388

> <PUBCHEM_MOLECULAR_FORMULA>
C15H12O6

> <PUBCHEM_MOLECULAR_WEIGHT>
288.25218

> <PUBCHEM_OPENEYE_CAN_SMILES>
COC1=CC(=C2C(=C1)OC3=C(C2=O)C(=C(C=C3)O)OC)O

> <PUBCHEM_OPENEYE_ISO_SMILES>
COC1=CC(=C2C(=C1)OC3=C(C2=O)C(=C(C=C3)O)OC)O

> <PUBCHEM_CACTVS_TPSA>
85.2

> <PUBCHEM_MONOISOTOPIC_WEIGHT>
288.063388

> <PUBCHEM_TOTAL_CHARGE>
0

> <PUBCHEM_HEAVY_ATOM_COUNT>
21

> <PUBCHEM_ATOM_DEF_STEREO_COUNT>
0

> <PUBCHEM_ATOM_UDEF_STEREO_COUNT>
0

> <PUBCHEM_BOND_DEF_STEREO_COUNT>
0

> <PUBCHEM_BOND_UDEF_STEREO_COUNT>
0

> <PUBCHEM_ISOTOPIC_ATOM_COUNT>
0

> <PUBCHEM_COMPONENT_COUNT>
1

> <PUBCHEM_CACTVS_TAUTO_COUNT>
15

> <PUBCHEM_COORDINATE_TYPE>
1
5
255

> <PUBCHEM_BONDANNOTATIONS>
1  10  8
1  9  8
10  15  8
12  16  8
13  18  8
14  17  8
15  19  8
16  19  8
17  18  8
7  10  8
7  11  8
7  12  8
8  11  8
8  13  8
8  9  8
9  14  8

$$$$

