   Color/Form

     * Straw-colored liquid
     * Technical grade is a clear red-brown liquid

   from [1]HSDB

   Odor
        Technical grade has a mercaptan-like odor
   from [2]HSDB

   Melting Point
        15-18 deg C /technical grade/
   from [3]HSDB

   Corrosivity
        Corrosive to iron & unprotected tinplate
   from [4]HSDB

   Density/Specific Gravity
        1.14 @ 20 deg C
   from [5]HSDB

   Octanol/Water Partition Coefficient
        log Kow = 4.85 [Bowman BT, Sans WW; J Environ Sci Health B18:
   221-27 (1983)] [6]PubMed Abstract
   from [7]HSDB

   Solubilities

     * Miscible with most organic solvents
     * 3.96 mg/L at 20 deg C

   from [8]HSDB

   Spectral Properties
        Index of refraction: 1.520 @ 25 deg C/D
   from [9]HSDB

   Vapor Pressure
        2.9X10-4 mm Hg @ 25 deg C
   from [10]HSDB

   Other Chemical/Physical Properties
        Decomposes above circa 194 deg C so no boiling point can be
   determined; stable for at least 1 year at room temperature and for at
   least 5 days at 80 deg C. Hydrolysed by acid and base; DT50(25 deg C)
   52-1200 days (pH range 5.5-8.5), most stable pH 7-8.
   from [11]HSDB

   Computed Properties
   Molecular Weight                  333.386722 [g/mol]
   Molecular Formula                 C[13]H[24]N[3]O[3]PS
   XLogP3                            4.8
   H-Bond Donor                      0
   H-Bond Acceptor                   7
   Rotatable Bond Count              9
   Exact Mass                        333.127599
   MonoIsotopic Mass                 333.127599
   Topological Polar Surface Area    88.8
   Heavy Atom Count                  21
   Formal Charge                     0
   Complexity                        335
   Isotope Atom Count                0
   Defined Atom Stereocenter Count   0
   Undefined Atom Stereocenter Count 0
   Defined Bond Stereocenter Count   0
   Undefined Bond Stereocenter Count 0
   Covalently-Bonded Unit Count      1
   Feature 3D Cation Count           1
   Feature 3D Ring Count             1
   Effective Rotor Count             9
   Conformer Sampling RMSD           0.8
   CID Conformer Count               [12]256

References

   1. http://toxnet.nlm.nih.gov/cgi-bin/sis/search/r?dbs+hsdb:@term+@rn+@rel+23505-41-1
   2. http://toxnet.nlm.nih.gov/cgi-bin/sis/search/r?dbs+hsdb:@term+@rn+@rel+23505-41-1
   3. http://toxnet.nlm.nih.gov/cgi-bin/sis/search/r?dbs+hsdb:@term+@rn+@rel+23505-41-1
   4. http://toxnet.nlm.nih.gov/cgi-bin/sis/search/r?dbs+hsdb:@term+@rn+@rel+23505-41-1
   5. http://toxnet.nlm.nih.gov/cgi-bin/sis/search/r?dbs+hsdb:@term+@rn+@rel+23505-41-1
   6. http://www.ncbi.nlm.nih.gov/entrez/query.fcgi?cmd=Retrieve&db=pubmed&dopt=Abstract&list_uids=6853964
   7. http://toxnet.nlm.nih.gov/cgi-bin/sis/search/r?dbs+hsdb:@term+@rn+@rel+23505-41-1
   8. http://toxnet.nlm.nih.gov/cgi-bin/sis/search/r?dbs+hsdb:@term+@rn+@rel+23505-41-1
   9. http://toxnet.nlm.nih.gov/cgi-bin/sis/search/r?dbs+hsdb:@term+@rn+@rel+23505-41-1
  10. http://toxnet.nlm.nih.gov/cgi-bin/sis/search/r?dbs+hsdb:@term+@rn+@rel+23505-41-1
  11. http://toxnet.nlm.nih.gov/cgi-bin/sis/search/r?dbs+hsdb:@term+@rn+@rel+23505-41-1
  12. http://pubchem.ncbi.nlm.nih.gov/vw3d/vw3d.cgi?cid=31957
