5282259
  -OEChem-07051213042D

 54 53  0     0  0  0  0  0  0999 V2000
   10.6603    4.3450    0.0000 O   0  0  0  0  0  0  0  0  0  0  0  0
   11.5263    2.8450    0.0000 O   0  0  0  0  0  0  0  0  0  0  0  0
    7.1962   -4.6550    0.0000 O   0  5  0  0  0  0  0  0  0  0  0  0
    5.4641   -4.6550    0.0000 O   0  0  0  0  0  0  0  0  0  0  0  0
    6.3301   -4.1550    0.0000 N   0  3  0  0  0  0  0  0  0  0  0  0
    8.9282    0.3450    0.0000 C   0  0  0  0  0  0  0  0  0  0  0  0
    8.0622   -0.1550    0.0000 C   0  0  0  0  0  0  0  0  0  0  0  0
    8.9282    1.3450    0.0000 C   0  0  0  0  0  0  0  0  0  0  0  0
    8.0622   -1.1550    0.0000 C   0  0  0  0  0  0  0  0  0  0  0  0
    9.7942    1.8450    0.0000 C   0  0  0  0  0  0  0  0  0  0  0  0
    7.1962   -1.6550    0.0000 C   0  0  0  0  0  0  0  0  0  0  0  0
    9.7942    2.8450    0.0000 C   0  0  0  0  0  0  0  0  0  0  0  0
    7.1962   -2.6550    0.0000 C   0  0  0  0  0  0  0  0  0  0  0  0
    2.8660   -1.1550    0.0000 C   0  0  0  0  0  0  0  0  0  0  0  0
    2.8660   -0.1550    0.0000 C   0  0  0  0  0  0  0  0  0  0  0  0
    3.7320   -1.6550    0.0000 C   0  0  0  0  0  0  0  0  0  0  0  0
    6.3301   -3.1550    0.0000 C   0  0  0  0  0  0  0  0  0  0  0  0
    2.0000    0.3450    0.0000 C   0  0  0  0  0  0  0  0  0  0  0  0
    5.4641   -2.6550    0.0000 C   0  0  0  0  0  0  0  0  0  0  0  0
    3.7320   -2.6550    0.0000 C   0  0  0  0  0  0  0  0  0  0  0  0
    4.5981   -3.1550    0.0000 C   0  0  0  0  0  0  0  0  0  0  0  0
   10.6603    3.3450    0.0000 C   0  0  0  0  0  0  0  0  0  0  0  0
    2.0000    1.3450    0.0000 C   0  0  0  0  0  0  0  0  0  0  0  0
    9.1403   -0.2376    0.0000 H   0  0  0  0  0  0  0  0  0  0  0  0
    9.5388    0.4527    0.0000 H   0  0  0  0  0  0  0  0  0  0  0  0
    7.8501    0.4276    0.0000 H   0  0  0  0  0  0  0  0  0  0  0  0
    7.4516   -0.2627    0.0000 H   0  0  0  0  0  0  0  0  0  0  0  0
    8.7162    1.9276    0.0000 H   0  0  0  0  0  0  0  0  0  0  0  0
    8.3176    1.2373    0.0000 H   0  0  0  0  0  0  0  0  0  0  0  0
    8.2742   -1.7376    0.0000 H   0  0  0  0  0  0  0  0  0  0  0  0
    8.6728   -1.0473    0.0000 H   0  0  0  0  0  0  0  0  0  0  0  0
   10.0063    1.2624    0.0000 H   0  0  0  0  0  0  0  0  0  0  0  0
   10.4048    1.9527    0.0000 H   0  0  0  0  0  0  0  0  0  0  0  0
    6.9841   -1.0724    0.0000 H   0  0  0  0  0  0  0  0  0  0  0  0
    6.5856   -1.7627    0.0000 H   0  0  0  0  0  0  0  0  0  0  0  0
    9.5822    3.4276    0.0000 H   0  0  0  0  0  0  0  0  0  0  0  0
    9.1836    2.7373    0.0000 H   0  0  0  0  0  0  0  0  0  0  0  0
    2.2554   -1.0473    0.0000 H   0  0  0  0  0  0  0  0  0  0  0  0
    2.6540   -1.7376    0.0000 H   0  0  0  0  0  0  0  0  0  0  0  0
    7.7331   -2.9650    0.0000 H   0  0  0  0  0  0  0  0  0  0  0  0
    3.4766   -0.2627    0.0000 H   0  0  0  0  0  0  0  0  0  0  0  0
    3.0781    0.4276    0.0000 H   0  0  0  0  0  0  0  0  0  0  0  0
    4.3426   -1.7627    0.0000 H   0  0  0  0  0  0  0  0  0  0  0  0
    3.9441   -1.0724    0.0000 H   0  0  0  0  0  0  0  0  0  0  0  0
    1.3894    0.4527    0.0000 H   0  0  0  0  0  0  0  0  0  0  0  0
    1.7880   -0.2376    0.0000 H   0  0  0  0  0  0  0  0  0  0  0  0
    5.8626   -2.1800    0.0000 H   0  0  0  0  0  0  0  0  0  0  0  0
    5.0656   -2.1800    0.0000 H   0  0  0  0  0  0  0  0  0  0  0  0
    3.1951   -2.9650    0.0000 H   0  0  0  0  0  0  0  0  0  0  0  0
    4.5981   -3.7750    0.0000 H   0  0  0  0  0  0  0  0  0  0  0  0
    2.6200    1.3450    0.0000 H   0  0  0  0  0  0  0  0  0  0  0  0
    2.0000    1.9650    0.0000 H   0  0  0  0  0  0  0  0  0  0  0  0
    1.3800    1.3450    0.0000 H   0  0  0  0  0  0  0  0  0  0  0  0
   11.1972    4.6550    0.0000 H   0  0  0  0  0  0  0  0  0  0  0  0
  1 22  1  0  0  0  0
  1 54  1  0  0  0  0
  2 22  2  0  0  0  0
  3  5  1  0  0  0  0
  4  5  2  0  0  0  0
  5 17  1  0  0  0  0
  6  7  1  0  0  0  0
  6  8  1  0  0  0  0
  6 24  1  0  0  0  0
  6 25  1  0  0  0  0
  7  9  1  0  0  0  0
  7 26  1  0  0  0  0
  7 27  1  0  0  0  0
  8 10  1  0  0  0  0
  8 28  1  0  0  0  0
  8 29  1  0  0  0  0
  9 11  1  0  0  0  0
  9 30  1  0  0  0  0
  9 31  1  0  0  0  0
 10 12  1  0  0  0  0
 10 32  1  0  0  0  0
 10 33  1  0  0  0  0
 11 13  1  0  0  0  0
 11 34  1  0  0  0  0
 11 35  1  0  0  0  0
 12 22  1  0  0  0  0
 12 36  1  0  0  0  0
 12 37  1  0  0  0  0
 13 17  2  0  0  0  0
 13 40  1  0  0  0  0
 14 15  1  0  0  0  0
 14 16  1  0  0  0  0
 14 38  1  0  0  0  0
 14 39  1  0  0  0  0
 15 18  1  0  0  0  0
 15 41  1  0  0  0  0
 15 42  1  0  0  0  0
 16 20  1  0  0  0  0
 16 43  1  0  0  0  0
 16 44  1  0  0  0  0
 17 19  1  0  0  0  0
 18 23  1  0  0  0  0
 18 45  1  0  0  0  0
 18 46  1  0  0  0  0
 19 21  1  0  0  0  0
 19 47  1  0  0  0  0
 19 48  1  0  0  0  0
 20 21  2  0  0  0  0
 20 49  1  0  0  0  0
 21 50  1  0  0  0  0
 23 51  1  0  0  0  0
 23 52  1  0  0  0  0
 23 53  1  0  0  0  0
M  CHG  2   3  -1   5   1
M  END
> <PUBCHEM_COMPOUND_CID>
5282259

> <PUBCHEM_COMPOUND_CANONICALIZED>
1

> <PUBCHEM_CACTVS_COMPLEXITY>
383

> <PUBCHEM_CACTVS_HBOND_ACCEPTOR>
4

> <PUBCHEM_CACTVS_HBOND_DONOR>
1

> <PUBCHEM_CACTVS_ROTATABLE_BOND>
14

> <PUBCHEM_CACTVS_SUBSKEYS>
AAADceB6OAAAAAAAAAAAAAAAAAAAAAAAAAAAAAAAAAAAAAAAAAAAHgAECAAACAiBgAACCAAQQgCJACTSSwAAAAAgAgAoCAEAAAgAABIAAQAAQAAEgAAIAAOIyKCAAAAAAAAAAAAAAAAAAAAAAAAAAAAAAA==

> <PUBCHEM_IUPAC_OPENEYE_NAME>
(9E,12Z)-10-nitrooctadeca-9,12-dienoic acid

> <PUBCHEM_IUPAC_CAS_NAME>
(9E,12Z)-10-nitrooctadeca-9,12-dienoic acid

> <PUBCHEM_IUPAC_NAME>
(9E,12Z)-10-nitrooctadeca-9,12-dienoic acid

> <PUBCHEM_IUPAC_SYSTEMATIC_NAME>
(9E,12Z)-10-nitrooctadeca-9,12-dienoic acid

> <PUBCHEM_IUPAC_TRADITIONAL_NAME>
(9E,12Z)-10-nitrooctadeca-9,12-dienoic acid

> <PUBCHEM_IUPAC_INCHI>
InChI=1S/C18H31NO4/c1-2-3-4-5-8-11-14-17(19(22)23)15-12-9-6-7-10-13-16-18(20)21/h8,11,15H,2-7,9-10,12-14,16H2,1H3,(H,20,21)/b11-8-,17-15+

> <PUBCHEM_IUPAC_INCHIKEY>
LELVHAQTWXTCLY-XYWKCAQWSA-N

> <PUBCHEM_XLOGP3_AA>
6.2

> <PUBCHEM_EXACT_MASS>
325.225308

> <PUBCHEM_MOLECULAR_FORMULA>
C18H31NO4

> <PUBCHEM_MOLECULAR_WEIGHT>
325.44304

> <PUBCHEM_OPENEYE_CAN_SMILES>
CCCCCC=CCC(=CCCCCCCCC(=O)O)[N+](=O)[O-]

> <PUBCHEM_OPENEYE_ISO_SMILES>
CCCCC/C=C\C/C(=C\CCCCCCCC(=O)O)/[N+](=O)[O-]

> <PUBCHEM_CACTVS_TPSA>
83.1

> <PUBCHEM_MONOISOTOPIC_WEIGHT>
325.225308

> <PUBCHEM_TOTAL_CHARGE>
0

> <PUBCHEM_HEAVY_ATOM_COUNT>
23

> <PUBCHEM_ATOM_DEF_STEREO_COUNT>
0

> <PUBCHEM_ATOM_UDEF_STEREO_COUNT>
0

> <PUBCHEM_BOND_DEF_STEREO_COUNT>
2

> <PUBCHEM_BOND_UDEF_STEREO_COUNT>
0

> <PUBCHEM_ISOTOPIC_ATOM_COUNT>
0

> <PUBCHEM_COMPONENT_COUNT>
1

> <PUBCHEM_CACTVS_TAUTO_COUNT>
1

> <PUBCHEM_COORDINATE_TYPE>
1
5
255

$$$$

