150923
  -OEChem-07051212472D

 20 21  0     1  0  0  0  0  0999 V2000
    6.2619   -0.1806    0.0000 O   0  0  0  0  0  0  0  0  0  0  0  0
    4.6783   -0.9853    0.0000 N   0  0  0  0  0  0  0  0  0  0  0  0
    4.6783    0.6241    0.0000 C   0  0  3  0  0  0  0  0  0  0  0  0
    3.7320    0.3194    0.0000 C   0  0  0  0  0  0  0  0  0  0  0  0
    3.7320   -0.6806    0.0000 C   0  0  0  0  0  0  0  0  0  0  0  0
    5.2619   -0.1806    0.0000 C   0  0  0  0  0  0  0  0  0  0  0  0
    4.9889    1.5747    0.0000 C   0  0  0  0  0  0  0  0  0  0  0  0
    2.8660    0.8194    0.0000 C   0  0  0  0  0  0  0  0  0  0  0  0
    2.8660   -1.1806    0.0000 C   0  0  0  0  0  0  0  0  0  0  0  0
    2.0000    0.3194    0.0000 C   0  0  0  0  0  0  0  0  0  0  0  0
    2.0000   -0.6806    0.0000 C   0  0  0  0  0  0  0  0  0  0  0  0
    5.2908    0.7203    0.0000 H   0  0  0  0  0  0  0  0  0  0  0  0
    4.8709   -1.5747    0.0000 H   0  0  0  0  0  0  0  0  0  0  0  0
    5.5783    1.3820    0.0000 H   0  0  0  0  0  0  0  0  0  0  0  0
    5.1815    2.1640    0.0000 H   0  0  0  0  0  0  0  0  0  0  0  0
    4.3996    1.7673    0.0000 H   0  0  0  0  0  0  0  0  0  0  0  0
    2.8660    1.4394    0.0000 H   0  0  0  0  0  0  0  0  0  0  0  0
    2.8660   -1.8006    0.0000 H   0  0  0  0  0  0  0  0  0  0  0  0
    1.4631    0.6294    0.0000 H   0  0  0  0  0  0  0  0  0  0  0  0
    1.4631   -0.9906    0.0000 H   0  0  0  0  0  0  0  0  0  0  0  0
  1  6  2  0  0  0  0
  2  5  1  0  0  0  0
  2  6  1  0  0  0  0
  2 13  1  0  0  0  0
  3  4  1  0  0  0  0
  3  6  1  0  0  0  0
  3  7  1  0  0  0  0
  3 12  1  0  0  0  0
  4  5  1  0  0  0  0
  4  8  2  0  0  0  0
  5  9  2  0  0  0  0
  7 14  1  0  0  0  0
  7 15  1  0  0  0  0
  7 16  1  0  0  0  0
  8 10  1  0  0  0  0
  8 17  1  0  0  0  0
  9 11  1  0  0  0  0
  9 18  1  0  0  0  0
 10 11  2  0  0  0  0
 10 19  1  0  0  0  0
 11 20  1  0  0  0  0
M  END
> <PUBCHEM_COMPOUND_CID>
150923

> <PUBCHEM_COMPOUND_CANONICALIZED>
1

> <PUBCHEM_CACTVS_COMPLEXITY>
178

> <PUBCHEM_CACTVS_HBOND_ACCEPTOR>
1

> <PUBCHEM_CACTVS_HBOND_DONOR>
1

> <PUBCHEM_CACTVS_ROTATABLE_BOND>
0

> <PUBCHEM_CACTVS_SUBSKEYS>
AAADccByIAAAAAAAAAAAAAAAAAAAAWAAAAAwAAAAAAAAAFgBAAAAHgAQAAAADQiBmAAywILAAACIAiVSUACCAAAhAgAIiAEAZIgIIDLAlZGEIAhglADIyAcciMCOgAAAAAACAAAAAAAAAAQAAAAAAAAAAA==

> <PUBCHEM_IUPAC_OPENEYE_NAME>
3-methylindolin-2-one

> <PUBCHEM_IUPAC_CAS_NAME>
3-methyl-1,3-dihydroindol-2-one

> <PUBCHEM_IUPAC_NAME>
3-methyl-1,3-dihydroindol-2-one

> <PUBCHEM_IUPAC_SYSTEMATIC_NAME>
3-methyl-1,3-dihydroindol-2-one

> <PUBCHEM_IUPAC_TRADITIONAL_NAME>
3-methyloxindole

> <PUBCHEM_IUPAC_INCHI>
InChI=1S/C9H9NO/c1-6-7-4-2-3-5-8(7)10-9(6)11/h2-6H,1H3,(H,10,11)

> <PUBCHEM_IUPAC_INCHIKEY>
BBZCPUCZKLTAJQ-UHFFFAOYSA-N

> <PUBCHEM_XLOGP3_AA>
1.3

> <PUBCHEM_EXACT_MASS>
147.068414

> <PUBCHEM_MOLECULAR_FORMULA>
C9H9NO

> <PUBCHEM_MOLECULAR_WEIGHT>
147.17386

> <PUBCHEM_OPENEYE_CAN_SMILES>
CC1C2=CC=CC=C2NC1=O

> <PUBCHEM_OPENEYE_ISO_SMILES>
CC1C2=CC=CC=C2NC1=O

> <PUBCHEM_CACTVS_TPSA>
29.1

> <PUBCHEM_MONOISOTOPIC_WEIGHT>
147.068414

> <PUBCHEM_TOTAL_CHARGE>
0

> <PUBCHEM_HEAVY_ATOM_COUNT>
11

> <PUBCHEM_ATOM_DEF_STEREO_COUNT>
0

> <PUBCHEM_ATOM_UDEF_STEREO_COUNT>
1

> <PUBCHEM_BOND_DEF_STEREO_COUNT>
0

> <PUBCHEM_BOND_UDEF_STEREO_COUNT>
0

> <PUBCHEM_ISOTOPIC_ATOM_COUNT>
0

> <PUBCHEM_COMPONENT_COUNT>
1

> <PUBCHEM_CACTVS_TAUTO_COUNT>
3

> <PUBCHEM_COORDINATE_TYPE>
1
5
255

> <PUBCHEM_BONDANNOTATIONS>
10  11  8
3  7  3
4  5  8
4  8  8
5  9  8
8  10  8
9  11  8

$$$$

