   Color/Form
        Colorless liquid.
   from [1]HSDB

   Odor

     * Pleasant odor
     * SLIGHT ODOR RESEMBLING THAT OF MIXT OF ETHANOL & ACETONE
     * Odor of rubbing alcohol.

   from [2]HSDB

   Taste

     * Slightly bitter taste
     * Burning taste

   from [3]HSDB

   Boiling Point
        82.5 deg C @ 760 mm Hg
   from [4]HSDB

   Melting Point
        -88.5 deg C
   from [5]HSDB

   Corrosivity
        Isopropyl alcohol will attack some forms of plastics, rubber, and
   coatings.
   from [6]HSDB

   Critical Temperature and Pressure
        Critical temp: 235 deg C; critical pressure: 47 atm
   from [7]HSDB

   Density/Specific Gravity
        0.78505 @ 20 deg C/4 deg C
   from [8]HSDB

   Dissociation Constants
        pKa = 17.10
   from [9]HSDB

   Heat of Combustion
        7942 cal/g; 7970 cal/g
   from [10]HSDB

   Heat of Vaporization
        45.39 kJ/mol @ 25 deg C
   from [11]HSDB

   Octanol/Water Partition Coefficient
        log Kow= 0.05
   from [12]HSDB

   Solubilities

     * Miscible with chloroform; insoluble in salt soln
     * SOL IN BENZENE
     * MISCIBLE WITH MOST ORGANIC SOLVENTS
     * In water: 1.00X10+6 @ 25 deg C
     * > 10% in alcohol
     * > 10% in ether
     * > 10% in acetone

   from [13]HSDB

   Spectral Properties

     * Max absorption (liquid): < 200nm
     * Index of refraction: 1.3852 @ 8 deg C/D; 1.3802 @ 15 deg C/D;
       1.37723 @ 20 deg C/D; 1.3749 @ 25 deg C/D
     * IR: SADG 65 (Sadtler Research Laboratories IR Grating Collection)
     * 1H NMR: VAR 44 (Varian Associates NMR Spectra Catalogue)
     * MS: NIST 18982 (NIST/EPA/MSDC Mass Spectral Database 1990 Version);
       WILEY 42 (Atlas of Mass Spectral Data, John Wiley & Sons, New York)
     * Intense mass spectral peaks: 45 m/z, 60 m/z

   from [14]HSDB

   Surface Tension
        22.11 mN/m (dyne/cm) @ 10 deg C; 20.93 mN/m @ 25 deg C; 18.96 mN/m
   @ 50 deg C; 16.98 mN/m @ 75 deg C
   from [15]HSDB

   Vapor Density
        2.1 (AIR = 1)
   from [16]HSDB

   Vapor Pressure
        45.4 mm Hg @ 25 deg C
   from [17]HSDB

   Relative Evaporation Rate

     * 21 (ether=1)
     * 1.7 (n-butyl acetate=1)

   from [18]HSDB

   Viscosity
        2.1 cP @ 25 deg C
   from [19]HSDB

   Other Chemical/Physical Properties

     * Freezing point -89.5 deg C; forms azeotrope with water (bp 80.37
       deg C, 760 mm Hg, density 0.83361 @ 0 deg C/4 deg C) /Isopropanol
       87.7% (wt/wt)/
     * % IN SATURATED AIR: 5.8 (25 DEG C); DENSITY OF SATURATED AIR: 1.06
       (AIR= 1); 1 MG/L= 408 PPM & 1 PPM= 2.45 MG/CU M @ 25 DEG C, 760 MM
       HG
     * Ratio of specific heats of vapor: 1.105; heat of solution: (est) -9
       BTU/lb= -5 cal/g= -0.2X10+5 J/kg; heat of fusion 21.37 cal/g; Reid
       vapor pressure: 1.4 psia
     * BP 80.4 deg C @ 101.3 kPa; surface tension 0.0214 mN/m @ 20 deg C;
       index of refraction 1.3769 @ 20 deg C and sodium light, vapor
       pressure 4.5 kPa @ 20 deg C, viscosity 2.1 cp @ 20 deg C,
       completely soluble in water /91% isopropanol/
     * Heat of fusion: 5.41 kJ/mol
     * Heat capacity (liquid): 2.58 J/g-K @ 25 deg C and constant pressure
     * Observed and estimated solubility of anthracene in 2-propanol at 20
       deg C: 0.0004 mole fraction (observed) 0.0006 (estimated)
     * Dielectric constant: 18.3 debye at 25 deg C; 16.24 debye at 40 deg
       C; dipole moment: 1.69 debye (gas), 1.66 debye in benzene at 30 deg
       C
     * Enthalpies of formation: -75.97 kcal/mole (liquid); -65.11
       kcal/mole (gas); Gibbs (free) energies of formation: -43.09
       kcal/mole (liquid); -41.44 kcal/mole (gas); Entropies: 43.16
       cal/deg-mole (liquid); 74.07 cal/deg-mole (gas); Heat capacities:
       36.06 cal/deg-mole (liquid); 21.21 cal/deg-mole (gas)
     * Heat of melting: 1.293 kcal/mole; heat of sublimation: 10.85
       kcal/mole at 298 K; specific heat: 26.78 cal/Kmol at 400 K
     * Henry's Law constant = 8.10X10-6 atm-cu m/mol @ 25 deg C
     * Hydroxyl radical reaction rate constant = 5.07X10-12 cu
       cm/molecule-sec @ 25 deg C
     * Coefficient of expansion: 0.00107 per deg C; density correction:
       0.00082 per deg C
     * Forms binary azeotropes with acrylonitrile, benzene, 2-bromobutane,
       2-butanone, n-butylamine, butyl isopropyl ether, carbon disulfide,
       carbon tetrachloride, 1-chlorobutane, 2-chlorobutane,
       1-chloro-3-methylbutane, 1,3-cyclohexdiene, cyclohexane,
       cyclohexene, diethoxymethane, diisobutylene, 2,3-dimethylbutane,
       1,3-dimethylcyclohexane, 2,5-dimethylhexane, ethyl acetate, ethyl
       propyl ether, ethyl sulfide, ethylene dichloride, fluorobenzene,
       n-heptane, hexane, 1-iodo-2-methylpropane, isobutyl chloride,
       isopropyl acetate, isopropyl ether, methyl acrylate,
       methylcyclohexane, methylcyclopentane, methyl ethyl ketone, methyl
       isobutyrate, methyl propionate, octane, pentane, propyl ether,
       propyl formate, tetrachloroethylene, thiophene, toluene,
       trichloroethylene, vinyl acetate, water
     * Forms ternary azeotropes with water, benzene; water, cyclohexane;
       water, cyclohexene; water, diisobutylene; water, ethyl butyl ether;
       water, ethylene dichloride; water, isopropyl acetate; water,
       isopropyl ether; water, nitromethane; water, toluene
     * Liquid heat capacity: 0.605 BTU/lb-F @ 70 deg F; Liquid thermal
       conductivity: 0.937 BTU-in/hr-sq ft-F at 70 deg F; Saturated vapor
       density: 0.00717 lb/cu ft @ 70 deg F; Ideal gas heat capacity:
       0.352 BTU/lb-F @ 75 deg F
     * 6.54 lb/gal @ 20 deg C; acidity (as acetic acid) = 0.002 max wt%;
       flash point = 13 deg C; fir point 16 deg C

   from [20]HSDB

   Computed Properties
   Molecular Weight                  60.09502 [g/mol]
   Molecular Formula                 C[3]H[8]O
   XLogP3-AA                         0.3
   H-Bond Donor                      1
   H-Bond Acceptor                   1
   Rotatable Bond Count              0
   Exact Mass                        60.057515
   MonoIsotopic Mass                 60.057515
   Topological Polar Surface Area    20.2
   Heavy Atom Count                  4
   Formal Charge                     0
   Complexity                        10.8
   Isotope Atom Count                0
   Defined Atom Stereocenter Count   0
   Undefined Atom Stereocenter Count 0
   Defined Bond Stereocenter Count   0
   Undefined Bond Stereocenter Count 0
   Covalently-Bonded Unit Count      1
   Feature 3D Acceptor Count         1
   Feature 3D Donor Count            1
   Feature 3D Hydrophobe Count       1
   Effective Rotor Count             0
   Conformer Sampling RMSD           0.4
   CID Conformer Count               [21]1

References

   1. http://toxnet.nlm.nih.gov/cgi-bin/sis/search/r?dbs+hsdb:@term+@rn+@rel+67-63-0
   2. http://toxnet.nlm.nih.gov/cgi-bin/sis/search/r?dbs+hsdb:@term+@rn+@rel+67-63-0
   3. http://toxnet.nlm.nih.gov/cgi-bin/sis/search/r?dbs+hsdb:@term+@rn+@rel+67-63-0
   4. http://toxnet.nlm.nih.gov/cgi-bin/sis/search/r?dbs+hsdb:@term+@rn+@rel+67-63-0
   5. http://toxnet.nlm.nih.gov/cgi-bin/sis/search/r?dbs+hsdb:@term+@rn+@rel+67-63-0
   6. http://toxnet.nlm.nih.gov/cgi-bin/sis/search/r?dbs+hsdb:@term+@rn+@rel+67-63-0
   7. http://toxnet.nlm.nih.gov/cgi-bin/sis/search/r?dbs+hsdb:@term+@rn+@rel+67-63-0
   8. http://toxnet.nlm.nih.gov/cgi-bin/sis/search/r?dbs+hsdb:@term+@rn+@rel+67-63-0
   9. http://toxnet.nlm.nih.gov/cgi-bin/sis/search/r?dbs+hsdb:@term+@rn+@rel+67-63-0
  10. http://toxnet.nlm.nih.gov/cgi-bin/sis/search/r?dbs+hsdb:@term+@rn+@rel+67-63-0
  11. http://toxnet.nlm.nih.gov/cgi-bin/sis/search/r?dbs+hsdb:@term+@rn+@rel+67-63-0
  12. http://toxnet.nlm.nih.gov/cgi-bin/sis/search/r?dbs+hsdb:@term+@rn+@rel+67-63-0
  13. http://toxnet.nlm.nih.gov/cgi-bin/sis/search/r?dbs+hsdb:@term+@rn+@rel+67-63-0
  14. http://toxnet.nlm.nih.gov/cgi-bin/sis/search/r?dbs+hsdb:@term+@rn+@rel+67-63-0
  15. http://toxnet.nlm.nih.gov/cgi-bin/sis/search/r?dbs+hsdb:@term+@rn+@rel+67-63-0
  16. http://toxnet.nlm.nih.gov/cgi-bin/sis/search/r?dbs+hsdb:@term+@rn+@rel+67-63-0
  17. http://toxnet.nlm.nih.gov/cgi-bin/sis/search/r?dbs+hsdb:@term+@rn+@rel+67-63-0
  18. http://toxnet.nlm.nih.gov/cgi-bin/sis/search/r?dbs+hsdb:@term+@rn+@rel+67-63-0
  19. http://toxnet.nlm.nih.gov/cgi-bin/sis/search/r?dbs+hsdb:@term+@rn+@rel+67-63-0
  20. http://toxnet.nlm.nih.gov/cgi-bin/sis/search/r?dbs+hsdb:@term+@rn+@rel+67-63-0
  21. http://pubchem.ncbi.nlm.nih.gov/vw3d/vw3d.cgi?cid=3776
