17396231
  -OEChem-06241222552D

 46 48  0     0  0  0  0  0  0999 V2000
    4.9278   -2.2606    0.0000 O   0  0  0  0  0  0  0  0  0  0  0  0
    7.7757   -0.1916    0.0000 O   0  0  0  0  0  0  0  0  0  0  0  0
    7.0014    0.8265    0.0000 O   0  0  0  0  0  0  0  0  0  0  0  0
    2.9511    3.7692    0.0000 O   0  0  0  0  0  0  0  0  0  0  0  0
    2.4158    2.1220    0.0000 O   0  0  0  0  0  0  0  0  0  0  0  0
    7.4969   -1.9516    0.0000 N   0  0  0  0  0  0  0  0  0  0  0  0
    6.1879   -1.0006    0.0000 N   0  0  0  0  0  0  0  0  0  0  0  0
    5.7281    2.4821    0.0000 N   0  0  0  0  0  0  0  0  0  0  0  0
    6.6879   -2.5394    0.0000 C   0  0  0  0  0  0  0  0  0  0  0  0
    7.4969   -3.1272    0.0000 C   0  0  0  0  0  0  0  0  0  0  0  0
    5.8789   -3.1272    0.0000 C   0  0  0  0  0  0  0  0  0  0  0  0
    7.1879   -4.0782    0.0000 C   0  0  0  0  0  0  0  0  0  0  0  0
    6.1879   -4.0782    0.0000 C   0  0  0  0  0  0  0  0  0  0  0  0
    5.8789   -1.9516    0.0000 C   0  0  0  0  0  0  0  0  0  0  0  0
    7.1879   -1.0006    0.0000 C   0  0  0  0  0  0  0  0  0  0  0  0
    5.6001   -0.1916    0.0000 C   0  0  0  0  0  0  0  0  0  0  0  0
    6.0068    0.7220    0.0000 C   0  0  0  0  0  0  0  0  0  0  0  0
    5.4190    1.5310    0.0000 C   0  0  0  0  0  0  0  0  0  0  0  0
    4.4190    1.5310    0.0000 C   0  0  0  0  0  0  0  0  0  0  0  0
    4.1100    2.4821    0.0000 C   0  0  0  0  0  0  0  0  0  0  0  0
    4.9190    3.0699    0.0000 C   0  0  0  0  0  0  0  0  0  0  0  0
    3.8313    0.7220    0.0000 C   0  0  0  0  0  0  0  0  0  0  0  0
    4.9190    4.0698    0.0000 C   0  0  0  0  0  0  0  0  0  0  0  0
    3.1590    2.7911    0.0000 C   0  0  0  0  0  0  0  0  0  0  0  0
    2.0000    4.0782    0.0000 C   0  0  0  0  0  0  0  0  0  0  0  0
    5.5689   -2.5903    0.0000 H   0  0  0  0  0  0  0  0  0  0  0  0
    5.3125   -3.3794    0.0000 H   0  0  0  0  0  0  0  0  0  0  0  0
    8.0633   -3.3794    0.0000 H   0  0  0  0  0  0  0  0  0  0  0  0
    7.8069   -2.5903    0.0000 H   0  0  0  0  0  0  0  0  0  0  0  0
    7.1231   -4.6948    0.0000 H   0  0  0  0  0  0  0  0  0  0  0  0
    7.7943   -4.2072    0.0000 H   0  0  0  0  0  0  0  0  0  0  0  0
    5.5814   -4.2072    0.0000 H   0  0  0  0  0  0  0  0  0  0  0  0
    6.2527   -4.6948    0.0000 H   0  0  0  0  0  0  0  0  0  0  0  0
    8.0866   -2.1432    0.0000 H   0  0  0  0  0  0  0  0  0  0  0  0
    5.0861    0.1551    0.0000 H   0  0  0  0  0  0  0  0  0  0  0  0
    5.1694   -0.6375    0.0000 H   0  0  0  0  0  0  0  0  0  0  0  0
    6.3177    2.6737    0.0000 H   0  0  0  0  0  0  0  0  0  0  0  0
    3.3297    1.0864    0.0000 H   0  0  0  0  0  0  0  0  0  0  0  0
    3.4668    0.2204    0.0000 H   0  0  0  0  0  0  0  0  0  0  0  0
    4.3328    0.3576    0.0000 H   0  0  0  0  0  0  0  0  0  0  0  0
    5.5390    4.0698    0.0000 H   0  0  0  0  0  0  0  0  0  0  0  0
    4.9190    4.6898    0.0000 H   0  0  0  0  0  0  0  0  0  0  0  0
    4.2990    4.0698    0.0000 H   0  0  0  0  0  0  0  0  0  0  0  0
    2.1916    4.6679    0.0000 H   0  0  0  0  0  0  0  0  0  0  0  0
    1.4103    4.2698    0.0000 H   0  0  0  0  0  0  0  0  0  0  0  0
    1.8084    3.4886    0.0000 H   0  0  0  0  0  0  0  0  0  0  0  0
  1 14  2  0  0  0  0
  2 15  2  0  0  0  0
  3 17  2  0  0  0  0
  4 24  1  0  0  0  0
  4 25  1  0  0  0  0
  5 24  2  0  0  0  0
  6  9  1  0  0  0  0
  6 15  1  0  0  0  0
  6 34  1  0  0  0  0
  7 14  1  0  0  0  0
  7 15  1  0  0  0  0
  7 16  1  0  0  0  0
  8 18  1  0  0  0  0
  8 21  1  0  0  0  0
  8 37  1  0  0  0  0
  9 10  1  0  0  0  0
  9 11  1  0  0  0  0
  9 14  1  0  0  0  0
 10 12  1  0  0  0  0
 10 28  1  0  0  0  0
 10 29  1  0  0  0  0
 11 13  1  0  0  0  0
 11 26  1  0  0  0  0
 11 27  1  0  0  0  0
 12 13  1  0  0  0  0
 12 30  1  0  0  0  0
 12 31  1  0  0  0  0
 13 32  1  0  0  0  0
 13 33  1  0  0  0  0
 16 17  1  0  0  0  0
 16 35  1  0  0  0  0
 16 36  1  0  0  0  0
 17 18  1  0  0  0  0
 18 19  2  0  0  0  0
 19 20  1  0  0  0  0
 19 22  1  0  0  0  0
 20 21  2  0  0  0  0
 20 24  1  0  0  0  0
 21 23  1  0  0  0  0
 22 38  1  0  0  0  0
 22 39  1  0  0  0  0
 22 40  1  0  0  0  0
 23 41  1  0  0  0  0
 23 42  1  0  0  0  0
 23 43  1  0  0  0  0
 25 44  1  0  0  0  0
 25 45  1  0  0  0  0
 25 46  1  0  0  0  0
M  END
> <PUBCHEM_COMPOUND_CID>
17396231

> <PUBCHEM_COMPOUND_CANONICALIZED>
1

> <PUBCHEM_CACTVS_COMPLEXITY>
613

> <PUBCHEM_CACTVS_HBOND_ACCEPTOR>
5

> <PUBCHEM_CACTVS_HBOND_DONOR>
2

> <PUBCHEM_CACTVS_ROTATABLE_BOND>
5

> <PUBCHEM_CACTVS_SUBSKEYS>
AAADceB7OAAAAAAAAAAAAAAAAAAAAeLEAAAAAAAAAAAAAAABgAAAHgAQAAAADIzBngYDiJPJlACoA4XwXACCgCAnACAAmSG4TNiIZnrA9LmUEYhu1yPI6Ue8zwA+gAAAAAAAAAAAAAAAAAAAAAAAAAAAAA==

> <PUBCHEM_IUPAC_OPENEYE_NAME>
methyl 5-[2-(2,4-dioxo-1,3-diazaspiro[4.4]nonan-3-yl)acetyl]-2,4-dimethyl-1H-pyrrole-3-carboxylate

> <PUBCHEM_IUPAC_CAS_NAME>
5-[2-(2,4-dioxo-1,3-diazaspiro[4.4]nonan-3-yl)-1-oxoethyl]-2,4-dimethyl-1H-pyrrole-3-carboxylic acid methyl ester

> <PUBCHEM_IUPAC_NAME>
methyl 5-[2-(2,4-dioxo-1,3-diazaspiro[4.4]nonan-3-yl)acetyl]-2,4-dimethyl-1H-pyrrole-3-carboxylate

> <PUBCHEM_IUPAC_SYSTEMATIC_NAME>
methyl 5-[2-[2,4-bis(oxidanylidene)-1,3-diazaspiro[4.4]nonan-3-yl]ethanoyl]-2,4-dimethyl-1H-pyrrole-3-carboxylate

> <PUBCHEM_IUPAC_TRADITIONAL_NAME>
5-[2-(2,4-diketo-1,3-diazaspiro[4.4]nonan-3-yl)acetyl]-2,4-dimethyl-1H-pyrrole-3-carboxylic acid methyl ester

> <PUBCHEM_IUPAC_INCHI>
InChI=1S/C17H21N3O5/c1-9-12(14(22)25-3)10(2)18-13(9)11(21)8-20-15(23)17(19-16(20)24)6-4-5-7-17/h18H,4-8H2,1-3H3,(H,19,24)

> <PUBCHEM_IUPAC_INCHIKEY>
WEKSLBMMYRBPMB-UHFFFAOYSA-N

> <PUBCHEM_XLOGP3_AA>
1.3

> <PUBCHEM_EXACT_MASS>
347.148121

> <PUBCHEM_MOLECULAR_FORMULA>
C17H21N3O5

> <PUBCHEM_MOLECULAR_WEIGHT>
347.36574

> <PUBCHEM_OPENEYE_CAN_SMILES>
CC1=C(NC(=C1C(=O)OC)C)C(=O)CN2C(=O)C3(CCCC3)NC2=O

> <PUBCHEM_OPENEYE_ISO_SMILES>
CC1=C(NC(=C1C(=O)OC)C)C(=O)CN2C(=O)C3(CCCC3)NC2=O

> <PUBCHEM_CACTVS_TPSA>
109

> <PUBCHEM_MONOISOTOPIC_WEIGHT>
347.148121

> <PUBCHEM_TOTAL_CHARGE>
0

> <PUBCHEM_HEAVY_ATOM_COUNT>
25

> <PUBCHEM_ATOM_DEF_STEREO_COUNT>
0

> <PUBCHEM_ATOM_UDEF_STEREO_COUNT>
0

> <PUBCHEM_BOND_DEF_STEREO_COUNT>
0

> <PUBCHEM_BOND_UDEF_STEREO_COUNT>
0

> <PUBCHEM_ISOTOPIC_ATOM_COUNT>
0

> <PUBCHEM_COMPONENT_COUNT>
1

> <PUBCHEM_CACTVS_TAUTO_COUNT>
66

> <PUBCHEM_COORDINATE_TYPE>
1
5
255

> <PUBCHEM_BONDANNOTATIONS>
18  19  8
19  20  8
20  21  8
8  18  8
8  21  8

$$$$

