50986109
  -OEChem-07051213032D

 71 76  0     1  0  0  0  0  0999 V2000
    6.9889    3.2439    0.0000 O   0  0  0  0  0  0  0  0  0  0  0  0
    6.0665   -3.1948    0.0000 O   0  0  0  0  0  0  0  0  0  0  0  0
    5.1832   -1.7049    0.0000 O   0  0  0  0  0  0  0  0  0  0  0  0
    8.5726    2.4392    0.0000 O   0  0  0  0  0  0  0  0  0  0  0  0
    6.0645   -0.0923    0.0000 O   0  0  0  0  0  0  0  0  0  0  0  0
    3.4860   -4.7247    0.0000 O   0  0  0  0  0  0  0  0  0  0  0  0
    2.5405    2.9360    0.0000 O   0  0  0  0  0  0  0  0  0  0  0  0
    5.2294   -5.7046    0.0000 O   0  0  0  0  0  0  0  0  0  0  0  0
    2.5405    1.9423    0.0000 O   0  0  0  0  0  0  0  0  0  0  0  0
    6.0427    1.9392    0.0000 N   0  0  3  0  0  0  0  0  0  0  0  0
    6.9889    1.6344    0.0000 C   0  0  1  0  0  0  0  0  0  0  0  0
    6.0427    2.9392    0.0000 C   0  0  2  0  0  0  0  0  0  0  0  0
    7.7332    0.9666    0.0000 C   0  0  2  0  0  0  0  0  0  0  0  0
    5.1767    1.4392    0.0000 C   0  0  0  0  0  0  0  0  0  0  0  0
    5.1767    3.4392    0.0000 C   0  0  0  0  0  0  0  0  0  0  0  0
    7.5726    2.4392    0.0000 C   0  0  0  0  0  0  0  0  0  0  0  0
    4.3107    1.9392    0.0000 C   0  0  0  0  0  0  0  0  0  0  0  0
    4.3107    2.9392    0.0000 C   0  0  0  0  0  0  0  0  0  0  0  0
    8.6838    1.2772    0.0000 C   0  0  0  0  0  0  0  0  0  0  0  0
    7.5271   -0.0119    0.0000 C   0  0  0  0  0  0  0  0  0  0  0  0
    5.1928    0.3977    0.0000 C   0  0  0  0  0  0  0  0  0  0  0  0
    4.2947   -0.1301    0.0000 C   0  0  0  0  0  0  0  0  0  0  0  0
    3.4007    1.4323    0.0000 C   0  0  0  0  0  0  0  0  0  0  0  0
    5.1928    4.4807    0.0000 C   0  0  0  0  0  0  0  0  0  0  0  0
    3.3926    0.3907    0.0000 C   0  0  0  0  0  0  0  0  0  0  0  0
    3.4007    3.4460    0.0000 C   0  0  0  0  0  0  0  0  0  0  0  0
    4.3461   -4.2148    0.0000 C   0  0  1  0  0  0  0  0  0  0  0  0
    5.2179   -4.7047    0.0000 C   0  0  2  0  0  0  0  0  0  0  0  0
    5.1948   -2.7048    0.0000 C   0  0  1  0  0  0  0  0  0  0  0  0
    4.3346   -3.2148    0.0000 C   0  0  0  0  0  0  0  0  0  0  0  0
    6.0781   -4.1947    0.0000 C   0  0  2  0  0  0  0  0  0  0  0  0
    9.4281    0.6094    0.0000 C   0  0  0  0  0  0  0  0  0  0  0  0
    4.2947    5.0084    0.0000 C   0  0  0  0  0  0  0  0  0  0  0  0
    4.3114   -1.2150    0.0000 C   0  0  0  0  0  0  0  0  0  0  0  0
    3.3926    4.4876    0.0000 C   0  0  0  0  0  0  0  0  0  0  0  0
    2.4448   -0.1372    0.0000 C   0  0  0  0  0  0  0  0  0  0  0  0
    6.9498   -4.6847    0.0000 C   0  0  0  0  0  0  0  0  0  0  0  0
    3.3760   -1.7647    0.0000 C   0  0  0  0  0  0  0  0  0  0  0  0
    4.2986    6.0084    0.0000 C   0  0  0  0  0  0  0  0  0  0  0  0
    2.4364   -1.2222    0.0000 C   0  0  0  0  0  0  0  0  0  0  0  0
    7.8342    1.7244    0.0000 H   0  0  0  0  0  0  0  0  0  0  0  0
    6.1327    3.7844    0.0000 H   0  0  0  0  0  0  0  0  0  0  0  0
    7.1439    0.7740    0.0000 H   0  0  0  0  0  0  0  0  0  0  0  0
    9.1717    1.6598    0.0000 H   0  0  0  0  0  0  0  0  0  0  0  0
    8.3918    1.8242    0.0000 H   0  0  0  0  0  0  0  0  0  0  0  0
    6.9204    0.1159    0.0000 H   0  0  0  0  0  0  0  0  0  0  0  0
    7.3993   -0.6186    0.0000 H   0  0  0  0  0  0  0  0  0  0  0  0
    8.1338   -0.1397    0.0000 H   0  0  0  0  0  0  0  0  0  0  0  0
    5.7332    4.7844    0.0000 H   0  0  0  0  0  0  0  0  0  0  0  0
    3.8056   -3.9110    0.0000 H   0  0  0  0  0  0  0  0  0  0  0  0
    4.6846   -5.0209    0.0000 H   0  0  0  0  0  0  0  0  0  0  0  0
    4.1158   -2.6347    0.0000 H   0  0  0  0  0  0  0  0  0  0  0  0
    3.7253   -3.3295    0.0000 H   0  0  0  0  0  0  0  0  0  0  0  0
    4.6543   -2.4011    0.0000 H   0  0  0  0  0  0  0  0  0  0  0  0
    6.6114   -3.8786    0.0000 H   0  0  0  0  0  0  0  0  0  0  0  0
    9.0140    0.1479    0.0000 H   0  0  0  0  0  0  0  0  0  0  0  0
    9.8895    0.1953    0.0000 H   0  0  0  0  0  0  0  0  0  0  0  0
    9.8421    1.0709    0.0000 H   0  0  0  0  0  0  0  0  0  0  0  0
    2.8545    4.7955    0.0000 H   0  0  0  0  0  0  0  0  0  0  0  0
    1.9114    0.1790    0.0000 H   0  0  0  0  0  0  0  0  0  0  0  0
    6.6460   -5.2252    0.0000 H   0  0  0  0  0  0  0  0  0  0  0  0
    7.4903   -4.9885    0.0000 H   0  0  0  0  0  0  0  0  0  0  0  0
    7.2536   -4.1442    0.0000 H   0  0  0  0  0  0  0  0  0  0  0  0
    3.3784   -2.3847    0.0000 H   0  0  0  0  0  0  0  0  0  0  0  0
    4.9186    6.0060    0.0000 H   0  0  0  0  0  0  0  0  0  0  0  0
    4.3010    6.6284    0.0000 H   0  0  0  0  0  0  0  0  0  0  0  0
    3.6786    6.0108    0.0000 H   0  0  0  0  0  0  0  0  0  0  0  0
    1.8983   -1.5301    0.0000 H   0  0  0  0  0  0  0  0  0  0  0  0
    3.4931   -5.3447    0.0000 H   0  0  0  0  0  0  0  0  0  0  0  0
    5.7699   -6.0084    0.0000 H   0  0  0  0  0  0  0  0  0  0  0  0
    2.0000    3.2398    0.0000 H   0  0  0  0  0  0  0  0  0  0  0  0
  1 12  1  0  0  0  0
  1 16  1  0  0  0  0
  2 29  1  0  0  0  0
  2 31  1  0  0  0  0
 29  3  1  6  0  0  0
  3 34  1  0  0  0  0
  4 16  2  0  0  0  0
  5 21  2  0  0  0  0
 27  6  1  6  0  0  0
  6 69  1  0  0  0  0
  7 26  1  0  0  0  0
  7 71  1  0  0  0  0
 28  8  1  6  0  0  0
  8 70  1  0  0  0  0
  9 23  2  0  0  0  0
 10 11  1  0  0  0  0
 10 12  1  0  0  0  0
 10 14  1  0  0  0  0
 11 13  1  0  0  0  0
 11 16  1  0  0  0  0
 11 41  1  1  0  0  0
 12 15  1  0  0  0  0
 12 42  1  1  0  0  0
 13 19  1  0  0  0  0
 13 20  1  6  0  0  0
 13 43  1  0  0  0  0
 14 17  2  0  0  0  0
 14 21  1  0  0  0  0
 15 18  2  0  0  0  0
 15 24  1  0  0  0  0
 17 18  1  0  0  0  0
 17 23  1  0  0  0  0
 18 26  1  0  0  0  0
 19 32  1  0  0  0  0
 19 44  1  0  0  0  0
 19 45  1  0  0  0  0
 20 46  1  0  0  0  0
 20 47  1  0  0  0  0
 20 48  1  0  0  0  0
 21 22  1  0  0  0  0
 22 25  2  0  0  0  0
 22 34  1  0  0  0  0
 23 25  1  0  0  0  0
 24 33  2  0  0  0  0
 24 49  1  0  0  0  0
 25 36  1  0  0  0  0
 26 35  2  0  0  0  0
 27 28  1  0  0  0  0
 27 30  1  0  0  0  0
 27 50  1  0  0  0  0
 28 31  1  0  0  0  0
 28 51  1  0  0  0  0
 29 30  1  0  0  0  0
 29 54  1  0  0  0  0
 30 52  1  0  0  0  0
 30 53  1  0  0  0  0
 31 37  1  1  0  0  0
 31 55  1  0  0  0  0
 32 56  1  0  0  0  0
 32 57  1  0  0  0  0
 32 58  1  0  0  0  0
 33 35  1  0  0  0  0
 33 39  1  0  0  0  0
 34 38  2  0  0  0  0
 35 59  1  0  0  0  0
 36 40  2  0  0  0  0
 36 60  1  0  0  0  0
 37 61  1  0  0  0  0
 37 62  1  0  0  0  0
 37 63  1  0  0  0  0
 38 40  1  0  0  0  0
 38 64  1  0  0  0  0
 39 65  1  0  0  0  0
 39 66  1  0  0  0  0
 39 67  1  0  0  0  0
 40 68  1  0  0  0  0
M  END
> <PUBCHEM_COMPOUND_CID>
50986109

> <PUBCHEM_COMPOUND_CANONICALIZED>
1

> <PUBCHEM_CACTVS_COMPLEXITY>
1090

> <PUBCHEM_CACTVS_HBOND_ACCEPTOR>
10

> <PUBCHEM_CACTVS_HBOND_DONOR>
3

> <PUBCHEM_CACTVS_ROTATABLE_BOND>
4

> <PUBCHEM_CACTVS_SUBSKEYS>
AAADceB6PAAAAAAAAAAAAAAAAAAAAWAAAAA0YIECAAAAAECxQAAAHgAACAAADTzxmAcyDoMABgCIAqTSSACCCAAkIAAIiAGODMgfNjaGtTuveWjl4BGfucf77fyOwAADAAAYAACAAAYAADAAAAAAAAAAAA==

> <PUBCHEM_IUPAC_INCHI>
InChI=1S/C30H31NO9/c1-5-13(3)24-30(37)40-29-16-9-12(2)10-17(32)21(16)23-25(31(24)29)28(36)22-15(27(23)35)7-6-8-19(22)39-20-11-18(33)26(34)14(4)38-20/h6-10,13-14,18,20,24,26,29,32-34H,5,11H2,1-4H3/t13-,14-,18+,20-,24-,26-,29-/m0/s1

> <PUBCHEM_IUPAC_INCHIKEY>
BSBSCJRAEMDCHC-FTERDKBNSA-N

> <PUBCHEM_XLOGP3_AA>
3.9

> <PUBCHEM_EXACT_MASS>
549.199882

> <PUBCHEM_MOLECULAR_FORMULA>
C30H31NO9

> <PUBCHEM_MOLECULAR_WEIGHT>
549.56844

> <PUBCHEM_OPENEYE_CAN_SMILES>
CCC(C)C1C(=O)OC2N1C3=C(C4=C(C=C(C=C24)C)O)C(=O)C5=C(C3=O)C(=CC=C5)OC6CC(C(C(O6)C)O)O

> <PUBCHEM_OPENEYE_ISO_SMILES>
CC[C@H](C)[C@H]1C(=O)O[C@@H]2N1C3=C(C4=C(C=C(C=C24)C)O)C(=O)C5=C(C3=O)C(=CC=C5)O[C@H]6C[C@H]([C@H]([C@@H](O6)C)O)O

> <PUBCHEM_CACTVS_TPSA>
143

> <PUBCHEM_MONOISOTOPIC_WEIGHT>
549.199882

> <PUBCHEM_TOTAL_CHARGE>
0

> <PUBCHEM_HEAVY_ATOM_COUNT>
40

> <PUBCHEM_ATOM_DEF_STEREO_COUNT>
7

> <PUBCHEM_ATOM_UDEF_STEREO_COUNT>
0

> <PUBCHEM_BOND_DEF_STEREO_COUNT>
0

> <PUBCHEM_BOND_UDEF_STEREO_COUNT>
0

> <PUBCHEM_ISOTOPIC_ATOM_COUNT>
0

> <PUBCHEM_COMPONENT_COUNT>
1

> <PUBCHEM_CACTVS_TAUTO_COUNT>
30

> <PUBCHEM_COORDINATE_TYPE>
1
5
255

> <PUBCHEM_BONDANNOTATIONS>
11  41  5
12  42  5
13  20  6
15  18  8
15  24  8
18  26  8
22  25  8
22  34  8
24  33  8
25  36  8
26  35  8
29  3  6
31  37  5
33  35  8
34  38  8
36  40  8
38  40  8
27  6  6
28  8  6

$$$$

