11585
  -OEChem-06261205512D

 11  8  0     0  0  0  0  0  0999 V2000
    4.2320    1.7320    0.0000 Hg  0  6  0  0  0  0  0  0  0  0  0  0
    0.0000    2.7320    0.0000 K   0  3  0  0  0  0  0  0  0  0  0  0
    3.9820    5.4641    0.0000 K   0  3  0  0  0  0  0  0  0  0  0  0
    5.9641    2.7320    0.0000 N   0  0  0  0  0  0  0  0  0  0  0  0
    2.5000    0.7321    0.0000 N   0  0  0  0  0  0  0  0  0  0  0  0
    3.2320    3.4641    0.0000 N   0  0  0  0  0  0  0  0  0  0  0  0
    5.2320    0.0000    0.0000 N   0  0  0  0  0  0  0  0  0  0  0  0
    5.0981    2.2320    0.0000 C   0  0  0  0  0  0  0  0  0  0  0  0
    3.3660    1.2320    0.0000 C   0  0  0  0  0  0  0  0  0  0  0  0
    3.7320    2.5981    0.0000 C   0  0  0  0  0  0  0  0  0  0  0  0
    4.7320    0.8660    0.0000 C   0  0  0  0  0  0  0  0  0  0  0  0
  1  8  1  0  0  0  0
  1  9  1  0  0  0  0
  1 10  1  0  0  0  0
  1 11  1  0  0  0  0
  4  8  3  0  0  0  0
  5  9  3  0  0  0  0
  6 10  3  0  0  0  0
  7 11  3  0  0  0  0
M  CHG  3   1  -2   2   1   3   1
M  END
> <PUBCHEM_COMPOUND_CID>
11585

> <PUBCHEM_COMPOUND_CANONICALIZED>
1

> <PUBCHEM_CACTVS_COMPLEXITY>
236

> <PUBCHEM_CACTVS_HBOND_ACCEPTOR>
5

> <PUBCHEM_CACTVS_HBOND_DONOR>
0

> <PUBCHEM_CACTVS_ROTATABLE_BOND>
0

> <PUBCHEM_CACTVS_SUBSKEYS>
AAADcQBjgAAAYAAAAAAAAQAAAAAAAAAAAAAAAAAAAAAAAAAAAAAABAAAAAAAAAAAAAAAAAAAAAAQAAAAAAAAAAAAAAAAAAAAAAAAAAAAAAAAAAAAAAAAAAAAAAAAAAAAAAAAAAAAAAAAAAAAAAAAAAAAAA==

> <PUBCHEM_IUPAC_OPENEYE_NAME>
dipotassium tetracyanomercury(2-)

> <PUBCHEM_IUPAC_CAS_NAME>
dipotassium tetracyanomercury(2-)

> <PUBCHEM_IUPAC_NAME>
dipotassium tetracyanomercury(2-)

> <PUBCHEM_IUPAC_SYSTEMATIC_NAME>
dipotassium tetracyanomercury(2-)

> <PUBCHEM_IUPAC_TRADITIONAL_NAME>
dipotassium tetracyanomercury(2-)

> <PUBCHEM_IUPAC_INCHI>
InChI=1S/4CN.Hg.2K/c4*1-2;;;/q;;;;-2;2*+1

> <PUBCHEM_IUPAC_INCHIKEY>
OYTUBTNXUBGVOG-UHFFFAOYSA-N

> <PUBCHEM_EXACT_MASS>
383.910352

> <PUBCHEM_MOLECULAR_FORMULA>
C4HgK2N4

> <PUBCHEM_MOLECULAR_WEIGHT>
382.8562

> <PUBCHEM_OPENEYE_CAN_SMILES>
C(#N)[Hg-2](C#N)(C#N)C#N.[K+].[K+]

> <PUBCHEM_OPENEYE_ISO_SMILES>
C(#N)[Hg-2](C#N)(C#N)C#N.[K+].[K+]

> <PUBCHEM_CACTVS_TPSA>
95.2

> <PUBCHEM_MONOISOTOPIC_WEIGHT>
383.910352

> <PUBCHEM_TOTAL_CHARGE>
0

> <PUBCHEM_HEAVY_ATOM_COUNT>
11

> <PUBCHEM_ATOM_DEF_STEREO_COUNT>
0

> <PUBCHEM_ATOM_UDEF_STEREO_COUNT>
0

> <PUBCHEM_BOND_DEF_STEREO_COUNT>
0

> <PUBCHEM_BOND_UDEF_STEREO_COUNT>
0

> <PUBCHEM_ISOTOPIC_ATOM_COUNT>
0

> <PUBCHEM_COMPONENT_COUNT>
3

> <PUBCHEM_CACTVS_TAUTO_COUNT>
1

> <PUBCHEM_COORDINATE_TYPE>
1
5
255

$$$$

