11953973
  -OEChem-07051213022D

115120  0     1  0  0  0  0  0999 V2000
    8.9962   -2.0000    0.0000 O   0  0  0  0  0  0  0  0  0  0  0  0
    8.9962   -1.0000    0.0000 O   0  0  0  0  0  0  0  0  0  0  0  0
    6.3981    0.5000    0.0000 O   0  0  0  0  0  0  0  0  0  0  0  0
    6.3981   -3.5000    0.0000 O   0  0  0  0  0  0  0  0  0  0  0  0
    5.0393    4.4439    0.0000 O   0  0  0  0  0  0  0  0  0  0  0  0
    5.1900    3.9397    0.0000 O   0  0  0  0  0  0  0  0  0  0  0  0
    2.8680    3.5242    0.0000 O   0  0  0  0  0  0  0  0  0  0  0  0
    7.3981    1.5000    0.0000 O   0  0  0  0  0  0  0  0  0  0  0  0
   11.5942    3.5000    0.0000 O   0  0  0  0  0  0  0  0  0  0  0  0
   12.4602    2.0000    0.0000 O   0  0  0  0  0  0  0  0  0  0  0  0
   15.0583    3.5000    0.0000 O   0  0  0  0  0  0  0  0  0  0  0  0
   15.0583    1.5000    0.0000 O   0  0  0  0  0  0  0  0  0  0  0  0
    8.1301   -1.5000    0.0000 C   0  0  2  0  0  0  0  0  0  0  0  0
    7.2641   -2.0000    0.0000 C   0  0  0  0  0  0  0  0  0  0  0  0
    8.1301   -3.5000    0.0000 C   0  0  2  0  0  0  0  0  0  0  0  0
    8.9962   -3.0000    0.0000 C   0  0  1  0  0  0  0  0  0  0  0  0
    7.2641   -1.0000    0.0000 C   0  0  0  0  0  0  0  0  0  0  0  0
    7.2641   -3.0000    0.0000 C   0  0  1  0  0  0  0  0  0  0  0  0
    7.2641    0.0000    0.0000 C   0  0  2  0  0  0  0  0  0  0  0  0
    8.9962    0.0000    0.0000 C   0  0  1  0  0  0  0  0  0  0  0  0
    8.1301    0.5000    0.0000 C   0  0  0  0  0  0  0  0  0  0  0  0
    5.5320    3.0000    0.0000 C   0  0  1  0  0  0  0  0  0  0  0  0
    9.8622   -3.5000    0.0000 C   0  0  0  0  0  0  0  0  0  0  0  0
    4.6381    3.5347    0.0000 C   0  0  1  0  0  0  0  0  0  0  0  0
    5.5320    2.0000    0.0000 C   0  0  2  0  0  0  0  0  0  0  0  0
    8.1301   -4.5000    0.0000 C   0  0  0  0  0  0  0  0  0  0  0  0
    3.7320    3.0208    0.0000 C   0  0  1  0  0  0  0  0  0  0  0  0
    9.8622    0.5000    0.0000 C   0  0  0  0  0  0  0  0  0  0  0  0
    6.3981    3.5000    0.0000 C   0  0  0  0  0  0  0  0  0  0  0  0
    6.3981    1.5000    0.0000 C   0  0  0  0  0  0  0  0  0  0  0  0
    4.6381    1.4653    0.0000 C   0  0  0  0  0  0  0  0  0  0  0  0
    3.7320    1.9792    0.0000 C   0  0  0  0  0  0  0  0  0  0  0  0
    6.0330    4.4243    0.0000 C   0  0  0  0  0  0  0  0  0  0  0  0
    9.8622   -4.5000    0.0000 C   0  0  0  0  0  0  0  0  0  0  0  0
   10.7282   -3.0000    0.0000 C   0  0  0  0  0  0  0  0  0  0  0  0
    9.8622    1.5000    0.0000 C   0  0  0  0  0  0  0  0  0  0  0  0
    7.2641    3.0000    0.0000 C   0  0  0  0  0  0  0  0  0  0  0  0
    2.8680    1.4759    0.0000 C   0  0  0  0  0  0  0  0  0  0  0  0
   10.7282    2.0000    0.0000 C   0  0  0  0  0  0  0  0  0  0  0  0
   10.7282    3.0000    0.0000 C   0  0  2  0  0  0  0  0  0  0  0  0
    9.8622    3.5000    0.0000 C   0  0  2  0  0  0  0  0  0  0  0  0
    8.1301    3.5000    0.0000 C   0  0  0  0  0  0  0  0  0  0  0  0
    8.9962    3.0000    0.0000 C   0  0  0  0  0  0  0  0  0  0  0  0
    2.0000    3.0275    0.0000 C   0  0  0  0  0  0  0  0  0  0  0  0
   11.5942    1.5000    0.0000 C   0  0  0  0  0  0  0  0  0  0  0  0
   12.4602    3.0000    0.0000 C   0  0  2  0  0  0  0  0  0  0  0  0
   13.3263    3.5000    0.0000 C   0  0  0  0  0  0  0  0  0  0  0  0
    9.8622    4.5000    0.0000 C   0  0  0  0  0  0  0  0  0  0  0  0
   14.1923    3.0000    0.0000 C   0  0  1  0  0  0  0  0  0  0  0  0
   14.1923    2.0000    0.0000 C   0  0  2  0  0  0  0  0  0  0  0  0
   13.3263    1.5000    0.0000 C   0  0  2  0  0  0  0  0  0  0  0  0
   13.3263    0.5000    0.0000 C   0  0  0  0  0  0  0  0  0  0  0  0
   15.0583    4.5000    0.0000 C   0  0  0  0  0  0  0  0  0  0  0  0
    7.0520   -1.4174    0.0000 H   0  0  0  0  0  0  0  0  0  0  0  0
    6.6535   -2.1077    0.0000 H   0  0  0  0  0  0  0  0  0  0  0  0
    8.6671   -3.8100    0.0000 H   0  0  0  0  0  0  0  0  0  0  0  0
    9.5331   -2.6900    0.0000 H   0  0  0  0  0  0  0  0  0  0  0  0
    6.6535   -0.8923    0.0000 H   0  0  0  0  0  0  0  0  0  0  0  0
    7.0520   -1.5826    0.0000 H   0  0  0  0  0  0  0  0  0  0  0  0
    7.2641   -3.6200    0.0000 H   0  0  0  0  0  0  0  0  0  0  0  0
    6.5280   -0.4250    0.0000 H   0  0  0  0  0  0  0  0  0  0  0  0
    9.7323   -0.4250    0.0000 H   0  0  0  0  0  0  0  0  0  0  0  0
    8.5287    0.9749    0.0000 H   0  0  0  0  0  0  0  0  0  0  0  0
    7.7316    0.9749    0.0000 H   0  0  0  0  0  0  0  0  0  0  0  0
   10.3991   -3.8100    0.0000 H   0  0  0  0  0  0  0  0  0  0  0  0
    4.0077    4.1048    0.0000 H   0  0  0  0  0  0  0  0  0  0  0  0
    5.5320    1.1500    0.0000 H   0  0  0  0  0  0  0  0  0  0  0  0
    7.5101   -4.5000    0.0000 H   0  0  0  0  0  0  0  0  0  0  0  0
    8.1301   -5.1200    0.0000 H   0  0  0  0  0  0  0  0  0  0  0  0
    8.7501   -4.5000    0.0000 H   0  0  0  0  0  0  0  0  0  0  0  0
    3.1945    2.7118    0.0000 H   0  0  0  0  0  0  0  0  0  0  0  0
   10.0742   -0.0826    0.0000 H   0  0  0  0  0  0  0  0  0  0  0  0
   10.4728    0.6077    0.0000 H   0  0  0  0  0  0  0  0  0  0  0  0
    4.6453    0.8454    0.0000 H   0  0  0  0  0  0  0  0  0  0  0  0
    6.6346    4.5742    0.0000 H   0  0  0  0  0  0  0  0  0  0  0  0
    5.9635    5.0404    0.0000 H   0  0  0  0  0  0  0  0  0  0  0  0
    9.2422   -4.5000    0.0000 H   0  0  0  0  0  0  0  0  0  0  0  0
    9.8622   -5.1200    0.0000 H   0  0  0  0  0  0  0  0  0  0  0  0
   10.4822   -4.5000    0.0000 H   0  0  0  0  0  0  0  0  0  0  0  0
   11.0382   -3.5369    0.0000 H   0  0  0  0  0  0  0  0  0  0  0  0
   11.2651   -2.6900    0.0000 H   0  0  0  0  0  0  0  0  0  0  0  0
   10.4182   -2.4631    0.0000 H   0  0  0  0  0  0  0  0  0  0  0  0
    6.3981   -4.1200    0.0000 H   0  0  0  0  0  0  0  0  0  0  0  0
    4.6074    4.1518    0.0000 H   0  0  0  0  0  0  0  0  0  0  0  0
    9.3252    1.8100    0.0000 H   0  0  0  0  0  0  0  0  0  0  0  0
    7.5742    2.4631    0.0000 H   0  0  0  0  0  0  0  0  0  0  0  0
    2.5559    2.0116    0.0000 H   0  0  0  0  0  0  0  0  0  0  0  0
    2.3322    1.1638    0.0000 H   0  0  0  0  0  0  0  0  0  0  0  0
    3.1800    0.9401    0.0000 H   0  0  0  0  0  0  0  0  0  0  0  0
   10.7282    3.6200    0.0000 H   0  0  0  0  0  0  0  0  0  0  0  0
   10.3991    3.8100    0.0000 H   0  0  0  0  0  0  0  0  0  0  0  0
    8.1301    4.1200    0.0000 H   0  0  0  0  0  0  0  0  0  0  0  0
    8.9962    2.3800    0.0000 H   0  0  0  0  0  0  0  0  0  0  0  0
    1.6921    3.5656    0.0000 H   0  0  0  0  0  0  0  0  0  0  0  0
    1.4619    2.7196    0.0000 H   0  0  0  0  0  0  0  0  0  0  0  0
    2.3079    2.4894    0.0000 H   0  0  0  0  0  0  0  0  0  0  0  0
   11.2842    0.9631    0.0000 H   0  0  0  0  0  0  0  0  0  0  0  0
   12.1312    1.1900    0.0000 H   0  0  0  0  0  0  0  0  0  0  0  0
   11.9042    2.0369    0.0000 H   0  0  0  0  0  0  0  0  0  0  0  0
   11.9233    2.6900    0.0000 H   0  0  0  0  0  0  0  0  0  0  0  0
   13.7248    3.9750    0.0000 H   0  0  0  0  0  0  0  0  0  0  0  0
   12.9277    3.9750    0.0000 H   0  0  0  0  0  0  0  0  0  0  0  0
   10.4822    4.5000    0.0000 H   0  0  0  0  0  0  0  0  0  0  0  0
    9.8622    5.1200    0.0000 H   0  0  0  0  0  0  0  0  0  0  0  0
    9.2422    4.5000    0.0000 H   0  0  0  0  0  0  0  0  0  0  0  0
   14.7292    2.6900    0.0000 H   0  0  0  0  0  0  0  0  0  0  0  0
   14.7292    2.3100    0.0000 H   0  0  0  0  0  0  0  0  0  0  0  0
   12.7893    1.1900    0.0000 H   0  0  0  0  0  0  0  0  0  0  0  0
   12.7063    0.5000    0.0000 H   0  0  0  0  0  0  0  0  0  0  0  0
   13.3263   -0.1200    0.0000 H   0  0  0  0  0  0  0  0  0  0  0  0
   13.9463    0.5000    0.0000 H   0  0  0  0  0  0  0  0  0  0  0  0
   15.5953    1.8100    0.0000 H   0  0  0  0  0  0  0  0  0  0  0  0
   15.6783    4.5000    0.0000 H   0  0  0  0  0  0  0  0  0  0  0  0
   15.0583    5.1200    0.0000 H   0  0  0  0  0  0  0  0  0  0  0  0
   14.4383    4.5000    0.0000 H   0  0  0  0  0  0  0  0  0  0  0  0
 13  1  1  6  0  0  0
  1 16  1  0  0  0  0
  2 13  1  0  0  0  0
  2 20  1  0  0  0  0
  3 19  1  0  0  0  0
  3 30  1  0  0  0  0
 18  4  1  1  0  0  0
  4 83  1  0  0  0  0
  5 24  1  0  0  0  0
  5 33  1  0  0  0  0
 22  6  1  6  0  0  0
  6 84  1  0  0  0  0
 27  7  1  1  0  0  0
  7 44  1  0  0  0  0
  8 30  2  0  0  0  0
 40  9  1  6  0  0  0
 46  9  1  1  0  0  0
 10 46  1  0  0  0  0
 10 51  1  0  0  0  0
 49 11  1  6  0  0  0
 11 53  1  0  0  0  0
 50 12  1  1  0  0  0
 12112  1  0  0  0  0
 13 14  1  0  0  0  0
 13 17  1  0  0  0  0
 14 18  1  0  0  0  0
 14 54  1  0  0  0  0
 14 55  1  0  0  0  0
 15 16  1  0  0  0  0
 15 18  1  0  0  0  0
 15 26  1  1  0  0  0
 15 56  1  0  0  0  0
 16 23  1  6  0  0  0
 16 57  1  0  0  0  0
 17 19  1  0  0  0  0
 17 58  1  0  0  0  0
 17 59  1  0  0  0  0
 18 60  1  0  0  0  0
 19 21  1  0  0  0  0
 19 61  1  6  0  0  0
 20 21  1  0  0  0  0
 20 28  1  0  0  0  0
 20 62  1  6  0  0  0
 21 63  1  0  0  0  0
 21 64  1  0  0  0  0
 22 24  1  0  0  0  0
 22 25  1  0  0  0  0
 22 29  1  0  0  0  0
 23 34  1  0  0  0  0
 23 35  1  0  0  0  0
 23 65  1  0  0  0  0
 24 27  1  0  0  0  0
 24 66  1  6  0  0  0
 25 30  1  0  0  0  0
 25 31  1  0  0  0  0
 25 67  1  1  0  0  0
 26 68  1  0  0  0  0
 26 69  1  0  0  0  0
 26 70  1  0  0  0  0
 27 32  1  0  0  0  0
 27 71  1  0  0  0  0
 28 36  1  0  0  0  0
 28 72  1  0  0  0  0
 28 73  1  0  0  0  0
 29 33  1  0  0  0  0
 29 37  2  0  0  0  0
 31 32  2  0  0  0  0
 31 74  1  0  0  0  0
 32 38  1  0  0  0  0
 33 75  1  0  0  0  0
 33 76  1  0  0  0  0
 34 77  1  0  0  0  0
 34 78  1  0  0  0  0
 34 79  1  0  0  0  0
 35 80  1  0  0  0  0
 35 81  1  0  0  0  0
 35 82  1  0  0  0  0
 36 39  2  0  0  0  0
 36 85  1  0  0  0  0
 37 42  1  0  0  0  0
 37 86  1  0  0  0  0
 38 87  1  0  0  0  0
 38 88  1  0  0  0  0
 38 89  1  0  0  0  0
 39 40  1  0  0  0  0
 39 45  1  0  0  0  0
 40 41  1  0  0  0  0
 40 90  1  0  0  0  0
 41 43  1  0  0  0  0
 41 48  1  6  0  0  0
 41 91  1  0  0  0  0
 42 43  2  0  0  0  0
 42 92  1  0  0  0  0
 43 93  1  0  0  0  0
 44 94  1  0  0  0  0
 44 95  1  0  0  0  0
 44 96  1  0  0  0  0
 45 97  1  0  0  0  0
 45 98  1  0  0  0  0
 45 99  1  0  0  0  0
 46 47  1  0  0  0  0
 46100  1  0  0  0  0
 47 49  1  0  0  0  0
 47101  1  0  0  0  0
 47102  1  0  0  0  0
 48103  1  0  0  0  0
 48104  1  0  0  0  0
 48105  1  0  0  0  0
 49 50  1  0  0  0  0
 49106  1  0  0  0  0
 50 51  1  0  0  0  0
 50107  1  0  0  0  0
 51 52  1  6  0  0  0
 51108  1  0  0  0  0
 52109  1  0  0  0  0
 52110  1  0  0  0  0
 52111  1  0  0  0  0
 53113  1  0  0  0  0
 53114  1  0  0  0  0
 53115  1  0  0  0  0
M  END
> <PUBCHEM_COMPOUND_CID>
11953973

> <PUBCHEM_COMPOUND_CANONICALIZED>
1

> <PUBCHEM_CACTVS_COMPLEXITY>
1440

> <PUBCHEM_CACTVS_HBOND_ACCEPTOR>
12

> <PUBCHEM_CACTVS_HBOND_DONOR>
3

> <PUBCHEM_CACTVS_ROTATABLE_BOND>
5

> <PUBCHEM_CACTVS_SUBSKEYS>
AAADcfB8PAAAAAAAAAAAAAAAAAAAASAAAAAkSJEAAAAAAEAAAAAAGgAACAAADVSwgAMCCAAABgCIAiDSCAAAAAAgAAAICAEAAAgZFBYAIQAiUAAF4AAPsAPK7OzOgAAAAAAAAAAAAAAAAAAAAAAAAAAAAA==

> <PUBCHEM_IUPAC_INCHI>
InChI=1S/C41H62O12/c1-21(2)35-25(6)31(42)19-40(53-35)18-29-16-28(52-40)14-13-23(4)36(51-33-17-32(46-8)34(43)26(7)49-33)22(3)11-10-12-27-20-48-38-37(47-9)24(5)15-30(39(44)50-29)41(27,38)45/h10-13,15,21-22,25-26,28-38,42-43,45H,14,16-20H2,1-9H3/b11-10+,23-13+,27-12+/t22-,25-,26-,28+,29-,30-,31-,32-,33-,34-,35+,36-,37+,38+,40-,41+/m0/s1

> <PUBCHEM_IUPAC_INCHIKEY>
GXBZQGMJJGJFFX-XDVLZLKUSA-N

> <PUBCHEM_XLOGP3_AA>
2.9

> <PUBCHEM_EXACT_MASS>
746.424127

> <PUBCHEM_MOLECULAR_FORMULA>
C41H62O12

> <PUBCHEM_MOLECULAR_WEIGHT>
746.92378

> <PUBCHEM_OPENEYE_CAN_SMILES>
CC1C=CC=C2COC3C2(C(C=C(C3OC)C)C(=O)OC4CC(CC=C(C1OC5CC(C(C(O5)C)O)OC)C)OC6(C4)CC(C(C(O6)C(C)C)C)O)O

> <PUBCHEM_OPENEYE_ISO_SMILES>
C[C@H]1/C=C/C=C/2\CO[C@H]3[C@@]2([C@@H](C=C([C@H]3OC)C)C(=O)O[C@H]4C[C@@H](C/C=C(/[C@H]1O[C@H]5C[C@@H]([C@H]([C@@H](O5)C)O)OC)\C)O[C@]6(C4)C[C@@H]([C@@H]([C@H](O6)C(C)C)C)O)O

> <PUBCHEM_CACTVS_TPSA>
152

> <PUBCHEM_MONOISOTOPIC_WEIGHT>
746.424127

> <PUBCHEM_TOTAL_CHARGE>
0

> <PUBCHEM_HEAVY_ATOM_COUNT>
53

> <PUBCHEM_ATOM_DEF_STEREO_COUNT>
16

> <PUBCHEM_ATOM_UDEF_STEREO_COUNT>
0

> <PUBCHEM_BOND_DEF_STEREO_COUNT>
3

> <PUBCHEM_BOND_UDEF_STEREO_COUNT>
0

> <PUBCHEM_ISOTOPIC_ATOM_COUNT>
0

> <PUBCHEM_COMPONENT_COUNT>
1

> <PUBCHEM_CACTVS_TAUTO_COUNT>
1

> <PUBCHEM_COORDINATE_TYPE>
1
5
255

> <PUBCHEM_BONDANNOTATIONS>
13  1  6
49  11  6
50  12  5
15  26  5
16  23  6
19  61  6
20  62  6
24  66  6
25  67  5
18  4  5
41  48  6
51  52  6
22  6  6
27  7  5
40  9  6
46  9  5

$$$$

