441871
  -OEChem-07051212562D

 88 93  0     1  0  0  0  0  0999 V2000
   11.7413   -1.2101    0.0000 O   0  0  0  0  0  0  0  0  0  0  0  0
   11.1759   -1.5365    0.0000 O   0  0  0  0  0  0  0  0  0  0  0  0
    9.6550   -3.3397    0.0000 O   0  0  0  0  0  0  0  0  0  0  0  0
    6.0061   -2.3228    0.0000 O   0  0  0  0  0  0  0  0  0  0  0  0
   12.2988    3.6796    0.0000 O   0  0  0  0  0  0  0  0  0  0  0  0
    4.2740   -2.3161    0.0000 O   0  0  0  0  0  0  0  0  0  0  0  0
   11.3870   -3.3330    0.0000 O   0  0  0  0  0  0  0  0  0  0  0  0
   13.5880    4.8364    0.0000 O   0  0  0  0  0  0  0  0  0  0  0  0
    6.0138   -0.3228    0.0000 O   0  0  0  0  0  0  0  0  0  0  0  0
    4.2856    0.6839    0.0000 O   0  0  0  0  0  0  0  0  0  0  0  0
    2.5497   -0.3094    0.0000 O   0  0  0  0  0  0  0  0  0  0  0  0
    2.5381   -3.3094    0.0000 O   0  0  0  0  0  0  0  0  0  0  0  0
   11.3991   -0.2705    0.0000 C   0  0  2  0  0  0  0  0  0  0  0  0
   11.3991    0.7295    0.0000 C   0  0  1  0  0  0  0  0  0  0  0  0
   10.5331   -0.7705    0.0000 C   0  0  2  0  0  0  0  0  0  0  0  0
    9.6671   -0.2705    0.0000 C   0  0  1  0  0  0  0  0  0  0  0  0
    8.7571   -0.7773    0.0000 C   0  0  2  0  0  0  0  0  0  0  0  0
   12.3454    1.0343    0.0000 C   0  0  2  0  0  0  0  0  0  0  0  0
   10.5331    1.2296    0.0000 C   0  0  0  0  0  0  0  0  0  0  0  0
    9.6671    0.7295    0.0000 C   0  0  0  0  0  0  0  0  0  0  0  0
   12.3454   -0.5752    0.0000 C   0  0  0  0  0  0  0  0  0  0  0  0
   10.5492   -1.8120    0.0000 C   0  0  0  0  0  0  0  0  0  0  0  0
   12.9290    0.2295    0.0000 C   0  0  0  0  0  0  0  0  0  0  0  0
    8.7491   -1.8189    0.0000 C   0  0  0  0  0  0  0  0  0  0  0  0
    9.6511   -2.3397    0.0000 C   0  0  2  0  0  0  0  0  0  0  0  0
   11.3991    1.7296    0.0000 C   0  0  0  0  0  0  0  0  0  0  0  0
    7.8302   -0.2132    0.0000 C   0  0  0  0  0  0  0  0  0  0  0  0
    8.7648    0.2227    0.0000 C   0  0  0  0  0  0  0  0  0  0  0  0
   12.6560    1.9848    0.0000 C   0  0  0  0  0  0  0  0  0  0  0  0
    6.8824   -0.7412    0.0000 C   0  0  0  0  0  0  0  0  0  0  0  0
    7.8136   -2.3686    0.0000 C   0  0  0  0  0  0  0  0  0  0  0  0
    6.8740   -1.8261    0.0000 C   0  0  1  0  0  0  0  0  0  0  0  0
   13.6345    2.1910    0.0000 C   0  0  0  0  0  0  0  0  0  0  0  0
   11.9882    2.7291    0.0000 C   0  0  0  0  0  0  0  0  0  0  0  0
   10.5229   -3.8364    0.0000 C   0  0  0  0  0  0  0  0  0  0  0  0
   13.9452    3.1415    0.0000 C   0  0  0  0  0  0  0  0  0  0  0  0
    5.1420   -1.8194    0.0000 C   0  0  2  0  0  0  0  0  0  0  0  0
   13.2773    3.8858    0.0000 C   0  0  0  0  0  0  0  0  0  0  0  0
    5.1458   -0.8195    0.0000 C   0  0  1  0  0  0  0  0  0  0  0  0
   10.5268   -4.8364    0.0000 C   0  0  0  0  0  0  0  0  0  0  0  0
    4.2817   -0.3161    0.0000 C   0  0  2  0  0  0  0  0  0  0  0  0
    3.4099   -1.8128    0.0000 C   0  0  1  0  0  0  0  0  0  0  0  0
    3.4138   -0.8128    0.0000 C   0  0  1  0  0  0  0  0  0  0  0  0
    2.5420   -2.3094    0.0000 C   0  0  0  0  0  0  0  0  0  0  0  0
   10.4032    0.1545    0.0000 H   0  0  0  0  0  0  0  0  0  0  0  0
   12.9579    1.1305    0.0000 H   0  0  0  0  0  0  0  0  0  0  0  0
   10.9316    1.7045    0.0000 H   0  0  0  0  0  0  0  0  0  0  0  0
   10.1346    1.7045    0.0000 H   0  0  0  0  0  0  0  0  0  0  0  0
    9.4550    1.3122    0.0000 H   0  0  0  0  0  0  0  0  0  0  0  0
    9.0565    0.6219    0.0000 H   0  0  0  0  0  0  0  0  0  0  0  0
   12.0943   -1.1421    0.0000 H   0  0  0  0  0  0  0  0  0  0  0  0
   12.8827   -0.8844    0.0000 H   0  0  0  0  0  0  0  0  0  0  0  0
   10.7672   -2.3924    0.0000 H   0  0  0  0  0  0  0  0  0  0  0  0
   11.1583   -1.6965    0.0000 H   0  0  0  0  0  0  0  0  0  0  0  0
   13.3898   -0.1852    0.0000 H   0  0  0  0  0  0  0  0  0  0  0  0
   13.3898    0.6443    0.0000 H   0  0  0  0  0  0  0  0  0  0  0  0
    9.1148   -2.6508    0.0000 H   0  0  0  0  0  0  0  0  0  0  0  0
   12.0191    1.7296    0.0000 H   0  0  0  0  0  0  0  0  0  0  0  0
   11.3991    2.3495    0.0000 H   0  0  0  0  0  0  0  0  0  0  0  0
   10.7791    1.7296    0.0000 H   0  0  0  0  0  0  0  0  0  0  0  0
    8.2385    0.2534    0.0000 H   0  0  0  0  0  0  0  0  0  0  0  0
    7.4403    0.2688    0.0000 H   0  0  0  0  0  0  0  0  0  0  0  0
    9.3848    0.2179    0.0000 H   0  0  0  0  0  0  0  0  0  0  0  0
    8.7696    0.8427    0.0000 H   0  0  0  0  0  0  0  0  0  0  0  0
    8.1448    0.2274    0.0000 H   0  0  0  0  0  0  0  0  0  0  0  0
   12.3517   -1.3178    0.0000 H   0  0  0  0  0  0  0  0  0  0  0  0
   11.2836   -2.1471    0.0000 H   0  0  0  0  0  0  0  0  0  0  0  0
    6.6778   -0.1559    0.0000 H   0  0  0  0  0  0  0  0  0  0  0  0
    6.2707   -0.8425    0.0000 H   0  0  0  0  0  0  0  0  0  0  0  0
    7.8160   -2.9886    0.0000 H   0  0  0  0  0  0  0  0  0  0  0  0
    6.3389   -1.5130    0.0000 H   0  0  0  0  0  0  0  0  0  0  0  0
   14.0486    1.7296    0.0000 H   0  0  0  0  0  0  0  0  0  0  0  0
   11.3815    2.6012    0.0000 H   0  0  0  0  0  0  0  0  0  0  0  0
   14.5519    3.2694    0.0000 H   0  0  0  0  0  0  0  0  0  0  0  0
    5.1396   -2.4394    0.0000 H   0  0  0  0  0  0  0  0  0  0  0  0
    5.1482   -0.1995    0.0000 H   0  0  0  0  0  0  0  0  0  0  0  0
    9.9068   -4.8388    0.0000 H   0  0  0  0  0  0  0  0  0  0  0  0
   10.5292   -5.4563    0.0000 H   0  0  0  0  0  0  0  0  0  0  0  0
   11.1468   -4.8340    0.0000 H   0  0  0  0  0  0  0  0  0  0  0  0
    4.8198   -0.0082    0.0000 H   0  0  0  0  0  0  0  0  0  0  0  0
    3.4075   -2.4328    0.0000 H   0  0  0  0  0  0  0  0  0  0  0  0
    3.4162   -0.1928    0.0000 H   0  0  0  0  0  0  0  0  0  0  0  0
    6.0162    0.2972    0.0000 H   0  0  0  0  0  0  0  0  0  0  0  0
    2.3322   -1.7260    0.0000 H   0  0  0  0  0  0  0  0  0  0  0  0
    1.9310   -2.4147    0.0000 H   0  0  0  0  0  0  0  0  0  0  0  0
    3.7498    0.9959    0.0000 H   0  0  0  0  0  0  0  0  0  0  0  0
    2.0116   -0.6174    0.0000 H   0  0  0  0  0  0  0  0  0  0  0  0
    2.0000   -3.6174    0.0000 H   0  0  0  0  0  0  0  0  0  0  0  0
 13  1  1  1  0  0  0
  1 66  1  0  0  0  0
 15  2  1  1  0  0  0
  2 67  1  0  0  0  0
 25  3  1  1  0  0  0
  3 35  1  0  0  0  0
 32  4  1  1  0  0  0
 37  4  1  6  0  0  0
  5 34  1  0  0  0  0
  5 38  1  0  0  0  0
  6 37  1  0  0  0  0
  6 42  1  0  0  0  0
  7 35  2  0  0  0  0
  8 38  2  0  0  0  0
 39  9  1  1  0  0  0
  9 83  1  0  0  0  0
 41 10  1  6  0  0  0
 10 86  1  0  0  0  0
 43 11  1  1  0  0  0
 11 87  1  0  0  0  0
 12 44  1  0  0  0  0
 12 88  1  0  0  0  0
 13 14  1  0  0  0  0
 13 15  1  0  0  0  0
 13 21  1  0  0  0  0
 14 18  1  0  0  0  0
 14 19  1  0  0  0  0
 14 26  1  1  0  0  0
 15 16  1  0  0  0  0
 15 22  1  0  0  0  0
 16 17  1  0  0  0  0
 16 20  1  0  0  0  0
 16 45  1  6  0  0  0
 17 24  1  0  0  0  0
 17 27  1  0  0  0  0
 17 28  1  1  0  0  0
 18 23  1  0  0  0  0
 18 29  1  1  0  0  0
 18 46  1  0  0  0  0
 19 20  1  0  0  0  0
 19 47  1  0  0  0  0
 19 48  1  0  0  0  0
 20 49  1  0  0  0  0
 20 50  1  0  0  0  0
 21 23  1  0  0  0  0
 21 51  1  0  0  0  0
 21 52  1  0  0  0  0
 22 25  1  0  0  0  0
 22 53  1  0  0  0  0
 22 54  1  0  0  0  0
 23 55  1  0  0  0  0
 23 56  1  0  0  0  0
 24 25  1  0  0  0  0
 24 31  2  0  0  0  0
 25 57  1  0  0  0  0
 26 58  1  0  0  0  0
 26 59  1  0  0  0  0
 26 60  1  0  0  0  0
 27 30  1  0  0  0  0
 27 61  1  0  0  0  0
 27 62  1  0  0  0  0
 28 63  1  0  0  0  0
 28 64  1  0  0  0  0
 28 65  1  0  0  0  0
 29 33  1  0  0  0  0
 29 34  2  0  0  0  0
 30 32  1  0  0  0  0
 30 68  1  0  0  0  0
 30 69  1  0  0  0  0
 31 32  1  0  0  0  0
 31 70  1  0  0  0  0
 32 71  1  0  0  0  0
 33 36  2  0  0  0  0
 33 72  1  0  0  0  0
 34 73  1  0  0  0  0
 35 40  1  0  0  0  0
 36 38  1  0  0  0  0
 36 74  1  0  0  0  0
 37 39  1  0  0  0  0
 37 75  1  0  0  0  0
 39 41  1  0  0  0  0
 39 76  1  0  0  0  0
 40 77  1  0  0  0  0
 40 78  1  0  0  0  0
 40 79  1  0  0  0  0
 41 43  1  0  0  0  0
 41 80  1  0  0  0  0
 42 43  1  0  0  0  0
 42 44  1  6  0  0  0
 42 81  1  0  0  0  0
 43 82  1  0  0  0  0
 44 84  1  0  0  0  0
 44 85  1  0  0  0  0
M  END
> <PUBCHEM_COMPOUND_CID>
441871

> <PUBCHEM_COMPOUND_CANONICALIZED>
1

> <PUBCHEM_CACTVS_COMPLEXITY>
1280

> <PUBCHEM_CACTVS_HBOND_ACCEPTOR>
12

> <PUBCHEM_CACTVS_HBOND_DONOR>
6

> <PUBCHEM_CACTVS_ROTATABLE_BOND>
6

> <PUBCHEM_CACTVS_SUBSKEYS>
AAADcfB8PAAAAAAAAAAAAAAAAAAAAYAAAAA0YIECAAAAAGDAAAAAGgAACAAAD1SwgAMCCAAABgCIAiDSCAAACAAgIAAICAAAAEgZFAIAIQAiUAAFgAAPoYPA4PwPgAAAAAAAAADAAAYQADCAAYAADAAAAA==

> <PUBCHEM_IUPAC_OPENEYE_NAME>
[(3S,6R,8S,9R,10R,13R,14R,17R)-8,14-dihydroxy-10,13-dimethyl-17-(6-oxopyran-3-yl)-3-[(2R,3R,4S,5S,6R)-3,4,5-trihydroxy-6-(hydroxymethyl)tetrahydropyran-2-yl]oxy-2,3,6,7,9,11,12,15,16,17-decahydro-1H-cyclopenta[a]phenanthren-6-yl] acetate

> <PUBCHEM_IUPAC_CAS_NAME>
acetic acid [(3S,6R,8S,9R,10R,13R,14R,17R)-8,14-dihydroxy-10,13-dimethyl-17-(6-oxo-3-pyranyl)-3-[[(2R,3R,4S,5S,6R)-3,4,5-trihydroxy-6-(hydroxymethyl)-2-oxanyl]oxy]-2,3,6,7,9,11,12,15,16,17-decahydro-1H-cyclopenta[a]phenanthren-6-yl] ester

> <PUBCHEM_IUPAC_NAME>
[(3S,6R,8S,9R,10R,13R,14R,17R)-8,14-dihydroxy-10,13-dimethyl-17-(6-oxopyran-3-yl)-3-[(2R,3R,4S,5S,6R)-3,4,5-trihydroxy-6-(hydroxymethyl)oxan-2-yl]oxy-2,3,6,7,9,11,12,15,16,17-decahydro-1H-cyclopenta[a]phenanthren-6-yl] acetate

> <PUBCHEM_IUPAC_SYSTEMATIC_NAME>
[(3S,6R,8S,9R,10R,13R,14R,17R)-3-[(2R,3R,4S,5S,6R)-6-(hydroxymethyl)-3,4,5-tris(oxidanyl)oxan-2-yl]oxy-10,13-dimethyl-8,14-bis(oxidanyl)-17-(6-oxidanylidenepyran-3-yl)-2,3,6,7,9,11,12,15,16,17-decahydro-1H-cyclopenta[a]phenanthren-6-yl] ethanoate

> <PUBCHEM_IUPAC_TRADITIONAL_NAME>
acetic acid [(3S,6R,8S,9R,10R,13R,14R,17R)-8,14-dihydroxy-17-(6-ketopyran-3-yl)-10,13-dimethyl-3-[(2R,3R,4S,5S,6R)-3,4,5-trihydroxy-6-methylol-tetrahydropyran-2-yl]oxy-2,3,6,7,9,11,12,15,16,17-decahydro-1H-cyclopenta[a]phenanthren-6-yl] ester

> <PUBCHEM_IUPAC_INCHI>
InChI=1S/C32H44O12/c1-16(34)42-21-13-31(39)23(8-10-30(3)19(7-11-32(30,31)40)17-4-5-24(35)41-15-17)29(2)9-6-18(12-20(21)29)43-28-27(38)26(37)25(36)22(14-33)44-28/h4-5,12,15,18-19,21-23,25-28,33,36-40H,6-11,13-14H2,1-3H3/t18-,19+,21+,22+,23+,25+,26-,27+,28+,29-,30+,31-,32+/m0/s1

> <PUBCHEM_IUPAC_INCHIKEY>
LSMIOFMZNVEEBR-ICLSSMQGSA-N

> <PUBCHEM_XLOGP3_AA>
-0.4

> <PUBCHEM_EXACT_MASS>
620.283277

> <PUBCHEM_MOLECULAR_FORMULA>
C32H44O12

> <PUBCHEM_MOLECULAR_WEIGHT>
620.68456

> <PUBCHEM_OPENEYE_CAN_SMILES>
CC(=O)OC1CC2(C(CCC3(C2(CCC3C4=COC(=O)C=C4)O)C)C5(C1=CC(CC5)OC6C(C(C(C(O6)CO)O)O)O)C)O

> <PUBCHEM_OPENEYE_ISO_SMILES>
CC(=O)O[C@@H]1C[C@@]2([C@H](CC[C@]3([C@@]2(CC[C@@H]3C4=COC(=O)C=C4)O)C)[C@@]5(C1=C[C@H](CC5)O[C@H]6[C@@H]([C@H]([C@@H]([C@H](O6)CO)O)O)O)C)O

> <PUBCHEM_CACTVS_TPSA>
192

> <PUBCHEM_MONOISOTOPIC_WEIGHT>
620.283277

> <PUBCHEM_TOTAL_CHARGE>
0

> <PUBCHEM_HEAVY_ATOM_COUNT>
44

> <PUBCHEM_ATOM_DEF_STEREO_COUNT>
13

> <PUBCHEM_ATOM_UDEF_STEREO_COUNT>
0

> <PUBCHEM_BOND_DEF_STEREO_COUNT>
0

> <PUBCHEM_BOND_UDEF_STEREO_COUNT>
0

> <PUBCHEM_ISOTOPIC_ATOM_COUNT>
0

> <PUBCHEM_COMPONENT_COUNT>
1

> <PUBCHEM_CACTVS_TAUTO_COUNT>
1

> <PUBCHEM_COORDINATE_TYPE>
1
5
255

> <PUBCHEM_BONDANNOTATIONS>
13  1  5
41  10  6
43  11  5
14  26  5
16  45  6
17  28  5
18  29  5
15  2  5
29  33  8
29  34  8
25  3  5
33  36  8
36  38  8
32  4  5
37  4  6
42  44  6
5  34  8
5  38  8
39  9  5

$$$$

