   Color/Form

     * Colorless powder
     * White powder

   from [1]HSDB

   Odor
        Odorless
   from [2]HSDB

   Melting Point
        130-135 deg C (with decomp)
   from [3]HSDB

   Corrosivity
        Non-corrosive to metals
   from [4]HSDB

   Solubilities

     * Solubility: very soluble in water; soluble in dimethylformamide,
       dimethyl sulphoxide, methanol; sparingly soluble in acetone,
       ethanol.
     * Sparingly soluble in diethyl ether and ethyl acetate.

   from [5]HSDB

   Vapor Pressure
        Negligible at room temperature
   from [6]HSDB

   Other Chemical/Physical Properties

     * Stable at room temperature, in neutral and alkaline solution, but
       slightly unstable under acidic conditions.
     * Decomposes over a wide temp range about 130 deg C.
     * Hygroscopic
     * Compatible with most common pesticides.

   from [7]HSDB

   Computed Properties
   Molecular Weight                  497.4908 [g/mol]
   Molecular Formula                 C[20]H[35]NO[13]
   XLogP3-AA                         -6.3
   H-Bond Donor                      12
   H-Bond Acceptor                   14
   Rotatable Bond Count              7
   Exact Mass                        497.21084
   MonoIsotopic Mass                 497.21084
   Topological Polar Surface Area    253
   Heavy Atom Count                  34
   Formal Charge                     0
   Complexity                        697
   Isotope Atom Count                0
   Defined Atom Stereocenter Count   14
   Undefined Atom Stereocenter Count 0
   Defined Bond Stereocenter Count   0
   Undefined Bond Stereocenter Count 0
   Covalently-Bonded Unit Count      1
   Feature 3D Acceptor Count         13
   Feature 3D Donor Count            12
   Feature 3D Cation Count           1
   Feature 3D Ring Count             3
   Effective Rotor Count             10.2
   Conformer Sampling RMSD           1
   CID Conformer Count               [8]27

References

   1. http://toxnet.nlm.nih.gov/cgi-bin/sis/search/r?dbs+hsdb:@term+@rn+@rel+37248-47-8
   2. http://toxnet.nlm.nih.gov/cgi-bin/sis/search/r?dbs+hsdb:@term+@rn+@rel+37248-47-8
   3. http://toxnet.nlm.nih.gov/cgi-bin/sis/search/r?dbs+hsdb:@term+@rn+@rel+37248-47-8
   4. http://toxnet.nlm.nih.gov/cgi-bin/sis/search/r?dbs+hsdb:@term+@rn+@rel+37248-47-8
   5. http://toxnet.nlm.nih.gov/cgi-bin/sis/search/r?dbs+hsdb:@term+@rn+@rel+37248-47-8
   6. http://toxnet.nlm.nih.gov/cgi-bin/sis/search/r?dbs+hsdb:@term+@rn+@rel+37248-47-8
   7. http://toxnet.nlm.nih.gov/cgi-bin/sis/search/r?dbs+hsdb:@term+@rn+@rel+37248-47-8
   8. http://pubchem.ncbi.nlm.nih.gov/vw3d/vw3d.cgi?cid=443629
