9969573
  -OEChem-07051213122D

 54 56  0     0  0  0  0  0  0999 V2000
    2.5000   -1.1844    0.0000 O   0  0  0  0  0  0  0  0  0  0  0  0
    5.7788    0.5757    0.0000 O   0  0  0  0  0  0  0  0  0  0  0  0
    7.8479   -2.2722    0.0000 O   0  0  0  0  0  0  0  0  0  0  0  0
    5.2435    2.2230    0.0000 O   0  0  0  0  0  0  0  0  0  0  0  0
    6.9377    1.8628    0.0000 O   0  0  0  0  0  0  0  0  0  0  0  0
    6.0878   -1.9934    0.0000 N   0  0  0  0  0  0  0  0  0  0  0  0
    5.5000   -1.1844    0.0000 C   0  0  0  0  0  0  0  0  0  0  0  0
    5.0000   -2.0504    0.0000 C   0  0  0  0  0  0  0  0  0  0  0  0
    5.0000   -0.3184    0.0000 C   0  0  0  0  0  0  0  0  0  0  0  0
    4.0000   -2.0504    0.0000 C   0  0  0  0  0  0  0  0  0  0  0  0
    4.0000   -0.3184    0.0000 C   0  0  0  0  0  0  0  0  0  0  0  0
    3.5000   -1.1844    0.0000 C   0  0  0  0  0  0  0  0  0  0  0  0
    6.0878   -0.3754    0.0000 C   0  0  0  0  0  0  0  0  0  0  0  0
    7.0388   -0.6844    0.0000 C   0  0  0  0  0  0  0  0  0  0  0  0
    7.0388   -1.6844    0.0000 C   0  0  0  0  0  0  0  0  0  0  0  0
    7.8479   -0.0966    0.0000 C   0  0  0  0  0  0  0  0  0  0  0  0
    2.0000   -2.0504    0.0000 C   0  0  0  0  0  0  0  0  0  0  0  0
    8.7614   -0.5033    0.0000 C   0  0  0  0  0  0  0  0  0  0  0  0
    7.7433    0.8979    0.0000 C   0  0  0  0  0  0  0  0  0  0  0  0
    5.9867    1.5538    0.0000 C   0  0  0  0  0  0  0  0  0  0  0  0
    8.5524    1.4857    0.0000 C   0  0  0  0  0  0  0  0  0  0  0  0
    9.5704    0.0844    0.0000 C   0  0  0  0  0  0  0  0  0  0  0  0
    8.8659   -1.4979    0.0000 C   0  0  0  0  0  0  0  0  0  0  0  0
    9.4659    1.0790    0.0000 C   0  0  0  0  0  0  0  0  0  0  0  0
    8.4478    2.4802    0.0000 C   0  0  0  0  0  0  0  0  0  0  0  0
    4.2925    1.9139    0.0000 C   0  0  0  0  0  0  0  0  0  0  0  0
    3.5493    2.5831    0.0000 C   0  0  0  0  0  0  0  0  0  0  0  0
    4.8923   -2.6610    0.0000 H   0  0  0  0  0  0  0  0  0  0  0  0
    5.5826   -2.2625    0.0000 H   0  0  0  0  0  0  0  0  0  0  0  0
    5.5826   -0.1063    0.0000 H   0  0  0  0  0  0  0  0  0  0  0  0
    4.8923    0.2922    0.0000 H   0  0  0  0  0  0  0  0  0  0  0  0
    3.4174   -2.2625    0.0000 H   0  0  0  0  0  0  0  0  0  0  0  0
    4.1077   -2.6610    0.0000 H   0  0  0  0  0  0  0  0  0  0  0  0
    4.1077    0.2922    0.0000 H   0  0  0  0  0  0  0  0  0  0  0  0
    3.4174   -0.1063    0.0000 H   0  0  0  0  0  0  0  0  0  0  0  0
    3.1900   -1.7213    0.0000 H   0  0  0  0  0  0  0  0  0  0  0  0
    5.8962   -2.5831    0.0000 H   0  0  0  0  0  0  0  0  0  0  0  0
    1.4631   -1.7404    0.0000 H   0  0  0  0  0  0  0  0  0  0  0  0
    1.6900   -2.5874    0.0000 H   0  0  0  0  0  0  0  0  0  0  0  0
    2.5369   -2.3604    0.0000 H   0  0  0  0  0  0  0  0  0  0  0  0
    7.1769    1.1501    0.0000 H   0  0  0  0  0  0  0  0  0  0  0  0
   10.1368   -0.1677    0.0000 H   0  0  0  0  0  0  0  0  0  0  0  0
    8.2493   -1.5627    0.0000 H   0  0  0  0  0  0  0  0  0  0  0  0
    8.9307   -2.1145    0.0000 H   0  0  0  0  0  0  0  0  0  0  0  0
    9.4825   -1.4331    0.0000 H   0  0  0  0  0  0  0  0  0  0  0  0
    9.9675    1.4434    0.0000 H   0  0  0  0  0  0  0  0  0  0  0  0
    9.0644    2.5450    0.0000 H   0  0  0  0  0  0  0  0  0  0  0  0
    8.3830    3.0968    0.0000 H   0  0  0  0  0  0  0  0  0  0  0  0
    7.8312    2.4154    0.0000 H   0  0  0  0  0  0  0  0  0  0  0  0
    3.8039    1.5322    0.0000 H   0  0  0  0  0  0  0  0  0  0  0  0
    4.5836    1.3665    0.0000 H   0  0  0  0  0  0  0  0  0  0  0  0
    3.9642    3.0438    0.0000 H   0  0  0  0  0  0  0  0  0  0  0  0
    3.0886    2.9979    0.0000 H   0  0  0  0  0  0  0  0  0  0  0  0
    3.1345    2.1223    0.0000 H   0  0  0  0  0  0  0  0  0  0  0  0
  1 12  1  0  0  0  0
  1 17  1  0  0  0  0
  2 13  1  0  0  0  0
  2 20  1  0  0  0  0
  3 15  2  0  0  0  0
  4 20  1  0  0  0  0
  4 26  1  0  0  0  0
  5 20  2  0  0  0  0
  6  7  1  0  0  0  0
  6 15  1  0  0  0  0
  6 37  1  0  0  0  0
  7  8  1  0  0  0  0
  7  9  1  0  0  0  0
  7 13  1  0  0  0  0
  8 10  1  0  0  0  0
  8 28  1  0  0  0  0
  8 29  1  0  0  0  0
  9 11  1  0  0  0  0
  9 30  1  0  0  0  0
  9 31  1  0  0  0  0
 10 12  1  0  0  0  0
 10 32  1  0  0  0  0
 10 33  1  0  0  0  0
 11 12  1  0  0  0  0
 11 34  1  0  0  0  0
 11 35  1  0  0  0  0
 12 36  1  0  0  0  0
 13 14  2  0  0  0  0
 14 15  1  0  0  0  0
 14 16  1  0  0  0  0
 16 18  2  0  0  0  0
 16 19  1  0  0  0  0
 17 38  1  0  0  0  0
 17 39  1  0  0  0  0
 17 40  1  0  0  0  0
 18 22  1  0  0  0  0
 18 23  1  0  0  0  0
 19 21  2  0  0  0  0
 19 41  1  0  0  0  0
 21 24  1  0  0  0  0
 21 25  1  0  0  0  0
 22 24  2  0  0  0  0
 22 42  1  0  0  0  0
 23 43  1  0  0  0  0
 23 44  1  0  0  0  0
 23 45  1  0  0  0  0
 24 46  1  0  0  0  0
 25 47  1  0  0  0  0
 25 48  1  0  0  0  0
 25 49  1  0  0  0  0
 26 27  1  0  0  0  0
 26 50  1  0  0  0  0
 26 51  1  0  0  0  0
 27 52  1  0  0  0  0
 27 53  1  0  0  0  0
 27 54  1  0  0  0  0
M  END
> <PUBCHEM_COMPOUND_CID>
9969573

> <PUBCHEM_COMPOUND_CANONICALIZED>
1

> <PUBCHEM_CACTVS_COMPLEXITY>
606

> <PUBCHEM_CACTVS_HBOND_ACCEPTOR>
5

> <PUBCHEM_CACTVS_HBOND_DONOR>
1

> <PUBCHEM_CACTVS_ROTATABLE_BOND>
6

> <PUBCHEM_CACTVS_SUBSKEYS>
AAADceB6OAAAAAAAAAAAAAAAAAAAAQAAAAAwYAAAAAAAAAABAAAAHgAQAAAADJyhmAIyCILABACIAiFSGACCCAAgIAAIiAEAAMgaIDKAlRGlIAAklACciQe46OyOwAACAAAQAADAgAQAACAAAAAAAAAAAA==

> <PUBCHEM_IUPAC_OPENEYE_NAME>
[3-(2,5-dimethylphenyl)-8-methoxy-2-oxo-1-azaspiro[4.5]dec-3-en-4-yl] ethyl carbonate

> <PUBCHEM_IUPAC_CAS_NAME>
carbonic acid [3-(2,5-dimethylphenyl)-8-methoxy-2-oxo-1-azaspiro[4.5]dec-3-en-4-yl] ethyl ester

> <PUBCHEM_IUPAC_NAME>
[3-(2,5-dimethylphenyl)-8-methoxy-2-oxo-1-azaspiro[4.5]dec-3-en-4-yl] ethyl carbonate

> <PUBCHEM_IUPAC_SYSTEMATIC_NAME>
[3-(2,5-dimethylphenyl)-8-methoxy-2-oxidanylidene-1-azaspiro[4.5]dec-3-en-4-yl] ethyl carbonate

> <PUBCHEM_IUPAC_TRADITIONAL_NAME>
carbonic acid [3-(2,5-dimethylphenyl)-2-keto-8-methoxy-1-azaspiro[4.5]dec-3-en-4-yl] ethyl ester

> <PUBCHEM_IUPAC_INCHI>
InChI=1S/C21H27NO5/c1-5-26-20(24)27-18-17(16-12-13(2)6-7-14(16)3)19(23)22-21(18)10-8-15(25-4)9-11-21/h6-7,12,15H,5,8-11H2,1-4H3,(H,22,23)

> <PUBCHEM_IUPAC_INCHIKEY>
CLSVJBIHYWPGQY-UHFFFAOYSA-N

> <PUBCHEM_XLOGP3_AA>
3.2

> <PUBCHEM_EXACT_MASS>
373.188923

> <PUBCHEM_MOLECULAR_FORMULA>
C21H27NO5

> <PUBCHEM_MOLECULAR_WEIGHT>
373.44278

> <PUBCHEM_OPENEYE_CAN_SMILES>
CCOC(=O)OC1=C(C(=O)NC12CCC(CC2)OC)C3=C(C=CC(=C3)C)C

> <PUBCHEM_OPENEYE_ISO_SMILES>
CCOC(=O)OC1=C(C(=O)NC12CCC(CC2)OC)C3=C(C=CC(=C3)C)C

> <PUBCHEM_CACTVS_TPSA>
73.9

> <PUBCHEM_MONOISOTOPIC_WEIGHT>
373.188923

> <PUBCHEM_TOTAL_CHARGE>
0

> <PUBCHEM_HEAVY_ATOM_COUNT>
27

> <PUBCHEM_ATOM_DEF_STEREO_COUNT>
0

> <PUBCHEM_ATOM_UDEF_STEREO_COUNT>
0

> <PUBCHEM_BOND_DEF_STEREO_COUNT>
0

> <PUBCHEM_BOND_UDEF_STEREO_COUNT>
0

> <PUBCHEM_ISOTOPIC_ATOM_COUNT>
0

> <PUBCHEM_COMPONENT_COUNT>
1

> <PUBCHEM_CACTVS_TAUTO_COUNT>
2

> <PUBCHEM_COORDINATE_TYPE>
1
5
255

> <PUBCHEM_BONDANNOTATIONS>
16  18  8
16  19  8
18  22  8
19  21  8
21  24  8
22  24  8

$$$$

