23954
  -OEChem-07051212522D

  1  0  0     0  0  0  0  0  0999 V2000
    2.0000    0.0000    0.0000 Ag  0  0  0  0  0  0  0  0  0  0  0  0
M  END
> <PUBCHEM_COMPOUND_CID>
23954

> <PUBCHEM_COMPOUND_CANONICALIZED>
1

> <PUBCHEM_CACTVS_COMPLEXITY>
0

> <PUBCHEM_CACTVS_HBOND_ACCEPTOR>
0

> <PUBCHEM_CACTVS_HBOND_DONOR>
0

> <PUBCHEM_CACTVS_ROTATABLE_BOND>
0

> <PUBCHEM_CACTVS_SUBSKEYS>
AAADcQAAAAAAAAAAAAQAAAAAAAAAAAAAAAAAAAAAAAAAAAAAAAAAAAAAAAAAAAAAAAAAAAAAAAAAAAAAAAAAAAAAAAAAAAAAAAAAAAAAAAAAAAAAAAAAAAAAAAAAAAAAAAAAAAAAAAAAAAAAAAAAAAAAAA==

> <PUBCHEM_IUPAC_OPENEYE_NAME>
silver

> <PUBCHEM_IUPAC_CAS_NAME>
silver

> <PUBCHEM_IUPAC_NAME>
silver

> <PUBCHEM_IUPAC_SYSTEMATIC_NAME>
silver

> <PUBCHEM_IUPAC_TRADITIONAL_NAME>
silver

> <PUBCHEM_IUPAC_INCHI>
InChI=1S/Ag

> <PUBCHEM_IUPAC_INCHIKEY>
BQCADISMDOOEFD-UHFFFAOYSA-N

> <PUBCHEM_EXACT_MASS>
106.905097

> <PUBCHEM_MOLECULAR_FORMULA>
Ag

> <PUBCHEM_MOLECULAR_WEIGHT>
107.8682

> <PUBCHEM_OPENEYE_CAN_SMILES>
[Ag]

> <PUBCHEM_OPENEYE_ISO_SMILES>
[Ag]

> <PUBCHEM_CACTVS_TPSA>
0

> <PUBCHEM_MONOISOTOPIC_WEIGHT>
106.905097

> <PUBCHEM_TOTAL_CHARGE>
0

> <PUBCHEM_HEAVY_ATOM_COUNT>
1

> <PUBCHEM_ATOM_DEF_STEREO_COUNT>
0

> <PUBCHEM_ATOM_UDEF_STEREO_COUNT>
0

> <PUBCHEM_BOND_DEF_STEREO_COUNT>
0

> <PUBCHEM_BOND_UDEF_STEREO_COUNT>
0

> <PUBCHEM_ISOTOPIC_ATOM_COUNT>
0

> <PUBCHEM_COMPONENT_COUNT>
1

> <PUBCHEM_CACTVS_TAUTO_COUNT>
1

> <PUBCHEM_COORDINATE_TYPE>
1
5
255

$$$$

