9805
  -OEChem-06261204052D

 12 12  0     0  0  0  0  0  0999 V2000
    3.7320    2.0000    0.0000 F   0  0  0  0  0  0  0  0  0  0  0  0
    2.0000    1.0000    0.0000 F   0  0  0  0  0  0  0  0  0  0  0  0
    5.4641    1.0000    0.0000 F   0  0  0  0  0  0  0  0  0  0  0  0
    2.0000   -1.0000    0.0000 F   0  0  0  0  0  0  0  0  0  0  0  0
    5.4641   -1.0000    0.0000 F   0  0  0  0  0  0  0  0  0  0  0  0
    3.7320   -2.0000    0.0000 F   0  0  0  0  0  0  0  0  0  0  0  0
    3.7320    1.0000    0.0000 C   0  0  0  0  0  0  0  0  0  0  0  0
    2.8660    0.5000    0.0000 C   0  0  0  0  0  0  0  0  0  0  0  0
    4.5981    0.5000    0.0000 C   0  0  0  0  0  0  0  0  0  0  0  0
    2.8660   -0.5000    0.0000 C   0  0  0  0  0  0  0  0  0  0  0  0
    4.5981   -0.5000    0.0000 C   0  0  0  0  0  0  0  0  0  0  0  0
    3.7320   -1.0000    0.0000 C   0  0  0  0  0  0  0  0  0  0  0  0
  1  7  1  0  0  0  0
  2  8  1  0  0  0  0
  3  9  1  0  0  0  0
  4 10  1  0  0  0  0
  5 11  1  0  0  0  0
  6 12  1  0  0  0  0
  7  8  2  0  0  0  0
  7  9  1  0  0  0  0
  8 10  1  0  0  0  0
  9 11  2  0  0  0  0
 10 12  2  0  0  0  0
 11 12  1  0  0  0  0
M  END
> <PUBCHEM_COMPOUND_CID>
9805

> <PUBCHEM_COMPOUND_CANONICALIZED>
1

> <PUBCHEM_CACTVS_COMPLEXITY>
104

> <PUBCHEM_CACTVS_HBOND_ACCEPTOR>
6

> <PUBCHEM_CACTVS_HBOND_DONOR>
0

> <PUBCHEM_CACTVS_ROTATABLE_BOND>
0

> <PUBCHEM_CACTVS_SUBSKEYS>
AAADcQBgAcAAAAAAAAAAAAAAAAAAAAAAAAAwAAAAAAAAAAABAAAACQAAAAAACAAAEAgAAIAAAACAAABAAAACAAAgAAAAiAAAAIgIICKAEBCAIAAggAAIiAcAAAAAAAAAAAAAAAAAAAAAAAAAAAAAAAAAAA==

> <PUBCHEM_IUPAC_OPENEYE_NAME>
1,2,3,4,5,6-hexafluorobenzene

> <PUBCHEM_IUPAC_CAS_NAME>
1,2,3,4,5,6-hexafluorobenzene

> <PUBCHEM_IUPAC_NAME>
1,2,3,4,5,6-hexafluorobenzene

> <PUBCHEM_IUPAC_SYSTEMATIC_NAME>
1,2,3,4,5,6-hexakis(fluoranyl)benzene

> <PUBCHEM_IUPAC_TRADITIONAL_NAME>
1,2,3,4,5,6-hexafluorobenzene

> <PUBCHEM_IUPAC_INCHI>
InChI=1S/C6F6/c7-1-2(8)4(10)6(12)5(11)3(1)9

> <PUBCHEM_IUPAC_INCHIKEY>
ZQBFAOFFOQMSGJ-UHFFFAOYSA-N

> <PUBCHEM_XLOGP3>
2.5

> <PUBCHEM_EXACT_MASS>
185.990419

> <PUBCHEM_MOLECULAR_FORMULA>
C6F6

> <PUBCHEM_MOLECULAR_WEIGHT>
186.054619

> <PUBCHEM_OPENEYE_CAN_SMILES>
C1(=C(C(=C(C(=C1F)F)F)F)F)F

> <PUBCHEM_OPENEYE_ISO_SMILES>
C1(=C(C(=C(C(=C1F)F)F)F)F)F

> <PUBCHEM_CACTVS_TPSA>
0

> <PUBCHEM_MONOISOTOPIC_WEIGHT>
185.990419

> <PUBCHEM_TOTAL_CHARGE>
0

> <PUBCHEM_HEAVY_ATOM_COUNT>
12

> <PUBCHEM_ATOM_DEF_STEREO_COUNT>
0

> <PUBCHEM_ATOM_UDEF_STEREO_COUNT>
0

> <PUBCHEM_BOND_DEF_STEREO_COUNT>
0

> <PUBCHEM_BOND_UDEF_STEREO_COUNT>
0

> <PUBCHEM_ISOTOPIC_ATOM_COUNT>
0

> <PUBCHEM_COMPONENT_COUNT>
1

> <PUBCHEM_CACTVS_TAUTO_COUNT>
1

> <PUBCHEM_COORDINATE_TYPE>
1
5
255

> <PUBCHEM_BONDANNOTATIONS>
10  12  8
11  12  8
7  8  8
7  9  8
8  10  8
9  11  8

$$$$

