   Melting Point
        169-172 DEG C
   from [1]HSDB

   Dissociation Constants
        pKa = 8.97
   from [2]HSDB

   Octanol/Water Partition Coefficient
        log Kow = -0.31 (est)
   from [3]HSDB

   Solubilities
        In water, 1X10+6 mg/L at 25 deg C (est)
   from [4]HSDB

   Spectral Properties
        MAX ABSORPTION (PH 9.4 BORATE BUFFER): 237 NM (A= 258, 1%, 1 CM);
   291 NM (A= 140, 1%, 1 CM); MAX ABSORPTION (0.2 M H3BO3): 272 NM (A= 83,
   1%, 1 CM)
   from [5]HSDB

   Vapor Pressure
        2.2X10-15 mm Hg at 25 deg C (est)
   from [6]HSDB

   Other Chemical/Physical Properties

     * CRYSTALS; BITTER; MP: 140-145 DEG C; FREELY SOL IN WATER OR
       ALCOHOL; SPECIFIC OPTICAL ROTATION: -46.2 TO -47.2 DEG @ 25 DEG
       C/D; AQ SOLN IS NEUTRAL TO LITMUS PAPER /PHENYLEPHRINE
       HYDROCHLORIDE/
     * WHITE TO OFF-WHITE, CRYSTALLINE POWDER; PKA: 7.6 /PHENYLEPHRINE
       HYDROCHLORIDE/
     * ODORLESS, /PHENYLEPHRINE HYDROCHLORIDE/
     * FREELY SOL IN GLYCERIN /PHENYLEPHRINE HYDROCHLORIDE/
     * Henry's Law constant = 6.8X10-15 atm-cu m/mol at 25 deg C (est)
     * Hydroxyl radical reaction rate constant = 1.6X10-10 cu cm/molec-sec
       at 25 deg C (est)

   from [7]HSDB

   Computed Properties
   Molecular Weight                  167.20502 [g/mol]
   Molecular Formula                 C[9]H[13]NO[2]
   XLogP3                            -0.3
   H-Bond Donor                      3
   H-Bond Acceptor                   3
   Rotatable Bond Count              3
   Tautomer Count                    3
   Exact Mass                        167.094629
   MonoIsotopic Mass                 167.094629
   Topological Polar Surface Area    52.5
   Heavy Atom Count                  12
   Formal Charge                     0
   Complexity                        130
   Isotope Atom Count                0
   Defined Atom Stereocenter Count   1
   Undefined Atom Stereocenter Count 0
   Defined Bond Stereocenter Count   0
   Undefined Bond Stereocenter Count 0
   Covalently-Bonded Unit Count      1
   Feature 3D Acceptor Count         1
   Feature 3D Donor Count            3
   Feature 3D Cation Count           1
   Feature 3D Ring Count             1
   Effective Rotor Count             3
   Conformer Sampling RMSD           0.6
   CID Conformer Count               [8]15

References

   1. http://toxnet.nlm.nih.gov/cgi-bin/sis/search/r?dbs+hsdb:@term+@rn+@rel+59-42-7
   2. http://toxnet.nlm.nih.gov/cgi-bin/sis/search/r?dbs+hsdb:@term+@rn+@rel+59-42-7
   3. http://toxnet.nlm.nih.gov/cgi-bin/sis/search/r?dbs+hsdb:@term+@rn+@rel+59-42-7
   4. http://toxnet.nlm.nih.gov/cgi-bin/sis/search/r?dbs+hsdb:@term+@rn+@rel+59-42-7
   5. http://toxnet.nlm.nih.gov/cgi-bin/sis/search/r?dbs+hsdb:@term+@rn+@rel+59-42-7
   6. http://toxnet.nlm.nih.gov/cgi-bin/sis/search/r?dbs+hsdb:@term+@rn+@rel+59-42-7
   7. http://toxnet.nlm.nih.gov/cgi-bin/sis/search/r?dbs+hsdb:@term+@rn+@rel+59-42-7
   8. http://pubchem.ncbi.nlm.nih.gov/vw3d/vw3d.cgi?cid=6041
