13529
  -OEChem-06241222392D

 12 11  0     0  0  0  0  0  0999 V2000
    2.0000    0.9720    0.0000 F   0  0  0  0  0  0  0  0  0  0  0  0
    2.3660   -0.3940    0.0000 F   0  0  0  0  0  0  0  0  0  0  0  0
    5.4641    0.9720    0.0000 F   0  0  0  0  0  0  0  0  0  0  0  0
    5.0981   -0.3940    0.0000 F   0  0  0  0  0  0  0  0  0  0  0  0
    4.0981    1.3380    0.0000 F   0  0  0  0  0  0  0  0  0  0  0  0
    3.3660    1.3380    0.0000 F   0  0  0  0  0  0  0  0  0  0  0  0
    3.7320   -1.0280    0.0000 O   0  0  0  0  0  0  0  0  0  0  0  0
    3.7320   -0.0280    0.0000 C   0  0  0  0  0  0  0  0  0  0  0  0
    4.5981    0.4720    0.0000 C   0  0  0  0  0  0  0  0  0  0  0  0
    2.8660    0.4720    0.0000 C   0  0  0  0  0  0  0  0  0  0  0  0
    4.2690   -0.3380    0.0000 H   0  0  0  0  0  0  0  0  0  0  0  0
    3.1951   -1.3380    0.0000 H   0  0  0  0  0  0  0  0  0  0  0  0
  1 10  1  0  0  0  0
  2 10  1  0  0  0  0
  3  9  1  0  0  0  0
  4  9  1  0  0  0  0
  5  9  1  0  0  0  0
  6 10  1  0  0  0  0
  7  8  1  0  0  0  0
  7 12  1  0  0  0  0
  8  9  1  0  0  0  0
  8 10  1  0  0  0  0
  8 11  1  0  0  0  0
M  END
> <PUBCHEM_COMPOUND_CID>
13529

> <PUBCHEM_COMPOUND_CANONICALIZED>
1

> <PUBCHEM_CACTVS_COMPLEXITY>
97.1

> <PUBCHEM_CACTVS_HBOND_ACCEPTOR>
7

> <PUBCHEM_CACTVS_HBOND_DONOR>
1

> <PUBCHEM_CACTVS_ROTATABLE_BOND>
0

> <PUBCHEM_CACTVS_SUBSKEYS>
AAADcQBAIcAAAAAAAAAAAAAAAAAAAAAAAAAAAAAAAAAAAAAAAAAAGwAACAAACBSggBIAAAAAAgAAAAAAAAAAAAAAAAAAAAAAAAAAEAAAAAAAAAAAAAAAAAAAAAAAAAAAAAAAAAAAAAAAAAAAAAAAAAAAAA==

> <PUBCHEM_IUPAC_OPENEYE_NAME>
1,1,1,3,3,3-hexafluoropropan-2-ol

> <PUBCHEM_IUPAC_CAS_NAME>
1,1,1,3,3,3-hexafluoro-2-propanol

> <PUBCHEM_IUPAC_NAME>
1,1,1,3,3,3-hexafluoropropan-2-ol

> <PUBCHEM_IUPAC_SYSTEMATIC_NAME>
1,1,1,3,3,3-hexakis(fluoranyl)propan-2-ol

> <PUBCHEM_IUPAC_TRADITIONAL_NAME>
1,1,1,3,3,3-hexafluoropropan-2-ol

> <PUBCHEM_IUPAC_INCHI>
InChI=1S/C3H2F6O/c4-2(5,6)1(10)3(7,8)9/h1,10H

> <PUBCHEM_IUPAC_INCHIKEY>
BYEAHWXPCBROCE-UHFFFAOYSA-N

> <PUBCHEM_XLOGP3>
1.7

> <PUBCHEM_EXACT_MASS>
168.000984

> <PUBCHEM_MOLECULAR_FORMULA>
C3H2F6O

> <PUBCHEM_MOLECULAR_WEIGHT>
168.037799

> <PUBCHEM_OPENEYE_CAN_SMILES>
C(C(F)(F)F)(C(F)(F)F)O

> <PUBCHEM_OPENEYE_ISO_SMILES>
C(C(F)(F)F)(C(F)(F)F)O

> <PUBCHEM_CACTVS_TPSA>
20.2

> <PUBCHEM_MONOISOTOPIC_WEIGHT>
168.000984

> <PUBCHEM_TOTAL_CHARGE>
0

> <PUBCHEM_HEAVY_ATOM_COUNT>
10

> <PUBCHEM_ATOM_DEF_STEREO_COUNT>
0

> <PUBCHEM_ATOM_UDEF_STEREO_COUNT>
0

> <PUBCHEM_BOND_DEF_STEREO_COUNT>
0

> <PUBCHEM_BOND_UDEF_STEREO_COUNT>
0

> <PUBCHEM_ISOTOPIC_ATOM_COUNT>
0

> <PUBCHEM_COMPONENT_COUNT>
1

> <PUBCHEM_CACTVS_TAUTO_COUNT>
1

> <PUBCHEM_COORDINATE_TYPE>
1
5
255

$$$$

