118372
  -OEChem-07051212562D

 11 11  0     0  0  0  0  0  0999 V2000
    5.4641   -1.1900    0.0000 Cl  0  0  0  0  0  0  0  0  0  0  0  0
    2.0000   -1.1900    0.0000 O   0  0  0  0  0  0  0  0  0  0  0  0
    3.7320    1.8100    0.0000 O   0  0  0  0  0  0  0  0  0  0  0  0
    3.7320   -1.1900    0.0000 N   0  0  0  0  0  0  0  0  0  0  0  0
    2.8660    0.3100    0.0000 N   0  0  0  0  0  0  0  0  0  0  0  0
    4.5981    0.3100    0.0000 N   0  0  0  0  0  0  0  0  0  0  0  0
    2.8660   -0.6900    0.0000 C   0  0  0  0  0  0  0  0  0  0  0  0
    4.5981   -0.6900    0.0000 C   0  0  0  0  0  0  0  0  0  0  0  0
    3.7320    0.8100    0.0000 C   0  0  0  0  0  0  0  0  0  0  0  0
    3.7320   -1.8100    0.0000 H   0  0  0  0  0  0  0  0  0  0  0  0
    2.3291    0.6200    0.0000 H   0  0  0  0  0  0  0  0  0  0  0  0
  1  8  1  0  0  0  0
  2  7  2  0  0  0  0
  3  9  2  0  0  0  0
  4  7  1  0  0  0  0
  4  8  1  0  0  0  0
  4 10  1  0  0  0  0
  5  7  1  0  0  0  0
  5  9  1  0  0  0  0
  5 11  1  0  0  0  0
  6  8  2  0  0  0  0
  6  9  1  0  0  0  0
M  END
> <PUBCHEM_COMPOUND_CID>
118372

> <PUBCHEM_COMPOUND_CANONICALIZED>
1

> <PUBCHEM_CACTVS_COMPLEXITY>
199

> <PUBCHEM_CACTVS_HBOND_ACCEPTOR>
2

> <PUBCHEM_CACTVS_HBOND_DONOR>
2

> <PUBCHEM_CACTVS_ROTATABLE_BOND>
0

> <PUBCHEM_CACTVS_SUBSKEYS>
AAADcQBDMAAEAAAAAAAAAAAAAAAAAAAAAAAgAAAAAAAAAAAAAAAABgIQAAAAAAAAAAABAALAAAAoAAAANAAAAAEAAAABAAAAAACAAAAAAAAAAAAIASAAAAAAAAAAAAAAAAAAAAAAAAAAAAAAAAAAAAAAAA==

> <PUBCHEM_IUPAC_OPENEYE_NAME>
6-chloro-1H-1,3,5-triazine-2,4-dione

> <PUBCHEM_IUPAC_CAS_NAME>
6-chloro-1H-1,3,5-triazine-2,4-dione

> <PUBCHEM_IUPAC_NAME>
6-chloro-1H-1,3,5-triazine-2,4-dione

> <PUBCHEM_IUPAC_SYSTEMATIC_NAME>
6-chloranyl-1H-1,3,5-triazine-2,4-dione

> <PUBCHEM_IUPAC_TRADITIONAL_NAME>
6-chloro-1H-s-triazine-2,4-quinone

> <PUBCHEM_IUPAC_INCHI>
InChI=1S/C3H2ClN3O2/c4-1-5-2(8)7-3(9)6-1/h(H2,5,6,7,8,9)

> <PUBCHEM_IUPAC_INCHIKEY>
YDHNHFNGJCKAIZ-UHFFFAOYSA-N

> <PUBCHEM_XLOGP3_AA>
0.1

> <PUBCHEM_EXACT_MASS>
146.983554

> <PUBCHEM_MOLECULAR_FORMULA>
C3H2ClN3O2

> <PUBCHEM_MOLECULAR_WEIGHT>
147.51988

> <PUBCHEM_OPENEYE_CAN_SMILES>
C1(=O)NC(=NC(=O)N1)Cl

> <PUBCHEM_OPENEYE_ISO_SMILES>
C1(=O)NC(=NC(=O)N1)Cl

> <PUBCHEM_CACTVS_TPSA>
70.6

> <PUBCHEM_MONOISOTOPIC_WEIGHT>
146.983554

> <PUBCHEM_TOTAL_CHARGE>
0

> <PUBCHEM_HEAVY_ATOM_COUNT>
9

> <PUBCHEM_ATOM_DEF_STEREO_COUNT>
0

> <PUBCHEM_ATOM_UDEF_STEREO_COUNT>
0

> <PUBCHEM_BOND_DEF_STEREO_COUNT>
0

> <PUBCHEM_BOND_UDEF_STEREO_COUNT>
0

> <PUBCHEM_ISOTOPIC_ATOM_COUNT>
0

> <PUBCHEM_COMPONENT_COUNT>
1

> <PUBCHEM_CACTVS_TAUTO_COUNT>
5

> <PUBCHEM_COORDINATE_TYPE>
1
5
255

> <PUBCHEM_BONDANNOTATIONS>
4  7  8
4  8  8
5  7  8
5  9  8
6  8  8
6  9  8

$$$$

