23724687
  -OEChem-07051213082D

119119  0     1  0  0  0  0  0999 V2000
    4.2690  -10.0950    0.0000 O   0  0  0  0  0  0  0  0  0  0  0  0
    6.0010  -10.0950    0.0000 O   0  0  0  0  0  0  0  0  0  0  0  0
    6.0010  -12.0950    0.0000 O   0  0  0  0  0  0  0  0  0  0  0  0
    4.2690  -13.0950    0.0000 O   0  0  0  0  0  0  0  0  0  0  0  0
    2.5369  -12.0950    0.0000 O   0  0  0  0  0  0  0  0  0  0  0  0
    2.5369   -9.0950    0.0000 O   0  0  0  0  0  0  0  0  0  0  0  0
   12.9292   -0.0950    0.0000 O   0  0  0  0  0  0  0  0  0  0  0  0
    5.1350  -11.5950    0.0000 C   0  0  2  0  0  0  0  0  0  0  0  0
    4.2690  -12.0950    0.0000 C   0  0  2  0  0  0  0  0  0  0  0  0
    5.1350  -10.5950    0.0000 C   0  0  1  0  0  0  0  0  0  0  0  0
    3.4030  -11.5950    0.0000 C   0  0  1  0  0  0  0  0  0  0  0  0
    3.4030  -10.5950    0.0000 C   0  0  1  0  0  0  0  0  0  0  0  0
    6.0010   -9.0950    0.0000 C   0  0  0  0  0  0  0  0  0  0  0  0
    6.0010   -8.0950    0.0000 C   0  0  0  0  0  0  0  0  0  0  0  0
    2.5369  -10.0950    0.0000 C   0  0  0  0  0  0  0  0  0  0  0  0
    7.0010   -9.0950    0.0000 C   0  0  0  0  0  0  0  0  0  0  0  0
    5.0010   -9.0950    0.0000 C   0  0  0  0  0  0  0  0  0  0  0  0
    6.8671   -7.5950    0.0000 C   0  0  0  0  0  0  0  0  0  0  0  0
    6.8671   -6.5950    0.0000 C   0  0  0  0  0  0  0  0  0  0  0  0
    7.7331   -6.0950    0.0000 C   0  0  0  0  0  0  0  0  0  0  0  0
    8.5991   -6.5950    0.0000 C   0  0  0  0  0  0  0  0  0  0  0  0
    7.7331   -5.0950    0.0000 C   0  0  0  0  0  0  0  0  0  0  0  0
    8.5991   -4.5950    0.0000 C   0  0  0  0  0  0  0  0  0  0  0  0
    8.5991   -3.5950    0.0000 C   0  0  0  0  0  0  0  0  0  0  0  0
    9.4651   -3.0950    0.0000 C   0  0  0  0  0  0  0  0  0  0  0  0
   10.3312   -3.5950    0.0000 C   0  0  0  0  0  0  0  0  0  0  0  0
    9.4651   -2.0950    0.0000 C   0  0  0  0  0  0  0  0  0  0  0  0
   10.3312   -1.5950    0.0000 C   0  0  0  0  0  0  0  0  0  0  0  0
   10.3312   -0.5950    0.0000 C   0  0  0  0  0  0  0  0  0  0  0  0
    5.1350   10.4050    0.0000 C   0  0  0  0  0  0  0  0  0  0  0  0
    5.1350   11.4050    0.0000 C   0  0  0  0  0  0  0  0  0  0  0  0
   11.1972   -0.0950    0.0000 C   0  0  0  0  0  0  0  0  0  0  0  0
    6.0010    9.9050    0.0000 C   0  0  0  0  0  0  0  0  0  0  0  0
    4.2690   11.9050    0.0000 C   0  0  0  0  0  0  0  0  0  0  0  0
    4.2690   12.9050    0.0000 C   0  0  0  0  0  0  0  0  0  0  0  0
    6.8671   10.4050    0.0000 C   0  0  0  0  0  0  0  0  0  0  0  0
    6.0010    8.9050    0.0000 C   0  0  0  0  0  0  0  0  0  0  0  0
   11.1972    0.9050    0.0000 C   0  0  0  0  0  0  0  0  0  0  0  0
   12.0632   -0.5950    0.0000 C   0  0  0  0  0  0  0  0  0  0  0  0
    3.4030   13.4050    0.0000 C   0  0  0  0  0  0  0  0  0  0  0  0
    5.1350   13.4050    0.0000 C   0  0  0  0  0  0  0  0  0  0  0  0
    6.8671    8.4050    0.0000 C   0  0  0  0  0  0  0  0  0  0  0  0
    6.8671    7.4050    0.0000 C   0  0  0  0  0  0  0  0  0  0  0  0
   10.3312    1.4050    0.0000 C   0  0  0  0  0  0  0  0  0  0  0  0
    7.7331    6.9050    0.0000 C   0  0  0  0  0  0  0  0  0  0  0  0
   10.3312    2.4050    0.0000 C   0  0  0  0  0  0  0  0  0  0  0  0
    8.5991    7.4050    0.0000 C   0  0  0  0  0  0  0  0  0  0  0  0
    7.7331    5.9050    0.0000 C   0  0  0  0  0  0  0  0  0  0  0  0
    9.4651    2.9050    0.0000 C   0  0  0  0  0  0  0  0  0  0  0  0
    8.5991    5.4050    0.0000 C   0  0  0  0  0  0  0  0  0  0  0  0
    9.4651    3.9050    0.0000 C   0  0  0  0  0  0  0  0  0  0  0  0
    8.5991    4.4050    0.0000 C   0  0  0  0  0  0  0  0  0  0  0  0
   10.3312    4.4050    0.0000 C   0  0  0  0  0  0  0  0  0  0  0  0
    5.1350  -12.2150    0.0000 H   0  0  0  0  0  0  0  0  0  0  0  0
    4.8059  -12.4050    0.0000 H   0  0  0  0  0  0  0  0  0  0  0  0
    5.1350   -9.9750    0.0000 H   0  0  0  0  0  0  0  0  0  0  0  0
    3.4030  -12.2150    0.0000 H   0  0  0  0  0  0  0  0  0  0  0  0
    3.4030   -9.9750    0.0000 H   0  0  0  0  0  0  0  0  0  0  0  0
    5.7890   -7.5124    0.0000 H   0  0  0  0  0  0  0  0  0  0  0  0
    5.3905   -8.2027    0.0000 H   0  0  0  0  0  0  0  0  0  0  0  0
    1.9264   -9.9873    0.0000 H   0  0  0  0  0  0  0  0  0  0  0  0
    2.3249  -10.6776    0.0000 H   0  0  0  0  0  0  0  0  0  0  0  0
    7.0010   -9.7150    0.0000 H   0  0  0  0  0  0  0  0  0  0  0  0
    7.6210   -9.0950    0.0000 H   0  0  0  0  0  0  0  0  0  0  0  0
    5.0010   -8.4750    0.0000 H   0  0  0  0  0  0  0  0  0  0  0  0
    4.3810   -9.0950    0.0000 H   0  0  0  0  0  0  0  0  0  0  0  0
    5.0010   -9.7150    0.0000 H   0  0  0  0  0  0  0  0  0  0  0  0
    7.0010   -8.4750    0.0000 H   0  0  0  0  0  0  0  0  0  0  0  0
    7.0791   -8.1776    0.0000 H   0  0  0  0  0  0  0  0  0  0  0  0
    7.4776   -7.4873    0.0000 H   0  0  0  0  0  0  0  0  0  0  0  0
    6.0010  -12.7150    0.0000 H   0  0  0  0  0  0  0  0  0  0  0  0
    3.7320  -13.4050    0.0000 H   0  0  0  0  0  0  0  0  0  0  0  0
    2.0000  -11.7850    0.0000 H   0  0  0  0  0  0  0  0  0  0  0  0
    6.6550   -6.0124    0.0000 H   0  0  0  0  0  0  0  0  0  0  0  0
    6.2565   -6.7027    0.0000 H   0  0  0  0  0  0  0  0  0  0  0  0
    2.0000   -8.7850    0.0000 H   0  0  0  0  0  0  0  0  0  0  0  0
    8.2891   -7.1319    0.0000 H   0  0  0  0  0  0  0  0  0  0  0  0
    9.1360   -6.9050    0.0000 H   0  0  0  0  0  0  0  0  0  0  0  0
    8.9091   -6.0581    0.0000 H   0  0  0  0  0  0  0  0  0  0  0  0
    7.1962   -4.7850    0.0000 H   0  0  0  0  0  0  0  0  0  0  0  0
    9.1360   -4.9050    0.0000 H   0  0  0  0  0  0  0  0  0  0  0  0
    8.0622   -3.2850    0.0000 H   0  0  0  0  0  0  0  0  0  0  0  0
   10.0212   -4.1319    0.0000 H   0  0  0  0  0  0  0  0  0  0  0  0
   10.8681   -3.9050    0.0000 H   0  0  0  0  0  0  0  0  0  0  0  0
   10.6412   -3.0581    0.0000 H   0  0  0  0  0  0  0  0  0  0  0  0
    8.9282   -1.7850    0.0000 H   0  0  0  0  0  0  0  0  0  0  0  0
   10.8681   -1.9050    0.0000 H   0  0  0  0  0  0  0  0  0  0  0  0
    9.7942   -0.2850    0.0000 H   0  0  0  0  0  0  0  0  0  0  0  0
    4.5244   10.5127    0.0000 H   0  0  0  0  0  0  0  0  0  0  0  0
    4.9230    9.8224    0.0000 H   0  0  0  0  0  0  0  0  0  0  0  0
    5.7456   11.2973    0.0000 H   0  0  0  0  0  0  0  0  0  0  0  0
    5.3471   11.9876    0.0000 H   0  0  0  0  0  0  0  0  0  0  0  0
    3.7320   11.5950    0.0000 H   0  0  0  0  0  0  0  0  0  0  0  0
    7.1771    9.8681    0.0000 H   0  0  0  0  0  0  0  0  0  0  0  0
    7.4040   10.7150    0.0000 H   0  0  0  0  0  0  0  0  0  0  0  0
    6.5571   10.9419    0.0000 H   0  0  0  0  0  0  0  0  0  0  0  0
    5.4641    8.5950    0.0000 H   0  0  0  0  0  0  0  0  0  0  0  0
   11.7341    1.2150    0.0000 H   0  0  0  0  0  0  0  0  0  0  0  0
    3.7130   13.9419    0.0000 H   0  0  0  0  0  0  0  0  0  0  0  0
    2.8660   13.7150    0.0000 H   0  0  0  0  0  0  0  0  0  0  0  0
    3.0930   12.8681    0.0000 H   0  0  0  0  0  0  0  0  0  0  0  0
    5.4450   12.8681    0.0000 H   0  0  0  0  0  0  0  0  0  0  0  0
    5.6720   13.7150    0.0000 H   0  0  0  0  0  0  0  0  0  0  0  0
    4.8250   13.9419    0.0000 H   0  0  0  0  0  0  0  0  0  0  0  0
   12.0632   -1.2150    0.0000 H   0  0  0  0  0  0  0  0  0  0  0  0
    7.4040    8.7150    0.0000 H   0  0  0  0  0  0  0  0  0  0  0  0
    6.3301    7.0950    0.0000 H   0  0  0  0  0  0  0  0  0  0  0  0
    9.7942    1.0950    0.0000 H   0  0  0  0  0  0  0  0  0  0  0  0
    8.9091    6.8681    0.0000 H   0  0  0  0  0  0  0  0  0  0  0  0
    9.1360    7.7150    0.0000 H   0  0  0  0  0  0  0  0  0  0  0  0
    8.2891    7.9419    0.0000 H   0  0  0  0  0  0  0  0  0  0  0  0
    7.1962    5.5950    0.0000 H   0  0  0  0  0  0  0  0  0  0  0  0
   10.8681    2.7150    0.0000 H   0  0  0  0  0  0  0  0  0  0  0  0
    9.1360    5.7150    0.0000 H   0  0  0  0  0  0  0  0  0  0  0  0
    8.9282    2.5950    0.0000 H   0  0  0  0  0  0  0  0  0  0  0  0
    8.0622    4.0950    0.0000 H   0  0  0  0  0  0  0  0  0  0  0  0
   10.6412    3.8681    0.0000 H   0  0  0  0  0  0  0  0  0  0  0  0
   10.8681    4.7150    0.0000 H   0  0  0  0  0  0  0  0  0  0  0  0
   10.0212    4.9419    0.0000 H   0  0  0  0  0  0  0  0  0  0  0  0
  1 10  1  0  0  0  0
  1 12  1  0  0  0  0
 10  2  1  1  0  0  0
  2 13  1  0  0  0  0
  8  3  1  6  0  0  0
  3 71  1  0  0  0  0
  9  4  1  1  0  0  0
  4 72  1  0  0  0  0
 11  5  1  6  0  0  0
  5 73  1  0  0  0  0
  6 15  1  0  0  0  0
  6 76  1  0  0  0  0
  7 39  2  0  0  0  0
  8  9  1  0  0  0  0
  8 10  1  0  0  0  0
  8 54  1  0  0  0  0
  9 11  1  0  0  0  0
  9 55  1  0  0  0  0
 10 56  1  0  0  0  0
 11 12  1  0  0  0  0
 11 57  1  0  0  0  0
 12 15  1  1  0  0  0
 12 58  1  0  0  0  0
 13 14  1  0  0  0  0
 13 16  1  0  0  0  0
 13 17  1  0  0  0  0
 14 18  1  0  0  0  0
 14 59  1  0  0  0  0
 14 60  1  0  0  0  0
 15 61  1  0  0  0  0
 15 62  1  0  0  0  0
 16 63  1  0  0  0  0
 16 64  1  0  0  0  0
 16 68  1  0  0  0  0
 17 65  1  0  0  0  0
 17 66  1  0  0  0  0
 17 67  1  0  0  0  0
 18 19  1  0  0  0  0
 18 69  1  0  0  0  0
 18 70  1  0  0  0  0
 19 20  1  0  0  0  0
 19 74  1  0  0  0  0
 19 75  1  0  0  0  0
 20 21  1  0  0  0  0
 20 22  2  0  0  0  0
 21 77  1  0  0  0  0
 21 78  1  0  0  0  0
 21 79  1  0  0  0  0
 22 23  1  0  0  0  0
 22 80  1  0  0  0  0
 23 24  2  0  0  0  0
 23 81  1  0  0  0  0
 24 25  1  0  0  0  0
 24 82  1  0  0  0  0
 25 26  1  0  0  0  0
 25 27  2  0  0  0  0
 26 83  1  0  0  0  0
 26 84  1  0  0  0  0
 26 85  1  0  0  0  0
 27 28  1  0  0  0  0
 27 86  1  0  0  0  0
 28 29  2  0  0  0  0
 28 87  1  0  0  0  0
 29 32  1  0  0  0  0
 29 88  1  0  0  0  0
 30 31  1  0  0  0  0
 30 33  1  0  0  0  0
 30 89  1  0  0  0  0
 30 90  1  0  0  0  0
 31 34  1  0  0  0  0
 31 91  1  0  0  0  0
 31 92  1  0  0  0  0
 32 38  2  0  0  0  0
 32 39  1  0  0  0  0
 33 36  1  0  0  0  0
 33 37  2  0  0  0  0
 34 35  2  0  0  0  0
 34 93  1  0  0  0  0
 35 40  1  0  0  0  0
 35 41  1  0  0  0  0
 36 94  1  0  0  0  0
 36 95  1  0  0  0  0
 36 96  1  0  0  0  0
 37 42  1  0  0  0  0
 37 97  1  0  0  0  0
 38 44  1  0  0  0  0
 38 98  1  0  0  0  0
 39105  1  0  0  0  0
 40 99  1  0  0  0  0
 40100  1  0  0  0  0
 40101  1  0  0  0  0
 41102  1  0  0  0  0
 41103  1  0  0  0  0
 41104  1  0  0  0  0
 42 43  2  0  0  0  0
 42106  1  0  0  0  0
 43 45  1  0  0  0  0
 43107  1  0  0  0  0
 44 46  2  0  0  0  0
 44108  1  0  0  0  0
 45 47  1  0  0  0  0
 45 48  2  0  0  0  0
 46 49  1  0  0  0  0
 46113  1  0  0  0  0
 47109  1  0  0  0  0
 47110  1  0  0  0  0
 47111  1  0  0  0  0
 48 50  1  0  0  0  0
 48112  1  0  0  0  0
 49 51  2  0  0  0  0
 49115  1  0  0  0  0
 50 52  2  0  0  0  0
 50114  1  0  0  0  0
 51 52  1  0  0  0  0
 51 53  1  0  0  0  0
 52116  1  0  0  0  0
 53117  1  0  0  0  0
 53118  1  0  0  0  0
 53119  1  0  0  0  0
M  END
> <PUBCHEM_COMPOUND_CID>
23724687

> <PUBCHEM_COMPOUND_CANONICALIZED>
1

> <PUBCHEM_CACTVS_COMPLEXITY>
1500

> <PUBCHEM_CACTVS_HBOND_ACCEPTOR>
7

> <PUBCHEM_CACTVS_HBOND_DONOR>
4

> <PUBCHEM_CACTVS_ROTATABLE_BOND>
21

> <PUBCHEM_CACTVS_SUBSKEYS>
AAADcfB8OAAAAAAAAAAAAAAAAAAAAAAAAAAkAAAAAAAAAAAAAAAAGgAACAAADFSwgAMCCAAABgCIAihSgAAAAAAgAAAICAEAAEgZEAIAAQAiQAAFgAAPgYPA4EwMAAAAAAAAAAAAAAAAAAAAAAAAAAAAAA==

> <PUBCHEM_IUPAC_OPENEYE_NAME>
(2E,4E,6E,8E,10E,12E,14E)-7,11,15,19-tetramethyl-2-[(1E,3E,5E,7E)-4,8,12-trimethyl-12-[(2S,3R,4S,5S,6R)-3,4,5-trihydroxy-6-(hydroxymethyl)tetrahydropyran-2-yl]oxy-trideca-1,3,5,7-tetraenyl]icosa-2,4,6,8,10,12,14,18-octaenal

> <PUBCHEM_IUPAC_CAS_NAME>
(2E,4E,6E,8E,10E,12E,14E)-7,11,15,19-tetramethyl-2-[(1E,3E,5E,7E)-4,8,12-trimethyl-12-[[(2S,3R,4S,5S,6R)-3,4,5-trihydroxy-6-(hydroxymethyl)-2-oxanyl]oxy]trideca-1,3,5,7-tetraenyl]eicosa-2,4,6,8,10,12,14,18-octaenal

> <PUBCHEM_IUPAC_NAME>
(2E,4E,6E,8E,10E,12E,14E)-7,11,15,19-tetramethyl-2-[(1E,3E,5E,7E)-4,8,12-trimethyl-12-[(2S,3R,4S,5S,6R)-3,4,5-trihydroxy-6-(hydroxymethyl)oxan-2-yl]oxytrideca-1,3,5,7-tetraenyl]icosa-2,4,6,8,10,12,14,18-octaenal

> <PUBCHEM_IUPAC_SYSTEMATIC_NAME>
(2E,4E,6E,8E,10E,12E,14E)-2-[(1E,3E,5E,7E)-12-[(2S,3R,4S,5S,6R)-6-(hydroxymethyl)-3,4,5-tris(oxidanyl)oxan-2-yl]oxy-4,8,12-trimethyl-trideca-1,3,5,7-tetraenyl]-7,11,15,19-tetramethyl-icosa-2,4,6,8,10,12,14,18-octaenal

> <PUBCHEM_IUPAC_TRADITIONAL_NAME>
(2E,4E,6E,8E,10E,12E,14E)-7,11,15,19-tetramethyl-2-[(1E,3E,5E,7E)-4,8,12-trimethyl-12-[(2S,3R,4S,5S,6R)-3,4,5-trihydroxy-6-methylol-tetrahydropyran-2-yl]oxy-trideca-1,3,5,7-tetraenyl]eicosa-2,4,6,8,10,12,14,18-octaenal

> <PUBCHEM_IUPAC_INCHI>
InChI=1S/C46H66O7/c1-34(2)18-12-20-36(4)22-14-24-37(5)23-13-21-35(3)19-10-11-29-40(32-47)30-16-27-38(6)25-15-26-39(7)28-17-31-46(8,9)53-45-44(51)43(50)42(49)41(33-48)52-45/h10-11,13-16,18-19,21-27,29-30,32,41-45,48-51H,12,17,20,28,31,33H2,1-9H3/b11-10+,21-13+,24-14+,25-15+,30-16+,35-19+,36-22+,37-23+,38-27+,39-26+,40-29+/t41-,42-,43+,44-,45+/m1/s1

> <PUBCHEM_IUPAC_INCHIKEY>
KMCAYUSNEOYNIP-GFHGTIOLSA-N

> <PUBCHEM_XLOGP3_AA>
11.3

> <PUBCHEM_EXACT_MASS>
730.480854

> <PUBCHEM_MOLECULAR_FORMULA>
C46H66O7

> <PUBCHEM_MOLECULAR_WEIGHT>
731.01204

> <PUBCHEM_OPENEYE_CAN_SMILES>
CC(=CCCC(=CC=CC(=CC=CC(=CC=CC=C(C=CC=C(C)C=CC=C(C)CCCC(C)(C)OC1C(C(C(C(O1)CO)O)O)O)C=O)C)C)C)C

> <PUBCHEM_OPENEYE_ISO_SMILES>
CC(=CCC/C(=C/C=C/C(=C/C=C/C(=C/C=C/C=C(\C=C\C=C(/C)\C=C\C=C(/C)\CCCC(C)(C)O[C@H]1[C@@H]([C@H]([C@@H]([C@H](O1)CO)O)O)O)/C=O)/C)/C)/C)C

> <PUBCHEM_CACTVS_TPSA>
116

> <PUBCHEM_MONOISOTOPIC_WEIGHT>
730.480854

> <PUBCHEM_TOTAL_CHARGE>
0

> <PUBCHEM_HEAVY_ATOM_COUNT>
53

> <PUBCHEM_ATOM_DEF_STEREO_COUNT>
5

> <PUBCHEM_ATOM_UDEF_STEREO_COUNT>
0

> <PUBCHEM_BOND_DEF_STEREO_COUNT>
11

> <PUBCHEM_BOND_UDEF_STEREO_COUNT>
0

> <PUBCHEM_ISOTOPIC_ATOM_COUNT>
0

> <PUBCHEM_COMPONENT_COUNT>
1

> <PUBCHEM_CACTVS_TAUTO_COUNT>
1

> <PUBCHEM_COORDINATE_TYPE>
1
5
255

> <PUBCHEM_BONDANNOTATIONS>
12  15  5
10  2  5
8  3  6
9  4  5
11  5  6

$$$$

