5388
  -OEChem-06261200392D

 90 94  0     1  0  0  0  0  0999 V2000
    5.5033   -2.4986    0.0000 O   0  0  0  0  0  0  0  0  0  0  0  0
   19.9884    0.4444    0.0000 O   0  0  0  0  0  0  0  0  0  0  0  0
    6.0889    0.7358    0.0000 O   0  0  0  0  0  0  0  0  0  0  0  0
   14.8928   -0.2092    0.0000 O   0  0  0  0  0  0  0  0  0  0  0  0
   10.4909    2.2633    0.0000 O   0  0  0  0  0  0  0  0  0  0  0  0
   10.4909   -1.7367    0.0000 O   0  0  0  0  0  0  0  0  0  0  0  0
    3.4966   -0.7742    0.0000 N   0  3  3  0  0  0  0  0  0  0  0  0
   17.4851    1.3008    0.0000 N   0  3  3  0  0  0  0  0  0  0  0  0
    6.9607   -0.7609    0.0000 N   0  0  0  0  0  0  0  0  0  0  0  0
   14.0210    1.2874    0.0000 N   0  0  0  0  0  0  0  0  0  0  0  0
    4.0000   -1.6383    0.0000 C   0  0  3  0  0  0  0  0  0  0  0  0
   18.4850    1.3046    0.0000 C   0  0  3  0  0  0  0  0  0  0  0  0
    2.4967   -0.7781    0.0000 C   0  0  0  0  0  0  0  0  0  0  0  0
   16.9817    2.1649    0.0000 C   0  0  0  0  0  0  0  0  0  0  0  0
   18.9817    2.1726    0.0000 C   0  0  0  0  0  0  0  0  0  0  0  0
    3.5033   -2.5063    0.0000 C   0  0  0  0  0  0  0  0  0  0  0  0
   16.6210    0.7974    0.0000 C   0  0  0  0  0  0  0  0  0  0  0  0
    4.3607   -0.2709    0.0000 C   0  0  0  0  0  0  0  0  0  0  0  0
    2.0000   -1.6460    0.0000 C   0  0  0  0  0  0  0  0  0  0  0  0
   17.4784    3.0328    0.0000 C   0  0  0  0  0  0  0  0  0  0  0  0
    2.5033   -2.5101    0.0000 C   0  0  0  0  0  0  0  0  0  0  0  0
   18.4784    3.0367    0.0000 C   0  0  0  0  0  0  0  0  0  0  0  0
    3.4928    0.2258    0.0000 C   0  0  0  0  0  0  0  0  0  0  0  0
   17.4889    0.3008    0.0000 C   0  0  0  0  0  0  0  0  0  0  0  0
    5.0000   -1.6345    0.0000 C   0  0  0  0  0  0  0  0  0  0  0  0
   18.9884    0.4405    0.0000 C   0  0  0  0  0  0  0  0  0  0  0  0
    5.2287   -0.7675    0.0000 C   0  0  0  0  0  0  0  0  0  0  0  0
   15.7530    1.2941    0.0000 C   0  0  0  0  0  0  0  0  0  0  0  0
    6.0928   -0.2642    0.0000 C   0  0  0  0  0  0  0  0  0  0  0  0
   14.8889    0.7908    0.0000 C   0  0  0  0  0  0  0  0  0  0  0  0
    7.8248   -0.2575    0.0000 C   0  0  0  0  0  0  0  0  0  0  0  0
   13.1569    0.7841    0.0000 C   0  0  0  0  0  0  0  0  0  0  0  0
    8.7309   -0.7714    0.0000 C   0  0  0  0  0  0  0  0  0  0  0  0
   12.2508    1.2979    0.0000 C   0  0  0  0  0  0  0  0  0  0  0  0
    7.8248    0.7841    0.0000 C   0  0  0  0  0  0  0  0  0  0  0  0
   13.1569   -0.2575    0.0000 C   0  0  0  0  0  0  0  0  0  0  0  0
   11.3569    0.7633    0.0000 C   0  0  0  0  0  0  0  0  0  0  0  0
    9.6248   -0.2367    0.0000 C   0  0  0  0  0  0  0  0  0  0  0  0
    9.6248    0.7633    0.0000 C   0  0  0  0  0  0  0  0  0  0  0  0
   11.3569   -0.2367    0.0000 C   0  0  0  0  0  0  0  0  0  0  0  0
    8.7309    1.2979    0.0000 C   0  0  0  0  0  0  0  0  0  0  0  0
   12.2508   -0.7714    0.0000 C   0  0  0  0  0  0  0  0  0  0  0  0
   10.4909    1.2633    0.0000 C   0  0  0  0  0  0  0  0  0  0  0  0
   10.4909   -0.7367    0.0000 C   0  0  0  0  0  0  0  0  0  0  0  0
   18.0629    0.5669    0.0000 H   0  0  0  0  0  0  0  0  0  0  0  0
    4.4221   -0.9006    0.0000 H   0  0  0  0  0  0  0  0  0  0  0  0
    2.6020   -0.1671    0.0000 H   0  0  0  0  0  0  0  0  0  0  0  0
    1.9132   -0.5683    0.0000 H   0  0  0  0  0  0  0  0  0  0  0  0
   16.5052    2.5616    0.0000 H   0  0  0  0  0  0  0  0  0  0  0  0
   16.5083    1.7645    0.0000 H   0  0  0  0  0  0  0  0  0  0  0  0
    3.3980   -3.1172    0.0000 H   0  0  0  0  0  0  0  0  0  0  0  0
    4.0868   -2.7161    0.0000 H   0  0  0  0  0  0  0  0  0  0  0  0
   19.4582    1.7759    0.0000 H   0  0  0  0  0  0  0  0  0  0  0  0
   19.4551    2.5729    0.0000 H   0  0  0  0  0  0  0  0  0  0  0  0
    4.7574    0.2056    0.0000 H   0  0  0  0  0  0  0  0  0  0  0  0
    3.9604    0.2025    0.0000 H   0  0  0  0  0  0  0  0  0  0  0  0
   16.2243    0.3210    0.0000 H   0  0  0  0  0  0  0  0  0  0  0  0
   17.0213    0.3240    0.0000 H   0  0  0  0  0  0  0  0  0  0  0  0
   17.5837    3.6438    0.0000 H   0  0  0  0  0  0  0  0  0  0  0  0
   16.8950    3.2426    0.0000 H   0  0  0  0  0  0  0  0  0  0  0  0
    1.5235   -1.2493    0.0000 H   0  0  0  0  0  0  0  0  0  0  0  0
    1.5266   -2.0464    0.0000 H   0  0  0  0  0  0  0  0  0  0  0  0
    1.9216   -2.7244    0.0000 H   0  0  0  0  0  0  0  0  0  0  0  0
    2.6134   -3.1203    0.0000 H   0  0  0  0  0  0  0  0  0  0  0  0
   19.0602    3.2510    0.0000 H   0  0  0  0  0  0  0  0  0  0  0  0
   18.3684    3.6468    0.0000 H   0  0  0  0  0  0  0  0  0  0  0  0
    4.1128    0.2282    0.0000 H   0  0  0  0  0  0  0  0  0  0  0  0
    3.4904    0.8458    0.0000 H   0  0  0  0  0  0  0  0  0  0  0  0
    2.8728    0.2234    0.0000 H   0  0  0  0  0  0  0  0  0  0  0  0
   16.8689    0.2984    0.0000 H   0  0  0  0  0  0  0  0  0  0  0  0
   17.4913   -0.3192    0.0000 H   0  0  0  0  0  0  0  0  0  0  0  0
   18.1089    0.3032    0.0000 H   0  0  0  0  0  0  0  0  0  0  0  0
    5.5818   -1.4202    0.0000 H   0  0  0  0  0  0  0  0  0  0  0  0
    4.8900   -1.0243    0.0000 H   0  0  0  0  0  0  0  0  0  0  0  0
   18.4066    0.2262    0.0000 H   0  0  0  0  0  0  0  0  0  0  0  0
   19.0984   -0.1696    0.0000 H   0  0  0  0  0  0  0  0  0  0  0  0
   16.1497    1.7706    0.0000 H   0  0  0  0  0  0  0  0  0  0  0  0
   15.3527    1.7675    0.0000 H   0  0  0  0  0  0  0  0  0  0  0  0
    4.8320   -1.2440    0.0000 H   0  0  0  0  0  0  0  0  0  0  0  0
    5.6290   -1.2410    0.0000 H   0  0  0  0  0  0  0  0  0  0  0  0
    5.1954   -3.0367    0.0000 H   0  0  0  0  0  0  0  0  0  0  0  0
   20.3004   -0.0913    0.0000 H   0  0  0  0  0  0  0  0  0  0  0  0
    6.9631   -1.3809    0.0000 H   0  0  0  0  0  0  0  0  0  0  0  0
   14.0186    1.9074    0.0000 H   0  0  0  0  0  0  0  0  0  0  0  0
    8.7381   -1.3913    0.0000 H   0  0  0  0  0  0  0  0  0  0  0  0
   12.2437    1.9179    0.0000 H   0  0  0  0  0  0  0  0  0  0  0  0
    7.2891    1.0962    0.0000 H   0  0  0  0  0  0  0  0  0  0  0  0
   13.6926   -0.5696    0.0000 H   0  0  0  0  0  0  0  0  0  0  0  0
    8.7381    1.9179    0.0000 H   0  0  0  0  0  0  0  0  0  0  0  0
   12.2437   -1.3913    0.0000 H   0  0  0  0  0  0  0  0  0  0  0  0
  1 25  1  0  0  0  0
  1 81  1  0  0  0  0
  2 26  1  0  0  0  0
  2 82  1  0  0  0  0
  3 29  2  0  0  0  0
  4 30  2  0  0  0  0
  5 43  2  0  0  0  0
  6 44  2  0  0  0  0
  7 11  1  0  0  0  0
  7 13  1  0  0  0  0
  7 18  1  0  0  0  0
  7 23  1  0  0  0  0
  8 12  1  0  0  0  0
  8 14  1  0  0  0  0
  8 17  1  0  0  0  0
  8 24  1  0  0  0  0
  9 29  1  0  0  0  0
  9 31  1  0  0  0  0
  9 83  1  0  0  0  0
 10 30  1  0  0  0  0
 10 32  1  0  0  0  0
 10 84  1  0  0  0  0
 11 16  1  0  0  0  0
 11 25  1  0  0  0  0
 11 46  1  0  0  0  0
 12 15  1  0  0  0  0
 12 26  1  0  0  0  0
 12 45  1  0  0  0  0
 13 19  1  0  0  0  0
 13 47  1  0  0  0  0
 13 48  1  0  0  0  0
 14 20  1  0  0  0  0
 14 49  1  0  0  0  0
 14 50  1  0  0  0  0
 15 22  1  0  0  0  0
 15 53  1  0  0  0  0
 15 54  1  0  0  0  0
 16 21  1  0  0  0  0
 16 51  1  0  0  0  0
 16 52  1  0  0  0  0
 17 28  1  0  0  0  0
 17 57  1  0  0  0  0
 17 58  1  0  0  0  0
 18 27  1  0  0  0  0
 18 55  1  0  0  0  0
 18 56  1  0  0  0  0
 19 21  1  0  0  0  0
 19 61  1  0  0  0  0
 19 62  1  0  0  0  0
 20 22  1  0  0  0  0
 20 59  1  0  0  0  0
 20 60  1  0  0  0  0
 21 63  1  0  0  0  0
 21 64  1  0  0  0  0
 22 65  1  0  0  0  0
 22 66  1  0  0  0  0
 23 67  1  0  0  0  0
 23 68  1  0  0  0  0
 23 69  1  0  0  0  0
 24 70  1  0  0  0  0
 24 71  1  0  0  0  0
 24 72  1  0  0  0  0
 25 73  1  0  0  0  0
 25 74  1  0  0  0  0
 26 75  1  0  0  0  0
 26 76  1  0  0  0  0
 27 29  1  0  0  0  0
 27 79  1  0  0  0  0
 27 80  1  0  0  0  0
 28 30  1  0  0  0  0
 28 77  1  0  0  0  0
 28 78  1  0  0  0  0
 31 33  2  0  0  0  0
 31 35  1  0  0  0  0
 32 34  2  0  0  0  0
 32 36  1  0  0  0  0
 33 38  1  0  0  0  0
 33 85  1  0  0  0  0
 34 37  1  0  0  0  0
 34 86  1  0  0  0  0
 35 41  2  0  0  0  0
 35 87  1  0  0  0  0
 36 42  2  0  0  0  0
 36 88  1  0  0  0  0
 37 40  2  0  0  0  0
 37 43  1  0  0  0  0
 38 39  2  0  0  0  0
 38 44  1  0  0  0  0
 39 41  1  0  0  0  0
 39 43  1  0  0  0  0
 40 42  1  0  0  0  0
 40 44  1  0  0  0  0
 41 89  1  0  0  0  0
 42 90  1  0  0  0  0
M  CHG  2   7   1   8   1
M  END
> <PUBCHEM_COMPOUND_CID>
5388

> <PUBCHEM_COMPOUND_CANONICALIZED>
1

> <PUBCHEM_CACTVS_COMPLEXITY>
988

> <PUBCHEM_CACTVS_HBOND_ACCEPTOR>
6

> <PUBCHEM_CACTVS_HBOND_DONOR>
4

> <PUBCHEM_CACTVS_ROTATABLE_BOND>
10

> <PUBCHEM_CACTVS_SUBSKEYS>
AAADcfB/uAAAAAAAAAAAAAAAAAAAAAAAAAA8eMECAAAAAADBQAAAHgAQCAAADCzhmAYywIPAAgCIAqVSUACCAAAlAgAIiAEIZMgKMDrA1ZGEYQhklADYyYedycCeiAAAQAAQAACQAASAACAAAAAAAAAAAA==

> <PUBCHEM_IUPAC_OPENEYE_NAME>
3-[2-(hydroxymethyl)-1-methyl-piperidin-1-ium-1-yl]-N-[6-[3-[2-(hydroxymethyl)-1-methyl-piperidin-1-ium-1-yl]propanoylamino]-9,10-dioxo-2-anthryl]propanamide

> <PUBCHEM_IUPAC_CAS_NAME>
3-[2-(hydroxymethyl)-1-methyl-1-piperidin-1-iumyl]-N-[6-[[3-[2-(hydroxymethyl)-1-methyl-1-piperidin-1-iumyl]-1-oxopropyl]amino]-9,10-dioxo-2-anthracenyl]propanamide

> <PUBCHEM_IUPAC_NAME>
3-[2-(hydroxymethyl)-1-methylpiperidin-1-ium-1-yl]-N-[6-[3-[2-(hydroxymethyl)-1-methylpiperidin-1-ium-1-yl]propanoylamino]-9,10-dioxoanthracen-2-yl]propanamide

> <PUBCHEM_IUPAC_SYSTEMATIC_NAME>
3-[2-(hydroxymethyl)-1-methyl-piperidin-1-ium-1-yl]-N-[6-[3-[2-(hydroxymethyl)-1-methyl-piperidin-1-ium-1-yl]propanoylamino]-9,10-bis(oxidanylidene)anthracen-2-yl]propanamide

> <PUBCHEM_IUPAC_TRADITIONAL_NAME>
N-[9,10-diketo-6-[3-(1-methyl-2-methylol-piperidin-1-ium-1-yl)propanoylamino]-2-anthryl]-3-(1-methyl-2-methylol-piperidin-1-ium-1-yl)propionamide

> <PUBCHEM_IUPAC_INCHI>
InChI=1S/C34H44N4O6/c1-37(15-5-3-7-25(37)21-39)17-13-31(41)35-23-9-11-27-29(19-23)33(43)28-12-10-24(20-30(28)34(27)44)36-32(42)14-18-38(2)16-6-4-8-26(38)22-40/h9-12,19-20,25-26,39-40H,3-8,13-18,21-22H2,1-2H3/p+2

> <PUBCHEM_IUPAC_INCHIKEY>
UJPCRPPFJQKEOW-UHFFFAOYSA-P

> <PUBCHEM_XLOGP3_AA>
1.7

> <PUBCHEM_EXACT_MASS>
606.341735

> <PUBCHEM_MOLECULAR_FORMULA>
C34H46N4O6+2

> <PUBCHEM_MOLECULAR_WEIGHT>
606.75224

> <PUBCHEM_OPENEYE_CAN_SMILES>
C[N+]1(CCCCC1CO)CCC(=O)NC2=CC3=C(C=C2)C(=O)C4=C(C3=O)C=CC(=C4)NC(=O)CC[N+]5(CCCCC5CO)C

> <PUBCHEM_OPENEYE_ISO_SMILES>
C[N+]1(CCCCC1CO)CCC(=O)NC2=CC3=C(C=C2)C(=O)C4=C(C3=O)C=CC(=C4)NC(=O)CC[N+]5(CCCCC5CO)C

> <PUBCHEM_CACTVS_TPSA>
133

> <PUBCHEM_MONOISOTOPIC_WEIGHT>
606.341735

> <PUBCHEM_TOTAL_CHARGE>
2

> <PUBCHEM_HEAVY_ATOM_COUNT>
44

> <PUBCHEM_ATOM_DEF_STEREO_COUNT>
0

> <PUBCHEM_ATOM_UDEF_STEREO_COUNT>
4

> <PUBCHEM_BOND_DEF_STEREO_COUNT>
0

> <PUBCHEM_BOND_UDEF_STEREO_COUNT>
0

> <PUBCHEM_ISOTOPIC_ATOM_COUNT>
0

> <PUBCHEM_COMPONENT_COUNT>
1

> <PUBCHEM_CACTVS_TAUTO_COUNT>
66

> <PUBCHEM_COORDINATE_TYPE>
1
5
255

> <PUBCHEM_BONDANNOTATIONS>
11  46  3
12  45  3
31  33  8
31  35  8
32  34  8
32  36  8
33  38  8
34  37  8
35  41  8
36  42  8
37  40  8
38  39  8
39  41  8
40  42  8
7  23  3
8  24  3

$$$$

