126747
  -OEChem-07051213012D

 28 28  0     1  0  0  0  0  0999 V2000
    4.7119   -0.8044    0.0000 P   0  0  3  0  0  0  0  0  0  0  0  0
    5.4190    0.9027    0.0000 P   0  0  3  0  0  0  0  0  0  0  0  0
    3.7119   -0.8044    0.0000 O   0  0  0  0  0  0  0  0  0  0  0  0
    4.7119    1.6098    0.0000 O   0  0  0  0  0  0  0  0  0  0  0  0
    2.0809    1.2854    0.0000 O   0  0  0  0  0  0  0  0  0  0  0  0
    5.4190   -0.0973    0.0000 O   0  0  0  0  0  0  0  0  0  0  0  0
    2.5565   -1.7703    0.0000 O   0  0  0  0  0  0  0  0  0  0  0  0
    5.4190   -1.5115    0.0000 O   0  0  0  0  0  0  0  0  0  0  0  0
    4.7119   -1.8044    0.0000 O   0  0  0  0  0  0  0  0  0  0  0  0
    6.1261    1.6098    0.0000 O   0  0  0  0  0  0  0  0  0  0  0  0
    6.4190    0.9027    0.0000 O   0  0  0  0  0  0  0  0  0  0  0  0
    3.0048   -0.0973    0.0000 C   0  0  2  0  0  0  0  0  0  0  0  0
    3.0048    0.9027    0.0000 C   0  0  1  0  0  0  0  0  0  0  0  0
    2.2977   -0.8044    0.0000 C   0  0  0  0  0  0  0  0  0  0  0  0
    3.7119    1.6098    0.0000 C   0  0  0  0  0  0  0  0  0  0  0  0
    2.0048   -0.0973    0.0000 C   0  0  0  0  0  0  0  0  0  0  0  0
    2.8838    1.5108    0.0000 H   0  0  0  0  0  0  0  0  0  0  0  0
    1.9421   -0.2965    0.0000 H   0  0  0  0  0  0  0  0  0  0  0  0
    1.7358   -1.0664    0.0000 H   0  0  0  0  0  0  0  0  0  0  0  0
    3.8724    2.2087    0.0000 H   0  0  0  0  0  0  0  0  0  0  0  0
    3.1750    1.9198    0.0000 H   0  0  0  0  0  0  0  0  0  0  0  0
    2.0048    0.5227    0.0000 H   0  0  0  0  0  0  0  0  0  0  0  0
    1.3848   -0.0973    0.0000 H   0  0  0  0  0  0  0  0  0  0  0  0
    2.0048   -0.7173    0.0000 H   0  0  0  0  0  0  0  0  0  0  0  0
    2.0000    1.9001    0.0000 H   0  0  0  0  0  0  0  0  0  0  0  0
    2.1181   -2.2087    0.0000 H   0  0  0  0  0  0  0  0  0  0  0  0
    6.0179   -1.3510    0.0000 H   0  0  0  0  0  0  0  0  0  0  0  0
    5.9657    2.2087    0.0000 H   0  0  0  0  0  0  0  0  0  0  0  0
  1  3  1  0  0  0  0
  1  6  1  0  0  0  0
  1  8  1  0  0  0  0
  1  9  2  0  0  0  0
  2  4  1  0  0  0  0
  2  6  1  0  0  0  0
  2 10  1  0  0  0  0
  2 11  2  0  0  0  0
  3 12  1  0  0  0  0
  4 15  1  0  0  0  0
 13  5  1  6  0  0  0
  5 25  1  0  0  0  0
  7 14  1  0  0  0  0
  7 26  1  0  0  0  0
  8 27  1  0  0  0  0
 10 28  1  0  0  0  0
 12 13  1  0  0  0  0
 12 14  1  0  0  0  0
 12 16  1  6  0  0  0
 13 15  1  0  0  0  0
 13 17  1  0  0  0  0
 14 18  1  0  0  0  0
 14 19  1  0  0  0  0
 15 20  1  0  0  0  0
 15 21  1  0  0  0  0
 16 22  1  0  0  0  0
 16 23  1  0  0  0  0
 16 24  1  0  0  0  0
M  END
> <PUBCHEM_COMPOUND_CID>
126747

> <PUBCHEM_COMPOUND_CANONICALIZED>
1

> <PUBCHEM_CACTVS_COMPLEXITY>
356

> <PUBCHEM_CACTVS_HBOND_ACCEPTOR>
9

> <PUBCHEM_CACTVS_HBOND_DONOR>
4

> <PUBCHEM_CACTVS_ROTATABLE_BOND>
1

> <PUBCHEM_CACTVS_SUBSKEYS>
AAADccBgPAMAAAAAAAAAAAAAAAAAAAAAAAAAAAAAAAASAAAAAAAAGgAACCAADFSggAICAAAAAxAAQAAAAIAAAAAAAAAAAAAAAAABEAAAAAAAQAAFAAABAABAAAAIAAAAAAAAAAAAAAAAAAAAAAAAAAAAAA==

> <PUBCHEM_IUPAC_OPENEYE_NAME>
(6S,7R)-2,4-dihydroxy-6-(hydroxymethyl)-6-methyl-2,4-dioxo-1,3,5,2$l^{5},4$l^{5}-trioxadiphosphocan-7-ol

> <PUBCHEM_IUPAC_CAS_NAME>
(6S,7R)-2,4-dihydroxy-6-(hydroxymethyl)-6-methyl-2,4-dioxo-1,3,5,2$l^{5},4$l^{5}-trioxadiphosphocan-7-ol

> <PUBCHEM_IUPAC_NAME>
(6S,7R)-2,4-dihydroxy-6-(hydroxymethyl)-6-methyl-2,4-dioxo-1,3,5,2$l^{5},4$l^{5}-trioxadiphosphocan-7-ol

> <PUBCHEM_IUPAC_SYSTEMATIC_NAME>
(6S,7R)-6-(hydroxymethyl)-6-methyl-2,4-bis(oxidanyl)-2,4-bis(oxidanylidene)-1,3,5,2$l^{5},4$l^{5}-trioxadiphosphocan-7-ol

> <PUBCHEM_IUPAC_TRADITIONAL_NAME>
(6S,7R)-2,4-dihydroxy-2,4-diketo-6-methyl-6-methylol-1,3,5,2$l^{5},4$l^{5}-trioxadiphosphocan-7-ol

> <PUBCHEM_IUPAC_INCHI>
InChI=1S/C5H12O9P2/c1-5(3-6)4(7)2-12-15(8,9)14-16(10,11)13-5/h4,6-7H,2-3H2,1H3,(H,8,9)(H,10,11)/t4-,5+/m1/s1

> <PUBCHEM_IUPAC_INCHIKEY>
SFRQRNJMIIUYDI-UHNVWZDZSA-N

> <PUBCHEM_XLOGP3_AA>
-2.8

> <PUBCHEM_EXACT_MASS>
277.995655

> <PUBCHEM_MOLECULAR_FORMULA>
C5H12O9P2

> <PUBCHEM_MOLECULAR_WEIGHT>
278.090904

> <PUBCHEM_OPENEYE_CAN_SMILES>
CC1(C(COP(=O)(OP(=O)(O1)O)O)O)CO

> <PUBCHEM_OPENEYE_ISO_SMILES>
C[C@@]1([C@@H](COP(=O)(OP(=O)(O1)O)O)O)CO

> <PUBCHEM_CACTVS_TPSA>
143

> <PUBCHEM_MONOISOTOPIC_WEIGHT>
277.995655

> <PUBCHEM_TOTAL_CHARGE>
0

> <PUBCHEM_HEAVY_ATOM_COUNT>
16

> <PUBCHEM_ATOM_DEF_STEREO_COUNT>
2

> <PUBCHEM_ATOM_UDEF_STEREO_COUNT>
0

> <PUBCHEM_BOND_DEF_STEREO_COUNT>
0

> <PUBCHEM_BOND_UDEF_STEREO_COUNT>
0

> <PUBCHEM_ISOTOPIC_ATOM_COUNT>
0

> <PUBCHEM_COMPONENT_COUNT>
1

> <PUBCHEM_CACTVS_TAUTO_COUNT>
1

> <PUBCHEM_COORDINATE_TYPE>
1
5
255

> <PUBCHEM_BONDANNOTATIONS>
12  16  6
13  5  6

$$$$

