12885
  -OEChem-06261207302D

 25 27  0     0  0  0  0  0  0999 V2000
    7.6271    1.7298    0.0000 Br  0  0  0  0  0  0  0  0  0  0  0  0
    8.3764   -1.7298    0.0000 Br  0  0  0  0  0  0  0  0  0  0  0  0
    2.0000    0.2182    0.0000 Br  0  0  0  0  0  0  0  0  0  0  0  0
    9.0094    0.2182    0.0000 N   0  0  0  0  0  0  0  0  0  0  0  0
    5.5047    1.1308    0.0000 C   0  0  0  0  0  0  0  0  0  0  0  0
    6.3137    0.5430    0.0000 C   0  0  0  0  0  0  0  0  0  0  0  0
    6.0047   -0.4081    0.0000 C   0  0  0  0  0  0  0  0  0  0  0  0
    4.6957    0.5430    0.0000 C   0  0  0  0  0  0  0  0  0  0  0  0
    5.0047   -0.4081    0.0000 C   0  0  0  0  0  0  0  0  0  0  0  0
    7.3291    0.7752    0.0000 C   0  0  0  0  0  0  0  0  0  0  0  0
    6.6897   -1.1928    0.0000 C   0  0  0  0  0  0  0  0  0  0  0  0
    3.6803    0.7752    0.0000 C   0  0  0  0  0  0  0  0  0  0  0  0
    4.3197   -1.1928    0.0000 C   0  0  0  0  0  0  0  0  0  0  0  0
    8.0321    0.0066    0.0000 C   0  0  0  0  0  0  0  0  0  0  0  0
    7.7102   -0.9841    0.0000 C   0  0  0  0  0  0  0  0  0  0  0  0
    2.9773    0.0066    0.0000 C   0  0  0  0  0  0  0  0  0  0  0  0
    3.2992   -0.9841    0.0000 C   0  0  0  0  0  0  0  0  0  0  0  0
    5.9196    1.5915    0.0000 H   0  0  0  0  0  0  0  0  0  0  0  0
    5.0898    1.5915    0.0000 H   0  0  0  0  0  0  0  0  0  0  0  0
    6.4913   -1.7802    0.0000 H   0  0  0  0  0  0  0  0  0  0  0  0
    3.4955    1.3671    0.0000 H   0  0  0  0  0  0  0  0  0  0  0  0
    4.5181   -1.7802    0.0000 H   0  0  0  0  0  0  0  0  0  0  0  0
    2.8861   -1.4464    0.0000 H   0  0  0  0  0  0  0  0  0  0  0  0
    9.4260   -0.2409    0.0000 H   0  0  0  0  0  0  0  0  0  0  0  0
    9.1987    0.8086    0.0000 H   0  0  0  0  0  0  0  0  0  0  0  0
  1 10  1  0  0  0  0
  2 15  1  0  0  0  0
  3 16  1  0  0  0  0
  4 14  1  0  0  0  0
  4 24  1  0  0  0  0
  4 25  1  0  0  0  0
  5  6  1  0  0  0  0
  5  8  1  0  0  0  0
  5 18  1  0  0  0  0
  5 19  1  0  0  0  0
  6  7  1  0  0  0  0
  6 10  2  0  0  0  0
  7  9  1  0  0  0  0
  7 11  2  0  0  0  0
  8  9  2  0  0  0  0
  8 12  1  0  0  0  0
  9 13  1  0  0  0  0
 10 14  1  0  0  0  0
 11 15  1  0  0  0  0
 11 20  1  0  0  0  0
 12 16  2  0  0  0  0
 12 21  1  0  0  0  0
 13 17  2  0  0  0  0
 13 22  1  0  0  0  0
 14 15  2  0  0  0  0
 16 17  1  0  0  0  0
 17 23  1  0  0  0  0
M  END
> <PUBCHEM_COMPOUND_CID>
12885

> <PUBCHEM_COMPOUND_CANONICALIZED>
1

> <PUBCHEM_CACTVS_COMPLEXITY>
298

> <PUBCHEM_CACTVS_HBOND_ACCEPTOR>
1

> <PUBCHEM_CACTVS_HBOND_DONOR>
1

> <PUBCHEM_CACTVS_ROTATABLE_BOND>
0

> <PUBCHEM_CACTVS_SUBSKEYS>
AAADccByAAAAGAAAAAAAAAAAAAAAAYAAAAAwYAAAAAAAAGABQAAAHABQAAABrAiBGAAwwIBAAACAAiRCQACCAAAgAAQIiAAARKgIICKAkZGAIABggAAIyhcQgMAOigAAUAAwgAgUAACgAGEAEQAACAAAAA==

> <PUBCHEM_IUPAC_OPENEYE_NAME>
1,3,7-tribromo-9H-fluoren-2-amine

> <PUBCHEM_IUPAC_CAS_NAME>
1,3,7-tribromo-9H-fluoren-2-amine

> <PUBCHEM_IUPAC_NAME>
1,3,7-tribromo-9H-fluoren-2-amine

> <PUBCHEM_IUPAC_SYSTEMATIC_NAME>
1,3,7-tris(bromanyl)-9H-fluoren-2-amine

> <PUBCHEM_IUPAC_TRADITIONAL_NAME>
(1,3,7-tribromo-9H-fluoren-2-yl)amine

> <PUBCHEM_IUPAC_INCHI>
InChI=1S/C13H8Br3N/c14-7-1-2-8-6(3-7)4-10-9(8)5-11(15)13(17)12(10)16/h1-3,5H,4,17H2

> <PUBCHEM_IUPAC_INCHIKEY>
DESWTTXWHWPCJD-UHFFFAOYSA-N

> <PUBCHEM_XLOGP3_AA>
4.9

> <PUBCHEM_EXACT_MASS>
416.818639

> <PUBCHEM_MOLECULAR_FORMULA>
C13H8Br3N

> <PUBCHEM_MOLECULAR_WEIGHT>
417.92132

> <PUBCHEM_OPENEYE_CAN_SMILES>
C1C2=C(C=CC(=C2)Br)C3=CC(=C(C(=C31)Br)N)Br

> <PUBCHEM_OPENEYE_ISO_SMILES>
C1C2=C(C=CC(=C2)Br)C3=CC(=C(C(=C31)Br)N)Br

> <PUBCHEM_CACTVS_TPSA>
26

> <PUBCHEM_MONOISOTOPIC_WEIGHT>
414.820686

> <PUBCHEM_TOTAL_CHARGE>
0

> <PUBCHEM_HEAVY_ATOM_COUNT>
17

> <PUBCHEM_ATOM_DEF_STEREO_COUNT>
0

> <PUBCHEM_ATOM_UDEF_STEREO_COUNT>
0

> <PUBCHEM_BOND_DEF_STEREO_COUNT>
0

> <PUBCHEM_BOND_UDEF_STEREO_COUNT>
0

> <PUBCHEM_ISOTOPIC_ATOM_COUNT>
0

> <PUBCHEM_COMPONENT_COUNT>
1

> <PUBCHEM_CACTVS_TAUTO_COUNT>
1

> <PUBCHEM_COORDINATE_TYPE>
1
5
255

> <PUBCHEM_BONDANNOTATIONS>
10  14  8
11  15  8
12  16  8
13  17  8
14  15  8
16  17  8
6  10  8
6  7  8
7  11  8
8  12  8
8  9  8
9  13  8

$$$$

