   Color/Form
        PALE-YELLOW CRYSTALS
   from [1]HSDB

   Melting Point
        66-67 DEG C
   from [2]HSDB

   Solubilities
        SOL IN POLAR ORGANIC SOLVENTS; MISCIBLE WITH WATER IN ALL PROP
   from [3]HSDB

   Spectral Properties
        MAX ABSORPTION: 234 NM (E= 499, 1%, 1 CM); 337 NM (E= 6.5, 1%, 1
   CM)
   from [4]HSDB

   Other Chemical/Physical Properties

     * The free acid is unstable in aqueous solution.
     * Light sensitive, especially to ultra-violet light.
     * Partially decarboxylates on heating at 180 to 190 deg C to form
       N-nitrosodimethylamine; oxidized by strong oxidants (peracids) to
       the corresponding nitramine.

   from [5]HSDB

   Computed Properties
   Molecular Weight                  118.09134 [g/mol]
   Molecular Formula                 C[3]H[6]N[2]O[3]
   XLogP3-AA                         -0.2
   H-Bond Donor                      1
   H-Bond Acceptor                   5
   Rotatable Bond Count              2
   Exact Mass                        118.037842
   MonoIsotopic Mass                 118.037842
   Topological Polar Surface Area    70
   Heavy Atom Count                  8
   Formal Charge                     0
   Complexity                        103
   Isotope Atom Count                0
   Defined Atom Stereocenter Count   0
   Undefined Atom Stereocenter Count 0
   Defined Bond Stereocenter Count   0
   Undefined Bond Stereocenter Count 0
   Covalently-Bonded Unit Count      1
   Feature 3D Acceptor Count         2
   Feature 3D Anion Count            1
   Effective Rotor Count             3
   Conformer Sampling RMSD           0.6
   CID Conformer Count               [6]19

References

   1. http://toxnet.nlm.nih.gov/cgi-bin/sis/search/r?dbs+hsdb:@term+@rn+@rel+13256-22-9
   2. http://toxnet.nlm.nih.gov/cgi-bin/sis/search/r?dbs+hsdb:@term+@rn+@rel+13256-22-9
   3. http://toxnet.nlm.nih.gov/cgi-bin/sis/search/r?dbs+hsdb:@term+@rn+@rel+13256-22-9
   4. http://toxnet.nlm.nih.gov/cgi-bin/sis/search/r?dbs+hsdb:@term+@rn+@rel+13256-22-9
   5. http://toxnet.nlm.nih.gov/cgi-bin/sis/search/r?dbs+hsdb:@term+@rn+@rel+13256-22-9
   6. http://pubchem.ncbi.nlm.nih.gov/vw3d/vw3d.cgi?cid=25811
