   Melting Point
        160-161.5 DEG C
   from [1]HSDB

   Octanol/Water Partition Coefficient
        log Kow= 5.40
   from [2]HSDB

   Solubilities
        0.350 PPM IN WATER
   from [3]HSDB

   Spectral Properties
        Intense mass spectral peaks: 81 m/z (100%), 353 m/z (94%), 355 m/z
   (72%), 351 m/z (48%)
   from [4]HSDB

   Other Chemical/Physical Properties
        Henry's Law constant for heptachlor epoxide is 3.2x10-5 atm-cu
   m/mole
   from [5]HSDB

   Computed Properties
   Molecular Weight                  389.3171 [g/mol]
   Molecular Formula                 C[10]H[5]Cl[7]O
   XLogP3-AA                         3.7
   H-Bond Donor                      0
   H-Bond Acceptor                   1
   Rotatable Bond Count              0
   Exact Mass                        387.813058
   MonoIsotopic Mass                 385.816009
   Topological Polar Surface Area    12.5
   Heavy Atom Count                  18
   Formal Charge                     0
   Complexity                        505
   Isotope Atom Count                0
   Defined Atom Stereocenter Count   0
   Undefined Atom Stereocenter Count 7
   Defined Bond Stereocenter Count   0
   Undefined Bond Stereocenter Count 0
   Covalently-Bonded Unit Count      1

References

   1. http://toxnet.nlm.nih.gov/cgi-bin/sis/search/r?dbs+hsdb:@term+@rn+@rel+1024-57-3
   2. http://toxnet.nlm.nih.gov/cgi-bin/sis/search/r?dbs+hsdb:@term+@rn+@rel+1024-57-3
   3. http://toxnet.nlm.nih.gov/cgi-bin/sis/search/r?dbs+hsdb:@term+@rn+@rel+1024-57-3
   4. http://toxnet.nlm.nih.gov/cgi-bin/sis/search/r?dbs+hsdb:@term+@rn+@rel+1024-57-3
   5. http://toxnet.nlm.nih.gov/cgi-bin/sis/search/r?dbs+hsdb:@term+@rn+@rel+1024-57-3
