   Color/Form

     * White solid
     * Crystals
     * Crystalline solid
     * Yellow crystalline solid
     * Free-flowing solid, dark brown color

   from [1]HSDB

   Boiling Point
        180-190 DEG C @ 0.25 MM HG
   from [2]HSDB

   Melting Point
        70-71 DEG C
   from [3]HSDB

   Density/Specific Gravity
        1.33 @ 90 DEG C
   from [4]HSDB

   Octanol/Water Partition Coefficient
        log Kow= 5.534 (est)
   from [5]HSDB

   Solubilities

     * IN WATER: 0.7-1.2 PPM @ 22 DEG C
     * SOL IN ACETONE, METHANOL, & XYLENE, 25% @ ROOM TEMP
     * Sol in ethanol 40, n-hexane 280, benzene 2000 (all in g/kg @ 20 deg
       C)

   from [6]HSDB

   Spectral Properties
        Intense mass spectral peaks: 283 m/z (100%), 285 m/z (75%), 202
   m/z (65%), 139 m/z (41%)
   from [7]HSDB

   Vapor Pressure
        1.06 mPa @ 40 deg C
   from [8]HSDB

   Other Chemical/Physical Properties

     * Decomposes before melting.
     * Nitrofen mixes well with the ususal commercial herbicides.
     * Henry's Law Constant= 6.74X10-5 atm-cu m/mole

   from [9]HSDB

   Computed Properties
   Molecular Weight                  284.09488 [g/mol]
   Molecular Formula                 C[12]H[7]Cl[2]NO[3]
   XLogP3                            4.3
   H-Bond Donor                      0
   H-Bond Acceptor                   3
   Rotatable Bond Count              2
   Exact Mass                        282.980298
   MonoIsotopic Mass                 282.980298
   Topological Polar Surface Area    55
   Heavy Atom Count                  18
   Formal Charge                     0
   Complexity                        290
   Isotope Atom Count                0
   Defined Atom Stereocenter Count   0
   Undefined Atom Stereocenter Count 0
   Defined Bond Stereocenter Count   0
   Undefined Bond Stereocenter Count 0
   Covalently-Bonded Unit Count      1
   Feature 3D Acceptor Count         3
   Feature 3D Anion Count            1
   Feature 3D Ring Count             2
   Effective Rotor Count             3
   Conformer Sampling RMSD           0.6
   CID Conformer Count               [10]7

References

   1. http://toxnet.nlm.nih.gov/cgi-bin/sis/search/r?dbs+hsdb:@term+@rn+@rel+1836-75-5
   2. http://toxnet.nlm.nih.gov/cgi-bin/sis/search/r?dbs+hsdb:@term+@rn+@rel+1836-75-5
   3. http://toxnet.nlm.nih.gov/cgi-bin/sis/search/r?dbs+hsdb:@term+@rn+@rel+1836-75-5
   4. http://toxnet.nlm.nih.gov/cgi-bin/sis/search/r?dbs+hsdb:@term+@rn+@rel+1836-75-5
   5. http://toxnet.nlm.nih.gov/cgi-bin/sis/search/r?dbs+hsdb:@term+@rn+@rel+1836-75-5
   6. http://toxnet.nlm.nih.gov/cgi-bin/sis/search/r?dbs+hsdb:@term+@rn+@rel+1836-75-5
   7. http://toxnet.nlm.nih.gov/cgi-bin/sis/search/r?dbs+hsdb:@term+@rn+@rel+1836-75-5
   8. http://toxnet.nlm.nih.gov/cgi-bin/sis/search/r?dbs+hsdb:@term+@rn+@rel+1836-75-5
   9. http://toxnet.nlm.nih.gov/cgi-bin/sis/search/r?dbs+hsdb:@term+@rn+@rel+1836-75-5
  10. http://pubchem.ncbi.nlm.nih.gov/vw3d/vw3d.cgi?cid=15787
