   Color/Form
        Off-white powder
   from [1]HSDB

   Odor
        Slight mint
   from [2]HSDB

   Melting Point
        216-218 deg C
   from [3]HSDB

   Corrosivity
        Does not react with mild steel or stainless steel at 50 deg C
   from [4]HSDB

   Density/Specific Gravity
        1.538 @ 20 deg C
   from [5]HSDB

   Dissociation Constants
        pKa = 4.81 @ 20 deg C
   from [6]HSDB

   Octanol/Water Partition Coefficient
        log Kow= 1.12 @ pH 5; -0.365 @ pH 7; -1.24 @ pH 8.5; 0.268
   (distilled water, pH not specified)
   from [7]HSDB

   pH
        pH = 3.0 (9.8% dispersed in water)
   from [8]HSDB

   Solubilities

     * In organic solvents: methanol = 0.047 g/100 ml, acetone = 0.436
       g/100 ml, toluene = 14 ppm, hexane = <10 ppm, ethyl acetate = 0.098
       g/100 ml, dichloromethane = 0.698 g/100 ml, acetonitrile = 0.55
       g/100 ml, octanol = <10 ppm
     * In water (25 deg C) = 16 mg/l (distilled), 3 mg/l (pH 5), 184 mg/l
       (pH 7), 3430 mg/l (pH 9)

   from [9]HSDB

   Vapor Pressure
        3.0X10-16 mm Hg @ 25 deg C
   from [10]HSDB

   Computed Properties
   Molecular Weight                  429.810623 [g/mol]
   Molecular Formula                 C[15]H[13]ClFN[5]O[5]S
   XLogP3-AA                         3.1
   H-Bond Donor                      1
   H-Bond Acceptor                   10
   Rotatable Bond Count              7
   Tautomer Count                    3
   Exact Mass                        429.030995
   MonoIsotopic Mass                 429.030995
   Topological Polar Surface Area    133
   Heavy Atom Count                  28
   Formal Charge                     0
   Complexity                        668
   Isotope Atom Count                0
   Defined Atom Stereocenter Count   0
   Undefined Atom Stereocenter Count 0
   Defined Bond Stereocenter Count   0
   Undefined Bond Stereocenter Count 0
   Covalently-Bonded Unit Count      1
   Feature 3D Acceptor Count         3
   Feature 3D Donor Count            1
   Feature 3D Cation Count           3
   Feature 3D Ring Count             3
   Effective Rotor Count             7
   Conformer Sampling RMSD           0.8
   CID Conformer Count               [11]218

References

   1. http://toxnet.nlm.nih.gov/cgi-bin/sis/search/r?dbs+hsdb:@term+@rn+@rel+147150-35-4
   2. http://toxnet.nlm.nih.gov/cgi-bin/sis/search/r?dbs+hsdb:@term+@rn+@rel+147150-35-4
   3. http://toxnet.nlm.nih.gov/cgi-bin/sis/search/r?dbs+hsdb:@term+@rn+@rel+147150-35-4
   4. http://toxnet.nlm.nih.gov/cgi-bin/sis/search/r?dbs+hsdb:@term+@rn+@rel+147150-35-4
   5. http://toxnet.nlm.nih.gov/cgi-bin/sis/search/r?dbs+hsdb:@term+@rn+@rel+147150-35-4
   6. http://toxnet.nlm.nih.gov/cgi-bin/sis/search/r?dbs+hsdb:@term+@rn+@rel+147150-35-4
   7. http://toxnet.nlm.nih.gov/cgi-bin/sis/search/r?dbs+hsdb:@term+@rn+@rel+147150-35-4
   8. http://toxnet.nlm.nih.gov/cgi-bin/sis/search/r?dbs+hsdb:@term+@rn+@rel+147150-35-4
   9. http://toxnet.nlm.nih.gov/cgi-bin/sis/search/r?dbs+hsdb:@term+@rn+@rel+147150-35-4
  10. http://toxnet.nlm.nih.gov/cgi-bin/sis/search/r?dbs+hsdb:@term+@rn+@rel+147150-35-4
  11. http://pubchem.ncbi.nlm.nih.gov/vw3d/vw3d.cgi?cid=86453
