5284270
  -OEChem-07051212502D

 75 78  0     1  0  0  0  0  0999 V2000
    7.4149   -3.3623    0.0000 O   0  0  0  0  0  0  0  0  0  0  0  0
    2.0000   -3.3831    0.0000 O   0  0  0  0  0  0  0  0  0  0  0  0
    7.3931   -0.3308    0.0000 C   0  0  1  0  0  0  0  0  0  0  0  0
    7.3931   -1.3308    0.0000 C   0  0  2  0  0  0  0  0  0  0  0  0
    6.5271   -1.8308    0.0000 C   0  0  1  0  0  0  0  0  0  0  0  0
    5.6610   -1.3308    0.0000 C   0  0  1  0  0  0  0  0  0  0  0  0
    4.7510   -1.8376    0.0000 C   0  0  2  0  0  0  0  0  0  0  0  0
    8.3393   -0.0261    0.0000 C   0  0  2  0  0  0  0  0  0  0  0  0
    6.5271    0.1692    0.0000 C   0  0  0  0  0  0  0  0  0  0  0  0
    5.6610   -0.3308    0.0000 C   0  0  0  0  0  0  0  0  0  0  0  0
    8.3393   -1.6355    0.0000 C   0  0  0  0  0  0  0  0  0  0  0  0
    4.7430   -2.8792    0.0000 C   0  0  2  0  0  0  0  0  0  0  0  0
    6.5431   -2.8723    0.0000 C   0  0  1  0  0  0  0  0  0  0  0  0
    8.9229   -0.8308    0.0000 C   0  0  0  0  0  0  0  0  0  0  0  0
    5.6451   -3.4001    0.0000 C   0  0  0  0  0  0  0  0  0  0  0  0
    3.8242   -1.2736    0.0000 C   0  0  0  0  0  0  0  0  0  0  0  0
    7.3931    0.6692    0.0000 C   0  0  0  0  0  0  0  0  0  0  0  0
    8.6500    0.9244    0.0000 C   0  0  1  0  0  0  0  0  0  0  0  0
    4.7587   -0.8377    0.0000 C   0  0  0  0  0  0  0  0  0  0  0  0
    3.8076   -3.4290    0.0000 C   0  0  0  0  0  0  0  0  0  0  0  0
    2.8763   -1.8015    0.0000 C   0  0  0  0  0  0  0  0  0  0  0  0
    2.8680   -2.8865    0.0000 C   0  0  0  0  0  0  0  0  0  0  0  0
    9.6285    1.1307    0.0000 C   0  0  0  0  0  0  0  0  0  0  0  0
    7.9821    1.6688    0.0000 C   0  0  0  0  0  0  0  0  0  0  0  0
    9.9391    2.0812    0.0000 C   0  0  0  0  0  0  0  0  0  0  0  0
   10.9176    2.2874    0.0000 C   0  0  0  0  0  0  0  0  0  0  0  0
   11.2283    3.2379    0.0000 C   0  0  0  0  0  0  0  0  0  0  0  0
   12.2068    3.4441    0.0000 C   0  0  0  0  0  0  0  0  0  0  0  0
   10.5605    3.9822    0.0000 C   0  0  0  0  0  0  0  0  0  0  0  0
    7.4830   -2.1760    0.0000 H   0  0  0  0  0  0  0  0  0  0  0  0
    7.2664   -2.2501    0.0000 H   0  0  0  0  0  0  0  0  0  0  0  0
    6.3972   -0.9058    0.0000 H   0  0  0  0  0  0  0  0  0  0  0  0
    9.1790    0.1058    0.0000 H   0  0  0  0  0  0  0  0  0  0  0  0
    6.9256    0.6441    0.0000 H   0  0  0  0  0  0  0  0  0  0  0  0
    6.1285    0.6441    0.0000 H   0  0  0  0  0  0  0  0  0  0  0  0
    5.4490    0.2518    0.0000 H   0  0  0  0  0  0  0  0  0  0  0  0
    5.0504   -0.4385    0.0000 H   0  0  0  0  0  0  0  0  0  0  0  0
    8.0883   -2.2024    0.0000 H   0  0  0  0  0  0  0  0  0  0  0  0
    8.8767   -1.9448    0.0000 H   0  0  0  0  0  0  0  0  0  0  0  0
    4.7463   -3.7292    0.0000 H   0  0  0  0  0  0  0  0  0  0  0  0
    6.5491   -3.4923    0.0000 H   0  0  0  0  0  0  0  0  0  0  0  0
    9.3838   -1.2455    0.0000 H   0  0  0  0  0  0  0  0  0  0  0  0
    9.3838   -0.4161    0.0000 H   0  0  0  0  0  0  0  0  0  0  0  0
    5.2478   -3.8760    0.0000 H   0  0  0  0  0  0  0  0  0  0  0  0
    6.0460   -3.8730    0.0000 H   0  0  0  0  0  0  0  0  0  0  0  0
    4.2324   -0.8069    0.0000 H   0  0  0  0  0  0  0  0  0  0  0  0
    3.4343   -0.7915    0.0000 H   0  0  0  0  0  0  0  0  0  0  0  0
    8.0131    0.6692    0.0000 H   0  0  0  0  0  0  0  0  0  0  0  0
    7.3931    1.2892    0.0000 H   0  0  0  0  0  0  0  0  0  0  0  0
    6.7731    0.6692    0.0000 H   0  0  0  0  0  0  0  0  0  0  0  0
    8.0433    0.7966    0.0000 H   0  0  0  0  0  0  0  0  0  0  0  0
    5.3787   -0.8425    0.0000 H   0  0  0  0  0  0  0  0  0  0  0  0
    4.7635   -0.2177    0.0000 H   0  0  0  0  0  0  0  0  0  0  0  0
    4.1388   -0.8329    0.0000 H   0  0  0  0  0  0  0  0  0  0  0  0
    3.4103   -3.9050    0.0000 H   0  0  0  0  0  0  0  0  0  0  0  0
    4.2085   -3.9019    0.0000 H   0  0  0  0  0  0  0  0  0  0  0  0
    2.6718   -1.2162    0.0000 H   0  0  0  0  0  0  0  0  0  0  0  0
    2.2647   -1.9029    0.0000 H   0  0  0  0  0  0  0  0  0  0  0  0
    9.6490    0.5110    0.0000 H   0  0  0  0  0  0  0  0  0  0  0  0
   10.2423    1.0433    0.0000 H   0  0  0  0  0  0  0  0  0  0  0  0
    7.4220   -3.9822    0.0000 H   0  0  0  0  0  0  0  0  0  0  0  0
    8.4436    2.0828    0.0000 H   0  0  0  0  0  0  0  0  0  0  0  0
    7.5681    2.1302    0.0000 H   0  0  0  0  0  0  0  0  0  0  0  0
    7.5207    1.2547    0.0000 H   0  0  0  0  0  0  0  0  0  0  0  0
    9.9186    2.7008    0.0000 H   0  0  0  0  0  0  0  0  0  0  0  0
    9.3253    2.1685    0.0000 H   0  0  0  0  0  0  0  0  0  0  0  0
   10.9382    1.6677    0.0000 H   0  0  0  0  0  0  0  0  0  0  0  0
   11.5315    2.2000    0.0000 H   0  0  0  0  0  0  0  0  0  0  0  0
   11.4209    3.8272    0.0000 H   0  0  0  0  0  0  0  0  0  0  0  0
   12.3347    2.8375    0.0000 H   0  0  0  0  0  0  0  0  0  0  0  0
   12.8135    3.5720    0.0000 H   0  0  0  0  0  0  0  0  0  0  0  0
   11.0219    4.3963    0.0000 H   0  0  0  0  0  0  0  0  0  0  0  0
   12.0790    4.0508    0.0000 H   0  0  0  0  0  0  0  0  0  0  0  0
   10.1464    4.4437    0.0000 H   0  0  0  0  0  0  0  0  0  0  0  0
   10.0990    3.5682    0.0000 H   0  0  0  0  0  0  0  0  0  0  0  0
 13  1  1  6  0  0  0
  1 61  1  0  0  0  0
  2 22  2  0  0  0  0
  3  4  1  0  0  0  0
  3  8  1  0  0  0  0
  3  9  1  0  0  0  0
  3 17  1  1  0  0  0
  4  5  1  0  0  0  0
  4 11  1  0  0  0  0
  4 30  1  6  0  0  0
  5  6  1  0  0  0  0
  5 13  1  0  0  0  0
  5 31  1  1  0  0  0
  6  7  1  0  0  0  0
  6 10  1  0  0  0  0
  6 32  1  6  0  0  0
  7 12  1  0  0  0  0
  7 16  1  0  0  0  0
  7 19  1  1  0  0  0
  8 14  1  0  0  0  0
  8 18  1  0  0  0  0
  8 33  1  6  0  0  0
  9 10  1  0  0  0  0
  9 34  1  0  0  0  0
  9 35  1  0  0  0  0
 10 36  1  0  0  0  0
 10 37  1  0  0  0  0
 11 14  1  0  0  0  0
 11 38  1  0  0  0  0
 11 39  1  0  0  0  0
 12 15  1  0  0  0  0
 12 20  1  0  0  0  0
 12 40  1  1  0  0  0
 13 15  1  0  0  0  0
 13 41  1  0  0  0  0
 14 42  1  0  0  0  0
 14 43  1  0  0  0  0
 15 44  1  0  0  0  0
 15 45  1  0  0  0  0
 16 21  1  0  0  0  0
 16 46  1  0  0  0  0
 16 47  1  0  0  0  0
 17 48  1  0  0  0  0
 17 49  1  0  0  0  0
 17 50  1  0  0  0  0
 18 23  1  0  0  0  0
 18 24  1  6  0  0  0
 18 51  1  0  0  0  0
 19 52  1  0  0  0  0
 19 53  1  0  0  0  0
 19 54  1  0  0  0  0
 20 22  1  0  0  0  0
 20 55  1  0  0  0  0
 20 56  1  0  0  0  0
 21 22  1  0  0  0  0
 21 57  1  0  0  0  0
 21 58  1  0  0  0  0
 23 25  1  0  0  0  0
 23 59  1  0  0  0  0
 23 60  1  0  0  0  0
 24 62  1  0  0  0  0
 24 63  1  0  0  0  0
 24 64  1  0  0  0  0
 25 26  1  0  0  0  0
 25 65  1  0  0  0  0
 25 66  1  0  0  0  0
 26 27  1  0  0  0  0
 26 67  1  0  0  0  0
 26 68  1  0  0  0  0
 27 28  1  0  0  0  0
 27 29  1  0  0  0  0
 27 69  1  0  0  0  0
 28 70  1  0  0  0  0
 28 71  1  0  0  0  0
 28 73  1  0  0  0  0
 29 72  1  0  0  0  0
 29 74  1  0  0  0  0
 29 75  1  0  0  0  0
M  END
> <PUBCHEM_COMPOUND_CID>
5284270

> <PUBCHEM_COMPOUND_CANONICALIZED>
1

> <PUBCHEM_CACTVS_COMPLEXITY>
612

> <PUBCHEM_CACTVS_HBOND_ACCEPTOR>
2

> <PUBCHEM_CACTVS_HBOND_DONOR>
1

> <PUBCHEM_CACTVS_ROTATABLE_BOND>
5

> <PUBCHEM_CACTVS_SUBSKEYS>
AAADcfB4MAAAAAAAAAAAAAAAAAAAAYAAAAAwYMAAAAAAAGDAAAAAGgAACAAADxSggAICAAAAAgAIAIAQAAAAAAAAAAAAAAEAAAAAEBIAAAAAQAAEAAAAAAGIzPDPgAAAAAAAAADAAAYAADAAAQAACAAAAA==

> <PUBCHEM_IUPAC_OPENEYE_NAME>
(5R,7R,8R,9S,10S,13R,14S,17R)-17-[(1R)-1,5-dimethylhexyl]-7-hydroxy-10,13-dimethyl-1,2,4,5,6,7,8,9,11,12,14,15,16,17-tetradecahydrocyclopenta[a]phenanthren-3-one

> <PUBCHEM_IUPAC_CAS_NAME>
(5R,7R,8R,9S,10S,13R,14S,17R)-7-hydroxy-10,13-dimethyl-17-[(2R)-6-methylheptan-2-yl]-1,2,4,5,6,7,8,9,11,12,14,15,16,17-tetradecahydrocyclopenta[a]phenanthren-3-one

> <PUBCHEM_IUPAC_NAME>
(5R,7R,8R,9S,10S,13R,14S,17R)-7-hydroxy-10,13-dimethyl-17-[(2R)-6-methylheptan-2-yl]-1,2,4,5,6,7,8,9,11,12,14,15,16,17-tetradecahydrocyclopenta[a]phenanthren-3-one

> <PUBCHEM_IUPAC_SYSTEMATIC_NAME>
(5R,7R,8R,9S,10S,13R,14S,17R)-10,13-dimethyl-17-[(2R)-6-methylheptan-2-yl]-7-oxidanyl-1,2,4,5,6,7,8,9,11,12,14,15,16,17-tetradecahydrocyclopenta[a]phenanthren-3-one

> <PUBCHEM_IUPAC_TRADITIONAL_NAME>
(5R,7R,8R,9S,10S,13R,14S,17R)-17-[(1R)-1,5-dimethylhexyl]-7-hydroxy-10,13-dimethyl-1,2,4,5,6,7,8,9,11,12,14,15,16,17-tetradecahydrocyclopenta[a]phenanthren-3-one

> <PUBCHEM_IUPAC_INCHI>
InChI=1S/C27H46O2/c1-17(2)7-6-8-18(3)21-9-10-22-25-23(12-14-27(21,22)5)26(4)13-11-20(28)15-19(26)16-24(25)29/h17-19,21-25,29H,6-16H2,1-5H3/t18-,19+,21-,22+,23+,24-,25+,26+,27-/m1/s1

> <PUBCHEM_IUPAC_INCHIKEY>
HWOOALPDOJHOPO-YREUSXKVSA-N

> <PUBCHEM_XLOGP3_AA>
7.6

> <PUBCHEM_EXACT_MASS>
402.349781

> <PUBCHEM_MOLECULAR_FORMULA>
C27H46O2

> <PUBCHEM_MOLECULAR_WEIGHT>
402.65294

> <PUBCHEM_OPENEYE_CAN_SMILES>
CC(C)CCCC(C)C1CCC2C1(CCC3C2C(CC4C3(CCC(=O)C4)C)O)C

> <PUBCHEM_OPENEYE_ISO_SMILES>
C[C@H](CCCC(C)C)[C@H]1CC[C@@H]2[C@@]1(CC[C@H]3[C@H]2[C@@H](C[C@H]4[C@@]3(CCC(=O)C4)C)O)C

> <PUBCHEM_CACTVS_TPSA>
37.3

> <PUBCHEM_MONOISOTOPIC_WEIGHT>
402.349781

> <PUBCHEM_TOTAL_CHARGE>
0

> <PUBCHEM_HEAVY_ATOM_COUNT>
29

> <PUBCHEM_ATOM_DEF_STEREO_COUNT>
9

> <PUBCHEM_ATOM_UDEF_STEREO_COUNT>
0

> <PUBCHEM_BOND_DEF_STEREO_COUNT>
0

> <PUBCHEM_BOND_UDEF_STEREO_COUNT>
0

> <PUBCHEM_ISOTOPIC_ATOM_COUNT>
0

> <PUBCHEM_COMPONENT_COUNT>
1

> <PUBCHEM_CACTVS_TAUTO_COUNT>
3

> <PUBCHEM_COORDINATE_TYPE>
1
5
255

> <PUBCHEM_BONDANNOTATIONS>
13  1  6
12  40  5
18  24  6
3  17  5
4  30  6
5  31  5
6  32  6
7  19  5
8  33  6

$$$$

