442290
  -OEChem-07051212572D

 46 48  0     1  0  0  0  0  0999 V2000
    7.2441    0.4645    0.0000 O   0  0  0  0  0  0  0  0  0  0  0  0
    5.7547    2.7970    0.0000 O   0  0  0  0  0  0  0  0  0  0  0  0
    3.6473    0.2067    0.0000 O   0  0  0  0  0  0  0  0  0  0  0  0
    5.6688   -2.7788    0.0000 O   0  0  0  0  0  0  0  0  0  0  0  0
    4.5000    4.0544    0.0000 O   0  0  0  0  0  0  0  0  0  0  0  0
    6.4120   -3.4480    0.0000 O   0  0  0  0  0  0  0  0  0  0  0  0
    2.3601    1.3657    0.0000 O   0  0  0  0  0  0  0  0  0  0  0  0
    6.2925    0.1556    0.0000 C   0  0  1  0  0  0  0  0  0  0  0  0
    6.5004    1.1338    0.0000 C   0  0  1  0  0  0  0  0  0  0  0  0
    5.7573    1.8029    0.0000 C   0  0  2  0  0  0  0  0  0  0  0  0
    4.8062    1.4939    0.0000 C   0  0  1  0  0  0  0  0  0  0  0  0
    7.0357   -0.5135    0.0000 C   0  0  0  0  0  0  0  0  0  0  0  0
    6.0846   -0.8225    0.0000 C   0  0  0  0  0  0  0  0  0  0  0  0
    4.5983    0.5157    0.0000 C   0  0  1  0  0  0  0  0  0  0  0  0
    6.8278   -1.4917    0.0000 C   0  0  0  0  0  0  0  0  0  0  0  0
    4.2240    2.2996    0.0000 C   0  0  0  0  0  0  0  0  0  0  0  0
    5.3415   -0.1534    0.0000 C   0  0  0  0  0  0  0  0  0  0  0  0
    5.8767   -1.8007    0.0000 C   0  0  2  0  0  0  0  0  0  0  0  0
    4.8090    3.1034    0.0000 C   0  0  0  0  0  0  0  0  0  0  0  0
    5.1336   -1.1315    0.0000 C   0  0  0  0  0  0  0  0  0  0  0  0
    3.3589    2.8011    0.0000 C   0  0  0  0  0  0  0  0  0  0  0  0
    4.1825   -1.4406    0.0000 C   0  0  0  0  0  0  0  0  0  0  0  0
    2.6691    0.4146    0.0000 C   0  0  0  0  0  0  0  0  0  0  0  0
    2.0000   -0.3285    0.0000 C   0  0  0  0  0  0  0  0  0  0  0  0
    7.0691    1.7655    0.0000 H   0  0  0  0  0  0  0  0  0  0  0  0
    6.5334    2.1496    0.0000 H   0  0  0  0  0  0  0  0  0  0  0  0
    3.9746    1.3182    0.0000 H   0  0  0  0  0  0  0  0  0  0  0  0
    7.6105   -0.7458    0.0000 H   0  0  0  0  0  0  0  0  0  0  0  0
    7.3642    0.0123    0.0000 H   0  0  0  0  0  0  0  0  0  0  0  0
    5.4782   -0.6936    0.0000 H   0  0  0  0  0  0  0  0  0  0  0  0
    5.9557   -1.4290    0.0000 H   0  0  0  0  0  0  0  0  0  0  0  0
    6.6911   -0.9514    0.0000 H   0  0  0  0  0  0  0  0  0  0  0  0
    4.4694   -0.0907    0.0000 H   0  0  0  0  0  0  0  0  0  0  0  0
    6.9141   -2.1056    0.0000 H   0  0  0  0  0  0  0  0  0  0  0  0
    7.4474   -1.5133    0.0000 H   0  0  0  0  0  0  0  0  0  0  0  0
    5.9163   -0.3857    0.0000 H   0  0  0  0  0  0  0  0  0  0  0  0
    5.6700    0.3724    0.0000 H   0  0  0  0  0  0  0  0  0  0  0  0
    6.3375   -2.2155    0.0000 H   0  0  0  0  0  0  0  0  0  0  0  0
    3.3599    3.4211    0.0000 H   0  0  0  0  0  0  0  0  0  0  0  0
    2.8214    2.4920    0.0000 H   0  0  0  0  0  0  0  0  0  0  0  0
    3.7218   -1.0257    0.0000 H   0  0  0  0  0  0  0  0  0  0  0  0
    4.0536   -2.0470    0.0000 H   0  0  0  0  0  0  0  0  0  0  0  0
    6.2830   -4.0544    0.0000 H   0  0  0  0  0  0  0  0  0  0  0  0
    1.5392    0.0863    0.0000 H   0  0  0  0  0  0  0  0  0  0  0  0
    1.5851   -0.7893    0.0000 H   0  0  0  0  0  0  0  0  0  0  0  0
    2.4608   -0.7434    0.0000 H   0  0  0  0  0  0  0  0  0  0  0  0
  1  8  1  0  0  0  0
  1  9  1  0  0  0  0
  2 10  1  0  0  0  0
  2 19  1  0  0  0  0
 14  3  1  1  0  0  0
  3 23  1  0  0  0  0
  4  6  1  0  0  0  0
 18  4  1  1  0  0  0
  5 19  2  0  0  0  0
  6 43  1  0  0  0  0
  7 23  2  0  0  0  0
  8  9  1  0  0  0  0
  8 12  1  0  0  0  0
  8 13  1  1  0  0  0
  9 10  1  0  0  0  0
  9 25  1  6  0  0  0
 10 11  1  0  0  0  0
 10 26  1  1  0  0  0
 11 14  1  0  0  0  0
 11 16  1  0  0  0  0
 11 27  1  6  0  0  0
 12 15  1  0  0  0  0
 12 28  1  0  0  0  0
 12 29  1  0  0  0  0
 13 30  1  0  0  0  0
 13 31  1  0  0  0  0
 13 32  1  0  0  0  0
 14 17  1  0  0  0  0
 14 33  1  0  0  0  0
 15 18  1  0  0  0  0
 15 34  1  0  0  0  0
 15 35  1  0  0  0  0
 16 19  1  0  0  0  0
 16 21  2  0  0  0  0
 17 20  1  0  0  0  0
 17 36  1  0  0  0  0
 17 37  1  0  0  0  0
 18 20  1  0  0  0  0
 18 38  1  0  0  0  0
 20 22  2  0  0  0  0
 21 39  1  0  0  0  0
 21 40  1  0  0  0  0
 22 41  1  0  0  0  0
 22 42  1  0  0  0  0
 23 24  1  0  0  0  0
 24 44  1  0  0  0  0
 24 45  1  0  0  0  0
 24 46  1  0  0  0  0
M  END
> <PUBCHEM_COMPOUND_CID>
442290

> <PUBCHEM_COMPOUND_CANONICALIZED>
1

> <PUBCHEM_CACTVS_COMPLEXITY>
598

> <PUBCHEM_CACTVS_HBOND_ACCEPTOR>
7

> <PUBCHEM_CACTVS_HBOND_DONOR>
1

> <PUBCHEM_CACTVS_ROTATABLE_BOND>
3

> <PUBCHEM_CACTVS_SUBSKEYS>
AAADceB4OAAAAAAAAAAAAAAAEgAAASAAAAAAAAAAAAAAAADAAAAAGgAADAAADVSggAICCAAABACIAgDSCAAAAAAgAAAAAAEAAEgBBBIAIQACAAAFwAACIIHK7PzOAAAAAAAAAAAAAAAAAAAAAAAAAAAAAA==

> <PUBCHEM_IUPAC_INCHI>
InChI=1S/C17H22O7/c1-8-7-12(21-10(3)18)13-9(2)16(19)22-14(13)15-17(4,23-15)6-5-11(8)24-20/h11-15,20H,1-2,5-7H2,3-4H3/t11-,12-,13-,14+,15-,17-/m1/s1

> <PUBCHEM_IUPAC_INCHIKEY>
IHYLMNWQQGXGJT-TYVJZBCKSA-N

> <PUBCHEM_XLOGP3_AA>
0.9

> <PUBCHEM_EXACT_MASS>
338.136553

> <PUBCHEM_MOLECULAR_FORMULA>
C17H22O7

> <PUBCHEM_MOLECULAR_WEIGHT>
338.35238

> <PUBCHEM_OPENEYE_CAN_SMILES>
CC(=O)OC1CC(=C)C(CCC2(C(O2)C3C1C(=C)C(=O)O3)C)OO

> <PUBCHEM_OPENEYE_ISO_SMILES>
CC(=O)O[C@@H]1CC(=C)[C@@H](CC[C@@]2([C@H](O2)[C@@H]3[C@@H]1C(=C)C(=O)O3)C)OO

> <PUBCHEM_CACTVS_TPSA>
94.6

> <PUBCHEM_MONOISOTOPIC_WEIGHT>
338.136553

> <PUBCHEM_TOTAL_CHARGE>
0

> <PUBCHEM_HEAVY_ATOM_COUNT>
24

> <PUBCHEM_ATOM_DEF_STEREO_COUNT>
6

> <PUBCHEM_ATOM_UDEF_STEREO_COUNT>
0

> <PUBCHEM_BOND_DEF_STEREO_COUNT>
0

> <PUBCHEM_BOND_UDEF_STEREO_COUNT>
0

> <PUBCHEM_ISOTOPIC_ATOM_COUNT>
0

> <PUBCHEM_COMPONENT_COUNT>
1

> <PUBCHEM_CACTVS_TAUTO_COUNT>
1

> <PUBCHEM_COORDINATE_TYPE>
1
5
255

> <PUBCHEM_BONDANNOTATIONS>
10  26  5
11  27  6
14  3  5
18  4  5
8  13  5
9  25  6

$$$$

