440123
  -OEChem-07051212482D

114117  0     1  0  0  0  0  0999 V2000
   11.3312   -2.0000    0.0000 P   0  0  0  0  0  0  0  0  0  0  0  0
    5.5010   -3.3660    0.0000 O   0  0  0  0  0  0  0  0  0  0  0  0
    8.5991   -1.0000    0.0000 O   0  0  0  0  0  0  0  0  0  0  0  0
    6.8671    2.0000    0.0000 O   0  0  0  0  0  0  0  0  0  0  0  0
    7.7331   -2.5000    0.0000 O   0  0  0  0  0  0  0  0  0  0  0  0
    5.1350   -1.0000    0.0000 O   0  0  0  0  0  0  0  0  0  0  0  0
    4.2690    0.5000    0.0000 O   0  0  0  0  0  0  0  0  0  0  0  0
   10.3312   -2.0000    0.0000 O   0  0  0  0  0  0  0  0  0  0  0  0
    2.5369   -2.5000    0.0000 O   0  0  0  0  0  0  0  0  0  0  0  0
    7.7331    3.5000    0.0000 O   0  0  0  0  0  0  0  0  0  0  0  0
    5.1350    2.0000    0.0000 O   0  0  0  0  0  0  0  0  0  0  0  0
   10.3312    2.0000    0.0000 O   0  0  0  0  0  0  0  0  0  0  0  0
   10.3312    4.0000    0.0000 O   0  0  0  0  0  0  0  0  0  0  0  0
   12.3312   -2.0000    0.0000 O   0  0  0  0  0  0  0  0  0  0  0  0
   11.3312   -1.0000    0.0000 O   0  0  0  0  0  0  0  0  0  0  0  0
   11.3312   -3.0000    0.0000 O   0  0  0  0  0  0  0  0  0  0  0  0
   10.3312   -4.0000    0.0000 N   0  0  0  0  0  0  0  0  0  0  0  0
    6.0010   -2.5000    0.0000 C   0  0  2  0  0  0  0  0  0  0  0  0
    6.8671   -2.0000    0.0000 C   0  0  0  0  0  0  0  0  0  0  0  0
    6.8671   -1.0000    0.0000 C   0  0  1  0  0  0  0  0  0  0  0  0
    7.7331   -0.5000    0.0000 C   0  0  1  0  0  0  0  0  0  0  0  0
    6.5010   -3.3660    0.0000 C   0  0  0  0  0  0  0  0  0  0  0  0
    7.7331    0.5000    0.0000 C   0  0  2  0  0  0  0  0  0  0  0  0
    5.1350   -2.0000    0.0000 C   0  0  0  0  0  0  0  0  0  0  0  0
    6.8671    1.0000    0.0000 C   0  0  1  0  0  0  0  0  0  0  0  0
    4.2690   -2.5000    0.0000 C   0  0  1  0  0  0  0  0  0  0  0  0
    6.0010   -0.5000    0.0000 C   0  0  0  0  0  0  0  0  0  0  0  0
    3.4030   -2.0000    0.0000 C   0  0  2  0  0  0  0  0  0  0  0  0
    8.5991   -2.0000    0.0000 C   0  0  2  0  0  0  0  0  0  0  0  0
    6.0010    0.5000    0.0000 C   0  0  2  0  0  0  0  0  0  0  0  0
    8.5991    1.0000    0.0000 C   0  0  0  0  0  0  0  0  0  0  0  0
    9.4651   -2.5000    0.0000 C   0  0  1  0  0  0  0  0  0  0  0  0
    3.4030   -1.0000    0.0000 C   0  0  2  0  0  0  0  0  0  0  0  0
    9.4651   -3.5000    0.0000 C   0  0  2  0  0  0  0  0  0  0  0  0
    8.5991   -4.0000    0.0000 C   0  0  0  0  0  0  0  0  0  0  0  0
    4.2690   -3.5000    0.0000 C   0  0  0  0  0  0  0  0  0  0  0  0
    7.7331   -3.5000    0.0000 C   0  0  1  0  0  0  0  0  0  0  0  0
    4.2690   -0.5000    0.0000 C   0  0  1  0  0  0  0  0  0  0  0  0
    7.7331    2.5000    0.0000 C   0  0  2  0  0  0  0  0  0  0  0  0
    5.1350    1.0000    0.0000 C   0  0  0  0  0  0  0  0  0  0  0  0
    5.1351   -0.0001    0.0000 C   0  0  0  0  0  0  0  0  0  0  0  0
    8.5991    2.0000    0.0000 C   0  0  0  0  0  0  0  0  0  0  0  0
    2.5369   -0.5000    0.0000 C   0  0  0  0  0  0  0  0  0  0  0  0
    9.4651    2.5000    0.0000 C   0  0  1  0  0  0  0  0  0  0  0  0
    9.4651    3.5000    0.0000 C   0  0  2  0  0  0  0  0  0  0  0  0
    8.5991    4.0000    0.0000 C   0  0  2  0  0  0  0  0  0  0  0  0
    6.8671   -4.0000    0.0000 C   0  0  0  0  0  0  0  0  0  0  0  0
    4.2690   -1.5000    0.0000 C   0  0  0  0  0  0  0  0  0  0  0  0
   10.3312   -5.0000    0.0000 C   0  0  0  0  0  0  0  0  0  0  0  0
   11.3312   -4.0000    0.0000 C   0  0  0  0  0  0  0  0  0  0  0  0
    8.5991    5.0000    0.0000 C   0  0  0  0  0  0  0  0  0  0  0  0
   11.1972    2.5000    0.0000 C   0  0  0  0  0  0  0  0  0  0  0  0
    7.0791   -2.5826    0.0000 H   0  0  0  0  0  0  0  0  0  0  0  0
    7.4776   -1.8923    0.0000 H   0  0  0  0  0  0  0  0  0  0  0  0
    6.3301   -1.3100    0.0000 H   0  0  0  0  0  0  0  0  0  0  0  0
    7.7331   -1.1200    0.0000 H   0  0  0  0  0  0  0  0  0  0  0  0
    6.6087   -3.9766    0.0000 H   0  0  0  0  0  0  0  0  0  0  0  0
    7.0836   -3.1540    0.0000 H   0  0  0  0  0  0  0  0  0  0  0  0
    7.7331    1.1200    0.0000 H   0  0  0  0  0  0  0  0  0  0  0  0
    6.3301    1.3100    0.0000 H   0  0  0  0  0  0  0  0  0  0  0  0
    4.8059   -2.8100    0.0000 H   0  0  0  0  0  0  0  0  0  0  0  0
    6.3110    0.0369    0.0000 H   0  0  0  0  0  0  0  0  0  0  0  0
    5.4641   -0.1900    0.0000 H   0  0  0  0  0  0  0  0  0  0  0  0
    5.6910   -1.0369    0.0000 H   0  0  0  0  0  0  0  0  0  0  0  0
    8.0622   -1.6900    0.0000 H   0  0  0  0  0  0  0  0  0  0  0  0
    3.4030   -2.6200    0.0000 H   0  0  0  0  0  0  0  0  0  0  0  0
    6.3111   -0.0369    0.0000 H   0  0  0  0  0  0  0  0  0  0  0  0
    8.9091    0.4631    0.0000 H   0  0  0  0  0  0  0  0  0  0  0  0
    9.1360    1.3100    0.0000 H   0  0  0  0  0  0  0  0  0  0  0  0
    8.2891    1.5369    0.0000 H   0  0  0  0  0  0  0  0  0  0  0  0
   10.0021   -2.8100    0.0000 H   0  0  0  0  0  0  0  0  0  0  0  0
    3.4030   -0.3800    0.0000 H   0  0  0  0  0  0  0  0  0  0  0  0
   10.0021   -3.1900    0.0000 H   0  0  0  0  0  0  0  0  0  0  0  0
    8.2006   -4.4750    0.0000 H   0  0  0  0  0  0  0  0  0  0  0  0
    8.9976   -4.4750    0.0000 H   0  0  0  0  0  0  0  0  0  0  0  0
    3.6490   -3.5000    0.0000 H   0  0  0  0  0  0  0  0  0  0  0  0
    4.2690   -4.1200    0.0000 H   0  0  0  0  0  0  0  0  0  0  0  0
    4.8890   -3.5000    0.0000 H   0  0  0  0  0  0  0  0  0  0  0  0
    7.1962   -3.1900    0.0000 H   0  0  0  0  0  0  0  0  0  0  0  0
    4.8890   -0.5000    0.0000 H   0  0  0  0  0  0  0  0  0  0  0  0
    7.7331    1.8800    0.0000 H   0  0  0  0  0  0  0  0  0  0  0  0
    4.8250    0.5368    0.0000 H   0  0  0  0  0  0  0  0  0  0  0  0
    4.5982   -0.3101    0.0000 H   0  0  0  0  0  0  0  0  0  0  0  0
    5.4451   -0.5370    0.0000 H   0  0  0  0  0  0  0  0  0  0  0  0
    8.2006    1.5250    0.0000 H   0  0  0  0  0  0  0  0  0  0  0  0
    8.9976    1.5250    0.0000 H   0  0  0  0  0  0  0  0  0  0  0  0
    2.8469    0.0369    0.0000 H   0  0  0  0  0  0  0  0  0  0  0  0
    2.0000   -0.1900    0.0000 H   0  0  0  0  0  0  0  0  0  0  0  0
    2.2269   -1.0369    0.0000 H   0  0  0  0  0  0  0  0  0  0  0  0
   10.0021    2.8100    0.0000 H   0  0  0  0  0  0  0  0  0  0  0  0
    2.0000   -2.1900    0.0000 H   0  0  0  0  0  0  0  0  0  0  0  0
   10.0021    3.1900    0.0000 H   0  0  0  0  0  0  0  0  0  0  0  0
    8.0622    4.3100    0.0000 H   0  0  0  0  0  0  0  0  0  0  0  0
    6.5571   -3.4631    0.0000 H   0  0  0  0  0  0  0  0  0  0  0  0
    6.3301   -4.3100    0.0000 H   0  0  0  0  0  0  0  0  0  0  0  0
    7.1771   -4.5369    0.0000 H   0  0  0  0  0  0  0  0  0  0  0  0
    3.6490   -1.5000    0.0000 H   0  0  0  0  0  0  0  0  0  0  0  0
    4.2690   -2.1200    0.0000 H   0  0  0  0  0  0  0  0  0  0  0  0
    4.8890   -1.5000    0.0000 H   0  0  0  0  0  0  0  0  0  0  0  0
    9.7112   -5.0000    0.0000 H   0  0  0  0  0  0  0  0  0  0  0  0
   10.3312   -5.6200    0.0000 H   0  0  0  0  0  0  0  0  0  0  0  0
   11.3312   -4.6200    0.0000 H   0  0  0  0  0  0  0  0  0  0  0  0
   11.9512   -4.0000    0.0000 H   0  0  0  0  0  0  0  0  0  0  0  0
   10.9512   -5.0000    0.0000 H   0  0  0  0  0  0  0  0  0  0  0  0
   11.3312   -3.3800    0.0000 H   0  0  0  0  0  0  0  0  0  0  0  0
    9.2191    5.0000    0.0000 H   0  0  0  0  0  0  0  0  0  0  0  0
    8.5991    5.6200    0.0000 H   0  0  0  0  0  0  0  0  0  0  0  0
    7.9791    5.0000    0.0000 H   0  0  0  0  0  0  0  0  0  0  0  0
   10.3312    4.6200    0.0000 H   0  0  0  0  0  0  0  0  0  0  0  0
   11.5072    1.9631    0.0000 H   0  0  0  0  0  0  0  0  0  0  0  0
   11.7341    2.8100    0.0000 H   0  0  0  0  0  0  0  0  0  0  0  0
   10.8872    3.0369    0.0000 H   0  0  0  0  0  0  0  0  0  0  0  0
   12.6412   -1.4631    0.0000 H   0  0  0  0  0  0  0  0  0  0  0  0
   11.8681   -0.6900    0.0000 H   0  0  0  0  0  0  0  0  0  0  0  0
  1  8  1  0  0  0  0
  1 14  1  0  0  0  0
  1 15  1  0  0  0  0
  1 16  2  0  0  0  0
 18  2  1  6  0  0  0
  2 22  1  0  0  0  0
 21  3  1  1  0  0  0
 29  3  1  1  0  0  0
 25  4  1  1  0  0  0
 39  4  1  6  0  0  0
  5 29  1  0  0  0  0
  5 37  1  0  0  0  0
  6 24  2  0  0  0  0
  7 38  1  0  0  0  0
  7 40  1  0  0  0  0
 32  8  1  6  0  0  0
 28  9  1  1  0  0  0
  9 91  1  0  0  0  0
 10 39  1  0  0  0  0
 10 46  1  0  0  0  0
 11 40  2  0  0  0  0
 44 12  1  1  0  0  0
 12 52  1  0  0  0  0
 45 13  1  6  0  0  0
 13109  1  0  0  0  0
 14113  1  0  0  0  0
 15114  1  0  0  0  0
 34 17  1  1  0  0  0
 17 49  1  0  0  0  0
 17 50  1  0  0  0  0
 18 19  1  0  0  0  0
 18 22  1  0  0  0  0
 18 24  1  0  0  0  0
 19 20  1  0  0  0  0
 19 53  1  0  0  0  0
 19 54  1  0  0  0  0
 20 21  1  0  0  0  0
 20 27  1  6  0  0  0
 20 55  1  0  0  0  0
 21 23  1  0  0  0  0
 21 56  1  0  0  0  0
 22 57  1  0  0  0  0
 22 58  1  0  0  0  0
 23 25  1  0  0  0  0
 23 31  1  6  0  0  0
 23 59  1  0  0  0  0
 24 26  1  0  0  0  0
 25 30  1  0  0  0  0
 25 60  1  0  0  0  0
 26 28  1  0  0  0  0
 26 36  1  6  0  0  0
 26 61  1  0  0  0  0
 27 62  1  0  0  0  0
 27 63  1  0  0  0  0
 27 64  1  0  0  0  0
 28 33  1  0  0  0  0
 28 66  1  0  0  0  0
 29 32  1  0  0  0  0
 29 65  1  0  0  0  0
 30 40  1  0  0  0  0
 30 41  1  1  0  0  0
 30 67  1  0  0  0  0
 31 68  1  0  0  0  0
 31 69  1  0  0  0  0
 31 70  1  0  0  0  0
 32 34  1  0  0  0  0
 32 71  1  0  0  0  0
 33 38  1  0  0  0  0
 33 43  1  1  0  0  0
 33 72  1  0  0  0  0
 34 35  1  0  0  0  0
 34 73  1  0  0  0  0
 35 37  1  0  0  0  0
 35 74  1  0  0  0  0
 35 75  1  0  0  0  0
 36 76  1  0  0  0  0
 36 77  1  0  0  0  0
 36 78  1  0  0  0  0
 37 47  1  1  0  0  0
 37 79  1  0  0  0  0
 38 48  1  6  0  0  0
 38 80  1  0  0  0  0
 39 42  1  0  0  0  0
 39 81  1  0  0  0  0
 41 82  1  0  0  0  0
 41 83  1  0  0  0  0
 41 84  1  0  0  0  0
 42 44  1  0  0  0  0
 42 85  1  0  0  0  0
 42 86  1  0  0  0  0
 43 87  1  0  0  0  0
 43 88  1  0  0  0  0
 43 89  1  0  0  0  0
 44 45  1  0  0  0  0
 44 90  1  0  0  0  0
 45 46  1  0  0  0  0
 45 92  1  0  0  0  0
 46 51  1  1  0  0  0
 46 93  1  0  0  0  0
 47 94  1  0  0  0  0
 47 95  1  0  0  0  0
 47 96  1  0  0  0  0
 48 97  1  0  0  0  0
 48 98  1  0  0  0  0
 48 99  1  0  0  0  0
 49100  1  0  0  0  0
 49101  1  0  0  0  0
 49104  1  0  0  0  0
 50102  1  0  0  0  0
 50103  1  0  0  0  0
 50105  1  0  0  0  0
 51106  1  0  0  0  0
 51107  1  0  0  0  0
 51108  1  0  0  0  0
 52110  1  0  0  0  0
 52111  1  0  0  0  0
 52112  1  0  0  0  0
M  END
> <PUBCHEM_COMPOUND_CID>
440123

> <PUBCHEM_COMPOUND_CANONICALIZED>
1

> <PUBCHEM_CACTVS_COMPLEXITY>
1270

> <PUBCHEM_CACTVS_HBOND_ACCEPTOR>
16

> <PUBCHEM_CACTVS_HBOND_DONOR>
4

> <PUBCHEM_CACTVS_ROTATABLE_BOND>
8

> <PUBCHEM_CACTVS_SUBSKEYS>
AAADcfB+PAIAAAAAAAAAAAAAEgAAAAAAAAAkSAAAAAAAAAAAAAAAHgAACCAADXzxgAcCCAMABxAIQICQCIIAAAAAAAAAAAFIAAATEBYAgAQmQAAHIAAXAAHI7PzOAAAAAAAAAAAAAAAAAAAAAAAAAAAAAA==

> <PUBCHEM_IUPAC_OPENEYE_NAME>
[(2S,3R,4S,6R)-4-(dimethylamino)-2-[[(14R,15R,16S,17R,18R,21R,22S,23R,24S,25S)-16-hydroxy-22-[(2R,4S,5S,6S)-5-hydroxy-4-methoxy-6-methyl-tetrahydropyran-2-yl]oxy-15,17,18,21,23,25-hexamethyl-14,20-dioxo-1,19-dioxaspiro[2.13]hexadecan-24-yl]oxy]-6-methyl-tetrahydropyran-3-yl] dihydrogen phosphate

> <PUBCHEM_IUPAC_CAS_NAME>
[(2S,3R,4S,6R)-4-(dimethylamino)-2-[[(14R,15R,16S,17R,18R,21R,22S,23R,24S,25S)-16-hydroxy-22-[[(2R,4S,5S,6S)-5-hydroxy-4-methoxy-6-methyl-2-oxanyl]oxy]-15,17,18,21,23,25-hexamethyl-14,20-dioxo-1,19-dioxaspiro[2.13]hexadecan-24-yl]oxy]-6-methyl-3-oxanyl] dihydrogen phosphate

> <PUBCHEM_IUPAC_NAME>
[(2S,3R,4S,6R)-4-(dimethylamino)-2-[[(14R,15R,16S,17R,18R,21R,22S,23R,24S,25S)-16-hydroxy-22-[(2R,4S,5S,6S)-5-hydroxy-4-methoxy-6-methyloxan-2-yl]oxy-15,17,18,21,23,25-hexamethyl-14,20-dioxo-1,19-dioxaspiro[2.13]hexadecan-24-yl]oxy]-6-methyloxan-3-yl] dihydrogen phosphate

> <PUBCHEM_IUPAC_SYSTEMATIC_NAME>
[(2S,3R,4S,6R)-4-(dimethylamino)-2-[[(14R,15R,16S,17R,18R,21R,22S,23R,24S,25S)-22-[(2R,4S,5S,6S)-4-methoxy-6-methyl-5-oxidanyl-oxan-2-yl]oxy-15,17,18,21,23,25-hexamethyl-16-oxidanyl-14,20-bis(oxidanylidene)-1,19-dioxaspiro[2.13]hexadecan-24-yl]oxy]-6-methyl-oxan-3-yl] dihydrogen phosphate

> <PUBCHEM_IUPAC_TRADITIONAL_NAME>
[(2S,3R,4S,6R)-4-(dimethylamino)-2-[[(14R,15R,16S,17R,18R,21R,22S,23R,24S,25S)-16-hydroxy-22-[(2R,4S,5S,6S)-5-hydroxy-4-methoxy-6-methyl-tetrahydropyran-2-yl]oxy-14,20-diketo-15,17,18,21,23,25-hexamethyl-1,19-dioxaspiro[2.13]hexadecan-24-yl]oxy]-6-methyl-tetrahydropyran-3-yl] dihydrogen phosphate

> <PUBCHEM_IUPAC_INCHI>
InChI=1S/C35H62NO15P/c1-16-14-35(15-45-35)32(39)19(4)27(37)18(3)22(7)48-33(40)21(6)30(49-26-13-25(44-11)28(38)23(8)47-26)20(5)29(16)50-34-31(51-52(41,42)43)24(36(9)10)12-17(2)46-34/h16-31,34,37-38H,12-15H2,1-11H3,(H2,41,42,43)/t16-,17+,18-,19+,20+,21+,22+,23-,24-,25-,26-,27-,28-,29-,30-,31+,34-,35+/m0/s1

> <PUBCHEM_IUPAC_INCHIKEY>
XGECXLDCKVMKRN-KPBLUZLMSA-N

> <PUBCHEM_XLOGP3_AA>
-0.8

> <PUBCHEM_EXACT_MASS>
767.385707

> <PUBCHEM_MOLECULAR_FORMULA>
C35H62NO15P

> <PUBCHEM_MOLECULAR_WEIGHT>
767.838242

> <PUBCHEM_OPENEYE_CAN_SMILES>
CC1CC(C(C(O1)OC2C(CC3(CO3)C(=O)C(C(C(C(OC(=O)C(C(C2C)OC4CC(C(C(O4)C)O)OC)C)C)C)O)C)C)OP(=O)(O)O)N(C)C

> <PUBCHEM_OPENEYE_ISO_SMILES>
C[C@@H]1C[C@@H]([C@H]([C@@H](O1)O[C@H]2[C@H](C[C@@]3(CO3)C(=O)[C@@H]([C@H]([C@H]([C@H](OC(=O)[C@@H]([C@H]([C@@H]2C)O[C@H]4C[C@@H]([C@H]([C@@H](O4)C)O)OC)C)C)C)O)C)C)OP(=O)(O)O)N(C)C

> <PUBCHEM_CACTVS_TPSA>
213

> <PUBCHEM_MONOISOTOPIC_WEIGHT>
767.385707

> <PUBCHEM_TOTAL_CHARGE>
0

> <PUBCHEM_HEAVY_ATOM_COUNT>
52

> <PUBCHEM_ATOM_DEF_STEREO_COUNT>
18

> <PUBCHEM_ATOM_UDEF_STEREO_COUNT>
0

> <PUBCHEM_BOND_DEF_STEREO_COUNT>
0

> <PUBCHEM_BOND_UDEF_STEREO_COUNT>
0

> <PUBCHEM_ISOTOPIC_ATOM_COUNT>
0

> <PUBCHEM_COMPONENT_COUNT>
1

> <PUBCHEM_CACTVS_TAUTO_COUNT>
4

> <PUBCHEM_COORDINATE_TYPE>
1
5
255

> <PUBCHEM_BONDANNOTATIONS>
44  12  5
45  13  6
34  17  5
18  2  6
20  27  6
23  31  6
26  36  6
21  3  5
29  3  5
30  41  5
33  43  5
37  47  5
38  48  6
25  4  5
39  4  6
46  51  5
32  8  6
28  9  5

$$$$

