   Color/Form
        Off-white powdered solid
   from [1]HSDB

   Odor
        Odorless
   from [2]HSDB

   Corrosivity
        Product is not a corrosive hazard
   from [3]HSDB

   Density/Specific Gravity
        1.39 g/ml @ 20 deg C
   from [4]HSDB

   Dissociation Constants
        pKa = 2.3, 3.3 and 10.8; the active ingredient will exist
   primarily in the singly ionized form in the pH range 5-9
   from [5]HSDB

   Octanol/Water Partition Coefficient
        log Kow = 0.73 (corrected for ionization)
   from [6]HSDB

   pH
        2.35, 1% aqueous suspension (w:v) at 24.5 deg C
   from [7]HSDB

   Solubilities

     * In acetone, 29.3 g/l
     * In water, 4,413 mg/l @ 20 deg C

   from [8]HSDB

   Other Chemical/Physical Properties

     * VP: Less than 1.0X10-7 mm Hg @ 20 deg C
     * MP: 166.0-166.7 deg C Techical grade/
     * log Kow = -1.03 (pH 5), log Kow = -2.4 (pH 7)

   from [9]HSDB

   Computed Properties
   Molecular Weight                  305.32906 [g/mol]
   Molecular Formula                 C[15]H[19]N[3]O[4]
   XLogP3-AA                         0.9
   H-Bond Donor                      2
   H-Bond Acceptor                   6
   Rotatable Bond Count              5
   Tautomer Count                    3
   Exact Mass                        305.137556
   MonoIsotopic Mass                 305.137556
   Topological Polar Surface Area    101
   Heavy Atom Count                  22
   Formal Charge                     0
   Complexity                        491
   Isotope Atom Count                0
   Defined Atom Stereocenter Count   0
   Undefined Atom Stereocenter Count 1
   Defined Bond Stereocenter Count   0
   Undefined Bond Stereocenter Count 0
   Covalently-Bonded Unit Count      1
   Feature 3D Acceptor Count         5
   Feature 3D Donor Count            1
   Feature 3D Anion Count            1
   Feature 3D Hydrophobe Count       1
   Feature 3D Ring Count             2
   Effective Rotor Count             5.4
   Conformer Sampling RMSD           0.8
   CID Conformer Count               [10]32

References

   1. http://toxnet.nlm.nih.gov/cgi-bin/sis/search/r?dbs+hsdb:@term+@rn+@rel+114311-32-9
   2. http://toxnet.nlm.nih.gov/cgi-bin/sis/search/r?dbs+hsdb:@term+@rn+@rel+114311-32-9
   3. http://toxnet.nlm.nih.gov/cgi-bin/sis/search/r?dbs+hsdb:@term+@rn+@rel+114311-32-9
   4. http://toxnet.nlm.nih.gov/cgi-bin/sis/search/r?dbs+hsdb:@term+@rn+@rel+114311-32-9
   5. http://toxnet.nlm.nih.gov/cgi-bin/sis/search/r?dbs+hsdb:@term+@rn+@rel+114311-32-9
   6. http://toxnet.nlm.nih.gov/cgi-bin/sis/search/r?dbs+hsdb:@term+@rn+@rel+114311-32-9
   7. http://toxnet.nlm.nih.gov/cgi-bin/sis/search/r?dbs+hsdb:@term+@rn+@rel+114311-32-9
   8. http://toxnet.nlm.nih.gov/cgi-bin/sis/search/r?dbs+hsdb:@term+@rn+@rel+114311-32-9
   9. http://toxnet.nlm.nih.gov/cgi-bin/sis/search/r?dbs+hsdb:@term+@rn+@rel+114311-32-9
  10. http://pubchem.ncbi.nlm.nih.gov/vw3d/vw3d.cgi?cid=86137
