   Color/Form

     * RHOMBIC BIPYRAMIDAL CRYSTALS FROM CHLOROFORM-ETHER
     * COLORLESS PRISMS

   from [1]HSDB

   Boiling Point
        268-270 DEG C
   from [2]HSDB

   Melting Point
        108 DEG C
   from [3]HSDB

   Density/Specific Gravity
        1.142
   from [4]HSDB

   Solubilities

     * VERY SOL IN WATER & ALCOHOL
     * INSOL IN ETHER

   from [5]HSDB

   Spectral Properties

     * IR: 3660 (Sadtler Research Laboratories Prism Collection)
     * NMR: 189 (Sadtler Research Laboratories Spectral Collection)
     * MASS: 23 (Aldermaston, Eight Peak Index of Mass Spectra, UK)

   from [6]HSDB

   Computed Properties
   Molecular Weight                  88.10842 [g/mol]
   Molecular Formula                 C[3]H[8]N[2]O
   XLogP3                            -0.5
   H-Bond Donor                      2
   H-Bond Acceptor                   1
   Rotatable Bond Count              0
   Tautomer Count                    2
   Exact Mass                        88.063663
   MonoIsotopic Mass                 88.063663
   Topological Polar Surface Area    41.1
   Heavy Atom Count                  6
   Formal Charge                     0
   Complexity                        46.8
   Isotope Atom Count                0
   Defined Atom Stereocenter Count   0
   Undefined Atom Stereocenter Count 0
   Defined Bond Stereocenter Count   0
   Undefined Bond Stereocenter Count 0
   Covalently-Bonded Unit Count      1
   Feature 3D Acceptor Count         1
   Feature 3D Donor Count            2
   Effective Rotor Count             2
   Conformer Sampling RMSD           0.4
   CID Conformer Count               [7]2

References

   1. http://toxnet.nlm.nih.gov/cgi-bin/sis/search/r?dbs+hsdb:@term+@rn+@rel+96-31-1
   2. http://toxnet.nlm.nih.gov/cgi-bin/sis/search/r?dbs+hsdb:@term+@rn+@rel+96-31-1
   3. http://toxnet.nlm.nih.gov/cgi-bin/sis/search/r?dbs+hsdb:@term+@rn+@rel+96-31-1
   4. http://toxnet.nlm.nih.gov/cgi-bin/sis/search/r?dbs+hsdb:@term+@rn+@rel+96-31-1
   5. http://toxnet.nlm.nih.gov/cgi-bin/sis/search/r?dbs+hsdb:@term+@rn+@rel+96-31-1
   6. http://toxnet.nlm.nih.gov/cgi-bin/sis/search/r?dbs+hsdb:@term+@rn+@rel+96-31-1
   7. http://pubchem.ncbi.nlm.nih.gov/vw3d/vw3d.cgi?cid=7293
