17396281
  -OEChem-06241222552D

 29 31  0     0  0  0  0  0  0999 V2000
    6.9276    4.5259    0.0000 Br  0  0  0  0  0  0  0  0  0  0  0  0
    3.3987   -4.8046    0.0000 F   0  0  0  0  0  0  0  0  0  0  0  0
    5.6675    3.2658    0.0000 O   0  0  0  0  0  0  0  0  0  0  0  0
    3.0852    2.5613    0.0000 O   0  0  0  0  0  0  0  0  0  0  0  0
    2.5896   -0.2168    0.0000 N   0  0  0  0  0  0  0  0  0  0  0  0
    4.2077   -0.2168    0.0000 N   0  0  0  0  0  0  0  0  0  0  0  0
    4.4865    1.5432    0.0000 N   0  0  0  0  0  0  0  0  0  0  0  0
    2.8987    0.7342    0.0000 N   0  0  0  0  0  0  0  0  0  0  0  0
    3.3987   -1.8046    0.0000 C   0  0  0  0  0  0  0  0  0  0  0  0
    3.3987   -0.8046    0.0000 C   0  0  0  0  0  0  0  0  0  0  0  0
    3.8987    0.7342    0.0000 C   0  0  0  0  0  0  0  0  0  0  0  0
    2.5326   -2.3046    0.0000 C   0  0  0  0  0  0  0  0  0  0  0  0
    4.2647   -2.3046    0.0000 C   0  0  0  0  0  0  0  0  0  0  0  0
    4.6675    3.2658    0.0000 C   0  0  0  0  0  0  0  0  0  0  0  0
    4.0797    2.4568    0.0000 C   0  0  0  0  0  0  0  0  0  0  0  0
    2.5326   -3.3046    0.0000 C   0  0  0  0  0  0  0  0  0  0  0  0
    4.2647   -3.3046    0.0000 C   0  0  0  0  0  0  0  0  0  0  0  0
    3.3987   -3.8046    0.0000 C   0  0  0  0  0  0  0  0  0  0  0  0
    4.3585    4.2168    0.0000 C   0  0  0  0  0  0  0  0  0  0  0  0
    5.1675    4.8046    0.0000 C   0  0  0  0  0  0  0  0  0  0  0  0
    5.9765    4.2168    0.0000 C   0  0  0  0  0  0  0  0  0  0  0  0
    1.9957   -1.9946    0.0000 H   0  0  0  0  0  0  0  0  0  0  0  0
    4.8016   -1.9946    0.0000 H   0  0  0  0  0  0  0  0  0  0  0  0
    2.0000   -0.4084    0.0000 H   0  0  0  0  0  0  0  0  0  0  0  0
    5.1031    1.4784    0.0000 H   0  0  0  0  0  0  0  0  0  0  0  0
    1.9957   -3.6146    0.0000 H   0  0  0  0  0  0  0  0  0  0  0  0
    4.8016   -3.6146    0.0000 H   0  0  0  0  0  0  0  0  0  0  0  0
    3.7688    4.4084    0.0000 H   0  0  0  0  0  0  0  0  0  0  0  0
    5.1675    5.4246    0.0000 H   0  0  0  0  0  0  0  0  0  0  0  0
  1 21  1  0  0  0  0
  2 18  1  0  0  0  0
  3 14  1  0  0  0  0
  3 21  1  0  0  0  0
  4 15  2  0  0  0  0
  5  8  1  0  0  0  0
  5 10  1  0  0  0  0
  5 24  1  0  0  0  0
  6 10  2  0  0  0  0
  6 11  1  0  0  0  0
  7 11  1  0  0  0  0
  7 15  1  0  0  0  0
  7 25  1  0  0  0  0
  8 11  2  0  0  0  0
  9 10  1  0  0  0  0
  9 12  2  0  0  0  0
  9 13  1  0  0  0  0
 12 16  1  0  0  0  0
 12 22  1  0  0  0  0
 13 17  2  0  0  0  0
 13 23  1  0  0  0  0
 14 15  1  0  0  0  0
 14 19  2  0  0  0  0
 16 18  2  0  0  0  0
 16 26  1  0  0  0  0
 17 18  1  0  0  0  0
 17 27  1  0  0  0  0
 19 20  1  0  0  0  0
 19 28  1  0  0  0  0
 20 21  2  0  0  0  0
 20 29  1  0  0  0  0
M  END
> <PUBCHEM_COMPOUND_CID>
17396281

> <PUBCHEM_COMPOUND_CANONICALIZED>
1

> <PUBCHEM_CACTVS_COMPLEXITY>
381

> <PUBCHEM_CACTVS_HBOND_ACCEPTOR>
5

> <PUBCHEM_CACTVS_HBOND_DONOR>
2

> <PUBCHEM_CACTVS_ROTATABLE_BOND>
3

> <PUBCHEM_CACTVS_SUBSKEYS>
AAADccBzsQAAEAAAAAAAAAAAAAAAAWJAAAAwAAAAAAAAAAAB8AAAHwBYAAABLASBmwgxFIbrFECqAqNyNAKSiAukIKQdqCHmDPiOLrKEvT+HOSj8yRMYq5eYlwIOAAAAAAAAAAAAAAAAAAAAAAAAAAAAAA==

> <PUBCHEM_IUPAC_OPENEYE_NAME>
5-bromo-N-[5-(4-fluorophenyl)-1H-1,2,4-triazol-3-yl]furan-2-carboxamide

> <PUBCHEM_IUPAC_CAS_NAME>
5-bromo-N-[5-(4-fluorophenyl)-1H-1,2,4-triazol-3-yl]-2-furancarboxamide

> <PUBCHEM_IUPAC_NAME>
5-bromo-N-[5-(4-fluorophenyl)-1H-1,2,4-triazol-3-yl]furan-2-carboxamide

> <PUBCHEM_IUPAC_SYSTEMATIC_NAME>
5-bromanyl-N-[5-(4-fluorophenyl)-1H-1,2,4-triazol-3-yl]furan-2-carboxamide

> <PUBCHEM_IUPAC_TRADITIONAL_NAME>
5-bromo-N-[5-(4-fluorophenyl)-1H-1,2,4-triazol-3-yl]-2-furamide

> <PUBCHEM_IUPAC_INCHI>
InChI=1S/C13H8BrFN4O2/c14-10-6-5-9(21-10)12(20)17-13-16-11(18-19-13)7-1-3-8(15)4-2-7/h1-6H,(H2,16,17,18,19,20)

> <PUBCHEM_IUPAC_INCHIKEY>
CCIIJCWIEIDFJC-UHFFFAOYSA-N

> <PUBCHEM_XLOGP3_AA>
3.3

> <PUBCHEM_EXACT_MASS>
349.981466

> <PUBCHEM_MOLECULAR_FORMULA>
C13H8BrFN4O2

> <PUBCHEM_MOLECULAR_WEIGHT>
351.130623

> <PUBCHEM_OPENEYE_CAN_SMILES>
C1=CC(=CC=C1C2=NC(=NN2)NC(=O)C3=CC=C(O3)Br)F

> <PUBCHEM_OPENEYE_ISO_SMILES>
C1=CC(=CC=C1C2=NC(=NN2)NC(=O)C3=CC=C(O3)Br)F

> <PUBCHEM_CACTVS_TPSA>
83.8

> <PUBCHEM_MONOISOTOPIC_WEIGHT>
349.981466

> <PUBCHEM_TOTAL_CHARGE>
0

> <PUBCHEM_HEAVY_ATOM_COUNT>
21

> <PUBCHEM_ATOM_DEF_STEREO_COUNT>
0

> <PUBCHEM_ATOM_UDEF_STEREO_COUNT>
0

> <PUBCHEM_BOND_DEF_STEREO_COUNT>
0

> <PUBCHEM_BOND_UDEF_STEREO_COUNT>
0

> <PUBCHEM_ISOTOPIC_ATOM_COUNT>
0

> <PUBCHEM_COMPONENT_COUNT>
1

> <PUBCHEM_CACTVS_TAUTO_COUNT>
8

> <PUBCHEM_COORDINATE_TYPE>
1
5
255

> <PUBCHEM_BONDANNOTATIONS>
12  16  8
13  17  8
14  19  8
16  18  8
17  18  8
19  20  8
20  21  8
3  14  8
3  21  8
5  10  8
5  8  8
6  10  8
6  11  8
8  11  8
9  12  8
9  13  8

$$$$

