   Color/Form

     * MINUTE CRYSTALS, PRISMS, OR WHITE OR PALE CREAM-COLORED POWDER
     * PRISMS FROM WATER OR ALC

   from [1]HSDB

   Odor
        ODORLESS
   from [2]HSDB

   Taste
        BITTER TASTE
   from [3]HSDB

   Melting Point
        NO DEFINITE MP, ABOUT 340 DEG C WITH DECOMP
   from [4]HSDB

   Solubilities

     * VERY SLIGHTLY SOL IN WATER (1:2000); PRACTICALLY INSOL IN ETHER,
       ACIDS; READILY SOL IN ALKALINE SOLN
     * SLIGHTLY SOL IN ALC; SOL IN ANHYD HYDROGEN FLUORIDE

   from [5]HSDB

   Spectral Properties

     * MAX ABSORPTION (METHANOL): 212 NM & 271 NM
     * MAX ABSORPTION (METHANOL): 273 NM (LOG E= 4.14)
     * MAX ABSORPTION (0.2 MOLAR H3B03): 263 NM (A= 650, 1%, 1 CM)
     * IR: 9400 (Sadtler Research Laboratories Prism Collection)
     * UV: 2508 (Sadtler Research Laboratories Spectral Collection)
     * NMR: 9191 (Sadtler Research Laboratories Spectral Collection)
     * MASS: 241 (National Bureau of Standards EPA-NIH Mass Spectra Data
       Base, NSRDS-NBS-63)

   from [6]HSDB

   Other Chemical/Physical Properties
        FORMS PPT & COMPLEXES WITH HEAVY METALS & OTHER COMPD; REACTS WITH
   VARIOUS SULFHYDRYL REAGENTS
   from [7]HSDB

   Computed Properties
   Molecular Weight                  128.15236 [g/mol]
   Molecular Formula                 C[4]H[4]N[2]OS
   XLogP3                            -0.3
   H-Bond Donor                      2
   H-Bond Acceptor                   2
   Rotatable Bond Count              0
   Tautomer Count                    9
   Exact Mass                        128.004434
   MonoIsotopic Mass                 128.004434
   Topological Polar Surface Area    73.2
   Heavy Atom Count                  8
   Formal Charge                     0
   Complexity                        163
   Isotope Atom Count                0
   Defined Atom Stereocenter Count   0
   Undefined Atom Stereocenter Count 0
   Defined Bond Stereocenter Count   0
   Undefined Bond Stereocenter Count 0
   Covalently-Bonded Unit Count      1
   Feature 3D Acceptor Count         2
   Feature 3D Donor Count            2
   Feature 3D Ring Count             1
   Effective Rotor Count             0
   Conformer Sampling RMSD           0.4
   CID Conformer Count               [8]1

References

   1. http://toxnet.nlm.nih.gov/cgi-bin/sis/search/r?dbs+hsdb:@term+@rn+@rel+141-90-2
   2. http://toxnet.nlm.nih.gov/cgi-bin/sis/search/r?dbs+hsdb:@term+@rn+@rel+141-90-2
   3. http://toxnet.nlm.nih.gov/cgi-bin/sis/search/r?dbs+hsdb:@term+@rn+@rel+141-90-2
   4. http://toxnet.nlm.nih.gov/cgi-bin/sis/search/r?dbs+hsdb:@term+@rn+@rel+141-90-2
   5. http://toxnet.nlm.nih.gov/cgi-bin/sis/search/r?dbs+hsdb:@term+@rn+@rel+141-90-2
   6. http://toxnet.nlm.nih.gov/cgi-bin/sis/search/r?dbs+hsdb:@term+@rn+@rel+141-90-2
   7. http://toxnet.nlm.nih.gov/cgi-bin/sis/search/r?dbs+hsdb:@term+@rn+@rel+141-90-2
   8. http://pubchem.ncbi.nlm.nih.gov/vw3d/vw3d.cgi?cid=1269845
