17395371
  -OEChem-06241222492D

 41 43  0     1  0  0  0  0  0999 V2000
    7.1279    0.7129    0.0000 S   0  0  0  0  0  0  0  0  0  0  0  0
    9.1279    0.7129    0.0000 O   0  0  0  0  0  0  0  0  0  0  0  0
   11.6667   -0.5192    0.0000 O   0  0  0  0  0  0  0  0  0  0  0  0
    5.5443    1.5176    0.0000 N   0  0  0  0  0  0  0  0  0  0  0  0
    5.5443   -0.0918    0.0000 N   0  0  0  0  0  0  0  0  0  0  0  0
    9.1279   -1.0192    0.0000 N   0  0  0  0  0  0  0  0  0  0  0  0
   10.7157   -0.2101    0.0000 N   0  0  0  0  0  0  0  0  0  0  0  0
    7.6279   -0.1531    0.0000 C   0  0  3  0  0  0  0  0  0  0  0  0
    7.1279   -1.0192    0.0000 C   0  0  0  0  0  0  0  0  0  0  0  0
    4.5981    1.2129    0.0000 C   0  0  0  0  0  0  0  0  0  0  0  0
    6.1279    0.7129    0.0000 C   0  0  0  0  0  0  0  0  0  0  0  0
    4.5981    0.2129    0.0000 C   0  0  0  0  0  0  0  0  0  0  0  0
    8.6279   -0.1531    0.0000 C   0  0  0  0  0  0  0  0  0  0  0  0
    7.6279   -1.8852    0.0000 C   0  0  0  0  0  0  0  0  0  0  0  0
    3.7320    1.7129    0.0000 C   0  0  0  0  0  0  0  0  0  0  0  0
    2.8660    1.2129    0.0000 C   0  0  0  0  0  0  0  0  0  0  0  0
    3.7320   -0.2871    0.0000 C   0  0  0  0  0  0  0  0  0  0  0  0
    2.8660    0.2129    0.0000 C   0  0  0  0  0  0  0  0  0  0  0  0
   10.1279   -1.0192    0.0000 C   0  0  0  0  0  0  0  0  0  0  0  0
    2.0000    1.7129    0.0000 C   0  0  0  0  0  0  0  0  0  0  0  0
   10.7157   -1.8282    0.0000 C   0  0  0  0  0  0  0  0  0  0  0  0
   11.6667   -1.5192    0.0000 C   0  0  0  0  0  0  0  0  0  0  0  0
   12.4758   -2.1070    0.0000 C   0  0  0  0  0  0  0  0  0  0  0  0
    7.0079   -0.1531    0.0000 H   0  0  0  0  0  0  0  0  0  0  0  0
    6.6530   -0.6206    0.0000 H   0  0  0  0  0  0  0  0  0  0  0  0
    6.6530   -1.4177    0.0000 H   0  0  0  0  0  0  0  0  0  0  0  0
    5.7369    2.1070    0.0000 H   0  0  0  0  0  0  0  0  0  0  0  0
    7.0910   -2.1952    0.0000 H   0  0  0  0  0  0  0  0  0  0  0  0
    7.9379   -2.4221    0.0000 H   0  0  0  0  0  0  0  0  0  0  0  0
    8.1648   -1.5752    0.0000 H   0  0  0  0  0  0  0  0  0  0  0  0
    3.7320    2.3329    0.0000 H   0  0  0  0  0  0  0  0  0  0  0  0
    3.7320   -0.9071    0.0000 H   0  0  0  0  0  0  0  0  0  0  0  0
    2.3291   -0.0971    0.0000 H   0  0  0  0  0  0  0  0  0  0  0  0
    8.8179   -1.5561    0.0000 H   0  0  0  0  0  0  0  0  0  0  0  0
    2.3100    2.2498    0.0000 H   0  0  0  0  0  0  0  0  0  0  0  0
    1.4631    2.0229    0.0000 H   0  0  0  0  0  0  0  0  0  0  0  0
    1.6900    1.1760    0.0000 H   0  0  0  0  0  0  0  0  0  0  0  0
   10.5241   -2.4178    0.0000 H   0  0  0  0  0  0  0  0  0  0  0  0
   12.1113   -2.6085    0.0000 H   0  0  0  0  0  0  0  0  0  0  0  0
   12.9774   -2.4714    0.0000 H   0  0  0  0  0  0  0  0  0  0  0  0
   12.8402   -1.6054    0.0000 H   0  0  0  0  0  0  0  0  0  0  0  0
  1  8  1  0  0  0  0
  1 11  1  0  0  0  0
  2 13  2  0  0  0  0
  3  7  1  0  0  0  0
  3 22  1  0  0  0  0
  4 10  1  0  0  0  0
  4 11  1  0  0  0  0
  4 27  1  0  0  0  0
  5 11  2  0  0  0  0
  5 12  1  0  0  0  0
  6 13  1  0  0  0  0
  6 19  1  0  0  0  0
  6 34  1  0  0  0  0
  7 19  2  0  0  0  0
  8  9  1  0  0  0  0
  8 13  1  0  0  0  0
  8 24  1  0  0  0  0
  9 14  1  0  0  0  0
  9 25  1  0  0  0  0
  9 26  1  0  0  0  0
 10 12  2  0  0  0  0
 10 15  1  0  0  0  0
 12 17  1  0  0  0  0
 14 28  1  0  0  0  0
 14 29  1  0  0  0  0
 14 30  1  0  0  0  0
 15 16  2  0  0  0  0
 15 31  1  0  0  0  0
 16 18  1  0  0  0  0
 16 20  1  0  0  0  0
 17 18  2  0  0  0  0
 17 32  1  0  0  0  0
 18 33  1  0  0  0  0
 19 21  1  0  0  0  0
 20 35  1  0  0  0  0
 20 36  1  0  0  0  0
 20 37  1  0  0  0  0
 21 22  2  0  0  0  0
 21 38  1  0  0  0  0
 22 23  1  0  0  0  0
 23 39  1  0  0  0  0
 23 40  1  0  0  0  0
 23 41  1  0  0  0  0
M  END
> <PUBCHEM_COMPOUND_CID>
17395371

> <PUBCHEM_COMPOUND_CANONICALIZED>
1

> <PUBCHEM_CACTVS_COMPLEXITY>
425

> <PUBCHEM_CACTVS_HBOND_ACCEPTOR>
5

> <PUBCHEM_CACTVS_HBOND_DONOR>
2

> <PUBCHEM_CACTVS_ROTATABLE_BOND>
5

> <PUBCHEM_CACTVS_SUBSKEYS>
AAADceB7sABAAAAAAAAAAAAAAAAAAWLAAAAwAAAAAAAAAFgB/AAAHgQUAAAADAyF3gCz9LbZkAipA6dydgCC0i3lMrApmSE2fNqIbLrgmZGUIIhqlQrIyGcQgAAOCAAAQAAAACAQAACAAAAAQAAAAAAAAA==

> <PUBCHEM_IUPAC_OPENEYE_NAME>
2-[(6-methyl-1H-benzimidazol-2-yl)sulfanyl]-N-(5-methylisoxazol-3-yl)butanamide

> <PUBCHEM_IUPAC_CAS_NAME>
2-[(6-methyl-1H-benzimidazol-2-yl)thio]-N-(5-methyl-3-isoxazolyl)butanamide

> <PUBCHEM_IUPAC_NAME>
2-[(6-methyl-1H-benzimidazol-2-yl)sulfanyl]-N-(5-methyl-1,2-oxazol-3-yl)butanamide

> <PUBCHEM_IUPAC_SYSTEMATIC_NAME>
2-[(6-methyl-1H-benzimidazol-2-yl)sulfanyl]-N-(5-methyl-1,2-oxazol-3-yl)butanamide

> <PUBCHEM_IUPAC_TRADITIONAL_NAME>
2-[(6-methyl-1H-benzimidazol-2-yl)thio]-N-(5-methylisoxazol-3-yl)butyramide

> <PUBCHEM_IUPAC_INCHI>
InChI=1S/C16H18N4O2S/c1-4-13(15(21)19-14-8-10(3)22-20-14)23-16-17-11-6-5-9(2)7-12(11)18-16/h5-8,13H,4H2,1-3H3,(H,17,18)(H,19,20,21)

> <PUBCHEM_IUPAC_INCHIKEY>
IJHNWGICNYOIAR-UHFFFAOYSA-N

> <PUBCHEM_XLOGP3_AA>
3.7

> <PUBCHEM_EXACT_MASS>
330.115047

> <PUBCHEM_MOLECULAR_FORMULA>
C16H18N4O2S

> <PUBCHEM_MOLECULAR_WEIGHT>
330.40472

> <PUBCHEM_OPENEYE_CAN_SMILES>
CCC(C(=O)NC1=NOC(=C1)C)SC2=NC3=C(N2)C=C(C=C3)C

> <PUBCHEM_OPENEYE_ISO_SMILES>
CCC(C(=O)NC1=NOC(=C1)C)SC2=NC3=C(N2)C=C(C=C3)C

> <PUBCHEM_CACTVS_TPSA>
109

> <PUBCHEM_MONOISOTOPIC_WEIGHT>
330.115047

> <PUBCHEM_TOTAL_CHARGE>
0

> <PUBCHEM_HEAVY_ATOM_COUNT>
23

> <PUBCHEM_ATOM_DEF_STEREO_COUNT>
0

> <PUBCHEM_ATOM_UDEF_STEREO_COUNT>
1

> <PUBCHEM_BOND_DEF_STEREO_COUNT>
0

> <PUBCHEM_BOND_UDEF_STEREO_COUNT>
0

> <PUBCHEM_ISOTOPIC_ATOM_COUNT>
0

> <PUBCHEM_COMPONENT_COUNT>
1

> <PUBCHEM_CACTVS_TAUTO_COUNT>
20

> <PUBCHEM_COORDINATE_TYPE>
1
5
255

> <PUBCHEM_BONDANNOTATIONS>
10  12  8
10  15  8
12  17  8
15  16  8
16  18  8
17  18  8
19  21  8
21  22  8
3  22  8
3  7  8
4  10  8
4  11  8
5  11  8
5  12  8
7  19  8
8  9  3

$$$$

