   Color/Form

     * MINUTE NEEDLES FROM DILUTE ALC
     * WHITE NEEDLES FROM ETHANOL
     * COLORLESS OR WHITE, OR PRACTICALLY WHITE NEEDLE-LIKE CRYSTALS OR AS
       A WHITE, CRYSTALLINE POWDER

   from [1]HSDB

   Odor
        Odorless
   from [2]HSDB

   Melting Point
        227-228 DEG C
   from [3]HSDB

   Solubilities

     * FREELY SOL IN ALC, METHANOL, ETHER, ACETONE, PROPYLENE GLYCOL; SOL
       IN CHLOROFORM, AQ SOLN OF ALKALI HYDROXIDES; SOLUBLE IN VEGETABLE
       OILS AFTER WARMING, BUT CRYSTALLIZES OUT ON STANDING; PRACTICALLY
       INSOL IN WATER, DIL ACIDS .
     * SOL IN FIXED OILS.

   from [4]HSDB

   Other Chemical/Physical Properties

     * PRISMS FROM ALC; MP: 119-120 DEG C /DIENESTROL DIACETATE/
     * SUBLIMES @ 130 DEG C @ 1 MM HG; THE SUBLIMATE MP: 231-234 DEG C
     * MP: 179 DEG C; HAS NO ESTROGENIC ACTIVITY /DIENESTROL
       ISODIENESTROL/

   from [5]HSDB

   Computed Properties
   Molecular Weight                  266.33432 [g/mol]
   Molecular Formula                 C[18]H[18]O[2]
   XLogP3-AA                         5.4
   H-Bond Donor                      2
   H-Bond Acceptor                   2
   Rotatable Bond Count              3
   Tautomer Count                    6
   Exact Mass                        266.13068
   MonoIsotopic Mass                 266.13068
   Topological Polar Surface Area    40.5
   Heavy Atom Count                  20
   Formal Charge                     0
   Complexity                        318
   Isotope Atom Count                0
   Defined Atom Stereocenter Count   0
   Undefined Atom Stereocenter Count 0
   Defined Bond Stereocenter Count   2
   Undefined Bond Stereocenter Count 0
   Covalently-Bonded Unit Count      1
   Feature 3D Donor Count            2
   Feature 3D Hydrophobe Count       2
   Feature 3D Ring Count             2
   Effective Rotor Count             3
   Conformer Sampling RMSD           0.6
   CID Conformer Count               [6]3

References

   1. http://toxnet.nlm.nih.gov/cgi-bin/sis/search/r?dbs+hsdb:@term+@rn+@rel+84-17-3
   2. http://toxnet.nlm.nih.gov/cgi-bin/sis/search/r?dbs+hsdb:@term+@rn+@rel+84-17-3
   3. http://toxnet.nlm.nih.gov/cgi-bin/sis/search/r?dbs+hsdb:@term+@rn+@rel+84-17-3
   4. http://toxnet.nlm.nih.gov/cgi-bin/sis/search/r?dbs+hsdb:@term+@rn+@rel+84-17-3
   5. http://toxnet.nlm.nih.gov/cgi-bin/sis/search/r?dbs+hsdb:@term+@rn+@rel+84-17-3
   6. http://pubchem.ncbi.nlm.nih.gov/vw3d/vw3d.cgi?cid=667476
