443470
  -OEChem-07051213022D

 52 54  0     1  0  0  0  0  0999 V2000
    3.8000   -0.3193    0.0000 C   0  0  1  0  0  0  0  0  0  0  0  0
    3.8000   -1.3193    0.0000 C   0  0  2  0  0  0  0  0  0  0  0  0
    2.9061   -1.8540    0.0000 C   0  0  0  0  0  0  0  0  0  0  0  0
    4.6660    0.1807    0.0000 C   0  0  2  0  0  0  0  0  0  0  0  0
    2.9061    0.2153    0.0000 C   0  0  0  0  0  0  0  0  0  0  0  0
    2.0000   -1.3402    0.0000 C   0  0  0  0  0  0  0  0  0  0  0  0
    4.6660   -1.8193    0.0000 C   0  0  0  0  0  0  0  0  0  0  0  0
    2.0000   -0.2985    0.0000 C   0  0  0  0  0  0  0  0  0  0  0  0
    3.8000    0.6807    0.0000 C   0  0  0  0  0  0  0  0  0  0  0  0
    5.5321   -0.3193    0.0000 C   0  0  0  0  0  0  0  0  0  0  0  0
    4.6500    1.2222    0.0000 C   0  0  0  0  0  0  0  0  0  0  0  0
    5.5321   -1.3193    0.0000 C   0  0  0  0  0  0  0  0  0  0  0  0
    2.4161   -2.7258    0.0000 C   0  0  0  0  0  0  0  0  0  0  0  0
    3.4160   -2.7142    0.0000 C   0  0  0  0  0  0  0  0  0  0  0  0
    5.5480    1.7499    0.0000 C   0  0  0  0  0  0  0  0  0  0  0  0
    6.4421    0.1875    0.0000 C   0  0  0  0  0  0  0  0  0  0  0  0
    6.4501    1.2291    0.0000 C   0  0  0  0  0  0  0  0  0  0  0  0
    7.3180    1.7258    0.0000 C   0  0  0  0  0  0  0  0  0  0  0  0
    7.3219    2.7258    0.0000 C   0  0  0  0  0  0  0  0  0  0  0  0
    8.1821    1.2224    0.0000 C   0  0  0  0  0  0  0  0  0  0  0  0
    3.8066   -2.1693    0.0000 H   0  0  0  0  0  0  0  0  0  0  0  0
    5.3989    0.6113    0.0000 H   0  0  0  0  0  0  0  0  0  0  0  0
    3.3107    0.6851    0.0000 H   0  0  0  0  0  0  0  0  0  0  0  0
    2.5124    0.6943    0.0000 H   0  0  0  0  0  0  0  0  0  0  0  0
    1.3891   -1.2341    0.0000 H   0  0  0  0  0  0  0  0  0  0  0  0
    1.7909   -1.9238    0.0000 H   0  0  0  0  0  0  0  0  0  0  0  0
    4.2675   -2.2943    0.0000 H   0  0  0  0  0  0  0  0  0  0  0  0
    5.0646   -2.2943    0.0000 H   0  0  0  0  0  0  0  0  0  0  0  0
    1.7909    0.2852    0.0000 H   0  0  0  0  0  0  0  0  0  0  0  0
    1.3891   -0.4046    0.0000 H   0  0  0  0  0  0  0  0  0  0  0  0
    4.4200    0.6807    0.0000 H   0  0  0  0  0  0  0  0  0  0  0  0
    3.8000    1.3007    0.0000 H   0  0  0  0  0  0  0  0  0  0  0  0
    3.1800    0.6807    0.0000 H   0  0  0  0  0  0  0  0  0  0  0  0
    4.4319    1.8026    0.0000 H   0  0  0  0  0  0  0  0  0  0  0  0
    4.0408    1.1067    0.0000 H   0  0  0  0  0  0  0  0  0  0  0  0
    6.0690   -1.6293    0.0000 H   0  0  0  0  0  0  0  0  0  0  0  0
    1.8756   -2.4220    0.0000 H   0  0  0  0  0  0  0  0  0  0  0  0
    2.1123   -3.2662    0.0000 H   0  0  0  0  0  0  0  0  0  0  0  0
    2.9566   -3.0295    0.0000 H   0  0  0  0  0  0  0  0  0  0  0  0
    2.8827   -3.0304    0.0000 H   0  0  0  0  0  0  0  0  0  0  0  0
    3.7322   -3.2475    0.0000 H   0  0  0  0  0  0  0  0  0  0  0  0
    3.9494   -2.3980    0.0000 H   0  0  0  0  0  0  0  0  0  0  0  0
    5.9453    2.2259    0.0000 H   0  0  0  0  0  0  0  0  0  0  0  0
    5.1470    2.2228    0.0000 H   0  0  0  0  0  0  0  0  0  0  0  0
    6.9754   -0.1287    0.0000 H   0  0  0  0  0  0  0  0  0  0  0  0
    7.8562    2.0337    0.0000 H   0  0  0  0  0  0  0  0  0  0  0  0
    7.9419    2.7234    0.0000 H   0  0  0  0  0  0  0  0  0  0  0  0
    7.3243    3.3458    0.0000 H   0  0  0  0  0  0  0  0  0  0  0  0
    6.7019    2.7281    0.0000 H   0  0  0  0  0  0  0  0  0  0  0  0
    7.8701    0.6867    0.0000 H   0  0  0  0  0  0  0  0  0  0  0  0
    8.7179    0.9104    0.0000 H   0  0  0  0  0  0  0  0  0  0  0  0
    8.4942    1.7582    0.0000 H   0  0  0  0  0  0  0  0  0  0  0  0
  1  2  1  0  0  0  0
  1  4  1  0  0  0  0
  1  5  1  0  0  0  0
  1  9  1  1  0  0  0
  2  3  1  0  0  0  0
  2  7  1  0  0  0  0
  2 21  1  6  0  0  0
  3  6  1  0  0  0  0
  3 13  1  0  0  0  0
  3 14  1  0  0  0  0
  4 10  1  0  0  0  0
  4 11  1  0  0  0  0
  4 22  1  6  0  0  0
  5  8  1  0  0  0  0
  5 23  1  0  0  0  0
  5 24  1  0  0  0  0
  6  8  1  0  0  0  0
  6 25  1  0  0  0  0
  6 26  1  0  0  0  0
  7 12  1  0  0  0  0
  7 27  1  0  0  0  0
  7 28  1  0  0  0  0
  8 29  1  0  0  0  0
  8 30  1  0  0  0  0
  9 31  1  0  0  0  0
  9 32  1  0  0  0  0
  9 33  1  0  0  0  0
 10 12  2  0  0  0  0
 10 16  1  0  0  0  0
 11 15  1  0  0  0  0
 11 34  1  0  0  0  0
 11 35  1  0  0  0  0
 12 36  1  0  0  0  0
 13 37  1  0  0  0  0
 13 38  1  0  0  0  0
 13 39  1  0  0  0  0
 14 40  1  0  0  0  0
 14 41  1  0  0  0  0
 14 42  1  0  0  0  0
 15 17  1  0  0  0  0
 15 43  1  0  0  0  0
 15 44  1  0  0  0  0
 16 17  2  0  0  0  0
 16 45  1  0  0  0  0
 17 18  1  0  0  0  0
 18 19  1  0  0  0  0
 18 20  1  0  0  0  0
 18 46  1  0  0  0  0
 19 47  1  0  0  0  0
 19 48  1  0  0  0  0
 19 49  1  0  0  0  0
 20 50  1  0  0  0  0
 20 51  1  0  0  0  0
 20 52  1  0  0  0  0
M  END
> <PUBCHEM_COMPOUND_CID>
443470

> <PUBCHEM_COMPOUND_CANONICALIZED>
1

> <PUBCHEM_CACTVS_COMPLEXITY>
449

> <PUBCHEM_CACTVS_HBOND_ACCEPTOR>
0

> <PUBCHEM_CACTVS_HBOND_DONOR>
0

> <PUBCHEM_CACTVS_ROTATABLE_BOND>
1

> <PUBCHEM_CACTVS_SUBSKEYS>
AAADcfB4AAAAAAAAAAAAAAAAAAAAAAAAAAAwQIAAAAAAAACAAAAAGAAAAAAADwCAAAACAAAAAACAAiBCAAAAAAAgAAAACAAAAAgIAAIAAQAAAAAAgAAIgAMAgMAPgAAAAAAAAAAAAAQAACAAAAAAAAAAAA==

> <PUBCHEM_IUPAC_OPENEYE_NAME>
(4aS,4bR,10aS)-7-isopropyl-1,1,4a-trimethyl-2,3,4,4b,5,6,10,10a-octahydrophenanthrene

> <PUBCHEM_IUPAC_CAS_NAME>
(4aS,4bR,10aS)-1,1,4a-trimethyl-7-propan-2-yl-2,3,4,4b,5,6,10,10a-octahydrophenanthrene

> <PUBCHEM_IUPAC_NAME>
(4aS,4bR,10aS)-1,1,4a-trimethyl-7-propan-2-yl-2,3,4,4b,5,6,10,10a-octahydrophenanthrene

> <PUBCHEM_IUPAC_SYSTEMATIC_NAME>
(4aS,4bR,10aS)-1,1,4a-trimethyl-7-propan-2-yl-2,3,4,4b,5,6,10,10a-octahydrophenanthrene

> <PUBCHEM_IUPAC_TRADITIONAL_NAME>
(4aS,4bR,10aS)-7-isopropyl-1,1,4a-trimethyl-2,3,4,4b,5,6,10,10a-octahydrophenanthrene

> <PUBCHEM_IUPAC_INCHI>
InChI=1S/C20H32/c1-14(2)15-7-9-17-16(13-15)8-10-18-19(3,4)11-6-12-20(17,18)5/h8,13-14,17-18H,6-7,9-12H2,1-5H3/t17-,18-,20+/m0/s1

> <PUBCHEM_IUPAC_INCHIKEY>
BBPXZLJCPUPNGH-CMKODMSKSA-N

> <PUBCHEM_XLOGP3_AA>
6.3

> <PUBCHEM_EXACT_MASS>
272.250401

> <PUBCHEM_MOLECULAR_FORMULA>
C20H32

> <PUBCHEM_MOLECULAR_WEIGHT>
272.46808

> <PUBCHEM_OPENEYE_CAN_SMILES>
CC(C)C1=CC2=CCC3C(CCCC3(C2CC1)C)(C)C

> <PUBCHEM_OPENEYE_ISO_SMILES>
CC(C)C1=CC2=CC[C@@H]3[C@@]([C@H]2CC1)(CCCC3(C)C)C

> <PUBCHEM_CACTVS_TPSA>
0

> <PUBCHEM_MONOISOTOPIC_WEIGHT>
272.250401

> <PUBCHEM_TOTAL_CHARGE>
0

> <PUBCHEM_HEAVY_ATOM_COUNT>
20

> <PUBCHEM_ATOM_DEF_STEREO_COUNT>
3

> <PUBCHEM_ATOM_UDEF_STEREO_COUNT>
0

> <PUBCHEM_BOND_DEF_STEREO_COUNT>
0

> <PUBCHEM_BOND_UDEF_STEREO_COUNT>
0

> <PUBCHEM_ISOTOPIC_ATOM_COUNT>
0

> <PUBCHEM_COMPONENT_COUNT>
1

> <PUBCHEM_CACTVS_TAUTO_COUNT>
1

> <PUBCHEM_COORDINATE_TYPE>
1
5
255

> <PUBCHEM_BONDANNOTATIONS>
1  9  5
2  21  6
4  22  6

$$$$

