6449
  -OEChem-06261201202D

 46 50  0     1  0  0  0  0  0999 V2000
    5.9422    0.7487    0.0000 O   0  0  0  0  0  0  0  0  0  0  0  0
    6.9727    2.6858    0.0000 O   0  0  0  0  0  0  0  0  0  0  0  0
    5.6636   -1.7941    0.0000 O   0  0  0  0  0  0  0  0  0  0  0  0
    2.9945    1.5175    0.0000 N   0  0  3  0  0  0  0  0  0  0  0  0
    4.5497    1.5558    0.0000 C   0  0  1  0  0  0  0  0  0  0  0  0
    3.8066    2.2249    0.0000 C   0  0  2  0  0  0  0  0  0  0  0  0
    2.8555    1.9159    0.0000 C   0  0  2  0  0  0  0  0  0  0  0  0
    5.5386    1.6571    0.0000 C   0  0  2  0  0  0  0  0  0  0  0  0
    4.2607    1.2483    0.0000 C   0  0  0  0  0  0  0  0  0  0  0  0
    4.3418    0.5777    0.0000 C   0  0  0  0  0  0  0  0  0  0  0  0
    2.6476    0.9378    0.0000 C   0  0  0  0  0  0  0  0  0  0  0  0
    3.5298    0.9229    0.0000 C   0  0  0  0  0  0  0  0  0  0  0  0
    3.3907    0.2686    0.0000 C   0  0  0  0  0  0  0  0  0  0  0  0
    5.9767    2.5954    0.0000 C   0  0  2  0  0  0  0  0  0  0  0  0
    4.3467    3.3337    0.0000 C   0  0  0  0  0  0  0  0  0  0  0  0
    5.1265   -0.1073    0.0000 C   0  0  0  0  0  0  0  0  0  0  0  0
    5.3768    3.4393    0.0000 C   0  0  0  0  0  0  0  0  0  0  0  0
    3.1585   -0.7468    0.0000 C   0  0  0  0  0  0  0  0  0  0  0  0
    2.0000    1.4129    0.0000 C   0  0  0  0  0  0  0  0  0  0  0  0
    4.9178   -1.1278    0.0000 C   0  0  0  0  0  0  0  0  0  0  0  0
    3.9272   -1.4497    0.0000 C   0  0  0  0  0  0  0  0  0  0  0  0
    5.4594   -2.7730    0.0000 C   0  0  0  0  0  0  0  0  0  0  0  0
    6.2051   -3.4393    0.0000 C   0  0  0  0  0  0  0  0  0  0  0  0
    3.9729    3.0075    0.0000 H   0  0  0  0  0  0  0  0  0  0  0  0
    2.0730    2.0822    0.0000 H   0  0  0  0  0  0  0  0  0  0  0  0
    6.3386    1.6496    0.0000 H   0  0  0  0  0  0  0  0  0  0  0  0
    4.2779    0.6286    0.0000 H   0  0  0  0  0  0  0  0  0  0  0  0
    3.9016    1.7538    0.0000 H   0  0  0  0  0  0  0  0  0  0  0  0
    2.0728    1.1700    0.0000 H   0  0  0  0  0  0  0  0  0  0  0  0
    2.3191    0.4120    0.0000 H   0  0  0  0  0  0  0  0  0  0  0  0
    3.0282    0.5585    0.0000 H   0  0  0  0  0  0  0  0  0  0  0  0
    3.8398    0.3860    0.0000 H   0  0  0  0  0  0  0  0  0  0  0  0
    6.2358    3.1586    0.0000 H   0  0  0  0  0  0  0  0  0  0  0  0
    3.9916    3.8420    0.0000 H   0  0  0  0  0  0  0  0  0  0  0  0
    5.6326    4.0040    0.0000 H   0  0  0  0  0  0  0  0  0  0  0  0
    2.5667   -0.9315    0.0000 H   0  0  0  0  0  0  0  0  0  0  0  0
    1.9352    2.0295    0.0000 H   0  0  0  0  0  0  0  0  0  0  0  0
    1.3834    1.3481    0.0000 H   0  0  0  0  0  0  0  0  0  0  0  0
    2.0648    0.7963    0.0000 H   0  0  0  0  0  0  0  0  0  0  0  0
    3.7959   -2.0557    0.0000 H   0  0  0  0  0  0  0  0  0  0  0  0
    7.2328    3.2486    0.0000 H   0  0  0  0  0  0  0  0  0  0  0  0
    4.8837   -2.5430    0.0000 H   0  0  0  0  0  0  0  0  0  0  0  0
    5.1329   -3.3001    0.0000 H   0  0  0  0  0  0  0  0  0  0  0  0
    5.7921   -3.9016    0.0000 H   0  0  0  0  0  0  0  0  0  0  0  0
    6.6675   -3.8524    0.0000 H   0  0  0  0  0  0  0  0  0  0  0  0
    6.6182   -2.9769    0.0000 H   0  0  0  0  0  0  0  0  0  0  0  0
  1  8  1  0  0  0  0
  1 16  1  0  0  0  0
  2 14  1  0  0  0  0
  2 41  1  0  0  0  0
  3 20  1  0  0  0  0
  3 22  1  0  0  0  0
  4  7  1  0  0  0  0
  4 12  1  0  0  0  0
  4 19  1  0  0  0  0
  5  6  1  0  0  0  0
  5  8  1  0  0  0  0
  5  9  1  0  0  0  0
  5 10  1  0  0  0  0
  6  7  1  0  0  0  0
  6 15  1  0  0  0  0
  6 24  1  0  0  0  0
  7 11  1  0  0  0  0
  7 25  1  0  0  0  0
  8 14  1  0  0  0  0
  8 26  1  0  0  0  0
  9 12  1  0  0  0  0
  9 27  1  0  0  0  0
  9 28  1  0  0  0  0
 10 13  2  0  0  0  0
 10 16  1  0  0  0  0
 11 13  1  0  0  0  0
 11 29  1  0  0  0  0
 11 30  1  0  0  0  0
 12 31  1  0  0  0  0
 12 32  1  0  0  0  0
 13 18  1  0  0  0  0
 14 17  1  0  0  0  0
 14 33  1  0  0  0  0
 15 17  2  0  0  0  0
 15 34  1  0  0  0  0
 16 20  2  0  0  0  0
 17 35  1  0  0  0  0
 18 21  2  0  0  0  0
 18 36  1  0  0  0  0
 19 37  1  0  0  0  0
 19 38  1  0  0  0  0
 19 39  1  0  0  0  0
 20 21  1  0  0  0  0
 21 40  1  0  0  0  0
 22 23  1  0  0  0  0
 22 42  1  0  0  0  0
 22 43  1  0  0  0  0
 23 44  1  0  0  0  0
 23 45  1  0  0  0  0
 23 46  1  0  0  0  0
M  END
> <PUBCHEM_COMPOUND_CID>
6449

> <PUBCHEM_COMPOUND_CANONICALIZED>
1

> <PUBCHEM_CACTVS_COMPLEXITY>
523

> <PUBCHEM_CACTVS_HBOND_ACCEPTOR>
4

> <PUBCHEM_CACTVS_HBOND_DONOR>
1

> <PUBCHEM_CACTVS_ROTATABLE_BOND>
2

> <PUBCHEM_CACTVS_SUBSKEYS>
AAADceB6MAAAAAAAAAAAAAAAAAAAASAAAAA8YIEAAAAWAEjBAAAAHgAACAAADzzhmAYyBoMABgCAAiBCAAACCAAgIAAIiAAOiIgNNiKEsRuGeCKkwBGLuAew8P8PoAABAAAYQADQAAaAADSAAAAAAAAAAA==

> <PUBCHEM_IUPAC_OPENEYE_NAME>
(4S,4aR,7S,7aR,12bS)-9-ethoxy-3-methyl-2,4,4a,7,7a,13-hexahydro-1H-4,12-methanobenzofuro[3,2-e]isoquinoline-7-ol

> <PUBCHEM_IUPAC_CAS_NAME>
(4S,4aR,7S,7aR,12bS)-9-ethoxy-3-methyl-2,4,4a,7,7a,13-hexahydro-1H-4,12-methanobenzofuro[3,2-e]isoquinoline-7-ol

> <PUBCHEM_IUPAC_NAME>
(4S,4aR,7S,7aR,12bS)-9-ethoxy-3-methyl-2,4,4a,7,7a,13-hexahydro-1H-4,12-methanobenzofuro[3,2-e]isoquinoline-7-ol

> <PUBCHEM_IUPAC_SYSTEMATIC_NAME>
(4S,4aR,7S,7aR,12bS)-9-ethoxy-3-methyl-2,4,4a,7,7a,13-hexahydro-1H-4,12-methanobenzofuro[3,2-e]isoquinoline-7-ol

> <PUBCHEM_IUPAC_TRADITIONAL_NAME>
(4S,4aR,7S,7aR,12bS)-9-ethoxy-3-methyl-2,4,4a,7,7a,13-hexahydro-1H-4,12-methanobenzofuro[3,2-e]isoquinoline-7-ol

> <PUBCHEM_IUPAC_INCHI>
InChI=1S/C19H23NO3/c1-3-22-15-7-4-11-10-13-12-5-6-14(21)18-19(12,8-9-20(13)2)16(11)17(15)23-18/h4-7,12-14,18,21H,3,8-10H2,1-2H3/t12-,13-,14-,18-,19-/m0/s1

> <PUBCHEM_IUPAC_INCHIKEY>
OGDVEMNWJVYAJL-JELDOXETSA-N

> <PUBCHEM_XLOGP3>
1.5

> <PUBCHEM_EXACT_MASS>
313.167794

> <PUBCHEM_MOLECULAR_FORMULA>
C19H23NO3

> <PUBCHEM_MOLECULAR_WEIGHT>
313.39082

> <PUBCHEM_OPENEYE_CAN_SMILES>
CCOC1=C2C3=C(CC4C5C3(CCN4C)C(O2)C(C=C5)O)C=C1

> <PUBCHEM_OPENEYE_ISO_SMILES>
CCOC1=C2C3=C(C[C@H]4[C@H]5[C@]3(CCN4C)[C@@H](O2)[C@H](C=C5)O)C=C1

> <PUBCHEM_CACTVS_TPSA>
41.9

> <PUBCHEM_MONOISOTOPIC_WEIGHT>
313.167794

> <PUBCHEM_TOTAL_CHARGE>
0

> <PUBCHEM_HEAVY_ATOM_COUNT>
23

> <PUBCHEM_ATOM_DEF_STEREO_COUNT>
5

> <PUBCHEM_ATOM_UDEF_STEREO_COUNT>
0

> <PUBCHEM_BOND_DEF_STEREO_COUNT>
0

> <PUBCHEM_BOND_UDEF_STEREO_COUNT>
0

> <PUBCHEM_ISOTOPIC_ATOM_COUNT>
0

> <PUBCHEM_COMPONENT_COUNT>
1

> <PUBCHEM_CACTVS_TAUTO_COUNT>
1

> <PUBCHEM_COORDINATE_TYPE>
1
5
255

> <PUBCHEM_BONDANNOTATIONS>
10  13  8
10  16  8
13  18  8
16  20  8
18  21  8
14  2  3
20  21  8
5  9  3
6  24  3
7  25  3
8  26  3

$$$$

