5460412
  -OEChem-07051212532D

 54 53  0     1  0  0  0  0  0999 V2000
    8.5991    3.5950    0.0000 O   0  0  0  0  0  0  0  0  0  0  0  0
    9.4651    1.0950    0.0000 O   0  0  0  0  0  0  0  0  0  0  0  0
    2.5369    2.0950    0.0000 O   0  0  0  0  0  0  0  0  0  0  0  0
    3.4030    3.5950    0.0000 O   0  0  0  0  0  0  0  0  0  0  0  0
    7.7331    2.0950    0.0000 C   0  0  0  0  0  0  0  0  0  0  0  0
    6.8671    2.5950    0.0000 C   0  0  0  0  0  0  0  0  0  0  0  0
    8.5991    2.5950    0.0000 C   0  0  1  0  0  0  0  0  0  0  0  0
    6.0010    2.0950    0.0000 C   0  0  0  0  0  0  0  0  0  0  0  0
    9.4651    2.0950    0.0000 C   0  0  2  0  0  0  0  0  0  0  0  0
    5.1350    2.5950    0.0000 C   0  0  0  0  0  0  0  0  0  0  0  0
    4.2690    2.0950    0.0000 C   0  0  0  0  0  0  0  0  0  0  0  0
   10.3312    2.5950    0.0000 C   0  0  0  0  0  0  0  0  0  0  0  0
   11.1972   -1.9050    0.0000 C   0  0  0  0  0  0  0  0  0  0  0  0
   10.3312   -2.4050    0.0000 C   0  0  0  0  0  0  0  0  0  0  0  0
   11.1972   -0.9050    0.0000 C   0  0  0  0  0  0  0  0  0  0  0  0
   11.1972    2.0950    0.0000 C   0  0  0  0  0  0  0  0  0  0  0  0
   10.3312   -3.4050    0.0000 C   0  0  0  0  0  0  0  0  0  0  0  0
   11.1972    1.0950    0.0000 C   0  0  0  0  0  0  0  0  0  0  0  0
   12.0632   -0.4050    0.0000 C   0  0  0  0  0  0  0  0  0  0  0  0
    3.4030    2.5950    0.0000 C   0  0  0  0  0  0  0  0  0  0  0  0
   12.0632    0.5950    0.0000 C   0  0  0  0  0  0  0  0  0  0  0  0
    9.4651   -3.9050    0.0000 C   0  0  0  0  0  0  0  0  0  0  0  0
    7.3346    1.6200    0.0000 H   0  0  0  0  0  0  0  0  0  0  0  0
    8.1316    1.6200    0.0000 H   0  0  0  0  0  0  0  0  0  0  0  0
    7.2656    3.0700    0.0000 H   0  0  0  0  0  0  0  0  0  0  0  0
    6.4685    3.0700    0.0000 H   0  0  0  0  0  0  0  0  0  0  0  0
    8.0622    2.9050    0.0000 H   0  0  0  0  0  0  0  0  0  0  0  0
    5.6025    1.6200    0.0000 H   0  0  0  0  0  0  0  0  0  0  0  0
    6.3996    1.6200    0.0000 H   0  0  0  0  0  0  0  0  0  0  0  0
   10.0021    1.7850    0.0000 H   0  0  0  0  0  0  0  0  0  0  0  0
    5.5335    3.0700    0.0000 H   0  0  0  0  0  0  0  0  0  0  0  0
    4.7365    3.0700    0.0000 H   0  0  0  0  0  0  0  0  0  0  0  0
    3.8705    1.6200    0.0000 H   0  0  0  0  0  0  0  0  0  0  0  0
    4.6675    1.6200    0.0000 H   0  0  0  0  0  0  0  0  0  0  0  0
   10.3312    3.2150    0.0000 H   0  0  0  0  0  0  0  0  0  0  0  0
   11.4092   -2.4876    0.0000 H   0  0  0  0  0  0  0  0  0  0  0  0
   11.8078   -1.7973    0.0000 H   0  0  0  0  0  0  0  0  0  0  0  0
    8.0622    3.9050    0.0000 H   0  0  0  0  0  0  0  0  0  0  0  0
   10.1191   -1.8224    0.0000 H   0  0  0  0  0  0  0  0  0  0  0  0
    9.7206   -2.5127    0.0000 H   0  0  0  0  0  0  0  0  0  0  0  0
   10.9851   -0.3224    0.0000 H   0  0  0  0  0  0  0  0  0  0  0  0
   10.5866   -1.0127    0.0000 H   0  0  0  0  0  0  0  0  0  0  0  0
   11.7341    2.4050    0.0000 H   0  0  0  0  0  0  0  0  0  0  0  0
   10.5432   -3.9876    0.0000 H   0  0  0  0  0  0  0  0  0  0  0  0
   10.9417   -3.2973    0.0000 H   0  0  0  0  0  0  0  0  0  0  0  0
    8.9282    0.7850    0.0000 H   0  0  0  0  0  0  0  0  0  0  0  0
   10.5866    1.2027    0.0000 H   0  0  0  0  0  0  0  0  0  0  0  0
   10.9851    0.5124    0.0000 H   0  0  0  0  0  0  0  0  0  0  0  0
   12.6002   -0.7150    0.0000 H   0  0  0  0  0  0  0  0  0  0  0  0
   12.6002    0.9050    0.0000 H   0  0  0  0  0  0  0  0  0  0  0  0
    9.1551   -3.3681    0.0000 H   0  0  0  0  0  0  0  0  0  0  0  0
    8.9282   -4.2150    0.0000 H   0  0  0  0  0  0  0  0  0  0  0  0
    9.7751   -4.4419    0.0000 H   0  0  0  0  0  0  0  0  0  0  0  0
    2.0000    2.4050    0.0000 H   0  0  0  0  0  0  0  0  0  0  0  0
  7  1  1  6  0  0  0
  1 38  1  0  0  0  0
  9  2  1  6  0  0  0
  2 46  1  0  0  0  0
  3 20  1  0  0  0  0
  3 54  1  0  0  0  0
  4 20  2  0  0  0  0
  5  6  1  0  0  0  0
  5  7  1  0  0  0  0
  5 23  1  0  0  0  0
  5 24  1  0  0  0  0
  6  8  1  0  0  0  0
  6 25  1  0  0  0  0
  6 26  1  0  0  0  0
  7  9  1  0  0  0  0
  7 27  1  0  0  0  0
  8 10  1  0  0  0  0
  8 28  1  0  0  0  0
  8 29  1  0  0  0  0
  9 12  1  0  0  0  0
  9 30  1  0  0  0  0
 10 11  1  0  0  0  0
 10 31  1  0  0  0  0
 10 32  1  0  0  0  0
 11 20  1  0  0  0  0
 11 33  1  0  0  0  0
 11 34  1  0  0  0  0
 12 16  2  0  0  0  0
 12 35  1  0  0  0  0
 13 14  1  0  0  0  0
 13 15  1  0  0  0  0
 13 36  1  0  0  0  0
 13 37  1  0  0  0  0
 14 17  1  0  0  0  0
 14 39  1  0  0  0  0
 14 40  1  0  0  0  0
 15 19  1  0  0  0  0
 15 41  1  0  0  0  0
 15 42  1  0  0  0  0
 16 18  1  0  0  0  0
 16 43  1  0  0  0  0
 17 22  1  0  0  0  0
 17 44  1  0  0  0  0
 17 45  1  0  0  0  0
 18 21  1  0  0  0  0
 18 47  1  0  0  0  0
 18 48  1  0  0  0  0
 19 21  2  0  0  0  0
 19 49  1  0  0  0  0
 21 50  1  0  0  0  0
 22 51  1  0  0  0  0
 22 52  1  0  0  0  0
 22 53  1  0  0  0  0
M  END
> <PUBCHEM_COMPOUND_CID>
5460412

> <PUBCHEM_COMPOUND_CANONICALIZED>
1

> <PUBCHEM_CACTVS_COMPLEXITY>
323

> <PUBCHEM_CACTVS_HBOND_ACCEPTOR>
4

> <PUBCHEM_CACTVS_HBOND_DONOR>
3

> <PUBCHEM_CACTVS_ROTATABLE_BOND>
14

> <PUBCHEM_CACTVS_SUBSKEYS>
AAADcfB4OAAAAAAAAAAAAAAAAAAAAAAAAAAAAAAAAAAAAAAAAAAAGgAACAAACBSggAICCAAAAgCIACDSCAAAAAAgAAAICAEAAAgBFBIAAQAAUAAEwAAJEAOIyKCAAAAAAAAAAAAAAAAAAAAAAAAAAAAAAA==

> <PUBCHEM_IUPAC_OPENEYE_NAME>
(7S,8S,9Z,12Z)-7,8-dihydroxyoctadeca-9,12-dienoic acid

> <PUBCHEM_IUPAC_CAS_NAME>
(7S,8S,9Z,12Z)-7,8-dihydroxyoctadeca-9,12-dienoic acid

> <PUBCHEM_IUPAC_NAME>
(7S,8S,9Z,12Z)-7,8-dihydroxyoctadeca-9,12-dienoic acid

> <PUBCHEM_IUPAC_SYSTEMATIC_NAME>
(7S,8S,9Z,12Z)-7,8-bis(oxidanyl)octadeca-9,12-dienoic acid

> <PUBCHEM_IUPAC_TRADITIONAL_NAME>
(7S,8S,9Z,12Z)-7,8-dihydroxyoctadeca-9,12-dienoic acid

> <PUBCHEM_IUPAC_INCHI>
InChI=1S/C18H32O4/c1-2-3-4-5-6-7-8-10-13-16(19)17(20)14-11-9-12-15-18(21)22/h6-7,10,13,16-17,19-20H,2-5,8-9,11-12,14-15H2,1H3,(H,21,22)/b7-6-,13-10-/t16-,17-/m0/s1

> <PUBCHEM_IUPAC_INCHIKEY>
NMONGVDUESEHOK-MPOZZNMKSA-N

> <PUBCHEM_XLOGP3_AA>
3.9

> <PUBCHEM_EXACT_MASS>
312.23006

> <PUBCHEM_MOLECULAR_FORMULA>
C18H32O4

> <PUBCHEM_MOLECULAR_WEIGHT>
312.44428

> <PUBCHEM_OPENEYE_CAN_SMILES>
CCCCCC=CCC=CC(C(CCCCCC(=O)O)O)O

> <PUBCHEM_OPENEYE_ISO_SMILES>
CCCCC/C=C\C/C=C\[C@@H]([C@H](CCCCCC(=O)O)O)O

> <PUBCHEM_CACTVS_TPSA>
77.8

> <PUBCHEM_MONOISOTOPIC_WEIGHT>
312.23006

> <PUBCHEM_TOTAL_CHARGE>
0

> <PUBCHEM_HEAVY_ATOM_COUNT>
22

> <PUBCHEM_ATOM_DEF_STEREO_COUNT>
2

> <PUBCHEM_ATOM_UDEF_STEREO_COUNT>
0

> <PUBCHEM_BOND_DEF_STEREO_COUNT>
2

> <PUBCHEM_BOND_UDEF_STEREO_COUNT>
0

> <PUBCHEM_ISOTOPIC_ATOM_COUNT>
0

> <PUBCHEM_COMPONENT_COUNT>
1

> <PUBCHEM_CACTVS_TAUTO_COUNT>
1

> <PUBCHEM_COORDINATE_TYPE>
1
5
255

> <PUBCHEM_BONDANNOTATIONS>
7  1  6
9  2  6

$$$$

