   Color/Form
        Bright yellow crystals
   from [1]HSDB

   Melting Point
        Decomposes at 248 deg C
   from [2]HSDB

   Dissociation Constants
        pKa1 = 9.4; pKa2 = 10.7 (amines) (est)
   from [3]HSDB

   Octanol/Water Partition Coefficient
        log Kow = 5.75 at 25 deg C (est)
   from [4]HSDB

   Solubilities

     * 1g in 36 ml water
     * Slightly soluble in ethanol
     * Insoluble in alcohol, benzene, chloroform and ether

   from [5]HSDB

   Spectral Properties
        MASS: 3099 (National Bureau of Standards EPA-NIH Mass Spectra Data
   Base, NSRDS-NBS-63)
   from [6]HSDB

   Vapor Pressure
        1.8X10-10 mm Hg at 25 deg C (est)
   from [7]HSDB

   Other Chemical/Physical Properties

     * Upon decomposition emits NOx
     * Bright bright yellow crystals. Decomposes 248-258 deg C. MP poorly
       discernable. 1 gram soluble in 35 mL water. Slightly soluble in
       Ethanol. Somewhat more soluble in methanol. Insoluble in ether,
       benzene and acetone. pH of 1% aq soln approx 4.5. Under UV light
       yellow aq soln exhibit a vivid fluorescence whihc is detectable in
       dilution of 1:5,000,000. /Dihydrochloride dihydrate/
     * Bright bright yellow crystals; 1 part dissolves in 3 parts water at
       15.5 deg C, 36 parts ethanol at 15.5 deg C. pH of 2% soln 3-5
       /Methane sulfonate/
     * Yellowish needles from water; max absorption (water, pH 6.5): 343
       nm (log E= 3.7); 424 nm (log E= 3.9); 444 nm (log E= 3.9)
       /Hydrochloride, dl/
     * Melting point: ca 250 deg C /Hydrochloride/
     * Henry's Law constant = 6.2X10-15 atm-cu m/mole at 25 deg C (est)
     * Hydroxy radical reaction rate constant = 3.2X10-10 cu cm/molec-sec
       at 25 deg C (est)

   from [8]HSDB

   Computed Properties
   Molecular Weight                  399.9568 [g/mol]
   Molecular Formula                 C[23]H[30]ClN[3]O
   XLogP3-AA                         6
   H-Bond Donor                      1
   H-Bond Acceptor                   4
   Rotatable Bond Count              9
   Tautomer Count                    2
   Exact Mass                        399.20774
   MonoIsotopic Mass                 399.20774
   Topological Polar Surface Area    37.4
   Heavy Atom Count                  28
   Formal Charge                     0
   Complexity                        461
   Isotope Atom Count                0
   Defined Atom Stereocenter Count   0
   Undefined Atom Stereocenter Count 1
   Defined Bond Stereocenter Count   0
   Undefined Bond Stereocenter Count 0
   Covalently-Bonded Unit Count      1
   Feature 3D Acceptor Count         2
   Feature 3D Donor Count            1
   Feature 3D Cation Count           2
   Feature 3D Ring Count             3
   Effective Rotor Count             9
   Conformer Sampling RMSD           1
   CID Conformer Count               [9]81

References

   1. http://toxnet.nlm.nih.gov/cgi-bin/sis/search/r?dbs+hsdb:@term+@rn+@rel+83-89-6
   2. http://toxnet.nlm.nih.gov/cgi-bin/sis/search/r?dbs+hsdb:@term+@rn+@rel+83-89-6
   3. http://toxnet.nlm.nih.gov/cgi-bin/sis/search/r?dbs+hsdb:@term+@rn+@rel+83-89-6
   4. http://toxnet.nlm.nih.gov/cgi-bin/sis/search/r?dbs+hsdb:@term+@rn+@rel+83-89-6
   5. http://toxnet.nlm.nih.gov/cgi-bin/sis/search/r?dbs+hsdb:@term+@rn+@rel+83-89-6
   6. http://toxnet.nlm.nih.gov/cgi-bin/sis/search/r?dbs+hsdb:@term+@rn+@rel+83-89-6
   7. http://toxnet.nlm.nih.gov/cgi-bin/sis/search/r?dbs+hsdb:@term+@rn+@rel+83-89-6
   8. http://toxnet.nlm.nih.gov/cgi-bin/sis/search/r?dbs+hsdb:@term+@rn+@rel+83-89-6
   9. http://pubchem.ncbi.nlm.nih.gov/vw3d/vw3d.cgi?cid=237
