   Color/Form

     * Colorless liquid
     * Yellowish liquid
     * Amber-colored liquid

   from [1]HSDB

   Odor
        Mild odor
   from [2]HSDB

   Melting Point
        -23 to -19 deg C
   from [3]HSDB

   Corrosivity
        Corrosive to metal
   from [4]HSDB

   Density/Specific Gravity
        1.36 g/cu cm @ 20 deg C
   from [5]HSDB

   Octanol/Water Partition Coefficient
        log Kow = 3.81
   from [6]HSDB

   Solubilities

     * Miscible with most common organic solvents, e.g. acetone, ethanol,
       kerosene, xylene, propylene glycol, dichloromethane, hexane.
     * In water, 124 mg/l at 20 deg C [Bowman BT, Sans WW; J Environ Sci
       Health B18: 221-7 (1983)] [7]PubMed Abstract

   from [8]HSDB

   Spectral Properties

     * Index of refraction: 1.5272 @ 25 deg C/D
     * Intense mass spectral peaks: 267 m/z (100%), 323 m/z (76%), 269 m/z
       (63%), 325 m/z (50%)

   from [9]HSDB

   Vapor Pressure
        7.5X10-6 mm Hg @ 25 deg C
   from [10]HSDB

   Other Chemical/Physical Properties

     * IT IS A MIXTURE OF THE CIS & TRANS ISOMERS OF THE PHOSPHATE
     * INDEX OF REFRACTION: 1.5281 AT 20 DEG C/D /Z-ISOMER/
     * INDEX OF REFRACTION: 1.4210 @ 20 DEG C/D /E-ISOMER/
     * Slowly hydrolyzed by water
     * Amber liquid; bp: 167-170 deg C at 0.5 mm Hg /Technical
       chlorfenvinphos/
     * Vapor pressure: 1.7X10-7 mm Hg @ 25 deg C /Technical/

   from [11]HSDB

   Computed Properties
   Molecular Weight                  359.569922 [g/mol]
   Molecular Formula                 C[12]H[14]Cl[3]O[4]P
   XLogP3                            3.1
   H-Bond Donor                      0
   H-Bond Acceptor                   4
   Rotatable Bond Count              7
   Exact Mass                        357.969529
   MonoIsotopic Mass                 357.969529
   Topological Polar Surface Area    44.8
   Heavy Atom Count                  20
   Formal Charge                     0
   Complexity                        368
   Isotope Atom Count                0
   Defined Atom Stereocenter Count   0
   Undefined Atom Stereocenter Count 0
   Defined Bond Stereocenter Count   1
   Undefined Bond Stereocenter Count 0
   Covalently-Bonded Unit Count      1
   Feature 3D Acceptor Count         1
   Feature 3D Ring Count             1
   Effective Rotor Count             7
   Conformer Sampling RMSD           0.8
   CID Conformer Count               [12]95

References

   1. http://toxnet.nlm.nih.gov/cgi-bin/sis/search/r?dbs+hsdb:@term+@rn+@rel+470-90-6
   2. http://toxnet.nlm.nih.gov/cgi-bin/sis/search/r?dbs+hsdb:@term+@rn+@rel+470-90-6
   3. http://toxnet.nlm.nih.gov/cgi-bin/sis/search/r?dbs+hsdb:@term+@rn+@rel+470-90-6
   4. http://toxnet.nlm.nih.gov/cgi-bin/sis/search/r?dbs+hsdb:@term+@rn+@rel+470-90-6
   5. http://toxnet.nlm.nih.gov/cgi-bin/sis/search/r?dbs+hsdb:@term+@rn+@rel+470-90-6
   6. http://toxnet.nlm.nih.gov/cgi-bin/sis/search/r?dbs+hsdb:@term+@rn+@rel+470-90-6
   7. http://www.ncbi.nlm.nih.gov/entrez/query.fcgi?cmd=Retrieve&db=pubmed&dopt=Abstract&list_uids=6853964
   8. http://toxnet.nlm.nih.gov/cgi-bin/sis/search/r?dbs+hsdb:@term+@rn+@rel+470-90-6
   9. http://toxnet.nlm.nih.gov/cgi-bin/sis/search/r?dbs+hsdb:@term+@rn+@rel+470-90-6
  10. http://toxnet.nlm.nih.gov/cgi-bin/sis/search/r?dbs+hsdb:@term+@rn+@rel+470-90-6
  11. http://toxnet.nlm.nih.gov/cgi-bin/sis/search/r?dbs+hsdb:@term+@rn+@rel+470-90-6
  12. http://pubchem.ncbi.nlm.nih.gov/vw3d/vw3d.cgi?cid=5377791
