7846964
  -OEChem-06241222482D

 46 48  0     1  0  0  0  0  0999 V2000
    4.6783    2.8281    0.0000 S   0  0  0  0  0  0  0  0  0  0  0  0
    8.2619    0.2913    0.0000 O   0  0  0  0  0  0  0  0  0  0  0  0
    9.2619   -1.4407    0.0000 O   0  0  0  0  0  0  0  0  0  0  0  0
    8.2619    2.0234    0.0000 O   0  0  0  0  0  0  0  0  0  0  0  0
   10.7619   -0.5747    0.0000 N   0  0  0  0  0  0  0  0  0  0  0  0
    4.6783    1.2187    0.0000 N   0  0  0  0  0  0  0  0  0  0  0  0
   11.2619   -1.4407    0.0000 C   0  0  0  0  0  0  0  0  0  0  0  0
   10.8551   -2.3543    0.0000 C   0  0  0  0  0  0  0  0  0  0  0  0
   12.2564   -1.5452    0.0000 C   0  0  0  0  0  0  0  0  0  0  0  0
   11.5983   -3.0234    0.0000 C   0  0  0  0  0  0  0  0  0  0  0  0
   12.4643   -2.5234    0.0000 C   0  0  0  0  0  0  0  0  0  0  0  0
    9.7619   -0.5747    0.0000 C   0  0  0  0  0  0  0  0  0  0  0  0
    9.2619    0.2913    0.0000 C   0  0  2  0  0  0  0  0  0  0  0  0
    9.7619    1.1574    0.0000 C   0  0  0  0  0  0  0  0  0  0  0  0
    6.7619    1.1574    0.0000 C   0  0  0  0  0  0  0  0  0  0  0  0
    7.7619    1.1574    0.0000 C   0  0  0  0  0  0  0  0  0  0  0  0
    6.2619    2.0234    0.0000 C   0  0  0  0  0  0  0  0  0  0  0  0
    5.2619    2.0234    0.0000 C   0  0  0  0  0  0  0  0  0  0  0  0
    3.7320    2.5234    0.0000 C   0  0  0  0  0  0  0  0  0  0  0  0
    3.7320    1.5234    0.0000 C   0  0  0  0  0  0  0  0  0  0  0  0
    2.8660    3.0234    0.0000 C   0  0  0  0  0  0  0  0  0  0  0  0
    2.8660    1.0234    0.0000 C   0  0  0  0  0  0  0  0  0  0  0  0
    2.0000    2.5234    0.0000 C   0  0  0  0  0  0  0  0  0  0  0  0
    2.0000    1.5234    0.0000 C   0  0  0  0  0  0  0  0  0  0  0  0
   11.5996   -0.9207    0.0000 H   0  0  0  0  0  0  0  0  0  0  0  0
   12.8730   -1.4804    0.0000 H   0  0  0  0  0  0  0  0  0  0  0  0
   12.2564   -0.9252    0.0000 H   0  0  0  0  0  0  0  0  0  0  0  0
   10.3182   -2.0443    0.0000 H   0  0  0  0  0  0  0  0  0  0  0  0
   10.4907   -2.8559    0.0000 H   0  0  0  0  0  0  0  0  0  0  0  0
   12.7165   -3.0898    0.0000 H   0  0  0  0  0  0  0  0  0  0  0  0
   13.0540   -2.3318    0.0000 H   0  0  0  0  0  0  0  0  0  0  0  0
   11.1375   -3.4382    0.0000 H   0  0  0  0  0  0  0  0  0  0  0  0
   11.9627   -3.5250    0.0000 H   0  0  0  0  0  0  0  0  0  0  0  0
   11.0719   -0.0378    0.0000 H   0  0  0  0  0  0  0  0  0  0  0  0
    8.9519   -0.2456    0.0000 H   0  0  0  0  0  0  0  0  0  0  0  0
   10.2988    0.8474    0.0000 H   0  0  0  0  0  0  0  0  0  0  0  0
   10.0719    1.6943    0.0000 H   0  0  0  0  0  0  0  0  0  0  0  0
    9.2249    1.4674    0.0000 H   0  0  0  0  0  0  0  0  0  0  0  0
    6.1793    0.9453    0.0000 H   0  0  0  0  0  0  0  0  0  0  0  0
    6.8695    0.5468    0.0000 H   0  0  0  0  0  0  0  0  0  0  0  0
    6.8445    2.2354    0.0000 H   0  0  0  0  0  0  0  0  0  0  0  0
    6.1542    2.6340    0.0000 H   0  0  0  0  0  0  0  0  0  0  0  0
    2.8660    3.6434    0.0000 H   0  0  0  0  0  0  0  0  0  0  0  0
    2.8660    0.4034    0.0000 H   0  0  0  0  0  0  0  0  0  0  0  0
    1.4631    2.8334    0.0000 H   0  0  0  0  0  0  0  0  0  0  0  0
    1.4631    1.2134    0.0000 H   0  0  0  0  0  0  0  0  0  0  0  0
  1 18  1  0  0  0  0
  1 19  1  0  0  0  0
 13  2  1  1  0  0  0
  2 16  1  0  0  0  0
  3 12  2  0  0  0  0
  4 16  2  0  0  0  0
  5  7  1  0  0  0  0
  5 12  1  0  0  0  0
  5 34  1  0  0  0  0
  6 18  2  0  0  0  0
  6 20  1  0  0  0  0
  7  8  1  0  0  0  0
  7  9  1  0  0  0  0
  7 25  1  0  0  0  0
  8 10  1  0  0  0  0
  8 28  1  0  0  0  0
  8 29  1  0  0  0  0
  9 11  1  0  0  0  0
  9 26  1  0  0  0  0
  9 27  1  0  0  0  0
 10 11  1  0  0  0  0
 10 32  1  0  0  0  0
 10 33  1  0  0  0  0
 11 30  1  0  0  0  0
 11 31  1  0  0  0  0
 12 13  1  0  0  0  0
 13 14  1  0  0  0  0
 13 35  1  0  0  0  0
 14 36  1  0  0  0  0
 14 37  1  0  0  0  0
 14 38  1  0  0  0  0
 15 16  1  0  0  0  0
 15 17  1  0  0  0  0
 15 39  1  0  0  0  0
 15 40  1  0  0  0  0
 17 18  1  0  0  0  0
 17 41  1  0  0  0  0
 17 42  1  0  0  0  0
 19 20  1  0  0  0  0
 19 21  2  0  0  0  0
 20 22  2  0  0  0  0
 21 23  1  0  0  0  0
 21 43  1  0  0  0  0
 22 24  1  0  0  0  0
 22 44  1  0  0  0  0
 23 24  2  0  0  0  0
 23 45  1  0  0  0  0
 24 46  1  0  0  0  0
M  END
> <PUBCHEM_COMPOUND_CID>
7846964

> <PUBCHEM_COMPOUND_CANONICALIZED>
1

> <PUBCHEM_CACTVS_COMPLEXITY>
454

> <PUBCHEM_CACTVS_HBOND_ACCEPTOR>
5

> <PUBCHEM_CACTVS_HBOND_DONOR>
1

> <PUBCHEM_CACTVS_ROTATABLE_BOND>
7

> <PUBCHEM_CACTVS_SUBSKEYS>
AAADceB7MABAAAAAAAAAAAAAAAAAAeIAAAAwAAAAAAAAAFgB8AAAHgQQAAAACDzh1gYyybLIFAisASXyXAKD8KBhCjhImL14ZJgKILLgkZWHIAhklgD4yAc0AAAAAAAAAAAAAQAAAAAAAAACAAAAAAAAAA==

> <PUBCHEM_IUPAC_OPENEYE_NAME>
[(1S)-2-(cyclopentylamino)-1-methyl-2-oxo-ethyl] 3-(1,3-benzothiazol-2-yl)propanoate

> <PUBCHEM_IUPAC_CAS_NAME>
3-(1,3-benzothiazol-2-yl)propanoic acid [(2S)-1-(cyclopentylamino)-1-oxopropan-2-yl] ester

> <PUBCHEM_IUPAC_NAME>
[(2S)-1-(cyclopentylamino)-1-oxopropan-2-yl] 3-(1,3-benzothiazol-2-yl)propanoate

> <PUBCHEM_IUPAC_SYSTEMATIC_NAME>
[(2S)-1-(cyclopentylamino)-1-oxidanylidene-propan-2-yl] 3-(1,3-benzothiazol-2-yl)propanoate

> <PUBCHEM_IUPAC_TRADITIONAL_NAME>
3-(1,3-benzothiazol-2-yl)propionic acid [(1S)-2-(cyclopentylamino)-2-keto-1-methyl-ethyl] ester

> <PUBCHEM_IUPAC_INCHI>
InChI=1S/C18H22N2O3S/c1-12(18(22)19-13-6-2-3-7-13)23-17(21)11-10-16-20-14-8-4-5-9-15(14)24-16/h4-5,8-9,12-13H,2-3,6-7,10-11H2,1H3,(H,19,22)/t12-/m0/s1

> <PUBCHEM_IUPAC_INCHIKEY>
PMIMTALGUGSBCZ-LBPRGKRZSA-N

> <PUBCHEM_XLOGP3_AA>
3.5

> <PUBCHEM_EXACT_MASS>
346.135114

> <PUBCHEM_MOLECULAR_FORMULA>
C18H22N2O3S

> <PUBCHEM_MOLECULAR_WEIGHT>
346.44388

> <PUBCHEM_OPENEYE_CAN_SMILES>
CC(C(=O)NC1CCCC1)OC(=O)CCC2=NC3=CC=CC=C3S2

> <PUBCHEM_OPENEYE_ISO_SMILES>
C[C@@H](C(=O)NC1CCCC1)OC(=O)CCC2=NC3=CC=CC=C3S2

> <PUBCHEM_CACTVS_TPSA>
96.5

> <PUBCHEM_MONOISOTOPIC_WEIGHT>
346.135114

> <PUBCHEM_TOTAL_CHARGE>
0

> <PUBCHEM_HEAVY_ATOM_COUNT>
24

> <PUBCHEM_ATOM_DEF_STEREO_COUNT>
1

> <PUBCHEM_ATOM_UDEF_STEREO_COUNT>
0

> <PUBCHEM_BOND_DEF_STEREO_COUNT>
0

> <PUBCHEM_BOND_UDEF_STEREO_COUNT>
0

> <PUBCHEM_ISOTOPIC_ATOM_COUNT>
0

> <PUBCHEM_COMPONENT_COUNT>
1

> <PUBCHEM_CACTVS_TAUTO_COUNT>
4

> <PUBCHEM_COORDINATE_TYPE>
1
5
255

> <PUBCHEM_BONDANNOTATIONS>
1  18  8
1  19  8
19  20  8
19  21  8
13  2  5
20  22  8
21  23  8
22  24  8
23  24  8
6  18  8
6  20  8

$$$$

