854094
  -OEChem-06241222472D

 41 43  0     0  0  0  0  0  0999 V2000
    7.2622   -1.0396    0.0000 Cl  0  0  0  0  0  0  0  0  0  0  0  0
    3.7320    0.9846    0.0000 O   0  0  0  0  0  0  0  0  0  0  0  0
    7.2622    1.0088    0.0000 O   0  0  0  0  0  0  0  0  0  0  0  0
    2.0000    0.9846    0.0000 O   0  0  0  0  0  0  0  0  0  0  0  0
    4.5981   -0.5154    0.0000 C   0  0  0  0  0  0  0  0  0  0  0  0
    3.7320   -1.0154    0.0000 C   0  0  0  0  0  0  0  0  0  0  0  0
    4.5981    0.4846    0.0000 C   0  0  0  0  0  0  0  0  0  0  0  0
    3.7320   -2.0154    0.0000 C   0  0  0  0  0  0  0  0  0  0  0  0
    5.4920   -1.0501    0.0000 C   0  0  0  0  0  0  0  0  0  0  0  0
    5.4920    1.0193    0.0000 C   0  0  0  0  0  0  0  0  0  0  0  0
    6.3981    0.5054    0.0000 C   0  0  0  0  0  0  0  0  0  0  0  0
    2.8660   -0.5154    0.0000 C   0  0  0  0  0  0  0  0  0  0  0  0
    6.3981   -0.5362    0.0000 C   0  0  0  0  0  0  0  0  0  0  0  0
    2.8660    0.4846    0.0000 C   0  0  0  0  0  0  0  0  0  0  0  0
    2.8660   -2.5154    0.0000 C   0  0  0  0  0  0  0  0  0  0  0  0
    4.5981   -2.5154    0.0000 C   0  0  0  0  0  0  0  0  0  0  0  0
    7.2583    2.0087    0.0000 C   0  0  0  0  0  0  0  0  0  0  0  0
    2.8660   -3.5154    0.0000 C   0  0  0  0  0  0  0  0  0  0  0  0
    4.5981   -3.5154    0.0000 C   0  0  0  0  0  0  0  0  0  0  0  0
    8.1224    2.5121    0.0000 C   0  0  0  0  0  0  0  0  0  0  0  0
    8.1186    3.5121    0.0000 C   0  0  0  0  0  0  0  0  0  0  0  0
    3.7320   -4.0154    0.0000 C   0  0  0  0  0  0  0  0  0  0  0  0
    8.9826    4.0154    0.0000 C   0  0  0  0  0  0  0  0  0  0  0  0
    7.2506    4.0087    0.0000 C   0  0  0  0  0  0  0  0  0  0  0  0
    5.4848   -1.6700    0.0000 H   0  0  0  0  0  0  0  0  0  0  0  0
    5.4848    1.6392    0.0000 H   0  0  0  0  0  0  0  0  0  0  0  0
    2.3291   -0.8254    0.0000 H   0  0  0  0  0  0  0  0  0  0  0  0
    2.3291   -2.2054    0.0000 H   0  0  0  0  0  0  0  0  0  0  0  0
    5.1350   -2.2054    0.0000 H   0  0  0  0  0  0  0  0  0  0  0  0
    7.0440    2.5905    0.0000 H   0  0  0  0  0  0  0  0  0  0  0  0
    6.6482    1.8987    0.0000 H   0  0  0  0  0  0  0  0  0  0  0  0
    2.3291   -3.8254    0.0000 H   0  0  0  0  0  0  0  0  0  0  0  0
    5.1350   -3.8254    0.0000 H   0  0  0  0  0  0  0  0  0  0  0  0
    8.6605    2.2042    0.0000 H   0  0  0  0  0  0  0  0  0  0  0  0
    3.7320   -4.6354    0.0000 H   0  0  0  0  0  0  0  0  0  0  0  0
    9.2947    3.4797    0.0000 H   0  0  0  0  0  0  0  0  0  0  0  0
    9.5184    4.3275    0.0000 H   0  0  0  0  0  0  0  0  0  0  0  0
    8.6706    4.5511    0.0000 H   0  0  0  0  0  0  0  0  0  0  0  0
    7.5585    4.5468    0.0000 H   0  0  0  0  0  0  0  0  0  0  0  0
    6.7125    4.3166    0.0000 H   0  0  0  0  0  0  0  0  0  0  0  0
    6.9427    3.4706    0.0000 H   0  0  0  0  0  0  0  0  0  0  0  0
  1 13  1  0  0  0  0
  2  7  1  0  0  0  0
  2 14  1  0  0  0  0
  3 11  1  0  0  0  0
  3 17  1  0  0  0  0
  4 14  2  0  0  0  0
  5  6  1  0  0  0  0
  5  7  1  0  0  0  0
  5  9  2  0  0  0  0
  6  8  1  0  0  0  0
  6 12  2  0  0  0  0
  7 10  2  0  0  0  0
  8 15  2  0  0  0  0
  8 16  1  0  0  0  0
  9 13  1  0  0  0  0
  9 25  1  0  0  0  0
 10 11  1  0  0  0  0
 10 26  1  0  0  0  0
 11 13  2  0  0  0  0
 12 14  1  0  0  0  0
 12 27  1  0  0  0  0
 15 18  1  0  0  0  0
 15 28  1  0  0  0  0
 16 19  2  0  0  0  0
 16 29  1  0  0  0  0
 17 20  1  0  0  0  0
 17 30  1  0  0  0  0
 17 31  1  0  0  0  0
 18 22  2  0  0  0  0
 18 32  1  0  0  0  0
 19 22  1  0  0  0  0
 19 33  1  0  0  0  0
 20 21  2  0  0  0  0
 20 34  1  0  0  0  0
 21 23  1  0  0  0  0
 21 24  1  0  0  0  0
 22 35  1  0  0  0  0
 23 36  1  0  0  0  0
 23 37  1  0  0  0  0
 23 38  1  0  0  0  0
 24 39  1  0  0  0  0
 24 40  1  0  0  0  0
 24 41  1  0  0  0  0
M  END
> <PUBCHEM_COMPOUND_CID>
854094

> <PUBCHEM_COMPOUND_CANONICALIZED>
1

> <PUBCHEM_CACTVS_COMPLEXITY>
515

> <PUBCHEM_CACTVS_HBOND_ACCEPTOR>
3

> <PUBCHEM_CACTVS_HBOND_DONOR>
0

> <PUBCHEM_CACTVS_ROTATABLE_BOND>
4

> <PUBCHEM_CACTVS_SUBSKEYS>
AAADceB4MAAEAAAAAAAAAAAAAAAAAAAAAAAwYIAAAAAAAACBQAAAGgIAAAAADAagmCIyDoAABACIAiDSCAACCAAgJUAIiAAGC8gMJyOFMxqCOiClwBUIqQeA4OwOICAAKAAICABAQABQABAQAAAAAAAAAA==

> <PUBCHEM_IUPAC_OPENEYE_NAME>
6-chloro-7-(3-methylbut-2-enoxy)-4-phenyl-chromen-2-one

> <PUBCHEM_IUPAC_CAS_NAME>
6-chloro-7-(3-methylbut-2-enoxy)-4-phenyl-1-benzopyran-2-one

> <PUBCHEM_IUPAC_NAME>
6-chloro-7-(3-methylbut-2-enoxy)-4-phenylchromen-2-one

> <PUBCHEM_IUPAC_SYSTEMATIC_NAME>
6-chloranyl-7-(3-methylbut-2-enoxy)-4-phenyl-chromen-2-one

> <PUBCHEM_IUPAC_TRADITIONAL_NAME>
6-chloro-7-(3-methylbut-2-enoxy)-4-phenyl-coumarin

> <PUBCHEM_IUPAC_INCHI>
InChI=1S/C20H17ClO3/c1-13(2)8-9-23-19-12-18-16(10-17(19)21)15(11-20(22)24-18)14-6-4-3-5-7-14/h3-8,10-12H,9H2,1-2H3

> <PUBCHEM_IUPAC_INCHIKEY>
FCCINCXMYNBVHB-UHFFFAOYSA-N

> <PUBCHEM_XLOGP3_AA>
5.2

> <PUBCHEM_EXACT_MASS>
340.086622

> <PUBCHEM_MOLECULAR_FORMULA>
C20H17ClO3

> <PUBCHEM_MOLECULAR_WEIGHT>
340.80018

> <PUBCHEM_OPENEYE_CAN_SMILES>
CC(=CCOC1=C(C=C2C(=CC(=O)OC2=C1)C3=CC=CC=C3)Cl)C

> <PUBCHEM_OPENEYE_ISO_SMILES>
CC(=CCOC1=C(C=C2C(=CC(=O)OC2=C1)C3=CC=CC=C3)Cl)C

> <PUBCHEM_CACTVS_TPSA>
35.5

> <PUBCHEM_MONOISOTOPIC_WEIGHT>
340.086622

> <PUBCHEM_TOTAL_CHARGE>
0

> <PUBCHEM_HEAVY_ATOM_COUNT>
24

> <PUBCHEM_ATOM_DEF_STEREO_COUNT>
0

> <PUBCHEM_ATOM_UDEF_STEREO_COUNT>
0

> <PUBCHEM_BOND_DEF_STEREO_COUNT>
0

> <PUBCHEM_BOND_UDEF_STEREO_COUNT>
0

> <PUBCHEM_ISOTOPIC_ATOM_COUNT>
0

> <PUBCHEM_COMPONENT_COUNT>
1

> <PUBCHEM_CACTVS_TAUTO_COUNT>
1

> <PUBCHEM_COORDINATE_TYPE>
1
5
255

> <PUBCHEM_BONDANNOTATIONS>
10  11  8
11  13  8
12  14  8
15  18  8
16  19  8
18  22  8
19  22  8
2  14  8
2  7  8
5  6  8
5  7  8
5  9  8
6  12  8
7  10  8
8  15  8
8  16  8
9  13  8

$$$$

