5281639
  -OEChem-07051212582D

 30 32  0     0  0  0  0  0  0999 V2000
    5.5301   -1.1633    0.0000 O   0  0  0  0  0  0  0  0  0  0  0  0
    2.0000   -1.1875    0.0000 O   0  0  0  0  0  0  0  0  0  0  0  0
    5.5301    1.8367    0.0000 O   0  0  0  0  0  0  0  0  0  0  0  0
    7.2785    1.8713    0.0000 O   0  0  0  0  0  0  0  0  0  0  0  0
    2.0000    0.8608    0.0000 O   0  0  0  0  0  0  0  0  0  0  0  0
    9.0602   -1.1875    0.0000 O   0  0  0  0  0  0  0  0  0  0  0  0
    4.6641    0.3367    0.0000 C   0  0  0  0  0  0  0  0  0  0  0  0
    6.3961    0.3367    0.0000 C   0  0  0  0  0  0  0  0  0  0  0  0
    4.6641   -0.6633    0.0000 C   0  0  0  0  0  0  0  0  0  0  0  0
    6.3961   -0.6633    0.0000 C   0  0  0  0  0  0  0  0  0  0  0  0
    5.5301    0.8367    0.0000 C   0  0  0  0  0  0  0  0  0  0  0  0
    3.7702    0.8713    0.0000 C   0  0  0  0  0  0  0  0  0  0  0  0
    7.2901    0.8713    0.0000 C   0  0  0  0  0  0  0  0  0  0  0  0
    3.7702   -1.1980    0.0000 C   0  0  0  0  0  0  0  0  0  0  0  0
    7.2901   -1.1980    0.0000 C   0  0  0  0  0  0  0  0  0  0  0  0
    2.8641   -0.6841    0.0000 C   0  0  0  0  0  0  0  0  0  0  0  0
    2.8641    0.3575    0.0000 C   0  0  0  0  0  0  0  0  0  0  0  0
    8.1962    0.3575    0.0000 C   0  0  0  0  0  0  0  0  0  0  0  0
    8.1962   -0.6841    0.0000 C   0  0  0  0  0  0  0  0  0  0  0  0
    2.0038   -2.1875    0.0000 C   0  0  0  0  0  0  0  0  0  0  0  0
    3.7773    1.4913    0.0000 H   0  0  0  0  0  0  0  0  0  0  0  0
    3.7773   -1.8179    0.0000 H   0  0  0  0  0  0  0  0  0  0  0  0
    7.2829   -1.8179    0.0000 H   0  0  0  0  0  0  0  0  0  0  0  0
    8.7319    0.6696    0.0000 H   0  0  0  0  0  0  0  0  0  0  0  0
    7.8118    2.1875    0.0000 H   0  0  0  0  0  0  0  0  0  0  0  0
    2.0024    1.4808    0.0000 H   0  0  0  0  0  0  0  0  0  0  0  0
    9.5984   -0.8795    0.0000 H   0  0  0  0  0  0  0  0  0  0  0  0
    1.3839   -2.1898    0.0000 H   0  0  0  0  0  0  0  0  0  0  0  0
    2.0062   -2.8075    0.0000 H   0  0  0  0  0  0  0  0  0  0  0  0
    2.6238   -2.1851    0.0000 H   0  0  0  0  0  0  0  0  0  0  0  0
  1  9  1  0  0  0  0
  1 10  1  0  0  0  0
  2 16  1  0  0  0  0
  2 20  1  0  0  0  0
  3 11  2  0  0  0  0
  4 13  1  0  0  0  0
  4 25  1  0  0  0  0
  5 17  1  0  0  0  0
  5 26  1  0  0  0  0
  6 19  1  0  0  0  0
  6 27  1  0  0  0  0
  7  9  1  0  0  0  0
  7 11  1  0  0  0  0
  7 12  2  0  0  0  0
  8 10  1  0  0  0  0
  8 11  1  0  0  0  0
  8 13  2  0  0  0  0
  9 14  2  0  0  0  0
 10 15  2  0  0  0  0
 12 17  1  0  0  0  0
 12 21  1  0  0  0  0
 13 18  1  0  0  0  0
 14 16  1  0  0  0  0
 14 22  1  0  0  0  0
 15 19  1  0  0  0  0
 15 23  1  0  0  0  0
 16 17  2  0  0  0  0
 18 19  2  0  0  0  0
 18 24  1  0  0  0  0
 20 28  1  0  0  0  0
 20 29  1  0  0  0  0
 20 30  1  0  0  0  0
M  END
> <PUBCHEM_COMPOUND_CID>
5281639

> <PUBCHEM_COMPOUND_CANONICALIZED>
1

> <PUBCHEM_CACTVS_COMPLEXITY>
386

> <PUBCHEM_CACTVS_HBOND_ACCEPTOR>
6

> <PUBCHEM_CACTVS_HBOND_DONOR>
3

> <PUBCHEM_CACTVS_ROTATABLE_BOND>
1

> <PUBCHEM_CACTVS_SUBSKEYS>
AAADccBwOAAAAAAAAAAAAAAAAAAAAAAAAAA0YIAAAAAAAACRQAAAGgAACAAADASAmAIyBoAABgCIAqBSAAACCAAkIAAAiAEGiMgNJzaGNRqCeWOl4BULuYfK7PzOIQABCAAIQABCAAIQABCAAAAAAAAAAA==

> <PUBCHEM_IUPAC_OPENEYE_NAME>
1,3,7-trihydroxy-6-methoxy-xanthen-9-one

> <PUBCHEM_IUPAC_CAS_NAME>
1,3,7-trihydroxy-6-methoxy-9-xanthenone

> <PUBCHEM_IUPAC_NAME>
1,3,7-trihydroxy-6-methoxyxanthen-9-one

> <PUBCHEM_IUPAC_SYSTEMATIC_NAME>
6-methoxy-1,3,7-tris(oxidanyl)xanthen-9-one

> <PUBCHEM_IUPAC_TRADITIONAL_NAME>
1,3,7-trihydroxy-6-methoxy-xanthone

> <PUBCHEM_IUPAC_INCHI>
InChI=1S/C14H10O6/c1-19-11-5-10-7(4-8(11)16)14(18)13-9(17)2-6(15)3-12(13)20-10/h2-5,15-17H,1H3

> <PUBCHEM_IUPAC_INCHIKEY>
DHIJSMOHBJPOJU-UHFFFAOYSA-N

> <PUBCHEM_XLOGP3_AA>
2.4

> <PUBCHEM_EXACT_MASS>
274.047738

> <PUBCHEM_MOLECULAR_FORMULA>
C14H10O6

> <PUBCHEM_MOLECULAR_WEIGHT>
274.2256

> <PUBCHEM_OPENEYE_CAN_SMILES>
COC1=C(C=C2C(=C1)OC3=CC(=CC(=C3C2=O)O)O)O

> <PUBCHEM_OPENEYE_ISO_SMILES>
COC1=C(C=C2C(=C1)OC3=CC(=CC(=C3C2=O)O)O)O

> <PUBCHEM_CACTVS_TPSA>
96.2

> <PUBCHEM_MONOISOTOPIC_WEIGHT>
274.047738

> <PUBCHEM_TOTAL_CHARGE>
0

> <PUBCHEM_HEAVY_ATOM_COUNT>
20

> <PUBCHEM_ATOM_DEF_STEREO_COUNT>
0

> <PUBCHEM_ATOM_UDEF_STEREO_COUNT>
0

> <PUBCHEM_BOND_DEF_STEREO_COUNT>
0

> <PUBCHEM_BOND_UDEF_STEREO_COUNT>
0

> <PUBCHEM_ISOTOPIC_ATOM_COUNT>
0

> <PUBCHEM_COMPONENT_COUNT>
1

> <PUBCHEM_CACTVS_TAUTO_COUNT>
36

> <PUBCHEM_COORDINATE_TYPE>
1
5
255

> <PUBCHEM_BONDANNOTATIONS>
1  10  8
1  9  8
10  15  8
12  17  8
13  18  8
14  16  8
15  19  8
16  17  8
18  19  8
7  11  8
7  12  8
7  9  8
8  10  8
8  11  8
8  13  8
9  14  8

$$$$

