   Color/Form
        Mobile, colorless liquid
   from [1]HSDB

   Odor
        Mild odor
   from [2]HSDB

   Boiling Point
        170.5
   from [3]HSDB

   Melting Point
        29 deg C
   from [4]HSDB

   Density/Specific Gravity
        1.2002 g/cu cm at 20 deg C
   from [5]HSDB

   Solubilities

     * Soluble in water; miscible with most organic solvents
     * In water, >10 g/100 mL at 20 deg C

   from [6]HSDB

   Spectral Properties

     * Index of refraction: 1.4036 at 20 deg C/D
     * Maximum absorbance: 200 nm (2.9X10-21 cu cm/molecule); 250 nm
       (4.0X10-22 cu cm/molecule)
     * MASS: 1552 (NIST/EPA/MSDC Mass Spectral Database 1990 version)
     * IR: 634 (Coblentz Society Spectral Collection)
     * 1H NMR: 6652 (Sadtler Research Laboratories Spectral Collection)
     * 13C NMR: 159 (Stothers, Carbon-13 NMR Spectroscopy, Academic Press,
       New York)

   from [7]HSDB

   Vapor Density
        7.9 (Air = 1)
   from [8]HSDB

   Vapor Pressure
        1.5 mm Hg at 20 deg C
   from [9]HSDB

   Viscosity
        1.06 centistokes at 25 deg C
   from [10]HSDB

   Other Chemical/Physical Properties

     * Volatility: 1.92X10+4 mg/cu m at 20 deg C
     * Hydroxy radical reaction rate constant = 5.08X10-12 cu cm/molec-sec
       at 25 deg C

   from [11]HSDB

   Computed Properties
   Molecular Weight                  109.041002 [g/mol]
   Molecular Formula                 C[2]H[6]O[3]P^+
   XLogP3-AA                         0
   H-Bond Donor                      0
   H-Bond Acceptor                   3
   Rotatable Bond Count              2
   Exact Mass                        109.005456
   MonoIsotopic Mass                 109.005456
   Topological Polar Surface Area    35.5
   Heavy Atom Count                  6
   Formal Charge                     1
   Complexity                        46.8
   Isotope Atom Count                0
   Defined Atom Stereocenter Count   0
   Undefined Atom Stereocenter Count 0
   Defined Bond Stereocenter Count   0
   Undefined Bond Stereocenter Count 0
   Covalently-Bonded Unit Count      1
   Feature 3D Acceptor Count         1
   Effective Rotor Count             2
   Conformer Sampling RMSD           0.4
   CID Conformer Count               [12]13

References

   1. http://toxnet.nlm.nih.gov/cgi-bin/sis/search/r?dbs+hsdb:@term+@rn+@rel+868-85-9
   2. http://toxnet.nlm.nih.gov/cgi-bin/sis/search/r?dbs+hsdb:@term+@rn+@rel+868-85-9
   3. http://toxnet.nlm.nih.gov/cgi-bin/sis/search/r?dbs+hsdb:@term+@rn+@rel+868-85-9
   4. http://toxnet.nlm.nih.gov/cgi-bin/sis/search/r?dbs+hsdb:@term+@rn+@rel+868-85-9
   5. http://toxnet.nlm.nih.gov/cgi-bin/sis/search/r?dbs+hsdb:@term+@rn+@rel+868-85-9
   6. http://toxnet.nlm.nih.gov/cgi-bin/sis/search/r?dbs+hsdb:@term+@rn+@rel+868-85-9
   7. http://toxnet.nlm.nih.gov/cgi-bin/sis/search/r?dbs+hsdb:@term+@rn+@rel+868-85-9
   8. http://toxnet.nlm.nih.gov/cgi-bin/sis/search/r?dbs+hsdb:@term+@rn+@rel+868-85-9
   9. http://toxnet.nlm.nih.gov/cgi-bin/sis/search/r?dbs+hsdb:@term+@rn+@rel+868-85-9
  10. http://toxnet.nlm.nih.gov/cgi-bin/sis/search/r?dbs+hsdb:@term+@rn+@rel+868-85-9
  11. http://toxnet.nlm.nih.gov/cgi-bin/sis/search/r?dbs+hsdb:@term+@rn+@rel+868-85-9
  12. http://pubchem.ncbi.nlm.nih.gov/vw3d/vw3d.cgi?cid=6327114
