9715
  -OEChem-06261203582D

 18 18  0     0  0  0  0  0  0999 V2000
    2.0000   -2.0670    0.0000 F   0  0  0  0  0  0  0  0  0  0  0  0
    2.3660   -0.7010    0.0000 F   0  0  0  0  0  0  0  0  0  0  0  0
    3.3660   -2.4330    0.0000 F   0  0  0  0  0  0  0  0  0  0  0  0
    7.1962   -2.0670    0.0000 F   0  0  0  0  0  0  0  0  0  0  0  0
    6.8301   -0.7010    0.0000 F   0  0  0  0  0  0  0  0  0  0  0  0
    5.8301   -2.4330    0.0000 F   0  0  0  0  0  0  0  0  0  0  0  0
    4.5981    2.4330    0.0000 F   0  0  0  0  0  0  0  0  0  0  0  0
    5.5981    1.4330    0.0000 F   0  0  0  0  0  0  0  0  0  0  0  0
    3.5981    1.4330    0.0000 F   0  0  0  0  0  0  0  0  0  0  0  0
    4.5981   -1.5670    0.0000 N   0  0  0  0  0  0  0  0  0  0  0  0
    3.7320   -0.0670    0.0000 N   0  0  0  0  0  0  0  0  0  0  0  0
    5.4641   -0.0670    0.0000 N   0  0  0  0  0  0  0  0  0  0  0  0
    3.7320   -1.0670    0.0000 C   0  0  0  0  0  0  0  0  0  0  0  0
    5.4641   -1.0670    0.0000 C   0  0  0  0  0  0  0  0  0  0  0  0
    4.5981    0.4330    0.0000 C   0  0  0  0  0  0  0  0  0  0  0  0
    2.8660   -1.5670    0.0000 C   0  0  0  0  0  0  0  0  0  0  0  0
    6.3301   -1.5670    0.0000 C   0  0  0  0  0  0  0  0  0  0  0  0
    4.5981    1.4330    0.0000 C   0  0  0  0  0  0  0  0  0  0  0  0
  1 16  1  0  0  0  0
  2 16  1  0  0  0  0
  3 16  1  0  0  0  0
  4 17  1  0  0  0  0
  5 17  1  0  0  0  0
  6 17  1  0  0  0  0
  7 18  1  0  0  0  0
  8 18  1  0  0  0  0
  9 18  1  0  0  0  0
 10 13  1  0  0  0  0
 10 14  2  0  0  0  0
 11 13  2  0  0  0  0
 11 15  1  0  0  0  0
 12 14  1  0  0  0  0
 12 15  2  0  0  0  0
 13 16  1  0  0  0  0
 14 17  1  0  0  0  0
 15 18  1  0  0  0  0
M  END
> <PUBCHEM_COMPOUND_CID>
9715

> <PUBCHEM_COMPOUND_CANONICALIZED>
1

> <PUBCHEM_CACTVS_COMPLEXITY>
233

> <PUBCHEM_CACTVS_HBOND_ACCEPTOR>
12

> <PUBCHEM_CACTVS_HBOND_DONOR>
0

> <PUBCHEM_CACTVS_ROTATABLE_BOND>
0

> <PUBCHEM_CACTVS_SUBSKEYS>
AAADcQBjAcAAAAAAAAAAAAAAAAAAAAAAAAAsAAAAAAAAAAABgAAADQAAAAAAAAABAxABEAYIEAAgAAIgJAAAgAkAAKABAAAAAACACAAACAAAAAAIAAKAAAAAAAAAAAAAAAAAAAAAAAAAAAAAAAAAAAAAAA==

> <PUBCHEM_IUPAC_OPENEYE_NAME>
2,4,6-tris(trifluoromethyl)-1,3,5-triazine

> <PUBCHEM_IUPAC_CAS_NAME>
2,4,6-tris(trifluoromethyl)-1,3,5-triazine

> <PUBCHEM_IUPAC_NAME>
2,4,6-tris(trifluoromethyl)-1,3,5-triazine

> <PUBCHEM_IUPAC_SYSTEMATIC_NAME>
2,4,6-tris(trifluoromethyl)-1,3,5-triazine

> <PUBCHEM_IUPAC_TRADITIONAL_NAME>
2,4,6-tris(trifluoromethyl)-s-triazine

> <PUBCHEM_IUPAC_INCHI>
InChI=1S/C6F9N3/c7-4(8,9)1-16-2(5(10,11)12)18-3(17-1)6(13,14)15

> <PUBCHEM_IUPAC_INCHIKEY>
LSGBKABSSSIRJF-UHFFFAOYSA-N

> <PUBCHEM_XLOGP3_AA>
2.7

> <PUBCHEM_EXACT_MASS>
284.994851

> <PUBCHEM_MOLECULAR_FORMULA>
C6F9N3

> <PUBCHEM_MOLECULAR_WEIGHT>
285.069929

> <PUBCHEM_OPENEYE_CAN_SMILES>
C1(=NC(=NC(=N1)C(F)(F)F)C(F)(F)F)C(F)(F)F

> <PUBCHEM_OPENEYE_ISO_SMILES>
C1(=NC(=NC(=N1)C(F)(F)F)C(F)(F)F)C(F)(F)F

> <PUBCHEM_CACTVS_TPSA>
38.7

> <PUBCHEM_MONOISOTOPIC_WEIGHT>
284.994851

> <PUBCHEM_TOTAL_CHARGE>
0

> <PUBCHEM_HEAVY_ATOM_COUNT>
18

> <PUBCHEM_ATOM_DEF_STEREO_COUNT>
0

> <PUBCHEM_ATOM_UDEF_STEREO_COUNT>
0

> <PUBCHEM_BOND_DEF_STEREO_COUNT>
0

> <PUBCHEM_BOND_UDEF_STEREO_COUNT>
0

> <PUBCHEM_ISOTOPIC_ATOM_COUNT>
0

> <PUBCHEM_COMPONENT_COUNT>
1

> <PUBCHEM_CACTVS_TAUTO_COUNT>
1

> <PUBCHEM_COORDINATE_TYPE>
1
5
255

> <PUBCHEM_BONDANNOTATIONS>
10  13  8
10  14  8
11  13  8
11  15  8
12  14  8
12  15  8

$$$$

