17395564
  -OEChem-06241222512D

 33 34  0     1  0  0  0  0  0999 V2000
    2.0000   -1.1830    0.0000 Cl  0  0  0  0  0  0  0  0  0  0  0  0
    3.7320   -4.1830    0.0000 F   0  0  0  0  0  0  0  0  0  0  0  0
    3.7320    1.8170    0.0000 O   0  0  0  0  0  0  0  0  0  0  0  0
    3.7320   -0.1830    0.0000 O   0  0  0  0  0  0  0  0  0  0  0  0
    5.4641    1.8170    0.0000 N   0  0  0  0  0  0  0  0  0  0  0  0
    6.3301    3.3170    0.0000 C   0  0  0  0  0  0  0  0  0  0  0  0
    7.3301    3.3170    0.0000 C   0  0  0  0  0  0  0  0  0  0  0  0
    6.8301    4.1830    0.0000 C   0  0  0  0  0  0  0  0  0  0  0  0
    5.4641    2.8170    0.0000 C   0  0  3  0  0  0  0  0  0  0  0  0
    4.5981    3.3170    0.0000 C   0  0  0  0  0  0  0  0  0  0  0  0
    4.5981    1.3170    0.0000 C   0  0  0  0  0  0  0  0  0  0  0  0
    4.5981    0.3170    0.0000 C   0  0  0  0  0  0  0  0  0  0  0  0
    3.7320   -1.1830    0.0000 C   0  0  0  0  0  0  0  0  0  0  0  0
    2.8660   -1.6830    0.0000 C   0  0  0  0  0  0  0  0  0  0  0  0
    4.5981   -1.6830    0.0000 C   0  0  0  0  0  0  0  0  0  0  0  0
    2.8660   -2.6830    0.0000 C   0  0  0  0  0  0  0  0  0  0  0  0
    4.5981   -2.6830    0.0000 C   0  0  0  0  0  0  0  0  0  0  0  0
    3.7320   -3.1830    0.0000 C   0  0  0  0  0  0  0  0  0  0  0  0
    5.8917    3.7554    0.0000 H   0  0  0  0  0  0  0  0  0  0  0  0
    7.3051    4.5815    0.0000 H   0  0  0  0  0  0  0  0  0  0  0  0
    6.3552    4.5815    0.0000 H   0  0  0  0  0  0  0  0  0  0  0  0
    7.4378    2.7064    0.0000 H   0  0  0  0  0  0  0  0  0  0  0  0
    7.9127    3.5290    0.0000 H   0  0  0  0  0  0  0  0  0  0  0  0
    6.0010    2.5070    0.0000 H   0  0  0  0  0  0  0  0  0  0  0  0
    4.9081    3.8539    0.0000 H   0  0  0  0  0  0  0  0  0  0  0  0
    4.0611    3.6270    0.0000 H   0  0  0  0  0  0  0  0  0  0  0  0
    4.2881    2.7800    0.0000 H   0  0  0  0  0  0  0  0  0  0  0  0
    6.0010    1.5070    0.0000 H   0  0  0  0  0  0  0  0  0  0  0  0
    4.8101   -0.2656    0.0000 H   0  0  0  0  0  0  0  0  0  0  0  0
    5.2087    0.4246    0.0000 H   0  0  0  0  0  0  0  0  0  0  0  0
    5.1350   -1.3730    0.0000 H   0  0  0  0  0  0  0  0  0  0  0  0
    2.3291   -2.9930    0.0000 H   0  0  0  0  0  0  0  0  0  0  0  0
    5.1350   -2.9930    0.0000 H   0  0  0  0  0  0  0  0  0  0  0  0
  1 14  1  0  0  0  0
  2 18  1  0  0  0  0
  3 11  2  0  0  0  0
  4 12  1  0  0  0  0
  4 13  1  0  0  0  0
  5  9  1  0  0  0  0
  5 11  1  0  0  0  0
  5 28  1  0  0  0  0
  6  7  1  0  0  0  0
  6  8  1  0  0  0  0
  6  9  1  0  0  0  0
  6 19  1  0  0  0  0
  7  8  1  0  0  0  0
  7 22  1  0  0  0  0
  7 23  1  0  0  0  0
  8 20  1  0  0  0  0
  8 21  1  0  0  0  0
  9 10  1  0  0  0  0
  9 24  1  0  0  0  0
 10 25  1  0  0  0  0
 10 26  1  0  0  0  0
 10 27  1  0  0  0  0
 11 12  1  0  0  0  0
 12 29  1  0  0  0  0
 12 30  1  0  0  0  0
 13 14  2  0  0  0  0
 13 15  1  0  0  0  0
 14 16  1  0  0  0  0
 15 17  2  0  0  0  0
 15 31  1  0  0  0  0
 16 18  2  0  0  0  0
 16 32  1  0  0  0  0
 17 18  1  0  0  0  0
 17 33  1  0  0  0  0
M  END
> <PUBCHEM_COMPOUND_CID>
17395564

> <PUBCHEM_COMPOUND_CANONICALIZED>
1

> <PUBCHEM_CACTVS_COMPLEXITY>
299

> <PUBCHEM_CACTVS_HBOND_ACCEPTOR>
3

> <PUBCHEM_CACTVS_HBOND_DONOR>
1

> <PUBCHEM_CACTVS_ROTATABLE_BOND>
5

> <PUBCHEM_CACTVS_SUBSKEYS>
AAADccByMQAEAAAAAAAAAAAAGAAAAAAAAAAwAAAAAAAAAAABAAAAHwIQAAAADS7hkC4yBoLABACIACFSEAICCAAgJUAIiIBOC4gOJiOFsx6HOCCk1hGYqAeAQAAIAAAAAAAACAAAAAAAAAAQAAAAAAAAAA==

> <PUBCHEM_IUPAC_OPENEYE_NAME>
2-(2-chloro-4-fluoro-phenoxy)-N-(1-cyclopropylethyl)acetamide

> <PUBCHEM_IUPAC_CAS_NAME>
2-(2-chloro-4-fluorophenoxy)-N-(1-cyclopropylethyl)acetamide

> <PUBCHEM_IUPAC_NAME>
2-(2-chloro-4-fluorophenoxy)-N-(1-cyclopropylethyl)acetamide

> <PUBCHEM_IUPAC_SYSTEMATIC_NAME>
2-(2-chloranyl-4-fluoranyl-phenoxy)-N-(1-cyclopropylethyl)ethanamide

> <PUBCHEM_IUPAC_TRADITIONAL_NAME>
2-(2-chloro-4-fluoro-phenoxy)-N-(1-cyclopropylethyl)acetamide

> <PUBCHEM_IUPAC_INCHI>
InChI=1S/C13H15ClFNO2/c1-8(9-2-3-9)16-13(17)7-18-12-5-4-10(15)6-11(12)14/h4-6,8-9H,2-3,7H2,1H3,(H,16,17)

> <PUBCHEM_IUPAC_INCHIKEY>
AAJJLYRRJFTVMF-UHFFFAOYSA-N

> <PUBCHEM_XLOGP3>
3.2

> <PUBCHEM_EXACT_MASS>
271.077535

> <PUBCHEM_MOLECULAR_FORMULA>
C13H15ClFNO2

> <PUBCHEM_MOLECULAR_WEIGHT>
271.715103

> <PUBCHEM_OPENEYE_CAN_SMILES>
CC(C1CC1)NC(=O)COC2=C(C=C(C=C2)F)Cl

> <PUBCHEM_OPENEYE_ISO_SMILES>
CC(C1CC1)NC(=O)COC2=C(C=C(C=C2)F)Cl

> <PUBCHEM_CACTVS_TPSA>
38.3

> <PUBCHEM_MONOISOTOPIC_WEIGHT>
271.077535

> <PUBCHEM_TOTAL_CHARGE>
0

> <PUBCHEM_HEAVY_ATOM_COUNT>
18

> <PUBCHEM_ATOM_DEF_STEREO_COUNT>
0

> <PUBCHEM_ATOM_UDEF_STEREO_COUNT>
1

> <PUBCHEM_BOND_DEF_STEREO_COUNT>
0

> <PUBCHEM_BOND_UDEF_STEREO_COUNT>
0

> <PUBCHEM_ISOTOPIC_ATOM_COUNT>
0

> <PUBCHEM_COMPONENT_COUNT>
1

> <PUBCHEM_CACTVS_TAUTO_COUNT>
2

> <PUBCHEM_COORDINATE_TYPE>
1
5
255

> <PUBCHEM_BONDANNOTATIONS>
13  14  8
13  15  8
14  16  8
15  17  8
16  18  8
17  18  8
9  10  3

$$$$

