15970
  -OEChem-07051212472D

 15 15  0     0  0  0  0  0  0999 V2000
    2.8090    0.0380    0.0000 S   0  0  0  0  0  0  0  0  0  0  0  0
    5.7281   -0.9704    0.0000 O   0  0  0  0  0  0  0  0  0  0  0  0
    4.0339   -1.3305    0.0000 O   0  0  0  0  0  0  0  0  0  0  0  0
    3.6180    0.6258    0.0000 C   0  0  0  0  0  0  0  0  0  0  0  0
    4.5691    0.3168    0.0000 C   0  0  0  0  0  0  0  0  0  0  0  0
    3.3090    1.5768    0.0000 C   0  0  0  0  0  0  0  0  0  0  0  0
    2.3090    1.5768    0.0000 C   0  0  0  0  0  0  0  0  0  0  0  0
    2.0000    0.6258    0.0000 C   0  0  0  0  0  0  0  0  0  0  0  0
    4.7770   -0.6614    0.0000 C   0  0  0  0  0  0  0  0  0  0  0  0
    5.1887    0.3384    0.0000 H   0  0  0  0  0  0  0  0  0  0  0  0
    4.6554    0.9307    0.0000 H   0  0  0  0  0  0  0  0  0  0  0  0
    3.6734    2.0784    0.0000 H   0  0  0  0  0  0  0  0  0  0  0  0
    1.9446    2.0784    0.0000 H   0  0  0  0  0  0  0  0  0  0  0  0
    1.4103    0.4342    0.0000 H   0  0  0  0  0  0  0  0  0  0  0  0
    5.8570   -1.5768    0.0000 H   0  0  0  0  0  0  0  0  0  0  0  0
  1  4  1  0  0  0  0
  1  8  1  0  0  0  0
  2  9  1  0  0  0  0
  2 15  1  0  0  0  0
  3  9  2  0  0  0  0
  4  5  1  0  0  0  0
  4  6  2  0  0  0  0
  5  9  1  0  0  0  0
  5 10  1  0  0  0  0
  5 11  1  0  0  0  0
  6  7  1  0  0  0  0
  6 12  1  0  0  0  0
  7  8  2  0  0  0  0
  7 13  1  0  0  0  0
  8 14  1  0  0  0  0
M  END
> <PUBCHEM_COMPOUND_CID>
15970

> <PUBCHEM_COMPOUND_CANONICALIZED>
1

> <PUBCHEM_CACTVS_COMPLEXITY>
114

> <PUBCHEM_CACTVS_HBOND_ACCEPTOR>
3

> <PUBCHEM_CACTVS_HBOND_DONOR>
1

> <PUBCHEM_CACTVS_ROTATABLE_BOND>
2

> <PUBCHEM_CACTVS_SUBSKEYS>
AAADcYBgMABAAAAAAAAAAAAAAAAAASAAAAAAAAAAAAAAAAABgAAAGgQACAAACACE0ACwCYAAAgiMACDSCAADAIAgCBBIiBkAAIgIIDKgFRCAQAAkwAEoiAeISAAAAAAAAAAAAAAAAAAAAAAAAAAAAAAAAA==

> <PUBCHEM_IUPAC_OPENEYE_NAME>
2-(2-thienyl)acetic acid

> <PUBCHEM_IUPAC_CAS_NAME>
2-thiophen-2-ylacetic acid

> <PUBCHEM_IUPAC_NAME>
2-thiophen-2-ylacetic acid

> <PUBCHEM_IUPAC_SYSTEMATIC_NAME>
2-thiophen-2-ylethanoic acid

> <PUBCHEM_IUPAC_TRADITIONAL_NAME>
2-(2-thienyl)acetic acid

> <PUBCHEM_IUPAC_INCHI>
InChI=1S/C6H6O2S/c7-6(8)4-5-2-1-3-9-5/h1-3H,4H2,(H,7,8)

> <PUBCHEM_IUPAC_INCHIKEY>
SMJRBWINMFUUDS-UHFFFAOYSA-N

> <PUBCHEM_XLOGP3>
1

> <PUBCHEM_EXACT_MASS>
142.00885

> <PUBCHEM_MOLECULAR_FORMULA>
C6H6O2S

> <PUBCHEM_MOLECULAR_WEIGHT>
142.17564

> <PUBCHEM_OPENEYE_CAN_SMILES>
C1=CSC(=C1)CC(=O)O

> <PUBCHEM_OPENEYE_ISO_SMILES>
C1=CSC(=C1)CC(=O)O

> <PUBCHEM_CACTVS_TPSA>
65.5

> <PUBCHEM_MONOISOTOPIC_WEIGHT>
142.00885

> <PUBCHEM_TOTAL_CHARGE>
0

> <PUBCHEM_HEAVY_ATOM_COUNT>
9

> <PUBCHEM_ATOM_DEF_STEREO_COUNT>
0

> <PUBCHEM_ATOM_UDEF_STEREO_COUNT>
0

> <PUBCHEM_BOND_DEF_STEREO_COUNT>
0

> <PUBCHEM_BOND_UDEF_STEREO_COUNT>
0

> <PUBCHEM_ISOTOPIC_ATOM_COUNT>
0

> <PUBCHEM_COMPONENT_COUNT>
1

> <PUBCHEM_CACTVS_TAUTO_COUNT>
1

> <PUBCHEM_COORDINATE_TYPE>
1
5
255

> <PUBCHEM_BONDANNOTATIONS>
1  4  8
1  8  8
4  6  8
6  7  8
7  8  8

$$$$

