   Color/Form
        Yellowish to yellow orthorhombic crystals
   from [1]HSDB

   Odor
        SWEET, MUSTY ODOR
   from [2]HSDB

   Taste
        BITTER TASTE
   from [3]HSDB

   Melting Point
        112-114 deg C
   from [4]HSDB

   Density/Specific Gravity
        1.683 g/ml @ 24 deg C
   from [5]HSDB

   Dissociation Constants
        pKa = 4.09
   from [6]HSDB

   Heat of Combustion
        648.0 KG CAL/G MOL WT @ 20 DEG C
   from [7]HSDB

   Octanol/Water Partition Coefficient
        log Kow = 1.67
   from [8]HSDB

   pH
        pH range: 2.6 Colorless, 4.4 Yellow
   from [9]HSDB

   Solubilities

     * Water solubility = 2790 mg/l @ 20 deg C
     * 1.22 g/100 g saturated solution in water at 96.2 deg C
     * 43,000 mg/l in water at 100 deg C
     * 15.55 g/100 g solution in ethyl acetate @ 15 deg C
     * 35.90 g/100 g solution in acetone @ 15 deg C
     * 5.39 g/100 g solution in chloroform @ 15 deg C
     * 20.08 g/100 g solution in pyridine @ 15 deg C
     * 0.423 g/100 g solution in carbon tetrachloride @ 15 deg C
     * 6.36 g/100 g solution in toluene @ 15 deg C
     * 0.137 g/100 g of saturated solution in water @ 54.5 deg C
     * 0.301 g/100 g of saturated solution in water @ 75.8 deg C
     * 0.578 g/100 g of saturated solution in water at 87.4 deg C
     * 1.22 g/100 g saturated solution in water at 96.2 deg C
     * 6000 mg/l in water at 25 deg C.

   from [10]HSDB

   Spectral Properties

     * MAX ABSORPTION (ETHYL ACETATE): 260 NM (LOG E= 3.91); 280 NM (LOG
       E= 3.76); SADTLER REFERENCE NUMBER: 253 (IR, PRISM); 86 (IR,
       GRATING)
     * Intense mass spectral peaks: 184 m/z (100%), 154 m/z (83%), 63 m/z
       (52%), 107 m/z (45%)
     * IR: 5792 (Coblentz Society Spectral Collection)
     * UV: 3234 (Sadtler Research Laboratories Spectral Collection)
     * Intense mass spectral peaks: 91 m/z

   from [11]HSDB

   Vapor Density
        6.35 (Air= 1)
   from [12]HSDB

   Vapor Pressure
        3.9X10-4 mm Hg at 20 deg C
   from [13]HSDB

   Other Chemical/Physical Properties

     * Sublimes when carefully heated; forms crystalline sodium salt
     * Heat of fusion: 31.38 cal/g= 131.29 J/g= 24.172 J/mol
     * 1 mg/cu m= 0.13 ppm; 1 ppm= 7.65 mg/cu m.
     * Volatile with steam.

   from [14]HSDB

   Computed Properties
   Molecular Weight                  184.10636 [g/mol]
   Molecular Formula                 C[6]H[4]N[2]O[5]
   XLogP3                            1.7
   H-Bond Donor                      1
   H-Bond Acceptor                   5
   Rotatable Bond Count              0
   Tautomer Count                    4
   Exact Mass                        184.012021
   MonoIsotopic Mass                 184.012021
   Topological Polar Surface Area    112
   Heavy Atom Count                  13
   Formal Charge                     0
   Complexity                        220
   Isotope Atom Count                0
   Defined Atom Stereocenter Count   0
   Undefined Atom Stereocenter Count 0
   Defined Bond Stereocenter Count   0
   Undefined Bond Stereocenter Count 0
   Covalently-Bonded Unit Count      1
   Feature 3D Acceptor Count         4
   Feature 3D Donor Count            1
   Feature 3D Anion Count            2
   Feature 3D Ring Count             1
   Effective Rotor Count             2
   Conformer Sampling RMSD           0.6
   CID Conformer Count               [15]1

References

   1. http://toxnet.nlm.nih.gov/cgi-bin/sis/search/r?dbs+hsdb:@term+@rn+@rel+51-28-5
   2. http://toxnet.nlm.nih.gov/cgi-bin/sis/search/r?dbs+hsdb:@term+@rn+@rel+51-28-5
   3. http://toxnet.nlm.nih.gov/cgi-bin/sis/search/r?dbs+hsdb:@term+@rn+@rel+51-28-5
   4. http://toxnet.nlm.nih.gov/cgi-bin/sis/search/r?dbs+hsdb:@term+@rn+@rel+51-28-5
   5. http://toxnet.nlm.nih.gov/cgi-bin/sis/search/r?dbs+hsdb:@term+@rn+@rel+51-28-5
   6. http://toxnet.nlm.nih.gov/cgi-bin/sis/search/r?dbs+hsdb:@term+@rn+@rel+51-28-5
   7. http://toxnet.nlm.nih.gov/cgi-bin/sis/search/r?dbs+hsdb:@term+@rn+@rel+51-28-5
   8. http://toxnet.nlm.nih.gov/cgi-bin/sis/search/r?dbs+hsdb:@term+@rn+@rel+51-28-5
   9. http://toxnet.nlm.nih.gov/cgi-bin/sis/search/r?dbs+hsdb:@term+@rn+@rel+51-28-5
  10. http://toxnet.nlm.nih.gov/cgi-bin/sis/search/r?dbs+hsdb:@term+@rn+@rel+51-28-5
  11. http://toxnet.nlm.nih.gov/cgi-bin/sis/search/r?dbs+hsdb:@term+@rn+@rel+51-28-5
  12. http://toxnet.nlm.nih.gov/cgi-bin/sis/search/r?dbs+hsdb:@term+@rn+@rel+51-28-5
  13. http://toxnet.nlm.nih.gov/cgi-bin/sis/search/r?dbs+hsdb:@term+@rn+@rel+51-28-5
  14. http://toxnet.nlm.nih.gov/cgi-bin/sis/search/r?dbs+hsdb:@term+@rn+@rel+51-28-5
  15. http://pubchem.ncbi.nlm.nih.gov/vw3d/vw3d.cgi?cid=1493
