17396035
  -OEChem-06241222542D

 56 60  0     1  0  0  0  0  0999 V2000
    8.6547    1.5899    0.0000 O   0  0  0  0  0  0  0  0  0  0  0  0
    5.8068    3.6590    0.0000 O   0  0  0  0  0  0  0  0  0  0  0  0
    5.0778    2.6079    0.0000 O   0  0  0  0  0  0  0  0  0  0  0  0
    3.6180    2.6454    0.0000 O   0  0  0  0  0  0  0  0  0  0  0  0
    4.3968   -4.6535    0.0000 O   0  0  0  0  0  0  0  0  0  0  0  0
    7.5669    3.9377    0.0000 N   0  0  0  0  0  0  0  0  0  0  0  0
    7.0669    2.3989    0.0000 N   0  0  0  0  0  0  0  0  0  0  0  0
    4.8968    0.8854    0.0000 N   0  0  0  0  0  0  0  0  0  0  0  0
    5.2058   -0.0657    0.0000 N   0  0  0  0  0  0  0  0  0  0  0  0
    8.9637    4.1590    0.0000 C   0  0  0  0  0  0  0  0  0  0  0  0
    9.8772    4.5657    0.0000 C   0  0  0  0  0  0  0  0  0  0  0  0
    9.0682    5.1535    0.0000 C   0  0  0  0  0  0  0  0  0  0  0  0
    8.3759    3.3499    0.0000 C   0  0  3  0  0  0  0  0  0  0  0  0
    8.0669    2.3989    0.0000 C   0  0  0  0  0  0  0  0  0  0  0  0
    9.3270    3.0409    0.0000 C   0  0  0  0  0  0  0  0  0  0  0  0
    6.7579    3.3499    0.0000 C   0  0  0  0  0  0  0  0  0  0  0  0
    6.4791    1.5899    0.0000 C   0  0  0  0  0  0  0  0  0  0  0  0
    5.4846    1.6944    0.0000 C   0  0  0  0  0  0  0  0  0  0  0  0
    3.8968    0.8854    0.0000 C   0  0  3  0  0  0  0  0  0  0  0  0
    3.5878   -0.0657    0.0000 C   0  0  0  0  0  0  0  0  0  0  0  0
    4.3968   -0.6535    0.0000 C   0  0  0  0  0  0  0  0  0  0  0  0
    3.3090    1.6944    0.0000 C   0  0  0  0  0  0  0  0  0  0  0  0
    4.3968   -1.6535    0.0000 C   0  0  0  0  0  0  0  0  0  0  0  0
    2.3090    1.6944    0.0000 C   0  0  0  0  0  0  0  0  0  0  0  0
    3.5308   -2.1535    0.0000 C   0  0  0  0  0  0  0  0  0  0  0  0
    5.2628   -2.1535    0.0000 C   0  0  0  0  0  0  0  0  0  0  0  0
    2.0000    2.6454    0.0000 C   0  0  0  0  0  0  0  0  0  0  0  0
    2.8090    3.2332    0.0000 C   0  0  0  0  0  0  0  0  0  0  0  0
    3.5308   -3.1535    0.0000 C   0  0  0  0  0  0  0  0  0  0  0  0
    5.2628   -3.1535    0.0000 C   0  0  0  0  0  0  0  0  0  0  0  0
    4.3968   -3.6535    0.0000 C   0  0  0  0  0  0  0  0  0  0  0  0
    5.2628   -5.1535    0.0000 C   0  0  0  0  0  0  0  0  0  0  0  0
    8.3849    4.3811    0.0000 H   0  0  0  0  0  0  0  0  0  0  0  0
   10.2239    4.0517    0.0000 H   0  0  0  0  0  0  0  0  0  0  0  0
   10.3232    4.9964    0.0000 H   0  0  0  0  0  0  0  0  0  0  0  0
    9.3400    5.7107    0.0000 H   0  0  0  0  0  0  0  0  0  0  0  0
    8.4722    5.3244    0.0000 H   0  0  0  0  0  0  0  0  0  0  0  0
    7.5669    4.5577    0.0000 H   0  0  0  0  0  0  0  0  0  0  0  0
    9.1354    2.4513    0.0000 H   0  0  0  0  0  0  0  0  0  0  0  0
    9.9166    2.8493    0.0000 H   0  0  0  0  0  0  0  0  0  0  0  0
    9.5186    3.6306    0.0000 H   0  0  0  0  0  0  0  0  0  0  0  0
    6.3082    0.9939    0.0000 H   0  0  0  0  0  0  0  0  0  0  0  0
    7.0364    1.3181    0.0000 H   0  0  0  0  0  0  0  0  0  0  0  0
    3.2844    0.7884    0.0000 H   0  0  0  0  0  0  0  0  0  0  0  0
    3.0214    0.1865    0.0000 H   0  0  0  0  0  0  0  0  0  0  0  0
    3.2778   -0.6026    0.0000 H   0  0  0  0  0  0  0  0  0  0  0  0
    1.9446    1.1928    0.0000 H   0  0  0  0  0  0  0  0  0  0  0  0
    2.9938   -1.8435    0.0000 H   0  0  0  0  0  0  0  0  0  0  0  0
    5.7998   -1.8435    0.0000 H   0  0  0  0  0  0  0  0  0  0  0  0
    1.4103    2.8370    0.0000 H   0  0  0  0  0  0  0  0  0  0  0  0
    2.8090    3.8532    0.0000 H   0  0  0  0  0  0  0  0  0  0  0  0
    2.9938   -3.4635    0.0000 H   0  0  0  0  0  0  0  0  0  0  0  0
    5.7998   -3.4635    0.0000 H   0  0  0  0  0  0  0  0  0  0  0  0
    4.9528   -5.6904    0.0000 H   0  0  0  0  0  0  0  0  0  0  0  0
    5.7998   -5.4635    0.0000 H   0  0  0  0  0  0  0  0  0  0  0  0
    5.5728   -4.6165    0.0000 H   0  0  0  0  0  0  0  0  0  0  0  0
  1 14  2  0  0  0  0
  2 16  2  0  0  0  0
  3 18  2  0  0  0  0
  4 22  1  0  0  0  0
  4 28  1  0  0  0  0
  5 31  1  0  0  0  0
  5 32  1  0  0  0  0
  6 13  1  0  0  0  0
  6 16  1  0  0  0  0
  6 38  1  0  0  0  0
  7 14  1  0  0  0  0
  7 16  1  0  0  0  0
  7 17  1  0  0  0  0
  8  9  1  0  0  0  0
  8 18  1  0  0  0  0
  8 19  1  0  0  0  0
  9 21  2  0  0  0  0
 10 11  1  0  0  0  0
 10 12  1  0  0  0  0
 10 13  1  0  0  0  0
 10 33  1  0  0  0  0
 11 12  1  0  0  0  0
 11 34  1  0  0  0  0
 11 35  1  0  0  0  0
 12 36  1  0  0  0  0
 12 37  1  0  0  0  0
 13 14  1  0  0  0  0
 13 15  1  0  0  0  0
 15 39  1  0  0  0  0
 15 40  1  0  0  0  0
 15 41  1  0  0  0  0
 17 18  1  0  0  0  0
 17 42  1  0  0  0  0
 17 43  1  0  0  0  0
 19 20  1  0  0  0  0
 19 22  1  0  0  0  0
 19 44  1  0  0  0  0
 20 21  1  0  0  0  0
 20 45  1  0  0  0  0
 20 46  1  0  0  0  0
 21 23  1  0  0  0  0
 22 24  2  0  0  0  0
 23 25  2  0  0  0  0
 23 26  1  0  0  0  0
 24 27  1  0  0  0  0
 24 47  1  0  0  0  0
 25 29  1  0  0  0  0
 25 48  1  0  0  0  0
 26 30  2  0  0  0  0
 26 49  1  0  0  0  0
 27 28  2  0  0  0  0
 27 50  1  0  0  0  0
 28 51  1  0  0  0  0
 29 31  2  0  0  0  0
 29 52  1  0  0  0  0
 30 31  1  0  0  0  0
 30 53  1  0  0  0  0
 32 54  1  0  0  0  0
 32 55  1  0  0  0  0
 32 56  1  0  0  0  0
M  END
> <PUBCHEM_COMPOUND_CID>
17396035

> <PUBCHEM_COMPOUND_CANONICALIZED>
1

> <PUBCHEM_CACTVS_COMPLEXITY>
819

> <PUBCHEM_CACTVS_HBOND_ACCEPTOR>
6

> <PUBCHEM_CACTVS_HBOND_DONOR>
1

> <PUBCHEM_CACTVS_ROTATABLE_BOND>
6

> <PUBCHEM_CACTVS_SUBSKEYS>
AAADceB7uAAAAAAAAAAAAAAAGAAAAWJEAAAwAAAAAAAAAAABwAAAHgAYAAAADazhmAYzBoPABECoA6lykACSCAAkIAAaiAG+DNiOZrKEtTuXOSjs3zOYqYeY2fOeoAAAAAAAAABAAAAAAAAAAAAAAAAAAA==

> <PUBCHEM_IUPAC_OPENEYE_NAME>
5-cyclopropyl-3-[2-[3-(2-furyl)-5-(4-methoxyphenyl)-3,4-dihydropyrazol-2-yl]-2-oxo-ethyl]-5-methyl-imidazolidine-2,4-dione

> <PUBCHEM_IUPAC_CAS_NAME>
5-cyclopropyl-3-[2-[3-(2-furanyl)-5-(4-methoxyphenyl)-3,4-dihydropyrazol-2-yl]-2-oxoethyl]-5-methylimidazolidine-2,4-dione

> <PUBCHEM_IUPAC_NAME>
5-cyclopropyl-3-[2-[3-(furan-2-yl)-5-(4-methoxyphenyl)-3,4-dihydropyrazol-2-yl]-2-oxoethyl]-5-methylimidazolidine-2,4-dione

> <PUBCHEM_IUPAC_SYSTEMATIC_NAME>
5-cyclopropyl-3-[2-[3-(furan-2-yl)-5-(4-methoxyphenyl)-3,4-dihydropyrazol-2-yl]-2-oxidanylidene-ethyl]-5-methyl-imidazolidine-2,4-dione

> <PUBCHEM_IUPAC_TRADITIONAL_NAME>
5-cyclopropyl-3-[2-[5-(2-furyl)-3-(4-methoxyphenyl)-2-pyrazolin-1-yl]-2-keto-ethyl]-5-methyl-hydantoin

> <PUBCHEM_IUPAC_INCHI>
InChI=1S/C23H24N4O5/c1-23(15-7-8-15)21(29)26(22(30)24-23)13-20(28)27-18(19-4-3-11-32-19)12-17(25-27)14-5-9-16(31-2)10-6-14/h3-6,9-11,15,18H,7-8,12-13H2,1-2H3,(H,24,30)

> <PUBCHEM_IUPAC_INCHIKEY>
PYYXPPVCAWMTRU-UHFFFAOYSA-N

> <PUBCHEM_XLOGP3_AA>
1.7

> <PUBCHEM_EXACT_MASS>
436.17467

> <PUBCHEM_MOLECULAR_FORMULA>
C23H24N4O5

> <PUBCHEM_MOLECULAR_WEIGHT>
436.46046

> <PUBCHEM_OPENEYE_CAN_SMILES>
CC1(C(=O)N(C(=O)N1)CC(=O)N2C(CC(=N2)C3=CC=C(C=C3)OC)C4=CC=CO4)C5CC5

> <PUBCHEM_OPENEYE_ISO_SMILES>
CC1(C(=O)N(C(=O)N1)CC(=O)N2C(CC(=N2)C3=CC=C(C=C3)OC)C4=CC=CO4)C5CC5

> <PUBCHEM_CACTVS_TPSA>
104

> <PUBCHEM_MONOISOTOPIC_WEIGHT>
436.17467

> <PUBCHEM_TOTAL_CHARGE>
0

> <PUBCHEM_HEAVY_ATOM_COUNT>
32

> <PUBCHEM_ATOM_DEF_STEREO_COUNT>
0

> <PUBCHEM_ATOM_UDEF_STEREO_COUNT>
2

> <PUBCHEM_BOND_DEF_STEREO_COUNT>
0

> <PUBCHEM_BOND_UDEF_STEREO_COUNT>
0

> <PUBCHEM_ISOTOPIC_ATOM_COUNT>
0

> <PUBCHEM_COMPONENT_COUNT>
1

> <PUBCHEM_CACTVS_TAUTO_COUNT>
2

> <PUBCHEM_COORDINATE_TYPE>
1
5
255

> <PUBCHEM_BONDANNOTATIONS>
13  15  3
19  22  3
22  24  8
23  25  8
23  26  8
24  27  8
25  29  8
26  30  8
27  28  8
29  31  8
30  31  8
4  22  8
4  28  8

$$$$

