   Color/Form
        Crystalline solid
   from [1]HSDB

   Melting Point
        183-185 deg C
   from [2]HSDB

   Dissociation Constants
        pKa = 4.78 at 20 deg C
   from [3]HSDB

   Octanol/Water Partition Coefficient
        log Kow = 2.02
   from [4]HSDB

   Solubilities

     * Solubility at 25 deg C (g/L): benzene 0.31; dichloromethane 2.1;
       1-octanol 17; methanol 310; acetone 350
     * In water, 180 mg/L at 23 deg C

   from [5]HSDB

   Vapor Pressure
        2.40X10-8 mm Hg at 25 deg C (est)
   from [6]HSDB

   Other Chemical/Physical Properties

     * VP: <1X10-4 mm Hg at 25 deg C
     * Henry's Law constant = 1.28X10-11 atm-cu m/mole at 25 deg C (est)
     * Hydroxyl radical reaction rate constant = 2.00X10-10 cu
       cm/molec-sec at 25 deg C (est)

   from [7]HSDB

   Computed Properties
   Molecular Weight                  310.29273 [g/mol]
   Molecular Formula                 C[11]H[13]F[3]N[2]O[3]S
   XLogP3-AA                         2
   H-Bond Donor                      2
   H-Bond Acceptor                   7
   Rotatable Bond Count              3
   Tautomer Count                    3
   Exact Mass                        310.059898
   MonoIsotopic Mass                 310.059898
   Topological Polar Surface Area    83.6
   Heavy Atom Count                  20
   Formal Charge                     0
   Complexity                        459
   Isotope Atom Count                0
   Defined Atom Stereocenter Count   0
   Undefined Atom Stereocenter Count 0
   Defined Bond Stereocenter Count   0
   Undefined Bond Stereocenter Count 0
   Covalently-Bonded Unit Count      1
   Feature 3D Acceptor Count         3
   Feature 3D Donor Count            2
   Feature 3D Ring Count             1
   Effective Rotor Count             5
   Conformer Sampling RMSD           0.8
   CID Conformer Count               [8]20

References

   1. http://toxnet.nlm.nih.gov/cgi-bin/sis/search/r?dbs+hsdb:@term+@rn+@rel+53780-34-0
   2. http://toxnet.nlm.nih.gov/cgi-bin/sis/search/r?dbs+hsdb:@term+@rn+@rel+53780-34-0
   3. http://toxnet.nlm.nih.gov/cgi-bin/sis/search/r?dbs+hsdb:@term+@rn+@rel+53780-34-0
   4. http://toxnet.nlm.nih.gov/cgi-bin/sis/search/r?dbs+hsdb:@term+@rn+@rel+53780-34-0
   5. http://toxnet.nlm.nih.gov/cgi-bin/sis/search/r?dbs+hsdb:@term+@rn+@rel+53780-34-0
   6. http://toxnet.nlm.nih.gov/cgi-bin/sis/search/r?dbs+hsdb:@term+@rn+@rel+53780-34-0
   7. http://toxnet.nlm.nih.gov/cgi-bin/sis/search/r?dbs+hsdb:@term+@rn+@rel+53780-34-0
   8. http://pubchem.ncbi.nlm.nih.gov/vw3d/vw3d.cgi?cid=40896
