443738
  -OEChem-07051213032D

 41 42  0     0  0  0  0  0  0999 V2000
    2.0000   -1.9050    0.0000 Br  0  0  0  0  0  0  0  0  0  0  0  0
    2.8660   -0.4050    0.0000 O   0  0  0  0  0  0  0  0  0  0  0  0
    3.7320   -4.9050    0.0000 O   0  0  0  0  0  0  0  0  0  0  0  0
    5.4641   -3.9050    0.0000 O   0  0  0  0  0  0  0  0  0  0  0  0
    5.4641    5.0950    0.0000 O   0  0  0  0  0  0  0  0  0  0  0  0
    4.5981   -0.4050    0.0000 N   0  0  0  0  0  0  0  0  0  0  0  0
    4.5981    0.5950    0.0000 C   0  0  0  0  0  0  0  0  0  0  0  0
    5.4641    1.0950    0.0000 C   0  0  0  0  0  0  0  0  0  0  0  0
    5.4641    2.0950    0.0000 C   0  0  0  0  0  0  0  0  0  0  0  0
    3.7320   -0.9050    0.0000 C   0  0  0  0  0  0  0  0  0  0  0  0
    3.7320   -1.9050    0.0000 C   0  0  0  0  0  0  0  0  0  0  0  0
    5.4641   -0.9050    0.0000 C   0  0  0  0  0  0  0  0  0  0  0  0
    6.3301    2.5950    0.0000 C   0  0  0  0  0  0  0  0  0  0  0  0
    4.5981    2.5950    0.0000 C   0  0  0  0  0  0  0  0  0  0  0  0
    4.5981   -2.4050    0.0000 C   0  0  0  0  0  0  0  0  0  0  0  0
    2.8660   -2.4050    0.0000 C   0  0  0  0  0  0  0  0  0  0  0  0
    6.3301    3.5950    0.0000 C   0  0  0  0  0  0  0  0  0  0  0  0
    4.5981    3.5950    0.0000 C   0  0  0  0  0  0  0  0  0  0  0  0
    4.5981   -3.4050    0.0000 C   0  0  0  0  0  0  0  0  0  0  0  0
    5.4641    4.0950    0.0000 C   0  0  0  0  0  0  0  0  0  0  0  0
    3.7320   -3.9050    0.0000 C   0  0  0  0  0  0  0  0  0  0  0  0
    2.8660   -3.4050    0.0000 C   0  0  0  0  0  0  0  0  0  0  0  0
    2.8660   -5.4050    0.0000 C   0  0  0  0  0  0  0  0  0  0  0  0
    4.3860    1.1776    0.0000 H   0  0  0  0  0  0  0  0  0  0  0  0
    3.9875    0.4873    0.0000 H   0  0  0  0  0  0  0  0  0  0  0  0
    5.6762    0.5124    0.0000 H   0  0  0  0  0  0  0  0  0  0  0  0
    6.0747    1.2027    0.0000 H   0  0  0  0  0  0  0  0  0  0  0  0
    5.1541   -1.4419    0.0000 H   0  0  0  0  0  0  0  0  0  0  0  0
    6.0010   -1.2150    0.0000 H   0  0  0  0  0  0  0  0  0  0  0  0
    5.7741   -0.3681    0.0000 H   0  0  0  0  0  0  0  0  0  0  0  0
    6.8671    2.2850    0.0000 H   0  0  0  0  0  0  0  0  0  0  0  0
    4.0611    2.2850    0.0000 H   0  0  0  0  0  0  0  0  0  0  0  0
    5.1350   -2.0950    0.0000 H   0  0  0  0  0  0  0  0  0  0  0  0
    6.8671    3.9050    0.0000 H   0  0  0  0  0  0  0  0  0  0  0  0
    4.0611    3.9050    0.0000 H   0  0  0  0  0  0  0  0  0  0  0  0
    2.3291   -3.7150    0.0000 H   0  0  0  0  0  0  0  0  0  0  0  0
    6.0010   -3.5950    0.0000 H   0  0  0  0  0  0  0  0  0  0  0  0
    6.0010    5.4050    0.0000 H   0  0  0  0  0  0  0  0  0  0  0  0
    2.5560   -4.8681    0.0000 H   0  0  0  0  0  0  0  0  0  0  0  0
    2.3291   -5.7150    0.0000 H   0  0  0  0  0  0  0  0  0  0  0  0
    3.1760   -5.9419    0.0000 H   0  0  0  0  0  0  0  0  0  0  0  0
  1 16  1  0  0  0  0
  2 10  2  0  0  0  0
  3 21  1  0  0  0  0
  3 23  1  0  0  0  0
  4 19  1  0  0  0  0
  4 37  1  0  0  0  0
  5 20  1  0  0  0  0
  5 38  1  0  0  0  0
  6  7  1  0  0  0  0
  6 10  1  0  0  0  0
  6 12  1  0  0  0  0
  7  8  1  0  0  0  0
  7 24  1  0  0  0  0
  7 25  1  0  0  0  0
  8  9  1  0  0  0  0
  8 26  1  0  0  0  0
  8 27  1  0  0  0  0
  9 13  2  0  0  0  0
  9 14  1  0  0  0  0
 10 11  1  0  0  0  0
 11 15  2  0  0  0  0
 11 16  1  0  0  0  0
 12 28  1  0  0  0  0
 12 29  1  0  0  0  0
 12 30  1  0  0  0  0
 13 17  1  0  0  0  0
 13 31  1  0  0  0  0
 14 18  2  0  0  0  0
 14 32  1  0  0  0  0
 15 19  1  0  0  0  0
 15 33  1  0  0  0  0
 16 22  2  0  0  0  0
 17 20  2  0  0  0  0
 17 34  1  0  0  0  0
 18 20  1  0  0  0  0
 18 35  1  0  0  0  0
 19 21  2  0  0  0  0
 21 22  1  0  0  0  0
 22 36  1  0  0  0  0
 23 39  1  0  0  0  0
 23 40  1  0  0  0  0
 23 41  1  0  0  0  0
M  END
> <PUBCHEM_COMPOUND_CID>
443738

> <PUBCHEM_COMPOUND_CANONICALIZED>
1

> <PUBCHEM_CACTVS_COMPLEXITY>
387

> <PUBCHEM_CACTVS_HBOND_ACCEPTOR>
4

> <PUBCHEM_CACTVS_HBOND_DONOR>
2

> <PUBCHEM_CACTVS_ROTATABLE_BOND>
5

> <PUBCHEM_CACTVS_SUBSKEYS>
AAADceB6OAAAEAAAAAAAAAAAAAAAAAAAAAAwYAAAAAAAAAABQAAAHgBACAABrATBmAYyBoMABgCIAiFSEACCCAAkIAQIiAEOjOgNJjKGtRuEcStkxhGLu5e63JLOIBABAIAAwABAIAIBAAGAAAAAAAAAAA==

> <PUBCHEM_IUPAC_OPENEYE_NAME>
2-bromo-5-hydroxy-N-[2-(4-hydroxyphenyl)ethyl]-4-methoxy-N-methyl-benzamide

> <PUBCHEM_IUPAC_CAS_NAME>
2-bromo-5-hydroxy-N-[2-(4-hydroxyphenyl)ethyl]-4-methoxy-N-methylbenzamide

> <PUBCHEM_IUPAC_NAME>
2-bromo-5-hydroxy-N-[2-(4-hydroxyphenyl)ethyl]-4-methoxy-N-methylbenzamide

> <PUBCHEM_IUPAC_SYSTEMATIC_NAME>
2-bromanyl-N-[2-(4-hydroxyphenyl)ethyl]-4-methoxy-N-methyl-5-oxidanyl-benzamide

> <PUBCHEM_IUPAC_TRADITIONAL_NAME>
2-bromo-5-hydroxy-N-[2-(4-hydroxyphenyl)ethyl]-4-methoxy-N-methyl-benzamide

> <PUBCHEM_IUPAC_INCHI>
InChI=1S/C17H18BrNO4/c1-19(8-7-11-3-5-12(20)6-4-11)17(22)13-9-15(21)16(23-2)10-14(13)18/h3-6,9-10,20-21H,7-8H2,1-2H3

> <PUBCHEM_IUPAC_INCHIKEY>
CRZBVPSGSPBXEZ-UHFFFAOYSA-N

> <PUBCHEM_XLOGP3_AA>
3.3

> <PUBCHEM_EXACT_MASS>
379.04192

> <PUBCHEM_MOLECULAR_FORMULA>
C17H18BrNO4

> <PUBCHEM_MOLECULAR_WEIGHT>
380.23312

> <PUBCHEM_OPENEYE_CAN_SMILES>
CN(CCC1=CC=C(C=C1)O)C(=O)C2=CC(=C(C=C2Br)OC)O

> <PUBCHEM_OPENEYE_ISO_SMILES>
CN(CCC1=CC=C(C=C1)O)C(=O)C2=CC(=C(C=C2Br)OC)O

> <PUBCHEM_CACTVS_TPSA>
70

> <PUBCHEM_MONOISOTOPIC_WEIGHT>
379.04192

> <PUBCHEM_TOTAL_CHARGE>
0

> <PUBCHEM_HEAVY_ATOM_COUNT>
23

> <PUBCHEM_ATOM_DEF_STEREO_COUNT>
0

> <PUBCHEM_ATOM_UDEF_STEREO_COUNT>
0

> <PUBCHEM_BOND_DEF_STEREO_COUNT>
0

> <PUBCHEM_BOND_UDEF_STEREO_COUNT>
0

> <PUBCHEM_ISOTOPIC_ATOM_COUNT>
0

> <PUBCHEM_COMPONENT_COUNT>
1

> <PUBCHEM_CACTVS_TAUTO_COUNT>
6

> <PUBCHEM_COORDINATE_TYPE>
1
5
255

> <PUBCHEM_BONDANNOTATIONS>
11  15  8
11  16  8
13  17  8
14  18  8
15  19  8
16  22  8
17  20  8
18  20  8
19  21  8
21  22  8
9  13  8
9  14  8

$$$$

