586344
  -OEChem-06241222462D

 33 34  0     1  0  0  0  0  0999 V2000
    5.7281    1.6639    0.0000 O   0  0  0  0  0  0  0  0  0  0  0  0
    3.5222    0.8548    0.0000 O   0  0  0  0  0  0  0  0  0  0  0  0
    2.9511    2.9510    0.0000 O   0  0  0  0  0  0  0  0  0  0  0  0
    6.0068    3.4239    0.0000 O   0  0  0  0  0  0  0  0  0  0  0  0
    2.4158    1.3037    0.0000 O   0  0  0  0  0  0  0  0  0  0  0  0
    4.9190   -2.9239    0.0000 O   0  0  0  0  0  0  0  0  0  0  0  0
    4.1100    1.6639    0.0000 C   0  0  3  0  0  0  0  0  0  0  0  0
    4.9190    1.0761    0.0000 C   0  0  3  0  0  0  0  0  0  0  0  0
    4.4190    2.6149    0.0000 C   0  0  0  0  0  0  0  0  0  0  0  0
    4.9190    0.0761    0.0000 C   0  0  0  0  0  0  0  0  0  0  0  0
    5.4190    2.6149    0.0000 C   0  0  0  0  0  0  0  0  0  0  0  0
    3.1590    1.9729    0.0000 C   0  0  0  0  0  0  0  0  0  0  0  0
    4.0530   -0.4239    0.0000 C   0  0  0  0  0  0  0  0  0  0  0  0
    5.7851   -0.4239    0.0000 C   0  0  0  0  0  0  0  0  0  0  0  0
    4.0530   -1.4239    0.0000 C   0  0  0  0  0  0  0  0  0  0  0  0
    5.7851   -1.4239    0.0000 C   0  0  0  0  0  0  0  0  0  0  0  0
    4.9190   -1.9239    0.0000 C   0  0  0  0  0  0  0  0  0  0  0  0
    2.0000    3.2600    0.0000 C   0  0  0  0  0  0  0  0  0  0  0  0
    5.7851   -3.4239    0.0000 C   0  0  0  0  0  0  0  0  0  0  0  0
    4.1617    0.6902    0.0000 H   0  0  0  0  0  0  0  0  0  0  0  0
    4.4838    3.2315    0.0000 H   0  0  0  0  0  0  0  0  0  0  0  0
    3.8126    2.7438    0.0000 H   0  0  0  0  0  0  0  0  0  0  0  0
    2.9056    0.9196    0.0000 H   0  0  0  0  0  0  0  0  0  0  0  0
    3.5161   -0.1139    0.0000 H   0  0  0  0  0  0  0  0  0  0  0  0
    6.3220   -0.1139    0.0000 H   0  0  0  0  0  0  0  0  0  0  0  0
    3.5161   -1.7339    0.0000 H   0  0  0  0  0  0  0  0  0  0  0  0
    6.3220   -1.7339    0.0000 H   0  0  0  0  0  0  0  0  0  0  0  0
    2.1916    3.8497    0.0000 H   0  0  0  0  0  0  0  0  0  0  0  0
    1.4103    3.4516    0.0000 H   0  0  0  0  0  0  0  0  0  0  0  0
    1.8084    2.6704    0.0000 H   0  0  0  0  0  0  0  0  0  0  0  0
    5.4751   -3.9609    0.0000 H   0  0  0  0  0  0  0  0  0  0  0  0
    6.3220   -3.7339    0.0000 H   0  0  0  0  0  0  0  0  0  0  0  0
    6.0951   -2.8870    0.0000 H   0  0  0  0  0  0  0  0  0  0  0  0
  1  8  1  0  0  0  0
  1 11  1  0  0  0  0
  2  7  1  0  0  0  0
  2 23  1  0  0  0  0
  3 12  1  0  0  0  0
  3 18  1  0  0  0  0
  4 11  2  0  0  0  0
  5 12  2  0  0  0  0
  6 17  1  0  0  0  0
  6 19  1  0  0  0  0
  7  8  1  0  0  0  0
  7  9  1  0  0  0  0
  7 12  1  0  0  0  0
  8 10  1  0  0  0  0
  8 20  1  0  0  0  0
  9 11  1  0  0  0  0
  9 21  1  0  0  0  0
  9 22  1  0  0  0  0
 10 13  2  0  0  0  0
 10 14  1  0  0  0  0
 13 15  1  0  0  0  0
 13 24  1  0  0  0  0
 14 16  2  0  0  0  0
 14 25  1  0  0  0  0
 15 17  2  0  0  0  0
 15 26  1  0  0  0  0
 16 17  1  0  0  0  0
 16 27  1  0  0  0  0
 18 28  1  0  0  0  0
 18 29  1  0  0  0  0
 18 30  1  0  0  0  0
 19 31  1  0  0  0  0
 19 32  1  0  0  0  0
 19 33  1  0  0  0  0
M  END
> <PUBCHEM_COMPOUND_CID>
586344

> <PUBCHEM_COMPOUND_CANONICALIZED>
1

> <PUBCHEM_CACTVS_COMPLEXITY>
360

> <PUBCHEM_CACTVS_HBOND_ACCEPTOR>
6

> <PUBCHEM_CACTVS_HBOND_DONOR>
1

> <PUBCHEM_CACTVS_ROTATABLE_BOND>
4

> <PUBCHEM_CACTVS_SUBSKEYS>
AAADccBwOAAAAAAAAAAAAAAAAAAAASAAAAAwAAAAAAAAAAABAAAAGgAACAAADFSgmAIyDoAABgCIAiDSCAICCAAgIAAIiAFGCIgNJjaEMRqCcCAl4BELqAfL6PyOIAAAAAAAAABAAAAAAAAAAAAAAAAAAA==

> <PUBCHEM_IUPAC_OPENEYE_NAME>
methyl 3-hydroxy-2-(4-methoxyphenyl)-5-oxo-tetrahydrofuran-3-carboxylate

> <PUBCHEM_IUPAC_CAS_NAME>
3-hydroxy-2-(4-methoxyphenyl)-5-oxo-3-oxolanecarboxylic acid methyl ester

> <PUBCHEM_IUPAC_NAME>
methyl 3-hydroxy-2-(4-methoxyphenyl)-5-oxooxolane-3-carboxylate

> <PUBCHEM_IUPAC_SYSTEMATIC_NAME>
methyl 2-(4-methoxyphenyl)-3-oxidanyl-5-oxidanylidene-oxolane-3-carboxylate

> <PUBCHEM_IUPAC_TRADITIONAL_NAME>
3-hydroxy-5-keto-2-(4-methoxyphenyl)tetrahydrofuran-3-carboxylic acid methyl ester

> <PUBCHEM_IUPAC_INCHI>
InChI=1S/C13H14O6/c1-17-9-5-3-8(4-6-9)11-13(16,12(15)18-2)7-10(14)19-11/h3-6,11,16H,7H2,1-2H3

> <PUBCHEM_IUPAC_INCHIKEY>
NLMFELKDAVVTPR-UHFFFAOYSA-N

> <PUBCHEM_XLOGP3_AA>
0.4

> <PUBCHEM_EXACT_MASS>
266.079038

> <PUBCHEM_MOLECULAR_FORMULA>
C13H14O6

> <PUBCHEM_MOLECULAR_WEIGHT>
266.24666

> <PUBCHEM_OPENEYE_CAN_SMILES>
COC1=CC=C(C=C1)C2C(CC(=O)O2)(C(=O)OC)O

> <PUBCHEM_OPENEYE_ISO_SMILES>
COC1=CC=C(C=C1)C2C(CC(=O)O2)(C(=O)OC)O

> <PUBCHEM_CACTVS_TPSA>
82.1

> <PUBCHEM_MONOISOTOPIC_WEIGHT>
266.079038

> <PUBCHEM_TOTAL_CHARGE>
0

> <PUBCHEM_HEAVY_ATOM_COUNT>
19

> <PUBCHEM_ATOM_DEF_STEREO_COUNT>
0

> <PUBCHEM_ATOM_UDEF_STEREO_COUNT>
2

> <PUBCHEM_BOND_DEF_STEREO_COUNT>
0

> <PUBCHEM_BOND_UDEF_STEREO_COUNT>
0

> <PUBCHEM_ISOTOPIC_ATOM_COUNT>
0

> <PUBCHEM_COMPONENT_COUNT>
1

> <PUBCHEM_CACTVS_TAUTO_COUNT>
2

> <PUBCHEM_COORDINATE_TYPE>
1
5
255

> <PUBCHEM_BONDANNOTATIONS>
10  13  8
10  14  8
13  15  8
14  16  8
15  17  8
16  17  8
7  12  3
8  20  3

$$$$

