101603
  -OEChem-07051213112D

 28 29  0     1  0  0  0  0  0999 V2000
    5.0032   -1.7161    0.0000 O   0  0  0  0  0  0  0  0  0  0  0  0
    3.4154   -2.5252    0.0000 O   0  0  0  0  0  0  0  0  0  0  0  0
    6.2828    0.9160    0.0000 N   0  0  0  0  0  0  0  0  0  0  0  0
    6.4519    2.5252    0.0000 N   0  0  0  0  0  0  0  0  0  0  0  0
    4.5032   -0.1773    0.0000 C   0  0  2  0  0  0  0  0  0  0  0  0
    3.6942   -0.7651    0.0000 C   0  0  2  0  0  0  0  0  0  0  0  0
    5.3122   -0.7651    0.0000 C   0  0  0  0  0  0  0  0  0  0  0  0
    4.5032    0.8227    0.0000 C   0  0  0  0  0  0  0  0  0  0  0  0
    2.7431   -0.4561    0.0000 C   0  0  0  0  0  0  0  0  0  0  0  0
    4.0032   -1.7161    0.0000 C   0  0  0  0  0  0  0  0  0  0  0  0
    5.3692    1.3227    0.0000 C   0  0  0  0  0  0  0  0  0  0  0  0
    2.0000   -1.1252    0.0000 C   0  0  0  0  0  0  0  0  0  0  0  0
    5.4738    2.3172    0.0000 C   0  0  0  0  0  0  0  0  0  0  0  0
    6.9519    1.6591    0.0000 C   0  0  0  0  0  0  0  0  0  0  0  0
    3.9508    0.1042    0.0000 H   0  0  0  0  0  0  0  0  0  0  0  0
    3.5972   -0.1527    0.0000 H   0  0  0  0  0  0  0  0  0  0  0  0
    5.8786   -1.0172    0.0000 H   0  0  0  0  0  0  0  0  0  0  0  0
    5.6222   -0.2281    0.0000 H   0  0  0  0  0  0  0  0  0  0  0  0
    4.2912    1.4053    0.0000 H   0  0  0  0  0  0  0  0  0  0  0  0
    3.8926    0.7151    0.0000 H   0  0  0  0  0  0  0  0  0  0  0  0
    3.0342    0.0914    0.0000 H   0  0  0  0  0  0  0  0  0  0  0  0
    2.2546   -0.0743    0.0000 H   0  0  0  0  0  0  0  0  0  0  0  0
    1.5851   -0.6644    0.0000 H   0  0  0  0  0  0  0  0  0  0  0  0
    1.5392   -1.5400    0.0000 H   0  0  0  0  0  0  0  0  0  0  0  0
    2.4149   -1.5859    0.0000 H   0  0  0  0  0  0  0  0  0  0  0  0
    6.4117    0.3095    0.0000 H   0  0  0  0  0  0  0  0  0  0  0  0
    5.0130    2.7321    0.0000 H   0  0  0  0  0  0  0  0  0  0  0  0
    7.5685    1.5943    0.0000 H   0  0  0  0  0  0  0  0  0  0  0  0
  1  7  1  0  0  0  0
  1 10  1  0  0  0  0
  2 10  2  0  0  0  0
  3 11  1  0  0  0  0
  3 14  1  0  0  0  0
  3 26  1  0  0  0  0
  4 13  1  0  0  0  0
  4 14  2  0  0  0  0
  5  6  1  0  0  0  0
  5  7  1  0  0  0  0
  5  8  1  1  0  0  0
  5 15  1  0  0  0  0
  6  9  1  1  0  0  0
  6 10  1  0  0  0  0
  6 16  1  0  0  0  0
  7 17  1  0  0  0  0
  7 18  1  0  0  0  0
  8 11  1  0  0  0  0
  8 19  1  0  0  0  0
  8 20  1  0  0  0  0
  9 12  1  0  0  0  0
  9 21  1  0  0  0  0
  9 22  1  0  0  0  0
 11 13  2  0  0  0  0
 12 23  1  0  0  0  0
 12 24  1  0  0  0  0
 12 25  1  0  0  0  0
 13 27  1  0  0  0  0
 14 28  1  0  0  0  0
M  END
> <PUBCHEM_COMPOUND_CID>
101603

> <PUBCHEM_COMPOUND_CANONICALIZED>
1

> <PUBCHEM_CACTVS_COMPLEXITY>
220

> <PUBCHEM_CACTVS_HBOND_ACCEPTOR>
3

> <PUBCHEM_CACTVS_HBOND_DONOR>
1

> <PUBCHEM_CACTVS_ROTATABLE_BOND>
3

> <PUBCHEM_CACTVS_SUBSKEYS>
AAADccBzMAAAAAAAAAAAAAAAAAAAAWJAAAAAAAAAAAAAAAABgAAAHgAQAAAADQjhlgYvmBbJlACoART3bAAAgC2xEqABUYE4cAiAaBJAmQCWAAAMkAJAQCG62QMegAAAAAAAAAAAAAAAAAAAAAAAAAAAAA==

> <PUBCHEM_IUPAC_OPENEYE_NAME>
(3S,4R)-3-ethyl-4-(1H-imidazol-5-ylmethyl)tetrahydrofuran-2-one

> <PUBCHEM_IUPAC_CAS_NAME>
(3S,4R)-3-ethyl-4-(1H-imidazol-5-ylmethyl)-2-oxolanone

> <PUBCHEM_IUPAC_NAME>
(3S,4R)-3-ethyl-4-(1H-imidazol-5-ylmethyl)oxolan-2-one

> <PUBCHEM_IUPAC_SYSTEMATIC_NAME>
(3S,4R)-3-ethyl-4-(1H-imidazol-5-ylmethyl)oxolan-2-one

> <PUBCHEM_IUPAC_TRADITIONAL_NAME>
(3S,4R)-3-ethyl-4-(1H-imidazol-5-ylmethyl)tetrahydrofuran-2-one

> <PUBCHEM_IUPAC_INCHI>
InChI=1S/C10H14N2O2/c1-2-9-7(5-14-10(9)13)3-8-4-11-6-12-8/h4,6-7,9H,2-3,5H2,1H3,(H,11,12)/t7-,9-/m0/s1

> <PUBCHEM_IUPAC_INCHIKEY>
QVRFSYRSSMDRPS-CBAPKCEASA-N

> <PUBCHEM_XLOGP3_AA>
1.1

> <PUBCHEM_EXACT_MASS>
194.105528

> <PUBCHEM_MOLECULAR_FORMULA>
C10H14N2O2

> <PUBCHEM_MOLECULAR_WEIGHT>
194.23036

> <PUBCHEM_OPENEYE_CAN_SMILES>
CCC1C(COC1=O)CC2=CN=CN2

> <PUBCHEM_OPENEYE_ISO_SMILES>
CC[C@H]1[C@H](COC1=O)CC2=CN=CN2

> <PUBCHEM_CACTVS_TPSA>
55

> <PUBCHEM_MONOISOTOPIC_WEIGHT>
194.105528

> <PUBCHEM_TOTAL_CHARGE>
0

> <PUBCHEM_HEAVY_ATOM_COUNT>
14

> <PUBCHEM_ATOM_DEF_STEREO_COUNT>
2

> <PUBCHEM_ATOM_UDEF_STEREO_COUNT>
0

> <PUBCHEM_BOND_DEF_STEREO_COUNT>
0

> <PUBCHEM_BOND_UDEF_STEREO_COUNT>
0

> <PUBCHEM_ISOTOPIC_ATOM_COUNT>
0

> <PUBCHEM_COMPONENT_COUNT>
1

> <PUBCHEM_CACTVS_TAUTO_COUNT>
4

> <PUBCHEM_COORDINATE_TYPE>
1
5
255

> <PUBCHEM_BONDANNOTATIONS>
11  13  8
3  11  8
3  14  8
4  13  8
4  14  8
5  8  5
6  9  5

$$$$

