582868
  -OEChem-06241222442D

 60 59  0     1  0  0  0  0  0999 V2000
    2.8660    0.3170    0.0000 Si  0  0  0  0  0  0  0  0  0  0  0  0
    3.7320    0.8170    0.0000 O   0  0  0  0  0  0  0  0  0  0  0  0
    4.5981    0.3170    0.0000 C   0  0  3  0  0  0  0  0  0  0  0  0
    5.4641    0.8170    0.0000 C   0  0  0  0  0  0  0  0  0  0  0  0
    6.3301    0.3170    0.0000 C   0  0  0  0  0  0  0  0  0  0  0  0
    7.1962    0.8170    0.0000 C   0  0  0  0  0  0  0  0  0  0  0  0
    8.0622    0.3170    0.0000 C   0  0  0  0  0  0  0  0  0  0  0  0
    8.9282    0.8170    0.0000 C   0  0  0  0  0  0  0  0  0  0  0  0
    9.7942    0.3170    0.0000 C   0  0  0  0  0  0  0  0  0  0  0  0
    4.5981   -0.6830    0.0000 C   0  0  0  0  0  0  0  0  0  0  0  0
   10.6603    0.8170    0.0000 C   0  0  0  0  0  0  0  0  0  0  0  0
   11.5263    0.3170    0.0000 C   0  0  0  0  0  0  0  0  0  0  0  0
   12.3923    0.8170    0.0000 C   0  0  0  0  0  0  0  0  0  0  0  0
    2.0000   -0.1830    0.0000 C   0  0  0  0  0  0  0  0  0  0  0  0
    2.3660    1.1830    0.0000 C   0  0  0  0  0  0  0  0  0  0  0  0
    3.3660   -0.5490    0.0000 C   0  0  0  0  0  0  0  0  0  0  0  0
   13.2583    0.3170    0.0000 C   0  0  0  0  0  0  0  0  0  0  0  0
    5.4641   -1.1830    0.0000 C   0  0  0  0  0  0  0  0  0  0  0  0
   14.1244    0.8170    0.0000 C   0  0  0  0  0  0  0  0  0  0  0  0
   14.9904    0.3170    0.0000 C   0  0  0  0  0  0  0  0  0  0  0  0
    4.5981    0.9370    0.0000 H   0  0  0  0  0  0  0  0  0  0  0  0
    5.8626    1.2919    0.0000 H   0  0  0  0  0  0  0  0  0  0  0  0
    5.0656    1.2919    0.0000 H   0  0  0  0  0  0  0  0  0  0  0  0
    5.9316   -0.1580    0.0000 H   0  0  0  0  0  0  0  0  0  0  0  0
    6.7287   -0.1580    0.0000 H   0  0  0  0  0  0  0  0  0  0  0  0
    7.5947    1.2919    0.0000 H   0  0  0  0  0  0  0  0  0  0  0  0
    6.7976    1.2919    0.0000 H   0  0  0  0  0  0  0  0  0  0  0  0
    7.6636   -0.1580    0.0000 H   0  0  0  0  0  0  0  0  0  0  0  0
    8.4607   -0.1580    0.0000 H   0  0  0  0  0  0  0  0  0  0  0  0
    9.3267    1.2919    0.0000 H   0  0  0  0  0  0  0  0  0  0  0  0
    8.5297    1.2919    0.0000 H   0  0  0  0  0  0  0  0  0  0  0  0
    9.3957   -0.1580    0.0000 H   0  0  0  0  0  0  0  0  0  0  0  0
   10.1928   -0.1580    0.0000 H   0  0  0  0  0  0  0  0  0  0  0  0
    3.9875   -0.5754    0.0000 H   0  0  0  0  0  0  0  0  0  0  0  0
    4.3860   -1.2656    0.0000 H   0  0  0  0  0  0  0  0  0  0  0  0
   11.0588    1.2919    0.0000 H   0  0  0  0  0  0  0  0  0  0  0  0
   10.2617    1.2919    0.0000 H   0  0  0  0  0  0  0  0  0  0  0  0
   11.1278   -0.1580    0.0000 H   0  0  0  0  0  0  0  0  0  0  0  0
   11.9248   -0.1580    0.0000 H   0  0  0  0  0  0  0  0  0  0  0  0
   12.7908    1.2919    0.0000 H   0  0  0  0  0  0  0  0  0  0  0  0
   11.9938    1.2919    0.0000 H   0  0  0  0  0  0  0  0  0  0  0  0
    1.6900    0.3539    0.0000 H   0  0  0  0  0  0  0  0  0  0  0  0
    1.4631   -0.4930    0.0000 H   0  0  0  0  0  0  0  0  0  0  0  0
    2.3100   -0.7199    0.0000 H   0  0  0  0  0  0  0  0  0  0  0  0
    2.9030    1.4930    0.0000 H   0  0  0  0  0  0  0  0  0  0  0  0
    2.0560    1.7200    0.0000 H   0  0  0  0  0  0  0  0  0  0  0  0
    1.8291    0.8730    0.0000 H   0  0  0  0  0  0  0  0  0  0  0  0
    2.8291   -0.8590    0.0000 H   0  0  0  0  0  0  0  0  0  0  0  0
    3.6760   -1.0860    0.0000 H   0  0  0  0  0  0  0  0  0  0  0  0
    3.9030   -0.2390    0.0000 H   0  0  0  0  0  0  0  0  0  0  0  0
   12.8598   -0.1580    0.0000 H   0  0  0  0  0  0  0  0  0  0  0  0
   13.6569   -0.1580    0.0000 H   0  0  0  0  0  0  0  0  0  0  0  0
    5.1541   -1.7200    0.0000 H   0  0  0  0  0  0  0  0  0  0  0  0
    6.0010   -1.4930    0.0000 H   0  0  0  0  0  0  0  0  0  0  0  0
    5.7741   -0.6461    0.0000 H   0  0  0  0  0  0  0  0  0  0  0  0
   14.5229    1.2919    0.0000 H   0  0  0  0  0  0  0  0  0  0  0  0
   13.7258    1.2919    0.0000 H   0  0  0  0  0  0  0  0  0  0  0  0
   14.6804   -0.2199    0.0000 H   0  0  0  0  0  0  0  0  0  0  0  0
   15.5273    0.0070    0.0000 H   0  0  0  0  0  0  0  0  0  0  0  0
   15.3004    0.8539    0.0000 H   0  0  0  0  0  0  0  0  0  0  0  0
  1  2  1  0  0  0  0
  1 14  1  0  0  0  0
  1 15  1  0  0  0  0
  1 16  1  0  0  0  0
  2  3  1  0  0  0  0
  3  4  1  0  0  0  0
  3 10  1  0  0  0  0
  3 21  1  0  0  0  0
  4  5  1  0  0  0  0
  4 22  1  0  0  0  0
  4 23  1  0  0  0  0
  5  6  1  0  0  0  0
  5 24  1  0  0  0  0
  5 25  1  0  0  0  0
  6  7  1  0  0  0  0
  6 26  1  0  0  0  0
  6 27  1  0  0  0  0
  7  8  1  0  0  0  0
  7 28  1  0  0  0  0
  7 29  1  0  0  0  0
  8  9  1  0  0  0  0
  8 30  1  0  0  0  0
  8 31  1  0  0  0  0
  9 11  1  0  0  0  0
  9 32  1  0  0  0  0
  9 33  1  0  0  0  0
 10 18  1  0  0  0  0
 10 34  1  0  0  0  0
 10 35  1  0  0  0  0
 11 12  1  0  0  0  0
 11 36  1  0  0  0  0
 11 37  1  0  0  0  0
 12 13  1  0  0  0  0
 12 38  1  0  0  0  0
 12 39  1  0  0  0  0
 13 17  1  0  0  0  0
 13 40  1  0  0  0  0
 13 41  1  0  0  0  0
 14 42  1  0  0  0  0
 14 43  1  0  0  0  0
 14 44  1  0  0  0  0
 15 45  1  0  0  0  0
 15 46  1  0  0  0  0
 15 47  1  0  0  0  0
 16 48  1  0  0  0  0
 16 49  1  0  0  0  0
 16 50  1  0  0  0  0
 17 19  1  0  0  0  0
 17 51  1  0  0  0  0
 17 52  1  0  0  0  0
 18 53  1  0  0  0  0
 18 54  1  0  0  0  0
 18 55  1  0  0  0  0
 19 20  1  0  0  0  0
 19 56  1  0  0  0  0
 19 57  1  0  0  0  0
 20 58  1  0  0  0  0
 20 59  1  0  0  0  0
 20 60  1  0  0  0  0
M  END
> <PUBCHEM_COMPOUND_CID>
582868

> <PUBCHEM_COMPOUND_CANONICALIZED>
1

> <PUBCHEM_CACTVS_COMPLEXITY>
198

> <PUBCHEM_CACTVS_HBOND_ACCEPTOR>
1

> <PUBCHEM_CACTVS_HBOND_DONOR>
0

> <PUBCHEM_CACTVS_ROTATABLE_BOND>
14

> <PUBCHEM_CACTVS_SUBSKEYS>
AAADcfB4IAgAAAAAAAAAAAAAAAAAAAAAAAAAAAAAAAAAAAAAAAAAGhAAAEAACBSggAJCAAAAAAEAAAAAAAAAAAAAAAAAAAAAAAAAAAIAAAAAAAAEAAAAAAGAwKAAAAAAAAAAAAAAAAAAAAAAAAAAAAAAAA==

> <PUBCHEM_IUPAC_OPENEYE_NAME>
1-ethyltridecoxy(trimethyl)silane

> <PUBCHEM_IUPAC_CAS_NAME>
trimethyl(pentadecan-3-yloxy)silane

> <PUBCHEM_IUPAC_NAME>
trimethyl(pentadecan-3-yloxy)silane

> <PUBCHEM_IUPAC_SYSTEMATIC_NAME>
trimethyl(pentadecan-3-yloxy)silane

> <PUBCHEM_IUPAC_TRADITIONAL_NAME>
1-ethyltridecoxy(trimethyl)silane

> <PUBCHEM_IUPAC_INCHI>
InChI=1S/C18H40OSi/c1-6-8-9-10-11-12-13-14-15-16-17-18(7-2)19-20(3,4)5/h18H,6-17H2,1-5H3

> <PUBCHEM_IUPAC_INCHIKEY>
HEIFZQJABKKLNE-UHFFFAOYSA-N

> <PUBCHEM_EXACT_MASS>
300.284842

> <PUBCHEM_MOLECULAR_FORMULA>
C18H40OSi

> <PUBCHEM_MOLECULAR_WEIGHT>
300.5951

> <PUBCHEM_OPENEYE_CAN_SMILES>
CCCCCCCCCCCCC(CC)O[Si](C)(C)C

> <PUBCHEM_OPENEYE_ISO_SMILES>
CCCCCCCCCCCCC(CC)O[Si](C)(C)C

> <PUBCHEM_CACTVS_TPSA>
9.2

> <PUBCHEM_MONOISOTOPIC_WEIGHT>
300.284842

> <PUBCHEM_TOTAL_CHARGE>
0

> <PUBCHEM_HEAVY_ATOM_COUNT>
20

> <PUBCHEM_ATOM_DEF_STEREO_COUNT>
0

> <PUBCHEM_ATOM_UDEF_STEREO_COUNT>
1

> <PUBCHEM_BOND_DEF_STEREO_COUNT>
0

> <PUBCHEM_BOND_UDEF_STEREO_COUNT>
0

> <PUBCHEM_ISOTOPIC_ATOM_COUNT>
0

> <PUBCHEM_COMPONENT_COUNT>
1

> <PUBCHEM_CACTVS_TAUTO_COUNT>
1

> <PUBCHEM_COORDINATE_TYPE>
1
5
255

> <PUBCHEM_BONDANNOTATIONS>
3  4  3

$$$$

