17395891
  -OEChem-06241222532D

 47 49  0     1  0  0  0  0  0999 V2000
    3.7320   -0.6830    0.0000 S   0  0  0  0  0  0  0  0  0  0  0  0
    2.8660    3.8170    0.0000 O   0  0  0  0  0  0  0  0  0  0  0  0
    2.7320   -0.6830    0.0000 O   0  0  0  0  0  0  0  0  0  0  0  0
    4.7320   -0.6830    0.0000 O   0  0  0  0  0  0  0  0  0  0  0  0
    3.7320    2.3170    0.0000 N   0  0  0  0  0  0  0  0  0  0  0  0
    3.7320    0.3170    0.0000 N   0  0  0  0  0  0  0  0  0  0  0  0
    4.5981    3.8170    0.0000 C   0  0  3  0  0  0  0  0  0  0  0  0
    5.5981    3.8170    0.0000 C   0  0  3  0  0  0  0  0  0  0  0  0
    5.0981    4.6830    0.0000 C   0  0  0  0  0  0  0  0  0  0  0  0
    3.7320    3.3170    0.0000 C   0  0  0  0  0  0  0  0  0  0  0  0
    6.4641    3.3170    0.0000 C   0  0  0  0  0  0  0  0  0  0  0  0
    4.5981    1.8170    0.0000 C   0  0  0  0  0  0  0  0  0  0  0  0
    2.8660    1.8170    0.0000 C   0  0  0  0  0  0  0  0  0  0  0  0
    4.5981    0.8170    0.0000 C   0  0  0  0  0  0  0  0  0  0  0  0
    2.8660    0.8170    0.0000 C   0  0  0  0  0  0  0  0  0  0  0  0
    3.7320   -1.6830    0.0000 C   0  0  0  0  0  0  0  0  0  0  0  0
    2.8660   -2.1830    0.0000 C   0  0  0  0  0  0  0  0  0  0  0  0
    4.5981   -2.1830    0.0000 C   0  0  0  0  0  0  0  0  0  0  0  0
    2.8660   -3.1830    0.0000 C   0  0  0  0  0  0  0  0  0  0  0  0
    4.5981   -3.1830    0.0000 C   0  0  0  0  0  0  0  0  0  0  0  0
    3.7320   -3.6830    0.0000 C   0  0  0  0  0  0  0  0  0  0  0  0
    2.0000   -1.6830    0.0000 C   0  0  0  0  0  0  0  0  0  0  0  0
    3.7320   -4.6830    0.0000 C   0  0  0  0  0  0  0  0  0  0  0  0
    4.1597    4.2554    0.0000 H   0  0  0  0  0  0  0  0  0  0  0  0
    6.0365    4.2554    0.0000 H   0  0  0  0  0  0  0  0  0  0  0  0
    5.5730    5.0815    0.0000 H   0  0  0  0  0  0  0  0  0  0  0  0
    4.6231    5.0815    0.0000 H   0  0  0  0  0  0  0  0  0  0  0  0
    6.1541    2.7800    0.0000 H   0  0  0  0  0  0  0  0  0  0  0  0
    7.0010    3.0070    0.0000 H   0  0  0  0  0  0  0  0  0  0  0  0
    6.7741    3.8539    0.0000 H   0  0  0  0  0  0  0  0  0  0  0  0
    5.2087    1.7093    0.0000 H   0  0  0  0  0  0  0  0  0  0  0  0
    4.8101    2.3996    0.0000 H   0  0  0  0  0  0  0  0  0  0  0  0
    2.6540    2.3996    0.0000 H   0  0  0  0  0  0  0  0  0  0  0  0
    2.2554    1.7093    0.0000 H   0  0  0  0  0  0  0  0  0  0  0  0
    4.8101    0.2344    0.0000 H   0  0  0  0  0  0  0  0  0  0  0  0
    5.2087    0.9246    0.0000 H   0  0  0  0  0  0  0  0  0  0  0  0
    2.2554    0.9246    0.0000 H   0  0  0  0  0  0  0  0  0  0  0  0
    2.6540    0.2344    0.0000 H   0  0  0  0  0  0  0  0  0  0  0  0
    5.1350   -1.8730    0.0000 H   0  0  0  0  0  0  0  0  0  0  0  0
    2.3291   -3.4930    0.0000 H   0  0  0  0  0  0  0  0  0  0  0  0
    5.1350   -3.4930    0.0000 H   0  0  0  0  0  0  0  0  0  0  0  0
    2.3100   -1.1461    0.0000 H   0  0  0  0  0  0  0  0  0  0  0  0
    1.4631   -1.3730    0.0000 H   0  0  0  0  0  0  0  0  0  0  0  0
    1.6900   -2.2200    0.0000 H   0  0  0  0  0  0  0  0  0  0  0  0
    3.1120   -4.6830    0.0000 H   0  0  0  0  0  0  0  0  0  0  0  0
    3.7320   -5.3030    0.0000 H   0  0  0  0  0  0  0  0  0  0  0  0
    4.3520   -4.6830    0.0000 H   0  0  0  0  0  0  0  0  0  0  0  0
  1  3  2  0  0  0  0
  1  4  2  0  0  0  0
  1  6  1  0  0  0  0
  1 16  1  0  0  0  0
  2 10  2  0  0  0  0
  5 10  1  0  0  0  0
  5 12  1  0  0  0  0
  5 13  1  0  0  0  0
  6 14  1  0  0  0  0
  6 15  1  0  0  0  0
  7  8  1  0  0  0  0
  7  9  1  0  0  0  0
  7 10  1  0  0  0  0
  7 24  1  0  0  0  0
  8  9  1  0  0  0  0
  8 11  1  0  0  0  0
  8 25  1  0  0  0  0
  9 26  1  0  0  0  0
  9 27  1  0  0  0  0
 11 28  1  0  0  0  0
 11 29  1  0  0  0  0
 11 30  1  0  0  0  0
 12 14  1  0  0  0  0
 12 31  1  0  0  0  0
 12 32  1  0  0  0  0
 13 15  1  0  0  0  0
 13 33  1  0  0  0  0
 13 34  1  0  0  0  0
 14 35  1  0  0  0  0
 14 36  1  0  0  0  0
 15 37  1  0  0  0  0
 15 38  1  0  0  0  0
 16 17  2  0  0  0  0
 16 18  1  0  0  0  0
 17 19  1  0  0  0  0
 17 22  1  0  0  0  0
 18 20  2  0  0  0  0
 18 39  1  0  0  0  0
 19 21  2  0  0  0  0
 19 40  1  0  0  0  0
 20 21  1  0  0  0  0
 20 41  1  0  0  0  0
 21 23  1  0  0  0  0
 22 42  1  0  0  0  0
 22 43  1  0  0  0  0
 22 44  1  0  0  0  0
 23 45  1  0  0  0  0
 23 46  1  0  0  0  0
 23 47  1  0  0  0  0
M  END
> <PUBCHEM_COMPOUND_CID>
17395891

> <PUBCHEM_COMPOUND_CANONICALIZED>
1

> <PUBCHEM_CACTVS_COMPLEXITY>
549

> <PUBCHEM_CACTVS_HBOND_ACCEPTOR>
4

> <PUBCHEM_CACTVS_HBOND_DONOR>
0

> <PUBCHEM_CACTVS_ROTATABLE_BOND>
3

> <PUBCHEM_CACTVS_SUBSKEYS>
AAADceB7MABAAAAAAAAAAAAAGAAAAAAAAAA8QAAAAAAAAAABAAAAHgQAQAAADQDB2AQyAYMAAAKIAiFSEHBCABAgAAAIiBkIAIgIYDKAkRCUIAAghgCIiAcYgEAOEAACAAAEAAAgAAQAAAgAAAAAAAAAAA==

> <PUBCHEM_IUPAC_OPENEYE_NAME>
[4-(2,4-dimethylphenyl)sulfonylpiperazin-1-yl]-(2-methylcyclopropyl)methanone

> <PUBCHEM_IUPAC_CAS_NAME>
[4-(2,4-dimethylphenyl)sulfonyl-1-piperazinyl]-(2-methylcyclopropyl)methanone

> <PUBCHEM_IUPAC_NAME>
[4-(2,4-dimethylphenyl)sulfonylpiperazin-1-yl]-(2-methylcyclopropyl)methanone

> <PUBCHEM_IUPAC_SYSTEMATIC_NAME>
[4-(2,4-dimethylphenyl)sulfonylpiperazin-1-yl]-(2-methylcyclopropyl)methanone

> <PUBCHEM_IUPAC_TRADITIONAL_NAME>
[4-(2,4-dimethylphenyl)sulfonylpiperazino]-(2-methylcyclopropyl)methanone

> <PUBCHEM_IUPAC_INCHI>
InChI=1S/C17H24N2O3S/c1-12-4-5-16(14(3)10-12)23(21,22)19-8-6-18(7-9-19)17(20)15-11-13(15)2/h4-5,10,13,15H,6-9,11H2,1-3H3

> <PUBCHEM_IUPAC_INCHIKEY>
KVQORIWDAVLOLB-UHFFFAOYSA-N

> <PUBCHEM_XLOGP3_AA>
2

> <PUBCHEM_EXACT_MASS>
336.150764

> <PUBCHEM_MOLECULAR_FORMULA>
C17H24N2O3S

> <PUBCHEM_MOLECULAR_WEIGHT>
336.44906

> <PUBCHEM_OPENEYE_CAN_SMILES>
CC1CC1C(=O)N2CCN(CC2)S(=O)(=O)C3=C(C=C(C=C3)C)C

> <PUBCHEM_OPENEYE_ISO_SMILES>
CC1CC1C(=O)N2CCN(CC2)S(=O)(=O)C3=C(C=C(C=C3)C)C

> <PUBCHEM_CACTVS_TPSA>
66.1

> <PUBCHEM_MONOISOTOPIC_WEIGHT>
336.150764

> <PUBCHEM_TOTAL_CHARGE>
0

> <PUBCHEM_HEAVY_ATOM_COUNT>
23

> <PUBCHEM_ATOM_DEF_STEREO_COUNT>
0

> <PUBCHEM_ATOM_UDEF_STEREO_COUNT>
2

> <PUBCHEM_BOND_DEF_STEREO_COUNT>
0

> <PUBCHEM_BOND_UDEF_STEREO_COUNT>
0

> <PUBCHEM_ISOTOPIC_ATOM_COUNT>
0

> <PUBCHEM_COMPONENT_COUNT>
1

> <PUBCHEM_CACTVS_TAUTO_COUNT>
1

> <PUBCHEM_COORDINATE_TYPE>
1
5
255

> <PUBCHEM_BONDANNOTATIONS>
16  17  8
16  18  8
17  19  8
18  20  8
19  21  8
20  21  8
7  10  3
8  11  3

$$$$

