6464
  -OEChem-07051212542D

 29 29  0     0  0  0  0  0  0999 V2000
    5.7320    0.6340    0.0000 O   0  0  0  0  0  0  0  0  0  0  0  0
    2.2680    0.6340    0.0000 O   0  0  0  0  0  0  0  0  0  0  0  0
    4.0000   -2.3660    0.0000 O   0  0  0  0  0  0  0  0  0  0  0  0
    4.8660   -0.8660    0.0000 N   0  0  0  0  0  0  0  0  0  0  0  0
    3.1340   -0.8660    0.0000 N   0  0  0  0  0  0  0  0  0  0  0  0
    4.0000    0.6340    0.0000 C   0  0  0  0  0  0  0  0  0  0  0  0
    4.5000    1.5000    0.0000 C   0  0  0  0  0  0  0  0  0  0  0  0
    3.5000    1.5000    0.0000 C   0  0  0  0  0  0  0  0  0  0  0  0
    3.1340    0.1340    0.0000 C   0  0  0  0  0  0  0  0  0  0  0  0
    4.8660    0.1340    0.0000 C   0  0  0  0  0  0  0  0  0  0  0  0
    4.0000    2.3660    0.0000 C   0  0  0  0  0  0  0  0  0  0  0  0
    5.5000    1.5000    0.0000 C   0  0  0  0  0  0  0  0  0  0  0  0
    2.5000    1.5000    0.0000 C   0  0  0  0  0  0  0  0  0  0  0  0
    4.0000   -1.3660    0.0000 C   0  0  0  0  0  0  0  0  0  0  0  0
    2.0000    2.3660    0.0000 C   0  0  0  0  0  0  0  0  0  0  0  0
    3.8800    1.5000    0.0000 H   0  0  0  0  0  0  0  0  0  0  0  0
    4.0826    1.7120    0.0000 H   0  0  0  0  0  0  0  0  0  0  0  0
    3.3923    2.1106    0.0000 H   0  0  0  0  0  0  0  0  0  0  0  0
    4.5369    2.6760    0.0000 H   0  0  0  0  0  0  0  0  0  0  0  0
    5.5000    0.8800    0.0000 H   0  0  0  0  0  0  0  0  0  0  0  0
    6.1200    1.5000    0.0000 H   0  0  0  0  0  0  0  0  0  0  0  0
    5.5000    2.1200    0.0000 H   0  0  0  0  0  0  0  0  0  0  0  0
    3.6900    2.9030    0.0000 H   0  0  0  0  0  0  0  0  0  0  0  0
    3.4631    2.0560    0.0000 H   0  0  0  0  0  0  0  0  0  0  0  0
    5.4030   -1.1760    0.0000 H   0  0  0  0  0  0  0  0  0  0  0  0
    2.5970   -1.1760    0.0000 H   0  0  0  0  0  0  0  0  0  0  0  0
    2.1900    0.9631    0.0000 H   0  0  0  0  0  0  0  0  0  0  0  0
    2.3100    2.9030    0.0000 H   0  0  0  0  0  0  0  0  0  0  0  0
    1.3800    2.3660    0.0000 H   0  0  0  0  0  0  0  0  0  0  0  0
  1 10  2  0  0  0  0
  2  9  2  0  0  0  0
  3 14  2  0  0  0  0
  4 10  1  0  0  0  0
  4 14  1  0  0  0  0
  4 25  1  0  0  0  0
  5  9  1  0  0  0  0
  5 14  1  0  0  0  0
  5 26  1  0  0  0  0
  6  7  1  0  0  0  0
  6  8  1  0  0  0  0
  6  9  1  0  0  0  0
  6 10  1  0  0  0  0
  7 11  1  0  0  0  0
  7 12  1  0  0  0  0
  7 16  1  0  0  0  0
  8 13  1  0  0  0  0
  8 17  1  0  0  0  0
  8 18  1  0  0  0  0
 11 19  1  0  0  0  0
 11 23  1  0  0  0  0
 11 24  1  0  0  0  0
 12 20  1  0  0  0  0
 12 21  1  0  0  0  0
 12 22  1  0  0  0  0
 13 15  2  0  0  0  0
 13 27  1  0  0  0  0
 15 28  1  0  0  0  0
 15 29  1  0  0  0  0
M  END
> <PUBCHEM_COMPOUND_CID>
6464

> <PUBCHEM_COMPOUND_CANONICALIZED>
1

> <PUBCHEM_CACTVS_COMPLEXITY>
314

> <PUBCHEM_CACTVS_HBOND_ACCEPTOR>
3

> <PUBCHEM_CACTVS_HBOND_DONOR>
2

> <PUBCHEM_CACTVS_ROTATABLE_BOND>
3

> <PUBCHEM_CACTVS_SUBSKEYS>
AAADccBzMAAAAAAAAAAAAAAAAAAAAAAAAAAsAAAAAAAAAAAAAAAAHgAQAAAADwCBgAADAALAAACIACFSEAAAAAAgAAAIAAEAAAiAABoIwQAEAAAIhSIAAAAAAAAPgAAAAAAAAAAAAAAAAAAAAAAAAAAAAA==

> <PUBCHEM_IUPAC_OPENEYE_NAME>
5-allyl-5-isopropyl-hexahydropyrimidine-2,4,6-trione

> <PUBCHEM_IUPAC_CAS_NAME>
5-propan-2-yl-5-prop-2-enyl-1,3-diazinane-2,4,6-trione

> <PUBCHEM_IUPAC_NAME>
5-propan-2-yl-5-prop-2-enyl-1,3-diazinane-2,4,6-trione

> <PUBCHEM_IUPAC_SYSTEMATIC_NAME>
5-propan-2-yl-5-prop-2-enyl-1,3-diazinane-2,4,6-trione

> <PUBCHEM_IUPAC_TRADITIONAL_NAME>
5-allyl-5-isopropyl-barbituric acid

> <PUBCHEM_IUPAC_INCHI>
InChI=1S/C10H14N2O3/c1-4-5-10(6(2)3)7(13)11-9(15)12-8(10)14/h4,6H,1,5H2,2-3H3,(H2,11,12,13,14,15)

> <PUBCHEM_IUPAC_INCHIKEY>
UORJNBVJVRLXMQ-UHFFFAOYSA-N

> <PUBCHEM_XLOGP3>
1.1

> <PUBCHEM_EXACT_MASS>
210.100442

> <PUBCHEM_MOLECULAR_FORMULA>
C10H14N2O3

> <PUBCHEM_MOLECULAR_WEIGHT>
210.22976

> <PUBCHEM_OPENEYE_CAN_SMILES>
CC(C)C1(C(=O)NC(=O)NC1=O)CC=C

> <PUBCHEM_OPENEYE_ISO_SMILES>
CC(C)C1(C(=O)NC(=O)NC1=O)CC=C

> <PUBCHEM_CACTVS_TPSA>
75.3

> <PUBCHEM_MONOISOTOPIC_WEIGHT>
210.100442

> <PUBCHEM_TOTAL_CHARGE>
0

> <PUBCHEM_HEAVY_ATOM_COUNT>
15

> <PUBCHEM_ATOM_DEF_STEREO_COUNT>
0

> <PUBCHEM_ATOM_UDEF_STEREO_COUNT>
0

> <PUBCHEM_BOND_DEF_STEREO_COUNT>
0

> <PUBCHEM_BOND_UDEF_STEREO_COUNT>
0

> <PUBCHEM_ISOTOPIC_ATOM_COUNT>
0

> <PUBCHEM_COMPONENT_COUNT>
1

> <PUBCHEM_CACTVS_TAUTO_COUNT>
5

> <PUBCHEM_COORDINATE_TYPE>
1
5
255

$$$$

