9364
  -OEChem-06261203392D

 19 20  0     0  0  0  0  0  0999 V2000
    5.4920   -1.3273    0.0000 O   0  0  0  0  0  0  0  0  0  0  0  0
    2.0000    0.7073    0.0000 O   0  0  0  0  0  0  0  0  0  0  0  0
    7.2622   -1.3168    0.0000 O   0  0  0  0  0  0  0  0  0  0  0  0
    2.0000   -1.2927    0.0000 O   0  0  0  0  0  0  0  0  0  0  0  0
    4.5981    0.2073    0.0000 C   0  0  0  0  0  0  0  0  0  0  0  0
    4.5981   -0.7927    0.0000 C   0  0  0  0  0  0  0  0  0  0  0  0
    3.7321    0.7073    0.0000 C   0  0  0  0  0  0  0  0  0  0  0  0
    5.4920    0.7420    0.0000 C   0  0  0  0  0  0  0  0  0  0  0  0
    3.7321   -1.2927    0.0000 C   0  0  0  0  0  0  0  0  0  0  0  0
    2.8660    0.2073    0.0000 C   0  0  0  0  0  0  0  0  0  0  0  0
    2.8660   -0.7927    0.0000 C   0  0  0  0  0  0  0  0  0  0  0  0
    6.3981    0.2281    0.0000 C   0  0  0  0  0  0  0  0  0  0  0  0
    6.3981   -0.8135    0.0000 C   0  0  0  0  0  0  0  0  0  0  0  0
    3.7321    1.3273    0.0000 H   0  0  0  0  0  0  0  0  0  0  0  0
    5.4848    1.3620    0.0000 H   0  0  0  0  0  0  0  0  0  0  0  0
    3.7321   -1.9127    0.0000 H   0  0  0  0  0  0  0  0  0  0  0  0
    6.9338    0.5402    0.0000 H   0  0  0  0  0  0  0  0  0  0  0  0
    2.0000    1.3273    0.0000 H   0  0  0  0  0  0  0  0  0  0  0  0
    7.8003   -1.0089    0.0000 H   0  0  0  0  0  0  0  0  0  0  0  0
  1  6  1  0  0  0  0
  1 13  1  0  0  0  0
  2 10  1  0  0  0  0
  2 18  1  0  0  0  0
  3 13  1  0  0  0  0
  3 19  1  0  0  0  0
  4 11  2  0  0  0  0
  5  6  1  0  0  0  0
  5  7  1  0  0  0  0
  5  8  2  0  0  0  0
  6  9  2  0  0  0  0
  7 10  2  0  0  0  0
  7 14  1  0  0  0  0
  8 12  1  0  0  0  0
  8 15  1  0  0  0  0
  9 11  1  0  0  0  0
  9 16  1  0  0  0  0
 10 11  1  0  0  0  0
 12 13  2  0  0  0  0
 12 17  1  0  0  0  0
M  END
> <PUBCHEM_COMPOUND_CID>
9364

> <PUBCHEM_COMPOUND_CANONICALIZED>
1

> <PUBCHEM_CACTVS_COMPLEXITY>
396

> <PUBCHEM_CACTVS_HBOND_ACCEPTOR>
4

> <PUBCHEM_CACTVS_HBOND_DONOR>
2

> <PUBCHEM_CACTVS_ROTATABLE_BOND>
0

> <PUBCHEM_CACTVS_SUBSKEYS>
AAADcYBwOAAAAAAAAAAAAAAAAAAAAAAAAAAgQAAAAAAAAACAAAAAGgAACAAADASAgAAACAAABgCIAqBSAAIACAAgIAAACABAAEgYBAAAIQAAUAAAQAAMoYIAAAAAAAAAAAAAAAAAAAAAAAAAAAAAAAAAAA==

> <PUBCHEM_IUPAC_OPENEYE_NAME>
2,6-dihydroxychromen-7-one

> <PUBCHEM_IUPAC_CAS_NAME>
2,6-dihydroxy-1-benzopyran-7-one

> <PUBCHEM_IUPAC_NAME>
2,6-dihydroxychromen-7-one

> <PUBCHEM_IUPAC_SYSTEMATIC_NAME>
2,6-bis(oxidanyl)chromen-7-one

> <PUBCHEM_IUPAC_TRADITIONAL_NAME>
2,6-dihydroxychromen-7-one

> <PUBCHEM_IUPAC_INCHI>
InChI=1S/C9H6O4/c10-6-3-5-1-2-9(12)13-8(5)4-7(6)11/h1-4,10,12H

> <PUBCHEM_IUPAC_INCHIKEY>
PPWORGSWZGRHFV-UHFFFAOYSA-N

> <PUBCHEM_XLOGP3_AA>
0.7

> <PUBCHEM_EXACT_MASS>
178.026609

> <PUBCHEM_MOLECULAR_FORMULA>
C9H6O4

> <PUBCHEM_MOLECULAR_WEIGHT>
178.14154

> <PUBCHEM_OPENEYE_CAN_SMILES>
C1=C2C=C(C(=O)C=C2OC(=C1)O)O

> <PUBCHEM_OPENEYE_ISO_SMILES>
C1=C2C=C(C(=O)C=C2OC(=C1)O)O

> <PUBCHEM_CACTVS_TPSA>
66.8

> <PUBCHEM_MONOISOTOPIC_WEIGHT>
178.026609

> <PUBCHEM_TOTAL_CHARGE>
0

> <PUBCHEM_HEAVY_ATOM_COUNT>
13

> <PUBCHEM_ATOM_DEF_STEREO_COUNT>
0

> <PUBCHEM_ATOM_UDEF_STEREO_COUNT>
0

> <PUBCHEM_BOND_DEF_STEREO_COUNT>
0

> <PUBCHEM_BOND_UDEF_STEREO_COUNT>
0

> <PUBCHEM_ISOTOPIC_ATOM_COUNT>
0

> <PUBCHEM_COMPONENT_COUNT>
1

> <PUBCHEM_CACTVS_TAUTO_COUNT>
3

> <PUBCHEM_COORDINATE_TYPE>
1
5
255

> <PUBCHEM_BONDANNOTATIONS>
1  13  8
1  6  8
10  11  8
12  13  8
5  7  8
5  8  8
6  9  8
7  10  8
8  12  8
9  11  8

$$$$

