439912
  -OEChem-07051212482D

 63 66  0     1  0  0  0  0  0999 V2000
    9.8781    1.4476    0.0000 P   0  0  3  0  0  0  0  0  0  0  0  0
   11.6010    1.6256    0.0000 P   0  0  3  0  0  0  0  0  0  0  0  0
    7.3435   -0.3169    0.0000 O   0  0  0  0  0  0  0  0  0  0  0  0
   13.2211    2.7984    0.0000 O   0  0  0  0  0  0  0  0  0  0  0  0
    4.8055    0.1875    0.0000 O   0  0  0  0  0  0  0  0  0  0  0  0
    6.0873    1.9454    0.0000 O   0  0  0  0  0  0  0  0  0  0  0  0
    9.0681    0.8612    0.0000 O   0  0  0  0  0  0  0  0  0  0  0  0
   12.5138    1.2173    0.0000 O   0  0  0  0  0  0  0  0  0  0  0  0
   15.9596    1.5735    0.0000 O   0  0  0  0  0  0  0  0  0  0  0  0
   15.7540    3.5629    0.0000 O   0  0  0  0  0  0  0  0  0  0  0  0
   14.3395    0.4007    0.0000 O   0  0  0  0  0  0  0  0  0  0  0  0
   10.6882    2.0340    0.0000 O   0  0  0  0  0  0  0  0  0  0  0  0
   10.4645    0.6375    0.0000 O   0  0  0  0  0  0  0  0  0  0  0  0
   12.0093    2.5385    0.0000 O   0  0  0  0  0  0  0  0  0  0  0  0
    9.2917    2.2576    0.0000 O   0  0  0  0  0  0  0  0  0  0  0  0
   11.1927    0.7128    0.0000 O   0  0  0  0  0  0  0  0  0  0  0  0
    4.2690   -4.3795    0.0000 O   0  0  0  0  0  0  0  0  0  0  0  0
    6.0812   -1.5748    0.0000 N   0  0  0  0  0  0  0  0  0  0  0  0
    4.2690   -1.3795    0.0000 N   0  0  0  0  0  0  0  0  0  0  0  0
    6.0812   -3.1842    0.0000 N   0  0  0  0  0  0  0  0  0  0  0  0
    3.4030   -2.8795    0.0000 N   0  0  0  0  0  0  0  0  0  0  0  0
    2.5369   -1.3795    0.0000 N   0  0  0  0  0  0  0  0  0  0  0  0
    5.8055    0.1858    0.0000 C   0  0  2  0  0  0  0  0  0  0  0  0
    6.3947    0.9938    0.0000 C   0  0  1  0  0  0  0  0  0  0  0  0
    6.3919   -0.6242    0.0000 C   0  0  1  0  0  0  0  0  0  0  0  0
    7.3452    0.6831    0.0000 C   0  0  1  0  0  0  0  0  0  0  0  0
   15.0467    1.9818    0.0000 C   0  0  1  0  0  0  0  0  0  0  0  0
   14.9439    2.9765    0.0000 C   0  0  1  0  0  0  0  0  0  0  0  0
    8.1552    1.2695    0.0000 C   0  0  0  0  0  0  0  0  0  0  0  0
   14.2367    1.3954    0.0000 C   0  0  1  0  0  0  0  0  0  0  0  0
   14.0311    3.3848    0.0000 C   0  0  1  0  0  0  0  0  0  0  0  0
   13.3239    1.8037    0.0000 C   0  0  2  0  0  0  0  0  0  0  0  0
    5.1350   -1.8795    0.0000 C   0  0  0  0  0  0  0  0  0  0  0  0
    6.6648   -2.3795    0.0000 C   0  0  0  0  0  0  0  0  0  0  0  0
   13.9283    4.3795    0.0000 C   0  0  0  0  0  0  0  0  0  0  0  0
    5.1350   -2.8795    0.0000 C   0  0  0  0  0  0  0  0  0  0  0  0
    4.2690   -3.3795    0.0000 C   0  0  0  0  0  0  0  0  0  0  0  0
    3.4030   -1.8795    0.0000 C   0  0  0  0  0  0  0  0  0  0  0  0
    5.5250    0.7387    0.0000 H   0  0  0  0  0  0  0  0  0  0  0  0
    5.7825    1.0918    0.0000 H   0  0  0  0  0  0  0  0  0  0  0  0
    5.7794   -0.7202    0.0000 H   0  0  0  0  0  0  0  0  0  0  0  0
    7.8972    0.4007    0.0000 H   0  0  0  0  0  0  0  0  0  0  0  0
   15.1105    1.3651    0.0000 H   0  0  0  0  0  0  0  0  0  0  0  0
   15.5099    2.7233    0.0000 H   0  0  0  0  0  0  0  0  0  0  0  0
    8.5028    1.7829    0.0000 H   0  0  0  0  0  0  0  0  0  0  0  0
    7.7100    1.7010    0.0000 H   0  0  0  0  0  0  0  0  0  0  0  0
   13.7345    1.0318    0.0000 H   0  0  0  0  0  0  0  0  0  0  0  0
   13.4651    3.6380    0.0000 H   0  0  0  0  0  0  0  0  0  0  0  0
   12.7579    2.0569    0.0000 H   0  0  0  0  0  0  0  0  0  0  0  0
    4.4964    0.7250    0.0000 H   0  0  0  0  0  0  0  0  0  0  0  0
    6.5030    2.4054    0.0000 H   0  0  0  0  0  0  0  0  0  0  0  0
    7.2848   -2.3795    0.0000 H   0  0  0  0  0  0  0  0  0  0  0  0
   14.5450    4.4432    0.0000 H   0  0  0  0  0  0  0  0  0  0  0  0
   13.8645    4.9962    0.0000 H   0  0  0  0  0  0  0  0  0  0  0  0
   13.3116    4.3158    0.0000 H   0  0  0  0  0  0  0  0  0  0  0  0
   16.4618    1.9370    0.0000 H   0  0  0  0  0  0  0  0  0  0  0  0
   15.6902    4.1796    0.0000 H   0  0  0  0  0  0  0  0  0  0  0  0
   14.9055    0.1475    0.0000 H   0  0  0  0  0  0  0  0  0  0  0  0
    4.2690   -0.7595    0.0000 H   0  0  0  0  0  0  0  0  0  0  0  0
   10.2113    0.0716    0.0000 H   0  0  0  0  0  0  0  0  0  0  0  0
   11.6458    3.0407    0.0000 H   0  0  0  0  0  0  0  0  0  0  0  0
    2.0000   -1.6895    0.0000 H   0  0  0  0  0  0  0  0  0  0  0  0
    2.5369   -0.7595    0.0000 H   0  0  0  0  0  0  0  0  0  0  0  0
  1  7  1  0  0  0  0
  1 12  1  0  0  0  0
  1 13  1  0  0  0  0
  1 15  2  0  0  0  0
  2  8  1  0  0  0  0
  2 12  1  0  0  0  0
  2 14  1  0  0  0  0
  2 16  2  0  0  0  0
  3 25  1  0  0  0  0
  3 26  1  0  0  0  0
  4 31  1  0  0  0  0
  4 32  1  0  0  0  0
 23  5  1  6  0  0  0
  5 50  1  0  0  0  0
 24  6  1  6  0  0  0
  6 51  1  0  0  0  0
  7 29  1  0  0  0  0
 32  8  1  1  0  0  0
 27  9  1  6  0  0  0
  9 56  1  0  0  0  0
 28 10  1  1  0  0  0
 10 57  1  0  0  0  0
 30 11  1  6  0  0  0
 11 58  1  0  0  0  0
 13 60  1  0  0  0  0
 14 61  1  0  0  0  0
 17 37  2  0  0  0  0
 25 18  1  1  0  0  0
 18 33  1  0  0  0  0
 18 34  1  0  0  0  0
 19 33  1  0  0  0  0
 19 38  1  0  0  0  0
 19 59  1  0  0  0  0
 20 34  2  0  0  0  0
 20 36  1  0  0  0  0
 21 37  1  0  0  0  0
 21 38  2  0  0  0  0
 22 38  1  0  0  0  0
 22 62  1  0  0  0  0
 22 63  1  0  0  0  0
 23 24  1  0  0  0  0
 23 25  1  0  0  0  0
 23 39  1  0  0  0  0
 24 26  1  0  0  0  0
 24 40  1  0  0  0  0
 25 41  1  0  0  0  0
 26 29  1  1  0  0  0
 26 42  1  0  0  0  0
 27 28  1  0  0  0  0
 27 30  1  0  0  0  0
 27 43  1  0  0  0  0
 28 31  1  0  0  0  0
 28 44  1  0  0  0  0
 29 45  1  0  0  0  0
 29 46  1  0  0  0  0
 30 32  1  0  0  0  0
 30 47  1  0  0  0  0
 31 35  1  6  0  0  0
 31 48  1  0  0  0  0
 32 49  1  0  0  0  0
 33 36  2  0  0  0  0
 34 52  1  0  0  0  0
 35 53  1  0  0  0  0
 35 54  1  0  0  0  0
 35 55  1  0  0  0  0
 36 37  1  0  0  0  0
M  END
> <PUBCHEM_COMPOUND_CID>
439912

> <PUBCHEM_COMPOUND_CANONICALIZED>
1

> <PUBCHEM_CACTVS_COMPLEXITY>
1040

> <PUBCHEM_CACTVS_HBOND_ACCEPTOR>
16

> <PUBCHEM_CACTVS_HBOND_DONOR>
9

> <PUBCHEM_CACTVS_ROTATABLE_BOND>
8

> <PUBCHEM_CACTVS_SUBSKEYS>
AAADceB7vAMAAAAAAAAAAAAAAAAAAWJAAAAkQAAAAAAAAEABgAAAHgAQCCAACBzxlgcHuBfMFxCoQQdxdICAgC0XEKABUAGoVECTWApAyCAeQIAPAALXAGHwcAYAAAAAAAAAAAAAAAAAAAAAAAAAAAAAAA==

> <PUBCHEM_IUPAC_OPENEYE_NAME>
[[(2R,3S,4R,5R)-5-(2-amino-6-oxo-3H-purin-9-yl)-3,4-dihydroxy-tetrahydrofuran-2-yl]methoxy-hydroxy-phosphoryl] [(2R,3S,4S,5S,6R)-3,4,5-trihydroxy-6-methyl-tetrahydropyran-2-yl] hydrogen phosphate

> <PUBCHEM_IUPAC_CAS_NAME>
[[(2R,3S,4R,5R)-5-(2-amino-6-oxo-3H-purin-9-yl)-3,4-dihydroxy-2-oxolanyl]methoxy-hydroxyphosphoryl] [(2R,3S,4S,5S,6R)-3,4,5-trihydroxy-6-methyl-2-oxanyl] hydrogen phosphate

> <PUBCHEM_IUPAC_NAME>
[[(2R,3S,4R,5R)-5-(2-amino-6-oxo-3H-purin-9-yl)-3,4-dihydroxyoxolan-2-yl]methoxy-hydroxyphosphoryl] [(2R,3S,4S,5S,6R)-3,4,5-trihydroxy-6-methyloxan-2-yl] hydrogen phosphate

> <PUBCHEM_IUPAC_SYSTEMATIC_NAME>
[[(2R,3S,4R,5R)-5-(2-azanyl-6-oxidanylidene-3H-purin-9-yl)-3,4-bis(oxidanyl)oxolan-2-yl]methoxy-oxidanyl-phosphoryl] [(2R,3S,4S,5S,6R)-6-methyl-3,4,5-tris(oxidanyl)oxan-2-yl] hydrogen phosphate

> <PUBCHEM_IUPAC_TRADITIONAL_NAME>
[[(2R,3S,4R,5R)-5-(2-amino-6-keto-3H-purin-9-yl)-3,4-dihydroxy-tetrahydrofuran-2-yl]methoxy-hydroxy-phosphoryl] [(2R,3S,4S,5S,6R)-3,4,5-trihydroxy-6-methyl-tetrahydropyran-2-yl] hydrogen phosphate

> <PUBCHEM_IUPAC_INCHI>
InChI=1S/C16H25N5O15P2/c1-4-7(22)9(24)11(26)15(33-4)35-38(30,31)36-37(28,29)32-2-5-8(23)10(25)14(34-5)21-3-18-6-12(21)19-16(17)20-13(6)27/h3-5,7-11,14-15,22-26H,2H2,1H3,(H,28,29)(H,30,31)(H3,17,19,20,27)/t4-,5-,7-,8-,9+,10-,11+,14-,15-/m1/s1

> <PUBCHEM_IUPAC_INCHIKEY>
LQEBEXMHBLQMDB-GDJBGNAASA-N

> <PUBCHEM_XLOGP3_AA>
-6.6

> <PUBCHEM_EXACT_MASS>
589.082238

> <PUBCHEM_MOLECULAR_FORMULA>
C16H25N5O15P2

> <PUBCHEM_MOLECULAR_WEIGHT>
589.341724

> <PUBCHEM_OPENEYE_CAN_SMILES>
CC1C(C(C(C(O1)OP(=O)(O)OP(=O)(O)OCC2C(C(C(O2)N3C=NC4=C3NC(=NC4=O)N)O)O)O)O)O

> <PUBCHEM_OPENEYE_ISO_SMILES>
C[C@@H]1[C@H]([C@@H]([C@@H]([C@H](O1)OP(=O)(O)OP(=O)(O)OC[C@@H]2[C@H]([C@H]([C@@H](O2)N3C=NC4=C3NC(=NC4=O)N)O)O)O)O)O

> <PUBCHEM_CACTVS_TPSA>
307

> <PUBCHEM_MONOISOTOPIC_WEIGHT>
589.082238

> <PUBCHEM_TOTAL_CHARGE>
0

> <PUBCHEM_HEAVY_ATOM_COUNT>
38

> <PUBCHEM_ATOM_DEF_STEREO_COUNT>
9

> <PUBCHEM_ATOM_UDEF_STEREO_COUNT>
0

> <PUBCHEM_BOND_DEF_STEREO_COUNT>
0

> <PUBCHEM_BOND_UDEF_STEREO_COUNT>
0

> <PUBCHEM_ISOTOPIC_ATOM_COUNT>
0

> <PUBCHEM_COMPONENT_COUNT>
1

> <PUBCHEM_CACTVS_TAUTO_COUNT>
9

> <PUBCHEM_COORDINATE_TYPE>
1
5
255

> <PUBCHEM_BONDANNOTATIONS>
28  10  5
30  11  6
25  18  5
18  33  8
18  34  8
19  33  8
19  38  8
20  34  8
20  36  8
21  37  8
21  38  8
26  29  5
31  35  6
33  36  8
36  37  8
23  5  6
24  6  6
32  8  5
27  9  6

$$$$

