9846221
  -OEChem-07051213152D

 82 86  0     1  0  0  0  0  0999 V2000
    2.5357   -2.5933    0.0000 O   0  0  0  0  0  0  0  0  0  0  0  0
   11.5367    0.5118    0.0000 O   0  0  0  0  0  0  0  0  0  0  0  0
    7.0628   -1.0410    0.0000 C   0  0  2  0  0  0  0  0  0  0  0  0
    6.1968   -0.5410    0.0000 C   0  0  1  0  0  0  0  0  0  0  0  0
    5.2868   -1.0478    0.0000 C   0  0  2  0  0  0  0  0  0  0  0  0
    7.9288   -0.5410    0.0000 C   0  0  1  0  0  0  0  0  0  0  0  0
    5.2787   -2.0894    0.0000 C   0  0  1  0  0  0  0  0  0  0  0  0
    7.0789   -2.0825    0.0000 C   0  0  0  0  0  0  0  0  0  0  0  0
    7.9288    0.4590    0.0000 C   0  0  0  0  0  0  0  0  0  0  0  0
    8.8228    0.9937    0.0000 C   0  0  1  0  0  0  0  0  0  0  0  0
    6.1808   -2.6102    0.0000 C   0  0  0  0  0  0  0  0  0  0  0  0
    9.7288    0.4799    0.0000 C   0  0  1  0  0  0  0  0  0  0  0  0
    4.3433   -2.6391    0.0000 C   0  0  0  0  0  0  0  0  0  0  0  0
    8.8228   -1.0756    0.0000 C   0  0  0  0  0  0  0  0  0  0  0  0
    6.1968    0.4590    0.0000 C   0  0  0  0  0  0  0  0  0  0  0  0
    4.3599   -0.4837    0.0000 C   0  0  0  0  0  0  0  0  0  0  0  0
    9.7288   -0.5618    0.0000 C   0  0  0  0  0  0  0  0  0  0  0  0
    7.7056   -1.8070    0.0000 C   0  0  0  0  0  0  0  0  0  0  0  0
    7.0628    0.9590    0.0000 C   0  0  0  0  0  0  0  0  0  0  0  0
    3.4037   -2.0966    0.0000 C   0  0  2  0  0  0  0  0  0  0  0  0
    5.2945   -0.0478    0.0000 C   0  0  0  0  0  0  0  0  0  0  0  0
    8.2709   -1.4806    0.0000 C   0  0  0  0  0  0  0  0  0  0  0  0
    8.7977    2.0784    0.0000 C   0  0  0  0  0  0  0  0  0  0  0  0
    3.4120   -1.0117    0.0000 C   0  0  0  0  0  0  0  0  0  0  0  0
   10.6726    1.0151    0.0000 C   0  0  1  0  0  0  0  0  0  0  0  0
    9.7288    2.6353    0.0000 C   0  0  0  0  0  0  0  0  0  0  0  0
   10.6726    2.1001    0.0000 C   0  0  0  0  0  0  0  0  0  0  0  0
   10.5987   -0.0135    0.0000 C   0  0  0  0  0  0  0  0  0  0  0  0
    3.8467   -3.5071    0.0000 C   0  0  0  0  0  0  0  0  0  0  0  0
    4.8466   -3.5032    0.0000 C   0  0  0  0  0  0  0  0  0  0  0  0
   10.2188    3.5071    0.0000 C   0  0  0  0  0  0  0  0  0  0  0  0
    9.2188    3.4955    0.0000 C   0  0  0  0  0  0  0  0  0  0  0  0
    6.9329   -0.1160    0.0000 H   0  0  0  0  0  0  0  0  0  0  0  0
    5.2820   -2.9394    0.0000 H   0  0  0  0  0  0  0  0  0  0  0  0
    7.2969   -2.6629    0.0000 H   0  0  0  0  0  0  0  0  0  0  0  0
    7.6880   -1.9670    0.0000 H   0  0  0  0  0  0  0  0  0  0  0  0
    9.5522    1.4300    0.0000 H   0  0  0  0  0  0  0  0  0  0  0  0
    5.7835   -3.0862    0.0000 H   0  0  0  0  0  0  0  0  0  0  0  0
    6.5818   -3.0831    0.0000 H   0  0  0  0  0  0  0  0  0  0  0  0
    8.4182   -1.5454    0.0000 H   0  0  0  0  0  0  0  0  0  0  0  0
    9.2164   -1.5546    0.0000 H   0  0  0  0  0  0  0  0  0  0  0  0
    5.9847    1.0416    0.0000 H   0  0  0  0  0  0  0  0  0  0  0  0
    5.5862    0.3514    0.0000 H   0  0  0  0  0  0  0  0  0  0  0  0
    4.7681   -0.0171    0.0000 H   0  0  0  0  0  0  0  0  0  0  0  0
    3.9700   -0.0017    0.0000 H   0  0  0  0  0  0  0  0  0  0  0  0
    9.9379   -1.1455    0.0000 H   0  0  0  0  0  0  0  0  0  0  0  0
   10.3397   -0.4557    0.0000 H   0  0  0  0  0  0  0  0  0  0  0  0
    7.2306   -2.2055    0.0000 H   0  0  0  0  0  0  0  0  0  0  0  0
    8.1041   -2.2820    0.0000 H   0  0  0  0  0  0  0  0  0  0  0  0
    8.1805   -1.4085    0.0000 H   0  0  0  0  0  0  0  0  0  0  0  0
    7.0628    1.5790    0.0000 H   0  0  0  0  0  0  0  0  0  0  0  0
    3.4025   -2.7166    0.0000 H   0  0  0  0  0  0  0  0  0  0  0  0
    5.9145   -0.0526    0.0000 H   0  0  0  0  0  0  0  0  0  0  0  0
    5.2993    0.5721    0.0000 H   0  0  0  0  0  0  0  0  0  0  0  0
    4.6745   -0.0431    0.0000 H   0  0  0  0  0  0  0  0  0  0  0  0
    7.6884   -1.6927    0.0000 H   0  0  0  0  0  0  0  0  0  0  0  0
    8.4830   -2.0632    0.0000 H   0  0  0  0  0  0  0  0  0  0  0  0
    8.8535   -1.2685    0.0000 H   0  0  0  0  0  0  0  0  0  0  0  0
    8.5752    2.6571    0.0000 H   0  0  0  0  0  0  0  0  0  0  0  0
    8.1894    1.9582    0.0000 H   0  0  0  0  0  0  0  0  0  0  0  0
    3.2075   -0.4264    0.0000 H   0  0  0  0  0  0  0  0  0  0  0  0
    2.8004   -1.1131    0.0000 H   0  0  0  0  0  0  0  0  0  0  0  0
   11.2101    1.3241    0.0000 H   0  0  0  0  0  0  0  0  0  0  0  0
   11.2835    1.9940    0.0000 H   0  0  0  0  0  0  0  0  0  0  0  0
   10.8817    2.6838    0.0000 H   0  0  0  0  0  0  0  0  0  0  0  0
   10.2928   -0.5528    0.0000 H   0  0  0  0  0  0  0  0  0  0  0  0
   11.1380   -0.3193    0.0000 H   0  0  0  0  0  0  0  0  0  0  0  0
   10.9045    0.5259    0.0000 H   0  0  0  0  0  0  0  0  0  0  0  0
    3.3085   -3.1992    0.0000 H   0  0  0  0  0  0  0  0  0  0  0  0
    3.5387   -4.0452    0.0000 H   0  0  0  0  0  0  0  0  0  0  0  0
    4.3848   -3.8150    0.0000 H   0  0  0  0  0  0  0  0  0  0  0  0
    4.3109   -3.8153    0.0000 H   0  0  0  0  0  0  0  0  0  0  0  0
    5.1587   -4.0390    0.0000 H   0  0  0  0  0  0  0  0  0  0  0  0
    5.3824   -3.1912    0.0000 H   0  0  0  0  0  0  0  0  0  0  0  0
   10.7593    3.2033    0.0000 H   0  0  0  0  0  0  0  0  0  0  0  0
   10.5226    4.0476    0.0000 H   0  0  0  0  0  0  0  0  0  0  0  0
    9.6783    3.8108    0.0000 H   0  0  0  0  0  0  0  0  0  0  0  0
    9.7522    3.8117    0.0000 H   0  0  0  0  0  0  0  0  0  0  0  0
    8.9027    4.0288    0.0000 H   0  0  0  0  0  0  0  0  0  0  0  0
    8.6855    3.1793    0.0000 H   0  0  0  0  0  0  0  0  0  0  0  0
    2.0000   -2.2812    0.0000 H   0  0  0  0  0  0  0  0  0  0  0  0
   12.0748    0.8197    0.0000 H   0  0  0  0  0  0  0  0  0  0  0  0
 20  1  1  1  0  0  0
  1 81  1  0  0  0  0
 25  2  1  1  0  0  0
  2 82  1  0  0  0  0
  3  4  1  0  0  0  0
  3  6  1  0  0  0  0
  3  8  1  0  0  0  0
  3 18  1  1  0  0  0
  4  5  1  0  0  0  0
  4 15  1  0  0  0  0
  4 33  1  6  0  0  0
  5  7  1  0  0  0  0
  5 16  1  0  0  0  0
  5 21  1  1  0  0  0
  6  9  1  0  0  0  0
  6 14  1  0  0  0  0
  6 22  1  6  0  0  0
  7 11  1  0  0  0  0
  7 13  1  0  0  0  0
  7 34  1  6  0  0  0
  8 11  1  0  0  0  0
  8 35  1  0  0  0  0
  8 36  1  0  0  0  0
  9 10  1  0  0  0  0
  9 19  2  0  0  0  0
 10 12  1  0  0  0  0
 10 23  1  0  0  0  0
 10 37  1  1  0  0  0
 11 38  1  0  0  0  0
 11 39  1  0  0  0  0
 12 17  1  0  0  0  0
 12 25  1  0  0  0  0
 12 28  1  1  0  0  0
 13 20  1  0  0  0  0
 13 29  1  0  0  0  0
 13 30  1  0  0  0  0
 14 17  1  0  0  0  0
 14 40  1  0  0  0  0
 14 41  1  0  0  0  0
 15 19  1  0  0  0  0
 15 42  1  0  0  0  0
 15 43  1  0  0  0  0
 16 24  1  0  0  0  0
 16 44  1  0  0  0  0
 16 45  1  0  0  0  0
 17 46  1  0  0  0  0
 17 47  1  0  0  0  0
 18 48  1  0  0  0  0
 18 49  1  0  0  0  0
 18 50  1  0  0  0  0
 19 51  1  0  0  0  0
 20 24  1  0  0  0  0
 20 52  1  0  0  0  0
 21 53  1  0  0  0  0
 21 54  1  0  0  0  0
 21 55  1  0  0  0  0
 22 56  1  0  0  0  0
 22 57  1  0  0  0  0
 22 58  1  0  0  0  0
 23 26  1  0  0  0  0
 23 59  1  0  0  0  0
 23 60  1  0  0  0  0
 24 61  1  0  0  0  0
 24 62  1  0  0  0  0
 25 27  1  0  0  0  0
 25 63  1  0  0  0  0
 26 27  1  0  0  0  0
 26 31  1  0  0  0  0
 26 32  1  0  0  0  0
 27 64  1  0  0  0  0
 27 65  1  0  0  0  0
 28 66  1  0  0  0  0
 28 67  1  0  0  0  0
 28 68  1  0  0  0  0
 29 69  1  0  0  0  0
 29 70  1  0  0  0  0
 29 71  1  0  0  0  0
 30 72  1  0  0  0  0
 30 73  1  0  0  0  0
 30 74  1  0  0  0  0
 31 75  1  0  0  0  0
 31 76  1  0  0  0  0
 31 77  1  0  0  0  0
 32 78  1  0  0  0  0
 32 79  1  0  0  0  0
 32 80  1  0  0  0  0
M  END
> <PUBCHEM_COMPOUND_CID>
9846221

> <PUBCHEM_COMPOUND_CANONICALIZED>
1

> <PUBCHEM_CACTVS_COMPLEXITY>
825

> <PUBCHEM_CACTVS_HBOND_ACCEPTOR>
2

> <PUBCHEM_CACTVS_HBOND_DONOR>
2

> <PUBCHEM_CACTVS_ROTATABLE_BOND>
0

> <PUBCHEM_CACTVS_SUBSKEYS>
AAADcfB4MAAAAAAAAAAAAAAAAAAAAAAAAAAwYMGCAAAAAADAAAAAGgAACAAADxSggAICAAAAAgCAAiBCAAAAAAAgAAAACAAAAAgAEAIAAQAAQAAEgAAIAAOAwPAPgAAAAAAAAADAAAYAADAAAAAAAAAAAA==

> <PUBCHEM_IUPAC_OPENEYE_NAME>
(3S,4aR,6aR,6bS,8aR,9R,12aS,14aR,14bR)-4,4,6a,6b,8a,11,11,14b-octamethyl-1,2,3,4a,5,6,7,8,9,10,12,12a,14,14a-tetradecahydropicene-3,9-diol

> <PUBCHEM_IUPAC_CAS_NAME>
(3S,4aR,6aR,6bS,8aR,9R,12aS,14aR,14bR)-4,4,6a,6b,8a,11,11,14b-octamethyl-1,2,3,4a,5,6,7,8,9,10,12,12a,14,14a-tetradecahydropicene-3,9-diol

> <PUBCHEM_IUPAC_NAME>
(3S,4aR,6aR,6bS,8aR,9R,12aS,14aR,14bR)-4,4,6a,6b,8a,11,11,14b-octamethyl-1,2,3,4a,5,6,7,8,9,10,12,12a,14,14a-tetradecahydropicene-3,9-diol

> <PUBCHEM_IUPAC_SYSTEMATIC_NAME>
(3S,4aR,6aR,6bS,8aR,9R,12aS,14aR,14bR)-4,4,6a,6b,8a,11,11,14b-octamethyl-1,2,3,4a,5,6,7,8,9,10,12,12a,14,14a-tetradecahydropicene-3,9-diol

> <PUBCHEM_IUPAC_TRADITIONAL_NAME>
(3S,4aR,6aR,6bS,8aR,9R,12aS,14aR,14bR)-4,4,6a,6b,8a,11,11,14b-octamethyl-1,2,3,4a,5,6,7,8,9,10,12,12a,14,14a-tetradecahydropicene-3,9-diol

> <PUBCHEM_IUPAC_INCHI>
InChI=1S/C30H50O2/c1-25(2)17-20-19-9-10-22-28(6)13-12-23(31)26(3,4)21(28)11-14-30(22,8)29(19,7)16-15-27(20,5)24(32)18-25/h9,20-24,31-32H,10-18H2,1-8H3/t20-,21-,22+,23-,24+,27+,28-,29+,30+/m0/s1

> <PUBCHEM_IUPAC_INCHIKEY>
ZEGUWBQDYDXBNS-FVFJQADASA-N

> <PUBCHEM_XLOGP3_AA>
7.6

> <PUBCHEM_EXACT_MASS>
442.381081

> <PUBCHEM_MOLECULAR_FORMULA>
C30H50O2

> <PUBCHEM_MOLECULAR_WEIGHT>
442.7168

> <PUBCHEM_OPENEYE_CAN_SMILES>
CC1(CC2C3=CCC4C5(CCC(C(C5CCC4(C3(CCC2(C(C1)O)C)C)C)(C)C)O)C)C

> <PUBCHEM_OPENEYE_ISO_SMILES>
C[C@]12CC[C@@H](C([C@@H]1CC[C@@]3([C@@H]2CC=C4[C@]3(CC[C@@]5([C@H]4CC(C[C@H]5O)(C)C)C)C)C)(C)C)O

> <PUBCHEM_CACTVS_TPSA>
40.5

> <PUBCHEM_MONOISOTOPIC_WEIGHT>
442.381081

> <PUBCHEM_TOTAL_CHARGE>
0

> <PUBCHEM_HEAVY_ATOM_COUNT>
32

> <PUBCHEM_ATOM_DEF_STEREO_COUNT>
9

> <PUBCHEM_ATOM_UDEF_STEREO_COUNT>
0

> <PUBCHEM_BOND_DEF_STEREO_COUNT>
0

> <PUBCHEM_BOND_UDEF_STEREO_COUNT>
0

> <PUBCHEM_ISOTOPIC_ATOM_COUNT>
0

> <PUBCHEM_COMPONENT_COUNT>
1

> <PUBCHEM_CACTVS_TAUTO_COUNT>
1

> <PUBCHEM_COORDINATE_TYPE>
1
5
255

> <PUBCHEM_BONDANNOTATIONS>
20  1  5
10  37  5
12  28  5
25  2  5
3  18  5
4  33  6
5  21  5
6  22  6
7  34  6

$$$$

