442631
  -OEChem-07051212582D

 40 41  0     1  0  0  0  0  0999 V2000
    5.5202    1.0716    0.0000 O   0  0  0  0  0  0  0  0  0  0  0  0
    4.8479    3.1407    0.0000 O   0  0  0  0  0  0  0  0  0  0  0  0
    2.0280   -2.2071    0.0000 O   0  0  0  0  0  0  0  0  0  0  0  0
    3.7601   -3.2071    0.0000 O   0  0  0  0  0  0  0  0  0  0  0  0
    2.9511    1.3807    0.0000 N   0  0  3  0  0  0  0  0  0  0  0  0
    3.7601    0.7929    0.0000 C   0  0  1  0  0  0  0  0  0  0  0  0
    3.2601    2.3317    0.0000 C   0  0  1  0  0  0  0  0  0  0  0  0
    4.5691    1.3807    0.0000 C   0  0  2  0  0  0  0  0  0  0  0  0
    4.2601    2.3317    0.0000 C   0  0  2  0  0  0  0  0  0  0  0  0
    3.7601   -0.2071    0.0000 C   0  0  0  0  0  0  0  0  0  0  0  0
    2.6723    3.1407    0.0000 C   0  0  0  0  0  0  0  0  0  0  0  0
    2.0000    1.0716    0.0000 C   0  0  0  0  0  0  0  0  0  0  0  0
    2.8940   -0.7071    0.0000 C   0  0  0  0  0  0  0  0  0  0  0  0
    4.6261   -0.7071    0.0000 C   0  0  0  0  0  0  0  0  0  0  0  0
    2.8940   -1.7071    0.0000 C   0  0  0  0  0  0  0  0  0  0  0  0
    4.6261   -1.7071    0.0000 C   0  0  0  0  0  0  0  0  0  0  0  0
    3.7601   -2.2071    0.0000 C   0  0  0  0  0  0  0  0  0  0  0  0
    2.0280   -3.2071    0.0000 C   0  0  0  0  0  0  0  0  0  0  0  0
    4.6261   -3.7071    0.0000 C   0  0  0  0  0  0  0  0  0  0  0  0
    4.3125    0.5114    0.0000 H   0  0  0  0  0  0  0  0  0  0  0  0
    2.6477    2.2347    0.0000 H   0  0  0  0  0  0  0  0  0  0  0  0
    4.6661    0.7683    0.0000 H   0  0  0  0  0  0  0  0  0  0  0  0
    4.8724    2.2347    0.0000 H   0  0  0  0  0  0  0  0  0  0  0  0
    3.1739    3.5052    0.0000 H   0  0  0  0  0  0  0  0  0  0  0  0
    2.3079    3.6423    0.0000 H   0  0  0  0  0  0  0  0  0  0  0  0
    2.1707    2.7763    0.0000 H   0  0  0  0  0  0  0  0  0  0  0  0
    1.8084    1.6613    0.0000 H   0  0  0  0  0  0  0  0  0  0  0  0
    1.4103    0.8800    0.0000 H   0  0  0  0  0  0  0  0  0  0  0  0
    2.1916    0.4820    0.0000 H   0  0  0  0  0  0  0  0  0  0  0  0
    5.9809    1.4865    0.0000 H   0  0  0  0  0  0  0  0  0  0  0  0
    4.5957    3.7071    0.0000 H   0  0  0  0  0  0  0  0  0  0  0  0
    2.3571   -0.3971    0.0000 H   0  0  0  0  0  0  0  0  0  0  0  0
    5.1630   -0.3971    0.0000 H   0  0  0  0  0  0  0  0  0  0  0  0
    5.1630   -2.0171    0.0000 H   0  0  0  0  0  0  0  0  0  0  0  0
    1.4080   -3.2071    0.0000 H   0  0  0  0  0  0  0  0  0  0  0  0
    2.0280   -3.8271    0.0000 H   0  0  0  0  0  0  0  0  0  0  0  0
    2.6480   -3.2071    0.0000 H   0  0  0  0  0  0  0  0  0  0  0  0
    4.3161   -4.2441    0.0000 H   0  0  0  0  0  0  0  0  0  0  0  0
    5.1630   -4.0171    0.0000 H   0  0  0  0  0  0  0  0  0  0  0  0
    4.9361   -3.1702    0.0000 H   0  0  0  0  0  0  0  0  0  0  0  0
  8  1  1  6  0  0  0
  1 30  1  0  0  0  0
  9  2  1  1  0  0  0
  2 31  1  0  0  0  0
  3 15  1  0  0  0  0
  3 18  1  0  0  0  0
  4 17  1  0  0  0  0
  4 19  1  0  0  0  0
  5  6  1  0  0  0  0
  5  7  1  0  0  0  0
  5 12  1  0  0  0  0
  6  8  1  0  0  0  0
  6 10  1  1  0  0  0
  6 20  1  0  0  0  0
  7  9  1  0  0  0  0
  7 11  1  6  0  0  0
  7 21  1  0  0  0  0
  8  9  1  0  0  0  0
  8 22  1  0  0  0  0
  9 23  1  0  0  0  0
 10 13  2  0  0  0  0
 10 14  1  0  0  0  0
 11 24  1  0  0  0  0
 11 25  1  0  0  0  0
 11 26  1  0  0  0  0
 12 27  1  0  0  0  0
 12 28  1  0  0  0  0
 12 29  1  0  0  0  0
 13 15  1  0  0  0  0
 13 32  1  0  0  0  0
 14 16  2  0  0  0  0
 14 33  1  0  0  0  0
 15 17  2  0  0  0  0
 16 17  1  0  0  0  0
 16 34  1  0  0  0  0
 18 35  1  0  0  0  0
 18 36  1  0  0  0  0
 18 37  1  0  0  0  0
 19 38  1  0  0  0  0
 19 39  1  0  0  0  0
 19 40  1  0  0  0  0
M  END
> <PUBCHEM_COMPOUND_CID>
442631

> <PUBCHEM_COMPOUND_CANONICALIZED>
1

> <PUBCHEM_CACTVS_COMPLEXITY>
301

> <PUBCHEM_CACTVS_HBOND_ACCEPTOR>
5

> <PUBCHEM_CACTVS_HBOND_DONOR>
2

> <PUBCHEM_CACTVS_ROTATABLE_BOND>
3

> <PUBCHEM_CACTVS_SUBSKEYS>
AAADceByOAAAAAAAAAAAAAAAAAAAAWAAAAAwAAAAAAAAAAABAAAAHgAACAAADDzhmAYyBoMABgCAAiBCAACCCAAgIAAIiAAOjIgPNiKEsRuEcCpmwBGbqAew8P8OIAABAAAAQABAAAIAAACAAAAAAAAAAA==

> <PUBCHEM_IUPAC_OPENEYE_NAME>
(2R,3R,4R,5R)-2-(3,4-dimethoxyphenyl)-1,5-dimethyl-pyrrolidine-3,4-diol

> <PUBCHEM_IUPAC_CAS_NAME>
(2R,3R,4R,5R)-2-(3,4-dimethoxyphenyl)-1,5-dimethylpyrrolidine-3,4-diol

> <PUBCHEM_IUPAC_NAME>
(2R,3R,4R,5R)-2-(3,4-dimethoxyphenyl)-1,5-dimethylpyrrolidine-3,4-diol

> <PUBCHEM_IUPAC_SYSTEMATIC_NAME>
(2R,3R,4R,5R)-2-(3,4-dimethoxyphenyl)-1,5-dimethyl-pyrrolidine-3,4-diol

> <PUBCHEM_IUPAC_TRADITIONAL_NAME>
(2R,3R,4R,5R)-2-(3,4-dimethoxyphenyl)-1,5-dimethyl-pyrrolidine-3,4-diol

> <PUBCHEM_IUPAC_INCHI>
InChI=1S/C14H21NO4/c1-8-13(16)14(17)12(15(8)2)9-5-6-10(18-3)11(7-9)19-4/h5-8,12-14,16-17H,1-4H3/t8-,12-,13-,14-/m1/s1

> <PUBCHEM_IUPAC_INCHIKEY>
WCNPJVPXLWJQIR-HKSFMPNISA-N

> <PUBCHEM_XLOGP3_AA>
0.7

> <PUBCHEM_EXACT_MASS>
267.147058

> <PUBCHEM_MOLECULAR_FORMULA>
C14H21NO4

> <PUBCHEM_MOLECULAR_WEIGHT>
267.32084

> <PUBCHEM_OPENEYE_CAN_SMILES>
CC1C(C(C(N1C)C2=CC(=C(C=C2)OC)OC)O)O

> <PUBCHEM_OPENEYE_ISO_SMILES>
C[C@@H]1[C@H]([C@@H]([C@H](N1C)C2=CC(=C(C=C2)OC)OC)O)O

> <PUBCHEM_CACTVS_TPSA>
62.2

> <PUBCHEM_MONOISOTOPIC_WEIGHT>
267.147058

> <PUBCHEM_TOTAL_CHARGE>
0

> <PUBCHEM_HEAVY_ATOM_COUNT>
19

> <PUBCHEM_ATOM_DEF_STEREO_COUNT>
4

> <PUBCHEM_ATOM_UDEF_STEREO_COUNT>
0

> <PUBCHEM_BOND_DEF_STEREO_COUNT>
0

> <PUBCHEM_BOND_UDEF_STEREO_COUNT>
0

> <PUBCHEM_ISOTOPIC_ATOM_COUNT>
0

> <PUBCHEM_COMPONENT_COUNT>
1

> <PUBCHEM_CACTVS_TAUTO_COUNT>
1

> <PUBCHEM_COORDINATE_TYPE>
1
5
255

> <PUBCHEM_BONDANNOTATIONS>
8  1  6
10  13  8
10  14  8
13  15  8
14  16  8
15  17  8
16  17  8
9  2  5
6  10  5
7  11  6

$$$$

