4119
  -OEChem-06251223542D

 34 36  0     0  0  0  0  0  0999 V2000
    5.4641    0.7673    0.0000 O   0  0  0  0  0  0  0  0  0  0  0  0
    8.9942    0.7914    0.0000 O   0  0  0  0  0  0  0  0  0  0  0  0
    5.4641   -2.2327    0.0000 O   0  0  0  0  0  0  0  0  0  0  0  0
    6.3301   -0.7327    0.0000 C   0  0  0  0  0  0  0  0  0  0  0  0
    6.3301    0.2673    0.0000 C   0  0  0  0  0  0  0  0  0  0  0  0
    7.2241   -1.2674    0.0000 C   0  0  0  0  0  0  0  0  0  0  0  0
    4.5981    0.2673    0.0000 C   0  0  0  0  0  0  0  0  0  0  0  0
    5.4641   -1.2327    0.0000 C   0  0  0  0  0  0  0  0  0  0  0  0
    7.2241    0.8020    0.0000 C   0  0  0  0  0  0  0  0  0  0  0  0
    8.1301   -0.7535    0.0000 C   0  0  0  0  0  0  0  0  0  0  0  0
    8.1301    0.2881    0.0000 C   0  0  0  0  0  0  0  0  0  0  0  0
    4.5981   -0.7327    0.0000 C   0  0  0  0  0  0  0  0  0  0  0  0
    3.7320    0.7673    0.0000 C   0  0  0  0  0  0  0  0  0  0  0  0
    7.2125   -2.2673    0.0000 C   0  0  0  0  0  0  0  0  0  0  0  0
    3.7320    1.7673    0.0000 C   0  0  0  0  0  0  0  0  0  0  0  0
    2.8660    0.2673    0.0000 C   0  0  0  0  0  0  0  0  0  0  0  0
    2.8660    2.2673    0.0000 C   0  0  0  0  0  0  0  0  0  0  0  0
    2.0000    0.7673    0.0000 C   0  0  0  0  0  0  0  0  0  0  0  0
    2.0000    1.7673    0.0000 C   0  0  0  0  0  0  0  0  0  0  0  0
    9.8622    0.2948    0.0000 C   0  0  0  0  0  0  0  0  0  0  0  0
    7.2169    1.4219    0.0000 H   0  0  0  0  0  0  0  0  0  0  0  0
    8.6659   -1.0656    0.0000 H   0  0  0  0  0  0  0  0  0  0  0  0
    4.0611   -1.0427    0.0000 H   0  0  0  0  0  0  0  0  0  0  0  0
    6.5926   -2.2601    0.0000 H   0  0  0  0  0  0  0  0  0  0  0  0
    7.2053   -2.8873    0.0000 H   0  0  0  0  0  0  0  0  0  0  0  0
    7.8325   -2.2745    0.0000 H   0  0  0  0  0  0  0  0  0  0  0  0
    4.2690    2.0773    0.0000 H   0  0  0  0  0  0  0  0  0  0  0  0
    2.8660   -0.3527    0.0000 H   0  0  0  0  0  0  0  0  0  0  0  0
    2.8660    2.8873    0.0000 H   0  0  0  0  0  0  0  0  0  0  0  0
    1.4631    0.4573    0.0000 H   0  0  0  0  0  0  0  0  0  0  0  0
    1.4631    2.0773    0.0000 H   0  0  0  0  0  0  0  0  0  0  0  0
    9.5542   -0.2433    0.0000 H   0  0  0  0  0  0  0  0  0  0  0  0
   10.4003   -0.0131    0.0000 H   0  0  0  0  0  0  0  0  0  0  0  0
   10.1701    0.8329    0.0000 H   0  0  0  0  0  0  0  0  0  0  0  0
  1  5  1  0  0  0  0
  1  7  1  0  0  0  0
  2 11  1  0  0  0  0
  2 20  1  0  0  0  0
  3  8  2  0  0  0  0
  4  5  2  0  0  0  0
  4  6  1  0  0  0  0
  4  8  1  0  0  0  0
  5  9  1  0  0  0  0
  6 10  2  0  0  0  0
  6 14  1  0  0  0  0
  7 12  2  0  0  0  0
  7 13  1  0  0  0  0
  8 12  1  0  0  0  0
  9 11  2  0  0  0  0
  9 21  1  0  0  0  0
 10 11  1  0  0  0  0
 10 22  1  0  0  0  0
 12 23  1  0  0  0  0
 13 15  2  0  0  0  0
 13 16  1  0  0  0  0
 14 24  1  0  0  0  0
 14 25  1  0  0  0  0
 14 26  1  0  0  0  0
 15 17  1  0  0  0  0
 15 27  1  0  0  0  0
 16 18  2  0  0  0  0
 16 28  1  0  0  0  0
 17 19  2  0  0  0  0
 17 29  1  0  0  0  0
 18 19  1  0  0  0  0
 18 30  1  0  0  0  0
 19 31  1  0  0  0  0
 20 32  1  0  0  0  0
 20 33  1  0  0  0  0
 20 34  1  0  0  0  0
M  END
> <PUBCHEM_COMPOUND_CID>
4119

> <PUBCHEM_COMPOUND_CANONICALIZED>
1

> <PUBCHEM_CACTVS_COMPLEXITY>
395

> <PUBCHEM_CACTVS_HBOND_ACCEPTOR>
3

> <PUBCHEM_CACTVS_HBOND_DONOR>
0

> <PUBCHEM_CACTVS_ROTATABLE_BOND>
2

> <PUBCHEM_CACTVS_SUBSKEYS>
AAADccB4MAAAAAAAAAAAAAAAAAAAAAAAAAAwYIAAAAAAAACBQAAAGgAAAAAADASAmAIyBoAABACIAqBSAAACCAAkIAAIiAEGCMgMJzaENRqCOWCl4BUIqQeI7LzOoAABCAAYAABAAAIQADAAAAAAAAAAAA==

> <PUBCHEM_IUPAC_OPENEYE_NAME>
7-methoxy-5-methyl-2-phenyl-chromen-4-one

> <PUBCHEM_IUPAC_CAS_NAME>
7-methoxy-5-methyl-2-phenyl-1-benzopyran-4-one

> <PUBCHEM_IUPAC_NAME>
7-methoxy-5-methyl-2-phenylchromen-4-one

> <PUBCHEM_IUPAC_SYSTEMATIC_NAME>
7-methoxy-5-methyl-2-phenyl-chromen-4-one

> <PUBCHEM_IUPAC_TRADITIONAL_NAME>
7-methoxy-5-methyl-2-phenyl-chromone

> <PUBCHEM_IUPAC_INCHI>
InChI=1S/C17H14O3/c1-11-8-13(19-2)9-16-17(11)14(18)10-15(20-16)12-6-4-3-5-7-12/h3-10H,1-2H3

> <PUBCHEM_IUPAC_INCHIKEY>
JETSDIPTVSZMLI-UHFFFAOYSA-N

> <PUBCHEM_XLOGP3_AA>
3.5

> <PUBCHEM_EXACT_MASS>
266.094294

> <PUBCHEM_MOLECULAR_FORMULA>
C17H14O3

> <PUBCHEM_MOLECULAR_WEIGHT>
266.29126

> <PUBCHEM_OPENEYE_CAN_SMILES>
CC1=CC(=CC2=C1C(=O)C=C(O2)C3=CC=CC=C3)OC

> <PUBCHEM_OPENEYE_ISO_SMILES>
CC1=CC(=CC2=C1C(=O)C=C(O2)C3=CC=CC=C3)OC

> <PUBCHEM_CACTVS_TPSA>
35.5

> <PUBCHEM_MONOISOTOPIC_WEIGHT>
266.094294

> <PUBCHEM_TOTAL_CHARGE>
0

> <PUBCHEM_HEAVY_ATOM_COUNT>
20

> <PUBCHEM_ATOM_DEF_STEREO_COUNT>
0

> <PUBCHEM_ATOM_UDEF_STEREO_COUNT>
0

> <PUBCHEM_BOND_DEF_STEREO_COUNT>
0

> <PUBCHEM_BOND_UDEF_STEREO_COUNT>
0

> <PUBCHEM_ISOTOPIC_ATOM_COUNT>
0

> <PUBCHEM_COMPONENT_COUNT>
1

> <PUBCHEM_CACTVS_TAUTO_COUNT>
1

> <PUBCHEM_COORDINATE_TYPE>
1
5
255

> <PUBCHEM_BONDANNOTATIONS>
1  5  8
1  7  8
10  11  8
13  15  8
13  16  8
15  17  8
16  18  8
17  19  8
18  19  8
4  5  8
4  6  8
4  8  8
5  9  8
6  10  8
7  12  8
8  12  8
9  11  8

$$$$

