   Color/Form

     * White to slightly yellow crystals
     * White to tan powder or crystalline solid

   from [1]HSDB

   Odor
        Essentially odorless
   from [2]HSDB

   Melting Point
        124.5 deg C
   from [3]HSDB

   Dissociation Constants
        pKa = 4.7 /Estimated/
   from [4]HSDB

   Octanol/Water Partition Coefficient
        log Kow = 2.30
   from [5]HSDB

   Solubilities

     * In benzene: >1000 g/L; in acetone, ethanol, diethyl ether: 30-100
       g/L; in chloroform: 0.01-1 g/L
     * In water, 250 mg/L @ 20 deg C

   from [6]HSDB

   Spectral Properties

     * IR: 5430 (Sadtler Research Laboratories IR prism collection)
     * UV: 1488 (Sadtler Research Laboratories Spectral Collection)
     * 1H NMR: 9196 (Sadtler Research Laboratories Spectral Collection)

   from [7]HSDB

   Vapor Pressure
        1.8X10-6 mm Hg @ 25 deg C /Estimated/
   from [8]HSDB

   Other Chemical/Physical Properties

     * Vapor pressure: <0.01 mPa (<8X10-8 mm Hg) @ 25 deg C
     * Henry's Law constant: 1.3X10-11 atm cu m/mol@ 25 deg C /Estimated/
     * Hydroxyl radical reaction rate constant: 2.0X10-10 cu
       cm/molecule-sec @ 25 deg C /Estimated/

   from [9]HSDB

   Computed Properties
   Molecular Weight                  203.23712 [g/mol]
   Molecular Formula                 C[12]H[13]NO[2]
   XLogP3                            2.3
   H-Bond Donor                      2
   H-Bond Acceptor                   2
   Rotatable Bond Count              4
   Exact Mass                        203.094629
   MonoIsotopic Mass                 203.094629
   Topological Polar Surface Area    53.1
   Heavy Atom Count                  15
   Formal Charge                     0
   Complexity                        230
   Isotope Atom Count                0
   Defined Atom Stereocenter Count   0
   Undefined Atom Stereocenter Count 0
   Defined Bond Stereocenter Count   0
   Undefined Bond Stereocenter Count 0
   Covalently-Bonded Unit Count      1
   Feature 3D Acceptor Count         2
   Feature 3D Donor Count            1
   Feature 3D Anion Count            1
   Feature 3D Cation Count           1
   Feature 3D Ring Count             2
   Effective Rotor Count             4
   Conformer Sampling RMSD           0.6
   CID Conformer Count               [10]47

References

   1. http://toxnet.nlm.nih.gov/cgi-bin/sis/search/r?dbs+hsdb:@term+@rn+@rel+133-32-4
   2. http://toxnet.nlm.nih.gov/cgi-bin/sis/search/r?dbs+hsdb:@term+@rn+@rel+133-32-4
   3. http://toxnet.nlm.nih.gov/cgi-bin/sis/search/r?dbs+hsdb:@term+@rn+@rel+133-32-4
   4. http://toxnet.nlm.nih.gov/cgi-bin/sis/search/r?dbs+hsdb:@term+@rn+@rel+133-32-4
   5. http://toxnet.nlm.nih.gov/cgi-bin/sis/search/r?dbs+hsdb:@term+@rn+@rel+133-32-4
   6. http://toxnet.nlm.nih.gov/cgi-bin/sis/search/r?dbs+hsdb:@term+@rn+@rel+133-32-4
   7. http://toxnet.nlm.nih.gov/cgi-bin/sis/search/r?dbs+hsdb:@term+@rn+@rel+133-32-4
   8. http://toxnet.nlm.nih.gov/cgi-bin/sis/search/r?dbs+hsdb:@term+@rn+@rel+133-32-4
   9. http://toxnet.nlm.nih.gov/cgi-bin/sis/search/r?dbs+hsdb:@term+@rn+@rel+133-32-4
  10. http://pubchem.ncbi.nlm.nih.gov/vw3d/vw3d.cgi?cid=8617
