   Color/Form
        Liquid
   from [1]HSDB

   Boiling Point
        127 deg C at 0.02 mm Hg
   from [2]HSDB

   Dissociation Constants
        pKa = 8.8 (est)
   from [3]HSDB

   Octanol/Water Partition Coefficient
        log Kow = 4.14 (est)
   from [4]HSDB

   Solubilities

     * In water, 80 mg/L at 25 deg C (est)
     * Practically insol in water; sol in methanol, ethanol, ether,
       chloroform, acetone, benzene

   from [5]HSDB

   Spectral Properties

     * Index of refraction: 1.5515 at 19 deg C/D
     * MASS: 58670 (NITS/EPA/MSDC Mass Spectral Database, 1990 version)

   from [6]HSDB

   Vapor Pressure
        1.0X10-4 mm Hg at 25 deg C (est)
   from [7]HSDB

   Other Chemical/Physical Properties

     * Odorless; polymorphic with one form melting at about 130 deg C &
       another at about 150 deg C & higher with decomposition
       /Benzphetamine hydrochloride/
     * Crystals from ethyl acetate. Dextrorotatory; mp: 129-130 deg C; sol
       in water, 95% ethanol. /Benzphetamine hydrochloride/
     * White to off-white crystalline powder. 1 g soluble in 1.5 mL water,
       1.5 mL alcohol, 1.5 mL chloroform. /Benzphetamine hydrochloride/
     * MW 275.82 /Benzphetamine hydrochloride/
     * Henry's Law constant = 4.2X10-7 atm-cu m/mol at 25 deg C (est)
     * Hydroxyl radical reaction rate constant = 1.1X10-10 cu cm/molec-sec
       at 25 deg C (est)

   from [8]HSDB

   Computed Properties
   Molecular Weight                  239.35534 [g/mol]
   Molecular Formula                 C[17]H[21]N
   XLogP3-AA                         4.1
   H-Bond Donor                      0
   H-Bond Acceptor                   1
   Rotatable Bond Count              5
   Exact Mass                        239.1674
   MonoIsotopic Mass                 239.1674
   Topological Polar Surface Area    3.2
   Heavy Atom Count                  18
   Formal Charge                     0
   Complexity                        214
   Isotope Atom Count                0
   Defined Atom Stereocenter Count   0
   Undefined Atom Stereocenter Count 1
   Defined Bond Stereocenter Count   0
   Undefined Bond Stereocenter Count 0
   Covalently-Bonded Unit Count      1
   Feature 3D Cation Count           1
   Feature 3D Ring Count             2
   Effective Rotor Count             5
   Conformer Sampling RMSD           0.6
   CID Conformer Count               [9]64

References

   1. http://toxnet.nlm.nih.gov/cgi-bin/sis/search/r?dbs+hsdb:@term+@rn+@rel+156-08-1
   2. http://toxnet.nlm.nih.gov/cgi-bin/sis/search/r?dbs+hsdb:@term+@rn+@rel+156-08-1
   3. http://toxnet.nlm.nih.gov/cgi-bin/sis/search/r?dbs+hsdb:@term+@rn+@rel+156-08-1
   4. http://toxnet.nlm.nih.gov/cgi-bin/sis/search/r?dbs+hsdb:@term+@rn+@rel+156-08-1
   5. http://toxnet.nlm.nih.gov/cgi-bin/sis/search/r?dbs+hsdb:@term+@rn+@rel+156-08-1
   6. http://toxnet.nlm.nih.gov/cgi-bin/sis/search/r?dbs+hsdb:@term+@rn+@rel+156-08-1
   7. http://toxnet.nlm.nih.gov/cgi-bin/sis/search/r?dbs+hsdb:@term+@rn+@rel+156-08-1
   8. http://toxnet.nlm.nih.gov/cgi-bin/sis/search/r?dbs+hsdb:@term+@rn+@rel+156-08-1
   9. http://pubchem.ncbi.nlm.nih.gov/vw3d/vw3d.cgi?cid=2341
