24755536
  -OEChem-07051213082D

 80 84  0     1  0  0  0  0  0999 V2000
    7.1064   -0.1191    0.0000 Mg  0  2  0  0  0  0  0  0  0  0  0  0
    8.5045   -4.4966    0.0000 O   0  0  0  0  0  0  0  0  0  0  0  0
   10.8085   -3.6030    0.0000 O   0  0  0  0  0  0  0  0  0  0  0  0
   11.0141   -1.8832    0.0000 O   0  0  0  0  0  0  0  0  0  0  0  0
   13.5141   -0.9662    0.0000 O   0  0  0  0  0  0  0  0  0  0  0  0
   12.4714   -2.3492    0.0000 O   0  0  0  0  0  0  0  0  0  0  0  0
    2.4934    0.6096    0.0000 O   0  0  0  0  0  0  0  0  0  0  0  0
    7.1438   -1.4139    0.0000 N   0  5  0  0  0  0  0  0  0  0  0  0
    8.5929   -0.0924    0.0000 N   0  0  0  0  0  0  0  0  0  0  0  0
    7.1115    1.2290    0.0000 N   0  5  0  0  0  0  0  0  0  0  0  0
    5.6930   -0.0924    0.0000 N   0  0  0  0  0  0  0  0  0  0  0  0
   10.0759   -0.5432    0.0000 C   0  0  1  0  0  0  0  0  0  0  0  0
   10.0759    0.4228    0.0000 C   0  0  1  0  0  0  0  0  0  0  0  0
    9.1729   -0.8017    0.0000 C   0  0  0  0  0  0  0  0  0  0  0  0
    8.8838   -1.7355    0.0000 C   0  0  0  0  0  0  0  0  0  0  0  0
    7.9176   -1.9940    0.0000 C   0  0  0  0  0  0  0  0  0  0  0  0
    9.4220   -2.5650    0.0000 C   0  0  2  0  0  0  0  0  0  0  0  0
   10.8744   -1.1452    0.0000 C   0  0  0  0  0  0  0  0  0  0  0  0
    9.1406    0.6814    0.0000 C   0  0  0  0  0  0  0  0  0  0  0  0
    7.6269   -2.9278    0.0000 C   0  0  0  0  0  0  0  0  0  0  0  0
    8.4339   -3.4991    0.0000 C   0  0  0  0  0  0  0  0  0  0  0  0
   10.8717    1.0284    0.0000 C   0  0  0  0  0  0  0  0  0  0  0  0
    6.6606   -2.9278    0.0000 C   0  0  0  0  0  0  0  0  0  0  0  0
    6.3698   -2.0263    0.0000 C   0  0  0  0  0  0  0  0  0  0  0  0
    8.8513    1.5829    0.0000 C   0  0  0  0  0  0  0  0  0  0  0  0
   11.7950   -0.7547    0.0000 C   0  0  0  0  0  0  0  0  0  0  0  0
    7.9176    1.8737    0.0000 C   0  0  0  0  0  0  0  0  0  0  0  0
   10.4149   -2.6837    0.0000 C   0  0  0  0  0  0  0  0  0  0  0  0
    7.5945    2.7752    0.0000 C   0  0  0  0  0  0  0  0  0  0  0  0
    6.3376    1.8414    0.0000 C   0  0  0  0  0  0  0  0  0  0  0  0
    6.0720   -3.7362    0.0000 C   0  0  0  0  0  0  0  0  0  0  0  0
    5.4361   -1.7355    0.0000 C   0  0  0  0  0  0  0  0  0  0  0  0
    6.6284    2.7752    0.0000 C   0  0  0  0  0  0  0  0  0  0  0  0
    5.1454   -0.8340    0.0000 C   0  0  0  0  0  0  0  0  0  0  0  0
   12.5935   -1.3567    0.0000 C   0  0  0  0  0  0  0  0  0  0  0  0
    5.4038    1.5829    0.0000 C   0  0  0  0  0  0  0  0  0  0  0  0
    4.2116   -0.5754    0.0000 C   0  0  0  0  0  0  0  0  0  0  0  0
    5.1454    0.6490    0.0000 C   0  0  0  0  0  0  0  0  0  0  0  0
    4.2116    0.3906    0.0000 C   0  0  0  0  0  0  0  0  0  0  0  0
    8.1701    3.5929    0.0000 C   0  0  0  0  0  0  0  0  0  0  0  0
    6.0357    3.5806    0.0000 C   0  0  0  0  0  0  0  0  0  0  0  0
    3.4157   -1.1809    0.0000 C   0  0  0  0  0  0  0  0  0  0  0  0
    3.4157    0.9961    0.0000 C   0  0  0  0  0  0  0  0  0  0  0  0
   11.8015   -3.7217    0.0000 C   0  0  0  0  0  0  0  0  0  0  0  0
    2.4934   -0.7944    0.0000 C   0  0  0  0  0  0  0  0  0  0  0  0
    6.4368    4.4966    0.0000 C   0  0  0  0  0  0  0  0  0  0  0  0
    9.9627   -1.1528    0.0000 H   0  0  0  0  0  0  0  0  0  0  0  0
    9.9586    1.0316    0.0000 H   0  0  0  0  0  0  0  0  0  0  0  0
    9.7498   -2.0388    0.0000 H   0  0  0  0  0  0  0  0  0  0  0  0
   10.4209   -1.5679    0.0000 H   0  0  0  0  0  0  0  0  0  0  0  0
   11.2120   -1.6653    0.0000 H   0  0  0  0  0  0  0  0  0  0  0  0
   11.2472    0.5350    0.0000 H   0  0  0  0  0  0  0  0  0  0  0  0
   11.3651    1.4039    0.0000 H   0  0  0  0  0  0  0  0  0  0  0  0
   10.4962    1.5218    0.0000 H   0  0  0  0  0  0  0  0  0  0  0  0
    9.2879    2.0232    0.0000 H   0  0  0  0  0  0  0  0  0  0  0  0
   12.2485   -0.3320    0.0000 H   0  0  0  0  0  0  0  0  0  0  0  0
   11.4574   -0.2346    0.0000 H   0  0  0  0  0  0  0  0  0  0  0  0
    5.5708   -3.3713    0.0000 H   0  0  0  0  0  0  0  0  0  0  0  0
    5.7071   -4.2374    0.0000 H   0  0  0  0  0  0  0  0  0  0  0  0
    6.5732   -4.1011    0.0000 H   0  0  0  0  0  0  0  0  0  0  0  0
    4.9999   -2.1761    0.0000 H   0  0  0  0  0  0  0  0  0  0  0  0
    4.9654    2.0213    0.0000 H   0  0  0  0  0  0  0  0  0  0  0  0
    8.6771    3.2360    0.0000 H   0  0  0  0  0  0  0  0  0  0  0  0
    8.5270    4.0999    0.0000 H   0  0  0  0  0  0  0  0  0  0  0  0
    7.6632    3.9498    0.0000 H   0  0  0  0  0  0  0  0  0  0  0  0
    5.4195    3.5120    0.0000 H   0  0  0  0  0  0  0  0  0  0  0  0
    3.0804   -1.7024    0.0000 H   0  0  0  0  0  0  0  0  0  0  0  0
    3.8711   -1.6017    0.0000 H   0  0  0  0  0  0  0  0  0  0  0  0
    3.8711    1.4168    0.0000 H   0  0  0  0  0  0  0  0  0  0  0  0
    3.0804    1.5176    0.0000 H   0  0  0  0  0  0  0  0  0  0  0  0
   11.7279   -4.3373    0.0000 H   0  0  0  0  0  0  0  0  0  0  0  0
   12.4171   -3.7953    0.0000 H   0  0  0  0  0  0  0  0  0  0  0  0
   11.8751   -3.1061    0.0000 H   0  0  0  0  0  0  0  0  0  0  0  0
   14.0092   -1.3394    0.0000 H   0  0  0  0  0  0  0  0  0  0  0  0
    2.7331   -0.2226    0.0000 H   0  0  0  0  0  0  0  0  0  0  0  0
    1.9216   -0.5548    0.0000 H   0  0  0  0  0  0  0  0  0  0  0  0
    2.2538   -1.3662    0.0000 H   0  0  0  0  0  0  0  0  0  0  0  0
    7.0530    4.5652    0.0000 H   0  0  0  0  0  0  0  0  0  0  0  0
    6.0694    4.9960    0.0000 H   0  0  0  0  0  0  0  0  0  0  0  0
    2.0000    0.9850    0.0000 H   0  0  0  0  0  0  0  0  0  0  0  0
  2 21  2  0  0  0  0
  3 28  1  0  0  0  0
  3 44  1  0  0  0  0
  4 28  2  0  0  0  0
  5 35  1  0  0  0  0
  5 74  1  0  0  0  0
  6 35  2  0  0  0  0
  7 43  1  0  0  0  0
  7 80  1  0  0  0  0
  8 16  1  0  0  0  0
  8 24  1  0  0  0  0
  9 14  1  0  0  0  0
  9 19  2  0  0  0  0
 10 27  1  0  0  0  0
 10 30  1  0  0  0  0
 11 34  1  0  0  0  0
 11 38  2  0  0  0  0
 12 13  1  0  0  0  0
 12 14  1  0  0  0  0
 12 18  1  6  0  0  0
 12 47  1  0  0  0  0
 13 19  1  0  0  0  0
 13 22  1  1  0  0  0
 13 48  1  0  0  0  0
 14 15  2  0  0  0  0
 15 16  1  0  0  0  0
 15 17  1  0  0  0  0
 16 20  2  0  0  0  0
 17 21  1  0  0  0  0
 17 28  1  1  0  0  0
 17 49  1  0  0  0  0
 18 26  1  0  0  0  0
 18 50  1  0  0  0  0
 18 51  1  0  0  0  0
 19 25  1  0  0  0  0
 20 21  1  0  0  0  0
 20 23  1  0  0  0  0
 22 52  1  0  0  0  0
 22 53  1  0  0  0  0
 22 54  1  0  0  0  0
 23 24  2  0  0  0  0
 23 31  1  0  0  0  0
 24 32  1  0  0  0  0
 25 27  2  0  0  0  0
 25 55  1  0  0  0  0
 26 35  1  0  0  0  0
 26 56  1  0  0  0  0
 26 57  1  0  0  0  0
 27 29  1  0  0  0  0
 29 33  2  0  0  0  0
 29 40  1  0  0  0  0
 30 33  1  0  0  0  0
 30 36  2  0  0  0  0
 31 58  1  0  0  0  0
 31 59  1  0  0  0  0
 31 60  1  0  0  0  0
 32 34  2  0  0  0  0
 32 61  1  0  0  0  0
 33 41  1  0  0  0  0
 34 37  1  0  0  0  0
 36 38  1  0  0  0  0
 36 62  1  0  0  0  0
 37 39  2  0  0  0  0
 37 42  1  0  0  0  0
 38 39  1  0  0  0  0
 39 43  1  0  0  0  0
 40 63  1  0  0  0  0
 40 64  1  0  0  0  0
 40 65  1  0  0  0  0
 41 46  2  0  0  0  0
 41 66  1  0  0  0  0
 42 45  1  0  0  0  0
 42 67  1  0  0  0  0
 42 68  1  0  0  0  0
 43 69  1  0  0  0  0
 43 70  1  0  0  0  0
 44 71  1  0  0  0  0
 44 72  1  0  0  0  0
 44 73  1  0  0  0  0
 45 75  1  0  0  0  0
 45 76  1  0  0  0  0
 45 77  1  0  0  0  0
 46 78  1  0  0  0  0
 46 79  1  0  0  0  0
M  CHG  3   1   2   8  -1  10  -1
M  END
> <PUBCHEM_COMPOUND_CID>
24755536

> <PUBCHEM_COMPOUND_CANONICALIZED>
1

> <PUBCHEM_CACTVS_COMPLEXITY>
1670

> <PUBCHEM_CACTVS_HBOND_ACCEPTOR>
10

> <PUBCHEM_CACTVS_HBOND_DONOR>
2

> <PUBCHEM_CACTVS_ROTATABLE_BOND>
8

> <PUBCHEM_CACTVS_SUBSKEYS>
AAADcfB/uAAAACAAAAAAAAAAAAAAAeIECBAAAAAAAAAWAACBgAAAHgAACAAADQyhngICiJIIFgCoA6TyTACCgCAlAiAImCEwRNgINH7IlJGEUYhk4ADI2Ue82fOegAAAAAAAAAAAAAAAAAAAASAAAQAAAA==

> <PUBCHEM_IUPAC_INCHI>
InChI=1S/C35H36N4O6.Mg/c1-7-18-15(3)22-11-23-16(4)20(9-10-28(41)42)32(38-23)30-31(35(44)45-6)34(43)29-17(5)24(39-33(29)30)12-26-19(8-2)21(14-40)27(37-26)13-25(18)36-22;/h7,11-13,16,20,31,40H,1,8-10,14H2,2-6H3,(H3,36,37,38,39,41,42,43);/q;+2/p-2/t16-,20-,31+;/m0./s1

> <PUBCHEM_IUPAC_INCHIKEY>
QCWXXDQFRHDXNM-IEEIVXFASA-L

> <PUBCHEM_EXACT_MASS>
630.232877

> <PUBCHEM_MOLECULAR_FORMULA>
C35H34MgN4O6

> <PUBCHEM_MOLECULAR_WEIGHT>
630.97266

> <PUBCHEM_OPENEYE_CAN_SMILES>
CCC1=C(C2=NC1=CC3=C(C4=C([N-]3)C(=C5C(C(C(=N5)C=C6C(=C(C(=C2)[N-]6)C=C)C)C)CCC(=O)O)C(C4=O)C(=O)OC)C)CO.[Mg+2]

> <PUBCHEM_OPENEYE_ISO_SMILES>
CCC1=C(C2=NC1=CC3=C(C4=C([N-]3)C(=C5[C@H]([C@@H](C(=N5)C=C6C(=C(C(=C2)[N-]6)C=C)C)C)CCC(=O)O)[C@H](C4=O)C(=O)OC)C)CO.[Mg+2]

> <PUBCHEM_CACTVS_TPSA>
128

> <PUBCHEM_MONOISOTOPIC_WEIGHT>
630.232877

> <PUBCHEM_TOTAL_CHARGE>
0

> <PUBCHEM_HEAVY_ATOM_COUNT>
46

> <PUBCHEM_ATOM_DEF_STEREO_COUNT>
3

> <PUBCHEM_ATOM_UDEF_STEREO_COUNT>
0

> <PUBCHEM_BOND_DEF_STEREO_COUNT>
0

> <PUBCHEM_BOND_UDEF_STEREO_COUNT>
0

> <PUBCHEM_ISOTOPIC_ATOM_COUNT>
0

> <PUBCHEM_COMPONENT_COUNT>
2

> <PUBCHEM_CACTVS_TAUTO_COUNT>
145

> <PUBCHEM_NONSTANDARDBOND>
1  10  7
1  8  7

> <PUBCHEM_COORDINATE_TYPE>
1
5
255

> <PUBCHEM_BONDANNOTATIONS>
10  27  8
10  30  8
11  34  8
11  38  8
12  18  6
13  22  5
14  15  8
15  16  8
16  20  8
17  28  5
19  25  8
20  23  8
23  24  8
24  32  8
25  27  8
27  29  8
29  33  8
30  33  8
30  36  8
32  34  8
36  38  8
8  16  8
8  24  8
9  14  8
9  19  8

$$$$

