201408
  -OEChem-07051213072D

 41 41  0     1  0  0  0  0  0999 V2000
    5.6720    5.0369    0.0000 Cl  0  0  0  0  0  0  0  0  0  0  0  0
    3.1350    5.0369    0.0000 O   0  0  0  0  0  0  0  0  0  0  0  0
    1.4030    1.0369    0.0000 O   0  0  0  0  0  0  0  0  0  0  0  0
    2.2690    9.5369    0.0000 O   0  0  0  0  0  0  0  0  0  0  0  0
    0.5369    5.5369    0.0000 N   0  0  0  0  0  0  0  0  0  0  0  0
    1.4030    5.0369    0.0000 C   0  0  3  0  0  0  0  0  0  0  0  0
    2.2690    5.5369    0.0000 C   0  0  3  0  0  0  0  0  0  0  0  0
    1.4030    4.0369    0.0000 C   0  0  0  0  0  0  0  0  0  0  0  0
    2.2690    6.5369    0.0000 C   0  0  0  0  0  0  0  0  0  0  0  0
    0.5369    3.5369    0.0000 C   0  0  0  0  0  0  0  0  0  0  0  0
    2.2690    3.5369    0.0000 C   0  0  0  0  0  0  0  0  0  0  0  0
    3.1350    7.0369    0.0000 C   0  0  0  0  0  0  0  0  0  0  0  0
    1.4030    7.0369    0.0000 C   0  0  0  0  0  0  0  0  0  0  0  0
    0.5369    2.5369    0.0000 C   0  0  0  0  0  0  0  0  0  0  0  0
    2.2690    2.5369    0.0000 C   0  0  0  0  0  0  0  0  0  0  0  0
    3.1350    8.0369    0.0000 C   0  0  0  0  0  0  0  0  0  0  0  0
    1.4030    8.0369    0.0000 C   0  0  0  0  0  0  0  0  0  0  0  0
    1.4030    2.0369    0.0000 C   0  0  0  0  0  0  0  0  0  0  0  0
    2.2690    8.5369    0.0000 C   0  0  0  0  0  0  0  0  0  0  0  0
    0.5369    0.5369    0.0000 C   0  0  0  0  0  0  0  0  0  0  0  0
    3.1350   10.0369    0.0000 C   0  0  0  0  0  0  0  0  0  0  0  0
    1.4030    5.8869    0.0000 H   0  0  0  0  0  0  0  0  0  0  0  0
    3.0051    5.9619    0.0000 H   0  0  0  0  0  0  0  0  0  0  0  0
    0.0000    5.2269    0.0000 H   0  0  0  0  0  0  0  0  0  0  0  0
    0.5369    6.1569    0.0000 H   0  0  0  0  0  0  0  0  0  0  0  0
    0.0000    3.8469    0.0000 H   0  0  0  0  0  0  0  0  0  0  0  0
    2.8059    3.8469    0.0000 H   0  0  0  0  0  0  0  0  0  0  0  0
    3.6720    6.7269    0.0000 H   0  0  0  0  0  0  0  0  0  0  0  0
    0.8660    6.7269    0.0000 H   0  0  0  0  0  0  0  0  0  0  0  0
    3.6720    5.3469    0.0000 H   0  0  0  0  0  0  0  0  0  0  0  0
    0.0000    2.2269    0.0000 H   0  0  0  0  0  0  0  0  0  0  0  0
    2.8059    2.2269    0.0000 H   0  0  0  0  0  0  0  0  0  0  0  0
    3.6720    8.3469    0.0000 H   0  0  0  0  0  0  0  0  0  0  0  0
    0.8660    8.3469    0.0000 H   0  0  0  0  0  0  0  0  0  0  0  0
    0.2269    1.0739    0.0000 H   0  0  0  0  0  0  0  0  0  0  0  0
    0.0000    0.2269    0.0000 H   0  0  0  0  0  0  0  0  0  0  0  0
    0.8469    0.0000    0.0000 H   0  0  0  0  0  0  0  0  0  0  0  0
    3.4450    9.5000    0.0000 H   0  0  0  0  0  0  0  0  0  0  0  0
    3.6720   10.3469    0.0000 H   0  0  0  0  0  0  0  0  0  0  0  0
    2.8250   10.5739    0.0000 H   0  0  0  0  0  0  0  0  0  0  0  0
    6.6720    5.0369    0.0000 H   0  0  0  0  0  0  0  0  0  0  0  0
  1 41  1  0  0  0  0
  2  7  1  0  0  0  0
  2 30  1  0  0  0  0
  3 18  1  0  0  0  0
  3 20  1  0  0  0  0
  4 19  1  0  0  0  0
  4 21  1  0  0  0  0
  5  6  1  0  0  0  0
  5 24  1  0  0  0  0
  5 25  1  0  0  0  0
  6  7  1  0  0  0  0
  6  8  1  0  0  0  0
  6 22  1  0  0  0  0
  7  9  1  0  0  0  0
  7 23  1  0  0  0  0
  8 10  2  0  0  0  0
  8 11  1  0  0  0  0
  9 12  2  0  0  0  0
  9 13  1  0  0  0  0
 10 14  1  0  0  0  0
 10 26  1  0  0  0  0
 11 15  2  0  0  0  0
 11 27  1  0  0  0  0
 12 16  1  0  0  0  0
 12 28  1  0  0  0  0
 13 17  2  0  0  0  0
 13 29  1  0  0  0  0
 14 18  2  0  0  0  0
 14 31  1  0  0  0  0
 15 18  1  0  0  0  0
 15 32  1  0  0  0  0
 16 19  2  0  0  0  0
 16 33  1  0  0  0  0
 17 19  1  0  0  0  0
 17 34  1  0  0  0  0
 20 35  1  0  0  0  0
 20 36  1  0  0  0  0
 20 37  1  0  0  0  0
 21 38  1  0  0  0  0
 21 39  1  0  0  0  0
 21 40  1  0  0  0  0
M  END
> <PUBCHEM_COMPOUND_CID>
201408

> <PUBCHEM_COMPOUND_CANONICALIZED>
1

> <PUBCHEM_CACTVS_COMPLEXITY>
271

> <PUBCHEM_CACTVS_HBOND_ACCEPTOR>
4

> <PUBCHEM_CACTVS_HBOND_DONOR>
3

> <PUBCHEM_CACTVS_ROTATABLE_BOND>
5

> <PUBCHEM_CACTVS_SUBSKEYS>
AAADceB6MAAEAAAAAAAAAAAAAAAAAAAAAAAwYAAAAAAAAAABQAAAHgAQCAAADDzhmAYyBoBABgCAAiBCAACCCAAgIAAIiIAGDIgONiKEsRuAcCBk0BEIuAeQ8O0OIAAAAAAAAABAAAAAAAAAAAAAAAAAAA==

> <PUBCHEM_IUPAC_OPENEYE_NAME>
2-amino-1,2-bis(4-methoxyphenyl)ethanol hydrochloride

> <PUBCHEM_IUPAC_CAS_NAME>
2-amino-1,2-bis(4-methoxyphenyl)ethanol hydrochloride

> <PUBCHEM_IUPAC_NAME>
2-amino-1,2-bis(4-methoxyphenyl)ethanol hydrochloride

> <PUBCHEM_IUPAC_SYSTEMATIC_NAME>
2-azanyl-1,2-bis(4-methoxyphenyl)ethanol hydrochloride

> <PUBCHEM_IUPAC_TRADITIONAL_NAME>
2-amino-1,2-bis(4-methoxyphenyl)ethanol hydrochloride

> <PUBCHEM_IUPAC_INCHI>
InChI=1S/C16H19NO3.ClH/c1-19-13-7-3-11(4-8-13)15(17)16(18)12-5-9-14(20-2)10-6-12;/h3-10,15-16,18H,17H2,1-2H3;1H

> <PUBCHEM_IUPAC_INCHIKEY>
SBDJVBDJRLFVCL-UHFFFAOYSA-N

> <PUBCHEM_EXACT_MASS>
309.113171

> <PUBCHEM_MOLECULAR_FORMULA>
C16H20ClNO3

> <PUBCHEM_MOLECULAR_WEIGHT>
309.7879

> <PUBCHEM_OPENEYE_CAN_SMILES>
COC1=CC=C(C=C1)C(C(C2=CC=C(C=C2)OC)O)N.Cl

> <PUBCHEM_OPENEYE_ISO_SMILES>
COC1=CC=C(C=C1)C(C(C2=CC=C(C=C2)OC)O)N.Cl

> <PUBCHEM_CACTVS_TPSA>
64.7

> <PUBCHEM_MONOISOTOPIC_WEIGHT>
309.113171

> <PUBCHEM_TOTAL_CHARGE>
0

> <PUBCHEM_HEAVY_ATOM_COUNT>
21

> <PUBCHEM_ATOM_DEF_STEREO_COUNT>
0

> <PUBCHEM_ATOM_UDEF_STEREO_COUNT>
2

> <PUBCHEM_BOND_DEF_STEREO_COUNT>
0

> <PUBCHEM_BOND_UDEF_STEREO_COUNT>
0

> <PUBCHEM_ISOTOPIC_ATOM_COUNT>
0

> <PUBCHEM_COMPONENT_COUNT>
2

> <PUBCHEM_CACTVS_TAUTO_COUNT>
1

> <PUBCHEM_COORDINATE_TYPE>
1
5
255

> <PUBCHEM_BONDANNOTATIONS>
10  14  8
11  15  8
12  16  8
13  17  8
14  18  8
15  18  8
16  19  8
17  19  8
6  22  3
7  23  3
8  10  8
8  11  8
9  12  8
9  13  8

$$$$

