   Color/Form
        Colorless liquid
   from [1]HSDB

   Odor
        Pungent odor
   from [2]HSDB

   Boiling Point
        126.5 deg C
   from [3]HSDB

   Density/Specific Gravity
        1.1930
   from [4]HSDB

   Octanol/Water Partition Coefficient
        log Kow= 0.45
   from [5]HSDB

   Solubilities

     * Soluble in hydrocarbons, alcohols
     * In ether and ethanol
     * In water, > 1X10+5 mg/l, temp not specified

   from [6]HSDB

   Spectral Properties

     * IR: COB 7886 (Coblentz Society Spectral Collection)
     * 1H NMR: SAD 6783 (Sadtler Research Laboratories Spectral
       Collection)
     * MS: NIST 364 (NIST/EPA/MSDC Mass Spectral Database 1990 version);
       WILEY 365 (Atlas of Mass Spectral Data, John Wiley & Sons, New
       York)
     * Index of refraction: 1.4210-1.4240 at 25 deg C.

   from [7]HSDB

   Vapor Pressure
        15 mm Hg at 30 deg C
   from [8]HSDB

   Computed Properties
   Molecular Weight                  75.49698 [g/mol]
   Molecular Formula                 C[2]H[2]ClN
   XLogP3                            0.5
   H-Bond Donor                      0
   H-Bond Acceptor                   1
   Rotatable Bond Count              0
   Exact Mass                        74.987577
   MonoIsotopic Mass                 74.987577
   Topological Polar Surface Area    23.8
   Heavy Atom Count                  4
   Formal Charge                     0
   Complexity                        41.2
   Isotope Atom Count                0
   Defined Atom Stereocenter Count   0
   Undefined Atom Stereocenter Count 0
   Defined Bond Stereocenter Count   0
   Undefined Bond Stereocenter Count 0
   Covalently-Bonded Unit Count      1
   Feature 3D Acceptor Count         1
   Effective Rotor Count             0
   Conformer Sampling RMSD           0.4
   CID Conformer Count               [9]1

References

   1. http://toxnet.nlm.nih.gov/cgi-bin/sis/search/r?dbs+hsdb:@term+@rn+@rel+107-14-2
   2. http://toxnet.nlm.nih.gov/cgi-bin/sis/search/r?dbs+hsdb:@term+@rn+@rel+107-14-2
   3. http://toxnet.nlm.nih.gov/cgi-bin/sis/search/r?dbs+hsdb:@term+@rn+@rel+107-14-2
   4. http://toxnet.nlm.nih.gov/cgi-bin/sis/search/r?dbs+hsdb:@term+@rn+@rel+107-14-2
   5. http://toxnet.nlm.nih.gov/cgi-bin/sis/search/r?dbs+hsdb:@term+@rn+@rel+107-14-2
   6. http://toxnet.nlm.nih.gov/cgi-bin/sis/search/r?dbs+hsdb:@term+@rn+@rel+107-14-2
   7. http://toxnet.nlm.nih.gov/cgi-bin/sis/search/r?dbs+hsdb:@term+@rn+@rel+107-14-2
   8. http://toxnet.nlm.nih.gov/cgi-bin/sis/search/r?dbs+hsdb:@term+@rn+@rel+107-14-2
   9. http://pubchem.ncbi.nlm.nih.gov/vw3d/vw3d.cgi?cid=7856
