   Color/Form

     * Waxy solid
     * Needles

   from [1]HSDB

   Boiling Point
        306 deg C at 60 mm Hg
   from [2]HSDB

   Melting Point
        79.95 deg C
   from [3]HSDB

   Density/Specific Gravity
        0.8221 at 100 deg C/4 deg C
   from [4]HSDB

   Octanol/Water Partition Coefficient
        log Kow = 9.91 (est)
   from [5]HSDB

   Solubilities

     * 0.102 g are sol in 100 g of 90% ethanol at 17 deg C;0.218 g are sol
       in 100 ml of 91.5% ethanol at 25 deg C; 0.116 g are sol in 100 ml
       of 86.2% ethanol at 25 deg C; 0.011 g are sol in 100 ml of 63.07%
       ethanol at 25 deg C; 0.1922 g are sol in 100 g of ether at 16 deg C
     * Slightly soluble in water, ethanol, ethyl ether
     * In water, 160 mg/L, temp not specified

   from [6]HSDB

   Spectral Properties

     * Index of refraction: 1.4270 at 100 deg C/D
     * SADTLER REFERENCE NUMBER: 15645 (IR, PRISM); 644 (HR, GRATING)
     * IR: 860 (Coblentz Society Spectral Collection)
     * MASS: 63742 (NIST/EPA/MSDC Mass Spectral database, 1990 version)

   from [7]HSDB

   Vapor Pressure
        7.15X10-8 mm Hg at 25 deg C (est)
   from [8]HSDB

   Other Chemical/Physical Properties

     * Neutralization value: 164.73
     * mp 54 deg C /Methyl ester/
     * mp 50 deg C; bp 185 deg C at 0.2 mm Hg /Ethyl ester/
     * mp 111-112 deg C /Amide/
     * Henry's Law constant = 1.58X10-4 atm-cu m/mole at 25 deg C (est)
     * Hydroxyl radical reaction rate constant = 2.81X10-11 cu
       cm/molec-sec at 25 deg C (est)

   from [9]HSDB

   Computed Properties
   Molecular Weight                  340.58356 [g/mol]
   Molecular Formula                 C[22]H[44]O[2]
   XLogP3                            9.6
   H-Bond Donor                      1
   H-Bond Acceptor                   2
   Rotatable Bond Count              20
   Exact Mass                        340.334131
   MonoIsotopic Mass                 340.334131
   Topological Polar Surface Area    37.3
   Heavy Atom Count                  24
   Formal Charge                     0
   Complexity                        250
   Isotope Atom Count                0
   Defined Atom Stereocenter Count   0
   Undefined Atom Stereocenter Count 0
   Defined Bond Stereocenter Count   0
   Undefined Bond Stereocenter Count 0
   Covalently-Bonded Unit Count      1

References

   1. http://toxnet.nlm.nih.gov/cgi-bin/sis/search/r?dbs+hsdb:@term+@rn+@rel+112-85-6
   2. http://toxnet.nlm.nih.gov/cgi-bin/sis/search/r?dbs+hsdb:@term+@rn+@rel+112-85-6
   3. http://toxnet.nlm.nih.gov/cgi-bin/sis/search/r?dbs+hsdb:@term+@rn+@rel+112-85-6
   4. http://toxnet.nlm.nih.gov/cgi-bin/sis/search/r?dbs+hsdb:@term+@rn+@rel+112-85-6
   5. http://toxnet.nlm.nih.gov/cgi-bin/sis/search/r?dbs+hsdb:@term+@rn+@rel+112-85-6
   6. http://toxnet.nlm.nih.gov/cgi-bin/sis/search/r?dbs+hsdb:@term+@rn+@rel+112-85-6
   7. http://toxnet.nlm.nih.gov/cgi-bin/sis/search/r?dbs+hsdb:@term+@rn+@rel+112-85-6
   8. http://toxnet.nlm.nih.gov/cgi-bin/sis/search/r?dbs+hsdb:@term+@rn+@rel+112-85-6
   9. http://toxnet.nlm.nih.gov/cgi-bin/sis/search/r?dbs+hsdb:@term+@rn+@rel+112-85-6
