   Color/Form

     * Crystals from absolute ethanol and benzene
     * White to off-white powder

   from [1]HSDB

   Melting Point
        190.2 deg C
   from [2]HSDB

   Dissociation Constants
        pKa = 13.9 [Jones OAH et al; Water Res 36: 5013-22 (2002)]
   [3]PubMed Abstract
   from [4]HSDB

   Octanol/Water Partition Coefficient
        log Kow = 2.45
   from [5]HSDB

   Solubilities

     * Sol in alcohol, acetone, propylene glycol; practically insol in
       water
     * Soluble in chloroform, dimethylformamide, ethylene glycol
       monomethyl ether, or methanol; only slightly soluble in ethanol or
       glacial acetic acid
     * In water, 18 mg/L at 25 deg C (est)

   from [6]HSDB

   Spectral Properties

     * UV: 1277 (Absorption Spectra in the UV and visible Regions,
       Academic Press, New York)
     * MASS: 42308 (NIST/EPA/MSDC Mass Spectral Database, 1990 version)
     * Intense mass spectral peaks: 165 m/z, 193 m/z, 236 m/z

   from [7]HSDB

   Vapor Pressure
        1.84X10-7 mm Hg at 25 deg C (est)
   from [8]HSDB

   Other Chemical/Physical Properties

     * Henry's Law constant = 1.08X10-7 atm-cu m/mol at 25 deg C (est)
     * Hydroxyl radical reaction rate constant = 8.08X10-11 cu
       cm/molec-sec at 25 deg C (est)
     * STABLE TO HYDROLYSIS

   from [9]HSDB

   Computed Properties
   Molecular Weight                  236.26858 [g/mol]
   Molecular Formula                 C[15]H[12]N[2]O
   XLogP3                            2.5
   H-Bond Donor                      1
   H-Bond Acceptor                   1
   Rotatable Bond Count              0
   Tautomer Count                    2
   Exact Mass                        236.094963
   MonoIsotopic Mass                 236.094963
   Topological Polar Surface Area    46.3
   Heavy Atom Count                  18
   Formal Charge                     0
   Complexity                        326
   Isotope Atom Count                0
   Defined Atom Stereocenter Count   0
   Undefined Atom Stereocenter Count 0
   Defined Bond Stereocenter Count   0
   Undefined Bond Stereocenter Count 0
   Covalently-Bonded Unit Count      1
   Feature 3D Acceptor Count         1
   Feature 3D Donor Count            1
   Feature 3D Ring Count             3
   Effective Rotor Count             1.2
   Conformer Sampling RMSD           0.6
   CID Conformer Count               [10]2

References

   1. http://toxnet.nlm.nih.gov/cgi-bin/sis/search/r?dbs+hsdb:@term+@rn+@rel+298-46-4
   2. http://toxnet.nlm.nih.gov/cgi-bin/sis/search/r?dbs+hsdb:@term+@rn+@rel+298-46-4
   3. http://www.ncbi.nlm.nih.gov/entrez/query.fcgi?cmd=Retrieve&db=pubmed&dopt=Abstract&list_uids=12448549
   4. http://toxnet.nlm.nih.gov/cgi-bin/sis/search/r?dbs+hsdb:@term+@rn+@rel+298-46-4
   5. http://toxnet.nlm.nih.gov/cgi-bin/sis/search/r?dbs+hsdb:@term+@rn+@rel+298-46-4
   6. http://toxnet.nlm.nih.gov/cgi-bin/sis/search/r?dbs+hsdb:@term+@rn+@rel+298-46-4
   7. http://toxnet.nlm.nih.gov/cgi-bin/sis/search/r?dbs+hsdb:@term+@rn+@rel+298-46-4
   8. http://toxnet.nlm.nih.gov/cgi-bin/sis/search/r?dbs+hsdb:@term+@rn+@rel+298-46-4
   9. http://toxnet.nlm.nih.gov/cgi-bin/sis/search/r?dbs+hsdb:@term+@rn+@rel+298-46-4
  10. http://pubchem.ncbi.nlm.nih.gov/vw3d/vw3d.cgi?cid=2554
