   Color/Form

     * White, crystalline powder
     * Needles from ethanol, crystals in 2 forms

   from [1]HSDB

   Boiling Point
        Decomposes
   from [2]HSDB

   Melting Point
        141 deg C
   from [3]HSDB

   Octanol/Water Partition Coefficient
        log Kow = -1.80
   from [4]HSDB

   Solubilities
        Very soluble in water, soluble in hot alcohol, insoluble in
   ethanol and benzene
   from [5]HSDB

   Vapor Pressure
        2.43X10-3 mm Hg at 25 deg C /Estimated/
   from [6]HSDB

   Other Chemical/Physical Properties

     * Moisture-labile
     * Henry's Law constant = 5.4X10-11 atm-cu m/mole @ 25 deg C
       /Estimated/
     * Hydroxyl radical reaction rate constant = 2X10-12 cu cm/molec-sec @
       25 deg C /Estimated/

   from [7]HSDB

   Computed Properties
   Molecular Weight                  76.05466 [g/mol]
   Molecular Formula                 CH[4]N[2]O[2]
   XLogP3                            -1.8
   H-Bond Donor                      3
   H-Bond Acceptor                   2
   Rotatable Bond Count              0
   Tautomer Count                    4
   Exact Mass                        76.027277
   MonoIsotopic Mass                 76.027277
   Topological Polar Surface Area    75.4
   Heavy Atom Count                  5
   Formal Charge                     0
   Complexity                        42.9
   Isotope Atom Count                0
   Defined Atom Stereocenter Count   0
   Undefined Atom Stereocenter Count 0
   Defined Bond Stereocenter Count   0
   Undefined Bond Stereocenter Count 0
   Covalently-Bonded Unit Count      1
   Feature 3D Acceptor Count         1
   Feature 3D Donor Count            2
   Effective Rotor Count             1
   Conformer Sampling RMSD           0.4
   CID Conformer Count               [8]1

References

   1. http://toxnet.nlm.nih.gov/cgi-bin/sis/search/r?dbs+hsdb:@term+@rn+@rel+127-07-1
   2. http://toxnet.nlm.nih.gov/cgi-bin/sis/search/r?dbs+hsdb:@term+@rn+@rel+127-07-1
   3. http://toxnet.nlm.nih.gov/cgi-bin/sis/search/r?dbs+hsdb:@term+@rn+@rel+127-07-1
   4. http://toxnet.nlm.nih.gov/cgi-bin/sis/search/r?dbs+hsdb:@term+@rn+@rel+127-07-1
   5. http://toxnet.nlm.nih.gov/cgi-bin/sis/search/r?dbs+hsdb:@term+@rn+@rel+127-07-1
   6. http://toxnet.nlm.nih.gov/cgi-bin/sis/search/r?dbs+hsdb:@term+@rn+@rel+127-07-1
   7. http://toxnet.nlm.nih.gov/cgi-bin/sis/search/r?dbs+hsdb:@term+@rn+@rel+127-07-1
   8. http://pubchem.ncbi.nlm.nih.gov/vw3d/vw3d.cgi?cid=3657
