   Color/Form

     * Colorless needles
     * White monoclinic needles

   from [1]HSDB

   Odor
        Slight amine odor
   from [2]HSDB

   Melting Point
        86-87 deg C
   from [3]HSDB

   Dissociation Constants
        pKa = 4.20
   from [4]HSDB

   Octanol/Water Partition Coefficient
        log Kow = 5.50
   from [5]HSDB

   Solubilities

     * Soluble in most organic solvents.
     * In water, 1 mg/l @ 25 deg C. [Shiu WY et al; Rev Environ Contam
       Toxicol 116: 15-187 (1990)] [6]PubMed Abstract

   from [7]HSDB

   Vapor Pressure
        2.0X10-6 mm Hg @ 25 deg C
   from [8]HSDB

   Other Chemical/Physical Properties

     * Henry's Law constant = 9.87X10-6 atm-cu m/mol @ 25 deg C
     * Unstable to acidic pH

   from [9]HSDB

   Computed Properties
   Molecular Weight                  293.40602 [g/mol]
   Molecular Formula                 C[19]H[23]N[3]
   XLogP3                            5.5
   H-Bond Donor                      0
   H-Bond Acceptor                   2
   Rotatable Bond Count              4
   Exact Mass                        293.189198
   MonoIsotopic Mass                 293.189198
   Topological Polar Surface Area    28
   Heavy Atom Count                  22
   Formal Charge                     0
   Complexity                        354
   Isotope Atom Count                0
   Defined Atom Stereocenter Count   0
   Undefined Atom Stereocenter Count 0
   Defined Bond Stereocenter Count   0
   Undefined Bond Stereocenter Count 0
   Covalently-Bonded Unit Count      1
   Feature 3D Cation Count           2
   Feature 3D Ring Count             2
   Effective Rotor Count             4
   Conformer Sampling RMSD           0.6
   CID Conformer Count               [10]43

References

   1. http://toxnet.nlm.nih.gov/cgi-bin/sis/search/r?dbs+hsdb:@term+@rn+@rel+33089-61-1
   2. http://toxnet.nlm.nih.gov/cgi-bin/sis/search/r?dbs+hsdb:@term+@rn+@rel+33089-61-1
   3. http://toxnet.nlm.nih.gov/cgi-bin/sis/search/r?dbs+hsdb:@term+@rn+@rel+33089-61-1
   4. http://toxnet.nlm.nih.gov/cgi-bin/sis/search/r?dbs+hsdb:@term+@rn+@rel+33089-61-1
   5. http://toxnet.nlm.nih.gov/cgi-bin/sis/search/r?dbs+hsdb:@term+@rn+@rel+33089-61-1
   6. http://www.ncbi.nlm.nih.gov/entrez/query.fcgi?cmd=Retrieve&db=pubmed&dopt=Abstract&list_uids=2205893
   7. http://toxnet.nlm.nih.gov/cgi-bin/sis/search/r?dbs+hsdb:@term+@rn+@rel+33089-61-1
   8. http://toxnet.nlm.nih.gov/cgi-bin/sis/search/r?dbs+hsdb:@term+@rn+@rel+33089-61-1
   9. http://toxnet.nlm.nih.gov/cgi-bin/sis/search/r?dbs+hsdb:@term+@rn+@rel+33089-61-1
  10. http://pubchem.ncbi.nlm.nih.gov/vw3d/vw3d.cgi?cid=36324
