   Color/Form

     * Colorless acicular crystals or white, crystalline mass
     * White crystalline mass of hygroscopic, translucent needle-shaped
       crystals; pink or red when impurities are present; darkens on
       exposure to light
     * White, crystalline mass that turns pink or red if not perfectly
       pure or if under influence of light.
     * Colorless to light pink, interlaced, or separate, needleshaped
       crystals, or a ... light pink, crystalline mass
     * Colorless to light pink crystalline solid. [Note: Phenol liquefies
       by mixing with about 8% water.]

   from [1]HSDB

   Odor

     * Distinct aromatic, somewhat sickening sweet and acrid odor,
       discernable at 0.5 to 5 ppm
     * Sweet, tarry odor
     * Somewhat sickeningly sweet and acrid

   from [2]HSDB

   Taste

     * Sharp, burning taste
     * When in very weak solution it has a sweetish taste.

   from [3]HSDB

   Boiling Point
        181.75 deg C @ 101.3 kPa
   from [4]HSDB

   Melting Point
        40.91 deg C
   from [5]HSDB

   Corrosivity
        Caustic
   from [6]HSDB

   Critical Temperature and Pressure
        Critical temperature = 694.2 K; critical pressure = 6.13 MPa
   from [7]HSDB

   Density/Specific Gravity
        1.071 g/cu cm
   from [8]HSDB

   Dissociation Constants
        pKa = 9.99 @ 25 deg C
   from [9]HSDB

   Heat of Combustion
        3053.5 kJ/mol (solid)
   from [10]HSDB

   Heat of Vaporization
        57.82 kJ/mol @ 25 deg C
   from [11]HSDB

   Octanol/Water Partition Coefficient
        Log Kow = 1.46
   from [12]HSDB

   pH
        about 6.0 (aq soln)
   from [13]HSDB

   Solubilities

     * 1 g/15 ml water
     * 1 g/12 ml benzene
     * Very soluble in alcohol, chloroform, ether, glycerol, carbon
       disulfide, petrolatum, volatile and fixed oils, and aqueous alkali
       hydroxides
     * Miscible with acetone
     * Very soluble in ether and partially dissociated organic in general;
       less soluble in parafinic hydrocarbons
     * Limited solubility in water from 0 to 65 deg C; above 65.3 deg C
       phenol and water are miscible in all proportions
     * In water, 8.28X10+4 mg/l @ 25 deg C

   from [14]HSDB

   Spectral Properties

     * Index of refraction: 1.5408 @ 41 deg C
     * MAX ABSORPTION (ALC): 276 NM SHOULDER (LOG E= 3.16), 218.5 NM (LOG
       E= 3.78), 266 NM SHOULDER (LOG E= 3.18), 271 NM (LOG E= 3.28)
     * MASS: 61583 (NIST/EPA/MSDC Mass Spectral Database, 1990 Version)
     * IR: 4815 (Coblentz Society spectral collection)
     * UV: 258 (Sadtler Research Laboratories spectral collection)
     * Raman: 650 (Sadtler Research Laboratories spectral collection)
     * H-1 NMR: 3152 (Sadtler Research Laboratories spectral collection)
     * C-13 NMR: 160 (Johnson and Jankowski, Carbon-13 NMR Spectra, John
       Wiley and Sons, New York)

   from [15]HSDB

   Surface Tension
        38.20 mN/m @ 50 deg C; 35.53 mN/m @ 75 deg C; 32.86 mN/m @ 100 deg
   C
   from [16]HSDB

   Vapor Density
        3.24 (Air= 1)
   from [17]HSDB

   Vapor Pressure
        0.35 mm Hg @ 25 deg C
   from [18]HSDB

   Viscosity
        3.437 mPa s @ 50 deg C; 1.784 mPa s @ 75 deg C; 1.099 mPa s @ 100
   deg C
   from [19]HSDB

   Other Chemical/Physical Properties

     * It is liquefied by mixing with about 8% water.
     * Latent heat of sublimation: 68.7 kJ/mole (25 deg C).
     * Heat of formation: -165.0 kJ/mole (25 deg C).
     * Ionization potential: 8.47 eV.
     * Heat of solution: -10.9 kJ/mole (20 deg C).
     * Coefficient of thermal expansion: 1.090 x 10-3/deg C (20 deg C).
     * Saturation concentration in air: 0.77 g/cu m @ 20 deg C, 2.0 g/cu m
       @ 30 deg C.
     * Concn in "saturated" air: 0.046% by volume (0.77 g/cu m) (25 deg
       C); Density of "saturated" air: 1.00104 (air=1); Conversion: 3.84
       mg/cu m = 1 ppm; 1 mg/l = 0.26 mg/cu m
     * When free from water & cresols it congeals at 41 deg C & melts at
       43 deg C.
     * Phenol coagulates collodion; liquefies or becomes semiliquid when
       triturated with acetanilide, butylchloral hydrate, camphor,
       monobromated camphor, chloral hydrate, diuretin, lead acetate,
       menthol, naphthalene, naphthol, acetophentidin, pyrogallol,
       resorcinol, salol, sodium phosphate, thymol, urethane,
       chloralamide, terpin hydrate.
     * Prone to redden on exposure to air and light, hastened on presence
       of alkalinity.
     * Absorbs water from the air and liquefies
     * Combustible
     * Molar heat capacity at constant pressure: 127.4 J/mol K @ 298.15 K
     * Enthalpy of fusion: 11.51 kJ/mol @ 40.89 deg C
     * Dielectric constant = 12.40 @ 303.2 K
     * Henry's law constant: 3.33X10-7 atm-cu m/mol @ 25 deg C [Gaffney JS
       et al; Environ Sci Technol 21: 519-23 (1987)] [20]PubMed Abstract
     * Hydroxyl radical reaction rate constant: 2.63X10-11 cu
       cm/molecule-sec @ 25 deg C

   from [21]HSDB

   Computed Properties
   Molecular Weight                  94.11124 [g/mol]
   Molecular Formula                 C[6]H[6]O
   XLogP3                            1.5
   H-Bond Donor                      1
   H-Bond Acceptor                   1
   Rotatable Bond Count              0
   Tautomer Count                    2
   Exact Mass                        94.041865
   MonoIsotopic Mass                 94.041865
   Topological Polar Surface Area    20.2
   Heavy Atom Count                  7
   Formal Charge                     0
   Complexity                        46.1
   Isotope Atom Count                0
   Defined Atom Stereocenter Count   0
   Undefined Atom Stereocenter Count 0
   Defined Bond Stereocenter Count   0
   Undefined Bond Stereocenter Count 0
   Covalently-Bonded Unit Count      1
   Feature 3D Donor Count            1
   Feature 3D Ring Count             1
   Effective Rotor Count             0
   Conformer Sampling RMSD           0.4
   CID Conformer Count               [22]1

References

   1. http://toxnet.nlm.nih.gov/cgi-bin/sis/search/r?dbs+hsdb:@term+@rn+@rel+108-95-2
   2. http://toxnet.nlm.nih.gov/cgi-bin/sis/search/r?dbs+hsdb:@term+@rn+@rel+108-95-2
   3. http://toxnet.nlm.nih.gov/cgi-bin/sis/search/r?dbs+hsdb:@term+@rn+@rel+108-95-2
   4. http://toxnet.nlm.nih.gov/cgi-bin/sis/search/r?dbs+hsdb:@term+@rn+@rel+108-95-2
   5. http://toxnet.nlm.nih.gov/cgi-bin/sis/search/r?dbs+hsdb:@term+@rn+@rel+108-95-2
   6. http://toxnet.nlm.nih.gov/cgi-bin/sis/search/r?dbs+hsdb:@term+@rn+@rel+108-95-2
   7. http://toxnet.nlm.nih.gov/cgi-bin/sis/search/r?dbs+hsdb:@term+@rn+@rel+108-95-2
   8. http://toxnet.nlm.nih.gov/cgi-bin/sis/search/r?dbs+hsdb:@term+@rn+@rel+108-95-2
   9. http://toxnet.nlm.nih.gov/cgi-bin/sis/search/r?dbs+hsdb:@term+@rn+@rel+108-95-2
  10. http://toxnet.nlm.nih.gov/cgi-bin/sis/search/r?dbs+hsdb:@term+@rn+@rel+108-95-2
  11. http://toxnet.nlm.nih.gov/cgi-bin/sis/search/r?dbs+hsdb:@term+@rn+@rel+108-95-2
  12. http://toxnet.nlm.nih.gov/cgi-bin/sis/search/r?dbs+hsdb:@term+@rn+@rel+108-95-2
  13. http://toxnet.nlm.nih.gov/cgi-bin/sis/search/r?dbs+hsdb:@term+@rn+@rel+108-95-2
  14. http://toxnet.nlm.nih.gov/cgi-bin/sis/search/r?dbs+hsdb:@term+@rn+@rel+108-95-2
  15. http://toxnet.nlm.nih.gov/cgi-bin/sis/search/r?dbs+hsdb:@term+@rn+@rel+108-95-2
  16. http://toxnet.nlm.nih.gov/cgi-bin/sis/search/r?dbs+hsdb:@term+@rn+@rel+108-95-2
  17. http://toxnet.nlm.nih.gov/cgi-bin/sis/search/r?dbs+hsdb:@term+@rn+@rel+108-95-2
  18. http://toxnet.nlm.nih.gov/cgi-bin/sis/search/r?dbs+hsdb:@term+@rn+@rel+108-95-2
  19. http://toxnet.nlm.nih.gov/cgi-bin/sis/search/r?dbs+hsdb:@term+@rn+@rel+108-95-2
  20. http://www.ncbi.nlm.nih.gov/entrez/query.fcgi?cmd=Retrieve&db=pubmed&dopt=Abstract&list_uids=19994967
  21. http://toxnet.nlm.nih.gov/cgi-bin/sis/search/r?dbs+hsdb:@term+@rn+@rel+108-95-2
  22. http://pubchem.ncbi.nlm.nih.gov/vw3d/vw3d.cgi?cid=996
