217611
  -OEChem-07051212592D

 35 36  0     1  0  0  0  0  0999 V2000
    5.9889   -1.0055    0.0000 O   0  0  0  0  0  0  0  0  0  0  0  0
    4.7320    1.2498    0.0000 N   0  0  0  0  0  0  0  0  0  0  0  0
    5.6783   -0.0550    0.0000 N   0  0  0  0  0  0  0  0  0  0  0  0
    3.8660   -0.2502    0.0000 N   0  0  0  0  0  0  0  0  0  0  0  0
    6.2619    0.7498    0.0000 C   0  0  1  0  0  0  0  0  0  0  0  0
    5.6783    1.5545    0.0000 C   0  0  0  0  0  0  0  0  0  0  0  0
    4.7320    0.2498    0.0000 C   0  0  0  0  0  0  0  0  0  0  0  0
    3.0000    0.2498    0.0000 C   0  0  0  0  0  0  0  0  0  0  0  0
    3.8660    1.7498    0.0000 C   0  0  0  0  0  0  0  0  0  0  0  0
    7.2619    0.7498    0.0000 C   0  0  0  0  0  0  0  0  0  0  0  0
    3.0000    1.2498    0.0000 C   0  0  0  0  0  0  0  0  0  0  0  0
    2.0000    0.2498    0.0000 C   0  0  0  0  0  0  0  0  0  0  0  0
    2.5000   -0.6162    0.0000 C   0  0  0  0  0  0  0  0  0  0  0  0
    7.7619    1.6158    0.0000 C   0  0  0  0  0  0  0  0  0  0  0  0
    7.7619   -0.1162    0.0000 C   0  0  0  0  0  0  0  0  0  0  0  0
    5.3211   -1.7498    0.0000 C   0  0  0  0  0  0  0  0  0  0  0  0
    6.5436    0.1975    0.0000 H   0  0  0  0  0  0  0  0  0  0  0  0
    6.2156    1.8637    0.0000 H   0  0  0  0  0  0  0  0  0  0  0  0
    5.4272    2.1214    0.0000 H   0  0  0  0  0  0  0  0  0  0  0  0
    3.8660    2.3698    0.0000 H   0  0  0  0  0  0  0  0  0  0  0  0
    2.4631    1.5598    0.0000 H   0  0  0  0  0  0  0  0  0  0  0  0
    2.0000    0.8698    0.0000 H   0  0  0  0  0  0  0  0  0  0  0  0
    1.3800    0.2498    0.0000 H   0  0  0  0  0  0  0  0  0  0  0  0
    2.0000   -0.3702    0.0000 H   0  0  0  0  0  0  0  0  0  0  0  0
    1.9631   -0.3062    0.0000 H   0  0  0  0  0  0  0  0  0  0  0  0
    2.1900   -1.1532    0.0000 H   0  0  0  0  0  0  0  0  0  0  0  0
    3.0369   -0.9262    0.0000 H   0  0  0  0  0  0  0  0  0  0  0  0
    8.2988    1.3058    0.0000 H   0  0  0  0  0  0  0  0  0  0  0  0
    8.0719    2.1527    0.0000 H   0  0  0  0  0  0  0  0  0  0  0  0
    7.2249    1.9258    0.0000 H   0  0  0  0  0  0  0  0  0  0  0  0
    7.4519   -0.6532    0.0000 H   0  0  0  0  0  0  0  0  0  0  0  0
    8.3819   -0.1162    0.0000 H   0  0  0  0  0  0  0  0  0  0  0  0
    4.8596   -1.3357    0.0000 H   0  0  0  0  0  0  0  0  0  0  0  0
    4.9070   -2.2112    0.0000 H   0  0  0  0  0  0  0  0  0  0  0  0
    5.7826   -2.1638    0.0000 H   0  0  0  0  0  0  0  0  0  0  0  0
  1  3  1  0  0  0  0
  1 16  1  0  0  0  0
  2  6  1  0  0  0  0
  2  7  1  0  0  0  0
  2  9  1  0  0  0  0
  3  5  1  0  0  0  0
  3  7  1  0  0  0  0
  4  7  2  0  0  0  0
  4  8  1  0  0  0  0
  5  6  1  0  0  0  0
  5 10  1  1  0  0  0
  5 17  1  0  0  0  0
  6 18  1  0  0  0  0
  6 19  1  0  0  0  0
  8 11  1  0  0  0  0
  8 12  1  0  0  0  0
  8 13  1  0  0  0  0
  9 11  2  0  0  0  0
  9 20  1  0  0  0  0
 10 14  1  0  0  0  0
 10 15  2  0  0  0  0
 11 21  1  0  0  0  0
 12 22  1  0  0  0  0
 12 23  1  0  0  0  0
 12 24  1  0  0  0  0
 13 25  1  0  0  0  0
 13 26  1  0  0  0  0
 13 27  1  0  0  0  0
 14 28  1  0  0  0  0
 14 29  1  0  0  0  0
 14 30  1  0  0  0  0
 15 31  1  0  0  0  0
 15 32  1  0  0  0  0
 16 33  1  0  0  0  0
 16 34  1  0  0  0  0
 16 35  1  0  0  0  0
M  END
> <PUBCHEM_COMPOUND_CID>
217611

> <PUBCHEM_COMPOUND_CANONICALIZED>
1

> <PUBCHEM_CACTVS_COMPLEXITY>
371

> <PUBCHEM_CACTVS_HBOND_ACCEPTOR>
2

> <PUBCHEM_CACTVS_HBOND_DONOR>
0

> <PUBCHEM_CACTVS_ROTATABLE_BOND>
2

> <PUBCHEM_CACTVS_SUBSKEYS>
AAADceBzIAAAAAAAAAAAAAAAAAAAAWAAAAAgAAAAAAAAAEAAAAAAHgAEAAAADKjBAAYDAAMQAACgAiBGZACAAAEgAgApAAAIAAiAQAAAiQAUAAAIAAIAAAAAAAAAAAAAAAAAAAAAAAAAAAAAAAAAAAAAAA==

> <PUBCHEM_IUPAC_OPENEYE_NAME>
(2R)-2-isopropenyl-1-methoxy-7,7-dimethyl-2,3-dihydroimidazo[1,2-a]pyrimidine

> <PUBCHEM_IUPAC_CAS_NAME>
(2R)-1-methoxy-7,7-dimethyl-2-(1-methylethenyl)-2,3-dihydroimidazo[1,2-a]pyrimidine

> <PUBCHEM_IUPAC_NAME>
(2R)-1-methoxy-7,7-dimethyl-2-prop-1-en-2-yl-2,3-dihydroimidazo[1,2-a]pyrimidine

> <PUBCHEM_IUPAC_SYSTEMATIC_NAME>
(2R)-1-methoxy-7,7-dimethyl-2-prop-1-en-2-yl-2,3-dihydroimidazo[1,2-a]pyrimidine

> <PUBCHEM_IUPAC_TRADITIONAL_NAME>
(2R)-2-isopropenyl-1-methoxy-7,7-dimethyl-2,3-dihydroimidazo[1,2-a]pyrimidine

> <PUBCHEM_IUPAC_INCHI>
InChI=1S/C12H19N3O/c1-9(2)10-8-14-7-6-12(3,4)13-11(14)15(10)16-5/h6-7,10H,1,8H2,2-5H3/t10-/m0/s1

> <PUBCHEM_IUPAC_INCHIKEY>
RCNXAKUMTKVCLL-JTQLQIEISA-N

> <PUBCHEM_XLOGP3_AA>
1.5

> <PUBCHEM_EXACT_MASS>
221.152812

> <PUBCHEM_MOLECULAR_FORMULA>
C12H19N3O

> <PUBCHEM_MOLECULAR_WEIGHT>
221.29876

> <PUBCHEM_OPENEYE_CAN_SMILES>
CC(=C)C1CN2C=CC(N=C2N1OC)(C)C

> <PUBCHEM_OPENEYE_ISO_SMILES>
CC(=C)[C@@H]1CN2C=CC(N=C2N1OC)(C)C

> <PUBCHEM_CACTVS_TPSA>
28.1

> <PUBCHEM_MONOISOTOPIC_WEIGHT>
221.152812

> <PUBCHEM_TOTAL_CHARGE>
0

> <PUBCHEM_HEAVY_ATOM_COUNT>
16

> <PUBCHEM_ATOM_DEF_STEREO_COUNT>
1

> <PUBCHEM_ATOM_UDEF_STEREO_COUNT>
0

> <PUBCHEM_BOND_DEF_STEREO_COUNT>
0

> <PUBCHEM_BOND_UDEF_STEREO_COUNT>
0

> <PUBCHEM_ISOTOPIC_ATOM_COUNT>
0

> <PUBCHEM_COMPONENT_COUNT>
1

> <PUBCHEM_CACTVS_TAUTO_COUNT>
1

> <PUBCHEM_COORDINATE_TYPE>
1
5
255

> <PUBCHEM_BONDANNOTATIONS>
5  10  5

$$$$

