   Color/Form

     * Orthorhombic crystals from alcohol or petroleum ether
     * Colorless crystals
     * White or pale yellow solid

   from [1]HSDB

   Odor

     * SLIGHTLY SWEETISH; CHARACTERISTIC AMINE ODOR
     * Characteristic sweet odor

   from [2]HSDB

   Boiling Point
        232 deg C
   from [3]HSDB

   Melting Point
        72.5 deg C
   from [4]HSDB

   Density/Specific Gravity
        1.169 at 77 deg C/4 deg C
   from [5]HSDB

   Dissociation Constants
        pKa= 3.982 at 25 deg C
   from [6]HSDB

   Heat of Combustion
        -11,000 BTU/LB= -6,000 CAL/G= -250X10+5 J/KG
   from [7]HSDB

   Heat of Vaporization
        12,832.8 gcal/gmole
   from [8]HSDB

   Octanol/Water Partition Coefficient
        log Kow = 1.83 at pH 7.4
   from [9]HSDB

   Solubilities

     * Freely soluble in alcohol, ether, acetone, carbon disulfide
     * In water, 3,900 mg/L at 25 deg C

   from [10]HSDB

   Spectral Properties

     * Index of refraction: 1.5546 at 87 deg C/D
     * MAX ABSORPTION (ALCOHOL): 242 NM (LOG E= 3.9); 295 NM (LOG E= 3.2);
       SADTLER REF NUMBER: 1317 (IR, PRISM); 8140 (IR, GRATING)
     * IR: 5546 (Coblentz Society Spectral Collection)
     * UV: 393 (Sadtler Research Laboratories Spectral Collection)
     * 1H NMR: 123 (Varian Associates NMR spectra collection)
     * MASS: 93673 (NIST/EPA/MSDC Mass Spectral Database 1990 version)
     * RAMAN: 239 (Sadtler Research Laboratories Spectral Collection)

   from [11]HSDB

   Vapor Pressure
        0.071 mm Hg at 25 deg C
   from [12]HSDB

   Other Chemical/Physical Properties

     * Distilling range: 229-233 deg C
     * Vapor pressure = 10 MM HG @ 102.1 DEG C; 40 MM HG @ 135 DEG C; 100
       MM HG @ 159.9 DEG C
     * The conversion factors for PCA in air (20 deg C, 101.3 kPa) are as
       follows: 1 mg/cu m = 0.189 ppm 1 ppm = 5.30 mg/cu m.
     * Henry's Law constant = 3.1X10-6 atm-cu m/mol at 25 deg C
       /Estimated/
     * Hydroxyl radical reaction rate constant = 4.30X10-11 cu
       cm/molec-sec at 25 deg C

   from [13]HSDB

   Computed Properties
   Molecular Weight                  127.57154 [g/mol]
   Molecular Formula                 C[6]H[6]ClN
   XLogP3                            1.9
   H-Bond Donor                      1
   H-Bond Acceptor                   1
   Rotatable Bond Count              0
   Exact Mass                        127.018877
   MonoIsotopic Mass                 127.018877
   Topological Polar Surface Area    26
   Heavy Atom Count                  8
   Formal Charge                     0
   Complexity                        66.9
   Isotope Atom Count                0
   Defined Atom Stereocenter Count   0
   Undefined Atom Stereocenter Count 0
   Defined Bond Stereocenter Count   0
   Undefined Bond Stereocenter Count 0
   Covalently-Bonded Unit Count      1
   Feature 3D Donor Count            1
   Feature 3D Cation Count           1
   Feature 3D Ring Count             1
   Effective Rotor Count             0
   Conformer Sampling RMSD           0.4
   CID Conformer Count               [14]1

References

   1. http://toxnet.nlm.nih.gov/cgi-bin/sis/search/r?dbs+hsdb:@term+@rn+@rel+106-47-8
   2. http://toxnet.nlm.nih.gov/cgi-bin/sis/search/r?dbs+hsdb:@term+@rn+@rel+106-47-8
   3. http://toxnet.nlm.nih.gov/cgi-bin/sis/search/r?dbs+hsdb:@term+@rn+@rel+106-47-8
   4. http://toxnet.nlm.nih.gov/cgi-bin/sis/search/r?dbs+hsdb:@term+@rn+@rel+106-47-8
   5. http://toxnet.nlm.nih.gov/cgi-bin/sis/search/r?dbs+hsdb:@term+@rn+@rel+106-47-8
   6. http://toxnet.nlm.nih.gov/cgi-bin/sis/search/r?dbs+hsdb:@term+@rn+@rel+106-47-8
   7. http://toxnet.nlm.nih.gov/cgi-bin/sis/search/r?dbs+hsdb:@term+@rn+@rel+106-47-8
   8. http://toxnet.nlm.nih.gov/cgi-bin/sis/search/r?dbs+hsdb:@term+@rn+@rel+106-47-8
   9. http://toxnet.nlm.nih.gov/cgi-bin/sis/search/r?dbs+hsdb:@term+@rn+@rel+106-47-8
  10. http://toxnet.nlm.nih.gov/cgi-bin/sis/search/r?dbs+hsdb:@term+@rn+@rel+106-47-8
  11. http://toxnet.nlm.nih.gov/cgi-bin/sis/search/r?dbs+hsdb:@term+@rn+@rel+106-47-8
  12. http://toxnet.nlm.nih.gov/cgi-bin/sis/search/r?dbs+hsdb:@term+@rn+@rel+106-47-8
  13. http://toxnet.nlm.nih.gov/cgi-bin/sis/search/r?dbs+hsdb:@term+@rn+@rel+106-47-8
  14. http://pubchem.ncbi.nlm.nih.gov/vw3d/vw3d.cgi?cid=7812
