119133
  -OEChem-07051213022D

 30 30  0     1  0  0  0  0  0999 V2000
    3.2601   -3.5194    0.0000 O   0  0  0  0  0  0  0  0  0  0  0  0
    2.0000   -2.2594    0.0000 O   0  0  0  0  0  0  0  0  0  0  0  0
    5.4921   -0.9806    0.0000 O   0  0  0  0  0  0  0  0  0  0  0  0
    6.3582    0.5194    0.0000 O   0  0  0  0  0  0  0  0  0  0  0  0
    3.7601   -0.9806    0.0000 N   0  0  0  0  0  0  0  0  0  0  0  0
    3.7601   -1.9806    0.0000 C   0  0  3  0  0  0  0  0  0  0  0  0
    4.5691   -2.5684    0.0000 C   0  0  0  0  0  0  0  0  0  0  0  0
    4.2601   -3.5194    0.0000 C   0  0  0  0  0  0  0  0  0  0  0  0
    2.9511   -2.5684    0.0000 C   0  0  0  0  0  0  0  0  0  0  0  0
    4.6261   -0.4806    0.0000 C   0  0  0  0  0  0  0  0  0  0  0  0
    4.6261    0.5194    0.0000 C   0  0  0  0  0  0  0  0  0  0  0  0
    5.4921    2.0194    0.0000 C   0  0  0  0  0  0  0  0  0  0  0  0
    5.4921    1.0194    0.0000 C   0  0  0  0  0  0  0  0  0  0  0  0
    6.3582    2.5194    0.0000 C   0  0  0  0  0  0  0  0  0  0  0  0
    6.3582    3.5194    0.0000 C   0  0  0  0  0  0  0  0  0  0  0  0
    4.3125   -1.6991    0.0000 H   0  0  0  0  0  0  0  0  0  0  0  0
    5.1355   -2.8205    0.0000 H   0  0  0  0  0  0  0  0  0  0  0  0
    4.8791   -2.0314    0.0000 H   0  0  0  0  0  0  0  0  0  0  0  0
    4.1953   -4.1360    0.0000 H   0  0  0  0  0  0  0  0  0  0  0  0
    4.8665   -3.6483    0.0000 H   0  0  0  0  0  0  0  0  0  0  0  0
    3.2231   -0.6706    0.0000 H   0  0  0  0  0  0  0  0  0  0  0  0
    4.4140    1.1020    0.0000 H   0  0  0  0  0  0  0  0  0  0  0  0
    4.0155    0.4118    0.0000 H   0  0  0  0  0  0  0  0  0  0  0  0
    5.2801    2.6020    0.0000 H   0  0  0  0  0  0  0  0  0  0  0  0
    4.8815    1.9118    0.0000 H   0  0  0  0  0  0  0  0  0  0  0  0
    6.5702    1.9368    0.0000 H   0  0  0  0  0  0  0  0  0  0  0  0
    6.9687    2.6271    0.0000 H   0  0  0  0  0  0  0  0  0  0  0  0
    6.9782    3.5194    0.0000 H   0  0  0  0  0  0  0  0  0  0  0  0
    6.3582    4.1394    0.0000 H   0  0  0  0  0  0  0  0  0  0  0  0
    5.7382    3.5194    0.0000 H   0  0  0  0  0  0  0  0  0  0  0  0
  1  8  1  0  0  0  0
  1  9  1  0  0  0  0
  2  9  2  0  0  0  0
  3 10  2  0  0  0  0
  4 13  2  0  0  0  0
  5  6  1  0  0  0  0
  5 10  1  0  0  0  0
  5 21  1  0  0  0  0
  6  7  1  0  0  0  0
  6  9  1  0  0  0  0
  6 16  1  0  0  0  0
  7  8  1  0  0  0  0
  7 17  1  0  0  0  0
  7 18  1  0  0  0  0
  8 19  1  0  0  0  0
  8 20  1  0  0  0  0
 10 11  1  0  0  0  0
 11 13  1  0  0  0  0
 11 22  1  0  0  0  0
 11 23  1  0  0  0  0
 12 13  1  0  0  0  0
 12 14  1  0  0  0  0
 12 24  1  0  0  0  0
 12 25  1  0  0  0  0
 14 15  1  0  0  0  0
 14 26  1  0  0  0  0
 14 27  1  0  0  0  0
 15 28  1  0  0  0  0
 15 29  1  0  0  0  0
 15 30  1  0  0  0  0
M  END
> <PUBCHEM_COMPOUND_CID>
119133

> <PUBCHEM_COMPOUND_CANONICALIZED>
1

> <PUBCHEM_CACTVS_COMPLEXITY>
275

> <PUBCHEM_CACTVS_HBOND_ACCEPTOR>
4

> <PUBCHEM_CACTVS_HBOND_DONOR>
1

> <PUBCHEM_CACTVS_ROTATABLE_BOND>
5

> <PUBCHEM_CACTVS_SUBSKEYS>
AAADccByOAAAAAAAAAAAAAAAAAAAASAAAAAAAAAAAAAAAAAAAAAAHgAQAAAACCzhgAYCCALABAAIAIGQGAAAAAAAAAAAAIGIAAACABoIgCAHAAAGFgCQAAEaCAAAAAAAAAAAAAAAAAAAAAAAAAAAAAAAAA==

> <PUBCHEM_IUPAC_OPENEYE_NAME>
3-oxo-N-(2-oxotetrahydrofuran-3-yl)hexanamide

> <PUBCHEM_IUPAC_CAS_NAME>
3-oxo-N-(2-oxo-3-oxolanyl)hexanamide

> <PUBCHEM_IUPAC_NAME>
3-oxo-N-(2-oxooxolan-3-yl)hexanamide

> <PUBCHEM_IUPAC_SYSTEMATIC_NAME>
3-oxidanylidene-N-(2-oxidanylideneoxolan-3-yl)hexanamide

> <PUBCHEM_IUPAC_TRADITIONAL_NAME>
3-keto-N-(2-ketotetrahydrofuran-3-yl)hexanamide

> <PUBCHEM_IUPAC_INCHI>
InChI=1S/C10H15NO4/c1-2-3-7(12)6-9(13)11-8-4-5-15-10(8)14/h8H,2-6H2,1H3,(H,11,13)

> <PUBCHEM_IUPAC_INCHIKEY>
YRYOXRMDHALAFL-UHFFFAOYSA-N

> <PUBCHEM_XLOGP3_AA>
0.9

> <PUBCHEM_EXACT_MASS>
213.100108

> <PUBCHEM_MOLECULAR_FORMULA>
C10H15NO4

> <PUBCHEM_MOLECULAR_WEIGHT>
213.2304

> <PUBCHEM_OPENEYE_CAN_SMILES>
CCCC(=O)CC(=O)NC1CCOC1=O

> <PUBCHEM_OPENEYE_ISO_SMILES>
CCCC(=O)CC(=O)NC1CCOC1=O

> <PUBCHEM_CACTVS_TPSA>
72.5

> <PUBCHEM_MONOISOTOPIC_WEIGHT>
213.100108

> <PUBCHEM_TOTAL_CHARGE>
0

> <PUBCHEM_HEAVY_ATOM_COUNT>
15

> <PUBCHEM_ATOM_DEF_STEREO_COUNT>
0

> <PUBCHEM_ATOM_UDEF_STEREO_COUNT>
1

> <PUBCHEM_BOND_DEF_STEREO_COUNT>
0

> <PUBCHEM_BOND_UDEF_STEREO_COUNT>
0

> <PUBCHEM_ISOTOPIC_ATOM_COUNT>
0

> <PUBCHEM_COMPONENT_COUNT>
1

> <PUBCHEM_CACTVS_TAUTO_COUNT>
16

> <PUBCHEM_COORDINATE_TYPE>
1
5
255

> <PUBCHEM_BONDANNOTATIONS>
6  5  3

$$$$

