   Color/Form
        Colorless crystals
   from [1]HSDB

   Melting Point
        208-210 deg C
   from [2]HSDB

   Dissociation Constants
        pKa = 6.9 (double-bonded nitrogen) (est)
   from [3]HSDB

   Octanol/Water Partition Coefficient
        log Kow = 1.27
   from [4]HSDB

   Solubilities
        In water, 4.1X10+1 mg/L at 25 deg C (est)
   from [5]HSDB

   Vapor Pressure
        1.5X10-9 mm Hg at 25 deg C (est)
   from [6]HSDB

   Other Chemical/Physical Properties

     * Mol wt: 281.34. Active metabolite of albendazole. MP: 226-228 deg C
       (decomposes) /Sulfoxide/
     * Henry's Law constant = 7.6X10-14 atm-cu m/mol at 25 deg C (est)
     * Hydroxyl radical reaction rate constant = 2.1X10-10 cu
       cm/molecule-sec at 25 deg C (est)

   from [7]HSDB

   Computed Properties
   Molecular Weight                  265.3314 [g/mol]
   Molecular Formula                 C[12]H[15]N[3]O[2]S
   XLogP3                            2.9
   H-Bond Donor                      2
   H-Bond Acceptor                   4
   Rotatable Bond Count              5
   Tautomer Count                    5
   Exact Mass                        265.088498
   MonoIsotopic Mass                 265.088498
   Topological Polar Surface Area    92.3
   Heavy Atom Count                  18
   Formal Charge                     0
   Complexity                        291
   Isotope Atom Count                0
   Defined Atom Stereocenter Count   0
   Undefined Atom Stereocenter Count 0
   Defined Bond Stereocenter Count   0
   Undefined Bond Stereocenter Count 0
   Covalently-Bonded Unit Count      1
   Feature 3D Acceptor Count         1
   Feature 3D Donor Count            2
   Feature 3D Hydrophobe Count       1
   Feature 3D Ring Count             2
   Effective Rotor Count             6
   Conformer Sampling RMSD           0.8
   CID Conformer Count               [8]26

References

   1. http://toxnet.nlm.nih.gov/cgi-bin/sis/search/r?dbs+hsdb:@term+@rn+@rel+54965-21-8
   2. http://toxnet.nlm.nih.gov/cgi-bin/sis/search/r?dbs+hsdb:@term+@rn+@rel+54965-21-8
   3. http://toxnet.nlm.nih.gov/cgi-bin/sis/search/r?dbs+hsdb:@term+@rn+@rel+54965-21-8
   4. http://toxnet.nlm.nih.gov/cgi-bin/sis/search/r?dbs+hsdb:@term+@rn+@rel+54965-21-8
   5. http://toxnet.nlm.nih.gov/cgi-bin/sis/search/r?dbs+hsdb:@term+@rn+@rel+54965-21-8
   6. http://toxnet.nlm.nih.gov/cgi-bin/sis/search/r?dbs+hsdb:@term+@rn+@rel+54965-21-8
   7. http://toxnet.nlm.nih.gov/cgi-bin/sis/search/r?dbs+hsdb:@term+@rn+@rel+54965-21-8
   8. http://pubchem.ncbi.nlm.nih.gov/vw3d/vw3d.cgi?cid=2082
