17396184
  -OEChem-06241222552D

 45 46  0     1  0  0  0  0  0999 V2000
    7.0014   -0.6113    0.0000 O   0  0  0  0  0  0  0  0  0  0  0  0
    6.5855    1.3450    0.0000 O   0  0  0  0  0  0  0  0  0  0  0  0
    9.4693   -2.8495    0.0000 O   0  0  0  0  0  0  0  0  0  0  0  0
    3.4013    3.6585    0.0000 O   0  0  0  0  0  0  0  0  0  0  0  0
    6.4661   -2.2586    0.0000 O   0  0  0  0  0  0  0  0  0  0  0  0
    4.0823    0.3971    0.0000 N   0  0  0  0  0  0  0  0  0  0  0  0
    4.8913    0.9849    0.0000 C   0  0  0  0  0  0  0  0  0  0  0  0
    4.5823    1.9360    0.0000 C   0  0  0  0  0  0  0  0  0  0  0  0
    3.5823    1.9360    0.0000 C   0  0  0  0  0  0  0  0  0  0  0  0
    3.2733    0.9849    0.0000 C   0  0  0  0  0  0  0  0  0  0  0  0
    6.0503   -0.3023    0.0000 C   0  0  3  0  0  0  0  0  0  0  0  0
    5.8424    0.6759    0.0000 C   0  0  0  0  0  0  0  0  0  0  0  0
    5.1701    2.7450    0.0000 C   0  0  0  0  0  0  0  0  0  0  0  0
    2.3222    0.6759    0.0000 C   0  0  0  0  0  0  0  0  0  0  0  0
    2.9945    2.7450    0.0000 C   0  0  0  0  0  0  0  0  0  0  0  0
    5.3072   -0.9714    0.0000 C   0  0  0  0  0  0  0  0  0  0  0  0
    8.1603   -1.8984    0.0000 C   0  0  0  0  0  0  0  0  0  0  0  0
    7.2093   -1.5894    0.0000 C   0  0  0  0  0  0  0  0  0  0  0  0
    2.0000    2.6404    0.0000 C   0  0  0  0  0  0  0  0  0  0  0  0
    8.4693   -2.8495    0.0000 C   0  0  0  0  0  0  0  0  0  0  0  0
    8.9693   -1.3107    0.0000 C   0  0  0  0  0  0  0  0  0  0  0  0
    9.7784   -1.8984    0.0000 C   0  0  0  0  0  0  0  0  0  0  0  0
    7.8816   -3.6585    0.0000 C   0  0  0  0  0  0  0  0  0  0  0  0
   10.7294   -1.5894    0.0000 C   0  0  0  0  0  0  0  0  0  0  0  0
    4.0823   -0.2229    0.0000 H   0  0  0  0  0  0  0  0  0  0  0  0
    6.5110    0.1126    0.0000 H   0  0  0  0  0  0  0  0  0  0  0  0
    5.6717    2.3806    0.0000 H   0  0  0  0  0  0  0  0  0  0  0  0
    5.5345    3.2466    0.0000 H   0  0  0  0  0  0  0  0  0  0  0  0
    4.6685    3.1094    0.0000 H   0  0  0  0  0  0  0  0  0  0  0  0
    2.1306    1.2655    0.0000 H   0  0  0  0  0  0  0  0  0  0  0  0
    1.7326    0.4843    0.0000 H   0  0  0  0  0  0  0  0  0  0  0  0
    2.5138    0.0862    0.0000 H   0  0  0  0  0  0  0  0  0  0  0  0
    4.8923   -0.5106    0.0000 H   0  0  0  0  0  0  0  0  0  0  0  0
    4.8464   -1.3863    0.0000 H   0  0  0  0  0  0  0  0  0  0  0  0
    5.7220   -1.4321    0.0000 H   0  0  0  0  0  0  0  0  0  0  0  0
    1.9352    3.2570    0.0000 H   0  0  0  0  0  0  0  0  0  0  0  0
    1.3834    2.5756    0.0000 H   0  0  0  0  0  0  0  0  0  0  0  0
    2.0648    2.0238    0.0000 H   0  0  0  0  0  0  0  0  0  0  0  0
    8.9693   -0.6907    0.0000 H   0  0  0  0  0  0  0  0  0  0  0  0
    7.3800   -3.2941    0.0000 H   0  0  0  0  0  0  0  0  0  0  0  0
    7.5171   -4.1601    0.0000 H   0  0  0  0  0  0  0  0  0  0  0  0
    8.3831   -4.0230    0.0000 H   0  0  0  0  0  0  0  0  0  0  0  0
   10.9210   -2.1791    0.0000 H   0  0  0  0  0  0  0  0  0  0  0  0
   11.3191   -1.3978    0.0000 H   0  0  0  0  0  0  0  0  0  0  0  0
   10.5378   -0.9998    0.0000 H   0  0  0  0  0  0  0  0  0  0  0  0
  1 11  1  0  0  0  0
  1 18  1  0  0  0  0
  2 12  2  0  0  0  0
  3 20  1  0  0  0  0
  3 22  1  0  0  0  0
  4 15  2  0  0  0  0
  5 18  2  0  0  0  0
  6  7  1  0  0  0  0
  6 10  1  0  0  0  0
  6 25  1  0  0  0  0
  7  8  2  0  0  0  0
  7 12  1  0  0  0  0
  8  9  1  0  0  0  0
  8 13  1  0  0  0  0
  9 10  2  0  0  0  0
  9 15  1  0  0  0  0
 10 14  1  0  0  0  0
 11 12  1  0  0  0  0
 11 16  1  0  0  0  0
 11 26  1  0  0  0  0
 13 27  1  0  0  0  0
 13 28  1  0  0  0  0
 13 29  1  0  0  0  0
 14 30  1  0  0  0  0
 14 31  1  0  0  0  0
 14 32  1  0  0  0  0
 15 19  1  0  0  0  0
 16 33  1  0  0  0  0
 16 34  1  0  0  0  0
 16 35  1  0  0  0  0
 17 18  1  0  0  0  0
 17 20  2  0  0  0  0
 17 21  1  0  0  0  0
 19 36  1  0  0  0  0
 19 37  1  0  0  0  0
 19 38  1  0  0  0  0
 20 23  1  0  0  0  0
 21 22  2  0  0  0  0
 21 39  1  0  0  0  0
 22 24  1  0  0  0  0
 23 40  1  0  0  0  0
 23 41  1  0  0  0  0
 23 42  1  0  0  0  0
 24 43  1  0  0  0  0
 24 44  1  0  0  0  0
 24 45  1  0  0  0  0
M  END
> <PUBCHEM_COMPOUND_CID>
17396184

> <PUBCHEM_COMPOUND_CANONICALIZED>
1

> <PUBCHEM_CACTVS_COMPLEXITY>
520

> <PUBCHEM_CACTVS_HBOND_ACCEPTOR>
5

> <PUBCHEM_CACTVS_HBOND_DONOR>
1

> <PUBCHEM_CACTVS_ROTATABLE_BOND>
6

> <PUBCHEM_CACTVS_SUBSKEYS>
AAADceB6OAAAAAAAAAAAAAAAAAAAAWJAAAAAAAAAAAAAAAAB4AAAHgAQAAAADByhngIyjJLJlECoA6TyTAKCiCAnICAAmSH2TNgMJ37Mtb+GGejn8BHI6cffy/C+gAAAAAAAAAAAAAAAAAAAAAAAAAAAAA==

> <PUBCHEM_IUPAC_OPENEYE_NAME>
[2-(4-acetyl-3,5-dimethyl-1H-pyrrol-2-yl)-1-methyl-2-oxo-ethyl] 2,5-dimethylfuran-3-carboxylate

> <PUBCHEM_IUPAC_CAS_NAME>
2,5-dimethyl-3-furancarboxylic acid [1-(4-acetyl-3,5-dimethyl-1H-pyrrol-2-yl)-1-oxopropan-2-yl] ester

> <PUBCHEM_IUPAC_NAME>
[1-(4-acetyl-3,5-dimethyl-1H-pyrrol-2-yl)-1-oxopropan-2-yl] 2,5-dimethylfuran-3-carboxylate

> <PUBCHEM_IUPAC_SYSTEMATIC_NAME>
[1-(4-ethanoyl-3,5-dimethyl-1H-pyrrol-2-yl)-1-oxidanylidene-propan-2-yl] 2,5-dimethylfuran-3-carboxylate

> <PUBCHEM_IUPAC_TRADITIONAL_NAME>
2,5-dimethylfuran-3-carboxylic acid [2-(4-acetyl-3,5-dimethyl-1H-pyrrol-2-yl)-2-keto-1-methyl-ethyl] ester

> <PUBCHEM_IUPAC_INCHI>
InChI=1S/C18H21NO5/c1-8-7-14(12(5)23-8)18(22)24-13(6)17(21)16-9(2)15(11(4)20)10(3)19-16/h7,13,19H,1-6H3

> <PUBCHEM_IUPAC_INCHIKEY>
BZCGYGGHQBXABZ-UHFFFAOYSA-N

> <PUBCHEM_XLOGP3_AA>
3

> <PUBCHEM_EXACT_MASS>
331.141973

> <PUBCHEM_MOLECULAR_FORMULA>
C18H21NO5

> <PUBCHEM_MOLECULAR_WEIGHT>
331.36304

> <PUBCHEM_OPENEYE_CAN_SMILES>
CC1=CC(=C(O1)C)C(=O)OC(C)C(=O)C2=C(C(=C(N2)C)C(=O)C)C

> <PUBCHEM_OPENEYE_ISO_SMILES>
CC1=CC(=C(O1)C)C(=O)OC(C)C(=O)C2=C(C(=C(N2)C)C(=O)C)C

> <PUBCHEM_CACTVS_TPSA>
89.4

> <PUBCHEM_MONOISOTOPIC_WEIGHT>
331.141973

> <PUBCHEM_TOTAL_CHARGE>
0

> <PUBCHEM_HEAVY_ATOM_COUNT>
24

> <PUBCHEM_ATOM_DEF_STEREO_COUNT>
0

> <PUBCHEM_ATOM_UDEF_STEREO_COUNT>
1

> <PUBCHEM_BOND_DEF_STEREO_COUNT>
0

> <PUBCHEM_BOND_UDEF_STEREO_COUNT>
0

> <PUBCHEM_ISOTOPIC_ATOM_COUNT>
0

> <PUBCHEM_COMPONENT_COUNT>
1

> <PUBCHEM_CACTVS_TAUTO_COUNT>
62

> <PUBCHEM_COORDINATE_TYPE>
1
5
255

> <PUBCHEM_BONDANNOTATIONS>
11  16  3
17  20  8
17  21  8
21  22  8
3  20  8
3  22  8
6  10  8
6  7  8
7  8  8
8  9  8
9  10  8

$$$$

