442429
  -OEChem-07051212582D

 30 31  0     1  0  0  0  0  0999 V2000
    2.0000    0.3450    0.0000 O   0  0  0  0  0  0  0  0  0  0  0  0
    2.8660    1.8450    0.0000 O   0  0  0  0  0  0  0  0  0  0  0  0
    3.7320   -0.6550    0.0000 C   0  0  2  0  0  0  0  0  0  0  0  0
    3.7320    0.3450    0.0000 C   0  0  1  0  0  0  0  0  0  0  0  0
    4.6783    0.6497    0.0000 C   0  0  2  0  0  0  0  0  0  0  0  0
    4.6783   -0.9597    0.0000 C   0  0  0  0  0  0  0  0  0  0  0  0
    2.8660   -1.1550    0.0000 C   0  0  1  0  0  0  0  0  0  0  0  0
    5.2619   -0.1550    0.0000 C   0  0  0  0  0  0  0  0  0  0  0  0
    2.8660    0.8450    0.0000 C   0  0  2  0  0  0  0  0  0  0  0  0
    2.0000   -0.6550    0.0000 C   0  0  0  0  0  0  0  0  0  0  0  0
    4.9889    1.6002    0.0000 C   0  0  0  0  0  0  0  0  0  0  0  0
    2.8660   -2.1550    0.0000 C   0  0  0  0  0  0  0  0  0  0  0  0
    3.8220   -1.5002    0.0000 H   0  0  0  0  0  0  0  0  0  0  0  0
    3.8220    1.1902    0.0000 H   0  0  0  0  0  0  0  0  0  0  0  0
    5.2908    0.7459    0.0000 H   0  0  0  0  0  0  0  0  0  0  0  0
    4.4272   -1.5266    0.0000 H   0  0  0  0  0  0  0  0  0  0  0  0
    5.2156   -1.2690    0.0000 H   0  0  0  0  0  0  0  0  0  0  0  0
    3.4030   -1.4650    0.0000 H   0  0  0  0  0  0  0  0  0  0  0  0
    5.7227   -0.5697    0.0000 H   0  0  0  0  0  0  0  0  0  0  0  0
    5.7227    0.2597    0.0000 H   0  0  0  0  0  0  0  0  0  0  0  0
    3.4030    1.1550    0.0000 H   0  0  0  0  0  0  0  0  0  0  0  0
    1.3894   -0.5473    0.0000 H   0  0  0  0  0  0  0  0  0  0  0  0
    1.7880   -1.2376    0.0000 H   0  0  0  0  0  0  0  0  0  0  0  0
    5.5783    1.4076    0.0000 H   0  0  0  0  0  0  0  0  0  0  0  0
    5.1815    2.1896    0.0000 H   0  0  0  0  0  0  0  0  0  0  0  0
    4.3996    1.7929    0.0000 H   0  0  0  0  0  0  0  0  0  0  0  0
    2.2460   -2.1550    0.0000 H   0  0  0  0  0  0  0  0  0  0  0  0
    2.8660   -2.7750    0.0000 H   0  0  0  0  0  0  0  0  0  0  0  0
    3.4860   -2.1550    0.0000 H   0  0  0  0  0  0  0  0  0  0  0  0
    2.3291    2.1550    0.0000 H   0  0  0  0  0  0  0  0  0  0  0  0
  1  9  1  0  0  0  0
  1 10  1  0  0  0  0
  9  2  1  6  0  0  0
  2 30  1  0  0  0  0
  3  4  1  0  0  0  0
  3  6  1  0  0  0  0
  3  7  1  0  0  0  0
  3 13  1  1  0  0  0
  4  5  1  0  0  0  0
  4  9  1  0  0  0  0
  4 14  1  1  0  0  0
  5  8  1  0  0  0  0
  5 11  1  1  0  0  0
  5 15  1  0  0  0  0
  6  8  1  0  0  0  0
  6 16  1  0  0  0  0
  6 17  1  0  0  0  0
  7 10  1  0  0  0  0
  7 12  1  6  0  0  0
  7 18  1  0  0  0  0
  8 19  1  0  0  0  0
  8 20  1  0  0  0  0
  9 21  1  0  0  0  0
 10 22  1  0  0  0  0
 10 23  1  0  0  0  0
 11 24  1  0  0  0  0
 11 25  1  0  0  0  0
 11 26  1  0  0  0  0
 12 27  1  0  0  0  0
 12 28  1  0  0  0  0
 12 29  1  0  0  0  0
M  END
> <PUBCHEM_COMPOUND_CID>
442429

> <PUBCHEM_COMPOUND_CANONICALIZED>
1

> <PUBCHEM_CACTVS_COMPLEXITY>
169

> <PUBCHEM_CACTVS_HBOND_ACCEPTOR>
2

> <PUBCHEM_CACTVS_HBOND_DONOR>
1

> <PUBCHEM_CACTVS_ROTATABLE_BOND>
0

> <PUBCHEM_CACTVS_SUBSKEYS>
AAADceBwMAAAAAAAAAAAAAAAAAAAAYAAAAAkAAAAAAAAAEgAAAAAGgAACAAADQCwgAMCCAAABgAAAAAAAAAAAAAAAAAAAAAAAAAQEAIAAAACQAAEAAAEAAGA4PAOgAAAAAAAAAAAAAAAAAAAAQAACAAAAA==

> <PUBCHEM_IUPAC_OPENEYE_NAME>
(1S,4S,4aR,7S,7aR)-4,7-dimethyl-1,3,4,4a,5,6,7,7a-octahydrocyclopenta[c]pyran-1-ol

> <PUBCHEM_IUPAC_CAS_NAME>
(1S,4S,4aR,7S,7aR)-4,7-dimethyl-1,3,4,4a,5,6,7,7a-octahydrocyclopenta[c]pyran-1-ol

> <PUBCHEM_IUPAC_NAME>
(1S,4S,4aR,7S,7aR)-4,7-dimethyl-1,3,4,4a,5,6,7,7a-octahydrocyclopenta[c]pyran-1-ol

> <PUBCHEM_IUPAC_SYSTEMATIC_NAME>
(1S,4S,4aR,7S,7aR)-4,7-dimethyl-1,3,4,4a,5,6,7,7a-octahydrocyclopenta[c]pyran-1-ol

> <PUBCHEM_IUPAC_TRADITIONAL_NAME>
(1S,4S,4aR,7S,7aR)-4,7-dimethyl-1,3,4,4a,5,6,7,7a-octahydrocyclopenta[c]pyran-1-ol

> <PUBCHEM_IUPAC_INCHI>
InChI=1S/C10H18O2/c1-6-3-4-8-7(2)5-12-10(11)9(6)8/h6-11H,3-5H2,1-2H3/t6-,7+,8+,9+,10-/m0/s1

> <PUBCHEM_IUPAC_INCHIKEY>
DUQRVHURUWMFMN-CHHOWFRJSA-N

> <PUBCHEM_XLOGP3_AA>
2.3

> <PUBCHEM_EXACT_MASS>
170.13068

> <PUBCHEM_MOLECULAR_FORMULA>
C10H18O2

> <PUBCHEM_MOLECULAR_WEIGHT>
170.24872

> <PUBCHEM_OPENEYE_CAN_SMILES>
CC1CCC2C1C(OCC2C)O

> <PUBCHEM_OPENEYE_ISO_SMILES>
C[C@H]1CC[C@H]2[C@@H]1[C@H](OC[C@H]2C)O

> <PUBCHEM_CACTVS_TPSA>
29.5

> <PUBCHEM_MONOISOTOPIC_WEIGHT>
170.13068

> <PUBCHEM_TOTAL_CHARGE>
0

> <PUBCHEM_HEAVY_ATOM_COUNT>
12

> <PUBCHEM_ATOM_DEF_STEREO_COUNT>
5

> <PUBCHEM_ATOM_UDEF_STEREO_COUNT>
0

> <PUBCHEM_BOND_DEF_STEREO_COUNT>
0

> <PUBCHEM_BOND_UDEF_STEREO_COUNT>
0

> <PUBCHEM_ISOTOPIC_ATOM_COUNT>
0

> <PUBCHEM_COMPONENT_COUNT>
1

> <PUBCHEM_CACTVS_TAUTO_COUNT>
1

> <PUBCHEM_COORDINATE_TYPE>
1
5
255

> <PUBCHEM_BONDANNOTATIONS>
9  2  6
3  13  5
4  14  5
5  11  5
7  12  6

$$$$

