   Color/Form

     * Pale yellow scales or powder; pale yellow needles when crystallized
       from ethyl acetate
     * Yellow plates from water + 1/2 mol of water of crystallization;
       yellow crystals from benzene

   from [1]HSDB

   Odor
        Odorless or nearly so
   from [2]HSDB

   Melting Point
        142-150 deg C
   from [3]HSDB

   Dissociation Constants
        pKa = 1.85
   from [4]HSDB

   Octanol/Water Partition Coefficient
        log Kow = 1.03
   from [5]HSDB

   pH
        pH of 0.5% solution: 5.9
   from [6]HSDB

   Solubilities

     * 1 g dissolves in 22 mL water, 220 mL ether, 100 mL benzene; freely
       sol in alcohol or chloroform; practically insoluble in petroleum
       ether
     * SOL IN METHANOL; SLIGHTLY SOL IN CARBON TETRACHLORIDE
     * At 25 deg C, 4.5 g/100 g water

   from [7]HSDB

   Spectral Properties

     * Specific optical rotation: -429 at 17 deg C/D (water, 1.72%); -121
       deg at 17 deg c/d (concentration by volume = 0.9 g in 100 ml
       chloroform); max absorption (95% ethanol): 350.5 nm (log epsilon =
       4.22), 243 nm (log epsilon = 4.47)
     * IR: 17152 (Sadtler Research Laboratories Prism Collection)
     * UV: 5410 (Sadtler Research Laboratories Spectral Collection)
     * MASS: 35758 (NIST/EPA/MSDC Mass Spectral Database, 1990 Version)

   from [8]HSDB

   Vapor Pressure
        3.2X10-11 mm Hg at 25 deg C (est)
   from [9]HSDB

   Other Chemical/Physical Properties

     * Darkens on exposure to light; forms 2 crystalline compounds with
       chloroform.
     * Solutions are levorotatory.
     * Henry's Law constant = 1.8X10-17 atm-cu m/mol at 25 deg C (est)

   from [10]HSDB

   Computed Properties
   Molecular Weight                  399.437 [g/mol]
   Molecular Formula                 C[22]H[25]NO[6]
   XLogP3                            1
   H-Bond Donor                      1
   H-Bond Acceptor                   6
   Rotatable Bond Count              5
   Tautomer Count                    2
   Exact Mass                        399.168188
   MonoIsotopic Mass                 399.168188
   Topological Polar Surface Area    83.1
   Heavy Atom Count                  29
   Formal Charge                     0
   Complexity                        740
   Isotope Atom Count                0
   Defined Atom Stereocenter Count   1
   Undefined Atom Stereocenter Count 0
   Defined Bond Stereocenter Count   0
   Undefined Bond Stereocenter Count 0
   Covalently-Bonded Unit Count      1
   Feature 3D Acceptor Count         6
   Feature 3D Donor Count            1
   Feature 3D Ring Count             3
   Effective Rotor Count             6.6
   Conformer Sampling RMSD           0.8
   CID Conformer Count               [11]21

References

   1. http://toxnet.nlm.nih.gov/cgi-bin/sis/search/r?dbs+hsdb:@term+@rn+@rel+64-86-8
   2. http://toxnet.nlm.nih.gov/cgi-bin/sis/search/r?dbs+hsdb:@term+@rn+@rel+64-86-8
   3. http://toxnet.nlm.nih.gov/cgi-bin/sis/search/r?dbs+hsdb:@term+@rn+@rel+64-86-8
   4. http://toxnet.nlm.nih.gov/cgi-bin/sis/search/r?dbs+hsdb:@term+@rn+@rel+64-86-8
   5. http://toxnet.nlm.nih.gov/cgi-bin/sis/search/r?dbs+hsdb:@term+@rn+@rel+64-86-8
   6. http://toxnet.nlm.nih.gov/cgi-bin/sis/search/r?dbs+hsdb:@term+@rn+@rel+64-86-8
   7. http://toxnet.nlm.nih.gov/cgi-bin/sis/search/r?dbs+hsdb:@term+@rn+@rel+64-86-8
   8. http://toxnet.nlm.nih.gov/cgi-bin/sis/search/r?dbs+hsdb:@term+@rn+@rel+64-86-8
   9. http://toxnet.nlm.nih.gov/cgi-bin/sis/search/r?dbs+hsdb:@term+@rn+@rel+64-86-8
  10. http://toxnet.nlm.nih.gov/cgi-bin/sis/search/r?dbs+hsdb:@term+@rn+@rel+64-86-8
  11. http://pubchem.ncbi.nlm.nih.gov/vw3d/vw3d.cgi?cid=6167
