   Color/Form
        Colorless gas, fumes in air
   from [1]HSDB

   Odor
        ... Strong, irritating odor ...
   from [2]HSDB

   Boiling Point
        19.51 deg C
   from [3]HSDB

   Melting Point
        -83.53 deg C
   from [4]HSDB

   Corrosivity
        Corrosive, dissolves silica, silicic acid, glass
   from [5]HSDB

   Critical Temperature and Pressure
        Critical pressure: 6.48 MPa; critical temperature: 188.0 deg C
   from [6]HSDB

   Density/Specific Gravity
        1.002 at 0 deg C/4 deg C
   from [7]HSDB

   Dissociation Constants
        pKa = 3.19
   from [8]HSDB

   Heat of Vaporization
        7.493 kJ/mol at 101.3 kPa
   from [9]HSDB

   Solubilities

     * Very soluble in water and alcohol, slightly soluble in ether,
       soluble in many organic solvents
     * Solubility (wt% at 5 deg C): 2.54 (benzene); 1.80 (toluene); 1.28
       (m-xylene); 0.27 (tetralin)

   from [10]HSDB

   Spectral Properties
        Index of refraction, liquid: 1.1574 at 25 deg C, 589.3 nm
   from [11]HSDB

   Surface Tension
        Surface tension: 10.2 mN/m at 0 deg C
   from [12]HSDB

   Vapor Density
        1.27 (Air = 1) at 34 deg C
   from [13]HSDB

   Vapor Pressure
        917 mm Hg at 25 deg C
   from [14]HSDB

   Other Chemical/Physical Properties

     * Boiling point: 2.5 deg C at 400 mm Hg; -13.2 deg C at 200 deg C;
       -28.2 deg C at 100 mm Hg; -45.0 deg C at 40 mm Hg; -56.0 deg C at
       20 deg C; -74.7 deg C at 5 mm Hg; anhydrous HF is one of the most
       acidic substances known; Hammett acidity function: -10.98; forms a
       constant boiling mixture with water; dissolves silica, silicic
       acid, glass; should be stored in steel cylinders /Hydrogen
       fluoride/
     * Critical density, 0.29 g/mL; critical compressibility factor 0.117;
       density, liquid: 0.958 g/mL at 25 deg C; heat of fusion: 3.931
       kJ/mol at 83.6 deg C; heat capacity at constant pressure (liquid at
       16 deg C): 50.6 J/(mol K); heat of formation, ideal gas: 272.5
       kJ/mol at 25 deg C; free energy of formation, ideal gas: 274.6
       kJ/mol at 25 deg C entropy, ideal gas: 173.7 J/(mol K) at 25 deg C;
       molar refractivity: 2.13 cu cm; dielectric constant: 83.6 at 0 deg
       C; dipole moment: 6.104X10-30 Cm; thermal conductivity at 25 deg C
       (J/s cm deg C): 4.1X10-3 (liquid); 2.1X10-4 vapor; cryoscopic
       constant (Kf): 1.52 m/kg deg C; ebullioscopic constant (Kb): 1.9
       mol/kg deg C /Hydrogen fluoride/
     * Colorless or almost colorless fuming liquid; miscible with water;
       weak acid,; pKa: 3.19; the 38.2% (w/w) solution is a binary
       azeotrope with a boiling point of 112.2 deg C; attacks glass or
       stoneware, dissolves silica, usually marketed in concentrations of
       approximately 47-53%; density: 1.15-1.18 /Hydrofluoric acid/
     * Miscible with water /Hydrofluoric acid/
     * viscosity, liquid: 0.256 cP at 0 deg C
     * 38.2% (wt/wt hf) soln is binary azeotrope
     * Henry's Law constant: 9.61 mol/L atm (1.04X10-4 cu m atm/mol)
       /Hydrofluoric acid/

   from [15]HSDB

   Computed Properties
   Molecular Weight                  20.006343 [g/mol]
   Molecular Formula                 FH
   XLogP3-AA                         0.6
   H-Bond Donor                      1
   H-Bond Acceptor                   1
   Rotatable Bond Count              0
   Exact Mass                        20.006228
   MonoIsotopic Mass                 20.006228
   Topological Polar Surface Area    0
   Heavy Atom Count                  1
   Formal Charge                     0
   Complexity                        0
   Isotope Atom Count                0
   Defined Atom Stereocenter Count   0
   Undefined Atom Stereocenter Count 0
   Defined Bond Stereocenter Count   0
   Undefined Bond Stereocenter Count 0
   Covalently-Bonded Unit Count      1
   Feature 3D Anion Count            1
   Effective Rotor Count             0
   Conformer Sampling RMSD           0.4
   CID Conformer Count               [16]1

References

   1. http://toxnet.nlm.nih.gov/cgi-bin/sis/search/r?dbs+hsdb:@term+@rn+@rel+7664-39-3
   2. http://toxnet.nlm.nih.gov/cgi-bin/sis/search/r?dbs+hsdb:@term+@rn+@rel+7664-39-3
   3. http://toxnet.nlm.nih.gov/cgi-bin/sis/search/r?dbs+hsdb:@term+@rn+@rel+7664-39-3
   4. http://toxnet.nlm.nih.gov/cgi-bin/sis/search/r?dbs+hsdb:@term+@rn+@rel+7664-39-3
   5. http://toxnet.nlm.nih.gov/cgi-bin/sis/search/r?dbs+hsdb:@term+@rn+@rel+7664-39-3
   6. http://toxnet.nlm.nih.gov/cgi-bin/sis/search/r?dbs+hsdb:@term+@rn+@rel+7664-39-3
   7. http://toxnet.nlm.nih.gov/cgi-bin/sis/search/r?dbs+hsdb:@term+@rn+@rel+7664-39-3
   8. http://toxnet.nlm.nih.gov/cgi-bin/sis/search/r?dbs+hsdb:@term+@rn+@rel+7664-39-3
   9. http://toxnet.nlm.nih.gov/cgi-bin/sis/search/r?dbs+hsdb:@term+@rn+@rel+7664-39-3
  10. http://toxnet.nlm.nih.gov/cgi-bin/sis/search/r?dbs+hsdb:@term+@rn+@rel+7664-39-3
  11. http://toxnet.nlm.nih.gov/cgi-bin/sis/search/r?dbs+hsdb:@term+@rn+@rel+7664-39-3
  12. http://toxnet.nlm.nih.gov/cgi-bin/sis/search/r?dbs+hsdb:@term+@rn+@rel+7664-39-3
  13. http://toxnet.nlm.nih.gov/cgi-bin/sis/search/r?dbs+hsdb:@term+@rn+@rel+7664-39-3
  14. http://toxnet.nlm.nih.gov/cgi-bin/sis/search/r?dbs+hsdb:@term+@rn+@rel+7664-39-3
  15. http://toxnet.nlm.nih.gov/cgi-bin/sis/search/r?dbs+hsdb:@term+@rn+@rel+7664-39-3
  16. http://pubchem.ncbi.nlm.nih.gov/vw3d/vw3d.cgi?cid=14917
