854148
  -OEChem-06241222472D

 25 26  0     1  0  0  0  0  0999 V2000
    2.0000    1.6806    0.0000 O   0  0  0  0  0  0  0  0  0  0  0  0
    5.5202    1.6806    0.0000 O   0  0  0  0  0  0  0  0  0  0  0  0
    3.7601    1.9594    0.0000 N   0  0  0  0  0  0  0  0  0  0  0  0
    3.2601    0.4206    0.0000 C   0  0  1  0  0  0  0  0  0  0  0  0
    4.2601    0.4206    0.0000 C   0  0  0  0  0  0  0  0  0  0  0  0
    3.2601   -0.5794    0.0000 C   0  0  0  0  0  0  0  0  0  0  0  0
    2.9511    1.3716    0.0000 C   0  0  0  0  0  0  0  0  0  0  0  0
    2.3090    0.1116    0.0000 C   0  0  0  0  0  0  0  0  0  0  0  0
    4.5691    1.3716    0.0000 C   0  0  0  0  0  0  0  0  0  0  0  0
    2.3940   -1.0794    0.0000 C   0  0  0  0  0  0  0  0  0  0  0  0
    4.1261   -1.0794    0.0000 C   0  0  0  0  0  0  0  0  0  0  0  0
    2.3940   -2.0794    0.0000 C   0  0  0  0  0  0  0  0  0  0  0  0
    4.1261   -2.0794    0.0000 C   0  0  0  0  0  0  0  0  0  0  0  0
    3.2601   -2.5794    0.0000 C   0  0  0  0  0  0  0  0  0  0  0  0
    4.1953   -0.1960    0.0000 H   0  0  0  0  0  0  0  0  0  0  0  0
    4.8665    0.2917    0.0000 H   0  0  0  0  0  0  0  0  0  0  0  0
    2.1174    0.7012    0.0000 H   0  0  0  0  0  0  0  0  0  0  0  0
    1.7194   -0.0800    0.0000 H   0  0  0  0  0  0  0  0  0  0  0  0
    2.5006   -0.4781    0.0000 H   0  0  0  0  0  0  0  0  0  0  0  0
    3.7601    2.5794    0.0000 H   0  0  0  0  0  0  0  0  0  0  0  0
    1.8571   -0.7694    0.0000 H   0  0  0  0  0  0  0  0  0  0  0  0
    4.6630   -0.7694    0.0000 H   0  0  0  0  0  0  0  0  0  0  0  0
    1.8571   -2.3894    0.0000 H   0  0  0  0  0  0  0  0  0  0  0  0
    4.6630   -2.3894    0.0000 H   0  0  0  0  0  0  0  0  0  0  0  0
    3.2601   -3.1994    0.0000 H   0  0  0  0  0  0  0  0  0  0  0  0
  1  7  2  0  0  0  0
  2  9  2  0  0  0  0
  3  7  1  0  0  0  0
  3  9  1  0  0  0  0
  3 20  1  0  0  0  0
  4  5  1  0  0  0  0
  4  6  1  0  0  0  0
  4  7  1  0  0  0  0
  4  8  1  6  0  0  0
  5  9  1  0  0  0  0
  5 15  1  0  0  0  0
  5 16  1  0  0  0  0
  6 10  2  0  0  0  0
  6 11  1  0  0  0  0
  8 17  1  0  0  0  0
  8 18  1  0  0  0  0
  8 19  1  0  0  0  0
 10 12  1  0  0  0  0
 10 21  1  0  0  0  0
 11 13  2  0  0  0  0
 11 22  1  0  0  0  0
 12 14  2  0  0  0  0
 12 23  1  0  0  0  0
 13 14  1  0  0  0  0
 13 24  1  0  0  0  0
 14 25  1  0  0  0  0
M  END
> <PUBCHEM_COMPOUND_CID>
854148

> <PUBCHEM_COMPOUND_CANONICALIZED>
1

> <PUBCHEM_CACTVS_COMPLEXITY>
269

> <PUBCHEM_CACTVS_HBOND_ACCEPTOR>
2

> <PUBCHEM_CACTVS_HBOND_DONOR>
1

> <PUBCHEM_CACTVS_ROTATABLE_BOND>
1

> <PUBCHEM_CACTVS_SUBSKEYS>
AAADccByMAAAAAAAAAAAAAAAAAAAAWAAAAAwAAAAAAAAAAABAAAAHgAQAAAADgCBmAAyAILAAACIAiFSEAACAAAgAAAIiAEAAIgIIDKAlRGEIAAglCCIiAcdiMCPgAAAAAAAAAAAAAAAAAAAAAAAAAAAAA==

> <PUBCHEM_IUPAC_OPENEYE_NAME>
(3S)-3-methyl-3-phenyl-pyrrolidine-2,5-dione

> <PUBCHEM_IUPAC_CAS_NAME>
(3S)-3-methyl-3-phenylpyrrolidine-2,5-dione

> <PUBCHEM_IUPAC_NAME>
(3S)-3-methyl-3-phenylpyrrolidine-2,5-dione

> <PUBCHEM_IUPAC_SYSTEMATIC_NAME>
(3S)-3-methyl-3-phenyl-pyrrolidine-2,5-dione

> <PUBCHEM_IUPAC_TRADITIONAL_NAME>
(3S)-3-methyl-3-phenyl-pyrrolidine-2,5-quinone

> <PUBCHEM_IUPAC_INCHI>
InChI=1S/C11H11NO2/c1-11(7-9(13)12-10(11)14)8-5-3-2-4-6-8/h2-6H,7H2,1H3,(H,12,13,14)/t11-/m0/s1

> <PUBCHEM_IUPAC_INCHIKEY>
UDESUGJZUFALAM-NSHDSACASA-N

> <PUBCHEM_XLOGP3_AA>
1

> <PUBCHEM_EXACT_MASS>
189.078979

> <PUBCHEM_MOLECULAR_FORMULA>
C11H11NO2

> <PUBCHEM_MOLECULAR_WEIGHT>
189.21054

> <PUBCHEM_OPENEYE_CAN_SMILES>
CC1(CC(=O)NC1=O)C2=CC=CC=C2

> <PUBCHEM_OPENEYE_ISO_SMILES>
C[C@]1(CC(=O)NC1=O)C2=CC=CC=C2

> <PUBCHEM_CACTVS_TPSA>
46.2

> <PUBCHEM_MONOISOTOPIC_WEIGHT>
189.078979

> <PUBCHEM_TOTAL_CHARGE>
0

> <PUBCHEM_HEAVY_ATOM_COUNT>
14

> <PUBCHEM_ATOM_DEF_STEREO_COUNT>
1

> <PUBCHEM_ATOM_UDEF_STEREO_COUNT>
0

> <PUBCHEM_BOND_DEF_STEREO_COUNT>
0

> <PUBCHEM_BOND_UDEF_STEREO_COUNT>
0

> <PUBCHEM_ISOTOPIC_ATOM_COUNT>
0

> <PUBCHEM_COMPONENT_COUNT>
1

> <PUBCHEM_CACTVS_TAUTO_COUNT>
5

> <PUBCHEM_COORDINATE_TYPE>
1
5
255

> <PUBCHEM_BONDANNOTATIONS>
10  12  8
11  13  8
12  14  8
13  14  8
4  8  6
6  10  8
6  11  8

$$$$

