   Color/Form
        Colorless crystals
   from [1]HSDB

   Odor
        Odorless
   from [2]HSDB

   Boiling Point
        175-177 deg C at 0.1 mm Hg
   from [3]HSDB

   Melting Point
        39-41 deg C
   from [4]HSDB

   Corrosivity
        Non-corrosive
   from [5]HSDB

   Solubilities
        In water at 22 deg C, 3 mg/l. Readily soluble in common organic
   solvents, eg, acetone 2490, diethyl ether 2280, xylene 2530, ethanol
   110, light petroleum (BP 60-95 deg C) 60 (all in g/l at 20 deg C).
   from [6]HSDB

   Vapor Pressure
        0.034 mPa at 20 deg C
   from [7]HSDB

   Computed Properties
   Molecular Weight                  341.18596 [g/mol]
   Molecular Formula                 C[16]H[14]Cl[2]O[4]
   XLogP3                            4.8
   H-Bond Donor                      0
   H-Bond Acceptor                   4
   Rotatable Bond Count              6
   Exact Mass                        340.026914
   MonoIsotopic Mass                 340.026914
   Topological Polar Surface Area    44.8
   Heavy Atom Count                  22
   Formal Charge                     0
   Complexity                        358
   Isotope Atom Count                0
   Defined Atom Stereocenter Count   0
   Undefined Atom Stereocenter Count 1
   Defined Bond Stereocenter Count   0
   Undefined Bond Stereocenter Count 0
   Covalently-Bonded Unit Count      1
   Feature 3D Acceptor Count         3
   Feature 3D Ring Count             2
   Effective Rotor Count             6
   Conformer Sampling RMSD           0.8
   CID Conformer Count               [8]193

References

   1. http://toxnet.nlm.nih.gov/cgi-bin/sis/search/r?dbs+hsdb:@term+@rn+@rel+51338-27-3
   2. http://toxnet.nlm.nih.gov/cgi-bin/sis/search/r?dbs+hsdb:@term+@rn+@rel+51338-27-3
   3. http://toxnet.nlm.nih.gov/cgi-bin/sis/search/r?dbs+hsdb:@term+@rn+@rel+51338-27-3
   4. http://toxnet.nlm.nih.gov/cgi-bin/sis/search/r?dbs+hsdb:@term+@rn+@rel+51338-27-3
   5. http://toxnet.nlm.nih.gov/cgi-bin/sis/search/r?dbs+hsdb:@term+@rn+@rel+51338-27-3
   6. http://toxnet.nlm.nih.gov/cgi-bin/sis/search/r?dbs+hsdb:@term+@rn+@rel+51338-27-3
   7. http://toxnet.nlm.nih.gov/cgi-bin/sis/search/r?dbs+hsdb:@term+@rn+@rel+51338-27-3
   8. http://pubchem.ncbi.nlm.nih.gov/vw3d/vw3d.cgi?cid=39985
