51720
  -OEChem-07051213112D

 21 23  0     0  0  0  0  0  0999 V2000
    6.3697   -1.6355    0.0000 Cl  0  0  0  0  0  0  0  0  0  0  0  0
    4.6397   -1.6355    0.0000 Cl  0  0  0  0  0  0  0  0  0  0  0  0
    2.6330   -1.2251    0.0000 Cl  0  0  0  0  0  0  0  0  0  0  0  0
    8.3764   -1.2251    0.0000 Cl  0  0  0  0  0  0  0  0  0  0  0  0
    9.0094    0.7230    0.0000 Cl  0  0  0  0  0  0  0  0  0  0  0  0
    2.0000    0.7230    0.0000 Cl  0  0  0  0  0  0  0  0  0  0  0  0
    5.5047    1.6355    0.0000 O   0  0  0  0  0  0  0  0  0  0  0  0
    6.0047    0.0967    0.0000 C   0  0  0  0  0  0  0  0  0  0  0  0
    5.0047    0.0967    0.0000 C   0  0  0  0  0  0  0  0  0  0  0  0
    6.3137    1.0477    0.0000 C   0  0  0  0  0  0  0  0  0  0  0  0
    4.6957    1.0477    0.0000 C   0  0  0  0  0  0  0  0  0  0  0  0
    6.6897   -0.6881    0.0000 C   0  0  0  0  0  0  0  0  0  0  0  0
    4.3197   -0.6881    0.0000 C   0  0  0  0  0  0  0  0  0  0  0  0
    3.6803    1.2800    0.0000 C   0  0  0  0  0  0  0  0  0  0  0  0
    7.3291    1.2800    0.0000 C   0  0  0  0  0  0  0  0  0  0  0  0
    7.7102   -0.4794    0.0000 C   0  0  0  0  0  0  0  0  0  0  0  0
    3.2992   -0.4794    0.0000 C   0  0  0  0  0  0  0  0  0  0  0  0
    8.0321    0.5113    0.0000 C   0  0  0  0  0  0  0  0  0  0  0  0
    2.9773    0.5113    0.0000 C   0  0  0  0  0  0  0  0  0  0  0  0
    7.5139    1.8718    0.0000 H   0  0  0  0  0  0  0  0  0  0  0  0
    3.4955    1.8718    0.0000 H   0  0  0  0  0  0  0  0  0  0  0  0
  1 12  1  0  0  0  0
  2 13  1  0  0  0  0
  3 17  1  0  0  0  0
  4 16  1  0  0  0  0
  5 18  1  0  0  0  0
  6 19  1  0  0  0  0
  7 10  1  0  0  0  0
  7 11  1  0  0  0  0
  8  9  1  0  0  0  0
  8 10  1  0  0  0  0
  8 12  2  0  0  0  0
  9 11  1  0  0  0  0
  9 13  2  0  0  0  0
 10 15  2  0  0  0  0
 11 14  2  0  0  0  0
 12 16  1  0  0  0  0
 13 17  1  0  0  0  0
 14 19  1  0  0  0  0
 14 21  1  0  0  0  0
 15 18  1  0  0  0  0
 15 20  1  0  0  0  0
 16 18  2  0  0  0  0
 17 19  2  0  0  0  0
M  END
> <PUBCHEM_COMPOUND_CID>
51720

> <PUBCHEM_COMPOUND_CANONICALIZED>
1

> <PUBCHEM_CACTVS_COMPLEXITY>
323

> <PUBCHEM_CACTVS_HBOND_ACCEPTOR>
1

> <PUBCHEM_CACTVS_HBOND_DONOR>
0

> <PUBCHEM_CACTVS_ROTATABLE_BOND>
0

> <PUBCHEM_CACTVS_SUBSKEYS>
AAADcQBwIAAHAAAAAAAAAAAAAAAAASAAAAAwYAAAAAAAAEgB/AAAGgIAAAAADAaAmCAwBsAABECIAqBSAAACCAAkJQAAikEGCsgMJjKFNhqCOSCkwBEIrQeIyOCOhCAAIQCJAAQIQABCARIACAAAAAAAAA==

> <PUBCHEM_IUPAC_OPENEYE_NAME>
1,2,3,7,8,9-hexachlorodibenzofuran

> <PUBCHEM_IUPAC_CAS_NAME>
1,2,3,7,8,9-hexachlorodibenzofuran

> <PUBCHEM_IUPAC_NAME>
1,2,3,7,8,9-hexachlorodibenzofuran

> <PUBCHEM_IUPAC_SYSTEMATIC_NAME>
1,2,3,7,8,9-hexakis(chloranyl)dibenzofuran

> <PUBCHEM_IUPAC_TRADITIONAL_NAME>
1,2,3,7,8,9-hexachlorodibenzofuran

> <PUBCHEM_IUPAC_INCHI>
InChI=1S/C12H2Cl6O/c13-3-1-5-7(11(17)9(3)15)8-6(19-5)2-4(14)10(16)12(8)18/h1-2H

> <PUBCHEM_IUPAC_INCHIKEY>
PYUSJFJVDVSXIU-UHFFFAOYSA-N

> <PUBCHEM_XLOGP3_AA>
7.4

> <PUBCHEM_EXACT_MASS>
373.820731

> <PUBCHEM_MOLECULAR_FORMULA>
C12H2Cl6O

> <PUBCHEM_MOLECULAR_WEIGHT>
374.86168

> <PUBCHEM_OPENEYE_CAN_SMILES>
C1=C2C(=C(C(=C1Cl)Cl)Cl)C3=C(C(=C(C=C3O2)Cl)Cl)Cl

> <PUBCHEM_OPENEYE_ISO_SMILES>
C1=C2C(=C(C(=C1Cl)Cl)Cl)C3=C(C(=C(C=C3O2)Cl)Cl)Cl

> <PUBCHEM_CACTVS_TPSA>
13.1

> <PUBCHEM_MONOISOTOPIC_WEIGHT>
371.823681

> <PUBCHEM_TOTAL_CHARGE>
0

> <PUBCHEM_HEAVY_ATOM_COUNT>
19

> <PUBCHEM_ATOM_DEF_STEREO_COUNT>
0

> <PUBCHEM_ATOM_UDEF_STEREO_COUNT>
0

> <PUBCHEM_BOND_DEF_STEREO_COUNT>
0

> <PUBCHEM_BOND_UDEF_STEREO_COUNT>
0

> <PUBCHEM_ISOTOPIC_ATOM_COUNT>
0

> <PUBCHEM_COMPONENT_COUNT>
1

> <PUBCHEM_CACTVS_TAUTO_COUNT>
1

> <PUBCHEM_COORDINATE_TYPE>
1
5
255

> <PUBCHEM_BONDANNOTATIONS>
10  15  8
11  14  8
12  16  8
13  17  8
14  19  8
15  18  8
16  18  8
17  19  8
7  10  8
7  11  8
8  10  8
8  12  8
8  9  8
9  11  8
9  13  8

$$$$

