65217
  -OEChem-07051213012D

 44 46  0     0  0  0  0  0  0999 V2000
    3.8147    0.0000    0.0000 Cl  0  5  0  0  0  0  0  0  0  0  0  0
    4.0682    3.1905    0.0000 O   0  0  0  0  0  0  0  0  0  0  0  0
    6.2611    7.8038    0.0000 O   0  0  0  0  0  0  0  0  0  0  0  0
    6.5619    6.0981    0.0000 O   0  0  0  0  0  0  0  0  0  0  0  0
    7.5984    3.1664    0.0000 N   0  3  0  0  0  0  0  0  0  0  0  0
    0.5381    3.1664    0.0000 N   0  0  0  0  0  0  0  0  0  0  0  0
    4.0682    5.1905    0.0000 C   0  0  0  0  0  0  0  0  0  0  0  0
    4.9343    4.6905    0.0000 C   0  0  0  0  0  0  0  0  0  0  0  0
    3.2022    4.6905    0.0000 C   0  0  0  0  0  0  0  0  0  0  0  0
    4.0682    6.1905    0.0000 C   0  0  0  0  0  0  0  0  0  0  0  0
    4.9343    3.6905    0.0000 C   0  0  0  0  0  0  0  0  0  0  0  0
    3.2022    3.6905    0.0000 C   0  0  0  0  0  0  0  0  0  0  0  0
    5.8282    5.2252    0.0000 C   0  0  0  0  0  0  0  0  0  0  0  0
    2.3083    5.2252    0.0000 C   0  0  0  0  0  0  0  0  0  0  0  0
    4.9343    6.6905    0.0000 C   0  0  0  0  0  0  0  0  0  0  0  0
    5.8282    3.1558    0.0000 C   0  0  0  0  0  0  0  0  0  0  0  0
    2.3083    3.1558    0.0000 C   0  0  0  0  0  0  0  0  0  0  0  0
    3.2022    6.6905    0.0000 C   0  0  0  0  0  0  0  0  0  0  0  0
    6.7343    3.6697    0.0000 C   0  0  0  0  0  0  0  0  0  0  0  0
    1.4022    3.6697    0.0000 C   0  0  0  0  0  0  0  0  0  0  0  0
    6.7343    4.7113    0.0000 C   0  0  0  0  0  0  0  0  0  0  0  0
    1.4022    4.7113    0.0000 C   0  0  0  0  0  0  0  0  0  0  0  0
    4.9343    7.6905    0.0000 C   0  0  0  0  0  0  0  0  0  0  0  0
    3.2022    7.6905    0.0000 C   0  0  0  0  0  0  0  0  0  0  0  0
    4.0682    8.1905    0.0000 C   0  0  0  0  0  0  0  0  0  0  0  0
    5.9191    6.8642    0.0000 C   0  0  0  0  0  0  0  0  0  0  0  0
    5.6183    8.5699    0.0000 C   0  0  0  0  0  0  0  0  0  0  0  0
    5.8210    5.8451    0.0000 H   0  0  0  0  0  0  0  0  0  0  0  0
    2.3154    5.8451    0.0000 H   0  0  0  0  0  0  0  0  0  0  0  0
    5.8210    2.5359    0.0000 H   0  0  0  0  0  0  0  0  0  0  0  0
    2.3154    2.5359    0.0000 H   0  0  0  0  0  0  0  0  0  0  0  0
    2.6653    6.3805    0.0000 H   0  0  0  0  0  0  0  0  0  0  0  0
    7.2700    5.0234    0.0000 H   0  0  0  0  0  0  0  0  0  0  0  0
    0.8665    5.0234    0.0000 H   0  0  0  0  0  0  0  0  0  0  0  0
    5.4712    8.0005    0.0000 H   0  0  0  0  0  0  0  0  0  0  0  0
    2.6653    8.0005    0.0000 H   0  0  0  0  0  0  0  0  0  0  0  0
    4.0682    8.8105    0.0000 H   0  0  0  0  0  0  0  0  0  0  0  0
    8.1365    3.4743    0.0000 H   0  0  0  0  0  0  0  0  0  0  0  0
    7.5960    2.5464    0.0000 H   0  0  0  0  0  0  0  0  0  0  0  0
    0.0000    3.4743    0.0000 H   0  0  0  0  0  0  0  0  0  0  0  0
    0.5405    2.5464    0.0000 H   0  0  0  0  0  0  0  0  0  0  0  0
    6.0933    8.9684    0.0000 H   0  0  0  0  0  0  0  0  0  0  0  0
    5.2198    9.0448    0.0000 H   0  0  0  0  0  0  0  0  0  0  0  0
    5.1434    8.1714    0.0000 H   0  0  0  0  0  0  0  0  0  0  0  0
  2 11  1  0  0  0  0
  2 12  1  0  0  0  0
  3 26  1  0  0  0  0
  3 27  1  0  0  0  0
  4 26  2  0  0  0  0
  5 19  2  0  0  0  0
  5 38  1  0  0  0  0
  5 39  1  0  0  0  0
  6 20  1  0  0  0  0
  6 40  1  0  0  0  0
  6 41  1  0  0  0  0
  7  8  2  0  0  0  0
  7  9  1  0  0  0  0
  7 10  1  0  0  0  0
  8 11  1  0  0  0  0
  8 13  1  0  0  0  0
  9 12  2  0  0  0  0
  9 14  1  0  0  0  0
 10 15  1  0  0  0  0
 10 18  2  0  0  0  0
 11 16  2  0  0  0  0
 12 17  1  0  0  0  0
 13 21  2  0  0  0  0
 13 28  1  0  0  0  0
 14 22  2  0  0  0  0
 14 29  1  0  0  0  0
 15 23  2  0  0  0  0
 15 26  1  0  0  0  0
 16 19  1  0  0  0  0
 16 30  1  0  0  0  0
 17 20  2  0  0  0  0
 17 31  1  0  0  0  0
 18 24  1  0  0  0  0
 18 32  1  0  0  0  0
 19 21  1  0  0  0  0
 20 22  1  0  0  0  0
 21 33  1  0  0  0  0
 22 34  1  0  0  0  0
 23 25  1  0  0  0  0
 23 35  1  0  0  0  0
 24 25  2  0  0  0  0
 24 36  1  0  0  0  0
 25 37  1  0  0  0  0
 27 42  1  0  0  0  0
 27 43  1  0  0  0  0
 27 44  1  0  0  0  0
M  CHG  2   1  -1   5   1
M  END
> <PUBCHEM_COMPOUND_CID>
65217

> <PUBCHEM_COMPOUND_CANONICALIZED>
1

> <PUBCHEM_CACTVS_COMPLEXITY>
670

> <PUBCHEM_CACTVS_HBOND_ACCEPTOR>
5

> <PUBCHEM_CACTVS_HBOND_DONOR>
2

> <PUBCHEM_CACTVS_ROTATABLE_BOND>
3

> <PUBCHEM_CACTVS_SUBSKEYS>
AAADceB7MAAEAAAAAAAAAAAAAAAAAAAAAAAwYIEAAAAAAACBQAAAHgAQAAAADAyBmAIyzoBABACoAyTySACCCAAkIgAIiAEWbNgMJjKEtZuCOSDm0BkI6YeY2PGOiAAAAgAYAAAQAAAEADAAAAAAAAAAAA==

> <PUBCHEM_IUPAC_OPENEYE_NAME>
[6-amino-9-(2-methoxycarbonylphenyl)xanthen-3-ylidene]ammonium chloride

> <PUBCHEM_IUPAC_CAS_NAME>
[6-amino-9-(2-methoxycarbonylphenyl)-3-xanthenylidene]ammonium chloride

> <PUBCHEM_IUPAC_NAME>
[6-amino-9-(2-methoxycarbonylphenyl)xanthen-3-ylidene]azanium chloride

> <PUBCHEM_IUPAC_SYSTEMATIC_NAME>
[6-azanyl-9-(2-methoxycarbonylphenyl)xanthen-3-ylidene]azanium chloride

> <PUBCHEM_IUPAC_TRADITIONAL_NAME>
[6-amino-9-(2-carbomethoxyphenyl)xanthen-3-ylidene]ammonium chloride

> <PUBCHEM_IUPAC_INCHI>
InChI=1S/C21H16N2O3.ClH/c1-25-21(24)15-5-3-2-4-14(15)20-16-8-6-12(22)10-18(16)26-19-11-13(23)7-9-17(19)20;/h2-11,22H,23H2,1H3;1H

> <PUBCHEM_IUPAC_INCHIKEY>
MYFATKRONKHHQL-UHFFFAOYSA-N

> <PUBCHEM_EXACT_MASS>
380.09277

> <PUBCHEM_MOLECULAR_FORMULA>
C21H17ClN2O3

> <PUBCHEM_MOLECULAR_WEIGHT>
380.82428

> <PUBCHEM_OPENEYE_CAN_SMILES>
COC(=O)C1=CC=CC=C1C2=C3C=CC(=[NH2+])C=C3OC4=C2C=CC(=C4)N.[Cl-]

> <PUBCHEM_OPENEYE_ISO_SMILES>
COC(=O)C1=CC=CC=C1C2=C3C=CC(=[NH2+])C=C3OC4=C2C=CC(=C4)N.[Cl-]

> <PUBCHEM_CACTVS_TPSA>
87.1

> <PUBCHEM_MONOISOTOPIC_WEIGHT>
380.09277

> <PUBCHEM_TOTAL_CHARGE>
0

> <PUBCHEM_HEAVY_ATOM_COUNT>
27

> <PUBCHEM_ATOM_DEF_STEREO_COUNT>
0

> <PUBCHEM_ATOM_UDEF_STEREO_COUNT>
0

> <PUBCHEM_BOND_DEF_STEREO_COUNT>
0

> <PUBCHEM_BOND_UDEF_STEREO_COUNT>
0

> <PUBCHEM_ISOTOPIC_ATOM_COUNT>
0

> <PUBCHEM_COMPONENT_COUNT>
2

> <PUBCHEM_CACTVS_TAUTO_COUNT>
2

> <PUBCHEM_COORDINATE_TYPE>
1
5
255

> <PUBCHEM_BONDANNOTATIONS>
10  15  8
10  18  8
11  16  8
12  17  8
13  21  8
14  22  8
15  23  8
16  19  8
17  20  8
18  24  8
19  21  8
2  11  8
2  12  8
20  22  8
23  25  8
24  25  8
7  8  8
7  9  8
8  13  8
9  12  8
9  14  8

$$$$

