   Color/Form

     * Colorless liquid
     * Orthorhombic crystals
     * Colorless liquid or crystalline solid (below 63 degrees F).

   from [1]HSDB

   Odor
        Aromatic odor
   from [2]HSDB

   Boiling Point
        213.5 deg C
   from [3]HSDB

   Melting Point
        16.92 deg C
   from [4]HSDB

   Critical Temperature and Pressure
        Critical temperature: 453.3 deg C; critical pressure: 3718 kPa
   from [5]HSDB

   Density/Specific Gravity
        1.459 g cu cm at 20 deg C/4 deg C
   from [6]HSDB

   Heat of Vaporization
        280 J/g
   from [7]HSDB

   Octanol/Water Partition Coefficient
        log Kow = 4.02
   from [8]HSDB

   Solubilities

     * Sparingly soluble in alcohol. Miscible with ether, benzene,
       petroleum ether, carbon disulfide
     * In water, 49.0 mg/L at 25 deg C

   from [9]HSDB

   Spectral Properties

     * Index of refraction: 1.5717 at 20 deg C/D
     * MASS: 27871 (NIST/EPA/MSDC) Mass Spectral database, 1990 version);
       1221 (Atlas of Mass Spectral Data, John Wiley & Sons, New York)
     * IR: 4783 (Coblentz Society Spectral Collection)
     * UV: 1277 (Sadtler Research Laboratories Spectral Collection)
     * 1H NMR: 221 (Sadtler Research Laboratories Spectral Collection)
     * Raman: 90 (Dollish et al., Characteristic Raman Frequencis of
       Organic Compounds, John Wiley & Sons, New York)
     * Intense mass spectral peaks: 180 m/z (100%), 182 m/z (96%), 184 m/z
       (30%), 145 m/z (30%)

   from [10]HSDB

   Vapor Density
        6.26 (Air= 1)
   from [11]HSDB

   Vapor Pressure
        0.46 mm Hg at 25 deg C
   from [12]HSDB

   Other Chemical/Physical Properties

     * Enthalpy of fusion: 16.4 kJ/mol
     * Standard heat of formation of liquid: -263.1 J/g
     * Liquid density: 1.44829 kg/L
     * Critical density: 0.447 kg/L
     * Henry's Law constant = 1.42X10-3 atm-cu m/mol at 25 deg C
     * Hydroxyl radical reaction rate constant = 5.50X10-13 cu
       cm/molec-sec at 25 deg C

   from [13]HSDB

   Computed Properties
   Molecular Weight                  181.44702 [g/mol]
   Molecular Formula                 C[6]H[3]Cl[3]
   XLogP3                            4
   H-Bond Donor                      0
   H-Bond Acceptor                   0
   Rotatable Bond Count              0
   Exact Mass                        179.930033
   MonoIsotopic Mass                 179.930033
   Topological Polar Surface Area    0
   Heavy Atom Count                  9
   Formal Charge                     0
   Complexity                        94.3
   Isotope Atom Count                0
   Defined Atom Stereocenter Count   0
   Undefined Atom Stereocenter Count 0
   Defined Bond Stereocenter Count   0
   Undefined Bond Stereocenter Count 0
   Covalently-Bonded Unit Count      1
   Feature 3D Ring Count             1
   Effective Rotor Count             0
   Conformer Sampling RMSD           0.4
   CID Conformer Count               [14]1

References

   1. http://toxnet.nlm.nih.gov/cgi-bin/sis/search/r?dbs+hsdb:@term+@rn+@rel+120-82-1
   2. http://toxnet.nlm.nih.gov/cgi-bin/sis/search/r?dbs+hsdb:@term+@rn+@rel+120-82-1
   3. http://toxnet.nlm.nih.gov/cgi-bin/sis/search/r?dbs+hsdb:@term+@rn+@rel+120-82-1
   4. http://toxnet.nlm.nih.gov/cgi-bin/sis/search/r?dbs+hsdb:@term+@rn+@rel+120-82-1
   5. http://toxnet.nlm.nih.gov/cgi-bin/sis/search/r?dbs+hsdb:@term+@rn+@rel+120-82-1
   6. http://toxnet.nlm.nih.gov/cgi-bin/sis/search/r?dbs+hsdb:@term+@rn+@rel+120-82-1
   7. http://toxnet.nlm.nih.gov/cgi-bin/sis/search/r?dbs+hsdb:@term+@rn+@rel+120-82-1
   8. http://toxnet.nlm.nih.gov/cgi-bin/sis/search/r?dbs+hsdb:@term+@rn+@rel+120-82-1
   9. http://toxnet.nlm.nih.gov/cgi-bin/sis/search/r?dbs+hsdb:@term+@rn+@rel+120-82-1
  10. http://toxnet.nlm.nih.gov/cgi-bin/sis/search/r?dbs+hsdb:@term+@rn+@rel+120-82-1
  11. http://toxnet.nlm.nih.gov/cgi-bin/sis/search/r?dbs+hsdb:@term+@rn+@rel+120-82-1
  12. http://toxnet.nlm.nih.gov/cgi-bin/sis/search/r?dbs+hsdb:@term+@rn+@rel+120-82-1
  13. http://toxnet.nlm.nih.gov/cgi-bin/sis/search/r?dbs+hsdb:@term+@rn+@rel+120-82-1
  14. http://pubchem.ncbi.nlm.nih.gov/vw3d/vw3d.cgi?cid=13
