17395429
  -OEChem-06241222502D

 43 45  0     0  0  0  0  0  0999 V2000
    4.0981    3.3455    0.0000 S   0  0  0  0  0  0  0  0  0  0  0  0
    6.9949    5.1056    0.0000 S   0  0  0  0  0  0  0  0  0  0  0  0
    2.8660    0.8066    0.0000 O   0  0  0  0  0  0  0  0  0  0  0  0
    3.7320   -0.6934    0.0000 N   0  0  0  0  0  0  0  0  0  0  0  0
    2.8660   -5.1934    0.0000 N   0  0  0  0  0  0  0  0  0  0  0  0
    5.4071    2.3944    0.0000 N   0  0  0  0  0  0  0  0  0  0  0  0
    2.8660   -2.1934    0.0000 C   0  0  0  0  0  0  0  0  0  0  0  0
    2.8660   -1.1934    0.0000 C   0  0  0  0  0  0  0  0  0  0  0  0
    2.8660   -4.1934    0.0000 C   0  0  0  0  0  0  0  0  0  0  0  0
    2.0000   -2.6934    0.0000 C   0  0  0  0  0  0  0  0  0  0  0  0
    3.7320   -2.6934    0.0000 C   0  0  0  0  0  0  0  0  0  0  0  0
    4.5981    0.8066    0.0000 C   0  0  0  0  0  0  0  0  0  0  0  0
    2.0000   -3.6934    0.0000 C   0  0  0  0  0  0  0  0  0  0  0  0
    3.7320   -3.6934    0.0000 C   0  0  0  0  0  0  0  0  0  0  0  0
    3.7320    0.3066    0.0000 C   0  0  0  0  0  0  0  0  0  0  0  0
    4.5981    1.8066    0.0000 C   0  0  0  0  0  0  0  0  0  0  0  0
    5.0981    3.3455    0.0000 C   0  0  0  0  0  0  0  0  0  0  0  0
    2.0000   -5.6934    0.0000 C   0  0  0  0  0  0  0  0  0  0  0  0
    3.7320   -5.6934    0.0000 C   0  0  0  0  0  0  0  0  0  0  0  0
    3.7891    2.3944    0.0000 C   0  0  0  0  0  0  0  0  0  0  0  0
    5.6859    4.1545    0.0000 C   0  0  0  0  0  0  0  0  0  0  0  0
    5.3768    5.1056    0.0000 C   0  0  0  0  0  0  0  0  0  0  0  0
    6.6859    4.1545    0.0000 C   0  0  0  0  0  0  0  0  0  0  0  0
    6.1859    5.6934    0.0000 C   0  0  0  0  0  0  0  0  0  0  0  0
    2.6540   -0.6107    0.0000 H   0  0  0  0  0  0  0  0  0  0  0  0
    2.2554   -1.3010    0.0000 H   0  0  0  0  0  0  0  0  0  0  0  0
    1.4631   -2.3834    0.0000 H   0  0  0  0  0  0  0  0  0  0  0  0
    4.2690   -2.3834    0.0000 H   0  0  0  0  0  0  0  0  0  0  0  0
    4.8101    0.2240    0.0000 H   0  0  0  0  0  0  0  0  0  0  0  0
    5.2087    0.9143    0.0000 H   0  0  0  0  0  0  0  0  0  0  0  0
    4.2690   -1.0034    0.0000 H   0  0  0  0  0  0  0  0  0  0  0  0
    1.4631   -4.0034    0.0000 H   0  0  0  0  0  0  0  0  0  0  0  0
    4.2690   -4.0034    0.0000 H   0  0  0  0  0  0  0  0  0  0  0  0
    1.6900   -5.1564    0.0000 H   0  0  0  0  0  0  0  0  0  0  0  0
    3.4220   -6.2303    0.0000 H   0  0  0  0  0  0  0  0  0  0  0  0
    4.2690   -6.0034    0.0000 H   0  0  0  0  0  0  0  0  0  0  0  0
    4.0420   -5.1564    0.0000 H   0  0  0  0  0  0  0  0  0  0  0  0
    1.4631   -6.0034    0.0000 H   0  0  0  0  0  0  0  0  0  0  0  0
    2.3100   -6.2303    0.0000 H   0  0  0  0  0  0  0  0  0  0  0  0
    3.1994    2.2028    0.0000 H   0  0  0  0  0  0  0  0  0  0  0  0
    4.7872    5.2972    0.0000 H   0  0  0  0  0  0  0  0  0  0  0  0
    7.0503    3.6529    0.0000 H   0  0  0  0  0  0  0  0  0  0  0  0
    6.1859    6.3134    0.0000 H   0  0  0  0  0  0  0  0  0  0  0  0
  1 17  1  0  0  0  0
  1 20  1  0  0  0  0
  2 23  1  0  0  0  0
  2 24  1  0  0  0  0
  3 15  2  0  0  0  0
  4  8  1  0  0  0  0
  4 15  1  0  0  0  0
  4 31  1  0  0  0  0
  5  9  1  0  0  0  0
  5 18  1  0  0  0  0
  5 19  1  0  0  0  0
  6 16  1  0  0  0  0
  6 17  2  0  0  0  0
  7  8  1  0  0  0  0
  7 10  2  0  0  0  0
  7 11  1  0  0  0  0
  8 25  1  0  0  0  0
  8 26  1  0  0  0  0
  9 13  2  0  0  0  0
  9 14  1  0  0  0  0
 10 13  1  0  0  0  0
 10 27  1  0  0  0  0
 11 14  2  0  0  0  0
 11 28  1  0  0  0  0
 12 15  1  0  0  0  0
 12 16  1  0  0  0  0
 12 29  1  0  0  0  0
 12 30  1  0  0  0  0
 13 32  1  0  0  0  0
 14 33  1  0  0  0  0
 16 20  2  0  0  0  0
 17 21  1  0  0  0  0
 18 34  1  0  0  0  0
 18 38  1  0  0  0  0
 18 39  1  0  0  0  0
 19 35  1  0  0  0  0
 19 36  1  0  0  0  0
 19 37  1  0  0  0  0
 20 40  1  0  0  0  0
 21 22  1  0  0  0  0
 21 23  2  0  0  0  0
 22 24  2  0  0  0  0
 22 41  1  0  0  0  0
 23 42  1  0  0  0  0
 24 43  1  0  0  0  0
M  END
> <PUBCHEM_COMPOUND_CID>
17395429

> <PUBCHEM_COMPOUND_CANONICALIZED>
1

> <PUBCHEM_CACTVS_COMPLEXITY>
413

> <PUBCHEM_CACTVS_HBOND_ACCEPTOR>
5

> <PUBCHEM_CACTVS_HBOND_DONOR>
1

> <PUBCHEM_CACTVS_ROTATABLE_BOND>
6

> <PUBCHEM_CACTVS_SUBSKEYS>
AAADceB7IABgAAAAAAAAAAAAAAAAAWJAAAAwAAAAAAAAAAAB8AAAHgQQAAAADAjF3gSywZPIEAisAyVyVACD8KBhCjhIiL04ZJgIILrg1ZGEIAhglgDoyAcQgAAOCAAAAAAAAAAQAAAAAAAAAAAAAAAAAA==

> <PUBCHEM_IUPAC_OPENEYE_NAME>
N-[[4-(dimethylamino)phenyl]methyl]-2-[2-(3-thienyl)thiazol-4-yl]acetamide

> <PUBCHEM_IUPAC_CAS_NAME>
N-[[4-(dimethylamino)phenyl]methyl]-2-[2-(3-thiophenyl)-4-thiazolyl]acetamide

> <PUBCHEM_IUPAC_NAME>
N-[[4-(dimethylamino)phenyl]methyl]-2-(2-thiophen-3-yl-1,3-thiazol-4-yl)acetamide

> <PUBCHEM_IUPAC_SYSTEMATIC_NAME>
N-[[4-(dimethylamino)phenyl]methyl]-2-(2-thiophen-3-yl-1,3-thiazol-4-yl)ethanamide

> <PUBCHEM_IUPAC_TRADITIONAL_NAME>
N-[4-(dimethylamino)benzyl]-2-[2-(3-thienyl)thiazol-4-yl]acetamide

> <PUBCHEM_IUPAC_INCHI>
InChI=1S/C18H19N3OS2/c1-21(2)16-5-3-13(4-6-16)10-19-17(22)9-15-12-24-18(20-15)14-7-8-23-11-14/h3-8,11-12H,9-10H2,1-2H3,(H,19,22)

> <PUBCHEM_IUPAC_INCHIKEY>
JRKPGUBSQKMVPT-UHFFFAOYSA-N

> <PUBCHEM_XLOGP3_AA>
3.2

> <PUBCHEM_EXACT_MASS>
357.096954

> <PUBCHEM_MOLECULAR_FORMULA>
C18H19N3OS2

> <PUBCHEM_MOLECULAR_WEIGHT>
357.49296

> <PUBCHEM_OPENEYE_CAN_SMILES>
CN(C)C1=CC=C(C=C1)CNC(=O)CC2=CSC(=N2)C3=CSC=C3

> <PUBCHEM_OPENEYE_ISO_SMILES>
CN(C)C1=CC=C(C=C1)CNC(=O)CC2=CSC(=N2)C3=CSC=C3

> <PUBCHEM_CACTVS_TPSA>
102

> <PUBCHEM_MONOISOTOPIC_WEIGHT>
357.096954

> <PUBCHEM_TOTAL_CHARGE>
0

> <PUBCHEM_HEAVY_ATOM_COUNT>
24

> <PUBCHEM_ATOM_DEF_STEREO_COUNT>
0

> <PUBCHEM_ATOM_UDEF_STEREO_COUNT>
0

> <PUBCHEM_BOND_DEF_STEREO_COUNT>
0

> <PUBCHEM_BOND_UDEF_STEREO_COUNT>
0

> <PUBCHEM_ISOTOPIC_ATOM_COUNT>
0

> <PUBCHEM_COMPONENT_COUNT>
1

> <PUBCHEM_CACTVS_TAUTO_COUNT>
2

> <PUBCHEM_COORDINATE_TYPE>
1
5
255

> <PUBCHEM_BONDANNOTATIONS>
1  17  8
1  20  8
10  13  8
11  14  8
16  20  8
2  23  8
2  24  8
21  22  8
21  23  8
22  24  8
6  16  8
6  17  8
7  10  8
7  11  8
9  13  8
9  14  8

$$$$

