440773
  -OEChem-07051212502D

 43 44  0     1  0  0  0  0  0999 V2000
    6.1132    1.1118    0.0000 O   0  0  0  0  0  0  0  0  0  0  0  0
    4.2690    0.4039    0.0000 O   0  0  0  0  0  0  0  0  0  0  0  0
    5.1350   -1.0961    0.0000 O   0  0  0  0  0  0  0  0  0  0  0  0
    3.6405    1.8745    0.0000 O   0  0  0  0  0  0  0  0  0  0  0  0
    5.0962    3.4912    0.0000 O   0  0  0  0  0  0  0  0  0  0  0  0
    6.2940   -0.3833    0.0000 O   0  0  0  0  0  0  0  0  0  0  0  0
    2.5369   -0.5961    0.0000 O   0  0  0  0  0  0  0  0  0  0  0  0
    7.9497    2.1063    0.0000 O   0  0  0  0  0  0  0  0  0  0  0  0
    4.2690   -3.5961    0.0000 O   0  0  0  0  0  0  0  0  0  0  0  0
    2.5369   -2.5961    0.0000 O   0  0  0  0  0  0  0  0  0  0  0  0
    6.0010   -3.5961    0.0000 O   0  0  0  0  0  0  0  0  0  0  0  0
    5.1350    0.9039    0.0000 C   0  0  1  0  0  0  0  0  0  0  0  0
    4.6350    1.7699    0.0000 C   0  0  2  0  0  0  0  0  0  0  0  0
    5.3041    2.5131    0.0000 C   0  0  1  0  0  0  0  0  0  0  0  0
    6.2177    2.1063    0.0000 C   0  0  1  0  0  0  0  0  0  0  0  0
    4.2690   -0.5961    0.0000 C   0  0  1  0  0  0  0  0  0  0  0  0
    5.3429   -0.0742    0.0000 C   0  0  0  0  0  0  0  0  0  0  0  0
    3.4030   -1.0961    0.0000 C   0  0  1  0  0  0  0  0  0  0  0  0
    7.0837    2.6063    0.0000 C   0  0  0  0  0  0  0  0  0  0  0  0
    5.1350   -2.0961    0.0000 C   0  0  1  0  0  0  0  0  0  0  0  0
    4.2690   -2.5961    0.0000 C   0  0  2  0  0  0  0  0  0  0  0  0
    3.4030   -2.0961    0.0000 C   0  0  0  0  0  0  0  0  0  0  0  0
    6.0010   -2.5961    0.0000 C   0  0  0  0  0  0  0  0  0  0  0  0
    4.2973    1.2500    0.0000 H   0  0  0  0  0  0  0  0  0  0  0  0
    4.7053    2.6736    0.0000 H   0  0  0  0  0  0  0  0  0  0  0  0
    6.7377    1.7687    0.0000 H   0  0  0  0  0  0  0  0  0  0  0  0
    3.7320   -0.2861    0.0000 H   0  0  0  0  0  0  0  0  0  0  0  0
    4.7233   -0.0959    0.0000 H   0  0  0  0  0  0  0  0  0  0  0  0
    5.2566   -0.6882    0.0000 H   0  0  0  0  0  0  0  0  0  0  0  0
    3.4030   -0.4761    0.0000 H   0  0  0  0  0  0  0  0  0  0  0  0
    7.4822    3.0813    0.0000 H   0  0  0  0  0  0  0  0  0  0  0  0
    6.6852    3.0813    0.0000 H   0  0  0  0  0  0  0  0  0  0  0  0
    5.6720   -1.7861    0.0000 H   0  0  0  0  0  0  0  0  0  0  0  0
    4.8059   -2.9061    0.0000 H   0  0  0  0  0  0  0  0  0  0  0  0
    3.3883    2.4409    0.0000 H   0  0  0  0  0  0  0  0  0  0  0  0
    5.5570    3.9061    0.0000 H   0  0  0  0  0  0  0  0  0  0  0  0
    6.6116   -2.7038    0.0000 H   0  0  0  0  0  0  0  0  0  0  0  0
    6.2131   -2.0135    0.0000 H   0  0  0  0  0  0  0  0  0  0  0  0
    6.4229   -0.9897    0.0000 H   0  0  0  0  0  0  0  0  0  0  0  0
    2.0000   -0.9061    0.0000 H   0  0  0  0  0  0  0  0  0  0  0  0
    8.4867    2.4163    0.0000 H   0  0  0  0  0  0  0  0  0  0  0  0
    3.7320   -3.9061    0.0000 H   0  0  0  0  0  0  0  0  0  0  0  0
    6.5380   -3.9061    0.0000 H   0  0  0  0  0  0  0  0  0  0  0  0
  1 12  1  0  0  0  0
  1 15  1  0  0  0  0
 12  2  1  1  0  0  0
 16  2  1  1  0  0  0
  3 16  1  0  0  0  0
  3 20  1  0  0  0  0
 13  4  1  1  0  0  0
  4 35  1  0  0  0  0
 14  5  1  6  0  0  0
  5 36  1  0  0  0  0
  6 17  1  0  0  0  0
  6 39  1  0  0  0  0
 18  7  1  1  0  0  0
  7 40  1  0  0  0  0
  8 19  1  0  0  0  0
  8 41  1  0  0  0  0
 21  9  1  1  0  0  0
  9 42  1  0  0  0  0
 10 22  2  0  0  0  0
 11 23  1  0  0  0  0
 11 43  1  0  0  0  0
 12 13  1  0  0  0  0
 12 17  1  0  0  0  0
 13 14  1  0  0  0  0
 13 24  1  0  0  0  0
 14 15  1  0  0  0  0
 14 25  1  0  0  0  0
 15 19  1  1  0  0  0
 15 26  1  0  0  0  0
 16 18  1  0  0  0  0
 16 27  1  0  0  0  0
 17 28  1  0  0  0  0
 17 29  1  0  0  0  0
 18 22  1  0  0  0  0
 18 30  1  0  0  0  0
 19 31  1  0  0  0  0
 19 32  1  0  0  0  0
 20 21  1  0  0  0  0
 20 23  1  6  0  0  0
 20 33  1  0  0  0  0
 21 22  1  0  0  0  0
 21 34  1  0  0  0  0
 23 37  1  0  0  0  0
 23 38  1  0  0  0  0
M  END
> <PUBCHEM_COMPOUND_CID>
440773

> <PUBCHEM_COMPOUND_CANONICALIZED>
1

> <PUBCHEM_CACTVS_COMPLEXITY>
431

> <PUBCHEM_CACTVS_HBOND_ACCEPTOR>
11

> <PUBCHEM_CACTVS_HBOND_DONOR>
7

> <PUBCHEM_CACTVS_ROTATABLE_BOND>
5

> <PUBCHEM_CACTVS_SUBSKEYS>
AAADceBwPAAAAAAAAAAAAAAAAAAAASAAAAAkAAAAAAAAAAAAAAAAGgAACAAACBSwgAMACAAABgAIAIAQAAIAAAAAAAAAAAFAAAAREBYAAAAiQAAFIAAHAAHCYAwAAAAAAAAAAAAAAAAAAAAAAAAAAAAAAA==

> <PUBCHEM_IUPAC_OPENEYE_NAME>
(2R,3S,5R,6R)-2-[(2S,3S,4S,5R)-3,4-dihydroxy-2,5-bis(hydroxymethyl)tetrahydrofuran-2-yl]oxy-3,5-dihydroxy-6-(hydroxymethyl)tetrahydropyran-4-one

> <PUBCHEM_IUPAC_CAS_NAME>
(2R,3S,5R,6R)-2-[[(2S,3S,4S,5R)-3,4-dihydroxy-2,5-bis(hydroxymethyl)-2-oxolanyl]oxy]-3,5-dihydroxy-6-(hydroxymethyl)-4-oxanone

> <PUBCHEM_IUPAC_NAME>
(2R,3S,5R,6R)-2-[(2S,3S,4S,5R)-3,4-dihydroxy-2,5-bis(hydroxymethyl)oxolan-2-yl]oxy-3,5-dihydroxy-6-(hydroxymethyl)oxan-4-one

> <PUBCHEM_IUPAC_SYSTEMATIC_NAME>
(2R,3S,5R,6R)-2-[(2S,3S,4S,5R)-2,5-bis(hydroxymethyl)-3,4-bis(oxidanyl)oxolan-2-yl]oxy-6-(hydroxymethyl)-3,5-bis(oxidanyl)oxan-4-one

> <PUBCHEM_IUPAC_TRADITIONAL_NAME>
(2R,3S,5R,6R)-2-[(2S,3S,4S,5R)-3,4-dihydroxy-2,5-dimethylol-tetrahydrofuran-2-yl]oxy-3,5-dihydroxy-6-methylol-tetrahydropyran-4-one

> <PUBCHEM_IUPAC_INCHI>
InChI=1S/C12H20O11/c13-1-4-6(16)8(18)9(19)11(21-4)23-12(3-15)10(20)7(17)5(2-14)22-12/h4-7,9-11,13-17,19-20H,1-3H2/t4-,5-,6-,7-,9-,10+,11-,12+/m1/s1

> <PUBCHEM_IUPAC_INCHIKEY>
CUKZGOBWGGOLIQ-QRDRGOPVSA-N

> <PUBCHEM_XLOGP3>
-3.3

> <PUBCHEM_EXACT_MASS>
340.100561

> <PUBCHEM_MOLECULAR_FORMULA>
C12H20O11

> <PUBCHEM_MOLECULAR_WEIGHT>
340.2806

> <PUBCHEM_OPENEYE_CAN_SMILES>
C(C1C(C(C(O1)(CO)OC2C(C(=O)C(C(O2)CO)O)O)O)O)O

> <PUBCHEM_OPENEYE_ISO_SMILES>
C([C@@H]1[C@H]([C@@H]([C@](O1)(CO)O[C@@H]2[C@@H](C(=O)[C@@H]([C@H](O2)CO)O)O)O)O)O

> <PUBCHEM_CACTVS_TPSA>
186

> <PUBCHEM_MONOISOTOPIC_WEIGHT>
340.100561

> <PUBCHEM_TOTAL_CHARGE>
0

> <PUBCHEM_HEAVY_ATOM_COUNT>
23

> <PUBCHEM_ATOM_DEF_STEREO_COUNT>
8

> <PUBCHEM_ATOM_UDEF_STEREO_COUNT>
0

> <PUBCHEM_BOND_DEF_STEREO_COUNT>
0

> <PUBCHEM_BOND_UDEF_STEREO_COUNT>
0

> <PUBCHEM_ISOTOPIC_ATOM_COUNT>
0

> <PUBCHEM_COMPONENT_COUNT>
1

> <PUBCHEM_CACTVS_TAUTO_COUNT>
7

> <PUBCHEM_COORDINATE_TYPE>
1
5
255

> <PUBCHEM_BONDANNOTATIONS>
15  19  5
12  2  5
16  2  5
20  23  6
13  4  5
14  5  6
18  7  5
21  9  5

$$$$

