194140
  -OEChem-07051212462D

 39 41  0     1  0  0  0  0  0999 V2000
    4.2548   -0.2020    0.0000 C   0  0  3  0  0  0  0  0  0  0  0  0
    3.4458    0.3857    0.0000 C   0  0  1  0  0  0  0  0  0  0  0  0
    5.0638    0.3857    0.0000 C   0  0  1  0  0  0  0  0  0  0  0  0
    3.9451   -1.1467    0.0000 C   0  0  0  0  0  0  0  0  0  0  0  0
    4.5644   -1.1467    0.0000 C   0  0  1  0  0  0  0  0  0  0  0  0
    2.9511   -1.1458    0.0000 C   0  0  0  0  0  0  0  0  0  0  0  0
    2.6430   -0.2007    0.0000 C   0  0  0  0  0  0  0  0  0  0  0  0
    5.8665   -0.2007    0.0000 C   0  0  0  0  0  0  0  0  0  0  0  0
    5.5585   -1.1458    0.0000 C   0  0  0  0  0  0  0  0  0  0  0  0
    4.7548    1.3368    0.0000 C   0  0  0  0  0  0  0  0  0  0  0  0
    3.7548    1.3368    0.0000 C   0  0  0  0  0  0  0  0  0  0  0  0
    3.9780   -1.9567    0.0000 C   0  0  0  0  0  0  0  0  0  0  0  0
    2.0000   -1.4548    0.0000 C   0  0  0  0  0  0  0  0  0  0  0  0
    2.9511   -2.1458    0.0000 C   0  0  0  0  0  0  0  0  0  0  0  0
    5.3426    2.1458    0.0000 C   0  0  0  0  0  0  0  0  0  0  0  0
    2.7574    0.8845    0.0000 H   0  0  0  0  0  0  0  0  0  0  0  0
    5.7521    0.8845    0.0000 H   0  0  0  0  0  0  0  0  0  0  0  0
    3.8794   -1.7632    0.0000 H   0  0  0  0  0  0  0  0  0  0  0  0
    4.5513   -1.2768    0.0000 H   0  0  0  0  0  0  0  0  0  0  0  0
    4.8466   -1.6987    0.0000 H   0  0  0  0  0  0  0  0  0  0  0  0
    2.3320    0.3357    0.0000 H   0  0  0  0  0  0  0  0  0  0  0  0
    2.0770   -0.4536    0.0000 H   0  0  0  0  0  0  0  0  0  0  0  0
    6.4325   -0.4536    0.0000 H   0  0  0  0  0  0  0  0  0  0  0  0
    6.1776    0.3357    0.0000 H   0  0  0  0  0  0  0  0  0  0  0  0
    5.4939   -1.7624    0.0000 H   0  0  0  0  0  0  0  0  0  0  0  0
    6.1649   -1.2749    0.0000 H   0  0  0  0  0  0  0  0  0  0  0  0
    3.3904    1.8384    0.0000 H   0  0  0  0  0  0  0  0  0  0  0  0
    3.4758   -1.5932    0.0000 H   0  0  0  0  0  0  0  0  0  0  0  0
    3.6145   -2.4589    0.0000 H   0  0  0  0  0  0  0  0  0  0  0  0
    4.4802   -2.3203    0.0000 H   0  0  0  0  0  0  0  0  0  0  0  0
    1.8084   -0.8652    0.0000 H   0  0  0  0  0  0  0  0  0  0  0  0
    1.4103   -1.6464    0.0000 H   0  0  0  0  0  0  0  0  0  0  0  0
    2.1916   -2.0445    0.0000 H   0  0  0  0  0  0  0  0  0  0  0  0
    2.3311   -2.1458    0.0000 H   0  0  0  0  0  0  0  0  0  0  0  0
    2.9511   -2.7658    0.0000 H   0  0  0  0  0  0  0  0  0  0  0  0
    3.5711   -2.1458    0.0000 H   0  0  0  0  0  0  0  0  0  0  0  0
    5.8442    1.7814    0.0000 H   0  0  0  0  0  0  0  0  0  0  0  0
    5.7070    2.6474    0.0000 H   0  0  0  0  0  0  0  0  0  0  0  0
    4.8410    2.5102    0.0000 H   0  0  0  0  0  0  0  0  0  0  0  0
  1  2  1  0  0  0  0
  1  3  1  0  0  0  0
  1  4  1  0  0  0  0
  1  5  1  0  0  0  0
  2  7  1  0  0  0  0
  2 11  1  0  0  0  0
  2 16  1  6  0  0  0
  3  8  1  0  0  0  0
  3 10  1  0  0  0  0
  3 17  1  1  0  0  0
  4  6  1  0  0  0  0
  4 18  1  0  0  0  0
  4 19  1  0  0  0  0
  5  9  1  0  0  0  0
  5 12  1  1  0  0  0
  5 20  1  0  0  0  0
  6  7  1  0  0  0  0
  6 13  1  0  0  0  0
  6 14  1  0  0  0  0
  7 21  1  0  0  0  0
  7 22  1  0  0  0  0
  8  9  1  0  0  0  0
  8 23  1  0  0  0  0
  8 24  1  0  0  0  0
  9 25  1  0  0  0  0
  9 26  1  0  0  0  0
 10 11  2  0  0  0  0
 10 15  1  0  0  0  0
 11 27  1  0  0  0  0
 12 28  1  0  0  0  0
 12 29  1  0  0  0  0
 12 30  1  0  0  0  0
 13 31  1  0  0  0  0
 13 32  1  0  0  0  0
 13 33  1  0  0  0  0
 14 34  1  0  0  0  0
 14 35  1  0  0  0  0
 14 36  1  0  0  0  0
 15 37  1  0  0  0  0
 15 38  1  0  0  0  0
 15 39  1  0  0  0  0
M  END
> <PUBCHEM_COMPOUND_CID>
194140

> <PUBCHEM_COMPOUND_CANONICALIZED>
1

> <PUBCHEM_CACTVS_COMPLEXITY>
323

> <PUBCHEM_CACTVS_HBOND_ACCEPTOR>
0

> <PUBCHEM_CACTVS_HBOND_DONOR>
0

> <PUBCHEM_CACTVS_ROTATABLE_BOND>
0

> <PUBCHEM_CACTVS_SUBSKEYS>
AAADceBwAAAAAAAAAAAAAAAAAAAAAYMEAAAAAAAAAAAQIAAAAAAAGAAAAAAADwCAAAACAAAAAACAAiBCAAAAAAAgAAAACAAAAAgAAAIAAQAAAAAAgAAIAAMAgMAPgAAAAAAAAAAAAAAAAAAAAQAACAAAAA==

> <PUBCHEM_IUPAC_OPENEYE_NAME>
(1R,3aS,5aS)-1,4,7,7-tetramethyl-2,3,3a,5a,6,8-hexahydro-1H-cyclopenta[h]pentalene

> <PUBCHEM_IUPAC_CAS_NAME>
(1R,3aS,5aS)-1,4,7,7-tetramethyl-2,3,3a,5a,6,8-hexahydro-1H-cyclopenta[h]pentalene

> <PUBCHEM_IUPAC_NAME>
(1R,3aS,5aS)-1,4,7,7-tetramethyl-2,3,3a,5a,6,8-hexahydro-1H-cyclopenta[h]pentalene

> <PUBCHEM_IUPAC_SYSTEMATIC_NAME>
(1R,3aS,5aS)-1,4,7,7-tetramethyl-2,3,3a,5a,6,8-hexahydro-1H-cyclopenta[h]pentalene

> <PUBCHEM_IUPAC_TRADITIONAL_NAME>
(1R,3aS,5aS)-1,4,7,7-tetramethyl-2,3,3a,5a,6,8-hexahydro-1H-cyclopenta[h]pentalene

> <PUBCHEM_IUPAC_INCHI>
InChI=1S/C15H24/c1-10-7-12-8-14(3,4)9-15(12)11(2)5-6-13(10)15/h7,11-13H,5-6,8-9H2,1-4H3/t11-,12-,13+,15?/m1/s1

> <PUBCHEM_IUPAC_INCHIKEY>
YGIVIHRLDOVJLL-DPORPMIOSA-N

> <PUBCHEM_XLOGP3_AA>
4.7

> <PUBCHEM_EXACT_MASS>
204.187801

> <PUBCHEM_MOLECULAR_FORMULA>
C15H24

> <PUBCHEM_MOLECULAR_WEIGHT>
204.35106

> <PUBCHEM_OPENEYE_CAN_SMILES>
CC1CCC2C13CC(CC3C=C2C)(C)C

> <PUBCHEM_OPENEYE_ISO_SMILES>
C[C@@H]1CC[C@@H]2C13CC(C[C@H]3C=C2C)(C)C

> <PUBCHEM_CACTVS_TPSA>
0

> <PUBCHEM_MONOISOTOPIC_WEIGHT>
204.187801

> <PUBCHEM_TOTAL_CHARGE>
0

> <PUBCHEM_HEAVY_ATOM_COUNT>
15

> <PUBCHEM_ATOM_DEF_STEREO_COUNT>
3

> <PUBCHEM_ATOM_UDEF_STEREO_COUNT>
1

> <PUBCHEM_BOND_DEF_STEREO_COUNT>
0

> <PUBCHEM_BOND_UDEF_STEREO_COUNT>
0

> <PUBCHEM_ISOTOPIC_ATOM_COUNT>
0

> <PUBCHEM_COMPONENT_COUNT>
1

> <PUBCHEM_CACTVS_TAUTO_COUNT>
1

> <PUBCHEM_COORDINATE_TYPE>
1
5
255

> <PUBCHEM_BONDANNOTATIONS>
1  4  3
2  16  6
3  17  5
5  12  5

$$$$

