   Color/Form

     * Monoclinic prisms
     * Monoclinic colorless prisms or crystals
     * White, monoclinic crystals

   from [1]HSDB

   Boiling Point
        Sublimes
   from [2]HSDB

   Melting Point
        354 deg C
   from [3]HSDB

   Density/Specific Gravity
        1.573 at 14 deg C
   from [4]HSDB

   Dissociation Constants
        pKa = 5.0
   from [5]HSDB

   Heat of Combustion
        -1967 kJ/mol at 25 deg C
   from [6]HSDB

   Octanol/Water Partition Coefficient
        log Kow = -1.37
   from [7]HSDB

   Solubilities

     * Very slightly sol in hot alc; insol in ether
     * Sparingly sol in glycol, glycerol, pyridine; very slightly sol in
       ethanol; insol in benzene, carbon tetrachloride
     * In water, 3.23X10+3 mg/L at 20 deg C

   from [8]HSDB

   Spectral Properties

     * MAX ABSORPTION (0.1 N HCL): 235 NM (LOG E= 4.01); (WATER PH= 7):
       236 NM (LOG E= 3.4); SADTLER REF NUMBER: 5460 (IR, PRISM); 477 (IR,
       GRATING)
     * Index of refraction: 1.872 at 20 degC/D
     * IR: 2344 (Coblentz Society Spectral Collection)
     * UV: 1499 (Sadtler Research Laboratories Spectral Collection)
     * MASS: 2584 (NIST/EPA/MSDC Mass Spectral database, 1990 version)

   from [9]HSDB

   Vapor Density
        4.34 (Air= 1)
   from [10]HSDB

   Vapor Pressure
        3.59X10-10 mm Hg at 20 deg C (extrapolated)
   from [11]HSDB

   Other Chemical/Physical Properties

     * VP: 50 mm Hg at 315 deg C
     * Heat of sublimation = -121 kJ/mol at 25 deg C
     * Henry's Law constant = 1.84X10-14 atm-cu m/mol at 25 deg C (est)
     * Hydroxyl radical reaction rate constant = 6.6X10-13 cu cm/molec-sec
       at 25 deg C (est)

   from [12]HSDB

   Computed Properties
   Molecular Weight                  126.11994 [g/mol]
   Molecular Formula                 C[3]H[6]N[6]
   XLogP3                            -1.4
   H-Bond Donor                      3
   H-Bond Acceptor                   6
   Rotatable Bond Count              0
   Tautomer Count                    5
   Exact Mass                        126.065394
   MonoIsotopic Mass                 126.065394
   Topological Polar Surface Area    117
   Heavy Atom Count                  9
   Formal Charge                     0
   Complexity                        63.3
   Isotope Atom Count                0
   Defined Atom Stereocenter Count   0
   Undefined Atom Stereocenter Count 0
   Defined Bond Stereocenter Count   0
   Undefined Bond Stereocenter Count 0
   Covalently-Bonded Unit Count      1
   Feature 3D Donor Count            3
   Feature 3D Cation Count           3
   Feature 3D Ring Count             1
   Effective Rotor Count             0
   Conformer Sampling RMSD           0.4
   CID Conformer Count               [13]1

References

   1. http://toxnet.nlm.nih.gov/cgi-bin/sis/search/r?dbs+hsdb:@term+@rn+@rel+108-78-1
   2. http://toxnet.nlm.nih.gov/cgi-bin/sis/search/r?dbs+hsdb:@term+@rn+@rel+108-78-1
   3. http://toxnet.nlm.nih.gov/cgi-bin/sis/search/r?dbs+hsdb:@term+@rn+@rel+108-78-1
   4. http://toxnet.nlm.nih.gov/cgi-bin/sis/search/r?dbs+hsdb:@term+@rn+@rel+108-78-1
   5. http://toxnet.nlm.nih.gov/cgi-bin/sis/search/r?dbs+hsdb:@term+@rn+@rel+108-78-1
   6. http://toxnet.nlm.nih.gov/cgi-bin/sis/search/r?dbs+hsdb:@term+@rn+@rel+108-78-1
   7. http://toxnet.nlm.nih.gov/cgi-bin/sis/search/r?dbs+hsdb:@term+@rn+@rel+108-78-1
   8. http://toxnet.nlm.nih.gov/cgi-bin/sis/search/r?dbs+hsdb:@term+@rn+@rel+108-78-1
   9. http://toxnet.nlm.nih.gov/cgi-bin/sis/search/r?dbs+hsdb:@term+@rn+@rel+108-78-1
  10. http://toxnet.nlm.nih.gov/cgi-bin/sis/search/r?dbs+hsdb:@term+@rn+@rel+108-78-1
  11. http://toxnet.nlm.nih.gov/cgi-bin/sis/search/r?dbs+hsdb:@term+@rn+@rel+108-78-1
  12. http://toxnet.nlm.nih.gov/cgi-bin/sis/search/r?dbs+hsdb:@term+@rn+@rel+108-78-1
  13. http://pubchem.ncbi.nlm.nih.gov/vw3d/vw3d.cgi?cid=7955
