441420
  -OEChem-07051212542D

 25 25  0     1  0  0  0  0  0999 V2000
    3.7320    1.4400    0.0000 O   0  0  0  0  0  0  0  0  0  0  0  0
    3.7320   -1.5600    0.0000 O   0  0  0  0  0  0  0  0  0  0  0  0
    5.4641   -0.5600    0.0000 O   0  0  0  0  0  0  0  0  0  0  0  0
    2.0000    1.4400    0.0000 O   0  0  0  0  0  0  0  0  0  0  0  0
    3.7320   -0.5600    0.0000 C   0  0  2  0  0  0  0  0  0  0  0  0
    4.5981   -0.0600    0.0000 C   0  0  2  0  0  0  0  0  0  0  0  0
    4.5981    0.9400    0.0000 C   0  0  2  0  0  0  0  0  0  0  0  0
    2.8660   -0.0600    0.0000 C   0  0  0  0  0  0  0  0  0  0  0  0
    2.8660    0.9400    0.0000 C   0  0  2  0  0  0  0  0  0  0  0  0
    5.4641    1.4400    0.0000 C   0  0  0  0  0  0  0  0  0  0  0  0
    2.8660   -2.0600    0.0000 C   0  0  0  0  0  0  0  0  0  0  0  0
    4.2690   -0.8700    0.0000 H   0  0  0  0  0  0  0  0  0  0  0  0
    4.5981   -0.6800    0.0000 H   0  0  0  0  0  0  0  0  0  0  0  0
    4.5981    1.5600    0.0000 H   0  0  0  0  0  0  0  0  0  0  0  0
    2.2554    0.0477    0.0000 H   0  0  0  0  0  0  0  0  0  0  0  0
    2.6540   -0.6426    0.0000 H   0  0  0  0  0  0  0  0  0  0  0  0
    2.3291    0.6300    0.0000 H   0  0  0  0  0  0  0  0  0  0  0  0
    5.7741    0.9031    0.0000 H   0  0  0  0  0  0  0  0  0  0  0  0
    6.0010    1.7500    0.0000 H   0  0  0  0  0  0  0  0  0  0  0  0
    5.1541    1.9769    0.0000 H   0  0  0  0  0  0  0  0  0  0  0  0
    5.4641   -1.1800    0.0000 H   0  0  0  0  0  0  0  0  0  0  0  0
    2.0000    2.0600    0.0000 H   0  0  0  0  0  0  0  0  0  0  0  0
    2.5560   -1.5231    0.0000 H   0  0  0  0  0  0  0  0  0  0  0  0
    2.3291   -2.3700    0.0000 H   0  0  0  0  0  0  0  0  0  0  0  0
    3.1760   -2.5969    0.0000 H   0  0  0  0  0  0  0  0  0  0  0  0
  1  7  1  0  0  0  0
  1  9  1  0  0  0  0
  5  2  1  1  0  0  0
  2 11  1  0  0  0  0
  6  3  1  6  0  0  0
  3 21  1  0  0  0  0
  9  4  1  1  0  0  0
  4 22  1  0  0  0  0
  5  6  1  0  0  0  0
  5  8  1  0  0  0  0
  5 12  1  0  0  0  0
  6  7  1  0  0  0  0
  6 13  1  0  0  0  0
  7 10  1  1  0  0  0
  7 14  1  0  0  0  0
  8  9  1  0  0  0  0
  8 15  1  0  0  0  0
  8 16  1  0  0  0  0
  9 17  1  0  0  0  0
 10 18  1  0  0  0  0
 10 19  1  0  0  0  0
 10 20  1  0  0  0  0
 11 23  1  0  0  0  0
 11 24  1  0  0  0  0
 11 25  1  0  0  0  0
M  END
> <PUBCHEM_COMPOUND_CID>
441420

> <PUBCHEM_COMPOUND_CANONICALIZED>
1

> <PUBCHEM_CACTVS_COMPLEXITY>
128

> <PUBCHEM_CACTVS_HBOND_ACCEPTOR>
4

> <PUBCHEM_CACTVS_HBOND_DONOR>
2

> <PUBCHEM_CACTVS_ROTATABLE_BOND>
1

> <PUBCHEM_CACTVS_SUBSKEYS>
AAADccBgOAAAAAAAAAAAAAAAAAAAAAAAAAAkAAAAAAAAAAAAAAAAGgAACAAACBSwgAMCCAAABgAAAAAAAAAAAAAAAAAAAAAAAAAREAIAAAACQAAFAAAHAAHAYAQAAAAAAAAAAAAAAAAAAAAAAAAAAAAAAA==

> <PUBCHEM_IUPAC_OPENEYE_NAME>
(2S,4S,5S,6S)-4-methoxy-6-methyl-tetrahydropyran-2,5-diol

> <PUBCHEM_IUPAC_CAS_NAME>
(2S,4S,5S,6S)-4-methoxy-6-methyloxane-2,5-diol

> <PUBCHEM_IUPAC_NAME>
(2S,4S,5S,6S)-4-methoxy-6-methyloxane-2,5-diol

> <PUBCHEM_IUPAC_SYSTEMATIC_NAME>
(2S,4S,5S,6S)-4-methoxy-6-methyl-oxane-2,5-diol

> <PUBCHEM_IUPAC_TRADITIONAL_NAME>
(2S,4S,5S,6S)-4-methoxy-6-methyl-tetrahydropyran-2,5-diol

> <PUBCHEM_IUPAC_INCHI>
InChI=1S/C7H14O4/c1-4-7(9)5(10-2)3-6(8)11-4/h4-9H,3H2,1-2H3/t4-,5-,6-,7-/m0/s1

> <PUBCHEM_IUPAC_INCHIKEY>
DBDJCJKVEBFXHG-AXMZGBSTSA-N

> <PUBCHEM_XLOGP3_AA>
-0.6

> <PUBCHEM_EXACT_MASS>
162.089209

> <PUBCHEM_MOLECULAR_FORMULA>
C7H14O4

> <PUBCHEM_MOLECULAR_WEIGHT>
162.18366

> <PUBCHEM_OPENEYE_CAN_SMILES>
CC1C(C(CC(O1)O)OC)O

> <PUBCHEM_OPENEYE_ISO_SMILES>
C[C@H]1[C@@H]([C@H](C[C@H](O1)O)OC)O

> <PUBCHEM_CACTVS_TPSA>
58.9

> <PUBCHEM_MONOISOTOPIC_WEIGHT>
162.089209

> <PUBCHEM_TOTAL_CHARGE>
0

> <PUBCHEM_HEAVY_ATOM_COUNT>
11

> <PUBCHEM_ATOM_DEF_STEREO_COUNT>
4

> <PUBCHEM_ATOM_UDEF_STEREO_COUNT>
0

> <PUBCHEM_BOND_DEF_STEREO_COUNT>
0

> <PUBCHEM_BOND_UDEF_STEREO_COUNT>
0

> <PUBCHEM_ISOTOPIC_ATOM_COUNT>
0

> <PUBCHEM_COMPONENT_COUNT>
1

> <PUBCHEM_CACTVS_TAUTO_COUNT>
1

> <PUBCHEM_COORDINATE_TYPE>
1
5
255

> <PUBCHEM_BONDANNOTATIONS>
5  2  5
6  3  6
9  4  5
7  10  5

$$$$

