441733
  -OEChem-07051212552D

 91 97  0     1  0  0  0  0  0999 V2000
    5.6337    3.4313    0.0000 O   0  0  0  0  0  0  0  0  0  0  0  0
    3.4347    0.2093    0.0000 O   0  0  0  0  0  0  0  0  0  0  0  0
    3.0666    2.6837    0.0000 O   0  0  0  0  0  0  0  0  0  0  0  0
    2.9934    1.0474    0.0000 O   0  0  0  0  0  0  0  0  0  0  0  0
    6.6757    3.5801    0.0000 O   0  0  0  0  0  0  0  0  0  0  0  0
    2.6172    3.3888    0.0000 O   0  0  0  0  0  0  0  0  0  0  0  0
    2.2160    4.0983    0.0000 O   0  0  0  0  0  0  0  0  0  0  0  0
    7.1997   -0.5948    0.0000 O   0  0  0  0  0  0  0  0  0  0  0  0
    6.3336   -2.0948    0.0000 O   0  0  0  0  0  0  0  0  0  0  0  0
    8.0657   -5.0948    0.0000 O   0  0  0  0  0  0  0  0  0  0  0  0
    7.5290    1.8113    0.0000 N   0  0  3  0  0  0  0  0  0  0  0  0
    7.1997   -3.5948    0.0000 N   0  0  0  0  0  0  0  0  0  0  0  0
    5.5823    2.2066    0.0000 C   0  0  2  0  0  0  0  0  0  0  0  0
    4.9040    2.7475    0.0000 C   0  0  2  0  0  0  0  0  0  0  0  0
    5.5823    1.3390    0.0000 C   0  0  2  0  0  0  0  0  0  0  0  0
    6.5843    2.1005    0.0000 C   0  0  3  0  0  0  0  0  0  0  0  0
    4.0582    0.9911    0.0000 C   0  0  2  0  0  0  0  0  0  0  0  0
    4.0582    2.5544    0.0000 C   0  0  2  0  0  0  0  0  0  0  0  0
    3.6818    1.7728    0.0000 C   0  0  1  0  0  0  0  0  0  0  0  0
    4.9040    0.7981    0.0000 C   0  0  0  0  0  0  0  0  0  0  0  0
    6.3336    0.9052    0.0000 C   0  0  2  0  0  0  0  0  0  0  0  0
    6.3336    2.6404    0.0000 C   0  0  2  0  0  0  0  0  0  0  0  0
    4.9818    3.6116    0.0000 C   0  0  0  0  0  0  0  0  0  0  0  0
    4.1840    3.9526    0.0000 C   0  0  1  0  0  0  0  0  0  0  0  0
    3.6132    3.2992    0.0000 C   0  0  2  0  0  0  0  0  0  0  0  0
    3.0369    2.0427    0.0000 C   0  0  0  0  0  0  0  0  0  0  0  0
    7.5290    1.0594    0.0000 C   0  0  0  0  0  0  0  0  0  0  0  0
    3.0369    3.5272    0.0000 C   0  0  2  0  0  0  0  0  0  0  0  0
    7.0850    1.3390    0.0000 C   0  0  0  0  0  0  0  0  0  0  0  0
    7.0850    2.2066    0.0000 C   0  0  0  0  0  0  0  0  0  0  0  0
    6.3336   -0.0948    0.0000 C   0  0  0  0  0  0  0  0  0  0  0  0
    8.3330    2.4060    0.0000 C   0  0  0  0  0  0  0  0  0  0  0  0
    9.2499    2.0071    0.0000 C   0  0  0  0  0  0  0  0  0  0  0  0
    7.6605    3.7537    0.0000 C   0  0  0  0  0  0  0  0  0  0  0  0
    1.7099    2.9685    0.0000 C   0  0  0  0  0  0  0  0  0  0  0  0
    2.3002    5.0948    0.0000 C   0  0  0  0  0  0  0  0  0  0  0  0
    7.1997   -1.5948    0.0000 C   0  0  0  0  0  0  0  0  0  0  0  0
    8.0657   -2.0948    0.0000 C   0  0  0  0  0  0  0  0  0  0  0  0
    8.0657   -3.0948    0.0000 C   0  0  0  0  0  0  0  0  0  0  0  0
    8.9317   -1.5948    0.0000 C   0  0  0  0  0  0  0  0  0  0  0  0
    8.9317   -3.5948    0.0000 C   0  0  0  0  0  0  0  0  0  0  0  0
    9.7978   -2.0948    0.0000 C   0  0  0  0  0  0  0  0  0  0  0  0
    9.7978   -3.0948    0.0000 C   0  0  0  0  0  0  0  0  0  0  0  0
    7.1997   -4.5948    0.0000 C   0  0  0  0  0  0  0  0  0  0  0  0
    6.3336   -5.0948    0.0000 C   0  0  0  0  0  0  0  0  0  0  0  0
    5.6458    0.4914    0.0000 H   0  0  0  0  0  0  0  0  0  0  0  0
    6.7082    2.7080    0.0000 H   0  0  0  0  0  0  0  0  0  0  0  0
    5.3888    0.4115    0.0000 H   0  0  0  0  0  0  0  0  0  0  0  0
    4.6350    0.2395    0.0000 H   0  0  0  0  0  0  0  0  0  0  0  0
    5.8587    3.0389    0.0000 H   0  0  0  0  0  0  0  0  0  0  0  0
    5.1645    4.2040    0.0000 H   0  0  0  0  0  0  0  0  0  0  0  0
    5.5901    3.4918    0.0000 H   0  0  0  0  0  0  0  0  0  0  0  0
    4.2048    4.8023    0.0000 H   0  0  0  0  0  0  0  0  0  0  0  0
    3.3824    3.8746    0.0000 H   0  0  0  0  0  0  0  0  0  0  0  0
    2.8749    1.4442    0.0000 H   0  0  0  0  0  0  0  0  0  0  0  0
    2.4223    2.1244    0.0000 H   0  0  0  0  0  0  0  0  0  0  0  0
    8.1484    1.0860    0.0000 H   0  0  0  0  0  0  0  0  0  0  0  0
    7.5820    0.4417    0.0000 H   0  0  0  0  0  0  0  0  0  0  0  0
    3.1150    4.1423    0.0000 H   0  0  0  0  0  0  0  0  0  0  0  0
    7.6956    1.4466    0.0000 H   0  0  0  0  0  0  0  0  0  0  0  0
    7.2970    0.7564    0.0000 H   0  0  0  0  0  0  0  0  0  0  0  0
    7.2970    2.7892    0.0000 H   0  0  0  0  0  0  0  0  0  0  0  0
    7.6956    2.0989    0.0000 H   0  0  0  0  0  0  0  0  0  0  0  0
    6.1216   -0.6774    0.0000 H   0  0  0  0  0  0  0  0  0  0  0  0
    5.7231    0.0129    0.0000 H   0  0  0  0  0  0  0  0  0  0  0  0
    5.4927    4.0351    0.0000 H   0  0  0  0  0  0  0  0  0  0  0  0
    3.6612   -0.3678    0.0000 H   0  0  0  0  0  0  0  0  0  0  0  0
    2.4941    2.4458    0.0000 H   0  0  0  0  0  0  0  0  0  0  0  0
    2.3906    1.1921    0.0000 H   0  0  0  0  0  0  0  0  0  0  0  0
    7.8833    2.8329    0.0000 H   0  0  0  0  0  0  0  0  0  0  0  0
    8.6752    2.9230    0.0000 H   0  0  0  0  0  0  0  0  0  0  0  0
    9.4973    2.5756    0.0000 H   0  0  0  0  0  0  0  0  0  0  0  0
    9.8185    1.7598    0.0000 H   0  0  0  0  0  0  0  0  0  0  0  0
    9.0026    1.4386    0.0000 H   0  0  0  0  0  0  0  0  0  0  0  0
    7.5528    4.3643    0.0000 H   0  0  0  0  0  0  0  0  0  0  0  0
    8.2711    3.8614    0.0000 H   0  0  0  0  0  0  0  0  0  0  0  0
    7.7682    3.1431    0.0000 H   0  0  0  0  0  0  0  0  0  0  0  0
    1.9705    2.4059    0.0000 H   0  0  0  0  0  0  0  0  0  0  0  0
    1.1473    2.7079    0.0000 H   0  0  0  0  0  0  0  0  0  0  0  0
    1.4492    3.5311    0.0000 H   0  0  0  0  0  0  0  0  0  0  0  0
    1.6824    5.1470    0.0000 H   0  0  0  0  0  0  0  0  0  0  0  0
    2.3523    5.7126    0.0000 H   0  0  0  0  0  0  0  0  0  0  0  0
    2.9180    5.0426    0.0000 H   0  0  0  0  0  0  0  0  0  0  0  0
    8.9317   -0.9748    0.0000 H   0  0  0  0  0  0  0  0  0  0  0  0
    8.9317   -4.2148    0.0000 H   0  0  0  0  0  0  0  0  0  0  0  0
   10.3347   -1.7848    0.0000 H   0  0  0  0  0  0  0  0  0  0  0  0
    6.6627   -3.2848    0.0000 H   0  0  0  0  0  0  0  0  0  0  0  0
   10.3347   -3.4048    0.0000 H   0  0  0  0  0  0  0  0  0  0  0  0
    6.6436   -5.6317    0.0000 H   0  0  0  0  0  0  0  0  0  0  0  0
    5.7967   -5.4048    0.0000 H   0  0  0  0  0  0  0  0  0  0  0  0
    6.0236   -4.5578    0.0000 H   0  0  0  0  0  0  0  0  0  0  0  0
 14  1  1  6  0  0  0
  1 66  1  0  0  0  0
 17  2  1  1  0  0  0
  2 67  1  0  0  0  0
 18  3  1  6  0  0  0
  3 68  1  0  0  0  0
 19  4  1  6  0  0  0
  4 69  1  0  0  0  0
 22  5  1  1  0  0  0
  5 34  1  0  0  0  0
 25  6  1  1  0  0  0
  6 35  1  0  0  0  0
 28  7  1  6  0  0  0
  7 36  1  0  0  0  0
  8 31  1  0  0  0  0
  8 37  1  0  0  0  0
  9 37  2  0  0  0  0
 10 44  2  0  0  0  0
 11 16  1  0  0  0  0
 11 27  1  0  0  0  0
 11 32  1  0  0  0  0
 12 39  1  0  0  0  0
 12 44  1  0  0  0  0
 12 87  1  0  0  0  0
 13 14  1  0  0  0  0
 13 15  1  0  0  0  0
 13 16  1  0  0  0  0
 13 22  1  6  0  0  0
 14 18  1  0  0  0  0
 14 23  1  0  0  0  0
 15 20  1  0  0  0  0
 15 21  1  0  0  0  0
 15 46  1  6  0  0  0
 16 17  1  0  0  0  0
 16 47  1  0  0  0  0
 17 19  1  0  0  0  0
 17 20  1  0  0  0  0
 18 19  1  0  0  0  0
 18 25  1  0  0  0  0
 19 26  1  0  0  0  0
 20 48  1  0  0  0  0
 20 49  1  0  0  0  0
 21 27  1  0  0  0  0
 21 29  1  0  0  0  0
 21 31  1  6  0  0  0
 22 30  1  0  0  0  0
 22 50  1  0  0  0  0
 23 24  1  0  0  0  0
 23 51  1  0  0  0  0
 23 52  1  0  0  0  0
 24 25  1  0  0  0  0
 24 28  1  0  0  0  0
 24 53  1  6  0  0  0
 25 54  1  0  0  0  0
 26 28  1  0  0  0  0
 26 55  1  0  0  0  0
 26 56  1  0  0  0  0
 27 57  1  0  0  0  0
 27 58  1  0  0  0  0
 28 59  1  0  0  0  0
 29 30  1  0  0  0  0
 29 60  1  0  0  0  0
 29 61  1  0  0  0  0
 30 62  1  0  0  0  0
 30 63  1  0  0  0  0
 31 64  1  0  0  0  0
 31 65  1  0  0  0  0
 32 33  1  0  0  0  0
 32 70  1  0  0  0  0
 32 71  1  0  0  0  0
 33 72  1  0  0  0  0
 33 73  1  0  0  0  0
 33 74  1  0  0  0  0
 34 75  1  0  0  0  0
 34 76  1  0  0  0  0
 34 77  1  0  0  0  0
 35 78  1  0  0  0  0
 35 79  1  0  0  0  0
 35 80  1  0  0  0  0
 36 81  1  0  0  0  0
 36 82  1  0  0  0  0
 36 83  1  0  0  0  0
 37 38  1  0  0  0  0
 38 39  1  0  0  0  0
 38 40  2  0  0  0  0
 39 41  2  0  0  0  0
 40 42  1  0  0  0  0
 40 84  1  0  0  0  0
 41 43  1  0  0  0  0
 41 85  1  0  0  0  0
 42 43  2  0  0  0  0
 42 86  1  0  0  0  0
 43 88  1  0  0  0  0
 44 45  1  0  0  0  0
 45 89  1  0  0  0  0
 45 90  1  0  0  0  0
 45 91  1  0  0  0  0
M  END
> <PUBCHEM_COMPOUND_CID>
441733

> <PUBCHEM_COMPOUND_CANONICALIZED>
1

> <PUBCHEM_CACTVS_COMPLEXITY>
1240

> <PUBCHEM_CACTVS_HBOND_ACCEPTOR>
11

> <PUBCHEM_CACTVS_HBOND_DONOR>
5

> <PUBCHEM_CACTVS_ROTATABLE_BOND>
9

> <PUBCHEM_CACTVS_SUBSKEYS>
AAADcfB/PAAAAAAAAAAAAAAAAAAAAYMAAAA8YMGCB4gWAGABAAAAHgAQCAAAD3zhmAYyyIPABgCIAiXSWACCAAAlAgAIiAEIbMgLJjrAtZmGcYhn1AHb6cf4+P+PgAAAAAACAADSgAaUADSgAaQADSgAAA==

> <PUBCHEM_IUPAC_INCHI>
InChI=1S/C33H46N2O10/c1-6-35-16-28(17-45-26(37)19-9-7-8-10-21(19)34-18(2)36)12-11-24(43-4)32-23(28)15-29(38,27(32)35)30(39)14-22(42-3)20-13-31(32,40)33(30,41)25(20)44-5/h7-10,20,22-25,27,38-41H,6,11-17H2,1-5H3,(H,34,36)/t20-,22+,23-,24+,25+,27?,28+,29-,30+,31-,32+,33+/m1/s1

> <PUBCHEM_IUPAC_INCHIKEY>
IUJWSEFNAUXHTB-PEOOALOTSA-N

> <PUBCHEM_XLOGP3_AA>
-0.3

> <PUBCHEM_EXACT_MASS>
630.315246

> <PUBCHEM_MOLECULAR_FORMULA>
C33H46N2O10

> <PUBCHEM_MOLECULAR_WEIGHT>
630.72574

> <PUBCHEM_OPENEYE_CAN_SMILES>
CCN1CC2(CCC(C34C2CC(C31)(C5(CC(C6CC4(C5(C6OC)O)O)OC)O)O)OC)COC(=O)C7=CC=CC=C7NC(=O)C

> <PUBCHEM_OPENEYE_ISO_SMILES>
CCN1C[C@@]2(CC[C@@H]([C@@]34[C@@H]2C[C@@](C31)([C@]5(C[C@@H]([C@H]6C[C@@]4([C@@]5([C@H]6OC)O)O)OC)O)O)OC)COC(=O)C7=CC=CC=C7NC(=O)C

> <PUBCHEM_CACTVS_TPSA>
167

> <PUBCHEM_MONOISOTOPIC_WEIGHT>
630.315246

> <PUBCHEM_TOTAL_CHARGE>
0

> <PUBCHEM_HEAVY_ATOM_COUNT>
45

> <PUBCHEM_ATOM_DEF_STEREO_COUNT>
11

> <PUBCHEM_ATOM_UDEF_STEREO_COUNT>
1

> <PUBCHEM_BOND_DEF_STEREO_COUNT>
0

> <PUBCHEM_BOND_UDEF_STEREO_COUNT>
0

> <PUBCHEM_ISOTOPIC_ATOM_COUNT>
0

> <PUBCHEM_COMPONENT_COUNT>
1

> <PUBCHEM_CACTVS_TAUTO_COUNT>
9

> <PUBCHEM_COORDINATE_TYPE>
1
5
255

> <PUBCHEM_BONDANNOTATIONS>
14  1  6
16  11  3
13  22  6
15  46  6
17  2  5
21  31  6
24  53  6
18  3  6
38  39  8
38  40  8
39  41  8
19  4  6
40  42  8
41  43  8
42  43  8
22  5  5
25  6  5
28  7  6

$$$$

