   Color/Form
        Crystals from xylene ... exhibits green fluorescence
   from [1]HSDB

   Melting Point
        169 deg C
   from [2]HSDB

   Octanol/Water Partition Coefficient
        log Kow = 4.74
   from [3]HSDB

   Solubilities

     * As acid, moderately sol in org solvents (eg. chloroform, ethanol,
       methanol, xylene)
     * The sodium salt is soluble in water.

   from [4]HSDB

   Spectral Properties

     * MAX ABSORPTION: 215 NM (E= 910, 1%, 1 CM), 333 NM (E= 150, 1%, 1
       CM) @ PH 4; MAX ABSORPTION (ETHANOL): 333 NM (E= 150, 1%, 1 CM),
       380 NM (E= 189, 1%, 1 CM) ABOVE PH 9; IN ETHANOL, FLUORESCENCE
       EMISSION MAX 465 NM
     * Specific optical rotation: -118 deg (chloroform, 1.1%); max
       absorption (ethanol): 215 nm (e= 34,000), 333 nm (e= 2400); max
       absorption: 213 nm (e= 36,800), 332 nm (e= 6400)

   from [5]HSDB

   Other Chemical/Physical Properties

     * FLUORESCENT IN UV LIGHT, EMITTING GREEN & BLUE FLUORESCENCE IN ACID
       & ALKALINE SOLN
     * SODIUM SALT IS SOL IN WATER /OCHRATOXIN A SODIUM SALT/
     * MP: frequently reported as 90 deg C from benzene (one mole of
       benzene of crystallization)
     * Partially degraded under normal cooking conditions ... Solutions of
       ochratoxin A are completely degraded by treatment with an excess of
       sodium hypochlorite soln ... .

   from [6]HSDB

   Computed Properties
   Molecular Weight                  403.81302 [g/mol]
   Molecular Formula                 C[20]H[18]ClNO[6]
   XLogP3                            4.7
   H-Bond Donor                      3
   H-Bond Acceptor                   6
   Rotatable Bond Count              5
   Tautomer Count                    22
   Exact Mass                        403.082265
   MonoIsotopic Mass                 403.082265
   Topological Polar Surface Area    113
   Heavy Atom Count                  28
   Formal Charge                     0
   Complexity                        608
   Isotope Atom Count                0
   Defined Atom Stereocenter Count   2
   Undefined Atom Stereocenter Count 0
   Defined Bond Stereocenter Count   0
   Undefined Bond Stereocenter Count 0
   Covalently-Bonded Unit Count      1
   Feature 3D Acceptor Count         4
   Feature 3D Donor Count            2
   Feature 3D Anion Count            1
   Feature 3D Ring Count             3
   Effective Rotor Count             6.6
   Conformer Sampling RMSD           0.8
   CID Conformer Count               [7]85

References

   1. http://toxnet.nlm.nih.gov/cgi-bin/sis/search/r?dbs+hsdb:@term+@rn+@rel+303-47-9
   2. http://toxnet.nlm.nih.gov/cgi-bin/sis/search/r?dbs+hsdb:@term+@rn+@rel+303-47-9
   3. http://toxnet.nlm.nih.gov/cgi-bin/sis/search/r?dbs+hsdb:@term+@rn+@rel+303-47-9
   4. http://toxnet.nlm.nih.gov/cgi-bin/sis/search/r?dbs+hsdb:@term+@rn+@rel+303-47-9
   5. http://toxnet.nlm.nih.gov/cgi-bin/sis/search/r?dbs+hsdb:@term+@rn+@rel+303-47-9
   6. http://toxnet.nlm.nih.gov/cgi-bin/sis/search/r?dbs+hsdb:@term+@rn+@rel+303-47-9
   7. http://pubchem.ncbi.nlm.nih.gov/vw3d/vw3d.cgi?cid=442530
