46173956
  -OEChem-07051213102D

 42 42  0     1  0  0  0  0  0999 V2000
    4.7320   -0.0600    0.0000 O   0  0  0  0  0  0  0  0  0  0  0  0
    2.0000   -3.0600    0.0000 O   0  0  0  0  0  0  0  0  0  0  0  0
    6.3301    3.4400    0.0000 O   0  0  0  0  0  0  0  0  0  0  0  0
    3.7320   -1.0600    0.0000 C   0  0  2  0  0  0  0  0  0  0  0  0
    3.7320   -0.0600    0.0000 C   0  0  1  0  0  0  0  0  0  0  0  0
    2.8660   -1.5600    0.0000 C   0  0  0  0  0  0  0  0  0  0  0  0
    4.5981   -1.5600    0.0000 C   0  0  0  0  0  0  0  0  0  0  0  0
    3.7320    0.9400    0.0000 C   0  0  0  0  0  0  0  0  0  0  0  0
    2.7320   -0.0600    0.0000 C   0  0  0  0  0  0  0  0  0  0  0  0
    2.8660   -2.5600    0.0000 C   0  0  0  0  0  0  0  0  0  0  0  0
    4.5981   -2.5600    0.0000 C   0  0  0  0  0  0  0  0  0  0  0  0
    3.7320   -3.0600    0.0000 C   0  0  0  0  0  0  0  0  0  0  0  0
    4.5981    1.4400    0.0000 C   0  0  0  0  0  0  0  0  0  0  0  0
    4.5981    2.4400    0.0000 C   0  0  0  0  0  0  0  0  0  0  0  0
    3.7320   -4.0600    0.0000 C   0  0  0  0  0  0  0  0  0  0  0  0
    5.4641    2.9400    0.0000 C   0  0  0  0  0  0  0  0  0  0  0  0
    4.9641    3.8060    0.0000 C   0  0  0  0  0  0  0  0  0  0  0  0
    5.9641    2.0740    0.0000 C   0  0  0  0  0  0  0  0  0  0  0  0
    4.4682   -0.6350    0.0000 H   0  0  0  0  0  0  0  0  0  0  0  0
    2.6540   -0.9774    0.0000 H   0  0  0  0  0  0  0  0  0  0  0  0
    2.2554   -1.6677    0.0000 H   0  0  0  0  0  0  0  0  0  0  0  0
    5.2087   -1.6677    0.0000 H   0  0  0  0  0  0  0  0  0  0  0  0
    4.8101   -0.9774    0.0000 H   0  0  0  0  0  0  0  0  0  0  0  0
    3.5200    1.5226    0.0000 H   0  0  0  0  0  0  0  0  0  0  0  0
    3.1215    0.8323    0.0000 H   0  0  0  0  0  0  0  0  0  0  0  0
    2.7320    0.5600    0.0000 H   0  0  0  0  0  0  0  0  0  0  0  0
    2.1120   -0.0600    0.0000 H   0  0  0  0  0  0  0  0  0  0  0  0
    2.7320   -0.6800    0.0000 H   0  0  0  0  0  0  0  0  0  0  0  0
    5.1350   -2.8700    0.0000 H   0  0  0  0  0  0  0  0  0  0  0  0
    5.0420    0.4769    0.0000 H   0  0  0  0  0  0  0  0  0  0  0  0
    5.1350    1.1300    0.0000 H   0  0  0  0  0  0  0  0  0  0  0  0
    4.0611    2.7500    0.0000 H   0  0  0  0  0  0  0  0  0  0  0  0
    3.1120   -4.0600    0.0000 H   0  0  0  0  0  0  0  0  0  0  0  0
    3.7320   -4.6800    0.0000 H   0  0  0  0  0  0  0  0  0  0  0  0
    4.3520   -4.0600    0.0000 H   0  0  0  0  0  0  0  0  0  0  0  0
    5.5010    4.1160    0.0000 H   0  0  0  0  0  0  0  0  0  0  0  0
    4.6541    4.3430    0.0000 H   0  0  0  0  0  0  0  0  0  0  0  0
    4.4272    3.4960    0.0000 H   0  0  0  0  0  0  0  0  0  0  0  0
    5.4272    1.7640    0.0000 H   0  0  0  0  0  0  0  0  0  0  0  0
    6.2741    1.5370    0.0000 H   0  0  0  0  0  0  0  0  0  0  0  0
    6.5010    2.3840    0.0000 H   0  0  0  0  0  0  0  0  0  0  0  0
    6.3301    4.0600    0.0000 H   0  0  0  0  0  0  0  0  0  0  0  0
  5  1  1  6  0  0  0
  1 30  1  0  0  0  0
  2 10  2  0  0  0  0
  3 16  1  0  0  0  0
  3 42  1  0  0  0  0
  4  5  1  0  0  0  0
  4  6  1  0  0  0  0
  4  7  1  0  0  0  0
  4 19  1  6  0  0  0
  5  8  1  0  0  0  0
  5  9  1  0  0  0  0
  6 10  1  0  0  0  0
  6 20  1  0  0  0  0
  6 21  1  0  0  0  0
  7 11  1  0  0  0  0
  7 22  1  0  0  0  0
  7 23  1  0  0  0  0
  8 13  1  0  0  0  0
  8 24  1  0  0  0  0
  8 25  1  0  0  0  0
  9 26  1  0  0  0  0
  9 27  1  0  0  0  0
  9 28  1  0  0  0  0
 10 12  1  0  0  0  0
 11 12  2  0  0  0  0
 11 29  1  0  0  0  0
 12 15  1  0  0  0  0
 13 14  2  0  0  0  0
 13 31  1  0  0  0  0
 14 16  1  0  0  0  0
 14 32  1  0  0  0  0
 15 33  1  0  0  0  0
 15 34  1  0  0  0  0
 15 35  1  0  0  0  0
 16 17  1  0  0  0  0
 16 18  1  0  0  0  0
 17 36  1  0  0  0  0
 17 37  1  0  0  0  0
 17 38  1  0  0  0  0
 18 39  1  0  0  0  0
 18 40  1  0  0  0  0
 18 41  1  0  0  0  0
M  END
> <PUBCHEM_COMPOUND_CID>
46173956

> <PUBCHEM_COMPOUND_CANONICALIZED>
1

> <PUBCHEM_CACTVS_COMPLEXITY>
379

> <PUBCHEM_CACTVS_HBOND_ACCEPTOR>
3

> <PUBCHEM_CACTVS_HBOND_DONOR>
2

> <PUBCHEM_CACTVS_ROTATABLE_BOND>
4

> <PUBCHEM_CACTVS_SUBSKEYS>
AAADceBwMAAAAAAAAAAAAAAAAAAAAAAAAAAgAAAAAAAAAAAAAAAAGgAACAAADUSAgAACAAAAAgCIAqBSAAAAAAAgAAAICAEAAEgABBIAAQAAUAAEwAAIEYOKyMAOgAAAAAAAAAAAAAAAAAAAAAAAAAAAAA==

> <PUBCHEM_IUPAC_OPENEYE_NAME>
(5S)-5-[(E,1R)-1,5-dihydroxy-1,5-dimethyl-hex-3-enyl]-2-methyl-cyclohex-2-en-1-one

> <PUBCHEM_IUPAC_CAS_NAME>
(5S)-5-[(E,2R)-2,6-dihydroxy-6-methylhept-4-en-2-yl]-2-methyl-1-cyclohex-2-enone

> <PUBCHEM_IUPAC_NAME>
(5S)-5-[(E,2R)-2,6-dihydroxy-6-methylhept-4-en-2-yl]-2-methylcyclohex-2-en-1-one

> <PUBCHEM_IUPAC_SYSTEMATIC_NAME>
(5S)-2-methyl-5-[(E,2R)-6-methyl-2,6-bis(oxidanyl)hept-4-en-2-yl]cyclohex-2-en-1-one

> <PUBCHEM_IUPAC_TRADITIONAL_NAME>
(5S)-5-[(E,1R)-1,5-dihydroxy-1,5-dimethyl-hex-3-enyl]-2-methyl-cyclohex-2-en-1-one

> <PUBCHEM_IUPAC_INCHI>
InChI=1S/C15H24O3/c1-11-6-7-12(10-13(11)16)15(4,18)9-5-8-14(2,3)17/h5-6,8,12,17-18H,7,9-10H2,1-4H3/b8-5+/t12-,15+/m0/s1

> <PUBCHEM_IUPAC_INCHIKEY>
PJTUFUCFUDAEPU-YYTFBVJBSA-N

> <PUBCHEM_XLOGP3_AA>
1.4

> <PUBCHEM_EXACT_MASS>
252.172545

> <PUBCHEM_MOLECULAR_FORMULA>
C15H24O3

> <PUBCHEM_MOLECULAR_WEIGHT>
252.34926

> <PUBCHEM_OPENEYE_CAN_SMILES>
CC1=CCC(CC1=O)C(C)(CC=CC(C)(C)O)O

> <PUBCHEM_OPENEYE_ISO_SMILES>
CC1=CC[C@@H](CC1=O)[C@@](C)(C/C=C/C(C)(C)O)O

> <PUBCHEM_CACTVS_TPSA>
57.5

> <PUBCHEM_MONOISOTOPIC_WEIGHT>
252.172545

> <PUBCHEM_TOTAL_CHARGE>
0

> <PUBCHEM_HEAVY_ATOM_COUNT>
18

> <PUBCHEM_ATOM_DEF_STEREO_COUNT>
2

> <PUBCHEM_ATOM_UDEF_STEREO_COUNT>
0

> <PUBCHEM_BOND_DEF_STEREO_COUNT>
1

> <PUBCHEM_BOND_UDEF_STEREO_COUNT>
0

> <PUBCHEM_ISOTOPIC_ATOM_COUNT>
0

> <PUBCHEM_COMPONENT_COUNT>
1

> <PUBCHEM_CACTVS_TAUTO_COUNT>
5

> <PUBCHEM_COORDINATE_TYPE>
1
5
255

> <PUBCHEM_BONDANNOTATIONS>
5  1  6
4  19  6

$$$$

