   Color/Form
        Colorless crystals
   from [1]HSDB

   Melting Point
        45-46 deg C
   from [2]HSDB

   Octanol/Water Partition Coefficient
        log Kow = 3.59
   from [3]HSDB

   Solubilities

     * Solubility at 20 deg C - methanol (286 g/Kg); acetone (280 g/Kg);
       ethanol (95 g/Kg)
     * In water, 540 mg/L at 20 deg C

   from [4]HSDB

   Vapor Pressure
        2.1 m Pa /1.58X10-5 mm Hg/ at 20 deg C
   from [5]HSDB

   Other Chemical/Physical Properties

     * Changes color when exposed to light. Unstable in strong acidic and
       alkaline solutions. Stable up to 40 deg C. Alcohols may cause trans
       esterification.
     * Density 1.22 /Technical grade/
     * Henry's Law constant: 8.6X10-9 atm-cu m/mol at 20 deg C /Estimated/
     * Hydroxyl radical reaction rate constant = 4.6X10-11 cu
       m/molecule-sec at 25 deg C /Estimated/
     * Ozone rate constant = 3X10-20 cu cm/molec-sec at 25 deg C
       /Estimated/

   from [6]HSDB

   Computed Properties
   Molecular Weight                  223.6556 [g/mol]
   Molecular Formula                 C[11]H[10]ClNO[2]
   XLogP3                            3.1
   H-Bond Donor                      1
   H-Bond Acceptor                   2
   Rotatable Bond Count              3
   Tautomer Count                    2
   Exact Mass                        223.040006
   MonoIsotopic Mass                 223.040006
   Topological Polar Surface Area    38.3
   Heavy Atom Count                  15
   Formal Charge                     0
   Complexity                        271
   Isotope Atom Count                0
   Defined Atom Stereocenter Count   0
   Undefined Atom Stereocenter Count 1
   Defined Bond Stereocenter Count   0
   Undefined Bond Stereocenter Count 0
   Covalently-Bonded Unit Count      1
   Feature 3D Acceptor Count         1
   Feature 3D Donor Count            1
   Feature 3D Hydrophobe Count       1
   Feature 3D Ring Count             1
   Effective Rotor Count             4
   Conformer Sampling RMSD           0.6
   CID Conformer Count               [7]76

References

   1. http://toxnet.nlm.nih.gov/cgi-bin/sis/search/r?dbs+hsdb:@term+@rn+@rel+1967-16-4
   2. http://toxnet.nlm.nih.gov/cgi-bin/sis/search/r?dbs+hsdb:@term+@rn+@rel+1967-16-4
   3. http://toxnet.nlm.nih.gov/cgi-bin/sis/search/r?dbs+hsdb:@term+@rn+@rel+1967-16-4
   4. http://toxnet.nlm.nih.gov/cgi-bin/sis/search/r?dbs+hsdb:@term+@rn+@rel+1967-16-4
   5. http://toxnet.nlm.nih.gov/cgi-bin/sis/search/r?dbs+hsdb:@term+@rn+@rel+1967-16-4
   6. http://toxnet.nlm.nih.gov/cgi-bin/sis/search/r?dbs+hsdb:@term+@rn+@rel+1967-16-4
   7. http://pubchem.ncbi.nlm.nih.gov/vw3d/vw3d.cgi?cid=16073
