5280831
  -OEChem-07051212502D

120120  0     0  0  0  0  0  0999 V2000
    2.5369  -10.3450    0.0000 O   0  0  0  0  0  0  0  0  0  0  0  0
    6.0010  -13.3450    0.0000 O   0  0  0  0  0  0  0  0  0  0  0  0
    6.8671  -11.8450    0.0000 O   0  0  0  0  0  0  0  0  0  0  0  0
   11.1972    1.6550    0.0000 C   0  0  0  0  0  0  0  0  0  0  0  0
    9.4651   -1.3450    0.0000 C   0  0  0  0  0  0  0  0  0  0  0  0
   11.1972    2.6550    0.0000 C   0  0  0  0  0  0  0  0  0  0  0  0
   12.9292    4.6550    0.0000 C   0  0  0  0  0  0  0  0  0  0  0  0
    9.4651   -0.3450    0.0000 C   0  0  0  0  0  0  0  0  0  0  0  0
   10.3312    1.1550    0.0000 C   0  0  0  0  0  0  0  0  0  0  0  0
   12.9292    5.6550    0.0000 C   0  0  0  0  0  0  0  0  0  0  0  0
   12.0632    4.1550    0.0000 C   0  0  0  0  0  0  0  0  0  0  0  0
    7.7331   -4.3450    0.0000 C   0  0  0  0  0  0  0  0  0  0  0  0
    7.7331   -3.3450    0.0000 C   0  0  0  0  0  0  0  0  0  0  0  0
    8.5991   -1.8450    0.0000 C   0  0  0  0  0  0  0  0  0  0  0  0
   14.6613    7.6550    0.0000 C   0  0  0  0  0  0  0  0  0  0  0  0
   10.3312    0.1550    0.0000 C   0  0  0  0  0  0  0  0  0  0  0  0
   12.0632    3.1550    0.0000 C   0  0  0  0  0  0  0  0  0  0  0  0
   13.7953    7.1550    0.0000 C   0  0  0  0  0  0  0  0  0  0  0  0
    6.8671   -4.8450    0.0000 C   0  0  0  0  0  0  0  0  0  0  0  0
    8.5991   -2.8450    0.0000 C   0  0  0  0  0  0  0  0  0  0  0  0
   14.6613    8.6550    0.0000 C   0  0  0  0  0  0  0  0  0  0  0  0
   13.7953    6.1550    0.0000 C   0  0  0  0  0  0  0  0  0  0  0  0
    6.0010   -6.3450    0.0000 C   0  0  0  0  0  0  0  0  0  0  0  0
    6.0010   -7.3450    0.0000 C   0  0  0  0  0  0  0  0  0  0  0  0
    6.8671   -5.8450    0.0000 C   0  0  0  0  0  0  0  0  0  0  0  0
    9.4651    1.6550    0.0000 C   0  0  0  0  0  0  0  0  0  0  0  0
   15.5273    9.1550    0.0000 C   0  0  0  0  0  0  0  0  0  0  0  0
   15.5273   10.1550    0.0000 C   0  0  0  0  0  0  0  0  0  0  0  0
   11.1972    4.6550    0.0000 C   0  0  0  0  0  0  0  0  0  0  0  0
    7.7331   -1.3450    0.0000 C   0  0  0  0  0  0  0  0  0  0  0  0
    5.1350   -7.8450    0.0000 C   0  0  0  0  0  0  0  0  0  0  0  0
   16.3933   10.6550    0.0000 C   0  0  0  0  0  0  0  0  0  0  0  0
   12.9292    7.6550    0.0000 C   0  0  0  0  0  0  0  0  0  0  0  0
    6.0010   -4.3450    0.0000 C   0  0  0  0  0  0  0  0  0  0  0  0
   16.3933   11.6550    0.0000 C   0  0  0  0  0  0  0  0  0  0  0  0
    5.1350   -8.8450    0.0000 C   0  0  0  0  0  0  0  0  0  0  0  0
    4.2690   -9.3450    0.0000 C   0  0  0  0  0  0  0  0  0  0  0  0
   14.6613   10.6550    0.0000 C   0  0  0  0  0  0  0  0  0  0  0  0
    4.2690   -7.3450    0.0000 C   0  0  0  0  0  0  0  0  0  0  0  0
    4.2690  -10.3450    0.0000 C   0  0  0  0  0  0  0  0  0  0  0  0
   17.2594   12.1550    0.0000 C   0  0  0  0  0  0  0  0  0  0  0  0
   17.2594   13.1550    0.0000 C   0  0  0  0  0  0  0  0  0  0  0  0
    3.4030  -10.8450    0.0000 C   0  0  0  0  0  0  0  0  0  0  0  0
    5.1350  -10.8450    0.0000 C   0  0  0  0  0  0  0  0  0  0  0  0
    5.1350  -11.8450    0.0000 C   0  0  0  0  0  0  0  0  0  0  0  0
    3.4030  -11.8450    0.0000 C   0  0  0  0  0  0  0  0  0  0  0  0
   18.1254   13.6550    0.0000 C   0  0  0  0  0  0  0  0  0  0  0  0
   16.3933   13.6550    0.0000 C   0  0  0  0  0  0  0  0  0  0  0  0
    4.2690  -12.3450    0.0000 C   0  0  0  0  0  0  0  0  0  0  0  0
    6.0010  -12.3450    0.0000 C   0  0  0  0  0  0  0  0  0  0  0  0
   11.4092    1.0724    0.0000 H   0  0  0  0  0  0  0  0  0  0  0  0
   11.8078    1.7627    0.0000 H   0  0  0  0  0  0  0  0  0  0  0  0
    9.6772   -1.9276    0.0000 H   0  0  0  0  0  0  0  0  0  0  0  0
   10.0757   -1.2373    0.0000 H   0  0  0  0  0  0  0  0  0  0  0  0
   10.9851    3.2376    0.0000 H   0  0  0  0  0  0  0  0  0  0  0  0
   10.5866    2.5473    0.0000 H   0  0  0  0  0  0  0  0  0  0  0  0
   13.1413    4.0724    0.0000 H   0  0  0  0  0  0  0  0  0  0  0  0
   13.5398    4.7627    0.0000 H   0  0  0  0  0  0  0  0  0  0  0  0
    9.2531    0.2376    0.0000 H   0  0  0  0  0  0  0  0  0  0  0  0
    8.8546   -0.4527    0.0000 H   0  0  0  0  0  0  0  0  0  0  0  0
   12.7172    6.2376    0.0000 H   0  0  0  0  0  0  0  0  0  0  0  0
   12.3187    5.5473    0.0000 H   0  0  0  0  0  0  0  0  0  0  0  0
    7.9451   -4.9276    0.0000 H   0  0  0  0  0  0  0  0  0  0  0  0
    8.3437   -4.2373    0.0000 H   0  0  0  0  0  0  0  0  0  0  0  0
    7.5210   -2.7624    0.0000 H   0  0  0  0  0  0  0  0  0  0  0  0
    7.1225   -3.4527    0.0000 H   0  0  0  0  0  0  0  0  0  0  0  0
   14.8733    7.0724    0.0000 H   0  0  0  0  0  0  0  0  0  0  0  0
   15.2719    7.7627    0.0000 H   0  0  0  0  0  0  0  0  0  0  0  0
   10.8681   -0.1550    0.0000 H   0  0  0  0  0  0  0  0  0  0  0  0
   12.6002    2.8450    0.0000 H   0  0  0  0  0  0  0  0  0  0  0  0
    9.1360   -3.1550    0.0000 H   0  0  0  0  0  0  0  0  0  0  0  0
   14.4492    9.2376    0.0000 H   0  0  0  0  0  0  0  0  0  0  0  0
   14.0507    8.5473    0.0000 H   0  0  0  0  0  0  0  0  0  0  0  0
   14.3322    5.8450    0.0000 H   0  0  0  0  0  0  0  0  0  0  0  0
    5.7890   -5.7624    0.0000 H   0  0  0  0  0  0  0  0  0  0  0  0
    5.3905   -6.4527    0.0000 H   0  0  0  0  0  0  0  0  0  0  0  0
    6.2131   -7.9276    0.0000 H   0  0  0  0  0  0  0  0  0  0  0  0
    6.6116   -7.2373    0.0000 H   0  0  0  0  0  0  0  0  0  0  0  0
    7.4040   -6.1550    0.0000 H   0  0  0  0  0  0  0  0  0  0  0  0
    9.7751    2.1919    0.0000 H   0  0  0  0  0  0  0  0  0  0  0  0
    8.9282    1.9650    0.0000 H   0  0  0  0  0  0  0  0  0  0  0  0
    9.1551    1.1181    0.0000 H   0  0  0  0  0  0  0  0  0  0  0  0
   16.0643    8.8450    0.0000 H   0  0  0  0  0  0  0  0  0  0  0  0
   11.5072    5.1919    0.0000 H   0  0  0  0  0  0  0  0  0  0  0  0
   10.6603    4.9650    0.0000 H   0  0  0  0  0  0  0  0  0  0  0  0
   10.8872    4.1181    0.0000 H   0  0  0  0  0  0  0  0  0  0  0  0
    8.0431   -0.8081    0.0000 H   0  0  0  0  0  0  0  0  0  0  0  0
    7.1962   -1.0350    0.0000 H   0  0  0  0  0  0  0  0  0  0  0  0
    7.4231   -1.8819    0.0000 H   0  0  0  0  0  0  0  0  0  0  0  0
   16.6054   10.0724    0.0000 H   0  0  0  0  0  0  0  0  0  0  0  0
   17.0039   10.7627    0.0000 H   0  0  0  0  0  0  0  0  0  0  0  0
   13.2392    8.1919    0.0000 H   0  0  0  0  0  0  0  0  0  0  0  0
   12.3923    7.9650    0.0000 H   0  0  0  0  0  0  0  0  0  0  0  0
   12.6192    7.1181    0.0000 H   0  0  0  0  0  0  0  0  0  0  0  0
    6.3110   -3.8081    0.0000 H   0  0  0  0  0  0  0  0  0  0  0  0
    5.4641   -4.0350    0.0000 H   0  0  0  0  0  0  0  0  0  0  0  0
    5.6910   -4.8819    0.0000 H   0  0  0  0  0  0  0  0  0  0  0  0
   16.1813   12.2376    0.0000 H   0  0  0  0  0  0  0  0  0  0  0  0
   15.7828   11.5473    0.0000 H   0  0  0  0  0  0  0  0  0  0  0  0
    5.6720   -9.1550    0.0000 H   0  0  0  0  0  0  0  0  0  0  0  0
    4.0569   -8.7624    0.0000 H   0  0  0  0  0  0  0  0  0  0  0  0
    3.6584   -9.4527    0.0000 H   0  0  0  0  0  0  0  0  0  0  0  0
   14.9713   11.1919    0.0000 H   0  0  0  0  0  0  0  0  0  0  0  0
   14.1244   10.9650    0.0000 H   0  0  0  0  0  0  0  0  0  0  0  0
   14.3513   10.1181    0.0000 H   0  0  0  0  0  0  0  0  0  0  0  0
    4.5790   -6.8081    0.0000 H   0  0  0  0  0  0  0  0  0  0  0  0
    3.7320   -7.0350    0.0000 H   0  0  0  0  0  0  0  0  0  0  0  0
    3.9590   -7.8819    0.0000 H   0  0  0  0  0  0  0  0  0  0  0  0
   17.7963   11.8450    0.0000 H   0  0  0  0  0  0  0  0  0  0  0  0
    5.6720  -10.5350    0.0000 H   0  0  0  0  0  0  0  0  0  0  0  0
    2.8660  -12.1550    0.0000 H   0  0  0  0  0  0  0  0  0  0  0  0
   18.4354   13.1181    0.0000 H   0  0  0  0  0  0  0  0  0  0  0  0
   18.6623   13.9650    0.0000 H   0  0  0  0  0  0  0  0  0  0  0  0
   17.8154   14.1919    0.0000 H   0  0  0  0  0  0  0  0  0  0  0  0
   16.7033   14.1919    0.0000 H   0  0  0  0  0  0  0  0  0  0  0  0
   15.8564   13.9650    0.0000 H   0  0  0  0  0  0  0  0  0  0  0  0
   16.0833   13.1181    0.0000 H   0  0  0  0  0  0  0  0  0  0  0  0
    4.2690  -12.9650    0.0000 H   0  0  0  0  0  0  0  0  0  0  0  0
    2.0000  -10.6550    0.0000 H   0  0  0  0  0  0  0  0  0  0  0  0
    6.5380  -13.6550    0.0000 H   0  0  0  0  0  0  0  0  0  0  0  0
  1 43  1  0  0  0  0
  1119  1  0  0  0  0
  2 50  1  0  0  0  0
  2120  1  0  0  0  0
  3 50  2  0  0  0  0
  4  6  1  0  0  0  0
  4  9  1  0  0  0  0
  4 51  1  0  0  0  0
  4 52  1  0  0  0  0
  5  8  1  0  0  0  0
  5 14  1  0  0  0  0
  5 53  1  0  0  0  0
  5 54  1  0  0  0  0
  6 17  1  0  0  0  0
  6 55  1  0  0  0  0
  6 56  1  0  0  0  0
  7 10  1  0  0  0  0
  7 11  1  0  0  0  0
  7 57  1  0  0  0  0
  7 58  1  0  0  0  0
  8 16  1  0  0  0  0
  8 59  1  0  0  0  0
  8 60  1  0  0  0  0
  9 16  2  0  0  0  0
  9 26  1  0  0  0  0
 10 22  1  0  0  0  0
 10 61  1  0  0  0  0
 10 62  1  0  0  0  0
 11 17  2  0  0  0  0
 11 29  1  0  0  0  0
 12 13  1  0  0  0  0
 12 19  1  0  0  0  0
 12 63  1  0  0  0  0
 12 64  1  0  0  0  0
 13 20  1  0  0  0  0
 13 65  1  0  0  0  0
 13 66  1  0  0  0  0
 14 20  2  0  0  0  0
 14 30  1  0  0  0  0
 15 18  1  0  0  0  0
 15 21  1  0  0  0  0
 15 67  1  0  0  0  0
 15 68  1  0  0  0  0
 16 69  1  0  0  0  0
 17 70  1  0  0  0  0
 18 22  2  0  0  0  0
 18 33  1  0  0  0  0
 19 25  2  0  0  0  0
 19 34  1  0  0  0  0
 20 71  1  0  0  0  0
 21 27  1  0  0  0  0
 21 72  1  0  0  0  0
 21 73  1  0  0  0  0
 22 74  1  0  0  0  0
 23 24  1  0  0  0  0
 23 25  1  0  0  0  0
 23 75  1  0  0  0  0
 23 76  1  0  0  0  0
 24 31  1  0  0  0  0
 24 77  1  0  0  0  0
 24 78  1  0  0  0  0
 25 79  1  0  0  0  0
 26 80  1  0  0  0  0
 26 81  1  0  0  0  0
 26 82  1  0  0  0  0
 27 28  2  0  0  0  0
 27 83  1  0  0  0  0
 28 32  1  0  0  0  0
 28 38  1  0  0  0  0
 29 84  1  0  0  0  0
 29 85  1  0  0  0  0
 29 86  1  0  0  0  0
 30 87  1  0  0  0  0
 30 88  1  0  0  0  0
 30 89  1  0  0  0  0
 31 36  2  0  0  0  0
 31 39  1  0  0  0  0
 32 35  1  0  0  0  0
 32 90  1  0  0  0  0
 32 91  1  0  0  0  0
 33 92  1  0  0  0  0
 33 93  1  0  0  0  0
 33 94  1  0  0  0  0
 34 95  1  0  0  0  0
 34 96  1  0  0  0  0
 34 97  1  0  0  0  0
 35 41  1  0  0  0  0
 35 98  1  0  0  0  0
 35 99  1  0  0  0  0
 36 37  1  0  0  0  0
 36100  1  0  0  0  0
 37 40  1  0  0  0  0
 37101  1  0  0  0  0
 37102  1  0  0  0  0
 38103  1  0  0  0  0
 38104  1  0  0  0  0
 38105  1  0  0  0  0
 39106  1  0  0  0  0
 39107  1  0  0  0  0
 39108  1  0  0  0  0
 40 43  2  0  0  0  0
 40 44  1  0  0  0  0
 41 42  2  0  0  0  0
 41109  1  0  0  0  0
 42 47  1  0  0  0  0
 42 48  1  0  0  0  0
 43 46  1  0  0  0  0
 44 45  2  0  0  0  0
 44110  1  0  0  0  0
 45 49  1  0  0  0  0
 45 50  1  0  0  0  0
 46 49  2  0  0  0  0
 46111  1  0  0  0  0
 47112  1  0  0  0  0
 47113  1  0  0  0  0
 47114  1  0  0  0  0
 48115  1  0  0  0  0
 48116  1  0  0  0  0
 48117  1  0  0  0  0
 49118  1  0  0  0  0
M  END
> <PUBCHEM_COMPOUND_CID>
5280831

> <PUBCHEM_COMPOUND_CANONICALIZED>
1

> <PUBCHEM_CACTVS_COMPLEXITY>
1240

> <PUBCHEM_CACTVS_HBOND_ACCEPTOR>
3

> <PUBCHEM_CACTVS_HBOND_DONOR>
2

> <PUBCHEM_CACTVS_ROTATABLE_BOND>
24

> <PUBCHEM_CACTVS_SUBSKEYS>
AAADcfB8MAAAAAAAAAAAAAAAAAAAAAAAAAAwAAAAAAAAAAABAAAAGgAACAAADASAmAAyDoAAAgCIAiDSCAACAAAkIAAIiAEGCMgIJjKCFRKAcQAkwBEImYeI7OTOIAACAAAIAABAAAQAABAAAAAAAAAAAA==

> <PUBCHEM_IUPAC_OPENEYE_NAME>
4-hydroxy-3-[(2E,6E,10E,14E,18E,22E,26E)-3,7,11,15,19,23,27,31-octamethyldotriaconta-2,6,10,14,18,22,26,30-octaenyl]benzoic acid

> <PUBCHEM_IUPAC_CAS_NAME>
4-hydroxy-3-[(2E,6E,10E,14E,18E,22E,26E)-3,7,11,15,19,23,27,31-octamethyldotriaconta-2,6,10,14,18,22,26,30-octaenyl]benzoic acid

> <PUBCHEM_IUPAC_NAME>
4-hydroxy-3-[(2E,6E,10E,14E,18E,22E,26E)-3,7,11,15,19,23,27,31-octamethyldotriaconta-2,6,10,14,18,22,26,30-octaenyl]benzoic acid

> <PUBCHEM_IUPAC_SYSTEMATIC_NAME>
3-[(2E,6E,10E,14E,18E,22E,26E)-3,7,11,15,19,23,27,31-octamethyldotriaconta-2,6,10,14,18,22,26,30-octaenyl]-4-oxidanyl-benzoic acid

> <PUBCHEM_IUPAC_TRADITIONAL_NAME>
4-hydroxy-3-[(2E,6E,10E,14E,18E,22E,26E)-3,7,11,15,19,23,27,31-octamethyldotriaconta-2,6,10,14,18,22,26,30-octaenyl]benzoic acid

> <PUBCHEM_IUPAC_INCHI>
InChI=1S/C47H70O3/c1-36(2)17-10-18-37(3)19-11-20-38(4)21-12-22-39(5)23-13-24-40(6)25-14-26-41(7)27-15-28-42(8)29-16-30-43(9)31-32-44-35-45(47(49)50)33-34-46(44)48/h17,19,21,23,25,27,29,31,33-35,48H,10-16,18,20,22,24,26,28,30,32H2,1-9H3,(H,49,50)/b37-19+,38-21+,39-23+,40-25+,41-27+,42-29+,43-31+

> <PUBCHEM_IUPAC_INCHIKEY>
UTIBHEBNILDQKX-LQOKPSQISA-N

> <PUBCHEM_XLOGP3_AA>
16

> <PUBCHEM_EXACT_MASS>
682.532496

> <PUBCHEM_MOLECULAR_FORMULA>
C47H70O3

> <PUBCHEM_MOLECULAR_WEIGHT>
683.0569

> <PUBCHEM_OPENEYE_CAN_SMILES>
CC(=CCCC(=CCCC(=CCCC(=CCCC(=CCCC(=CCCC(=CCCC(=CCC1=C(C=CC(=C1)C(=O)O)O)C)C)C)C)C)C)C)C

> <PUBCHEM_OPENEYE_ISO_SMILES>
CC(=CCC/C(=C/CC/C(=C/CC/C(=C/CC/C(=C/CC/C(=C/CC/C(=C/CC/C(=C/CC1=C(C=CC(=C1)C(=O)O)O)/C)/C)/C)/C)/C)/C)/C)C

> <PUBCHEM_CACTVS_TPSA>
57.5

> <PUBCHEM_MONOISOTOPIC_WEIGHT>
682.532496

> <PUBCHEM_TOTAL_CHARGE>
0

> <PUBCHEM_HEAVY_ATOM_COUNT>
50

> <PUBCHEM_ATOM_DEF_STEREO_COUNT>
0

> <PUBCHEM_ATOM_UDEF_STEREO_COUNT>
0

> <PUBCHEM_BOND_DEF_STEREO_COUNT>
7

> <PUBCHEM_BOND_UDEF_STEREO_COUNT>
0

> <PUBCHEM_ISOTOPIC_ATOM_COUNT>
0

> <PUBCHEM_COMPONENT_COUNT>
1

> <PUBCHEM_CACTVS_TAUTO_COUNT>
5

> <PUBCHEM_COORDINATE_TYPE>
1
5
255

> <PUBCHEM_BONDANNOTATIONS>
40  43  8
40  44  8
43  46  8
44  45  8
45  49  8
46  49  8

$$$$

