17395573
  -OEChem-06241222512D

 47 49  0     1  0  0  0  0  0999 V2000
    3.9538    0.0901    0.0000 S   0  0  0  0  0  0  0  0  0  0  0  0
    5.1294    1.7081    0.0000 O   0  0  0  0  0  0  0  0  0  0  0  0
    3.7281    2.7262    0.0000 N   0  0  0  0  0  0  0  0  0  0  0  0
    3.6750   -1.6700    0.0000 N   0  0  0  0  0  0  0  0  0  0  0  0
    2.3660   -0.7189    0.0000 N   0  0  0  0  0  0  0  0  0  0  0  0
    2.0570   -1.6700    0.0000 N   0  0  0  0  0  0  0  0  0  0  0  0
    3.7320   -4.7578    0.0000 N   0  0  0  0  0  0  0  0  0  0  0  0
    3.5471    1.0036    0.0000 C   0  0  3  0  0  0  0  0  0  0  0  0
    4.1349    1.8126    0.0000 C   0  0  0  0  0  0  0  0  0  0  0  0
    2.7336    2.8307    0.0000 C   0  0  0  0  0  0  0  0  0  0  0  0
    4.3159    3.5352    0.0000 C   0  0  0  0  0  0  0  0  0  0  0  0
    2.5526    1.1082    0.0000 C   0  0  0  0  0  0  0  0  0  0  0  0
    3.3660   -0.7189    0.0000 C   0  0  0  0  0  0  0  0  0  0  0  0
    2.8660   -2.2578    0.0000 C   0  0  0  0  0  0  0  0  0  0  0  0
    2.3269    3.7443    0.0000 C   0  0  0  0  0  0  0  0  0  0  0  0
    5.3104    3.4307    0.0000 C   0  0  0  0  0  0  0  0  0  0  0  0
    3.9092    4.4488    0.0000 C   0  0  0  0  0  0  0  0  0  0  0  0
    2.8660   -3.2578    0.0000 C   0  0  0  0  0  0  0  0  0  0  0  0
    4.6261   -1.9790    0.0000 C   0  0  0  0  0  0  0  0  0  0  0  0
    5.8982    4.2397    0.0000 C   0  0  0  0  0  0  0  0  0  0  0  0
    4.4970    5.2578    0.0000 C   0  0  0  0  0  0  0  0  0  0  0  0
    5.4915    5.1532    0.0000 C   0  0  0  0  0  0  0  0  0  0  0  0
    2.0000   -3.7578    0.0000 C   0  0  0  0  0  0  0  0  0  0  0  0
    3.7320   -3.7578    0.0000 C   0  0  0  0  0  0  0  0  0  0  0  0
    2.0000   -4.7578    0.0000 C   0  0  0  0  0  0  0  0  0  0  0  0
    2.8660   -5.2578    0.0000 C   0  0  0  0  0  0  0  0  0  0  0  0
    3.1827    0.5020    0.0000 H   0  0  0  0  0  0  0  0  0  0  0  0
    2.1320    2.6807    0.0000 H   0  0  0  0  0  0  0  0  0  0  0  0
    2.7768    2.2122    0.0000 H   0  0  0  0  0  0  0  0  0  0  0  0
    2.6174    1.7248    0.0000 H   0  0  0  0  0  0  0  0  0  0  0  0
    1.9360    1.1730    0.0000 H   0  0  0  0  0  0  0  0  0  0  0  0
    2.4877    0.4916    0.0000 H   0  0  0  0  0  0  0  0  0  0  0  0
    2.8933    3.9964    0.0000 H   0  0  0  0  0  0  0  0  0  0  0  0
    2.0747    4.3107    0.0000 H   0  0  0  0  0  0  0  0  0  0  0  0
    1.7605    3.4921    0.0000 H   0  0  0  0  0  0  0  0  0  0  0  0
    5.5626    2.8643    0.0000 H   0  0  0  0  0  0  0  0  0  0  0  0
    3.2926    4.5136    0.0000 H   0  0  0  0  0  0  0  0  0  0  0  0
    4.4345   -2.5687    0.0000 H   0  0  0  0  0  0  0  0  0  0  0  0
    5.2158   -2.1706    0.0000 H   0  0  0  0  0  0  0  0  0  0  0  0
    4.8177   -1.3894    0.0000 H   0  0  0  0  0  0  0  0  0  0  0  0
    6.5148    4.1749    0.0000 H   0  0  0  0  0  0  0  0  0  0  0  0
    4.2448    5.8242    0.0000 H   0  0  0  0  0  0  0  0  0  0  0  0
    5.8559    5.6548    0.0000 H   0  0  0  0  0  0  0  0  0  0  0  0
    1.4631   -3.4478    0.0000 H   0  0  0  0  0  0  0  0  0  0  0  0
    4.2690   -3.4478    0.0000 H   0  0  0  0  0  0  0  0  0  0  0  0
    1.4631   -5.0678    0.0000 H   0  0  0  0  0  0  0  0  0  0  0  0
    2.8660   -5.8778    0.0000 H   0  0  0  0  0  0  0  0  0  0  0  0
  1  8  1  0  0  0  0
  1 13  1  0  0  0  0
  2  9  2  0  0  0  0
  3  9  1  0  0  0  0
  3 10  1  0  0  0  0
  3 11  1  0  0  0  0
  4 13  1  0  0  0  0
  4 14  1  0  0  0  0
  4 19  1  0  0  0  0
  5  6  1  0  0  0  0
  5 13  2  0  0  0  0
  6 14  2  0  0  0  0
  7 24  1  0  0  0  0
  7 26  2  0  0  0  0
  8  9  1  0  0  0  0
  8 12  1  0  0  0  0
  8 27  1  0  0  0  0
 10 15  1  0  0  0  0
 10 28  1  0  0  0  0
 10 29  1  0  0  0  0
 11 16  2  0  0  0  0
 11 17  1  0  0  0  0
 12 30  1  0  0  0  0
 12 31  1  0  0  0  0
 12 32  1  0  0  0  0
 14 18  1  0  0  0  0
 15 33  1  0  0  0  0
 15 34  1  0  0  0  0
 15 35  1  0  0  0  0
 16 20  1  0  0  0  0
 16 36  1  0  0  0  0
 17 21  2  0  0  0  0
 17 37  1  0  0  0  0
 18 23  1  0  0  0  0
 18 24  2  0  0  0  0
 19 38  1  0  0  0  0
 19 39  1  0  0  0  0
 19 40  1  0  0  0  0
 20 22  2  0  0  0  0
 20 41  1  0  0  0  0
 21 22  1  0  0  0  0
 21 42  1  0  0  0  0
 22 43  1  0  0  0  0
 23 25  2  0  0  0  0
 23 44  1  0  0  0  0
 24 45  1  0  0  0  0
 25 26  1  0  0  0  0
 25 46  1  0  0  0  0
 26 47  1  0  0  0  0
M  END
> <PUBCHEM_COMPOUND_CID>
17395573

> <PUBCHEM_COMPOUND_CANONICALIZED>
1

> <PUBCHEM_CACTVS_COMPLEXITY>
459

> <PUBCHEM_CACTVS_HBOND_ACCEPTOR>
5

> <PUBCHEM_CACTVS_HBOND_DONOR>
0

> <PUBCHEM_CACTVS_ROTATABLE_BOND>
6

> <PUBCHEM_CACTVS_SUBSKEYS>
AAADceB7oABAAAAAAAAAAAAAAAAAAWAAAAA8QAAAAAAAAAAB8AAAHgQIAAAADAjF2wS/0JcMEAiqAjd3dACS0CtxArAd2CE4ZJiIKOLA2ZGEIAhgjgLIyAcQAAAMAAAAAAAAAAAAAAAAAAAAAAAAAAAAAA==

> <PUBCHEM_IUPAC_OPENEYE_NAME>
N-ethyl-2-[[4-methyl-5-(3-pyridyl)-1,2,4-triazol-3-yl]sulfanyl]-N-phenyl-propanamide

> <PUBCHEM_IUPAC_CAS_NAME>
N-ethyl-2-[[4-methyl-5-(3-pyridinyl)-1,2,4-triazol-3-yl]thio]-N-phenylpropanamide

> <PUBCHEM_IUPAC_NAME>
N-ethyl-2-[(4-methyl-5-pyridin-3-yl-1,2,4-triazol-3-yl)sulfanyl]-N-phenylpropanamide

> <PUBCHEM_IUPAC_SYSTEMATIC_NAME>
N-ethyl-2-[(4-methyl-5-pyridin-3-yl-1,2,4-triazol-3-yl)sulfanyl]-N-phenyl-propanamide

> <PUBCHEM_IUPAC_TRADITIONAL_NAME>
N-ethyl-2-[[4-methyl-5-(3-pyridyl)-1,2,4-triazol-3-yl]thio]-N-phenyl-propionamide

> <PUBCHEM_IUPAC_INCHI>
InChI=1S/C19H21N5OS/c1-4-24(16-10-6-5-7-11-16)18(25)14(2)26-19-22-21-17(23(19)3)15-9-8-12-20-13-15/h5-14H,4H2,1-3H3

> <PUBCHEM_IUPAC_INCHIKEY>
PVOQDJJPKLXSJN-UHFFFAOYSA-N

> <PUBCHEM_XLOGP3_AA>
2.7

> <PUBCHEM_EXACT_MASS>
367.146681

> <PUBCHEM_MOLECULAR_FORMULA>
C19H21N5OS

> <PUBCHEM_MOLECULAR_WEIGHT>
367.46794

> <PUBCHEM_OPENEYE_CAN_SMILES>
CCN(C1=CC=CC=C1)C(=O)C(C)SC2=NN=C(N2C)C3=CN=CC=C3

> <PUBCHEM_OPENEYE_ISO_SMILES>
CCN(C1=CC=CC=C1)C(=O)C(C)SC2=NN=C(N2C)C3=CN=CC=C3

> <PUBCHEM_CACTVS_TPSA>
89.2

> <PUBCHEM_MONOISOTOPIC_WEIGHT>
367.146681

> <PUBCHEM_TOTAL_CHARGE>
0

> <PUBCHEM_HEAVY_ATOM_COUNT>
26

> <PUBCHEM_ATOM_DEF_STEREO_COUNT>
0

> <PUBCHEM_ATOM_UDEF_STEREO_COUNT>
1

> <PUBCHEM_BOND_DEF_STEREO_COUNT>
0

> <PUBCHEM_BOND_UDEF_STEREO_COUNT>
0

> <PUBCHEM_ISOTOPIC_ATOM_COUNT>
0

> <PUBCHEM_COMPONENT_COUNT>
1

> <PUBCHEM_CACTVS_TAUTO_COUNT>
1

> <PUBCHEM_COORDINATE_TYPE>
1
5
255

> <PUBCHEM_BONDANNOTATIONS>
11  16  8
11  17  8
16  20  8
17  21  8
18  23  8
18  24  8
20  22  8
21  22  8
23  25  8
25  26  8
4  13  8
4  14  8
5  13  8
5  6  8
6  14  8
7  24  8
7  26  8
8  12  3

$$$$

