   Color/Form

     * TABLETS FROM WATER, RHOMBIC PLATES
     * White crystals
     * Fused crystalline mass
     * Yellow to brown, crystalline solid.

   from [1]HSDB

   Odor
        Amine-like odor.
   from [2]HSDB

   Boiling Point
        243 deg C
   from [3]HSDB

   Melting Point
        57.2 deg C
   from [4]HSDB

   Density/Specific Gravity
        1.071 @ 57 deg C/4 deg C
   from [5]HSDB

   Dissociation Constants
        pKa = 5.34
   from [6]HSDB

   Octanol/Water Partition Coefficient
        log Kow = 0.95
   from [7]HSDB

   Solubilities

     * Sol in benzene; very sol in ether and ethanol
     * In water, 21,000 mg/l @ 20 deg C

   from [8]HSDB

   Spectral Properties

     * MAX ABSORPTION (ALCOHOL): 235 NM (LOG E= 3.97); 300 NM (LOG E=
       3.35)
     * Index of refraction: 1.5559 @ 60 deg C
     * IR: 5672 (Coblentz Society Spectral Collection)
     * UV: 392 (Sadtler Research Laboratories Spectral Collection)
     * MASS: 2314 (NIST/EPA/MSDC Mass Spectral Database, 1990 Version)
     * RAMAN: 236 (Sadtler Research Laboratories Spectral Collection)

   from [9]HSDB

   Vapor Density
        4.28 (Air= 1)
   from [10]HSDB

   Vapor Pressure
        3.0X10-2 mm Hg @ 20 deg C
   from [11]HSDB

   Other Chemical/Physical Properties
        Henry's Law constant = 6.60X10-8 atm-cu m/mol @ 25 deg C
   from [12]HSDB

   Computed Properties
   Molecular Weight                  123.15246 [g/mol]
   Molecular Formula                 C[7]H[9]NO
   XLogP3                            0.9
   H-Bond Donor                      1
   H-Bond Acceptor                   2
   Rotatable Bond Count              1
   Exact Mass                        123.068414
   MonoIsotopic Mass                 123.068414
   Topological Polar Surface Area    35.2
   Heavy Atom Count                  9
   Formal Charge                     0
   Complexity                        77
   Isotope Atom Count                0
   Defined Atom Stereocenter Count   0
   Undefined Atom Stereocenter Count 0
   Defined Bond Stereocenter Count   0
   Undefined Bond Stereocenter Count 0
   Covalently-Bonded Unit Count      1
   Feature 3D Acceptor Count         1
   Feature 3D Donor Count            1
   Feature 3D Cation Count           1
   Feature 3D Ring Count             1
   Effective Rotor Count             1
   Conformer Sampling RMSD           0.4
   CID Conformer Count               [13]1

References

   1. http://toxnet.nlm.nih.gov/cgi-bin/sis/search/r?dbs+hsdb:@term+@rn+@rel+104-94-9
   2. http://toxnet.nlm.nih.gov/cgi-bin/sis/search/r?dbs+hsdb:@term+@rn+@rel+104-94-9
   3. http://toxnet.nlm.nih.gov/cgi-bin/sis/search/r?dbs+hsdb:@term+@rn+@rel+104-94-9
   4. http://toxnet.nlm.nih.gov/cgi-bin/sis/search/r?dbs+hsdb:@term+@rn+@rel+104-94-9
   5. http://toxnet.nlm.nih.gov/cgi-bin/sis/search/r?dbs+hsdb:@term+@rn+@rel+104-94-9
   6. http://toxnet.nlm.nih.gov/cgi-bin/sis/search/r?dbs+hsdb:@term+@rn+@rel+104-94-9
   7. http://toxnet.nlm.nih.gov/cgi-bin/sis/search/r?dbs+hsdb:@term+@rn+@rel+104-94-9
   8. http://toxnet.nlm.nih.gov/cgi-bin/sis/search/r?dbs+hsdb:@term+@rn+@rel+104-94-9
   9. http://toxnet.nlm.nih.gov/cgi-bin/sis/search/r?dbs+hsdb:@term+@rn+@rel+104-94-9
  10. http://toxnet.nlm.nih.gov/cgi-bin/sis/search/r?dbs+hsdb:@term+@rn+@rel+104-94-9
  11. http://toxnet.nlm.nih.gov/cgi-bin/sis/search/r?dbs+hsdb:@term+@rn+@rel+104-94-9
  12. http://toxnet.nlm.nih.gov/cgi-bin/sis/search/r?dbs+hsdb:@term+@rn+@rel+104-94-9
  13. http://pubchem.ncbi.nlm.nih.gov/vw3d/vw3d.cgi?cid=7732
