   Color/Form

     * Crystals
     * WHITE TO PRACTICALLY WHITE, CRYSTALLINE POWDER

   from [1]HSDB

   Odor
        ODORLESS
   from [2]HSDB

   Taste
        Persistant bitter after-taste
   from [3]HSDB

   Melting Point
        233-235 deg C decomposition
   from [4]HSDB

   Octanol/Water Partition Coefficient
        log Kow = 1.46
   from [5]HSDB

   pH
        Prednisone-syrup has a pH of 3-4.5 and contains 2-5% alcohol.
   Prednisone oral solution has a pH of 2.6-3.6 and contains 4-6% alcohol,
   and the oral concentrate solution has a pH of 3-4 and contains about
   30% alcohol.
   from [6]HSDB

   Solubilities

     * Very slightly sol in water; 1 g sol in 150 mL alcohol, in 200 mL
       chloroform; slightly sol in methanol.
     * In water, 3.12X10+2 mg/L at 25 deg C (est)

   from [7]HSDB

   Spectral Properties

     * Specific optical rotation: +172 deg at 25 deg C/D (dioxane); max
       absorption (methanol): 238 nm (e= 15,500)
     * Intense mass spectral peaks: 122 m/z, 147 m/z, 314 m/z, 372 m/z.
     * MASS: 42900 (NIST/EPA/MSDC Mass Spectral Database, 1990 version)
     * IR: 5124 (Coblentz Society Spectral Collection)
     * UV: 4-867 (Organic Electronic Spectral Data, Phillips et al, John
       Wiley & Sons, New York)

   from [8]HSDB

   Vapor Pressure
        5.09X10-13 mm Hg at 25 deg C (est)
   from [9]HSDB

   Other Chemical/Physical Properties

     * Crystals, decomposes 226-232 deg C, specific optical rotation: +186
       (dioxane), maximum UV adsorption: 238 nm (E 16,1000) /21-Acetate/
     * Henry's Law constant = 2.83X10-10 atm-cu m/mole at 25 deg C (est)
     * Hydroxyl radical reaction rate constant = 6.79X10-11 cu cm/mol-sec
       at 25 deg C (est)
     * Ozone radical reaction rate constant = 1.31X10-17 cu cm/molec-sec
       at 25 deg C (est)

   from [10]HSDB

   Computed Properties
   Molecular Weight                  358.42814 [g/mol]
   Molecular Formula                 C[21]H[26]O[5]
   XLogP3                            1.5
   H-Bond Donor                      2
   H-Bond Acceptor                   5
   Rotatable Bond Count              2
   Tautomer Count                    27
   Exact Mass                        358.178024
   MonoIsotopic Mass                 358.178024
   Topological Polar Surface Area    91.7
   Heavy Atom Count                  26
   Formal Charge                     0
   Complexity                        764
   Isotope Atom Count                0
   Defined Atom Stereocenter Count   6
   Undefined Atom Stereocenter Count 0
   Defined Bond Stereocenter Count   0
   Undefined Bond Stereocenter Count 0
   Covalently-Bonded Unit Count      1
   Feature 3D Acceptor Count         5
   Feature 3D Donor Count            2
   Feature 3D Ring Count             4
   Effective Rotor Count             3.2
   Conformer Sampling RMSD           0.6
   CID Conformer Count               [11]3

References

   1. http://toxnet.nlm.nih.gov/cgi-bin/sis/search/r?dbs+hsdb:@term+@rn+@rel+53-03-2
   2. http://toxnet.nlm.nih.gov/cgi-bin/sis/search/r?dbs+hsdb:@term+@rn+@rel+53-03-2
   3. http://toxnet.nlm.nih.gov/cgi-bin/sis/search/r?dbs+hsdb:@term+@rn+@rel+53-03-2
   4. http://toxnet.nlm.nih.gov/cgi-bin/sis/search/r?dbs+hsdb:@term+@rn+@rel+53-03-2
   5. http://toxnet.nlm.nih.gov/cgi-bin/sis/search/r?dbs+hsdb:@term+@rn+@rel+53-03-2
   6. http://toxnet.nlm.nih.gov/cgi-bin/sis/search/r?dbs+hsdb:@term+@rn+@rel+53-03-2
   7. http://toxnet.nlm.nih.gov/cgi-bin/sis/search/r?dbs+hsdb:@term+@rn+@rel+53-03-2
   8. http://toxnet.nlm.nih.gov/cgi-bin/sis/search/r?dbs+hsdb:@term+@rn+@rel+53-03-2
   9. http://toxnet.nlm.nih.gov/cgi-bin/sis/search/r?dbs+hsdb:@term+@rn+@rel+53-03-2
  10. http://toxnet.nlm.nih.gov/cgi-bin/sis/search/r?dbs+hsdb:@term+@rn+@rel+53-03-2
  11. http://pubchem.ncbi.nlm.nih.gov/vw3d/vw3d.cgi?cid=5865
