93460
  -OEChem-07051213112D

 40 41  0     1  0  0  0  0  0999 V2000
    5.3172   -5.3533    0.0000 Cl  0  0  0  0  0  0  0  0  0  0  0  0
    5.0428    2.8217    0.0000 S   0  0  0  0  0  0  0  0  0  0  0  0
    4.6361    1.9081    0.0000 P   0  0  3  0  0  0  0  0  0  0  0  0
    4.2294    0.9946    0.0000 O   0  0  0  0  0  0  0  0  0  0  0  0
    3.7226    2.3149    0.0000 O   0  0  0  0  0  0  0  0  0  0  0  0
    5.5496    1.5014    0.0000 O   0  0  0  0  0  0  0  0  0  0  0  0
    5.3172   -1.3533    0.0000 N   0  0  0  0  0  0  0  0  0  0  0  0
    6.1262   -0.7655    0.0000 N   0  0  0  0  0  0  0  0  0  0  0  0
    4.4551    3.6307    0.0000 C   0  0  0  0  0  0  0  0  0  0  0  0
    4.8618    4.5442    0.0000 C   0  0  0  0  0  0  0  0  0  0  0  0
    4.8172    0.1856    0.0000 C   0  0  0  0  0  0  0  0  0  0  0  0
    5.3172   -2.3533    0.0000 C   0  0  0  0  0  0  0  0  0  0  0  0
    4.5081   -0.7655    0.0000 C   0  0  0  0  0  0  0  0  0  0  0  0
    5.8172    0.1856    0.0000 C   0  0  0  0  0  0  0  0  0  0  0  0
    4.2740    5.3533    0.0000 C   0  0  0  0  0  0  0  0  0  0  0  0
    2.9136    1.7271    0.0000 C   0  0  0  0  0  0  0  0  0  0  0  0
    4.4511   -2.8533    0.0000 C   0  0  0  0  0  0  0  0  0  0  0  0
    6.1832   -2.8533    0.0000 C   0  0  0  0  0  0  0  0  0  0  0  0
    4.4511   -3.8533    0.0000 C   0  0  0  0  0  0  0  0  0  0  0  0
    6.1832   -3.8533    0.0000 C   0  0  0  0  0  0  0  0  0  0  0  0
    2.0000    2.1338    0.0000 C   0  0  0  0  0  0  0  0  0  0  0  0
    5.3172   -4.3533    0.0000 C   0  0  0  0  0  0  0  0  0  0  0  0
    3.9411    3.9774    0.0000 H   0  0  0  0  0  0  0  0  0  0  0  0
    4.0244    3.1847    0.0000 H   0  0  0  0  0  0  0  0  0  0  0  0
    5.3758    4.1976    0.0000 H   0  0  0  0  0  0  0  0  0  0  0  0
    5.2925    4.9902    0.0000 H   0  0  0  0  0  0  0  0  0  0  0  0
    3.9185   -0.9571    0.0000 H   0  0  0  0  0  0  0  0  0  0  0  0
    4.7756    5.7177    0.0000 H   0  0  0  0  0  0  0  0  0  0  0  0
    3.9096    5.8548    0.0000 H   0  0  0  0  0  0  0  0  0  0  0  0
    3.7724    4.9888    0.0000 H   0  0  0  0  0  0  0  0  0  0  0  0
    6.1816    0.6872    0.0000 H   0  0  0  0  0  0  0  0  0  0  0  0
    2.5668    1.2131    0.0000 H   0  0  0  0  0  0  0  0  0  0  0  0
    3.3595    1.2964    0.0000 H   0  0  0  0  0  0  0  0  0  0  0  0
    3.9142   -2.5433    0.0000 H   0  0  0  0  0  0  0  0  0  0  0  0
    6.7201   -2.5433    0.0000 H   0  0  0  0  0  0  0  0  0  0  0  0
    3.9142   -4.1633    0.0000 H   0  0  0  0  0  0  0  0  0  0  0  0
    6.7201   -4.1633    0.0000 H   0  0  0  0  0  0  0  0  0  0  0  0
    2.2522    2.7002    0.0000 H   0  0  0  0  0  0  0  0  0  0  0  0
    1.4336    2.3860    0.0000 H   0  0  0  0  0  0  0  0  0  0  0  0
    1.7478    1.5674    0.0000 H   0  0  0  0  0  0  0  0  0  0  0  0
  1 22  1  0  0  0  0
  2  3  1  0  0  0  0
  2  9  1  0  0  0  0
  3  4  1  0  0  0  0
  3  5  1  0  0  0  0
  3  6  2  0  0  0  0
  4 11  1  0  0  0  0
  5 16  1  0  0  0  0
  7  8  1  0  0  0  0
  7 12  1  0  0  0  0
  7 13  1  0  0  0  0
  8 14  2  0  0  0  0
  9 10  1  0  0  0  0
  9 23  1  0  0  0  0
  9 24  1  0  0  0  0
 10 15  1  0  0  0  0
 10 25  1  0  0  0  0
 10 26  1  0  0  0  0
 11 13  2  0  0  0  0
 11 14  1  0  0  0  0
 12 17  2  0  0  0  0
 12 18  1  0  0  0  0
 13 27  1  0  0  0  0
 14 31  1  0  0  0  0
 15 28  1  0  0  0  0
 15 29  1  0  0  0  0
 15 30  1  0  0  0  0
 16 21  1  0  0  0  0
 16 32  1  0  0  0  0
 16 33  1  0  0  0  0
 17 19  1  0  0  0  0
 17 34  1  0  0  0  0
 18 20  2  0  0  0  0
 18 35  1  0  0  0  0
 19 22  2  0  0  0  0
 19 36  1  0  0  0  0
 20 22  1  0  0  0  0
 20 37  1  0  0  0  0
 21 38  1  0  0  0  0
 21 39  1  0  0  0  0
 21 40  1  0  0  0  0
M  END
> <PUBCHEM_COMPOUND_CID>
93460

> <PUBCHEM_COMPOUND_CANONICALIZED>
1

> <PUBCHEM_CACTVS_COMPLEXITY>
383

> <PUBCHEM_CACTVS_HBOND_ACCEPTOR>
5

> <PUBCHEM_CACTVS_HBOND_DONOR>
0

> <PUBCHEM_CACTVS_ROTATABLE_BOND>
8

> <PUBCHEM_CACTVS_SUBSKEYS>
AAADceBzMAJEAAAAAAAAAAAAAAAAAWAAAAAwAAAAAAAAAAABwAAAHgYIACAACA7l0ia+xpIIARCiQDRnRISSBCAxxwAYmCArZpgKIOLB09GEpAhgiADYyAcQAAAAAABAAAAAAAAAAIAAAAAAAAAAAAAAAA==

> <PUBCHEM_IUPAC_OPENEYE_NAME>
1-(4-chlorophenyl)-4-[ethoxy(propylsulfanyl)phosphoryl]oxy-pyrazole

> <PUBCHEM_IUPAC_CAS_NAME>
1-(4-chlorophenyl)-4-[ethoxy-(propylthio)phosphoryl]oxypyrazole

> <PUBCHEM_IUPAC_NAME>
1-(4-chlorophenyl)-4-[ethoxy(propylsulfanyl)phosphoryl]oxypyrazole

> <PUBCHEM_IUPAC_SYSTEMATIC_NAME>
1-(4-chlorophenyl)-4-[ethoxy(propylsulfanyl)phosphoryl]oxy-pyrazole

> <PUBCHEM_IUPAC_TRADITIONAL_NAME>
1-(4-chlorophenyl)-4-[ethoxy-(propylthio)phosphoryl]oxy-pyrazole

> <PUBCHEM_IUPAC_INCHI>
InChI=1S/C14H18ClN2O3PS/c1-3-9-22-21(18,19-4-2)20-14-10-16-17(11-14)13-7-5-12(15)6-8-13/h5-8,10-11H,3-4,9H2,1-2H3

> <PUBCHEM_IUPAC_INCHIKEY>
QHGVXILFMXYDRS-UHFFFAOYSA-N

> <PUBCHEM_XLOGP3>
3.8

> <PUBCHEM_EXACT_MASS>
360.046428

> <PUBCHEM_MOLECULAR_FORMULA>
C14H18ClN2O3PS

> <PUBCHEM_MOLECULAR_WEIGHT>
360.796082

> <PUBCHEM_OPENEYE_CAN_SMILES>
CCCSP(=O)(OCC)OC1=CN(N=C1)C2=CC=C(C=C2)Cl

> <PUBCHEM_OPENEYE_ISO_SMILES>
CCCSP(=O)(OCC)OC1=CN(N=C1)C2=CC=C(C=C2)Cl

> <PUBCHEM_CACTVS_TPSA>
78.6

> <PUBCHEM_MONOISOTOPIC_WEIGHT>
360.046428

> <PUBCHEM_TOTAL_CHARGE>
0

> <PUBCHEM_HEAVY_ATOM_COUNT>
22

> <PUBCHEM_ATOM_DEF_STEREO_COUNT>
0

> <PUBCHEM_ATOM_UDEF_STEREO_COUNT>
1

> <PUBCHEM_BOND_DEF_STEREO_COUNT>
0

> <PUBCHEM_BOND_UDEF_STEREO_COUNT>
0

> <PUBCHEM_ISOTOPIC_ATOM_COUNT>
0

> <PUBCHEM_COMPONENT_COUNT>
1

> <PUBCHEM_CACTVS_TAUTO_COUNT>
1

> <PUBCHEM_COORDINATE_TYPE>
1
5
255

> <PUBCHEM_BONDANNOTATIONS>
11  13  8
11  14  8
12  17  8
12  18  8
17  19  8
18  20  8
19  22  8
20  22  8
3  4  3
7  13  8
7  8  8
8  14  8

$$$$

