146261
  -OEChem-07051213012D

 10 10  0     1  0  0  0  0  0999 V2000
    3.3660    0.6830    0.0000 O   0  0  0  0  0  0  0  0  0  0  0  0
    2.8660   -0.1830    0.0000 C   0  0  1  0  0  0  0  0  0  0  0  0
    3.8660   -0.1830    0.0000 C   0  0  0  0  0  0  0  0  0  0  0  0
    2.0000   -0.6830    0.0000 C   0  0  0  0  0  0  0  0  0  0  0  0
    2.4276    0.2554    0.0000 H   0  0  0  0  0  0  0  0  0  0  0  0
    3.9737   -0.7936    0.0000 H   0  0  0  0  0  0  0  0  0  0  0  0
    4.4486    0.0290    0.0000 H   0  0  0  0  0  0  0  0  0  0  0  0
    1.6900   -0.1461    0.0000 H   0  0  0  0  0  0  0  0  0  0  0  0
    1.4631   -0.9930    0.0000 H   0  0  0  0  0  0  0  0  0  0  0  0
    2.3100   -1.2200    0.0000 H   0  0  0  0  0  0  0  0  0  0  0  0
  1  2  1  0  0  0  0
  1  3  1  0  0  0  0
  2  3  1  0  0  0  0
  2  4  1  1  0  0  0
  2  5  1  0  0  0  0
  3  6  1  0  0  0  0
  3  7  1  0  0  0  0
  4  8  1  0  0  0  0
  4  9  1  0  0  0  0
  4 10  1  0  0  0  0
M  END
> <PUBCHEM_COMPOUND_CID>
146261

> <PUBCHEM_COMPOUND_CANONICALIZED>
1

> <PUBCHEM_CACTVS_COMPLEXITY>
26.5

> <PUBCHEM_CACTVS_HBOND_ACCEPTOR>
1

> <PUBCHEM_CACTVS_HBOND_DONOR>
0

> <PUBCHEM_CACTVS_ROTATABLE_BOND>
0

> <PUBCHEM_CACTVS_SUBSKEYS>
AAADcYBAIAAAAAAAAAAAAAAAEgAAAAAAAAAAAAAAAAAAAAAAAAAAGgAAAAAACBSggAICAAAABAAAAAAAAAAAAAAAAAAAAAAAAAAAAAAAAAAAAAAAAAAAAAAAAAAAAAAAAAAAAAAAAAAAAAAAAAAAAAAAAA==

> <PUBCHEM_IUPAC_OPENEYE_NAME>
(2R)-2-methyloxirane

> <PUBCHEM_IUPAC_CAS_NAME>
(2R)-2-methyloxirane

> <PUBCHEM_IUPAC_NAME>
(2R)-2-methyloxirane

> <PUBCHEM_IUPAC_SYSTEMATIC_NAME>
(2R)-2-methyloxirane

> <PUBCHEM_IUPAC_TRADITIONAL_NAME>
(2R)-2-methyloxirane

> <PUBCHEM_IUPAC_INCHI>
InChI=1S/C3H6O/c1-3-2-4-3/h3H,2H2,1H3/t3-/m1/s1

> <PUBCHEM_IUPAC_INCHIKEY>
GOOHAUXETOMSMM-GSVOUGTGSA-N

> <PUBCHEM_XLOGP3>
0

> <PUBCHEM_EXACT_MASS>
58.041865

> <PUBCHEM_MOLECULAR_FORMULA>
C3H6O

> <PUBCHEM_MOLECULAR_WEIGHT>
58.07914

> <PUBCHEM_OPENEYE_CAN_SMILES>
CC1CO1

> <PUBCHEM_OPENEYE_ISO_SMILES>
C[C@@H]1CO1

> <PUBCHEM_CACTVS_TPSA>
12.5

> <PUBCHEM_MONOISOTOPIC_WEIGHT>
58.041865

> <PUBCHEM_TOTAL_CHARGE>
0

> <PUBCHEM_HEAVY_ATOM_COUNT>
4

> <PUBCHEM_ATOM_DEF_STEREO_COUNT>
1

> <PUBCHEM_ATOM_UDEF_STEREO_COUNT>
0

> <PUBCHEM_BOND_DEF_STEREO_COUNT>
0

> <PUBCHEM_BOND_UDEF_STEREO_COUNT>
0

> <PUBCHEM_ISOTOPIC_ATOM_COUNT>
0

> <PUBCHEM_COMPONENT_COUNT>
1

> <PUBCHEM_CACTVS_TAUTO_COUNT>
1

> <PUBCHEM_COORDINATE_TYPE>
1
5
255

> <PUBCHEM_BONDANNOTATIONS>
2  4  5

$$$$

