   Color/Form

     * Tan crystalline solid
     * The commercial product may be slightly brownish.

   from [1]HSDB

   Odor
        Slight sulfur-like odor
   from [2]HSDB

   Melting Point
        91 DEG C
   from [3]HSDB

   Density/Specific Gravity
        1.47 @ 20 deg C/4 deg C
   from [4]HSDB

   Octanol/Water Partition Coefficient
        log Kow= 4.13
   from [5]HSDB

   Solubilities

     * SLIGHTLY SOL IN ACETONE, CHLOROFORM, CORN OIL
     * Somewhat soluble in acetone, chloroform, corn oil.
     * 1.5 ppm in water
     * water solubility = 1.5 mg/l

   from [6]HSDB

   Spectral Properties
        Intense mass spectral peaks: 362 m/z (100%), 109 m/z (95%), 226
   m/z (78%), 97 m/z (74%)
   from [7]HSDB

   Vapor Pressure
        9.7X10-8 mm Hg @ 20 deg C
   from [8]HSDB

   Other Chemical/Physical Properties

     * Is hydrolyzed in alkaline media
     * STABLE IN WATER

   from [9]HSDB

   Computed Properties
   Molecular Weight                  362.765602 [g/mol]
   Molecular Formula                 C[14]H[16]ClO[5]PS
   XLogP3-AA                         4.5
   H-Bond Donor                      0
   H-Bond Acceptor                   6
   Rotatable Bond Count              6
   Exact Mass                        362.014459
   MonoIsotopic Mass                 362.014459
   Topological Polar Surface Area    86.1
   Heavy Atom Count                  22
   Formal Charge                     0
   Complexity                        500
   Isotope Atom Count                0
   Defined Atom Stereocenter Count   0
   Undefined Atom Stereocenter Count 0
   Defined Bond Stereocenter Count   0
   Undefined Bond Stereocenter Count 0
   Covalently-Bonded Unit Count      1
   Feature 3D Acceptor Count         1
   Feature 3D Ring Count             2
   Effective Rotor Count             6
   Conformer Sampling RMSD           0.8
   CID Conformer Count               [10]40

References

   1. http://toxnet.nlm.nih.gov/cgi-bin/sis/search/r?dbs+hsdb:@term+@rn+@rel+56-72-4
   2. http://toxnet.nlm.nih.gov/cgi-bin/sis/search/r?dbs+hsdb:@term+@rn+@rel+56-72-4
   3. http://toxnet.nlm.nih.gov/cgi-bin/sis/search/r?dbs+hsdb:@term+@rn+@rel+56-72-4
   4. http://toxnet.nlm.nih.gov/cgi-bin/sis/search/r?dbs+hsdb:@term+@rn+@rel+56-72-4
   5. http://toxnet.nlm.nih.gov/cgi-bin/sis/search/r?dbs+hsdb:@term+@rn+@rel+56-72-4
   6. http://toxnet.nlm.nih.gov/cgi-bin/sis/search/r?dbs+hsdb:@term+@rn+@rel+56-72-4
   7. http://toxnet.nlm.nih.gov/cgi-bin/sis/search/r?dbs+hsdb:@term+@rn+@rel+56-72-4
   8. http://toxnet.nlm.nih.gov/cgi-bin/sis/search/r?dbs+hsdb:@term+@rn+@rel+56-72-4
   9. http://toxnet.nlm.nih.gov/cgi-bin/sis/search/r?dbs+hsdb:@term+@rn+@rel+56-72-4
  10. http://pubchem.ncbi.nlm.nih.gov/vw3d/vw3d.cgi?cid=2871
