   Color/Form

     * Crystals from alc
     * White powder
     * White, amorphous powder

   from [1]HSDB

   Odor
        Odorless
   from [2]HSDB

   Taste
        Tasteless
   from [3]HSDB

   Boiling Point
        173-174 deg C @ 8 mm Hg
   from [4]HSDB

   Melting Point
        58 deg C
   from [5]HSDB

   Dissociation Constants
        pKa= 2.47
   from [6]HSDB

   Octanol/Water Partition Coefficient
        log Kow= 2.87
   from [7]HSDB

   Solubilities

     * 1 g dissolves in about 7 liters water
     * Sol in dil acids, alc, chloroform, ether, and fatty oils.
     * Soluble in dilute acids, alcohol, chloroform, ether, and fatty
       oils.
     * Soluble in thanol, ethyl ether, and benzene.
     * In water, 3.35X10+2 mg/l @ 25 deg C

   from [8]HSDB

   Spectral Properties

     * IR: 5154 (Sadtler Research Laboratories Prism Collection)
     * UV: 1402 (Sadtler Research Laboratories Spectral Collection)
     * NMR: 243 (Sadtler Research Laboratories Spectral Collection)

   from [9]HSDB

   Other Chemical/Physical Properties

     * Hydrolyzed slowly when boiled with water
     * ALKALI HYDROXIDES ACCELERATE HYDROLYSIS

   from [10]HSDB

   Computed Properties
   Molecular Weight                  193.2423 [g/mol]
   Molecular Formula                 C[11]H[15]NO[2]
   XLogP3                            2.9
   H-Bond Donor                      1
   H-Bond Acceptor                   3
   Rotatable Bond Count              5
   Tautomer Count                    3
   Exact Mass                        193.110279
   MonoIsotopic Mass                 193.110279
   Topological Polar Surface Area    52.3
   Heavy Atom Count                  14
   Formal Charge                     0
   Complexity                        174
   Isotope Atom Count                0
   Defined Atom Stereocenter Count   0
   Undefined Atom Stereocenter Count 0
   Defined Bond Stereocenter Count   0
   Undefined Bond Stereocenter Count 0
   Covalently-Bonded Unit Count      1
   Feature 3D Acceptor Count         1
   Feature 3D Donor Count            1
   Feature 3D Cation Count           1
   Feature 3D Hydrophobe Count       1
   Feature 3D Ring Count             1
   Effective Rotor Count             5
   Conformer Sampling RMSD           0.6
   CID Conformer Count               [11]77

References

   1. http://toxnet.nlm.nih.gov/cgi-bin/sis/search/r?dbs+hsdb:@term+@rn+@rel+94-25-7
   2. http://toxnet.nlm.nih.gov/cgi-bin/sis/search/r?dbs+hsdb:@term+@rn+@rel+94-25-7
   3. http://toxnet.nlm.nih.gov/cgi-bin/sis/search/r?dbs+hsdb:@term+@rn+@rel+94-25-7
   4. http://toxnet.nlm.nih.gov/cgi-bin/sis/search/r?dbs+hsdb:@term+@rn+@rel+94-25-7
   5. http://toxnet.nlm.nih.gov/cgi-bin/sis/search/r?dbs+hsdb:@term+@rn+@rel+94-25-7
   6. http://toxnet.nlm.nih.gov/cgi-bin/sis/search/r?dbs+hsdb:@term+@rn+@rel+94-25-7
   7. http://toxnet.nlm.nih.gov/cgi-bin/sis/search/r?dbs+hsdb:@term+@rn+@rel+94-25-7
   8. http://toxnet.nlm.nih.gov/cgi-bin/sis/search/r?dbs+hsdb:@term+@rn+@rel+94-25-7
   9. http://toxnet.nlm.nih.gov/cgi-bin/sis/search/r?dbs+hsdb:@term+@rn+@rel+94-25-7
  10. http://toxnet.nlm.nih.gov/cgi-bin/sis/search/r?dbs+hsdb:@term+@rn+@rel+94-25-7
  11. http://pubchem.ncbi.nlm.nih.gov/vw3d/vw3d.cgi?cid=2482
