442819
  -OEChem-07051212592D

 48 52  0     1  0  0  0  0  0999 V2000
    3.2118   -3.7242    0.0000 O   0  0  0  0  0  0  0  0  0  0  0  0
    4.7340   -0.6444    0.0000 O   0  0  0  0  0  0  0  0  0  0  0  0
    5.6521    1.9040    0.0000 O   0  0  0  0  0  0  0  0  0  0  0  0
    2.1360    0.8556    0.0000 O   0  0  0  0  0  0  0  0  0  0  0  0
    2.0116    3.9925    0.0000 O   0  0  0  0  0  0  0  0  0  0  0  0
    6.5042    0.3525    0.0000 O   0  0  0  0  0  0  0  0  0  0  0  0
    3.8149    5.0523    0.0000 O   0  0  0  0  0  0  0  0  0  0  0  0
    4.6571   -2.8748    0.0000 C   0  0  0  0  0  0  0  0  0  0  0  0
    3.8841   -2.1859    0.0000 C   0  0  0  0  0  0  0  0  0  0  0  0
    4.2424   -3.8236    0.0000 C   0  0  2  0  0  0  0  0  0  0  0  0
    2.9860   -2.7137    0.0000 C   0  0  0  0  0  0  0  0  0  0  0  0
    3.8680   -1.1444    0.0000 C   0  0  0  0  0  0  0  0  0  0  0  0
    3.0020   -0.6444    0.0000 C   0  0  0  0  0  0  0  0  0  0  0  0
    4.7491   -4.6858    0.0000 C   0  0  0  0  0  0  0  0  0  0  0  0
    3.8680    0.8556    0.0000 C   0  0  0  0  0  0  0  0  0  0  0  0
    2.0840   -2.1929    0.0000 C   0  0  0  0  0  0  0  0  0  0  0  0
    3.0020    0.3556    0.0000 C   0  0  0  0  0  0  0  0  0  0  0  0
    2.0920   -1.1513    0.0000 C   0  0  0  0  0  0  0  0  0  0  0  0
    4.7340    0.3556    0.0000 C   0  0  0  0  0  0  0  0  0  0  0  0
    3.8520    1.8971    0.0000 C   0  0  0  0  0  0  0  0  0  0  0  0
    4.7500    2.4248    0.0000 C   0  0  0  0  0  0  0  0  0  0  0  0
    4.2558   -5.5556    0.0000 C   0  0  0  0  0  0  0  0  0  0  0  0
    5.6440    0.8624    0.0000 C   0  0  0  0  0  0  0  0  0  0  0  0
    2.9000    2.4177    0.0000 C   0  0  0  0  0  0  0  0  0  0  0  0
    5.7491   -4.6781    0.0000 C   0  0  0  0  0  0  0  0  0  0  0  0
    4.7584    3.5098    0.0000 C   0  0  0  0  0  0  0  0  0  0  0  0
    2.8833    3.5026    0.0000 C   0  0  0  0  0  0  0  0  0  0  0  0
    3.8187    4.0523    0.0000 C   0  0  0  0  0  0  0  0  0  0  0  0
    2.0000    4.9925    0.0000 C   0  0  0  0  0  0  0  0  0  0  0  0
    4.6790    5.5556    0.0000 C   0  0  0  0  0  0  0  0  0  0  0  0
    5.1960   -3.1815    0.0000 H   0  0  0  0  0  0  0  0  0  0  0  0
    5.0187   -2.3712    0.0000 H   0  0  0  0  0  0  0  0  0  0  0  0
    3.9090   -4.3464    0.0000 H   0  0  0  0  0  0  0  0  0  0  0  0
    1.5458   -2.5008    0.0000 H   0  0  0  0  0  0  0  0  0  0  0  0
    1.5587   -0.8351    0.0000 H   0  0  0  0  0  0  0  0  0  0  0  0
    3.7165   -5.2498    0.0000 H   0  0  0  0  0  0  0  0  0  0  0  0
    3.9499   -6.0950    0.0000 H   0  0  0  0  0  0  0  0  0  0  0  0
    4.7951   -5.8615    0.0000 H   0  0  0  0  0  0  0  0  0  0  0  0
    2.3692    2.0974    0.0000 H   0  0  0  0  0  0  0  0  0  0  0  0
    6.0632   -5.2126    0.0000 H   0  0  0  0  0  0  0  0  0  0  0  0
    6.0549   -4.1388    0.0000 H   0  0  0  0  0  0  0  0  0  0  0  0
    5.2965    3.8177    0.0000 H   0  0  0  0  0  0  0  0  0  0  0  0
    2.6200    4.9996    0.0000 H   0  0  0  0  0  0  0  0  0  0  0  0
    1.9928    5.6124    0.0000 H   0  0  0  0  0  0  0  0  0  0  0  0
    1.3800    4.9853    0.0000 H   0  0  0  0  0  0  0  0  0  0  0  0
    4.9910    5.0199    0.0000 H   0  0  0  0  0  0  0  0  0  0  0  0
    5.2147    5.8677    0.0000 H   0  0  0  0  0  0  0  0  0  0  0  0
    4.3669    6.0914    0.0000 H   0  0  0  0  0  0  0  0  0  0  0  0
  1 10  1  0  0  0  0
  1 11  1  0  0  0  0
  2 12  1  0  0  0  0
  2 19  1  0  0  0  0
  3 21  1  0  0  0  0
  3 23  1  0  0  0  0
  4 17  2  0  0  0  0
  5 27  1  0  0  0  0
  5 29  1  0  0  0  0
  6 23  2  0  0  0  0
  7 28  1  0  0  0  0
  7 30  1  0  0  0  0
  8  9  1  0  0  0  0
  8 10  1  0  0  0  0
  8 31  1  0  0  0  0
  8 32  1  0  0  0  0
  9 11  2  0  0  0  0
  9 12  1  0  0  0  0
 10 14  1  6  0  0  0
 10 33  1  0  0  0  0
 11 16  1  0  0  0  0
 12 13  2  0  0  0  0
 13 17  1  0  0  0  0
 13 18  1  0  0  0  0
 14 22  1  0  0  0  0
 14 25  2  0  0  0  0
 15 17  1  0  0  0  0
 15 19  2  0  0  0  0
 15 20  1  0  0  0  0
 16 18  2  0  0  0  0
 16 34  1  0  0  0  0
 18 35  1  0  0  0  0
 19 23  1  0  0  0  0
 20 21  1  0  0  0  0
 20 24  2  0  0  0  0
 21 26  2  0  0  0  0
 22 36  1  0  0  0  0
 22 37  1  0  0  0  0
 22 38  1  0  0  0  0
 24 27  1  0  0  0  0
 24 39  1  0  0  0  0
 25 40  1  0  0  0  0
 25 41  1  0  0  0  0
 26 28  1  0  0  0  0
 26 42  1  0  0  0  0
 27 28  2  0  0  0  0
 29 43  1  0  0  0  0
 29 44  1  0  0  0  0
 29 45  1  0  0  0  0
 30 46  1  0  0  0  0
 30 47  1  0  0  0  0
 30 48  1  0  0  0  0
M  END
> <PUBCHEM_COMPOUND_CID>
442819

> <PUBCHEM_COMPOUND_CANONICALIZED>
1

> <PUBCHEM_CACTVS_COMPLEXITY>
801

> <PUBCHEM_CACTVS_HBOND_ACCEPTOR>
7

> <PUBCHEM_CACTVS_HBOND_DONOR>
0

> <PUBCHEM_CACTVS_ROTATABLE_BOND>
3

> <PUBCHEM_CACTVS_SUBSKEYS>
AAADceB4OAAAAAAAAAAAAAAAAAAAASAAAAAwYIEAAAAAAEiRQAAAGgAAAAAADBSgmAIyDoAABACIAqDSCAICCAAkIAAIiAFGiMgNJzaENR6CO2Kl4BUKqYfK7PzOIQADCAAIQABCAAYQABCAAAAAAAAAAA==

> <PUBCHEM_IUPAC_INCHI>
InChI=1S/C23H18O7/c1-10(2)15-8-13-14(28-15)6-5-11-20(24)19-12-7-17(26-3)18(27-4)9-16(12)29-23(25)22(19)30-21(11)13/h5-7,9,15H,1,8H2,2-4H3/t15-/m1/s1

> <PUBCHEM_IUPAC_INCHIKEY>
CWZIPBGXMLRVIC-OAHLLOKOSA-N

> <PUBCHEM_XLOGP3_AA>
4.1

> <PUBCHEM_EXACT_MASS>
406.105253

> <PUBCHEM_MOLECULAR_FORMULA>
C23H18O7

> <PUBCHEM_MOLECULAR_WEIGHT>
406.38482

> <PUBCHEM_OPENEYE_CAN_SMILES>
CC(=C)C1CC2=C(O1)C=CC3=C2OC4=C(C3=O)C5=CC(=C(C=C5OC4=O)OC)OC

> <PUBCHEM_OPENEYE_ISO_SMILES>
CC(=C)[C@H]1CC2=C(O1)C=CC3=C2OC4=C(C3=O)C5=CC(=C(C=C5OC4=O)OC)OC

> <PUBCHEM_CACTVS_TPSA>
80.3

> <PUBCHEM_MONOISOTOPIC_WEIGHT>
406.105253

> <PUBCHEM_TOTAL_CHARGE>
0

> <PUBCHEM_HEAVY_ATOM_COUNT>
30

> <PUBCHEM_ATOM_DEF_STEREO_COUNT>
1

> <PUBCHEM_ATOM_UDEF_STEREO_COUNT>
0

> <PUBCHEM_BOND_DEF_STEREO_COUNT>
0

> <PUBCHEM_BOND_UDEF_STEREO_COUNT>
0

> <PUBCHEM_ISOTOPIC_ATOM_COUNT>
0

> <PUBCHEM_COMPONENT_COUNT>
1

> <PUBCHEM_CACTVS_TAUTO_COUNT>
1

> <PUBCHEM_COORDINATE_TYPE>
1
5
255

> <PUBCHEM_BONDANNOTATIONS>
10  14  6
11  16  8
12  13  8
13  17  8
13  18  8
15  17  8
15  19  8
15  20  8
16  18  8
19  23  8
2  12  8
2  19  8
20  21  8
20  24  8
21  26  8
24  27  8
26  28  8
27  28  8
3  21  8
3  23  8
9  11  8
9  12  8

$$$$

