   Color/Form
        Yellow needles or prisms from ethanol
   from [1]HSDB

   Melting Point
        155 deg C
   from [2]HSDB

   Octanol/Water Partition Coefficient
        log Kow= 5.06
   from [3]HSDB

   Solubilities

     * Very soluble in diethyl ether; soluble in ethanol and benzene at 15
       deg C; soluble in toluene and tetrahydrofluorenone.
     * In water, 0.0118 mg/l @ 25 deg C

   from [4]HSDB

   Spectral Properties
        Lambda max values were measured at 233, 285, 313, 372-373, 392,
   and 408 nm in an unspecified solvent.
   from [5]HSDB

   Computed Properties
   Molecular Weight                  247.24816 [g/mol]
   Molecular Formula                 C[16]H[9]NO[2]
   XLogP3                            5
   H-Bond Donor                      0
   H-Bond Acceptor                   2
   Rotatable Bond Count              0
   Exact Mass                        247.063329
   MonoIsotopic Mass                 247.063329
   Topological Polar Surface Area    45.8
   Heavy Atom Count                  19
   Formal Charge                     0
   Complexity                        377
   Isotope Atom Count                0
   Defined Atom Stereocenter Count   0
   Undefined Atom Stereocenter Count 0
   Defined Bond Stereocenter Count   0
   Undefined Bond Stereocenter Count 0
   Covalently-Bonded Unit Count      1
   Feature 3D Acceptor Count         2
   Feature 3D Anion Count            1
   Feature 3D Ring Count             4
   Effective Rotor Count             1
   Conformer Sampling RMSD           0.6
   CID Conformer Count               [6]1

References

   1. http://toxnet.nlm.nih.gov/cgi-bin/sis/search/r?dbs+hsdb:@term+@rn+@rel+5522-43-0
   2. http://toxnet.nlm.nih.gov/cgi-bin/sis/search/r?dbs+hsdb:@term+@rn+@rel+5522-43-0
   3. http://toxnet.nlm.nih.gov/cgi-bin/sis/search/r?dbs+hsdb:@term+@rn+@rel+5522-43-0
   4. http://toxnet.nlm.nih.gov/cgi-bin/sis/search/r?dbs+hsdb:@term+@rn+@rel+5522-43-0
   5. http://toxnet.nlm.nih.gov/cgi-bin/sis/search/r?dbs+hsdb:@term+@rn+@rel+5522-43-0
   6. http://pubchem.ncbi.nlm.nih.gov/vw3d/vw3d.cgi?cid=21694
