11954133
  -OEChem-07051213072D

 22 24  0     0  0  0  0  0  0999 V2000
    3.3823    2.1678    0.0000 Cl  0  0  0  0  0  0  0  0  0  0  0  0
    2.0000    0.6562    0.0000 Cl  0  0  0  0  0  0  0  0  0  0  0  0
    5.5047    1.5687    0.0000 O   0  0  0  0  0  0  0  0  0  0  0  0
    6.3697   -1.7023    0.0000 O   0  0  0  0  0  0  0  0  0  0  0  0
    6.0047    0.0299    0.0000 C   0  0  0  0  0  0  0  0  0  0  0  0
    5.0047    0.0299    0.0000 C   0  0  0  0  0  0  0  0  0  0  0  0
    4.6957    0.9810    0.0000 C   0  0  0  0  0  0  0  0  0  0  0  0
    6.3137    0.9810    0.0000 C   0  0  0  0  0  0  0  0  0  0  0  0
    6.6897   -0.7548    0.0000 C   0  0  0  0  0  0  0  0  0  0  0  0
    4.3197   -0.7548    0.0000 C   0  0  0  0  0  0  0  0  0  0  0  0
    3.6803    1.2132    0.0000 C   0  0  0  0  0  0  0  0  0  0  0  0
    7.3291    1.2132    0.0000 C   0  0  0  0  0  0  0  0  0  0  0  0
    3.2992   -0.5461    0.0000 C   0  0  0  0  0  0  0  0  0  0  0  0
    7.7102   -0.5461    0.0000 C   0  0  0  0  0  0  0  0  0  0  0  0
    2.9773    0.4445    0.0000 C   0  0  0  0  0  0  0  0  0  0  0  0
    8.0321    0.4445    0.0000 C   0  0  0  0  0  0  0  0  0  0  0  0
    4.5181   -1.3422    0.0000 H   0  0  0  0  0  0  0  0  0  0  0  0
    7.5139    1.8050    0.0000 H   0  0  0  0  0  0  0  0  0  0  0  0
    2.8861   -1.0085    0.0000 H   0  0  0  0  0  0  0  0  0  0  0  0
    8.1233   -1.0085    0.0000 H   0  0  0  0  0  0  0  0  0  0  0  0
    8.6380    0.5758    0.0000 H   0  0  0  0  0  0  0  0  0  0  0  0
    6.7792   -2.1678    0.0000 H   0  0  0  0  0  0  0  0  0  0  0  0
  1 11  1  0  0  0  0
  2 15  1  0  0  0  0
  3  7  1  0  0  0  0
  3  8  1  0  0  0  0
  4  9  1  0  0  0  0
  4 22  1  0  0  0  0
  5  6  1  0  0  0  0
  5  8  1  0  0  0  0
  5  9  2  0  0  0  0
  6  7  2  0  0  0  0
  6 10  1  0  0  0  0
  7 11  1  0  0  0  0
  8 12  2  0  0  0  0
  9 14  1  0  0  0  0
 10 13  2  0  0  0  0
 10 17  1  0  0  0  0
 11 15  2  0  0  0  0
 12 16  1  0  0  0  0
 12 18  1  0  0  0  0
 13 15  1  0  0  0  0
 13 19  1  0  0  0  0
 14 16  2  0  0  0  0
 14 20  1  0  0  0  0
 16 21  1  0  0  0  0
M  END
> <PUBCHEM_COMPOUND_CID>
11954133

> <PUBCHEM_COMPOUND_CANONICALIZED>
1

> <PUBCHEM_CACTVS_COMPLEXITY>
274

> <PUBCHEM_CACTVS_HBOND_ACCEPTOR>
2

> <PUBCHEM_CACTVS_HBOND_DONOR>
1

> <PUBCHEM_CACTVS_ROTATABLE_BOND>
0

> <PUBCHEM_CACTVS_SUBSKEYS>
AAADcYBwMAAGAAAAAAAAAAAAAAAAASAAAAAwYAAAAAAAAEgB/AAAGgIACAAADAaAmCAwBsAABkCIAqBSAAACCAAkJUAIikEGC8hMJzeHNxqCeWCl4BUIvYfK7OzOhAAAKQAICAQIAABSABAQCAAAAAAAAA==

> <PUBCHEM_IUPAC_OPENEYE_NAME>
6,7-dichlorodibenzofuran-1-ol

> <PUBCHEM_IUPAC_CAS_NAME>
6,7-dichloro-1-dibenzofuranol

> <PUBCHEM_IUPAC_NAME>
6,7-dichlorodibenzofuran-1-ol

> <PUBCHEM_IUPAC_SYSTEMATIC_NAME>
6,7-bis(chloranyl)dibenzofuran-1-ol

> <PUBCHEM_IUPAC_TRADITIONAL_NAME>
6,7-dichlorodibenzofuran-1-ol

> <PUBCHEM_IUPAC_INCHI>
InChI=1S/C12H6Cl2O2/c13-7-5-4-6-10-8(15)2-1-3-9(10)16-12(6)11(7)14/h1-5,15H

> <PUBCHEM_IUPAC_INCHIKEY>
AXMITDHZDYKPEO-UHFFFAOYSA-N

> <PUBCHEM_XLOGP3>
4.3

> <PUBCHEM_EXACT_MASS>
251.974485

> <PUBCHEM_MOLECULAR_FORMULA>
C12H6Cl2O2

> <PUBCHEM_MOLECULAR_WEIGHT>
253.08084

> <PUBCHEM_OPENEYE_CAN_SMILES>
C1=CC2=C(C3=C(O2)C(=C(C=C3)Cl)Cl)C(=C1)O

> <PUBCHEM_OPENEYE_ISO_SMILES>
C1=CC2=C(C3=C(O2)C(=C(C=C3)Cl)Cl)C(=C1)O

> <PUBCHEM_CACTVS_TPSA>
33.4

> <PUBCHEM_MONOISOTOPIC_WEIGHT>
251.974485

> <PUBCHEM_TOTAL_CHARGE>
0

> <PUBCHEM_HEAVY_ATOM_COUNT>
16

> <PUBCHEM_ATOM_DEF_STEREO_COUNT>
0

> <PUBCHEM_ATOM_UDEF_STEREO_COUNT>
0

> <PUBCHEM_BOND_DEF_STEREO_COUNT>
0

> <PUBCHEM_BOND_UDEF_STEREO_COUNT>
0

> <PUBCHEM_ISOTOPIC_ATOM_COUNT>
0

> <PUBCHEM_COMPONENT_COUNT>
1

> <PUBCHEM_CACTVS_TAUTO_COUNT>
2

> <PUBCHEM_COORDINATE_TYPE>
1
5
255

> <PUBCHEM_BONDANNOTATIONS>
10  13  8
11  15  8
12  16  8
13  15  8
14  16  8
3  7  8
3  8  8
5  6  8
5  8  8
5  9  8
6  10  8
6  7  8
7  11  8
8  12  8
9  14  8

$$$$

