   Color/Form

     * White crystalline scales
     * Colorless needles
     * Needles from alcohol

   from [1]HSDB

   Boiling Point
        351.5 deg C
   from [2]HSDB

   Melting Point
        62.5 deg C
   from [3]HSDB

   Density/Specific Gravity
        0.8527 g/cu cm at 62 deg C
   from [4]HSDB

   Dissociation Constants
        pKa = 4.75 (est)
   from [5]HSDB

   Heat of Combustion
        -10,030.6 kJ/mol
   from [6]HSDB

   Heat of Vaporization
        90.12 kJ/mole at 202 deg C
   from [7]HSDB

   Octanol/Water Partition Coefficient
        log Kow = 7.17
   from [8]HSDB

   Solubilities

     * Sparingly sol in cold alcohol or in petroleum ether; freely sol in
       hot alcohol, in ether, propyl alcohol, chloroform
     * Soluble in aromatic, chlorinated and oxygenated solvents
     * Soluble in ethanol, acetone, benzene; very soluble in chloroform;
       miscible in ethyl ether
     * In water, 0.04 mg/L at 25 deg C

   from [9]HSDB

   Spectral Properties

     * Index of refraction: 1.4273 at 80 deg C/D
     * Index of refraction: 1.4335 at 60 deg C/D
     * Index of refraction: 1.4309 at 70 deg C
     * MAX ABSORPTION (ALCOHOL): 210 NM (LOG E= 1.70); SADTLER REF NUMBER:
       11336 (IR, PRISM)
     * Intense mass spectral peaks: 43 m/z (100%), 73 m/z (93%), 60 m/z
       (84%), 57 m/z (73%)
     * IR: 8007 (Sadtler Research Laboratories IR Grating Collection)
     * UV: 1-707 (Organic Electronic Spectral Data, Phillips et al, John
       Wiley & Sons, New York)
     * Raman: 413 (Sadtler Research Laboratories Spectral Collection)
     * 1H NMR: 14716 (Sadtler Research Laboratories Spectral Collection)
     * MASS: 27843 (NIST/EPA/MSDC Mass Spectral database, 1990 version);
       2175 (Atlas of Mass Spectral Data, John Wiley & Sons, New York)
     * Intense mass spectral peaks: 56 m/z, 129 m/z, 256 m/z

   from [10]HSDB

   Surface Tension
        28.2 mN/m (dyn/cm) at 70 deg C
   from [11]HSDB

   Vapor Pressure
        3.8X10-7 mm Hg at 25 deg C
   from [12]HSDB

   Viscosity
        7.80 mPa.sec (cP) at 70 deg C
   from [13]HSDB

   Other Chemical/Physical Properties

     * Saturated fatty acid
     * Henry's Law constant = 2.0X10-5 atm-cu mmol at 25 deg C (est)
     * Hydroxyl radical reaction rate constant = 2.0X10-11 cu cm/molec-sec
       at 25 deg C (est)

   from [14]HSDB

   Computed Properties
   Molecular Weight                  256.42408 [g/mol]
   Molecular Formula                 C[16]H[32]O[2]
   XLogP3                            6.4
   H-Bond Donor                      1
   H-Bond Acceptor                   2
   Rotatable Bond Count              14
   Exact Mass                        256.24023
   MonoIsotopic Mass                 256.24023
   Topological Polar Surface Area    37.3
   Heavy Atom Count                  18
   Formal Charge                     0
   Complexity                        178
   Isotope Atom Count                0
   Defined Atom Stereocenter Count   0
   Undefined Atom Stereocenter Count 0
   Defined Bond Stereocenter Count   0
   Undefined Bond Stereocenter Count 0
   Covalently-Bonded Unit Count      1
   Feature 3D Acceptor Count         2
   Feature 3D Anion Count            1
   Feature 3D Hydrophobe Count       1
   Effective Rotor Count             14
   Conformer Sampling RMSD           1.4
   CID Conformer Count               [15]44

References

   1. http://toxnet.nlm.nih.gov/cgi-bin/sis/search/r?dbs+hsdb:@term+@rn+@rel+57-10-3
   2. http://toxnet.nlm.nih.gov/cgi-bin/sis/search/r?dbs+hsdb:@term+@rn+@rel+57-10-3
   3. http://toxnet.nlm.nih.gov/cgi-bin/sis/search/r?dbs+hsdb:@term+@rn+@rel+57-10-3
   4. http://toxnet.nlm.nih.gov/cgi-bin/sis/search/r?dbs+hsdb:@term+@rn+@rel+57-10-3
   5. http://toxnet.nlm.nih.gov/cgi-bin/sis/search/r?dbs+hsdb:@term+@rn+@rel+57-10-3
   6. http://toxnet.nlm.nih.gov/cgi-bin/sis/search/r?dbs+hsdb:@term+@rn+@rel+57-10-3
   7. http://toxnet.nlm.nih.gov/cgi-bin/sis/search/r?dbs+hsdb:@term+@rn+@rel+57-10-3
   8. http://toxnet.nlm.nih.gov/cgi-bin/sis/search/r?dbs+hsdb:@term+@rn+@rel+57-10-3
   9. http://toxnet.nlm.nih.gov/cgi-bin/sis/search/r?dbs+hsdb:@term+@rn+@rel+57-10-3
  10. http://toxnet.nlm.nih.gov/cgi-bin/sis/search/r?dbs+hsdb:@term+@rn+@rel+57-10-3
  11. http://toxnet.nlm.nih.gov/cgi-bin/sis/search/r?dbs+hsdb:@term+@rn+@rel+57-10-3
  12. http://toxnet.nlm.nih.gov/cgi-bin/sis/search/r?dbs+hsdb:@term+@rn+@rel+57-10-3
  13. http://toxnet.nlm.nih.gov/cgi-bin/sis/search/r?dbs+hsdb:@term+@rn+@rel+57-10-3
  14. http://toxnet.nlm.nih.gov/cgi-bin/sis/search/r?dbs+hsdb:@term+@rn+@rel+57-10-3
  15. http://pubchem.ncbi.nlm.nih.gov/vw3d/vw3d.cgi?cid=985
