46173957
  -OEChem-07051213102D

 63 64  0     1  0  0  0  0  0999 V2000
    7.7331   -0.5950    0.0000 O   0  0  0  0  0  0  0  0  0  0  0  0
    6.0010    0.4050    0.0000 O   0  0  0  0  0  0  0  0  0  0  0  0
    9.4651   -0.5950    0.0000 O   0  0  0  0  0  0  0  0  0  0  0  0
    6.0010   -2.5950    0.0000 O   0  0  0  0  0  0  0  0  0  0  0  0
    4.2690    0.4050    0.0000 O   0  0  0  0  0  0  0  0  0  0  0  0
    7.7331   -3.5950    0.0000 O   0  0  0  0  0  0  0  0  0  0  0  0
    9.4651   -2.5950    0.0000 O   0  0  0  0  0  0  0  0  0  0  0  0
    6.0010    2.4050    0.0000 O   0  0  0  0  0  0  0  0  0  0  0  0
    4.2690    3.4050    0.0000 O   0  0  0  0  0  0  0  0  0  0  0  0
    2.5369    2.4050    0.0000 O   0  0  0  0  0  0  0  0  0  0  0  0
    6.8671   -1.0950    0.0000 C   0  0  1  0  0  0  0  0  0  0  0  0
    6.8671   -2.0950    0.0000 C   0  0  2  0  0  0  0  0  0  0  0  0
    7.7331   -2.5950    0.0000 C   0  0  1  0  0  0  0  0  0  0  0  0
    8.5991   -2.0950    0.0000 C   0  0  2  0  0  0  0  0  0  0  0  0
    8.5991   -1.0950    0.0000 C   0  0  1  0  0  0  0  0  0  0  0  0
    6.0010   -0.5950    0.0000 C   0  0  0  0  0  0  0  0  0  0  0  0
    5.1350    0.9050    0.0000 C   0  0  2  0  0  0  0  0  0  0  0  0
    5.1350    1.9050    0.0000 C   0  0  1  0  0  0  0  0  0  0  0  0
    4.2690    2.4050    0.0000 C   0  0  2  0  0  0  0  0  0  0  0  0
    3.4030    1.9050    0.0000 C   0  0  1  0  0  0  0  0  0  0  0  0
    3.4030    0.9050    0.0000 C   0  0  0  0  0  0  0  0  0  0  0  0
    9.4651    0.4050    0.0000 C   0  0  3  0  0  0  0  0  0  0  0  0
   10.3312    0.9050    0.0000 C   0  0  0  0  0  0  0  0  0  0  0  0
   10.3312    1.9050    0.0000 C   0  0  0  0  0  0  0  0  0  0  0  0
    8.5991    0.9050    0.0000 C   0  0  0  0  0  0  0  0  0  0  0  0
   11.1972    2.4050    0.0000 C   0  0  0  0  0  0  0  0  0  0  0  0
   11.1972    3.4050    0.0000 C   0  0  0  0  0  0  0  0  0  0  0  0
    8.5991    1.9050    0.0000 C   0  0  0  0  0  0  0  0  0  0  0  0
   12.0632    3.9050    0.0000 C   0  0  0  0  0  0  0  0  0  0  0  0
    6.8671   -0.4750    0.0000 H   0  0  0  0  0  0  0  0  0  0  0  0
    6.3301   -1.7850    0.0000 H   0  0  0  0  0  0  0  0  0  0  0  0
    8.2700   -2.9050    0.0000 H   0  0  0  0  0  0  0  0  0  0  0  0
    8.5991   -2.7150    0.0000 H   0  0  0  0  0  0  0  0  0  0  0  0
    8.5991   -0.4750    0.0000 H   0  0  0  0  0  0  0  0  0  0  0  0
    5.3905   -0.4873    0.0000 H   0  0  0  0  0  0  0  0  0  0  0  0
    5.7890   -1.1776    0.0000 H   0  0  0  0  0  0  0  0  0  0  0  0
    5.1350    0.2850    0.0000 H   0  0  0  0  0  0  0  0  0  0  0  0
    5.1350    2.5250    0.0000 H   0  0  0  0  0  0  0  0  0  0  0  0
    4.8059    2.7150    0.0000 H   0  0  0  0  0  0  0  0  0  0  0  0
    3.4030    2.5250    0.0000 H   0  0  0  0  0  0  0  0  0  0  0  0
    2.7924    1.0127    0.0000 H   0  0  0  0  0  0  0  0  0  0  0  0
    3.1909    0.3224    0.0000 H   0  0  0  0  0  0  0  0  0  0  0  0
   10.0021    0.0950    0.0000 H   0  0  0  0  0  0  0  0  0  0  0  0
    5.4641   -2.2850    0.0000 H   0  0  0  0  0  0  0  0  0  0  0  0
    7.1962   -3.9050    0.0000 H   0  0  0  0  0  0  0  0  0  0  0  0
   10.0021   -2.2850    0.0000 H   0  0  0  0  0  0  0  0  0  0  0  0
   10.5432    0.3224    0.0000 H   0  0  0  0  0  0  0  0  0  0  0  0
   10.9417    1.0127    0.0000 H   0  0  0  0  0  0  0  0  0  0  0  0
   10.1191    2.4876    0.0000 H   0  0  0  0  0  0  0  0  0  0  0  0
    9.7206    1.7973    0.0000 H   0  0  0  0  0  0  0  0  0  0  0  0
    6.0010    3.0250    0.0000 H   0  0  0  0  0  0  0  0  0  0  0  0
    3.7320    3.7150    0.0000 H   0  0  0  0  0  0  0  0  0  0  0  0
    8.0622    0.5950    0.0000 H   0  0  0  0  0  0  0  0  0  0  0  0
   11.4092    1.8224    0.0000 H   0  0  0  0  0  0  0  0  0  0  0  0
   11.8078    2.5127    0.0000 H   0  0  0  0  0  0  0  0  0  0  0  0
    2.0000    2.0950    0.0000 H   0  0  0  0  0  0  0  0  0  0  0  0
   10.9851    3.9876    0.0000 H   0  0  0  0  0  0  0  0  0  0  0  0
   10.5866    3.2973    0.0000 H   0  0  0  0  0  0  0  0  0  0  0  0
    9.1360    2.2150    0.0000 H   0  0  0  0  0  0  0  0  0  0  0  0
    8.0622    2.2150    0.0000 H   0  0  0  0  0  0  0  0  0  0  0  0
   12.3732    3.3681    0.0000 H   0  0  0  0  0  0  0  0  0  0  0  0
   12.6002    4.2150    0.0000 H   0  0  0  0  0  0  0  0  0  0  0  0
   11.7532    4.4419    0.0000 H   0  0  0  0  0  0  0  0  0  0  0  0
  1 11  1  0  0  0  0
  1 15  1  0  0  0  0
  2 16  1  0  0  0  0
 17  2  1  6  0  0  0
 15  3  1  1  0  0  0
  3 22  1  0  0  0  0
 12  4  1  6  0  0  0
  4 44  1  0  0  0  0
  5 17  1  0  0  0  0
  5 21  1  0  0  0  0
 13  6  1  1  0  0  0
  6 45  1  0  0  0  0
 14  7  1  6  0  0  0
  7 46  1  0  0  0  0
 18  8  1  1  0  0  0
  8 51  1  0  0  0  0
 19  9  1  6  0  0  0
  9 52  1  0  0  0  0
 20 10  1  1  0  0  0
 10 56  1  0  0  0  0
 11 12  1  0  0  0  0
 11 16  1  1  0  0  0
 11 30  1  0  0  0  0
 12 13  1  0  0  0  0
 12 31  1  0  0  0  0
 13 14  1  0  0  0  0
 13 32  1  0  0  0  0
 14 15  1  0  0  0  0
 14 33  1  0  0  0  0
 15 34  1  0  0  0  0
 16 35  1  0  0  0  0
 16 36  1  0  0  0  0
 17 18  1  0  0  0  0
 17 37  1  0  0  0  0
 18 19  1  0  0  0  0
 18 38  1  0  0  0  0
 19 20  1  0  0  0  0
 19 39  1  0  0  0  0
 20 21  1  0  0  0  0
 20 40  1  0  0  0  0
 21 41  1  0  0  0  0
 21 42  1  0  0  0  0
 22 23  1  0  0  0  0
 22 25  1  0  0  0  0
 22 43  1  0  0  0  0
 23 24  1  0  0  0  0
 23 47  1  0  0  0  0
 23 48  1  0  0  0  0
 24 26  1  0  0  0  0
 24 49  1  0  0  0  0
 24 50  1  0  0  0  0
 25 28  2  0  0  0  0
 25 53  1  0  0  0  0
 26 27  1  0  0  0  0
 26 54  1  0  0  0  0
 26 55  1  0  0  0  0
 27 29  1  0  0  0  0
 27 57  1  0  0  0  0
 27 58  1  0  0  0  0
 28 59  1  0  0  0  0
 28 60  1  0  0  0  0
 29 61  1  0  0  0  0
 29 62  1  0  0  0  0
 29 63  1  0  0  0  0
M  END
> <PUBCHEM_COMPOUND_CID>
46173957

> <PUBCHEM_COMPOUND_CANONICALIZED>
1

> <PUBCHEM_CACTVS_COMPLEXITY>
492

> <PUBCHEM_CACTVS_HBOND_ACCEPTOR>
10

> <PUBCHEM_CACTVS_HBOND_DONOR>
6

> <PUBCHEM_CACTVS_ROTATABLE_BOND>
10

> <PUBCHEM_CACTVS_SUBSKEYS>
AAADcfB4PAAAAAAAAAAAAAAAAAAAAAAAAAAkSAAAAAAAAAAAAAAAGgAACAAACBSwgAMCCAAABgCAACBCAAAAAAAgAAAIAAAAAAgRFAIAIQAiQAAFgAAHIAHA4AwAAAAAAAAAAAAAAAAAAAAAAAAAAAAAAA==

> <PUBCHEM_IUPAC_OPENEYE_NAME>
(2R,3S,4S,5R,6R)-2-[[(2S,3R,4S,5R)-3,4,5-trihydroxytetrahydropyran-2-yl]oxymethyl]-6-(1-vinylhexoxy)tetrahydropyran-3,4,5-triol

> <PUBCHEM_IUPAC_CAS_NAME>
(2R,3R,4S,5S,6R)-2-oct-1-en-3-yloxy-6-[[(2S,3R,4S,5R)-3,4,5-trihydroxy-2-oxanyl]oxymethyl]oxane-3,4,5-triol

> <PUBCHEM_IUPAC_NAME>
(2R,3R,4S,5S,6R)-2-oct-1-en-3-yloxy-6-[[(2S,3R,4S,5R)-3,4,5-trihydroxyoxan-2-yl]oxymethyl]oxane-3,4,5-triol

> <PUBCHEM_IUPAC_SYSTEMATIC_NAME>
(2R,3R,4S,5S,6R)-2-oct-1-en-3-yloxy-6-[[(2S,3R,4S,5R)-3,4,5-tris(oxidanyl)oxan-2-yl]oxymethyl]oxane-3,4,5-triol

> <PUBCHEM_IUPAC_TRADITIONAL_NAME>
(2R,3R,4S,5S,6R)-2-(1-amylallyloxy)-6-[[(2S,3R,4S,5R)-3,4,5-trihydroxytetrahydropyran-2-yl]oxymethyl]tetrahydropyran-3,4,5-triol

> <PUBCHEM_IUPAC_INCHI>
InChI=1S/C19H34O10/c1-3-5-6-7-10(4-2)28-19-17(25)15(23)14(22)12(29-19)9-27-18-16(24)13(21)11(20)8-26-18/h4,10-25H,2-3,5-9H2,1H3/t10?,11-,12-,13+,14-,15+,16-,17-,18+,19-/m1/s1

> <PUBCHEM_IUPAC_INCHIKEY>
VXNMHZVTDWLWRX-ZNGULQCWSA-N

> <PUBCHEM_XLOGP3_AA>
-1.1

> <PUBCHEM_EXACT_MASS>
422.215197

> <PUBCHEM_MOLECULAR_FORMULA>
C19H34O10

> <PUBCHEM_MOLECULAR_WEIGHT>
422.46726

> <PUBCHEM_OPENEYE_CAN_SMILES>
CCCCCC(C=C)OC1C(C(C(C(O1)COC2C(C(C(CO2)O)O)O)O)O)O

> <PUBCHEM_OPENEYE_ISO_SMILES>
CCCCCC(C=C)O[C@H]1[C@@H]([C@H]([C@@H]([C@H](O1)CO[C@H]2[C@@H]([C@H]([C@@H](CO2)O)O)O)O)O)O

> <PUBCHEM_CACTVS_TPSA>
158

> <PUBCHEM_MONOISOTOPIC_WEIGHT>
422.215197

> <PUBCHEM_TOTAL_CHARGE>
0

> <PUBCHEM_HEAVY_ATOM_COUNT>
29

> <PUBCHEM_ATOM_DEF_STEREO_COUNT>
9

> <PUBCHEM_ATOM_UDEF_STEREO_COUNT>
1

> <PUBCHEM_BOND_DEF_STEREO_COUNT>
0

> <PUBCHEM_BOND_UDEF_STEREO_COUNT>
0

> <PUBCHEM_ISOTOPIC_ATOM_COUNT>
0

> <PUBCHEM_COMPONENT_COUNT>
1

> <PUBCHEM_CACTVS_TAUTO_COUNT>
1

> <PUBCHEM_COORDINATE_TYPE>
1
5
255

> <PUBCHEM_BONDANNOTATIONS>
20  10  5
11  16  5
17  2  6
22  25  3
15  3  5
12  4  6
13  6  5
14  7  6
18  8  5
19  9  6

$$$$

