   Color/Form

     * Crystals
     * White to pale yellow crystalline powder

   from [1]HSDB

   Odor
        Odorless
   from [2]HSDB

   Melting Point
        147-149 DEG C
   from [3]HSDB

   pH
        WEAK BASE
   from [4]HSDB

   Solubilities

     * SOL IN ACETONE, CHLOROFORM, ETHYL ACETATE; SLIGHTLY SOL IN WATER,
       BENZENE, TOLUENE
     * Freely soluble in alcohol; soluble in polyethylene glycol 400
     * Slightly soluble in ether

   from [5]HSDB

   Computed Properties
   Molecular Weight                  344.83678 [g/mol]
   Molecular Formula                 C[22]H[17]ClN[2]
   XLogP3                            5
   H-Bond Donor                      0
   H-Bond Acceptor                   1
   Rotatable Bond Count              4
   Exact Mass                        344.108026
   MonoIsotopic Mass                 344.108026
   Topological Polar Surface Area    17.8
   Heavy Atom Count                  25
   Formal Charge                     0
   Complexity                        396
   Isotope Atom Count                0
   Defined Atom Stereocenter Count   0
   Undefined Atom Stereocenter Count 0
   Defined Bond Stereocenter Count   0
   Undefined Bond Stereocenter Count 0
   Covalently-Bonded Unit Count      1
   Feature 3D Cation Count           1
   Feature 3D Ring Count             4
   Effective Rotor Count             4
   Conformer Sampling RMSD           0.8
   CID Conformer Count               [6]3

References

   1. http://toxnet.nlm.nih.gov/cgi-bin/sis/search/r?dbs+hsdb:@term+@rn+@rel+23593-75-1
   2. http://toxnet.nlm.nih.gov/cgi-bin/sis/search/r?dbs+hsdb:@term+@rn+@rel+23593-75-1
   3. http://toxnet.nlm.nih.gov/cgi-bin/sis/search/r?dbs+hsdb:@term+@rn+@rel+23593-75-1
   4. http://toxnet.nlm.nih.gov/cgi-bin/sis/search/r?dbs+hsdb:@term+@rn+@rel+23593-75-1
   5. http://toxnet.nlm.nih.gov/cgi-bin/sis/search/r?dbs+hsdb:@term+@rn+@rel+23593-75-1
   6. http://pubchem.ncbi.nlm.nih.gov/vw3d/vw3d.cgi?cid=2812
