   Color/Form
        CRYSTALS WITH 2.5 MOL WATER OF CRYSTALLIZATION; CRYSTALS FROM
   DILUTE ALCOHOL
   from [1]HSDB

   Color/Form

     * TRIBOLUMINESCENT, ORTHORHOMBIC NEEDLES FROM ABSOLUTE ALCOHOL
     * BULKY, WHITE AMORPHOUS POWDER OR CRYSTALS
     * CRYSTALS TURN BROWN ON EXPOSURE TO AIR

   from [2]HSDB

   Color/Form
        Occurs as fine, needle-like, white crystals which frequently
   cohere in masses or as a fine, white powder.
   from [3]HSDB

   Odor
        ODORLESS
   from [4]HSDB

   Taste
        BITTER TASTE
   from [5]HSDB

   Taste
        Very bitter taste
   from [6]HSDB

   Melting Point
        174-175 deg C after drying of solvated crystals
   from [7]HSDB

   Melting Point
        MELTS WITH SOME DECOMPOSITION AT 177 DEG C
   from [8]HSDB

   Dissociation Constants

     * pK1 @ 20 deg C = 5.4; pK2 = 10.0
     * pKa = 8.56 @ 25 deg C

   from [9]HSDB

   Dissociation Constants

     * K1= 1.08X10-6; K2= 1.5X10-10
     * pK1 at 18 deg C= 5.07; pK2= 9.7.

   from [10]HSDB

   Octanol/Water Partition Coefficient
        log Kow = 2.88
   from [11]HSDB

   pH
        PH OF SATURATED AQ SOLN IS 8.8
   from [12]HSDB

   Solubilities

     * 1 g /quinidine/ dissolves in about 36 ml alcohol, 56 ml ether, 1.6
       ml chloroform; very soluble in methanol; practically insoluble in
       petroleum ether.
     * Soluble in benzene
     * In water, 140 mg/l @ 25 deg C

   from [13]HSDB

   Solubilities

     * 1 G DISSOLVES IN: 1900 ML WATER, 760 ML BOILING WATER, 80 ML
       BENZENE (18 ML @ 50 DEG C), 1.2 ML CHLOROFORM, 250 ML DRY ETHER, 20
       ML GLYCEROL, O.8 ML ALCOHOL, 1900 ML OF 10% AMMONIA WATER; ALMOST
       INSOL IN PETROLEUM ETHER
     * Sol in carbon disulfide, alkalies, and acids (with formation of
       salts)
     * Sol in pyrimidine

   from [14]HSDB

   Solubilities
        Slightly sol in water and soluble in alcohol.
   from [15]HSDB

   Spectral Properties

     * Specific optical rotation @ 15 deg C/D + 230 deg (concn by volume =
       1.8 in chloroform); specific optical rotation @ 17 deg C/D + 258
       deg (alcohol); +322 deg (concn by volume = 1.6 in 2 M HCl); UV
       absorption spectrum is identical with that of quinine; blue
       fluorescence in dilute H2SO4.
     * MAX ABSORPTION (METHANOL): 230 NM (LOG E= 4.53); 280 NM (LOG E=
       3.54); 336 NM (LOG E= 3.69); SPECIFIC OPTICAL ROTATION (ALCOHOL) @
       25 DEG C/D +212 DEG
     * UV: 4-824 (Organic Electronic Spectral Data, Phillips et al, John
       Wiley and Sons, NY)
     * MASS: 35750 (NIST/EPA/MSDS Mass Spectral Database, 1990 version)

   from [16]HSDB

   Spectral Properties

     * SPECIFIC OPTICAL ROTATION: -169 DEG @ 15 DEG C/D (CONCN= 2 G IN 100
       ML 97% ALCOHOL); SPECIFIC OPTICAL ROTATION: -117 DEG @ 17 DEG C/D
       (CONCN= 1.5 G IN 100 ML CHLOROFORM); SPECIFIC OPTICAL ROTATION:
       -285 DEG @ 15 DEG C/D (CONCN= 0.4 MOLAR IN 0.1 N SULFURIC ACID.
     * INDEX OF REFRACTION: 1.625
     * IR: 18113 (Sadtler Research Laboratories IR Grating Collection)
     * UV: 1686 (Sadtler Research Laboratories Spectral Collection)
     * MASS: 4907 (National Bureau of Standards EPA-NIH Mass Spectra Data
       Base, NSRDS-NBS-63)
     * Intense mass spectral peaks: 136 m/z, 189 m/z, 324 m/z

   from [17]HSDB

   Spectral Properties

     * IR: 8162 (Sadtler Research Laboratories IR Grating Collection)
     * UV: 11429 (Sadtler Research Laboratories Spectral Collection)

   from [18]HSDB

   Other Chemical/Physical Properties

     * Prisms from dilute alcohol; loses one-half water in air; MP: about
       168 deg C /Hemipentahydrate/
     * Lustrous needles; decomposes at 259 deg C (drug); specific optical
       rotation at 20 deg C/D + 200 deg ; sol in 60 parts water, freely
       soluble in hot water, in alcohol, chloroform, slightly in ether;
       neutral reaction. /Quinidine hydrochloride monohydrate/
     * Rods; soluble in 8 parts water with blue fluorescence /Acid sulfate
       tetrahydrate/
     * IR: 9516 (Sadtler Research Laboratories Prism Collection)
       /Quinidine hydrate/
     * MASS: 1940 (Atlas of Mass Spectral Data, John Wiley & Sons, New
       York) /Quinidine hydrate/
     * Crystals from water; decomposes at 115 deg C; specific optical
       rotation at 15 deg C/D + 223 deg (0.4 molar solution). /Quinidine
       dihydrobromide trihydrate/
     * Crystals from water; mp: 248 deg C (dry); readily soluble in hot
       water, alcohol. /Quinidine methiodide monohydrate/
     * Crystals; MP: 175-176.5 deg C; sol in 9 parts water, 60 parts
       alcohol /Gluconate/

   from [19]HSDB

   Other Chemical/Physical Properties

     * SUBLIMES IN HIGH VACUUM @ 170-180 DEG C; BLUE FLUORESCENCE IS
       ESPECIALLY STRONG IN DILUTE SULFURIC ACID.
     * MAX ABSORPTION (WATER): 347.5 NM (LOG E= 3.74) /HYDRATE/
     * Quinine sulfate occurs as fine, needle-like, white crystals which
       are usually lusterless and make a light and readily compressible
       mass; the drug has a persistent, very bitter taste. Quinine sulfate
       has solubilities of approximately 2 mg/ml in water and 8.3 mg/ml in
       alcohol at 25 deg C. /Quinine sulfate/
     * Microcrystalline powder; mp: 57 deg C; efflorescent; loses one
       water molecule inair, two water molecules over sulfuric acid;
       anhyrous at 125 deg C. /Quinine trihydrate/
     * Crystals from ethanol; mp: 211-212. 5 deg C; specific optical
       rotation: -156.4 deg at 25 deg C/D (concentration by volume = 0.97
       g in 100 ml in methanol). /Quinine tartrate/
     * Levorotatory

   from [20]HSDB

   Other Chemical/Physical Properties

     * WHITE; VERY BITTER; ODORLESS; FINE CRYSTALS; FREQUENTLY COHERING IN
       MASSES; PH (1% AQUEOUS SOLN): 6.0-6.8 PKA: 4.2, 8.8; SPECIFIC
       OPTICAL ROTATION: +212 @ 25 DEG C/D (95% ALCOHOL); ABOUT + 260 @ 25
       DEG C/D (DILUTE HYDROCHLORIC ACID); DOES NOT LOSE ALL OF ITS WATER
       BELOW 120 DEG C 1 G DISSOLVES IN ABOUT 90 ML WATER, 15 ML BOILING
       WATER, 10 ML ALCOHOL, 3 ML METHANOL, 12 ML CHLOROFORM; INSOL IN
       ETHER, BENZENE; /DIHYDRATE/
     * ODORLESS; VERY BITTER TASTE; SOLN ARE NEUTRAL OR ALKALINE TO LITMUS
     * INDEX OF REFRACTION ALPHA 1.565; BETA 1.607; GAMMA 1.670. OPTIC
       SIGN +, EXTINCTION PARALLEL, ELONGATION +
     * Specific optical rotation: + 212 deg at 25 deg C/D (alcohol);
       prisms; needles from water. /d-quinidine sulfate/
     * Rods; soluble in 8 parts water with blue fluorescence. /Quinidine
       acid sulfate tetrahydrate/

   from [21]HSDB

   Computed Properties
   Molecular Weight                  324.41676 [g/mol]
   Molecular Formula                 C[20]H[24]N[2]O[2]
   XLogP3                            2.9
   H-Bond Donor                      1
   H-Bond Acceptor                   4
   Rotatable Bond Count              4
   Exact Mass                        324.183778
   MonoIsotopic Mass                 324.183778
   Topological Polar Surface Area    45.6
   Heavy Atom Count                  24
   Formal Charge                     0
   Complexity                        457
   Isotope Atom Count                0
   Defined Atom Stereocenter Count   3
   Undefined Atom Stereocenter Count 1
   Defined Bond Stereocenter Count   0
   Undefined Bond Stereocenter Count 0
   Covalently-Bonded Unit Count      1
   Feature 3D Acceptor Count         3
   Feature 3D Donor Count            1
   Feature 3D Cation Count           1
   Feature 3D Hydrophobe Count       1
   Feature 3D Ring Count             3
   Effective Rotor Count             5.2
   Conformer Sampling RMSD           0.8
   CID Conformer Count               [22]10

References

   1. http://toxnet.nlm.nih.gov/cgi-bin/sis/search/r?dbs+hsdb:@term+@rn+@rel+56-54-2
   2. http://toxnet.nlm.nih.gov/cgi-bin/sis/search/r?dbs+hsdb:@term+@rn+@rel+130-95-0
   3. http://toxnet.nlm.nih.gov/cgi-bin/sis/search/r?dbs+hsdb:@term+@rn+@rel+50-54-4
   4. http://toxnet.nlm.nih.gov/cgi-bin/sis/search/r?dbs+hsdb:@term+@rn+@rel+130-95-0
   5. http://toxnet.nlm.nih.gov/cgi-bin/sis/search/r?dbs+hsdb:@term+@rn+@rel+130-95-0
   6. http://toxnet.nlm.nih.gov/cgi-bin/sis/search/r?dbs+hsdb:@term+@rn+@rel+50-54-4
   7. http://toxnet.nlm.nih.gov/cgi-bin/sis/search/r?dbs+hsdb:@term+@rn+@rel+56-54-2
   8. http://toxnet.nlm.nih.gov/cgi-bin/sis/search/r?dbs+hsdb:@term+@rn+@rel+130-95-0
   9. http://toxnet.nlm.nih.gov/cgi-bin/sis/search/r?dbs+hsdb:@term+@rn+@rel+56-54-2
  10. http://toxnet.nlm.nih.gov/cgi-bin/sis/search/r?dbs+hsdb:@term+@rn+@rel+130-95-0
  11. http://toxnet.nlm.nih.gov/cgi-bin/sis/search/r?dbs+hsdb:@term+@rn+@rel+56-54-2
  12. http://toxnet.nlm.nih.gov/cgi-bin/sis/search/r?dbs+hsdb:@term+@rn+@rel+130-95-0
  13. http://toxnet.nlm.nih.gov/cgi-bin/sis/search/r?dbs+hsdb:@term+@rn+@rel+56-54-2
  14. http://toxnet.nlm.nih.gov/cgi-bin/sis/search/r?dbs+hsdb:@term+@rn+@rel+130-95-0
  15. http://toxnet.nlm.nih.gov/cgi-bin/sis/search/r?dbs+hsdb:@term+@rn+@rel+50-54-4
  16. http://toxnet.nlm.nih.gov/cgi-bin/sis/search/r?dbs+hsdb:@term+@rn+@rel+56-54-2
  17. http://toxnet.nlm.nih.gov/cgi-bin/sis/search/r?dbs+hsdb:@term+@rn+@rel+130-95-0
  18. http://toxnet.nlm.nih.gov/cgi-bin/sis/search/r?dbs+hsdb:@term+@rn+@rel+50-54-4
  19. http://toxnet.nlm.nih.gov/cgi-bin/sis/search/r?dbs+hsdb:@term+@rn+@rel+56-54-2
  20. http://toxnet.nlm.nih.gov/cgi-bin/sis/search/r?dbs+hsdb:@term+@rn+@rel+130-95-0
  21. http://toxnet.nlm.nih.gov/cgi-bin/sis/search/r?dbs+hsdb:@term+@rn+@rel+50-54-4
  22. http://pubchem.ncbi.nlm.nih.gov/vw3d/vw3d.cgi?cid=8549
