   Color/Form
        Colorless crystals.
   from [1]HSDB

   Melting Point
        127-148 deg C
   from [2]HSDB

   Density/Specific Gravity
        Bulk density 1318 kg/cu m (20 deg C)
   from [3]HSDB

   Octanol/Water Partition Coefficient
        log Kow= 2.68
   from [4]HSDB

   Solubilities

     * In acetone, 15 (Z), 88 (E); cyclohexanone, 27 (Z); dichloromethane,
       315 (Z); dimethylformamide, 40 (Z), 272 (E); hexane, 0.02 (Z), 0.04
       (E); methanol, 7 (Z); toluene, 7 (Z); (all in g/l, 20-23 deg C).
     * In water, <50 mg/l at 20-23 deg C.

   from [5]HSDB

   Vapor Pressure
        7.3X10-6 mm Hg @ 25 deg C
   from [6]HSDB

   Other Chemical/Physical Properties
        Vapor pressure: (E)-isomer 9.7X10-4 mPa; (Z) isomer 1.0X10-3 mPa
   (both @ 25 deg C)
   from [7]HSDB

   Computed Properties
   Molecular Weight                  387.85668 [g/mol]
   Molecular Formula                 C[21]H[22]ClNO[4]
   XLogP3-AA                         3.9
   H-Bond Donor                      0
   H-Bond Acceptor                   4
   Rotatable Bond Count              5
   Exact Mass                        387.123736
   MonoIsotopic Mass                 387.123736
   Topological Polar Surface Area    48
   Heavy Atom Count                  27
   Formal Charge                     0
   Complexity                        512
   Isotope Atom Count                0
   Defined Atom Stereocenter Count   0
   Undefined Atom Stereocenter Count 0
   Defined Bond Stereocenter Count   1
   Undefined Bond Stereocenter Count 0
   Covalently-Bonded Unit Count      1
   Feature 3D Acceptor Count         4
   Feature 3D Ring Count             3
   Effective Rotor Count             7.2
   Conformer Sampling RMSD           0.8
   CID Conformer Count               [8]34

References

   1. http://toxnet.nlm.nih.gov/cgi-bin/sis/search/r?dbs+hsdb:@term+@rn+@rel+110488-70-5
   2. http://toxnet.nlm.nih.gov/cgi-bin/sis/search/r?dbs+hsdb:@term+@rn+@rel+110488-70-5
   3. http://toxnet.nlm.nih.gov/cgi-bin/sis/search/r?dbs+hsdb:@term+@rn+@rel+110488-70-5
   4. http://toxnet.nlm.nih.gov/cgi-bin/sis/search/r?dbs+hsdb:@term+@rn+@rel+110488-70-5
   5. http://toxnet.nlm.nih.gov/cgi-bin/sis/search/r?dbs+hsdb:@term+@rn+@rel+110488-70-5
   6. http://toxnet.nlm.nih.gov/cgi-bin/sis/search/r?dbs+hsdb:@term+@rn+@rel+110488-70-5
   7. http://toxnet.nlm.nih.gov/cgi-bin/sis/search/r?dbs+hsdb:@term+@rn+@rel+110488-70-5
   8. http://pubchem.ncbi.nlm.nih.gov/vw3d/vw3d.cgi?cid=5889665
