   Color/Form
        Colorless liquid
   from [1]HSDB

   Odor

     * Aromatic odor
     * Pungent odor
     * SWEET, GASOLINE-LIKE ODOR

   from [2]HSDB

   Boiling Point
        136.1 deg C
   from [3]HSDB

   Melting Point
        -94.9 deg C
   from [4]HSDB

   Critical Temperature and Pressure
        Critical temperature = 617.15 K; critical pressure = 3.6X10+6 Pa
   from [5]HSDB

   Density/Specific Gravity
        0.8670 @ 20 deg C/4 deg C
   from [6]HSDB

   Heat of Combustion
        -17,780 BTU/lb= -9877 cal/g= -413.5x10+5 J/kg
   from [7]HSDB

   Heat of Vaporization
        4.8X10+7 J/kmol @ 178.20 K
   from [8]HSDB

   Octanol/Water Partition Coefficient
        log Kow= 3.15
   from [9]HSDB

   Solubilities

     * SOL IN ALL PROPORTIONS IN ETHYL ALCOHOL AND ETHYL ETHER
     * SOLUBILITY IN WATER @ 15 DEG C, 0.014 G/100 ML
     * Miscible with the usual organic solvents.
     * Soluble in alcohol, benzene, carbon tetrachloride, and ether.
     * Slight soluble in chloroform; miscible in ethanol and ethyl ether.
     * In water, 169 mg/l @ 25 deg C
     * Insol in ammonia; sol in SO2.

   from [10]HSDB

   Spectral Properties

     * SADTLER REF NUMBER: 246 (IR, PRISM); 82 (IR, GRATING)
     * IR: 4779 (Coblentz Society Spectral Collection)
     * UV: 97 (Sadtler Research Laboratories Spectral Collection)
     * NMR: 505 (Varian Associates NMR Spectra Catalogue)
     * MASS: 322 (Atlas of Mass Spectral Data, John Wiley & Sons, New
       York)
     * Index of refraction: 1.4959 at 20 deg C/D

   from [11]HSDB

   Surface Tension
        4.3 N/m @ 178.20 K
   from [12]HSDB

   Vapor Density
        3.66 (Air= 1)
   from [13]HSDB

   Vapor Pressure
        9.6 mm Hg @ 25 deg C
   from [14]HSDB

   Relative Evaporation Rate
        IT EVAPORATES ABOUT 94 TIMES MORE SLOWLY THAN ETHER
   from [15]HSDB

   Viscosity
        0.64 cP @ 25 deg C
   from [16]HSDB

   Other Chemical/Physical Properties

     * DENSITY OF SATURATED VAPOR-AIR MIXTURE AT 760 MM HG (AIR= 1): 1.03
       (26 DEG C); SPECIFIC DISPERSION: 174.6
     * CONVERSION FACTORS: 1 MG/L IS EQUIVALENT TO 230 PPM, 1 PPM IS
       EQUIVALENT TO 4.35 MG/CU M AT 25 DEG C, 760 MM HG
     * Specific heat: 0.41 cal/gal/K
     * Liquid-water interfacial tension: 35.48 dynes/cm= 0.03548 N/m @ 20
       deg C
     * Ratio of Specific Heats of Vapor (gas): 1.071
     * Heats of transition, J/(mol.K): fusion 9.164; formation @ 25 deg C:
       -12.456; entropy of formation 255.2
     * Cricital density: 2.67 mmol/cu m; critical volume: 374.0 cu m/mol
     * Viscosity: 0.678 mPas (20 deg C)
     * Ionization potential: 8.76 eV
     * Flame speed: 0.35 m/s
     * Partition coefficients at 37 deg C for ethylbenzene into blood=
       28.4; into oil= 3,790. [Sato A, Nakajima T; Scand J Work Environ
       Health 13: 81-93 (1987)] [17]PubMed Abstract
     * Henry's Law constant= 7.88X10-3 atm-cu m/mol @ 25 deg C
     * Hydroxyl radical rate constant= 7.10X10-12 cu m/molecule-sec @ 25
       deg C

   from [18]HSDB

   Computed Properties
   Molecular Weight                  106.165 [g/mol]
   Molecular Formula                 C[8]H[10]
   XLogP3                            3.1
   H-Bond Donor                      0
   H-Bond Acceptor                   0
   Rotatable Bond Count              1
   Exact Mass                        106.07825
   MonoIsotopic Mass                 106.07825
   Topological Polar Surface Area    0
   Heavy Atom Count                  8
   Formal Charge                     0
   Complexity                        51.1
   Isotope Atom Count                0
   Defined Atom Stereocenter Count   0
   Undefined Atom Stereocenter Count 0
   Defined Bond Stereocenter Count   0
   Undefined Bond Stereocenter Count 0
   Covalently-Bonded Unit Count      1
   Feature 3D Hydrophobe Count       1
   Feature 3D Ring Count             1
   Effective Rotor Count             1
   Conformer Sampling RMSD           0.4
   CID Conformer Count               [19]1

References

   1. http://toxnet.nlm.nih.gov/cgi-bin/sis/search/r?dbs+hsdb:@term+@rn+@rel+100-41-4
   2. http://toxnet.nlm.nih.gov/cgi-bin/sis/search/r?dbs+hsdb:@term+@rn+@rel+100-41-4
   3. http://toxnet.nlm.nih.gov/cgi-bin/sis/search/r?dbs+hsdb:@term+@rn+@rel+100-41-4
   4. http://toxnet.nlm.nih.gov/cgi-bin/sis/search/r?dbs+hsdb:@term+@rn+@rel+100-41-4
   5. http://toxnet.nlm.nih.gov/cgi-bin/sis/search/r?dbs+hsdb:@term+@rn+@rel+100-41-4
   6. http://toxnet.nlm.nih.gov/cgi-bin/sis/search/r?dbs+hsdb:@term+@rn+@rel+100-41-4
   7. http://toxnet.nlm.nih.gov/cgi-bin/sis/search/r?dbs+hsdb:@term+@rn+@rel+100-41-4
   8. http://toxnet.nlm.nih.gov/cgi-bin/sis/search/r?dbs+hsdb:@term+@rn+@rel+100-41-4
   9. http://toxnet.nlm.nih.gov/cgi-bin/sis/search/r?dbs+hsdb:@term+@rn+@rel+100-41-4
  10. http://toxnet.nlm.nih.gov/cgi-bin/sis/search/r?dbs+hsdb:@term+@rn+@rel+100-41-4
  11. http://toxnet.nlm.nih.gov/cgi-bin/sis/search/r?dbs+hsdb:@term+@rn+@rel+100-41-4
  12. http://toxnet.nlm.nih.gov/cgi-bin/sis/search/r?dbs+hsdb:@term+@rn+@rel+100-41-4
  13. http://toxnet.nlm.nih.gov/cgi-bin/sis/search/r?dbs+hsdb:@term+@rn+@rel+100-41-4
  14. http://toxnet.nlm.nih.gov/cgi-bin/sis/search/r?dbs+hsdb:@term+@rn+@rel+100-41-4
  15. http://toxnet.nlm.nih.gov/cgi-bin/sis/search/r?dbs+hsdb:@term+@rn+@rel+100-41-4
  16. http://toxnet.nlm.nih.gov/cgi-bin/sis/search/r?dbs+hsdb:@term+@rn+@rel+100-41-4
  17. http://www.ncbi.nlm.nih.gov/entrez/query.fcgi?cmd=Retrieve&db=pubmed&dopt=Abstract&list_uids=3299685
  18. http://toxnet.nlm.nih.gov/cgi-bin/sis/search/r?dbs+hsdb:@term+@rn+@rel+100-41-4
  19. http://pubchem.ncbi.nlm.nih.gov/vw3d/vw3d.cgi?cid=7500
