11316
  -OEChem-06261205312D

 19 20  0     0  0  0  0  0  0999 V2000
    4.2690   -1.5173    0.0000 Br  0  0  0  0  0  0  0  0  0  0  0  0
    2.5369   -0.5173    0.0000 O   0  0  0  0  0  0  0  0  0  0  0  0
    5.1350   -0.0173    0.0000 C   0  0  0  0  0  0  0  0  0  0  0  0
    5.1350    0.9827    0.0000 C   0  0  0  0  0  0  0  0  0  0  0  0
    4.2690   -0.5173    0.0000 C   0  0  0  0  0  0  0  0  0  0  0  0
    4.2690    1.4827    0.0000 C   0  0  0  0  0  0  0  0  0  0  0  0
    6.0290   -0.5520    0.0000 C   0  0  0  0  0  0  0  0  0  0  0  0
    6.0290    1.5173    0.0000 C   0  0  0  0  0  0  0  0  0  0  0  0
    3.4030   -0.0173    0.0000 C   0  0  0  0  0  0  0  0  0  0  0  0
    3.4030    0.9827    0.0000 C   0  0  0  0  0  0  0  0  0  0  0  0
    6.9350   -0.0381    0.0000 C   0  0  0  0  0  0  0  0  0  0  0  0
    6.9350    1.0035    0.0000 C   0  0  0  0  0  0  0  0  0  0  0  0
    4.2690    2.1027    0.0000 H   0  0  0  0  0  0  0  0  0  0  0  0
    6.0218   -1.1720    0.0000 H   0  0  0  0  0  0  0  0  0  0  0  0
    6.0218    2.1373    0.0000 H   0  0  0  0  0  0  0  0  0  0  0  0
    2.8660    1.2927    0.0000 H   0  0  0  0  0  0  0  0  0  0  0  0
    7.4708   -0.3502    0.0000 H   0  0  0  0  0  0  0  0  0  0  0  0
    7.4708    1.3156    0.0000 H   0  0  0  0  0  0  0  0  0  0  0  0
    2.0000   -0.2073    0.0000 H   0  0  0  0  0  0  0  0  0  0  0  0
  1  5  1  0  0  0  0
  2  9  1  0  0  0  0
  2 19  1  0  0  0  0
  3  4  1  0  0  0  0
  3  5  1  0  0  0  0
  3  7  2  0  0  0  0
  4  6  1  0  0  0  0
  4  8  2  0  0  0  0
  5  9  2  0  0  0  0
  6 10  2  0  0  0  0
  6 13  1  0  0  0  0
  7 11  1  0  0  0  0
  7 14  1  0  0  0  0
  8 12  1  0  0  0  0
  8 15  1  0  0  0  0
  9 10  1  0  0  0  0
 10 16  1  0  0  0  0
 11 12  2  0  0  0  0
 11 17  1  0  0  0  0
 12 18  1  0  0  0  0
M  END
> <PUBCHEM_COMPOUND_CID>
11316

> <PUBCHEM_COMPOUND_CANONICALIZED>
1

> <PUBCHEM_CACTVS_COMPLEXITY>
160

> <PUBCHEM_CACTVS_HBOND_ACCEPTOR>
1

> <PUBCHEM_CACTVS_HBOND_DONOR>
1

> <PUBCHEM_CACTVS_ROTATABLE_BOND>
0

> <PUBCHEM_CACTVS_SUBSKEYS>
AAADcYBwIAAAEAAAAAAAAAAAAAAAAAAAAAAwYAAAAAAAAADBUAAAGgBACAABrASAmAAwBsAAAgCAAiBCAAACAAAgIAQIiAAGCKgIJiKCERKAcAAkwBEImheAwLAOoAABEAAQhABAAAIgACEIAAAAAAAAAA==

> <PUBCHEM_IUPAC_OPENEYE_NAME>
1-bromonaphthalen-2-ol

> <PUBCHEM_IUPAC_CAS_NAME>
1-bromo-2-naphthalenol

> <PUBCHEM_IUPAC_NAME>
1-bromonaphthalen-2-ol

> <PUBCHEM_IUPAC_SYSTEMATIC_NAME>
1-bromanylnaphthalen-2-ol

> <PUBCHEM_IUPAC_TRADITIONAL_NAME>
1-bromo-2-naphthol

> <PUBCHEM_IUPAC_INCHI>
InChI=1S/C10H7BrO/c11-10-8-4-2-1-3-7(8)5-6-9(10)12/h1-6,12H

> <PUBCHEM_IUPAC_INCHIKEY>
FQJZPYXGPYJJIH-UHFFFAOYSA-N

> <PUBCHEM_XLOGP3>
3

> <PUBCHEM_EXACT_MASS>
221.968027

> <PUBCHEM_MOLECULAR_FORMULA>
C10H7BrO

> <PUBCHEM_MOLECULAR_WEIGHT>
223.06598

> <PUBCHEM_OPENEYE_CAN_SMILES>
C1=CC=C2C(=C1)C=CC(=C2Br)O

> <PUBCHEM_OPENEYE_ISO_SMILES>
C1=CC=C2C(=C1)C=CC(=C2Br)O

> <PUBCHEM_CACTVS_TPSA>
20.2

> <PUBCHEM_MONOISOTOPIC_WEIGHT>
221.968027

> <PUBCHEM_TOTAL_CHARGE>
0

> <PUBCHEM_HEAVY_ATOM_COUNT>
12

> <PUBCHEM_ATOM_DEF_STEREO_COUNT>
0

> <PUBCHEM_ATOM_UDEF_STEREO_COUNT>
0

> <PUBCHEM_BOND_DEF_STEREO_COUNT>
0

> <PUBCHEM_BOND_UDEF_STEREO_COUNT>
0

> <PUBCHEM_ISOTOPIC_ATOM_COUNT>
0

> <PUBCHEM_COMPONENT_COUNT>
1

> <PUBCHEM_CACTVS_TAUTO_COUNT>
3

> <PUBCHEM_COORDINATE_TYPE>
1
5
255

> <PUBCHEM_BONDANNOTATIONS>
11  12  8
3  4  8
3  5  8
3  7  8
4  6  8
4  8  8
5  9  8
6  10  8
7  11  8
8  12  8
9  10  8

$$$$

