448403
  -OEChem-07051213152D

 31 33  0     1  0  0  0  0  0999 V2000
    3.7066    3.4222    0.0000 F   0  0  0  0  0  0  0  0  0  0  0  0
    4.4026    1.4530    0.0000 O   0  0  0  0  0  0  0  0  0  0  0  0
    6.7485    0.3612    0.0000 O   0  0  0  0  0  0  0  0  0  0  0  0
    6.7523    2.5368    0.0000 O   0  0  0  0  0  0  0  0  0  0  0  0
    4.6783   -0.3075    0.0000 N   0  0  0  0  0  0  0  0  0  0  0  0
    4.6783   -1.9170    0.0000 N   0  0  0  0  0  0  0  0  0  0  0  0
    2.8660   -0.1122    0.0000 N   0  0  0  0  0  0  0  0  0  0  0  0
    2.0000   -1.6122    0.0000 N   0  0  0  0  0  0  0  0  0  0  0  0
    2.8660   -3.1122    0.0000 N   0  0  0  0  0  0  0  0  0  0  0  0
    5.9405    0.9504    0.0000 C   0  0  1  0  0  0  0  0  0  0  0  0
    4.9889    0.6430    0.0000 C   0  0  1  0  0  0  0  0  0  0  0  0
    5.9422    1.9504    0.0000 C   0  0  1  0  0  0  0  0  0  0  0  0
    4.9917    2.2610    0.0000 C   0  0  1  0  0  0  0  0  0  0  0  0
    4.6844    3.2126    0.0000 C   0  0  0  0  0  0  0  0  0  0  0  0
    3.7320   -0.6122    0.0000 C   0  0  0  0  0  0  0  0  0  0  0  0
    5.2619   -1.1122    0.0000 C   0  0  0  0  0  0  0  0  0  0  0  0
    3.7320   -1.6122    0.0000 C   0  0  0  0  0  0  0  0  0  0  0  0
    2.8660   -2.1122    0.0000 C   0  0  0  0  0  0  0  0  0  0  0  0
    2.0000   -0.6122    0.0000 C   0  0  0  0  0  0  0  0  0  0  0  0
    6.4934    1.2309    0.0000 H   0  0  0  0  0  0  0  0  0  0  0  0
    5.4266    0.2038    0.0000 H   0  0  0  0  0  0  0  0  0  0  0  0
    6.4942    1.6680    0.0000 H   0  0  0  0  0  0  0  0  0  0  0  0
    4.3795    2.3591    0.0000 H   0  0  0  0  0  0  0  0  0  0  0  0
    5.2985    3.2979    0.0000 H   0  0  0  0  0  0  0  0  0  0  0  0
    4.7071    3.8322    0.0000 H   0  0  0  0  0  0  0  0  0  0  0  0
    7.3154    0.6124    0.0000 H   0  0  0  0  0  0  0  0  0  0  0  0
    6.6886    3.1535    0.0000 H   0  0  0  0  0  0  0  0  0  0  0  0
    5.8819   -1.1122    0.0000 H   0  0  0  0  0  0  0  0  0  0  0  0
    1.4631   -0.3022    0.0000 H   0  0  0  0  0  0  0  0  0  0  0  0
    2.3291   -3.4222    0.0000 H   0  0  0  0  0  0  0  0  0  0  0  0
    3.4030   -3.4222    0.0000 H   0  0  0  0  0  0  0  0  0  0  0  0
  1 14  1  0  0  0  0
  2 11  1  0  0  0  0
  2 13  1  0  0  0  0
 10  3  1  1  0  0  0
  3 26  1  0  0  0  0
 12  4  1  1  0  0  0
  4 27  1  0  0  0  0
 11  5  1  6  0  0  0
  5 15  1  0  0  0  0
  5 16  1  0  0  0  0
  6 16  2  0  0  0  0
  6 17  1  0  0  0  0
  7 15  1  0  0  0  0
  7 19  2  0  0  0  0
  8 18  2  0  0  0  0
  8 19  1  0  0  0  0
  9 18  1  0  0  0  0
  9 30  1  0  0  0  0
  9 31  1  0  0  0  0
 10 11  1  0  0  0  0
 10 12  1  0  0  0  0
 10 20  1  0  0  0  0
 11 21  1  0  0  0  0
 12 13  1  0  0  0  0
 12 22  1  0  0  0  0
 13 14  1  6  0  0  0
 13 23  1  0  0  0  0
 14 24  1  0  0  0  0
 14 25  1  0  0  0  0
 15 17  2  0  0  0  0
 16 28  1  0  0  0  0
 17 18  1  0  0  0  0
 19 29  1  0  0  0  0
M  END
> <PUBCHEM_COMPOUND_CID>
448403

> <PUBCHEM_COMPOUND_CANONICALIZED>
1

> <PUBCHEM_CACTVS_COMPLEXITY>
338

> <PUBCHEM_CACTVS_HBOND_ACCEPTOR>
8

> <PUBCHEM_CACTVS_HBOND_DONOR>
3

> <PUBCHEM_CACTVS_ROTATABLE_BOND>
2

> <PUBCHEM_CACTVS_SUBSKEYS>
AAADccBzsQAAAAAAAAAAAAAAAAAAAWJAAAAsAAAAAAAAAFgB+AAAHwAQCAAACBzhlwYF8L9MFgCgAQZhZACAgC0REKABUCAoVBCDWAJAyEAeRAgPAALTACCwAAAAAAAAAAAAAAAAAAAAAAAAAAAAAAAAAA==

> <PUBCHEM_IUPAC_OPENEYE_NAME>
(2R,3R,4S,5S)-2-(6-aminopurin-9-yl)-5-(fluoromethyl)tetrahydrofuran-3,4-diol

> <PUBCHEM_IUPAC_CAS_NAME>
(2R,3R,4S,5S)-2-(6-aminopurin-9-yl)-5-(fluoromethyl)oxolane-3,4-diol

> <PUBCHEM_IUPAC_NAME>
(2R,3R,4S,5S)-2-(6-aminopurin-9-yl)-5-(fluoromethyl)oxolane-3,4-diol

> <PUBCHEM_IUPAC_SYSTEMATIC_NAME>
(2R,3R,4S,5S)-2-(6-aminopurin-9-yl)-5-(fluoranylmethyl)oxolane-3,4-diol

> <PUBCHEM_IUPAC_TRADITIONAL_NAME>
(2R,3R,4S,5S)-2-adenin-9-yl-5-(fluoromethyl)tetrahydrofuran-3,4-diol

> <PUBCHEM_IUPAC_INCHI>
InChI=1S/C10H12FN5O3/c11-1-4-6(17)7(18)10(19-4)16-3-15-5-8(12)13-2-14-9(5)16/h2-4,6-7,10,17-18H,1H2,(H2,12,13,14)/t4-,6-,7-,10-/m1/s1

> <PUBCHEM_IUPAC_INCHIKEY>
QPVLKMICBYRPSX-KQYNXXCUSA-N

> <PUBCHEM_XLOGP3>
-0.6

> <PUBCHEM_EXACT_MASS>
269.092417

> <PUBCHEM_MOLECULAR_FORMULA>
C10H12FN5O3

> <PUBCHEM_MOLECULAR_WEIGHT>
269.232383

> <PUBCHEM_OPENEYE_CAN_SMILES>
C1=NC2=C(C(=N1)N)N=CN2C3C(C(C(O3)CF)O)O

> <PUBCHEM_OPENEYE_ISO_SMILES>
C1=NC2=C(C(=N1)N)N=CN2[C@H]3[C@@H]([C@@H]([C@H](O3)CF)O)O

> <PUBCHEM_CACTVS_TPSA>
119

> <PUBCHEM_MONOISOTOPIC_WEIGHT>
269.092417

> <PUBCHEM_TOTAL_CHARGE>
0

> <PUBCHEM_HEAVY_ATOM_COUNT>
19

> <PUBCHEM_ATOM_DEF_STEREO_COUNT>
4

> <PUBCHEM_ATOM_UDEF_STEREO_COUNT>
0

> <PUBCHEM_BOND_DEF_STEREO_COUNT>
0

> <PUBCHEM_BOND_UDEF_STEREO_COUNT>
0

> <PUBCHEM_ISOTOPIC_ATOM_COUNT>
0

> <PUBCHEM_COMPONENT_COUNT>
1

> <PUBCHEM_CACTVS_TAUTO_COUNT>
3

> <PUBCHEM_COORDINATE_TYPE>
1
5
255

> <PUBCHEM_BONDANNOTATIONS>
13  14  6
15  17  8
17  18  8
10  3  5
12  4  5
11  5  6
5  15  8
5  16  8
6  16  8
6  17  8
7  15  8
7  19  8
8  18  8
8  19  8

$$$$

