4148
  -OEChem-06251223552D

 61 63  0     0  0  0  0  0  0999 V2000
    7.1962   -1.4400    0.0000 O   0  0  0  0  0  0  0  0  0  0  0  0
    2.0000   -5.4400    0.0000 O   0  0  0  0  0  0  0  0  0  0  0  0
    2.0000   -7.4400    0.0000 O   0  0  0  0  0  0  0  0  0  0  0  0
    6.3301    3.0600    0.0000 N   0  0  0  0  0  0  0  0  0  0  0  0
    6.3301    5.0600    0.0000 N   0  0  0  0  0  0  0  0  0  0  0  0
    2.8660   -6.9400    0.0000 N   0  0  0  0  0  0  0  0  0  0  0  0
    5.4641    3.5600    0.0000 C   0  0  0  0  0  0  0  0  0  0  0  0
    7.1962    3.5600    0.0000 C   0  0  0  0  0  0  0  0  0  0  0  0
    5.4641    4.5600    0.0000 C   0  0  0  0  0  0  0  0  0  0  0  0
    7.1962    4.5600    0.0000 C   0  0  0  0  0  0  0  0  0  0  0  0
    6.3301    2.0600    0.0000 C   0  0  0  0  0  0  0  0  0  0  0  0
    6.3301    6.0600    0.0000 C   0  0  0  0  0  0  0  0  0  0  0  0
    5.4641    1.5600    0.0000 C   0  0  0  0  0  0  0  0  0  0  0  0
    7.1962    1.5600    0.0000 C   0  0  0  0  0  0  0  0  0  0  0  0
    4.5981   -2.9400    0.0000 C   0  0  0  0  0  0  0  0  0  0  0  0
    5.4641   -2.4400    0.0000 C   0  0  0  0  0  0  0  0  0  0  0  0
    4.5981   -3.9400    0.0000 C   0  0  0  0  0  0  0  0  0  0  0  0
    5.4641   -1.4400    0.0000 C   0  0  0  0  0  0  0  0  0  0  0  0
    6.3301    0.0600    0.0000 C   0  0  0  0  0  0  0  0  0  0  0  0
    7.1962    6.5600    0.0000 C   0  0  0  0  0  0  0  0  0  0  0  0
    5.4641    6.5600    0.0000 C   0  0  0  0  0  0  0  0  0  0  0  0
    5.4641    0.5600    0.0000 C   0  0  0  0  0  0  0  0  0  0  0  0
    7.1962    0.5600    0.0000 C   0  0  0  0  0  0  0  0  0  0  0  0
    3.7320   -4.4400    0.0000 C   0  0  0  0  0  0  0  0  0  0  0  0
    6.3301   -0.9400    0.0000 C   0  0  0  0  0  0  0  0  0  0  0  0
    3.7320   -5.4400    0.0000 C   0  0  0  0  0  0  0  0  0  0  0  0
    7.1962    7.5600    0.0000 C   0  0  0  0  0  0  0  0  0  0  0  0
    5.4641    7.5600    0.0000 C   0  0  0  0  0  0  0  0  0  0  0  0
    6.3301    8.0600    0.0000 C   0  0  0  0  0  0  0  0  0  0  0  0
    2.8660   -5.9400    0.0000 C   0  0  0  0  0  0  0  0  0  0  0  0
    4.8535    3.6677    0.0000 H   0  0  0  0  0  0  0  0  0  0  0  0
    5.2520    2.9774    0.0000 H   0  0  0  0  0  0  0  0  0  0  0  0
    7.4082    2.9774    0.0000 H   0  0  0  0  0  0  0  0  0  0  0  0
    7.8067    3.6677    0.0000 H   0  0  0  0  0  0  0  0  0  0  0  0
    5.2520    5.1426    0.0000 H   0  0  0  0  0  0  0  0  0  0  0  0
    4.8535    4.4523    0.0000 H   0  0  0  0  0  0  0  0  0  0  0  0
    7.8067    4.4523    0.0000 H   0  0  0  0  0  0  0  0  0  0  0  0
    7.4082    5.1426    0.0000 H   0  0  0  0  0  0  0  0  0  0  0  0
    4.9272    1.8700    0.0000 H   0  0  0  0  0  0  0  0  0  0  0  0
    7.7331    1.8700    0.0000 H   0  0  0  0  0  0  0  0  0  0  0  0
    4.3860   -2.3574    0.0000 H   0  0  0  0  0  0  0  0  0  0  0  0
    3.9875   -3.0477    0.0000 H   0  0  0  0  0  0  0  0  0  0  0  0
    5.6762   -3.0226    0.0000 H   0  0  0  0  0  0  0  0  0  0  0  0
    6.0747   -2.3323    0.0000 H   0  0  0  0  0  0  0  0  0  0  0  0
    4.8101   -4.5226    0.0000 H   0  0  0  0  0  0  0  0  0  0  0  0
    5.2087   -3.8323    0.0000 H   0  0  0  0  0  0  0  0  0  0  0  0
    5.2520   -0.8574    0.0000 H   0  0  0  0  0  0  0  0  0  0  0  0
    4.8535   -1.5477    0.0000 H   0  0  0  0  0  0  0  0  0  0  0  0
    7.7331    6.2500    0.0000 H   0  0  0  0  0  0  0  0  0  0  0  0
    4.9272    6.2500    0.0000 H   0  0  0  0  0  0  0  0  0  0  0  0
    4.9272    0.2500    0.0000 H   0  0  0  0  0  0  0  0  0  0  0  0
    7.7331    0.2500    0.0000 H   0  0  0  0  0  0  0  0  0  0  0  0
    3.5200   -3.8574    0.0000 H   0  0  0  0  0  0  0  0  0  0  0  0
    3.1215   -4.5477    0.0000 H   0  0  0  0  0  0  0  0  0  0  0  0
    3.9441   -6.0226    0.0000 H   0  0  0  0  0  0  0  0  0  0  0  0
    4.3426   -5.3323    0.0000 H   0  0  0  0  0  0  0  0  0  0  0  0
    7.7331    7.8700    0.0000 H   0  0  0  0  0  0  0  0  0  0  0  0
    4.9272    7.8700    0.0000 H   0  0  0  0  0  0  0  0  0  0  0  0
    6.3301    8.6800    0.0000 H   0  0  0  0  0  0  0  0  0  0  0  0
    3.4030   -7.2500    0.0000 H   0  0  0  0  0  0  0  0  0  0  0  0
    2.0000   -8.0600    0.0000 H   0  0  0  0  0  0  0  0  0  0  0  0
  1 25  2  0  0  0  0
  2 30  2  0  0  0  0
  3  6  1  0  0  0  0
  3 61  1  0  0  0  0
  4  7  1  0  0  0  0
  4  8  1  0  0  0  0
  4 11  1  0  0  0  0
  5  9  1  0  0  0  0
  5 10  1  0  0  0  0
  5 12  1  0  0  0  0
  6 30  1  0  0  0  0
  6 60  1  0  0  0  0
  7  9  1  0  0  0  0
  7 31  1  0  0  0  0
  7 32  1  0  0  0  0
  8 10  1  0  0  0  0
  8 33  1  0  0  0  0
  8 34  1  0  0  0  0
  9 35  1  0  0  0  0
  9 36  1  0  0  0  0
 10 37  1  0  0  0  0
 10 38  1  0  0  0  0
 11 13  2  0  0  0  0
 11 14  1  0  0  0  0
 12 20  2  0  0  0  0
 12 21  1  0  0  0  0
 13 22  1  0  0  0  0
 13 39  1  0  0  0  0
 14 23  2  0  0  0  0
 14 40  1  0  0  0  0
 15 16  1  0  0  0  0
 15 17  1  0  0  0  0
 15 41  1  0  0  0  0
 15 42  1  0  0  0  0
 16 18  1  0  0  0  0
 16 43  1  0  0  0  0
 16 44  1  0  0  0  0
 17 24  1  0  0  0  0
 17 45  1  0  0  0  0
 17 46  1  0  0  0  0
 18 25  1  0  0  0  0
 18 47  1  0  0  0  0
 18 48  1  0  0  0  0
 19 22  2  0  0  0  0
 19 23  1  0  0  0  0
 19 25  1  0  0  0  0
 20 27  1  0  0  0  0
 20 49  1  0  0  0  0
 21 28  2  0  0  0  0
 21 50  1  0  0  0  0
 22 51  1  0  0  0  0
 23 52  1  0  0  0  0
 24 26  1  0  0  0  0
 24 53  1  0  0  0  0
 24 54  1  0  0  0  0
 26 30  1  0  0  0  0
 26 55  1  0  0  0  0
 26 56  1  0  0  0  0
 27 29  2  0  0  0  0
 27 57  1  0  0  0  0
 28 29  1  0  0  0  0
 28 58  1  0  0  0  0
 29 59  1  0  0  0  0
M  END
> <PUBCHEM_COMPOUND_CID>
4148

> <PUBCHEM_COMPOUND_CANONICALIZED>
1

> <PUBCHEM_CACTVS_COMPLEXITY>
520

> <PUBCHEM_CACTVS_HBOND_ACCEPTOR>
5

> <PUBCHEM_CACTVS_HBOND_DONOR>
2

> <PUBCHEM_CACTVS_ROTATABLE_BOND>
10

> <PUBCHEM_CACTVS_SUBSKEYS>
AAADceB7MAAAAAAAAAAAAAAAAAAAAAAAAAA8YIAAAAAAAAABQAAAHgAUCAAADAzBmAQwwINQAACIAqVSUACCAAAlAgAoiAEIZMgIYDLAlZGUIQhgkADIyYcYicCeCAAAAAAAAAAQAAAAAAAAAAAAAAAAAA==

> <PUBCHEM_IUPAC_OPENEYE_NAME>
8-oxo-8-[4-(4-phenylpiperazin-1-yl)phenyl]octanehydroxamic acid

> <PUBCHEM_IUPAC_CAS_NAME>
N-hydroxy-8-oxo-8-[4-(4-phenyl-1-piperazinyl)phenyl]octanamide

> <PUBCHEM_IUPAC_NAME>
N-hydroxy-8-oxo-8-[4-(4-phenylpiperazin-1-yl)phenyl]octanamide

> <PUBCHEM_IUPAC_SYSTEMATIC_NAME>
N-oxidanyl-8-oxidanylidene-8-[4-(4-phenylpiperazin-1-yl)phenyl]octanamide

> <PUBCHEM_IUPAC_TRADITIONAL_NAME>
8-keto-8-[4-(4-phenylpiperazino)phenyl]octanehydroxamic acid

> <PUBCHEM_IUPAC_INCHI>
InChI=1S/C24H31N3O3/c28-23(10-6-1-2-7-11-24(29)25-30)20-12-14-22(15-13-20)27-18-16-26(17-19-27)21-8-4-3-5-9-21/h3-5,8-9,12-15,30H,1-2,6-7,10-11,16-19H2,(H,25,29)

> <PUBCHEM_IUPAC_INCHIKEY>
UJCCTPWYHNNBCH-UHFFFAOYSA-N

> <PUBCHEM_XLOGP3_AA>
3.8

> <PUBCHEM_EXACT_MASS>
409.236542

> <PUBCHEM_MOLECULAR_FORMULA>
C24H31N3O3

> <PUBCHEM_MOLECULAR_WEIGHT>
409.52124

> <PUBCHEM_OPENEYE_CAN_SMILES>
C1CN(CCN1C2=CC=CC=C2)C3=CC=C(C=C3)C(=O)CCCCCCC(=O)NO

> <PUBCHEM_OPENEYE_ISO_SMILES>
C1CN(CCN1C2=CC=CC=C2)C3=CC=C(C=C3)C(=O)CCCCCCC(=O)NO

> <PUBCHEM_CACTVS_TPSA>
72.9

> <PUBCHEM_MONOISOTOPIC_WEIGHT>
409.236542

> <PUBCHEM_TOTAL_CHARGE>
0

> <PUBCHEM_HEAVY_ATOM_COUNT>
30

> <PUBCHEM_ATOM_DEF_STEREO_COUNT>
0

> <PUBCHEM_ATOM_UDEF_STEREO_COUNT>
0

> <PUBCHEM_BOND_DEF_STEREO_COUNT>
0

> <PUBCHEM_BOND_UDEF_STEREO_COUNT>
0

> <PUBCHEM_ISOTOPIC_ATOM_COUNT>
0

> <PUBCHEM_COMPONENT_COUNT>
1

> <PUBCHEM_CACTVS_TAUTO_COUNT>
8

> <PUBCHEM_COORDINATE_TYPE>
1
5
255

> <PUBCHEM_BONDANNOTATIONS>
11  13  8
11  14  8
12  20  8
12  21  8
13  22  8
14  23  8
19  22  8
19  23  8
20  27  8
21  28  8
27  29  8
28  29  8

$$$$

