   Color/Form

     * Leaflets or plates from dilute alcohol
     * White to slightly yellowish-white ... crystals or crystalline
       powder

   from [1]HSDB

   Odor
        Odorless
   from [2]HSDB

   Taste

     * FLAT TASTE
     * Slightly bitter

   from [3]HSDB

   Melting Point
        282 deg C (decomposes)
   from [4]HSDB

   Dissociation Constants
        pK1 = 2.38 /SRC: carboxylic acid/; pK2 = 9.39 /SRC: primary amine/
   from [5]HSDB

   Octanol/Water Partition Coefficient
        log Kow = -1.06
   from [6]HSDB

   pH
        A 1% solution in water has a pH of 5.5 to 7.
   from [7]HSDB

   Solubilities

     * Slightly soluble in acetic acid, ethanol; insoluble in ethyl ether
     * Solubility in water: 0.23 g/L at 0 deg C, 11.4 g/L at 25 deg C,
       17.1 g/L at 50 deg C, 27.95 g/L at 75 deg C, 49.9 g/L at 100 deg C
     * Soluble 1 in 100 of water; very slightly soluble in alcohol;
       practically insoluble chloroform and ether; soluble in hot alcohol
       and solutions of dilute acids and alkali hydroxides.

   from [8]HSDB

   Spectral Properties

     * Specific optical rotation: -31.5 deg at 23 deg C/D (water, 1%),
       +2.4 deg at 20 deg C/D (hydrochloric acid, 0.5 N); +0.15 deg at 20
       deg C/D (sodium hydroxide, 2.43% in 0.5 N)
     * Specific optical rotation: +6.1 deg at 20 deg C/D (In Sodium
       hydroxide, 11%)
     * MAX ABSORPTION (WATER): 280 NM (LOG E= 3.72)
     * UV: 17157 (Sadtler Research Laboratories Spectral Collection)
     * 1H NMR: 582 (Sadtler Research Laboratories Spectral Collection)
     * MASS: 25370 (NIST/EPA/MSDC Mass Spectral Database, 1990 version);
       1707 (National Bureau of Standards)

   from [9]HSDB

   Vapor Pressure
        2.1X10-9 mm Hg at 25 deg C (est)
   from [10]HSDB

   Other Chemical/Physical Properties

     * Decomposes at 289 deg C (rapid heating)
     * Needles from methanol, decomposes at 251 deg C /Tryptophan
       hydrochloride/
     * IR: 8612 (Sadtler Research Laboratories IR Grating Collection)
       /Tryptophan (DL)/
     * UV: 3453 (Sadtler Research Laboratories Spectral Collection)
       /Tryptophan (DL)/
     * 1H NMR: 582 (Sadtler Research Laboratories Spectral Collection)
       /Tryptophan (DL)/
     * MASS: 1229 (National Bureau of Standards EPA-NIH Mass Spectra Data
       Base, NSRDS-NBS-63) /Tryptophan (DL)/
     * 1H NMR: 582 (Sadtler Research Laboratories Spectral Collection)
       /Tryptophan (D)/
     * MASS: 1229 (National Bureau of Standards EPA-NIH Mass Spectra Data
       Base, NSRDS-NBS-63) /Tryptophan (D)/

   from [11]HSDB

   Computed Properties
   Molecular Weight                  204.22518 [g/mol]
   Molecular Formula                 C[11]H[12]N[2]O[2]
   XLogP3                            -1.1
   H-Bond Donor                      3
   H-Bond Acceptor                   3
   Rotatable Bond Count              3
   Exact Mass                        204.089878
   MonoIsotopic Mass                 204.089878
   Topological Polar Surface Area    79.1
   Heavy Atom Count                  15
   Formal Charge                     0
   Complexity                        245
   Isotope Atom Count                0
   Defined Atom Stereocenter Count   1
   Undefined Atom Stereocenter Count 0
   Defined Bond Stereocenter Count   0
   Undefined Bond Stereocenter Count 0
   Covalently-Bonded Unit Count      1
   Feature 3D Acceptor Count         2
   Feature 3D Donor Count            2
   Feature 3D Anion Count            1
   Feature 3D Cation Count           2
   Feature 3D Ring Count             2
   Effective Rotor Count             3
   Conformer Sampling RMSD           0.6
   CID Conformer Count               [12]19

References

   1. http://toxnet.nlm.nih.gov/cgi-bin/sis/search/r?dbs+hsdb:@term+@rn+@rel+73-22-3
   2. http://toxnet.nlm.nih.gov/cgi-bin/sis/search/r?dbs+hsdb:@term+@rn+@rel+73-22-3
   3. http://toxnet.nlm.nih.gov/cgi-bin/sis/search/r?dbs+hsdb:@term+@rn+@rel+73-22-3
   4. http://toxnet.nlm.nih.gov/cgi-bin/sis/search/r?dbs+hsdb:@term+@rn+@rel+73-22-3
   5. http://toxnet.nlm.nih.gov/cgi-bin/sis/search/r?dbs+hsdb:@term+@rn+@rel+73-22-3
   6. http://toxnet.nlm.nih.gov/cgi-bin/sis/search/r?dbs+hsdb:@term+@rn+@rel+73-22-3
   7. http://toxnet.nlm.nih.gov/cgi-bin/sis/search/r?dbs+hsdb:@term+@rn+@rel+73-22-3
   8. http://toxnet.nlm.nih.gov/cgi-bin/sis/search/r?dbs+hsdb:@term+@rn+@rel+73-22-3
   9. http://toxnet.nlm.nih.gov/cgi-bin/sis/search/r?dbs+hsdb:@term+@rn+@rel+73-22-3
  10. http://toxnet.nlm.nih.gov/cgi-bin/sis/search/r?dbs+hsdb:@term+@rn+@rel+73-22-3
  11. http://toxnet.nlm.nih.gov/cgi-bin/sis/search/r?dbs+hsdb:@term+@rn+@rel+73-22-3
  12. http://pubchem.ncbi.nlm.nih.gov/vw3d/vw3d.cgi?cid=6305
