20055210
  -OEChem-07051213132D

 37 38  0     0  0  0  0  0  0999 V2000
    7.5673    2.7973    0.0000 S   0  0  0  0  0  0  0  0  0  0  0  0
    4.3211    1.2281    0.0000 O   0  0  0  0  0  0  0  0  0  0  0  0
    7.7619   -2.1375    0.0000 O   0  0  0  0  0  0  0  0  0  0  0  0
    6.2619   -3.0035    0.0000 O   0  0  0  0  0  0  0  0  0  0  0  0
    4.6783   -0.4667    0.0000 N   0  0  0  0  0  0  0  0  0  0  0  0
    4.6783   -2.0762    0.0000 N   0  0  0  0  0  0  0  0  0  0  0  0
    5.9674    0.6900    0.0000 N   0  0  0  0  0  0  0  0  0  0  0  0
    6.2619   -1.2714    0.0000 N   0  0  0  0  0  0  0  0  0  0  0  0
    3.7320   -0.7714    0.0000 C   0  0  0  0  0  0  0  0  0  0  0  0
    3.7320   -1.7714    0.0000 C   0  0  0  0  0  0  0  0  0  0  0  0
    5.2619   -1.2714    0.0000 C   0  0  0  0  0  0  0  0  0  0  0  0
    4.9889    0.4838    0.0000 C   0  0  0  0  0  0  0  0  0  0  0  0
    2.8660   -0.2714    0.0000 C   0  0  0  0  0  0  0  0  0  0  0  0
    2.8660   -2.2715    0.0000 C   0  0  0  0  0  0  0  0  0  0  0  0
    6.2781    1.6405    0.0000 C   0  0  0  0  0  0  0  0  0  0  0  0
    2.0000   -0.7714    0.0000 C   0  0  0  0  0  0  0  0  0  0  0  0
    2.0000   -1.7714    0.0000 C   0  0  0  0  0  0  0  0  0  0  0  0
    7.2566    1.8468    0.0000 C   0  0  0  0  0  0  0  0  0  0  0  0
    6.7619   -2.1375    0.0000 C   0  0  0  0  0  0  0  0  0  0  0  0
    8.5458    3.0035    0.0000 C   0  0  0  0  0  0  0  0  0  0  0  0
    8.2619   -3.0035    0.0000 C   0  0  0  0  0  0  0  0  0  0  0  0
    2.8660    0.3486    0.0000 H   0  0  0  0  0  0  0  0  0  0  0  0
    6.2575    2.2602    0.0000 H   0  0  0  0  0  0  0  0  0  0  0  0
    5.6643    1.7279    0.0000 H   0  0  0  0  0  0  0  0  0  0  0  0
    2.8660   -2.8914    0.0000 H   0  0  0  0  0  0  0  0  0  0  0  0
    6.3815    0.2286    0.0000 H   0  0  0  0  0  0  0  0  0  0  0  0
    1.4631   -0.4614    0.0000 H   0  0  0  0  0  0  0  0  0  0  0  0
    1.4631   -2.0814    0.0000 H   0  0  0  0  0  0  0  0  0  0  0  0
    7.2772    1.2271    0.0000 H   0  0  0  0  0  0  0  0  0  0  0  0
    7.8704    1.7594    0.0000 H   0  0  0  0  0  0  0  0  0  0  0  0
    6.5719   -0.7345    0.0000 H   0  0  0  0  0  0  0  0  0  0  0  0
    8.6736    2.3968    0.0000 H   0  0  0  0  0  0  0  0  0  0  0  0
    9.1524    3.1314    0.0000 H   0  0  0  0  0  0  0  0  0  0  0  0
    8.4179    3.6102    0.0000 H   0  0  0  0  0  0  0  0  0  0  0  0
    7.7249   -3.3135    0.0000 H   0  0  0  0  0  0  0  0  0  0  0  0
    8.5719   -3.5404    0.0000 H   0  0  0  0  0  0  0  0  0  0  0  0
    8.7988   -2.6935    0.0000 H   0  0  0  0  0  0  0  0  0  0  0  0
  1 18  1  0  0  0  0
  1 20  1  0  0  0  0
  2 12  2  0  0  0  0
  3 19  1  0  0  0  0
  3 21  1  0  0  0  0
  4 19  2  0  0  0  0
  5  9  1  0  0  0  0
  5 11  1  0  0  0  0
  5 12  1  0  0  0  0
  6 10  1  0  0  0  0
  6 11  2  0  0  0  0
  7 12  1  0  0  0  0
  7 15  1  0  0  0  0
  7 26  1  0  0  0  0
  8 11  1  0  0  0  0
  8 19  1  0  0  0  0
  8 31  1  0  0  0  0
  9 10  1  0  0  0  0
  9 13  2  0  0  0  0
 10 14  2  0  0  0  0
 13 16  1  0  0  0  0
 13 22  1  0  0  0  0
 14 17  1  0  0  0  0
 14 25  1  0  0  0  0
 15 18  1  0  0  0  0
 15 23  1  0  0  0  0
 15 24  1  0  0  0  0
 16 17  2  0  0  0  0
 16 27  1  0  0  0  0
 17 28  1  0  0  0  0
 18 29  1  0  0  0  0
 18 30  1  0  0  0  0
 20 32  1  0  0  0  0
 20 33  1  0  0  0  0
 20 34  1  0  0  0  0
 21 35  1  0  0  0  0
 21 36  1  0  0  0  0
 21 37  1  0  0  0  0
M  END
> <PUBCHEM_COMPOUND_CID>
20055210

> <PUBCHEM_COMPOUND_CANONICALIZED>
1

> <PUBCHEM_CACTVS_COMPLEXITY>
382

> <PUBCHEM_CACTVS_HBOND_ACCEPTOR>
5

> <PUBCHEM_CACTVS_HBOND_DONOR>
2

> <PUBCHEM_CACTVS_ROTATABLE_BOND>
5

> <PUBCHEM_CACTVS_SUBSKEYS>
AAADceBzsABAAAAAAAAAAAAAAAAAAWAAAAAwAAAAAAAAAFgB8AAAHgQQAAAACAjFVgaz2LfMFAioASRifACCgC0hErAJmKA4dJmIaKLAmZGUIAholwJIyCcQAAAAAAAAAAAAACAAAAAAAAAAQAAAAAAAAA==

> <PUBCHEM_IUPAC_OPENEYE_NAME>
methyl N-[1-(2-methylsulfanylethylcarbamoyl)benzimidazol-2-yl]carbamate

> <PUBCHEM_IUPAC_CAS_NAME>
N-[1-[[2-(methylthio)ethylamino]-oxomethyl]-2-benzimidazolyl]carbamic acid methyl ester

> <PUBCHEM_IUPAC_NAME>
methyl N-[1-(2-methylsulfanylethylcarbamoyl)benzimidazol-2-yl]carbamate

> <PUBCHEM_IUPAC_SYSTEMATIC_NAME>
methyl N-[1-(2-methylsulfanylethylcarbamoyl)benzimidazol-2-yl]carbamate

> <PUBCHEM_IUPAC_TRADITIONAL_NAME>
N-[1-[2-(methylthio)ethylcarbamoyl]benzimidazol-2-yl]carbamic acid methyl ester

> <PUBCHEM_IUPAC_INCHI>
InChI=1S/C13H16N4O3S/c1-20-13(19)16-11-15-9-5-3-4-6-10(9)17(11)12(18)14-7-8-21-2/h3-6H,7-8H2,1-2H3,(H,14,18)(H,15,16,19)

> <PUBCHEM_IUPAC_INCHIKEY>
ZCAHBOURBFRXOT-UHFFFAOYSA-N

> <PUBCHEM_XLOGP3>
1.5

> <PUBCHEM_EXACT_MASS>
308.094311

> <PUBCHEM_MOLECULAR_FORMULA>
C13H16N4O3S

> <PUBCHEM_MOLECULAR_WEIGHT>
308.35614

> <PUBCHEM_OPENEYE_CAN_SMILES>
COC(=O)NC1=NC2=CC=CC=C2N1C(=O)NCCSC

> <PUBCHEM_OPENEYE_ISO_SMILES>
COC(=O)NC1=NC2=CC=CC=C2N1C(=O)NCCSC

> <PUBCHEM_CACTVS_TPSA>
111

> <PUBCHEM_MONOISOTOPIC_WEIGHT>
308.094311

> <PUBCHEM_TOTAL_CHARGE>
0

> <PUBCHEM_HEAVY_ATOM_COUNT>
21

> <PUBCHEM_ATOM_DEF_STEREO_COUNT>
0

> <PUBCHEM_ATOM_UDEF_STEREO_COUNT>
0

> <PUBCHEM_BOND_DEF_STEREO_COUNT>
0

> <PUBCHEM_BOND_UDEF_STEREO_COUNT>
0

> <PUBCHEM_ISOTOPIC_ATOM_COUNT>
0

> <PUBCHEM_COMPONENT_COUNT>
1

> <PUBCHEM_CACTVS_TAUTO_COUNT>
6

> <PUBCHEM_COORDINATE_TYPE>
1
5
255

> <PUBCHEM_BONDANNOTATIONS>
10  14  8
13  16  8
14  17  8
16  17  8
5  11  8
5  9  8
6  10  8
6  11  8
9  10  8
9  13  8

$$$$

