   Color/Form

     * Colorless gas
     * Monoclinic prisms when it solidifies at -181 deg C

   from [1]HSDB

   Odor

     * Sweet
     * Olefinic, hedonic tone: unpleasant to neutral

   from [2]HSDB

   Boiling Point
        -102.4 deg C at 700 mm Hg
   from [3]HSDB

   Melting Point
        -169 deg C
   from [4]HSDB

   Corrosivity
        Ethylene is a noncorrosive gas.
   from [5]HSDB

   Critical Temperature and Pressure
        Critical temperature: +9.6 deg C; critical pressure: 50.7 atm
   from [6]HSDB

   Density/Specific Gravity
        50.5678 g/cu cm at -104 deg C
   from [7]HSDB

   Heat of Combustion
        -11,272 cal/g = -471.94x10+5 J/kg
   from [8]HSDB

   Heat of Vaporization
        207.7 Btu/lb = 115.4 cal/g = 4.832x10+5 J/kg
   from [9]HSDB

   Octanol/Water Partition Coefficient
        log Kow = 1.13
   from [10]HSDB

   Solubilities

     * 1 vol dissolves in about 4 vol water at 0 deg C, in about 9 vol
       water at 25 deg C, in about 0.5 vol alcohol at 25 deg C, in about
       0.05 vol ether at 15.5 deg C
     * Sol in acetone, benzene
     * In water, 131 mg/L at 25 deg C

   from [11]HSDB

   Spectral Properties

     * MAX ABSORPTION (GAS): 161.5 NM (LOG E= 3.92)
     * Index of refraction: 1.363 at 100 deg C/D
     * IR: 1131 (Sadtler Research Laboratories Prism Collection)
     * UV: 3-3 (Organic Electronic Spectral Data, Phillips et al, John
       Wiley & Sons, New York)
     * MASS: 184 (Atlas of Mass Spectral Data, John Wiley & Sons, New
       York); 61310 (NIST/EPA/MSDC Mass Spectral Database, 1990 version)
     * 13C NMR: 184 (Stothers, Carbon-13 NMR Spectroscopy, Academic Press,
       NY)

   from [12]HSDB

   Surface Tension
        16 dynes/cm = 0.016 N/m at -104 deg C
   from [13]HSDB

   Vapor Density
        0.978 (Air= 1)
   from [14]HSDB

   Vapor Pressure
        5.21X10+4 mm Hg at 25 deg C /Extrapolated/
   from [15]HSDB

   Viscosity
        0.01 mPa.s 20 deg C
   from [16]HSDB

   Other Chemical/Physical Properties

     * 1 mg/cu m = 0.86 ppm; 1 ppm = 1.17 mg/cu m
     * Burns with a luminous flame
     * Specific gravity: 0.57 at -130.8 deg C
     * Latent heat of fusion 3.33 kj/mole (-169.4 deg C). Latent heat of
       vaporization 13.6 kj/mole (-103.8 deg C). Heat of formation 52.47
       kj/mole (25 deg C). Ionization potential 10.51 eV. Heat capacity,
       constant pressure: 1.516 J/g deg C; Heat capacity, constant volume:
       1.220 J/g deg C. Coefficient of thermal expansion 3.7x10-3 at 20
       deg C. Heat of combustion 1,411 Kj/mole
     * POLYMERIZES AT HIGH PRESSURES
     * Vapor pressure 4,040 kPa (-1.5 deg C)
     * Henry's Law constant = 0.228 atm-cu m/mole at 25 deg C
     * Hydroxyl radical reaction rate constant = 8.52X10-12 cu
       cm/molec-sec at 25 deg C
     * Ozone rate constant = 0.175X10-17 cu cm/molec-sec at 25 deg C (est)

   from [17]HSDB

   Computed Properties
   Molecular Weight                  28.05316 [g/mol]
   Molecular Formula                 C[2]H[4]
   XLogP3-AA                         1.2
   H-Bond Donor                      0
   H-Bond Acceptor                   0
   Rotatable Bond Count              0
   Exact Mass                        28.0313
   MonoIsotopic Mass                 28.0313
   Topological Polar Surface Area    0
   Heavy Atom Count                  2
   Formal Charge                     0
   Complexity                        0
   Isotope Atom Count                0
   Defined Atom Stereocenter Count   0
   Undefined Atom Stereocenter Count 0
   Defined Bond Stereocenter Count   0
   Undefined Bond Stereocenter Count 0
   Covalently-Bonded Unit Count      1
   Feature 3D Hydrophobe Count       2
   Effective Rotor Count             0
   Conformer Sampling RMSD           0.4
   CID Conformer Count               [18]1

References

   1. http://toxnet.nlm.nih.gov/cgi-bin/sis/search/r?dbs+hsdb:@term+@rn+@rel+74-85-1
   2. http://toxnet.nlm.nih.gov/cgi-bin/sis/search/r?dbs+hsdb:@term+@rn+@rel+74-85-1
   3. http://toxnet.nlm.nih.gov/cgi-bin/sis/search/r?dbs+hsdb:@term+@rn+@rel+74-85-1
   4. http://toxnet.nlm.nih.gov/cgi-bin/sis/search/r?dbs+hsdb:@term+@rn+@rel+74-85-1
   5. http://toxnet.nlm.nih.gov/cgi-bin/sis/search/r?dbs+hsdb:@term+@rn+@rel+74-85-1
   6. http://toxnet.nlm.nih.gov/cgi-bin/sis/search/r?dbs+hsdb:@term+@rn+@rel+74-85-1
   7. http://toxnet.nlm.nih.gov/cgi-bin/sis/search/r?dbs+hsdb:@term+@rn+@rel+74-85-1
   8. http://toxnet.nlm.nih.gov/cgi-bin/sis/search/r?dbs+hsdb:@term+@rn+@rel+74-85-1
   9. http://toxnet.nlm.nih.gov/cgi-bin/sis/search/r?dbs+hsdb:@term+@rn+@rel+74-85-1
  10. http://toxnet.nlm.nih.gov/cgi-bin/sis/search/r?dbs+hsdb:@term+@rn+@rel+74-85-1
  11. http://toxnet.nlm.nih.gov/cgi-bin/sis/search/r?dbs+hsdb:@term+@rn+@rel+74-85-1
  12. http://toxnet.nlm.nih.gov/cgi-bin/sis/search/r?dbs+hsdb:@term+@rn+@rel+74-85-1
  13. http://toxnet.nlm.nih.gov/cgi-bin/sis/search/r?dbs+hsdb:@term+@rn+@rel+74-85-1
  14. http://toxnet.nlm.nih.gov/cgi-bin/sis/search/r?dbs+hsdb:@term+@rn+@rel+74-85-1
  15. http://toxnet.nlm.nih.gov/cgi-bin/sis/search/r?dbs+hsdb:@term+@rn+@rel+74-85-1
  16. http://toxnet.nlm.nih.gov/cgi-bin/sis/search/r?dbs+hsdb:@term+@rn+@rel+74-85-1
  17. http://toxnet.nlm.nih.gov/cgi-bin/sis/search/r?dbs+hsdb:@term+@rn+@rel+74-85-1
  18. http://pubchem.ncbi.nlm.nih.gov/vw3d/vw3d.cgi?cid=6325
