5281508
  -OEChem-07051212572D

 48 51  0     1  0  0  0  0  0999 V2000
    6.3299    1.2209    0.0000 O   0  0  0  0  0  0  0  0  0  0  0  0
    8.7808    0.6353    0.0000 O   0  0  0  0  0  0  0  0  0  0  0  0
    7.2443    2.2656    0.0000 O   0  0  0  0  0  0  0  0  0  0  0  0
    3.7320    0.7204    0.0000 O   0  0  0  0  0  0  0  0  0  0  0  0
    5.2549   -2.2514    0.0000 O   0  0  0  0  0  0  0  0  0  0  0  0
    3.7662   -3.2204    0.0000 O   0  0  0  0  0  0  0  0  0  0  0  0
    4.5981    2.2204    0.0000 O   0  0  0  0  0  0  0  0  0  0  0  0
    6.3301    0.2204    0.0000 C   0  0  1  0  0  0  0  0  0  0  0  0
    7.1962    0.7204    0.0000 C   0  0  1  0  0  0  0  0  0  0  0  0
    5.4641    0.7204    0.0000 C   0  0  0  0  0  0  0  0  0  0  0  0
    7.4113    1.2797    0.0000 C   0  0  1  0  0  0  0  0  0  0  0  0
    8.0622    0.2204    0.0000 C   0  0  0  0  0  0  0  0  0  0  0  0
    4.5981    0.2204    0.0000 C   0  0  1  0  0  0  0  0  0  0  0  0
    4.5981   -0.7796    0.0000 C   0  0  2  0  0  0  0  0  0  0  0  0
    8.0622   -0.7796    0.0000 C   0  0  0  0  0  0  0  0  0  0  0  0
    5.4641   -1.2796    0.0000 C   0  0  1  0  0  0  0  0  0  0  0  0
    7.1962   -1.2796    0.0000 C   0  0  0  0  0  0  0  0  0  0  0  0
    8.6540   -0.8729    0.0000 C   0  0  0  0  0  0  0  0  0  0  0  0
    6.3301   -0.7796    0.0000 C   0  0  0  0  0  0  0  0  0  0  0  0
    3.8611   -1.4466    0.0000 C   0  0  0  0  0  0  0  0  0  0  0  0
    4.2662   -2.3544    0.0000 C   0  0  0  0  0  0  0  0  0  0  0  0
    2.8826   -1.2404    0.0000 C   0  0  0  0  0  0  0  0  0  0  0  0
    3.7320    1.7204    0.0000 C   0  0  0  0  0  0  0  0  0  0  0  0
    2.8660    2.2204    0.0000 C   0  0  0  0  0  0  0  0  0  0  0  0
    2.8660    3.2204    0.0000 C   0  0  0  0  0  0  0  0  0  0  0  0
    2.0000    1.7204    0.0000 C   0  0  0  0  0  0  0  0  0  0  0  0
    8.0332    0.8680    0.0000 H   0  0  0  0  0  0  0  0  0  0  0  0
    5.8626    1.1954    0.0000 H   0  0  0  0  0  0  0  0  0  0  0  0
    5.0656    1.1954    0.0000 H   0  0  0  0  0  0  0  0  0  0  0  0
    6.8216    1.4712    0.0000 H   0  0  0  0  0  0  0  0  0  0  0  0
    8.6728    0.1128    0.0000 H   0  0  0  0  0  0  0  0  0  0  0  0
    8.2742    0.8031    0.0000 H   0  0  0  0  0  0  0  0  0  0  0  0
    4.5981    0.8404    0.0000 H   0  0  0  0  0  0  0  0  0  0  0  0
    3.8620   -0.3546    0.0000 H   0  0  0  0  0  0  0  0  0  0  0  0
    8.2742   -1.3622    0.0000 H   0  0  0  0  0  0  0  0  0  0  0  0
    8.6728   -0.6719    0.0000 H   0  0  0  0  0  0  0  0  0  0  0  0
    6.2002   -1.7046    0.0000 H   0  0  0  0  0  0  0  0  0  0  0  0
    8.7488   -1.4856    0.0000 H   0  0  0  0  0  0  0  0  0  0  0  0
    9.2737   -0.8513    0.0000 H   0  0  0  0  0  0  0  0  0  0  0  0
    6.7287   -0.3046    0.0000 H   0  0  0  0  0  0  0  0  0  0  0  0
    7.7220    2.6609    0.0000 H   0  0  0  0  0  0  0  0  0  0  0  0
    2.6899   -0.6511    0.0000 H   0  0  0  0  0  0  0  0  0  0  0  0
    2.4685   -1.7019    0.0000 H   0  0  0  0  0  0  0  0  0  0  0  0
    3.4860    3.2204    0.0000 H   0  0  0  0  0  0  0  0  0  0  0  0
    2.8660    3.8404    0.0000 H   0  0  0  0  0  0  0  0  0  0  0  0
    2.2460    3.2204    0.0000 H   0  0  0  0  0  0  0  0  0  0  0  0
    1.4631    2.0304    0.0000 H   0  0  0  0  0  0  0  0  0  0  0  0
    2.0000    1.1004    0.0000 H   0  0  0  0  0  0  0  0  0  0  0  0
  8  1  1  1  0  0  0
  1  9  1  0  0  0  0
  2 11  1  0  0  0  0
  2 18  1  0  0  0  0
 11  3  1  6  0  0  0
  3 41  1  0  0  0  0
 13  4  1  1  0  0  0
  4 23  1  0  0  0  0
  5 16  1  0  0  0  0
  5 21  1  0  0  0  0
  6 21  2  0  0  0  0
  7 23  2  0  0  0  0
  8  9  1  0  0  0  0
  8 10  1  0  0  0  0
  8 11  1  0  0  0  0
  9 12  1  0  0  0  0
  9 27  1  1  0  0  0
 10 13  1  0  0  0  0
 10 28  1  0  0  0  0
 10 29  1  0  0  0  0
 11 30  1  0  0  0  0
 12 15  1  0  0  0  0
 12 31  1  0  0  0  0
 12 32  1  0  0  0  0
 13 14  1  0  0  0  0
 13 33  1  0  0  0  0
 14 16  1  0  0  0  0
 14 20  1  0  0  0  0
 14 34  1  1  0  0  0
 15 17  1  0  0  0  0
 15 35  1  0  0  0  0
 15 36  1  0  0  0  0
 16 19  1  0  0  0  0
 16 37  1  6  0  0  0
 17 18  1  0  0  0  0
 17 19  2  0  0  0  0
 18 38  1  0  0  0  0
 18 39  1  0  0  0  0
 19 40  1  0  0  0  0
 20 21  1  0  0  0  0
 20 22  2  0  0  0  0
 22 42  1  0  0  0  0
 22 43  1  0  0  0  0
 23 24  1  0  0  0  0
 24 25  1  0  0  0  0
 24 26  2  0  0  0  0
 25 44  1  0  0  0  0
 25 45  1  0  0  0  0
 25 46  1  0  0  0  0
 26 47  1  0  0  0  0
 26 48  1  0  0  0  0
M  END
> <PUBCHEM_COMPOUND_CID>
5281508

> <PUBCHEM_COMPOUND_CANONICALIZED>
1

> <PUBCHEM_CACTVS_COMPLEXITY>
723

> <PUBCHEM_CACTVS_HBOND_ACCEPTOR>
7

> <PUBCHEM_CACTVS_HBOND_DONOR>
1

> <PUBCHEM_CACTVS_ROTATABLE_BOND>
3

> <PUBCHEM_CACTVS_SUBSKEYS>
AAADceB4OAAAAAAAAAAAAAAAEgAAASAAAAAAAAAAAAASAEiAAAAAGgAACAAADVSwgAMCCAAABgCIAiDSCAAAAAAgAAAACAEAAEgRFBIAIQACUAAFwAAPIIPK6PyOAAAAAAAAAAAAAAAAAAAAAAAAAAAAAA==

> <PUBCHEM_IUPAC_INCHI>
InChI=1S/C19H22O7/c1-9(2)16(20)25-13-7-19-14(26-19)5-4-11(8-23-18(19)22)6-12-15(13)10(3)17(21)24-12/h6,12-15,18,22H,1,3-5,7-8H2,2H3/b11-6-/t12-,13+,14-,15+,18-,19-/m1/s1

> <PUBCHEM_IUPAC_INCHIKEY>
ZGXVZQZFVYSUDU-ULYHCOEVSA-N

> <PUBCHEM_XLOGP3_AA>
0.9

> <PUBCHEM_EXACT_MASS>
362.136553

> <PUBCHEM_MOLECULAR_FORMULA>
C19H22O7

> <PUBCHEM_MOLECULAR_WEIGHT>
362.37378

> <PUBCHEM_OPENEYE_CAN_SMILES>
CC(=C)C(=O)OC1CC23C(O2)CCC(=CC4C1C(=C)C(=O)O4)COC3O

> <PUBCHEM_OPENEYE_ISO_SMILES>
CC(=C)C(=O)O[C@H]1C[C@]23[C@H](O2)CC/C(=C/[C@@H]4[C@@H]1C(=C)C(=O)O4)/CO[C@H]3O

> <PUBCHEM_CACTVS_TPSA>
94.6

> <PUBCHEM_MONOISOTOPIC_WEIGHT>
362.136553

> <PUBCHEM_TOTAL_CHARGE>
0

> <PUBCHEM_HEAVY_ATOM_COUNT>
26

> <PUBCHEM_ATOM_DEF_STEREO_COUNT>
6

> <PUBCHEM_ATOM_UDEF_STEREO_COUNT>
0

> <PUBCHEM_BOND_DEF_STEREO_COUNT>
1

> <PUBCHEM_BOND_UDEF_STEREO_COUNT>
0

> <PUBCHEM_ISOTOPIC_ATOM_COUNT>
0

> <PUBCHEM_COMPONENT_COUNT>
1

> <PUBCHEM_CACTVS_TAUTO_COUNT>
1

> <PUBCHEM_COORDINATE_TYPE>
1
5
255

> <PUBCHEM_BONDANNOTATIONS>
8  1  5
14  34  5
16  37  6
11  3  6
13  4  5
9  27  5

$$$$

