5397
  -OEChem-06261200402D

 33 35  0     1  0  0  0  0  0999 V2000
    6.3301    2.0670    0.0000 S   0  0  0  0  0  0  0  0  0  0  0  0
    8.1424    0.2623    0.0000 S   0  0  0  0  0  0  0  0  0  0  0  0
    5.8301    2.9330    0.0000 O   0  0  0  0  0  0  0  0  0  0  0  0
    6.8301    2.9330    0.0000 O   0  0  0  0  0  0  0  0  0  0  0  0
    6.3301   -0.9330    0.0000 O   0  0  0  0  0  0  0  0  0  0  0  0
    3.7320    0.5670    0.0000 O   0  0  0  0  0  0  0  0  0  0  0  0
    5.4641    1.5670    0.0000 N   0  0  3  0  0  0  0  0  0  0  0  0
    4.5981   -0.9330    0.0000 N   0  0  0  0  0  0  0  0  0  0  0  0
    3.7320   -2.4330    0.0000 N   0  0  0  0  0  0  0  0  0  0  0  0
    7.1962    1.5670    0.0000 C   0  0  0  0  0  0  0  0  0  0  0  0
    5.4641    0.5670    0.0000 C   0  0  0  0  0  0  0  0  0  0  0  0
    7.1962    0.5670    0.0000 C   0  0  0  0  0  0  0  0  0  0  0  0
    6.3301    0.0670    0.0000 C   0  0  0  0  0  0  0  0  0  0  0  0
    8.1424    1.8717    0.0000 C   0  0  0  0  0  0  0  0  0  0  0  0
    4.5981    2.0670    0.0000 C   0  0  0  0  0  0  0  0  0  0  0  0
    4.5981    0.0670    0.0000 C   0  0  0  0  0  0  0  0  0  0  0  0
    8.7260    1.0670    0.0000 C   0  0  0  0  0  0  0  0  0  0  0  0
    3.7320   -1.4330    0.0000 C   0  0  0  0  0  0  0  0  0  0  0  0
    2.8660   -0.9330    0.0000 C   0  0  0  0  0  0  0  0  0  0  0  0
    2.0000   -1.4330    0.0000 C   0  0  0  0  0  0  0  0  0  0  0  0
    2.8660   -2.9330    0.0000 C   0  0  0  0  0  0  0  0  0  0  0  0
    2.0000   -2.4330    0.0000 C   0  0  0  0  0  0  0  0  0  0  0  0
    8.3350    2.4610    0.0000 H   0  0  0  0  0  0  0  0  0  0  0  0
    4.9081    2.6039    0.0000 H   0  0  0  0  0  0  0  0  0  0  0  0
    4.0611    2.3770    0.0000 H   0  0  0  0  0  0  0  0  0  0  0  0
    4.2881    1.5300    0.0000 H   0  0  0  0  0  0  0  0  0  0  0  0
    9.3460    1.0670    0.0000 H   0  0  0  0  0  0  0  0  0  0  0  0
    5.1350   -1.2430    0.0000 H   0  0  0  0  0  0  0  0  0  0  0  0
    3.7320    1.1870    0.0000 H   0  0  0  0  0  0  0  0  0  0  0  0
    2.8660   -0.3130    0.0000 H   0  0  0  0  0  0  0  0  0  0  0  0
    1.4631   -1.1230    0.0000 H   0  0  0  0  0  0  0  0  0  0  0  0
    2.8660   -3.5530    0.0000 H   0  0  0  0  0  0  0  0  0  0  0  0
    1.4631   -2.7430    0.0000 H   0  0  0  0  0  0  0  0  0  0  0  0
  1  3  2  0  0  0  0
  1  4  2  0  0  0  0
  1  7  1  0  0  0  0
  1 10  1  0  0  0  0
  2 12  1  0  0  0  0
  2 17  1  0  0  0  0
  5 13  2  0  0  0  0
  6 16  1  0  0  0  0
  6 29  1  0  0  0  0
  7 11  1  0  0  0  0
  7 15  1  0  0  0  0
  8 16  1  0  0  0  0
  8 18  1  0  0  0  0
  8 28  1  0  0  0  0
  9 18  1  0  0  0  0
  9 21  2  0  0  0  0
 10 12  2  0  0  0  0
 10 14  1  0  0  0  0
 11 13  1  0  0  0  0
 11 16  2  3  0  0  0
 12 13  1  0  0  0  0
 14 17  2  0  0  0  0
 14 23  1  0  0  0  0
 15 24  1  0  0  0  0
 15 25  1  0  0  0  0
 15 26  1  0  0  0  0
 17 27  1  0  0  0  0
 18 19  2  0  0  0  0
 19 20  1  0  0  0  0
 19 30  1  0  0  0  0
 20 22  2  0  0  0  0
 20 31  1  0  0  0  0
 21 22  1  0  0  0  0
 21 32  1  0  0  0  0
 22 33  1  0  0  0  0
M  END
> <PUBCHEM_COMPOUND_CID>
5397

> <PUBCHEM_COMPOUND_CANONICALIZED>
1

> <PUBCHEM_CACTVS_COMPLEXITY>
599

> <PUBCHEM_CACTVS_HBOND_ACCEPTOR>
8

> <PUBCHEM_CACTVS_HBOND_DONOR>
2

> <PUBCHEM_CACTVS_ROTATABLE_BOND>
2

> <PUBCHEM_CACTVS_SUBSKEYS>
AAADccBzOABgAAAAAAAAAAAAAAAAASAAAAAsWAAAAAAAAFgB4AAAHgQQSAAACAzF0gS/sZLIEgqsALZ3ZHDDgLk1KjBJ2Dm4ZNmIIPLglbGEIQhokALoyWcYAAAAAAAAAAAAAAAAAAAAAAAAAAAAAAAAAA==

> <PUBCHEM_IUPAC_OPENEYE_NAME>
3-[hydroxy-(2-pyridylamino)methylene]-2-methyl-1,1-dioxo-thieno[2,3-e]thiazin-4-one

> <PUBCHEM_IUPAC_CAS_NAME>
3-[hydroxy-(2-pyridinylamino)methylidene]-2-methyl-1,1-dioxo-4-thieno[2,3-e]thiazinone

> <PUBCHEM_IUPAC_NAME>
3-[hydroxy-(pyridin-2-ylamino)methylidene]-2-methyl-1,1-dioxothieno[2,3-e]thiazin-4-one

> <PUBCHEM_IUPAC_SYSTEMATIC_NAME>
2-methyl-1,1-bis(oxidanylidene)-3-[oxidanyl-(pyridin-2-ylamino)methylidene]thieno[2,3-e][1,2]thiazin-4-one

> <PUBCHEM_IUPAC_TRADITIONAL_NAME>
3-[hydroxy-(2-pyridylamino)methylene]-1,1-diketo-2-methyl-thieno[2,3-e]thiazin-4-one

> <PUBCHEM_IUPAC_INCHI>
InChI=1S/C13H11N3O4S2/c1-16-10(13(18)15-9-4-2-3-6-14-9)11(17)12-8(5-7-21-12)22(16,19)20/h2-7,18H,1H3,(H,14,15)

> <PUBCHEM_IUPAC_INCHIKEY>
WZWYJBNHTWCXIM-UHFFFAOYSA-N

> <PUBCHEM_XLOGP3_AA>
2.2

> <PUBCHEM_EXACT_MASS>
337.019098

> <PUBCHEM_MOLECULAR_FORMULA>
C13H11N3O4S2

> <PUBCHEM_MOLECULAR_WEIGHT>
337.37414

> <PUBCHEM_OPENEYE_CAN_SMILES>
CN1C(=C(NC2=CC=CC=N2)O)C(=O)C3=C(S1(=O)=O)C=CS3

> <PUBCHEM_OPENEYE_ISO_SMILES>
CN1C(=C(NC2=CC=CC=N2)O)C(=O)C3=C(S1(=O)=O)C=CS3

> <PUBCHEM_CACTVS_TPSA>
136

> <PUBCHEM_MONOISOTOPIC_WEIGHT>
337.019098

> <PUBCHEM_TOTAL_CHARGE>
0

> <PUBCHEM_HEAVY_ATOM_COUNT>
22

> <PUBCHEM_ATOM_DEF_STEREO_COUNT>
0

> <PUBCHEM_ATOM_UDEF_STEREO_COUNT>
0

> <PUBCHEM_BOND_DEF_STEREO_COUNT>
0

> <PUBCHEM_BOND_UDEF_STEREO_COUNT>
1

> <PUBCHEM_ISOTOPIC_ATOM_COUNT>
0

> <PUBCHEM_COMPONENT_COUNT>
1

> <PUBCHEM_CACTVS_TAUTO_COUNT>
8

> <PUBCHEM_COORDINATE_TYPE>
1
5
255

> <PUBCHEM_BONDANNOTATIONS>
10  12  8
10  14  8
11  16  1
14  17  8
18  19  8
19  20  8
2  12  8
2  17  8
20  22  8
21  22  8
9  18  8
9  21  8

$$$$

