5280718
  -OEChem-07051212492D

 14 14  0     0  0  0  0  0  0999 V2000
    7.0028   -1.3378    0.0000 Cl  0  0  0  0  0  0  0  0  0  0  0  0
    5.9150    1.0101    0.0000 O   0  0  0  0  0  0  0  0  0  0  0  0
    7.6751    0.7313    0.0000 O   0  0  0  0  0  0  0  0  0  0  0  0
    2.4608    0.3712    0.0000 O   0  0  0  0  0  0  0  0  0  0  0  0
    3.6197   -0.9160    0.0000 O   0  0  0  0  0  0  0  0  0  0  0  0
    5.1060    0.4223    0.0000 C   0  0  0  0  0  0  0  0  0  0  0  0
    5.4150   -0.5288    0.0000 C   0  0  0  0  0  0  0  0  0  0  0  0
    6.4150   -0.5288    0.0000 C   0  0  0  0  0  0  0  0  0  0  0  0
    6.7240    0.4223    0.0000 C   0  0  0  0  0  0  0  0  0  0  0  0
    4.1550    0.7313    0.0000 C   0  0  0  0  0  0  0  0  0  0  0  0
    3.4118    0.0622    0.0000 C   0  0  0  0  0  0  0  0  0  0  0  0
    5.0506   -1.0303    0.0000 H   0  0  0  0  0  0  0  0  0  0  0  0
    4.0260    1.3378    0.0000 H   0  0  0  0  0  0  0  0  0  0  0  0
    2.0000   -0.0437    0.0000 H   0  0  0  0  0  0  0  0  0  0  0  0
  1  8  1  0  0  0  0
  2  6  1  0  0  0  0
  2  9  1  0  0  0  0
  3  9  2  0  0  0  0
  4 11  1  0  0  0  0
  4 14  1  0  0  0  0
  5 11  2  0  0  0  0
  6  7  1  0  0  0  0
  6 10  2  0  0  0  0
  7  8  2  0  0  0  0
  7 12  1  0  0  0  0
  8  9  1  0  0  0  0
 10 11  1  0  0  0  0
 10 13  1  0  0  0  0
M  END
> <PUBCHEM_COMPOUND_CID>
5280718

> <PUBCHEM_COMPOUND_CANONICALIZED>
1

> <PUBCHEM_CACTVS_COMPLEXITY>
276

> <PUBCHEM_CACTVS_HBOND_ACCEPTOR>
4

> <PUBCHEM_CACTVS_HBOND_DONOR>
1

> <PUBCHEM_CACTVS_ROTATABLE_BOND>
1

> <PUBCHEM_CACTVS_SUBSKEYS>
AAADcQBgOAAEAAAAAAAAAAAAAAAAAQAAAAAAAAAAAAAAAAAAAAAAGgIACAAACAaAgAAACAAABgCIACDSCAAACAAAIAAACAAAAUBIBAAAIQACEAAAAAAAsYAAAAAAAAAAAAAAAAAAAAAAAAAAAAAAAAAAAA==

> <PUBCHEM_IUPAC_OPENEYE_NAME>
(2E)-2-(4-chloro-5-oxo-2-furylidene)acetic acid

> <PUBCHEM_IUPAC_CAS_NAME>
(2E)-2-(4-chloro-5-oxo-2-furanylidene)acetic acid

> <PUBCHEM_IUPAC_NAME>
(2E)-2-(4-chloro-5-oxofuran-2-ylidene)acetic acid

> <PUBCHEM_IUPAC_SYSTEMATIC_NAME>
(2E)-2-(4-chloranyl-5-oxidanylidene-furan-2-ylidene)ethanoic acid

> <PUBCHEM_IUPAC_TRADITIONAL_NAME>
(2E)-2-(4-chloro-5-keto-2-furylidene)acetic acid

> <PUBCHEM_IUPAC_INCHI>
InChI=1S/C6H3ClO4/c7-4-1-3(2-5(8)9)11-6(4)10/h1-2H,(H,8,9)/b3-2+

> <PUBCHEM_IUPAC_INCHIKEY>
ADSGHWJRPOXXTD-NSCUHMNNSA-N

> <PUBCHEM_XLOGP3_AA>
0.9

> <PUBCHEM_EXACT_MASS>
173.971986

> <PUBCHEM_MOLECULAR_FORMULA>
C6H3ClO4

> <PUBCHEM_MOLECULAR_WEIGHT>
174.53862

> <PUBCHEM_OPENEYE_CAN_SMILES>
C1=C(C(=O)OC1=CC(=O)O)Cl

> <PUBCHEM_OPENEYE_ISO_SMILES>
C\1=C(C(=O)O/C1=C/C(=O)O)Cl

> <PUBCHEM_CACTVS_TPSA>
63.6

> <PUBCHEM_MONOISOTOPIC_WEIGHT>
173.971986

> <PUBCHEM_TOTAL_CHARGE>
0

> <PUBCHEM_HEAVY_ATOM_COUNT>
11

> <PUBCHEM_ATOM_DEF_STEREO_COUNT>
0

> <PUBCHEM_ATOM_UDEF_STEREO_COUNT>
0

> <PUBCHEM_BOND_DEF_STEREO_COUNT>
1

> <PUBCHEM_BOND_UDEF_STEREO_COUNT>
0

> <PUBCHEM_ISOTOPIC_ATOM_COUNT>
0

> <PUBCHEM_COMPONENT_COUNT>
1

> <PUBCHEM_CACTVS_TAUTO_COUNT>
1

> <PUBCHEM_COORDINATE_TYPE>
1
5
255

$$$$

