38200
  -OEChem-07051213112D

 21 23  0     0  0  0  0  0  0999 V2000
    6.3697   -1.9350    0.0000 Cl  0  0  0  0  0  0  0  0  0  0  0  0
    4.6397   -1.9350    0.0000 Cl  0  0  0  0  0  0  0  0  0  0  0  0
    7.6271    1.9350    0.0000 Cl  0  0  0  0  0  0  0  0  0  0  0  0
    3.3823    1.9350    0.0000 Cl  0  0  0  0  0  0  0  0  0  0  0  0
    8.3764   -1.5246    0.0000 Cl  0  0  0  0  0  0  0  0  0  0  0  0
    2.6330   -1.5246    0.0000 Cl  0  0  0  0  0  0  0  0  0  0  0  0
    9.0094    0.4234    0.0000 Cl  0  0  0  0  0  0  0  0  0  0  0  0
    2.0000    0.4234    0.0000 Cl  0  0  0  0  0  0  0  0  0  0  0  0
    5.5047    1.3360    0.0000 O   0  0  0  0  0  0  0  0  0  0  0  0
    6.0047   -0.2029    0.0000 C   0  0  0  0  0  0  0  0  0  0  0  0
    5.0047   -0.2029    0.0000 C   0  0  0  0  0  0  0  0  0  0  0  0
    6.3137    0.7482    0.0000 C   0  0  0  0  0  0  0  0  0  0  0  0
    4.6957    0.7482    0.0000 C   0  0  0  0  0  0  0  0  0  0  0  0
    6.6897   -0.9876    0.0000 C   0  0  0  0  0  0  0  0  0  0  0  0
    4.3197   -0.9876    0.0000 C   0  0  0  0  0  0  0  0  0  0  0  0
    7.3291    0.9804    0.0000 C   0  0  0  0  0  0  0  0  0  0  0  0
    3.6803    0.9804    0.0000 C   0  0  0  0  0  0  0  0  0  0  0  0
    7.7102   -0.7789    0.0000 C   0  0  0  0  0  0  0  0  0  0  0  0
    3.2992   -0.7789    0.0000 C   0  0  0  0  0  0  0  0  0  0  0  0
    8.0321    0.2118    0.0000 C   0  0  0  0  0  0  0  0  0  0  0  0
    2.9773    0.2118    0.0000 C   0  0  0  0  0  0  0  0  0  0  0  0
  1 14  1  0  0  0  0
  2 15  1  0  0  0  0
  3 16  1  0  0  0  0
  4 17  1  0  0  0  0
  5 18  1  0  0  0  0
  6 19  1  0  0  0  0
  7 20  1  0  0  0  0
  8 21  1  0  0  0  0
  9 12  1  0  0  0  0
  9 13  1  0  0  0  0
 10 11  1  0  0  0  0
 10 12  2  0  0  0  0
 10 14  1  0  0  0  0
 11 13  2  0  0  0  0
 11 15  1  0  0  0  0
 12 16  1  0  0  0  0
 13 17  1  0  0  0  0
 14 18  2  0  0  0  0
 15 19  2  0  0  0  0
 16 20  2  0  0  0  0
 17 21  2  0  0  0  0
 18 20  1  0  0  0  0
 19 21  1  0  0  0  0
M  END
> <PUBCHEM_COMPOUND_CID>
38200

> <PUBCHEM_COMPOUND_CANONICALIZED>
1

> <PUBCHEM_CACTVS_COMPLEXITY>
375

> <PUBCHEM_CACTVS_HBOND_ACCEPTOR>
1

> <PUBCHEM_CACTVS_HBOND_DONOR>
0

> <PUBCHEM_CACTVS_ROTATABLE_BOND>
0

> <PUBCHEM_CACTVS_SUBSKEYS>
AAADcQBwIAAHgAAAAAAAAAAAAAAAASAAAAAwYAAAAAAAAEgB/AAACgIAAAAADAYAmCAABsAABECIAoBQAAACCAAkJEAAikEEC8hMJjOFNhqCOSCkwBEIrQeIyOCOhCAQIQCJCAQIQCBCARIQCAAAAAAAAA==

> <PUBCHEM_IUPAC_OPENEYE_NAME>
1,2,3,4,6,7,8,9-octachlorodibenzofuran

> <PUBCHEM_IUPAC_CAS_NAME>
1,2,3,4,6,7,8,9-octachlorodibenzofuran

> <PUBCHEM_IUPAC_NAME>
1,2,3,4,6,7,8,9-octachlorodibenzofuran

> <PUBCHEM_IUPAC_SYSTEMATIC_NAME>
1,2,3,4,6,7,8,9-octakis(chloranyl)dibenzofuran

> <PUBCHEM_IUPAC_TRADITIONAL_NAME>
1,2,3,4,6,7,8,9-octachlorodibenzofuran

> <PUBCHEM_IUPAC_INCHI>
InChI=1S/C12Cl8O/c13-3-1-2-4(14)6(16)8(18)10(20)12(2)21-11(1)9(19)7(17)5(3)15

> <PUBCHEM_IUPAC_INCHIKEY>
RHIROFAGUQOFLU-UHFFFAOYSA-N

> <PUBCHEM_XLOGP3>
8.5

> <PUBCHEM_EXACT_MASS>
443.739836

> <PUBCHEM_MOLECULAR_FORMULA>
C12Cl8O

> <PUBCHEM_MOLECULAR_WEIGHT>
443.7518

> <PUBCHEM_OPENEYE_CAN_SMILES>
C12=C(C(=C(C(=C1Cl)Cl)Cl)Cl)OC3=C2C(=C(C(=C3Cl)Cl)Cl)Cl

> <PUBCHEM_OPENEYE_ISO_SMILES>
C12=C(C(=C(C(=C1Cl)Cl)Cl)Cl)OC3=C2C(=C(C(=C3Cl)Cl)Cl)Cl

> <PUBCHEM_CACTVS_TPSA>
13.1

> <PUBCHEM_MONOISOTOPIC_WEIGHT>
439.745736

> <PUBCHEM_TOTAL_CHARGE>
0

> <PUBCHEM_HEAVY_ATOM_COUNT>
21

> <PUBCHEM_ATOM_DEF_STEREO_COUNT>
0

> <PUBCHEM_ATOM_UDEF_STEREO_COUNT>
0

> <PUBCHEM_BOND_DEF_STEREO_COUNT>
0

> <PUBCHEM_BOND_UDEF_STEREO_COUNT>
0

> <PUBCHEM_ISOTOPIC_ATOM_COUNT>
0

> <PUBCHEM_COMPONENT_COUNT>
1

> <PUBCHEM_CACTVS_TAUTO_COUNT>
1

> <PUBCHEM_COORDINATE_TYPE>
1
5
255

> <PUBCHEM_BONDANNOTATIONS>
10  11  8
10  12  8
10  14  8
11  13  8
11  15  8
12  16  8
13  17  8
14  18  8
15  19  8
16  20  8
17  21  8
18  20  8
19  21  8
9  12  8
9  13  8

$$$$

