73607
  -OEChem-07051213102D

 56 59  0     1  0  0  0  0  0999 V2000
   10.3474   -0.6193    0.0000 O   0  0  0  0  0  0  0  0  0  0  0  0
    8.6155   -0.5993    0.0000 O   0  0  0  0  0  0  0  0  0  0  0  0
   10.3127   -3.6191    0.0000 O   0  0  0  0  0  0  0  0  0  0  0  0
   12.0562   -2.6392    0.0000 O   0  0  0  0  0  0  0  0  0  0  0  0
    8.5923   -2.5992    0.0000 O   0  0  0  0  0  0  0  0  0  0  0  0
    6.8671    2.4353    0.0000 O   0  0  0  0  0  0  0  0  0  0  0  0
   12.9395   -1.1493    0.0000 O   0  0  0  0  0  0  0  0  0  0  0  0
    6.8671   -0.5647    0.0000 O   0  0  0  0  0  0  0  0  0  0  0  0
   10.3972    2.4594    0.0000 O   0  0  0  0  0  0  0  0  0  0  0  0
    2.5369    3.9353    0.0000 O   0  0  0  0  0  0  0  0  0  0  0  0
   10.3243   -2.6192    0.0000 C   0  0  1  0  0  0  0  0  0  0  0  0
   11.1960   -2.1292    0.0000 C   0  0  1  0  0  0  0  0  0  0  0  0
    9.4641   -2.1092    0.0000 C   0  0  2  0  0  0  0  0  0  0  0  0
   11.2076   -1.1293    0.0000 C   0  0  1  0  0  0  0  0  0  0  0  0
    9.4756   -1.1093    0.0000 C   0  0  1  0  0  0  0  0  0  0  0  0
   12.0793   -0.6393    0.0000 C   0  0  0  0  0  0  0  0  0  0  0  0
    8.6270    0.4006    0.0000 C   0  0  0  0  0  0  0  0  0  0  0  0
    7.7331    0.9353    0.0000 C   0  0  0  0  0  0  0  0  0  0  0  0
    6.0010    1.9353    0.0000 C   0  0  1  0  0  0  0  0  0  0  0  0
    6.0010    0.9353    0.0000 C   0  0  0  0  0  0  0  0  0  0  0  0
    7.7331    1.9353    0.0000 C   0  0  0  0  0  0  0  0  0  0  0  0
    6.8671    0.4353    0.0000 C   0  0  0  0  0  0  0  0  0  0  0  0
    9.5331    0.9145    0.0000 C   0  0  0  0  0  0  0  0  0  0  0  0
    5.1350    2.4353    0.0000 C   0  0  0  0  0  0  0  0  0  0  0  0
    8.6270    2.4700    0.0000 C   0  0  0  0  0  0  0  0  0  0  0  0
    9.5331    1.9561    0.0000 C   0  0  0  0  0  0  0  0  0  0  0  0
    5.1350    3.4353    0.0000 C   0  0  0  0  0  0  0  0  0  0  0  0
    4.2690    1.9353    0.0000 C   0  0  0  0  0  0  0  0  0  0  0  0
    4.2690    3.9353    0.0000 C   0  0  0  0  0  0  0  0  0  0  0  0
    3.4030    2.4353    0.0000 C   0  0  0  0  0  0  0  0  0  0  0  0
    3.4030    3.4353    0.0000 C   0  0  0  0  0  0  0  0  0  0  0  0
   10.3933    3.4594    0.0000 C   0  0  0  0  0  0  0  0  0  0  0  0
    9.7838   -2.9230    0.0000 H   0  0  0  0  0  0  0  0  0  0  0  0
   11.1889   -2.7492    0.0000 H   0  0  0  0  0  0  0  0  0  0  0  0
    8.9308   -1.7930    0.0000 H   0  0  0  0  0  0  0  0  0  0  0  0
   11.2148   -0.5093    0.0000 H   0  0  0  0  0  0  0  0  0  0  0  0
    8.9352   -1.4130    0.0000 H   0  0  0  0  0  0  0  0  0  0  0  0
   12.4833   -0.1690    0.0000 H   0  0  0  0  0  0  0  0  0  0  0  0
   11.6863   -0.1598    0.0000 H   0  0  0  0  0  0  0  0  0  0  0  0
   10.8460   -3.9353    0.0000 H   0  0  0  0  0  0  0  0  0  0  0  0
   12.0490   -3.2592    0.0000 H   0  0  0  0  0  0  0  0  0  0  0  0
    8.5852   -3.2191    0.0000 H   0  0  0  0  0  0  0  0  0  0  0  0
    5.4641    1.6253    0.0000 H   0  0  0  0  0  0  0  0  0  0  0  0
    5.3905    1.0430    0.0000 H   0  0  0  0  0  0  0  0  0  0  0  0
    5.7890    0.3527    0.0000 H   0  0  0  0  0  0  0  0  0  0  0  0
   10.0688    0.6024    0.0000 H   0  0  0  0  0  0  0  0  0  0  0  0
   13.4800   -0.8456    0.0000 H   0  0  0  0  0  0  0  0  0  0  0  0
    8.6199    3.0899    0.0000 H   0  0  0  0  0  0  0  0  0  0  0  0
    5.6720    3.7453    0.0000 H   0  0  0  0  0  0  0  0  0  0  0  0
    4.2690    1.3153    0.0000 H   0  0  0  0  0  0  0  0  0  0  0  0
    4.2690    4.5553    0.0000 H   0  0  0  0  0  0  0  0  0  0  0  0
    2.8660    2.1253    0.0000 H   0  0  0  0  0  0  0  0  0  0  0  0
   11.0133    3.4618    0.0000 H   0  0  0  0  0  0  0  0  0  0  0  0
   10.3909    4.0794    0.0000 H   0  0  0  0  0  0  0  0  0  0  0  0
    9.7733    3.4571    0.0000 H   0  0  0  0  0  0  0  0  0  0  0  0
    2.0000    3.6253    0.0000 H   0  0  0  0  0  0  0  0  0  0  0  0
  1 14  1  0  0  0  0
  1 15  1  0  0  0  0
 15  2  1  6  0  0  0
  2 17  1  0  0  0  0
 11  3  1  6  0  0  0
  3 40  1  0  0  0  0
 12  4  1  1  0  0  0
  4 41  1  0  0  0  0
 13  5  1  1  0  0  0
  5 42  1  0  0  0  0
  6 19  1  0  0  0  0
  6 21  1  0  0  0  0
  7 16  1  0  0  0  0
  7 47  1  0  0  0  0
  8 22  2  0  0  0  0
  9 26  1  0  0  0  0
  9 32  1  0  0  0  0
 10 31  1  0  0  0  0
 10 56  1  0  0  0  0
 11 12  1  0  0  0  0
 11 13  1  0  0  0  0
 11 33  1  0  0  0  0
 12 14  1  0  0  0  0
 12 34  1  0  0  0  0
 13 15  1  0  0  0  0
 13 35  1  0  0  0  0
 14 16  1  6  0  0  0
 14 36  1  0  0  0  0
 15 37  1  0  0  0  0
 16 38  1  0  0  0  0
 16 39  1  0  0  0  0
 17 18  1  0  0  0  0
 17 23  2  0  0  0  0
 18 21  2  0  0  0  0
 18 22  1  0  0  0  0
 19 20  1  0  0  0  0
 19 24  1  1  0  0  0
 19 43  1  0  0  0  0
 20 22  1  0  0  0  0
 20 44  1  0  0  0  0
 20 45  1  0  0  0  0
 21 25  1  0  0  0  0
 23 26  1  0  0  0  0
 23 46  1  0  0  0  0
 24 27  2  0  0  0  0
 24 28  1  0  0  0  0
 25 26  2  0  0  0  0
 25 48  1  0  0  0  0
 27 29  1  0  0  0  0
 27 49  1  0  0  0  0
 28 30  2  0  0  0  0
 28 50  1  0  0  0  0
 29 31  2  0  0  0  0
 29 51  1  0  0  0  0
 30 31  1  0  0  0  0
 30 52  1  0  0  0  0
 32 53  1  0  0  0  0
 32 54  1  0  0  0  0
 32 55  1  0  0  0  0
M  END
> <PUBCHEM_COMPOUND_CID>
73607

> <PUBCHEM_COMPOUND_CANONICALIZED>
1

> <PUBCHEM_CACTVS_COMPLEXITY>
638

> <PUBCHEM_CACTVS_HBOND_ACCEPTOR>
10

> <PUBCHEM_CACTVS_HBOND_DONOR>
5

> <PUBCHEM_CACTVS_ROTATABLE_BOND>
5

> <PUBCHEM_CACTVS_SUBSKEYS>
AAADceB4PAAAAAAAAAAAAAAAAAAAAAAAAAA0aIEAAAAAAACRQAAAGgAACAAADBSwmAMyDoAABgCIAqBSAAACCAAkIAAIiAEGCMgdNzaGNRqieWCl4BUPuQfI7OzOIAAACAAIAABAAAAQABAAAAAAAAAAAA==

> <PUBCHEM_IUPAC_OPENEYE_NAME>
(2S)-2-(4-hydroxyphenyl)-7-methoxy-5-[(2S,3R,4S,5S,6R)-3,4,5-trihydroxy-6-(hydroxymethyl)tetrahydropyran-2-yl]oxy-chroman-4-one

> <PUBCHEM_IUPAC_CAS_NAME>
(2S)-2-(4-hydroxyphenyl)-7-methoxy-5-[[(2S,3R,4S,5S,6R)-3,4,5-trihydroxy-6-(hydroxymethyl)-2-oxanyl]oxy]-3,4-dihydro-2H-1-benzopyran-4-one

> <PUBCHEM_IUPAC_NAME>
(2S)-2-(4-hydroxyphenyl)-7-methoxy-5-[(2S,3R,4S,5S,6R)-3,4,5-trihydroxy-6-(hydroxymethyl)oxan-2-yl]oxy-2,3-dihydrochromen-4-one

> <PUBCHEM_IUPAC_SYSTEMATIC_NAME>
(2S)-5-[(2S,3R,4S,5S,6R)-6-(hydroxymethyl)-3,4,5-tris(oxidanyl)oxan-2-yl]oxy-2-(4-hydroxyphenyl)-7-methoxy-2,3-dihydrochromen-4-one

> <PUBCHEM_IUPAC_TRADITIONAL_NAME>
(2S)-2-(4-hydroxyphenyl)-7-methoxy-5-[(2S,3R,4S,5S,6R)-3,4,5-trihydroxy-6-methylol-tetrahydropyran-2-yl]oxy-chroman-4-one

> <PUBCHEM_IUPAC_INCHI>
InChI=1S/C22H24O10/c1-29-12-6-15-18(13(25)8-14(30-15)10-2-4-11(24)5-3-10)16(7-12)31-22-21(28)20(27)19(26)17(9-23)32-22/h2-7,14,17,19-24,26-28H,8-9H2,1H3/t14-,17+,19+,20-,21+,22+/m0/s1

> <PUBCHEM_IUPAC_INCHIKEY>
NEPMMBQHELYZIW-YMTXFHFDSA-N

> <PUBCHEM_XLOGP3_AA>
0.4

> <PUBCHEM_EXACT_MASS>
448.136947

> <PUBCHEM_MOLECULAR_FORMULA>
C22H24O10

> <PUBCHEM_MOLECULAR_WEIGHT>
448.41996

> <PUBCHEM_OPENEYE_CAN_SMILES>
COC1=CC(=C2C(=O)CC(OC2=C1)C3=CC=C(C=C3)O)OC4C(C(C(C(O4)CO)O)O)O

> <PUBCHEM_OPENEYE_ISO_SMILES>
COC1=CC(=C2C(=O)C[C@H](OC2=C1)C3=CC=C(C=C3)O)O[C@H]4[C@@H]([C@H]([C@@H]([C@H](O4)CO)O)O)O

> <PUBCHEM_CACTVS_TPSA>
155

> <PUBCHEM_MONOISOTOPIC_WEIGHT>
448.136947

> <PUBCHEM_TOTAL_CHARGE>
0

> <PUBCHEM_HEAVY_ATOM_COUNT>
32

> <PUBCHEM_ATOM_DEF_STEREO_COUNT>
6

> <PUBCHEM_ATOM_UDEF_STEREO_COUNT>
0

> <PUBCHEM_BOND_DEF_STEREO_COUNT>
0

> <PUBCHEM_BOND_UDEF_STEREO_COUNT>
0

> <PUBCHEM_ISOTOPIC_ATOM_COUNT>
0

> <PUBCHEM_COMPONENT_COUNT>
1

> <PUBCHEM_CACTVS_TAUTO_COUNT>
4

> <PUBCHEM_COORDINATE_TYPE>
1
5
255

> <PUBCHEM_BONDANNOTATIONS>
14  16  6
17  18  8
17  23  8
18  21  8
19  24  5
15  2  6
21  25  8
23  26  8
24  27  8
24  28  8
25  26  8
27  29  8
28  30  8
29  31  8
11  3  6
30  31  8
12  4  5
13  5  5

$$$$

