   Color/Form

     * Small, white crystals, or white to creamy white, crystalline
       powder.
     * ALPHA: MONOCLINIC CRYSTALS FROM ALC; BETA & GAMMA: ORTHORHOMBIC
       CRYSTALS FROM ALC
     * Crystals from acetone
     * Exists in three crystalline phases, one monoclinic, the other two
       orthorhombic.

   from [1]HSDB

   Odor
        Odorless
   from [2]HSDB

   Melting Point
        260.2 deg C
   from [3]HSDB

   Density/Specific Gravity
        1.236 g/cu cm @ 25 deg C
   from [4]HSDB

   Octanol/Water Partition Coefficient
        log Kow= 3.13
   from [5]HSDB

   Solubilities

     * SOL IN HOT ACETONE, SECONDARY PYRIMIDINE; SLIGHTLY SOL IN ETHER,
       BENZENE, HOT CHLOROFORM, HOT ALC; INSOL IN WATER.
     * Slightly soluble in ethanol and ethyl ether; soluble in acetone.
     * One gram of estrone dissolves in 250 ml of 96% alcohol at 15 deg C,
       in 50 ml of boiling alcohol; in 50 ml of acetone at 15 deg C, in
       110 ml chloroform at 15 deg C, in 145 ml boiling benzene. Sol in
       dioxane, pyridine, fixed alkali hydroxide solutions; slightly sol
       in ether, vegetable oils.
     * Solubility in water: (25 deg C): 0.003 g/100 ml

   from [6]HSDB

   Spectral Properties

     * SPECIFIC OPTICAL ROTATION: +158 TO +165 DEG @ 25 DEG C/D (DIOXANE)
     * Specific optical rotation: +152 deg @ 22 deg C/D (concentration by
       volume = 0.995 g in 100 ml chloroform)
     * SADTLER REF NUMBER: 1288 (IR, PRISM); MAX ABSORPTION (ALC): 280 NM
       (LOG E= 3.37)
     * IR: 5481 (Coblentz Society Spectral Collection)
     * UV: 20783 (Sadtler Research Laboratories Spectral Collection)
     * MASS: 1958 (National Bureau of Standards EPA-NIH Mass Spectra Data
       Base, NSRDS-NBS-63)
     * Maximum absorption (p-dioxane): 282, 296 nm (E 2300, 2130);
       (concentrated sulfuric acid): 300, 450 nm; (0.1M sodium hydroxide):
       239, 293 nm

   from [7]HSDB

   Other Chemical/Physical Properties

     * Crystals from acetone; mp: 251-254 deg C /dl-Estrone/
     * Precipitated by digitonin
     * Stable in air.

   from [8]HSDB

   Computed Properties
   Molecular Weight                  270.36608 [g/mol]
   Molecular Formula                 C[18]H[22]O[2]
   XLogP3                            3.1
   H-Bond Donor                      1
   H-Bond Acceptor                   2
   Rotatable Bond Count              0
   Tautomer Count                    18
   Exact Mass                        270.16198
   MonoIsotopic Mass                 270.16198
   Topological Polar Surface Area    37.3
   Heavy Atom Count                  20
   Formal Charge                     0
   Complexity                        418
   Isotope Atom Count                0
   Defined Atom Stereocenter Count   4
   Undefined Atom Stereocenter Count 0
   Defined Bond Stereocenter Count   0
   Undefined Bond Stereocenter Count 0
   Covalently-Bonded Unit Count      1
   Feature 3D Acceptor Count         1
   Feature 3D Donor Count            1
   Feature 3D Ring Count             4
   Effective Rotor Count             1.2
   Conformer Sampling RMSD           0.6
   CID Conformer Count               [9]1

References

   1. http://toxnet.nlm.nih.gov/cgi-bin/sis/search/r?dbs+hsdb:@term+@rn+@rel+53-16-7
   2. http://toxnet.nlm.nih.gov/cgi-bin/sis/search/r?dbs+hsdb:@term+@rn+@rel+53-16-7
   3. http://toxnet.nlm.nih.gov/cgi-bin/sis/search/r?dbs+hsdb:@term+@rn+@rel+53-16-7
   4. http://toxnet.nlm.nih.gov/cgi-bin/sis/search/r?dbs+hsdb:@term+@rn+@rel+53-16-7
   5. http://toxnet.nlm.nih.gov/cgi-bin/sis/search/r?dbs+hsdb:@term+@rn+@rel+53-16-7
   6. http://toxnet.nlm.nih.gov/cgi-bin/sis/search/r?dbs+hsdb:@term+@rn+@rel+53-16-7
   7. http://toxnet.nlm.nih.gov/cgi-bin/sis/search/r?dbs+hsdb:@term+@rn+@rel+53-16-7
   8. http://toxnet.nlm.nih.gov/cgi-bin/sis/search/r?dbs+hsdb:@term+@rn+@rel+53-16-7
   9. http://pubchem.ncbi.nlm.nih.gov/vw3d/vw3d.cgi?cid=5870
