5281591
  -OEChem-07051212582D

100102  0     1  0  0  0  0  0999 V2000
    8.0622    2.0000    0.0000 O   0  0  0  0  0  0  0  0  0  0  0  0
    8.0622   -4.0000    0.0000 O   0  0  0  0  0  0  0  0  0  0  0  0
    8.9282    3.5000    0.0000 O   0  0  0  0  0  0  0  0  0  0  0  0
    7.1962   -2.5000    0.0000 O   0  0  0  0  0  0  0  0  0  0  0  0
    5.4641    3.5000    0.0000 O   0  0  0  0  0  0  0  0  0  0  0  0
    8.0622    1.0000    0.0000 O   0  0  0  0  0  0  0  0  0  0  0  0
    2.8660   -2.0000    0.0000 O   0  0  0  0  0  0  0  0  0  0  0  0
    6.3301    1.0000    0.0000 N   0  0  0  0  0  0  0  0  0  0  0  0
   10.6603    2.5000    0.0000 N   0  0  0  0  0  0  0  0  0  0  0  0
    9.7942   -2.0000    0.0000 N   0  0  0  0  0  0  0  0  0  0  0  0
    8.0622   -1.0000    0.0000 N   0  0  0  0  0  0  0  0  0  0  0  0
    4.5981    2.0000    0.0000 N   0  0  0  0  0  0  0  0  0  0  0  0
    9.7942    2.0000    0.0000 C   0  0  1  0  0  0  0  0  0  0  0  0
    7.1962    2.5000    0.0000 C   0  0  2  0  0  0  0  0  0  0  0  0
    9.7942    1.0000    0.0000 C   0  0  0  0  0  0  0  0  0  0  0  0
    6.3301    2.0000    0.0000 C   0  0  2  0  0  0  0  0  0  0  0  0
    8.9282   -2.5000    0.0000 C   0  0  2  0  0  0  0  0  0  0  0  0
    8.9282   -3.5000    0.0000 C   0  0  2  0  0  0  0  0  0  0  0  0
    8.9282    2.5000    0.0000 C   0  0  0  0  0  0  0  0  0  0  0  0
    7.1962    3.5000    0.0000 C   0  0  0  0  0  0  0  0  0  0  0  0
   10.6603    0.5000    0.0000 C   0  0  0  0  0  0  0  0  0  0  0  0
    8.9282    0.5000    0.0000 C   0  0  0  0  0  0  0  0  0  0  0  0
    8.0622   -2.0000    0.0000 C   0  0  0  0  0  0  0  0  0  0  0  0
    5.4641    2.5000    0.0000 C   0  0  0  0  0  0  0  0  0  0  0  0
    9.7942   -4.0000    0.0000 C   0  0  0  0  0  0  0  0  0  0  0  0
    7.1962   -0.5000    0.0000 C   0  0  0  0  0  0  0  0  0  0  0  0
    7.1962    0.5000    0.0000 C   0  0  0  0  0  0  0  0  0  0  0  0
    6.3301    4.0000    0.0000 C   0  0  0  0  0  0  0  0  0  0  0  0
    8.0622    4.0000    0.0000 C   0  0  0  0  0  0  0  0  0  0  0  0
   10.6603   -2.5000    0.0000 C   0  0  0  0  0  0  0  0  0  0  0  0
    9.7942   -1.0000    0.0000 C   0  0  0  0  0  0  0  0  0  0  0  0
   11.5263    2.0000    0.0000 C   0  0  0  0  0  0  0  0  0  0  0  0
    6.3301   -1.0000    0.0000 C   0  0  0  0  0  0  0  0  0  0  0  0
    9.7942   -5.0000    0.0000 C   0  0  0  0  0  0  0  0  0  0  0  0
   10.6603   -3.5000    0.0000 C   0  0  0  0  0  0  0  0  0  0  0  0
    6.3301    5.0000    0.0000 C   0  0  0  0  0  0  0  0  0  0  0  0
    8.0622    5.0000    0.0000 C   0  0  0  0  0  0  0  0  0  0  0  0
    7.1962    5.5000    0.0000 C   0  0  0  0  0  0  0  0  0  0  0  0
   10.6603   -5.5000    0.0000 C   0  0  0  0  0  0  0  0  0  0  0  0
   11.5263   -4.0000    0.0000 C   0  0  0  0  0  0  0  0  0  0  0  0
    6.3301   -2.0000    0.0000 C   0  0  0  0  0  0  0  0  0  0  0  0
    5.4641   -0.5000    0.0000 C   0  0  0  0  0  0  0  0  0  0  0  0
   11.5263   -5.0000    0.0000 C   0  0  0  0  0  0  0  0  0  0  0  0
    3.7320    2.5000    0.0000 C   0  0  0  0  0  0  0  0  0  0  0  0
    2.8660    2.0000    0.0000 C   0  0  0  0  0  0  0  0  0  0  0  0
    2.8660    1.0000    0.0000 C   0  0  0  0  0  0  0  0  0  0  0  0
    2.0000    0.5000    0.0000 C   0  0  0  0  0  0  0  0  0  0  0  0
    3.7320    0.5000    0.0000 C   0  0  0  0  0  0  0  0  0  0  0  0
    2.0000   -0.5000    0.0000 C   0  0  0  0  0  0  0  0  0  0  0  0
    3.7320   -0.5000    0.0000 C   0  0  0  0  0  0  0  0  0  0  0  0
    2.8660   -1.0000    0.0000 C   0  0  0  0  0  0  0  0  0  0  0  0
    9.7942    2.6200    0.0000 H   0  0  0  0  0  0  0  0  0  0  0  0
    7.7331    2.8100    0.0000 H   0  0  0  0  0  0  0  0  0  0  0  0
    9.2573    1.3100    0.0000 H   0  0  0  0  0  0  0  0  0  0  0  0
    6.8671    1.6900    0.0000 H   0  0  0  0  0  0  0  0  0  0  0  0
    9.4651   -2.8100    0.0000 H   0  0  0  0  0  0  0  0  0  0  0  0
    8.9282   -4.1200    0.0000 H   0  0  0  0  0  0  0  0  0  0  0  0
   10.3503   -0.0369    0.0000 H   0  0  0  0  0  0  0  0  0  0  0  0
   11.1972    0.1900    0.0000 H   0  0  0  0  0  0  0  0  0  0  0  0
   10.9703    1.0369    0.0000 H   0  0  0  0  0  0  0  0  0  0  0  0
    8.6182    1.0369    0.0000 H   0  0  0  0  0  0  0  0  0  0  0  0
    8.3913    0.1900    0.0000 H   0  0  0  0  0  0  0  0  0  0  0  0
    9.2382   -0.0369    0.0000 H   0  0  0  0  0  0  0  0  0  0  0  0
    5.7932    0.6900    0.0000 H   0  0  0  0  0  0  0  0  0  0  0  0
   10.6603    3.1200    0.0000 H   0  0  0  0  0  0  0  0  0  0  0  0
    8.5991   -0.6900    0.0000 H   0  0  0  0  0  0  0  0  0  0  0  0
    5.7932    3.6900    0.0000 H   0  0  0  0  0  0  0  0  0  0  0  0
    8.5991    3.6900    0.0000 H   0  0  0  0  0  0  0  0  0  0  0  0
   10.4142   -1.0000    0.0000 H   0  0  0  0  0  0  0  0  0  0  0  0
   10.3503   -3.0369    0.0000 H   0  0  0  0  0  0  0  0  0  0  0  0
   11.1972   -2.8100    0.0000 H   0  0  0  0  0  0  0  0  0  0  0  0
   10.9703   -1.9631    0.0000 H   0  0  0  0  0  0  0  0  0  0  0  0
    9.7942   -0.3800    0.0000 H   0  0  0  0  0  0  0  0  0  0  0  0
    9.1742   -1.0000    0.0000 H   0  0  0  0  0  0  0  0  0  0  0  0
   11.2163    1.4631    0.0000 H   0  0  0  0  0  0  0  0  0  0  0  0
   12.0632    1.6900    0.0000 H   0  0  0  0  0  0  0  0  0  0  0  0
   11.8363    2.5369    0.0000 H   0  0  0  0  0  0  0  0  0  0  0  0
    4.5981    1.3800    0.0000 H   0  0  0  0  0  0  0  0  0  0  0  0
    9.2573   -5.3100    0.0000 H   0  0  0  0  0  0  0  0  0  0  0  0
   10.6603   -2.8800    0.0000 H   0  0  0  0  0  0  0  0  0  0  0  0
    8.0622   -4.6200    0.0000 H   0  0  0  0  0  0  0  0  0  0  0  0
    5.7932    5.3100    0.0000 H   0  0  0  0  0  0  0  0  0  0  0  0
    8.5991    5.3100    0.0000 H   0  0  0  0  0  0  0  0  0  0  0  0
    7.1962    6.1200    0.0000 H   0  0  0  0  0  0  0  0  0  0  0  0
   10.6603   -6.1200    0.0000 H   0  0  0  0  0  0  0  0  0  0  0  0
   12.0632   -3.6900    0.0000 H   0  0  0  0  0  0  0  0  0  0  0  0
    5.7101   -2.0000    0.0000 H   0  0  0  0  0  0  0  0  0  0  0  0
    6.3301   -2.6200    0.0000 H   0  0  0  0  0  0  0  0  0  0  0  0
    6.9501   -2.0000    0.0000 H   0  0  0  0  0  0  0  0  0  0  0  0
    5.7741    0.0369    0.0000 H   0  0  0  0  0  0  0  0  0  0  0  0
    4.9272   -0.1900    0.0000 H   0  0  0  0  0  0  0  0  0  0  0  0
    5.1541   -1.0369    0.0000 H   0  0  0  0  0  0  0  0  0  0  0  0
   12.0632   -5.3100    0.0000 H   0  0  0  0  0  0  0  0  0  0  0  0
    3.7320    3.1200    0.0000 H   0  0  0  0  0  0  0  0  0  0  0  0
    2.3291    2.3100    0.0000 H   0  0  0  0  0  0  0  0  0  0  0  0
    1.4631    0.8100    0.0000 H   0  0  0  0  0  0  0  0  0  0  0  0
    4.2690    0.8100    0.0000 H   0  0  0  0  0  0  0  0  0  0  0  0
    1.4631   -0.8100    0.0000 H   0  0  0  0  0  0  0  0  0  0  0  0
    4.2690   -0.8100    0.0000 H   0  0  0  0  0  0  0  0  0  0  0  0
    2.3291   -2.3100    0.0000 H   0  0  0  0  0  0  0  0  0  0  0  0
 14  1  1  6  0  0  0
  1 19  1  0  0  0  0
 18  2  1  6  0  0  0
  2 81  1  0  0  0  0
  3 19  2  0  0  0  0
  4 23  2  0  0  0  0
  5 24  2  0  0  0  0
  6 27  2  0  0  0  0
  7 51  1  0  0  0  0
  7100  1  0  0  0  0
 16  8  1  1  0  0  0
  8 27  1  0  0  0  0
  8 64  1  0  0  0  0
 13  9  1  1  0  0  0
  9 32  1  0  0  0  0
  9 65  1  0  0  0  0
 17 10  1  6  0  0  0
 10 30  1  0  0  0  0
 10 31  1  0  0  0  0
 11 23  1  0  0  0  0
 11 26  1  0  0  0  0
 11 66  1  0  0  0  0
 12 24  1  0  0  0  0
 12 44  1  0  0  0  0
 12 78  1  0  0  0  0
 13 15  1  0  0  0  0
 13 19  1  0  0  0  0
 13 52  1  0  0  0  0
 14 16  1  0  0  0  0
 14 20  1  0  0  0  0
 14 53  1  0  0  0  0
 15 21  1  0  0  0  0
 15 22  1  0  0  0  0
 15 54  1  0  0  0  0
 16 24  1  0  0  0  0
 16 55  1  0  0  0  0
 17 18  1  0  0  0  0
 17 23  1  0  0  0  0
 17 56  1  0  0  0  0
 18 25  1  0  0  0  0
 18 57  1  0  0  0  0
 20 28  2  0  0  0  0
 20 29  1  0  0  0  0
 21 58  1  0  0  0  0
 21 59  1  0  0  0  0
 21 60  1  0  0  0  0
 22 61  1  0  0  0  0
 22 62  1  0  0  0  0
 22 63  1  0  0  0  0
 25 34  2  0  0  0  0
 25 35  1  0  0  0  0
 26 27  1  0  0  0  0
 26 33  2  0  0  0  0
 28 36  1  0  0  0  0
 28 67  1  0  0  0  0
 29 37  2  0  0  0  0
 29 68  1  0  0  0  0
 30 70  1  0  0  0  0
 30 71  1  0  0  0  0
 30 72  1  0  0  0  0
 31 69  1  0  0  0  0
 31 73  1  0  0  0  0
 31 74  1  0  0  0  0
 32 75  1  0  0  0  0
 32 76  1  0  0  0  0
 32 77  1  0  0  0  0
 33 41  1  0  0  0  0
 33 42  1  0  0  0  0
 34 39  1  0  0  0  0
 34 79  1  0  0  0  0
 35 40  2  0  0  0  0
 35 80  1  0  0  0  0
 36 38  2  0  0  0  0
 36 82  1  0  0  0  0
 37 38  1  0  0  0  0
 37 83  1  0  0  0  0
 38 84  1  0  0  0  0
 39 43  2  0  0  0  0
 39 85  1  0  0  0  0
 40 43  1  0  0  0  0
 40 86  1  0  0  0  0
 41 87  1  0  0  0  0
 41 88  1  0  0  0  0
 41 89  1  0  0  0  0
 42 90  1  0  0  0  0
 42 91  1  0  0  0  0
 42 92  1  0  0  0  0
 43 93  1  0  0  0  0
 44 45  2  0  0  0  0
 44 94  1  0  0  0  0
 45 46  1  0  0  0  0
 45 95  1  0  0  0  0
 46 47  2  0  0  0  0
 46 48  1  0  0  0  0
 47 49  1  0  0  0  0
 47 96  1  0  0  0  0
 48 50  2  0  0  0  0
 48 97  1  0  0  0  0
 49 51  2  0  0  0  0
 49 98  1  0  0  0  0
 50 51  1  0  0  0  0
 50 99  1  0  0  0  0
M  END
> <PUBCHEM_COMPOUND_CID>
5281591

> <PUBCHEM_COMPOUND_CANONICALIZED>
1

> <PUBCHEM_CACTVS_COMPLEXITY>
1200

> <PUBCHEM_CACTVS_HBOND_ACCEPTOR>
9

> <PUBCHEM_CACTVS_HBOND_DONOR>
6

> <PUBCHEM_CACTVS_ROTATABLE_BOND>
17

> <PUBCHEM_CACTVS_SUBSKEYS>
AAADcfB/uAAAAAAAAAAAAAAAAAAAAAAAAAAwYMAAAAAAAAABUAAAHgAQCAAADTzhmAYyDoPABgCIAiXWWACCAAAgIgAIiIGOCMgKdjaCsTuXcAAm9hGYuQeYyKCOIAAAAAAAAABAAAAAAAAAAAAAAAAAAA==

> <PUBCHEM_IUPAC_OPENEYE_NAME>
[(1S,2R)-2-[[2-[[(2R,3S)-2-(dimethylamino)-3-hydroxy-3-phenyl-propanoyl]amino]-3-methyl-but-2-enoyl]amino]-3-[[(Z)-2-(4-hydroxyphenyl)vinyl]amino]-3-oxo-1-phenyl-propyl] (2S)-3-methyl-2-(methylamino)butanoate

> <PUBCHEM_IUPAC_CAS_NAME>
(2S)-3-methyl-2-(methylamino)butanoic acid [(1S,2R)-2-[[2-[[(2R,3S)-2-(dimethylamino)-3-hydroxy-1-oxo-3-phenylpropyl]amino]-3-methyl-1-oxobut-2-enyl]amino]-3-[[(Z)-2-(4-hydroxyphenyl)ethenyl]amino]-3-oxo-1-phenylpropyl] ester

> <PUBCHEM_IUPAC_NAME>
[(1S,2R)-2-[[2-[[(2R,3S)-2-(dimethylamino)-3-hydroxy-3-phenylpropanoyl]amino]-3-methylbut-2-enoyl]amino]-3-[[(Z)-2-(4-hydroxyphenyl)ethenyl]amino]-3-oxo-1-phenylpropyl] (2S)-3-methyl-2-(methylamino)butanoate

> <PUBCHEM_IUPAC_SYSTEMATIC_NAME>
[(1S,2R)-2-[[2-[[(2R,3S)-2-(dimethylamino)-3-oxidanyl-3-phenyl-propanoyl]amino]-3-methyl-but-2-enoyl]amino]-3-[[(Z)-2-(4-hydroxyphenyl)ethenyl]amino]-3-oxidanylidene-1-phenyl-propyl] (2S)-3-methyl-2-(methylamino)butanoate

> <PUBCHEM_IUPAC_TRADITIONAL_NAME>
(2S)-3-methyl-2-(methylamino)butyric acid [(1S,2R)-2-[[2-[[(2R,3S)-2-(dimethylamino)-3-hydroxy-3-phenyl-propanoyl]amino]-3-methyl-but-2-enoyl]amino]-3-[[(Z)-2-(4-hydroxyphenyl)vinyl]amino]-3-keto-1-phenyl-propyl] ester

> <PUBCHEM_IUPAC_INCHI>
InChI=1S/C39H49N5O7/c1-24(2)30(42-38(49)33(44(6)7)34(46)27-14-10-8-11-15-27)37(48)43-32(36(47)41-23-22-26-18-20-29(45)21-19-26)35(28-16-12-9-13-17-28)51-39(50)31(40-5)25(3)4/h8-23,25,31-35,40,45-46H,1-7H3,(H,41,47)(H,42,49)(H,43,48)/b23-22-/t31-,32+,33+,34-,35-/m0/s1

> <PUBCHEM_IUPAC_INCHIKEY>
HXLYZPGZSZWTSW-ISFPBDNKSA-N

> <PUBCHEM_XLOGP3_AA>
4.7

> <PUBCHEM_EXACT_MASS>
699.363199

> <PUBCHEM_MOLECULAR_FORMULA>
C39H49N5O7

> <PUBCHEM_MOLECULAR_WEIGHT>
699.83566

> <PUBCHEM_OPENEYE_CAN_SMILES>
CC(C)C(C(=O)OC(C1=CC=CC=C1)C(C(=O)NC=CC2=CC=C(C=C2)O)NC(=O)C(=C(C)C)NC(=O)C(C(C3=CC=CC=C3)O)N(C)C)NC

> <PUBCHEM_OPENEYE_ISO_SMILES>
CC(C)[C@@H](C(=O)O[C@@H](C1=CC=CC=C1)[C@H](C(=O)N/C=C\C2=CC=C(C=C2)O)NC(=O)C(=C(C)C)NC(=O)[C@@H]([C@H](C3=CC=CC=C3)O)N(C)C)NC

> <PUBCHEM_CACTVS_TPSA>
169

> <PUBCHEM_MONOISOTOPIC_WEIGHT>
699.363199

> <PUBCHEM_TOTAL_CHARGE>
0

> <PUBCHEM_HEAVY_ATOM_COUNT>
51

> <PUBCHEM_ATOM_DEF_STEREO_COUNT>
5

> <PUBCHEM_ATOM_UDEF_STEREO_COUNT>
0

> <PUBCHEM_BOND_DEF_STEREO_COUNT>
1

> <PUBCHEM_BOND_UDEF_STEREO_COUNT>
0

> <PUBCHEM_ISOTOPIC_ATOM_COUNT>
0

> <PUBCHEM_COMPONENT_COUNT>
1

> <PUBCHEM_CACTVS_TAUTO_COUNT>
48

> <PUBCHEM_COORDINATE_TYPE>
1
5
255

> <PUBCHEM_BONDANNOTATIONS>
14  1  6
17  10  6
18  2  6
20  28  8
20  29  8
25  34  8
25  35  8
28  36  8
29  37  8
34  39  8
35  40  8
36  38  8
37  38  8
39  43  8
40  43  8
46  47  8
46  48  8
47  49  8
48  50  8
49  51  8
50  51  8
16  8  5
13  9  5

$$$$

