440489
  -OEChem-07051212492D

 91 96  0     1  0  0  0  0  0999 V2000
   12.9781    1.0031    0.0000 O   0  0  0  0  0  0  0  0  0  0  0  0
   14.6245    0.4651    0.0000 O   0  0  0  0  0  0  0  0  0  0  0  0
    6.3282   -3.3044    0.0000 O   0  0  0  0  0  0  0  0  0  0  0  0
   15.5565    3.3166    0.0000 O   0  0  0  0  0  0  0  0  0  0  0  0
   16.8922    1.8280    0.0000 O   0  0  0  0  0  0  0  0  0  0  0  0
   15.9602   -1.0235    0.0000 O   0  0  0  0  0  0  0  0  0  0  0  0
    4.5961   -3.2978    0.0000 O   0  0  0  0  0  0  0  0  0  0  0  0
   14.8886    4.0609    0.0000 O   0  0  0  0  0  0  0  0  0  0  0  0
    6.3359   -1.3045    0.0000 O   0  0  0  0  0  0  0  0  0  0  0  0
    4.6077   -0.2978    0.0000 O   0  0  0  0  0  0  0  0  0  0  0  0
    2.8718   -1.2911    0.0000 O   0  0  0  0  0  0  0  0  0  0  0  0
    2.8602   -4.2911    0.0000 O   0  0  0  0  0  0  0  0  0  0  0  0
    2.0000   -2.7878    0.0000 O   0  0  0  0  0  0  0  0  0  0  0  0
   13.5995    2.9042    0.0000 N   0  0  0  0  0  0  0  0  0  0  0  0
   11.7213   -0.2521    0.0000 C   0  0  3  0  0  0  0  0  0  0  0  0
   11.7213   -1.2521    0.0000 C   0  0  3  0  0  0  0  0  0  0  0  0
   10.8552   -1.7521    0.0000 C   0  0  3  0  0  0  0  0  0  0  0  0
   12.6675    0.0526    0.0000 C   0  0  1  0  0  0  0  0  0  0  0  0
    9.9892   -1.2521    0.0000 C   0  0  3  0  0  0  0  0  0  0  0  0
   10.8552    0.2479    0.0000 C   0  0  0  0  0  0  0  0  0  0  0  0
   12.6675   -1.5568    0.0000 C   0  0  0  0  0  0  0  0  0  0  0  0
   13.2511   -0.7521    0.0000 C   0  0  0  0  0  0  0  0  0  0  0  0
    9.9892   -0.2521    0.0000 C   0  0  0  0  0  0  0  0  0  0  0  0
   10.8713   -2.7936    0.0000 C   0  0  0  0  0  0  0  0  0  0  0  0
   11.7213    0.7479    0.0000 C   0  0  0  0  0  0  0  0  0  0  0  0
    9.0792   -1.7590    0.0000 C   0  0  0  0  0  0  0  0  0  0  0  0
    9.9732   -3.3214    0.0000 C   0  0  0  0  0  0  0  0  0  0  0  0
    9.0712   -2.8006    0.0000 C   0  0  0  0  0  0  0  0  0  0  0  0
   13.9566    1.2094    0.0000 C   0  0  2  0  0  0  0  0  0  0  0  0
    8.1524   -1.1949    0.0000 C   0  0  0  0  0  0  0  0  0  0  0  0
    8.1358   -3.3503    0.0000 C   0  0  0  0  0  0  0  0  0  0  0  0
   14.2673    2.1599    0.0000 C   0  0  1  0  0  0  0  0  0  0  0  0
    7.2045   -1.7228    0.0000 C   0  0  0  0  0  0  0  0  0  0  0  0
    7.1961   -2.8078    0.0000 C   0  0  0  0  0  0  0  0  0  0  0  0
   15.2458    2.3661    0.0000 C   0  0  2  0  0  0  0  0  0  0  0  0
   15.6030    0.6713    0.0000 C   0  0  1  0  0  0  0  0  0  0  0  0
   15.9137    1.6218    0.0000 C   0  0  1  0  0  0  0  0  0  0  0  0
   16.2708   -0.0730    0.0000 C   0  0  0  0  0  0  0  0  0  0  0  0
    5.4641   -2.8011    0.0000 C   0  0  2  0  0  0  0  0  0  0  0  0
   13.9101    3.8547    0.0000 C   0  0  0  0  0  0  0  0  0  0  0  0
    5.4679   -1.8011    0.0000 C   0  0  1  0  0  0  0  0  0  0  0  0
    4.6038   -1.2978    0.0000 C   0  0  2  0  0  0  0  0  0  0  0  0
   13.2423    4.5990    0.0000 C   0  0  0  0  0  0  0  0  0  0  0  0
    3.7320   -2.7944    0.0000 C   0  0  1  0  0  0  0  0  0  0  0  0
    3.7359   -1.7944    0.0000 C   0  0  1  0  0  0  0  0  0  0  0  0
    2.8641   -3.2911    0.0000 C   0  0  0  0  0  0  0  0  0  0  0  0
   11.8112   -2.0973    0.0000 H   0  0  0  0  0  0  0  0  0  0  0  0
   11.5946   -2.1714    0.0000 H   0  0  0  0  0  0  0  0  0  0  0  0
   13.2800    0.1488    0.0000 H   0  0  0  0  0  0  0  0  0  0  0  0
   10.7253   -0.8271    0.0000 H   0  0  0  0  0  0  0  0  0  0  0  0
   11.2538    0.7228    0.0000 H   0  0  0  0  0  0  0  0  0  0  0  0
   10.4567    0.7228    0.0000 H   0  0  0  0  0  0  0  0  0  0  0  0
   12.4164   -2.1237    0.0000 H   0  0  0  0  0  0  0  0  0  0  0  0
   13.2049   -1.8661    0.0000 H   0  0  0  0  0  0  0  0  0  0  0  0
   13.7120   -1.1668    0.0000 H   0  0  0  0  0  0  0  0  0  0  0  0
   13.7120   -0.3374    0.0000 H   0  0  0  0  0  0  0  0  0  0  0  0
    9.7772    0.3305    0.0000 H   0  0  0  0  0  0  0  0  0  0  0  0
    9.3786   -0.3598    0.0000 H   0  0  0  0  0  0  0  0  0  0  0  0
   11.0893   -3.3740    0.0000 H   0  0  0  0  0  0  0  0  0  0  0  0
   11.4804   -2.6781    0.0000 H   0  0  0  0  0  0  0  0  0  0  0  0
   12.3413    0.7479    0.0000 H   0  0  0  0  0  0  0  0  0  0  0  0
   11.7213    1.3679    0.0000 H   0  0  0  0  0  0  0  0  0  0  0  0
   11.1013    0.7479    0.0000 H   0  0  0  0  0  0  0  0  0  0  0  0
    9.5759   -3.7973    0.0000 H   0  0  0  0  0  0  0  0  0  0  0  0
   10.3742   -3.7943    0.0000 H   0  0  0  0  0  0  0  0  0  0  0  0
   13.5426    1.6708    0.0000 H   0  0  0  0  0  0  0  0  0  0  0  0
    8.1643   -0.5750    0.0000 H   0  0  0  0  0  0  0  0  0  0  0  0
    8.1381   -3.9703    0.0000 H   0  0  0  0  0  0  0  0  0  0  0  0
   13.6606    2.0320    0.0000 H   0  0  0  0  0  0  0  0  0  0  0  0
    6.6712   -1.4066    0.0000 H   0  0  0  0  0  0  0  0  0  0  0  0
   14.8317    2.8276    0.0000 H   0  0  0  0  0  0  0  0  0  0  0  0
   15.4104    0.0820    0.0000 H   0  0  0  0  0  0  0  0  0  0  0  0
   16.1063    2.2111    0.0000 H   0  0  0  0  0  0  0  0  0  0  0  0
   12.9928    2.7763    0.0000 H   0  0  0  0  0  0  0  0  0  0  0  0
   16.8178   -0.3650    0.0000 H   0  0  0  0  0  0  0  0  0  0  0  0
   16.6534    0.4149    0.0000 H   0  0  0  0  0  0  0  0  0  0  0  0
   16.1631    3.4445    0.0000 H   0  0  0  0  0  0  0  0  0  0  0  0
   17.3062    1.3666    0.0000 H   0  0  0  0  0  0  0  0  0  0  0  0
    6.0022   -2.4932    0.0000 H   0  0  0  0  0  0  0  0  0  0  0  0
    5.4703   -1.1811    0.0000 H   0  0  0  0  0  0  0  0  0  0  0  0
   16.3742   -1.4850    0.0000 H   0  0  0  0  0  0  0  0  0  0  0  0
    4.0681   -0.9857    0.0000 H   0  0  0  0  0  0  0  0  0  0  0  0
   13.7037    5.0131    0.0000 H   0  0  0  0  0  0  0  0  0  0  0  0
   12.8282    5.0605    0.0000 H   0  0  0  0  0  0  0  0  0  0  0  0
   12.7808    4.1849    0.0000 H   0  0  0  0  0  0  0  0  0  0  0  0
    3.7383   -1.1744    0.0000 H   0  0  0  0  0  0  0  0  0  0  0  0
    3.7296   -3.4144    0.0000 H   0  0  0  0  0  0  0  0  0  0  0  0
    6.3383   -0.6845    0.0000 H   0  0  0  0  0  0  0  0  0  0  0  0
    5.1458    0.0101    0.0000 H   0  0  0  0  0  0  0  0  0  0  0  0
    2.8742   -0.6711    0.0000 H   0  0  0  0  0  0  0  0  0  0  0  0
    2.3221   -4.5990    0.0000 H   0  0  0  0  0  0  0  0  0  0  0  0
 18  1  1  6  0  0  0
 29  1  1  1  0  0  0
  2 29  1  0  0  0  0
  2 36  1  0  0  0  0
  3 34  1  0  0  0  0
 39  3  1  6  0  0  0
 35  4  1  1  0  0  0
  4 77  1  0  0  0  0
 37  5  1  6  0  0  0
  5 78  1  0  0  0  0
  6 38  1  0  0  0  0
  6 81  1  0  0  0  0
  7 39  1  0  0  0  0
  7 44  1  0  0  0  0
  8 40  2  0  0  0  0
 41  9  1  1  0  0  0
  9 88  1  0  0  0  0
 42 10  1  6  0  0  0
 10 89  1  0  0  0  0
 45 11  1  1  0  0  0
 11 90  1  0  0  0  0
 12 46  1  0  0  0  0
 12 91  1  0  0  0  0
 13 46  2  0  0  0  0
 32 14  1  6  0  0  0
 14 40  1  0  0  0  0
 14 74  1  0  0  0  0
 15 16  1  0  0  0  0
 15 18  1  0  0  0  0
 15 20  1  0  0  0  0
 15 25  1  0  0  0  0
 16 17  1  0  0  0  0
 16 21  1  0  0  0  0
 16 47  1  0  0  0  0
 17 19  1  0  0  0  0
 17 24  1  0  0  0  0
 17 48  1  0  0  0  0
 18 22  1  0  0  0  0
 18 49  1  0  0  0  0
 19 23  1  0  0  0  0
 19 26  1  0  0  0  0
 19 50  1  0  0  0  0
 20 23  1  0  0  0  0
 20 51  1  0  0  0  0
 20 52  1  0  0  0  0
 21 22  1  0  0  0  0
 21 53  1  0  0  0  0
 21 54  1  0  0  0  0
 22 55  1  0  0  0  0
 22 56  1  0  0  0  0
 23 57  1  0  0  0  0
 23 58  1  0  0  0  0
 24 27  1  0  0  0  0
 24 59  1  0  0  0  0
 24 60  1  0  0  0  0
 25 61  1  0  0  0  0
 25 62  1  0  0  0  0
 25 63  1  0  0  0  0
 26 28  2  0  0  0  0
 26 30  1  0  0  0  0
 27 28  1  0  0  0  0
 27 64  1  0  0  0  0
 27 65  1  0  0  0  0
 28 31  1  0  0  0  0
 29 32  1  0  0  0  0
 29 66  1  0  0  0  0
 30 33  2  0  0  0  0
 30 67  1  0  0  0  0
 31 34  2  0  0  0  0
 31 68  1  0  0  0  0
 32 35  1  0  0  0  0
 32 69  1  0  0  0  0
 33 34  1  0  0  0  0
 33 70  1  0  0  0  0
 35 37  1  0  0  0  0
 35 71  1  0  0  0  0
 36 37  1  0  0  0  0
 36 38  1  1  0  0  0
 36 72  1  0  0  0  0
 37 73  1  0  0  0  0
 38 75  1  0  0  0  0
 38 76  1  0  0  0  0
 39 41  1  0  0  0  0
 39 79  1  0  0  0  0
 40 43  1  0  0  0  0
 41 42  1  0  0  0  0
 41 80  1  0  0  0  0
 42 45  1  0  0  0  0
 42 82  1  0  0  0  0
 43 83  1  0  0  0  0
 43 84  1  0  0  0  0
 43 85  1  0  0  0  0
 44 45  1  0  0  0  0
 44 46  1  6  0  0  0
 44 87  1  0  0  0  0
 45 86  1  0  0  0  0
M  END
> <PUBCHEM_COMPOUND_CID>
440489

> <PUBCHEM_COMPOUND_CANONICALIZED>
1

> <PUBCHEM_CACTVS_COMPLEXITY>
1110

> <PUBCHEM_CACTVS_HBOND_ACCEPTOR>
13

> <PUBCHEM_CACTVS_HBOND_DONOR>
8

> <PUBCHEM_CACTVS_ROTATABLE_BOND>
7

> <PUBCHEM_CACTVS_SUBSKEYS>
AAADcfB+PAAAAAAAAAAAAAAAAAAAAYAAAAA0aMECAAAAAGDBAAAAHgAQCAAADzzxmAcyDoLABgCIAiHSGAICCAAgIAAIiIFOCIgfNjaEsR6neCCn9hGfqAf6/P9PoAABAAAQAADAAAYAACAAAIAADAAAAA==

> <PUBCHEM_IUPAC_OPENEYE_NAME>
(2S,3S,4S,5R,6S)-6-[[(17R)-17-[(2R,3R,4R,5S,6R)-3-acetamido-4,5-dihydroxy-6-(hydroxymethyl)tetrahydropyran-2-yl]oxy-13-methyl-6,7,8,9,11,12,14,15,16,17-decahydrocyclopenta[a]phenanthren-3-yl]oxy]-3,4,5-trihydroxy-tetrahydropyran-2-carboxylic acid

> <PUBCHEM_IUPAC_CAS_NAME>
(2S,3S,4S,5R,6S)-6-[[(17R)-17-[[(2R,3R,4R,5S,6R)-3-acetamido-4,5-dihydroxy-6-(hydroxymethyl)-2-oxanyl]oxy]-13-methyl-6,7,8,9,11,12,14,15,16,17-decahydrocyclopenta[a]phenanthren-3-yl]oxy]-3,4,5-trihydroxy-2-oxanecarboxylic acid

> <PUBCHEM_IUPAC_NAME>
(2S,3S,4S,5R,6S)-6-[[(17R)-17-[(2R,3R,4R,5S,6R)-3-acetamido-4,5-dihydroxy-6-(hydroxymethyl)oxan-2-yl]oxy-13-methyl-6,7,8,9,11,12,14,15,16,17-decahydrocyclopenta[a]phenanthren-3-yl]oxy]-3,4,5-trihydroxyoxane-2-carboxylic acid

> <PUBCHEM_IUPAC_SYSTEMATIC_NAME>
(2S,3S,4S,5R,6S)-6-[[(17R)-17-[(2R,3R,4R,5S,6R)-3-acetamido-6-(hydroxymethyl)-4,5-bis(oxidanyl)oxan-2-yl]oxy-13-methyl-6,7,8,9,11,12,14,15,16,17-decahydrocyclopenta[a]phenanthren-3-yl]oxy]-3,4,5-tris(oxidanyl)oxane-2-carboxylic acid

> <PUBCHEM_IUPAC_TRADITIONAL_NAME>
(2S,3S,4S,5R,6S)-6-[[(17R)-17-[(2R,3R,4R,5S,6R)-3-acetamido-4,5-dihydroxy-6-methylol-tetrahydropyran-2-yl]oxy-13-methyl-6,7,8,9,11,12,14,15,16,17-decahydrocyclopenta[a]phenanthren-3-yl]oxy]-3,4,5-trihydroxy-tetrahydropyran-2-carboxylic acid

> <PUBCHEM_IUPAC_INCHI>
InChI=1S/C32H45NO13/c1-13(35)33-22-24(37)23(36)20(12-34)44-30(22)45-21-8-7-19-18-5-3-14-11-15(4-6-16(14)17(18)9-10-32(19,21)2)43-31-27(40)25(38)26(39)28(46-31)29(41)42/h4,6,11,17-28,30-31,34,36-40H,3,5,7-10,12H2,1-2H3,(H,33,35)(H,41,42)/t17?,18?,19?,20-,21-,22-,23-,24-,25+,26+,27-,28+,30+,31-,32?/m1/s1

> <PUBCHEM_IUPAC_INCHIKEY>
BHYDXVJSMVVTCR-NQRZIZCBSA-N

> <PUBCHEM_XLOGP3_AA>
0.8

> <PUBCHEM_EXACT_MASS>
651.289091

> <PUBCHEM_MOLECULAR_FORMULA>
C32H45NO13

> <PUBCHEM_MOLECULAR_WEIGHT>
651.6986

> <PUBCHEM_OPENEYE_CAN_SMILES>
CC(=O)NC1C(C(C(OC1OC2CCC3C2(CCC4C3CCC5=C4C=CC(=C5)OC6C(C(C(C(O6)C(=O)O)O)O)O)C)CO)O)O

> <PUBCHEM_OPENEYE_ISO_SMILES>
CC(=O)N[C@@H]1[C@H]([C@@H]([C@H](O[C@H]1O[C@@H]2CCC3C2(CCC4C3CCC5=C4C=CC(=C5)O[C@H]6[C@@H]([C@H]([C@@H]([C@H](O6)C(=O)O)O)O)O)C)CO)O)O

> <PUBCHEM_CACTVS_TPSA>
225

> <PUBCHEM_MONOISOTOPIC_WEIGHT>
651.289091

> <PUBCHEM_TOTAL_CHARGE>
0

> <PUBCHEM_HEAVY_ATOM_COUNT>
46

> <PUBCHEM_ATOM_DEF_STEREO_COUNT>
11

> <PUBCHEM_ATOM_UDEF_STEREO_COUNT>
4

> <PUBCHEM_BOND_DEF_STEREO_COUNT>
0

> <PUBCHEM_BOND_UDEF_STEREO_COUNT>
0

> <PUBCHEM_ISOTOPIC_ATOM_COUNT>
0

> <PUBCHEM_COMPONENT_COUNT>
1

> <PUBCHEM_CACTVS_TAUTO_COUNT>
2

> <PUBCHEM_COORDINATE_TYPE>
1
5
255

> <PUBCHEM_BONDANNOTATIONS>
18  1  6
29  1  5
42  10  6
45  11  5
32  14  6
15  25  3
16  47  3
17  48  3
19  50  3
26  28  8
26  30  8
28  31  8
39  3  6
30  33  8
31  34  8
33  34  8
36  38  5
35  4  5
44  46  6
37  5  6
41  9  5

$$$$

