46173848
  -OEChem-07051213092D

 60 64  0     1  0  0  0  0  0999 V2000
    7.4248    2.4458    0.0000 O   0  0  0  0  0  0  0  0  0  0  0  0
    8.7140    3.6025    0.0000 O   0  0  0  0  0  0  0  0  0  0  0  0
    5.6591   -2.0043    0.0000 C   0  0  2  0  0  0  0  0  0  0  0  0
    4.7931   -1.5043    0.0000 C   0  0  1  0  0  0  0  0  0  0  0  0
    6.5251   -1.5043    0.0000 C   0  0  2  0  0  0  0  0  0  0  0  0
    6.5251   -0.5043    0.0000 C   0  0  2  0  0  0  0  0  0  0  0  0
    3.8831   -2.0112    0.0000 C   0  0  2  0  0  0  0  0  0  0  0  0
    3.8751   -3.0528    0.0000 C   0  0  3  0  0  0  0  0  0  0  0  0
    4.7931   -0.5043    0.0000 C   0  0  0  0  0  0  0  0  0  0  0  0
    5.6591   -0.0043    0.0000 C   0  0  0  0  0  0  0  0  0  0  0  0
    7.4714   -0.1996    0.0000 C   0  0  2  0  0  0  0  0  0  0  0  0
    5.6752   -3.0458    0.0000 C   0  0  0  0  0  0  0  0  0  0  0  0
    7.4714   -1.8090    0.0000 C   0  0  0  0  0  0  0  0  0  0  0  0
    4.7771   -3.5736    0.0000 C   0  0  0  0  0  0  0  0  0  0  0  0
    8.0550   -1.0043    0.0000 C   0  0  0  0  0  0  0  0  0  0  0  0
    2.9562   -1.4471    0.0000 C   0  0  0  0  0  0  0  0  0  0  0  0
    2.9396   -3.6025    0.0000 C   0  0  0  0  0  0  0  0  0  0  0  0
    6.5251    0.4957    0.0000 C   0  0  0  0  0  0  0  0  0  0  0  0
    3.8908   -1.0112    0.0000 C   0  0  0  0  0  0  0  0  0  0  0  0
    2.0084   -1.9750    0.0000 C   0  0  0  0  0  0  0  0  0  0  0  0
    2.0000   -3.0600    0.0000 C   0  0  0  0  0  0  0  0  0  0  0  0
    7.7820    0.7509    0.0000 C   0  0  0  0  0  0  0  0  0  0  0  0
    8.7605    0.9572    0.0000 C   0  0  0  0  0  0  0  0  0  0  0  0
    7.1142    1.4952    0.0000 C   0  0  0  0  0  0  0  0  0  0  0  0
    9.0712    1.9077    0.0000 C   0  0  0  0  0  0  0  0  0  0  0  0
    8.4034    2.6520    0.0000 C   0  0  0  0  0  0  0  0  0  0  0  0
    6.3985   -2.4236    0.0000 H   0  0  0  0  0  0  0  0  0  0  0  0
    5.5292   -1.0793    0.0000 H   0  0  0  0  0  0  0  0  0  0  0  0
    6.6151   -2.3495    0.0000 H   0  0  0  0  0  0  0  0  0  0  0  0
    3.8774   -3.6728    0.0000 H   0  0  0  0  0  0  0  0  0  0  0  0
    4.5810    0.0783    0.0000 H   0  0  0  0  0  0  0  0  0  0  0  0
    4.1825   -0.6120    0.0000 H   0  0  0  0  0  0  0  0  0  0  0  0
    6.0576    0.4706    0.0000 H   0  0  0  0  0  0  0  0  0  0  0  0
    5.2606    0.4706    0.0000 H   0  0  0  0  0  0  0  0  0  0  0  0
    8.0838   -0.1034    0.0000 H   0  0  0  0  0  0  0  0  0  0  0  0
    5.8932   -3.6262    0.0000 H   0  0  0  0  0  0  0  0  0  0  0  0
    6.2843   -2.9303    0.0000 H   0  0  0  0  0  0  0  0  0  0  0  0
    7.2203   -2.3760    0.0000 H   0  0  0  0  0  0  0  0  0  0  0  0
    8.0087   -2.1183    0.0000 H   0  0  0  0  0  0  0  0  0  0  0  0
    4.3798   -4.0496    0.0000 H   0  0  0  0  0  0  0  0  0  0  0  0
    5.1781   -4.0465    0.0000 H   0  0  0  0  0  0  0  0  0  0  0  0
    8.5158   -1.4190    0.0000 H   0  0  0  0  0  0  0  0  0  0  0  0
    8.5158   -0.5896    0.0000 H   0  0  0  0  0  0  0  0  0  0  0  0
    3.3645   -0.9804    0.0000 H   0  0  0  0  0  0  0  0  0  0  0  0
    2.5663   -0.9650    0.0000 H   0  0  0  0  0  0  0  0  0  0  0  0
    2.5423   -4.0785    0.0000 H   0  0  0  0  0  0  0  0  0  0  0  0
    3.3406   -4.0754    0.0000 H   0  0  0  0  0  0  0  0  0  0  0  0
    7.1451    0.4957    0.0000 H   0  0  0  0  0  0  0  0  0  0  0  0
    6.5251    1.1157    0.0000 H   0  0  0  0  0  0  0  0  0  0  0  0
    5.9051    0.4957    0.0000 H   0  0  0  0  0  0  0  0  0  0  0  0
    4.5108   -1.0160    0.0000 H   0  0  0  0  0  0  0  0  0  0  0  0
    3.8956   -0.3912    0.0000 H   0  0  0  0  0  0  0  0  0  0  0  0
    3.2708   -1.0064    0.0000 H   0  0  0  0  0  0  0  0  0  0  0  0
    1.8038   -1.3898    0.0000 H   0  0  0  0  0  0  0  0  0  0  0  0
    1.3967   -2.0764    0.0000 H   0  0  0  0  0  0  0  0  0  0  0  0
    1.3900   -2.9492    0.0000 H   0  0  0  0  0  0  0  0  0  0  0  0
    1.7864   -3.6421    0.0000 H   0  0  0  0  0  0  0  0  0  0  0  0
    9.1746    0.4957    0.0000 H   0  0  0  0  0  0  0  0  0  0  0  0
    6.5075    1.3674    0.0000 H   0  0  0  0  0  0  0  0  0  0  0  0
    9.6779    2.0355    0.0000 H   0  0  0  0  0  0  0  0  0  0  0  0
  1 24  1  0  0  0  0
  1 26  1  0  0  0  0
  2 26  2  0  0  0  0
  3  4  1  0  0  0  0
  3  5  1  0  0  0  0
  3 12  1  0  0  0  0
  3 27  1  1  0  0  0
  4  7  1  0  0  0  0
  4  9  1  0  0  0  0
  4 28  1  6  0  0  0
  5  6  1  0  0  0  0
  5 13  1  0  0  0  0
  5 29  1  1  0  0  0
  6 10  1  0  0  0  0
  6 11  1  0  0  0  0
  6 18  1  1  0  0  0
  7  8  1  0  0  0  0
  7 16  1  0  0  0  0
  7 19  1  1  0  0  0
  8 14  1  0  0  0  0
  8 17  1  0  0  0  0
  8 30  1  0  0  0  0
  9 10  1  0  0  0  0
  9 31  1  0  0  0  0
  9 32  1  0  0  0  0
 10 33  1  0  0  0  0
 10 34  1  0  0  0  0
 11 15  1  0  0  0  0
 11 22  1  1  0  0  0
 11 35  1  0  0  0  0
 12 14  1  0  0  0  0
 12 36  1  0  0  0  0
 12 37  1  0  0  0  0
 13 15  1  0  0  0  0
 13 38  1  0  0  0  0
 13 39  1  0  0  0  0
 14 40  1  0  0  0  0
 14 41  1  0  0  0  0
 15 42  1  0  0  0  0
 15 43  1  0  0  0  0
 16 20  1  0  0  0  0
 16 44  1  0  0  0  0
 16 45  1  0  0  0  0
 17 21  1  0  0  0  0
 17 46  1  0  0  0  0
 17 47  1  0  0  0  0
 18 48  1  0  0  0  0
 18 49  1  0  0  0  0
 18 50  1  0  0  0  0
 19 51  1  0  0  0  0
 19 52  1  0  0  0  0
 19 53  1  0  0  0  0
 20 21  1  0  0  0  0
 20 54  1  0  0  0  0
 20 55  1  0  0  0  0
 21 56  1  0  0  0  0
 21 57  1  0  0  0  0
 22 23  1  0  0  0  0
 22 24  2  0  0  0  0
 23 25  2  0  0  0  0
 23 58  1  0  0  0  0
 24 59  1  0  0  0  0
 25 26  1  0  0  0  0
 25 60  1  0  0  0  0
M  END
> <PUBCHEM_COMPOUND_CID>
46173848

> <PUBCHEM_COMPOUND_CANONICALIZED>
1

> <PUBCHEM_CACTVS_COMPLEXITY>
661

> <PUBCHEM_CACTVS_HBOND_ACCEPTOR>
2

> <PUBCHEM_CACTVS_HBOND_DONOR>
0

> <PUBCHEM_CACTVS_ROTATABLE_BOND>
1

> <PUBCHEM_CACTVS_SUBSKEYS>
AAADcfB4MAAAAAAAAAAAAAAAAAAAAYAAAAAwYMEAAAAAAGDAAAAAGgAAAAAADwCggAICCAAABACIAiDSCAAACAAgIAAICAAAAEgIBAIAIQAAEAAAgAAIoYMAgMAPgAAAAAAAAACAAAQAACAAAQAACAAAAA==

> <PUBCHEM_IUPAC_OPENEYE_NAME>
5-[(8R,9S,10S,13S,14R,17S)-10,13-dimethyl-2,3,4,5,6,7,8,9,11,12,14,15,16,17-tetradecahydro-1H-cyclopenta[a]phenanthren-17-yl]pyran-2-one

> <PUBCHEM_IUPAC_CAS_NAME>
5-[(8R,9S,10S,13S,14R,17S)-10,13-dimethyl-2,3,4,5,6,7,8,9,11,12,14,15,16,17-tetradecahydro-1H-cyclopenta[a]phenanthren-17-yl]-2-pyranone

> <PUBCHEM_IUPAC_NAME>
5-[(8R,9S,10S,13S,14R,17S)-10,13-dimethyl-2,3,4,5,6,7,8,9,11,12,14,15,16,17-tetradecahydro-1H-cyclopenta[a]phenanthren-17-yl]pyran-2-one

> <PUBCHEM_IUPAC_SYSTEMATIC_NAME>
5-[(8R,9S,10S,13S,14R,17S)-10,13-dimethyl-2,3,4,5,6,7,8,9,11,12,14,15,16,17-tetradecahydro-1H-cyclopenta[a]phenanthren-17-yl]pyran-2-one

> <PUBCHEM_IUPAC_TRADITIONAL_NAME>
5-[(8R,9S,10S,13S,14R,17S)-10,13-dimethyl-2,3,4,5,6,7,8,9,11,12,14,15,16,17-tetradecahydro-1H-cyclopenta[a]phenanthren-17-yl]pyran-2-one

> <PUBCHEM_IUPAC_INCHI>
InChI=1S/C24H34O2/c1-23-13-4-3-5-17(23)7-8-18-20-10-9-19(16-6-11-22(25)26-15-16)24(20,2)14-12-21(18)23/h6,11,15,17-21H,3-5,7-10,12-14H2,1-2H3/t17?,18-,19+,20+,21-,23-,24+/m0/s1

> <PUBCHEM_IUPAC_INCHIKEY>
YBPMPRDOWHIVNA-XTBIJCDISA-N

> <PUBCHEM_XLOGP3_AA>
7.2

> <PUBCHEM_EXACT_MASS>
354.25588

> <PUBCHEM_MOLECULAR_FORMULA>
C24H34O2

> <PUBCHEM_MOLECULAR_WEIGHT>
354.52556

> <PUBCHEM_OPENEYE_CAN_SMILES>
CC12CCCCC1CCC3C2CCC4(C3CCC4C5=COC(=O)C=C5)C

> <PUBCHEM_OPENEYE_ISO_SMILES>
C[C@]12CC[C@H]3[C@H]([C@H]1CC[C@@H]2C4=COC(=O)C=C4)CCC5[C@@]3(CCCC5)C

> <PUBCHEM_CACTVS_TPSA>
26.3

> <PUBCHEM_MONOISOTOPIC_WEIGHT>
354.25588

> <PUBCHEM_TOTAL_CHARGE>
0

> <PUBCHEM_HEAVY_ATOM_COUNT>
26

> <PUBCHEM_ATOM_DEF_STEREO_COUNT>
6

> <PUBCHEM_ATOM_UDEF_STEREO_COUNT>
1

> <PUBCHEM_BOND_DEF_STEREO_COUNT>
0

> <PUBCHEM_BOND_UDEF_STEREO_COUNT>
0

> <PUBCHEM_ISOTOPIC_ATOM_COUNT>
0

> <PUBCHEM_COMPONENT_COUNT>
1

> <PUBCHEM_CACTVS_TAUTO_COUNT>
1

> <PUBCHEM_COORDINATE_TYPE>
1
5
255

> <PUBCHEM_BONDANNOTATIONS>
1  24  8
1  26  8
11  22  5
22  23  8
22  24  8
23  25  8
25  26  8
3  27  5
4  28  6
5  29  5
6  18  5
7  19  5
8  17  3

$$$$

