8372
  -OEChem-07051213042D

 75 76  0     0  0  0  0  0  0999 V2000
    2.8660    2.1550    0.0000 O   0  0  0  0  0  0  0  0  0  0  0  0
    6.3301   -3.8450    0.0000 O   0  0  0  0  0  0  0  0  0  0  0  0
    4.5981    3.1550    0.0000 C   0  0  0  0  0  0  0  0  0  0  0  0
    4.5981   -2.8450    0.0000 C   0  0  0  0  0  0  0  0  0  0  0  0
    2.8660    0.1550    0.0000 C   0  0  0  0  0  0  0  0  0  0  0  0
    8.0622   -2.8450    0.0000 C   0  0  0  0  0  0  0  0  0  0  0  0
    4.5981    2.1550    0.0000 C   0  0  0  0  0  0  0  0  0  0  0  0
    5.4641   -2.3450    0.0000 C   0  0  0  0  0  0  0  0  0  0  0  0
    3.7320    0.6550    0.0000 C   0  0  0  0  0  0  0  0  0  0  0  0
    7.1962   -2.3450    0.0000 C   0  0  0  0  0  0  0  0  0  0  0  0
    5.4641    0.6550    0.0000 C   0  0  0  0  0  0  0  0  0  0  0  0
    6.3301   -0.8450    0.0000 C   0  0  0  0  0  0  0  0  0  0  0  0
    6.3301    0.1550    0.0000 C   0  0  0  0  0  0  0  0  0  0  0  0
    3.7320    1.6550    0.0000 C   0  0  0  0  0  0  0  0  0  0  0  0
    6.3301   -2.8450    0.0000 C   0  0  0  0  0  0  0  0  0  0  0  0
    5.4641    1.6550    0.0000 C   0  0  0  0  0  0  0  0  0  0  0  0
    5.4641   -1.3450    0.0000 C   0  0  0  0  0  0  0  0  0  0  0  0
    4.5981    0.1550    0.0000 C   0  0  0  0  0  0  0  0  0  0  0  0
    7.1962   -1.3450    0.0000 C   0  0  0  0  0  0  0  0  0  0  0  0
    4.5981    4.1550    0.0000 C   0  0  0  0  0  0  0  0  0  0  0  0
    5.5981    3.1550    0.0000 C   0  0  0  0  0  0  0  0  0  0  0  0
    3.7320   -3.3450    0.0000 C   0  0  0  0  0  0  0  0  0  0  0  0
    5.0981   -3.7110    0.0000 C   0  0  0  0  0  0  0  0  0  0  0  0
    4.0981   -1.9790    0.0000 C   0  0  0  0  0  0  0  0  0  0  0  0
    3.5981    3.1550    0.0000 C   0  0  0  0  0  0  0  0  0  0  0  0
    2.0000   -0.3450    0.0000 C   0  0  0  0  0  0  0  0  0  0  0  0
    3.3660   -0.7110    0.0000 C   0  0  0  0  0  0  0  0  0  0  0  0
    2.3660    1.0210    0.0000 C   0  0  0  0  0  0  0  0  0  0  0  0
    8.9282   -3.3450    0.0000 C   0  0  0  0  0  0  0  0  0  0  0  0
    8.5622   -1.9790    0.0000 C   0  0  0  0  0  0  0  0  0  0  0  0
    7.5622   -3.7110    0.0000 C   0  0  0  0  0  0  0  0  0  0  0  0
    6.9407    0.0473    0.0000 H   0  0  0  0  0  0  0  0  0  0  0  0
    6.5422    0.7376    0.0000 H   0  0  0  0  0  0  0  0  0  0  0  0
    4.9272   -1.0350    0.0000 H   0  0  0  0  0  0  0  0  0  0  0  0
    6.0010    1.9650    0.0000 H   0  0  0  0  0  0  0  0  0  0  0  0
    7.7331   -1.0350    0.0000 H   0  0  0  0  0  0  0  0  0  0  0  0
    4.5981   -0.4650    0.0000 H   0  0  0  0  0  0  0  0  0  0  0  0
    5.5981    2.5350    0.0000 H   0  0  0  0  0  0  0  0  0  0  0  0
    6.2181    3.1550    0.0000 H   0  0  0  0  0  0  0  0  0  0  0  0
    5.5981    3.7750    0.0000 H   0  0  0  0  0  0  0  0  0  0  0  0
    5.2181    4.1550    0.0000 H   0  0  0  0  0  0  0  0  0  0  0  0
    4.5981    4.7750    0.0000 H   0  0  0  0  0  0  0  0  0  0  0  0
    3.9781    4.1550    0.0000 H   0  0  0  0  0  0  0  0  0  0  0  0
    3.4220   -2.8081    0.0000 H   0  0  0  0  0  0  0  0  0  0  0  0
    3.1951   -3.6550    0.0000 H   0  0  0  0  0  0  0  0  0  0  0  0
    4.0420   -3.8819    0.0000 H   0  0  0  0  0  0  0  0  0  0  0  0
    4.5611   -4.0210    0.0000 H   0  0  0  0  0  0  0  0  0  0  0  0
    5.4081   -4.2480    0.0000 H   0  0  0  0  0  0  0  0  0  0  0  0
    5.6350   -3.4010    0.0000 H   0  0  0  0  0  0  0  0  0  0  0  0
    4.6350   -1.6690    0.0000 H   0  0  0  0  0  0  0  0  0  0  0  0
    3.7881   -1.4420    0.0000 H   0  0  0  0  0  0  0  0  0  0  0  0
    3.5611   -2.2890    0.0000 H   0  0  0  0  0  0  0  0  0  0  0  0
    3.5981    3.7750    0.0000 H   0  0  0  0  0  0  0  0  0  0  0  0
    2.9781    3.1550    0.0000 H   0  0  0  0  0  0  0  0  0  0  0  0
    3.5981    2.5350    0.0000 H   0  0  0  0  0  0  0  0  0  0  0  0
    2.9030    1.3310    0.0000 H   0  0  0  0  0  0  0  0  0  0  0  0
    2.0560    1.5580    0.0000 H   0  0  0  0  0  0  0  0  0  0  0  0
    1.8291    0.7110    0.0000 H   0  0  0  0  0  0  0  0  0  0  0  0
    2.8291   -1.0210    0.0000 H   0  0  0  0  0  0  0  0  0  0  0  0
    3.6760   -1.2480    0.0000 H   0  0  0  0  0  0  0  0  0  0  0  0
    3.9030   -0.4010    0.0000 H   0  0  0  0  0  0  0  0  0  0  0  0
    1.6900    0.1919    0.0000 H   0  0  0  0  0  0  0  0  0  0  0  0
    1.4631   -0.6550    0.0000 H   0  0  0  0  0  0  0  0  0  0  0  0
    2.3100   -0.8819    0.0000 H   0  0  0  0  0  0  0  0  0  0  0  0
    8.6182   -3.8819    0.0000 H   0  0  0  0  0  0  0  0  0  0  0  0
    9.4651   -3.6550    0.0000 H   0  0  0  0  0  0  0  0  0  0  0  0
    9.2382   -2.8081    0.0000 H   0  0  0  0  0  0  0  0  0  0  0  0
    9.0991   -2.2890    0.0000 H   0  0  0  0  0  0  0  0  0  0  0  0
    8.8722   -1.4420    0.0000 H   0  0  0  0  0  0  0  0  0  0  0  0
    8.0252   -1.6690    0.0000 H   0  0  0  0  0  0  0  0  0  0  0  0
    7.0252   -3.4010    0.0000 H   0  0  0  0  0  0  0  0  0  0  0  0
    7.2522   -4.2480    0.0000 H   0  0  0  0  0  0  0  0  0  0  0  0
    8.0991   -4.0210    0.0000 H   0  0  0  0  0  0  0  0  0  0  0  0
    2.8660    2.7750    0.0000 H   0  0  0  0  0  0  0  0  0  0  0  0
    6.8671   -4.1550    0.0000 H   0  0  0  0  0  0  0  0  0  0  0  0
  1 14  1  0  0  0  0
  1 74  1  0  0  0  0
  2 15  1  0  0  0  0
  2 75  1  0  0  0  0
  3  7  1  0  0  0  0
  3 20  1  0  0  0  0
  3 21  1  0  0  0  0
  3 25  1  0  0  0  0
  4  8  1  0  0  0  0
  4 22  1  0  0  0  0
  4 23  1  0  0  0  0
  4 24  1  0  0  0  0
  5  9  1  0  0  0  0
  5 26  1  0  0  0  0
  5 27  1  0  0  0  0
  5 28  1  0  0  0  0
  6 10  1  0  0  0  0
  6 29  1  0  0  0  0
  6 30  1  0  0  0  0
  6 31  1  0  0  0  0
  7 14  2  0  0  0  0
  7 16  1  0  0  0  0
  8 15  2  0  0  0  0
  8 17  1  0  0  0  0
  9 14  1  0  0  0  0
  9 18  2  0  0  0  0
 10 15  1  0  0  0  0
 10 19  2  0  0  0  0
 11 13  1  0  0  0  0
 11 16  2  0  0  0  0
 11 18  1  0  0  0  0
 12 13  1  0  0  0  0
 12 17  2  0  0  0  0
 12 19  1  0  0  0  0
 13 32  1  0  0  0  0
 13 33  1  0  0  0  0
 16 35  1  0  0  0  0
 17 34  1  0  0  0  0
 18 37  1  0  0  0  0
 19 36  1  0  0  0  0
 20 41  1  0  0  0  0
 20 42  1  0  0  0  0
 20 43  1  0  0  0  0
 21 38  1  0  0  0  0
 21 39  1  0  0  0  0
 21 40  1  0  0  0  0
 22 44  1  0  0  0  0
 22 45  1  0  0  0  0
 22 46  1  0  0  0  0
 23 47  1  0  0  0  0
 23 48  1  0  0  0  0
 23 49  1  0  0  0  0
 24 50  1  0  0  0  0
 24 51  1  0  0  0  0
 24 52  1  0  0  0  0
 25 53  1  0  0  0  0
 25 54  1  0  0  0  0
 25 55  1  0  0  0  0
 26 62  1  0  0  0  0
 26 63  1  0  0  0  0
 26 64  1  0  0  0  0
 27 59  1  0  0  0  0
 27 60  1  0  0  0  0
 27 61  1  0  0  0  0
 28 56  1  0  0  0  0
 28 57  1  0  0  0  0
 28 58  1  0  0  0  0
 29 65  1  0  0  0  0
 29 66  1  0  0  0  0
 29 67  1  0  0  0  0
 30 68  1  0  0  0  0
 30 69  1  0  0  0  0
 30 70  1  0  0  0  0
 31 71  1  0  0  0  0
 31 72  1  0  0  0  0
 31 73  1  0  0  0  0
M  END
> <PUBCHEM_COMPOUND_CID>
8372

> <PUBCHEM_COMPOUND_CANONICALIZED>
1

> <PUBCHEM_CACTVS_COMPLEXITY>
480

> <PUBCHEM_CACTVS_HBOND_ACCEPTOR>
2

> <PUBCHEM_CACTVS_HBOND_DONOR>
2

> <PUBCHEM_CACTVS_ROTATABLE_BOND>
6

> <PUBCHEM_CACTVS_SUBSKEYS>
AAADcfB4MAAAAAAAAAAAAAAAAAAAAAAAAAAwYAAAAAAAAAABQAAAGgAACAAADgSAmAAyBoAAAgCAAiBCAAACAAAgIAAAiAAECIgIJiKCERKAcAAkwBEImAeAwOAPoAACAAAIAABAAAQAABAAAAAAAAAAAA==

> <PUBCHEM_IUPAC_OPENEYE_NAME>
2,6-ditert-butyl-4-[(3,5-ditert-butyl-4-hydroxy-phenyl)methyl]phenol

> <PUBCHEM_IUPAC_CAS_NAME>
2,6-ditert-butyl-4-[(3,5-ditert-butyl-4-hydroxyphenyl)methyl]phenol

> <PUBCHEM_IUPAC_NAME>
2,6-ditert-butyl-4-[(3,5-ditert-butyl-4-hydroxyphenyl)methyl]phenol

> <PUBCHEM_IUPAC_SYSTEMATIC_NAME>
2,6-ditert-butyl-4-[(3,5-ditert-butyl-4-oxidanyl-phenyl)methyl]phenol

> <PUBCHEM_IUPAC_TRADITIONAL_NAME>
2,6-ditert-butyl-4-(3,5-ditert-butyl-4-hydroxy-benzyl)phenol

> <PUBCHEM_IUPAC_INCHI>
InChI=1S/C29H44O2/c1-26(2,3)20-14-18(15-21(24(20)30)27(4,5)6)13-19-16-22(28(7,8)9)25(31)23(17-19)29(10,11)12/h14-17,30-31H,13H2,1-12H3

> <PUBCHEM_IUPAC_INCHIKEY>
MDWVSAYEQPLWMX-UHFFFAOYSA-N

> <PUBCHEM_XLOGP3_AA>
9.8

> <PUBCHEM_EXACT_MASS>
424.334131

> <PUBCHEM_MOLECULAR_FORMULA>
C29H44O2

> <PUBCHEM_MOLECULAR_WEIGHT>
424.65846

> <PUBCHEM_OPENEYE_CAN_SMILES>
CC(C)(C)C1=CC(=CC(=C1O)C(C)(C)C)CC2=CC(=C(C(=C2)C(C)(C)C)O)C(C)(C)C

> <PUBCHEM_OPENEYE_ISO_SMILES>
CC(C)(C)C1=CC(=CC(=C1O)C(C)(C)C)CC2=CC(=C(C(=C2)C(C)(C)C)O)C(C)(C)C

> <PUBCHEM_CACTVS_TPSA>
40.5

> <PUBCHEM_MONOISOTOPIC_WEIGHT>
424.334131

> <PUBCHEM_TOTAL_CHARGE>
0

> <PUBCHEM_HEAVY_ATOM_COUNT>
31

> <PUBCHEM_ATOM_DEF_STEREO_COUNT>
0

> <PUBCHEM_ATOM_UDEF_STEREO_COUNT>
0

> <PUBCHEM_BOND_DEF_STEREO_COUNT>
0

> <PUBCHEM_BOND_UDEF_STEREO_COUNT>
0

> <PUBCHEM_ISOTOPIC_ATOM_COUNT>
0

> <PUBCHEM_COMPONENT_COUNT>
1

> <PUBCHEM_CACTVS_TAUTO_COUNT>
3

> <PUBCHEM_COORDINATE_TYPE>
1
5
255

> <PUBCHEM_BONDANNOTATIONS>
10  15  8
10  19  8
11  16  8
11  18  8
12  17  8
12  19  8
7  14  8
7  16  8
8  15  8
8  17  8
9  14  8
9  18  8

$$$$

