   Color/Form

     * WHITE TO SLIGHTLY RED CRYSTALS
     * WHITE PLATES FROM BENZENE, ETHER

   from [1]HSDB

   Boiling Point
        267 DEG C
   from [2]HSDB

   Melting Point
        145-147 DEG C
   from [3]HSDB

   Density/Specific Gravity
        Greater than 1 (water= 1)
   from [4]HSDB

   Dissociation Constants
        The pKa value of the conjugate acid is 6.2.
   from [5]HSDB

   Octanol/Water Partition Coefficient
        log Kow= -0.25
   from [6]HSDB

   Solubilities

     * SOL IN 100 PARTS COLD WATER; SOL IN ALCOHOL, CHLOROFORM, ETHER
     * SOL IN HOT BENZENE
     * Water solubility= 38,000 ppm

   from [7]HSDB

   Spectral Properties

     * MAX ABSORPTION (CYCLOHEXANE): 246 NM (LOG E= 3.93), 315 NM (LOG E=
       3.30); SADTLER REFERENCE NUMBER: 4111 (IR, PRISM); 1187 (UV)
     * IR: 8322 (Sadtler Research Laboratories IR Grating Collection)
     * UV: 6-80 (Organic Electronic Spectral Data, Phillips et al, John
       Wiley & Sons, New York)
     * MASS: 45 (Aldermaston, Eight Peak Index of Mass Spectra, UK)

   from [8]HSDB

   Vapor Density
        3.72 (AIR= 1)
   from [9]HSDB

   Vapor Pressure
        <1 mm Hg at 21 deg C (technical product)
   from [10]HSDB

   Other Chemical/Physical Properties
        BLACK COLOR DEVELOPED WITH 3% HYDROGEN PEROXIDE, BROWN WITH 5%
   IRON CHLORIDE SOLN, DARKENS ON EXPOSURE TO AIR.
   from [11]HSDB

   Computed Properties
   Molecular Weight                  108.14112 [g/mol]
   Molecular Formula                 C[6]H[8]N[2]
   XLogP3                            -0.3
   H-Bond Donor                      2
   H-Bond Acceptor                   2
   Rotatable Bond Count              0
   Exact Mass                        108.068748
   MonoIsotopic Mass                 108.068748
   Topological Polar Surface Area    52
   Heavy Atom Count                  8
   Formal Charge                     0
   Complexity                        54.9
   Isotope Atom Count                0
   Defined Atom Stereocenter Count   0
   Undefined Atom Stereocenter Count 0
   Defined Bond Stereocenter Count   0
   Undefined Bond Stereocenter Count 0
   Covalently-Bonded Unit Count      1
   Feature 3D Donor Count            2
   Feature 3D Cation Count           2
   Feature 3D Ring Count             1
   Effective Rotor Count             0
   Conformer Sampling RMSD           0.4
   CID Conformer Count               [12]1

References

   1. http://toxnet.nlm.nih.gov/cgi-bin/sis/search/r?dbs+hsdb:@term+@rn+@rel+106-50-3
   2. http://toxnet.nlm.nih.gov/cgi-bin/sis/search/r?dbs+hsdb:@term+@rn+@rel+106-50-3
   3. http://toxnet.nlm.nih.gov/cgi-bin/sis/search/r?dbs+hsdb:@term+@rn+@rel+106-50-3
   4. http://toxnet.nlm.nih.gov/cgi-bin/sis/search/r?dbs+hsdb:@term+@rn+@rel+106-50-3
   5. http://toxnet.nlm.nih.gov/cgi-bin/sis/search/r?dbs+hsdb:@term+@rn+@rel+106-50-3
   6. http://toxnet.nlm.nih.gov/cgi-bin/sis/search/r?dbs+hsdb:@term+@rn+@rel+106-50-3
   7. http://toxnet.nlm.nih.gov/cgi-bin/sis/search/r?dbs+hsdb:@term+@rn+@rel+106-50-3
   8. http://toxnet.nlm.nih.gov/cgi-bin/sis/search/r?dbs+hsdb:@term+@rn+@rel+106-50-3
   9. http://toxnet.nlm.nih.gov/cgi-bin/sis/search/r?dbs+hsdb:@term+@rn+@rel+106-50-3
  10. http://toxnet.nlm.nih.gov/cgi-bin/sis/search/r?dbs+hsdb:@term+@rn+@rel+106-50-3
  11. http://toxnet.nlm.nih.gov/cgi-bin/sis/search/r?dbs+hsdb:@term+@rn+@rel+106-50-3
  12. http://pubchem.ncbi.nlm.nih.gov/vw3d/vw3d.cgi?cid=7814
