   Color/Form
        Crystals
   from [1]HSDB

   Melting Point
        297 deg C
   from [2]HSDB

   Dissociation Constants
        pKa1 = 3.72 (secondary amine); pKa2 = 7.31 (secondary amine)
   from [3]HSDB

   Octanol/Water Partition Coefficient
        log Kow = 1.98
   from [4]HSDB

   Solubilities
        In water, 8.9 mg/L at 25 deg C (est)
   from [5]HSDB

   Vapor Pressure
        9.9X10-10 mm Hg at 25 deg C (est)
   from [6]HSDB

   Other Chemical/Physical Properties
        Henry's Law constant = 3.9X10-13 atm-cu m/mol at 25 deg C (est)
   from [7]HSDB

   Computed Properties
   Molecular Weight                  212.25048 [g/mol]
   Molecular Formula                 C[12]H[12]N[4]
   XLogP3                            2
   H-Bond Donor                      1
   H-Bond Acceptor                   3
   Rotatable Bond Count              0
   Tautomer Count                    8
   Exact Mass                        212.106196
   MonoIsotopic Mass                 212.106196
   Topological Polar Surface Area    56.7
   Heavy Atom Count                  16
   Formal Charge                     0
   Complexity                        270
   Isotope Atom Count                0
   Defined Atom Stereocenter Count   0
   Undefined Atom Stereocenter Count 0
   Defined Bond Stereocenter Count   0
   Undefined Bond Stereocenter Count 0
   Covalently-Bonded Unit Count      1
   Feature 3D Acceptor Count         1
   Feature 3D Donor Count            1
   Feature 3D Cation Count           1
   Feature 3D Ring Count             3
   Effective Rotor Count             0
   Conformer Sampling RMSD           0.4
   CID Conformer Count               [8]1

References

   1. http://toxnet.nlm.nih.gov/cgi-bin/sis/search/r?dbs+hsdb:@term+@rn+@rel+77094-11-2
   2. http://toxnet.nlm.nih.gov/cgi-bin/sis/search/r?dbs+hsdb:@term+@rn+@rel+77094-11-2
   3. http://toxnet.nlm.nih.gov/cgi-bin/sis/search/r?dbs+hsdb:@term+@rn+@rel+77094-11-2
   4. http://toxnet.nlm.nih.gov/cgi-bin/sis/search/r?dbs+hsdb:@term+@rn+@rel+77094-11-2
   5. http://toxnet.nlm.nih.gov/cgi-bin/sis/search/r?dbs+hsdb:@term+@rn+@rel+77094-11-2
   6. http://toxnet.nlm.nih.gov/cgi-bin/sis/search/r?dbs+hsdb:@term+@rn+@rel+77094-11-2
   7. http://toxnet.nlm.nih.gov/cgi-bin/sis/search/r?dbs+hsdb:@term+@rn+@rel+77094-11-2
   8. http://pubchem.ncbi.nlm.nih.gov/vw3d/vw3d.cgi?cid=62274
