46174005
  -OEChem-07051213112D

116123  0     1  0  0  0  0  0999 V2000
    5.5954   -5.4968    0.0000 O   0  0  0  0  0  0  0  0  0  0  0  0
    7.9875   -5.4781    0.0000 O   0  0  0  0  0  0  0  0  0  0  0  0
    3.9300   -4.4156    0.0000 O   0  0  0  0  0  0  0  0  0  0  0  0
    5.4454   -6.5844    0.0000 O   0  0  0  0  0  0  0  0  0  0  0  0
   12.0027   -0.1176    0.0000 O   0  0  0  0  0  0  0  0  0  0  0  0
   12.8630    1.3857    0.0000 O   0  0  0  0  0  0  0  0  0  0  0  0
   10.2668    0.8757    0.0000 O   0  0  0  0  0  0  0  0  0  0  0  0
   10.2591    2.8757    0.0000 O   0  0  0  0  0  0  0  0  0  0  0  0
   11.9873    3.8824    0.0000 O   0  0  0  0  0  0  0  0  0  0  0  0
   14.5912    2.3924    0.0000 O   0  0  0  0  0  0  0  0  0  0  0  0
   13.7194    3.8890    0.0000 O   0  0  0  0  0  0  0  0  0  0  0  0
   11.9796    5.8824    0.0000 O   0  0  0  0  0  0  0  0  0  0  0  0
   13.7078    6.8890    0.0000 O   0  0  0  0  0  0  0  0  0  0  0  0
   15.4437    5.8957    0.0000 O   0  0  0  0  0  0  0  0  0  0  0  0
   15.4552    2.8957    0.0000 O   0  0  0  0  0  0  0  0  0  0  0  0
    6.6628   -3.2620    0.0000 C   0  0  3  0  0  0  0  0  0  0  0  0
    7.5288   -3.7620    0.0000 C   0  0  3  0  0  0  0  0  0  0  0  0
    5.9258   -3.9291    0.0000 C   0  0  3  0  0  0  0  0  0  0  0  0
    8.3948   -3.2620    0.0000 C   0  0  3  0  0  0  0  0  0  0  0  0
    6.3309   -4.8369    0.0000 C   0  0  3  0  0  0  0  0  0  0  0  0
    7.3196   -4.7338    0.0000 C   0  0  3  0  0  0  0  0  0  0  0  0
    8.3948   -2.2620    0.0000 C   0  0  3  0  0  0  0  0  0  0  0  0
    6.6628   -2.2620    0.0000 C   0  0  0  0  0  0  0  0  0  0  0  0
    4.9434   -4.0358    0.0000 C   0  0  3  0  0  0  0  0  0  0  0  0
    7.5288   -1.7620    0.0000 C   0  0  0  0  0  0  0  0  0  0  0  0
    9.2888   -1.7273    0.0000 C   0  0  3  0  0  0  0  0  0  0  0  0
    4.7396   -5.0027    0.0000 C   0  0  3  0  0  0  0  0  0  0  0  0
    5.7968   -2.7620    0.0000 C   0  0  0  0  0  0  0  0  0  0  0  0
    9.2888   -3.7966    0.0000 C   0  0  0  0  0  0  0  0  0  0  0  0
   10.1949   -2.2412    0.0000 C   0  0  0  0  0  0  0  0  0  0  0  0
    9.2637   -0.6426    0.0000 C   0  0  0  0  0  0  0  0  0  0  0  0
    4.6359   -5.9973    0.0000 C   0  0  3  0  0  0  0  0  0  0  0  0
    4.2723   -3.2944    0.0000 C   0  0  0  0  0  0  0  0  0  0  0  0
   10.1949   -3.2828    0.0000 C   0  0  0  0  0  0  0  0  0  0  0  0
    8.4189   -1.2340    0.0000 C   0  0  0  0  0  0  0  0  0  0  0  0
   11.1386   -1.7059    0.0000 C   0  0  0  0  0  0  0  0  0  0  0  0
   10.1949   -0.0857    0.0000 C   0  0  0  0  0  0  0  0  0  0  0  0
    3.7227   -6.4049    0.0000 C   0  0  0  0  0  0  0  0  0  0  0  0
   11.1386   -0.6209    0.0000 C   0  0  3  0  0  0  0  0  0  0  0  0
    2.9132   -5.8178    0.0000 C   0  0  3  0  0  0  0  0  0  0  0  0
    3.0169   -4.8232    0.0000 C   0  0  0  0  0  0  0  0  0  0  0  0
    2.0000   -6.2253    0.0000 C   0  0  0  0  0  0  0  0  0  0  0  0
   11.9989    0.8824    0.0000 C   0  0  3  0  0  0  0  0  0  0  0  0
   11.1309    1.3790    0.0000 C   0  0  3  0  0  0  0  0  0  0  0  0
   11.1271    2.3790    0.0000 C   0  0  3  0  0  0  0  0  0  0  0  0
   12.8591    2.3857    0.0000 C   0  0  3  0  0  0  0  0  0  0  0  0
   11.9912    2.8824    0.0000 C   0  0  3  0  0  0  0  0  0  0  0  0
   13.7232    2.8890    0.0000 C   0  0  0  0  0  0  0  0  0  0  0  0
   12.8514    4.3857    0.0000 C   0  0  3  0  0  0  0  0  0  0  0  0
   12.8476    5.3857    0.0000 C   0  0  3  0  0  0  0  0  0  0  0  0
   13.7116    5.8890    0.0000 C   0  0  3  0  0  0  0  0  0  0  0  0
   14.5834    4.3924    0.0000 C   0  0  3  0  0  0  0  0  0  0  0  0
   14.5796    5.3924    0.0000 C   0  0  3  0  0  0  0  0  0  0  0  0
   15.4514    3.8957    0.0000 C   0  0  0  0  0  0  0  0  0  0  0  0
    8.0299   -4.1271    0.0000 H   0  0  0  0  0  0  0  0  0  0  0  0
    5.6719   -3.3634    0.0000 H   0  0  0  0  0  0  0  0  0  0  0  0
    8.3901   -3.8820    0.0000 H   0  0  0  0  0  0  0  0  0  0  0  0
    6.5823   -5.4036    0.0000 H   0  0  0  0  0  0  0  0  0  0  0  0
    7.9188   -4.5746    0.0000 H   0  0  0  0  0  0  0  0  0  0  0  0
    8.3901   -1.6420    0.0000 H   0  0  0  0  0  0  0  0  0  0  0  0
    6.4507   -1.6794    0.0000 H   0  0  0  0  0  0  0  0  0  0  0  0
    6.0522   -2.3696    0.0000 H   0  0  0  0  0  0  0  0  0  0  0  0
    4.3448   -4.1975    0.0000 H   0  0  0  0  0  0  0  0  0  0  0  0
    7.9274   -1.2870    0.0000 H   0  0  0  0  0  0  0  0  0  0  0  0
    7.1303   -1.2870    0.0000 H   0  0  0  0  0  0  0  0  0  0  0  0
    6.1068   -2.2251    0.0000 H   0  0  0  0  0  0  0  0  0  0  0  0
    5.2598   -2.4520    0.0000 H   0  0  0  0  0  0  0  0  0  0  0  0
    5.4868   -3.2989    0.0000 H   0  0  0  0  0  0  0  0  0  0  0  0
    8.8842   -4.2664    0.0000 H   0  0  0  0  0  0  0  0  0  0  0  0
    9.6824   -4.2757    0.0000 H   0  0  0  0  0  0  0  0  0  0  0  0
    9.0412   -0.0639    0.0000 H   0  0  0  0  0  0  0  0  0  0  0  0
    8.6555   -0.7628    0.0000 H   0  0  0  0  0  0  0  0  0  0  0  0
    4.5716   -6.6140    0.0000 H   0  0  0  0  0  0  0  0  0  0  0  0
    4.7320   -2.8783    0.0000 H   0  0  0  0  0  0  0  0  0  0  0  0
    3.8562   -2.8347    0.0000 H   0  0  0  0  0  0  0  0  0  0  0  0
    3.8126   -3.7104    0.0000 H   0  0  0  0  0  0  0  0  0  0  0  0
   10.7306   -3.5949    0.0000 H   0  0  0  0  0  0  0  0  0  0  0  0
    8.7248   -0.6947    0.0000 H   0  0  0  0  0  0  0  0  0  0  0  0
    7.8796   -0.9282    0.0000 H   0  0  0  0  0  0  0  0  0  0  0  0
    8.1131   -1.7733    0.0000 H   0  0  0  0  0  0  0  0  0  0  0  0
    7.7948   -6.0674    0.0000 H   0  0  0  0  0  0  0  0  0  0  0  0
   11.3477   -2.2896    0.0000 H   0  0  0  0  0  0  0  0  0  0  0  0
   11.7495   -1.5998    0.0000 H   0  0  0  0  0  0  0  0  0  0  0  0
   10.5885    0.3933    0.0000 H   0  0  0  0  0  0  0  0  0  0  0  0
    9.7903    0.3841    0.0000 H   0  0  0  0  0  0  0  0  0  0  0  0
    3.2771   -6.8359    0.0000 H   0  0  0  0  0  0  0  0  0  0  0  0
    4.0699   -6.9186    0.0000 H   0  0  0  0  0  0  0  0  0  0  0  0
   11.1351   -0.0010    0.0000 H   0  0  0  0  0  0  0  0  0  0  0  0
    2.8489   -6.4344    0.0000 H   0  0  0  0  0  0  0  0  0  0  0  0
    2.8664   -4.2217    0.0000 H   0  0  0  0  0  0  0  0  0  0  0  0
    2.3984   -4.8670    0.0000 H   0  0  0  0  0  0  0  0  0  0  0  0
    5.3812   -7.2011    0.0000 H   0  0  0  0  0  0  0  0  0  0  0  0
    1.7473   -5.6591    0.0000 H   0  0  0  0  0  0  0  0  0  0  0  0
    1.4338   -6.4780    0.0000 H   0  0  0  0  0  0  0  0  0  0  0  0
    2.2527   -6.7915    0.0000 H   0  0  0  0  0  0  0  0  0  0  0  0
   11.4631    0.5703    0.0000 H   0  0  0  0  0  0  0  0  0  0  0  0
   10.5928    1.6870    0.0000 H   0  0  0  0  0  0  0  0  0  0  0  0
   11.1247    2.9990    0.0000 H   0  0  0  0  0  0  0  0  0  0  0  0
   13.3972    2.0778    0.0000 H   0  0  0  0  0  0  0  0  0  0  0  0
   11.4530    3.1903    0.0000 H   0  0  0  0  0  0  0  0  0  0  0  0
    9.7287    1.1836    0.0000 H   0  0  0  0  0  0  0  0  0  0  0  0
   14.1199    3.3655    0.0000 H   0  0  0  0  0  0  0  0  0  0  0  0
   13.3229    3.3624    0.0000 H   0  0  0  0  0  0  0  0  0  0  0  0
   10.2567    3.4957    0.0000 H   0  0  0  0  0  0  0  0  0  0  0  0
   12.8538    3.7657    0.0000 H   0  0  0  0  0  0  0  0  0  0  0  0
   14.5935    1.7724    0.0000 H   0  0  0  0  0  0  0  0  0  0  0  0
   12.8452    6.0057    0.0000 H   0  0  0  0  0  0  0  0  0  0  0  0
   14.2474    6.2011    0.0000 H   0  0  0  0  0  0  0  0  0  0  0  0
   14.5858    3.7724    0.0000 H   0  0  0  0  0  0  0  0  0  0  0  0
   14.5772    6.0124    0.0000 H   0  0  0  0  0  0  0  0  0  0  0  0
   11.9772    6.5023    0.0000 H   0  0  0  0  0  0  0  0  0  0  0  0
   16.0624    3.7904    0.0000 H   0  0  0  0  0  0  0  0  0  0  0  0
   15.6612    4.4791    0.0000 H   0  0  0  0  0  0  0  0  0  0  0  0
   14.2435    7.2011    0.0000 H   0  0  0  0  0  0  0  0  0  0  0  0
   15.9818    5.5878    0.0000 H   0  0  0  0  0  0  0  0  0  0  0  0
   15.9934    2.5878    0.0000 H   0  0  0  0  0  0  0  0  0  0  0  0
  1 20  1  0  0  0  0
  1 27  1  0  0  0  0
  2 21  1  0  0  0  0
  2 81  1  0  0  0  0
  3 27  1  0  0  0  0
  3 41  1  0  0  0  0
  4 32  1  0  0  0  0
  4 92  1  0  0  0  0
  5 39  1  0  0  0  0
  5 43  1  0  0  0  0
  6 43  1  0  0  0  0
  6 46  1  0  0  0  0
  7 44  1  0  0  0  0
  7101  1  0  0  0  0
  8 45  1  0  0  0  0
  8104  1  0  0  0  0
  9 47  1  0  0  0  0
  9 49  1  0  0  0  0
 10 48  1  0  0  0  0
 10106  1  0  0  0  0
 11 49  1  0  0  0  0
 11 52  1  0  0  0  0
 12 50  1  0  0  0  0
 12111  1  0  0  0  0
 13 51  1  0  0  0  0
 13114  1  0  0  0  0
 14 53  1  0  0  0  0
 14115  1  0  0  0  0
 15 54  1  0  0  0  0
 15116  1  0  0  0  0
 16 17  1  0  0  0  0
 16 18  1  0  0  0  0
 16 23  1  0  0  0  0
 16 28  1  0  0  0  0
 17 19  1  0  0  0  0
 17 21  1  0  0  0  0
 17 55  1  0  0  0  0
 18 20  1  0  0  0  0
 18 24  1  0  0  0  0
 18 56  1  0  0  0  0
 19 22  1  0  0  0  0
 19 29  1  0  0  0  0
 19 57  1  0  0  0  0
 20 21  1  0  0  0  0
 20 58  1  0  0  0  0
 21 59  1  0  0  0  0
 22 25  1  0  0  0  0
 22 26  1  0  0  0  0
 22 60  1  0  0  0  0
 23 25  1  0  0  0  0
 23 61  1  0  0  0  0
 23 62  1  0  0  0  0
 24 27  1  0  0  0  0
 24 33  1  0  0  0  0
 24 63  1  0  0  0  0
 25 64  1  0  0  0  0
 25 65  1  0  0  0  0
 26 30  1  0  0  0  0
 26 31  1  0  0  0  0
 26 35  1  0  0  0  0
 27 32  1  0  0  0  0
 28 66  1  0  0  0  0
 28 67  1  0  0  0  0
 28 68  1  0  0  0  0
 29 34  1  0  0  0  0
 29 69  1  0  0  0  0
 29 70  1  0  0  0  0
 30 34  2  0  0  0  0
 30 36  1  0  0  0  0
 31 37  1  0  0  0  0
 31 71  1  0  0  0  0
 31 72  1  0  0  0  0
 32 38  1  0  0  0  0
 32 73  1  0  0  0  0
 33 74  1  0  0  0  0
 33 75  1  0  0  0  0
 33 76  1  0  0  0  0
 34 77  1  0  0  0  0
 35 78  1  0  0  0  0
 35 79  1  0  0  0  0
 35 80  1  0  0  0  0
 36 39  1  0  0  0  0
 36 82  1  0  0  0  0
 36 83  1  0  0  0  0
 37 39  1  0  0  0  0
 37 84  1  0  0  0  0
 37 85  1  0  0  0  0
 38 40  1  0  0  0  0
 38 86  1  0  0  0  0
 38 87  1  0  0  0  0
 39 88  1  0  0  0  0
 40 41  1  0  0  0  0
 40 42  1  0  0  0  0
 40 89  1  0  0  0  0
 41 90  1  0  0  0  0
 41 91  1  0  0  0  0
 42 93  1  0  0  0  0
 42 94  1  0  0  0  0
 42 95  1  0  0  0  0
 43 44  1  0  0  0  0
 43 96  1  0  0  0  0
 44 45  1  0  0  0  0
 44 97  1  0  0  0  0
 45 47  1  0  0  0  0
 45 98  1  0  0  0  0
 46 47  1  0  0  0  0
 46 48  1  0  0  0  0
 46 99  1  0  0  0  0
 47100  1  0  0  0  0
 48102  1  0  0  0  0
 48103  1  0  0  0  0
 49 50  1  0  0  0  0
 49105  1  0  0  0  0
 50 51  1  0  0  0  0
 50107  1  0  0  0  0
 51 53  1  0  0  0  0
 51108  1  0  0  0  0
 52 53  1  0  0  0  0
 52 54  1  0  0  0  0
 52109  1  0  0  0  0
 53110  1  0  0  0  0
 54112  1  0  0  0  0
 54113  1  0  0  0  0
M  END
> <PUBCHEM_COMPOUND_CID>
46174005

> <PUBCHEM_COMPOUND_CANONICALIZED>
1

> <PUBCHEM_CACTVS_COMPLEXITY>
1400

> <PUBCHEM_CACTVS_HBOND_ACCEPTOR>
15

> <PUBCHEM_CACTVS_HBOND_DONOR>
9

> <PUBCHEM_CACTVS_ROTATABLE_BOND>
6

> <PUBCHEM_CACTVS_SUBSKEYS>
AAADcfB8PAAAAAAAAAAAAAAAAAAAAaIAAAA0aJECAAASAGCAAAAAGgAACAAADxSwgAMCCAAABgCAAiBCAAAAAAAgAAAACAAAAAgREAIAAQAiQAAFwAAPAAPA4PwPgAAAAAAAAADAAAQAACAAAYAADCAAAA==

> <PUBCHEM_IUPAC_INCHI>
InChI=1S/C39H62O15/c1-16-11-24(42)39(49-15-16)17(2)25-34(54-39)28(44)26-20-6-5-18-12-19(7-9-37(18,3)21(20)8-10-38(25,26)4)50-35-32(48)30(46)33(23(14-41)52-35)53-36-31(47)29(45)27(43)22(13-40)51-36/h5,16-17,19-36,40-48H,6-15H2,1-4H3

> <PUBCHEM_IUPAC_INCHIKEY>
JIVFLIFXUQEQBB-UHFFFAOYSA-N

> <PUBCHEM_XLOGP3_AA>
0

> <PUBCHEM_EXACT_MASS>
770.408871

> <PUBCHEM_MOLECULAR_FORMULA>
C39H62O15

> <PUBCHEM_MOLECULAR_WEIGHT>
770.90058

> <PUBCHEM_OPENEYE_CAN_SMILES>
CC1CC(C2(C(C3C(O2)C(C4C3(CCC5C4CC=C6C5(CCC(C6)OC7C(C(C(C(O7)CO)OC8C(C(C(C(O8)CO)O)O)O)O)O)C)C)O)C)OC1)O

> <PUBCHEM_OPENEYE_ISO_SMILES>
CC1CC(C2(C(C3C(O2)C(C4C3(CCC5C4CC=C6C5(CCC(C6)OC7C(C(C(C(O7)CO)OC8C(C(C(C(O8)CO)O)O)O)O)O)C)C)O)C)OC1)O

> <PUBCHEM_CACTVS_TPSA>
237

> <PUBCHEM_MONOISOTOPIC_WEIGHT>
770.408871

> <PUBCHEM_TOTAL_CHARGE>
0

> <PUBCHEM_HEAVY_ATOM_COUNT>
54

> <PUBCHEM_ATOM_DEF_STEREO_COUNT>
0

> <PUBCHEM_ATOM_UDEF_STEREO_COUNT>
23

> <PUBCHEM_BOND_DEF_STEREO_COUNT>
0

> <PUBCHEM_BOND_UDEF_STEREO_COUNT>
0

> <PUBCHEM_ISOTOPIC_ATOM_COUNT>
0

> <PUBCHEM_COMPONENT_COUNT>
1

> <PUBCHEM_CACTVS_TAUTO_COUNT>
1

> <PUBCHEM_COORDINATE_TYPE>
1
5
255

> <PUBCHEM_BONDANNOTATIONS>
20  1  3
27  1  3
50  12  3
51  13  3
53  14  3
16  28  3
17  21  3
18  24  3
19  29  3
21  2  3
22  25  3
24  33  3
26  35  3
32  4  3
40  42  3
46  48  3
39  5  3
43  5  3
52  54  3
44  7  3
45  8  3
47  9  3
49  9  3

$$$$

