6321196
  -OEChem-07051213042D

 21 22  0     0  0  0  0  0  0999 V2000
    5.5981    1.8100    0.0000 O   0  0  0  0  0  0  0  0  0  0  0  0
    3.8660   -1.1900    0.0000 N   0  0  0  0  0  0  0  0  0  0  0  0
    5.5981   -1.1900    0.0000 N   0  0  0  0  0  0  0  0  0  0  0  0
    4.7320    0.3100    0.0000 N   0  0  0  0  0  0  0  0  0  0  0  0
    6.4641    0.3100    0.0000 N   0  0  0  0  0  0  0  0  0  0  0  0
    7.3301   -1.1900    0.0000 N   0  0  0  0  0  0  0  0  0  0  0  0
    3.0000   -0.6900    0.0000 C   0  0  0  0  0  0  0  0  0  0  0  0
    2.5000    0.1760    0.0000 C   0  0  0  0  0  0  0  0  0  0  0  0
    2.0000   -0.6900    0.0000 C   0  0  0  0  0  0  0  0  0  0  0  0
    4.7320   -0.6900    0.0000 C   0  0  0  0  0  0  0  0  0  0  0  0
    6.4641   -0.6900    0.0000 C   0  0  0  0  0  0  0  0  0  0  0  0
    5.5981    0.8100    0.0000 C   0  0  0  0  0  0  0  0  0  0  0  0
    3.4384   -0.2516    0.0000 H   0  0  0  0  0  0  0  0  0  0  0  0
    2.9750    0.5746    0.0000 H   0  0  0  0  0  0  0  0  0  0  0  0
    2.0250    0.5746    0.0000 H   0  0  0  0  0  0  0  0  0  0  0  0
    1.4174   -0.4779    0.0000 H   0  0  0  0  0  0  0  0  0  0  0  0
    1.8923   -1.3006    0.0000 H   0  0  0  0  0  0  0  0  0  0  0  0
    3.8660   -1.8100    0.0000 H   0  0  0  0  0  0  0  0  0  0  0  0
    5.5981   -1.8100    0.0000 H   0  0  0  0  0  0  0  0  0  0  0  0
    7.8671   -0.8800    0.0000 H   0  0  0  0  0  0  0  0  0  0  0  0
    7.3301   -1.8100    0.0000 H   0  0  0  0  0  0  0  0  0  0  0  0
  1 12  2  0  0  0  0
  2  7  1  0  0  0  0
  2 10  1  0  0  0  0
  2 18  1  0  0  0  0
  3 10  1  0  0  0  0
  3 11  1  0  0  0  0
  3 19  1  0  0  0  0
  4 10  2  0  0  0  0
  4 12  1  0  0  0  0
  5 11  2  0  0  0  0
  5 12  1  0  0  0  0
  6 11  1  0  0  0  0
  6 20  1  0  0  0  0
  6 21  1  0  0  0  0
  7  8  1  0  0  0  0
  7  9  1  0  0  0  0
  7 13  1  0  0  0  0
  8  9  1  0  0  0  0
  8 14  1  0  0  0  0
  8 15  1  0  0  0  0
  9 16  1  0  0  0  0
  9 17  1  0  0  0  0
M  END
> <PUBCHEM_COMPOUND_CID>
6321196

> <PUBCHEM_COMPOUND_CANONICALIZED>
1

> <PUBCHEM_CACTVS_COMPLEXITY>
278

> <PUBCHEM_CACTVS_HBOND_ACCEPTOR>
1

> <PUBCHEM_CACTVS_HBOND_DONOR>
3

> <PUBCHEM_CACTVS_ROTATABLE_BOND>
2

> <PUBCHEM_CACTVS_SUBSKEYS>
AAADccBjoAAAAAAAAAAAAAAAGAAAAAAAAAAgAAAAAAAAAAAAAAAAHgAQAAAACCjBAAQBAALAAAAoAAAANAAAAAEAAAABAIAIAACAAAAACAAEAAAIEAIAAAAAAAAAAAAAAAAAAAAAAAAAAAAAAAAAAAAAAA==

> <PUBCHEM_IUPAC_OPENEYE_NAME>
2-amino-6-(cyclopropylamino)-1H-1,3,5-triazin-4-one

> <PUBCHEM_IUPAC_CAS_NAME>
2-amino-6-(cyclopropylamino)-1H-1,3,5-triazin-4-one

> <PUBCHEM_IUPAC_NAME>
2-amino-6-(cyclopropylamino)-1H-1,3,5-triazin-4-one

> <PUBCHEM_IUPAC_SYSTEMATIC_NAME>
2-azanyl-6-(cyclopropylamino)-1H-1,3,5-triazin-4-one

> <PUBCHEM_IUPAC_TRADITIONAL_NAME>
2-amino-6-(cyclopropylamino)-1H-s-triazin-4-one

> <PUBCHEM_IUPAC_INCHI>
InChI=1S/C6H9N5O/c7-4-9-5(8-3-1-2-3)11-6(12)10-4/h3H,1-2H2,(H4,7,8,9,10,11,12)

> <PUBCHEM_IUPAC_INCHIKEY>
YWSPFJMRXWALBW-UHFFFAOYSA-N

> <PUBCHEM_XLOGP3_AA>
-0.9

> <PUBCHEM_EXACT_MASS>
167.08071

> <PUBCHEM_MOLECULAR_FORMULA>
C6H9N5O

> <PUBCHEM_MOLECULAR_WEIGHT>
167.16856

> <PUBCHEM_OPENEYE_CAN_SMILES>
C1CC1NC2=NC(=O)N=C(N2)N

> <PUBCHEM_OPENEYE_ISO_SMILES>
C1CC1NC2=NC(=O)N=C(N2)N

> <PUBCHEM_CACTVS_TPSA>
91.9

> <PUBCHEM_MONOISOTOPIC_WEIGHT>
167.08071

> <PUBCHEM_TOTAL_CHARGE>
0

> <PUBCHEM_HEAVY_ATOM_COUNT>
12

> <PUBCHEM_ATOM_DEF_STEREO_COUNT>
0

> <PUBCHEM_ATOM_UDEF_STEREO_COUNT>
0

> <PUBCHEM_BOND_DEF_STEREO_COUNT>
0

> <PUBCHEM_BOND_UDEF_STEREO_COUNT>
0

> <PUBCHEM_ISOTOPIC_ATOM_COUNT>
0

> <PUBCHEM_COMPONENT_COUNT>
1

> <PUBCHEM_CACTVS_TAUTO_COUNT>
17

> <PUBCHEM_COORDINATE_TYPE>
1
5
255

> <PUBCHEM_BONDANNOTATIONS>
3  10  8
3  11  8
4  10  8
4  12  8
5  11  8
5  12  8

$$$$

