441796
  -OEChem-07051212562D

 69 73  0     1  0  0  0  0  0999 V2000
    8.1647    0.9165    0.0000 O   0  0  0  0  0  0  0  0  0  0  0  0
    6.9961   -1.9492    0.0000 O   0  0  0  0  0  0  0  0  0  0  0  0
    9.2441    1.9861    0.0000 O   0  0  0  0  0  0  0  0  0  0  0  0
    7.8781    2.6201    0.0000 O   0  0  0  0  0  0  0  0  0  0  0  0
    5.2418    0.1232    0.0000 O   0  0  0  0  0  0  0  0  0  0  0  0
   10.5284    1.2050    0.0000 O   0  0  0  0  0  0  0  0  0  0  0  0
    5.2261   -1.9250    0.0000 O   0  0  0  0  0  0  0  0  0  0  0  0
   12.3632    0.2208    0.0000 O   0  0  0  0  0  0  0  0  0  0  0  0
    4.3585   -1.3667    0.0000 O   0  0  0  0  0  0  0  0  0  0  0  0
    2.6497    0.6532    0.0000 O   0  0  0  0  0  0  0  0  0  0  0  0
    7.8781   -0.3799    0.0000 C   0  0  2  0  0  0  0  0  0  0  0  0
    8.7441    0.1201    0.0000 C   0  0  1  0  0  0  0  0  0  0  0  0
    9.6539   -0.3679    0.0000 C   0  0  2  0  0  0  0  0  0  0  0  0
    7.0120    0.1201    0.0000 C   0  0  2  0  0  0  0  0  0  0  0  0
    8.7441    1.1201    0.0000 C   0  0  2  0  0  0  0  0  0  0  0  0
    7.8941   -1.4214    0.0000 C   0  0  1  0  0  0  0  0  0  0  0  0
    9.6782   -1.4000    0.0000 C   0  0  1  0  0  0  0  0  0  0  0  0
    7.0120    1.1201    0.0000 C   0  0  2  0  0  0  0  0  0  0  0  0
    7.7647    0.2237    0.0000 C   0  0  0  0  0  0  0  0  0  0  0  0
    7.8781    1.6201    0.0000 C   0  0  1  0  0  0  0  0  0  0  0  0
    8.7924   -1.9303    0.0000 C   0  0  0  0  0  0  0  0  0  0  0  0
    6.1020   -0.3868    0.0000 C   0  0  2  0  0  0  0  0  0  0  0  0
   10.5635    0.2056    0.0000 C   0  0  1  0  0  0  0  0  0  0  0  0
    9.6303    0.6318    0.0000 C   0  0  0  0  0  0  0  0  0  0  0  0
   10.6138   -1.9302    0.0000 C   0  0  0  0  0  0  0  0  0  0  0  0
    6.1460    1.6201    0.0000 C   0  0  0  0  0  0  0  0  0  0  0  0
    6.0940   -1.4284    0.0000 C   0  0  0  0  0  0  0  0  0  0  0  0
   11.5112   -0.3027    0.0000 C   0  0  0  0  0  0  0  0  0  0  0  0
   11.5365   -1.3778    0.0000 C   0  0  0  0  0  0  0  0  0  0  0  0
   10.6258   -2.9301    0.0000 C   0  0  0  0  0  0  0  0  0  0  0  0
    4.3701   -0.3667    0.0000 C   0  0  0  0  0  0  0  0  0  0  0  0
    3.5099    0.1432    0.0000 C   0  0  2  0  0  0  0  0  0  0  0  0
    2.9999   -0.7169    0.0000 C   0  0  0  0  0  0  0  0  0  0  0  0
    4.0199    1.0034    0.0000 C   0  0  0  0  0  0  0  0  0  0  0  0
    2.0000   -0.7054    0.0000 C   0  0  0  0  0  0  0  0  0  0  0  0
    9.1691   -0.6160    0.0000 H   0  0  0  0  0  0  0  0  0  0  0  0
    6.2759    0.5451    0.0000 H   0  0  0  0  0  0  0  0  0  0  0  0
    7.9008   -2.2714    0.0000 H   0  0  0  0  0  0  0  0  0  0  0  0
    9.6884   -2.2500    0.0000 H   0  0  0  0  0  0  0  0  0  0  0  0
    7.0120    1.7401    0.0000 H   0  0  0  0  0  0  0  0  0  0  0  0
    7.3375    0.6731    0.0000 H   0  0  0  0  0  0  0  0  0  0  0  0
    7.2127   -0.0587    0.0000 H   0  0  0  0  0  0  0  0  0  0  0  0
    8.4150    1.9301    0.0000 H   0  0  0  0  0  0  0  0  0  0  0  0
    8.3989   -2.4095    0.0000 H   0  0  0  0  0  0  0  0  0  0  0  0
    9.1972   -2.4000    0.0000 H   0  0  0  0  0  0  0  0  0  0  0  0
    5.5621   -0.6916    0.0000 H   0  0  0  0  0  0  0  0  0  0  0  0
   11.0899    0.5333    0.0000 H   0  0  0  0  0  0  0  0  0  0  0  0
   10.2502    0.6464    0.0000 H   0  0  0  0  0  0  0  0  0  0  0  0
    9.6157    1.2516    0.0000 H   0  0  0  0  0  0  0  0  0  0  0  0
    9.0105    0.6172    0.0000 H   0  0  0  0  0  0  0  0  0  0  0  0
    6.4560    2.1570    0.0000 H   0  0  0  0  0  0  0  0  0  0  0  0
    5.6091    1.9301    0.0000 H   0  0  0  0  0  0  0  0  0  0  0  0
    5.8360    1.0831    0.0000 H   0  0  0  0  0  0  0  0  0  0  0  0
    8.9341    2.5230    0.0000 H   0  0  0  0  0  0  0  0  0  0  0  0
    7.3411    2.9301    0.0000 H   0  0  0  0  0  0  0  0  0  0  0  0
   12.0794   -1.6772    0.0000 H   0  0  0  0  0  0  0  0  0  0  0  0
   11.0541    1.5337    0.0000 H   0  0  0  0  0  0  0  0  0  0  0  0
   10.0059   -2.9375    0.0000 H   0  0  0  0  0  0  0  0  0  0  0  0
   10.6332   -3.5500    0.0000 H   0  0  0  0  0  0  0  0  0  0  0  0
   11.2458   -2.9226    0.0000 H   0  0  0  0  0  0  0  0  0  0  0  0
    2.8852   -1.3262    0.0000 H   0  0  0  0  0  0  0  0  0  0  0  0
    3.5800   -0.9357    0.0000 H   0  0  0  0  0  0  0  0  0  0  0  0
    4.5532    0.6872    0.0000 H   0  0  0  0  0  0  0  0  0  0  0  0
    4.3361    1.5367    0.0000 H   0  0  0  0  0  0  0  0  0  0  0  0
    3.4866    1.3196    0.0000 H   0  0  0  0  0  0  0  0  0  0  0  0
    2.1092    0.3495    0.0000 H   0  0  0  0  0  0  0  0  0  0  0  0
    2.0072   -0.0854    0.0000 H   0  0  0  0  0  0  0  0  0  0  0  0
    1.3800   -0.6982    0.0000 H   0  0  0  0  0  0  0  0  0  0  0  0
    1.9928   -1.3253    0.0000 H   0  0  0  0  0  0  0  0  0  0  0  0
  1 15  1  0  0  0  0
  1 19  1  0  0  0  0
  2 16  1  0  0  0  0
  2 27  1  0  0  0  0
 15  3  1  6  0  0  0
  3 54  1  0  0  0  0
 20  4  1  1  0  0  0
  4 55  1  0  0  0  0
 22  5  1  6  0  0  0
  5 31  1  0  0  0  0
 23  6  1  6  0  0  0
  6 57  1  0  0  0  0
  7 27  2  0  0  0  0
  8 28  2  0  0  0  0
  9 31  2  0  0  0  0
 32 10  1  6  0  0  0
 10 66  1  0  0  0  0
 11 12  1  0  0  0  0
 11 14  1  0  0  0  0
 11 16  1  0  0  0  0
 11 19  1  6  0  0  0
 12 13  1  0  0  0  0
 12 15  1  0  0  0  0
 12 36  1  1  0  0  0
 13 17  1  0  0  0  0
 13 23  1  0  0  0  0
 13 24  1  6  0  0  0
 14 18  1  0  0  0  0
 14 22  1  0  0  0  0
 14 37  1  6  0  0  0
 15 20  1  0  0  0  0
 16 21  1  0  0  0  0
 16 38  1  6  0  0  0
 17 21  1  0  0  0  0
 17 25  1  0  0  0  0
 17 39  1  1  0  0  0
 18 20  1  0  0  0  0
 18 26  1  1  0  0  0
 18 40  1  0  0  0  0
 19 41  1  0  0  0  0
 19 42  1  0  0  0  0
 20 43  1  0  0  0  0
 21 44  1  0  0  0  0
 21 45  1  0  0  0  0
 22 27  1  0  0  0  0
 22 46  1  0  0  0  0
 23 28  1  0  0  0  0
 23 47  1  0  0  0  0
 24 48  1  0  0  0  0
 24 49  1  0  0  0  0
 24 50  1  0  0  0  0
 25 29  2  0  0  0  0
 25 30  1  0  0  0  0
 26 51  1  0  0  0  0
 26 52  1  0  0  0  0
 26 53  1  0  0  0  0
 28 29  1  0  0  0  0
 29 56  1  0  0  0  0
 30 58  1  0  0  0  0
 30 59  1  0  0  0  0
 30 60  1  0  0  0  0
 31 32  1  0  0  0  0
 32 33  1  0  0  0  0
 32 34  1  0  0  0  0
 33 35  1  0  0  0  0
 33 61  1  0  0  0  0
 33 62  1  0  0  0  0
 34 63  1  0  0  0  0
 34 64  1  0  0  0  0
 34 65  1  0  0  0  0
 35 67  1  0  0  0  0
 35 68  1  0  0  0  0
 35 69  1  0  0  0  0
M  END
> <PUBCHEM_COMPOUND_CID>
441796

> <PUBCHEM_COMPOUND_CANONICALIZED>
1

> <PUBCHEM_CACTVS_COMPLEXITY>
1020

> <PUBCHEM_CACTVS_HBOND_ACCEPTOR>
10

> <PUBCHEM_CACTVS_HBOND_DONOR>
4

> <PUBCHEM_CACTVS_ROTATABLE_BOND>
4

> <PUBCHEM_CACTVS_SUBSKEYS>
AAADcfB4PAAAAAAAAAAAAAAAAAAAASAAAAA0YIEABIAAAEiQAAAAGgAACAAAD1SggAICCAAABgCIAqDSCAIAAAAgAAAACAFAAEgREBIAAQQCQAAFwAAPAQPI7PzPgAAAAAAAAADAAAYAADCAAAAAAAAAAA==

> <PUBCHEM_IUPAC_INCHI>
InChI=1S/C25H34O10/c1-6-22(4,31)21(30)35-16-15-11(3)17(27)25(32)20-23(5)12(10(2)7-13(26)18(23)28)8-14(34-19(16)29)24(15,20)9-33-25/h7,11-12,14-18,20,27-28,31-32H,6,8-9H2,1-5H3/t11-,12+,14-,15-,16-,17-,18-,20-,22+,23-,24+,25+/m1/s1

> <PUBCHEM_IUPAC_INCHIKEY>
WRBGCYVAJRRQKP-STDAJNJZSA-N

> <PUBCHEM_XLOGP3_AA>
0.1

> <PUBCHEM_EXACT_MASS>
494.215197

> <PUBCHEM_MOLECULAR_FORMULA>
C25H34O10

> <PUBCHEM_MOLECULAR_WEIGHT>
494.53146

> <PUBCHEM_OPENEYE_CAN_SMILES>
CCC(C)(C(=O)OC1C2C(C(C3(C4C2(CO3)C(CC5C4(C(C(=O)C=C5C)O)C)OC1=O)O)O)C)O

> <PUBCHEM_OPENEYE_ISO_SMILES>
CC[C@@](C)(C(=O)O[C@@H]1[C@H]2[C@H]([C@H]([C@]3([C@H]4[C@@]2(CO3)[C@@H](C[C@@H]5[C@@]4([C@@H](C(=O)C=C5C)O)C)OC1=O)O)O)C)O

> <PUBCHEM_CACTVS_TPSA>
160

> <PUBCHEM_MONOISOTOPIC_WEIGHT>
494.215197

> <PUBCHEM_TOTAL_CHARGE>
0

> <PUBCHEM_HEAVY_ATOM_COUNT>
35

> <PUBCHEM_ATOM_DEF_STEREO_COUNT>
12

> <PUBCHEM_ATOM_UDEF_STEREO_COUNT>
0

> <PUBCHEM_BOND_DEF_STEREO_COUNT>
0

> <PUBCHEM_BOND_UDEF_STEREO_COUNT>
0

> <PUBCHEM_ISOTOPIC_ATOM_COUNT>
0

> <PUBCHEM_COMPONENT_COUNT>
1

> <PUBCHEM_CACTVS_TAUTO_COUNT>
26

> <PUBCHEM_COORDINATE_TYPE>
1
5
255

> <PUBCHEM_BONDANNOTATIONS>
32  10  6
11  19  6
12  36  5
13  24  6
14  37  6
16  38  6
17  39  5
18  26  5
15  3  6
20  4  5
22  5  6
23  6  6

$$$$

