   Color/Form

     * Colorless liquid
     * Colorless to pale-yellow liquid.

   from [1]HSDB

   Odor

     * Sweetish suffocating chloroform-like odor
     * Pungent, chloroform-like odor.

   from [2]HSDB

   Boiling Point
        146.5 deg C
   from [3]HSDB

   Melting Point
        -43.8 deg C
   from [4]HSDB

   Corrosivity

     * Corrosive liquid
     * Liquid will attack some forms of plastics, rubber and coatings.

   from [5]HSDB

   Critical Temperature and Pressure
        Critical temperature = 388 deg C; Critical pressure = 3.99 mPa
   from [6]HSDB

   Density/Specific Gravity
        1.5953 g/cu cm at 20 deg C
   from [7]HSDB

   Heat of Combustion
        -8.3464X10+08 J/kmol
   from [8]HSDB

   Heat of Vaporization
        230.5 J/g at 20 deg C
   from [9]HSDB

   Octanol/Water Partition Coefficient
        log Kow = 2.39
   from [10]HSDB

   Solubilities

     * One gram dissolves in 350 mL of water at 25 deg C.
     * Soluble in acetone; miscible in ether and ethanol.
     * In water, 2,900 mg/L at 20 deg C.
     * Miscible with methanol, benzene, pet. ether, carbon tetrachloride,
       chloroform, carbon disulfide, dimethylformamide and oils.
     * In water, 2,830 mg/L at 25 deg C

   from [11]HSDB

   Spectral Properties

     * SADTLER REFERENCE NUMBER: 1465 (IR, PRISM); 247 (IR, GRATING)
     * Index of refraction: 1.49410 at 20 deg C/D
     * IR: 60 (Sadtler Research Laboratories IR Grating Spectral
       Collection)
     * 1H NMR: 10209 (Sadtler Research Laboratories Spectral Collection)
     * MASS: 34547 (NIST/EPA/MSDC Mass Spectral Database 1990 Version);
       1422 (Atlas of Mass Spectral Data John Wiley and Sons, New York)
     * Raman: 754 (Sadtler Research Laboratories Spectral Collection)

   from [12]HSDB

   Surface Tension
        34.72 dynes/cm at 20 deg C
   from [13]HSDB

   Vapor Density
        5.79 (Air= 1)
   from [14]HSDB

   Vapor Pressure
        4.62 mm Hg at 25 deg C
   from [15]HSDB

   Relative Evaporation Rate
        0.65 (Butyl acetate= 1)
   from [16]HSDB

   Viscosity
        1.77 cP at 20 deg C
   from [17]HSDB

   Other Chemical/Physical Properties

     * VP = 9 mm Hg at 30 deg C
     * Average evaporative half-life of 55.2 min for concn of 0.92 mg/L in
       water.
     * RATIO OF SPECIFIC HEATS OF VAPOR (GAS): 1.090 @ 25 DEG C; LATENT
       HEAT OF VAPORIZATION: 55.1 CAL/G
     * Bulk density 13.25 lb/gal at 25 deg C
     * Sat concn in air = 46 g/cu m at 20 deg C, 75 g/cu m at 30 deg C
     * 0.79% in saturated air at 25 deg C
     * Solubility of water in solvent at 20 deg C= 0.03% by weight; Water-
       no cloud at -10 deg C= 0.032% by weight; freezing point -43 deg C;
       Residues on evaporation 0.00062% by weight
     * Partition coefficients at 37 deg C for 1,1,2,2-tetrachloroethane
       into blood= 121; into oil= 13,200. [Sato A, Nakajima T; Scand J
       Work Environ Health 13: 81-93 (1987)] [18]PubMed Abstract
     * Liquid molar volume = 0.105754 cu m/kmol; Heat of fusion at melting
       point = 9.172X10+06 J/kmol
     * Conversion factors: 1 mg/L 145.8 ppm, and 1 ppm 6.86 mg/cu m at 25
       deg C, 760 torr
     * Heavy, mobile liquid
     * Henry's Law constant = 3.67X10-4 atm-cu m/mole at 25 deg C
     * Hydroxyl radical reaction rate constant = 2.5X10-13 cu cm/molec-sec
       at 25 deg C

   from [19]HSDB

   Computed Properties
   Molecular Weight                  167.84928 [g/mol]
   Molecular Formula                 C[2]H[2]Cl[4]
   XLogP3                            2.4
   H-Bond Donor                      0
   H-Bond Acceptor                   0
   Rotatable Bond Count              1
   Exact Mass                        167.888111
   MonoIsotopic Mass                 165.891061
   Topological Polar Surface Area    0
   Heavy Atom Count                  6
   Formal Charge                     0
   Complexity                        26.5
   Isotope Atom Count                0
   Defined Atom Stereocenter Count   0
   Undefined Atom Stereocenter Count 0
   Defined Bond Stereocenter Count   0
   Undefined Bond Stereocenter Count 0
   Covalently-Bonded Unit Count      1
   Effective Rotor Count             1
   Conformer Sampling RMSD           0.4
   CID Conformer Count               [20]3

References

   1. http://toxnet.nlm.nih.gov/cgi-bin/sis/search/r?dbs+hsdb:@term+@rn+@rel+79-34-5
   2. http://toxnet.nlm.nih.gov/cgi-bin/sis/search/r?dbs+hsdb:@term+@rn+@rel+79-34-5
   3. http://toxnet.nlm.nih.gov/cgi-bin/sis/search/r?dbs+hsdb:@term+@rn+@rel+79-34-5
   4. http://toxnet.nlm.nih.gov/cgi-bin/sis/search/r?dbs+hsdb:@term+@rn+@rel+79-34-5
   5. http://toxnet.nlm.nih.gov/cgi-bin/sis/search/r?dbs+hsdb:@term+@rn+@rel+79-34-5
   6. http://toxnet.nlm.nih.gov/cgi-bin/sis/search/r?dbs+hsdb:@term+@rn+@rel+79-34-5
   7. http://toxnet.nlm.nih.gov/cgi-bin/sis/search/r?dbs+hsdb:@term+@rn+@rel+79-34-5
   8. http://toxnet.nlm.nih.gov/cgi-bin/sis/search/r?dbs+hsdb:@term+@rn+@rel+79-34-5
   9. http://toxnet.nlm.nih.gov/cgi-bin/sis/search/r?dbs+hsdb:@term+@rn+@rel+79-34-5
  10. http://toxnet.nlm.nih.gov/cgi-bin/sis/search/r?dbs+hsdb:@term+@rn+@rel+79-34-5
  11. http://toxnet.nlm.nih.gov/cgi-bin/sis/search/r?dbs+hsdb:@term+@rn+@rel+79-34-5
  12. http://toxnet.nlm.nih.gov/cgi-bin/sis/search/r?dbs+hsdb:@term+@rn+@rel+79-34-5
  13. http://toxnet.nlm.nih.gov/cgi-bin/sis/search/r?dbs+hsdb:@term+@rn+@rel+79-34-5
  14. http://toxnet.nlm.nih.gov/cgi-bin/sis/search/r?dbs+hsdb:@term+@rn+@rel+79-34-5
  15. http://toxnet.nlm.nih.gov/cgi-bin/sis/search/r?dbs+hsdb:@term+@rn+@rel+79-34-5
  16. http://toxnet.nlm.nih.gov/cgi-bin/sis/search/r?dbs+hsdb:@term+@rn+@rel+79-34-5
  17. http://toxnet.nlm.nih.gov/cgi-bin/sis/search/r?dbs+hsdb:@term+@rn+@rel+79-34-5
  18. http://www.ncbi.nlm.nih.gov/entrez/query.fcgi?cmd=Retrieve&db=pubmed&dopt=Abstract&list_uids=3299685
  19. http://toxnet.nlm.nih.gov/cgi-bin/sis/search/r?dbs+hsdb:@term+@rn+@rel+79-34-5
  20. http://pubchem.ncbi.nlm.nih.gov/vw3d/vw3d.cgi?cid=6591
