446642
  -OEChem-07051213072D

 68 71  0     1  0  0  0  0  0999 V2000
    8.2983   -3.4182    0.0000 O   0  0  0  0  0  0  0  0  0  0  0  0
    5.4836   -6.6206    0.0000 O   0  0  0  0  0  0  0  0  0  0  0  0
   10.8964    1.0818    0.0000 O   0  0  0  0  0  0  0  0  0  0  0  0
   10.0303   -0.4182    0.0000 O   0  0  0  0  0  0  0  0  0  0  0  0
    8.2983    3.5818    0.0000 O   0  0  0  0  0  0  0  0  0  0  0  0
    9.1643    2.0818    0.0000 N   0  0  0  0  0  0  0  0  0  0  0  0
    5.6527   -5.0114    0.0000 N   0  0  0  0  0  0  0  0  0  0  0  0
    9.1643    1.0818    0.0000 C   0  0  1  0  0  0  0  0  0  0  0  0
    8.2983    0.5818    0.0000 C   0  0  0  0  0  0  0  0  0  0  0  0
    8.2983   -0.4182    0.0000 C   0  0  0  0  0  0  0  0  0  0  0  0
    7.4323   -0.9182    0.0000 C   0  0  0  0  0  0  0  0  0  0  0  0
    9.1643   -0.9182    0.0000 C   0  0  0  0  0  0  0  0  0  0  0  0
    7.4323   -4.9182    0.0000 C   0  0  0  0  0  0  0  0  0  0  0  0
    8.2983   -2.4182    0.0000 C   0  0  0  0  0  0  0  0  0  0  0  0
   10.0303    0.5818    0.0000 C   0  0  0  0  0  0  0  0  0  0  0  0
    7.4323   -3.9182    0.0000 C   0  0  0  0  0  0  0  0  0  0  0  0
   10.0303    2.5818    0.0000 C   0  0  0  0  0  0  0  0  0  0  0  0
    6.5662   -5.4182    0.0000 C   0  0  0  0  0  0  0  0  0  0  0  0
    7.4323   -1.9182    0.0000 C   0  0  0  0  0  0  0  0  0  0  0  0
    9.1643   -1.9182    0.0000 C   0  0  0  0  0  0  0  0  0  0  0  0
    6.4617   -6.4127    0.0000 C   0  0  0  0  0  0  0  0  0  0  0  0
    4.9836   -5.7546    0.0000 C   0  0  0  0  0  0  0  0  0  0  0  0
   10.8964    2.0818    0.0000 C   0  0  0  0  0  0  0  0  0  0  0  0
   10.0303    3.5818    0.0000 C   0  0  0  0  0  0  0  0  0  0  0  0
    3.9890   -5.6500    0.0000 C   0  0  0  0  0  0  0  0  0  0  0  0
    7.2049   -7.0818    0.0000 C   0  0  0  0  0  0  0  0  0  0  0  0
    9.1643    4.0818    0.0000 C   0  0  0  0  0  0  0  0  0  0  0  0
    3.5823   -4.7365    0.0000 C   0  0  0  0  0  0  0  0  0  0  0  0
    3.4013   -6.4591    0.0000 C   0  0  0  0  0  0  0  0  0  0  0  0
    9.1643    5.0818    0.0000 C   0  0  0  0  0  0  0  0  0  0  0  0
    2.5878   -4.6320    0.0000 C   0  0  0  0  0  0  0  0  0  0  0  0
    2.4067   -6.3545    0.0000 C   0  0  0  0  0  0  0  0  0  0  0  0
    2.0000   -5.4410    0.0000 C   0  0  0  0  0  0  0  0  0  0  0  0
   10.0303    5.5818    0.0000 C   0  0  0  0  0  0  0  0  0  0  0  0
    8.2983    5.5818    0.0000 C   0  0  0  0  0  0  0  0  0  0  0  0
   10.0303    6.5818    0.0000 C   0  0  0  0  0  0  0  0  0  0  0  0
    8.2983    6.5818    0.0000 C   0  0  0  0  0  0  0  0  0  0  0  0
    9.1643    7.0818    0.0000 C   0  0  0  0  0  0  0  0  0  0  0  0
    9.7012    1.3918    0.0000 H   0  0  0  0  0  0  0  0  0  0  0  0
    8.0862    1.1644    0.0000 H   0  0  0  0  0  0  0  0  0  0  0  0
    7.6877    0.4742    0.0000 H   0  0  0  0  0  0  0  0  0  0  0  0
    8.6274    2.3918    0.0000 H   0  0  0  0  0  0  0  0  0  0  0  0
    6.8953   -0.6082    0.0000 H   0  0  0  0  0  0  0  0  0  0  0  0
    9.7012   -0.6082    0.0000 H   0  0  0  0  0  0  0  0  0  0  0  0
    7.6443   -5.5008    0.0000 H   0  0  0  0  0  0  0  0  0  0  0  0
    8.0428   -4.8105    0.0000 H   0  0  0  0  0  0  0  0  0  0  0  0
    7.2202   -3.3356    0.0000 H   0  0  0  0  0  0  0  0  0  0  0  0
    6.8217   -4.0258    0.0000 H   0  0  0  0  0  0  0  0  0  0  0  0
    6.8953   -2.2282    0.0000 H   0  0  0  0  0  0  0  0  0  0  0  0
    9.7012   -2.2282    0.0000 H   0  0  0  0  0  0  0  0  0  0  0  0
   10.5864    1.5449    0.0000 H   0  0  0  0  0  0  0  0  0  0  0  0
   11.4333    1.7718    0.0000 H   0  0  0  0  0  0  0  0  0  0  0  0
   11.2064    2.6188    0.0000 H   0  0  0  0  0  0  0  0  0  0  0  0
   10.5673    3.8918    0.0000 H   0  0  0  0  0  0  0  0  0  0  0  0
    6.7900   -7.5426    0.0000 H   0  0  0  0  0  0  0  0  0  0  0  0
    7.6656   -7.4967    0.0000 H   0  0  0  0  0  0  0  0  0  0  0  0
    7.6197   -6.6211    0.0000 H   0  0  0  0  0  0  0  0  0  0  0  0
   11.4333    0.7718    0.0000 H   0  0  0  0  0  0  0  0  0  0  0  0
    3.9467   -4.2349    0.0000 H   0  0  0  0  0  0  0  0  0  0  0  0
    3.6534   -7.0255    0.0000 H   0  0  0  0  0  0  0  0  0  0  0  0
    2.3356   -4.0656    0.0000 H   0  0  0  0  0  0  0  0  0  0  0  0
    2.0423   -6.8561    0.0000 H   0  0  0  0  0  0  0  0  0  0  0  0
    1.3834   -5.3762    0.0000 H   0  0  0  0  0  0  0  0  0  0  0  0
   10.5673    5.2718    0.0000 H   0  0  0  0  0  0  0  0  0  0  0  0
    7.7614    5.2718    0.0000 H   0  0  0  0  0  0  0  0  0  0  0  0
   10.5673    6.8918    0.0000 H   0  0  0  0  0  0  0  0  0  0  0  0
    7.7614    6.8918    0.0000 H   0  0  0  0  0  0  0  0  0  0  0  0
    9.1643    7.7018    0.0000 H   0  0  0  0  0  0  0  0  0  0  0  0
  1 14  1  0  0  0  0
  1 16  1  0  0  0  0
  2 21  1  0  0  0  0
  2 22  1  0  0  0  0
  3 15  1  0  0  0  0
  3 58  1  0  0  0  0
  4 15  2  0  0  0  0
  5 27  2  0  0  0  0
  8  6  1  6  0  0  0
  6 17  1  0  0  0  0
  6 42  1  0  0  0  0
  7 18  1  0  0  0  0
  7 22  2  0  0  0  0
  8  9  1  0  0  0  0
  8 15  1  0  0  0  0
  8 39  1  0  0  0  0
  9 10  1  0  0  0  0
  9 40  1  0  0  0  0
  9 41  1  0  0  0  0
 10 11  2  0  0  0  0
 10 12  1  0  0  0  0
 11 19  1  0  0  0  0
 11 43  1  0  0  0  0
 12 20  2  0  0  0  0
 12 44  1  0  0  0  0
 13 16  1  0  0  0  0
 13 18  1  0  0  0  0
 13 45  1  0  0  0  0
 13 46  1  0  0  0  0
 14 19  2  0  0  0  0
 14 20  1  0  0  0  0
 16 47  1  0  0  0  0
 16 48  1  0  0  0  0
 17 23  1  0  0  0  0
 17 24  2  0  0  0  0
 18 21  2  0  0  0  0
 19 49  1  0  0  0  0
 20 50  1  0  0  0  0
 21 26  1  0  0  0  0
 22 25  1  0  0  0  0
 23 51  1  0  0  0  0
 23 52  1  0  0  0  0
 23 53  1  0  0  0  0
 24 27  1  0  0  0  0
 24 54  1  0  0  0  0
 25 28  2  0  0  0  0
 25 29  1  0  0  0  0
 26 55  1  0  0  0  0
 26 56  1  0  0  0  0
 26 57  1  0  0  0  0
 27 30  1  0  0  0  0
 28 31  1  0  0  0  0
 28 59  1  0  0  0  0
 29 32  2  0  0  0  0
 29 60  1  0  0  0  0
 30 34  2  0  0  0  0
 30 35  1  0  0  0  0
 31 33  2  0  0  0  0
 31 61  1  0  0  0  0
 32 33  1  0  0  0  0
 32 62  1  0  0  0  0
 33 63  1  0  0  0  0
 34 36  1  0  0  0  0
 34 64  1  0  0  0  0
 35 37  2  0  0  0  0
 35 65  1  0  0  0  0
 36 38  2  0  0  0  0
 36 66  1  0  0  0  0
 37 38  1  0  0  0  0
 37 67  1  0  0  0  0
 38 68  1  0  0  0  0
M  END
> <PUBCHEM_COMPOUND_CID>
446642

> <PUBCHEM_COMPOUND_CANONICALIZED>
1

> <PUBCHEM_CACTVS_COMPLEXITY>
781

> <PUBCHEM_CACTVS_HBOND_ACCEPTOR>
7

> <PUBCHEM_CACTVS_HBOND_DONOR>
2

> <PUBCHEM_CACTVS_ROTATABLE_BOND>
12

> <PUBCHEM_CACTVS_SUBSKEYS>
AAADceB7OAAAAAAAAAAAAAAAAAAAAWAAAAAwYMAAAAAAAAAB1AAAHgAQCAAADCzhngYyjpLIFkCoA6XyXASCiCAvYiAImKG/TNgOJrLEtTuPeSjm1BHYqcfayKCOIAAAAAAAAABAAAAAAAAAAAAAAAAAAA==

> <PUBCHEM_IUPAC_OPENEYE_NAME>
(2S)-2-[[(Z)-1-methyl-3-oxo-3-phenyl-prop-1-enyl]amino]-3-[4-[2-(5-methyl-2-phenyl-oxazol-4-yl)ethoxy]phenyl]propanoic acid

> <PUBCHEM_IUPAC_CAS_NAME>
(2S)-3-[4-[2-(5-methyl-2-phenyl-4-oxazolyl)ethoxy]phenyl]-2-[[(Z)-4-oxo-4-phenylbut-2-en-2-yl]amino]propanoic acid

> <PUBCHEM_IUPAC_NAME>
(2S)-3-[4-[2-(5-methyl-2-phenyl-1,3-oxazol-4-yl)ethoxy]phenyl]-2-[[(Z)-4-oxo-4-phenylbut-2-en-2-yl]amino]propanoic acid

> <PUBCHEM_IUPAC_SYSTEMATIC_NAME>
(2S)-3-[4-[2-(5-methyl-2-phenyl-1,3-oxazol-4-yl)ethoxy]phenyl]-2-[[(Z)-4-oxidanylidene-4-phenyl-but-2-en-2-yl]amino]propanoic acid

> <PUBCHEM_IUPAC_TRADITIONAL_NAME>
(2S)-2-[[(Z)-3-keto-1-methyl-3-phenyl-prop-1-enyl]amino]-3-[4-[2-(5-methyl-2-phenyl-oxazol-4-yl)ethoxy]phenyl]propionic acid

> <PUBCHEM_IUPAC_INCHI>
InChI=1S/C31H30N2O5/c1-21(19-29(34)24-9-5-3-6-10-24)32-28(31(35)36)20-23-13-15-26(16-14-23)37-18-17-27-22(2)38-30(33-27)25-11-7-4-8-12-25/h3-16,19,28,32H,17-18,20H2,1-2H3,(H,35,36)/b21-19-/t28-/m0/s1

> <PUBCHEM_IUPAC_INCHIKEY>
GGUVRMBIEPYOKL-WMVCGJOFSA-N

> <PUBCHEM_XLOGP3_AA>
6.8

> <PUBCHEM_EXACT_MASS>
510.215472

> <PUBCHEM_MOLECULAR_FORMULA>
C31H30N2O5

> <PUBCHEM_MOLECULAR_WEIGHT>
510.5803

> <PUBCHEM_OPENEYE_CAN_SMILES>
CC1=C(N=C(O1)C2=CC=CC=C2)CCOC3=CC=C(C=C3)CC(C(=O)O)NC(=CC(=O)C4=CC=CC=C4)C

> <PUBCHEM_OPENEYE_ISO_SMILES>
CC1=C(N=C(O1)C2=CC=CC=C2)CCOC3=CC=C(C=C3)C[C@@H](C(=O)O)N/C(=C\C(=O)C4=CC=CC=C4)/C

> <PUBCHEM_CACTVS_TPSA>
102

> <PUBCHEM_MONOISOTOPIC_WEIGHT>
510.215472

> <PUBCHEM_TOTAL_CHARGE>
0

> <PUBCHEM_HEAVY_ATOM_COUNT>
38

> <PUBCHEM_ATOM_DEF_STEREO_COUNT>
1

> <PUBCHEM_ATOM_UDEF_STEREO_COUNT>
0

> <PUBCHEM_BOND_DEF_STEREO_COUNT>
1

> <PUBCHEM_BOND_UDEF_STEREO_COUNT>
0

> <PUBCHEM_ISOTOPIC_ATOM_COUNT>
0

> <PUBCHEM_COMPONENT_COUNT>
1

> <PUBCHEM_CACTVS_TAUTO_COUNT>
5

> <PUBCHEM_COORDINATE_TYPE>
1
5
255

> <PUBCHEM_BONDANNOTATIONS>
10  11  8
10  12  8
11  19  8
12  20  8
14  19  8
14  20  8
18  21  8
2  21  8
2  22  8
25  28  8
25  29  8
28  31  8
29  32  8
30  34  8
30  35  8
31  33  8
32  33  8
34  36  8
35  37  8
36  38  8
37  38  8
8  6  6
7  18  8
7  22  8

$$$$

