   Color/Form

     * CRYSTALLINE SOLID
     * Colorless powder

   from [1]HSDB

   Melting Point
        68-70 deg C
   from [2]HSDB

   Density/Specific Gravity
        1.186 g/cu cm @ 20 deg C
   from [3]HSDB

   Dissociation Constants
        PK: 4.0 @ 21 DEG C
   from [4]HSDB

   Solubilities

     * 320 mg/l water @ 20 deg C
     * 450 g/l acetone @ 20 deg C
     * 650 g/l dichloromethane @ 20 deg C
     * 5 g/l hexane @ 20 deg C
     * 400 g/l methanol @ 20 deg C
     * 150 g/l octan-1-ol @ 20 deg C
     * 380 g/l toluene @ 20 deg C

   from [5]HSDB

   Vapor Pressure
        2.85X10-7 mm Hg @ 20 deg C
   from [6]HSDB

   Computed Properties
   Molecular Weight                  271.38234 [g/mol]
   Molecular Formula                 C[11]H[21]N[5]OS
   XLogP3                            2.8
   H-Bond Donor                      2
   H-Bond Acceptor                   7
   Rotatable Bond Count              8
   Tautomer Count                    9
   Exact Mass                        271.146681
   MonoIsotopic Mass                 271.146681
   Topological Polar Surface Area    97.3
   Heavy Atom Count                  18
   Formal Charge                     0
   Complexity                        220
   Isotope Atom Count                0
   Defined Atom Stereocenter Count   0
   Undefined Atom Stereocenter Count 0
   Defined Bond Stereocenter Count   0
   Undefined Bond Stereocenter Count 0
   Covalently-Bonded Unit Count      1
   Feature 3D Acceptor Count         1
   Feature 3D Donor Count            2
   Feature 3D Cation Count           2
   Feature 3D Hydrophobe Count       2
   Feature 3D Ring Count             1
   Effective Rotor Count             8
   Conformer Sampling RMSD           0.8
   CID Conformer Count               [7]282

References

   1. http://toxnet.nlm.nih.gov/cgi-bin/sis/search/r?dbs+hsdb:@term+@rn+@rel+841-06-5
   2. http://toxnet.nlm.nih.gov/cgi-bin/sis/search/r?dbs+hsdb:@term+@rn+@rel+841-06-5
   3. http://toxnet.nlm.nih.gov/cgi-bin/sis/search/r?dbs+hsdb:@term+@rn+@rel+841-06-5
   4. http://toxnet.nlm.nih.gov/cgi-bin/sis/search/r?dbs+hsdb:@term+@rn+@rel+841-06-5
   5. http://toxnet.nlm.nih.gov/cgi-bin/sis/search/r?dbs+hsdb:@term+@rn+@rel+841-06-5
   6. http://toxnet.nlm.nih.gov/cgi-bin/sis/search/r?dbs+hsdb:@term+@rn+@rel+841-06-5
   7. http://pubchem.ncbi.nlm.nih.gov/vw3d/vw3d.cgi?cid=13290
