11769
  -OEChem-06261206052D

 24 26  0     0  0  0  0  0  0999 V2000
    5.5321   -2.2219    0.0000 O   0  5  0  0  0  0  0  0  0  0  0  0
    3.8000   -2.2219    0.0000 O   0  0  0  0  0  0  0  0  0  0  0  0
    4.6660   -1.7219    0.0000 N   0  3  0  0  0  0  0  0  0  0  0  0
    3.8000    0.7781    0.0000 C   0  0  0  0  0  0  0  0  0  0  0  0
    4.3009    2.2024    0.0000 C   0  0  0  0  0  0  0  0  0  0  0  0
    3.3073    2.2219    0.0000 C   0  0  0  0  0  0  0  0  0  0  0  0
    4.6660    1.2781    0.0000 C   0  0  0  0  0  0  0  0  0  0  0  0
    2.9061    1.3127    0.0000 C   0  0  0  0  0  0  0  0  0  0  0  0
    3.8000   -0.2219    0.0000 C   0  0  0  0  0  0  0  0  0  0  0  0
    5.5321    0.7781    0.0000 C   0  0  0  0  0  0  0  0  0  0  0  0
    2.0000    0.7989    0.0000 C   0  0  0  0  0  0  0  0  0  0  0  0
    4.6660   -0.7219    0.0000 C   0  0  0  0  0  0  0  0  0  0  0  0
    2.9061   -0.7566    0.0000 C   0  0  0  0  0  0  0  0  0  0  0  0
    5.5321   -0.2219    0.0000 C   0  0  0  0  0  0  0  0  0  0  0  0
    2.0000   -0.2428    0.0000 C   0  0  0  0  0  0  0  0  0  0  0  0
    4.9025    2.3523    0.0000 H   0  0  0  0  0  0  0  0  0  0  0  0
    4.2315    2.8185    0.0000 H   0  0  0  0  0  0  0  0  0  0  0  0
    3.4010    2.8348    0.0000 H   0  0  0  0  0  0  0  0  0  0  0  0
    2.7121    2.3954    0.0000 H   0  0  0  0  0  0  0  0  0  0  0  0
    6.0690    1.0881    0.0000 H   0  0  0  0  0  0  0  0  0  0  0  0
    1.4643    1.1109    0.0000 H   0  0  0  0  0  0  0  0  0  0  0  0
    2.9132   -1.3766    0.0000 H   0  0  0  0  0  0  0  0  0  0  0  0
    6.0690   -0.5319    0.0000 H   0  0  0  0  0  0  0  0  0  0  0  0
    1.4643   -0.5548    0.0000 H   0  0  0  0  0  0  0  0  0  0  0  0
  1  3  1  0  0  0  0
  2  3  2  0  0  0  0
  3 12  1  0  0  0  0
  4  7  1  0  0  0  0
  4  8  2  0  0  0  0
  4  9  1  0  0  0  0
  5  6  1  0  0  0  0
  5  7  1  0  0  0  0
  5 16  1  0  0  0  0
  5 17  1  0  0  0  0
  6  8  1  0  0  0  0
  6 18  1  0  0  0  0
  6 19  1  0  0  0  0
  7 10  2  0  0  0  0
  8 11  1  0  0  0  0
  9 12  1  0  0  0  0
  9 13  2  0  0  0  0
 10 14  1  0  0  0  0
 10 20  1  0  0  0  0
 11 15  2  0  0  0  0
 11 21  1  0  0  0  0
 12 14  2  0  0  0  0
 13 15  1  0  0  0  0
 13 22  1  0  0  0  0
 14 23  1  0  0  0  0
 15 24  1  0  0  0  0
M  CHG  2   1  -1   3   1
M  END
> <PUBCHEM_COMPOUND_CID>
11769

> <PUBCHEM_COMPOUND_CANONICALIZED>
1

> <PUBCHEM_CACTVS_COMPLEXITY>
273

> <PUBCHEM_CACTVS_HBOND_ACCEPTOR>
2

> <PUBCHEM_CACTVS_HBOND_DONOR>
0

> <PUBCHEM_CACTVS_ROTATABLE_BOND>
0

> <PUBCHEM_CACTVS_SUBSKEYS>
AAADccByMAAAAAAAAAAAAAAAAAAAAYAAAAAwYAAAAAAAAGDBUAAAHAAEAAAADAiBGAAwwMAQQACBAiRCQwCCAAAgAgAoiAAAZIoIICKAkZGAIABggAAIyAcQgMAOiAACQAASAAAQAASAACQAAQAACAAAAA==

> <PUBCHEM_IUPAC_OPENEYE_NAME>
5-nitro-1,2-dihydroacenaphthylene

> <PUBCHEM_IUPAC_CAS_NAME>
5-nitro-1,2-dihydroacenaphthylene

> <PUBCHEM_IUPAC_NAME>
5-nitro-1,2-dihydroacenaphthylene

> <PUBCHEM_IUPAC_SYSTEMATIC_NAME>
5-nitro-1,2-dihydroacenaphthylene

> <PUBCHEM_IUPAC_TRADITIONAL_NAME>
5-nitroacenaphthene

> <PUBCHEM_IUPAC_INCHI>
InChI=1S/C12H9NO2/c14-13(15)11-7-6-9-5-4-8-2-1-3-10(11)12(8)9/h1-3,6-7H,4-5H2

> <PUBCHEM_IUPAC_INCHIKEY>
CUARLQDWYSRQDF-UHFFFAOYSA-N

> <PUBCHEM_XLOGP3>
3.9

> <PUBCHEM_EXACT_MASS>
199.063329

> <PUBCHEM_MOLECULAR_FORMULA>
C12H9NO2

> <PUBCHEM_MOLECULAR_WEIGHT>
199.20536

> <PUBCHEM_OPENEYE_CAN_SMILES>
C1CC2=CC=CC3=C(C=CC1=C23)[N+](=O)[O-]

> <PUBCHEM_OPENEYE_ISO_SMILES>
C1CC2=CC=CC3=C(C=CC1=C23)[N+](=O)[O-]

> <PUBCHEM_CACTVS_TPSA>
45.8

> <PUBCHEM_MONOISOTOPIC_WEIGHT>
199.063329

> <PUBCHEM_TOTAL_CHARGE>
0

> <PUBCHEM_HEAVY_ATOM_COUNT>
15

> <PUBCHEM_ATOM_DEF_STEREO_COUNT>
0

> <PUBCHEM_ATOM_UDEF_STEREO_COUNT>
0

> <PUBCHEM_BOND_DEF_STEREO_COUNT>
0

> <PUBCHEM_BOND_UDEF_STEREO_COUNT>
0

> <PUBCHEM_ISOTOPIC_ATOM_COUNT>
0

> <PUBCHEM_COMPONENT_COUNT>
1

> <PUBCHEM_CACTVS_TAUTO_COUNT>
1

> <PUBCHEM_COORDINATE_TYPE>
1
5
255

> <PUBCHEM_BONDANNOTATIONS>
10  14  8
11  15  8
12  14  8
13  15  8
4  7  8
4  8  8
4  9  8
7  10  8
8  11  8
9  12  8
9  13  8

$$$$

