5282049
  -OEChem-07051213022D

 87 90  0     1  0  0  0  0  0999 V2000
    6.1946    0.3620    0.0000 Cl  0  0  0  0  0  0  0  0  0  0  0  0
    7.3879   -0.5045    0.0000 O   0  0  0  0  0  0  0  0  0  0  0  0
    7.3835   -2.1457    0.0000 O   0  0  0  0  0  0  0  0  0  0  0  0
    8.6712    2.2370    0.0000 O   0  0  0  0  0  0  0  0  0  0  0  0
    6.9392    4.2370    0.0000 O   0  0  0  0  0  0  0  0  0  0  0  0
    5.6505    4.6433    0.0000 O   0  0  0  0  0  0  0  0  0  0  0  0
    4.7636   -3.2600    0.0000 O   0  0  0  0  0  0  0  0  0  0  0  0
    9.5372    3.7370    0.0000 O   0  0  0  0  0  0  0  0  0  0  0  0
    6.2134   -3.4227    0.0000 O   0  0  0  0  0  0  0  0  0  0  0  0
    6.1946    1.3845    0.0000 O   0  0  0  0  0  0  0  0  0  0  0  0
    7.8052    3.7370    0.0000 N   0  0  0  0  0  0  0  0  0  0  0  0
    4.4392   -1.6291    0.0000 N   0  0  0  0  0  0  0  0  0  0  0  0
    6.3874   -0.5042    0.0000 C   0  0  2  0  0  0  0  0  0  0  0  0
    6.8874    0.3618    0.0000 C   0  0  2  0  0  0  0  0  0  0  0  0
    7.8052    0.7370    0.0000 C   0  0  1  0  0  0  0  0  0  0  0  0
    6.6463   -1.4701    0.0000 C   0  0  2  0  0  0  0  0  0  0  0  0
    7.8052    1.7370    0.0000 C   0  0  2  0  0  0  0  0  0  0  0  0
    5.5214   -1.0041    0.0000 C   0  0  0  0  0  0  0  0  0  0  0  0
    8.7493    0.4073    0.0000 C   0  0  0  0  0  0  0  0  0  0  0  0
    6.9392    2.2370    0.0000 C   0  0  0  0  0  0  0  0  0  0  0  0
    6.1463   -2.3362    0.0000 C   0  0  0  0  0  0  0  0  0  0  0  0
    6.9392    3.2370    0.0000 C   0  0  1  0  0  0  0  0  0  0  0  0
    6.0731    3.7370    0.0000 C   0  0  1  0  0  0  0  0  0  0  0  0
    5.1463   -2.3362    0.0000 C   0  0  0  0  0  0  0  0  0  0  0  0
    8.6712    3.2370    0.0000 C   0  0  0  0  0  0  0  0  0  0  0  0
    7.1671   -3.1220    0.0000 C   0  0  0  0  0  0  0  0  0  0  0  0
    7.9044   -3.7976    0.0000 C   0  0  0  0  0  0  0  0  0  0  0  0
    5.2071    3.2370    0.0000 C   0  0  0  0  0  0  0  0  0  0  0  0
    4.4392   -0.6291    0.0000 C   0  0  0  0  0  0  0  0  0  0  0  0
    3.5153   -2.0117    0.0000 C   0  0  0  0  0  0  0  0  0  0  0  0
    7.6879   -4.7739    0.0000 C   0  0  0  0  0  0  0  0  0  0  0  0
    8.8581   -3.4969    0.0000 C   0  0  0  0  0  0  0  0  0  0  0  0
    4.2071    3.2370    0.0000 C   0  0  0  0  0  0  0  0  0  0  0  0
    4.6543    4.7304    0.0000 C   0  0  0  0  0  0  0  0  0  0  0  0
    3.5731   -0.1291    0.0000 C   0  0  0  0  0  0  0  0  0  0  0  0
    5.3247   -0.1313    0.0000 C   0  0  0  0  0  0  0  0  0  0  0  0
    3.7071    2.3710    0.0000 C   0  0  0  0  0  0  0  0  0  0  0  0
    3.5731    0.8709    0.0000 C   0  0  0  0  0  0  0  0  0  0  0  0
    2.7071    1.3709    0.0000 C   0  0  0  0  0  0  0  0  0  0  0  0
    2.7071    2.3710    0.0000 C   0  0  0  0  0  0  0  0  0  0  0  0
    5.3286    0.8845    0.0000 C   0  0  0  0  0  0  0  0  0  0  0  0
    4.4469    1.3890    0.0000 C   0  0  0  0  0  0  0  0  0  0  0  0
    2.0000    3.0780    0.0000 C   0  0  0  0  0  0  0  0  0  0  0  0
    6.1946    2.3845    0.0000 C   0  0  0  0  0  0  0  0  0  0  0  0
    6.4623    1.0978    0.0000 H   0  0  0  0  0  0  0  0  0  0  0  0
    8.0248    0.1572    0.0000 H   0  0  0  0  0  0  0  0  0  0  0  0
    7.2610   -1.3892    0.0000 H   0  0  0  0  0  0  0  0  0  0  0  0
    8.5413    1.3120    0.0000 H   0  0  0  0  0  0  0  0  0  0  0  0
    5.2114   -0.4671    0.0000 H   0  0  0  0  0  0  0  0  0  0  0  0
    4.9844   -1.3140    0.0000 H   0  0  0  0  0  0  0  0  0  0  0  0
    5.8313   -1.5411    0.0000 H   0  0  0  0  0  0  0  0  0  0  0  0
    8.5449   -0.1780    0.0000 H   0  0  0  0  0  0  0  0  0  0  0  0
    9.3346    0.2029    0.0000 H   0  0  0  0  0  0  0  0  0  0  0  0
    8.9537    0.9926    0.0000 H   0  0  0  0  0  0  0  0  0  0  0  0
    6.3286    2.3446    0.0000 H   0  0  0  0  0  0  0  0  0  0  0  0
    6.7271    1.6544    0.0000 H   0  0  0  0  0  0  0  0  0  0  0  0
    6.0386   -2.9467    0.0000 H   0  0  0  0  0  0  0  0  0  0  0  0
    6.7289   -2.5482    0.0000 H   0  0  0  0  0  0  0  0  0  0  0  0
    6.2336    4.3358    0.0000 H   0  0  0  0  0  0  0  0  0  0  0  0
    8.1152    4.2739    0.0000 H   0  0  0  0  0  0  0  0  0  0  0  0
    7.2492    4.7739    0.0000 H   0  0  0  0  0  0  0  0  0  0  0  0
    8.3615   -4.2165    0.0000 H   0  0  0  0  0  0  0  0  0  0  0  0
    5.3676    2.6381    0.0000 H   0  0  0  0  0  0  0  0  0  0  0  0
    3.2780   -1.4389    0.0000 H   0  0  0  0  0  0  0  0  0  0  0  0
    2.9425   -2.2490    0.0000 H   0  0  0  0  0  0  0  0  0  0  0  0
    3.7525   -2.5845    0.0000 H   0  0  0  0  0  0  0  0  0  0  0  0
    9.0445   -4.0882    0.0000 H   0  0  0  0  0  0  0  0  0  0  0  0
    9.4494   -3.3105    0.0000 H   0  0  0  0  0  0  0  0  0  0  0  0
    8.6717   -2.9056    0.0000 H   0  0  0  0  0  0  0  0  0  0  0  0
    7.0826   -4.6397    0.0000 H   0  0  0  0  0  0  0  0  0  0  0  0
    7.5538   -5.3792    0.0000 H   0  0  0  0  0  0  0  0  0  0  0  0
    8.2932   -4.9081    0.0000 H   0  0  0  0  0  0  0  0  0  0  0  0
    3.8971    3.7739    0.0000 H   0  0  0  0  0  0  0  0  0  0  0  0
    4.7084    5.3481    0.0000 H   0  0  0  0  0  0  0  0  0  0  0  0
    4.0367    4.7845    0.0000 H   0  0  0  0  0  0  0  0  0  0  0  0
    4.6003    4.1128    0.0000 H   0  0  0  0  0  0  0  0  0  0  0  0
    3.0362   -0.4391    0.0000 H   0  0  0  0  0  0  0  0  0  0  0  0
    4.0171    1.8340    0.0000 H   0  0  0  0  0  0  0  0  0  0  0  0
    2.0965    1.4786    0.0000 H   0  0  0  0  0  0  0  0  0  0  0  0
    2.4950    0.7883    0.0000 H   0  0  0  0  0  0  0  0  0  0  0  0
    4.4422    2.0090    0.0000 H   0  0  0  0  0  0  0  0  0  0  0  0
    2.4384    3.5165    0.0000 H   0  0  0  0  0  0  0  0  0  0  0  0
    1.5616    3.5165    0.0000 H   0  0  0  0  0  0  0  0  0  0  0  0
    1.5616    2.6396    0.0000 H   0  0  0  0  0  0  0  0  0  0  0  0
    6.8146    2.3845    0.0000 H   0  0  0  0  0  0  0  0  0  0  0  0
    6.1946    3.0045    0.0000 H   0  0  0  0  0  0  0  0  0  0  0  0
    5.5746    2.3845    0.0000 H   0  0  0  0  0  0  0  0  0  0  0  0
  1 36  1  0  0  0  0
  2 13  1  0  0  0  0
  2 14  1  0  0  0  0
 16  3  1  1  0  0  0
  3 26  1  0  0  0  0
  4 17  1  0  0  0  0
  4 25  1  0  0  0  0
 22  5  1  1  0  0  0
  5 61  1  0  0  0  0
 23  6  1  1  0  0  0
  6 34  1  0  0  0  0
  7 24  2  0  0  0  0
  8 25  2  0  0  0  0
  9 26  2  0  0  0  0
 10 41  1  0  0  0  0
 10 44  1  0  0  0  0
 11 22  1  0  0  0  0
 11 25  1  0  0  0  0
 11 60  1  0  0  0  0
 12 24  1  0  0  0  0
 12 29  1  0  0  0  0
 12 30  1  0  0  0  0
 13 14  1  0  0  0  0
 13 16  1  0  0  0  0
 13 18  1  6  0  0  0
 14 15  1  0  0  0  0
 14 45  1  1  0  0  0
 15 17  1  0  0  0  0
 15 19  1  1  0  0  0
 15 46  1  0  0  0  0
 16 21  1  0  0  0  0
 16 47  1  0  0  0  0
 17 20  1  0  0  0  0
 17 48  1  1  0  0  0
 18 49  1  0  0  0  0
 18 50  1  0  0  0  0
 18 51  1  0  0  0  0
 19 52  1  0  0  0  0
 19 53  1  0  0  0  0
 19 54  1  0  0  0  0
 20 22  1  0  0  0  0
 20 55  1  0  0  0  0
 20 56  1  0  0  0  0
 21 24  1  0  0  0  0
 21 57  1  0  0  0  0
 21 58  1  0  0  0  0
 22 23  1  0  0  0  0
 23 28  1  0  0  0  0
 23 59  1  0  0  0  0
 26 27  1  0  0  0  0
 27 31  1  0  0  0  0
 27 32  1  0  0  0  0
 27 62  1  0  0  0  0
 28 33  2  0  0  0  0
 28 63  1  0  0  0  0
 29 35  1  0  0  0  0
 29 36  2  0  0  0  0
 30 64  1  0  0  0  0
 30 65  1  0  0  0  0
 30 66  1  0  0  0  0
 31 70  1  0  0  0  0
 31 71  1  0  0  0  0
 31 72  1  0  0  0  0
 32 67  1  0  0  0  0
 32 68  1  0  0  0  0
 32 69  1  0  0  0  0
 33 37  1  0  0  0  0
 33 73  1  0  0  0  0
 34 74  1  0  0  0  0
 34 75  1  0  0  0  0
 34 76  1  0  0  0  0
 35 38  2  0  0  0  0
 35 77  1  0  0  0  0
 36 41  1  0  0  0  0
 37 40  2  0  0  0  0
 37 78  1  0  0  0  0
 38 39  1  0  0  0  0
 38 42  1  0  0  0  0
 39 40  1  0  0  0  0
 39 79  1  0  0  0  0
 39 80  1  0  0  0  0
 40 43  1  0  0  0  0
 41 42  2  0  0  0  0
 42 81  1  0  0  0  0
 43 82  1  0  0  0  0
 43 83  1  0  0  0  0
 43 84  1  0  0  0  0
 44 85  1  0  0  0  0
 44 86  1  0  0  0  0
 44 87  1  0  0  0  0
M  END
> <PUBCHEM_COMPOUND_CID>
5282049

> <PUBCHEM_COMPOUND_CANONICALIZED>
1

> <PUBCHEM_CACTVS_COMPLEXITY>
1150

> <PUBCHEM_CACTVS_HBOND_ACCEPTOR>
9

> <PUBCHEM_CACTVS_HBOND_DONOR>
2

> <PUBCHEM_CACTVS_ROTATABLE_BOND>
5

> <PUBCHEM_CACTVS_SUBSKEYS>
AAADcfB/PAAEAAAAAAAAAAAAEgAAAAAAAAA8QAAAAAAAAAABAAAAHgIQCAAADV6hmCYyzoPABgCIAiXSWACCCAAhJkAIiAEOb4kPJjfFs5vPcChn9hnb6Af6/P/OBAABQgAACBAIAAKEAAAQIAAAAAAAAA==

> <PUBCHEM_IUPAC_INCHI>
InChI=1S/C32H43ClN2O9/c1-17(2)29(37)43-25-15-26(36)35(6)21-13-20(14-22(40-7)27(21)33)12-18(3)10-9-11-24(41-8)32(39)16-23(42-30(38)34-32)19(4)28-31(25,5)44-28/h9-11,13-14,17,19,23-25,28,39H,12,15-16H2,1-8H3,(H,34,38)/b11-9+,18-10+/t19-,23+,24-,25+,28+,31+,32+/m1/s1

> <PUBCHEM_IUPAC_INCHIKEY>
OPQNCARIZFLNLF-JBHFWYGFSA-N

> <PUBCHEM_XLOGP3>
3.1

> <PUBCHEM_EXACT_MASS>
634.265709

> <PUBCHEM_MOLECULAR_FORMULA>
C32H43ClN2O9

> <PUBCHEM_MOLECULAR_WEIGHT>
635.14482

> <PUBCHEM_OPENEYE_CAN_SMILES>
CC1C2CC(C(C=CC=C(CC3=CC(=C(C(=C3)OC)Cl)N(C(=O)CC(C4(C1O4)C)OC(=O)C(C)C)C)C)OC)(NC(=O)O2)O

> <PUBCHEM_OPENEYE_ISO_SMILES>
C[C@@H]1[C@@H]2C[C@]([C@@H](/C=C/C=C(/CC3=CC(=C(C(=C3)OC)Cl)N(C(=O)C[C@@H]([C@]4([C@H]1O4)C)OC(=O)C(C)C)C)\C)OC)(NC(=O)O2)O

> <PUBCHEM_CACTVS_TPSA>
136

> <PUBCHEM_MONOISOTOPIC_WEIGHT>
634.265709

> <PUBCHEM_TOTAL_CHARGE>
0

> <PUBCHEM_HEAVY_ATOM_COUNT>
44

> <PUBCHEM_ATOM_DEF_STEREO_COUNT>
7

> <PUBCHEM_ATOM_UDEF_STEREO_COUNT>
0

> <PUBCHEM_BOND_DEF_STEREO_COUNT>
2

> <PUBCHEM_BOND_UDEF_STEREO_COUNT>
0

> <PUBCHEM_ISOTOPIC_ATOM_COUNT>
0

> <PUBCHEM_COMPONENT_COUNT>
1

> <PUBCHEM_CACTVS_TAUTO_COUNT>
2

> <PUBCHEM_COORDINATE_TYPE>
1
5
255

> <PUBCHEM_BONDANNOTATIONS>
13  18  6
14  45  5
15  19  5
17  48  5
29  35  8
29  36  8
16  3  5
35  38  8
36  41  8
38  42  8
41  42  8
22  5  5
23  6  5

$$$$

