   Color/Form

     * Faintly yellow solid
     * WHITE TO CREAMY WHITE POWDER
     * White, free-flowing, amorphous powder or aqueous solution

   from [1]HSDB

   Odor
        ODORLESS
   from [2]HSDB

   Boiling Point
        90-93 deg C
   from [3]HSDB

   Melting Point
        13.9 deg C
   from [4]HSDB

   Density/Specific Gravity
        1.23-1.29
   from [5]HSDB

   pH
        Between 3 & 7 (1 in 20 soln)
   from [6]HSDB

   Solubilities

     * Sol in water giving a colloidal soln; practically insol in ether;
       sol in alcohol, chloroform
     * Sol in chlorinated hydrocarbons, amines, nitro paraffins, lower wt
       fatty acids

   from [7]HSDB

   Spectral Properties
        SPECTROSCOPY DATA: INFRA-RED CARBONYL BAND AT 1680 CM X 10-1
   from [8]HSDB

   Other Chemical/Physical Properties

     * A 3.5% soln develops an osmotic pressure of 400 mm water
     * Forms complexes with a great many substances (eg iodine, polyacids,
       toxins, drugs, chemicals & dyes)
     * Highly hygroscopic and should be stored under air tight conditions.

   from [9]HSDB

   Computed Properties
   Molecular Weight                  111.14176 [g/mol]
   Molecular Formula                 C[6]H[9]NO
   XLogP3                            0.4
   H-Bond Donor                      0
   H-Bond Acceptor                   1
   Rotatable Bond Count              1
   Tautomer Count                    2
   Exact Mass                        111.068414
   MonoIsotopic Mass                 111.068414
   Topological Polar Surface Area    20.3
   Heavy Atom Count                  8
   Formal Charge                     0
   Complexity                        120
   Isotope Atom Count                0
   Defined Atom Stereocenter Count   0
   Undefined Atom Stereocenter Count 0
   Defined Bond Stereocenter Count   0
   Undefined Bond Stereocenter Count 0
   Covalently-Bonded Unit Count      1
   Feature 3D Acceptor Count         1
   Feature 3D Ring Count             1
   Effective Rotor Count             1.8
   Conformer Sampling RMSD           0.4
   CID Conformer Count               [10]4

References

   1. http://toxnet.nlm.nih.gov/cgi-bin/sis/search/r?dbs+hsdb:@term+@rn+@rel+9003-39-8
   2. http://toxnet.nlm.nih.gov/cgi-bin/sis/search/r?dbs+hsdb:@term+@rn+@rel+9003-39-8
   3. http://toxnet.nlm.nih.gov/cgi-bin/sis/search/r?dbs+hsdb:@term+@rn+@rel+9003-39-8
   4. http://toxnet.nlm.nih.gov/cgi-bin/sis/search/r?dbs+hsdb:@term+@rn+@rel+9003-39-8
   5. http://toxnet.nlm.nih.gov/cgi-bin/sis/search/r?dbs+hsdb:@term+@rn+@rel+9003-39-8
   6. http://toxnet.nlm.nih.gov/cgi-bin/sis/search/r?dbs+hsdb:@term+@rn+@rel+9003-39-8
   7. http://toxnet.nlm.nih.gov/cgi-bin/sis/search/r?dbs+hsdb:@term+@rn+@rel+9003-39-8
   8. http://toxnet.nlm.nih.gov/cgi-bin/sis/search/r?dbs+hsdb:@term+@rn+@rel+9003-39-8
   9. http://toxnet.nlm.nih.gov/cgi-bin/sis/search/r?dbs+hsdb:@term+@rn+@rel+9003-39-8
  10. http://pubchem.ncbi.nlm.nih.gov/vw3d/vw3d.cgi?cid=6917
