   Color/Form
        COLORLESS LIQUID
   from [1]HSDB

   Boiling Point
        270.6 DEG C @ 760 MM HG
   from [2]HSDB

   Melting Point
        9.9 DEG C
   from [3]HSDB

   Density/Specific Gravity
        O.7685 @ 20 DEG C/4 DEG C
   from [4]HSDB

   Solubilities

     * Very soluble in ethyl ether, ethanol
     * In water, 7.6X10-5 mg/l

   from [5]HSDB

   Spectral Properties

     * INDEX OF REFRACTION: 1.4315 @ 20 DEG C
     * IR: 36952 (Sadtler Research Laboratories Prism Collection)
     * NMR: 5684 (Sadtler Research Laboratories Spectral Collection)
     * MASS: 1516 (Atlas of Mass Spectral Data, John Wiley & Sons, New
       York)

   from [6]HSDB

   Vapor Pressure
        3.4X10-3 mm Hg @ 25 deg C
   from [7]HSDB

   Viscosity
        37.0 (SUS)
   from [8]HSDB

   Other Chemical/Physical Properties
        WEIGHT/VOLUME CONVERSION: 8.69 MG/CU M (APPROX 1 PPM)
   from [9]HSDB

   Computed Properties
   Molecular Weight                  212.41458 [g/mol]
   Molecular Formula                 C[15]H[32]
   XLogP3                            7.7
   H-Bond Donor                      0
   H-Bond Acceptor                   0
   Rotatable Bond Count              12
   Exact Mass                        212.250401
   MonoIsotopic Mass                 212.250401
   Topological Polar Surface Area    0
   Heavy Atom Count                  15
   Formal Charge                     0
   Complexity                        84.2
   Isotope Atom Count                0
   Defined Atom Stereocenter Count   0
   Undefined Atom Stereocenter Count 0
   Defined Bond Stereocenter Count   0
   Undefined Bond Stereocenter Count 0
   Covalently-Bonded Unit Count      1
   Feature 3D Hydrophobe Count       2
   Effective Rotor Count             12
   Conformer Sampling RMSD           1
   CID Conformer Count               [10]352

References

   1. http://toxnet.nlm.nih.gov/cgi-bin/sis/search/r?dbs+hsdb:@term+@rn+@rel+629-62-9
   2. http://toxnet.nlm.nih.gov/cgi-bin/sis/search/r?dbs+hsdb:@term+@rn+@rel+629-62-9
   3. http://toxnet.nlm.nih.gov/cgi-bin/sis/search/r?dbs+hsdb:@term+@rn+@rel+629-62-9
   4. http://toxnet.nlm.nih.gov/cgi-bin/sis/search/r?dbs+hsdb:@term+@rn+@rel+629-62-9
   5. http://toxnet.nlm.nih.gov/cgi-bin/sis/search/r?dbs+hsdb:@term+@rn+@rel+629-62-9
   6. http://toxnet.nlm.nih.gov/cgi-bin/sis/search/r?dbs+hsdb:@term+@rn+@rel+629-62-9
   7. http://toxnet.nlm.nih.gov/cgi-bin/sis/search/r?dbs+hsdb:@term+@rn+@rel+629-62-9
   8. http://toxnet.nlm.nih.gov/cgi-bin/sis/search/r?dbs+hsdb:@term+@rn+@rel+629-62-9
   9. http://toxnet.nlm.nih.gov/cgi-bin/sis/search/r?dbs+hsdb:@term+@rn+@rel+629-62-9
  10. http://pubchem.ncbi.nlm.nih.gov/vw3d/vw3d.cgi?cid=12391
