443449
  -OEChem-07051213022D

 47 52  0     1  0  0  0  0  0999 V2000
    5.4014   -0.1580    0.0000 O   0  0  0  0  0  0  0  0  0  0  0  0
    2.3981   -1.5634    0.0000 O   0  0  0  0  0  0  0  0  0  0  0  0
    9.0341   -1.7227    0.0000 O   0  0  0  0  0  0  0  0  0  0  0  0
    3.8200    1.2714    0.0000 O   0  0  0  0  0  0  0  0  0  0  0  0
    6.3210    1.7562    0.0000 O   0  0  0  0  0  0  0  0  0  0  0  0
    5.1125    2.1947    0.0000 O   0  0  0  0  0  0  0  0  0  0  0  0
    4.9775   -1.2152    0.0000 C   0  0  1  0  0  0  0  0  0  0  0  0
    4.6838   -0.3066    0.0000 C   0  0  1  0  0  0  0  0  0  0  0  0
    6.2301   -0.3050    0.0000 C   0  0  1  0  0  0  0  0  0  0  0  0
    5.9330   -1.2187    0.0000 C   0  0  1  0  0  0  0  0  0  0  0  0
    3.7198   -0.1001    0.0000 C   0  0  3  0  0  0  0  0  0  0  0  0
    5.4564    0.2553    0.0000 C   0  0  1  0  0  0  0  0  0  0  0  0
    3.0590   -0.8318    0.0000 C   0  0  2  0  0  0  0  0  0  0  0  0
    4.3262   -1.9764    0.0000 C   0  0  0  0  0  0  0  0  0  0  0  0
    3.3622   -1.7699    0.0000 C   0  0  2  0  0  0  0  0  0  0  0  0
    6.9759   -1.1608    0.0000 C   0  0  0  0  0  0  0  0  0  0  0  0
    6.4616   -2.0207    0.0000 C   0  0  0  0  0  0  0  0  0  0  0  0
    7.1303    0.0319    0.0000 C   0  0  0  0  0  0  0  0  0  0  0  0
    8.0832   -1.4133    0.0000 C   0  0  2  0  0  0  0  0  0  0  0  0
    4.4812    0.5212    0.0000 C   0  0  0  0  0  0  0  0  0  0  0  0
    7.4187   -2.1072    0.0000 C   0  0  0  0  0  0  0  0  0  0  0  0
    7.9542   -0.4612    0.0000 C   0  0  0  0  0  0  0  0  0  0  0  0
    3.0307    0.6245    0.0000 C   0  0  0  0  0  0  0  0  0  0  0  0
    5.4555    1.2553    0.0000 C   0  0  0  0  0  0  0  0  0  0  0  0
    8.7078    0.1962    0.0000 C   0  0  0  0  0  0  0  0  0  0  0  0
    4.9235    0.5089    0.0000 H   0  0  0  0  0  0  0  0  0  0  0  0
    5.5286   -1.9663    0.0000 H   0  0  0  0  0  0  0  0  0  0  0  0
    4.9038    0.5364    0.0000 H   0  0  0  0  0  0  0  0  0  0  0  0
    2.5988   -0.4162    0.0000 H   0  0  0  0  0  0  0  0  0  0  0  0
    4.8573   -2.2963    0.0000 H   0  0  0  0  0  0  0  0  0  0  0  0
    4.0982   -2.5530    0.0000 H   0  0  0  0  0  0  0  0  0  0  0  0
    3.2324   -2.3762    0.0000 H   0  0  0  0  0  0  0  0  0  0  0  0
    7.0314   -1.7784    0.0000 H   0  0  0  0  0  0  0  0  0  0  0  0
    6.4056   -1.4041    0.0000 H   0  0  0  0  0  0  0  0  0  0  0  0
    6.5445   -2.6351    0.0000 H   0  0  0  0  0  0  0  0  0  0  0  0
    5.8810   -2.2382    0.0000 H   0  0  0  0  0  0  0  0  0  0  0  0
    6.7892    0.5497    0.0000 H   0  0  0  0  0  0  0  0  0  0  0  0
    7.5591    0.4797    0.0000 H   0  0  0  0  0  0  0  0  0  0  0  0
    7.9507   -2.4255    0.0000 H   0  0  0  0  0  0  0  0  0  0  0  0
    7.2268   -2.6967    0.0000 H   0  0  0  0  0  0  0  0  0  0  0  0
    2.5814    0.1973    0.0000 H   0  0  0  0  0  0  0  0  0  0  0  0
    2.6034    1.0738    0.0000 H   0  0  0  0  0  0  0  0  0  0  0  0
    3.4800    1.0518    0.0000 H   0  0  0  0  0  0  0  0  0  0  0  0
    9.1628   -2.3292    0.0000 H   0  0  0  0  0  0  0  0  0  0  0  0
    8.5885    0.8046    0.0000 H   0  0  0  0  0  0  0  0  0  0  0  0
    9.2944   -0.0046    0.0000 H   0  0  0  0  0  0  0  0  0  0  0  0
    6.3204    2.3762    0.0000 H   0  0  0  0  0  0  0  0  0  0  0  0
  7  1  1  1  0  0  0
  1 20  1  0  0  0  0
 13  2  1  6  0  0  0
 15  2  1  6  0  0  0
 19  3  1  1  0  0  0
  3 44  1  0  0  0  0
  4 20  2  0  0  0  0
  5 24  1  0  0  0  0
  5 47  1  0  0  0  0
  6 24  2  0  0  0  0
  7  8  1  0  0  0  0
  7 10  1  0  0  0  0
  7 14  1  0  0  0  0
  8 11  1  0  0  0  0
  8 12  1  0  0  0  0
  8 26  1  6  0  0  0
  9 10  1  0  0  0  0
  9 12  1  0  0  0  0
  9 16  1  1  0  0  0
  9 18  1  0  0  0  0
 10 17  1  0  0  0  0
 10 27  1  6  0  0  0
 11 13  1  0  0  0  0
 11 20  1  0  0  0  0
 11 23  1  0  0  0  0
 12 24  1  6  0  0  0
 12 28  1  0  0  0  0
 13 15  1  0  0  0  0
 13 29  1  0  0  0  0
 14 15  1  0  0  0  0
 14 30  1  0  0  0  0
 14 31  1  0  0  0  0
 15 32  1  0  0  0  0
 16 19  1  0  0  0  0
 16 33  1  0  0  0  0
 16 34  1  0  0  0  0
 17 21  1  0  0  0  0
 17 35  1  0  0  0  0
 17 36  1  0  0  0  0
 18 22  1  0  0  0  0
 18 37  1  0  0  0  0
 18 38  1  0  0  0  0
 19 21  1  0  0  0  0
 19 22  1  0  0  0  0
 21 39  1  0  0  0  0
 21 40  1  0  0  0  0
 22 25  2  0  0  0  0
 23 41  1  0  0  0  0
 23 42  1  0  0  0  0
 23 43  1  0  0  0  0
 25 45  1  0  0  0  0
 25 46  1  0  0  0  0
M  END
> <PUBCHEM_COMPOUND_CID>
443449

> <PUBCHEM_COMPOUND_CANONICALIZED>
1

> <PUBCHEM_CACTVS_COMPLEXITY>
776

> <PUBCHEM_CACTVS_HBOND_ACCEPTOR>
6

> <PUBCHEM_CACTVS_HBOND_DONOR>
2

> <PUBCHEM_CACTVS_ROTATABLE_BOND>
1

> <PUBCHEM_CACTVS_SUBSKEYS>
AAADceB4OAAAAAAAAAAAAAAAEgAAAaMEAAAwYAAABokSAGDAAAAAGgAACAAAD1SggAICCAAABgCIAgDSCAAAAAAgAAAAAAEAAAgABBYAAQACQAAFoAAAEAHK7vzPgAAAAAAAAADCAAYQADAAAYAADAAAAA==

> <PUBCHEM_IUPAC_INCHI>
InChI=1S/C19H22O6/c1-8-5-17-7-18(8,23)4-3-10(17)19-6-9-13(24-9)16(2,15(22)25-19)12(19)11(17)14(20)21/h9-13,23H,1,3-7H2,2H3,(H,20,21)/t9-,10+,11+,12+,13-,16?,17-,18-,19+/m0/s1

> <PUBCHEM_IUPAC_INCHIKEY>
XNBWKKYPKJHUKD-JXHFLFEZSA-N

> <PUBCHEM_XLOGP3_AA>
0.2

> <PUBCHEM_EXACT_MASS>
346.141638

> <PUBCHEM_MOLECULAR_FORMULA>
C19H22O6

> <PUBCHEM_MOLECULAR_WEIGHT>
346.37438

> <PUBCHEM_OPENEYE_CAN_SMILES>
CC12C3C(C45CC(=C)C(C4)(CCC5C3(CC6C1O6)OC2=O)O)C(=O)O

> <PUBCHEM_OPENEYE_ISO_SMILES>
CC12[C@H]3[C@@H]([C@@]45CC(=C)[C@@](C4)(CC[C@H]5[C@@]3(C[C@H]6[C@@H]1O6)OC2=O)O)C(=O)O

> <PUBCHEM_CACTVS_TPSA>
96.4

> <PUBCHEM_MONOISOTOPIC_WEIGHT>
346.141638

> <PUBCHEM_TOTAL_CHARGE>
0

> <PUBCHEM_HEAVY_ATOM_COUNT>
25

> <PUBCHEM_ATOM_DEF_STEREO_COUNT>
8

> <PUBCHEM_ATOM_UDEF_STEREO_COUNT>
1

> <PUBCHEM_BOND_DEF_STEREO_COUNT>
0

> <PUBCHEM_BOND_UDEF_STEREO_COUNT>
0

> <PUBCHEM_ISOTOPIC_ATOM_COUNT>
0

> <PUBCHEM_COMPONENT_COUNT>
1

> <PUBCHEM_CACTVS_TAUTO_COUNT>
1

> <PUBCHEM_COORDINATE_TYPE>
1
5
255

> <PUBCHEM_BONDANNOTATIONS>
7  1  5
10  27  6
11  23  3
12  24  6
13  2  6
15  2  6
19  3  5
8  26  6
9  16  5

$$$$

