25137938
  -OEChem-07051213112D

 38 40  0     1  0  0  0  0  0999 V2000
    2.0000   -0.9093    0.0000 O   0  0  0  0  0  0  0  0  0  0  0  0
    4.5772   -0.7554    0.0000 C   0  0  2  0  0  0  0  0  0  0  0  0
    5.0772    1.4352    0.0000 C   0  0  1  0  0  0  0  0  0  0  0  0
    4.4704    0.4214    0.0000 C   0  0  0  0  0  0  0  0  0  0  0  0
    4.0772    1.4352    0.0000 C   0  0  0  0  0  0  0  0  0  0  0  0
    5.4782   -0.3215    0.0000 C   0  0  0  0  0  0  0  0  0  0  0  0
    4.4413   -1.7401    0.0000 C   0  0  2  0  0  0  0  0  0  0  0  0
    5.7007    0.6534    0.0000 C   0  0  0  0  0  0  0  0  0  0  0  0
    3.6763   -0.3215    0.0000 C   0  0  0  0  0  0  0  0  0  0  0  0
    3.4538    0.6534    0.0000 C   0  0  0  0  0  0  0  0  0  0  0  0
    3.4630   -1.9168    0.0000 C   0  0  0  0  0  0  0  0  0  0  0  0
    2.9912   -1.0418    0.0000 C   0  0  0  0  0  0  0  0  0  0  0  0
    3.2510    1.9986    0.0000 C   0  0  0  0  0  0  0  0  0  0  0  0
    4.1520    2.4324    0.0000 C   0  0  0  0  0  0  0  0  0  0  0  0
    5.1629   -2.4324    0.0000 C   0  0  0  0  0  0  0  0  0  0  0  0
    2.4788    0.8759    0.0000 C   0  0  0  0  0  0  0  0  0  0  0  0
    5.2664    2.2639    0.0000 H   0  0  0  0  0  0  0  0  0  0  0  0
    4.0626    0.8884    0.0000 H   0  0  0  0  0  0  0  0  0  0  0  0
    3.9004    0.1775    0.0000 H   0  0  0  0  0  0  0  0  0  0  0  0
    5.6162   -0.9260    0.0000 H   0  0  0  0  0  0  0  0  0  0  0  0
    6.0982   -0.3215    0.0000 H   0  0  0  0  0  0  0  0  0  0  0  0
    4.2622   -2.3337    0.0000 H   0  0  0  0  0  0  0  0  0  0  0  0
    6.2593    0.3844    0.0000 H   0  0  0  0  0  0  0  0  0  0  0  0
    6.0873    1.1382    0.0000 H   0  0  0  0  0  0  0  0  0  0  0  0
    2.8894   -2.1521    0.0000 H   0  0  0  0  0  0  0  0  0  0  0  0
    3.6367   -2.5120    0.0000 H   0  0  0  0  0  0  0  0  0  0  0  0
    4.7702    2.3861    0.0000 H   0  0  0  0  0  0  0  0  0  0  0  0
    4.1983    3.0507    0.0000 H   0  0  0  0  0  0  0  0  0  0  0  0
    3.5337    2.4788    0.0000 H   0  0  0  0  0  0  0  0  0  0  0  0
    3.6003    2.5108    0.0000 H   0  0  0  0  0  0  0  0  0  0  0  0
    2.7388    2.3478    0.0000 H   0  0  0  0  0  0  0  0  0  0  0  0
    2.9018    1.4863    0.0000 H   0  0  0  0  0  0  0  0  0  0  0  0
    4.7336   -2.8798    0.0000 H   0  0  0  0  0  0  0  0  0  0  0  0
    5.6102   -2.8617    0.0000 H   0  0  0  0  0  0  0  0  0  0  0  0
    5.5921   -1.9851    0.0000 H   0  0  0  0  0  0  0  0  0  0  0  0
    2.6168    1.4804    0.0000 H   0  0  0  0  0  0  0  0  0  0  0  0
    1.8744    1.0139    0.0000 H   0  0  0  0  0  0  0  0  0  0  0  0
    2.3409    0.2715    0.0000 H   0  0  0  0  0  0  0  0  0  0  0  0
  1 12  2  0  0  0  0
  2  4  1  6  0  0  0
  2  6  1  0  0  0  0
  2  7  1  0  0  0  0
  2  9  1  0  0  0  0
  3  4  1  0  0  0  0
  3  5  1  0  0  0  0
  3  8  1  0  0  0  0
  3 17  1  6  0  0  0
  4 18  1  0  0  0  0
  4 19  1  0  0  0  0
  5 10  1  0  0  0  0
  5 13  1  0  0  0  0
  5 14  1  0  0  0  0
  6  8  1  0  0  0  0
  6 20  1  0  0  0  0
  6 21  1  0  0  0  0
  7 11  1  0  0  0  0
  7 15  1  1  0  0  0
  7 22  1  0  0  0  0
  8 23  1  0  0  0  0
  8 24  1  0  0  0  0
  9 10  2  0  0  0  0
  9 12  1  0  0  0  0
 10 16  1  0  0  0  0
 11 12  1  0  0  0  0
 11 25  1  0  0  0  0
 11 26  1  0  0  0  0
 13 30  1  0  0  0  0
 13 31  1  0  0  0  0
 13 32  1  0  0  0  0
 14 27  1  0  0  0  0
 14 28  1  0  0  0  0
 14 29  1  0  0  0  0
 15 33  1  0  0  0  0
 15 34  1  0  0  0  0
 15 35  1  0  0  0  0
 16 36  1  0  0  0  0
 16 37  1  0  0  0  0
 16 38  1  0  0  0  0
M  END
> <PUBCHEM_COMPOUND_CID>
25137938

> <PUBCHEM_COMPOUND_CANONICALIZED>
1

> <PUBCHEM_CACTVS_COMPLEXITY>
402

> <PUBCHEM_CACTVS_HBOND_ACCEPTOR>
1

> <PUBCHEM_CACTVS_HBOND_DONOR>
0

> <PUBCHEM_CACTVS_ROTATABLE_BOND>
0

> <PUBCHEM_CACTVS_SUBSKEYS>
AAADceBwIAAAAAAAAAAAAAAAAAAAAYMAAAAgAAAABAAAAECAAAAAGgAAAAAADwSAgAACAAAAAACIAoBQAAAAAAAgAAAACAEAAEgAABIAAAAAAAAAgAAIAQMIiMCPgAAAAAAAAAAAAAAAAAAAAQAACAAAAA==

> <PUBCHEM_IUPAC_INCHI>
InChI=1S/C15H22O/c1-9-7-12(16)13-10(2)14(3,4)11-5-6-15(9,13)8-11/h9,11H,5-8H2,1-4H3/t9-,11-,15+/m0/s1

> <PUBCHEM_IUPAC_INCHIKEY>
SHUZZAXJEJPUGA-CCUNJIBTSA-N

> <PUBCHEM_XLOGP3_AA>
3.6

> <PUBCHEM_EXACT_MASS>
218.167065

> <PUBCHEM_MOLECULAR_FORMULA>
C15H22O

> <PUBCHEM_MOLECULAR_WEIGHT>
218.33458

> <PUBCHEM_OPENEYE_CAN_SMILES>
CC1CC(=O)C2=C(C(C3CCC12C3)(C)C)C

> <PUBCHEM_OPENEYE_ISO_SMILES>
C[C@H]1CC(=O)C2=C(C([C@H]3CC[C@@]12C3)(C)C)C

> <PUBCHEM_CACTVS_TPSA>
17.1

> <PUBCHEM_MONOISOTOPIC_WEIGHT>
218.167065

> <PUBCHEM_TOTAL_CHARGE>
0

> <PUBCHEM_HEAVY_ATOM_COUNT>
16

> <PUBCHEM_ATOM_DEF_STEREO_COUNT>
3

> <PUBCHEM_ATOM_UDEF_STEREO_COUNT>
0

> <PUBCHEM_BOND_DEF_STEREO_COUNT>
0

> <PUBCHEM_BOND_UDEF_STEREO_COUNT>
0

> <PUBCHEM_ISOTOPIC_ATOM_COUNT>
0

> <PUBCHEM_COMPONENT_COUNT>
1

> <PUBCHEM_CACTVS_TAUTO_COUNT>
5

> <PUBCHEM_COORDINATE_TYPE>
1
5
255

> <PUBCHEM_BONDANNOTATIONS>
2  4  6
3  17  6
7  15  5

$$$$

