8725
  -OEChem-06261203022D

 10  8  0     0  0  0  0  0  0999 V2000
    2.5369   -1.0000    0.0000 K   0  3  0  0  0  0  0  0  0  0  0  0
    2.5369    1.0000    0.0000 S   0  0  0  0  0  0  0  0  0  0  0  0
    3.4030   -0.5000    0.0000 S   0  5  0  0  0  0  0  0  0  0  0  0
    4.2690    1.0000    0.0000 N   0  0  0  0  0  0  0  0  0  0  0  0
    5.1350    0.5000    0.0000 C   0  0  0  0  0  0  0  0  0  0  0  0
    3.4030    0.5000    0.0000 C   0  0  0  0  0  0  0  0  0  0  0  0
    4.8250   -0.0369    0.0000 H   0  0  0  0  0  0  0  0  0  0  0  0
    5.6719    0.1900    0.0000 H   0  0  0  0  0  0  0  0  0  0  0  0
    5.4450    1.0369    0.0000 H   0  0  0  0  0  0  0  0  0  0  0  0
    2.0000    0.6900    0.0000 H   0  0  0  0  0  0  0  0  0  0  0  0
  2  6  1  0  0  0  0
  2 10  1  0  0  0  0
  3  6  1  0  0  0  0
  4  5  1  0  0  0  0
  4  6  2  0  0  0  0
  5  7  1  0  0  0  0
  5  8  1  0  0  0  0
  5  9  1  0  0  0  0
M  CHG  2   1   1   3  -1
M  END
> <PUBCHEM_COMPOUND_CID>
8725

> <PUBCHEM_COMPOUND_CANONICALIZED>
1

> <PUBCHEM_CACTVS_COMPLEXITY>
49.6

> <PUBCHEM_CACTVS_HBOND_ACCEPTOR>
3

> <PUBCHEM_CACTVS_HBOND_DONOR>
1

> <PUBCHEM_CACTVS_ROTATABLE_BOND>
0

> <PUBCHEM_CACTVS_SUBSKEYS>
AAADcYBCAABgQAAAAAAAAAAAAAAAAAAAAAAAAAAAAAAAAAAAAAAAFAQAAAAAAAAAAAQCAAIAAAQgAAAABAAAEAAAAAAAAAAAAAAAAAAAAAAAAAAAAAAAAAAAAAAAAAAAAAAAAAAAAAAAAAAAAAAAAAAAAA==

> <PUBCHEM_IUPAC_OPENEYE_NAME>
potassium N-methyl-1-sulfanyl-methanimidothioate

> <PUBCHEM_IUPAC_CAS_NAME>
potassium 1-mercapto-N-methylmethanimidothioate

> <PUBCHEM_IUPAC_NAME>
potassium N-methyl-1-sulfanylmethanimidothioate

> <PUBCHEM_IUPAC_SYSTEMATIC_NAME>
potassium N-methyl-1-sulfanyl-methanimidothioate

> <PUBCHEM_IUPAC_TRADITIONAL_NAME>
potassium 1-mercapto-N-methyl-thioformimidate

> <PUBCHEM_IUPAC_INCHI>
InChI=1S/C2H5NS2.K/c1-3-2(4)5;/h1H3,(H2,3,4,5);/q;+1/p-1

> <PUBCHEM_IUPAC_INCHIKEY>
DQRQIQZHRCRSDB-UHFFFAOYSA-M

> <PUBCHEM_EXACT_MASS>
144.942223

> <PUBCHEM_MOLECULAR_FORMULA>
C2H4KNS2

> <PUBCHEM_MOLECULAR_WEIGHT>
145.28816

> <PUBCHEM_OPENEYE_CAN_SMILES>
CN=C(S)[S-].[K+]

> <PUBCHEM_OPENEYE_ISO_SMILES>
CN=C(S)[S-].[K+]

> <PUBCHEM_CACTVS_TPSA>
14.4

> <PUBCHEM_MONOISOTOPIC_WEIGHT>
144.942223

> <PUBCHEM_TOTAL_CHARGE>
0

> <PUBCHEM_HEAVY_ATOM_COUNT>
6

> <PUBCHEM_ATOM_DEF_STEREO_COUNT>
0

> <PUBCHEM_ATOM_UDEF_STEREO_COUNT>
0

> <PUBCHEM_BOND_DEF_STEREO_COUNT>
0

> <PUBCHEM_BOND_UDEF_STEREO_COUNT>
0

> <PUBCHEM_ISOTOPIC_ATOM_COUNT>
0

> <PUBCHEM_COMPONENT_COUNT>
2

> <PUBCHEM_CACTVS_TAUTO_COUNT>
2

> <PUBCHEM_COORDINATE_TYPE>
1
5
255

$$$$

