   Color/Form

     * Slightly oily liquid
     * Faint yellow liquid.
     * Colorless liquid
     * Colorless to faint-yellow, oily liquid.

   from [1]HSDB

   Odor

     * Intensely irritating tear gas odor
     * Intensely irritating odor.
     * Pepper-like

   from [2]HSDB

   Boiling Point
        112 deg C at 757 mm Hg
   from [3]HSDB

   Melting Point
        -64 deg C (-69.2 deg C corr)
   from [4]HSDB

   Corrosivity
        RELATIVELY INERT CHEMICALLY & NON-CORROSIVE TO COPPER, BRASS &
   BRONZE BUT ATTACKS IRON, ZINC & OTHER LIGHT METALS
   from [5]HSDB

   Density/Specific Gravity
        1.6448 at 20 deg C/4 deg C; 1.6483 at 25 deg C/4 deg C
   from [6]HSDB

   Heat of Vaporization
        LATENT HEAT OF VAPORIZATION: 57.3 CAL/G
   from [7]HSDB

   Octanol/Water Partition Coefficient
        log Kow = 2.09
   from [8]HSDB

   Solubilities

     * Miscible with most organic solvents, e.g. acetone, benzene,
       ethanol, methanol, carbon disulfide, diethyl ether, carbon
       tetrachloride
     * Miscible with absolute alcohol; soluble in ether
     * Miscible with acetic acid
     * 0.19 g/100 ml H2O at 20 deg C
     * In water: 0.2272 g/100 mL at 0 deg C
     * In water, 1.62X10+3 mg/L at 25 deg C

   from [9]HSDB

   Spectral Properties

     * Index of refraction: 1.4611 at 20 deg C/D; 1.4596 at 25 deg C/D
     * MAX ABSORPTION (ALCOHOL): 276.5 NM (LOG E= 1.79)
     * IR: 11589 (Sadtler Research Laboratories Prism Collection)
     * UV: HBCP 277
     * MASS: 6033 (NIST/EPA/MSDC Mass Spectral database, 1990 version); 57
       (Atlas of Mass Spectral Data, John Wiley & Sons, New York)

   from [10]HSDB

   Surface Tension
        LIQUID SURFACE TENSION: 32.3 DYNES/CM @ 20 DEG C; LIQUID-WATER
   INTERFACIAL TENSION: (EST) 30 DYNES/CM @ 20 DEG C
   from [11]HSDB

   Vapor Density
        5.7 (air = 1)
   from [12]HSDB

   Vapor Pressure
        3.2 kPa (24 mm Hg) at 25 deg C
   from [13]HSDB

   Other Chemical/Physical Properties

     * Conversion factors: 1 mg/L = 148.8 ppm, 1 ppm = 6.72 mg/cu m
     * Dipole moment in heptane or benzene, 1.80 debyes
     * Heavy liquid
     * NOT DECOMPOSED BY WATER OR MINERAL ACIDS
     * Saturated vapor concn 170 g/cu m at 20 deg C; 286 g/ cu m at 30 deg
       C
     * RATIO OF SPECIFIC HEATS OF VAPOR (GAS): 1.0991.
     * 5.7 MM HG AT @ 0 DEG C
     * Henry's Law constant = 2.05X10-3 atm-cu m/mol at 25 deg C
     * Hydroxyl radical reaction rate constant = 1.30X10-13 cu
       cm/molec-sec (est)

   from [14]HSDB

   Computed Properties
   Molecular Weight                  164.3752 [g/mol]
   Molecular Formula                 CCl[3]NO[2]
   XLogP3                            2.1
   H-Bond Donor                      0
   H-Bond Acceptor                   2
   Rotatable Bond Count              0
   Exact Mass                        162.899461
   MonoIsotopic Mass                 162.899461
   Topological Polar Surface Area    45.8
   Heavy Atom Count                  7
   Formal Charge                     0
   Complexity                        79.9
   Isotope Atom Count                0
   Defined Atom Stereocenter Count   0
   Undefined Atom Stereocenter Count 0
   Defined Bond Stereocenter Count   0
   Undefined Bond Stereocenter Count 0
   Covalently-Bonded Unit Count      1
   Feature 3D Acceptor Count         2
   Feature 3D Anion Count            1
   Effective Rotor Count             1
   Conformer Sampling RMSD           0.4
   CID Conformer Count               [15]1

References

   1. http://toxnet.nlm.nih.gov/cgi-bin/sis/search/r?dbs+hsdb:@term+@rn+@rel+76-06-2
   2. http://toxnet.nlm.nih.gov/cgi-bin/sis/search/r?dbs+hsdb:@term+@rn+@rel+76-06-2
   3. http://toxnet.nlm.nih.gov/cgi-bin/sis/search/r?dbs+hsdb:@term+@rn+@rel+76-06-2
   4. http://toxnet.nlm.nih.gov/cgi-bin/sis/search/r?dbs+hsdb:@term+@rn+@rel+76-06-2
   5. http://toxnet.nlm.nih.gov/cgi-bin/sis/search/r?dbs+hsdb:@term+@rn+@rel+76-06-2
   6. http://toxnet.nlm.nih.gov/cgi-bin/sis/search/r?dbs+hsdb:@term+@rn+@rel+76-06-2
   7. http://toxnet.nlm.nih.gov/cgi-bin/sis/search/r?dbs+hsdb:@term+@rn+@rel+76-06-2
   8. http://toxnet.nlm.nih.gov/cgi-bin/sis/search/r?dbs+hsdb:@term+@rn+@rel+76-06-2
   9. http://toxnet.nlm.nih.gov/cgi-bin/sis/search/r?dbs+hsdb:@term+@rn+@rel+76-06-2
  10. http://toxnet.nlm.nih.gov/cgi-bin/sis/search/r?dbs+hsdb:@term+@rn+@rel+76-06-2
  11. http://toxnet.nlm.nih.gov/cgi-bin/sis/search/r?dbs+hsdb:@term+@rn+@rel+76-06-2
  12. http://toxnet.nlm.nih.gov/cgi-bin/sis/search/r?dbs+hsdb:@term+@rn+@rel+76-06-2
  13. http://toxnet.nlm.nih.gov/cgi-bin/sis/search/r?dbs+hsdb:@term+@rn+@rel+76-06-2
  14. http://toxnet.nlm.nih.gov/cgi-bin/sis/search/r?dbs+hsdb:@term+@rn+@rel+76-06-2
  15. http://pubchem.ncbi.nlm.nih.gov/vw3d/vw3d.cgi?cid=6423
