   Color/Form
        White crystals
   from [1]HSDB

   Taste
        Sweet taste
   from [2]HSDB

   Melting Point
        155 deg C /decomposes/
   from [3]HSDB

   Density/Specific Gravity
        1.610 g/cu cm at -5 deg C
   from [4]HSDB

   Octanol/Water Partition Coefficient
        log Kow = -1.98 (est)
   from [5]HSDB

   pH
        Freshly prepared aqueous solution has pH of 3.6, changing to 2.5
   within 2 hours
   from [6]HSDB

   Solubilities

     * 1 gram in 100 grams alcohol; insoluble in ether and acetone.
     * In water, 5.9X10+5 mg/L at 25 deg C

   from [7]HSDB

   Spectral Properties

     * Specific optical rotation = +63.5 deg to +6.2 deg at 25 deg C
       (solvent= water) mutarotatory
     * SADTLER REFERENCE NUMBER: 5145 (IR, PRISM)
     * IR: 1588 (Coblentz Society Spectral Collection)
     * NMR: 10934 (Sadtler Research Laboratories Spectral Collection)

   from [8]HSDB

   Vapor Pressure
        2.8X10-9 mm Hg at 25 deg (est)
   from [9]HSDB

   Other Chemical/Physical Properties

     * It is capable of complexing many metals
     * Hydrolyzed to gluconic acid by water.
     * Henry's Law constant = 1.4X10-9 atm cu m/mol at 25 deg C (est)
     * Hydroxyl radical reaction rate constant 3.2X10-11 cu cm/molec-sec
       at 25 deg C (est)

   from [10]HSDB

   Computed Properties
   Molecular Weight                  178.14 [g/mol]
   Molecular Formula                 C[6]H[10]O[6]
   XLogP3-AA                         -2
   H-Bond Donor                      4
   H-Bond Acceptor                   6
   Rotatable Bond Count              1
   Tautomer Count                    8
   Exact Mass                        178.047738
   MonoIsotopic Mass                 178.047738
   Topological Polar Surface Area    107
   Heavy Atom Count                  12
   Formal Charge                     0
   Complexity                        181
   Isotope Atom Count                0
   Defined Atom Stereocenter Count   4
   Undefined Atom Stereocenter Count 0
   Defined Bond Stereocenter Count   0
   Undefined Bond Stereocenter Count 0
   Covalently-Bonded Unit Count      1
   Feature 3D Acceptor Count         5
   Feature 3D Donor Count            4
   Feature 3D Ring Count             1
   Effective Rotor Count             2
   Conformer Sampling RMSD           0.6
   CID Conformer Count               [11]5

References

   1. http://toxnet.nlm.nih.gov/cgi-bin/sis/search/r?dbs+hsdb:@term+@rn+@rel+90-80-2
   2. http://toxnet.nlm.nih.gov/cgi-bin/sis/search/r?dbs+hsdb:@term+@rn+@rel+90-80-2
   3. http://toxnet.nlm.nih.gov/cgi-bin/sis/search/r?dbs+hsdb:@term+@rn+@rel+90-80-2
   4. http://toxnet.nlm.nih.gov/cgi-bin/sis/search/r?dbs+hsdb:@term+@rn+@rel+90-80-2
   5. http://toxnet.nlm.nih.gov/cgi-bin/sis/search/r?dbs+hsdb:@term+@rn+@rel+90-80-2
   6. http://toxnet.nlm.nih.gov/cgi-bin/sis/search/r?dbs+hsdb:@term+@rn+@rel+90-80-2
   7. http://toxnet.nlm.nih.gov/cgi-bin/sis/search/r?dbs+hsdb:@term+@rn+@rel+90-80-2
   8. http://toxnet.nlm.nih.gov/cgi-bin/sis/search/r?dbs+hsdb:@term+@rn+@rel+90-80-2
   9. http://toxnet.nlm.nih.gov/cgi-bin/sis/search/r?dbs+hsdb:@term+@rn+@rel+90-80-2
  10. http://toxnet.nlm.nih.gov/cgi-bin/sis/search/r?dbs+hsdb:@term+@rn+@rel+90-80-2
  11. http://pubchem.ncbi.nlm.nih.gov/vw3d/vw3d.cgi?cid=7027
