5281381
  -OEChem-07051212562D

 39 41  0     1  0  0  0  0  0999 V2000
    2.9340   -2.9233    0.0000 O   0  0  0  0  0  0  0  0  0  0  0  0
    6.3981    0.0767    0.0000 N   0  0  0  0  0  0  0  0  0  0  0  0
    3.3073    3.0206    0.0000 N   0  0  0  0  0  0  0  0  0  0  0  0
    5.5321    0.5767    0.0000 C   0  0  1  0  0  0  0  0  0  0  0  0
    4.6660    0.0767    0.0000 C   0  0  1  0  0  0  0  0  0  0  0  0
    5.5321    1.5767    0.0000 C   0  0  0  0  0  0  0  0  0  0  0  0
    3.8000    0.5767    0.0000 C   0  0  0  0  0  0  0  0  0  0  0  0
    3.8000    1.5767    0.0000 C   0  0  0  0  0  0  0  0  0  0  0  0
    4.6660    2.0767    0.0000 C   0  0  0  0  0  0  0  0  0  0  0  0
    2.9061    2.1114    0.0000 C   0  0  0  0  0  0  0  0  0  0  0  0
    4.6660   -0.9233    0.0000 C   0  0  0  0  0  0  0  0  0  0  0  0
    4.3009    3.0010    0.0000 C   0  0  0  0  0  0  0  0  0  0  0  0
    2.9061    0.0420    0.0000 C   0  0  0  0  0  0  0  0  0  0  0  0
    2.0000    1.5975    0.0000 C   0  0  0  0  0  0  0  0  0  0  0  0
    2.0000    0.5559    0.0000 C   0  0  0  0  0  0  0  0  0  0  0  0
    3.8000   -1.4233    0.0000 C   0  0  0  0  0  0  0  0  0  0  0  0
    7.2641    0.5767    0.0000 C   0  0  0  0  0  0  0  0  0  0  0  0
    3.8000   -2.4233    0.0000 C   0  0  0  0  0  0  0  0  0  0  0  0
    2.9340   -0.9233    0.0000 C   0  0  0  0  0  0  0  0  0  0  0  0
    5.5321   -0.0433    0.0000 H   0  0  0  0  0  0  0  0  0  0  0  0
    5.2030   -0.2333    0.0000 H   0  0  0  0  0  0  0  0  0  0  0  0
    6.1426    1.4690    0.0000 H   0  0  0  0  0  0  0  0  0  0  0  0
    5.7441    2.1593    0.0000 H   0  0  0  0  0  0  0  0  0  0  0  0
    5.2030   -1.2333    0.0000 H   0  0  0  0  0  0  0  0  0  0  0  0
    6.3981   -0.5433    0.0000 H   0  0  0  0  0  0  0  0  0  0  0  0
    4.6546    3.5102    0.0000 H   0  0  0  0  0  0  0  0  0  0  0  0
    2.9132   -0.5779    0.0000 H   0  0  0  0  0  0  0  0  0  0  0  0
    2.9739    3.5433    0.0000 H   0  0  0  0  0  0  0  0  0  0  0  0
    1.4643    1.9096    0.0000 H   0  0  0  0  0  0  0  0  0  0  0  0
    1.4643    0.2438    0.0000 H   0  0  0  0  0  0  0  0  0  0  0  0
    7.5741    0.0398    0.0000 H   0  0  0  0  0  0  0  0  0  0  0  0
    7.8010    0.8867    0.0000 H   0  0  0  0  0  0  0  0  0  0  0  0
    6.9541    1.1136    0.0000 H   0  0  0  0  0  0  0  0  0  0  0  0
    4.0121   -3.0059    0.0000 H   0  0  0  0  0  0  0  0  0  0  0  0
    4.4106   -2.3156    0.0000 H   0  0  0  0  0  0  0  0  0  0  0  0
    3.2440   -0.3864    0.0000 H   0  0  0  0  0  0  0  0  0  0  0  0
    2.3970   -0.6133    0.0000 H   0  0  0  0  0  0  0  0  0  0  0  0
    2.6240   -1.4602    0.0000 H   0  0  0  0  0  0  0  0  0  0  0  0
    2.9340   -3.5433    0.0000 H   0  0  0  0  0  0  0  0  0  0  0  0
  1 18  1  0  0  0  0
  1 39  1  0  0  0  0
  4  2  1  1  0  0  0
  2 17  1  0  0  0  0
  2 25  1  0  0  0  0
  3 10  1  0  0  0  0
  3 12  1  0  0  0  0
  3 28  1  0  0  0  0
  4  5  1  0  0  0  0
  4  6  1  0  0  0  0
  4 20  1  0  0  0  0
  5  7  1  0  0  0  0
  5 11  1  6  0  0  0
  5 21  1  0  0  0  0
  6  9  1  0  0  0  0
  6 22  1  0  0  0  0
  6 23  1  0  0  0  0
  7  8  2  0  0  0  0
  7 13  1  0  0  0  0
  8  9  1  0  0  0  0
  8 10  1  0  0  0  0
  9 12  2  0  0  0  0
 10 14  2  0  0  0  0
 11 16  2  0  0  0  0
 11 24  1  0  0  0  0
 12 26  1  0  0  0  0
 13 15  2  0  0  0  0
 13 27  1  0  0  0  0
 14 15  1  0  0  0  0
 14 29  1  0  0  0  0
 15 30  1  0  0  0  0
 16 18  1  0  0  0  0
 16 19  1  0  0  0  0
 17 31  1  0  0  0  0
 17 32  1  0  0  0  0
 17 33  1  0  0  0  0
 18 34  1  0  0  0  0
 18 35  1  0  0  0  0
 19 36  1  0  0  0  0
 19 37  1  0  0  0  0
 19 38  1  0  0  0  0
M  END
> <PUBCHEM_COMPOUND_CID>
5281381

> <PUBCHEM_COMPOUND_CANONICALIZED>
1

> <PUBCHEM_CACTVS_COMPLEXITY>
355

> <PUBCHEM_CACTVS_HBOND_ACCEPTOR>
2

> <PUBCHEM_CACTVS_HBOND_DONOR>
3

> <PUBCHEM_CACTVS_ROTATABLE_BOND>
3

> <PUBCHEM_CACTVS_SUBSKEYS>
AAADceB7IAAAAAAAAAAAAAAAAAAAAWAAAAAwYAAAAAAAAFjB8AAAHgAQCAAADSjhngY+wPLJkgCgAzRnRACCgCAxAiAI2aA4ZJgINOLAkZGEcAhgkADI2AcQgMAOgAAAQAASAACQAASAACQAAAAAAAAAAA==

> <PUBCHEM_IUPAC_OPENEYE_NAME>
(E)-2-methyl-3-[(4R,5R)-4-(methylamino)-1,3,4,5-tetrahydrobenzo[cd]indol-5-yl]prop-2-en-1-ol

> <PUBCHEM_IUPAC_CAS_NAME>
(E)-2-methyl-3-[(4R,5R)-4-(methylamino)-1,3,4,5-tetrahydrobenzo[cd]indol-5-yl]-2-propen-1-ol

> <PUBCHEM_IUPAC_NAME>
(E)-2-methyl-3-[(4R,5R)-4-(methylamino)-1,3,4,5-tetrahydrobenzo[cd]indol-5-yl]prop-2-en-1-ol

> <PUBCHEM_IUPAC_SYSTEMATIC_NAME>
(E)-2-methyl-3-[(4R,5R)-4-(methylamino)-1,3,4,5-tetrahydrobenzo[cd]indol-5-yl]prop-2-en-1-ol

> <PUBCHEM_IUPAC_TRADITIONAL_NAME>
(E)-2-methyl-3-[(4R,5R)-4-(methylamino)-1,3,4,5-tetrahydrobenzo[cd]indol-5-yl]prop-2-en-1-ol

> <PUBCHEM_IUPAC_INCHI>
InChI=1S/C16H20N2O/c1-10(9-19)6-13-12-4-3-5-14-16(12)11(8-18-14)7-15(13)17-2/h3-6,8,13,15,17-19H,7,9H2,1-2H3/b10-6+/t13-,15-/m1/s1

> <PUBCHEM_IUPAC_INCHIKEY>
SAHHMCVYMGARBT-HEESEWQSSA-N

> <PUBCHEM_XLOGP3_AA>
2.2

> <PUBCHEM_EXACT_MASS>
256.157563

> <PUBCHEM_MOLECULAR_FORMULA>
C16H20N2O

> <PUBCHEM_MOLECULAR_WEIGHT>
256.3428

> <PUBCHEM_OPENEYE_CAN_SMILES>
CC(=CC1C(CC2=CNC3=CC=CC1=C23)NC)CO

> <PUBCHEM_OPENEYE_ISO_SMILES>
C/C(=C\[C@H]1[C@@H](CC2=CNC3=CC=CC1=C23)NC)/CO

> <PUBCHEM_CACTVS_TPSA>
48

> <PUBCHEM_MONOISOTOPIC_WEIGHT>
256.157563

> <PUBCHEM_TOTAL_CHARGE>
0

> <PUBCHEM_HEAVY_ATOM_COUNT>
19

> <PUBCHEM_ATOM_DEF_STEREO_COUNT>
2

> <PUBCHEM_ATOM_UDEF_STEREO_COUNT>
0

> <PUBCHEM_BOND_DEF_STEREO_COUNT>
1

> <PUBCHEM_BOND_UDEF_STEREO_COUNT>
0

> <PUBCHEM_ISOTOPIC_ATOM_COUNT>
0

> <PUBCHEM_COMPONENT_COUNT>
1

> <PUBCHEM_CACTVS_TAUTO_COUNT>
1

> <PUBCHEM_COORDINATE_TYPE>
1
5
255

> <PUBCHEM_BONDANNOTATIONS>
10  14  8
13  15  8
14  15  8
4  2  5
3  10  8
3  12  8
5  11  6
7  13  8
7  8  8
8  10  8
8  9  8
9  12  8

$$$$

