440215
  -OEChem-07051212492D

 49 52  0     1  0  0  0  0  0999 V2000
   10.7263    1.1060    0.0000 O   0  0  0  0  0  0  0  0  0  0  0  0
    8.9942    1.0994    0.0000 O   0  0  0  0  0  0  0  0  0  0  0  0
   10.7378   -1.8939    0.0000 O   0  0  0  0  0  0  0  0  0  0  0  0
   12.4660   -0.8873    0.0000 O   0  0  0  0  0  0  0  0  0  0  0  0
    9.0019   -0.9006    0.0000 O   0  0  0  0  0  0  0  0  0  0  0  0
   12.4544    2.1127    0.0000 O   0  0  0  0  0  0  0  0  0  0  0  0
    5.4641    1.0752    0.0000 O   0  0  0  0  0  0  0  0  0  0  0  0
    5.4641   -1.9248    0.0000 O   0  0  0  0  0  0  0  0  0  0  0  0
   10.7340   -0.8939    0.0000 C   0  0  1  0  0  0  0  0  0  0  0  0
   11.5981   -0.3906    0.0000 C   0  0  1  0  0  0  0  0  0  0  0  0
    9.8660   -0.3973    0.0000 C   0  0  2  0  0  0  0  0  0  0  0  0
   11.5942    0.6094    0.0000 C   0  0  1  0  0  0  0  0  0  0  0  0
    9.8622    0.6027    0.0000 C   0  0  1  0  0  0  0  0  0  0  0  0
   12.4583    1.1127    0.0000 C   0  0  0  0  0  0  0  0  0  0  0  0
    8.1301    0.5960    0.0000 C   0  0  0  0  0  0  0  0  0  0  0  0
    7.2241    1.1099    0.0000 C   0  0  0  0  0  0  0  0  0  0  0  0
    8.1301   -0.4456    0.0000 C   0  0  0  0  0  0  0  0  0  0  0  0
    6.3301    0.5752    0.0000 C   0  0  0  0  0  0  0  0  0  0  0  0
    6.3301   -0.4248    0.0000 C   0  0  0  0  0  0  0  0  0  0  0  0
    7.2241   -0.9594    0.0000 C   0  0  0  0  0  0  0  0  0  0  0  0
    5.4641   -0.9248    0.0000 C   0  0  0  0  0  0  0  0  0  0  0  0
    4.5981   -0.4248    0.0000 C   0  0  0  0  0  0  0  0  0  0  0  0
    4.5981    0.5752    0.0000 C   0  0  0  0  0  0  0  0  0  0  0  0
    3.7320   -0.9248    0.0000 C   0  0  0  0  0  0  0  0  0  0  0  0
    2.8660   -0.4248    0.0000 C   0  0  0  0  0  0  0  0  0  0  0  0
    3.7320   -1.9248    0.0000 C   0  0  0  0  0  0  0  0  0  0  0  0
    2.0000   -0.9248    0.0000 C   0  0  0  0  0  0  0  0  0  0  0  0
    2.8660   -2.4248    0.0000 C   0  0  0  0  0  0  0  0  0  0  0  0
    2.0000   -1.9248    0.0000 C   0  0  0  0  0  0  0  0  0  0  0  0
   10.1982   -1.2060    0.0000 H   0  0  0  0  0  0  0  0  0  0  0  0
   12.1338   -0.0785    0.0000 H   0  0  0  0  0  0  0  0  0  0  0  0
    9.3279   -0.0894    0.0000 H   0  0  0  0  0  0  0  0  0  0  0  0
   11.5918    1.2294    0.0000 H   0  0  0  0  0  0  0  0  0  0  0  0
    9.8598    1.2227    0.0000 H   0  0  0  0  0  0  0  0  0  0  0  0
   12.6726    0.5309    0.0000 H   0  0  0  0  0  0  0  0  0  0  0  0
   13.0685    1.2227    0.0000 H   0  0  0  0  0  0  0  0  0  0  0  0
   11.2760   -2.2019    0.0000 H   0  0  0  0  0  0  0  0  0  0  0  0
   13.0017   -0.5752    0.0000 H   0  0  0  0  0  0  0  0  0  0  0  0
    9.0043   -1.5206    0.0000 H   0  0  0  0  0  0  0  0  0  0  0  0
   12.9902    2.4248    0.0000 H   0  0  0  0  0  0  0  0  0  0  0  0
    7.2169    1.7298    0.0000 H   0  0  0  0  0  0  0  0  0  0  0  0
    8.6659   -0.7577    0.0000 H   0  0  0  0  0  0  0  0  0  0  0  0
    7.2169   -1.5794    0.0000 H   0  0  0  0  0  0  0  0  0  0  0  0
    4.0611    0.8852    0.0000 H   0  0  0  0  0  0  0  0  0  0  0  0
    2.8660    0.1952    0.0000 H   0  0  0  0  0  0  0  0  0  0  0  0
    4.2690   -2.2348    0.0000 H   0  0  0  0  0  0  0  0  0  0  0  0
    1.4631   -0.6148    0.0000 H   0  0  0  0  0  0  0  0  0  0  0  0
    2.8660   -3.0448    0.0000 H   0  0  0  0  0  0  0  0  0  0  0  0
    1.4631   -2.2348    0.0000 H   0  0  0  0  0  0  0  0  0  0  0  0
  1 12  1  0  0  0  0
  1 13  1  0  0  0  0
 13  2  1  6  0  0  0
  2 15  1  0  0  0  0
  9  3  1  6  0  0  0
  3 37  1  0  0  0  0
 10  4  1  1  0  0  0
  4 38  1  0  0  0  0
 11  5  1  1  0  0  0
  5 39  1  0  0  0  0
  6 14  1  0  0  0  0
  6 40  1  0  0  0  0
  7 18  1  0  0  0  0
  7 23  1  0  0  0  0
  8 21  2  0  0  0  0
  9 10  1  0  0  0  0
  9 11  1  0  0  0  0
  9 30  1  0  0  0  0
 10 12  1  0  0  0  0
 10 31  1  0  0  0  0
 11 13  1  0  0  0  0
 11 32  1  0  0  0  0
 12 14  1  6  0  0  0
 12 33  1  0  0  0  0
 13 34  1  0  0  0  0
 14 35  1  0  0  0  0
 14 36  1  0  0  0  0
 15 16  2  0  0  0  0
 15 17  1  0  0  0  0
 16 18  1  0  0  0  0
 16 41  1  0  0  0  0
 17 20  2  0  0  0  0
 17 42  1  0  0  0  0
 18 19  2  0  0  0  0
 19 20  1  0  0  0  0
 19 21  1  0  0  0  0
 20 43  1  0  0  0  0
 21 22  1  0  0  0  0
 22 23  2  0  0  0  0
 22 24  1  0  0  0  0
 23 44  1  0  0  0  0
 24 25  2  0  0  0  0
 24 26  1  0  0  0  0
 25 27  1  0  0  0  0
 25 45  1  0  0  0  0
 26 28  2  0  0  0  0
 26 46  1  0  0  0  0
 27 29  2  0  0  0  0
 27 47  1  0  0  0  0
 28 29  1  0  0  0  0
 28 48  1  0  0  0  0
 29 49  1  0  0  0  0
M  END
> <PUBCHEM_COMPOUND_CID>
440215

> <PUBCHEM_COMPOUND_CANONICALIZED>
1

> <PUBCHEM_CACTVS_COMPLEXITY>
616

> <PUBCHEM_CACTVS_HBOND_ACCEPTOR>
8

> <PUBCHEM_CACTVS_HBOND_DONOR>
4

> <PUBCHEM_CACTVS_ROTATABLE_BOND>
4

> <PUBCHEM_CACTVS_SUBSKEYS>
AAADceB4PAAAAAAAAAAAAAAAAAAAAAAAAAA0YIEAAAAAAACBQAAAGgAACAAADBSwmAMwDoAABgCIAqBSAAACCAAkIAAIiAEGCMgdNzaENRqieWCl4BUPqYfI7PzOIAAACAAIAABAAAAQABAAAAAAAAAAAA==

> <PUBCHEM_IUPAC_OPENEYE_NAME>
3-phenyl-7-[(2S,3R,4S,5S,6R)-3,4,5-trihydroxy-6-(hydroxymethyl)tetrahydropyran-2-yl]oxy-chromen-4-one

> <PUBCHEM_IUPAC_CAS_NAME>
3-phenyl-7-[[(2S,3R,4S,5S,6R)-3,4,5-trihydroxy-6-(hydroxymethyl)-2-oxanyl]oxy]-1-benzopyran-4-one

> <PUBCHEM_IUPAC_NAME>
3-phenyl-7-[(2S,3R,4S,5S,6R)-3,4,5-trihydroxy-6-(hydroxymethyl)oxan-2-yl]oxychromen-4-one

> <PUBCHEM_IUPAC_SYSTEMATIC_NAME>
7-[(2S,3R,4S,5S,6R)-6-(hydroxymethyl)-3,4,5-tris(oxidanyl)oxan-2-yl]oxy-3-phenyl-chromen-4-one

> <PUBCHEM_IUPAC_TRADITIONAL_NAME>
3-phenyl-7-[(2S,3R,4S,5S,6R)-3,4,5-trihydroxy-6-methylol-tetrahydropyran-2-yl]oxy-chromone

> <PUBCHEM_IUPAC_INCHI>
InChI=1S/C21H20O8/c22-9-16-18(24)19(25)20(26)21(29-16)28-12-6-7-13-15(8-12)27-10-14(17(13)23)11-4-2-1-3-5-11/h1-8,10,16,18-22,24-26H,9H2/t16-,18-,19+,20-,21-/m1/s1

> <PUBCHEM_IUPAC_INCHIKEY>
CHVBPFQVSIWBOU-QNDFHXLGSA-N

> <PUBCHEM_XLOGP3_AA>
1

> <PUBCHEM_EXACT_MASS>
400.115818

> <PUBCHEM_MOLECULAR_FORMULA>
C21H20O8

> <PUBCHEM_MOLECULAR_WEIGHT>
400.3787

> <PUBCHEM_OPENEYE_CAN_SMILES>
C1=CC=C(C=C1)C2=COC3=C(C2=O)C=CC(=C3)OC4C(C(C(C(O4)CO)O)O)O

> <PUBCHEM_OPENEYE_ISO_SMILES>
C1=CC=C(C=C1)C2=COC3=C(C2=O)C=CC(=C3)O[C@H]4[C@@H]([C@H]([C@@H]([C@H](O4)CO)O)O)O

> <PUBCHEM_CACTVS_TPSA>
126

> <PUBCHEM_MONOISOTOPIC_WEIGHT>
400.115818

> <PUBCHEM_TOTAL_CHARGE>
0

> <PUBCHEM_HEAVY_ATOM_COUNT>
29

> <PUBCHEM_ATOM_DEF_STEREO_COUNT>
5

> <PUBCHEM_ATOM_UDEF_STEREO_COUNT>
0

> <PUBCHEM_BOND_DEF_STEREO_COUNT>
0

> <PUBCHEM_BOND_UDEF_STEREO_COUNT>
0

> <PUBCHEM_ISOTOPIC_ATOM_COUNT>
0

> <PUBCHEM_COMPONENT_COUNT>
1

> <PUBCHEM_CACTVS_TAUTO_COUNT>
1

> <PUBCHEM_COORDINATE_TYPE>
1
5
255

> <PUBCHEM_BONDANNOTATIONS>
12  14  6
15  16  8
15  17  8
16  18  8
17  20  8
18  19  8
19  20  8
19  21  8
13  2  6
21  22  8
22  23  8
24  25  8
24  26  8
25  27  8
26  28  8
27  29  8
28  29  8
9  3  6
10  4  5
11  5  5
7  18  8
7  23  8

$$$$

