   Color/Form
        Colorless liquid
   from [1]HSDB

   Odor

     * Odor similar to that of bergamot oil and French lavender.
     * TYPICAL FLORAL ODOR FREE FROM CAMPHORACEOUS & TERPENIC NOTES
     * FLORAL, SPICY, WOOD ODOR
     * ...flowery-fresh odor, reminiscent of lily of the valley...however,
       the enantiomers differ slightly in odor.

   from [2]HSDB

   Taste

     * FLAVOR CHARACTERISTICS: LIGHT, FLORAL
     * SPICY, CITRUS TASTE

   from [3]HSDB

   Boiling Point
        198 deg C; 86 deg C at 13 mm Hg
   from [4]HSDB

   Density/Specific Gravity
        0.858-0.868 at 25 deg C
   from [5]HSDB

   Octanol/Water Partition Coefficient
        log Kow = 2.97
   from [6]HSDB

   Solubilities

     * Soluble in alcohol, ether, fixed oils, propylene glycol; insoluble
       in glycerin.
     * In water, 1.59X10+3 mg/L at 25 deg C

   from [7]HSDB

   Spectral Properties

     * Index of refraction: 1.4627
     * Angular rotation: -2 deg to +2 deg
     * Mass spectral data [m/z(%)]: 93(100), 71(97), 55(50), 43(45),
       80(45), 121(45), 69(45)

   from [8]HSDB

   Vapor Pressure
        0.16 mm Hg at 22-25 deg C
   from [9]HSDB

   Other Chemical/Physical Properties

     * Density: 0.870 g/cu cm at 15 deg C/4 deg C
     * Colorless liquid; bp: 198 deg C at 760 mm Hg, 98-98.3 deg C at 25
       mm Hg, 86-87 deg C at 14 mm Hg; density: 0.8622 at 20 deg C; index
       of refraction: 1.4604 at 22 deg C/D; specific rotation: -20.1 deg
       at 20 deg C/D. Practically insoluble in water. Miscible with
       alcohol, ether. /l-Form/
     * bp: 198-200 deg C at 760 torr, 114-114.5 deg C at 26 torr, 93-94
       deg C at 15.5 torr, 86 deg C at 12 torr; density: 0.8733 at 20 deg
       C/4 deg C; index of refraction: 1.4673 at 20 deg C/D; specific
       rotation: +19.3 deg at 20 deg C/D. Soluble in 10 volumes of 50 %
       alcohol, 4 volumes of 60 % alcohol. /d-Form/
     * bp: 194-197 deg C at 760 mm Hg, 89-91 deg C at 14 mm Hg; density:
       0.865 at 15 deg C /dl-Form/
     * SAPONIFICATION NUMBER: NOT MORE THAN 1.5; SOL 1:4 IN 60% ALC; INDEX
       OF REFRACTION: 1.4600-1.4630 @ 20 DEG C/D; FLASH POINT: 78 DEG C;
       BP: 198 DEG C; ASSAY: GREATER THAN 95%; SPECIFIC GRAVITY:
       0.858-0.862 @ 25 DEG C; SYNTHETIC LINALOOL EXHIBITS A CLEANER &
       FRESHER NOTE THAN THE NATURAL PRODUCT /SYNTHETIC/
     * SOL IN ALL PROP IN ETHER; SLIGHTLY SOL IN WATER; SADTLER REFERENCE
       NUMBER: 1005 (IR, PRISM); 8114 (IR, GRATING); MAX ABSORPTION
       (ALCOHOL): 243 NM SHOULDER (LOG E= 1.58), 272 NM SHOULDER (LOG E=
       0.44) /D-FORM/
     * Henry's Law constant = 2.15X10-5 atm-cu m/mole at 25 deg C
     * Hydroxyl radical reaction rate constant = 1.60X10-10 cu
       cm/molecule-sec at 23 deg C

   from [10]HSDB

   Computed Properties
   Molecular Weight                  154.24932 [g/mol]
   Molecular Formula                 C[10]H[18]O
   XLogP3-AA                         2.7
   H-Bond Donor                      1
   H-Bond Acceptor                   1
   Rotatable Bond Count              4
   Exact Mass                        154.135765
   MonoIsotopic Mass                 154.135765
   Topological Polar Surface Area    20.2
   Heavy Atom Count                  11
   Formal Charge                     0
   Complexity                        154
   Isotope Atom Count                0
   Defined Atom Stereocenter Count   0
   Undefined Atom Stereocenter Count 1
   Defined Bond Stereocenter Count   0
   Undefined Bond Stereocenter Count 0
   Covalently-Bonded Unit Count      1
   Feature 3D Acceptor Count         1
   Feature 3D Donor Count            1
   Feature 3D Hydrophobe Count       2
   Effective Rotor Count             4
   Conformer Sampling RMSD           0.6
   CID Conformer Count               [11]52

References

   1. http://toxnet.nlm.nih.gov/cgi-bin/sis/search/r?dbs+hsdb:@term+@rn+@rel+78-70-6
   2. http://toxnet.nlm.nih.gov/cgi-bin/sis/search/r?dbs+hsdb:@term+@rn+@rel+78-70-6
   3. http://toxnet.nlm.nih.gov/cgi-bin/sis/search/r?dbs+hsdb:@term+@rn+@rel+78-70-6
   4. http://toxnet.nlm.nih.gov/cgi-bin/sis/search/r?dbs+hsdb:@term+@rn+@rel+78-70-6
   5. http://toxnet.nlm.nih.gov/cgi-bin/sis/search/r?dbs+hsdb:@term+@rn+@rel+78-70-6
   6. http://toxnet.nlm.nih.gov/cgi-bin/sis/search/r?dbs+hsdb:@term+@rn+@rel+78-70-6
   7. http://toxnet.nlm.nih.gov/cgi-bin/sis/search/r?dbs+hsdb:@term+@rn+@rel+78-70-6
   8. http://toxnet.nlm.nih.gov/cgi-bin/sis/search/r?dbs+hsdb:@term+@rn+@rel+78-70-6
   9. http://toxnet.nlm.nih.gov/cgi-bin/sis/search/r?dbs+hsdb:@term+@rn+@rel+78-70-6
  10. http://toxnet.nlm.nih.gov/cgi-bin/sis/search/r?dbs+hsdb:@term+@rn+@rel+78-70-6
  11. http://pubchem.ncbi.nlm.nih.gov/vw3d/vw3d.cgi?cid=6549
