   Color/Form

     * WHITE CRYSTALLINE
     * Off white color, crystalline
     * Colorless powder

   from [1]HSDB

   Odor
        MILD ODOR
   from [2]HSDB

   Melting Point
        95-97 deg C
   from [3]HSDB

   Corrosivity
        NONCORROSIVE
   from [4]HSDB

   Density/Specific Gravity
        1.68 g/cu cm at 20 deg C
   from [5]HSDB

   Octanol/Water Partition Coefficient
        Log Kow = 3.09
   from [6]HSDB

   Solubilities

     * SOL IN ACETONE & DIMETHYLFORMAMIDE
     * SOL IN METHYL ETHYL KETONE, ISOPHORONE, CHLOROFORM, DIETHYL
       SULFOXIDE
     * Moderately soluble in xylene.
     * In water 35 mg/l (20 deg C). In acetone 460, dichloromethane 170,
       hexane 89, benzene 72, isopropanol 12 (all in g/kg, 20 deg C).

   from [7]HSDB

   Vapor Pressure
        3.97X10-7 mm Hg @ 20 deg C
   from [8]HSDB

   Other Chemical/Physical Properties
        Slowly hydrolyzed in neutral, slightly acidic, and slightly
   alkaline media.
   from [9]HSDB

   Computed Properties
   Molecular Weight                  293.5449 [g/mol]
   Molecular Formula                 C[9]H[10]BrClN[2]O[2]
   XLogP3                            3.1
   H-Bond Donor                      1
   H-Bond Acceptor                   2
   Rotatable Bond Count              2
   Tautomer Count                    2
   Exact Mass                        291.961417
   MonoIsotopic Mass                 291.961417
   Topological Polar Surface Area    41.6
   Heavy Atom Count                  15
   Formal Charge                     0
   Complexity                        230
   Isotope Atom Count                0
   Defined Atom Stereocenter Count   0
   Undefined Atom Stereocenter Count 0
   Defined Bond Stereocenter Count   0
   Undefined Bond Stereocenter Count 0
   Covalently-Bonded Unit Count      1
   Feature 3D Acceptor Count         1
   Feature 3D Donor Count            1
   Feature 3D Hydrophobe Count       1
   Feature 3D Ring Count             1
   Effective Rotor Count             4
   Conformer Sampling RMSD           0.6
   CID Conformer Count               [10]48

References

   1. http://toxnet.nlm.nih.gov/cgi-bin/sis/search/r?dbs+hsdb:@term+@rn+@rel+13360-45-7
   2. http://toxnet.nlm.nih.gov/cgi-bin/sis/search/r?dbs+hsdb:@term+@rn+@rel+13360-45-7
   3. http://toxnet.nlm.nih.gov/cgi-bin/sis/search/r?dbs+hsdb:@term+@rn+@rel+13360-45-7
   4. http://toxnet.nlm.nih.gov/cgi-bin/sis/search/r?dbs+hsdb:@term+@rn+@rel+13360-45-7
   5. http://toxnet.nlm.nih.gov/cgi-bin/sis/search/r?dbs+hsdb:@term+@rn+@rel+13360-45-7
   6. http://toxnet.nlm.nih.gov/cgi-bin/sis/search/r?dbs+hsdb:@term+@rn+@rel+13360-45-7
   7. http://toxnet.nlm.nih.gov/cgi-bin/sis/search/r?dbs+hsdb:@term+@rn+@rel+13360-45-7
   8. http://toxnet.nlm.nih.gov/cgi-bin/sis/search/r?dbs+hsdb:@term+@rn+@rel+13360-45-7
   9. http://toxnet.nlm.nih.gov/cgi-bin/sis/search/r?dbs+hsdb:@term+@rn+@rel+13360-45-7
  10. http://pubchem.ncbi.nlm.nih.gov/vw3d/vw3d.cgi?cid=25912
