   Color/Form
        Anhydrous plates, tables from ligroin or ether
   from [1]HSDB

   Melting Point
        61 deg C
   from [2]HSDB

   Dissociation Constants
        pKa= 8.05 @ 15 deg C
   from [3]HSDB

   Octanol/Water Partition Coefficient
        log Kow= 1.92
   from [4]HSDB

   Solubilities

     * Sol in alcohol, ether, benzene, chloroform
     * Soluble in ethanol, ethyl ether, and benzene
     * In water, 9.45X10+3 mg/l @ 30 deg C

   from [5]HSDB

   Spectral Properties

     * MAX ABSORPTION (WATER): 221 NM (LOG E= 3.90); 290 (LOG E= 4.23)
     * IR: 7605 (Sadtler Research Laboratories Prism Collection)
     * UV: 2131 (Sadtler Research Laboratories Spectral Collection)
     * NMR: 302 (Varian Associates NMR Spectra Catalogue)
     * MASS: 2-634 (Archives of Mass Spectral Data, John Wiley & Sons, New
       York)
     * Intense mass spectral peaks: 86 m/z, 99 m/z, 120 m/z, 164 m/z

   from [6]HSDB

   Other Chemical/Physical Properties

     * Hygroscopic
     * Slightly bitter taste; mp: 51 deg C; needles from aq alcohol
       /Dihydrate/
     * Crystals, mp 153-156 deg C, sol in water, alcohol /Nitrate/
     * Hygroscopic crystals. Soluble in water, alcohol, vegetable oils.
       /Butryate/
     * Crystals. Six-sided plates, monoclinic or triclinic, mp 153-156 deg
       C. One gram dissolves in 1 ml water and in 30 ml alcohol. Slightly
       sol in chloroform. Almost insoluble in ether. The pH of a 0.1 M
       aqueous solution is 6.0. /Hydrochloride/
     * WHITE CRYSTALLINE POWDER /HYDROCHLORIDE/
     * ODORLESS; AQ SOLN ACID TO LITMUS; PKA 8.7; SMALL WHITE CRYSTALS; 1
       G SOL IN 1 ML WATER OR 15 ML ALC; SLIGHTLY SOL IN CHLOROFORM;
       PRACTICALLY INSOL IN ETHER /HYDROCHLORIDE/
     * INDEX OF REFRACTION: 1.5611 @ 25 DEG C/D /HYDROCHLORIDE/
     * IR: 5148 (Coblentz Society Spectral Collection) /Novocaine
       hydrochloride/
     * UV: 2115 (Sadtler Research Laboratories Spectral Collection)
       /Novocaine hydrochloride/
     * NMR: 1219 (Sadtler Research Laboratories Spectral Collection)
       /Novocaine hydrochloride/
     * Small, colorless crystals or white, crystalline powder; odorless;
       stable to air. MP 153-156 deg C. Soluble in water and in alcohol at
       25 deg C; slightly soluble in chloroform; almost insoluble in
       ether; solutions acid to litmus. /Hydrochloride/

   from [7]HSDB

   Computed Properties
   Molecular Weight                  236.3101 [g/mol]
   Molecular Formula                 C[13]H[20]N[2]O[2]
   XLogP3                            1.9
   H-Bond Donor                      1
   H-Bond Acceptor                   4
   Rotatable Bond Count              7
   Tautomer Count                    3
   Exact Mass                        236.152478
   MonoIsotopic Mass                 236.152478
   Topological Polar Surface Area    55.6
   Heavy Atom Count                  17
   Formal Charge                     0
   Complexity                        222
   Isotope Atom Count                0
   Defined Atom Stereocenter Count   0
   Undefined Atom Stereocenter Count 0
   Defined Bond Stereocenter Count   0
   Undefined Bond Stereocenter Count 0
   Covalently-Bonded Unit Count      1
   Feature 3D Acceptor Count         1
   Feature 3D Donor Count            1
   Feature 3D Cation Count           2
   Feature 3D Ring Count             1
   Effective Rotor Count             7
   Conformer Sampling RMSD           0.8
   CID Conformer Count               [8]71

References

   1. http://toxnet.nlm.nih.gov/cgi-bin/sis/search/r?dbs+hsdb:@term+@rn+@rel+59-46-1
   2. http://toxnet.nlm.nih.gov/cgi-bin/sis/search/r?dbs+hsdb:@term+@rn+@rel+59-46-1
   3. http://toxnet.nlm.nih.gov/cgi-bin/sis/search/r?dbs+hsdb:@term+@rn+@rel+59-46-1
   4. http://toxnet.nlm.nih.gov/cgi-bin/sis/search/r?dbs+hsdb:@term+@rn+@rel+59-46-1
   5. http://toxnet.nlm.nih.gov/cgi-bin/sis/search/r?dbs+hsdb:@term+@rn+@rel+59-46-1
   6. http://toxnet.nlm.nih.gov/cgi-bin/sis/search/r?dbs+hsdb:@term+@rn+@rel+59-46-1
   7. http://toxnet.nlm.nih.gov/cgi-bin/sis/search/r?dbs+hsdb:@term+@rn+@rel+59-46-1
   8. http://pubchem.ncbi.nlm.nih.gov/vw3d/vw3d.cgi?cid=4914
