441687
  -OEChem-07051212552D

 67 71  0     1  0  0  0  0  0999 V2000
    2.0000   -2.8662    0.0000 O   0  0  0  0  0  0  0  0  0  0  0  0
   11.0010    2.3305    0.0000 O   0  0  0  0  0  0  0  0  0  0  0  0
    9.1815    3.3623    0.0000 O   0  0  0  0  0  0  0  0  0  0  0  0
    5.6610   -0.8139    0.0000 C   0  0  1  0  0  0  0  0  0  0  0  0
    6.5271   -1.3139    0.0000 C   0  0  1  0  0  0  0  0  0  0  0  0
    4.7510   -1.3208    0.0000 C   0  0  1  0  0  0  0  0  0  0  0  0
    4.7430   -2.3624    0.0000 C   0  0  1  0  0  0  0  0  0  0  0  0
    6.5431   -2.3554    0.0000 C   0  0  0  0  0  0  0  0  0  0  0  0
    5.6610    0.1861    0.0000 C   0  0  0  0  0  0  0  0  0  0  0  0
    5.6451   -2.8832    0.0000 C   0  0  0  0  0  0  0  0  0  0  0  0
    7.3931   -0.8139    0.0000 C   0  0  0  0  0  0  0  0  0  0  0  0
    7.3931    0.1861    0.0000 C   0  0  1  0  0  0  0  0  0  0  0  0
    3.8242   -0.7567    0.0000 C   0  0  0  0  0  0  0  0  0  0  0  0
    6.5271    0.6861    0.0000 C   0  0  0  0  0  0  0  0  0  0  0  0
    3.8076   -2.9121    0.0000 C   0  0  0  0  0  0  0  0  0  0  0  0
    4.7950   -0.3139    0.0000 C   0  0  0  0  0  0  0  0  0  0  0  0
    7.3931   -1.8139    0.0000 C   0  0  0  0  0  0  0  0  0  0  0  0
    2.8763   -1.2846    0.0000 C   0  0  2  0  0  0  0  0  0  0  0  0
    4.7353   -3.3623    0.0000 C   0  0  0  0  0  0  0  0  0  0  0  0
    2.8680   -2.3696    0.0000 C   0  0  0  0  0  0  0  0  0  0  0  0
    8.2870    0.7208    0.0000 C   0  0  0  0  0  0  0  0  0  0  0  0
    8.2870   -1.3486    0.0000 C   0  0  0  0  0  0  0  0  0  0  0  0
    7.3931    1.1861    0.0000 C   0  0  0  0  0  0  0  0  0  0  0  0
    2.0161   -0.7746    0.0000 C   0  0  0  0  0  0  0  0  0  0  0  0
    9.1931    0.2069    0.0000 C   0  0  0  0  0  0  0  0  0  0  0  0
    9.1931   -0.8347    0.0000 C   0  0  0  0  0  0  0  0  0  0  0  0
    8.2619    1.8055    0.0000 C   0  0  0  0  0  0  0  0  0  0  0  0
   10.1369    0.7422    0.0000 C   0  0  0  0  0  0  0  0  0  0  0  0
    9.1931    2.3624    0.0000 C   0  0  0  0  0  0  0  0  0  0  0  0
   10.1369    1.8272    0.0000 C   0  0  0  0  0  0  0  0  0  0  0  0
   11.0010    0.2388    0.0000 C   0  0  0  0  0  0  0  0  0  0  0  0
    4.7674   -0.4709    0.0000 H   0  0  0  0  0  0  0  0  0  0  0  0
    6.7612   -2.9358    0.0000 H   0  0  0  0  0  0  0  0  0  0  0  0
    7.1523   -2.2399    0.0000 H   0  0  0  0  0  0  0  0  0  0  0  0
    5.4490    0.7687    0.0000 H   0  0  0  0  0  0  0  0  0  0  0  0
    5.0504    0.0784    0.0000 H   0  0  0  0  0  0  0  0  0  0  0  0
    5.2478   -3.3591    0.0000 H   0  0  0  0  0  0  0  0  0  0  0  0
    6.0460   -3.3561    0.0000 H   0  0  0  0  0  0  0  0  0  0  0  0
    4.2324   -0.2900    0.0000 H   0  0  0  0  0  0  0  0  0  0  0  0
    3.4343   -0.2746    0.0000 H   0  0  0  0  0  0  0  0  0  0  0  0
    6.9256    1.1610    0.0000 H   0  0  0  0  0  0  0  0  0  0  0  0
    6.1285    1.1610    0.0000 H   0  0  0  0  0  0  0  0  0  0  0  0
    3.4103   -3.3880    0.0000 H   0  0  0  0  0  0  0  0  0  0  0  0
    4.2085   -3.3850    0.0000 H   0  0  0  0  0  0  0  0  0  0  0  0
    5.1050    0.2230    0.0000 H   0  0  0  0  0  0  0  0  0  0  0  0
    4.2581   -0.0039    0.0000 H   0  0  0  0  0  0  0  0  0  0  0  0
    4.4850   -0.8508    0.0000 H   0  0  0  0  0  0  0  0  0  0  0  0
    7.0831   -2.3508    0.0000 H   0  0  0  0  0  0  0  0  0  0  0  0
    7.9300   -2.1239    0.0000 H   0  0  0  0  0  0  0  0  0  0  0  0
    7.7031   -1.2770    0.0000 H   0  0  0  0  0  0  0  0  0  0  0  0
    2.8847   -0.6647    0.0000 H   0  0  0  0  0  0  0  0  0  0  0  0
    4.1153   -3.3575    0.0000 H   0  0  0  0  0  0  0  0  0  0  0  0
    4.7305   -3.9823    0.0000 H   0  0  0  0  0  0  0  0  0  0  0  0
    5.3553   -3.3671    0.0000 H   0  0  0  0  0  0  0  0  0  0  0  0
    8.2799   -1.9685    0.0000 H   0  0  0  0  0  0  0  0  0  0  0  0
    8.0131    1.1861    0.0000 H   0  0  0  0  0  0  0  0  0  0  0  0
    7.3931    1.8061    0.0000 H   0  0  0  0  0  0  0  0  0  0  0  0
    6.7731    1.1861    0.0000 H   0  0  0  0  0  0  0  0  0  0  0  0
    2.3323   -0.2413    0.0000 H   0  0  0  0  0  0  0  0  0  0  0  0
    1.4828   -0.4584    0.0000 H   0  0  0  0  0  0  0  0  0  0  0  0
    1.6999   -1.3080    0.0000 H   0  0  0  0  0  0  0  0  0  0  0  0
    9.7288   -1.1468    0.0000 H   0  0  0  0  0  0  0  0  0  0  0  0
    7.7191    2.1051    0.0000 H   0  0  0  0  0  0  0  0  0  0  0  0
   10.6889   -0.2969    0.0000 H   0  0  0  0  0  0  0  0  0  0  0  0
   11.5367   -0.0732    0.0000 H   0  0  0  0  0  0  0  0  0  0  0  0
   11.3130    0.7746    0.0000 H   0  0  0  0  0  0  0  0  0  0  0  0
   10.9986    2.9505    0.0000 H   0  0  0  0  0  0  0  0  0  0  0  0
  1 20  2  0  0  0  0
  2 30  1  0  0  0  0
  2 67  1  0  0  0  0
  3 29  2  0  0  0  0
  4  5  1  0  0  0  0
  4  6  1  0  0  0  0
  4  9  1  0  0  0  0
  4 16  1  6  0  0  0
  5  8  1  0  0  0  0
  5 11  1  0  0  0  0
  5 17  1  1  0  0  0
  6  7  1  0  0  0  0
  6 13  1  0  0  0  0
  6 32  1  6  0  0  0
  7 10  1  0  0  0  0
  7 15  1  0  0  0  0
  7 19  1  6  0  0  0
  8 10  1  0  0  0  0
  8 33  1  0  0  0  0
  8 34  1  0  0  0  0
  9 14  1  0  0  0  0
  9 35  1  0  0  0  0
  9 36  1  0  0  0  0
 10 37  1  0  0  0  0
 10 38  1  0  0  0  0
 11 12  1  0  0  0  0
 11 22  2  0  0  0  0
 12 14  1  0  0  0  0
 12 21  1  0  0  0  0
 12 23  1  6  0  0  0
 13 18  1  0  0  0  0
 13 39  1  0  0  0  0
 13 40  1  0  0  0  0
 14 41  1  0  0  0  0
 14 42  1  0  0  0  0
 15 20  1  0  0  0  0
 15 43  1  0  0  0  0
 15 44  1  0  0  0  0
 16 45  1  0  0  0  0
 16 46  1  0  0  0  0
 16 47  1  0  0  0  0
 17 48  1  0  0  0  0
 17 49  1  0  0  0  0
 17 50  1  0  0  0  0
 18 20  1  0  0  0  0
 18 24  1  6  0  0  0
 18 51  1  0  0  0  0
 19 52  1  0  0  0  0
 19 53  1  0  0  0  0
 19 54  1  0  0  0  0
 21 25  1  0  0  0  0
 21 27  2  0  0  0  0
 22 26  1  0  0  0  0
 22 55  1  0  0  0  0
 23 56  1  0  0  0  0
 23 57  1  0  0  0  0
 23 58  1  0  0  0  0
 24 59  1  0  0  0  0
 24 60  1  0  0  0  0
 24 61  1  0  0  0  0
 25 26  2  0  0  0  0
 25 28  1  0  0  0  0
 26 62  1  0  0  0  0
 27 29  1  0  0  0  0
 27 63  1  0  0  0  0
 28 30  2  0  0  0  0
 28 31  1  0  0  0  0
 29 30  1  0  0  0  0
 31 64  1  0  0  0  0
 31 65  1  0  0  0  0
 31 66  1  0  0  0  0
M  END
> <PUBCHEM_COMPOUND_CID>
441687

> <PUBCHEM_COMPOUND_CANONICALIZED>
1

> <PUBCHEM_CACTVS_COMPLEXITY>
1040

> <PUBCHEM_CACTVS_HBOND_ACCEPTOR>
3

> <PUBCHEM_CACTVS_HBOND_DONOR>
1

> <PUBCHEM_CACTVS_ROTATABLE_BOND>
0

> <PUBCHEM_CACTVS_SUBSKEYS>
AAADcfB4MAAAAAAAAAAAAAAAAAAAAAAAAAAwYMECAAAAAADAAAAAGgAACAAADwSAgAACAAAAAgCIAqBSAAIAAAAgIAAACAFAAEgIABIAAAAAQAAAwAAIgQMIiMCPgAAAAAAAAACAAAQAACAAAAAAAAAAAA==

> <PUBCHEM_IUPAC_OPENEYE_NAME>
(6aR,6bR,8aS,11R,12aR,14aR)-3-hydroxy-4,6a,6b,8a,11,14a-hexamethyl-7,8,9,11,12,12a,13,14-octahydropicene-2,10-dione

> <PUBCHEM_IUPAC_CAS_NAME>
(6aR,6bR,8aS,11R,12aR,14aR)-3-hydroxy-4,6a,6b,8a,11,14a-hexamethyl-7,8,9,11,12,12a,13,14-octahydropicene-2,10-dione

> <PUBCHEM_IUPAC_NAME>
(6aR,6bR,8aS,11R,12aR,14aR)-3-hydroxy-4,6a,6b,8a,11,14a-hexamethyl-7,8,9,11,12,12a,13,14-octahydropicene-2,10-dione

> <PUBCHEM_IUPAC_SYSTEMATIC_NAME>
(6aR,6bR,8aS,11R,12aR,14aR)-4,6a,6b,8a,11,14a-hexamethyl-3-oxidanyl-7,8,9,11,12,12a,13,14-octahydropicene-2,10-dione

> <PUBCHEM_IUPAC_TRADITIONAL_NAME>
(6aR,6bR,8aS,11R,12aR,14aR)-3-hydroxy-4,6a,6b,8a,11,14a-hexamethyl-7,8,9,11,12,12a,13,14-octahydropicene-2,10-quinone

> <PUBCHEM_IUPAC_INCHI>
InChI=1S/C28H36O3/c1-16-13-23-25(3,15-21(16)30)9-11-27(5)22-8-7-18-17(2)24(31)20(29)14-19(18)26(22,4)10-12-28(23,27)6/h7-8,14,16,23,31H,9-13,15H2,1-6H3/t16-,23-,25+,26+,27+,28-/m1/s1

> <PUBCHEM_IUPAC_INCHIKEY>
WSTYNZDAOAEEKG-QSPBTJQRSA-N

> <PUBCHEM_XLOGP3_AA>
5.4

> <PUBCHEM_EXACT_MASS>
420.266445

> <PUBCHEM_MOLECULAR_FORMULA>
C28H36O3

> <PUBCHEM_MOLECULAR_WEIGHT>
420.58364

> <PUBCHEM_OPENEYE_CAN_SMILES>
CC1CC2C(CCC3(C2(CCC4(C3=CC=C5C4=CC(=O)C(=C5C)O)C)C)C)(CC1=O)C

> <PUBCHEM_OPENEYE_ISO_SMILES>
C[C@@H]1C[C@@H]2[C@@](CC[C@@]3([C@@]2(CC[C@@]4(C3=CC=C5C4=CC(=O)C(=C5C)O)C)C)C)(CC1=O)C

> <PUBCHEM_CACTVS_TPSA>
54.4

> <PUBCHEM_MONOISOTOPIC_WEIGHT>
420.266445

> <PUBCHEM_TOTAL_CHARGE>
0

> <PUBCHEM_HEAVY_ATOM_COUNT>
31

> <PUBCHEM_ATOM_DEF_STEREO_COUNT>
6

> <PUBCHEM_ATOM_UDEF_STEREO_COUNT>
0

> <PUBCHEM_BOND_DEF_STEREO_COUNT>
0

> <PUBCHEM_BOND_UDEF_STEREO_COUNT>
0

> <PUBCHEM_ISOTOPIC_ATOM_COUNT>
0

> <PUBCHEM_COMPONENT_COUNT>
1

> <PUBCHEM_CACTVS_TAUTO_COUNT>
48

> <PUBCHEM_COORDINATE_TYPE>
1
5
255

> <PUBCHEM_BONDANNOTATIONS>
12  23  6
18  24  6
4  16  6
5  17  5
6  32  6
7  19  6

$$$$

