   Color/Form
        A solid
   from [1]HSDB

   Melting Point
        245-246 deg C
   from [2]HSDB

   Computed Properties
   Molecular Weight                  336.3844 [g/mol]
   Molecular Formula                 C[20]H[20]N[2]O[3]
   XLogP3-AA                         2.2
   H-Bond Donor                      2
   H-Bond Acceptor                   3
   Rotatable Bond Count              1
   Tautomer Count                    12
   Exact Mass                        336.147393
   MonoIsotopic Mass                 336.147393
   Topological Polar Surface Area    73.4
   Heavy Atom Count                  25
   Formal Charge                     0
   Complexity                        697
   Isotope Atom Count                0
   Defined Atom Stereocenter Count   3
   Undefined Atom Stereocenter Count 0
   Defined Bond Stereocenter Count   0
   Undefined Bond Stereocenter Count 0
   Covalently-Bonded Unit Count      1
   Feature 3D Acceptor Count         2
   Feature 3D Donor Count            2
   Feature 3D Anion Count            1
   Feature 3D Cation Count           1
   Feature 3D Hydrophobe Count       1
   Feature 3D Ring Count             5
   Effective Rotor Count             1.4
   Conformer Sampling RMSD           0.6
   CID Conformer Count               [3]4

References

   1. http://toxnet.nlm.nih.gov/cgi-bin/sis/search/r?dbs+hsdb:@term+@rn+@rel+18172-33-3
   2. http://toxnet.nlm.nih.gov/cgi-bin/sis/search/r?dbs+hsdb:@term+@rn+@rel+18172-33-3
   3. http://pubchem.ncbi.nlm.nih.gov/vw3d/vw3d.cgi?cid=54682463
