854018
  -OEChem-06241222462D

 42 45  0     1  0  0  0  0  0999 V2000
    5.1871   -3.4214    0.0000 O   0  0  0  0  0  0  0  0  0  0  0  0
    5.5443   -1.7266    0.0000 N   0  0  0  0  0  0  0  0  0  0  0  0
    5.5443   -0.1171    0.0000 N   0  0  0  0  0  0  0  0  0  0  0  0
    3.7320   -1.9218    0.0000 N   0  0  0  0  0  0  0  0  0  0  0  0
    3.7320    1.0782    0.0000 N   0  0  0  0  0  0  0  0  0  0  0  0
    2.8660   -0.4219    0.0000 N   0  0  0  0  0  0  0  0  0  0  0  0
    5.8550   -2.6771    0.0000 C   0  0  2  0  0  0  0  0  0  0  0  0
    6.8335   -2.8833    0.0000 C   0  0  0  0  0  0  0  0  0  0  0  0
    7.1441   -3.8338    0.0000 C   0  0  0  0  0  0  0  0  0  0  0  0
    6.4763   -4.5782    0.0000 C   0  0  0  0  0  0  0  0  0  0  0  0
    5.4978   -4.3719    0.0000 C   0  0  0  0  0  0  0  0  0  0  0  0
    4.5981   -1.4218    0.0000 C   0  0  0  0  0  0  0  0  0  0  0  0
    6.1279   -0.9219    0.0000 C   0  0  0  0  0  0  0  0  0  0  0  0
    4.5981   -0.4219    0.0000 C   0  0  0  0  0  0  0  0  0  0  0  0
    3.7320    0.0781    0.0000 C   0  0  0  0  0  0  0  0  0  0  0  0
    2.8660    1.5782    0.0000 C   0  0  0  0  0  0  0  0  0  0  0  0
    2.8660   -1.4218    0.0000 C   0  0  0  0  0  0  0  0  0  0  0  0
    2.8660    2.5782    0.0000 C   0  0  0  0  0  0  0  0  0  0  0  0
    2.0000    3.0782    0.0000 C   0  0  0  0  0  0  0  0  0  0  0  0
    3.7320    3.0782    0.0000 C   0  0  0  0  0  0  0  0  0  0  0  0
    2.0000    4.0782    0.0000 C   0  0  0  0  0  0  0  0  0  0  0  0
    3.7320    4.0782    0.0000 C   0  0  0  0  0  0  0  0  0  0  0  0
    2.8660    4.5782    0.0000 C   0  0  0  0  0  0  0  0  0  0  0  0
    6.2690   -2.2156    0.0000 H   0  0  0  0  0  0  0  0  0  0  0  0
    7.4473   -2.7960    0.0000 H   0  0  0  0  0  0  0  0  0  0  0  0
    6.8540   -2.2637    0.0000 H   0  0  0  0  0  0  0  0  0  0  0  0
    7.5267   -4.3218    0.0000 H   0  0  0  0  0  0  0  0  0  0  0  0
    7.6910   -3.5418    0.0000 H   0  0  0  0  0  0  0  0  0  0  0  0
    6.2450   -5.1534    0.0000 H   0  0  0  0  0  0  0  0  0  0  0  0
    7.0026   -4.9058    0.0000 H   0  0  0  0  0  0  0  0  0  0  0  0
    4.8840   -4.4593    0.0000 H   0  0  0  0  0  0  0  0  0  0  0  0
    5.4772   -4.9916    0.0000 H   0  0  0  0  0  0  0  0  0  0  0  0
    6.7479   -0.9219    0.0000 H   0  0  0  0  0  0  0  0  0  0  0  0
    4.2690    1.3882    0.0000 H   0  0  0  0  0  0  0  0  0  0  0  0
    2.2554    1.6858    0.0000 H   0  0  0  0  0  0  0  0  0  0  0  0
    2.6540    0.9955    0.0000 H   0  0  0  0  0  0  0  0  0  0  0  0
    2.3291   -1.7318    0.0000 H   0  0  0  0  0  0  0  0  0  0  0  0
    1.4631    2.7682    0.0000 H   0  0  0  0  0  0  0  0  0  0  0  0
    4.2690    2.7682    0.0000 H   0  0  0  0  0  0  0  0  0  0  0  0
    1.4631    4.3882    0.0000 H   0  0  0  0  0  0  0  0  0  0  0  0
    4.2690    4.3882    0.0000 H   0  0  0  0  0  0  0  0  0  0  0  0
    2.8660    5.1982    0.0000 H   0  0  0  0  0  0  0  0  0  0  0  0
  1  7  1  0  0  0  0
  1 11  1  0  0  0  0
  7  2  1  6  0  0  0
  2 12  1  0  0  0  0
  2 13  1  0  0  0  0
  3 13  2  0  0  0  0
  3 14  1  0  0  0  0
  4 12  1  0  0  0  0
  4 17  2  0  0  0  0
  5 15  1  0  0  0  0
  5 16  1  0  0  0  0
  5 34  1  0  0  0  0
  6 15  2  0  0  0  0
  6 17  1  0  0  0  0
  7  8  1  0  0  0  0
  7 24  1  0  0  0  0
  8  9  1  0  0  0  0
  8 25  1  0  0  0  0
  8 26  1  0  0  0  0
  9 10  1  0  0  0  0
  9 27  1  0  0  0  0
  9 28  1  0  0  0  0
 10 11  1  0  0  0  0
 10 29  1  0  0  0  0
 10 30  1  0  0  0  0
 11 31  1  0  0  0  0
 11 32  1  0  0  0  0
 12 14  2  0  0  0  0
 13 33  1  0  0  0  0
 14 15  1  0  0  0  0
 16 18  1  0  0  0  0
 16 35  1  0  0  0  0
 16 36  1  0  0  0  0
 17 37  1  0  0  0  0
 18 19  2  0  0  0  0
 18 20  1  0  0  0  0
 19 21  1  0  0  0  0
 19 38  1  0  0  0  0
 20 22  2  0  0  0  0
 20 39  1  0  0  0  0
 21 23  2  0  0  0  0
 21 40  1  0  0  0  0
 22 23  1  0  0  0  0
 22 41  1  0  0  0  0
 23 42  1  0  0  0  0
M  END
> <PUBCHEM_COMPOUND_CID>
854018

> <PUBCHEM_COMPOUND_CANONICALIZED>
1

> <PUBCHEM_CACTVS_COMPLEXITY>
376

> <PUBCHEM_CACTVS_HBOND_ACCEPTOR>
5

> <PUBCHEM_CACTVS_HBOND_DONOR>
1

> <PUBCHEM_CACTVS_ROTATABLE_BOND>
4

> <PUBCHEM_CACTVS_SUBSKEYS>
AAADceB7oAAAAAAAAAAAAAAAAAAAAWAAAAA8SIAAAAAAAFgB/AAAHgAQAAAADAjhnwY18L/MFACgAyZjZACCgC0xEKAJ2KAoVJiIaCLA2VGeJAhsgALIiCeQkAIOAAAAAAAAAAAAAAAAAAAAAAAAAAAAAA==

> <PUBCHEM_IUPAC_OPENEYE_NAME>
N-benzyl-9-[(2S)-tetrahydropyran-2-yl]purin-6-amine

> <PUBCHEM_IUPAC_CAS_NAME>
9-[(2S)-2-oxanyl]-N-(phenylmethyl)-6-purinamine

> <PUBCHEM_IUPAC_NAME>
N-benzyl-9-[(2S)-oxan-2-yl]purin-6-amine

> <PUBCHEM_IUPAC_SYSTEMATIC_NAME>
9-[(2S)-oxan-2-yl]-N-(phenylmethyl)purin-6-amine

> <PUBCHEM_IUPAC_TRADITIONAL_NAME>
benzyl-[9-[(2S)-tetrahydropyran-2-yl]purin-6-yl]amine

> <PUBCHEM_IUPAC_INCHI>
InChI=1S/C17H19N5O/c1-2-6-13(7-3-1)10-18-16-15-17(20-11-19-16)22(12-21-15)14-8-4-5-9-23-14/h1-3,6-7,11-12,14H,4-5,8-10H2,(H,18,19,20)/t14-/m0/s1

> <PUBCHEM_IUPAC_INCHIKEY>
POFWRMVFWIJXHP-AWEZNQCLSA-N

> <PUBCHEM_XLOGP3_AA>
2.6

> <PUBCHEM_EXACT_MASS>
309.15896

> <PUBCHEM_MOLECULAR_FORMULA>
C17H19N5O

> <PUBCHEM_MOLECULAR_WEIGHT>
309.36566

> <PUBCHEM_OPENEYE_CAN_SMILES>
C1CCOC(C1)N2C=NC3=C2N=CN=C3NCC4=CC=CC=C4

> <PUBCHEM_OPENEYE_ISO_SMILES>
C1CCO[C@@H](C1)N2C=NC3=C2N=CN=C3NCC4=CC=CC=C4

> <PUBCHEM_CACTVS_TPSA>
64.9

> <PUBCHEM_MONOISOTOPIC_WEIGHT>
309.15896

> <PUBCHEM_TOTAL_CHARGE>
0

> <PUBCHEM_HEAVY_ATOM_COUNT>
23

> <PUBCHEM_ATOM_DEF_STEREO_COUNT>
1

> <PUBCHEM_ATOM_UDEF_STEREO_COUNT>
0

> <PUBCHEM_BOND_DEF_STEREO_COUNT>
0

> <PUBCHEM_BOND_UDEF_STEREO_COUNT>
0

> <PUBCHEM_ISOTOPIC_ATOM_COUNT>
0

> <PUBCHEM_COMPONENT_COUNT>
1

> <PUBCHEM_CACTVS_TAUTO_COUNT>
3

> <PUBCHEM_COORDINATE_TYPE>
1
5
255

> <PUBCHEM_BONDANNOTATIONS>
12  14  8
14  15  8
18  19  8
18  20  8
19  21  8
2  12  8
2  13  8
7  2  6
20  22  8
21  23  8
22  23  8
3  13  8
3  14  8
4  12  8
4  17  8
6  15  8
6  17  8

$$$$

