440384
  -OEChem-07051212492D

 77 80  0     1  0  0  0  0  0999 V2000
    7.9506   -3.6324    0.0000 O   0  0  0  0  0  0  0  0  0  0  0  0
    2.5357   -3.6533    0.0000 O   0  0  0  0  0  0  0  0  0  0  0  0
   13.0532    4.1245    0.0000 O   0  0  0  0  0  0  0  0  0  0  0  0
   13.4104    2.4297    0.0000 O   0  0  0  0  0  0  0  0  0  0  0  0
    7.9288   -1.6010    0.0000 C   0  0  3  0  0  0  0  0  0  0  0  0
    7.9288   -0.6010    0.0000 C   0  0  1  0  0  0  0  0  0  0  0  0
    7.0628   -2.1010    0.0000 C   0  0  3  0  0  0  0  0  0  0  0  0
    6.1968   -1.6010    0.0000 C   0  0  3  0  0  0  0  0  0  0  0  0
    5.2868   -2.1078    0.0000 C   0  0  2  0  0  0  0  0  0  0  0  0
    8.8750   -0.2962    0.0000 C   0  0  3  0  0  0  0  0  0  0  0  0
    5.2787   -3.1494    0.0000 C   0  0  2  0  0  0  0  0  0  0  0  0
    7.0628   -0.1010    0.0000 C   0  0  0  0  0  0  0  0  0  0  0  0
    6.1968   -0.6010    0.0000 C   0  0  0  0  0  0  0  0  0  0  0  0
    8.8750   -1.9057    0.0000 C   0  0  0  0  0  0  0  0  0  0  0  0
    7.0789   -3.1425    0.0000 C   0  0  1  0  0  0  0  0  0  0  0  0
    9.4586   -1.1010    0.0000 C   0  0  0  0  0  0  0  0  0  0  0  0
    6.1808   -3.6702    0.0000 C   0  0  0  0  0  0  0  0  0  0  0  0
    4.3599   -1.5437    0.0000 C   0  0  0  0  0  0  0  0  0  0  0  0
    7.9288    0.3990    0.0000 C   0  0  0  0  0  0  0  0  0  0  0  0
    9.1857    0.6543    0.0000 C   0  0  1  0  0  0  0  0  0  0  0  0
    4.3433   -3.6991    0.0000 C   0  0  0  0  0  0  0  0  0  0  0  0
    5.2945   -1.1078    0.0000 C   0  0  0  0  0  0  0  0  0  0  0  0
    3.4120   -2.0717    0.0000 C   0  0  0  0  0  0  0  0  0  0  0  0
    3.4037   -3.1566    0.0000 C   0  0  1  0  0  0  0  0  0  0  0  0
   10.1642    0.8605    0.0000 C   0  0  0  0  0  0  0  0  0  0  0  0
    8.5179    1.3986    0.0000 C   0  0  0  0  0  0  0  0  0  0  0  0
   10.4749    1.8110    0.0000 C   0  0  0  0  0  0  0  0  0  0  0  0
   11.4534    2.0173    0.0000 C   0  0  0  0  0  0  0  0  0  0  0  0
   11.7640    2.9678    0.0000 C   0  0  3  0  0  0  0  0  0  0  0  0
   11.0962    3.7121    0.0000 C   0  0  0  0  0  0  0  0  0  0  0  0
   12.7425    3.1740    0.0000 C   0  0  0  0  0  0  0  0  0  0  0  0
    8.0188   -2.4462    0.0000 H   0  0  0  0  0  0  0  0  0  0  0  0
    7.8022   -2.5203    0.0000 H   0  0  0  0  0  0  0  0  0  0  0  0
    6.9329   -1.1760    0.0000 H   0  0  0  0  0  0  0  0  0  0  0  0
    9.7148   -0.1643    0.0000 H   0  0  0  0  0  0  0  0  0  0  0  0
    5.2820   -3.9994    0.0000 H   0  0  0  0  0  0  0  0  0  0  0  0
    7.4613    0.3740    0.0000 H   0  0  0  0  0  0  0  0  0  0  0  0
    6.6643    0.3740    0.0000 H   0  0  0  0  0  0  0  0  0  0  0  0
    5.9847   -0.0183    0.0000 H   0  0  0  0  0  0  0  0  0  0  0  0
    5.5862   -0.7086    0.0000 H   0  0  0  0  0  0  0  0  0  0  0  0
    8.6240   -2.4726    0.0000 H   0  0  0  0  0  0  0  0  0  0  0  0
    9.4124   -2.2149    0.0000 H   0  0  0  0  0  0  0  0  0  0  0  0
    7.6116   -2.8252    0.0000 H   0  0  0  0  0  0  0  0  0  0  0  0
    9.9195   -1.5157    0.0000 H   0  0  0  0  0  0  0  0  0  0  0  0
    9.9195   -0.6862    0.0000 H   0  0  0  0  0  0  0  0  0  0  0  0
    5.7835   -4.1462    0.0000 H   0  0  0  0  0  0  0  0  0  0  0  0
    6.5818   -4.1431    0.0000 H   0  0  0  0  0  0  0  0  0  0  0  0
    4.7681   -1.0771    0.0000 H   0  0  0  0  0  0  0  0  0  0  0  0
    3.9700   -1.0617    0.0000 H   0  0  0  0  0  0  0  0  0  0  0  0
    8.5488    0.3990    0.0000 H   0  0  0  0  0  0  0  0  0  0  0  0
    7.9288    1.0190    0.0000 H   0  0  0  0  0  0  0  0  0  0  0  0
    7.3088    0.3990    0.0000 H   0  0  0  0  0  0  0  0  0  0  0  0
    9.3783    1.2436    0.0000 H   0  0  0  0  0  0  0  0  0  0  0  0
    3.9460   -4.1751    0.0000 H   0  0  0  0  0  0  0  0  0  0  0  0
    4.7443   -4.1720    0.0000 H   0  0  0  0  0  0  0  0  0  0  0  0
    5.9145   -1.1126    0.0000 H   0  0  0  0  0  0  0  0  0  0  0  0
    5.2993   -0.4878    0.0000 H   0  0  0  0  0  0  0  0  0  0  0  0
    4.6745   -1.1030    0.0000 H   0  0  0  0  0  0  0  0  0  0  0  0
    3.2075   -1.4864    0.0000 H   0  0  0  0  0  0  0  0  0  0  0  0
    2.8004   -2.1730    0.0000 H   0  0  0  0  0  0  0  0  0  0  0  0
    3.4025   -3.7766    0.0000 H   0  0  0  0  0  0  0  0  0  0  0  0
   10.1848    0.2409    0.0000 H   0  0  0  0  0  0  0  0  0  0  0  0
   10.7780    0.7732    0.0000 H   0  0  0  0  0  0  0  0  0  0  0  0
    7.9578   -4.2524    0.0000 H   0  0  0  0  0  0  0  0  0  0  0  0
    8.9793    1.8127    0.0000 H   0  0  0  0  0  0  0  0  0  0  0  0
    8.1038    1.8601    0.0000 H   0  0  0  0  0  0  0  0  0  0  0  0
    8.0564    0.9845    0.0000 H   0  0  0  0  0  0  0  0  0  0  0  0
   10.4543    2.4307    0.0000 H   0  0  0  0  0  0  0  0  0  0  0  0
    9.8611    1.8984    0.0000 H   0  0  0  0  0  0  0  0  0  0  0  0
    2.0000   -3.3412    0.0000 H   0  0  0  0  0  0  0  0  0  0  0  0
   11.4739    1.3976    0.0000 H   0  0  0  0  0  0  0  0  0  0  0  0
   12.0672    1.9299    0.0000 H   0  0  0  0  0  0  0  0  0  0  0  0
   10.9323    2.7925    0.0000 H   0  0  0  0  0  0  0  0  0  0  0  0
   11.5577    4.1261    0.0000 H   0  0  0  0  0  0  0  0  0  0  0  0
   10.6821    4.1736    0.0000 H   0  0  0  0  0  0  0  0  0  0  0  0
   10.6347    3.2980    0.0000 H   0  0  0  0  0  0  0  0  0  0  0  0
   13.6599    4.2524    0.0000 H   0  0  0  0  0  0  0  0  0  0  0  0
 15  1  1  6  0  0  0
  1 64  1  0  0  0  0
 24  2  1  6  0  0  0
  2 70  1  0  0  0  0
  3 31  1  0  0  0  0
  3 77  1  0  0  0  0
  4 31  2  0  0  0  0
  5  6  1  0  0  0  0
  5  7  1  0  0  0  0
  5 14  1  0  0  0  0
  5 32  1  0  0  0  0
  6 10  1  0  0  0  0
  6 12  1  0  0  0  0
  6 19  1  1  0  0  0
  7  8  1  0  0  0  0
  7 15  1  0  0  0  0
  7 33  1  0  0  0  0
  8  9  1  0  0  0  0
  8 13  1  0  0  0  0
  8 34  1  0  0  0  0
  9 11  1  0  0  0  0
  9 18  1  0  0  0  0
  9 22  1  1  0  0  0
 10 16  1  0  0  0  0
 10 20  1  0  0  0  0
 10 35  1  0  0  0  0
 11 17  1  0  0  0  0
 11 21  1  0  0  0  0
 11 36  1  1  0  0  0
 12 13  1  0  0  0  0
 12 37  1  0  0  0  0
 12 38  1  0  0  0  0
 13 39  1  0  0  0  0
 13 40  1  0  0  0  0
 14 16  1  0  0  0  0
 14 41  1  0  0  0  0
 14 42  1  0  0  0  0
 15 17  1  0  0  0  0
 15 43  1  0  0  0  0
 16 44  1  0  0  0  0
 16 45  1  0  0  0  0
 17 46  1  0  0  0  0
 17 47  1  0  0  0  0
 18 23  1  0  0  0  0
 18 48  1  0  0  0  0
 18 49  1  0  0  0  0
 19 50  1  0  0  0  0
 19 51  1  0  0  0  0
 19 52  1  0  0  0  0
 20 25  1  0  0  0  0
 20 26  1  6  0  0  0
 20 53  1  0  0  0  0
 21 24  1  0  0  0  0
 21 54  1  0  0  0  0
 21 55  1  0  0  0  0
 22 56  1  0  0  0  0
 22 57  1  0  0  0  0
 22 58  1  0  0  0  0
 23 24  1  0  0  0  0
 23 59  1  0  0  0  0
 23 60  1  0  0  0  0
 24 61  1  0  0  0  0
 25 27  1  0  0  0  0
 25 62  1  0  0  0  0
 25 63  1  0  0  0  0
 26 65  1  0  0  0  0
 26 66  1  0  0  0  0
 26 67  1  0  0  0  0
 27 28  1  0  0  0  0
 27 68  1  0  0  0  0
 27 69  1  0  0  0  0
 28 29  1  0  0  0  0
 28 71  1  0  0  0  0
 28 72  1  0  0  0  0
 29 30  1  0  0  0  0
 29 31  1  0  0  0  0
 29 73  1  0  0  0  0
 30 74  1  0  0  0  0
 30 75  1  0  0  0  0
 30 76  1  0  0  0  0
M  END
> <PUBCHEM_COMPOUND_CID>
440384

> <PUBCHEM_COMPOUND_CANONICALIZED>
1

> <PUBCHEM_CACTVS_COMPLEXITY>
664

> <PUBCHEM_CACTVS_HBOND_ACCEPTOR>
4

> <PUBCHEM_CACTVS_HBOND_DONOR>
3

> <PUBCHEM_CACTVS_ROTATABLE_BOND>
6

> <PUBCHEM_CACTVS_SUBSKEYS>
AAADcfB4OAAAAAAAAAAAAAAAAAAAAYAAAAAwYMAAAAAAAGDAAAAAGgAACAAADxSggAICCAAAAgAIAACQCAAAAAAAAAAAAAEAAAAAEBIAAAAAQAAEAAAAAAGI6PSPgAAAAAAAAADAAAYAADAAAQAACAAAAA==

> <PUBCHEM_IUPAC_OPENEYE_NAME>
(6R)-6-[(3R,5S,7R,10S,13R)-3,7-dihydroxy-10,13-dimethyl-2,3,4,5,6,7,8,9,11,12,14,15,16,17-tetradecahydro-1H-cyclopenta[a]phenanthren-17-yl]-2-methyl-heptanoic acid

> <PUBCHEM_IUPAC_CAS_NAME>
(6R)-6-[(3R,5S,7R,10S,13R)-3,7-dihydroxy-10,13-dimethyl-2,3,4,5,6,7,8,9,11,12,14,15,16,17-tetradecahydro-1H-cyclopenta[a]phenanthren-17-yl]-2-methylheptanoic acid

> <PUBCHEM_IUPAC_NAME>
(6R)-6-[(3R,5S,7R,10S,13R)-3,7-dihydroxy-10,13-dimethyl-2,3,4,5,6,7,8,9,11,12,14,15,16,17-tetradecahydro-1H-cyclopenta[a]phenanthren-17-yl]-2-methylheptanoic acid

> <PUBCHEM_IUPAC_SYSTEMATIC_NAME>
(6R)-6-[(3R,5S,7R,10S,13R)-10,13-dimethyl-3,7-bis(oxidanyl)-2,3,4,5,6,7,8,9,11,12,14,15,16,17-tetradecahydro-1H-cyclopenta[a]phenanthren-17-yl]-2-methyl-heptanoic acid

> <PUBCHEM_IUPAC_TRADITIONAL_NAME>
(6R)-6-[(3R,5S,7R,10S,13R)-3,7-dihydroxy-10,13-dimethyl-2,3,4,5,6,7,8,9,11,12,14,15,16,17-tetradecahydro-1H-cyclopenta[a]phenanthren-17-yl]-2-methyl-enanthic acid

> <PUBCHEM_IUPAC_INCHI>
InChI=1S/C27H46O4/c1-16(6-5-7-17(2)25(30)31)20-8-9-21-24-22(11-13-27(20,21)4)26(3)12-10-19(28)14-18(26)15-23(24)29/h16-24,28-29H,5-15H2,1-4H3,(H,30,31)/t16-,17?,18+,19-,20?,21?,22?,23-,24?,26+,27-/m1/s1

> <PUBCHEM_IUPAC_INCHIKEY>
ITZYGDKGRKKBSN-SQZYAAIWSA-N

> <PUBCHEM_XLOGP3_AA>
6.6

> <PUBCHEM_EXACT_MASS>
434.33961

> <PUBCHEM_MOLECULAR_FORMULA>
C27H46O4

> <PUBCHEM_MOLECULAR_WEIGHT>
434.65174

> <PUBCHEM_OPENEYE_CAN_SMILES>
CC(CCCC(C)C(=O)O)C1CCC2C1(CCC3C2C(CC4C3(CCC(C4)O)C)O)C

> <PUBCHEM_OPENEYE_ISO_SMILES>
C[C@H](CCCC(C)C(=O)O)C1CCC2[C@@]1(CCC3C2[C@@H](C[C@H]4[C@@]3(CC[C@H](C4)O)C)O)C

> <PUBCHEM_CACTVS_TPSA>
77.8

> <PUBCHEM_MONOISOTOPIC_WEIGHT>
434.33961

> <PUBCHEM_TOTAL_CHARGE>
0

> <PUBCHEM_HEAVY_ATOM_COUNT>
31

> <PUBCHEM_ATOM_DEF_STEREO_COUNT>
6

> <PUBCHEM_ATOM_UDEF_STEREO_COUNT>
5

> <PUBCHEM_BOND_DEF_STEREO_COUNT>
0

> <PUBCHEM_BOND_UDEF_STEREO_COUNT>
0

> <PUBCHEM_ISOTOPIC_ATOM_COUNT>
0

> <PUBCHEM_COMPONENT_COUNT>
1

> <PUBCHEM_CACTVS_TAUTO_COUNT>
1

> <PUBCHEM_COORDINATE_TYPE>
1
5
255

> <PUBCHEM_BONDANNOTATIONS>
15  1  6
10  35  3
11  36  5
24  2  6
20  26  6
29  73  3
5  32  3
6  19  5
7  33  3
8  34  3
9  22  5

$$$$

