   Color/Form

     * LEAFLETS FROM ALCOHOL
     * WHITE TO PALE BUFF, CRYSTALLINE SUBSTANCE; STARCH-LIKE IN
       APPEARANCE & TO TOUCH

   from [1]HSDB

   Odor
        FAINT, CHARACTERISTIC
   from [2]HSDB

   Boiling Point
        280 DEG C WITH SOME DECOMP
   from [3]HSDB

   Melting Point
        146-148 DEG C
   from [4]HSDB

   Octanol/Water Partition Coefficient
        log Kow = -0.34
   from [5]HSDB

   pH
        SOLN ARE PRACTICALLY NEUTRAL TO LITMUS
   from [6]HSDB

   Solubilities

     * Soluble in alcohol, chloroform. Sparingly soluble in ether,
       petroleum ether.
     * 1 G SOL IN ABOUT 125 ML ETHER, ABOUT 4.5 ML CHLOROFORM, ABOUT 5 ML
       WATER, 5 ML ALCOHOL
     * SOL IN PYRIDINE
     * Slightly soluble in benzene.

   from [7]HSDB

   Spectral Properties

     * MAX ABSORPTION (CHLOROFORM): 267 NM (LOG E= 4.23)
     * IR: 2:1062C (Aldrich Library of Infrared Spectra, Aldrich Chemical
       Co, Milwaukee, WI)
     * UV: 3-18 (Organic Electronic Spectral Data, Phillips et al, John
       Wiley & Sons, New York)
     * NMR: 8:30A (Aldrich Library of Mass Spectra, Aldrich Chemical Co,
       Milwaukee, WI)
     * UV max (0.1 N sulfuric acid): 211, 251.5 nm (E 593, 1528, 1%, 1cm).

   from [8]HSDB

   Computed Properties
   Molecular Weight                  114.16884 [g/mol]
   Molecular Formula                 C[4]H[6]N[2]S
   XLogP3                            -0.3
   H-Bond Donor                      1
   H-Bond Acceptor                   1
   Rotatable Bond Count              0
   Tautomer Count                    2
   Exact Mass                        114.025169
   MonoIsotopic Mass                 114.025169
   Topological Polar Surface Area    47.4
   Heavy Atom Count                  7
   Formal Charge                     0
   Complexity                        119
   Isotope Atom Count                0
   Defined Atom Stereocenter Count   0
   Undefined Atom Stereocenter Count 0
   Defined Bond Stereocenter Count   0
   Undefined Bond Stereocenter Count 0
   Covalently-Bonded Unit Count      1
   Feature 3D Acceptor Count         1
   Feature 3D Donor Count            1
   Feature 3D Ring Count             1
   Effective Rotor Count             0
   Conformer Sampling RMSD           0.4
   CID Conformer Count               [9]1

References

   1. http://toxnet.nlm.nih.gov/cgi-bin/sis/search/r?dbs+hsdb:@term+@rn+@rel+60-56-0
   2. http://toxnet.nlm.nih.gov/cgi-bin/sis/search/r?dbs+hsdb:@term+@rn+@rel+60-56-0
   3. http://toxnet.nlm.nih.gov/cgi-bin/sis/search/r?dbs+hsdb:@term+@rn+@rel+60-56-0
   4. http://toxnet.nlm.nih.gov/cgi-bin/sis/search/r?dbs+hsdb:@term+@rn+@rel+60-56-0
   5. http://toxnet.nlm.nih.gov/cgi-bin/sis/search/r?dbs+hsdb:@term+@rn+@rel+60-56-0
   6. http://toxnet.nlm.nih.gov/cgi-bin/sis/search/r?dbs+hsdb:@term+@rn+@rel+60-56-0
   7. http://toxnet.nlm.nih.gov/cgi-bin/sis/search/r?dbs+hsdb:@term+@rn+@rel+60-56-0
   8. http://toxnet.nlm.nih.gov/cgi-bin/sis/search/r?dbs+hsdb:@term+@rn+@rel+60-56-0
   9. http://pubchem.ncbi.nlm.nih.gov/vw3d/vw3d.cgi?cid=1349907
