12725
  -OEChem-06261207172D

 17 16  0     0  0  0  0  0  0999 V2000
    4.5981    1.0600    0.0000 O   0  0  0  0  0  0  0  0  0  0  0  0
    3.7320   -0.4400    0.0000 N   0  0  0  0  0  0  0  0  0  0  0  0
    5.4641   -0.4400    0.0000 N   0  0  0  0  0  0  0  0  0  0  0  0
    2.8660    0.0600    0.0000 C   0  0  0  0  0  0  0  0  0  0  0  0
    2.0000   -0.4400    0.0000 C   0  0  0  0  0  0  0  0  0  0  0  0
    2.8660    1.0600    0.0000 C   0  0  0  0  0  0  0  0  0  0  0  0
    4.5981    0.0600    0.0000 C   0  0  0  0  0  0  0  0  0  0  0  0
    2.8660   -0.5600    0.0000 H   0  0  0  0  0  0  0  0  0  0  0  0
    1.6900    0.0969    0.0000 H   0  0  0  0  0  0  0  0  0  0  0  0
    1.4631   -0.7500    0.0000 H   0  0  0  0  0  0  0  0  0  0  0  0
    2.3100   -0.9769    0.0000 H   0  0  0  0  0  0  0  0  0  0  0  0
    3.4860    1.0600    0.0000 H   0  0  0  0  0  0  0  0  0  0  0  0
    2.8660    1.6800    0.0000 H   0  0  0  0  0  0  0  0  0  0  0  0
    2.2460    1.0600    0.0000 H   0  0  0  0  0  0  0  0  0  0  0  0
    3.7320   -1.0600    0.0000 H   0  0  0  0  0  0  0  0  0  0  0  0
    6.0010   -0.1300    0.0000 H   0  0  0  0  0  0  0  0  0  0  0  0
    5.4641   -1.0600    0.0000 H   0  0  0  0  0  0  0  0  0  0  0  0
  1  7  2  0  0  0  0
  2  4  1  0  0  0  0
  2  7  1  0  0  0  0
  2 15  1  0  0  0  0
  3  7  1  0  0  0  0
  3 16  1  0  0  0  0
  3 17  1  0  0  0  0
  4  5  1  0  0  0  0
  4  6  1  0  0  0  0
  4  8  1  0  0  0  0
  5  9  1  0  0  0  0
  5 10  1  0  0  0  0
  5 11  1  0  0  0  0
  6 12  1  0  0  0  0
  6 13  1  0  0  0  0
  6 14  1  0  0  0  0
M  END
> <PUBCHEM_COMPOUND_CID>
12725

> <PUBCHEM_COMPOUND_CANONICALIZED>
1

> <PUBCHEM_CACTVS_COMPLEXITY>
70.1

> <PUBCHEM_CACTVS_HBOND_ACCEPTOR>
1

> <PUBCHEM_CACTVS_HBOND_DONOR>
2

> <PUBCHEM_CACTVS_ROTATABLE_BOND>
1

> <PUBCHEM_CACTVS_SUBSKEYS>
AAADccBjIAAAAAAAAAAAAAAAAAAAAAAAAAAAAAAAAAAAAAAAAAAAHgAQAAAACCjBAAQDAALAAAAIAAAAEAAAAAAAAAAAAIAIAACAAAAAAAAAAAAAFgIAAAAAAAAAAAAAAAAAAAAAAAAAAAAAAAAAAAAAAA==

> <PUBCHEM_IUPAC_OPENEYE_NAME>
isopropylurea

> <PUBCHEM_IUPAC_CAS_NAME>
propan-2-ylurea

> <PUBCHEM_IUPAC_NAME>
propan-2-ylurea

> <PUBCHEM_IUPAC_SYSTEMATIC_NAME>
1-propan-2-ylurea

> <PUBCHEM_IUPAC_TRADITIONAL_NAME>
isopropylurea

> <PUBCHEM_IUPAC_INCHI>
InChI=1S/C4H10N2O/c1-3(2)6-4(5)7/h3H,1-2H3,(H3,5,6,7)

> <PUBCHEM_IUPAC_INCHIKEY>
LZMATGARSSLFMQ-UHFFFAOYSA-N

> <PUBCHEM_XLOGP3_AA>
-0.2

> <PUBCHEM_EXACT_MASS>
102.079313

> <PUBCHEM_MOLECULAR_FORMULA>
C4H10N2O

> <PUBCHEM_MOLECULAR_WEIGHT>
102.135

> <PUBCHEM_OPENEYE_CAN_SMILES>
CC(C)NC(=O)N

> <PUBCHEM_OPENEYE_ISO_SMILES>
CC(C)NC(=O)N

> <PUBCHEM_CACTVS_TPSA>
55.1

> <PUBCHEM_MONOISOTOPIC_WEIGHT>
102.079313

> <PUBCHEM_TOTAL_CHARGE>
0

> <PUBCHEM_HEAVY_ATOM_COUNT>
7

> <PUBCHEM_ATOM_DEF_STEREO_COUNT>
0

> <PUBCHEM_ATOM_UDEF_STEREO_COUNT>
0

> <PUBCHEM_BOND_DEF_STEREO_COUNT>
0

> <PUBCHEM_BOND_UDEF_STEREO_COUNT>
0

> <PUBCHEM_ISOTOPIC_ATOM_COUNT>
0

> <PUBCHEM_COMPONENT_COUNT>
1

> <PUBCHEM_CACTVS_TAUTO_COUNT>
3

> <PUBCHEM_COORDINATE_TYPE>
1
5
255

$$$$

