236180
  -OEChem-07051213062D

 57 60  0     1  0  0  0  0  0999 V2000
    5.5540    0.6870    0.0000 F   0  0  0  0  0  0  0  0  0  0  0  0
    5.3307    1.4209    0.0000 O   0  0  0  0  0  0  0  0  0  0  0  0
    9.6851    1.8120    0.0000 O   0  0  0  0  0  0  0  0  0  0  0  0
    2.5357   -2.1314    0.0000 O   0  0  0  0  0  0  0  0  0  0  0  0
    7.0628   -0.5791    0.0000 C   0  0  2  0  0  0  0  0  0  0  0  0
    6.1968   -0.0791    0.0000 C   0  0  2  0  0  0  0  0  0  0  0  0
    7.9288   -0.0791    0.0000 C   0  0  1  0  0  0  0  0  0  0  0  0
    7.9288    0.9209    0.0000 C   0  0  1  0  0  0  0  0  0  0  0  0
    5.2868   -0.5859    0.0000 C   0  0  2  0  0  0  0  0  0  0  0  0
    5.2787   -1.6275    0.0000 C   0  0  1  0  0  0  0  0  0  0  0  0
    6.1968    0.9209    0.0000 C   0  0  2  0  0  0  0  0  0  0  0  0
    8.8750    1.2257    0.0000 C   0  0  2  0  0  0  0  0  0  0  0  0
    7.0628    1.4209    0.0000 C   0  0  0  0  0  0  0  0  0  0  0  0
    7.0789   -1.6206    0.0000 C   0  0  0  0  0  0  0  0  0  0  0  0
    8.8750   -0.3838    0.0000 C   0  0  0  0  0  0  0  0  0  0  0  0
    6.1808   -2.1483    0.0000 C   0  0  0  0  0  0  0  0  0  0  0  0
    9.4586    0.4209    0.0000 C   0  0  0  0  0  0  0  0  0  0  0  0
    4.3599   -0.0218    0.0000 C   0  0  0  0  0  0  0  0  0  0  0  0
    4.3433   -2.1772    0.0000 C   0  0  0  0  0  0  0  0  0  0  0  0
    7.9288    1.9209    0.0000 C   0  0  0  0  0  0  0  0  0  0  0  0
    4.9520    0.3564    0.0000 C   0  0  0  0  0  0  0  0  0  0  0  0
    3.4120   -0.5498    0.0000 C   0  0  0  0  0  0  0  0  0  0  0  0
    3.4037   -1.6348    0.0000 C   0  0  2  0  0  0  0  0  0  0  0  0
    8.5677    2.1772    0.0000 C   0  0  0  0  0  0  0  0  0  0  0  0
    7.8022   -0.9984    0.0000 H   0  0  0  0  0  0  0  0  0  0  0  0
    8.0188   -0.9243    0.0000 H   0  0  0  0  0  0  0  0  0  0  0  0
    5.2820   -2.4775    0.0000 H   0  0  0  0  0  0  0  0  0  0  0  0
    6.1968    1.5409    0.0000 H   0  0  0  0  0  0  0  0  0  0  0  0
    7.4613    1.8959    0.0000 H   0  0  0  0  0  0  0  0  0  0  0  0
    6.6643    1.8959    0.0000 H   0  0  0  0  0  0  0  0  0  0  0  0
    7.2969   -2.2010    0.0000 H   0  0  0  0  0  0  0  0  0  0  0  0
    7.6880   -1.5051    0.0000 H   0  0  0  0  0  0  0  0  0  0  0  0
    8.6240   -0.9507    0.0000 H   0  0  0  0  0  0  0  0  0  0  0  0
    9.4124   -0.6930    0.0000 H   0  0  0  0  0  0  0  0  0  0  0  0
    5.7835   -2.6243    0.0000 H   0  0  0  0  0  0  0  0  0  0  0  0
    6.5818   -2.6212    0.0000 H   0  0  0  0  0  0  0  0  0  0  0  0
    9.9195    0.0062    0.0000 H   0  0  0  0  0  0  0  0  0  0  0  0
    9.9195    0.8357    0.0000 H   0  0  0  0  0  0  0  0  0  0  0  0
    4.7681    0.4448    0.0000 H   0  0  0  0  0  0  0  0  0  0  0  0
    3.9700    0.4602    0.0000 H   0  0  0  0  0  0  0  0  0  0  0  0
    3.9460   -2.6532    0.0000 H   0  0  0  0  0  0  0  0  0  0  0  0
    4.7443   -2.6501    0.0000 H   0  0  0  0  0  0  0  0  0  0  0  0
    8.5488    1.9209    0.0000 H   0  0  0  0  0  0  0  0  0  0  0  0
    7.9288    2.5409    0.0000 H   0  0  0  0  0  0  0  0  0  0  0  0
    7.3088    1.9209    0.0000 H   0  0  0  0  0  0  0  0  0  0  0  0
    5.5362    0.5639    0.0000 H   0  0  0  0  0  0  0  0  0  0  0  0
    4.7444    0.9406    0.0000 H   0  0  0  0  0  0  0  0  0  0  0  0
    4.3678    0.1488    0.0000 H   0  0  0  0  0  0  0  0  0  0  0  0
    3.2075    0.0355    0.0000 H   0  0  0  0  0  0  0  0  0  0  0  0
    2.8004   -0.6512    0.0000 H   0  0  0  0  0  0  0  0  0  0  0  0
    3.4025   -2.2548    0.0000 H   0  0  0  0  0  0  0  0  0  0  0  0
    9.1577    2.3678    0.0000 H   0  0  0  0  0  0  0  0  0  0  0  0
    8.3771    2.7672    0.0000 H   0  0  0  0  0  0  0  0  0  0  0  0
    7.9777    1.9867    0.0000 H   0  0  0  0  0  0  0  0  0  0  0  0
    5.3307    2.0409    0.0000 H   0  0  0  0  0  0  0  0  0  0  0  0
   10.2510    1.5589    0.0000 H   0  0  0  0  0  0  0  0  0  0  0  0
    2.0000   -1.8193    0.0000 H   0  0  0  0  0  0  0  0  0  0  0  0
  6  1  1  6  0  0  0
 11  2  1  1  0  0  0
  2 55  1  0  0  0  0
 12  3  1  1  0  0  0
  3 56  1  0  0  0  0
 23  4  1  1  0  0  0
  4 57  1  0  0  0  0
  5  6  1  0  0  0  0
  5  7  1  0  0  0  0
  5 14  1  0  0  0  0
  5 25  1  1  0  0  0
  6  9  1  0  0  0  0
  6 11  1  0  0  0  0
  7  8  1  0  0  0  0
  7 15  1  0  0  0  0
  7 26  1  6  0  0  0
  8 12  1  0  0  0  0
  8 13  1  0  0  0  0
  8 20  1  1  0  0  0
  9 10  1  0  0  0  0
  9 18  1  0  0  0  0
  9 21  1  1  0  0  0
 10 16  1  0  0  0  0
 10 19  1  0  0  0  0
 10 27  1  6  0  0  0
 11 13  1  0  0  0  0
 11 28  1  0  0  0  0
 12 17  1  0  0  0  0
 12 24  1  0  0  0  0
 13 29  1  0  0  0  0
 13 30  1  0  0  0  0
 14 16  1  0  0  0  0
 14 31  1  0  0  0  0
 14 32  1  0  0  0  0
 15 17  1  0  0  0  0
 15 33  1  0  0  0  0
 15 34  1  0  0  0  0
 16 35  1  0  0  0  0
 16 36  1  0  0  0  0
 17 37  1  0  0  0  0
 17 38  1  0  0  0  0
 18 22  1  0  0  0  0
 18 39  1  0  0  0  0
 18 40  1  0  0  0  0
 19 23  1  0  0  0  0
 19 41  1  0  0  0  0
 19 42  1  0  0  0  0
 20 43  1  0  0  0  0
 20 44  1  0  0  0  0
 20 45  1  0  0  0  0
 21 46  1  0  0  0  0
 21 47  1  0  0  0  0
 21 48  1  0  0  0  0
 22 23  1  0  0  0  0
 22 49  1  0  0  0  0
 22 50  1  0  0  0  0
 23 51  1  0  0  0  0
 24 52  1  0  0  0  0
 24 53  1  0  0  0  0
 24 54  1  0  0  0  0
M  END
> <PUBCHEM_COMPOUND_CID>
236180

> <PUBCHEM_COMPOUND_CANONICALIZED>
1

> <PUBCHEM_CACTVS_COMPLEXITY>
541

> <PUBCHEM_CACTVS_HBOND_ACCEPTOR>
4

> <PUBCHEM_CACTVS_HBOND_DONOR>
3

> <PUBCHEM_CACTVS_ROTATABLE_BOND>
0

> <PUBCHEM_CACTVS_SUBSKEYS>
AAADcfB4MQAAAAAAAAAAAAAAAAAAAYAAAAAwYMAAAAAAAGDAAAAAGwAACAAAD1SggAICAAAAAgAAAAAAAAAAAAAAAAAAAAAAAAAAEAIAAAAAQAAEAAAAAAHAwPAPgAAAAAAAAADAAAYAADAAAYAADAAAAA==

> <PUBCHEM_IUPAC_OPENEYE_NAME>
(3S,5S,8S,9R,10S,11S,13S,14S,17S)-9-fluoro-10,13,17-trimethyl-2,3,4,5,6,7,8,11,12,14,15,16-dodecahydro-1H-cyclopenta[a]phenanthrene-3,11,17-triol

> <PUBCHEM_IUPAC_CAS_NAME>
(3S,5S,8S,9R,10S,11S,13S,14S,17S)-9-fluoro-10,13,17-trimethyl-2,3,4,5,6,7,8,11,12,14,15,16-dodecahydro-1H-cyclopenta[a]phenanthrene-3,11,17-triol

> <PUBCHEM_IUPAC_NAME>
(3S,5S,8S,9R,10S,11S,13S,14S,17S)-9-fluoro-10,13,17-trimethyl-2,3,4,5,6,7,8,11,12,14,15,16-dodecahydro-1H-cyclopenta[a]phenanthrene-3,11,17-triol

> <PUBCHEM_IUPAC_SYSTEMATIC_NAME>
(3S,5S,8S,9R,10S,11S,13S,14S,17S)-9-fluoranyl-10,13,17-trimethyl-2,3,4,5,6,7,8,11,12,14,15,16-dodecahydro-1H-cyclopenta[a]phenanthrene-3,11,17-triol

> <PUBCHEM_IUPAC_TRADITIONAL_NAME>
(3S,5S,8S,9R,10S,11S,13S,14S,17S)-9-fluoro-10,13,17-trimethyl-2,3,4,5,6,7,8,11,12,14,15,16-dodecahydro-1H-cyclopenta[a]phenanthrene-3,11,17-triol

> <PUBCHEM_IUPAC_INCHI>
InChI=1S/C20H33FO3/c1-17-8-6-13(22)10-12(17)4-5-15-14-7-9-19(3,24)18(14,2)11-16(23)20(15,17)21/h12-16,22-24H,4-11H2,1-3H3/t12-,13-,14-,15-,16-,17-,18-,19-,20-/m0/s1

> <PUBCHEM_IUPAC_INCHIKEY>
XKASGEXHNLDQIB-AYWFNIBGSA-N

> <PUBCHEM_XLOGP3_AA>
3

> <PUBCHEM_EXACT_MASS>
340.241373

> <PUBCHEM_MOLECULAR_FORMULA>
C20H33FO3

> <PUBCHEM_MOLECULAR_WEIGHT>
340.472623

> <PUBCHEM_OPENEYE_CAN_SMILES>
CC12CCC(CC1CCC3C2(C(CC4(C3CCC4(C)O)C)O)F)O

> <PUBCHEM_OPENEYE_ISO_SMILES>
C[C@]12CC[C@@H](C[C@@H]1CC[C@@H]3[C@@]2([C@H](C[C@]4([C@H]3CC[C@]4(C)O)C)O)F)O

> <PUBCHEM_CACTVS_TPSA>
60.7

> <PUBCHEM_MONOISOTOPIC_WEIGHT>
340.241373

> <PUBCHEM_TOTAL_CHARGE>
0

> <PUBCHEM_HEAVY_ATOM_COUNT>
24

> <PUBCHEM_ATOM_DEF_STEREO_COUNT>
9

> <PUBCHEM_ATOM_UDEF_STEREO_COUNT>
0

> <PUBCHEM_BOND_DEF_STEREO_COUNT>
0

> <PUBCHEM_BOND_UDEF_STEREO_COUNT>
0

> <PUBCHEM_ISOTOPIC_ATOM_COUNT>
0

> <PUBCHEM_COMPONENT_COUNT>
1

> <PUBCHEM_CACTVS_TAUTO_COUNT>
1

> <PUBCHEM_COORDINATE_TYPE>
1
5
255

> <PUBCHEM_BONDANNOTATIONS>
6  1  6
10  27  6
11  2  5
12  3  5
23  4  5
5  25  5
7  26  6
8  20  5
9  21  5

$$$$

