   Color/Form
        Yellow needles from aqueous pyridine
   from [1]HSDB

   Melting Point
        345-350 deg C
   from [2]HSDB

   Dissociation Constants
        pKa1 = 7.12 (phenol); pKa2 = 8.10 (phenol) (est)
   from [3]HSDB

   Octanol/Water Partition Coefficient
        log Kow = 3.02
   from [4]HSDB

   Solubilities

     * Soluble in ethanol, pyridine, concentrated sulfuric acid; very
       soluble in dilute alkalies
     * Moderately soluble in hot alcohol. Soluble in dilute KOH with
       intense yellow color
     * In water, 183 mg/L at 25 deg C (est)

   from [5]HSDB

   Spectral Properties

     * UV max (ethanol): 269, 340 nm (epsilon 18,800; 20,900)
     * MASS: 98432 (NIST/EPA/MSDC Mass Spectral database, 1990 version)
     * UV: 6-580 (Phillip et al., Organic Electronic Spectral Data, John
       Wiley & Sons, New York)

   from [6]HSDB

   Vapor Pressure
        1.01X10-10 mm Hg at 25 deg C (est)
   from [7]HSDB

   Other Chemical/Physical Properties

     * MP: 347.5 deg C
     * Henry's Law constant = 5.12X10-17 atm-cu m/mol at 25 deg C (est)
     * Hydroxyl radical reaction rate constant = 2.31X10-10 cu
       cm/molec-sec at 25 deg C (est)
     * Ozone reaction rate constant = 1.05X10-16 cu cm/molec sec at 25 deg
       C (est)

   from [8]HSDB

   Computed Properties
   Molecular Weight                  270.2369 [g/mol]
   Molecular Formula                 C[15]H[10]O[5]
   XLogP3                            1.7
   H-Bond Donor                      3
   H-Bond Acceptor                   5
   Rotatable Bond Count              1
   Tautomer Count                    57
   Exact Mass                        270.052823
   MonoIsotopic Mass                 270.052823
   Topological Polar Surface Area    87
   Heavy Atom Count                  20
   Formal Charge                     0
   Complexity                        411
   Isotope Atom Count                0
   Defined Atom Stereocenter Count   0
   Undefined Atom Stereocenter Count 0
   Defined Bond Stereocenter Count   0
   Undefined Bond Stereocenter Count 0
   Covalently-Bonded Unit Count      1
   Feature 3D Acceptor Count         2
   Feature 3D Donor Count            3
   Feature 3D Ring Count             3
   Effective Rotor Count             1
   Conformer Sampling RMSD           0.6
   CID Conformer Count               [9]1

References

   1. http://toxnet.nlm.nih.gov/cgi-bin/sis/search/r?dbs+hsdb:@term+@rn+@rel+520-36-5
   2. http://toxnet.nlm.nih.gov/cgi-bin/sis/search/r?dbs+hsdb:@term+@rn+@rel+520-36-5
   3. http://toxnet.nlm.nih.gov/cgi-bin/sis/search/r?dbs+hsdb:@term+@rn+@rel+520-36-5
   4. http://toxnet.nlm.nih.gov/cgi-bin/sis/search/r?dbs+hsdb:@term+@rn+@rel+520-36-5
   5. http://toxnet.nlm.nih.gov/cgi-bin/sis/search/r?dbs+hsdb:@term+@rn+@rel+520-36-5
   6. http://toxnet.nlm.nih.gov/cgi-bin/sis/search/r?dbs+hsdb:@term+@rn+@rel+520-36-5
   7. http://toxnet.nlm.nih.gov/cgi-bin/sis/search/r?dbs+hsdb:@term+@rn+@rel+520-36-5
   8. http://toxnet.nlm.nih.gov/cgi-bin/sis/search/r?dbs+hsdb:@term+@rn+@rel+520-36-5
   9. http://pubchem.ncbi.nlm.nih.gov/vw3d/vw3d.cgi?cid=5280443
