   Chemical and Physical Properties References

   [1]USDA ARS - USDA chemical properties
   from [2]ChemIDplus

   Color/Form

     * Pale-yellow liquid
     * COLORLESS LIQUID
     * Oil

   from [3]HSDB

   Odor
        FAINT ODOR
   from [4]HSDB

   Boiling Point
        120 deg C @ 0.001 mm Hg; 162 deg C 1.5 mm Hg
   from [5]HSDB

   Melting Point
        -45 deg C
   from [6]HSDB

   Corrosivity
        Corrosive to iron, tin, aluminum; non-corrosive to polyethylene
   from [7]HSDB

   Density/Specific Gravity
        1.2132 @ 25 deg C/4 deg C
   from [8]HSDB

   Solubilities

     * Miscible with most org solvents except saturated hydrocarbons; 1 g
       dissolves in about 30 g hexane
     * In water, miscible @ 25 deg C

   from [9]HSDB

   Spectral Properties

     * Index of refraction: 1.4718 @ 25 deg C/D
     * Intense mass spectral peaks: 127 m/z (100%), 72 m/z (61%), 264 m/z
       (46%), 138 m/z (35%)

   from [10]HSDB

   Vapor Pressure
        1.65X10-5 mm Hg @ 25 deg C
   from [11]HSDB

   Viscosity
        DENSITY: 1.22 @ 20 DEG C/4 DEG C; VISCOSITY: 70 CENTIPOISES @ 25
   DEG C /TECHNICAL PRODUCT/
   from [12]HSDB

   Other Chemical/Physical Properties

     * Stable in neutral or acid media; hydrolyzed by alkali.
     * Commercial product consists of 73/27 mixture of cis (Z)/ trans (E)
       isomers.
     * Oil-water partition coefficient: 0.79

   from [13]HSDB

   Computed Properties
   Molecular Weight                  299.688322 [g/mol]
   Molecular Formula                 C[10]H[19]ClNO[5]P
   XLogP3-AA                         1.3
   H-Bond Donor                      0
   H-Bond Acceptor                   5
   Rotatable Bond Count              7
   Exact Mass                        299.068937
   MonoIsotopic Mass                 299.068937
   Topological Polar Surface Area    65.1
   Heavy Atom Count                  18
   Formal Charge                     0
   Complexity                        359
   Isotope Atom Count                0
   Defined Atom Stereocenter Count   0
   Undefined Atom Stereocenter Count 0
   Defined Bond Stereocenter Count   1
   Undefined Bond Stereocenter Count 0
   Covalently-Bonded Unit Count      1
   Feature 3D Acceptor Count         2
   Effective Rotor Count             8
   Conformer Sampling RMSD           0.8
   CID Conformer Count               [14]100

References

   1. http://www.ars.usda.gov/SP2UserFiles/ad_hoc/12755100DatabaseFiles/PesticidePropertiesDatabase/IndividualPesticideFiles/PHOSPHAMIDON.TXT
   2. http://chem.sis.nlm.nih.gov/chemidplus/
   3. http://toxnet.nlm.nih.gov/cgi-bin/sis/search/r?dbs+hsdb:@term+@rn+@rel+13171-21-6
   4. http://toxnet.nlm.nih.gov/cgi-bin/sis/search/r?dbs+hsdb:@term+@rn+@rel+13171-21-6
   5. http://toxnet.nlm.nih.gov/cgi-bin/sis/search/r?dbs+hsdb:@term+@rn+@rel+13171-21-6
   6. http://toxnet.nlm.nih.gov/cgi-bin/sis/search/r?dbs+hsdb:@term+@rn+@rel+13171-21-6
   7. http://toxnet.nlm.nih.gov/cgi-bin/sis/search/r?dbs+hsdb:@term+@rn+@rel+13171-21-6
   8. http://toxnet.nlm.nih.gov/cgi-bin/sis/search/r?dbs+hsdb:@term+@rn+@rel+13171-21-6
   9. http://toxnet.nlm.nih.gov/cgi-bin/sis/search/r?dbs+hsdb:@term+@rn+@rel+13171-21-6
  10. http://toxnet.nlm.nih.gov/cgi-bin/sis/search/r?dbs+hsdb:@term+@rn+@rel+13171-21-6
  11. http://toxnet.nlm.nih.gov/cgi-bin/sis/search/r?dbs+hsdb:@term+@rn+@rel+13171-21-6
  12. http://toxnet.nlm.nih.gov/cgi-bin/sis/search/r?dbs+hsdb:@term+@rn+@rel+13171-21-6
  13. http://toxnet.nlm.nih.gov/cgi-bin/sis/search/r?dbs+hsdb:@term+@rn+@rel+13171-21-6
  14. http://pubchem.ncbi.nlm.nih.gov/vw3d/vw3d.cgi?cid=3032604
