5281714
  -OEChem-07051212592D

 56 60  0     1  0  0  0  0  0999 V2000
    4.1095    5.0100    0.0000 O   0  0  0  0  0  0  0  0  0  0  0  0
    2.0000    3.0226    0.0000 O   0  0  0  0  0  0  0  0  0  0  0  0
    9.9193   -0.2955    0.0000 O   0  0  0  0  0  0  0  0  0  0  0  0
    6.9193   -2.0275    0.0000 O   0  0  0  0  0  0  0  0  0  0  0  0
   10.6422    4.4025    0.0000 O   0  0  0  0  0  0  0  0  0  0  0  0
    3.8486   -4.6076    0.0000 O   0  0  0  0  0  0  0  0  0  0  0  0
    6.9193    1.4366    0.0000 C   0  0  2  0  0  0  0  0  0  0  0  0
    7.1781    2.4025    0.0000 C   0  0  2  0  0  0  0  0  0  0  0  0
    5.0873    2.1954    0.0000 C   0  0  1  0  0  0  0  0  0  0  0  0
    5.3461    3.1613    0.0000 C   0  0  2  0  0  0  0  0  0  0  0  0
    4.6095    4.1439    0.0000 C   0  0  0  0  0  0  0  0  0  0  0  0
    3.5522    0.9522    0.0000 C   0  0  0  0  0  0  0  0  0  0  0  0
    7.4193    0.5705    0.0000 C   0  0  0  0  0  0  0  0  0  0  0  0
    2.7431    2.3535    0.0000 C   0  0  0  0  0  0  0  0  0  0  0  0
    8.0441    2.9025    0.0000 C   0  0  0  0  0  0  0  0  0  0  0  0
    2.6386    1.3590    0.0000 C   0  0  0  0  0  0  0  0  0  0  0  0
    3.7601   -0.0259    0.0000 C   0  0  0  0  0  0  0  0  0  0  0  0
    6.9193   -0.2955    0.0000 C   0  0  0  0  0  0  0  0  0  0  0  0
    8.4193    0.5705    0.0000 C   0  0  0  0  0  0  0  0  0  0  0  0
    8.9101    2.4025    0.0000 C   0  0  0  0  0  0  0  0  0  0  0  0
    8.0441    3.9025    0.0000 C   0  0  0  0  0  0  0  0  0  0  0  0
    8.9193   -0.2955    0.0000 C   0  0  0  0  0  0  0  0  0  0  0  0
    7.4193   -1.1615    0.0000 C   0  0  0  0  0  0  0  0  0  0  0  0
    9.7762    2.9025    0.0000 C   0  0  0  0  0  0  0  0  0  0  0  0
    8.9101    4.4025    0.0000 C   0  0  0  0  0  0  0  0  0  0  0  0
    3.0169   -0.6950    0.0000 C   0  0  0  0  0  0  0  0  0  0  0  0
    8.4193   -1.1615    0.0000 C   0  0  0  0  0  0  0  0  0  0  0  0
    9.7762    3.9025    0.0000 C   0  0  0  0  0  0  0  0  0  0  0  0
    3.2248   -1.6732    0.0000 C   0  0  0  0  0  0  0  0  0  0  0  0
    2.4817   -2.3423    0.0000 C   0  0  0  0  0  0  0  0  0  0  0  0
    4.1759   -1.9822    0.0000 C   0  0  0  0  0  0  0  0  0  0  0  0
    2.6896   -3.3205    0.0000 C   0  0  0  0  0  0  0  0  0  0  0  0
    4.3838   -2.9604    0.0000 C   0  0  0  0  0  0  0  0  0  0  0  0
    3.6407   -3.6295    0.0000 C   0  0  0  0  0  0  0  0  0  0  0  0
    6.5105    0.9704    0.0000 H   0  0  0  0  0  0  0  0  0  0  0  0
    7.6700    2.0251    0.0000 H   0  0  0  0  0  0  0  0  0  0  0  0
    4.8673    1.3744    0.0000 H   0  0  0  0  0  0  0  0  0  0  0  0
    5.5661    3.9824    0.0000 H   0  0  0  0  0  0  0  0  0  0  0  0
    2.1017    1.0490    0.0000 H   0  0  0  0  0  0  0  0  0  0  0  0
    4.3497   -0.2175    0.0000 H   0  0  0  0  0  0  0  0  0  0  0  0
    6.2993   -0.2955    0.0000 H   0  0  0  0  0  0  0  0  0  0  0  0
    8.7293    1.1075    0.0000 H   0  0  0  0  0  0  0  0  0  0  0  0
    8.9101    1.7825    0.0000 H   0  0  0  0  0  0  0  0  0  0  0  0
    7.5072    4.2125    0.0000 H   0  0  0  0  0  0  0  0  0  0  0  0
   10.3131    2.5925    0.0000 H   0  0  0  0  0  0  0  0  0  0  0  0
    8.9101    5.0225    0.0000 H   0  0  0  0  0  0  0  0  0  0  0  0
    2.4273   -0.5034    0.0000 H   0  0  0  0  0  0  0  0  0  0  0  0
    8.7293   -1.6984    0.0000 H   0  0  0  0  0  0  0  0  0  0  0  0
   10.2293   -0.8324    0.0000 H   0  0  0  0  0  0  0  0  0  0  0  0
    7.2293   -2.5645    0.0000 H   0  0  0  0  0  0  0  0  0  0  0  0
   10.6422    5.0225    0.0000 H   0  0  0  0  0  0  0  0  0  0  0  0
    1.8920   -2.1507    0.0000 H   0  0  0  0  0  0  0  0  0  0  0  0
    4.6367   -1.5673    0.0000 H   0  0  0  0  0  0  0  0  0  0  0  0
    2.2289   -3.7353    0.0000 H   0  0  0  0  0  0  0  0  0  0  0  0
    4.9735   -3.1519    0.0000 H   0  0  0  0  0  0  0  0  0  0  0  0
    3.3878   -5.0225    0.0000 H   0  0  0  0  0  0  0  0  0  0  0  0
  1 11  2  0  0  0  0
  2 14  2  0  0  0  0
  3 22  1  0  0  0  0
  3 49  1  0  0  0  0
  4 23  1  0  0  0  0
  4 50  1  0  0  0  0
  5 28  1  0  0  0  0
  5 51  1  0  0  0  0
  6 34  1  0  0  0  0
  6 56  1  0  0  0  0
  7  8  1  0  0  0  0
  7  9  1  0  0  0  0
  7 13  1  1  0  0  0
  7 35  1  0  0  0  0
  8 10  1  0  0  0  0
  8 15  1  6  0  0  0
  8 36  1  0  0  0  0
  9 11  1  0  0  0  0
  9 12  1  0  0  0  0
  9 37  1  1  0  0  0
 10 11  1  0  0  0  0
 10 14  1  0  0  0  0
 10 38  1  6  0  0  0
 12 16  2  0  0  0  0
 12 17  1  0  0  0  0
 13 18  2  0  0  0  0
 13 19  1  0  0  0  0
 14 16  1  0  0  0  0
 15 20  2  0  0  0  0
 15 21  1  0  0  0  0
 16 39  1  0  0  0  0
 17 26  2  0  0  0  0
 17 40  1  0  0  0  0
 18 23  1  0  0  0  0
 18 41  1  0  0  0  0
 19 22  2  0  0  0  0
 19 42  1  0  0  0  0
 20 24  1  0  0  0  0
 20 43  1  0  0  0  0
 21 25  2  0  0  0  0
 21 44  1  0  0  0  0
 22 27  1  0  0  0  0
 23 27  2  0  0  0  0
 24 28  2  0  0  0  0
 24 45  1  0  0  0  0
 25 28  1  0  0  0  0
 25 46  1  0  0  0  0
 26 29  1  0  0  0  0
 26 47  1  0  0  0  0
 27 48  1  0  0  0  0
 29 30  2  0  0  0  0
 29 31  1  0  0  0  0
 30 32  1  0  0  0  0
 30 52  1  0  0  0  0
 31 33  2  0  0  0  0
 31 53  1  0  0  0  0
 32 34  2  0  0  0  0
 32 54  1  0  0  0  0
 33 34  1  0  0  0  0
 33 55  1  0  0  0  0
M  END
> <PUBCHEM_COMPOUND_CID>
5281714

> <PUBCHEM_COMPOUND_CANONICALIZED>
1

> <PUBCHEM_CACTVS_COMPLEXITY>
822

> <PUBCHEM_CACTVS_HBOND_ACCEPTOR>
6

> <PUBCHEM_CACTVS_HBOND_DONOR>
4

> <PUBCHEM_CACTVS_ROTATABLE_BOND>
4

> <PUBCHEM_CACTVS_SUBSKEYS>
AAADceB4OAAAAAAAAAAAAAAAAAAAAYAAAAAwYMEABAAAAAABUAAAGgAACAAADQSAmAAwBoAAAgCIAqBSAAACAAAgIAAIiAEGCMgIJzKKERKAcAAlwBUImQeI6PSOoAABCAAAAABAAAIQAAAAAQAACAAAAA==

> <PUBCHEM_IUPAC_OPENEYE_NAME>
(1S,5R,6R,7R)-6-(3,5-dihydroxyphenyl)-7-(4-hydroxyphenyl)-4-[(E)-2-(4-hydroxyphenyl)vinyl]bicyclo[3.2.1]oct-3-ene-2,8-dione

> <PUBCHEM_IUPAC_CAS_NAME>
(1S,5R,6R,7R)-6-(3,5-dihydroxyphenyl)-7-(4-hydroxyphenyl)-4-[(E)-2-(4-hydroxyphenyl)ethenyl]bicyclo[3.2.1]oct-3-ene-2,8-dione

> <PUBCHEM_IUPAC_NAME>
(1S,5R,6R,7R)-6-(3,5-dihydroxyphenyl)-7-(4-hydroxyphenyl)-4-[(E)-2-(4-hydroxyphenyl)ethenyl]bicyclo[3.2.1]oct-3-ene-2,8-dione

> <PUBCHEM_IUPAC_SYSTEMATIC_NAME>
(1S,5R,6R,7R)-6-[3,5-bis(oxidanyl)phenyl]-7-(4-hydroxyphenyl)-4-[(E)-2-(4-hydroxyphenyl)ethenyl]bicyclo[3.2.1]oct-3-ene-2,8-dione

> <PUBCHEM_IUPAC_TRADITIONAL_NAME>
(1S,5R,6R,7R)-6-(3,5-dihydroxyphenyl)-7-(4-hydroxyphenyl)-4-[(E)-2-(4-hydroxyphenyl)vinyl]bicyclo[3.2.1]oct-3-ene-2,8-quinone

> <PUBCHEM_IUPAC_INCHI>
InChI=1S/C28H22O6/c29-19-7-2-15(3-8-19)1-4-17-13-23(33)27-24(16-5-9-20(30)10-6-16)25(26(17)28(27)34)18-11-21(31)14-22(32)12-18/h1-14,24-27,29-32H/b4-1+/t24-,25-,26+,27-/m1/s1

> <PUBCHEM_IUPAC_INCHIKEY>
SVSWTEAHRCVGAR-XJAAUWFPSA-N

> <PUBCHEM_XLOGP3_AA>
3.9

> <PUBCHEM_EXACT_MASS>
454.141638

> <PUBCHEM_MOLECULAR_FORMULA>
C28H22O6

> <PUBCHEM_MOLECULAR_WEIGHT>
454.47068

> <PUBCHEM_OPENEYE_CAN_SMILES>
C1=CC(=CC=C1C=CC2=CC(=O)C3C(C(C2C3=O)C4=CC(=CC(=C4)O)O)C5=CC=C(C=C5)O)O

> <PUBCHEM_OPENEYE_ISO_SMILES>
C1=CC(=CC=C1/C=C/C2=CC(=O)[C@@H]3[C@@H]([C@H]([C@H]2C3=O)C4=CC(=CC(=C4)O)O)C5=CC=C(C=C5)O)O

> <PUBCHEM_CACTVS_TPSA>
115

> <PUBCHEM_MONOISOTOPIC_WEIGHT>
454.141638

> <PUBCHEM_TOTAL_CHARGE>
0

> <PUBCHEM_HEAVY_ATOM_COUNT>
34

> <PUBCHEM_ATOM_DEF_STEREO_COUNT>
4

> <PUBCHEM_ATOM_UDEF_STEREO_COUNT>
0

> <PUBCHEM_BOND_DEF_STEREO_COUNT>
1

> <PUBCHEM_BOND_UDEF_STEREO_COUNT>
0

> <PUBCHEM_ISOTOPIC_ATOM_COUNT>
0

> <PUBCHEM_COMPONENT_COUNT>
1

> <PUBCHEM_CACTVS_TAUTO_COUNT>
1001

> <PUBCHEM_COORDINATE_TYPE>
1
5
255

> <PUBCHEM_BONDANNOTATIONS>
10  38  6
13  18  8
13  19  8
15  20  8
15  21  8
18  23  8
19  22  8
20  24  8
21  25  8
22  27  8
23  27  8
24  28  8
25  28  8
29  30  8
29  31  8
30  32  8
31  33  8
32  34  8
33  34  8
7  13  5
8  15  6
9  37  5

$$$$

