   Color/Form
        White powder
   from [1]HSDB

   Melting Point
        167 deg C
   from [2]HSDB

   Density/Specific Gravity
        1.25 g/cu cm at 20.5 deg C
   from [3]HSDB

   Dissociation Constants
        No dissociation from pH 1.12 to 12.81 at 20 deg C
   from [4]HSDB

   Octanol/Water Partition Coefficient
        log Kow = 2.52 to 2.59 at pH 5 to 9
   from [5]HSDB

   pH
        pH = 4.35 at 25 deg C (1% w/v aqueous suspension)
   from [6]HSDB

   Solubilities
        In water (20 deg C), 10.96 mg/L at pH 5; 13.14 mg/L at unadjusted
   pH; 12.76 mg/L at pH 9
   from [7]HSDB

   Vapor Pressure
        5.38X10-10 mm Hg at 25 deg C (est)
   from [8]HSDB

   Other Chemical/Physical Properties

     * Henry's Law constant = 8.61X10-8 atm-cu m/mol at 25 deg C
       (8.72X10-3 Pa-cu m/mol)
     * Hydroxyl radical reaction rate constant = 5.49X10-11 cu
       cm/molec-sec at 25 deg C (est)

   from [9]HSDB

   Computed Properties
   Molecular Weight                  381.464863 [g/mol]
   Molecular Formula                 C[18]H[24]FN[3]O[3]S
   XLogP3-AA                         3.9
   H-Bond Donor                      2
   H-Bond Acceptor                   6
   Rotatable Bond Count              7
   Tautomer Count                    4
   Exact Mass                        381.152241
   MonoIsotopic Mass                 381.152241
   Topological Polar Surface Area    109
   Heavy Atom Count                  26
   Formal Charge                     0
   Complexity                        506
   Isotope Atom Count                0
   Defined Atom Stereocenter Count   2
   Undefined Atom Stereocenter Count 0
   Defined Bond Stereocenter Count   0
   Undefined Bond Stereocenter Count 0
   Covalently-Bonded Unit Count      1
   Feature 3D Acceptor Count         3
   Feature 3D Donor Count            2
   Feature 3D Hydrophobe Count       2
   Feature 3D Ring Count             2
   Effective Rotor Count             9
   Conformer Sampling RMSD           1
   CID Conformer Count               [10]185

References

   1. http://toxnet.nlm.nih.gov/cgi-bin/sis/search/r?dbs+hsdb:@term+@rn+@rel+177406-68-7
   2. http://toxnet.nlm.nih.gov/cgi-bin/sis/search/r?dbs+hsdb:@term+@rn+@rel+177406-68-7
   3. http://toxnet.nlm.nih.gov/cgi-bin/sis/search/r?dbs+hsdb:@term+@rn+@rel+177406-68-7
   4. http://toxnet.nlm.nih.gov/cgi-bin/sis/search/r?dbs+hsdb:@term+@rn+@rel+177406-68-7
   5. http://toxnet.nlm.nih.gov/cgi-bin/sis/search/r?dbs+hsdb:@term+@rn+@rel+177406-68-7
   6. http://toxnet.nlm.nih.gov/cgi-bin/sis/search/r?dbs+hsdb:@term+@rn+@rel+177406-68-7
   7. http://toxnet.nlm.nih.gov/cgi-bin/sis/search/r?dbs+hsdb:@term+@rn+@rel+177406-68-7
   8. http://toxnet.nlm.nih.gov/cgi-bin/sis/search/r?dbs+hsdb:@term+@rn+@rel+177406-68-7
   9. http://toxnet.nlm.nih.gov/cgi-bin/sis/search/r?dbs+hsdb:@term+@rn+@rel+177406-68-7
  10. http://pubchem.ncbi.nlm.nih.gov/vw3d/vw3d.cgi?cid=53297381
