   Chemical and Physical Properties References

   [1]USDA ARS - USDA chemical properties
   from [2]ChemIDplus

   Color/Form
        White crystalline solid
   from [3]HSDB

   Odor
        Slightly sulfurous
   from [4]HSDB

   Melting Point
        78-79 deg C
   from [5]HSDB

   Corrosivity
        AQ SOLN NONCORROSIVE
   from [6]HSDB

   Density/Specific Gravity
        1.2946 @ 24 deg C referred to water @ 4 deg C
   from [7]HSDB

   Octanol/Water Partition Coefficient
        log Kow= 0.60
   from [8]HSDB

   Solubilities

     * Sol at 25 deg C in wt/wt percent: water 5.8; ethanol 42; methanol
       100; isopropanol 22; acetone 73
     * SOL IN MOST ORG SOLVENTS
     * In water, 58,000 mg/l @ 25 deg C

   from [9]HSDB

   Spectral Properties
        Intense mass spectral peaks: 54 M/z (100%), 105 M/z (74%), 42 M/z
   (39%), 87 M/z (29%)
   from [10]HSDB

   Vapor Pressure
        5.4X10-6 mm Hg @ 25 deg C
   from [11]HSDB

   Computed Properties
   Molecular Weight                  162.2101 [g/mol]
   Molecular Formula                 C[5]H[10]N[2]O[2]S
   XLogP3                            0.6
   H-Bond Donor                      1
   H-Bond Acceptor                   4
   Rotatable Bond Count              3
   Tautomer Count                    4
   Exact Mass                        162.046299
   MonoIsotopic Mass                 162.046299
   Topological Polar Surface Area    76
   Heavy Atom Count                  10
   Formal Charge                     0
   Complexity                        147
   Isotope Atom Count                0
   Defined Atom Stereocenter Count   0
   Undefined Atom Stereocenter Count 0
   Defined Bond Stereocenter Count   1
   Undefined Bond Stereocenter Count 0
   Covalently-Bonded Unit Count      1
   Feature 3D Acceptor Count         2
   Feature 3D Donor Count            1
   Feature 3D Hydrophobe Count       1
   Effective Rotor Count             4
   Conformer Sampling RMSD           0.6
   CID Conformer Count               [12]45

References

   1. http://www.ars.usda.gov/SP2UserFiles/ad_hoc/12755100DatabaseFiles/PesticidePropertiesDatabase/IndividualPesticideFiles/METHOMYL.TXT
   2. http://chem.sis.nlm.nih.gov/chemidplus/
   3. http://toxnet.nlm.nih.gov/cgi-bin/sis/search/r?dbs+hsdb:@term+@rn+@rel+16752-77-5
   4. http://toxnet.nlm.nih.gov/cgi-bin/sis/search/r?dbs+hsdb:@term+@rn+@rel+16752-77-5
   5. http://toxnet.nlm.nih.gov/cgi-bin/sis/search/r?dbs+hsdb:@term+@rn+@rel+16752-77-5
   6. http://toxnet.nlm.nih.gov/cgi-bin/sis/search/r?dbs+hsdb:@term+@rn+@rel+16752-77-5
   7. http://toxnet.nlm.nih.gov/cgi-bin/sis/search/r?dbs+hsdb:@term+@rn+@rel+16752-77-5
   8. http://toxnet.nlm.nih.gov/cgi-bin/sis/search/r?dbs+hsdb:@term+@rn+@rel+16752-77-5
   9. http://toxnet.nlm.nih.gov/cgi-bin/sis/search/r?dbs+hsdb:@term+@rn+@rel+16752-77-5
  10. http://toxnet.nlm.nih.gov/cgi-bin/sis/search/r?dbs+hsdb:@term+@rn+@rel+16752-77-5
  11. http://toxnet.nlm.nih.gov/cgi-bin/sis/search/r?dbs+hsdb:@term+@rn+@rel+16752-77-5
  12. http://pubchem.ncbi.nlm.nih.gov/vw3d/vw3d.cgi?cid=5353758
