5282336
  -OEChem-07051213042D

 75 78  0     1  0  0  0  0  0999 V2000
    9.4215   -1.5744    0.0000 S   0  0  0  0  0  0  0  0  0  0  0  0
    4.9836   -4.6389    0.0000 S   0  0  0  0  0  0  0  0  0  0  0  0
    9.5494   -4.2480    0.0000 O   0  0  0  0  0  0  0  0  0  0  0  0
    5.1646   -2.9163    0.0000 O   0  0  0  0  0  0  0  0  0  0  0  0
    4.8790   -5.6334    0.0000 O   0  0  0  0  0  0  0  0  0  0  0  0
    5.0881   -3.6444    0.0000 O   0  0  0  0  0  0  0  0  0  0  0  0
    6.7469   -2.2118    0.0000 O   0  0  0  0  0  0  0  0  0  0  0  0
   10.2305    0.0134    0.0000 N   0  0  0  0  0  0  0  0  0  0  0  0
   10.2305    5.0134    0.0000 N   0  0  0  0  0  0  0  0  0  0  0  0
   11.0395   -1.5744    0.0000 N   0  0  0  0  0  0  0  0  0  0  0  0
    8.1482   -3.2299    0.0000 N   0  0  0  0  0  0  0  0  0  0  0  0
    5.9781   -4.7434    0.0000 N   0  0  0  0  0  0  0  0  0  0  0  0
   10.2305    2.0134    0.0000 C   0  0  0  0  0  0  0  0  0  0  0  0
   10.2305    3.0134    0.0000 C   0  0  0  0  0  0  0  0  0  0  0  0
   11.0965    1.5134    0.0000 C   0  0  0  0  0  0  0  0  0  0  0  0
    9.3645    1.5134    0.0000 C   0  0  0  0  0  0  0  0  0  0  0  0
    9.3645    3.5134    0.0000 C   0  0  0  0  0  0  0  0  0  0  0  0
   11.0965    3.5134    0.0000 C   0  0  0  0  0  0  0  0  0  0  0  0
    9.3645    0.5134    0.0000 C   0  0  0  0  0  0  0  0  0  0  0  0
   11.0965    0.5134    0.0000 C   0  0  0  0  0  0  0  0  0  0  0  0
    9.3645    4.5134    0.0000 C   0  0  0  0  0  0  0  0  0  0  0  0
   11.0965    4.5134    0.0000 C   0  0  0  0  0  0  0  0  0  0  0  0
   10.2305   -0.9866    0.0000 C   0  0  0  0  0  0  0  0  0  0  0  0
   10.7305   -2.5254    0.0000 C   0  0  0  0  0  0  0  0  0  0  0  0
    9.7305   -2.5254    0.0000 C   0  0  0  0  0  0  0  0  0  0  0  0
   11.3183   -3.3344    0.0000 C   0  0  0  0  0  0  0  0  0  0  0  0
    9.1427   -3.3344    0.0000 C   0  0  0  0  0  0  0  0  0  0  0  0
   12.3128   -3.2299    0.0000 C   0  0  0  0  0  0  0  0  0  0  0  0
   10.9115   -4.2480    0.0000 C   0  0  0  0  0  0  0  0  0  0  0  0
    7.5604   -4.0389    0.0000 C   0  0  0  0  0  0  0  0  0  0  0  0
    6.5659   -3.9344    0.0000 C   0  0  1  0  0  0  0  0  0  0  0  0
    6.1591   -3.0209    0.0000 C   0  0  0  0  0  0  0  0  0  0  0  0
    3.9890   -4.5344    0.0000 C   0  0  0  0  0  0  0  0  0  0  0  0
    3.5823   -3.6208    0.0000 C   0  0  0  0  0  0  0  0  0  0  0  0
    3.4013   -5.3434    0.0000 C   0  0  0  0  0  0  0  0  0  0  0  0
    2.5878   -3.5163    0.0000 C   0  0  0  0  0  0  0  0  0  0  0  0
    2.4067   -5.2388    0.0000 C   0  0  0  0  0  0  0  0  0  0  0  0
    2.0000   -4.3253    0.0000 C   0  0  0  0  0  0  0  0  0  0  0  0
    9.6936    2.3234    0.0000 H   0  0  0  0  0  0  0  0  0  0  0  0
    9.6936    2.7034    0.0000 H   0  0  0  0  0  0  0  0  0  0  0  0
    9.1524    2.0960    0.0000 H   0  0  0  0  0  0  0  0  0  0  0  0
    8.7539    1.4058    0.0000 H   0  0  0  0  0  0  0  0  0  0  0  0
   11.7071    1.4058    0.0000 H   0  0  0  0  0  0  0  0  0  0  0  0
   11.3086    2.0960    0.0000 H   0  0  0  0  0  0  0  0  0  0  0  0
    8.7539    3.6211    0.0000 H   0  0  0  0  0  0  0  0  0  0  0  0
   11.3086    2.9308    0.0000 H   0  0  0  0  0  0  0  0  0  0  0  0
    9.1524    2.9308    0.0000 H   0  0  0  0  0  0  0  0  0  0  0  0
   11.7071    3.6211    0.0000 H   0  0  0  0  0  0  0  0  0  0  0  0
    8.7539    0.6211    0.0000 H   0  0  0  0  0  0  0  0  0  0  0  0
    9.1524   -0.0692    0.0000 H   0  0  0  0  0  0  0  0  0  0  0  0
   11.3086   -0.0692    0.0000 H   0  0  0  0  0  0  0  0  0  0  0  0
   11.7071    0.6211    0.0000 H   0  0  0  0  0  0  0  0  0  0  0  0
   11.7071    4.4058    0.0000 H   0  0  0  0  0  0  0  0  0  0  0  0
    9.1524    5.0960    0.0000 H   0  0  0  0  0  0  0  0  0  0  0  0
    8.7539    4.4058    0.0000 H   0  0  0  0  0  0  0  0  0  0  0  0
   11.3086    5.0960    0.0000 H   0  0  0  0  0  0  0  0  0  0  0  0
   10.2305    5.6334    0.0000 H   0  0  0  0  0  0  0  0  0  0  0  0
   11.6827   -3.8360    0.0000 H   0  0  0  0  0  0  0  0  0  0  0  0
   12.3776   -3.8465    0.0000 H   0  0  0  0  0  0  0  0  0  0  0  0
   12.9294   -3.1651    0.0000 H   0  0  0  0  0  0  0  0  0  0  0  0
   12.2480   -2.6133    0.0000 H   0  0  0  0  0  0  0  0  0  0  0  0
   10.3451   -3.9958    0.0000 H   0  0  0  0  0  0  0  0  0  0  0  0
   10.6594   -4.8144    0.0000 H   0  0  0  0  0  0  0  0  0  0  0  0
   11.4779   -4.5002    0.0000 H   0  0  0  0  0  0  0  0  0  0  0  0
    7.8960   -2.6635    0.0000 H   0  0  0  0  0  0  0  0  0  0  0  0
    7.3895   -4.6349    0.0000 H   0  0  0  0  0  0  0  0  0  0  0  0
    8.1176   -4.3107    0.0000 H   0  0  0  0  0  0  0  0  0  0  0  0
    5.9493   -3.8696    0.0000 H   0  0  0  0  0  0  0  0  0  0  0  0
    6.2303   -5.3098    0.0000 H   0  0  0  0  0  0  0  0  0  0  0  0
    3.9467   -3.1192    0.0000 H   0  0  0  0  0  0  0  0  0  0  0  0
    3.6534   -5.9098    0.0000 H   0  0  0  0  0  0  0  0  0  0  0  0
    4.9124   -2.3499    0.0000 H   0  0  0  0  0  0  0  0  0  0  0  0
    2.3356   -2.9499    0.0000 H   0  0  0  0  0  0  0  0  0  0  0  0
    2.0423   -5.7404    0.0000 H   0  0  0  0  0  0  0  0  0  0  0  0
    1.3834   -4.2605    0.0000 H   0  0  0  0  0  0  0  0  0  0  0  0
  1 23  1  0  0  0  0
  1 25  1  0  0  0  0
  2  5  2  0  0  0  0
  2  6  2  0  0  0  0
  2 12  1  0  0  0  0
  2 33  1  0  0  0  0
  3 27  2  0  0  0  0
  4 32  1  0  0  0  0
  4 72  1  0  0  0  0
  7 32  2  0  0  0  0
  8 19  1  0  0  0  0
  8 20  1  0  0  0  0
  8 23  1  0  0  0  0
  9 21  1  0  0  0  0
  9 22  1  0  0  0  0
  9 57  1  0  0  0  0
 10 23  2  0  0  0  0
 10 24  1  0  0  0  0
 11 27  1  0  0  0  0
 11 30  1  0  0  0  0
 11 65  1  0  0  0  0
 31 12  1  6  0  0  0
 12 69  1  0  0  0  0
 13 14  1  0  0  0  0
 13 15  1  0  0  0  0
 13 16  1  0  0  0  0
 13 39  1  0  0  0  0
 14 17  1  0  0  0  0
 14 18  1  0  0  0  0
 14 40  1  0  0  0  0
 15 20  1  0  0  0  0
 15 43  1  0  0  0  0
 15 44  1  0  0  0  0
 16 19  1  0  0  0  0
 16 41  1  0  0  0  0
 16 42  1  0  0  0  0
 17 21  1  0  0  0  0
 17 45  1  0  0  0  0
 17 47  1  0  0  0  0
 18 22  1  0  0  0  0
 18 46  1  0  0  0  0
 18 48  1  0  0  0  0
 19 49  1  0  0  0  0
 19 50  1  0  0  0  0
 20 51  1  0  0  0  0
 20 52  1  0  0  0  0
 21 54  1  0  0  0  0
 21 55  1  0  0  0  0
 22 53  1  0  0  0  0
 22 56  1  0  0  0  0
 24 25  2  0  0  0  0
 24 26  1  0  0  0  0
 25 27  1  0  0  0  0
 26 28  1  0  0  0  0
 26 29  1  0  0  0  0
 26 58  1  0  0  0  0
 28 59  1  0  0  0  0
 28 60  1  0  0  0  0
 28 61  1  0  0  0  0
 29 62  1  0  0  0  0
 29 63  1  0  0  0  0
 29 64  1  0  0  0  0
 30 31  1  0  0  0  0
 30 66  1  0  0  0  0
 30 67  1  0  0  0  0
 31 32  1  0  0  0  0
 31 68  1  0  0  0  0
 33 34  2  0  0  0  0
 33 35  1  0  0  0  0
 34 36  1  0  0  0  0
 34 70  1  0  0  0  0
 35 37  2  0  0  0  0
 35 71  1  0  0  0  0
 36 38  2  0  0  0  0
 36 73  1  0  0  0  0
 37 38  1  0  0  0  0
 37 74  1  0  0  0  0
 38 75  1  0  0  0  0
M  END
> <PUBCHEM_COMPOUND_CID>
5282336

> <PUBCHEM_COMPOUND_CANONICALIZED>
1

> <PUBCHEM_CACTVS_COMPLEXITY>
894

> <PUBCHEM_CACTVS_HBOND_ACCEPTOR>
10

> <PUBCHEM_CACTVS_HBOND_DONOR>
4

> <PUBCHEM_CACTVS_ROTATABLE_BOND>
10

> <PUBCHEM_CACTVS_SUBSKEYS>
AAADcfB7uABgAAAAAAAAAAAAAAAAAWAAAAA8WIAAAAAAAAABwAAAHgQQSAAADSjB1gQzmZPIEgqsASXyfHDC8LllCDgJmJ24RMiKYDrg2RCUYYhqlgLIiWcYAAAOgAAAAAAAAAAAAAAAAAAAAAAAAAAAAA==

> <PUBCHEM_IUPAC_OPENEYE_NAME>
(2S)-2-(benzenesulfonamido)-3-[[4-isopropyl-2-[4-(4-piperidyl)-1-piperidyl]thiazole-5-carbonyl]amino]propanoic acid

> <PUBCHEM_IUPAC_CAS_NAME>
(2S)-2-(benzenesulfonamido)-3-[[oxo-[2-[4-(4-piperidinyl)-1-piperidinyl]-4-propan-2-yl-5-thiazolyl]methyl]amino]propanoic acid

> <PUBCHEM_IUPAC_NAME>
(2S)-2-(benzenesulfonamido)-3-[[2-(4-piperidin-4-ylpiperidin-1-yl)-4-propan-2-yl-1,3-thiazole-5-carbonyl]amino]propanoic acid

> <PUBCHEM_IUPAC_SYSTEMATIC_NAME>
(2S)-2-(phenylsulfonylamino)-3-[[2-(4-piperidin-4-ylpiperidin-1-yl)-4-propan-2-yl-1,3-thiazol-5-yl]carbonylamino]propanoic acid

> <PUBCHEM_IUPAC_TRADITIONAL_NAME>
(2S)-2-(benzenesulfonamido)-3-[[4-isopropyl-2-[4-(4-piperidyl)piperidino]thiazole-5-carbonyl]amino]propionic acid

> <PUBCHEM_IUPAC_INCHI>
InChI=1S/C26H37N5O5S2/c1-17(2)22-23(37-26(29-22)31-14-10-19(11-15-31)18-8-12-27-13-9-18)24(32)28-16-21(25(33)34)30-38(35,36)20-6-4-3-5-7-20/h3-7,17-19,21,27,30H,8-16H2,1-2H3,(H,28,32)(H,33,34)/t21-/m0/s1

> <PUBCHEM_IUPAC_INCHIKEY>
MEZPFQCSPHLLNE-NRFANRHFSA-N

> <PUBCHEM_XLOGP3_AA>
1.3

> <PUBCHEM_EXACT_MASS>
563.223611

> <PUBCHEM_MOLECULAR_FORMULA>
C26H37N5O5S2

> <PUBCHEM_MOLECULAR_WEIGHT>
563.73248

> <PUBCHEM_OPENEYE_CAN_SMILES>
CC(C)C1=C(SC(=N1)N2CCC(CC2)C3CCNCC3)C(=O)NCC(C(=O)O)NS(=O)(=O)C4=CC=CC=C4

> <PUBCHEM_OPENEYE_ISO_SMILES>
CC(C)C1=C(SC(=N1)N2CCC(CC2)C3CCNCC3)C(=O)NC[C@@H](C(=O)O)NS(=O)(=O)C4=CC=CC=C4

> <PUBCHEM_CACTVS_TPSA>
177

> <PUBCHEM_MONOISOTOPIC_WEIGHT>
563.223611

> <PUBCHEM_TOTAL_CHARGE>
0

> <PUBCHEM_HEAVY_ATOM_COUNT>
38

> <PUBCHEM_ATOM_DEF_STEREO_COUNT>
1

> <PUBCHEM_ATOM_UDEF_STEREO_COUNT>
0

> <PUBCHEM_BOND_DEF_STEREO_COUNT>
0

> <PUBCHEM_BOND_UDEF_STEREO_COUNT>
0

> <PUBCHEM_ISOTOPIC_ATOM_COUNT>
0

> <PUBCHEM_COMPONENT_COUNT>
1

> <PUBCHEM_CACTVS_TAUTO_COUNT>
2

> <PUBCHEM_COORDINATE_TYPE>
1
5
255

> <PUBCHEM_BONDANNOTATIONS>
1  23  8
1  25  8
10  23  8
10  24  8
31  12  6
24  25  8
33  34  8
33  35  8
34  36  8
35  37  8
36  38  8
37  38  8

$$$$

