   Chemical and Physical Properties References

   [1]USDA ARS - USDA chemical properties
   from [2]ChemIDplus

   Color/Form

     * Colorless to white, crystalline solid.
     * White deliquescent crystals
     * Hygroscopic, rhombohedral crystals

   from [3]HSDB

   Odor

     * Slight characteristic odor
     * Sharp, pungent odor

   from [4]HSDB

   Boiling Point
        195.5 deg C
   from [5]HSDB

   Melting Point
        57.5 deg C
   from [6]HSDB

   Corrosivity

     * Corrosive to iron, zinc, and aluminum.
     * Extremely corrosive to skin on prolonged contact

   from [7]HSDB

   Density/Specific Gravity
        1.6126 at 64 deg C
   from [8]HSDB

   Dissociation Constants
        pKa = 0.51
   from [9]HSDB

   Heat of Combustion
        3.05 kJ/g
   from [10]HSDB

   Heat of Vaporization
        13817.9 gcal/gmole
   from [11]HSDB

   Octanol/Water Partition Coefficient
        log Kow = 1.33
   from [12]HSDB

   pH
        pH of 0.1 molar aq solution: 1.2
   from [13]HSDB

   Solubilities

     * The acid has a solubility in water at 25 deg C of 1,000 g/100 ml;
       it is soluble in ethanol and diethyl ether.
     * Sol in 0.1 part water; very sol in alcohol, ether
     * Sol in ethanol, ethyl ether; slightly sol in carbon tetrachloride
     * In methanol = 2143 g/100g at 25 deg C; in ethyl ether = 617 g/100g
       at 25 deg C; in acetone = 850 g/100g at 25 deg C; in benzene = 201
       g/100g at 25 deg C; in o-xylene = 110 g/100g at 25 deg C.
     * In water, 5.4X10+4 mg/L at 25 deg C

   from [14]HSDB

   Spectral Properties

     * Index of refraction: 1.4603 at 61 deg C
     * IR: 2376 (Coblentz Society Spectral Collection)
     * UV: 1-6 (Organic Electronic Spectral Data, Phillips et al, John
       Wiley & Sons, New York)
     * NMR: 6 (Sadtler Research Laboratories Spectral Collection)
     * MASS: 5991 (NIST/EPA/MSDC Mass Spectral Database, 1990 version)

   from [15]HSDB

   Surface Tension
        27.8 dynes/cm at 80.2 deg C
   from [16]HSDB

   Vapor Pressure
        6.0X10-2 mm Hg at 25 deg C
   from [17]HSDB

   Other Chemical/Physical Properties

     * MOLAR VOL: 101.1 ML, PARTIAL MOLAR VOL: 97.5 ML
     * Sp Gr: 1.63 at 61/4 deg C
     * Yellowish, slightly deliquescent powder. /Technical TCA/
     * Heat of fusion = 5.90 kJ/mol at 59.2 deg C
     * Decomposition: dec by heating with caustic alkalies into chloroform
       and alkali carbonate; dec products are chloroform, hydrochloric
       acid, carbon dioxide and carbon monoxide.
     * Stability: stable in the absence of moisture
     * Henry's Law constant = 1.35X10-8 atm-cu m/mol at 25 deg C
     * Hydroxyl radical reaction rate constant = 5.2X10-13 cu cm/molec sec
       at 25 deg C (est)
     * Conversion factor: 1 ppm = 6.68 mg/cu m
     * VP: 1 kPa at 83.8 deg C; 10 kPa at 130.0 deg C; 100 kPa at 197.2
       deg C
     * The acid undergoes numerous color reactions that can serve to
       identify a wide range of organic compounds.
     * Clear liquid; odor resembling menthol. Specific gravity = 1.373 at
       20 deg C/4 deg C. BP 169 deg C. Index of refraction = 1.4507 at 20
       deg C/D. Miscible with alcohol, ether. /Ethyl ester/
     * MP: >300 deg C. Soluble in ethanol. /Sodium salt/
     * MW: 185.4. Yellowish deliquescent powder. MP: decomposes at 165-200
       deg C. VP: <0.1 mPa at 70 deg C. Solubility: in water 1.2 kg/L at
       25 deg C. In methanol 232, acetone 7.6, diethyl ether 0.2, benzene
       0.07, carbon tetrachloride 0.04, heptane 0.02 (all in g/L at 25 deg
       C). Stable under dry conditions, but decomposes to chloroform under
       alkaline conditions. /Sodium salt/

   from [18]HSDB

   Computed Properties
   Molecular Weight                  163.38714 [g/mol]
   Molecular Formula                 C[2]HCl[3]O[2]
   XLogP3                            1.3
   H-Bond Donor                      1
   H-Bond Acceptor                   2
   Rotatable Bond Count              0
   Exact Mass                        161.904212
   MonoIsotopic Mass                 161.904212
   Topological Polar Surface Area    37.3
   Heavy Atom Count                  7
   Formal Charge                     0
   Complexity                        83.4
   Isotope Atom Count                0
   Defined Atom Stereocenter Count   0
   Undefined Atom Stereocenter Count 0
   Defined Bond Stereocenter Count   0
   Undefined Bond Stereocenter Count 0
   Covalently-Bonded Unit Count      1
   Feature 3D Acceptor Count         2
   Feature 3D Anion Count            1
   Effective Rotor Count             1
   Conformer Sampling RMSD           0.4
   CID Conformer Count               [19]1

References

   1. http://www.ars.usda.gov/SP2UserFiles/ad_hoc/12755100DatabaseFiles/PesticidePropertiesDatabase/IndividualPesticideFiles/TCA-SODIUM.TXT
   2. http://chem.sis.nlm.nih.gov/chemidplus/
   3. http://toxnet.nlm.nih.gov/cgi-bin/sis/search/r?dbs+hsdb:@term+@rn+@rel+76-03-9
   4. http://toxnet.nlm.nih.gov/cgi-bin/sis/search/r?dbs+hsdb:@term+@rn+@rel+76-03-9
   5. http://toxnet.nlm.nih.gov/cgi-bin/sis/search/r?dbs+hsdb:@term+@rn+@rel+76-03-9
   6. http://toxnet.nlm.nih.gov/cgi-bin/sis/search/r?dbs+hsdb:@term+@rn+@rel+76-03-9
   7. http://toxnet.nlm.nih.gov/cgi-bin/sis/search/r?dbs+hsdb:@term+@rn+@rel+76-03-9
   8. http://toxnet.nlm.nih.gov/cgi-bin/sis/search/r?dbs+hsdb:@term+@rn+@rel+76-03-9
   9. http://toxnet.nlm.nih.gov/cgi-bin/sis/search/r?dbs+hsdb:@term+@rn+@rel+76-03-9
  10. http://toxnet.nlm.nih.gov/cgi-bin/sis/search/r?dbs+hsdb:@term+@rn+@rel+76-03-9
  11. http://toxnet.nlm.nih.gov/cgi-bin/sis/search/r?dbs+hsdb:@term+@rn+@rel+76-03-9
  12. http://toxnet.nlm.nih.gov/cgi-bin/sis/search/r?dbs+hsdb:@term+@rn+@rel+76-03-9
  13. http://toxnet.nlm.nih.gov/cgi-bin/sis/search/r?dbs+hsdb:@term+@rn+@rel+76-03-9
  14. http://toxnet.nlm.nih.gov/cgi-bin/sis/search/r?dbs+hsdb:@term+@rn+@rel+76-03-9
  15. http://toxnet.nlm.nih.gov/cgi-bin/sis/search/r?dbs+hsdb:@term+@rn+@rel+76-03-9
  16. http://toxnet.nlm.nih.gov/cgi-bin/sis/search/r?dbs+hsdb:@term+@rn+@rel+76-03-9
  17. http://toxnet.nlm.nih.gov/cgi-bin/sis/search/r?dbs+hsdb:@term+@rn+@rel+76-03-9
  18. http://toxnet.nlm.nih.gov/cgi-bin/sis/search/r?dbs+hsdb:@term+@rn+@rel+76-03-9
  19. http://pubchem.ncbi.nlm.nih.gov/vw3d/vw3d.cgi?cid=6421
