11821
  -OEChem-06261206092D

 90 92  0     1  0  0  0  0  0999 V2000
   12.8326    5.6306    0.0000 I   0  5  0  0  0  0  0  0  0  0  0  0
   12.8326    8.1532    0.0000 I   0  5  0  0  0  0  0  0  0  0  0  0
    5.8022    5.1441    0.0000 O   0  0  0  0  0  0  0  0  0  0  0  0
    5.8022    9.1441    0.0000 O   0  0  0  0  0  0  0  0  0  0  0  0
    1.4061    3.6683    0.0000 O   0  0  0  0  0  0  0  0  0  0  0  0
   10.1984   10.6200    0.0000 O   0  0  0  0  0  0  0  0  0  0  0  0
    1.4061    1.6200    0.0000 O   0  0  0  0  0  0  0  0  0  0  0  0
   10.1984   12.6683    0.0000 O   0  0  0  0  0  0  0  0  0  0  0  0
    5.8022   11.1441    0.0000 N   0  3  0  0  0  0  0  0  0  0  0  0
    5.8022    3.1441    0.0000 N   0  3  0  0  0  0  0  0  0  0  0  0
    4.9362    3.6441    0.0000 C   0  0  3  0  0  0  0  0  0  0  0  0
    6.6682   10.6441    0.0000 C   0  0  3  0  0  0  0  0  0  0  0  0
    5.8022   12.1441    0.0000 C   0  0  0  0  0  0  0  0  0  0  0  0
    5.8022    2.1441    0.0000 C   0  0  0  0  0  0  0  0  0  0  0  0
    4.0702    3.1441    0.0000 C   0  0  0  0  0  0  0  0  0  0  0  0
    7.5343   11.1441    0.0000 C   0  0  0  0  0  0  0  0  0  0  0  0
    6.6682   12.6441    0.0000 C   0  0  0  0  0  0  0  0  0  0  0  0
    4.9362    1.6441    0.0000 C   0  0  0  0  0  0  0  0  0  0  0  0
    4.0702    2.1441    0.0000 C   0  0  0  0  0  0  0  0  0  0  0  0
    7.5343   12.1441    0.0000 C   0  0  0  0  0  0  0  0  0  0  0  0
    6.8022    3.1441    0.0000 C   0  0  0  0  0  0  0  0  0  0  0  0
    6.3022    4.0102    0.0000 C   0  0  0  0  0  0  0  0  0  0  0  0
    4.8022   11.1441    0.0000 C   0  0  0  0  0  0  0  0  0  0  0  0
    5.3022   10.2781    0.0000 C   0  0  0  0  0  0  0  0  0  0  0  0
    4.9362    4.6441    0.0000 C   0  0  0  0  0  0  0  0  0  0  0  0
    6.6682    9.6441    0.0000 C   0  0  0  0  0  0  0  0  0  0  0  0
    8.4282   10.6095    0.0000 C   0  0  0  0  0  0  0  0  0  0  0  0
    3.1762    3.6788    0.0000 C   0  0  0  0  0  0  0  0  0  0  0  0
    3.1762    1.6095    0.0000 C   0  0  0  0  0  0  0  0  0  0  0  0
    8.4282   12.6788    0.0000 C   0  0  0  0  0  0  0  0  0  0  0  0
    2.2702    3.1650    0.0000 C   0  0  0  0  0  0  0  0  0  0  0  0
    9.3343   11.1233    0.0000 C   0  0  0  0  0  0  0  0  0  0  0  0
    9.3343   12.1650    0.0000 C   0  0  0  0  0  0  0  0  0  0  0  0
    2.2702    2.1233    0.0000 C   0  0  0  0  0  0  0  0  0  0  0  0
    5.8022    6.1441    0.0000 C   0  0  0  0  0  0  0  0  0  0  0  0
    5.8022    8.1441    0.0000 C   0  0  0  0  0  0  0  0  0  0  0  0
    6.6682    6.6441    0.0000 C   0  0  0  0  0  0  0  0  0  0  0  0
    6.6682    7.6441    0.0000 C   0  0  0  0  0  0  0  0  0  0  0  0
    4.9362    6.6441    0.0000 C   0  0  0  0  0  0  0  0  0  0  0  0
    4.9362    7.6441    0.0000 C   0  0  0  0  0  0  0  0  0  0  0  0
   10.1945    9.6200    0.0000 C   0  0  0  0  0  0  0  0  0  0  0  0
    0.5381    3.1716    0.0000 C   0  0  0  0  0  0  0  0  0  0  0  0
   10.1945   13.6683    0.0000 C   0  0  0  0  0  0  0  0  0  0  0  0
    1.4099    0.6200    0.0000 C   0  0  0  0  0  0  0  0  0  0  0  0
    5.4731    3.9541    0.0000 H   0  0  0  0  0  0  0  0  0  0  0  0
    6.1313   10.3341    0.0000 H   0  0  0  0  0  0  0  0  0  0  0  0
    5.5902   12.7267    0.0000 H   0  0  0  0  0  0  0  0  0  0  0  0
    5.1916   12.0365    0.0000 H   0  0  0  0  0  0  0  0  0  0  0  0
    6.0143    1.5615    0.0000 H   0  0  0  0  0  0  0  0  0  0  0  0
    6.4128    2.2518    0.0000 H   0  0  0  0  0  0  0  0  0  0  0  0
    7.0668   13.1191    0.0000 H   0  0  0  0  0  0  0  0  0  0  0  0
    6.2697   13.1191    0.0000 H   0  0  0  0  0  0  0  0  0  0  0  0
    4.5377    1.1692    0.0000 H   0  0  0  0  0  0  0  0  0  0  0  0
    5.3347    1.1692    0.0000 H   0  0  0  0  0  0  0  0  0  0  0  0
    6.8022    2.5241    0.0000 H   0  0  0  0  0  0  0  0  0  0  0  0
    7.4222    3.1441    0.0000 H   0  0  0  0  0  0  0  0  0  0  0  0
    6.8022    3.7641    0.0000 H   0  0  0  0  0  0  0  0  0  0  0  0
    6.8392    3.7002    0.0000 H   0  0  0  0  0  0  0  0  0  0  0  0
    6.6122    4.5471    0.0000 H   0  0  0  0  0  0  0  0  0  0  0  0
    5.7653    4.3202    0.0000 H   0  0  0  0  0  0  0  0  0  0  0  0
    4.8022   11.7641    0.0000 H   0  0  0  0  0  0  0  0  0  0  0  0
    4.1822   11.1441    0.0000 H   0  0  0  0  0  0  0  0  0  0  0  0
    4.7653   10.5881    0.0000 H   0  0  0  0  0  0  0  0  0  0  0  0
    4.9922    9.7412    0.0000 H   0  0  0  0  0  0  0  0  0  0  0  0
    5.8392    9.9681    0.0000 H   0  0  0  0  0  0  0  0  0  0  0  0
    4.8022   10.5241    0.0000 H   0  0  0  0  0  0  0  0  0  0  0  0
    6.8803    9.0615    0.0000 H   0  0  0  0  0  0  0  0  0  0  0  0
    7.2788    9.7518    0.0000 H   0  0  0  0  0  0  0  0  0  0  0  0
    4.7242    5.2268    0.0000 H   0  0  0  0  0  0  0  0  0  0  0  0
    4.3256    4.5365    0.0000 H   0  0  0  0  0  0  0  0  0  0  0  0
    8.4210    9.9895    0.0000 H   0  0  0  0  0  0  0  0  0  0  0  0
    3.1834    4.2988    0.0000 H   0  0  0  0  0  0  0  0  0  0  0  0
    3.1834    0.9895    0.0000 H   0  0  0  0  0  0  0  0  0  0  0  0
    8.4210   13.2988    0.0000 H   0  0  0  0  0  0  0  0  0  0  0  0
    7.2052    6.3341    0.0000 H   0  0  0  0  0  0  0  0  0  0  0  0
    7.2052    7.9541    0.0000 H   0  0  0  0  0  0  0  0  0  0  0  0
    4.3993    6.3341    0.0000 H   0  0  0  0  0  0  0  0  0  0  0  0
    4.3993    7.9541    0.0000 H   0  0  0  0  0  0  0  0  0  0  0  0
    0.2302    3.7098    0.0000 H   0  0  0  0  0  0  0  0  0  0  0  0
    0.0000    2.8637    0.0000 H   0  0  0  0  0  0  0  0  0  0  0  0
    0.8461    2.6335    0.0000 H   0  0  0  0  0  0  0  0  0  0  0  0
    9.5745    9.6224    0.0000 H   0  0  0  0  0  0  0  0  0  0  0  0
   10.1921    9.0000    0.0000 H   0  0  0  0  0  0  0  0  0  0  0  0
   10.8145    9.6176    0.0000 H   0  0  0  0  0  0  0  0  0  0  0  0
    0.7899    0.6176    0.0000 H   0  0  0  0  0  0  0  0  0  0  0  0
    1.4123    0.0000    0.0000 H   0  0  0  0  0  0  0  0  0  0  0  0
   10.8145   13.6707    0.0000 H   0  0  0  0  0  0  0  0  0  0  0  0
   10.1921   14.2883    0.0000 H   0  0  0  0  0  0  0  0  0  0  0  0
    9.5745   13.6659    0.0000 H   0  0  0  0  0  0  0  0  0  0  0  0
    2.0299    0.6224    0.0000 H   0  0  0  0  0  0  0  0  0  0  0  0
  3 25  1  0  0  0  0
  3 35  1  0  0  0  0
  4 26  1  0  0  0  0
  4 36  1  0  0  0  0
  5 31  1  0  0  0  0
  5 42  1  0  0  0  0
  6 32  1  0  0  0  0
  6 41  1  0  0  0  0
  7 34  1  0  0  0  0
  7 44  1  0  0  0  0
  8 33  1  0  0  0  0
  8 43  1  0  0  0  0
  9 12  1  0  0  0  0
  9 13  1  0  0  0  0
  9 23  1  0  0  0  0
  9 24  1  0  0  0  0
 10 11  1  0  0  0  0
 10 14  1  0  0  0  0
 10 21  1  0  0  0  0
 10 22  1  0  0  0  0
 11 15  1  0  0  0  0
 11 25  1  0  0  0  0
 11 45  1  0  0  0  0
 12 16  1  0  0  0  0
 12 26  1  0  0  0  0
 12 46  1  0  0  0  0
 13 17  1  0  0  0  0
 13 47  1  0  0  0  0
 13 48  1  0  0  0  0
 14 18  1  0  0  0  0
 14 49  1  0  0  0  0
 14 50  1  0  0  0  0
 15 19  1  0  0  0  0
 15 28  2  0  0  0  0
 16 20  1  0  0  0  0
 16 27  2  0  0  0  0
 17 20  1  0  0  0  0
 17 51  1  0  0  0  0
 17 52  1  0  0  0  0
 18 19  1  0  0  0  0
 18 53  1  0  0  0  0
 18 54  1  0  0  0  0
 19 29  2  0  0  0  0
 20 30  2  0  0  0  0
 21 55  1  0  0  0  0
 21 56  1  0  0  0  0
 21 57  1  0  0  0  0
 22 58  1  0  0  0  0
 22 59  1  0  0  0  0
 22 60  1  0  0  0  0
 23 61  1  0  0  0  0
 23 62  1  0  0  0  0
 23 66  1  0  0  0  0
 24 63  1  0  0  0  0
 24 64  1  0  0  0  0
 24 65  1  0  0  0  0
 25 69  1  0  0  0  0
 25 70  1  0  0  0  0
 26 67  1  0  0  0  0
 26 68  1  0  0  0  0
 27 32  1  0  0  0  0
 27 71  1  0  0  0  0
 28 31  1  0  0  0  0
 28 72  1  0  0  0  0
 29 34  1  0  0  0  0
 29 73  1  0  0  0  0
 30 33  1  0  0  0  0
 30 74  1  0  0  0  0
 31 34  2  0  0  0  0
 32 33  2  0  0  0  0
 35 37  2  0  0  0  0
 35 39  1  0  0  0  0
 36 38  2  0  0  0  0
 36 40  1  0  0  0  0
 37 38  1  0  0  0  0
 37 75  1  0  0  0  0
 38 76  1  0  0  0  0
 39 40  2  0  0  0  0
 39 77  1  0  0  0  0
 40 78  1  0  0  0  0
 41 82  1  0  0  0  0
 41 83  1  0  0  0  0
 41 84  1  0  0  0  0
 42 79  1  0  0  0  0
 42 80  1  0  0  0  0
 42 81  1  0  0  0  0
 43 87  1  0  0  0  0
 43 88  1  0  0  0  0
 43 89  1  0  0  0  0
 44 85  1  0  0  0  0
 44 86  1  0  0  0  0
 44 90  1  0  0  0  0
M  CHG  4   1  -1   2  -1   9   1  10   1
M  END
> <PUBCHEM_COMPOUND_CID>
11821

> <PUBCHEM_COMPOUND_CANONICALIZED>
1

> <PUBCHEM_CACTVS_COMPLEXITY>
780

> <PUBCHEM_CACTVS_HBOND_ACCEPTOR>
8

> <PUBCHEM_CACTVS_HBOND_DONOR>
0

> <PUBCHEM_CACTVS_ROTATABLE_BOND>
10

> <PUBCHEM_CACTVS_SUBSKEYS>
AAADcfB/OAAAAwAAAAAAAAAAAAAAAAAAAAA8eMECAAAAAACxUAAAHgAAAAAADCzhmAYyBoMABACAAiBCAACCCAAgIAAIiAAOjIgPJiKEsRuHOCrkwBGaqAfw8L8OoQABAAAQQABCAAIAACCAAAAAAAAAAA==

> <PUBCHEM_IUPAC_OPENEYE_NAME>
1-[[4-[(6,7-dimethoxy-2,2-dimethyl-3,4-dihydro-1H-isoquinolin-2-ium-1-yl)methoxy]phenoxy]methyl]-6,7-dimethoxy-2,2-dimethyl-3,4-dihydro-1H-isoquinolin-2-ium diiodide

> <PUBCHEM_IUPAC_CAS_NAME>
1-[[4-[(6,7-dimethoxy-2,2-dimethyl-3,4-dihydro-1H-isoquinolin-2-ium-1-yl)methoxy]phenoxy]methyl]-6,7-dimethoxy-2,2-dimethyl-3,4-dihydro-1H-isoquinolin-2-ium diiodide

> <PUBCHEM_IUPAC_NAME>
1-[[4-[(6,7-dimethoxy-2,2-dimethyl-3,4-dihydro-1H-isoquinolin-2-ium-1-yl)methoxy]phenoxy]methyl]-6,7-dimethoxy-2,2-dimethyl-3,4-dihydro-1H-isoquinolin-2-ium diiodide

> <PUBCHEM_IUPAC_SYSTEMATIC_NAME>
1-[[4-[(6,7-dimethoxy-2,2-dimethyl-3,4-dihydro-1H-isoquinolin-2-ium-1-yl)methoxy]phenoxy]methyl]-6,7-dimethoxy-2,2-dimethyl-3,4-dihydro-1H-isoquinolin-2-ium diiodide

> <PUBCHEM_IUPAC_TRADITIONAL_NAME>
1-[[4-[(6,7-dimethoxy-2,2-dimethyl-3,4-dihydro-1H-isoquinolin-2-ium-1-yl)methoxy]phenoxy]methyl]-6,7-dimethoxy-2,2-dimethyl-3,4-dihydro-1H-isoquinolin-2-ium diiodide

> <PUBCHEM_IUPAC_INCHI>
InChI=1S/C34H46N2O6.2HI/c1-35(2)15-13-23-17-31(37-5)33(39-7)19-27(23)29(35)21-41-25-9-11-26(12-10-25)42-22-30-28-20-34(40-8)32(38-6)18-24(28)14-16-36(30,3)4;;/h9-12,17-20,29-30H,13-16,21-22H2,1-8H3;2*1H/q+2;;/p-2

> <PUBCHEM_IUPAC_INCHIKEY>
LPOLCRUFHFAZAZ-UHFFFAOYSA-L

> <PUBCHEM_EXACT_MASS>
832.144533

> <PUBCHEM_MOLECULAR_FORMULA>
C34H46I2N2O6

> <PUBCHEM_MOLECULAR_WEIGHT>
832.54778

> <PUBCHEM_OPENEYE_CAN_SMILES>
C[N+]1(CCC2=CC(=C(C=C2C1COC3=CC=C(C=C3)OCC4C5=CC(=C(C=C5CC[N+]4(C)C)OC)OC)OC)OC)C.[I-].[I-]

> <PUBCHEM_OPENEYE_ISO_SMILES>
C[N+]1(CCC2=CC(=C(C=C2C1COC3=CC=C(C=C3)OCC4C5=CC(=C(C=C5CC[N+]4(C)C)OC)OC)OC)OC)C.[I-].[I-]

> <PUBCHEM_CACTVS_TPSA>
55.4

> <PUBCHEM_MONOISOTOPIC_WEIGHT>
832.144533

> <PUBCHEM_TOTAL_CHARGE>
0

> <PUBCHEM_HEAVY_ATOM_COUNT>
44

> <PUBCHEM_ATOM_DEF_STEREO_COUNT>
0

> <PUBCHEM_ATOM_UDEF_STEREO_COUNT>
2

> <PUBCHEM_BOND_DEF_STEREO_COUNT>
0

> <PUBCHEM_BOND_UDEF_STEREO_COUNT>
0

> <PUBCHEM_ISOTOPIC_ATOM_COUNT>
0

> <PUBCHEM_COMPONENT_COUNT>
3

> <PUBCHEM_CACTVS_TAUTO_COUNT>
1

> <PUBCHEM_COORDINATE_TYPE>
1
5
255

> <PUBCHEM_BONDANNOTATIONS>
11  25  3
12  26  3
15  19  8
15  28  8
16  20  8
16  27  8
19  29  8
20  30  8
27  32  8
28  31  8
29  34  8
30  33  8
31  34  8
32  33  8
35  37  8
35  39  8
36  38  8
36  40  8
37  38  8
39  40  8

$$$$

