   Color/Form
        Yellow-orange crystals
   from [1]HSDB

   Odor
        No appreciable odor
   from [2]HSDB

   Boiling Point
        Decomp @ 265 deg C
   from [3]HSDB

   Melting Point
        137-138 deg C
   from [4]HSDB

   Corrosivity
        Non-corrosive
   from [5]HSDB

   Dissociation Constants
        pKa = 9.4; very weak acid
   from [6]HSDB

   Octanol/Water Partition Coefficient
        log Kow= 3.73 (pH 7)
   from [7]HSDB

   Solubilities

     * Soluble in ethanol; practically insoluble in hexane.
     * Solubility: methyl cellosolve 500, acetonitrile >150, methanol 50,
       dichloromethane >30, benzene 4, xylene 2 (all in g/l at 25 deg C)
     * In water, 2.5 mg/l @ 25 deg C

   from [8]HSDB

   Spectral Properties

     * Intense mass spectral peaks: 43 m/z (100%), 41 m/z (66%), 317 m/z
       (38%), 275 m/z (27%)
     * Decomposed by UV radiation; aqueous photolysis DT50 (or half-life)
       1.4 hr in natural sunlight.

   from [9]HSDB

   Vapor Pressure
        9.75X10-9 mm Hg @ 25 deg C
   from [10]HSDB

   Other Chemical/Physical Properties

     * Mp: 141-142 deg C /Technical oryzalin/
     * Bright orange opaque liquid with slight aromatic odor /Surflan
       A.S./
     * Susceptible to decomposition.
     * Yellow-orange crystalline solid /Technical grade/

   from [11]HSDB

   Computed Properties
   Molecular Weight                  346.35952 [g/mol]
   Molecular Formula                 C[12]H[18]N[4]O[6]S
   XLogP3-AA                         2.1
   H-Bond Donor                      1
   H-Bond Acceptor                   8
   Rotatable Bond Count              6
   Exact Mass                        346.094705
   MonoIsotopic Mass                 346.094705
   Topological Polar Surface Area    163
   Heavy Atom Count                  23
   Formal Charge                     0
   Complexity                        493
   Isotope Atom Count                0
   Defined Atom Stereocenter Count   0
   Undefined Atom Stereocenter Count 0
   Defined Bond Stereocenter Count   0
   Undefined Bond Stereocenter Count 0
   Covalently-Bonded Unit Count      1
   Feature 3D Acceptor Count         6
   Feature 3D Donor Count            1
   Feature 3D Anion Count            2
   Feature 3D Cation Count           1
   Feature 3D Hydrophobe Count       2
   Feature 3D Ring Count             1
   Effective Rotor Count             8
   Conformer Sampling RMSD           0.8
   CID Conformer Count               [12]2

References

   1. http://toxnet.nlm.nih.gov/cgi-bin/sis/search/r?dbs+hsdb:@term+@rn+@rel+19044-88-3
   2. http://toxnet.nlm.nih.gov/cgi-bin/sis/search/r?dbs+hsdb:@term+@rn+@rel+19044-88-3
   3. http://toxnet.nlm.nih.gov/cgi-bin/sis/search/r?dbs+hsdb:@term+@rn+@rel+19044-88-3
   4. http://toxnet.nlm.nih.gov/cgi-bin/sis/search/r?dbs+hsdb:@term+@rn+@rel+19044-88-3
   5. http://toxnet.nlm.nih.gov/cgi-bin/sis/search/r?dbs+hsdb:@term+@rn+@rel+19044-88-3
   6. http://toxnet.nlm.nih.gov/cgi-bin/sis/search/r?dbs+hsdb:@term+@rn+@rel+19044-88-3
   7. http://toxnet.nlm.nih.gov/cgi-bin/sis/search/r?dbs+hsdb:@term+@rn+@rel+19044-88-3
   8. http://toxnet.nlm.nih.gov/cgi-bin/sis/search/r?dbs+hsdb:@term+@rn+@rel+19044-88-3
   9. http://toxnet.nlm.nih.gov/cgi-bin/sis/search/r?dbs+hsdb:@term+@rn+@rel+19044-88-3
  10. http://toxnet.nlm.nih.gov/cgi-bin/sis/search/r?dbs+hsdb:@term+@rn+@rel+19044-88-3
  11. http://toxnet.nlm.nih.gov/cgi-bin/sis/search/r?dbs+hsdb:@term+@rn+@rel+19044-88-3
  12. http://pubchem.ncbi.nlm.nih.gov/vw3d/vw3d.cgi?cid=29393
