   Color/Form
        MODERATELY VISCOUS, YELLOWISH LIQUID
   from [1]HSDB

   Boiling Point
        266-267 DEG C @ 760 MM HG
   from [2]HSDB

   Melting Point
        12 DEG C
   from [3]HSDB

   Density/Specific Gravity
        0.9818 @ 20 DEG C/20 DEG C
   from [4]HSDB

   pH
        STRONGLY BASIC (PH 10 IN 1% AQ SOLN)
   from [5]HSDB

   Solubilities

     * SOL IN ALCOHOL, ACID
     * COMPLETE SOLUBILITY IN WATER

   from [6]HSDB

   Spectral Properties

     * INDEX OF REFRACTION: 1.4971 @ 20 DEG C/D; SADTLER REF NUMBER: 532
       (IR, PRISM)
     * IR: 15546 (Sadtler Research Laboratories IR Grating Collection)

   from [7]HSDB

   Vapor Density
        5.04 (AIR= 1)
   from [8]HSDB

   Vapor Pressure
        LESS THAN 0.01 MM HG, 20 DEG C
   from [9]HSDB

   Other Chemical/Physical Properties

     * CONVERSION UNITS: 1 MG/L= 167 PPM, 1 PPM= 5.98 MG/CU M
     * WT 8.2 LB/GAL @ 20 DEG C
     * CAN REACT WITH OXIDIZING MATERIALS

   from [10]HSDB

   Computed Properties
   Molecular Weight                  146.23392 [g/mol]
   Molecular Formula                 C[6]H[18]N[4]
   XLogP3-AA                         -2.5
   H-Bond Donor                      4
   H-Bond Acceptor                   4
   Rotatable Bond Count              7
   Exact Mass                        146.153147
   MonoIsotopic Mass                 146.153147
   Topological Polar Surface Area    76.1
   Heavy Atom Count                  10
   Formal Charge                     0
   Complexity                        49.7
   Isotope Atom Count                0
   Defined Atom Stereocenter Count   0
   Undefined Atom Stereocenter Count 0
   Defined Bond Stereocenter Count   0
   Undefined Bond Stereocenter Count 0
   Covalently-Bonded Unit Count      1
   Feature 3D Donor Count            4
   Feature 3D Cation Count           4
   Effective Rotor Count             7
   Conformer Sampling RMSD           0.6
   CID Conformer Count               [11]148

References

   1. http://toxnet.nlm.nih.gov/cgi-bin/sis/search/r?dbs+hsdb:@term+@rn+@rel+112-24-3
   2. http://toxnet.nlm.nih.gov/cgi-bin/sis/search/r?dbs+hsdb:@term+@rn+@rel+112-24-3
   3. http://toxnet.nlm.nih.gov/cgi-bin/sis/search/r?dbs+hsdb:@term+@rn+@rel+112-24-3
   4. http://toxnet.nlm.nih.gov/cgi-bin/sis/search/r?dbs+hsdb:@term+@rn+@rel+112-24-3
   5. http://toxnet.nlm.nih.gov/cgi-bin/sis/search/r?dbs+hsdb:@term+@rn+@rel+112-24-3
   6. http://toxnet.nlm.nih.gov/cgi-bin/sis/search/r?dbs+hsdb:@term+@rn+@rel+112-24-3
   7. http://toxnet.nlm.nih.gov/cgi-bin/sis/search/r?dbs+hsdb:@term+@rn+@rel+112-24-3
   8. http://toxnet.nlm.nih.gov/cgi-bin/sis/search/r?dbs+hsdb:@term+@rn+@rel+112-24-3
   9. http://toxnet.nlm.nih.gov/cgi-bin/sis/search/r?dbs+hsdb:@term+@rn+@rel+112-24-3
  10. http://toxnet.nlm.nih.gov/cgi-bin/sis/search/r?dbs+hsdb:@term+@rn+@rel+112-24-3
  11. http://pubchem.ncbi.nlm.nih.gov/vw3d/vw3d.cgi?cid=5565
