   Color/Form
        White, crystalline solid
   from [1]HSDB

   Boiling Point
        240 deg C @ 13.5 mm Hg
   from [2]HSDB

   Melting Point
        103.5 deg C
   from [3]HSDB

   Octanol/Water Partition Coefficient
        log Kow = 4.19
   from [4]HSDB

   Solubilities

     * 40 ppm in water at 20 deg C
     * Moderately sol in organic solvents
     * Soluble in chloroform

   from [5]HSDB

   Other Chemical/Physical Properties

     * Unlike the halocarbons, organotin halides are reactive compounds
       and, because of their ionic character, readily enter into
       metathetical substitution reactions resembling the inorganic metal
       halides. /Organotin halides/
     * Hydrolyzes to hydroxide in water.

   from [6]HSDB

   Computed Properties
   Molecular Weight                  385.4747 [g/mol]
   Molecular Formula                 C[18]H[15]ClSn
   H-Bond Donor                      0
   H-Bond Acceptor                   0
   Rotatable Bond Count              3
   Exact Mass                        385.988423
   MonoIsotopic Mass                 385.988423
   Topological Polar Surface Area    0
   Heavy Atom Count                  20
   Formal Charge                     0
   Complexity                        240
   Isotope Atom Count                0
   Defined Atom Stereocenter Count   0
   Undefined Atom Stereocenter Count 0
   Defined Bond Stereocenter Count   0
   Undefined Bond Stereocenter Count 0
   Covalently-Bonded Unit Count      1

References

   1. http://toxnet.nlm.nih.gov/cgi-bin/sis/search/r?dbs+hsdb:@term+@rn+@rel+639-58-7
   2. http://toxnet.nlm.nih.gov/cgi-bin/sis/search/r?dbs+hsdb:@term+@rn+@rel+639-58-7
   3. http://toxnet.nlm.nih.gov/cgi-bin/sis/search/r?dbs+hsdb:@term+@rn+@rel+639-58-7
   4. http://toxnet.nlm.nih.gov/cgi-bin/sis/search/r?dbs+hsdb:@term+@rn+@rel+639-58-7
   5. http://toxnet.nlm.nih.gov/cgi-bin/sis/search/r?dbs+hsdb:@term+@rn+@rel+639-58-7
   6. http://toxnet.nlm.nih.gov/cgi-bin/sis/search/r?dbs+hsdb:@term+@rn+@rel+639-58-7
