   Color/Form

     * Needles
     * WHITE

   from [1]HSDB

   Odor
        ODORLESS
   from [2]HSDB

   Taste
        INITIALLY ACID & THEN BITTER TASTE
   from [3]HSDB

   Boiling Point
        159-162 deg C @ 1 mm Hg
   from [4]HSDB

   Melting Point
        37-38 deg C
   from [5]HSDB

   Dissociation Constants
        PKA 7.89
   from [6]HSDB

   Octanol/Water Partition Coefficient
        log Kow= 2.11
   from [7]HSDB

   Solubilities

     * FREELY SOL IN ALC; SLIGHTLY SOL IN CHLOROFORM
     * VERY SLIGHTLY SOL IN ACETONE; PRACTICALLY INSOL IN ETHER

   from [8]HSDB

   Spectral Properties

     * Index of refraction: 1.5298 @ 20 deg C/D
     * Intense mass spectral peaks: 86 m/z, 220 m/z

   from [9]HSDB

   Other Chemical/Physical Properties
        Crystals from ethanol + isopropyl ether; readily sol in water; mp
   167-168 deg C /Hydrochloride/
   from [10]HSDB

   Computed Properties
   Molecular Weight                  220.3107 [g/mol]
   Molecular Formula                 C[13]H[20]N[2]O
   XLogP3                            2.1
   H-Bond Donor                      2
   H-Bond Acceptor                   2
   Rotatable Bond Count              5
   Tautomer Count                    3
   Exact Mass                        220.157563
   MonoIsotopic Mass                 220.157563
   Topological Polar Surface Area    41.1
   Heavy Atom Count                  16
   Formal Charge                     0
   Complexity                        218
   Isotope Atom Count                0
   Defined Atom Stereocenter Count   0
   Undefined Atom Stereocenter Count 1
   Defined Bond Stereocenter Count   0
   Undefined Bond Stereocenter Count 0
   Covalently-Bonded Unit Count      1
   Feature 3D Acceptor Count         1
   Feature 3D Donor Count            2
   Feature 3D Cation Count           1
   Feature 3D Hydrophobe Count       1
   Feature 3D Ring Count             1
   Effective Rotor Count             6
   Conformer Sampling RMSD           0.8
   CID Conformer Count               [11]39

References

   1. http://toxnet.nlm.nih.gov/cgi-bin/sis/search/r?dbs+hsdb:@term+@rn+@rel+721-50-6
   2. http://toxnet.nlm.nih.gov/cgi-bin/sis/search/r?dbs+hsdb:@term+@rn+@rel+721-50-6
   3. http://toxnet.nlm.nih.gov/cgi-bin/sis/search/r?dbs+hsdb:@term+@rn+@rel+721-50-6
   4. http://toxnet.nlm.nih.gov/cgi-bin/sis/search/r?dbs+hsdb:@term+@rn+@rel+721-50-6
   5. http://toxnet.nlm.nih.gov/cgi-bin/sis/search/r?dbs+hsdb:@term+@rn+@rel+721-50-6
   6. http://toxnet.nlm.nih.gov/cgi-bin/sis/search/r?dbs+hsdb:@term+@rn+@rel+721-50-6
   7. http://toxnet.nlm.nih.gov/cgi-bin/sis/search/r?dbs+hsdb:@term+@rn+@rel+721-50-6
   8. http://toxnet.nlm.nih.gov/cgi-bin/sis/search/r?dbs+hsdb:@term+@rn+@rel+721-50-6
   9. http://toxnet.nlm.nih.gov/cgi-bin/sis/search/r?dbs+hsdb:@term+@rn+@rel+721-50-6
  10. http://toxnet.nlm.nih.gov/cgi-bin/sis/search/r?dbs+hsdb:@term+@rn+@rel+721-50-6
  11. http://pubchem.ncbi.nlm.nih.gov/vw3d/vw3d.cgi?cid=4906
