4689
  -OEChem-06261200172D

 87 90  0     1  0  0  0  0  0999 V2000
    8.0420   -0.4372    0.0000 O   0  0  0  0  0  0  0  0  0  0  0  0
    6.3100   -1.4372    0.0000 O   0  0  0  0  0  0  0  0  0  0  0  0
    9.8216   -0.3439    0.0000 O   0  0  0  0  0  0  0  0  0  0  0  0
   10.3975    2.1788    0.0000 O   0  0  0  0  0  0  0  0  0  0  0  0
    9.7741   -1.4372    0.0000 O   0  0  0  0  0  0  0  0  0  0  0  0
    4.8100   -2.3033    0.0000 O   0  0  0  0  0  0  0  0  0  0  0  0
   11.9798    1.4743    0.0000 O   0  0  0  0  0  0  0  0  0  0  0  0
    8.2695    1.7264    0.0000 O   0  0  0  0  0  0  0  0  0  0  0  0
    3.3100    0.2949    0.0000 O   0  0  0  0  0  0  0  0  0  0  0  0
    2.3100   -1.4372    0.0000 O   0  0  0  0  0  0  0  0  0  0  0  0
   13.2000    4.2149    0.0000 O   0  0  0  0  0  0  0  0  0  0  0  0
   11.8920   -0.6189    0.0000 O   0  0  0  0  0  0  0  0  0  0  0  0
   14.3756    2.5969    0.0000 O   0  0  0  0  0  0  0  0  0  0  0  0
    3.8101   -4.0353    0.0000 O   0  0  0  0  0  0  0  0  0  0  0  0
    6.6760   -3.8032    0.0000 N   0  0  0  0  0  0  0  0  0  0  0  0
    9.7741   -3.4372    0.0000 N   0  0  0  0  0  0  0  0  0  0  0  0
    5.3100    0.2948    0.0000 N   0  0  0  0  0  0  0  0  0  0  0  0
   11.2110    4.0059    0.0000 N   0  0  0  0  0  0  0  0  0  0  0  0
   14.5566    0.8743    0.0000 N   0  0  0  0  0  0  0  0  0  0  0  0
    8.0420   -1.4372    0.0000 C   0  0  3  0  0  0  0  0  0  0  0  0
    7.1760   -1.9372    0.0000 C   0  0  3  0  0  0  0  0  0  0  0  0
    7.1760   -2.9372    0.0000 C   0  0  3  0  0  0  0  0  0  0  0  0
    8.9081   -1.9372    0.0000 C   0  0  3  0  0  0  0  0  0  0  0  0
    8.9081   -2.9372    0.0000 C   0  0  3  0  0  0  0  0  0  0  0  0
    8.0420   -3.4372    0.0000 C   0  0  0  0  0  0  0  0  0  0  0  0
    8.9081    0.0628    0.0000 C   0  0  3  0  0  0  0  0  0  0  0  0
    9.9908    1.2652    0.0000 C   0  0  3  0  0  0  0  0  0  0  0  0
    9.0126    1.0573    0.0000 C   0  0  3  0  0  0  0  0  0  0  0  0
   10.4908    0.3992    0.0000 C   0  0  3  0  0  0  0  0  0  0  0  0
    5.3100   -1.4372    0.0000 C   0  0  3  0  0  0  0  0  0  0  0  0
    4.8101   -0.5711    0.0000 C   0  0  3  0  0  0  0  0  0  0  0  0
   11.3920    2.2833    0.0000 C   0  0  3  0  0  0  0  0  0  0  0  0
    3.8100   -0.5711    0.0000 C   0  0  3  0  0  0  0  0  0  0  0  0
   11.7987    3.1968    0.0000 C   0  0  3  0  0  0  0  0  0  0  0  0
    3.3100   -1.4372    0.0000 C   0  0  3  0  0  0  0  0  0  0  0  0
    3.8100   -2.3032    0.0000 C   0  0  3  0  0  0  0  0  0  0  0  0
   12.7933    3.3014    0.0000 C   0  0  3  0  0  0  0  0  0  0  0  0
   11.4853    0.2947    0.0000 C   0  0  0  0  0  0  0  0  0  0  0  0
   13.3811    2.4924    0.0000 C   0  0  3  0  0  0  0  0  0  0  0  0
   12.9743    1.5788    0.0000 C   0  0  3  0  0  0  0  0  0  0  0  0
    3.3100   -3.1693    0.0000 C   0  0  0  0  0  0  0  0  0  0  0  0
   13.5621    0.7698    0.0000 C   0  0  0  0  0  0  0  0  0  0  0  0
    8.7782   -1.0122    0.0000 H   0  0  0  0  0  0  0  0  0  0  0  0
    7.1760   -1.0872    0.0000 H   0  0  0  0  0  0  0  0  0  0  0  0
    6.3550   -2.7172    0.0000 H   0  0  0  0  0  0  0  0  0  0  0  0
    8.9081   -1.0872    0.0000 H   0  0  0  0  0  0  0  0  0  0  0  0
    8.9081   -3.7872    0.0000 H   0  0  0  0  0  0  0  0  0  0  0  0
    7.6435   -3.9122    0.0000 H   0  0  0  0  0  0  0  0  0  0  0  0
    8.4406   -3.9122    0.0000 H   0  0  0  0  0  0  0  0  0  0  0  0
    8.1952    0.5257    0.0000 H   0  0  0  0  0  0  0  0  0  0  0  0
   10.8396    1.3097    0.0000 H   0  0  0  0  0  0  0  0  0  0  0  0
    8.2191    0.7527    0.0000 H   0  0  0  0  0  0  0  0  0  0  0  0
   10.7954   -0.3943    0.0000 H   0  0  0  0  0  0  0  0  0  0  0  0
    5.7350   -0.7011    0.0000 H   0  0  0  0  0  0  0  0  0  0  0  0
    5.6600   -0.5711    0.0000 H   0  0  0  0  0  0  0  0  0  0  0  0
   11.0463    1.5068    0.0000 H   0  0  0  0  0  0  0  0  0  0  0  0
    2.9600   -0.5711    0.0000 H   0  0  0  0  0  0  0  0  0  0  0  0
    6.9860   -4.3402    0.0000 H   0  0  0  0  0  0  0  0  0  0  0  0
    6.0560   -3.8032    0.0000 H   0  0  0  0  0  0  0  0  0  0  0  0
   12.1445    3.9734    0.0000 H   0  0  0  0  0  0  0  0  0  0  0  0
    9.7741   -4.0572    0.0000 H   0  0  0  0  0  0  0  0  0  0  0  0
   10.3110   -3.1272    0.0000 H   0  0  0  0  0  0  0  0  0  0  0  0
    2.8850   -0.7010    0.0000 H   0  0  0  0  0  0  0  0  0  0  0  0
    4.2350   -3.0394    0.0000 H   0  0  0  0  0  0  0  0  0  0  0  0
   13.6386    3.3902    0.0000 H   0  0  0  0  0  0  0  0  0  0  0  0
   10.3110   -1.7472    0.0000 H   0  0  0  0  0  0  0  0  0  0  0  0
   12.0869    0.4447    0.0000 H   0  0  0  0  0  0  0  0  0  0  0  0
   11.4420    0.9132    0.0000 H   0  0  0  0  0  0  0  0  0  0  0  0
   13.8807    1.8047    0.0000 H   0  0  0  0  0  0  0  0  0  0  0  0
   12.6286    0.8023    0.0000 H   0  0  0  0  0  0  0  0  0  0  0  0
    8.3984    2.3329    0.0000 H   0  0  0  0  0  0  0  0  0  0  0  0
    5.0000    0.8318    0.0000 H   0  0  0  0  0  0  0  0  0  0  0  0
    5.9300    0.2948    0.0000 H   0  0  0  0  0  0  0  0  0  0  0  0
    2.8351   -2.7708    0.0000 H   0  0  0  0  0  0  0  0  0  0  0  0
    2.8351   -3.5678    0.0000 H   0  0  0  0  0  0  0  0  0  0  0  0
   13.0049    0.4980    0.0000 H   0  0  0  0  0  0  0  0  0  0  0  0
   13.7330    0.1738    0.0000 H   0  0  0  0  0  0  0  0  0  0  0  0
   11.4631    4.5723    0.0000 H   0  0  0  0  0  0  0  0  0  0  0  0
   10.5944    3.9411    0.0000 H   0  0  0  0  0  0  0  0  0  0  0  0
    2.6900    0.2949    0.0000 H   0  0  0  0  0  0  0  0  0  0  0  0
    2.0000   -1.9741    0.0000 H   0  0  0  0  0  0  0  0  0  0  0  0
   13.8166    4.2797    0.0000 H   0  0  0  0  0  0  0  0  0  0  0  0
   14.7400    2.0953    0.0000 H   0  0  0  0  0  0  0  0  0  0  0  0
   12.5086   -0.6837    0.0000 H   0  0  0  0  0  0  0  0  0  0  0  0
   14.9211    0.3727    0.0000 H   0  0  0  0  0  0  0  0  0  0  0  0
   14.8088    1.4407    0.0000 H   0  0  0  0  0  0  0  0  0  0  0  0
    3.5001   -4.5723    0.0000 H   0  0  0  0  0  0  0  0  0  0  0  0
  1 20  1  0  0  0  0
  1 26  1  0  0  0  0
  2 21  1  0  0  0  0
  2 30  1  0  0  0  0
  3 26  1  0  0  0  0
  3 29  1  0  0  0  0
  4 27  1  0  0  0  0
  4 32  1  0  0  0  0
  5 23  1  0  0  0  0
  5 66  1  0  0  0  0
  6 30  1  0  0  0  0
  6 36  1  0  0  0  0
  7 32  1  0  0  0  0
  7 40  1  0  0  0  0
  8 28  1  0  0  0  0
  8 71  1  0  0  0  0
  9 33  1  0  0  0  0
  9 80  1  0  0  0  0
 10 35  1  0  0  0  0
 10 81  1  0  0  0  0
 11 37  1  0  0  0  0
 11 82  1  0  0  0  0
 12 38  1  0  0  0  0
 12 84  1  0  0  0  0
 13 39  1  0  0  0  0
 13 83  1  0  0  0  0
 14 41  1  0  0  0  0
 14 87  1  0  0  0  0
 15 22  1  0  0  0  0
 15 58  1  0  0  0  0
 15 59  1  0  0  0  0
 16 24  1  0  0  0  0
 16 61  1  0  0  0  0
 16 62  1  0  0  0  0
 17 31  1  0  0  0  0
 17 72  1  0  0  0  0
 17 73  1  0  0  0  0
 18 34  1  0  0  0  0
 18 78  1  0  0  0  0
 18 79  1  0  0  0  0
 19 42  1  0  0  0  0
 19 85  1  0  0  0  0
 19 86  1  0  0  0  0
 20 21  1  0  0  0  0
 20 23  1  0  0  0  0
 20 43  1  0  0  0  0
 21 22  1  0  0  0  0
 21 44  1  0  0  0  0
 22 25  1  0  0  0  0
 22 45  1  0  0  0  0
 23 24  1  0  0  0  0
 23 46  1  0  0  0  0
 24 25  1  0  0  0  0
 24 47  1  0  0  0  0
 25 48  1  0  0  0  0
 25 49  1  0  0  0  0
 26 28  1  0  0  0  0
 26 50  1  0  0  0  0
 27 28  1  0  0  0  0
 27 29  1  0  0  0  0
 27 51  1  0  0  0  0
 28 52  1  0  0  0  0
 29 38  1  0  0  0  0
 29 53  1  0  0  0  0
 30 31  1  0  0  0  0
 30 54  1  0  0  0  0
 31 33  1  0  0  0  0
 31 55  1  0  0  0  0
 32 34  1  0  0  0  0
 32 56  1  0  0  0  0
 33 35  1  0  0  0  0
 33 57  1  0  0  0  0
 34 37  1  0  0  0  0
 34 60  1  0  0  0  0
 35 36  1  0  0  0  0
 35 63  1  0  0  0  0
 36 41  1  0  0  0  0
 36 64  1  0  0  0  0
 37 39  1  0  0  0  0
 37 65  1  0  0  0  0
 38 67  1  0  0  0  0
 38 68  1  0  0  0  0
 39 40  1  0  0  0  0
 39 69  1  0  0  0  0
 40 42  1  0  0  0  0
 40 70  1  0  0  0  0
 41 74  1  0  0  0  0
 41 75  1  0  0  0  0
 42 76  1  0  0  0  0
 42 77  1  0  0  0  0
M  END
> <PUBCHEM_COMPOUND_CID>
4689

> <PUBCHEM_COMPOUND_CANONICALIZED>
1

> <PUBCHEM_CACTVS_COMPLEXITY>
870

> <PUBCHEM_CACTVS_HBOND_ACCEPTOR>
19

> <PUBCHEM_CACTVS_HBOND_DONOR>
13

> <PUBCHEM_CACTVS_ROTATABLE_BOND>
9

> <PUBCHEM_CACTVS_SUBSKEYS>
AAADcfB7vAAAAAAAAAAAAAAAAAAAASAAAAA0SIAAAAAAAAAAAAAAHgAQCAAACDzxgAcACABABgAAAAAAAAAAAAAAAAAAAIAAAAATEAIAwAAjQAAHEAAHAAHwcA0AAAAAAAAAAAAAgAAUCACgAAAAAAAAAA==

> <PUBCHEM_IUPAC_OPENEYE_NAME>
5-amino-2-(aminomethyl)-6-[5-[3,5-diamino-2-[3-amino-4,5-dihydroxy-6-(hydroxymethyl)tetrahydropyran-2-yl]oxy-6-hydroxy-cyclohexoxy]-4-hydroxy-2-(hydroxymethyl)tetrahydrofuran-3-yl]oxy-tetrahydropyran-3,4-diol

> <PUBCHEM_IUPAC_CAS_NAME>
5-amino-2-(aminomethyl)-6-[[5-[3,5-diamino-2-[[3-amino-4,5-dihydroxy-6-(hydroxymethyl)-2-oxanyl]oxy]-6-hydroxycyclohexyl]oxy-4-hydroxy-2-(hydroxymethyl)-3-oxolanyl]oxy]oxane-3,4-diol

> <PUBCHEM_IUPAC_NAME>
5-amino-2-(aminomethyl)-6-[5-[3,5-diamino-2-[3-amino-4,5-dihydroxy-6-(hydroxymethyl)oxan-2-yl]oxy-6-hydroxycyclohexyl]oxy-4-hydroxy-2-(hydroxymethyl)oxolan-3-yl]oxyoxane-3,4-diol

> <PUBCHEM_IUPAC_SYSTEMATIC_NAME>
2-(aminomethyl)-5-azanyl-6-[5-[3,5-bis(azanyl)-2-[3-azanyl-6-(hydroxymethyl)-4,5-bis(oxidanyl)oxan-2-yl]oxy-6-oxidanyl-cyclohexyl]oxy-2-(hydroxymethyl)-4-oxidanyl-oxolan-3-yl]oxy-oxane-3,4-diol

> <PUBCHEM_IUPAC_TRADITIONAL_NAME>
5-amino-2-(aminomethyl)-6-[5-[3,5-diamino-2-(3-amino-4,5-dihydroxy-6-methylol-tetrahydropyran-2-yl)oxy-6-hydroxy-cyclohexoxy]-4-hydroxy-2-methylol-tetrahydrofuran-3-yl]oxy-tetrahydropyran-3,4-diol

> <PUBCHEM_IUPAC_INCHI>
InChI=1S/C23H45N5O14/c24-2-7-13(32)15(34)10(27)21(37-7)41-19-9(4-30)39-23(17(19)36)42-20-12(31)5(25)1-6(26)18(20)40-22-11(28)16(35)14(33)8(3-29)38-22/h5-23,29-36H,1-4,24-28H2

> <PUBCHEM_IUPAC_INCHIKEY>
UOZODPSAJZTQNH-UHFFFAOYSA-N

> <PUBCHEM_XLOGP3_AA>
-8.7

> <PUBCHEM_EXACT_MASS>
615.296301

> <PUBCHEM_MOLECULAR_FORMULA>
C23H45N5O14

> <PUBCHEM_MOLECULAR_WEIGHT>
615.6285

> <PUBCHEM_OPENEYE_CAN_SMILES>
C1C(C(C(C(C1N)OC2C(C(C(C(O2)CO)O)O)N)OC3C(C(C(O3)CO)OC4C(C(C(C(O4)CN)O)O)N)O)O)N

> <PUBCHEM_OPENEYE_ISO_SMILES>
C1C(C(C(C(C1N)OC2C(C(C(C(O2)CO)O)O)N)OC3C(C(C(O3)CO)OC4C(C(C(C(O4)CN)O)O)N)O)O)N

> <PUBCHEM_CACTVS_TPSA>
347

> <PUBCHEM_MONOISOTOPIC_WEIGHT>
615.296301

> <PUBCHEM_TOTAL_CHARGE>
0

> <PUBCHEM_HEAVY_ATOM_COUNT>
42

> <PUBCHEM_ATOM_DEF_STEREO_COUNT>
0

> <PUBCHEM_ATOM_UDEF_STEREO_COUNT>
19

> <PUBCHEM_BOND_DEF_STEREO_COUNT>
0

> <PUBCHEM_BOND_UDEF_STEREO_COUNT>
0

> <PUBCHEM_ISOTOPIC_ATOM_COUNT>
0

> <PUBCHEM_COMPONENT_COUNT>
1

> <PUBCHEM_CACTVS_TAUTO_COUNT>
1

> <PUBCHEM_COORDINATE_TYPE>
1
5
255

> <PUBCHEM_BONDANNOTATIONS>
20  43  3
21  44  3
22  45  3
23  46  3
24  47  3
26  50  3
27  51  3
28  52  3
29  53  3
30  54  3
31  55  3
32  56  3
33  57  3
34  60  3
35  63  3
36  64  3
37  65  3
39  69  3
40  70  3

$$$$

