586332
  -OEChem-06241222462D

 28 28  0     0  0  0  0  0  0999 V2000
    4.0000    1.8660    0.0000 O   0  0  0  0  0  0  0  0  0  0  0  0
    3.0000    1.8660    0.0000 O   0  0  0  0  0  0  0  0  0  0  0  0
    3.5000   -1.0000    0.0000 C   0  0  0  0  0  0  0  0  0  0  0  0
    3.5000    1.0000    0.0000 C   0  0  0  0  0  0  0  0  0  0  0  0
    4.3660   -0.5000    0.0000 C   0  0  0  0  0  0  0  0  0  0  0  0
    2.6340   -0.5000    0.0000 C   0  0  0  0  0  0  0  0  0  0  0  0
    4.3660    0.5000    0.0000 C   0  0  0  0  0  0  0  0  0  0  0  0
    2.6340    0.5000    0.0000 C   0  0  0  0  0  0  0  0  0  0  0  0
    3.0000   -1.8660    0.0000 C   0  0  0  0  0  0  0  0  0  0  0  0
    4.0000   -1.8660    0.0000 C   0  0  0  0  0  0  0  0  0  0  0  0
    5.0000    1.8660    0.0000 C   0  0  0  0  0  0  0  0  0  0  0  0
    2.0000    1.8660    0.0000 C   0  0  0  0  0  0  0  0  0  0  0  0
    4.9030   -0.8100    0.0000 H   0  0  0  0  0  0  0  0  0  0  0  0
    2.0970   -0.8100    0.0000 H   0  0  0  0  0  0  0  0  0  0  0  0
    2.0970    0.8100    0.0000 H   0  0  0  0  0  0  0  0  0  0  0  0
    4.9030    0.8100    0.0000 H   0  0  0  0  0  0  0  0  0  0  0  0
    3.4631   -2.1760    0.0000 H   0  0  0  0  0  0  0  0  0  0  0  0
    2.4631   -1.5560    0.0000 H   0  0  0  0  0  0  0  0  0  0  0  0
    2.6900   -2.4030    0.0000 H   0  0  0  0  0  0  0  0  0  0  0  0
    3.5369   -2.1760    0.0000 H   0  0  0  0  0  0  0  0  0  0  0  0
    4.3100   -2.4030    0.0000 H   0  0  0  0  0  0  0  0  0  0  0  0
    4.5369   -1.5560    0.0000 H   0  0  0  0  0  0  0  0  0  0  0  0
    5.0000    1.2460    0.0000 H   0  0  0  0  0  0  0  0  0  0  0  0
    5.6200    1.8660    0.0000 H   0  0  0  0  0  0  0  0  0  0  0  0
    5.0000    2.4860    0.0000 H   0  0  0  0  0  0  0  0  0  0  0  0
    2.0000    2.4860    0.0000 H   0  0  0  0  0  0  0  0  0  0  0  0
    1.3800    1.8660    0.0000 H   0  0  0  0  0  0  0  0  0  0  0  0
    2.0000    1.2460    0.0000 H   0  0  0  0  0  0  0  0  0  0  0  0
  1  4  1  0  0  0  0
  1 11  1  0  0  0  0
  2  4  1  0  0  0  0
  2 12  1  0  0  0  0
  3  5  1  0  0  0  0
  3  6  1  0  0  0  0
  3  9  1  0  0  0  0
  3 10  1  0  0  0  0
  4  7  1  0  0  0  0
  4  8  1  0  0  0  0
  5  7  2  0  0  0  0
  5 13  1  0  0  0  0
  6  8  2  0  0  0  0
  6 14  1  0  0  0  0
  7 16  1  0  0  0  0
  8 15  1  0  0  0  0
  9 18  1  0  0  0  0
  9 19  1  0  0  0  0
  9 20  1  0  0  0  0
 10 17  1  0  0  0  0
 10 21  1  0  0  0  0
 10 22  1  0  0  0  0
 11 23  1  0  0  0  0
 11 24  1  0  0  0  0
 11 25  1  0  0  0  0
 12 26  1  0  0  0  0
 12 27  1  0  0  0  0
 12 28  1  0  0  0  0
M  END
> <PUBCHEM_COMPOUND_CID>
586332

> <PUBCHEM_COMPOUND_CANONICALIZED>
1

> <PUBCHEM_CACTVS_COMPLEXITY>
192

> <PUBCHEM_CACTVS_HBOND_ACCEPTOR>
2

> <PUBCHEM_CACTVS_HBOND_DONOR>
0

> <PUBCHEM_CACTVS_ROTATABLE_BOND>
2

> <PUBCHEM_CACTVS_SUBSKEYS>
AAADceBwMAAAAAAAAAAAAAAAAAAAAAAAAAAgAAAAAAAAAAAAAAAAGgAAAAAADgSAgAICCAAABACAACBCAAAAAAAgAAAICAAAAAgQBAAAIAAgEAAAAAAIIAIAAAAAAAAAAAAAAAAAAAAAAAAAAAAAAAAAAA==

> <PUBCHEM_IUPAC_OPENEYE_NAME>
3,3-dimethoxy-6,6-dimethyl-cyclohexa-1,4-diene

> <PUBCHEM_IUPAC_CAS_NAME>
3,3-dimethoxy-6,6-dimethylcyclohexa-1,4-diene

> <PUBCHEM_IUPAC_NAME>
3,3-dimethoxy-6,6-dimethylcyclohexa-1,4-diene

> <PUBCHEM_IUPAC_SYSTEMATIC_NAME>
3,3-dimethoxy-6,6-dimethyl-cyclohexa-1,4-diene

> <PUBCHEM_IUPAC_TRADITIONAL_NAME>
3,3-dimethoxy-6,6-dimethyl-cyclohexa-1,4-diene

> <PUBCHEM_IUPAC_INCHI>
InChI=1S/C10H16O2/c1-9(2)5-7-10(11-3,12-4)8-6-9/h5-8H,1-4H3

> <PUBCHEM_IUPAC_INCHIKEY>
ATPPSHDTEWZOOM-UHFFFAOYSA-N

> <PUBCHEM_XLOGP3_AA>
2.2

> <PUBCHEM_EXACT_MASS>
168.11503

> <PUBCHEM_MOLECULAR_FORMULA>
C10H16O2

> <PUBCHEM_MOLECULAR_WEIGHT>
168.23284

> <PUBCHEM_OPENEYE_CAN_SMILES>
CC1(C=CC(C=C1)(OC)OC)C

> <PUBCHEM_OPENEYE_ISO_SMILES>
CC1(C=CC(C=C1)(OC)OC)C

> <PUBCHEM_CACTVS_TPSA>
18.5

> <PUBCHEM_MONOISOTOPIC_WEIGHT>
168.11503

> <PUBCHEM_TOTAL_CHARGE>
0

> <PUBCHEM_HEAVY_ATOM_COUNT>
12

> <PUBCHEM_ATOM_DEF_STEREO_COUNT>
0

> <PUBCHEM_ATOM_UDEF_STEREO_COUNT>
0

> <PUBCHEM_BOND_DEF_STEREO_COUNT>
0

> <PUBCHEM_BOND_UDEF_STEREO_COUNT>
0

> <PUBCHEM_ISOTOPIC_ATOM_COUNT>
0

> <PUBCHEM_COMPONENT_COUNT>
1

> <PUBCHEM_CACTVS_TAUTO_COUNT>
1

> <PUBCHEM_COORDINATE_TYPE>
1
5
255

$$$$

