10620
  -OEChem-06261204452D

 53 54  0     1  0  0  0  0  0999 V2000
    5.5000   -1.4330    0.0000 O   0  0  0  0  0  0  0  0  0  0  0  0
    7.0000    1.1651    0.0000 N   0  3  0  0  0  0  0  0  0  0  0  0
    6.1340    1.6651    0.0000 C   0  0  0  0  0  0  0  0  0  0  0  0
    7.8660    1.6651    0.0000 C   0  0  0  0  0  0  0  0  0  0  0  0
    6.5000    0.2990    0.0000 C   0  0  0  0  0  0  0  0  0  0  0  0
    6.1340    2.6651    0.0000 C   0  0  0  0  0  0  0  0  0  0  0  0
    7.8660    2.6651    0.0000 C   0  0  0  0  0  0  0  0  0  0  0  0
    7.0000    3.1651    0.0000 C   0  0  0  0  0  0  0  0  0  0  0  0
    5.5000    0.2990    0.0000 C   0  0  0  0  0  0  0  0  0  0  0  0
    7.5000    0.2990    0.0000 C   0  0  0  0  0  0  0  0  0  0  0  0
    5.0000   -0.5670    0.0000 C   0  0  3  0  0  0  0  0  0  0  0  0
    4.0000   -0.5670    0.0000 C   0  0  3  0  0  0  0  0  0  0  0  0
    3.5000    0.2990    0.0000 C   0  0  0  0  0  0  0  0  0  0  0  0
    3.5000   -1.4330    0.0000 C   0  0  0  0  0  0  0  0  0  0  0  0
    2.5000    0.2990    0.0000 C   0  0  0  0  0  0  0  0  0  0  0  0
    4.0000    1.1651    0.0000 C   0  0  0  0  0  0  0  0  0  0  0  0
    2.5000   -1.4330    0.0000 C   0  0  0  0  0  0  0  0  0  0  0  0
    4.0000   -2.2990    0.0000 C   0  0  0  0  0  0  0  0  0  0  0  0
    2.0000   -2.2990    0.0000 C   0  0  0  0  0  0  0  0  0  0  0  0
    3.5000   -3.1651    0.0000 C   0  0  0  0  0  0  0  0  0  0  0  0
    2.5000   -3.1651    0.0000 C   0  0  0  0  0  0  0  0  0  0  0  0
    5.5234    1.7727    0.0000 H   0  0  0  0  0  0  0  0  0  0  0  0
    5.9219    1.0824    0.0000 H   0  0  0  0  0  0  0  0  0  0  0  0
    8.0781    1.0824    0.0000 H   0  0  0  0  0  0  0  0  0  0  0  0
    8.4766    1.7727    0.0000 H   0  0  0  0  0  0  0  0  0  0  0  0
    6.3923   -0.3115    0.0000 H   0  0  0  0  0  0  0  0  0  0  0  0
    7.0826    0.0870    0.0000 H   0  0  0  0  0  0  0  0  0  0  0  0
    5.9219    3.2477    0.0000 H   0  0  0  0  0  0  0  0  0  0  0  0
    5.5234    2.5574    0.0000 H   0  0  0  0  0  0  0  0  0  0  0  0
    8.4766    2.5574    0.0000 H   0  0  0  0  0  0  0  0  0  0  0  0
    8.0781    3.2477    0.0000 H   0  0  0  0  0  0  0  0  0  0  0  0
    7.3985    3.6400    0.0000 H   0  0  0  0  0  0  0  0  0  0  0  0
    6.6015    3.6400    0.0000 H   0  0  0  0  0  0  0  0  0  0  0  0
    5.6077    0.9096    0.0000 H   0  0  0  0  0  0  0  0  0  0  0  0
    4.9174    0.5111    0.0000 H   0  0  0  0  0  0  0  0  0  0  0  0
    6.9631   -0.0110    0.0000 H   0  0  0  0  0  0  0  0  0  0  0  0
    7.8100   -0.2379    0.0000 H   0  0  0  0  0  0  0  0  0  0  0  0
    8.0369    0.6090    0.0000 H   0  0  0  0  0  0  0  0  0  0  0  0
    5.6200   -0.5670    0.0000 H   0  0  0  0  0  0  0  0  0  0  0  0
    3.3800   -0.5670    0.0000 H   0  0  0  0  0  0  0  0  0  0  0  0
    3.1900   -0.2379    0.0000 H   0  0  0  0  0  0  0  0  0  0  0  0
    6.1200   -1.4330    0.0000 H   0  0  0  0  0  0  0  0  0  0  0  0
    2.5000    0.9190    0.0000 H   0  0  0  0  0  0  0  0  0  0  0  0
    1.8800    0.2990    0.0000 H   0  0  0  0  0  0  0  0  0  0  0  0
    2.5000   -0.3210    0.0000 H   0  0  0  0  0  0  0  0  0  0  0  0
    4.5369    0.8551    0.0000 H   0  0  0  0  0  0  0  0  0  0  0  0
    4.3100    1.7020    0.0000 H   0  0  0  0  0  0  0  0  0  0  0  0
    3.4631    1.4751    0.0000 H   0  0  0  0  0  0  0  0  0  0  0  0
    2.1900   -0.8961    0.0000 H   0  0  0  0  0  0  0  0  0  0  0  0
    4.6200   -2.2990    0.0000 H   0  0  0  0  0  0  0  0  0  0  0  0
    1.3800   -2.2990    0.0000 H   0  0  0  0  0  0  0  0  0  0  0  0
    3.8100   -3.7020    0.0000 H   0  0  0  0  0  0  0  0  0  0  0  0
    2.1900   -3.7020    0.0000 H   0  0  0  0  0  0  0  0  0  0  0  0
  1 11  1  0  0  0  0
  1 42  1  0  0  0  0
  2  3  1  0  0  0  0
  2  4  1  0  0  0  0
  2  5  1  0  0  0  0
  2 10  1  0  0  0  0
  3  6  1  0  0  0  0
  3 22  1  0  0  0  0
  3 23  1  0  0  0  0
  4  7  1  0  0  0  0
  4 24  1  0  0  0  0
  4 25  1  0  0  0  0
  5  9  1  0  0  0  0
  5 26  1  0  0  0  0
  5 27  1  0  0  0  0
  6  8  1  0  0  0  0
  6 28  1  0  0  0  0
  6 29  1  0  0  0  0
  7  8  1  0  0  0  0
  7 30  1  0  0  0  0
  7 31  1  0  0  0  0
  8 32  1  0  0  0  0
  8 33  1  0  0  0  0
  9 11  1  0  0  0  0
  9 34  1  0  0  0  0
  9 35  1  0  0  0  0
 10 36  1  0  0  0  0
 10 37  1  0  0  0  0
 10 38  1  0  0  0  0
 11 12  1  0  0  0  0
 11 39  1  0  0  0  0
 12 13  1  0  0  0  0
 12 14  1  0  0  0  0
 12 40  1  0  0  0  0
 13 15  1  0  0  0  0
 13 16  1  0  0  0  0
 13 41  1  0  0  0  0
 14 17  2  0  0  0  0
 14 18  1  0  0  0  0
 15 43  1  0  0  0  0
 15 44  1  0  0  0  0
 15 45  1  0  0  0  0
 16 46  1  0  0  0  0
 16 47  1  0  0  0  0
 16 48  1  0  0  0  0
 17 19  1  0  0  0  0
 17 49  1  0  0  0  0
 18 20  2  0  0  0  0
 18 50  1  0  0  0  0
 19 21  2  0  0  0  0
 19 51  1  0  0  0  0
 20 21  1  0  0  0  0
 20 52  1  0  0  0  0
 21 53  1  0  0  0  0
M  CHG  1   2   1
M  END
> <PUBCHEM_COMPOUND_CID>
10620

> <PUBCHEM_COMPOUND_CANONICALIZED>
1

> <PUBCHEM_CACTVS_COMPLEXITY>
290

> <PUBCHEM_CACTVS_HBOND_ACCEPTOR>
1

> <PUBCHEM_CACTVS_HBOND_DONOR>
1

> <PUBCHEM_CACTVS_ROTATABLE_BOND>
6

> <PUBCHEM_CACTVS_SUBSKEYS>
AAADcfB6IAAAAAAAAAAAAAAAAAAAAAAAAAA8QAAAAAAAAAABAAAAHgAACAAADRThmAYyAIMAAgCAAiBCAAACAAAgAAAIiAAIAIgIMCKAkRCEYAAmwAGIiAeQwOAOgAAAAAAAAAAAAAAAAAAAAAAAAAAAAA==

> <PUBCHEM_IUPAC_OPENEYE_NAME>
5-methyl-1-(1-methylpiperidin-1-ium-1-yl)-4-phenyl-hexan-3-ol

> <PUBCHEM_IUPAC_CAS_NAME>
5-methyl-1-(1-methyl-1-piperidin-1-iumyl)-4-phenyl-3-hexanol

> <PUBCHEM_IUPAC_NAME>
5-methyl-1-(1-methylpiperidin-1-ium-1-yl)-4-phenylhexan-3-ol

> <PUBCHEM_IUPAC_SYSTEMATIC_NAME>
5-methyl-1-(1-methylpiperidin-1-ium-1-yl)-4-phenyl-hexan-3-ol

> <PUBCHEM_IUPAC_TRADITIONAL_NAME>
5-methyl-1-(1-methylpiperidin-1-ium-1-yl)-4-phenyl-hexan-3-ol

> <PUBCHEM_IUPAC_INCHI>
InChI=1S/C19H32NO/c1-16(2)19(17-10-6-4-7-11-17)18(21)12-15-20(3)13-8-5-9-14-20/h4,6-7,10-11,16,18-19,21H,5,8-9,12-15H2,1-3H3/q+1

> <PUBCHEM_IUPAC_INCHIKEY>
SMOSFFGOYXWICC-UHFFFAOYSA-N

> <PUBCHEM_XLOGP3_AA>
3.9

> <PUBCHEM_EXACT_MASS>
290.24839

> <PUBCHEM_MOLECULAR_FORMULA>
C19H32NO+

> <PUBCHEM_MOLECULAR_WEIGHT>
290.46348

> <PUBCHEM_OPENEYE_CAN_SMILES>
CC(C)C(C1=CC=CC=C1)C(CC[N+]2(CCCCC2)C)O

> <PUBCHEM_OPENEYE_ISO_SMILES>
CC(C)C(C1=CC=CC=C1)C(CC[N+]2(CCCCC2)C)O

> <PUBCHEM_CACTVS_TPSA>
20.2

> <PUBCHEM_MONOISOTOPIC_WEIGHT>
290.24839

> <PUBCHEM_TOTAL_CHARGE>
1

> <PUBCHEM_HEAVY_ATOM_COUNT>
21

> <PUBCHEM_ATOM_DEF_STEREO_COUNT>
0

> <PUBCHEM_ATOM_UDEF_STEREO_COUNT>
2

> <PUBCHEM_BOND_DEF_STEREO_COUNT>
0

> <PUBCHEM_BOND_UDEF_STEREO_COUNT>
0

> <PUBCHEM_ISOTOPIC_ATOM_COUNT>
0

> <PUBCHEM_COMPONENT_COUNT>
1

> <PUBCHEM_CACTVS_TAUTO_COUNT>
1

> <PUBCHEM_COORDINATE_TYPE>
1
5
255

> <PUBCHEM_BONDANNOTATIONS>
11  1  3
12  13  3
14  17  8
14  18  8
17  19  8
18  20  8
19  21  8
20  21  8

$$$$

