5462443
  -OEChem-07051212582D

 40 43  0     1  0  0  0  0  0999 V2000
    4.6500   -1.3095    0.0000 N   0  0  0  0  0  0  0  0  0  0  0  0
    2.9061    1.7667    0.0000 N   0  0  0  0  0  0  0  0  0  0  0  0
    4.6660   -0.2680    0.0000 C   0  0  1  0  0  0  0  0  0  0  0  0
    5.5321    0.2320    0.0000 C   0  0  1  0  0  0  0  0  0  0  0  0
    5.5321    1.2320    0.0000 C   0  0  1  0  0  0  0  0  0  0  0  0
    4.4629    0.1019    0.0000 C   0  0  0  0  0  0  0  0  0  0  0  0
    5.1102    1.2229    0.0000 C   0  0  0  0  0  0  0  0  0  0  0  0
    4.3793    0.8976    0.0000 C   0  0  1  0  0  0  0  0  0  0  0  0
    6.4421   -0.2748    0.0000 C   0  0  0  0  0  0  0  0  0  0  0  0
    4.6660    1.7320    0.0000 C   0  0  0  0  0  0  0  0  0  0  0  0
    3.8000    0.2320    0.0000 C   0  0  0  0  0  0  0  0  0  0  0  0
    6.4501   -1.3164    0.0000 C   0  0  0  0  0  0  0  0  0  0  0  0
    3.8000    1.2320    0.0000 C   0  0  0  0  0  0  0  0  0  0  0  0
    5.5480   -1.8372    0.0000 C   0  0  0  0  0  0  0  0  0  0  0  0
    4.0373    1.8372    0.0000 C   0  0  0  0  0  0  0  0  0  0  0  0
    2.9061   -0.3026    0.0000 C   0  0  0  0  0  0  0  0  0  0  0  0
    2.0000    0.2112    0.0000 C   0  0  0  0  0  0  0  0  0  0  0  0
    2.0000    1.2528    0.0000 C   0  0  0  0  0  0  0  0  0  0  0  0
    6.2682    0.6570    0.0000 H   0  0  0  0  0  0  0  0  0  0  0  0
    5.9571    1.9681    0.0000 H   0  0  0  0  0  0  0  0  0  0  0  0
    3.8682    0.2771    0.0000 H   0  0  0  0  0  0  0  0  0  0  0  0
    5.0546    0.2872    0.0000 H   0  0  0  0  0  0  0  0  0  0  0  0
    5.3341    1.8011    0.0000 H   0  0  0  0  0  0  0  0  0  0  0  0
    5.2456    0.6179    0.0000 H   0  0  0  0  0  0  0  0  0  0  0  0
    3.7752    0.7581    0.0000 H   0  0  0  0  0  0  0  0  0  0  0  0
    7.0537   -0.3762    0.0000 H   0  0  0  0  0  0  0  0  0  0  0  0
    6.6466    0.3105    0.0000 H   0  0  0  0  0  0  0  0  0  0  0  0
    5.0646    2.2070    0.0000 H   0  0  0  0  0  0  0  0  0  0  0  0
    4.2675    2.2070    0.0000 H   0  0  0  0  0  0  0  0  0  0  0  0
    4.1095   -1.6133    0.0000 H   0  0  0  0  0  0  0  0  0  0  0  0
    6.6636   -1.8985    0.0000 H   0  0  0  0  0  0  0  0  0  0  0  0
    7.0601   -1.2056    0.0000 H   0  0  0  0  0  0  0  0  0  0  0  0
    5.1470   -2.3101    0.0000 H   0  0  0  0  0  0  0  0  0  0  0  0
    5.9453   -2.3132    0.0000 H   0  0  0  0  0  0  0  0  0  0  0  0
    4.6199    2.0493    0.0000 H   0  0  0  0  0  0  0  0  0  0  0  0
    3.8252    2.4198    0.0000 H   0  0  0  0  0  0  0  0  0  0  0  0
    3.4547    1.6252    0.0000 H   0  0  0  0  0  0  0  0  0  0  0  0
    2.9132   -0.9226    0.0000 H   0  0  0  0  0  0  0  0  0  0  0  0
    1.4643   -0.1009    0.0000 H   0  0  0  0  0  0  0  0  0  0  0  0
    1.4643    1.5649    0.0000 H   0  0  0  0  0  0  0  0  0  0  0  0
  3  1  1  6  0  0  0
  1 14  1  0  0  0  0
  1 30  1  0  0  0  0
  2 13  1  0  0  0  0
  2 18  2  0  0  0  0
  3  4  1  0  0  0  0
  3  6  1  0  0  0  0
  3 11  1  0  0  0  0
  4  5  1  0  0  0  0
  4  9  1  0  0  0  0
  4 19  1  6  0  0  0
  5  7  1  0  0  0  0
  5 10  1  0  0  0  0
  5 20  1  6  0  0  0
  6  8  1  0  0  0  0
  6 21  1  0  0  0  0
  6 22  1  0  0  0  0
  7  8  1  0  0  0  0
  7 23  1  0  0  0  0
  7 24  1  0  0  0  0
  8 15  1  6  0  0  0
  8 25  1  0  0  0  0
  9 12  1  0  0  0  0
  9 26  1  0  0  0  0
  9 27  1  0  0  0  0
 10 13  1  0  0  0  0
 10 28  1  0  0  0  0
 10 29  1  0  0  0  0
 11 13  2  0  0  0  0
 11 16  1  0  0  0  0
 12 14  1  0  0  0  0
 12 31  1  0  0  0  0
 12 32  1  0  0  0  0
 14 33  1  0  0  0  0
 14 34  1  0  0  0  0
 15 35  1  0  0  0  0
 15 36  1  0  0  0  0
 15 37  1  0  0  0  0
 16 17  2  0  0  0  0
 16 38  1  0  0  0  0
 17 18  1  0  0  0  0
 17 39  1  0  0  0  0
 18 40  1  0  0  0  0
M  END
> <PUBCHEM_COMPOUND_CID>
5462443

> <PUBCHEM_COMPOUND_CANONICALIZED>
1

> <PUBCHEM_CACTVS_COMPLEXITY>
329

> <PUBCHEM_CACTVS_HBOND_ACCEPTOR>
2

> <PUBCHEM_CACTVS_HBOND_DONOR>
1

> <PUBCHEM_CACTVS_ROTATABLE_BOND>
0

> <PUBCHEM_CACTVS_SUBSKEYS>
AAADceB7AAAAAAAAAAAAAAAAAAAAAAAAAAA8eIEAAAAYAACxgAAAHAAQAAAADYjBHgQ+gJLIEACgAzRnRACCgCAxAiAI2KA4ZJgIIOLA0ZGEIAhgkADIyAcQgMAOgAAAAAAAAACQAASACCQAAAAAAAAAAA==

> <PUBCHEM_IUPAC_INCHI>
InChI=1S/C16H22N2/c1-11-8-12-9-15-14(5-2-6-17-15)16(10-11)13(12)4-3-7-18-16/h2,5-6,11-13,18H,3-4,7-10H2,1H3/t11-,12+,13-,16-/m1/s1

> <PUBCHEM_IUPAC_INCHIKEY>
JJPMUZRSJKMFRK-OQMKEHIESA-N

> <PUBCHEM_XLOGP3_AA>
2.6

> <PUBCHEM_EXACT_MASS>
242.178299

> <PUBCHEM_MOLECULAR_FORMULA>
C16H22N2

> <PUBCHEM_MOLECULAR_WEIGHT>
242.35928

> <PUBCHEM_OPENEYE_CAN_SMILES>
CC1CC2CC3=C(C=CC=N3)C4(C1)C2CCCN4

> <PUBCHEM_OPENEYE_ISO_SMILES>
C[C@@H]1C[C@H]2CC3=C(C=CC=N3)[C@@]4(C1)[C@@H]2CCCN4

> <PUBCHEM_CACTVS_TPSA>
24.9

> <PUBCHEM_MONOISOTOPIC_WEIGHT>
242.178299

> <PUBCHEM_TOTAL_CHARGE>
0

> <PUBCHEM_HEAVY_ATOM_COUNT>
18

> <PUBCHEM_ATOM_DEF_STEREO_COUNT>
4

> <PUBCHEM_ATOM_UDEF_STEREO_COUNT>
0

> <PUBCHEM_BOND_DEF_STEREO_COUNT>
0

> <PUBCHEM_BOND_UDEF_STEREO_COUNT>
0

> <PUBCHEM_ISOTOPIC_ATOM_COUNT>
0

> <PUBCHEM_COMPONENT_COUNT>
1

> <PUBCHEM_CACTVS_TAUTO_COUNT>
1

> <PUBCHEM_COORDINATE_TYPE>
1
5
255

> <PUBCHEM_BONDANNOTATIONS>
3  1  6
11  13  8
11  16  8
16  17  8
17  18  8
2  13  8
2  18  8
4  19  6
5  20  6
8  15  6

$$$$

