   Color/Form

     * Leaflets on distillation in-vacuo; plates, tablets from petroleum
       ether
     * Shiny, white plate crystals

   from [1]HSDB

   Odor

     * Floral odor
     * Has a sweet honey-like odor when diluted; the odor of the
       concentrated solution is suffocating and unpleasant.

   from [2]HSDB

   Boiling Point
        265.5 deg at 760 mm Hg
   from [3]HSDB

   Melting Point
        76.5 deg C
   from [4]HSDB

   Density/Specific Gravity
        1.091 at 77 deg C/4 deg C
   from [5]HSDB

   Dissociation Constants
        pKa = 4.31 (at pH 5 10% free acid; at pH 7 0.1% free acid)
   from [6]HSDB

   Octanol/Water Partition Coefficient
        log Kow = 1.41
   from [7]HSDB

   Solubilities

     * Slightly sol in cold water, freely in hot water; sol in alcohol and
       ether; 4.422 moles/L in chloroform at 25 deg C; 1.842 moles/L in
       carbon tetrachloride at 25 deg C; 4.513 moles/L in acetylene
       tetrachloride at 25 deg C; 3.29 moles/L in trichlorethylene at 25
       deg C; 1.558 moles/L in tetrachlorethylene at 25 deg C; 3.252
       moles/L in pentachloroethane at 25 deg C
     * Very soluble in ethanol, ethyl ether, carbon disulfide; soluble in
       acetone; slightly soluble in chloroform; insoluble in ligroin
     * In water, 1.66X10+4 mg/L at 20 deg C

   from [8]HSDB

   Spectral Properties

     * MAX ABSORPTION (ALCOHOL): 247.5, 258.5 & 267.5 NM (SHOULDER) (LOG
       E= 2.05, 2.26 & 1.85); SADTLER REFERENCE NUMBER: 1655 (IR, PRISM);
       474 (UV); 117 (NMR)
     * MASS: 21060 (NIST/EPA/MSDC Mass Spectral database, 1990 version)
     * IR: 320 (Coblentz Society spectral collection)
     * UV: 474 (Sadtler Research Laboratories spectral collection)
     * Raman: 806 (Sadtler Research Laboratories spectral collection)
     * 1H NMR: 117 (Sadtler Research Laboratories spectral collection)

   from [9]HSDB

   Vapor Pressure
        3.8X10-3 mm Hg at 25 deg C (extrapolated)
   from [10]HSDB

   Other Chemical/Physical Properties

     * Aq soln saturated at 25 deg C is 0.131N
     * Henry's Law constant = 4.10X10-8 atm-cu m/mol at 25 deg C (est)
     * Hydroxyl radical reaction rate constant = 4.45X10-12 cu
       cm/molec-sec at 25 deg C (est)
     * Liquid, BP: 215 deg C /Methyl/
     * Liquid. Pleasant odor. Density: 1.033 at 20 deg C/4 deg C. BP: 226
       deg C at 760 mm Hg, 135 deg C at 32 mm Hg, 121 deg C at 20 mm Hg.
       Index of refraction: 1.49921 at 18.5 deg C/D /Ethyl/

   from [11]HSDB

   Computed Properties
   Molecular Weight                  136.14792 [g/mol]
   Molecular Formula                 C[8]H[8]O[2]
   XLogP3                            1.4
   H-Bond Donor                      1
   H-Bond Acceptor                   2
   Rotatable Bond Count              2
   Exact Mass                        136.052429
   MonoIsotopic Mass                 136.052429
   Topological Polar Surface Area    37.3
   Heavy Atom Count                  10
   Formal Charge                     0
   Complexity                        114
   Isotope Atom Count                0
   Defined Atom Stereocenter Count   0
   Undefined Atom Stereocenter Count 0
   Defined Bond Stereocenter Count   0
   Undefined Bond Stereocenter Count 0
   Covalently-Bonded Unit Count      1
   Feature 3D Acceptor Count         2
   Feature 3D Anion Count            1
   Feature 3D Ring Count             1
   Effective Rotor Count             2
   Conformer Sampling RMSD           0.4
   CID Conformer Count               [12]9

References

   1. http://toxnet.nlm.nih.gov/cgi-bin/sis/search/r?dbs+hsdb:@term+@rn+@rel+103-82-2
   2. http://toxnet.nlm.nih.gov/cgi-bin/sis/search/r?dbs+hsdb:@term+@rn+@rel+103-82-2
   3. http://toxnet.nlm.nih.gov/cgi-bin/sis/search/r?dbs+hsdb:@term+@rn+@rel+103-82-2
   4. http://toxnet.nlm.nih.gov/cgi-bin/sis/search/r?dbs+hsdb:@term+@rn+@rel+103-82-2
   5. http://toxnet.nlm.nih.gov/cgi-bin/sis/search/r?dbs+hsdb:@term+@rn+@rel+103-82-2
   6. http://toxnet.nlm.nih.gov/cgi-bin/sis/search/r?dbs+hsdb:@term+@rn+@rel+103-82-2
   7. http://toxnet.nlm.nih.gov/cgi-bin/sis/search/r?dbs+hsdb:@term+@rn+@rel+103-82-2
   8. http://toxnet.nlm.nih.gov/cgi-bin/sis/search/r?dbs+hsdb:@term+@rn+@rel+103-82-2
   9. http://toxnet.nlm.nih.gov/cgi-bin/sis/search/r?dbs+hsdb:@term+@rn+@rel+103-82-2
  10. http://toxnet.nlm.nih.gov/cgi-bin/sis/search/r?dbs+hsdb:@term+@rn+@rel+103-82-2
  11. http://toxnet.nlm.nih.gov/cgi-bin/sis/search/r?dbs+hsdb:@term+@rn+@rel+103-82-2
  12. http://pubchem.ncbi.nlm.nih.gov/vw3d/vw3d.cgi?cid=999
