38251
  -OEChem-07051213112D

 22 24  0     0  0  0  0  0  0999 V2000
    7.2785   -2.0346    0.0000 Cl  0  0  0  0  0  0  0  0  0  0  0  0
    7.2785    2.0346    0.0000 Cl  0  0  0  0  0  0  0  0  0  0  0  0
    9.0602   -1.0241    0.0000 Cl  0  0  0  0  0  0  0  0  0  0  0  0
    9.0602    1.0241    0.0000 Cl  0  0  0  0  0  0  0  0  0  0  0  0
    2.0000    1.0241    0.0000 Cl  0  0  0  0  0  0  0  0  0  0  0  0
    2.0000   -1.0241    0.0000 Cl  0  0  0  0  0  0  0  0  0  0  0  0
    5.5301    1.0000    0.0000 O   0  0  0  0  0  0  0  0  0  0  0  0
    5.5301   -1.0000    0.0000 O   0  0  0  0  0  0  0  0  0  0  0  0
    6.3961    0.5000    0.0000 C   0  0  0  0  0  0  0  0  0  0  0  0
    6.3961   -0.5000    0.0000 C   0  0  0  0  0  0  0  0  0  0  0  0
    4.6641   -0.5000    0.0000 C   0  0  0  0  0  0  0  0  0  0  0  0
    4.6641    0.5000    0.0000 C   0  0  0  0  0  0  0  0  0  0  0  0
    7.2901    1.0347    0.0000 C   0  0  0  0  0  0  0  0  0  0  0  0
    7.2901   -1.0347    0.0000 C   0  0  0  0  0  0  0  0  0  0  0  0
    3.7702   -1.0347    0.0000 C   0  0  0  0  0  0  0  0  0  0  0  0
    3.7702    1.0347    0.0000 C   0  0  0  0  0  0  0  0  0  0  0  0
    8.1962    0.5208    0.0000 C   0  0  0  0  0  0  0  0  0  0  0  0
    8.1962   -0.5208    0.0000 C   0  0  0  0  0  0  0  0  0  0  0  0
    2.8641    0.5208    0.0000 C   0  0  0  0  0  0  0  0  0  0  0  0
    2.8641   -0.5208    0.0000 C   0  0  0  0  0  0  0  0  0  0  0  0
    3.7773    1.6546    0.0000 H   0  0  0  0  0  0  0  0  0  0  0  0
    3.7773   -1.6546    0.0000 H   0  0  0  0  0  0  0  0  0  0  0  0
  1 14  1  0  0  0  0
  2 13  1  0  0  0  0
  3 18  1  0  0  0  0
  4 17  1  0  0  0  0
  5 19  1  0  0  0  0
  6 20  1  0  0  0  0
  7  9  1  0  0  0  0
  7 12  1  0  0  0  0
  8 10  1  0  0  0  0
  8 11  1  0  0  0  0
  9 10  2  0  0  0  0
  9 13  1  0  0  0  0
 10 14  1  0  0  0  0
 11 12  1  0  0  0  0
 11 15  2  0  0  0  0
 12 16  2  0  0  0  0
 13 17  2  0  0  0  0
 14 18  2  0  0  0  0
 15 20  1  0  0  0  0
 15 22  1  0  0  0  0
 16 19  1  0  0  0  0
 16 21  1  0  0  0  0
 17 18  1  0  0  0  0
 19 20  2  0  0  0  0
M  END
> <PUBCHEM_COMPOUND_CID>
38251

> <PUBCHEM_COMPOUND_CANONICALIZED>
1

> <PUBCHEM_CACTVS_COMPLEXITY>
338

> <PUBCHEM_CACTVS_HBOND_ACCEPTOR>
2

> <PUBCHEM_CACTVS_HBOND_DONOR>
0

> <PUBCHEM_CACTVS_ROTATABLE_BOND>
0

> <PUBCHEM_CACTVS_SUBSKEYS>
AAADcQBwMAAHAAAAAAAAAAAAAAAAAAAAAAA0YIAAAAAAAACRQAAAGgIAAAAACAaAkCAwBoAABACAACBCAAACCAAgJUAAikAGi4gNJiOFMhqCOCKkwBEKqAeAQAAAACAQAQCASAQAQCACAQCQCAAAAAAAAA==

> <PUBCHEM_IUPAC_OPENEYE_NAME>
1,2,3,4,7,8-hexachlorodibenzo-p-dioxin

> <PUBCHEM_IUPAC_CAS_NAME>
1,2,3,4,7,8-hexachlorodibenzo-p-dioxin

> <PUBCHEM_IUPAC_NAME>
1,2,3,4,7,8-hexachlorodibenzo-p-dioxin

> <PUBCHEM_IUPAC_SYSTEMATIC_NAME>
1,2,3,4,7,8-hexakis(chloranyl)dibenzo-p-dioxin

> <PUBCHEM_IUPAC_TRADITIONAL_NAME>
1,2,3,4,7,8-hexachlorodibenzo-p-dioxin

> <PUBCHEM_IUPAC_INCHI>
InChI=1S/C12H2Cl6O2/c13-3-1-5-6(2-4(3)14)20-12-10(18)8(16)7(15)9(17)11(12)19-5/h1-2H

> <PUBCHEM_IUPAC_INCHIKEY>
WCYYQNSQJHPVMG-UHFFFAOYSA-N

> <PUBCHEM_XLOGP3>
8.4

> <PUBCHEM_EXACT_MASS>
389.815645

> <PUBCHEM_MOLECULAR_FORMULA>
C12H2Cl6O2

> <PUBCHEM_MOLECULAR_WEIGHT>
390.86108

> <PUBCHEM_OPENEYE_CAN_SMILES>
C1=C2C(=CC(=C1Cl)Cl)OC3=C(O2)C(=C(C(=C3Cl)Cl)Cl)Cl

> <PUBCHEM_OPENEYE_ISO_SMILES>
C1=C2C(=CC(=C1Cl)Cl)OC3=C(O2)C(=C(C(=C3Cl)Cl)Cl)Cl

> <PUBCHEM_CACTVS_TPSA>
18.5

> <PUBCHEM_MONOISOTOPIC_WEIGHT>
387.818595

> <PUBCHEM_TOTAL_CHARGE>
0

> <PUBCHEM_HEAVY_ATOM_COUNT>
20

> <PUBCHEM_ATOM_DEF_STEREO_COUNT>
0

> <PUBCHEM_ATOM_UDEF_STEREO_COUNT>
0

> <PUBCHEM_BOND_DEF_STEREO_COUNT>
0

> <PUBCHEM_BOND_UDEF_STEREO_COUNT>
0

> <PUBCHEM_ISOTOPIC_ATOM_COUNT>
0

> <PUBCHEM_COMPONENT_COUNT>
1

> <PUBCHEM_CACTVS_TAUTO_COUNT>
1

> <PUBCHEM_COORDINATE_TYPE>
1
5
255

> <PUBCHEM_BONDANNOTATIONS>
10  14  8
11  12  8
11  15  8
12  16  8
13  17  8
14  18  8
15  20  8
16  19  8
17  18  8
19  20  8
9  10  8
9  13  8

$$$$

