   Color/Form

     * MINUTE CRYSTALS FROM ALC
     * WHITE, OR NEARLY WHITE, BULKY POWDER
     * NEEDLES, PLATES FROM ALC-ETHER
     * A reddish-brown crystalline powder is obtained on recrystallization
       from ethanol-ether.

   from [1]HSDB

   Odor
        ODORLESS, OR HAS SLIGHT ACETOUS ODOR
   from [2]HSDB

   Melting Point
        150-151 deg C, with effervescence
   from [3]HSDB

   Dissociation Constants
        PKA: 3.25
   from [4]HSDB

   Octanol/Water Partition Coefficient
        LogP= 1.32
   from [5]HSDB

   pH
        PH (SATURATED AQ SOLN): BETWEEN 3 & 3.7
   from [6]HSDB

   Solubilities

     * SOL IN DILUTE NITRIC ACID & DILUTE SODIUM HYDROXIDE
     * Virtually insoluble in benzene, choroform, or carbon tetrachloride
     * 1 G SOL IN ABOUT 500 ML WATER, IN 21 ML ALC; SLIGHTLY SOL IN ETHER;
       PRACTICALLY INSOL IN BENZENE
     * In water= 1.69X10+3 mg/l at 23 deg C
     * Soluble in acetone

   from [7]HSDB

   Spectral Properties

     * MAX ABSORPTION (ALC): 237 NM (LOG E= 3.89); 279 NM (LOG E= 4.09);
       305 NM (LOG E= 4.12)
     * MAX ABSORPTION (0.1 N HCL): 265, 300 NM
     * IR: 8560 (Sadtler Research Laboratories IR Grating Collection)
     * UV: 3162 (Sadtler Research Laboratories Spectral Collection)
     * NMR: 3244 (Sadtler Research Laboratories Spectral Collection)
     * MASS: 108 (Aldermaston, Eight Peak Index of Mass Spectra, UK)

   from [8]HSDB

   Other Chemical/Physical Properties

     * PH OF 0.1% AQ SOLN: 3.5
     * CRYSTALS; DECOMP @ 224 DEG C /HYDROCHLORIDE/
     * NEEDLES FROM ALC; MP: 115 DEG C /ETHYL ESTER/
     * WHITE TO CREAM-COLORED CRYSTALS OR POWDER; ODORLESS, & HAS
       ALKALINE, SLIGHTLY BITTER TASTE /CALCIUM SALT/
     * 1 G SOL IN ABOUT 7 ML WATER; SLIGHTLY SOL IN ALC /CALCIUM SALT/
     * PH OF 1% SOLN: ABOUT 7; FREELY SOL IN WATER /POTASSIUM SALT/
     * WHITE TO CREAM-COLORED, CRYSTALLINE POWDER; PRACTICALLY ODORLESS &
       HAS SALINE TASTE /POTASSIUM SALT/
     * WHITE TO CREAM-COLORED, CRYSTALLINE POWDER; PRACTICALLY ODORLESS;
       TASTE, SWEET & SALINE; PH (AQ 1:50 SOLN): BETWEEN 6.5 & 8.5 /SODIUM
       SALT/
     * PRACTICALLY INSOL IN ETHER, CHLOROFORM, BENZENE; VERY SPARINGLY SOL
       IN ACETONE; 1 G SOL IN 2 ML WATER /SODIUM SALT, DIHYDRATE/
     * At temps above 40 deg C, aq solns of p-aminosalicylic acid and its
       hydrochloride are readily decarboxylated to give brown solns
       consisting mainly of m-aminophenol.
     * Water solutions decompose with evolution of carbon dioxide;
       affected by light and air.

   from [9]HSDB

   Computed Properties
   Molecular Weight                  153.13538 [g/mol]
   Molecular Formula                 C[7]H[7]NO[3]
   XLogP3                            1.3
   H-Bond Donor                      3
   H-Bond Acceptor                   4
   Rotatable Bond Count              1
   Tautomer Count                    12
   Exact Mass                        153.042593
   MonoIsotopic Mass                 153.042593
   Topological Polar Surface Area    83.6
   Heavy Atom Count                  11
   Formal Charge                     0
   Complexity                        160
   Isotope Atom Count                0
   Defined Atom Stereocenter Count   0
   Undefined Atom Stereocenter Count 0
   Defined Bond Stereocenter Count   0
   Undefined Bond Stereocenter Count 0
   Covalently-Bonded Unit Count      1
   Feature 3D Acceptor Count         2
   Feature 3D Donor Count            2
   Feature 3D Anion Count            1
   Feature 3D Cation Count           1
   Feature 3D Ring Count             1
   Effective Rotor Count             1
   Conformer Sampling RMSD           0.4
   CID Conformer Count               [10]3

References

   1. http://toxnet.nlm.nih.gov/cgi-bin/sis/search/r?dbs+hsdb:@term+@rn+@rel+65-49-6
   2. http://toxnet.nlm.nih.gov/cgi-bin/sis/search/r?dbs+hsdb:@term+@rn+@rel+65-49-6
   3. http://toxnet.nlm.nih.gov/cgi-bin/sis/search/r?dbs+hsdb:@term+@rn+@rel+65-49-6
   4. http://toxnet.nlm.nih.gov/cgi-bin/sis/search/r?dbs+hsdb:@term+@rn+@rel+65-49-6
   5. http://toxnet.nlm.nih.gov/cgi-bin/sis/search/r?dbs+hsdb:@term+@rn+@rel+65-49-6
   6. http://toxnet.nlm.nih.gov/cgi-bin/sis/search/r?dbs+hsdb:@term+@rn+@rel+65-49-6
   7. http://toxnet.nlm.nih.gov/cgi-bin/sis/search/r?dbs+hsdb:@term+@rn+@rel+65-49-6
   8. http://toxnet.nlm.nih.gov/cgi-bin/sis/search/r?dbs+hsdb:@term+@rn+@rel+65-49-6
   9. http://toxnet.nlm.nih.gov/cgi-bin/sis/search/r?dbs+hsdb:@term+@rn+@rel+65-49-6
  10. http://pubchem.ncbi.nlm.nih.gov/vw3d/vw3d.cgi?cid=4649
