   Color/Form

     * Hydrated crystals from water
     * Crystals from water
     * White or slightly yellow crystals or powder

   from [1]HSDB

   Odor
        Odorless
   from [2]HSDB

   Taste
        Bitter
   from [3]HSDB

   Melting Point
        191 deg C
   from [4]HSDB

   Dissociation Constants
        pKa = 8.9 [McFarland JW et al; J Med Chem 40: 1340-6 (1997)]
   [5]PubMed Abstract
   from [6]HSDB

   Octanol/Water Partition Coefficient
        log Kow = 3.06 [McFarland JW et al; J Med Chem 40: 1340-6 (1997)]
   [7]PubMed Abstract
   from [8]HSDB

   pH
        pH (saturated solution): 8 to 10.5; pH <4 is destructive
   from [9]HSDB

   Solubilities

     * Very soluble in acetone, ethyl ether, ethanol, chloroform
     * Freely soluble in alcohols, acetone, chloroform, acetonitrile,
       ethyl acetate; moderately soluble in ether, ethylene dichloride,
       amyl acetate
     * Solubility in water: approx 2 mg/ML
     * In water, 4.2 mg/L at 25 deg C (est)

   from [10]HSDB

   Spectral Properties

     * Specific optical rotation: -78 deg at 25 deg C/D (c = 1.99 in
       ethanol)
     * UV max absorption (pH 6.3): 280 nm (epsilon = 50)
     * Alcoholic solution is levorotatory
     * IR: 2:363G (Aldrich Library of Infrared Spectra, Aldrich Chemical
       Co, Milwaukee, WI)
     * MASS: 3886 (National Bureau of Standards EPA-NIH Mass Spectra Data
       Base, NSRDS-NBS-63)

   from [11]HSDB

   Vapor Pressure
        2.12X10-25 mm Hg at 25 deg C (est)
   from [12]HSDB

   Other Chemical/Physical Properties

     * Slightly hygroscopic
     * Erythromycins A and B contain the same sugar moieties, desosamine
       and cladinose (3-O-methylmycarose). They differ in position 12 of
       the aglycone, erythonolide, A having the hydrpxylsubstituent.
       Component C contains desoamine and the same aglycone present in A
       but differs by the presence of mycarose instead of cladinose.
     * After melting /at 135-140 deg C, it/ resolidifies with second
       melting point 190-193 deg C. ... Readily forms salts with acids
     * Crystals. Slightly bitter. MW 1018.40. /Erythromycin stearate/
     * MP: 92 deg C. Slightly soluble in ethanol, ethyl ether, chloroform;
       insoluble in water. /Erythromycin stearate/
     * WHITE OR SLIGHTLY YELLOW CRYSTALS OR POWDER, PRACTICALLY ODORLESS.
       SOLN IS ALKALINE TO LITMUS. SOL IN METHANOL, CHLOROFORM.
       /Erythromycin stearate/
     * ALCOHOLIC SOLN ARE LEVOROTATORY /Erythromycin stearate/
     * Hydrated crystals from acetone + water, mp 106-110 deg C. Specific
       optical rotation = -42.5 deg C at 25 deg C/D /Erythromycin ethyl
       succinate/
     * Crystals from acetone aqueous. MP: 222 deg C. MW: 862.05.
       /Erythromycin ethyl succinate/
     * WHITE OR SLIGHTLY YELLOW, CRYSTALLINE POWDER. ODORLESS OR
       PRACTICALLY SO. PRACTICALLY TASTELESS. PKA 7. FREELY SOL IN ACETONE
       & CHLOROFORM; SOL IN 95% ETHANOL & BENZENE; SPARINGLY SOL IN ETHER;
       VERY SLIGHTLY SOL IN WATER. /Erythromycin ethyl succinate/
     * FREELY SOLUBLE IN ALC, SOL IN POLYETHYLENE GLYCOL /Erythromycin
       ethyl succinate
     * INDEX OF REFRACTION: 1.490 (ALPHA), 1.515 (BETA), 1.567 (GAMMA)
       /Erythromycin ethyl succinate/
     * Hydroxyl radical reaction rate constant = 4.0X10-10 cu cm/molec-sec
       at 25 deg C (est)

   from [13]HSDB

   Computed Properties
   Molecular Weight                  733.92678 [g/mol]
   Molecular Formula                 C[37]H[67]NO[13]
   XLogP3                            2.7
   H-Bond Donor                      5
   H-Bond Acceptor                   14
   Rotatable Bond Count              7
   Tautomer Count                    6
   Exact Mass                        733.461241
   MonoIsotopic Mass                 733.461241
   Topological Polar Surface Area    194
   Heavy Atom Count                  51
   Formal Charge                     0
   Complexity                        1180
   Isotope Atom Count                0
   Defined Atom Stereocenter Count   18
   Undefined Atom Stereocenter Count 0
   Defined Bond Stereocenter Count   0
   Undefined Bond Stereocenter Count 0
   Covalently-Bonded Unit Count      1

References

   1. http://toxnet.nlm.nih.gov/cgi-bin/sis/search/r?dbs+hsdb:@term+@rn+@rel+114-07-8
   2. http://toxnet.nlm.nih.gov/cgi-bin/sis/search/r?dbs+hsdb:@term+@rn+@rel+114-07-8
   3. http://toxnet.nlm.nih.gov/cgi-bin/sis/search/r?dbs+hsdb:@term+@rn+@rel+114-07-8
   4. http://toxnet.nlm.nih.gov/cgi-bin/sis/search/r?dbs+hsdb:@term+@rn+@rel+114-07-8
   5. http://www.ncbi.nlm.nih.gov/entrez/query.fcgi?cmd=Retrieve&db=pubmed&dopt=Abstract&list_uids=9135031
   6. http://toxnet.nlm.nih.gov/cgi-bin/sis/search/r?dbs+hsdb:@term+@rn+@rel+114-07-8
   7. http://www.ncbi.nlm.nih.gov/entrez/query.fcgi?cmd=Retrieve&db=pubmed&dopt=Abstract&list_uids=9135031
   8. http://toxnet.nlm.nih.gov/cgi-bin/sis/search/r?dbs+hsdb:@term+@rn+@rel+114-07-8
   9. http://toxnet.nlm.nih.gov/cgi-bin/sis/search/r?dbs+hsdb:@term+@rn+@rel+114-07-8
  10. http://toxnet.nlm.nih.gov/cgi-bin/sis/search/r?dbs+hsdb:@term+@rn+@rel+114-07-8
  11. http://toxnet.nlm.nih.gov/cgi-bin/sis/search/r?dbs+hsdb:@term+@rn+@rel+114-07-8
  12. http://toxnet.nlm.nih.gov/cgi-bin/sis/search/r?dbs+hsdb:@term+@rn+@rel+114-07-8
  13. http://toxnet.nlm.nih.gov/cgi-bin/sis/search/r?dbs+hsdb:@term+@rn+@rel+114-07-8
