5491176
  -OEChem-07051213112D

 77 82  0     1  0  0  0  0  0999 V2000
    8.1006   -4.5630    0.0000 O   0  0  0  0  0  0  0  0  0  0  0  0
   10.4256   -3.6496    0.0000 O   0  0  0  0  0  0  0  0  0  0  0  0
   10.6312   -1.9298    0.0000 O   0  0  0  0  0  0  0  0  0  0  0  0
   13.1449   -0.9700    0.0000 O   0  0  0  0  0  0  0  0  0  0  0  0
   12.1022   -2.3530    0.0000 O   0  0  0  0  0  0  0  0  0  0  0  0
    8.1923   -0.0868    0.0000 N   0  0  0  0  0  0  0  0  0  0  0  0
    6.7126   -1.4362    0.0000 N   0  0  0  0  0  0  0  0  0  0  0  0
    6.6795    1.2628    0.0000 N   0  0  0  0  0  0  0  0  0  0  0  0
    5.2310   -0.0868    0.0000 N   0  0  0  0  0  0  0  0  0  0  0  0
    9.7067   -0.5470    0.0000 C   0  0  1  0  0  0  0  0  0  0  0  0
    9.7067    0.4395    0.0000 C   0  0  1  0  0  0  0  0  0  0  0  0
    8.7846   -0.8110    0.0000 C   0  0  0  0  0  0  0  0  0  0  0  0
    8.4894   -1.7647    0.0000 C   0  0  0  0  0  0  0  0  0  0  0  0
   10.5052   -1.1490    0.0000 C   0  0  0  0  0  0  0  0  0  0  0  0
    8.7516    0.7034    0.0000 C   0  0  0  0  0  0  0  0  0  0  0  0
    9.0390   -2.6116    0.0000 C   0  0  2  0  0  0  0  0  0  0  0  0
    7.5028   -2.0286    0.0000 C   0  0  0  0  0  0  0  0  0  0  0  0
   10.5025    1.0451    0.0000 C   0  0  0  0  0  0  0  0  0  0  0  0
    7.2058   -2.9821    0.0000 C   0  0  0  0  0  0  0  0  0  0  0  0
    8.0299   -3.5656    0.0000 C   0  0  0  0  0  0  0  0  0  0  0  0
   11.4258   -0.7585    0.0000 C   0  0  0  0  0  0  0  0  0  0  0  0
    8.4563    1.6242    0.0000 C   0  0  0  0  0  0  0  0  0  0  0  0
    6.2191   -2.9821    0.0000 C   0  0  0  0  0  0  0  0  0  0  0  0
    5.9222   -2.0616    0.0000 C   0  0  0  0  0  0  0  0  0  0  0  0
   10.0319   -2.7304    0.0000 C   0  0  0  0  0  0  0  0  0  0  0  0
    7.5028    1.9211    0.0000 C   0  0  0  0  0  0  0  0  0  0  0  0
    5.6304   -3.7905    0.0000 C   0  0  0  0  0  0  0  0  0  0  0  0
    7.1728    2.8416    0.0000 C   0  0  0  0  0  0  0  0  0  0  0  0
    4.9686   -1.7647    0.0000 C   0  0  0  0  0  0  0  0  0  0  0  0
   12.2243   -1.3605    0.0000 C   0  0  0  0  0  0  0  0  0  0  0  0
    4.6717   -0.8440    0.0000 C   0  0  0  0  0  0  0  0  0  0  0  0
    5.8892    1.8881    0.0000 C   0  0  0  0  0  0  0  0  0  0  0  0
    6.1862    2.8416    0.0000 C   0  0  0  0  0  0  0  0  0  0  0  0
    3.7182   -0.5800    0.0000 C   0  0  0  0  0  0  0  0  0  0  0  0
    4.6717    0.6705    0.0000 C   0  0  0  0  0  0  0  0  0  0  0  0
    3.7182    0.4066    0.0000 C   0  0  0  0  0  0  0  0  0  0  0  0
    4.9356    1.6242    0.0000 C   0  0  0  0  0  0  0  0  0  0  0  0
    7.7483    3.6594    0.0000 C   0  0  0  0  0  0  0  0  0  0  0  0
    2.9223   -1.1855    0.0000 C   0  0  0  0  0  0  0  0  0  0  0  0
    2.9223    1.0121    0.0000 C   0  0  0  0  0  0  0  0  0  0  0  0
    5.5935    3.6470    0.0000 C   0  0  0  0  0  0  0  0  0  0  0  0
    2.0000   -0.7990    0.0000 C   0  0  0  0  0  0  0  0  0  0  0  0
    5.9946    4.5630    0.0000 C   0  0  0  0  0  0  0  0  0  0  0  0
   10.2616   -0.2704    0.0000 H   0  0  0  0  0  0  0  0  0  0  0  0
    9.5894    1.0483    0.0000 H   0  0  0  0  0  0  0  0  0  0  0  0
   10.0517   -1.5717    0.0000 H   0  0  0  0  0  0  0  0  0  0  0  0
   10.8428   -1.6691    0.0000 H   0  0  0  0  0  0  0  0  0  0  0  0
    9.3668   -2.0854    0.0000 H   0  0  0  0  0  0  0  0  0  0  0  0
   10.8780    0.5517    0.0000 H   0  0  0  0  0  0  0  0  0  0  0  0
   10.9959    1.4206    0.0000 H   0  0  0  0  0  0  0  0  0  0  0  0
   10.1270    1.5385    0.0000 H   0  0  0  0  0  0  0  0  0  0  0  0
   11.8794   -0.3358    0.0000 H   0  0  0  0  0  0  0  0  0  0  0  0
   11.0883   -0.2384    0.0000 H   0  0  0  0  0  0  0  0  0  0  0  0
    8.8928    2.0644    0.0000 H   0  0  0  0  0  0  0  0  0  0  0  0
    5.1292   -3.4255    0.0000 H   0  0  0  0  0  0  0  0  0  0  0  0
    5.2654   -4.2917    0.0000 H   0  0  0  0  0  0  0  0  0  0  0  0
    6.1316   -4.1555    0.0000 H   0  0  0  0  0  0  0  0  0  0  0  0
    4.5324   -2.2053    0.0000 H   0  0  0  0  0  0  0  0  0  0  0  0
    6.6811    0.6428    0.0000 H   0  0  0  0  0  0  0  0  0  0  0  0
    5.8470   -0.1564    0.0000 H   0  0  0  0  0  0  0  0  0  0  0  0
    4.4972    2.0625    0.0000 H   0  0  0  0  0  0  0  0  0  0  0  0
    8.2553    3.3026    0.0000 H   0  0  0  0  0  0  0  0  0  0  0  0
    8.1051    4.1665    0.0000 H   0  0  0  0  0  0  0  0  0  0  0  0
    7.2412    4.0162    0.0000 H   0  0  0  0  0  0  0  0  0  0  0  0
    2.5870   -1.7070    0.0000 H   0  0  0  0  0  0  0  0  0  0  0  0
    3.3777   -1.6062    0.0000 H   0  0  0  0  0  0  0  0  0  0  0  0
   11.0412   -3.7232    0.0000 H   0  0  0  0  0  0  0  0  0  0  0  0
    3.2978    1.5055    0.0000 H   0  0  0  0  0  0  0  0  0  0  0  0
    2.4289    1.3875    0.0000 H   0  0  0  0  0  0  0  0  0  0  0  0
    2.5469    0.5187    0.0000 H   0  0  0  0  0  0  0  0  0  0  0  0
    4.9773    3.5785    0.0000 H   0  0  0  0  0  0  0  0  0  0  0  0
   13.6400   -1.3432    0.0000 H   0  0  0  0  0  0  0  0  0  0  0  0
    2.2396   -0.2271    0.0000 H   0  0  0  0  0  0  0  0  0  0  0  0
    1.4282   -0.5593    0.0000 H   0  0  0  0  0  0  0  0  0  0  0  0
    1.7604   -1.3708    0.0000 H   0  0  0  0  0  0  0  0  0  0  0  0
    6.6108    4.6316    0.0000 H   0  0  0  0  0  0  0  0  0  0  0  0
    5.6271    5.0624    0.0000 H   0  0  0  0  0  0  0  0  0  0  0  0
  1 20  2  0  0  0  0
  2 25  1  0  0  0  0
  2 67  1  0  0  0  0
  3 25  2  0  0  0  0
  4 30  1  0  0  0  0
  4 72  1  0  0  0  0
  5 30  2  0  0  0  0
  6 12  1  0  0  0  0
  6 15  2  0  0  0  0
  7 17  2  0  0  0  0
  7 24  1  0  0  0  0
  8 26  1  0  0  0  0
  8 32  1  0  0  0  0
  8 59  1  0  0  0  0
  9 31  1  0  0  0  0
  9 35  1  0  0  0  0
  9 60  1  0  0  0  0
 10 11  1  0  0  0  0
 10 12  1  0  0  0  0
 10 14  1  6  0  0  0
 10 44  1  0  0  0  0
 11 15  1  0  0  0  0
 11 18  1  1  0  0  0
 11 45  1  0  0  0  0
 12 13  2  0  0  0  0
 13 16  1  0  0  0  0
 13 17  1  0  0  0  0
 14 21  1  0  0  0  0
 14 46  1  0  0  0  0
 14 47  1  0  0  0  0
 15 22  1  0  0  0  0
 16 20  1  0  0  0  0
 16 25  1  1  0  0  0
 16 48  1  0  0  0  0
 17 19  1  0  0  0  0
 18 49  1  0  0  0  0
 18 50  1  0  0  0  0
 18 51  1  0  0  0  0
 19 20  1  0  0  0  0
 19 23  2  0  0  0  0
 21 30  1  0  0  0  0
 21 52  1  0  0  0  0
 21 53  1  0  0  0  0
 22 26  2  0  0  0  0
 22 54  1  0  0  0  0
 23 24  1  0  0  0  0
 23 27  1  0  0  0  0
 24 29  2  0  0  0  0
 26 28  1  0  0  0  0
 27 55  1  0  0  0  0
 27 56  1  0  0  0  0
 27 57  1  0  0  0  0
 28 33  2  0  0  0  0
 28 38  1  0  0  0  0
 29 31  1  0  0  0  0
 29 58  1  0  0  0  0
 31 34  2  0  0  0  0
 32 33  1  0  0  0  0
 32 37  2  0  0  0  0
 33 41  1  0  0  0  0
 34 36  1  0  0  0  0
 34 39  1  0  0  0  0
 35 36  2  0  0  0  0
 35 37  1  0  0  0  0
 36 40  1  0  0  0  0
 37 61  1  0  0  0  0
 38 62  1  0  0  0  0
 38 63  1  0  0  0  0
 38 64  1  0  0  0  0
 39 42  1  0  0  0  0
 39 65  1  0  0  0  0
 39 66  1  0  0  0  0
 40 68  1  0  0  0  0
 40 69  1  0  0  0  0
 40 70  1  0  0  0  0
 41 43  2  0  0  0  0
 41 71  1  0  0  0  0
 42 73  1  0  0  0  0
 42 74  1  0  0  0  0
 42 75  1  0  0  0  0
 43 76  1  0  0  0  0
 43 77  1  0  0  0  0
M  END
> <PUBCHEM_COMPOUND_CID>
5491176

> <PUBCHEM_COMPOUND_CANONICALIZED>
1

> <PUBCHEM_CACTVS_COMPLEXITY>
1120

> <PUBCHEM_CACTVS_HBOND_ACCEPTOR>
7

> <PUBCHEM_CACTVS_HBOND_DONOR>
4

> <PUBCHEM_CACTVS_ROTATABLE_BOND>
6

> <PUBCHEM_CACTVS_SUBSKEYS>
AAADcfB/uAAAAAAAAAAAAAAAAAAAAeLFixAAAAAAAAAAAAAB/gAAHgAQCAAADQyBngAyyLLJkgCoA6TyTACCgCAlAiAImSEwZNgIIH7I1dGEZYhk8AHIyUe82fOegAAAAAAAAAAAAAAAAAAAASAACQAAAA==

> <PUBCHEM_IUPAC_INCHI>
InChI=1S/C34H34N4O5/c1-7-18-14(3)21-11-23-16(5)20(9-10-27(39)40)31(37-23)29-30(34(42)43)33(41)28-17(6)24(38-32(28)29)13-26-19(8-2)15(4)22(36-26)12-25(18)35-21/h7,11-13,16,20,30,35-36H,1,8-10H2,2-6H3,(H,39,40)(H,42,43)/t16-,20-,30+/m0/s1

> <PUBCHEM_IUPAC_INCHIKEY>
LBTSOAOHYOZENH-KGFWSFAHSA-N

> <PUBCHEM_XLOGP3_AA>
5.4

> <PUBCHEM_EXACT_MASS>
578.25292

> <PUBCHEM_MOLECULAR_FORMULA>
C34H34N4O5

> <PUBCHEM_MOLECULAR_WEIGHT>
578.65756

> <PUBCHEM_OPENEYE_CAN_SMILES>
CCC1=C2C=C3C(=C4C(=O)C(C(=C5C(C(C(=N5)C=C6C(=C(C(=CC(=C1C)N2)N6)C=C)C)C)CCC(=O)O)C4=N3)C(=O)O)C

> <PUBCHEM_OPENEYE_ISO_SMILES>
CCC1=C2C=C3C(=C4C(=O)[C@@H](C(=C5[C@H]([C@@H](C(=N5)C=C6C(=C(C(=CC(=C1C)N2)N6)C=C)C)C)CCC(=O)O)C4=N3)C(=O)O)C

> <PUBCHEM_CACTVS_TPSA>
149

> <PUBCHEM_MONOISOTOPIC_WEIGHT>
578.25292

> <PUBCHEM_TOTAL_CHARGE>
0

> <PUBCHEM_HEAVY_ATOM_COUNT>
43

> <PUBCHEM_ATOM_DEF_STEREO_COUNT>
3

> <PUBCHEM_ATOM_UDEF_STEREO_COUNT>
0

> <PUBCHEM_BOND_DEF_STEREO_COUNT>
0

> <PUBCHEM_BOND_UDEF_STEREO_COUNT>
0

> <PUBCHEM_ISOTOPIC_ATOM_COUNT>
0

> <PUBCHEM_COMPONENT_COUNT>
1

> <PUBCHEM_CACTVS_TAUTO_COUNT>
1001

> <PUBCHEM_COORDINATE_TYPE>
1
5
255

> <PUBCHEM_BONDANNOTATIONS>
10  14  6
11  18  5
12  13  8
13  17  8
15  22  8
16  25  5
22  26  8
24  29  8
26  28  8
28  33  8
29  31  8
31  34  8
32  33  8
32  37  8
34  36  8
35  36  8
35  37  8
6  12  8
6  15  8
7  17  8
7  24  8
8  26  8
8  32  8
9  31  8
9  35  8

$$$$

