   Color/Form
        COLORLESS, VISCOUS LIQUID
   from [1]HSDB

   Odor

     * CHARACTERISTIC ROSE-LIKE ODOR
     * Pure PEA has an extremely mild roselike odor. >99% pure vary in
       odor because of the impurities present.

   from [2]HSDB

   Taste

     * INITIALLY SLIGHTLY BITTER TASTE THEN SWEET & REMINISCENT OF PEACH
     * Sharp burning taste

   from [3]HSDB

   Boiling Point
        218.2 DEG C AT 760 MM HG
   from [4]HSDB

   Melting Point
        -27 DEG C
   from [5]HSDB

   Density/Specific Gravity
        1.0202 AT 20 DEG C/4 DEG C
   from [6]HSDB

   Octanol/Water Partition Coefficient
        log Kow = 1.36
   from [7]HSDB

   Solubilities

     * 2 ML DISSOLVE IN 100 ML WATER AFTER THOROUGH SHAKING; 1 PART IS
       CLEARLY SOL IN 1 PART OF 50% ALCOHOL; MISCIBLE WITH ALCOHOL, ETHER
     * SOL IN FIXED OILS & GLYCEROL; SLIGHTLY SOL IN MINERAL OIL
     * VERY SOL IN PROPYLENE GLYCOL
     * Miscible with chloroform.
     * 16,000 mg/L in water @ 20 deg C [Valvani SC et al; J Pharm Sci 70:
       502-7 (1981)] [8]PubMed Abstract

   from [9]HSDB

   Spectral Properties

     * INDEX OF REFRACTION: 1.5325 AT 20 DEG C/D
     * MAX ABSORPTION (HEXANE): 271 NM (LOG E= 3.29); SADTLER REF NUMBER:
       1632 (IR, PRISM); 8184 (IR, GRATING); 466 UV; 113 NMR
     * IR: 3712 (Coblentz Society Spectral Collection)
     * UV: 3-161 (Organic Electronic Spectral Data, Phillips et al, John
       Wiley & Sons, New York)
     * MASS: 506 (Atlas of Mass Spectral Data, John Wiley & Sons, New
       York)

   from [10]HSDB

   Vapor Density
        4.21 (AIR= 1)
   from [11]HSDB

   Vapor Pressure
        8.68X10-2 mm Hg @ 25 deg C /from experimentally derived
   coefficients/
   from [12]HSDB

   Viscosity
        7.58 centapoise @ 25 deg C; 3.19 centpoise @ 50 deg C
   from [13]HSDB

   Other Chemical/Physical Properties

     * CONVERSION FACTORS: 1 MG/L IS EQUIVALENT TO 200.2 PPM & 1 PPM IS
       EQUIVALENT TO 500 MG/CU M AT 25 DEG C, 760 MM HG
     * CONGEALING POINT 101 DEG C
     * PER CENT IN SATURATED AIR: 0.13 AT 58 DEG C
     * The pure compound is difficult to crystallize because it tends to
       supercool to a glass. In addition, it forms a number of azeotropes.

   from [14]HSDB

   Computed Properties
   Molecular Weight                  122.1644 [g/mol]
   Molecular Formula                 C[8]H[10]O
   XLogP3                            1.4
   H-Bond Donor                      1
   H-Bond Acceptor                   1
   Rotatable Bond Count              2
   Exact Mass                        122.073165
   MonoIsotopic Mass                 122.073165
   Topological Polar Surface Area    20.2
   Heavy Atom Count                  9
   Formal Charge                     0
   Complexity                        65
   Isotope Atom Count                0
   Defined Atom Stereocenter Count   0
   Undefined Atom Stereocenter Count 0
   Defined Bond Stereocenter Count   0
   Undefined Bond Stereocenter Count 0
   Covalently-Bonded Unit Count      1
   Feature 3D Acceptor Count         1
   Feature 3D Donor Count            1
   Feature 3D Ring Count             1
   Effective Rotor Count             2
   Conformer Sampling RMSD           0.4
   CID Conformer Count               [15]4

References

   1. http://toxnet.nlm.nih.gov/cgi-bin/sis/search/r?dbs+hsdb:@term+@rn+@rel+60-12-8
   2. http://toxnet.nlm.nih.gov/cgi-bin/sis/search/r?dbs+hsdb:@term+@rn+@rel+60-12-8
   3. http://toxnet.nlm.nih.gov/cgi-bin/sis/search/r?dbs+hsdb:@term+@rn+@rel+60-12-8
   4. http://toxnet.nlm.nih.gov/cgi-bin/sis/search/r?dbs+hsdb:@term+@rn+@rel+60-12-8
   5. http://toxnet.nlm.nih.gov/cgi-bin/sis/search/r?dbs+hsdb:@term+@rn+@rel+60-12-8
   6. http://toxnet.nlm.nih.gov/cgi-bin/sis/search/r?dbs+hsdb:@term+@rn+@rel+60-12-8
   7. http://toxnet.nlm.nih.gov/cgi-bin/sis/search/r?dbs+hsdb:@term+@rn+@rel+60-12-8
   8. http://www.ncbi.nlm.nih.gov/entrez/query.fcgi?cmd=Retrieve&db=pubmed&dopt=Abstract&list_uids=7241352
   9. http://toxnet.nlm.nih.gov/cgi-bin/sis/search/r?dbs+hsdb:@term+@rn+@rel+60-12-8
  10. http://toxnet.nlm.nih.gov/cgi-bin/sis/search/r?dbs+hsdb:@term+@rn+@rel+60-12-8
  11. http://toxnet.nlm.nih.gov/cgi-bin/sis/search/r?dbs+hsdb:@term+@rn+@rel+60-12-8
  12. http://toxnet.nlm.nih.gov/cgi-bin/sis/search/r?dbs+hsdb:@term+@rn+@rel+60-12-8
  13. http://toxnet.nlm.nih.gov/cgi-bin/sis/search/r?dbs+hsdb:@term+@rn+@rel+60-12-8
  14. http://toxnet.nlm.nih.gov/cgi-bin/sis/search/r?dbs+hsdb:@term+@rn+@rel+60-12-8
  15. http://pubchem.ncbi.nlm.nih.gov/vw3d/vw3d.cgi?cid=6054
