   Color/Form
        STRAW-YELLOW LIQUID
   from [1]HSDB

   Odor
        SLIGHT PHENOLIC ODOR
   from [2]HSDB

   Boiling Point
        172 DEG C @ 0.8 MM HG
   from [3]HSDB

   Melting Point
        32 TO 33 DEG C
   from [4]HSDB

   Density/Specific Gravity
        SP GR: 1.21 @ 25 DEG C
   from [5]HSDB

   Solubilities
        Miscible with most org resins
   from [6]HSDB

   Spectral Properties
        INDEX OF REFRACTION: 1.541 @ 25 DEG C/D
   from [7]HSDB

   Vapor Pressure
        VAPOR PRESSURE LOW
   from [8]HSDB

   Viscosity
        500 CENTIPOISES (25 DEG C)
   from [9]HSDB

   Computed Properties
   Molecular Weight                  222.23716 [g/mol]
   Molecular Formula                 C[12]H[14]O[4]
   XLogP3-AA                         1.2
   H-Bond Donor                      0
   H-Bond Acceptor                   4
   Rotatable Bond Count              6
   Exact Mass                        222.089209
   MonoIsotopic Mass                 222.089209
   Topological Polar Surface Area    43.5
   Heavy Atom Count                  16
   Formal Charge                     0
   Complexity                        211
   Isotope Atom Count                0
   Defined Atom Stereocenter Count   0
   Undefined Atom Stereocenter Count 2
   Defined Bond Stereocenter Count   0
   Undefined Bond Stereocenter Count 0
   Covalently-Bonded Unit Count      1
   Feature 3D Acceptor Count         4
   Feature 3D Ring Count             1
   Effective Rotor Count             7.2
   Conformer Sampling RMSD           0.8
   CID Conformer Count               [10]103

References

   1. http://toxnet.nlm.nih.gov/cgi-bin/sis/search/r?dbs+hsdb:@term+@rn+@rel+101-90-6
   2. http://toxnet.nlm.nih.gov/cgi-bin/sis/search/r?dbs+hsdb:@term+@rn+@rel+101-90-6
   3. http://toxnet.nlm.nih.gov/cgi-bin/sis/search/r?dbs+hsdb:@term+@rn+@rel+101-90-6
   4. http://toxnet.nlm.nih.gov/cgi-bin/sis/search/r?dbs+hsdb:@term+@rn+@rel+101-90-6
   5. http://toxnet.nlm.nih.gov/cgi-bin/sis/search/r?dbs+hsdb:@term+@rn+@rel+101-90-6
   6. http://toxnet.nlm.nih.gov/cgi-bin/sis/search/r?dbs+hsdb:@term+@rn+@rel+101-90-6
   7. http://toxnet.nlm.nih.gov/cgi-bin/sis/search/r?dbs+hsdb:@term+@rn+@rel+101-90-6
   8. http://toxnet.nlm.nih.gov/cgi-bin/sis/search/r?dbs+hsdb:@term+@rn+@rel+101-90-6
   9. http://toxnet.nlm.nih.gov/cgi-bin/sis/search/r?dbs+hsdb:@term+@rn+@rel+101-90-6
  10. http://pubchem.ncbi.nlm.nih.gov/vw3d/vw3d.cgi?cid=7586
