443484
  -OEChem-07051213022D

 52 54  0     1  0  0  0  0  0999 V2000
    2.9239   -0.9118    0.0000 C   0  0  2  0  0  0  0  0  0  0  0  0
    5.1543    0.0120    0.0000 C   0  0  2  0  0  0  0  0  0  0  0  0
    3.8478   -1.2945    0.0000 C   0  0  2  0  0  0  0  0  0  0  0  0
    4.7716    0.9359    0.0000 C   0  0  0  0  0  0  0  0  0  0  0  0
    4.7716   -0.9118    0.0000 C   0  0  0  0  0  0  0  0  0  0  0  0
    2.5412    0.0120    0.0000 C   0  0  0  0  0  0  0  0  0  0  0  0
    3.8478    1.3186    0.0000 C   0  0  0  0  0  0  0  0  0  0  0  0
    5.8274    0.7537    0.0000 C   0  0  0  0  0  0  0  0  0  0  0  0
    2.0878   -1.5331    0.0000 C   0  0  0  0  0  0  0  0  0  0  0  0
    2.9239    0.9359    0.0000 C   0  0  0  0  0  0  0  0  0  0  0  0
    3.9996   -2.3250    0.0000 C   0  0  0  0  0  0  0  0  0  0  0  0
    5.5526    1.7169    0.0000 C   0  0  0  0  0  0  0  0  0  0  0  0
    4.5895    1.9917    0.0000 C   0  0  0  0  0  0  0  0  0  0  0  0
    2.0000   -0.5292    0.0000 C   0  0  0  0  0  0  0  0  0  0  0  0
    2.2158   -2.5669    0.0000 C   0  0  0  0  0  0  0  0  0  0  0  0
    5.0693    2.0467    0.0000 C   0  0  0  0  0  0  0  0  0  0  0  0
    5.8825    1.2336    0.0000 C   0  0  0  0  0  0  0  0  0  0  0  0
    3.1782   -2.9655    0.0000 C   0  0  0  0  0  0  0  0  0  0  0  0
    4.9279   -2.6970    0.0000 C   0  0  0  0  0  0  0  0  0  0  0  0
    4.3620    2.9655    0.0000 C   0  0  0  0  0  0  0  0  0  0  0  0
    5.4796   -0.7733    0.0000 H   0  0  0  0  0  0  0  0  0  0  0  0
    4.6331   -1.6198    0.0000 H   0  0  0  0  0  0  0  0  0  0  0  0
    4.8526   -1.5265    0.0000 H   0  0  0  0  0  0  0  0  0  0  0  0
    5.3863   -0.9928    0.0000 H   0  0  0  0  0  0  0  0  0  0  0  0
    2.0493    0.3895    0.0000 H   0  0  0  0  0  0  0  0  0  0  0  0
    2.0493   -0.3654    0.0000 H   0  0  0  0  0  0  0  0  0  0  0  0
    6.2019    0.2596    0.0000 H   0  0  0  0  0  0  0  0  0  0  0  0
    6.3821    1.0308    0.0000 H   0  0  0  0  0  0  0  0  0  0  0  0
    1.8086   -0.9796    0.0000 H   0  0  0  0  0  0  0  0  0  0  0  0
    1.4946   -1.7135    0.0000 H   0  0  0  0  0  0  0  0  0  0  0  0
    2.8430    1.5506    0.0000 H   0  0  0  0  0  0  0  0  0  0  0  0
    2.3092    1.0168    0.0000 H   0  0  0  0  0  0  0  0  0  0  0  0
    6.1700    1.7742    0.0000 H   0  0  0  0  0  0  0  0  0  0  0  0
    5.6100    2.3342    0.0000 H   0  0  0  0  0  0  0  0  0  0  0  0
    2.2373    0.0436    0.0000 H   0  0  0  0  0  0  0  0  0  0  0  0
    1.4272   -0.2919    0.0000 H   0  0  0  0  0  0  0  0  0  0  0  0
    1.7627   -1.1020    0.0000 H   0  0  0  0  0  0  0  0  0  0  0  0
    1.5966   -2.5366    0.0000 H   0  0  0  0  0  0  0  0  0  0  0  0
    2.0801   -3.1718    0.0000 H   0  0  0  0  0  0  0  0  0  0  0  0
    5.6682    1.8863    0.0000 H   0  0  0  0  0  0  0  0  0  0  0  0
    5.2298    2.6456    0.0000 H   0  0  0  0  0  0  0  0  0  0  0  0
    4.4704    2.2072    0.0000 H   0  0  0  0  0  0  0  0  0  0  0  0
    6.0429    0.6347    0.0000 H   0  0  0  0  0  0  0  0  0  0  0  0
    6.4813    1.3940    0.0000 H   0  0  0  0  0  0  0  0  0  0  0  0
    5.7220    1.8324    0.0000 H   0  0  0  0  0  0  0  0  0  0  0  0
    3.2614   -3.5799    0.0000 H   0  0  0  0  0  0  0  0  0  0  0  0
    4.6972   -3.2725    0.0000 H   0  0  0  0  0  0  0  0  0  0  0  0
    5.5034   -2.9276    0.0000 H   0  0  0  0  0  0  0  0  0  0  0  0
    5.1585   -2.1215    0.0000 H   0  0  0  0  0  0  0  0  0  0  0  0
    4.9657    3.1065    0.0000 H   0  0  0  0  0  0  0  0  0  0  0  0
    4.2209    3.5692    0.0000 H   0  0  0  0  0  0  0  0  0  0  0  0
    3.7582    2.8244    0.0000 H   0  0  0  0  0  0  0  0  0  0  0  0
  1  3  1  0  0  0  0
  1  6  1  0  0  0  0
  1  9  1  0  0  0  0
  1 14  1  6  0  0  0
  2  4  1  0  0  0  0
  2  5  1  0  0  0  0
  2  8  1  0  0  0  0
  2 21  1  6  0  0  0
  3  5  1  0  0  0  0
  3 11  1  0  0  0  0
  3 22  1  1  0  0  0
  4  7  1  0  0  0  0
  4 16  1  0  0  0  0
  4 17  1  0  0  0  0
  5 23  1  0  0  0  0
  5 24  1  0  0  0  0
  6 10  1  0  0  0  0
  6 25  1  0  0  0  0
  6 26  1  0  0  0  0
  7 10  1  0  0  0  0
  7 13  2  0  0  0  0
  8 12  1  0  0  0  0
  8 27  1  0  0  0  0
  8 28  1  0  0  0  0
  9 15  1  0  0  0  0
  9 29  1  0  0  0  0
  9 30  1  0  0  0  0
 10 31  1  0  0  0  0
 10 32  1  0  0  0  0
 11 18  2  0  0  0  0
 11 19  1  0  0  0  0
 12 13  1  0  0  0  0
 12 33  1  0  0  0  0
 12 34  1  0  0  0  0
 13 20  1  0  0  0  0
 14 35  1  0  0  0  0
 14 36  1  0  0  0  0
 14 37  1  0  0  0  0
 15 18  1  0  0  0  0
 15 38  1  0  0  0  0
 15 39  1  0  0  0  0
 16 40  1  0  0  0  0
 16 41  1  0  0  0  0
 16 42  1  0  0  0  0
 17 43  1  0  0  0  0
 17 44  1  0  0  0  0
 17 45  1  0  0  0  0
 18 46  1  0  0  0  0
 19 47  1  0  0  0  0
 19 48  1  0  0  0  0
 19 49  1  0  0  0  0
 20 50  1  0  0  0  0
 20 51  1  0  0  0  0
 20 52  1  0  0  0  0
M  END
> <PUBCHEM_COMPOUND_CID>
443484

> <PUBCHEM_COMPOUND_CANONICALIZED>
1

> <PUBCHEM_CACTVS_COMPLEXITY>
462

> <PUBCHEM_CACTVS_HBOND_ACCEPTOR>
0

> <PUBCHEM_CACTVS_HBOND_DONOR>
0

> <PUBCHEM_CACTVS_ROTATABLE_BOND>
0

> <PUBCHEM_CACTVS_SUBSKEYS>
AAADcfB4AAAAAAAAAAAAAAAAAAAAAAAAAAAgQAAAAAAYAACAAAAAGAAAAAAADwCAAAACAAAAAACAAiBCAAAAAAAgAAAACAAAAAgAAAIAAQAAAAAAgAAIAAMAgMAPgAAAAAAAAAAAAAAAAAAAAAAAAAAAAA==

> <PUBCHEM_IUPAC_INCHI>
InChI=1S/C20H32/c1-14-7-6-11-20(5)12-10-17-15(2)8-9-16(13-18(14)20)19(17,3)4/h7,16,18H,6,8-13H2,1-5H3/t16-,18+,20-/m0/s1

> <PUBCHEM_IUPAC_INCHIKEY>
FRJSECSOXKQMOD-HQRMLTQVSA-N

> <PUBCHEM_XLOGP3_AA>
5.7

> <PUBCHEM_EXACT_MASS>
272.250401

> <PUBCHEM_MOLECULAR_FORMULA>
C20H32

> <PUBCHEM_MOLECULAR_WEIGHT>
272.46808

> <PUBCHEM_OPENEYE_CAN_SMILES>
CC1=C2CCC3(CCC=C(C3CC(C2(C)C)CC1)C)C

> <PUBCHEM_OPENEYE_ISO_SMILES>
CC1=C2CC[C@@]3(CCC=C([C@H]3C[C@@H](C2(C)C)CC1)C)C

> <PUBCHEM_CACTVS_TPSA>
0

> <PUBCHEM_MONOISOTOPIC_WEIGHT>
272.250401

> <PUBCHEM_TOTAL_CHARGE>
0

> <PUBCHEM_HEAVY_ATOM_COUNT>
20

> <PUBCHEM_ATOM_DEF_STEREO_COUNT>
3

> <PUBCHEM_ATOM_UDEF_STEREO_COUNT>
0

> <PUBCHEM_BOND_DEF_STEREO_COUNT>
0

> <PUBCHEM_BOND_UDEF_STEREO_COUNT>
0

> <PUBCHEM_ISOTOPIC_ATOM_COUNT>
0

> <PUBCHEM_COMPONENT_COUNT>
1

> <PUBCHEM_CACTVS_TAUTO_COUNT>
1

> <PUBCHEM_COORDINATE_TYPE>
1
5
255

> <PUBCHEM_BONDANNOTATIONS>
1  14  6
2  21  6
3  22  5

$$$$

