442648
  -OEChem-07051212592D

 24 25  0     1  0  0  0  0  0999 V2000
    2.2412   -2.1402    0.0000 O   0  0  0  0  0  0  0  0  0  0  0  0
    6.3228    0.0328    0.0000 N   0  0  0  0  0  0  0  0  0  0  0  0
    3.2543    1.6402    0.0000 C   0  0  3  0  0  0  0  0  0  0  0  0
    4.2320   -0.1743    0.0000 C   0  0  3  0  0  0  0  0  0  0  0  0
    4.4909    0.7916    0.0000 C   0  0  3  0  0  0  0  0  0  0  0  0
    4.1203    2.1402    0.0000 C   0  0  0  0  0  0  0  0  0  0  0  0
    2.0000   -0.3083    0.0000 C   0  0  0  0  0  0  0  0  0  0  0  0
    2.5000   -1.1743    0.0000 C   0  0  0  0  0  0  0  0  0  0  0  0
    6.0640   -0.9331    0.0000 C   0  0  0  0  0  0  0  0  0  0  0  0
    2.2883    1.8991    0.0000 C   0  0  0  0  0  0  0  0  0  0  0  0
    6.5640   -1.7992    0.0000 C   0  0  0  0  0  0  0  0  0  0  0  0
    3.1733    2.2549    0.0000 H   0  0  0  0  0  0  0  0  0  0  0  0
    4.2726   -0.7930    0.0000 H   0  0  0  0  0  0  0  0  0  0  0  0
    4.4980    0.1716    0.0000 H   0  0  0  0  0  0  0  0  0  0  0  0
    4.7020    2.3548    0.0000 H   0  0  0  0  0  0  0  0  0  0  0  0
    3.8571    2.7016    0.0000 H   0  0  0  0  0  0  0  0  0  0  0  0
    1.7294    0.2495    0.0000 H   0  0  0  0  0  0  0  0  0  0  0  0
    1.4523   -0.5988    0.0000 H   0  0  0  0  0  0  0  0  0  0  0  0
    2.4488    2.4979    0.0000 H   0  0  0  0  0  0  0  0  0  0  0  0
    1.6895    2.0595    0.0000 H   0  0  0  0  0  0  0  0  0  0  0  0
    2.1279    1.3002    0.0000 H   0  0  0  0  0  0  0  0  0  0  0  0
    6.0271   -2.1092    0.0000 H   0  0  0  0  0  0  0  0  0  0  0  0
    6.8740   -2.3361    0.0000 H   0  0  0  0  0  0  0  0  0  0  0  0
    7.1009   -1.4892    0.0000 H   0  0  0  0  0  0  0  0  0  0  0  0
  1  8  2  0  0  0  0
  2  5  1  0  0  0  0
  2  9  2  0  0  0  0
  3  4  1  0  0  0  0
  3  6  1  0  0  0  0
  3 10  1  0  0  0  0
  3 12  1  0  0  0  0
  4  8  1  0  0  0  0
  4  9  1  0  0  0  0
  4 13  1  0  0  0  0
  5  6  1  0  0  0  0
  5  7  1  0  0  0  0
  5 14  1  0  0  0  0
  6 15  1  0  0  0  0
  6 16  1  0  0  0  0
  7  8  1  0  0  0  0
  7 17  1  0  0  0  0
  7 18  1  0  0  0  0
  9 11  1  0  0  0  0
 10 19  1  0  0  0  0
 10 20  1  0  0  0  0
 10 21  1  0  0  0  0
 11 22  1  0  0  0  0
 11 23  1  0  0  0  0
 11 24  1  0  0  0  0
M  END
> <PUBCHEM_COMPOUND_CID>
442648

> <PUBCHEM_COMPOUND_CANONICALIZED>
1

> <PUBCHEM_CACTVS_COMPLEXITY>
232

> <PUBCHEM_CACTVS_HBOND_ACCEPTOR>
2

> <PUBCHEM_CACTVS_HBOND_DONOR>
0

> <PUBCHEM_CACTVS_ROTATABLE_BOND>
0

> <PUBCHEM_CACTVS_SUBSKEYS>
AAADccByIAAAAAAAAAAAAAAAAAAAAAAAAAAwQIAAAAAAAAAAAAAAHgAAAAAADSzBgAQCAAIAAAAoAYAwBAAAAAAAAAAAAAEwAAAAABoAgAAAAAAAAAAAAAEYiYCegAAAAAAAAAAQAACAACAAAAAAAAAAAA==

> <PUBCHEM_IUPAC_OPENEYE_NAME>
3,8-dimethyl-2-azabicyclo[2.2.2]oct-2-en-5-one

> <PUBCHEM_IUPAC_CAS_NAME>
3,8-dimethyl-2-azabicyclo[2.2.2]oct-2-en-5-one

> <PUBCHEM_IUPAC_NAME>
3,8-dimethyl-2-azabicyclo[2.2.2]oct-2-en-5-one

> <PUBCHEM_IUPAC_SYSTEMATIC_NAME>
3,8-dimethyl-2-azabicyclo[2.2.2]oct-2-en-5-one

> <PUBCHEM_IUPAC_TRADITIONAL_NAME>
3,8-dimethyl-2-azabicyclo[2.2.2]oct-2-en-5-one

> <PUBCHEM_IUPAC_INCHI>
InChI=1S/C9H13NO/c1-5-3-7-4-8(11)9(5)6(2)10-7/h5,7,9H,3-4H2,1-2H3

> <PUBCHEM_IUPAC_INCHIKEY>
XWZBTIGBVQYTRB-UHFFFAOYSA-N

> <PUBCHEM_XLOGP3_AA>
0.6

> <PUBCHEM_EXACT_MASS>
151.099714

> <PUBCHEM_MOLECULAR_FORMULA>
C9H13NO

> <PUBCHEM_MOLECULAR_WEIGHT>
151.20562

> <PUBCHEM_OPENEYE_CAN_SMILES>
CC1CC2CC(=O)C1C(=N2)C

> <PUBCHEM_OPENEYE_ISO_SMILES>
CC1CC2CC(=O)C1C(=N2)C

> <PUBCHEM_CACTVS_TPSA>
29.4

> <PUBCHEM_MONOISOTOPIC_WEIGHT>
151.099714

> <PUBCHEM_TOTAL_CHARGE>
0

> <PUBCHEM_HEAVY_ATOM_COUNT>
11

> <PUBCHEM_ATOM_DEF_STEREO_COUNT>
0

> <PUBCHEM_ATOM_UDEF_STEREO_COUNT>
3

> <PUBCHEM_BOND_DEF_STEREO_COUNT>
0

> <PUBCHEM_BOND_UDEF_STEREO_COUNT>
0

> <PUBCHEM_ISOTOPIC_ATOM_COUNT>
0

> <PUBCHEM_COMPONENT_COUNT>
1

> <PUBCHEM_CACTVS_TAUTO_COUNT>
2

> <PUBCHEM_COORDINATE_TYPE>
1
5
255

> <PUBCHEM_BONDANNOTATIONS>
3  10  3
4  9  3
5  7  3

$$$$

