9568617
  -OEChem-07051212522D

 45 46  0     1  0  0  0  0  0999 V2000
   10.3413    3.2103    0.0000 S   0  0  0  0  0  0  0  0  0  0  0  0
    3.8497    1.8257    0.0000 S   0  0  0  0  0  0  0  0  0  0  0  0
   10.2149    0.7994    0.0000 O   0  0  0  0  0  0  0  0  0  0  0  0
   11.0844    3.8794    0.0000 O   0  5  0  0  0  0  0  0  0  0  0  0
   11.0104    2.4671    0.0000 O   0  0  0  0  0  0  0  0  0  0  0  0
    9.6721    3.9534    0.0000 O   0  0  0  0  0  0  0  0  0  0  0  0
    6.6450    2.2129    0.0000 O   0  0  0  0  0  0  0  0  0  0  0  0
    7.2688   -0.7216    0.0000 O   0  0  0  0  0  0  0  0  0  0  0  0
    6.9414   -3.3470    0.0000 O   0  0  0  0  0  0  0  0  0  0  0  0
    8.6356   -2.9869    0.0000 O   0  0  0  0  0  0  0  0  0  0  0  0
    9.5981    2.5412    0.0000 N   0  0  0  0  0  0  0  0  0  0  0  0
    7.8040    0.9257    0.0000 N   0  0  0  0  0  0  0  0  0  0  0  0
    6.3177   -0.4125    0.0000 N   0  0  0  0  0  0  0  0  0  0  0  0
    4.3497    0.2868    0.0000 N   0  0  0  0  0  0  0  0  0  0  0  0
    2.5896    0.5656    0.0000 N   0  3  0  0  0  0  0  0  0  0  0  0
    8.5995    2.5935    0.0000 C   0  0  2  0  0  0  0  0  0  0  0  0
    8.5472    1.5949    0.0000 C   0  0  1  0  0  0  0  0  0  0  0  0
    9.5458    1.5425    0.0000 C   0  0  0  0  0  0  0  0  0  0  0  0
    7.9304    3.3366    0.0000 C   0  0  0  0  0  0  0  0  0  0  0  0
    6.8530    1.2347    0.0000 C   0  0  0  0  0  0  0  0  0  0  0  0
    6.1098    0.5656    0.0000 C   0  0  0  0  0  0  0  0  0  0  0  0
    7.4767   -1.6997    0.0000 C   0  0  0  0  0  0  0  0  0  0  0  0
    5.1588    0.8746    0.0000 C   0  0  0  0  0  0  0  0  0  0  0  0
    8.4548   -1.4918    0.0000 C   0  0  0  0  0  0  0  0  0  0  0  0
    6.4985   -1.9076    0.0000 C   0  0  0  0  0  0  0  0  0  0  0  0
    4.8497    1.8257    0.0000 C   0  0  0  0  0  0  0  0  0  0  0  0
    7.6846   -2.6778    0.0000 C   0  0  0  0  0  0  0  0  0  0  0  0
    3.5407    0.8746    0.0000 C   0  0  0  0  0  0  0  0  0  0  0  0
    8.8664    3.1531    0.0000 H   0  0  0  0  0  0  0  0  0  0  0  0
    8.7541    1.0104    0.0000 H   0  0  0  0  0  0  0  0  0  0  0  0
    8.3911    3.7515    0.0000 H   0  0  0  0  0  0  0  0  0  0  0  0
    7.5155    3.7974    0.0000 H   0  0  0  0  0  0  0  0  0  0  0  0
    7.4696    2.9218    0.0000 H   0  0  0  0  0  0  0  0  0  0  0  0
    7.9329    0.3193    0.0000 H   0  0  0  0  0  0  0  0  0  0  0  0
    6.3696   -1.3012    0.0000 H   0  0  0  0  0  0  0  0  0  0  0  0
    5.8921   -2.0365    0.0000 H   0  0  0  0  0  0  0  0  0  0  0  0
    6.6274   -2.5141    0.0000 H   0  0  0  0  0  0  0  0  0  0  0  0
    8.5837   -2.0982    0.0000 H   0  0  0  0  0  0  0  0  0  0  0  0
    9.0613   -1.3629    0.0000 H   0  0  0  0  0  0  0  0  0  0  0  0
    8.3259   -0.8853    0.0000 H   0  0  0  0  0  0  0  0  0  0  0  0
    5.2142    2.3273    0.0000 H   0  0  0  0  0  0  0  0  0  0  0  0
    2.0000    0.3740    0.0000 H   0  0  0  0  0  0  0  0  0  0  0  0
    2.3981    1.1553    0.0000 H   0  0  0  0  0  0  0  0  0  0  0  0
    2.7812   -0.0240    0.0000 H   0  0  0  0  0  0  0  0  0  0  0  0
    7.0704   -3.9534    0.0000 H   0  0  0  0  0  0  0  0  0  0  0  0
  1  4  1  0  0  0  0
  1  5  2  0  0  0  0
  1  6  2  0  0  0  0
  1 11  1  0  0  0  0
  2 26  1  0  0  0  0
  2 28  1  0  0  0  0
  3 18  2  0  0  0  0
  7 20  2  0  0  0  0
  8 13  1  0  0  0  0
  8 22  1  0  0  0  0
  9 27  1  0  0  0  0
  9 45  1  0  0  0  0
 10 27  2  0  0  0  0
 11 16  1  0  0  0  0
 11 18  1  0  0  0  0
 17 12  1  1  0  0  0
 12 20  1  0  0  0  0
 12 34  1  0  0  0  0
 13 21  2  0  0  0  0
 14 23  1  0  0  0  0
 14 28  2  0  0  0  0
 15 28  1  0  0  0  0
 15 42  1  0  0  0  0
 15 43  1  0  0  0  0
 15 44  1  0  0  0  0
 16 17  1  0  0  0  0
 16 19  1  6  0  0  0
 16 29  1  0  0  0  0
 17 18  1  0  0  0  0
 17 30  1  0  0  0  0
 19 31  1  0  0  0  0
 19 32  1  0  0  0  0
 19 33  1  0  0  0  0
 20 21  1  0  0  0  0
 21 23  1  0  0  0  0
 22 24  1  0  0  0  0
 22 25  1  0  0  0  0
 22 27  1  0  0  0  0
 23 26  2  0  0  0  0
 24 38  1  0  0  0  0
 24 39  1  0  0  0  0
 24 40  1  0  0  0  0
 25 35  1  0  0  0  0
 25 36  1  0  0  0  0
 25 37  1  0  0  0  0
 26 41  1  0  0  0  0
M  CHG  2   4  -1  15   1
M  END
> <PUBCHEM_COMPOUND_CID>
9568617

> <PUBCHEM_COMPOUND_CANONICALIZED>
1

> <PUBCHEM_CACTVS_COMPLEXITY>
795

> <PUBCHEM_CACTVS_HBOND_ACCEPTOR>
11

> <PUBCHEM_CACTVS_HBOND_DONOR>
3

> <PUBCHEM_CACTVS_ROTATABLE_BOND>
6

> <PUBCHEM_CACTVS_SUBSKEYS>
AAADceBzvABgAAAAAAAAAAAAAABYAWAAAAAAAAAAAAAAAAABgAAAHgQUSAAADGzF1gSjmRLYEgisAQXyfDIA8KlhCjkAAJX4IBiBYJggxCEUQAAAFgKBACAAAAAAAAAAAAAAAAAAAAAAAAAAAAAAAAAAAA==

> <PUBCHEM_IUPAC_OPENEYE_NAME>
(2S,3S)-3-[[(2Z)-2-(2-azaniumylthiazol-4-yl)-2-(1-carboxy-1-methyl-ethoxy)imino-acetyl]amino]-2-methyl-4-oxo-azetidine-1-sulfonate

> <PUBCHEM_IUPAC_CAS_NAME>
(2S,3S)-3-[[(2Z)-2-(2-ammonio-4-thiazolyl)-2-(2-carboxypropan-2-yloxyimino)-1-oxoethyl]amino]-2-methyl-4-oxo-1-azetidinesulfonate

> <PUBCHEM_IUPAC_NAME>
(2S,3S)-3-[[(2Z)-2-(2-azaniumyl-1,3-thiazol-4-yl)-2-(2-carboxypropan-2-yloxyimino)acetyl]amino]-2-methyl-4-oxoazetidine-1-sulfonate

> <PUBCHEM_IUPAC_SYSTEMATIC_NAME>
(2S,3S)-3-[[(2Z)-2-(2-azaniumyl-1,3-thiazol-4-yl)-2-(2-methyl-1-oxidanyl-1-oxidanylidene-propan-2-yl)oxyimino-ethanoyl]amino]-2-methyl-4-oxidanylidene-azetidine-1-sulfonate

> <PUBCHEM_IUPAC_TRADITIONAL_NAME>
(3S,4S)-3-[[(2Z)-2-(2-ammoniothiazol-4-yl)-2-(1-carboxy-1-methyl-ethyl)oximino-acetyl]amino]-2-keto-4-methyl-azetidine-1-sulfonate

> <PUBCHEM_IUPAC_INCHI>
InChI=1S/C13H17N5O8S2/c1-5-7(10(20)18(5)28(23,24)25)16-9(19)8(6-4-27-12(14)15-6)17-26-13(2,3)11(21)22/h4-5,7H,1-3H3,(H2,14,15)(H,16,19)(H,21,22)(H,23,24,25)/b17-8-/t5-,7-/m0/s1

> <PUBCHEM_IUPAC_INCHIKEY>
WZPBZJONDBGPKJ-VEHQQRBSSA-N

> <PUBCHEM_XLOGP3_AA>
-0.4

> <PUBCHEM_EXACT_MASS>
435.051855

> <PUBCHEM_MOLECULAR_FORMULA>
C13H17N5O8S2

> <PUBCHEM_MOLECULAR_WEIGHT>
435.43278

> <PUBCHEM_OPENEYE_CAN_SMILES>
CC1C(C(=O)N1S(=O)(=O)[O-])NC(=O)C(=NOC(C)(C)C(=O)O)C2=CSC(=N2)[NH3+]

> <PUBCHEM_OPENEYE_ISO_SMILES>
C[C@H]1[C@@H](C(=O)N1S(=O)(=O)[O-])NC(=O)/C(=N\OC(C)(C)C(=O)O)/C2=CSC(=N2)[NH3+]

> <PUBCHEM_CACTVS_TPSA>
243

> <PUBCHEM_MONOISOTOPIC_WEIGHT>
435.051855

> <PUBCHEM_TOTAL_CHARGE>
0

> <PUBCHEM_HEAVY_ATOM_COUNT>
28

> <PUBCHEM_ATOM_DEF_STEREO_COUNT>
2

> <PUBCHEM_ATOM_UDEF_STEREO_COUNT>
0

> <PUBCHEM_BOND_DEF_STEREO_COUNT>
1

> <PUBCHEM_BOND_UDEF_STEREO_COUNT>
0

> <PUBCHEM_ISOTOPIC_ATOM_COUNT>
0

> <PUBCHEM_COMPONENT_COUNT>
1

> <PUBCHEM_CACTVS_TAUTO_COUNT>
14

> <PUBCHEM_COORDINATE_TYPE>
1
5
255

> <PUBCHEM_BONDANNOTATIONS>
17  12  5
14  23  8
14  28  8
16  19  6
2  26  8
2  28  8
23  26  8

$$$$

