10108706
  -OEChem-07051213152D

 43 45  0     1  0  0  0  0  0999 V2000
    3.1296   -1.7039    0.0000 O   0  0  0  0  0  0  0  0  0  0  0  0
    6.8616   -1.7039    0.0000 O   0  0  0  0  0  0  0  0  0  0  0  0
    2.4141   -0.2430    0.0000 O   0  0  0  0  0  0  0  0  0  0  0  0
    5.4542    1.5122    0.0000 O   0  0  0  0  0  0  0  0  0  0  0  0
    6.7277   -0.2039    0.0000 O   0  0  0  0  0  0  0  0  0  0  0  0
    3.0932    2.4533    0.0000 O   0  0  0  0  0  0  0  0  0  0  0  0
    4.9956   -2.2039    0.0000 C   0  0  0  0  0  0  0  0  0  0  0  0
    5.4956   -3.0699    0.0000 C   0  0  0  0  0  0  0  0  0  0  0  0
    4.4956   -3.0699    0.0000 C   0  0  0  0  0  0  0  0  0  0  0  0
    4.1296   -1.7039    0.0000 C   0  0  2  0  0  0  0  0  0  0  0  0
    5.8616   -1.7039    0.0000 C   0  0  2  0  0  0  0  0  0  0  0  0
    4.1296   -0.7039    0.0000 C   0  0  0  0  0  0  0  0  0  0  0  0
    4.9956   -0.2039    0.0000 C   0  0  0  0  0  0  0  0  0  0  0  0
    3.7977    0.8710    0.0000 C   0  0  1  0  0  0  0  0  0  0  0  0
    3.3926   -0.0368    0.0000 C   0  0  2  0  0  0  0  0  0  0  0  0
    5.8616   -0.7039    0.0000 C   0  0  0  0  0  0  0  0  0  0  0  0
    4.7864    0.7679    0.0000 C   0  0  1  0  0  0  0  0  0  0  0  0
    3.6296   -2.5699    0.0000 C   0  0  0  0  0  0  0  0  0  0  0  0
    6.3616   -2.5699    0.0000 C   0  0  0  0  0  0  0  0  0  0  0  0
    3.9022    1.8655    0.0000 C   0  0  0  0  0  0  0  0  0  0  0  0
    2.8841    1.2777    0.0000 C   0  0  0  0  0  0  0  0  0  0  0  0
    5.6033   -3.6805    0.0000 H   0  0  0  0  0  0  0  0  0  0  0  0
    6.0782   -2.8578    0.0000 H   0  0  0  0  0  0  0  0  0  0  0  0
    3.9130   -2.8578    0.0000 H   0  0  0  0  0  0  0  0  0  0  0  0
    4.3880   -3.6805    0.0000 H   0  0  0  0  0  0  0  0  0  0  0  0
    3.2308   -0.6353    0.0000 H   0  0  0  0  0  0  0  0  0  0  0  0
    4.5635    1.3465    0.0000 H   0  0  0  0  0  0  0  0  0  0  0  0
    3.0926   -2.2599    0.0000 H   0  0  0  0  0  0  0  0  0  0  0  0
    3.3196   -3.1068    0.0000 H   0  0  0  0  0  0  0  0  0  0  0  0
    4.1665   -2.8799    0.0000 H   0  0  0  0  0  0  0  0  0  0  0  0
    5.8247   -2.8799    0.0000 H   0  0  0  0  0  0  0  0  0  0  0  0
    6.6716   -3.1068    0.0000 H   0  0  0  0  0  0  0  0  0  0  0  0
    6.8986   -2.2599    0.0000 H   0  0  0  0  0  0  0  0  0  0  0  0
    2.8196   -2.2408    0.0000 H   0  0  0  0  0  0  0  0  0  0  0  0
    7.1716   -2.2408    0.0000 H   0  0  0  0  0  0  0  0  0  0  0  0
    4.4982    1.6946    0.0000 H   0  0  0  0  0  0  0  0  0  0  0  0
    4.1740    2.4228    0.0000 H   0  0  0  0  0  0  0  0  0  0  0  0
    3.1363    1.8441    0.0000 H   0  0  0  0  0  0  0  0  0  0  0  0
    2.3177    1.5299    0.0000 H   0  0  0  0  0  0  0  0  0  0  0  0
    2.6320    0.7113    0.0000 H   0  0  0  0  0  0  0  0  0  0  0  0
    2.0000    0.2185    0.0000 H   0  0  0  0  0  0  0  0  0  0  0  0
    5.2616    2.1016    0.0000 H   0  0  0  0  0  0  0  0  0  0  0  0
    3.1580    3.0699    0.0000 H   0  0  0  0  0  0  0  0  0  0  0  0
 10  1  1  1  0  0  0
  1 34  1  0  0  0  0
 11  2  1  6  0  0  0
  2 35  1  0  0  0  0
 15  3  1  1  0  0  0
  3 41  1  0  0  0  0
 17  4  1  1  0  0  0
  4 42  1  0  0  0  0
  5 16  2  0  0  0  0
  6 20  1  0  0  0  0
  6 43  1  0  0  0  0
  7  8  1  0  0  0  0
  7  9  1  0  0  0  0
  7 10  1  0  0  0  0
  7 11  1  0  0  0  0
  8  9  1  0  0  0  0
  8 22  1  0  0  0  0
  8 23  1  0  0  0  0
  9 24  1  0  0  0  0
  9 25  1  0  0  0  0
 10 12  1  0  0  0  0
 10 18  1  0  0  0  0
 11 16  1  0  0  0  0
 11 19  1  0  0  0  0
 12 13  2  0  0  0  0
 12 15  1  0  0  0  0
 13 16  1  0  0  0  0
 13 17  1  0  0  0  0
 14 15  1  0  0  0  0
 14 17  1  0  0  0  0
 14 20  1  0  0  0  0
 14 21  1  1  0  0  0
 15 26  1  0  0  0  0
 17 27  1  0  0  0  0
 18 28  1  0  0  0  0
 18 29  1  0  0  0  0
 18 30  1  0  0  0  0
 19 31  1  0  0  0  0
 19 32  1  0  0  0  0
 19 33  1  0  0  0  0
 20 36  1  0  0  0  0
 20 37  1  0  0  0  0
 21 38  1  0  0  0  0
 21 39  1  0  0  0  0
 21 40  1  0  0  0  0
M  END
> <PUBCHEM_COMPOUND_CID>
10108706

> <PUBCHEM_COMPOUND_CANONICALIZED>
1

> <PUBCHEM_CACTVS_COMPLEXITY>
565

> <PUBCHEM_CACTVS_HBOND_ACCEPTOR>
6

> <PUBCHEM_CACTVS_HBOND_DONOR>
5

> <PUBCHEM_CACTVS_ROTATABLE_BOND>
1

> <PUBCHEM_CACTVS_SUBSKEYS>
AAADceBwOAAAAAAAAAAAAAAAGAAAAQAAAAAgAAAAAAAAAGAAAAAAGgAACAAADlSggAICAAAAAgCIAoBQAAIAAAAgAAAACAFAAEgAFBYAAAAAUAAF4AAIEQPK7PTPgAAAAAAAAAAAAAAAAAAAAAAAAAAAAA==

> <PUBCHEM_IUPAC_OPENEYE_NAME>
(1S,2S,3R,5R,7S)-1,3,5,7-tetrahydroxy-2-(hydroxymethyl)-2,5,7-trimethyl-spiro[1,3-dihydroindene-6,1'-cyclopropane]-4-one

> <PUBCHEM_IUPAC_CAS_NAME>
(1S,2S,3R,5R,7S)-1,3,5,7-tetrahydroxy-2-(hydroxymethyl)-2,5,7-trimethyl-4-spiro[1,3-dihydroindene-6,1'-cyclopropane]one

> <PUBCHEM_IUPAC_NAME>
(1S,2S,3R,5R,7S)-1,3,5,7-tetrahydroxy-2-(hydroxymethyl)-2,5,7-trimethylspiro[1,3-dihydroindene-6,1'-cyclopropane]-4-one

> <PUBCHEM_IUPAC_SYSTEMATIC_NAME>
(1S,2S,3R,5R,7S)-2-(hydroxymethyl)-2,5,7-trimethyl-1,3,5,7-tetrakis(oxidanyl)spiro[1,3-dihydroindene-6,1'-cyclopropane]-4-one

> <PUBCHEM_IUPAC_TRADITIONAL_NAME>
(1S,2S,3R,5R,7S)-1,3,5,7-tetrahydroxy-2,5,7-trimethyl-2-methylol-spiro[1,3-dihydroindene-6,1'-cyclopropane]-4-one

> <PUBCHEM_IUPAC_INCHI>
InChI=1S/C15H22O6/c1-12(6-16)9(17)7-8(11(12)19)13(2,20)15(4-5-15)14(3,21)10(7)18/h9,11,16-17,19-21H,4-6H2,1-3H3/t9-,11+,12+,13-,14-/m0/s1

> <PUBCHEM_IUPAC_INCHIKEY>
ICXBWQYPMZJOAM-OMRNGCIESA-N

> <PUBCHEM_XLOGP3_AA>
-2

> <PUBCHEM_EXACT_MASS>
298.141638

> <PUBCHEM_MOLECULAR_FORMULA>
C15H22O6

> <PUBCHEM_MOLECULAR_WEIGHT>
298.33158

> <PUBCHEM_OPENEYE_CAN_SMILES>
CC1(C(C2=C(C1O)C(C3(CC3)C(C2=O)(C)O)(C)O)O)CO

> <PUBCHEM_OPENEYE_ISO_SMILES>
C[C@]1([C@H](C2=C([C@H]1O)[C@](C3(CC3)[C@@](C2=O)(C)O)(C)O)O)CO

> <PUBCHEM_CACTVS_TPSA>
118

> <PUBCHEM_MONOISOTOPIC_WEIGHT>
298.141638

> <PUBCHEM_TOTAL_CHARGE>
0

> <PUBCHEM_HEAVY_ATOM_COUNT>
21

> <PUBCHEM_ATOM_DEF_STEREO_COUNT>
5

> <PUBCHEM_ATOM_UDEF_STEREO_COUNT>
0

> <PUBCHEM_BOND_DEF_STEREO_COUNT>
0

> <PUBCHEM_BOND_UDEF_STEREO_COUNT>
0

> <PUBCHEM_ISOTOPIC_ATOM_COUNT>
0

> <PUBCHEM_COMPONENT_COUNT>
1

> <PUBCHEM_CACTVS_TAUTO_COUNT>
1

> <PUBCHEM_COORDINATE_TYPE>
1
5
255

> <PUBCHEM_BONDANNOTATIONS>
10  1  5
14  21  5
11  2  6
15  3  5
17  4  5

$$$$

