   Color/Form
        GOLDEN YELLOW PLATES FROM XYLENE OR TRICHLOROBENZENE
   from [1]HSDB

   Melting Point
        317 deg C
   from [2]HSDB

   Solubilities

     * SOL IN SULFURIC ACID
     * Soluble in 1,4-dioxane

   from [3]HSDB

   Spectral Properties

     * UV: 248 (Friedel and Orchin, Ultraviolet Spectra of Aromatic
       Compounds, John Wiley & Sons, New York)
     * MASS: 2020 (National Bureau of Standards EPA-NIH Mass Spectra Data
       Base, NSRDS-NBS-63)
     * Lambda max: 216, 237, 246, 254, 267, 285, 297, 309, 385, 419, 441,
       445 nm (in cyclohexane).

   from [4]HSDB

   Other Chemical/Physical Properties
        IN SULFURIC ACID SOLN HAS RED COLOR, CHANGING LATER INTO VIOLET OR
   BLUE
   from [5]HSDB

   Computed Properties
   Molecular Weight                  302.36796 [g/mol]
   Molecular Formula                 C[24]H[14]
   XLogP3-AA                         7
   H-Bond Donor                      0
   H-Bond Acceptor                   0
   Rotatable Bond Count              0
   Exact Mass                        302.10955
   MonoIsotopic Mass                 302.10955
   Topological Polar Surface Area    0
   Heavy Atom Count                  24
   Formal Charge                     0
   Complexity                        436
   Isotope Atom Count                0
   Defined Atom Stereocenter Count   0
   Undefined Atom Stereocenter Count 0
   Defined Bond Stereocenter Count   0
   Undefined Bond Stereocenter Count 0
   Covalently-Bonded Unit Count      1
   Feature 3D Ring Count             6
   Effective Rotor Count             0
   Conformer Sampling RMSD           0.6
   CID Conformer Count               [6]1

References

   1. http://toxnet.nlm.nih.gov/cgi-bin/sis/search/r?dbs+hsdb:@term+@rn+@rel+189-64-0
   2. http://toxnet.nlm.nih.gov/cgi-bin/sis/search/r?dbs+hsdb:@term+@rn+@rel+189-64-0
   3. http://toxnet.nlm.nih.gov/cgi-bin/sis/search/r?dbs+hsdb:@term+@rn+@rel+189-64-0
   4. http://toxnet.nlm.nih.gov/cgi-bin/sis/search/r?dbs+hsdb:@term+@rn+@rel+189-64-0
   5. http://toxnet.nlm.nih.gov/cgi-bin/sis/search/r?dbs+hsdb:@term+@rn+@rel+189-64-0
   6. http://pubchem.ncbi.nlm.nih.gov/vw3d/vw3d.cgi?cid=9108
