   Color/Form

     * Colorless liquid
     * Clear light-colored oil

   from [1]HSDB

   Boiling Point
        175 deg C at 0.1 mm Hg
   from [2]HSDB

   Melting Point
        -31.7 deg C
   from [3]HSDB

   Corrosivity
        Noncorrosive
   from [4]HSDB

   Density/Specific Gravity
        1.143 at 20 deg C/20 deg C
   from [5]HSDB

   Octanol/Water Partition Coefficient
        log Kow = 4.82 (est)
   from [6]HSDB

   Solubilities

     * Practically insol in water; miscible with many organic solvents;
       solubility in petroleum oils decr rapidly with decr temperatures
     * > 10% in ethanol
     * > 10% in benzene
     * > 10% in acetone
     * > 10% in ether
     * Water solubility of 0.1 ppm.
     * In water, 0.59 mg/L at 25 deg C (est)

   from [7]HSDB

   Spectral Properties

     * Index of refraciton: 1.5100-1.5118 at 20 deg C/D; 1.5075 at 27 deg
       C/D
     * Intense mass spectral peaks: 191 M/z (100%), 57 M/z (89%), 185 M/z
       (88%), 63 M/z (84%)
     * MASS: 60310 (NIST/EPA/MSDC Mass Spectral Database, 1990 Version);
       1085 (National Bureau of Standards)

   from [8]HSDB

   Vapor Pressure
        2.18X10-7 mm Hg at 25 deg C (est)
   from [9]HSDB

   Other Chemical/Physical Properties

     * DENSITY: 1.145-1.162 /TECHNICAL PRODUCT/
     * DARK AMBER LIQUID /TECHNICAL PRODUCT/
     * INCOMPATIBLE WITH ALKALINE MATERIALS SUCH AS LIME OR BORDEAUX
       MIXTURE.
     * BP: 195 deg C at 2 mm Hg
     * Henry's Law constant = 1.90X10-7 atm cu m/mole at 25 deg C (est)
     * Hydroxyl radical reaction rate constant = 3.58X10-11 cu
       cm/molec-sec at 25 deg C (est)

   from [10]HSDB

   Computed Properties
   Molecular Weight                  334.85872 [g/mol]
   Molecular Formula                 C[15]H[23]ClO[4]S
   XLogP3-AA                         4.6
   H-Bond Donor                      0
   H-Bond Acceptor                   5
   Rotatable Bond Count              9
   Exact Mass                        334.100558
   MonoIsotopic Mass                 334.100558
   Topological Polar Surface Area    64
   Heavy Atom Count                  21
   Formal Charge                     0
   Complexity                        311
   Isotope Atom Count                0
   Defined Atom Stereocenter Count   0
   Undefined Atom Stereocenter Count 2
   Defined Bond Stereocenter Count   0
   Undefined Bond Stereocenter Count 0
   Covalently-Bonded Unit Count      1
   Feature 3D Acceptor Count         2
   Feature 3D Hydrophobe Count       1
   Feature 3D Ring Count             1
   Effective Rotor Count             9
   Conformer Sampling RMSD           1
   CID Conformer Count               [11]169

References

   1. http://toxnet.nlm.nih.gov/cgi-bin/sis/search/r?dbs+hsdb:@term+@rn+@rel+140-57-8
   2. http://toxnet.nlm.nih.gov/cgi-bin/sis/search/r?dbs+hsdb:@term+@rn+@rel+140-57-8
   3. http://toxnet.nlm.nih.gov/cgi-bin/sis/search/r?dbs+hsdb:@term+@rn+@rel+140-57-8
   4. http://toxnet.nlm.nih.gov/cgi-bin/sis/search/r?dbs+hsdb:@term+@rn+@rel+140-57-8
   5. http://toxnet.nlm.nih.gov/cgi-bin/sis/search/r?dbs+hsdb:@term+@rn+@rel+140-57-8
   6. http://toxnet.nlm.nih.gov/cgi-bin/sis/search/r?dbs+hsdb:@term+@rn+@rel+140-57-8
   7. http://toxnet.nlm.nih.gov/cgi-bin/sis/search/r?dbs+hsdb:@term+@rn+@rel+140-57-8
   8. http://toxnet.nlm.nih.gov/cgi-bin/sis/search/r?dbs+hsdb:@term+@rn+@rel+140-57-8
   9. http://toxnet.nlm.nih.gov/cgi-bin/sis/search/r?dbs+hsdb:@term+@rn+@rel+140-57-8
  10. http://toxnet.nlm.nih.gov/cgi-bin/sis/search/r?dbs+hsdb:@term+@rn+@rel+140-57-8
  11. http://pubchem.ncbi.nlm.nih.gov/vw3d/vw3d.cgi?cid=8809
