   Color/Form

     * FINE SILKY NEEDLES
     * White crystals

   from [1]HSDB

   Melting Point
        344 Deg C
   from [2]HSDB

   Dissociation Constants
        pK values= 2.20, 9.11 and 10.07 for the acid, base and phenol
   groups, respectively
   from [3]HSDB

   Octanol/Water Partition Coefficient
        log Kow= 2.26
   from [4]HSDB

   pH
        5.66 (at isoelectric point)
   from [5]HSDB

   Solubilities

     * SOLUBILITY IN WATER 0.453 G/L @ 25 DEG C; INSOL IN ABSOLUTE
       ALCOHOL, ETHER, ACETONE; SOL IN ALKALINE SOLN
     * SLIGHTLY SOL IN ACETIC ACID

   from [6]HSDB

   Spectral Properties

     * SPECIFIC OPTICAL ROTATION: -10.6 DEG @ 22 DEG C/D (C= 4 IN N
       HYDROCHLORIC ACID)
     * MAX ABSORPTION (0.5 N SULFURIC ACID): 275 NM (A= 450, 1 %, 1 CM);
       294 NM (A= 800, 1 %, 1 CM)
     * UV: 4-231 (Organic Electronic Spectral Data, Phillips et al, John
       Wiley & Sons, New York)
     * MASS: 923 (National Bureau of Standards EPA-NIH Mass Spectra Data
       Base, NSRDS-NBS-63)

   from [7]HSDB

   Other Chemical/Physical Properties

     * BOILING POINT: SUBLIMES
     * OPTICALLY ACTIVE
     * DECOMP @ 342-344 DEG C (CLOSED CAPILLARY, BATH PREHEATED TO 280 DEG
       C, RAPID HEATING
     * IR: 17242 (Sadtler Research Laboratories IR Grating Collection)
       /Tyrosine (d)/
     * MASS: 923 (National Bureau of Standards EPA-NIH Mass Spectra Data
       Base, NSRDS-NBS-63) /Tyrosine (d)/
     * UV: 6-233 (Organic Electronic Spectral Data, Phillips et al, John
       Wiley & Sons, New York) /Tyrosine (dl)/
     * MASS: 923 (National Bureau of Standards EPA-NIH Mass Spectra Data
       Base, NSRDS-NBS-63) /Tyrosine (dl)/

   from [8]HSDB

   Computed Properties
   Molecular Weight                  181.18854 [g/mol]
   Molecular Formula                 C[9]H[11]NO[3]
   XLogP3                            -2.3
   H-Bond Donor                      3
   H-Bond Acceptor                   4
   Rotatable Bond Count              3
   Tautomer Count                    2
   Exact Mass                        181.073893
   MonoIsotopic Mass                 181.073893
   Topological Polar Surface Area    83.6
   Heavy Atom Count                  13
   Formal Charge                     0
   Complexity                        176
   Isotope Atom Count                0
   Defined Atom Stereocenter Count   1
   Undefined Atom Stereocenter Count 0
   Defined Bond Stereocenter Count   0
   Undefined Bond Stereocenter Count 0
   Covalently-Bonded Unit Count      1
   Feature 3D Acceptor Count         2
   Feature 3D Donor Count            2
   Feature 3D Anion Count            1
   Feature 3D Cation Count           1
   Feature 3D Ring Count             1
   Effective Rotor Count             3
   Conformer Sampling RMSD           0.6
   CID Conformer Count               [9]10

References

   1. http://toxnet.nlm.nih.gov/cgi-bin/sis/search/r?dbs+hsdb:@term+@rn+@rel+60-18-4
   2. http://toxnet.nlm.nih.gov/cgi-bin/sis/search/r?dbs+hsdb:@term+@rn+@rel+60-18-4
   3. http://toxnet.nlm.nih.gov/cgi-bin/sis/search/r?dbs+hsdb:@term+@rn+@rel+60-18-4
   4. http://toxnet.nlm.nih.gov/cgi-bin/sis/search/r?dbs+hsdb:@term+@rn+@rel+60-18-4
   5. http://toxnet.nlm.nih.gov/cgi-bin/sis/search/r?dbs+hsdb:@term+@rn+@rel+60-18-4
   6. http://toxnet.nlm.nih.gov/cgi-bin/sis/search/r?dbs+hsdb:@term+@rn+@rel+60-18-4
   7. http://toxnet.nlm.nih.gov/cgi-bin/sis/search/r?dbs+hsdb:@term+@rn+@rel+60-18-4
   8. http://toxnet.nlm.nih.gov/cgi-bin/sis/search/r?dbs+hsdb:@term+@rn+@rel+60-18-4
   9. http://pubchem.ncbi.nlm.nih.gov/vw3d/vw3d.cgi?cid=6057
