14077830
  -OEChem-07051213102D

 38 41  0     1  0  0  0  0  0999 V2000
    6.1621   -0.7228    0.0000 O   0  0  0  0  0  0  0  0  0  0  0  0
    8.3061    1.3457    0.0000 O   0  0  0  0  0  0  0  0  0  0  0  0
    4.0521   -1.3244    0.0000 O   0  0  0  0  0  0  0  0  0  0  0  0
    2.6726    0.1814    0.0000 O   0  0  0  0  0  0  0  0  0  0  0  0
   10.9457   -0.9985    0.0000 O   0  0  0  0  0  0  0  0  0  0  0  0
    6.6589    0.8105    0.0000 C   0  0  2  0  0  0  0  0  0  0  0  0
    6.9679   -0.1406    0.0000 C   0  0  2  0  0  0  0  0  0  0  0  0
    5.6648    0.8079    0.0000 C   0  0  0  0  0  0  0  0  0  0  0  0
    7.3280    1.5536    0.0000 C   0  0  0  0  0  0  0  0  0  0  0  0
    7.9460   -0.3485    0.0000 C   0  0  0  0  0  0  0  0  0  0  0  0
    5.3584   -0.1378    0.0000 C   0  0  0  0  0  0  0  0  0  0  0  0
    8.6152    0.3946    0.0000 C   0  0  0  0  0  0  0  0  0  0  0  0
    4.9832    1.5874    0.0000 C   0  0  0  0  0  0  0  0  0  0  0  0
    4.3492   -0.3696    0.0000 C   0  0  0  0  0  0  0  0  0  0  0  0
    8.2526   -1.3440    0.0000 C   0  0  0  0  0  0  0  0  0  0  0  0
    3.9689    1.3790    0.0000 C   0  0  0  0  0  0  0  0  0  0  0  0
    3.6498    0.3940    0.0000 C   0  0  0  0  0  0  0  0  0  0  0  0
    9.6372    0.1938    0.0000 C   0  0  0  0  0  0  0  0  0  0  0  0
    9.2698   -1.5684    0.0000 C   0  0  0  0  0  0  0  0  0  0  0  0
    9.9668   -0.7943    0.0000 C   0  0  0  0  0  0  0  0  0  0  0  0
    3.0766   -1.5444    0.0000 C   0  0  0  0  0  0  0  0  0  0  0  0
    2.0000    0.9214    0.0000 C   0  0  0  0  0  0  0  0  0  0  0  0
    6.3121    1.5865    0.0000 H   0  0  0  0  0  0  0  0  0  0  0  0
    7.1435   -0.9722    0.0000 H   0  0  0  0  0  0  0  0  0  0  0  0
    7.5602    2.1285    0.0000 H   0  0  0  0  0  0  0  0  0  0  0  0
    6.8022    1.8822    0.0000 H   0  0  0  0  0  0  0  0  0  0  0  0
    5.1811    2.1750    0.0000 H   0  0  0  0  0  0  0  0  0  0  0  0
    7.8324   -1.7999    0.0000 H   0  0  0  0  0  0  0  0  0  0  0  0
    3.5554    1.8410    0.0000 H   0  0  0  0  0  0  0  0  0  0  0  0
   10.0467    0.6593    0.0000 H   0  0  0  0  0  0  0  0  0  0  0  0
    9.4591   -2.1588    0.0000 H   0  0  0  0  0  0  0  0  0  0  0  0
    2.9401   -0.9396    0.0000 H   0  0  0  0  0  0  0  0  0  0  0  0
    2.4718   -1.6809    0.0000 H   0  0  0  0  0  0  0  0  0  0  0  0
    3.2130   -2.1492    0.0000 H   0  0  0  0  0  0  0  0  0  0  0  0
   11.1396   -1.5874    0.0000 H   0  0  0  0  0  0  0  0  0  0  0  0
    2.4588    1.3385    0.0000 H   0  0  0  0  0  0  0  0  0  0  0  0
    1.5830    1.3802    0.0000 H   0  0  0  0  0  0  0  0  0  0  0  0
    1.5412    0.5044    0.0000 H   0  0  0  0  0  0  0  0  0  0  0  0
  1  7  1  0  0  0  0
  1 11  1  0  0  0  0
  2  9  1  0  0  0  0
  2 12  1  0  0  0  0
  3 14  1  0  0  0  0
  3 21  1  0  0  0  0
  4 17  1  0  0  0  0
  4 22  1  0  0  0  0
  5 20  1  0  0  0  0
  5 35  1  0  0  0  0
  6  7  1  0  0  0  0
  6  8  1  0  0  0  0
  6  9  1  0  0  0  0
  6 23  1  1  0  0  0
  7 10  1  0  0  0  0
  7 24  1  1  0  0  0
  8 11  2  0  0  0  0
  8 13  1  0  0  0  0
  9 25  1  0  0  0  0
  9 26  1  0  0  0  0
 10 12  2  0  0  0  0
 10 15  1  0  0  0  0
 11 14  1  0  0  0  0
 12 18  1  0  0  0  0
 13 16  2  0  0  0  0
 13 27  1  0  0  0  0
 14 17  2  0  0  0  0
 15 19  2  0  0  0  0
 15 28  1  0  0  0  0
 16 17  1  0  0  0  0
 16 29  1  0  0  0  0
 18 20  2  0  0  0  0
 18 30  1  0  0  0  0
 19 20  1  0  0  0  0
 19 31  1  0  0  0  0
 21 32  1  0  0  0  0
 21 33  1  0  0  0  0
 21 34  1  0  0  0  0
 22 36  1  0  0  0  0
 22 37  1  0  0  0  0
 22 38  1  0  0  0  0
M  END
> <PUBCHEM_COMPOUND_CID>
14077830

> <PUBCHEM_COMPOUND_CANONICALIZED>
1

> <PUBCHEM_CACTVS_COMPLEXITY>
403

> <PUBCHEM_CACTVS_HBOND_ACCEPTOR>
5

> <PUBCHEM_CACTVS_HBOND_DONOR>
1

> <PUBCHEM_CACTVS_ROTATABLE_BOND>
2

> <PUBCHEM_CACTVS_SUBSKEYS>
AAADceB4OAAAAAAAAAAAAAAAAAAAASAAAAA0YIAAAAAAAEiRQAAAGgAACAAADRSgmAIyBoAABgCAAiBCAAACCAAgIAAIiAAGiIgNJyKGMRqCeCKlwBUKuAfA4PwOoAABCAAIQABAAAIQABCAAAAAAAAAAA==

> <PUBCHEM_IUPAC_OPENEYE_NAME>
(6aR,11aR)-9,10-dimethoxy-6a,11a-dihydro-6H-benzofuro[3,2-c]chromen-3-ol

> <PUBCHEM_IUPAC_CAS_NAME>
(6aR,11aR)-9,10-dimethoxy-6a,11a-dihydro-6H-benzofuro[3,2-c][1]benzopyran-3-ol

> <PUBCHEM_IUPAC_NAME>
(6aR,11aR)-9,10-dimethoxy-6a,11a-dihydro-6H-[1]benzofuro[3,2-c]chromen-3-ol

> <PUBCHEM_IUPAC_SYSTEMATIC_NAME>
(6aR,11aR)-9,10-dimethoxy-6a,11a-dihydro-6H-[1]benzofuro[3,2-c]chromen-3-ol

> <PUBCHEM_IUPAC_TRADITIONAL_NAME>
(6aR,11aR)-9,10-dimethoxy-6a,11a-dihydro-6H-benzofuro[3,2-c]chromen-3-ol

> <PUBCHEM_IUPAC_INCHI>
InChI=1S/C17H16O5/c1-19-13-6-5-10-12-8-21-14-7-9(18)3-4-11(14)15(12)22-16(10)17(13)20-2/h3-7,12,15,18H,8H2,1-2H3/t12-,15-/m0/s1

> <PUBCHEM_IUPAC_INCHIKEY>
UOVGCLXUTLXAEC-WFASDCNBSA-N

> <PUBCHEM_XLOGP3_AA>
2.6

> <PUBCHEM_EXACT_MASS>
300.099774

> <PUBCHEM_MOLECULAR_FORMULA>
C17H16O5

> <PUBCHEM_MOLECULAR_WEIGHT>
300.30594

> <PUBCHEM_OPENEYE_CAN_SMILES>
COC1=C(C2=C(C=C1)C3COC4=C(C3O2)C=CC(=C4)O)OC

> <PUBCHEM_OPENEYE_ISO_SMILES>
COC1=C(C2=C(C=C1)[C@@H]3COC4=C([C@@H]3O2)C=CC(=C4)O)OC

> <PUBCHEM_CACTVS_TPSA>
57.2

> <PUBCHEM_MONOISOTOPIC_WEIGHT>
300.099774

> <PUBCHEM_TOTAL_CHARGE>
0

> <PUBCHEM_HEAVY_ATOM_COUNT>
22

> <PUBCHEM_ATOM_DEF_STEREO_COUNT>
2

> <PUBCHEM_ATOM_UDEF_STEREO_COUNT>
0

> <PUBCHEM_BOND_DEF_STEREO_COUNT>
0

> <PUBCHEM_BOND_UDEF_STEREO_COUNT>
0

> <PUBCHEM_ISOTOPIC_ATOM_COUNT>
0

> <PUBCHEM_COMPONENT_COUNT>
1

> <PUBCHEM_CACTVS_TAUTO_COUNT>
3

> <PUBCHEM_COORDINATE_TYPE>
1
5
255

> <PUBCHEM_BONDANNOTATIONS>
10  12  8
10  15  8
11  14  8
12  18  8
13  16  8
14  17  8
15  19  8
16  17  8
18  20  8
19  20  8
6  23  5
7  24  5
8  11  8
8  13  8

$$$$

