   Color/Form

     * Yellow crystals
     * White, crystalline powder

   from [1]HSDB

   Odor
        Odorless
   from [2]HSDB

   Melting Point
        Decomposes at 273 deg C
   from [3]HSDB

   pH
        pH= 3.5 to 4.5 (2% solution)
   from [4]HSDB

   Solubilities

     * Very slightly soluble in ether and alcohol
     * In 95% ethanol, 0.2 g/100 ml
     * In water, 44.2 g/l @ 25 deg C; 30.1 g/l @ 15 deg C

   from [5]HSDB

   Spectral Properties
        UV max (0.001% aqueous soln): 211, 240, 260, 304, and 315 nm
   from [6]HSDB

   Other Chemical/Physical Properties
        Aqueous solution contained 20 mg/l may be preserved with 0.5%
   chlorobutanol
   from [7]HSDB

   Computed Properties
   Molecular Weight                  160.17592 [g/mol]
   Molecular Formula                 C[8]H[8]N[4]
   XLogP3                            0.7
   H-Bond Donor                      2
   H-Bond Acceptor                   4
   Rotatable Bond Count              1
   Tautomer Count                    2
   Exact Mass                        160.074896
   MonoIsotopic Mass                 160.074896
   Topological Polar Surface Area    63.8
   Heavy Atom Count                  12
   Formal Charge                     0
   Complexity                        150
   Isotope Atom Count                0
   Defined Atom Stereocenter Count   0
   Undefined Atom Stereocenter Count 0
   Defined Bond Stereocenter Count   0
   Undefined Bond Stereocenter Count 0
   Covalently-Bonded Unit Count      1
   Feature 3D Acceptor Count         1
   Feature 3D Donor Count            2
   Feature 3D Cation Count           1
   Feature 3D Ring Count             2
   Effective Rotor Count             1
   Conformer Sampling RMSD           0.4
   CID Conformer Count               [8]3

References

   1. http://toxnet.nlm.nih.gov/cgi-bin/sis/search/r?dbs+hsdb:@term+@rn+@rel+304-20-1
   2. http://toxnet.nlm.nih.gov/cgi-bin/sis/search/r?dbs+hsdb:@term+@rn+@rel+304-20-1
   3. http://toxnet.nlm.nih.gov/cgi-bin/sis/search/r?dbs+hsdb:@term+@rn+@rel+304-20-1
   4. http://toxnet.nlm.nih.gov/cgi-bin/sis/search/r?dbs+hsdb:@term+@rn+@rel+304-20-1
   5. http://toxnet.nlm.nih.gov/cgi-bin/sis/search/r?dbs+hsdb:@term+@rn+@rel+304-20-1
   6. http://toxnet.nlm.nih.gov/cgi-bin/sis/search/r?dbs+hsdb:@term+@rn+@rel+304-20-1
   7. http://toxnet.nlm.nih.gov/cgi-bin/sis/search/r?dbs+hsdb:@term+@rn+@rel+304-20-1
   8. http://pubchem.ncbi.nlm.nih.gov/vw3d/vw3d.cgi?cid=3637
