4515
  -OEChem-06261200112D

 48 50  0     1  0  0  0  0  0999 V2000
    5.4641   -1.1550    0.0000 O   0  0  0  0  0  0  0  0  0  0  0  0
    2.8660    4.3450    0.0000 O   0  0  0  0  0  0  0  0  0  0  0  0
    2.0000    2.8450    0.0000 O   0  0  0  0  0  0  0  0  0  0  0  0
    4.5981    1.3450    0.0000 N   0  0  3  0  0  0  0  0  0  0  0  0
    6.3301   -1.6550    0.0000 N   0  0  0  0  0  0  0  0  0  0  0  0
    5.4641    1.8450    0.0000 C   0  0  0  0  0  0  0  0  0  0  0  0
    3.7320    1.8450    0.0000 C   0  0  0  0  0  0  0  0  0  0  0  0
    5.4641    2.8450    0.0000 C   0  0  0  0  0  0  0  0  0  0  0  0
    4.5981    0.3450    0.0000 C   0  0  0  0  0  0  0  0  0  0  0  0
    3.7320    2.8450    0.0000 C   0  0  0  0  0  0  0  0  0  0  0  0
    4.5981    3.3450    0.0000 C   0  0  0  0  0  0  0  0  0  0  0  0
    5.4641   -0.1550    0.0000 C   0  0  0  0  0  0  0  0  0  0  0  0
    2.8660    3.3450    0.0000 C   0  0  0  0  0  0  0  0  0  0  0  0
    6.3301   -2.6550    0.0000 C   0  0  0  0  0  0  0  0  0  0  0  0
    7.1962   -3.1550    0.0000 C   0  0  0  0  0  0  0  0  0  0  0  0
    5.4641   -3.1550    0.0000 C   0  0  0  0  0  0  0  0  0  0  0  0
    7.1962   -4.1550    0.0000 C   0  0  0  0  0  0  0  0  0  0  0  0
    4.5981   -2.6550    0.0000 C   0  0  0  0  0  0  0  0  0  0  0  0
    8.0622   -2.6550    0.0000 C   0  0  0  0  0  0  0  0  0  0  0  0
    5.4641   -4.1550    0.0000 C   0  0  0  0  0  0  0  0  0  0  0  0
    8.0622   -4.6550    0.0000 C   0  0  0  0  0  0  0  0  0  0  0  0
    3.7320   -3.1550    0.0000 C   0  0  0  0  0  0  0  0  0  0  0  0
    8.9282   -3.1550    0.0000 C   0  0  0  0  0  0  0  0  0  0  0  0
    4.5981   -4.6550    0.0000 C   0  0  0  0  0  0  0  0  0  0  0  0
    8.9282   -4.1550    0.0000 C   0  0  0  0  0  0  0  0  0  0  0  0
    3.7320   -4.1550    0.0000 C   0  0  0  0  0  0  0  0  0  0  0  0
    5.6762    1.2624    0.0000 H   0  0  0  0  0  0  0  0  0  0  0  0
    6.0747    1.9527    0.0000 H   0  0  0  0  0  0  0  0  0  0  0  0
    3.1215    1.9527    0.0000 H   0  0  0  0  0  0  0  0  0  0  0  0
    3.5200    1.2624    0.0000 H   0  0  0  0  0  0  0  0  0  0  0  0
    6.0747    2.7373    0.0000 H   0  0  0  0  0  0  0  0  0  0  0  0
    5.6762    3.4276    0.0000 H   0  0  0  0  0  0  0  0  0  0  0  0
    3.9875    0.4527    0.0000 H   0  0  0  0  0  0  0  0  0  0  0  0
    4.3860   -0.2376    0.0000 H   0  0  0  0  0  0  0  0  0  0  0  0
    4.5981    3.9650    0.0000 H   0  0  0  0  0  0  0  0  0  0  0  0
    6.0747   -0.2627    0.0000 H   0  0  0  0  0  0  0  0  0  0  0  0
    5.6762    0.4276    0.0000 H   0  0  0  0  0  0  0  0  0  0  0  0
    2.3291    4.6550    0.0000 H   0  0  0  0  0  0  0  0  0  0  0  0
    6.6592   -4.4650    0.0000 H   0  0  0  0  0  0  0  0  0  0  0  0
    4.5981   -2.0350    0.0000 H   0  0  0  0  0  0  0  0  0  0  0  0
    8.0622   -2.0350    0.0000 H   0  0  0  0  0  0  0  0  0  0  0  0
    6.0010   -4.4650    0.0000 H   0  0  0  0  0  0  0  0  0  0  0  0
    8.0622   -5.2750    0.0000 H   0  0  0  0  0  0  0  0  0  0  0  0
    3.1951   -2.8450    0.0000 H   0  0  0  0  0  0  0  0  0  0  0  0
    9.4651   -2.8450    0.0000 H   0  0  0  0  0  0  0  0  0  0  0  0
    4.5981   -5.2750    0.0000 H   0  0  0  0  0  0  0  0  0  0  0  0
    9.4651   -4.4650    0.0000 H   0  0  0  0  0  0  0  0  0  0  0  0
    3.1951   -4.4650    0.0000 H   0  0  0  0  0  0  0  0  0  0  0  0
  1  5  1  0  0  0  0
  1 12  1  0  0  0  0
  2 13  1  0  0  0  0
  2 38  1  0  0  0  0
  3 13  2  0  0  0  0
  4  6  1  0  0  0  0
  4  7  1  0  0  0  0
  4  9  1  0  0  0  0
  5 14  2  0  0  0  0
  6  8  1  0  0  0  0
  6 27  1  0  0  0  0
  6 28  1  0  0  0  0
  7 10  1  0  0  0  0
  7 29  1  0  0  0  0
  7 30  1  0  0  0  0
  8 11  1  0  0  0  0
  8 31  1  0  0  0  0
  8 32  1  0  0  0  0
  9 12  1  0  0  0  0
  9 33  1  0  0  0  0
  9 34  1  0  0  0  0
 10 11  2  0  0  0  0
 10 13  1  0  0  0  0
 11 35  1  0  0  0  0
 12 36  1  0  0  0  0
 12 37  1  0  0  0  0
 14 15  1  0  0  0  0
 14 16  1  0  0  0  0
 15 17  2  0  0  0  0
 15 19  1  0  0  0  0
 16 18  2  0  0  0  0
 16 20  1  0  0  0  0
 17 21  1  0  0  0  0
 17 39  1  0  0  0  0
 18 22  1  0  0  0  0
 18 40  1  0  0  0  0
 19 23  2  0  0  0  0
 19 41  1  0  0  0  0
 20 24  2  0  0  0  0
 20 42  1  0  0  0  0
 21 25  2  0  0  0  0
 21 43  1  0  0  0  0
 22 26  2  0  0  0  0
 22 44  1  0  0  0  0
 23 25  1  0  0  0  0
 23 45  1  0  0  0  0
 24 26  1  0  0  0  0
 24 46  1  0  0  0  0
 25 47  1  0  0  0  0
 26 48  1  0  0  0  0
M  END
> <PUBCHEM_COMPOUND_CID>
4515

> <PUBCHEM_COMPOUND_CANONICALIZED>
1

> <PUBCHEM_CACTVS_COMPLEXITY>
497

> <PUBCHEM_CACTVS_HBOND_ACCEPTOR>
5

> <PUBCHEM_CACTVS_HBOND_DONOR>
1

> <PUBCHEM_CACTVS_ROTATABLE_BOND>
7

> <PUBCHEM_CACTVS_SUBSKEYS>
AAADceB7MAAAAAAAAAAAAAAAAAAAAAAAAAAwYIAAAAAAAAABQAAAHgAECAAADAjhmAYwCIMQAgCoAyDyCACCAAAgAAAIiAEoANgKJKqAERCEcAAigACYmYcAgMAOAAAAAAAAAAAAAAAAAAAAAAAAAAAAAA==

> <PUBCHEM_IUPAC_OPENEYE_NAME>
1-[2-(benzhydrylideneamino)oxyethyl]-3,6-dihydro-2H-pyridine-5-carboxylic acid

> <PUBCHEM_IUPAC_CAS_NAME>
1-[2-[(diphenylmethylene)amino]oxyethyl]-3,6-dihydro-2H-pyridine-5-carboxylic acid

> <PUBCHEM_IUPAC_NAME>
1-[2-(benzhydrylideneamino)oxyethyl]-3,6-dihydro-2H-pyridine-5-carboxylic acid

> <PUBCHEM_IUPAC_SYSTEMATIC_NAME>
1-[2-[(diphenylmethylidene)amino]oxyethyl]-3,6-dihydro-2H-pyridine-5-carboxylic acid

> <PUBCHEM_IUPAC_TRADITIONAL_NAME>
1-[2-(benzhydrylideneamino)oxyethyl]-3,6-dihydro-2H-pyridine-5-carboxylic acid

> <PUBCHEM_IUPAC_INCHI>
InChI=1S/C21H22N2O3/c24-21(25)19-12-7-13-23(16-19)14-15-26-22-20(17-8-3-1-4-9-17)18-10-5-2-6-11-18/h1-6,8-12H,7,13-16H2,(H,24,25)

> <PUBCHEM_IUPAC_INCHIKEY>
NGNALWDRPKNJGR-UHFFFAOYSA-N

> <PUBCHEM_XLOGP3_AA>
1.5

> <PUBCHEM_EXACT_MASS>
350.163043

> <PUBCHEM_MOLECULAR_FORMULA>
C21H22N2O3

> <PUBCHEM_MOLECULAR_WEIGHT>
350.41098

> <PUBCHEM_OPENEYE_CAN_SMILES>
C1CN(CC(=C1)C(=O)O)CCON=C(C2=CC=CC=C2)C3=CC=CC=C3

> <PUBCHEM_OPENEYE_ISO_SMILES>
C1CN(CC(=C1)C(=O)O)CCON=C(C2=CC=CC=C2)C3=CC=CC=C3

> <PUBCHEM_CACTVS_TPSA>
62.1

> <PUBCHEM_MONOISOTOPIC_WEIGHT>
350.163043

> <PUBCHEM_TOTAL_CHARGE>
0

> <PUBCHEM_HEAVY_ATOM_COUNT>
26

> <PUBCHEM_ATOM_DEF_STEREO_COUNT>
0

> <PUBCHEM_ATOM_UDEF_STEREO_COUNT>
0

> <PUBCHEM_BOND_DEF_STEREO_COUNT>
0

> <PUBCHEM_BOND_UDEF_STEREO_COUNT>
0

> <PUBCHEM_ISOTOPIC_ATOM_COUNT>
0

> <PUBCHEM_COMPONENT_COUNT>
1

> <PUBCHEM_CACTVS_TAUTO_COUNT>
1

> <PUBCHEM_COORDINATE_TYPE>
1
5
255

> <PUBCHEM_BONDANNOTATIONS>
15  17  8
15  19  8
16  18  8
16  20  8
17  21  8
18  22  8
19  23  8
20  24  8
21  25  8
22  26  8
23  25  8
24  26  8

$$$$

