10130
  -OEChem-06261204202D

 29 29  0     1  0  0  0  0  0999 V2000
    7.6520   -0.6895    0.0000 O   0  0  0  0  0  0  0  0  0  0  0  0
    2.5989    1.9142    0.0000 O   0  0  0  0  0  0  0  0  0  0  0  0
    3.0472    0.2412    0.0000 O   0  0  0  0  0  0  0  0  0  0  0  0
    5.9790    0.7588    0.0000 C   0  0  0  0  0  0  0  0  0  0  0  0
    4.9790    0.7588    0.0000 C   0  0  3  0  0  0  0  0  0  0  0  0
    5.9790   -0.2412    0.0000 C   0  0  3  0  0  0  0  0  0  0  0  0
    4.9790   -0.2412    0.0000 C   0  0  0  0  0  0  0  0  0  0  0  0
    6.9790    0.7588    0.0000 C   0  0  0  0  0  0  0  0  0  0  0  0
    5.9790    1.7588    0.0000 C   0  0  0  0  0  0  0  0  0  0  0  0
    4.2719    1.4659    0.0000 C   0  0  0  0  0  0  0  0  0  0  0  0
    6.6861   -0.9483    0.0000 C   0  0  0  0  0  0  0  0  0  0  0  0
    3.3060    1.2071    0.0000 C   0  0  0  0  0  0  0  0  0  0  0  0
    6.4273   -1.9142    0.0000 C   0  0  0  0  0  0  0  0  0  0  0  0
    4.4062    0.5216    0.0000 H   0  0  0  0  0  0  0  0  0  0  0  0
    6.5518   -0.0039    0.0000 H   0  0  0  0  0  0  0  0  0  0  0  0
    4.3590   -0.2412    0.0000 H   0  0  0  0  0  0  0  0  0  0  0  0
    4.9790   -0.8612    0.0000 H   0  0  0  0  0  0  0  0  0  0  0  0
    6.9790    0.1388    0.0000 H   0  0  0  0  0  0  0  0  0  0  0  0
    7.5990    0.7588    0.0000 H   0  0  0  0  0  0  0  0  0  0  0  0
    6.5990    1.7588    0.0000 H   0  0  0  0  0  0  0  0  0  0  0  0
    5.9790    2.3788    0.0000 H   0  0  0  0  0  0  0  0  0  0  0  0
    5.3590    1.7588    0.0000 H   0  0  0  0  0  0  0  0  0  0  0  0
    6.9790    1.3788    0.0000 H   0  0  0  0  0  0  0  0  0  0  0  0
    4.7798    1.8215    0.0000 H   0  0  0  0  0  0  0  0  0  0  0  0
    4.0099    2.0278    0.0000 H   0  0  0  0  0  0  0  0  0  0  0  0
    5.8284   -1.7538    0.0000 H   0  0  0  0  0  0  0  0  0  0  0  0
    6.2668   -2.5131    0.0000 H   0  0  0  0  0  0  0  0  0  0  0  0
    7.0262   -2.0747    0.0000 H   0  0  0  0  0  0  0  0  0  0  0  0
    2.0000    1.7538    0.0000 H   0  0  0  0  0  0  0  0  0  0  0  0
  1 11  2  0  0  0  0
  2 12  1  0  0  0  0
  2 29  1  0  0  0  0
  3 12  2  0  0  0  0
  4  5  1  0  0  0  0
  4  6  1  0  0  0  0
  4  8  1  0  0  0  0
  4  9  1  0  0  0  0
  5  7  1  0  0  0  0
  5 10  1  0  0  0  0
  5 14  1  0  0  0  0
  6  7  1  0  0  0  0
  6 11  1  0  0  0  0
  6 15  1  0  0  0  0
  7 16  1  0  0  0  0
  7 17  1  0  0  0  0
  8 18  1  0  0  0  0
  8 19  1  0  0  0  0
  8 23  1  0  0  0  0
  9 20  1  0  0  0  0
  9 21  1  0  0  0  0
  9 22  1  0  0  0  0
 10 12  1  0  0  0  0
 10 24  1  0  0  0  0
 10 25  1  0  0  0  0
 11 13  1  0  0  0  0
 13 26  1  0  0  0  0
 13 27  1  0  0  0  0
 13 28  1  0  0  0  0
M  END
> <PUBCHEM_COMPOUND_CID>
10130

> <PUBCHEM_COMPOUND_CANONICALIZED>
1

> <PUBCHEM_CACTVS_COMPLEXITY>
243

> <PUBCHEM_CACTVS_HBOND_ACCEPTOR>
3

> <PUBCHEM_CACTVS_HBOND_DONOR>
1

> <PUBCHEM_CACTVS_ROTATABLE_BOND>
3

> <PUBCHEM_CACTVS_SUBSKEYS>
AAADceBwMAAAAAAAAAAAAAAAAABgAAAAAAAAAAAAAAAAAAAAAAAAGgAACAAADwSAgAACCAAAAgAIAICQCAAAAAAAAAAAAAEAAAAAABIAAAAAQAAEAAAAAAGIyHCPgAAAAAAAAAAAAAAAAAAAAAAAAAAAAA==

> <PUBCHEM_IUPAC_OPENEYE_NAME>
2-(3-acetyl-2,2-dimethyl-cyclobutyl)acetic acid

> <PUBCHEM_IUPAC_CAS_NAME>
2-(3-acetyl-2,2-dimethylcyclobutyl)acetic acid

> <PUBCHEM_IUPAC_NAME>
2-(3-acetyl-2,2-dimethylcyclobutyl)acetic acid

> <PUBCHEM_IUPAC_SYSTEMATIC_NAME>
2-(3-ethanoyl-2,2-dimethyl-cyclobutyl)ethanoic acid

> <PUBCHEM_IUPAC_TRADITIONAL_NAME>
2-(3-acetyl-2,2-dimethyl-cyclobutyl)acetic acid

> <PUBCHEM_IUPAC_INCHI>
InChI=1S/C10H16O3/c1-6(11)8-4-7(5-9(12)13)10(8,2)3/h7-8H,4-5H2,1-3H3,(H,12,13)

> <PUBCHEM_IUPAC_INCHIKEY>
SIZDUQQDBXJXLQ-UHFFFAOYSA-N

> <PUBCHEM_XLOGP3_AA>
1

> <PUBCHEM_EXACT_MASS>
184.109944

> <PUBCHEM_MOLECULAR_FORMULA>
C10H16O3

> <PUBCHEM_MOLECULAR_WEIGHT>
184.23224

> <PUBCHEM_OPENEYE_CAN_SMILES>
CC(=O)C1CC(C1(C)C)CC(=O)O

> <PUBCHEM_OPENEYE_ISO_SMILES>
CC(=O)C1CC(C1(C)C)CC(=O)O

> <PUBCHEM_CACTVS_TPSA>
54.4

> <PUBCHEM_MONOISOTOPIC_WEIGHT>
184.109944

> <PUBCHEM_TOTAL_CHARGE>
0

> <PUBCHEM_HEAVY_ATOM_COUNT>
13

> <PUBCHEM_ATOM_DEF_STEREO_COUNT>
0

> <PUBCHEM_ATOM_UDEF_STEREO_COUNT>
2

> <PUBCHEM_BOND_DEF_STEREO_COUNT>
0

> <PUBCHEM_BOND_UDEF_STEREO_COUNT>
0

> <PUBCHEM_ISOTOPIC_ATOM_COUNT>
0

> <PUBCHEM_COMPONENT_COUNT>
1

> <PUBCHEM_CACTVS_TAUTO_COUNT>
3

> <PUBCHEM_COORDINATE_TYPE>
1
5
255

> <PUBCHEM_BONDANNOTATIONS>
5  10  3
6  11  3

$$$$

