8280
  -OEChem-07051212532D

 22 22  0     1  0  0  0  0  0999 V2000
    3.2601    0.6258    0.0000 O   0  0  0  0  0  0  0  0  0  0  0  0
    5.5202   -0.6342    0.0000 O   0  0  0  0  0  0  0  0  0  0  0  0
    2.0000   -0.6342    0.0000 O   0  0  0  0  0  0  0  0  0  0  0  0
    3.7601   -0.9130    0.0000 N   0  0  0  0  0  0  0  0  0  0  0  0
    4.2601    0.6258    0.0000 C   0  0  3  0  0  0  0  0  0  0  0  0
    5.2111    0.9349    0.0000 C   0  0  0  0  0  0  0  0  0  0  0  0
    4.5691   -0.3252    0.0000 C   0  0  0  0  0  0  0  0  0  0  0  0
    4.2601    1.6258    0.0000 C   0  0  0  0  0  0  0  0  0  0  0  0
    2.9511   -0.3252    0.0000 C   0  0  0  0  0  0  0  0  0  0  0  0
    5.4190    1.9130    0.0000 C   0  0  0  0  0  0  0  0  0  0  0  0
    3.7601   -1.9130    0.0000 C   0  0  0  0  0  0  0  0  0  0  0  0
    5.2974    0.3209    0.0000 H   0  0  0  0  0  0  0  0  0  0  0  0
    5.8308    0.9132    0.0000 H   0  0  0  0  0  0  0  0  0  0  0  0
    4.8801    1.6258    0.0000 H   0  0  0  0  0  0  0  0  0  0  0  0
    4.2601    2.2458    0.0000 H   0  0  0  0  0  0  0  0  0  0  0  0
    3.6401    1.6258    0.0000 H   0  0  0  0  0  0  0  0  0  0  0  0
    6.0255    1.7841    0.0000 H   0  0  0  0  0  0  0  0  0  0  0  0
    5.5480    2.5194    0.0000 H   0  0  0  0  0  0  0  0  0  0  0  0
    4.8126    2.0419    0.0000 H   0  0  0  0  0  0  0  0  0  0  0  0
    3.1401   -1.9130    0.0000 H   0  0  0  0  0  0  0  0  0  0  0  0
    3.7601   -2.5330    0.0000 H   0  0  0  0  0  0  0  0  0  0  0  0
    4.3801   -1.9130    0.0000 H   0  0  0  0  0  0  0  0  0  0  0  0
  1  5  1  0  0  0  0
  1  9  1  0  0  0  0
  2  7  2  0  0  0  0
  3  9  2  0  0  0  0
  4  7  1  0  0  0  0
  4  9  1  0  0  0  0
  4 11  1  0  0  0  0
  5  6  1  0  0  0  0
  5  7  1  0  0  0  0
  5  8  1  0  0  0  0
  6 10  1  0  0  0  0
  6 12  1  0  0  0  0
  6 13  1  0  0  0  0
  8 14  1  0  0  0  0
  8 15  1  0  0  0  0
  8 16  1  0  0  0  0
 10 17  1  0  0  0  0
 10 18  1  0  0  0  0
 10 19  1  0  0  0  0
 11 20  1  0  0  0  0
 11 21  1  0  0  0  0
 11 22  1  0  0  0  0
M  END
> <PUBCHEM_COMPOUND_CID>
8280

> <PUBCHEM_COMPOUND_CANONICALIZED>
1

> <PUBCHEM_CACTVS_COMPLEXITY>
214

> <PUBCHEM_CACTVS_HBOND_ACCEPTOR>
3

> <PUBCHEM_CACTVS_HBOND_DONOR>
0

> <PUBCHEM_CACTVS_ROTATABLE_BOND>
1

> <PUBCHEM_CACTVS_SUBSKEYS>
AAADccBiMAAAAAAAAAAAAAAAAAAAAWAAAAAAAAAAAAAAAAAAAAAAHgAAAAAADESBgAQCCAMABAAIAAEQGAIAAAAAAAAAAAFIAAACABAAgAQNAAAABiAQAAAAAAAIAAAAAAAAAAAAAAAAAAAAAAAAAAAAAA==

> <PUBCHEM_IUPAC_OPENEYE_NAME>
5-ethyl-3,5-dimethyl-oxazolidine-2,4-dione

> <PUBCHEM_IUPAC_CAS_NAME>
5-ethyl-3,5-dimethyloxazolidine-2,4-dione

> <PUBCHEM_IUPAC_NAME>
5-ethyl-3,5-dimethyl-1,3-oxazolidine-2,4-dione

> <PUBCHEM_IUPAC_SYSTEMATIC_NAME>
5-ethyl-3,5-dimethyl-1,3-oxazolidine-2,4-dione

> <PUBCHEM_IUPAC_TRADITIONAL_NAME>
5-ethyl-3,5-dimethyl-oxazolidine-2,4-quinone

> <PUBCHEM_IUPAC_INCHI>
InChI=1S/C7H11NO3/c1-4-7(2)5(9)8(3)6(10)11-7/h4H2,1-3H3

> <PUBCHEM_IUPAC_INCHIKEY>
VQASKUSHBVDKGU-UHFFFAOYSA-N

> <PUBCHEM_XLOGP3_AA>
0.8

> <PUBCHEM_EXACT_MASS>
157.073893

> <PUBCHEM_MOLECULAR_FORMULA>
C7H11NO3

> <PUBCHEM_MOLECULAR_WEIGHT>
157.16714

> <PUBCHEM_OPENEYE_CAN_SMILES>
CCC1(C(=O)N(C(=O)O1)C)C

> <PUBCHEM_OPENEYE_ISO_SMILES>
CCC1(C(=O)N(C(=O)O1)C)C

> <PUBCHEM_CACTVS_TPSA>
46.6

> <PUBCHEM_MONOISOTOPIC_WEIGHT>
157.073893

> <PUBCHEM_TOTAL_CHARGE>
0

> <PUBCHEM_HEAVY_ATOM_COUNT>
11

> <PUBCHEM_ATOM_DEF_STEREO_COUNT>
0

> <PUBCHEM_ATOM_UDEF_STEREO_COUNT>
1

> <PUBCHEM_BOND_DEF_STEREO_COUNT>
0

> <PUBCHEM_BOND_UDEF_STEREO_COUNT>
0

> <PUBCHEM_ISOTOPIC_ATOM_COUNT>
0

> <PUBCHEM_COMPONENT_COUNT>
1

> <PUBCHEM_CACTVS_TAUTO_COUNT>
1

> <PUBCHEM_COORDINATE_TYPE>
1
5
255

> <PUBCHEM_BONDANNOTATIONS>
5  8  3

$$$$

