5281760
  -OEChem-07051212592D

 42 43  0     1  0  0  0  0  0999 V2000
    4.3100   -0.6905    0.0000 O   0  0  0  0  0  0  0  0  0  0  0  0
    5.5420   -3.5565    0.0000 O   0  0  0  0  0  0  0  0  0  0  0  0
    2.0780   -3.5565    0.0000 O   0  0  0  0  0  0  0  0  0  0  0  0
    2.3100   -0.6905    0.0000 O   0  0  0  0  0  0  0  0  0  0  0  0
    3.8100    0.1755    0.0000 O   0  0  0  0  0  0  0  0  0  0  0  0
    5.8100   -1.5565    0.0000 O   0  0  0  0  0  0  0  0  0  0  0  0
    9.8100    1.9076    0.0000 O   0  0  0  0  0  0  0  0  0  0  0  0
    8.8100    3.6396    0.0000 O   0  0  0  0  0  0  0  0  0  0  0  0
    3.8100   -1.5565    0.0000 C   0  0  0  0  0  0  0  0  0  0  0  0
    4.6760   -2.0565    0.0000 C   0  0  0  0  0  0  0  0  0  0  0  0
    2.9440   -2.0565    0.0000 C   0  0  0  0  0  0  0  0  0  0  0  0
    4.6760   -3.0565    0.0000 C   0  0  2  0  0  0  0  0  0  0  0  0
    2.9440   -3.0565    0.0000 C   0  0  2  0  0  0  0  0  0  0  0  0
    3.8100   -3.5565    0.0000 C   0  0  0  0  0  0  0  0  0  0  0  0
    3.3100   -0.6905    0.0000 C   0  0  0  0  0  0  0  0  0  0  0  0
    5.3100   -0.6905    0.0000 C   0  0  0  0  0  0  0  0  0  0  0  0
    5.8100    0.1755    0.0000 C   0  0  0  0  0  0  0  0  0  0  0  0
    6.8100    0.1755    0.0000 C   0  0  0  0  0  0  0  0  0  0  0  0
    7.3100    1.0415    0.0000 C   0  0  0  0  0  0  0  0  0  0  0  0
    8.3100    1.0415    0.0000 C   0  0  0  0  0  0  0  0  0  0  0  0
    6.8100    1.9076    0.0000 C   0  0  0  0  0  0  0  0  0  0  0  0
    8.8100    1.9076    0.0000 C   0  0  0  0  0  0  0  0  0  0  0  0
    7.3100    2.7736    0.0000 C   0  0  0  0  0  0  0  0  0  0  0  0
    8.3100    2.7736    0.0000 C   0  0  0  0  0  0  0  0  0  0  0  0
    5.2866   -2.1642    0.0000 H   0  0  0  0  0  0  0  0  0  0  0  0
    4.8881   -1.4739    0.0000 H   0  0  0  0  0  0  0  0  0  0  0  0
    2.7319   -1.4739    0.0000 H   0  0  0  0  0  0  0  0  0  0  0  0
    2.3334   -2.1642    0.0000 H   0  0  0  0  0  0  0  0  0  0  0  0
    4.6760   -3.6765    0.0000 H   0  0  0  0  0  0  0  0  0  0  0  0
    2.4070   -2.7465    0.0000 H   0  0  0  0  0  0  0  0  0  0  0  0
    3.4115   -4.0315    0.0000 H   0  0  0  0  0  0  0  0  0  0  0  0
    4.2085   -4.0315    0.0000 H   0  0  0  0  0  0  0  0  0  0  0  0
    5.5420   -4.1765    0.0000 H   0  0  0  0  0  0  0  0  0  0  0  0
    2.0780   -4.1765    0.0000 H   0  0  0  0  0  0  0  0  0  0  0  0
    2.0000   -0.1536    0.0000 H   0  0  0  0  0  0  0  0  0  0  0  0
    5.5000    0.7124    0.0000 H   0  0  0  0  0  0  0  0  0  0  0  0
    7.1200   -0.3614    0.0000 H   0  0  0  0  0  0  0  0  0  0  0  0
    8.6200    0.5046    0.0000 H   0  0  0  0  0  0  0  0  0  0  0  0
    6.1900    1.9076    0.0000 H   0  0  0  0  0  0  0  0  0  0  0  0
    7.0000    3.3105    0.0000 H   0  0  0  0  0  0  0  0  0  0  0  0
   10.1200    1.3706    0.0000 H   0  0  0  0  0  0  0  0  0  0  0  0
    8.5000    4.1765    0.0000 H   0  0  0  0  0  0  0  0  0  0  0  0
  1  9  1  0  0  0  0
  1 16  1  0  0  0  0
 12  2  1  1  0  0  0
  2 33  1  0  0  0  0
 13  3  1  6  0  0  0
  3 34  1  0  0  0  0
  4 15  1  0  0  0  0
  4 35  1  0  0  0  0
  5 15  2  0  0  0  0
  6 16  2  0  0  0  0
  7 22  1  0  0  0  0
  7 41  1  0  0  0  0
  8 24  1  0  0  0  0
  8 42  1  0  0  0  0
  9 10  1  0  0  0  0
  9 11  1  0  0  0  0
  9 15  1  0  0  0  0
 10 12  1  0  0  0  0
 10 25  1  0  0  0  0
 10 26  1  0  0  0  0
 11 13  1  0  0  0  0
 11 27  1  0  0  0  0
 11 28  1  0  0  0  0
 12 14  1  0  0  0  0
 12 29  1  0  0  0  0
 13 14  1  0  0  0  0
 13 30  1  0  0  0  0
 14 31  1  0  0  0  0
 14 32  1  0  0  0  0
 16 17  1  0  0  0  0
 17 18  2  0  0  0  0
 17 36  1  0  0  0  0
 18 19  1  0  0  0  0
 18 37  1  0  0  0  0
 19 20  2  0  0  0  0
 19 21  1  0  0  0  0
 20 22  1  0  0  0  0
 20 38  1  0  0  0  0
 21 23  2  0  0  0  0
 21 39  1  0  0  0  0
 22 24  2  0  0  0  0
 23 24  1  0  0  0  0
 23 40  1  0  0  0  0
M  END
> <PUBCHEM_COMPOUND_CID>
5281760

> <PUBCHEM_COMPOUND_CANONICALIZED>
1

> <PUBCHEM_CACTVS_COMPLEXITY>
492

> <PUBCHEM_CACTVS_HBOND_ACCEPTOR>
8

> <PUBCHEM_CACTVS_HBOND_DONOR>
5

> <PUBCHEM_CACTVS_ROTATABLE_BOND>
5

> <PUBCHEM_CACTVS_SUBSKEYS>
AAADceB4PAAAAAAAAAAAAAAAAAAAAAAAAAAwYAAAAAAAAAABAAAAGgAACAAADFSgmAIwDoAABgCIAiDSCAICAAAgIAAIiAFGiMgJNjKCMRaCcAElwBELuYfK6DyOIAABAAAAQABAAAIQAACAAAAAAAAAAA==

> <PUBCHEM_IUPAC_OPENEYE_NAME>
(3S,5S)-1-[(E)-3-(3,4-dihydroxyphenyl)prop-2-enoyl]oxy-3,5-dihydroxy-cyclohexanecarboxylic acid

> <PUBCHEM_IUPAC_CAS_NAME>
(3S,5S)-1-[(E)-3-(3,4-dihydroxyphenyl)-1-oxoprop-2-enoxy]-3,5-dihydroxy-1-cyclohexanecarboxylic acid

> <PUBCHEM_IUPAC_NAME>
(3S,5S)-1-[(E)-3-(3,4-dihydroxyphenyl)prop-2-enoyl]oxy-3,5-dihydroxycyclohexane-1-carboxylic acid

> <PUBCHEM_IUPAC_SYSTEMATIC_NAME>
(3S,5S)-1-[(E)-3-[3,4-bis(oxidanyl)phenyl]prop-2-enoyl]oxy-3,5-bis(oxidanyl)cyclohexane-1-carboxylic acid

> <PUBCHEM_IUPAC_TRADITIONAL_NAME>
(3S,5S)-1-[(E)-3-(3,4-dihydroxyphenyl)acryloyl]oxy-3,5-dihydroxy-cyclohexanecarboxylic acid

> <PUBCHEM_IUPAC_INCHI>
InChI=1S/C16H18O8/c17-10-6-11(18)8-16(7-10,15(22)23)24-14(21)4-2-9-1-3-12(19)13(20)5-9/h1-5,10-11,17-20H,6-8H2,(H,22,23)/b4-2+/t10-,11-/m0/s1

> <PUBCHEM_IUPAC_INCHIKEY>
IQRPXVABWMLCMZ-LOMYTOQZSA-N

> <PUBCHEM_XLOGP3_AA>
0.6

> <PUBCHEM_EXACT_MASS>
338.100168

> <PUBCHEM_MOLECULAR_FORMULA>
C16H18O8

> <PUBCHEM_MOLECULAR_WEIGHT>
338.30932

> <PUBCHEM_OPENEYE_CAN_SMILES>
C1C(CC(CC1O)(C(=O)O)OC(=O)C=CC2=CC(=C(C=C2)O)O)O

> <PUBCHEM_OPENEYE_ISO_SMILES>
C1[C@@H](CC(C[C@H]1O)(C(=O)O)OC(=O)/C=C/C2=CC(=C(C=C2)O)O)O

> <PUBCHEM_CACTVS_TPSA>
145

> <PUBCHEM_MONOISOTOPIC_WEIGHT>
338.100168

> <PUBCHEM_TOTAL_CHARGE>
0

> <PUBCHEM_HEAVY_ATOM_COUNT>
24

> <PUBCHEM_ATOM_DEF_STEREO_COUNT>
2

> <PUBCHEM_ATOM_UDEF_STEREO_COUNT>
0

> <PUBCHEM_BOND_DEF_STEREO_COUNT>
1

> <PUBCHEM_BOND_UDEF_STEREO_COUNT>
0

> <PUBCHEM_ISOTOPIC_ATOM_COUNT>
0

> <PUBCHEM_COMPONENT_COUNT>
1

> <PUBCHEM_CACTVS_TAUTO_COUNT>
16

> <PUBCHEM_COORDINATE_TYPE>
1
5
255

> <PUBCHEM_BONDANNOTATIONS>
19  20  8
19  21  8
12  2  5
20  22  8
21  23  8
22  24  8
23  24  8
13  3  6

$$$$

