441876
  -OEChem-07051212562D

 94100  0     1  0  0  0  0  0999 V2000
    5.5954   -4.3916    0.0000 O   0  0  0  0  0  0  0  0  0  0  0  0
    3.9300   -3.3104    0.0000 O   0  0  0  0  0  0  0  0  0  0  0  0
    5.7968   -0.6568    0.0000 O   0  0  0  0  0  0  0  0  0  0  0  0
   12.0027    0.9876    0.0000 O   0  0  0  0  0  0  0  0  0  0  0  0
   11.1309    2.4843    0.0000 O   0  0  0  0  0  0  0  0  0  0  0  0
   13.7309    1.9943    0.0000 O   0  0  0  0  0  0  0  0  0  0  0  0
   13.7232    3.9943    0.0000 O   0  0  0  0  0  0  0  0  0  0  0  0
   11.9873    4.9876    0.0000 O   0  0  0  0  0  0  0  0  0  0  0  0
   10.2553    4.9809    0.0000 O   0  0  0  0  0  0  0  0  0  0  0  0
    7.5288   -2.6568    0.0000 C   0  0  2  0  0  0  0  0  0  0  0  0
    6.6628   -2.1568    0.0000 C   0  0  1  0  0  0  0  0  0  0  0  0
    8.3948   -2.1568    0.0000 C   0  0  1  0  0  0  0  0  0  0  0  0
    5.9258   -2.8239    0.0000 C   0  0  2  0  0  0  0  0  0  0  0  0
    8.3948   -1.1568    0.0000 C   0  0  1  0  0  0  0  0  0  0  0  0
    9.2888   -0.6221    0.0000 C   0  0  2  0  0  0  0  0  0  0  0  0
    6.3309   -3.7316    0.0000 C   0  0  2  0  0  0  0  0  0  0  0  0
    7.3196   -3.6286    0.0000 C   0  0  0  0  0  0  0  0  0  0  0  0
    4.9434   -2.9306    0.0000 C   0  0  1  0  0  0  0  0  0  0  0  0
   10.1949   -1.1360    0.0000 C   0  0  1  0  0  0  0  0  0  0  0  0
    7.5288   -0.6568    0.0000 C   0  0  0  0  0  0  0  0  0  0  0  0
    9.2888   -2.6914    0.0000 C   0  0  0  0  0  0  0  0  0  0  0  0
    6.6628   -1.1568    0.0000 C   0  0  0  0  0  0  0  0  0  0  0  0
    4.7396   -3.8975    0.0000 C   0  0  1  0  0  0  0  0  0  0  0  0
   10.1949   -2.1776    0.0000 C   0  0  0  0  0  0  0  0  0  0  0  0
    9.2637    0.4626    0.0000 C   0  0  0  0  0  0  0  0  0  0  0  0
    5.7968   -1.6568    0.0000 C   0  0  0  0  0  0  0  0  0  0  0  0
   11.1386   -0.6007    0.0000 C   0  0  0  0  0  0  0  0  0  0  0  0
    8.4189   -0.1288    0.0000 C   0  0  0  0  0  0  0  0  0  0  0  0
   10.1949    1.0195    0.0000 C   0  0  0  0  0  0  0  0  0  0  0  0
   11.1386    0.4843    0.0000 C   0  0  2  0  0  0  0  0  0  0  0  0
    4.2723   -2.1892    0.0000 C   0  0  0  0  0  0  0  0  0  0  0  0
    4.6359   -4.8921    0.0000 C   0  0  0  0  0  0  0  0  0  0  0  0
    3.7227   -5.2996    0.0000 C   0  0  0  0  0  0  0  0  0  0  0  0
    2.9132   -4.7126    0.0000 C   0  0  2  0  0  0  0  0  0  0  0  0
    3.0169   -3.7180    0.0000 C   0  0  0  0  0  0  0  0  0  0  0  0
    2.0000   -5.1201    0.0000 C   0  0  0  0  0  0  0  0  0  0  0  0
   11.9989    1.9876    0.0000 C   0  0  2  0  0  0  0  0  0  0  0  0
   12.8630    2.4909    0.0000 C   0  0  1  0  0  0  0  0  0  0  0  0
   12.8591    3.4909    0.0000 C   0  0  2  0  0  0  0  0  0  0  0  0
   11.1271    3.4842    0.0000 C   0  0  1  0  0  0  0  0  0  0  0  0
   11.9912    3.9876    0.0000 C   0  0  2  0  0  0  0  0  0  0  0  0
   10.2591    3.9809    0.0000 C   0  0  0  0  0  0  0  0  0  0  0  0
    8.2158   -3.1573    0.0000 H   0  0  0  0  0  0  0  0  0  0  0  0
    8.3883   -3.0067    0.0000 H   0  0  0  0  0  0  0  0  0  0  0  0
    5.5777   -2.0484    0.0000 H   0  0  0  0  0  0  0  0  0  0  0  0
    8.3883   -0.3068    0.0000 H   0  0  0  0  0  0  0  0  0  0  0  0
    6.6756   -4.5086    0.0000 H   0  0  0  0  0  0  0  0  0  0  0  0
    7.3187   -4.2486    0.0000 H   0  0  0  0  0  0  0  0  0  0  0  0
    7.9361   -3.6946    0.0000 H   0  0  0  0  0  0  0  0  0  0  0  0
    4.3448   -3.0923    0.0000 H   0  0  0  0  0  0  0  0  0  0  0  0
   10.9293   -1.5638    0.0000 H   0  0  0  0  0  0  0  0  0  0  0  0
    7.9274   -0.1818    0.0000 H   0  0  0  0  0  0  0  0  0  0  0  0
    7.1303   -0.1818    0.0000 H   0  0  0  0  0  0  0  0  0  0  0  0
    8.8842   -3.1612    0.0000 H   0  0  0  0  0  0  0  0  0  0  0  0
    9.6824   -3.1705    0.0000 H   0  0  0  0  0  0  0  0  0  0  0  0
   10.4039   -2.7613    0.0000 H   0  0  0  0  0  0  0  0  0  0  0  0
   10.8057   -2.0715    0.0000 H   0  0  0  0  0  0  0  0  0  0  0  0
    9.0412    1.0413    0.0000 H   0  0  0  0  0  0  0  0  0  0  0  0
    8.6555    0.3424    0.0000 H   0  0  0  0  0  0  0  0  0  0  0  0
    6.1068   -1.1198    0.0000 H   0  0  0  0  0  0  0  0  0  0  0  0
    5.2598   -1.3468    0.0000 H   0  0  0  0  0  0  0  0  0  0  0  0
    5.4868   -2.1937    0.0000 H   0  0  0  0  0  0  0  0  0  0  0  0
   11.3477   -1.1844    0.0000 H   0  0  0  0  0  0  0  0  0  0  0  0
   11.7495   -0.4946    0.0000 H   0  0  0  0  0  0  0  0  0  0  0  0
    8.7248    0.4105    0.0000 H   0  0  0  0  0  0  0  0  0  0  0  0
    7.8796    0.1770    0.0000 H   0  0  0  0  0  0  0  0  0  0  0  0
    8.1131   -0.6681    0.0000 H   0  0  0  0  0  0  0  0  0  0  0  0
   10.5885    1.4985    0.0000 H   0  0  0  0  0  0  0  0  0  0  0  0
    9.7903    1.4893    0.0000 H   0  0  0  0  0  0  0  0  0  0  0  0
   11.1351    1.1043    0.0000 H   0  0  0  0  0  0  0  0  0  0  0  0
    4.7320   -1.7731    0.0000 H   0  0  0  0  0  0  0  0  0  0  0  0
    3.8562   -1.7295    0.0000 H   0  0  0  0  0  0  0  0  0  0  0  0
    3.8126   -2.6052    0.0000 H   0  0  0  0  0  0  0  0  0  0  0  0
    4.7864   -5.4936    0.0000 H   0  0  0  0  0  0  0  0  0  0  0  0
    5.2544   -4.8483    0.0000 H   0  0  0  0  0  0  0  0  0  0  0  0
    3.2771   -5.7307    0.0000 H   0  0  0  0  0  0  0  0  0  0  0  0
    4.0699   -5.8134    0.0000 H   0  0  0  0  0  0  0  0  0  0  0  0
    2.4113   -4.3486    0.0000 H   0  0  0  0  0  0  0  0  0  0  0  0
    2.8664   -3.1165    0.0000 H   0  0  0  0  0  0  0  0  0  0  0  0
    2.3984   -3.7617    0.0000 H   0  0  0  0  0  0  0  0  0  0  0  0
    1.7473   -4.5539    0.0000 H   0  0  0  0  0  0  0  0  0  0  0  0
    1.4338   -5.3728    0.0000 H   0  0  0  0  0  0  0  0  0  0  0  0
    2.2527   -5.6863    0.0000 H   0  0  0  0  0  0  0  0  0  0  0  0
   11.4631    1.6755    0.0000 H   0  0  0  0  0  0  0  0  0  0  0  0
   13.3987    2.8030    0.0000 H   0  0  0  0  0  0  0  0  0  0  0  0
   12.8567    4.1109    0.0000 H   0  0  0  0  0  0  0  0  0  0  0  0
   10.5913    3.1722    0.0000 H   0  0  0  0  0  0  0  0  0  0  0  0
   11.4530    4.2955    0.0000 H   0  0  0  0  0  0  0  0  0  0  0  0
   14.2667    2.3063    0.0000 H   0  0  0  0  0  0  0  0  0  0  0  0
    9.6481    4.0862    0.0000 H   0  0  0  0  0  0  0  0  0  0  0  0
   10.0493    3.3975    0.0000 H   0  0  0  0  0  0  0  0  0  0  0  0
   13.7208    4.6143    0.0000 H   0  0  0  0  0  0  0  0  0  0  0  0
   12.5231    5.2996    0.0000 H   0  0  0  0  0  0  0  0  0  0  0  0
    9.7172    5.2888    0.0000 H   0  0  0  0  0  0  0  0  0  0  0  0
  1 16  1  0  0  0  0
 23  1  1  1  0  0  0
  2 23  1  0  0  0  0
  2 35  1  0  0  0  0
  3 22  2  0  0  0  0
 30  4  1  6  0  0  0
 37  4  1  6  0  0  0
  5 37  1  0  0  0  0
  5 40  1  0  0  0  0
 38  6  1  1  0  0  0
  6 89  1  0  0  0  0
 39  7  1  6  0  0  0
  7 92  1  0  0  0  0
 41  8  1  6  0  0  0
  8 93  1  0  0  0  0
  9 42  1  0  0  0  0
  9 94  1  0  0  0  0
 10 11  1  0  0  0  0
 10 12  1  0  0  0  0
 10 17  1  0  0  0  0
 10 43  1  1  0  0  0
 11 13  1  0  0  0  0
 11 22  1  0  0  0  0
 11 26  1  6  0  0  0
 12 14  1  0  0  0  0
 12 21  1  0  0  0  0
 12 44  1  6  0  0  0
 13 16  1  0  0  0  0
 13 18  1  0  0  0  0
 13 45  1  1  0  0  0
 14 15  1  0  0  0  0
 14 20  1  0  0  0  0
 14 46  1  1  0  0  0
 15 19  1  0  0  0  0
 15 25  1  0  0  0  0
 15 28  1  6  0  0  0
 16 17  1  0  0  0  0
 16 47  1  1  0  0  0
 17 48  1  0  0  0  0
 17 49  1  0  0  0  0
 18 23  1  0  0  0  0
 18 31  1  1  0  0  0
 18 50  1  0  0  0  0
 19 24  1  0  0  0  0
 19 27  1  0  0  0  0
 19 51  1  1  0  0  0
 20 22  1  0  0  0  0
 20 52  1  0  0  0  0
 20 53  1  0  0  0  0
 21 24  1  0  0  0  0
 21 54  1  0  0  0  0
 21 55  1  0  0  0  0
 23 32  1  0  0  0  0
 24 56  1  0  0  0  0
 24 57  1  0  0  0  0
 25 29  1  0  0  0  0
 25 58  1  0  0  0  0
 25 59  1  0  0  0  0
 26 60  1  0  0  0  0
 26 61  1  0  0  0  0
 26 62  1  0  0  0  0
 27 30  1  0  0  0  0
 27 63  1  0  0  0  0
 27 64  1  0  0  0  0
 28 65  1  0  0  0  0
 28 66  1  0  0  0  0
 28 67  1  0  0  0  0
 29 30  1  0  0  0  0
 29 68  1  0  0  0  0
 29 69  1  0  0  0  0
 30 70  1  0  0  0  0
 31 71  1  0  0  0  0
 31 72  1  0  0  0  0
 31 73  1  0  0  0  0
 32 33  1  0  0  0  0
 32 74  1  0  0  0  0
 32 75  1  0  0  0  0
 33 34  1  0  0  0  0
 33 76  1  0  0  0  0
 33 77  1  0  0  0  0
 34 35  1  0  0  0  0
 34 36  1  1  0  0  0
 34 78  1  0  0  0  0
 35 79  1  0  0  0  0
 35 80  1  0  0  0  0
 36 81  1  0  0  0  0
 36 82  1  0  0  0  0
 36 83  1  0  0  0  0
 37 38  1  0  0  0  0
 37 84  1  0  0  0  0
 38 39  1  0  0  0  0
 38 85  1  0  0  0  0
 39 41  1  0  0  0  0
 39 86  1  0  0  0  0
 40 41  1  0  0  0  0
 40 42  1  6  0  0  0
 40 87  1  0  0  0  0
 41 88  1  0  0  0  0
 42 90  1  0  0  0  0
 42 91  1  0  0  0  0
M  END
> <PUBCHEM_COMPOUND_CID>
441876

> <PUBCHEM_COMPOUND_CANONICALIZED>
1

> <PUBCHEM_CACTVS_COMPLEXITY>
1050

> <PUBCHEM_CACTVS_HBOND_ACCEPTOR>
9

> <PUBCHEM_CACTVS_HBOND_DONOR>
4

> <PUBCHEM_CACTVS_ROTATABLE_BOND>
3

> <PUBCHEM_CACTVS_SUBSKEYS>
AAADcfB8PAAAAAAAAAAAAAAAAAAAAaIAAAA0aMECAAASAGDAAAAAGgAACAAADxSwgAMCCAAABgAIAIAQAAAAAAAAAAAAAAEAAAAREBIAAAAiQAAFAAAHAAHK7PzPgAAAAAAAAADAAAYAACAAAYAADAAAAA==

> <PUBCHEM_IUPAC_INCHI>
InChI=1S/C33H52O9/c1-16-7-10-33(39-15-16)17(2)26-23(42-33)12-22-20-6-5-18-11-19(40-30-29(38)28(37)27(36)24(14-34)41-30)8-9-31(18,3)21(20)13-25(35)32(22,26)4/h16-24,26-30,34,36-38H,5-15H2,1-4H3/t16-,17+,18+,19+,20-,21+,22+,23+,24-,26+,27+,28+,29-,30-,31+,32-,33-/m1/s1

> <PUBCHEM_IUPAC_INCHIKEY>
NVCUAFIUMZCPGV-RGIGLGGVSA-N

> <PUBCHEM_XLOGP3_AA>
3.2

> <PUBCHEM_EXACT_MASS>
592.361133

> <PUBCHEM_MOLECULAR_FORMULA>
C33H52O9

> <PUBCHEM_MOLECULAR_WEIGHT>
592.76058

> <PUBCHEM_OPENEYE_CAN_SMILES>
CC1CCC2(C(C3C(O2)CC4C3(C(=O)CC5C4CCC6C5(CCC(C6)OC7C(C(C(C(O7)CO)O)O)O)C)C)C)OC1

> <PUBCHEM_OPENEYE_ISO_SMILES>
C[C@@H]1CC[C@@]2([C@H]([C@H]3[C@@H](O2)C[C@@H]4[C@@]3(C(=O)C[C@H]5[C@H]4CC[C@@H]6[C@@]5(CC[C@@H](C6)O[C@H]7[C@@H]([C@H]([C@H]([C@H](O7)CO)O)O)O)C)C)C)OC1

> <PUBCHEM_CACTVS_TPSA>
135

> <PUBCHEM_MONOISOTOPIC_WEIGHT>
592.361133

> <PUBCHEM_TOTAL_CHARGE>
0

> <PUBCHEM_HEAVY_ATOM_COUNT>
42

> <PUBCHEM_ATOM_DEF_STEREO_COUNT>
17

> <PUBCHEM_ATOM_UDEF_STEREO_COUNT>
0

> <PUBCHEM_BOND_DEF_STEREO_COUNT>
0

> <PUBCHEM_BOND_UDEF_STEREO_COUNT>
0

> <PUBCHEM_ISOTOPIC_ATOM_COUNT>
0

> <PUBCHEM_COMPONENT_COUNT>
1

> <PUBCHEM_CACTVS_TAUTO_COUNT>
2

> <PUBCHEM_COORDINATE_TYPE>
1
5
255

> <PUBCHEM_BONDANNOTATIONS>
23  1  5
10  43  5
11  26  6
12  44  6
13  45  5
14  46  5
15  28  6
16  47  5
18  31  5
19  51  5
34  36  5
30  4  6
37  4  6
40  42  6
38  6  5
39  7  6
41  8  6

$$$$

