   Color/Form

     * PALE YELLOW NEEDLES
     * LEMON-YELLOW CRYSTALLINE POWDER

   from [1]HSDB

   Odor
        ODORLESS
   from [2]HSDB

   Taste
        NEARLY TASTELESS BUT DEVELOPS BITTER AFTERTASTE
   from [3]HSDB

   Boiling Point
        236-240 deg C
   from [4]HSDB

   pH
        6.0-6.5 (SATURATED WATER SOLN)
   from [5]HSDB

   Solubilities

     * 1 G IN 4200 ML WATER, 590 ML ALC, 350 ML PROPYLENE GLYCOL; SOL IN
       POLYETHYLENE GLYCOL MIXT UP TO ABOUT 1%; PRACTICALLY INSOL IN
       CHLOROFORM & ETHER
     * SOL IN ALKALINE SOLN

   from [6]HSDB

   Spectral Properties
        MAX ABSORPTION: 260 & 375 NM
   from [7]HSDB

   Other Chemical/Physical Properties
        PRODUCES DARK ORANGE COLOR IN ALKALINE SOLN; DECOMP BETWEEN
   236-240 DEG C
   from [8]HSDB

   Computed Properties
   Molecular Weight                  198.13624 [g/mol]
   Molecular Formula                 C[6]H[6]N[4]O[4]
   XLogP3                            0.2
   H-Bond Donor                      2
   H-Bond Acceptor                   5
   Rotatable Bond Count              2
   Tautomer Count                    3
   Exact Mass                        198.038905
   MonoIsotopic Mass                 198.038905
   Topological Polar Surface Area    126
   Heavy Atom Count                  14
   Formal Charge                     0
   Complexity                        261
   Isotope Atom Count                0
   Defined Atom Stereocenter Count   0
   Undefined Atom Stereocenter Count 0
   Defined Bond Stereocenter Count   1
   Undefined Bond Stereocenter Count 0
   Covalently-Bonded Unit Count      1
   Feature 3D Acceptor Count         5
   Feature 3D Donor Count            2
   Feature 3D Anion Count            1
   Feature 3D Ring Count             1
   Effective Rotor Count             4
   Conformer Sampling RMSD           0.6
   CID Conformer Count               [9]6

References

   1. http://toxnet.nlm.nih.gov/cgi-bin/sis/search/r?dbs+hsdb:@term+@rn+@rel+59-87-0
   2. http://toxnet.nlm.nih.gov/cgi-bin/sis/search/r?dbs+hsdb:@term+@rn+@rel+59-87-0
   3. http://toxnet.nlm.nih.gov/cgi-bin/sis/search/r?dbs+hsdb:@term+@rn+@rel+59-87-0
   4. http://toxnet.nlm.nih.gov/cgi-bin/sis/search/r?dbs+hsdb:@term+@rn+@rel+59-87-0
   5. http://toxnet.nlm.nih.gov/cgi-bin/sis/search/r?dbs+hsdb:@term+@rn+@rel+59-87-0
   6. http://toxnet.nlm.nih.gov/cgi-bin/sis/search/r?dbs+hsdb:@term+@rn+@rel+59-87-0
   7. http://toxnet.nlm.nih.gov/cgi-bin/sis/search/r?dbs+hsdb:@term+@rn+@rel+59-87-0
   8. http://toxnet.nlm.nih.gov/cgi-bin/sis/search/r?dbs+hsdb:@term+@rn+@rel+59-87-0
   9. http://pubchem.ncbi.nlm.nih.gov/vw3d/vw3d.cgi?cid=5447130
