   Color/Form

     * Black or dark-colored fluffy powder
     * Black solid or powder
     * Dark brown to black solid.

   from [1]HSDB

   Odor
        Odorless
   from [2]HSDB

   Melting Point
        180 deg C
   from [3]HSDB

   Corrosivity
        Non-corrosive
   from [4]HSDB

   Density/Specific Gravity
        approx 0.6 kg/L
   from [5]HSDB

   Octanol/Water Partition Coefficient
        log Kow = -1.60
   from [6]HSDB

   pH
        pH = 5.0
   from [7]HSDB

   Solubilities

     * Usually readily dispersible but very slightly soluble in water
     * Soluble in Me2CO3, trichlormethane, pyridene, and acetonitrile
     * In water, 130 mg/L at 25 deg C

   from [8]HSDB

   Spectral Properties
        Intense mass spectral peaks: 88 m/z (100%), 44 m/z (34%), 43 m/z
   (31%), 296 m/z (26%)
   from [9]HSDB

   Vapor Pressure
        Negligible
   from [10]HSDB

   Other Chemical/Physical Properties

     * Decomposition >180 deg C
     * Decomposes upon prolonged storage or in contact with moisture.

   from [11]HSDB

   Computed Properties
   Molecular Weight                  416.49432 [g/mol]
   Molecular Formula                 C[9]H[18]FeN[3]S[6]
   H-Bond Donor                      0
   H-Bond Acceptor                   6
   Rotatable Bond Count              0
   Exact Mass                        415.917436
   MonoIsotopic Mass                 415.917436
   Topological Polar Surface Area    109
   Heavy Atom Count                  19
   Formal Charge                     0
   Complexity                        54.3
   Isotope Atom Count                0
   Defined Atom Stereocenter Count   0
   Undefined Atom Stereocenter Count 0
   Defined Bond Stereocenter Count   0
   Undefined Bond Stereocenter Count 0
   Covalently-Bonded Unit Count      4

References

   1. http://toxnet.nlm.nih.gov/cgi-bin/sis/search/r?dbs+hsdb:@term+@rn+@rel+14484-64-1
   2. http://toxnet.nlm.nih.gov/cgi-bin/sis/search/r?dbs+hsdb:@term+@rn+@rel+14484-64-1
   3. http://toxnet.nlm.nih.gov/cgi-bin/sis/search/r?dbs+hsdb:@term+@rn+@rel+14484-64-1
   4. http://toxnet.nlm.nih.gov/cgi-bin/sis/search/r?dbs+hsdb:@term+@rn+@rel+14484-64-1
   5. http://toxnet.nlm.nih.gov/cgi-bin/sis/search/r?dbs+hsdb:@term+@rn+@rel+14484-64-1
   6. http://toxnet.nlm.nih.gov/cgi-bin/sis/search/r?dbs+hsdb:@term+@rn+@rel+14484-64-1
   7. http://toxnet.nlm.nih.gov/cgi-bin/sis/search/r?dbs+hsdb:@term+@rn+@rel+14484-64-1
   8. http://toxnet.nlm.nih.gov/cgi-bin/sis/search/r?dbs+hsdb:@term+@rn+@rel+14484-64-1
   9. http://toxnet.nlm.nih.gov/cgi-bin/sis/search/r?dbs+hsdb:@term+@rn+@rel+14484-64-1
  10. http://toxnet.nlm.nih.gov/cgi-bin/sis/search/r?dbs+hsdb:@term+@rn+@rel+14484-64-1
  11. http://toxnet.nlm.nih.gov/cgi-bin/sis/search/r?dbs+hsdb:@term+@rn+@rel+14484-64-1
