5281448
  -OEChem-07051212572D

 54 57  0     1  0  0  0  0  0999 V2000
    8.2572   -0.2221    0.0000 Cl  0  0  0  0  0  0  0  0  0  0  0  0
    5.9507   -4.0622    0.0000 O   0  0  0  0  0  0  0  0  0  0  0  0
    5.0673   -3.0530    0.0000 O   0  0  0  0  0  0  0  0  0  0  0  0
    3.7230   -2.2152    0.0000 O   0  0  0  0  0  0  0  0  0  0  0  0
    8.0559   -2.2954    0.0000 O   0  0  0  0  0  0  0  0  0  0  0  0
    7.3840   -0.1092    0.0000 O   0  0  0  0  0  0  0  0  0  0  0  0
    4.5447    0.9502    0.0000 O   0  0  0  0  0  0  0  0  0  0  0  0
    2.0000   -1.7830    0.0000 O   0  0  0  0  0  0  0  0  0  0  0  0
    6.1053    1.7017    0.0000 O   0  0  0  0  0  0  0  0  0  0  0  0
    5.6146   -3.1262    0.0000 C   0  0  1  0  0  0  0  0  0  0  0  0
    5.4786   -2.1414    0.0000 C   0  0  2  0  0  0  0  0  0  0  0  0
    6.5929   -3.3028    0.0000 C   0  0  1  0  0  0  0  0  0  0  0  0
    6.3796   -1.7076    0.0000 C   0  0  1  0  0  0  0  0  0  0  0  0
    7.0647   -2.4279    0.0000 C   0  0  2  0  0  0  0  0  0  0  0  0
    4.5777   -1.7076    0.0000 C   0  0  2  0  0  0  0  0  0  0  0  0
    6.6021   -0.7326    0.0000 C   0  0  1  0  0  0  0  0  0  0  0  0
    4.3551   -0.7326    0.0000 C   0  0  1  0  0  0  0  0  0  0  0  0
    4.8512   -2.4802    0.0000 C   0  0  0  0  0  0  0  0  0  0  0  0
    5.9786    0.0492    0.0000 C   0  0  0  0  0  0  0  0  0  0  0  0
    4.9786    0.0492    0.0000 C   0  0  1  0  0  0  0  0  0  0  0  0
    7.5770   -0.9552    0.0000 C   0  0  0  0  0  0  0  0  0  0  0  0
    3.3648   -0.6461    0.0000 C   0  0  0  0  0  0  0  0  0  0  0  0
    2.9749   -1.5605    0.0000 C   0  0  0  0  0  0  0  0  0  0  0  0
    2.8504    0.2115    0.0000 C   0  0  0  0  0  0  0  0  0  0  0  0
    5.1081    1.7764    0.0000 C   0  0  0  0  0  0  0  0  0  0  0  0
    4.6742    2.6774    0.0000 C   0  0  0  0  0  0  0  0  0  0  0  0
    3.6770    2.7521    0.0000 C   0  0  0  0  0  0  0  0  0  0  0  0
    5.2375    3.5036    0.0000 C   0  0  0  0  0  0  0  0  0  0  0  0
    6.2347    3.4289    0.0000 C   0  0  0  0  0  0  0  0  0  0  0  0
    7.2952   -3.7816    0.0000 H   0  0  0  0  0  0  0  0  0  0  0  0
    7.1993   -1.4825    0.0000 H   0  0  0  0  0  0  0  0  0  0  0  0
    7.2707   -1.8431    0.0000 H   0  0  0  0  0  0  0  0  0  0  0  0
    4.6147   -2.5568    0.0000 H   0  0  0  0  0  0  0  0  0  0  0  0
    4.0200    0.0485    0.0000 H   0  0  0  0  0  0  0  0  0  0  0  0
    5.2517   -2.0069    0.0000 H   0  0  0  0  0  0  0  0  0  0  0  0
    4.3779   -2.0798    0.0000 H   0  0  0  0  0  0  0  0  0  0  0  0
    4.4508   -2.9536    0.0000 H   0  0  0  0  0  0  0  0  0  0  0  0
    6.5372    0.3182    0.0000 H   0  0  0  0  0  0  0  0  0  0  0  0
    5.8407    0.6536    0.0000 H   0  0  0  0  0  0  0  0  0  0  0  0
    4.3625    0.1186    0.0000 H   0  0  0  0  0  0  0  0  0  0  0  0
    4.4503   -3.1146    0.0000 H   0  0  0  0  0  0  0  0  0  0  0  0
    7.3362   -1.5265    0.0000 H   0  0  0  0  0  0  0  0  0  0  0  0
    8.0979   -1.2915    0.0000 H   0  0  0  0  0  0  0  0  0  0  0  0
    8.4343   -2.7865    0.0000 H   0  0  0  0  0  0  0  0  0  0  0  0
    7.2916    0.5039    0.0000 H   0  0  0  0  0  0  0  0  0  0  0  0
    3.1514    0.7535    0.0000 H   0  0  0  0  0  0  0  0  0  0  0  0
    2.2305    0.2011    0.0000 H   0  0  0  0  0  0  0  0  0  0  0  0
    3.7233    3.3704    0.0000 H   0  0  0  0  0  0  0  0  0  0  0  0
    3.0587    2.7984    0.0000 H   0  0  0  0  0  0  0  0  0  0  0  0
    3.6306    2.1338    0.0000 H   0  0  0  0  0  0  0  0  0  0  0  0
    4.9685    4.0622    0.0000 H   0  0  0  0  0  0  0  0  0  0  0  0
    6.1884    2.8106    0.0000 H   0  0  0  0  0  0  0  0  0  0  0  0
    6.8530    3.3825    0.0000 H   0  0  0  0  0  0  0  0  0  0  0  0
    6.2810    4.0471    0.0000 H   0  0  0  0  0  0  0  0  0  0  0  0
  1 21  1  0  0  0  0
  2 10  1  0  0  0  0
  2 12  1  0  0  0  0
 11  3  1  1  0  0  0
  3 41  1  0  0  0  0
  4 15  1  0  0  0  0
  4 23  1  0  0  0  0
 14  5  1  6  0  0  0
  5 44  1  0  0  0  0
 16  6  1  1  0  0  0
  6 45  1  0  0  0  0
 20  7  1  6  0  0  0
  7 25  1  0  0  0  0
  8 23  2  0  0  0  0
  9 25  2  0  0  0  0
 10 11  1  0  0  0  0
 10 12  1  0  0  0  0
 10 18  1  6  0  0  0
 11 13  1  0  0  0  0
 11 15  1  0  0  0  0
 12 14  1  0  0  0  0
 12 30  1  6  0  0  0
 13 14  1  0  0  0  0
 13 16  1  0  0  0  0
 13 31  1  1  0  0  0
 14 32  1  0  0  0  0
 15 17  1  0  0  0  0
 15 33  1  6  0  0  0
 16 19  1  0  0  0  0
 16 21  1  0  0  0  0
 17 20  1  0  0  0  0
 17 22  1  0  0  0  0
 17 34  1  1  0  0  0
 18 35  1  0  0  0  0
 18 36  1  0  0  0  0
 18 37  1  0  0  0  0
 19 20  1  0  0  0  0
 19 38  1  0  0  0  0
 19 39  1  0  0  0  0
 20 40  1  0  0  0  0
 21 42  1  0  0  0  0
 21 43  1  0  0  0  0
 22 23  1  0  0  0  0
 22 24  2  0  0  0  0
 24 46  1  0  0  0  0
 24 47  1  0  0  0  0
 25 26  1  0  0  0  0
 26 27  1  0  0  0  0
 26 28  2  0  0  0  0
 27 48  1  0  0  0  0
 27 49  1  0  0  0  0
 27 50  1  0  0  0  0
 28 29  1  0  0  0  0
 28 51  1  0  0  0  0
 29 52  1  0  0  0  0
 29 53  1  0  0  0  0
 29 54  1  0  0  0  0
M  END
> <PUBCHEM_COMPOUND_CID>
5281448

> <PUBCHEM_COMPOUND_CANONICALIZED>
1

> <PUBCHEM_CACTVS_COMPLEXITY>
825

> <PUBCHEM_CACTVS_HBOND_ACCEPTOR>
8

> <PUBCHEM_CACTVS_HBOND_DONOR>
3

> <PUBCHEM_CACTVS_ROTATABLE_BOND>
4

> <PUBCHEM_CACTVS_SUBSKEYS>
AAADceB4PAAEAAAAAAAAAAAAEgAAAaIAAAAkAAAABgAAAADQAAAAGgIACAAADVeggEICCAAABgCIAiDSCAAAAAAgAAAACAEAA0gBFBIBIQACUAAFwAADIYHK7PzOgAAAAAAAAAAAAAAAAAAAAYQADCAAAA==

> <PUBCHEM_IUPAC_INCHI>
InChI=1S/C20H25ClO8/c1-5-8(2)16(23)27-10-6-19(25,7-21)13-12(22)15-18(4,29-15)20(13,26)14-11(10)9(3)17(24)28-14/h5,10-15,22,25-26H,3,6-7H2,1-2,4H3/b8-5-/t10-,11-,12+,13+,14+,15-,18-,19+,20-/m1/s1

> <PUBCHEM_IUPAC_INCHIKEY>
ZKXZLEVGQXDZEP-ZDHOEGKISA-N

> <PUBCHEM_XLOGP3_AA>
0.2

> <PUBCHEM_EXACT_MASS>
428.123795

> <PUBCHEM_MOLECULAR_FORMULA>
C20H25ClO8

> <PUBCHEM_MOLECULAR_WEIGHT>
428.8607

> <PUBCHEM_OPENEYE_CAN_SMILES>
CC=C(C)C(=O)OC1CC(C2C(C3C(C2(C4C1C(=C)C(=O)O4)O)(O3)C)O)(CCl)O

> <PUBCHEM_OPENEYE_ISO_SMILES>
C/C=C(/C)\C(=O)O[C@@H]1C[C@@]([C@@H]2[C@@H]([C@@H]3[C@]([C@@]2([C@@H]4[C@@H]1C(=C)C(=O)O4)O)(O3)C)O)(CCl)O

> <PUBCHEM_CACTVS_TPSA>
126

> <PUBCHEM_MONOISOTOPIC_WEIGHT>
428.123795

> <PUBCHEM_TOTAL_CHARGE>
0

> <PUBCHEM_HEAVY_ATOM_COUNT>
29

> <PUBCHEM_ATOM_DEF_STEREO_COUNT>
9

> <PUBCHEM_ATOM_UDEF_STEREO_COUNT>
0

> <PUBCHEM_BOND_DEF_STEREO_COUNT>
1

> <PUBCHEM_BOND_UDEF_STEREO_COUNT>
0

> <PUBCHEM_ISOTOPIC_ATOM_COUNT>
0

> <PUBCHEM_COMPONENT_COUNT>
1

> <PUBCHEM_CACTVS_TAUTO_COUNT>
1

> <PUBCHEM_COORDINATE_TYPE>
1
5
255

> <PUBCHEM_BONDANNOTATIONS>
10  18  6
12  30  6
13  31  5
15  33  6
17  34  5
11  3  5
14  5  6
16  6  5
20  7  6

$$$$

