   Color/Form

     * White crystals
     * Colorless crystals

   from [1]HSDB

   Odor
        Odorless
   from [2]HSDB

   Melting Point
        108-108.5 deg C
   from [3]HSDB

   Octanol/Water Partition Coefficient
        log Kow = 5.57 (est)
   from [4]HSDB

   Solubilities

     * In solvent (g/L, 20 deg C): chloroform 1379, xylene 362, methanol
       206, acetone 160, acetonitrile 28.6, hexane 4
     * In water, 0.5 mg/L at 20 deg C

   from [5]HSDB

   Vapor Pressure
        2.55X10-8 mm Hg at 20 deg C
   from [6]HSDB

   Other Chemical/Physical Properties

     * Henry's Law constant = 2.37X10-8 atm-cu m/mol at 25 deg C (est)
     * Hydroxyl radical reaction rate constant = 3.54X10-11 cm3/molc-sec
       at 25 deg C (est)

   from [7]HSDB

   Computed Properties
   Molecular Weight                  352.87884 [g/mol]
   Molecular Formula                 C[17]H[21]ClN[2]O[2]S
   XLogP3-AA                         4.5
   H-Bond Donor                      1
   H-Bond Acceptor                   3
   Rotatable Bond Count              2
   Tautomer Count                    2
   Exact Mass                        352.101227
   MonoIsotopic Mass                 352.101227
   Topological Polar Surface Area    74.7
   Heavy Atom Count                  23
   Formal Charge                     0
   Complexity                        448
   Isotope Atom Count                0
   Defined Atom Stereocenter Count   2
   Undefined Atom Stereocenter Count 0
   Defined Bond Stereocenter Count   0
   Undefined Bond Stereocenter Count 0
   Covalently-Bonded Unit Count      1
   Feature 3D Acceptor Count         1
   Feature 3D Donor Count            1
   Feature 3D Ring Count             3
   Effective Rotor Count             6
   Conformer Sampling RMSD           0.8
   CID Conformer Count               [8]29

References

   1. http://toxnet.nlm.nih.gov/cgi-bin/sis/search/r?dbs+hsdb:@term+@rn+@rel+78587-05-0
   2. http://toxnet.nlm.nih.gov/cgi-bin/sis/search/r?dbs+hsdb:@term+@rn+@rel+78587-05-0
   3. http://toxnet.nlm.nih.gov/cgi-bin/sis/search/r?dbs+hsdb:@term+@rn+@rel+78587-05-0
   4. http://toxnet.nlm.nih.gov/cgi-bin/sis/search/r?dbs+hsdb:@term+@rn+@rel+78587-05-0
   5. http://toxnet.nlm.nih.gov/cgi-bin/sis/search/r?dbs+hsdb:@term+@rn+@rel+78587-05-0
   6. http://toxnet.nlm.nih.gov/cgi-bin/sis/search/r?dbs+hsdb:@term+@rn+@rel+78587-05-0
   7. http://toxnet.nlm.nih.gov/cgi-bin/sis/search/r?dbs+hsdb:@term+@rn+@rel+78587-05-0
   8. http://pubchem.ncbi.nlm.nih.gov/vw3d/vw3d.cgi?cid=13218777
