193002
  -OEChem-07051212492D

 57 59  0     1  0  0  0  0  0999 V2000
    6.8909   -1.7632    0.0000 P   0  0  3  0  0  0  0  0  0  0  0  0
    8.4732   -2.4676    0.0000 P   0  0  3  0  0  0  0  0  0  0  0  0
    5.0298    0.7014    0.0000 O   0  0  0  0  0  0  0  0  0  0  0  0
    3.1330   -1.0587    0.0000 O   0  0  0  0  0  0  0  0  0  0  0  0
    2.4608    1.0104    0.0000 O   0  0  0  0  0  0  0  0  0  0  0  0
    6.3031   -0.9541    0.0000 O   0  0  0  0  0  0  0  0  0  0  0  0
   11.0501   -3.0676    0.0000 O   0  0  0  0  0  0  0  0  0  0  0  0
    9.4677   -2.3631    0.0000 O   0  0  0  0  0  0  0  0  0  0  0  0
    7.4787   -2.5722    0.0000 O   0  0  0  0  0  0  0  0  0  0  0  0
    8.6543   -4.1902    0.0000 O   0  0  0  0  0  0  0  0  0  0  0  0
    2.4888    2.2892    0.0000 O   0  0  0  0  0  0  0  0  0  0  0  0
    7.6999   -1.1754    0.0000 O   0  0  0  0  0  0  0  0  0  0  0  0
   11.8189   -5.5992    0.0000 O   0  0  0  0  0  0  0  0  0  0  0  0
    6.0819   -2.3509    0.0000 O   0  0  0  0  0  0  0  0  0  0  0  0
    8.5778   -3.4622    0.0000 O   0  0  0  0  0  0  0  0  0  0  0  0
    8.3687   -1.4731    0.0000 O   0  0  0  0  0  0  0  0  0  0  0  0
    4.2208    2.2892    0.0000 N   0  0  0  0  0  0  0  0  0  0  0  0
    3.3548    3.7892    0.0000 N   0  0  0  0  0  0  0  0  0  0  0  0
    4.2208    5.2892    0.0000 N   0  0  0  0  0  0  0  0  0  0  0  0
    3.7208   -0.2497    0.0000 C   0  0  1  0  0  0  0  0  0  0  0  0
    3.4118    0.7014    0.0000 C   0  0  2  0  0  0  0  0  0  0  0  0
    4.7208   -0.2497    0.0000 C   0  0  1  0  0  0  0  0  0  0  0  0
    4.2208    1.2892    0.0000 C   0  0  1  0  0  0  0  0  0  0  0  0
    5.3086   -1.0587    0.0000 C   0  0  0  0  0  0  0  0  0  0  0  0
    5.0868    2.7892    0.0000 C   0  0  0  0  0  0  0  0  0  0  0  0
    9.6488   -4.0857    0.0000 C   0  0  1  0  0  0  0  0  0  0  0  0
    3.3548    2.7892    0.0000 C   0  0  0  0  0  0  0  0  0  0  0  0
   10.0555   -3.1721    0.0000 C   0  0  2  0  0  0  0  0  0  0  0  0
   10.2366   -4.8947    0.0000 C   0  0  0  0  0  0  0  0  0  0  0  0
   11.6378   -3.8766    0.0000 C   0  0  1  0  0  0  0  0  0  0  0  0
   11.2311   -4.7902    0.0000 C   0  0  0  0  0  0  0  0  0  0  0  0
    5.0868    3.7892    0.0000 C   0  0  0  0  0  0  0  0  0  0  0  0
   12.6324   -3.7721    0.0000 C   0  0  0  0  0  0  0  0  0  0  0  0
    4.2208    4.2892    0.0000 C   0  0  0  0  0  0  0  0  0  0  0  0
    3.1085   -0.1527    0.0000 H   0  0  0  0  0  0  0  0  0  0  0  0
    3.3148    1.3138    0.0000 H   0  0  0  0  0  0  0  0  0  0  0  0
    5.3332   -0.1527    0.0000 H   0  0  0  0  0  0  0  0  0  0  0  0
    3.6684    1.5707    0.0000 H   0  0  0  0  0  0  0  0  0  0  0  0
    4.7514   -1.3305    0.0000 H   0  0  0  0  0  0  0  0  0  0  0  0
    5.4795   -1.6546    0.0000 H   0  0  0  0  0  0  0  0  0  0  0  0
    3.3852   -1.6251    0.0000 H   0  0  0  0  0  0  0  0  0  0  0  0
    2.0000    0.5956    0.0000 H   0  0  0  0  0  0  0  0  0  0  0  0
    5.6238    2.4792    0.0000 H   0  0  0  0  0  0  0  0  0  0  0  0
    9.2844   -3.5841    0.0000 H   0  0  0  0  0  0  0  0  0  0  0  0
    9.4389   -3.2369    0.0000 H   0  0  0  0  0  0  0  0  0  0  0  0
    9.6793   -5.1665    0.0000 H   0  0  0  0  0  0  0  0  0  0  0  0
   10.4075   -5.4907    0.0000 H   0  0  0  0  0  0  0  0  0  0  0  0
   11.8900   -3.3102    0.0000 H   0  0  0  0  0  0  0  0  0  0  0  0
    5.6238    4.0992    0.0000 H   0  0  0  0  0  0  0  0  0  0  0  0
   12.6972   -4.3887    0.0000 H   0  0  0  0  0  0  0  0  0  0  0  0
   13.2490   -3.7073    0.0000 H   0  0  0  0  0  0  0  0  0  0  0  0
   12.5676   -3.1555    0.0000 H   0  0  0  0  0  0  0  0  0  0  0  0
    8.4021   -4.7566    0.0000 H   0  0  0  0  0  0  0  0  0  0  0  0
    7.6351   -0.5588    0.0000 H   0  0  0  0  0  0  0  0  0  0  0  0
    4.7578    5.5992    0.0000 H   0  0  0  0  0  0  0  0  0  0  0  0
    3.6839    5.5992    0.0000 H   0  0  0  0  0  0  0  0  0  0  0  0
    8.0762   -3.8266    0.0000 H   0  0  0  0  0  0  0  0  0  0  0  0
  1  6  1  0  0  0  0
  1  9  1  0  0  0  0
  1 12  1  0  0  0  0
  1 14  2  0  0  0  0
  2  8  1  0  0  0  0
  2  9  1  0  0  0  0
  2 15  1  0  0  0  0
  2 16  2  0  0  0  0
  3 22  1  0  0  0  0
  3 23  1  0  0  0  0
 20  4  1  1  0  0  0
  4 41  1  0  0  0  0
 21  5  1  1  0  0  0
  5 42  1  0  0  0  0
  6 24  1  0  0  0  0
  7 28  1  0  0  0  0
  7 30  1  0  0  0  0
 28  8  1  1  0  0  0
 26 10  1  1  0  0  0
 10 53  1  0  0  0  0
 11 27  2  0  0  0  0
 12 54  1  0  0  0  0
 13 31  2  0  0  0  0
 15 57  1  0  0  0  0
 23 17  1  6  0  0  0
 17 25  1  0  0  0  0
 17 27  1  0  0  0  0
 18 27  1  0  0  0  0
 18 34  2  0  0  0  0
 19 34  1  0  0  0  0
 19 55  1  0  0  0  0
 19 56  1  0  0  0  0
 20 21  1  0  0  0  0
 20 22  1  0  0  0  0
 20 35  1  0  0  0  0
 21 23  1  0  0  0  0
 21 36  1  0  0  0  0
 22 24  1  6  0  0  0
 22 37  1  0  0  0  0
 23 38  1  0  0  0  0
 24 39  1  0  0  0  0
 24 40  1  0  0  0  0
 25 32  2  0  0  0  0
 25 43  1  0  0  0  0
 26 28  1  0  0  0  0
 26 29  1  0  0  0  0
 26 44  1  0  0  0  0
 28 45  1  0  0  0  0
 29 31  1  0  0  0  0
 29 46  1  0  0  0  0
 29 47  1  0  0  0  0
 30 31  1  0  0  0  0
 30 33  1  6  0  0  0
 30 48  1  0  0  0  0
 32 34  1  0  0  0  0
 32 49  1  0  0  0  0
 33 50  1  0  0  0  0
 33 51  1  0  0  0  0
 33 52  1  0  0  0  0
M  END
> <PUBCHEM_COMPOUND_CID>
193002

> <PUBCHEM_COMPOUND_CANONICALIZED>
1

> <PUBCHEM_CACTVS_COMPLEXITY>
974

> <PUBCHEM_CACTVS_HBOND_ACCEPTOR>
14

> <PUBCHEM_CACTVS_HBOND_DONOR>
6

> <PUBCHEM_CACTVS_ROTATABLE_BOND>
8

> <PUBCHEM_CACTVS_SUBSKEYS>
AAADceBzPAMAAAAAAAAAAAAAAAAAASAAAAAkQAAAAAAAAAAAAAAAHgAQCCAACBTxgAcDCANABxCoQKJ2dIKAAAEAAgAIAAFYABCTEBYAgAQOQAAHNgIXAAHycAYAAAAAAAAAAAAAAAAAAAAAAAAAAAAAAA==

> <PUBCHEM_IUPAC_OPENEYE_NAME>
[[(2R,3S,4R,5R)-5-(4-amino-2-oxo-pyrimidin-1-yl)-3,4-dihydroxy-tetrahydrofuran-2-yl]methoxy-hydroxy-phosphoryl] [(2R,3R,6R)-3-hydroxy-6-methyl-5-oxo-tetrahydropyran-2-yl] hydrogen phosphate

> <PUBCHEM_IUPAC_CAS_NAME>
[[(2R,3S,4R,5R)-5-(4-amino-2-oxo-1-pyrimidinyl)-3,4-dihydroxy-2-oxolanyl]methoxy-hydroxyphosphoryl] [(2R,3R,6R)-3-hydroxy-6-methyl-5-oxo-2-oxanyl] hydrogen phosphate

> <PUBCHEM_IUPAC_NAME>
[[(2R,3S,4R,5R)-5-(4-amino-2-oxopyrimidin-1-yl)-3,4-dihydroxyoxolan-2-yl]methoxy-hydroxyphosphoryl] [(2R,3R,6R)-3-hydroxy-6-methyl-5-oxooxan-2-yl] hydrogen phosphate

> <PUBCHEM_IUPAC_SYSTEMATIC_NAME>
[[(2R,3S,4R,5R)-5-(4-azanyl-2-oxidanylidene-pyrimidin-1-yl)-3,4-bis(oxidanyl)oxolan-2-yl]methoxy-oxidanyl-phosphoryl] [(2R,3R,6R)-6-methyl-3-oxidanyl-5-oxidanylidene-oxan-2-yl] hydrogen phosphate

> <PUBCHEM_IUPAC_TRADITIONAL_NAME>
[[(2R,3S,4R,5R)-5-(4-amino-2-keto-pyrimidin-1-yl)-3,4-dihydroxy-tetrahydrofuran-2-yl]methoxy-hydroxy-phosphoryl] [(2R,3R,6R)-3-hydroxy-5-keto-6-methyl-tetrahydropyran-2-yl] hydrogen phosphate

> <PUBCHEM_IUPAC_INCHI>
InChI=1S/C15H23N3O14P2/c1-6-7(19)4-8(20)14(29-6)31-34(26,27)32-33(24,25)28-5-9-11(21)12(22)13(30-9)18-3-2-10(16)17-15(18)23/h2-3,6,8-9,11-14,20-22H,4-5H2,1H3,(H,24,25)(H,26,27)(H2,16,17,23)/t6-,8-,9-,11-,12-,13-,14-/m1/s1

> <PUBCHEM_IUPAC_INCHIKEY>
DATWFRMXXZBEPM-SNAICPSHSA-N

> <PUBCHEM_XLOGP3_AA>
-5.5

> <PUBCHEM_EXACT_MASS>
531.065526

> <PUBCHEM_MOLECULAR_FORMULA>
C15H23N3O14P2

> <PUBCHEM_MOLECULAR_WEIGHT>
531.302344

> <PUBCHEM_OPENEYE_CAN_SMILES>
CC1C(=O)CC(C(O1)OP(=O)(O)OP(=O)(O)OCC2C(C(C(O2)N3C=CC(=NC3=O)N)O)O)O

> <PUBCHEM_OPENEYE_ISO_SMILES>
C[C@@H]1C(=O)C[C@H]([C@H](O1)OP(=O)(O)OP(=O)(O)OC[C@@H]2[C@H]([C@H]([C@@H](O2)N3C=CC(=NC3=O)N)O)O)O

> <PUBCHEM_CACTVS_TPSA>
257

> <PUBCHEM_MONOISOTOPIC_WEIGHT>
531.065526

> <PUBCHEM_TOTAL_CHARGE>
0

> <PUBCHEM_HEAVY_ATOM_COUNT>
34

> <PUBCHEM_ATOM_DEF_STEREO_COUNT>
7

> <PUBCHEM_ATOM_UDEF_STEREO_COUNT>
0

> <PUBCHEM_BOND_DEF_STEREO_COUNT>
0

> <PUBCHEM_BOND_UDEF_STEREO_COUNT>
0

> <PUBCHEM_ISOTOPIC_ATOM_COUNT>
0

> <PUBCHEM_COMPONENT_COUNT>
1

> <PUBCHEM_CACTVS_TAUTO_COUNT>
9

> <PUBCHEM_COORDINATE_TYPE>
1
5
255

> <PUBCHEM_BONDANNOTATIONS>
26  10  5
23  17  6
17  25  8
17  27  8
18  27  8
18  34  8
22  24  6
25  32  8
30  33  6
32  34  8
20  4  5
21  5  5
28  8  5

$$$$

