17395966
  -OEChem-06241222532D

 51 55  0     0  0  0  0  0  0999 V2000
    5.5202   -0.5854    0.0000 O   0  0  0  0  0  0  0  0  0  0  0  0
    2.0000   -0.5854    0.0000 O   0  0  0  0  0  0  0  0  0  0  0  0
    2.6723    1.4837    0.0000 O   0  0  0  0  0  0  0  0  0  0  0  0
    6.0234    3.1018    0.0000 O   0  0  0  0  0  0  0  0  0  0  0  0
    3.7601   -0.8641    0.0000 N   0  0  0  0  0  0  0  0  0  0  0  0
    4.2601    0.6747    0.0000 N   0  0  0  0  0  0  0  0  0  0  0  0
    3.7601   -1.8641    0.0000 C   0  0  0  0  0  0  0  0  0  0  0  0
    4.5963   -3.3125    0.0000 C   0  0  0  0  0  0  0  0  0  0  0  0
    3.0690   -3.7476    0.0000 C   0  0  0  0  0  0  0  0  0  0  0  0
    2.9239   -3.3125    0.0000 C   0  0  0  0  0  0  0  0  0  0  0  0
    4.5963   -2.3469    0.0000 C   0  0  0  0  0  0  0  0  0  0  0  0
    3.0690   -2.7023    0.0000 C   0  0  0  0  0  0  0  0  0  0  0  0
    2.9239   -2.3469    0.0000 C   0  0  0  0  0  0  0  0  0  0  0  0
    2.0871   -3.7952    0.0000 C   0  0  0  0  0  0  0  0  0  0  0  0
    3.7601   -3.6152    0.0000 C   0  0  0  0  0  0  0  0  0  0  0  0
    3.9746   -4.2244    0.0000 C   0  0  0  0  0  0  0  0  0  0  0  0
    4.5691   -0.2763    0.0000 C   0  0  0  0  0  0  0  0  0  0  0  0
    2.9511   -0.2764    0.0000 C   0  0  0  0  0  0  0  0  0  0  0  0
    3.2601    0.6747    0.0000 C   0  0  0  0  0  0  0  0  0  0  0  0
    4.8478    1.4837    0.0000 C   0  0  0  0  0  0  0  0  0  0  0  0
    4.4411    2.3973    0.0000 C   0  0  0  0  0  0  0  0  0  0  0  0
    5.0289    3.2063    0.0000 C   0  0  0  0  0  0  0  0  0  0  0  0
    3.4466    2.5018    0.0000 C   0  0  0  0  0  0  0  0  0  0  0  0
    4.6222    4.1198    0.0000 C   0  0  0  0  0  0  0  0  0  0  0  0
    3.0398    3.4153    0.0000 C   0  0  0  0  0  0  0  0  0  0  0  0
    3.6276    4.2244    0.0000 C   0  0  0  0  0  0  0  0  0  0  0  0
    6.6112    3.9108    0.0000 C   0  0  0  0  0  0  0  0  0  0  0  0
    2.9783   -3.9301    0.0000 H   0  0  0  0  0  0  0  0  0  0  0  0
    2.9349   -4.3529    0.0000 H   0  0  0  0  0  0  0  0  0  0  0  0
    5.1887   -3.4952    0.0000 H   0  0  0  0  0  0  0  0  0  0  0  0
    5.2068   -2.4546    0.0000 H   0  0  0  0  0  0  0  0  0  0  0  0
    4.8083   -1.7643    0.0000 H   0  0  0  0  0  0  0  0  0  0  0  0
    2.7254   -2.1862    0.0000 H   0  0  0  0  0  0  0  0  0  0  0  0
    2.4756   -2.8818    0.0000 H   0  0  0  0  0  0  0  0  0  0  0  0
    2.7118   -1.7643    0.0000 H   0  0  0  0  0  0  0  0  0  0  0  0
    2.3133   -2.4546    0.0000 H   0  0  0  0  0  0  0  0  0  0  0  0
    3.6652   -4.7616    0.0000 H   0  0  0  0  0  0  0  0  0  0  0  0
    3.3901   -4.1128    0.0000 H   0  0  0  0  0  0  0  0  0  0  0  0
    4.1300   -4.1128    0.0000 H   0  0  0  0  0  0  0  0  0  0  0  0
    1.6058   -3.4043    0.0000 H   0  0  0  0  0  0  0  0  0  0  0  0
    1.8939   -4.3844    0.0000 H   0  0  0  0  0  0  0  0  0  0  0  0
    4.4998   -4.5539    0.0000 H   0  0  0  0  0  0  0  0  0  0  0  0
    5.2785    1.0377    0.0000 H   0  0  0  0  0  0  0  0  0  0  0  0
    5.3618    1.8304    0.0000 H   0  0  0  0  0  0  0  0  0  0  0  0
    3.0822    2.0002    0.0000 H   0  0  0  0  0  0  0  0  0  0  0  0
    4.9866    4.6214    0.0000 H   0  0  0  0  0  0  0  0  0  0  0  0
    2.4232    3.4801    0.0000 H   0  0  0  0  0  0  0  0  0  0  0  0
    3.3754    4.7908    0.0000 H   0  0  0  0  0  0  0  0  0  0  0  0
    7.1128    3.5464    0.0000 H   0  0  0  0  0  0  0  0  0  0  0  0
    6.9756    4.4124    0.0000 H   0  0  0  0  0  0  0  0  0  0  0  0
    6.1096    4.2752    0.0000 H   0  0  0  0  0  0  0  0  0  0  0  0
  1 17  2  0  0  0  0
  2 18  2  0  0  0  0
  3 19  2  0  0  0  0
  4 22  1  0  0  0  0
  4 27  1  0  0  0  0
  5  7  1  0  0  0  0
  5 17  1  0  0  0  0
  5 18  1  0  0  0  0
  6 17  1  0  0  0  0
  6 19  1  0  0  0  0
  6 20  1  0  0  0  0
  7 11  1  0  0  0  0
  7 12  1  0  0  0  0
  7 13  1  0  0  0  0
  8 11  1  0  0  0  0
  8 15  1  0  0  0  0
  8 16  1  0  0  0  0
  8 30  1  0  0  0  0
  9 12  1  0  0  0  0
  9 14  1  0  0  0  0
  9 16  1  0  0  0  0
  9 29  1  0  0  0  0
 10 13  1  0  0  0  0
 10 14  1  0  0  0  0
 10 15  1  0  0  0  0
 10 28  1  0  0  0  0
 11 31  1  0  0  0  0
 11 32  1  0  0  0  0
 12 33  1  0  0  0  0
 12 34  1  0  0  0  0
 13 35  1  0  0  0  0
 13 36  1  0  0  0  0
 14 40  1  0  0  0  0
 14 41  1  0  0  0  0
 15 38  1  0  0  0  0
 15 39  1  0  0  0  0
 16 37  1  0  0  0  0
 16 42  1  0  0  0  0
 18 19  1  0  0  0  0
 20 21  1  0  0  0  0
 20 43  1  0  0  0  0
 20 44  1  0  0  0  0
 21 22  1  0  0  0  0
 21 23  2  0  0  0  0
 22 24  2  0  0  0  0
 23 25  1  0  0  0  0
 23 45  1  0  0  0  0
 24 26  1  0  0  0  0
 24 46  1  0  0  0  0
 25 26  2  0  0  0  0
 25 47  1  0  0  0  0
 26 48  1  0  0  0  0
 27 49  1  0  0  0  0
 27 50  1  0  0  0  0
 27 51  1  0  0  0  0
M  END
> <PUBCHEM_COMPOUND_CID>
17395966

> <PUBCHEM_COMPOUND_CANONICALIZED>
1

> <PUBCHEM_CACTVS_COMPLEXITY>
634

> <PUBCHEM_CACTVS_HBOND_ACCEPTOR>
4

> <PUBCHEM_CACTVS_HBOND_DONOR>
0

> <PUBCHEM_CACTVS_ROTATABLE_BOND>
4

> <PUBCHEM_CACTVS_SUBSKEYS>
AAADceB7OAAAAAAAAAAAAAAAAAAAAWAAAAAwYMGDAAAAAAABAAAAHgAAAAAADYzBmAYzBoMABACIAiFSEACCCAAgIAAIiACODIiMZiKEsTuUMChuxzOIqAeQwOAOAAAAAAAIAAAAAASAABAAAAAAAAAAAA==

> <PUBCHEM_IUPAC_OPENEYE_NAME>
1-(1-adamantyl)-3-[(2-methoxyphenyl)methyl]imidazolidine-2,4,5-trione

> <PUBCHEM_IUPAC_CAS_NAME>
1-(1-adamantyl)-3-[(2-methoxyphenyl)methyl]imidazolidine-2,4,5-trione

> <PUBCHEM_IUPAC_NAME>
1-(1-adamantyl)-3-[(2-methoxyphenyl)methyl]imidazolidine-2,4,5-trione

> <PUBCHEM_IUPAC_SYSTEMATIC_NAME>
1-(1-adamantyl)-3-[(2-methoxyphenyl)methyl]imidazolidine-2,4,5-trione

> <PUBCHEM_IUPAC_TRADITIONAL_NAME>
1-(1-adamantyl)-3-o-anisyl-imidazolidine-2,4,5-trione

> <PUBCHEM_IUPAC_INCHI>
InChI=1S/C21H24N2O4/c1-27-17-5-3-2-4-16(17)12-22-18(24)19(25)23(20(22)26)21-9-13-6-14(10-21)8-15(7-13)11-21/h2-5,13-15H,6-12H2,1H3

> <PUBCHEM_IUPAC_INCHIKEY>
HHQCHHDXSPFCRG-UHFFFAOYSA-N

> <PUBCHEM_XLOGP3_AA>
3.6

> <PUBCHEM_EXACT_MASS>
368.173607

> <PUBCHEM_MOLECULAR_FORMULA>
C21H24N2O4

> <PUBCHEM_MOLECULAR_WEIGHT>
368.42626

> <PUBCHEM_OPENEYE_CAN_SMILES>
COC1=CC=CC=C1CN2C(=O)C(=O)N(C2=O)C34CC5CC(C3)CC(C5)C4

> <PUBCHEM_OPENEYE_ISO_SMILES>
COC1=CC=CC=C1CN2C(=O)C(=O)N(C2=O)C34CC5CC(C3)CC(C5)C4

> <PUBCHEM_CACTVS_TPSA>
66.9

> <PUBCHEM_MONOISOTOPIC_WEIGHT>
368.173607

> <PUBCHEM_TOTAL_CHARGE>
0

> <PUBCHEM_HEAVY_ATOM_COUNT>
27

> <PUBCHEM_ATOM_DEF_STEREO_COUNT>
0

> <PUBCHEM_ATOM_UDEF_STEREO_COUNT>
0

> <PUBCHEM_BOND_DEF_STEREO_COUNT>
0

> <PUBCHEM_BOND_UDEF_STEREO_COUNT>
0

> <PUBCHEM_ISOTOPIC_ATOM_COUNT>
0

> <PUBCHEM_COMPONENT_COUNT>
1

> <PUBCHEM_CACTVS_TAUTO_COUNT>
1

> <PUBCHEM_COORDINATE_TYPE>
1
5
255

> <PUBCHEM_BONDANNOTATIONS>
21  22  8
21  23  8
22  24  8
23  25  8
24  26  8
25  26  8

$$$$

