66030
  -OEChem-07051213042D

 49 49  0     0  0  0  0  0  0999 V2000
    2.8660   -5.8450    0.0000 O   0  0  0  0  0  0  0  0  0  0  0  0
    5.4641    1.6550    0.0000 C   0  0  0  0  0  0  0  0  0  0  0  0
    4.5981    1.1550    0.0000 C   0  0  0  0  0  0  0  0  0  0  0  0
    5.4641    2.6550    0.0000 C   0  0  0  0  0  0  0  0  0  0  0  0
    4.5981    0.1550    0.0000 C   0  0  0  0  0  0  0  0  0  0  0  0
    6.3301    3.1550    0.0000 C   0  0  0  0  0  0  0  0  0  0  0  0
    3.7320   -0.3450    0.0000 C   0  0  0  0  0  0  0  0  0  0  0  0
    6.3301    4.1550    0.0000 C   0  0  0  0  0  0  0  0  0  0  0  0
    3.7320   -1.3450    0.0000 C   0  0  0  0  0  0  0  0  0  0  0  0
    7.1962    4.6550    0.0000 C   0  0  0  0  0  0  0  0  0  0  0  0
    2.8660   -1.8450    0.0000 C   0  0  0  0  0  0  0  0  0  0  0  0
    7.1962    5.6550    0.0000 C   0  0  0  0  0  0  0  0  0  0  0  0
    2.8660   -2.8450    0.0000 C   0  0  0  0  0  0  0  0  0  0  0  0
    8.0622    6.1550    0.0000 C   0  0  0  0  0  0  0  0  0  0  0  0
    2.0000   -3.3450    0.0000 C   0  0  0  0  0  0  0  0  0  0  0  0
    3.7320   -3.3450    0.0000 C   0  0  0  0  0  0  0  0  0  0  0  0
    2.0000   -4.3450    0.0000 C   0  0  0  0  0  0  0  0  0  0  0  0
    3.7320   -4.3450    0.0000 C   0  0  0  0  0  0  0  0  0  0  0  0
    2.8660   -4.8450    0.0000 C   0  0  0  0  0  0  0  0  0  0  0  0
    5.6762    1.0724    0.0000 H   0  0  0  0  0  0  0  0  0  0  0  0
    6.0747    1.7627    0.0000 H   0  0  0  0  0  0  0  0  0  0  0  0
    4.3860    1.7376    0.0000 H   0  0  0  0  0  0  0  0  0  0  0  0
    3.9875    1.0473    0.0000 H   0  0  0  0  0  0  0  0  0  0  0  0
    5.2520    3.2376    0.0000 H   0  0  0  0  0  0  0  0  0  0  0  0
    4.8535    2.5473    0.0000 H   0  0  0  0  0  0  0  0  0  0  0  0
    4.8101   -0.4276    0.0000 H   0  0  0  0  0  0  0  0  0  0  0  0
    5.2087    0.2627    0.0000 H   0  0  0  0  0  0  0  0  0  0  0  0
    6.5422    2.5724    0.0000 H   0  0  0  0  0  0  0  0  0  0  0  0
    6.9407    3.2627    0.0000 H   0  0  0  0  0  0  0  0  0  0  0  0
    3.5200    0.2376    0.0000 H   0  0  0  0  0  0  0  0  0  0  0  0
    3.1215   -0.4527    0.0000 H   0  0  0  0  0  0  0  0  0  0  0  0
    6.1181    4.7376    0.0000 H   0  0  0  0  0  0  0  0  0  0  0  0
    5.7196    4.0473    0.0000 H   0  0  0  0  0  0  0  0  0  0  0  0
    3.9441   -1.9276    0.0000 H   0  0  0  0  0  0  0  0  0  0  0  0
    4.3426   -1.2373    0.0000 H   0  0  0  0  0  0  0  0  0  0  0  0
    7.4082    4.0724    0.0000 H   0  0  0  0  0  0  0  0  0  0  0  0
    7.8067    4.7627    0.0000 H   0  0  0  0  0  0  0  0  0  0  0  0
    2.6540   -1.2624    0.0000 H   0  0  0  0  0  0  0  0  0  0  0  0
    2.2554   -1.9527    0.0000 H   0  0  0  0  0  0  0  0  0  0  0  0
    6.9841    6.2376    0.0000 H   0  0  0  0  0  0  0  0  0  0  0  0
    6.5856    5.5473    0.0000 H   0  0  0  0  0  0  0  0  0  0  0  0
    8.3722    5.6181    0.0000 H   0  0  0  0  0  0  0  0  0  0  0  0
    8.5991    6.4650    0.0000 H   0  0  0  0  0  0  0  0  0  0  0  0
    7.7522    6.6919    0.0000 H   0  0  0  0  0  0  0  0  0  0  0  0
    1.4631   -3.0350    0.0000 H   0  0  0  0  0  0  0  0  0  0  0  0
    4.2690   -3.0350    0.0000 H   0  0  0  0  0  0  0  0  0  0  0  0
    1.4631   -4.6550    0.0000 H   0  0  0  0  0  0  0  0  0  0  0  0
    4.2690   -4.6550    0.0000 H   0  0  0  0  0  0  0  0  0  0  0  0
    2.3291   -6.1550    0.0000 H   0  0  0  0  0  0  0  0  0  0  0  0
  1 19  1  0  0  0  0
  1 49  1  0  0  0  0
  2  3  1  0  0  0  0
  2  4  1  0  0  0  0
  2 20  1  0  0  0  0
  2 21  1  0  0  0  0
  3  5  1  0  0  0  0
  3 22  1  0  0  0  0
  3 23  1  0  0  0  0
  4  6  1  0  0  0  0
  4 24  1  0  0  0  0
  4 25  1  0  0  0  0
  5  7  1  0  0  0  0
  5 26  1  0  0  0  0
  5 27  1  0  0  0  0
  6  8  1  0  0  0  0
  6 28  1  0  0  0  0
  6 29  1  0  0  0  0
  7  9  1  0  0  0  0
  7 30  1  0  0  0  0
  7 31  1  0  0  0  0
  8 10  1  0  0  0  0
  8 32  1  0  0  0  0
  8 33  1  0  0  0  0
  9 11  1  0  0  0  0
  9 34  1  0  0  0  0
  9 35  1  0  0  0  0
 10 12  1  0  0  0  0
 10 36  1  0  0  0  0
 10 37  1  0  0  0  0
 11 13  1  0  0  0  0
 11 38  1  0  0  0  0
 11 39  1  0  0  0  0
 12 14  1  0  0  0  0
 12 40  1  0  0  0  0
 12 41  1  0  0  0  0
 13 15  2  0  0  0  0
 13 16  1  0  0  0  0
 14 42  1  0  0  0  0
 14 43  1  0  0  0  0
 14 44  1  0  0  0  0
 15 17  1  0  0  0  0
 15 45  1  0  0  0  0
 16 18  2  0  0  0  0
 16 46  1  0  0  0  0
 17 19  2  0  0  0  0
 17 47  1  0  0  0  0
 18 19  1  0  0  0  0
 18 48  1  0  0  0  0
M  END
> <PUBCHEM_COMPOUND_CID>
66030

> <PUBCHEM_COMPOUND_CANONICALIZED>
1

> <PUBCHEM_CACTVS_COMPLEXITY>
182

> <PUBCHEM_CACTVS_HBOND_ACCEPTOR>
1

> <PUBCHEM_CACTVS_HBOND_DONOR>
1

> <PUBCHEM_CACTVS_ROTATABLE_BOND>
11

> <PUBCHEM_CACTVS_SUBSKEYS>
AAADceB4IAAAAAAAAAAAAAAAAAAAAAAAAAAwAAAAAAAAAAABAAAAGgAACAAADASAmAAyBoAAAgCAAiBCAAACAAAgIAAIiAAGCIgIJiKCERKAcAAkwBEImAeAwOAOIAAAAAAAAABAAAAAAAAAAAAAAAAAAA==

> <PUBCHEM_IUPAC_OPENEYE_NAME>
4-dodecylphenol

> <PUBCHEM_IUPAC_CAS_NAME>
4-dodecylphenol

> <PUBCHEM_IUPAC_NAME>
4-dodecylphenol

> <PUBCHEM_IUPAC_SYSTEMATIC_NAME>
4-dodecylphenol

> <PUBCHEM_IUPAC_TRADITIONAL_NAME>
4-laurylphenol

> <PUBCHEM_IUPAC_INCHI>
InChI=1S/C18H30O/c1-2-3-4-5-6-7-8-9-10-11-12-17-13-15-18(19)16-14-17/h13-16,19H,2-12H2,1H3

> <PUBCHEM_IUPAC_INCHIKEY>
KJWMCPYEODZESQ-UHFFFAOYSA-N

> <PUBCHEM_XLOGP3>
7.5

> <PUBCHEM_EXACT_MASS>
262.229666

> <PUBCHEM_MOLECULAR_FORMULA>
C18H30O

> <PUBCHEM_MOLECULAR_WEIGHT>
262.4302

> <PUBCHEM_OPENEYE_CAN_SMILES>
CCCCCCCCCCCCC1=CC=C(C=C1)O

> <PUBCHEM_OPENEYE_ISO_SMILES>
CCCCCCCCCCCCC1=CC=C(C=C1)O

> <PUBCHEM_CACTVS_TPSA>
20.2

> <PUBCHEM_MONOISOTOPIC_WEIGHT>
262.229666

> <PUBCHEM_TOTAL_CHARGE>
0

> <PUBCHEM_HEAVY_ATOM_COUNT>
19

> <PUBCHEM_ATOM_DEF_STEREO_COUNT>
0

> <PUBCHEM_ATOM_UDEF_STEREO_COUNT>
0

> <PUBCHEM_BOND_DEF_STEREO_COUNT>
0

> <PUBCHEM_BOND_UDEF_STEREO_COUNT>
0

> <PUBCHEM_ISOTOPIC_ATOM_COUNT>
0

> <PUBCHEM_COMPONENT_COUNT>
1

> <PUBCHEM_CACTVS_TAUTO_COUNT>
2

> <PUBCHEM_COORDINATE_TYPE>
1
5
255

> <PUBCHEM_BONDANNOTATIONS>
13  15  8
13  16  8
15  17  8
16  18  8
17  19  8
18  19  8

$$$$

