2680
  -OEChem-07051212462D

 45 46  0     0  0  0  0  0  0999 V2000
    4.2690   -0.5000    0.0000 O   0  0  0  0  0  0  0  0  0  0  0  0
    2.5369   -0.5000    0.0000 O   0  0  0  0  0  0  0  0  0  0  0  0
    6.0010    5.5000    0.0000 O   0  0  0  0  0  0  0  0  0  0  0  0
    4.2690    5.5000    0.0000 O   0  0  0  0  0  0  0  0  0  0  0  0
    2.5369   -5.5000    0.0000 N   0  0  0  0  0  0  0  0  0  0  0  0
    3.4030   -4.0000    0.0000 C   0  0  0  0  0  0  0  0  0  0  0  0
    3.4030   -2.0000    0.0000 C   0  0  0  0  0  0  0  0  0  0  0  0
    4.2690   -3.5000    0.0000 C   0  0  0  0  0  0  0  0  0  0  0  0
    2.5369   -3.5000    0.0000 C   0  0  0  0  0  0  0  0  0  0  0  0
    4.2690   -2.5000    0.0000 C   0  0  0  0  0  0  0  0  0  0  0  0
    2.5369   -2.5000    0.0000 C   0  0  0  0  0  0  0  0  0  0  0  0
    3.4030   -5.0000    0.0000 C   0  0  0  0  0  0  0  0  0  0  0  0
    3.4030   -1.0000    0.0000 C   0  0  0  0  0  0  0  0  0  0  0  0
    4.2690    0.5000    0.0000 C   0  0  0  0  0  0  0  0  0  0  0  0
    5.1350    1.0000    0.0000 C   0  0  0  0  0  0  0  0  0  0  0  0
    3.4030    1.0000    0.0000 C   0  0  0  0  0  0  0  0  0  0  0  0
    4.2690    2.5000    0.0000 C   0  0  0  0  0  0  0  0  0  0  0  0
    5.1350    2.0000    0.0000 C   0  0  0  0  0  0  0  0  0  0  0  0
    3.4030    2.0000    0.0000 C   0  0  0  0  0  0  0  0  0  0  0  0
    4.2690    3.5000    0.0000 C   0  0  0  0  0  0  0  0  0  0  0  0
    5.1350    4.0000    0.0000 C   0  0  0  0  0  0  0  0  0  0  0  0
    5.1350    5.0000    0.0000 C   0  0  0  0  0  0  0  0  0  0  0  0
    3.9399   -4.3100    0.0000 H   0  0  0  0  0  0  0  0  0  0  0  0
    3.9399   -1.6900    0.0000 H   0  0  0  0  0  0  0  0  0  0  0  0
    4.4810   -4.0826    0.0000 H   0  0  0  0  0  0  0  0  0  0  0  0
    4.8796   -3.3923    0.0000 H   0  0  0  0  0  0  0  0  0  0  0  0
    1.9264   -3.3923    0.0000 H   0  0  0  0  0  0  0  0  0  0  0  0
    2.3249   -4.0826    0.0000 H   0  0  0  0  0  0  0  0  0  0  0  0
    2.3249   -1.9174    0.0000 H   0  0  0  0  0  0  0  0  0  0  0  0
    1.9264   -2.6077    0.0000 H   0  0  0  0  0  0  0  0  0  0  0  0
    4.8796   -2.6077    0.0000 H   0  0  0  0  0  0  0  0  0  0  0  0
    4.4810   -1.9174    0.0000 H   0  0  0  0  0  0  0  0  0  0  0  0
    3.6150   -5.5826    0.0000 H   0  0  0  0  0  0  0  0  0  0  0  0
    4.0135   -4.8923    0.0000 H   0  0  0  0  0  0  0  0  0  0  0  0
    2.5369   -6.1200    0.0000 H   0  0  0  0  0  0  0  0  0  0  0  0
    2.0000   -5.1900    0.0000 H   0  0  0  0  0  0  0  0  0  0  0  0
    5.6720    0.6900    0.0000 H   0  0  0  0  0  0  0  0  0  0  0  0
    2.8660    0.6900    0.0000 H   0  0  0  0  0  0  0  0  0  0  0  0
    5.6720    2.3100    0.0000 H   0  0  0  0  0  0  0  0  0  0  0  0
    2.8660    2.3100    0.0000 H   0  0  0  0  0  0  0  0  0  0  0  0
    4.0569    4.0826    0.0000 H   0  0  0  0  0  0  0  0  0  0  0  0
    3.6584    3.3923    0.0000 H   0  0  0  0  0  0  0  0  0  0  0  0
    5.3471    3.4174    0.0000 H   0  0  0  0  0  0  0  0  0  0  0  0
    5.7456    4.1077    0.0000 H   0  0  0  0  0  0  0  0  0  0  0  0
    6.0010    6.1200    0.0000 H   0  0  0  0  0  0  0  0  0  0  0  0
  1 13  1  0  0  0  0
  1 14  1  0  0  0  0
  2 13  2  0  0  0  0
  3 22  1  0  0  0  0
  3 45  1  0  0  0  0
  4 22  2  0  0  0  0
  5 12  1  0  0  0  0
  5 35  1  0  0  0  0
  5 36  1  0  0  0  0
  6  8  1  0  0  0  0
  6  9  1  0  0  0  0
  6 12  1  0  0  0  0
  6 23  1  0  0  0  0
  7 10  1  0  0  0  0
  7 11  1  0  0  0  0
  7 13  1  0  0  0  0
  7 24  1  0  0  0  0
  8 10  1  0  0  0  0
  8 25  1  0  0  0  0
  8 26  1  0  0  0  0
  9 11  1  0  0  0  0
  9 27  1  0  0  0  0
  9 28  1  0  0  0  0
 10 31  1  0  0  0  0
 10 32  1  0  0  0  0
 11 29  1  0  0  0  0
 11 30  1  0  0  0  0
 12 33  1  0  0  0  0
 12 34  1  0  0  0  0
 14 15  2  0  0  0  0
 14 16  1  0  0  0  0
 15 18  1  0  0  0  0
 15 37  1  0  0  0  0
 16 19  2  0  0  0  0
 16 38  1  0  0  0  0
 17 18  2  0  0  0  0
 17 19  1  0  0  0  0
 17 20  1  0  0  0  0
 18 39  1  0  0  0  0
 19 40  1  0  0  0  0
 20 21  1  0  0  0  0
 20 41  1  0  0  0  0
 20 42  1  0  0  0  0
 21 22  1  0  0  0  0
 21 43  1  0  0  0  0
 21 44  1  0  0  0  0
M  END
> <PUBCHEM_COMPOUND_CID>
2680

> <PUBCHEM_COMPOUND_CANONICALIZED>
1

> <PUBCHEM_CACTVS_COMPLEXITY>
369

> <PUBCHEM_CACTVS_HBOND_ACCEPTOR>
5

> <PUBCHEM_CACTVS_HBOND_DONOR>
2

> <PUBCHEM_CACTVS_ROTATABLE_BOND>
7

> <PUBCHEM_CACTVS_SUBSKEYS>
AAADceB6OAAAAAAAAAAAAAAAAAAAAAAAAAAwYAAAAAAAAAABAAAAHgAQCAAADQTBmAQwDoBABgCIAiDSCAACCAAgIAAIiIEGCIgMJjKEsRqCeiCk0BEIqAeYyLCOIAAAAAAAAADAAAAAAAAAAAAAAAAAAA==

> <PUBCHEM_IUPAC_OPENEYE_NAME>
3-[4-[4-(aminomethyl)cyclohexanecarbonyl]oxyphenyl]propanoic acid

> <PUBCHEM_IUPAC_CAS_NAME>
3-[4-[[4-(aminomethyl)cyclohexyl]-oxomethoxy]phenyl]propanoic acid

> <PUBCHEM_IUPAC_NAME>
3-[4-[4-(aminomethyl)cyclohexanecarbonyl]oxyphenyl]propanoic acid

> <PUBCHEM_IUPAC_SYSTEMATIC_NAME>
3-[4-[4-(aminomethyl)cyclohexyl]carbonyloxyphenyl]propanoic acid

> <PUBCHEM_IUPAC_TRADITIONAL_NAME>
3-[4-[4-(aminomethyl)cyclohexanecarbonyl]oxyphenyl]propionic acid

> <PUBCHEM_IUPAC_INCHI>
InChI=1S/C17H23NO4/c18-11-13-1-6-14(7-2-13)17(21)22-15-8-3-12(4-9-15)5-10-16(19)20/h3-4,8-9,13-14H,1-2,5-7,10-11,18H2,(H,19,20)

> <PUBCHEM_IUPAC_INCHIKEY>
FHRSHSOEWXUORL-UHFFFAOYSA-N

> <PUBCHEM_XLOGP3_AA>
-0.4

> <PUBCHEM_EXACT_MASS>
305.162708

> <PUBCHEM_MOLECULAR_FORMULA>
C17H23NO4

> <PUBCHEM_MOLECULAR_WEIGHT>
305.36882

> <PUBCHEM_OPENEYE_CAN_SMILES>
C1CC(CCC1CN)C(=O)OC2=CC=C(C=C2)CCC(=O)O

> <PUBCHEM_OPENEYE_ISO_SMILES>
C1CC(CCC1CN)C(=O)OC2=CC=C(C=C2)CCC(=O)O

> <PUBCHEM_CACTVS_TPSA>
89.6

> <PUBCHEM_MONOISOTOPIC_WEIGHT>
305.162708

> <PUBCHEM_TOTAL_CHARGE>
0

> <PUBCHEM_HEAVY_ATOM_COUNT>
22

> <PUBCHEM_ATOM_DEF_STEREO_COUNT>
0

> <PUBCHEM_ATOM_UDEF_STEREO_COUNT>
0

> <PUBCHEM_BOND_DEF_STEREO_COUNT>
0

> <PUBCHEM_BOND_UDEF_STEREO_COUNT>
0

> <PUBCHEM_ISOTOPIC_ATOM_COUNT>
0

> <PUBCHEM_COMPONENT_COUNT>
1

> <PUBCHEM_CACTVS_TAUTO_COUNT>
1

> <PUBCHEM_COORDINATE_TYPE>
1
5
255

> <PUBCHEM_BONDANNOTATIONS>
14  15  8
14  16  8
15  18  8
16  19  8
17  18  8
17  19  8

$$$$

