54723870
  -OEChem-07051213082D

 87 88  0     1  0  0  0  0  0999 V2000
    6.0010    0.5970    0.0000 O   0  0  0  0  0  0  0  0  0  0  0  0
    4.2690    0.5970    0.0000 O   0  0  0  0  0  0  0  0  0  0  0  0
    4.2690   -2.4030    0.0000 O   0  0  0  0  0  0  0  0  0  0  0  0
    2.5369   -1.4030    0.0000 O   0  0  0  0  0  0  0  0  0  0  0  0
   19.2469   -0.7879    0.0000 O   0  0  0  0  0  0  0  0  0  0  0  0
   17.4868    2.2607    0.0000 O   0  0  0  0  0  0  0  0  0  0  0  0
   17.2594   -0.9030    0.0000 O   0  0  0  0  0  0  0  0  0  0  0  0
   22.8727    2.3424    0.0000 O   0  0  0  0  0  0  0  0  0  0  0  0
   22.6916    0.6198    0.0000 O   0  0  0  0  0  0  0  0  0  0  0  0
   19.2081    1.7994    0.0000 N   0  0  0  0  0  0  0  0  0  0  0  0
    5.1350    0.0970    0.0000 C   0  0  2  0  0  0  0  0  0  0  0  0
    4.2690   -1.4030    0.0000 C   0  0  1  0  0  0  0  0  0  0  0  0
    5.1350   -0.9030    0.0000 C   0  0  0  0  0  0  0  0  0  0  0  0
    6.8671    0.0970    0.0000 C   0  0  3  0  0  0  0  0  0  0  0  0
    3.4030   -0.9030    0.0000 C   0  0  1  0  0  0  0  0  0  0  0  0
    3.4030    0.0970    0.0000 C   0  0  1  0  0  0  0  0  0  0  0  0
    6.8671   -0.9030    0.0000 C   0  0  0  0  0  0  0  0  0  0  0  0
    7.7331    0.5970    0.0000 C   0  0  3  0  0  0  0  0  0  0  0  0
    2.5369    0.5970    0.0000 C   0  0  0  0  0  0  0  0  0  0  0  0
    7.7331   -1.4030    0.0000 C   0  0  0  0  0  0  0  0  0  0  0  0
    6.0010   -1.4030    0.0000 C   0  0  0  0  0  0  0  0  0  0  0  0
    7.7331    1.5970    0.0000 C   0  0  0  0  0  0  0  0  0  0  0  0
    8.5991    0.0970    0.0000 C   0  0  0  0  0  0  0  0  0  0  0  0
    9.4651    0.5970    0.0000 C   0  0  0  0  0  0  0  0  0  0  0  0
   19.7081    0.9334    0.0000 C   0  0  3  0  0  0  0  0  0  0  0  0
   20.7026    0.8289    0.0000 C   0  0  0  0  0  0  0  0  0  0  0  0
    9.4651    1.5970    0.0000 C   0  0  0  0  0  0  0  0  0  0  0  0
   10.3312    0.0970    0.0000 C   0  0  0  0  0  0  0  0  0  0  0  0
   19.0389    0.1903    0.0000 C   0  0  0  0  0  0  0  0  0  0  0  0
   18.1254    0.5970    0.0000 C   0  0  0  0  0  0  0  0  0  0  0  0
   18.2299    1.5915    0.0000 C   0  0  0  0  0  0  0  0  0  0  0  0
   21.2904    1.6379    0.0000 C   0  0  0  0  0  0  0  0  0  0  0  0
   19.6148    2.7130    0.0000 C   0  0  0  0  0  0  0  0  0  0  0  0
   11.1972    0.5970    0.0000 C   0  0  0  0  0  0  0  0  0  0  0  0
   17.2594    0.0970    0.0000 C   0  0  0  0  0  0  0  0  0  0  0  0
   22.2849    1.5334    0.0000 C   0  0  0  0  0  0  0  0  0  0  0  0
   16.3933    0.5970    0.0000 C   0  0  0  0  0  0  0  0  0  0  0  0
   12.0632    0.0970    0.0000 C   0  0  0  0  0  0  0  0  0  0  0  0
   15.5273    0.0970    0.0000 C   0  0  0  0  0  0  0  0  0  0  0  0
   12.9292    0.5970    0.0000 C   0  0  0  0  0  0  0  0  0  0  0  0
   14.6613    0.5970    0.0000 C   0  0  0  0  0  0  0  0  0  0  0  0
   13.7953    0.0970    0.0000 C   0  0  0  0  0  0  0  0  0  0  0  0
    5.1350    0.7170    0.0000 H   0  0  0  0  0  0  0  0  0  0  0  0
    4.8059   -1.7130    0.0000 H   0  0  0  0  0  0  0  0  0  0  0  0
    5.3471   -1.4856    0.0000 H   0  0  0  0  0  0  0  0  0  0  0  0
    5.7456   -0.7953    0.0000 H   0  0  0  0  0  0  0  0  0  0  0  0
    6.3301   -0.2130    0.0000 H   0  0  0  0  0  0  0  0  0  0  0  0
    3.4030   -1.5230    0.0000 H   0  0  0  0  0  0  0  0  0  0  0  0
    3.4030    0.7170    0.0000 H   0  0  0  0  0  0  0  0  0  0  0  0
    6.3301   -0.5930    0.0000 H   0  0  0  0  0  0  0  0  0  0  0  0
    8.2700    0.9070    0.0000 H   0  0  0  0  0  0  0  0  0  0  0  0
    2.8469    1.1340    0.0000 H   0  0  0  0  0  0  0  0  0  0  0  0
    2.0000    0.9070    0.0000 H   0  0  0  0  0  0  0  0  0  0  0  0
    2.2269    0.0601    0.0000 H   0  0  0  0  0  0  0  0  0  0  0  0
    7.4231   -1.9399    0.0000 H   0  0  0  0  0  0  0  0  0  0  0  0
    5.6910   -0.8661    0.0000 H   0  0  0  0  0  0  0  0  0  0  0  0
    5.4641   -1.7130    0.0000 H   0  0  0  0  0  0  0  0  0  0  0  0
    6.3110   -1.9399    0.0000 H   0  0  0  0  0  0  0  0  0  0  0  0
    8.2700   -1.7130    0.0000 H   0  0  0  0  0  0  0  0  0  0  0  0
    8.0431   -0.8661    0.0000 H   0  0  0  0  0  0  0  0  0  0  0  0
    8.3531    1.5970    0.0000 H   0  0  0  0  0  0  0  0  0  0  0  0
    7.7331    2.2170    0.0000 H   0  0  0  0  0  0  0  0  0  0  0  0
    7.1131    1.5970    0.0000 H   0  0  0  0  0  0  0  0  0  0  0  0
    8.5991   -0.5230    0.0000 H   0  0  0  0  0  0  0  0  0  0  0  0
    4.8059   -2.7130    0.0000 H   0  0  0  0  0  0  0  0  0  0  0  0
    2.0000   -1.0930    0.0000 H   0  0  0  0  0  0  0  0  0  0  0  0
   20.0457    1.4534    0.0000 H   0  0  0  0  0  0  0  0  0  0  0  0
   20.5317    0.2329    0.0000 H   0  0  0  0  0  0  0  0  0  0  0  0
   21.2598    0.5571    0.0000 H   0  0  0  0  0  0  0  0  0  0  0  0
   10.0851    1.5970    0.0000 H   0  0  0  0  0  0  0  0  0  0  0  0
    9.4651    2.2170    0.0000 H   0  0  0  0  0  0  0  0  0  0  0  0
    8.8451    1.5970    0.0000 H   0  0  0  0  0  0  0  0  0  0  0  0
   10.3312   -0.5230    0.0000 H   0  0  0  0  0  0  0  0  0  0  0  0
   21.4613    2.2339    0.0000 H   0  0  0  0  0  0  0  0  0  0  0  0
   20.7331    1.9097    0.0000 H   0  0  0  0  0  0  0  0  0  0  0  0
   20.1812    2.4608    0.0000 H   0  0  0  0  0  0  0  0  0  0  0  0
   19.8670    3.2794    0.0000 H   0  0  0  0  0  0  0  0  0  0  0  0
   19.0484    2.9652    0.0000 H   0  0  0  0  0  0  0  0  0  0  0  0
   11.1972    1.2170    0.0000 H   0  0  0  0  0  0  0  0  0  0  0  0
   16.3933    1.2170    0.0000 H   0  0  0  0  0  0  0  0  0  0  0  0
   12.0632   -0.5230    0.0000 H   0  0  0  0  0  0  0  0  0  0  0  0
   17.7963   -1.2130    0.0000 H   0  0  0  0  0  0  0  0  0  0  0  0
   15.5273   -0.5230    0.0000 H   0  0  0  0  0  0  0  0  0  0  0  0
   12.9292    1.2170    0.0000 H   0  0  0  0  0  0  0  0  0  0  0  0
   23.4893    2.2776    0.0000 H   0  0  0  0  0  0  0  0  0  0  0  0
   14.6613    1.2170    0.0000 H   0  0  0  0  0  0  0  0  0  0  0  0
   13.7953   -0.5230    0.0000 H   0  0  0  0  0  0  0  0  0  0  0  0
 11  1  1  1  0  0  0
  1 14  1  0  0  0  0
  2 11  1  0  0  0  0
  2 16  1  0  0  0  0
 12  3  1  6  0  0  0
  3 65  1  0  0  0  0
 15  4  1  6  0  0  0
  4 66  1  0  0  0  0
  5 29  2  0  0  0  0
  6 31  2  0  0  0  0
  7 35  1  0  0  0  0
  7 82  1  0  0  0  0
  8 36  1  0  0  0  0
  8 85  1  0  0  0  0
  9 36  2  0  0  0  0
 10 25  1  0  0  0  0
 10 31  1  0  0  0  0
 10 33  1  0  0  0  0
 11 13  1  0  0  0  0
 11 43  1  0  0  0  0
 12 13  1  0  0  0  0
 12 15  1  0  0  0  0
 12 44  1  0  0  0  0
 13 45  1  0  0  0  0
 13 46  1  0  0  0  0
 14 17  1  0  0  0  0
 14 18  1  0  0  0  0
 14 47  1  0  0  0  0
 15 16  1  0  0  0  0
 15 48  1  0  0  0  0
 16 19  1  1  0  0  0
 16 49  1  0  0  0  0
 17 20  1  0  0  0  0
 17 21  1  0  0  0  0
 17 50  1  0  0  0  0
 18 22  1  0  0  0  0
 18 23  1  0  0  0  0
 18 51  1  0  0  0  0
 19 52  1  0  0  0  0
 19 53  1  0  0  0  0
 19 54  1  0  0  0  0
 20 55  1  0  0  0  0
 20 59  1  0  0  0  0
 20 60  1  0  0  0  0
 21 56  1  0  0  0  0
 21 57  1  0  0  0  0
 21 58  1  0  0  0  0
 22 61  1  0  0  0  0
 22 62  1  0  0  0  0
 22 63  1  0  0  0  0
 23 24  2  0  0  0  0
 23 64  1  0  0  0  0
 24 27  1  0  0  0  0
 24 28  1  0  0  0  0
 25 26  1  0  0  0  0
 25 29  1  0  0  0  0
 25 67  1  0  0  0  0
 26 32  1  0  0  0  0
 26 68  1  0  0  0  0
 26 69  1  0  0  0  0
 27 70  1  0  0  0  0
 27 71  1  0  0  0  0
 27 72  1  0  0  0  0
 28 34  2  0  0  0  0
 28 73  1  0  0  0  0
 29 30  1  0  0  0  0
 30 31  1  0  0  0  0
 30 35  2  0  0  0  0
 32 36  1  0  0  0  0
 32 74  1  0  0  0  0
 32 75  1  0  0  0  0
 33 76  1  0  0  0  0
 33 77  1  0  0  0  0
 33 78  1  0  0  0  0
 34 38  1  0  0  0  0
 34 79  1  0  0  0  0
 35 37  1  0  0  0  0
 37 39  2  0  0  0  0
 37 80  1  0  0  0  0
 38 40  2  0  0  0  0
 38 81  1  0  0  0  0
 39 41  1  0  0  0  0
 39 83  1  0  0  0  0
 40 42  1  0  0  0  0
 40 84  1  0  0  0  0
 41 42  2  0  0  0  0
 41 86  1  0  0  0  0
 42 87  1  0  0  0  0
M  END
> <PUBCHEM_COMPOUND_CID>
54723870

> <PUBCHEM_COMPOUND_CANONICALIZED>
1

> <PUBCHEM_CACTVS_COMPLEXITY>
1150

> <PUBCHEM_CACTVS_HBOND_ACCEPTOR>
9

> <PUBCHEM_CACTVS_HBOND_DONOR>
4

> <PUBCHEM_CACTVS_ROTATABLE_BOND>
13

> <PUBCHEM_CACTVS_SUBSKEYS>
AAADcfB+PAAAAAAAAAAAAAAAAAAAAWAAAAAkAAAAAAAAAAAAAAAAHgAACAAADTzxgAcCCAMABgCIAqHSGACAAAAgIAAICAGIAEgZFBoIgSAmUAAFxgCPkQP87iysAAAAAAAAAAAAAAAAAAAAAAAAAAAAAA==

> <PUBCHEM_IUPAC_OPENEYE_NAME>
3-[(4E)-4-[(2E,4E,6E,8E,10E)-13-[(2R,4S,5S,6R)-4,5-dihydroxy-6-methyl-tetrahydropyran-2-yl]oxy-1-hydroxy-10,12,14-trimethyl-pentadeca-2,4,6,8,10-pentaenylidene]-1-methyl-3,5-dioxo-pyrrolidin-2-yl]propanoic acid

> <PUBCHEM_IUPAC_CAS_NAME>
3-[(4E)-4-[(2E,4E,6E,8E,10E)-13-[[(2R,4S,5S,6R)-4,5-dihydroxy-6-methyl-2-oxanyl]oxy]-1-hydroxy-10,12,14-trimethylpentadeca-2,4,6,8,10-pentaenylidene]-1-methyl-3,5-dioxo-2-pyrrolidinyl]propanoic acid

> <PUBCHEM_IUPAC_NAME>
3-[(4E)-4-[(2E,4E,6E,8E,10E)-13-[(2R,4S,5S,6R)-4,5-dihydroxy-6-methyloxan-2-yl]oxy-1-hydroxy-10,12,14-trimethylpentadeca-2,4,6,8,10-pentaenylidene]-1-methyl-3,5-dioxopyrrolidin-2-yl]propanoic acid

> <PUBCHEM_IUPAC_SYSTEMATIC_NAME>
3-[(4E)-1-methyl-3,5-bis(oxidanylidene)-4-[(2E,4E,6E,8E,10E)-10,12,14-trimethyl-13-[(2R,4S,5S,6R)-6-methyl-4,5-bis(oxidanyl)oxan-2-yl]oxy-1-oxidanyl-pentadeca-2,4,6,8,10-pentaenylidene]pyrrolidin-2-yl]propanoic acid

> <PUBCHEM_IUPAC_TRADITIONAL_NAME>
3-[(4E)-4-[(2E,4E,6E,8E,10E)-13-[(2R,4S,5S,6R)-4,5-dihydroxy-6-methyl-tetrahydropyran-2-yl]oxy-1-hydroxy-10,12,14-trimethyl-pentadeca-2,4,6,8,10-pentaenylidene]-3,5-diketo-1-methyl-pyrrolidin-2-yl]propionic acid

> <PUBCHEM_IUPAC_INCHI>
InChI=1S/C32H45NO9/c1-19(2)31(42-27-18-25(35)29(38)22(5)41-27)21(4)17-20(3)13-11-9-7-8-10-12-14-24(34)28-30(39)23(15-16-26(36)37)33(6)32(28)40/h7-14,17,19,21-23,25,27,29,31,34-35,38H,15-16,18H2,1-6H3,(H,36,37)/b9-7+,10-8+,13-11+,14-12+,20-17+,28-24+/t21?,22-,23?,25+,27+,29-,31?/m1/s1

> <PUBCHEM_IUPAC_INCHIKEY>
BRPRNHPFSOESDI-WTYFYQQMSA-N

> <PUBCHEM_XLOGP3_AA>
4.9

> <PUBCHEM_EXACT_MASS>
587.309432

> <PUBCHEM_MOLECULAR_FORMULA>
C32H45NO9

> <PUBCHEM_MOLECULAR_WEIGHT>
587.701

> <PUBCHEM_OPENEYE_CAN_SMILES>
CC1C(C(CC(O1)OC(C(C)C)C(C)C=C(C)C=CC=CC=CC=CC(=C2C(=O)C(N(C2=O)C)CCC(=O)O)O)O)O

> <PUBCHEM_OPENEYE_ISO_SMILES>
C[C@@H]1[C@H]([C@H](C[C@@H](O1)OC(C(C)C)C(C)/C=C(\C)/C=C/C=C/C=C/C=C/C(=C\2/C(=O)C(N(C2=O)C)CCC(=O)O)/O)O)O

> <PUBCHEM_CACTVS_TPSA>
154

> <PUBCHEM_MONOISOTOPIC_WEIGHT>
587.309432

> <PUBCHEM_TOTAL_CHARGE>
0

> <PUBCHEM_HEAVY_ATOM_COUNT>
42

> <PUBCHEM_ATOM_DEF_STEREO_COUNT>
4

> <PUBCHEM_ATOM_UDEF_STEREO_COUNT>
3

> <PUBCHEM_BOND_DEF_STEREO_COUNT>
6

> <PUBCHEM_BOND_UDEF_STEREO_COUNT>
0

> <PUBCHEM_ISOTOPIC_ATOM_COUNT>
0

> <PUBCHEM_COMPONENT_COUNT>
1

> <PUBCHEM_CACTVS_TAUTO_COUNT>
7

> <PUBCHEM_COORDINATE_TYPE>
1
5
255

> <PUBCHEM_BONDANNOTATIONS>
11  1  5
14  17  3
16  19  5
18  22  3
25  26  3
12  3  6
15  4  6

$$$$

