   Color/Form

     * Golden yellow needles
     * Red needles from ether

   from [1]HSDB

   Odor
        Odorless
   from [2]HSDB

   Melting Point
        145-7 deg C (decomp)
   from [3]HSDB

   Density/Specific Gravity
        1.450 at 25 deg C
   from [4]HSDB

   Octanol/Water Partition Coefficient
        log Kow = 2.11 (est)
   from [5]HSDB

   Solubilities

     * Sol in alcohol, benzene, ether, 5% sodium hydroxide, 5% sodium
       bicarbonate; sol in concn sulfuric acid with green color;
       practically insol in water
     * SLIGHTLY SOL IN PETROLEUM ETHER
     * In water, 181 mg/L at 25 deg C (est)

   from [6]HSDB

   Spectral Properties

     * Max absorption (alcohol): 250 nm (log epsilon= 4.35); 340 nm (log
       epsilon= 3.40); 405 nm (log epsilon= 3.40)
     * IR: 8458 (Sadtler Research Laboratories Prism Collection)
     * UV: 1838 (Sadtler Research Laboratories Spectral Collection)
     * MASS: 5500 (NIST/EPA/MSDC Mass Spectral Database, 1990 version)

   from [7]HSDB

   Vapor Pressure
        9.9X10-5 mm Hg at 25 deg C (est)
   from [8]HSDB

   Other Chemical/Physical Properties

     * 1,2-Naphthoquinone is involatile /(non-volatile)/ in steam, and is
       a relatively weak oxidizing agent.
     * Henry's Law constant = 4.2X10-9 atm-cu m/mole at 25 deg C (est)
     * Hydroxyl radical reaction rate constant = 1.30X10-11 cu
       cm/molecule-sec at 25 deg C (est)

   from [9]HSDB

   Computed Properties
   Molecular Weight                  158.15344 [g/mol]
   Molecular Formula                 C[10]H[6]O[2]
   XLogP3-AA                         1.5
   H-Bond Donor                      0
   H-Bond Acceptor                   2
   Rotatable Bond Count              0
   Exact Mass                        158.036779
   MonoIsotopic Mass                 158.036779
   Topological Polar Surface Area    34.1
   Heavy Atom Count                  12
   Formal Charge                     0
   Complexity                        253
   Isotope Atom Count                0
   Defined Atom Stereocenter Count   0
   Undefined Atom Stereocenter Count 0
   Defined Bond Stereocenter Count   0
   Undefined Bond Stereocenter Count 0
   Covalently-Bonded Unit Count      1
   Feature 3D Acceptor Count         2
   Feature 3D Ring Count             2
   Effective Rotor Count             0
   Conformer Sampling RMSD           0.4
   CID Conformer Count               [10]1

References

   1. http://toxnet.nlm.nih.gov/cgi-bin/sis/search/r?dbs+hsdb:@term+@rn+@rel+524-42-5
   2. http://toxnet.nlm.nih.gov/cgi-bin/sis/search/r?dbs+hsdb:@term+@rn+@rel+524-42-5
   3. http://toxnet.nlm.nih.gov/cgi-bin/sis/search/r?dbs+hsdb:@term+@rn+@rel+524-42-5
   4. http://toxnet.nlm.nih.gov/cgi-bin/sis/search/r?dbs+hsdb:@term+@rn+@rel+524-42-5
   5. http://toxnet.nlm.nih.gov/cgi-bin/sis/search/r?dbs+hsdb:@term+@rn+@rel+524-42-5
   6. http://toxnet.nlm.nih.gov/cgi-bin/sis/search/r?dbs+hsdb:@term+@rn+@rel+524-42-5
   7. http://toxnet.nlm.nih.gov/cgi-bin/sis/search/r?dbs+hsdb:@term+@rn+@rel+524-42-5
   8. http://toxnet.nlm.nih.gov/cgi-bin/sis/search/r?dbs+hsdb:@term+@rn+@rel+524-42-5
   9. http://toxnet.nlm.nih.gov/cgi-bin/sis/search/r?dbs+hsdb:@term+@rn+@rel+524-42-5
  10. http://pubchem.ncbi.nlm.nih.gov/vw3d/vw3d.cgi?cid=10667
