15251159
  -OEChem-07051213082D

 74 77  0     1  0  0  0  0  0999 V2000
    7.3931   -2.2889    0.0000 O   0  0  0  0  0  0  0  0  0  0  0  0
   10.2963    0.4282    0.0000 O   0  0  0  0  0  0  0  0  0  0  0  0
    5.6489   -4.3582    0.0000 O   0  0  0  0  0  0  0  0  0  0  0  0
    2.0000   -3.3413    0.0000 O   0  0  0  0  0  0  0  0  0  0  0  0
   11.5390    4.2303    0.0000 O   0  0  0  0  0  0  0  0  0  0  0  0
    7.3931   -0.2889    0.0000 C   0  0  1  0  0  0  0  0  0  0  0  0
    7.3931   -1.2889    0.0000 C   0  0  1  0  0  0  0  0  0  0  0  0
    8.3393    0.0158    0.0000 C   0  0  2  0  0  0  0  0  0  0  0  0
    5.6610   -1.2889    0.0000 C   0  0  1  0  0  0  0  0  0  0  0  0
    6.5271    0.2111    0.0000 C   0  0  0  0  0  0  0  0  0  0  0  0
    6.5271   -1.7889    0.0000 C   0  0  0  0  0  0  0  0  0  0  0  0
    4.7510   -1.7958    0.0000 C   0  0  2  0  0  0  0  0  0  0  0  0
    8.3393   -1.5937    0.0000 C   0  0  0  0  0  0  0  0  0  0  0  0
    8.9229   -0.7889    0.0000 C   0  0  0  0  0  0  0  0  0  0  0  0
    5.6610   -0.2889    0.0000 C   0  0  0  0  0  0  0  0  0  0  0  0
    8.6500    0.9663    0.0000 C   0  0  1  0  0  0  0  0  0  0  0  0
    4.7430   -2.8374    0.0000 C   0  0  2  0  0  0  0  0  0  0  0  0
    7.3931    0.7111    0.0000 C   0  0  0  0  0  0  0  0  0  0  0  0
    3.8242   -1.2317    0.0000 C   0  0  0  0  0  0  0  0  0  0  0  0
    6.5431   -2.8304    0.0000 C   0  0  0  0  0  0  0  0  0  0  0  0
    4.7587   -0.7958    0.0000 C   0  0  0  0  0  0  0  0  0  0  0  0
    5.6451   -3.3582    0.0000 C   0  0  0  0  0  0  0  0  0  0  0  0
    3.8076   -3.3871    0.0000 C   0  0  0  0  0  0  0  0  0  0  0  0
    9.6285    1.1725    0.0000 C   0  0  1  0  0  0  0  0  0  0  0  0
    2.8763   -1.7596    0.0000 C   0  0  0  0  0  0  0  0  0  0  0  0
    7.9821    1.7106    0.0000 C   0  0  0  0  0  0  0  0  0  0  0  0
    2.8680   -2.8446    0.0000 C   0  0  0  0  0  0  0  0  0  0  0  0
    9.9391    2.1231    0.0000 C   0  0  0  0  0  0  0  0  0  0  0  0
   10.9176    2.3293    0.0000 C   0  0  0  0  0  0  0  0  0  0  0  0
   11.2283    3.2798    0.0000 C   0  0  0  0  0  0  0  0  0  0  0  0
   12.1788    2.9691    0.0000 C   0  0  0  0  0  0  0  0  0  0  0  0
   10.2778    3.5905    0.0000 C   0  0  0  0  0  0  0  0  0  0  0  0
    9.1790    0.1477    0.0000 H   0  0  0  0  0  0  0  0  0  0  0  0
    6.3972   -0.8639    0.0000 H   0  0  0  0  0  0  0  0  0  0  0  0
    6.9256    0.6860    0.0000 H   0  0  0  0  0  0  0  0  0  0  0  0
    6.1285    0.6860    0.0000 H   0  0  0  0  0  0  0  0  0  0  0  0
    8.0883   -2.1606    0.0000 H   0  0  0  0  0  0  0  0  0  0  0  0
    8.8767   -1.9029    0.0000 H   0  0  0  0  0  0  0  0  0  0  0  0
    9.3838   -1.2037    0.0000 H   0  0  0  0  0  0  0  0  0  0  0  0
    9.3838   -0.3742    0.0000 H   0  0  0  0  0  0  0  0  0  0  0  0
    5.4490    0.2937    0.0000 H   0  0  0  0  0  0  0  0  0  0  0  0
    5.0504   -0.3966    0.0000 H   0  0  0  0  0  0  0  0  0  0  0  0
    8.0433    0.8385    0.0000 H   0  0  0  0  0  0  0  0  0  0  0  0
    4.7463   -3.6874    0.0000 H   0  0  0  0  0  0  0  0  0  0  0  0
    8.0131    0.7111    0.0000 H   0  0  0  0  0  0  0  0  0  0  0  0
    7.3931    1.3311    0.0000 H   0  0  0  0  0  0  0  0  0  0  0  0
    6.7731    0.7111    0.0000 H   0  0  0  0  0  0  0  0  0  0  0  0
    4.2324   -0.7650    0.0000 H   0  0  0  0  0  0  0  0  0  0  0  0
    3.4343   -0.7497    0.0000 H   0  0  0  0  0  0  0  0  0  0  0  0
    7.0836   -3.1342    0.0000 H   0  0  0  0  0  0  0  0  0  0  0  0
    5.3787   -0.8006    0.0000 H   0  0  0  0  0  0  0  0  0  0  0  0
    4.7635   -0.1758    0.0000 H   0  0  0  0  0  0  0  0  0  0  0  0
    4.1388   -0.7910    0.0000 H   0  0  0  0  0  0  0  0  0  0  0  0
    7.9300   -2.5989    0.0000 H   0  0  0  0  0  0  0  0  0  0  0  0
    3.4103   -3.8631    0.0000 H   0  0  0  0  0  0  0  0  0  0  0  0
    4.2085   -3.8600    0.0000 H   0  0  0  0  0  0  0  0  0  0  0  0
    9.4359    0.5832    0.0000 H   0  0  0  0  0  0  0  0  0  0  0  0
    2.6718   -1.1744    0.0000 H   0  0  0  0  0  0  0  0  0  0  0  0
    2.2647   -1.8610    0.0000 H   0  0  0  0  0  0  0  0  0  0  0  0
    8.4436    2.1247    0.0000 H   0  0  0  0  0  0  0  0  0  0  0  0
    7.5681    2.1721    0.0000 H   0  0  0  0  0  0  0  0  0  0  0  0
    7.5207    1.2966    0.0000 H   0  0  0  0  0  0  0  0  0  0  0  0
    9.9186    2.7427    0.0000 H   0  0  0  0  0  0  0  0  0  0  0  0
    9.3253    2.2104    0.0000 H   0  0  0  0  0  0  0  0  0  0  0  0
   10.9030    0.5561    0.0000 H   0  0  0  0  0  0  0  0  0  0  0  0
   10.9382    1.7096    0.0000 H   0  0  0  0  0  0  0  0  0  0  0  0
   11.5315    2.2419    0.0000 H   0  0  0  0  0  0  0  0  0  0  0  0
   11.9862    2.3798    0.0000 H   0  0  0  0  0  0  0  0  0  0  0  0
   10.4704    4.1798    0.0000 H   0  0  0  0  0  0  0  0  0  0  0  0
    9.6885    3.7831    0.0000 H   0  0  0  0  0  0  0  0  0  0  0  0
   10.0852    3.0011    0.0000 H   0  0  0  0  0  0  0  0  0  0  0  0
   12.7681    2.7765    0.0000 H   0  0  0  0  0  0  0  0  0  0  0  0
   12.3714    3.5585    0.0000 H   0  0  0  0  0  0  0  0  0  0  0  0
   12.1456    4.3582    0.0000 H   0  0  0  0  0  0  0  0  0  0  0  0
  7  1  1  6  0  0  0
  1 54  1  0  0  0  0
 24  2  1  1  0  0  0
  2 65  1  0  0  0  0
  3 22  2  0  0  0  0
  4 27  2  0  0  0  0
  5 30  1  0  0  0  0
  5 74  1  0  0  0  0
  6  7  1  0  0  0  0
  6  8  1  0  0  0  0
  6 10  1  0  0  0  0
  6 18  1  1  0  0  0
  7 11  1  0  0  0  0
  7 13  1  0  0  0  0
  8 14  1  0  0  0  0
  8 16  1  0  0  0  0
  8 33  1  6  0  0  0
  9 11  1  0  0  0  0
  9 12  1  0  0  0  0
  9 15  1  0  0  0  0
  9 34  1  6  0  0  0
 10 15  1  0  0  0  0
 10 35  1  0  0  0  0
 10 36  1  0  0  0  0
 11 20  2  0  0  0  0
 12 17  1  0  0  0  0
 12 19  1  0  0  0  0
 12 21  1  1  0  0  0
 13 14  1  0  0  0  0
 13 37  1  0  0  0  0
 13 38  1  0  0  0  0
 14 39  1  0  0  0  0
 14 40  1  0  0  0  0
 15 41  1  0  0  0  0
 15 42  1  0  0  0  0
 16 24  1  0  0  0  0
 16 26  1  6  0  0  0
 16 43  1  0  0  0  0
 17 22  1  0  0  0  0
 17 23  1  0  0  0  0
 17 44  1  1  0  0  0
 18 45  1  0  0  0  0
 18 46  1  0  0  0  0
 18 47  1  0  0  0  0
 19 25  1  0  0  0  0
 19 48  1  0  0  0  0
 19 49  1  0  0  0  0
 20 22  1  0  0  0  0
 20 50  1  0  0  0  0
 21 51  1  0  0  0  0
 21 52  1  0  0  0  0
 21 53  1  0  0  0  0
 23 27  1  0  0  0  0
 23 55  1  0  0  0  0
 23 56  1  0  0  0  0
 24 28  1  0  0  0  0
 24 57  1  0  0  0  0
 25 27  1  0  0  0  0
 25 58  1  0  0  0  0
 25 59  1  0  0  0  0
 26 60  1  0  0  0  0
 26 61  1  0  0  0  0
 26 62  1  0  0  0  0
 28 29  1  0  0  0  0
 28 63  1  0  0  0  0
 28 64  1  0  0  0  0
 29 30  1  0  0  0  0
 29 66  1  0  0  0  0
 29 67  1  0  0  0  0
 30 31  1  0  0  0  0
 30 32  1  0  0  0  0
 31 68  1  0  0  0  0
 31 72  1  0  0  0  0
 31 73  1  0  0  0  0
 32 69  1  0  0  0  0
 32 70  1  0  0  0  0
 32 71  1  0  0  0  0
M  END
> <PUBCHEM_COMPOUND_CID>
15251159

> <PUBCHEM_COMPOUND_CANONICALIZED>
1

> <PUBCHEM_CACTVS_COMPLEXITY>
830

> <PUBCHEM_CACTVS_HBOND_ACCEPTOR>
5

> <PUBCHEM_CACTVS_HBOND_DONOR>
3

> <PUBCHEM_CACTVS_ROTATABLE_BOND>
5

> <PUBCHEM_CACTVS_SUBSKEYS>
AAADcfB4OAAAAAAAAAAAAAAAAAAAAYAAAAAwYIAAAAAAAGCAAAAAGgAACAAAD1SggAICAAAAAgCIAqBSAAAAAAAgAAAACAEAAEgAFBIAAQAAUAAEgAAIEQPJ6PSPgAAAAAAAAACAAAYAADAAAYAADAAAAA==

> <PUBCHEM_IUPAC_OPENEYE_NAME>
(5R,9R,10R,13R,14S,17R)-17-[(1S,2R)-2,5-dihydroxy-1,5-dimethyl-hexyl]-14-hydroxy-10,13-dimethyl-1,2,4,5,9,11,12,15,16,17-decahydrocyclopenta[a]phenanthrene-3,6-dione

> <PUBCHEM_IUPAC_CAS_NAME>
(5R,9R,10R,13R,14S,17R)-17-[(2S,3R)-3,6-dihydroxy-6-methylheptan-2-yl]-14-hydroxy-10,13-dimethyl-1,2,4,5,9,11,12,15,16,17-decahydrocyclopenta[a]phenanthrene-3,6-dione

> <PUBCHEM_IUPAC_NAME>
(5R,9R,10R,13R,14S,17R)-17-[(2S,3R)-3,6-dihydroxy-6-methylheptan-2-yl]-14-hydroxy-10,13-dimethyl-1,2,4,5,9,11,12,15,16,17-decahydrocyclopenta[a]phenanthrene-3,6-dione

> <PUBCHEM_IUPAC_SYSTEMATIC_NAME>
(5R,9R,10R,13R,14S,17R)-10,13-dimethyl-17-[(2S,3R)-6-methyl-3,6-bis(oxidanyl)heptan-2-yl]-14-oxidanyl-1,2,4,5,9,11,12,15,16,17-decahydrocyclopenta[a]phenanthrene-3,6-dione

> <PUBCHEM_IUPAC_TRADITIONAL_NAME>
(5R,9R,10R,13R,14S,17R)-17-[(1S,2R)-2,5-dihydroxy-1,5-dimethyl-hexyl]-14-hydroxy-10,13-dimethyl-1,2,4,5,9,11,12,15,16,17-decahydrocyclopenta[a]phenanthrene-3,6-quinone

> <PUBCHEM_IUPAC_INCHI>
InChI=1S/C27H42O5/c1-16(22(29)9-10-24(2,3)31)18-8-13-27(32)20-15-23(30)21-14-17(28)6-11-25(21,4)19(20)7-12-26(18,27)5/h15-16,18-19,21-22,29,31-32H,6-14H2,1-5H3/t16-,18+,19-,21-,22+,25+,26+,27+/m0/s1

> <PUBCHEM_IUPAC_INCHIKEY>
PDQPHVPWJVSDEA-IHTFJKPZSA-N

> <PUBCHEM_XLOGP3_AA>
2.2

> <PUBCHEM_EXACT_MASS>
446.303224

> <PUBCHEM_MOLECULAR_FORMULA>
C27H42O5

> <PUBCHEM_MOLECULAR_WEIGHT>
446.61938

> <PUBCHEM_OPENEYE_CAN_SMILES>
CC(C1CCC2(C1(CCC3C2=CC(=O)C4C3(CCC(=O)C4)C)C)O)C(CCC(C)(C)O)O

> <PUBCHEM_OPENEYE_ISO_SMILES>
C[C@@H]([C@H]1CC[C@@]2([C@@]1(CC[C@H]3C2=CC(=O)[C@H]4[C@@]3(CCC(=O)C4)C)C)O)[C@@H](CCC(C)(C)O)O

> <PUBCHEM_CACTVS_TPSA>
94.8

> <PUBCHEM_MONOISOTOPIC_WEIGHT>
446.303224

> <PUBCHEM_TOTAL_CHARGE>
0

> <PUBCHEM_HEAVY_ATOM_COUNT>
32

> <PUBCHEM_ATOM_DEF_STEREO_COUNT>
8

> <PUBCHEM_ATOM_UDEF_STEREO_COUNT>
0

> <PUBCHEM_BOND_DEF_STEREO_COUNT>
0

> <PUBCHEM_BOND_UDEF_STEREO_COUNT>
0

> <PUBCHEM_ISOTOPIC_ATOM_COUNT>
0

> <PUBCHEM_COMPONENT_COUNT>
1

> <PUBCHEM_CACTVS_TAUTO_COUNT>
25

> <PUBCHEM_COORDINATE_TYPE>
1
5
255

> <PUBCHEM_BONDANNOTATIONS>
7  1  6
12  21  5
16  26  6
17  44  5
24  2  5
6  18  5
8  33  6
9  34  6

$$$$

