17395598
  -OEChem-06241222512D

 56 59  0     0  0  0  0  0  0999 V2000
    5.4921   -1.0431    0.0000 S   0  0  0  0  0  0  0  0  0  0  0  0
    2.0000   -4.3219    0.0000 F   0  0  0  0  0  0  0  0  0  0  0  0
    7.3942   -1.6611    0.0000 O   0  0  0  0  0  0  0  0  0  0  0  0
   10.4327    1.7475    0.0000 N   0  0  0  0  0  0  0  0  0  0  0  0
   11.1018    1.0044    0.0000 N   0  0  0  0  0  0  0  0  0  0  0  0
    7.9295   -0.0138    0.0000 N   0  0  0  0  0  0  0  0  0  0  0  0
    3.7320   -1.3219    0.0000 N   0  0  0  0  0  0  0  0  0  0  0  0
    4.2320    0.2170    0.0000 N   0  0  0  0  0  0  0  0  0  0  0  0
    9.6237    0.3463    0.0000 C   0  0  0  0  0  0  0  0  0  0  0  0
    9.5191    1.3408    0.0000 C   0  0  0  0  0  0  0  0  0  0  0  0
   10.6018    0.1384    0.0000 C   0  0  0  0  0  0  0  0  0  0  0  0
   10.6406    2.7257    0.0000 C   0  0  0  0  0  0  0  0  0  0  0  0
    8.8805   -0.3229    0.0000 C   0  0  0  0  0  0  0  0  0  0  0  0
    8.6531    1.8408    0.0000 C   0  0  0  0  0  0  0  0  0  0  0  0
   11.5917    3.0347    0.0000 C   0  0  0  0  0  0  0  0  0  0  0  0
   11.0086   -0.7752    0.0000 C   0  0  0  0  0  0  0  0  0  0  0  0
   12.3348    2.3656    0.0000 C   0  0  0  0  0  0  0  0  0  0  0  0
   11.7996    4.0128    0.0000 C   0  0  0  0  0  0  0  0  0  0  0  0
    7.1863   -0.6830    0.0000 C   0  0  0  0  0  0  0  0  0  0  0  0
    6.2353   -0.3740    0.0000 C   0  0  0  0  0  0  0  0  0  0  0  0
   13.2859    2.6746    0.0000 C   0  0  0  0  0  0  0  0  0  0  0  0
   12.7506    4.3219    0.0000 C   0  0  0  0  0  0  0  0  0  0  0  0
   13.4938    3.6527    0.0000 C   0  0  0  0  0  0  0  0  0  0  0  0
    4.5411   -0.7341    0.0000 C   0  0  0  0  0  0  0  0  0  0  0  0
    3.7320   -2.3219    0.0000 C   0  0  0  0  0  0  0  0  0  0  0  0
    2.9230   -0.7341    0.0000 C   0  0  0  0  0  0  0  0  0  0  0  0
    2.8660   -2.8219    0.0000 C   0  0  0  0  0  0  0  0  0  0  0  0
    4.5981   -2.8219    0.0000 C   0  0  0  0  0  0  0  0  0  0  0  0
    3.2320    0.2170    0.0000 C   0  0  0  0  0  0  0  0  0  0  0  0
    2.8660   -3.8219    0.0000 C   0  0  0  0  0  0  0  0  0  0  0  0
    4.5981   -3.8219    0.0000 C   0  0  0  0  0  0  0  0  0  0  0  0
    3.7320   -4.3219    0.0000 C   0  0  0  0  0  0  0  0  0  0  0  0
   10.5543    3.3396    0.0000 H   0  0  0  0  0  0  0  0  0  0  0  0
   10.0210    2.7473    0.0000 H   0  0  0  0  0  0  0  0  0  0  0  0
    8.5894   -0.8703    0.0000 H   0  0  0  0  0  0  0  0  0  0  0  0
    9.3691   -0.7046    0.0000 H   0  0  0  0  0  0  0  0  0  0  0  0
    8.9631    2.3777    0.0000 H   0  0  0  0  0  0  0  0  0  0  0  0
    8.1162    2.1508    0.0000 H   0  0  0  0  0  0  0  0  0  0  0  0
    8.3431    1.3039    0.0000 H   0  0  0  0  0  0  0  0  0  0  0  0
   10.4422   -1.0274    0.0000 H   0  0  0  0  0  0  0  0  0  0  0  0
   11.2607   -1.3416    0.0000 H   0  0  0  0  0  0  0  0  0  0  0  0
   11.5750   -0.5230    0.0000 H   0  0  0  0  0  0  0  0  0  0  0  0
    7.8006    0.5926    0.0000 H   0  0  0  0  0  0  0  0  0  0  0  0
   12.2059    1.7591    0.0000 H   0  0  0  0  0  0  0  0  0  0  0  0
   11.3388    4.4277    0.0000 H   0  0  0  0  0  0  0  0  0  0  0  0
    6.5263    0.1735    0.0000 H   0  0  0  0  0  0  0  0  0  0  0  0
    5.7467    0.0078    0.0000 H   0  0  0  0  0  0  0  0  0  0  0  0
   13.7466    2.2597    0.0000 H   0  0  0  0  0  0  0  0  0  0  0  0
   12.8795    4.9283    0.0000 H   0  0  0  0  0  0  0  0  0  0  0  0
   14.0834    3.8443    0.0000 H   0  0  0  0  0  0  0  0  0  0  0  0
    2.3334   -0.9257    0.0000 H   0  0  0  0  0  0  0  0  0  0  0  0
    2.3291   -2.5119    0.0000 H   0  0  0  0  0  0  0  0  0  0  0  0
    5.1350   -2.5119    0.0000 H   0  0  0  0  0  0  0  0  0  0  0  0
    2.8676    0.7186    0.0000 H   0  0  0  0  0  0  0  0  0  0  0  0
    5.1350   -4.1319    0.0000 H   0  0  0  0  0  0  0  0  0  0  0  0
    3.7320   -4.9419    0.0000 H   0  0  0  0  0  0  0  0  0  0  0  0
  1 20  1  0  0  0  0
  1 24  1  0  0  0  0
  2 30  1  0  0  0  0
  3 19  2  0  0  0  0
  4  5  1  0  0  0  0
  4 10  1  0  0  0  0
  4 12  1  0  0  0  0
  5 11  2  0  0  0  0
  6 13  1  0  0  0  0
  6 19  1  0  0  0  0
  6 43  1  0  0  0  0
  7 24  1  0  0  0  0
  7 25  1  0  0  0  0
  7 26  1  0  0  0  0
  8 24  2  0  0  0  0
  8 29  1  0  0  0  0
  9 10  2  0  0  0  0
  9 11  1  0  0  0  0
  9 13  1  0  0  0  0
 10 14  1  0  0  0  0
 11 16  1  0  0  0  0
 12 15  1  0  0  0  0
 12 33  1  0  0  0  0
 12 34  1  0  0  0  0
 13 35  1  0  0  0  0
 13 36  1  0  0  0  0
 14 37  1  0  0  0  0
 14 38  1  0  0  0  0
 14 39  1  0  0  0  0
 15 17  2  0  0  0  0
 15 18  1  0  0  0  0
 16 40  1  0  0  0  0
 16 41  1  0  0  0  0
 16 42  1  0  0  0  0
 17 21  1  0  0  0  0
 17 44  1  0  0  0  0
 18 22  2  0  0  0  0
 18 45  1  0  0  0  0
 19 20  1  0  0  0  0
 20 46  1  0  0  0  0
 20 47  1  0  0  0  0
 21 23  2  0  0  0  0
 21 48  1  0  0  0  0
 22 23  1  0  0  0  0
 22 49  1  0  0  0  0
 23 50  1  0  0  0  0
 25 27  2  0  0  0  0
 25 28  1  0  0  0  0
 26 29  2  0  0  0  0
 26 51  1  0  0  0  0
 27 30  1  0  0  0  0
 27 52  1  0  0  0  0
 28 31  2  0  0  0  0
 28 53  1  0  0  0  0
 29 54  1  0  0  0  0
 30 32  2  0  0  0  0
 31 32  1  0  0  0  0
 31 55  1  0  0  0  0
 32 56  1  0  0  0  0
M  END
> <PUBCHEM_COMPOUND_CID>
17395598

> <PUBCHEM_COMPOUND_CANONICALIZED>
1

> <PUBCHEM_CACTVS_COMPLEXITY>
607

> <PUBCHEM_CACTVS_HBOND_ACCEPTOR>
5

> <PUBCHEM_CACTVS_HBOND_DONOR>
1

> <PUBCHEM_CACTVS_ROTATABLE_BOND>
8

> <PUBCHEM_CACTVS_SUBSKEYS>
AAADceB7oQBAAAAAAAAAAAAAAAAAAWLAAAAwYAAAAAAAAAAB9AAAHwQYAAAADAjF3gy/0JfMEAiqAzV3dACS1C1xkrAZ2KA4dJiIaGLA2dGUpAhongLIyCcQgAAOAAAAAAAAAAAAAAAAAAAAAAAAAAAAAA==

> <PUBCHEM_IUPAC_OPENEYE_NAME>
N-[(1-benzyl-3,5-dimethyl-pyrazol-4-yl)methyl]-2-[1-(3-fluorophenyl)imidazol-2-yl]sulfanyl-acetamide

> <PUBCHEM_IUPAC_CAS_NAME>
N-[[3,5-dimethyl-1-(phenylmethyl)-4-pyrazolyl]methyl]-2-[[1-(3-fluorophenyl)-2-imidazolyl]thio]acetamide

> <PUBCHEM_IUPAC_NAME>
N-[(1-benzyl-3,5-dimethylpyrazol-4-yl)methyl]-2-[1-(3-fluorophenyl)imidazol-2-yl]sulfanylacetamide

> <PUBCHEM_IUPAC_SYSTEMATIC_NAME>
N-[[3,5-dimethyl-1-(phenylmethyl)pyrazol-4-yl]methyl]-2-[1-(3-fluorophenyl)imidazol-2-yl]sulfanyl-ethanamide

> <PUBCHEM_IUPAC_TRADITIONAL_NAME>
N-[(1-benzyl-3,5-dimethyl-pyrazol-4-yl)methyl]-2-[[1-(3-fluorophenyl)imidazol-2-yl]thio]acetamide

> <PUBCHEM_IUPAC_INCHI>
InChI=1S/C24H24FN5OS/c1-17-22(18(2)30(28-17)15-19-7-4-3-5-8-19)14-27-23(31)16-32-24-26-11-12-29(24)21-10-6-9-20(25)13-21/h3-13H,14-16H2,1-2H3,(H,27,31)

> <PUBCHEM_IUPAC_INCHIKEY>
ZBWJQWIEGAEUAX-UHFFFAOYSA-N

> <PUBCHEM_XLOGP3_AA>
4.2

> <PUBCHEM_EXACT_MASS>
449.16856

> <PUBCHEM_MOLECULAR_FORMULA>
C24H24FN5OS

> <PUBCHEM_MOLECULAR_WEIGHT>
449.543663

> <PUBCHEM_OPENEYE_CAN_SMILES>
CC1=C(C(=NN1CC2=CC=CC=C2)C)CNC(=O)CSC3=NC=CN3C4=CC(=CC=C4)F

> <PUBCHEM_OPENEYE_ISO_SMILES>
CC1=C(C(=NN1CC2=CC=CC=C2)C)CNC(=O)CSC3=NC=CN3C4=CC(=CC=C4)F

> <PUBCHEM_CACTVS_TPSA>
90

> <PUBCHEM_MONOISOTOPIC_WEIGHT>
449.16856

> <PUBCHEM_TOTAL_CHARGE>
0

> <PUBCHEM_HEAVY_ATOM_COUNT>
32

> <PUBCHEM_ATOM_DEF_STEREO_COUNT>
0

> <PUBCHEM_ATOM_UDEF_STEREO_COUNT>
0

> <PUBCHEM_BOND_DEF_STEREO_COUNT>
0

> <PUBCHEM_BOND_UDEF_STEREO_COUNT>
0

> <PUBCHEM_ISOTOPIC_ATOM_COUNT>
0

> <PUBCHEM_COMPONENT_COUNT>
1

> <PUBCHEM_CACTVS_TAUTO_COUNT>
2

> <PUBCHEM_COORDINATE_TYPE>
1
5
255

> <PUBCHEM_BONDANNOTATIONS>
15  17  8
15  18  8
17  21  8
18  22  8
21  23  8
22  23  8
25  27  8
25  28  8
26  29  8
27  30  8
28  31  8
30  32  8
31  32  8
4  10  8
4  5  8
5  11  8
7  24  8
7  26  8
8  24  8
8  29  8
9  10  8
9  11  8

$$$$

