4890
  -OEChem-07051212532D

 40 43  0     0  0  0  0  0  0999 V2000
    7.0444    0.8671    0.0000 Cl  0  0  0  0  0  0  0  0  0  0  0  0
    2.0000   -1.8399    0.0000 O   0  0  0  0  0  0  0  0  0  0  0  0
    3.5984   -1.2805    0.0000 N   0  0  0  0  0  0  0  0  0  0  0  0
    2.6235    0.7439    0.0000 N   0  0  0  0  0  0  0  0  0  0  0  0
    3.0879   -2.9356    0.0000 C   0  0  0  0  0  0  0  0  0  0  0  0
    2.1130   -3.1582    0.0000 C   0  0  0  0  0  0  0  0  0  0  0  0
    2.7931   -3.8912    0.0000 C   0  0  0  0  0  0  0  0  0  0  0  0
    3.8209   -2.2555    0.0000 C   0  0  0  0  0  0  0  0  0  0  0  0
    4.3802   -0.6571    0.0000 C   0  0  0  0  0  0  0  0  0  0  0  0
    2.6235   -1.0580    0.0000 C   0  0  0  0  0  0  0  0  0  0  0  0
    4.3802    0.3429    0.0000 C   0  0  0  0  0  0  0  0  0  0  0  0
    2.1896   -0.1571    0.0000 C   0  0  0  0  0  0  0  0  0  0  0  0
    5.2742   -1.1917    0.0000 C   0  0  0  0  0  0  0  0  0  0  0  0
    3.5984    0.9664    0.0000 C   0  0  0  0  0  0  0  0  0  0  0  0
    5.2742    0.8776    0.0000 C   0  0  0  0  0  0  0  0  0  0  0  0
    6.1803   -0.6779    0.0000 C   0  0  0  0  0  0  0  0  0  0  0  0
    3.8209    1.9414    0.0000 C   0  0  0  0  0  0  0  0  0  0  0  0
    6.1803    0.3638    0.0000 C   0  0  0  0  0  0  0  0  0  0  0  0
    4.7765    2.2361    0.0000 C   0  0  0  0  0  0  0  0  0  0  0  0
    3.0879    2.6215    0.0000 C   0  0  0  0  0  0  0  0  0  0  0  0
    4.9990    3.2110    0.0000 C   0  0  0  0  0  0  0  0  0  0  0  0
    3.3104    3.5965    0.0000 C   0  0  0  0  0  0  0  0  0  0  0  0
    4.2660    3.8912    0.0000 C   0  0  0  0  0  0  0  0  0  0  0  0
    3.6129   -3.2655    0.0000 H   0  0  0  0  0  0  0  0  0  0  0  0
    1.8721   -2.5868    0.0000 H   0  0  0  0  0  0  0  0  0  0  0  0
    1.5921   -3.4945    0.0000 H   0  0  0  0  0  0  0  0  0  0  0  0
    2.4188   -4.3854    0.0000 H   0  0  0  0  0  0  0  0  0  0  0  0
    3.3448   -4.1741    0.0000 H   0  0  0  0  0  0  0  0  0  0  0  0
    4.1573   -2.7763    0.0000 H   0  0  0  0  0  0  0  0  0  0  0  0
    4.3922   -2.0146    0.0000 H   0  0  0  0  0  0  0  0  0  0  0  0
    1.7049    0.2295    0.0000 H   0  0  0  0  0  0  0  0  0  0  0  0
    1.7049   -0.5436    0.0000 H   0  0  0  0  0  0  0  0  0  0  0  0
    5.2670   -1.8117    0.0000 H   0  0  0  0  0  0  0  0  0  0  0  0
    5.2670    1.4976    0.0000 H   0  0  0  0  0  0  0  0  0  0  0  0
    6.7160   -0.9899    0.0000 H   0  0  0  0  0  0  0  0  0  0  0  0
    5.2310    1.8144    0.0000 H   0  0  0  0  0  0  0  0  0  0  0  0
    2.4954    2.4388    0.0000 H   0  0  0  0  0  0  0  0  0  0  0  0
    5.5915    3.3938    0.0000 H   0  0  0  0  0  0  0  0  0  0  0  0
    2.8559    4.0182    0.0000 H   0  0  0  0  0  0  0  0  0  0  0  0
    4.4039    4.4957    0.0000 H   0  0  0  0  0  0  0  0  0  0  0  0
  1 18  1  0  0  0  0
  2 10  2  0  0  0  0
  3  8  1  0  0  0  0
  3  9  1  0  0  0  0
  3 10  1  0  0  0  0
  4 12  1  0  0  0  0
  4 14  2  0  0  0  0
  5  6  1  0  0  0  0
  5  7  1  0  0  0  0
  5  8  1  0  0  0  0
  5 24  1  0  0  0  0
  6  7  1  0  0  0  0
  6 25  1  0  0  0  0
  6 26  1  0  0  0  0
  7 27  1  0  0  0  0
  7 28  1  0  0  0  0
  8 29  1  0  0  0  0
  8 30  1  0  0  0  0
  9 11  2  0  0  0  0
  9 13  1  0  0  0  0
 10 12  1  0  0  0  0
 11 14  1  0  0  0  0
 11 15  1  0  0  0  0
 12 31  1  0  0  0  0
 12 32  1  0  0  0  0
 13 16  2  0  0  0  0
 13 33  1  0  0  0  0
 14 17  1  0  0  0  0
 15 18  2  0  0  0  0
 15 34  1  0  0  0  0
 16 18  1  0  0  0  0
 16 35  1  0  0  0  0
 17 19  2  0  0  0  0
 17 20  1  0  0  0  0
 19 21  1  0  0  0  0
 19 36  1  0  0  0  0
 20 22  2  0  0  0  0
 20 37  1  0  0  0  0
 21 23  2  0  0  0  0
 21 38  1  0  0  0  0
 22 23  1  0  0  0  0
 22 39  1  0  0  0  0
 23 40  1  0  0  0  0
M  END
> <PUBCHEM_COMPOUND_CID>
4890

> <PUBCHEM_COMPOUND_CANONICALIZED>
1

> <PUBCHEM_CACTVS_COMPLEXITY>
482

> <PUBCHEM_CACTVS_HBOND_ACCEPTOR>
2

> <PUBCHEM_CACTVS_HBOND_DONOR>
0

> <PUBCHEM_CACTVS_ROTATABLE_BOND>
3

> <PUBCHEM_CACTVS_SUBSKEYS>
AAADceB7IAAEAAAAAAAAAAAAGAAAAAAAAAAwYAAABAAAAAABQAAAHgIAAAAADQrBmCQwwIMAAACoAyVyVACCAAAhBwAIiACoZpgIYKLBk5GUIAhghgDIyAcQgMAOAABAIAACAAAAAIBAAAQAAAAAAAAAAA==

> <PUBCHEM_IUPAC_OPENEYE_NAME>
7-chloro-1-(cyclopropylmethyl)-5-phenyl-3H-1,4-benzodiazepin-2-one

> <PUBCHEM_IUPAC_CAS_NAME>
7-chloro-1-(cyclopropylmethyl)-5-phenyl-3H-1,4-benzodiazepin-2-one

> <PUBCHEM_IUPAC_NAME>
7-chloro-1-(cyclopropylmethyl)-5-phenyl-3H-1,4-benzodiazepin-2-one

> <PUBCHEM_IUPAC_SYSTEMATIC_NAME>
7-chloranyl-1-(cyclopropylmethyl)-5-phenyl-3H-1,4-benzodiazepin-2-one

> <PUBCHEM_IUPAC_TRADITIONAL_NAME>
7-chloro-1-(cyclopropylmethyl)-5-phenyl-3H-1,4-benzodiazepin-2-one

> <PUBCHEM_IUPAC_INCHI>
InChI=1S/C19H17ClN2O/c20-15-8-9-17-16(10-15)19(14-4-2-1-3-5-14)21-11-18(23)22(17)12-13-6-7-13/h1-5,8-10,13H,6-7,11-12H2

> <PUBCHEM_IUPAC_INCHIKEY>
MWQCHHACWWAQLJ-UHFFFAOYSA-N

> <PUBCHEM_XLOGP3>
3.6

> <PUBCHEM_EXACT_MASS>
324.102941

> <PUBCHEM_MOLECULAR_FORMULA>
C19H17ClN2O

> <PUBCHEM_MOLECULAR_WEIGHT>
324.80408

> <PUBCHEM_OPENEYE_CAN_SMILES>
C1CC1CN2C(=O)CN=C(C3=C2C=CC(=C3)Cl)C4=CC=CC=C4

> <PUBCHEM_OPENEYE_ISO_SMILES>
C1CC1CN2C(=O)CN=C(C3=C2C=CC(=C3)Cl)C4=CC=CC=C4

> <PUBCHEM_CACTVS_TPSA>
32.7

> <PUBCHEM_MONOISOTOPIC_WEIGHT>
324.102941

> <PUBCHEM_TOTAL_CHARGE>
0

> <PUBCHEM_HEAVY_ATOM_COUNT>
23

> <PUBCHEM_ATOM_DEF_STEREO_COUNT>
0

> <PUBCHEM_ATOM_UDEF_STEREO_COUNT>
0

> <PUBCHEM_BOND_DEF_STEREO_COUNT>
0

> <PUBCHEM_BOND_UDEF_STEREO_COUNT>
0

> <PUBCHEM_ISOTOPIC_ATOM_COUNT>
0

> <PUBCHEM_COMPONENT_COUNT>
1

> <PUBCHEM_CACTVS_TAUTO_COUNT>
2

> <PUBCHEM_COORDINATE_TYPE>
1
5
255

> <PUBCHEM_BONDANNOTATIONS>
11  15  8
13  16  8
15  18  8
16  18  8
17  19  8
17  20  8
19  21  8
20  22  8
21  23  8
22  23  8
9  11  8
9  13  8

$$$$

