   Color/Form
        Blue-black solid from water ethanol
   from [1]HSDB

   Melting Point
        203-5 deg C
   from [2]HSDB

   Solubilities
        Sparingly soluble in water; slightly sol in methanol; practically
   insoluble in acetonitrile chloroform; acetone
   from [3]HSDB

   Spectral Properties
        Abs max (water): 241, 273, 608, 658 nm (epsilon 41000, 12000,
   19200, 20900)
   from [4]HSDB

   Other Chemical/Physical Properties
        Hydroscopic
   from [5]HSDB

   Computed Properties
   Molecular Weight                  444.48092 [g/mol]
   Molecular Formula                 C[22]H[28]N[4]O[6]
   XLogP3-AA                         1
   H-Bond Donor                      8
   H-Bond Acceptor                   10
   Rotatable Bond Count              12
   Tautomer Count                    95
   Exact Mass                        444.200885
   MonoIsotopic Mass                 444.200885
   Topological Polar Surface Area    163
   Heavy Atom Count                  32
   Formal Charge                     0
   Complexity                        571
   Isotope Atom Count                0
   Defined Atom Stereocenter Count   0
   Undefined Atom Stereocenter Count 0
   Defined Bond Stereocenter Count   0
   Undefined Bond Stereocenter Count 0
   Covalently-Bonded Unit Count      1
   Feature 3D Acceptor Count         4
   Feature 3D Donor Count            8
   Feature 3D Cation Count           4
   Feature 3D Ring Count             3
   Effective Rotor Count             12
   Conformer Sampling RMSD           1.2
   CID Conformer Count               [6]23

References

   1. http://toxnet.nlm.nih.gov/cgi-bin/sis/search/r?dbs+hsdb:@term+@rn+@rel+70476-82-3
   2. http://toxnet.nlm.nih.gov/cgi-bin/sis/search/r?dbs+hsdb:@term+@rn+@rel+70476-82-3
   3. http://toxnet.nlm.nih.gov/cgi-bin/sis/search/r?dbs+hsdb:@term+@rn+@rel+70476-82-3
   4. http://toxnet.nlm.nih.gov/cgi-bin/sis/search/r?dbs+hsdb:@term+@rn+@rel+70476-82-3
   5. http://toxnet.nlm.nih.gov/cgi-bin/sis/search/r?dbs+hsdb:@term+@rn+@rel+70476-82-3
   6. http://pubchem.ncbi.nlm.nih.gov/vw3d/vw3d.cgi?cid=4212
