92759
  -OEChem-07051213102D

 43 46  0     1  0  0  0  0  0999 V2000
    8.7229   -0.1613    0.0000 N   0  0  3  0  0  0  0  0  0  0  0  0
    3.7923   -0.5824    0.0000 N   0  0  3  0  0  0  0  0  0  0  0  0
    6.2410    0.2540    0.0000 C   0  0  1  0  0  0  0  0  0  0  0  0
    6.4998    1.2200    0.0000 C   0  0  1  0  0  0  0  0  0  0  0  0
    7.9457   -0.7906    0.0000 C   0  0  1  0  0  0  0  0  0  0  0  0
    3.8968    0.4121    0.0000 C   0  0  1  0  0  0  0  0  0  0  0  0
    5.7632    2.2026    0.0000 C   0  0  0  0  0  0  0  0  0  0  0  0
    8.3645    0.7723    0.0000 C   0  0  0  0  0  0  0  0  0  0  0  0
    4.7059   -0.9891    0.0000 C   0  0  0  0  0  0  0  0  0  0  0  0
    8.0928   -1.8218    0.0000 C   0  0  0  0  0  0  0  0  0  0  0  0
    3.0637    1.0373    0.0000 C   0  0  0  0  0  0  0  0  0  0  0  0
    9.7010   -0.5195    0.0000 C   0  0  0  0  0  0  0  0  0  0  0  0
    2.8474   -1.0207    0.0000 C   0  0  0  0  0  0  0  0  0  0  0  0
    9.0623   -2.2026    0.0000 C   0  0  0  0  0  0  0  0  0  0  0  0
    2.1089    0.6210    0.0000 C   0  0  0  0  0  0  0  0  0  0  0  0
    9.8718   -1.5470    0.0000 C   0  0  0  0  0  0  0  0  0  0  0  0
    2.0000   -0.4149    0.0000 C   0  0  0  0  0  0  0  0  0  0  0  0
    6.0210   -0.5670    0.0000 H   0  0  0  0  0  0  0  0  0  0  0  0
    6.7198    2.0410    0.0000 H   0  0  0  0  0  0  0  0  0  0  0  0
    7.2852   -1.3255    0.0000 H   0  0  0  0  0  0  0  0  0  0  0  0
    3.9857    1.2575    0.0000 H   0  0  0  0  0  0  0  0  0  0  0  0
    6.0810    2.7349    0.0000 H   0  0  0  0  0  0  0  0  0  0  0  0
    5.1501    2.2945    0.0000 H   0  0  0  0  0  0  0  0  0  0  0  0
    8.9760    0.8746    0.0000 H   0  0  0  0  0  0  0  0  0  0  0  0
    8.3861    1.3919    0.0000 H   0  0  0  0  0  0  0  0  0  0  0  0
    4.3682   -1.5091    0.0000 H   0  0  0  0  0  0  0  0  0  0  0  0
    5.1666   -1.4040    0.0000 H   0  0  0  0  0  0  0  0  0  0  0  0
    7.4731   -1.8030    0.0000 H   0  0  0  0  0  0  0  0  0  0  0  0
    7.9682   -2.4292    0.0000 H   0  0  0  0  0  0  0  0  0  0  0  0
    3.5152    1.4622    0.0000 H   0  0  0  0  0  0  0  0  0  0  0  0
    2.7223    1.5549    0.0000 H   0  0  0  0  0  0  0  0  0  0  0  0
   10.3209   -0.5240    0.0000 H   0  0  0  0  0  0  0  0  0  0  0  0
    9.8114    0.0905    0.0000 H   0  0  0  0  0  0  0  0  0  0  0  0
    2.4058   -1.4559    0.0000 H   0  0  0  0  0  0  0  0  0  0  0  0
    3.2007   -1.5302    0.0000 H   0  0  0  0  0  0  0  0  0  0  0  0
    8.7403   -2.7324    0.0000 H   0  0  0  0  0  0  0  0  0  0  0  0
    9.5292   -2.6105    0.0000 H   0  0  0  0  0  0  0  0  0  0  0  0
    1.9620    1.2234    0.0000 H   0  0  0  0  0  0  0  0  0  0  0  0
    1.4903    0.5793    0.0000 H   0  0  0  0  0  0  0  0  0  0  0  0
   10.1738   -2.0885    0.0000 H   0  0  0  0  0  0  0  0  0  0  0  0
   10.4570   -1.3422    0.0000 H   0  0  0  0  0  0  0  0  0  0  0  0
    1.4036   -0.2456    0.0000 H   0  0  0  0  0  0  0  0  0  0  0  0
    1.7311   -0.9736    0.0000 H   0  0  0  0  0  0  0  0  0  0  0  0
  1  5  1  0  0  0  0
  1  8  1  0  0  0  0
  1 12  1  0  0  0  0
  2  6  1  0  0  0  0
  2  9  1  0  0  0  0
  2 13  1  0  0  0  0
  3  5  1  0  0  0  0
  3  7  1  0  0  0  0
  3  9  1  0  0  0  0
  3 18  1  1  0  0  0
  4  6  1  0  0  0  0
  4  7  1  0  0  0  0
  4  8  1  0  0  0  0
  4 19  1  6  0  0  0
  5 10  1  0  0  0  0
  5 20  1  1  0  0  0
  6 11  1  0  0  0  0
  6 21  1  1  0  0  0
  7 22  1  0  0  0  0
  7 23  1  0  0  0  0
  8 24  1  0  0  0  0
  8 25  1  0  0  0  0
  9 26  1  0  0  0  0
  9 27  1  0  0  0  0
 10 14  1  0  0  0  0
 10 28  1  0  0  0  0
 10 29  1  0  0  0  0
 11 15  1  0  0  0  0
 11 30  1  0  0  0  0
 11 31  1  0  0  0  0
 12 16  1  0  0  0  0
 12 32  1  0  0  0  0
 12 33  1  0  0  0  0
 13 17  1  0  0  0  0
 13 34  1  0  0  0  0
 13 35  1  0  0  0  0
 14 16  1  0  0  0  0
 14 36  1  0  0  0  0
 14 37  1  0  0  0  0
 15 17  1  0  0  0  0
 15 38  1  0  0  0  0
 15 39  1  0  0  0  0
 16 40  1  0  0  0  0
 16 41  1  0  0  0  0
 17 42  1  0  0  0  0
 17 43  1  0  0  0  0
M  END
> <PUBCHEM_COMPOUND_CID>
92759

> <PUBCHEM_COMPOUND_CANONICALIZED>
1

> <PUBCHEM_CACTVS_COMPLEXITY>
263

> <PUBCHEM_CACTVS_HBOND_ACCEPTOR>
2

> <PUBCHEM_CACTVS_HBOND_DONOR>
0

> <PUBCHEM_CACTVS_ROTATABLE_BOND>
0

> <PUBCHEM_CACTVS_SUBSKEYS>
AAADceBzAAAAAAAAAAAAAAAAAAAAAAAAAAAsWLFgAAAWAACwAAAAHAAAAAAADSjBAAQAAAMAAAAAAAAAAAAAAAAAAAAAAAAIAAAAAAIAwAAEAAAAAACAAAEQgMAOAAAAAAAAAAAAAAAAAAAAAAAAAAAAAA==

> <PUBCHEM_IUPAC_INCHI>
InChI=1S/C15H26N2/c1-3-7-16-11-13-9-12(14(16)5-1)10-17-8-4-2-6-15(13)17/h12-15H,1-11H2/t12-,13-,14+,15+/m0/s1

> <PUBCHEM_IUPAC_INCHIKEY>
SLRCCWJSBJZJBV-BYNSBNAKSA-N

> <PUBCHEM_XLOGP3_AA>
2.5

> <PUBCHEM_EXACT_MASS>
234.209599

> <PUBCHEM_MOLECULAR_FORMULA>
C15H26N2

> <PUBCHEM_MOLECULAR_WEIGHT>
234.38034

> <PUBCHEM_OPENEYE_CAN_SMILES>
C1CCN2CC3CC(C2C1)CN4C3CCCC4

> <PUBCHEM_OPENEYE_ISO_SMILES>
C1CCN2C[C@@H]3C[C@H]([C@H]2C1)CN4[C@@H]3CCCC4

> <PUBCHEM_CACTVS_TPSA>
6.5

> <PUBCHEM_MONOISOTOPIC_WEIGHT>
234.209599

> <PUBCHEM_TOTAL_CHARGE>
0

> <PUBCHEM_HEAVY_ATOM_COUNT>
17

> <PUBCHEM_ATOM_DEF_STEREO_COUNT>
4

> <PUBCHEM_ATOM_UDEF_STEREO_COUNT>
0

> <PUBCHEM_BOND_DEF_STEREO_COUNT>
0

> <PUBCHEM_BOND_UDEF_STEREO_COUNT>
0

> <PUBCHEM_ISOTOPIC_ATOM_COUNT>
0

> <PUBCHEM_COMPONENT_COUNT>
1

> <PUBCHEM_CACTVS_TAUTO_COUNT>
1

> <PUBCHEM_COORDINATE_TYPE>
1
5
255

> <PUBCHEM_BONDANNOTATIONS>
3  18  5
4  19  6
5  20  5
6  21  5

$$$$

