   Color/Form
        Yellow leaflets from alcohol
   from [1]HSDB

   Melting Point
        238-241 DEG C
   from [2]HSDB

   Solubilities

     * SOL IN ALCOHOL
     * Slightly sol in ether

   from [3]HSDB

   Spectral Properties

     * IR: 18155 (Sadtler Research Laboratories Prism Collection)
     * UV: 5762 (Sadtler Research Laboratories Spectral Collection)

   from [4]HSDB

   Other Chemical/Physical Properties

     * Sublimes
     * IR: 10379 (Sadtler Research Laboratories IR Grating Collection)
       /1-Aminoanthracenamine/
     * UV: 6851 (Sadtler Research Laboratories Spectral Collection)
       /1-Aminoanthracenamine/
     * NMR: 2331 (Sadtler Research Laboratories Spectral Collection)
       /1-Aminoanthracenamine/
     * UV: 5-400 (Organic Electronic Spectral Data, Phillips et al, John
       Wiley & Sons, New York) /9-Aminoanthracenamine/

   from [5]HSDB

   Computed Properties
   Molecular Weight                  193.24384 [g/mol]
   Molecular Formula                 C[14]H[11]N
   XLogP3                            3.5
   H-Bond Donor                      1
   H-Bond Acceptor                   1
   Rotatable Bond Count              0
   Exact Mass                        193.089149
   MonoIsotopic Mass                 193.089149
   Topological Polar Surface Area    26
   Heavy Atom Count                  15
   Formal Charge                     0
   Complexity                        225
   Isotope Atom Count                0
   Defined Atom Stereocenter Count   0
   Undefined Atom Stereocenter Count 0
   Defined Bond Stereocenter Count   0
   Undefined Bond Stereocenter Count 0
   Covalently-Bonded Unit Count      1
   Feature 3D Donor Count            1
   Feature 3D Cation Count           1
   Feature 3D Ring Count             3
   Effective Rotor Count             0
   Conformer Sampling RMSD           0.4
   CID Conformer Count               [6]1

References

   1. http://toxnet.nlm.nih.gov/cgi-bin/sis/search/r?dbs+hsdb:@term+@rn+@rel+613-13-8
   2. http://toxnet.nlm.nih.gov/cgi-bin/sis/search/r?dbs+hsdb:@term+@rn+@rel+613-13-8
   3. http://toxnet.nlm.nih.gov/cgi-bin/sis/search/r?dbs+hsdb:@term+@rn+@rel+613-13-8
   4. http://toxnet.nlm.nih.gov/cgi-bin/sis/search/r?dbs+hsdb:@term+@rn+@rel+613-13-8
   5. http://toxnet.nlm.nih.gov/cgi-bin/sis/search/r?dbs+hsdb:@term+@rn+@rel+613-13-8
   6. http://pubchem.ncbi.nlm.nih.gov/vw3d/vw3d.cgi?cid=11937
