98612
  -OEChem-07051213082D

 32 31  0     1  0  0  0  0  0999 V2000
    9.5841   -0.9400    0.0000 Cl  0  0  0  0  0  0  0  0  0  0  0  0
    7.8520    2.0600    0.0000 Cl  0  0  0  0  0  0  0  0  0  0  0  0
    6.1200   -0.9400    0.0000 P   0  0  3  0  0  0  0  0  0  0  0  0
    5.6200   -0.0740    0.0000 O   0  0  0  0  0  0  0  0  0  0  0  0
    6.6200   -1.8060    0.0000 O   0  0  0  0  0  0  0  0  0  0  0  0
    2.6200    1.6581    0.0000 O   0  0  0  0  0  0  0  0  0  0  0  0
    6.9860   -0.4400    0.0000 N   0  0  0  0  0  0  0  0  0  0  0  0
    5.2540   -1.4400    0.0000 N   0  0  0  0  0  0  0  0  0  0  0  0
    7.8520   -0.9400    0.0000 C   0  0  0  0  0  0  0  0  0  0  0  0
    6.9860    0.5600    0.0000 C   0  0  0  0  0  0  0  0  0  0  0  0
    4.6200   -0.0740    0.0000 C   0  0  0  0  0  0  0  0  0  0  0  0
    4.1200    0.7921    0.0000 C   0  0  0  0  0  0  0  0  0  0  0  0
    8.7181   -0.4400    0.0000 C   0  0  0  0  0  0  0  0  0  0  0  0
    7.8520    1.0600    0.0000 C   0  0  0  0  0  0  0  0  0  0  0  0
    3.1200    0.7921    0.0000 C   0  0  0  0  0  0  0  0  0  0  0  0
    6.7740    1.1426    0.0000 H   0  0  0  0  0  0  0  0  0  0  0  0
    6.3754    0.4523    0.0000 H   0  0  0  0  0  0  0  0  0  0  0  0
    7.4535   -1.4150    0.0000 H   0  0  0  0  0  0  0  0  0  0  0  0
    8.2506   -1.4150    0.0000 H   0  0  0  0  0  0  0  0  0  0  0  0
    4.0374   -0.2860    0.0000 H   0  0  0  0  0  0  0  0  0  0  0  0
    4.7277   -0.6846    0.0000 H   0  0  0  0  0  0  0  0  0  0  0  0
    4.7026    1.0041    0.0000 H   0  0  0  0  0  0  0  0  0  0  0  0
    4.0123    1.4026    0.0000 H   0  0  0  0  0  0  0  0  0  0  0  0
    8.0641    0.4774    0.0000 H   0  0  0  0  0  0  0  0  0  0  0  0
    8.4626    1.1677    0.0000 H   0  0  0  0  0  0  0  0  0  0  0  0
    9.1166    0.0349    0.0000 H   0  0  0  0  0  0  0  0  0  0  0  0
    8.3196    0.0349    0.0000 H   0  0  0  0  0  0  0  0  0  0  0  0
    4.7170   -1.1300    0.0000 H   0  0  0  0  0  0  0  0  0  0  0  0
    5.2540   -2.0600    0.0000 H   0  0  0  0  0  0  0  0  0  0  0  0
    2.5374    0.5800    0.0000 H   0  0  0  0  0  0  0  0  0  0  0  0
    3.2277    0.1815    0.0000 H   0  0  0  0  0  0  0  0  0  0  0  0
    2.0000    1.6581    0.0000 H   0  0  0  0  0  0  0  0  0  0  0  0
  1 13  1  0  0  0  0
  2 14  1  0  0  0  0
  3  4  1  0  0  0  0
  3  5  2  0  0  0  0
  3  7  1  0  0  0  0
  3  8  1  0  0  0  0
  4 11  1  0  0  0  0
  6 15  1  0  0  0  0
  6 32  1  0  0  0  0
  7  9  1  0  0  0  0
  7 10  1  0  0  0  0
  8 28  1  0  0  0  0
  8 29  1  0  0  0  0
  9 13  1  0  0  0  0
  9 18  1  0  0  0  0
  9 19  1  0  0  0  0
 10 14  1  0  0  0  0
 10 16  1  0  0  0  0
 10 17  1  0  0  0  0
 11 12  1  0  0  0  0
 11 20  1  0  0  0  0
 11 21  1  0  0  0  0
 12 15  1  0  0  0  0
 12 22  1  0  0  0  0
 12 23  1  0  0  0  0
 13 26  1  0  0  0  0
 13 27  1  0  0  0  0
 14 24  1  0  0  0  0
 14 25  1  0  0  0  0
 15 30  1  0  0  0  0
 15 31  1  0  0  0  0
M  END
> <PUBCHEM_COMPOUND_CID>
98612

> <PUBCHEM_COMPOUND_CANONICALIZED>
1

> <PUBCHEM_CACTVS_COMPLEXITY>
203

> <PUBCHEM_CACTVS_HBOND_ACCEPTOR>
5

> <PUBCHEM_CACTVS_HBOND_DONOR>
2

> <PUBCHEM_CACTVS_ROTATABLE_BOND>
9

> <PUBCHEM_CACTVS_SUBSKEYS>
AAADceBjMAIGAAAAAAAAAAAAAAAAAAAAAAAAAAAAAAAAAAAAAAAAHgIQiCAACAPhgEYAAAIAAxAAQAAAAIAAAAAAAAAAAAAIAAAAEAAAAABAQAABAACAAAAAAAAAAAAAAAAAAAAAAAAAAAAAAAAAAAAAAA==

> <PUBCHEM_IUPAC_OPENEYE_NAME>
3-[amino-[bis(2-chloroethyl)amino]phosphoryl]oxypropan-1-ol

> <PUBCHEM_IUPAC_CAS_NAME>
3-[amino-[bis(2-chloroethyl)amino]phosphoryl]oxy-1-propanol

> <PUBCHEM_IUPAC_NAME>
3-[amino-[bis(2-chloroethyl)amino]phosphoryl]oxypropan-1-ol

> <PUBCHEM_IUPAC_SYSTEMATIC_NAME>
3-[azanyl-[bis(2-chloroethyl)amino]phosphoryl]oxypropan-1-ol

> <PUBCHEM_IUPAC_TRADITIONAL_NAME>
3-[amino-[bis(2-chloroethyl)amino]phosphoryl]oxypropan-1-ol

> <PUBCHEM_IUPAC_INCHI>
InChI=1S/C7H17Cl2N2O3P/c8-2-4-11(5-3-9)15(10,13)14-7-1-6-12/h12H,1-7H2,(H2,10,13)

> <PUBCHEM_IUPAC_INCHIKEY>
BZGFIGVSVQRQBJ-UHFFFAOYSA-N

> <PUBCHEM_XLOGP3_AA>
-0.2

> <PUBCHEM_EXACT_MASS>
278.035384

> <PUBCHEM_MOLECULAR_FORMULA>
C7H17Cl2N2O3P

> <PUBCHEM_MOLECULAR_WEIGHT>
279.101242

> <PUBCHEM_OPENEYE_CAN_SMILES>
C(CO)COP(=O)(N)N(CCCl)CCCl

> <PUBCHEM_OPENEYE_ISO_SMILES>
C(CO)COP(=O)(N)N(CCCl)CCCl

> <PUBCHEM_CACTVS_TPSA>
75.8

> <PUBCHEM_MONOISOTOPIC_WEIGHT>
278.035384

> <PUBCHEM_TOTAL_CHARGE>
0

> <PUBCHEM_HEAVY_ATOM_COUNT>
15

> <PUBCHEM_ATOM_DEF_STEREO_COUNT>
0

> <PUBCHEM_ATOM_UDEF_STEREO_COUNT>
1

> <PUBCHEM_BOND_DEF_STEREO_COUNT>
0

> <PUBCHEM_BOND_UDEF_STEREO_COUNT>
0

> <PUBCHEM_ISOTOPIC_ATOM_COUNT>
0

> <PUBCHEM_COMPONENT_COUNT>
1

> <PUBCHEM_CACTVS_TAUTO_COUNT>
2

> <PUBCHEM_COORDINATE_TYPE>
1
5
255

> <PUBCHEM_BONDANNOTATIONS>
3  8  3

$$$$

