   Color/Form

     * Yellow crystals
     * Yellow prisms from alcohol
     * Yellow solid

   from [1]HSDB

   Odor
        Odorless
   from [2]HSDB

   Boiling Point
        220 deg C
   from [3]HSDB

   Melting Point
        86.5 deg C
   from [4]HSDB

   Density/Specific Gravity
        1.58 g/cu cm @ 20 deg C
   from [5]HSDB

   Dissociation Constants
        pKa = 4.31
   from [6]HSDB

   Heat of Combustion
        -3920 CAL/G
   from [7]HSDB

   Octanol/Water Partition Coefficient
        log Kow = 2.13
   from [8]HSDB

   Solubilities

     * Solubility (g/l @ 20 deg C) in toluene: 251; methanol 58.4; hexane
       4.03; ethyl acetate 338; acetone 514; dichloromethane 503
     * 0.5% IN PETROLEUM ETHER, 43% IN ETHANOL, 23.5% IN GLACIAL ACETIC
       ACID, 37% IN BENZENE AND CHLOROFORM, 100% IN ACETONE
     * READILY SOL IN ALKALINE AQ SOLN, ETHER
     * In water, 198 mg/l @ 20 deg C

   from [9]HSDB

   Spectral Properties

     * MAX ABSORPTION (0.1 N HYDROCHLORIC ACID): 268 NM (LOG E = 4.10);
       SADTLER REFERENCE NUMBER: 287, 10554 (IR, PRISM), 98 (IR, GRATING)
     * Intense mass spectral peaks: 121 m/z (100%), 53 m/z (96%), 52 m/z
       (79%), 50 m/z (64%)
     * MASS: 52505 (NIST/EPA/MSDC Mass Spectral Database, 1990 Version
     * IR: 98 (Sadtler Research Laboratory IR grating collection)
     * UV: 2907 (Sadtler Research Laboratories spectral collection)
     * H-1 NMR: 3236 (Sadtler Research Laboratories spectral collection)

   from [10]HSDB

   Vapor Density
        6.84 (Air=1)
   from [11]HSDB

   Vapor Pressure
        0.00012 mm Hg @ 25 deg C
   from [12]HSDB

   Other Chemical/Physical Properties

     * Henry's Law Constant: 1.40X10-6 atm cu m/mol @ 25 deg C
     * MP: 83-85 deg C /Technical/
     * Forms salts with inorganic and organic bases; forms molecular
       compounds with amines, hydrocarbons and phenols; readily reduced to
       mono-amino derivative, 6-amino-2-methyl-4-nitrophenol.
     * Bright yellow readily staining dye.
     * Sodium, potassium, calcium, and ammonium salts are readily soluble
       in water
     * Moderately volatile with steam
     * Red powder; hydrate yellow needles; freely soluble in water /Sodium
       salt/

   from [13]HSDB

   Computed Properties
   Molecular Weight                  198.13294 [g/mol]
   Molecular Formula                 C[7]H[6]N[2]O[5]
   XLogP3                            2.1
   H-Bond Donor                      1
   H-Bond Acceptor                   5
   Rotatable Bond Count              0
   Tautomer Count                    4
   Exact Mass                        198.027671
   MonoIsotopic Mass                 198.027671
   Topological Polar Surface Area    112
   Heavy Atom Count                  14
   Formal Charge                     0
   Complexity                        245
   Isotope Atom Count                0
   Defined Atom Stereocenter Count   0
   Undefined Atom Stereocenter Count 0
   Defined Bond Stereocenter Count   0
   Undefined Bond Stereocenter Count 0
   Covalently-Bonded Unit Count      1
   Feature 3D Acceptor Count         4
   Feature 3D Donor Count            1
   Feature 3D Anion Count            2
   Feature 3D Ring Count             1
   Effective Rotor Count             2
   Conformer Sampling RMSD           0.6
   CID Conformer Count               [14]1

References

   1. http://toxnet.nlm.nih.gov/cgi-bin/sis/search/r?dbs+hsdb:@term+@rn+@rel+534-52-1
   2. http://toxnet.nlm.nih.gov/cgi-bin/sis/search/r?dbs+hsdb:@term+@rn+@rel+534-52-1
   3. http://toxnet.nlm.nih.gov/cgi-bin/sis/search/r?dbs+hsdb:@term+@rn+@rel+534-52-1
   4. http://toxnet.nlm.nih.gov/cgi-bin/sis/search/r?dbs+hsdb:@term+@rn+@rel+534-52-1
   5. http://toxnet.nlm.nih.gov/cgi-bin/sis/search/r?dbs+hsdb:@term+@rn+@rel+534-52-1
   6. http://toxnet.nlm.nih.gov/cgi-bin/sis/search/r?dbs+hsdb:@term+@rn+@rel+534-52-1
   7. http://toxnet.nlm.nih.gov/cgi-bin/sis/search/r?dbs+hsdb:@term+@rn+@rel+534-52-1
   8. http://toxnet.nlm.nih.gov/cgi-bin/sis/search/r?dbs+hsdb:@term+@rn+@rel+534-52-1
   9. http://toxnet.nlm.nih.gov/cgi-bin/sis/search/r?dbs+hsdb:@term+@rn+@rel+534-52-1
  10. http://toxnet.nlm.nih.gov/cgi-bin/sis/search/r?dbs+hsdb:@term+@rn+@rel+534-52-1
  11. http://toxnet.nlm.nih.gov/cgi-bin/sis/search/r?dbs+hsdb:@term+@rn+@rel+534-52-1
  12. http://toxnet.nlm.nih.gov/cgi-bin/sis/search/r?dbs+hsdb:@term+@rn+@rel+534-52-1
  13. http://toxnet.nlm.nih.gov/cgi-bin/sis/search/r?dbs+hsdb:@term+@rn+@rel+534-52-1
  14. http://pubchem.ncbi.nlm.nih.gov/vw3d/vw3d.cgi?cid=10800
