8774
  -OEChem-07051213022D

 34 33  0     0  0  0  0  0  0999 V2000
    7.0010    3.3100    0.0000 As  0  0  0  0  0  0  0  0  0  0  0  0
    7.0010    4.3100    0.0000 As  0  0  0  0  0  0  0  0  0  0  0  0
    0.0000    4.8100    0.0000 Cl  0  0  0  0  0  0  0  0  0  0  0  0
    6.5010    9.6200    0.0000 Cl  0  0  0  0  0  0  0  0  0  0  0  0
    3.5369    6.3100    0.0000 O   0  0  0  0  0  0  0  0  0  0  0  0
   10.4651    1.3100    0.0000 O   0  0  0  0  0  0  0  0  0  0  0  0
    5.2690    7.3100    0.0000 N   0  0  0  0  0  0  0  0  0  0  0  0
    8.7331    0.3100    0.0000 N   0  0  0  0  0  0  0  0  0  0  0  0
    6.1350    4.8100    0.0000 C   0  0  0  0  0  0  0  0  0  0  0  0
    7.8671    2.8100    0.0000 C   0  0  0  0  0  0  0  0  0  0  0  0
    5.2690    6.3100    0.0000 C   0  0  0  0  0  0  0  0  0  0  0  0
    8.7331    1.3100    0.0000 C   0  0  0  0  0  0  0  0  0  0  0  0
    6.1350    5.8100    0.0000 C   0  0  0  0  0  0  0  0  0  0  0  0
    7.8671    1.8100    0.0000 C   0  0  0  0  0  0  0  0  0  0  0  0
    4.4030    5.8100    0.0000 C   0  0  0  0  0  0  0  0  0  0  0  0
    9.5991    1.8100    0.0000 C   0  0  0  0  0  0  0  0  0  0  0  0
    8.7331    3.3100    0.0000 C   0  0  0  0  0  0  0  0  0  0  0  0
    5.2690    4.3100    0.0000 C   0  0  0  0  0  0  0  0  0  0  0  0
    9.5991    2.8100    0.0000 C   0  0  0  0  0  0  0  0  0  0  0  0
    4.4030    4.8100    0.0000 C   0  0  0  0  0  0  0  0  0  0  0  0
    6.6720    6.1200    0.0000 H   0  0  0  0  0  0  0  0  0  0  0  0
    7.3301    1.5000    0.0000 H   0  0  0  0  0  0  0  0  0  0  0  0
    8.7331    3.9300    0.0000 H   0  0  0  0  0  0  0  0  0  0  0  0
    5.2690    3.6900    0.0000 H   0  0  0  0  0  0  0  0  0  0  0  0
    3.8660    4.5000    0.0000 H   0  0  0  0  0  0  0  0  0  0  0  0
   10.1360    3.1200    0.0000 H   0  0  0  0  0  0  0  0  0  0  0  0
    5.8059    7.6200    0.0000 H   0  0  0  0  0  0  0  0  0  0  0  0
    4.7320    7.6200    0.0000 H   0  0  0  0  0  0  0  0  0  0  0  0
    8.1962    0.0000    0.0000 H   0  0  0  0  0  0  0  0  0  0  0  0
    9.2700    0.0000    0.0000 H   0  0  0  0  0  0  0  0  0  0  0  0
    3.0000    6.0000    0.0000 H   0  0  0  0  0  0  0  0  0  0  0  0
   11.0021    1.6200    0.0000 H   0  0  0  0  0  0  0  0  0  0  0  0
    1.0000    4.8100    0.0000 H   0  0  0  0  0  0  0  0  0  0  0  0
    7.5010    9.6200    0.0000 H   0  0  0  0  0  0  0  0  0  0  0  0
  1  2  2  0  0  0  0
  1 10  1  0  0  0  0
  2  9  1  0  0  0  0
  3 33  1  0  0  0  0
  4 34  1  0  0  0  0
  5 15  1  0  0  0  0
  5 31  1  0  0  0  0
  6 16  1  0  0  0  0
  6 32  1  0  0  0  0
  7 11  1  0  0  0  0
  7 27  1  0  0  0  0
  7 28  1  0  0  0  0
  8 12  1  0  0  0  0
  8 29  1  0  0  0  0
  8 30  1  0  0  0  0
  9 13  2  0  0  0  0
  9 18  1  0  0  0  0
 10 14  2  0  0  0  0
 10 17  1  0  0  0  0
 11 13  1  0  0  0  0
 11 15  2  0  0  0  0
 12 14  1  0  0  0  0
 12 16  2  0  0  0  0
 13 21  1  0  0  0  0
 14 22  1  0  0  0  0
 15 20  1  0  0  0  0
 16 19  1  0  0  0  0
 17 19  2  0  0  0  0
 17 23  1  0  0  0  0
 18 20  2  0  0  0  0
 18 24  1  0  0  0  0
 19 26  1  0  0  0  0
 20 25  1  0  0  0  0
M  END
> <PUBCHEM_COMPOUND_CID>
8774

> <PUBCHEM_COMPOUND_CANONICALIZED>
1

> <PUBCHEM_CACTVS_COMPLEXITY>
276

> <PUBCHEM_CACTVS_HBOND_ACCEPTOR>
4

> <PUBCHEM_CACTVS_HBOND_DONOR>
6

> <PUBCHEM_CACTVS_ROTATABLE_BOND>
2

> <PUBCHEM_CACTVS_SUBSKEYS>
AAADccBzMAAGAAAAQAAAAAAAAAAAAAAAAAAwYAAAAAAAAAABQAAAHgEQCAACCAyBkAAwxoBAAgCAACRCQACCAAAgIgAIjAAHbIgKJiKSkZOAcABk0BEI2AeQQAAAAAAAAAAAEAAAAAAAAAAgAAAAAAAAAA==

> <PUBCHEM_IUPAC_OPENEYE_NAME>
2-amino-4-(3-amino-4-hydroxy-phenyl)arsanylidenearsanyl-phenol dihydrochloride

> <PUBCHEM_IUPAC_CAS_NAME>
2-amino-4-(3-amino-4-hydroxyphenyl)arsinylidenearsinylphenol dihydrochloride

> <PUBCHEM_IUPAC_NAME>
2-amino-4-(3-amino-4-hydroxyphenyl)arsanylidenearsanylphenol dihydrochloride

> <PUBCHEM_IUPAC_SYSTEMATIC_NAME>
2-azanyl-4-(3-azanyl-4-oxidanyl-phenyl)arsanylidenearsanyl-phenol dihydrochloride

> <PUBCHEM_IUPAC_TRADITIONAL_NAME>
2-amino-4-(3-amino-4-hydroxy-phenyl)arsinylidenearsinyl-phenol dihydrochloride

> <PUBCHEM_IUPAC_INCHI>
InChI=1S/C12H12As2N2O2.2ClH/c15-9-5-7(1-3-11(9)17)13-14-8-2-4-12(18)10(16)6-8;;/h1-6,17-18H,15-16H2;2*1H

> <PUBCHEM_IUPAC_INCHIKEY>
VLAXZGHHBIJLAD-UHFFFAOYSA-N

> <PUBCHEM_EXACT_MASS>
437.886426

> <PUBCHEM_MOLECULAR_FORMULA>
C12H14As2Cl2N2O2

> <PUBCHEM_MOLECULAR_WEIGHT>
439.00096

> <PUBCHEM_OPENEYE_CAN_SMILES>
C1=CC(=C(C=C1[As]=[As]C2=CC(=C(C=C2)O)N)N)O.Cl.Cl

> <PUBCHEM_OPENEYE_ISO_SMILES>
C1=CC(=C(C=C1[As]=[As]C2=CC(=C(C=C2)O)N)N)O.Cl.Cl

> <PUBCHEM_CACTVS_TPSA>
92.5

> <PUBCHEM_MONOISOTOPIC_WEIGHT>
437.886426

> <PUBCHEM_TOTAL_CHARGE>
0

> <PUBCHEM_HEAVY_ATOM_COUNT>
20

> <PUBCHEM_ATOM_DEF_STEREO_COUNT>
0

> <PUBCHEM_ATOM_UDEF_STEREO_COUNT>
0

> <PUBCHEM_BOND_DEF_STEREO_COUNT>
0

> <PUBCHEM_BOND_UDEF_STEREO_COUNT>
0

> <PUBCHEM_ISOTOPIC_ATOM_COUNT>
0

> <PUBCHEM_COMPONENT_COUNT>
3

> <PUBCHEM_CACTVS_TAUTO_COUNT>
9

> <PUBCHEM_COORDINATE_TYPE>
1
5
255

> <PUBCHEM_BONDANNOTATIONS>
10  14  8
10  17  8
11  13  8
11  15  8
12  14  8
12  16  8
15  20  8
16  19  8
17  19  8
18  20  8
9  13  8
9  18  8

$$$$

