17395786
  -OEChem-06241222522D

 42 45  0     1  0  0  0  0  0999 V2000
    9.0084   -2.8242    0.0000 S   0  0  0  0  0  0  0  0  0  0  0  0
    2.8660    0.4806    0.0000 O   0  0  0  0  0  0  0  0  0  0  0  0
    7.1962   -0.0194    0.0000 N   0  0  0  0  0  0  0  0  0  0  0  0
    5.5211    2.0684    0.0000 N   0  0  0  0  0  0  0  0  0  0  0  0
    7.1391    2.0684    0.0000 N   0  0  0  0  0  0  0  0  0  0  0  0
    6.3301   -1.5194    0.0000 N   0  0  0  0  0  0  0  0  0  0  0  0
    7.1962   -3.0194    0.0000 N   0  0  0  0  0  0  0  0  0  0  0  0
    6.3301    0.4806    0.0000 C   0  0  3  0  0  0  0  0  0  0  0  0
    6.3301    1.4806    0.0000 C   0  0  0  0  0  0  0  0  0  0  0  0
    5.4641   -0.0194    0.0000 C   0  0  0  0  0  0  0  0  0  0  0  0
    7.1962   -1.0194    0.0000 C   0  0  0  0  0  0  0  0  0  0  0  0
    4.5981    0.4806    0.0000 C   0  0  0  0  0  0  0  0  0  0  0  0
    5.4641   -1.0194    0.0000 C   0  0  0  0  0  0  0  0  0  0  0  0
    8.0622   -1.5194    0.0000 C   0  0  0  0  0  0  0  0  0  0  0  0
    5.8301    3.0194    0.0000 C   0  0  0  0  0  0  0  0  0  0  0  0
    4.5700    1.7594    0.0000 C   0  0  0  0  0  0  0  0  0  0  0  0
    3.7320   -0.0194    0.0000 C   0  0  0  0  0  0  0  0  0  0  0  0
    6.8301    3.0194    0.0000 C   0  0  0  0  0  0  0  0  0  0  0  0
    4.5981   -1.5194    0.0000 C   0  0  0  0  0  0  0  0  0  0  0  0
    3.7320   -1.0194    0.0000 C   0  0  0  0  0  0  0  0  0  0  0  0
    8.0622   -2.5194    0.0000 C   0  0  0  0  0  0  0  0  0  0  0  0
    9.0084   -1.2147    0.0000 C   0  0  0  0  0  0  0  0  0  0  0  0
    9.5920   -2.0194    0.0000 C   0  0  0  0  0  0  0  0  0  0  0  0
    6.3301   -2.5194    0.0000 C   0  0  0  0  0  0  0  0  0  0  0  0
    2.0000   -0.0194    0.0000 C   0  0  0  0  0  0  0  0  0  0  0  0
    6.8671    0.7906    0.0000 H   0  0  0  0  0  0  0  0  0  0  0  0
    7.7331    0.2906    0.0000 H   0  0  0  0  0  0  0  0  0  0  0  0
    4.5981    1.1006    0.0000 H   0  0  0  0  0  0  0  0  0  0  0  0
    6.0010   -1.3294    0.0000 H   0  0  0  0  0  0  0  0  0  0  0  0
    5.4657    3.5210    0.0000 H   0  0  0  0  0  0  0  0  0  0  0  0
    4.3785    2.3490    0.0000 H   0  0  0  0  0  0  0  0  0  0  0  0
    3.9804    1.5678    0.0000 H   0  0  0  0  0  0  0  0  0  0  0  0
    4.7616    1.1697    0.0000 H   0  0  0  0  0  0  0  0  0  0  0  0
    7.1946    3.5210    0.0000 H   0  0  0  0  0  0  0  0  0  0  0  0
    4.5981   -2.1394    0.0000 H   0  0  0  0  0  0  0  0  0  0  0  0
    3.1951   -1.3294    0.0000 H   0  0  0  0  0  0  0  0  0  0  0  0
    9.2010   -0.6254    0.0000 H   0  0  0  0  0  0  0  0  0  0  0  0
   10.2120   -2.0194    0.0000 H   0  0  0  0  0  0  0  0  0  0  0  0
    5.7932   -2.8294    0.0000 H   0  0  0  0  0  0  0  0  0  0  0  0
    1.6900    0.5175    0.0000 H   0  0  0  0  0  0  0  0  0  0  0  0
    1.4631   -0.3294    0.0000 H   0  0  0  0  0  0  0  0  0  0  0  0
    2.3100   -0.5564    0.0000 H   0  0  0  0  0  0  0  0  0  0  0  0
  1 21  1  0  0  0  0
  1 23  1  0  0  0  0
  2 17  1  0  0  0  0
  2 25  1  0  0  0  0
  3  8  1  0  0  0  0
  3 11  1  0  0  0  0
  3 27  1  0  0  0  0
  4  9  1  0  0  0  0
  4 15  1  0  0  0  0
  4 16  1  0  0  0  0
  5  9  2  0  0  0  0
  5 18  1  0  0  0  0
  6 11  1  0  0  0  0
  6 24  2  0  0  0  0
  7 21  2  0  0  0  0
  7 24  1  0  0  0  0
  8  9  1  0  0  0  0
  8 10  1  0  0  0  0
  8 26  1  0  0  0  0
 10 12  2  0  0  0  0
 10 13  1  0  0  0  0
 11 14  2  0  0  0  0
 12 17  1  0  0  0  0
 12 28  1  0  0  0  0
 13 19  2  0  0  0  0
 13 29  1  0  0  0  0
 14 21  1  0  0  0  0
 14 22  1  0  0  0  0
 15 18  2  0  0  0  0
 15 30  1  0  0  0  0
 16 31  1  0  0  0  0
 16 32  1  0  0  0  0
 16 33  1  0  0  0  0
 17 20  2  0  0  0  0
 18 34  1  0  0  0  0
 19 20  1  0  0  0  0
 19 35  1  0  0  0  0
 20 36  1  0  0  0  0
 22 23  2  0  0  0  0
 22 37  1  0  0  0  0
 23 38  1  0  0  0  0
 24 39  1  0  0  0  0
 25 40  1  0  0  0  0
 25 41  1  0  0  0  0
 25 42  1  0  0  0  0
M  END
> <PUBCHEM_COMPOUND_CID>
17395786

> <PUBCHEM_COMPOUND_CANONICALIZED>
1

> <PUBCHEM_CACTVS_COMPLEXITY>
442

> <PUBCHEM_CACTVS_HBOND_ACCEPTOR>
6

> <PUBCHEM_CACTVS_HBOND_DONOR>
1

> <PUBCHEM_CACTVS_ROTATABLE_BOND>
5

> <PUBCHEM_CACTVS_SUBSKEYS>
AAADceB7oABAAAAAAAAAAAAAAAAAAWJAAAA8QAAAAAAAAFgB/gAAHgQQAAAADCzF2wa/t9fMFAikAjJnZACD2K1xOrhJ2Lg+fJiMbqLk+duUNCxswBPo6Cew0LIOAAABAAAAAAAAAAIAAAAAAAAAAAAAAA==

> <PUBCHEM_IUPAC_OPENEYE_NAME>
N-[(3-methoxyphenyl)-(1-methylimidazol-2-yl)methyl]thieno[2,3-d]pyrimidin-4-amine

> <PUBCHEM_IUPAC_CAS_NAME>
N-[(3-methoxyphenyl)-(1-methyl-2-imidazolyl)methyl]-4-thieno[2,3-d]pyrimidinamine

> <PUBCHEM_IUPAC_NAME>
N-[(3-methoxyphenyl)-(1-methylimidazol-2-yl)methyl]thieno[2,3-d]pyrimidin-4-amine

> <PUBCHEM_IUPAC_SYSTEMATIC_NAME>
N-[(3-methoxyphenyl)-(1-methylimidazol-2-yl)methyl]thieno[2,3-d]pyrimidin-4-amine

> <PUBCHEM_IUPAC_TRADITIONAL_NAME>
[(3-methoxyphenyl)-(1-methylimidazol-2-yl)methyl]-thieno[2,3-d]pyrimidin-4-yl-amine

> <PUBCHEM_IUPAC_INCHI>
InChI=1S/C18H17N5OS/c1-23-8-7-19-17(23)15(12-4-3-5-13(10-12)24-2)22-16-14-6-9-25-18(14)21-11-20-16/h3-11,15H,1-2H3,(H,20,21,22)

> <PUBCHEM_IUPAC_INCHIKEY>
SSZZYXJXWLOGIG-UHFFFAOYSA-N

> <PUBCHEM_XLOGP3_AA>
3.2

> <PUBCHEM_EXACT_MASS>
351.115381

> <PUBCHEM_MOLECULAR_FORMULA>
C18H17N5OS

> <PUBCHEM_MOLECULAR_WEIGHT>
351.42548

> <PUBCHEM_OPENEYE_CAN_SMILES>
CN1C=CN=C1C(C2=CC(=CC=C2)OC)NC3=C4C=CSC4=NC=N3

> <PUBCHEM_OPENEYE_ISO_SMILES>
CN1C=CN=C1C(C2=CC(=CC=C2)OC)NC3=C4C=CSC4=NC=N3

> <PUBCHEM_CACTVS_TPSA>
93.1

> <PUBCHEM_MONOISOTOPIC_WEIGHT>
351.115381

> <PUBCHEM_TOTAL_CHARGE>
0

> <PUBCHEM_HEAVY_ATOM_COUNT>
25

> <PUBCHEM_ATOM_DEF_STEREO_COUNT>
0

> <PUBCHEM_ATOM_UDEF_STEREO_COUNT>
1

> <PUBCHEM_BOND_DEF_STEREO_COUNT>
0

> <PUBCHEM_BOND_UDEF_STEREO_COUNT>
0

> <PUBCHEM_ISOTOPIC_ATOM_COUNT>
0

> <PUBCHEM_COMPONENT_COUNT>
1

> <PUBCHEM_CACTVS_TAUTO_COUNT>
4

> <PUBCHEM_COORDINATE_TYPE>
1
5
255

> <PUBCHEM_BONDANNOTATIONS>
1  21  8
1  23  8
10  12  8
10  13  8
11  14  8
12  17  8
13  19  8
14  21  8
14  22  8
15  18  8
17  20  8
19  20  8
22  23  8
8  3  3
4  15  8
4  9  8
5  18  8
5  9  8
6  11  8
6  24  8
7  21  8
7  24  8

$$$$

