15942885
  -OEChem-07051213082D

 74 77  0     1  0  0  0  0  0999 V2000
    7.9288   -2.1219    0.0000 O   0  0  0  0  0  0  0  0  0  0  0  0
    6.1847   -4.1911    0.0000 O   0  0  0  0  0  0  0  0  0  0  0  0
    2.5357   -3.1742    0.0000 O   0  0  0  0  0  0  0  0  0  0  0  0
    7.9288   -0.1219    0.0000 C   0  0  1  0  0  0  0  0  0  0  0  0
    7.9288   -1.1219    0.0000 C   0  0  1  0  0  0  0  0  0  0  0  0
    8.8750    0.1828    0.0000 C   0  0  2  0  0  0  0  0  0  0  0  0
    6.1968   -1.1219    0.0000 C   0  0  2  0  0  0  0  0  0  0  0  0
    5.2868   -1.6287    0.0000 C   0  0  2  0  0  0  0  0  0  0  0  0
    7.0628   -1.6219    0.0000 C   0  0  0  0  0  0  0  0  0  0  0  0
    7.0628    0.3781    0.0000 C   0  0  0  0  0  0  0  0  0  0  0  0
    8.8750   -1.4266    0.0000 C   0  0  0  0  0  0  0  0  0  0  0  0
    6.1968   -0.1219    0.0000 C   0  0  0  0  0  0  0  0  0  0  0  0
    9.4586   -0.6219    0.0000 C   0  0  0  0  0  0  0  0  0  0  0  0
    5.2787   -2.6703    0.0000 C   0  0  1  0  0  0  0  0  0  0  0  0
    9.1857    1.1334    0.0000 C   0  0  1  0  0  0  0  0  0  0  0  0
    7.9288    0.8781    0.0000 C   0  0  0  0  0  0  0  0  0  0  0  0
    4.3599   -1.0647    0.0000 C   0  0  0  0  0  0  0  0  0  0  0  0
    7.0789   -2.6634    0.0000 C   0  0  0  0  0  0  0  0  0  0  0  0
    4.3433   -3.2201    0.0000 C   0  0  0  0  0  0  0  0  0  0  0  0
    5.2945   -0.6288    0.0000 C   0  0  0  0  0  0  0  0  0  0  0  0
    6.1808   -3.1912    0.0000 C   0  0  0  0  0  0  0  0  0  0  0  0
    3.4120   -1.5926    0.0000 C   0  0  0  0  0  0  0  0  0  0  0  0
    3.4037   -2.6776    0.0000 C   0  0  2  0  0  0  0  0  0  0  0  0
   10.1642    1.3396    0.0000 C   0  0  0  0  0  0  0  0  0  0  0  0
    8.5179    1.8777    0.0000 C   0  0  0  0  0  0  0  0  0  0  0  0
   10.4749    2.2901    0.0000 C   0  0  0  0  0  0  0  0  0  0  0  0
   11.4534    2.4963    0.0000 C   0  0  0  0  0  0  0  0  0  0  0  0
   11.7640    3.4468    0.0000 C   0  0  0  0  0  0  0  0  0  0  0  0
   12.7425    3.6531    0.0000 C   0  0  0  0  0  0  0  0  0  0  0  0
   11.0962    4.1911    0.0000 C   0  0  0  0  0  0  0  0  0  0  0  0
    9.7148    0.3147    0.0000 H   0  0  0  0  0  0  0  0  0  0  0  0
    6.9329   -0.6969    0.0000 H   0  0  0  0  0  0  0  0  0  0  0  0
    7.4613    0.8531    0.0000 H   0  0  0  0  0  0  0  0  0  0  0  0
    6.6643    0.8531    0.0000 H   0  0  0  0  0  0  0  0  0  0  0  0
    8.6240   -1.9935    0.0000 H   0  0  0  0  0  0  0  0  0  0  0  0
    9.4124   -1.7358    0.0000 H   0  0  0  0  0  0  0  0  0  0  0  0
    5.9847    0.4607    0.0000 H   0  0  0  0  0  0  0  0  0  0  0  0
    5.5862   -0.2296    0.0000 H   0  0  0  0  0  0  0  0  0  0  0  0
    9.9195   -1.0366    0.0000 H   0  0  0  0  0  0  0  0  0  0  0  0
    9.9195   -0.2072    0.0000 H   0  0  0  0  0  0  0  0  0  0  0  0
    5.2820   -3.5203    0.0000 H   0  0  0  0  0  0  0  0  0  0  0  0
    9.3783    1.7227    0.0000 H   0  0  0  0  0  0  0  0  0  0  0  0
    8.5488    0.8781    0.0000 H   0  0  0  0  0  0  0  0  0  0  0  0
    7.9288    1.4981    0.0000 H   0  0  0  0  0  0  0  0  0  0  0  0
    7.3088    0.8781    0.0000 H   0  0  0  0  0  0  0  0  0  0  0  0
    4.7681   -0.5980    0.0000 H   0  0  0  0  0  0  0  0  0  0  0  0
    3.9700   -0.5826    0.0000 H   0  0  0  0  0  0  0  0  0  0  0  0
    7.6193   -2.9672    0.0000 H   0  0  0  0  0  0  0  0  0  0  0  0
    3.9460   -3.6960    0.0000 H   0  0  0  0  0  0  0  0  0  0  0  0
    4.7443   -3.6930    0.0000 H   0  0  0  0  0  0  0  0  0  0  0  0
    5.9145   -0.6335    0.0000 H   0  0  0  0  0  0  0  0  0  0  0  0
    5.2993   -0.0088    0.0000 H   0  0  0  0  0  0  0  0  0  0  0  0
    4.6745   -0.6240    0.0000 H   0  0  0  0  0  0  0  0  0  0  0  0
    3.2075   -1.0073    0.0000 H   0  0  0  0  0  0  0  0  0  0  0  0
    2.8004   -1.6940    0.0000 H   0  0  0  0  0  0  0  0  0  0  0  0
    8.4658   -2.4319    0.0000 H   0  0  0  0  0  0  0  0  0  0  0  0
    2.8686   -2.3645    0.0000 H   0  0  0  0  0  0  0  0  0  0  0  0
   10.1848    0.7199    0.0000 H   0  0  0  0  0  0  0  0  0  0  0  0
   10.7780    1.2522    0.0000 H   0  0  0  0  0  0  0  0  0  0  0  0
    8.9793    2.2917    0.0000 H   0  0  0  0  0  0  0  0  0  0  0  0
    8.1038    2.3391    0.0000 H   0  0  0  0  0  0  0  0  0  0  0  0
    8.0564    1.4636    0.0000 H   0  0  0  0  0  0  0  0  0  0  0  0
   10.4543    2.9098    0.0000 H   0  0  0  0  0  0  0  0  0  0  0  0
    9.8611    2.3774    0.0000 H   0  0  0  0  0  0  0  0  0  0  0  0
    2.0000   -2.8622    0.0000 H   0  0  0  0  0  0  0  0  0  0  0  0
   11.4739    1.8767    0.0000 H   0  0  0  0  0  0  0  0  0  0  0  0
   12.0672    2.4090    0.0000 H   0  0  0  0  0  0  0  0  0  0  0  0
   12.1781    2.9854    0.0000 H   0  0  0  0  0  0  0  0  0  0  0  0
   12.8704    3.0464    0.0000 H   0  0  0  0  0  0  0  0  0  0  0  0
   11.5577    4.6052    0.0000 H   0  0  0  0  0  0  0  0  0  0  0  0
   10.6821    4.6526    0.0000 H   0  0  0  0  0  0  0  0  0  0  0  0
   10.6347    3.7771    0.0000 H   0  0  0  0  0  0  0  0  0  0  0  0
   13.3492    3.7809    0.0000 H   0  0  0  0  0  0  0  0  0  0  0  0
   12.6147    4.2597    0.0000 H   0  0  0  0  0  0  0  0  0  0  0  0
  5  1  1  6  0  0  0
  1 56  1  0  0  0  0
  2 21  2  0  0  0  0
 23  3  1  1  0  0  0
  3 65  1  0  0  0  0
  4  5  1  0  0  0  0
  4  6  1  0  0  0  0
  4 10  1  0  0  0  0
  4 16  1  1  0  0  0
  5  9  1  0  0  0  0
  5 11  1  0  0  0  0
  6 13  1  0  0  0  0
  6 15  1  0  0  0  0
  6 31  1  6  0  0  0
  7  8  1  0  0  0  0
  7  9  1  0  0  0  0
  7 12  1  0  0  0  0
  7 32  1  6  0  0  0
  8 14  1  0  0  0  0
  8 17  1  0  0  0  0
  8 20  1  1  0  0  0
  9 18  2  0  0  0  0
 10 12  1  0  0  0  0
 10 33  1  0  0  0  0
 10 34  1  0  0  0  0
 11 13  1  0  0  0  0
 11 35  1  0  0  0  0
 11 36  1  0  0  0  0
 12 37  1  0  0  0  0
 12 38  1  0  0  0  0
 13 39  1  0  0  0  0
 13 40  1  0  0  0  0
 14 19  1  0  0  0  0
 14 21  1  0  0  0  0
 14 41  1  1  0  0  0
 15 24  1  0  0  0  0
 15 25  1  6  0  0  0
 15 42  1  0  0  0  0
 16 43  1  0  0  0  0
 16 44  1  0  0  0  0
 16 45  1  0  0  0  0
 17 22  1  0  0  0  0
 17 46  1  0  0  0  0
 17 47  1  0  0  0  0
 18 21  1  0  0  0  0
 18 48  1  0  0  0  0
 19 23  1  0  0  0  0
 19 49  1  0  0  0  0
 19 50  1  0  0  0  0
 20 51  1  0  0  0  0
 20 52  1  0  0  0  0
 20 53  1  0  0  0  0
 22 23  1  0  0  0  0
 22 54  1  0  0  0  0
 22 55  1  0  0  0  0
 23 57  1  0  0  0  0
 24 26  1  0  0  0  0
 24 58  1  0  0  0  0
 24 59  1  0  0  0  0
 25 60  1  0  0  0  0
 25 61  1  0  0  0  0
 25 62  1  0  0  0  0
 26 27  1  0  0  0  0
 26 63  1  0  0  0  0
 26 64  1  0  0  0  0
 27 28  1  0  0  0  0
 27 66  1  0  0  0  0
 27 67  1  0  0  0  0
 28 29  1  0  0  0  0
 28 30  1  0  0  0  0
 28 68  1  0  0  0  0
 29 69  1  0  0  0  0
 29 73  1  0  0  0  0
 29 74  1  0  0  0  0
 30 70  1  0  0  0  0
 30 71  1  0  0  0  0
 30 72  1  0  0  0  0
M  END
> <PUBCHEM_COMPOUND_CID>
15942885

> <PUBCHEM_COMPOUND_CANONICALIZED>
1

> <PUBCHEM_CACTVS_COMPLEXITY>
711

> <PUBCHEM_CACTVS_HBOND_ACCEPTOR>
3

> <PUBCHEM_CACTVS_HBOND_DONOR>
2

> <PUBCHEM_CACTVS_ROTATABLE_BOND>
5

> <PUBCHEM_CACTVS_SUBSKEYS>
AAADcfB4MAAAAAAAAAAAAAAAAAAAAYAAAAAwYIAAAAAAAGCAAAAAGgAACAAAD1SggAICAAAAAgCIAqBSAAAAAAAgAAAACAEAAEgAFBIAAQAAUAAEgAAIEQOKyPCPgAAAAAAAAADAAAYAADAAAYAADAAAAA==

> <PUBCHEM_IUPAC_OPENEYE_NAME>
(3S,5R,9R,10R,13R,14S,17R)-17-[(1R)-1,5-dimethylhexyl]-3,14-dihydroxy-10,13-dimethyl-2,3,4,5,9,11,12,15,16,17-decahydro-1H-cyclopenta[a]phenanthren-6-one

> <PUBCHEM_IUPAC_CAS_NAME>
(3S,5R,9R,10R,13R,14S,17R)-3,14-dihydroxy-10,13-dimethyl-17-[(2R)-6-methylheptan-2-yl]-2,3,4,5,9,11,12,15,16,17-decahydro-1H-cyclopenta[a]phenanthren-6-one

> <PUBCHEM_IUPAC_NAME>
(3S,5R,9R,10R,13R,14S,17R)-3,14-dihydroxy-10,13-dimethyl-17-[(2R)-6-methylheptan-2-yl]-2,3,4,5,9,11,12,15,16,17-decahydro-1H-cyclopenta[a]phenanthren-6-one

> <PUBCHEM_IUPAC_SYSTEMATIC_NAME>
(3S,5R,9R,10R,13R,14S,17R)-10,13-dimethyl-17-[(2R)-6-methylheptan-2-yl]-3,14-bis(oxidanyl)-2,3,4,5,9,11,12,15,16,17-decahydro-1H-cyclopenta[a]phenanthren-6-one

> <PUBCHEM_IUPAC_TRADITIONAL_NAME>
(3S,5R,9R,10R,13R,14S,17R)-17-[(1R)-1,5-dimethylhexyl]-3,14-dihydroxy-10,13-dimethyl-2,3,4,5,9,11,12,15,16,17-decahydro-1H-cyclopenta[a]phenanthren-6-one

> <PUBCHEM_IUPAC_INCHI>
InChI=1S/C27H44O3/c1-17(2)7-6-8-18(3)20-11-14-27(30)22-16-24(29)23-15-19(28)9-12-25(23,4)21(22)10-13-26(20,27)5/h16-21,23,28,30H,6-15H2,1-5H3/t18-,19+,20-,21+,23+,25-,26-,27-/m1/s1

> <PUBCHEM_IUPAC_INCHIKEY>
FADCOUQPHXGWQS-ZCDXYYCTSA-N

> <PUBCHEM_XLOGP3_AA>
5.6

> <PUBCHEM_EXACT_MASS>
416.329045

> <PUBCHEM_MOLECULAR_FORMULA>
C27H44O3

> <PUBCHEM_MOLECULAR_WEIGHT>
416.63646

> <PUBCHEM_OPENEYE_CAN_SMILES>
CC(C)CCCC(C)C1CCC2(C1(CCC3C2=CC(=O)C4C3(CCC(C4)O)C)C)O

> <PUBCHEM_OPENEYE_ISO_SMILES>
C[C@H](CCCC(C)C)[C@H]1CC[C@@]2([C@@]1(CC[C@H]3C2=CC(=O)[C@H]4[C@@]3(CC[C@@H](C4)O)C)C)O

> <PUBCHEM_CACTVS_TPSA>
57.5

> <PUBCHEM_MONOISOTOPIC_WEIGHT>
416.329045

> <PUBCHEM_TOTAL_CHARGE>
0

> <PUBCHEM_HEAVY_ATOM_COUNT>
30

> <PUBCHEM_ATOM_DEF_STEREO_COUNT>
8

> <PUBCHEM_ATOM_UDEF_STEREO_COUNT>
0

> <PUBCHEM_BOND_DEF_STEREO_COUNT>
0

> <PUBCHEM_BOND_UDEF_STEREO_COUNT>
0

> <PUBCHEM_ISOTOPIC_ATOM_COUNT>
0

> <PUBCHEM_COMPONENT_COUNT>
1

> <PUBCHEM_CACTVS_TAUTO_COUNT>
5

> <PUBCHEM_COORDINATE_TYPE>
1
5
255

> <PUBCHEM_BONDANNOTATIONS>
5  1  6
14  41  5
15  25  6
23  3  5
4  16  5
6  31  6
7  32  6
8  20  5

$$$$

