5281910
  -OEChem-07051213012D

 72 71  0     1  0  0  0  0  0999 V2000
    7.7331    1.0950    0.0000 S   0  0  0  0  0  0  0  0  0  0  0  0
    6.8671    3.5950    0.0000 O   0  0  0  0  0  0  0  0  0  0  0  0
    2.5369    2.0950    0.0000 O   0  0  0  0  0  0  0  0  0  0  0  0
    3.4030    3.5950    0.0000 O   0  0  0  0  0  0  0  0  0  0  0  0
    7.7331   -1.9050    0.0000 O   0  0  0  0  0  0  0  0  0  0  0  0
    8.5991   -0.4050    0.0000 O   0  0  0  0  0  0  0  0  0  0  0  0
    6.8671   -2.4050    0.0000 O   0  0  0  0  0  0  0  0  0  0  0  0
    6.0010   -0.9050    0.0000 N   0  0  0  0  0  0  0  0  0  0  0  0
    6.8671    2.5950    0.0000 C   0  0  1  0  0  0  0  0  0  0  0  0
    6.0010    2.0950    0.0000 C   0  0  0  0  0  0  0  0  0  0  0  0
    7.7331    2.0950    0.0000 C   0  0  1  0  0  0  0  0  0  0  0  0
    5.1350    2.5950    0.0000 C   0  0  0  0  0  0  0  0  0  0  0  0
    4.2690    2.0950    0.0000 C   0  0  0  0  0  0  0  0  0  0  0  0
    8.5991    2.5950    0.0000 C   0  0  0  0  0  0  0  0  0  0  0  0
    6.8671    0.5950    0.0000 C   0  0  0  0  0  0  0  0  0  0  0  0
    6.8671   -0.4050    0.0000 C   0  0  3  0  0  0  0  0  0  0  0  0
    9.4651    2.0950    0.0000 C   0  0  0  0  0  0  0  0  0  0  0  0
   12.9292   -1.9050    0.0000 C   0  0  0  0  0  0  0  0  0  0  0  0
   12.0632   -2.4050    0.0000 C   0  0  0  0  0  0  0  0  0  0  0  0
    3.4030    2.5950    0.0000 C   0  0  0  0  0  0  0  0  0  0  0  0
   12.9292   -0.9050    0.0000 C   0  0  0  0  0  0  0  0  0  0  0  0
   12.0632   -3.4050    0.0000 C   0  0  0  0  0  0  0  0  0  0  0  0
    7.7331   -0.9050    0.0000 C   0  0  0  0  0  0  0  0  0  0  0  0
   10.3312    2.5950    0.0000 C   0  0  0  0  0  0  0  0  0  0  0  0
   13.7953   -0.4050    0.0000 C   0  0  0  0  0  0  0  0  0  0  0  0
   12.9292   -3.9050    0.0000 C   0  0  0  0  0  0  0  0  0  0  0  0
    6.0010   -1.9050    0.0000 C   0  0  0  0  0  0  0  0  0  0  0  0
   13.7953    0.5950    0.0000 C   0  0  0  0  0  0  0  0  0  0  0  0
   11.1972    2.0950    0.0000 C   0  0  0  0  0  0  0  0  0  0  0  0
   12.9292    1.0950    0.0000 C   0  0  0  0  0  0  0  0  0  0  0  0
    5.1350   -2.4050    0.0000 C   0  0  0  0  0  0  0  0  0  0  0  0
   12.0632    2.5950    0.0000 C   0  0  0  0  0  0  0  0  0  0  0  0
   12.9292    2.0950    0.0000 C   0  0  0  0  0  0  0  0  0  0  0  0
    6.3301    2.9050    0.0000 H   0  0  0  0  0  0  0  0  0  0  0  0
    5.6025    1.6200    0.0000 H   0  0  0  0  0  0  0  0  0  0  0  0
    6.3996    1.6200    0.0000 H   0  0  0  0  0  0  0  0  0  0  0  0
    8.2700    1.7850    0.0000 H   0  0  0  0  0  0  0  0  0  0  0  0
    5.5335    3.0700    0.0000 H   0  0  0  0  0  0  0  0  0  0  0  0
    4.7365    3.0700    0.0000 H   0  0  0  0  0  0  0  0  0  0  0  0
    3.8705    1.6200    0.0000 H   0  0  0  0  0  0  0  0  0  0  0  0
    4.6675    1.6200    0.0000 H   0  0  0  0  0  0  0  0  0  0  0  0
    8.5991    3.2150    0.0000 H   0  0  0  0  0  0  0  0  0  0  0  0
    6.6550    1.1776    0.0000 H   0  0  0  0  0  0  0  0  0  0  0  0
    6.2565    0.4873    0.0000 H   0  0  0  0  0  0  0  0  0  0  0  0
    6.3301   -0.0950    0.0000 H   0  0  0  0  0  0  0  0  0  0  0  0
    6.3301    3.9050    0.0000 H   0  0  0  0  0  0  0  0  0  0  0  0
    9.4651    1.4750    0.0000 H   0  0  0  0  0  0  0  0  0  0  0  0
   13.1413   -2.4876    0.0000 H   0  0  0  0  0  0  0  0  0  0  0  0
   13.5398   -1.7973    0.0000 H   0  0  0  0  0  0  0  0  0  0  0  0
   11.8512   -1.8224    0.0000 H   0  0  0  0  0  0  0  0  0  0  0  0
   11.4526   -2.5127    0.0000 H   0  0  0  0  0  0  0  0  0  0  0  0
    5.4641   -0.5950    0.0000 H   0  0  0  0  0  0  0  0  0  0  0  0
   12.7172   -0.3224    0.0000 H   0  0  0  0  0  0  0  0  0  0  0  0
   12.3187   -1.0127    0.0000 H   0  0  0  0  0  0  0  0  0  0  0  0
   11.4526   -3.2973    0.0000 H   0  0  0  0  0  0  0  0  0  0  0  0
   11.8512   -3.9876    0.0000 H   0  0  0  0  0  0  0  0  0  0  0  0
   10.3312    3.2150    0.0000 H   0  0  0  0  0  0  0  0  0  0  0  0
   14.3322   -0.7150    0.0000 H   0  0  0  0  0  0  0  0  0  0  0  0
   12.6192   -4.4419    0.0000 H   0  0  0  0  0  0  0  0  0  0  0  0
   13.4662   -4.2150    0.0000 H   0  0  0  0  0  0  0  0  0  0  0  0
   13.2392   -3.3681    0.0000 H   0  0  0  0  0  0  0  0  0  0  0  0
   14.3322    0.9050    0.0000 H   0  0  0  0  0  0  0  0  0  0  0  0
   11.1972    1.4750    0.0000 H   0  0  0  0  0  0  0  0  0  0  0  0
    2.0000    2.4050    0.0000 H   0  0  0  0  0  0  0  0  0  0  0  0
   12.3187    1.2027    0.0000 H   0  0  0  0  0  0  0  0  0  0  0  0
   12.7172    0.5124    0.0000 H   0  0  0  0  0  0  0  0  0  0  0  0
    4.8250   -1.8681    0.0000 H   0  0  0  0  0  0  0  0  0  0  0  0
    4.5981   -2.7150    0.0000 H   0  0  0  0  0  0  0  0  0  0  0  0
    5.4450   -2.9419    0.0000 H   0  0  0  0  0  0  0  0  0  0  0  0
    8.2700   -2.2150    0.0000 H   0  0  0  0  0  0  0  0  0  0  0  0
   12.0632    3.2150    0.0000 H   0  0  0  0  0  0  0  0  0  0  0  0
   13.4662    2.4050    0.0000 H   0  0  0  0  0  0  0  0  0  0  0  0
  1 11  1  0  0  0  0
  1 15  1  0  0  0  0
  9  2  1  6  0  0  0
  2 46  1  0  0  0  0
  3 20  1  0  0  0  0
  3 64  1  0  0  0  0
  4 20  2  0  0  0  0
  5 23  1  0  0  0  0
  5 70  1  0  0  0  0
  6 23  2  0  0  0  0
  7 27  2  0  0  0  0
  8 16  1  0  0  0  0
  8 27  1  0  0  0  0
  8 52  1  0  0  0  0
  9 10  1  0  0  0  0
  9 11  1  0  0  0  0
  9 34  1  0  0  0  0
 10 12  1  0  0  0  0
 10 35  1  0  0  0  0
 10 36  1  0  0  0  0
 11 14  1  1  0  0  0
 11 37  1  0  0  0  0
 12 13  1  0  0  0  0
 12 38  1  0  0  0  0
 12 39  1  0  0  0  0
 13 20  1  0  0  0  0
 13 40  1  0  0  0  0
 13 41  1  0  0  0  0
 14 17  2  0  0  0  0
 14 42  1  0  0  0  0
 15 16  1  0  0  0  0
 15 43  1  0  0  0  0
 15 44  1  0  0  0  0
 16 23  1  0  0  0  0
 16 45  1  0  0  0  0
 17 24  1  0  0  0  0
 17 47  1  0  0  0  0
 18 19  1  0  0  0  0
 18 21  1  0  0  0  0
 18 48  1  0  0  0  0
 18 49  1  0  0  0  0
 19 22  1  0  0  0  0
 19 50  1  0  0  0  0
 19 51  1  0  0  0  0
 21 25  1  0  0  0  0
 21 53  1  0  0  0  0
 21 54  1  0  0  0  0
 22 26  1  0  0  0  0
 22 55  1  0  0  0  0
 22 56  1  0  0  0  0
 24 29  2  0  0  0  0
 24 57  1  0  0  0  0
 25 28  2  0  0  0  0
 25 58  1  0  0  0  0
 26 59  1  0  0  0  0
 26 60  1  0  0  0  0
 26 61  1  0  0  0  0
 27 31  1  0  0  0  0
 28 30  1  0  0  0  0
 28 62  1  0  0  0  0
 29 32  1  0  0  0  0
 29 63  1  0  0  0  0
 30 33  1  0  0  0  0
 30 65  1  0  0  0  0
 30 66  1  0  0  0  0
 31 67  1  0  0  0  0
 31 68  1  0  0  0  0
 31 69  1  0  0  0  0
 32 33  2  0  0  0  0
 32 71  1  0  0  0  0
 33 72  1  0  0  0  0
M  END
> <PUBCHEM_COMPOUND_CID>
5281910

> <PUBCHEM_COMPOUND_CANONICALIZED>
1

> <PUBCHEM_CACTVS_COMPLEXITY>
686

> <PUBCHEM_CACTVS_HBOND_ACCEPTOR>
7

> <PUBCHEM_CACTVS_HBOND_DONOR>
4

> <PUBCHEM_CACTVS_ROTATABLE_BOND>
19

> <PUBCHEM_CACTVS_SUBSKEYS>
AAADcfB6OABAAAAAAAAAAAAAAAAAAAAAAAAAAAAAAAAAAAAAAAAAHgQQCAAACDzlwAaCCALAAgiIACHSGAAAAAAgABAICIGIAAgKEBIgASAAQAAE1gC4gAOI7CTAAAAAAAAAAAAAAAAAAAAAAAAAAAAAAA==

> <PUBCHEM_IUPAC_OPENEYE_NAME>
(5S,6R,7E,9E,11Z,14Z)-6-(2-acetamido-2-carboxy-ethyl)sulfanyl-5-hydroxy-icosa-7,9,11,14-tetraenoic acid

> <PUBCHEM_IUPAC_CAS_NAME>
(5S,6R,7E,9E,11Z,14Z)-6-[(2-acetamido-2-carboxyethyl)thio]-5-hydroxyeicosa-7,9,11,14-tetraenoic acid

> <PUBCHEM_IUPAC_NAME>
(5S,6R,7E,9E,11Z,14Z)-6-(2-acetamido-2-carboxyethyl)sulfanyl-5-hydroxyicosa-7,9,11,14-tetraenoic acid

> <PUBCHEM_IUPAC_SYSTEMATIC_NAME>
(5S,6R,7E,9E,11Z,14Z)-6-(2-acetamido-3-oxidanyl-3-oxidanylidene-propyl)sulfanyl-5-oxidanyl-icosa-7,9,11,14-tetraenoic acid

> <PUBCHEM_IUPAC_TRADITIONAL_NAME>
(5S,6R,7E,9E,11Z,14Z)-6-[(2-acetamido-2-carboxy-ethyl)thio]-5-hydroxy-eicosa-7,9,11,14-tetraenoic acid

> <PUBCHEM_IUPAC_INCHI>
InChI=1S/C25H39NO6S/c1-3-4-5-6-7-8-9-10-11-12-13-14-17-23(22(28)16-15-18-24(29)30)33-19-21(25(31)32)26-20(2)27/h7-8,10-14,17,21-23,28H,3-6,9,15-16,18-19H2,1-2H3,(H,26,27)(H,29,30)(H,31,32)/b8-7-,11-10-,13-12+,17-14+/t21?,22-,23+/m0/s1

> <PUBCHEM_IUPAC_INCHIKEY>
BGGYAYMMFYBWEX-PJEAHERNSA-N

> <PUBCHEM_XLOGP3_AA>
4.6

> <PUBCHEM_EXACT_MASS>
481.249809

> <PUBCHEM_MOLECULAR_FORMULA>
C25H39NO6S

> <PUBCHEM_MOLECULAR_WEIGHT>
481.64526

> <PUBCHEM_OPENEYE_CAN_SMILES>
CCCCCC=CCC=CC=CC=CC(C(CCCC(=O)O)O)SCC(C(=O)O)NC(=O)C

> <PUBCHEM_OPENEYE_ISO_SMILES>
CCCCC/C=C\C/C=C\C=C\C=C\[C@H]([C@H](CCCC(=O)O)O)SCC(C(=O)O)NC(=O)C

> <PUBCHEM_CACTVS_TPSA>
149

> <PUBCHEM_MONOISOTOPIC_WEIGHT>
481.249809

> <PUBCHEM_TOTAL_CHARGE>
0

> <PUBCHEM_HEAVY_ATOM_COUNT>
33

> <PUBCHEM_ATOM_DEF_STEREO_COUNT>
2

> <PUBCHEM_ATOM_UDEF_STEREO_COUNT>
1

> <PUBCHEM_BOND_DEF_STEREO_COUNT>
4

> <PUBCHEM_BOND_UDEF_STEREO_COUNT>
0

> <PUBCHEM_ISOTOPIC_ATOM_COUNT>
0

> <PUBCHEM_COMPONENT_COUNT>
1

> <PUBCHEM_CACTVS_TAUTO_COUNT>
2

> <PUBCHEM_COORDINATE_TYPE>
1
5
255

> <PUBCHEM_BONDANNOTATIONS>
11  14  5
16  15  3
9  2  6

$$$$

