442377
  -OEChem-07051212582D

 51 53  0     1  0  0  0  0  0999 V2000
    3.8000   -2.8940    0.0000 O   0  0  0  0  0  0  0  0  0  0  0  0
    4.6660    0.6060    0.0000 O   0  0  0  0  0  0  0  0  0  0  0  0
    6.4783   -2.1988    0.0000 O   0  0  0  0  0  0  0  0  0  0  0  0
    6.1660    1.4720    0.0000 O   0  0  0  0  0  0  0  0  0  0  0  0
    3.8000   -0.8940    0.0000 C   0  0  1  0  0  0  0  0  0  0  0  0
    3.8000   -1.8940    0.0000 C   0  0  1  0  0  0  0  0  0  0  0  0
    2.9061   -0.3594    0.0000 C   0  0  2  0  0  0  0  0  0  0  0  0
    4.6660   -0.3940    0.0000 C   0  0  1  0  0  0  0  0  0  0  0  0
    2.9061   -2.4287    0.0000 C   0  0  0  0  0  0  0  0  0  0  0  0
    2.0000   -0.8732    0.0000 C   0  0  0  0  0  0  0  0  0  0  0  0
    4.6660   -2.3940    0.0000 C   0  0  0  0  0  0  0  0  0  0  0  0
    2.0000   -1.9148    0.0000 C   0  0  0  0  0  0  0  0  0  0  0  0
    3.8000    0.1060    0.0000 C   0  0  0  0  0  0  0  0  0  0  0  0
    5.5321   -0.8940    0.0000 C   0  0  0  0  0  0  0  0  0  0  0  0
    5.5321   -1.8940    0.0000 C   0  0  0  0  0  0  0  0  0  0  0  0
    2.9176    0.6406    0.0000 C   0  0  0  0  0  0  0  0  0  0  0  0
    6.4783   -0.5893    0.0000 C   0  0  0  0  0  0  0  0  0  0  0  0
    7.0619   -1.3940    0.0000 C   0  0  0  0  0  0  0  0  0  0  0  0
    7.2226    0.0785    0.0000 C   0  0  0  0  0  0  0  0  0  0  0  0
    5.1660    1.4720    0.0000 C   0  0  0  0  0  0  0  0  0  0  0  0
    4.6660    2.3380    0.0000 C   0  0  0  0  0  0  0  0  0  0  0  0
    5.1660    3.2040    0.0000 C   0  0  0  0  0  0  0  0  0  0  0  0
    3.6660    2.3380    0.0000 C   0  0  0  0  0  0  0  0  0  0  0  0
    2.3721   -0.0442    0.0000 H   0  0  0  0  0  0  0  0  0  0  0  0
    5.2030   -0.0840    0.0000 H   0  0  0  0  0  0  0  0  0  0  0  0
    2.5124   -2.9077    0.0000 H   0  0  0  0  0  0  0  0  0  0  0  0
    3.3107   -2.8985    0.0000 H   0  0  0  0  0  0  0  0  0  0  0  0
    1.7909   -0.2895    0.0000 H   0  0  0  0  0  0  0  0  0  0  0  0
    1.3891   -0.9793    0.0000 H   0  0  0  0  0  0  0  0  0  0  0  0
    4.2675   -2.8690    0.0000 H   0  0  0  0  0  0  0  0  0  0  0  0
    5.0646   -2.8690    0.0000 H   0  0  0  0  0  0  0  0  0  0  0  0
    1.3891   -1.8088    0.0000 H   0  0  0  0  0  0  0  0  0  0  0  0
    1.7909   -2.4986    0.0000 H   0  0  0  0  0  0  0  0  0  0  0  0
    4.4200    0.1060    0.0000 H   0  0  0  0  0  0  0  0  0  0  0  0
    3.8000    0.7260    0.0000 H   0  0  0  0  0  0  0  0  0  0  0  0
    3.1800    0.1060    0.0000 H   0  0  0  0  0  0  0  0  0  0  0  0
    3.5376    0.6334    0.0000 H   0  0  0  0  0  0  0  0  0  0  0  0
    2.9248    1.2605    0.0000 H   0  0  0  0  0  0  0  0  0  0  0  0
    2.2977    0.6477    0.0000 H   0  0  0  0  0  0  0  0  0  0  0  0
    3.2631   -3.2040    0.0000 H   0  0  0  0  0  0  0  0  0  0  0  0
    7.6819   -1.3940    0.0000 H   0  0  0  0  0  0  0  0  0  0  0  0
    7.6366   -0.3829    0.0000 H   0  0  0  0  0  0  0  0  0  0  0  0
    7.6840    0.4926    0.0000 H   0  0  0  0  0  0  0  0  0  0  0  0
    6.8085    0.5400    0.0000 H   0  0  0  0  0  0  0  0  0  0  0  0
    5.2860    2.3380    0.0000 H   0  0  0  0  0  0  0  0  0  0  0  0
    5.7030    2.8940    0.0000 H   0  0  0  0  0  0  0  0  0  0  0  0
    5.4760    3.7410    0.0000 H   0  0  0  0  0  0  0  0  0  0  0  0
    4.6291    3.5140    0.0000 H   0  0  0  0  0  0  0  0  0  0  0  0
    3.6660    2.9580    0.0000 H   0  0  0  0  0  0  0  0  0  0  0  0
    3.0460    2.3380    0.0000 H   0  0  0  0  0  0  0  0  0  0  0  0
    3.6660    1.7180    0.0000 H   0  0  0  0  0  0  0  0  0  0  0  0
  6  1  1  6  0  0  0
  1 40  1  0  0  0  0
  8  2  1  6  0  0  0
  2 20  1  0  0  0  0
  3 15  1  0  0  0  0
  3 18  1  0  0  0  0
  4 20  2  0  0  0  0
  5  6  1  0  0  0  0
  5  7  1  0  0  0  0
  5  8  1  0  0  0  0
  5 13  1  6  0  0  0
  6  9  1  0  0  0  0
  6 11  1  0  0  0  0
  7 10  1  0  0  0  0
  7 16  1  6  0  0  0
  7 24  1  0  0  0  0
  8 14  1  0  0  0  0
  8 25  1  0  0  0  0
  9 12  1  0  0  0  0
  9 26  1  0  0  0  0
  9 27  1  0  0  0  0
 10 12  1  0  0  0  0
 10 28  1  0  0  0  0
 10 29  1  0  0  0  0
 11 15  1  0  0  0  0
 11 30  1  0  0  0  0
 11 31  1  0  0  0  0
 12 32  1  0  0  0  0
 12 33  1  0  0  0  0
 13 34  1  0  0  0  0
 13 35  1  0  0  0  0
 13 36  1  0  0  0  0
 14 15  2  0  0  0  0
 14 17  1  0  0  0  0
 16 37  1  0  0  0  0
 16 38  1  0  0  0  0
 16 39  1  0  0  0  0
 17 18  2  0  0  0  0
 17 19  1  0  0  0  0
 18 41  1  0  0  0  0
 19 42  1  0  0  0  0
 19 43  1  0  0  0  0
 19 44  1  0  0  0  0
 20 21  1  0  0  0  0
 21 22  1  0  0  0  0
 21 23  1  0  0  0  0
 21 45  1  0  0  0  0
 22 46  1  0  0  0  0
 22 47  1  0  0  0  0
 22 48  1  0  0  0  0
 23 49  1  0  0  0  0
 23 50  1  0  0  0  0
 23 51  1  0  0  0  0
M  END
> <PUBCHEM_COMPOUND_CID>
442377

> <PUBCHEM_COMPOUND_CANONICALIZED>
1

> <PUBCHEM_CACTVS_COMPLEXITY>
476

> <PUBCHEM_CACTVS_HBOND_ACCEPTOR>
4

> <PUBCHEM_CACTVS_HBOND_DONOR>
1

> <PUBCHEM_CACTVS_ROTATABLE_BOND>
3

> <PUBCHEM_CACTVS_SUBSKEYS>
AAADceB4OAAAAAAAAAAAAAAAAAAAASAAAAAwYAAAAAAAAEjBgAAAGgAACAAAD1SgmAIiDIAABkCIAojSiAACCAAkIAAAiAEECMgMJzaENRqCWSCl4BEIqQfK7PzPgAAAAAAAAADAAAYQADAAAAAAAAAAAA==

> <PUBCHEM_IUPAC_OPENEYE_NAME>
[(4S,4aS,5S,8aS)-8a-hydroxy-3,4a,5-trimethyl-4,5,6,7,8,9-hexahydrobenzo[f]benzofuran-4-yl] 2-methylpropanoate

> <PUBCHEM_IUPAC_CAS_NAME>
2-methylpropanoic acid [(4S,4aS,5S,8aS)-8a-hydroxy-3,4a,5-trimethyl-4,5,6,7,8,9-hexahydrobenzo[f]benzofuran-4-yl] ester

> <PUBCHEM_IUPAC_NAME>
[(4S,4aS,5S,8aS)-8a-hydroxy-3,4a,5-trimethyl-4,5,6,7,8,9-hexahydrobenzo[f][1]benzofuran-4-yl] 2-methylpropanoate

> <PUBCHEM_IUPAC_SYSTEMATIC_NAME>
[(4S,4aS,5S,8aS)-3,4a,5-trimethyl-8a-oxidanyl-4,5,6,7,8,9-hexahydrobenzo[f][1]benzofuran-4-yl] 2-methylpropanoate

> <PUBCHEM_IUPAC_TRADITIONAL_NAME>
2-methylpropionic acid [(4S,4aS,5S,8aS)-8a-hydroxy-3,4a,5-trimethyl-4,5,6,7,8,9-hexahydrobenzo[f]benzofuran-4-yl] ester

> <PUBCHEM_IUPAC_INCHI>
InChI=1S/C19H28O4/c1-11(2)17(20)23-16-15-12(3)10-22-14(15)9-19(21)8-6-7-13(4)18(16,19)5/h10-11,13,16,21H,6-9H2,1-5H3/t13-,16+,18-,19-/m0/s1

> <PUBCHEM_IUPAC_INCHIKEY>
WWBNAQLGGJMUOJ-BIGGFVEDSA-N

> <PUBCHEM_XLOGP3_AA>
3.9

> <PUBCHEM_EXACT_MASS>
320.198759

> <PUBCHEM_MOLECULAR_FORMULA>
C19H28O4

> <PUBCHEM_MOLECULAR_WEIGHT>
320.42322

> <PUBCHEM_OPENEYE_CAN_SMILES>
CC1CCCC2(C1(C(C3=C(C2)OC=C3C)OC(=O)C(C)C)C)O

> <PUBCHEM_OPENEYE_ISO_SMILES>
C[C@H]1CCC[C@]2([C@@]1([C@@H](C3=C(C2)OC=C3C)OC(=O)C(C)C)C)O

> <PUBCHEM_CACTVS_TPSA>
59.7

> <PUBCHEM_MONOISOTOPIC_WEIGHT>
320.198759

> <PUBCHEM_TOTAL_CHARGE>
0

> <PUBCHEM_HEAVY_ATOM_COUNT>
23

> <PUBCHEM_ATOM_DEF_STEREO_COUNT>
4

> <PUBCHEM_ATOM_UDEF_STEREO_COUNT>
0

> <PUBCHEM_BOND_DEF_STEREO_COUNT>
0

> <PUBCHEM_BOND_UDEF_STEREO_COUNT>
0

> <PUBCHEM_ISOTOPIC_ATOM_COUNT>
0

> <PUBCHEM_COMPONENT_COUNT>
1

> <PUBCHEM_CACTVS_TAUTO_COUNT>
1

> <PUBCHEM_COORDINATE_TYPE>
1
5
255

> <PUBCHEM_BONDANNOTATIONS>
6  1  6
14  15  8
14  17  8
17  18  8
8  2  6
3  15  8
3  18  8
5  13  6
7  16  6

$$$$

