21122662
  -OEChem-07051212452D

 99100  0     1  0  0  0  0  0999 V2000
    7.7331  -11.4320    0.0000 O   0  0  0  0  0  0  0  0  0  0  0  0
    5.1350  -11.9320    0.0000 O   0  0  0  0  0  0  0  0  0  0  0  0
    8.5991   -9.9320    0.0000 O   0  0  0  0  0  0  0  0  0  0  0  0
    6.8671  -11.9320    0.0000 O   0  0  0  0  0  0  0  0  0  0  0  0
    6.8671   -6.9320    0.0000 O   0  0  0  0  0  0  0  0  0  0  0  0
    2.5369  -10.4320    0.0000 O   0  0  0  0  0  0  0  0  0  0  0  0
    3.4030   -8.9320    0.0000 O   0  0  0  0  0  0  0  0  0  0  0  0
    6.8671   -5.9320    0.0000 O   0  0  0  0  0  0  0  0  0  0  0  0
    7.7331   -4.4320    0.0000 O   0  0  0  0  0  0  0  0  0  0  0  0
   11.1972   -4.4320    0.0000 O   0  0  0  0  0  0  0  0  0  0  0  0
   12.0632   -3.9320    0.0000 O   0  0  0  0  0  0  0  0  0  0  0  0
   12.9292   -2.4320    0.0000 O   0  0  0  0  0  0  0  0  0  0  0  0
   11.1972    0.5680    0.0000 O   0  0  0  0  0  0  0  0  0  0  0  0
   13.7953    6.0680    0.0000 O   0  0  0  0  0  0  0  0  0  0  0  0
   14.1613    9.1069    0.0000 O   0  0  0  0  0  0  0  0  0  0  0  0
   15.5234   12.5520    0.0000 O   0  0  0  0  0  0  0  0  0  0  0  0
    8.5991   -6.9320    0.0000 N   0  0  0  0  0  0  0  0  0  0  0  0
   10.3312   -2.9320    0.0000 N   0  0  0  0  0  0  0  0  0  0  0  0
   12.9292    0.5680    0.0000 N   0  0  0  0  0  0  0  0  0  0  0  0
   15.3423   10.8294    0.0000 N   0  0  0  0  0  0  0  0  0  0  0  0
    6.8671   -9.9320    0.0000 C   0  0  3  0  0  0  0  0  0  0  0  0
    6.0010  -10.4320    0.0000 C   0  0  3  0  0  0  0  0  0  0  0  0
    6.8671   -8.9320    0.0000 C   0  0  0  0  0  0  0  0  0  0  0  0
    5.1350   -9.9320    0.0000 C   0  0  0  0  0  0  0  0  0  0  0  0
    7.7331   -8.4320    0.0000 C   0  0  0  0  0  0  0  0  0  0  0  0
    4.2690  -10.4320    0.0000 C   0  0  0  0  0  0  0  0  0  0  0  0
    7.7331  -10.4320    0.0000 C   0  0  0  0  0  0  0  0  0  0  0  0
    6.0010  -11.4320    0.0000 C   0  0  0  0  0  0  0  0  0  0  0  0
    7.7331   -7.4320    0.0000 C   0  0  0  0  0  0  0  0  0  0  0  0
    8.5991   -5.9320    0.0000 C   0  0  1  0  0  0  0  0  0  0  0  0
    9.4651   -5.4320    0.0000 C   0  0  0  0  0  0  0  0  0  0  0  0
    9.4651   -4.4320    0.0000 C   0  0  0  0  0  0  0  0  0  0  0  0
    3.4030   -9.9320    0.0000 C   0  0  0  0  0  0  0  0  0  0  0  0
   11.1972   -2.4320    0.0000 C   0  0  1  0  0  0  0  0  0  0  0  0
    7.7331   -5.4320    0.0000 C   0  0  0  0  0  0  0  0  0  0  0  0
   10.3312   -3.9320    0.0000 C   0  0  0  0  0  0  0  0  0  0  0  0
   11.1972   -1.4320    0.0000 C   0  0  0  0  0  0  0  0  0  0  0  0
   12.0632   -0.9320    0.0000 C   0  0  0  0  0  0  0  0  0  0  0  0
   12.0632   -2.9320    0.0000 C   0  0  0  0  0  0  0  0  0  0  0  0
   12.0632    0.0680    0.0000 C   0  0  0  0  0  0  0  0  0  0  0  0
   12.9292    1.5680    0.0000 C   0  0  0  0  0  0  0  0  0  0  0  0
   13.7953    2.0680    0.0000 C   0  0  0  0  0  0  0  0  0  0  0  0
   13.7953    3.0680    0.0000 C   0  0  0  0  0  0  0  0  0  0  0  0
   14.6613    3.5680    0.0000 C   0  0  0  0  0  0  0  0  0  0  0  0
   12.9292    3.5680    0.0000 C   0  0  0  0  0  0  0  0  0  0  0  0
   13.7953    5.0680    0.0000 C   0  0  0  0  0  0  0  0  0  0  0  0
   14.6613    4.5680    0.0000 C   0  0  0  0  0  0  0  0  0  0  0  0
   12.9292    4.5680    0.0000 C   0  0  0  0  0  0  0  0  0  0  0  0
   14.6613    6.5680    0.0000 C   0  0  0  0  0  0  0  0  0  0  0  0
   14.6613    7.5680    0.0000 C   0  0  0  0  0  0  0  0  0  0  0  0
   15.4703    8.1558    0.0000 C   0  0  0  0  0  0  0  0  0  0  0  0
   15.1613    9.1069    0.0000 C   0  0  0  0  0  0  0  0  0  0  0  0
   13.8523    8.1558    0.0000 C   0  0  0  0  0  0  0  0  0  0  0  0
   15.7491    9.9159    0.0000 C   0  0  0  0  0  0  0  0  0  0  0  0
   15.9301   11.6384    0.0000 C   0  0  0  0  0  0  0  0  0  0  0  0
    6.3301   -9.6220    0.0000 H   0  0  0  0  0  0  0  0  0  0  0  0
    6.5380  -10.7420    0.0000 H   0  0  0  0  0  0  0  0  0  0  0  0
    6.6550   -8.3494    0.0000 H   0  0  0  0  0  0  0  0  0  0  0  0
    6.2565   -9.0396    0.0000 H   0  0  0  0  0  0  0  0  0  0  0  0
    5.5335   -9.4570    0.0000 H   0  0  0  0  0  0  0  0  0  0  0  0
    4.7365   -9.4570    0.0000 H   0  0  0  0  0  0  0  0  0  0  0  0
    7.9451   -9.0146    0.0000 H   0  0  0  0  0  0  0  0  0  0  0  0
    8.3437   -8.3243    0.0000 H   0  0  0  0  0  0  0  0  0  0  0  0
    3.8705  -10.9069    0.0000 H   0  0  0  0  0  0  0  0  0  0  0  0
    4.6675  -10.9069    0.0000 H   0  0  0  0  0  0  0  0  0  0  0  0
    8.0622   -6.2420    0.0000 H   0  0  0  0  0  0  0  0  0  0  0  0
    9.1360   -7.2420    0.0000 H   0  0  0  0  0  0  0  0  0  0  0  0
    9.6772   -6.0146    0.0000 H   0  0  0  0  0  0  0  0  0  0  0  0
   10.0757   -5.3243    0.0000 H   0  0  0  0  0  0  0  0  0  0  0  0
    9.2531   -3.8494    0.0000 H   0  0  0  0  0  0  0  0  0  0  0  0
    8.8546   -4.5396    0.0000 H   0  0  0  0  0  0  0  0  0  0  0  0
    8.2700  -11.7420    0.0000 H   0  0  0  0  0  0  0  0  0  0  0  0
   10.6603   -2.1220    0.0000 H   0  0  0  0  0  0  0  0  0  0  0  0
    5.1350  -12.5520    0.0000 H   0  0  0  0  0  0  0  0  0  0  0  0
   10.9851   -0.8494    0.0000 H   0  0  0  0  0  0  0  0  0  0  0  0
   10.5866   -1.5396    0.0000 H   0  0  0  0  0  0  0  0  0  0  0  0
    9.7942   -2.6220    0.0000 H   0  0  0  0  0  0  0  0  0  0  0  0
   12.2753   -1.5146    0.0000 H   0  0  0  0  0  0  0  0  0  0  0  0
   12.6738   -0.8243    0.0000 H   0  0  0  0  0  0  0  0  0  0  0  0
    2.0000  -10.1220    0.0000 H   0  0  0  0  0  0  0  0  0  0  0  0
   12.7172    2.1506    0.0000 H   0  0  0  0  0  0  0  0  0  0  0  0
   12.3187    1.4604    0.0000 H   0  0  0  0  0  0  0  0  0  0  0  0
   13.4662    0.2580    0.0000 H   0  0  0  0  0  0  0  0  0  0  0  0
    6.3301   -5.6220    0.0000 H   0  0  0  0  0  0  0  0  0  0  0  0
   14.0073    1.4854    0.0000 H   0  0  0  0  0  0  0  0  0  0  0  0
   14.4058    2.1757    0.0000 H   0  0  0  0  0  0  0  0  0  0  0  0
   12.6002   -4.2420    0.0000 H   0  0  0  0  0  0  0  0  0  0  0  0
   15.1982    3.2580    0.0000 H   0  0  0  0  0  0  0  0  0  0  0  0
   12.3923    3.2580    0.0000 H   0  0  0  0  0  0  0  0  0  0  0  0
   15.1982    4.8780    0.0000 H   0  0  0  0  0  0  0  0  0  0  0  0
   12.3923    4.8780    0.0000 H   0  0  0  0  0  0  0  0  0  0  0  0
   14.8733    5.9854    0.0000 H   0  0  0  0  0  0  0  0  0  0  0  0
   15.2719    6.6757    0.0000 H   0  0  0  0  0  0  0  0  0  0  0  0
   16.0600    7.9642    0.0000 H   0  0  0  0  0  0  0  0  0  0  0  0
   13.2626    7.9642    0.0000 H   0  0  0  0  0  0  0  0  0  0  0  0
   16.1798    9.4699    0.0000 H   0  0  0  0  0  0  0  0  0  0  0  0
   16.2631   10.2626    0.0000 H   0  0  0  0  0  0  0  0  0  0  0  0
   14.7257   10.8942    0.0000 H   0  0  0  0  0  0  0  0  0  0  0  0
   16.5467   11.5736    0.0000 H   0  0  0  0  0  0  0  0  0  0  0  0
  1 27  1  0  0  0  0
  1 72  1  0  0  0  0
  2 28  1  0  0  0  0
  2 74  1  0  0  0  0
  3 27  2  0  0  0  0
  4 28  2  0  0  0  0
  5 29  2  0  0  0  0
  6 33  1  0  0  0  0
  6 80  1  0  0  0  0
  7 33  2  0  0  0  0
  8 35  1  0  0  0  0
  8 84  1  0  0  0  0
  9 35  2  0  0  0  0
 10 36  2  0  0  0  0
 11 39  1  0  0  0  0
 11 87  1  0  0  0  0
 12 39  2  0  0  0  0
 13 40  2  0  0  0  0
 14 46  1  0  0  0  0
 14 49  1  0  0  0  0
 15 52  1  0  0  0  0
 15 53  1  0  0  0  0
 16 55  2  0  0  0  0
 17 29  1  0  0  0  0
 30 17  1  6  0  0  0
 17 67  1  0  0  0  0
 34 18  1  1  0  0  0
 18 36  1  0  0  0  0
 18 77  1  0  0  0  0
 19 40  1  0  0  0  0
 19 41  1  0  0  0  0
 19 83  1  0  0  0  0
 20 54  1  0  0  0  0
 20 55  1  0  0  0  0
 20 98  1  0  0  0  0
 21 22  1  0  0  0  0
 21 23  1  0  0  0  0
 21 27  1  0  0  0  0
 21 56  1  0  0  0  0
 22 24  1  0  0  0  0
 22 28  1  0  0  0  0
 22 57  1  0  0  0  0
 23 25  1  0  0  0  0
 23 58  1  0  0  0  0
 23 59  1  0  0  0  0
 24 26  1  0  0  0  0
 24 60  1  0  0  0  0
 24 61  1  0  0  0  0
 25 29  1  0  0  0  0
 25 62  1  0  0  0  0
 25 63  1  0  0  0  0
 26 33  1  0  0  0  0
 26 64  1  0  0  0  0
 26 65  1  0  0  0  0
 30 31  1  0  0  0  0
 30 35  1  0  0  0  0
 30 66  1  0  0  0  0
 31 32  1  0  0  0  0
 31 68  1  0  0  0  0
 31 69  1  0  0  0  0
 32 36  1  0  0  0  0
 32 70  1  0  0  0  0
 32 71  1  0  0  0  0
 34 37  1  0  0  0  0
 34 39  1  0  0  0  0
 34 73  1  0  0  0  0
 37 38  1  0  0  0  0
 37 75  1  0  0  0  0
 37 76  1  0  0  0  0
 38 40  1  0  0  0  0
 38 78  1  0  0  0  0
 38 79  1  0  0  0  0
 41 42  1  0  0  0  0
 41 81  1  0  0  0  0
 41 82  1  0  0  0  0
 42 43  1  0  0  0  0
 42 85  1  0  0  0  0
 42 86  1  0  0  0  0
 43 44  2  0  0  0  0
 43 45  1  0  0  0  0
 44 47  1  0  0  0  0
 44 88  1  0  0  0  0
 45 48  2  0  0  0  0
 45 89  1  0  0  0  0
 46 47  2  0  0  0  0
 46 48  1  0  0  0  0
 47 90  1  0  0  0  0
 48 91  1  0  0  0  0
 49 50  1  0  0  0  0
 49 92  1  0  0  0  0
 49 93  1  0  0  0  0
 50 51  1  0  0  0  0
 50 53  2  0  0  0  0
 51 52  2  0  0  0  0
 51 94  1  0  0  0  0
 52 54  1  0  0  0  0
 53 95  1  0  0  0  0
 54 96  1  0  0  0  0
 54 97  1  0  0  0  0
 55 99  1  0  0  0  0
M  END
> <PUBCHEM_COMPOUND_CID>
21122662

> <PUBCHEM_COMPOUND_CANONICALIZED>
1

> <PUBCHEM_CACTVS_COMPLEXITY>
1340

> <PUBCHEM_CACTVS_HBOND_ACCEPTOR>
16

> <PUBCHEM_CACTVS_HBOND_DONOR>
9

> <PUBCHEM_CACTVS_ROTATABLE_BOND>
27

> <PUBCHEM_CACTVS_SUBSKEYS>
AAADcfB/vgAAAAAAAAAAAAAAAAAAASAAAAAwAAAAAAAAAAABwAAAHgAQCAAADSzhmAYwDoLABkCIAqnSmACCCAAkIAAIiIGODMgOJzaEtTuHeSjl9hGYqYff/7KOoAAAAAAAAABAAAAAAAAAAAAAAAAAAA==

> <PUBCHEM_IUPAC_OPENEYE_NAME>
7-[[(1S)-1-carboxy-4-[[(1S)-1-carboxy-4-[2-[4-[[5-(formamidomethyl)-3-furyl]methoxy]phenyl]ethylamino]-4-oxo-butyl]amino]-4-oxo-butyl]amino]-7-oxo-heptane-1,3,4-tricarboxylic acid

> <PUBCHEM_IUPAC_CAS_NAME>
7-[[(1S)-1-carboxy-4-[[(1S)-1-carboxy-4-[2-[4-[[5-(formamidomethyl)-3-furanyl]methoxy]phenyl]ethylamino]-4-oxobutyl]amino]-4-oxobutyl]amino]-7-oxoheptane-1,3,4-tricarboxylic acid

> <PUBCHEM_IUPAC_NAME>
7-[[(1S)-1-carboxy-4-[[(1S)-1-carboxy-4-[2-[4-[[5-(formamidomethyl)furan-3-yl]methoxy]phenyl]ethylamino]-4-oxobutyl]amino]-4-oxobutyl]amino]-7-oxoheptane-1,3,4-tricarboxylic acid

> <PUBCHEM_IUPAC_SYSTEMATIC_NAME>
7-[[(2S)-5-[[(2S)-5-[2-[4-[[5-(formamidomethyl)furan-3-yl]methoxy]phenyl]ethylamino]-1-oxidanyl-1,5-bis(oxidanylidene)pentan-2-yl]amino]-1-oxidanyl-1,5-bis(oxidanylidene)pentan-2-yl]amino]-7-oxidanylidene-heptane-1,3,4-tricarboxylic acid

> <PUBCHEM_IUPAC_TRADITIONAL_NAME>
7-[[(1S)-1-carboxy-4-[[(1S)-1-carboxy-4-[2-[4-[[5-(formamidomethyl)-3-furyl]methoxy]phenyl]ethylamino]-4-keto-butyl]amino]-4-keto-butyl]amino]-7-keto-heptane-1,3,4-tricarboxylic acid

> <PUBCHEM_IUPAC_INCHI>
InChI=1S/C35H44N4O16/c40-19-36-16-23-15-21(18-55-23)17-54-22-3-1-20(2-4-22)13-14-37-28(41)10-7-26(34(50)51)39-30(43)11-8-27(35(52)53)38-29(42)9-5-24(32(46)47)25(33(48)49)6-12-31(44)45/h1-4,15,18-19,24-27H,5-14,16-17H2,(H,36,40)(H,37,41)(H,38,42)(H,39,43)(H,44,45)(H,46,47)(H,48,49)(H,50,51)(H,52,53)/t24?,25?,26-,27-/m0/s1

> <PUBCHEM_IUPAC_INCHIKEY>
RGBIJPWAWLXPOC-NBAFEDJBSA-N

> <PUBCHEM_XLOGP3_AA>
-1.1

> <PUBCHEM_EXACT_MASS>
776.275231

> <PUBCHEM_MOLECULAR_FORMULA>
C35H44N4O16

> <PUBCHEM_MOLECULAR_WEIGHT>
776.74106

> <PUBCHEM_OPENEYE_CAN_SMILES>
C1=CC(=CC=C1CCNC(=O)CCC(C(=O)O)NC(=O)CCC(C(=O)O)NC(=O)CCC(C(CCC(=O)O)C(=O)O)C(=O)O)OCC2=COC(=C2)CNC=O

> <PUBCHEM_OPENEYE_ISO_SMILES>
C1=CC(=CC=C1CCNC(=O)CC[C@@H](C(=O)O)NC(=O)CC[C@@H](C(=O)O)NC(=O)CCC(C(CCC(=O)O)C(=O)O)C(=O)O)OCC2=COC(=C2)CNC=O

> <PUBCHEM_CACTVS_TPSA>
325

> <PUBCHEM_MONOISOTOPIC_WEIGHT>
776.275231

> <PUBCHEM_TOTAL_CHARGE>
0

> <PUBCHEM_HEAVY_ATOM_COUNT>
55

> <PUBCHEM_ATOM_DEF_STEREO_COUNT>
2

> <PUBCHEM_ATOM_UDEF_STEREO_COUNT>
2

> <PUBCHEM_BOND_DEF_STEREO_COUNT>
0

> <PUBCHEM_BOND_UDEF_STEREO_COUNT>
0

> <PUBCHEM_ISOTOPIC_ATOM_COUNT>
0

> <PUBCHEM_COMPONENT_COUNT>
1

> <PUBCHEM_CACTVS_TAUTO_COUNT>
16

> <PUBCHEM_COORDINATE_TYPE>
1
5
255

> <PUBCHEM_BONDANNOTATIONS>
15  52  8
15  53  8
30  17  6
34  18  5
21  23  3
22  24  3
43  44  8
43  45  8
44  47  8
45  48  8
46  47  8
46  48  8
50  51  8
50  53  8
51  52  8

$$$$

