   Color/Form

     * Needles from ether
     * Colorless solid (needles).

   from [1]HSDB

   Melting Point
        67-68 deg C
   from [2]HSDB

   Dissociation Constants
        pKa = 5.15 (est)
   from [3]HSDB

   Octanol/Water Partition Coefficient
        log Kow = -0.31 (est)
   from [4]HSDB

   Solubilities
        Soluble in alcohol, hot ether; slightly soluble in DMSO
   from [5]HSDB

   Spectral Properties

     * Max absorption: 635 nm, 587 nm, 545 nm and 511 nmM
     * IR: 2971 (Sadtler Research Laboratories Prism Collection)
     * NMR: 10617 (Sadtler Research Laboratories Spectral Collection)
     * MASS: 67761 (NIST/EPA/MSDC Mass Spectral database, 1990 version)

   from [6]HSDB

   Vapor Pressure
        0.047 mm Hg at 25 deg C (est)
   from [7]HSDB

   Other Chemical/Physical Properties

     * Crystalline powder. MW: 211.07. Soluble in water. /Dihydrochloride/
     * Henry's Law constant = 7.2X10-10 atm-cu cm/molat 25 det C (est)
     * Hydroxyl radical reaction rate constant = 2.0X10-13 cu cm/molec-sec
       at 25 deg C (est)

   from [8]HSDB

   Computed Properties
   Molecular Weight                  138.1671 [g/mol]
   Molecular Formula                 C[7]H[10]N[2]O
   XLogP3                            0.5
   H-Bond Donor                      2
   H-Bond Acceptor                   3
   Rotatable Bond Count              1
   Exact Mass                        138.079313
   MonoIsotopic Mass                 138.079313
   Topological Polar Surface Area    61.3
   Heavy Atom Count                  10
   Formal Charge                     0
   Complexity                        108
   Isotope Atom Count                0
   Defined Atom Stereocenter Count   0
   Undefined Atom Stereocenter Count 0
   Defined Bond Stereocenter Count   0
   Undefined Bond Stereocenter Count 0
   Covalently-Bonded Unit Count      1
   Feature 3D Acceptor Count         1
   Feature 3D Donor Count            2
   Feature 3D Cation Count           2
   Feature 3D Ring Count             1
   Effective Rotor Count             1
   Conformer Sampling RMSD           0.4
   CID Conformer Count               [9]3

References

   1. http://toxnet.nlm.nih.gov/cgi-bin/sis/search/r?dbs+hsdb:@term+@rn+@rel+615-05-4
   2. http://toxnet.nlm.nih.gov/cgi-bin/sis/search/r?dbs+hsdb:@term+@rn+@rel+615-05-4
   3. http://toxnet.nlm.nih.gov/cgi-bin/sis/search/r?dbs+hsdb:@term+@rn+@rel+615-05-4
   4. http://toxnet.nlm.nih.gov/cgi-bin/sis/search/r?dbs+hsdb:@term+@rn+@rel+615-05-4
   5. http://toxnet.nlm.nih.gov/cgi-bin/sis/search/r?dbs+hsdb:@term+@rn+@rel+615-05-4
   6. http://toxnet.nlm.nih.gov/cgi-bin/sis/search/r?dbs+hsdb:@term+@rn+@rel+615-05-4
   7. http://toxnet.nlm.nih.gov/cgi-bin/sis/search/r?dbs+hsdb:@term+@rn+@rel+615-05-4
   8. http://toxnet.nlm.nih.gov/cgi-bin/sis/search/r?dbs+hsdb:@term+@rn+@rel+615-05-4
   9. http://pubchem.ncbi.nlm.nih.gov/vw3d/vw3d.cgi?cid=11976
