   Color/Form

     * Colorless ... gas at ordinary room temp and pressure; liquid below
       12 deg C
     * Colorless gas or liquid (below 51 degrees F) ...

   from [1]HSDB

   Odor

     * Sweet
     * Reminiscent of bruised apples
     * ... Ether-like odor

   from [2]HSDB

   Boiling Point
        10.6 deg C
   from [3]HSDB

   Melting Point
        -111.7 deg C
   from [4]HSDB

   Critical Temperature and Pressure
        Critical temperature = 469.15 K; Critical pressure = 7.1941X10+6
   Pa
   from [5]HSDB

   Density/Specific Gravity
        0.882 at 10 deg C/10 deg C
   from [6]HSDB

   Heat of Combustion
        1280.9 kJ/mol (liquid); 1306.1 kJ/mol (gas)
   from [7]HSDB

   Heat of Vaporization
        24.75 kJ/mol at 25 deg C
   from [8]HSDB

   Octanol/Water Partition Coefficient
        log Kow = -0.30
   from [9]HSDB

   Solubilities

     * Soluble in benzene, acetone, ethanol, ether
     * Miscible with... carbon tetrachloride.
     * Miscible with water

   from [10]HSDB

   Spectral Properties

     * MAX ABSORPTION (GAS): 169 NM (LOG E= 3.58); 171 NM (LOG E= 3.57)
     * Inex of refraction: 1.3597 at 7 deg C/D
     * 13C NMR: 270 (Stothers, Carbon-13 NMR Spectroscopy, Academic Press,
       New York)
     * Raman: 191 (American Petroleum Insitute spectral collection)
     * UV: HBCP 171
     * IR: 1109 (Sadtler Research Laboratories Prism Collection)
     * MASS: 61296 (NIST/EPA/MSDC Mass Spectral Database, 1990 version)

   from [11]HSDB

   Vapor Density
        1.49
   from [12]HSDB

   Vapor Pressure
        1,310 mm Hg at 25 deg C (extrapolated)
   from [13]HSDB

   Viscosity
        9.45X10-3 mPa.s (25 deg C, gas) and 0.254 mPa.s (10 deg C, liquid)
   from [14]HSDB

   Other Chemical/Physical Properties

     * LIQ IS LIGHTER THAN WATER, VAPOR IS HEAVIER THAN AIR
     * Heat of solution in water: 142.57 kJ/kg @ 25 deg C
     * CAN REACT WITH OXIDIZING MATERIALS
     * Ratio of specific heats of vapor (gas): 1.212
     * Heat of fusion: 5.17 kJ.mol at -112.5 deg C
     * Ionization potential: 10.56 eV
     * Standard Enthalpy of Formation at 298.15 K: -78.0 kJ/mol /liquid/;
       -52.6 kJ/mol (gas)
     * Thermal conductivity: 0.15 W/m.K at 20 deg C (liquid)
     * Henry's Law constant = 1.48X10-4 atm-cu m/mol at 25 deg C
     * Hydroxyl radical reaction rate constant = 7.6X10-14 cu cm/molec-sec
       at 25 deg C

   from [15]HSDB

   Computed Properties
   Molecular Weight                  44.05256 [g/mol]
   Molecular Formula                 C[2]H[4]O
   XLogP3-AA                         -0.1
   H-Bond Donor                      0
   H-Bond Acceptor                   1
   Rotatable Bond Count              0
   Exact Mass                        44.026215
   MonoIsotopic Mass                 44.026215
   Topological Polar Surface Area    12.5
   Heavy Atom Count                  3
   Formal Charge                     0
   Complexity                        10.3
   Isotope Atom Count                0
   Defined Atom Stereocenter Count   0
   Undefined Atom Stereocenter Count 0
   Defined Bond Stereocenter Count   0
   Undefined Bond Stereocenter Count 0
   Covalently-Bonded Unit Count      1
   Feature 3D Acceptor Count         1
   Effective Rotor Count             0.6
   Conformer Sampling RMSD           0.4
   CID Conformer Count               [16]1

References

   1. http://toxnet.nlm.nih.gov/cgi-bin/sis/search/r?dbs+hsdb:@term+@rn+@rel+75-21-8
   2. http://toxnet.nlm.nih.gov/cgi-bin/sis/search/r?dbs+hsdb:@term+@rn+@rel+75-21-8
   3. http://toxnet.nlm.nih.gov/cgi-bin/sis/search/r?dbs+hsdb:@term+@rn+@rel+75-21-8
   4. http://toxnet.nlm.nih.gov/cgi-bin/sis/search/r?dbs+hsdb:@term+@rn+@rel+75-21-8
   5. http://toxnet.nlm.nih.gov/cgi-bin/sis/search/r?dbs+hsdb:@term+@rn+@rel+75-21-8
   6. http://toxnet.nlm.nih.gov/cgi-bin/sis/search/r?dbs+hsdb:@term+@rn+@rel+75-21-8
   7. http://toxnet.nlm.nih.gov/cgi-bin/sis/search/r?dbs+hsdb:@term+@rn+@rel+75-21-8
   8. http://toxnet.nlm.nih.gov/cgi-bin/sis/search/r?dbs+hsdb:@term+@rn+@rel+75-21-8
   9. http://toxnet.nlm.nih.gov/cgi-bin/sis/search/r?dbs+hsdb:@term+@rn+@rel+75-21-8
  10. http://toxnet.nlm.nih.gov/cgi-bin/sis/search/r?dbs+hsdb:@term+@rn+@rel+75-21-8
  11. http://toxnet.nlm.nih.gov/cgi-bin/sis/search/r?dbs+hsdb:@term+@rn+@rel+75-21-8
  12. http://toxnet.nlm.nih.gov/cgi-bin/sis/search/r?dbs+hsdb:@term+@rn+@rel+75-21-8
  13. http://toxnet.nlm.nih.gov/cgi-bin/sis/search/r?dbs+hsdb:@term+@rn+@rel+75-21-8
  14. http://toxnet.nlm.nih.gov/cgi-bin/sis/search/r?dbs+hsdb:@term+@rn+@rel+75-21-8
  15. http://toxnet.nlm.nih.gov/cgi-bin/sis/search/r?dbs+hsdb:@term+@rn+@rel+75-21-8
  16. http://pubchem.ncbi.nlm.nih.gov/vw3d/vw3d.cgi?cid=6354
