   Chemical and Physical Properties References

   [1]USDA ARS - USDA chemical properties
   from [2]ChemIDplus

   Color/Form

     * White, crystalline solid
     * White or grayish, crystalline solid [Note: May be dissolved in a
       liquid carrier].
     * Colorless crystals

   from [3]HSDB

   Odor

     * Odorless
     * Slightly phenolic.

   from [4]HSDB

   Melting Point
        151 deg C
   from [5]HSDB

   Corrosivity
        Non-corrosive
   from [6]HSDB

   Density/Specific Gravity
        1.180 g/cu cm
   from [7]HSDB

   Octanol/Water Partition Coefficient
        log Kow = 2.32
   from [8]HSDB

   Solubilities

     * In dichloromethane >200, isopropanol 20-50, toluene 10-20 (all in
       g/L, 20 deg C
     * It is essentially insoluble in conventional formulation solvents
       used in agriculture
     * Highly soluble in N-methyl-2-pyrrolidone, dimethylformamide,
       dimethyl sulfoxide, acetone, acetonitrile, methylene chloride,
       cyclohexanone, benzene, xylene
     * 150 g/kg acetone, 140 g/kg acetonitrile, 120 g/kg dichloromethane,
       90 g/kg cyclohexanone, 40 g/kg benzene
     * In water, 320 mg/L at 25 deg C

   from [9]HSDB

   Spectral Properties
        Intensity of mass spectral peaks: 164 M/z (100%), 149 M/z (66%),
   122 M/z (20%), 123 M/z (18%)
   from [10]HSDB

   Vapor Pressure
        4.85X10-6 mm Hg at 25 deg C [Ferreira GAL, Seiber JN; J Agric Food
   Chem 29: 93-9 (1981)] [11]PubMed Abstract
   from [12]HSDB

   Other Chemical/Physical Properties

     * ... melting range of 150-154 deg C
     * Odorless, white crystalline solid. Melting point 153-154 deg C.
       Specific gravity is 1.180 at 20 deg C/20 deg C. Vapor pressure
       3.1X10-7 mbar at 20 deg C. Readily soluble in dichloromethane;
       soluble in 2-propanol; barely soluble in toluene. /Technical/
     * Melting point = 153-154 deg C (pure); 150-152 deg C (tech)
     * Henry's Law constant = 3.09X10-9 atm-cu m/mol at 25 deg C (est)
     * Hydroxyl radical reaction rate constant = 2.60X10-11 cu
       cm/molec-sec at 25 deg C (est)

   from [13]HSDB

   Computed Properties
   Molecular Weight                  221.2524 [g/mol]
   Molecular Formula                 C[12]H[15]NO[3]
   XLogP3                            2.3
   H-Bond Donor                      1
   H-Bond Acceptor                   3
   Rotatable Bond Count              2
   Tautomer Count                    2
   Exact Mass                        221.105193
   MonoIsotopic Mass                 221.105193
   Topological Polar Surface Area    47.6
   Heavy Atom Count                  16
   Formal Charge                     0
   Complexity                        277
   Isotope Atom Count                0
   Defined Atom Stereocenter Count   0
   Undefined Atom Stereocenter Count 0
   Defined Bond Stereocenter Count   0
   Undefined Bond Stereocenter Count 0
   Covalently-Bonded Unit Count      1
   Feature 3D Acceptor Count         2
   Feature 3D Donor Count            1
   Feature 3D Hydrophobe Count       1
   Feature 3D Ring Count             2
   Effective Rotor Count             3.6
   Conformer Sampling RMSD           0.6
   CID Conformer Count               [14]27

References

   1. http://www.ars.usda.gov/SP2UserFiles/ad_hoc/12755100DatabaseFiles/PesticidePropertiesDatabase/IndividualPesticideFiles/CARBOFURAN.TXT
   2. http://chem.sis.nlm.nih.gov/chemidplus/
   3. http://toxnet.nlm.nih.gov/cgi-bin/sis/search/r?dbs+hsdb:@term+@rn+@rel+1563-66-2
   4. http://toxnet.nlm.nih.gov/cgi-bin/sis/search/r?dbs+hsdb:@term+@rn+@rel+1563-66-2
   5. http://toxnet.nlm.nih.gov/cgi-bin/sis/search/r?dbs+hsdb:@term+@rn+@rel+1563-66-2
   6. http://toxnet.nlm.nih.gov/cgi-bin/sis/search/r?dbs+hsdb:@term+@rn+@rel+1563-66-2
   7. http://toxnet.nlm.nih.gov/cgi-bin/sis/search/r?dbs+hsdb:@term+@rn+@rel+1563-66-2
   8. http://toxnet.nlm.nih.gov/cgi-bin/sis/search/r?dbs+hsdb:@term+@rn+@rel+1563-66-2
   9. http://toxnet.nlm.nih.gov/cgi-bin/sis/search/r?dbs+hsdb:@term+@rn+@rel+1563-66-2
  10. http://toxnet.nlm.nih.gov/cgi-bin/sis/search/r?dbs+hsdb:@term+@rn+@rel+1563-66-2
  11. http://www.ncbi.nlm.nih.gov/entrez/query.fcgi?cmd=Retrieve&db=pubmed&dopt=Abstract&list_uids=7204764
  12. http://toxnet.nlm.nih.gov/cgi-bin/sis/search/r?dbs+hsdb:@term+@rn+@rel+1563-66-2
  13. http://toxnet.nlm.nih.gov/cgi-bin/sis/search/r?dbs+hsdb:@term+@rn+@rel+1563-66-2
  14. http://pubchem.ncbi.nlm.nih.gov/vw3d/vw3d.cgi?cid=2566
