   Chemical and Physical Properties References

   [1]USDA ARS - USDA chemical properties
   from [2]ChemIDplus

   Color/Form

     * PALE YELLOW LIQUID
     * Pale-yellow to orange liquid.

   from [3]HSDB

   Odor

     * Weak odor
     * Weak odor.

   from [4]HSDB

   Boiling Point
        106-107.5 DEG C @ 1 MM HG
   from [5]HSDB

   Corrosivity

     * IT IS CORROSIVE TO CAST IRON, MILD AND SOME STAINLESS STEELS, &
       BRASS
     * Phosdrin will attack some forms of plastics, rubber, and coatings.
     * It is noncorrosive to glass and many plastics but passes slowly
       through thin films of polythene.

   from [6]HSDB

   Density/Specific Gravity
        1.25 @ 20 DEG C/4 DEG C
   from [7]HSDB

   Octanol/Water Partition Coefficient
        log Kow = 0.13
   from [8]HSDB

   Solubilities

     * water solubility = 6.0X10+5 mg/l
     * MISCIBLE WITH WATER, ACETONE, BENZENE, CARBON TETRACHLORIDE,
       CHLOROFORM, ETHYL AND ISOPROPYL ALCOHOL, TOLUENE, XYLENE; 1 G
       DISSOLVES IN 20 ML CARBON DISULFIDE AND IN 20 ML KEROSENE;
       PRACTICALLY INSOL IN HEXANE

   from [9]HSDB

   Spectral Properties

     * INDEX OF REFRACTION: 1.4494 @ 20 DEG C/D
     * Intense mass spectral peaks: 127 m/z (100%), 192 m/z (41%), 67 m/z
       (19%), 70 m/z (15%)

   from [10]HSDB

   Vapor Pressure
        vapor pressure = 17 mPa @ 20 deg C (1.28X10-4 mm Hg)
   from [11]HSDB

   Other Chemical/Physical Properties

     * MP: 21 DEG C; DENSITY: 1.2345 @ 20 DEG C; INDEX OF REFRACTION:
       1.4452 @ 20 DEG C/D /(E)-ISOMER/
     * MP: 6.9 DEG C; DENSITY: 1.245 @ 20 DEG C; INDEX OF REFRACTION:
       1.4524 /(Z)-ISOMER/
     * Benzene/water partition coefficient 1.11 (log)
     * It is stable when stored at ambient temperatures but is hydrolyzed
       in aqueous solution, 50% loss ocurring in 120 d at pH 6, 35 d. at
       pH 7, 3 d at pH 9, 1.4 hr at pH 11.

   from [12]HSDB

   Computed Properties
   Molecular Weight                  224.148282 [g/mol]
   Molecular Formula                 C[7]H[13]O[6]P
   XLogP3                            1.2
   H-Bond Donor                      0
   H-Bond Acceptor                   6
   Rotatable Bond Count              6
   Exact Mass                        224.044975
   MonoIsotopic Mass                 224.044975
   Topological Polar Surface Area    71.1
   Heavy Atom Count                  14
   Formal Charge                     0
   Complexity                        263
   Isotope Atom Count                0
   Defined Atom Stereocenter Count   0
   Undefined Atom Stereocenter Count 0
   Defined Bond Stereocenter Count   1
   Undefined Bond Stereocenter Count 0
   Covalently-Bonded Unit Count      1
   Feature 3D Acceptor Count         2
   Effective Rotor Count             6
   Conformer Sampling RMSD           0.6
   CID Conformer Count               [13]172

References

   1. http://www.ars.usda.gov/SP2UserFiles/ad_hoc/12755100DatabaseFiles/PesticidePropertiesDatabase/IndividualPesticideFiles/MEVINPHOS.TXT
   2. http://chem.sis.nlm.nih.gov/chemidplus/
   3. http://toxnet.nlm.nih.gov/cgi-bin/sis/search/r?dbs+hsdb:@term+@rn+@rel+7786-34-7
   4. http://toxnet.nlm.nih.gov/cgi-bin/sis/search/r?dbs+hsdb:@term+@rn+@rel+7786-34-7
   5. http://toxnet.nlm.nih.gov/cgi-bin/sis/search/r?dbs+hsdb:@term+@rn+@rel+7786-34-7
   6. http://toxnet.nlm.nih.gov/cgi-bin/sis/search/r?dbs+hsdb:@term+@rn+@rel+7786-34-7
   7. http://toxnet.nlm.nih.gov/cgi-bin/sis/search/r?dbs+hsdb:@term+@rn+@rel+7786-34-7
   8. http://toxnet.nlm.nih.gov/cgi-bin/sis/search/r?dbs+hsdb:@term+@rn+@rel+7786-34-7
   9. http://toxnet.nlm.nih.gov/cgi-bin/sis/search/r?dbs+hsdb:@term+@rn+@rel+7786-34-7
  10. http://toxnet.nlm.nih.gov/cgi-bin/sis/search/r?dbs+hsdb:@term+@rn+@rel+7786-34-7
  11. http://toxnet.nlm.nih.gov/cgi-bin/sis/search/r?dbs+hsdb:@term+@rn+@rel+7786-34-7
  12. http://toxnet.nlm.nih.gov/cgi-bin/sis/search/r?dbs+hsdb:@term+@rn+@rel+7786-34-7
  13. http://pubchem.ncbi.nlm.nih.gov/vw3d/vw3d.cgi?cid=5355863
