   Color/Form

     * COLORLESS OR VERY PALE AMBER LIQ
     * Light colored, oily liquid.

   from [1]HSDB

   Odor

     * SLIGHT AROMATIC SMELL
     * Odorless
     * Mild

   from [2]HSDB

   Boiling Point
        214 deg C @ 5 mm Hg
   from [3]HSDB

   Melting Point
        -67.8 deg C
   from [4]HSDB

   Critical Temperature and Pressure
        Critical temperature: 571.84 deg C (845 K); Critical pressure:
   1.1200X10+6 Pa
   from [5]HSDB

   Density/Specific Gravity
        0.922 @ 25 deg C/4 deg C
   from [6]HSDB

   Heat of Combustion
        -15,430 Btu/lb= -8,580 cal/g= -359X10+5 Joules/kg
   from [7]HSDB

   Heat of Vaporization
        1.2542X10+8 J/kmol at -111.66 deg C
   from [8]HSDB

   pH
        Acidity: 0.25 (meg/100 gm. max)
   from [9]HSDB

   Solubilities

     * SOL IN MOST ORG SOLVENTS; INSOL OR VERY SLIGHTLY SOL IN GLYCERINE &
       GLYCOLS
     * Soluble in ethanol, ethyl ether, acetone, and acetic acid
     * In water, 0.78 mg/l @ 22 deg C

   from [10]HSDB

   Spectral Properties

     * Index of refraction: 1.4474 @ 20 deg C/D
     * Intense mass spectral peaks: 41 m/z (100%), 57 m/z (90%), 55 m/z
       (73%), 43 m/z (62%)
     * IR:8003 (Sadtler Researd Laboratories IR Grating collection)
     * Mass: 2-710 (Archives of Mass Spectral Data, John Wiley & Sons, New
       York)

   from [11]HSDB

   Vapor Density
        12.8 (Air= 1)
   from [12]HSDB

   Vapor Pressure
        8.5X10-7 mm Hg at 20 deg C
   from [13]HSDB

   Viscosity
        13.7 cP @ 20 deg C
   from [14]HSDB

   Other Chemical/Physical Properties

     * Pour point: -75 deg C
     * VAPOR PRESSURE: 2.4 MM HG @ 200 DEG C
     * Henry's Law constant= 4.34X10-7 atm-cu m/mole @ 20 deg C
     * Wt/gal: 7.71 lb (20 deg C)

   from [15]HSDB

   Computed Properties
   Molecular Weight                  370.56648 [g/mol]
   Molecular Formula                 C[22]H[42]O[4]
   XLogP3-AA                         6.8
   H-Bond Donor                      0
   H-Bond Acceptor                   4
   Rotatable Bond Count              19
   Exact Mass                        370.30831
   MonoIsotopic Mass                 370.30831
   Topological Polar Surface Area    52.6
   Heavy Atom Count                  26
   Formal Charge                     0
   Complexity                        320
   Isotope Atom Count                0
   Defined Atom Stereocenter Count   0
   Undefined Atom Stereocenter Count 2
   Defined Bond Stereocenter Count   0
   Undefined Bond Stereocenter Count 0
   Covalently-Bonded Unit Count      1

References

   1. http://toxnet.nlm.nih.gov/cgi-bin/sis/search/r?dbs+hsdb:@term+@rn+@rel+103-23-1
   2. http://toxnet.nlm.nih.gov/cgi-bin/sis/search/r?dbs+hsdb:@term+@rn+@rel+103-23-1
   3. http://toxnet.nlm.nih.gov/cgi-bin/sis/search/r?dbs+hsdb:@term+@rn+@rel+103-23-1
   4. http://toxnet.nlm.nih.gov/cgi-bin/sis/search/r?dbs+hsdb:@term+@rn+@rel+103-23-1
   5. http://toxnet.nlm.nih.gov/cgi-bin/sis/search/r?dbs+hsdb:@term+@rn+@rel+103-23-1
   6. http://toxnet.nlm.nih.gov/cgi-bin/sis/search/r?dbs+hsdb:@term+@rn+@rel+103-23-1
   7. http://toxnet.nlm.nih.gov/cgi-bin/sis/search/r?dbs+hsdb:@term+@rn+@rel+103-23-1
   8. http://toxnet.nlm.nih.gov/cgi-bin/sis/search/r?dbs+hsdb:@term+@rn+@rel+103-23-1
   9. http://toxnet.nlm.nih.gov/cgi-bin/sis/search/r?dbs+hsdb:@term+@rn+@rel+103-23-1
  10. http://toxnet.nlm.nih.gov/cgi-bin/sis/search/r?dbs+hsdb:@term+@rn+@rel+103-23-1
  11. http://toxnet.nlm.nih.gov/cgi-bin/sis/search/r?dbs+hsdb:@term+@rn+@rel+103-23-1
  12. http://toxnet.nlm.nih.gov/cgi-bin/sis/search/r?dbs+hsdb:@term+@rn+@rel+103-23-1
  13. http://toxnet.nlm.nih.gov/cgi-bin/sis/search/r?dbs+hsdb:@term+@rn+@rel+103-23-1
  14. http://toxnet.nlm.nih.gov/cgi-bin/sis/search/r?dbs+hsdb:@term+@rn+@rel+103-23-1
  15. http://toxnet.nlm.nih.gov/cgi-bin/sis/search/r?dbs+hsdb:@term+@rn+@rel+103-23-1
