193042
  -OEChem-07051212592D

 48 51  0     1  0  0  0  0  0999 V2000
    6.9939   -1.7500    0.0000 O   0  0  0  0  0  0  0  0  0  0  0  0
    7.8600    1.7500    0.0000 O   0  0  0  0  0  0  0  0  0  0  0  0
   12.2703    0.0547    0.0000 O   0  0  0  0  0  0  0  0  0  0  0  0
    2.5836   -0.0547    0.0000 O   0  0  0  0  0  0  0  0  0  0  0  0
   12.2703   -1.5547    0.0000 O   0  0  0  0  0  0  0  0  0  0  0  0
    2.5836    1.5547    0.0000 O   0  0  0  0  0  0  0  0  0  0  0  0
    7.8600   -0.2500    0.0000 C   0  0  1  0  0  0  0  0  0  0  0  0
    6.9939    0.2500    0.0000 C   0  0  1  0  0  0  0  0  0  0  0  0
    6.1279   -0.2500    0.0000 C   0  0  0  0  0  0  0  0  0  0  0  0
    8.7260    0.2500    0.0000 C   0  0  0  0  0  0  0  0  0  0  0  0
    6.9939    1.2500    0.0000 C   0  0  0  0  0  0  0  0  0  0  0  0
    7.8600   -1.2500    0.0000 C   0  0  0  0  0  0  0  0  0  0  0  0
    9.5920   -0.2500    0.0000 C   0  0  0  0  0  0  0  0  0  0  0  0
    5.2619    0.2500    0.0000 C   0  0  0  0  0  0  0  0  0  0  0  0
   10.4580    0.2500    0.0000 C   0  0  0  0  0  0  0  0  0  0  0  0
    4.3958   -0.2500    0.0000 C   0  0  0  0  0  0  0  0  0  0  0  0
    9.5920   -1.2500    0.0000 C   0  0  0  0  0  0  0  0  0  0  0  0
    5.2619    1.2500    0.0000 C   0  0  0  0  0  0  0  0  0  0  0  0
   11.3241   -0.2500    0.0000 C   0  0  0  0  0  0  0  0  0  0  0  0
    3.5298    0.2500    0.0000 C   0  0  0  0  0  0  0  0  0  0  0  0
   10.4580   -1.7500    0.0000 C   0  0  0  0  0  0  0  0  0  0  0  0
    4.3958    1.7500    0.0000 C   0  0  0  0  0  0  0  0  0  0  0  0
   11.3241   -1.2500    0.0000 C   0  0  0  0  0  0  0  0  0  0  0  0
    3.5298    1.2500    0.0000 C   0  0  0  0  0  0  0  0  0  0  0  0
    2.0000    0.7500    0.0000 C   0  0  0  0  0  0  0  0  0  0  0  0
   12.8539   -0.7500    0.0000 C   0  0  0  0  0  0  0  0  0  0  0  0
    7.3230   -0.5600    0.0000 H   0  0  0  0  0  0  0  0  0  0  0  0
    7.5309    0.5600    0.0000 H   0  0  0  0  0  0  0  0  0  0  0  0
    5.7294   -0.7249    0.0000 H   0  0  0  0  0  0  0  0  0  0  0  0
    6.5264   -0.7249    0.0000 H   0  0  0  0  0  0  0  0  0  0  0  0
    9.1245    0.7249    0.0000 H   0  0  0  0  0  0  0  0  0  0  0  0
    8.3274    0.7249    0.0000 H   0  0  0  0  0  0  0  0  0  0  0  0
    6.7819    1.8326    0.0000 H   0  0  0  0  0  0  0  0  0  0  0  0
    6.3834    1.1423    0.0000 H   0  0  0  0  0  0  0  0  0  0  0  0
    8.0720   -1.8326    0.0000 H   0  0  0  0  0  0  0  0  0  0  0  0
    8.4705   -1.1423    0.0000 H   0  0  0  0  0  0  0  0  0  0  0  0
    4.3958   -0.8700    0.0000 H   0  0  0  0  0  0  0  0  0  0  0  0
   10.4580    0.8700    0.0000 H   0  0  0  0  0  0  0  0  0  0  0  0
    9.0551   -1.5600    0.0000 H   0  0  0  0  0  0  0  0  0  0  0  0
    5.7988    1.5600    0.0000 H   0  0  0  0  0  0  0  0  0  0  0  0
    6.9939   -2.3700    0.0000 H   0  0  0  0  0  0  0  0  0  0  0  0
    7.8600    2.3700    0.0000 H   0  0  0  0  0  0  0  0  0  0  0  0
   10.4580   -2.3700    0.0000 H   0  0  0  0  0  0  0  0  0  0  0  0
    4.3958    2.3700    0.0000 H   0  0  0  0  0  0  0  0  0  0  0  0
    1.5391    1.1647    0.0000 H   0  0  0  0  0  0  0  0  0  0  0  0
    1.5391    0.3353    0.0000 H   0  0  0  0  0  0  0  0  0  0  0  0
   13.3148   -1.1647    0.0000 H   0  0  0  0  0  0  0  0  0  0  0  0
   13.3148   -0.3353    0.0000 H   0  0  0  0  0  0  0  0  0  0  0  0
  1 12  1  0  0  0  0
  1 41  1  0  0  0  0
  2 11  1  0  0  0  0
  2 42  1  0  0  0  0
  3 19  1  0  0  0  0
  3 26  1  0  0  0  0
  4 20  1  0  0  0  0
  4 25  1  0  0  0  0
  5 23  1  0  0  0  0
  5 26  1  0  0  0  0
  6 24  1  0  0  0  0
  6 25  1  0  0  0  0
  7  8  1  0  0  0  0
  7 10  1  0  0  0  0
  7 12  1  1  0  0  0
  7 27  1  0  0  0  0
  8  9  1  0  0  0  0
  8 11  1  1  0  0  0
  8 28  1  0  0  0  0
  9 14  1  0  0  0  0
  9 29  1  0  0  0  0
  9 30  1  0  0  0  0
 10 13  1  0  0  0  0
 10 31  1  0  0  0  0
 10 32  1  0  0  0  0
 11 33  1  0  0  0  0
 11 34  1  0  0  0  0
 12 35  1  0  0  0  0
 12 36  1  0  0  0  0
 13 15  2  0  0  0  0
 13 17  1  0  0  0  0
 14 16  2  0  0  0  0
 14 18  1  0  0  0  0
 15 19  1  0  0  0  0
 15 38  1  0  0  0  0
 16 20  1  0  0  0  0
 16 37  1  0  0  0  0
 17 21  2  0  0  0  0
 17 39  1  0  0  0  0
 18 22  2  0  0  0  0
 18 40  1  0  0  0  0
 19 23  2  0  0  0  0
 20 24  2  0  0  0  0
 21 23  1  0  0  0  0
 21 43  1  0  0  0  0
 22 24  1  0  0  0  0
 22 44  1  0  0  0  0
 25 45  1  0  0  0  0
 25 46  1  0  0  0  0
 26 47  1  0  0  0  0
 26 48  1  0  0  0  0
M  END
> <PUBCHEM_COMPOUND_CID>
193042

> <PUBCHEM_COMPOUND_CANONICALIZED>
1

> <PUBCHEM_CACTVS_COMPLEXITY>
406

> <PUBCHEM_CACTVS_HBOND_ACCEPTOR>
6

> <PUBCHEM_CACTVS_HBOND_DONOR>
2

> <PUBCHEM_CACTVS_ROTATABLE_BOND>
7

> <PUBCHEM_CACTVS_SUBSKEYS>
AAADceB4OAAAAAAAAAAAAAAAAAAAASJAAAAwYAAAAAAAAEgBQAAAGgAACAAADQSgmAMwDoAABgCAAiBCAAACCAAgIAAIiAAGiIgdNiKEMRqgcCIkwBEOqAfAwPAOoAABAAAAQABAAAIAAACAAAAAAAAAAA==

> <PUBCHEM_IUPAC_OPENEYE_NAME>
(2R,3R)-2,3-bis(1,3-benzodioxol-5-ylmethyl)butane-1,4-diol

> <PUBCHEM_IUPAC_CAS_NAME>
(2R,3R)-2,3-bis(1,3-benzodioxol-5-ylmethyl)butane-1,4-diol

> <PUBCHEM_IUPAC_NAME>
(2R,3R)-2,3-bis(1,3-benzodioxol-5-ylmethyl)butane-1,4-diol

> <PUBCHEM_IUPAC_SYSTEMATIC_NAME>
(2R,3R)-2,3-bis(1,3-benzodioxol-5-ylmethyl)butane-1,4-diol

> <PUBCHEM_IUPAC_TRADITIONAL_NAME>
(2R,3R)-2,3-dipiperonylbutane-1,4-diol

> <PUBCHEM_IUPAC_INCHI>
InChI=1S/C20H22O6/c21-9-15(5-13-1-3-17-19(7-13)25-11-23-17)16(10-22)6-14-2-4-18-20(8-14)26-12-24-18/h1-4,7-8,15-16,21-22H,5-6,9-12H2/t15-,16-/m0/s1

> <PUBCHEM_IUPAC_INCHIKEY>
JKCVMTYNARDGET-HOTGVXAUSA-N

> <PUBCHEM_XLOGP3_AA>
2.9

> <PUBCHEM_EXACT_MASS>
358.141638

> <PUBCHEM_MOLECULAR_FORMULA>
C20H22O6

> <PUBCHEM_MOLECULAR_WEIGHT>
358.38508

> <PUBCHEM_OPENEYE_CAN_SMILES>
C1OC2=C(O1)C=C(C=C2)CC(CO)C(CC3=CC4=C(C=C3)OCO4)CO

> <PUBCHEM_OPENEYE_ISO_SMILES>
C1OC2=C(O1)C=C(C=C2)C[C@@H](CO)[C@@H](CC3=CC4=C(C=C3)OCO4)CO

> <PUBCHEM_CACTVS_TPSA>
77.4

> <PUBCHEM_MONOISOTOPIC_WEIGHT>
358.141638

> <PUBCHEM_TOTAL_CHARGE>
0

> <PUBCHEM_HEAVY_ATOM_COUNT>
26

> <PUBCHEM_ATOM_DEF_STEREO_COUNT>
2

> <PUBCHEM_ATOM_UDEF_STEREO_COUNT>
0

> <PUBCHEM_BOND_DEF_STEREO_COUNT>
0

> <PUBCHEM_BOND_UDEF_STEREO_COUNT>
0

> <PUBCHEM_ISOTOPIC_ATOM_COUNT>
0

> <PUBCHEM_COMPONENT_COUNT>
1

> <PUBCHEM_CACTVS_TAUTO_COUNT>
1

> <PUBCHEM_COORDINATE_TYPE>
1
5
255

> <PUBCHEM_BONDANNOTATIONS>
13  15  8
13  17  8
14  16  8
14  18  8
15  19  8
16  20  8
17  21  8
18  22  8
19  23  8
20  24  8
21  23  8
22  24  8
7  12  5
8  11  5

$$$$

