   Color/Form
        Colorless liquid.
   from [1]HSDB

   Boiling Point
        175-177 deg C/0.85 mm Hg
   from [2]HSDB

   Density/Specific Gravity
        1.1504 @ 20 deg C
   from [3]HSDB

   Octanol/Water Partition Coefficient
        log Kow =3.67
   from [4]HSDB

   Solubilities

     * Soluble in most organic solvents.
     * In water, 0.125 g/l @ 25 deg C

   from [5]HSDB

   Vapor Pressure
        0.12 mPa (9.0X10-7 mm Hg) @ 25 deg C
   from [6]HSDB

   Computed Properties
   Molecular Weight                  304.342202 [g/mol]
   Molecular Formula                 C[13]H[21]O[4]PS
   XLogP3                            3.9
   H-Bond Donor                      0
   H-Bond Acceptor                   5
   Rotatable Bond Count              9
   Exact Mass                        304.089817
   MonoIsotopic Mass                 304.089817
   Topological Polar Surface Area    70.1
   Heavy Atom Count                  19
   Formal Charge                     0
   Complexity                        268
   Isotope Atom Count                0
   Defined Atom Stereocenter Count   0
   Undefined Atom Stereocenter Count 0
   Defined Bond Stereocenter Count   0
   Undefined Bond Stereocenter Count 0
   Covalently-Bonded Unit Count      1
   Feature 3D Acceptor Count         1
   Feature 3D Hydrophobe Count       3
   Feature 3D Ring Count             1
   Effective Rotor Count             9
   Conformer Sampling RMSD           0.8
   CID Conformer Count               [7]287

References

   1. http://toxnet.nlm.nih.gov/cgi-bin/sis/search/r?dbs+hsdb:@term+@rn+@rel+7292-16-2
   2. http://toxnet.nlm.nih.gov/cgi-bin/sis/search/r?dbs+hsdb:@term+@rn+@rel+7292-16-2
   3. http://toxnet.nlm.nih.gov/cgi-bin/sis/search/r?dbs+hsdb:@term+@rn+@rel+7292-16-2
   4. http://toxnet.nlm.nih.gov/cgi-bin/sis/search/r?dbs+hsdb:@term+@rn+@rel+7292-16-2
   5. http://toxnet.nlm.nih.gov/cgi-bin/sis/search/r?dbs+hsdb:@term+@rn+@rel+7292-16-2
   6. http://toxnet.nlm.nih.gov/cgi-bin/sis/search/r?dbs+hsdb:@term+@rn+@rel+7292-16-2
   7. http://pubchem.ncbi.nlm.nih.gov/vw3d/vw3d.cgi?cid=23717
