441336
  -OEChem-07051212542D

 65 69  0     1  0  0  0  0  0999 V2000
    5.0182   -0.8385    0.0000 Cl  0  0  0  0  0  0  0  0  0  0  0  0
   10.8722    0.4647    0.0000 Cl  0  0  0  0  0  0  0  0  0  0  0  0
    8.0319    0.6518    0.0000 O   0  0  0  0  0  0  0  0  0  0  0  0
    4.7950   -0.1045    0.0000 O   0  0  0  0  0  0  0  0  0  0  0  0
    9.5576    1.1994    0.0000 O   0  0  0  0  0  0  0  0  0  0  0  0
    9.1931    1.9370    0.0000 O   0  0  0  0  0  0  0  0  0  0  0  0
    2.0000   -3.6568    0.0000 O   0  0  0  0  0  0  0  0  0  0  0  0
    7.6058    3.2944    0.0000 O   0  0  0  0  0  0  0  0  0  0  0  0
    7.3931   -0.6045    0.0000 C   0  0  1  0  0  0  0  0  0  0  0  0
    7.3931   -1.6045    0.0000 C   0  0  2  0  0  0  0  0  0  0  0  0
    6.5271   -2.1045    0.0000 C   0  0  1  0  0  0  0  0  0  0  0  0
    5.6610   -1.6045    0.0000 C   0  0  1  0  0  0  0  0  0  0  0  0
    8.3393   -0.2998    0.0000 C   0  0  1  0  0  0  0  0  0  0  0  0
    8.3393   -1.9092    0.0000 C   0  0  0  0  0  0  0  0  0  0  0  0
    6.5271   -0.1045    0.0000 C   0  0  0  0  0  0  0  0  0  0  0  0
    8.9229   -1.1045    0.0000 C   0  0  1  0  0  0  0  0  0  0  0  0
    5.6610   -0.6045    0.0000 C   0  0  2  0  0  0  0  0  0  0  0  0
    4.7510   -2.1114    0.0000 C   0  0  1  0  0  0  0  0  0  0  0  0
    6.5431   -3.1460    0.0000 C   0  0  0  0  0  0  0  0  0  0  0  0
    7.3931    0.3955    0.0000 C   0  0  0  0  0  0  0  0  0  0  0  0
    5.6451   -3.6738    0.0000 C   0  0  0  0  0  0  0  0  0  0  0  0
    4.7430   -3.1530    0.0000 C   0  0  0  0  0  0  0  0  0  0  0  0
    9.1493    0.2866    0.0000 C   0  0  0  0  0  0  0  0  0  0  0  0
    9.9229   -1.1045    0.0000 C   0  0  0  0  0  0  0  0  0  0  0  0
    4.4163   -1.1690    0.0000 C   0  0  0  0  0  0  0  0  0  0  0  0
    3.8242   -1.5473    0.0000 C   0  0  0  0  0  0  0  0  0  0  0  0
    3.8076   -3.7027    0.0000 C   0  0  0  0  0  0  0  0  0  0  0  0
   10.0622   -0.1217    0.0000 C   0  0  0  0  0  0  0  0  0  0  0  0
    2.8763   -2.0752    0.0000 C   0  0  0  0  0  0  0  0  0  0  0  0
    8.2415    1.6296    0.0000 C   0  0  0  0  0  0  0  0  0  0  0  0
    2.8680   -3.1602    0.0000 C   0  0  0  0  0  0  0  0  0  0  0  0
    7.4996    2.3000    0.0000 C   0  0  0  0  0  0  0  0  0  0  0  0
    6.5210    2.0938    0.0000 C   0  0  0  0  0  0  0  0  0  0  0  0
    6.0225    2.9607    0.0000 C   0  0  0  0  0  0  0  0  0  0  0  0
    6.6930    3.7027    0.0000 C   0  0  0  0  0  0  0  0  0  0  0  0
    7.4830   -2.4497    0.0000 H   0  0  0  0  0  0  0  0  0  0  0  0
    7.2664   -2.5238    0.0000 H   0  0  0  0  0  0  0  0  0  0  0  0
    8.0883   -2.4761    0.0000 H   0  0  0  0  0  0  0  0  0  0  0  0
    8.8767   -2.2185    0.0000 H   0  0  0  0  0  0  0  0  0  0  0  0
    6.9256    0.3704    0.0000 H   0  0  0  0  0  0  0  0  0  0  0  0
    6.1285    0.3704    0.0000 H   0  0  0  0  0  0  0  0  0  0  0  0
    9.2046   -0.5522    0.0000 H   0  0  0  0  0  0  0  0  0  0  0  0
    5.6610    0.0155    0.0000 H   0  0  0  0  0  0  0  0  0  0  0  0
    6.7612   -3.7264    0.0000 H   0  0  0  0  0  0  0  0  0  0  0  0
    7.1523   -3.0305    0.0000 H   0  0  0  0  0  0  0  0  0  0  0  0
    8.0131    0.3955    0.0000 H   0  0  0  0  0  0  0  0  0  0  0  0
    7.3931    1.0155    0.0000 H   0  0  0  0  0  0  0  0  0  0  0  0
    6.7731    0.3955    0.0000 H   0  0  0  0  0  0  0  0  0  0  0  0
    5.2478   -4.1497    0.0000 H   0  0  0  0  0  0  0  0  0  0  0  0
    6.0460   -4.1467    0.0000 H   0  0  0  0  0  0  0  0  0  0  0  0
    9.9229   -1.7245    0.0000 H   0  0  0  0  0  0  0  0  0  0  0  0
   10.5429   -1.1045    0.0000 H   0  0  0  0  0  0  0  0  0  0  0  0
    9.9229   -0.4845    0.0000 H   0  0  0  0  0  0  0  0  0  0  0  0
    5.0005   -0.9615    0.0000 H   0  0  0  0  0  0  0  0  0  0  0  0
    4.2087   -0.5848    0.0000 H   0  0  0  0  0  0  0  0  0  0  0  0
    3.8320   -1.3766    0.0000 H   0  0  0  0  0  0  0  0  0  0  0  0
    3.8361   -0.9274    0.0000 H   0  0  0  0  0  0  0  0  0  0  0  0
    4.7950    0.5155    0.0000 H   0  0  0  0  0  0  0  0  0  0  0  0
    3.8100   -4.3227    0.0000 H   0  0  0  0  0  0  0  0  0  0  0  0
    9.7146   -0.6351    0.0000 H   0  0  0  0  0  0  0  0  0  0  0  0
   10.5074   -0.5532    0.0000 H   0  0  0  0  0  0  0  0  0  0  0  0
    2.3430   -1.7590    0.0000 H   0  0  0  0  0  0  0  0  0  0  0  0
    6.2679    1.5278    0.0000 H   0  0  0  0  0  0  0  0  0  0  0  0
    5.4060    3.0266    0.0000 H   0  0  0  0  0  0  0  0  0  0  0  0
    6.5651    4.3094    0.0000 H   0  0  0  0  0  0  0  0  0  0  0  0
 12  1  1  6  0  0  0
  2 28  1  0  0  0  0
 13  3  1  6  0  0  0
  3 30  1  0  0  0  0
 17  4  1  1  0  0  0
  4 58  1  0  0  0  0
  5 23  2  0  0  0  0
  6 30  2  0  0  0  0
  7 31  2  0  0  0  0
  8 32  1  0  0  0  0
  8 35  1  0  0  0  0
  9 10  1  0  0  0  0
  9 13  1  0  0  0  0
  9 15  1  0  0  0  0
  9 20  1  1  0  0  0
 10 11  1  0  0  0  0
 10 14  1  0  0  0  0
 10 36  1  6  0  0  0
 11 12  1  0  0  0  0
 11 19  1  0  0  0  0
 11 37  1  1  0  0  0
 12 17  1  0  0  0  0
 12 18  1  0  0  0  0
 13 16  1  0  0  0  0
 13 23  1  0  0  0  0
 14 16  1  0  0  0  0
 14 38  1  0  0  0  0
 14 39  1  0  0  0  0
 15 17  1  0  0  0  0
 15 40  1  0  0  0  0
 15 41  1  0  0  0  0
 16 24  1  6  0  0  0
 16 42  1  0  0  0  0
 17 43  1  0  0  0  0
 18 22  1  0  0  0  0
 18 25  1  1  0  0  0
 18 26  1  0  0  0  0
 19 21  1  0  0  0  0
 19 44  1  0  0  0  0
 19 45  1  0  0  0  0
 20 46  1  0  0  0  0
 20 47  1  0  0  0  0
 20 48  1  0  0  0  0
 21 22  1  0  0  0  0
 21 49  1  0  0  0  0
 21 50  1  0  0  0  0
 22 27  2  0  0  0  0
 23 28  1  0  0  0  0
 24 51  1  0  0  0  0
 24 52  1  0  0  0  0
 24 53  1  0  0  0  0
 25 54  1  0  0  0  0
 25 55  1  0  0  0  0
 25 56  1  0  0  0  0
 26 29  2  0  0  0  0
 26 57  1  0  0  0  0
 27 31  1  0  0  0  0
 27 59  1  0  0  0  0
 28 60  1  0  0  0  0
 28 61  1  0  0  0  0
 29 31  1  0  0  0  0
 29 62  1  0  0  0  0
 30 32  1  0  0  0  0
 32 33  2  0  0  0  0
 33 34  1  0  0  0  0
 33 63  1  0  0  0  0
 34 35  2  0  0  0  0
 34 64  1  0  0  0  0
 35 65  1  0  0  0  0
M  END
> <PUBCHEM_COMPOUND_CID>
441336

> <PUBCHEM_COMPOUND_CANONICALIZED>
1

> <PUBCHEM_CACTVS_COMPLEXITY>
1020

> <PUBCHEM_CACTVS_HBOND_ACCEPTOR>
6

> <PUBCHEM_CACTVS_HBOND_DONOR>
1

> <PUBCHEM_CACTVS_ROTATABLE_BOND>
5

> <PUBCHEM_CACTVS_SUBSKEYS>
AAADceB4OAAGAAAAAAAAAAAAAAAAAaIAAAAwYIAAAAAAAGDBgAAAGgIACAAAD1egkEIyDIAABkCIAqjSiAICCAAkIAAIiAFGC8hNNjKFNR6CWSCkwBEKqYfI7vjPgAAAAAAAAADIAAZAADIQAYAADAAAAA==

> <PUBCHEM_IUPAC_OPENEYE_NAME>
[(8S,9R,10S,11S,13S,14S,16R,17R)-9-chloro-17-(2-chloroacetyl)-11-hydroxy-10,13,16-trimethyl-3-oxo-6,7,8,11,12,14,15,16-octahydrocyclopenta[a]phenanthren-17-yl] furan-2-carboxylate

> <PUBCHEM_IUPAC_CAS_NAME>
2-furancarboxylic acid [(8S,9R,10S,11S,13S,14S,16R,17R)-9-chloro-17-(2-chloro-1-oxoethyl)-11-hydroxy-10,13,16-trimethyl-3-oxo-6,7,8,11,12,14,15,16-octahydrocyclopenta[a]phenanthren-17-yl] ester

> <PUBCHEM_IUPAC_NAME>
[(8S,9R,10S,11S,13S,14S,16R,17R)-9-chloro-17-(2-chloroacetyl)-11-hydroxy-10,13,16-trimethyl-3-oxo-6,7,8,11,12,14,15,16-octahydrocyclopenta[a]phenanthren-17-yl] furan-2-carboxylate

> <PUBCHEM_IUPAC_SYSTEMATIC_NAME>
[(8S,9R,10S,11S,13S,14S,16R,17R)-9-chloranyl-17-(2-chloranylethanoyl)-10,13,16-trimethyl-11-oxidanyl-3-oxidanylidene-6,7,8,11,12,14,15,16-octahydrocyclopenta[a]phenanthren-17-yl] furan-2-carboxylate

> <PUBCHEM_IUPAC_TRADITIONAL_NAME>
furan-2-carboxylic acid [(8S,9R,10S,11S,13S,14S,16R,17R)-9-chloro-17-(2-chloroacetyl)-11-hydroxy-3-keto-10,13,16-trimethyl-6,7,8,11,12,14,15,16-octahydrocyclopenta[a]phenanthren-17-yl] ester

> <PUBCHEM_IUPAC_INCHI>
InChI=1S/C27H30Cl2O6/c1-15-11-19-18-7-6-16-12-17(30)8-9-24(16,2)26(18,29)21(31)13-25(19,3)27(15,22(32)14-28)35-23(33)20-5-4-10-34-20/h4-5,8-10,12,15,18-19,21,31H,6-7,11,13-14H2,1-3H3/t15-,18+,19+,21+,24+,25+,26+,27+/m1/s1

> <PUBCHEM_IUPAC_INCHIKEY>
WOFMFGQZHJDGCX-ZULDAHANSA-N

> <PUBCHEM_XLOGP3>
3.9

> <PUBCHEM_EXACT_MASS>
520.141944

> <PUBCHEM_MOLECULAR_FORMULA>
C27H30Cl2O6

> <PUBCHEM_MOLECULAR_WEIGHT>
521.4295

> <PUBCHEM_OPENEYE_CAN_SMILES>
CC1CC2C3CCC4=CC(=O)C=CC4(C3(C(CC2(C1(C(=O)CCl)OC(=O)C5=CC=CO5)C)O)Cl)C

> <PUBCHEM_OPENEYE_ISO_SMILES>
C[C@@H]1C[C@H]2[C@@H]3CCC4=CC(=O)C=C[C@@]4([C@]3([C@H](C[C@@]2([C@]1(C(=O)CCl)OC(=O)C5=CC=CO5)C)O)Cl)C

> <PUBCHEM_CACTVS_TPSA>
93.8

> <PUBCHEM_MONOISOTOPIC_WEIGHT>
520.141944

> <PUBCHEM_TOTAL_CHARGE>
0

> <PUBCHEM_HEAVY_ATOM_COUNT>
35

> <PUBCHEM_ATOM_DEF_STEREO_COUNT>
8

> <PUBCHEM_ATOM_UDEF_STEREO_COUNT>
0

> <PUBCHEM_BOND_DEF_STEREO_COUNT>
0

> <PUBCHEM_BOND_UDEF_STEREO_COUNT>
0

> <PUBCHEM_ISOTOPIC_ATOM_COUNT>
0

> <PUBCHEM_COMPONENT_COUNT>
1

> <PUBCHEM_CACTVS_TAUTO_COUNT>
6

> <PUBCHEM_COORDINATE_TYPE>
1
5
255

> <PUBCHEM_BONDANNOTATIONS>
12  1  6
10  36  6
11  37  5
16  24  6
18  25  5
13  3  6
32  33  8
33  34  8
34  35  8
17  4  5
8  32  8
8  35  8
9  20  5

$$$$

