23674995
  -OEChem-07051213042D

 54 56  0     1  0  0  0  0  0999 V2000
    9.2365   -0.5811    0.0000 S   0  0  0  0  0  0  0  0  0  0  0  0
    9.1854   -4.8444    0.0000 Na  0  3  0  0  0  0  0  0  0  0  0  0
    6.5715   -2.6028    0.0000 O   0  0  0  0  0  0  0  0  0  0  0  0
    8.8764   -3.8934    0.0000 O   0  5  0  0  0  0  0  0  0  0  0  0
   10.5236   -3.3581    0.0000 O   0  0  0  0  0  0  0  0  0  0  0  0
    5.3442   -1.3997    0.0000 O   0  0  0  0  0  0  0  0  0  0  0  0
    4.4545    1.9482    0.0000 O   0  0  0  0  0  0  0  0  0  0  0  0
    6.1266    1.4965    0.0000 O   0  0  0  0  0  0  0  0  0  0  0  0
    8.2854   -1.8901    0.0000 N   0  0  0  0  0  0  0  0  0  0  0  0
    6.5715   -0.1774    0.0000 N   0  0  0  0  0  0  0  0  0  0  0  0
    8.2854   -0.8901    0.0000 C   0  0  1  0  0  0  0  0  0  0  0  0
    9.8242   -1.3901    0.0000 C   0  0  0  0  0  0  0  0  0  0  0  0
    9.2365   -2.1992    0.0000 C   0  0  2  0  0  0  0  0  0  0  0  0
    7.2771   -0.8860    0.0000 C   0  0  1  0  0  0  0  0  0  0  0  0
    7.2771   -1.8943    0.0000 C   0  0  0  0  0  0  0  0  0  0  0  0
   10.6333   -0.8024    0.0000 C   0  0  0  0  0  0  0  0  0  0  0  0
   10.6333   -1.9779    0.0000 C   0  0  0  0  0  0  0  0  0  0  0  0
    9.5455   -3.1502    0.0000 C   0  0  0  0  0  0  0  0  0  0  0  0
    5.6050   -0.4343    0.0000 C   0  0  0  0  0  0  0  0  0  0  0  0
    4.8994    0.2743    0.0000 C   0  0  3  0  0  0  0  0  0  0  0  0
    3.9329    0.0175    0.0000 C   0  0  0  0  0  0  0  0  0  0  0  0
    5.1602    1.2397    0.0000 C   0  0  0  0  0  0  0  0  0  0  0  0
    3.2273    0.7260    0.0000 C   0  0  0  0  0  0  0  0  0  0  0  0
    3.6721   -0.9479    0.0000 C   0  0  0  0  0  0  0  0  0  0  0  0
    2.2608    0.4692    0.0000 C   0  0  0  0  0  0  0  0  0  0  0  0
    2.7056   -1.2048    0.0000 C   0  0  0  0  0  0  0  0  0  0  0  0
    2.0000   -0.4962    0.0000 C   0  0  0  0  0  0  0  0  0  0  0  0
    4.7153    2.9136    0.0000 C   0  0  0  0  0  0  0  0  0  0  0  0
    5.6818    3.1705    0.0000 C   0  0  0  0  0  0  0  0  0  0  0  0
    4.0097    3.6222    0.0000 C   0  0  0  0  0  0  0  0  0  0  0  0
    5.9426    4.1359    0.0000 C   0  0  0  0  0  0  0  0  0  0  0  0
    4.2705    4.5876    0.0000 C   0  0  0  0  0  0  0  0  0  0  0  0
    5.2369    4.8444    0.0000 C   0  0  0  0  0  0  0  0  0  0  0  0
    8.1542   -0.0503    0.0000 H   0  0  0  0  0  0  0  0  0  0  0  0
    8.7981   -2.6376    0.0000 H   0  0  0  0  0  0  0  0  0  0  0  0
    6.7041   -1.1227    0.0000 H   0  0  0  0  0  0  0  0  0  0  0  0
   10.2688   -2.4795    0.0000 H   0  0  0  0  0  0  0  0  0  0  0  0
   11.1349   -2.3424    0.0000 H   0  0  0  0  0  0  0  0  0  0  0  0
   10.9977   -1.4763    0.0000 H   0  0  0  0  0  0  0  0  0  0  0  0
   10.9977   -1.3039    0.0000 H   0  0  0  0  0  0  0  0  0  0  0  0
   11.1349   -0.4379    0.0000 H   0  0  0  0  0  0  0  0  0  0  0  0
   10.2688   -0.3008    0.0000 H   0  0  0  0  0  0  0  0  0  0  0  0
    6.7332    0.4211    0.0000 H   0  0  0  0  0  0  0  0  0  0  0  0
    4.7377   -0.3243    0.0000 H   0  0  0  0  0  0  0  0  0  0  0  0
    3.3890    1.3246    0.0000 H   0  0  0  0  0  0  0  0  0  0  0  0
    4.1096   -1.3872    0.0000 H   0  0  0  0  0  0  0  0  0  0  0  0
    1.8233    0.9085    0.0000 H   0  0  0  0  0  0  0  0  0  0  0  0
    2.5440   -1.8033    0.0000 H   0  0  0  0  0  0  0  0  0  0  0  0
    1.4008   -0.6554    0.0000 H   0  0  0  0  0  0  0  0  0  0  0  0
    6.1193    2.7312    0.0000 H   0  0  0  0  0  0  0  0  0  0  0  0
    3.4105    3.4630    0.0000 H   0  0  0  0  0  0  0  0  0  0  0  0
    6.5418    4.2951    0.0000 H   0  0  0  0  0  0  0  0  0  0  0  0
    3.8330    5.0269    0.0000 H   0  0  0  0  0  0  0  0  0  0  0  0
    5.3986    5.4430    0.0000 H   0  0  0  0  0  0  0  0  0  0  0  0
  1 11  1  0  0  0  0
  1 12  1  0  0  0  0
  3 15  2  0  0  0  0
  4 18  1  0  0  0  0
  5 18  2  0  0  0  0
  6 19  2  0  0  0  0
  7 22  1  0  0  0  0
  7 28  1  0  0  0  0
  8 22  2  0  0  0  0
  9 11  1  0  0  0  0
  9 13  1  0  0  0  0
  9 15  1  0  0  0  0
 14 10  1  1  0  0  0
 10 19  1  0  0  0  0
 10 43  1  0  0  0  0
 11 14  1  0  0  0  0
 11 34  1  6  0  0  0
 12 13  1  0  0  0  0
 12 16  1  0  0  0  0
 12 17  1  0  0  0  0
 13 18  1  6  0  0  0
 13 35  1  0  0  0  0
 14 15  1  0  0  0  0
 14 36  1  0  0  0  0
 16 40  1  0  0  0  0
 16 41  1  0  0  0  0
 16 42  1  0  0  0  0
 17 37  1  0  0  0  0
 17 38  1  0  0  0  0
 17 39  1  0  0  0  0
 19 20  1  0  0  0  0
 20 21  1  0  0  0  0
 20 22  1  0  0  0  0
 20 44  1  0  0  0  0
 21 23  2  0  0  0  0
 21 24  1  0  0  0  0
 23 25  1  0  0  0  0
 23 45  1  0  0  0  0
 24 26  2  0  0  0  0
 24 46  1  0  0  0  0
 25 27  2  0  0  0  0
 25 47  1  0  0  0  0
 26 27  1  0  0  0  0
 26 48  1  0  0  0  0
 27 49  1  0  0  0  0
 28 29  2  0  0  0  0
 28 30  1  0  0  0  0
 29 31  1  0  0  0  0
 29 50  1  0  0  0  0
 30 32  2  0  0  0  0
 30 51  1  0  0  0  0
 31 33  2  0  0  0  0
 31 52  1  0  0  0  0
 32 33  1  0  0  0  0
 32 53  1  0  0  0  0
 33 54  1  0  0  0  0
M  CHG  2   2   1   4  -1
M  END
> <PUBCHEM_COMPOUND_CID>
23674995

> <PUBCHEM_COMPOUND_CANONICALIZED>
1

> <PUBCHEM_CACTVS_COMPLEXITY>
781

> <PUBCHEM_CACTVS_HBOND_ACCEPTOR>
7

> <PUBCHEM_CACTVS_HBOND_DONOR>
1

> <PUBCHEM_CACTVS_ROTATABLE_BOND>
7

> <PUBCHEM_CACTVS_SUBSKEYS>
AAADceB7OCBAAAAAAAAAAAAAAABYAWAAAAAwYAAABYAAAAABQAAAHgQQAAAADSzF2ASyDoPABAiIAiHSGAACCABgIBAIiIGOCIgOZj6stTuWOiCm9hG4qAeYyOCOgAAAAAAAAAAAAAAAAAAAAAAAAAAAAA==

> <PUBCHEM_IUPAC_OPENEYE_NAME>
sodium (2S,5R,6R)-3,3-dimethyl-7-oxo-6-[(3-oxo-3-phenoxy-2-phenyl-propanoyl)amino]-4-thia-1-azabicyclo[3.2.0]heptane-2-carboxylate

> <PUBCHEM_IUPAC_CAS_NAME>
sodium (2S,5R,6R)-6-[(1,3-dioxo-3-phenoxy-2-phenylpropyl)amino]-3,3-dimethyl-7-oxo-4-thia-1-azabicyclo[3.2.0]heptane-2-carboxylate

> <PUBCHEM_IUPAC_NAME>
sodium (2S,5R,6R)-3,3-dimethyl-7-oxo-6-[(3-oxo-3-phenoxy-2-phenylpropanoyl)amino]-4-thia-1-azabicyclo[3.2.0]heptane-2-carboxylate

> <PUBCHEM_IUPAC_SYSTEMATIC_NAME>
sodium (2S,5R,6R)-3,3-dimethyl-7-oxidanylidene-6-[(3-oxidanylidene-3-phenoxy-2-phenyl-propanoyl)amino]-4-thia-1-azabicyclo[3.2.0]heptane-2-carboxylate

> <PUBCHEM_IUPAC_TRADITIONAL_NAME>
sodium (2S,5R,6R)-7-keto-6-[(3-keto-3-phenoxy-2-phenyl-propanoyl)amino]-3,3-dimethyl-4-thia-1-azabicyclo[3.2.0]heptane-2-carboxylate

> <PUBCHEM_IUPAC_INCHI>
InChI=1S/C23H22N2O6S.Na/c1-23(2)17(21(28)29)25-19(27)16(20(25)32-23)24-18(26)15(13-9-5-3-6-10-13)22(30)31-14-11-7-4-8-12-14;/h3-12,15-17,20H,1-2H3,(H,24,26)(H,28,29);/q;+1/p-1/t15?,16-,17+,20-;/m1./s1

> <PUBCHEM_IUPAC_INCHIKEY>
JXSBZDNBNJTHBJ-JPZUGYNPSA-M

> <PUBCHEM_EXACT_MASS>
476.101802

> <PUBCHEM_MOLECULAR_FORMULA>
C23H21N2NaO6S

> <PUBCHEM_MOLECULAR_WEIGHT>
476.477409

> <PUBCHEM_OPENEYE_CAN_SMILES>
CC1(C(N2C(S1)C(C2=O)NC(=O)C(C3=CC=CC=C3)C(=O)OC4=CC=CC=C4)C(=O)[O-])C.[Na+]

> <PUBCHEM_OPENEYE_ISO_SMILES>
CC1([C@@H](N2[C@H](S1)[C@@H](C2=O)NC(=O)C(C3=CC=CC=C3)C(=O)OC4=CC=CC=C4)C(=O)[O-])C.[Na+]

> <PUBCHEM_CACTVS_TPSA>
141

> <PUBCHEM_MONOISOTOPIC_WEIGHT>
476.101802

> <PUBCHEM_TOTAL_CHARGE>
0

> <PUBCHEM_HEAVY_ATOM_COUNT>
33

> <PUBCHEM_ATOM_DEF_STEREO_COUNT>
3

> <PUBCHEM_ATOM_UDEF_STEREO_COUNT>
1

> <PUBCHEM_BOND_DEF_STEREO_COUNT>
0

> <PUBCHEM_BOND_UDEF_STEREO_COUNT>
0

> <PUBCHEM_ISOTOPIC_ATOM_COUNT>
0

> <PUBCHEM_COMPONENT_COUNT>
2

> <PUBCHEM_CACTVS_TAUTO_COUNT>
4

> <PUBCHEM_NONSTANDARDBOND>
2  4  7

> <PUBCHEM_COORDINATE_TYPE>
1
5
255

> <PUBCHEM_BONDANNOTATIONS>
14  10  5
11  34  6
13  18  6
20  22  3
21  23  8
21  24  8
23  25  8
24  26  8
25  27  8
26  27  8
28  29  8
28  30  8
29  31  8
30  32  8
31  33  8
32  33  8

$$$$

