23724611
  -OEChem-07051213082D

118119  0     1  0  0  0  0  0999 V2000
    5.1350   -0.7500    0.0000 O   0  0  0  0  0  0  0  0  0  0  0  0
    4.2690    0.7500    0.0000 O   0  0  0  0  0  0  0  0  0  0  0  0
    2.5369   -2.2500    0.0000 O   0  0  0  0  0  0  0  0  0  0  0  0
    4.2690   -3.2500    0.0000 O   0  0  0  0  0  0  0  0  0  0  0  0
    2.5369   -0.2500    0.0000 O   0  0  0  0  0  0  0  0  0  0  0  0
    5.1350    3.2500    0.0000 O   0  0  0  0  0  0  0  0  0  0  0  0
   25.0536   -0.2500    0.0000 C   0  0  0  0  0  0  0  0  0  0  0  0
   25.9196   -0.7500    0.0000 C   0  0  0  0  0  0  0  0  0  0  0  0
   26.7856   -0.2500    0.0000 C   0  0  0  0  0  0  0  0  0  0  0  0
   25.0536    0.7500    0.0000 C   0  0  0  0  0  0  0  0  0  0  0  0
   26.7856    0.7500    0.0000 C   0  0  0  0  0  0  0  0  0  0  0  0
   25.9196    1.2500    0.0000 C   0  0  0  0  0  0  0  0  0  0  0  0
   24.5536   -1.1160    0.0000 C   0  0  0  0  0  0  0  0  0  0  0  0
   24.0536   -0.2500    0.0000 C   0  0  0  0  0  0  0  0  0  0  0  0
    3.4030   -1.7500    0.0000 C   0  0  2  0  0  0  0  0  0  0  0  0
    4.2690   -2.2500    0.0000 C   0  0  1  0  0  0  0  0  0  0  0  0
    3.4030   -0.7500    0.0000 C   0  0  1  0  0  0  0  0  0  0  0  0
    5.1350   -1.7500    0.0000 C   0  0  2  0  0  0  0  0  0  0  0  0
    4.2690   -0.2500    0.0000 C   0  0  1  0  0  0  0  0  0  0  0  0
   24.1876    1.2500    0.0000 C   0  0  0  0  0  0  0  0  0  0  0  0
   25.9196    2.2500    0.0000 C   0  0  0  0  0  0  0  0  0  0  0  0
    5.1350    1.2500    0.0000 C   0  0  2  0  0  0  0  0  0  0  0  0
    6.0010   -2.2500    0.0000 C   0  0  0  0  0  0  0  0  0  0  0  0
    5.1350    2.2500    0.0000 C   0  0  0  0  0  0  0  0  0  0  0  0
   23.3215    0.7500    0.0000 C   0  0  0  0  0  0  0  0  0  0  0  0
    6.0010    0.7500    0.0000 C   0  0  0  0  0  0  0  0  0  0  0  0
    6.1350    2.2500    0.0000 C   0  0  0  0  0  0  0  0  0  0  0  0
    4.1350    2.2500    0.0000 C   0  0  0  0  0  0  0  0  0  0  0  0
   22.4555    1.2500    0.0000 C   0  0  0  0  0  0  0  0  0  0  0  0
    6.8671    1.2500    0.0000 C   0  0  0  0  0  0  0  0  0  0  0  0
   22.4555    2.2500    0.0000 C   0  0  0  0  0  0  0  0  0  0  0  0
   21.5895    0.7500    0.0000 C   0  0  0  0  0  0  0  0  0  0  0  0
    7.7331    0.7500    0.0000 C   0  0  0  0  0  0  0  0  0  0  0  0
   20.7235    1.2500    0.0000 C   0  0  0  0  0  0  0  0  0  0  0  0
    7.7331   -0.2500    0.0000 C   0  0  0  0  0  0  0  0  0  0  0  0
    8.5991    1.2500    0.0000 C   0  0  0  0  0  0  0  0  0  0  0  0
   19.8574    0.7500    0.0000 C   0  0  0  0  0  0  0  0  0  0  0  0
    9.4651    0.7500    0.0000 C   0  0  0  0  0  0  0  0  0  0  0  0
   18.9914    1.2500    0.0000 C   0  0  0  0  0  0  0  0  0  0  0  0
   10.3312    1.2500    0.0000 C   0  0  0  0  0  0  0  0  0  0  0  0
   18.9914    2.2500    0.0000 C   0  0  0  0  0  0  0  0  0  0  0  0
   18.1254    0.7500    0.0000 C   0  0  0  0  0  0  0  0  0  0  0  0
   11.1972    0.7500    0.0000 C   0  0  0  0  0  0  0  0  0  0  0  0
   17.2594    1.2500    0.0000 C   0  0  0  0  0  0  0  0  0  0  0  0
   11.1972   -0.2500    0.0000 C   0  0  0  0  0  0  0  0  0  0  0  0
   12.0632    1.2500    0.0000 C   0  0  0  0  0  0  0  0  0  0  0  0
   16.3933    0.7500    0.0000 C   0  0  0  0  0  0  0  0  0  0  0  0
   12.9292    0.7500    0.0000 C   0  0  0  0  0  0  0  0  0  0  0  0
   15.5273    1.2500    0.0000 C   0  0  0  0  0  0  0  0  0  0  0  0
   13.7953    1.2500    0.0000 C   0  0  0  0  0  0  0  0  0  0  0  0
   14.6613    0.7500    0.0000 C   0  0  0  0  0  0  0  0  0  0  0  0
   14.6613   -0.2500    0.0000 C   0  0  0  0  0  0  0  0  0  0  0  0
   25.5211   -1.2250    0.0000 H   0  0  0  0  0  0  0  0  0  0  0  0
   26.3182   -1.2250    0.0000 H   0  0  0  0  0  0  0  0  0  0  0  0
   26.9977   -0.8326    0.0000 H   0  0  0  0  0  0  0  0  0  0  0  0
   27.3962   -0.1423    0.0000 H   0  0  0  0  0  0  0  0  0  0  0  0
   27.3962    0.6423    0.0000 H   0  0  0  0  0  0  0  0  0  0  0  0
   26.9977    1.3326    0.0000 H   0  0  0  0  0  0  0  0  0  0  0  0
   24.0536    0.3700    0.0000 H   0  0  0  0  0  0  0  0  0  0  0  0
   23.4336   -0.2500    0.0000 H   0  0  0  0  0  0  0  0  0  0  0  0
   24.0536   -0.8700    0.0000 H   0  0  0  0  0  0  0  0  0  0  0  0
   24.0167   -0.8060    0.0000 H   0  0  0  0  0  0  0  0  0  0  0  0
   24.2436   -1.6530    0.0000 H   0  0  0  0  0  0  0  0  0  0  0  0
   25.0905   -1.4260    0.0000 H   0  0  0  0  0  0  0  0  0  0  0  0
    3.4030   -2.3700    0.0000 H   0  0  0  0  0  0  0  0  0  0  0  0
    4.8059   -2.5600    0.0000 H   0  0  0  0  0  0  0  0  0  0  0  0
    3.4030   -0.1300    0.0000 H   0  0  0  0  0  0  0  0  0  0  0  0
    5.6720   -1.4400    0.0000 H   0  0  0  0  0  0  0  0  0  0  0  0
    3.7320    0.0600    0.0000 H   0  0  0  0  0  0  0  0  0  0  0  0
   24.1876    1.8700    0.0000 H   0  0  0  0  0  0  0  0  0  0  0  0
   26.5396    2.2500    0.0000 H   0  0  0  0  0  0  0  0  0  0  0  0
   25.9196    2.8700    0.0000 H   0  0  0  0  0  0  0  0  0  0  0  0
   25.2996    2.2500    0.0000 H   0  0  0  0  0  0  0  0  0  0  0  0
    5.1350    0.6300    0.0000 H   0  0  0  0  0  0  0  0  0  0  0  0
    5.6910   -2.7869    0.0000 H   0  0  0  0  0  0  0  0  0  0  0  0
    6.5380   -2.5600    0.0000 H   0  0  0  0  0  0  0  0  0  0  0  0
    6.3110   -1.7131    0.0000 H   0  0  0  0  0  0  0  0  0  0  0  0
   23.3215    0.1300    0.0000 H   0  0  0  0  0  0  0  0  0  0  0  0
    2.5369   -2.8700    0.0000 H   0  0  0  0  0  0  0  0  0  0  0  0
    4.8059   -3.5600    0.0000 H   0  0  0  0  0  0  0  0  0  0  0  0
    2.0000   -0.5600    0.0000 H   0  0  0  0  0  0  0  0  0  0  0  0
    6.0010    0.1300    0.0000 H   0  0  0  0  0  0  0  0  0  0  0  0
    4.1350    2.8700    0.0000 H   0  0  0  0  0  0  0  0  0  0  0  0
    3.5150    2.2500    0.0000 H   0  0  0  0  0  0  0  0  0  0  0  0
    4.1350    1.6300    0.0000 H   0  0  0  0  0  0  0  0  0  0  0  0
    6.1350    1.6300    0.0000 H   0  0  0  0  0  0  0  0  0  0  0  0
    6.7550    2.2500    0.0000 H   0  0  0  0  0  0  0  0  0  0  0  0
    6.1350    2.8700    0.0000 H   0  0  0  0  0  0  0  0  0  0  0  0
    4.5981    3.5600    0.0000 H   0  0  0  0  0  0  0  0  0  0  0  0
    6.8671    1.8700    0.0000 H   0  0  0  0  0  0  0  0  0  0  0  0
   23.0755    2.2500    0.0000 H   0  0  0  0  0  0  0  0  0  0  0  0
   22.4555    2.8700    0.0000 H   0  0  0  0  0  0  0  0  0  0  0  0
   21.8355    2.2500    0.0000 H   0  0  0  0  0  0  0  0  0  0  0  0
   21.5895    0.1300    0.0000 H   0  0  0  0  0  0  0  0  0  0  0  0
   20.7235    1.8700    0.0000 H   0  0  0  0  0  0  0  0  0  0  0  0
    7.1131   -0.2500    0.0000 H   0  0  0  0  0  0  0  0  0  0  0  0
    7.7331   -0.8700    0.0000 H   0  0  0  0  0  0  0  0  0  0  0  0
    8.3531   -0.2500    0.0000 H   0  0  0  0  0  0  0  0  0  0  0  0
    8.5991    1.8700    0.0000 H   0  0  0  0  0  0  0  0  0  0  0  0
   19.8574    0.1300    0.0000 H   0  0  0  0  0  0  0  0  0  0  0  0
    9.4651    0.1300    0.0000 H   0  0  0  0  0  0  0  0  0  0  0  0
   10.3312    1.8700    0.0000 H   0  0  0  0  0  0  0  0  0  0  0  0
   19.6114    2.2500    0.0000 H   0  0  0  0  0  0  0  0  0  0  0  0
   18.9914    2.8700    0.0000 H   0  0  0  0  0  0  0  0  0  0  0  0
   18.3714    2.2500    0.0000 H   0  0  0  0  0  0  0  0  0  0  0  0
   18.1254    0.1300    0.0000 H   0  0  0  0  0  0  0  0  0  0  0  0
   10.5772   -0.2500    0.0000 H   0  0  0  0  0  0  0  0  0  0  0  0
   11.1972   -0.8700    0.0000 H   0  0  0  0  0  0  0  0  0  0  0  0
   11.8172   -0.2500    0.0000 H   0  0  0  0  0  0  0  0  0  0  0  0
   17.2594    1.8700    0.0000 H   0  0  0  0  0  0  0  0  0  0  0  0
   12.0632    1.8700    0.0000 H   0  0  0  0  0  0  0  0  0  0  0  0
   16.3933    0.1300    0.0000 H   0  0  0  0  0  0  0  0  0  0  0  0
   12.9292    0.1300    0.0000 H   0  0  0  0  0  0  0  0  0  0  0  0
   15.5273    1.8700    0.0000 H   0  0  0  0  0  0  0  0  0  0  0  0
   13.7953    1.8700    0.0000 H   0  0  0  0  0  0  0  0  0  0  0  0
   14.0413   -0.2500    0.0000 H   0  0  0  0  0  0  0  0  0  0  0  0
   14.6613   -0.8700    0.0000 H   0  0  0  0  0  0  0  0  0  0  0  0
   15.2813   -0.2500    0.0000 H   0  0  0  0  0  0  0  0  0  0  0  0
  1 18  1  0  0  0  0
  1 19  1  0  0  0  0
 19  2  1  6  0  0  0
 22  2  1  6  0  0  0
 15  3  1  1  0  0  0
  3 79  1  0  0  0  0
 16  4  1  1  0  0  0
  4 80  1  0  0  0  0
 17  5  1  6  0  0  0
  5 81  1  0  0  0  0
  6 24  1  0  0  0  0
  6 89  1  0  0  0  0
  7  8  1  0  0  0  0
  7 10  1  0  0  0  0
  7 13  1  0  0  0  0
  7 14  1  0  0  0  0
  8  9  1  0  0  0  0
  8 53  1  0  0  0  0
  8 54  1  0  0  0  0
  9 11  1  0  0  0  0
  9 55  1  0  0  0  0
  9 56  1  0  0  0  0
 10 12  2  0  0  0  0
 10 20  1  0  0  0  0
 11 12  1  0  0  0  0
 11 57  1  0  0  0  0
 11 58  1  0  0  0  0
 12 21  1  0  0  0  0
 13 62  1  0  0  0  0
 13 63  1  0  0  0  0
 13 64  1  0  0  0  0
 14 59  1  0  0  0  0
 14 60  1  0  0  0  0
 14 61  1  0  0  0  0
 15 16  1  0  0  0  0
 15 17  1  0  0  0  0
 15 65  1  0  0  0  0
 16 18  1  0  0  0  0
 16 66  1  0  0  0  0
 17 19  1  0  0  0  0
 17 67  1  0  0  0  0
 18 23  1  1  0  0  0
 18 68  1  0  0  0  0
 19 69  1  0  0  0  0
 20 25  2  0  0  0  0
 20 70  1  0  0  0  0
 21 71  1  0  0  0  0
 21 72  1  0  0  0  0
 21 73  1  0  0  0  0
 22 24  1  0  0  0  0
 22 26  1  0  0  0  0
 22 74  1  0  0  0  0
 23 75  1  0  0  0  0
 23 76  1  0  0  0  0
 23 77  1  0  0  0  0
 24 27  1  0  0  0  0
 24 28  1  0  0  0  0
 25 29  1  0  0  0  0
 25 78  1  0  0  0  0
 26 30  2  0  0  0  0
 26 82  1  0  0  0  0
 27 86  1  0  0  0  0
 27 87  1  0  0  0  0
 27 88  1  0  0  0  0
 28 83  1  0  0  0  0
 28 84  1  0  0  0  0
 28 85  1  0  0  0  0
 29 31  1  0  0  0  0
 29 32  2  0  0  0  0
 30 33  1  0  0  0  0
 30 90  1  0  0  0  0
 31 91  1  0  0  0  0
 31 92  1  0  0  0  0
 31 93  1  0  0  0  0
 32 34  1  0  0  0  0
 32 94  1  0  0  0  0
 33 35  1  0  0  0  0
 33 36  2  0  0  0  0
 34 37  2  0  0  0  0
 34 95  1  0  0  0  0
 35 96  1  0  0  0  0
 35 97  1  0  0  0  0
 35 98  1  0  0  0  0
 36 38  1  0  0  0  0
 36 99  1  0  0  0  0
 37 39  1  0  0  0  0
 37100  1  0  0  0  0
 38 40  2  0  0  0  0
 38101  1  0  0  0  0
 39 41  1  0  0  0  0
 39 42  2  0  0  0  0
 40 43  1  0  0  0  0
 40102  1  0  0  0  0
 41103  1  0  0  0  0
 41104  1  0  0  0  0
 41105  1  0  0  0  0
 42 44  1  0  0  0  0
 42106  1  0  0  0  0
 43 45  1  0  0  0  0
 43 46  2  0  0  0  0
 44 47  2  0  0  0  0
 44110  1  0  0  0  0
 45107  1  0  0  0  0
 45108  1  0  0  0  0
 45109  1  0  0  0  0
 46 48  1  0  0  0  0
 46111  1  0  0  0  0
 47 49  1  0  0  0  0
 47112  1  0  0  0  0
 48 50  2  0  0  0  0
 48113  1  0  0  0  0
 49 51  2  0  0  0  0
 49114  1  0  0  0  0
 50 51  1  0  0  0  0
 50115  1  0  0  0  0
 51 52  1  0  0  0  0
 52116  1  0  0  0  0
 52117  1  0  0  0  0
 52118  1  0  0  0  0
M  END
> <PUBCHEM_COMPOUND_CID>
23724611

> <PUBCHEM_COMPOUND_CANONICALIZED>
1

> <PUBCHEM_CACTVS_COMPLEXITY>
1550

> <PUBCHEM_CACTVS_HBOND_ACCEPTOR>
6

> <PUBCHEM_CACTVS_HBOND_DONOR>
4

> <PUBCHEM_CACTVS_ROTATABLE_BOND>
15

> <PUBCHEM_CACTVS_SUBSKEYS>
AAADcfB8OAAAAAAAAAAAAAAAAAAAAAAAAAAkQAAAAAAAAAAAAAAAGgAACAAADlSwgAMCCAAABgCAAiBCAAAAAAAgAAAICAAAAAgZFAIAIQAiUAAFwAAPoAPA4MwPAAAAAAAAAAAAAAAAAAAAAAAAAAAAAA==

> <PUBCHEM_IUPAC_OPENEYE_NAME>
(2S,3S,4R,5S,6S)-2-[(1S,2E,4E,6E,8E,10E,12E,14E,16E,18E,20E,22E)-1-(1-hydroxy-1-methyl-ethyl)-4,8,12,17,21-pentamethyl-23-(2,6,6-trimethylcyclohexen-1-yl)tricosa-2,4,6,8,10,12,14,16,18,20,22-undecaenoxy]-6-methyl-tetrahydropyran-3,4,5-triol

> <PUBCHEM_IUPAC_CAS_NAME>
(2S,3S,4R,5S,6S)-2-[(3S,4E,6E,8E,10E,12E,14E,16E,18E,20E,22E,24E)-2-hydroxy-2,6,10,14,19,23-hexamethyl-25-(2,6,6-trimethyl-1-cyclohexenyl)pentacosa-4,6,8,10,12,14,16,18,20,22,24-undecaen-3-yl]oxy-6-methyloxane-3,4,5-triol

> <PUBCHEM_IUPAC_NAME>
(2S,3S,4R,5S,6S)-2-[(3S,4E,6E,8E,10E,12E,14E,16E,18E,20E,22E,24E)-2-hydroxy-2,6,10,14,19,23-hexamethyl-25-(2,6,6-trimethylcyclohexen-1-yl)pentacosa-4,6,8,10,12,14,16,18,20,22,24-undecaen-3-yl]oxy-6-methyloxane-3,4,5-triol

> <PUBCHEM_IUPAC_SYSTEMATIC_NAME>
(2S,3S,4R,5S,6S)-2-[(3S,4E,6E,8E,10E,12E,14E,16E,18E,20E,22E,24E)-2,6,10,14,19,23-hexamethyl-2-oxidanyl-25-(2,6,6-trimethylcyclohexen-1-yl)pentacosa-4,6,8,10,12,14,16,18,20,22,24-undecaen-3-yl]oxy-6-methyl-oxane-3,4,5-triol

> <PUBCHEM_IUPAC_TRADITIONAL_NAME>
(2S,3S,4R,5S,6S)-2-[(1S,2E,4E,6E,8E,10E,12E,14E,16E,18E,20E,22E)-1-(1-hydroxy-1-methyl-ethyl)-4,8,12,17,21-pentamethyl-23-(2,6,6-trimethylcyclohexen-1-yl)tricosa-2,4,6,8,10,12,14,16,18,20,22-undecaenoxy]-6-methyl-tetrahydropyran-3,4,5-triol

> <PUBCHEM_IUPAC_INCHI>
InChI=1S/C46H66O6/c1-32(18-12-13-19-33(2)21-15-24-35(4)27-29-39-37(6)26-17-31-45(39,8)9)20-14-22-34(3)23-16-25-36(5)28-30-40(46(10,11)50)52-44-43(49)42(48)41(47)38(7)51-44/h12-16,18-25,27-30,38,40-44,47-50H,17,26,31H2,1-11H3/b13-12+,20-14+,21-15+,23-16+,29-27+,30-28+,32-18+,33-19+,34-22+,35-24+,36-25+/t38-,40-,41+,42+,43-,44-/m0/s1

> <PUBCHEM_IUPAC_INCHIKEY>
LQRQZOJVMFJJLX-LJSSMQLHSA-N

> <PUBCHEM_XLOGP3_AA>
11

> <PUBCHEM_EXACT_MASS>
714.48594

> <PUBCHEM_MOLECULAR_FORMULA>
C46H66O6

> <PUBCHEM_MOLECULAR_WEIGHT>
715.01264

> <PUBCHEM_OPENEYE_CAN_SMILES>
CC1C(C(C(C(O1)OC(C=CC(=CC=CC(=CC=CC(=CC=CC=C(C)C=CC=C(C)C=CC2=C(CCCC2(C)C)C)C)C)C)C(C)(C)O)O)O)O

> <PUBCHEM_OPENEYE_ISO_SMILES>
C[C@H]1[C@H]([C@H]([C@@H]([C@@H](O1)O[C@@H](/C=C/C(=C/C=C/C(=C/C=C/C(=C/C=C/C=C(\C)/C=C/C=C(\C)/C=C/C2=C(CCCC2(C)C)C)/C)/C)/C)C(C)(C)O)O)O)O

> <PUBCHEM_CACTVS_TPSA>
99.4

> <PUBCHEM_MONOISOTOPIC_WEIGHT>
714.48594

> <PUBCHEM_TOTAL_CHARGE>
0

> <PUBCHEM_HEAVY_ATOM_COUNT>
52

> <PUBCHEM_ATOM_DEF_STEREO_COUNT>
6

> <PUBCHEM_ATOM_UDEF_STEREO_COUNT>
0

> <PUBCHEM_BOND_DEF_STEREO_COUNT>
11

> <PUBCHEM_BOND_UDEF_STEREO_COUNT>
0

> <PUBCHEM_ISOTOPIC_ATOM_COUNT>
0

> <PUBCHEM_COMPONENT_COUNT>
1

> <PUBCHEM_CACTVS_TAUTO_COUNT>
1

> <PUBCHEM_COORDINATE_TYPE>
1
5
255

> <PUBCHEM_BONDANNOTATIONS>
18  23  5
19  2  6
22  2  6
15  3  5
16  4  5
17  5  6

$$$$

