15519422
  -OEChem-07051213032D

 64 66  0     1  0  0  0  0  0999 V2000
    6.0010    1.9768    0.0000 P   0  0  3  0  0  0  0  0  0  0  0  0
    6.8671    0.4768    0.0000 P   0  0  3  0  0  0  0  0  0  0  0  0
    4.2690    2.9768    0.0000 O   0  0  0  0  0  0  0  0  0  0  0  0
    8.7036   -2.5177    0.0000 O   0  0  0  0  0  0  0  0  0  0  0  0
    2.5369    4.9768    0.0000 O   0  0  0  0  0  0  0  0  0  0  0  0
    6.0010    2.9768    0.0000 O   0  0  0  0  0  0  0  0  0  0  0  0
    9.7206   -0.1383    0.0000 O   0  0  0  0  0  0  0  0  0  0  0  0
    7.7331   -0.0232    0.0000 O   0  0  0  0  0  0  0  0  0  0  0  0
    6.0010    0.9768    0.0000 O   0  0  0  0  0  0  0  0  0  0  0  0
    7.0010    1.9768    0.0000 O   0  0  0  0  0  0  0  0  0  0  0  0
    5.0010    1.9768    0.0000 O   0  0  0  0  0  0  0  0  0  0  0  0
    6.3671   -0.3892    0.0000 O   0  0  0  0  0  0  0  0  0  0  0  0
    8.5062   -4.3436    0.0000 O   0  0  0  0  0  0  0  0  0  0  0  0
    7.3671    1.3429    0.0000 O   0  0  0  0  0  0  0  0  0  0  0  0
   11.3087   -6.3798    0.0000 O   0  0  0  0  0  0  0  0  0  0  0  0
    4.7690    5.8428    0.0000 N   0  0  0  0  0  0  0  0  0  0  0  0
   10.0885   -3.6392    0.0000 N   0  0  0  0  0  0  0  0  0  0  0  0
    9.9075   -5.3617    0.0000 N   0  0  0  0  0  0  0  0  0  0  0  0
    4.2690    4.9768    0.0000 C   0  0  2  0  0  0  0  0  0  0  0  0
    3.4030    4.4768    0.0000 C   0  0  2  0  0  0  0  0  0  0  0  0
    5.1350    4.4768    0.0000 C   0  0  0  0  0  0  0  0  0  0  0  0
    3.4030    3.4768    0.0000 C   0  0  2  0  0  0  0  0  0  0  0  0
    5.1350    3.4768    0.0000 C   0  0  2  0  0  0  0  0  0  0  0  0
    3.7690    5.8428    0.0000 C   0  0  0  0  0  0  0  0  0  0  0  0
    9.5127   -1.1164    0.0000 C   0  0  2  0  0  0  0  0  0  0  0  0
    8.5991   -1.5232    0.0000 C   0  0  1  0  0  0  0  0  0  0  0  0
   10.1818   -1.8596    0.0000 C   0  0  0  0  0  0  0  0  0  0  0  0
    9.6818   -2.7256    0.0000 C   0  0  1  0  0  0  0  0  0  0  0  0
    2.5369    2.9768    0.0000 C   0  0  0  0  0  0  0  0  0  0  0  0
    7.7331   -1.0232    0.0000 C   0  0  0  0  0  0  0  0  0  0  0  0
   11.0830   -3.7437    0.0000 C   0  0  0  0  0  0  0  0  0  0  0  0
    9.5007   -4.4482    0.0000 C   0  0  0  0  0  0  0  0  0  0  0  0
   11.4898   -4.6572    0.0000 C   0  0  0  0  0  0  0  0  0  0  0  0
   10.9020   -5.4662    0.0000 C   0  0  0  0  0  0  0  0  0  0  0  0
   12.4843   -4.7618    0.0000 C   0  0  0  0  0  0  0  0  0  0  0  0
    3.4030    5.0968    0.0000 H   0  0  0  0  0  0  0  0  0  0  0  0
    5.7456    4.3692    0.0000 H   0  0  0  0  0  0  0  0  0  0  0  0
    5.3471    5.0594    0.0000 H   0  0  0  0  0  0  0  0  0  0  0  0
    3.4030    2.8568    0.0000 H   0  0  0  0  0  0  0  0  0  0  0  0
    5.1350    2.8568    0.0000 H   0  0  0  0  0  0  0  0  0  0  0  0
    4.3059    6.1528    0.0000 H   0  0  0  0  0  0  0  0  0  0  0  0
    3.4590    6.3798    0.0000 H   0  0  0  0  0  0  0  0  0  0  0  0
    3.2320    5.5328    0.0000 H   0  0  0  0  0  0  0  0  0  0  0  0
   10.1115   -0.9560    0.0000 H   0  0  0  0  0  0  0  0  0  0  0  0
    8.0791   -1.8608    0.0000 H   0  0  0  0  0  0  0  0  0  0  0  0
   10.6834   -2.2240    0.0000 H   0  0  0  0  0  0  0  0  0  0  0  0
   10.5967   -1.3988    0.0000 H   0  0  0  0  0  0  0  0  0  0  0  0
    9.2916   -3.2074    0.0000 H   0  0  0  0  0  0  0  0  0  0  0  0
    5.3890    5.8428    0.0000 H   0  0  0  0  0  0  0  0  0  0  0  0
    4.4590    6.3798    0.0000 H   0  0  0  0  0  0  0  0  0  0  0  0
    2.2269    3.5138    0.0000 H   0  0  0  0  0  0  0  0  0  0  0  0
    2.0000    2.6668    0.0000 H   0  0  0  0  0  0  0  0  0  0  0  0
    2.8469    2.4399    0.0000 H   0  0  0  0  0  0  0  0  0  0  0  0
    7.1225   -0.9155    0.0000 H   0  0  0  0  0  0  0  0  0  0  0  0
    7.5210   -1.6058    0.0000 H   0  0  0  0  0  0  0  0  0  0  0  0
    2.0000    4.6668    0.0000 H   0  0  0  0  0  0  0  0  0  0  0  0
   10.3102    0.0533    0.0000 H   0  0  0  0  0  0  0  0  0  0  0  0
   11.4475   -3.2421    0.0000 H   0  0  0  0  0  0  0  0  0  0  0  0
    9.5430   -5.8633    0.0000 H   0  0  0  0  0  0  0  0  0  0  0  0
    7.3110    2.5138    0.0000 H   0  0  0  0  0  0  0  0  0  0  0  0
   12.4195   -5.3784    0.0000 H   0  0  0  0  0  0  0  0  0  0  0  0
   13.1009   -4.8266    0.0000 H   0  0  0  0  0  0  0  0  0  0  0  0
   12.5491   -4.1452    0.0000 H   0  0  0  0  0  0  0  0  0  0  0  0
    5.7471   -0.3892    0.0000 H   0  0  0  0  0  0  0  0  0  0  0  0
  1  6  1  0  0  0  0
  1  9  1  0  0  0  0
  1 10  1  0  0  0  0
  1 11  2  0  0  0  0
  2  8  1  0  0  0  0
  2  9  1  0  0  0  0
  2 12  1  0  0  0  0
  2 14  2  0  0  0  0
  3 22  1  0  0  0  0
  3 23  1  0  0  0  0
  4 26  1  0  0  0  0
  4 28  1  0  0  0  0
 20  5  1  6  0  0  0
  5 56  1  0  0  0  0
 23  6  1  1  0  0  0
 25  7  1  1  0  0  0
  7 57  1  0  0  0  0
  8 30  1  0  0  0  0
 10 60  1  0  0  0  0
 12 64  1  0  0  0  0
 13 32  2  0  0  0  0
 15 34  2  0  0  0  0
 19 16  1  1  0  0  0
 16 49  1  0  0  0  0
 16 50  1  0  0  0  0
 28 17  1  6  0  0  0
 17 31  1  0  0  0  0
 17 32  1  0  0  0  0
 18 32  1  0  0  0  0
 18 34  1  0  0  0  0
 18 59  1  0  0  0  0
 19 20  1  0  0  0  0
 19 21  1  0  0  0  0
 19 24  1  0  0  0  0
 20 22  1  0  0  0  0
 20 36  1  0  0  0  0
 21 23  1  0  0  0  0
 21 37  1  0  0  0  0
 21 38  1  0  0  0  0
 22 29  1  1  0  0  0
 22 39  1  0  0  0  0
 23 40  1  0  0  0  0
 24 41  1  0  0  0  0
 24 42  1  0  0  0  0
 24 43  1  0  0  0  0
 25 26  1  0  0  0  0
 25 27  1  0  0  0  0
 25 44  1  0  0  0  0
 26 30  1  6  0  0  0
 26 45  1  0  0  0  0
 27 28  1  0  0  0  0
 27 46  1  0  0  0  0
 27 47  1  0  0  0  0
 28 48  1  0  0  0  0
 29 51  1  0  0  0  0
 29 52  1  0  0  0  0
 29 53  1  0  0  0  0
 30 54  1  0  0  0  0
 30 55  1  0  0  0  0
 31 33  2  0  0  0  0
 31 58  1  0  0  0  0
 33 34  1  0  0  0  0
 33 35  1  0  0  0  0
 35 61  1  0  0  0  0
 35 62  1  0  0  0  0
 35 63  1  0  0  0  0
M  END
> <PUBCHEM_COMPOUND_CID>
15519422

> <PUBCHEM_COMPOUND_CANONICALIZED>
1

> <PUBCHEM_CACTVS_COMPLEXITY>
979

> <PUBCHEM_CACTVS_HBOND_ACCEPTOR>
14

> <PUBCHEM_CACTVS_HBOND_DONOR>
6

> <PUBCHEM_CACTVS_ROTATABLE_BOND>
8

> <PUBCHEM_CACTVS_SUBSKEYS>
AAADceB7PAMAAAAAAAAAAAAAAAAAASAAAAAkQAAAAAAAAAAAAAAAHgAQCCAADJzxgAcDCAPABxCIQgFWUICAAAAAAAAAAAEIAECTEAIAgQAOQAAPFyIHAMHwcAYOAAAAAAAAAAAAAAAAAAAAAAAAAAAAAA==

> <PUBCHEM_IUPAC_OPENEYE_NAME>
[(2R,4S,5R,6S)-4-amino-5-hydroxy-4,6-dimethyl-tetrahydropyran-2-yl] [hydroxy-[[(2R,3S,5R)-3-hydroxy-5-(5-methyl-2,4-dioxo-pyrimidin-1-yl)tetrahydrofuran-2-yl]methoxy]phosphoryl] hydrogen phosphate

> <PUBCHEM_IUPAC_CAS_NAME>
[(2R,4S,5R,6S)-4-amino-5-hydroxy-4,6-dimethyl-2-oxanyl] [hydroxy-[[(2R,3S,5R)-3-hydroxy-5-(5-methyl-2,4-dioxo-1-pyrimidinyl)-2-oxolanyl]methoxy]phosphoryl] hydrogen phosphate

> <PUBCHEM_IUPAC_NAME>
[(2R,4S,5R,6S)-4-amino-5-hydroxy-4,6-dimethyloxan-2-yl] [hydroxy-[[(2R,3S,5R)-3-hydroxy-5-(5-methyl-2,4-dioxopyrimidin-1-yl)oxolan-2-yl]methoxy]phosphoryl] hydrogen phosphate

> <PUBCHEM_IUPAC_SYSTEMATIC_NAME>
[(2R,4S,5R,6S)-4-azanyl-4,6-dimethyl-5-oxidanyl-oxan-2-yl] [[(2R,3S,5R)-5-[5-methyl-2,4-bis(oxidanylidene)pyrimidin-1-yl]-3-oxidanyl-oxolan-2-yl]methoxy-oxidanyl-phosphoryl] hydrogen phosphate

> <PUBCHEM_IUPAC_TRADITIONAL_NAME>
[(2R,4S,5R,6S)-4-amino-5-hydroxy-4,6-dimethyl-tetrahydropyran-2-yl] [[(2R,3S,5R)-5-(2,4-diketo-5-methyl-pyrimidin-1-yl)-3-hydroxy-tetrahydrofuran-2-yl]methoxy-hydroxy-phosphoryl] hydrogen phosphate

> <PUBCHEM_IUPAC_INCHI>
InChI=1S/C17H29N3O13P2/c1-8-6-20(16(24)19-15(8)23)12-4-10(21)11(31-12)7-29-34(25,26)33-35(27,28)32-13-5-17(3,18)14(22)9(2)30-13/h6,9-14,21-22H,4-5,7,18H2,1-3H3,(H,25,26)(H,27,28)(H,19,23,24)/t9-,10-,11+,12+,13+,14-,17-/m0/s1

> <PUBCHEM_IUPAC_INCHIKEY>
HRODALWRJULFHW-FMVYZHRWSA-N

> <PUBCHEM_XLOGP3_AA>
-6.2

> <PUBCHEM_EXACT_MASS>
545.117561

> <PUBCHEM_MOLECULAR_FORMULA>
C17H29N3O13P2

> <PUBCHEM_MOLECULAR_WEIGHT>
545.371984

> <PUBCHEM_OPENEYE_CAN_SMILES>
CC1C(C(CC(O1)OP(=O)(O)OP(=O)(O)OCC2C(CC(O2)N3C=C(C(=O)NC3=O)C)O)(C)N)O

> <PUBCHEM_OPENEYE_ISO_SMILES>
C[C@H]1[C@@H]([C@@](C[C@H](O1)OP(=O)(O)OP(=O)(O)OC[C@@H]2[C@H](C[C@@H](O2)N3C=C(C(=O)NC3=O)C)O)(C)N)O

> <PUBCHEM_CACTVS_TPSA>
237

> <PUBCHEM_MONOISOTOPIC_WEIGHT>
545.117561

> <PUBCHEM_TOTAL_CHARGE>
0

> <PUBCHEM_HEAVY_ATOM_COUNT>
35

> <PUBCHEM_ATOM_DEF_STEREO_COUNT>
7

> <PUBCHEM_ATOM_UDEF_STEREO_COUNT>
0

> <PUBCHEM_BOND_DEF_STEREO_COUNT>
0

> <PUBCHEM_BOND_UDEF_STEREO_COUNT>
0

> <PUBCHEM_ISOTOPIC_ATOM_COUNT>
0

> <PUBCHEM_COMPONENT_COUNT>
1

> <PUBCHEM_CACTVS_TAUTO_COUNT>
3

> <PUBCHEM_COORDINATE_TYPE>
1
5
255

> <PUBCHEM_BONDANNOTATIONS>
19  16  5
28  17  6
17  31  8
17  32  8
18  32  8
18  34  8
22  29  5
26  30  6
31  33  8
33  34  8
20  5  6
23  6  5
25  7  5

$$$$

