   Color/Form
        Pale-yellow crystals
   from [1]HSDB

   Melting Point
        246 deg C with decomp
   from [2]HSDB

   Octanol/Water Partition Coefficient
        log Kow = 3.81 (est)
   from [3]HSDB

   Solubilities

     * Insol in strong aq alkali; sparingly sol in most organic solvents;
       readily sol in dimethylsulfoxide, chloroform, pyridine
     * 7138 MG/100 ML CHLOROFORM, 1815 MG/100 ML PYRIDINE
     * In water, 1.44 mg/L at 25 deg C (est)

   from [4]HSDB

   Spectral Properties

     * SPECIFIC OPTICAL ROTATION: -398 DEG @ 20 DEG C/D (CHLOROFORM, 1%)
     * Max absorption: 205, 233, 246 and 325 nm (log epsilon = 4.40, 4.49,
       4.53 and 4.21, respectively)

   from [5]HSDB

   Vapor Pressure
        1.73X10-10 mm Hg at 25 deg C (est)
   from [6]HSDB

   Other Chemical/Physical Properties

     * Forms deep-yellow color with aq sodium hydroxide and dark
       green-brown color with sulfuric acid; emits orange-red fluorescence
       in ultra-violet light
     * Henry's Law constant = 2.83X10-12 atm-cu m/mol at 25 deg C (est)
     * Hydroxyl radical reaction rate constant = 2.79X10-10 cu
       cm/molec-sec at 25 deg C (est)
     * Ozone radical rate constant = 5.7X10-17 cu cm/molec-sec (est)

   from [7]HSDB

   Computed Properties
   Molecular Weight                  324.28428 [g/mol]
   Molecular Formula                 C[18]H[12]O[6]
   XLogP3-AA                         3.4
   H-Bond Donor                      1
   H-Bond Acceptor                   6
   Rotatable Bond Count              1
   Tautomer Count                    5
   Exact Mass                        324.063388
   MonoIsotopic Mass                 324.063388
   Topological Polar Surface Area    74.2
   Heavy Atom Count                  24
   Formal Charge                     0
   Complexity                        562
   Isotope Atom Count                0
   Defined Atom Stereocenter Count   2
   Undefined Atom Stereocenter Count 0
   Defined Bond Stereocenter Count   0
   Undefined Bond Stereocenter Count 0
   Covalently-Bonded Unit Count      1
   Feature 3D Acceptor Count         5
   Feature 3D Donor Count            1
   Feature 3D Ring Count             5
   Effective Rotor Count             1.4
   Conformer Sampling RMSD           0.6
   CID Conformer Count               [8]1

References

   1. http://toxnet.nlm.nih.gov/cgi-bin/sis/search/r?dbs+hsdb:@term+@rn+@rel+10048-13-2
   2. http://toxnet.nlm.nih.gov/cgi-bin/sis/search/r?dbs+hsdb:@term+@rn+@rel+10048-13-2
   3. http://toxnet.nlm.nih.gov/cgi-bin/sis/search/r?dbs+hsdb:@term+@rn+@rel+10048-13-2
   4. http://toxnet.nlm.nih.gov/cgi-bin/sis/search/r?dbs+hsdb:@term+@rn+@rel+10048-13-2
   5. http://toxnet.nlm.nih.gov/cgi-bin/sis/search/r?dbs+hsdb:@term+@rn+@rel+10048-13-2
   6. http://toxnet.nlm.nih.gov/cgi-bin/sis/search/r?dbs+hsdb:@term+@rn+@rel+10048-13-2
   7. http://toxnet.nlm.nih.gov/cgi-bin/sis/search/r?dbs+hsdb:@term+@rn+@rel+10048-13-2
   8. http://pubchem.ncbi.nlm.nih.gov/vw3d/vw3d.cgi?cid=5280389
