   Color/Form

     * THICK, VISCOUS, ORANGE-BROWN MASS
     * Yellow to amber semisolid mass
     * Dark yellowish, viscous liquid

   from [1]HSDB

   Odor

     * WOODY, ROSE-LIKE ODOR
     * Floral
     * Mild, pleasant odor reminiscent of that of tea roses and faintly of
       violets.

   from [2]HSDB

   Melting Point
        40-50 deg C
   from [3]HSDB

   Density/Specific Gravity
        0.965-0.975
   from [4]HSDB

   Solubilities

     * Soluble in alcohol, ether, and chloroform; insoluble in water
     * 1 vol in at least 7 vol of 70% alcohol; solutions are sometimes
       slightly turbid or opalescent.

   from [5]HSDB

   Spectral Properties

     * Index of refraction: 1.5020-1.5070 @ 20 deg C/D
     * Optical rotation: -12 deg to -3 deg

   from [6]HSDB

   Other Chemical/Physical Properties
        The oil solidifies at room temperature to a yellow-white to light
   amber colored mass.
   from [7]HSDB

   Computed Properties
   Molecular Weight                  222.36634 [g/mol]
   Molecular Formula                 C[15]H[26]O
   XLogP3-AA                         3.1
   H-Bond Donor                      1
   H-Bond Acceptor                   1
   Rotatable Bond Count              1
   Exact Mass                        222.198365
   MonoIsotopic Mass                 222.198365
   Topological Polar Surface Area    20.2
   Heavy Atom Count                  16
   Formal Charge                     0
   Complexity                        301
   Isotope Atom Count                0
   Defined Atom Stereocenter Count   3
   Undefined Atom Stereocenter Count 0
   Defined Bond Stereocenter Count   0
   Undefined Bond Stereocenter Count 0
   Covalently-Bonded Unit Count      1
   Feature 3D Acceptor Count         1
   Feature 3D Donor Count            1
   Feature 3D Hydrophobe Count       1
   Feature 3D Ring Count             2
   Effective Rotor Count             2.6
   Conformer Sampling RMSD           0.6
   CID Conformer Count               [8]8

References

   1. http://toxnet.nlm.nih.gov/cgi-bin/sis/search/r?dbs+hsdb:@term+@rn+@rel+8016-23-7
   2. http://toxnet.nlm.nih.gov/cgi-bin/sis/search/r?dbs+hsdb:@term+@rn+@rel+8016-23-7
   3. http://toxnet.nlm.nih.gov/cgi-bin/sis/search/r?dbs+hsdb:@term+@rn+@rel+8016-23-7
   4. http://toxnet.nlm.nih.gov/cgi-bin/sis/search/r?dbs+hsdb:@term+@rn+@rel+8016-23-7
   5. http://toxnet.nlm.nih.gov/cgi-bin/sis/search/r?dbs+hsdb:@term+@rn+@rel+8016-23-7
   6. http://toxnet.nlm.nih.gov/cgi-bin/sis/search/r?dbs+hsdb:@term+@rn+@rel+8016-23-7
   7. http://toxnet.nlm.nih.gov/cgi-bin/sis/search/r?dbs+hsdb:@term+@rn+@rel+8016-23-7
   8. http://pubchem.ncbi.nlm.nih.gov/vw3d/vw3d.cgi?cid=227829
