40486
  -OEChem-07051213012D

 75 79  0     1  0  0  0  0  0999 V2000
    4.5981    2.0423    0.0000 O   0  0  0  0  0  0  0  0  0  0  0  0
    4.5981    1.0423    0.0000 O   0  0  0  0  0  0  0  0  0  0  0  0
    4.6594   -2.0413    0.0000 O   0  0  0  0  0  0  0  0  0  0  0  0
    4.5981    5.0423    0.0000 O   0  0  0  0  0  0  0  0  0  0  0  0
    7.9641   -4.7196    0.0000 O   0  0  0  0  0  0  0  0  0  0  0  0
    7.9641   -2.9876    0.0000 O   0  0  0  0  0  0  0  0  0  0  0  0
    6.2688   -2.0413    0.0000 N   0  0  0  0  0  0  0  0  0  0  0  0
    6.4347    6.0368    0.0000 N   0  0  0  0  0  0  0  0  0  0  0  0
    6.4641   -5.5856    0.0000 N   0  0  0  0  0  0  0  0  0  0  0  0
    3.7320    1.5423    0.0000 C   0  0  3  0  0  0  0  0  0  0  0  0
    2.8660    2.0423    0.0000 C   0  0  1  0  0  0  0  0  0  0  0  0
    3.7320    3.5423    0.0000 C   0  0  2  0  0  0  0  0  0  0  0  0
    2.8660    3.0423    0.0000 C   0  0  0  0  0  0  0  0  0  0  0  0
    2.8660    1.0423    0.0000 C   0  0  0  0  0  0  0  0  0  0  0  0
    4.5981    3.0423    0.0000 C   0  0  1  0  0  0  0  0  0  0  0  0
    3.7320   -0.4577    0.0000 C   0  0  1  0  0  0  0  0  0  0  0  0
    2.8660    0.0423    0.0000 C   0  0  0  0  0  0  0  0  0  0  0  0
    4.5981    0.0423    0.0000 C   0  0  2  0  0  0  0  0  0  0  0  0
    5.4641    3.5423    0.0000 C   0  0  3  0  0  0  0  0  0  0  0  0
    2.0000    1.5423    0.0000 C   0  0  0  0  0  0  0  0  0  0  0  0
    3.7320    4.5423    0.0000 C   0  0  0  0  0  0  0  0  0  0  0  0
    5.4641   -0.4577    0.0000 C   0  0  0  0  0  0  0  0  0  0  0  0
    3.7320   -1.4577    0.0000 C   0  0  0  0  0  0  0  0  0  0  0  0
    6.3301    3.0423    0.0000 C   0  0  0  0  0  0  0  0  0  0  0  0
    5.4641    4.5423    0.0000 C   0  0  0  0  0  0  0  0  0  0  0  0
    5.4641   -1.4577    0.0000 C   0  0  0  0  0  0  0  0  0  0  0  0
    6.3301    5.0423    0.0000 C   0  0  0  0  0  0  0  0  0  0  0  0
    7.2437    4.6355    0.0000 C   0  0  0  0  0  0  0  0  0  0  0  0
    5.9641   -2.9876    0.0000 C   0  0  0  0  0  0  0  0  0  0  0  0
    4.9641   -2.9876    0.0000 C   0  0  0  0  0  0  0  0  0  0  0  0
    7.4128    6.2447    0.0000 C   0  0  0  0  0  0  0  0  0  0  0  0
    7.9128    5.3787    0.0000 C   0  0  0  0  0  0  0  0  0  0  0  0
    6.4641   -3.8536    0.0000 C   0  0  0  0  0  0  0  0  0  0  0  0
    4.4641   -3.8536    0.0000 C   0  0  0  0  0  0  0  0  0  0  0  0
    5.9641   -4.7196    0.0000 C   0  0  0  0  0  0  0  0  0  0  0  0
    4.9641   -4.7196    0.0000 C   0  0  0  0  0  0  0  0  0  0  0  0
    7.4641   -3.8536    0.0000 C   0  0  0  0  0  0  0  0  0  0  0  0
    5.9641   -6.4517    0.0000 C   0  0  0  0  0  0  0  0  0  0  0  0
    2.8660    1.4223    0.0000 H   0  0  0  0  0  0  0  0  0  0  0  0
    4.2690    3.8523    0.0000 H   0  0  0  0  0  0  0  0  0  0  0  0
    2.6540    3.6249    0.0000 H   0  0  0  0  0  0  0  0  0  0  0  0
    2.2554    2.9346    0.0000 H   0  0  0  0  0  0  0  0  0  0  0  0
    2.6540    1.6249    0.0000 H   0  0  0  0  0  0  0  0  0  0  0  0
    2.2554    0.9346    0.0000 H   0  0  0  0  0  0  0  0  0  0  0  0
    5.1350    2.7323    0.0000 H   0  0  0  0  0  0  0  0  0  0  0  0
    4.2690   -0.7677    0.0000 H   0  0  0  0  0  0  0  0  0  0  0  0
    2.2554    0.1499    0.0000 H   0  0  0  0  0  0  0  0  0  0  0  0
    2.6540   -0.5403    0.0000 H   0  0  0  0  0  0  0  0  0  0  0  0
    5.1350    0.3523    0.0000 H   0  0  0  0  0  0  0  0  0  0  0  0
    5.4641    2.6923    0.0000 H   0  0  0  0  0  0  0  0  0  0  0  0
    1.6900    2.0792    0.0000 H   0  0  0  0  0  0  0  0  0  0  0  0
    1.4631    1.2323    0.0000 H   0  0  0  0  0  0  0  0  0  0  0  0
    2.3100    1.0053    0.0000 H   0  0  0  0  0  0  0  0  0  0  0  0
    4.3520    4.5423    0.0000 H   0  0  0  0  0  0  0  0  0  0  0  0
    3.7320    5.1623    0.0000 H   0  0  0  0  0  0  0  0  0  0  0  0
    3.1120    4.5423    0.0000 H   0  0  0  0  0  0  0  0  0  0  0  0
    6.0747   -0.5654    0.0000 H   0  0  0  0  0  0  0  0  0  0  0  0
    5.6762    0.1249    0.0000 H   0  0  0  0  0  0  0  0  0  0  0  0
    3.1120   -1.4577    0.0000 H   0  0  0  0  0  0  0  0  0  0  0  0
    3.7320   -2.0777    0.0000 H   0  0  0  0  0  0  0  0  0  0  0  0
    4.3520   -1.4577    0.0000 H   0  0  0  0  0  0  0  0  0  0  0  0
    6.0201    2.5053    0.0000 H   0  0  0  0  0  0  0  0  0  0  0  0
    6.8671    2.7323    0.0000 H   0  0  0  0  0  0  0  0  0  0  0  0
    6.6401    3.5792    0.0000 H   0  0  0  0  0  0  0  0  0  0  0  0
    5.9739    6.4517    0.0000 H   0  0  0  0  0  0  0  0  0  0  0  0
    7.3726    4.0291    0.0000 H   0  0  0  0  0  0  0  0  0  0  0  0
    7.6650    6.8111    0.0000 H   0  0  0  0  0  0  0  0  0  0  0  0
    8.5294    5.3139    0.0000 H   0  0  0  0  0  0  0  0  0  0  0  0
    3.8441   -3.8536    0.0000 H   0  0  0  0  0  0  0  0  0  0  0  0
    4.6541   -5.2565    0.0000 H   0  0  0  0  0  0  0  0  0  0  0  0
    7.0841   -5.5856    0.0000 H   0  0  0  0  0  0  0  0  0  0  0  0
    5.4272   -6.1417    0.0000 H   0  0  0  0  0  0  0  0  0  0  0  0
    5.6541   -6.9886    0.0000 H   0  0  0  0  0  0  0  0  0  0  0  0
    6.5010   -6.7617    0.0000 H   0  0  0  0  0  0  0  0  0  0  0  0
    8.5841   -4.7196    0.0000 H   0  0  0  0  0  0  0  0  0  0  0  0
  1 10  1  0  0  0  0
  1 15  1  0  0  0  0
  2 10  1  0  0  0  0
  2 18  1  0  0  0  0
  3 26  1  0  0  0  0
  3 30  1  0  0  0  0
  4 25  2  0  0  0  0
  5 37  1  0  0  0  0
  5 75  1  0  0  0  0
  6 37  2  0  0  0  0
  7 26  2  0  0  0  0
  7 29  1  0  0  0  0
  8 27  1  0  0  0  0
  8 31  1  0  0  0  0
  8 65  1  0  0  0  0
  9 35  1  0  0  0  0
  9 38  1  0  0  0  0
  9 71  1  0  0  0  0
 10 11  1  0  0  0  0
 10 14  1  0  0  0  0
 11 13  1  0  0  0  0
 11 20  1  6  0  0  0
 11 39  1  0  0  0  0
 12 13  1  0  0  0  0
 12 15  1  0  0  0  0
 12 21  1  1  0  0  0
 12 40  1  0  0  0  0
 13 41  1  0  0  0  0
 13 42  1  0  0  0  0
 14 17  1  0  0  0  0
 14 43  1  0  0  0  0
 14 44  1  0  0  0  0
 15 19  1  1  0  0  0
 15 45  1  0  0  0  0
 16 17  1  0  0  0  0
 16 18  1  0  0  0  0
 16 23  1  1  0  0  0
 16 46  1  0  0  0  0
 17 47  1  0  0  0  0
 17 48  1  0  0  0  0
 18 22  1  1  0  0  0
 18 49  1  0  0  0  0
 19 24  1  0  0  0  0
 19 25  1  0  0  0  0
 19 50  1  0  0  0  0
 20 51  1  0  0  0  0
 20 52  1  0  0  0  0
 20 53  1  0  0  0  0
 21 54  1  0  0  0  0
 21 55  1  0  0  0  0
 21 56  1  0  0  0  0
 22 26  1  0  0  0  0
 22 57  1  0  0  0  0
 22 58  1  0  0  0  0
 23 59  1  0  0  0  0
 23 60  1  0  0  0  0
 23 61  1  0  0  0  0
 24 62  1  0  0  0  0
 24 63  1  0  0  0  0
 24 64  1  0  0  0  0
 25 27  1  0  0  0  0
 27 28  2  0  0  0  0
 28 32  1  0  0  0  0
 28 66  1  0  0  0  0
 29 30  2  0  0  0  0
 29 33  1  0  0  0  0
 30 34  1  0  0  0  0
 31 32  2  0  0  0  0
 31 67  1  0  0  0  0
 32 68  1  0  0  0  0
 33 35  2  0  0  0  0
 33 37  1  0  0  0  0
 34 36  2  0  0  0  0
 34 69  1  0  0  0  0
 35 36  1  0  0  0  0
 36 70  1  0  0  0  0
 38 72  1  0  0  0  0
 38 73  1  0  0  0  0
 38 74  1  0  0  0  0
M  END
> <PUBCHEM_COMPOUND_CID>
40486

> <PUBCHEM_COMPOUND_CANONICALIZED>
1

> <PUBCHEM_CACTVS_COMPLEXITY>
873

> <PUBCHEM_CACTVS_HBOND_ACCEPTOR>
8

> <PUBCHEM_CACTVS_HBOND_DONOR>
3

> <PUBCHEM_CACTVS_ROTATABLE_BOND>
7

> <PUBCHEM_CACTVS_SUBSKEYS>
AAADcfB7OAAAAAAAAAAAAAAAAAAAAWLAAAA0SIAAAAAAAFgB/AAAHgAQCAAADRzhngY+zrLJlkCoA7X3XASCiCA/YiAI2aG/bNgeJv7E9fuvfajn9BHc+cf/6fyOAEABAAQCEAAAgAIACAQgAAAAAAAAAA==

> <PUBCHEM_IUPAC_OPENEYE_NAME>
5-(methylamino)-2-[[(2S,3R,5R,8S,9S)-3,5,9-trimethyl-2-[1-methyl-2-oxo-2-(1H-pyrrol-2-yl)ethyl]-1,7-dioxaspiro[5.5]undecan-8-yl]methyl]-1,3-benzoxazole-4-carboxylic acid

> <PUBCHEM_IUPAC_CAS_NAME>
5-(methylamino)-2-[[(2S,3R,5R,8S,9S)-3,5,9-trimethyl-2-[1-oxo-1-(1H-pyrrol-2-yl)propan-2-yl]-1,7-dioxaspiro[5.5]undecan-8-yl]methyl]-1,3-benzoxazole-4-carboxylic acid

> <PUBCHEM_IUPAC_NAME>
5-(methylamino)-2-[[(2S,3R,5R,8S,9S)-3,5,9-trimethyl-2-[1-oxo-1-(1H-pyrrol-2-yl)propan-2-yl]-1,7-dioxaspiro[5.5]undecan-8-yl]methyl]-1,3-benzoxazole-4-carboxylic acid

> <PUBCHEM_IUPAC_SYSTEMATIC_NAME>
5-(methylamino)-2-[[(2S,3R,5R,8S,9S)-3,5,9-trimethyl-2-[1-oxidanylidene-1-(1H-pyrrol-2-yl)propan-2-yl]-1,7-dioxaspiro[5.5]undecan-8-yl]methyl]-1,3-benzoxazole-4-carboxylic acid

> <PUBCHEM_IUPAC_TRADITIONAL_NAME>
2-[[(2S,3R,5R,8S,9S)-2-[2-keto-1-methyl-2-(1H-pyrrol-2-yl)ethyl]-3,5,9-trimethyl-1,7-dioxaspiro[5.5]undecan-8-yl]methyl]-5-(methylamino)-1,3-benzoxazole-4-carboxylic acid

> <PUBCHEM_IUPAC_INCHI>
InChI=1S/C29H37N3O6/c1-15-10-11-29(17(3)13-16(2)27(38-29)18(4)26(33)20-7-6-12-31-20)37-22(15)14-23-32-25-21(36-23)9-8-19(30-5)24(25)28(34)35/h6-9,12,15-18,22,27,30-31H,10-11,13-14H2,1-5H3,(H,34,35)/t15-,16+,17+,18?,22-,27-,29?/m0/s1

> <PUBCHEM_IUPAC_INCHIKEY>
HIYAVKIYRIFSCZ-CVXKHCKVSA-N

> <PUBCHEM_XLOGP3_AA>
5.9

> <PUBCHEM_EXACT_MASS>
523.268236

> <PUBCHEM_MOLECULAR_FORMULA>
C29H37N3O6

> <PUBCHEM_MOLECULAR_WEIGHT>
523.62058

> <PUBCHEM_OPENEYE_CAN_SMILES>
CC1CCC2(C(CC(C(O2)C(C)C(=O)C3=CC=CN3)C)C)OC1CC4=NC5=C(O4)C=CC(=C5C(=O)O)NC

> <PUBCHEM_OPENEYE_ISO_SMILES>
C[C@H]1CCC2([C@@H](C[C@H]([C@H](O2)C(C)C(=O)C3=CC=CN3)C)C)O[C@H]1CC4=NC5=C(O4)C=CC(=C5C(=O)O)NC

> <PUBCHEM_CACTVS_TPSA>
127

> <PUBCHEM_MONOISOTOPIC_WEIGHT>
523.268236

> <PUBCHEM_TOTAL_CHARGE>
0

> <PUBCHEM_HEAVY_ATOM_COUNT>
38

> <PUBCHEM_ATOM_DEF_STEREO_COUNT>
5

> <PUBCHEM_ATOM_UDEF_STEREO_COUNT>
2

> <PUBCHEM_BOND_DEF_STEREO_COUNT>
0

> <PUBCHEM_BOND_UDEF_STEREO_COUNT>
0

> <PUBCHEM_ISOTOPIC_ATOM_COUNT>
0

> <PUBCHEM_COMPONENT_COUNT>
1

> <PUBCHEM_CACTVS_TAUTO_COUNT>
117

> <PUBCHEM_COORDINATE_TYPE>
1
5
255

> <PUBCHEM_BONDANNOTATIONS>
10  14  3
11  20  6
12  21  5
15  19  5
16  23  5
18  22  5
19  50  3
27  28  8
28  32  8
29  30  8
29  33  8
3  26  8
3  30  8
30  34  8
31  32  8
33  35  8
34  36  8
35  36  8
7  26  8
7  29  8
8  27  8
8  31  8

$$$$

