   Color/Form

     * WHITE CRYSTALLINE SOLID
     * Colorless crystals

   from [1]HSDB

   Odor
        Odorless
   from [2]HSDB

   Boiling Point
        350 deg C at 760 mm Hg
   from [3]HSDB

   Melting Point
        250-251 deg C
   from [4]HSDB

   Corrosivity
        Non-corrosive
   from [5]HSDB

   Density/Specific Gravity
        1.8 at 25 deg C/4 deg C
   from [6]HSDB

   Octanol/Water Partition Coefficient
        log Kow= 3.05
   from [7]HSDB

   Solubilities

     * Sol in benzene
     * Solubility (25 deg C): 20 g/kg acetone, dimethyl sulfoxide; 30 g/kg
       cyclohexanone, dimethylformamide; < 10 g/kg kerosene; 80 g/kg
       xylene.
     * In water, 0.81 mg/L at 25 deg C

   from [8]HSDB

   Spectral Properties

     * Intense mass spectral peaks: 266 m/z (100%), 264 m/z (85%), 268 m/z
       (52%), 109 m/z (30%)
     * MASS: 53897 (NIST/EPA/MSDC Mass Spectral Database, 1990 version)

   from [9]HSDB

   Vapor Pressure
        5.7X10-7 mm Hg at 25 deg C
   from [10]HSDB

   Other Chemical/Physical Properties

     * Henry's Law constant = 2.5X10-7 atm-cu m/mole at 25 deg C
     * Hydroxyl radical reaction rate constant = 6.2X10-15 cu cm/molec-sec
       at 25 deg C (est)

   from [11]HSDB

   Computed Properties
   Molecular Weight                  265.911 [g/mol]
   Molecular Formula                 C[8]Cl[4]N[2]
   XLogP3                            2.9
   H-Bond Donor                      0
   H-Bond Acceptor                   2
   Rotatable Bond Count              0
   Exact Mass                        265.878609
   MonoIsotopic Mass                 263.881559
   Topological Polar Surface Area    47.6
   Heavy Atom Count                  14
   Formal Charge                     0
   Complexity                        284
   Isotope Atom Count                0
   Defined Atom Stereocenter Count   0
   Undefined Atom Stereocenter Count 0
   Defined Bond Stereocenter Count   0
   Undefined Bond Stereocenter Count 0
   Covalently-Bonded Unit Count      1
   Feature 3D Acceptor Count         2
   Feature 3D Ring Count             1
   Effective Rotor Count             0
   Conformer Sampling RMSD           0.4
   CID Conformer Count               [12]1

References

   1. http://toxnet.nlm.nih.gov/cgi-bin/sis/search/r?dbs+hsdb:@term+@rn+@rel+1897-45-6
   2. http://toxnet.nlm.nih.gov/cgi-bin/sis/search/r?dbs+hsdb:@term+@rn+@rel+1897-45-6
   3. http://toxnet.nlm.nih.gov/cgi-bin/sis/search/r?dbs+hsdb:@term+@rn+@rel+1897-45-6
   4. http://toxnet.nlm.nih.gov/cgi-bin/sis/search/r?dbs+hsdb:@term+@rn+@rel+1897-45-6
   5. http://toxnet.nlm.nih.gov/cgi-bin/sis/search/r?dbs+hsdb:@term+@rn+@rel+1897-45-6
   6. http://toxnet.nlm.nih.gov/cgi-bin/sis/search/r?dbs+hsdb:@term+@rn+@rel+1897-45-6
   7. http://toxnet.nlm.nih.gov/cgi-bin/sis/search/r?dbs+hsdb:@term+@rn+@rel+1897-45-6
   8. http://toxnet.nlm.nih.gov/cgi-bin/sis/search/r?dbs+hsdb:@term+@rn+@rel+1897-45-6
   9. http://toxnet.nlm.nih.gov/cgi-bin/sis/search/r?dbs+hsdb:@term+@rn+@rel+1897-45-6
  10. http://toxnet.nlm.nih.gov/cgi-bin/sis/search/r?dbs+hsdb:@term+@rn+@rel+1897-45-6
  11. http://toxnet.nlm.nih.gov/cgi-bin/sis/search/r?dbs+hsdb:@term+@rn+@rel+1897-45-6
  12. http://pubchem.ncbi.nlm.nih.gov/vw3d/vw3d.cgi?cid=15910
