   Color/Form
        Colorless liquid.
   from [1]HSDB

   Odor
        Sweet, pungent, benzene-like odor.
   from [2]HSDB

   Boiling Point
        110.6 deg C
   from [3]HSDB

   Melting Point
        -94.9 deg C
   from [4]HSDB

   Corrosivity
        Noncorrosive liquid.
   from [5]HSDB

   Critical Temperature and Pressure
        Critical temperature: 591.75 K; Critical pressure: 4.108 MPa
   from [6]HSDB

   Density/Specific Gravity
        0.8636 @ 20 deg C/4 deg C
   from [7]HSDB

   Heat of Combustion
        3910.3 KJ/mol
   from [8]HSDB

   Heat of Vaporization
        38.01 KJ/mol @ 25 deg C
   from [9]HSDB

   Octanol/Water Partition Coefficient
        log Kow= 2.73
   from [10]HSDB

   Solubilities

     * Miscible with alcohol, chloroform, ether, acetone, glacial acetic
       acid, carbon disulfide
     * Soluble in ethanol, benzene, diethyl ether, acetone, chloroform,
       glacial acetic acid and carbon disulfide; insoluble in water.
     * In water, 526 mg/l @ 25 deg C

   from [11]HSDB

   Spectral Properties

     * SADTLER REF NUMBER: 419 (IR, PRISM); 119 (IR, GRATING); MAX
       ABSORPTION (ALCOHOL): 207 NM (LOG E= 3.97); 260 NM LOG E= 2.48)
     * Index of refraction: 1.4967 @ 20 deg C/D
     * IR: 3574 (Coblentz Society Spectral Collection)
     * UV: 155 (Sadtler Research Laboratories Spectral Collection)
     * NMR: 157 (Varian Associates NMR Spectra Catalogue)
     * MASS: 189 (Atlas of Mass Spectral Data, John Wiley & Sons, New
       York)
     * Intense mass spectral peaks: 65 m/z, 91 m/z, 92 m/z

   from [12]HSDB

   Surface Tension
        29.71 dyne/cm @ 10 deg C; 28.93 dyne/cm @ 20 deg C; 24.96 dyne/cm
   @ 50 deg C; 21.98 dyne/cm @ 75 deg C; 19.01 dyne/cm @ 100 deg C
   from [13]HSDB

   Vapor Density
        3.1 (Air=1)
   from [14]HSDB

   Vapor Pressure
        28.4 mm Hg @ 25 deg C
   from [15]HSDB

   Viscosity
        0.778 cP @ 0 deg C; 0.560 cP @ 25 deg C; 0.424 cP @ 50 deg C;
   0.333 cP @ 75 deg C; 0.270 cP @ 100 deg C
   from [16]HSDB

   Other Chemical/Physical Properties

     * CONVERSION FACTORS: 1 PPM= 3.76/CU M; 1 MG/L= 226 PPM.
     * Ratio of Specific Heats of Vapor (Gas): 1.089; floats on water
     * Partition coefficients at 37 deg C for toluene into blood= 15.6;
       into oil= 1,470. [Sato A, Nakajima T; Scand J Work Environ Health
       13: 81-93 (1987)] [17]PubMed Abstract
     * Henry's Law constant = 6.64X10-3 atm-cu m/mole @ 25 deg C
     * Hydroxyl radical rate constant = 5.96X10-12 cu cm/molecule-sec @ 25
       deg C

   from [18]HSDB

   Computed Properties
   Molecular Weight                  92.13842 [g/mol]
   Molecular Formula                 C[7]H[8]
   XLogP3                            2.7
   H-Bond Donor                      0
   H-Bond Acceptor                   0
   Rotatable Bond Count              0
   Exact Mass                        92.0626
   MonoIsotopic Mass                 92.0626
   Topological Polar Surface Area    0
   Heavy Atom Count                  7
   Formal Charge                     0
   Complexity                        42
   Isotope Atom Count                0
   Defined Atom Stereocenter Count   0
   Undefined Atom Stereocenter Count 0
   Defined Bond Stereocenter Count   0
   Undefined Bond Stereocenter Count 0
   Covalently-Bonded Unit Count      1
   Feature 3D Ring Count             1
   Effective Rotor Count             0
   Conformer Sampling RMSD           0.4
   CID Conformer Count               [19]1

References

   1. http://toxnet.nlm.nih.gov/cgi-bin/sis/search/r?dbs+hsdb:@term+@rn+@rel+108-88-3
   2. http://toxnet.nlm.nih.gov/cgi-bin/sis/search/r?dbs+hsdb:@term+@rn+@rel+108-88-3
   3. http://toxnet.nlm.nih.gov/cgi-bin/sis/search/r?dbs+hsdb:@term+@rn+@rel+108-88-3
   4. http://toxnet.nlm.nih.gov/cgi-bin/sis/search/r?dbs+hsdb:@term+@rn+@rel+108-88-3
   5. http://toxnet.nlm.nih.gov/cgi-bin/sis/search/r?dbs+hsdb:@term+@rn+@rel+108-88-3
   6. http://toxnet.nlm.nih.gov/cgi-bin/sis/search/r?dbs+hsdb:@term+@rn+@rel+108-88-3
   7. http://toxnet.nlm.nih.gov/cgi-bin/sis/search/r?dbs+hsdb:@term+@rn+@rel+108-88-3
   8. http://toxnet.nlm.nih.gov/cgi-bin/sis/search/r?dbs+hsdb:@term+@rn+@rel+108-88-3
   9. http://toxnet.nlm.nih.gov/cgi-bin/sis/search/r?dbs+hsdb:@term+@rn+@rel+108-88-3
  10. http://toxnet.nlm.nih.gov/cgi-bin/sis/search/r?dbs+hsdb:@term+@rn+@rel+108-88-3
  11. http://toxnet.nlm.nih.gov/cgi-bin/sis/search/r?dbs+hsdb:@term+@rn+@rel+108-88-3
  12. http://toxnet.nlm.nih.gov/cgi-bin/sis/search/r?dbs+hsdb:@term+@rn+@rel+108-88-3
  13. http://toxnet.nlm.nih.gov/cgi-bin/sis/search/r?dbs+hsdb:@term+@rn+@rel+108-88-3
  14. http://toxnet.nlm.nih.gov/cgi-bin/sis/search/r?dbs+hsdb:@term+@rn+@rel+108-88-3
  15. http://toxnet.nlm.nih.gov/cgi-bin/sis/search/r?dbs+hsdb:@term+@rn+@rel+108-88-3
  16. http://toxnet.nlm.nih.gov/cgi-bin/sis/search/r?dbs+hsdb:@term+@rn+@rel+108-88-3
  17. http://www.ncbi.nlm.nih.gov/entrez/query.fcgi?cmd=Retrieve&db=pubmed&dopt=Abstract&list_uids=3299685
  18. http://toxnet.nlm.nih.gov/cgi-bin/sis/search/r?dbs+hsdb:@term+@rn+@rel+108-88-3
  19. http://pubchem.ncbi.nlm.nih.gov/vw3d/vw3d.cgi?cid=1140
