23724526
  -OEChem-07051213032D

 49 50  0     1  0  0  0  0  0999 V2000
   11.6236    4.6966    0.0000 Br  0  5  0  0  0  0  0  0  0  0  0  0
    3.1350    5.1200    0.0000 O   0  0  0  0  0  0  0  0  0  0  0  0
    4.0010    3.6200    0.0000 O   0  0  0  0  0  0  0  0  0  0  0  0
    0.5369    3.6200    0.0000 O   0  0  0  0  0  0  0  0  0  0  0  0
    5.9719    8.4050    0.0000 N   0  3  0  0  0  0  0  0  0  0  0  0
    6.4497    6.4564    0.0000 C   0  0  2  0  0  0  0  0  0  0  0  0
    6.7086    7.4223    0.0000 C   0  0  1  0  0  0  0  0  0  0  0  0
    8.2817    5.6976    0.0000 C   0  0  0  0  0  0  0  0  0  0  0  0
    8.5405    6.6635    0.0000 C   0  0  0  0  0  0  0  0  0  0  0  0
    4.9146    5.2133    0.0000 C   0  0  0  0  0  0  0  0  0  0  0  0
    4.1056    6.6145    0.0000 C   0  0  0  0  0  0  0  0  0  0  0  0
    4.0010    5.6200    0.0000 C   0  0  0  0  0  0  0  0  0  0  0  0
    6.0765    9.3995    0.0000 C   0  0  0  0  0  0  0  0  0  0  0  0
    5.0584    8.8117    0.0000 C   0  0  0  0  0  0  0  0  0  0  0  0
    3.1350    4.1200    0.0000 C   0  0  0  0  0  0  0  0  0  0  0  0
    2.2690    3.6200    0.0000 C   0  0  2  0  0  0  0  0  0  0  0  0
    1.4030    4.1200    0.0000 C   0  0  0  0  0  0  0  0  0  0  0  0
    2.2690    2.6200    0.0000 C   0  0  0  0  0  0  0  0  0  0  0  0
    1.4030    2.1200    0.0000 C   0  0  0  0  0  0  0  0  0  0  0  0
    3.1350    2.1200    0.0000 C   0  0  0  0  0  0  0  0  0  0  0  0
    1.4030    1.1200    0.0000 C   0  0  0  0  0  0  0  0  0  0  0  0
    3.1350    1.1200    0.0000 C   0  0  0  0  0  0  0  0  0  0  0  0
    2.2690    0.6200    0.0000 C   0  0  0  0  0  0  0  0  0  0  0  0
    6.2297    5.6354    0.0000 H   0  0  0  0  0  0  0  0  0  0  0  0
    6.9286    8.2434    0.0000 H   0  0  0  0  0  0  0  0  0  0  0  0
    8.0696    5.1150    0.0000 H   0  0  0  0  0  0  0  0  0  0  0  0
    8.8730    5.5112    0.0000 H   0  0  0  0  0  0  0  0  0  0  0  0
    9.1318    6.4771    0.0000 H   0  0  0  0  0  0  0  0  0  0  0  0
    8.7526    7.2461    0.0000 H   0  0  0  0  0  0  0  0  0  0  0  0
    4.5769    4.6933    0.0000 H   0  0  0  0  0  0  0  0  0  0  0  0
    5.3753    4.7984    0.0000 H   0  0  0  0  0  0  0  0  0  0  0  0
    4.0033    7.2260    0.0000 H   0  0  0  0  0  0  0  0  0  0  0  0
    3.4858    6.5956    0.0000 H   0  0  0  0  0  0  0  0  0  0  0  0
    4.0335    5.0008    0.0000 H   0  0  0  0  0  0  0  0  0  0  0  0
    6.6931    9.3347    0.0000 H   0  0  0  0  0  0  0  0  0  0  0  0
    6.1413   10.0161    0.0000 H   0  0  0  0  0  0  0  0  0  0  0  0
    5.4599    9.4643    0.0000 H   0  0  0  0  0  0  0  0  0  0  0  0
    5.3106    9.3781    0.0000 H   0  0  0  0  0  0  0  0  0  0  0  0
    4.4920    9.0639    0.0000 H   0  0  0  0  0  0  0  0  0  0  0  0
    4.8062    8.2453    0.0000 H   0  0  0  0  0  0  0  0  0  0  0  0
    2.2690    4.2400    0.0000 H   0  0  0  0  0  0  0  0  0  0  0  0
    1.8015    4.5950    0.0000 H   0  0  0  0  0  0  0  0  0  0  0  0
    1.0044    4.5950    0.0000 H   0  0  0  0  0  0  0  0  0  0  0  0
    0.8660    2.4300    0.0000 H   0  0  0  0  0  0  0  0  0  0  0  0
    3.6720    2.4300    0.0000 H   0  0  0  0  0  0  0  0  0  0  0  0
    0.0000    3.9300    0.0000 H   0  0  0  0  0  0  0  0  0  0  0  0
    0.8660    0.8100    0.0000 H   0  0  0  0  0  0  0  0  0  0  0  0
    3.6720    0.8100    0.0000 H   0  0  0  0  0  0  0  0  0  0  0  0
    2.2690    0.0000    0.0000 H   0  0  0  0  0  0  0  0  0  0  0  0
  2 12  1  0  0  0  0
  2 15  1  0  0  0  0
  3 15  2  0  0  0  0
  4 17  1  0  0  0  0
  4 46  1  0  0  0  0
  5  6  1  0  0  0  0
  5  7  1  0  0  0  0
  5 13  1  0  0  0  0
  5 14  1  0  0  0  0
  6  8  1  0  0  0  0
  6 10  1  0  0  0  0
  6 24  1  1  0  0  0
  7  9  1  0  0  0  0
  7 11  1  0  0  0  0
  7 25  1  6  0  0  0
  8  9  1  0  0  0  0
  8 26  1  0  0  0  0
  8 27  1  0  0  0  0
  9 28  1  0  0  0  0
  9 29  1  0  0  0  0
 10 12  1  0  0  0  0
 10 30  1  0  0  0  0
 10 31  1  0  0  0  0
 11 12  1  0  0  0  0
 11 32  1  0  0  0  0
 11 33  1  0  0  0  0
 12 34  1  0  0  0  0
 13 35  1  0  0  0  0
 13 36  1  0  0  0  0
 13 37  1  0  0  0  0
 14 38  1  0  0  0  0
 14 39  1  0  0  0  0
 14 40  1  0  0  0  0
 15 16  1  0  0  0  0
 16 17  1  1  0  0  0
 16 18  1  0  0  0  0
 16 41  1  0  0  0  0
 17 42  1  0  0  0  0
 17 43  1  0  0  0  0
 18 19  2  0  0  0  0
 18 20  1  0  0  0  0
 19 21  1  0  0  0  0
 19 44  1  0  0  0  0
 20 22  2  0  0  0  0
 20 45  1  0  0  0  0
 21 23  2  0  0  0  0
 21 47  1  0  0  0  0
 22 23  1  0  0  0  0
 22 48  1  0  0  0  0
 23 49  1  0  0  0  0
M  CHG  2   1  -1   5   1
M  END
> <PUBCHEM_COMPOUND_CID>
23724526

> <PUBCHEM_COMPOUND_CANONICALIZED>
1

> <PUBCHEM_CACTVS_COMPLEXITY>
387

> <PUBCHEM_CACTVS_HBOND_ACCEPTOR>
4

> <PUBCHEM_CACTVS_HBOND_DONOR>
1

> <PUBCHEM_CACTVS_ROTATABLE_BOND>
5

> <PUBCHEM_CACTVS_SUBSKEYS>
AAADceB6MAAAEAAAAAAAAAAAAAAAAWAAAAA8QAAABgAAAAABAAAAHgAACAAADTzhmAYyCIMABgCIAiDSCAACAAAgAAAIiAEIAIgIMDaAlRCGYAAn4AGIiAeYyOCOgAAAAAAAAAAAAAAAAAAAAAAAAAAAAA==

> <PUBCHEM_IUPAC_OPENEYE_NAME>
[(1R,5S)-8,8-dimethyl-8-azoniabicyclo[3.2.1]octan-3-yl] (2S)-3-hydroxy-2-phenyl-propanoate bromide

> <PUBCHEM_IUPAC_CAS_NAME>
(2S)-3-hydroxy-2-phenylpropanoic acid [(1R,5S)-8,8-dimethyl-8-azoniabicyclo[3.2.1]octan-3-yl] ester bromide

> <PUBCHEM_IUPAC_NAME>
[(1R,5S)-8,8-dimethyl-8-azoniabicyclo[3.2.1]octan-3-yl] (2S)-3-hydroxy-2-phenylpropanoate bromide

> <PUBCHEM_IUPAC_SYSTEMATIC_NAME>
[(1R,5S)-8,8-dimethyl-8-azoniabicyclo[3.2.1]octan-3-yl] (2S)-3-oxidanyl-2-phenyl-propanoate bromide

> <PUBCHEM_IUPAC_TRADITIONAL_NAME>
(2S)-3-hydroxy-2-phenyl-propionic acid [(1R,5S)-8,8-dimethyl-8-azoniabicyclo[3.2.1]octan-3-yl] ester bromide

> <PUBCHEM_IUPAC_INCHI>
InChI=1S/C18H26NO3.BrH/c1-19(2)14-8-9-15(19)11-16(10-14)22-18(21)17(12-20)13-6-4-3-5-7-13;/h3-7,14-17,20H,8-12H2,1-2H3;1H/q+1;/p-1/t14-,15+,16?,17-;/m1./s1

> <PUBCHEM_IUPAC_INCHIKEY>
XMLNCADGRIEXPK-SXMODBHXSA-M

> <PUBCHEM_EXACT_MASS>
383.109606

> <PUBCHEM_MOLECULAR_FORMULA>
C18H26BrNO3

> <PUBCHEM_MOLECULAR_WEIGHT>
384.30794

> <PUBCHEM_OPENEYE_CAN_SMILES>
C[N+]1(C2CCC1CC(C2)OC(=O)C(CO)C3=CC=CC=C3)C.[Br-]

> <PUBCHEM_OPENEYE_ISO_SMILES>
C[N+]1([C@@H]2CC[C@H]1CC(C2)OC(=O)[C@H](CO)C3=CC=CC=C3)C.[Br-]

> <PUBCHEM_CACTVS_TPSA>
46.5

> <PUBCHEM_MONOISOTOPIC_WEIGHT>
383.109606

> <PUBCHEM_TOTAL_CHARGE>
0

> <PUBCHEM_HEAVY_ATOM_COUNT>
23

> <PUBCHEM_ATOM_DEF_STEREO_COUNT>
3

> <PUBCHEM_ATOM_UDEF_STEREO_COUNT>
0

> <PUBCHEM_BOND_DEF_STEREO_COUNT>
0

> <PUBCHEM_BOND_UDEF_STEREO_COUNT>
0

> <PUBCHEM_ISOTOPIC_ATOM_COUNT>
0

> <PUBCHEM_COMPONENT_COUNT>
2

> <PUBCHEM_CACTVS_TAUTO_COUNT>
1

> <PUBCHEM_COORDINATE_TYPE>
1
5
255

> <PUBCHEM_BONDANNOTATIONS>
16  17  5
18  19  8
18  20  8
19  21  8
20  22  8
21  23  8
22  23  8
6  24  5
7  25  6

$$$$

