635290
  -OEChem-07051213092D

 29 31  0     0  0  0  0  0  0999 V2000
    2.0000    1.1179    0.0000 Br  0  0  0  0  0  0  0  0  0  0  0  0
    2.3025   -3.3033    0.0000 Br  0  0  0  0  0  0  0  0  0  0  0  0
    5.7666   -3.3033    0.0000 Br  0  0  0  0  0  0  0  0  0  0  0  0
    3.2256   -0.7155    0.0000 O   0  0  0  0  0  0  0  0  0  0  0  0
    4.0346   -4.3033    0.0000 O   0  0  0  0  0  0  0  0  0  0  0  0
    4.5621    3.7676    0.0000 O   0  0  0  0  0  0  0  0  0  0  0  0
    4.0346   -1.3033    0.0000 C   0  0  0  0  0  0  0  0  0  0  0  0
    4.8436   -0.7155    0.0000 C   0  0  0  0  0  0  0  0  0  0  0  0
    4.5346    0.2355    0.0000 C   0  0  0  0  0  0  0  0  0  0  0  0
    3.5346    0.2355    0.0000 C   0  0  0  0  0  0  0  0  0  0  0  0
    4.9006   -1.8033    0.0000 C   0  0  0  0  0  0  0  0  0  0  0  0
    3.1686   -1.8033    0.0000 C   0  0  0  0  0  0  0  0  0  0  0  0
    5.0693    1.1295    0.0000 C   0  0  0  0  0  0  0  0  0  0  0  0
    2.9999    1.1295    0.0000 C   0  0  0  0  0  0  0  0  0  0  0  0
    4.5554    2.0355    0.0000 C   0  0  0  0  0  0  0  0  0  0  0  0
    4.9006   -2.8033    0.0000 C   0  0  0  0  0  0  0  0  0  0  0  0
    3.1686   -2.8033    0.0000 C   0  0  0  0  0  0  0  0  0  0  0  0
    3.5138    2.0355    0.0000 C   0  0  0  0  0  0  0  0  0  0  0  0
    4.0346   -3.3033    0.0000 C   0  0  0  0  0  0  0  0  0  0  0  0
    5.0587    2.8996    0.0000 C   0  0  0  0  0  0  0  0  0  0  0  0
    5.1536   -1.2525    0.0000 H   0  0  0  0  0  0  0  0  0  0  0  0
    5.4100   -0.4634    0.0000 H   0  0  0  0  0  0  0  0  0  0  0  0
    2.6316   -1.4933    0.0000 H   0  0  0  0  0  0  0  0  0  0  0  0
    5.4376   -1.4933    0.0000 H   0  0  0  0  0  0  0  0  0  0  0  0
    5.6892    1.1223    0.0000 H   0  0  0  0  0  0  0  0  0  0  0  0
    3.2017    2.5713    0.0000 H   0  0  0  0  0  0  0  0  0  0  0  0
    5.5322    2.4993    0.0000 H   0  0  0  0  0  0  0  0  0  0  0  0
    5.5352    3.2963    0.0000 H   0  0  0  0  0  0  0  0  0  0  0  0
    4.8742    4.3033    0.0000 H   0  0  0  0  0  0  0  0  0  0  0  0
  1 14  1  0  0  0  0
  2 17  1  0  0  0  0
  3 16  1  0  0  0  0
  4  7  1  0  0  0  0
  4 10  1  0  0  0  0
  5 19  2  0  0  0  0
  6 20  1  0  0  0  0
  6 29  1  0  0  0  0
  7  8  1  0  0  0  0
  7 11  1  0  0  0  0
  7 12  1  0  0  0  0
  8  9  1  0  0  0  0
  8 21  1  0  0  0  0
  8 22  1  0  0  0  0
  9 10  2  0  0  0  0
  9 13  1  0  0  0  0
 10 14  1  0  0  0  0
 11 16  2  0  0  0  0
 11 24  1  0  0  0  0
 12 17  2  0  0  0  0
 12 23  1  0  0  0  0
 13 15  2  0  0  0  0
 13 25  1  0  0  0  0
 14 18  2  0  0  0  0
 15 18  1  0  0  0  0
 15 20  1  0  0  0  0
 16 19  1  0  0  0  0
 17 19  1  0  0  0  0
 18 26  1  0  0  0  0
 20 27  1  0  0  0  0
 20 28  1  0  0  0  0
M  END
> <PUBCHEM_COMPOUND_CID>
635290

> <PUBCHEM_COMPOUND_CANONICALIZED>
1

> <PUBCHEM_CACTVS_COMPLEXITY>
478

> <PUBCHEM_CACTVS_HBOND_ACCEPTOR>
3

> <PUBCHEM_CACTVS_HBOND_DONOR>
1

> <PUBCHEM_CACTVS_ROTATABLE_BOND>
1

> <PUBCHEM_CACTVS_SUBSKEYS>
AAADccBwMAAAGAAAAAAAAAAAAAAAASAAAAAwQAAAAAAAAEgBAAAAGgBACAABrESgmAIwBoAABgCIAqBSAAACCAAgIAQAiAAECOgsNiKEMRqCeCCkwBEIu5eA4PwOIAACEAAIBABAAAQgABAIAAAAAAAAAA==

> <PUBCHEM_IUPAC_OPENEYE_NAME>
2',6',7-tribromo-5-(hydroxymethyl)spiro[3H-benzofuran-2,4'-cyclohexa-2,5-diene]-1'-one

> <PUBCHEM_IUPAC_CAS_NAME>
2',6',7-tribromo-5-(hydroxymethyl)-1'-spiro[3H-benzofuran-2,4'-cyclohexa-2,5-diene]one

> <PUBCHEM_IUPAC_NAME>
2',6',7-tribromo-5-(hydroxymethyl)spiro[3H-1-benzofuran-2,4'-cyclohexa-2,5-diene]-1'-one

> <PUBCHEM_IUPAC_SYSTEMATIC_NAME>
2',6',7-tris(bromanyl)-5-(hydroxymethyl)spiro[3H-1-benzofuran-2,4'-cyclohexa-2,5-diene]-1'-one

> <PUBCHEM_IUPAC_TRADITIONAL_NAME>
2',6',7-tribromo-5-methylol-spiro[coumaran-2,4'-cyclohexa-2,5-diene]-1'-one

> <PUBCHEM_IUPAC_INCHI>
InChI=1S/C14H9Br3O3/c15-9-2-7(6-18)1-8-3-14(20-13(8)9)4-10(16)12(19)11(17)5-14/h1-2,4-5,18H,3,6H2

> <PUBCHEM_IUPAC_INCHIKEY>
LNKWAVLAOSVMOE-UHFFFAOYSA-N

> <PUBCHEM_XLOGP3_AA>
3.8

> <PUBCHEM_EXACT_MASS>
463.808134

> <PUBCHEM_MOLECULAR_FORMULA>
C14H9Br3O3

> <PUBCHEM_MOLECULAR_WEIGHT>
464.93146

> <PUBCHEM_OPENEYE_CAN_SMILES>
C1C2=CC(=CC(=C2OC13C=C(C(=O)C(=C3)Br)Br)Br)CO

> <PUBCHEM_OPENEYE_ISO_SMILES>
C1C2=CC(=CC(=C2OC13C=C(C(=O)C(=C3)Br)Br)Br)CO

> <PUBCHEM_CACTVS_TPSA>
46.5

> <PUBCHEM_MONOISOTOPIC_WEIGHT>
461.81018

> <PUBCHEM_TOTAL_CHARGE>
0

> <PUBCHEM_HEAVY_ATOM_COUNT>
20

> <PUBCHEM_ATOM_DEF_STEREO_COUNT>
0

> <PUBCHEM_ATOM_UDEF_STEREO_COUNT>
0

> <PUBCHEM_BOND_DEF_STEREO_COUNT>
0

> <PUBCHEM_BOND_UDEF_STEREO_COUNT>
0

> <PUBCHEM_ISOTOPIC_ATOM_COUNT>
0

> <PUBCHEM_COMPONENT_COUNT>
1

> <PUBCHEM_CACTVS_TAUTO_COUNT>
1

> <PUBCHEM_COORDINATE_TYPE>
1
5
255

> <PUBCHEM_BONDANNOTATIONS>
10  14  8
13  15  8
14  18  8
15  18  8
9  10  8
9  13  8

$$$$

