9561554
  -OEChem-07051213062D

 46 49  0     1  0  0  0  0  0999 V2000
    9.5141    2.1767    0.0000 O   0  0  0  0  0  0  0  0  0  0  0  0
   11.2870   -0.4446    0.0000 O   0  0  0  0  0  0  0  0  0  0  0  0
    2.8641   -2.1309    0.0000 O   0  0  0  0  0  0  0  0  0  0  0  0
   10.7870    0.4215    0.0000 N   0  0  0  0  0  0  0  0  0  0  0  0
    8.2572   -0.0785    0.0000 C   0  0  1  0  0  0  0  0  0  0  0  0
    7.3912   -0.5785    0.0000 C   0  0  1  0  0  0  0  0  0  0  0  0
    8.2572    0.9215    0.0000 C   0  0  2  0  0  0  0  0  0  0  0  0
    6.5251   -0.0785    0.0000 C   0  0  2  0  0  0  0  0  0  0  0  0
    7.3912    1.4215    0.0000 C   0  0  0  0  0  0  0  0  0  0  0  0
    6.5251    0.9215    0.0000 C   0  0  0  0  0  0  0  0  0  0  0  0
    9.2034   -0.3833    0.0000 C   0  0  0  0  0  0  0  0  0  0  0  0
    7.4072   -1.6200    0.0000 C   0  0  0  0  0  0  0  0  0  0  0  0
    9.2034    1.2262    0.0000 C   0  0  0  0  0  0  0  0  0  0  0  0
    5.6151   -0.5854    0.0000 C   0  0  0  0  0  0  0  0  0  0  0  0
    8.2572    1.9215    0.0000 C   0  0  0  0  0  0  0  0  0  0  0  0
    9.7870    0.4215    0.0000 C   0  0  0  0  0  0  0  0  0  0  0  0
    6.5092   -2.1478    0.0000 C   0  0  0  0  0  0  0  0  0  0  0  0
    5.6071   -1.6270    0.0000 C   0  0  0  0  0  0  0  0  0  0  0  0
    4.6883   -0.0213    0.0000 C   0  0  0  0  0  0  0  0  0  0  0  0
    4.6717   -2.1767    0.0000 C   0  0  0  0  0  0  0  0  0  0  0  0
    3.7404   -0.5493    0.0000 C   0  0  0  0  0  0  0  0  0  0  0  0
    3.7320   -1.6342    0.0000 C   0  0  0  0  0  0  0  0  0  0  0  0
    2.0000   -1.6275    0.0000 C   0  0  0  0  0  0  0  0  0  0  0  0
    8.3471   -0.9238    0.0000 H   0  0  0  0  0  0  0  0  0  0  0  0
    8.1305   -0.9979    0.0000 H   0  0  0  0  0  0  0  0  0  0  0  0
    7.2612    0.3465    0.0000 H   0  0  0  0  0  0  0  0  0  0  0  0
    7.7897    1.8964    0.0000 H   0  0  0  0  0  0  0  0  0  0  0  0
    6.9926    1.8964    0.0000 H   0  0  0  0  0  0  0  0  0  0  0  0
    6.3131    1.5041    0.0000 H   0  0  0  0  0  0  0  0  0  0  0  0
    5.9145    0.8138    0.0000 H   0  0  0  0  0  0  0  0  0  0  0  0
    8.9524   -0.9502    0.0000 H   0  0  0  0  0  0  0  0  0  0  0  0
    9.7408   -0.6925    0.0000 H   0  0  0  0  0  0  0  0  0  0  0  0
    7.6252   -2.2004    0.0000 H   0  0  0  0  0  0  0  0  0  0  0  0
    8.0164   -1.5046    0.0000 H   0  0  0  0  0  0  0  0  0  0  0  0
    8.8772    1.9215    0.0000 H   0  0  0  0  0  0  0  0  0  0  0  0
    8.2572    2.5415    0.0000 H   0  0  0  0  0  0  0  0  0  0  0  0
    7.6372    1.9215    0.0000 H   0  0  0  0  0  0  0  0  0  0  0  0
    6.1119   -2.6238    0.0000 H   0  0  0  0  0  0  0  0  0  0  0  0
    6.9101   -2.6207    0.0000 H   0  0  0  0  0  0  0  0  0  0  0  0
    4.7002    0.5986    0.0000 H   0  0  0  0  0  0  0  0  0  0  0  0
    4.6741   -2.7967    0.0000 H   0  0  0  0  0  0  0  0  0  0  0  0
    3.2071   -0.2331    0.0000 H   0  0  0  0  0  0  0  0  0  0  0  0
   11.9070   -0.4446    0.0000 H   0  0  0  0  0  0  0  0  0  0  0  0
    2.3121   -1.0918    0.0000 H   0  0  0  0  0  0  0  0  0  0  0  0
    1.4643   -1.3155    0.0000 H   0  0  0  0  0  0  0  0  0  0  0  0
    1.6879   -2.1633    0.0000 H   0  0  0  0  0  0  0  0  0  0  0  0
  1 13  2  0  0  0  0
  2  4  1  0  0  0  0
  2 43  1  0  0  0  0
  3 22  1  0  0  0  0
  3 23  1  0  0  0  0
  4 16  2  0  0  0  0
  5  6  1  0  0  0  0
  5  7  1  0  0  0  0
  5 11  1  0  0  0  0
  5 24  1  6  0  0  0
  6  8  1  0  0  0  0
  6 12  1  0  0  0  0
  6 25  1  1  0  0  0
  7  9  1  0  0  0  0
  7 13  1  0  0  0  0
  7 15  1  1  0  0  0
  8 10  1  0  0  0  0
  8 14  1  0  0  0  0
  8 26  1  6  0  0  0
  9 10  1  0  0  0  0
  9 27  1  0  0  0  0
  9 28  1  0  0  0  0
 10 29  1  0  0  0  0
 10 30  1  0  0  0  0
 11 16  1  0  0  0  0
 11 31  1  0  0  0  0
 11 32  1  0  0  0  0
 12 17  1  0  0  0  0
 12 33  1  0  0  0  0
 12 34  1  0  0  0  0
 13 16  1  0  0  0  0
 14 18  2  0  0  0  0
 14 19  1  0  0  0  0
 15 35  1  0  0  0  0
 15 36  1  0  0  0  0
 15 37  1  0  0  0  0
 17 18  1  0  0  0  0
 17 38  1  0  0  0  0
 17 39  1  0  0  0  0
 18 20  1  0  0  0  0
 19 21  2  0  0  0  0
 19 40  1  0  0  0  0
 20 22  2  0  0  0  0
 20 41  1  0  0  0  0
 21 22  1  0  0  0  0
 21 42  1  0  0  0  0
 23 44  1  0  0  0  0
 23 45  1  0  0  0  0
 23 46  1  0  0  0  0
M  END
> <PUBCHEM_COMPOUND_CID>
9561554

> <PUBCHEM_COMPOUND_CANONICALIZED>
1

> <PUBCHEM_CACTVS_COMPLEXITY>
531

> <PUBCHEM_CACTVS_HBOND_ACCEPTOR>
4

> <PUBCHEM_CACTVS_HBOND_DONOR>
1

> <PUBCHEM_CACTVS_ROTATABLE_BOND>
1

> <PUBCHEM_CACTVS_SUBSKEYS>
AAADceB6MAAAAAAAAAAAAAAAAAAAAYAAAAAwYMAAAAAAAGDBAAAAHgAECAAADwyBmAIyBoAQBACoA6ByAAACCAAgIAAIiAE2CIgMJjKEMRqAMCAkwBEIqAeIyPCPoAABAAAQAADAAAYAACAAAAAACAAAAA==

> <PUBCHEM_IUPAC_OPENEYE_NAME>
(8R,9S,13S,14S,16E)-16-hydroxyimino-3-methoxy-13-methyl-6,7,8,9,11,12,14,15-octahydrocyclopenta[a]phenanthren-17-one

> <PUBCHEM_IUPAC_CAS_NAME>
(8R,9S,13S,14S,16E)-16-hydroxyimino-3-methoxy-13-methyl-6,7,8,9,11,12,14,15-octahydrocyclopenta[a]phenanthren-17-one

> <PUBCHEM_IUPAC_NAME>
(8R,9S,13S,14S,16E)-16-hydroxyimino-3-methoxy-13-methyl-6,7,8,9,11,12,14,15-octahydrocyclopenta[a]phenanthren-17-one

> <PUBCHEM_IUPAC_SYSTEMATIC_NAME>
(8R,9S,13S,14S,16E)-16-hydroxyimino-3-methoxy-13-methyl-6,7,8,9,11,12,14,15-octahydrocyclopenta[a]phenanthren-17-one

> <PUBCHEM_IUPAC_TRADITIONAL_NAME>
(8R,9S,13S,14S,16E)-16-hydroximino-3-methoxy-13-methyl-6,7,8,9,11,12,14,15-octahydrocyclopenta[a]phenanthren-17-one

> <PUBCHEM_IUPAC_INCHI>
InChI=1S/C19H23NO3/c1-19-8-7-14-13-6-4-12(23-2)9-11(13)3-5-15(14)16(19)10-17(20-22)18(19)21/h4,6,9,14-16,22H,3,5,7-8,10H2,1-2H3/b20-17+/t14-,15-,16+,19+/m1/s1

> <PUBCHEM_IUPAC_INCHIKEY>
CZHINTJOYWQKED-JQQXAHOJSA-N

> <PUBCHEM_XLOGP3_AA>
3.9

> <PUBCHEM_EXACT_MASS>
313.167794

> <PUBCHEM_MOLECULAR_FORMULA>
C19H23NO3

> <PUBCHEM_MOLECULAR_WEIGHT>
313.39082

> <PUBCHEM_OPENEYE_CAN_SMILES>
CC12CCC3C(C1CC(=NO)C2=O)CCC4=C3C=CC(=C4)OC

> <PUBCHEM_OPENEYE_ISO_SMILES>
C[C@]12CC[C@H]3[C@H]([C@@H]1C/C(=N\O)/C2=O)CCC4=C3C=CC(=C4)OC

> <PUBCHEM_CACTVS_TPSA>
58.9

> <PUBCHEM_MONOISOTOPIC_WEIGHT>
313.167794

> <PUBCHEM_TOTAL_CHARGE>
0

> <PUBCHEM_HEAVY_ATOM_COUNT>
23

> <PUBCHEM_ATOM_DEF_STEREO_COUNT>
4

> <PUBCHEM_ATOM_UDEF_STEREO_COUNT>
0

> <PUBCHEM_BOND_DEF_STEREO_COUNT>
1

> <PUBCHEM_BOND_UDEF_STEREO_COUNT>
0

> <PUBCHEM_ISOTOPIC_ATOM_COUNT>
0

> <PUBCHEM_COMPONENT_COUNT>
1

> <PUBCHEM_CACTVS_TAUTO_COUNT>
8

> <PUBCHEM_COORDINATE_TYPE>
1
5
255

> <PUBCHEM_BONDANNOTATIONS>
14  18  8
14  19  8
18  20  8
19  21  8
20  22  8
21  22  8
5  24  6
6  25  5
7  15  5
8  26  6

$$$$

