   Color/Form
        LIQUID
   from [1]HSDB

   Odor
        PLEASANT OVER-RIPE FRUIT ODOR
   from [2]HSDB

   Taste
        APPLE TASTE
   from [3]HSDB

   Boiling Point
        89-90 DEG C
   from [4]HSDB

   Spectral Properties
        INDEX OF REFRACTION: 1.4162 @ 21 DEG C
   from [5]HSDB

   Computed Properties
   Molecular Weight                  142.19556 [g/mol]
   Molecular Formula                 C[8]H[14]O[2]
   XLogP3-AA                         2
   H-Bond Donor                      0
   H-Bond Acceptor                   2
   Rotatable Bond Count              5
   Exact Mass                        142.09938
   MonoIsotopic Mass                 142.09938
   Topological Polar Surface Area    26.3
   Heavy Atom Count                  10
   Formal Charge                     0
   Complexity                        116
   Isotope Atom Count                0
   Defined Atom Stereocenter Count   0
   Undefined Atom Stereocenter Count 0
   Defined Bond Stereocenter Count   0
   Undefined Bond Stereocenter Count 0
   Covalently-Bonded Unit Count      1
   Feature 3D Acceptor Count         1
   Feature 3D Hydrophobe Count       2
   Effective Rotor Count             5
   Conformer Sampling RMSD           0.6
   CID Conformer Count               [6]38

References

   1. http://toxnet.nlm.nih.gov/cgi-bin/sis/search/r?dbs+hsdb:@term+@rn+@rel+2835-39-4
   2. http://toxnet.nlm.nih.gov/cgi-bin/sis/search/r?dbs+hsdb:@term+@rn+@rel+2835-39-4
   3. http://toxnet.nlm.nih.gov/cgi-bin/sis/search/r?dbs+hsdb:@term+@rn+@rel+2835-39-4
   4. http://toxnet.nlm.nih.gov/cgi-bin/sis/search/r?dbs+hsdb:@term+@rn+@rel+2835-39-4
   5. http://toxnet.nlm.nih.gov/cgi-bin/sis/search/r?dbs+hsdb:@term+@rn+@rel+2835-39-4
   6. http://pubchem.ncbi.nlm.nih.gov/vw3d/vw3d.cgi?cid=17816
