   Color/Form

     * ORTHORHOMBIC SPHENOIDAL PRISMS OR CLUSTERS OF LEAFLETS FROM ETHER
       OR BENZENE
     * WHITE MICROCRYSTALLINE POWDER
     * Colorless or pinkish crystals

   from [1]HSDB

   Odor
        ODORLESS
   from [2]HSDB

   Melting Point
        105-106 DEG C (ALSO AN UNSTABLE, LOW MELTING FORM, 86-87 DEG C)
   from [3]HSDB

   Dissociation Constants
        K1= 7.6X10-7; K2= 5.7X10-13
   from [4]HSDB

   Solubilities

     * SLIGHTLY SOL IN WATER; SOL IN ALC, BENZENE, CHLOROFORM, OILS
     * VERY SOL IN DICHLOROMETHANE
     * Sol in ether
     * Sol in dilute acids

   from [5]HSDB

   Spectral Properties

     * SPECIFIC OPTICAL ROTATION @ 17 DEG C/D= -76 DEG (CONCENTRATION BY
       VOLUME = 1.3 GIN 100 ML CHLOROFORM); @ 25 DEG C/D= -120 DEG
       (BENZENE)
     * MAX ABSORPTION (0.2 MOLAR H3BO3): 246 NM (A= 390, 1%, 1 CM); 302 NM
       (A= 90, 1%, 1 CM); MAX ABSORPTION (PH 9.4 BORATE BUFFER): 250 NM
       (A= 350, 1%, 1 CM); 307 NM (A= 90, 1%, 1 CM)
     * IR: 880 (Coblentz Society Spectral Collection)
     * UV: 11498 (Sadtler Research Laboratories Spectral Collection)
     * NMR: 319 (Varian Associates NMR Spectra Catalogue)
     * MASS: 215 (Aldermaston, Eight Peak Index of Mass Spectra, UK)
     * Intense mass spectral peaks: 94 m/z, 160 m/z, 174 m/z, 218 m/z

   from [6]HSDB

   Other Chemical/Physical Properties

     * HYGROSCOPIC
     * Acicular crystals; mp: 185-187 deg C; one gram dissolves in 75 ml
       water at 25 deg C (pH of 0.5% aq soln 5.8), in 16 ml water at 80
       deg C, in 16 ml alcohol, 5 ml boiling alcohol, in 6 ml chloroform,
       250 ml ether. /Physostigmine salicylate/
     * Deliquescent scales; mp: 140 deg C (after drying at 100 deg C); one
       gram dissolves in 0.4 ml alcohol, 4 ml water (pH of 0.05M soln
       4.7), 1200 ml ether; the solns are more prone to change color than
       those of the salicylate. /Physostigmine sulfate/
     * White, shiny crystals or white powder; solubilities of
       approximately 13.3 mg/ml in water and 62.5 mg/ml in alcohol at 25
       deg C. /Physostigmine salicylate/
     * White, odorless, microcrystalline powder which is deliquescent in
       moist air and has solubilities of approximately 0.25 g/ml in water
       and 2.5 g/ml in alcohol at 25 deg C. /Physostigmine sulfate/
     * Commercially available ophthalmic solutions of physostigmine have a
       pH of 2-4.

   from [7]HSDB

   Computed Properties
   Molecular Weight                  275.34614 [g/mol]
   Molecular Formula                 C[15]H[21]N[3]O[2]
   XLogP3                            0.7
   H-Bond Donor                      1
   H-Bond Acceptor                   4
   Rotatable Bond Count              2
   Tautomer Count                    2
   Exact Mass                        275.163377
   MonoIsotopic Mass                 275.163377
   Topological Polar Surface Area    44.8
   Heavy Atom Count                  20
   Formal Charge                     0
   Complexity                        403
   Isotope Atom Count                0
   Defined Atom Stereocenter Count   2
   Undefined Atom Stereocenter Count 0
   Defined Bond Stereocenter Count   0
   Undefined Bond Stereocenter Count 0
   Covalently-Bonded Unit Count      1
   Feature 3D Acceptor Count         1
   Feature 3D Donor Count            1
   Feature 3D Cation Count           2
   Feature 3D Ring Count             3
   Effective Rotor Count             3.8
   Conformer Sampling RMSD           0.6
   CID Conformer Count               [8]35

References

   1. http://toxnet.nlm.nih.gov/cgi-bin/sis/search/r?dbs+hsdb:@term+@rn+@rel+57-47-6
   2. http://toxnet.nlm.nih.gov/cgi-bin/sis/search/r?dbs+hsdb:@term+@rn+@rel+57-47-6
   3. http://toxnet.nlm.nih.gov/cgi-bin/sis/search/r?dbs+hsdb:@term+@rn+@rel+57-47-6
   4. http://toxnet.nlm.nih.gov/cgi-bin/sis/search/r?dbs+hsdb:@term+@rn+@rel+57-47-6
   5. http://toxnet.nlm.nih.gov/cgi-bin/sis/search/r?dbs+hsdb:@term+@rn+@rel+57-47-6
   6. http://toxnet.nlm.nih.gov/cgi-bin/sis/search/r?dbs+hsdb:@term+@rn+@rel+57-47-6
   7. http://toxnet.nlm.nih.gov/cgi-bin/sis/search/r?dbs+hsdb:@term+@rn+@rel+57-47-6
   8. http://pubchem.ncbi.nlm.nih.gov/vw3d/vw3d.cgi?cid=5983
