9236
  -OEChem-06261203312D

 21 22  0     0  0  0  0  0  0999 V2000
    6.0640   -1.2682    0.0000 N   0  0  0  0  0  0  0  0  0  0  0  0
    4.4909    0.4565    0.0000 C   0  0  0  0  0  0  0  0  0  0  0  0
    4.2320   -0.5094    0.0000 C   0  0  0  0  0  0  0  0  0  0  0  0
    4.1203    1.8052    0.0000 C   0  0  0  0  0  0  0  0  0  0  0  0
    2.0000   -0.6434    0.0000 C   0  0  0  0  0  0  0  0  0  0  0  0
    3.2543    1.3052    0.0000 C   0  0  0  0  0  0  0  0  0  0  0  0
    2.5000   -1.5094    0.0000 C   0  0  0  0  0  0  0  0  0  0  0  0
    6.3228   -0.3023    0.0000 C   0  0  0  0  0  0  0  0  0  0  0  0
    4.4980   -0.1634    0.0000 H   0  0  0  0  0  0  0  0  0  0  0  0
    4.2726   -1.1281    0.0000 H   0  0  0  0  0  0  0  0  0  0  0  0
    4.7020    2.0197    0.0000 H   0  0  0  0  0  0  0  0  0  0  0  0
    3.8571    2.3665    0.0000 H   0  0  0  0  0  0  0  0  0  0  0  0
    1.7294   -0.0856    0.0000 H   0  0  0  0  0  0  0  0  0  0  0  0
    1.4523   -0.9339    0.0000 H   0  0  0  0  0  0  0  0  0  0  0  0
    2.9495    1.8451    0.0000 H   0  0  0  0  0  0  0  0  0  0  0  0
    2.7114    1.0057    0.0000 H   0  0  0  0  0  0  0  0  0  0  0  0
    1.9631   -1.8194    0.0000 H   0  0  0  0  0  0  0  0  0  0  0  0
    2.8100   -2.0463    0.0000 H   0  0  0  0  0  0  0  0  0  0  0  0
    6.9141   -0.4887    0.0000 H   0  0  0  0  0  0  0  0  0  0  0  0
    6.5349    0.2803    0.0000 H   0  0  0  0  0  0  0  0  0  0  0  0
    6.3740   -1.8052    0.0000 H   0  0  0  0  0  0  0  0  0  0  0  0
  1  3  1  0  0  0  0
  1  8  1  0  0  0  0
  1 21  1  0  0  0  0
  2  4  1  0  0  0  0
  2  5  1  0  0  0  0
  2  8  1  0  0  0  0
  2  9  1  0  0  0  0
  3  6  1  0  0  0  0
  3  7  1  0  0  0  0
  3 10  1  0  0  0  0
  4  6  1  0  0  0  0
  4 11  1  0  0  0  0
  4 12  1  0  0  0  0
  5  7  1  0  0  0  0
  5 13  1  0  0  0  0
  5 14  1  0  0  0  0
  6 15  1  0  0  0  0
  6 16  1  0  0  0  0
  7 17  1  0  0  0  0
  7 18  1  0  0  0  0
  8 19  1  0  0  0  0
  8 20  1  0  0  0  0
M  END
> <PUBCHEM_COMPOUND_CID>
9236

> <PUBCHEM_COMPOUND_CANONICALIZED>
1

> <PUBCHEM_CACTVS_COMPLEXITY>
82.4

> <PUBCHEM_CACTVS_HBOND_ACCEPTOR>
1

> <PUBCHEM_CACTVS_HBOND_DONOR>
1

> <PUBCHEM_CACTVS_ROTATABLE_BOND>
0

> <PUBCHEM_CACTVS_SUBSKEYS>
AAADccBiAAAAAAAAAAAAAAAAAAAAAAAAAAA8WIAAAAAAAAAAAAAAHAAQAAAADSjBAAQAAALAAAAAAAAAAAAAAAAAAAAAAIAIAAAAAAIAgAAEAAAAEACAAAEQgAAOAAAAAAAAAAAQAAAAAAAAAAAAAAAAAA==

> <PUBCHEM_IUPAC_OPENEYE_NAME>
3-azabicyclo[2.2.2]octane

> <PUBCHEM_IUPAC_CAS_NAME>
3-azabicyclo[2.2.2]octane

> <PUBCHEM_IUPAC_NAME>
3-azabicyclo[2.2.2]octane

> <PUBCHEM_IUPAC_SYSTEMATIC_NAME>
3-azabicyclo[2.2.2]octane

> <PUBCHEM_IUPAC_TRADITIONAL_NAME>
3-azabicyclo[2.2.2]octane

> <PUBCHEM_IUPAC_INCHI>
InChI=1S/C7H13N/c1-3-7-4-2-6(1)5-8-7/h6-8H,1-5H2

> <PUBCHEM_IUPAC_INCHIKEY>
KPUSZZFAYGWAHZ-UHFFFAOYSA-N

> <PUBCHEM_XLOGP3_AA>
1.1

> <PUBCHEM_EXACT_MASS>
111.104799

> <PUBCHEM_MOLECULAR_FORMULA>
C7H13N

> <PUBCHEM_MOLECULAR_WEIGHT>
111.18482

> <PUBCHEM_OPENEYE_CAN_SMILES>
C1CC2CCC1CN2

> <PUBCHEM_OPENEYE_ISO_SMILES>
C1CC2CCC1CN2

> <PUBCHEM_CACTVS_TPSA>
12

> <PUBCHEM_MONOISOTOPIC_WEIGHT>
111.104799

> <PUBCHEM_TOTAL_CHARGE>
0

> <PUBCHEM_HEAVY_ATOM_COUNT>
8

> <PUBCHEM_ATOM_DEF_STEREO_COUNT>
0

> <PUBCHEM_ATOM_UDEF_STEREO_COUNT>
0

> <PUBCHEM_BOND_DEF_STEREO_COUNT>
0

> <PUBCHEM_BOND_UDEF_STEREO_COUNT>
0

> <PUBCHEM_ISOTOPIC_ATOM_COUNT>
0

> <PUBCHEM_COMPONENT_COUNT>
1

> <PUBCHEM_CACTVS_TAUTO_COUNT>
1

> <PUBCHEM_COORDINATE_TYPE>
1
5
255

$$$$

