92155
  -OEChem-07051212512D

 80 84  0     1  0  0  0  0  0999 V2000
    6.5251    0.1511    0.0000 C   0  0  1  0  0  0  0  0  0  0  0  0
    5.6591   -0.3489    0.0000 C   0  0  1  0  0  0  0  0  0  0  0  0
    6.5251    1.1511    0.0000 C   0  0  1  0  0  0  0  0  0  0  0  0
    4.7931    0.1511    0.0000 C   0  0  1  0  0  0  0  0  0  0  0  0
    7.4191    1.6858    0.0000 C   0  0  2  0  0  0  0  0  0  0  0  0
    3.8831   -0.3557    0.0000 C   0  0  2  0  0  0  0  0  0  0  0  0
    8.3252    1.1719    0.0000 C   0  0  1  0  0  0  0  0  0  0  0  0
    3.8751   -1.3973    0.0000 C   0  0  1  0  0  0  0  0  0  0  0  0
    5.6591    1.6511    0.0000 C   0  0  0  0  0  0  0  0  0  0  0  0
    7.4191   -0.3835    0.0000 C   0  0  0  0  0  0  0  0  0  0  0  0
    4.7931    1.1511    0.0000 C   0  0  0  0  0  0  0  0  0  0  0  0
    5.6752   -1.3904    0.0000 C   0  0  0  0  0  0  0  0  0  0  0  0
    8.3252    0.1303    0.0000 C   0  0  0  0  0  0  0  0  0  0  0  0
    4.7771   -1.9181    0.0000 C   0  0  0  0  0  0  0  0  0  0  0  0
    7.6292    2.6997    0.0000 C   0  0  0  0  0  0  0  0  0  0  0  0
    2.9396   -1.9470    0.0000 C   0  0  0  0  0  0  0  0  0  0  0  0
    9.0875    1.8727    0.0000 C   0  0  2  0  0  0  0  0  0  0  0  0
    2.9562    0.2084    0.0000 C   0  0  0  0  0  0  0  0  0  0  0  0
    6.8672   -0.7885    0.0000 C   0  0  0  0  0  0  0  0  0  0  0  0
    6.3019   -1.1149    0.0000 C   0  0  0  0  0  0  0  0  0  0  0  0
    8.6582    2.8150    0.0000 C   0  0  0  0  0  0  0  0  0  0  0  0
    6.5492    2.1791    0.0000 C   0  0  0  0  0  0  0  0  0  0  0  0
    3.8908    0.6442    0.0000 C   0  0  0  0  0  0  0  0  0  0  0  0
    2.0000   -1.4046    0.0000 C   0  0  0  0  0  0  0  0  0  0  0  0
    2.0084   -0.3196    0.0000 C   0  0  0  0  0  0  0  0  0  0  0  0
    2.4430   -2.8150    0.0000 C   0  0  0  0  0  0  0  0  0  0  0  0
    3.4430   -2.8111    0.0000 C   0  0  0  0  0  0  0  0  0  0  0  0
   10.0675    1.6740    0.0000 C   0  0  0  0  0  0  0  0  0  0  0  0
   10.7296    2.4234    0.0000 C   0  0  0  0  0  0  0  0  0  0  0  0
   10.3855    0.7259    0.0000 C   0  0  0  0  0  0  0  0  0  0  0  0
    6.5186    2.0011    0.0000 H   0  0  0  0  0  0  0  0  0  0  0  0
    5.5292    0.5761    0.0000 H   0  0  0  0  0  0  0  0  0  0  0  0
    9.1034    0.8302    0.0000 H   0  0  0  0  0  0  0  0  0  0  0  0
    3.8783   -2.2473    0.0000 H   0  0  0  0  0  0  0  0  0  0  0  0
    6.0576    2.1261    0.0000 H   0  0  0  0  0  0  0  0  0  0  0  0
    5.2606    2.1261    0.0000 H   0  0  0  0  0  0  0  0  0  0  0  0
    7.0145   -0.8533    0.0000 H   0  0  0  0  0  0  0  0  0  0  0  0
    7.8127   -0.8626    0.0000 H   0  0  0  0  0  0  0  0  0  0  0  0
    4.5810    1.7337    0.0000 H   0  0  0  0  0  0  0  0  0  0  0  0
    4.1825    1.0435    0.0000 H   0  0  0  0  0  0  0  0  0  0  0  0
    5.8932   -1.9708    0.0000 H   0  0  0  0  0  0  0  0  0  0  0  0
    6.2843   -1.2749    0.0000 H   0  0  0  0  0  0  0  0  0  0  0  0
    8.5342   -0.4534    0.0000 H   0  0  0  0  0  0  0  0  0  0  0  0
    8.9360    0.2364    0.0000 H   0  0  0  0  0  0  0  0  0  0  0  0
    4.3798   -2.3941    0.0000 H   0  0  0  0  0  0  0  0  0  0  0  0
    5.1781   -2.3910    0.0000 H   0  0  0  0  0  0  0  0  0  0  0  0
    7.6253    3.3197    0.0000 H   0  0  0  0  0  0  0  0  0  0  0  0
    7.0122    2.7610    0.0000 H   0  0  0  0  0  0  0  0  0  0  0  0
    9.4733    2.3580    0.0000 H   0  0  0  0  0  0  0  0  0  0  0  0
    3.3645    0.6750    0.0000 H   0  0  0  0  0  0  0  0  0  0  0  0
    2.5663    0.6904    0.0000 H   0  0  0  0  0  0  0  0  0  0  0  0
    6.2847   -1.0006    0.0000 H   0  0  0  0  0  0  0  0  0  0  0  0
    7.0794   -1.3711    0.0000 H   0  0  0  0  0  0  0  0  0  0  0  0
    7.4498   -0.5764    0.0000 H   0  0  0  0  0  0  0  0  0  0  0  0
    5.8270   -1.5134    0.0000 H   0  0  0  0  0  0  0  0  0  0  0  0
    6.7004   -1.5899    0.0000 H   0  0  0  0  0  0  0  0  0  0  0  0
    6.7768   -0.7164    0.0000 H   0  0  0  0  0  0  0  0  0  0  0  0
    9.2463    3.0113    0.0000 H   0  0  0  0  0  0  0  0  0  0  0  0
    8.5248    3.4205    0.0000 H   0  0  0  0  0  0  0  0  0  0  0  0
    6.8551    2.7184    0.0000 H   0  0  0  0  0  0  0  0  0  0  0  0
    6.0099    2.4850    0.0000 H   0  0  0  0  0  0  0  0  0  0  0  0
    6.2434    1.6398    0.0000 H   0  0  0  0  0  0  0  0  0  0  0  0
    4.5108    0.6395    0.0000 H   0  0  0  0  0  0  0  0  0  0  0  0
    3.8956    1.2642    0.0000 H   0  0  0  0  0  0  0  0  0  0  0  0
    3.2708    0.6490    0.0000 H   0  0  0  0  0  0  0  0  0  0  0  0
    1.3900   -1.2938    0.0000 H   0  0  0  0  0  0  0  0  0  0  0  0
    1.7864   -1.9866    0.0000 H   0  0  0  0  0  0  0  0  0  0  0  0
    1.8038    0.2657    0.0000 H   0  0  0  0  0  0  0  0  0  0  0  0
    1.3967   -0.4210    0.0000 H   0  0  0  0  0  0  0  0  0  0  0  0
    1.9048   -2.5071    0.0000 H   0  0  0  0  0  0  0  0  0  0  0  0
    2.1350   -3.3531    0.0000 H   0  0  0  0  0  0  0  0  0  0  0  0
    2.9811   -3.1229    0.0000 H   0  0  0  0  0  0  0  0  0  0  0  0
    2.9072   -3.1232    0.0000 H   0  0  0  0  0  0  0  0  0  0  0  0
    3.7550   -3.3469    0.0000 H   0  0  0  0  0  0  0  0  0  0  0  0
    3.9787   -2.4991    0.0000 H   0  0  0  0  0  0  0  0  0  0  0  0
   11.1943    2.0130    0.0000 H   0  0  0  0  0  0  0  0  0  0  0  0
   11.1401    2.8881    0.0000 H   0  0  0  0  0  0  0  0  0  0  0  0
   10.2650    2.8340    0.0000 H   0  0  0  0  0  0  0  0  0  0  0  0
    9.9750    0.2613    0.0000 H   0  0  0  0  0  0  0  0  0  0  0  0
   10.9932    0.6028    0.0000 H   0  0  0  0  0  0  0  0  0  0  0  0
  1  2  1  0  0  0  0
  1  3  1  0  0  0  0
  1 10  1  0  0  0  0
  1 19  1  6  0  0  0
  2  4  1  0  0  0  0
  2 12  1  0  0  0  0
  2 20  1  1  0  0  0
  3  5  1  0  0  0  0
  3  9  1  0  0  0  0
  3 31  1  1  0  0  0
  4  6  1  0  0  0  0
  4 11  1  0  0  0  0
  4 32  1  6  0  0  0
  5  7  1  0  0  0  0
  5 15  1  0  0  0  0
  5 22  1  6  0  0  0
  6  8  1  0  0  0  0
  6 18  1  0  0  0  0
  6 23  1  1  0  0  0
  7 13  1  0  0  0  0
  7 17  1  0  0  0  0
  7 33  1  1  0  0  0
  8 14  1  0  0  0  0
  8 16  1  0  0  0  0
  8 34  1  6  0  0  0
  9 11  1  0  0  0  0
  9 35  1  0  0  0  0
  9 36  1  0  0  0  0
 10 13  1  0  0  0  0
 10 37  1  0  0  0  0
 10 38  1  0  0  0  0
 11 39  1  0  0  0  0
 11 40  1  0  0  0  0
 12 14  1  0  0  0  0
 12 41  1  0  0  0  0
 12 42  1  0  0  0  0
 13 43  1  0  0  0  0
 13 44  1  0  0  0  0
 14 45  1  0  0  0  0
 14 46  1  0  0  0  0
 15 21  1  0  0  0  0
 15 47  1  0  0  0  0
 15 48  1  0  0  0  0
 16 24  1  0  0  0  0
 16 26  1  0  0  0  0
 16 27  1  0  0  0  0
 17 21  1  0  0  0  0
 17 28  1  6  0  0  0
 17 49  1  0  0  0  0
 18 25  1  0  0  0  0
 18 50  1  0  0  0  0
 18 51  1  0  0  0  0
 19 52  1  0  0  0  0
 19 53  1  0  0  0  0
 19 54  1  0  0  0  0
 20 55  1  0  0  0  0
 20 56  1  0  0  0  0
 20 57  1  0  0  0  0
 21 58  1  0  0  0  0
 21 59  1  0  0  0  0
 22 60  1  0  0  0  0
 22 61  1  0  0  0  0
 22 62  1  0  0  0  0
 23 63  1  0  0  0  0
 23 64  1  0  0  0  0
 23 65  1  0  0  0  0
 24 25  1  0  0  0  0
 24 66  1  0  0  0  0
 24 67  1  0  0  0  0
 25 68  1  0  0  0  0
 25 69  1  0  0  0  0
 26 70  1  0  0  0  0
 26 71  1  0  0  0  0
 26 72  1  0  0  0  0
 27 73  1  0  0  0  0
 27 74  1  0  0  0  0
 27 75  1  0  0  0  0
 28 29  1  0  0  0  0
 28 30  2  0  0  0  0
 29 76  1  0  0  0  0
 29 77  1  0  0  0  0
 29 78  1  0  0  0  0
 30 79  1  0  0  0  0
 30 80  1  0  0  0  0
M  END
> <PUBCHEM_COMPOUND_CID>
92155

> <PUBCHEM_COMPOUND_CANONICALIZED>
1

> <PUBCHEM_CACTVS_COMPLEXITY>
730

> <PUBCHEM_CACTVS_HBOND_ACCEPTOR>
0

> <PUBCHEM_CACTVS_HBOND_DONOR>
0

> <PUBCHEM_CACTVS_ROTATABLE_BOND>
1

> <PUBCHEM_CACTVS_SUBSKEYS>
AAADcfB4AAAAAAAAAAAAAAAAAAAAAYAAAAAwYMGAAAAAAGDAAAAAGAAAAAAADwCAAAACAAAAAACAAgBCAAAAAAAgAAAAAAAAAAgAAAIAAQAAAAAAgAAAAAEAgMAPgAAAAAAAAACAAAQAACAAAQAACAAAAA==

> <PUBCHEM_IUPAC_OPENEYE_NAME>
(3S,3aS,5aR,5bR,7aS,11aS,11bR,13aR,13bS)-3-isopropenyl-5a,5b,8,8,11a,13b-hexamethyl-1,2,3,3a,4,5,6,7,7a,9,10,11,11b,12,13,13a-hexadecahydrocyclopenta[a]chrysene

> <PUBCHEM_IUPAC_CAS_NAME>
(3S,3aS,5aR,5bR,7aS,11aS,11bR,13aR,13bS)-5a,5b,8,8,11a,13b-hexamethyl-3-(1-methylethenyl)-1,2,3,3a,4,5,6,7,7a,9,10,11,11b,12,13,13a-hexadecahydrocyclopenta[a]chrysene

> <PUBCHEM_IUPAC_NAME>
(3S,3aS,5aR,5bR,7aS,11aS,11bR,13aR,13bS)-5a,5b,8,8,11a,13b-hexamethyl-3-prop-1-en-2-yl-1,2,3,3a,4,5,6,7,7a,9,10,11,11b,12,13,13a-hexadecahydrocyclopenta[a]chrysene

> <PUBCHEM_IUPAC_SYSTEMATIC_NAME>
(3S,3aS,5aR,5bR,7aS,11aS,11bR,13aR,13bS)-5a,5b,8,8,11a,13b-hexamethyl-3-prop-1-en-2-yl-1,2,3,3a,4,5,6,7,7a,9,10,11,11b,12,13,13a-hexadecahydrocyclopenta[a]chrysene

> <PUBCHEM_IUPAC_TRADITIONAL_NAME>
(3S,3aS,5aR,5bR,7aS,11aS,11bR,13aR,13bS)-3-isopropenyl-5a,5b,8,8,11a,13b-hexamethyl-1,2,3,3a,4,5,6,7,7a,9,10,11,11b,12,13,13a-hexadecahydrocyclopenta[a]chrysene

> <PUBCHEM_IUPAC_INCHI>
InChI=1S/C30H50/c1-20(2)21-12-17-27(5)22(21)13-18-29(7)24(27)10-11-25-28(6)16-9-15-26(3,4)23(28)14-19-30(25,29)8/h21-25H,1,9-19H2,2-8H3/t21-,22+,23+,24-,25-,27+,28+,29-,30-/m1/s1

> <PUBCHEM_IUPAC_INCHIKEY>
HHXYJYBYNZMZKX-PYQRSULMSA-N

> <PUBCHEM_XLOGP3_AA>
11.4

> <PUBCHEM_EXACT_MASS>
410.391252

> <PUBCHEM_MOLECULAR_FORMULA>
C30H50

> <PUBCHEM_MOLECULAR_WEIGHT>
410.718

> <PUBCHEM_OPENEYE_CAN_SMILES>
CC(=C)C1CCC2(C1CCC3(C2CCC4C3(CCC5C4(CCCC5(C)C)C)C)C)C

> <PUBCHEM_OPENEYE_ISO_SMILES>
CC(=C)[C@H]1CC[C@]2([C@H]1CC[C@@]3([C@@H]2CC[C@H]4[C@]3(CC[C@@H]5[C@@]4(CCCC5(C)C)C)C)C)C

> <PUBCHEM_CACTVS_TPSA>
0

> <PUBCHEM_MONOISOTOPIC_WEIGHT>
410.391252

> <PUBCHEM_TOTAL_CHARGE>
0

> <PUBCHEM_HEAVY_ATOM_COUNT>
30

> <PUBCHEM_ATOM_DEF_STEREO_COUNT>
9

> <PUBCHEM_ATOM_UDEF_STEREO_COUNT>
0

> <PUBCHEM_BOND_DEF_STEREO_COUNT>
0

> <PUBCHEM_BOND_UDEF_STEREO_COUNT>
0

> <PUBCHEM_ISOTOPIC_ATOM_COUNT>
0

> <PUBCHEM_COMPONENT_COUNT>
1

> <PUBCHEM_CACTVS_TAUTO_COUNT>
1

> <PUBCHEM_COORDINATE_TYPE>
1
5
255

> <PUBCHEM_BONDANNOTATIONS>
1  19  6
17  28  6
2  20  5
3  31  5
4  32  6
5  22  6
6  23  5
7  33  5
8  34  6

$$$$

