442697
  -OEChem-07051212592D

 38 41  0     0  0  0  0  0  0999 V2000
    5.5444   -0.6190    0.0000 O   0  0  0  0  0  0  0  0  0  0  0  0
    2.0074    2.3871    0.0000 O   0  0  0  0  0  0  0  0  0  0  0  0
    3.7095    3.4007    0.0000 O   0  0  0  0  0  0  0  0  0  0  0  0
    5.4501    2.4549    0.0000 O   0  0  0  0  0  0  0  0  0  0  0  0
    3.7095   -3.5972    0.0000 O   0  0  0  0  0  0  0  0  0  0  0  0
    3.7444    0.4018    0.0000 C   0  0  0  0  0  0  0  0  0  0  0  0
    2.8784    0.9018    0.0000 C   0  0  0  0  0  0  0  0  0  0  0  0
    3.7444   -0.5982    0.0000 C   0  0  0  0  0  0  0  0  0  0  0  0
    2.0123    0.4018    0.0000 C   0  0  0  0  0  0  0  0  0  0  0  0
    2.0123   -0.5982    0.0000 C   0  0  0  0  0  0  0  0  0  0  0  0
    2.8784   -1.0982    0.0000 C   0  0  0  0  0  0  0  0  0  0  0  0
    4.6383    0.9364    0.0000 C   0  0  0  0  0  0  0  0  0  0  0  0
    4.6383   -1.1329    0.0000 C   0  0  0  0  0  0  0  0  0  0  0  0
    2.8771    1.8935    0.0000 C   0  0  0  0  0  0  0  0  0  0  0  0
    5.5444    0.4226    0.0000 C   0  0  0  0  0  0  0  0  0  0  0  0
    4.6005    1.9274    0.0000 C   0  0  0  0  0  0  0  0  0  0  0  0
    3.7292    2.4009    0.0000 C   0  0  0  0  0  0  0  0  0  0  0  0
    2.8771   -2.0899    0.0000 C   0  0  0  0  0  0  0  0  0  0  0  0
    4.6005   -2.1239    0.0000 C   0  0  0  0  0  0  0  0  0  0  0  0
    3.7292   -2.5974    0.0000 C   0  0  0  0  0  0  0  0  0  0  0  0
    2.0000    3.3870    0.0000 C   0  0  0  0  0  0  0  0  0  0  0  0
    4.5655    3.9177    0.0000 C   0  0  0  0  0  0  0  0  0  0  0  0
    1.8003    0.9844    0.0000 H   0  0  0  0  0  0  0  0  0  0  0  0
    1.4017    0.2941    0.0000 H   0  0  0  0  0  0  0  0  0  0  0  0
    1.4017   -0.4906    0.0000 H   0  0  0  0  0  0  0  0  0  0  0  0
    1.8003   -1.1808    0.0000 H   0  0  0  0  0  0  0  0  0  0  0  0
    6.1552    0.3165    0.0000 H   0  0  0  0  0  0  0  0  0  0  0  0
    5.7534    1.0063    0.0000 H   0  0  0  0  0  0  0  0  0  0  0  0
    2.3379   -2.3959    0.0000 H   0  0  0  0  0  0  0  0  0  0  0  0
    5.1273   -2.4509    0.0000 H   0  0  0  0  0  0  0  0  0  0  0  0
    5.4303    3.0745    0.0000 H   0  0  0  0  0  0  0  0  0  0  0  0
    2.6200    3.3916    0.0000 H   0  0  0  0  0  0  0  0  0  0  0  0
    1.9954    4.0070    0.0000 H   0  0  0  0  0  0  0  0  0  0  0  0
    1.3800    3.3824    0.0000 H   0  0  0  0  0  0  0  0  0  0  0  0
    4.2402   -3.9177    0.0000 H   0  0  0  0  0  0  0  0  0  0  0  0
    4.8860    3.3870    0.0000 H   0  0  0  0  0  0  0  0  0  0  0  0
    5.0962    4.2382    0.0000 H   0  0  0  0  0  0  0  0  0  0  0  0
    4.2450    4.4484    0.0000 H   0  0  0  0  0  0  0  0  0  0  0  0
  1 13  1  0  0  0  0
  1 15  1  0  0  0  0
  2 14  1  0  0  0  0
  2 21  1  0  0  0  0
  3 17  1  0  0  0  0
  3 22  1  0  0  0  0
  4 16  1  0  0  0  0
  4 31  1  0  0  0  0
  5 20  1  0  0  0  0
  5 35  1  0  0  0  0
  6  7  2  0  0  0  0
  6  8  1  0  0  0  0
  6 12  1  0  0  0  0
  7  9  1  0  0  0  0
  7 14  1  0  0  0  0
  8 11  2  0  0  0  0
  8 13  1  0  0  0  0
  9 10  1  0  0  0  0
  9 23  1  0  0  0  0
  9 24  1  0  0  0  0
 10 11  1  0  0  0  0
 10 25  1  0  0  0  0
 10 26  1  0  0  0  0
 11 18  1  0  0  0  0
 12 15  1  0  0  0  0
 12 16  2  0  0  0  0
 13 19  2  0  0  0  0
 14 17  2  0  0  0  0
 15 27  1  0  0  0  0
 15 28  1  0  0  0  0
 16 17  1  0  0  0  0
 18 20  2  0  0  0  0
 18 29  1  0  0  0  0
 19 20  1  0  0  0  0
 19 30  1  0  0  0  0
 21 32  1  0  0  0  0
 21 33  1  0  0  0  0
 21 34  1  0  0  0  0
 22 36  1  0  0  0  0
 22 37  1  0  0  0  0
 22 38  1  0  0  0  0
M  END
> <PUBCHEM_COMPOUND_CID>
442697

> <PUBCHEM_COMPOUND_CANONICALIZED>
1

> <PUBCHEM_CACTVS_COMPLEXITY>
416

> <PUBCHEM_CACTVS_HBOND_ACCEPTOR>
5

> <PUBCHEM_CACTVS_HBOND_DONOR>
2

> <PUBCHEM_CACTVS_ROTATABLE_BOND>
2

> <PUBCHEM_CACTVS_SUBSKEYS>
AAADceB4OAAAAAAAAAAAAAAAAAAAAAAAAAA0YMEAAAAAAADRQAAAGgAACAAADASgmAIyBoAABgCAAiBCAAACCAAgIAAAiAAGiIgNJyKGMRqCeCOlwBULuAfA4PwOoAADCAAYQADAAAYQADCAAAAAAAAAAA==

> <PUBCHEM_IUPAC_INCHI>
InChI=1S/C17H16O5/c1-20-16-10-4-3-8-5-9(18)6-12-13(8)14(10)11(7-22-12)15(19)17(16)21-2/h5-6,18-19H,3-4,7H2,1-2H3

> <PUBCHEM_IUPAC_INCHIKEY>
QLYYIQVXUQYKGV-UHFFFAOYSA-N

> <PUBCHEM_XLOGP3_AA>
2.6

> <PUBCHEM_EXACT_MASS>
300.099774

> <PUBCHEM_MOLECULAR_FORMULA>
C17H16O5

> <PUBCHEM_MOLECULAR_WEIGHT>
300.30594

> <PUBCHEM_OPENEYE_CAN_SMILES>
COC1=C(C(=C2COC3=C4C2=C1CCC4=CC(=C3)O)O)OC

> <PUBCHEM_OPENEYE_ISO_SMILES>
COC1=C(C(=C2COC3=C4C2=C1CCC4=CC(=C3)O)O)OC

> <PUBCHEM_CACTVS_TPSA>
68.2

> <PUBCHEM_MONOISOTOPIC_WEIGHT>
300.099774

> <PUBCHEM_TOTAL_CHARGE>
0

> <PUBCHEM_HEAVY_ATOM_COUNT>
22

> <PUBCHEM_ATOM_DEF_STEREO_COUNT>
0

> <PUBCHEM_ATOM_UDEF_STEREO_COUNT>
0

> <PUBCHEM_BOND_DEF_STEREO_COUNT>
0

> <PUBCHEM_BOND_UDEF_STEREO_COUNT>
0

> <PUBCHEM_ISOTOPIC_ATOM_COUNT>
0

> <PUBCHEM_COMPONENT_COUNT>
1

> <PUBCHEM_CACTVS_TAUTO_COUNT>
51

> <PUBCHEM_COORDINATE_TYPE>
1
5
255

> <PUBCHEM_BONDANNOTATIONS>
11  18  8
12  16  8
13  19  8
14  17  8
16  17  8
18  20  8
19  20  8
6  12  8
6  7  8
7  14  8
8  11  8
8  13  8

$$$$

