   Color/Form

     * Bright yellow crystals
     * YELLOW NEEDLES FROM ALC, PETROLEUM ETHER

   from [1]HSDB

   Odor

     * Very faint acrid odor
     * Nearly odorless

   from [2]HSDB

   Melting Point
        105-107 deg C
   from [3]HSDB

   Octanol/Water Partition Coefficient
        log Kow = 2.20 @ pH 7.4
   from [4]HSDB

   pH
        Alc soln is neutral to litmus
   from [5]HSDB

   Solubilities

     * Slightly soluble in ethanol, acetic acid, and ligroin. Soluble in
       ethyl ether, benzene, chloroform, and sulfuric acid.
     * One gram dissolves in about 60 ml alcohol, in 10 ml benzene, in 50
       ml vegetable oils; moderately soluble in chloroform, carbon
       tetrachloride.
     * Soluble in aromatic solvents
     * SOL IN FATS
     * Soluble in acetone
     * In water, 160 mg/l @ 30 deg C

   from [6]HSDB

   Spectral Properties

     * MAX ABSORPTION (ALC): 246 NM (LOG E= 4.28); 262 NM (LOG E= 4.23)
       SHOULDER; 333 NM (LOG E= 3.42); SADTLER REF NUMBER: 8077 (IR,
       PRISM)
     * IR: 8522 (Sadtler Research Laboratories IR Grating Collection)
     * UV: 2183 (Sadtler Research Laboratories Spectral Collection)
     * NMR: 3217 (Sadtler Research Laboratories Spectral Collection)
     * MASS: 6783 (NIST/EPA/MSDC Mass Spectral Database, 1990 version)

   from [7]HSDB

   Other Chemical/Physical Properties
        Destroyed by alkalies and reducing agents. Solutions may be heated
   to 120 deg C without dec.
   from [8]HSDB

   Computed Properties
   Molecular Weight                  172.18002 [g/mol]
   Molecular Formula                 C[11]H[8]O[2]
   XLogP3                            2.2
   H-Bond Donor                      0
   H-Bond Acceptor                   2
   Rotatable Bond Count              0
   Tautomer Count                    3
   Exact Mass                        172.052429
   MonoIsotopic Mass                 172.052429
   Topological Polar Surface Area    34.1
   Heavy Atom Count                  13
   Formal Charge                     0
   Complexity                        289
   Isotope Atom Count                0
   Defined Atom Stereocenter Count   0
   Undefined Atom Stereocenter Count 0
   Defined Bond Stereocenter Count   0
   Undefined Bond Stereocenter Count 0
   Covalently-Bonded Unit Count      1
   Feature 3D Acceptor Count         2
   Feature 3D Ring Count             2
   Effective Rotor Count             0
   Conformer Sampling RMSD           0.4
   CID Conformer Count               [9]1

References

   1. http://toxnet.nlm.nih.gov/cgi-bin/sis/search/r?dbs+hsdb:@term+@rn+@rel+58-27-5
   2. http://toxnet.nlm.nih.gov/cgi-bin/sis/search/r?dbs+hsdb:@term+@rn+@rel+58-27-5
   3. http://toxnet.nlm.nih.gov/cgi-bin/sis/search/r?dbs+hsdb:@term+@rn+@rel+58-27-5
   4. http://toxnet.nlm.nih.gov/cgi-bin/sis/search/r?dbs+hsdb:@term+@rn+@rel+58-27-5
   5. http://toxnet.nlm.nih.gov/cgi-bin/sis/search/r?dbs+hsdb:@term+@rn+@rel+58-27-5
   6. http://toxnet.nlm.nih.gov/cgi-bin/sis/search/r?dbs+hsdb:@term+@rn+@rel+58-27-5
   7. http://toxnet.nlm.nih.gov/cgi-bin/sis/search/r?dbs+hsdb:@term+@rn+@rel+58-27-5
   8. http://toxnet.nlm.nih.gov/cgi-bin/sis/search/r?dbs+hsdb:@term+@rn+@rel+58-27-5
   9. http://pubchem.ncbi.nlm.nih.gov/vw3d/vw3d.cgi?cid=4055
