6485
  -OEChem-06261201212D

 38 39  0     0  0  0  0  0  0999 V2000
    2.5369   -0.3660    0.0000 O   0  0  0  0  0  0  0  0  0  0  0  0
    4.2690    0.6340    0.0000 C   0  0  0  0  0  0  0  0  0  0  0  0
    5.2690    0.6340    0.0000 C   0  0  0  0  0  0  0  0  0  0  0  0
    3.7690    1.5000    0.0000 C   0  0  0  0  0  0  0  0  0  0  0  0
    5.7690    1.5000    0.0000 C   0  0  0  0  0  0  0  0  0  0  0  0
    4.2690    2.3660    0.0000 C   0  0  0  0  0  0  0  0  0  0  0  0
    5.2690    2.3660    0.0000 C   0  0  0  0  0  0  0  0  0  0  0  0
    4.2690   -0.3660    0.0000 C   0  0  0  0  0  0  0  0  0  0  0  0
    3.4030    0.1340    0.0000 C   0  0  0  0  0  0  0  0  0  0  0  0
    3.4030   -0.8660    0.0000 C   0  0  0  0  0  0  0  0  0  0  0  0
    5.1350   -0.8660    0.0000 C   0  0  0  0  0  0  0  0  0  0  0  0
    3.4030   -1.8660    0.0000 C   0  0  0  0  0  0  0  0  0  0  0  0
    5.1350   -1.8660    0.0000 C   0  0  0  0  0  0  0  0  0  0  0  0
    4.2690   -2.3660    0.0000 C   0  0  0  0  0  0  0  0  0  0  0  0
    2.5369   -2.3660    0.0000 C   0  0  0  0  0  0  0  0  0  0  0  0
    6.0010   -2.3660    0.0000 C   0  0  0  0  0  0  0  0  0  0  0  0
    3.2940    1.8985    0.0000 H   0  0  0  0  0  0  0  0  0  0  0  0
    3.2940    1.1015    0.0000 H   0  0  0  0  0  0  0  0  0  0  0  0
    5.1613    0.0234    0.0000 H   0  0  0  0  0  0  0  0  0  0  0  0
    5.8516    0.4219    0.0000 H   0  0  0  0  0  0  0  0  0  0  0  0
    4.3766    2.9766    0.0000 H   0  0  0  0  0  0  0  0  0  0  0  0
    3.6864    2.5781    0.0000 H   0  0  0  0  0  0  0  0  0  0  0  0
    6.2439    1.1015    0.0000 H   0  0  0  0  0  0  0  0  0  0  0  0
    6.2439    1.8985    0.0000 H   0  0  0  0  0  0  0  0  0  0  0  0
    5.8516    2.5781    0.0000 H   0  0  0  0  0  0  0  0  0  0  0  0
    5.1613    2.9766    0.0000 H   0  0  0  0  0  0  0  0  0  0  0  0
    3.0930    0.6709    0.0000 H   0  0  0  0  0  0  0  0  0  0  0  0
    2.8660   -0.1760    0.0000 H   0  0  0  0  0  0  0  0  0  0  0  0
    3.7130   -0.4030    0.0000 H   0  0  0  0  0  0  0  0  0  0  0  0
    5.6720   -0.5560    0.0000 H   0  0  0  0  0  0  0  0  0  0  0  0
    4.2690   -2.9860    0.0000 H   0  0  0  0  0  0  0  0  0  0  0  0
    2.2269   -1.8291    0.0000 H   0  0  0  0  0  0  0  0  0  0  0  0
    2.0000   -2.6760    0.0000 H   0  0  0  0  0  0  0  0  0  0  0  0
    2.8469   -2.9030    0.0000 H   0  0  0  0  0  0  0  0  0  0  0  0
    5.6910   -2.9030    0.0000 H   0  0  0  0  0  0  0  0  0  0  0  0
    6.5380   -2.6760    0.0000 H   0  0  0  0  0  0  0  0  0  0  0  0
    6.3110   -1.8291    0.0000 H   0  0  0  0  0  0  0  0  0  0  0  0
    2.0000   -0.6760    0.0000 H   0  0  0  0  0  0  0  0  0  0  0  0
  1 10  1  0  0  0  0
  1 38  1  0  0  0  0
  2  3  1  0  0  0  0
  2  4  1  0  0  0  0
  2  8  1  0  0  0  0
  2  9  1  0  0  0  0
  3  5  1  0  0  0  0
  3 19  1  0  0  0  0
  3 20  1  0  0  0  0
  4  6  1  0  0  0  0
  4 17  1  0  0  0  0
  4 18  1  0  0  0  0
  5  7  1  0  0  0  0
  5 23  1  0  0  0  0
  5 24  1  0  0  0  0
  6  7  1  0  0  0  0
  6 21  1  0  0  0  0
  6 22  1  0  0  0  0
  7 25  1  0  0  0  0
  7 26  1  0  0  0  0
  8 10  1  0  0  0  0
  8 11  2  0  0  0  0
  9 27  1  0  0  0  0
  9 28  1  0  0  0  0
  9 29  1  0  0  0  0
 10 12  2  0  0  0  0
 11 13  1  0  0  0  0
 11 30  1  0  0  0  0
 12 14  1  0  0  0  0
 12 15  1  0  0  0  0
 13 14  2  0  0  0  0
 13 16  1  0  0  0  0
 14 31  1  0  0  0  0
 15 32  1  0  0  0  0
 15 33  1  0  0  0  0
 15 34  1  0  0  0  0
 16 35  1  0  0  0  0
 16 36  1  0  0  0  0
 16 37  1  0  0  0  0
M  END
> <PUBCHEM_COMPOUND_CID>
6485

> <PUBCHEM_COMPOUND_CANONICALIZED>
1

> <PUBCHEM_CACTVS_COMPLEXITY>
230

> <PUBCHEM_CACTVS_HBOND_ACCEPTOR>
1

> <PUBCHEM_CACTVS_HBOND_DONOR>
1

> <PUBCHEM_CACTVS_ROTATABLE_BOND>
1

> <PUBCHEM_CACTVS_SUBSKEYS>
AAADceBwIAAAAAAAAAAAAAAAAAAAAAAAAAAwYAAAAAAAAAABAAAAGgAACAAADgSAmAAyBoAAAgCAAiBCAAACAAAgIAAAiAAECIgIJiKCERKAcAAkwBEImAeAwOAPoAACAAAIAABAAAQAABAAAAAAAAAAAA==

> <PUBCHEM_IUPAC_OPENEYE_NAME>
2,4-dimethyl-6-(1-methylcyclohexyl)phenol

> <PUBCHEM_IUPAC_CAS_NAME>
2,4-dimethyl-6-(1-methylcyclohexyl)phenol

> <PUBCHEM_IUPAC_NAME>
2,4-dimethyl-6-(1-methylcyclohexyl)phenol

> <PUBCHEM_IUPAC_SYSTEMATIC_NAME>
2,4-dimethyl-6-(1-methylcyclohexyl)phenol

> <PUBCHEM_IUPAC_TRADITIONAL_NAME>
2,4-dimethyl-6-(1-methylcyclohexyl)phenol

> <PUBCHEM_IUPAC_INCHI>
InChI=1S/C15H22O/c1-11-9-12(2)14(16)13(10-11)15(3)7-5-4-6-8-15/h9-10,16H,4-8H2,1-3H3

> <PUBCHEM_IUPAC_INCHIKEY>
MXSKJYLPNPYQHH-UHFFFAOYSA-N

> <PUBCHEM_XLOGP3_AA>
5.4

> <PUBCHEM_EXACT_MASS>
218.167065

> <PUBCHEM_MOLECULAR_FORMULA>
C15H22O

> <PUBCHEM_MOLECULAR_WEIGHT>
218.33458

> <PUBCHEM_OPENEYE_CAN_SMILES>
CC1=CC(=C(C(=C1)C2(CCCCC2)C)O)C

> <PUBCHEM_OPENEYE_ISO_SMILES>
CC1=CC(=C(C(=C1)C2(CCCCC2)C)O)C

> <PUBCHEM_CACTVS_TPSA>
20.2

> <PUBCHEM_MONOISOTOPIC_WEIGHT>
218.167065

> <PUBCHEM_TOTAL_CHARGE>
0

> <PUBCHEM_HEAVY_ATOM_COUNT>
16

> <PUBCHEM_ATOM_DEF_STEREO_COUNT>
0

> <PUBCHEM_ATOM_UDEF_STEREO_COUNT>
0

> <PUBCHEM_BOND_DEF_STEREO_COUNT>
0

> <PUBCHEM_BOND_UDEF_STEREO_COUNT>
0

> <PUBCHEM_ISOTOPIC_ATOM_COUNT>
0

> <PUBCHEM_COMPONENT_COUNT>
1

> <PUBCHEM_CACTVS_TAUTO_COUNT>
3

> <PUBCHEM_COORDINATE_TYPE>
1
5
255

> <PUBCHEM_BONDANNOTATIONS>
10  12  8
11  13  8
12  14  8
13  14  8
8  10  8
8  11  8

$$$$

