   Color/Form
        Colorless liquid
   from [1]HSDB

   Boiling Point
        203 deg C at 753 mm Hg
   from [2]HSDB

   Melting Point
        20 deg C
   from [3]HSDB

   Density/Specific Gravity
        1.2943 at 20 deg C/4 deg C
   from [4]HSDB

   Octanol/Water Partition Coefficient
        log Kow = -0.7 (est)
   from [5]HSDB

   Solubilities

     * Solubility in water about 1:5; slightly sol in nonpolar solvents
     * Sol in dimethyl formamide and in propylene glycol (1 in 1)
     * In water, 1.0X10+6 mg/L at 25 deg C (miscible) (est)

   from [6]HSDB

   Spectral Properties

     * Index of refraction 1.4140 at 20 deg C/D
     * IR: 2:478C (Aldrich Library of Infrared Spectra, Aldrich Chemical
       Co, Milwaukee, WI)
     * MASS: 1553 (NIST/EPA/MSDC Mass Spectral Database, 1990 Version);
       4024 (National Bureau of Standards EPA-NIH Mass Spectra Data Base,
       NSRDS-NBS-63)

   from [7]HSDB

   Vapor Pressure
        0.31 mm Hg at 25 deg C (est)
   from [8]HSDB

   Other Chemical/Physical Properties

     * Henry's Law constant = 4.0X10-6 atm-cu m/mol at 25 deg C (est)
     * Hydroxyl radical reaction rate constant = 2.3X10-13 cu
       cm/molecule-sec at 25 deg C (est)
     * ... decompose on distillation at normal pressure ... darken when
       stored in the absence of light ... form hydrates, are hygroscopic,
       and dissolve readily in water /Alkanesulfonic acids/

   from [9]HSDB

   Computed Properties
   Molecular Weight                  110.13224 [g/mol]
   Molecular Formula                 C[2]H[6]O[3]S
   XLogP3-AA                         -0.4
   H-Bond Donor                      0
   H-Bond Acceptor                   3
   Rotatable Bond Count              1
   Exact Mass                        110.003765
   MonoIsotopic Mass                 110.003765
   Topological Polar Surface Area    51.8
   Heavy Atom Count                  6
   Formal Charge                     0
   Complexity                        105
   Isotope Atom Count                0
   Defined Atom Stereocenter Count   0
   Undefined Atom Stereocenter Count 0
   Defined Bond Stereocenter Count   0
   Undefined Bond Stereocenter Count 0
   Covalently-Bonded Unit Count      1
   Feature 3D Acceptor Count         2
   Effective Rotor Count             1
   Conformer Sampling RMSD           0.4
   CID Conformer Count               [10]3

References

   1. http://toxnet.nlm.nih.gov/cgi-bin/sis/search/r?dbs+hsdb:@term+@rn+@rel+66-27-3
   2. http://toxnet.nlm.nih.gov/cgi-bin/sis/search/r?dbs+hsdb:@term+@rn+@rel+66-27-3
   3. http://toxnet.nlm.nih.gov/cgi-bin/sis/search/r?dbs+hsdb:@term+@rn+@rel+66-27-3
   4. http://toxnet.nlm.nih.gov/cgi-bin/sis/search/r?dbs+hsdb:@term+@rn+@rel+66-27-3
   5. http://toxnet.nlm.nih.gov/cgi-bin/sis/search/r?dbs+hsdb:@term+@rn+@rel+66-27-3
   6. http://toxnet.nlm.nih.gov/cgi-bin/sis/search/r?dbs+hsdb:@term+@rn+@rel+66-27-3
   7. http://toxnet.nlm.nih.gov/cgi-bin/sis/search/r?dbs+hsdb:@term+@rn+@rel+66-27-3
   8. http://toxnet.nlm.nih.gov/cgi-bin/sis/search/r?dbs+hsdb:@term+@rn+@rel+66-27-3
   9. http://toxnet.nlm.nih.gov/cgi-bin/sis/search/r?dbs+hsdb:@term+@rn+@rel+66-27-3
  10. http://pubchem.ncbi.nlm.nih.gov/vw3d/vw3d.cgi?cid=4156
