441430
  -OEChem-07051212542D

 87 90  0     1  0  0  0  0  0999 V2000
    6.1132    0.3567    0.0000 O   0  0  0  0  0  0  0  0  0  0  0  0
    4.2690   -0.3512    0.0000 O   0  0  0  0  0  0  0  0  0  0  0  0
    7.9497    1.3512    0.0000 O   0  0  0  0  0  0  0  0  0  0  0  0
    5.1350   -1.8512    0.0000 O   0  0  0  0  0  0  0  0  0  0  0  0
    9.6818    1.3512    0.0000 O   0  0  0  0  0  0  0  0  0  0  0  0
    3.6405    1.1193    0.0000 O   0  0  0  0  0  0  0  0  0  0  0  0
    5.0962    2.7361    0.0000 O   0  0  0  0  0  0  0  0  0  0  0  0
   11.4138    0.3512    0.0000 O   0  0  0  0  0  0  0  0  0  0  0  0
    6.2940   -1.1384    0.0000 O   0  0  0  0  0  0  0  0  0  0  0  0
    2.5369   -1.3512    0.0000 O   0  0  0  0  0  0  0  0  0  0  0  0
   13.1459    0.3512    0.0000 O   0  0  0  0  0  0  0  0  0  0  0  0
    2.5369   -3.3512    0.0000 O   0  0  0  0  0  0  0  0  0  0  0  0
    7.9497    3.3512    0.0000 O   0  0  0  0  0  0  0  0  0  0  0  0
   11.4138    3.3512    0.0000 O   0  0  0  0  0  0  0  0  0  0  0  0
    9.6818    4.3512    0.0000 O   0  0  0  0  0  0  0  0  0  0  0  0
    4.2690   -4.3512    0.0000 O   0  0  0  0  0  0  0  0  0  0  0  0
   11.4138   -1.6488    0.0000 O   0  0  0  0  0  0  0  0  0  0  0  0
   13.1459   -2.6488    0.0000 O   0  0  0  0  0  0  0  0  0  0  0  0
   14.8779   -1.6488    0.0000 O   0  0  0  0  0  0  0  0  0  0  0  0
    6.0010   -4.3512    0.0000 O   0  0  0  0  0  0  0  0  0  0  0  0
   15.7440   -0.1488    0.0000 O   0  0  0  0  0  0  0  0  0  0  0  0
    5.1350    0.1488    0.0000 C   0  0  1  0  0  0  0  0  0  0  0  0
    4.6350    1.0148    0.0000 C   0  0  2  0  0  0  0  0  0  0  0  0
    6.2177    1.3512    0.0000 C   0  0  1  0  0  0  0  0  0  0  0  0
    5.3041    1.7580    0.0000 C   0  0  1  0  0  0  0  0  0  0  0  0
    4.2690   -1.3512    0.0000 C   0  0  1  0  0  0  0  0  0  0  0  0
    7.0837    1.8512    0.0000 C   0  0  0  0  0  0  0  0  0  0  0  0
    5.3429   -0.8294    0.0000 C   0  0  0  0  0  0  0  0  0  0  0  0
    3.4030   -1.8512    0.0000 C   0  0  1  0  0  0  0  0  0  0  0  0
    8.8158    1.8512    0.0000 C   0  0  1  0  0  0  0  0  0  0  0  0
    3.4030   -2.8512    0.0000 C   0  0  2  0  0  0  0  0  0  0  0  0
   10.5478    1.8512    0.0000 C   0  0  1  0  0  0  0  0  0  0  0  0
    8.8158    2.8512    0.0000 C   0  0  1  0  0  0  0  0  0  0  0  0
   10.5478    2.8512    0.0000 C   0  0  1  0  0  0  0  0  0  0  0  0
    9.6818    3.3512    0.0000 C   0  0  2  0  0  0  0  0  0  0  0  0
    4.2690   -3.3512    0.0000 C   0  0  1  0  0  0  0  0  0  0  0  0
    5.1350   -2.8512    0.0000 C   0  0  1  0  0  0  0  0  0  0  0  0
   11.4138    1.3512    0.0000 C   0  0  0  0  0  0  0  0  0  0  0  0
   12.2799   -0.1488    0.0000 C   0  0  1  0  0  0  0  0  0  0  0  0
   12.2799   -1.1488    0.0000 C   0  0  1  0  0  0  0  0  0  0  0  0
   13.1459   -1.6488    0.0000 C   0  0  2  0  0  0  0  0  0  0  0  0
   14.0119   -1.1488    0.0000 C   0  0  2  0  0  0  0  0  0  0  0  0
   14.0119   -0.1488    0.0000 C   0  0  1  0  0  0  0  0  0  0  0  0
    6.0010   -3.3512    0.0000 C   0  0  0  0  0  0  0  0  0  0  0  0
   14.8779    0.3512    0.0000 C   0  0  0  0  0  0  0  0  0  0  0  0
    4.2973    0.4948    0.0000 H   0  0  0  0  0  0  0  0  0  0  0  0
    6.7377    1.0135    0.0000 H   0  0  0  0  0  0  0  0  0  0  0  0
    4.7053    1.9184    0.0000 H   0  0  0  0  0  0  0  0  0  0  0  0
    3.7320   -1.0412    0.0000 H   0  0  0  0  0  0  0  0  0  0  0  0
    7.4822    2.3262    0.0000 H   0  0  0  0  0  0  0  0  0  0  0  0
    6.6852    2.3262    0.0000 H   0  0  0  0  0  0  0  0  0  0  0  0
    4.7233   -0.8510    0.0000 H   0  0  0  0  0  0  0  0  0  0  0  0
    5.2566   -1.4433    0.0000 H   0  0  0  0  0  0  0  0  0  0  0  0
    3.4030   -1.2312    0.0000 H   0  0  0  0  0  0  0  0  0  0  0  0
    8.2788    2.1612    0.0000 H   0  0  0  0  0  0  0  0  0  0  0  0
    3.4030   -3.4712    0.0000 H   0  0  0  0  0  0  0  0  0  0  0  0
   10.5478    1.2312    0.0000 H   0  0  0  0  0  0  0  0  0  0  0  0
    8.2788    2.5412    0.0000 H   0  0  0  0  0  0  0  0  0  0  0  0
   11.0848    2.5412    0.0000 H   0  0  0  0  0  0  0  0  0  0  0  0
    9.1448    3.6612    0.0000 H   0  0  0  0  0  0  0  0  0  0  0  0
    4.8059   -3.6612    0.0000 H   0  0  0  0  0  0  0  0  0  0  0  0
    5.6720   -2.5412    0.0000 H   0  0  0  0  0  0  0  0  0  0  0  0
   12.0244    1.2436    0.0000 H   0  0  0  0  0  0  0  0  0  0  0  0
   11.6259    1.9338    0.0000 H   0  0  0  0  0  0  0  0  0  0  0  0
    3.3883    1.6857    0.0000 H   0  0  0  0  0  0  0  0  0  0  0  0
    5.5570    3.1510    0.0000 H   0  0  0  0  0  0  0  0  0  0  0  0
   12.2799    0.4712    0.0000 H   0  0  0  0  0  0  0  0  0  0  0  0
   12.2799   -1.7688    0.0000 H   0  0  0  0  0  0  0  0  0  0  0  0
   12.6090   -1.9588    0.0000 H   0  0  0  0  0  0  0  0  0  0  0  0
   14.5489   -0.8388    0.0000 H   0  0  0  0  0  0  0  0  0  0  0  0
   14.0119    0.4712    0.0000 H   0  0  0  0  0  0  0  0  0  0  0  0
    6.6116   -3.4589    0.0000 H   0  0  0  0  0  0  0  0  0  0  0  0
    6.2131   -2.7686    0.0000 H   0  0  0  0  0  0  0  0  0  0  0  0
    6.4229   -1.7448    0.0000 H   0  0  0  0  0  0  0  0  0  0  0  0
    2.0000   -1.6612    0.0000 H   0  0  0  0  0  0  0  0  0  0  0  0
    2.5369   -3.9712    0.0000 H   0  0  0  0  0  0  0  0  0  0  0  0
    7.9497    3.9712    0.0000 H   0  0  0  0  0  0  0  0  0  0  0  0
   11.9508    3.0412    0.0000 H   0  0  0  0  0  0  0  0  0  0  0  0
   10.2187    4.6612    0.0000 H   0  0  0  0  0  0  0  0  0  0  0  0
    3.7320   -4.6612    0.0000 H   0  0  0  0  0  0  0  0  0  0  0  0
   15.2765    0.8262    0.0000 H   0  0  0  0  0  0  0  0  0  0  0  0
   14.4794    0.8262    0.0000 H   0  0  0  0  0  0  0  0  0  0  0  0
   11.4138   -2.2688    0.0000 H   0  0  0  0  0  0  0  0  0  0  0  0
   13.6828   -2.9588    0.0000 H   0  0  0  0  0  0  0  0  0  0  0  0
   14.8779   -2.2688    0.0000 H   0  0  0  0  0  0  0  0  0  0  0  0
    6.5380   -4.6612    0.0000 H   0  0  0  0  0  0  0  0  0  0  0  0
   16.2809    0.1612    0.0000 H   0  0  0  0  0  0  0  0  0  0  0  0
  1 22  1  0  0  0  0
  1 24  1  0  0  0  0
 22  2  1  1  0  0  0
 26  2  1  1  0  0  0
  3 27  1  0  0  0  0
 30  3  1  6  0  0  0
  4 26  1  0  0  0  0
  4 37  1  0  0  0  0
  5 30  1  0  0  0  0
  5 32  1  0  0  0  0
 23  6  1  1  0  0  0
  6 65  1  0  0  0  0
 25  7  1  6  0  0  0
  7 66  1  0  0  0  0
  8 38  1  0  0  0  0
 39  8  1  1  0  0  0
  9 28  1  0  0  0  0
  9 74  1  0  0  0  0
 29 10  1  1  0  0  0
 10 75  1  0  0  0  0
 11 39  1  0  0  0  0
 11 43  1  0  0  0  0
 31 12  1  6  0  0  0
 12 76  1  0  0  0  0
 33 13  1  6  0  0  0
 13 77  1  0  0  0  0
 34 14  1  1  0  0  0
 14 78  1  0  0  0  0
 35 15  1  1  0  0  0
 15 79  1  0  0  0  0
 36 16  1  1  0  0  0
 16 80  1  0  0  0  0
 40 17  1  1  0  0  0
 17 83  1  0  0  0  0
 41 18  1  6  0  0  0
 18 84  1  0  0  0  0
 42 19  1  6  0  0  0
 19 85  1  0  0  0  0
 20 44  1  0  0  0  0
 20 86  1  0  0  0  0
 21 45  1  0  0  0  0
 21 87  1  0  0  0  0
 22 23  1  0  0  0  0
 22 28  1  0  0  0  0
 23 25  1  0  0  0  0
 23 46  1  0  0  0  0
 24 25  1  0  0  0  0
 24 27  1  1  0  0  0
 24 47  1  0  0  0  0
 25 48  1  0  0  0  0
 26 29  1  0  0  0  0
 26 49  1  0  0  0  0
 27 50  1  0  0  0  0
 27 51  1  0  0  0  0
 28 52  1  0  0  0  0
 28 53  1  0  0  0  0
 29 31  1  0  0  0  0
 29 54  1  0  0  0  0
 30 33  1  0  0  0  0
 30 55  1  0  0  0  0
 31 36  1  0  0  0  0
 31 56  1  0  0  0  0
 32 34  1  0  0  0  0
 32 38  1  1  0  0  0
 32 57  1  0  0  0  0
 33 35  1  0  0  0  0
 33 58  1  0  0  0  0
 34 35  1  0  0  0  0
 34 59  1  0  0  0  0
 35 60  1  0  0  0  0
 36 37  1  0  0  0  0
 36 61  1  0  0  0  0
 37 44  1  6  0  0  0
 37 62  1  0  0  0  0
 38 63  1  0  0  0  0
 38 64  1  0  0  0  0
 39 40  1  0  0  0  0
 39 67  1  0  0  0  0
 40 41  1  0  0  0  0
 40 68  1  0  0  0  0
 41 42  1  0  0  0  0
 41 69  1  0  0  0  0
 42 43  1  0  0  0  0
 42 70  1  0  0  0  0
 43 45  1  6  0  0  0
 43 71  1  0  0  0  0
 44 72  1  0  0  0  0
 44 73  1  0  0  0  0
 45 81  1  0  0  0  0
 45 82  1  0  0  0  0
M  END
> <PUBCHEM_COMPOUND_CID>
441430

> <PUBCHEM_COMPOUND_CANONICALIZED>
1

> <PUBCHEM_CACTVS_COMPLEXITY>
933

> <PUBCHEM_CACTVS_HBOND_ACCEPTOR>
21

> <PUBCHEM_CACTVS_HBOND_DONOR>
14

> <PUBCHEM_CACTVS_ROTATABLE_BOND>
11

> <PUBCHEM_CACTVS_SUBSKEYS>
AAADcfB4PgAAAAAAAAAAAAAAAAAAASAAAAAkSJAAAAAAAAAAAAAAGgAACAAACBSwgAMACAAABgAAAAAAAAAAAAAAAAAAAAAAAAAREAIAAAAiQAAFAAAHAAHAYAwAAAAAAAAAAAAAAAAAAAAAAAAAAAAAAA==

> <PUBCHEM_IUPAC_OPENEYE_NAME>
(2S,3R,4S,5R,6R)-2-[[(2R,3R,4S,5R,6S)-6-[[(2R,3S,4S,5S)-3,4-dihydroxy-5-(hydroxymethyl)-5-[(2R,3R,4S,5S,6R)-3,4,5-trihydroxy-6-(hydroxymethyl)tetrahydropyran-2-yl]oxy-tetrahydrofuran-2-yl]methoxy]-3,4,5-trihydroxy-tetrahydropyran-2-yl]methoxy]-6-(hydroxymethyl)tetrahydropyran-3,4,5-triol

> <PUBCHEM_IUPAC_CAS_NAME>
(2S,3R,4S,5R,6R)-2-[[(2R,3R,4S,5R,6S)-6-[[(2R,3S,4S,5S)-3,4-dihydroxy-5-(hydroxymethyl)-5-[[(2R,3R,4S,5S,6R)-3,4,5-trihydroxy-6-(hydroxymethyl)-2-oxanyl]oxy]-2-oxolanyl]methoxy]-3,4,5-trihydroxy-2-oxanyl]methoxy]-6-(hydroxymethyl)oxane-3,4,5-triol

> <PUBCHEM_IUPAC_NAME>
(2S,3R,4S,5R,6R)-2-[[(2R,3R,4S,5R,6S)-6-[[(2R,3S,4S,5S)-3,4-dihydroxy-5-(hydroxymethyl)-5-[(2R,3R,4S,5S,6R)-3,4,5-trihydroxy-6-(hydroxymethyl)oxan-2-yl]oxyoxolan-2-yl]methoxy]-3,4,5-trihydroxyoxan-2-yl]methoxy]-6-(hydroxymethyl)oxane-3,4,5-triol

> <PUBCHEM_IUPAC_SYSTEMATIC_NAME>
(2R,3R,4S,5R,6S)-2-(hydroxymethyl)-6-[[(2R,3R,4S,5R,6S)-6-[[(2R,3S,4S,5S)-5-(hydroxymethyl)-5-[(2R,3R,4S,5S,6R)-6-(hydroxymethyl)-3,4,5-tris(oxidanyl)oxan-2-yl]oxy-3,4-bis(oxidanyl)oxolan-2-yl]methoxy]-3,4,5-tris(oxidanyl)oxan-2-yl]methoxy]oxane-3,4,5-triol

> <PUBCHEM_IUPAC_TRADITIONAL_NAME>
(2S,3R,4S,5R,6R)-2-[[(2R,3R,4S,5R,6S)-6-[[(2R,3S,4S,5S)-3,4-dihydroxy-5-methylol-5-[(2R,3R,4S,5S,6R)-3,4,5-trihydroxy-6-methylol-tetrahydropyran-2-yl]oxy-tetrahydrofuran-2-yl]methoxy]-3,4,5-trihydroxy-tetrahydropyran-2-yl]methoxy]-6-methylol-tetrahydropyran-3,4,5-triol

> <PUBCHEM_IUPAC_INCHI>
InChI=1S/C24H42O21/c25-1-6-10(28)14(32)17(35)21(41-6)39-3-8-12(30)16(34)18(36)22(43-8)40-4-9-13(31)20(38)24(5-27,44-9)45-23-19(37)15(33)11(29)7(2-26)42-23/h6-23,25-38H,1-5H2/t6-,7-,8-,9-,10+,11-,12+,13-,14+,15+,16+,17-,18-,19-,20+,21+,22+,23-,24+/m1/s1

> <PUBCHEM_IUPAC_INCHIKEY>
LAOVEVDFIVNYLQ-QDQSDLQTSA-N

> <PUBCHEM_XLOGP3>
-8

> <PUBCHEM_EXACT_MASS>
666.221858

> <PUBCHEM_MOLECULAR_FORMULA>
C24H42O21

> <PUBCHEM_MOLECULAR_WEIGHT>
666.57768

> <PUBCHEM_OPENEYE_CAN_SMILES>
C(C1C(C(C(C(O1)OCC2C(C(C(C(O2)OCC3C(C(C(O3)(CO)OC4C(C(C(C(O4)CO)O)O)O)O)O)O)O)O)O)O)O)O

> <PUBCHEM_OPENEYE_ISO_SMILES>
C([C@@H]1[C@@H]([C@@H]([C@H]([C@H](O1)OC[C@@H]2[C@@H]([C@@H]([C@H]([C@H](O2)OC[C@@H]3[C@H]([C@@H]([C@](O3)(CO)O[C@@H]4[C@@H]([C@H]([C@@H]([C@H](O4)CO)O)O)O)O)O)O)O)O)O)O)O)O

> <PUBCHEM_CACTVS_TPSA>
348

> <PUBCHEM_MONOISOTOPIC_WEIGHT>
666.221858

> <PUBCHEM_TOTAL_CHARGE>
0

> <PUBCHEM_HEAVY_ATOM_COUNT>
45

> <PUBCHEM_ATOM_DEF_STEREO_COUNT>
19

> <PUBCHEM_ATOM_UDEF_STEREO_COUNT>
0

> <PUBCHEM_BOND_DEF_STEREO_COUNT>
0

> <PUBCHEM_BOND_UDEF_STEREO_COUNT>
0

> <PUBCHEM_ISOTOPIC_ATOM_COUNT>
0

> <PUBCHEM_COMPONENT_COUNT>
1

> <PUBCHEM_CACTVS_TAUTO_COUNT>
1

> <PUBCHEM_COORDINATE_TYPE>
1
5
255

> <PUBCHEM_BONDANNOTATIONS>
29  10  5
31  12  6
33  13  6
34  14  5
35  15  5
36  16  5
40  17  5
41  18  6
42  19  6
22  2  5
26  2  5
24  27  5
30  3  6
32  38  5
37  44  6
43  45  6
23  6  5
25  7  6
39  8  5

$$$$

