47205585
  -OEChem-06241222592D

 39 39  0     1  0  0  0  0  0999 V2000
    2.9010    2.8453    0.0000 S   0  0  0  0  0  0  0  0  0  0  0  0
    4.7009   -2.7463    0.0000 S   0  0  0  0  0  0  0  0  0  0  0  0
    2.9688   -1.7463    0.0000 O   0  0  0  0  0  0  0  0  0  0  0  0
    3.8019    3.2792    0.0000 O   0  0  0  0  0  0  0  0  0  0  0  0
    2.0000    2.4114    0.0000 O   0  0  0  0  0  0  0  0  0  0  0  0
    5.7009   -2.7463    0.0000 O   0  0  0  0  0  0  0  0  0  0  0  0
    3.7009   -2.7463    0.0000 O   0  0  0  0  0  0  0  0  0  0  0  0
    3.8348   -0.2463    0.0000 N   0  0  0  0  0  0  0  0  0  0  0  0
    3.3348    1.9444    0.0000 N   0  0  3  0  0  0  0  0  0  0  0  0
    4.7358    0.1876    0.0000 C   0  0  0  0  0  0  0  0  0  0  0  0
    2.9339    0.1876    0.0000 C   0  0  0  0  0  0  0  0  0  0  0  0
    4.9583    1.1625    0.0000 C   0  0  0  0  0  0  0  0  0  0  0  0
    2.7114    1.1625    0.0000 C   0  0  0  0  0  0  0  0  0  0  0  0
    4.3348    1.9444    0.0000 C   0  0  0  0  0  0  0  0  0  0  0  0
    4.7009   -1.7463    0.0000 C   0  0  3  0  0  0  0  0  0  0  0  0
    3.8348   -1.2463    0.0000 C   0  0  0  0  0  0  0  0  0  0  0  0
    5.5669   -1.2463    0.0000 C   0  0  0  0  0  0  0  0  0  0  0  0
    2.4671    3.7463    0.0000 C   0  0  0  0  0  0  0  0  0  0  0  0
    4.7009   -3.7463    0.0000 C   0  0  0  0  0  0  0  0  0  0  0  0
    2.3139    0.1876    0.0000 H   0  0  0  0  0  0  0  0  0  0  0  0
    2.7959   -0.4169    0.0000 H   0  0  0  0  0  0  0  0  0  0  0  0
    4.8738   -0.4169    0.0000 H   0  0  0  0  0  0  0  0  0  0  0  0
    5.3558    0.1876    0.0000 H   0  0  0  0  0  0  0  0  0  0  0  0
    5.5169    0.8935    0.0000 H   0  0  0  0  0  0  0  0  0  0  0  0
    5.3449    1.6473    0.0000 H   0  0  0  0  0  0  0  0  0  0  0  0
    2.3248    1.6473    0.0000 H   0  0  0  0  0  0  0  0  0  0  0  0
    2.1528    0.8935    0.0000 H   0  0  0  0  0  0  0  0  0  0  0  0
    4.8934    2.2134    0.0000 H   0  0  0  0  0  0  0  0  0  0  0  0
    4.1969    2.5488    0.0000 H   0  0  0  0  0  0  0  0  0  0  0  0
    5.2378   -2.0563    0.0000 H   0  0  0  0  0  0  0  0  0  0  0  0
    5.8769   -1.7832    0.0000 H   0  0  0  0  0  0  0  0  0  0  0  0
    6.1038   -0.9363    0.0000 H   0  0  0  0  0  0  0  0  0  0  0  0
    5.2569   -0.7094    0.0000 H   0  0  0  0  0  0  0  0  0  0  0  0
    3.0257    4.0153    0.0000 H   0  0  0  0  0  0  0  0  0  0  0  0
    2.1981    4.3049    0.0000 H   0  0  0  0  0  0  0  0  0  0  0  0
    1.9085    3.4773    0.0000 H   0  0  0  0  0  0  0  0  0  0  0  0
    4.0809   -3.7463    0.0000 H   0  0  0  0  0  0  0  0  0  0  0  0
    4.7009   -4.3663    0.0000 H   0  0  0  0  0  0  0  0  0  0  0  0
    5.3209   -3.7463    0.0000 H   0  0  0  0  0  0  0  0  0  0  0  0
  1  4  2  0  0  0  0
  1  5  2  0  0  0  0
  1  9  1  0  0  0  0
  1 18  1  0  0  0  0
  2  6  2  0  0  0  0
  2  7  2  0  0  0  0
  2 15  1  0  0  0  0
  2 19  1  0  0  0  0
  3 16  2  0  0  0  0
  8 10  1  0  0  0  0
  8 11  1  0  0  0  0
  8 16  1  0  0  0  0
  9 13  1  0  0  0  0
  9 14  1  0  0  0  0
 10 12  1  0  0  0  0
 10 22  1  0  0  0  0
 10 23  1  0  0  0  0
 11 13  1  0  0  0  0
 11 20  1  0  0  0  0
 11 21  1  0  0  0  0
 12 14  1  0  0  0  0
 12 24  1  0  0  0  0
 12 25  1  0  0  0  0
 13 26  1  0  0  0  0
 13 27  1  0  0  0  0
 14 28  1  0  0  0  0
 14 29  1  0  0  0  0
 15 16  1  0  0  0  0
 15 17  1  0  0  0  0
 15 30  1  0  0  0  0
 17 31  1  0  0  0  0
 17 32  1  0  0  0  0
 17 33  1  0  0  0  0
 18 34  1  0  0  0  0
 18 35  1  0  0  0  0
 18 36  1  0  0  0  0
 19 37  1  0  0  0  0
 19 38  1  0  0  0  0
 19 39  1  0  0  0  0
M  END
> <PUBCHEM_COMPOUND_CID>
47205585

> <PUBCHEM_COMPOUND_CANONICALIZED>
1

> <PUBCHEM_CACTVS_COMPLEXITY>
529

> <PUBCHEM_CACTVS_HBOND_ACCEPTOR>
6

> <PUBCHEM_CACTVS_HBOND_DONOR>
0

> <PUBCHEM_CACTVS_ROTATABLE_BOND>
3

> <PUBCHEM_CACTVS_SUBSKEYS>
AAADceBzOABgAAAAAAAAAAAAAAAAAAAAAAAAAAAABYAAAAAAAAAAHgQAQAAACADFwASCAAMAAAoIAAEQEHBAAAAAABAAAAEIAAAAQAAAQAAUAAAABgCAAAAAAAAAAAAAAAAAAAAAAAAAAAAAAAAAAAAAAA==

> <PUBCHEM_IUPAC_OPENEYE_NAME>
2-methylsulfonyl-1-(4-methylsulfonyl-1,4-diazepan-1-yl)propan-1-one

> <PUBCHEM_IUPAC_CAS_NAME>
2-methylsulfonyl-1-(4-methylsulfonyl-1,4-diazepan-1-yl)-1-propanone

> <PUBCHEM_IUPAC_NAME>
2-methylsulfonyl-1-(4-methylsulfonyl-1,4-diazepan-1-yl)propan-1-one

> <PUBCHEM_IUPAC_SYSTEMATIC_NAME>
2-methylsulfonyl-1-(4-methylsulfonyl-1,4-diazepan-1-yl)propan-1-one

> <PUBCHEM_IUPAC_TRADITIONAL_NAME>
2-mesyl-1-(4-mesyl-1,4-diazepan-1-yl)propan-1-one

> <PUBCHEM_IUPAC_INCHI>
InChI=1S/C10H20N2O5S2/c1-9(18(2,14)15)10(13)11-5-4-6-12(8-7-11)19(3,16)17/h9H,4-8H2,1-3H3

> <PUBCHEM_IUPAC_INCHIKEY>
LJCJEMHUMZTIKX-UHFFFAOYSA-N

> <PUBCHEM_XLOGP3_AA>
-1.1

> <PUBCHEM_EXACT_MASS>
312.081364

> <PUBCHEM_MOLECULAR_FORMULA>
C10H20N2O5S2

> <PUBCHEM_MOLECULAR_WEIGHT>
312.4062

> <PUBCHEM_OPENEYE_CAN_SMILES>
CC(C(=O)N1CCCN(CC1)S(=O)(=O)C)S(=O)(=O)C

> <PUBCHEM_OPENEYE_ISO_SMILES>
CC(C(=O)N1CCCN(CC1)S(=O)(=O)C)S(=O)(=O)C

> <PUBCHEM_CACTVS_TPSA>
109

> <PUBCHEM_MONOISOTOPIC_WEIGHT>
312.081364

> <PUBCHEM_TOTAL_CHARGE>
0

> <PUBCHEM_HEAVY_ATOM_COUNT>
19

> <PUBCHEM_ATOM_DEF_STEREO_COUNT>
0

> <PUBCHEM_ATOM_UDEF_STEREO_COUNT>
1

> <PUBCHEM_BOND_DEF_STEREO_COUNT>
0

> <PUBCHEM_BOND_UDEF_STEREO_COUNT>
0

> <PUBCHEM_ISOTOPIC_ATOM_COUNT>
0

> <PUBCHEM_COMPONENT_COUNT>
1

> <PUBCHEM_CACTVS_TAUTO_COUNT>
1

> <PUBCHEM_COORDINATE_TYPE>
1
5
255

> <PUBCHEM_BONDANNOTATIONS>
15  17  3

$$$$

