14408
  -OEChem-06241222432D

 43 45  0     1  0  0  0  0  0999 V2000
    2.0000   -3.1575    0.0000 Cl  0  0  0  0  0  0  0  0  0  0  0  0
    6.3156    0.6040    0.0000 O   0  0  0  0  0  0  0  0  0  0  0  0
    4.8817   -0.2969    0.0000 N   0  0  0  0  0  0  0  0  0  0  0  0
    4.5772    2.3312    0.0000 N   0  0  0  0  0  0  0  0  0  0  0  0
    5.3816   -2.4876    0.0000 N   0  0  0  0  0  0  0  0  0  0  0  0
    5.0111    1.4303    0.0000 C   0  0  3  0  0  0  0  0  0  0  0  0
    4.4478    0.6040    0.0000 C   0  0  0  0  0  0  0  0  0  0  0  0
    4.2582   -1.0788    0.0000 C   0  0  0  0  0  0  0  0  0  0  0  0
    6.0083    1.3555    0.0000 C   0  0  0  0  0  0  0  0  0  0  0  0
    5.8817   -0.2969    0.0000 C   0  0  0  0  0  0  0  0  0  0  0  0
    4.4807   -2.0537    0.0000 C   0  0  0  0  0  0  0  0  0  0  0  0
    6.5052   -1.0788    0.0000 C   0  0  0  0  0  0  0  0  0  0  0  0
    6.2826   -2.0537    0.0000 C   0  0  0  0  0  0  0  0  0  0  0  0
    5.1406    3.1575    0.0000 C   0  0  0  0  0  0  0  0  0  0  0  0
    3.5800    2.4060    0.0000 C   0  0  0  0  0  0  0  0  0  0  0  0
    3.2677   -0.7564    0.0000 C   0  0  0  0  0  0  0  0  0  0  0  0
    3.7281   -2.7738    0.0000 C   0  0  0  0  0  0  0  0  0  0  0  0
    7.4956   -0.7564    0.0000 C   0  0  0  0  0  0  0  0  0  0  0  0
    7.0352   -2.7739    0.0000 C   0  0  0  0  0  0  0  0  0  0  0  0
    2.4986   -1.4590    0.0000 C   0  0  0  0  0  0  0  0  0  0  0  0
    2.7304   -2.4745    0.0000 C   0  0  0  0  0  0  0  0  0  0  0  0
    8.2646   -1.4590    0.0000 C   0  0  0  0  0  0  0  0  0  0  0  0
    8.0329   -2.4745    0.0000 C   0  0  0  0  0  0  0  0  0  0  0  0
    5.3604    1.9426    0.0000 H   0  0  0  0  0  0  0  0  0  0  0  0
    4.0040    1.0370    0.0000 H   0  0  0  0  0  0  0  0  0  0  0  0
    3.9444    0.2421    0.0000 H   0  0  0  0  0  0  0  0  0  0  0  0
    5.9620    0.7373    0.0000 H   0  0  0  0  0  0  0  0  0  0  0  0
    6.6266    1.3092    0.0000 H   0  0  0  0  0  0  0  0  0  0  0  0
    6.0546    1.9738    0.0000 H   0  0  0  0  0  0  0  0  0  0  0  0
    5.3816   -3.1076    0.0000 H   0  0  0  0  0  0  0  0  0  0  0  0
    5.6528    2.8082    0.0000 H   0  0  0  0  0  0  0  0  0  0  0  0
    5.4898    3.6698    0.0000 H   0  0  0  0  0  0  0  0  0  0  0  0
    4.6283    3.5068    0.0000 H   0  0  0  0  0  0  0  0  0  0  0  0
    3.6264    3.0243    0.0000 H   0  0  0  0  0  0  0  0  0  0  0  0
    2.9618    2.4523    0.0000 H   0  0  0  0  0  0  0  0  0  0  0  0
    3.5337    1.7877    0.0000 H   0  0  0  0  0  0  0  0  0  0  0  0
    3.1367   -0.1504    0.0000 H   0  0  0  0  0  0  0  0  0  0  0  0
    3.8731   -3.3767    0.0000 H   0  0  0  0  0  0  0  0  0  0  0  0
    7.6266   -0.1504    0.0000 H   0  0  0  0  0  0  0  0  0  0  0  0
    6.8902   -3.3767    0.0000 H   0  0  0  0  0  0  0  0  0  0  0  0
    1.9069   -1.2740    0.0000 H   0  0  0  0  0  0  0  0  0  0  0  0
    8.8564   -1.2740    0.0000 H   0  0  0  0  0  0  0  0  0  0  0  0
    8.4857   -2.8980    0.0000 H   0  0  0  0  0  0  0  0  0  0  0  0
  1 21  1  0  0  0  0
  2 10  2  0  0  0  0
  3  7  1  0  0  0  0
  3  8  1  0  0  0  0
  3 10  1  0  0  0  0
  4  6  1  0  0  0  0
  4 14  1  0  0  0  0
  4 15  1  0  0  0  0
  5 11  1  0  0  0  0
  5 13  1  0  0  0  0
  5 30  1  0  0  0  0
  6  7  1  0  0  0  0
  6  9  1  0  0  0  0
  6 24  1  0  0  0  0
  7 25  1  0  0  0  0
  7 26  1  0  0  0  0
  8 11  2  0  0  0  0
  8 16  1  0  0  0  0
  9 27  1  0  0  0  0
  9 28  1  0  0  0  0
  9 29  1  0  0  0  0
 10 12  1  0  0  0  0
 11 17  1  0  0  0  0
 12 13  1  0  0  0  0
 12 18  2  0  0  0  0
 13 19  2  0  0  0  0
 14 31  1  0  0  0  0
 14 32  1  0  0  0  0
 14 33  1  0  0  0  0
 15 34  1  0  0  0  0
 15 35  1  0  0  0  0
 15 36  1  0  0  0  0
 16 20  2  0  0  0  0
 16 37  1  0  0  0  0
 17 21  2  0  0  0  0
 17 38  1  0  0  0  0
 18 22  1  0  0  0  0
 18 39  1  0  0  0  0
 19 23  1  0  0  0  0
 19 40  1  0  0  0  0
 20 21  1  0  0  0  0
 20 41  1  0  0  0  0
 22 23  2  0  0  0  0
 22 42  1  0  0  0  0
 23 43  1  0  0  0  0
M  END
> <PUBCHEM_COMPOUND_CID>
14408

> <PUBCHEM_COMPOUND_CANONICALIZED>
1

> <PUBCHEM_CACTVS_COMPLEXITY>
431

> <PUBCHEM_CACTVS_HBOND_ACCEPTOR>
3

> <PUBCHEM_CACTVS_HBOND_DONOR>
1

> <PUBCHEM_CACTVS_ROTATABLE_BOND>
3

> <PUBCHEM_CACTVS_SUBSKEYS>
AAADceB7IAAEAAAAAAAAAAAAAAAAAAAAAAAwYAAABYAAAAABQAAAHgIQAAAADCrBmCQywIPAAACIAiVSUACCAAAlBwAIiAEIdsgIYHrB15GUIYhglgDIyccYiACOAABAAAICACAAAIAABAQAQAAAAAAAAA==

> <PUBCHEM_IUPAC_OPENEYE_NAME>
2-chloro-5-[2-(dimethylamino)propyl]-11H-benzo[b][1,4]benzodiazepin-6-one

> <PUBCHEM_IUPAC_CAS_NAME>
2-chloro-5-[2-(dimethylamino)propyl]-11H-benzo[b][1,4]benzodiazepin-6-one

> <PUBCHEM_IUPAC_NAME>
2-chloro-5-[2-(dimethylamino)propyl]-11H-benzo[b][1,4]benzodiazepin-6-one

> <PUBCHEM_IUPAC_SYSTEMATIC_NAME>
2-chloranyl-5-[2-(dimethylamino)propyl]-11H-benzo[b][1,4]benzodiazepin-6-one

> <PUBCHEM_IUPAC_TRADITIONAL_NAME>
2-chloro-5-[2-(dimethylamino)propyl]-11H-benzo[b][1,4]benzodiazepin-6-one

> <PUBCHEM_IUPAC_INCHI>
InChI=1S/C18H20ClN3O/c1-12(21(2)3)11-22-17-9-8-13(19)10-16(17)20-15-7-5-4-6-14(15)18(22)23/h4-10,12,20H,11H2,1-3H3

> <PUBCHEM_IUPAC_INCHIKEY>
QXPFLMFCMKJVLJ-UHFFFAOYSA-N

> <PUBCHEM_XLOGP3_AA>
3.7

> <PUBCHEM_EXACT_MASS>
329.12949

> <PUBCHEM_MOLECULAR_FORMULA>
C18H20ClN3O

> <PUBCHEM_MOLECULAR_WEIGHT>
329.8239

> <PUBCHEM_OPENEYE_CAN_SMILES>
CC(CN1C2=C(C=C(C=C2)Cl)NC3=CC=CC=C3C1=O)N(C)C

> <PUBCHEM_OPENEYE_ISO_SMILES>
CC(CN1C2=C(C=C(C=C2)Cl)NC3=CC=CC=C3C1=O)N(C)C

> <PUBCHEM_CACTVS_TPSA>
35.6

> <PUBCHEM_MONOISOTOPIC_WEIGHT>
329.12949

> <PUBCHEM_TOTAL_CHARGE>
0

> <PUBCHEM_HEAVY_ATOM_COUNT>
23

> <PUBCHEM_ATOM_DEF_STEREO_COUNT>
0

> <PUBCHEM_ATOM_UDEF_STEREO_COUNT>
1

> <PUBCHEM_BOND_DEF_STEREO_COUNT>
0

> <PUBCHEM_BOND_UDEF_STEREO_COUNT>
0

> <PUBCHEM_ISOTOPIC_ATOM_COUNT>
0

> <PUBCHEM_COMPONENT_COUNT>
1

> <PUBCHEM_CACTVS_TAUTO_COUNT>
4

> <PUBCHEM_COORDINATE_TYPE>
1
5
255

> <PUBCHEM_BONDANNOTATIONS>
11  17  8
12  13  8
12  18  8
13  19  8
16  20  8
17  21  8
18  22  8
19  23  8
20  21  8
22  23  8
6  9  3
8  11  8
8  16  8

$$$$

