443029
  -OEChem-07051213002D

 35 37  0     0  0  0  0  0  0999 V2000
    6.2619   -2.8665    0.0000 Cl  0  0  0  0  0  0  0  0  0  0  0  0
    9.2619   -1.1345    0.0000 Cl  0  0  0  0  0  0  0  0  0  0  0  0
    4.9889    0.6208    0.0000 O   0  0  0  0  0  0  0  0  0  0  0  0
    8.2619    0.5976    0.0000 O   0  0  0  0  0  0  0  0  0  0  0  0
    3.7320   -0.6345    0.0000 N   0  0  0  0  0  0  0  0  0  0  0  0
    5.2619   -1.1345    0.0000 N   0  0  0  0  0  0  0  0  0  0  0  0
    4.6783   -1.9392    0.0000 N   0  0  0  0  0  0  0  0  0  0  0  0
    2.0000   -0.6345    0.0000 C   0  0  0  0  0  0  0  0  0  0  0  0
    2.0000   -1.6345    0.0000 C   0  0  0  0  0  0  0  0  0  0  0  0
    2.8660   -0.1345    0.0000 C   0  0  0  0  0  0  0  0  0  0  0  0
    2.8660   -2.1345    0.0000 C   0  0  0  0  0  0  0  0  0  0  0  0
    3.7320   -1.6345    0.0000 C   0  0  0  0  0  0  0  0  0  0  0  0
    4.6783   -0.3298    0.0000 C   0  0  0  0  0  0  0  0  0  0  0  0
    6.2619   -1.1345    0.0000 C   0  0  0  0  0  0  0  0  0  0  0  0
    6.7619   -0.2685    0.0000 C   0  0  0  0  0  0  0  0  0  0  0  0
    6.7619   -2.0005    0.0000 C   0  0  0  0  0  0  0  0  0  0  0  0
    7.7619   -0.2685    0.0000 C   0  0  0  0  0  0  0  0  0  0  0  0
    7.7619   -2.0005    0.0000 C   0  0  0  0  0  0  0  0  0  0  0  0
    8.2619   -1.1345    0.0000 C   0  0  0  0  0  0  0  0  0  0  0  0
    9.2619    0.5976    0.0000 C   0  0  0  0  0  0  0  0  0  0  0  0
    9.7619    1.4636    0.0000 C   0  0  0  0  0  0  0  0  0  0  0  0
   10.2619    2.3296    0.0000 C   0  0  0  0  0  0  0  0  0  0  0  0
    1.7880   -0.0519    0.0000 H   0  0  0  0  0  0  0  0  0  0  0  0
    1.3894   -0.7422    0.0000 H   0  0  0  0  0  0  0  0  0  0  0  0
    1.3894   -1.5268    0.0000 H   0  0  0  0  0  0  0  0  0  0  0  0
    1.7880   -2.2171    0.0000 H   0  0  0  0  0  0  0  0  0  0  0  0
    3.2646    0.3405    0.0000 H   0  0  0  0  0  0  0  0  0  0  0  0
    2.4675    0.3405    0.0000 H   0  0  0  0  0  0  0  0  0  0  0  0
    2.4675   -2.6094    0.0000 H   0  0  0  0  0  0  0  0  0  0  0  0
    3.2646   -2.6094    0.0000 H   0  0  0  0  0  0  0  0  0  0  0  0
    6.4519    0.2685    0.0000 H   0  0  0  0  0  0  0  0  0  0  0  0
    8.0719   -2.5375    0.0000 H   0  0  0  0  0  0  0  0  0  0  0  0
    9.1542   -0.0130    0.0000 H   0  0  0  0  0  0  0  0  0  0  0  0
    9.8445    0.3855    0.0000 H   0  0  0  0  0  0  0  0  0  0  0  0
   10.5719    2.8665    0.0000 H   0  0  0  0  0  0  0  0  0  0  0  0
  1 16  1  0  0  0  0
  2 19  1  0  0  0  0
  3 13  2  0  0  0  0
  4 17  1  0  0  0  0
  4 20  1  0  0  0  0
  5 10  1  0  0  0  0
  5 12  1  0  0  0  0
  5 13  1  0  0  0  0
  6  7  1  0  0  0  0
  6 13  1  0  0  0  0
  6 14  1  0  0  0  0
  7 12  2  0  0  0  0
  8  9  1  0  0  0  0
  8 10  1  0  0  0  0
  8 23  1  0  0  0  0
  8 24  1  0  0  0  0
  9 11  1  0  0  0  0
  9 25  1  0  0  0  0
  9 26  1  0  0  0  0
 10 27  1  0  0  0  0
 10 28  1  0  0  0  0
 11 12  1  0  0  0  0
 11 29  1  0  0  0  0
 11 30  1  0  0  0  0
 14 15  2  0  0  0  0
 14 16  1  0  0  0  0
 15 17  1  0  0  0  0
 15 31  1  0  0  0  0
 16 18  2  0  0  0  0
 17 19  2  0  0  0  0
 18 19  1  0  0  0  0
 18 32  1  0  0  0  0
 20 21  1  0  0  0  0
 20 33  1  0  0  0  0
 20 34  1  0  0  0  0
 21 22  3  0  0  0  0
 22 35  1  0  0  0  0
M  END
> <PUBCHEM_COMPOUND_CID>
443029

> <PUBCHEM_COMPOUND_CANONICALIZED>
1

> <PUBCHEM_CACTVS_COMPLEXITY>
530

> <PUBCHEM_CACTVS_HBOND_ACCEPTOR>
3

> <PUBCHEM_CACTVS_HBOND_DONOR>
0

> <PUBCHEM_CACTVS_ROTATABLE_BOND>
3

> <PUBCHEM_CACTVS_SUBSKEYS>
AAADccBzMAAGAAAAAAAAAAAAAAAAAQAAAAA8QAAAAAAAAEABAAAAHgIIAAAACA7hkCYxxoMABADoGCZicACSDAAhJ0AXiAA+b4iMJiPFupvGOCjuzhvI6CeQUAMAACBAAgCACBAAQIAEAQAQIAAAAAAAAA==

> <PUBCHEM_IUPAC_OPENEYE_NAME>
2-(2,4-dichloro-5-prop-2-ynoxy-phenyl)-5,6,7,8-tetrahydro-[1,2,4]triazolo[4,3-a]pyridin-3-one

> <PUBCHEM_IUPAC_CAS_NAME>
2-(2,4-dichloro-5-prop-2-ynoxyphenyl)-5,6,7,8-tetrahydro-[1,2,4]triazolo[4,3-a]pyridin-3-one

> <PUBCHEM_IUPAC_NAME>
2-(2,4-dichloro-5-prop-2-ynoxyphenyl)-5,6,7,8-tetrahydro-[1,2,4]triazolo[4,3-a]pyridin-3-one

> <PUBCHEM_IUPAC_SYSTEMATIC_NAME>
2-[2,4-bis(chloranyl)-5-prop-2-ynoxy-phenyl]-5,6,7,8-tetrahydro-[1,2,4]triazolo[4,3-a]pyridin-3-one

> <PUBCHEM_IUPAC_TRADITIONAL_NAME>
2-(2,4-dichloro-5-propargyloxy-phenyl)-5,6,7,8-tetrahydro-[1,2,4]triazolo[4,3-a]pyridin-3-one

> <PUBCHEM_IUPAC_INCHI>
InChI=1S/C15H13Cl2N3O2/c1-2-7-22-13-9-12(10(16)8-11(13)17)20-15(21)19-6-4-3-5-14(19)18-20/h1,8-9H,3-7H2

> <PUBCHEM_IUPAC_INCHIKEY>
XOEMATDHVZOBSG-UHFFFAOYSA-N

> <PUBCHEM_XLOGP3_AA>
2.9

> <PUBCHEM_EXACT_MASS>
337.038482

> <PUBCHEM_MOLECULAR_FORMULA>
C15H13Cl2N3O2

> <PUBCHEM_MOLECULAR_WEIGHT>
338.18862

> <PUBCHEM_OPENEYE_CAN_SMILES>
C#CCOC1=C(C=C(C(=C1)N2C(=O)N3CCCCC3=N2)Cl)Cl

> <PUBCHEM_OPENEYE_ISO_SMILES>
C#CCOC1=C(C=C(C(=C1)N2C(=O)N3CCCCC3=N2)Cl)Cl

> <PUBCHEM_CACTVS_TPSA>
45.1

> <PUBCHEM_MONOISOTOPIC_WEIGHT>
337.038482

> <PUBCHEM_TOTAL_CHARGE>
0

> <PUBCHEM_HEAVY_ATOM_COUNT>
22

> <PUBCHEM_ATOM_DEF_STEREO_COUNT>
0

> <PUBCHEM_ATOM_UDEF_STEREO_COUNT>
0

> <PUBCHEM_BOND_DEF_STEREO_COUNT>
0

> <PUBCHEM_BOND_UDEF_STEREO_COUNT>
0

> <PUBCHEM_ISOTOPIC_ATOM_COUNT>
0

> <PUBCHEM_COMPONENT_COUNT>
1

> <PUBCHEM_CACTVS_TAUTO_COUNT>
1

> <PUBCHEM_COORDINATE_TYPE>
1
5
255

> <PUBCHEM_BONDANNOTATIONS>
14  15  8
14  16  8
15  17  8
16  18  8
17  19  8
18  19  8
5  12  8
5  13  8
6  13  8
6  7  8
7  12  8

$$$$

