586340
  -OEChem-06241222462D

 40 41  0     1  0  0  0  0  0999 V2000
    4.5986   -0.7990    0.0000 O   0  0  0  0  0  0  0  0  0  0  0  0
    3.7321   -0.2990    0.0000 C   0  0  3  0  0  0  0  0  0  0  0  0
    3.7321   -1.2990    0.0000 C   0  0  3  0  0  0  0  0  0  0  0  0
    2.8660    0.2010    0.0000 C   0  0  0  0  0  0  0  0  0  0  0  0
    2.8660   -1.7990    0.0000 C   0  0  0  0  0  0  0  0  0  0  0  0
    2.0000   -0.2990    0.0000 C   0  0  0  0  0  0  0  0  0  0  0  0
    2.0000   -1.2990    0.0000 C   0  0  0  0  0  0  0  0  0  0  0  0
    4.2321    0.5670    0.0000 C   0  0  0  0  0  0  0  0  0  0  0  0
    3.7321   -2.2990    0.0000 C   0  0  0  0  0  0  0  0  0  0  0  0
    2.0000    0.7010    0.0000 C   0  0  0  0  0  0  0  0  0  0  0  0
    2.8660    1.2010    0.0000 C   0  0  0  0  0  0  0  0  0  0  0  0
    3.7321    1.4330    0.0000 C   0  0  0  0  0  0  0  0  0  0  0  0
    5.2321    0.5670    0.0000 C   0  0  0  0  0  0  0  0  0  0  0  0
    5.7321    1.4330    0.0000 C   0  0  0  0  0  0  0  0  0  0  0  0
    6.7321    1.4330    0.0000 C   0  0  0  0  0  0  0  0  0  0  0  0
    5.2321    2.2990    0.0000 C   0  0  0  0  0  0  0  0  0  0  0  0
    2.4675   -2.2740    0.0000 H   0  0  0  0  0  0  0  0  0  0  0  0
    3.2646   -2.2740    0.0000 H   0  0  0  0  0  0  0  0  0  0  0  0
    1.7879    0.2836    0.0000 H   0  0  0  0  0  0  0  0  0  0  0  0
    1.3894   -0.4067    0.0000 H   0  0  0  0  0  0  0  0  0  0  0  0
    1.3894   -1.1914    0.0000 H   0  0  0  0  0  0  0  0  0  0  0  0
    1.7879   -1.8816    0.0000 H   0  0  0  0  0  0  0  0  0  0  0  0
    3.1121   -2.2990    0.0000 H   0  0  0  0  0  0  0  0  0  0  0  0
    3.7321   -2.9190    0.0000 H   0  0  0  0  0  0  0  0  0  0  0  0
    4.3521   -2.2990    0.0000 H   0  0  0  0  0  0  0  0  0  0  0  0
    2.3100    1.2379    0.0000 H   0  0  0  0  0  0  0  0  0  0  0  0
    1.4631    1.0110    0.0000 H   0  0  0  0  0  0  0  0  0  0  0  0
    1.6900    0.1640    0.0000 H   0  0  0  0  0  0  0  0  0  0  0  0
    3.4860    1.2010    0.0000 H   0  0  0  0  0  0  0  0  0  0  0  0
    2.8660    1.8210    0.0000 H   0  0  0  0  0  0  0  0  0  0  0  0
    2.2460    1.2010    0.0000 H   0  0  0  0  0  0  0  0  0  0  0  0
    4.2690    1.7430    0.0000 H   0  0  0  0  0  0  0  0  0  0  0  0
    3.4221    1.9699    0.0000 H   0  0  0  0  0  0  0  0  0  0  0  0
    3.1951    1.1230    0.0000 H   0  0  0  0  0  0  0  0  0  0  0  0
    5.5421    0.0301    0.0000 H   0  0  0  0  0  0  0  0  0  0  0  0
    6.7321    0.8130    0.0000 H   0  0  0  0  0  0  0  0  0  0  0  0
    7.3521    1.4330    0.0000 H   0  0  0  0  0  0  0  0  0  0  0  0
    6.7321    2.0530    0.0000 H   0  0  0  0  0  0  0  0  0  0  0  0
    5.5421    2.8360    0.0000 H   0  0  0  0  0  0  0  0  0  0  0  0
    4.6121    2.2990    0.0000 H   0  0  0  0  0  0  0  0  0  0  0  0
  1  2  1  0  0  0  0
  1  3  1  0  0  0  0
  2  3  1  0  0  0  0
  2  4  1  0  0  0  0
  2  8  1  0  0  0  0
  3  5  1  0  0  0  0
  3  9  1  0  0  0  0
  4  6  1  0  0  0  0
  4 10  1  0  0  0  0
  4 11  1  0  0  0  0
  5  7  1  0  0  0  0
  5 17  1  0  0  0  0
  5 18  1  0  0  0  0
  6  7  1  0  0  0  0
  6 19  1  0  0  0  0
  6 20  1  0  0  0  0
  7 21  1  0  0  0  0
  7 22  1  0  0  0  0
  8 12  1  0  0  0  0
  8 13  2  3  0  0  0
  9 23  1  0  0  0  0
  9 24  1  0  0  0  0
  9 25  1  0  0  0  0
 10 26  1  0  0  0  0
 10 27  1  0  0  0  0
 10 28  1  0  0  0  0
 11 29  1  0  0  0  0
 11 30  1  0  0  0  0
 11 31  1  0  0  0  0
 12 32  1  0  0  0  0
 12 33  1  0  0  0  0
 12 34  1  0  0  0  0
 13 14  1  0  0  0  0
 13 35  1  0  0  0  0
 14 15  1  0  0  0  0
 14 16  2  0  0  0  0
 15 36  1  0  0  0  0
 15 37  1  0  0  0  0
 15 38  1  0  0  0  0
 16 39  1  0  0  0  0
 16 40  1  0  0  0  0
M  END
> <PUBCHEM_COMPOUND_CID>
586340

> <PUBCHEM_COMPOUND_CANONICALIZED>
1

> <PUBCHEM_CACTVS_COMPLEXITY>
364

> <PUBCHEM_CACTVS_HBOND_ACCEPTOR>
1

> <PUBCHEM_CACTVS_HBOND_DONOR>
0

> <PUBCHEM_CACTVS_ROTATABLE_BOND>
2

> <PUBCHEM_CACTVS_SUBSKEYS>
AAADceBwIAAAAAAAAAAAAAAAEgAAAAAAAAAwAAAABIAAAAAAAAAAGgAAAAAADkSAgAACAAAABACAAiBCAAAAAAAgAAAACAAAAAgIBAIAIQACEAAEwAAIoAOAwPAPgAAAAAAAAAAAAAYAADAAAAAAAAAAAA==

> <PUBCHEM_IUPAC_OPENEYE_NAME>
6-(1,3-dimethylbuta-1,3-dienyl)-1,5,5-trimethyl-7-oxabicyclo[4.1.0]heptane

> <PUBCHEM_IUPAC_CAS_NAME>
1,5,5-trimethyl-6-(4-methylpenta-2,4-dien-2-yl)-7-oxabicyclo[4.1.0]heptane

> <PUBCHEM_IUPAC_NAME>
1,5,5-trimethyl-6-(4-methylpenta-2,4-dien-2-yl)-7-oxabicyclo[4.1.0]heptane

> <PUBCHEM_IUPAC_SYSTEMATIC_NAME>
1,5,5-trimethyl-6-(4-methylpenta-2,4-dien-2-yl)-7-oxabicyclo[4.1.0]heptane

> <PUBCHEM_IUPAC_TRADITIONAL_NAME>
6-(1,3-dimethylbuta-1,3-dienyl)-1,5,5-trimethyl-7-oxabicyclo[4.1.0]heptane

> <PUBCHEM_IUPAC_INCHI>
InChI=1S/C15H24O/c1-11(2)10-12(3)15-13(4,5)8-7-9-14(15,6)16-15/h10H,1,7-9H2,2-6H3

> <PUBCHEM_IUPAC_INCHIKEY>
JOPUGZXFGUJZPX-UHFFFAOYSA-N

> <PUBCHEM_XLOGP3_AA>
4.5

> <PUBCHEM_EXACT_MASS>
220.182715

> <PUBCHEM_MOLECULAR_FORMULA>
C15H24O

> <PUBCHEM_MOLECULAR_WEIGHT>
220.35046

> <PUBCHEM_OPENEYE_CAN_SMILES>
CC(=C)C=C(C)C12C(CCCC1(O2)C)(C)C

> <PUBCHEM_OPENEYE_ISO_SMILES>
CC(=C)C=C(C)C12C(CCCC1(O2)C)(C)C

> <PUBCHEM_CACTVS_TPSA>
12.5

> <PUBCHEM_MONOISOTOPIC_WEIGHT>
220.182715

> <PUBCHEM_TOTAL_CHARGE>
0

> <PUBCHEM_HEAVY_ATOM_COUNT>
16

> <PUBCHEM_ATOM_DEF_STEREO_COUNT>
0

> <PUBCHEM_ATOM_UDEF_STEREO_COUNT>
2

> <PUBCHEM_BOND_DEF_STEREO_COUNT>
0

> <PUBCHEM_BOND_UDEF_STEREO_COUNT>
1

> <PUBCHEM_ISOTOPIC_ATOM_COUNT>
0

> <PUBCHEM_COMPONENT_COUNT>
1

> <PUBCHEM_CACTVS_TAUTO_COUNT>
1

> <PUBCHEM_COORDINATE_TYPE>
1
5
255

> <PUBCHEM_BONDANNOTATIONS>
2  8  3
3  9  3
8  13  1

$$$$

