16
  -OEChem-07051212492D

 38 38  0     0  0  0  0  0  0999 V2000
    4.6200    0.4330    0.0000 O   0  0  0  0  0  0  0  0  0  0  0  0
    4.1200   -0.4330    0.0000 O   0  0  0  0  0  0  0  0  0  0  0  0
    6.1200    1.2990    0.0000 N   0  0  0  0  0  0  0  0  0  0  0  0
    2.6200   -1.2990    0.0000 N   0  0  0  0  0  0  0  0  0  0  0  0
    4.1200    1.2990    0.0000 C   0  0  0  0  0  0  0  0  0  0  0  0
    4.6200   -1.2990    0.0000 C   0  0  0  0  0  0  0  0  0  0  0  0
    4.1200   -2.1651    0.0000 C   0  0  0  0  0  0  0  0  0  0  0  0
    4.6200    2.1651    0.0000 C   0  0  0  0  0  0  0  0  0  0  0  0
    5.6200   -1.2990    0.0000 C   0  0  0  0  0  0  0  0  0  0  0  0
    3.1200    1.2990    0.0000 C   0  0  0  0  0  0  0  0  0  0  0  0
    5.6200    2.1651    0.0000 C   0  0  0  0  0  0  0  0  0  0  0  0
    3.1200   -2.1651    0.0000 C   0  0  0  0  0  0  0  0  0  0  0  0
    6.1200   -0.4330    0.0000 C   0  0  0  0  0  0  0  0  0  0  0  0
    2.6200    0.4330    0.0000 C   0  0  0  0  0  0  0  0  0  0  0  0
    3.1200   -0.4330    0.0000 C   0  0  0  0  0  0  0  0  0  0  0  0
    5.6200    0.4330    0.0000 C   0  0  0  0  0  0  0  0  0  0  0  0
    4.7277   -0.6885    0.0000 H   0  0  0  0  0  0  0  0  0  0  0  0
    4.0374   -1.0870    0.0000 H   0  0  0  0  0  0  0  0  0  0  0  0
    4.0123    0.6885    0.0000 H   0  0  0  0  0  0  0  0  0  0  0  0
    4.7026    1.0870    0.0000 H   0  0  0  0  0  0  0  0  0  0  0  0
    4.0123   -2.7756    0.0000 H   0  0  0  0  0  0  0  0  0  0  0  0
    4.7026   -2.3771    0.0000 H   0  0  0  0  0  0  0  0  0  0  0  0
    4.7277    2.7756    0.0000 H   0  0  0  0  0  0  0  0  0  0  0  0
    4.0374    2.3771    0.0000 H   0  0  0  0  0  0  0  0  0  0  0  0
    5.5123   -1.9096    0.0000 H   0  0  0  0  0  0  0  0  0  0  0  0
    6.2026   -1.5111    0.0000 H   0  0  0  0  0  0  0  0  0  0  0  0
    3.2277    1.9096    0.0000 H   0  0  0  0  0  0  0  0  0  0  0  0
    2.5374    1.5111    0.0000 H   0  0  0  0  0  0  0  0  0  0  0  0
    2.5374   -2.3771    0.0000 H   0  0  0  0  0  0  0  0  0  0  0  0
    3.2277   -2.7756    0.0000 H   0  0  0  0  0  0  0  0  0  0  0  0
    6.2026    2.3771    0.0000 H   0  0  0  0  0  0  0  0  0  0  0  0
    5.5123    2.7756    0.0000 H   0  0  0  0  0  0  0  0  0  0  0  0
    2.1450    0.8315    0.0000 H   0  0  0  0  0  0  0  0  0  0  0  0
    2.1450    0.0345    0.0000 H   0  0  0  0  0  0  0  0  0  0  0  0
    6.5950   -0.8315    0.0000 H   0  0  0  0  0  0  0  0  0  0  0  0
    6.5950   -0.0345    0.0000 H   0  0  0  0  0  0  0  0  0  0  0  0
    6.7400    1.2990    0.0000 H   0  0  0  0  0  0  0  0  0  0  0  0
    2.0000   -1.2990    0.0000 H   0  0  0  0  0  0  0  0  0  0  0  0
  1 16  2  0  0  0  0
  2 15  2  0  0  0  0
  3 11  1  0  0  0  0
  3 16  1  0  0  0  0
  3 37  1  0  0  0  0
  4 12  1  0  0  0  0
  4 15  1  0  0  0  0
  4 38  1  0  0  0  0
  5  8  1  0  0  0  0
  5 10  1  0  0  0  0
  5 19  1  0  0  0  0
  5 20  1  0  0  0  0
  6  7  1  0  0  0  0
  6  9  1  0  0  0  0
  6 17  1  0  0  0  0
  6 18  1  0  0  0  0
  7 12  1  0  0  0  0
  7 21  1  0  0  0  0
  7 22  1  0  0  0  0
  8 11  1  0  0  0  0
  8 23  1  0  0  0  0
  8 24  1  0  0  0  0
  9 13  1  0  0  0  0
  9 25  1  0  0  0  0
  9 26  1  0  0  0  0
 10 14  1  0  0  0  0
 10 27  1  0  0  0  0
 10 28  1  0  0  0  0
 11 31  1  0  0  0  0
 11 32  1  0  0  0  0
 12 29  1  0  0  0  0
 12 30  1  0  0  0  0
 13 16  1  0  0  0  0
 13 35  1  0  0  0  0
 13 36  1  0  0  0  0
 14 15  1  0  0  0  0
 14 33  1  0  0  0  0
 14 34  1  0  0  0  0
M  END
> <PUBCHEM_COMPOUND_CID>
16

> <PUBCHEM_COMPOUND_CANONICALIZED>
1

> <PUBCHEM_CACTVS_COMPLEXITY>
205

> <PUBCHEM_CACTVS_HBOND_ACCEPTOR>
2

> <PUBCHEM_CACTVS_HBOND_DONOR>
2

> <PUBCHEM_CACTVS_ROTATABLE_BOND>
0

> <PUBCHEM_CACTVS_SUBSKEYS>
AAADceBzMAAAAAAAAAAAAAAAAAAAAAAAAAAAAAAAAAAAAAAAAAAAHgAQAAAACADBgAQAAALAAAAIAAEQEAAAAAAAAAAAAIEIAAAAABIAgAAEAAAAFgCAAAEYCAAAAAAAAAAAAAAAAAAAAAAAAAAAAAAAAA==

> <PUBCHEM_IUPAC_OPENEYE_NAME>
1,8-diazacyclotetradecane-2,9-dione

> <PUBCHEM_IUPAC_CAS_NAME>
1,8-diazacyclotetradecane-2,9-dione

> <PUBCHEM_IUPAC_NAME>
1,8-diazacyclotetradecane-2,9-dione

> <PUBCHEM_IUPAC_SYSTEMATIC_NAME>
1,8-diazacyclotetradecane-2,9-dione

> <PUBCHEM_IUPAC_TRADITIONAL_NAME>
1,8-diazacyclotetradecane-2,9-quinone

> <PUBCHEM_IUPAC_INCHI>
InChI=1S/C12H22N2O2/c15-11-7-3-1-5-9-13-12(16)8-4-2-6-10-14-11/h1-10H2,(H,13,16)(H,14,15)

> <PUBCHEM_IUPAC_INCHIKEY>
HERSSAVMHCMYSQ-UHFFFAOYSA-N

> <PUBCHEM_XLOGP3_AA>
0.6

> <PUBCHEM_EXACT_MASS>
226.168128

> <PUBCHEM_MOLECULAR_FORMULA>
C12H22N2O2

> <PUBCHEM_MOLECULAR_WEIGHT>
226.31528

> <PUBCHEM_OPENEYE_CAN_SMILES>
C1CCC(=O)NCCCCCC(=O)NCC1

> <PUBCHEM_OPENEYE_ISO_SMILES>
C1CCC(=O)NCCCCCC(=O)NCC1

> <PUBCHEM_CACTVS_TPSA>
58.2

> <PUBCHEM_MONOISOTOPIC_WEIGHT>
226.168128

> <PUBCHEM_TOTAL_CHARGE>
0

> <PUBCHEM_HEAVY_ATOM_COUNT>
16

> <PUBCHEM_ATOM_DEF_STEREO_COUNT>
0

> <PUBCHEM_ATOM_UDEF_STEREO_COUNT>
0

> <PUBCHEM_BOND_DEF_STEREO_COUNT>
0

> <PUBCHEM_BOND_UDEF_STEREO_COUNT>
0

> <PUBCHEM_ISOTOPIC_ATOM_COUNT>
0

> <PUBCHEM_COMPONENT_COUNT>
1

> <PUBCHEM_CACTVS_TAUTO_COUNT>
6

> <PUBCHEM_COORDINATE_TYPE>
1
5
255

$$$$

