23976
  -OEChem-07051212512D

  1  0  0     0  0  0  0  0  0999 V2000
    2.0000    0.0000    0.0000 Cr  0  0  0  0  0  0  0  0  0  0  0  0
M  END
> <PUBCHEM_COMPOUND_CID>
23976

> <PUBCHEM_COMPOUND_CANONICALIZED>
1

> <PUBCHEM_CACTVS_COMPLEXITY>
0

> <PUBCHEM_CACTVS_HBOND_ACCEPTOR>
0

> <PUBCHEM_CACTVS_HBOND_DONOR>
0

> <PUBCHEM_CACTVS_ROTATABLE_BOND>
0

> <PUBCHEM_CACTVS_SUBSKEYS>
AAADcQAAAAAAAACAAAAAAAAAAAAAAAAAAAAAAAAAAAAAAAAAAAAAAAAAAAAAAAAAAAAAAAAAAAAAAAAAAAAAAAAAAAAAAAAAAAAAAAAAAAAAAAAAAAAAAAAAAAAAAAAAAAAAAAAAAAAAAAAAAAAAAAAAAA==

> <PUBCHEM_IUPAC_OPENEYE_NAME>
chromium

> <PUBCHEM_IUPAC_CAS_NAME>
chromium

> <PUBCHEM_IUPAC_NAME>
chromium

> <PUBCHEM_IUPAC_SYSTEMATIC_NAME>
chromium

> <PUBCHEM_IUPAC_TRADITIONAL_NAME>
chromium

> <PUBCHEM_IUPAC_INCHI>
InChI=1S/Cr

> <PUBCHEM_IUPAC_INCHIKEY>
VYZAMTAEIAYCRO-UHFFFAOYSA-N

> <PUBCHEM_EXACT_MASS>
51.940508

> <PUBCHEM_MOLECULAR_FORMULA>
Cr

> <PUBCHEM_MOLECULAR_WEIGHT>
51.9961

> <PUBCHEM_OPENEYE_CAN_SMILES>
[Cr]

> <PUBCHEM_OPENEYE_ISO_SMILES>
[Cr]

> <PUBCHEM_CACTVS_TPSA>
0

> <PUBCHEM_MONOISOTOPIC_WEIGHT>
51.940508

> <PUBCHEM_TOTAL_CHARGE>
0

> <PUBCHEM_HEAVY_ATOM_COUNT>
1

> <PUBCHEM_ATOM_DEF_STEREO_COUNT>
0

> <PUBCHEM_ATOM_UDEF_STEREO_COUNT>
0

> <PUBCHEM_BOND_DEF_STEREO_COUNT>
0

> <PUBCHEM_BOND_UDEF_STEREO_COUNT>
0

> <PUBCHEM_ISOTOPIC_ATOM_COUNT>
0

> <PUBCHEM_COMPONENT_COUNT>
1

> <PUBCHEM_CACTVS_TAUTO_COUNT>
1

> <PUBCHEM_COORDINATE_TYPE>
1
5
255

$$$$

