   Color/Form
        Crystalline solid
   from [1]HSDB

   Melting Point
        208-210 deg C, sealed tube; 230-235 deg C, open tube
   from [2]HSDB

   Dissociation Constants
        pKa=3.1
   from [3]HSDB

   Octanol/Water Partition Coefficient
        log Kow= 2.30
   from [4]HSDB

   Solubilities

     * Slightly soluble in nonpolar organic solvents (e.g., benzene);
       readily soluble in methanol, ethanol and acetone
     * In water, 0.35 g/100 g @ 25 deg C

   from [5]HSDB

   Spectral Properties
        Infrared (prism (14020), grating (28088)), nuclear magnetic
   resonance (proton (12020)) and mass spectral data have been reported.
   from [6]HSDB

   Vapor Pressure
        1.4X10-8 mm Hg @ 25 deg C /Estimated/
   from [7]HSDB

   Other Chemical/Physical Properties

     * Loses water in a heated open system to give the anhydride; emits
       chlorine when heated to decomposition.
     * Melting point: decomposes to the anhydride.
     * Henry's Law constant=3.0X10-14 atm-cu m/mole @ 25 deg C /Estimated/
     * Hydroxyl radical rate constant=8.2X10-12 cu cm/molecule-sec @ 25
       deg C /Estimated/

   from [8]HSDB

   Computed Properties
   Molecular Weight                  388.84366 [g/mol]
   Molecular Formula                 C[9]H[4]Cl[6]O[4]
   XLogP3-AA                         2
   H-Bond Donor                      2
   H-Bond Acceptor                   4
   Rotatable Bond Count              2
   Exact Mass                        387.821125
   MonoIsotopic Mass                 385.824075
   Topological Polar Surface Area    74.6
   Heavy Atom Count                  19
   Formal Charge                     0
   Complexity                        487
   Isotope Atom Count                0
   Defined Atom Stereocenter Count   0
   Undefined Atom Stereocenter Count 4
   Defined Bond Stereocenter Count   0
   Undefined Bond Stereocenter Count 0
   Covalently-Bonded Unit Count      1
   Feature 3D Acceptor Count         4
   Feature 3D Anion Count            2
   Feature 3D Ring Count             1
   Effective Rotor Count             2.6
   Conformer Sampling RMSD           0.6
   CID Conformer Count               [9]8

References

   1. http://toxnet.nlm.nih.gov/cgi-bin/sis/search/r?dbs+hsdb:@term+@rn+@rel+115-28-6
   2. http://toxnet.nlm.nih.gov/cgi-bin/sis/search/r?dbs+hsdb:@term+@rn+@rel+115-28-6
   3. http://toxnet.nlm.nih.gov/cgi-bin/sis/search/r?dbs+hsdb:@term+@rn+@rel+115-28-6
   4. http://toxnet.nlm.nih.gov/cgi-bin/sis/search/r?dbs+hsdb:@term+@rn+@rel+115-28-6
   5. http://toxnet.nlm.nih.gov/cgi-bin/sis/search/r?dbs+hsdb:@term+@rn+@rel+115-28-6
   6. http://toxnet.nlm.nih.gov/cgi-bin/sis/search/r?dbs+hsdb:@term+@rn+@rel+115-28-6
   7. http://toxnet.nlm.nih.gov/cgi-bin/sis/search/r?dbs+hsdb:@term+@rn+@rel+115-28-6
   8. http://toxnet.nlm.nih.gov/cgi-bin/sis/search/r?dbs+hsdb:@term+@rn+@rel+115-28-6
   9. http://pubchem.ncbi.nlm.nih.gov/vw3d/vw3d.cgi?cid=8266
