164634
  -OEChem-07051212552D

 24 25  0     0  0  0  0  0  0999 V2000
    5.5686    2.6433    0.0000 O   0  0  0  0  0  0  0  0  0  0  0  0
    2.8660   -0.8512    0.0000 C   0  0  0  0  0  0  0  0  0  0  0  0
    2.8660    0.1488    0.0000 C   0  0  0  0  0  0  0  0  0  0  0  0
    2.0000   -1.3512    0.0000 C   0  0  0  0  0  0  0  0  0  0  0  0
    3.7320   -1.3512    0.0000 C   0  0  0  0  0  0  0  0  0  0  0  0
    2.0000   -2.3512    0.0000 C   0  0  0  0  0  0  0  0  0  0  0  0
    3.7320   -2.3512    0.0000 C   0  0  0  0  0  0  0  0  0  0  0  0
    2.8660   -2.8512    0.0000 C   0  0  0  0  0  0  0  0  0  0  0  0
    3.7320    0.6488    0.0000 C   0  0  0  0  0  0  0  0  0  0  0  0
    5.4641    1.6488    0.0000 C   0  0  0  0  0  0  0  0  0  0  0  0
    6.3776    1.2421    0.0000 C   0  0  0  0  0  0  0  0  0  0  0  0
    7.0468    1.9852    0.0000 C   0  0  0  0  0  0  0  0  0  0  0  0
    4.5981    1.1488    0.0000 C   0  0  0  0  0  0  0  0  0  0  0  0
    6.5468    2.8512    0.0000 C   0  0  0  0  0  0  0  0  0  0  0  0
    2.6540    0.7314    0.0000 H   0  0  0  0  0  0  0  0  0  0  0  0
    2.2554    0.0411    0.0000 H   0  0  0  0  0  0  0  0  0  0  0  0
    1.4631   -1.0412    0.0000 H   0  0  0  0  0  0  0  0  0  0  0  0
    4.2690   -1.0412    0.0000 H   0  0  0  0  0  0  0  0  0  0  0  0
    1.4631   -2.6612    0.0000 H   0  0  0  0  0  0  0  0  0  0  0  0
    4.2690   -2.6612    0.0000 H   0  0  0  0  0  0  0  0  0  0  0  0
    2.8660   -3.4712    0.0000 H   0  0  0  0  0  0  0  0  0  0  0  0
    6.5066    0.6356    0.0000 H   0  0  0  0  0  0  0  0  0  0  0  0
    7.6634    1.9204    0.0000 H   0  0  0  0  0  0  0  0  0  0  0  0
    6.7990    3.4176    0.0000 H   0  0  0  0  0  0  0  0  0  0  0  0
  1 10  1  0  0  0  0
  1 14  1  0  0  0  0
  2  3  1  0  0  0  0
  2  4  2  0  0  0  0
  2  5  1  0  0  0  0
  3  9  1  0  0  0  0
  3 15  1  0  0  0  0
  3 16  1  0  0  0  0
  4  6  1  0  0  0  0
  4 17  1  0  0  0  0
  5  7  2  0  0  0  0
  5 18  1  0  0  0  0
  6  8  2  0  0  0  0
  6 19  1  0  0  0  0
  7  8  1  0  0  0  0
  7 20  1  0  0  0  0
  8 21  1  0  0  0  0
  9 13  3  0  0  0  0
 10 11  2  0  0  0  0
 10 13  1  0  0  0  0
 11 12  1  0  0  0  0
 11 22  1  0  0  0  0
 12 14  2  0  0  0  0
 12 23  1  0  0  0  0
 14 24  1  0  0  0  0
M  END
> <PUBCHEM_COMPOUND_CID>
164634

> <PUBCHEM_COMPOUND_CANONICALIZED>
1

> <PUBCHEM_CACTVS_COMPLEXITY>
226

> <PUBCHEM_CACTVS_HBOND_ACCEPTOR>
1

> <PUBCHEM_CACTVS_HBOND_DONOR>
0

> <PUBCHEM_CACTVS_ROTATABLE_BOND>
2

> <PUBCHEM_CACTVS_SUBSKEYS>
AAADccBwIAAAAAAAAAAAAAAAAAAAASAAAAAwAAAAAAAAAAABwAAAGgAAAAAADASgmAIwBIAABEDIEqhSgAgCCAAkIAAIiAEGCMgMJjKENRqCOSCkwBEIqYeIgIAOAAAAAAAAAAAAAAAAAAAAAAAAAAAAAA==

> <PUBCHEM_IUPAC_OPENEYE_NAME>
2-(3-phenylprop-1-ynyl)furan

> <PUBCHEM_IUPAC_CAS_NAME>
2-(3-phenylprop-1-ynyl)furan

> <PUBCHEM_IUPAC_NAME>
2-(3-phenylprop-1-ynyl)furan

> <PUBCHEM_IUPAC_SYSTEMATIC_NAME>
2-(3-phenylprop-1-ynyl)furan

> <PUBCHEM_IUPAC_TRADITIONAL_NAME>
2-(3-phenylprop-1-ynyl)furan

> <PUBCHEM_IUPAC_INCHI>
InChI=1S/C13H10O/c1-2-6-12(7-3-1)8-4-9-13-10-5-11-14-13/h1-3,5-7,10-11H,8H2

> <PUBCHEM_IUPAC_INCHIKEY>
ICRHFCVRNWSKQH-UHFFFAOYSA-N

> <PUBCHEM_XLOGP3_AA>
3.3

> <PUBCHEM_EXACT_MASS>
182.073165

> <PUBCHEM_MOLECULAR_FORMULA>
C13H10O

> <PUBCHEM_MOLECULAR_WEIGHT>
182.2179

> <PUBCHEM_OPENEYE_CAN_SMILES>
C1=CC=C(C=C1)CC#CC2=CC=CO2

> <PUBCHEM_OPENEYE_ISO_SMILES>
C1=CC=C(C=C1)CC#CC2=CC=CO2

> <PUBCHEM_CACTVS_TPSA>
13.1

> <PUBCHEM_MONOISOTOPIC_WEIGHT>
182.073165

> <PUBCHEM_TOTAL_CHARGE>
0

> <PUBCHEM_HEAVY_ATOM_COUNT>
14

> <PUBCHEM_ATOM_DEF_STEREO_COUNT>
0

> <PUBCHEM_ATOM_UDEF_STEREO_COUNT>
0

> <PUBCHEM_BOND_DEF_STEREO_COUNT>
0

> <PUBCHEM_BOND_UDEF_STEREO_COUNT>
0

> <PUBCHEM_ISOTOPIC_ATOM_COUNT>
0

> <PUBCHEM_COMPONENT_COUNT>
1

> <PUBCHEM_CACTVS_TAUTO_COUNT>
1

> <PUBCHEM_COORDINATE_TYPE>
1
5
255

> <PUBCHEM_BONDANNOTATIONS>
1  10  8
1  14  8
10  11  8
11  12  8
12  14  8
2  4  8
2  5  8
4  6  8
5  7  8
6  8  8
7  8  8

$$$$

