   Color/Form
        Colorless liquid
   from [1]HSDB

   Odor

     * UNPLEASANT ODOR, SIMILAR TO BUTYRIC ACID
     * Unpleasant odor
     * Penetrating odor

   from [2]HSDB

   Taste

     * Unpleasant flavor, similar to butyric acid
     * FRUITY TASTE
     * Penetrating taste

   from [3]HSDB

   Boiling Point
        186-187 deg C
   from [4]HSDB

   Melting Point
        -34.5 deg C
   from [5]HSDB

   Density/Specific Gravity
        0.939 at 20 deg C/4 deg C
   from [6]HSDB

   Dissociation Constants
        In water, pKa = 4.842 at 25 deg C
   from [7]HSDB

   Heat of Combustion
        -2,837.8 kJ/mole
   from [8]HSDB

   Octanol/Water Partition Coefficient
        log Kow = 1.39
   from [9]HSDB

   Solubilities

     * Freely soluble in alcohol, ether
     * Soluble in oxygenated solvents.
     * Slightly soluble in carbon tetrachloride
     * In water, 2.4X10+4 mg/L at 25 deg C

   from [10]HSDB

   Spectral Properties

     * Index of refraction: 1.4086 at 20 degC/D
     * SADTLER REF NUMBER: 304 (IR, PRISM); 10844 (IR, GRATING)
     * IR: 1275 (Coblentz Society Spectral Collection)
     * NMR: 5995 (Sadtler Research Laboratories Spectral Collection)
     * MASS: 1196 (NIST/EPA/MSDC Mass Spectral Database, 1990 Version)

   from [11]HSDB

   Vapor Density
        3.5 (Air = 1)
   from [12]HSDB

   Vapor Pressure
        1.96X10-1 mm Hg at 25 deg C (est)
   from [13]HSDB

   Viscosity
        2.30 cP at 20 deg C
   from [14]HSDB

   Other Chemical/Physical Properties

     * Undergoes reactions typical of normal monobasic organic acids.
     * VAPOR PRESSURE = 1 MM HG AT 42 DEG C
     * Henry's Law constant = 4.72X10-7 atm-cu m/mol at 25 deg C
     * Hydroxyl radical reaction rate constant = 4.11X10-12 cu
       cm/molec-sec at 25 deg C (est)

   from [15]HSDB

   Computed Properties
   Molecular Weight                  102.1317 [g/mol]
   Molecular Formula                 C[5]H[10]O[2]
   XLogP3                            1.4
   H-Bond Donor                      1
   H-Bond Acceptor                   2
   Rotatable Bond Count              3
   Exact Mass                        102.06808
   MonoIsotopic Mass                 102.06808
   Topological Polar Surface Area    37.3
   Heavy Atom Count                  7
   Formal Charge                     0
   Complexity                        59.1
   Isotope Atom Count                0
   Defined Atom Stereocenter Count   0
   Undefined Atom Stereocenter Count 0
   Defined Bond Stereocenter Count   0
   Undefined Bond Stereocenter Count 0
   Covalently-Bonded Unit Count      1
   Feature 3D Acceptor Count         2
   Feature 3D Anion Count            1
   Feature 3D Hydrophobe Count       1
   Effective Rotor Count             3
   Conformer Sampling RMSD           0.4
   CID Conformer Count               [16]22

References

   1. http://toxnet.nlm.nih.gov/cgi-bin/sis/search/r?dbs+hsdb:@term+@rn+@rel+109-52-4
   2. http://toxnet.nlm.nih.gov/cgi-bin/sis/search/r?dbs+hsdb:@term+@rn+@rel+109-52-4
   3. http://toxnet.nlm.nih.gov/cgi-bin/sis/search/r?dbs+hsdb:@term+@rn+@rel+109-52-4
   4. http://toxnet.nlm.nih.gov/cgi-bin/sis/search/r?dbs+hsdb:@term+@rn+@rel+109-52-4
   5. http://toxnet.nlm.nih.gov/cgi-bin/sis/search/r?dbs+hsdb:@term+@rn+@rel+109-52-4
   6. http://toxnet.nlm.nih.gov/cgi-bin/sis/search/r?dbs+hsdb:@term+@rn+@rel+109-52-4
   7. http://toxnet.nlm.nih.gov/cgi-bin/sis/search/r?dbs+hsdb:@term+@rn+@rel+109-52-4
   8. http://toxnet.nlm.nih.gov/cgi-bin/sis/search/r?dbs+hsdb:@term+@rn+@rel+109-52-4
   9. http://toxnet.nlm.nih.gov/cgi-bin/sis/search/r?dbs+hsdb:@term+@rn+@rel+109-52-4
  10. http://toxnet.nlm.nih.gov/cgi-bin/sis/search/r?dbs+hsdb:@term+@rn+@rel+109-52-4
  11. http://toxnet.nlm.nih.gov/cgi-bin/sis/search/r?dbs+hsdb:@term+@rn+@rel+109-52-4
  12. http://toxnet.nlm.nih.gov/cgi-bin/sis/search/r?dbs+hsdb:@term+@rn+@rel+109-52-4
  13. http://toxnet.nlm.nih.gov/cgi-bin/sis/search/r?dbs+hsdb:@term+@rn+@rel+109-52-4
  14. http://toxnet.nlm.nih.gov/cgi-bin/sis/search/r?dbs+hsdb:@term+@rn+@rel+109-52-4
  15. http://toxnet.nlm.nih.gov/cgi-bin/sis/search/r?dbs+hsdb:@term+@rn+@rel+109-52-4
  16. http://pubchem.ncbi.nlm.nih.gov/vw3d/vw3d.cgi?cid=7991
