   Color/Form

     * Colorless, oily liquid at ordinary temp; crystallizes when cooled
     * Yellowish oil

   from [1]HSDB

   Odor

     * FATTY ODOR
     * COCONUT AROMA
     * Slight odor

   from [2]HSDB

   Taste

     * UNPLEASANT TASTE
     * EXCELLENT COCONUT TASTE

   from [3]HSDB

   Boiling Point
        254.5 deg C
   from [4]HSDB

   Melting Point
        12.4 deg C
   from [5]HSDB

   Density/Specific Gravity
        0.9052 g/cu cm at 20 deg C
   from [6]HSDB

   Dissociation Constants
        pKa = 4.95 at 25 deg C
   from [7]HSDB

   Heat of Combustion
        -5,456.1 kJ/mol
   from [8]HSDB

   Octanol/Water Partition Coefficient
        log Kow = 3.42
   from [9]HSDB

   Solubilities

     * Soluble in ethanol, chloroform, ether
     * 1:8 IN 50% ALCOHOL; 1:3 IN 60% ALCOHOL; INSOL IN WATER; SOL IN MOST
       ORG SOLVENTS
     * In water, 284 mg/L at 30 deg C

   from [10]HSDB

   Spectral Properties

     * Index of refraction: 1.4343 at 20 deg C/D
     * IR: 60 (Sadtler Research Laboratories Prism Collection)
     * 1H NMR: 9 (Sadtler Research Laboratories Spectral Collection)
     * 13C NMR: 362 (Johnson & Jankowski, Carbon-13 NMR Spectra, John
       WIley & Sons, NY)
     * MASS: 5504 (NIST/EPA/MSDC Mass Spectral database, 1990 version)

   from [11]HSDB

   Vapor Density
        4.41 (Air = 1)
   from [12]HSDB

   Vapor Pressure
        1.65X10-3 mm Hg at 25 deg C
   from [13]HSDB

   Viscosity
        8.08 mPa.sec at 20 deg C
   from [14]HSDB

   Other Chemical/Physical Properties

     * Boiling point = 255.6 deg C
     * Acid value: 351 mg KOH/g
     * Specific heat: 2.91 J/g (for the solid); Heat of fusion: 20.3
       kJ/mol.
     * Henry's Law constant = 1.62X10-6 atm-cu m/mole at 25 deg C (est)
     * Hydroxyl radical reaction rate constant = 9.76X10-12 cu
       cm/molec-sec at 25 deg C (est)

   from [15]HSDB

   Computed Properties
   Molecular Weight                  158.23802 [g/mol]
   Molecular Formula                 C[9]H[18]O[2]
   XLogP3                            3.5
   H-Bond Donor                      1
   H-Bond Acceptor                   2
   Rotatable Bond Count              7
   Exact Mass                        158.13068
   MonoIsotopic Mass                 158.13068
   Topological Polar Surface Area    37.3
   Heavy Atom Count                  11
   Formal Charge                     0
   Complexity                        99.7
   Isotope Atom Count                0
   Defined Atom Stereocenter Count   0
   Undefined Atom Stereocenter Count 0
   Defined Bond Stereocenter Count   0
   Undefined Bond Stereocenter Count 0
   Covalently-Bonded Unit Count      1
   Feature 3D Acceptor Count         2
   Feature 3D Anion Count            1
   Feature 3D Hydrophobe Count       1
   Effective Rotor Count             7
   Conformer Sampling RMSD           0.8
   CID Conformer Count               [16]74

References

   1. http://toxnet.nlm.nih.gov/cgi-bin/sis/search/r?dbs+hsdb:@term+@rn+@rel+112-05-0
   2. http://toxnet.nlm.nih.gov/cgi-bin/sis/search/r?dbs+hsdb:@term+@rn+@rel+112-05-0
   3. http://toxnet.nlm.nih.gov/cgi-bin/sis/search/r?dbs+hsdb:@term+@rn+@rel+112-05-0
   4. http://toxnet.nlm.nih.gov/cgi-bin/sis/search/r?dbs+hsdb:@term+@rn+@rel+112-05-0
   5. http://toxnet.nlm.nih.gov/cgi-bin/sis/search/r?dbs+hsdb:@term+@rn+@rel+112-05-0
   6. http://toxnet.nlm.nih.gov/cgi-bin/sis/search/r?dbs+hsdb:@term+@rn+@rel+112-05-0
   7. http://toxnet.nlm.nih.gov/cgi-bin/sis/search/r?dbs+hsdb:@term+@rn+@rel+112-05-0
   8. http://toxnet.nlm.nih.gov/cgi-bin/sis/search/r?dbs+hsdb:@term+@rn+@rel+112-05-0
   9. http://toxnet.nlm.nih.gov/cgi-bin/sis/search/r?dbs+hsdb:@term+@rn+@rel+112-05-0
  10. http://toxnet.nlm.nih.gov/cgi-bin/sis/search/r?dbs+hsdb:@term+@rn+@rel+112-05-0
  11. http://toxnet.nlm.nih.gov/cgi-bin/sis/search/r?dbs+hsdb:@term+@rn+@rel+112-05-0
  12. http://toxnet.nlm.nih.gov/cgi-bin/sis/search/r?dbs+hsdb:@term+@rn+@rel+112-05-0
  13. http://toxnet.nlm.nih.gov/cgi-bin/sis/search/r?dbs+hsdb:@term+@rn+@rel+112-05-0
  14. http://toxnet.nlm.nih.gov/cgi-bin/sis/search/r?dbs+hsdb:@term+@rn+@rel+112-05-0
  15. http://toxnet.nlm.nih.gov/cgi-bin/sis/search/r?dbs+hsdb:@term+@rn+@rel+112-05-0
  16. http://pubchem.ncbi.nlm.nih.gov/vw3d/vw3d.cgi?cid=8158
