5281585
  -OEChem-07051212582D

 73 76  0     1  0  0  0  0  0999 V2000
    2.8660    1.0856    0.0000 O   0  0  0  0  0  0  0  0  0  0  0  0
    6.9641    0.7196    0.0000 O   0  0  0  0  0  0  0  0  0  0  0  0
    3.7226    0.5690    0.0000 O   0  0  0  0  0  0  0  0  0  0  0  0
    3.7118   -2.3775    0.0000 O   0  0  0  0  0  0  0  0  0  0  0  0
    6.5574    3.3652    0.0000 N   0  0  3  0  0  0  0  0  0  0  0  0
    5.4641    1.5856    0.0000 N   0  0  0  0  0  0  0  0  0  0  0  0
    5.4641   -0.4144    0.0000 N   0  0  0  0  0  0  0  0  0  0  0  0
    4.5981   -2.9144    0.0000 N   0  0  0  0  0  0  0  0  0  0  0  0
    6.9641    2.4517    0.0000 C   0  0  1  0  0  0  0  0  0  0  0  0
    7.9586    2.5562    0.0000 C   0  0  0  0  0  0  0  0  0  0  0  0
    8.1665    3.5344    0.0000 C   0  0  0  0  0  0  0  0  0  0  0  0
    7.3005    4.0344    0.0000 C   0  0  0  0  0  0  0  0  0  0  0  0
    4.5981    1.0856    0.0000 C   0  0  1  0  0  0  0  0  0  0  0  0
    6.4641    1.5856    0.0000 C   0  0  0  0  0  0  0  0  0  0  0  0
    3.7320    1.5856    0.0000 C   0  0  2  0  0  0  0  0  0  0  0  0
    3.7320    2.5856    0.0000 C   0  0  0  0  0  0  0  0  0  0  0  0
    5.5792    3.5731    0.0000 C   0  0  0  0  0  0  0  0  0  0  0  0
    4.5981    0.0856    0.0000 C   0  0  0  0  0  0  0  0  0  0  0  0
    2.8660    3.0856    0.0000 C   0  0  0  0  0  0  0  0  0  0  0  0
    4.5981    3.0856    0.0000 C   0  0  0  0  0  0  0  0  0  0  0  0
    5.4641   -1.4144    0.0000 C   0  0  1  0  0  0  0  0  0  0  0  0
    2.8660    0.0856    0.0000 C   0  0  0  0  0  0  0  0  0  0  0  0
    6.3301   -1.9144    0.0000 C   0  0  0  0  0  0  0  0  0  0  0  0
    4.5981   -1.9144    0.0000 C   0  0  0  0  0  0  0  0  0  0  0  0
    7.1962   -1.4144    0.0000 C   0  0  0  0  0  0  0  0  0  0  0  0
    3.7320   -0.4144    0.0000 C   0  0  0  0  0  0  0  0  0  0  0  0
    2.0000   -0.4144    0.0000 C   0  0  0  0  0  0  0  0  0  0  0  0
    2.8660   -1.9144    0.0000 C   0  0  0  0  0  0  0  0  0  0  0  0
    3.7320   -1.4144    0.0000 C   0  0  0  0  0  0  0  0  0  0  0  0
    2.0000   -1.4144    0.0000 C   0  0  0  0  0  0  0  0  0  0  0  0
    8.0622   -1.9143    0.0000 C   0  0  0  0  0  0  0  0  0  0  0  0
    7.1962   -0.4143    0.0000 C   0  0  0  0  0  0  0  0  0  0  0  0
    3.7320   -3.4144    0.0000 C   0  0  0  0  0  0  0  0  0  0  0  0
    2.8660   -2.9144    0.0000 C   0  0  0  0  0  0  0  0  0  0  0  0
    8.9282   -1.4143    0.0000 C   0  0  0  0  0  0  0  0  0  0  0  0
    8.0622    0.0857    0.0000 C   0  0  0  0  0  0  0  0  0  0  0  0
    8.9282   -0.4143    0.0000 C   0  0  0  0  0  0  0  0  0  0  0  0
    6.3450    2.4841    0.0000 H   0  0  0  0  0  0  0  0  0  0  0  0
    7.9586    1.9362    0.0000 H   0  0  0  0  0  0  0  0  0  0  0  0
    8.5752    2.4914    0.0000 H   0  0  0  0  0  0  0  0  0  0  0  0
    8.7562    3.3428    0.0000 H   0  0  0  0  0  0  0  0  0  0  0  0
    8.4187    4.1008    0.0000 H   0  0  0  0  0  0  0  0  0  0  0  0
    7.6649    4.5359    0.0000 H   0  0  0  0  0  0  0  0  0  0  0  0
    6.8398    4.4492    0.0000 H   0  0  0  0  0  0  0  0  0  0  0  0
    5.1350    0.7756    0.0000 H   0  0  0  0  0  0  0  0  0  0  0  0
    3.1951    1.8956    0.0000 H   0  0  0  0  0  0  0  0  0  0  0  0
    4.2690    2.2756    0.0000 H   0  0  0  0  0  0  0  0  0  0  0  0
    5.4641    2.2056    0.0000 H   0  0  0  0  0  0  0  0  0  0  0  0
    5.7081    4.1796    0.0000 H   0  0  0  0  0  0  0  0  0  0  0  0
    4.9728    3.7020    0.0000 H   0  0  0  0  0  0  0  0  0  0  0  0
    5.4503    2.9667    0.0000 H   0  0  0  0  0  0  0  0  0  0  0  0
    3.1760    3.6226    0.0000 H   0  0  0  0  0  0  0  0  0  0  0  0
    2.3291    3.3956    0.0000 H   0  0  0  0  0  0  0  0  0  0  0  0
    2.5560    2.5487    0.0000 H   0  0  0  0  0  0  0  0  0  0  0  0
    4.9081    2.5487    0.0000 H   0  0  0  0  0  0  0  0  0  0  0  0
    5.1350    3.3956    0.0000 H   0  0  0  0  0  0  0  0  0  0  0  0
    4.2881    3.6226    0.0000 H   0  0  0  0  0  0  0  0  0  0  0  0
    6.0010   -0.1044    0.0000 H   0  0  0  0  0  0  0  0  0  0  0  0
    6.0010   -1.1044    0.0000 H   0  0  0  0  0  0  0  0  0  0  0  0
    5.9316   -2.3893    0.0000 H   0  0  0  0  0  0  0  0  0  0  0  0
    6.7287   -2.3893    0.0000 H   0  0  0  0  0  0  0  0  0  0  0  0
    4.2690   -0.1044    0.0000 H   0  0  0  0  0  0  0  0  0  0  0  0
    1.4631   -0.1044    0.0000 H   0  0  0  0  0  0  0  0  0  0  0  0
    5.1350   -3.2244    0.0000 H   0  0  0  0  0  0  0  0  0  0  0  0
    4.2690   -1.7244    0.0000 H   0  0  0  0  0  0  0  0  0  0  0  0
    1.4631   -1.7244    0.0000 H   0  0  0  0  0  0  0  0  0  0  0  0
    8.0622   -2.5343    0.0000 H   0  0  0  0  0  0  0  0  0  0  0  0
    6.6592   -0.1043    0.0000 H   0  0  0  0  0  0  0  0  0  0  0  0
    3.7320   -4.0344    0.0000 H   0  0  0  0  0  0  0  0  0  0  0  0
    2.3291   -3.2244    0.0000 H   0  0  0  0  0  0  0  0  0  0  0  0
    9.4651   -1.7243    0.0000 H   0  0  0  0  0  0  0  0  0  0  0  0
    8.0622    0.7057    0.0000 H   0  0  0  0  0  0  0  0  0  0  0  0
    9.4651   -0.1043    0.0000 H   0  0  0  0  0  0  0  0  0  0  0  0
  1 15  1  0  0  0  0
  1 22  1  0  0  0  0
  2 14  2  0  0  0  0
  3 18  2  0  0  0  0
  4 24  2  0  0  0  0
  5  9  1  0  0  0  0
  5 12  1  0  0  0  0
  5 17  1  0  0  0  0
 13  6  1  6  0  0  0
  6 14  1  0  0  0  0
  6 48  1  0  0  0  0
  7 18  1  0  0  0  0
  7 21  1  0  0  0  0
  7 58  1  0  0  0  0
  8 24  1  0  0  0  0
  8 33  1  0  0  0  0
  8 64  1  0  0  0  0
  9 10  1  0  0  0  0
  9 14  1  1  0  0  0
  9 38  1  0  0  0  0
 10 11  1  0  0  0  0
 10 39  1  0  0  0  0
 10 40  1  0  0  0  0
 11 12  1  0  0  0  0
 11 41  1  0  0  0  0
 11 42  1  0  0  0  0
 12 43  1  0  0  0  0
 12 44  1  0  0  0  0
 13 15  1  0  0  0  0
 13 18  1  0  0  0  0
 13 45  1  0  0  0  0
 15 16  1  1  0  0  0
 15 46  1  0  0  0  0
 16 19  1  0  0  0  0
 16 20  1  0  0  0  0
 16 47  1  0  0  0  0
 17 49  1  0  0  0  0
 17 50  1  0  0  0  0
 17 51  1  0  0  0  0
 19 52  1  0  0  0  0
 19 53  1  0  0  0  0
 19 54  1  0  0  0  0
 20 55  1  0  0  0  0
 20 56  1  0  0  0  0
 20 57  1  0  0  0  0
 21 23  1  1  0  0  0
 21 24  1  0  0  0  0
 21 59  1  0  0  0  0
 22 26  2  0  0  0  0
 22 27  1  0  0  0  0
 23 25  1  0  0  0  0
 23 60  1  0  0  0  0
 23 61  1  0  0  0  0
 25 31  2  0  0  0  0
 25 32  1  0  0  0  0
 26 29  1  0  0  0  0
 26 62  1  0  0  0  0
 27 30  2  0  0  0  0
 27 63  1  0  0  0  0
 28 29  2  0  0  0  0
 28 30  1  0  0  0  0
 28 34  1  0  0  0  0
 29 65  1  0  0  0  0
 30 66  1  0  0  0  0
 31 35  1  0  0  0  0
 31 67  1  0  0  0  0
 32 36  2  0  0  0  0
 32 68  1  0  0  0  0
 33 34  2  0  0  0  0
 33 69  1  0  0  0  0
 34 70  1  0  0  0  0
 35 37  2  0  0  0  0
 35 71  1  0  0  0  0
 36 37  1  0  0  0  0
 36 72  1  0  0  0  0
 37 73  1  0  0  0  0
M  END
> <PUBCHEM_COMPOUND_CID>
5281585

> <PUBCHEM_COMPOUND_CANONICALIZED>
1

> <PUBCHEM_CACTVS_COMPLEXITY>
817

> <PUBCHEM_CACTVS_HBOND_ACCEPTOR>
5

> <PUBCHEM_CACTVS_HBOND_DONOR>
3

> <PUBCHEM_CACTVS_ROTATABLE_BOND>
5

> <PUBCHEM_CACTVS_SUBSKEYS>
AAADcfB7uAAAAAAAAAAAAAAAAAAAAWAAAAAwYAAAAAAAAAABQAAAHgAQAAAADTzhmAYyBoPABACIAiFWUAACCAAgIgAIiIGOCIgOZjaEsTuXOCCm9hGYqAeYyYCOIAAAAAAAAABAAAAAAAAAAAAAAAAAAA==

> <PUBCHEM_IUPAC_OPENEYE_NAME>
(2S)-N-[(2Z,6S,9S,10S)-6-benzyl-10-isopropyl-5,8-dioxo-11-oxa-4,7-diazabicyclo[10.2.2]hexadeca-1(14),2,12,15-tetraen-9-yl]-1-methyl-pyrrolidine-2-carboxamide

> <PUBCHEM_IUPAC_CAS_NAME>
(2S)-N-[(2Z,6S,9S,10S)-5,8-dioxo-6-(phenylmethyl)-10-propan-2-yl-11-oxa-4,7-diazabicyclo[10.2.2]hexadeca-1(14),2,12,15-tetraen-9-yl]-1-methyl-2-pyrrolidinecarboxamide

> <PUBCHEM_IUPAC_NAME>
(2S)-N-[(2Z,6S,9S,10S)-6-benzyl-5,8-dioxo-10-propan-2-yl-11-oxa-4,7-diazabicyclo[10.2.2]hexadeca-1(14),2,12,15-tetraen-9-yl]-1-methylpyrrolidine-2-carboxamide

> <PUBCHEM_IUPAC_SYSTEMATIC_NAME>
(2S)-N-[(2Z,6S,9S,10S)-5,8-bis(oxidanylidene)-6-(phenylmethyl)-10-propan-2-yl-11-oxa-4,7-diazabicyclo[10.2.2]hexadeca-1(14),2,12,15-tetraen-9-yl]-1-methyl-pyrrolidine-2-carboxamide

> <PUBCHEM_IUPAC_TRADITIONAL_NAME>
(2S)-N-[(2Z,6S,9S,10S)-6-benzyl-10-isopropyl-5,8-diketo-11-oxa-4,7-diazabicyclo[10.2.2]hexadeca-1(14),2,12,15-tetraen-9-yl]-1-methyl-pyrrolidine-2-carboxamide

> <PUBCHEM_IUPAC_INCHI>
InChI=1S/C29H36N4O4/c1-19(2)26-25(32-28(35)24-10-7-17-33(24)3)29(36)31-23(18-21-8-5-4-6-9-21)27(34)30-16-15-20-11-13-22(37-26)14-12-20/h4-6,8-9,11-16,19,23-26H,7,10,17-18H2,1-3H3,(H,30,34)(H,31,36)(H,32,35)/b16-15-/t23-,24-,25-,26-/m0/s1

> <PUBCHEM_IUPAC_INCHIKEY>
IDZLSIWTJUALRQ-JKNOKTCPSA-N

> <PUBCHEM_XLOGP3_AA>
4

> <PUBCHEM_EXACT_MASS>
504.273656

> <PUBCHEM_MOLECULAR_FORMULA>
C29H36N4O4

> <PUBCHEM_MOLECULAR_WEIGHT>
504.62054

> <PUBCHEM_OPENEYE_CAN_SMILES>
CC(C)C1C(C(=O)NC(C(=O)NC=CC2=CC=C(O1)C=C2)CC3=CC=CC=C3)NC(=O)C4CCCN4C

> <PUBCHEM_OPENEYE_ISO_SMILES>
CC(C)[C@H]1[C@@H](C(=O)N[C@H](C(=O)N/C=C\C2=CC=C(O1)C=C2)CC3=CC=CC=C3)NC(=O)[C@@H]4CCCN4C

> <PUBCHEM_CACTVS_TPSA>
99.8

> <PUBCHEM_MONOISOTOPIC_WEIGHT>
504.273656

> <PUBCHEM_TOTAL_CHARGE>
0

> <PUBCHEM_HEAVY_ATOM_COUNT>
37

> <PUBCHEM_ATOM_DEF_STEREO_COUNT>
4

> <PUBCHEM_ATOM_UDEF_STEREO_COUNT>
0

> <PUBCHEM_BOND_DEF_STEREO_COUNT>
1

> <PUBCHEM_BOND_UDEF_STEREO_COUNT>
0

> <PUBCHEM_ISOTOPIC_ATOM_COUNT>
0

> <PUBCHEM_COMPONENT_COUNT>
1

> <PUBCHEM_CACTVS_TAUTO_COUNT>
18

> <PUBCHEM_COORDINATE_TYPE>
1
5
255

> <PUBCHEM_BONDANNOTATIONS>
15  16  5
21  23  5
22  26  8
22  27  8
25  31  8
25  32  8
26  29  8
27  30  8
28  29  8
28  30  8
31  35  8
32  36  8
35  37  8
36  37  8
13  6  6
9  14  5

$$$$

