440542
  -OEChem-07051212502D

 71 73  0     1  0  0  0  0  0999 V2000
    8.5991    1.3877    0.0000 S   0  0  0  0  0  0  0  0  0  0  0  0
    8.5991   -1.6123    0.0000 O   0  0  0  0  0  0  0  0  0  0  0  0
    7.7331   -4.1123    0.0000 O   0  0  0  0  0  0  0  0  0  0  0  0
    8.5991   -2.6123    0.0000 O   0  0  0  0  0  0  0  0  0  0  0  0
    7.5991    1.3877    0.0000 O   0  0  0  0  0  0  0  0  0  0  0  0
    9.5991    1.3877    0.0000 O   0  0  0  0  0  0  0  0  0  0  0  0
    6.8671   -1.6123    0.0000 N   0  0  0  0  0  0  0  0  0  0  0  0
    8.5991    0.3877    0.0000 N   0  0  0  0  0  0  0  0  0  0  0  0
   10.3591    2.3530    0.0000 N   0  0  0  0  0  0  0  0  0  0  0  0
    4.2690   -0.1123    0.0000 N   0  0  0  0  0  0  0  0  0  0  0  0
    2.5369   -0.1123    0.0000 N   0  0  0  0  0  0  0  0  0  0  0  0
    3.4030    1.3877    0.0000 N   0  0  0  0  0  0  0  0  0  0  0  0
    5.1350   -2.6123    0.0000 C   0  0  1  0  0  0  0  0  0  0  0  0
    6.0010   -3.1123    0.0000 C   0  0  0  0  0  0  0  0  0  0  0  0
    6.8671   -2.6123    0.0000 C   0  0  2  0  0  0  0  0  0  0  0  0
    5.1350   -1.6123    0.0000 C   0  0  0  0  0  0  0  0  0  0  0  0
    6.0010   -1.1123    0.0000 C   0  0  0  0  0  0  0  0  0  0  0  0
    7.7331   -0.1123    0.0000 C   0  0  3  0  0  0  0  0  0  0  0  0
    7.7331   -1.1123    0.0000 C   0  0  0  0  0  0  0  0  0  0  0  0
    4.2690   -3.1123    0.0000 C   0  0  0  0  0  0  0  0  0  0  0  0
    7.7331   -3.1123    0.0000 C   0  0  0  0  0  0  0  0  0  0  0  0
    6.8671    0.3877    0.0000 C   0  0  0  0  0  0  0  0  0  0  0  0
   11.2651    3.9085    0.0000 C   0  0  3  0  0  0  0  0  0  0  0  0
   10.3591    4.4223    0.0000 C   0  0  0  0  0  0  0  0  0  0  0  0
    9.4651    2.8877    0.0000 C   0  0  0  0  0  0  0  0  0  0  0  0
    9.4651    3.8877    0.0000 C   0  0  0  0  0  0  0  0  0  0  0  0
   11.2651    2.8668    0.0000 C   0  0  0  0  0  0  0  0  0  0  0  0
    8.5991    2.3877    0.0000 C   0  0  0  0  0  0  0  0  0  0  0  0
    6.0010   -0.1123    0.0000 C   0  0  0  0  0  0  0  0  0  0  0  0
   12.1292    4.4118    0.0000 C   0  0  0  0  0  0  0  0  0  0  0  0
    8.5991    4.3877    0.0000 C   0  0  0  0  0  0  0  0  0  0  0  0
    7.7331    2.8877    0.0000 C   0  0  0  0  0  0  0  0  0  0  0  0
    5.1350    0.3877    0.0000 C   0  0  0  0  0  0  0  0  0  0  0  0
    7.7331    3.8877    0.0000 C   0  0  0  0  0  0  0  0  0  0  0  0
    3.4030    0.3877    0.0000 C   0  0  0  0  0  0  0  0  0  0  0  0
    5.1350   -3.2323    0.0000 H   0  0  0  0  0  0  0  0  0  0  0  0
    5.6025   -3.5873    0.0000 H   0  0  0  0  0  0  0  0  0  0  0  0
    6.3996   -3.5873    0.0000 H   0  0  0  0  0  0  0  0  0  0  0  0
    7.4040   -2.3023    0.0000 H   0  0  0  0  0  0  0  0  0  0  0  0
    4.9230   -1.0297    0.0000 H   0  0  0  0  0  0  0  0  0  0  0  0
    4.5244   -1.7200    0.0000 H   0  0  0  0  0  0  0  0  0  0  0  0
    6.3996   -0.6374    0.0000 H   0  0  0  0  0  0  0  0  0  0  0  0
    5.6025   -0.6374    0.0000 H   0  0  0  0  0  0  0  0  0  0  0  0
    7.7331    0.5077    0.0000 H   0  0  0  0  0  0  0  0  0  0  0  0
    3.9590   -2.5754    0.0000 H   0  0  0  0  0  0  0  0  0  0  0  0
    3.7320   -3.4223    0.0000 H   0  0  0  0  0  0  0  0  0  0  0  0
    4.5790   -3.6493    0.0000 H   0  0  0  0  0  0  0  0  0  0  0  0
    7.2656    0.8626    0.0000 H   0  0  0  0  0  0  0  0  0  0  0  0
    6.4685    0.8626    0.0000 H   0  0  0  0  0  0  0  0  0  0  0  0
   11.8027    3.5995    0.0000 H   0  0  0  0  0  0  0  0  0  0  0  0
    9.1360    0.0777    0.0000 H   0  0  0  0  0  0  0  0  0  0  0  0
   10.7527    4.9014    0.0000 H   0  0  0  0  0  0  0  0  0  0  0  0
    9.9545    4.8921    0.0000 H   0  0  0  0  0  0  0  0  0  0  0  0
   11.4742    2.2832    0.0000 H   0  0  0  0  0  0  0  0  0  0  0  0
   11.8760    2.9730    0.0000 H   0  0  0  0  0  0  0  0  0  0  0  0
    5.6025   -0.5873    0.0000 H   0  0  0  0  0  0  0  0  0  0  0  0
    6.3996   -0.5873    0.0000 H   0  0  0  0  0  0  0  0  0  0  0  0
   10.3519    1.7330    0.0000 H   0  0  0  0  0  0  0  0  0  0  0  0
   12.4413    3.8761    0.0000 H   0  0  0  0  0  0  0  0  0  0  0  0
   12.6650    4.7239    0.0000 H   0  0  0  0  0  0  0  0  0  0  0  0
   11.8172    4.9476    0.0000 H   0  0  0  0  0  0  0  0  0  0  0  0
    8.5991    5.0077    0.0000 H   0  0  0  0  0  0  0  0  0  0  0  0
    7.1962    2.5777    0.0000 H   0  0  0  0  0  0  0  0  0  0  0  0
    5.5335    0.8626    0.0000 H   0  0  0  0  0  0  0  0  0  0  0  0
    4.7365    0.8626    0.0000 H   0  0  0  0  0  0  0  0  0  0  0  0
    7.1962    4.1977    0.0000 H   0  0  0  0  0  0  0  0  0  0  0  0
    8.2700   -4.4223    0.0000 H   0  0  0  0  0  0  0  0  0  0  0  0
    2.8660    1.6977    0.0000 H   0  0  0  0  0  0  0  0  0  0  0  0
    3.9399    1.6977    0.0000 H   0  0  0  0  0  0  0  0  0  0  0  0
    2.0000    0.1977    0.0000 H   0  0  0  0  0  0  0  0  0  0  0  0
    2.5369   -0.7323    0.0000 H   0  0  0  0  0  0  0  0  0  0  0  0
  1  5  2  0  0  0  0
  1  6  2  0  0  0  0
  1  8  1  0  0  0  0
  1 28  1  0  0  0  0
  2 19  2  0  0  0  0
  3 21  1  0  0  0  0
  3 67  1  0  0  0  0
  4 21  2  0  0  0  0
  7 15  1  0  0  0  0
  7 17  1  0  0  0  0
  7 19  1  0  0  0  0
  8 18  1  0  0  0  0
  8 51  1  0  0  0  0
  9 25  1  0  0  0  0
  9 27  1  0  0  0  0
  9 58  1  0  0  0  0
 10 33  1  0  0  0  0
 10 35  2  0  0  0  0
 11 35  1  0  0  0  0
 11 70  1  0  0  0  0
 11 71  1  0  0  0  0
 12 35  1  0  0  0  0
 12 68  1  0  0  0  0
 12 69  1  0  0  0  0
 13 14  1  0  0  0  0
 13 16  1  0  0  0  0
 13 20  1  6  0  0  0
 13 36  1  0  0  0  0
 14 15  1  0  0  0  0
 14 37  1  0  0  0  0
 14 38  1  0  0  0  0
 15 21  1  1  0  0  0
 15 39  1  0  0  0  0
 16 17  1  0  0  0  0
 16 40  1  0  0  0  0
 16 41  1  0  0  0  0
 17 42  1  0  0  0  0
 17 43  1  0  0  0  0
 18 19  1  0  0  0  0
 18 22  1  0  0  0  0
 18 44  1  0  0  0  0
 20 45  1  0  0  0  0
 20 46  1  0  0  0  0
 20 47  1  0  0  0  0
 22 29  1  0  0  0  0
 22 48  1  0  0  0  0
 22 49  1  0  0  0  0
 23 24  1  0  0  0  0
 23 27  1  0  0  0  0
 23 30  1  0  0  0  0
 23 50  1  0  0  0  0
 24 26  1  0  0  0  0
 24 52  1  0  0  0  0
 24 53  1  0  0  0  0
 25 26  2  0  0  0  0
 25 28  1  0  0  0  0
 26 31  1  0  0  0  0
 27 54  1  0  0  0  0
 27 55  1  0  0  0  0
 28 32  2  0  0  0  0
 29 33  1  0  0  0  0
 29 56  1  0  0  0  0
 29 57  1  0  0  0  0
 30 59  1  0  0  0  0
 30 60  1  0  0  0  0
 30 61  1  0  0  0  0
 31 34  2  0  0  0  0
 31 62  1  0  0  0  0
 32 34  1  0  0  0  0
 32 63  1  0  0  0  0
 33 64  1  0  0  0  0
 33 65  1  0  0  0  0
 34 66  1  0  0  0  0
M  END
> <PUBCHEM_COMPOUND_CID>
440542

> <PUBCHEM_COMPOUND_CANONICALIZED>
1

> <PUBCHEM_CACTVS_COMPLEXITY>
887

> <PUBCHEM_CACTVS_HBOND_ACCEPTOR>
8

> <PUBCHEM_CACTVS_HBOND_DONOR>
5

> <PUBCHEM_CACTVS_ROTATABLE_BOND>
9

> <PUBCHEM_CACTVS_SUBSKEYS>
AAADcfB7uABAAAAAAAAAAAAAAAAAAAAAAAA8WIAAAAAAAACxAAAAHgQQSAAADSjB2AQzyYPAAgKoAiXSfHDCABEhAAAIiJ2IRIgKYDLAkbGUYAhklgDYyAeYycAOAAAAgAACAQAAAAEAAAQCAAAAAAAAAA==

> <PUBCHEM_IUPAC_OPENEYE_NAME>
(2R,4R)-1-[5-guanidino-2-[(3-methyl-1,2,3,4-tetrahydroquinolin-8-yl)sulfonylamino]pentanoyl]-4-methyl-piperidine-2-carboxylic acid

> <PUBCHEM_IUPAC_CAS_NAME>
(2R,4R)-1-[5-(diaminomethylideneamino)-2-[(3-methyl-1,2,3,4-tetrahydroquinolin-8-yl)sulfonylamino]-1-oxopentyl]-4-methyl-2-piperidinecarboxylic acid

> <PUBCHEM_IUPAC_NAME>
(2R,4R)-1-[5-(diaminomethylideneamino)-2-[(3-methyl-1,2,3,4-tetrahydroquinolin-8-yl)sulfonylamino]pentanoyl]-4-methylpiperidine-2-carboxylic acid

> <PUBCHEM_IUPAC_SYSTEMATIC_NAME>
(2R,4R)-1-[5-[bis(azanyl)methylideneamino]-2-[(3-methyl-1,2,3,4-tetrahydroquinolin-8-yl)sulfonylamino]pentanoyl]-4-methyl-piperidine-2-carboxylic acid

> <PUBCHEM_IUPAC_TRADITIONAL_NAME>
(2R,4R)-1-[5-guanidino-2-[(3-methyl-1,2,3,4-tetrahydroquinolin-8-yl)sulfonylamino]pentanoyl]-4-methyl-pipecolinic acid

> <PUBCHEM_IUPAC_INCHI>
InChI=1S/C23H36N6O5S/c1-14-8-10-29(18(12-14)22(31)32)21(30)17(6-4-9-26-23(24)25)28-35(33,34)19-7-3-5-16-11-15(2)13-27-20(16)19/h3,5,7,14-15,17-18,27-28H,4,6,8-13H2,1-2H3,(H,31,32)(H4,24,25,26)/t14-,15?,17?,18-/m1/s1

> <PUBCHEM_IUPAC_INCHIKEY>
KXNPVXPOPUZYGB-VSVYTNTFSA-N

> <PUBCHEM_XLOGP3_AA>
1.3

> <PUBCHEM_EXACT_MASS>
508.246789

> <PUBCHEM_MOLECULAR_FORMULA>
C23H36N6O5S

> <PUBCHEM_MOLECULAR_WEIGHT>
508.63414

> <PUBCHEM_OPENEYE_CAN_SMILES>
CC1CCN(C(C1)C(=O)O)C(=O)C(CCCN=C(N)N)NS(=O)(=O)C2=CC=CC3=C2NCC(C3)C

> <PUBCHEM_OPENEYE_ISO_SMILES>
C[C@@H]1CCN([C@H](C1)C(=O)O)C(=O)C(CCCN=C(N)N)NS(=O)(=O)C2=CC=CC3=C2NCC(C3)C

> <PUBCHEM_CACTVS_TPSA>
189

> <PUBCHEM_MONOISOTOPIC_WEIGHT>
508.246789

> <PUBCHEM_TOTAL_CHARGE>
0

> <PUBCHEM_HEAVY_ATOM_COUNT>
35

> <PUBCHEM_ATOM_DEF_STEREO_COUNT>
2

> <PUBCHEM_ATOM_UDEF_STEREO_COUNT>
2

> <PUBCHEM_BOND_DEF_STEREO_COUNT>
0

> <PUBCHEM_BOND_UDEF_STEREO_COUNT>
0

> <PUBCHEM_ISOTOPIC_ATOM_COUNT>
0

> <PUBCHEM_COMPONENT_COUNT>
1

> <PUBCHEM_CACTVS_TAUTO_COUNT>
2

> <PUBCHEM_COORDINATE_TYPE>
1
5
255

> <PUBCHEM_BONDANNOTATIONS>
13  20  6
15  21  5
18  22  3
23  30  3
25  26  8
25  28  8
26  31  8
28  32  8
31  34  8
32  34  8

$$$$

