5479539
  -OEChem-07051213012D

 57 61  0     1  0  0  0  0  0999 V2000
    7.2031   -1.7055    0.0000 S   0  0  0  0  0  0  0  0  0  0  0  0
    4.3222    4.2260    0.0000 S   0  0  0  0  0  0  0  0  0  0  0  0
    7.8294    1.6351    0.0000 O   0  0  0  0  0  0  0  0  0  0  0  0
    9.8012    0.7945    0.0000 O   0  5  0  0  0  0  0  0  0  0  0  0
   10.6672   -0.7055    0.0000 O   0  0  0  0  0  0  0  0  0  0  0  0
    6.1737    2.0964    0.0000 O   0  0  0  0  0  0  0  0  0  0  0  0
    4.0568   -0.0293    0.0000 O   0  0  0  0  0  0  0  0  0  0  0  0
    8.0691   -0.2055    0.0000 N   0  0  0  0  0  0  0  0  0  0  0  0
    9.8012   -3.2055    0.0000 N   0  3  0  0  0  0  0  0  0  0  0  0
    5.7289    0.4224    0.0000 N   0  0  0  0  0  0  0  0  0  0  0  0
    3.7960    0.9361    0.0000 N   0  0  0  0  0  0  0  0  0  0  0  0
    3.3065    2.9665    0.0000 N   0  0  0  0  0  0  0  0  0  0  0  0
    2.5784    4.5930    0.0000 N   0  0  0  0  0  0  0  0  0  0  0  0
    7.2031   -0.7055    0.0000 C   0  0  1  0  0  0  0  0  0  0  0  0
    6.6954    0.1656    0.0000 C   0  0  1  0  0  0  0  0  0  0  0  0
    7.5686    0.6697    0.0000 C   0  0  0  0  0  0  0  0  0  0  0  0
    8.9351   -1.7055    0.0000 C   0  0  0  0  0  0  0  0  0  0  0  0
    8.9351   -0.7055    0.0000 C   0  0  0  0  0  0  0  0  0  0  0  0
    8.0691   -2.2055    0.0000 C   0  0  0  0  0  0  0  0  0  0  0  0
    9.8012   -2.2055    0.0000 C   0  0  0  0  0  0  0  0  0  0  0  0
   10.6672   -3.7055    0.0000 C   0  0  0  0  0  0  0  0  0  0  0  0
   11.6134   -3.4008    0.0000 C   0  0  0  0  0  0  0  0  0  0  0  0
   10.6672   -4.7055    0.0000 C   0  0  0  0  0  0  0  0  0  0  0  0
   12.1970   -4.2055    0.0000 C   0  0  0  0  0  0  0  0  0  0  0  0
   11.6134   -5.0102    0.0000 C   0  0  0  0  0  0  0  0  0  0  0  0
    8.9351   -3.7055    0.0000 C   0  0  0  0  0  0  0  0  0  0  0  0
    9.8012   -0.2055    0.0000 C   0  0  0  0  0  0  0  0  0  0  0  0
    9.8012   -5.2055    0.0000 C   0  0  0  0  0  0  0  0  0  0  0  0
    5.4681    1.3878    0.0000 C   0  0  0  0  0  0  0  0  0  0  0  0
    8.9351   -4.7055    0.0000 C   0  0  0  0  0  0  0  0  0  0  0  0
    4.5016    1.6447    0.0000 C   0  0  0  0  0  0  0  0  0  0  0  0
    4.2408    2.6101    0.0000 C   0  0  0  0  0  0  0  0  0  0  0  0
    4.8686    3.3885    0.0000 C   0  0  0  0  0  0  0  0  0  0  0  0
    3.3568    3.9652    0.0000 C   0  0  0  0  0  0  0  0  0  0  0  0
    3.3511   -0.7378    0.0000 C   0  0  0  0  0  0  0  0  0  0  0  0
    6.3825   -0.9272    0.0000 H   0  0  0  0  0  0  0  0  0  0  0  0
    6.6138    0.7802    0.0000 H   0  0  0  0  0  0  0  0  0  0  0  0
    7.6706   -2.6805    0.0000 H   0  0  0  0  0  0  0  0  0  0  0  0
    8.4676   -2.6805    0.0000 H   0  0  0  0  0  0  0  0  0  0  0  0
   10.4117   -2.3132    0.0000 H   0  0  0  0  0  0  0  0  0  0  0  0
   10.0132   -1.6229    0.0000 H   0  0  0  0  0  0  0  0  0  0  0  0
   12.1508   -3.0916    0.0000 H   0  0  0  0  0  0  0  0  0  0  0  0
   11.3624   -2.8339    0.0000 H   0  0  0  0  0  0  0  0  0  0  0  0
    5.2914   -0.0169    0.0000 H   0  0  0  0  0  0  0  0  0  0  0  0
   12.6579   -4.6203    0.0000 H   0  0  0  0  0  0  0  0  0  0  0  0
   12.6579   -3.7908    0.0000 H   0  0  0  0  0  0  0  0  0  0  0  0
   11.3624   -5.5772    0.0000 H   0  0  0  0  0  0  0  0  0  0  0  0
   12.1508   -5.3195    0.0000 H   0  0  0  0  0  0  0  0  0  0  0  0
    8.3982   -3.3955    0.0000 H   0  0  0  0  0  0  0  0  0  0  0  0
    9.8012   -5.8255    0.0000 H   0  0  0  0  0  0  0  0  0  0  0  0
    8.3982   -5.0155    0.0000 H   0  0  0  0  0  0  0  0  0  0  0  0
    5.4878    3.3573    0.0000 H   0  0  0  0  0  0  0  0  0  0  0  0
    2.9118   -0.3003    0.0000 H   0  0  0  0  0  0  0  0  0  0  0  0
    2.9136   -1.1772    0.0000 H   0  0  0  0  0  0  0  0  0  0  0  0
    3.7904   -1.1753    0.0000 H   0  0  0  0  0  0  0  0  0  0  0  0
    2.6741    5.2055    0.0000 H   0  0  0  0  0  0  0  0  0  0  0  0
    2.0000    4.3696    0.0000 H   0  0  0  0  0  0  0  0  0  0  0  0
  1 14  1  0  0  0  0
  1 19  1  0  0  0  0
  2 33  1  0  0  0  0
  2 34  1  0  0  0  0
  3 16  2  0  0  0  0
  4 27  1  0  0  0  0
  5 27  2  0  0  0  0
  6 29  2  0  0  0  0
  7 11  1  0  0  0  0
  7 35  1  0  0  0  0
  8 14  1  0  0  0  0
  8 16  1  0  0  0  0
  8 18  1  0  0  0  0
  9 20  1  0  0  0  0
  9 21  1  0  0  0  0
  9 26  2  0  0  0  0
 15 10  1  6  0  0  0
 10 29  1  0  0  0  0
 10 44  1  0  0  0  0
 11 31  2  0  0  0  0
 12 32  1  0  0  0  0
 12 34  2  0  0  0  0
 13 34  1  0  0  0  0
 13 56  1  0  0  0  0
 13 57  1  0  0  0  0
 14 15  1  0  0  0  0
 14 36  1  1  0  0  0
 15 16  1  0  0  0  0
 15 37  1  0  0  0  0
 17 18  2  0  0  0  0
 17 19  1  0  0  0  0
 17 20  1  0  0  0  0
 18 27  1  0  0  0  0
 19 38  1  0  0  0  0
 19 39  1  0  0  0  0
 20 40  1  0  0  0  0
 20 41  1  0  0  0  0
 21 22  1  0  0  0  0
 21 23  2  0  0  0  0
 22 24  1  0  0  0  0
 22 42  1  0  0  0  0
 22 43  1  0  0  0  0
 23 25  1  0  0  0  0
 23 28  1  0  0  0  0
 24 25  1  0  0  0  0
 24 45  1  0  0  0  0
 24 46  1  0  0  0  0
 25 47  1  0  0  0  0
 25 48  1  0  0  0  0
 26 30  1  0  0  0  0
 26 49  1  0  0  0  0
 28 30  2  0  0  0  0
 28 50  1  0  0  0  0
 29 31  1  0  0  0  0
 30 51  1  0  0  0  0
 31 32  1  0  0  0  0
 32 33  2  0  0  0  0
 33 52  1  0  0  0  0
 35 53  1  0  0  0  0
 35 54  1  0  0  0  0
 35 55  1  0  0  0  0
M  CHG  2   4  -1   9   1
M  END
> <PUBCHEM_COMPOUND_CID>
5479539

> <PUBCHEM_COMPOUND_CANONICALIZED>
1

> <PUBCHEM_CACTVS_COMPLEXITY>
955

> <PUBCHEM_CACTVS_HBOND_ACCEPTOR>
10

> <PUBCHEM_CACTVS_HBOND_DONOR>
2

> <PUBCHEM_CACTVS_ROTATABLE_BOND>
6

> <PUBCHEM_CACTVS_SUBSKEYS>
AAADceB7uABgAAAAAAAAAAAAAABYAeIAAAAsQAAAAAAQAFgB4AAAHgQUAAAADCjF3ga/mZPcEAisAzX3fACC8KlxCjkI2LW4ZNiKZPrg1bGUMAhglgL4yScQgIAOAAAAAAAAAAAAAAAAAAAAAAAAAQAAAA==

> <PUBCHEM_IUPAC_OPENEYE_NAME>
(6R,7R)-7-[[(2Z)-2-(2-aminothiazol-4-yl)-2-methoxyimino-acetyl]amino]-3-(6,7-dihydro-5H-cyclopenta[b]pyridin-1-ium-1-ylmethyl)-8-oxo-5-thia-1-azabicyclo[4.2.0]oct-2-ene-2-carboxylate

> <PUBCHEM_IUPAC_CAS_NAME>
(6R,7R)-7-[[(2Z)-2-(2-amino-4-thiazolyl)-2-methoxyimino-1-oxoethyl]amino]-3-(6,7-dihydro-5H-cyclopenta[b]pyridin-1-ium-1-ylmethyl)-8-oxo-5-thia-1-azabicyclo[4.2.0]oct-2-ene-2-carboxylate

> <PUBCHEM_IUPAC_NAME>
(6R,7R)-7-[[(2Z)-2-(2-amino-1,3-thiazol-4-yl)-2-methoxyiminoacetyl]amino]-3-(6,7-dihydro-5H-cyclopenta[b]pyridin-1-ium-1-ylmethyl)-8-oxo-5-thia-1-azabicyclo[4.2.0]oct-2-ene-2-carboxylate

> <PUBCHEM_IUPAC_SYSTEMATIC_NAME>
(6R,7R)-7-[[(2Z)-2-(2-azanyl-1,3-thiazol-4-yl)-2-methoxyimino-ethanoyl]amino]-3-(6,7-dihydro-5H-cyclopenta[b]pyridin-1-ium-1-ylmethyl)-8-oxidanylidene-5-thia-1-azabicyclo[4.2.0]oct-2-ene-2-carboxylate

> <PUBCHEM_IUPAC_TRADITIONAL_NAME>
(6R,7R)-7-[[(2Z)-2-(2-aminothiazol-4-yl)-2-methyloximino-acetyl]amino]-8-keto-3-(1-pyrindan-1-ium-1-ylmethyl)-5-thia-1-azabicyclo[4.2.0]oct-2-ene-2-carboxylate

> <PUBCHEM_IUPAC_INCHI>
InChI=1S/C22H22N6O5S2/c1-33-26-15(13-10-35-22(23)24-13)18(29)25-16-19(30)28-17(21(31)32)12(9-34-20(16)28)8-27-7-3-5-11-4-2-6-14(11)27/h3,5,7,10,16,20H,2,4,6,8-9H2,1H3,(H3-,23,24,25,29,31,32)/b26-15-/t16-,20-/m1/s1

> <PUBCHEM_IUPAC_INCHIKEY>
DKOQGJHPHLTOJR-WHRDSVKCSA-N

> <PUBCHEM_XLOGP3>
0.9

> <PUBCHEM_EXACT_MASS>
514.10931

> <PUBCHEM_MOLECULAR_FORMULA>
C22H22N6O5S2

> <PUBCHEM_MOLECULAR_WEIGHT>
514.57728

> <PUBCHEM_OPENEYE_CAN_SMILES>
CON=C(C1=CSC(=N1)N)C(=O)NC2C3N(C2=O)C(=C(CS3)C[N+]4=CC=CC5=C4CCC5)C(=O)[O-]

> <PUBCHEM_OPENEYE_ISO_SMILES>
CO/N=C(/C1=CSC(=N1)N)\C(=O)N[C@H]2[C@@H]3N(C2=O)C(=C(CS3)C[N+]4=CC=CC5=C4CCC5)C(=O)[O-]

> <PUBCHEM_CACTVS_TPSA>
208

> <PUBCHEM_MONOISOTOPIC_WEIGHT>
514.10931

> <PUBCHEM_TOTAL_CHARGE>
0

> <PUBCHEM_HEAVY_ATOM_COUNT>
35

> <PUBCHEM_ATOM_DEF_STEREO_COUNT>
2

> <PUBCHEM_ATOM_UDEF_STEREO_COUNT>
0

> <PUBCHEM_BOND_DEF_STEREO_COUNT>
1

> <PUBCHEM_BOND_UDEF_STEREO_COUNT>
0

> <PUBCHEM_ISOTOPIC_ATOM_COUNT>
0

> <PUBCHEM_COMPONENT_COUNT>
1

> <PUBCHEM_CACTVS_TAUTO_COUNT>
14

> <PUBCHEM_COORDINATE_TYPE>
1
5
255

> <PUBCHEM_BONDANNOTATIONS>
15  10  6
12  32  8
12  34  8
14  36  5
2  33  8
2  34  8
21  23  8
23  28  8
26  30  8
28  30  8
32  33  8
9  21  8
9  26  8

$$$$

