   Color/Form
        Yellow to pale reddish-brown liquid
   from [1]HSDB

   Odor
        Aromatic odor
   from [2]HSDB

   Boiling Point
        256-270 deg C @ 760 mm Hg
   from [3]HSDB

   Density/Specific Gravity
        1.052-1.060 @ 25 deg C/25 deg C
   from [4]HSDB

   Solubilities

     * Practically insol in water; miscible with alcohol, chloroform,
       ether, glacial acetic acid
     * SOL IN BENZENE
     * PRACTICALLY INSOL IN GLYCEROL; SLIGHTLY SOL IN ETHYLENE GLYCOL,
       REFINED PETROLEUM OILS

   from [5]HSDB

   Spectral Properties

     * Index of refraction: 1.4745-1.4755 @ 25 deg C/D
     * MAX ABSORPTION (ALCOHOL): 283 NM (LOG E= 4.00)

   from [6]HSDB

   Other Chemical/Physical Properties
        Exists largely as the dihydropyrone in equilibrium with the open
   chain enol form
   from [7]HSDB

   Computed Properties
   Molecular Weight                  226.26892 [g/mol]
   Molecular Formula                 C[12]H[18]O[4]
   XLogP3-AA                         1.9
   H-Bond Donor                      0
   H-Bond Acceptor                   4
   Rotatable Bond Count              5
   Tautomer Count                    2
   Exact Mass                        226.120509
   MonoIsotopic Mass                 226.120509
   Topological Polar Surface Area    52.6
   Heavy Atom Count                  16
   Formal Charge                     0
   Complexity                        315
   Isotope Atom Count                0
   Defined Atom Stereocenter Count   0
   Undefined Atom Stereocenter Count 0
   Defined Bond Stereocenter Count   0
   Undefined Bond Stereocenter Count 0
   Covalently-Bonded Unit Count      1
   Feature 3D Acceptor Count         3
   Feature 3D Hydrophobe Count       2
   Feature 3D Ring Count             1
   Effective Rotor Count             5.6
   Conformer Sampling RMSD           0.8
   CID Conformer Count               [8]59

References

   1. http://toxnet.nlm.nih.gov/cgi-bin/sis/search/r?dbs+hsdb:@term+@rn+@rel+532-34-3
   2. http://toxnet.nlm.nih.gov/cgi-bin/sis/search/r?dbs+hsdb:@term+@rn+@rel+532-34-3
   3. http://toxnet.nlm.nih.gov/cgi-bin/sis/search/r?dbs+hsdb:@term+@rn+@rel+532-34-3
   4. http://toxnet.nlm.nih.gov/cgi-bin/sis/search/r?dbs+hsdb:@term+@rn+@rel+532-34-3
   5. http://toxnet.nlm.nih.gov/cgi-bin/sis/search/r?dbs+hsdb:@term+@rn+@rel+532-34-3
   6. http://toxnet.nlm.nih.gov/cgi-bin/sis/search/r?dbs+hsdb:@term+@rn+@rel+532-34-3
   7. http://toxnet.nlm.nih.gov/cgi-bin/sis/search/r?dbs+hsdb:@term+@rn+@rel+532-34-3
   8. http://pubchem.ncbi.nlm.nih.gov/vw3d/vw3d.cgi?cid=10760
