10243936
  -OEChem-07051213102D

 42 42  0     1  0  0  0  0  0999 V2000
    5.1350    2.5950    0.0000 O   0  0  0  0  0  0  0  0  0  0  0  0
    6.8671    1.5950    0.0000 O   0  0  0  0  0  0  0  0  0  0  0  0
    2.5369   -2.9050    0.0000 O   0  0  0  0  0  0  0  0  0  0  0  0
    4.2690    1.0950    0.0000 C   0  0  2  0  0  0  0  0  0  0  0  0
    5.1350    1.5950    0.0000 C   0  0  2  0  0  0  0  0  0  0  0  0
    3.4030    1.5950    0.0000 C   0  0  0  0  0  0  0  0  0  0  0  0
    4.2690    0.0950    0.0000 C   0  0  0  0  0  0  0  0  0  0  0  0
    6.0010    1.0950    0.0000 C   0  0  1  0  0  0  0  0  0  0  0  0
    3.4030   -0.4050    0.0000 C   0  0  0  0  0  0  0  0  0  0  0  0
    2.5369    1.0950    0.0000 C   0  0  0  0  0  0  0  0  0  0  0  0
    3.4030    2.5950    0.0000 C   0  0  0  0  0  0  0  0  0  0  0  0
    6.0010    0.0950    0.0000 C   0  0  0  0  0  0  0  0  0  0  0  0
    5.1350   -0.4050    0.0000 C   0  0  0  0  0  0  0  0  0  0  0  0
    3.4030   -1.4050    0.0000 C   0  0  0  0  0  0  0  0  0  0  0  0
    5.1350   -1.4050    0.0000 C   0  0  0  0  0  0  0  0  0  0  0  0
    4.2690   -1.9050    0.0000 C   0  0  0  0  0  0  0  0  0  0  0  0
    6.8671   -0.4050    0.0000 C   0  0  0  0  0  0  0  0  0  0  0  0
    2.5369   -1.9050    0.0000 C   0  0  0  0  0  0  0  0  0  0  0  0
    3.7320    0.7850    0.0000 H   0  0  0  0  0  0  0  0  0  0  0  0
    5.6720    1.9050    0.0000 H   0  0  0  0  0  0  0  0  0  0  0  0
    3.4030    0.9750    0.0000 H   0  0  0  0  0  0  0  0  0  0  0  0
    4.4810   -0.4876    0.0000 H   0  0  0  0  0  0  0  0  0  0  0  0
    4.8796    0.2027    0.0000 H   0  0  0  0  0  0  0  0  0  0  0  0
    6.5380    0.7850    0.0000 H   0  0  0  0  0  0  0  0  0  0  0  0
    3.1909    0.1776    0.0000 H   0  0  0  0  0  0  0  0  0  0  0  0
    2.7924   -0.5127    0.0000 H   0  0  0  0  0  0  0  0  0  0  0  0
    4.0230    2.5950    0.0000 H   0  0  0  0  0  0  0  0  0  0  0  0
    2.2269    1.6319    0.0000 H   0  0  0  0  0  0  0  0  0  0  0  0
    3.4030    3.2150    0.0000 H   0  0  0  0  0  0  0  0  0  0  0  0
    2.7830    2.5950    0.0000 H   0  0  0  0  0  0  0  0  0  0  0  0
    2.0000    0.7850    0.0000 H   0  0  0  0  0  0  0  0  0  0  0  0
    2.8469    0.5581    0.0000 H   0  0  0  0  0  0  0  0  0  0  0  0
    4.9230    0.1776    0.0000 H   0  0  0  0  0  0  0  0  0  0  0  0
    4.5244   -0.5127    0.0000 H   0  0  0  0  0  0  0  0  0  0  0  0
    5.6720    2.9050    0.0000 H   0  0  0  0  0  0  0  0  0  0  0  0
    5.3471   -1.9876    0.0000 H   0  0  0  0  0  0  0  0  0  0  0  0
    5.7456   -1.2973    0.0000 H   0  0  0  0  0  0  0  0  0  0  0  0
    4.2690   -2.5250    0.0000 H   0  0  0  0  0  0  0  0  0  0  0  0
    7.4040    1.2850    0.0000 H   0  0  0  0  0  0  0  0  0  0  0  0
    6.8671   -1.0250    0.0000 H   0  0  0  0  0  0  0  0  0  0  0  0
    7.4040   -0.0950    0.0000 H   0  0  0  0  0  0  0  0  0  0  0  0
    2.0000   -1.5950    0.0000 H   0  0  0  0  0  0  0  0  0  0  0  0
  5  1  1  1  0  0  0
  1 35  1  0  0  0  0
  8  2  1  6  0  0  0
  2 39  1  0  0  0  0
  3 18  2  0  0  0  0
  4  5  1  0  0  0  0
  4  6  1  1  0  0  0
  4  7  1  0  0  0  0
  4 19  1  0  0  0  0
  5  8  1  0  0  0  0
  5 20  1  0  0  0  0
  6 10  1  0  0  0  0
  6 11  1  0  0  0  0
  6 21  1  0  0  0  0
  7  9  1  0  0  0  0
  7 22  1  0  0  0  0
  7 23  1  0  0  0  0
  8 12  1  0  0  0  0
  8 24  1  0  0  0  0
  9 14  1  0  0  0  0
  9 25  1  0  0  0  0
  9 26  1  0  0  0  0
 10 28  1  0  0  0  0
 10 31  1  0  0  0  0
 10 32  1  0  0  0  0
 11 27  1  0  0  0  0
 11 29  1  0  0  0  0
 11 30  1  0  0  0  0
 12 13  1  0  0  0  0
 12 17  2  0  0  0  0
 13 15  1  0  0  0  0
 13 33  1  0  0  0  0
 13 34  1  0  0  0  0
 14 16  2  0  0  0  0
 14 18  1  0  0  0  0
 15 16  1  0  0  0  0
 15 36  1  0  0  0  0
 15 37  1  0  0  0  0
 16 38  1  0  0  0  0
 17 40  1  0  0  0  0
 17 41  1  0  0  0  0
 18 42  1  0  0  0  0
M  END
> <PUBCHEM_COMPOUND_CID>
10243936

> <PUBCHEM_COMPOUND_CANONICALIZED>
1

> <PUBCHEM_CACTVS_COMPLEXITY>
331

> <PUBCHEM_CACTVS_HBOND_ACCEPTOR>
3

> <PUBCHEM_CACTVS_HBOND_DONOR>
2

> <PUBCHEM_CACTVS_ROTATABLE_BOND>
2

> <PUBCHEM_CACTVS_SUBSKEYS>
AAADceBwMAAAAAAAAAAAAAAAAAAAAAAAAAAAAAAAAAAAAACAAAAAGgAACAAADRSggAICAAAAAgCIAihSgAAAAAAgAAAACAEAAEgBFBIAAQAAQAAEwAAJEYOIyOCOgAAAAAAAAAAAAAAAAAAAAAAAAAAAAA==

> <PUBCHEM_IUPAC_OPENEYE_NAME>
(1E,6R,7R,8S)-6,7-dihydroxy-8-isopropyl-5-methylene-cyclodecene-1-carbaldehyde

> <PUBCHEM_IUPAC_CAS_NAME>
(1E,6R,7R,8S)-6,7-dihydroxy-5-methylene-8-propan-2-yl-1-cyclodecenecarboxaldehyde

> <PUBCHEM_IUPAC_NAME>
(1E,6R,7R,8S)-6,7-dihydroxy-5-methylidene-8-propan-2-ylcyclodecene-1-carbaldehyde

> <PUBCHEM_IUPAC_SYSTEMATIC_NAME>
(1E,6R,7R,8S)-5-methylidene-6,7-bis(oxidanyl)-8-propan-2-yl-cyclodecene-1-carbaldehyde

> <PUBCHEM_IUPAC_TRADITIONAL_NAME>
(1E,6R,7R,8S)-6,7-dihydroxy-8-isopropyl-5-methylene-cyclodecene-1-carbaldehyde

> <PUBCHEM_IUPAC_INCHI>
InChI=1S/C15H24O3/c1-10(2)13-8-7-12(9-16)6-4-5-11(3)14(17)15(13)18/h6,9-10,13-15,17-18H,3-5,7-8H2,1-2H3/b12-6+/t13-,14+,15+/m0/s1

> <PUBCHEM_IUPAC_INCHIKEY>
PCRVESNDQGVHLI-AZTPNKIGSA-N

> <PUBCHEM_XLOGP3_AA>
1.8

> <PUBCHEM_EXACT_MASS>
252.172545

> <PUBCHEM_MOLECULAR_FORMULA>
C15H24O3

> <PUBCHEM_MOLECULAR_WEIGHT>
252.34926

> <PUBCHEM_OPENEYE_CAN_SMILES>
CC(C)C1CCC(=CCCC(=C)C(C1O)O)C=O

> <PUBCHEM_OPENEYE_ISO_SMILES>
CC(C)[C@@H]1CC/C(=C\CCC(=C)[C@H]([C@@H]1O)O)/C=O

> <PUBCHEM_CACTVS_TPSA>
57.5

> <PUBCHEM_MONOISOTOPIC_WEIGHT>
252.172545

> <PUBCHEM_TOTAL_CHARGE>
0

> <PUBCHEM_HEAVY_ATOM_COUNT>
18

> <PUBCHEM_ATOM_DEF_STEREO_COUNT>
3

> <PUBCHEM_ATOM_UDEF_STEREO_COUNT>
0

> <PUBCHEM_BOND_DEF_STEREO_COUNT>
1

> <PUBCHEM_BOND_UDEF_STEREO_COUNT>
0

> <PUBCHEM_ISOTOPIC_ATOM_COUNT>
0

> <PUBCHEM_COMPONENT_COUNT>
1

> <PUBCHEM_CACTVS_TAUTO_COUNT>
1

> <PUBCHEM_COORDINATE_TYPE>
1
5
255

> <PUBCHEM_BONDANNOTATIONS>
5  1  5
8  2  6
4  6  5

$$$$

