   Color/Form

     * NEEDLES
     * COLORLESS OR YELLOWISH, THICK LIQUID

   from [1]HSDB

   Odor

     * THYMOL ODOR
     * MEDICINAL SMOKE ODOR

   from [2]HSDB

   Taste
        EXCELLENT SMOKE TASTE, @ 1-5 PPM
   from [3]HSDB

   Boiling Point
        237-238 DEG C @ 760 MM HG
   from [4]HSDB

   Melting Point
        1 DEG C
   from [5]HSDB

   Density/Specific Gravity
        0.976 @ 20 DEG C/4 DEG C
   from [6]HSDB

   Solubilities
        SLIGHTLY SOL IN WATER; SOL IN ETHANOL, ETHER, ALKALIS; VERY
   SOLUBLE IN ACETONE
   from [7]HSDB

   Spectral Properties

     * INDEX OF REFRACTION: 1.5230 @ 20 DEG C/D; MAX ABSORPTION (ALCOHOL):
       277.5 NM (LOG E= 3.26); SADTLER REFERENCE NUMBER: 2470 (IR, PRISM)
     * IR: 325 (Sadtler Research Laboratories IR Grating Collection)
     * UV: 653 (Sadtler Research Laboratories Spectral Collection)
     * NMR: 684 (Sadtler Research Laboratories Spectral Collection)
     * MASS: 895 (Atlas of Mass Spectral Data, John Wiley & Sons, New
       York)
     * MASS: 106 (Aldermaston, Eight Peak Index of Mass Spectra, UK)

   from [8]HSDB

   Other Chemical/Physical Properties

     * SOLIDIFICATION ABOUT 0 DEG C
     * IR: 2471 (Sadtler Research Laboratories Prism Collection)
       /o-Cresol, 4-isopropyl/
     * IR: 3528 (Documentation of Molecular Spectroscopy Collection)
       /o-Cresol, 6-isopropyl/
     * UV: 6-304 (Organic Electronic Spectral Data, Phillips et al, John
       Wiley & Sons, New York) /o-Cresol, 6-isopropyl/

   from [9]HSDB

   Computed Properties
   Molecular Weight                  150.21756 [g/mol]
   Molecular Formula                 C[10]H[14]O
   XLogP3                            3.1
   H-Bond Donor                      1
   H-Bond Acceptor                   1
   Rotatable Bond Count              1
   Tautomer Count                    9
   Exact Mass                        150.104465
   MonoIsotopic Mass                 150.104465
   Topological Polar Surface Area    20.2
   Heavy Atom Count                  11
   Formal Charge                     0
   Complexity                        120
   Isotope Atom Count                0
   Defined Atom Stereocenter Count   0
   Undefined Atom Stereocenter Count 0
   Defined Bond Stereocenter Count   0
   Undefined Bond Stereocenter Count 0
   Covalently-Bonded Unit Count      1
   Feature 3D Donor Count            1
   Feature 3D Hydrophobe Count       1
   Feature 3D Ring Count             1
   Effective Rotor Count             1
   Conformer Sampling RMSD           0.4
   CID Conformer Count               [10]3

References

   1. http://toxnet.nlm.nih.gov/cgi-bin/sis/search/r?dbs+hsdb:@term+@rn+@rel+499-75-2
   2. http://toxnet.nlm.nih.gov/cgi-bin/sis/search/r?dbs+hsdb:@term+@rn+@rel+499-75-2
   3. http://toxnet.nlm.nih.gov/cgi-bin/sis/search/r?dbs+hsdb:@term+@rn+@rel+499-75-2
   4. http://toxnet.nlm.nih.gov/cgi-bin/sis/search/r?dbs+hsdb:@term+@rn+@rel+499-75-2
   5. http://toxnet.nlm.nih.gov/cgi-bin/sis/search/r?dbs+hsdb:@term+@rn+@rel+499-75-2
   6. http://toxnet.nlm.nih.gov/cgi-bin/sis/search/r?dbs+hsdb:@term+@rn+@rel+499-75-2
   7. http://toxnet.nlm.nih.gov/cgi-bin/sis/search/r?dbs+hsdb:@term+@rn+@rel+499-75-2
   8. http://toxnet.nlm.nih.gov/cgi-bin/sis/search/r?dbs+hsdb:@term+@rn+@rel+499-75-2
   9. http://toxnet.nlm.nih.gov/cgi-bin/sis/search/r?dbs+hsdb:@term+@rn+@rel+499-75-2
  10. http://pubchem.ncbi.nlm.nih.gov/vw3d/vw3d.cgi?cid=10364
