9046
  -OEChem-07051212542D

 59 63  0     1  0  0  0  0  0999 V2000
   10.4774    1.8849    0.0000 O   0  0  0  0  0  0  0  0  0  0  0  0
    4.4455   -2.4238    0.0000 O   0  0  0  0  0  0  0  0  0  0  0  0
    9.8385    0.6286    0.0000 C   0  0  1  0  0  0  0  0  0  0  0  0
    9.8385   -0.3714    0.0000 C   0  0  2  0  0  0  0  0  0  0  0  0
    8.9725   -0.8714    0.0000 C   0  0  1  0  0  0  0  0  0  0  0  0
   10.7848    0.9333    0.0000 C   0  0  2  0  0  0  0  0  0  0  0  0
    8.1065   -0.3714    0.0000 C   0  0  2  0  0  0  0  0  0  0  0  0
    8.9725    1.1286    0.0000 C   0  0  0  0  0  0  0  0  0  0  0  0
   10.7848   -0.6762    0.0000 C   0  0  0  0  0  0  0  0  0  0  0  0
    8.1065    0.6286    0.0000 C   0  0  0  0  0  0  0  0  0  0  0  0
   11.3684    0.1286    0.0000 C   0  0  0  0  0  0  0  0  0  0  0  0
    8.9886   -1.9130    0.0000 C   0  0  0  0  0  0  0  0  0  0  0  0
    9.8385    1.6286    0.0000 C   0  0  0  0  0  0  0  0  0  0  0  0
    7.1965   -0.8783    0.0000 C   0  0  0  0  0  0  0  0  0  0  0  0
    8.0905   -2.4407    0.0000 C   0  0  0  0  0  0  0  0  0  0  0  0
    7.1885   -1.9199    0.0000 C   0  0  0  0  0  0  0  0  0  0  0  0
   11.5948    1.5197    0.0000 C   0  0  0  0  0  0  0  0  0  0  0  0
    6.2697   -0.3142    0.0000 C   0  0  0  0  0  0  0  0  0  0  0  0
    6.2530   -2.4696    0.0000 C   0  0  0  0  0  0  0  0  0  0  0  0
    5.3218   -0.8422    0.0000 C   0  0  0  0  0  0  0  0  0  0  0  0
    5.3134   -1.9271    0.0000 C   0  0  0  0  0  0  0  0  0  0  0  0
   12.4048    2.1061    0.0000 C   0  0  0  0  0  0  0  0  0  0  0  0
    3.5814   -1.9204    0.0000 C   0  0  0  0  0  0  0  0  0  0  0  0
    3.4807   -0.9255    0.0000 C   0  0  0  0  0  0  0  0  0  0  0  0
    2.6663   -2.3237    0.0000 C   0  0  0  0  0  0  0  0  0  0  0  0
    2.0000   -1.5779    0.0000 C   0  0  0  0  0  0  0  0  0  0  0  0
    2.5033   -0.7138    0.0000 C   0  0  0  0  0  0  0  0  0  0  0  0
    9.9285   -1.2167    0.0000 H   0  0  0  0  0  0  0  0  0  0  0  0
    9.7119   -1.2908    0.0000 H   0  0  0  0  0  0  0  0  0  0  0  0
    8.8426    0.0536    0.0000 H   0  0  0  0  0  0  0  0  0  0  0  0
    9.3710    1.6035    0.0000 H   0  0  0  0  0  0  0  0  0  0  0  0
    8.5740    1.6035    0.0000 H   0  0  0  0  0  0  0  0  0  0  0  0
   10.5337   -1.2431    0.0000 H   0  0  0  0  0  0  0  0  0  0  0  0
   11.3221   -0.9854    0.0000 H   0  0  0  0  0  0  0  0  0  0  0  0
    7.8944    1.2112    0.0000 H   0  0  0  0  0  0  0  0  0  0  0  0
    7.4959    0.5209    0.0000 H   0  0  0  0  0  0  0  0  0  0  0  0
   11.8292   -0.2862    0.0000 H   0  0  0  0  0  0  0  0  0  0  0  0
   11.8292    0.5433    0.0000 H   0  0  0  0  0  0  0  0  0  0  0  0
    9.2066   -2.4934    0.0000 H   0  0  0  0  0  0  0  0  0  0  0  0
    9.5977   -1.7974    0.0000 H   0  0  0  0  0  0  0  0  0  0  0  0
   10.4585    1.6286    0.0000 H   0  0  0  0  0  0  0  0  0  0  0  0
    9.8385    2.2486    0.0000 H   0  0  0  0  0  0  0  0  0  0  0  0
    9.2185    1.6286    0.0000 H   0  0  0  0  0  0  0  0  0  0  0  0
    7.6932   -2.9167    0.0000 H   0  0  0  0  0  0  0  0  0  0  0  0
    8.4915   -2.9136    0.0000 H   0  0  0  0  0  0  0  0  0  0  0  0
   10.8931    2.3449    0.0000 H   0  0  0  0  0  0  0  0  0  0  0  0
    6.2816    0.3057    0.0000 H   0  0  0  0  0  0  0  0  0  0  0  0
    6.2554   -3.0896    0.0000 H   0  0  0  0  0  0  0  0  0  0  0  0
    4.7884   -0.5260    0.0000 H   0  0  0  0  0  0  0  0  0  0  0  0
   12.9070    2.4696    0.0000 H   0  0  0  0  0  0  0  0  0  0  0  0
    3.5465   -2.5395    0.0000 H   0  0  0  0  0  0  0  0  0  0  0  0
    2.1633   -2.6861    0.0000 H   0  0  0  0  0  0  0  0  0  0  0  0
    2.9742   -2.8618    0.0000 H   0  0  0  0  0  0  0  0  0  0  0  0
    4.1007   -0.9279    0.0000 H   0  0  0  0  0  0  0  0  0  0  0  0
    3.5479   -0.3092    0.0000 H   0  0  0  0  0  0  0  0  0  0  0  0
    1.4998   -1.2116    0.0000 H   0  0  0  0  0  0  0  0  0  0  0  0
    1.5834   -2.0371    0.0000 H   0  0  0  0  0  0  0  0  0  0  0  0
    2.6972   -0.1249    0.0000 H   0  0  0  0  0  0  0  0  0  0  0  0
    1.9379   -0.4595    0.0000 H   0  0  0  0  0  0  0  0  0  0  0  0
  6  1  1  1  0  0  0
  1 46  1  0  0  0  0
  2 21  1  0  0  0  0
  2 23  1  0  0  0  0
  3  4  1  0  0  0  0
  3  6  1  0  0  0  0
  3  8  1  0  0  0  0
  3 13  1  1  0  0  0
  4  5  1  0  0  0  0
  4  9  1  0  0  0  0
  4 28  1  6  0  0  0
  5  7  1  0  0  0  0
  5 12  1  0  0  0  0
  5 29  1  1  0  0  0
  6 11  1  0  0  0  0
  6 17  1  0  0  0  0
  7 10  1  0  0  0  0
  7 14  1  0  0  0  0
  7 30  1  6  0  0  0
  8 10  1  0  0  0  0
  8 31  1  0  0  0  0
  8 32  1  0  0  0  0
  9 11  1  0  0  0  0
  9 33  1  0  0  0  0
  9 34  1  0  0  0  0
 10 35  1  0  0  0  0
 10 36  1  0  0  0  0
 11 37  1  0  0  0  0
 11 38  1  0  0  0  0
 12 15  1  0  0  0  0
 12 39  1  0  0  0  0
 12 40  1  0  0  0  0
 13 41  1  0  0  0  0
 13 42  1  0  0  0  0
 13 43  1  0  0  0  0
 14 16  2  0  0  0  0
 14 18  1  0  0  0  0
 15 16  1  0  0  0  0
 15 44  1  0  0  0  0
 15 45  1  0  0  0  0
 16 19  1  0  0  0  0
 17 22  3  0  0  0  0
 18 20  2  0  0  0  0
 18 47  1  0  0  0  0
 19 21  2  0  0  0  0
 19 48  1  0  0  0  0
 20 21  1  0  0  0  0
 20 49  1  0  0  0  0
 22 50  1  0  0  0  0
 23 24  1  0  0  0  0
 23 25  1  0  0  0  0
 23 51  1  0  0  0  0
 24 27  1  0  0  0  0
 24 54  1  0  0  0  0
 24 55  1  0  0  0  0
 25 26  1  0  0  0  0
 25 52  1  0  0  0  0
 25 53  1  0  0  0  0
 26 27  1  0  0  0  0
 26 56  1  0  0  0  0
 26 57  1  0  0  0  0
 27 58  1  0  0  0  0
 27 59  1  0  0  0  0
M  END
> <PUBCHEM_COMPOUND_CID>
9046

> <PUBCHEM_COMPOUND_CANONICALIZED>
1

> <PUBCHEM_CACTVS_COMPLEXITY>
613

> <PUBCHEM_CACTVS_HBOND_ACCEPTOR>
2

> <PUBCHEM_CACTVS_HBOND_DONOR>
1

> <PUBCHEM_CACTVS_ROTATABLE_BOND>
3

> <PUBCHEM_CACTVS_SUBSKEYS>
AAADcfB4MAAAAAAAAAAAAAAAAAAAAYMAAAAwYMAAAAAAAGDBAAAAGgAACAAAD1SgmAIyBoAABgDAGiBCAAgCCAAgIAAIiAAGCIgMJiKEMRqCeCCkwBEIqAeAwPAPoAABAAAQAADAAAYAACAAAYAADAAAAA==

> <PUBCHEM_IUPAC_OPENEYE_NAME>
(8R,9S,13S,14S,17R)-3-(cyclopentoxy)-17-ethynyl-13-methyl-7,8,9,11,12,14,15,16-octahydro-6H-cyclopenta[a]phenanthren-17-ol

> <PUBCHEM_IUPAC_CAS_NAME>
(8R,9S,13S,14S,17R)-3-cyclopentyloxy-17-ethynyl-13-methyl-7,8,9,11,12,14,15,16-octahydro-6H-cyclopenta[a]phenanthren-17-ol

> <PUBCHEM_IUPAC_NAME>
(8R,9S,13S,14S,17R)-3-cyclopentyloxy-17-ethynyl-13-methyl-7,8,9,11,12,14,15,16-octahydro-6H-cyclopenta[a]phenanthren-17-ol

> <PUBCHEM_IUPAC_SYSTEMATIC_NAME>
(8R,9S,13S,14S,17R)-3-cyclopentyloxy-17-ethynyl-13-methyl-7,8,9,11,12,14,15,16-octahydro-6H-cyclopenta[a]phenanthren-17-ol

> <PUBCHEM_IUPAC_TRADITIONAL_NAME>
(8R,9S,13S,14S,17R)-3-(cyclopentoxy)-17-ethynyl-13-methyl-7,8,9,11,12,14,15,16-octahydro-6H-cyclopenta[a]phenanthren-17-ol

> <PUBCHEM_IUPAC_INCHI>
InChI=1S/C25H32O2/c1-3-25(26)15-13-23-22-10-8-17-16-19(27-18-6-4-5-7-18)9-11-20(17)21(22)12-14-24(23,25)2/h1,9,11,16,18,21-23,26H,4-8,10,12-15H2,2H3/t21-,22-,23+,24+,25+/m1/s1

> <PUBCHEM_IUPAC_INCHIKEY>
PWZUUYSISTUNDW-VAFBSOEGSA-N

> <PUBCHEM_XLOGP3>
5.3

> <PUBCHEM_EXACT_MASS>
364.24023

> <PUBCHEM_MOLECULAR_FORMULA>
C25H32O2

> <PUBCHEM_MOLECULAR_WEIGHT>
364.52038

> <PUBCHEM_OPENEYE_CAN_SMILES>
CC12CCC3C(C1CCC2(C#C)O)CCC4=C3C=CC(=C4)OC5CCCC5

> <PUBCHEM_OPENEYE_ISO_SMILES>
C[C@]12CC[C@H]3[C@H]([C@@H]1CC[C@]2(C#C)O)CCC4=C3C=CC(=C4)OC5CCCC5

> <PUBCHEM_CACTVS_TPSA>
29.5

> <PUBCHEM_MONOISOTOPIC_WEIGHT>
364.24023

> <PUBCHEM_TOTAL_CHARGE>
0

> <PUBCHEM_HEAVY_ATOM_COUNT>
27

> <PUBCHEM_ATOM_DEF_STEREO_COUNT>
5

> <PUBCHEM_ATOM_UDEF_STEREO_COUNT>
0

> <PUBCHEM_BOND_DEF_STEREO_COUNT>
0

> <PUBCHEM_BOND_UDEF_STEREO_COUNT>
0

> <PUBCHEM_ISOTOPIC_ATOM_COUNT>
0

> <PUBCHEM_COMPONENT_COUNT>
1

> <PUBCHEM_CACTVS_TAUTO_COUNT>
1

> <PUBCHEM_COORDINATE_TYPE>
1
5
255

> <PUBCHEM_BONDANNOTATIONS>
6  1  5
14  16  8
14  18  8
16  19  8
18  20  8
19  21  8
20  21  8
3  13  5
4  28  6
5  29  5
7  30  6

$$$$

