   Color/Form

     * White crystals
     * White to light brown crystals

   from [1]HSDB

   Odor
        Slightly phenolic
   from [2]HSDB

   Melting Point
        118-120 deg C
   from [3]HSDB

   Corrosivity
        The acid is slightly corrosive to iron.
   from [4]HSDB

   Dissociation Constants
        pKa= 4.95 at 25 deg C
   from [5]HSDB

   Octanol/Water Partition Coefficient
        log Kow= 3.53
   from [6]HSDB

   Solubilities

     * Water solubility: 46 ppm at 25 deg C.
     * Readily soluble in acetone, ethanol, and diethyl ether. Slightly
       soluble in benzene, toluene, and kerosene.

   from [7]HSDB

   Vapor Pressure
        3.5X10-6 mm Hg at 25 deg (est)
   from [8]HSDB

   Other Chemical/Physical Properties

     * Koc of 4-(2,4-dichlorophenoxy)butyric acid has been experimentally
       measured to be 370 at pH 7.9.
     * Henry's Law constant estimated to be 2.29X10-9 atm-cu m/mole at 25
       deg C.

   from [9]HSDB

   Computed Properties
   Molecular Weight                  249.0906 [g/mol]
   Molecular Formula                 C[10]H[10]Cl[2]O[3]
   XLogP3                            3.5
   H-Bond Donor                      1
   H-Bond Acceptor                   3
   Rotatable Bond Count              5
   Exact Mass                        248.0007
   MonoIsotopic Mass                 248.0007
   Topological Polar Surface Area    46.5
   Heavy Atom Count                  15
   Formal Charge                     0
   Complexity                        211
   Isotope Atom Count                0
   Defined Atom Stereocenter Count   0
   Undefined Atom Stereocenter Count 0
   Defined Bond Stereocenter Count   0
   Undefined Bond Stereocenter Count 0
   Covalently-Bonded Unit Count      1
   Feature 3D Acceptor Count         3
   Feature 3D Anion Count            1
   Feature 3D Ring Count             1
   Effective Rotor Count             5
   Conformer Sampling RMSD           0.6
   CID Conformer Count               [10]172

References

   1. http://toxnet.nlm.nih.gov/cgi-bin/sis/search/r?dbs+hsdb:@term+@rn+@rel+94-82-6
   2. http://toxnet.nlm.nih.gov/cgi-bin/sis/search/r?dbs+hsdb:@term+@rn+@rel+94-82-6
   3. http://toxnet.nlm.nih.gov/cgi-bin/sis/search/r?dbs+hsdb:@term+@rn+@rel+94-82-6
   4. http://toxnet.nlm.nih.gov/cgi-bin/sis/search/r?dbs+hsdb:@term+@rn+@rel+94-82-6
   5. http://toxnet.nlm.nih.gov/cgi-bin/sis/search/r?dbs+hsdb:@term+@rn+@rel+94-82-6
   6. http://toxnet.nlm.nih.gov/cgi-bin/sis/search/r?dbs+hsdb:@term+@rn+@rel+94-82-6
   7. http://toxnet.nlm.nih.gov/cgi-bin/sis/search/r?dbs+hsdb:@term+@rn+@rel+94-82-6
   8. http://toxnet.nlm.nih.gov/cgi-bin/sis/search/r?dbs+hsdb:@term+@rn+@rel+94-82-6
   9. http://toxnet.nlm.nih.gov/cgi-bin/sis/search/r?dbs+hsdb:@term+@rn+@rel+94-82-6
  10. http://pubchem.ncbi.nlm.nih.gov/vw3d/vw3d.cgi?cid=1489
