   Color/Form
        COLORLESS CRYSTALS
   from [1]HSDB

   Odor
        MILD ODOR
   from [2]HSDB

   Taste
        VERY BITTER TASTE
   from [3]HSDB

   Melting Point
        164-166 DEG C (HOT STAGE)
   from [4]HSDB

   pH
        PH OF 1% AQ SOLN IS BETWEEN 4.8 & 5.5
   from [5]HSDB

   Solubilities

     * VERY SOL IN WATER GIVING FOAMY, SOAPY SOLN; SOL IN ALC, ACETONE,
       CHLOROFORM
     * SLIGHTLY SOL IN ETHER

   from [6]HSDB

   Spectral Properties

     * INDEX OF REFRACTION: 1.5101 @ 25 DEG C/D; INDEX OF REFRACTION FALLS
       ON REPETITION
     * INDEX OF REFRACTION: 1.560 (ALPHA), 1.565 (BETA), 1.589 (GAMMA)

   from [7]HSDB

   Other Chemical/Physical Properties

     * SPLINTERS SLIGHTLY @ 120 DEG C
     * OPTIC SIGN + ; AXIAL ANGLE 2V= 48 DEG; MOST FRAGMENTS DO NOT
       EXTINGUISH COMPLETELY
     * HYDROPHILIC PART OF MOLECULE IS POSITIVE RATHER THAN NEGATIVE;
       DETERGENTS RELEASE ANION (CL- OR BR-) /CATIONIC DETERGENTS/
     * EUTECTIC TEMP: PHENANTHRENE 86 DEG C; BENZANTHRENE 98 DEG C
     * MINERAL ACIDS & MANY SALT SOLN PPT BENZETHONIUM CHLORIDE FROM SOLN
       MORE CONCN THAN 2% AS OIL WHICH CRYSTALLIZES ON DRYING
     * THIN, HEXAGONAL PLATES FROM CHLOROFORM + ETHER /MONOHYDRATE/
     * A synthetic quaternary ammonium compound
     * Aqueous solution yields flocculent white precipitate with soap
       solutions.

   from [8]HSDB

   Computed Properties
   Molecular Weight                  448.08088 [g/mol]
   Molecular Formula                 C[27]H[42]ClNO[2]
   H-Bond Donor                      0
   H-Bond Acceptor                   3
   Rotatable Bond Count              12
   Exact Mass                        447.290407
   MonoIsotopic Mass                 447.290407
   Topological Polar Surface Area    18.5
   Heavy Atom Count                  31
   Formal Charge                     0
   Complexity                        466
   Isotope Atom Count                0
   Defined Atom Stereocenter Count   0
   Undefined Atom Stereocenter Count 0
   Defined Bond Stereocenter Count   0
   Undefined Bond Stereocenter Count 0
   Covalently-Bonded Unit Count      2

References

   1. http://toxnet.nlm.nih.gov/cgi-bin/sis/search/r?dbs+hsdb:@term+@rn+@rel+121-54-0
   2. http://toxnet.nlm.nih.gov/cgi-bin/sis/search/r?dbs+hsdb:@term+@rn+@rel+121-54-0
   3. http://toxnet.nlm.nih.gov/cgi-bin/sis/search/r?dbs+hsdb:@term+@rn+@rel+121-54-0
   4. http://toxnet.nlm.nih.gov/cgi-bin/sis/search/r?dbs+hsdb:@term+@rn+@rel+121-54-0
   5. http://toxnet.nlm.nih.gov/cgi-bin/sis/search/r?dbs+hsdb:@term+@rn+@rel+121-54-0
   6. http://toxnet.nlm.nih.gov/cgi-bin/sis/search/r?dbs+hsdb:@term+@rn+@rel+121-54-0
   7. http://toxnet.nlm.nih.gov/cgi-bin/sis/search/r?dbs+hsdb:@term+@rn+@rel+121-54-0
   8. http://toxnet.nlm.nih.gov/cgi-bin/sis/search/r?dbs+hsdb:@term+@rn+@rel+121-54-0
