441833
  -OEChem-07051212562D

 79 82  0     1  0  0  0  0  0999 V2000
    7.9288   -2.2390    0.0000 O   0  0  0  0  0  0  0  0  0  0  0  0
    5.2710   -3.7874    0.0000 O   0  0  0  0  0  0  0  0  0  0  0  0
   10.1362    0.7056    0.0000 O   0  0  0  0  0  0  0  0  0  0  0  0
    2.5519   -1.1997    0.0000 O   0  0  0  0  0  0  0  0  0  0  0  0
    2.5357   -3.2913    0.0000 O   0  0  0  0  0  0  0  0  0  0  0  0
    6.1847   -4.3082    0.0000 O   0  0  0  0  0  0  0  0  0  0  0  0
    8.8285    2.7111    0.0000 O   0  0  0  0  0  0  0  0  0  0  0  0
   12.7425    3.5360    0.0000 O   0  0  0  0  0  0  0  0  0  0  0  0
    7.9288   -0.2390    0.0000 C   0  0  1  0  0  0  0  0  0  0  0  0
    7.9288   -1.2390    0.0000 C   0  0  1  0  0  0  0  0  0  0  0  0
    8.8750    0.0657    0.0000 C   0  0  2  0  0  0  0  0  0  0  0  0
    6.1968   -1.2390    0.0000 C   0  0  2  0  0  0  0  0  0  0  0  0
    5.2868   -1.7458    0.0000 C   0  0  2  0  0  0  0  0  0  0  0  0
    7.0628   -1.7390    0.0000 C   0  0  0  0  0  0  0  0  0  0  0  0
    7.0628    0.2610    0.0000 C   0  0  0  0  0  0  0  0  0  0  0  0
    8.8750   -1.5437    0.0000 C   0  0  0  0  0  0  0  0  0  0  0  0
    6.1968   -0.2390    0.0000 C   0  0  0  0  0  0  0  0  0  0  0  0
    9.4586   -0.7390    0.0000 C   0  0  0  0  0  0  0  0  0  0  0  0
    5.2787   -2.7874    0.0000 C   0  0  2  0  0  0  0  0  0  0  0  0
    9.1857    1.0163    0.0000 C   0  0  2  0  0  0  0  0  0  0  0  0
    7.9288    0.7610    0.0000 C   0  0  0  0  0  0  0  0  0  0  0  0
    4.3599   -1.1818    0.0000 C   0  0  0  0  0  0  0  0  0  0  0  0
    7.0789   -2.7805    0.0000 C   0  0  0  0  0  0  0  0  0  0  0  0
    4.3433   -3.3372    0.0000 C   0  0  0  0  0  0  0  0  0  0  0  0
    5.2945   -0.7459    0.0000 C   0  0  0  0  0  0  0  0  0  0  0  0
    6.1808   -3.3082    0.0000 C   0  0  0  0  0  0  0  0  0  0  0  0
    3.4120   -1.7097    0.0000 C   0  0  1  0  0  0  0  0  0  0  0  0
    3.4037   -2.7947    0.0000 C   0  0  2  0  0  0  0  0  0  0  0  0
    9.4964    1.9668    0.0000 C   0  0  1  0  0  0  0  0  0  0  0  0
    8.2352    1.3269    0.0000 C   0  0  0  0  0  0  0  0  0  0  0  0
   10.4749    2.1730    0.0000 C   0  0  0  0  0  0  0  0  0  0  0  0
   10.7855    3.1235    0.0000 C   0  0  0  0  0  0  0  0  0  0  0  0
   11.7640    3.3297    0.0000 C   0  0  0  0  0  0  0  0  0  0  0  0
   11.5578    4.3082    0.0000 C   0  0  0  0  0  0  0  0  0  0  0  0
   11.9703    2.3512    0.0000 C   0  0  0  0  0  0  0  0  0  0  0  0
    9.7148    0.1976    0.0000 H   0  0  0  0  0  0  0  0  0  0  0  0
    6.9329   -0.8140    0.0000 H   0  0  0  0  0  0  0  0  0  0  0  0
    7.4613    0.7360    0.0000 H   0  0  0  0  0  0  0  0  0  0  0  0
    6.6643    0.7360    0.0000 H   0  0  0  0  0  0  0  0  0  0  0  0
    8.6240   -2.1106    0.0000 H   0  0  0  0  0  0  0  0  0  0  0  0
    9.4124   -1.8530    0.0000 H   0  0  0  0  0  0  0  0  0  0  0  0
    5.9847    0.3436    0.0000 H   0  0  0  0  0  0  0  0  0  0  0  0
    5.5862   -0.3467    0.0000 H   0  0  0  0  0  0  0  0  0  0  0  0
    9.9195   -1.1537    0.0000 H   0  0  0  0  0  0  0  0  0  0  0  0
    9.9195   -0.3243    0.0000 H   0  0  0  0  0  0  0  0  0  0  0  0
    8.5488    0.7610    0.0000 H   0  0  0  0  0  0  0  0  0  0  0  0
    7.9288    1.3810    0.0000 H   0  0  0  0  0  0  0  0  0  0  0  0
    7.3088    0.7610    0.0000 H   0  0  0  0  0  0  0  0  0  0  0  0
    4.7681   -0.7151    0.0000 H   0  0  0  0  0  0  0  0  0  0  0  0
    3.9700   -0.6997    0.0000 H   0  0  0  0  0  0  0  0  0  0  0  0
    7.6193   -3.0843    0.0000 H   0  0  0  0  0  0  0  0  0  0  0  0
    3.9460   -3.8131    0.0000 H   0  0  0  0  0  0  0  0  0  0  0  0
    4.7443   -3.8101    0.0000 H   0  0  0  0  0  0  0  0  0  0  0  0
    5.9145   -0.7506    0.0000 H   0  0  0  0  0  0  0  0  0  0  0  0
    5.2993   -0.1259    0.0000 H   0  0  0  0  0  0  0  0  0  0  0  0
    4.6745   -0.7411    0.0000 H   0  0  0  0  0  0  0  0  0  0  0  0
    2.8722   -2.0145    0.0000 H   0  0  0  0  0  0  0  0  0  0  0  0
    8.4658   -2.5490    0.0000 H   0  0  0  0  0  0  0  0  0  0  0  0
    2.8686   -2.4816    0.0000 H   0  0  0  0  0  0  0  0  0  0  0  0
    9.6890    2.5561    0.0000 H   0  0  0  0  0  0  0  0  0  0  0  0
    8.4278    1.9162    0.0000 H   0  0  0  0  0  0  0  0  0  0  0  0
    7.6459    1.5195    0.0000 H   0  0  0  0  0  0  0  0  0  0  0  0
    8.0426    0.7376    0.0000 H   0  0  0  0  0  0  0  0  0  0  0  0
    4.7317   -4.0933    0.0000 H   0  0  0  0  0  0  0  0  0  0  0  0
   10.5977    1.1197    0.0000 H   0  0  0  0  0  0  0  0  0  0  0  0
   10.4954    1.5533    0.0000 H   0  0  0  0  0  0  0  0  0  0  0  0
   11.0887    2.0856    0.0000 H   0  0  0  0  0  0  0  0  0  0  0  0
    2.5590   -0.5798    0.0000 H   0  0  0  0  0  0  0  0  0  0  0  0
    2.0000   -2.9793    0.0000 H   0  0  0  0  0  0  0  0  0  0  0  0
    9.0211    3.3004    0.0000 H   0  0  0  0  0  0  0  0  0  0  0  0
   10.7650    3.7432    0.0000 H   0  0  0  0  0  0  0  0  0  0  0  0
   10.1717    3.2109    0.0000 H   0  0  0  0  0  0  0  0  0  0  0  0
   11.3636    2.2234    0.0000 H   0  0  0  0  0  0  0  0  0  0  0  0
   12.0981    1.7446    0.0000 H   0  0  0  0  0  0  0  0  0  0  0  0
   12.1645    4.4361    0.0000 H   0  0  0  0  0  0  0  0  0  0  0  0
   12.5769    2.4791    0.0000 H   0  0  0  0  0  0  0  0  0  0  0  0
   11.4300    4.9149    0.0000 H   0  0  0  0  0  0  0  0  0  0  0  0
   10.9511    4.1804    0.0000 H   0  0  0  0  0  0  0  0  0  0  0  0
   12.9352    4.1253    0.0000 H   0  0  0  0  0  0  0  0  0  0  0  0
 10  1  1  6  0  0  0
  1 58  1  0  0  0  0
 19  2  1  1  0  0  0
  2 64  1  0  0  0  0
 20  3  1  1  0  0  0
  3 65  1  0  0  0  0
 27  4  1  1  0  0  0
  4 68  1  0  0  0  0
 28  5  1  1  0  0  0
  5 69  1  0  0  0  0
  6 26  2  0  0  0  0
 29  7  1  6  0  0  0
  7 70  1  0  0  0  0
  8 33  1  0  0  0  0
  8 79  1  0  0  0  0
  9 10  1  0  0  0  0
  9 11  1  0  0  0  0
  9 15  1  0  0  0  0
  9 21  1  1  0  0  0
 10 14  1  0  0  0  0
 10 16  1  0  0  0  0
 11 18  1  0  0  0  0
 11 20  1  0  0  0  0
 11 36  1  6  0  0  0
 12 13  1  0  0  0  0
 12 14  1  0  0  0  0
 12 17  1  0  0  0  0
 12 37  1  6  0  0  0
 13 19  1  0  0  0  0
 13 22  1  0  0  0  0
 13 25  1  1  0  0  0
 14 23  2  0  0  0  0
 15 17  1  0  0  0  0
 15 38  1  0  0  0  0
 15 39  1  0  0  0  0
 16 18  1  0  0  0  0
 16 40  1  0  0  0  0
 16 41  1  0  0  0  0
 17 42  1  0  0  0  0
 17 43  1  0  0  0  0
 18 44  1  0  0  0  0
 18 45  1  0  0  0  0
 19 24  1  0  0  0  0
 19 26  1  0  0  0  0
 20 29  1  0  0  0  0
 20 30  1  0  0  0  0
 21 46  1  0  0  0  0
 21 47  1  0  0  0  0
 21 48  1  0  0  0  0
 22 27  1  0  0  0  0
 22 49  1  0  0  0  0
 22 50  1  0  0  0  0
 23 26  1  0  0  0  0
 23 51  1  0  0  0  0
 24 28  1  0  0  0  0
 24 52  1  0  0  0  0
 24 53  1  0  0  0  0
 25 54  1  0  0  0  0
 25 55  1  0  0  0  0
 25 56  1  0  0  0  0
 27 28  1  0  0  0  0
 27 57  1  0  0  0  0
 28 59  1  0  0  0  0
 29 31  1  0  0  0  0
 29 60  1  0  0  0  0
 30 61  1  0  0  0  0
 30 62  1  0  0  0  0
 30 63  1  0  0  0  0
 31 32  1  0  0  0  0
 31 66  1  0  0  0  0
 31 67  1  0  0  0  0
 32 33  1  0  0  0  0
 32 71  1  0  0  0  0
 32 72  1  0  0  0  0
 33 34  1  0  0  0  0
 33 35  1  0  0  0  0
 34 75  1  0  0  0  0
 34 77  1  0  0  0  0
 34 78  1  0  0  0  0
 35 73  1  0  0  0  0
 35 74  1  0  0  0  0
 35 76  1  0  0  0  0
M  END
> <PUBCHEM_COMPOUND_CID>
441833

> <PUBCHEM_COMPOUND_CANONICALIZED>
1

> <PUBCHEM_CACTVS_COMPLEXITY>
917

> <PUBCHEM_CACTVS_HBOND_ACCEPTOR>
8

> <PUBCHEM_CACTVS_HBOND_DONOR>
7

> <PUBCHEM_CACTVS_ROTATABLE_BOND>
5

> <PUBCHEM_CACTVS_SUBSKEYS>
AAADcfB4PAAAAAAAAAAAAAAAAAAAAYAAAAAwYIAAAAAAAGCAAAAAGgAACAAAD1SggAICAAAAAgCIAqBSAAIAAAAgAAAACAFAAEgBFBIAAQAAUAAFwAAJEQPK7PTPgAAAAAAAAADCAAYQADCAAYAADAAAAA==

> <PUBCHEM_IUPAC_OPENEYE_NAME>
(2S,3R,5S,9R,10R,13R,14S,17S)-2,3,5,14-tetrahydroxy-10,13-dimethyl-17-[(1R,2R)-1,2,5-trihydroxy-1,5-dimethyl-hexyl]-1,2,3,4,9,11,12,15,16,17-decahydrocyclopenta[a]phenanthren-6-one

> <PUBCHEM_IUPAC_CAS_NAME>
(2S,3R,5S,9R,10R,13R,14S,17S)-2,3,5,14-tetrahydroxy-10,13-dimethyl-17-[(2R,3R)-2,3,6-trihydroxy-6-methylheptan-2-yl]-1,2,3,4,9,11,12,15,16,17-decahydrocyclopenta[a]phenanthren-6-one

> <PUBCHEM_IUPAC_NAME>
(2S,3R,5S,9R,10R,13R,14S,17S)-2,3,5,14-tetrahydroxy-10,13-dimethyl-17-[(2R,3R)-2,3,6-trihydroxy-6-methylheptan-2-yl]-1,2,3,4,9,11,12,15,16,17-decahydrocyclopenta[a]phenanthren-6-one

> <PUBCHEM_IUPAC_SYSTEMATIC_NAME>
(2S,3R,5S,9R,10R,13R,14S,17S)-10,13-dimethyl-17-[(2R,3R)-6-methyl-2,3,6-tris(oxidanyl)heptan-2-yl]-2,3,5,14-tetrakis(oxidanyl)-1,2,3,4,9,11,12,15,16,17-decahydrocyclopenta[a]phenanthren-6-one

> <PUBCHEM_IUPAC_TRADITIONAL_NAME>
(2S,3R,5S,9R,10R,13R,14S,17S)-2,3,5,14-tetrahydroxy-10,13-dimethyl-17-[(1R,2R)-1,2,5-trihydroxy-1,5-dimethyl-hexyl]-1,2,3,4,9,11,12,15,16,17-decahydrocyclopenta[a]phenanthren-6-one

> <PUBCHEM_IUPAC_INCHI>
InChI=1S/C27H44O8/c1-22(2,32)9-8-20(30)25(5,33)19-7-11-26(34)16-12-21(31)27(35)14-18(29)17(28)13-24(27,4)15(16)6-10-23(19,26)3/h12,15,17-20,28-30,32-35H,6-11,13-14H2,1-5H3/t15-,17-,18+,19-,20+,23+,24+,25+,26+,27+/m0/s1

> <PUBCHEM_IUPAC_INCHIKEY>
GMFLGNRCCFYOKL-ACCCYTKYSA-N

> <PUBCHEM_XLOGP3_AA>
-0.3

> <PUBCHEM_EXACT_MASS>
496.303618

> <PUBCHEM_MOLECULAR_FORMULA>
C27H44O8

> <PUBCHEM_MOLECULAR_WEIGHT>
496.63346

> <PUBCHEM_OPENEYE_CAN_SMILES>
CC12CCC3C(=CC(=O)C4(C3(CC(C(C4)O)O)C)O)C1(CCC2C(C)(C(CCC(C)(C)O)O)O)O

> <PUBCHEM_OPENEYE_ISO_SMILES>
C[C@]12CC[C@H]3C(=CC(=O)[C@]4([C@@]3(C[C@@H]([C@@H](C4)O)O)C)O)[C@@]1(CC[C@@H]2[C@](C)([C@@H](CCC(C)(C)O)O)O)O

> <PUBCHEM_CACTVS_TPSA>
159

> <PUBCHEM_MONOISOTOPIC_WEIGHT>
496.303618

> <PUBCHEM_TOTAL_CHARGE>
0

> <PUBCHEM_HEAVY_ATOM_COUNT>
35

> <PUBCHEM_ATOM_DEF_STEREO_COUNT>
10

> <PUBCHEM_ATOM_UDEF_STEREO_COUNT>
0

> <PUBCHEM_BOND_DEF_STEREO_COUNT>
0

> <PUBCHEM_BOND_UDEF_STEREO_COUNT>
0

> <PUBCHEM_ISOTOPIC_ATOM_COUNT>
0

> <PUBCHEM_COMPONENT_COUNT>
1

> <PUBCHEM_CACTVS_TAUTO_COUNT>
3

> <PUBCHEM_COORDINATE_TYPE>
1
5
255

> <PUBCHEM_BONDANNOTATIONS>
10  1  6
11  36  6
12  37  6
13  25  5
19  2  5
20  3  5
27  4  5
28  5  5
29  7  6
9  21  5

$$$$

