   Color/Form

     * Colorless oil
     * Colorless to straw-colored liquid

   from [1]HSDB

   Boiling Point
        230 deg C at 16 mm Hg; 202 deg C at 1.4 mm Hg
   from [2]HSDB

   Melting Point
        -8.5 deg C
   from [3]HSDB

   Density/Specific Gravity
        0.9022 g/cu cm at 20 deg C
   from [4]HSDB

   Dissociation Constants
        pKa = 4.77 at 25 deg C
   from [5]HSDB

   Octanol/Water Partition Coefficient
        log Kow = 7.05
   from [6]HSDB

   Solubilities

     * Freely sol in ether; sol in absolute alcohol; 1 ml dissolves in 10
       ml petroleum ether; miscible with dimethylformamide, fat solvents,
       oils
     * Very soluble in acetone, benzene, ethyl ether, and ethanol.
     * In acetone: 4.10 g/100 g acetone at -50 deg C, 1.20 g/100 g acetone
       at -60 deg C, 0.35 g/100 g acetone at -70 deg C; in n-heptane: 0.98
       g/100 g n-heptane at -50 deg C, 0.20 g/100 g n-heptane at -60 deg
       C, 0.042 g/100 g n-heptane at -70 deg C.
     * In water, 0.139 mg/L at 25 deg C (est)

   from [7]HSDB

   Spectral Properties

     * Index of refraction: 1.4715 at 11.5 deg C/D, 1.4699 at 20 deg C/D,
       1.4683 at 21.5 deg C/D, 1.4588 at 50 deg C/D
     * Index of refraction: 1.4710 at 15 deg C
     * MAX ABSORPTION (ALCOHOL): 232 NM (LOG E= 3.8), 275 NM (LOG E= 2.9);
       SADTLER REF NUMBER: 914 (IR, PRISM)
     * IR: 15092 (Sadtler Research Laboratories IR Grating Collection)
     * 1H NMR: 8215 (Sadtler Research Laboratories Spectral Collection)
     * MASS: 107179 (NIST/EPA/MSDC Mass Spectral database, 1990 verson);
       2211 (Atlas of Mass Spectral Data, John Wiley & Sons, New York)

   from [8]HSDB

   Vapor Pressure
        8.68X10-7 mm Hg at 25 deg C
   from [9]HSDB

   Other Chemical/Physical Properties

     * Iodine value: 181.1; thiocyanogen value: 96.7
     * Heat of fusion = 51.50 kJ/mol.
     * Easily oxidized by air
     * Yellow lumps or powder; linseed oil odor. Practically insoluble in
       water. Soluble in oils, fixed alkali hydroxides /Aluminum salt/
     * Henry's Law constant = 5.11X10-6 atm-cu m/mol at 25 deg C (est)
     * Hydroxyl radical reaction rate constant = 1.29X10-10 cu
       cm/molec-sec at 25 deg C (est)

   from [10]HSDB

   Computed Properties
   Molecular Weight                  280.44548 [g/mol]
   Molecular Formula                 C[18]H[32]O[2]
   XLogP3                            6.8
   H-Bond Donor                      1
   H-Bond Acceptor                   2
   Rotatable Bond Count              14
   Exact Mass                        280.24023
   MonoIsotopic Mass                 280.24023
   Topological Polar Surface Area    37.3
   Heavy Atom Count                  20
   Formal Charge                     0
   Complexity                        267
   Isotope Atom Count                0
   Defined Atom Stereocenter Count   0
   Undefined Atom Stereocenter Count 0
   Defined Bond Stereocenter Count   2
   Undefined Bond Stereocenter Count 0
   Covalently-Bonded Unit Count      1
   Feature 3D Acceptor Count         2
   Feature 3D Anion Count            1
   Feature 3D Hydrophobe Count       2
   Effective Rotor Count             14
   Conformer Sampling RMSD           1.4
   CID Conformer Count               [11]93

References

   1. http://toxnet.nlm.nih.gov/cgi-bin/sis/search/r?dbs+hsdb:@term+@rn+@rel+60-33-3
   2. http://toxnet.nlm.nih.gov/cgi-bin/sis/search/r?dbs+hsdb:@term+@rn+@rel+60-33-3
   3. http://toxnet.nlm.nih.gov/cgi-bin/sis/search/r?dbs+hsdb:@term+@rn+@rel+60-33-3
   4. http://toxnet.nlm.nih.gov/cgi-bin/sis/search/r?dbs+hsdb:@term+@rn+@rel+60-33-3
   5. http://toxnet.nlm.nih.gov/cgi-bin/sis/search/r?dbs+hsdb:@term+@rn+@rel+60-33-3
   6. http://toxnet.nlm.nih.gov/cgi-bin/sis/search/r?dbs+hsdb:@term+@rn+@rel+60-33-3
   7. http://toxnet.nlm.nih.gov/cgi-bin/sis/search/r?dbs+hsdb:@term+@rn+@rel+60-33-3
   8. http://toxnet.nlm.nih.gov/cgi-bin/sis/search/r?dbs+hsdb:@term+@rn+@rel+60-33-3
   9. http://toxnet.nlm.nih.gov/cgi-bin/sis/search/r?dbs+hsdb:@term+@rn+@rel+60-33-3
  10. http://toxnet.nlm.nih.gov/cgi-bin/sis/search/r?dbs+hsdb:@term+@rn+@rel+60-33-3
  11. http://pubchem.ncbi.nlm.nih.gov/vw3d/vw3d.cgi?cid=5280450
