442140
  -OEChem-07051212572D

 50 53  0     1  0  0  0  0  0999 V2000
    5.6499    4.1793    0.0000 Cl  0  0  0  0  0  0  0  0  0  0  0  0
    4.6436   -3.2941    0.0000 O   0  0  0  0  0  0  0  0  0  0  0  0
    3.7230   -2.1444    0.0000 O   0  0  0  0  0  0  0  0  0  0  0  0
    7.0268   -4.1330    0.0000 O   0  0  0  0  0  0  0  0  0  0  0  0
    4.5447    1.0210    0.0000 O   0  0  0  0  0  0  0  0  0  0  0  0
    2.0000   -1.7122    0.0000 O   0  0  0  0  0  0  0  0  0  0  0  0
    6.1053    1.7725    0.0000 O   0  0  0  0  0  0  0  0  0  0  0  0
    4.2403    3.6492    0.0000 O   0  0  0  0  0  0  0  0  0  0  0  0
    5.6146   -3.0553    0.0000 C   0  0  2  0  0  0  0  0  0  0  0  0
    5.4786   -2.0706    0.0000 C   0  0  1  0  0  0  0  0  0  0  0  0
    6.3796   -1.6367    0.0000 C   0  0  1  0  0  0  0  0  0  0  0  0
    6.5929   -3.2320    0.0000 C   0  0  2  0  0  0  0  0  0  0  0  0
    4.5777   -1.6367    0.0000 C   0  0  2  0  0  0  0  0  0  0  0  0
    5.3359   -4.0157    0.0000 C   0  0  0  0  0  0  0  0  0  0  0  0
    7.0647   -2.3570    0.0000 C   0  0  0  0  0  0  0  0  0  0  0  0
    4.3551   -0.6618    0.0000 C   0  0  1  0  0  0  0  0  0  0  0  0
    6.6021   -0.6618    0.0000 C   0  0  0  0  0  0  0  0  0  0  0  0
    4.9786    0.1200    0.0000 C   0  0  2  0  0  0  0  0  0  0  0  0
    5.9786    0.1200    0.0000 C   0  0  0  0  0  0  0  0  0  0  0  0
    3.3648   -0.5753    0.0000 C   0  0  0  0  0  0  0  0  0  0  0  0
    2.9749   -1.4897    0.0000 C   0  0  0  0  0  0  0  0  0  0  0  0
    7.5770   -0.4393    0.0000 C   0  0  0  0  0  0  0  0  0  0  0  0
    2.8504    0.2823    0.0000 C   0  0  0  0  0  0  0  0  0  0  0  0
    5.1081    1.8472    0.0000 C   0  0  0  0  0  0  0  0  0  0  0  0
    4.6742    2.7482    0.0000 C   0  0  1  0  0  0  0  0  0  0  0  0
    5.5752    3.1821    0.0000 C   0  0  0  0  0  0  0  0  0  0  0  0
    3.7732    2.3143    0.0000 C   0  0  0  0  0  0  0  0  0  0  0  0
    4.7916   -2.5711    0.0000 H   0  0  0  0  0  0  0  0  0  0  0  0
    7.1993   -1.4117    0.0000 H   0  0  0  0  0  0  0  0  0  0  0  0
    7.2127   -3.2462    0.0000 H   0  0  0  0  0  0  0  0  0  0  0  0
    4.6147   -2.4859    0.0000 H   0  0  0  0  0  0  0  0  0  0  0  0
    4.9698   -4.5161    0.0000 H   0  0  0  0  0  0  0  0  0  0  0  0
    5.8922   -4.2893    0.0000 H   0  0  0  0  0  0  0  0  0  0  0  0
    7.5765   -2.7070    0.0000 H   0  0  0  0  0  0  0  0  0  0  0  0
    7.4666   -1.8849    0.0000 H   0  0  0  0  0  0  0  0  0  0  0  0
    4.0200    0.1194    0.0000 H   0  0  0  0  0  0  0  0  0  0  0  0
    4.3625    0.1895    0.0000 H   0  0  0  0  0  0  0  0  0  0  0  0
    6.5372    0.3890    0.0000 H   0  0  0  0  0  0  0  0  0  0  0  0
    5.8407    0.7245    0.0000 H   0  0  0  0  0  0  0  0  0  0  0  0
    7.6450   -4.1793    0.0000 H   0  0  0  0  0  0  0  0  0  0  0  0
    7.9988   -0.8938    0.0000 H   0  0  0  0  0  0  0  0  0  0  0  0
    7.7598    0.1532    0.0000 H   0  0  0  0  0  0  0  0  0  0  0  0
    3.1514    0.8243    0.0000 H   0  0  0  0  0  0  0  0  0  0  0  0
    2.2305    0.2720    0.0000 H   0  0  0  0  0  0  0  0  0  0  0  0
    5.7431    2.5853    0.0000 H   0  0  0  0  0  0  0  0  0  0  0  0
    6.1921    3.2438    0.0000 H   0  0  0  0  0  0  0  0  0  0  0  0
    3.5042    2.8729    0.0000 H   0  0  0  0  0  0  0  0  0  0  0  0
    3.2146    2.0453    0.0000 H   0  0  0  0  0  0  0  0  0  0  0  0
    4.0422    1.7557    0.0000 H   0  0  0  0  0  0  0  0  0  0  0  0
    4.5896    4.1614    0.0000 H   0  0  0  0  0  0  0  0  0  0  0  0
  1 26  1  0  0  0  0
  9  2  1  6  0  0  0
  2 14  1  0  0  0  0
  3 13  1  0  0  0  0
  3 21  1  0  0  0  0
 12  4  1  6  0  0  0
  4 40  1  0  0  0  0
 18  5  1  1  0  0  0
  5 24  1  0  0  0  0
  6 21  2  0  0  0  0
  7 24  2  0  0  0  0
 25  8  1  6  0  0  0
  8 50  1  0  0  0  0
  9 10  1  0  0  0  0
  9 12  1  0  0  0  0
  9 14  1  0  0  0  0
 10 11  1  0  0  0  0
 10 13  1  0  0  0  0
 10 28  1  1  0  0  0
 11 15  1  0  0  0  0
 11 17  1  0  0  0  0
 11 29  1  1  0  0  0
 12 15  1  0  0  0  0
 12 30  1  0  0  0  0
 13 16  1  0  0  0  0
 13 31  1  6  0  0  0
 14 32  1  0  0  0  0
 14 33  1  0  0  0  0
 15 34  1  0  0  0  0
 15 35  1  0  0  0  0
 16 18  1  0  0  0  0
 16 20  1  0  0  0  0
 16 36  1  1  0  0  0
 17 19  1  0  0  0  0
 17 22  2  0  0  0  0
 18 19  1  0  0  0  0
 18 37  1  0  0  0  0
 19 38  1  0  0  0  0
 19 39  1  0  0  0  0
 20 21  1  0  0  0  0
 20 23  2  0  0  0  0
 22 41  1  0  0  0  0
 22 42  1  0  0  0  0
 23 43  1  0  0  0  0
 23 44  1  0  0  0  0
 24 25  1  0  0  0  0
 25 26  1  0  0  0  0
 25 27  1  0  0  0  0
 26 45  1  0  0  0  0
 26 46  1  0  0  0  0
 27 47  1  0  0  0  0
 27 48  1  0  0  0  0
 27 49  1  0  0  0  0
M  END
> <PUBCHEM_COMPOUND_CID>
442140

> <PUBCHEM_COMPOUND_CANONICALIZED>
1

> <PUBCHEM_CACTVS_COMPLEXITY>
736

> <PUBCHEM_CACTVS_HBOND_ACCEPTOR>
7

> <PUBCHEM_CACTVS_HBOND_DONOR>
2

> <PUBCHEM_CACTVS_ROTATABLE_BOND>
4

> <PUBCHEM_CACTVS_SUBSKEYS>
AAADceB4OAAEAAAAAAAAAAAAEgAAAaIAAAAAAAAABgAAAADQAAAAGgIACAAADVeggEICCAAABgCIAgDSCAIAAAAgAAAAAAFAA0gBFBIAIQACQAAFwAADIIHK6PyOgAAAAAAAAAAAAAAAAAAAAYAADCAAAA==

> <PUBCHEM_IUPAC_OPENEYE_NAME>
[(3aR,4S,6aR,8S,9S,9aS,9bS)-8-hydroxy-3,6-dimethylene-2-oxo-spiro[3a,4,5,6a,7,8,9a,9b-octahydroazuleno[4,5-b]furan-9,2'-oxirane]-4-yl] (2S)-3-chloro-2-hydroxy-2-methyl-propanoate

> <PUBCHEM_IUPAC_CAS_NAME>
(2S)-3-chloro-2-hydroxy-2-methylpropanoic acid [(3aR,4S,6aR,8S,9S,9aS,9bS)-8-hydroxy-3,6-dimethylene-2-oxo-4-spiro[3a,4,5,6a,7,8,9a,9b-octahydroazuleno[4,5-b]furan-9,2'-oxirane]yl] ester

> <PUBCHEM_IUPAC_NAME>
[(3aR,4S,6aR,8S,9S,9aS,9bS)-8-hydroxy-3,6-dimethylidene-2-oxospiro[3a,4,5,6a,7,8,9a,9b-octahydroazuleno[4,5-b]furan-9,2'-oxirane]-4-yl] (2S)-3-chloro-2-hydroxy-2-methylpropanoate

> <PUBCHEM_IUPAC_SYSTEMATIC_NAME>
[(3aR,4S,6aR,8S,9S,9aS,9bS)-3,6-dimethylidene-8-oxidanyl-2-oxidanylidene-spiro[3a,4,5,6a,7,8,9a,9b-octahydroazuleno[4,5-b]furan-9,2'-oxirane]-4-yl] (2S)-3-chloranyl-2-methyl-2-oxidanyl-propanoate

> <PUBCHEM_IUPAC_TRADITIONAL_NAME>
(2S)-3-chloro-2-hydroxy-2-methyl-propionic acid [(3aR,4S,6aR,8S,9S,9aS,9bS)-8-hydroxy-2-keto-3,6-dimethylene-spiro[3a,4,5,6a,7,8,9a,9b-octahydroazuleno[4,5-b]furan-9,2'-oxirane]-4-yl] ester

> <PUBCHEM_IUPAC_INCHI>
InChI=1S/C19H23ClO7/c1-8-4-11(26-17(23)18(3,24)6-20)13-9(2)16(22)27-15(13)14-10(8)5-12(21)19(14)7-25-19/h10-15,21,24H,1-2,4-7H2,3H3/t10-,11-,12-,13+,14-,15-,18+,19-/m0/s1

> <PUBCHEM_IUPAC_INCHIKEY>
RFRUYYQMUJRBAN-LKUPFZQBSA-N

> <PUBCHEM_XLOGP3_AA>
0.6

> <PUBCHEM_EXACT_MASS>
398.113231

> <PUBCHEM_MOLECULAR_FORMULA>
C19H23ClO7

> <PUBCHEM_MOLECULAR_WEIGHT>
398.83472

> <PUBCHEM_OPENEYE_CAN_SMILES>
CC(CCl)(C(=O)OC1CC(=C)C2CC(C3(C2C4C1C(=C)C(=O)O4)CO3)O)O

> <PUBCHEM_OPENEYE_ISO_SMILES>
C[C@@](CCl)(C(=O)O[C@H]1CC(=C)[C@@H]2C[C@@H]([C@]3([C@@H]2[C@@H]4[C@@H]1C(=C)C(=O)O4)CO3)O)O

> <PUBCHEM_CACTVS_TPSA>
106

> <PUBCHEM_MONOISOTOPIC_WEIGHT>
398.113231

> <PUBCHEM_TOTAL_CHARGE>
0

> <PUBCHEM_HEAVY_ATOM_COUNT>
27

> <PUBCHEM_ATOM_DEF_STEREO_COUNT>
8

> <PUBCHEM_ATOM_UDEF_STEREO_COUNT>
0

> <PUBCHEM_BOND_DEF_STEREO_COUNT>
0

> <PUBCHEM_BOND_UDEF_STEREO_COUNT>
0

> <PUBCHEM_ISOTOPIC_ATOM_COUNT>
0

> <PUBCHEM_COMPONENT_COUNT>
1

> <PUBCHEM_CACTVS_TAUTO_COUNT>
1

> <PUBCHEM_COORDINATE_TYPE>
1
5
255

> <PUBCHEM_BONDANNOTATIONS>
10  28  5
11  29  5
13  31  6
16  36  5
9  2  6
12  4  6
18  5  5
25  8  6

$$$$

