220802
  -OEChem-07051213142D

 73 72  0     0  0  0  0  0  0999 V2000
    3.7320    0.0000    0.0000 Se  0  0  0  0  0  0  0  0  0  0  0  0
    3.7320    1.0000    0.0000 S   0  0  0  0  0  0  0  0  0  0  0  0
    3.7320   -1.0000    0.0000 S   0  0  0  0  0  0  0  0  0  0  0  0
    4.5981   -0.5000    0.0000 S   0  0  0  0  0  0  0  0  0  0  0  0
    4.5981    0.5000    0.0000 S   0  0  0  0  0  0  0  0  0  0  0  0
    2.0000    1.0000    0.0000 S   0  0  0  0  0  0  0  0  0  0  0  0
    2.0000   -1.0000    0.0000 S   0  0  0  0  0  0  0  0  0  0  0  0
    5.4641    1.0000    0.0000 S   0  0  0  0  0  0  0  0  0  0  0  0
    3.7320    2.0000    0.0000 S   0  0  0  0  0  0  0  0  0  0  0  0
    2.8660    2.5000    0.0000 N   0  0  0  0  0  0  0  0  0  0  0  0
    5.4641    2.0000    0.0000 N   0  0  0  0  0  0  0  0  0  0  0  0
    6.3301   -0.5000    0.0000 N   0  0  0  0  0  0  0  0  0  0  0  0
    2.8660   -2.5000    0.0000 N   0  0  0  0  0  0  0  0  0  0  0  0
    2.0000    3.0000    0.0000 C   0  0  0  0  0  0  0  0  0  0  0  0
    3.7320    3.0000    0.0000 C   0  0  0  0  0  0  0  0  0  0  0  0
    5.4641    3.0000    0.0000 C   0  0  0  0  0  0  0  0  0  0  0  0
    6.3301    1.5000    0.0000 C   0  0  0  0  0  0  0  0  0  0  0  0
    6.3301   -1.5000    0.0000 C   0  0  0  0  0  0  0  0  0  0  0  0
    7.1962    0.0000    0.0000 C   0  0  0  0  0  0  0  0  0  0  0  0
    2.0000   -3.0000    0.0000 C   0  0  0  0  0  0  0  0  0  0  0  0
    3.7320   -3.0000    0.0000 C   0  0  0  0  0  0  0  0  0  0  0  0
    2.8660    1.5000    0.0000 C   0  0  0  0  0  0  0  0  0  0  0  0
    2.8660   -1.5000    0.0000 C   0  0  0  0  0  0  0  0  0  0  0  0
    5.4641    0.0000    0.0000 C   0  0  0  0  0  0  0  0  0  0  0  0
    4.5981    1.5000    0.0000 C   0  0  0  0  0  0  0  0  0  0  0  0
    2.0000    4.0000    0.0000 C   0  0  0  0  0  0  0  0  0  0  0  0
    3.7320    4.0000    0.0000 C   0  0  0  0  0  0  0  0  0  0  0  0
    6.3301    3.5000    0.0000 C   0  0  0  0  0  0  0  0  0  0  0  0
    7.1962    2.0000    0.0000 C   0  0  0  0  0  0  0  0  0  0  0  0
    7.1962   -2.0000    0.0000 C   0  0  0  0  0  0  0  0  0  0  0  0
    8.0622   -0.5000    0.0000 C   0  0  0  0  0  0  0  0  0  0  0  0
    2.0000   -4.0000    0.0000 C   0  0  0  0  0  0  0  0  0  0  0  0
    3.7320   -4.0000    0.0000 C   0  0  0  0  0  0  0  0  0  0  0  0
    1.3894    3.1077    0.0000 H   0  0  0  0  0  0  0  0  0  0  0  0
    1.7880    2.4174    0.0000 H   0  0  0  0  0  0  0  0  0  0  0  0
    3.9441    2.4174    0.0000 H   0  0  0  0  0  0  0  0  0  0  0  0
    4.3426    3.1077    0.0000 H   0  0  0  0  0  0  0  0  0  0  0  0
    5.2520    3.5826    0.0000 H   0  0  0  0  0  0  0  0  0  0  0  0
    4.8535    2.8923    0.0000 H   0  0  0  0  0  0  0  0  0  0  0  0
    5.9316    1.0250    0.0000 H   0  0  0  0  0  0  0  0  0  0  0  0
    6.7287    1.0250    0.0000 H   0  0  0  0  0  0  0  0  0  0  0  0
    5.7196   -1.3923    0.0000 H   0  0  0  0  0  0  0  0  0  0  0  0
    6.1181   -2.0826    0.0000 H   0  0  0  0  0  0  0  0  0  0  0  0
    7.5947    0.4749    0.0000 H   0  0  0  0  0  0  0  0  0  0  0  0
    6.7976    0.4749    0.0000 H   0  0  0  0  0  0  0  0  0  0  0  0
    1.7880   -2.4174    0.0000 H   0  0  0  0  0  0  0  0  0  0  0  0
    1.3894   -3.1077    0.0000 H   0  0  0  0  0  0  0  0  0  0  0  0
    4.3426   -3.1077    0.0000 H   0  0  0  0  0  0  0  0  0  0  0  0
    3.9441   -2.4174    0.0000 H   0  0  0  0  0  0  0  0  0  0  0  0
    7.5062    1.4631    0.0000 H   0  0  0  0  0  0  0  0  0  0  0  0
    7.7331    2.3100    0.0000 H   0  0  0  0  0  0  0  0  0  0  0  0
    6.8862    2.5369    0.0000 H   0  0  0  0  0  0  0  0  0  0  0  0
    6.6401    2.9631    0.0000 H   0  0  0  0  0  0  0  0  0  0  0  0
    6.8671    3.8100    0.0000 H   0  0  0  0  0  0  0  0  0  0  0  0
    6.0201    4.0369    0.0000 H   0  0  0  0  0  0  0  0  0  0  0  0
    4.3520    4.0000    0.0000 H   0  0  0  0  0  0  0  0  0  0  0  0
    3.7320    4.6200    0.0000 H   0  0  0  0  0  0  0  0  0  0  0  0
    3.1120    4.0000    0.0000 H   0  0  0  0  0  0  0  0  0  0  0  0
    2.6200    4.0000    0.0000 H   0  0  0  0  0  0  0  0  0  0  0  0
    2.0000    4.6200    0.0000 H   0  0  0  0  0  0  0  0  0  0  0  0
    1.3800    4.0000    0.0000 H   0  0  0  0  0  0  0  0  0  0  0  0
    6.8862   -2.5369    0.0000 H   0  0  0  0  0  0  0  0  0  0  0  0
    7.7331   -2.3100    0.0000 H   0  0  0  0  0  0  0  0  0  0  0  0
    7.5062   -1.4631    0.0000 H   0  0  0  0  0  0  0  0  0  0  0  0
    7.7522   -1.0369    0.0000 H   0  0  0  0  0  0  0  0  0  0  0  0
    8.5991   -0.8100    0.0000 H   0  0  0  0  0  0  0  0  0  0  0  0
    8.3722    0.0369    0.0000 H   0  0  0  0  0  0  0  0  0  0  0  0
    1.3800   -4.0000    0.0000 H   0  0  0  0  0  0  0  0  0  0  0  0
    2.0000   -4.6200    0.0000 H   0  0  0  0  0  0  0  0  0  0  0  0
    2.6200   -4.0000    0.0000 H   0  0  0  0  0  0  0  0  0  0  0  0
    3.1120   -4.0000    0.0000 H   0  0  0  0  0  0  0  0  0  0  0  0
    3.7320   -4.6200    0.0000 H   0  0  0  0  0  0  0  0  0  0  0  0
    4.3520   -4.0000    0.0000 H   0  0  0  0  0  0  0  0  0  0  0  0
  1  2  1  0  0  0  0
  1  3  1  0  0  0  0
  1  4  1  0  0  0  0
  1  5  1  0  0  0  0
  2 22  1  0  0  0  0
  3 23  1  0  0  0  0
  4 24  1  0  0  0  0
  5 25  1  0  0  0  0
  6 22  2  0  0  0  0
  7 23  2  0  0  0  0
  8 24  2  0  0  0  0
  9 25  2  0  0  0  0
 10 14  1  0  0  0  0
 10 15  1  0  0  0  0
 10 22  1  0  0  0  0
 11 16  1  0  0  0  0
 11 17  1  0  0  0  0
 11 25  1  0  0  0  0
 12 18  1  0  0  0  0
 12 19  1  0  0  0  0
 12 24  1  0  0  0  0
 13 20  1  0  0  0  0
 13 21  1  0  0  0  0
 13 23  1  0  0  0  0
 14 26  1  0  0  0  0
 14 34  1  0  0  0  0
 14 35  1  0  0  0  0
 15 27  1  0  0  0  0
 15 36  1  0  0  0  0
 15 37  1  0  0  0  0
 16 28  1  0  0  0  0
 16 38  1  0  0  0  0
 16 39  1  0  0  0  0
 17 29  1  0  0  0  0
 17 40  1  0  0  0  0
 17 41  1  0  0  0  0
 18 30  1  0  0  0  0
 18 42  1  0  0  0  0
 18 43  1  0  0  0  0
 19 31  1  0  0  0  0
 19 44  1  0  0  0  0
 19 45  1  0  0  0  0
 20 32  1  0  0  0  0
 20 46  1  0  0  0  0
 20 47  1  0  0  0  0
 21 33  1  0  0  0  0
 21 48  1  0  0  0  0
 21 49  1  0  0  0  0
 26 59  1  0  0  0  0
 26 60  1  0  0  0  0
 26 61  1  0  0  0  0
 27 56  1  0  0  0  0
 27 57  1  0  0  0  0
 27 58  1  0  0  0  0
 28 53  1  0  0  0  0
 28 54  1  0  0  0  0
 28 55  1  0  0  0  0
 29 50  1  0  0  0  0
 29 51  1  0  0  0  0
 29 52  1  0  0  0  0
 30 62  1  0  0  0  0
 30 63  1  0  0  0  0
 30 64  1  0  0  0  0
 31 65  1  0  0  0  0
 31 66  1  0  0  0  0
 31 67  1  0  0  0  0
 32 68  1  0  0  0  0
 32 69  1  0  0  0  0
 32 70  1  0  0  0  0
 33 71  1  0  0  0  0
 33 72  1  0  0  0  0
 33 73  1  0  0  0  0
M  END
> <PUBCHEM_COMPOUND_CID>
220802

> <PUBCHEM_COMPOUND_CANONICALIZED>
1

> <PUBCHEM_CACTVS_COMPLEXITY>
526

> <PUBCHEM_CACTVS_HBOND_ACCEPTOR>
8

> <PUBCHEM_CACTVS_HBOND_DONOR>
0

> <PUBCHEM_CACTVS_ROTATABLE_BOND>
16

> <PUBCHEM_CACTVS_SUBSKEYS>
AAADcfB7gAB4AAAAIAAAAAAAAAAAAAAAAAAAAAAAAAAAAAAAAAAAHAQAAAAAAADBAAQCAAMAAAAEAAAAAAAAAAAAAAgAAAAIAAAAAAAAAAAAAAAAAACAAAAAAAAAAAAAAAAAAAAAAAAAAAAAAAAAAAAAAA==

> <PUBCHEM_IUPAC_OPENEYE_NAME>
[tris(diethylcarbamothioylsulfanyl)-$l^{4}-selanyl] N,N-diethylcarbamodithioate

> <PUBCHEM_IUPAC_CAS_NAME>
N,N-diethylcarbamodithioic acid [tris[[diethylamino(sulfanylidene)methyl]thio]-$l^{4}-selanyl] ester

> <PUBCHEM_IUPAC_NAME>
[tris(diethylcarbamothioylsulfanyl)-$l^{4}-selanyl] N,N-diethylcarbamodithioate

> <PUBCHEM_IUPAC_SYSTEMATIC_NAME>
[tris(diethylcarbamothioylsulfanyl)-$l^{4}-selanyl] N,N-diethylcarbamodithioate

> <PUBCHEM_IUPAC_TRADITIONAL_NAME>
N,N-diethylcarbamodithioic acid tris(diethylthiocarbamoylthio)selenuranyl ester

> <PUBCHEM_IUPAC_INCHI>
InChI=1S/C20H40N4S8Se/c1-9-21(10-2)17(25)29-33(30-18(26)22(11-3)12-4,31-19(27)23(13-5)14-6)32-20(28)24(15-7)16-8/h9-16H2,1-8H3

> <PUBCHEM_IUPAC_INCHIKEY>
VNYKETBBOXBLET-UHFFFAOYSA-N

> <PUBCHEM_EXACT_MASS>
672.018387

> <PUBCHEM_MOLECULAR_FORMULA>
C20H40N4S8Se

> <PUBCHEM_MOLECULAR_WEIGHT>
672.0384

> <PUBCHEM_OPENEYE_CAN_SMILES>
CCN(CC)C(=S)S[Se](SC(=S)N(CC)CC)(SC(=S)N(CC)CC)SC(=S)N(CC)CC

> <PUBCHEM_OPENEYE_ISO_SMILES>
CCN(CC)C(=S)S[Se](SC(=S)N(CC)CC)(SC(=S)N(CC)CC)SC(=S)N(CC)CC

> <PUBCHEM_CACTVS_TPSA>
243

> <PUBCHEM_MONOISOTOPIC_WEIGHT>
672.018387

> <PUBCHEM_TOTAL_CHARGE>
0

> <PUBCHEM_HEAVY_ATOM_COUNT>
33

> <PUBCHEM_ATOM_DEF_STEREO_COUNT>
0

> <PUBCHEM_ATOM_UDEF_STEREO_COUNT>
0

> <PUBCHEM_BOND_DEF_STEREO_COUNT>
0

> <PUBCHEM_BOND_UDEF_STEREO_COUNT>
0

> <PUBCHEM_ISOTOPIC_ATOM_COUNT>
0

> <PUBCHEM_COMPONENT_COUNT>
1

> <PUBCHEM_CACTVS_TAUTO_COUNT>
1

> <PUBCHEM_COORDINATE_TYPE>
1
5
255

$$$$

