   Color/Form

     * Oily, white, crystalline solid
     * Crystals from methanol
     * Leaflets from ethyl ether

   from [1]HSDB

   Odor
        The odor should be faint with no rancidity.
   from [2]HSDB

   Boiling Point
        326.2 deg C
   from [3]HSDB

   Melting Point
        53.9 deg C
   from [4]HSDB

   Density/Specific Gravity
        0.8622 at 54 deg C/4 deg C
   from [5]HSDB

   Dissociation Constants
        pKa = 4.90
   from [6]HSDB

   Heat of Combustion
        -8,721.4 kJ/mol
   from [7]HSDB

   Octanol/Water Partition Coefficient
        log Kow = 6.11
   from [8]HSDB

   Solubilities

     * Sol in absolute alcohol, methanol, ether, petroleum ether, benzene,
       chloroform
     * Slightly soluble in ethyl ether; soluble in ethanol, acetone,
       chloroform, methanol; very soluble in benzene
     * In water, 22 mg/L at 30 deg C

   from [9]HSDB

   Spectral Properties

     * Index of refraction: 1.4723 at 70 deg C/D
     * MAXIMUM ABSORPTION (HEPTANE): 210 NM (LOG E= 1.85)
     * Intense mass spectral peaks: 73 m/z (100%), 60 m/z (92%), 43 m/z
       (85%), 41 m/z (73%)
     * IR: u 21400 (Sadtler Research Laboratories Prism Collection)
     * 1H NMR: 167 (Sadtler Research Laboratories Spectral Collection)
     * UV: HBCP
     * MASS: 27823 (NIST/EPA/MSDC Mass Spectral database, 1990 version
     * Intense mass spectral peaks: 56 m/z, 129 m/z, 185 m/z, 228 m/z

   from [10]HSDB

   Surface Tension
        27.4 dynes/cm at 70 deg C
   from [11]HSDB

   Vapor Pressure
        1.40X10-6 mm Hg at 25 deg C
   from [12]HSDB

   Viscosity
        5.83 mPa sec at 70 deg C
   from [13]HSDB

   Other Chemical/Physical Properties

     * Neutralization value: 245.68
     * Heat of fusion = 44.8 kJ/mol; specific heat = 1.60 J/g (for the
       solid)
     * Henry's Law constant = 4.95X10-7 atm-cu m/mol at 25 deg C (est)
     * Hydroxyl radical reaction rate constant = 1.68X10-11 cu-cm/molec
       sec at 25 deg C (est)

   from [14]HSDB

   Computed Properties
   Molecular Weight                  228.37092 [g/mol]
   Molecular Formula                 C[14]H[28]O[2]
   XLogP3                            5.3
   H-Bond Donor                      1
   H-Bond Acceptor                   2
   Rotatable Bond Count              12
   Exact Mass                        228.20893
   MonoIsotopic Mass                 228.20893
   Topological Polar Surface Area    37.3
   Heavy Atom Count                  16
   Formal Charge                     0
   Complexity                        155
   Isotope Atom Count                0
   Defined Atom Stereocenter Count   0
   Undefined Atom Stereocenter Count 0
   Defined Bond Stereocenter Count   0
   Undefined Bond Stereocenter Count 0
   Covalently-Bonded Unit Count      1
   Feature 3D Acceptor Count         2
   Feature 3D Anion Count            1
   Feature 3D Hydrophobe Count       1
   Effective Rotor Count             12
   Conformer Sampling RMSD           1
   CID Conformer Count               [15]411

References

   1. http://toxnet.nlm.nih.gov/cgi-bin/sis/search/r?dbs+hsdb:@term+@rn+@rel+544-63-8
   2. http://toxnet.nlm.nih.gov/cgi-bin/sis/search/r?dbs+hsdb:@term+@rn+@rel+544-63-8
   3. http://toxnet.nlm.nih.gov/cgi-bin/sis/search/r?dbs+hsdb:@term+@rn+@rel+544-63-8
   4. http://toxnet.nlm.nih.gov/cgi-bin/sis/search/r?dbs+hsdb:@term+@rn+@rel+544-63-8
   5. http://toxnet.nlm.nih.gov/cgi-bin/sis/search/r?dbs+hsdb:@term+@rn+@rel+544-63-8
   6. http://toxnet.nlm.nih.gov/cgi-bin/sis/search/r?dbs+hsdb:@term+@rn+@rel+544-63-8
   7. http://toxnet.nlm.nih.gov/cgi-bin/sis/search/r?dbs+hsdb:@term+@rn+@rel+544-63-8
   8. http://toxnet.nlm.nih.gov/cgi-bin/sis/search/r?dbs+hsdb:@term+@rn+@rel+544-63-8
   9. http://toxnet.nlm.nih.gov/cgi-bin/sis/search/r?dbs+hsdb:@term+@rn+@rel+544-63-8
  10. http://toxnet.nlm.nih.gov/cgi-bin/sis/search/r?dbs+hsdb:@term+@rn+@rel+544-63-8
  11. http://toxnet.nlm.nih.gov/cgi-bin/sis/search/r?dbs+hsdb:@term+@rn+@rel+544-63-8
  12. http://toxnet.nlm.nih.gov/cgi-bin/sis/search/r?dbs+hsdb:@term+@rn+@rel+544-63-8
  13. http://toxnet.nlm.nih.gov/cgi-bin/sis/search/r?dbs+hsdb:@term+@rn+@rel+544-63-8
  14. http://toxnet.nlm.nih.gov/cgi-bin/sis/search/r?dbs+hsdb:@term+@rn+@rel+544-63-8
  15. http://pubchem.ncbi.nlm.nih.gov/vw3d/vw3d.cgi?cid=11005
