   Color/Form

     * White to yellow, crystalline powder
     * Odorless, crystalline soild
     * White, free-flowing crystalline

   from [1]HSDB

   Color/Form

     * White or yellowish powder or flakes
     * White-colored powder
     * Grayish or brownish amorphous solid /crude product/

   from [2]HSDB

   Color/Form

     * MONOCLINIC PRISMS FROM ALCOHOL OR ACETIC ACID
     * Crystals

   from [3]HSDB

   Color/Form
        Crystals from benzene, alcohol, or xylene
   from [4]HSDB

   Color/Form
        Crystals or fine platelets
   from [5]HSDB

   Odor

     * Slight musty odor
     * Odorless

   from [6]HSDB

   Odor

     * PERSISTENT MUSTY ODOR
     * Characteristic musty odor /crude product/

   from [7]HSDB

   Boiling Point
        323.4 deg C at 760 mm Hg
   from [8]HSDB

   Boiling Point
        288 deg C
   from [9]HSDB

   Boiling Point
        60 deg C AT 0.50 mm Hg
   from [10]HSDB

   Boiling Point
        60 deg C AT 0.36 mm Hg
   from [11]HSDB

   Melting Point
        112.5 deg C
   from [12]HSDB

   Melting Point
        Begins to melt at 65 deg C /crude product/
   from [13]HSDB

   Melting Point
        158 deg C
   from [14]HSDB

   Melting Point
        309 deg C
   from [15]HSDB

   Melting Point
        141.5 deg C
   from [16]HSDB

   Corrosivity
        Corrosive to metals.
   from [17]HSDB

   Density/Specific Gravity
        1.85
   from [18]HSDB

   Density/Specific Gravity
        1.675
   from [19]HSDB

   Density/Specific Gravity
        1.87 at 20 deg C
   from [20]HSDB

   Density/Specific Gravity
        1.89 at 19 deg C
   from [21]HSDB

   Octanol/Water Partition Coefficient
        log Kow = 3.72
   from [22]HSDB

   Octanol/Water Partition Coefficient
        log Kow = 3.8
   from [23]HSDB

   Octanol/Water Partition Coefficient
        log Kow = 3.78
   from [24]HSDB

   Octanol/Water Partition Coefficient
        log Kow = 4.14
   from [25]HSDB

   Solubilities

     * In water, 7.3 mg/L at 25 deg C
     * In acetone >200, methanol 29-40, xylene 250, ethyl acetate >200,
       n-heptane 10-14 (all in g/L at 20 deg C).

   from [26]HSDB

   Solubilities

     * SOL IN ETHYL ALCOHOL & ETHYL ETHER
     * Practically insoluble in water.
     * Soluble in benzene and chloroform.

   from [27]HSDB

   Solubilities

     * 1.8 g per 100 g of ethanol; 6.2 g per 100 g of ether
     * 1.4 mg/L (in salt water)
     * In water, 2 mg/L at 25 deg C

   from [28]HSDB

   Solubilities

     * IN 213 PARTS BENZENE AT 17.25 DEG C
     * In water, 0.2 mg/L at 20 deg C
     * 1.1 G/100 G ETHANOL; 1.8 G/100 G ETHER
     * Soluble in ethanol, benzene, and chloroform.

   from [29]HSDB

   Solubilities

     * 10 ppm in water; 24.4 g/100 g ethanol; 35.4 g/100 g ether; 41.1
       g/100 g benzene
     * In water, 31.4 mg/L at 25 eg C [Shiu WY et al; Rev Environ Contam
       Toxicol 116: 15-187 (1990)] [30]PubMed Abstract

   from [31]HSDB

   Spectral Properties

     * Index of refraction: 1.644 at 20 deg C/D
     * SADTLER REFERENCE NUMBER: 9697 (IR, PRISM)
     * Intense mass spectral peaks: 181 m/z (100%), 183 m/z (98%), 109 m/z
       (98%), 51 m/z (91%)
     * IR: 574 (Sadtler Research Laboratories IR Grating Collection)
     * NMR: 7046 (Sadtler Research Laboratories Spectral Collection)
     * MASS: 53827 (NIST/EPA/MSDC Mass Spectral Data Base, 1990 version)
     * Intense mass spectral peaks: 217 m/z, 252 m/z, 288 m/z

   from [32]HSDB

   Spectral Properties

     * Index of refraction: 1.60 to 1.626 at 20 deg C/D
     * SADTLER REFERENCE NUMBER: 9699 (IR, PRISM)
     * IR: 2562 (Coblentz Society Spectral Collection)
     * MASS: 4774 (National Bureau of Standards EPA-NIH Mass Spectra Data
       Base, NSRDS-NBS-63)

   from [33]HSDB

   Spectral Properties

     * Index of refraction: 1.630 at 20 deg C/D
     * SADTLER REFERENCE NUMBER: 9698 (IR, PRISM)
     * IR: 2214 (Coblentz Society Spectral Collection)
     * MASS: 4774 (National Bureau of Standards EPA-NIH Mass Spectra Data
       Base, NSRDS-NBS-63)

   from [34]HSDB

   Spectral Properties

     * Index of refraction: 1.576 to 1.674 at 20 deg C/D
     * IR: 9696 (Sadtler Research Laboratories Prism Collection)
     * MASS: 4774 (National Bureau of Standards EPA-NIH Mass Spectra Data
       Base, NSRDS-NBS-63)

   from [35]HSDB

   Vapor Pressure
        4.20X10-5 mm Hg at 20 deg C
   from [36]HSDB

   Vapor Pressure
        Approx 0.5 mm hg (60 deg C)
   from [37]HSDB

   Vapor Pressure
        4.5X10-5 mm Hg at 25 deg C (est)
   from [38]HSDB

   Vapor Pressure
        3.6X10-7 mm Hg at 20 deg C.
   from [39]HSDB

   Vapor Pressure
        3.5X10-5 mm Hg at 25 deg C
   from [40]HSDB

   Relative Evaporation Rate
        1.5X10-4 m/hr
   from [41]HSDB

   Other Chemical/Physical Properties

     * Possesses more vapor activity than most organochlorine
       insecticides.
     * Lindane heated in steam at 102 deg C produced ... 0.13% hydrogen
       chloride.
     * Vapor pressure: 9.4X10-6 mm Hg @ 20 deg C
     * Extremely stable to light, air, temperatures up to 180 deg C, and
       to acids. In alkalis undergoes dehydrochlorination
     * Henry's Law constant = 5.14X10-6 atm-cu m/mol at 25 deg C
     * Hydroxyl radical reaction rate constant = 1.90X10-13 atm-cu m/mol
       at 25 deg C

   from [42]HSDB

   Other Chemical/Physical Properties

     * Decomp by alkaline substances
     * The different isomers differ widely in their melting points.
     * The various isomers differ greatly in their solubilities.

   from [43]HSDB

   Other Chemical/Physical Properties

     * (14)C-LABELED ALPHA-BHC WAS USED TO STUDY EFFECT OF HEATING AT
       BAKING TEMPERATURES IN FLOUR. ABOUT 90% OF RESIDUAL ACTIVITY WAS
       1,2,4-TRICHLOROBENZENE. SMALL AMT OF 1,2,3- &
       1,3,5-TRICHLOROBENZENE, THE THREE DICHLOROBENZENES, CHLOROBENZENE &
       POSSIBLY BENZENE WERE ALSO PRESENT.
     * Brownish-to-white crystalline solid /Technical grade
       hexachlorocyclohexane/
     * Phosgene-like odor /Technical-grade hexachlorocyclohexane/
     * Henry's Law constant = 6.68X10-6 atm-cu m/mole at 23 deg C
     * Hydroxyl radical reaction rate constant = 1.4X10-13 cu
       cm/molecule-sec at 25 deg C
     * The transformation of benzene hexachloride (BHC) isomers alpha-,
       beta-, gamma-, and delta-, in aqueous solution was studied at 25 +
       or - 1 deg C for 4 wk using GLC. Results indicated a loss and
       interconversion of all isomers with time.

   from [44]HSDB

   Other Chemical/Physical Properties

     * beta-Hexachlorocyclohexane is a photolysis product of lindane.
     * Sublimes at 297 deg C
     * Henry's Law constant = 4.4X10-7 atm-cu m/mole at 23 deg C
     * Hydroxyl radical reaction rate constant = 5.7X10-13 cu
       cm/molecule-sec at 25 deg C (est)
     * The transformation of benzene hexachloride (BHC) isomers alpha-,
       beta-, gamma-, and delta-, in aqueous solution was studied at 25 +
       or - 1 deg C for 4 wk using GLC. Results indicated a loss and
       interconversion of all isomers with time.

   from [45]HSDB

   Other Chemical/Physical Properties

     * Henry's Law constant = 4.3X10-7 atm-cu m/mol at 25 deg C (est)
     * Hydroxyl radical reaction rate constant = 5.7X10-13 cu
       cm/molecule-sec at 25 deg C (est)
     * The transformation of benzene hexachloride (BHC) isomers alpha-,
       beta-, gamma-, and delta-, in aqueous solution was studied at 25 +
       or - 1 deg C for 4 wk using GLC. Results indicated a loss and
       interconversion of all isomers with time.

   from [46]HSDB

   Computed Properties
   Molecular Weight                  290.82984 [g/mol]
   Molecular Formula                 C[6]H[6]Cl[6]
   XLogP3                            3.8
   H-Bond Donor                      0
   H-Bond Acceptor                   0
   Rotatable Bond Count              0
   Exact Mass                        289.857116
   MonoIsotopic Mass                 287.860066
   Topological Polar Surface Area    0
   Heavy Atom Count                  12
   Formal Charge                     0
   Complexity                        104
   Isotope Atom Count                0
   Defined Atom Stereocenter Count   0
   Undefined Atom Stereocenter Count 0
   Defined Bond Stereocenter Count   0
   Undefined Bond Stereocenter Count 0
   Covalently-Bonded Unit Count      1
   Feature 3D Ring Count             1
   Effective Rotor Count             1.2
   Conformer Sampling RMSD           0.4
   CID Conformer Count               [47]2

References

   1. http://toxnet.nlm.nih.gov/cgi-bin/sis/search/r?dbs+hsdb:@term+@rn+@rel+58-89-9
   2. http://toxnet.nlm.nih.gov/cgi-bin/sis/search/r?dbs+hsdb:@term+@rn+@rel+608-73-1
   3. http://toxnet.nlm.nih.gov/cgi-bin/sis/search/r?dbs+hsdb:@term+@rn+@rel+319-84-6
   4. http://toxnet.nlm.nih.gov/cgi-bin/sis/search/r?dbs+hsdb:@term+@rn+@rel+319-85-7
   5. http://toxnet.nlm.nih.gov/cgi-bin/sis/search/r?dbs+hsdb:@term+@rn+@rel+319-86-8
   6. http://toxnet.nlm.nih.gov/cgi-bin/sis/search/r?dbs+hsdb:@term+@rn+@rel+58-89-9
   7. http://toxnet.nlm.nih.gov/cgi-bin/sis/search/r?dbs+hsdb:@term+@rn+@rel+608-73-1
   8. http://toxnet.nlm.nih.gov/cgi-bin/sis/search/r?dbs+hsdb:@term+@rn+@rel+58-89-9
   9. http://toxnet.nlm.nih.gov/cgi-bin/sis/search/r?dbs+hsdb:@term+@rn+@rel+319-84-6
  10. http://toxnet.nlm.nih.gov/cgi-bin/sis/search/r?dbs+hsdb:@term+@rn+@rel+319-85-7
  11. http://toxnet.nlm.nih.gov/cgi-bin/sis/search/r?dbs+hsdb:@term+@rn+@rel+319-86-8
  12. http://toxnet.nlm.nih.gov/cgi-bin/sis/search/r?dbs+hsdb:@term+@rn+@rel+58-89-9
  13. http://toxnet.nlm.nih.gov/cgi-bin/sis/search/r?dbs+hsdb:@term+@rn+@rel+608-73-1
  14. http://toxnet.nlm.nih.gov/cgi-bin/sis/search/r?dbs+hsdb:@term+@rn+@rel+319-84-6
  15. http://toxnet.nlm.nih.gov/cgi-bin/sis/search/r?dbs+hsdb:@term+@rn+@rel+319-85-7
  16. http://toxnet.nlm.nih.gov/cgi-bin/sis/search/r?dbs+hsdb:@term+@rn+@rel+319-86-8
  17. http://toxnet.nlm.nih.gov/cgi-bin/sis/search/r?dbs+hsdb:@term+@rn+@rel+58-89-9
  18. http://toxnet.nlm.nih.gov/cgi-bin/sis/search/r?dbs+hsdb:@term+@rn+@rel+58-89-9
  19. http://toxnet.nlm.nih.gov/cgi-bin/sis/search/r?dbs+hsdb:@term+@rn+@rel+608-73-1
  20. http://toxnet.nlm.nih.gov/cgi-bin/sis/search/r?dbs+hsdb:@term+@rn+@rel+319-84-6
  21. http://toxnet.nlm.nih.gov/cgi-bin/sis/search/r?dbs+hsdb:@term+@rn+@rel+319-85-7
  22. http://toxnet.nlm.nih.gov/cgi-bin/sis/search/r?dbs+hsdb:@term+@rn+@rel+58-89-9
  23. http://toxnet.nlm.nih.gov/cgi-bin/sis/search/r?dbs+hsdb:@term+@rn+@rel+319-84-6
  24. http://toxnet.nlm.nih.gov/cgi-bin/sis/search/r?dbs+hsdb:@term+@rn+@rel+319-85-7
  25. http://toxnet.nlm.nih.gov/cgi-bin/sis/search/r?dbs+hsdb:@term+@rn+@rel+319-86-8
  26. http://toxnet.nlm.nih.gov/cgi-bin/sis/search/r?dbs+hsdb:@term+@rn+@rel+58-89-9
  27. http://toxnet.nlm.nih.gov/cgi-bin/sis/search/r?dbs+hsdb:@term+@rn+@rel+608-73-1
  28. http://toxnet.nlm.nih.gov/cgi-bin/sis/search/r?dbs+hsdb:@term+@rn+@rel+319-84-6
  29. http://toxnet.nlm.nih.gov/cgi-bin/sis/search/r?dbs+hsdb:@term+@rn+@rel+319-85-7
  30. http://www.ncbi.nlm.nih.gov/entrez/query.fcgi?cmd=Retrieve&db=pubmed&dopt=Abstract&list_uids=2205893
  31. http://toxnet.nlm.nih.gov/cgi-bin/sis/search/r?dbs+hsdb:@term+@rn+@rel+319-86-8
  32. http://toxnet.nlm.nih.gov/cgi-bin/sis/search/r?dbs+hsdb:@term+@rn+@rel+58-89-9
  33. http://toxnet.nlm.nih.gov/cgi-bin/sis/search/r?dbs+hsdb:@term+@rn+@rel+319-84-6
  34. http://toxnet.nlm.nih.gov/cgi-bin/sis/search/r?dbs+hsdb:@term+@rn+@rel+319-85-7
  35. http://toxnet.nlm.nih.gov/cgi-bin/sis/search/r?dbs+hsdb:@term+@rn+@rel+319-86-8
  36. http://toxnet.nlm.nih.gov/cgi-bin/sis/search/r?dbs+hsdb:@term+@rn+@rel+58-89-9
  37. http://toxnet.nlm.nih.gov/cgi-bin/sis/search/r?dbs+hsdb:@term+@rn+@rel+608-73-1
  38. http://toxnet.nlm.nih.gov/cgi-bin/sis/search/r?dbs+hsdb:@term+@rn+@rel+319-84-6
  39. http://toxnet.nlm.nih.gov/cgi-bin/sis/search/r?dbs+hsdb:@term+@rn+@rel+319-85-7
  40. http://toxnet.nlm.nih.gov/cgi-bin/sis/search/r?dbs+hsdb:@term+@rn+@rel+319-86-8
  41. http://toxnet.nlm.nih.gov/cgi-bin/sis/search/r?dbs+hsdb:@term+@rn+@rel+58-89-9
  42. http://toxnet.nlm.nih.gov/cgi-bin/sis/search/r?dbs+hsdb:@term+@rn+@rel+58-89-9
  43. http://toxnet.nlm.nih.gov/cgi-bin/sis/search/r?dbs+hsdb:@term+@rn+@rel+608-73-1
  44. http://toxnet.nlm.nih.gov/cgi-bin/sis/search/r?dbs+hsdb:@term+@rn+@rel+319-84-6
  45. http://toxnet.nlm.nih.gov/cgi-bin/sis/search/r?dbs+hsdb:@term+@rn+@rel+319-85-7
  46. http://toxnet.nlm.nih.gov/cgi-bin/sis/search/r?dbs+hsdb:@term+@rn+@rel+319-86-8
  47. http://pubchem.ncbi.nlm.nih.gov/vw3d/vw3d.cgi?cid=727
