53462
  -OEChem-07051213132D

 25 27  0     0  0  0  0  0  0999 V2000
    3.8936   -1.2117    0.0000 N   0  0  0  0  0  0  0  0  0  0  0  0
    3.8936    0.3977    0.0000 N   0  0  0  0  0  0  0  0  0  0  0  0
    7.4819    0.5998    0.0000 N   0  0  0  0  0  0  0  0  0  0  0  0
    2.3100   -0.4070    0.0000 N   0  0  0  0  0  0  0  0  0  0  0  0
    4.8398   -0.9070    0.0000 C   0  0  0  0  0  0  0  0  0  0  0  0
    4.8398    0.0930    0.0000 C   0  0  0  0  0  0  0  0  0  0  0  0
    5.7058    0.5930    0.0000 C   0  0  0  0  0  0  0  0  0  0  0  0
    6.5719    0.0930    0.0000 C   0  0  0  0  0  0  0  0  0  0  0  0
    3.3100   -0.4070    0.0000 C   0  0  0  0  0  0  0  0  0  0  0  0
    5.7058   -1.4070    0.0000 C   0  0  0  0  0  0  0  0  0  0  0  0
    6.5719   -0.9070    0.0000 C   0  0  0  0  0  0  0  0  0  0  0  0
    3.5830   -2.1623    0.0000 C   0  0  0  0  0  0  0  0  0  0  0  0
    5.6898    1.6345    0.0000 C   0  0  0  0  0  0  0  0  0  0  0  0
    6.5878    2.1623    0.0000 C   0  0  0  0  0  0  0  0  0  0  0  0
    7.4899    1.6414    0.0000 C   0  0  0  0  0  0  0  0  0  0  0  0
    5.7058   -2.0270    0.0000 H   0  0  0  0  0  0  0  0  0  0  0  0
    7.1088   -1.2170    0.0000 H   0  0  0  0  0  0  0  0  0  0  0  0
    2.9936   -1.9696    0.0000 H   0  0  0  0  0  0  0  0  0  0  0  0
    3.3903   -2.7516    0.0000 H   0  0  0  0  0  0  0  0  0  0  0  0
    4.1723   -2.3549    0.0000 H   0  0  0  0  0  0  0  0  0  0  0  0
    5.1493    1.9383    0.0000 H   0  0  0  0  0  0  0  0  0  0  0  0
    6.5854    2.7822    0.0000 H   0  0  0  0  0  0  0  0  0  0  0  0
    2.0000    0.1299    0.0000 H   0  0  0  0  0  0  0  0  0  0  0  0
    2.0000   -0.9439    0.0000 H   0  0  0  0  0  0  0  0  0  0  0  0
    8.0280    1.9494    0.0000 H   0  0  0  0  0  0  0  0  0  0  0  0
  1  5  1  0  0  0  0
  1  9  1  0  0  0  0
  1 12  1  0  0  0  0
  2  6  1  0  0  0  0
  2  9  2  0  0  0  0
  3  8  1  0  0  0  0
  3 15  2  0  0  0  0
  4  9  1  0  0  0  0
  4 23  1  0  0  0  0
  4 24  1  0  0  0  0
  5  6  2  0  0  0  0
  5 10  1  0  0  0  0
  6  7  1  0  0  0  0
  7  8  2  0  0  0  0
  7 13  1  0  0  0  0
  8 11  1  0  0  0  0
 10 11  2  0  0  0  0
 10 16  1  0  0  0  0
 11 17  1  0  0  0  0
 12 18  1  0  0  0  0
 12 19  1  0  0  0  0
 12 20  1  0  0  0  0
 13 14  2  0  0  0  0
 13 21  1  0  0  0  0
 14 15  1  0  0  0  0
 14 22  1  0  0  0  0
 15 25  1  0  0  0  0
M  END
> <PUBCHEM_COMPOUND_CID>
53462

> <PUBCHEM_COMPOUND_CANONICALIZED>
1

> <PUBCHEM_CACTVS_COMPLEXITY>
245

> <PUBCHEM_CACTVS_HBOND_ACCEPTOR>
3

> <PUBCHEM_CACTVS_HBOND_DONOR>
1

> <PUBCHEM_CACTVS_ROTATABLE_BOND>
0

> <PUBCHEM_CACTVS_SUBSKEYS>
AAADccBzgAAAAAAAAAAAAAAAAAAAAWAAAAA8QAAAAAAAAFix/gAAHAAQAAAADAjBHgQ/0PdMEACgAzRnZACCgC0xEqAJ2CA4dJiIaOLA2dGUJAhogALIyCcQgIAOAACAQAQCACAAAQCACAQAQAAAAAAAAA==

> <PUBCHEM_IUPAC_OPENEYE_NAME>
3-methylimidazo[4,5-f]quinolin-2-amine

> <PUBCHEM_IUPAC_CAS_NAME>
3-methyl-2-imidazo[4,5-f]quinolinamine

> <PUBCHEM_IUPAC_NAME>
3-methylimidazo[4,5-f]quinolin-2-amine

> <PUBCHEM_IUPAC_SYSTEMATIC_NAME>
3-methylimidazo[4,5-f]quinolin-2-amine

> <PUBCHEM_IUPAC_TRADITIONAL_NAME>
(3-methylimidazo[4,5-f]quinolin-2-yl)amine

> <PUBCHEM_IUPAC_INCHI>
InChI=1S/C11H10N4/c1-15-9-5-4-8-7(3-2-6-13-8)10(9)14-11(15)12/h2-6H,1H3,(H2,12,14)

> <PUBCHEM_IUPAC_INCHIKEY>
ARZWATDYIYAUTA-UHFFFAOYSA-N

> <PUBCHEM_XLOGP3>
1.5

> <PUBCHEM_EXACT_MASS>
198.090546

> <PUBCHEM_MOLECULAR_FORMULA>
C11H10N4

> <PUBCHEM_MOLECULAR_WEIGHT>
198.2239

> <PUBCHEM_OPENEYE_CAN_SMILES>
CN1C2=C(C3=C(C=C2)N=CC=C3)N=C1N

> <PUBCHEM_OPENEYE_ISO_SMILES>
CN1C2=C(C3=C(C=C2)N=CC=C3)N=C1N

> <PUBCHEM_CACTVS_TPSA>
56.7

> <PUBCHEM_MONOISOTOPIC_WEIGHT>
198.090546

> <PUBCHEM_TOTAL_CHARGE>
0

> <PUBCHEM_HEAVY_ATOM_COUNT>
15

> <PUBCHEM_ATOM_DEF_STEREO_COUNT>
0

> <PUBCHEM_ATOM_UDEF_STEREO_COUNT>
0

> <PUBCHEM_BOND_DEF_STEREO_COUNT>
0

> <PUBCHEM_BOND_UDEF_STEREO_COUNT>
0

> <PUBCHEM_ISOTOPIC_ATOM_COUNT>
0

> <PUBCHEM_COMPONENT_COUNT>
1

> <PUBCHEM_CACTVS_TAUTO_COUNT>
4

> <PUBCHEM_COORDINATE_TYPE>
1
5
255

> <PUBCHEM_BONDANNOTATIONS>
1  5  8
1  9  8
10  11  8
13  14  8
14  15  8
2  6  8
2  9  8
3  15  8
3  8  8
5  10  8
5  6  8
6  7  8
7  13  8
7  8  8
8  11  8

$$$$

