   Color/Form

     * Very small elongated, rectangular plates from dilute alcohol
     * WHITE OR PALE BUFF MICROCRYSTALLINE POWDER
     * Leaflets
     * Solid

   from [1]HSDB

   Odor
        Odorless
   from [2]HSDB

   Taste
        Bitter
   from [3]HSDB

   Melting Point
        256-257 deg C
   from [4]HSDB

   Octanol/Water Partition Coefficient
        log Kow = 1.85
   from [5]HSDB

   Solubilities

     * 1 g/40 ml chloroform, 60 ml alcohol, 400 ml ethyl acetate, 100 l
       water @ 20 deg C; sol in acetate, amyl alcohol, pyridine; sparingly
       sol in ether, petroleum ether
     * In water, 3.9 mg/l @ 25 deg C

   from [6]HSDB

   Spectral Properties

     * Specific optical rotation: +4.8 deg @ 20 C/D (concn by volume =
       1.2g in 100 ml dioxane)
     * PURE DIGITOXIN HAS SPECIFIC OPTICAL ROTATION OF +18 TO +19 DEG IN
       CHLOROFORM
     * IR: 2588 (Sadtler Research Laboratories Prism Collection)
     * UV: 6-1256 (Organic Electronic Spectral Data, Phillips et al, John
       Wiley & Sons, New York)
     * MASS: 3903 (National Bureau of Standards EPA-NIH Mass Spectra Data
       Base, NSRDS-NBS-63)

   from [7]HSDB

   Other Chemical/Physical Properties

     * May contain 1/2 or 1 mole water or ethanol which is given up @ 118
       deg C in vacuo.
     * Acid hydrolysis yields 1 mol digitoxigenin + 3 mol digitoxose. The
       sugar residue is attached to the hydroxyl group at C-3 of the
       aglycon.
     * log Kow = 2.83 (pH= 7.4)

   from [8]HSDB

   Computed Properties
   Molecular Weight                  764.93906 [g/mol]
   Molecular Formula                 C[41]H[64]O[13]
   XLogP3                            2.3
   H-Bond Donor                      5
   H-Bond Acceptor                   13
   Rotatable Bond Count              7
   Exact Mass                        764.434692
   MonoIsotopic Mass                 764.434692
   Topological Polar Surface Area    183
   Heavy Atom Count                  54
   Formal Charge                     0
   Complexity                        1410
   Isotope Atom Count                0
   Defined Atom Stereocenter Count   20
   Undefined Atom Stereocenter Count 0
   Defined Bond Stereocenter Count   0
   Undefined Bond Stereocenter Count 0
   Covalently-Bonded Unit Count      1

References

   1. http://toxnet.nlm.nih.gov/cgi-bin/sis/search/r?dbs+hsdb:@term+@rn+@rel+71-63-6
   2. http://toxnet.nlm.nih.gov/cgi-bin/sis/search/r?dbs+hsdb:@term+@rn+@rel+71-63-6
   3. http://toxnet.nlm.nih.gov/cgi-bin/sis/search/r?dbs+hsdb:@term+@rn+@rel+71-63-6
   4. http://toxnet.nlm.nih.gov/cgi-bin/sis/search/r?dbs+hsdb:@term+@rn+@rel+71-63-6
   5. http://toxnet.nlm.nih.gov/cgi-bin/sis/search/r?dbs+hsdb:@term+@rn+@rel+71-63-6
   6. http://toxnet.nlm.nih.gov/cgi-bin/sis/search/r?dbs+hsdb:@term+@rn+@rel+71-63-6
   7. http://toxnet.nlm.nih.gov/cgi-bin/sis/search/r?dbs+hsdb:@term+@rn+@rel+71-63-6
   8. http://toxnet.nlm.nih.gov/cgi-bin/sis/search/r?dbs+hsdb:@term+@rn+@rel+71-63-6
