441538
  -OEChem-07051212552D

 38 39  0     1  0  0  0  0  0999 V2000
    7.2682   -3.2767    0.0000 P   0  0  0  0  0  0  0  0  0  0  0  0
    5.4071   -0.8121    0.0000 O   0  0  0  0  0  0  0  0  0  0  0  0
    3.5103   -2.5722    0.0000 O   0  0  0  0  0  0  0  0  0  0  0  0
    2.8380   -0.5031    0.0000 O   0  0  0  0  0  0  0  0  0  0  0  0
    6.6804   -2.4676    0.0000 O   0  0  0  0  0  0  0  0  0  0  0  0
    7.8560   -4.0857    0.0000 O   0  0  0  0  0  0  0  0  0  0  0  0
    8.0772   -2.6889    0.0000 O   0  0  0  0  0  0  0  0  0  0  0  0
    6.4592   -3.8644    0.0000 O   0  0  0  0  0  0  0  0  0  0  0  0
    2.8660    3.7757    0.0000 O   0  0  0  0  0  0  0  0  0  0  0  0
    2.0000    2.2757    0.0000 O   0  0  0  0  0  0  0  0  0  0  0  0
    4.5981    0.7757    0.0000 N   0  0  0  0  0  0  0  0  0  0  0  0
    4.5981    3.7757    0.0000 N   0  0  0  0  0  0  0  0  0  0  0  0
    4.0981   -1.7632    0.0000 C   0  0  1  0  0  0  0  0  0  0  0  0
    3.7891   -0.8121    0.0000 C   0  0  2  0  0  0  0  0  0  0  0  0
    5.0981   -1.7632    0.0000 C   0  0  1  0  0  0  0  0  0  0  0  0
    4.5981   -0.2243    0.0000 C   0  0  1  0  0  0  0  0  0  0  0  0
    5.6859   -2.5722    0.0000 C   0  0  0  0  0  0  0  0  0  0  0  0
    3.7320    1.2757    0.0000 C   0  0  0  0  0  0  0  0  0  0  0  0
    5.4641    1.2757    0.0000 C   0  0  0  0  0  0  0  0  0  0  0  0
    3.7320    2.2757    0.0000 C   0  0  0  0  0  0  0  0  0  0  0  0
    5.4641    2.2757    0.0000 C   0  0  0  0  0  0  0  0  0  0  0  0
    4.5981    2.7757    0.0000 C   0  0  0  0  0  0  0  0  0  0  0  0
    2.8660    2.7757    0.0000 C   0  0  0  0  0  0  0  0  0  0  0  0
    4.3796   -2.3156    0.0000 H   0  0  0  0  0  0  0  0  0  0  0  0
    3.3506   -1.2505    0.0000 H   0  0  0  0  0  0  0  0  0  0  0  0
    5.7104   -1.6662    0.0000 H   0  0  0  0  0  0  0  0  0  0  0  0
    5.1505    0.0572    0.0000 H   0  0  0  0  0  0  0  0  0  0  0  0
    5.1286   -2.8440    0.0000 H   0  0  0  0  0  0  0  0  0  0  0  0
    5.8568   -3.1682    0.0000 H   0  0  0  0  0  0  0  0  0  0  0  0
    3.7625   -3.1386    0.0000 H   0  0  0  0  0  0  0  0  0  0  0  0
    2.3772   -0.9179    0.0000 H   0  0  0  0  0  0  0  0  0  0  0  0
    3.1951    0.9657    0.0000 H   0  0  0  0  0  0  0  0  0  0  0  0
    6.0010    0.9657    0.0000 H   0  0  0  0  0  0  0  0  0  0  0  0
    6.0010    2.5857    0.0000 H   0  0  0  0  0  0  0  0  0  0  0  0
    5.1350    4.0857    0.0000 H   0  0  0  0  0  0  0  0  0  0  0  0
    8.4726   -4.0209    0.0000 H   0  0  0  0  0  0  0  0  0  0  0  0
    8.0124   -2.0723    0.0000 H   0  0  0  0  0  0  0  0  0  0  0  0
    2.3291    4.0857    0.0000 H   0  0  0  0  0  0  0  0  0  0  0  0
  1  5  1  0  0  0  0
  1  6  1  0  0  0  0
  1  7  1  0  0  0  0
  1  8  2  0  0  0  0
  2 15  1  0  0  0  0
  2 16  1  0  0  0  0
 13  3  1  1  0  0  0
  3 30  1  0  0  0  0
 14  4  1  1  0  0  0
  4 31  1  0  0  0  0
  5 17  1  0  0  0  0
  6 36  1  0  0  0  0
  7 37  1  0  0  0  0
  9 23  1  0  0  0  0
  9 38  1  0  0  0  0
 10 23  2  0  0  0  0
 16 11  1  6  0  0  0
 11 18  1  0  0  0  0
 11 19  1  0  0  0  0
 12 22  2  0  0  0  0
 12 35  1  0  0  0  0
 13 14  1  0  0  0  0
 13 15  1  0  0  0  0
 13 24  1  0  0  0  0
 14 16  1  0  0  0  0
 14 25  1  0  0  0  0
 15 17  1  6  0  0  0
 15 26  1  0  0  0  0
 16 27  1  0  0  0  0
 17 28  1  0  0  0  0
 17 29  1  0  0  0  0
 18 20  2  0  0  0  0
 18 32  1  0  0  0  0
 19 21  2  0  0  0  0
 19 33  1  0  0  0  0
 20 22  1  0  0  0  0
 20 23  1  0  0  0  0
 21 22  1  0  0  0  0
 21 34  1  0  0  0  0
M  END
> <PUBCHEM_COMPOUND_CID>
441538

> <PUBCHEM_COMPOUND_CANONICALIZED>
1

> <PUBCHEM_CACTVS_COMPLEXITY>
613

> <PUBCHEM_CACTVS_HBOND_ACCEPTOR>
11

> <PUBCHEM_CACTVS_HBOND_DONOR>
6

> <PUBCHEM_CACTVS_ROTATABLE_BOND>
5

> <PUBCHEM_CACTVS_SUBSKEYS>
AAADccBzPAIAAAAAAAAAAAAAAAAAASAAAAAgAAAAAAAAAAAAAAAAHgAQCCAADBzhgAYACANABxCoQyD2SIAAAAAgAgAIAAE4AFgDFBIAgAAOQAAHgAATEMDwMAIAAAAAAAAAAAAAAAAAAAAAAAAAAAAAAA==

> <PUBCHEM_IUPAC_OPENEYE_NAME>
1-[(2R,3R,4S,5R)-3,4-dihydroxy-5-(phosphonooxymethyl)tetrahydrofuran-2-yl]-4-imino-pyridine-3-carboxylic acid

> <PUBCHEM_IUPAC_CAS_NAME>
1-[(2R,3R,4S,5R)-3,4-dihydroxy-5-(phosphonooxymethyl)-2-oxolanyl]-4-imino-3-pyridinecarboxylic acid

> <PUBCHEM_IUPAC_NAME>
1-[(2R,3R,4S,5R)-3,4-dihydroxy-5-(phosphonooxymethyl)oxolan-2-yl]-4-iminopyridine-3-carboxylic acid

> <PUBCHEM_IUPAC_SYSTEMATIC_NAME>
4-azanylidene-1-[(2R,3R,4S,5R)-3,4-bis(oxidanyl)-5-(phosphonooxymethyl)oxolan-2-yl]pyridine-3-carboxylic acid

> <PUBCHEM_IUPAC_TRADITIONAL_NAME>
1-[(2R,3R,4S,5R)-3,4-dihydroxy-5-(phosphonooxymethyl)tetrahydrofuran-2-yl]-4-imino-nicotinic acid

> <PUBCHEM_IUPAC_INCHI>
InChI=1S/C11H15N2O9P/c12-6-1-2-13(3-5(6)11(16)17)10-9(15)8(14)7(22-10)4-21-23(18,19)20/h1-3,7-10,12,14-15H,4H2,(H,16,17)(H2,18,19,20)/t7-,8-,9-,10-/m1/s1

> <PUBCHEM_IUPAC_INCHIKEY>
LLSDPYFONVWVGW-ZYUZMQFOSA-N

> <PUBCHEM_XLOGP3_AA>
-3.1

> <PUBCHEM_EXACT_MASS>
350.051517

> <PUBCHEM_MOLECULAR_FORMULA>
C11H15N2O9P

> <PUBCHEM_MOLECULAR_WEIGHT>
350.218562

> <PUBCHEM_OPENEYE_CAN_SMILES>
C1=CN(C=C(C1=N)C(=O)O)C2C(C(C(O2)COP(=O)(O)O)O)O

> <PUBCHEM_OPENEYE_ISO_SMILES>
C1=CN(C=C(C1=N)C(=O)O)[C@H]2[C@@H]([C@@H]([C@H](O2)COP(=O)(O)O)O)O

> <PUBCHEM_CACTVS_TPSA>
181

> <PUBCHEM_MONOISOTOPIC_WEIGHT>
350.051517

> <PUBCHEM_TOTAL_CHARGE>
0

> <PUBCHEM_HEAVY_ATOM_COUNT>
23

> <PUBCHEM_ATOM_DEF_STEREO_COUNT>
4

> <PUBCHEM_ATOM_UDEF_STEREO_COUNT>
0

> <PUBCHEM_BOND_DEF_STEREO_COUNT>
0

> <PUBCHEM_BOND_UDEF_STEREO_COUNT>
0

> <PUBCHEM_ISOTOPIC_ATOM_COUNT>
0

> <PUBCHEM_COMPONENT_COUNT>
1

> <PUBCHEM_CACTVS_TAUTO_COUNT>
1

> <PUBCHEM_COORDINATE_TYPE>
1
5
255

> <PUBCHEM_BONDANNOTATIONS>
16  11  6
11  18  8
11  19  8
15  17  6
18  20  8
19  21  8
20  22  8
21  22  8
13  3  5
14  4  5

$$$$

