41894
  -OEChem-07051213112D

 36 40  0     1  0  0  0  0  0999 V2000
    2.5405    0.9652    0.0000 O   0  0  0  0  0  0  0  0  0  0  0  0
    2.5247    3.0135    0.0000 O   0  0  0  0  0  0  0  0  0  0  0  0
    4.3107    0.9684    0.0000 C   0  0  0  0  0  0  0  0  0  0  0  0
    5.1767   -0.5316    0.0000 C   0  0  0  0  0  0  0  0  0  0  0  0
    4.3107   -0.0316    0.0000 C   0  0  0  0  0  0  0  0  0  0  0  0
    3.4007    1.4752    0.0000 C   0  0  1  0  0  0  0  0  0  0  0  0
    5.1767    1.4684    0.0000 C   0  0  0  0  0  0  0  0  0  0  0  0
    5.1928   -1.5731    0.0000 C   0  0  0  0  0  0  0  0  0  0  0  0
    6.0427   -0.0316    0.0000 C   0  0  0  0  0  0  0  0  0  0  0  0
    3.3926    2.5168    0.0000 C   0  0  1  0  0  0  0  0  0  0  0  0
    6.0427    0.9684    0.0000 C   0  0  0  0  0  0  0  0  0  0  0  0
    4.2947   -2.1009    0.0000 C   0  0  0  0  0  0  0  0  0  0  0  0
    6.0699   -2.0359    0.0000 C   0  0  0  0  0  0  0  0  0  0  0  0
    3.4007   -0.5385    0.0000 C   0  0  0  0  0  0  0  0  0  0  0  0
    5.1928    2.5099    0.0000 C   0  0  0  0  0  0  0  0  0  0  0  0
    4.2947    3.0376    0.0000 C   0  0  0  0  0  0  0  0  0  0  0  0
    6.9022   -0.5264    0.0000 C   0  0  0  0  0  0  0  0  0  0  0  0
    3.3926   -1.5801    0.0000 C   0  0  0  0  0  0  0  0  0  0  0  0
    6.9156   -1.5180    0.0000 C   0  0  0  0  0  0  0  0  0  0  0  0
    4.3208   -3.1424    0.0000 C   0  0  0  0  0  0  0  0  0  0  0  0
    6.1200   -3.0765    0.0000 C   0  0  0  0  0  0  0  0  0  0  0  0
    5.2396   -3.6335    0.0000 C   0  0  0  0  0  0  0  0  0  0  0  0
    3.4090    0.8553    0.0000 H   0  0  0  0  0  0  0  0  0  0  0  0
    3.3914    3.1368    0.0000 H   0  0  0  0  0  0  0  0  0  0  0  0
    6.5797    1.2784    0.0000 H   0  0  0  0  0  0  0  0  0  0  0  0
    2.8674   -0.2223    0.0000 H   0  0  0  0  0  0  0  0  0  0  0  0
    5.7332    2.8136    0.0000 H   0  0  0  0  0  0  0  0  0  0  0  0
    4.2971    3.6576    0.0000 H   0  0  0  0  0  0  0  0  0  0  0  0
    7.4368   -0.2124    0.0000 H   0  0  0  0  0  0  0  0  0  0  0  0
    2.8545   -1.8880    0.0000 H   0  0  0  0  0  0  0  0  0  0  0  0
    7.4586   -1.8174    0.0000 H   0  0  0  0  0  0  0  0  0  0  0  0
    3.7930   -3.4678    0.0000 H   0  0  0  0  0  0  0  0  0  0  0  0
    6.6702   -3.3624    0.0000 H   0  0  0  0  0  0  0  0  0  0  0  0
    2.0000    1.2690    0.0000 H   0  0  0  0  0  0  0  0  0  0  0  0
    5.2623   -4.2530    0.0000 H   0  0  0  0  0  0  0  0  0  0  0  0
    2.5223    3.6335    0.0000 H   0  0  0  0  0  0  0  0  0  0  0  0
  6  1  1  6  0  0  0
  1 34  1  0  0  0  0
 10  2  1  6  0  0  0
  2 36  1  0  0  0  0
  3  5  1  0  0  0  0
  3  6  1  0  0  0  0
  3  7  2  0  0  0  0
  4  5  2  0  0  0  0
  4  8  1  0  0  0  0
  4  9  1  0  0  0  0
  5 14  1  0  0  0  0
  6 10  1  0  0  0  0
  6 23  1  0  0  0  0
  7 11  1  0  0  0  0
  7 15  1  0  0  0  0
  8 12  1  0  0  0  0
  8 13  2  0  0  0  0
  9 11  2  0  0  0  0
  9 17  1  0  0  0  0
 10 16  1  0  0  0  0
 10 24  1  0  0  0  0
 11 25  1  0  0  0  0
 12 18  1  0  0  0  0
 12 20  2  0  0  0  0
 13 19  1  0  0  0  0
 13 21  1  0  0  0  0
 14 18  2  0  0  0  0
 14 26  1  0  0  0  0
 15 16  2  0  0  0  0
 15 27  1  0  0  0  0
 16 28  1  0  0  0  0
 17 19  2  0  0  0  0
 17 29  1  0  0  0  0
 18 30  1  0  0  0  0
 19 31  1  0  0  0  0
 20 22  1  0  0  0  0
 20 32  1  0  0  0  0
 21 22  2  0  0  0  0
 21 33  1  0  0  0  0
 22 35  1  0  0  0  0
M  END
> <PUBCHEM_COMPOUND_CID>
41894

> <PUBCHEM_COMPOUND_CANONICALIZED>
1

> <PUBCHEM_CACTVS_COMPLEXITY>
472

> <PUBCHEM_CACTVS_HBOND_ACCEPTOR>
2

> <PUBCHEM_CACTVS_HBOND_DONOR>
2

> <PUBCHEM_CACTVS_ROTATABLE_BOND>
0

> <PUBCHEM_CACTVS_SUBSKEYS>
AAADccB4MAAAAAAAAAAAAAAAAAAAAAAAAAAwYMGCAAAAAADBVAAAGgAACAAADBSgmAIwAMAAAgCAAiBCAAACAAAgAAAIiAAACIgJNiKAERCAcAAkwAEJmAeAwPAOwAACAAAQAACAAAQAACAAAAAAAAAAAA==

> <PUBCHEM_IUPAC_OPENEYE_NAME>
(9R,10S)-9,10-dihydrobenzo[a]pyrene-9,10-diol

> <PUBCHEM_IUPAC_CAS_NAME>
(9R,10S)-9,10-dihydrobenzo[a]pyrene-9,10-diol

> <PUBCHEM_IUPAC_NAME>
(9R,10S)-9,10-dihydrobenzo[a]pyrene-9,10-diol

> <PUBCHEM_IUPAC_SYSTEMATIC_NAME>
(9R,10S)-9,10-dihydrobenzo[a]pyrene-9,10-diol

> <PUBCHEM_IUPAC_TRADITIONAL_NAME>
(9R,10S)-9,10-dihydrobenzo[a]pyrene-9,10-diol

> <PUBCHEM_IUPAC_INCHI>
InChI=1S/C20H14O2/c21-16-9-7-14-10-13-5-4-11-2-1-3-12-6-8-15(18(13)17(11)12)19(14)20(16)22/h1-10,16,20-22H/t16-,20-/m1/s1

> <PUBCHEM_IUPAC_INCHIKEY>
GHARBPKRUUKTCI-OXQOHEQNSA-N

> <PUBCHEM_XLOGP3_AA>
3.9

> <PUBCHEM_EXACT_MASS>
286.09938

> <PUBCHEM_MOLECULAR_FORMULA>
C20H14O2

> <PUBCHEM_MOLECULAR_WEIGHT>
286.32396

> <PUBCHEM_OPENEYE_CAN_SMILES>
C1=CC2=C3C(=C1)C=CC4=C3C(=CC5=C4C(C(C=C5)O)O)C=C2

> <PUBCHEM_OPENEYE_ISO_SMILES>
C1=CC2=C3C(=C1)C=CC4=C3C(=CC5=C4[C@@H]([C@@H](C=C5)O)O)C=C2

> <PUBCHEM_CACTVS_TPSA>
40.5

> <PUBCHEM_MONOISOTOPIC_WEIGHT>
286.09938

> <PUBCHEM_TOTAL_CHARGE>
0

> <PUBCHEM_HEAVY_ATOM_COUNT>
22

> <PUBCHEM_ATOM_DEF_STEREO_COUNT>
2

> <PUBCHEM_ATOM_UDEF_STEREO_COUNT>
0

> <PUBCHEM_BOND_DEF_STEREO_COUNT>
0

> <PUBCHEM_BOND_UDEF_STEREO_COUNT>
0

> <PUBCHEM_ISOTOPIC_ATOM_COUNT>
0

> <PUBCHEM_COMPONENT_COUNT>
1

> <PUBCHEM_CACTVS_TAUTO_COUNT>
1

> <PUBCHEM_COORDINATE_TYPE>
1
5
255

> <PUBCHEM_BONDANNOTATIONS>
6  1  6
12  18  8
12  20  8
13  19  8
13  21  8
14  18  8
17  19  8
10  2  6
20  22  8
21  22  8
3  5  8
3  7  8
4  5  8
4  8  8
4  9  8
5  14  8
7  11  8
8  12  8
8  13  8
9  11  8
9  17  8

$$$$

