   Octanol/Water Partition Coefficient
        log Kow = 1.68 (est)
   from [1]HSDB

   Solubilities
        In water, 1.24X10+2 mg/L at 25 deg C (est)
   from [2]HSDB

   Vapor Pressure
        6.93X10-14 mm Hg at 25 deg C (est)
   from [3]HSDB

   Other Chemical/Physical Properties

     * Decomposes at 228-241 deg C; sol in ethanol, acetone; slightly sol
       in water. Specific optical rotation: + 85 deg; max absorption
       (ethanol): 243 nm (log e= 4.16) /21-Acetate/
     * Fluffy, practically white, crystalline powder. Sol in chloroform,
       ether, and methanol; odorless /acetate/
     * Henry's Law constant = 7.15X10-8 atm-cu m/mole at 25 deg C (est)
     * Hydroxyl radical reaction rate constant = 6.63X10-11 cu
       cm/molec-sec at 25 deg C (est)

   from [4]HSDB

   Computed Properties
   Molecular Weight                  392.461063 [g/mol]
   Molecular Formula                 C[22]H[29]FO[5]
   XLogP3                            2
   H-Bond Donor                      3
   H-Bond Acceptor                   6
   Rotatable Bond Count              2
   Tautomer Count                    3
   Exact Mass                        392.199902
   MonoIsotopic Mass                 392.199902
   Topological Polar Surface Area    94.8
   Heavy Atom Count                  28
   Formal Charge                     0
   Complexity                        790
   Isotope Atom Count                0
   Defined Atom Stereocenter Count   9
   Undefined Atom Stereocenter Count 0
   Defined Bond Stereocenter Count   0
   Undefined Bond Stereocenter Count 0
   Covalently-Bonded Unit Count      1
   Feature 3D Acceptor Count         5
   Feature 3D Donor Count            3
   Feature 3D Ring Count             4
   Effective Rotor Count             3.4
   Conformer Sampling RMSD           0.8
   CID Conformer Count               [5]2

References

   1. http://toxnet.nlm.nih.gov/cgi-bin/sis/search/r?dbs+hsdb:@term+@rn+@rel+53-33-8
   2. http://toxnet.nlm.nih.gov/cgi-bin/sis/search/r?dbs+hsdb:@term+@rn+@rel+53-33-8
   3. http://toxnet.nlm.nih.gov/cgi-bin/sis/search/r?dbs+hsdb:@term+@rn+@rel+53-33-8
   4. http://toxnet.nlm.nih.gov/cgi-bin/sis/search/r?dbs+hsdb:@term+@rn+@rel+53-33-8
   5. http://pubchem.ncbi.nlm.nih.gov/vw3d/vw3d.cgi?cid=5875
