50590
  -OEChem-07051213132D

 33 35  0     1  0  0  0  0  0999 V2000
    2.0000   -2.6830    0.0000 Cl  0  0  0  0  0  0  0  0  0  0  0  0
    6.1808    1.1534    0.0000 O   0  0  0  0  0  0  0  0  0  0  0  0
    2.0000    0.3170    0.0000 O   0  0  0  0  0  0  0  0  0  0  0  0
    5.7195   -0.5679    0.0000 O   0  0  0  0  0  0  0  0  0  0  0  0
    3.7320    0.3170    0.0000 N   0  0  0  0  0  0  0  0  0  0  0  0
    2.8660    1.8170    0.0000 C   0  0  0  0  0  0  0  0  0  0  0  0
    3.3660    2.6830    0.0000 C   0  0  0  0  0  0  0  0  0  0  0  0
    2.3660    2.6830    0.0000 C   0  0  0  0  0  0  0  0  0  0  0  0
    2.8660    0.8170    0.0000 C   0  0  0  0  0  0  0  0  0  0  0  0
    4.5981    0.8170    0.0000 C   0  0  3  0  0  0  0  0  0  0  0  0
    4.7026    1.8115    0.0000 C   0  0  0  0  0  0  0  0  0  0  0  0
    5.6808    2.0194    0.0000 C   0  0  0  0  0  0  0  0  0  0  0  0
    3.7320   -0.6830    0.0000 C   0  0  0  0  0  0  0  0  0  0  0  0
    5.5116    0.4103    0.0000 C   0  0  0  0  0  0  0  0  0  0  0  0
    2.8660   -1.1830    0.0000 C   0  0  0  0  0  0  0  0  0  0  0  0
    4.5981   -1.1830    0.0000 C   0  0  0  0  0  0  0  0  0  0  0  0
    2.8660   -2.1830    0.0000 C   0  0  0  0  0  0  0  0  0  0  0  0
    4.5981   -2.1830    0.0000 C   0  0  0  0  0  0  0  0  0  0  0  0
    3.7320   -2.6830    0.0000 C   0  0  0  0  0  0  0  0  0  0  0  0
    3.4649    1.6565    0.0000 H   0  0  0  0  0  0  0  0  0  0  0  0
    3.9486    2.4710    0.0000 H   0  0  0  0  0  0  0  0  0  0  0  0
    3.4737    3.2936    0.0000 H   0  0  0  0  0  0  0  0  0  0  0  0
    2.2584    3.2936    0.0000 H   0  0  0  0  0  0  0  0  0  0  0  0
    1.7834    2.4710    0.0000 H   0  0  0  0  0  0  0  0  0  0  0  0
    4.6305    0.1978    0.0000 H   0  0  0  0  0  0  0  0  0  0  0  0
    4.6378    2.4281    0.0000 H   0  0  0  0  0  0  0  0  0  0  0  0
    4.0826    1.8115    0.0000 H   0  0  0  0  0  0  0  0  0  0  0  0
    6.2472    2.2716    0.0000 H   0  0  0  0  0  0  0  0  0  0  0  0
    5.4892    2.6091    0.0000 H   0  0  0  0  0  0  0  0  0  0  0  0
    2.3291   -0.8730    0.0000 H   0  0  0  0  0  0  0  0  0  0  0  0
    5.1350   -0.8730    0.0000 H   0  0  0  0  0  0  0  0  0  0  0  0
    5.1350   -2.4930    0.0000 H   0  0  0  0  0  0  0  0  0  0  0  0
    3.7320   -3.3030    0.0000 H   0  0  0  0  0  0  0  0  0  0  0  0
  1 17  1  0  0  0  0
  2 12  1  0  0  0  0
  2 14  1  0  0  0  0
  3  9  2  0  0  0  0
  4 14  2  0  0  0  0
  5  9  1  0  0  0  0
  5 10  1  0  0  0  0
  5 13  1  0  0  0  0
  6  7  1  0  0  0  0
  6  8  1  0  0  0  0
  6  9  1  0  0  0  0
  6 20  1  0  0  0  0
  7  8  1  0  0  0  0
  7 21  1  0  0  0  0
  7 22  1  0  0  0  0
  8 23  1  0  0  0  0
  8 24  1  0  0  0  0
 10 11  1  0  0  0  0
 10 14  1  0  0  0  0
 10 25  1  0  0  0  0
 11 12  1  0  0  0  0
 11 26  1  0  0  0  0
 11 27  1  0  0  0  0
 12 28  1  0  0  0  0
 12 29  1  0  0  0  0
 13 15  2  0  0  0  0
 13 16  1  0  0  0  0
 15 17  1  0  0  0  0
 15 30  1  0  0  0  0
 16 18  2  0  0  0  0
 16 31  1  0  0  0  0
 17 19  2  0  0  0  0
 18 19  1  0  0  0  0
 18 32  1  0  0  0  0
 19 33  1  0  0  0  0
M  END
> <PUBCHEM_COMPOUND_CID>
50590

> <PUBCHEM_COMPOUND_CANONICALIZED>
1

> <PUBCHEM_CACTVS_COMPLEXITY>
383

> <PUBCHEM_CACTVS_HBOND_ACCEPTOR>
3

> <PUBCHEM_CACTVS_HBOND_DONOR>
0

> <PUBCHEM_CACTVS_ROTATABLE_BOND>
3

> <PUBCHEM_CACTVS_SUBSKEYS>
AAADccByMAAEAAAAAAAAAAAAGAAAASAAAAAwAAAAAAAAAAABAAAAHgIAAAAADSrhkCYwyIMABACIACXSWACCAAAhBwAIiAGIZogKIDLBk7GHIAhmhgDYyAcSAAAAAAAAAAIAAAAAAAAABAAAAAAAAAAAAA==

> <PUBCHEM_IUPAC_OPENEYE_NAME>
N-(3-chlorophenyl)-N-(2-oxotetrahydrofuran-3-yl)cyclopropanecarboxamide

> <PUBCHEM_IUPAC_CAS_NAME>
N-(3-chlorophenyl)-N-(2-oxo-3-oxolanyl)cyclopropanecarboxamide

> <PUBCHEM_IUPAC_NAME>
N-(3-chlorophenyl)-N-(2-oxooxolan-3-yl)cyclopropanecarboxamide

> <PUBCHEM_IUPAC_SYSTEMATIC_NAME>
N-(3-chlorophenyl)-N-(2-oxidanylideneoxolan-3-yl)cyclopropanecarboxamide

> <PUBCHEM_IUPAC_TRADITIONAL_NAME>
N-(3-chlorophenyl)-N-(2-ketotetrahydrofuran-3-yl)cyclopropanecarboxamide

> <PUBCHEM_IUPAC_INCHI>
InChI=1S/C14H14ClNO3/c15-10-2-1-3-11(8-10)16(13(17)9-4-5-9)12-6-7-19-14(12)18/h1-3,8-9,12H,4-7H2

> <PUBCHEM_IUPAC_INCHIKEY>
KRZUZYJEQBXUIN-UHFFFAOYSA-N

> <PUBCHEM_XLOGP3_AA>
2.5

> <PUBCHEM_EXACT_MASS>
279.066221

> <PUBCHEM_MOLECULAR_FORMULA>
C14H14ClNO3

> <PUBCHEM_MOLECULAR_WEIGHT>
279.71886

> <PUBCHEM_OPENEYE_CAN_SMILES>
C1CC1C(=O)N(C2CCOC2=O)C3=CC(=CC=C3)Cl

> <PUBCHEM_OPENEYE_ISO_SMILES>
C1CC1C(=O)N(C2CCOC2=O)C3=CC(=CC=C3)Cl

> <PUBCHEM_CACTVS_TPSA>
46.6

> <PUBCHEM_MONOISOTOPIC_WEIGHT>
279.066221

> <PUBCHEM_TOTAL_CHARGE>
0

> <PUBCHEM_HEAVY_ATOM_COUNT>
19

> <PUBCHEM_ATOM_DEF_STEREO_COUNT>
0

> <PUBCHEM_ATOM_UDEF_STEREO_COUNT>
1

> <PUBCHEM_BOND_DEF_STEREO_COUNT>
0

> <PUBCHEM_BOND_UDEF_STEREO_COUNT>
0

> <PUBCHEM_ISOTOPIC_ATOM_COUNT>
0

> <PUBCHEM_COMPONENT_COUNT>
1

> <PUBCHEM_CACTVS_TAUTO_COUNT>
2

> <PUBCHEM_COORDINATE_TYPE>
1
5
255

> <PUBCHEM_BONDANNOTATIONS>
13  15  8
13  16  8
15  17  8
16  18  8
17  19  8
18  19  8
10  5  3

$$$$

