   Color/Form
        Yellow, amorphous solid
   from [1]HSDB

   Octanol/Water Partition Coefficient
        log Kow = 2.16
   from [2]HSDB

   Solubilities
        In water, 30.61 mg/L at 25 deg C (est)
   from [3]HSDB

   Spectral Properties
        Specific optical rotation = +214 deg at 25 deg C/D (chloroform)
   from [4]HSDB

   Vapor Pressure
        5.28X10-17 mm Hg at 25 deg C (est)
   from [5]HSDB

   Other Chemical/Physical Properties

     * Mol wt 479.47. White crystals from ethanol-ethyl acetate, mp
       141-143 deg C. Specific optical rotation = +144 deg at 25 deg C/D
       (water). pKa 7.6. Sol in water, pyridine, ethanol, DMF.
       /Hydrochloride monohydrate/
     * CHARACTERISTIC TASTE; ODORLESS OR HAS FAINT MERCAPTAN-LIKE ODOR;
       FREELY SOL IN WATER, DIMETHYLFORMAMIDE, METHANOL; SOL IN ALCOHOL;
       PRACTICALLY INSOL IN ACETONE; PKA: 7.72 IN PURE WATER /HCL/
     * MW: 504.96. Water soluble /Phosphate/
     * mol wt 504.97 /2-Dihydrogen phosphate/
     * Henry's Law constant = 2.89X10-22 atm-cu m/mol at 25 deg C (est)
     * Hydroxyl radical reaction rate constant = 2.62X10-14 cu
       cm/molec-sec at 25 deg C (est)

   from [6]HSDB

   Computed Properties
   Molecular Weight                  424.98302 [g/mol]
   Molecular Formula                 C[18]H[33]ClN[2]O[5]S
   XLogP3                            2.2
   H-Bond Donor                      4
   H-Bond Acceptor                   7
   Rotatable Bond Count              7
   Tautomer Count                    2
   Exact Mass                        424.179871
   MonoIsotopic Mass                 424.179871
   Topological Polar Surface Area    128
   Heavy Atom Count                  27
   Formal Charge                     0
   Complexity                        502
   Isotope Atom Count                0
   Defined Atom Stereocenter Count   7
   Undefined Atom Stereocenter Count 2
   Defined Bond Stereocenter Count   0
   Undefined Bond Stereocenter Count 0
   Covalently-Bonded Unit Count      1
   Feature 3D Acceptor Count         5
   Feature 3D Donor Count            4
   Feature 3D Cation Count           1
   Feature 3D Hydrophobe Count       2
   Feature 3D Ring Count             2
   Effective Rotor Count             10.2
   Conformer Sampling RMSD           1
   CID Conformer Count               [7]314

References

   1. http://toxnet.nlm.nih.gov/cgi-bin/sis/search/r?dbs+hsdb:@term+@rn+@rel+18323-44-9
   2. http://toxnet.nlm.nih.gov/cgi-bin/sis/search/r?dbs+hsdb:@term+@rn+@rel+18323-44-9
   3. http://toxnet.nlm.nih.gov/cgi-bin/sis/search/r?dbs+hsdb:@term+@rn+@rel+18323-44-9
   4. http://toxnet.nlm.nih.gov/cgi-bin/sis/search/r?dbs+hsdb:@term+@rn+@rel+18323-44-9
   5. http://toxnet.nlm.nih.gov/cgi-bin/sis/search/r?dbs+hsdb:@term+@rn+@rel+18323-44-9
   6. http://toxnet.nlm.nih.gov/cgi-bin/sis/search/r?dbs+hsdb:@term+@rn+@rel+18323-44-9
   7. http://pubchem.ncbi.nlm.nih.gov/vw3d/vw3d.cgi?cid=29029
