5380876
  -OEChem-07051213072D

 50 52  0     1  0  0  0  0  0999 V2000
    4.5787   -0.1811    0.0000 O   0  0  0  0  0  0  0  0  0  0  0  0
    5.4045    3.2628    0.0000 O   0  5  0  0  0  0  0  0  0  0  0  0
    7.1188   -0.6699    0.0000 O   0  0  0  0  0  0  0  0  0  0  0  0
    6.5309   -3.1024    0.0000 O   0  0  0  0  0  0  0  0  0  0  0  0
    2.8660   -0.1699    0.0000 O   0  0  0  0  0  0  0  0  0  0  0  0
    7.9848   -2.1476    0.0000 O   0  0  0  0  0  0  0  0  0  0  0  0
    5.4255    2.2630    0.0000 N   0  3  3  0  0  0  0  0  0  0  0  0
    5.4255    1.2854    0.0000 C   0  0  1  0  0  0  0  0  0  0  0  0
    4.5787    0.7966    0.0000 C   0  0  1  0  0  0  0  0  0  0  0  0
    4.4056    2.5075    0.0000 C   0  0  0  0  0  0  0  0  0  0  0  0
    3.8842    1.7253    0.0000 C   0  0  0  0  0  0  0  0  0  0  0  0
    6.3609    2.5292    0.0000 C   0  0  0  0  0  0  0  0  0  0  0  0
    6.2721    0.7966    0.0000 C   0  0  0  0  0  0  0  0  0  0  0  0
    6.9692    1.7253    0.0000 C   0  0  0  0  0  0  0  0  0  0  0  0
    6.2721   -0.1811    0.0000 C   0  0  0  0  0  0  0  0  0  0  0  0
    3.7320   -0.6699    0.0000 C   0  0  0  0  0  0  0  0  0  0  0  0
    5.4255   -1.6476    0.0000 C   0  0  1  0  0  0  0  0  0  0  0  0
    6.2721   -2.1364    0.0000 C   0  0  2  0  0  0  0  0  0  0  0  0
    4.5787   -2.1364    0.0000 C   0  0  0  0  0  0  0  0  0  0  0  0
    3.7320   -1.6476    0.0000 C   0  0  0  0  0  0  0  0  0  0  0  0
    7.1188   -1.6476    0.0000 C   0  0  0  0  0  0  0  0  0  0  0  0
    5.4255   -0.6476    0.0000 C   0  0  0  0  0  0  0  0  0  0  0  0
    5.5651   -2.8436    0.0000 C   0  0  0  0  0  0  0  0  0  0  0  0
    2.8660   -2.1476    0.0000 C   0  0  0  0  0  0  0  0  0  0  0  0
    2.0000   -1.6476    0.0000 C   0  0  0  0  0  0  0  0  0  0  0  0
    5.4255    0.4354    0.0000 H   0  0  0  0  0  0  0  0  0  0  0  0
    3.7721    0.5283    0.0000 H   0  0  0  0  0  0  0  0  0  0  0  0
    4.6198    3.0893    0.0000 H   0  0  0  0  0  0  0  0  0  0  0  0
    3.8529    2.7885    0.0000 H   0  0  0  0  0  0  0  0  0  0  0  0
    3.4106    2.1255    0.0000 H   0  0  0  0  0  0  0  0  0  0  0  0
    3.4329    1.3002    0.0000 H   0  0  0  0  0  0  0  0  0  0  0  0
    6.8976    2.8395    0.0000 H   0  0  0  0  0  0  0  0  0  0  0  0
    6.1190    3.1000    0.0000 H   0  0  0  0  0  0  0  0  0  0  0  0
    7.5892    1.7266    0.0000 H   0  0  0  0  0  0  0  0  0  0  0  0
    5.6615   -0.0734    0.0000 H   0  0  0  0  0  0  0  0  0  0  0  0
    6.0601   -0.7637    0.0000 H   0  0  0  0  0  0  0  0  0  0  0  0
    5.9624   -1.3376    0.0000 H   0  0  0  0  0  0  0  0  0  0  0  0
    4.1802   -2.6114    0.0000 H   0  0  0  0  0  0  0  0  0  0  0  0
    4.9772   -2.6114    0.0000 H   0  0  0  0  0  0  0  0  0  0  0  0
    6.0455   -0.6476    0.0000 H   0  0  0  0  0  0  0  0  0  0  0  0
    5.4254   -0.0276    0.0000 H   0  0  0  0  0  0  0  0  0  0  0  0
    4.8055   -0.6476    0.0000 H   0  0  0  0  0  0  0  0  0  0  0  0
    5.1266   -2.4052    0.0000 H   0  0  0  0  0  0  0  0  0  0  0  0
    5.1267   -3.2820    0.0000 H   0  0  0  0  0  0  0  0  0  0  0  0
    6.0035   -3.2820    0.0000 H   0  0  0  0  0  0  0  0  0  0  0  0
    2.8660   -2.7676    0.0000 H   0  0  0  0  0  0  0  0  0  0  0  0
    7.1298   -3.2628    0.0000 H   0  0  0  0  0  0  0  0  0  0  0  0
    2.3100   -1.1107    0.0000 H   0  0  0  0  0  0  0  0  0  0  0  0
    1.4631   -1.3376    0.0000 H   0  0  0  0  0  0  0  0  0  0  0  0
    1.6900   -2.1846    0.0000 H   0  0  0  0  0  0  0  0  0  0  0  0
  1  9  1  0  0  0  0
  1 16  1  0  0  0  0
  2  7  1  0  0  0  0
  3 15  1  0  0  0  0
  3 21  1  0  0  0  0
 18  4  1  6  0  0  0
  4 47  1  0  0  0  0
  5 16  2  0  0  0  0
  6 21  2  0  0  0  0
  7  8  1  0  0  0  0
  7 10  1  0  0  0  0
  7 12  1  0  0  0  0
  8  9  1  0  0  0  0
  8 13  1  0  0  0  0
  8 26  1  1  0  0  0
  9 11  1  0  0  0  0
  9 27  1  1  0  0  0
 10 11  1  0  0  0  0
 10 28  1  0  0  0  0
 10 29  1  0  0  0  0
 11 30  1  0  0  0  0
 11 31  1  0  0  0  0
 12 14  1  0  0  0  0
 12 32  1  0  0  0  0
 12 33  1  0  0  0  0
 13 14  2  0  0  0  0
 13 15  1  0  0  0  0
 14 34  1  0  0  0  0
 15 35  1  0  0  0  0
 15 36  1  0  0  0  0
 16 20  1  0  0  0  0
 17 18  1  0  0  0  0
 17 19  1  0  0  0  0
 17 22  1  1  0  0  0
 17 37  1  0  0  0  0
 18 21  1  0  0  0  0
 18 23  1  0  0  0  0
 19 20  1  0  0  0  0
 19 38  1  0  0  0  0
 19 39  1  0  0  0  0
 20 24  2  0  0  0  0
 22 40  1  0  0  0  0
 22 41  1  0  0  0  0
 22 42  1  0  0  0  0
 23 43  1  0  0  0  0
 23 44  1  0  0  0  0
 23 45  1  0  0  0  0
 24 25  1  0  0  0  0
 24 46  1  0  0  0  0
 25 48  1  0  0  0  0
 25 49  1  0  0  0  0
 25 50  1  0  0  0  0
M  CHG  2   2  -1   7   1
M  END
> <PUBCHEM_COMPOUND_CID>
5380876

> <PUBCHEM_COMPOUND_CANONICALIZED>
1

> <PUBCHEM_CACTVS_COMPLEXITY>
656

> <PUBCHEM_CACTVS_HBOND_ACCEPTOR>
6

> <PUBCHEM_CACTVS_HBOND_DONOR>
1

> <PUBCHEM_CACTVS_ROTATABLE_BOND>
0

> <PUBCHEM_CACTVS_SUBSKEYS>
AAADceB6OAAAAAAAAAAAAAAAAAAAAWIAAAAAAAAAAAAQAAAAAAAAHgAECAAADXzhgAYCCAMQBgCIAiDSCAKAAAAgAAAgCAFIAEgDBBIAoQAHUAAGwACbIYPYbBxOgAAAAAAAAAAAAAAAAAAAAAAAAAAAAA==

> <PUBCHEM_IUPAC_INCHI>
InChI=1S/C18H25NO6/c1-4-12-9-11(2)18(3,22)17(21)24-10-13-5-7-19(23)8-6-14(15(13)19)25-16(12)20/h4-5,11,14-15,22H,6-10H2,1-3H3/b12-4-/t11-,14-,15-,18-,19?/m1/s1

> <PUBCHEM_IUPAC_INCHIKEY>
PLGBHVNNYDZWGZ-GPUZEBNTSA-N

> <PUBCHEM_XLOGP3_AA>
0.5

> <PUBCHEM_EXACT_MASS>
351.168188

> <PUBCHEM_MOLECULAR_FORMULA>
C18H25NO6

> <PUBCHEM_MOLECULAR_WEIGHT>
351.3942

> <PUBCHEM_OPENEYE_CAN_SMILES>
CC=C1CC(C(C(=O)OCC2=CC[N+]3(C2C(CC3)OC1=O)[O-])(C)O)C

> <PUBCHEM_OPENEYE_ISO_SMILES>
C/C=C\1/C[C@H]([C@@](C(=O)OCC2=CC[N+]3([C@H]2[C@@H](CC3)OC1=O)[O-])(C)O)C

> <PUBCHEM_CACTVS_TPSA>
90.9

> <PUBCHEM_MONOISOTOPIC_WEIGHT>
351.168188

> <PUBCHEM_TOTAL_CHARGE>
0

> <PUBCHEM_HEAVY_ATOM_COUNT>
25

> <PUBCHEM_ATOM_DEF_STEREO_COUNT>
4

> <PUBCHEM_ATOM_UDEF_STEREO_COUNT>
1

> <PUBCHEM_BOND_DEF_STEREO_COUNT>
1

> <PUBCHEM_BOND_UDEF_STEREO_COUNT>
0

> <PUBCHEM_ISOTOPIC_ATOM_COUNT>
0

> <PUBCHEM_COMPONENT_COUNT>
1

> <PUBCHEM_CACTVS_TAUTO_COUNT>
1

> <PUBCHEM_COORDINATE_TYPE>
1
5
255

> <PUBCHEM_BONDANNOTATIONS>
17  22  5
7  2  3
18  4  6
8  26  5
9  27  5

$$$$

