17395574
  -OEChem-06241222512D

 42 45  0     1  0  0  0  0  0999 V2000
    4.2506    0.5452    0.0000 S   0  0  0  0  0  0  0  0  0  0  0  0
    3.0779   -1.0749    0.0000 O   0  0  0  0  0  0  0  0  0  0  0  0
    4.5274    2.2998    0.0000 N   0  0  0  0  0  0  0  0  0  0  0  0
    5.0274    3.8387    0.0000 N   0  0  0  0  0  0  0  0  0  0  0  0
    6.1391    2.3012    0.0000 N   0  0  0  0  0  0  0  0  0  0  0  0
    4.4809   -2.0905    0.0000 N   0  0  0  0  0  0  0  0  0  0  0  0
    5.8311    1.3561    0.0000 N   0  0  0  0  0  0  0  0  0  0  0  0
    3.7183    2.8876    0.0000 C   0  0  0  0  0  0  0  0  0  0  0  0
    5.3364    2.8876    0.0000 C   0  0  0  0  0  0  0  0  0  0  0  0
    4.8370    1.3552    0.0000 C   0  0  0  0  0  0  0  0  0  0  0  0
    4.6589   -0.3676    0.0000 C   0  0  3  0  0  0  0  0  0  0  0  0
    4.0274    3.8387    0.0000 C   0  0  0  0  0  0  0  0  0  0  0  0
    4.0726   -1.1777    0.0000 C   0  0  0  0  0  0  0  0  0  0  0  0
    2.7029    2.6554    0.0000 C   0  0  0  0  0  0  0  0  0  0  0  0
    3.3424    4.6234    0.0000 C   0  0  0  0  0  0  0  0  0  0  0  0
    5.6536   -0.4705    0.0000 C   0  0  0  0  0  0  0  0  0  0  0  0
    3.8945   -2.9006    0.0000 C   0  0  0  0  0  0  0  0  0  0  0  0
    2.0000    3.4241    0.0000 C   0  0  0  0  0  0  0  0  0  0  0  0
    2.3219    4.4147    0.0000 C   0  0  0  0  0  0  0  0  0  0  0  0
    5.4756   -2.1933    0.0000 C   0  0  0  0  0  0  0  0  0  0  0  0
    2.8998   -2.7978    0.0000 C   0  0  0  0  0  0  0  0  0  0  0  0
    4.3028   -3.8134    0.0000 C   0  0  0  0  0  0  0  0  0  0  0  0
    2.3134   -3.6078    0.0000 C   0  0  0  0  0  0  0  0  0  0  0  0
    3.7164   -4.6234    0.0000 C   0  0  0  0  0  0  0  0  0  0  0  0
    2.7217   -4.5206    0.0000 C   0  0  0  0  0  0  0  0  0  0  0  0
    5.0225    0.1346    0.0000 H   0  0  0  0  0  0  0  0  0  0  0  0
    6.7291    2.4918    0.0000 H   0  0  0  0  0  0  0  0  0  0  0  0
    2.5182    2.0636    0.0000 H   0  0  0  0  0  0  0  0  0  0  0  0
    3.5408    5.2108    0.0000 H   0  0  0  0  0  0  0  0  0  0  0  0
    5.5899   -1.0872    0.0000 H   0  0  0  0  0  0  0  0  0  0  0  0
    6.2704   -0.5342    0.0000 H   0  0  0  0  0  0  0  0  0  0  0  0
    5.7174    0.1463    0.0000 H   0  0  0  0  0  0  0  0  0  0  0  0
    1.3940    3.2928    0.0000 H   0  0  0  0  0  0  0  0  0  0  0  0
    1.9088    4.8771    0.0000 H   0  0  0  0  0  0  0  0  0  0  0  0
    5.4118   -2.8100    0.0000 H   0  0  0  0  0  0  0  0  0  0  0  0
    6.0923   -2.2571    0.0000 H   0  0  0  0  0  0  0  0  0  0  0  0
    5.5393   -1.5766    0.0000 H   0  0  0  0  0  0  0  0  0  0  0  0
    2.6466   -2.2318    0.0000 H   0  0  0  0  0  0  0  0  0  0  0  0
    4.9195   -3.8771    0.0000 H   0  0  0  0  0  0  0  0  0  0  0  0
    1.6967   -3.5440    0.0000 H   0  0  0  0  0  0  0  0  0  0  0  0
    3.9696   -5.1894    0.0000 H   0  0  0  0  0  0  0  0  0  0  0  0
    2.3582   -5.0228    0.0000 H   0  0  0  0  0  0  0  0  0  0  0  0
  1 10  1  0  0  0  0
  1 11  1  0  0  0  0
  2 13  2  0  0  0  0
  3  8  1  0  0  0  0
  3  9  1  0  0  0  0
  3 10  1  0  0  0  0
  4  9  2  0  0  0  0
  4 12  1  0  0  0  0
  5  7  1  0  0  0  0
  5  9  1  0  0  0  0
  5 27  1  0  0  0  0
  6 13  1  0  0  0  0
  6 17  1  0  0  0  0
  6 20  1  0  0  0  0
  7 10  2  0  0  0  0
  8 12  1  0  0  0  0
  8 14  2  0  0  0  0
 11 13  1  0  0  0  0
 11 16  1  0  0  0  0
 11 26  1  0  0  0  0
 12 15  2  0  0  0  0
 14 18  1  0  0  0  0
 14 28  1  0  0  0  0
 15 19  1  0  0  0  0
 15 29  1  0  0  0  0
 16 30  1  0  0  0  0
 16 31  1  0  0  0  0
 16 32  1  0  0  0  0
 17 21  2  0  0  0  0
 17 22  1  0  0  0  0
 18 19  2  0  0  0  0
 18 33  1  0  0  0  0
 19 34  1  0  0  0  0
 20 35  1  0  0  0  0
 20 36  1  0  0  0  0
 20 37  1  0  0  0  0
 21 23  1  0  0  0  0
 21 38  1  0  0  0  0
 22 24  2  0  0  0  0
 22 39  1  0  0  0  0
 23 25  2  0  0  0  0
 23 40  1  0  0  0  0
 24 25  1  0  0  0  0
 24 41  1  0  0  0  0
 25 42  1  0  0  0  0
M  END
> <PUBCHEM_COMPOUND_CID>
17395574

> <PUBCHEM_COMPOUND_CANONICALIZED>
1

> <PUBCHEM_CACTVS_COMPLEXITY>
486

> <PUBCHEM_CACTVS_HBOND_ACCEPTOR>
4

> <PUBCHEM_CACTVS_HBOND_DONOR>
1

> <PUBCHEM_CACTVS_ROTATABLE_BOND>
4

> <PUBCHEM_CACTVS_SUBSKEYS>
AAADceB7oABAAAAAAAAAAAAAAAAAAWLAAAAwYAAAAAAWAFgB/AAAHgQYAAAACAiF1gSz0LdvGAiqASVydACS0C/hErANuCE4dJiIaKLAmZGUIAhohgLIyCcQAAAAAAAAAAAAACAAAAAAAAAAQAAAAAAAAA==

> <PUBCHEM_IUPAC_OPENEYE_NAME>
N-methyl-N-phenyl-2-(3H-[1,2,4]triazolo[4,3-a]benzimidazol-1-ylsulfanyl)propanamide

> <PUBCHEM_IUPAC_CAS_NAME>
N-methyl-N-phenyl-2-(3H-[1,2,4]triazolo[4,3-a]benzimidazol-1-ylthio)propanamide

> <PUBCHEM_IUPAC_NAME>
N-methyl-N-phenyl-2-(3H-[1,2,4]triazolo[4,3-a]benzimidazol-1-ylsulfanyl)propanamide

> <PUBCHEM_IUPAC_SYSTEMATIC_NAME>
N-methyl-N-phenyl-2-(3H-[1,2,4]triazolo[4,3-a]benzimidazol-1-ylsulfanyl)propanamide

> <PUBCHEM_IUPAC_TRADITIONAL_NAME>
N-methyl-N-phenyl-2-(3H-[1,2,4]triazolo[4,3-a]benzimidazol-1-ylthio)propionamide

> <PUBCHEM_IUPAC_INCHI>
InChI=1S/C18H17N5OS/c1-12(16(24)22(2)13-8-4-3-5-9-13)25-18-21-20-17-19-14-10-6-7-11-15(14)23(17)18/h3-12H,1-2H3,(H,19,20)

> <PUBCHEM_IUPAC_INCHIKEY>
GAXWMEPOKFQNQG-UHFFFAOYSA-N

> <PUBCHEM_XLOGP3_AA>
4.7

> <PUBCHEM_EXACT_MASS>
351.115381

> <PUBCHEM_MOLECULAR_FORMULA>
C18H17N5OS

> <PUBCHEM_MOLECULAR_WEIGHT>
351.42548

> <PUBCHEM_OPENEYE_CAN_SMILES>
CC(C(=O)N(C)C1=CC=CC=C1)SC2=NNC3=NC4=CC=CC=C4N32

> <PUBCHEM_OPENEYE_ISO_SMILES>
CC(C(=O)N(C)C1=CC=CC=C1)SC2=NNC3=NC4=CC=CC=C4N32

> <PUBCHEM_CACTVS_TPSA>
91.6

> <PUBCHEM_MONOISOTOPIC_WEIGHT>
351.115381

> <PUBCHEM_TOTAL_CHARGE>
0

> <PUBCHEM_HEAVY_ATOM_COUNT>
25

> <PUBCHEM_ATOM_DEF_STEREO_COUNT>
0

> <PUBCHEM_ATOM_UDEF_STEREO_COUNT>
1

> <PUBCHEM_BOND_DEF_STEREO_COUNT>
0

> <PUBCHEM_BOND_UDEF_STEREO_COUNT>
0

> <PUBCHEM_ISOTOPIC_ATOM_COUNT>
0

> <PUBCHEM_COMPONENT_COUNT>
1

> <PUBCHEM_CACTVS_TAUTO_COUNT>
2

> <PUBCHEM_COORDINATE_TYPE>
1
5
255

> <PUBCHEM_BONDANNOTATIONS>
11  16  3
12  15  8
14  18  8
15  19  8
17  21  8
17  22  8
18  19  8
21  23  8
22  24  8
23  25  8
24  25  8
3  10  8
3  8  8
3  9  8
4  12  8
4  9  8
5  7  8
5  9  8
7  10  8
8  12  8
8  14  8

$$$$

