   Color/Form

     * CRYSTALS
     * WHITE TO OFF-WHITE, CRYSTALLINE POWDER

   from [1]HSDB

   Melting Point
        230-231 DEG C
   from [2]HSDB

   Dissociation Constants
        PKA 4.2
   from [3]HSDB

   Solubilities

     * IN WATER @ PH 7.1: 0.0041 G/100 ML @ 25 DEG C, 0.008 G/100 ML @ 37
       DEG C; SOL IN SOLN OF ALKALI HYDROXIDES; SPARINGLY SOL IN ETHER,
       CHLOROFORM; SLIGHTLY SOL IN ETHANOL
     * 1 G SOL IN 26 ML DIMETHYLFORMAMIDE & 220 ML ALCOHOL

   from [4]HSDB

   Spectral Properties
        MAX ABSORPTION (0.1 N NAOH): 285 NM, 340 NM
   from [5]HSDB

   Other Chemical/Physical Properties

     * EFFERVESCENCE
     * DECARBOXYLATES @ TEMP ABOVE ITS MELTING POINT (@ 300 DEG C, 100% IS
       DECARBOXYLATED IN 3 MIN)
     * WHITE POWDER; SOLUBILITY IN WATER: GREATER THAN 5 G/100 ML /SODIUM
       SALT/

   from [6]HSDB

   Computed Properties
   Molecular Weight                  241.2851 [g/mol]
   Molecular Formula                 C[15]H[15]NO[2]
   XLogP3                            5.1
   H-Bond Donor                      2
   H-Bond Acceptor                   3
   Rotatable Bond Count              3
   Tautomer Count                    4
   Exact Mass                        241.110279
   MonoIsotopic Mass                 241.110279
   Topological Polar Surface Area    49.3
   Heavy Atom Count                  18
   Formal Charge                     0
   Complexity                        292
   Isotope Atom Count                0
   Defined Atom Stereocenter Count   0
   Undefined Atom Stereocenter Count 0
   Defined Bond Stereocenter Count   0
   Undefined Bond Stereocenter Count 0
   Covalently-Bonded Unit Count      1
   Feature 3D Acceptor Count         2
   Feature 3D Donor Count            1
   Feature 3D Anion Count            1
   Feature 3D Cation Count           1
   Feature 3D Ring Count             2
   Effective Rotor Count             3
   Conformer Sampling RMSD           0.6
   CID Conformer Count               [7]11

References

   1. http://toxnet.nlm.nih.gov/cgi-bin/sis/search/r?dbs+hsdb:@term+@rn+@rel+61-68-7
   2. http://toxnet.nlm.nih.gov/cgi-bin/sis/search/r?dbs+hsdb:@term+@rn+@rel+61-68-7
   3. http://toxnet.nlm.nih.gov/cgi-bin/sis/search/r?dbs+hsdb:@term+@rn+@rel+61-68-7
   4. http://toxnet.nlm.nih.gov/cgi-bin/sis/search/r?dbs+hsdb:@term+@rn+@rel+61-68-7
   5. http://toxnet.nlm.nih.gov/cgi-bin/sis/search/r?dbs+hsdb:@term+@rn+@rel+61-68-7
   6. http://toxnet.nlm.nih.gov/cgi-bin/sis/search/r?dbs+hsdb:@term+@rn+@rel+61-68-7
   7. http://pubchem.ncbi.nlm.nih.gov/vw3d/vw3d.cgi?cid=4044
