235942
  -OEChem-07051213062D

 59 62  0     1  0  0  0  0  0999 V2000
    9.0899    2.7076    0.0000 O   0  0  0  0  0  0  0  0  0  0  0  0
    2.3079   -1.0995    0.0000 O   0  0  0  0  0  0  0  0  0  0  0  0
    6.1010    0.4523    0.0000 C   0  0  1  0  0  0  0  0  0  0  0  0
    6.9670   -0.0477    0.0000 C   0  0  2  0  0  0  0  0  0  0  0  0
    5.1910   -0.0545    0.0000 C   0  0  2  0  0  0  0  0  0  0  0  0
    7.8331    0.4523    0.0000 C   0  0  1  0  0  0  0  0  0  0  0  0
    7.8331    1.4523    0.0000 C   0  0  2  0  0  0  0  0  0  0  0  0
    5.1830   -1.0961    0.0000 C   0  0  1  0  0  0  0  0  0  0  0  0
    6.1010    1.4523    0.0000 C   0  0  0  0  0  0  0  0  0  0  0  0
    6.9831   -1.0892    0.0000 C   0  0  0  0  0  0  0  0  0  0  0  0
    6.9670    1.9523    0.0000 C   0  0  0  0  0  0  0  0  0  0  0  0
    6.0851   -1.6170    0.0000 C   0  0  0  0  0  0  0  0  0  0  0  0
    8.7793    0.1476    0.0000 C   0  0  0  0  0  0  0  0  0  0  0  0
    8.7793    1.7570    0.0000 C   0  0  2  0  0  0  0  0  0  0  0  0
    4.2642    0.5095    0.0000 C   0  0  0  0  0  0  0  0  0  0  0  0
    4.2476   -1.6459    0.0000 C   0  0  0  0  0  0  0  0  0  0  0  0
    9.3629    0.9523    0.0000 C   0  0  0  0  0  0  0  0  0  0  0  0
    3.3079   -1.1034    0.0000 C   0  0  1  0  0  0  0  0  0  0  0  0
    5.1987    0.9454    0.0000 C   0  0  0  0  0  0  0  0  0  0  0  0
    3.3163   -0.0184    0.0000 C   0  0  0  0  0  0  0  0  0  0  0  0
    7.8331    2.4523    0.0000 C   0  0  0  0  0  0  0  0  0  0  0  0
    2.8046   -1.9675    0.0000 C   0  0  0  0  0  0  0  0  0  0  0  0
    3.3012   -2.8354    0.0000 C   0  0  0  0  0  0  0  0  0  0  0  0
    6.8371    0.8773    0.0000 H   0  0  0  0  0  0  0  0  0  0  0  0
    7.7064   -0.4670    0.0000 H   0  0  0  0  0  0  0  0  0  0  0  0
    7.9230   -0.3929    0.0000 H   0  0  0  0  0  0  0  0  0  0  0  0
    5.1862   -1.9461    0.0000 H   0  0  0  0  0  0  0  0  0  0  0  0
    5.8890    2.0349    0.0000 H   0  0  0  0  0  0  0  0  0  0  0  0
    5.4904    1.3446    0.0000 H   0  0  0  0  0  0  0  0  0  0  0  0
    7.2011   -1.6696    0.0000 H   0  0  0  0  0  0  0  0  0  0  0  0
    7.5922   -0.9737    0.0000 H   0  0  0  0  0  0  0  0  0  0  0  0
    7.3656    2.4272    0.0000 H   0  0  0  0  0  0  0  0  0  0  0  0
    6.5685    2.4272    0.0000 H   0  0  0  0  0  0  0  0  0  0  0  0
    5.6878   -2.0929    0.0000 H   0  0  0  0  0  0  0  0  0  0  0  0
    6.4860   -2.0899    0.0000 H   0  0  0  0  0  0  0  0  0  0  0  0
    8.5282   -0.4193    0.0000 H   0  0  0  0  0  0  0  0  0  0  0  0
    9.3167   -0.1617    0.0000 H   0  0  0  0  0  0  0  0  0  0  0  0
    9.3918    1.8532    0.0000 H   0  0  0  0  0  0  0  0  0  0  0  0
    4.6724    0.9762    0.0000 H   0  0  0  0  0  0  0  0  0  0  0  0
    3.8742    0.9916    0.0000 H   0  0  0  0  0  0  0  0  0  0  0  0
    3.8502   -2.1218    0.0000 H   0  0  0  0  0  0  0  0  0  0  0  0
    4.6485   -2.1188    0.0000 H   0  0  0  0  0  0  0  0  0  0  0  0
    9.8238    0.5376    0.0000 H   0  0  0  0  0  0  0  0  0  0  0  0
    9.8238    1.3670    0.0000 H   0  0  0  0  0  0  0  0  0  0  0  0
    5.8187    0.9406    0.0000 H   0  0  0  0  0  0  0  0  0  0  0  0
    5.2035    1.5654    0.0000 H   0  0  0  0  0  0  0  0  0  0  0  0
    4.5787    0.9502    0.0000 H   0  0  0  0  0  0  0  0  0  0  0  0
    3.1117    0.5669    0.0000 H   0  0  0  0  0  0  0  0  0  0  0  0
    2.7046   -0.1198    0.0000 H   0  0  0  0  0  0  0  0  0  0  0  0
    8.4531    2.4523    0.0000 H   0  0  0  0  0  0  0  0  0  0  0  0
    7.8331    3.0723    0.0000 H   0  0  0  0  0  0  0  0  0  0  0  0
    7.2131    2.4523    0.0000 H   0  0  0  0  0  0  0  0  0  0  0  0
    2.3312   -1.5671    0.0000 H   0  0  0  0  0  0  0  0  0  0  0  0
    2.3281   -2.3642    0.0000 H   0  0  0  0  0  0  0  0  0  0  0  0
    9.6966    2.8354    0.0000 H   0  0  0  0  0  0  0  0  0  0  0  0
    2.0000   -0.5614    0.0000 H   0  0  0  0  0  0  0  0  0  0  0  0
    2.7631   -3.1433    0.0000 H   0  0  0  0  0  0  0  0  0  0  0  0
    3.6092   -3.3735    0.0000 H   0  0  0  0  0  0  0  0  0  0  0  0
    3.8394   -2.5275    0.0000 H   0  0  0  0  0  0  0  0  0  0  0  0
 14  1  1  1  0  0  0
  1 55  1  0  0  0  0
 18  2  1  6  0  0  0
  2 56  1  0  0  0  0
  3  4  1  0  0  0  0
  3  5  1  0  0  0  0
  3  9  1  0  0  0  0
  3 24  1  6  0  0  0
  4  6  1  0  0  0  0
  4 10  1  0  0  0  0
  4 25  1  1  0  0  0
  5  8  1  0  0  0  0
  5 15  1  0  0  0  0
  5 19  1  1  0  0  0
  6  7  1  0  0  0  0
  6 13  1  0  0  0  0
  6 26  1  6  0  0  0
  7 11  1  0  0  0  0
  7 14  1  0  0  0  0
  7 21  1  1  0  0  0
  8 12  1  0  0  0  0
  8 16  1  0  0  0  0
  8 27  1  6  0  0  0
  9 11  1  0  0  0  0
  9 28  1  0  0  0  0
  9 29  1  0  0  0  0
 10 12  1  0  0  0  0
 10 30  1  0  0  0  0
 10 31  1  0  0  0  0
 11 32  1  0  0  0  0
 11 33  1  0  0  0  0
 12 34  1  0  0  0  0
 12 35  1  0  0  0  0
 13 17  1  0  0  0  0
 13 36  1  0  0  0  0
 13 37  1  0  0  0  0
 14 17  1  0  0  0  0
 14 38  1  0  0  0  0
 15 20  1  0  0  0  0
 15 39  1  0  0  0  0
 15 40  1  0  0  0  0
 16 18  1  0  0  0  0
 16 41  1  0  0  0  0
 16 42  1  0  0  0  0
 17 43  1  0  0  0  0
 17 44  1  0  0  0  0
 18 20  1  0  0  0  0
 18 22  1  0  0  0  0
 19 45  1  0  0  0  0
 19 46  1  0  0  0  0
 19 47  1  0  0  0  0
 20 48  1  0  0  0  0
 20 49  1  0  0  0  0
 21 50  1  0  0  0  0
 21 51  1  0  0  0  0
 21 52  1  0  0  0  0
 22 23  1  0  0  0  0
 22 53  1  0  0  0  0
 22 54  1  0  0  0  0
 23 57  1  0  0  0  0
 23 58  1  0  0  0  0
 23 59  1  0  0  0  0
M  END
> <PUBCHEM_COMPOUND_CID>
235942

> <PUBCHEM_COMPOUND_CANONICALIZED>
1

> <PUBCHEM_CACTVS_COMPLEXITY>
477

> <PUBCHEM_CACTVS_HBOND_ACCEPTOR>
2

> <PUBCHEM_CACTVS_HBOND_DONOR>
2

> <PUBCHEM_CACTVS_ROTATABLE_BOND>
1

> <PUBCHEM_CACTVS_SUBSKEYS>
AAADcfB4MAAAAAAAAAAAAAAAAAAAAYAAAAAwYMAAAAAAAGDAAAAAGgAACAAAD1SggAICAAAAAgAAAAAAAAAAAAAAAAAAAAAAAAAAEAIAAAAAQAAEAAAAAAGAwPAPgAAAAAAAAADAAAYAACAAAIAADAAAAA==

> <PUBCHEM_IUPAC_OPENEYE_NAME>
(3R,5S,8R,9S,10S,13S,14S,17S)-3-ethyl-10,13-dimethyl-1,2,4,5,6,7,8,9,11,12,14,15,16,17-tetradecahydrocyclopenta[a]phenanthrene-3,17-diol

> <PUBCHEM_IUPAC_CAS_NAME>
(3R,5S,8R,9S,10S,13S,14S,17S)-3-ethyl-10,13-dimethyl-1,2,4,5,6,7,8,9,11,12,14,15,16,17-tetradecahydrocyclopenta[a]phenanthrene-3,17-diol

> <PUBCHEM_IUPAC_NAME>
(3R,5S,8R,9S,10S,13S,14S,17S)-3-ethyl-10,13-dimethyl-1,2,4,5,6,7,8,9,11,12,14,15,16,17-tetradecahydrocyclopenta[a]phenanthrene-3,17-diol

> <PUBCHEM_IUPAC_SYSTEMATIC_NAME>
(3R,5S,8R,9S,10S,13S,14S,17S)-3-ethyl-10,13-dimethyl-1,2,4,5,6,7,8,9,11,12,14,15,16,17-tetradecahydrocyclopenta[a]phenanthrene-3,17-diol

> <PUBCHEM_IUPAC_TRADITIONAL_NAME>
(3R,5S,8R,9S,10S,13S,14S,17S)-3-ethyl-10,13-dimethyl-1,2,4,5,6,7,8,9,11,12,14,15,16,17-tetradecahydrocyclopenta[a]phenanthrene-3,17-diol

> <PUBCHEM_IUPAC_INCHI>
InChI=1S/C21H36O2/c1-4-21(23)12-11-19(2)14(13-21)5-6-15-16-7-8-18(22)20(16,3)10-9-17(15)19/h14-18,22-23H,4-13H2,1-3H3/t14-,15-,16-,17-,18-,19-,20-,21+/m0/s1

> <PUBCHEM_IUPAC_INCHIKEY>
LLYZBWQKINZAKR-UAMJIQGISA-N

> <PUBCHEM_XLOGP3>
4.9

> <PUBCHEM_EXACT_MASS>
320.27153

> <PUBCHEM_MOLECULAR_FORMULA>
C21H36O2

> <PUBCHEM_MOLECULAR_WEIGHT>
320.50934

> <PUBCHEM_OPENEYE_CAN_SMILES>
CCC1(CCC2(C(C1)CCC3C2CCC4(C3CCC4O)C)C)O

> <PUBCHEM_OPENEYE_ISO_SMILES>
CC[C@]1(CC[C@]2([C@H](C1)CC[C@@H]3[C@@H]2CC[C@]4([C@H]3CC[C@@H]4O)C)C)O

> <PUBCHEM_CACTVS_TPSA>
40.5

> <PUBCHEM_MONOISOTOPIC_WEIGHT>
320.27153

> <PUBCHEM_TOTAL_CHARGE>
0

> <PUBCHEM_HEAVY_ATOM_COUNT>
23

> <PUBCHEM_ATOM_DEF_STEREO_COUNT>
8

> <PUBCHEM_ATOM_UDEF_STEREO_COUNT>
0

> <PUBCHEM_BOND_DEF_STEREO_COUNT>
0

> <PUBCHEM_BOND_UDEF_STEREO_COUNT>
0

> <PUBCHEM_ISOTOPIC_ATOM_COUNT>
0

> <PUBCHEM_COMPONENT_COUNT>
1

> <PUBCHEM_CACTVS_TAUTO_COUNT>
1

> <PUBCHEM_COORDINATE_TYPE>
1
5
255

> <PUBCHEM_BONDANNOTATIONS>
14  1  5
18  2  6
3  24  6
4  25  5
5  19  5
6  26  6
7  21  5
8  27  6

$$$$

