9037
  -OEChem-06261203212D

 41 40  0     0  0  0  0  0  0999 V2000
    3.7320   -0.1160    0.0000 P   0  0  0  0  0  0  0  0  0  0  0  0
    5.4641   -0.1160    0.0000 P   0  0  0  0  0  0  0  0  0  0  0  0
    4.5981    0.3840    0.0000 O   0  0  0  0  0  0  0  0  0  0  0  0
    4.2320   -0.9821    0.0000 O   0  0  0  0  0  0  0  0  0  0  0  0
    4.9641   -0.9821    0.0000 O   0  0  0  0  0  0  0  0  0  0  0  0
    2.8660   -0.6160    0.0000 N   0  0  0  0  0  0  0  0  0  0  0  0
    3.2320    0.7500    0.0000 N   0  0  0  0  0  0  0  0  0  0  0  0
    6.3301   -0.6160    0.0000 N   0  0  0  0  0  0  0  0  0  0  0  0
    5.9641    0.7500    0.0000 N   0  0  0  0  0  0  0  0  0  0  0  0
    5.4641    1.6160    0.0000 C   0  0  0  0  0  0  0  0  0  0  0  0
    6.9641    0.7500    0.0000 C   0  0  0  0  0  0  0  0  0  0  0  0
    7.1962   -0.1160    0.0000 C   0  0  0  0  0  0  0  0  0  0  0  0
    6.3301   -1.6160    0.0000 C   0  0  0  0  0  0  0  0  0  0  0  0
    3.7320    1.6160    0.0000 C   0  0  0  0  0  0  0  0  0  0  0  0
    2.2320    0.7500    0.0000 C   0  0  0  0  0  0  0  0  0  0  0  0
    2.0000   -0.1160    0.0000 C   0  0  0  0  0  0  0  0  0  0  0  0
    2.8660   -1.6160    0.0000 C   0  0  0  0  0  0  0  0  0  0  0  0
    6.0010    1.9260    0.0000 H   0  0  0  0  0  0  0  0  0  0  0  0
    5.1541    2.1530    0.0000 H   0  0  0  0  0  0  0  0  0  0  0  0
    4.9272    1.3060    0.0000 H   0  0  0  0  0  0  0  0  0  0  0  0
    6.9641    0.1300    0.0000 H   0  0  0  0  0  0  0  0  0  0  0  0
    7.5841    0.7500    0.0000 H   0  0  0  0  0  0  0  0  0  0  0  0
    6.9641    1.3700    0.0000 H   0  0  0  0  0  0  0  0  0  0  0  0
    7.5062   -0.6530    0.0000 H   0  0  0  0  0  0  0  0  0  0  0  0
    7.7331    0.1940    0.0000 H   0  0  0  0  0  0  0  0  0  0  0  0
    6.8862    0.4209    0.0000 H   0  0  0  0  0  0  0  0  0  0  0  0
    5.7101   -1.6160    0.0000 H   0  0  0  0  0  0  0  0  0  0  0  0
    6.3301   -2.2360    0.0000 H   0  0  0  0  0  0  0  0  0  0  0  0
    6.9501   -1.6160    0.0000 H   0  0  0  0  0  0  0  0  0  0  0  0
    4.2690    1.3060    0.0000 H   0  0  0  0  0  0  0  0  0  0  0  0
    4.0420    2.1530    0.0000 H   0  0  0  0  0  0  0  0  0  0  0  0
    3.1951    1.9260    0.0000 H   0  0  0  0  0  0  0  0  0  0  0  0
    2.2320    1.3700    0.0000 H   0  0  0  0  0  0  0  0  0  0  0  0
    1.6120    0.7500    0.0000 H   0  0  0  0  0  0  0  0  0  0  0  0
    2.2320    0.1300    0.0000 H   0  0  0  0  0  0  0  0  0  0  0  0
    2.3100    0.4209    0.0000 H   0  0  0  0  0  0  0  0  0  0  0  0
    1.4631    0.1940    0.0000 H   0  0  0  0  0  0  0  0  0  0  0  0
    1.6900   -0.6530    0.0000 H   0  0  0  0  0  0  0  0  0  0  0  0
    2.2460   -1.6160    0.0000 H   0  0  0  0  0  0  0  0  0  0  0  0
    2.8660   -2.2360    0.0000 H   0  0  0  0  0  0  0  0  0  0  0  0
    3.4860   -1.6160    0.0000 H   0  0  0  0  0  0  0  0  0  0  0  0
  1  3  1  0  0  0  0
  1  4  2  0  0  0  0
  1  6  1  0  0  0  0
  1  7  1  0  0  0  0
  2  3  1  0  0  0  0
  2  5  2  0  0  0  0
  2  8  1  0  0  0  0
  2  9  1  0  0  0  0
  6 16  1  0  0  0  0
  6 17  1  0  0  0  0
  7 14  1  0  0  0  0
  7 15  1  0  0  0  0
  8 12  1  0  0  0  0
  8 13  1  0  0  0  0
  9 10  1  0  0  0  0
  9 11  1  0  0  0  0
 10 18  1  0  0  0  0
 10 19  1  0  0  0  0
 10 20  1  0  0  0  0
 11 21  1  0  0  0  0
 11 22  1  0  0  0  0
 11 23  1  0  0  0  0
 12 24  1  0  0  0  0
 12 25  1  0  0  0  0
 12 26  1  0  0  0  0
 13 27  1  0  0  0  0
 13 28  1  0  0  0  0
 13 29  1  0  0  0  0
 14 30  1  0  0  0  0
 14 31  1  0  0  0  0
 14 32  1  0  0  0  0
 15 33  1  0  0  0  0
 15 34  1  0  0  0  0
 15 35  1  0  0  0  0
 16 36  1  0  0  0  0
 16 37  1  0  0  0  0
 16 38  1  0  0  0  0
 17 39  1  0  0  0  0
 17 40  1  0  0  0  0
 17 41  1  0  0  0  0
M  END
> <PUBCHEM_COMPOUND_CID>
9037

> <PUBCHEM_COMPOUND_CANONICALIZED>
1

> <PUBCHEM_CACTVS_COMPLEXITY>
288

> <PUBCHEM_CACTVS_HBOND_ACCEPTOR>
7

> <PUBCHEM_CACTVS_HBOND_DONOR>
0

> <PUBCHEM_CACTVS_ROTATABLE_BOND>
6

> <PUBCHEM_CACTVS_SUBSKEYS>
AAADceBzsAMAAAAAAAAAAAAAAAAAAAAAAAAAAAAAAAAAAAAAAAAAFAAAgCAAAAAAAAQCAAIAABAAQAAAAIAAAAAAAAAAAAAIAAAAAAAAAAAAAAAAAAAAAAAAAAAAAAAAAAAAAAAAAAAAAAAAAAAAAAAAAA==

> <PUBCHEM_IUPAC_OPENEYE_NAME>
N-[bis(dimethylamino)phosphoryloxy-(dimethylamino)phosphoryl]-N-methyl-methanamine

> <PUBCHEM_IUPAC_CAS_NAME>
N-[bis(dimethylamino)phosphoryloxy-(dimethylamino)phosphoryl]-N-methylmethanamine

> <PUBCHEM_IUPAC_NAME>
N-[bis(dimethylamino)phosphoryloxy-(dimethylamino)phosphoryl]-N-methylmethanamine

> <PUBCHEM_IUPAC_SYSTEMATIC_NAME>
N-[bis(dimethylamino)phosphoryloxy-(dimethylamino)phosphoryl]-N-methyl-methanamine

> <PUBCHEM_IUPAC_TRADITIONAL_NAME>
[bis(dimethylamino)phosphoryloxy-(dimethylamino)phosphoryl]-dimethyl-amine

> <PUBCHEM_IUPAC_INCHI>
InChI=1S/C8H24N4O3P2/c1-9(2)16(13,10(3)4)15-17(14,11(5)6)12(7)8/h1-8H3

> <PUBCHEM_IUPAC_INCHIKEY>
SZKKRCSOSQAJDE-UHFFFAOYSA-N

> <PUBCHEM_XLOGP3_AA>
-0.3

> <PUBCHEM_EXACT_MASS>
286.132364

> <PUBCHEM_MOLECULAR_FORMULA>
C8H24N4O3P2

> <PUBCHEM_MOLECULAR_WEIGHT>
286.248684

> <PUBCHEM_OPENEYE_CAN_SMILES>
CN(C)P(=O)(N(C)C)OP(=O)(N(C)C)N(C)C

> <PUBCHEM_OPENEYE_ISO_SMILES>
CN(C)P(=O)(N(C)C)OP(=O)(N(C)C)N(C)C

> <PUBCHEM_CACTVS_TPSA>
56.3

> <PUBCHEM_MONOISOTOPIC_WEIGHT>
286.132364

> <PUBCHEM_TOTAL_CHARGE>
0

> <PUBCHEM_HEAVY_ATOM_COUNT>
17

> <PUBCHEM_ATOM_DEF_STEREO_COUNT>
0

> <PUBCHEM_ATOM_UDEF_STEREO_COUNT>
0

> <PUBCHEM_BOND_DEF_STEREO_COUNT>
0

> <PUBCHEM_BOND_UDEF_STEREO_COUNT>
0

> <PUBCHEM_ISOTOPIC_ATOM_COUNT>
0

> <PUBCHEM_COMPONENT_COUNT>
1

> <PUBCHEM_CACTVS_TAUTO_COUNT>
1

> <PUBCHEM_COORDINATE_TYPE>
1
5
255

$$$$

