5323
  -OEChem-06261200382D

 35 36  0     0  0  0  0  0  0999 V2000
    6.0010   -0.9400    0.0000 S   0  0  0  0  0  0  0  0  0  0  0  0
    5.5010   -1.8060    0.0000 O   0  0  0  0  0  0  0  0  0  0  0  0
    6.5010   -0.0740    0.0000 O   0  0  0  0  0  0  0  0  0  0  0  0
    8.5991    1.5600    0.0000 O   0  0  0  0  0  0  0  0  0  0  0  0
   10.3312   -1.4400    0.0000 O   0  0  0  0  0  0  0  0  0  0  0  0
    6.8671   -1.4400    0.0000 N   0  0  0  0  0  0  0  0  0  0  0  0
    8.5991   -1.4400    0.0000 N   0  0  0  0  0  0  0  0  0  0  0  0
    2.5369    1.0600    0.0000 N   0  0  0  0  0  0  0  0  0  0  0  0
    9.4651    0.0600    0.0000 N   0  0  0  0  0  0  0  0  0  0  0  0
    5.1350   -0.4400    0.0000 C   0  0  0  0  0  0  0  0  0  0  0  0
    5.1350    0.5600    0.0000 C   0  0  0  0  0  0  0  0  0  0  0  0
    4.2690   -0.9400    0.0000 C   0  0  0  0  0  0  0  0  0  0  0  0
    7.7331   -0.9400    0.0000 C   0  0  0  0  0  0  0  0  0  0  0  0
    3.4030    0.5600    0.0000 C   0  0  0  0  0  0  0  0  0  0  0  0
    4.2690    1.0600    0.0000 C   0  0  0  0  0  0  0  0  0  0  0  0
    3.4030   -0.4400    0.0000 C   0  0  0  0  0  0  0  0  0  0  0  0
    7.7331    0.0600    0.0000 C   0  0  0  0  0  0  0  0  0  0  0  0
    8.5991    0.5600    0.0000 C   0  0  0  0  0  0  0  0  0  0  0  0
    9.4651   -0.9400    0.0000 C   0  0  0  0  0  0  0  0  0  0  0  0
    9.4651    2.0600    0.0000 C   0  0  0  0  0  0  0  0  0  0  0  0
   11.1972   -0.9400    0.0000 C   0  0  0  0  0  0  0  0  0  0  0  0
    6.8671   -2.0600    0.0000 H   0  0  0  0  0  0  0  0  0  0  0  0
    5.6720    0.8700    0.0000 H   0  0  0  0  0  0  0  0  0  0  0  0
    4.2690   -1.5600    0.0000 H   0  0  0  0  0  0  0  0  0  0  0  0
    4.2690    1.6800    0.0000 H   0  0  0  0  0  0  0  0  0  0  0  0
    2.8660   -0.7500    0.0000 H   0  0  0  0  0  0  0  0  0  0  0  0
    7.1962    0.3700    0.0000 H   0  0  0  0  0  0  0  0  0  0  0  0
    2.0000    0.7500    0.0000 H   0  0  0  0  0  0  0  0  0  0  0  0
    2.5369    1.6800    0.0000 H   0  0  0  0  0  0  0  0  0  0  0  0
    9.7751    1.5231    0.0000 H   0  0  0  0  0  0  0  0  0  0  0  0
   10.0021    2.3700    0.0000 H   0  0  0  0  0  0  0  0  0  0  0  0
    9.1551    2.5969    0.0000 H   0  0  0  0  0  0  0  0  0  0  0  0
   11.5072   -1.4769    0.0000 H   0  0  0  0  0  0  0  0  0  0  0  0
   11.7341   -0.6300    0.0000 H   0  0  0  0  0  0  0  0  0  0  0  0
   10.8872   -0.4031    0.0000 H   0  0  0  0  0  0  0  0  0  0  0  0
  1  2  2  0  0  0  0
  1  3  2  0  0  0  0
  1  6  1  0  0  0  0
  1 10  1  0  0  0  0
  4 18  1  0  0  0  0
  4 20  1  0  0  0  0
  5 19  1  0  0  0  0
  5 21  1  0  0  0  0
  6 13  1  0  0  0  0
  6 22  1  0  0  0  0
  7 13  1  0  0  0  0
  7 19  2  0  0  0  0
  8 14  1  0  0  0  0
  8 28  1  0  0  0  0
  8 29  1  0  0  0  0
  9 18  2  0  0  0  0
  9 19  1  0  0  0  0
 10 11  2  0  0  0  0
 10 12  1  0  0  0  0
 11 15  1  0  0  0  0
 11 23  1  0  0  0  0
 12 16  2  0  0  0  0
 12 24  1  0  0  0  0
 13 17  2  0  0  0  0
 14 15  2  0  0  0  0
 14 16  1  0  0  0  0
 15 25  1  0  0  0  0
 16 26  1  0  0  0  0
 17 18  1  0  0  0  0
 17 27  1  0  0  0  0
 20 30  1  0  0  0  0
 20 31  1  0  0  0  0
 20 32  1  0  0  0  0
 21 33  1  0  0  0  0
 21 34  1  0  0  0  0
 21 35  1  0  0  0  0
M  END
> <PUBCHEM_COMPOUND_CID>
5323

> <PUBCHEM_COMPOUND_CANONICALIZED>
1

> <PUBCHEM_CACTVS_COMPLEXITY>
420

> <PUBCHEM_CACTVS_HBOND_ACCEPTOR>
8

> <PUBCHEM_CACTVS_HBOND_DONOR>
2

> <PUBCHEM_CACTVS_ROTATABLE_BOND>
5

> <PUBCHEM_CACTVS_SUBSKEYS>
AAADccBzuABAAAAAAAAAAAAAAAAAAAAAAAA8QAAAAAAAAAABwAAAHgQQQAAACAiB0gIz9ZZIFAKgACZiZHDCiDkhIqAJmDg2bJiMLCLE+dmEJChqkApI6CcQAAAAAAQAAAAAAAAACAAAAAAAAAAAAAAAAA==

> <PUBCHEM_IUPAC_OPENEYE_NAME>
4-amino-N-(2,6-dimethoxypyrimidin-4-yl)benzenesulfonamide

> <PUBCHEM_IUPAC_CAS_NAME>
4-amino-N-(2,6-dimethoxy-4-pyrimidinyl)benzenesulfonamide

> <PUBCHEM_IUPAC_NAME>
4-amino-N-(2,6-dimethoxypyrimidin-4-yl)benzenesulfonamide

> <PUBCHEM_IUPAC_SYSTEMATIC_NAME>
4-azanyl-N-(2,6-dimethoxypyrimidin-4-yl)benzenesulfonamide

> <PUBCHEM_IUPAC_TRADITIONAL_NAME>
4-amino-N-(2,6-dimethoxypyrimidin-4-yl)benzenesulfonamide

> <PUBCHEM_IUPAC_INCHI>
InChI=1S/C12H14N4O4S/c1-19-11-7-10(14-12(15-11)20-2)16-21(17,18)9-5-3-8(13)4-6-9/h3-7H,13H2,1-2H3,(H,14,15,16)

> <PUBCHEM_IUPAC_INCHIKEY>
ZZORFUFYDOWNEF-UHFFFAOYSA-N

> <PUBCHEM_XLOGP3>
1.6

> <PUBCHEM_EXACT_MASS>
310.073576

> <PUBCHEM_MOLECULAR_FORMULA>
C12H14N4O4S

> <PUBCHEM_MOLECULAR_WEIGHT>
310.32896

> <PUBCHEM_OPENEYE_CAN_SMILES>
COC1=NC(=NC(=C1)NS(=O)(=O)C2=CC=C(C=C2)N)OC

> <PUBCHEM_OPENEYE_ISO_SMILES>
COC1=NC(=NC(=C1)NS(=O)(=O)C2=CC=C(C=C2)N)OC

> <PUBCHEM_CACTVS_TPSA>
125

> <PUBCHEM_MONOISOTOPIC_WEIGHT>
310.073576

> <PUBCHEM_TOTAL_CHARGE>
0

> <PUBCHEM_HEAVY_ATOM_COUNT>
21

> <PUBCHEM_ATOM_DEF_STEREO_COUNT>
0

> <PUBCHEM_ATOM_UDEF_STEREO_COUNT>
0

> <PUBCHEM_BOND_DEF_STEREO_COUNT>
0

> <PUBCHEM_BOND_UDEF_STEREO_COUNT>
0

> <PUBCHEM_ISOTOPIC_ATOM_COUNT>
0

> <PUBCHEM_COMPONENT_COUNT>
1

> <PUBCHEM_CACTVS_TAUTO_COUNT>
3

> <PUBCHEM_COORDINATE_TYPE>
1
5
255

> <PUBCHEM_BONDANNOTATIONS>
10  11  8
10  12  8
11  15  8
12  16  8
13  17  8
14  15  8
14  16  8
17  18  8
7  13  8
7  19  8
9  18  8
9  19  8

$$$$

