   Color/Form

     * White cyrstalline solid
     * Colorless crystals

   from [1]HSDB

   Odor

     * TYPICAL AMINE ODOR
     * Fish-like odor

   from [2]HSDB

   Melting Point
        239 deg C (decomposes)
   from [3]HSDB

   Corrosivity
        Aqueous solutions are corrosive to metal
   from [4]HSDB

   Density/Specific Gravity
        1.14 to 1.15 g/mL at 20 deg C
   from [5]HSDB

   Octanol/Water Partition Coefficient
        log Kow = -3.80
   from [6]HSDB

   pH
        pH = 5.14
   from [7]HSDB

   Solubilities

     * SOL IN LOWER ALC SUCH AS METHANOL; INSOL IN ETHER & HYDROCARBONS;
       WATER SOLUBILITY 74% @ 20 DEG C
     * In ethanol, 320 g/kg at 20 deg C.
     * Solubility in methanol: >25 kg/kg at 20 deg C, dichloroethane,
       ethyl acetate, n-heptane, and acetone <1, chloroform 0.3 (all in
       g/kg, 20 deg C).
     * In water, 9.96X10+5 mg/L at 20-25 deg C

   from [8]HSDB

   Spectral Properties
        MASS: 53665 (NIST/EPA/MSDC Mass Spectral Database 1990 version)
   from [9]HSDB

   Surface Tension
        70.3 mN/m
   from [10]HSDB

   Vapor Pressure
        7.5X10-8 mm Hg at 20 deg C
   from [11]HSDB

   Other Chemical/Physical Properties

     * Very hygroscopic
     * Begins to decompose at 230 deg C
     * The technical grade is 97-98% pure.
     * Less than 0.01 mPa at 20 deg C
     * Pale yellow crystals. Technical grade is greater than or equal to
       96% pure. /Technical/
     * Henry's Law constant = 1.6X10-14 atm-cu m/mole at 20 deg C (est)
     * Hydroxyl radical reaction rate constant = 7.4X10-12 cu cm/molec-sec
       at 25 deg C (est)

   from [12]HSDB

   Computed Properties
   Molecular Weight                  122.61642 [g/mol]
   Molecular Formula                 C[5]H[13]ClN^+
   XLogP3-AA                         0.9
   H-Bond Donor                      0
   H-Bond Acceptor                   0
   Rotatable Bond Count              2
   Exact Mass                        122.073652
   MonoIsotopic Mass                 122.073652
   Topological Polar Surface Area    0
   Heavy Atom Count                  7
   Formal Charge                     1
   Complexity                        46.5
   Isotope Atom Count                0
   Defined Atom Stereocenter Count   0
   Undefined Atom Stereocenter Count 0
   Defined Bond Stereocenter Count   0
   Undefined Bond Stereocenter Count 0
   Covalently-Bonded Unit Count      1
   Feature 3D Cation Count           1
   Effective Rotor Count             2
   Conformer Sampling RMSD           0.4
   CID Conformer Count               [13]1

References

   1. http://toxnet.nlm.nih.gov/cgi-bin/sis/search/r?dbs+hsdb:@term+@rn+@rel+999-81-5
   2. http://toxnet.nlm.nih.gov/cgi-bin/sis/search/r?dbs+hsdb:@term+@rn+@rel+999-81-5
   3. http://toxnet.nlm.nih.gov/cgi-bin/sis/search/r?dbs+hsdb:@term+@rn+@rel+999-81-5
   4. http://toxnet.nlm.nih.gov/cgi-bin/sis/search/r?dbs+hsdb:@term+@rn+@rel+999-81-5
   5. http://toxnet.nlm.nih.gov/cgi-bin/sis/search/r?dbs+hsdb:@term+@rn+@rel+999-81-5
   6. http://toxnet.nlm.nih.gov/cgi-bin/sis/search/r?dbs+hsdb:@term+@rn+@rel+999-81-5
   7. http://toxnet.nlm.nih.gov/cgi-bin/sis/search/r?dbs+hsdb:@term+@rn+@rel+999-81-5
   8. http://toxnet.nlm.nih.gov/cgi-bin/sis/search/r?dbs+hsdb:@term+@rn+@rel+999-81-5
   9. http://toxnet.nlm.nih.gov/cgi-bin/sis/search/r?dbs+hsdb:@term+@rn+@rel+999-81-5
  10. http://toxnet.nlm.nih.gov/cgi-bin/sis/search/r?dbs+hsdb:@term+@rn+@rel+999-81-5
  11. http://toxnet.nlm.nih.gov/cgi-bin/sis/search/r?dbs+hsdb:@term+@rn+@rel+999-81-5
  12. http://toxnet.nlm.nih.gov/cgi-bin/sis/search/r?dbs+hsdb:@term+@rn+@rel+999-81-5
  13. http://pubchem.ncbi.nlm.nih.gov/vw3d/vw3d.cgi?cid=13837
