5281732
  -OEChem-07051212592D

 59 60  0     1  0  0  0  0  0999 V2000
    4.9344    0.3590    0.0000 O   0  0  0  0  0  0  0  0  0  0  0  0
    8.4299    0.1576    0.0000 O   0  0  0  0  0  0  0  0  0  0  0  0
    9.9253   -0.0206    0.0000 O   0  0  0  0  0  0  0  0  0  0  0  0
   11.6761   -1.4115    0.0000 O   0  0  0  0  0  0  0  0  0  0  0  0
    8.5623   -2.2883    0.0000 O   0  0  0  0  0  0  0  0  0  0  0  0
    8.0727   -1.5372    0.0000 O   0  0  0  0  0  0  0  0  0  0  0  0
    3.2872    0.8943    0.0000 O   0  0  0  0  0  0  0  0  0  0  0  0
    6.1945    2.6191    0.0000 N   0  0  3  0  0  0  0  0  0  0  0  0
    6.1945    1.6191    0.0000 C   0  0  1  0  0  0  0  0  0  0  0  0
    5.2435    1.3101    0.0000 C   0  0  2  0  0  0  0  0  0  0  0  0
    4.6557    2.1191    0.0000 C   0  0  0  0  0  0  0  0  0  0  0  0
    5.2435    2.9281    0.0000 C   0  0  0  0  0  0  0  0  0  0  0  0
    7.1407    1.3144    0.0000 C   0  0  0  0  0  0  0  0  0  0  0  0
    7.1407    2.9238    0.0000 C   0  0  0  0  0  0  0  0  0  0  0  0
    7.7244    2.1191    0.0000 C   0  0  0  0  0  0  0  0  0  0  0  0
    7.4514    0.3639    0.0000 C   0  0  0  0  0  0  0  0  0  0  0  0
    9.7191   -0.9991    0.0000 C   0  0  1  0  0  0  0  0  0  0  0  0
   10.6976   -1.2053    0.0000 C   0  0  0  0  0  0  0  0  0  0  0  0
    8.7406   -0.7929    0.0000 C   0  0  0  0  0  0  0  0  0  0  0  0
    9.5128   -1.9776    0.0000 C   0  0  2  0  0  0  0  0  0  0  0  0
    3.9563    0.1511    0.0000 C   0  0  0  0  0  0  0  0  0  0  0  0
   11.0083   -2.1558    0.0000 C   0  0  0  0  0  0  0  0  0  0  0  0
   10.9038   -0.2268    0.0000 C   0  0  0  0  0  0  0  0  0  0  0  0
    9.8235   -2.9281    0.0000 C   0  0  0  0  0  0  0  0  0  0  0  0
    3.6473   -0.7999    0.0000 C   0  0  0  0  0  0  0  0  0  0  0  0
    4.3164   -1.5431    0.0000 C   0  0  0  0  0  0  0  0  0  0  0  0
    2.6691   -1.0078    0.0000 C   0  0  0  0  0  0  0  0  0  0  0  0
    2.0000   -0.2647    0.0000 C   0  0  0  0  0  0  0  0  0  0  0  0
    6.1956    0.7691    0.0000 H   0  0  0  0  0  0  0  0  0  0  0  0
    4.6311    1.2131    0.0000 H   0  0  0  0  0  0  0  0  0  0  0  0
    4.1949    2.5340    0.0000 H   0  0  0  0  0  0  0  0  0  0  0  0
    4.1949    1.7042    0.0000 H   0  0  0  0  0  0  0  0  0  0  0  0
    5.4956    3.4945    0.0000 H   0  0  0  0  0  0  0  0  0  0  0  0
    4.7065    3.2381    0.0000 H   0  0  0  0  0  0  0  0  0  0  0  0
    7.6781    3.2331    0.0000 H   0  0  0  0  0  0  0  0  0  0  0  0
    6.8897    3.4908    0.0000 H   0  0  0  0  0  0  0  0  0  0  0  0
    8.3444    2.1191    0.0000 H   0  0  0  0  0  0  0  0  0  0  0  0
    6.8376    0.2765    0.0000 H   0  0  0  0  0  0  0  0  0  0  0  0
    7.4308   -0.2558    0.0000 H   0  0  0  0  0  0  0  0  0  0  0  0
    9.0514   -1.5635    0.0000 H   0  0  0  0  0  0  0  0  0  0  0  0
   10.4190   -2.3485    0.0000 H   0  0  0  0  0  0  0  0  0  0  0  0
   11.2010   -2.7451    0.0000 H   0  0  0  0  0  0  0  0  0  0  0  0
   11.5976   -1.9632    0.0000 H   0  0  0  0  0  0  0  0  0  0  0  0
   11.5105   -0.3547    0.0000 H   0  0  0  0  0  0  0  0  0  0  0  0
   11.0317    0.3799    0.0000 H   0  0  0  0  0  0  0  0  0  0  0  0
   10.2971   -0.0990    0.0000 H   0  0  0  0  0  0  0  0  0  0  0  0
    9.2342   -3.1207    0.0000 H   0  0  0  0  0  0  0  0  0  0  0  0
   10.0161   -3.5174    0.0000 H   0  0  0  0  0  0  0  0  0  0  0  0
   10.4128   -2.7355    0.0000 H   0  0  0  0  0  0  0  0  0  0  0  0
    9.4638    0.3935    0.0000 H   0  0  0  0  0  0  0  0  0  0  0  0
   12.0901   -0.9501    0.0000 H   0  0  0  0  0  0  0  0  0  0  0  0
    8.4345   -2.8949    0.0000 H   0  0  0  0  0  0  0  0  0  0  0  0
    3.8557   -1.9579    0.0000 H   0  0  0  0  0  0  0  0  0  0  0  0
    4.7313   -2.0038    0.0000 H   0  0  0  0  0  0  0  0  0  0  0  0
    4.7772   -1.1282    0.0000 H   0  0  0  0  0  0  0  0  0  0  0  0
    2.4775   -1.5975    0.0000 H   0  0  0  0  0  0  0  0  0  0  0  0
    2.4608    0.1502    0.0000 H   0  0  0  0  0  0  0  0  0  0  0  0
    1.5851    0.1961    0.0000 H   0  0  0  0  0  0  0  0  0  0  0  0
    1.5392   -0.6796    0.0000 H   0  0  0  0  0  0  0  0  0  0  0  0
 10  1  1  1  0  0  0
  1 21  1  0  0  0  0
  2 16  1  0  0  0  0
  2 19  1  0  0  0  0
 17  3  1  6  0  0  0
  3 50  1  0  0  0  0
  4 18  1  0  0  0  0
  4 51  1  0  0  0  0
 20  5  1  6  0  0  0
  5 52  1  0  0  0  0
  6 19  2  0  0  0  0
  7 21  2  0  0  0  0
  8  9  1  0  0  0  0
  8 12  1  0  0  0  0
  8 14  1  0  0  0  0
  9 10  1  0  0  0  0
  9 13  1  0  0  0  0
  9 29  1  1  0  0  0
 10 11  1  0  0  0  0
 10 30  1  0  0  0  0
 11 12  1  0  0  0  0
 11 31  1  0  0  0  0
 11 32  1  0  0  0  0
 12 33  1  0  0  0  0
 12 34  1  0  0  0  0
 13 15  2  0  0  0  0
 13 16  1  0  0  0  0
 14 15  1  0  0  0  0
 14 35  1  0  0  0  0
 14 36  1  0  0  0  0
 15 37  1  0  0  0  0
 16 38  1  0  0  0  0
 16 39  1  0  0  0  0
 17 18  1  0  0  0  0
 17 19  1  0  0  0  0
 17 20  1  0  0  0  0
 18 22  1  0  0  0  0
 18 23  1  0  0  0  0
 20 24  1  0  0  0  0
 20 40  1  0  0  0  0
 21 25  1  0  0  0  0
 22 41  1  0  0  0  0
 22 42  1  0  0  0  0
 22 43  1  0  0  0  0
 23 44  1  0  0  0  0
 23 45  1  0  0  0  0
 23 46  1  0  0  0  0
 24 47  1  0  0  0  0
 24 48  1  0  0  0  0
 24 49  1  0  0  0  0
 25 26  1  0  0  0  0
 25 27  2  0  0  0  0
 26 53  1  0  0  0  0
 26 54  1  0  0  0  0
 26 55  1  0  0  0  0
 27 28  1  0  0  0  0
 27 56  1  0  0  0  0
 28 57  1  0  0  0  0
 28 58  1  0  0  0  0
 28 59  1  0  0  0  0
M  END
> <PUBCHEM_COMPOUND_CID>
5281732

> <PUBCHEM_COMPOUND_CANONICALIZED>
1

> <PUBCHEM_CACTVS_COMPLEXITY>
684

> <PUBCHEM_CACTVS_HBOND_ACCEPTOR>
8

> <PUBCHEM_CACTVS_HBOND_DONOR>
3

> <PUBCHEM_CACTVS_ROTATABLE_BOND>
9

> <PUBCHEM_CACTVS_SUBSKEYS>
AAADceB6OAAAAAAAAAAAAAAAAAAAAWIAAAAAAAAAAAAQAAAAAAAAHgAACAAADHzhgAYCCAMABgCIAiDSCAKAAAAgAAAACAFIAEgDFBYAoQAHUAAH4ACbIYPQQAAOgAAAAAAAAAAAAAAAAAAAAAAAAAAAAA==

> <PUBCHEM_IUPAC_OPENEYE_NAME>
[(7S,8R)-7-[(Z)-2-methylbut-2-enoyl]oxy-5,6,7,8-tetrahydro-3H-pyrrolizin-1-yl]methyl (2S)-2,3-dihydroxy-2-[(1S)-1-hydroxyethyl]-3-methyl-butanoate

> <PUBCHEM_IUPAC_CAS_NAME>
(2S)-2,3-dihydroxy-2-[(1S)-1-hydroxyethyl]-3-methylbutanoic acid [(7S,8R)-7-[(Z)-2-methyl-1-oxobut-2-enoxy]-5,6,7,8-tetrahydro-3H-pyrrolizin-1-yl]methyl ester

> <PUBCHEM_IUPAC_NAME>
[(7S,8R)-7-[(Z)-2-methylbut-2-enoyl]oxy-5,6,7,8-tetrahydro-3H-pyrrolizin-1-yl]methyl (2S)-2,3-dihydroxy-2-[(1S)-1-hydroxyethyl]-3-methylbutanoate

> <PUBCHEM_IUPAC_SYSTEMATIC_NAME>
[(7S,8R)-7-[(Z)-2-methylbut-2-enoyl]oxy-5,6,7,8-tetrahydro-3H-pyrrolizin-1-yl]methyl (2S)-3-methyl-2,3-bis(oxidanyl)-2-[(1S)-1-oxidanylethyl]butanoate

> <PUBCHEM_IUPAC_TRADITIONAL_NAME>
(2S)-2,3-dihydroxy-2-[(1S)-1-hydroxyethyl]-3-methyl-butyric acid [(7S,8R)-7-[(Z)-2-methylbut-2-enoyl]oxy-5,6,7,8-tetrahydro-3H-pyrrolizin-1-yl]methyl ester

> <PUBCHEM_IUPAC_INCHI>
InChI=1S/C20H31NO7/c1-6-12(2)17(23)28-15-8-10-21-9-7-14(16(15)21)11-27-18(24)20(26,13(3)22)19(4,5)25/h6-7,13,15-16,22,25-26H,8-11H2,1-5H3/b12-6-/t13-,15-,16+,20+/m0/s1

> <PUBCHEM_IUPAC_INCHIKEY>
HRSGCYGUWHGOPY-UKLMUADPSA-N

> <PUBCHEM_XLOGP3_AA>
-0.1

> <PUBCHEM_EXACT_MASS>
397.210052

> <PUBCHEM_MOLECULAR_FORMULA>
C20H31NO7

> <PUBCHEM_MOLECULAR_WEIGHT>
397.46264

> <PUBCHEM_OPENEYE_CAN_SMILES>
CC=C(C)C(=O)OC1CCN2C1C(=CC2)COC(=O)C(C(C)O)(C(C)(C)O)O

> <PUBCHEM_OPENEYE_ISO_SMILES>
C/C=C(/C)\C(=O)O[C@H]1CCN2[C@@H]1C(=CC2)COC(=O)[C@]([C@H](C)O)(C(C)(C)O)O

> <PUBCHEM_CACTVS_TPSA>
117

> <PUBCHEM_MONOISOTOPIC_WEIGHT>
397.210052

> <PUBCHEM_TOTAL_CHARGE>
0

> <PUBCHEM_HEAVY_ATOM_COUNT>
28

> <PUBCHEM_ATOM_DEF_STEREO_COUNT>
4

> <PUBCHEM_ATOM_UDEF_STEREO_COUNT>
0

> <PUBCHEM_BOND_DEF_STEREO_COUNT>
1

> <PUBCHEM_BOND_UDEF_STEREO_COUNT>
0

> <PUBCHEM_ISOTOPIC_ATOM_COUNT>
0

> <PUBCHEM_COMPONENT_COUNT>
1

> <PUBCHEM_CACTVS_TAUTO_COUNT>
1

> <PUBCHEM_COORDINATE_TYPE>
1
5
255

> <PUBCHEM_BONDANNOTATIONS>
10  1  5
17  3  6
20  5  6
9  29  5

$$$$

