51091005
  -OEChem-06241223012D

 37 39  0     0  0  0  0  0  0999 V2000
    6.6511   -0.2778    0.0000 F   0  0  0  0  0  0  0  0  0  0  0  0
    6.2353    1.6785    0.0000 O   0  0  0  0  0  0  0  0  0  0  0  0
    3.7320    0.7306    0.0000 N   0  0  0  0  0  0  0  0  0  0  0  0
    2.9230    1.3184    0.0000 N   0  0  0  0  0  0  0  0  0  0  0  0
    4.2320    2.2694    0.0000 N   0  0  0  0  0  0  0  0  0  0  0  0
    3.2320    2.2694    0.0000 N   0  0  0  0  0  0  0  0  0  0  0  0
    3.7320   -0.2694    0.0000 C   0  0  0  0  0  0  0  0  0  0  0  0
    2.8660   -0.7694    0.0000 C   0  0  0  0  0  0  0  0  0  0  0  0
    4.5981   -0.7694    0.0000 C   0  0  0  0  0  0  0  0  0  0  0  0
    4.5411    1.3184    0.0000 C   0  0  0  0  0  0  0  0  0  0  0  0
    2.8660   -1.7694    0.0000 C   0  0  0  0  0  0  0  0  0  0  0  0
    4.5981   -1.7694    0.0000 C   0  0  0  0  0  0  0  0  0  0  0  0
    5.4921    1.0094    0.0000 C   0  0  0  0  0  0  0  0  0  0  0  0
    2.0000   -0.2694    0.0000 C   0  0  0  0  0  0  0  0  0  0  0  0
    5.4641   -0.2694    0.0000 C   0  0  0  0  0  0  0  0  0  0  0  0
    3.7320   -2.2694    0.0000 C   0  0  0  0  0  0  0  0  0  0  0  0
    7.1863    1.3695    0.0000 C   0  0  0  0  0  0  0  0  0  0  0  0
    7.3942    0.3913    0.0000 C   0  0  0  0  0  0  0  0  0  0  0  0
    7.9295    2.0386    0.0000 C   0  0  0  0  0  0  0  0  0  0  0  0
    8.3453    0.0823    0.0000 C   0  0  0  0  0  0  0  0  0  0  0  0
    8.8805    1.7296    0.0000 C   0  0  0  0  0  0  0  0  0  0  0  0
    9.0884    0.7514    0.0000 C   0  0  0  0  0  0  0  0  0  0  0  0
    2.3291   -2.0794    0.0000 H   0  0  0  0  0  0  0  0  0  0  0  0
    5.1350   -2.0794    0.0000 H   0  0  0  0  0  0  0  0  0  0  0  0
    5.2011    0.4619    0.0000 H   0  0  0  0  0  0  0  0  0  0  0  0
    5.9807    0.6276    0.0000 H   0  0  0  0  0  0  0  0  0  0  0  0
    2.3100    0.2675    0.0000 H   0  0  0  0  0  0  0  0  0  0  0  0
    1.4631    0.0406    0.0000 H   0  0  0  0  0  0  0  0  0  0  0  0
    1.6900   -0.8064    0.0000 H   0  0  0  0  0  0  0  0  0  0  0  0
    5.7741   -0.8064    0.0000 H   0  0  0  0  0  0  0  0  0  0  0  0
    6.0010    0.0406    0.0000 H   0  0  0  0  0  0  0  0  0  0  0  0
    5.1541    0.2675    0.0000 H   0  0  0  0  0  0  0  0  0  0  0  0
    3.7320   -2.8894    0.0000 H   0  0  0  0  0  0  0  0  0  0  0  0
    7.8006    2.6450    0.0000 H   0  0  0  0  0  0  0  0  0  0  0  0
    8.4742   -0.5242    0.0000 H   0  0  0  0  0  0  0  0  0  0  0  0
    9.3413    2.1444    0.0000 H   0  0  0  0  0  0  0  0  0  0  0  0
    9.6781    0.5598    0.0000 H   0  0  0  0  0  0  0  0  0  0  0  0
  1 18  1  0  0  0  0
  2 13  1  0  0  0  0
  2 17  1  0  0  0  0
  3  4  1  0  0  0  0
  3  7  1  0  0  0  0
  3 10  1  0  0  0  0
  4  6  2  0  0  0  0
  5  6  1  0  0  0  0
  5 10  2  0  0  0  0
  7  8  2  0  0  0  0
  7  9  1  0  0  0  0
  8 11  1  0  0  0  0
  8 14  1  0  0  0  0
  9 12  2  0  0  0  0
  9 15  1  0  0  0  0
 10 13  1  0  0  0  0
 11 16  2  0  0  0  0
 11 23  1  0  0  0  0
 12 16  1  0  0  0  0
 12 24  1  0  0  0  0
 13 25  1  0  0  0  0
 13 26  1  0  0  0  0
 14 27  1  0  0  0  0
 14 28  1  0  0  0  0
 14 29  1  0  0  0  0
 15 30  1  0  0  0  0
 15 31  1  0  0  0  0
 15 32  1  0  0  0  0
 16 33  1  0  0  0  0
 17 18  1  0  0  0  0
 17 19  2  0  0  0  0
 18 20  2  0  0  0  0
 19 21  1  0  0  0  0
 19 34  1  0  0  0  0
 20 22  1  0  0  0  0
 20 35  1  0  0  0  0
 21 22  2  0  0  0  0
 21 36  1  0  0  0  0
 22 37  1  0  0  0  0
M  END
> <PUBCHEM_COMPOUND_CID>
51091005

> <PUBCHEM_COMPOUND_CANONICALIZED>
1

> <PUBCHEM_CACTVS_COMPLEXITY>
349

> <PUBCHEM_CACTVS_HBOND_ACCEPTOR>
5

> <PUBCHEM_CACTVS_HBOND_DONOR>
0

> <PUBCHEM_CACTVS_ROTATABLE_BOND>
4

> <PUBCHEM_CACTVS_SUBSKEYS>
AAADccB7oQAAAAAAAAAAAAAAAAAAAWAAAAAwYAAAAAAAAAAB0AAAHwAIAAAADAyhmwoz1oYIBACiAiZiZASCDCMhIIAdiAAWTIiOJiLEuZuHOCjkwBPY6CeQwEAOAAACAAACAAAAAAQAAAQAAAAAAAAAAA==

> <PUBCHEM_IUPAC_OPENEYE_NAME>
1-(2,6-dimethylphenyl)-5-[(2-fluorophenoxy)methyl]tetrazole

> <PUBCHEM_IUPAC_CAS_NAME>
1-(2,6-dimethylphenyl)-5-[(2-fluorophenoxy)methyl]tetrazole

> <PUBCHEM_IUPAC_NAME>
1-(2,6-dimethylphenyl)-5-[(2-fluorophenoxy)methyl]tetrazole

> <PUBCHEM_IUPAC_SYSTEMATIC_NAME>
1-(2,6-dimethylphenyl)-5-[(2-fluoranylphenoxy)methyl]-1,2,3,4-tetrazole

> <PUBCHEM_IUPAC_TRADITIONAL_NAME>
1-(2,6-dimethylphenyl)-5-[(2-fluorophenoxy)methyl]tetrazole

> <PUBCHEM_IUPAC_INCHI>
InChI=1S/C16H15FN4O/c1-11-6-5-7-12(2)16(11)21-15(18-19-20-21)10-22-14-9-4-3-8-13(14)17/h3-9H,10H2,1-2H3

> <PUBCHEM_IUPAC_INCHIKEY>
AENOBOITCNUDCB-UHFFFAOYSA-N

> <PUBCHEM_XLOGP3_AA>
3.6

> <PUBCHEM_EXACT_MASS>
298.122989

> <PUBCHEM_MOLECULAR_FORMULA>
C16H15FN4O

> <PUBCHEM_MOLECULAR_WEIGHT>
298.314903

> <PUBCHEM_OPENEYE_CAN_SMILES>
CC1=C(C(=CC=C1)C)N2C(=NN=N2)COC3=CC=CC=C3F

> <PUBCHEM_OPENEYE_ISO_SMILES>
CC1=C(C(=CC=C1)C)N2C(=NN=N2)COC3=CC=CC=C3F

> <PUBCHEM_CACTVS_TPSA>
52.8

> <PUBCHEM_MONOISOTOPIC_WEIGHT>
298.122989

> <PUBCHEM_TOTAL_CHARGE>
0

> <PUBCHEM_HEAVY_ATOM_COUNT>
22

> <PUBCHEM_ATOM_DEF_STEREO_COUNT>
0

> <PUBCHEM_ATOM_UDEF_STEREO_COUNT>
0

> <PUBCHEM_BOND_DEF_STEREO_COUNT>
0

> <PUBCHEM_BOND_UDEF_STEREO_COUNT>
0

> <PUBCHEM_ISOTOPIC_ATOM_COUNT>
0

> <PUBCHEM_COMPONENT_COUNT>
1

> <PUBCHEM_CACTVS_TAUTO_COUNT>
1

> <PUBCHEM_COORDINATE_TYPE>
1
5
255

> <PUBCHEM_BONDANNOTATIONS>
11  16  8
12  16  8
17  18  8
17  19  8
18  20  8
19  21  8
20  22  8
21  22  8
3  10  8
3  4  8
4  6  8
5  10  8
5  6  8
7  8  8
7  9  8
8  11  8
9  12  8

$$$$

