23724732
  -OEChem-07051213082D

 36 38  0     1  0  0  0  0  0999 V2000
    6.8066    0.6702    0.0000 O   0  0  0  0  0  0  0  0  0  0  0  0
    4.2686    1.1746    0.0000 O   0  0  0  0  0  0  0  0  0  0  0  0
    5.5504    2.9324    0.0000 O   0  0  0  0  0  0  0  0  0  0  0  0
    8.5312    1.8482    0.0000 O   0  0  0  0  0  0  0  0  0  0  0  0
    3.7320   -3.3924    0.0000 O   0  0  0  0  0  0  0  0  0  0  0  0
    2.0000   -0.3925    0.0000 O   0  0  0  0  0  0  0  0  0  0  0  0
    5.5443   -0.5877    0.0000 N   0  3  0  0  0  0  0  0  0  0  0  0
    5.5443   -2.1972    0.0000 N   0  0  0  0  0  0  0  0  0  0  0  0
    3.7320   -0.3925    0.0000 N   0  0  0  0  0  0  0  0  0  0  0  0
    2.8660   -1.8924    0.0000 N   0  0  0  0  0  0  0  0  0  0  0  0
    5.8550    0.3628    0.0000 C   0  0  1  0  0  0  0  0  0  0  0  0
    5.2686    1.1728    0.0000 C   0  0  1  0  0  0  0  0  0  0  0  0
    5.8578    1.9808    0.0000 C   0  0  1  0  0  0  0  0  0  0  0  0
    6.8083    1.6702    0.0000 C   0  0  1  0  0  0  0  0  0  0  0  0
    4.5981   -0.8925    0.0000 C   0  0  0  0  0  0  0  0  0  0  0  0
    7.6183    2.2566    0.0000 C   0  0  0  0  0  0  0  0  0  0  0  0
    6.1279   -1.3924    0.0000 C   0  0  0  0  0  0  0  0  0  0  0  0
    4.5981   -1.8924    0.0000 C   0  0  0  0  0  0  0  0  0  0  0  0
    3.7320   -2.3925    0.0000 C   0  0  0  0  0  0  0  0  0  0  0  0
    5.8550   -3.1477    0.0000 C   0  0  0  0  0  0  0  0  0  0  0  0
    2.8660   -0.8925    0.0000 C   0  0  0  0  0  0  0  0  0  0  0  0
    6.2926   -0.0764    0.0000 H   0  0  0  0  0  0  0  0  0  0  0  0
    4.9861    0.6209    0.0000 H   0  0  0  0  0  0  0  0  0  0  0  0
    5.2456    2.0789    0.0000 H   0  0  0  0  0  0  0  0  0  0  0  0
    7.3602    1.3877    0.0000 H   0  0  0  0  0  0  0  0  0  0  0  0
    7.9659    2.7700    0.0000 H   0  0  0  0  0  0  0  0  0  0  0  0
    7.1731    2.6880    0.0000 H   0  0  0  0  0  0  0  0  0  0  0  0
    6.7479   -1.3924    0.0000 H   0  0  0  0  0  0  0  0  0  0  0  0
    3.9595    1.7120    0.0000 H   0  0  0  0  0  0  0  0  0  0  0  0
    5.9660    3.3924    0.0000 H   0  0  0  0  0  0  0  0  0  0  0  0
    3.7320    0.2275    0.0000 H   0  0  0  0  0  0  0  0  0  0  0  0
    5.2656   -3.3403    0.0000 H   0  0  0  0  0  0  0  0  0  0  0  0
    6.0476   -3.7370    0.0000 H   0  0  0  0  0  0  0  0  0  0  0  0
    6.4443   -2.9551    0.0000 H   0  0  0  0  0  0  0  0  0  0  0  0
    9.0334    2.2118    0.0000 H   0  0  0  0  0  0  0  0  0  0  0  0
    2.3291   -2.2024    0.0000 H   0  0  0  0  0  0  0  0  0  0  0  0
  1 11  1  0  0  0  0
  1 14  1  0  0  0  0
 12  2  1  6  0  0  0
  2 29  1  0  0  0  0
 13  3  1  6  0  0  0
  3 30  1  0  0  0  0
  4 16  1  0  0  0  0
  4 35  1  0  0  0  0
  5 19  2  0  0  0  0
  6 21  2  0  0  0  0
 11  7  1  1  0  0  0
  7 15  1  0  0  0  0
  7 17  2  0  0  0  0
  8 17  1  0  0  0  0
  8 18  1  0  0  0  0
  8 20  1  0  0  0  0
  9 15  1  0  0  0  0
  9 21  1  0  0  0  0
  9 31  1  0  0  0  0
 10 19  1  0  0  0  0
 10 21  1  0  0  0  0
 10 36  1  0  0  0  0
 11 12  1  0  0  0  0
 11 22  1  0  0  0  0
 12 13  1  0  0  0  0
 12 23  1  0  0  0  0
 13 14  1  0  0  0  0
 13 24  1  0  0  0  0
 14 16  1  1  0  0  0
 14 25  1  0  0  0  0
 15 18  2  0  0  0  0
 16 26  1  0  0  0  0
 16 27  1  0  0  0  0
 17 28  1  0  0  0  0
 18 19  1  0  0  0  0
 20 32  1  0  0  0  0
 20 33  1  0  0  0  0
 20 34  1  0  0  0  0
M  CHG  1   7   1
M  END
> <PUBCHEM_COMPOUND_CID>
23724732

> <PUBCHEM_COMPOUND_CANONICALIZED>
1

> <PUBCHEM_CACTVS_COMPLEXITY>
462

> <PUBCHEM_CACTVS_HBOND_ACCEPTOR>
6

> <PUBCHEM_CACTVS_HBOND_DONOR>
5

> <PUBCHEM_CACTVS_ROTATABLE_BOND>
2

> <PUBCHEM_CACTVS_SUBSKEYS>
AAADccBzuAAAAAAAAAAAAAAAAAAAAWJAAAAsAAAAAAAAAFgBgAAAHgAQCAAACBzhlgYHsBfMFgCoAQdxdACAgC0XEKABUAGoVECDWApAyCAeQIgPBSLTAGDwMAIAAAAAAAAAAAAAAAAAAAAAAAAAAAAAAA==

> <PUBCHEM_IUPAC_OPENEYE_NAME>
9-[(2R,3R,4S,5R)-3,4-dihydroxy-5-(hydroxymethyl)tetrahydrofuran-2-yl]-7-methyl-3H-purin-9-ium-2,6-dione

> <PUBCHEM_IUPAC_CAS_NAME>
9-[(2R,3R,4S,5R)-3,4-dihydroxy-5-(hydroxymethyl)-2-oxolanyl]-7-methyl-3H-purin-9-ium-2,6-dione

> <PUBCHEM_IUPAC_NAME>
9-[(2R,3R,4S,5R)-3,4-dihydroxy-5-(hydroxymethyl)oxolan-2-yl]-7-methyl-3H-purin-9-ium-2,6-dione

> <PUBCHEM_IUPAC_SYSTEMATIC_NAME>
9-[(2R,3R,4S,5R)-5-(hydroxymethyl)-3,4-bis(oxidanyl)oxolan-2-yl]-7-methyl-3H-purin-9-ium-2,6-dione

> <PUBCHEM_IUPAC_TRADITIONAL_NAME>
9-[(2R,3R,4S,5R)-3,4-dihydroxy-5-methylol-tetrahydrofuran-2-yl]-7-methyl-3H-purin-9-ium-2,6-quinone

> <PUBCHEM_IUPAC_INCHI>
InChI=1S/C11H14N4O6/c1-14-3-15(8-5(14)9(19)13-11(20)12-8)10-7(18)6(17)4(2-16)21-10/h3-4,6-7,10,16-18H,2H2,1H3,(H-,12,13,19,20)/p+1/t4-,6-,7-,10-/m1/s1

> <PUBCHEM_IUPAC_INCHIKEY>
SYPRQIWERSQQNL-KQYNXXCUSA-O

> <PUBCHEM_XLOGP3_AA>
-2.3

> <PUBCHEM_EXACT_MASS>
299.099159

> <PUBCHEM_MOLECULAR_FORMULA>
C11H15N4O6+

> <PUBCHEM_MOLECULAR_WEIGHT>
299.26

> <PUBCHEM_OPENEYE_CAN_SMILES>
CN1C=[N+](C2=C1C(=O)NC(=O)N2)C3C(C(C(O3)CO)O)O

> <PUBCHEM_OPENEYE_ISO_SMILES>
CN1C=[N+](C2=C1C(=O)NC(=O)N2)[C@H]3[C@@H]([C@@H]([C@H](O3)CO)O)O

> <PUBCHEM_CACTVS_TPSA>
137

> <PUBCHEM_MONOISOTOPIC_WEIGHT>
299.099159

> <PUBCHEM_TOTAL_CHARGE>
1

> <PUBCHEM_HEAVY_ATOM_COUNT>
21

> <PUBCHEM_ATOM_DEF_STEREO_COUNT>
4

> <PUBCHEM_ATOM_UDEF_STEREO_COUNT>
0

> <PUBCHEM_BOND_DEF_STEREO_COUNT>
0

> <PUBCHEM_BOND_UDEF_STEREO_COUNT>
0

> <PUBCHEM_ISOTOPIC_ATOM_COUNT>
0

> <PUBCHEM_COMPONENT_COUNT>
1

> <PUBCHEM_CACTVS_TAUTO_COUNT>
9

> <PUBCHEM_COORDINATE_TYPE>
1
5
255

> <PUBCHEM_BONDANNOTATIONS>
10  19  8
10  21  8
14  16  5
15  18  8
18  19  8
12  2  6
13  3  6
11  7  5
7  15  8
7  17  8
8  17  8
8  18  8
9  15  8
9  21  8

$$$$

