   Color/Form
        Colorless liquid.
   from [1]HSDB

   Odor

     * Similar to ethanol
     * Odor perception threshold: <0.07-100 mg/cu-m; odor recognition
       threshold: 0.32-150 mg/cu m

   from [2]HSDB

   Taste

     * CHARACTERISTIC RIPE, FRUITY FLAVOR
     * Taste detection: 7.50X10+3 ppm, purity of sample not specified
     * Burning taste

   from [3]HSDB

   Boiling Point
        97.2 deg C
   from [4]HSDB

   Melting Point
        -127 deg C
   from [5]HSDB

   Corrosivity
        Propyl alcohol will attack some forms of plastics, rubber, and
   coatings.
   from [6]HSDB

   Critical Temperature and Pressure
        Critical temp: 263.7 deg C; critical pressure: 51 atm
   from [7]HSDB

   Density/Specific Gravity
        0.8053 @ 20 deg C/4 deg C
   from [8]HSDB

   Dissociation Constants
        pKa = 16.10
   from [9]HSDB

   Heat of Combustion
        2021.3 kJ/mol @ 25 deg C
   from [10]HSDB

   Heat of Vaporization
        47.45 kJ/mol @ 25 deg C
   from [11]HSDB

   Octanol/Water Partition Coefficient
        log Kow= 0.25
   from [12]HSDB

   Solubilities

     * MISCIBLE WITH PROPYLENE GLYCOL
     * > 10% acetone
     * > 10% benzene
     * > 10% ether
     * > 10% ethanol
     * In water: 1.00X10+6 @ 25 deg C

   from [13]HSDB

   Spectral Properties

     * Index of refraction: 1.3862 @ 20 deg C/D
     * Max absorption (liquid): 210 nm
     * IR: SADG 10961 (Sadtler Research Laboratories IR Grating
       Collection)
     * 1H NMR: VAR 43 (Varian Associates NMR Spectra Catalogue)
     * MS: NIST 18989 (NIST/EPA/MSDC Mass Spectral Database 1990 version);
       WILEY 39 (Atlas of Mass Spectral Data, John Wiley & Sons, New York)
     * Max absorption (liquid): 210 nm

   from [14]HSDB

   Surface Tension
        23.75 mN/m (= dyn/cm) @ 20 deg C
   from [15]HSDB

   Vapor Density
        2.1 (Air = 1)
   from [16]HSDB

   Vapor Pressure
        21.0 mm Hg @ 25 deg C
   from [17]HSDB

   Relative Evaporation Rate
        1.0 (butyl acetate = 1)
   from [18]HSDB

   Viscosity
        2.256 cP @ 20 deg C
   from [19]HSDB

   Other Chemical/Physical Properties

     * % IN "SATURATED" AIR: 2.7 (25 DEG C); DENSITY OF "SATURATED" AIR:
       1.028 (AIR= 1) @ 25 DEG C; 1 MG/L= 408 PPM & 1 PPM= 2.45 MG/CU M @
       25 DEG C, 760 MM HG
     * Heat of fusion: 20.66 cal/g; Heat of solution: (est) -9 BTU/lb= -5
       cal/g= -0.2X10+5 J/kg; Reid Vapor Pressure: 0.87 psia
     * Liquid heat capacity= 0.566 BTU/lb-F @ 70 deg F; Ideal gas heat
       capacity= 0.345 BTU/lb-F @ 75 deg C
     * Coefficient of cubical expansion: 9.56X10-7 at 0-94 deg C; critical
       density: 0.2734; electrical conductivity: 2X10-3 mho/cm at 25 deg
       C; specific heat: 0.586 cal/g/deg C at 25 deg C; wt/gal: 6.7 lb at
       20 deg C
     * Forms binary azeotropes with acetal, benzene,
       biacetyl,1-bromobutane, 2-bromobutane, n-butyl chloride, butyl
       formate, carbon tetrachloride, chlorobenzene, 1-chlorobutane,
       2-chlorobutane, 1-chloro-3-methylbutane, 1-chloro-2-methylpropane,
       diethoxymethane, dioxane, di-n-propyl ether, ethyl propionate,
       ethyl sulfide, ethylene chloride, fluorobenzene, n-hexane,
       1-iodobutane, 2-iodobutane, 1-iodo-2-methylpropane, isobutyl
       formate, isobutyronitrile, methyl acrylate, 3-methyl-2-butanol,
       methyl butyrate, methyl isobutyrate, 2-pentanone, 3-pentanone,
       alpha-pinene, propyl acetate, n-propyl bromide, propyl formate,
       toluene, water
     * Forms ternary azeotropes with water, acetaldehyde dipropylacetal;
       water, benzene; water, carbon tetrachloride; water,
       1,3-cyclohexadiene; water, cyclohexane; water, cyclohexene; water,
       dipropoxymethane; water, ethoxypropoxymethane; water,
       3-iodopropene; water, nitromethane; water, 3-pentanone; water,
       propyl acetate; water, propyl chloroacetate; water, propyl ether;
       water, propyl formate; water, trichloroethylene
     * Saturated concn in air 46 g/cu m at 20 deg C, 85 g/cu m at 30 deg C
     * Dielectric constant: 22.2 at 20 deg C; 20.33 at 25 deg C; dipole
       moment: 1.67 (gas), 1.75 in benzene at 25 deg C
     * Enthalpies of formation: -72.66 kcal/mole (liquid); -61.28
       kcal/mole (gas); Gibbs (free) energies of formation: -40.78
       kcal/mole (liquid); -38.67 kcal/mole (gas); Entropies: 46.5
       cal/deg-mole (liquid); 77.61cal/deg-mole (gas); Heat capacities:
       33.71 cal/deg-mole (liquid); 20.82 cal/deg-mole (gas)
     * Heat of melting: 1.242 kcal/mole; heat of sublimation: 11.36
       kcal/mole at 298 K; specific heat: 25.86 cal/K.mol at 400 K
     * Heat capacity, liquid @ 25 deg C = 141 J/mol-K; flash point, Tag
       open cup = 28.9 deg C; autoignition temp = 371.1 deg C; explosive
       limit, in air = 2.2 vol% (lower), 14.0 vol% (upper); electrical
       conductivity @ 25 deg C = 2X10-8 mho; critical density = 0.275
       g/cu-cm
     * Conversion factors: 1 ppm n-propanol = 2.46 mg/cu-m air; 1 mg
       n-propanol/cu-m air = 0.41 ppm @ 25 deg C and 1 atm.
     * Henry's Law constant = 7.41X10-6 atm-cu m/mol @ 25 deg C
     * Hydroxyl radical reaction rate constant = 5.53X10-12 cu-cm/molecule
       sec @ 25 deg C

   from [20]HSDB

   Computed Properties
   Molecular Weight                  60.09502 [g/mol]
   Molecular Formula                 C[3]H[8]O
   XLogP3                            0.3
   H-Bond Donor                      1
   H-Bond Acceptor                   1
   Rotatable Bond Count              1
   Exact Mass                        60.057515
   MonoIsotopic Mass                 60.057515
   Topological Polar Surface Area    20.2
   Heavy Atom Count                  4
   Formal Charge                     0
   Complexity                        7.2
   Isotope Atom Count                0
   Defined Atom Stereocenter Count   0
   Undefined Atom Stereocenter Count 0
   Defined Bond Stereocenter Count   0
   Undefined Bond Stereocenter Count 0
   Covalently-Bonded Unit Count      1
   Feature 3D Acceptor Count         1
   Feature 3D Donor Count            1
   Feature 3D Hydrophobe Count       1
   Effective Rotor Count             1
   Conformer Sampling RMSD           0.4
   CID Conformer Count               [21]3

References

   1. http://toxnet.nlm.nih.gov/cgi-bin/sis/search/r?dbs+hsdb:@term+@rn+@rel+71-23-8
   2. http://toxnet.nlm.nih.gov/cgi-bin/sis/search/r?dbs+hsdb:@term+@rn+@rel+71-23-8
   3. http://toxnet.nlm.nih.gov/cgi-bin/sis/search/r?dbs+hsdb:@term+@rn+@rel+71-23-8
   4. http://toxnet.nlm.nih.gov/cgi-bin/sis/search/r?dbs+hsdb:@term+@rn+@rel+71-23-8
   5. http://toxnet.nlm.nih.gov/cgi-bin/sis/search/r?dbs+hsdb:@term+@rn+@rel+71-23-8
   6. http://toxnet.nlm.nih.gov/cgi-bin/sis/search/r?dbs+hsdb:@term+@rn+@rel+71-23-8
   7. http://toxnet.nlm.nih.gov/cgi-bin/sis/search/r?dbs+hsdb:@term+@rn+@rel+71-23-8
   8. http://toxnet.nlm.nih.gov/cgi-bin/sis/search/r?dbs+hsdb:@term+@rn+@rel+71-23-8
   9. http://toxnet.nlm.nih.gov/cgi-bin/sis/search/r?dbs+hsdb:@term+@rn+@rel+71-23-8
  10. http://toxnet.nlm.nih.gov/cgi-bin/sis/search/r?dbs+hsdb:@term+@rn+@rel+71-23-8
  11. http://toxnet.nlm.nih.gov/cgi-bin/sis/search/r?dbs+hsdb:@term+@rn+@rel+71-23-8
  12. http://toxnet.nlm.nih.gov/cgi-bin/sis/search/r?dbs+hsdb:@term+@rn+@rel+71-23-8
  13. http://toxnet.nlm.nih.gov/cgi-bin/sis/search/r?dbs+hsdb:@term+@rn+@rel+71-23-8
  14. http://toxnet.nlm.nih.gov/cgi-bin/sis/search/r?dbs+hsdb:@term+@rn+@rel+71-23-8
  15. http://toxnet.nlm.nih.gov/cgi-bin/sis/search/r?dbs+hsdb:@term+@rn+@rel+71-23-8
  16. http://toxnet.nlm.nih.gov/cgi-bin/sis/search/r?dbs+hsdb:@term+@rn+@rel+71-23-8
  17. http://toxnet.nlm.nih.gov/cgi-bin/sis/search/r?dbs+hsdb:@term+@rn+@rel+71-23-8
  18. http://toxnet.nlm.nih.gov/cgi-bin/sis/search/r?dbs+hsdb:@term+@rn+@rel+71-23-8
  19. http://toxnet.nlm.nih.gov/cgi-bin/sis/search/r?dbs+hsdb:@term+@rn+@rel+71-23-8
  20. http://toxnet.nlm.nih.gov/cgi-bin/sis/search/r?dbs+hsdb:@term+@rn+@rel+71-23-8
  21. http://pubchem.ncbi.nlm.nih.gov/vw3d/vw3d.cgi?cid=1031
