15775275
  -OEChem-07051213082D

 78 82  0     1  0  0  0  0  0999 V2000
    6.6129   -0.1191    0.0000 Mg  0  2  0  0  0  0  0  0  0  0  0  0
    8.0110   -4.4966    0.0000 O   0  0  0  0  0  0  0  0  0  0  0  0
   10.3151   -3.6030    0.0000 O   0  0  0  0  0  0  0  0  0  0  0  0
   10.5207   -1.8832    0.0000 O   0  0  0  0  0  0  0  0  0  0  0  0
   13.0207   -0.9662    0.0000 O   0  0  0  0  0  0  0  0  0  0  0  0
   11.9780   -2.3492    0.0000 O   0  0  0  0  0  0  0  0  0  0  0  0
    2.0000    0.6096    0.0000 O   0  0  0  0  0  0  0  0  0  0  0  0
    8.0994   -0.0924    0.0000 N   0  0  0  0  0  0  0  0  0  0  0  0
    6.6504   -1.4139    0.0000 N   0  5  0  0  0  0  0  0  0  0  0  0
    6.6181    1.2290    0.0000 N   0  5  0  0  0  0  0  0  0  0  0  0
    5.1995   -0.0924    0.0000 N   0  0  0  0  0  0  0  0  0  0  0  0
    9.5825   -0.5432    0.0000 C   0  0  1  0  0  0  0  0  0  0  0  0
    9.5825    0.4228    0.0000 C   0  0  1  0  0  0  0  0  0  0  0  0
    8.6794   -0.8017    0.0000 C   0  0  0  0  0  0  0  0  0  0  0  0
    8.3903   -1.7355    0.0000 C   0  0  0  0  0  0  0  0  0  0  0  0
    7.4242   -1.9940    0.0000 C   0  0  0  0  0  0  0  0  0  0  0  0
    8.9285   -2.5650    0.0000 C   0  0  2  0  0  0  0  0  0  0  0  0
   10.3810   -1.1452    0.0000 C   0  0  0  0  0  0  0  0  0  0  0  0
    8.6471    0.6814    0.0000 C   0  0  0  0  0  0  0  0  0  0  0  0
    7.1334   -2.9278    0.0000 C   0  0  0  0  0  0  0  0  0  0  0  0
    7.9404   -3.4991    0.0000 C   0  0  0  0  0  0  0  0  0  0  0  0
   10.3783    1.0284    0.0000 C   0  0  0  0  0  0  0  0  0  0  0  0
    6.1672   -2.9278    0.0000 C   0  0  0  0  0  0  0  0  0  0  0  0
    5.8764   -2.0263    0.0000 C   0  0  0  0  0  0  0  0  0  0  0  0
    8.3579    1.5829    0.0000 C   0  0  0  0  0  0  0  0  0  0  0  0
   11.3016   -0.7547    0.0000 C   0  0  0  0  0  0  0  0  0  0  0  0
    7.4242    1.8737    0.0000 C   0  0  0  0  0  0  0  0  0  0  0  0
    9.9214   -2.6837    0.0000 C   0  0  0  0  0  0  0  0  0  0  0  0
    7.1011    2.7752    0.0000 C   0  0  0  0  0  0  0  0  0  0  0  0
    5.5786   -3.7362    0.0000 C   0  0  0  0  0  0  0  0  0  0  0  0
    5.8442    1.8414    0.0000 C   0  0  0  0  0  0  0  0  0  0  0  0
    4.9426   -1.7355    0.0000 C   0  0  0  0  0  0  0  0  0  0  0  0
    6.1350    2.7752    0.0000 C   0  0  0  0  0  0  0  0  0  0  0  0
   12.1001   -1.3567    0.0000 C   0  0  0  0  0  0  0  0  0  0  0  0
    4.6519   -0.8340    0.0000 C   0  0  0  0  0  0  0  0  0  0  0  0
    4.9104    1.5829    0.0000 C   0  0  0  0  0  0  0  0  0  0  0  0
    3.7182   -0.5754    0.0000 C   0  0  0  0  0  0  0  0  0  0  0  0
    4.6519    0.6490    0.0000 C   0  0  0  0  0  0  0  0  0  0  0  0
    7.6767    3.5929    0.0000 C   0  0  0  0  0  0  0  0  0  0  0  0
    3.7182    0.3906    0.0000 C   0  0  0  0  0  0  0  0  0  0  0  0
    5.5423    3.5806    0.0000 C   0  0  0  0  0  0  0  0  0  0  0  0
    2.9223   -1.1809    0.0000 C   0  0  0  0  0  0  0  0  0  0  0  0
   11.3080   -3.7217    0.0000 C   0  0  0  0  0  0  0  0  0  0  0  0
    2.9223    0.9961    0.0000 C   0  0  0  0  0  0  0  0  0  0  0  0
    3.0487   -2.1729    0.0000 C   0  0  0  0  0  0  0  0  0  0  0  0
    5.9434    4.4966    0.0000 C   0  0  0  0  0  0  0  0  0  0  0  0
    9.4693   -1.1528    0.0000 H   0  0  0  0  0  0  0  0  0  0  0  0
    9.4651    1.0316    0.0000 H   0  0  0  0  0  0  0  0  0  0  0  0
    9.2563   -2.0388    0.0000 H   0  0  0  0  0  0  0  0  0  0  0  0
    9.9274   -1.5679    0.0000 H   0  0  0  0  0  0  0  0  0  0  0  0
   10.7185   -1.6653    0.0000 H   0  0  0  0  0  0  0  0  0  0  0  0
   10.7537    0.5350    0.0000 H   0  0  0  0  0  0  0  0  0  0  0  0
   10.8716    1.4039    0.0000 H   0  0  0  0  0  0  0  0  0  0  0  0
   10.0028    1.5218    0.0000 H   0  0  0  0  0  0  0  0  0  0  0  0
    8.7944    2.0232    0.0000 H   0  0  0  0  0  0  0  0  0  0  0  0
   11.7551   -0.3320    0.0000 H   0  0  0  0  0  0  0  0  0  0  0  0
   10.9640   -0.2346    0.0000 H   0  0  0  0  0  0  0  0  0  0  0  0
    5.0774   -3.3713    0.0000 H   0  0  0  0  0  0  0  0  0  0  0  0
    5.2136   -4.2374    0.0000 H   0  0  0  0  0  0  0  0  0  0  0  0
    6.0798   -4.1011    0.0000 H   0  0  0  0  0  0  0  0  0  0  0  0
    4.5064   -2.1761    0.0000 H   0  0  0  0  0  0  0  0  0  0  0  0
    4.4720    2.0213    0.0000 H   0  0  0  0  0  0  0  0  0  0  0  0
    8.1837    3.2360    0.0000 H   0  0  0  0  0  0  0  0  0  0  0  0
    8.0336    4.0999    0.0000 H   0  0  0  0  0  0  0  0  0  0  0  0
    7.1697    3.9498    0.0000 H   0  0  0  0  0  0  0  0  0  0  0  0
    4.9261    3.5120    0.0000 H   0  0  0  0  0  0  0  0  0  0  0  0
    2.6383   -0.6298    0.0000 H   0  0  0  0  0  0  0  0  0  0  0  0
    2.3302   -1.3649    0.0000 H   0  0  0  0  0  0  0  0  0  0  0  0
   11.2344   -4.3373    0.0000 H   0  0  0  0  0  0  0  0  0  0  0  0
   11.9237   -3.7953    0.0000 H   0  0  0  0  0  0  0  0  0  0  0  0
   11.3816   -3.1061    0.0000 H   0  0  0  0  0  0  0  0  0  0  0  0
   13.5157   -1.3394    0.0000 H   0  0  0  0  0  0  0  0  0  0  0  0
    3.0007    1.6111    0.0000 H   0  0  0  0  0  0  0  0  0  0  0  0
    2.4337   -2.2513    0.0000 H   0  0  0  0  0  0  0  0  0  0  0  0
    3.1271   -2.7879    0.0000 H   0  0  0  0  0  0  0  0  0  0  0  0
    3.6637   -2.0945    0.0000 H   0  0  0  0  0  0  0  0  0  0  0  0
    6.5596    4.5652    0.0000 H   0  0  0  0  0  0  0  0  0  0  0  0
    5.5759    4.9960    0.0000 H   0  0  0  0  0  0  0  0  0  0  0  0
  2 21  2  0  0  0  0
  3 28  1  0  0  0  0
  3 43  1  0  0  0  0
  4 28  2  0  0  0  0
  5 34  1  0  0  0  0
  5 72  1  0  0  0  0
  6 34  2  0  0  0  0
  7 44  2  0  0  0  0
  8 14  1  0  0  0  0
  8 19  2  0  0  0  0
  9 16  1  0  0  0  0
  9 24  1  0  0  0  0
 10 27  1  0  0  0  0
 10 31  1  0  0  0  0
 11 35  1  0  0  0  0
 11 38  2  0  0  0  0
 12 13  1  0  0  0  0
 12 14  1  0  0  0  0
 12 18  1  6  0  0  0
 12 47  1  0  0  0  0
 13 19  1  0  0  0  0
 13 22  1  1  0  0  0
 13 48  1  0  0  0  0
 14 15  2  0  0  0  0
 15 16  1  0  0  0  0
 15 17  1  0  0  0  0
 16 20  2  0  0  0  0
 17 21  1  0  0  0  0
 17 28  1  1  0  0  0
 17 49  1  0  0  0  0
 18 26  1  0  0  0  0
 18 50  1  0  0  0  0
 18 51  1  0  0  0  0
 19 25  1  0  0  0  0
 20 21  1  0  0  0  0
 20 23  1  0  0  0  0
 22 52  1  0  0  0  0
 22 53  1  0  0  0  0
 22 54  1  0  0  0  0
 23 24  2  0  0  0  0
 23 30  1  0  0  0  0
 24 32  1  0  0  0  0
 25 27  2  0  0  0  0
 25 55  1  0  0  0  0
 26 34  1  0  0  0  0
 26 56  1  0  0  0  0
 26 57  1  0  0  0  0
 27 29  1  0  0  0  0
 29 33  2  0  0  0  0
 29 39  1  0  0  0  0
 30 58  1  0  0  0  0
 30 59  1  0  0  0  0
 30 60  1  0  0  0  0
 31 33  1  0  0  0  0
 31 36  2  0  0  0  0
 32 35  2  0  0  0  0
 32 61  1  0  0  0  0
 33 41  1  0  0  0  0
 35 37  1  0  0  0  0
 36 38  1  0  0  0  0
 36 62  1  0  0  0  0
 37 40  2  0  0  0  0
 37 42  1  0  0  0  0
 38 40  1  0  0  0  0
 39 63  1  0  0  0  0
 39 64  1  0  0  0  0
 39 65  1  0  0  0  0
 40 44  1  0  0  0  0
 41 46  2  0  0  0  0
 41 66  1  0  0  0  0
 42 45  1  0  0  0  0
 42 67  1  0  0  0  0
 42 68  1  0  0  0  0
 43 69  1  0  0  0  0
 43 70  1  0  0  0  0
 43 71  1  0  0  0  0
 44 73  1  0  0  0  0
 45 74  1  0  0  0  0
 45 75  1  0  0  0  0
 45 76  1  0  0  0  0
 46 77  1  0  0  0  0
 46 78  1  0  0  0  0
M  CHG  3   1   2   9  -1  10  -1
M  END
> <PUBCHEM_COMPOUND_CID>
15775275

> <PUBCHEM_COMPOUND_CANONICALIZED>
1

> <PUBCHEM_CACTVS_COMPLEXITY>
1710

> <PUBCHEM_CACTVS_HBOND_ACCEPTOR>
10

> <PUBCHEM_CACTVS_HBOND_DONOR>
1

> <PUBCHEM_CACTVS_ROTATABLE_BOND>
8

> <PUBCHEM_CACTVS_SUBSKEYS>
AAADcfB/uAAAACAAAAAAAAAAAAAAAeIECBAAAAAAAAAWAACBgAAAHgAACAAADQyhngICiJIIFgCoA6zyzACCgCAlAiAImCEwRNgIIH7IlJGEQYhk4ADIyUe82fOegAAAAAAAAAAAAAAAAAAAASAAAQAAAA==

> <PUBCHEM_IUPAC_INCHI>
InChI=1S/C35H34N4O6.Mg/c1-7-18-15(3)22-11-23-16(4)20(9-10-28(41)42)32(38-23)30-31(35(44)45-6)34(43)29-17(5)24(39-33(29)30)12-26-19(8-2)21(14-40)27(37-26)13-25(18)36-22;/h7,11-14,16,20,31H,1,8-10H2,2-6H3,(H3,36,37,38,39,40,41,42,43);/q;+2/p-2/t16-,20-,31+;/m0./s1

> <PUBCHEM_IUPAC_INCHIKEY>
QPDWBRHRBKXUNS-IEEIVXFASA-L

> <PUBCHEM_EXACT_MASS>
628.217226

> <PUBCHEM_MOLECULAR_FORMULA>
C35H32MgN4O6

> <PUBCHEM_MOLECULAR_WEIGHT>
628.95678

> <PUBCHEM_OPENEYE_CAN_SMILES>
CCC1=C(C2=NC1=CC3=C(C4=C([N-]3)C(=C5C(C(C(=N5)C=C6C(=C(C(=C2)[N-]6)C=C)C)C)CCC(=O)O)C(C4=O)C(=O)OC)C)C=O.[Mg+2]

> <PUBCHEM_OPENEYE_ISO_SMILES>
CCC1=C(C2=NC1=CC3=C(C4=C([N-]3)C(=C5[C@H]([C@@H](C(=N5)C=C6C(=C(C(=C2)[N-]6)C=C)C)C)CCC(=O)O)[C@H](C4=O)C(=O)OC)C)C=O.[Mg+2]

> <PUBCHEM_CACTVS_TPSA>
125

> <PUBCHEM_MONOISOTOPIC_WEIGHT>
628.217226

> <PUBCHEM_TOTAL_CHARGE>
0

> <PUBCHEM_HEAVY_ATOM_COUNT>
46

> <PUBCHEM_ATOM_DEF_STEREO_COUNT>
3

> <PUBCHEM_ATOM_UDEF_STEREO_COUNT>
0

> <PUBCHEM_BOND_DEF_STEREO_COUNT>
0

> <PUBCHEM_BOND_UDEF_STEREO_COUNT>
0

> <PUBCHEM_ISOTOPIC_ATOM_COUNT>
0

> <PUBCHEM_COMPONENT_COUNT>
2

> <PUBCHEM_CACTVS_TAUTO_COUNT>
711

> <PUBCHEM_NONSTANDARDBOND>
1  10  7
1  9  7

> <PUBCHEM_COORDINATE_TYPE>
1
5
255

> <PUBCHEM_BONDANNOTATIONS>
10  27  8
10  31  8
11  35  8
11  38  8
12  18  6
13  22  5
14  15  8
15  16  8
16  20  8
17  28  5
19  25  8
20  23  8
23  24  8
24  32  8
25  27  8
27  29  8
29  33  8
31  33  8
31  36  8
32  35  8
36  38  8
8  14  8
8  19  8
9  16  8
9  24  8

$$$$

