4504
  -OEChem-06261200112D

 85 85  0     1  0  0  0  0  0999 V2000
    2.0000    1.1836    0.0000 Na  0  3  0  0  0  0  0  0  0  0  0  0
    2.8660    5.6836    0.0000 Na  0  3  0  0  0  0  0  0  0  0  0  0
    4.1015   -3.9055    0.0000 Na  0  3  0  0  0  0  0  0  0  0  0  0
    8.1809   -5.9936    0.0000 Na  0  3  0  0  0  0  0  0  0  0  0  0
    6.3301    1.6836    0.0000 O   0  0  0  0  0  0  0  0  0  0  0  0
    7.1615   -0.8012    0.0000 O   0  0  0  0  0  0  0  0  0  0  0  0
    8.0622    5.6836    0.0000 O   0  0  0  0  0  0  0  0  0  0  0  0
   11.6065    4.4883    0.0000 O   0  0  0  0  0  0  0  0  0  0  0  0
   11.6065    2.8789    0.0000 O   0  0  0  0  0  0  0  0  0  0  0  0
    2.8660    4.6836    0.0000 O   0  5  0  0  0  0  0  0  0  0  0  0
    2.8660    1.6836    0.0000 O   0  5  0  0  0  0  0  0  0  0  0  0
    5.0287   -3.5309    0.0000 O   0  5  0  0  0  0  0  0  0  0  0  0
    7.3928   -5.3779    0.0000 O   0  5  0  0  0  0  0  0  0  0  0  0
    3.7320    0.1836    0.0000 O   0  0  0  0  0  0  0  0  0  0  0  0
    4.5981    4.6836    0.0000 O   0  0  0  0  0  0  0  0  0  0  0  0
    4.3800   -1.9250    0.0000 O   0  0  0  0  0  0  0  0  0  0  0  0
    8.4592   -4.0130    0.0000 O   0  0  0  0  0  0  0  0  0  0  0  0
    4.5981    2.6836    0.0000 N   0  0  0  0  0  0  0  0  0  0  0  0
    6.8832   -2.7817    0.0000 N   0  0  0  0  0  0  0  0  0  0  0  0
    7.1962    1.1836    0.0000 C   0  0  3  0  0  0  0  0  0  0  0  0
    7.3007    0.1891    0.0000 C   0  0  3  0  0  0  0  0  0  0  0  0
    8.1097    1.5903    0.0000 C   0  0  0  0  0  0  0  0  0  0  0  0
    8.2788   -0.0188    0.0000 C   0  0  0  0  0  0  0  0  0  0  0  0
    8.7788    0.8472    0.0000 C   0  0  0  0  0  0  0  0  0  0  0  0
    6.3301    2.6836    0.0000 C   0  0  0  0  0  0  0  0  0  0  0  0
    7.9496   -1.4168    0.0000 C   0  0  0  0  0  0  0  0  0  0  0  0
    5.4641    3.1836    0.0000 C   0  0  0  0  0  0  0  0  0  0  0  0
    7.8104   -2.4071    0.0000 C   0  0  0  0  0  0  0  0  0  0  0  0
    7.1962    3.1836    0.0000 C   0  0  0  0  0  0  0  0  0  0  0  0
    8.8767   -1.0422    0.0000 C   0  0  0  0  0  0  0  0  0  0  0  0
    7.1962    4.1836    0.0000 C   0  0  0  0  0  0  0  0  0  0  0  0
    5.4641    4.1836    0.0000 C   0  0  0  0  0  0  0  0  0  0  0  0
    9.6647   -1.6579    0.0000 C   0  0  0  0  0  0  0  0  0  0  0  0
    6.3301    4.6836    0.0000 C   0  0  0  0  0  0  0  0  0  0  0  0
    8.5984   -3.0228    0.0000 C   0  0  0  0  0  0  0  0  0  0  0  0
    8.0622    4.6836    0.0000 C   0  0  3  0  0  0  0  0  0  0  0  0
    9.5256   -2.6481    0.0000 C   0  0  0  0  0  0  0  0  0  0  0  0
    3.7320    3.1836    0.0000 C   0  0  0  0  0  0  0  0  0  0  0  0
    4.5981    1.6836    0.0000 C   0  0  0  0  0  0  0  0  0  0  0  0
    6.7440   -3.7720    0.0000 C   0  0  0  0  0  0  0  0  0  0  0  0
    6.0951   -2.1660    0.0000 C   0  0  0  0  0  0  0  0  0  0  0  0
    8.9282    4.1836    0.0000 C   0  0  0  0  0  0  0  0  0  0  0  0
   10.5919   -1.2833    0.0000 C   0  0  0  0  0  0  0  0  0  0  0  0
    9.7942    4.6836    0.0000 C   0  0  0  0  0  0  0  0  0  0  0  0
    8.9282    3.1836    0.0000 C   0  0  0  0  0  0  0  0  0  0  0  0
    3.7320    4.1836    0.0000 C   0  0  0  0  0  0  0  0  0  0  0  0
    3.7320    1.1836    0.0000 C   0  0  0  0  0  0  0  0  0  0  0  0
    7.5320   -4.3877    0.0000 C   0  0  0  0  0  0  0  0  0  0  0  0
    5.1679   -2.5406    0.0000 C   0  0  0  0  0  0  0  0  0  0  0  0
   10.6603    4.1836    0.0000 C   0  0  0  0  0  0  0  0  0  0  0  0
    9.7942    2.6836    0.0000 C   0  0  0  0  0  0  0  0  0  0  0  0
   10.6603    3.1836    0.0000 C   0  0  0  0  0  0  0  0  0  0  0  0
   12.1901    3.6836    0.0000 C   0  0  0  0  0  0  0  0  0  0  0  0
    6.6762    0.8459    0.0000 H   0  0  0  0  0  0  0  0  0  0  0  0
    6.6808    0.1999    0.0000 H   0  0  0  0  0  0  0  0  0  0  0  0
    8.6113    1.9548    0.0000 H   0  0  0  0  0  0  0  0  0  0  0  0
    7.7997    2.1273    0.0000 H   0  0  0  0  0  0  0  0  0  0  0  0
    8.0872   -0.6085    0.0000 H   0  0  0  0  0  0  0  0  0  0  0  0
    8.8452   -0.2710    0.0000 H   0  0  0  0  0  0  0  0  0  0  0  0
    9.2804    0.4828    0.0000 H   0  0  0  0  0  0  0  0  0  0  0  0
    9.1937    1.3079    0.0000 H   0  0  0  0  0  0  0  0  0  0  0  0
    7.7331    2.8736    0.0000 H   0  0  0  0  0  0  0  0  0  0  0  0
    8.9630   -0.4283    0.0000 H   0  0  0  0  0  0  0  0  0  0  0  0
    4.9272    4.4936    0.0000 H   0  0  0  0  0  0  0  0  0  0  0  0
    6.3301    5.3036    0.0000 H   0  0  0  0  0  0  0  0  0  0  0  0
    8.5121   -3.6367    0.0000 H   0  0  0  0  0  0  0  0  0  0  0  0
    7.5252    4.9936    0.0000 H   0  0  0  0  0  0  0  0  0  0  0  0
   10.0142   -3.0298    0.0000 H   0  0  0  0  0  0  0  0  0  0  0  0
    4.8101    1.1010    0.0000 H   0  0  0  0  0  0  0  0  0  0  0  0
    5.2087    1.7912    0.0000 H   0  0  0  0  0  0  0  0  0  0  0  0
    3.1215    3.2912    0.0000 H   0  0  0  0  0  0  0  0  0  0  0  0
    3.5200    2.6010    0.0000 H   0  0  0  0  0  0  0  0  0  0  0  0
    6.5558   -1.7512    0.0000 H   0  0  0  0  0  0  0  0  0  0  0  0
    5.7666   -1.6403    0.0000 H   0  0  0  0  0  0  0  0  0  0  0  0
    6.1543   -3.5804    0.0000 H   0  0  0  0  0  0  0  0  0  0  0  0
    6.4529   -4.3194    0.0000 H   0  0  0  0  0  0  0  0  0  0  0  0
   10.8242   -1.8582    0.0000 H   0  0  0  0  0  0  0  0  0  0  0  0
   11.1668   -1.0510    0.0000 H   0  0  0  0  0  0  0  0  0  0  0  0
   10.3596   -0.7085    0.0000 H   0  0  0  0  0  0  0  0  0  0  0  0
    9.7942    5.3036    0.0000 H   0  0  0  0  0  0  0  0  0  0  0  0
    7.5252    5.9936    0.0000 H   0  0  0  0  0  0  0  0  0  0  0  0
    8.3913    2.8736    0.0000 H   0  0  0  0  0  0  0  0  0  0  0  0
    9.7942    2.0636    0.0000 H   0  0  0  0  0  0  0  0  0  0  0  0
   12.6510    3.2689    0.0000 H   0  0  0  0  0  0  0  0  0  0  0  0
   12.6510    4.0983    0.0000 H   0  0  0  0  0  0  0  0  0  0  0  0
  5 20  1  0  0  0  0
  5 25  1  0  0  0  0
  6 21  1  0  0  0  0
  6 26  1  0  0  0  0
  7 36  1  0  0  0  0
  7 81  1  0  0  0  0
  8 50  1  0  0  0  0
  8 53  1  0  0  0  0
  9 52  1  0  0  0  0
  9 53  1  0  0  0  0
 10 46  1  0  0  0  0
 11 47  1  0  0  0  0
 12 49  1  0  0  0  0
 13 48  1  0  0  0  0
 14 47  2  0  0  0  0
 15 46  2  0  0  0  0
 16 49  2  0  0  0  0
 17 48  2  0  0  0  0
 18 27  1  0  0  0  0
 18 38  1  0  0  0  0
 18 39  1  0  0  0  0
 19 28  1  0  0  0  0
 19 40  1  0  0  0  0
 19 41  1  0  0  0  0
 20 21  1  0  0  0  0
 20 22  1  0  0  0  0
 20 54  1  0  0  0  0
 21 23  1  0  0  0  0
 21 55  1  0  0  0  0
 22 24  1  0  0  0  0
 22 56  1  0  0  0  0
 22 57  1  0  0  0  0
 23 24  1  0  0  0  0
 23 58  1  0  0  0  0
 23 59  1  0  0  0  0
 24 60  1  0  0  0  0
 24 61  1  0  0  0  0
 25 27  2  0  0  0  0
 25 29  1  0  0  0  0
 26 28  2  0  0  0  0
 26 30  1  0  0  0  0
 27 32  1  0  0  0  0
 28 35  1  0  0  0  0
 29 31  2  0  0  0  0
 29 62  1  0  0  0  0
 30 33  2  0  0  0  0
 30 63  1  0  0  0  0
 31 34  1  0  0  0  0
 31 36  1  0  0  0  0
 32 34  2  0  0  0  0
 32 64  1  0  0  0  0
 33 37  1  0  0  0  0
 33 43  1  0  0  0  0
 34 65  1  0  0  0  0
 35 37  2  0  0  0  0
 35 66  1  0  0  0  0
 36 42  1  0  0  0  0
 36 67  1  0  0  0  0
 37 68  1  0  0  0  0
 38 46  1  0  0  0  0
 38 71  1  0  0  0  0
 38 72  1  0  0  0  0
 39 47  1  0  0  0  0
 39 69  1  0  0  0  0
 39 70  1  0  0  0  0
 40 48  1  0  0  0  0
 40 75  1  0  0  0  0
 40 76  1  0  0  0  0
 41 49  1  0  0  0  0
 41 73  1  0  0  0  0
 41 74  1  0  0  0  0
 42 44  2  0  0  0  0
 42 45  1  0  0  0  0
 43 77  1  0  0  0  0
 43 78  1  0  0  0  0
 43 79  1  0  0  0  0
 44 50  1  0  0  0  0
 44 80  1  0  0  0  0
 45 51  2  0  0  0  0
 45 82  1  0  0  0  0
 50 52  2  0  0  0  0
 51 52  1  0  0  0  0
 51 83  1  0  0  0  0
 53 84  1  0  0  0  0
 53 85  1  0  0  0  0
M  CHG  8   1   1   2   1   3   1   4   1  10  -1  11  -1  12  -1  13  -1
M  END
> <PUBCHEM_COMPOUND_CID>
4504

> <PUBCHEM_COMPOUND_CANONICALIZED>
1

> <PUBCHEM_CACTVS_COMPLEXITY>
1150

> <PUBCHEM_CACTVS_HBOND_ACCEPTOR>
15

> <PUBCHEM_CACTVS_HBOND_DONOR>
1

> <PUBCHEM_CACTVS_ROTATABLE_BOND>
16

> <PUBCHEM_CACTVS_SUBSKEYS>
AAADcfB/PDAAAAAAAAAAAAAAAAAAAaIAAAAwYMAAAAAAAEgBUAAAHgAACAAADBzhmAcyzoMABgCIAiTSSACCCAAhIgAIiACP7IgfNiLEsbuneCrkwBHe+AfQ8P8OKAABAAAAUABQAAIAAACgAAAAACAAAA==

> <PUBCHEM_IUPAC_OPENEYE_NAME>
tetrasodium 2-[2-[2-[5-[1,3-benzodioxol-5-yl(hydroxy)methyl]-2-[bis(carboxylatomethyl)amino]phenoxy]cyclopentoxy]-N-(carboxylatomethyl)-4-methyl-anilino]acetate

> <PUBCHEM_IUPAC_CAS_NAME>
tetrasodium 2-[2-[2-[5-[1,3-benzodioxol-5-yl(hydroxy)methyl]-2-[bis(carboxylatomethyl)amino]phenoxy]cyclopentyl]oxy-N-(carboxylatomethyl)-4-methylanilino]acetate

> <PUBCHEM_IUPAC_NAME>
tetrasodium 2-[2-[2-[5-[1,3-benzodioxol-5-yl(hydroxy)methyl]-2-[bis(carboxylatomethyl)amino]phenoxy]cyclopentyl]oxy-N-(carboxylatomethyl)-4-methylanilino]acetate

> <PUBCHEM_IUPAC_SYSTEMATIC_NAME>
tetrasodium 2-[[2-[2-[5-[1,3-benzodioxol-5-yl(oxidanyl)methyl]-2-[bis(2-oxidanidyl-2-oxidanylidene-ethyl)amino]phenoxy]cyclopentyl]oxy-4-methyl-phenyl]-(2-oxidanidyl-2-oxidanylidene-ethyl)amino]ethanoate

> <PUBCHEM_IUPAC_TRADITIONAL_NAME>
tetrasodium 2-[2-[2-[5-[1,3-benzodioxol-5-yl(hydroxy)methyl]-2-[bis(carboxylatomethyl)amino]phenoxy]cyclopentoxy]-N-(carboxylatomethyl)-4-methyl-anilino]acetate

> <PUBCHEM_IUPAC_INCHI>
InChI=1S/C34H36N2O13.4Na/c1-19-5-8-22(35(14-30(37)38)15-31(39)40)27(11-19)48-25-3-2-4-26(25)49-28-12-20(6-9-23(28)36(16-32(41)42)17-33(43)44)34(45)21-7-10-24-29(13-21)47-18-46-24;;;;/h5-13,25-26,34,45H,2-4,14-18H2,1H3,(H,37,38)(H,39,40)(H,41,42)(H,43,44);;;;/q;4*+1/p-4

> <PUBCHEM_IUPAC_INCHIKEY>
ALXGSTCOEOSEFE-UHFFFAOYSA-J

> <PUBCHEM_EXACT_MASS>
768.149516

> <PUBCHEM_MOLECULAR_FORMULA>
C34H32N2Na4O13

> <PUBCHEM_MOLECULAR_WEIGHT>
768.582557

> <PUBCHEM_OPENEYE_CAN_SMILES>
CC1=CC(=C(C=C1)N(CC(=O)[O-])CC(=O)[O-])OC2CCCC2OC3=C(C=CC(=C3)C(C4=CC5=C(C=C4)OCO5)O)N(CC(=O)[O-])CC(=O)[O-].[Na+].[Na+].[Na+].[Na+]

> <PUBCHEM_OPENEYE_ISO_SMILES>
CC1=CC(=C(C=C1)N(CC(=O)[O-])CC(=O)[O-])OC2CCCC2OC3=C(C=CC(=C3)C(C4=CC5=C(C=C4)OCO5)O)N(CC(=O)[O-])CC(=O)[O-].[Na+].[Na+].[Na+].[Na+]

> <PUBCHEM_CACTVS_TPSA>
224

> <PUBCHEM_MONOISOTOPIC_WEIGHT>
768.149516

> <PUBCHEM_TOTAL_CHARGE>
0

> <PUBCHEM_HEAVY_ATOM_COUNT>
53

> <PUBCHEM_ATOM_DEF_STEREO_COUNT>
0

> <PUBCHEM_ATOM_UDEF_STEREO_COUNT>
3

> <PUBCHEM_BOND_DEF_STEREO_COUNT>
0

> <PUBCHEM_BOND_UDEF_STEREO_COUNT>
0

> <PUBCHEM_ISOTOPIC_ATOM_COUNT>
0

> <PUBCHEM_COMPONENT_COUNT>
5

> <PUBCHEM_CACTVS_TAUTO_COUNT>
1

> <PUBCHEM_NONSTANDARDBOND>
1  11  7
2  10  7
3  12  7
4  13  7

> <PUBCHEM_COORDINATE_TYPE>
1
5
255

> <PUBCHEM_BONDANNOTATIONS>
25  27  8
25  29  8
26  28  8
26  30  8
27  32  8
28  35  8
29  31  8
30  33  8
31  34  8
32  34  8
33  37  8
35  37  8
42  44  8
42  45  8
44  50  8
45  51  8
20  5  3
50  52  8
51  52  8
21  6  3
36  7  3

$$$$

