   Color/Form
        PALE YELLOW IN PETROLEUM ETHER
   from [1]HSDB

   Boiling Point
        128-132 DEG C @ 10 MM HG
   from [2]HSDB

   Melting Point
        35-36 DEG C
   from [3]HSDB

   Solubilities
        SLIGHTLY SOL IN WATER, SOL IN PETROLEUM ETHER
   from [4]HSDB

   Spectral Properties

     * MAX ABSORPTION (WATER): 297 NM (LOG E= 4.06)
     * IR: 1435 (Sadtler Research Laboratories Prism Collection)
     * UV: 413 (Sadtler Research Laboratories Spectral Collection)

   from [5]HSDB

   Computed Properties
   Molecular Weight                  141.08162 [g/mol]
   Molecular Formula                 C[5]H[3]NO[4]
   XLogP3                            1
   H-Bond Donor                      0
   H-Bond Acceptor                   4
   Rotatable Bond Count              1
   Exact Mass                        141.006208
   MonoIsotopic Mass                 141.006208
   Topological Polar Surface Area    76
   Heavy Atom Count                  10
   Formal Charge                     0
   Complexity                        152
   Isotope Atom Count                0
   Defined Atom Stereocenter Count   0
   Undefined Atom Stereocenter Count 0
   Defined Bond Stereocenter Count   0
   Undefined Bond Stereocenter Count 0
   Covalently-Bonded Unit Count      1
   Feature 3D Acceptor Count         4
   Feature 3D Anion Count            1
   Feature 3D Ring Count             1
   Effective Rotor Count             2
   Conformer Sampling RMSD           0.4
   CID Conformer Count               [6]2

References

   1. http://toxnet.nlm.nih.gov/cgi-bin/sis/search/r?dbs+hsdb:@term+@rn+@rel+698-63-5
   2. http://toxnet.nlm.nih.gov/cgi-bin/sis/search/r?dbs+hsdb:@term+@rn+@rel+698-63-5
   3. http://toxnet.nlm.nih.gov/cgi-bin/sis/search/r?dbs+hsdb:@term+@rn+@rel+698-63-5
   4. http://toxnet.nlm.nih.gov/cgi-bin/sis/search/r?dbs+hsdb:@term+@rn+@rel+698-63-5
   5. http://toxnet.nlm.nih.gov/cgi-bin/sis/search/r?dbs+hsdb:@term+@rn+@rel+698-63-5
   6. http://pubchem.ncbi.nlm.nih.gov/vw3d/vw3d.cgi?cid=12774
