124355
  -OEChem-07051213042D

 20 20  0     1  0  0  0  0  0999 V2000
    4.5704    1.8971    0.0000 O   0  0  0  0  0  0  0  0  0  0  0  0
    2.8384    1.8971    0.0000 O   0  0  0  0  0  0  0  0  0  0  0  0
    2.6166   -1.9507    0.0000 N   0  0  0  0  0  0  0  0  0  0  0  0
    3.7044    0.3971    0.0000 C   0  0  1  0  0  0  0  0  0  0  0  0
    3.2044   -1.1417    0.0000 C   0  0  1  0  0  0  0  0  0  0  0  0
    2.8954   -0.1907    0.0000 C   0  0  0  0  0  0  0  0  0  0  0  0
    4.5134   -0.1907    0.0000 C   0  0  0  0  0  0  0  0  0  0  0  0
    4.2044   -1.1417    0.0000 C   0  0  0  0  0  0  0  0  0  0  0  0
    3.7044    1.3971    0.0000 C   0  0  0  0  0  0  0  0  0  0  0  0
    4.2568    0.6786    0.0000 H   0  0  0  0  0  0  0  0  0  0  0  0
    2.5920   -1.0447    0.0000 H   0  0  0  0  0  0  0  0  0  0  0  0
    2.5854    0.3463    0.0000 H   0  0  0  0  0  0  0  0  0  0  0  0
    2.3290   -0.4428    0.0000 H   0  0  0  0  0  0  0  0  0  0  0  0
    5.0798   -0.4428    0.0000 H   0  0  0  0  0  0  0  0  0  0  0  0
    4.8234    0.3463    0.0000 H   0  0  0  0  0  0  0  0  0  0  0  0
    4.1396   -1.7583    0.0000 H   0  0  0  0  0  0  0  0  0  0  0  0
    4.8108   -1.2706    0.0000 H   0  0  0  0  0  0  0  0  0  0  0  0
    2.8688   -2.5171    0.0000 H   0  0  0  0  0  0  0  0  0  0  0  0
    2.0000   -1.8859    0.0000 H   0  0  0  0  0  0  0  0  0  0  0  0
    4.5704    2.5171    0.0000 H   0  0  0  0  0  0  0  0  0  0  0  0
  1  9  1  0  0  0  0
  1 20  1  0  0  0  0
  2  9  2  0  0  0  0
  5  3  1  1  0  0  0
  3 18  1  0  0  0  0
  3 19  1  0  0  0  0
  4  6  1  0  0  0  0
  4  7  1  0  0  0  0
  4  9  1  6  0  0  0
  4 10  1  0  0  0  0
  5  6  1  0  0  0  0
  5  8  1  0  0  0  0
  5 11  1  0  0  0  0
  6 12  1  0  0  0  0
  6 13  1  0  0  0  0
  7  8  1  0  0  0  0
  7 14  1  0  0  0  0
  7 15  1  0  0  0  0
  8 16  1  0  0  0  0
  8 17  1  0  0  0  0
M  END
> <PUBCHEM_COMPOUND_CID>
124355

> <PUBCHEM_COMPOUND_CANONICALIZED>
1

> <PUBCHEM_CACTVS_COMPLEXITY>
124

> <PUBCHEM_CACTVS_HBOND_ACCEPTOR>
3

> <PUBCHEM_CACTVS_HBOND_DONOR>
2

> <PUBCHEM_CACTVS_ROTATABLE_BOND>
1

> <PUBCHEM_CACTVS_SUBSKEYS>
AAADccBiMAAAAAAAAAAAAAAAAAAAAYAAAAAAAAAAAAAAAAAAAAAAHgAQCAAADSjBgAQACABAAgAIAACQCAAAAAAAAAAAAIEAAAAAABIAgAAAQAAEEAAAAAG8WQEeAAAAAAAAAAAAAAAAAAAAACAAAAAAAA==

> <PUBCHEM_IUPAC_OPENEYE_NAME>
(1R,3R)-3-aminocyclopentanecarboxylic acid

> <PUBCHEM_IUPAC_CAS_NAME>
(1R,3R)-3-amino-1-cyclopentanecarboxylic acid

> <PUBCHEM_IUPAC_NAME>
(1R,3R)-3-aminocyclopentane-1-carboxylic acid

> <PUBCHEM_IUPAC_SYSTEMATIC_NAME>
(1R,3R)-3-azanylcyclopentane-1-carboxylic acid

> <PUBCHEM_IUPAC_TRADITIONAL_NAME>
(1R,3R)-3-aminocyclopentanecarboxylic acid

> <PUBCHEM_IUPAC_INCHI>
InChI=1S/C6H11NO2/c7-5-2-1-4(3-5)6(8)9/h4-5H,1-3,7H2,(H,8,9)/t4-,5-/m1/s1

> <PUBCHEM_IUPAC_INCHIKEY>
MLLSSTJTARJLHK-RFZPGFLSSA-N

> <PUBCHEM_XLOGP3_AA>
-2.6

> <PUBCHEM_EXACT_MASS>
129.078979

> <PUBCHEM_MOLECULAR_FORMULA>
C6H11NO2

> <PUBCHEM_MOLECULAR_WEIGHT>
129.15704

> <PUBCHEM_OPENEYE_CAN_SMILES>
C1CC(CC1C(=O)O)N

> <PUBCHEM_OPENEYE_ISO_SMILES>
C1C[C@H](C[C@@H]1C(=O)O)N

> <PUBCHEM_CACTVS_TPSA>
63.3

> <PUBCHEM_MONOISOTOPIC_WEIGHT>
129.078979

> <PUBCHEM_TOTAL_CHARGE>
0

> <PUBCHEM_HEAVY_ATOM_COUNT>
9

> <PUBCHEM_ATOM_DEF_STEREO_COUNT>
2

> <PUBCHEM_ATOM_UDEF_STEREO_COUNT>
0

> <PUBCHEM_BOND_DEF_STEREO_COUNT>
0

> <PUBCHEM_BOND_UDEF_STEREO_COUNT>
0

> <PUBCHEM_ISOTOPIC_ATOM_COUNT>
0

> <PUBCHEM_COMPONENT_COUNT>
1

> <PUBCHEM_CACTVS_TAUTO_COUNT>
1

> <PUBCHEM_COORDINATE_TYPE>
1
5
255

> <PUBCHEM_BONDANNOTATIONS>
5  3  5
4  9  6

$$$$

