13946
  -OEChem-06241222412D

 23 27  0     1  0  0  0  0  0999 V2000
    3.2583   -0.6227    0.0000 Cl  0  0  0  0  0  0  0  0  0  0  0  0
    3.9111    2.4222    0.0000 Cl  0  0  0  0  0  0  0  0  0  0  0  0
    4.6499   -2.4222    0.0000 Cl  0  0  0  0  0  0  0  0  0  0  0  0
    5.2841   -0.3062    0.0000 Cl  0  0  0  0  0  0  0  0  0  0  0  0
    2.8801   -1.5636    0.0000 Cl  0  0  0  0  0  0  0  0  0  0  0  0
    2.7561    1.1155    0.0000 Cl  0  0  0  0  0  0  0  0  0  0  0  0
    5.8218   -1.1246    0.0000 Cl  0  0  0  0  0  0  0  0  0  0  0  0
    5.6839    1.5925    0.0000 Cl  0  0  0  0  0  0  0  0  0  0  0  0
    6.0142    0.6875    0.0000 Cl  0  0  0  0  0  0  0  0  0  0  0  0
    6.0102   -0.4880    0.0000 Cl  0  0  0  0  0  0  0  0  0  0  0  0
    2.4208    0.1624    0.0000 O   0  0  0  0  0  0  0  0  0  0  0  0
    4.1632   -0.1970    0.0000 C   0  0  3  0  0  0  0  0  0  0  0  0
    4.1360    1.4478    0.0000 C   0  0  3  0  0  0  0  0  0  0  0  0
    4.4362   -1.4453    0.0000 C   0  0  3  0  0  0  0  0  0  0  0  0
    4.4233    0.2027    0.0000 C   0  0  3  0  0  0  0  0  0  0  0  0
    3.6756   -0.9577    0.0000 C   0  0  0  0  0  0  0  0  0  0  0  0
    3.6571    0.6816    0.0000 C   0  0  0  0  0  0  0  0  0  0  0  0
    4.9238   -0.6846    0.0000 C   0  0  0  0  0  0  0  0  0  0  0  0
    4.9021    0.9689    0.0000 C   0  0  0  0  0  0  0  0  0  0  0  0
    3.3962   -0.0582    0.0000 C   0  0  0  0  0  0  0  0  0  0  0  0
    5.2032    0.1024    0.0000 C   0  0  0  0  0  0  0  0  0  0  0  0
    2.9754   -0.5135    0.0000 H   0  0  0  0  0  0  0  0  0  0  0  0
    2.0000   -0.2929    0.0000 H   0  0  0  0  0  0  0  0  0  0  0  0
  1 12  1  0  0  0  0
  2 13  1  0  0  0  0
  3 14  1  0  0  0  0
  4 15  1  0  0  0  0
  5 16  1  0  0  0  0
  6 17  1  0  0  0  0
  7 18  1  0  0  0  0
  8 19  1  0  0  0  0
  9 21  1  0  0  0  0
 10 21  1  0  0  0  0
 11 20  1  0  0  0  0
 11 23  1  0  0  0  0
 12 13  1  0  0  0  0
 12 16  1  0  0  0  0
 12 18  1  0  0  0  0
 13 17  1  0  0  0  0
 13 19  1  0  0  0  0
 14 15  1  0  0  0  0
 14 16  1  0  0  0  0
 14 18  1  0  0  0  0
 15 17  1  0  0  0  0
 15 19  1  0  0  0  0
 16 20  1  0  0  0  0
 17 20  1  0  0  0  0
 18 21  1  0  0  0  0
 19 21  1  0  0  0  0
 20 22  1  0  0  0  0
M  END
> <PUBCHEM_COMPOUND_CID>
13946

> <PUBCHEM_COMPOUND_CANONICALIZED>
1

> <PUBCHEM_CACTVS_COMPLEXITY>
593

> <PUBCHEM_CACTVS_HBOND_ACCEPTOR>
1

> <PUBCHEM_CACTVS_HBOND_DONOR>
1

> <PUBCHEM_CACTVS_ROTATABLE_BOND>
0

> <PUBCHEM_CACTVS_SUBSKEYS>
AAADcQBwIAAHgAAAAAAAAAAAAABgwYMGDAAAAAAAAAAAAAAAAAAAGgIACAAADBaggIIAAAAAAgAAAAAAAAAAAAAAAAAAAEAAAwAAEAIBAAAAQAAEAAAAAAGAwPAOgAAAAAAAAACIACRAASIACZCATIQCAA==

> <PUBCHEM_IUPAC_INCHI>
InChI=1S/C10H2Cl10O/c11-2-1(21)3(12)6(15)4(2,13)8(17)5(2,14)7(3,16)9(6,18)10(8,19)20/h1,21H

> <PUBCHEM_IUPAC_INCHIKEY>
MBEIHNKADVMCJM-UHFFFAOYSA-N

> <PUBCHEM_XLOGP3_AA>
3.4

> <PUBCHEM_EXACT_MASS>
491.693191

> <PUBCHEM_MOLECULAR_FORMULA>
C10H2Cl10O

> <PUBCHEM_MOLECULAR_WEIGHT>
492.65228

> <PUBCHEM_OPENEYE_CAN_SMILES>
C1(C2(C3(C4(C1(C5(C2(C3(C(C45Cl)(Cl)Cl)Cl)Cl)Cl)Cl)Cl)Cl)Cl)O

> <PUBCHEM_OPENEYE_ISO_SMILES>
C1(C2(C3(C4(C1(C5(C2(C3(C(C45Cl)(Cl)Cl)Cl)Cl)Cl)Cl)Cl)Cl)Cl)O

> <PUBCHEM_CACTVS_TPSA>
20.2

> <PUBCHEM_MONOISOTOPIC_WEIGHT>
487.699091

> <PUBCHEM_TOTAL_CHARGE>
0

> <PUBCHEM_HEAVY_ATOM_COUNT>
21

> <PUBCHEM_ATOM_DEF_STEREO_COUNT>
0

> <PUBCHEM_ATOM_UDEF_STEREO_COUNT>
4

> <PUBCHEM_BOND_DEF_STEREO_COUNT>
0

> <PUBCHEM_BOND_UDEF_STEREO_COUNT>
0

> <PUBCHEM_ISOTOPIC_ATOM_COUNT>
0

> <PUBCHEM_COMPONENT_COUNT>
1

> <PUBCHEM_CACTVS_TAUTO_COUNT>
1

> <PUBCHEM_COORDINATE_TYPE>
1
5
255

> <PUBCHEM_BONDANNOTATIONS>
12  1  3
13  2  3
14  3  3
15  4  3

$$$$

