112092
  -OEChem-07051213072D

 65 68  0     1  0  0  0  0  0999 V2000
    7.9821    0.7881    0.0000 O   0  0  0  0  0  0  0  0  0  0  0  0
    9.9391    1.2006    0.0000 O   0  0  0  0  0  0  0  0  0  0  0  0
    2.0000   -4.2638    0.0000 O   0  0  0  0  0  0  0  0  0  0  0  0
   11.5855    0.6625    0.0000 O   0  0  0  0  0  0  0  0  0  0  0  0
   13.4960    3.7203    0.0000 O   0  0  0  0  0  0  0  0  0  0  0  0
   11.8496    4.2584    0.0000 O   0  0  0  0  0  0  0  0  0  0  0  0
    7.3931   -2.2114    0.0000 C   0  0  2  0  0  0  0  0  0  0  0  0
    7.3931   -1.2114    0.0000 C   0  0  1  0  0  0  0  0  0  0  0  0
    6.5271   -2.7114    0.0000 C   0  0  1  0  0  0  0  0  0  0  0  0
    5.6610   -2.2114    0.0000 C   0  0  1  0  0  0  0  0  0  0  0  0
    4.7510   -2.7183    0.0000 C   0  0  2  0  0  0  0  0  0  0  0  0
    8.3393   -0.9067    0.0000 C   0  0  2  0  0  0  0  0  0  0  0  0
    6.5271   -0.7114    0.0000 C   0  0  0  0  0  0  0  0  0  0  0  0
    5.6610   -1.2114    0.0000 C   0  0  0  0  0  0  0  0  0  0  0  0
    8.3393   -2.5162    0.0000 C   0  0  0  0  0  0  0  0  0  0  0  0
    8.9229   -1.7114    0.0000 C   0  0  0  0  0  0  0  0  0  0  0  0
    6.5431   -3.7529    0.0000 C   0  0  0  0  0  0  0  0  0  0  0  0
    7.3931   -0.2114    0.0000 C   0  0  0  0  0  0  0  0  0  0  0  0
    4.7430   -3.7599    0.0000 C   0  0  0  0  0  0  0  0  0  0  0  0
    5.6451   -4.2807    0.0000 C   0  0  0  0  0  0  0  0  0  0  0  0
    3.8242   -2.1542    0.0000 C   0  0  0  0  0  0  0  0  0  0  0  0
    4.7587   -1.7183    0.0000 C   0  0  0  0  0  0  0  0  0  0  0  0
    8.6500    0.0438    0.0000 C   0  0  0  0  0  0  0  0  0  0  0  0
    2.8763   -2.6821    0.0000 C   0  0  0  0  0  0  0  0  0  0  0  0
    3.8076   -4.3096    0.0000 C   0  0  0  0  0  0  0  0  0  0  0  0
    2.8680   -3.7671    0.0000 C   0  0  0  0  0  0  0  0  0  0  0  0
    9.6285    0.2501    0.0000 C   0  0  0  0  0  0  0  0  0  0  0  0
   10.9176    1.4068    0.0000 C   0  0  0  0  0  0  0  0  0  0  0  0
   11.2283    2.3573    0.0000 C   0  0  0  0  0  0  0  0  0  0  0  0
   12.2068    2.5635    0.0000 C   0  0  0  0  0  0  0  0  0  0  0  0
   12.5175    3.5140    0.0000 C   0  0  0  0  0  0  0  0  0  0  0  0
    7.4830   -3.0566    0.0000 H   0  0  0  0  0  0  0  0  0  0  0  0
    7.2664   -3.1307    0.0000 H   0  0  0  0  0  0  0  0  0  0  0  0
    6.3972   -1.7864    0.0000 H   0  0  0  0  0  0  0  0  0  0  0  0
    7.9018   -0.4673    0.0000 H   0  0  0  0  0  0  0  0  0  0  0  0
    6.9256   -0.2365    0.0000 H   0  0  0  0  0  0  0  0  0  0  0  0
    6.1285   -0.2365    0.0000 H   0  0  0  0  0  0  0  0  0  0  0  0
    5.4490   -0.6288    0.0000 H   0  0  0  0  0  0  0  0  0  0  0  0
    5.0504   -1.3191    0.0000 H   0  0  0  0  0  0  0  0  0  0  0  0
    8.0883   -3.0831    0.0000 H   0  0  0  0  0  0  0  0  0  0  0  0
    8.8767   -2.8254    0.0000 H   0  0  0  0  0  0  0  0  0  0  0  0
    9.3838   -2.1262    0.0000 H   0  0  0  0  0  0  0  0  0  0  0  0
    9.3838   -1.2967    0.0000 H   0  0  0  0  0  0  0  0  0  0  0  0
    6.7612   -4.3333    0.0000 H   0  0  0  0  0  0  0  0  0  0  0  0
    7.1523   -3.6374    0.0000 H   0  0  0  0  0  0  0  0  0  0  0  0
    8.0131   -0.2114    0.0000 H   0  0  0  0  0  0  0  0  0  0  0  0
    7.3931    0.4086    0.0000 H   0  0  0  0  0  0  0  0  0  0  0  0
    6.7731   -0.2114    0.0000 H   0  0  0  0  0  0  0  0  0  0  0  0
    5.2478   -4.7566    0.0000 H   0  0  0  0  0  0  0  0  0  0  0  0
    6.0460   -4.7536    0.0000 H   0  0  0  0  0  0  0  0  0  0  0  0
    4.2324   -1.6875    0.0000 H   0  0  0  0  0  0  0  0  0  0  0  0
    3.4343   -1.6722    0.0000 H   0  0  0  0  0  0  0  0  0  0  0  0
    5.3787   -1.7231    0.0000 H   0  0  0  0  0  0  0  0  0  0  0  0
    4.7635   -1.0983    0.0000 H   0  0  0  0  0  0  0  0  0  0  0  0
    4.1388   -1.7135    0.0000 H   0  0  0  0  0  0  0  0  0  0  0  0
    2.6718   -2.0968    0.0000 H   0  0  0  0  0  0  0  0  0  0  0  0
    2.2647   -2.7835    0.0000 H   0  0  0  0  0  0  0  0  0  0  0  0
    3.8100   -4.9296    0.0000 H   0  0  0  0  0  0  0  0  0  0  0  0
    9.6490   -0.3696    0.0000 H   0  0  0  0  0  0  0  0  0  0  0  0
   10.2423    0.1627    0.0000 H   0  0  0  0  0  0  0  0  0  0  0  0
   11.2077    2.9770    0.0000 H   0  0  0  0  0  0  0  0  0  0  0  0
   10.6145    2.4447    0.0000 H   0  0  0  0  0  0  0  0  0  0  0  0
   12.2274    1.9439    0.0000 H   0  0  0  0  0  0  0  0  0  0  0  0
   12.8206    2.4762    0.0000 H   0  0  0  0  0  0  0  0  0  0  0  0
   13.6886    4.3096    0.0000 H   0  0  0  0  0  0  0  0  0  0  0  0
  1 23  2  0  0  0  0
  2 27  1  0  0  0  0
  2 28  1  0  0  0  0
  3 26  2  0  0  0  0
  4 28  2  0  0  0  0
  5 31  1  0  0  0  0
  5 65  1  0  0  0  0
  6 31  2  0  0  0  0
  7  8  1  0  0  0  0
  7  9  1  0  0  0  0
  7 15  1  0  0  0  0
  7 32  1  6  0  0  0
  8 12  1  0  0  0  0
  8 13  1  0  0  0  0
  8 18  1  1  0  0  0
  9 10  1  0  0  0  0
  9 17  1  0  0  0  0
  9 33  1  1  0  0  0
 10 11  1  0  0  0  0
 10 14  1  0  0  0  0
 10 34  1  6  0  0  0
 11 19  1  0  0  0  0
 11 21  1  0  0  0  0
 11 22  1  1  0  0  0
 12 16  1  0  0  0  0
 12 23  1  1  0  0  0
 12 35  1  0  0  0  0
 13 14  1  0  0  0  0
 13 36  1  0  0  0  0
 13 37  1  0  0  0  0
 14 38  1  0  0  0  0
 14 39  1  0  0  0  0
 15 16  1  0  0  0  0
 15 40  1  0  0  0  0
 15 41  1  0  0  0  0
 16 42  1  0  0  0  0
 16 43  1  0  0  0  0
 17 20  1  0  0  0  0
 17 44  1  0  0  0  0
 17 45  1  0  0  0  0
 18 46  1  0  0  0  0
 18 47  1  0  0  0  0
 18 48  1  0  0  0  0
 19 20  1  0  0  0  0
 19 25  2  0  0  0  0
 20 49  1  0  0  0  0
 20 50  1  0  0  0  0
 21 24  1  0  0  0  0
 21 51  1  0  0  0  0
 21 52  1  0  0  0  0
 22 53  1  0  0  0  0
 22 54  1  0  0  0  0
 22 55  1  0  0  0  0
 23 27  1  0  0  0  0
 24 26  1  0  0  0  0
 24 56  1  0  0  0  0
 24 57  1  0  0  0  0
 25 26  1  0  0  0  0
 25 58  1  0  0  0  0
 27 59  1  0  0  0  0
 27 60  1  0  0  0  0
 28 29  1  0  0  0  0
 29 30  1  0  0  0  0
 29 61  1  0  0  0  0
 29 62  1  0  0  0  0
 30 31  1  0  0  0  0
 30 63  1  0  0  0  0
 30 64  1  0  0  0  0
M  END
> <PUBCHEM_COMPOUND_CID>
112092

> <PUBCHEM_COMPOUND_CANONICALIZED>
1

> <PUBCHEM_CACTVS_COMPLEXITY>
828

> <PUBCHEM_CACTVS_HBOND_ACCEPTOR>
6

> <PUBCHEM_CACTVS_HBOND_DONOR>
1

> <PUBCHEM_CACTVS_ROTATABLE_BOND>
7

> <PUBCHEM_CACTVS_SUBSKEYS>
AAADcfB4OAAAAAAAAAAAAAAAAAAAAYAAAAAwYIAAAAAAAGDAAAAAGgAACAAADwSggAICCAAABgCIAqDSCAIAAAAgAAAACAFAAEgAABIAAQQCQAAEgAAIAQPLyPCPgAAAAAAAAACAAAQAACAAAQAACAAAAA==

> <PUBCHEM_IUPAC_OPENEYE_NAME>
4-[2-[(8S,9S,10R,13S,14S,17S)-10,13-dimethyl-3-oxo-1,2,6,7,8,9,11,12,14,15,16,17-dodecahydrocyclopenta[a]phenanthren-17-yl]-2-oxo-ethoxy]-4-oxo-butanoic acid

> <PUBCHEM_IUPAC_CAS_NAME>
4-[2-[(8S,9S,10R,13S,14S,17S)-10,13-dimethyl-3-oxo-1,2,6,7,8,9,11,12,14,15,16,17-dodecahydrocyclopenta[a]phenanthren-17-yl]-2-oxoethoxy]-4-oxobutanoic acid

> <PUBCHEM_IUPAC_NAME>
4-[2-[(8S,9S,10R,13S,14S,17S)-10,13-dimethyl-3-oxo-1,2,6,7,8,9,11,12,14,15,16,17-dodecahydrocyclopenta[a]phenanthren-17-yl]-2-oxoethoxy]-4-oxobutanoic acid

> <PUBCHEM_IUPAC_SYSTEMATIC_NAME>
4-[2-[(8S,9S,10R,13S,14S,17S)-10,13-dimethyl-3-oxidanylidene-1,2,6,7,8,9,11,12,14,15,16,17-dodecahydrocyclopenta[a]phenanthren-17-yl]-2-oxidanylidene-ethoxy]-4-oxidanylidene-butanoic acid

> <PUBCHEM_IUPAC_TRADITIONAL_NAME>
4-keto-4-[2-keto-2-[(8S,9S,10R,13S,14S,17S)-3-keto-10,13-dimethyl-1,2,6,7,8,9,11,12,14,15,16,17-dodecahydrocyclopenta[a]phenanthren-17-yl]ethoxy]butyric acid

> <PUBCHEM_IUPAC_INCHI>
InChI=1S/C25H34O6/c1-24-11-9-16(26)13-15(24)3-4-17-18-5-6-20(25(18,2)12-10-19(17)24)21(27)14-31-23(30)8-7-22(28)29/h13,17-20H,3-12,14H2,1-2H3,(H,28,29)/t17-,18-,19-,20+,24-,25-/m0/s1

> <PUBCHEM_IUPAC_INCHIKEY>
CYWICJWKZPXJSA-PQWRYPMOSA-N

> <PUBCHEM_XLOGP3>
2.5

> <PUBCHEM_EXACT_MASS>
430.235539

> <PUBCHEM_MOLECULAR_FORMULA>
C25H34O6

> <PUBCHEM_MOLECULAR_WEIGHT>
430.53386

> <PUBCHEM_OPENEYE_CAN_SMILES>
CC12CCC3C(C1CCC2C(=O)COC(=O)CCC(=O)O)CCC4=CC(=O)CCC34C

> <PUBCHEM_OPENEYE_ISO_SMILES>
C[C@]12CC[C@H]3[C@H]([C@@H]1CC[C@@H]2C(=O)COC(=O)CCC(=O)O)CCC4=CC(=O)CC[C@]34C

> <PUBCHEM_CACTVS_TPSA>
97.7

> <PUBCHEM_MONOISOTOPIC_WEIGHT>
430.235539

> <PUBCHEM_TOTAL_CHARGE>
0

> <PUBCHEM_HEAVY_ATOM_COUNT>
31

> <PUBCHEM_ATOM_DEF_STEREO_COUNT>
6

> <PUBCHEM_ATOM_UDEF_STEREO_COUNT>
0

> <PUBCHEM_BOND_DEF_STEREO_COUNT>
0

> <PUBCHEM_BOND_UDEF_STEREO_COUNT>
0

> <PUBCHEM_ISOTOPIC_ATOM_COUNT>
0

> <PUBCHEM_COMPONENT_COUNT>
1

> <PUBCHEM_CACTVS_TAUTO_COUNT>
15

> <PUBCHEM_COORDINATE_TYPE>
1
5
255

> <PUBCHEM_BONDANNOTATIONS>
10  34  6
11  22  5
12  23  5
7  32  6
8  18  5
9  33  5

$$$$

