73309
  -OEChem-07051212562D

 82 86  0     1  0  0  0  0  0999 V2000
    6.4144   -2.8842    0.0000 O   0  0  0  0  0  0  0  0  0  0  0  0
   11.1246    3.0930    0.0000 O   0  0  0  0  0  0  0  0  0  0  0  0
    3.9891   -3.0931    0.0000 O   0  0  0  0  0  0  0  0  0  0  0  0
    5.1937   -3.5420    0.0000 O   0  0  0  0  0  0  0  0  0  0  0  0
    7.5167   -0.0513    0.0000 C   0  0  2  0  0  0  0  0  0  0  0  0
    7.5167    0.9487    0.0000 C   0  0  1  0  0  0  0  0  0  0  0  0
    8.4106    1.4833    0.0000 C   0  0  2  0  0  0  0  0  0  0  0  0
    6.6507   -0.5513    0.0000 C   0  0  1  0  0  0  0  0  0  0  0  0
    9.3167    0.9695    0.0000 C   0  0  1  0  0  0  0  0  0  0  0  0
    8.4106   -0.5860    0.0000 C   0  0  0  0  0  0  0  0  0  0  0  0
    5.7847   -0.0513    0.0000 C   0  0  0  0  0  0  0  0  0  0  0  0
    9.3167   -0.0722    0.0000 C   0  0  0  0  0  0  0  0  0  0  0  0
   10.2605    1.5047    0.0000 C   0  0  0  0  0  0  0  0  0  0  0  0
    4.8746   -0.5582    0.0000 C   0  0  1  0  0  0  0  0  0  0  0  0
    6.6507    1.4487    0.0000 C   0  0  0  0  0  0  0  0  0  0  0  0
    6.6667   -1.5928    0.0000 C   0  0  0  0  0  0  0  0  0  0  0  0
    4.8666   -1.5998    0.0000 C   0  0  1  0  0  0  0  0  0  0  0  0
    8.3856    2.5680    0.0000 C   0  0  0  0  0  0  0  0  0  0  0  0
    5.7687   -2.1206    0.0000 C   0  0  2  0  0  0  0  0  0  0  0  0
    7.8588   -0.9910    0.0000 C   0  0  0  0  0  0  0  0  0  0  0  0
    5.7847    0.9487    0.0000 C   0  0  0  0  0  0  0  0  0  0  0  0
   10.2605    2.5897    0.0000 C   0  0  2  0  0  0  0  0  0  0  0  0
    7.5408    1.9766    0.0000 C   0  0  0  0  0  0  0  0  0  0  0  0
    9.3167    3.1250    0.0000 C   0  0  0  0  0  0  0  0  0  0  0  0
    7.2935   -1.3174    0.0000 C   0  0  0  0  0  0  0  0  0  0  0  0
    3.9478    0.0059    0.0000 C   0  0  0  0  0  0  0  0  0  0  0  0
    3.9312   -2.1495    0.0000 C   0  0  0  0  0  0  0  0  0  0  0  0
    2.9999   -0.5220    0.0000 C   0  0  0  0  0  0  0  0  0  0  0  0
    2.9916   -1.6070    0.0000 C   0  0  0  0  0  0  0  0  0  0  0  0
   11.2605    1.5009    0.0000 C   0  0  0  0  0  0  0  0  0  0  0  0
   10.7572    0.6368    0.0000 C   0  0  0  0  0  0  0  0  0  0  0  0
    4.8589   -2.5997    0.0000 C   0  0  0  0  0  0  0  0  0  0  0  0
    2.0000   -0.5105    0.0000 C   0  0  0  0  0  0  0  0  0  0  0  0
    2.5100    0.3497    0.0000 C   0  0  0  0  0  0  0  0  0  0  0  0
    7.5102    1.7986    0.0000 H   0  0  0  0  0  0  0  0  0  0  0  0
   10.0512    0.5416    0.0000 H   0  0  0  0  0  0  0  0  0  0  0  0
    8.0060   -1.0558    0.0000 H   0  0  0  0  0  0  0  0  0  0  0  0
    8.8043   -1.0650    0.0000 H   0  0  0  0  0  0  0  0  0  0  0  0
    9.5258   -0.6558    0.0000 H   0  0  0  0  0  0  0  0  0  0  0  0
    9.9276    0.0339    0.0000 H   0  0  0  0  0  0  0  0  0  0  0  0
    4.8910    0.2917    0.0000 H   0  0  0  0  0  0  0  0  0  0  0  0
    7.0492    1.9236    0.0000 H   0  0  0  0  0  0  0  0  0  0  0  0
    6.2522    1.9236    0.0000 H   0  0  0  0  0  0  0  0  0  0  0  0
    6.8848   -2.1732    0.0000 H   0  0  0  0  0  0  0  0  0  0  0  0
    7.2759   -1.4773    0.0000 H   0  0  0  0  0  0  0  0  0  0  0  0
    8.1631    3.1467    0.0000 H   0  0  0  0  0  0  0  0  0  0  0  0
    7.7773    2.4478    0.0000 H   0  0  0  0  0  0  0  0  0  0  0  0
    5.3711   -2.5963    0.0000 H   0  0  0  0  0  0  0  0  0  0  0  0
    7.2762   -1.2031    0.0000 H   0  0  0  0  0  0  0  0  0  0  0  0
    8.0709   -1.5736    0.0000 H   0  0  0  0  0  0  0  0  0  0  0  0
    8.4414   -0.7789    0.0000 H   0  0  0  0  0  0  0  0  0  0  0  0
    5.2477    1.2587    0.0000 H   0  0  0  0  0  0  0  0  0  0  0  0
   10.2569    3.2097    0.0000 H   0  0  0  0  0  0  0  0  0  0  0  0
    7.8466    2.5159    0.0000 H   0  0  0  0  0  0  0  0  0  0  0  0
    7.0015    2.2825    0.0000 H   0  0  0  0  0  0  0  0  0  0  0  0
    7.2349    1.4373    0.0000 H   0  0  0  0  0  0  0  0  0  0  0  0
    9.7103    3.6040    0.0000 H   0  0  0  0  0  0  0  0  0  0  0  0
    8.9121    3.5947    0.0000 H   0  0  0  0  0  0  0  0  0  0  0  0
    6.8185   -1.7159    0.0000 H   0  0  0  0  0  0  0  0  0  0  0  0
    7.6920   -1.7923    0.0000 H   0  0  0  0  0  0  0  0  0  0  0  0
    7.7684   -0.9189    0.0000 H   0  0  0  0  0  0  0  0  0  0  0  0
    4.3560    0.4726    0.0000 H   0  0  0  0  0  0  0  0  0  0  0  0
    3.5579    0.4879    0.0000 H   0  0  0  0  0  0  0  0  0  0  0  0
    3.5339   -2.6255    0.0000 H   0  0  0  0  0  0  0  0  0  0  0  0
    4.3322   -2.6224    0.0000 H   0  0  0  0  0  0  0  0  0  0  0  0
    2.3816   -1.4962    0.0000 H   0  0  0  0  0  0  0  0  0  0  0  0
    2.7780   -2.1891    0.0000 H   0  0  0  0  0  0  0  0  0  0  0  0
   11.2581    0.8809    0.0000 H   0  0  0  0  0  0  0  0  0  0  0  0
   11.8805    1.4985    0.0000 H   0  0  0  0  0  0  0  0  0  0  0  0
   11.2629    2.1209    0.0000 H   0  0  0  0  0  0  0  0  0  0  0  0
   10.2190    0.3288    0.0000 H   0  0  0  0  0  0  0  0  0  0  0  0
   11.0651    0.0986    0.0000 H   0  0  0  0  0  0  0  0  0  0  0  0
   11.2953    0.9447    0.0000 H   0  0  0  0  0  0  0  0  0  0  0  0
    7.0246   -2.7741    0.0000 H   0  0  0  0  0  0  0  0  0  0  0  0
    2.0072    0.1095    0.0000 H   0  0  0  0  0  0  0  0  0  0  0  0
    1.3800   -0.5033    0.0000 H   0  0  0  0  0  0  0  0  0  0  0  0
    1.9928   -1.1304    0.0000 H   0  0  0  0  0  0  0  0  0  0  0  0
    3.0505    0.6535    0.0000 H   0  0  0  0  0  0  0  0  0  0  0  0
    2.2062    0.8902    0.0000 H   0  0  0  0  0  0  0  0  0  0  0  0
    1.9695    0.0459    0.0000 H   0  0  0  0  0  0  0  0  0  0  0  0
   11.1222    3.7130    0.0000 H   0  0  0  0  0  0  0  0  0  0  0  0
    3.9843   -3.7130    0.0000 H   0  0  0  0  0  0  0  0  0  0  0  0
 19  1  1  1  0  0  0
  1 74  1  0  0  0  0
 22  2  1  6  0  0  0
  2 81  1  0  0  0  0
  3 32  1  0  0  0  0
  3 82  1  0  0  0  0
  4 32  2  0  0  0  0
  5  6  1  0  0  0  0
  5  8  1  0  0  0  0
  5 10  1  0  0  0  0
  5 20  1  6  0  0  0
  6  7  1  0  0  0  0
  6 15  1  0  0  0  0
  6 35  1  1  0  0  0
  7  9  1  0  0  0  0
  7 18  1  0  0  0  0
  7 23  1  6  0  0  0
  8 11  1  0  0  0  0
  8 16  1  0  0  0  0
  8 25  1  1  0  0  0
  9 12  1  0  0  0  0
  9 13  1  0  0  0  0
  9 36  1  1  0  0  0
 10 12  1  0  0  0  0
 10 37  1  0  0  0  0
 10 38  1  0  0  0  0
 11 14  1  0  0  0  0
 11 21  2  0  0  0  0
 12 39  1  0  0  0  0
 12 40  1  0  0  0  0
 13 22  1  0  0  0  0
 13 30  1  0  0  0  0
 13 31  1  0  0  0  0
 14 17  1  0  0  0  0
 14 26  1  0  0  0  0
 14 41  1  6  0  0  0
 15 21  1  0  0  0  0
 15 42  1  0  0  0  0
 15 43  1  0  0  0  0
 16 19  1  0  0  0  0
 16 44  1  0  0  0  0
 16 45  1  0  0  0  0
 17 19  1  0  0  0  0
 17 27  1  0  0  0  0
 17 32  1  6  0  0  0
 18 24  1  0  0  0  0
 18 46  1  0  0  0  0
 18 47  1  0  0  0  0
 19 48  1  0  0  0  0
 20 49  1  0  0  0  0
 20 50  1  0  0  0  0
 20 51  1  0  0  0  0
 21 52  1  0  0  0  0
 22 24  1  0  0  0  0
 22 53  1  0  0  0  0
 23 54  1  0  0  0  0
 23 55  1  0  0  0  0
 23 56  1  0  0  0  0
 24 57  1  0  0  0  0
 24 58  1  0  0  0  0
 25 59  1  0  0  0  0
 25 60  1  0  0  0  0
 25 61  1  0  0  0  0
 26 28  1  0  0  0  0
 26 62  1  0  0  0  0
 26 63  1  0  0  0  0
 27 29  1  0  0  0  0
 27 64  1  0  0  0  0
 27 65  1  0  0  0  0
 28 29  1  0  0  0  0
 28 33  1  0  0  0  0
 28 34  1  0  0  0  0
 29 66  1  0  0  0  0
 29 67  1  0  0  0  0
 30 68  1  0  0  0  0
 30 69  1  0  0  0  0
 30 70  1  0  0  0  0
 31 71  1  0  0  0  0
 31 72  1  0  0  0  0
 31 73  1  0  0  0  0
 33 75  1  0  0  0  0
 33 76  1  0  0  0  0
 33 77  1  0  0  0  0
 34 78  1  0  0  0  0
 34 79  1  0  0  0  0
 34 80  1  0  0  0  0
M  END
> <PUBCHEM_COMPOUND_CID>
73309

> <PUBCHEM_COMPOUND_CANONICALIZED>
1

> <PUBCHEM_CACTVS_COMPLEXITY>
919

> <PUBCHEM_CACTVS_HBOND_ACCEPTOR>
4

> <PUBCHEM_CACTVS_HBOND_DONOR>
3

> <PUBCHEM_CACTVS_ROTATABLE_BOND>
1

> <PUBCHEM_CACTVS_SUBSKEYS>
AAADcfB4OAAAAAAAAAAAAAAAAAAAAAAAAAAwYMGCAAAAAADAAAAAGgAACAAADxSggAICCAAAAgCIAiDSCAAAAAAgAAAACAEAAAgAEBYAAQAAQAAFoAAIAAOIyPCPgAAAAAAAAADAAAYAADAAAAAAAAAAAA==

> <PUBCHEM_IUPAC_OPENEYE_NAME>
(4aR,5R,6aR,6aS,6bR,8aR,10S,12aR,14bS)-5,10-dihydroxy-2,2,6a,6b,9,9,12a-heptamethyl-1,3,4,5,6,6a,7,8,8a,10,11,12,13,14b-tetradecahydropicene-4a-carboxylic acid

> <PUBCHEM_IUPAC_CAS_NAME>
(4aR,5R,6aR,6aS,6bR,8aR,10S,12aR,14bS)-5,10-dihydroxy-2,2,6a,6b,9,9,12a-heptamethyl-1,3,4,5,6,6a,7,8,8a,10,11,12,13,14b-tetradecahydropicene-4a-carboxylic acid

> <PUBCHEM_IUPAC_NAME>
(4aR,5R,6aR,6aS,6bR,8aR,10S,12aR,14bS)-5,10-dihydroxy-2,2,6a,6b,9,9,12a-heptamethyl-1,3,4,5,6,6a,7,8,8a,10,11,12,13,14b-tetradecahydropicene-4a-carboxylic acid

> <PUBCHEM_IUPAC_SYSTEMATIC_NAME>
(4aR,5R,6aR,6aS,6bR,8aR,10S,12aR,14bS)-2,2,6a,6b,9,9,12a-heptamethyl-5,10-bis(oxidanyl)-1,3,4,5,6,6a,7,8,8a,10,11,12,13,14b-tetradecahydropicene-4a-carboxylic acid

> <PUBCHEM_IUPAC_TRADITIONAL_NAME>
(4aR,5R,6aR,6aS,6bR,8aR,10S,12aR,14bS)-5,10-dihydroxy-2,2,6a,6b,9,9,12a-heptamethyl-1,3,4,5,6,6a,7,8,8a,10,11,12,13,14b-tetradecahydropicene-4a-carboxylic acid

> <PUBCHEM_IUPAC_INCHI>
InChI=1S/C30H48O4/c1-25(2)14-15-30(24(33)34)19(16-25)18-8-9-21-27(5)12-11-22(31)26(3,4)20(27)10-13-28(21,6)29(18,7)17-23(30)32/h8,19-23,31-32H,9-17H2,1-7H3,(H,33,34)/t19-,20-,21+,22-,23+,27-,28+,29+,30+/m0/s1

> <PUBCHEM_IUPAC_INCHIKEY>
YKOPWPOFWMYZJZ-PRIAQAIDSA-N

> <PUBCHEM_XLOGP3_AA>
6.9

> <PUBCHEM_EXACT_MASS>
472.35526

> <PUBCHEM_MOLECULAR_FORMULA>
C30H48O4

> <PUBCHEM_MOLECULAR_WEIGHT>
472.69972

> <PUBCHEM_OPENEYE_CAN_SMILES>
CC1(CCC2(C(C1)C3=CCC4C5(CCC(C(C5CCC4(C3(CC2O)C)C)(C)C)O)C)C(=O)O)C

> <PUBCHEM_OPENEYE_ISO_SMILES>
C[C@]12CC[C@@H](C([C@@H]1CC[C@@]3([C@@H]2CC=C4[C@]3(C[C@H]([C@@]5([C@H]4CC(CC5)(C)C)C(=O)O)O)C)C)(C)C)O

> <PUBCHEM_CACTVS_TPSA>
77.8

> <PUBCHEM_MONOISOTOPIC_WEIGHT>
472.35526

> <PUBCHEM_TOTAL_CHARGE>
0

> <PUBCHEM_HEAVY_ATOM_COUNT>
34

> <PUBCHEM_ATOM_DEF_STEREO_COUNT>
9

> <PUBCHEM_ATOM_UDEF_STEREO_COUNT>
0

> <PUBCHEM_BOND_DEF_STEREO_COUNT>
0

> <PUBCHEM_BOND_UDEF_STEREO_COUNT>
0

> <PUBCHEM_ISOTOPIC_ATOM_COUNT>
0

> <PUBCHEM_COMPONENT_COUNT>
1

> <PUBCHEM_CACTVS_TAUTO_COUNT>
1

> <PUBCHEM_COORDINATE_TYPE>
1
5
255

> <PUBCHEM_BONDANNOTATIONS>
19  1  5
14  41  6
17  32  6
22  2  6
5  20  6
6  35  5
7  23  6
8  25  5
9  36  5

$$$$

