   Color/Form

     * White, powder, needles from benzene
     * Colorless crystalline solid
     * White, crystalline powder
     * Colorless needles

   from [1]HSDB

   Odor
        ODORLESS
   from [2]HSDB

   Taste
        Bitter taste
   from [3]HSDB

   Boiling Point
        157 deg C at 5X10-4 mm Hg
   from [4]HSDB

   Melting Point
        130 deg C
   from [5]HSDB

   Density/Specific Gravity
        1.400 at 25 deg C
   from [6]HSDB

   Dissociation Constants

     * pKa = 3.35
     * kb1 = 2.24X10-11; kb2 = 3.16X10-14

   from [7]HSDB

   Octanol/Water Partition Coefficient
        log Kow = -0.37
   from [8]HSDB

   pH
        10% "wt in vol" soln in water is neutral to litmus
   from [9]HSDB

   Solubilities

     * 1 g dissolves in about 1 ml water, in 10 ml glycerol, in about 1.5
       ml alcohol
     * SOL IN BUTANOL & CHLOROFORM
     * Very soluble in 95% ethanol. Soluble in butanol, amyl alcohol,
       ethylene glycol, acetone and chloroform; slightly soluble in ether
       or benzene
     * Very soluble in ethanol, glycerol; slightly soluble in chloroform
     * In water, 5X10+5 mg/L at 25 deg C

   from [10]HSDB

   Spectral Properties

     * MAX ABSORPTION (ALCOHOL): 255 NM (LOG E= 3.4); 262.5 NM (LOG E=
       3.4); INDEX OF REFRACTION: 1.466; SADTLER REFERENCE NUMBER: 860
       (IR, PRISM); 8106 (IR, GRATING)
     * Index of refraction: 1.466
     * IR: 5080 (Coblentz Society Spectral Collection)
     * UV: 261 (Sadtler Research Laboratories Spectral Collection)
     * 1H NMR: 453 (Varian Associates NMR Spectra Catalogue)
     * 13C NMR: 259 (Johnson and Jankowski, Carbon-13 NMR for Organic
       Chemists, John Wiley & Sons, New York)
     * MASS: 2279 (NIST/EPA/MSDC Mass Spectral database, 1990 version)
     * Raman: 518 (Sadtler Research Laboratories spectral collection)
     * Intense mass spectral peaks: 78 m/z, 106 m/z, 122 m/z

   from [11]HSDB

   Vapor Pressure
        4.2X10-4 mm Hg at 25 deg C (est)
   from [12]HSDB

   Other Chemical/Physical Properties

     * READILY HYDROLYZED TO FREE ACID BY HEATING IN ACID OR ALKALINE SOLN
     * FORMS CRYSTALLINE SALTS WITH ACIDS
     * BP 150-160 at 0.67 Pa. Sublimation range 80-100 deg C
     * Specific heat = solid, 55 deg C: 1.30 kJ/kg; heat of solution in
       water: -148 kJ/kg; heat of fusion: 381 kJ/kg; density of melt, at
       150 deg C: 1.19 g/cu cm
     * Henry's Law constant = 2.90X10-12 atm-cu m/mol at 25 deg C (est)
     * Hydroxyl radical reaction rate constant = 2.34X10-12 cu cm/molec
       sec at 25 deg C (est)

   from [13]HSDB

   Computed Properties
   Molecular Weight                  122.12464 [g/mol]
   Molecular Formula                 C[6]H[6]N[2]O
   XLogP3                            -0.4
   H-Bond Donor                      1
   H-Bond Acceptor                   2
   Rotatable Bond Count              1
   Tautomer Count                    2
   Exact Mass                        122.048013
   MonoIsotopic Mass                 122.048013
   Topological Polar Surface Area    56
   Heavy Atom Count                  9
   Formal Charge                     0
   Complexity                        114
   Isotope Atom Count                0
   Defined Atom Stereocenter Count   0
   Undefined Atom Stereocenter Count 0
   Defined Bond Stereocenter Count   0
   Undefined Bond Stereocenter Count 0
   Covalently-Bonded Unit Count      1
   Feature 3D Acceptor Count         2
   Feature 3D Donor Count            1
   Feature 3D Ring Count             1
   Effective Rotor Count             1
   Conformer Sampling RMSD           0.4
   CID Conformer Count               [14]2

References

   1. http://toxnet.nlm.nih.gov/cgi-bin/sis/search/r?dbs+hsdb:@term+@rn+@rel+98-92-0
   2. http://toxnet.nlm.nih.gov/cgi-bin/sis/search/r?dbs+hsdb:@term+@rn+@rel+98-92-0
   3. http://toxnet.nlm.nih.gov/cgi-bin/sis/search/r?dbs+hsdb:@term+@rn+@rel+98-92-0
   4. http://toxnet.nlm.nih.gov/cgi-bin/sis/search/r?dbs+hsdb:@term+@rn+@rel+98-92-0
   5. http://toxnet.nlm.nih.gov/cgi-bin/sis/search/r?dbs+hsdb:@term+@rn+@rel+98-92-0
   6. http://toxnet.nlm.nih.gov/cgi-bin/sis/search/r?dbs+hsdb:@term+@rn+@rel+98-92-0
   7. http://toxnet.nlm.nih.gov/cgi-bin/sis/search/r?dbs+hsdb:@term+@rn+@rel+98-92-0
   8. http://toxnet.nlm.nih.gov/cgi-bin/sis/search/r?dbs+hsdb:@term+@rn+@rel+98-92-0
   9. http://toxnet.nlm.nih.gov/cgi-bin/sis/search/r?dbs+hsdb:@term+@rn+@rel+98-92-0
  10. http://toxnet.nlm.nih.gov/cgi-bin/sis/search/r?dbs+hsdb:@term+@rn+@rel+98-92-0
  11. http://toxnet.nlm.nih.gov/cgi-bin/sis/search/r?dbs+hsdb:@term+@rn+@rel+98-92-0
  12. http://toxnet.nlm.nih.gov/cgi-bin/sis/search/r?dbs+hsdb:@term+@rn+@rel+98-92-0
  13. http://toxnet.nlm.nih.gov/cgi-bin/sis/search/r?dbs+hsdb:@term+@rn+@rel+98-92-0
  14. http://pubchem.ncbi.nlm.nih.gov/vw3d/vw3d.cgi?cid=936
