   Color/Form
        Yellow crystals
   from [1]HSDB

   Odor
        Almond odor
   from [2]HSDB

   Boiling Point
        315 deg C
   from [3]HSDB

   Melting Point
        54 deg C
   from [4]HSDB

   Density/Specific Gravity
        1.7
   from [5]HSDB

   Octanol/Water Partition Coefficient
        log Kow = 2.17 [Debnath AK et al; J Med Chem 34: 786-97 (1991)]
   [6]PubMed Abstract
   from [7]HSDB

   Solubilities

     * Sol in ether, benzene, and carbon disulfide; sparingly sol in cold,
       freely sol in hot alc
     * In water, 8 mg/l @ 15 deg C

   from [8]HSDB

   Spectral Properties

     * SADTLER REF NUMBER: 964 (IR, PRISM); 196 (IR, GRATING)
     * Index of refraction: 1.5857 @ 60 deg C/D
     * IR: 347 (Coblentz Society Spectral Collection)
     * UV: 5204 (Sadtler Research Laboratories Spectral Collection)
     * MASS: 164 (Aldermaston, Eight Peak Index of Mass Spectra, UK)
     * RAMAN: 746 (Sadtler Research Laboratories Spectral Collection)

   from [9]HSDB

   Vapor Density
        6.98 (air=1)
   from [10]HSDB

   Vapor Pressure
        8.5X10-5 mm Hg @ 25 deg C
   from [11]HSDB

   Other Chemical/Physical Properties

     * MELTING POINT: 43 DEG C /BETA FORM, UNSTABLE/
     * MP: 27 DEG C /GAMMA FORM, UNSTABLE/
     * DENSITY OR SP GR : 1.6867 @ 16 DEG C /BETA FORM/; MELTING POINT: 53
       DEG C /ALPHA FORM, STABLE/
     * YELLOW RHOMBIC CRYSTALS /ALPHA FORM/
     * YELLOW RHOMBIC CRYSTALS FROM ETHER, NEEDLES FROM ALCOHOL /BETA
       FORM/

   from [12]HSDB

   Computed Properties
   Molecular Weight                  202.55202 [g/mol]
   Molecular Formula                 C[6]H[3]ClN[2]O[4]
   XLogP3                            2.3
   H-Bond Donor                      0
   H-Bond Acceptor                   4
   Rotatable Bond Count              0
   Exact Mass                        201.978134
   MonoIsotopic Mass                 201.978134
   Topological Polar Surface Area    91.6
   Heavy Atom Count                  13
   Formal Charge                     0
   Complexity                        224
   Isotope Atom Count                0
   Defined Atom Stereocenter Count   0
   Undefined Atom Stereocenter Count 0
   Defined Bond Stereocenter Count   0
   Undefined Bond Stereocenter Count 0
   Covalently-Bonded Unit Count      1
   Feature 3D Acceptor Count         4
   Feature 3D Anion Count            2
   Feature 3D Ring Count             1
   Effective Rotor Count             2
   Conformer Sampling RMSD           0.6
   CID Conformer Count               [13]1

References

   1. http://toxnet.nlm.nih.gov/cgi-bin/sis/search/r?dbs+hsdb:@term+@rn+@rel+97-00-7
   2. http://toxnet.nlm.nih.gov/cgi-bin/sis/search/r?dbs+hsdb:@term+@rn+@rel+97-00-7
   3. http://toxnet.nlm.nih.gov/cgi-bin/sis/search/r?dbs+hsdb:@term+@rn+@rel+97-00-7
   4. http://toxnet.nlm.nih.gov/cgi-bin/sis/search/r?dbs+hsdb:@term+@rn+@rel+97-00-7
   5. http://toxnet.nlm.nih.gov/cgi-bin/sis/search/r?dbs+hsdb:@term+@rn+@rel+97-00-7
   6. http://www.ncbi.nlm.nih.gov/entrez/query.fcgi?cmd=Retrieve&db=pubmed&dopt=Abstract&list_uids=1995902
   7. http://toxnet.nlm.nih.gov/cgi-bin/sis/search/r?dbs+hsdb:@term+@rn+@rel+97-00-7
   8. http://toxnet.nlm.nih.gov/cgi-bin/sis/search/r?dbs+hsdb:@term+@rn+@rel+97-00-7
   9. http://toxnet.nlm.nih.gov/cgi-bin/sis/search/r?dbs+hsdb:@term+@rn+@rel+97-00-7
  10. http://toxnet.nlm.nih.gov/cgi-bin/sis/search/r?dbs+hsdb:@term+@rn+@rel+97-00-7
  11. http://toxnet.nlm.nih.gov/cgi-bin/sis/search/r?dbs+hsdb:@term+@rn+@rel+97-00-7
  12. http://toxnet.nlm.nih.gov/cgi-bin/sis/search/r?dbs+hsdb:@term+@rn+@rel+97-00-7
  13. http://pubchem.ncbi.nlm.nih.gov/vw3d/vw3d.cgi?cid=6
