   Color/Form

     * Orthorhombic needles from alc
     * WHITE, CRYSTALLINE POWDER OR FREE FLOWING GRANULES

   from [1]HSDB

   Odor
        Odorless
   from [2]HSDB

   Taste
        Sweetish taste
   from [3]HSDB

   Boiling Point
        290-295 deg C @ 3.5 mm Hg
   from [4]HSDB

   Melting Point
        166-168 deg C
   from [5]HSDB

   Density/Specific Gravity
        1.52 @ 20 deg C
   from [6]HSDB

   Dissociation Constants
        pKa = 13.50 @ 18 deg C
   from [7]HSDB

   Octanol/Water Partition Coefficient
        log Kow = -3.10
   from [8]HSDB

   Solubilities

     * 1 g in about 5.5 ml water; more sol in hot water; insol in ether;
       sol in pyridine, aniline; sol in aq soln of alkalies; 1 g dissolves
       in 18 ml glycerol (density 1.24); 1 g dissolves in about 83 ml alc
     * In water, 2.16X10+5 mg/l @ 25 deg C

   from [9]HSDB

   Spectral Properties

     * Specific optical rotation: -0.49 deg @ 25 deg C/D (water)
     * IR: 6403 (Coblentz Society Spectral Collection)
     * NMR: 8046 (Sadtler Research Laboratories Spectral Collection)
     * Index of refraction: 1.3330

   from [10]HSDB

   Computed Properties
   Molecular Weight                  182.17176 [g/mol]
   Molecular Formula                 C[6]H[14]O[6]
   XLogP3                            -3.1
   H-Bond Donor                      6
   H-Bond Acceptor                   6
   Rotatable Bond Count              5
   Exact Mass                        182.079038
   MonoIsotopic Mass                 182.079038
   Topological Polar Surface Area    121
   Heavy Atom Count                  12
   Formal Charge                     0
   Complexity                        105
   Isotope Atom Count                0
   Defined Atom Stereocenter Count   4
   Undefined Atom Stereocenter Count 0
   Defined Bond Stereocenter Count   0
   Undefined Bond Stereocenter Count 0
   Covalently-Bonded Unit Count      1
   Feature 3D Acceptor Count         6
   Feature 3D Donor Count            6
   Effective Rotor Count             5
   Conformer Sampling RMSD           0.6
   CID Conformer Count               [11]18

References

   1. http://toxnet.nlm.nih.gov/cgi-bin/sis/search/r?dbs+hsdb:@term+@rn+@rel+69-65-8
   2. http://toxnet.nlm.nih.gov/cgi-bin/sis/search/r?dbs+hsdb:@term+@rn+@rel+69-65-8
   3. http://toxnet.nlm.nih.gov/cgi-bin/sis/search/r?dbs+hsdb:@term+@rn+@rel+69-65-8
   4. http://toxnet.nlm.nih.gov/cgi-bin/sis/search/r?dbs+hsdb:@term+@rn+@rel+69-65-8
   5. http://toxnet.nlm.nih.gov/cgi-bin/sis/search/r?dbs+hsdb:@term+@rn+@rel+69-65-8
   6. http://toxnet.nlm.nih.gov/cgi-bin/sis/search/r?dbs+hsdb:@term+@rn+@rel+69-65-8
   7. http://toxnet.nlm.nih.gov/cgi-bin/sis/search/r?dbs+hsdb:@term+@rn+@rel+69-65-8
   8. http://toxnet.nlm.nih.gov/cgi-bin/sis/search/r?dbs+hsdb:@term+@rn+@rel+69-65-8
   9. http://toxnet.nlm.nih.gov/cgi-bin/sis/search/r?dbs+hsdb:@term+@rn+@rel+69-65-8
  10. http://toxnet.nlm.nih.gov/cgi-bin/sis/search/r?dbs+hsdb:@term+@rn+@rel+69-65-8
  11. http://pubchem.ncbi.nlm.nih.gov/vw3d/vw3d.cgi?cid=6251
