   Color/Form

     * Thick oily liquid, light amber to violet
     * Oily liquid at room temperature, light amber to violet color.

   from [1]HSDB

   Odor
        Aromatic odor
   from [2]HSDB

   Melting Point
        < 0 deg C
   from [3]HSDB

   Corrosivity
        Slightly corrosive to mild steel.
   from [4]HSDB

   Density/Specific Gravity
        1.136 g/ml @ 20 deg C, 1.107 g/ml @ 25 deg C, and 1.1 g/ml @ 30
   deg C
   from [5]HSDB

   Dissociation Constants
        None
   from [6]HSDB

   Octanol/Water Partition Coefficient
        log Kow= 3.03
   from [7]HSDB

   Solubilities

     * Soluble in alcohol, acetone, toluene, carbon tetrachloride.
     * In water, 233 mg/l @ 25 deg C [Shiu WY et al; Rev Environ Contam
       Toxicol 116: 15-187 (1990)] [8]PubMed Abstract

   from [9]HSDB

   Vapor Pressure
        3.4X10-8 mm Hg @ 25 C
   from [10]HSDB

   Computed Properties
   Molecular Weight                  269.7671 [g/mol]
   Molecular Formula                 C[14]H[20]ClNO[2]
   XLogP3                            3.2
   H-Bond Donor                      0
   H-Bond Acceptor                   2
   Rotatable Bond Count              6
   Exact Mass                        269.118257
   MonoIsotopic Mass                 269.118257
   Topological Polar Surface Area    29.5
   Heavy Atom Count                  18
   Formal Charge                     0
   Complexity                        260
   Isotope Atom Count                0
   Defined Atom Stereocenter Count   0
   Undefined Atom Stereocenter Count 0
   Defined Bond Stereocenter Count   0
   Undefined Bond Stereocenter Count 0
   Covalently-Bonded Unit Count      1
   Feature 3D Acceptor Count         2
   Feature 3D Hydrophobe Count       1
   Feature 3D Ring Count             1
   Effective Rotor Count             7
   Conformer Sampling RMSD           0.8
   CID Conformer Count               [11]48

References

   1. http://toxnet.nlm.nih.gov/cgi-bin/sis/search/r?dbs+hsdb:@term+@rn+@rel+34256-82-1
   2. http://toxnet.nlm.nih.gov/cgi-bin/sis/search/r?dbs+hsdb:@term+@rn+@rel+34256-82-1
   3. http://toxnet.nlm.nih.gov/cgi-bin/sis/search/r?dbs+hsdb:@term+@rn+@rel+34256-82-1
   4. http://toxnet.nlm.nih.gov/cgi-bin/sis/search/r?dbs+hsdb:@term+@rn+@rel+34256-82-1
   5. http://toxnet.nlm.nih.gov/cgi-bin/sis/search/r?dbs+hsdb:@term+@rn+@rel+34256-82-1
   6. http://toxnet.nlm.nih.gov/cgi-bin/sis/search/r?dbs+hsdb:@term+@rn+@rel+34256-82-1
   7. http://toxnet.nlm.nih.gov/cgi-bin/sis/search/r?dbs+hsdb:@term+@rn+@rel+34256-82-1
   8. http://www.ncbi.nlm.nih.gov/entrez/query.fcgi?cmd=Retrieve&db=pubmed&dopt=Abstract&list_uids=2205893
   9. http://toxnet.nlm.nih.gov/cgi-bin/sis/search/r?dbs+hsdb:@term+@rn+@rel+34256-82-1
  10. http://toxnet.nlm.nih.gov/cgi-bin/sis/search/r?dbs+hsdb:@term+@rn+@rel+34256-82-1
  11. http://pubchem.ncbi.nlm.nih.gov/vw3d/vw3d.cgi?cid=1988
