51710
  -OEChem-07051213022D

 49 52  0     0  0  0  0  0  0999 V2000
    3.6750   -0.9798    0.0000 S   0  0  0  0  0  0  0  0  0  0  0  0
   11.5495    3.3250    0.0000 O   0  0  0  0  0  0  0  0  0  0  0  0
   11.5495    1.7155    0.0000 O   0  0  0  0  0  0  0  0  0  0  0  0
    6.2731    4.5202    0.0000 O   0  0  0  0  0  0  0  0  0  0  0  0
    4.5411    1.5202    0.0000 N   0  0  0  0  0  0  0  0  0  0  0  0
    5.4071    3.0202    0.0000 N   0  0  0  0  0  0  0  0  0  0  0  0
    6.2731    1.5202    0.0000 N   0  0  0  0  0  0  0  0  0  0  0  0
    3.3090   -4.0186    0.0000 N   0  0  0  0  0  0  0  0  0  0  0  0
    2.0000   -3.0676    0.0000 N   0  0  0  0  0  0  0  0  0  0  0  0
    8.0052    3.5202    0.0000 C   0  0  0  0  0  0  0  0  0  0  0  0
    8.8712    3.0202    0.0000 C   0  0  0  0  0  0  0  0  0  0  0  0
    7.1391    3.0202    0.0000 C   0  0  0  0  0  0  0  0  0  0  0  0
    9.7372    3.5202    0.0000 C   0  0  0  0  0  0  0  0  0  0  0  0
   10.6032    3.0202    0.0000 C   0  0  0  0  0  0  0  0  0  0  0  0
   10.6032    2.0202    0.0000 C   0  0  0  0  0  0  0  0  0  0  0  0
    8.8712    2.0202    0.0000 C   0  0  0  0  0  0  0  0  0  0  0  0
    4.5411    0.5202    0.0000 C   0  0  0  0  0  0  0  0  0  0  0  0
    9.7372    1.5202    0.0000 C   0  0  0  0  0  0  0  0  0  0  0  0
    6.2731    3.5202    0.0000 C   0  0  0  0  0  0  0  0  0  0  0  0
    5.4071    2.0202    0.0000 C   0  0  0  0  0  0  0  0  0  0  0  0
    3.6750    0.0202    0.0000 C   0  0  0  0  0  0  0  0  0  0  0  0
    7.1391    2.0202    0.0000 C   0  0  0  0  0  0  0  0  0  0  0  0
    2.8090   -1.4798    0.0000 C   0  0  0  0  0  0  0  0  0  0  0  0
    2.8090   -2.4798    0.0000 C   0  0  0  0  0  0  0  0  0  0  0  0
   12.1331    2.5202    0.0000 C   0  0  0  0  0  0  0  0  0  0  0  0
    3.6180   -3.0676    0.0000 C   0  0  0  0  0  0  0  0  0  0  0  0
    4.5691   -2.7586    0.0000 C   0  0  0  0  0  0  0  0  0  0  0  0
    2.3090   -4.0186    0.0000 C   0  0  0  0  0  0  0  0  0  0  0  0
    8.4037    3.9952    0.0000 H   0  0  0  0  0  0  0  0  0  0  0  0
    7.6066    3.9952    0.0000 H   0  0  0  0  0  0  0  0  0  0  0  0
    9.7372    4.1402    0.0000 H   0  0  0  0  0  0  0  0  0  0  0  0
    8.3343    1.7102    0.0000 H   0  0  0  0  0  0  0  0  0  0  0  0
    4.7531   -0.0624    0.0000 H   0  0  0  0  0  0  0  0  0  0  0  0
    5.1516    0.6279    0.0000 H   0  0  0  0  0  0  0  0  0  0  0  0
    9.7372    0.9002    0.0000 H   0  0  0  0  0  0  0  0  0  0  0  0
    3.4630    0.6028    0.0000 H   0  0  0  0  0  0  0  0  0  0  0  0
    3.0645   -0.0874    0.0000 H   0  0  0  0  0  0  0  0  0  0  0  0
    4.0041    1.8302    0.0000 H   0  0  0  0  0  0  0  0  0  0  0  0
    7.6761    1.7102    0.0000 H   0  0  0  0  0  0  0  0  0  0  0  0
    4.8702    3.3302    0.0000 H   0  0  0  0  0  0  0  0  0  0  0  0
    2.5970   -0.8972    0.0000 H   0  0  0  0  0  0  0  0  0  0  0  0
    2.1984   -1.5874    0.0000 H   0  0  0  0  0  0  0  0  0  0  0  0
   12.5939    2.1055    0.0000 H   0  0  0  0  0  0  0  0  0  0  0  0
   12.5939    2.9349    0.0000 H   0  0  0  0  0  0  0  0  0  0  0  0
    3.6734   -4.5202    0.0000 H   0  0  0  0  0  0  0  0  0  0  0  0
    4.7607   -3.3482    0.0000 H   0  0  0  0  0  0  0  0  0  0  0  0
    5.1588   -2.5670    0.0000 H   0  0  0  0  0  0  0  0  0  0  0  0
    4.3775   -2.1689    0.0000 H   0  0  0  0  0  0  0  0  0  0  0  0
    1.9446   -4.5202    0.0000 H   0  0  0  0  0  0  0  0  0  0  0  0
  1 21  1  0  0  0  0
  1 23  1  0  0  0  0
  2 14  1  0  0  0  0
  2 25  1  0  0  0  0
  3 15  1  0  0  0  0
  3 25  1  0  0  0  0
  4 19  2  0  0  0  0
  5 17  1  0  0  0  0
  5 20  1  0  0  0  0
  5 38  1  0  0  0  0
  6 19  1  0  0  0  0
  6 20  1  0  0  0  0
  6 40  1  0  0  0  0
  7 20  2  0  0  0  0
  7 22  1  0  0  0  0
  8 26  1  0  0  0  0
  8 28  1  0  0  0  0
  8 45  1  0  0  0  0
  9 24  1  0  0  0  0
  9 28  2  0  0  0  0
 10 11  1  0  0  0  0
 10 12  1  0  0  0  0
 10 29  1  0  0  0  0
 10 30  1  0  0  0  0
 11 13  2  0  0  0  0
 11 16  1  0  0  0  0
 12 19  1  0  0  0  0
 12 22  2  0  0  0  0
 13 14  1  0  0  0  0
 13 31  1  0  0  0  0
 14 15  2  0  0  0  0
 15 18  1  0  0  0  0
 16 18  2  0  0  0  0
 16 32  1  0  0  0  0
 17 21  1  0  0  0  0
 17 33  1  0  0  0  0
 17 34  1  0  0  0  0
 18 35  1  0  0  0  0
 21 36  1  0  0  0  0
 21 37  1  0  0  0  0
 22 39  1  0  0  0  0
 23 24  1  0  0  0  0
 23 41  1  0  0  0  0
 23 42  1  0  0  0  0
 24 26  2  0  0  0  0
 25 43  1  0  0  0  0
 25 44  1  0  0  0  0
 26 27  1  0  0  0  0
 27 46  1  0  0  0  0
 27 47  1  0  0  0  0
 27 48  1  0  0  0  0
 28 49  1  0  0  0  0
M  END
> <PUBCHEM_COMPOUND_CID>
51710

> <PUBCHEM_COMPOUND_CANONICALIZED>
1

> <PUBCHEM_CACTVS_COMPLEXITY>
629

> <PUBCHEM_CACTVS_HBOND_ACCEPTOR>
6

> <PUBCHEM_CACTVS_HBOND_DONOR>
3

> <PUBCHEM_CACTVS_ROTATABLE_BOND>
8

> <PUBCHEM_CACTVS_SUBSKEYS>
AAADceB7sABAAAAAAAAAAAAAAAAAAWJAAAAwQAAAAAAAAEgBwAAAHgQQAAAADAzF3ge3npbJlAioAyV3dACCiC2xMLAJ2YE+2MidbjLkuRq0MCIs0RNuqOeYyLCOIAABAAAAQABAAAIAAACAAAAAAAAAAA==

> <PUBCHEM_IUPAC_OPENEYE_NAME>
5-(1,3-benzodioxol-5-ylmethyl)-2-[2-[(5-methyl-1H-imidazol-4-yl)methylsulfanyl]ethylamino]-1H-pyrimidin-6-one

> <PUBCHEM_IUPAC_CAS_NAME>
5-(1,3-benzodioxol-5-ylmethyl)-2-[2-[(5-methyl-1H-imidazol-4-yl)methylthio]ethylamino]-1H-pyrimidin-6-one

> <PUBCHEM_IUPAC_NAME>
5-(1,3-benzodioxol-5-ylmethyl)-2-[2-[(5-methyl-1H-imidazol-4-yl)methylsulfanyl]ethylamino]-1H-pyrimidin-6-one

> <PUBCHEM_IUPAC_SYSTEMATIC_NAME>
5-(1,3-benzodioxol-5-ylmethyl)-2-[2-[(5-methyl-1H-imidazol-4-yl)methylsulfanyl]ethylamino]-1H-pyrimidin-6-one

> <PUBCHEM_IUPAC_TRADITIONAL_NAME>
2-[2-[(5-methyl-1H-imidazol-4-yl)methylthio]ethylamino]-5-piperonyl-1H-pyrimidin-6-one

> <PUBCHEM_IUPAC_INCHI>
InChI=1S/C19H21N5O3S/c1-12-15(23-10-22-12)9-28-5-4-20-19-21-8-14(18(25)24-19)6-13-2-3-16-17(7-13)27-11-26-16/h2-3,7-8,10H,4-6,9,11H2,1H3,(H,22,23)(H2,20,21,24,25)

> <PUBCHEM_IUPAC_INCHIKEY>
YTBDPHYVGACIPC-UHFFFAOYSA-N

> <PUBCHEM_XLOGP3_AA>
1.6

> <PUBCHEM_EXACT_MASS>
399.136511

> <PUBCHEM_MOLECULAR_FORMULA>
C19H21N5O3S

> <PUBCHEM_MOLECULAR_WEIGHT>
399.46674

> <PUBCHEM_OPENEYE_CAN_SMILES>
CC1=C(N=CN1)CSCCNC2=NC=C(C(=O)N2)CC3=CC4=C(C=C3)OCO4

> <PUBCHEM_OPENEYE_ISO_SMILES>
CC1=C(N=CN1)CSCCNC2=NC=C(C(=O)N2)CC3=CC4=C(C=C3)OCO4

> <PUBCHEM_CACTVS_TPSA>
126

> <PUBCHEM_MONOISOTOPIC_WEIGHT>
399.136511

> <PUBCHEM_TOTAL_CHARGE>
0

> <PUBCHEM_HEAVY_ATOM_COUNT>
28

> <PUBCHEM_ATOM_DEF_STEREO_COUNT>
0

> <PUBCHEM_ATOM_UDEF_STEREO_COUNT>
0

> <PUBCHEM_BOND_DEF_STEREO_COUNT>
0

> <PUBCHEM_BOND_UDEF_STEREO_COUNT>
0

> <PUBCHEM_ISOTOPIC_ATOM_COUNT>
0

> <PUBCHEM_COMPONENT_COUNT>
1

> <PUBCHEM_CACTVS_TAUTO_COUNT>
18

> <PUBCHEM_COORDINATE_TYPE>
1
5
255

> <PUBCHEM_BONDANNOTATIONS>
11  13  8
11  16  8
12  19  8
12  22  8
13  14  8
14  15  8
15  18  8
16  18  8
24  26  8
6  19  8
6  20  8
7  20  8
7  22  8
8  26  8
8  28  8
9  24  8
9  28  8

$$$$

