9998730
  -OEChem-07051212572D

 52 54  0     1  0  0  0  0  0999 V2000
    6.2132   -2.6316    0.0000 O   0  0  0  0  0  0  0  0  0  0  0  0
    6.5493    0.9077    0.0000 O   0  0  0  0  0  0  0  0  0  0  0  0
    3.5436    1.5433    0.0000 O   0  0  0  0  0  0  0  0  0  0  0  0
    2.6581   -2.5959    0.0000 O   0  0  0  0  0  0  0  0  0  0  0  0
    4.1784    3.2023    0.0000 O   0  0  0  0  0  0  0  0  0  0  0  0
    7.7082   -0.3794    0.0000 O   0  0  0  0  0  0  0  0  0  0  0  0
    6.0050   -1.6531    0.0000 C   0  0  1  0  0  0  0  0  0  0  0  0
    5.2618   -2.3222    0.0000 C   0  0  1  0  0  0  0  0  0  0  0  0
    6.2129   -0.6749    0.0000 C   0  0  0  0  0  0  0  0  0  0  0  0
    4.2673   -2.4267    0.0000 C   0  0  0  0  0  0  0  0  0  0  0  0
    5.8061    0.2386    0.0000 C   0  0  2  0  0  0  0  0  0  0  0  0
    6.7481   -0.9839    0.0000 C   0  0  0  0  0  0  0  0  0  0  0  0
    4.9401    0.7386    0.0000 C   0  0  2  0  0  0  0  0  0  0  0  0
    3.4013   -1.9267    0.0000 C   0  0  1  0  0  0  0  0  0  0  0  0
    3.9456    0.6341    0.0000 C   0  0  1  0  0  0  0  0  0  0  0  0
    2.9945   -1.0132    0.0000 C   0  0  0  0  0  0  0  0  0  0  0  0
    5.1443    1.7115    0.0000 C   0  0  0  0  0  0  0  0  0  0  0  0
    3.2024   -0.0350    0.0000 C   0  0  0  0  0  0  0  0  0  0  0  0
    4.2829    2.2078    0.0000 C   0  0  0  0  0  0  0  0  0  0  0  0
    2.0000   -1.1177    0.0000 C   0  0  0  0  0  0  0  0  0  0  0  0
    6.0571    2.1198    0.0000 C   0  0  0  0  0  0  0  0  0  0  0  0
    7.5003    0.5987    0.0000 C   0  0  0  0  0  0  0  0  0  0  0  0
    8.2435    1.2679    0.0000 C   0  0  0  0  0  0  0  0  0  0  0  0
    8.0356    2.2460    0.0000 C   0  0  0  0  0  0  0  0  0  0  0  0
    9.1945    0.9588    0.0000 C   0  0  0  0  0  0  0  0  0  0  0  0
    9.4024   -0.0193    0.0000 C   0  0  0  0  0  0  0  0  0  0  0  0
    5.1729   -3.1675    0.0000 H   0  0  0  0  0  0  0  0  0  0  0  0
    6.7498   -0.9849    0.0000 H   0  0  0  0  0  0  0  0  0  0  0  0
    6.6736   -0.2601    0.0000 H   0  0  0  0  0  0  0  0  0  0  0  0
    3.8065   -2.8416    0.0000 H   0  0  0  0  0  0  0  0  0  0  0  0
    4.3962   -1.8203    0.0000 H   0  0  0  0  0  0  0  0  0  0  0  0
    5.7413    0.8552    0.0000 H   0  0  0  0  0  0  0  0  0  0  0  0
    7.1630   -1.4447    0.0000 H   0  0  0  0  0  0  0  0  0  0  0  0
    7.2088   -0.5691    0.0000 H   0  0  0  0  0  0  0  0  0  0  0  0
    6.3332   -0.5232    0.0000 H   0  0  0  0  0  0  0  0  0  0  0  0
    5.7162    1.0854    0.0000 H   0  0  0  0  0  0  0  0  0  0  0  0
    2.7948   -1.7978    0.0000 H   0  0  0  0  0  0  0  0  0  0  0  0
    3.1144    0.8119    0.0000 H   0  0  0  0  0  0  0  0  0  0  0  0
    2.6655    0.2750    0.0000 H   0  0  0  0  0  0  0  0  0  0  0  0
    2.7870   -3.2023    0.0000 H   0  0  0  0  0  0  0  0  0  0  0  0
    1.9352   -0.5011    0.0000 H   0  0  0  0  0  0  0  0  0  0  0  0
    1.3834   -1.1825    0.0000 H   0  0  0  0  0  0  0  0  0  0  0  0
    2.0648   -1.7343    0.0000 H   0  0  0  0  0  0  0  0  0  0  0  0
    6.5593    1.7563    0.0000 H   0  0  0  0  0  0  0  0  0  0  0  0
    6.1208    2.7365    0.0000 H   0  0  0  0  0  0  0  0  0  0  0  0
    8.6420    2.3749    0.0000 H   0  0  0  0  0  0  0  0  0  0  0  0
    7.9067    2.8525    0.0000 H   0  0  0  0  0  0  0  0  0  0  0  0
    7.4291    2.1171    0.0000 H   0  0  0  0  0  0  0  0  0  0  0  0
    9.6553    1.3737    0.0000 H   0  0  0  0  0  0  0  0  0  0  0  0
    8.7960   -0.1482    0.0000 H   0  0  0  0  0  0  0  0  0  0  0  0
    9.5314   -0.6258    0.0000 H   0  0  0  0  0  0  0  0  0  0  0  0
   10.0089    0.1096    0.0000 H   0  0  0  0  0  0  0  0  0  0  0  0
  1  7  1  0  0  0  0
  1  8  1  0  0  0  0
 11  2  1  6  0  0  0
  2 22  1  0  0  0  0
  3 15  1  0  0  0  0
  3 19  1  0  0  0  0
 14  4  1  6  0  0  0
  4 40  1  0  0  0  0
  5 19  2  0  0  0  0
  6 22  2  0  0  0  0
  7  8  1  0  0  0  0
  7  9  1  0  0  0  0
  7 12  1  6  0  0  0
  8 10  1  0  0  0  0
  8 27  1  1  0  0  0
  9 11  1  0  0  0  0
  9 28  1  0  0  0  0
  9 29  1  0  0  0  0
 10 14  1  0  0  0  0
 10 30  1  0  0  0  0
 10 31  1  0  0  0  0
 11 13  1  0  0  0  0
 11 32  1  0  0  0  0
 12 33  1  0  0  0  0
 12 34  1  0  0  0  0
 12 35  1  0  0  0  0
 13 15  1  0  0  0  0
 13 17  1  0  0  0  0
 13 36  1  1  0  0  0
 14 16  1  0  0  0  0
 14 37  1  0  0  0  0
 15 18  1  0  0  0  0
 15 38  1  6  0  0  0
 16 18  2  0  0  0  0
 16 20  1  0  0  0  0
 17 19  1  0  0  0  0
 17 21  2  0  0  0  0
 18 39  1  0  0  0  0
 20 41  1  0  0  0  0
 20 42  1  0  0  0  0
 20 43  1  0  0  0  0
 21 44  1  0  0  0  0
 21 45  1  0  0  0  0
 22 23  1  0  0  0  0
 23 24  1  0  0  0  0
 23 25  2  0  0  0  0
 24 46  1  0  0  0  0
 24 47  1  0  0  0  0
 24 48  1  0  0  0  0
 25 26  1  0  0  0  0
 25 49  1  0  0  0  0
 26 50  1  0  0  0  0
 26 51  1  0  0  0  0
 26 52  1  0  0  0  0
M  END
> <PUBCHEM_COMPOUND_CID>
9998730

> <PUBCHEM_COMPOUND_CANONICALIZED>
1

> <PUBCHEM_CACTVS_COMPLEXITY>
705

> <PUBCHEM_CACTVS_HBOND_ACCEPTOR>
6

> <PUBCHEM_CACTVS_HBOND_DONOR>
1

> <PUBCHEM_CACTVS_ROTATABLE_BOND>
3

> <PUBCHEM_CACTVS_SUBSKEYS>
AAADceB4OAAAAAAAAAAAAAAAEgAAASAAAAAAAAAAAAAAAACAAAAAGgAACAAADVSggAICCAAABgCIAiDSCAAAAAAgAAAACAEAAEgAFBIAIQACUAAFwAAIMYPK6PyOAAAAAAAAAAAAAAAAAAAAAAAAAAAAAA==

> <PUBCHEM_IUPAC_INCHI>
InChI=1S/C20H26O6/c1-6-10(2)18(22)25-15-9-20(5)16(26-20)8-13(21)11(3)7-14-17(15)12(4)19(23)24-14/h6-7,13-17,21H,4,8-9H2,1-3,5H3/b10-6-,11-7-/t13-,14+,15+,16+,17-,20+/m0/s1

> <PUBCHEM_IUPAC_INCHIKEY>
DZTWAOVNNLDWNH-AUWKULLQSA-N

> <PUBCHEM_XLOGP3_AA>
1.9

> <PUBCHEM_EXACT_MASS>
362.172939

> <PUBCHEM_MOLECULAR_FORMULA>
C20H26O6

> <PUBCHEM_MOLECULAR_WEIGHT>
362.41684

> <PUBCHEM_OPENEYE_CAN_SMILES>
CC=C(C)C(=O)OC1CC2(C(O2)CC(C(=CC3C1C(=C)C(=O)O3)C)O)C

> <PUBCHEM_OPENEYE_ISO_SMILES>
C/C=C(/C)\C(=O)O[C@@H]1C[C@@]2([C@H](O2)C[C@@H](/C(=C\[C@@H]3[C@@H]1C(=C)C(=O)O3)/C)O)C

> <PUBCHEM_CACTVS_TPSA>
85.4

> <PUBCHEM_MONOISOTOPIC_WEIGHT>
362.172939

> <PUBCHEM_TOTAL_CHARGE>
0

> <PUBCHEM_HEAVY_ATOM_COUNT>
26

> <PUBCHEM_ATOM_DEF_STEREO_COUNT>
6

> <PUBCHEM_ATOM_UDEF_STEREO_COUNT>
0

> <PUBCHEM_BOND_DEF_STEREO_COUNT>
2

> <PUBCHEM_BOND_UDEF_STEREO_COUNT>
0

> <PUBCHEM_ISOTOPIC_ATOM_COUNT>
0

> <PUBCHEM_COMPONENT_COUNT>
1

> <PUBCHEM_CACTVS_TAUTO_COUNT>
1

> <PUBCHEM_COORDINATE_TYPE>
1
5
255

> <PUBCHEM_BONDANNOTATIONS>
13  36  5
15  38  6
11  2  6
14  4  6
7  12  6
8  27  5

$$$$

