124075
  -OEChem-07051213002D

 28 30  0     0  0  0  0  0  0999 V2000
    2.5836   -0.4799    0.0000 O   0  0  0  0  0  0  0  0  0  0  0  0
    2.5836   -2.0894    0.0000 O   0  0  0  0  0  0  0  0  0  0  0  0
    7.0321   -0.7878    0.0000 O   0  0  0  0  0  0  0  0  0  0  0  0
    5.2740    2.2846    0.0000 O   0  0  0  0  0  0  0  0  0  0  0  0
    4.3798    0.7569    0.0000 N   0  0  0  0  0  0  0  0  0  0  0  0
    4.3958   -0.2846    0.0000 C   0  0  0  0  0  0  0  0  0  0  0  0
    5.2619   -0.7846    0.0000 C   0  0  0  0  0  0  0  0  0  0  0  0
    3.5298   -0.7846    0.0000 C   0  0  0  0  0  0  0  0  0  0  0  0
    3.5298   -1.7846    0.0000 C   0  0  0  0  0  0  0  0  0  0  0  0
    6.1719   -0.2778    0.0000 C   0  0  0  0  0  0  0  0  0  0  0  0
    5.2619   -1.7846    0.0000 C   0  0  0  0  0  0  0  0  0  0  0  0
    4.3958   -2.2846    0.0000 C   0  0  0  0  0  0  0  0  0  0  0  0
    5.2778    1.2846    0.0000 C   0  0  0  0  0  0  0  0  0  0  0  0
    6.1799    0.7638    0.0000 C   0  0  0  0  0  0  0  0  0  0  0  0
    2.0000   -1.2846    0.0000 C   0  0  0  0  0  0  0  0  0  0  0  0
    3.5080    1.2468    0.0000 C   0  0  0  0  0  0  0  0  0  0  0  0
    7.9038   -0.2978    0.0000 C   0  0  0  0  0  0  0  0  0  0  0  0
    5.7988   -2.0946    0.0000 H   0  0  0  0  0  0  0  0  0  0  0  0
    4.3958   -2.9046    0.0000 H   0  0  0  0  0  0  0  0  0  0  0  0
    6.7180    1.0718    0.0000 H   0  0  0  0  0  0  0  0  0  0  0  0
    1.5391   -0.8699    0.0000 H   0  0  0  0  0  0  0  0  0  0  0  0
    1.5391   -1.6994    0.0000 H   0  0  0  0  0  0  0  0  0  0  0  0
    3.8118    1.7873    0.0000 H   0  0  0  0  0  0  0  0  0  0  0  0
    2.9676    1.5506    0.0000 H   0  0  0  0  0  0  0  0  0  0  0  0
    3.2043    0.7063    0.0000 H   0  0  0  0  0  0  0  0  0  0  0  0
    8.2076   -0.8383    0.0000 H   0  0  0  0  0  0  0  0  0  0  0  0
    8.4443    0.0060    0.0000 H   0  0  0  0  0  0  0  0  0  0  0  0
    7.6000    0.2427    0.0000 H   0  0  0  0  0  0  0  0  0  0  0  0
  1  8  1  0  0  0  0
  1 15  1  0  0  0  0
  2  9  1  0  0  0  0
  2 15  1  0  0  0  0
  3 10  1  0  0  0  0
  3 17  1  0  0  0  0
  4 13  2  0  0  0  0
  5  6  1  0  0  0  0
  5 13  1  0  0  0  0
  5 16  1  0  0  0  0
  6  7  2  0  0  0  0
  6  8  1  0  0  0  0
  7 10  1  0  0  0  0
  7 11  1  0  0  0  0
  8  9  2  0  0  0  0
  9 12  1  0  0  0  0
 10 14  2  0  0  0  0
 11 12  2  0  0  0  0
 11 18  1  0  0  0  0
 12 19  1  0  0  0  0
 13 14  1  0  0  0  0
 14 20  1  0  0  0  0
 15 21  1  0  0  0  0
 15 22  1  0  0  0  0
 16 23  1  0  0  0  0
 16 24  1  0  0  0  0
 16 25  1  0  0  0  0
 17 26  1  0  0  0  0
 17 27  1  0  0  0  0
 17 28  1  0  0  0  0
M  END
> <PUBCHEM_COMPOUND_CID>
124075

> <PUBCHEM_COMPOUND_CANONICALIZED>
1

> <PUBCHEM_CACTVS_COMPLEXITY>
368

> <PUBCHEM_CACTVS_HBOND_ACCEPTOR>
4

> <PUBCHEM_CACTVS_HBOND_DONOR>
0

> <PUBCHEM_CACTVS_ROTATABLE_BOND>
1

> <PUBCHEM_CACTVS_SUBSKEYS>
AAADccByOAAAAAAAAAAAAAAAAAAAASAAAAAwQAAAAAAAAEiBAAAAHgAAAAAADAyBmAcyzoMABACIAiVSUACCCAAhIAAIiAAPzMgfJiLEsJulMCpmxhne6QfQ8D8OIAABAgACUABAAAIEAASgAAAAAAAAAA==

> <PUBCHEM_IUPAC_OPENEYE_NAME>
6-methoxy-9-methyl-[1,3]dioxolo[4,5-h]quinolin-8-one

> <PUBCHEM_IUPAC_CAS_NAME>
6-methoxy-9-methyl-[1,3]dioxolo[4,5-h]quinolin-8-one

> <PUBCHEM_IUPAC_NAME>
6-methoxy-9-methyl-[1,3]dioxolo[4,5-h]quinolin-8-one

> <PUBCHEM_IUPAC_SYSTEMATIC_NAME>
6-methoxy-9-methyl-[1,3]dioxolo[4,5-h]quinolin-8-one

> <PUBCHEM_IUPAC_TRADITIONAL_NAME>
6-methoxy-9-methyl-[1,3]dioxolo[4,5-h]quinolin-8-one

> <PUBCHEM_IUPAC_INCHI>
InChI=1S/C12H11NO4/c1-13-10(14)5-9(15-2)7-3-4-8-12(11(7)13)17-6-16-8/h3-5H,6H2,1-2H3

> <PUBCHEM_IUPAC_INCHIKEY>
DPXXJCMMMXZVSW-UHFFFAOYSA-N

> <PUBCHEM_XLOGP3_AA>
1

> <PUBCHEM_EXACT_MASS>
233.068808

> <PUBCHEM_MOLECULAR_FORMULA>
C12H11NO4

> <PUBCHEM_MOLECULAR_WEIGHT>
233.22004

> <PUBCHEM_OPENEYE_CAN_SMILES>
CN1C(=O)C=C(C2=C1C3=C(C=C2)OCO3)OC

> <PUBCHEM_OPENEYE_ISO_SMILES>
CN1C(=O)C=C(C2=C1C3=C(C=C2)OCO3)OC

> <PUBCHEM_CACTVS_TPSA>
48

> <PUBCHEM_MONOISOTOPIC_WEIGHT>
233.068808

> <PUBCHEM_TOTAL_CHARGE>
0

> <PUBCHEM_HEAVY_ATOM_COUNT>
17

> <PUBCHEM_ATOM_DEF_STEREO_COUNT>
0

> <PUBCHEM_ATOM_UDEF_STEREO_COUNT>
0

> <PUBCHEM_BOND_DEF_STEREO_COUNT>
0

> <PUBCHEM_BOND_UDEF_STEREO_COUNT>
0

> <PUBCHEM_ISOTOPIC_ATOM_COUNT>
0

> <PUBCHEM_COMPONENT_COUNT>
1

> <PUBCHEM_CACTVS_TAUTO_COUNT>
1

> <PUBCHEM_COORDINATE_TYPE>
1
5
255

> <PUBCHEM_BONDANNOTATIONS>
10  14  8
11  12  8
13  14  8
5  13  8
5  6  8
6  7  8
6  8  8
7  10  8
7  11  8
8  9  8
9  12  8

$$$$

