   Color/Form

     * Colorless to pale yellow crystals
     * CRYSTALS FROM CHLOROFORM & PENTANE
     * Yellow crystals with blue fluorescence.

   from [1]HSDB

   Melting Point
        286-289 deg C
   from [2]HSDB

   Spectral Properties

     * Max absorption (ethanol): 265, 363 nm (e= 11,700, 23,400); specific
       optical rotation (0.1 in chloroform): -492 deg
     * MAX ABSORPTION: 220, 265, 363 NM (E= 20,500, 12,700, 24,000)
     * MASS: 26113 (NIST/EPA/MSDC Mass Spectral Database, 1990 version);
       39 (National Bureau of Standards)
     * UV absorption max of 222, 265, 363 nm
     * MASS: 26113 (NIST/EPA/MSDC Mass Spectral Database, 1990 version);
       39 (National Bureau of Standards EPA-NIH Mass Spectra Data Base)

   from [3]HSDB

   Computed Properties
   Molecular Weight                  314.28946 [g/mol]
   Molecular Formula                 C[17]H[14]O[6]
   XLogP3-AA                         1.3
   H-Bond Donor                      0
   H-Bond Acceptor                   6
   Rotatable Bond Count              1
   Tautomer Count                    10
   Exact Mass                        314.079038
   MonoIsotopic Mass                 314.079038
   Topological Polar Surface Area    71.1
   Heavy Atom Count                  23
   Formal Charge                     0
   Complexity                        610
   Isotope Atom Count                0
   Defined Atom Stereocenter Count   2
   Undefined Atom Stereocenter Count 0
   Defined Bond Stereocenter Count   0
   Undefined Bond Stereocenter Count 0
   Covalently-Bonded Unit Count      1
   Feature 3D Acceptor Count         5
   Feature 3D Anion Count            1
   Feature 3D Ring Count             5
   Effective Rotor Count             2.2
   Conformer Sampling RMSD           0.6
   CID Conformer Count               [4]1

References

   1. http://toxnet.nlm.nih.gov/cgi-bin/sis/search/r?dbs+hsdb:@term+@rn+@rel+7220-81-7
   2. http://toxnet.nlm.nih.gov/cgi-bin/sis/search/r?dbs+hsdb:@term+@rn+@rel+7220-81-7
   3. http://toxnet.nlm.nih.gov/cgi-bin/sis/search/r?dbs+hsdb:@term+@rn+@rel+7220-81-7
   4. http://pubchem.ncbi.nlm.nih.gov/vw3d/vw3d.cgi?cid=2724360
