   Color/Form
        NEEDLES FROM PETROLEUM ETHER
   from [1]HSDB

   Melting Point
        83-84 DEG C
   from [2]HSDB

   pH
        ACID REACTION, TURNS CONGO RED PAPER BLUE
   from [3]HSDB

   Solubilities

     * MODERATELY SOLUBLE IN COLD WATER (2 G/100 ML); FREELY SOLUBLE IN
       HOT WATER, ALCOHOL, ETHER, BENZENE, CHLOROFORM; SLIGHTLY SOLUBLE IN
       HOT PETROLEUM ETHER; PRACTICALLY INSOLUBLE IN PENTANE-HEXANE
     * SOLUBLE IN ACETONE

   from [4]HSDB

   Spectral Properties

     * MAXIMUM ABSORPTION: ABOUT 220 NM
     * UV: 1-214 (Organic Electronic Spectral Data, Phillips et al, John
       Wiley & Sons, New York)

   from [5]HSDB

   Other Chemical/Physical Properties

     * MELTING POINT 58-64 DEG C /MONOHYDRATE/
     * PENICILLIC ACID CAN OCCUR AS KETO FORM OR LACTONE FORM
     * LARGE TRANSPARENT MONOCLINIC OR TRICLINIC, RHOMBIC CRYSTALS FROM
       WATER /MONOHYDRATE/

   from [6]HSDB

   Computed Properties
   Molecular Weight                  170.1626 [g/mol]
   Molecular Formula                 C[8]H[10]O[4]
   XLogP3-AA                         0.9
   H-Bond Donor                      1
   H-Bond Acceptor                   4
   Rotatable Bond Count              4
   Exact Mass                        170.057909
   MonoIsotopic Mass                 170.057909
   Topological Polar Surface Area    63.6
   Heavy Atom Count                  12
   Formal Charge                     0
   Complexity                        250
   Isotope Atom Count                0
   Defined Atom Stereocenter Count   0
   Undefined Atom Stereocenter Count 0
   Defined Bond Stereocenter Count   1
   Undefined Bond Stereocenter Count 0
   Covalently-Bonded Unit Count      1
   Feature 3D Acceptor Count         4
   Feature 3D Anion Count            1
   Effective Rotor Count             4
   Conformer Sampling RMSD           0.6
   CID Conformer Count               [7]30

References

   1. http://toxnet.nlm.nih.gov/cgi-bin/sis/search/r?dbs+hsdb:@term+@rn+@rel+90-65-3
   2. http://toxnet.nlm.nih.gov/cgi-bin/sis/search/r?dbs+hsdb:@term+@rn+@rel+90-65-3
   3. http://toxnet.nlm.nih.gov/cgi-bin/sis/search/r?dbs+hsdb:@term+@rn+@rel+90-65-3
   4. http://toxnet.nlm.nih.gov/cgi-bin/sis/search/r?dbs+hsdb:@term+@rn+@rel+90-65-3
   5. http://toxnet.nlm.nih.gov/cgi-bin/sis/search/r?dbs+hsdb:@term+@rn+@rel+90-65-3
   6. http://toxnet.nlm.nih.gov/cgi-bin/sis/search/r?dbs+hsdb:@term+@rn+@rel+90-65-3
   7. http://pubchem.ncbi.nlm.nih.gov/vw3d/vw3d.cgi?cid=5385314
