439264
  -OEChem-07051212442D

 23 23  0     1  0  0  0  0  0999 V2000
    5.0298    0.3552    0.0000 O   0  0  0  0  0  0  0  0  0  0  0  0
    2.4608    0.6642    0.0000 O   0  0  0  0  0  0  0  0  0  0  0  0
    3.6330    1.7520    0.0000 O   0  0  0  0  0  0  0  0  0  0  0  0
    3.1330   -1.4049    0.0000 O   0  0  0  0  0  0  0  0  0  0  0  0
    5.8031    1.6475    0.0000 O   0  0  0  0  0  0  0  0  0  0  0  0
    6.3031   -1.3003    0.0000 O   0  0  0  0  0  0  0  0  0  0  0  0
    4.9019   -2.3184    0.0000 O   0  0  0  0  0  0  0  0  0  0  0  0
    3.4118    0.3552    0.0000 C   0  0  2  0  0  0  0  0  0  0  0  0
    4.2208    0.9430    0.0000 C   0  0  3  0  0  0  0  0  0  0  0  0
    3.7208   -0.5958    0.0000 C   0  0  2  0  0  0  0  0  0  0  0  0
    4.7208   -0.5958    0.0000 C   0  0  1  0  0  0  0  0  0  0  0  0
    4.8086    1.7520    0.0000 C   0  0  0  0  0  0  0  0  0  0  0  0
    5.3086   -1.4049    0.0000 C   0  0  0  0  0  0  0  0  0  0  0  0
    3.3148    0.9676    0.0000 H   0  0  0  0  0  0  0  0  0  0  0  0
    4.0023   -1.1483    0.0000 H   0  0  0  0  0  0  0  0  0  0  0  0
    5.3332   -0.4989    0.0000 H   0  0  0  0  0  0  0  0  0  0  0  0
    4.9795    2.3480    0.0000 H   0  0  0  0  0  0  0  0  0  0  0  0
    4.2514    2.0238    0.0000 H   0  0  0  0  0  0  0  0  0  0  0  0
    2.0000    0.2494    0.0000 H   0  0  0  0  0  0  0  0  0  0  0  0
    3.8852    2.3184    0.0000 H   0  0  0  0  0  0  0  0  0  0  0  0
    2.5164   -1.3401    0.0000 H   0  0  0  0  0  0  0  0  0  0  0  0
    6.1676    2.1491    0.0000 H   0  0  0  0  0  0  0  0  0  0  0  0
    6.6676   -1.8019    0.0000 H   0  0  0  0  0  0  0  0  0  0  0  0
  1  9  1  0  0  0  0
  1 11  1  0  0  0  0
  8  2  1  6  0  0  0
  2 19  1  0  0  0  0
  3  9  1  0  0  0  0
  3 20  1  0  0  0  0
 10  4  1  6  0  0  0
  4 21  1  0  0  0  0
  5 12  1  0  0  0  0
  5 22  1  0  0  0  0
  6 13  1  0  0  0  0
  6 23  1  0  0  0  0
  7 13  2  0  0  0  0
  8  9  1  0  0  0  0
  8 10  1  0  0  0  0
  8 14  1  0  0  0  0
  9 12  1  0  0  0  0
 10 11  1  0  0  0  0
 10 15  1  0  0  0  0
 11 13  1  6  0  0  0
 11 16  1  0  0  0  0
 12 17  1  0  0  0  0
 12 18  1  0  0  0  0
M  END
> <PUBCHEM_COMPOUND_CID>
439264

> <PUBCHEM_COMPOUND_CANONICALIZED>
1

> <PUBCHEM_CACTVS_COMPLEXITY>
217

> <PUBCHEM_CACTVS_HBOND_ACCEPTOR>
7

> <PUBCHEM_CACTVS_HBOND_DONOR>
5

> <PUBCHEM_CACTVS_ROTATABLE_BOND>
2

> <PUBCHEM_CACTVS_SUBSKEYS>
AAADccBgOAAAAAAAAAAAAAAAAAAAASAAAAAAAAAAAAAAAAAAAAAAGgAACAAACBSggAIACAAABgAIAACQCAIAAAAAAAAAAAFAAAAREBYAAAQCQAAFIAAHAAHKbARAAAAAAAAAAAAAAAAAAAAAAAAAAAAAAA==

> <PUBCHEM_IUPAC_OPENEYE_NAME>
(2S,3R,4S)-3,4,5-trihydroxy-5-(hydroxymethyl)tetrahydrofuran-2-carboxylic acid

> <PUBCHEM_IUPAC_CAS_NAME>
(2S,3R,4S)-3,4,5-trihydroxy-5-(hydroxymethyl)-2-oxolanecarboxylic acid

> <PUBCHEM_IUPAC_NAME>
(2S,3R,4S)-3,4,5-trihydroxy-5-(hydroxymethyl)oxolane-2-carboxylic acid

> <PUBCHEM_IUPAC_SYSTEMATIC_NAME>
(2S,3R,4S)-5-(hydroxymethyl)-3,4,5-tris(oxidanyl)oxolane-2-carboxylic acid

> <PUBCHEM_IUPAC_TRADITIONAL_NAME>
(2S,3R,4S)-3,4,5-trihydroxy-5-methylol-tetrahydrofuran-2-carboxylic acid

> <PUBCHEM_IUPAC_INCHI>
InChI=1S/C6H10O7/c7-1-6(12)4(9)2(8)3(13-6)5(10)11/h2-4,7-9,12H,1H2,(H,10,11)/t2-,3-,4-,6?/m0/s1

> <PUBCHEM_IUPAC_INCHIKEY>
PTCIWUZVDIQTOW-QNZBUJBTSA-N

> <PUBCHEM_XLOGP3_AA>
-2

> <PUBCHEM_EXACT_MASS>
194.042653

> <PUBCHEM_MOLECULAR_FORMULA>
C6H10O7

> <PUBCHEM_MOLECULAR_WEIGHT>
194.1394

> <PUBCHEM_OPENEYE_CAN_SMILES>
C(C1(C(C(C(O1)C(=O)O)O)O)O)O

> <PUBCHEM_OPENEYE_ISO_SMILES>
C(C1([C@H]([C@H]([C@H](O1)C(=O)O)O)O)O)O

> <PUBCHEM_CACTVS_TPSA>
127

> <PUBCHEM_MONOISOTOPIC_WEIGHT>
194.042653

> <PUBCHEM_TOTAL_CHARGE>
0

> <PUBCHEM_HEAVY_ATOM_COUNT>
13

> <PUBCHEM_ATOM_DEF_STEREO_COUNT>
3

> <PUBCHEM_ATOM_UDEF_STEREO_COUNT>
1

> <PUBCHEM_BOND_DEF_STEREO_COUNT>
0

> <PUBCHEM_BOND_UDEF_STEREO_COUNT>
0

> <PUBCHEM_ISOTOPIC_ATOM_COUNT>
0

> <PUBCHEM_COMPONENT_COUNT>
1

> <PUBCHEM_CACTVS_TAUTO_COUNT>
1

> <PUBCHEM_COORDINATE_TYPE>
1
5
255

> <PUBCHEM_BONDANNOTATIONS>
11  13  6
8  2  6
10  4  6
9  12  3

$$$$

