439816
  -OEChem-07051212472D

 61 62  0     1  0  0  0  0  0999 V2000
    6.3301   -3.2500    0.0000 O   0  0  0  0  0  0  0  0  0  0  0  0
    5.4641    0.2500    0.0000 O   0  0  0  0  0  0  0  0  0  0  0  0
    4.5981   -4.2500    0.0000 O   0  0  0  0  0  0  0  0  0  0  0  0
    3.7320   -2.7500    0.0000 O   0  0  0  0  0  0  0  0  0  0  0  0
    3.7320    3.2500    0.0000 O   0  0  0  0  0  0  0  0  0  0  0  0
    7.1962   -4.7500    0.0000 O   0  0  0  0  0  0  0  0  0  0  0  0
    4.5981   -1.2500    0.0000 N   0  0  0  0  0  0  0  0  0  0  0  0
    2.8660    1.7500    0.0000 N   0  0  0  0  0  0  0  0  0  0  0  0
    8.0622   -3.2500    0.0000 N   0  0  0  0  0  0  0  0  0  0  0  0
    5.4641    3.2500    0.0000 N   0  0  0  0  0  0  0  0  0  0  0  0
    8.9282   -4.7500    0.0000 N   0  0  0  0  0  0  0  0  0  0  0  0
    6.3301    4.7500    0.0000 N   0  0  0  0  0  0  0  0  0  0  0  0
    4.5981    4.7500    0.0000 N   0  0  0  0  0  0  0  0  0  0  0  0
   10.6603   -4.7500    0.0000 N   0  0  0  0  0  0  0  0  0  0  0  0
    5.4641   -1.7500    0.0000 C   0  0  2  0  0  0  0  0  0  0  0  0
    3.7320    1.2500    0.0000 C   0  0  3  0  0  0  0  0  0  0  0  0
    5.4641   -2.7500    0.0000 C   0  0  1  0  0  0  0  0  0  0  0  0
    3.7320    0.2500    0.0000 C   0  0  0  0  0  0  0  0  0  0  0  0
    4.5981    1.7500    0.0000 C   0  0  0  0  0  0  0  0  0  0  0  0
    7.1962   -2.7500    0.0000 C   0  0  1  0  0  0  0  0  0  0  0  0
    6.3301   -1.2500    0.0000 C   0  0  0  0  0  0  0  0  0  0  0  0
    4.5981   -0.2500    0.0000 C   0  0  0  0  0  0  0  0  0  0  0  0
    4.5981    2.7500    0.0000 C   0  0  0  0  0  0  0  0  0  0  0  0
    7.1962   -1.7500    0.0000 C   0  0  0  0  0  0  0  0  0  0  0  0
    4.5981   -3.2500    0.0000 C   0  0  0  0  0  0  0  0  0  0  0  0
    2.8660    2.7500    0.0000 C   0  0  0  0  0  0  0  0  0  0  0  0
    8.9282   -2.7500    0.0000 C   0  0  0  0  0  0  0  0  0  0  0  0
    8.0622   -4.2500    0.0000 C   0  0  0  0  0  0  0  0  0  0  0  0
    6.3301    2.7500    0.0000 C   0  0  0  0  0  0  0  0  0  0  0  0
    5.4641    4.2500    0.0000 C   0  0  0  0  0  0  0  0  0  0  0  0
    9.7942   -3.2500    0.0000 C   0  0  0  0  0  0  0  0  0  0  0  0
    2.0000    3.2500    0.0000 C   0  0  0  0  0  0  0  0  0  0  0  0
    9.7942   -4.2500    0.0000 C   0  0  0  0  0  0  0  0  0  0  0  0
    5.4641   -1.1300    0.0000 H   0  0  0  0  0  0  0  0  0  0  0  0
    3.7320    2.1000    0.0000 H   0  0  0  0  0  0  0  0  0  0  0  0
    5.4641   -3.3700    0.0000 H   0  0  0  0  0  0  0  0  0  0  0  0
    3.1215    0.3577    0.0000 H   0  0  0  0  0  0  0  0  0  0  0  0
    3.5200   -0.3326    0.0000 H   0  0  0  0  0  0  0  0  0  0  0  0
    4.8101    1.1674    0.0000 H   0  0  0  0  0  0  0  0  0  0  0  0
    5.2087    1.8577    0.0000 H   0  0  0  0  0  0  0  0  0  0  0  0
    7.7331   -2.4400    0.0000 H   0  0  0  0  0  0  0  0  0  0  0  0
    4.0611   -1.5600    0.0000 H   0  0  0  0  0  0  0  0  0  0  0  0
    6.3301   -0.6300    0.0000 H   0  0  0  0  0  0  0  0  0  0  0  0
    4.3860    3.3326    0.0000 H   0  0  0  0  0  0  0  0  0  0  0  0
    3.9875    2.6423    0.0000 H   0  0  0  0  0  0  0  0  0  0  0  0
    7.7331   -1.4400    0.0000 H   0  0  0  0  0  0  0  0  0  0  0  0
    2.3291    1.4400    0.0000 H   0  0  0  0  0  0  0  0  0  0  0  0
    8.9282   -2.1300    0.0000 H   0  0  0  0  0  0  0  0  0  0  0  0
    6.0201    2.2131    0.0000 H   0  0  0  0  0  0  0  0  0  0  0  0
    6.8671    2.4400    0.0000 H   0  0  0  0  0  0  0  0  0  0  0  0
    6.6401    3.2869    0.0000 H   0  0  0  0  0  0  0  0  0  0  0  0
   10.3312   -2.9400    0.0000 H   0  0  0  0  0  0  0  0  0  0  0  0
    2.3100    3.7869    0.0000 H   0  0  0  0  0  0  0  0  0  0  0  0
    1.4631    3.5600    0.0000 H   0  0  0  0  0  0  0  0  0  0  0  0
    1.6900    2.7131    0.0000 H   0  0  0  0  0  0  0  0  0  0  0  0
    4.0611   -4.5600    0.0000 H   0  0  0  0  0  0  0  0  0  0  0  0
    6.3301    5.3700    0.0000 H   0  0  0  0  0  0  0  0  0  0  0  0
    6.8671    4.4400    0.0000 H   0  0  0  0  0  0  0  0  0  0  0  0
    4.5981    5.3700    0.0000 H   0  0  0  0  0  0  0  0  0  0  0  0
   11.1972   -4.4400    0.0000 H   0  0  0  0  0  0  0  0  0  0  0  0
   10.6603   -5.3700    0.0000 H   0  0  0  0  0  0  0  0  0  0  0  0
  1 17  1  0  0  0  0
  1 20  1  0  0  0  0
  2 22  2  0  0  0  0
  3 25  1  0  0  0  0
  3 56  1  0  0  0  0
  4 25  2  0  0  0  0
  5 26  2  0  0  0  0
  6 28  2  0  0  0  0
 15  7  1  1  0  0  0
  7 22  1  0  0  0  0
  7 42  1  0  0  0  0
  8 16  1  0  0  0  0
  8 26  1  0  0  0  0
  8 47  1  0  0  0  0
 20  9  1  6  0  0  0
  9 27  1  0  0  0  0
  9 28  1  0  0  0  0
 10 23  1  0  0  0  0
 10 29  1  0  0  0  0
 10 30  1  0  0  0  0
 11 28  1  0  0  0  0
 11 33  2  0  0  0  0
 12 30  1  0  0  0  0
 12 57  1  0  0  0  0
 12 58  1  0  0  0  0
 13 30  2  0  0  0  0
 13 59  1  0  0  0  0
 14 33  1  0  0  0  0
 14 60  1  0  0  0  0
 14 61  1  0  0  0  0
 15 17  1  0  0  0  0
 15 21  1  0  0  0  0
 15 34  1  0  0  0  0
 16 18  1  0  0  0  0
 16 19  1  0  0  0  0
 16 35  1  0  0  0  0
 17 25  1  6  0  0  0
 17 36  1  0  0  0  0
 18 22  1  0  0  0  0
 18 37  1  0  0  0  0
 18 38  1  0  0  0  0
 19 23  1  0  0  0  0
 19 39  1  0  0  0  0
 19 40  1  0  0  0  0
 20 24  1  0  0  0  0
 20 41  1  0  0  0  0
 21 24  2  0  0  0  0
 21 43  1  0  0  0  0
 23 44  1  0  0  0  0
 23 45  1  0  0  0  0
 24 46  1  0  0  0  0
 26 32  1  0  0  0  0
 27 31  2  0  0  0  0
 27 48  1  0  0  0  0
 29 49  1  0  0  0  0
 29 50  1  0  0  0  0
 29 51  1  0  0  0  0
 31 33  1  0  0  0  0
 31 52  1  0  0  0  0
 32 53  1  0  0  0  0
 32 54  1  0  0  0  0
 32 55  1  0  0  0  0
M  END
> <PUBCHEM_COMPOUND_CID>
439816

> <PUBCHEM_COMPOUND_CANONICALIZED>
1

> <PUBCHEM_CACTVS_COMPLEXITY>
901

> <PUBCHEM_CACTVS_HBOND_ACCEPTOR>
7

> <PUBCHEM_CACTVS_HBOND_DONOR>
6

> <PUBCHEM_CACTVS_ROTATABLE_BOND>
10

> <PUBCHEM_CACTVS_SUBSKEYS>
AAADceB7+AAAAAAAAAAAAAAAAAAAAAAAAAAgQAAAAAAAAAAAAAAAHgAQCAAACDzhgAYDCAPABgCoACP2fAKAAAGgAgAJCIFYABiDBBoA6QQPUAAG1gKbIAIYAQAAAAAAAAAAAAAAAAAAAAAAAAAAAAAAAA==

> <PUBCHEM_IUPAC_OPENEYE_NAME>
(2S,3S,6R)-3-[[3-acetamido-5-[carbamimidoyl(methyl)amino]pentanoyl]amino]-6-(4-amino-2-oxo-pyrimidin-1-yl)-3,6-dihydro-2H-pyran-2-carboxylic acid

> <PUBCHEM_IUPAC_CAS_NAME>
(2S,3S,6R)-3-[[3-acetamido-5-[carbamimidoyl(methyl)amino]-1-oxopentyl]amino]-6-(4-amino-2-oxo-1-pyrimidinyl)-3,6-dihydro-2H-pyran-2-carboxylic acid

> <PUBCHEM_IUPAC_NAME>
(2S,3S,6R)-3-[[3-acetamido-5-[carbamimidoyl(methyl)amino]pentanoyl]amino]-6-(4-amino-2-oxopyrimidin-1-yl)-3,6-dihydro-2H-pyran-2-carboxylic acid

> <PUBCHEM_IUPAC_SYSTEMATIC_NAME>
(2S,3S,6R)-3-[[3-acetamido-5-[carbamimidoyl(methyl)amino]pentanoyl]amino]-6-(4-azanyl-2-oxidanylidene-pyrimidin-1-yl)-3,6-dihydro-2H-pyran-2-carboxylic acid

> <PUBCHEM_IUPAC_TRADITIONAL_NAME>
(2S,3S,6R)-3-[[3-acetamido-5-[amidino(methyl)amino]pentanoyl]amino]-6-(4-amino-2-keto-pyrimidin-1-yl)-3,6-dihydro-2H-pyran-2-carboxylic acid

> <PUBCHEM_IUPAC_INCHI>
InChI=1S/C19H28N8O6/c1-10(28)23-11(5-7-26(2)18(21)22)9-14(29)24-12-3-4-15(33-16(12)17(30)31)27-8-6-13(20)25-19(27)32/h3-4,6,8,11-12,15-16H,5,7,9H2,1-2H3,(H3,21,22)(H,23,28)(H,24,29)(H,30,31)(H2,20,25,32)/t11?,12-,15+,16-/m0/s1

> <PUBCHEM_IUPAC_INCHIKEY>
KKMQGSAQSNGBOY-GVLGWVKGSA-N

> <PUBCHEM_XLOGP3_AA>
-2.7

> <PUBCHEM_EXACT_MASS>
464.213181

> <PUBCHEM_MOLECULAR_FORMULA>
C19H28N8O6

> <PUBCHEM_MOLECULAR_WEIGHT>
464.47562

> <PUBCHEM_OPENEYE_CAN_SMILES>
CC(=O)NC(CCN(C)C(=N)N)CC(=O)NC1C=CC(OC1C(=O)O)N2C=CC(=NC2=O)N

> <PUBCHEM_OPENEYE_ISO_SMILES>
CC(=O)NC(CCN(C)C(=N)N)CC(=O)N[C@H]1C=C[C@@H](O[C@@H]1C(=O)O)N2C=CC(=NC2=O)N

> <PUBCHEM_CACTVS_TPSA>
217

> <PUBCHEM_MONOISOTOPIC_WEIGHT>
464.213181

> <PUBCHEM_TOTAL_CHARGE>
0

> <PUBCHEM_HEAVY_ATOM_COUNT>
33

> <PUBCHEM_ATOM_DEF_STEREO_COUNT>
3

> <PUBCHEM_ATOM_UDEF_STEREO_COUNT>
1

> <PUBCHEM_BOND_DEF_STEREO_COUNT>
0

> <PUBCHEM_BOND_UDEF_STEREO_COUNT>
0

> <PUBCHEM_ISOTOPIC_ATOM_COUNT>
0

> <PUBCHEM_COMPONENT_COUNT>
1

> <PUBCHEM_CACTVS_TAUTO_COUNT>
12

> <PUBCHEM_COORDINATE_TYPE>
1
5
255

> <PUBCHEM_BONDANNOTATIONS>
11  28  8
11  33  8
16  35  3
17  25  6
27  31  8
31  33  8
15  7  5
20  9  6
9  27  8
9  28  8

$$$$

