160666
  -OEChem-07051212492D

 49 50  0     1  0  0  0  0  0999 V2000
    6.8909   -4.8014    0.0000 P   0  0  0  0  0  0  0  0  0  0  0  0
    5.0298   -2.3368    0.0000 O   0  0  0  0  0  0  0  0  0  0  0  0
    2.4608   -2.0278    0.0000 O   0  0  0  0  0  0  0  0  0  0  0  0
    3.1330   -4.0969    0.0000 O   0  0  0  0  0  0  0  0  0  0  0  0
    6.3031   -3.9923    0.0000 O   0  0  0  0  0  0  0  0  0  0  0  0
    7.4787   -5.6104    0.0000 O   0  0  0  0  0  0  0  0  0  0  0  0
    7.6999   -4.2136    0.0000 O   0  0  0  0  0  0  0  0  0  0  0  0
    6.3031    1.4943    0.0000 O   0  0  0  0  0  0  0  0  0  0  0  0
    6.0819   -5.3891    0.0000 O   0  0  0  0  0  0  0  0  0  0  0  0
    5.6707    5.0440    0.0000 O   0  0  0  0  0  0  0  0  0  0  0  0
    4.0884    4.3395    0.0000 O   0  0  0  0  0  0  0  0  0  0  0  0
    8.0665    3.9214    0.0000 O   0  0  0  0  0  0  0  0  0  0  0  0
    6.6652    4.9394    0.0000 O   0  0  0  0  0  0  0  0  0  0  0  0
    4.2208   -0.7490    0.0000 N   0  0  0  0  0  0  0  0  0  0  0  0
    3.7208    0.7898    0.0000 N   0  0  0  0  0  0  0  0  0  0  0  0
    5.9809   -0.4702    0.0000 N   0  0  0  0  0  0  0  0  0  0  0  0
    4.9019    2.5124    0.0000 N   0  0  0  0  0  0  0  0  0  0  0  0
    3.4118   -2.3368    0.0000 C   0  0  2  0  0  0  0  0  0  0  0  0
    3.7208   -3.2878    0.0000 C   0  0  1  0  0  0  0  0  0  0  0  0
    4.2208   -1.7490    0.0000 C   0  0  1  0  0  0  0  0  0  0  0  0
    4.7208   -3.2878    0.0000 C   0  0  1  0  0  0  0  0  0  0  0  0
    5.3086   -4.0969    0.0000 C   0  0  0  0  0  0  0  0  0  0  0  0
    5.0298   -0.1612    0.0000 C   0  0  0  0  0  0  0  0  0  0  0  0
    3.4118   -0.1612    0.0000 C   0  0  0  0  0  0  0  0  0  0  0  0
    4.7208    0.7898    0.0000 C   0  0  0  0  0  0  0  0  0  0  0  0
    5.3086    1.5989    0.0000 C   0  0  0  0  0  0  0  0  0  0  0  0
    5.4897    3.3214    0.0000 C   0  0  1  0  0  0  0  0  0  0  0  0
    6.4842    3.2169    0.0000 C   0  0  0  0  0  0  0  0  0  0  0  0
    5.0829    4.2350    0.0000 C   0  0  0  0  0  0  0  0  0  0  0  0
    7.0720    4.0259    0.0000 C   0  0  0  0  0  0  0  0  0  0  0  0
    2.9734   -2.7752    0.0000 H   0  0  0  0  0  0  0  0  0  0  0  0
    4.0023   -3.8403    0.0000 H   0  0  0  0  0  0  0  0  0  0  0  0
    3.6684   -1.4675    0.0000 H   0  0  0  0  0  0  0  0  0  0  0  0
    5.3332   -3.1909    0.0000 H   0  0  0  0  0  0  0  0  0  0  0  0
    4.7514   -4.3687    0.0000 H   0  0  0  0  0  0  0  0  0  0  0  0
    5.4795   -4.6928    0.0000 H   0  0  0  0  0  0  0  0  0  0  0  0
    2.0000   -2.4426    0.0000 H   0  0  0  0  0  0  0  0  0  0  0  0
    3.3852   -4.6633    0.0000 H   0  0  0  0  0  0  0  0  0  0  0  0
    2.8222   -0.3528    0.0000 H   0  0  0  0  0  0  0  0  0  0  0  0
    6.4416   -0.0554    0.0000 H   0  0  0  0  0  0  0  0  0  0  0  0
    6.1098   -1.0767    0.0000 H   0  0  0  0  0  0  0  0  0  0  0  0
    4.2853    2.5772    0.0000 H   0  0  0  0  0  0  0  0  0  0  0  0
    5.7418    2.7550    0.0000 H   0  0  0  0  0  0  0  0  0  0  0  0
    6.3133    2.6209    0.0000 H   0  0  0  0  0  0  0  0  0  0  0  0
    7.0414    2.9451    0.0000 H   0  0  0  0  0  0  0  0  0  0  0  0
    8.0953   -5.5456    0.0000 H   0  0  0  0  0  0  0  0  0  0  0  0
    8.2663   -4.4658    0.0000 H   0  0  0  0  0  0  0  0  0  0  0  0
    5.4185    5.6104    0.0000 H   0  0  0  0  0  0  0  0  0  0  0  0
    8.4309    4.4230    0.0000 H   0  0  0  0  0  0  0  0  0  0  0  0
  1  5  1  0  0  0  0
  1  6  1  0  0  0  0
  1  7  1  0  0  0  0
  1  9  2  0  0  0  0
  2 20  1  0  0  0  0
  2 21  1  0  0  0  0
 18  3  1  1  0  0  0
  3 37  1  0  0  0  0
 19  4  1  1  0  0  0
  4 38  1  0  0  0  0
  5 22  1  0  0  0  0
  6 46  1  0  0  0  0
  7 47  1  0  0  0  0
  8 26  2  0  0  0  0
 10 29  1  0  0  0  0
 10 48  1  0  0  0  0
 11 29  2  0  0  0  0
 12 30  1  0  0  0  0
 12 49  1  0  0  0  0
 13 30  2  0  0  0  0
 20 14  1  6  0  0  0
 14 23  1  0  0  0  0
 14 24  1  0  0  0  0
 15 24  2  0  0  0  0
 15 25  1  0  0  0  0
 16 23  1  0  0  0  0
 16 40  1  0  0  0  0
 16 41  1  0  0  0  0
 17 26  1  0  0  0  0
 27 17  1  6  0  0  0
 17 42  1  0  0  0  0
 18 19  1  0  0  0  0
 18 20  1  0  0  0  0
 18 31  1  0  0  0  0
 19 21  1  0  0  0  0
 19 32  1  0  0  0  0
 20 33  1  0  0  0  0
 21 22  1  6  0  0  0
 21 34  1  0  0  0  0
 22 35  1  0  0  0  0
 22 36  1  0  0  0  0
 23 25  2  0  0  0  0
 24 39  1  0  0  0  0
 25 26  1  0  0  0  0
 27 28  1  0  0  0  0
 27 29  1  0  0  0  0
 27 43  1  0  0  0  0
 28 30  1  0  0  0  0
 28 44  1  0  0  0  0
 28 45  1  0  0  0  0
M  END
> <PUBCHEM_COMPOUND_CID>
160666

> <PUBCHEM_COMPOUND_CANONICALIZED>
1

> <PUBCHEM_CACTVS_COMPLEXITY>
718

> <PUBCHEM_CACTVS_HBOND_ACCEPTOR>
14

> <PUBCHEM_CACTVS_HBOND_DONOR>
8

> <PUBCHEM_CACTVS_ROTATABLE_BOND>
9

> <PUBCHEM_CACTVS_SUBSKEYS>
AAADceBzvAIAAAAAAAAAAAAAAAAAAWJAAAAAAAAAAAAAAAABgAAAHgAQCCAACDzhlgYFuBfMFxCoQQfxfICAgC0XEKABUIGoVECDWBpAyCAeQIgPFgLTAGDzMAIAAAAAAAAAAAAAAAAAAAAAAAAAAAAAAA==

> <PUBCHEM_IUPAC_OPENEYE_NAME>
(2S)-2-[[5-amino-1-[(2R,3R,4S,5R)-3,4-dihydroxy-5-(phosphonooxymethyl)tetrahydrofuran-2-yl]imidazole-4-carbonyl]amino]butanedioic acid

> <PUBCHEM_IUPAC_CAS_NAME>
(2S)-2-[[[5-amino-1-[(2R,3R,4S,5R)-3,4-dihydroxy-5-(phosphonooxymethyl)-2-oxolanyl]-4-imidazolyl]-oxomethyl]amino]butanedioic acid

> <PUBCHEM_IUPAC_NAME>
(2S)-2-[[5-amino-1-[(2R,3R,4S,5R)-3,4-dihydroxy-5-(phosphonooxymethyl)oxolan-2-yl]imidazole-4-carbonyl]amino]butanedioic acid

> <PUBCHEM_IUPAC_SYSTEMATIC_NAME>
(2S)-2-[[5-azanyl-1-[(2R,3R,4S,5R)-3,4-bis(oxidanyl)-5-(phosphonooxymethyl)oxolan-2-yl]imidazol-4-yl]carbonylamino]butanedioic acid

> <PUBCHEM_IUPAC_TRADITIONAL_NAME>
(2S)-2-[[5-amino-1-[(2R,3R,4S,5R)-3,4-dihydroxy-5-(phosphonooxymethyl)tetrahydrofuran-2-yl]imidazole-4-carbonyl]amino]succinic acid

> <PUBCHEM_IUPAC_INCHI>
InChI=1S/C13H19N4O12P/c14-10-7(11(22)16-4(13(23)24)1-6(18)19)15-3-17(10)12-9(21)8(20)5(29-12)2-28-30(25,26)27/h3-5,8-9,12,20-21H,1-2,14H2,(H,16,22)(H,18,19)(H,23,24)(H2,25,26,27)/t4-,5+,8+,9+,12+/m0/s1

> <PUBCHEM_IUPAC_INCHIKEY>
NAQGHJTUZRHGAC-ZZZDFHIKSA-N

> <PUBCHEM_XLOGP3_AA>
-4.3

> <PUBCHEM_EXACT_MASS>
454.073709

> <PUBCHEM_MOLECULAR_FORMULA>
C13H19N4O12P

> <PUBCHEM_MOLECULAR_WEIGHT>
454.283322

> <PUBCHEM_OPENEYE_CAN_SMILES>
C1=NC(=C(N1C2C(C(C(O2)COP(=O)(O)O)O)O)N)C(=O)NC(CC(=O)O)C(=O)O

> <PUBCHEM_OPENEYE_ISO_SMILES>
C1=NC(=C(N1[C@H]2[C@@H]([C@@H]([C@H](O2)COP(=O)(O)O)O)O)N)C(=O)N[C@@H](CC(=O)O)C(=O)O

> <PUBCHEM_CACTVS_TPSA>
264

> <PUBCHEM_MONOISOTOPIC_WEIGHT>
454.073709

> <PUBCHEM_TOTAL_CHARGE>
0

> <PUBCHEM_HEAVY_ATOM_COUNT>
30

> <PUBCHEM_ATOM_DEF_STEREO_COUNT>
5

> <PUBCHEM_ATOM_UDEF_STEREO_COUNT>
0

> <PUBCHEM_BOND_DEF_STEREO_COUNT>
0

> <PUBCHEM_BOND_UDEF_STEREO_COUNT>
0

> <PUBCHEM_ISOTOPIC_ATOM_COUNT>
0

> <PUBCHEM_COMPONENT_COUNT>
1

> <PUBCHEM_CACTVS_TAUTO_COUNT>
5

> <PUBCHEM_COORDINATE_TYPE>
1
5
255

> <PUBCHEM_BONDANNOTATIONS>
20  14  6
14  23  8
14  24  8
15  24  8
15  25  8
27  17  6
21  22  6
23  25  8
18  3  5
19  4  5

$$$$

