11953939
  -OEChem-07051212572D

 40 41  0     1  0  0  0  0  0999 V2000
    2.0949    0.9466    0.0000 O   0  0  0  0  0  0  0  0  0  0  0  0
    2.0000    2.7204    0.0000 O   0  0  0  0  0  0  0  0  0  0  0  0
    7.1620   -1.2204    0.0000 O   0  0  0  0  0  0  0  0  0  0  0  0
    6.2960    0.2796    0.0000 O   0  0  0  0  0  0  0  0  0  0  0  0
    3.6979    0.7796    0.0000 C   0  0  2  0  0  0  0  0  0  0  0  0
    2.8319    0.2796    0.0000 C   0  0  2  0  0  0  0  0  0  0  0  0
    2.8319   -0.7204    0.0000 C   0  0  0  0  0  0  0  0  0  0  0  0
    4.5640    0.2796    0.0000 C   0  0  0  0  0  0  0  0  0  0  0  0
    3.4887    1.7514    0.0000 C   0  0  0  0  0  0  0  0  0  0  0  0
    3.6979   -1.2204    0.0000 C   0  0  0  0  0  0  0  0  0  0  0  0
    2.5000    1.8544    0.0000 C   0  0  0  0  0  0  0  0  0  0  0  0
    4.5640   -0.7204    0.0000 C   0  0  0  0  0  0  0  0  0  0  0  0
    5.4300   -2.2204    0.0000 C   0  0  0  0  0  0  0  0  0  0  0  0
    4.5640   -2.7204    0.0000 C   0  0  0  0  0  0  0  0  0  0  0  0
    5.4300   -1.2204    0.0000 C   0  0  0  0  0  0  0  0  0  0  0  0
    3.6979   -2.2204    0.0000 C   0  0  0  0  0  0  0  0  0  0  0  0
    4.1566    2.4957    0.0000 C   0  0  0  0  0  0  0  0  0  0  0  0
    5.1544   -0.6903    0.0000 C   0  0  0  0  0  0  0  0  0  0  0  0
    6.2960   -0.7204    0.0000 C   0  0  0  0  0  0  0  0  0  0  0  0
    8.0280   -0.7204    0.0000 C   0  0  0  0  0  0  0  0  0  0  0  0
    4.3849    1.2801    0.0000 H   0  0  0  0  0  0  0  0  0  0  0  0
    2.0549   -0.0652    0.0000 H   0  0  0  0  0  0  0  0  0  0  0  0
    2.2213   -0.6128    0.0000 H   0  0  0  0  0  0  0  0  0  0  0  0
    2.6198   -1.3031    0.0000 H   0  0  0  0  0  0  0  0  0  0  0  0
    5.1745    0.1719    0.0000 H   0  0  0  0  0  0  0  0  0  0  0  0
    4.7760    0.8622    0.0000 H   0  0  0  0  0  0  0  0  0  0  0  0
    3.9534   -0.6126    0.0000 H   0  0  0  0  0  0  0  0  0  0  0  0
    5.6420   -2.8031    0.0000 H   0  0  0  0  0  0  0  0  0  0  0  0
    6.0406   -2.1128    0.0000 H   0  0  0  0  0  0  0  0  0  0  0  0
    4.1654   -3.1954    0.0000 H   0  0  0  0  0  0  0  0  0  0  0  0
    4.9625   -3.1954    0.0000 H   0  0  0  0  0  0  0  0  0  0  0  0
    3.1610   -2.5304    0.0000 H   0  0  0  0  0  0  0  0  0  0  0  0
    4.7632    2.3678    0.0000 H   0  0  0  0  0  0  0  0  0  0  0  0
    3.9640    3.0850    0.0000 H   0  0  0  0  0  0  0  0  0  0  0  0
    5.3665   -1.2729    0.0000 H   0  0  0  0  0  0  0  0  0  0  0  0
    5.7371   -0.4783    0.0000 H   0  0  0  0  0  0  0  0  0  0  0  0
    4.9424   -0.1077    0.0000 H   0  0  0  0  0  0  0  0  0  0  0  0
    8.3381   -1.2574    0.0000 H   0  0  0  0  0  0  0  0  0  0  0  0
    8.5650   -0.4104    0.0000 H   0  0  0  0  0  0  0  0  0  0  0  0
    7.7180   -0.1835    0.0000 H   0  0  0  0  0  0  0  0  0  0  0  0
  1  6  1  0  0  0  0
  1 11  1  0  0  0  0
  2 11  2  0  0  0  0
  3 19  1  0  0  0  0
  3 20  1  0  0  0  0
  4 19  2  0  0  0  0
  5  6  1  0  0  0  0
  5  8  1  0  0  0  0
  5  9  1  0  0  0  0
  5 21  1  6  0  0  0
  6  7  1  0  0  0  0
  6 22  1  1  0  0  0
  7 10  1  0  0  0  0
  7 23  1  0  0  0  0
  7 24  1  0  0  0  0
  8 12  1  0  0  0  0
  8 25  1  0  0  0  0
  8 26  1  0  0  0  0
  9 11  1  0  0  0  0
  9 17  2  0  0  0  0
 10 16  2  0  0  0  0
 10 18  1  0  0  0  0
 12 15  2  0  0  0  0
 12 27  1  0  0  0  0
 13 14  1  0  0  0  0
 13 15  1  0  0  0  0
 13 28  1  0  0  0  0
 13 29  1  0  0  0  0
 14 16  1  0  0  0  0
 14 30  1  0  0  0  0
 14 31  1  0  0  0  0
 15 19  1  0  0  0  0
 16 32  1  0  0  0  0
 17 33  1  0  0  0  0
 17 34  1  0  0  0  0
 18 35  1  0  0  0  0
 18 36  1  0  0  0  0
 18 37  1  0  0  0  0
 20 38  1  0  0  0  0
 20 39  1  0  0  0  0
 20 40  1  0  0  0  0
M  END
> <PUBCHEM_COMPOUND_CID>
11953939

> <PUBCHEM_COMPOUND_CANONICALIZED>
1

> <PUBCHEM_CACTVS_COMPLEXITY>
499

> <PUBCHEM_CACTVS_HBOND_ACCEPTOR>
4

> <PUBCHEM_CACTVS_HBOND_DONOR>
0

> <PUBCHEM_CACTVS_ROTATABLE_BOND>
2

> <PUBCHEM_CACTVS_SUBSKEYS>
AAADceB4OAAAAAAAAAAAAAAAAAAAASAAAAAAAAAAAAAAAACAAAAAGgAAAAAADRSggAICCAAABACIAiDSCAAAAAAgAAAACAEAAEgABBIAIQACEAAEwAAIIYOKyCCOAAAAAAAAAAAAAAAAAAAAAAAAAAAAAA==

> <PUBCHEM_IUPAC_OPENEYE_NAME>
methyl (3aR,5Z,9E,11aS)-10-methyl-3-methylene-2-oxo-3a,4,7,8,11,11a-hexahydrocyclodeca[b]furan-6-carboxylate

> <PUBCHEM_IUPAC_CAS_NAME>
(3aR,5Z,9E,11aS)-10-methyl-3-methylene-2-oxo-3a,4,7,8,11,11a-hexahydrocyclodeca[b]furan-6-carboxylic acid methyl ester

> <PUBCHEM_IUPAC_NAME>
methyl (3aR,5Z,9E,11aS)-10-methyl-3-methylidene-2-oxo-3a,4,7,8,11,11a-hexahydrocyclodeca[b]furan-6-carboxylate

> <PUBCHEM_IUPAC_SYSTEMATIC_NAME>
methyl (3aR,5Z,9E,11aS)-10-methyl-3-methylidene-2-oxidanylidene-3a,4,7,8,11,11a-hexahydrocyclodeca[b]furan-6-carboxylate

> <PUBCHEM_IUPAC_TRADITIONAL_NAME>
(3aR,5Z,9E,11aS)-2-keto-10-methyl-3-methylene-3a,4,7,8,11,11a-hexahydrocyclodeca[b]furan-6-carboxylic acid methyl ester

> <PUBCHEM_IUPAC_INCHI>
InChI=1S/C16H20O4/c1-10-5-4-6-12(16(18)19-3)7-8-13-11(2)15(17)20-14(13)9-10/h5,7,13-14H,2,4,6,8-9H2,1,3H3/b10-5+,12-7-/t13-,14+/m1/s1

> <PUBCHEM_IUPAC_INCHIKEY>
OXZSJXCNOUZXAQ-SOVPUBKQSA-N

> <PUBCHEM_XLOGP3_AA>
2.6

> <PUBCHEM_EXACT_MASS>
276.136159

> <PUBCHEM_MOLECULAR_FORMULA>
C16H20O4

> <PUBCHEM_MOLECULAR_WEIGHT>
276.3276

> <PUBCHEM_OPENEYE_CAN_SMILES>
CC1=CCCC(=CCC2C(C1)OC(=O)C2=C)C(=O)OC

> <PUBCHEM_OPENEYE_ISO_SMILES>
C/C/1=C\CC/C(=C/C[C@H]2[C@H](C1)OC(=O)C2=C)/C(=O)OC

> <PUBCHEM_CACTVS_TPSA>
52.6

> <PUBCHEM_MONOISOTOPIC_WEIGHT>
276.136159

> <PUBCHEM_TOTAL_CHARGE>
0

> <PUBCHEM_HEAVY_ATOM_COUNT>
20

> <PUBCHEM_ATOM_DEF_STEREO_COUNT>
2

> <PUBCHEM_ATOM_UDEF_STEREO_COUNT>
0

> <PUBCHEM_BOND_DEF_STEREO_COUNT>
2

> <PUBCHEM_BOND_UDEF_STEREO_COUNT>
0

> <PUBCHEM_ISOTOPIC_ATOM_COUNT>
0

> <PUBCHEM_COMPONENT_COUNT>
1

> <PUBCHEM_CACTVS_TAUTO_COUNT>
1

> <PUBCHEM_COORDINATE_TYPE>
1
5
255

> <PUBCHEM_BONDANNOTATIONS>
5  21  6
6  22  5

$$$$

