5315
  -OEChem-07051213022D

 36 37  0     0  0  0  0  0  0999 V2000
    4.5981    2.7088    0.0000 S   0  0  0  0  0  0  0  0  0  0  0  0
    5.5686    5.2033    0.0000 S   0  0  0  0  0  0  0  0  0  0  0  0
    5.5981    2.7088    0.0000 O   0  0  0  0  0  0  0  0  0  0  0  0
    3.5981    2.7088    0.0000 O   0  0  0  0  0  0  0  0  0  0  0  0
    2.8660   -1.2912    0.0000 O   0  0  0  0  0  0  0  0  0  0  0  0
    2.0000   -4.7912    0.0000 O   0  0  0  0  0  0  0  0  0  0  0  0
    3.7320   -4.7912    0.0000 O   0  0  0  0  0  0  0  0  0  0  0  0
    4.5981   -1.2912    0.0000 N   0  0  0  0  0  0  0  0  0  0  0  0
    4.5981    3.7088    0.0000 N   0  0  0  0  0  0  0  0  0  0  0  0
    6.3776    3.8020    0.0000 N   0  0  0  0  0  0  0  0  0  0  0  0
    4.5981    1.7088    0.0000 C   0  0  0  0  0  0  0  0  0  0  0  0
    4.5981   -0.2912    0.0000 C   0  0  0  0  0  0  0  0  0  0  0  0
    3.7320    1.2088    0.0000 C   0  0  0  0  0  0  0  0  0  0  0  0
    5.4641    1.2088    0.0000 C   0  0  0  0  0  0  0  0  0  0  0  0
    3.7320    0.2088    0.0000 C   0  0  0  0  0  0  0  0  0  0  0  0
    5.4641    0.2088    0.0000 C   0  0  0  0  0  0  0  0  0  0  0  0
    3.7320   -2.7912    0.0000 C   0  0  0  0  0  0  0  0  0  0  0  0
    3.7320   -1.7912    0.0000 C   0  0  0  0  0  0  0  0  0  0  0  0
    2.8660   -3.2912    0.0000 C   0  0  0  0  0  0  0  0  0  0  0  0
    5.4641    4.2088    0.0000 C   0  0  0  0  0  0  0  0  0  0  0  0
    2.8660   -4.2912    0.0000 C   0  0  0  0  0  0  0  0  0  0  0  0
    6.5468    5.4112    0.0000 C   0  0  0  0  0  0  0  0  0  0  0  0
    7.0468    4.5452    0.0000 C   0  0  0  0  0  0  0  0  0  0  0  0
    3.1951    1.5188    0.0000 H   0  0  0  0  0  0  0  0  0  0  0  0
    6.0010    1.5188    0.0000 H   0  0  0  0  0  0  0  0  0  0  0  0
    3.1951   -0.1012    0.0000 H   0  0  0  0  0  0  0  0  0  0  0  0
    6.0010   -0.1012    0.0000 H   0  0  0  0  0  0  0  0  0  0  0  0
    3.9441   -3.3738    0.0000 H   0  0  0  0  0  0  0  0  0  0  0  0
    4.3426   -2.6836    0.0000 H   0  0  0  0  0  0  0  0  0  0  0  0
    5.1350   -1.6012    0.0000 H   0  0  0  0  0  0  0  0  0  0  0  0
    4.0611    4.0188    0.0000 H   0  0  0  0  0  0  0  0  0  0  0  0
    2.6540   -2.7086    0.0000 H   0  0  0  0  0  0  0  0  0  0  0  0
    2.2554   -3.3989    0.0000 H   0  0  0  0  0  0  0  0  0  0  0  0
    6.7990    5.9776    0.0000 H   0  0  0  0  0  0  0  0  0  0  0  0
    7.6634    4.4804    0.0000 H   0  0  0  0  0  0  0  0  0  0  0  0
    2.0000   -5.4112    0.0000 H   0  0  0  0  0  0  0  0  0  0  0  0
  1  3  2  0  0  0  0
  1  4  2  0  0  0  0
  1  9  1  0  0  0  0
  1 11  1  0  0  0  0
  2 20  1  0  0  0  0
  2 22  1  0  0  0  0
  5 18  2  0  0  0  0
  6 21  1  0  0  0  0
  6 36  1  0  0  0  0
  7 21  2  0  0  0  0
  8 12  1  0  0  0  0
  8 18  1  0  0  0  0
  8 30  1  0  0  0  0
  9 20  1  0  0  0  0
  9 31  1  0  0  0  0
 10 20  2  0  0  0  0
 10 23  1  0  0  0  0
 11 13  2  0  0  0  0
 11 14  1  0  0  0  0
 12 15  2  0  0  0  0
 12 16  1  0  0  0  0
 13 15  1  0  0  0  0
 13 24  1  0  0  0  0
 14 16  2  0  0  0  0
 14 25  1  0  0  0  0
 15 26  1  0  0  0  0
 16 27  1  0  0  0  0
 17 18  1  0  0  0  0
 17 19  1  0  0  0  0
 17 28  1  0  0  0  0
 17 29  1  0  0  0  0
 19 21  1  0  0  0  0
 19 32  1  0  0  0  0
 19 33  1  0  0  0  0
 22 23  2  0  0  0  0
 22 34  1  0  0  0  0
 23 35  1  0  0  0  0
M  END
> <PUBCHEM_COMPOUND_CID>
5315

> <PUBCHEM_COMPOUND_CANONICALIZED>
1

> <PUBCHEM_CACTVS_COMPLEXITY>
526

> <PUBCHEM_CACTVS_HBOND_ACCEPTOR>
8

> <PUBCHEM_CACTVS_HBOND_DONOR>
3

> <PUBCHEM_CACTVS_ROTATABLE_BOND>
7

> <PUBCHEM_CACTVS_SUBSKEYS>
AAADccBzOABgAAAAAAAAAAAAAAAAAWAAAAAwAAAAAAAAAAABwAAAHgQQSAAACAjF0gS92ZLIEgqsADX3fHDC8LlxCjlIyB0YZIiIIDLAkZGEYAhklALIyCc3AAAAAAQAAAAAAAAACAAAAAAAAAAAAAAAAA==

> <PUBCHEM_IUPAC_OPENEYE_NAME>
4-oxo-4-[4-(thiazol-2-ylsulfamoyl)anilino]butanoic acid

> <PUBCHEM_IUPAC_CAS_NAME>
4-oxo-4-[4-(2-thiazolylsulfamoyl)anilino]butanoic acid

> <PUBCHEM_IUPAC_NAME>
4-oxo-4-[4-(1,3-thiazol-2-ylsulfamoyl)anilino]butanoic acid

> <PUBCHEM_IUPAC_SYSTEMATIC_NAME>
4-oxidanylidene-4-[[4-(1,3-thiazol-2-ylsulfamoyl)phenyl]amino]butanoic acid

> <PUBCHEM_IUPAC_TRADITIONAL_NAME>
4-keto-4-[4-(thiazol-2-ylsulfamoyl)anilino]butyric acid

> <PUBCHEM_IUPAC_INCHI>
InChI=1S/C13H13N3O5S2/c17-11(5-6-12(18)19)15-9-1-3-10(4-2-9)23(20,21)16-13-14-7-8-22-13/h1-4,7-8H,5-6H2,(H,14,16)(H,15,17)(H,18,19)

> <PUBCHEM_IUPAC_INCHIKEY>
SKVLYVHULOWXTD-UHFFFAOYSA-N

> <PUBCHEM_XLOGP3>
-0.7

> <PUBCHEM_EXACT_MASS>
355.029663

> <PUBCHEM_MOLECULAR_FORMULA>
C13H13N3O5S2

> <PUBCHEM_MOLECULAR_WEIGHT>
355.38942

> <PUBCHEM_OPENEYE_CAN_SMILES>
C1=CC(=CC=C1NC(=O)CCC(=O)O)S(=O)(=O)NC2=NC=CS2

> <PUBCHEM_OPENEYE_ISO_SMILES>
C1=CC(=CC=C1NC(=O)CCC(=O)O)S(=O)(=O)NC2=NC=CS2

> <PUBCHEM_CACTVS_TPSA>
162

> <PUBCHEM_MONOISOTOPIC_WEIGHT>
355.029663

> <PUBCHEM_TOTAL_CHARGE>
0

> <PUBCHEM_HEAVY_ATOM_COUNT>
23

> <PUBCHEM_ATOM_DEF_STEREO_COUNT>
0

> <PUBCHEM_ATOM_UDEF_STEREO_COUNT>
0

> <PUBCHEM_BOND_DEF_STEREO_COUNT>
0

> <PUBCHEM_BOND_UDEF_STEREO_COUNT>
0

> <PUBCHEM_ISOTOPIC_ATOM_COUNT>
0

> <PUBCHEM_COMPONENT_COUNT>
1

> <PUBCHEM_CACTVS_TAUTO_COUNT>
6

> <PUBCHEM_COORDINATE_TYPE>
1
5
255

> <PUBCHEM_BONDANNOTATIONS>
10  20  8
10  23  8
11  13  8
11  14  8
12  15  8
12  16  8
13  15  8
14  16  8
2  20  8
2  22  8
22  23  8

$$$$

