5280985
  -OEChem-07051212522D

 72 77  0     1  0  0  0  0  0999 V2000
    5.1343   -0.2517    0.0000 O   0  0  0  0  0  0  0  0  0  0  0  0
   16.6625    0.2517    0.0000 O   0  0  0  0  0  0  0  0  0  0  0  0
    7.8003    1.2275    0.0000 O   0  0  0  0  0  0  0  0  0  0  0  0
   13.9965   -1.2275    0.0000 O   0  0  0  0  0  0  0  0  0  0  0  0
    7.8003   -2.7725    0.0000 O   0  0  0  0  0  0  0  0  0  0  0  0
   13.9965    2.7725    0.0000 O   0  0  0  0  0  0  0  0  0  0  0  0
    9.5487    1.2621    0.0000 O   0  0  0  0  0  0  0  0  0  0  0  0
   12.2480   -1.2621    0.0000 O   0  0  0  0  0  0  0  0  0  0  0  0
    9.5487   -2.8071    0.0000 O   0  0  0  0  0  0  0  0  0  0  0  0
   12.2480    2.8071    0.0000 O   0  0  0  0  0  0  0  0  0  0  0  0
    2.5381   -1.8033    0.0000 O   0  0  0  0  0  0  0  0  0  0  0  0
   19.2586    1.8033    0.0000 O   0  0  0  0  0  0  0  0  0  0  0  0
    3.3984   -0.3000    0.0000 O   0  0  0  0  0  0  0  0  0  0  0  0
   18.3984    0.3000    0.0000 O   0  0  0  0  0  0  0  0  0  0  0  0
   16.6625    1.2933    0.0000 C   0  0  1  0  0  0  0  0  0  0  0  0
    5.1343   -1.2933    0.0000 C   0  0  1  0  0  0  0  0  0  0  0  0
    6.0403   -1.8071    0.0000 C   0  0  0  0  0  0  0  0  0  0  0  0
   15.7564    1.8071    0.0000 C   0  0  0  0  0  0  0  0  0  0  0  0
    6.9343   -1.2725    0.0000 C   0  0  0  0  0  0  0  0  0  0  0  0
   14.8625    1.2725    0.0000 C   0  0  0  0  0  0  0  0  0  0  0  0
    6.9343   -0.2725    0.0000 C   0  0  0  0  0  0  0  0  0  0  0  0
   14.8625    0.2725    0.0000 C   0  0  0  0  0  0  0  0  0  0  0  0
   15.7564   -0.2622    0.0000 C   0  0  1  0  0  0  0  0  0  0  0  0
    6.0403    0.2622    0.0000 C   0  0  1  0  0  0  0  0  0  0  0  0
    7.8003    0.2275    0.0000 C   0  0  0  0  0  0  0  0  0  0  0  0
   13.9965   -0.2275    0.0000 C   0  0  0  0  0  0  0  0  0  0  0  0
    7.8003   -1.7725    0.0000 C   0  0  0  0  0  0  0  0  0  0  0  0
   13.9965    1.7725    0.0000 C   0  0  0  0  0  0  0  0  0  0  0  0
   13.1304    0.2725    0.0000 C   0  0  0  0  0  0  0  0  0  0  0  0
    8.6663   -0.2725    0.0000 C   0  0  0  0  0  0  0  0  0  0  0  0
   13.1304    1.2725    0.0000 C   0  0  0  0  0  0  0  0  0  0  0  0
    8.6663   -1.2725    0.0000 C   0  0  0  0  0  0  0  0  0  0  0  0
   17.5266    1.7966    0.0000 C   0  0  0  0  0  0  0  0  0  0  0  0
    4.2702   -1.7966    0.0000 C   0  0  0  0  0  0  0  0  0  0  0  0
   15.7449   -1.2621    0.0000 C   0  0  0  0  0  0  0  0  0  0  0  0
    6.0519    1.2621    0.0000 C   0  0  0  0  0  0  0  0  0  0  0  0
   11.3304    0.2517    0.0000 C   0  0  0  0  0  0  0  0  0  0  0  0
   10.4663   -0.2517    0.0000 C   0  0  0  0  0  0  0  0  0  0  0  0
   12.2365   -0.2622    0.0000 C   0  0  0  0  0  0  0  0  0  0  0  0
    9.5603    0.2622    0.0000 C   0  0  0  0  0  0  0  0  0  0  0  0
    9.5603   -1.8071    0.0000 C   0  0  0  0  0  0  0  0  0  0  0  0
   12.2365    1.8071    0.0000 C   0  0  0  0  0  0  0  0  0  0  0  0
   11.3304    1.2933    0.0000 C   0  0  0  0  0  0  0  0  0  0  0  0
   10.4663   -1.2933    0.0000 C   0  0  0  0  0  0  0  0  0  0  0  0
    3.4022   -1.3000    0.0000 C   0  0  0  0  0  0  0  0  0  0  0  0
   18.3945    1.3000    0.0000 C   0  0  0  0  0  0  0  0  0  0  0  0
   17.2000    0.9843    0.0000 H   0  0  0  0  0  0  0  0  0  0  0  0
    4.5967   -0.9843    0.0000 H   0  0  0  0  0  0  0  0  0  0  0  0
    5.6467   -2.2862    0.0000 H   0  0  0  0  0  0  0  0  0  0  0  0
    6.4449   -2.2769    0.0000 H   0  0  0  0  0  0  0  0  0  0  0  0
   16.1500    2.2862    0.0000 H   0  0  0  0  0  0  0  0  0  0  0  0
   15.3518    2.2769    0.0000 H   0  0  0  0  0  0  0  0  0  0  0  0
   16.2903   -0.5773    0.0000 H   0  0  0  0  0  0  0  0  0  0  0  0
    5.5064    0.5773    0.0000 H   0  0  0  0  0  0  0  0  0  0  0  0
    3.8735   -2.2731    0.0000 H   0  0  0  0  0  0  0  0  0  0  0  0
    4.6705   -2.2700    0.0000 H   0  0  0  0  0  0  0  0  0  0  0  0
   17.9233    2.2731    0.0000 H   0  0  0  0  0  0  0  0  0  0  0  0
   17.1262    2.2700    0.0000 H   0  0  0  0  0  0  0  0  0  0  0  0
   15.1249   -1.2549    0.0000 H   0  0  0  0  0  0  0  0  0  0  0  0
   15.7377   -1.8821    0.0000 H   0  0  0  0  0  0  0  0  0  0  0  0
    6.6718    1.2549    0.0000 H   0  0  0  0  0  0  0  0  0  0  0  0
    6.0591    1.8821    0.0000 H   0  0  0  0  0  0  0  0  0  0  0  0
    5.4319    1.2693    0.0000 H   0  0  0  0  0  0  0  0  0  0  0  0
   16.3648   -1.2693    0.0000 H   0  0  0  0  0  0  0  0  0  0  0  0
   11.0021   -1.6054    0.0000 H   0  0  0  0  0  0  0  0  0  0  0  0
   10.7947    1.6054    0.0000 H   0  0  0  0  0  0  0  0  0  0  0  0
    7.2634    1.5375    0.0000 H   0  0  0  0  0  0  0  0  0  0  0  0
   14.5334   -1.5375    0.0000 H   0  0  0  0  0  0  0  0  0  0  0  0
    7.2634   -3.0825    0.0000 H   0  0  0  0  0  0  0  0  0  0  0  0
   14.5334    3.0825    0.0000 H   0  0  0  0  0  0  0  0  0  0  0  0
    2.0000   -1.4954    0.0000 H   0  0  0  0  0  0  0  0  0  0  0  0
   19.7967    1.4954    0.0000 H   0  0  0  0  0  0  0  0  0  0  0  0
  1 16  1  0  0  0  0
  1 24  1  0  0  0  0
  2 15  1  0  0  0  0
  2 23  1  0  0  0  0
  3 25  1  0  0  0  0
  3 67  1  0  0  0  0
  4 26  1  0  0  0  0
  4 68  1  0  0  0  0
  5 27  1  0  0  0  0
  5 69  1  0  0  0  0
  6 28  1  0  0  0  0
  6 70  1  0  0  0  0
  7 40  2  0  0  0  0
  8 39  2  0  0  0  0
  9 41  2  0  0  0  0
 10 42  2  0  0  0  0
 11 45  1  0  0  0  0
 11 71  1  0  0  0  0
 12 46  1  0  0  0  0
 12 72  1  0  0  0  0
 13 45  2  0  0  0  0
 14 46  2  0  0  0  0
 15 18  1  0  0  0  0
 15 33  1  1  0  0  0
 15 47  1  0  0  0  0
 16 17  1  0  0  0  0
 16 34  1  1  0  0  0
 16 48  1  0  0  0  0
 17 19  1  0  0  0  0
 17 49  1  0  0  0  0
 17 50  1  0  0  0  0
 18 20  1  0  0  0  0
 18 51  1  0  0  0  0
 18 52  1  0  0  0  0
 19 21  2  0  0  0  0
 19 27  1  0  0  0  0
 20 22  2  0  0  0  0
 20 28  1  0  0  0  0
 21 24  1  0  0  0  0
 21 25  1  0  0  0  0
 22 23  1  0  0  0  0
 22 26  1  0  0  0  0
 23 35  1  6  0  0  0
 23 53  1  0  0  0  0
 24 36  1  6  0  0  0
 24 54  1  0  0  0  0
 25 30  2  0  0  0  0
 26 29  2  0  0  0  0
 27 32  2  0  0  0  0
 28 31  2  0  0  0  0
 29 31  1  0  0  0  0
 29 39  1  0  0  0  0
 30 32  1  0  0  0  0
 30 40  1  0  0  0  0
 31 42  1  0  0  0  0
 32 41  1  0  0  0  0
 33 46  1  0  0  0  0
 33 57  1  0  0  0  0
 33 58  1  0  0  0  0
 34 45  1  0  0  0  0
 34 55  1  0  0  0  0
 34 56  1  0  0  0  0
 35 59  1  0  0  0  0
 35 60  1  0  0  0  0
 35 64  1  0  0  0  0
 36 61  1  0  0  0  0
 36 62  1  0  0  0  0
 36 63  1  0  0  0  0
 37 38  1  0  0  0  0
 37 39  1  0  0  0  0
 37 43  2  0  0  0  0
 38 40  1  0  0  0  0
 38 44  2  0  0  0  0
 41 44  1  0  0  0  0
 42 43  1  0  0  0  0
 43 66  1  0  0  0  0
 44 65  1  0  0  0  0
M  END
> <PUBCHEM_COMPOUND_CID>
5280985

> <PUBCHEM_COMPOUND_CANONICALIZED>
1

> <PUBCHEM_CACTVS_COMPLEXITY>
1330

> <PUBCHEM_CACTVS_HBOND_ACCEPTOR>
14

> <PUBCHEM_CACTVS_HBOND_DONOR>
6

> <PUBCHEM_CACTVS_ROTATABLE_BOND>
5

> <PUBCHEM_CACTVS_SUBSKEYS>
AAADceB8PAAAAAAAAAAAAAAAAAAAAAAAAAA0aIECAAAAAACRQAAAGgAACAAADBSgmAICDoAABgCIAqDSCAACAAAkIAAAiAEECMgIJzaCNBqCcUAl4BEIuYfL7PzOwQADAAAYAACCAAYAADAAAAAAAAAAAA==

> <PUBCHEM_IUPAC_OPENEYE_NAME>
2-[(1R,3S)-8-[(1R,3S)-3-(carboxymethyl)-5,10-dihydroxy-1-methyl-6,9-dioxo-3,4-dihydro-1H-benzo[g]isochromen-8-yl]-5,10-dihydroxy-1-methyl-6,9-dioxo-3,4-dihydro-1H-benzo[g]isochromen-3-yl]acetic acid

> <PUBCHEM_IUPAC_CAS_NAME>
2-[(1R,3S)-8-[(1R,3S)-3-(carboxymethyl)-5,10-dihydroxy-1-methyl-6,9-dioxo-3,4-dihydro-1H-benzo[g][2]benzopyran-8-yl]-5,10-dihydroxy-1-methyl-6,9-dioxo-3,4-dihydro-1H-benzo[g][2]benzopyran-3-yl]acetic acid

> <PUBCHEM_IUPAC_NAME>
2-[(1R,3S)-8-[(1R,3S)-3-(carboxymethyl)-5,10-dihydroxy-1-methyl-6,9-dioxo-3,4-dihydro-1H-benzo[g]isochromen-8-yl]-5,10-dihydroxy-1-methyl-6,9-dioxo-3,4-dihydro-1H-benzo[g]isochromen-3-yl]acetic acid

> <PUBCHEM_IUPAC_SYSTEMATIC_NAME>
2-[(1R,3S)-8-[(1R,3S)-3-(2-hydroxy-2-oxoethyl)-1-methyl-5,10-bis(oxidanyl)-6,9-bis(oxidanylidene)-3,4-dihydro-1H-benzo[g]isochromen-8-yl]-1-methyl-5,10-bis(oxidanyl)-6,9-bis(oxidanylidene)-3,4-dihydro-1H-benzo[g]isochromen-3-yl]ethanoic acid

> <PUBCHEM_IUPAC_TRADITIONAL_NAME>
2-[(1R,3S)-8-[(1R,3S)-3-(carboxymethyl)-5,10-dihydroxy-6,9-diketo-1-methyl-3,4-dihydro-1H-benz[g]isochromen-8-yl]-5,10-dihydroxy-6,9-diketo-1-methyl-3,4-dihydro-1H-benz[g]isochromen-3-yl]acetic acid

> <PUBCHEM_IUPAC_INCHI>
InChI=1S/C32H26O14/c1-9-21-15(3-11(45-9)5-19(35)36)29(41)23-17(33)7-13(27(39)25(23)31(21)43)14-8-18(34)24-26(28(14)40)32(44)22-10(2)46-12(6-20(37)38)4-16(22)30(24)42/h7-12,41-44H,3-6H2,1-2H3,(H,35,36)(H,37,38)/t9-,10-,11+,12+/m1/s1

> <PUBCHEM_IUPAC_INCHIKEY>
FXTIILIJTTYSLT-WYUUTHIRSA-N

> <PUBCHEM_XLOGP3_AA>
2.7

> <PUBCHEM_EXACT_MASS>
634.132256

> <PUBCHEM_MOLECULAR_FORMULA>
C32H26O14

> <PUBCHEM_MOLECULAR_WEIGHT>
634.54044

> <PUBCHEM_OPENEYE_CAN_SMILES>
CC1C2=C(C3=C(C(=O)C=C(C3=O)C4=CC(=O)C5=C(C4=O)C(=C6C(OC(CC6=C5O)CC(=O)O)C)O)C(=C2CC(O1)CC(=O)O)O)O

> <PUBCHEM_OPENEYE_ISO_SMILES>
C[C@@H]1C2=C(C3=C(C(=O)C=C(C3=O)C4=CC(=O)C5=C(C4=O)C(=C6[C@H](O[C@@H](CC6=C5O)CC(=O)O)C)O)C(=C2C[C@H](O1)CC(=O)O)O)O

> <PUBCHEM_CACTVS_TPSA>
242

> <PUBCHEM_MONOISOTOPIC_WEIGHT>
634.132256

> <PUBCHEM_TOTAL_CHARGE>
0

> <PUBCHEM_HEAVY_ATOM_COUNT>
46

> <PUBCHEM_ATOM_DEF_STEREO_COUNT>
4

> <PUBCHEM_ATOM_UDEF_STEREO_COUNT>
0

> <PUBCHEM_BOND_DEF_STEREO_COUNT>
0

> <PUBCHEM_BOND_UDEF_STEREO_COUNT>
0

> <PUBCHEM_ISOTOPIC_ATOM_COUNT>
0

> <PUBCHEM_COMPONENT_COUNT>
1

> <PUBCHEM_CACTVS_TAUTO_COUNT>
999

> <PUBCHEM_COORDINATE_TYPE>
1
5
255

> <PUBCHEM_BONDANNOTATIONS>
15  33  5
16  34  5
19  21  8
19  27  8
20  22  8
20  28  8
21  25  8
22  26  8
23  35  6
24  36  6
25  30  8
26  29  8
27  32  8
28  31  8
29  31  8
30  32  8

$$$$

