   Color/Form

     * Colorless gas
     * Slightly bluish liquid at -183 deg C

   from [1]HSDB

   Odor
        Odorless
   from [2]HSDB

   Taste
        Tasteless
   from [3]HSDB

   Boiling Point
        -182.96 deg C
   from [4]HSDB

   Melting Point
        -218.4 deg C
   from [5]HSDB

   Critical Temperature and Pressure
        Critical temperature: -118.95 deg C; critical pressure: 50.14 atm
   from [6]HSDB

   Density/Specific Gravity
        Gas: 1.429 g/L at 0 deg C; liq: 1.14 g/ml at -183 deg C
   from [7]HSDB

   Heat of Vaporization
        50.9 cal/g at -183 deg C
   from [8]HSDB

   Octanol/Water Partition Coefficient
        log Kow = 0.65
   from [9]HSDB

   Solubilities

     * 1 vol gas dissolves in 32 vol water at 20 deg C, in 7 vol alcohol
       at 20 deg C; sol in other organic liquids and usually to a greater
       extent than in water
     * 4.89 CU M SOL IN 100 CC WATER @ 0 DEG C; 2.46 CU M SOL IN 100 CC
       WATER @ 50 DEG C; 2.30 CU M SOL IN 100 CC WATER @ 100 DEG C; 2.78 G
       SOL IN 100 CC ALC @ 25 DEG C

   from [10]HSDB

   Spectral Properties
        Index of refraction: liq: 1.2243 at -181 deg C/D
   from [11]HSDB

   Surface Tension
        Liq: liquid-surface tension: 13.47 dynes/cm= 0.01347 N/m @ -183
   deg C
   from [12]HSDB

   Vapor Density
        1.43 (AIR= 1)
   from [13]HSDB

   Vapor Pressure
        1 kPa at -211.9 deg C; 10 kPa at -200.5 deg C; 100 kPa at -183.1
   deg C
   from [14]HSDB

   Viscosity
        Gas: 101.325 kPa at 25 deg C (0.020 75 cP); Liquid: 99.70 K (0.156
   cP)
   from [15]HSDB

   Other Chemical/Physical Properties

     * Atomic number: 8; valence: 2; occurs normally as diatomic gas O2;
       also occurs as ozone O3; three naturally occurring isotopes: 16
       (99.759%); 17 (0.037%); 18 (0.204%); artificial radioactive
       isotopes: 13-15; 19; 20; neutral gas
     * Liq & solid: strongly paramagnetic
     * ATOMIC RADIUS: 0.66 A; IONIC (CRYSTAL) RADII: 1.26 A (-2 OXIDATION
       STATE); ELECTRONEGATIVITY (PAULING SCALE): 3.44; ORBITAL ELECTRONS:
       [HE]2S2-2P4
     * T/2: (14)O= 74 SEC; (15)O= 2.1 MIN; (19)O= 29.4 SEC; WHEN EXPOSED
       TO UV RADIATION, DIATOMIC OXYGEN MOLECULE IS BROKEN DOWN & OZONE IS
       FORMED
     * TRIPLE POINT TEMP: 54.4 DEG K; TRIPLE POINT PRESSURE: 0.0015 ATM;
       HEAT OF FUSION: 3.3 CAL/G
     * Gas: Ratio of specific heats of vapor: 1.3962

   from [16]HSDB

   Computed Properties
   Molecular Weight                  31.9988 [g/mol]
   Molecular Formula                 O[2]
   XLogP3-AA                         -1.1
   H-Bond Donor                      0
   H-Bond Acceptor                   2
   Rotatable Bond Count              0
   Exact Mass                        31.989829
   MonoIsotopic Mass                 31.989829
   Topological Polar Surface Area    34.1
   Heavy Atom Count                  2
   Formal Charge                     0
   Complexity                        0
   Isotope Atom Count                0
   Defined Atom Stereocenter Count   0
   Undefined Atom Stereocenter Count 0
   Defined Bond Stereocenter Count   0
   Undefined Bond Stereocenter Count 0
   Covalently-Bonded Unit Count      1
   Effective Rotor Count             0
   Conformer Sampling RMSD           0.4
   CID Conformer Count               [17]1

References

   1. http://toxnet.nlm.nih.gov/cgi-bin/sis/search/r?dbs+hsdb:@term+@rn+@rel+7782-44-7
   2. http://toxnet.nlm.nih.gov/cgi-bin/sis/search/r?dbs+hsdb:@term+@rn+@rel+7782-44-7
   3. http://toxnet.nlm.nih.gov/cgi-bin/sis/search/r?dbs+hsdb:@term+@rn+@rel+7782-44-7
   4. http://toxnet.nlm.nih.gov/cgi-bin/sis/search/r?dbs+hsdb:@term+@rn+@rel+7782-44-7
   5. http://toxnet.nlm.nih.gov/cgi-bin/sis/search/r?dbs+hsdb:@term+@rn+@rel+7782-44-7
   6. http://toxnet.nlm.nih.gov/cgi-bin/sis/search/r?dbs+hsdb:@term+@rn+@rel+7782-44-7
   7. http://toxnet.nlm.nih.gov/cgi-bin/sis/search/r?dbs+hsdb:@term+@rn+@rel+7782-44-7
   8. http://toxnet.nlm.nih.gov/cgi-bin/sis/search/r?dbs+hsdb:@term+@rn+@rel+7782-44-7
   9. http://toxnet.nlm.nih.gov/cgi-bin/sis/search/r?dbs+hsdb:@term+@rn+@rel+7782-44-7
  10. http://toxnet.nlm.nih.gov/cgi-bin/sis/search/r?dbs+hsdb:@term+@rn+@rel+7782-44-7
  11. http://toxnet.nlm.nih.gov/cgi-bin/sis/search/r?dbs+hsdb:@term+@rn+@rel+7782-44-7
  12. http://toxnet.nlm.nih.gov/cgi-bin/sis/search/r?dbs+hsdb:@term+@rn+@rel+7782-44-7
  13. http://toxnet.nlm.nih.gov/cgi-bin/sis/search/r?dbs+hsdb:@term+@rn+@rel+7782-44-7
  14. http://toxnet.nlm.nih.gov/cgi-bin/sis/search/r?dbs+hsdb:@term+@rn+@rel+7782-44-7
  15. http://toxnet.nlm.nih.gov/cgi-bin/sis/search/r?dbs+hsdb:@term+@rn+@rel+7782-44-7
  16. http://toxnet.nlm.nih.gov/cgi-bin/sis/search/r?dbs+hsdb:@term+@rn+@rel+7782-44-7
  17. http://pubchem.ncbi.nlm.nih.gov/vw3d/vw3d.cgi?cid=977
