5282223
  -OEChem-07051213032D

 41 42  0     1  0  0  0  0  0999 V2000
    5.4646   -0.7390    0.0000 O   0  0  0  0  0  0  0  0  0  0  0  0
    2.0000   -1.7390    0.0000 O   0  0  0  0  0  0  0  0  0  0  0  0
    9.0981    0.6270    0.0000 O   0  0  0  0  0  0  0  0  0  0  0  0
    7.5981   -0.2390    0.0000 O   0  0  0  0  0  0  0  0  0  0  0  0
    4.5981   -0.2390    0.0000 C   0  0  2  0  0  0  0  0  0  0  0  0
    4.5981   -1.2390    0.0000 C   0  0  1  0  0  0  0  0  0  0  0  0
    3.7320    0.2610    0.0000 C   0  0  0  0  0  0  0  0  0  0  0  0
    3.7320   -1.7390    0.0000 C   0  0  0  0  0  0  0  0  0  0  0  0
    2.8660   -0.2390    0.0000 C   0  0  0  0  0  0  0  0  0  0  0  0
    2.8660   -1.2390    0.0000 C   0  0  2  0  0  0  0  0  0  0  0  0
    4.5981   -2.2390    0.0000 C   0  0  0  0  0  0  0  0  0  0  0  0
    5.0981    0.6270    0.0000 C   0  0  0  0  0  0  0  0  0  0  0  0
    2.8660    0.7610    0.0000 C   0  0  0  0  0  0  0  0  0  0  0  0
    3.7320    1.2610    0.0000 C   0  0  0  0  0  0  0  0  0  0  0  0
    6.0981    0.6270    0.0000 C   0  0  0  0  0  0  0  0  0  0  0  0
    6.5981    1.4930    0.0000 C   0  0  0  0  0  0  0  0  0  0  0  0
    6.0981    2.3590    0.0000 C   0  0  0  0  0  0  0  0  0  0  0  0
    7.5981    1.4930    0.0000 C   0  0  0  0  0  0  0  0  0  0  0  0
    8.0981    0.6270    0.0000 C   0  0  0  0  0  0  0  0  0  0  0  0
    3.3335   -2.2140    0.0000 H   0  0  0  0  0  0  0  0  0  0  0  0
    4.1306   -2.2140    0.0000 H   0  0  0  0  0  0  0  0  0  0  0  0
    2.6540    0.3436    0.0000 H   0  0  0  0  0  0  0  0  0  0  0  0
    2.2554   -0.3467    0.0000 H   0  0  0  0  0  0  0  0  0  0  0  0
    2.8660   -1.8590    0.0000 H   0  0  0  0  0  0  0  0  0  0  0  0
    3.9781   -2.2390    0.0000 H   0  0  0  0  0  0  0  0  0  0  0  0
    4.5981   -2.8590    0.0000 H   0  0  0  0  0  0  0  0  0  0  0  0
    5.2181   -2.2390    0.0000 H   0  0  0  0  0  0  0  0  0  0  0  0
    4.7881    1.1639    0.0000 H   0  0  0  0  0  0  0  0  0  0  0  0
    3.1760    1.2979    0.0000 H   0  0  0  0  0  0  0  0  0  0  0  0
    2.3291    1.0710    0.0000 H   0  0  0  0  0  0  0  0  0  0  0  0
    2.5560    0.2240    0.0000 H   0  0  0  0  0  0  0  0  0  0  0  0
    4.3520    1.2610    0.0000 H   0  0  0  0  0  0  0  0  0  0  0  0
    3.7320    1.8810    0.0000 H   0  0  0  0  0  0  0  0  0  0  0  0
    3.1120    1.2610    0.0000 H   0  0  0  0  0  0  0  0  0  0  0  0
    2.0000   -2.3590    0.0000 H   0  0  0  0  0  0  0  0  0  0  0  0
    6.4081    0.0901    0.0000 H   0  0  0  0  0  0  0  0  0  0  0  0
    6.6350    2.6690    0.0000 H   0  0  0  0  0  0  0  0  0  0  0  0
    5.7881    2.8960    0.0000 H   0  0  0  0  0  0  0  0  0  0  0  0
    5.5611    2.0490    0.0000 H   0  0  0  0  0  0  0  0  0  0  0  0
    7.9081    2.0300    0.0000 H   0  0  0  0  0  0  0  0  0  0  0  0
    9.4081    0.0901    0.0000 H   0  0  0  0  0  0  0  0  0  0  0  0
  1  5  1  0  0  0  0
  1  6  1  0  0  0  0
 10  2  1  1  0  0  0
  2 35  1  0  0  0  0
  3 19  1  0  0  0  0
  3 41  1  0  0  0  0
  4 19  2  0  0  0  0
  5  6  1  0  0  0  0
  5  7  1  0  0  0  0
  5 12  1  1  0  0  0
  6  8  1  0  0  0  0
  6 11  1  1  0  0  0
  7  9  1  0  0  0  0
  7 13  1  0  0  0  0
  7 14  1  0  0  0  0
  8 10  1  0  0  0  0
  8 20  1  0  0  0  0
  8 21  1  0  0  0  0
  9 10  1  0  0  0  0
  9 22  1  0  0  0  0
  9 23  1  0  0  0  0
 10 24  1  0  0  0  0
 11 25  1  0  0  0  0
 11 26  1  0  0  0  0
 11 27  1  0  0  0  0
 12 15  2  0  0  0  0
 12 28  1  0  0  0  0
 13 29  1  0  0  0  0
 13 30  1  0  0  0  0
 13 31  1  0  0  0  0
 14 32  1  0  0  0  0
 14 33  1  0  0  0  0
 14 34  1  0  0  0  0
 15 16  1  0  0  0  0
 15 36  1  0  0  0  0
 16 17  1  0  0  0  0
 16 18  2  0  0  0  0
 17 37  1  0  0  0  0
 17 38  1  0  0  0  0
 17 39  1  0  0  0  0
 18 19  1  0  0  0  0
 18 40  1  0  0  0  0
M  END
> <PUBCHEM_COMPOUND_CID>
5282223

> <PUBCHEM_COMPOUND_CANONICALIZED>
1

> <PUBCHEM_CACTVS_COMPLEXITY>
463

> <PUBCHEM_CACTVS_HBOND_ACCEPTOR>
4

> <PUBCHEM_CACTVS_HBOND_DONOR>
2

> <PUBCHEM_CACTVS_ROTATABLE_BOND>
3

> <PUBCHEM_CACTVS_SUBSKEYS>
AAADceBwOAAAAAAAAAAAAAAAEgAAAAAAAAAwAAAABIAAAAAAAAAAGgAACAAADlSggAICCAAABgCIAiDSCAAAAAAgAAAICAAAAEgIFAIAIQACUAAFwAAIsQPA4PQPgAAAAAAAAABCAAYQADAAAAAAAAAAAA==

> <PUBCHEM_IUPAC_OPENEYE_NAME>
(2Z,4E)-5-[(1R,3S,6S)-3-hydroxy-1,5,5-trimethyl-7-oxabicyclo[4.1.0]heptan-6-yl]-3-methyl-penta-2,4-dienoic acid

> <PUBCHEM_IUPAC_CAS_NAME>
(2Z,4E)-5-[(1R,3S,6S)-3-hydroxy-1,5,5-trimethyl-7-oxabicyclo[4.1.0]heptan-6-yl]-3-methylpenta-2,4-dienoic acid

> <PUBCHEM_IUPAC_NAME>
(2Z,4E)-5-[(1R,3S,6S)-3-hydroxy-1,5,5-trimethyl-7-oxabicyclo[4.1.0]heptan-6-yl]-3-methylpenta-2,4-dienoic acid

> <PUBCHEM_IUPAC_SYSTEMATIC_NAME>
(2Z,4E)-3-methyl-5-[(1R,3S,6S)-1,5,5-trimethyl-3-oxidanyl-7-oxabicyclo[4.1.0]heptan-6-yl]penta-2,4-dienoic acid

> <PUBCHEM_IUPAC_TRADITIONAL_NAME>
(2Z,4E)-5-[(1R,3S,6S)-3-hydroxy-1,5,5-trimethyl-7-oxabicyclo[4.1.0]heptan-6-yl]-3-methyl-penta-2,4-dienoic acid

> <PUBCHEM_IUPAC_INCHI>
InChI=1S/C15H22O4/c1-10(7-12(17)18)5-6-15-13(2,3)8-11(16)9-14(15,4)19-15/h5-7,11,16H,8-9H2,1-4H3,(H,17,18)/b6-5+,10-7-/t11-,14+,15-/m0/s1

> <PUBCHEM_IUPAC_INCHIKEY>
XTFOFYSQUZTRGJ-SAZLWWCESA-N

> <PUBCHEM_XLOGP3_AA>
2.1

> <PUBCHEM_EXACT_MASS>
266.151809

> <PUBCHEM_MOLECULAR_FORMULA>
C15H22O4

> <PUBCHEM_MOLECULAR_WEIGHT>
266.33278

> <PUBCHEM_OPENEYE_CAN_SMILES>
CC(=CC(=O)O)C=CC12C(CC(CC1(O2)C)O)(C)C

> <PUBCHEM_OPENEYE_ISO_SMILES>
C/C(=C/C(=O)O)/C=C/[C@]12[C@](O1)(C[C@H](CC2(C)C)O)C

> <PUBCHEM_CACTVS_TPSA>
70.1

> <PUBCHEM_MONOISOTOPIC_WEIGHT>
266.151809

> <PUBCHEM_TOTAL_CHARGE>
0

> <PUBCHEM_HEAVY_ATOM_COUNT>
19

> <PUBCHEM_ATOM_DEF_STEREO_COUNT>
3

> <PUBCHEM_ATOM_UDEF_STEREO_COUNT>
0

> <PUBCHEM_BOND_DEF_STEREO_COUNT>
2

> <PUBCHEM_BOND_UDEF_STEREO_COUNT>
0

> <PUBCHEM_ISOTOPIC_ATOM_COUNT>
0

> <PUBCHEM_COMPONENT_COUNT>
1

> <PUBCHEM_CACTVS_TAUTO_COUNT>
1

> <PUBCHEM_COORDINATE_TYPE>
1
5
255

> <PUBCHEM_BONDANNOTATIONS>
10  2  5
5  12  5
6  11  5

$$$$

