86608
  -OEChem-07051213092D

 39 40  0     1  0  0  0  0  0999 V2000
    6.2806    1.0702    0.0000 C   0  0  3  0  0  0  0  0  0  0  0  0
    4.7075    2.2773    0.0000 C   0  0  3  0  0  0  0  0  0  0  0  0
    4.4487    1.3114    0.0000 C   0  0  3  0  0  0  0  0  0  0  0  0
    3.9709    3.2599    0.0000 C   0  0  0  0  0  0  0  0  0  0  0  0
    2.1045    1.4695    0.0000 C   0  0  0  0  0  0  0  0  0  0  0  0
    6.7806    0.2042    0.0000 C   0  0  0  0  0  0  0  0  0  0  0  0
    2.9136    0.0682    0.0000 C   0  0  0  0  0  0  0  0  0  0  0  0
    7.1467    1.5702    0.0000 C   0  0  0  0  0  0  0  0  0  0  0  0
    2.0000    0.4750    0.0000 C   0  0  0  0  0  0  0  0  0  0  0  0
    6.2806   -0.6618    0.0000 C   0  0  0  0  0  0  0  0  0  0  0  0
    3.1215   -0.9099    0.0000 C   0  0  0  0  0  0  0  0  0  0  0  0
    6.7806   -1.5279    0.0000 C   0  0  0  0  0  0  0  0  0  0  0  0
    6.2806   -2.3939    0.0000 C   0  0  0  0  0  0  0  0  0  0  0  0
    6.7806   -3.2599    0.0000 C   0  0  0  0  0  0  0  0  0  0  0  0
    5.2806   -2.3939    0.0000 C   0  0  0  0  0  0  0  0  0  0  0  0
    5.1484    2.7132    0.0000 H   0  0  0  0  0  0  0  0  0  0  0  0
    4.6170    0.7147    0.0000 H   0  0  0  0  0  0  0  0  0  0  0  0
    4.2887    3.7923    0.0000 H   0  0  0  0  0  0  0  0  0  0  0  0
    3.3578    3.3519    0.0000 H   0  0  0  0  0  0  0  0  0  0  0  0
    2.0023    2.0810    0.0000 H   0  0  0  0  0  0  0  0  0  0  0  0
    1.4848    1.4506    0.0000 H   0  0  0  0  0  0  0  0  0  0  0  0
    7.2556   -0.1944    0.0000 H   0  0  0  0  0  0  0  0  0  0  0  0
    7.2556    0.6027    0.0000 H   0  0  0  0  0  0  0  0  0  0  0  0
    7.4567    1.0333    0.0000 H   0  0  0  0  0  0  0  0  0  0  0  0
    7.6836    1.8802    0.0000 H   0  0  0  0  0  0  0  0  0  0  0  0
    6.8367    2.1071    0.0000 H   0  0  0  0  0  0  0  0  0  0  0  0
    1.4631    0.1650    0.0000 H   0  0  0  0  0  0  0  0  0  0  0  0
    5.8057   -0.2633    0.0000 H   0  0  0  0  0  0  0  0  0  0  0  0
    5.8057   -1.0604    0.0000 H   0  0  0  0  0  0  0  0  0  0  0  0
    2.5150   -1.0388    0.0000 H   0  0  0  0  0  0  0  0  0  0  0  0
    3.2504   -1.5164    0.0000 H   0  0  0  0  0  0  0  0  0  0  0  0
    3.7279   -0.7810    0.0000 H   0  0  0  0  0  0  0  0  0  0  0  0
    7.4006   -1.5279    0.0000 H   0  0  0  0  0  0  0  0  0  0  0  0
    6.2437   -3.5699    0.0000 H   0  0  0  0  0  0  0  0  0  0  0  0
    7.0906   -3.7969    0.0000 H   0  0  0  0  0  0  0  0  0  0  0  0
    7.3176   -2.9499    0.0000 H   0  0  0  0  0  0  0  0  0  0  0  0
    5.2806   -1.7739    0.0000 H   0  0  0  0  0  0  0  0  0  0  0  0
    4.6607   -2.3939    0.0000 H   0  0  0  0  0  0  0  0  0  0  0  0
    5.2806   -3.0139    0.0000 H   0  0  0  0  0  0  0  0  0  0  0  0
  1  2  1  0  0  0  0
  1  3  1  0  0  0  0
  1  6  1  0  0  0  0
  1  8  1  0  0  0  0
  2  4  1  0  0  0  0
  2  5  1  0  0  0  0
  2 16  1  0  0  0  0
  3  4  1  0  0  0  0
  3  7  1  0  0  0  0
  3 17  1  0  0  0  0
  4 18  1  0  0  0  0
  4 19  1  0  0  0  0
  5  9  1  0  0  0  0
  5 20  1  0  0  0  0
  5 21  1  0  0  0  0
  6 10  1  0  0  0  0
  6 22  1  0  0  0  0
  6 23  1  0  0  0  0
  7  9  2  0  0  0  0
  7 11  1  0  0  0  0
  8 24  1  0  0  0  0
  8 25  1  0  0  0  0
  8 26  1  0  0  0  0
  9 27  1  0  0  0  0
 10 12  1  0  0  0  0
 10 28  1  0  0  0  0
 10 29  1  0  0  0  0
 11 30  1  0  0  0  0
 11 31  1  0  0  0  0
 11 32  1  0  0  0  0
 12 13  2  0  0  0  0
 12 33  1  0  0  0  0
 13 14  1  0  0  0  0
 13 15  1  0  0  0  0
 14 34  1  0  0  0  0
 14 35  1  0  0  0  0
 14 36  1  0  0  0  0
 15 37  1  0  0  0  0
 15 38  1  0  0  0  0
 15 39  1  0  0  0  0
M  END
> <PUBCHEM_COMPOUND_CID>
86608

> <PUBCHEM_COMPOUND_CANONICALIZED>
1

> <PUBCHEM_CACTVS_COMPLEXITY>
304

> <PUBCHEM_CACTVS_HBOND_ACCEPTOR>
0

> <PUBCHEM_CACTVS_HBOND_DONOR>
0

> <PUBCHEM_CACTVS_ROTATABLE_BOND>
3

> <PUBCHEM_CACTVS_SUBSKEYS>
AAADceBwAAAAAAAAAAAAAAAAAABgAAAAAAAgQAAAAAAAAAAAAAAAGAAAAAAADwCAAAACAAAAAACAAiBCAAAAAAAgAAAACAAAAAgAAAIAAQAAAAAAgAAIAAMAgMAPgAAAAAAAAAAAAAAAAAAAAAAAAAAAAA==

> <PUBCHEM_IUPAC_OPENEYE_NAME>
4,6-dimethyl-6-(4-methylpent-3-enyl)bicyclo[3.1.1]hept-3-ene

> <PUBCHEM_IUPAC_CAS_NAME>
4,6-dimethyl-6-(4-methylpent-3-enyl)bicyclo[3.1.1]hept-3-ene

> <PUBCHEM_IUPAC_NAME>
4,6-dimethyl-6-(4-methylpent-3-enyl)bicyclo[3.1.1]hept-3-ene

> <PUBCHEM_IUPAC_SYSTEMATIC_NAME>
4,6-dimethyl-6-(4-methylpent-3-enyl)bicyclo[3.1.1]hept-3-ene

> <PUBCHEM_IUPAC_TRADITIONAL_NAME>
4,6-dimethyl-6-(4-methylpent-3-enyl)bicyclo[3.1.1]hept-3-ene

> <PUBCHEM_IUPAC_INCHI>
InChI=1S/C15H24/c1-11(2)6-5-9-15(4)13-8-7-12(3)14(15)10-13/h6-7,13-14H,5,8-10H2,1-4H3

> <PUBCHEM_IUPAC_INCHIKEY>
YMBFCQPIMVLNIU-UHFFFAOYSA-N

> <PUBCHEM_XLOGP3_AA>
4.8

> <PUBCHEM_EXACT_MASS>
204.187801

> <PUBCHEM_MOLECULAR_FORMULA>
C15H24

> <PUBCHEM_MOLECULAR_WEIGHT>
204.35106

> <PUBCHEM_OPENEYE_CAN_SMILES>
CC1=CCC2CC1C2(C)CCC=C(C)C

> <PUBCHEM_OPENEYE_ISO_SMILES>
CC1=CCC2CC1C2(C)CCC=C(C)C

> <PUBCHEM_CACTVS_TPSA>
0

> <PUBCHEM_MONOISOTOPIC_WEIGHT>
204.187801

> <PUBCHEM_TOTAL_CHARGE>
0

> <PUBCHEM_HEAVY_ATOM_COUNT>
15

> <PUBCHEM_ATOM_DEF_STEREO_COUNT>
0

> <PUBCHEM_ATOM_UDEF_STEREO_COUNT>
3

> <PUBCHEM_BOND_DEF_STEREO_COUNT>
0

> <PUBCHEM_BOND_UDEF_STEREO_COUNT>
0

> <PUBCHEM_ISOTOPIC_ATOM_COUNT>
0

> <PUBCHEM_COMPONENT_COUNT>
1

> <PUBCHEM_CACTVS_TAUTO_COUNT>
1

> <PUBCHEM_COORDINATE_TYPE>
1
5
255

> <PUBCHEM_BONDANNOTATIONS>
1  8  3
2  4  3
3  4  3

$$$$

