17396414
  -OEChem-06241222562D

 47 49  0     1  0  0  0  0  0999 V2000
    6.1808   -4.5818    0.0000 Cl  0  0  0  0  0  0  0  0  0  0  0  0
    2.5000    4.1206    0.0000 O   0  0  0  0  0  0  0  0  0  0  0  0
    6.1808    1.4182    0.0000 O   0  0  0  0  0  0  0  0  0  0  0  0
    5.3147   -0.0818    0.0000 N   0  0  0  0  0  0  0  0  0  0  0  0
    7.9603   -0.4886    0.0000 N   0  0  0  0  0  0  0  0  0  0  0  0
    7.1513    0.9127    0.0000 N   0  0  0  0  0  0  0  0  0  0  0  0
    2.0000    3.2546    0.0000 N   0  0  0  0  0  0  0  0  0  0  0  0
    6.1808   -0.5818    0.0000 C   0  0  3  0  0  0  0  0  0  0  0  0
    7.0468   -0.0818    0.0000 C   0  0  0  0  0  0  0  0  0  0  0  0
    4.4487    2.4182    0.0000 C   0  0  0  0  0  0  0  0  0  0  0  0
    4.4487    1.4182    0.0000 C   0  0  0  0  0  0  0  0  0  0  0  0
    6.1808   -1.5818    0.0000 C   0  0  0  0  0  0  0  0  0  0  0  0
    3.5827    2.9182    0.0000 C   0  0  0  0  0  0  0  0  0  0  0  0
    5.3147    0.9182    0.0000 C   0  0  0  0  0  0  0  0  0  0  0  0
    3.4782    3.9127    0.0000 C   0  0  0  0  0  0  0  0  0  0  0  0
    2.6691    2.5114    0.0000 C   0  0  0  0  0  0  0  0  0  0  0  0
    5.3147   -2.0818    0.0000 C   0  0  0  0  0  0  0  0  0  0  0  0
    7.0468   -2.0818    0.0000 C   0  0  0  0  0  0  0  0  0  0  0  0
    8.6294    0.2546    0.0000 C   0  0  0  0  0  0  0  0  0  0  0  0
    8.1682   -1.4667    0.0000 C   0  0  0  0  0  0  0  0  0  0  0  0
    8.1294    1.1206    0.0000 C   0  0  0  0  0  0  0  0  0  0  0  0
    5.3147   -3.0818    0.0000 C   0  0  0  0  0  0  0  0  0  0  0  0
    7.0468   -3.0818    0.0000 C   0  0  0  0  0  0  0  0  0  0  0  0
    4.2213    4.5818    0.0000 C   0  0  0  0  0  0  0  0  0  0  0  0
    2.4612    1.5333    0.0000 C   0  0  0  0  0  0  0  0  0  0  0  0
    6.1808   -3.5818    0.0000 C   0  0  0  0  0  0  0  0  0  0  0  0
    6.1808    0.0382    0.0000 H   0  0  0  0  0  0  0  0  0  0  0  0
    5.0593    2.3105    0.0000 H   0  0  0  0  0  0  0  0  0  0  0  0
    4.6608    3.0008    0.0000 H   0  0  0  0  0  0  0  0  0  0  0  0
    3.8381    1.5258    0.0000 H   0  0  0  0  0  0  0  0  0  0  0  0
    4.2366    0.8356    0.0000 H   0  0  0  0  0  0  0  0  0  0  0  0
    4.7778   -0.3918    0.0000 H   0  0  0  0  0  0  0  0  0  0  0  0
    4.7778   -1.7718    0.0000 H   0  0  0  0  0  0  0  0  0  0  0  0
    7.5837   -1.7718    0.0000 H   0  0  0  0  0  0  0  0  0  0  0  0
    9.2461    0.1898    0.0000 H   0  0  0  0  0  0  0  0  0  0  0  0
    7.5618   -1.5956    0.0000 H   0  0  0  0  0  0  0  0  0  0  0  0
    8.2971   -2.0732    0.0000 H   0  0  0  0  0  0  0  0  0  0  0  0
    8.7747   -1.3378    0.0000 H   0  0  0  0  0  0  0  0  0  0  0  0
    8.3816    1.6870    0.0000 H   0  0  0  0  0  0  0  0  0  0  0  0
    4.7778   -3.3918    0.0000 H   0  0  0  0  0  0  0  0  0  0  0  0
    7.5837   -3.3918    0.0000 H   0  0  0  0  0  0  0  0  0  0  0  0
    4.6362    4.1211    0.0000 H   0  0  0  0  0  0  0  0  0  0  0  0
    4.6820    4.9967    0.0000 H   0  0  0  0  0  0  0  0  0  0  0  0
    3.8064    5.0426    0.0000 H   0  0  0  0  0  0  0  0  0  0  0  0
    1.8548    1.6622    0.0000 H   0  0  0  0  0  0  0  0  0  0  0  0
    2.3323    0.9268    0.0000 H   0  0  0  0  0  0  0  0  0  0  0  0
    3.0677    1.4044    0.0000 H   0  0  0  0  0  0  0  0  0  0  0  0
  1 26  1  0  0  0  0
  2  7  1  0  0  0  0
  2 15  1  0  0  0  0
  3 14  2  0  0  0  0
  4  8  1  0  0  0  0
  4 14  1  0  0  0  0
  4 32  1  0  0  0  0
  5  9  1  0  0  0  0
  5 19  1  0  0  0  0
  5 20  1  0  0  0  0
  6  9  2  0  0  0  0
  6 21  1  0  0  0  0
  7 16  2  0  0  0  0
  8  9  1  0  0  0  0
  8 12  1  0  0  0  0
  8 27  1  0  0  0  0
 10 11  1  0  0  0  0
 10 13  1  0  0  0  0
 10 28  1  0  0  0  0
 10 29  1  0  0  0  0
 11 14  1  0  0  0  0
 11 30  1  0  0  0  0
 11 31  1  0  0  0  0
 12 17  2  0  0  0  0
 12 18  1  0  0  0  0
 13 15  2  0  0  0  0
 13 16  1  0  0  0  0
 15 24  1  0  0  0  0
 16 25  1  0  0  0  0
 17 22  1  0  0  0  0
 17 33  1  0  0  0  0
 18 23  2  0  0  0  0
 18 34  1  0  0  0  0
 19 21  2  0  0  0  0
 19 35  1  0  0  0  0
 20 36  1  0  0  0  0
 20 37  1  0  0  0  0
 20 38  1  0  0  0  0
 21 39  1  0  0  0  0
 22 26  2  0  0  0  0
 22 40  1  0  0  0  0
 23 26  1  0  0  0  0
 23 41  1  0  0  0  0
 24 42  1  0  0  0  0
 24 43  1  0  0  0  0
 24 44  1  0  0  0  0
 25 45  1  0  0  0  0
 25 46  1  0  0  0  0
 25 47  1  0  0  0  0
M  END
> <PUBCHEM_COMPOUND_CID>
17396414

> <PUBCHEM_COMPOUND_CANONICALIZED>
1

> <PUBCHEM_CACTVS_COMPLEXITY>
473

> <PUBCHEM_CACTVS_HBOND_ACCEPTOR>
4

> <PUBCHEM_CACTVS_HBOND_DONOR>
1

> <PUBCHEM_CACTVS_ROTATABLE_BOND>
6

> <PUBCHEM_CACTVS_SUBSKEYS>
AAADceB7sAAEAAAAAAAAAAAAAAAAAWLAAAAwAAAAAAAAAAAB8AAAHgIUAAAADC7BnyQ/lJfcEACpA7d3dgCCgC01N6Ap2KE8ftqIbjqBm5OUMYhulhqIyWeYn4J+BAAAAAAAAAAIAAAAAAAAAAAAAAAAAA==

> <PUBCHEM_IUPAC_OPENEYE_NAME>
N-[(4-chlorophenyl)-(1-methylimidazol-2-yl)methyl]-3-(3,5-dimethylisoxazol-4-yl)propanamide

> <PUBCHEM_IUPAC_CAS_NAME>
N-[(4-chlorophenyl)-(1-methyl-2-imidazolyl)methyl]-3-(3,5-dimethyl-4-isoxazolyl)propanamide

> <PUBCHEM_IUPAC_NAME>
N-[(4-chlorophenyl)-(1-methylimidazol-2-yl)methyl]-3-(3,5-dimethyl-1,2-oxazol-4-yl)propanamide

> <PUBCHEM_IUPAC_SYSTEMATIC_NAME>
N-[(4-chlorophenyl)-(1-methylimidazol-2-yl)methyl]-3-(3,5-dimethyl-1,2-oxazol-4-yl)propanamide

> <PUBCHEM_IUPAC_TRADITIONAL_NAME>
N-[(4-chlorophenyl)-(1-methylimidazol-2-yl)methyl]-3-(3,5-dimethylisoxazol-4-yl)propionamide

> <PUBCHEM_IUPAC_INCHI>
InChI=1S/C19H21ClN4O2/c1-12-16(13(2)26-23-12)8-9-17(25)22-18(19-21-10-11-24(19)3)14-4-6-15(20)7-5-14/h4-7,10-11,18H,8-9H2,1-3H3,(H,22,25)

> <PUBCHEM_IUPAC_INCHIKEY>
CQUHSZSSAQJPPA-UHFFFAOYSA-N

> <PUBCHEM_XLOGP3_AA>
2.6

> <PUBCHEM_EXACT_MASS>
372.135304

> <PUBCHEM_MOLECULAR_FORMULA>
C19H21ClN4O2

> <PUBCHEM_MOLECULAR_WEIGHT>
372.84864

> <PUBCHEM_OPENEYE_CAN_SMILES>
CC1=C(C(=NO1)C)CCC(=O)NC(C2=CC=C(C=C2)Cl)C3=NC=CN3C

> <PUBCHEM_OPENEYE_ISO_SMILES>
CC1=C(C(=NO1)C)CCC(=O)NC(C2=CC=C(C=C2)Cl)C3=NC=CN3C

> <PUBCHEM_CACTVS_TPSA>
73

> <PUBCHEM_MONOISOTOPIC_WEIGHT>
372.135304

> <PUBCHEM_TOTAL_CHARGE>
0

> <PUBCHEM_HEAVY_ATOM_COUNT>
26

> <PUBCHEM_ATOM_DEF_STEREO_COUNT>
0

> <PUBCHEM_ATOM_UDEF_STEREO_COUNT>
1

> <PUBCHEM_BOND_DEF_STEREO_COUNT>
0

> <PUBCHEM_BOND_UDEF_STEREO_COUNT>
0

> <PUBCHEM_ISOTOPIC_ATOM_COUNT>
0

> <PUBCHEM_COMPONENT_COUNT>
1

> <PUBCHEM_CACTVS_TAUTO_COUNT>
2

> <PUBCHEM_COORDINATE_TYPE>
1
5
255

> <PUBCHEM_BONDANNOTATIONS>
12  17  8
12  18  8
13  15  8
13  16  8
17  22  8
18  23  8
19  21  8
2  15  8
2  7  8
22  26  8
23  26  8
8  4  3
5  19  8
5  9  8
6  21  8
6  9  8
7  16  8

$$$$

