56928133
  -OEChem-07051213152D

 56 58  0     1  0  0  0  0  0999 V2000
   10.2719    1.7500    0.0000 S   0  0  0  0  0  0  0  0  0  0  0  0
    6.8671    1.7500    0.0000 O   0  0  0  0  0  0  0  0  0  0  0  0
    8.2331    2.1160    0.0000 O   0  0  0  0  0  0  0  0  0  0  0  0
    6.8671   -1.2500    0.0000 O   0  0  0  0  0  0  0  0  0  0  0  0
   11.0809    0.1622    0.0000 O   0  0  0  0  0  0  0  0  0  0  0  0
    6.0010   -2.7500    0.0000 O   0  0  0  0  0  0  0  0  0  0  0  0
    9.3209    0.4410    0.0000 N   0  0  0  0  0  0  0  0  0  0  0  0
    7.7331    1.2500    0.0000 C   0  0  2  0  0  0  0  0  0  0  0  0
    6.0010    1.2500    0.0000 C   0  0  1  0  0  0  0  0  0  0  0  0
    7.7331    0.2500    0.0000 C   0  0  0  0  0  0  0  0  0  0  0  0
    6.8671   -0.2500    0.0000 C   0  0  1  0  0  0  0  0  0  0  0  0
    6.0010    0.2500    0.0000 C   0  0  0  0  0  0  0  0  0  0  0  0
    8.7331    1.2500    0.0000 C   0  0  2  0  0  0  0  0  0  0  0  0
    5.1350    1.7500    0.0000 C   0  0  0  0  0  0  0  0  0  0  0  0
    9.3209    2.0590    0.0000 C   0  0  0  0  0  0  0  0  0  0  0  0
    4.2690    1.2500    0.0000 C   0  0  0  0  0  0  0  0  0  0  0  0
    3.4030    1.7500    0.0000 C   0  0  2  0  0  0  0  0  0  0  0  0
   10.2719    0.7500    0.0000 C   0  0  0  0  0  0  0  0  0  0  0  0
    3.4030    2.7500    0.0000 C   0  0  0  0  0  0  0  0  0  0  0  0
    2.5369    1.2500    0.0000 C   0  0  0  0  0  0  0  0  0  0  0  0
    6.0010   -1.7500    0.0000 C   0  0  0  0  0  0  0  0  0  0  0  0
    2.5369    0.2500    0.0000 C   0  0  0  0  0  0  0  0  0  0  0  0
    5.1350   -1.2500    0.0000 C   0  0  0  0  0  0  0  0  0  0  0  0
    3.4030   -0.2500    0.0000 C   0  0  0  0  0  0  0  0  0  0  0  0
    3.4030   -1.2500    0.0000 C   0  0  0  0  0  0  0  0  0  0  0  0
    4.2690   -1.7500    0.0000 C   0  0  0  0  0  0  0  0  0  0  0  0
    4.2690   -2.7500    0.0000 C   0  0  0  0  0  0  0  0  0  0  0  0
    6.0010    2.1000    0.0000 H   0  0  0  0  0  0  0  0  0  0  0  0
    7.9451   -0.3326    0.0000 H   0  0  0  0  0  0  0  0  0  0  0  0
    8.3437    0.3577    0.0000 H   0  0  0  0  0  0  0  0  0  0  0  0
    7.6032   -0.6750    0.0000 H   0  0  0  0  0  0  0  0  0  0  0  0
    5.3905    0.3577    0.0000 H   0  0  0  0  0  0  0  0  0  0  0  0
    5.7890   -0.3326    0.0000 H   0  0  0  0  0  0  0  0  0  0  0  0
    9.5831    1.2500    0.0000 H   0  0  0  0  0  0  0  0  0  0  0  0
    5.5335    2.2250    0.0000 H   0  0  0  0  0  0  0  0  0  0  0  0
    4.7365    2.2250    0.0000 H   0  0  0  0  0  0  0  0  0  0  0  0
    9.5730    2.6254    0.0000 H   0  0  0  0  0  0  0  0  0  0  0  0
    8.7839    2.3690    0.0000 H   0  0  0  0  0  0  0  0  0  0  0  0
    3.8705    0.7751    0.0000 H   0  0  0  0  0  0  0  0  0  0  0  0
    4.6675    0.7751    0.0000 H   0  0  0  0  0  0  0  0  0  0  0  0
    9.1293   -0.1487    0.0000 H   0  0  0  0  0  0  0  0  0  0  0  0
    7.9231    2.6530    0.0000 H   0  0  0  0  0  0  0  0  0  0  0  0
    3.9399    2.0600    0.0000 H   0  0  0  0  0  0  0  0  0  0  0  0
    4.0230    2.7500    0.0000 H   0  0  0  0  0  0  0  0  0  0  0  0
    3.4030    3.3700    0.0000 H   0  0  0  0  0  0  0  0  0  0  0  0
    2.7830    2.7500    0.0000 H   0  0  0  0  0  0  0  0  0  0  0  0
    2.0000    1.5600    0.0000 H   0  0  0  0  0  0  0  0  0  0  0  0
    2.0000   -0.0600    0.0000 H   0  0  0  0  0  0  0  0  0  0  0  0
    5.1350   -0.6300    0.0000 H   0  0  0  0  0  0  0  0  0  0  0  0
    4.0135   -0.3577    0.0000 H   0  0  0  0  0  0  0  0  0  0  0  0
    3.6150    0.3326    0.0000 H   0  0  0  0  0  0  0  0  0  0  0  0
    2.7924   -1.1423    0.0000 H   0  0  0  0  0  0  0  0  0  0  0  0
    3.1909   -1.8326    0.0000 H   0  0  0  0  0  0  0  0  0  0  0  0
    3.6490   -2.7500    0.0000 H   0  0  0  0  0  0  0  0  0  0  0  0
    4.2690   -3.3700    0.0000 H   0  0  0  0  0  0  0  0  0  0  0  0
    4.8890   -2.7500    0.0000 H   0  0  0  0  0  0  0  0  0  0  0  0
  1 15  1  0  0  0  0
  1 18  1  0  0  0  0
  2  8  1  0  0  0  0
  2  9  1  0  0  0  0
  8  3  1  6  0  0  0
  3 42  1  0  0  0  0
  4 11  1  0  0  0  0
  4 21  1  0  0  0  0
  5 18  2  0  0  0  0
  6 21  2  0  0  0  0
  7 13  1  0  0  0  0
  7 18  1  0  0  0  0
  7 41  1  0  0  0  0
  8 10  1  0  0  0  0
  8 13  1  0  0  0  0
  9 12  1  0  0  0  0
  9 14  1  0  0  0  0
  9 28  1  6  0  0  0
 10 11  1  0  0  0  0
 10 29  1  0  0  0  0
 10 30  1  0  0  0  0
 11 12  1  0  0  0  0
 11 31  1  1  0  0  0
 12 32  1  0  0  0  0
 12 33  1  0  0  0  0
 13 15  1  0  0  0  0
 13 34  1  1  0  0  0
 14 16  1  0  0  0  0
 14 35  1  0  0  0  0
 14 36  1  0  0  0  0
 15 37  1  0  0  0  0
 15 38  1  0  0  0  0
 16 17  1  0  0  0  0
 16 39  1  0  0  0  0
 16 40  1  0  0  0  0
 17 19  1  1  0  0  0
 17 20  1  0  0  0  0
 17 43  1  0  0  0  0
 19 44  1  0  0  0  0
 19 45  1  0  0  0  0
 19 46  1  0  0  0  0
 20 22  2  0  0  0  0
 20 47  1  0  0  0  0
 21 23  1  0  0  0  0
 22 24  1  0  0  0  0
 22 48  1  0  0  0  0
 23 26  2  0  0  0  0
 23 49  1  0  0  0  0
 24 25  1  0  0  0  0
 24 50  1  0  0  0  0
 24 51  1  0  0  0  0
 25 26  1  0  0  0  0
 25 52  1  0  0  0  0
 25 53  1  0  0  0  0
 26 27  1  0  0  0  0
 27 54  1  0  0  0  0
 27 55  1  0  0  0  0
 27 56  1  0  0  0  0
M  END
> <PUBCHEM_COMPOUND_CID>
56928133

> <PUBCHEM_COMPOUND_CANONICALIZED>
1

> <PUBCHEM_CACTVS_COMPLEXITY>
634

> <PUBCHEM_CACTVS_HBOND_ACCEPTOR>
6

> <PUBCHEM_CACTVS_HBOND_DONOR>
2

> <PUBCHEM_CACTVS_ROTATABLE_BOND>
1

> <PUBCHEM_CACTVS_SUBSKEYS>
AAADceB6OABAAAAAAAAAAAAAAAAAAWAAAAAkAAAAAAAAAAAAAAAAHgQQCAAADTzlwAaCCALABgiIAiDSGAAAAABgABAICIAIAEgSBAIgoQAHUAAFlgAcIQOw4OQMAAAAAAAAAAAAAAAAAAAAAAAAAAAAAA==

> <PUBCHEM_IUPAC_OPENEYE_NAME>
(4R)-4-[(1R,4S,5Z,9E,13R,15R)-15-hydroxy-4,9-dimethyl-11-oxo-12,16-dioxabicyclo[11.3.1]heptadeca-5,9-dien-15-yl]thiazolidin-2-one

> <PUBCHEM_IUPAC_CAS_NAME>
(4R)-4-[(1R,4S,5Z,9E,13R,15R)-15-hydroxy-4,9-dimethyl-11-oxo-12,16-dioxabicyclo[11.3.1]heptadeca-5,9-dien-15-yl]-2-thiazolidinone

> <PUBCHEM_IUPAC_NAME>
(4R)-4-[(1R,4S,5Z,9E,13R,15R)-15-hydroxy-4,9-dimethyl-11-oxo-12,16-dioxabicyclo[11.3.1]heptadeca-5,9-dien-15-yl]-1,3-thiazolidin-2-one

> <PUBCHEM_IUPAC_SYSTEMATIC_NAME>
(4R)-4-[(1R,4S,5Z,9E,13R,15R)-4,9-dimethyl-15-oxidanyl-11-oxidanylidene-12,16-dioxabicyclo[11.3.1]heptadeca-5,9-dien-15-yl]-1,3-thiazolidin-2-one

> <PUBCHEM_IUPAC_TRADITIONAL_NAME>
(4R)-4-[(1R,4S,5Z,9E,13R,15R)-15-hydroxy-11-keto-4,9-dimethyl-12,16-dioxabicyclo[11.3.1]heptadeca-5,9-dien-15-yl]thiazolidin-2-one

> <PUBCHEM_IUPAC_INCHI>
InChI=1S/C20H29NO5S/c1-13-5-3-4-6-14(2)9-18(22)25-16-10-15(8-7-13)26-20(24,11-16)17-12-27-19(23)21-17/h3,5,9,13,15-17,24H,4,6-8,10-12H2,1-2H3,(H,21,23)/b5-3-,14-9+/t13-,15-,16-,17+,20-/m1/s1

> <PUBCHEM_IUPAC_INCHIKEY>
NSHPHXHGRHSMIK-BNZYTJOMSA-N

> <PUBCHEM_XLOGP3_AA>
2.9

> <PUBCHEM_EXACT_MASS>
395.176644

> <PUBCHEM_MOLECULAR_FORMULA>
C20H29NO5S

> <PUBCHEM_MOLECULAR_WEIGHT>
395.51296

> <PUBCHEM_OPENEYE_CAN_SMILES>
CC1CCC2CC(CC(O2)(C3CSC(=O)N3)O)OC(=O)C=C(CCC=C1)C

> <PUBCHEM_OPENEYE_ISO_SMILES>
C[C@H]/1CC[C@@H]2C[C@H](C[C@@](O2)([C@@H]3CSC(=O)N3)O)OC(=O)/C=C(/CC/C=C1)\C

> <PUBCHEM_CACTVS_TPSA>
110

> <PUBCHEM_MONOISOTOPIC_WEIGHT>
395.176644

> <PUBCHEM_TOTAL_CHARGE>
0

> <PUBCHEM_HEAVY_ATOM_COUNT>
27

> <PUBCHEM_ATOM_DEF_STEREO_COUNT>
5

> <PUBCHEM_ATOM_UDEF_STEREO_COUNT>
0

> <PUBCHEM_BOND_DEF_STEREO_COUNT>
2

> <PUBCHEM_BOND_UDEF_STEREO_COUNT>
0

> <PUBCHEM_ISOTOPIC_ATOM_COUNT>
0

> <PUBCHEM_COMPONENT_COUNT>
1

> <PUBCHEM_CACTVS_TAUTO_COUNT>
2

> <PUBCHEM_COORDINATE_TYPE>
1
5
255

> <PUBCHEM_BONDANNOTATIONS>
11  31  5
13  34  5
17  19  5
8  3  6
9  28  6

$$$$

