   Color/Form
        Prisms or needles from water
   from [1]HSDB

   Melting Point
        156.5 deg C
   from [2]HSDB

   Dissociation Constants
        pKa = 3.56
   from [3]HSDB

   Octanol/Water Partition Coefficient
        log Kow = 2.25
   from [4]HSDB

   Solubilities
        In water, 957 mg/L at 25 deg C
   from [5]HSDB

   Spectral Properties

     * MAX ABSORPTION (WATER, 0.1 N HYDROCHLORIC ACID): 278 NM (LOG E=
       3.11); 284 NM SHOULDER (LOG E= 3.01); SADTLER REFERENCE NUMBER: 259
       (IR, GRATING)
     * IR: 13139 (Sadtler Research Laboratories Prism Collection)
     * UV: 457 (Sadtler Research Laboratories Spectral Collection)
     * NMR: 500 (Varian Associates NMR Spectra Catalogue)
     * MASS: 30149 (NIST/EPA/MSDC Mass Spectral database, 1990 version)
     * Intense mass spectral: 141 m/z, 200 m/z

   from [6]HSDB

   Vapor Pressure
        3.2X10-4 mm Hg at 25 deg C (est)
   from [7]HSDB

   Other Chemical/Physical Properties

     * Henry's Law constant = 6.4X10-8 atm cu m/mol at 25 deg C (est)
     * Hydroxyl radical rate constant = 1.1X10-11 cu cm/molec-sec at 25
       deg C (est)

   from [8]HSDB

   Computed Properties
   Molecular Weight                  186.59238 [g/mol]
   Molecular Formula                 C[8]H[7]ClO[3]
   XLogP3                            2.2
   H-Bond Donor                      1
   H-Bond Acceptor                   3
   Rotatable Bond Count              3
   Exact Mass                        186.008372
   MonoIsotopic Mass                 186.008372
   Topological Polar Surface Area    46.5
   Heavy Atom Count                  12
   Formal Charge                     0
   Complexity                        152
   Isotope Atom Count                0
   Defined Atom Stereocenter Count   0
   Undefined Atom Stereocenter Count 0
   Defined Bond Stereocenter Count   0
   Undefined Bond Stereocenter Count 0
   Covalently-Bonded Unit Count      1
   Feature 3D Acceptor Count         3
   Feature 3D Anion Count            1
   Feature 3D Ring Count             1
   Effective Rotor Count             3
   Conformer Sampling RMSD           0.6
   CID Conformer Count               [9]12

References

   1. http://toxnet.nlm.nih.gov/cgi-bin/sis/search/r?dbs+hsdb:@term+@rn+@rel+122-88-3
   2. http://toxnet.nlm.nih.gov/cgi-bin/sis/search/r?dbs+hsdb:@term+@rn+@rel+122-88-3
   3. http://toxnet.nlm.nih.gov/cgi-bin/sis/search/r?dbs+hsdb:@term+@rn+@rel+122-88-3
   4. http://toxnet.nlm.nih.gov/cgi-bin/sis/search/r?dbs+hsdb:@term+@rn+@rel+122-88-3
   5. http://toxnet.nlm.nih.gov/cgi-bin/sis/search/r?dbs+hsdb:@term+@rn+@rel+122-88-3
   6. http://toxnet.nlm.nih.gov/cgi-bin/sis/search/r?dbs+hsdb:@term+@rn+@rel+122-88-3
   7. http://toxnet.nlm.nih.gov/cgi-bin/sis/search/r?dbs+hsdb:@term+@rn+@rel+122-88-3
   8. http://toxnet.nlm.nih.gov/cgi-bin/sis/search/r?dbs+hsdb:@term+@rn+@rel+122-88-3
   9. http://pubchem.ncbi.nlm.nih.gov/vw3d/vw3d.cgi?cid=26229
