   Color/Form
        Platelets from absolute ethanol
   from [1]HSDB

   Melting Point
        266-267 deg C
   from [2]HSDB

   Dissociation Constants
        pKa1 = 2.7; pKa2 = 9.9
   from [3]HSDB

   Octanol/Water Partition Coefficient
        log Kow = 0.60 (est)
   from [4]HSDB

   Solubilities

     * Slightly soluble in cold water, methanol, ethanol. Freely soluble
       in dilute aqueous hydrochloric acid or sodium hydroxide.
     * In water, 358 mg/L at 25 deg C (est)

   from [5]HSDB

   Spectral Properties
        UV max ethanol: 268 nm, epsilon = 18,650
   from [6]HSDB

   Vapor Pressure
        1.8X10-9 mm Hg at 25 deg C (est)
   from [7]HSDB

   Other Chemical/Physical Properties

     * Henry's Law constant= 1.2X10-14 atm-cu m/mole at 25 deg C (est)
     * Hydroxyl radical reaction rate constant = 3.1X10-10 cu cm/molec-sec
       at 25 deg C (est)

   from [8]HSDB

   Computed Properties
   Molecular Weight                  215.21136 [g/mol]
   Molecular Formula                 C[10]H[9]N[5]O
   XLogP3-AA                         1
   H-Bond Donor                      2
   H-Bond Acceptor                   5
   Rotatable Bond Count              3
   Tautomer Count                    8
   Exact Mass                        215.08071
   MonoIsotopic Mass                 215.08071
   Topological Polar Surface Area    79.6
   Heavy Atom Count                  16
   Formal Charge                     0
   Complexity                        239
   Isotope Atom Count                0
   Defined Atom Stereocenter Count   0
   Undefined Atom Stereocenter Count 0
   Defined Bond Stereocenter Count   0
   Undefined Bond Stereocenter Count 0
   Covalently-Bonded Unit Count      1
   Feature 3D Acceptor Count         1
   Feature 3D Donor Count            2
   Feature 3D Cation Count           3
   Feature 3D Ring Count             3
   Effective Rotor Count             3
   Conformer Sampling RMSD           0.6
   CID Conformer Count               [9]32

References

   1. http://toxnet.nlm.nih.gov/cgi-bin/sis/search/r?dbs+hsdb:@term+@rn+@rel+525-79-1
   2. http://toxnet.nlm.nih.gov/cgi-bin/sis/search/r?dbs+hsdb:@term+@rn+@rel+525-79-1
   3. http://toxnet.nlm.nih.gov/cgi-bin/sis/search/r?dbs+hsdb:@term+@rn+@rel+525-79-1
   4. http://toxnet.nlm.nih.gov/cgi-bin/sis/search/r?dbs+hsdb:@term+@rn+@rel+525-79-1
   5. http://toxnet.nlm.nih.gov/cgi-bin/sis/search/r?dbs+hsdb:@term+@rn+@rel+525-79-1
   6. http://toxnet.nlm.nih.gov/cgi-bin/sis/search/r?dbs+hsdb:@term+@rn+@rel+525-79-1
   7. http://toxnet.nlm.nih.gov/cgi-bin/sis/search/r?dbs+hsdb:@term+@rn+@rel+525-79-1
   8. http://toxnet.nlm.nih.gov/cgi-bin/sis/search/r?dbs+hsdb:@term+@rn+@rel+525-79-1
   9. http://pubchem.ncbi.nlm.nih.gov/vw3d/vw3d.cgi?cid=3830
