   Color/Form

     * ORTHORHOMBIC BISPHENOIDAL PRISMS
     * FINE, WHITE, OR PRACTICALLY WHITE, CRYSTALLINE POWDER

   from [1]HSDB

   Odor
        ODORLESS
   from [2]HSDB

   Taste
        VERY BITTER TASTE
   from [3]HSDB

   Melting Point
        176 DEG C
   from [4]HSDB

   Density/Specific Gravity
        1.395
   from [5]HSDB

   Dissociation Constants
        PK 7.8; KB 1.5X10-8
   from [6]HSDB

   pH
        NEUTRAL TO LITMUS
   from [7]HSDB

   Solubilities

     * PRACTICALLY INSOL IN VEGETABLE OILS; SLIGHTLY SOL IN NH4OH, HOT
       SOLN OF KOH & NAOH
     * SLIGHTLY SOL IN ALCOHOL & ETHER
     * INSOL IN WATER; SOL IN BENZENE & ACETONE

   from [8]HSDB

   Spectral Properties

     * INDEX OF REFRACTION: 1.5403
     * MAX ABSORPTION (ETHANOL): 209, 291, 309-310 NM (LOG E= 4.86, 3.60,
       3.69); SPECIFIC OPTICAL ROTATION: +32.7 @ 33 DEG C/D (WATER, 4.56%)
     * Intense mass spectral peaks: 58 m/z, 151 m/z, 191 m/z, 342 m/z, 413
       m/z

   from [9]HSDB

   Other Chemical/Physical Properties

     * SALTS FORMED WITH ACIDS ARE DEXTROROTATORY
     * ITS SOLN IN CHLOROFORM IS LEVOROTATORY
     * PKA 6.24; FREELY SOL IN ETHANOL; INSOL IN DIETHYL ETHER
       /HYDROCHLORIDE/
     * FINE, WHITE, OR PRACTICALLY WHITE, CRYSTALLINE POWDER; ODORLESS OR
       HAS SLIGHT ODOR OF ETHANOL; FREELY SOL IN CHLOROFORM & METHANOL;
       SOL IN ALCOHOL; SPARINGLY SOL IN ACETONE; PRACTICALLY INSOL IN
       ETHER; SOLN IN WATER IS DEXTROROTATORY; PH OF SOLN (1 IN 20)
       BETWEEN 2.5 & 3.5 /HYDROCHLORIDE/
     * HEMIHYDRATE TO TETRAHYDRATE, CRYSTALS; VERY SOL IN WATER
       /HYDROCHLORIDE/
     * CRYSTALS; FREELY SOL IN WATER; SOL IN METHANOL, ETHANOL; SLIGHTLY
       SOL IN ETHYL ACETATE; PRACTICALLY INSOL IN ETHER /CAMPHORSULFONATE/

   from [10]HSDB

   Computed Properties
   Molecular Weight                  413.42052 [g/mol]
   Molecular Formula                 C[22]H[23]NO[7]
   XLogP3-AA                         2.7
   H-Bond Donor                      0
   H-Bond Acceptor                   8
   Rotatable Bond Count              4
   Exact Mass                        413.147452
   MonoIsotopic Mass                 413.147452
   Topological Polar Surface Area    75.7
   Heavy Atom Count                  30
   Formal Charge                     0
   Complexity                        647
   Isotope Atom Count                0
   Defined Atom Stereocenter Count   2
   Undefined Atom Stereocenter Count 0
   Defined Bond Stereocenter Count   0
   Undefined Bond Stereocenter Count 0
   Covalently-Bonded Unit Count      1
   Feature 3D Acceptor Count         6
   Feature 3D Cation Count           1
   Feature 3D Ring Count             5
   Effective Rotor Count             5.8
   Conformer Sampling RMSD           0.8
   CID Conformer Count               [11]4

References

   1. http://toxnet.nlm.nih.gov/cgi-bin/sis/search/r?dbs+hsdb:@term+@rn+@rel+128-62-1
   2. http://toxnet.nlm.nih.gov/cgi-bin/sis/search/r?dbs+hsdb:@term+@rn+@rel+128-62-1
   3. http://toxnet.nlm.nih.gov/cgi-bin/sis/search/r?dbs+hsdb:@term+@rn+@rel+128-62-1
   4. http://toxnet.nlm.nih.gov/cgi-bin/sis/search/r?dbs+hsdb:@term+@rn+@rel+128-62-1
   5. http://toxnet.nlm.nih.gov/cgi-bin/sis/search/r?dbs+hsdb:@term+@rn+@rel+128-62-1
   6. http://toxnet.nlm.nih.gov/cgi-bin/sis/search/r?dbs+hsdb:@term+@rn+@rel+128-62-1
   7. http://toxnet.nlm.nih.gov/cgi-bin/sis/search/r?dbs+hsdb:@term+@rn+@rel+128-62-1
   8. http://toxnet.nlm.nih.gov/cgi-bin/sis/search/r?dbs+hsdb:@term+@rn+@rel+128-62-1
   9. http://toxnet.nlm.nih.gov/cgi-bin/sis/search/r?dbs+hsdb:@term+@rn+@rel+128-62-1
  10. http://toxnet.nlm.nih.gov/cgi-bin/sis/search/r?dbs+hsdb:@term+@rn+@rel+128-62-1
  11. http://pubchem.ncbi.nlm.nih.gov/vw3d/vw3d.cgi?cid=275196
