   Color/Form

     * Colorless crystals
     * White crystalline solid
     * Crystals from ether

   from [1]HSDB

   Odor
        Odorless
   from [2]HSDB

   Melting Point
        174-178 deg C
   from [3]HSDB

   Corrosivity
        Non-corrosive
   from [4]HSDB

   Dissociation Constants
        pKa = 3.4 (in water at 25 deg C)
   from [5]HSDB

   Octanol/Water Partition Coefficient
        log Kow = 0.74 at pH 5 and -1.34 at pH 7
   from [6]HSDB

   Solubilities

     * Solubility (22 deg C) : 57 g/L acetone; 102 g/L dichloromethane, 10
       mg/L hexane, 14 g/L methanol; 3 g/L toluene.
     * Low sol in hydrocarbon solvents.
     * In water, 125 mg/L at 25 deg C

   from [7]HSDB

   Vapor Pressure
        2.2X10-11 mm Hg at 25 deg C
   from [8]HSDB

   Other Chemical/Physical Properties

     * Decomposition temperature: 192 deg C
     * Henry's Law constant = 4.9X10-15 atm-cu m/mol at 25 deg C
     * Hydroxyl radical reaction rate constant = 2.5X10-11 cu cm/molec-sec
       at 25 deg C (est)

   from [9]HSDB

   Computed Properties
   Molecular Weight                  357.77278 [g/mol]
   Molecular Formula                 C[12]H[12]ClN[5]O[4]S
   XLogP3-AA                         2.3
   H-Bond Donor                      2
   H-Bond Acceptor                   7
   Rotatable Bond Count              4
   Tautomer Count                    9
   Exact Mass                        357.029853
   MonoIsotopic Mass                 357.029853
   Topological Polar Surface Area    132
   Heavy Atom Count                  23
   Formal Charge                     0
   Complexity                        514
   Isotope Atom Count                0
   Defined Atom Stereocenter Count   0
   Undefined Atom Stereocenter Count 0
   Defined Bond Stereocenter Count   0
   Undefined Bond Stereocenter Count 0
   Covalently-Bonded Unit Count      1
   Feature 3D Acceptor Count         3
   Feature 3D Donor Count            2
   Feature 3D Cation Count           2
   Feature 3D Ring Count             2
   Effective Rotor Count             6
   Conformer Sampling RMSD           0.8
   CID Conformer Count               [10]193

References

   1. http://toxnet.nlm.nih.gov/cgi-bin/sis/search/r?dbs+hsdb:@term+@rn+@rel+64902-72-3
   2. http://toxnet.nlm.nih.gov/cgi-bin/sis/search/r?dbs+hsdb:@term+@rn+@rel+64902-72-3
   3. http://toxnet.nlm.nih.gov/cgi-bin/sis/search/r?dbs+hsdb:@term+@rn+@rel+64902-72-3
   4. http://toxnet.nlm.nih.gov/cgi-bin/sis/search/r?dbs+hsdb:@term+@rn+@rel+64902-72-3
   5. http://toxnet.nlm.nih.gov/cgi-bin/sis/search/r?dbs+hsdb:@term+@rn+@rel+64902-72-3
   6. http://toxnet.nlm.nih.gov/cgi-bin/sis/search/r?dbs+hsdb:@term+@rn+@rel+64902-72-3
   7. http://toxnet.nlm.nih.gov/cgi-bin/sis/search/r?dbs+hsdb:@term+@rn+@rel+64902-72-3
   8. http://toxnet.nlm.nih.gov/cgi-bin/sis/search/r?dbs+hsdb:@term+@rn+@rel+64902-72-3
   9. http://toxnet.nlm.nih.gov/cgi-bin/sis/search/r?dbs+hsdb:@term+@rn+@rel+64902-72-3
  10. http://pubchem.ncbi.nlm.nih.gov/vw3d/vw3d.cgi?cid=47491
