   Color/Form

     * LIGHT YELLOW OIL
     * Viscous yellow oil.

   from [1]HSDB

   Odor
        No distinct odor
   from [2]HSDB

   Boiling Point
        114 deg C at 1.4 mm Hg.
   from [3]HSDB

   Solubilities
        Miscible with water in all proportions; soluble in polar organic
   solvents; insoluble in non-polar organic solvents
   from [4]HSDB

   Spectral Properties

     * Max absorption (water): 234 nm (E= 470.7); 345 nm (Log E= 5.3);
       index of refraction: 1.4540 @ 20 deg C/D
     * Index of refraction: 1.4849 at 20 deg C/D.

   from [5]HSDB

   Viscosity
        Highly viscous
   from [6]HSDB

   Other Chemical/Physical Properties

     * DECOMP @ APPROX 200 DEG C @ 14 MM HG
     * CAN BE REDUCED TO CORRESPONDING HYDRAZINE & OR AMINE; CYCLIZED BY
       SULFURIC ACID @ 155 DEG C TO FORM N-NITROSOMORPHOLINE
     * Not steam-volatile
     * Stable at room temperature for more than 14 days in neutral and
       alkaline aqueous solutions in the dark; slightly less stable in
       acidic solutions; light-sensitive, especially to UV light. Cyclized
       by sulfuric acid at 155 deg C to form N-nitrosomorpholine.

   from [7]HSDB

   Computed Properties
   Molecular Weight                  134.1338 [g/mol]
   Molecular Formula                 C[4]H[10]N[2]O[3]
   XLogP3                            -1.5
   H-Bond Donor                      2
   H-Bond Acceptor                   5
   Rotatable Bond Count              4
   Exact Mass                        134.069142
   MonoIsotopic Mass                 134.069142
   Topological Polar Surface Area    73.1
   Heavy Atom Count                  9
   Formal Charge                     0
   Complexity                        72.2
   Isotope Atom Count                0
   Defined Atom Stereocenter Count   0
   Undefined Atom Stereocenter Count 0
   Defined Bond Stereocenter Count   0
   Undefined Bond Stereocenter Count 0
   Covalently-Bonded Unit Count      1
   Feature 3D Acceptor Count         2
   Feature 3D Donor Count            2
   Effective Rotor Count             5
   Conformer Sampling RMSD           0.6
   CID Conformer Count               [8]79

References

   1. http://toxnet.nlm.nih.gov/cgi-bin/sis/search/r?dbs+hsdb:@term+@rn+@rel+1116-54-7
   2. http://toxnet.nlm.nih.gov/cgi-bin/sis/search/r?dbs+hsdb:@term+@rn+@rel+1116-54-7
   3. http://toxnet.nlm.nih.gov/cgi-bin/sis/search/r?dbs+hsdb:@term+@rn+@rel+1116-54-7
   4. http://toxnet.nlm.nih.gov/cgi-bin/sis/search/r?dbs+hsdb:@term+@rn+@rel+1116-54-7
   5. http://toxnet.nlm.nih.gov/cgi-bin/sis/search/r?dbs+hsdb:@term+@rn+@rel+1116-54-7
   6. http://toxnet.nlm.nih.gov/cgi-bin/sis/search/r?dbs+hsdb:@term+@rn+@rel+1116-54-7
   7. http://toxnet.nlm.nih.gov/cgi-bin/sis/search/r?dbs+hsdb:@term+@rn+@rel+1116-54-7
   8. http://pubchem.ncbi.nlm.nih.gov/vw3d/vw3d.cgi?cid=14223
