4936
  -OEChem-07051213122D

 50 51  0     1  0  0  0  0  0999 V2000
    6.0010    0.0000    0.0000 S   0  0  3  0  0  0  0  0  0  0  0  0
    8.5991   -1.5000    0.0000 O   0  0  0  0  0  0  0  0  0  0  0  0
    6.8671   -0.5000    0.0000 O   0  0  0  0  0  0  0  0  0  0  0  0
    5.1350   -0.5000    0.0000 O   0  0  0  0  0  0  0  0  0  0  0  0
    6.0010    1.0000    0.0000 O   0  0  0  0  0  0  0  0  0  0  0  0
    7.7331   -2.0000    0.0000 C   0  0  3  0  0  0  0  0  0  0  0  0
    6.8671   -1.5000    0.0000 C   0  0  3  0  0  0  0  0  0  0  0  0
    7.7331   -3.0000    0.0000 C   0  0  0  0  0  0  0  0  0  0  0  0
    6.0010   -2.0000    0.0000 C   0  0  0  0  0  0  0  0  0  0  0  0
    6.8671   -3.5000    0.0000 C   0  0  0  0  0  0  0  0  0  0  0  0
    6.0010   -3.0000    0.0000 C   0  0  0  0  0  0  0  0  0  0  0  0
    8.5991    2.5000    0.0000 C   0  0  0  0  0  0  0  0  0  0  0  0
    8.5991   -0.5000    0.0000 C   0  0  0  0  0  0  0  0  0  0  0  0
    8.5991    1.5000    0.0000 C   0  0  0  0  0  0  0  0  0  0  0  0
    9.4651    0.0000    0.0000 C   0  0  0  0  0  0  0  0  0  0  0  0
    7.7331    0.0000    0.0000 C   0  0  0  0  0  0  0  0  0  0  0  0
    9.4651    1.0000    0.0000 C   0  0  0  0  0  0  0  0  0  0  0  0
    7.7331    1.0000    0.0000 C   0  0  0  0  0  0  0  0  0  0  0  0
    8.5991    3.5000    0.0000 C   0  0  0  0  0  0  0  0  0  0  0  0
    9.5991    2.5000    0.0000 C   0  0  0  0  0  0  0  0  0  0  0  0
    7.5991    2.5000    0.0000 C   0  0  0  0  0  0  0  0  0  0  0  0
    4.2690    0.0000    0.0000 C   0  0  0  0  0  0  0  0  0  0  0  0
    3.4030   -0.5000    0.0000 C   0  0  0  0  0  0  0  0  0  0  0  0
    2.5369   -1.0000    0.0000 C   0  0  0  0  0  0  0  0  0  0  0  0
    7.7331   -1.3800    0.0000 H   0  0  0  0  0  0  0  0  0  0  0  0
    6.3301   -1.1900    0.0000 H   0  0  0  0  0  0  0  0  0  0  0  0
    7.9451   -3.5826    0.0000 H   0  0  0  0  0  0  0  0  0  0  0  0
    8.3437   -2.8923    0.0000 H   0  0  0  0  0  0  0  0  0  0  0  0
    5.7890   -1.4174    0.0000 H   0  0  0  0  0  0  0  0  0  0  0  0
    5.3905   -2.1077    0.0000 H   0  0  0  0  0  0  0  0  0  0  0  0
    6.4685   -3.9750    0.0000 H   0  0  0  0  0  0  0  0  0  0  0  0
    7.2656   -3.9750    0.0000 H   0  0  0  0  0  0  0  0  0  0  0  0
    5.3905   -2.8923    0.0000 H   0  0  0  0  0  0  0  0  0  0  0  0
    5.7890   -3.5826    0.0000 H   0  0  0  0  0  0  0  0  0  0  0  0
   10.0021   -0.3100    0.0000 H   0  0  0  0  0  0  0  0  0  0  0  0
    7.1962   -0.3100    0.0000 H   0  0  0  0  0  0  0  0  0  0  0  0
   10.0021    1.3100    0.0000 H   0  0  0  0  0  0  0  0  0  0  0  0
    7.1962    1.3100    0.0000 H   0  0  0  0  0  0  0  0  0  0  0  0
    7.5991    3.1200    0.0000 H   0  0  0  0  0  0  0  0  0  0  0  0
    6.9791    2.5000    0.0000 H   0  0  0  0  0  0  0  0  0  0  0  0
    7.5991    1.8800    0.0000 H   0  0  0  0  0  0  0  0  0  0  0  0
    9.5991    1.8800    0.0000 H   0  0  0  0  0  0  0  0  0  0  0  0
   10.2191    2.5000    0.0000 H   0  0  0  0  0  0  0  0  0  0  0  0
    9.5991    3.1200    0.0000 H   0  0  0  0  0  0  0  0  0  0  0  0
    9.2191    3.5000    0.0000 H   0  0  0  0  0  0  0  0  0  0  0  0
    8.5991    4.1200    0.0000 H   0  0  0  0  0  0  0  0  0  0  0  0
    7.9791    3.5000    0.0000 H   0  0  0  0  0  0  0  0  0  0  0  0
    4.6675    0.4749    0.0000 H   0  0  0  0  0  0  0  0  0  0  0  0
    3.8705    0.4749    0.0000 H   0  0  0  0  0  0  0  0  0  0  0  0
    2.0000   -1.3100    0.0000 H   0  0  0  0  0  0  0  0  0  0  0  0
  1  3  1  0  0  0  0
  1  4  1  0  0  0  0
  1  5  2  0  0  0  0
  2  6  1  0  0  0  0
  2 13  1  0  0  0  0
  3  7  1  0  0  0  0
  4 22  1  0  0  0  0
  6  7  1  0  0  0  0
  6  8  1  0  0  0  0
  6 25  1  0  0  0  0
  7  9  1  0  0  0  0
  7 26  1  0  0  0  0
  8 10  1  0  0  0  0
  8 27  1  0  0  0  0
  8 28  1  0  0  0  0
  9 11  1  0  0  0  0
  9 29  1  0  0  0  0
  9 30  1  0  0  0  0
 10 11  1  0  0  0  0
 10 31  1  0  0  0  0
 10 32  1  0  0  0  0
 11 33  1  0  0  0  0
 11 34  1  0  0  0  0
 12 14  1  0  0  0  0
 12 19  1  0  0  0  0
 12 20  1  0  0  0  0
 12 21  1  0  0  0  0
 13 15  2  0  0  0  0
 13 16  1  0  0  0  0
 14 17  2  0  0  0  0
 14 18  1  0  0  0  0
 15 17  1  0  0  0  0
 15 35  1  0  0  0  0
 16 18  2  0  0  0  0
 16 36  1  0  0  0  0
 17 37  1  0  0  0  0
 18 38  1  0  0  0  0
 19 45  1  0  0  0  0
 19 46  1  0  0  0  0
 19 47  1  0  0  0  0
 20 42  1  0  0  0  0
 20 43  1  0  0  0  0
 20 44  1  0  0  0  0
 21 39  1  0  0  0  0
 21 40  1  0  0  0  0
 21 41  1  0  0  0  0
 22 23  1  0  0  0  0
 22 48  1  0  0  0  0
 22 49  1  0  0  0  0
 23 24  3  0  0  0  0
 24 50  1  0  0  0  0
M  END
> <PUBCHEM_COMPOUND_CID>
4936

> <PUBCHEM_COMPOUND_CANONICALIZED>
1

> <PUBCHEM_CACTVS_COMPLEXITY>
454

> <PUBCHEM_CACTVS_HBOND_ACCEPTOR>
5

> <PUBCHEM_CACTVS_HBOND_DONOR>
0

> <PUBCHEM_CACTVS_ROTATABLE_BOND>
7

> <PUBCHEM_CACTVS_SUBSKEYS>
AAADceB4OABAAAAAAAAAAAAAAAAAAAAAAAAwYAAAAAAAAAABAAAAGgAAAAAADhSgmAIyBoAABADAGiBCACACCAAgIAAIiAAGCIgNJiKEMRqCOCCkwBEKqAeAwNAPoAAAAAAAAABAAAAAAACAAAAAAAAAAA==

> <PUBCHEM_IUPAC_OPENEYE_NAME>
[2-(4-tert-butylphenoxy)cyclohexyl] prop-2-ynyl sulfite

> <PUBCHEM_IUPAC_CAS_NAME>
sulfurous acid [2-(4-tert-butylphenoxy)cyclohexyl] prop-2-ynyl ester

> <PUBCHEM_IUPAC_NAME>
[2-(4-tert-butylphenoxy)cyclohexyl] prop-2-ynyl sulfite

> <PUBCHEM_IUPAC_SYSTEMATIC_NAME>
[2-(4-tert-butylphenoxy)cyclohexyl] prop-2-ynyl sulfite

> <PUBCHEM_IUPAC_TRADITIONAL_NAME>
sulfurous acid [2-(4-tert-butylphenoxy)cyclohexyl] propargyl ester

> <PUBCHEM_IUPAC_INCHI>
InChI=1S/C19H26O4S/c1-5-14-21-24(20)23-18-9-7-6-8-17(18)22-16-12-10-15(11-13-16)19(2,3)4/h1,10-13,17-18H,6-9,14H2,2-4H3

> <PUBCHEM_IUPAC_INCHIKEY>
ZYHMJXZULPZUED-UHFFFAOYSA-N

> <PUBCHEM_XLOGP3_AA>
5

> <PUBCHEM_EXACT_MASS>
350.15518

> <PUBCHEM_MOLECULAR_FORMULA>
C19H26O4S

> <PUBCHEM_MOLECULAR_WEIGHT>
350.47234

> <PUBCHEM_OPENEYE_CAN_SMILES>
CC(C)(C)C1=CC=C(C=C1)OC2CCCCC2OS(=O)OCC#C

> <PUBCHEM_OPENEYE_ISO_SMILES>
CC(C)(C)C1=CC=C(C=C1)OC2CCCCC2OS(=O)OCC#C

> <PUBCHEM_CACTVS_TPSA>
64

> <PUBCHEM_MONOISOTOPIC_WEIGHT>
350.15518

> <PUBCHEM_TOTAL_CHARGE>
0

> <PUBCHEM_HEAVY_ATOM_COUNT>
24

> <PUBCHEM_ATOM_DEF_STEREO_COUNT>
0

> <PUBCHEM_ATOM_UDEF_STEREO_COUNT>
3

> <PUBCHEM_BOND_DEF_STEREO_COUNT>
0

> <PUBCHEM_BOND_UDEF_STEREO_COUNT>
0

> <PUBCHEM_ISOTOPIC_ATOM_COUNT>
0

> <PUBCHEM_COMPONENT_COUNT>
1

> <PUBCHEM_CACTVS_TAUTO_COUNT>
1

> <PUBCHEM_COORDINATE_TYPE>
1
5
255

> <PUBCHEM_BONDANNOTATIONS>
1  3  3
13  15  8
13  16  8
14  17  8
14  18  8
15  17  8
16  18  8
6  2  3
7  3  3

$$$$

