3735
  -OEChem-07051212542D

 29 29  0     1  0  0  0  0  0999 V2000
    2.5369   -0.3100    0.0000 I   0  0  0  0  0  0  0  0  0  0  0  0
    6.0010   -0.3100    0.0000 I   0  0  0  0  0  0  0  0  0  0  0  0
    4.2690   -3.3100    0.0000 I   0  0  0  0  0  0  0  0  0  0  0  0
    6.0010    2.6900    0.0000 O   0  0  0  0  0  0  0  0  0  0  0  0
    4.2690    2.6900    0.0000 O   0  0  0  0  0  0  0  0  0  0  0  0
    2.5369   -2.3100    0.0000 N   0  0  0  0  0  0  0  0  0  0  0  0
    5.1350    1.1900    0.0000 C   0  0  3  0  0  0  0  0  0  0  0  0
    4.2690    0.6900    0.0000 C   0  0  0  0  0  0  0  0  0  0  0  0
    6.0010    0.6900    0.0000 C   0  0  0  0  0  0  0  0  0  0  0  0
    4.2690   -0.3100    0.0000 C   0  0  0  0  0  0  0  0  0  0  0  0
    5.1350    2.1900    0.0000 C   0  0  0  0  0  0  0  0  0  0  0  0
    6.8671    1.1900    0.0000 C   0  0  0  0  0  0  0  0  0  0  0  0
    3.4030   -0.8100    0.0000 C   0  0  0  0  0  0  0  0  0  0  0  0
    5.1350   -0.8100    0.0000 C   0  0  0  0  0  0  0  0  0  0  0  0
    3.4030   -1.8100    0.0000 C   0  0  0  0  0  0  0  0  0  0  0  0
    5.1350   -1.8100    0.0000 C   0  0  0  0  0  0  0  0  0  0  0  0
    4.2690   -2.3100    0.0000 C   0  0  0  0  0  0  0  0  0  0  0  0
    5.6720    1.5000    0.0000 H   0  0  0  0  0  0  0  0  0  0  0  0
    4.0569    1.2726    0.0000 H   0  0  0  0  0  0  0  0  0  0  0  0
    3.6584    0.5823    0.0000 H   0  0  0  0  0  0  0  0  0  0  0  0
    5.6025    0.2151    0.0000 H   0  0  0  0  0  0  0  0  0  0  0  0
    6.3996    0.2151    0.0000 H   0  0  0  0  0  0  0  0  0  0  0  0
    7.1771    0.6531    0.0000 H   0  0  0  0  0  0  0  0  0  0  0  0
    7.4040    1.5000    0.0000 H   0  0  0  0  0  0  0  0  0  0  0  0
    6.5571    1.7269    0.0000 H   0  0  0  0  0  0  0  0  0  0  0  0
    5.6720   -2.1200    0.0000 H   0  0  0  0  0  0  0  0  0  0  0  0
    6.0010    3.3100    0.0000 H   0  0  0  0  0  0  0  0  0  0  0  0
    2.5369   -2.9300    0.0000 H   0  0  0  0  0  0  0  0  0  0  0  0
    2.0000   -2.0000    0.0000 H   0  0  0  0  0  0  0  0  0  0  0  0
  1 13  1  0  0  0  0
  2 14  1  0  0  0  0
  3 17  1  0  0  0  0
  4 11  1  0  0  0  0
  4 27  1  0  0  0  0
  5 11  2  0  0  0  0
  6 15  1  0  0  0  0
  6 28  1  0  0  0  0
  6 29  1  0  0  0  0
  7  8  1  0  0  0  0
  7  9  1  0  0  0  0
  7 11  1  0  0  0  0
  7 18  1  0  0  0  0
  8 10  1  0  0  0  0
  8 19  1  0  0  0  0
  8 20  1  0  0  0  0
  9 12  1  0  0  0  0
  9 21  1  0  0  0  0
  9 22  1  0  0  0  0
 10 13  2  0  0  0  0
 10 14  1  0  0  0  0
 12 23  1  0  0  0  0
 12 24  1  0  0  0  0
 12 25  1  0  0  0  0
 13 15  1  0  0  0  0
 14 16  2  0  0  0  0
 15 17  2  0  0  0  0
 16 17  1  0  0  0  0
 16 26  1  0  0  0  0
M  END
> <PUBCHEM_COMPOUND_CID>
3735

> <PUBCHEM_COMPOUND_CANONICALIZED>
1

> <PUBCHEM_CACTVS_COMPLEXITY>
277

> <PUBCHEM_CACTVS_HBOND_ACCEPTOR>
3

> <PUBCHEM_CACTVS_HBOND_DONOR>
2

> <PUBCHEM_CACTVS_ROTATABLE_BOND>
4

> <PUBCHEM_CACTVS_SUBSKEYS>
AAADccByMAAAAwAAAAAAAAAAAAAAAAAAAAAwAAAAAAAAAAABAAAAHgAwCAAADQiDmAAyyIBAAgCIAiTSSACCAAAgAAAAiAEARIgIIDKAkJGAYABkgAAIyAeYyOCOAAAAQAAAAAAAAACAAAAAAAAAAAAAAA==

> <PUBCHEM_IUPAC_OPENEYE_NAME>
2-[(3-amino-2,4,6-triiodo-phenyl)methyl]butanoic acid

> <PUBCHEM_IUPAC_CAS_NAME>
2-[(3-amino-2,4,6-triiodophenyl)methyl]butanoic acid

> <PUBCHEM_IUPAC_NAME>
2-[(3-amino-2,4,6-triiodophenyl)methyl]butanoic acid

> <PUBCHEM_IUPAC_SYSTEMATIC_NAME>
2-[[3-azanyl-2,4,6-tris(iodanyl)phenyl]methyl]butanoic acid

> <PUBCHEM_IUPAC_TRADITIONAL_NAME>
2-(3-amino-2,4,6-triiodo-benzyl)butyric acid

> <PUBCHEM_IUPAC_INCHI>
InChI=1S/C11H12I3NO2/c1-2-5(11(16)17)3-6-7(12)4-8(13)10(15)9(6)14/h4-5H,2-3,15H2,1H3,(H,16,17)

> <PUBCHEM_IUPAC_INCHIKEY>
OIRFJRBSRORBCM-UHFFFAOYSA-N

> <PUBCHEM_XLOGP3_AA>
3.9

> <PUBCHEM_EXACT_MASS>
570.800223

> <PUBCHEM_MOLECULAR_FORMULA>
C11H12I3NO2

> <PUBCHEM_MOLECULAR_WEIGHT>
570.93189

> <PUBCHEM_OPENEYE_CAN_SMILES>
CCC(CC1=C(C(=C(C=C1I)I)N)I)C(=O)O

> <PUBCHEM_OPENEYE_ISO_SMILES>
CCC(CC1=C(C(=C(C=C1I)I)N)I)C(=O)O

> <PUBCHEM_CACTVS_TPSA>
63.3

> <PUBCHEM_MONOISOTOPIC_WEIGHT>
570.800223

> <PUBCHEM_TOTAL_CHARGE>
0

> <PUBCHEM_HEAVY_ATOM_COUNT>
17

> <PUBCHEM_ATOM_DEF_STEREO_COUNT>
0

> <PUBCHEM_ATOM_UDEF_STEREO_COUNT>
1

> <PUBCHEM_BOND_DEF_STEREO_COUNT>
0

> <PUBCHEM_BOND_UDEF_STEREO_COUNT>
0

> <PUBCHEM_ISOTOPIC_ATOM_COUNT>
0

> <PUBCHEM_COMPONENT_COUNT>
1

> <PUBCHEM_CACTVS_TAUTO_COUNT>
1

> <PUBCHEM_COORDINATE_TYPE>
1
5
255

> <PUBCHEM_BONDANNOTATIONS>
10  13  8
10  14  8
13  15  8
14  16  8
15  17  8
16  17  8
7  9  3

$$$$

