5281465
  -OEChem-07051212572D

 50 53  0     1  0  0  0  0  0999 V2000
    5.9507   -4.0622    0.0000 O   0  0  0  0  0  0  0  0  0  0  0  0
    3.7230   -2.2152    0.0000 O   0  0  0  0  0  0  0  0  0  0  0  0
    4.5447    0.9502    0.0000 O   0  0  0  0  0  0  0  0  0  0  0  0
    7.8718    0.4455    0.0000 O   0  0  0  0  0  0  0  0  0  0  0  0
    2.0000   -1.7830    0.0000 O   0  0  0  0  0  0  0  0  0  0  0  0
    6.1053    1.7017    0.0000 O   0  0  0  0  0  0  0  0  0  0  0  0
    5.6146   -3.1262    0.0000 C   0  0  1  0  0  0  0  0  0  0  0  0
    5.4786   -2.1414    0.0000 C   0  0  1  0  0  0  0  0  0  0  0  0
    6.5929   -3.3028    0.0000 C   0  0  1  0  0  0  0  0  0  0  0  0
    7.0647   -2.4279    0.0000 C   0  0  0  0  0  0  0  0  0  0  0  0
    6.3796   -1.7076    0.0000 C   0  0  0  0  0  0  0  0  0  0  0  0
    4.5777   -1.7076    0.0000 C   0  0  2  0  0  0  0  0  0  0  0  0
    4.3551   -0.7326    0.0000 C   0  0  1  0  0  0  0  0  0  0  0  0
    4.6305   -2.9485    0.0000 C   0  0  0  0  0  0  0  0  0  0  0  0
    6.6021   -0.7326    0.0000 C   0  0  0  0  0  0  0  0  0  0  0  0
    4.9786    0.0492    0.0000 C   0  0  1  0  0  0  0  0  0  0  0  0
    5.9786    0.0492    0.0000 C   0  0  0  0  0  0  0  0  0  0  0  0
    3.3648   -0.6461    0.0000 C   0  0  0  0  0  0  0  0  0  0  0  0
    2.9749   -1.5605    0.0000 C   0  0  0  0  0  0  0  0  0  0  0  0
    7.5770   -0.5101    0.0000 C   0  0  0  0  0  0  0  0  0  0  0  0
    2.8504    0.2115    0.0000 C   0  0  0  0  0  0  0  0  0  0  0  0
    5.1081    1.7764    0.0000 C   0  0  0  0  0  0  0  0  0  0  0  0
    4.6742    2.6774    0.0000 C   0  0  0  0  0  0  0  0  0  0  0  0
    3.6770    2.7521    0.0000 C   0  0  0  0  0  0  0  0  0  0  0  0
    5.2375    3.5036    0.0000 C   0  0  0  0  0  0  0  0  0  0  0  0
    6.2347    3.4289    0.0000 C   0  0  0  0  0  0  0  0  0  0  0  0
    4.7916   -2.6420    0.0000 H   0  0  0  0  0  0  0  0  0  0  0  0
    7.2952   -3.7816    0.0000 H   0  0  0  0  0  0  0  0  0  0  0  0
    7.5765   -2.7779    0.0000 H   0  0  0  0  0  0  0  0  0  0  0  0
    7.4666   -1.9557    0.0000 H   0  0  0  0  0  0  0  0  0  0  0  0
    4.6147   -2.5568    0.0000 H   0  0  0  0  0  0  0  0  0  0  0  0
    4.0200    0.0485    0.0000 H   0  0  0  0  0  0  0  0  0  0  0  0
    4.7407   -2.3384    0.0000 H   0  0  0  0  0  0  0  0  0  0  0  0
    4.0204   -2.8383    0.0000 H   0  0  0  0  0  0  0  0  0  0  0  0
    4.5204   -3.5586    0.0000 H   0  0  0  0  0  0  0  0  0  0  0  0
    4.3625    0.1186    0.0000 H   0  0  0  0  0  0  0  0  0  0  0  0
    6.5372    0.3182    0.0000 H   0  0  0  0  0  0  0  0  0  0  0  0
    5.8407    0.6536    0.0000 H   0  0  0  0  0  0  0  0  0  0  0  0
    7.6080   -1.1294    0.0000 H   0  0  0  0  0  0  0  0  0  0  0  0
    8.1922   -0.5872    0.0000 H   0  0  0  0  0  0  0  0  0  0  0  0
    3.1514    0.7535    0.0000 H   0  0  0  0  0  0  0  0  0  0  0  0
    2.2305    0.2011    0.0000 H   0  0  0  0  0  0  0  0  0  0  0  0
    8.4763    0.5834    0.0000 H   0  0  0  0  0  0  0  0  0  0  0  0
    3.7233    3.3704    0.0000 H   0  0  0  0  0  0  0  0  0  0  0  0
    3.0587    2.7984    0.0000 H   0  0  0  0  0  0  0  0  0  0  0  0
    3.6306    2.1338    0.0000 H   0  0  0  0  0  0  0  0  0  0  0  0
    4.9685    4.0622    0.0000 H   0  0  0  0  0  0  0  0  0  0  0  0
    6.1884    2.8106    0.0000 H   0  0  0  0  0  0  0  0  0  0  0  0
    6.8530    3.3825    0.0000 H   0  0  0  0  0  0  0  0  0  0  0  0
    6.2810    4.0471    0.0000 H   0  0  0  0  0  0  0  0  0  0  0  0
  1  7  1  0  0  0  0
  1  9  1  0  0  0  0
  2 12  1  0  0  0  0
  2 19  1  0  0  0  0
 16  3  1  6  0  0  0
  3 22  1  0  0  0  0
  4 20  1  0  0  0  0
  4 43  1  0  0  0  0
  5 19  2  0  0  0  0
  6 22  2  0  0  0  0
  7  8  1  0  0  0  0
  7  9  1  0  0  0  0
  7 14  1  6  0  0  0
  8 11  1  0  0  0  0
  8 12  1  0  0  0  0
  8 27  1  1  0  0  0
  9 10  1  0  0  0  0
  9 28  1  6  0  0  0
 10 11  1  0  0  0  0
 10 29  1  0  0  0  0
 10 30  1  0  0  0  0
 11 15  2  0  0  0  0
 12 13  1  0  0  0  0
 12 31  1  6  0  0  0
 13 16  1  0  0  0  0
 13 18  1  0  0  0  0
 13 32  1  1  0  0  0
 14 33  1  0  0  0  0
 14 34  1  0  0  0  0
 14 35  1  0  0  0  0
 15 17  1  0  0  0  0
 15 20  1  0  0  0  0
 16 17  1  0  0  0  0
 16 36  1  0  0  0  0
 17 37  1  0  0  0  0
 17 38  1  0  0  0  0
 18 19  1  0  0  0  0
 18 21  2  0  0  0  0
 20 39  1  0  0  0  0
 20 40  1  0  0  0  0
 21 41  1  0  0  0  0
 21 42  1  0  0  0  0
 22 23  1  0  0  0  0
 23 24  1  0  0  0  0
 23 25  2  0  0  0  0
 24 44  1  0  0  0  0
 24 45  1  0  0  0  0
 24 46  1  0  0  0  0
 25 26  1  0  0  0  0
 25 47  1  0  0  0  0
 26 48  1  0  0  0  0
 26 49  1  0  0  0  0
 26 50  1  0  0  0  0
M  END
> <PUBCHEM_COMPOUND_CID>
5281465

> <PUBCHEM_COMPOUND_CANONICALIZED>
1

> <PUBCHEM_CACTVS_COMPLEXITY>
762

> <PUBCHEM_CACTVS_HBOND_ACCEPTOR>
6

> <PUBCHEM_CACTVS_HBOND_DONOR>
1

> <PUBCHEM_CACTVS_ROTATABLE_BOND>
4

> <PUBCHEM_CACTVS_SUBSKEYS>
AAADceB4OAAAAAAAAAAAAAAAEgAAAaIAAAAkAAAABAAAAACAAAAAGgAACAAADVSggAICCAAABgCIAiDSCAAAAAAgAAAACAEAAEgAFBIAIQACUAAFwAAIMYPK6PyOgAAAAAAAAAAAAAAAAAAAAIAADAAAAA==

> <PUBCHEM_IUPAC_INCHI>
InChI=1S/C20H24O6/c1-5-9(2)18(22)24-13-6-11(8-21)12-7-14-20(4,26-14)16(12)17-15(13)10(3)19(23)25-17/h5,13-17,21H,3,6-8H2,1-2,4H3/b9-5-/t13-,14-,15-,16+,17+,20-/m1/s1

> <PUBCHEM_IUPAC_INCHIKEY>
IWNYNBDVMJGLFZ-IUJWRRDJSA-N

> <PUBCHEM_XLOGP3_AA>
0.9

> <PUBCHEM_EXACT_MASS>
360.157288

> <PUBCHEM_MOLECULAR_FORMULA>
C20H24O6

> <PUBCHEM_MOLECULAR_WEIGHT>
360.40096

> <PUBCHEM_OPENEYE_CAN_SMILES>
CC=C(C)C(=O)OC1CC(=C2CC3C(C2C4C1C(=C)C(=O)O4)(O3)C)CO

> <PUBCHEM_OPENEYE_ISO_SMILES>
C/C=C(/C)\C(=O)O[C@@H]1CC(=C2C[C@@H]3[C@]([C@@H]2[C@@H]4[C@@H]1C(=C)C(=O)O4)(O3)C)CO

> <PUBCHEM_CACTVS_TPSA>
85.4

> <PUBCHEM_MONOISOTOPIC_WEIGHT>
360.157288

> <PUBCHEM_TOTAL_CHARGE>
0

> <PUBCHEM_HEAVY_ATOM_COUNT>
26

> <PUBCHEM_ATOM_DEF_STEREO_COUNT>
6

> <PUBCHEM_ATOM_UDEF_STEREO_COUNT>
0

> <PUBCHEM_BOND_DEF_STEREO_COUNT>
1

> <PUBCHEM_BOND_UDEF_STEREO_COUNT>
0

> <PUBCHEM_ISOTOPIC_ATOM_COUNT>
0

> <PUBCHEM_COMPONENT_COUNT>
1

> <PUBCHEM_CACTVS_TAUTO_COUNT>
1

> <PUBCHEM_COORDINATE_TYPE>
1
5
255

> <PUBCHEM_BONDANNOTATIONS>
12  31  6
13  32  5
16  3  6
7  14  6
8  27  5
9  28  6

$$$$

