   Color/Form

     * Crystals from benzene
     * Colorless leaflets
     * Yellow tablets
     * CRYSTALS FROM ALC, PLATES FROM ETHER

   from [1]HSDB

   Odor
        Slight odor of mercaptans
   from [2]HSDB

   Melting Point
        113-114 deg C
   from [3]HSDB

   Dissociation Constants
        pKa= 13.40
   from [4]HSDB

   Octanol/Water Partition Coefficient
        log Kow = -0.26
   from [5]HSDB

   Solubilities

     * In ethanol 26.4 g/100 g; sparingly sol in ether
     * Miscible in benzene
     * MISCIBLE IN PETROLEUM ETHER
     * In water, 1.63X10+5 mg/l @ 25 deg C.

   from [6]HSDB

   Spectral Properties

     * Max absorption (water): 210 nm (log e= 3.66); 261 nm (log e= 4.08);
       318 nm (log e= 1.8)
     * MAX ABSORPTION (ALCOHOL): 210 NM (LOG E=3.66); 260 NM (LOG E=4.08);
       SADTLER REF NUMBER: 5970 (IR, PRISM)
     * IR: 8440 (Sadtler Research Laboratories IR Grating Collection)
     * UV: 11494 (Sadtler Research Laboratories Spectral Collection)
     * NMR: 10254 (Sadtler Research Laboratories Spectral Collection)
     * MASS: 3986 (National Bureau of Standards EPA-NIH Mass Spectra Data
       Base, NSRDS-NBS-63)

   from [7]HSDB

   Computed Properties
   Molecular Weight                  75.1328 [g/mol]
   Molecular Formula                 C[2]H[5]NS
   XLogP3-AA                         -0.3
   H-Bond Donor                      1
   H-Bond Acceptor                   1
   Rotatable Bond Count              0
   Tautomer Count                    3
   Exact Mass                        75.01427
   MonoIsotopic Mass                 75.01427
   Topological Polar Surface Area    58.1
   Heavy Atom Count                  4
   Formal Charge                     0
   Complexity                        33
   Isotope Atom Count                0
   Defined Atom Stereocenter Count   0
   Undefined Atom Stereocenter Count 0
   Defined Bond Stereocenter Count   0
   Undefined Bond Stereocenter Count 0
   Covalently-Bonded Unit Count      1
   Feature 3D Acceptor Count         1
   Effective Rotor Count             0
   Conformer Sampling RMSD           0.4
   CID Conformer Count               [8]1

References

   1. http://toxnet.nlm.nih.gov/cgi-bin/sis/search/r?dbs+hsdb:@term+@rn+@rel+62-55-5
   2. http://toxnet.nlm.nih.gov/cgi-bin/sis/search/r?dbs+hsdb:@term+@rn+@rel+62-55-5
   3. http://toxnet.nlm.nih.gov/cgi-bin/sis/search/r?dbs+hsdb:@term+@rn+@rel+62-55-5
   4. http://toxnet.nlm.nih.gov/cgi-bin/sis/search/r?dbs+hsdb:@term+@rn+@rel+62-55-5
   5. http://toxnet.nlm.nih.gov/cgi-bin/sis/search/r?dbs+hsdb:@term+@rn+@rel+62-55-5
   6. http://toxnet.nlm.nih.gov/cgi-bin/sis/search/r?dbs+hsdb:@term+@rn+@rel+62-55-5
   7. http://toxnet.nlm.nih.gov/cgi-bin/sis/search/r?dbs+hsdb:@term+@rn+@rel+62-55-5
   8. http://pubchem.ncbi.nlm.nih.gov/vw3d/vw3d.cgi?cid=2723949
