68231
  -OEChem-07051212582D

 24 25  0     1  0  0  0  0  0999 V2000
    2.0000   -0.6224    0.0000 N   0  0  0  0  0  0  0  0  0  0  0  0
    4.6783   -0.9271    0.0000 C   0  0  1  0  0  0  0  0  0  0  0  0
    5.2619   -0.1224    0.0000 C   0  0  0  0  0  0  0  0  0  0  0  0
    4.6783    0.6824    0.0000 C   0  0  0  0  0  0  0  0  0  0  0  0
    3.7320   -0.6224    0.0000 C   0  0  0  0  0  0  0  0  0  0  0  0
    3.7320    0.3776    0.0000 C   0  0  0  0  0  0  0  0  0  0  0  0
    4.9889   -1.8776    0.0000 C   0  0  0  0  0  0  0  0  0  0  0  0
    2.8660    0.8776    0.0000 C   0  0  0  0  0  0  0  0  0  0  0  0
    2.8660   -1.1224    0.0000 C   0  0  0  0  0  0  0  0  0  0  0  0
    2.0000    0.3776    0.0000 C   0  0  0  0  0  0  0  0  0  0  0  0
    2.8660    1.8776    0.0000 C   0  0  0  0  0  0  0  0  0  0  0  0
    5.2908   -1.0233    0.0000 H   0  0  0  0  0  0  0  0  0  0  0  0
    5.7227   -0.5371    0.0000 H   0  0  0  0  0  0  0  0  0  0  0  0
    5.7227    0.2924    0.0000 H   0  0  0  0  0  0  0  0  0  0  0  0
    5.2156    0.9916    0.0000 H   0  0  0  0  0  0  0  0  0  0  0  0
    4.4272    1.2493    0.0000 H   0  0  0  0  0  0  0  0  0  0  0  0
    4.3996   -2.0702    0.0000 H   0  0  0  0  0  0  0  0  0  0  0  0
    5.1815   -2.4670    0.0000 H   0  0  0  0  0  0  0  0  0  0  0  0
    5.5783   -1.6850    0.0000 H   0  0  0  0  0  0  0  0  0  0  0  0
    2.8660   -1.7424    0.0000 H   0  0  0  0  0  0  0  0  0  0  0  0
    1.4631    0.6876    0.0000 H   0  0  0  0  0  0  0  0  0  0  0  0
    3.4860    1.8776    0.0000 H   0  0  0  0  0  0  0  0  0  0  0  0
    2.8660    2.4976    0.0000 H   0  0  0  0  0  0  0  0  0  0  0  0
    2.2460    1.8776    0.0000 H   0  0  0  0  0  0  0  0  0  0  0  0
  1  9  1  0  0  0  0
  1 10  2  0  0  0  0
  2  3  1  0  0  0  0
  2  5  1  0  0  0  0
  2  7  1  6  0  0  0
  2 12  1  0  0  0  0
  3  4  1  0  0  0  0
  3 13  1  0  0  0  0
  3 14  1  0  0  0  0
  4  6  1  0  0  0  0
  4 15  1  0  0  0  0
  4 16  1  0  0  0  0
  5  6  1  0  0  0  0
  5  9  2  0  0  0  0
  6  8  2  0  0  0  0
  7 17  1  0  0  0  0
  7 18  1  0  0  0  0
  7 19  1  0  0  0  0
  8 10  1  0  0  0  0
  8 11  1  0  0  0  0
  9 20  1  0  0  0  0
 10 21  1  0  0  0  0
 11 22  1  0  0  0  0
 11 23  1  0  0  0  0
 11 24  1  0  0  0  0
M  END
> <PUBCHEM_COMPOUND_CID>
68231

> <PUBCHEM_COMPOUND_CANONICALIZED>
1

> <PUBCHEM_CACTVS_COMPLEXITY>
144

> <PUBCHEM_CACTVS_HBOND_ACCEPTOR>
1

> <PUBCHEM_CACTVS_HBOND_DONOR>
0

> <PUBCHEM_CACTVS_ROTATABLE_BOND>
0

> <PUBCHEM_CACTVS_SUBSKEYS>
AAADccByAAAAAAAAAAAAAAAAAAAAAYAAAAAsAAAAAAAAAFgBgAAAHAAAAAAADQDBGgQugJIIEACgAhBnRACCgCAxACAA2CAoRJgIIGLAkZGEIAhggADIyAcQgMAOgAAAAAAAAAAAAAAAAAAAAQAACAAAAA==

> <PUBCHEM_IUPAC_OPENEYE_NAME>
(7S)-4,7-dimethyl-6,7-dihydro-5H-cyclopenta[c]pyridine

> <PUBCHEM_IUPAC_CAS_NAME>
(7S)-4,7-dimethyl-6,7-dihydro-5H-cyclopenta[c]pyridine

> <PUBCHEM_IUPAC_NAME>
(7S)-4,7-dimethyl-6,7-dihydro-5H-cyclopenta[c]pyridine

> <PUBCHEM_IUPAC_SYSTEMATIC_NAME>
(7S)-4,7-dimethyl-6,7-dihydro-5H-cyclopenta[c]pyridine

> <PUBCHEM_IUPAC_TRADITIONAL_NAME>
(7S)-4,7-dimethyl-2-pyrindan

> <PUBCHEM_IUPAC_INCHI>
InChI=1S/C10H13N/c1-7-3-4-9-8(2)5-11-6-10(7)9/h5-7H,3-4H2,1-2H3/t7-/m0/s1

> <PUBCHEM_IUPAC_INCHIKEY>
ZHQQRIUYLMXDPP-ZETCQYMHSA-N

> <PUBCHEM_XLOGP3_AA>
2.4

> <PUBCHEM_EXACT_MASS>
147.104799

> <PUBCHEM_MOLECULAR_FORMULA>
C10H13N

> <PUBCHEM_MOLECULAR_WEIGHT>
147.21692

> <PUBCHEM_OPENEYE_CAN_SMILES>
CC1CCC2=C(C=NC=C12)C

> <PUBCHEM_OPENEYE_ISO_SMILES>
C[C@H]1CCC2=C(C=NC=C12)C

> <PUBCHEM_CACTVS_TPSA>
12.9

> <PUBCHEM_MONOISOTOPIC_WEIGHT>
147.104799

> <PUBCHEM_TOTAL_CHARGE>
0

> <PUBCHEM_HEAVY_ATOM_COUNT>
11

> <PUBCHEM_ATOM_DEF_STEREO_COUNT>
1

> <PUBCHEM_ATOM_UDEF_STEREO_COUNT>
0

> <PUBCHEM_BOND_DEF_STEREO_COUNT>
0

> <PUBCHEM_BOND_UDEF_STEREO_COUNT>
0

> <PUBCHEM_ISOTOPIC_ATOM_COUNT>
0

> <PUBCHEM_COMPONENT_COUNT>
1

> <PUBCHEM_CACTVS_TAUTO_COUNT>
1

> <PUBCHEM_COORDINATE_TYPE>
1
5
255

> <PUBCHEM_BONDANNOTATIONS>
1  10  8
1  9  8
2  7  6
5  6  8
5  9  8
6  8  8
8  10  8

$$$$

