44468060
  -OEChem-07051213082D

 68 72  0     1  0  0  0  0  0999 V2000
    5.1350    1.6379    0.0000 O   0  0  0  0  0  0  0  0  0  0  0  0
    6.8671   -0.3621    0.0000 O   0  0  0  0  0  0  0  0  0  0  0  0
    6.0010   -1.8621    0.0000 O   0  0  0  0  0  0  0  0  0  0  0  0
    5.1350   -1.3621    0.0000 O   0  0  0  0  0  0  0  0  0  0  0  0
    3.4030   -0.3621    0.0000 O   0  0  0  0  0  0  0  0  0  0  0  0
    8.5991   -1.3621    0.0000 O   0  0  0  0  0  0  0  0  0  0  0  0
    8.5991   -3.3621    0.0000 O   0  0  0  0  0  0  0  0  0  0  0  0
    2.5369    1.1379    0.0000 O   0  0  0  0  0  0  0  0  0  0  0  0
    6.8671   -4.3621    0.0000 O   0  0  0  0  0  0  0  0  0  0  0  0
    7.7331    0.1379    0.0000 O   0  0  0  0  0  0  0  0  0  0  0  0
    6.0010    3.1379    0.0000 O   0  0  0  0  0  0  0  0  0  0  0  0
    9.4931    3.1726    0.0000 O   0  0  0  0  0  0  0  0  0  0  0  0
    9.4815    0.1033    0.0000 O   0  0  0  0  0  0  0  0  0  0  0  0
   13.8555    4.6721    0.0000 O   0  0  0  0  0  0  0  0  0  0  0  0
    6.0010    0.1379    0.0000 C   0  0  2  0  0  0  0  0  0  0  0  0
    5.1350   -0.3621    0.0000 C   0  0  2  0  0  0  0  0  0  0  0  0
    6.0010    1.1379    0.0000 C   0  0  2  0  0  0  0  0  0  0  0  0
    4.2690    0.1379    0.0000 C   0  0  1  0  0  0  0  0  0  0  0  0
    4.2690    1.1379    0.0000 C   0  0  1  0  0  0  0  0  0  0  0  0
    6.8671   -1.3621    0.0000 C   0  0  2  0  0  0  0  0  0  0  0  0
    7.7331   -1.8621    0.0000 C   0  0  1  0  0  0  0  0  0  0  0  0
    6.8671    1.6379    0.0000 C   0  0  0  0  0  0  0  0  0  0  0  0
    7.7331   -2.8621    0.0000 C   0  0  2  0  0  0  0  0  0  0  0  0
    3.4030    1.6379    0.0000 C   0  0  0  0  0  0  0  0  0  0  0  0
    6.8671   -3.3621    0.0000 C   0  0  2  0  0  0  0  0  0  0  0  0
    6.0010   -2.8621    0.0000 C   0  0  0  0  0  0  0  0  0  0  0  0
    7.7331    1.1379    0.0000 C   0  0  0  0  0  0  0  0  0  0  0  0
    6.8671    2.6379    0.0000 C   0  0  0  0  0  0  0  0  0  0  0  0
    8.5991    1.6379    0.0000 C   0  0  0  0  0  0  0  0  0  0  0  0
    7.7331    3.1379    0.0000 C   0  0  0  0  0  0  0  0  0  0  0  0
    8.5991    2.6379    0.0000 C   0  0  0  0  0  0  0  0  0  0  0  0
    9.4931    1.1033    0.0000 C   0  0  0  0  0  0  0  0  0  0  0  0
   10.3991    1.6171    0.0000 C   0  0  0  0  0  0  0  0  0  0  0  0
   10.3991    2.6587    0.0000 C   0  0  0  0  0  0  0  0  0  0  0  0
   11.2632    3.1621    0.0000 C   0  0  0  0  0  0  0  0  0  0  0  0
   12.1312    2.6654    0.0000 C   0  0  0  0  0  0  0  0  0  0  0  0
   11.2594    4.1621    0.0000 C   0  0  0  0  0  0  0  0  0  0  0  0
   12.9953    3.1688    0.0000 C   0  0  0  0  0  0  0  0  0  0  0  0
   12.1235    4.6654    0.0000 C   0  0  0  0  0  0  0  0  0  0  0  0
   12.9914    4.1687    0.0000 C   0  0  0  0  0  0  0  0  0  0  0  0
    6.5380    0.4479    0.0000 H   0  0  0  0  0  0  0  0  0  0  0  0
    5.6720   -0.6721    0.0000 H   0  0  0  0  0  0  0  0  0  0  0  0
    6.7372    0.7129    0.0000 H   0  0  0  0  0  0  0  0  0  0  0  0
    4.2690   -0.4821    0.0000 H   0  0  0  0  0  0  0  0  0  0  0  0
    4.2690    1.7579    0.0000 H   0  0  0  0  0  0  0  0  0  0  0  0
    6.3301   -1.0521    0.0000 H   0  0  0  0  0  0  0  0  0  0  0  0
    7.7331   -1.2421    0.0000 H   0  0  0  0  0  0  0  0  0  0  0  0
    7.7331   -3.4821    0.0000 H   0  0  0  0  0  0  0  0  0  0  0  0
    3.8015    2.1129    0.0000 H   0  0  0  0  0  0  0  0  0  0  0  0
    3.0044    2.1129    0.0000 H   0  0  0  0  0  0  0  0  0  0  0  0
    6.3301   -3.6721    0.0000 H   0  0  0  0  0  0  0  0  0  0  0  0
    5.3905   -2.7544    0.0000 H   0  0  0  0  0  0  0  0  0  0  0  0
    5.7890   -3.4447    0.0000 H   0  0  0  0  0  0  0  0  0  0  0  0
    4.5981   -1.6721    0.0000 H   0  0  0  0  0  0  0  0  0  0  0  0
    3.4030   -0.9821    0.0000 H   0  0  0  0  0  0  0  0  0  0  0  0
    9.1360   -1.6721    0.0000 H   0  0  0  0  0  0  0  0  0  0  0  0
    7.7331    3.7579    0.0000 H   0  0  0  0  0  0  0  0  0  0  0  0
    8.5991   -3.9821    0.0000 H   0  0  0  0  0  0  0  0  0  0  0  0
    2.0000    1.4479    0.0000 H   0  0  0  0  0  0  0  0  0  0  0  0
    6.3301   -4.6721    0.0000 H   0  0  0  0  0  0  0  0  0  0  0  0
    8.2700   -0.1721    0.0000 H   0  0  0  0  0  0  0  0  0  0  0  0
    6.0010    3.7579    0.0000 H   0  0  0  0  0  0  0  0  0  0  0  0
   10.9349    1.3050    0.0000 H   0  0  0  0  0  0  0  0  0  0  0  0
   12.1336    2.0454    0.0000 H   0  0  0  0  0  0  0  0  0  0  0  0
   10.7212    4.4700    0.0000 H   0  0  0  0  0  0  0  0  0  0  0  0
   13.5334    2.8608    0.0000 H   0  0  0  0  0  0  0  0  0  0  0  0
   12.1211    5.2854    0.0000 H   0  0  0  0  0  0  0  0  0  0  0  0
   14.3936    4.3642    0.0000 H   0  0  0  0  0  0  0  0  0  0  0  0
  1 17  1  0  0  0  0
  1 19  1  0  0  0  0
 15  2  1  6  0  0  0
 20  2  1  1  0  0  0
  3 20  1  0  0  0  0
  3 26  1  0  0  0  0
 16  4  1  1  0  0  0
  4 54  1  0  0  0  0
 18  5  1  6  0  0  0
  5 55  1  0  0  0  0
 21  6  1  6  0  0  0
  6 56  1  0  0  0  0
 23  7  1  1  0  0  0
  7 58  1  0  0  0  0
  8 24  1  0  0  0  0
  8 59  1  0  0  0  0
 25  9  1  1  0  0  0
  9 60  1  0  0  0  0
 10 27  1  0  0  0  0
 10 61  1  0  0  0  0
 11 28  1  0  0  0  0
 11 62  1  0  0  0  0
 12 31  1  0  0  0  0
 12 34  1  0  0  0  0
 13 32  2  0  0  0  0
 14 40  1  0  0  0  0
 14 68  1  0  0  0  0
 15 16  1  0  0  0  0
 15 17  1  0  0  0  0
 15 41  1  0  0  0  0
 16 18  1  0  0  0  0
 16 42  1  0  0  0  0
 17 22  1  0  0  0  0
 17 43  1  6  0  0  0
 18 19  1  0  0  0  0
 18 44  1  0  0  0  0
 19 24  1  1  0  0  0
 19 45  1  0  0  0  0
 20 21  1  0  0  0  0
 20 46  1  0  0  0  0
 21 23  1  0  0  0  0
 21 47  1  0  0  0  0
 22 27  2  0  0  0  0
 22 28  1  0  0  0  0
 23 25  1  0  0  0  0
 23 48  1  0  0  0  0
 24 49  1  0  0  0  0
 24 50  1  0  0  0  0
 25 26  1  0  0  0  0
 25 51  1  0  0  0  0
 26 52  1  0  0  0  0
 26 53  1  0  0  0  0
 27 29  1  0  0  0  0
 28 30  2  0  0  0  0
 29 31  2  0  0  0  0
 29 32  1  0  0  0  0
 30 31  1  0  0  0  0
 30 57  1  0  0  0  0
 32 33  1  0  0  0  0
 33 34  2  0  0  0  0
 33 63  1  0  0  0  0
 34 35  1  0  0  0  0
 35 36  2  0  0  0  0
 35 37  1  0  0  0  0
 36 38  1  0  0  0  0
 36 64  1  0  0  0  0
 37 39  2  0  0  0  0
 37 65  1  0  0  0  0
 38 40  2  0  0  0  0
 38 66  1  0  0  0  0
 39 40  1  0  0  0  0
 39 67  1  0  0  0  0
M  END
> <PUBCHEM_COMPOUND_CID>
44468060

> <PUBCHEM_COMPOUND_CANONICALIZED>
1

> <PUBCHEM_CACTVS_COMPLEXITY>
923

> <PUBCHEM_CACTVS_HBOND_ACCEPTOR>
14

> <PUBCHEM_CACTVS_HBOND_DONOR>
9

> <PUBCHEM_CACTVS_ROTATABLE_BOND>
5

> <PUBCHEM_CACTVS_SUBSKEYS>
AAADceB4PAAAAAAAAAAAAAAAAAAAAAAAAAA0aIECAAAAAACBQAAAGgAACAAADBSwmAMwDoAABgCIAqBSAAACCAAkIAAIiAEGCMgdNzaGNRqieWCl4BUPuQfI7PzOIAACCAAIAABAAAQQABAAAAAAAAAAAA==

> <PUBCHEM_IUPAC_OPENEYE_NAME>
6-[(2S,3R,4S,5S,6R)-4,5-dihydroxy-6-(hydroxymethyl)-3-[(2S,3R,4S,5S)-3,4,5-trihydroxytetrahydropyran-2-yl]oxy-tetrahydropyran-2-yl]-5,7-dihydroxy-2-(4-hydroxyphenyl)chromen-4-one

> <PUBCHEM_IUPAC_CAS_NAME>
6-[(2S,3R,4S,5S,6R)-4,5-dihydroxy-6-(hydroxymethyl)-3-[[(2S,3R,4S,5S)-3,4,5-trihydroxy-2-oxanyl]oxy]-2-oxanyl]-5,7-dihydroxy-2-(4-hydroxyphenyl)-1-benzopyran-4-one

> <PUBCHEM_IUPAC_NAME>
6-[(2S,3R,4S,5S,6R)-4,5-dihydroxy-6-(hydroxymethyl)-3-[(2S,3R,4S,5S)-3,4,5-trihydroxyoxan-2-yl]oxyoxan-2-yl]-5,7-dihydroxy-2-(4-hydroxyphenyl)chromen-4-one

> <PUBCHEM_IUPAC_SYSTEMATIC_NAME>
6-[(2S,3R,4S,5S,6R)-6-(hydroxymethyl)-4,5-bis(oxidanyl)-3-[(2S,3R,4S,5S)-3,4,5-tris(oxidanyl)oxan-2-yl]oxy-oxan-2-yl]-2-(4-hydroxyphenyl)-5,7-bis(oxidanyl)chromen-4-one

> <PUBCHEM_IUPAC_TRADITIONAL_NAME>
6-[(2S,3R,4S,5S,6R)-4,5-dihydroxy-6-methylol-3-[(2S,3R,4S,5S)-3,4,5-trihydroxytetrahydropyran-2-yl]oxy-tetrahydropyran-2-yl]-5,7-dihydroxy-2-(4-hydroxyphenyl)chromone

> <PUBCHEM_IUPAC_INCHI>
InChI=1S/C26H28O14/c27-7-16-20(33)22(35)25(40-26-23(36)19(32)13(31)8-37-26)24(39-16)18-12(30)6-15-17(21(18)34)11(29)5-14(38-15)9-1-3-10(28)4-2-9/h1-6,13,16,19-20,22-28,30-36H,7-8H2/t13-,16+,19-,20+,22-,23+,24-,25+,26-/m0/s1

> <PUBCHEM_IUPAC_INCHIKEY>
ACRIYYKEWCXQOS-XAYOXWHSSA-N

> <PUBCHEM_XLOGP3_AA>
-1.3

> <PUBCHEM_EXACT_MASS>
564.147906

> <PUBCHEM_MOLECULAR_FORMULA>
C26H28O14

> <PUBCHEM_MOLECULAR_WEIGHT>
564.49212

> <PUBCHEM_OPENEYE_CAN_SMILES>
C1C(C(C(C(O1)OC2C(C(C(OC2C3=C(C=C4C(=C3O)C(=O)C=C(O4)C5=CC=C(C=C5)O)O)CO)O)O)O)O)O

> <PUBCHEM_OPENEYE_ISO_SMILES>
C1[C@@H]([C@@H]([C@H]([C@@H](O1)O[C@@H]2[C@H]([C@@H]([C@H](O[C@H]2C3=C(C=C4C(=C3O)C(=O)C=C(O4)C5=CC=C(C=C5)O)O)CO)O)O)O)O)O

> <PUBCHEM_CACTVS_TPSA>
236

> <PUBCHEM_MONOISOTOPIC_WEIGHT>
564.147906

> <PUBCHEM_TOTAL_CHARGE>
0

> <PUBCHEM_HEAVY_ATOM_COUNT>
40

> <PUBCHEM_ATOM_DEF_STEREO_COUNT>
9

> <PUBCHEM_ATOM_UDEF_STEREO_COUNT>
0

> <PUBCHEM_BOND_DEF_STEREO_COUNT>
0

> <PUBCHEM_BOND_UDEF_STEREO_COUNT>
0

> <PUBCHEM_ISOTOPIC_ATOM_COUNT>
0

> <PUBCHEM_COMPONENT_COUNT>
1

> <PUBCHEM_CACTVS_TAUTO_COUNT>
57

> <PUBCHEM_COORDINATE_TYPE>
1
5
255

> <PUBCHEM_BONDANNOTATIONS>
12  31  8
12  34  8
17  43  6
19  24  5
15  2  6
20  2  5
22  27  8
22  28  8
27  29  8
28  30  8
29  31  8
29  32  8
30  31  8
32  33  8
33  34  8
35  36  8
35  37  8
36  38  8
37  39  8
38  40  8
39  40  8
16  4  5
18  5  6
21  6  6
23  7  5
25  9  5

$$$$

