   Color/Form
        HEXAGONAL PLATES FROM METHANOL OR BY SUBLIMATION IN HIGH VACUUM
   from [1]HSDB

   Melting Point
        200-202 DEG C
   from [2]HSDB

   Dissociation Constants
        PKB: 6.3
   from [3]HSDB

   Solubilities

     * FREELY SOL IN BENZENE, PYRIDINE, AND CHLOROFORM; MODERATELY SOL IN
       ALC, METHANOL, AND ACETONE; SLIGHTLY SOL IN WATER; PRACTICALLY
       INSOL IN ETHER
     * SOL IN DIOXANE

   from [4]HSDB

   Spectral Properties

     * SPECIFIC OPTICAL ROTATION: -92.4 DEG @ 20 DEG C/D (BENZENE); +109.8
       DEG @ 20 DEG C/D (CHLOROFORM)
     * IR: 20769 (Sadtler Research Laboratories IR Grating Collection)
     * MASS: 3185 (National Bureau of Standards EPA-NIH Mass Spectra Data
       Base, NSRDS-NBS-63)

   from [5]HSDB

   Other Chemical/Physical Properties
        ALKALINE REACTION TO LITMUS IN ALCOHOLIC SOLN
   from [6]HSDB

   Computed Properties
   Molecular Weight                  413.63582 [g/mol]
   Molecular Formula                 C[27]H[43]NO[2]
   XLogP3-AA                         5.4
   H-Bond Donor                      2
   H-Bond Acceptor                   3
   Rotatable Bond Count              0
   Exact Mass                        413.32938
   MonoIsotopic Mass                 413.32938
   Topological Polar Surface Area    41.5
   Heavy Atom Count                  30
   Formal Charge                     0
   Complexity                        749
   Isotope Atom Count                0
   Defined Atom Stereocenter Count   11
   Undefined Atom Stereocenter Count 0
   Defined Bond Stereocenter Count   0
   Undefined Bond Stereocenter Count 0
   Covalently-Bonded Unit Count      1
   Feature 3D Acceptor Count         2
   Feature 3D Donor Count            2
   Feature 3D Cation Count           1
   Feature 3D Ring Count             6
   Effective Rotor Count             3
   Conformer Sampling RMSD           0.8
   CID Conformer Count               [7]1

References

   1. http://toxnet.nlm.nih.gov/cgi-bin/sis/search/r?dbs+hsdb:@term+@rn+@rel+126-17-0
   2. http://toxnet.nlm.nih.gov/cgi-bin/sis/search/r?dbs+hsdb:@term+@rn+@rel+126-17-0
   3. http://toxnet.nlm.nih.gov/cgi-bin/sis/search/r?dbs+hsdb:@term+@rn+@rel+126-17-0
   4. http://toxnet.nlm.nih.gov/cgi-bin/sis/search/r?dbs+hsdb:@term+@rn+@rel+126-17-0
   5. http://toxnet.nlm.nih.gov/cgi-bin/sis/search/r?dbs+hsdb:@term+@rn+@rel+126-17-0
   6. http://toxnet.nlm.nih.gov/cgi-bin/sis/search/r?dbs+hsdb:@term+@rn+@rel+126-17-0
   7. http://pubchem.ncbi.nlm.nih.gov/vw3d/vw3d.cgi?cid=442985
