440315
  -OEChem-07051212492D

 37 39  0     1  0  0  0  0  0999 V2000
    5.0474    2.8034    0.0000 P   0  0  0  0  0  0  0  0  0  0  0  0
    4.4026   -0.6498    0.0000 O   0  0  0  0  0  0  0  0  0  0  0  0
    6.7485   -1.7416    0.0000 O   0  0  0  0  0  0  0  0  0  0  0  0
    6.7523    0.4340    0.0000 O   0  0  0  0  0  0  0  0  0  0  0  0
    5.3548    1.8518    0.0000 O   0  0  0  0  0  0  0  0  0  0  0  0
    4.7400    3.7550    0.0000 O   0  0  0  0  0  0  0  0  0  0  0  0
    5.9990    3.1108    0.0000 O   0  0  0  0  0  0  0  0  0  0  0  0
    4.0958    2.4960    0.0000 O   0  0  0  0  0  0  0  0  0  0  0  0
    4.6783   -2.4103    0.0000 N   0  0  0  0  0  0  0  0  0  0  0  0
    4.6783   -4.0198    0.0000 N   0  0  0  0  0  0  0  0  0  0  0  0
    2.8660   -4.2150    0.0000 N   0  0  0  0  0  0  0  0  0  0  0  0
    2.0000   -2.7150    0.0000 N   0  0  0  0  0  0  0  0  0  0  0  0
    2.8660   -1.2150    0.0000 N   0  0  0  0  0  0  0  0  0  0  0  0
    5.9405   -1.1524    0.0000 C   0  0  2  0  0  0  0  0  0  0  0  0
    5.9422   -0.1524    0.0000 C   0  0  1  0  0  0  0  0  0  0  0  0
    4.9889   -1.4598    0.0000 C   0  0  1  0  0  0  0  0  0  0  0  0
    4.9917    0.1582    0.0000 C   0  0  1  0  0  0  0  0  0  0  0  0
    4.6844    1.1098    0.0000 C   0  0  0  0  0  0  0  0  0  0  0  0
    3.7320   -2.7150    0.0000 C   0  0  0  0  0  0  0  0  0  0  0  0
    5.2619   -3.2150    0.0000 C   0  0  0  0  0  0  0  0  0  0  0  0
    3.7320   -3.7150    0.0000 C   0  0  0  0  0  0  0  0  0  0  0  0
    2.8660   -2.2150    0.0000 C   0  0  0  0  0  0  0  0  0  0  0  0
    2.0000   -3.7150    0.0000 C   0  0  0  0  0  0  0  0  0  0  0  0
    6.4934   -0.8719    0.0000 H   0  0  0  0  0  0  0  0  0  0  0  0
    6.4942   -0.4348    0.0000 H   0  0  0  0  0  0  0  0  0  0  0  0
    5.4266   -1.8990    0.0000 H   0  0  0  0  0  0  0  0  0  0  0  0
    4.3795    0.2563    0.0000 H   0  0  0  0  0  0  0  0  0  0  0  0
    4.3035    1.5991    0.0000 H   0  0  0  0  0  0  0  0  0  0  0  0
    4.1364    0.8197    0.0000 H   0  0  0  0  0  0  0  0  0  0  0  0
    7.3154   -1.4904    0.0000 H   0  0  0  0  0  0  0  0  0  0  0  0
    7.3182    0.1808    0.0000 H   0  0  0  0  0  0  0  0  0  0  0  0
    5.8819   -3.2150    0.0000 H   0  0  0  0  0  0  0  0  0  0  0  0
    2.3291   -0.9050    0.0000 H   0  0  0  0  0  0  0  0  0  0  0  0
    3.4030   -0.9050    0.0000 H   0  0  0  0  0  0  0  0  0  0  0  0
    1.4631   -4.0250    0.0000 H   0  0  0  0  0  0  0  0  0  0  0  0
    5.1557    4.2150    0.0000 H   0  0  0  0  0  0  0  0  0  0  0  0
    6.1290    3.7170    0.0000 H   0  0  0  0  0  0  0  0  0  0  0  0
  1  5  1  0  0  0  0
  1  6  1  0  0  0  0
  1  7  1  0  0  0  0
  1  8  2  0  0  0  0
  2 16  1  0  0  0  0
  2 17  1  0  0  0  0
 14  3  1  1  0  0  0
  3 30  1  0  0  0  0
 15  4  1  1  0  0  0
  4 31  1  0  0  0  0
  5 18  1  0  0  0  0
  6 36  1  0  0  0  0
  7 37  1  0  0  0  0
 16  9  1  6  0  0  0
  9 19  1  0  0  0  0
  9 20  1  0  0  0  0
 10 20  2  0  0  0  0
 10 21  1  0  0  0  0
 11 21  1  0  0  0  0
 11 23  2  0  0  0  0
 12 22  2  0  0  0  0
 12 23  1  0  0  0  0
 13 22  1  0  0  0  0
 13 33  1  0  0  0  0
 13 34  1  0  0  0  0
 14 15  1  0  0  0  0
 14 16  1  0  0  0  0
 14 24  1  0  0  0  0
 15 17  1  0  0  0  0
 15 25  1  0  0  0  0
 16 26  1  0  0  0  0
 17 18  1  6  0  0  0
 17 27  1  0  0  0  0
 18 28  1  0  0  0  0
 18 29  1  0  0  0  0
 19 21  2  0  0  0  0
 19 22  1  0  0  0  0
 20 32  1  0  0  0  0
 23 35  1  0  0  0  0
M  END
> <PUBCHEM_COMPOUND_CID>
440315

> <PUBCHEM_COMPOUND_CANONICALIZED>
1

> <PUBCHEM_CACTVS_COMPLEXITY>
481

> <PUBCHEM_CACTVS_HBOND_ACCEPTOR>
11

> <PUBCHEM_CACTVS_HBOND_DONOR>
5

> <PUBCHEM_CACTVS_ROTATABLE_BOND>
4

> <PUBCHEM_CACTVS_SUBSKEYS>
AAADccBzuAIAAAAAAAAAAAAAAAAAAWJAAAAsAAAAAAAAAFgB+AAAHgAQCCAACBzhlwYF8L9MFxCgQQZhZICAgC0REKABUCAoVBCDWAJAyEAeRAgPAALTACDwMAIAAAAAAAAAAAAAAAAAAAAAAAAAAAAAAA==

> <PUBCHEM_IUPAC_OPENEYE_NAME>
[(2R,3S,4R,5R)-5-(6-aminopurin-7-yl)-3,4-dihydroxy-tetrahydrofuran-2-yl]methyl dihydrogen phosphate

> <PUBCHEM_IUPAC_CAS_NAME>
[(2R,3S,4R,5R)-5-(6-amino-7-purinyl)-3,4-dihydroxy-2-oxolanyl]methyl dihydrogen phosphate

> <PUBCHEM_IUPAC_NAME>
[(2R,3S,4R,5R)-5-(6-aminopurin-7-yl)-3,4-dihydroxyoxolan-2-yl]methyl dihydrogen phosphate

> <PUBCHEM_IUPAC_SYSTEMATIC_NAME>
[(2R,3S,4R,5R)-5-(6-azanylpurin-7-yl)-3,4-bis(oxidanyl)oxolan-2-yl]methyl dihydrogen phosphate

> <PUBCHEM_IUPAC_TRADITIONAL_NAME>
[(2R,3S,4R,5R)-5-(6-aminopurin-7-yl)-3,4-dihydroxy-tetrahydrofuran-2-yl]methyl dihydrogen phosphate

> <PUBCHEM_IUPAC_INCHI>
InChI=1S/C10H14N5O7P/c11-8-5-9(13-2-12-8)14-3-15(5)10-7(17)6(16)4(22-10)1-21-23(18,19)20/h2-4,6-7,10,16-17H,1H2,(H2,11,12,13)(H2,18,19,20)/t4-,6-,7-,10-/m1/s1

> <PUBCHEM_IUPAC_INCHIKEY>
NVOIXARBSSLBAS-KQYNXXCUSA-N

> <PUBCHEM_XLOGP3>
-3.5

> <PUBCHEM_EXACT_MASS>
347.063084

> <PUBCHEM_MOLECULAR_FORMULA>
C10H14N5O7P

> <PUBCHEM_MOLECULAR_WEIGHT>
347.221222

> <PUBCHEM_OPENEYE_CAN_SMILES>
C1=NC2=C(C(=N1)N)N(C=N2)C3C(C(C(O3)COP(=O)(O)O)O)O

> <PUBCHEM_OPENEYE_ISO_SMILES>
C1=NC2=C(C(=N1)N)N(C=N2)[C@H]3[C@@H]([C@@H]([C@H](O3)COP(=O)(O)O)O)O

> <PUBCHEM_CACTVS_TPSA>
186

> <PUBCHEM_MONOISOTOPIC_WEIGHT>
347.063084

> <PUBCHEM_TOTAL_CHARGE>
0

> <PUBCHEM_HEAVY_ATOM_COUNT>
23

> <PUBCHEM_ATOM_DEF_STEREO_COUNT>
4

> <PUBCHEM_ATOM_UDEF_STEREO_COUNT>
0

> <PUBCHEM_BOND_DEF_STEREO_COUNT>
0

> <PUBCHEM_BOND_UDEF_STEREO_COUNT>
0

> <PUBCHEM_ISOTOPIC_ATOM_COUNT>
0

> <PUBCHEM_COMPONENT_COUNT>
1

> <PUBCHEM_CACTVS_TAUTO_COUNT>
3

> <PUBCHEM_COORDINATE_TYPE>
1
5
255

> <PUBCHEM_BONDANNOTATIONS>
10  20  8
10  21  8
11  21  8
11  23  8
12  22  8
12  23  8
17  18  6
19  21  8
19  22  8
14  3  5
15  4  5
16  9  6
9  19  8
9  20  8

$$$$

