   Color/Form
        Colorless gas
   from [1]HSDB

   Odor
        Aromatic
   from [2]HSDB

   Boiling Point
        -48 deg C at 760 mm Hg
   from [3]HSDB

   Melting Point
        -185 deg C (triple point)
   from [4]HSDB

   Critical Temperature and Pressure
        Critical temperature: 91.8 deg C; critical pressure: 45.6 atm
   from [5]HSDB

   Density/Specific Gravity
        0.5139 at 20 deg C/4 deg C (liquid)
   from [6]HSDB

   Heat of Combustion
        -19,692 Btu/lb= -10,940 cal/g= -458.04x10+5 J/kg
   from [7]HSDB

   Heat of Vaporization
        104.62 cal/g at BP
   from [8]HSDB

   Octanol/Water Partition Coefficient
        log Kow = 1.77
   from [9]HSDB

   Solubilities

     * Sol in water (44.6 ml/100 ml), ethanol (1250 ml/100 ml), acetic
       acid (524.5 ml/100 ml)
     * Sol in alcohol and ether
     * In water, 200 mg/L at 25 deg C

   from [10]HSDB

   Spectral Properties

     * Index of refraction: 1.3567 at -40 deg C/D
     * IR: 6403 (Sadtler Research Laboratories Prism Collection)
     * MASS: 61300 (NIST/EPA/MSDC Mass Spectral Database, 1990 version);
       1054 (Atlas of Mas Spectral Data, John Wiley & Sons, New York)

   from [11]HSDB

   Surface Tension
        16.7 dynes/cm at 90 deg C
   from [12]HSDB

   Vapor Density
        1.49 (Air= 1.0)
   from [13]HSDB

   Vapor Pressure
        8.69X10+3 mm Hg at 25 deg C /Extrapolated/
   from [14]HSDB

   Viscosity
        83.4 micropoises at 16.7 deg C
   from [15]HSDB

   Other Chemical/Physical Properties

     * Heat of fusion: 717.6 cal/mol; burns with yellow sooty flame;
       liquefies at 7-8 atm; dipole moment: 0.35
     * Ratio of specific heats of vapor (gas): 1.152; Floats & boils on
       water
     * Henry's Law constant: 1.96X10-1 atm-cu m/mole at 25 deg C.
     * Hydroxyl radical reaction rate constant = 2.6X10-11 cu
       cm/molecule-sec at 25 deg C
     * Ozone reaction rate constant = 1.2X10-17 cu cm/molecule-sec at 25
       deg C (est)

   from [16]HSDB

   Computed Properties
   Molecular Weight                  42.07974 [g/mol]
   Molecular Formula                 C[3]H[6]
   XLogP3-AA                         1.4
   H-Bond Donor                      0
   H-Bond Acceptor                   0
   Rotatable Bond Count              0
   Exact Mass                        42.04695
   MonoIsotopic Mass                 42.04695
   Topological Polar Surface Area    0
   Heavy Atom Count                  3
   Formal Charge                     0
   Complexity                        7.5
   Isotope Atom Count                0
   Defined Atom Stereocenter Count   0
   Undefined Atom Stereocenter Count 0
   Defined Bond Stereocenter Count   0
   Undefined Bond Stereocenter Count 0
   Covalently-Bonded Unit Count      1
   Effective Rotor Count             0
   Conformer Sampling RMSD           0.4
   CID Conformer Count               [17]1

References

   1. http://toxnet.nlm.nih.gov/cgi-bin/sis/search/r?dbs+hsdb:@term+@rn+@rel+115-07-1
   2. http://toxnet.nlm.nih.gov/cgi-bin/sis/search/r?dbs+hsdb:@term+@rn+@rel+115-07-1
   3. http://toxnet.nlm.nih.gov/cgi-bin/sis/search/r?dbs+hsdb:@term+@rn+@rel+115-07-1
   4. http://toxnet.nlm.nih.gov/cgi-bin/sis/search/r?dbs+hsdb:@term+@rn+@rel+115-07-1
   5. http://toxnet.nlm.nih.gov/cgi-bin/sis/search/r?dbs+hsdb:@term+@rn+@rel+115-07-1
   6. http://toxnet.nlm.nih.gov/cgi-bin/sis/search/r?dbs+hsdb:@term+@rn+@rel+115-07-1
   7. http://toxnet.nlm.nih.gov/cgi-bin/sis/search/r?dbs+hsdb:@term+@rn+@rel+115-07-1
   8. http://toxnet.nlm.nih.gov/cgi-bin/sis/search/r?dbs+hsdb:@term+@rn+@rel+115-07-1
   9. http://toxnet.nlm.nih.gov/cgi-bin/sis/search/r?dbs+hsdb:@term+@rn+@rel+115-07-1
  10. http://toxnet.nlm.nih.gov/cgi-bin/sis/search/r?dbs+hsdb:@term+@rn+@rel+115-07-1
  11. http://toxnet.nlm.nih.gov/cgi-bin/sis/search/r?dbs+hsdb:@term+@rn+@rel+115-07-1
  12. http://toxnet.nlm.nih.gov/cgi-bin/sis/search/r?dbs+hsdb:@term+@rn+@rel+115-07-1
  13. http://toxnet.nlm.nih.gov/cgi-bin/sis/search/r?dbs+hsdb:@term+@rn+@rel+115-07-1
  14. http://toxnet.nlm.nih.gov/cgi-bin/sis/search/r?dbs+hsdb:@term+@rn+@rel+115-07-1
  15. http://toxnet.nlm.nih.gov/cgi-bin/sis/search/r?dbs+hsdb:@term+@rn+@rel+115-07-1
  16. http://toxnet.nlm.nih.gov/cgi-bin/sis/search/r?dbs+hsdb:@term+@rn+@rel+115-07-1
  17. http://pubchem.ncbi.nlm.nih.gov/vw3d/vw3d.cgi?cid=8252
