47205077
  -OEChem-06241222582D

 27 28  0     0  0  0  0  0  0999 V2000
    6.0010   -3.2047    0.0000 Cl  0  0  0  0  0  0  0  0  0  0  0  0
    2.5369   -1.2047    0.0000 O   0  0  0  0  0  0  0  0  0  0  0  0
    3.4030    0.2953    0.0000 O   0  0  0  0  0  0  0  0  0  0  0  0
    5.1350    0.2953    0.0000 N   0  0  0  0  0  0  0  0  0  0  0  0
    6.1056    2.7898    0.0000 N   0  0  0  0  0  0  0  0  0  0  0  0
    7.0837    2.9977    0.0000 N   0  0  0  0  0  0  0  0  0  0  0  0
    5.1350    1.2953    0.0000 C   0  0  0  0  0  0  0  0  0  0  0  0
    6.0010    1.7953    0.0000 C   0  0  0  0  0  0  0  0  0  0  0  0
    4.2690   -1.2047    0.0000 C   0  0  0  0  0  0  0  0  0  0  0  0
    4.2690   -0.2047    0.0000 C   0  0  0  0  0  0  0  0  0  0  0  0
    3.4030   -1.7047    0.0000 C   0  0  0  0  0  0  0  0  0  0  0  0
    6.9146    1.3886    0.0000 C   0  0  0  0  0  0  0  0  0  0  0  0
    5.1350   -1.7047    0.0000 C   0  0  0  0  0  0  0  0  0  0  0  0
    3.4030   -2.7047    0.0000 C   0  0  0  0  0  0  0  0  0  0  0  0
    5.1350   -2.7047    0.0000 C   0  0  0  0  0  0  0  0  0  0  0  0
    4.2690   -3.2047    0.0000 C   0  0  0  0  0  0  0  0  0  0  0  0
    7.5837    2.1317    0.0000 C   0  0  0  0  0  0  0  0  0  0  0  0
    4.9230    1.8779    0.0000 H   0  0  0  0  0  0  0  0  0  0  0  0
    4.5244    1.1877    0.0000 H   0  0  0  0  0  0  0  0  0  0  0  0
    5.6720   -0.0147    0.0000 H   0  0  0  0  0  0  0  0  0  0  0  0
    7.0435    0.7821    0.0000 H   0  0  0  0  0  0  0  0  0  0  0  0
    5.6720   -1.3947    0.0000 H   0  0  0  0  0  0  0  0  0  0  0  0
    5.6448    3.2047    0.0000 H   0  0  0  0  0  0  0  0  0  0  0  0
    2.8660   -3.0147    0.0000 H   0  0  0  0  0  0  0  0  0  0  0  0
    4.2690   -3.8247    0.0000 H   0  0  0  0  0  0  0  0  0  0  0  0
    8.2003    2.0669    0.0000 H   0  0  0  0  0  0  0  0  0  0  0  0
    2.0000   -1.5147    0.0000 H   0  0  0  0  0  0  0  0  0  0  0  0
  1 15  1  0  0  0  0
  2 11  1  0  0  0  0
  2 27  1  0  0  0  0
  3 10  2  0  0  0  0
  4  7  1  0  0  0  0
  4 10  1  0  0  0  0
  4 20  1  0  0  0  0
  5  6  1  0  0  0  0
  5  8  1  0  0  0  0
  5 23  1  0  0  0  0
  6 17  2  0  0  0  0
  7  8  1  0  0  0  0
  7 18  1  0  0  0  0
  7 19  1  0  0  0  0
  8 12  2  0  0  0  0
  9 10  1  0  0  0  0
  9 11  2  0  0  0  0
  9 13  1  0  0  0  0
 11 14  1  0  0  0  0
 12 17  1  0  0  0  0
 12 21  1  0  0  0  0
 13 15  2  0  0  0  0
 13 22  1  0  0  0  0
 14 16  2  0  0  0  0
 14 24  1  0  0  0  0
 15 16  1  0  0  0  0
 16 25  1  0  0  0  0
 17 26  1  0  0  0  0
M  END
> <PUBCHEM_COMPOUND_CID>
47205077

> <PUBCHEM_COMPOUND_CANONICALIZED>
1

> <PUBCHEM_CACTVS_COMPLEXITY>
277

> <PUBCHEM_CACTVS_HBOND_ACCEPTOR>
3

> <PUBCHEM_CACTVS_HBOND_DONOR>
3

> <PUBCHEM_CACTVS_ROTATABLE_BOND>
3

> <PUBCHEM_CACTVS_SUBSKEYS>
AAADccBzMAAEAAAAAAAAAAAAAAAAAWAAAAAwAAAAAAAAAAABwAAAHgIYCAAADA7BniQ8hpLjAgCqAzV3UACSBAAkpwAYuaE+btgIZraD19OU9Uhm/hGI2YeYyCCOACAAIAAIAAAAQABAABAAAAAAAAAAAA==

> <PUBCHEM_IUPAC_OPENEYE_NAME>
5-chloro-2-hydroxy-N-(1H-pyrazol-5-ylmethyl)benzamide

> <PUBCHEM_IUPAC_CAS_NAME>
5-chloro-2-hydroxy-N-(1H-pyrazol-5-ylmethyl)benzamide

> <PUBCHEM_IUPAC_NAME>
5-chloro-2-hydroxy-N-(1H-pyrazol-5-ylmethyl)benzamide

> <PUBCHEM_IUPAC_SYSTEMATIC_NAME>
5-chloranyl-2-oxidanyl-N-(1H-pyrazol-5-ylmethyl)benzamide

> <PUBCHEM_IUPAC_TRADITIONAL_NAME>
5-chloro-2-hydroxy-N-(1H-pyrazol-5-ylmethyl)benzamide

> <PUBCHEM_IUPAC_INCHI>
InChI=1S/C11H10ClN3O2/c12-7-1-2-10(16)9(5-7)11(17)13-6-8-3-4-14-15-8/h1-5,16H,6H2,(H,13,17)(H,14,15)

> <PUBCHEM_IUPAC_INCHIKEY>
NMLXMZHAVNXUED-UHFFFAOYSA-N

> <PUBCHEM_XLOGP3_AA>
1.8

> <PUBCHEM_EXACT_MASS>
251.046154

> <PUBCHEM_MOLECULAR_FORMULA>
C11H10ClN3O2

> <PUBCHEM_MOLECULAR_WEIGHT>
251.669

> <PUBCHEM_OPENEYE_CAN_SMILES>
C1=CC(=C(C=C1Cl)C(=O)NCC2=CC=NN2)O

> <PUBCHEM_OPENEYE_ISO_SMILES>
C1=CC(=C(C=C1Cl)C(=O)NCC2=CC=NN2)O

> <PUBCHEM_CACTVS_TPSA>
78

> <PUBCHEM_MONOISOTOPIC_WEIGHT>
251.046154

> <PUBCHEM_TOTAL_CHARGE>
0

> <PUBCHEM_HEAVY_ATOM_COUNT>
17

> <PUBCHEM_ATOM_DEF_STEREO_COUNT>
0

> <PUBCHEM_ATOM_UDEF_STEREO_COUNT>
0

> <PUBCHEM_BOND_DEF_STEREO_COUNT>
0

> <PUBCHEM_BOND_UDEF_STEREO_COUNT>
0

> <PUBCHEM_ISOTOPIC_ATOM_COUNT>
0

> <PUBCHEM_COMPONENT_COUNT>
1

> <PUBCHEM_CACTVS_TAUTO_COUNT>
14

> <PUBCHEM_COORDINATE_TYPE>
1
5
255

> <PUBCHEM_BONDANNOTATIONS>
11  14  8
12  17  8
13  15  8
14  16  8
15  16  8
5  6  8
5  8  8
6  17  8
8  12  8
9  11  8
9  13  8

$$$$

