9478
  -OEChem-06261203442D

 38 39  0     0  0  0  0  0  0999 V2000
    4.0981    4.1149    0.0000 O   0  0  0  0  0  0  0  0  0  0  0  0
    5.4641    1.0761    0.0000 O   0  0  0  0  0  0  0  0  0  0  0  0
    2.8660   -4.4239    0.0000 N   0  0  0  0  0  0  0  0  0  0  0  0
    3.7320    0.0761    0.0000 N   0  0  0  0  0  0  0  0  0  0  0  0
    3.7320    1.0761    0.0000 N   0  0  0  0  0  0  0  0  0  0  0  0
    3.7891    3.1639    0.0000 N   0  0  0  0  0  0  0  0  0  0  0  0
    2.8660   -1.4239    0.0000 C   0  0  0  0  0  0  0  0  0  0  0  0
    2.8660   -3.4239    0.0000 C   0  0  0  0  0  0  0  0  0  0  0  0
    2.8660   -0.4239    0.0000 C   0  0  0  0  0  0  0  0  0  0  0  0
    2.0000   -1.9239    0.0000 C   0  0  0  0  0  0  0  0  0  0  0  0
    3.7320   -1.9239    0.0000 C   0  0  0  0  0  0  0  0  0  0  0  0
    2.0000   -2.9239    0.0000 C   0  0  0  0  0  0  0  0  0  0  0  0
    3.7320   -2.9239    0.0000 C   0  0  0  0  0  0  0  0  0  0  0  0
    2.0000   -4.9239    0.0000 C   0  0  0  0  0  0  0  0  0  0  0  0
    3.7320   -4.9239    0.0000 C   0  0  0  0  0  0  0  0  0  0  0  0
    4.5981    1.5761    0.0000 C   0  0  0  0  0  0  0  0  0  0  0  0
    4.5981    2.5761    0.0000 C   0  0  0  0  0  0  0  0  0  0  0  0
    5.4071    3.1639    0.0000 C   0  0  0  0  0  0  0  0  0  0  0  0
    5.0981    4.1149    0.0000 C   0  0  0  0  0  0  0  0  0  0  0  0
    5.6859    4.9239    0.0000 C   0  0  0  0  0  0  0  0  0  0  0  0
    2.6540    0.1587    0.0000 H   0  0  0  0  0  0  0  0  0  0  0  0
    2.2554   -0.5316    0.0000 H   0  0  0  0  0  0  0  0  0  0  0  0
    1.4631   -1.6139    0.0000 H   0  0  0  0  0  0  0  0  0  0  0  0
    4.2690   -1.6139    0.0000 H   0  0  0  0  0  0  0  0  0  0  0  0
    1.4631   -3.2339    0.0000 H   0  0  0  0  0  0  0  0  0  0  0  0
    4.2690   -3.2339    0.0000 H   0  0  0  0  0  0  0  0  0  0  0  0
    4.2690   -0.2339    0.0000 H   0  0  0  0  0  0  0  0  0  0  0  0
    1.6900   -4.3870    0.0000 H   0  0  0  0  0  0  0  0  0  0  0  0
    1.4631   -5.2339    0.0000 H   0  0  0  0  0  0  0  0  0  0  0  0
    2.3100   -5.4609    0.0000 H   0  0  0  0  0  0  0  0  0  0  0  0
    3.4220   -5.4609    0.0000 H   0  0  0  0  0  0  0  0  0  0  0  0
    4.2690   -5.2339    0.0000 H   0  0  0  0  0  0  0  0  0  0  0  0
    4.0420   -4.3870    0.0000 H   0  0  0  0  0  0  0  0  0  0  0  0
    3.1951    1.3861    0.0000 H   0  0  0  0  0  0  0  0  0  0  0  0
    5.9967    2.9723    0.0000 H   0  0  0  0  0  0  0  0  0  0  0  0
    6.1874    4.5595    0.0000 H   0  0  0  0  0  0  0  0  0  0  0  0
    6.0503    5.4255    0.0000 H   0  0  0  0  0  0  0  0  0  0  0  0
    5.1843    5.2884    0.0000 H   0  0  0  0  0  0  0  0  0  0  0  0
  1  6  1  0  0  0  0
  1 19  1  0  0  0  0
  2 16  2  0  0  0  0
  3  8  1  0  0  0  0
  3 14  1  0  0  0  0
  3 15  1  0  0  0  0
  4  5  1  0  0  0  0
  4  9  1  0  0  0  0
  4 27  1  0  0  0  0
  5 16  1  0  0  0  0
  5 34  1  0  0  0  0
  6 17  2  0  0  0  0
  7  9  1  0  0  0  0
  7 10  2  0  0  0  0
  7 11  1  0  0  0  0
  8 12  2  0  0  0  0
  8 13  1  0  0  0  0
  9 21  1  0  0  0  0
  9 22  1  0  0  0  0
 10 12  1  0  0  0  0
 10 23  1  0  0  0  0
 11 13  2  0  0  0  0
 11 24  1  0  0  0  0
 12 25  1  0  0  0  0
 13 26  1  0  0  0  0
 14 28  1  0  0  0  0
 14 29  1  0  0  0  0
 14 30  1  0  0  0  0
 15 31  1  0  0  0  0
 15 32  1  0  0  0  0
 15 33  1  0  0  0  0
 16 17  1  0  0  0  0
 17 18  1  0  0  0  0
 18 19  2  0  0  0  0
 18 35  1  0  0  0  0
 19 20  1  0  0  0  0
 20 36  1  0  0  0  0
 20 37  1  0  0  0  0
 20 38  1  0  0  0  0
M  END
> <PUBCHEM_COMPOUND_CID>
9478

> <PUBCHEM_COMPOUND_CANONICALIZED>
1

> <PUBCHEM_CACTVS_COMPLEXITY>
316

> <PUBCHEM_CACTVS_HBOND_ACCEPTOR>
5

> <PUBCHEM_CACTVS_HBOND_DONOR>
2

> <PUBCHEM_CACTVS_ROTATABLE_BOND>
5

> <PUBCHEM_CACTVS_SUBSKEYS>
AAADceBzsAAAAAAAAAAAAAAAAAAAAWAAAAAwAAAAAAAAAAABwAAAHgAcAAAADAzBngQyxJNyAACpA6VyUgCCAAAnIgI6uKG+bNoIZjrAlZOEMYhmgBhIycc/gAAOCAAAAAAAAAAQAAAAAAAAAAAAAAAAAA==

> <PUBCHEM_IUPAC_OPENEYE_NAME>
N'-[[4-(dimethylamino)phenyl]methyl]-5-methyl-isoxazole-3-carbohydrazide

> <PUBCHEM_IUPAC_CAS_NAME>
N'-[[4-(dimethylamino)phenyl]methyl]-5-methyl-3-isoxazolecarbohydrazide

> <PUBCHEM_IUPAC_NAME>
N'-[[4-(dimethylamino)phenyl]methyl]-5-methyl-1,2-oxazole-3-carbohydrazide

> <PUBCHEM_IUPAC_SYSTEMATIC_NAME>
N'-[[4-(dimethylamino)phenyl]methyl]-5-methyl-1,2-oxazole-3-carbohydrazide

> <PUBCHEM_IUPAC_TRADITIONAL_NAME>
N'-[4-(dimethylamino)benzyl]-5-methyl-isoxazole-3-carbohydrazide

> <PUBCHEM_IUPAC_INCHI>
InChI=1S/C14H18N4O2/c1-10-8-13(17-20-10)14(19)16-15-9-11-4-6-12(7-5-11)18(2)3/h4-8,15H,9H2,1-3H3,(H,16,19)

> <PUBCHEM_IUPAC_INCHIKEY>
SXJCEOAHKNQDJQ-UHFFFAOYSA-N

> <PUBCHEM_XLOGP3>
1.6

> <PUBCHEM_EXACT_MASS>
274.142976

> <PUBCHEM_MOLECULAR_FORMULA>
C14H18N4O2

> <PUBCHEM_MOLECULAR_WEIGHT>
274.31832

> <PUBCHEM_OPENEYE_CAN_SMILES>
CC1=CC(=NO1)C(=O)NNCC2=CC=C(C=C2)N(C)C

> <PUBCHEM_OPENEYE_ISO_SMILES>
CC1=CC(=NO1)C(=O)NNCC2=CC=C(C=C2)N(C)C

> <PUBCHEM_CACTVS_TPSA>
70.4

> <PUBCHEM_MONOISOTOPIC_WEIGHT>
274.142976

> <PUBCHEM_TOTAL_CHARGE>
0

> <PUBCHEM_HEAVY_ATOM_COUNT>
20

> <PUBCHEM_ATOM_DEF_STEREO_COUNT>
0

> <PUBCHEM_ATOM_UDEF_STEREO_COUNT>
0

> <PUBCHEM_BOND_DEF_STEREO_COUNT>
0

> <PUBCHEM_BOND_UDEF_STEREO_COUNT>
0

> <PUBCHEM_ISOTOPIC_ATOM_COUNT>
0

> <PUBCHEM_COMPONENT_COUNT>
1

> <PUBCHEM_CACTVS_TAUTO_COUNT>
2

> <PUBCHEM_COORDINATE_TYPE>
1
5
255

> <PUBCHEM_BONDANNOTATIONS>
1  19  8
1  6  8
10  12  8
11  13  8
17  18  8
18  19  8
6  17  8
7  10  8
7  11  8
8  12  8
8  13  8

$$$$

