   Color/Form

     * Cream-colored crystals
     * WHITE TO PALE YELLOW CRYSTALS OR CRYSTALLINE POWDER

   from [1]HSDB

   Odor
        ODORLESS
   from [2]HSDB

   Melting Point
        158-160 deg C
   from [3]HSDB

   Dissociation Constants
        pKa = 2.38 [Tolls J; Environ Sci Technol 35: 3397-406 (2001)]
   [4]PubMed Abstract
   from [5]HSDB

   Octanol/Water Partition Coefficient
        log Kow = -0.02
   from [6]HSDB

   pH
        pH of saturated aq soln is 5.8
   from [7]HSDB

   Solubilities

     * g/100 ml at 20 deg C: 1.0 in water, 0.5 in ethanol, less than 0.05
       in ether, chloroform; sol in dilute acids; sparingly sol in
       dimethylformamide
     * In water, 11,000 mg/L at 25 deg C

   from [8]HSDB

   Spectral Properties

     * IR: 14987 (Sadtler Research Laboratories IR Grating Collection)
     * UV: 2561 (Absorption Spectra in the UV and visible Regions,
       Academic Press, New York)
     * NMR: 5648 (Sadtler Research Laboratories Spectral Collection)
     * MASS: 76026 (NIST/EPA/MSDC Mass Spectral Database, 1990 version)
     * Intense mass spectral peaks: 54 m/z, 81 m/z, 124 m/z, 171 m/z

   from [9]HSDB

   Vapor Pressure
        3.1X10-7 mm Hg at 25 deg C (est)
   from [10]HSDB

   Other Chemical/Physical Properties

     * Henry's Law constant = 1.7X10-11 atm-cu m/mol at 25 deg C (est)
     * Hydroxyl radical reaction rate constant = 9.3X10-12 cu
       cm/molecule-sec at 25 deg C (est)

   from [11]HSDB

   Computed Properties
   Molecular Weight                  171.15396 [g/mol]
   Molecular Formula                 C[6]H[9]N[3]O[3]
   XLogP3                            0
   H-Bond Donor                      1
   H-Bond Acceptor                   4
   Rotatable Bond Count              2
   Exact Mass                        171.064391
   MonoIsotopic Mass                 171.064391
   Topological Polar Surface Area    83.9
   Heavy Atom Count                  12
   Formal Charge                     0
   Complexity                        170
   Isotope Atom Count                0
   Defined Atom Stereocenter Count   0
   Undefined Atom Stereocenter Count 0
   Defined Bond Stereocenter Count   0
   Undefined Bond Stereocenter Count 0
   Covalently-Bonded Unit Count      1
   Feature 3D Acceptor Count         3
   Feature 3D Donor Count            1
   Feature 3D Anion Count            1
   Feature 3D Cation Count           1
   Feature 3D Ring Count             1
   Effective Rotor Count             3
   Conformer Sampling RMSD           0.6
   CID Conformer Count               [12]2

References

   1. http://toxnet.nlm.nih.gov/cgi-bin/sis/search/r?dbs+hsdb:@term+@rn+@rel+443-48-1
   2. http://toxnet.nlm.nih.gov/cgi-bin/sis/search/r?dbs+hsdb:@term+@rn+@rel+443-48-1
   3. http://toxnet.nlm.nih.gov/cgi-bin/sis/search/r?dbs+hsdb:@term+@rn+@rel+443-48-1
   4. http://www.ncbi.nlm.nih.gov/entrez/query.fcgi?cmd=Retrieve&db=pubmed&dopt=Abstract&list_uids=11563639
   5. http://toxnet.nlm.nih.gov/cgi-bin/sis/search/r?dbs+hsdb:@term+@rn+@rel+443-48-1
   6. http://toxnet.nlm.nih.gov/cgi-bin/sis/search/r?dbs+hsdb:@term+@rn+@rel+443-48-1
   7. http://toxnet.nlm.nih.gov/cgi-bin/sis/search/r?dbs+hsdb:@term+@rn+@rel+443-48-1
   8. http://toxnet.nlm.nih.gov/cgi-bin/sis/search/r?dbs+hsdb:@term+@rn+@rel+443-48-1
   9. http://toxnet.nlm.nih.gov/cgi-bin/sis/search/r?dbs+hsdb:@term+@rn+@rel+443-48-1
  10. http://toxnet.nlm.nih.gov/cgi-bin/sis/search/r?dbs+hsdb:@term+@rn+@rel+443-48-1
  11. http://toxnet.nlm.nih.gov/cgi-bin/sis/search/r?dbs+hsdb:@term+@rn+@rel+443-48-1
  12. http://pubchem.ncbi.nlm.nih.gov/vw3d/vw3d.cgi?cid=4173
