   Color/Form
        Crystalline powder; crystals from acetone
   from [1]HSDB

   Melting Point
        156 deg C
   from [2]HSDB

   Dissociation Constants
        pKa = 6.56
   from [3]HSDB

   pH
        pH= 3.4 to 3.9 (5%) soln.
   from [4]HSDB

   Solubilities

     * Soluble @ 25 deg C (g/100 ml): chloroform 44.51; methylene chloride
       19.20; methanol 9.98; ethanol 1.28; benzene 0.65; tetrahydrofuran
       0.60; acetonitrile 0.32; 1-octanol 0.30; ether 0.17; 1-propanol
       0.13; hexane 0.03; petroleum ether 0.001; sparingly soluble in iso-
       propanol; slightly soluble in acetone, dioxane, and carbon
       tetrachloride
     * In water, 700 mg/l @ 25 deg C

   from [5]HSDB

   Spectral Properties
        UV max (methanol): 208, 242 nm (E 10%/1 cm 662, 62)
   from [6]HSDB

   Other Chemical/Physical Properties
        White to cream colored, crystalline powder and has solubilities of
   approx 0.72 mg/ml in water and 12.8 mg/ml in alcohol at 25 deg C. The
   drug is highly lipophilic.
   from [7]HSDB

   Computed Properties
   Molecular Weight                  645.3116 [g/mol]
   Molecular Formula                 C[25]H[29]I[2]NO[3]
   XLogP3                            7.6
   H-Bond Donor                      0
   H-Bond Acceptor                   4
   Rotatable Bond Count              11
   Exact Mass                        645.02369
   MonoIsotopic Mass                 645.02369
   Topological Polar Surface Area    42.7
   Heavy Atom Count                  31
   Formal Charge                     0
   Complexity                        547
   Isotope Atom Count                0
   Defined Atom Stereocenter Count   0
   Undefined Atom Stereocenter Count 0
   Defined Bond Stereocenter Count   0
   Undefined Bond Stereocenter Count 0
   Covalently-Bonded Unit Count      1
   Feature 3D Acceptor Count         3
   Feature 3D Cation Count           1
   Feature 3D Hydrophobe Count       3
   Feature 3D Ring Count             3
   Effective Rotor Count             11
   Conformer Sampling RMSD           1.4
   CID Conformer Count               [8]35

References

   1. http://toxnet.nlm.nih.gov/cgi-bin/sis/search/r?dbs+hsdb:@term+@rn+@rel+19774-82-4
   2. http://toxnet.nlm.nih.gov/cgi-bin/sis/search/r?dbs+hsdb:@term+@rn+@rel+19774-82-4
   3. http://toxnet.nlm.nih.gov/cgi-bin/sis/search/r?dbs+hsdb:@term+@rn+@rel+19774-82-4
   4. http://toxnet.nlm.nih.gov/cgi-bin/sis/search/r?dbs+hsdb:@term+@rn+@rel+19774-82-4
   5. http://toxnet.nlm.nih.gov/cgi-bin/sis/search/r?dbs+hsdb:@term+@rn+@rel+19774-82-4
   6. http://toxnet.nlm.nih.gov/cgi-bin/sis/search/r?dbs+hsdb:@term+@rn+@rel+19774-82-4
   7. http://toxnet.nlm.nih.gov/cgi-bin/sis/search/r?dbs+hsdb:@term+@rn+@rel+19774-82-4
   8. http://pubchem.ncbi.nlm.nih.gov/vw3d/vw3d.cgi?cid=2157
