13359
  -OEChem-06261209192D

 20 19  0     1  0  0  0  0  0999 V2000
    2.5369   -1.1900    0.0000 S   0  0  0  0  0  0  0  0  0  0  0  0
    5.1350    0.3100    0.0000 O   0  0  0  0  0  0  0  0  0  0  0  0
    4.2690    1.8100    0.0000 O   0  0  0  0  0  0  0  0  0  0  0  0
    2.5369    0.8100    0.0000 N   0  0  0  0  0  0  0  0  0  0  0  0
    3.4030    0.3100    0.0000 C   0  0  1  0  0  0  0  0  0  0  0  0
    3.4030   -0.6900    0.0000 C   0  0  0  0  0  0  0  0  0  0  0  0
    4.2690    0.8100    0.0000 C   0  0  0  0  0  0  0  0  0  0  0  0
    6.0010    0.8100    0.0000 C   0  0  0  0  0  0  0  0  0  0  0  0
    6.8671    0.3100    0.0000 C   0  0  0  0  0  0  0  0  0  0  0  0
    3.4030    0.9300    0.0000 H   0  0  0  0  0  0  0  0  0  0  0  0
    3.6150   -1.2726    0.0000 H   0  0  0  0  0  0  0  0  0  0  0  0
    4.0135   -0.5823    0.0000 H   0  0  0  0  0  0  0  0  0  0  0  0
    6.3996    1.2850    0.0000 H   0  0  0  0  0  0  0  0  0  0  0  0
    5.6025    1.2850    0.0000 H   0  0  0  0  0  0  0  0  0  0  0  0
    2.0000    0.5000    0.0000 H   0  0  0  0  0  0  0  0  0  0  0  0
    2.5369    1.4300    0.0000 H   0  0  0  0  0  0  0  0  0  0  0  0
    6.5571   -0.2269    0.0000 H   0  0  0  0  0  0  0  0  0  0  0  0
    7.4040    0.0000    0.0000 H   0  0  0  0  0  0  0  0  0  0  0  0
    7.1771    0.8469    0.0000 H   0  0  0  0  0  0  0  0  0  0  0  0
    2.5369   -1.8100    0.0000 H   0  0  0  0  0  0  0  0  0  0  0  0
  1  6  1  0  0  0  0
  1 20  1  0  0  0  0
  2  7  1  0  0  0  0
  2  8  1  0  0  0  0
  3  7  2  0  0  0  0
  5  4  1  6  0  0  0
  4 15  1  0  0  0  0
  4 16  1  0  0  0  0
  5  6  1  0  0  0  0
  5  7  1  0  0  0  0
  5 10  1  0  0  0  0
  6 11  1  0  0  0  0
  6 12  1  0  0  0  0
  8  9  1  0  0  0  0
  8 13  1  0  0  0  0
  8 14  1  0  0  0  0
  9 17  1  0  0  0  0
  9 18  1  0  0  0  0
  9 19  1  0  0  0  0
M  END
> <PUBCHEM_COMPOUND_CID>
13359

> <PUBCHEM_COMPOUND_CANONICALIZED>
1

> <PUBCHEM_CACTVS_COMPLEXITY>
97

> <PUBCHEM_CACTVS_HBOND_ACCEPTOR>
4

> <PUBCHEM_CACTVS_HBOND_DONOR>
2

> <PUBCHEM_CACTVS_ROTATABLE_BOND>
4

> <PUBCHEM_CACTVS_SUBSKEYS>
AAADccBiMABAAAAAAAAAAAAAAAAAAAAAAAAAAAAAAAAAAAAAAAAAHgQQAAAACCjlwAaCCABABAQIAACQCAAAAAAAAAAAAIGAAAACAAAAAAADAAAAEAAAAAAAAAAAAAAAAAAAAAAAAAAAAAAAAAAAAAAAAA==

> <PUBCHEM_IUPAC_OPENEYE_NAME>
ethyl (2R)-2-amino-3-sulfanyl-propanoate

> <PUBCHEM_IUPAC_CAS_NAME>
(2R)-2-amino-3-mercaptopropanoic acid ethyl ester

> <PUBCHEM_IUPAC_NAME>
ethyl (2R)-2-amino-3-sulfanylpropanoate

> <PUBCHEM_IUPAC_SYSTEMATIC_NAME>
ethyl (2R)-2-azanyl-3-sulfanyl-propanoate

> <PUBCHEM_IUPAC_TRADITIONAL_NAME>
(2R)-2-amino-3-mercapto-propionic acid ethyl ester

> <PUBCHEM_IUPAC_INCHI>
InChI=1S/C5H11NO2S/c1-2-8-5(7)4(6)3-9/h4,9H,2-3,6H2,1H3/t4-/m0/s1

> <PUBCHEM_IUPAC_INCHIKEY>
YVKSGVDJQXLXDV-BYPYZUCNSA-N

> <PUBCHEM_XLOGP3_AA>
-0.1

> <PUBCHEM_EXACT_MASS>
149.05105

> <PUBCHEM_MOLECULAR_FORMULA>
C5H11NO2S

> <PUBCHEM_MOLECULAR_WEIGHT>
149.21134

> <PUBCHEM_OPENEYE_CAN_SMILES>
CCOC(=O)C(CS)N

> <PUBCHEM_OPENEYE_ISO_SMILES>
CCOC(=O)[C@H](CS)N

> <PUBCHEM_CACTVS_TPSA>
53.3

> <PUBCHEM_MONOISOTOPIC_WEIGHT>
149.05105

> <PUBCHEM_TOTAL_CHARGE>
0

> <PUBCHEM_HEAVY_ATOM_COUNT>
9

> <PUBCHEM_ATOM_DEF_STEREO_COUNT>
1

> <PUBCHEM_ATOM_UDEF_STEREO_COUNT>
0

> <PUBCHEM_BOND_DEF_STEREO_COUNT>
0

> <PUBCHEM_BOND_UDEF_STEREO_COUNT>
0

> <PUBCHEM_ISOTOPIC_ATOM_COUNT>
0

> <PUBCHEM_COMPONENT_COUNT>
1

> <PUBCHEM_CACTVS_TAUTO_COUNT>
1

> <PUBCHEM_COORDINATE_TYPE>
1
5
255

> <PUBCHEM_BONDANNOTATIONS>
5  4  6

$$$$

