440236
  -OEChem-07051212492D

 29 28  0     1  0  0  0  0  0999 V2000
    3.3100   -2.0950    0.0000 P   0  0  0  0  0  0  0  0  0  0  0  0
    3.3100   -1.0950    0.0000 O   0  0  0  0  0  0  0  0  0  0  0  0
    3.3100    1.9050    0.0000 O   0  0  0  0  0  0  0  0  0  0  0  0
    4.1760    3.4050    0.0000 O   0  0  0  0  0  0  0  0  0  0  0  0
    5.0420   -1.0950    0.0000 O   0  0  0  0  0  0  0  0  0  0  0  0
    6.7741    0.9050    0.0000 O   0  0  0  0  0  0  0  0  0  0  0  0
    3.3100   -3.0950    0.0000 O   0  0  0  0  0  0  0  0  0  0  0  0
    2.3100   -2.0950    0.0000 O   0  0  0  0  0  0  0  0  0  0  0  0
    4.3100   -2.0950    0.0000 O   0  0  0  0  0  0  0  0  0  0  0  0
    5.9081    2.4050    0.0000 N   0  0  0  0  0  0  0  0  0  0  0  0
    5.0420    0.9050    0.0000 C   0  0  0  0  0  0  0  0  0  0  0  0
    5.0420    1.9050    0.0000 C   0  0  1  0  0  0  0  0  0  0  0  0
    4.1760    0.4050    0.0000 C   0  0  0  0  0  0  0  0  0  0  0  0
    4.1760    2.4050    0.0000 C   0  0  0  0  0  0  0  0  0  0  0  0
    4.1760   -0.5950    0.0000 C   0  0  0  0  0  0  0  0  0  0  0  0
    6.7741    1.9050    0.0000 C   0  0  0  0  0  0  0  0  0  0  0  0
    7.6401    2.4050    0.0000 C   0  0  0  0  0  0  0  0  0  0  0  0
    5.2541    0.3224    0.0000 H   0  0  0  0  0  0  0  0  0  0  0  0
    5.6526    1.0127    0.0000 H   0  0  0  0  0  0  0  0  0  0  0  0
    5.0420    2.5250    0.0000 H   0  0  0  0  0  0  0  0  0  0  0  0
    3.9640    0.9876    0.0000 H   0  0  0  0  0  0  0  0  0  0  0  0
    3.5654    0.2973    0.0000 H   0  0  0  0  0  0  0  0  0  0  0  0
    5.9081    3.0250    0.0000 H   0  0  0  0  0  0  0  0  0  0  0  0
    7.9501    1.8681    0.0000 H   0  0  0  0  0  0  0  0  0  0  0  0
    8.1771    2.7150    0.0000 H   0  0  0  0  0  0  0  0  0  0  0  0
    7.3301    2.9419    0.0000 H   0  0  0  0  0  0  0  0  0  0  0  0
    2.7731    2.2150    0.0000 H   0  0  0  0  0  0  0  0  0  0  0  0
    2.7731   -3.4050    0.0000 H   0  0  0  0  0  0  0  0  0  0  0  0
    2.0000   -1.5581    0.0000 H   0  0  0  0  0  0  0  0  0  0  0  0
  1  2  1  0  0  0  0
  1  7  1  0  0  0  0
  1  8  1  0  0  0  0
  1  9  2  0  0  0  0
  2 15  1  0  0  0  0
  3 14  1  0  0  0  0
  3 27  1  0  0  0  0
  4 14  2  0  0  0  0
  5 15  2  0  0  0  0
  6 16  2  0  0  0  0
  7 28  1  0  0  0  0
  8 29  1  0  0  0  0
 12 10  1  1  0  0  0
 10 16  1  0  0  0  0
 10 23  1  0  0  0  0
 11 12  1  0  0  0  0
 11 13  1  0  0  0  0
 11 18  1  0  0  0  0
 11 19  1  0  0  0  0
 12 14  1  0  0  0  0
 12 20  1  0  0  0  0
 13 15  1  0  0  0  0
 13 21  1  0  0  0  0
 13 22  1  0  0  0  0
 16 17  1  0  0  0  0
 17 24  1  0  0  0  0
 17 25  1  0  0  0  0
 17 26  1  0  0  0  0
M  END
> <PUBCHEM_COMPOUND_CID>
440236

> <PUBCHEM_COMPOUND_CANONICALIZED>
1

> <PUBCHEM_CACTVS_COMPLEXITY>
361

> <PUBCHEM_CACTVS_HBOND_ACCEPTOR>
8

> <PUBCHEM_CACTVS_HBOND_DONOR>
4

> <PUBCHEM_CACTVS_ROTATABLE_BOND>
7

> <PUBCHEM_CACTVS_SUBSKEYS>
AAADccBiPAIAAAAAAAAAAAAAAAAAAAAAAAAAAAAAAAAAAAAAAAAAHgAQCCAACCjBgAQCCALAAxAIQAGQGIAAAAAAAAAAAIGIAAACABIAgCAEQAAEFgCQAACsJgAAAAAAAAAAAAAAAAAAAAAAAAAAAAAAAA==

> <PUBCHEM_IUPAC_OPENEYE_NAME>
(2S)-2-acetamido-5-oxo-5-phosphonooxy-pentanoic acid

> <PUBCHEM_IUPAC_CAS_NAME>
(2S)-2-acetamido-5-oxo-5-phosphonooxypentanoic acid

> <PUBCHEM_IUPAC_NAME>
(2S)-2-acetamido-5-oxo-5-phosphonooxypentanoic acid

> <PUBCHEM_IUPAC_SYSTEMATIC_NAME>
(2S)-2-acetamido-5-oxidanylidene-5-phosphonooxy-pentanoic acid

> <PUBCHEM_IUPAC_TRADITIONAL_NAME>
(2S)-2-acetamido-5-keto-5-phosphonooxy-valeric acid

> <PUBCHEM_IUPAC_INCHI>
InChI=1S/C7H12NO8P/c1-4(9)8-5(7(11)12)2-3-6(10)16-17(13,14)15/h5H,2-3H2,1H3,(H,8,9)(H,11,12)(H2,13,14,15)/t5-/m0/s1

> <PUBCHEM_IUPAC_INCHIKEY>
FCVIHFVSXHOPSW-YFKPBYRVSA-N

> <PUBCHEM_XLOGP3_AA>
-2.3

> <PUBCHEM_EXACT_MASS>
269.030053

> <PUBCHEM_MOLECULAR_FORMULA>
C7H12NO8P

> <PUBCHEM_MOLECULAR_WEIGHT>
269.145842

> <PUBCHEM_OPENEYE_CAN_SMILES>
CC(=O)NC(CCC(=O)OP(=O)(O)O)C(=O)O

> <PUBCHEM_OPENEYE_ISO_SMILES>
CC(=O)N[C@@H](CCC(=O)OP(=O)(O)O)C(=O)O

> <PUBCHEM_CACTVS_TPSA>
150

> <PUBCHEM_MONOISOTOPIC_WEIGHT>
269.030053

> <PUBCHEM_TOTAL_CHARGE>
0

> <PUBCHEM_HEAVY_ATOM_COUNT>
17

> <PUBCHEM_ATOM_DEF_STEREO_COUNT>
1

> <PUBCHEM_ATOM_UDEF_STEREO_COUNT>
0

> <PUBCHEM_BOND_DEF_STEREO_COUNT>
0

> <PUBCHEM_BOND_UDEF_STEREO_COUNT>
0

> <PUBCHEM_ISOTOPIC_ATOM_COUNT>
0

> <PUBCHEM_COMPONENT_COUNT>
1

> <PUBCHEM_CACTVS_TAUTO_COUNT>
2

> <PUBCHEM_COORDINATE_TYPE>
1
5
255

> <PUBCHEM_BONDANNOTATIONS>
12  10  5

$$$$

