   Color/Form
        Clear liquid
   from [1]HSDB

   Odor
        Gasoline-like
   from [2]HSDB

   Boiling Point
        125.67 deg C @ 760 mm Hg
   from [3]HSDB

   Melting Point
        -56.76 deg C
   from [4]HSDB

   Corrosivity
        Will attack some forms of plastics, rubber, and coatings.
   from [5]HSDB

   Critical Temperature and Pressure
        Critical temperature: 568.7 deg K; critical pressure: 2.49 MPa
   from [6]HSDB

   Density/Specific Gravity
        0.69862 g/ml @ 25 deg C
   from [7]HSDB

   Heat of Combustion
        1,302.7 kg cal/g mol wt @ 760 mm Hg and 20 deg C
   from [8]HSDB

   Heat of Vaporization
        41.49 kJ/mol @ 25 deg C
   from [9]HSDB

   Octanol/Water Partition Coefficient
        log Kow = 5.18
   from [10]HSDB

   Solubilities

     * Miscible with benzene, petroleum ether, and gasoline; soluble in
       ether; slightly soluble in alcohol
     * In water, 0.66 mg/l @ 25 deg C.

   from [11]HSDB

   Spectral Properties

     * Index of refraction: 1.39764 @ 20 deg C/D
     * SADTLER REF NUMBER: 457 (IR, GRATING)
     * IR: 5245 (Sadtler Research Laboratories Prism Collection)
     * NMR: 216 (Varian Associates NMR Spectra Catalogue)
     * RAMAN: 362 (Sadtler Research Laboratories Spectral Collection)
     * MASS: 61242 (NIST/EPA/MSDC Mass Spectral Database, 1990 Version);
       1334 (Atlas of Mass Spectral Data, John Wiley and Sons, NY)
     * 13CNMR: 56 (Slothers Carbon-13 NMR Spectroscopy, Academic Press,
       NY)

   from [12]HSDB

   Surface Tension
        21.14 mN/m @ 25 deg C
   from [13]HSDB

   Vapor Density
        3.86 (Air= 1)
   from [14]HSDB

   Vapor Pressure
        14.1 mm Hg @ 25 deg C
   from [15]HSDB

   Viscosity
        0.5151 cP @ 25 deg C
   from [16]HSDB

   Other Chemical/Physical Properties

     * Conversion factor: 4.67 mg/cu m= approx 1 ppm
     * Liquid water interfacial tension (est): 35 dynes/cm= 0.035 N/M @ 20
       deg C; ratio of specific heats of vapor: 1.047 @ 16 deg C; heat of
       fusion: 43.21 cal/g; liquid heat capacity: 0.525 BTU/lb-F @ 70 deg
       F; ideal gas heat capacity: 0.393 BTU/lb-F @ 75 deg C
     * Ionization potential: 9.9 eV
     * Dipole moment: 0
     * Hydroxyl radical reaction rate constant: 8.68X10-12 cu
       cm/molecule-sec @ 25 C
     * Freezing point: -57 deg C; Refractive index at 20 deg C: 1.3974;
       Water azeotrope, wt%/deg C: 74.5/90. /from table/
     * Critical temperature: 568.83 K; Critical pressure: 2487 kPa;
       Specific gravity, liquid, at 288.72 K: 0.7070; Gross heating value
       at 288.72 K, 101.325 kPa (1 atm): 232.47 MJ/cu m. /from table/
     * Surface tension at 20 deg C, mN/m (=dyn/cm): 21.8 /from table/

   from [17]HSDB

   Computed Properties
   Molecular Weight                  114.22852 [g/mol]
   Molecular Formula                 C[8]H[18]
   XLogP3                            3.9
   H-Bond Donor                      0
   H-Bond Acceptor                   0
   Rotatable Bond Count              5
   Exact Mass                        114.140851
   MonoIsotopic Mass                 114.140851
   Topological Polar Surface Area    0
   Heavy Atom Count                  8
   Formal Charge                     0
   Complexity                        25
   Isotope Atom Count                0
   Defined Atom Stereocenter Count   0
   Undefined Atom Stereocenter Count 0
   Defined Bond Stereocenter Count   0
   Undefined Bond Stereocenter Count 0
   Covalently-Bonded Unit Count      1
   Feature 3D Hydrophobe Count       4
   Effective Rotor Count             5
   Conformer Sampling RMSD           0.6
   CID Conformer Count               [18]45

References

   1. http://toxnet.nlm.nih.gov/cgi-bin/sis/search/r?dbs+hsdb:@term+@rn+@rel+111-65-9
   2. http://toxnet.nlm.nih.gov/cgi-bin/sis/search/r?dbs+hsdb:@term+@rn+@rel+111-65-9
   3. http://toxnet.nlm.nih.gov/cgi-bin/sis/search/r?dbs+hsdb:@term+@rn+@rel+111-65-9
   4. http://toxnet.nlm.nih.gov/cgi-bin/sis/search/r?dbs+hsdb:@term+@rn+@rel+111-65-9
   5. http://toxnet.nlm.nih.gov/cgi-bin/sis/search/r?dbs+hsdb:@term+@rn+@rel+111-65-9
   6. http://toxnet.nlm.nih.gov/cgi-bin/sis/search/r?dbs+hsdb:@term+@rn+@rel+111-65-9
   7. http://toxnet.nlm.nih.gov/cgi-bin/sis/search/r?dbs+hsdb:@term+@rn+@rel+111-65-9
   8. http://toxnet.nlm.nih.gov/cgi-bin/sis/search/r?dbs+hsdb:@term+@rn+@rel+111-65-9
   9. http://toxnet.nlm.nih.gov/cgi-bin/sis/search/r?dbs+hsdb:@term+@rn+@rel+111-65-9
  10. http://toxnet.nlm.nih.gov/cgi-bin/sis/search/r?dbs+hsdb:@term+@rn+@rel+111-65-9
  11. http://toxnet.nlm.nih.gov/cgi-bin/sis/search/r?dbs+hsdb:@term+@rn+@rel+111-65-9
  12. http://toxnet.nlm.nih.gov/cgi-bin/sis/search/r?dbs+hsdb:@term+@rn+@rel+111-65-9
  13. http://toxnet.nlm.nih.gov/cgi-bin/sis/search/r?dbs+hsdb:@term+@rn+@rel+111-65-9
  14. http://toxnet.nlm.nih.gov/cgi-bin/sis/search/r?dbs+hsdb:@term+@rn+@rel+111-65-9
  15. http://toxnet.nlm.nih.gov/cgi-bin/sis/search/r?dbs+hsdb:@term+@rn+@rel+111-65-9
  16. http://toxnet.nlm.nih.gov/cgi-bin/sis/search/r?dbs+hsdb:@term+@rn+@rel+111-65-9
  17. http://toxnet.nlm.nih.gov/cgi-bin/sis/search/r?dbs+hsdb:@term+@rn+@rel+111-65-9
  18. http://pubchem.ncbi.nlm.nih.gov/vw3d/vw3d.cgi?cid=356
