   Color/Form
        Yellow plates or needles (recrystallized from light petroleum
   solution) showing a greenish-yellow fluorescence.
   from [1]HSDB

   Boiling Point
        536 deg C
   from [2]HSDB

   Melting Point
        163.6 deg C
   from [3]HSDB

   Solubilities

     * 6.2X10-2 mg/l at 20 deg C
     * Soluble in organic solvents.

   from [4]HSDB

   Other Chemical/Physical Properties

     * THE PICRATE DECOMP @ 150-180 DEG C.
     * Absorbs solar radiation strongly.
     * lambda max: 242, 249, 274, 290, 301, 314, 340, 358, 376, 382, 407,
       426, 446, 453, 460 nm (in cyclohexane)
     * Henry's Law constant = 3.48X10-7 atm-cu m/mole at 25 deg C

   from [5]HSDB

   Computed Properties
   Molecular Weight                  276.33068 [g/mol]
   Molecular Formula                 C[22]H[12]
   XLogP3                            7
   H-Bond Donor                      0
   H-Bond Acceptor                   0
   Rotatable Bond Count              0
   Exact Mass                        276.0939
   MonoIsotopic Mass                 276.0939
   Topological Polar Surface Area    0
   Heavy Atom Count                  22
   Formal Charge                     0
   Complexity                        453
   Isotope Atom Count                0
   Defined Atom Stereocenter Count   0
   Undefined Atom Stereocenter Count 0
   Defined Bond Stereocenter Count   0
   Undefined Bond Stereocenter Count 0
   Covalently-Bonded Unit Count      1
   Feature 3D Ring Count             6
   Effective Rotor Count             0
   Conformer Sampling RMSD           0.6
   CID Conformer Count               [6]1

References

   1. http://toxnet.nlm.nih.gov/cgi-bin/sis/search/r?dbs+hsdb:@term+@rn+@rel+193-39-5
   2. http://toxnet.nlm.nih.gov/cgi-bin/sis/search/r?dbs+hsdb:@term+@rn+@rel+193-39-5
   3. http://toxnet.nlm.nih.gov/cgi-bin/sis/search/r?dbs+hsdb:@term+@rn+@rel+193-39-5
   4. http://toxnet.nlm.nih.gov/cgi-bin/sis/search/r?dbs+hsdb:@term+@rn+@rel+193-39-5
   5. http://toxnet.nlm.nih.gov/cgi-bin/sis/search/r?dbs+hsdb:@term+@rn+@rel+193-39-5
   6. http://pubchem.ncbi.nlm.nih.gov/vw3d/vw3d.cgi?cid=9131
