441757
  -OEChem-07051212562D

 62 68  0     1  0  0  0  0  0999 V2000
    4.5090    1.2805    0.0000 O   0  0  0  0  0  0  0  0  0  0  0  0
    3.3938    3.7615    0.0000 O   0  0  0  0  0  0  0  0  0  0  0  0
    5.3613   -2.3612    0.0000 O   0  0  0  0  0  0  0  0  0  0  0  0
    4.5011   -3.8645    0.0000 O   0  0  0  0  0  0  0  0  0  0  0  0
    2.7370    2.2897    0.0000 N   0  0  3  0  0  0  0  0  0  0  0  0
    3.6030    0.7897    0.0000 C   0  0  2  0  0  0  0  0  0  0  0  0
    3.5870   -0.2518    0.0000 C   0  0  1  0  0  0  0  0  0  0  0  0
    4.4850   -0.7796    0.0000 C   0  0  1  0  0  0  0  0  0  0  0  0
    4.4691    1.2897    0.0000 C   0  0  1  0  0  0  0  0  0  0  0  0
    5.3871   -0.2588    0.0000 C   0  0  1  0  0  0  0  0  0  0  0  0
    4.4691    2.2897    0.0000 C   0  0  2  0  0  0  0  0  0  0  0  0
    2.7370    1.2897    0.0000 C   0  0  1  0  0  0  0  0  0  0  0  0
    5.3791    0.7828    0.0000 C   0  0  0  0  0  0  0  0  0  0  0  0
    3.4000    1.1596    0.0000 C   0  0  0  0  0  0  0  0  0  0  0  0
    2.6350   -0.7725    0.0000 C   0  0  0  0  0  0  0  0  0  0  0  0
    3.6030    2.7897    0.0000 C   0  0  1  0  0  0  0  0  0  0  0  0
    4.8256    0.7057    0.0000 C   0  0  0  0  0  0  0  0  0  0  0  0
    4.4934   -1.8646    0.0000 C   0  0  2  0  0  0  0  0  0  0  0  0
    2.6183   -1.8573    0.0000 C   0  0  2  0  0  0  0  0  0  0  0  0
    4.0472    2.2806    0.0000 C   0  0  0  0  0  0  0  0  0  0  0  0
    3.3163    1.9552    0.0000 C   0  0  0  0  0  0  0  0  0  0  0  0
    3.5691    1.5678    0.0000 C   0  0  0  0  0  0  0  0  0  0  0  0
    3.5538   -2.4070    0.0000 C   0  0  0  0  0  0  0  0  0  0  0  0
    4.9691    3.1557    0.0000 C   0  0  0  0  0  0  0  0  0  0  0  0
    2.0000    2.9568    0.0000 C   0  0  0  0  0  0  0  0  0  0  0  0
    2.4051    3.8645    0.0000 C   0  0  0  0  0  0  0  0  0  0  0  0
    3.5499   -3.4070    0.0000 C   0  0  0  0  0  0  0  0  0  0  0  0
    5.3652   -3.3612    0.0000 C   0  0  0  0  0  0  0  0  0  0  0  0
    6.2331   -3.8579    0.0000 C   0  0  0  0  0  0  0  0  0  0  0  0
    2.8542    0.1788    0.0000 H   0  0  0  0  0  0  0  0  0  0  0  0
    5.2052    1.7147    0.0000 H   0  0  0  0  0  0  0  0  0  0  0  0
    6.2076   -0.4809    0.0000 H   0  0  0  0  0  0  0  0  0  0  0  0
    2.0009    0.8647    0.0000 H   0  0  0  0  0  0  0  0  0  0  0  0
    5.9907    0.6814    0.0000 H   0  0  0  0  0  0  0  0  0  0  0  0
    5.5836    1.3681    0.0000 H   0  0  0  0  0  0  0  0  0  0  0  0
    2.8052    1.3348    0.0000 H   0  0  0  0  0  0  0  0  0  0  0  0
    3.9916    1.3448    0.0000 H   0  0  0  0  0  0  0  0  0  0  0  0
    2.4350   -0.1856    0.0000 H   0  0  0  0  0  0  0  0  0  0  0  0
    2.0226   -0.8691    0.0000 H   0  0  0  0  0  0  0  0  0  0  0  0
    4.3392    3.2147    0.0000 H   0  0  0  0  0  0  0  0  0  0  0  0
    5.4079    0.4927    0.0000 H   0  0  0  0  0  0  0  0  0  0  0  0
    5.1097    1.2568    0.0000 H   0  0  0  0  0  0  0  0  0  0  0  0
    4.4946   -2.4846    0.0000 H   0  0  0  0  0  0  0  0  0  0  0  0
    1.8822   -2.2823    0.0000 H   0  0  0  0  0  0  0  0  0  0  0  0
    4.2711    2.8587    0.0000 H   0  0  0  0  0  0  0  0  0  0  0  0
    4.1826    1.6756    0.0000 H   0  0  0  0  0  0  0  0  0  0  0  0
    3.1247    2.5449    0.0000 H   0  0  0  0  0  0  0  0  0  0  0  0
    2.7099    1.8263    0.0000 H   0  0  0  0  0  0  0  0  0  0  0  0
    3.8615    2.1145    0.0000 H   0  0  0  0  0  0  0  0  0  0  0  0
    2.9935    1.7983    0.0000 H   0  0  0  0  0  0  0  0  0  0  0  0
    5.5060    2.8457    0.0000 H   0  0  0  0  0  0  0  0  0  0  0  0
    5.2791    3.6926    0.0000 H   0  0  0  0  0  0  0  0  0  0  0  0
    4.4321    3.4657    0.0000 H   0  0  0  0  0  0  0  0  0  0  0  0
    1.4635    3.2675    0.0000 H   0  0  0  0  0  0  0  0  0  0  0  0
    1.6346    2.4559    0.0000 H   0  0  0  0  0  0  0  0  0  0  0  0
    2.5338    4.4710    0.0000 H   0  0  0  0  0  0  0  0  0  0  0  0
    1.8155    4.0563    0.0000 H   0  0  0  0  0  0  0  0  0  0  0  0
    3.0118   -3.7150    0.0000 H   0  0  0  0  0  0  0  0  0  0  0  0
    4.0856   -3.7191    0.0000 H   0  0  0  0  0  0  0  0  0  0  0  0
    5.9252   -4.3960    0.0000 H   0  0  0  0  0  0  0  0  0  0  0  0
    6.7713   -4.1658    0.0000 H   0  0  0  0  0  0  0  0  0  0  0  0
    6.5411   -3.3197    0.0000 H   0  0  0  0  0  0  0  0  0  0  0  0
  1 10  1  0  0  0  0
  1 12  1  0  0  0  0
  2 16  1  0  0  0  0
  2 26  1  0  0  0  0
 18  3  1  1  0  0  0
  3 28  1  0  0  0  0
  4 28  2  0  0  0  0
  5 12  1  0  0  0  0
  5 16  1  0  0  0  0
  5 25  1  0  0  0  0
  6  7  1  0  0  0  0
  6  9  1  0  0  0  0
  6 12  1  0  0  0  0
  6 14  1  6  0  0  0
  7  8  1  0  0  0  0
  7 15  1  0  0  0  0
  7 30  1  6  0  0  0
  8 10  1  0  0  0  0
  8 17  1  1  0  0  0
  8 18  1  0  0  0  0
  9 11  1  0  0  0  0
  9 13  1  0  0  0  0
  9 31  1  6  0  0  0
 10 13  1  0  0  0  0
 10 32  1  1  0  0  0
 11 16  1  0  0  0  0
 11 20  1  0  0  0  0
 11 24  1  6  0  0  0
 12 33  1  1  0  0  0
 13 34  1  0  0  0  0
 13 35  1  0  0  0  0
 14 21  1  0  0  0  0
 14 36  1  0  0  0  0
 14 37  1  0  0  0  0
 15 19  1  0  0  0  0
 15 38  1  0  0  0  0
 15 39  1  0  0  0  0
 16 40  1  1  0  0  0
 17 22  1  0  0  0  0
 17 41  1  0  0  0  0
 17 42  1  0  0  0  0
 18 23  1  0  0  0  0
 18 43  1  0  0  0  0
 19 22  1  0  0  0  0
 19 23  1  0  0  0  0
 19 44  1  1  0  0  0
 20 21  1  0  0  0  0
 20 45  1  0  0  0  0
 20 46  1  0  0  0  0
 21 47  1  0  0  0  0
 21 48  1  0  0  0  0
 22 49  1  0  0  0  0
 22 50  1  0  0  0  0
 23 27  2  0  0  0  0
 24 51  1  0  0  0  0
 24 52  1  0  0  0  0
 24 53  1  0  0  0  0
 25 26  1  0  0  0  0
 25 54  1  0  0  0  0
 25 55  1  0  0  0  0
 26 56  1  0  0  0  0
 26 57  1  0  0  0  0
 27 58  1  0  0  0  0
 27 59  1  0  0  0  0
 28 29  1  0  0  0  0
 29 60  1  0  0  0  0
 29 61  1  0  0  0  0
 29 62  1  0  0  0  0
M  END
> <PUBCHEM_COMPOUND_CID>
441757

> <PUBCHEM_COMPOUND_CANONICALIZED>
1

> <PUBCHEM_CACTVS_COMPLEXITY>
813

> <PUBCHEM_CACTVS_HBOND_ACCEPTOR>
5

> <PUBCHEM_CACTVS_HBOND_DONOR>
0

> <PUBCHEM_CACTVS_ROTATABLE_BOND>
2

> <PUBCHEM_CACTVS_SUBSKEYS>
AAADcfB6OAAAAAAAAAAAAAAAAAAAAWAAAAA8aNGDAAAWLFjAAAAAHgAAAAAADxThgAYCCAMABACIAgDSCAAAAAAgAAAAAAAIAAgCBAIAoQAPAAAFgACQIAGQ8P4PgAAAAAAAAADAAAYAADAAAAAAAAAAAA==

> <PUBCHEM_IUPAC_INCHI>
InChI=1S/C24H33NO4/c1-13-15-5-8-24(19(13)28-14(2)26)17(11-15)23-7-4-6-22(3)16(23)12-18(24)29-21(23)25-9-10-27-20(22)25/h15-21H,1,4-12H2,2-3H3/t15-,16+,17-,18+,19-,20+,21+,22+,23-,24+/m0/s1

> <PUBCHEM_IUPAC_INCHIKEY>
ZPELMDXCJZDIBP-OWOZRORESA-N

> <PUBCHEM_XLOGP3_AA>
3.5

> <PUBCHEM_EXACT_MASS>
399.240959

> <PUBCHEM_MOLECULAR_FORMULA>
C24H33NO4

> <PUBCHEM_MOLECULAR_WEIGHT>
399.52312

> <PUBCHEM_OPENEYE_CAN_SMILES>
CC(=O)OC1C(=C)C2CCC13C(C2)C45CCCC6(C4CC3OC5N7C6OCC7)C

> <PUBCHEM_OPENEYE_ISO_SMILES>
CC(=O)O[C@H]1C(=C)[C@H]2CC[C@]13[C@@H](C2)[C@]45CCC[C@@]6([C@H]4C[C@H]3O[C@H]5N7[C@@H]6OCC7)C

> <PUBCHEM_CACTVS_TPSA>
48

> <PUBCHEM_MONOISOTOPIC_WEIGHT>
399.240959

> <PUBCHEM_TOTAL_CHARGE>
0

> <PUBCHEM_HEAVY_ATOM_COUNT>
29

> <PUBCHEM_ATOM_DEF_STEREO_COUNT>
10

> <PUBCHEM_ATOM_UDEF_STEREO_COUNT>
0

> <PUBCHEM_BOND_DEF_STEREO_COUNT>
0

> <PUBCHEM_BOND_UDEF_STEREO_COUNT>
0

> <PUBCHEM_ISOTOPIC_ATOM_COUNT>
0

> <PUBCHEM_COMPONENT_COUNT>
1

> <PUBCHEM_CACTVS_TAUTO_COUNT>
1

> <PUBCHEM_COORDINATE_TYPE>
1
5
255

> <PUBCHEM_BONDANNOTATIONS>
10  32  5
11  24  6
12  33  5
16  40  5
19  44  5
18  3  5
6  14  6
7  30  6
8  17  5
9  31  6

$$$$

