   Chemical and Physical Properties References

   [1]USDA ARS - USDA chemical properties
   from [2]ChemIDplus

   Color/Form

     * Crystalline solid from petroleum ether
     * White solid

   from [3]HSDB

   Boiling Point
        193 deg C at 1 mm Hg
   from [4]HSDB

   Melting Point
        109-110 deg C
   from [5]HSDB

   Density/Specific Gravity
        Specific gravity: 1.476 at 20 deg C (solid)
   from [6]HSDB

   Octanol/Water Partition Coefficient
        log Kow = 6.02
   from [7]HSDB

   Solubilities

     * Soluble in organic solvents; insoluble in water; not compatible
       with alkalies.
     * Slightly soluble in chloroform
     * In water, 0.09 mg/L at 25 deg C

   from [8]HSDB

   Spectral Properties

     * Intensity of mass spectral peaks: 235 M/z (100%), 237 M/z (65%),
       165 M/z (41%), 236 M/z (17%)
     * IR: 1001 (Coblentz Society Spectral Collection)
     * UV: 5898 (Sadtler Research Laboratories Spectral Collection)
     * NMR: 2040 (Sadtler Research Laboratories Spectral Collection)

   from [9]HSDB

   Vapor Density
        11 (Air = 1)
   from [10]HSDB

   Vapor Pressure
        1.35X10-6 mm Hg at 25 deg C
   from [11]HSDB

   Other Chemical/Physical Properties

     * Chemical properties and solubilities are similar to those of DDT.
     * Solubility in water, 0.160 mg/L at 24 deg C /99% purity/
     * Reaction quantum yield of 0.04 for photolysis of DDD in hexane
       solvent at 254 nm
     * Henry's Law constant= 6.60X10-6 atm-cu m/mol @ 25 deg C
     * Hydroxyl radical reaction rate constant = 4.3X10-12 cu cm/molec-sec
       at 25 deg C (est)

   from [12]HSDB

   Computed Properties
   Molecular Weight                  320.0412 [g/mol]
   Molecular Formula                 C[14]H[10]Cl[4]
   XLogP3                            6.2
   H-Bond Donor                      0
   H-Bond Acceptor                   0
   Rotatable Bond Count              3
   Exact Mass                        319.950711
   MonoIsotopic Mass                 317.953661
   Topological Polar Surface Area    0
   Heavy Atom Count                  18
   Formal Charge                     0
   Complexity                        218
   Isotope Atom Count                0
   Defined Atom Stereocenter Count   0
   Undefined Atom Stereocenter Count 0
   Defined Bond Stereocenter Count   0
   Undefined Bond Stereocenter Count 0
   Covalently-Bonded Unit Count      1
   Feature 3D Ring Count             2
   Effective Rotor Count             3
   Conformer Sampling RMSD           0.6
   CID Conformer Count               [13]6

References

   1. http://www.ars.usda.gov/SP2UserFiles/ad_hoc/12755100DatabaseFiles/PesticidePropertiesDatabase/IndividualPesticideFiles/DDD(TDE).TXT
   2. http://chem.sis.nlm.nih.gov/chemidplus/
   3. http://toxnet.nlm.nih.gov/cgi-bin/sis/search/r?dbs+hsdb:@term+@rn+@rel+72-54-8
   4. http://toxnet.nlm.nih.gov/cgi-bin/sis/search/r?dbs+hsdb:@term+@rn+@rel+72-54-8
   5. http://toxnet.nlm.nih.gov/cgi-bin/sis/search/r?dbs+hsdb:@term+@rn+@rel+72-54-8
   6. http://toxnet.nlm.nih.gov/cgi-bin/sis/search/r?dbs+hsdb:@term+@rn+@rel+72-54-8
   7. http://toxnet.nlm.nih.gov/cgi-bin/sis/search/r?dbs+hsdb:@term+@rn+@rel+72-54-8
   8. http://toxnet.nlm.nih.gov/cgi-bin/sis/search/r?dbs+hsdb:@term+@rn+@rel+72-54-8
   9. http://toxnet.nlm.nih.gov/cgi-bin/sis/search/r?dbs+hsdb:@term+@rn+@rel+72-54-8
  10. http://toxnet.nlm.nih.gov/cgi-bin/sis/search/r?dbs+hsdb:@term+@rn+@rel+72-54-8
  11. http://toxnet.nlm.nih.gov/cgi-bin/sis/search/r?dbs+hsdb:@term+@rn+@rel+72-54-8
  12. http://toxnet.nlm.nih.gov/cgi-bin/sis/search/r?dbs+hsdb:@term+@rn+@rel+72-54-8
  13. http://pubchem.ncbi.nlm.nih.gov/vw3d/vw3d.cgi?cid=6294
