   Color/Form
        Stout prisms from water.
   from [1]HSDB

   Melting Point
        94 deg C
   from [2]HSDB

   Octanol/Water Partition Coefficient
        log Kow = 1.05
   from [3]HSDB

   Solubilities

     * Sparingly soluble in cold water, more soluble in hot water. Freely
       soluble in alcohol, ether, benzene, dilute aqueous solutions of
       alkali hydroxides.
     * In water, 5.3X10+3 mg/L at 25 deg C (est)

   from [4]HSDB

   Vapor Pressure
        5.5X10-8 mm Hg at 25 deg C (est)
   from [5]HSDB

   Other Chemical/Physical Properties

     * Henry's Law constant = 3.7X10-10 atm0cu m/mol at 25 deg C (est)
     * Hydroxyl radical reaction rate constant = 1.4X10-11 cu cm/molec-sec
       at 25 deg C (est)

   from [6]HSDB

   Computed Properties
   Molecular Weight                  204.22518 [g/mol]
   Molecular Formula                 C[11]H[12]N[2]O[2]
   XLogP3                            1
   H-Bond Donor                      1
   H-Bond Acceptor                   2
   Rotatable Bond Count              2
   Tautomer Count                    4
   Exact Mass                        204.089878
   MonoIsotopic Mass                 204.089878
   Topological Polar Surface Area    49.4
   Heavy Atom Count                  15
   Formal Charge                     0
   Complexity                        272
   Isotope Atom Count                0
   Defined Atom Stereocenter Count   0
   Undefined Atom Stereocenter Count 1
   Defined Bond Stereocenter Count   0
   Undefined Bond Stereocenter Count 0
   Covalently-Bonded Unit Count      1
   Feature 3D Acceptor Count         2
   Feature 3D Donor Count            1
   Feature 3D Ring Count             2
   Effective Rotor Count             2.6
   Conformer Sampling RMSD           0.6
   CID Conformer Count               [7]4

References

   1. http://toxnet.nlm.nih.gov/cgi-bin/sis/search/r?dbs+hsdb:@term+@rn+@rel+86-35-1
   2. http://toxnet.nlm.nih.gov/cgi-bin/sis/search/r?dbs+hsdb:@term+@rn+@rel+86-35-1
   3. http://toxnet.nlm.nih.gov/cgi-bin/sis/search/r?dbs+hsdb:@term+@rn+@rel+86-35-1
   4. http://toxnet.nlm.nih.gov/cgi-bin/sis/search/r?dbs+hsdb:@term+@rn+@rel+86-35-1
   5. http://toxnet.nlm.nih.gov/cgi-bin/sis/search/r?dbs+hsdb:@term+@rn+@rel+86-35-1
   6. http://toxnet.nlm.nih.gov/cgi-bin/sis/search/r?dbs+hsdb:@term+@rn+@rel+86-35-1
   7. http://pubchem.ncbi.nlm.nih.gov/vw3d/vw3d.cgi?cid=3292
