5283168
  -OEChem-07051213062D

 55 54  0     1  0  0  0  0  0999 V2000
    6.0010    2.5600    0.0000 O   0  0  0  0  0  0  0  0  0  0  0  0
    5.1350   -4.9400    0.0000 O   0  0  0  0  0  0  0  0  0  0  0  0
    3.4030   -4.9400    0.0000 O   0  0  0  0  0  0  0  0  0  0  0  0
   10.3312    4.0600    0.0000 C   0  0  0  0  0  0  0  0  0  0  0  0
   10.3312    3.0600    0.0000 C   0  0  0  0  0  0  0  0  0  0  0  0
   11.1972    4.5600    0.0000 C   0  0  0  0  0  0  0  0  0  0  0  0
    9.4651    2.5600    0.0000 C   0  0  0  0  0  0  0  0  0  0  0  0
   11.1972    5.5600    0.0000 C   0  0  0  0  0  0  0  0  0  0  0  0
    9.4651    1.5600    0.0000 C   0  0  0  0  0  0  0  0  0  0  0  0
    3.4030   -2.9400    0.0000 C   0  0  0  0  0  0  0  0  0  0  0  0
    6.0010    1.5600    0.0000 C   0  0  2  0  0  0  0  0  0  0  0  0
    3.4030   -1.9400    0.0000 C   0  0  0  0  0  0  0  0  0  0  0  0
    5.1350    1.0600    0.0000 C   0  0  0  0  0  0  0  0  0  0  0  0
    4.2690   -3.4400    0.0000 C   0  0  0  0  0  0  0  0  0  0  0  0
    8.5991    1.0600    0.0000 C   0  0  0  0  0  0  0  0  0  0  0  0
    3.4030    0.0600    0.0000 C   0  0  0  0  0  0  0  0  0  0  0  0
    6.8671    1.0600    0.0000 C   0  0  0  0  0  0  0  0  0  0  0  0
    2.5369   -1.4400    0.0000 C   0  0  0  0  0  0  0  0  0  0  0  0
    4.2690    1.5600    0.0000 C   0  0  0  0  0  0  0  0  0  0  0  0
    7.7331    1.5600    0.0000 C   0  0  0  0  0  0  0  0  0  0  0  0
    2.5369   -0.4400    0.0000 C   0  0  0  0  0  0  0  0  0  0  0  0
    3.4030    1.0600    0.0000 C   0  0  0  0  0  0  0  0  0  0  0  0
    4.2690   -4.4400    0.0000 C   0  0  0  0  0  0  0  0  0  0  0  0
   10.1191    4.6426    0.0000 H   0  0  0  0  0  0  0  0  0  0  0  0
    9.7206    3.9523    0.0000 H   0  0  0  0  0  0  0  0  0  0  0  0
   10.5432    2.4774    0.0000 H   0  0  0  0  0  0  0  0  0  0  0  0
   10.9417    3.1677    0.0000 H   0  0  0  0  0  0  0  0  0  0  0  0
   11.4092    3.9774    0.0000 H   0  0  0  0  0  0  0  0  0  0  0  0
   11.8078    4.6677    0.0000 H   0  0  0  0  0  0  0  0  0  0  0  0
    9.2531    3.1426    0.0000 H   0  0  0  0  0  0  0  0  0  0  0  0
    8.8546    2.4523    0.0000 H   0  0  0  0  0  0  0  0  0  0  0  0
   11.8172    5.5600    0.0000 H   0  0  0  0  0  0  0  0  0  0  0  0
   11.1972    6.1800    0.0000 H   0  0  0  0  0  0  0  0  0  0  0  0
   10.5772    5.5600    0.0000 H   0  0  0  0  0  0  0  0  0  0  0  0
   10.0021    1.2500    0.0000 H   0  0  0  0  0  0  0  0  0  0  0  0
    2.7924   -2.8323    0.0000 H   0  0  0  0  0  0  0  0  0  0  0  0
    3.1909   -3.5226    0.0000 H   0  0  0  0  0  0  0  0  0  0  0  0
    6.5380    1.8700    0.0000 H   0  0  0  0  0  0  0  0  0  0  0  0
    4.0135   -2.0477    0.0000 H   0  0  0  0  0  0  0  0  0  0  0  0
    3.6150   -1.3574    0.0000 H   0  0  0  0  0  0  0  0  0  0  0  0
    4.7365    0.5851    0.0000 H   0  0  0  0  0  0  0  0  0  0  0  0
    5.5335    0.5851    0.0000 H   0  0  0  0  0  0  0  0  0  0  0  0
    4.8796   -3.5477    0.0000 H   0  0  0  0  0  0  0  0  0  0  0  0
    4.4810   -2.8574    0.0000 H   0  0  0  0  0  0  0  0  0  0  0  0
    8.5991    0.4400    0.0000 H   0  0  0  0  0  0  0  0  0  0  0  0
    3.6150   -0.5226    0.0000 H   0  0  0  0  0  0  0  0  0  0  0  0
    4.0135    0.1677    0.0000 H   0  0  0  0  0  0  0  0  0  0  0  0
    2.0000   -1.7500    0.0000 H   0  0  0  0  0  0  0  0  0  0  0  0
    6.8671    0.4400    0.0000 H   0  0  0  0  0  0  0  0  0  0  0  0
    4.2690    2.1800    0.0000 H   0  0  0  0  0  0  0  0  0  0  0  0
    7.7331    2.1800    0.0000 H   0  0  0  0  0  0  0  0  0  0  0  0
    2.0000   -0.1300    0.0000 H   0  0  0  0  0  0  0  0  0  0  0  0
    2.8660    1.3700    0.0000 H   0  0  0  0  0  0  0  0  0  0  0  0
    5.4641    2.8700    0.0000 H   0  0  0  0  0  0  0  0  0  0  0  0
    5.1350   -5.5600    0.0000 H   0  0  0  0  0  0  0  0  0  0  0  0
 11  1  1  1  0  0  0
  1 54  1  0  0  0  0
  2 23  1  0  0  0  0
  2 55  1  0  0  0  0
  3 23  2  0  0  0  0
  4  5  1  0  0  0  0
  4  6  1  0  0  0  0
  4 24  1  0  0  0  0
  4 25  1  0  0  0  0
  5  7  1  0  0  0  0
  5 26  1  0  0  0  0
  5 27  1  0  0  0  0
  6  8  1  0  0  0  0
  6 28  1  0  0  0  0
  6 29  1  0  0  0  0
  7  9  1  0  0  0  0
  7 30  1  0  0  0  0
  7 31  1  0  0  0  0
  8 32  1  0  0  0  0
  8 33  1  0  0  0  0
  8 34  1  0  0  0  0
  9 15  2  0  0  0  0
  9 35  1  0  0  0  0
 10 12  1  0  0  0  0
 10 14  1  0  0  0  0
 10 36  1  0  0  0  0
 10 37  1  0  0  0  0
 11 13  1  0  0  0  0
 11 17  1  0  0  0  0
 11 38  1  0  0  0  0
 12 18  1  0  0  0  0
 12 39  1  0  0  0  0
 12 40  1  0  0  0  0
 13 19  1  0  0  0  0
 13 41  1  0  0  0  0
 13 42  1  0  0  0  0
 14 23  1  0  0  0  0
 14 43  1  0  0  0  0
 14 44  1  0  0  0  0
 15 20  1  0  0  0  0
 15 45  1  0  0  0  0
 16 21  1  0  0  0  0
 16 22  1  0  0  0  0
 16 46  1  0  0  0  0
 16 47  1  0  0  0  0
 17 20  2  0  0  0  0
 17 49  1  0  0  0  0
 18 21  2  0  0  0  0
 18 48  1  0  0  0  0
 19 22  2  0  0  0  0
 19 50  1  0  0  0  0
 20 51  1  0  0  0  0
 21 52  1  0  0  0  0
 22 53  1  0  0  0  0
M  END
> <PUBCHEM_COMPOUND_CID>
5283168

> <PUBCHEM_COMPOUND_CANONICALIZED>
1

> <PUBCHEM_CACTVS_COMPLEXITY>
392

> <PUBCHEM_CACTVS_HBOND_ACCEPTOR>
3

> <PUBCHEM_CACTVS_HBOND_DONOR>
2

> <PUBCHEM_CACTVS_ROTATABLE_BOND>
14

> <PUBCHEM_CACTVS_SUBSKEYS>
AAADcfB4MAAAAAAAAAAAAAAAAAAAAAAAAAAAAAAAAAAAAAAAAAAAGgAACAAACBSggAICCAAAAgCIACDSCAAAAAAgAAAICAEAAAgIFBIAAQAAUAAEwAAIkAOIAAAAAAAAAAAAAAAAAAAAAAAAAAAAAAAAAA==

> <PUBCHEM_IUPAC_OPENEYE_NAME>
(5Z,8Z,11R,12E,14Z)-11-hydroxyicosa-5,8,12,14-tetraenoic acid

> <PUBCHEM_IUPAC_CAS_NAME>
(5Z,8Z,11R,12E,14Z)-11-hydroxyeicosa-5,8,12,14-tetraenoic acid

> <PUBCHEM_IUPAC_NAME>
(5Z,8Z,11R,12E,14Z)-11-hydroxyicosa-5,8,12,14-tetraenoic acid

> <PUBCHEM_IUPAC_SYSTEMATIC_NAME>
(5Z,8Z,11R,12E,14Z)-11-oxidanylicosa-5,8,12,14-tetraenoic acid

> <PUBCHEM_IUPAC_TRADITIONAL_NAME>
(5Z,8Z,11R,12E,14Z)-11-hydroxyeicosa-5,8,12,14-tetraenoic acid

> <PUBCHEM_IUPAC_INCHI>
InChI=1S/C20H32O3/c1-2-3-4-5-7-10-13-16-19(21)17-14-11-8-6-9-12-15-18-20(22)23/h6-7,9-11,13-14,16,19,21H,2-5,8,12,15,17-18H2,1H3,(H,22,23)/b9-6-,10-7-,14-11-,16-13+/t19-/m0/s1

> <PUBCHEM_IUPAC_INCHIKEY>
GCZRCCHPLVMMJE-WXMXURGXSA-N

> <PUBCHEM_XLOGP3_AA>
5.2

> <PUBCHEM_EXACT_MASS>
320.235145

> <PUBCHEM_MOLECULAR_FORMULA>
C20H32O3

> <PUBCHEM_MOLECULAR_WEIGHT>
320.46628

> <PUBCHEM_OPENEYE_CAN_SMILES>
CCCCCC=CC=CC(CC=CCC=CCCCC(=O)O)O

> <PUBCHEM_OPENEYE_ISO_SMILES>
CCCCC/C=C\C=C\[C@@H](C/C=C\C/C=C\CCCC(=O)O)O

> <PUBCHEM_CACTVS_TPSA>
57.5

> <PUBCHEM_MONOISOTOPIC_WEIGHT>
320.235145

> <PUBCHEM_TOTAL_CHARGE>
0

> <PUBCHEM_HEAVY_ATOM_COUNT>
23

> <PUBCHEM_ATOM_DEF_STEREO_COUNT>
1

> <PUBCHEM_ATOM_UDEF_STEREO_COUNT>
0

> <PUBCHEM_BOND_DEF_STEREO_COUNT>
4

> <PUBCHEM_BOND_UDEF_STEREO_COUNT>
0

> <PUBCHEM_ISOTOPIC_ATOM_COUNT>
0

> <PUBCHEM_COMPONENT_COUNT>
1

> <PUBCHEM_CACTVS_TAUTO_COUNT>
1

> <PUBCHEM_COORDINATE_TYPE>
1
5
255

> <PUBCHEM_BONDANNOTATIONS>
11  1  5

$$$$

