11115
  -OEChem-07051213102D

 37 37  0     0  0  0  0  0  0999 V2000
    5.1350   -0.1900    0.0000 O   0  0  0  0  0  0  0  0  0  0  0  0
    3.4030   -0.1900    0.0000 O   0  0  0  0  0  0  0  0  0  0  0  0
    6.0010    2.3100    0.0000 N   0  0  0  0  0  0  0  0  0  0  0  0
    2.5369   -3.6900    0.0000 N   0  0  0  0  0  0  0  0  0  0  0  0
    6.8671    3.8100    0.0000 C   0  0  0  0  0  0  0  0  0  0  0  0
    6.8671    2.8100    0.0000 C   0  0  0  0  0  0  0  0  0  0  0  0
    7.7331    4.3100    0.0000 C   0  0  0  0  0  0  0  0  0  0  0  0
    6.0010    4.3100    0.0000 C   0  0  0  0  0  0  0  0  0  0  0  0
    6.0010    1.3100    0.0000 C   0  0  0  0  0  0  0  0  0  0  0  0
    5.1350    0.8100    0.0000 C   0  0  0  0  0  0  0  0  0  0  0  0
    4.2690   -1.6900    0.0000 C   0  0  0  0  0  0  0  0  0  0  0  0
    4.2690   -0.6900    0.0000 C   0  0  0  0  0  0  0  0  0  0  0  0
    3.4030   -2.1900    0.0000 C   0  0  0  0  0  0  0  0  0  0  0  0
    5.1350   -2.1900    0.0000 C   0  0  0  0  0  0  0  0  0  0  0  0
    3.4030   -3.1900    0.0000 C   0  0  0  0  0  0  0  0  0  0  0  0
    5.1350   -3.1900    0.0000 C   0  0  0  0  0  0  0  0  0  0  0  0
    4.2690   -3.6900    0.0000 C   0  0  0  0  0  0  0  0  0  0  0  0
    6.3301    3.5000    0.0000 H   0  0  0  0  0  0  0  0  0  0  0  0
    7.0791    2.2274    0.0000 H   0  0  0  0  0  0  0  0  0  0  0  0
    7.4776    2.9177    0.0000 H   0  0  0  0  0  0  0  0  0  0  0  0
    5.4641    2.6200    0.0000 H   0  0  0  0  0  0  0  0  0  0  0  0
    8.0431    3.7731    0.0000 H   0  0  0  0  0  0  0  0  0  0  0  0
    8.2700    4.6200    0.0000 H   0  0  0  0  0  0  0  0  0  0  0  0
    7.4231    4.8469    0.0000 H   0  0  0  0  0  0  0  0  0  0  0  0
    6.3110    4.8469    0.0000 H   0  0  0  0  0  0  0  0  0  0  0  0
    5.4641    4.6200    0.0000 H   0  0  0  0  0  0  0  0  0  0  0  0
    5.6910    3.7731    0.0000 H   0  0  0  0  0  0  0  0  0  0  0  0
    6.2131    0.7274    0.0000 H   0  0  0  0  0  0  0  0  0  0  0  0
    6.6116    1.4177    0.0000 H   0  0  0  0  0  0  0  0  0  0  0  0
    4.9230    1.3926    0.0000 H   0  0  0  0  0  0  0  0  0  0  0  0
    4.5244    0.7023    0.0000 H   0  0  0  0  0  0  0  0  0  0  0  0
    2.8660   -1.8800    0.0000 H   0  0  0  0  0  0  0  0  0  0  0  0
    5.6720   -1.8800    0.0000 H   0  0  0  0  0  0  0  0  0  0  0  0
    5.6720   -3.5000    0.0000 H   0  0  0  0  0  0  0  0  0  0  0  0
    4.2690   -4.3100    0.0000 H   0  0  0  0  0  0  0  0  0  0  0  0
    2.5369   -4.3100    0.0000 H   0  0  0  0  0  0  0  0  0  0  0  0
    2.0000   -3.3800    0.0000 H   0  0  0  0  0  0  0  0  0  0  0  0
  1 10  1  0  0  0  0
  1 12  1  0  0  0  0
  2 12  2  0  0  0  0
  3  6  1  0  0  0  0
  3  9  1  0  0  0  0
  3 21  1  0  0  0  0
  4 15  1  0  0  0  0
  4 36  1  0  0  0  0
  4 37  1  0  0  0  0
  5  6  1  0  0  0  0
  5  7  1  0  0  0  0
  5  8  1  0  0  0  0
  5 18  1  0  0  0  0
  6 19  1  0  0  0  0
  6 20  1  0  0  0  0
  7 22  1  0  0  0  0
  7 23  1  0  0  0  0
  7 24  1  0  0  0  0
  8 25  1  0  0  0  0
  8 26  1  0  0  0  0
  8 27  1  0  0  0  0
  9 10  1  0  0  0  0
  9 28  1  0  0  0  0
  9 29  1  0  0  0  0
 10 30  1  0  0  0  0
 10 31  1  0  0  0  0
 11 12  1  0  0  0  0
 11 13  2  0  0  0  0
 11 14  1  0  0  0  0
 13 15  1  0  0  0  0
 13 32  1  0  0  0  0
 14 16  2  0  0  0  0
 14 33  1  0  0  0  0
 15 17  2  0  0  0  0
 16 17  1  0  0  0  0
 16 34  1  0  0  0  0
 17 35  1  0  0  0  0
M  END
> <PUBCHEM_COMPOUND_CID>
11115

> <PUBCHEM_COMPOUND_CANONICALIZED>
1

> <PUBCHEM_CACTVS_COMPLEXITY>
232

> <PUBCHEM_CACTVS_HBOND_ACCEPTOR>
4

> <PUBCHEM_CACTVS_HBOND_DONOR>
2

> <PUBCHEM_CACTVS_ROTATABLE_BOND>
7

> <PUBCHEM_CACTVS_SUBSKEYS>
AAADceBzMAAAAAAAAAAAAAAAAAAAAAAAAAAwAAAAAAAAAAABAAAAHgAQAAAADQjhmAYyyILABACIAiTSSACCAAAkAgAIiIEIbMgKJjKAtZmHMQBk0AGY6Ye8yCCOAAAAQAAAAAAAAACAAAAAAAAAAAAAAA==

> <PUBCHEM_IUPAC_OPENEYE_NAME>
2-(isobutylamino)ethyl 3-aminobenzoate

> <PUBCHEM_IUPAC_CAS_NAME>
3-aminobenzoic acid 2-(2-methylpropylamino)ethyl ester

> <PUBCHEM_IUPAC_NAME>
2-(2-methylpropylamino)ethyl 3-aminobenzoate

> <PUBCHEM_IUPAC_SYSTEMATIC_NAME>
2-(2-methylpropylamino)ethyl 3-azanylbenzoate

> <PUBCHEM_IUPAC_TRADITIONAL_NAME>
3-aminobenzoic acid 2-(isobutylamino)ethyl ester

> <PUBCHEM_IUPAC_INCHI>
InChI=1S/C13H20N2O2/c1-10(2)9-15-6-7-17-13(16)11-4-3-5-12(14)8-11/h3-5,8,10,15H,6-7,9,14H2,1-2H3

> <PUBCHEM_IUPAC_INCHIKEY>
BXMFKNRZTLNAFY-UHFFFAOYSA-N

> <PUBCHEM_XLOGP3_AA>
2

> <PUBCHEM_EXACT_MASS>
236.152478

> <PUBCHEM_MOLECULAR_FORMULA>
C13H20N2O2

> <PUBCHEM_MOLECULAR_WEIGHT>
236.3101

> <PUBCHEM_OPENEYE_CAN_SMILES>
CC(C)CNCCOC(=O)C1=CC(=CC=C1)N

> <PUBCHEM_OPENEYE_ISO_SMILES>
CC(C)CNCCOC(=O)C1=CC(=CC=C1)N

> <PUBCHEM_CACTVS_TPSA>
64.4

> <PUBCHEM_MONOISOTOPIC_WEIGHT>
236.152478

> <PUBCHEM_TOTAL_CHARGE>
0

> <PUBCHEM_HEAVY_ATOM_COUNT>
17

> <PUBCHEM_ATOM_DEF_STEREO_COUNT>
0

> <PUBCHEM_ATOM_UDEF_STEREO_COUNT>
0

> <PUBCHEM_BOND_DEF_STEREO_COUNT>
0

> <PUBCHEM_BOND_UDEF_STEREO_COUNT>
0

> <PUBCHEM_ISOTOPIC_ATOM_COUNT>
0

> <PUBCHEM_COMPONENT_COUNT>
1

> <PUBCHEM_CACTVS_TAUTO_COUNT>
1

> <PUBCHEM_COORDINATE_TYPE>
1
5
255

> <PUBCHEM_BONDANNOTATIONS>
11  13  8
11  14  8
13  15  8
14  16  8
15  17  8
16  17  8

$$$$

