   Color/Form

     * White crystalline powder
     * Exists in two crystalline forms

   from [1]HSDB

   Odor
        Odorless
   from [2]HSDB

   Melting Point
        127-131 deg C
   from [3]HSDB

   Density/Specific Gravity
        1.166 @ 23 deg C
   from [4]HSDB

   Octanol/Water Partition Coefficient
        log Kow= 3.87
   from [5]HSDB

   Solubilities

     * Sol in alcohol, acetone, dioxane, concn sulfuric acid; sparingly
       sol in vegetable oils.
     * In water, 8.81 mg/l @ 25 deg C

   from [6]HSDB

   Spectral Properties

     * IR: 18029 (Sadtler Research Laboratories IR Grating Collection)
     * MASS: 1929 (Atlas of Mass Spectral Data, John Wiley & Sons, New
       York)
     * Intense mass spectral peaks: 124 m/z, 272 m/z, 314 m/z

   from [7]HSDB

   Other Chemical/Physical Properties

     * /both forms have/ equal physiologic activity and are readily
       interconverted.
     * IR: 5045 (Coblentz Society Spectral Collection)
       /Alpha-progesterone/
     * UV: 4-875 (Organic Electronic Spectral Data, Phillips et al, John
       Wiley & Sons, New York) /Alpha-progesterone/
     * MASS: 1929 (Atlas of Mass Spectral Data, John Wiley & Sons, New
       York) /Alpha-progesterone/
     * Specific optical rotation: +192 /alpha-Progesterone/
     * Specific optical rotation: +172 at 20 deg C/D (dioxane, C= 2%)
       /beta-Progesterone/
     * Sol in alcohol, acetone, dioxane /beta-Progesterone/
     * Orthorhombic (prisms from dil alc) with a:b:c = 0.750:1:0.905;
       crystals show (011), (110), (010); poor (011) cleavage; density:
       1.166 at 23 deg C; mp: 127- 131 deg C /alpha-Progesterone/
     * Orthorhombic (needles) with a:b:c = 0.563:1:0.275; crystals
       acicular with parallel extinction and negative elongation; cleavage
       on (001) and (110); density: 1.171 at 20 deg C; mp: 121 deg C
       /beta-Progesterone/
     * Maximum absorption: 240 nm /beta-progesterone/
     * ...stable in air but sensitive to light.

   from [8]HSDB

   Computed Properties
   Molecular Weight                  314.4617 [g/mol]
   Molecular Formula                 C[21]H[30]O[2]
   XLogP3                            3.9
   H-Bond Donor                      0
   H-Bond Acceptor                   2
   Rotatable Bond Count              1
   Tautomer Count                    15
   Exact Mass                        314.22458
   MonoIsotopic Mass                 314.22458
   Topological Polar Surface Area    34.1
   Heavy Atom Count                  23
   Formal Charge                     0
   Complexity                        589
   Isotope Atom Count                0
   Defined Atom Stereocenter Count   6
   Undefined Atom Stereocenter Count 0
   Defined Bond Stereocenter Count   0
   Undefined Bond Stereocenter Count 0
   Covalently-Bonded Unit Count      1
   Feature 3D Acceptor Count         2
   Feature 3D Ring Count             4
   Effective Rotor Count             2.8
   Conformer Sampling RMSD           0.6
   CID Conformer Count               [9]2

References

   1. http://toxnet.nlm.nih.gov/cgi-bin/sis/search/r?dbs+hsdb:@term+@rn+@rel+57-83-0
   2. http://toxnet.nlm.nih.gov/cgi-bin/sis/search/r?dbs+hsdb:@term+@rn+@rel+57-83-0
   3. http://toxnet.nlm.nih.gov/cgi-bin/sis/search/r?dbs+hsdb:@term+@rn+@rel+57-83-0
   4. http://toxnet.nlm.nih.gov/cgi-bin/sis/search/r?dbs+hsdb:@term+@rn+@rel+57-83-0
   5. http://toxnet.nlm.nih.gov/cgi-bin/sis/search/r?dbs+hsdb:@term+@rn+@rel+57-83-0
   6. http://toxnet.nlm.nih.gov/cgi-bin/sis/search/r?dbs+hsdb:@term+@rn+@rel+57-83-0
   7. http://toxnet.nlm.nih.gov/cgi-bin/sis/search/r?dbs+hsdb:@term+@rn+@rel+57-83-0
   8. http://toxnet.nlm.nih.gov/cgi-bin/sis/search/r?dbs+hsdb:@term+@rn+@rel+57-83-0
   9. http://pubchem.ncbi.nlm.nih.gov/vw3d/vw3d.cgi?cid=5994
