11231
  -OEChem-06261205252D

 29 29  0     0  0  0  0  0  0999 V2000
    3.8100    0.2985    0.0000 O   0  0  0  0  0  0  0  0  0  0  0  0
    5.3100   -0.5675    0.0000 O   0  0  0  0  0  0  0  0  0  0  0  0
    6.8100    0.2985    0.0000 O   0  0  0  0  0  0  0  0  0  0  0  0
    5.3100    1.1645    0.0000 N   0  0  0  0  0  0  0  0  0  0  0  0
    6.8100    2.0306    0.0000 N   0  0  0  0  0  0  0  0  0  0  0  0
    3.3100   -0.5675    0.0000 C   0  0  0  0  0  0  0  0  0  0  0  0
    2.4440   -1.0675    0.0000 C   0  0  0  0  0  0  0  0  0  0  0  0
    4.1760   -1.0675    0.0000 C   0  0  0  0  0  0  0  0  0  0  0  0
    2.4440   -2.0675    0.0000 C   0  0  0  0  0  0  0  0  0  0  0  0
    4.1760   -2.0675    0.0000 C   0  0  0  0  0  0  0  0  0  0  0  0
    3.3100   -2.5675    0.0000 C   0  0  0  0  0  0  0  0  0  0  0  0
    2.8100    0.2985    0.0000 C   0  0  0  0  0  0  0  0  0  0  0  0
    4.8100    0.2985    0.0000 C   0  0  0  0  0  0  0  0  0  0  0  0
    2.3100    1.1645    0.0000 C   0  0  0  0  0  0  0  0  0  0  0  0
    6.3100    1.1645    0.0000 C   0  0  0  0  0  0  0  0  0  0  0  0
    2.2319   -0.4849    0.0000 H   0  0  0  0  0  0  0  0  0  0  0  0
    1.8334   -1.1752    0.0000 H   0  0  0  0  0  0  0  0  0  0  0  0
    4.7866   -1.1752    0.0000 H   0  0  0  0  0  0  0  0  0  0  0  0
    4.3881   -0.4849    0.0000 H   0  0  0  0  0  0  0  0  0  0  0  0
    1.8334   -1.9598    0.0000 H   0  0  0  0  0  0  0  0  0  0  0  0
    2.2319   -2.6501    0.0000 H   0  0  0  0  0  0  0  0  0  0  0  0
    4.3881   -2.6501    0.0000 H   0  0  0  0  0  0  0  0  0  0  0  0
    4.7866   -1.9598    0.0000 H   0  0  0  0  0  0  0  0  0  0  0  0
    2.9115   -3.0424    0.0000 H   0  0  0  0  0  0  0  0  0  0  0  0
    3.7085   -3.0424    0.0000 H   0  0  0  0  0  0  0  0  0  0  0  0
    2.0000    1.7015    0.0000 H   0  0  0  0  0  0  0  0  0  0  0  0
    5.0000    1.7015    0.0000 H   0  0  0  0  0  0  0  0  0  0  0  0
    7.4300    2.0306    0.0000 H   0  0  0  0  0  0  0  0  0  0  0  0
    6.5000    2.5675    0.0000 H   0  0  0  0  0  0  0  0  0  0  0  0
  1  6  1  0  0  0  0
  1 13  1  0  0  0  0
  2 13  2  0  0  0  0
  3 15  2  0  0  0  0
  4 13  1  0  0  0  0
  4 15  1  0  0  0  0
  4 27  1  0  0  0  0
  5 15  1  0  0  0  0
  5 28  1  0  0  0  0
  5 29  1  0  0  0  0
  6  7  1  0  0  0  0
  6  8  1  0  0  0  0
  6 12  1  0  0  0  0
  7  9  1  0  0  0  0
  7 16  1  0  0  0  0
  7 17  1  0  0  0  0
  8 10  1  0  0  0  0
  8 18  1  0  0  0  0
  8 19  1  0  0  0  0
  9 11  1  0  0  0  0
  9 20  1  0  0  0  0
  9 21  1  0  0  0  0
 10 11  1  0  0  0  0
 10 22  1  0  0  0  0
 10 23  1  0  0  0  0
 11 24  1  0  0  0  0
 11 25  1  0  0  0  0
 12 14  3  0  0  0  0
 14 26  1  0  0  0  0
M  END
> <PUBCHEM_COMPOUND_CID>
11231

> <PUBCHEM_COMPOUND_CANONICALIZED>
1

> <PUBCHEM_CACTVS_COMPLEXITY>
310

> <PUBCHEM_CACTVS_HBOND_ACCEPTOR>
3

> <PUBCHEM_CACTVS_HBOND_DONOR>
2

> <PUBCHEM_CACTVS_ROTATABLE_BOND>
3

> <PUBCHEM_CACTVS_SUBSKEYS>
AAADccBzMAAAAAAAAAAAAAAAAAAAAAAAAAAwAAAAAAAAAAAAAAAAHgAQAAAADESAgAABCALABABIGAAAGAgAAAAAAAAAAAAAAAGAAAIAAAAIAAAEASAAAAGAwAAOAAAAAAAAAAAAAAAAAAAAAAAAAAAAAA==

> <PUBCHEM_IUPAC_OPENEYE_NAME>
(1-ethynylcyclohexyl) N-carbamoylcarbamate

> <PUBCHEM_IUPAC_CAS_NAME>
N-carbamoylcarbamic acid (1-ethynylcyclohexyl) ester

> <PUBCHEM_IUPAC_NAME>
(1-ethynylcyclohexyl) N-carbamoylcarbamate

> <PUBCHEM_IUPAC_SYSTEMATIC_NAME>
(1-ethynylcyclohexyl) N-aminocarbonylcarbamate

> <PUBCHEM_IUPAC_TRADITIONAL_NAME>
N-carbamoylcarbamic acid (1-ethynylcyclohexyl) ester

> <PUBCHEM_IUPAC_INCHI>
InChI=1S/C10H14N2O3/c1-2-10(6-4-3-5-7-10)15-9(14)12-8(11)13/h1H,3-7H2,(H3,11,12,13,14)

> <PUBCHEM_IUPAC_INCHIKEY>
CQVLNDZXTPGTFD-UHFFFAOYSA-N

> <PUBCHEM_XLOGP3_AA>
1.4

> <PUBCHEM_EXACT_MASS>
210.100442

> <PUBCHEM_MOLECULAR_FORMULA>
C10H14N2O3

> <PUBCHEM_MOLECULAR_WEIGHT>
210.22976

> <PUBCHEM_OPENEYE_CAN_SMILES>
C#CC1(CCCCC1)OC(=O)NC(=O)N

> <PUBCHEM_OPENEYE_ISO_SMILES>
C#CC1(CCCCC1)OC(=O)NC(=O)N

> <PUBCHEM_CACTVS_TPSA>
81.4

> <PUBCHEM_MONOISOTOPIC_WEIGHT>
210.100442

> <PUBCHEM_TOTAL_CHARGE>
0

> <PUBCHEM_HEAVY_ATOM_COUNT>
15

> <PUBCHEM_ATOM_DEF_STEREO_COUNT>
0

> <PUBCHEM_ATOM_UDEF_STEREO_COUNT>
0

> <PUBCHEM_BOND_DEF_STEREO_COUNT>
0

> <PUBCHEM_BOND_UDEF_STEREO_COUNT>
0

> <PUBCHEM_ISOTOPIC_ATOM_COUNT>
0

> <PUBCHEM_COMPONENT_COUNT>
1

> <PUBCHEM_CACTVS_TAUTO_COUNT>
5

> <PUBCHEM_COORDINATE_TYPE>
1
5
255

$$$$

