17395532
  -OEChem-06241222502D

 32 34  0     0  0  0  0  0  0999 V2000
    4.7690    1.1496    0.0000 S   0  0  0  0  0  0  0  0  0  0  0  0
    2.5369   -1.3893    0.0000 O   0  0  0  0  0  0  0  0  0  0  0  0
    4.2690   -4.3892    0.0000 O   0  0  0  0  0  0  0  0  0  0  0  0
    3.1812    1.9586    0.0000 N   0  0  0  0  0  0  0  0  0  0  0  0
    3.4600    0.1985    0.0000 N   0  0  0  0  0  0  0  0  0  0  0  0
    4.2690   -1.3893    0.0000 C   0  0  0  0  0  0  0  0  0  0  0  0
    4.2690   -0.3892    0.0000 C   0  0  0  0  0  0  0  0  0  0  0  0
    3.4030   -1.8892    0.0000 C   0  0  0  0  0  0  0  0  0  0  0  0
    3.7690    1.1496    0.0000 C   0  0  0  0  0  0  0  0  0  0  0  0
    5.1350   -1.8892    0.0000 C   0  0  0  0  0  0  0  0  0  0  0  0
    3.5879    2.8722    0.0000 C   0  0  0  0  0  0  0  0  0  0  0  0
    5.0780    0.1985    0.0000 C   0  0  0  0  0  0  0  0  0  0  0  0
    3.4030   -2.8892    0.0000 C   0  0  0  0  0  0  0  0  0  0  0  0
    5.1350   -2.8892    0.0000 C   0  0  0  0  0  0  0  0  0  0  0  0
    4.2690   -3.3892    0.0000 C   0  0  0  0  0  0  0  0  0  0  0  0
    4.5825    2.9767    0.0000 C   0  0  0  0  0  0  0  0  0  0  0  0
    3.0002    3.6812    0.0000 C   0  0  0  0  0  0  0  0  0  0  0  0
    4.9892    3.8902    0.0000 C   0  0  0  0  0  0  0  0  0  0  0  0
    3.4069    4.5947    0.0000 C   0  0  0  0  0  0  0  0  0  0  0  0
    4.4014    4.6992    0.0000 C   0  0  0  0  0  0  0  0  0  0  0  0
    5.6720   -1.5792    0.0000 H   0  0  0  0  0  0  0  0  0  0  0  0
    5.6677    0.0069    0.0000 H   0  0  0  0  0  0  0  0  0  0  0  0
    2.5646    1.8938    0.0000 H   0  0  0  0  0  0  0  0  0  0  0  0
    2.8660   -3.1992    0.0000 H   0  0  0  0  0  0  0  0  0  0  0  0
    5.6720   -3.1992    0.0000 H   0  0  0  0  0  0  0  0  0  0  0  0
    4.9469    2.4751    0.0000 H   0  0  0  0  0  0  0  0  0  0  0  0
    2.3836    3.6164    0.0000 H   0  0  0  0  0  0  0  0  0  0  0  0
    5.6058    3.9550    0.0000 H   0  0  0  0  0  0  0  0  0  0  0  0
    3.0425    5.0963    0.0000 H   0  0  0  0  0  0  0  0  0  0  0  0
    4.6536    5.2656    0.0000 H   0  0  0  0  0  0  0  0  0  0  0  0
    2.0000   -1.6992    0.0000 H   0  0  0  0  0  0  0  0  0  0  0  0
    4.8059   -4.6992    0.0000 H   0  0  0  0  0  0  0  0  0  0  0  0
  1  9  1  0  0  0  0
  1 12  1  0  0  0  0
  2  8  1  0  0  0  0
  2 31  1  0  0  0  0
  3 15  1  0  0  0  0
  3 32  1  0  0  0  0
  4  9  1  0  0  0  0
  4 11  1  0  0  0  0
  4 23  1  0  0  0  0
  5  7  1  0  0  0  0
  5  9  2  0  0  0  0
  6  7  1  0  0  0  0
  6  8  2  0  0  0  0
  6 10  1  0  0  0  0
  7 12  2  0  0  0  0
  8 13  1  0  0  0  0
 10 14  2  0  0  0  0
 10 21  1  0  0  0  0
 11 16  2  0  0  0  0
 11 17  1  0  0  0  0
 12 22  1  0  0  0  0
 13 15  2  0  0  0  0
 13 24  1  0  0  0  0
 14 15  1  0  0  0  0
 14 25  1  0  0  0  0
 16 18  1  0  0  0  0
 16 26  1  0  0  0  0
 17 19  2  0  0  0  0
 17 27  1  0  0  0  0
 18 20  2  0  0  0  0
 18 28  1  0  0  0  0
 19 20  1  0  0  0  0
 19 29  1  0  0  0  0
 20 30  1  0  0  0  0
M  END
> <PUBCHEM_COMPOUND_CID>
17395532

> <PUBCHEM_COMPOUND_CANONICALIZED>
1

> <PUBCHEM_CACTVS_COMPLEXITY>
312

> <PUBCHEM_CACTVS_HBOND_ACCEPTOR>
5

> <PUBCHEM_CACTVS_HBOND_DONOR>
3

> <PUBCHEM_CACTVS_ROTATABLE_BOND>
3

> <PUBCHEM_CACTVS_SUBSKEYS>
AAADccBzMABAAAAAAAAAAAAAAAAAAWAAAAAwYAAAAAAAAAAB0AAAHgQQCAAADAyF3gCx15LIEgikAyRiZACC8KlhKjkJiDQ2bJiIJ6LimZOEcAhv0BdI2CeQ8KcOIAAACAAIAABAAAAQABAAAAAAAAAAAA==

> <PUBCHEM_IUPAC_OPENEYE_NAME>
4-(2-anilinothiazol-4-yl)benzene-1,3-diol

> <PUBCHEM_IUPAC_CAS_NAME>
4-(2-anilino-4-thiazolyl)benzene-1,3-diol

> <PUBCHEM_IUPAC_NAME>
4-(2-anilino-1,3-thiazol-4-yl)benzene-1,3-diol

> <PUBCHEM_IUPAC_SYSTEMATIC_NAME>
4-(2-phenylazanyl-1,3-thiazol-4-yl)benzene-1,3-diol

> <PUBCHEM_IUPAC_TRADITIONAL_NAME>
4-(2-anilinothiazol-4-yl)resorcinol

> <PUBCHEM_IUPAC_INCHI>
InChI=1S/C15H12N2O2S/c18-11-6-7-12(14(19)8-11)13-9-20-15(17-13)16-10-4-2-1-3-5-10/h1-9,18-19H,(H,16,17)

> <PUBCHEM_IUPAC_INCHIKEY>
FXVHSVUUZUOZDG-UHFFFAOYSA-N

> <PUBCHEM_XLOGP3_AA>
3.8

> <PUBCHEM_EXACT_MASS>
284.061949

> <PUBCHEM_MOLECULAR_FORMULA>
C15H12N2O2S

> <PUBCHEM_MOLECULAR_WEIGHT>
284.33298

> <PUBCHEM_OPENEYE_CAN_SMILES>
C1=CC=C(C=C1)NC2=NC(=CS2)C3=C(C=C(C=C3)O)O

> <PUBCHEM_OPENEYE_ISO_SMILES>
C1=CC=C(C=C1)NC2=NC(=CS2)C3=C(C=C(C=C3)O)O

> <PUBCHEM_CACTVS_TPSA>
93.6

> <PUBCHEM_MONOISOTOPIC_WEIGHT>
284.061949

> <PUBCHEM_TOTAL_CHARGE>
0

> <PUBCHEM_HEAVY_ATOM_COUNT>
20

> <PUBCHEM_ATOM_DEF_STEREO_COUNT>
0

> <PUBCHEM_ATOM_UDEF_STEREO_COUNT>
0

> <PUBCHEM_BOND_DEF_STEREO_COUNT>
0

> <PUBCHEM_BOND_UDEF_STEREO_COUNT>
0

> <PUBCHEM_ISOTOPIC_ATOM_COUNT>
0

> <PUBCHEM_COMPONENT_COUNT>
1

> <PUBCHEM_CACTVS_TAUTO_COUNT>
18

> <PUBCHEM_COORDINATE_TYPE>
1
3

> <PUBCHEM_BONDANNOTATIONS>
1  12  8
1  9  8
10  14  8
11  16  8
11  17  8
13  15  8
14  15  8
16  18  8
17  19  8
18  20  8
19  20  8
5  7  8
5  9  8
6  10  8
6  8  8
7  12  8
8  13  8

$$$$

