656755
  -OEChem-07051213042D

 50 54  0     1  0  0  0  0  0999 V2000
    9.7097    0.7381    0.0000 F   0  0  0  0  0  0  0  0  0  0  0  0
    6.2002   -2.6577    0.0000 O   0  0  0  0  0  0  0  0  0  0  0  0
    7.7986   -2.0984    0.0000 N   0  0  0  0  0  0  0  0  0  0  0  0
    6.8236   -0.0740    0.0000 N   0  0  0  0  0  0  0  0  0  0  0  0
    4.5579    1.4660    0.0000 N   0  0  0  0  0  0  0  0  0  0  0  0
    6.3898   -0.9749    0.0000 C   0  0  2  0  0  0  0  0  0  0  0  0
    5.3898   -0.9749    0.0000 C   0  0  0  0  0  0  0  0  0  0  0  0
    4.8898   -0.1089    0.0000 C   0  0  0  0  0  0  0  0  0  0  0  0
    6.8236   -1.8759    0.0000 C   0  0  0  0  0  0  0  0  0  0  0  0
    3.9010   -0.0058    0.0000 C   0  0  0  0  0  0  0  0  0  0  0  0
    8.5804   -1.4749    0.0000 C   0  0  0  0  0  0  0  0  0  0  0  0
    8.5804   -0.4749    0.0000 C   0  0  0  0  0  0  0  0  0  0  0  0
    7.7986    0.1486    0.0000 C   0  0  0  0  0  0  0  0  0  0  0  0
    3.6948    0.9727    0.0000 C   0  0  0  0  0  0  0  0  0  0  0  0
    5.2949    0.7989    0.0000 C   0  0  0  0  0  0  0  0  0  0  0  0
    8.0211    1.1235    0.0000 C   0  0  0  0  0  0  0  0  0  0  0  0
    3.1567   -0.6737    0.0000 C   0  0  0  0  0  0  0  0  0  0  0  0
    8.0211   -3.0734    0.0000 C   0  0  0  0  0  0  0  0  0  0  0  0
    9.4744   -2.0096    0.0000 C   0  0  0  0  0  0  0  0  0  0  0  0
    9.4744    0.0597    0.0000 C   0  0  0  0  0  0  0  0  0  0  0  0
    2.7443    1.2833    0.0000 C   0  0  0  0  0  0  0  0  0  0  0  0
    2.2062   -0.3630    0.0000 C   0  0  0  0  0  0  0  0  0  0  0  0
   10.3804   -1.4957    0.0000 C   0  0  0  0  0  0  0  0  0  0  0  0
   10.3804   -0.4541    0.0000 C   0  0  0  0  0  0  0  0  0  0  0  0
    2.0000    0.6155    0.0000 C   0  0  0  0  0  0  0  0  0  0  0  0
    8.9767    1.4182    0.0000 C   0  0  0  0  0  0  0  0  0  0  0  0
    7.2880    1.8037    0.0000 C   0  0  0  0  0  0  0  0  0  0  0  0
    9.1992    2.3932    0.0000 C   0  0  0  0  0  0  0  0  0  0  0  0
    7.5106    2.7786    0.0000 C   0  0  0  0  0  0  0  0  0  0  0  0
    8.4661    3.0734    0.0000 C   0  0  0  0  0  0  0  0  0  0  0  0
    6.0599   -0.4500    0.0000 H   0  0  0  0  0  0  0  0  0  0  0  0
    4.8072   -1.1870    0.0000 H   0  0  0  0  0  0  0  0  0  0  0  0
    5.4974   -1.5855    0.0000 H   0  0  0  0  0  0  0  0  0  0  0  0
    5.9016    0.9267    0.0000 H   0  0  0  0  0  0  0  0  0  0  0  0
    4.6248    2.0823    0.0000 H   0  0  0  0  0  0  0  0  0  0  0  0
    3.2846   -1.2804    0.0000 H   0  0  0  0  0  0  0  0  0  0  0  0
    7.4166   -3.2113    0.0000 H   0  0  0  0  0  0  0  0  0  0  0  0
    8.1591   -3.6778    0.0000 H   0  0  0  0  0  0  0  0  0  0  0  0
    8.6256   -2.9354    0.0000 H   0  0  0  0  0  0  0  0  0  0  0  0
    9.4672   -2.6296    0.0000 H   0  0  0  0  0  0  0  0  0  0  0  0
    9.4672    0.6797    0.0000 H   0  0  0  0  0  0  0  0  0  0  0  0
    2.6164    1.8900    0.0000 H   0  0  0  0  0  0  0  0  0  0  0  0
    1.7448   -0.7771    0.0000 H   0  0  0  0  0  0  0  0  0  0  0  0
   10.9162   -1.8078    0.0000 H   0  0  0  0  0  0  0  0  0  0  0  0
   10.9162   -0.1420    0.0000 H   0  0  0  0  0  0  0  0  0  0  0  0
    1.4107    0.8081    0.0000 H   0  0  0  0  0  0  0  0  0  0  0  0
    6.6956    1.6209    0.0000 H   0  0  0  0  0  0  0  0  0  0  0  0
    9.7916    2.5759    0.0000 H   0  0  0  0  0  0  0  0  0  0  0  0
    7.0561    3.2003    0.0000 H   0  0  0  0  0  0  0  0  0  0  0  0
    8.6041    3.6778    0.0000 H   0  0  0  0  0  0  0  0  0  0  0  0
  1 26  1  0  0  0  0
  2  9  2  0  0  0  0
  3  9  1  0  0  0  0
  3 11  1  0  0  0  0
  3 18  1  0  0  0  0
  4  6  1  0  0  0  0
  4 13  2  0  0  0  0
  5 14  1  0  0  0  0
  5 15  1  0  0  0  0
  5 35  1  0  0  0  0
  6  7  1  1  0  0  0
  6  9  1  0  0  0  0
  6 31  1  0  0  0  0
  7  8  1  0  0  0  0
  7 32  1  0  0  0  0
  7 33  1  0  0  0  0
  8 10  1  0  0  0  0
  8 15  2  0  0  0  0
 10 14  1  0  0  0  0
 10 17  2  0  0  0  0
 11 12  1  0  0  0  0
 11 19  2  0  0  0  0
 12 13  1  0  0  0  0
 12 20  2  0  0  0  0
 13 16  1  0  0  0  0
 14 21  2  0  0  0  0
 15 34  1  0  0  0  0
 16 26  1  0  0  0  0
 16 27  2  0  0  0  0
 17 22  1  0  0  0  0
 17 36  1  0  0  0  0
 18 37  1  0  0  0  0
 18 38  1  0  0  0  0
 18 39  1  0  0  0  0
 19 23  1  0  0  0  0
 19 40  1  0  0  0  0
 20 24  1  0  0  0  0
 20 41  1  0  0  0  0
 21 25  1  0  0  0  0
 21 42  1  0  0  0  0
 22 25  2  0  0  0  0
 22 43  1  0  0  0  0
 23 24  2  0  0  0  0
 23 44  1  0  0  0  0
 24 45  1  0  0  0  0
 25 46  1  0  0  0  0
 26 28  2  0  0  0  0
 27 29  1  0  0  0  0
 27 47  1  0  0  0  0
 28 30  1  0  0  0  0
 28 48  1  0  0  0  0
 29 30  2  0  0  0  0
 29 49  1  0  0  0  0
 30 50  1  0  0  0  0
M  END
> <PUBCHEM_COMPOUND_CID>
656755

> <PUBCHEM_COMPOUND_CANONICALIZED>
1

> <PUBCHEM_CACTVS_COMPLEXITY>
667

> <PUBCHEM_CACTVS_HBOND_ACCEPTOR>
3

> <PUBCHEM_CACTVS_HBOND_DONOR>
1

> <PUBCHEM_CACTVS_ROTATABLE_BOND>
3

> <PUBCHEM_CACTVS_SUBSKEYS>
AAADceB7IQAAAAAAAAAAAAAAAAAAAWAAAAAwYMAABAAAAFgB9AAAHwAQAAAADCjBngw+wPPJkACoAzV3VACCgCAxAiAI2aG4ZJgIYPLAkZGUIAhglgDIyAcYicCOgAAAAAACAAAAAAAAAAQAAAAAAAAAAA==

> <PUBCHEM_IUPAC_OPENEYE_NAME>
(3R)-5-(2-fluorophenyl)-3-(1H-indol-3-ylmethyl)-1-methyl-3H-1,4-benzodiazepin-2-one

> <PUBCHEM_IUPAC_CAS_NAME>
(3R)-5-(2-fluorophenyl)-3-(1H-indol-3-ylmethyl)-1-methyl-3H-1,4-benzodiazepin-2-one

> <PUBCHEM_IUPAC_NAME>
(3R)-5-(2-fluorophenyl)-3-(1H-indol-3-ylmethyl)-1-methyl-3H-1,4-benzodiazepin-2-one

> <PUBCHEM_IUPAC_SYSTEMATIC_NAME>
(3R)-5-(2-fluorophenyl)-3-(1H-indol-3-ylmethyl)-1-methyl-3H-1,4-benzodiazepin-2-one

> <PUBCHEM_IUPAC_TRADITIONAL_NAME>
(3R)-5-(2-fluorophenyl)-3-(1H-indol-3-ylmethyl)-1-methyl-3H-1,4-benzodiazepin-2-one

> <PUBCHEM_IUPAC_INCHI>
InChI=1S/C25H20FN3O/c1-29-23-13-7-4-10-19(23)24(18-9-2-5-11-20(18)26)28-22(25(29)30)14-16-15-27-21-12-6-3-8-17(16)21/h2-13,15,22,27H,14H2,1H3/t22-/m1/s1

> <PUBCHEM_IUPAC_INCHIKEY>
CGBANSGENFERAT-JOCHJYFZSA-N

> <PUBCHEM_XLOGP3_AA>
4.8

> <PUBCHEM_EXACT_MASS>
397.15904

> <PUBCHEM_MOLECULAR_FORMULA>
C25H20FN3O

> <PUBCHEM_MOLECULAR_WEIGHT>
397.444203

> <PUBCHEM_OPENEYE_CAN_SMILES>
CN1C2=CC=CC=C2C(=NC(C1=O)CC3=CNC4=CC=CC=C43)C5=CC=CC=C5F

> <PUBCHEM_OPENEYE_ISO_SMILES>
CN1C2=CC=CC=C2C(=N[C@@H](C1=O)CC3=CNC4=CC=CC=C43)C5=CC=CC=C5F

> <PUBCHEM_CACTVS_TPSA>
48.5

> <PUBCHEM_MONOISOTOPIC_WEIGHT>
397.15904

> <PUBCHEM_TOTAL_CHARGE>
0

> <PUBCHEM_HEAVY_ATOM_COUNT>
30

> <PUBCHEM_ATOM_DEF_STEREO_COUNT>
1

> <PUBCHEM_ATOM_UDEF_STEREO_COUNT>
0

> <PUBCHEM_BOND_DEF_STEREO_COUNT>
0

> <PUBCHEM_BOND_UDEF_STEREO_COUNT>
0

> <PUBCHEM_ISOTOPIC_ATOM_COUNT>
0

> <PUBCHEM_COMPONENT_COUNT>
1

> <PUBCHEM_CACTVS_TAUTO_COUNT>
2

> <PUBCHEM_COORDINATE_TYPE>
1
5
255

> <PUBCHEM_BONDANNOTATIONS>
10  14  8
10  17  8
11  12  8
11  19  8
12  20  8
14  21  8
16  26  8
16  27  8
17  22  8
19  23  8
20  24  8
21  25  8
22  25  8
23  24  8
26  28  8
27  29  8
28  30  8
29  30  8
5  14  8
5  15  8
6  7  5
8  10  8
8  15  8

$$$$

