   Color/Form
        COLORLESS, VOLATILE LIQUID
   from [1]HSDB

   Odor

     * FRUITY ODOR
     * Fragrant, fruity odor.

   from [2]HSDB

   Taste
        FLEETING, FRUITY TASTE
   from [3]HSDB

   Boiling Point
        56.8 DEG C
   from [4]HSDB

   Melting Point
        -98 DEG C
   from [5]HSDB

   Critical Temperature and Pressure
        CRITICAL TEMPERATURE: 233.7 DEG C; CRITICAL PRESSURE: 45.3 ATM
   from [6]HSDB

   Density/Specific Gravity
        0.9342 at 20 deg C/4 deg C
   from [7]HSDB

   Heat of Combustion
        5,150 cal/g= 9,260 BTU/lb= 215X10+5 J/kg
   from [8]HSDB

   Heat of Vaporization
        97 cal/g= 174 BTU/lb= 4.1X10+5 J/kg
   from [9]HSDB

   Octanol/Water Partition Coefficient
        log Kow= 0.18
   from [10]HSDB

   Solubilities

     * MISCIBLE WITH ALCOHOL, ETHER
     * SOL IN BENZENE, ACETONE, CHLOROFORM
     * Water solubility= 2.435X10+5 mg/l at 20 deg C

   from [11]HSDB

   Spectral Properties

     * INDEX OF REFRACTION: 1.3614 AT 20 DEG C/D
     * IR: 2228 (Sadtler Research Laboratories Prism Collection)
     * UV: 7-11 (Organic Electronic Spectral Data, Phillips et al, John
       Wiley & Sons, New York)
     * NMR: 10261 (Sadtler Research Laboratories Spectral Collection)
     * MASS: 81 (Atlas of Mass Spectral Data, John Wiley & Sons, New York)

   from [12]HSDB

   Surface Tension
        24 dynes/cm= 0.024 N/m at 20 deg C
   from [13]HSDB

   Vapor Density
        2.8 (AIR= 1)
   from [14]HSDB

   Vapor Pressure
        Vapor pressure: 216.2 mm Hg at 25 deg C
   from [15]HSDB

   Viscosity
        0.484, 0.381 & 0.320 cp at 0, 20 & 40 deg C, respectively
   from [16]HSDB

   Other Chemical/Physical Properties

     * CONVERSION FACTORS: 3.02 MG/CU M IS EQUIVALENT TO 1 PPM
     * Liquid molar volume= 0.079823 cu m/kmol; IG Heat of Formation=
       -4.1190E+8 J/kmol

   from [17]HSDB

   Computed Properties
   Molecular Weight                  74.07854 [g/mol]
   Molecular Formula                 C[3]H[6]O[2]
   XLogP3                            0.2
   H-Bond Donor                      0
   H-Bond Acceptor                   2
   Rotatable Bond Count              1
   Exact Mass                        74.036779
   MonoIsotopic Mass                 74.036779
   Topological Polar Surface Area    26.3
   Heavy Atom Count                  5
   Formal Charge                     0
   Complexity                        40.2
   Isotope Atom Count                0
   Defined Atom Stereocenter Count   0
   Undefined Atom Stereocenter Count 0
   Defined Bond Stereocenter Count   0
   Undefined Bond Stereocenter Count 0
   Covalently-Bonded Unit Count      1
   Feature 3D Acceptor Count         1
   Effective Rotor Count             1
   Conformer Sampling RMSD           0.4
   CID Conformer Count               [18]1

References

   1. http://toxnet.nlm.nih.gov/cgi-bin/sis/search/r?dbs+hsdb:@term+@rn+@rel+79-20-9
   2. http://toxnet.nlm.nih.gov/cgi-bin/sis/search/r?dbs+hsdb:@term+@rn+@rel+79-20-9
   3. http://toxnet.nlm.nih.gov/cgi-bin/sis/search/r?dbs+hsdb:@term+@rn+@rel+79-20-9
   4. http://toxnet.nlm.nih.gov/cgi-bin/sis/search/r?dbs+hsdb:@term+@rn+@rel+79-20-9
   5. http://toxnet.nlm.nih.gov/cgi-bin/sis/search/r?dbs+hsdb:@term+@rn+@rel+79-20-9
   6. http://toxnet.nlm.nih.gov/cgi-bin/sis/search/r?dbs+hsdb:@term+@rn+@rel+79-20-9
   7. http://toxnet.nlm.nih.gov/cgi-bin/sis/search/r?dbs+hsdb:@term+@rn+@rel+79-20-9
   8. http://toxnet.nlm.nih.gov/cgi-bin/sis/search/r?dbs+hsdb:@term+@rn+@rel+79-20-9
   9. http://toxnet.nlm.nih.gov/cgi-bin/sis/search/r?dbs+hsdb:@term+@rn+@rel+79-20-9
  10. http://toxnet.nlm.nih.gov/cgi-bin/sis/search/r?dbs+hsdb:@term+@rn+@rel+79-20-9
  11. http://toxnet.nlm.nih.gov/cgi-bin/sis/search/r?dbs+hsdb:@term+@rn+@rel+79-20-9
  12. http://toxnet.nlm.nih.gov/cgi-bin/sis/search/r?dbs+hsdb:@term+@rn+@rel+79-20-9
  13. http://toxnet.nlm.nih.gov/cgi-bin/sis/search/r?dbs+hsdb:@term+@rn+@rel+79-20-9
  14. http://toxnet.nlm.nih.gov/cgi-bin/sis/search/r?dbs+hsdb:@term+@rn+@rel+79-20-9
  15. http://toxnet.nlm.nih.gov/cgi-bin/sis/search/r?dbs+hsdb:@term+@rn+@rel+79-20-9
  16. http://toxnet.nlm.nih.gov/cgi-bin/sis/search/r?dbs+hsdb:@term+@rn+@rel+79-20-9
  17. http://toxnet.nlm.nih.gov/cgi-bin/sis/search/r?dbs+hsdb:@term+@rn+@rel+79-20-9
  18. http://pubchem.ncbi.nlm.nih.gov/vw3d/vw3d.cgi?cid=6584
