   Color/Form

     * Prismatic needles from acetone, ethanol+ether or methanol+ethyl
       acetate
     * Crystals
     * Prisms, needles from acetone

   from [1]HSDB

   Melting Point
        153.5 deg C
   from [2]HSDB

   Dissociation Constants
        pKa = 7.66 (approx., at 25 deg C)
   from [3]HSDB

   Octanol/Water Partition Coefficient
        log Kow = -0.64
   from [4]HSDB

   Solubilities

     * Soluble in ethanol, ethyl ether, acetone, DMSO; slightly soluble in
       benzene
     * Soluble in water, acetone; slightly solluble in ether; insoluble in
       benzene
     * Sparingly soluble in pyridine
     * In water, 9.35X10+5 mg/L at 25 deg C (est)

   from [5]HSDB

   Spectral Properties

     * MASS: 3946 (NIST/EPA/MSDC Mass Spectral database, 1990 version);
       534 (National Bureau of Standards)
     * IR: 5765 (Coblentz Society spectral collection)
     * UV: 17671 (Sadtler Research Laboratories spectral collection)
     * 1H NMR: 445 (Varian Associates NMR spectra collection)

   from [6]HSDB

   Vapor Pressure
        3.21X10-6 mm Hg at 25 deg C (est)
   from [7]HSDB

   Other Chemical/Physical Properties

     * Henry's Law constant = 2.39X10-7 atm-cu m/mol at 25 deg C (est)
     * Hydroxyl radical reaction rate constant = 6.44X10-11 cu
       cm/molec-sec at 25 deg C (est)

   from [8]HSDB

   Computed Properties
   Molecular Weight                  142.10944 [g/mol]
   Molecular Formula                 C[6]H[6]O[4]
   XLogP3-AA                         -0.9
   H-Bond Donor                      2
   H-Bond Acceptor                   4
   Rotatable Bond Count              1
   Tautomer Count                    2
   Exact Mass                        142.026609
   MonoIsotopic Mass                 142.026609
   Topological Polar Surface Area    66.8
   Heavy Atom Count                  10
   Formal Charge                     0
   Complexity                        214
   Isotope Atom Count                0
   Defined Atom Stereocenter Count   0
   Undefined Atom Stereocenter Count 0
   Defined Bond Stereocenter Count   0
   Undefined Bond Stereocenter Count 0
   Covalently-Bonded Unit Count      1
   Feature 3D Acceptor Count         3
   Feature 3D Donor Count            2
   Feature 3D Ring Count             1
   Effective Rotor Count             1
   Conformer Sampling RMSD           0.4
   CID Conformer Count               [9]4

References

   1. http://toxnet.nlm.nih.gov/cgi-bin/sis/search/r?dbs+hsdb:@term+@rn+@rel+501-30-4
   2. http://toxnet.nlm.nih.gov/cgi-bin/sis/search/r?dbs+hsdb:@term+@rn+@rel+501-30-4
   3. http://toxnet.nlm.nih.gov/cgi-bin/sis/search/r?dbs+hsdb:@term+@rn+@rel+501-30-4
   4. http://toxnet.nlm.nih.gov/cgi-bin/sis/search/r?dbs+hsdb:@term+@rn+@rel+501-30-4
   5. http://toxnet.nlm.nih.gov/cgi-bin/sis/search/r?dbs+hsdb:@term+@rn+@rel+501-30-4
   6. http://toxnet.nlm.nih.gov/cgi-bin/sis/search/r?dbs+hsdb:@term+@rn+@rel+501-30-4
   7. http://toxnet.nlm.nih.gov/cgi-bin/sis/search/r?dbs+hsdb:@term+@rn+@rel+501-30-4
   8. http://toxnet.nlm.nih.gov/cgi-bin/sis/search/r?dbs+hsdb:@term+@rn+@rel+501-30-4
   9. http://pubchem.ncbi.nlm.nih.gov/vw3d/vw3d.cgi?cid=3840
