24180706
  -OEChem-07051213052D

 43 43  0     1  0  0  0  0  0999 V2000
    8.2700    3.6200    0.0000 Cl  0  0  0  0  0  0  0  0  0  0  0  0
    4.0010    3.6200    0.0000 N   0  0  3  0  0  0  0  0  0  0  0  0
    1.4030    4.1200    0.0000 N   0  0  0  0  0  0  0  0  0  0  0  0
    3.1350    4.1200    0.0000 C   0  0  0  0  0  0  0  0  0  0  0  0
    2.2690    3.6200    0.0000 C   0  0  0  0  0  0  0  0  0  0  0  0
    4.8671    4.1200    0.0000 C   0  0  0  0  0  0  0  0  0  0  0  0
    4.0010    2.6200    0.0000 C   0  0  0  0  0  0  0  0  0  0  0  0
    4.8671    5.1200    0.0000 C   0  0  0  0  0  0  0  0  0  0  0  0
    3.1350    2.1200    0.0000 C   0  0  0  0  0  0  0  0  0  0  0  0
    4.8671    2.1200    0.0000 C   0  0  0  0  0  0  0  0  0  0  0  0
    0.5369    3.6200    0.0000 C   0  0  0  0  0  0  0  0  0  0  0  0
    1.4030    5.1200    0.0000 C   0  0  0  0  0  0  0  0  0  0  0  0
    4.0010    5.6200    0.0000 C   0  0  0  0  0  0  0  0  0  0  0  0
    5.7331    5.6200    0.0000 C   0  0  0  0  0  0  0  0  0  0  0  0
    3.1350    1.1200    0.0000 C   0  0  0  0  0  0  0  0  0  0  0  0
    4.8671    1.1200    0.0000 C   0  0  0  0  0  0  0  0  0  0  0  0
    4.0010    6.6200    0.0000 C   0  0  0  0  0  0  0  0  0  0  0  0
    5.7331    6.6200    0.0000 C   0  0  0  0  0  0  0  0  0  0  0  0
    4.0010    0.6200    0.0000 C   0  0  0  0  0  0  0  0  0  0  0  0
    4.8671    7.1200    0.0000 C   0  0  0  0  0  0  0  0  0  0  0  0
    3.5335    4.5950    0.0000 H   0  0  0  0  0  0  0  0  0  0  0  0
    2.7365    4.5950    0.0000 H   0  0  0  0  0  0  0  0  0  0  0  0
    1.8705    3.1450    0.0000 H   0  0  0  0  0  0  0  0  0  0  0  0
    2.6675    3.1450    0.0000 H   0  0  0  0  0  0  0  0  0  0  0  0
    5.0791    3.5374    0.0000 H   0  0  0  0  0  0  0  0  0  0  0  0
    5.4776    4.2277    0.0000 H   0  0  0  0  0  0  0  0  0  0  0  0
    2.5981    2.4300    0.0000 H   0  0  0  0  0  0  0  0  0  0  0  0
    5.4040    2.4300    0.0000 H   0  0  0  0  0  0  0  0  0  0  0  0
    0.2269    4.1569    0.0000 H   0  0  0  0  0  0  0  0  0  0  0  0
    2.0230    5.1200    0.0000 H   0  0  0  0  0  0  0  0  0  0  0  0
    1.4030    5.7400    0.0000 H   0  0  0  0  0  0  0  0  0  0  0  0
    0.7830    5.1200    0.0000 H   0  0  0  0  0  0  0  0  0  0  0  0
    0.0000    3.3100    0.0000 H   0  0  0  0  0  0  0  0  0  0  0  0
    0.8469    3.0831    0.0000 H   0  0  0  0  0  0  0  0  0  0  0  0
    3.4641    5.3100    0.0000 H   0  0  0  0  0  0  0  0  0  0  0  0
    6.2700    5.3100    0.0000 H   0  0  0  0  0  0  0  0  0  0  0  0
    2.5981    0.8100    0.0000 H   0  0  0  0  0  0  0  0  0  0  0  0
    5.4040    0.8100    0.0000 H   0  0  0  0  0  0  0  0  0  0  0  0
    3.4641    6.9300    0.0000 H   0  0  0  0  0  0  0  0  0  0  0  0
    6.2700    6.9300    0.0000 H   0  0  0  0  0  0  0  0  0  0  0  0
    4.0010    0.0000    0.0000 H   0  0  0  0  0  0  0  0  0  0  0  0
    4.8671    7.7400    0.0000 H   0  0  0  0  0  0  0  0  0  0  0  0
    9.2700    3.6200    0.0000 H   0  0  0  0  0  0  0  0  0  0  0  0
  1 43  1  0  0  0  0
  2  4  1  0  0  0  0
  2  6  1  0  0  0  0
  2  7  1  0  0  0  0
  3  5  1  0  0  0  0
  3 11  1  0  0  0  0
  3 12  1  0  0  0  0
  4  5  1  0  0  0  0
  4 21  1  0  0  0  0
  4 22  1  0  0  0  0
  5 23  1  0  0  0  0
  5 24  1  0  0  0  0
  6  8  1  0  0  0  0
  6 25  1  0  0  0  0
  6 26  1  0  0  0  0
  7  9  2  0  0  0  0
  7 10  1  0  0  0  0
  8 13  2  0  0  0  0
  8 14  1  0  0  0  0
  9 15  1  0  0  0  0
  9 27  1  0  0  0  0
 10 16  2  0  0  0  0
 10 28  1  0  0  0  0
 11 29  1  0  0  0  0
 11 33  1  0  0  0  0
 11 34  1  0  0  0  0
 12 30  1  0  0  0  0
 12 31  1  0  0  0  0
 12 32  1  0  0  0  0
 13 17  1  0  0  0  0
 13 35  1  0  0  0  0
 14 18  2  0  0  0  0
 14 36  1  0  0  0  0
 15 19  2  0  0  0  0
 15 37  1  0  0  0  0
 16 19  1  0  0  0  0
 16 38  1  0  0  0  0
 17 20  2  0  0  0  0
 17 39  1  0  0  0  0
 18 20  1  0  0  0  0
 18 40  1  0  0  0  0
 19 41  1  0  0  0  0
 20 42  1  0  0  0  0
M  END
> <PUBCHEM_COMPOUND_CID>
24180706

> <PUBCHEM_COMPOUND_CANONICALIZED>
1

> <PUBCHEM_CACTVS_COMPLEXITY>
227

> <PUBCHEM_CACTVS_HBOND_ACCEPTOR>
2

> <PUBCHEM_CACTVS_HBOND_DONOR>
1

> <PUBCHEM_CACTVS_ROTATABLE_BOND>
6

> <PUBCHEM_CACTVS_SUBSKEYS>
AAADceB7AAAEAAAAAAAAAAAAAAAAAAAAAAAwYAAAAAAAAAABQAAAHAAAAAAADAjBGAQywIMAAACAAiRCQACCAAAhAgAIiAAIZIgIYCLAkZGUIAhggADIyAcQgAAOAAAAAAAAAAAAAAAAAAAAAAAAAAAAAA==

> <PUBCHEM_IUPAC_OPENEYE_NAME>
N'-benzyl-N,N-dimethyl-N'-phenyl-ethane-1,2-diamine hydrochloride

> <PUBCHEM_IUPAC_CAS_NAME>
N,N-dimethyl-N'-phenyl-N'-(phenylmethyl)ethane-1,2-diamine hydrochloride

> <PUBCHEM_IUPAC_NAME>
N'-benzyl-N,N-dimethyl-N'-phenylethane-1,2-diamine hydrochloride

> <PUBCHEM_IUPAC_SYSTEMATIC_NAME>
N,N-dimethyl-N'-phenyl-N'-(phenylmethyl)ethane-1,2-diamine hydrochloride

> <PUBCHEM_IUPAC_TRADITIONAL_NAME>
benzyl-[2-(dimethylamino)ethyl]-phenyl-amine hydrochloride

> <PUBCHEM_IUPAC_INCHI>
InChI=1S/C17H22N2.ClH/c1-18(2)13-14-19(17-11-7-4-8-12-17)15-16-9-5-3-6-10-16;/h3-12H,13-15H2,1-2H3;1H

> <PUBCHEM_IUPAC_INCHIKEY>
AJCNOWKYMZKMFV-UHFFFAOYSA-N

> <PUBCHEM_EXACT_MASS>
290.154976

> <PUBCHEM_MOLECULAR_FORMULA>
C17H23ClN2

> <PUBCHEM_MOLECULAR_WEIGHT>
290.83092

> <PUBCHEM_OPENEYE_CAN_SMILES>
CN(C)CCN(CC1=CC=CC=C1)C2=CC=CC=C2.Cl

> <PUBCHEM_OPENEYE_ISO_SMILES>
CN(C)CCN(CC1=CC=CC=C1)C2=CC=CC=C2.Cl

> <PUBCHEM_CACTVS_TPSA>
6.5

> <PUBCHEM_MONOISOTOPIC_WEIGHT>
290.154976

> <PUBCHEM_TOTAL_CHARGE>
0

> <PUBCHEM_HEAVY_ATOM_COUNT>
20

> <PUBCHEM_ATOM_DEF_STEREO_COUNT>
0

> <PUBCHEM_ATOM_UDEF_STEREO_COUNT>
0

> <PUBCHEM_BOND_DEF_STEREO_COUNT>
0

> <PUBCHEM_BOND_UDEF_STEREO_COUNT>
0

> <PUBCHEM_ISOTOPIC_ATOM_COUNT>
0

> <PUBCHEM_COMPONENT_COUNT>
2

> <PUBCHEM_CACTVS_TAUTO_COUNT>
1

> <PUBCHEM_COORDINATE_TYPE>
1
5
255

> <PUBCHEM_BONDANNOTATIONS>
10  16  8
13  17  8
14  18  8
15  19  8
16  19  8
17  20  8
18  20  8
7  10  8
7  9  8
8  13  8
8  14  8
9  15  8

$$$$

