   Chemical and Physical Properties References

   [1]USDA ARS - USDA chemical properties
   from [2]ChemIDplus

   Color/Form

     * ORTHORHOMBIC, SIX-SIDED PLATES FROM TRICHLOROETHYLENE
     * NEEDLES OR LEAVES (ALCOHOL, AQ ACETONE)
     * COLORLESS CRYSTALS
     * White crystals
     * Colorless to red, crystalline solid.

   from [3]HSDB

   Odor
        Odorless.
   from [4]HSDB

   Boiling Point
        210-220 DEG C @ 0.5 MM HG
   from [5]HSDB

   Melting Point
        165-166 DEG C
   from [6]HSDB

   Corrosivity
        Non-corrosive
   from [7]HSDB

   Density/Specific Gravity
        1.27 @ 20 DEG C
   from [8]HSDB

   Octanol/Water Partition Coefficient
        Log P = 4.10
   from [9]HSDB

   Solubilities

     * Sol in alcohol, acetone, carbon tetrachloride, chloroform, ether
     * Sol in acetic acid, acetone; sl sol in ethanol
     * 15 PPM IN WATER AT 100 DEG C; SLIGHTLY SOL IN PETROLEUM OILS
     * SOL IN LIPIDS
     * Water solubility = 0.2 mg/l at 20 deg C
     * Soluble in ether, alcohol, acetone, and other organic solvents

   from [10]HSDB

   Spectral Properties

     * MAX ABSORPTION (ALCOHOL): 237 NM (LOG E= 4.15), 293.5 NM (LOG E=
       4.25), 330.5 NM (LOG E= 3.80); SADTLER REFERENCE NUMBER: 373 (IR,
       PRISM)
     * Specific optical rotation: -228 deg at 20 deg C/D (concn by vol=
       2.22 g in 100 ml benzene)
     * Specific optical rotation: -225.2 deg at 29.5 deg C/D (benzene)
     * Intense mass spectral peaks: 192 m/z (100%), 191 m/z (31%), 394 m/z
       (20%), 177 m/z (18%)
     * IR: 21008 (Sadtler Research Laboratories IR Grating Collection)
     * UV: 149 (Sadtler Research Laboratories Spectral Collection)
     * NMR: 16340 (Sadtler Research Laboratories Spectral Collection)
     * MASS: 5060 (National Bureau of Standards EPA-NIH Mass Spectra Data
       Base, NSRDS-NBS-63)
     * Strongly levorotatory in solution; specific rotation for D line 230
       deg in benzene, 62 deg in ethylene dichloride.

   from [11]HSDB

   Vapor Pressure
        8X10-4 mm Hg at 20 deg C
   from [12]HSDB

   Other Chemical/Physical Properties

     * MP: 185-186 DEG C /DIMORPHIC ROTENONE/
     * SHOWS RAPID RACEMIZATION ON ALKALI TREATMENT; CRYSTALLIZES WITH
       SOLVENT OF CRYSTALLIZATION; CIS CONFIGURATION IS GENERALLY ACCEPTED
     * Dec upon exposure to light and air; colorless solns in organic
       solvents oxidize upon exposure and become yellow, orange, and then
       deep red and may deposit crystals of dehydrorotenone and rotenone.

   from [13]HSDB

   Computed Properties
   Molecular Weight                  394.41718 [g/mol]
   Molecular Formula                 C[23]H[22]O[6]
   XLogP3                            4.1
   H-Bond Donor                      0
   H-Bond Acceptor                   6
   Rotatable Bond Count              3
   Tautomer Count                    2
   Exact Mass                        394.141638
   MonoIsotopic Mass                 394.141638
   Topological Polar Surface Area    63.2
   Heavy Atom Count                  29
   Formal Charge                     0
   Complexity                        664
   Isotope Atom Count                0
   Defined Atom Stereocenter Count   3
   Undefined Atom Stereocenter Count 0
   Defined Bond Stereocenter Count   0
   Undefined Bond Stereocenter Count 0
   Covalently-Bonded Unit Count      1
   Feature 3D Acceptor Count         6
   Feature 3D Ring Count             5
   Effective Rotor Count             4.2
   Conformer Sampling RMSD           0.8
   CID Conformer Count               [14]4

References

   1. http://www.ars.usda.gov/SP2UserFiles/ad_hoc/12755100DatabaseFiles/PesticidePropertiesDatabase/IndividualPesticideFiles/ROTENONE.TXT
   2. http://chem.sis.nlm.nih.gov/chemidplus/
   3. http://toxnet.nlm.nih.gov/cgi-bin/sis/search/r?dbs+hsdb:@term+@rn+@rel+83-79-4
   4. http://toxnet.nlm.nih.gov/cgi-bin/sis/search/r?dbs+hsdb:@term+@rn+@rel+83-79-4
   5. http://toxnet.nlm.nih.gov/cgi-bin/sis/search/r?dbs+hsdb:@term+@rn+@rel+83-79-4
   6. http://toxnet.nlm.nih.gov/cgi-bin/sis/search/r?dbs+hsdb:@term+@rn+@rel+83-79-4
   7. http://toxnet.nlm.nih.gov/cgi-bin/sis/search/r?dbs+hsdb:@term+@rn+@rel+83-79-4
   8. http://toxnet.nlm.nih.gov/cgi-bin/sis/search/r?dbs+hsdb:@term+@rn+@rel+83-79-4
   9. http://toxnet.nlm.nih.gov/cgi-bin/sis/search/r?dbs+hsdb:@term+@rn+@rel+83-79-4
  10. http://toxnet.nlm.nih.gov/cgi-bin/sis/search/r?dbs+hsdb:@term+@rn+@rel+83-79-4
  11. http://toxnet.nlm.nih.gov/cgi-bin/sis/search/r?dbs+hsdb:@term+@rn+@rel+83-79-4
  12. http://toxnet.nlm.nih.gov/cgi-bin/sis/search/r?dbs+hsdb:@term+@rn+@rel+83-79-4
  13. http://toxnet.nlm.nih.gov/cgi-bin/sis/search/r?dbs+hsdb:@term+@rn+@rel+83-79-4
  14. http://pubchem.ncbi.nlm.nih.gov/vw3d/vw3d.cgi?cid=6758
