4205
  -OEChem-07051212532D

 39 42  0     1  0  0  0  0  0999 V2000
    4.5438   -0.7951    0.0000 N   0  0  3  0  0  0  0  0  0  0  0  0
    2.8430   -1.9740    0.0000 N   0  0  3  0  0  0  0  0  0  0  0  0
    6.1973   -1.0814    0.0000 N   0  0  0  0  0  0  0  0  0  0  0  0
    3.6428   -0.3612    0.0000 C   0  0  3  0  0  0  0  0  0  0  0  0
    2.7732   -0.9347    0.0000 C   0  0  0  0  0  0  0  0  0  0  0  0
    4.6376   -1.8325    0.0000 C   0  0  0  0  0  0  0  0  0  0  0  0
    3.7815   -2.4259    0.0000 C   0  0  0  0  0  0  0  0  0  0  0  0
    3.4203    0.6137    0.0000 C   0  0  0  0  0  0  0  0  0  0  0  0
    5.4447   -0.3612    0.0000 C   0  0  0  0  0  0  0  0  0  0  0  0
    4.0438    1.3955    0.0000 C   0  0  0  0  0  0  0  0  0  0  0  0
    5.0438    1.3955    0.0000 C   0  0  0  0  0  0  0  0  0  0  0  0
    5.6673    0.6137    0.0000 C   0  0  0  0  0  0  0  0  0  0  0  0
    2.0146   -2.5341    0.0000 C   0  0  0  0  0  0  0  0  0  0  0  0
    2.3880    0.7530    0.0000 C   0  0  0  0  0  0  0  0  0  0  0  0
    3.6782    2.3709    0.0000 C   0  0  0  0  0  0  0  0  0  0  0  0
    6.6578    0.9360    0.0000 C   0  0  0  0  0  0  0  0  0  0  0  0
    2.0000    1.7197    0.0000 C   0  0  0  0  0  0  0  0  0  0  0  0
    2.6494    2.5341    0.0000 C   0  0  0  0  0  0  0  0  0  0  0  0
    7.4268    0.2334    0.0000 C   0  0  0  0  0  0  0  0  0  0  0  0
    7.1950   -0.7821    0.0000 C   0  0  0  0  0  0  0  0  0  0  0  0
    3.0674   -0.1303    0.0000 H   0  0  0  0  0  0  0  0  0  0  0  0
    2.5255   -0.3663    0.0000 H   0  0  0  0  0  0  0  0  0  0  0  0
    2.1708   -1.0815    0.0000 H   0  0  0  0  0  0  0  0  0  0  0  0
    4.8984   -2.3950    0.0000 H   0  0  0  0  0  0  0  0  0  0  0  0
    5.2364   -1.6718    0.0000 H   0  0  0  0  0  0  0  0  0  0  0  0
    3.4209   -2.9302    0.0000 H   0  0  0  0  0  0  0  0  0  0  0  0
    4.2167   -2.8675    0.0000 H   0  0  0  0  0  0  0  0  0  0  0  0
    5.6024    1.6645    0.0000 H   0  0  0  0  0  0  0  0  0  0  0  0
    4.9058    2.0000    0.0000 H   0  0  0  0  0  0  0  0  0  0  0  0
    1.6674   -2.0205    0.0000 H   0  0  0  0  0  0  0  0  0  0  0  0
    1.5010   -2.8814    0.0000 H   0  0  0  0  0  0  0  0  0  0  0  0
    2.3619   -3.0477    0.0000 H   0  0  0  0  0  0  0  0  0  0  0  0
    2.0071    0.2639    0.0000 H   0  0  0  0  0  0  0  0  0  0  0  0
    4.0704    2.8511    0.0000 H   0  0  0  0  0  0  0  0  0  0  0  0
    6.7887    1.5420    0.0000 H   0  0  0  0  0  0  0  0  0  0  0  0
    1.3866    1.8098    0.0000 H   0  0  0  0  0  0  0  0  0  0  0  0
    2.4252    3.1121    0.0000 H   0  0  0  0  0  0  0  0  0  0  0  0
    8.0185    0.4185    0.0000 H   0  0  0  0  0  0  0  0  0  0  0  0
    7.6478   -1.2055    0.0000 H   0  0  0  0  0  0  0  0  0  0  0  0
  1  4  1  0  0  0  0
  1  6  1  0  0  0  0
  1  9  1  0  0  0  0
  2  5  1  0  0  0  0
  2  7  1  0  0  0  0
  2 13  1  0  0  0  0
  3  9  1  0  0  0  0
  3 20  2  0  0  0  0
  4  5  1  0  0  0  0
  4  8  1  0  0  0  0
  4 21  1  0  0  0  0
  5 22  1  0  0  0  0
  5 23  1  0  0  0  0
  6  7  1  0  0  0  0
  6 24  1  0  0  0  0
  6 25  1  0  0  0  0
  7 26  1  0  0  0  0
  7 27  1  0  0  0  0
  8 10  1  0  0  0  0
  8 14  2  0  0  0  0
  9 12  2  0  0  0  0
 10 11  1  0  0  0  0
 10 15  2  0  0  0  0
 11 12  1  0  0  0  0
 11 28  1  0  0  0  0
 11 29  1  0  0  0  0
 12 16  1  0  0  0  0
 13 30  1  0  0  0  0
 13 31  1  0  0  0  0
 13 32  1  0  0  0  0
 14 17  1  0  0  0  0
 14 33  1  0  0  0  0
 15 18  1  0  0  0  0
 15 34  1  0  0  0  0
 16 19  2  0  0  0  0
 16 35  1  0  0  0  0
 17 18  2  0  0  0  0
 17 36  1  0  0  0  0
 18 37  1  0  0  0  0
 19 20  1  0  0  0  0
 19 38  1  0  0  0  0
 20 39  1  0  0  0  0
M  END
> <PUBCHEM_COMPOUND_CID>
4205

> <PUBCHEM_COMPOUND_CANONICALIZED>
1

> <PUBCHEM_CACTVS_COMPLEXITY>
345

> <PUBCHEM_CACTVS_HBOND_ACCEPTOR>
3

> <PUBCHEM_CACTVS_HBOND_DONOR>
0

> <PUBCHEM_CACTVS_ROTATABLE_BOND>
0

> <PUBCHEM_CACTVS_SUBSKEYS>
AAADceB7AAAAAAAAAAAAAAAAAAAAAAAAAAA8WIAABYAAAAABwAAAHAAAAAAADCjBGgQ/sJMIEACgAjJnZACCgCkxAiAJ2CA4ZJiIYOLAmZGUIAhogALIyCcQgMAOgAAAAAAQAAAAAAAAACAAAAAAAAAAAA==

> <PUBCHEM_IUPAC_INCHI>
InChI=1S/C17H19N3/c1-19-9-10-20-16(12-19)15-7-3-2-5-13(15)11-14-6-4-8-18-17(14)20/h2-8,16H,9-12H2,1H3

> <PUBCHEM_IUPAC_INCHIKEY>
RONZAEMNMFQXRA-UHFFFAOYSA-N

> <PUBCHEM_XLOGP3>
3.3

> <PUBCHEM_EXACT_MASS>
265.157898

> <PUBCHEM_MOLECULAR_FORMULA>
C17H19N3

> <PUBCHEM_MOLECULAR_WEIGHT>
265.35286

> <PUBCHEM_OPENEYE_CAN_SMILES>
CN1CCN2C(C1)C3=CC=CC=C3CC4=C2N=CC=C4

> <PUBCHEM_OPENEYE_ISO_SMILES>
CN1CCN2C(C1)C3=CC=CC=C3CC4=C2N=CC=C4

> <PUBCHEM_CACTVS_TPSA>
19.4

> <PUBCHEM_MONOISOTOPIC_WEIGHT>
265.157898

> <PUBCHEM_TOTAL_CHARGE>
0

> <PUBCHEM_HEAVY_ATOM_COUNT>
20

> <PUBCHEM_ATOM_DEF_STEREO_COUNT>
0

> <PUBCHEM_ATOM_UDEF_STEREO_COUNT>
1

> <PUBCHEM_BOND_DEF_STEREO_COUNT>
0

> <PUBCHEM_BOND_UDEF_STEREO_COUNT>
0

> <PUBCHEM_ISOTOPIC_ATOM_COUNT>
0

> <PUBCHEM_COMPONENT_COUNT>
1

> <PUBCHEM_CACTVS_TAUTO_COUNT>
1

> <PUBCHEM_COORDINATE_TYPE>
1
5
255

> <PUBCHEM_BONDANNOTATIONS>
10  15  8
12  16  8
14  17  8
15  18  8
16  19  8
17  18  8
19  20  8
3  20  8
3  9  8
4  5  3
8  10  8
8  14  8
9  12  8

$$$$

