   Color/Form

     * Hygroscopic oil
     * Viscous liquid
     * Clear viscous, somewhat hygroscopic liquid ... Some crystallization
       may occur on standing

   from [1]HSDB

   Taste
        Slightly bitter taste
   from [2]HSDB

   Boiling Point
        Decomposes
   from [3]HSDB

   Density/Specific Gravity
        1.2 at 20 deg C/20 deg C
   from [4]HSDB

   Octanol/Water Partition Coefficient
        log Kow = -1.92 (est)
   from [5]HSDB

   pH
        pH 9.5
   from [6]HSDB

   Solubilities

     * Freely soluble in methanol, water, alcohol; slightly soluble in
       ether
     * Very soluble in ethanol, methanol; slightly soluble in ethyl ether
     * Slightly soluble in glycerin
     * In water, 1.6X10+6 mg/L at 25 deg C /miscible/ (est)

   from [7]HSDB

   Spectral Properties

     * Index of refraction: 1.497 at 20 deg C/D
     * Specific optical rotation: +29.5 deg at 20 deg C/D (water, 5%)
     * SADTLER REFERENCE NUMBER: 17635 (IR, PRISM)
     * Intense mass spectral peaks: 102 m/z, 133 m/z, 157 m/z, 175 m/z,
       205, m/z
     * IR: 17635 (Sadtler Research Laboratories IR Prism collection)

   from [8]HSDB

   Vapor Pressure
        1.5X10-8 mm Hg at 25 deg C (est)
   from [9]HSDB

   Other Chemical/Physical Properties

     * The alcohol corresponding to pantothenic acid, with vitamin
       activity
     * BP: 118-120 deg C at 0.02 mm Hg; somewhat hygroscopic; easily
       decomposes on distillation.
     * Henry's Law constant = 2.8X10-11 cu cm/molec-sec at 25 deg C (est)
     * Hydroxyl radical reaction rate constant = 2.7X10-11 cu cm/molec-sec
       at 25 deg C (est)

   from [10]HSDB

   Computed Properties
   Molecular Weight                  205.25146 [g/mol]
   Molecular Formula                 C[9]H[19]NO[4]
   XLogP3-AA                         -0.9
   H-Bond Donor                      4
   H-Bond Acceptor                   4
   Rotatable Bond Count              6
   Tautomer Count                    2
   Exact Mass                        205.131408
   MonoIsotopic Mass                 205.131408
   Topological Polar Surface Area    89.8
   Heavy Atom Count                  14
   Formal Charge                     0
   Complexity                        182
   Isotope Atom Count                0
   Defined Atom Stereocenter Count   1
   Undefined Atom Stereocenter Count 0
   Defined Bond Stereocenter Count   0
   Undefined Bond Stereocenter Count 0
   Covalently-Bonded Unit Count      1
   Feature 3D Acceptor Count         4
   Feature 3D Donor Count            4
   Feature 3D Hydrophobe Count       1
   Effective Rotor Count             7
   Conformer Sampling RMSD           0.8
   CID Conformer Count               [11]103

References

   1. http://toxnet.nlm.nih.gov/cgi-bin/sis/search/r?dbs+hsdb:@term+@rn+@rel+81-13-0
   2. http://toxnet.nlm.nih.gov/cgi-bin/sis/search/r?dbs+hsdb:@term+@rn+@rel+81-13-0
   3. http://toxnet.nlm.nih.gov/cgi-bin/sis/search/r?dbs+hsdb:@term+@rn+@rel+81-13-0
   4. http://toxnet.nlm.nih.gov/cgi-bin/sis/search/r?dbs+hsdb:@term+@rn+@rel+81-13-0
   5. http://toxnet.nlm.nih.gov/cgi-bin/sis/search/r?dbs+hsdb:@term+@rn+@rel+81-13-0
   6. http://toxnet.nlm.nih.gov/cgi-bin/sis/search/r?dbs+hsdb:@term+@rn+@rel+81-13-0
   7. http://toxnet.nlm.nih.gov/cgi-bin/sis/search/r?dbs+hsdb:@term+@rn+@rel+81-13-0
   8. http://toxnet.nlm.nih.gov/cgi-bin/sis/search/r?dbs+hsdb:@term+@rn+@rel+81-13-0
   9. http://toxnet.nlm.nih.gov/cgi-bin/sis/search/r?dbs+hsdb:@term+@rn+@rel+81-13-0
  10. http://toxnet.nlm.nih.gov/cgi-bin/sis/search/r?dbs+hsdb:@term+@rn+@rel+81-13-0
  11. http://pubchem.ncbi.nlm.nih.gov/vw3d/vw3d.cgi?cid=131204
