440144
  -OEChem-07051212482D

 46 45  0     1  0  0  0  0  0999 V2000
    6.8671    0.0000    0.0000 P   0  0  3  0  0  0  0  0  0  0  0  0
   12.0632    0.0000    0.0000 P   0  0  3  0  0  0  0  0  0  0  0  0
    7.7331    0.5000    0.0000 O   0  0  0  0  0  0  0  0  0  0  0  0
   11.1972    0.5000    0.0000 O   0  0  0  0  0  0  0  0  0  0  0  0
    6.0010   -0.5000    0.0000 O   0  0  0  0  0  0  0  0  0  0  0  0
   12.9292   -0.5000    0.0000 O   0  0  0  0  0  0  0  0  0  0  0  0
    9.4651    1.5000    0.0000 O   0  0  0  0  0  0  0  0  0  0  0  0
    4.2690   -1.5000    0.0000 O   0  0  0  0  0  0  0  0  0  0  0  0
   14.6613   -1.5000    0.0000 O   0  0  0  0  0  0  0  0  0  0  0  0
    6.3671    0.8660    0.0000 O   0  0  0  0  0  0  0  0  0  0  0  0
   12.5632    0.8660    0.0000 O   0  0  0  0  0  0  0  0  0  0  0  0
    7.3671   -0.8660    0.0000 O   0  0  0  0  0  0  0  0  0  0  0  0
   11.5632   -0.8660    0.0000 O   0  0  0  0  0  0  0  0  0  0  0  0
    2.5369   -0.5000    0.0000 O   0  0  0  0  0  0  0  0  0  0  0  0
   16.3933   -0.5000    0.0000 O   0  0  0  0  0  0  0  0  0  0  0  0
    9.4651    0.5000    0.0000 C   0  0  0  0  0  0  0  0  0  0  0  0
    8.5991    0.0000    0.0000 C   0  0  0  0  0  0  0  0  0  0  0  0
   10.3312    0.0000    0.0000 C   0  0  0  0  0  0  0  0  0  0  0  0
    4.2690   -0.5000    0.0000 C   0  0  3  0  0  0  0  0  0  0  0  0
   14.6613   -0.5000    0.0000 C   0  0  3  0  0  0  0  0  0  0  0  0
    5.1350    0.0000    0.0000 C   0  0  0  0  0  0  0  0  0  0  0  0
   13.7953    0.0000    0.0000 C   0  0  0  0  0  0  0  0  0  0  0  0
    3.4030    0.0000    0.0000 C   0  0  0  0  0  0  0  0  0  0  0  0
   15.5273    0.0000    0.0000 C   0  0  0  0  0  0  0  0  0  0  0  0
   10.0021    0.8100    0.0000 H   0  0  0  0  0  0  0  0  0  0  0  0
    9.9326   -0.4749    0.0000 H   0  0  0  0  0  0  0  0  0  0  0  0
   10.7297   -0.4749    0.0000 H   0  0  0  0  0  0  0  0  0  0  0  0
    8.2006   -0.4749    0.0000 H   0  0  0  0  0  0  0  0  0  0  0  0
    8.9976   -0.4749    0.0000 H   0  0  0  0  0  0  0  0  0  0  0  0
   14.1244   -0.8100    0.0000 H   0  0  0  0  0  0  0  0  0  0  0  0
    4.8059   -0.8100    0.0000 H   0  0  0  0  0  0  0  0  0  0  0  0
    5.5335    0.4749    0.0000 H   0  0  0  0  0  0  0  0  0  0  0  0
    4.7365    0.4749    0.0000 H   0  0  0  0  0  0  0  0  0  0  0  0
   14.1938    0.4749    0.0000 H   0  0  0  0  0  0  0  0  0  0  0  0
   13.3967    0.4749    0.0000 H   0  0  0  0  0  0  0  0  0  0  0  0
   15.9258    0.4749    0.0000 H   0  0  0  0  0  0  0  0  0  0  0  0
   15.1288    0.4749    0.0000 H   0  0  0  0  0  0  0  0  0  0  0  0
    3.8015    0.4749    0.0000 H   0  0  0  0  0  0  0  0  0  0  0  0
    3.0044    0.4749    0.0000 H   0  0  0  0  0  0  0  0  0  0  0  0
   10.0021    1.8100    0.0000 H   0  0  0  0  0  0  0  0  0  0  0  0
    3.7320   -1.8100    0.0000 H   0  0  0  0  0  0  0  0  0  0  0  0
   15.1982   -1.8100    0.0000 H   0  0  0  0  0  0  0  0  0  0  0  0
    6.6771    1.4030    0.0000 H   0  0  0  0  0  0  0  0  0  0  0  0
   12.2532    1.4030    0.0000 H   0  0  0  0  0  0  0  0  0  0  0  0
   16.9303   -0.1900    0.0000 H   0  0  0  0  0  0  0  0  0  0  0  0
    2.0000   -0.1900    0.0000 H   0  0  0  0  0  0  0  0  0  0  0  0
  1  3  1  0  0  0  0
  1  5  1  0  0  0  0
  1 10  1  0  0  0  0
  1 12  2  0  0  0  0
  2  4  1  0  0  0  0
  2  6  1  0  0  0  0
  2 11  1  0  0  0  0
  2 13  2  0  0  0  0
  3 17  1  0  0  0  0
  4 18  1  0  0  0  0
  5 21  1  0  0  0  0
  6 22  1  0  0  0  0
  7 16  1  0  0  0  0
  7 40  1  0  0  0  0
  8 19  1  0  0  0  0
  8 41  1  0  0  0  0
  9 20  1  0  0  0  0
  9 42  1  0  0  0  0
 10 43  1  0  0  0  0
 11 44  1  0  0  0  0
 14 23  1  0  0  0  0
 14 46  1  0  0  0  0
 15 24  1  0  0  0  0
 15 45  1  0  0  0  0
 16 17  1  0  0  0  0
 16 18  1  0  0  0  0
 16 25  1  0  0  0  0
 17 28  1  0  0  0  0
 17 29  1  0  0  0  0
 18 26  1  0  0  0  0
 18 27  1  0  0  0  0
 19 21  1  0  0  0  0
 19 23  1  0  0  0  0
 19 31  1  0  0  0  0
 20 22  1  0  0  0  0
 20 24  1  0  0  0  0
 20 30  1  0  0  0  0
 21 32  1  0  0  0  0
 21 33  1  0  0  0  0
 22 34  1  0  0  0  0
 22 35  1  0  0  0  0
 23 38  1  0  0  0  0
 23 39  1  0  0  0  0
 24 36  1  0  0  0  0
 24 37  1  0  0  0  0
M  END
> <PUBCHEM_COMPOUND_CID>
440144

> <PUBCHEM_COMPOUND_CANONICALIZED>
1

> <PUBCHEM_CACTVS_COMPLEXITY>
394

> <PUBCHEM_CACTVS_HBOND_ACCEPTOR>
13

> <PUBCHEM_CACTVS_HBOND_DONOR>
7

> <PUBCHEM_CACTVS_ROTATABLE_BOND>
14

> <PUBCHEM_CACTVS_SUBSKEYS>
AAADceBwPAMAAAAAAAAAAAAAAAAAAAAAAAAAAAAAAAAAAAAAAAAAGgAACCAACBSggAIAAAAAAxAAQAAAAIAAAAAAAAAAAAAAAAABEAAAAAAAQAABAAABAAAAAAAAAAAAAAAAAAAAAAAAAAAAAAAAAAAAAA==

> <PUBCHEM_IUPAC_OPENEYE_NAME>
[3-[2,3-dihydroxypropoxy(hydroxy)phosphoryl]oxy-2-hydroxy-propyl] 2,3-dihydroxypropyl hydrogen phosphate

> <PUBCHEM_IUPAC_CAS_NAME>
[3-[2,3-dihydroxypropoxy(hydroxy)phosphoryl]oxy-2-hydroxypropyl] 2,3-dihydroxypropyl hydrogen phosphate

> <PUBCHEM_IUPAC_NAME>
[3-[2,3-dihydroxypropoxy(hydroxy)phosphoryl]oxy-2-hydroxypropyl] 2,3-dihydroxypropyl hydrogen phosphate

> <PUBCHEM_IUPAC_SYSTEMATIC_NAME>
[3-[2,3-bis(oxidanyl)propoxy-oxidanyl-phosphoryl]oxy-2-oxidanyl-propyl] 2,3-bis(oxidanyl)propyl hydrogen phosphate

> <PUBCHEM_IUPAC_TRADITIONAL_NAME>
glyceryl [3-[glyceryloxy(hydroxy)phosphoryl]oxy-2-hydroxy-propyl] hydrogen phosphate

> <PUBCHEM_IUPAC_INCHI>
InChI=1S/C9H22O13P2/c10-1-7(12)3-19-23(15,16)21-5-9(14)6-22-24(17,18)20-4-8(13)2-11/h7-14H,1-6H2,(H,15,16)(H,17,18)

> <PUBCHEM_IUPAC_INCHIKEY>
RCBRFGAYXGRKBS-UHFFFAOYSA-N

> <PUBCHEM_XLOGP3_AA>
-5.5

> <PUBCHEM_EXACT_MASS>
400.053564

> <PUBCHEM_MOLECULAR_FORMULA>
C9H22O13P2

> <PUBCHEM_MOLECULAR_WEIGHT>
400.210704

> <PUBCHEM_OPENEYE_CAN_SMILES>
C(C(COP(=O)(O)OCC(COP(=O)(O)OCC(CO)O)O)O)O

> <PUBCHEM_OPENEYE_ISO_SMILES>
C(C(COP(=O)(O)OCC(COP(=O)(O)OCC(CO)O)O)O)O

> <PUBCHEM_CACTVS_TPSA>
213

> <PUBCHEM_MONOISOTOPIC_WEIGHT>
400.053564

> <PUBCHEM_TOTAL_CHARGE>
0

> <PUBCHEM_HEAVY_ATOM_COUNT>
24

> <PUBCHEM_ATOM_DEF_STEREO_COUNT>
0

> <PUBCHEM_ATOM_UDEF_STEREO_COUNT>
2

> <PUBCHEM_BOND_DEF_STEREO_COUNT>
0

> <PUBCHEM_BOND_UDEF_STEREO_COUNT>
0

> <PUBCHEM_ISOTOPIC_ATOM_COUNT>
0

> <PUBCHEM_COMPONENT_COUNT>
1

> <PUBCHEM_CACTVS_TAUTO_COUNT>
1

> <PUBCHEM_COORDINATE_TYPE>
1
5
255

> <PUBCHEM_BONDANNOTATIONS>
19  8  3
20  9  3

$$$$

