   Color/Form
        Orange-yellow solid
   from [1]HSDB

   Odor
        FAINT, MEDICINAL ODOR
   from [2]HSDB

   Melting Point
        42-43 deg C
   from [3]HSDB

   Corrosivity
        SLIGHTLY CORROSIVE
   from [4]HSDB

   Octanol/Water Partition Coefficient
        log Kow = 5.07 (est)
   from [5]HSDB

   Solubilities

     * In acetone, benzene, chloroform, diethyl ether, ethyl acetate
       >1000, cyclohexane 251, ethanol 177, olive oil 260 (all in g/kg, 20
       deg C)
     * In water, 0.9 mg/L at 20 deg C

   from [6]HSDB

   Spectral Properties
        Intense mass spectral peaks: 63 m/z (100%), 43 m/z (92%), 306 m/z
   (52%), 41 m/z (46%)
   from [7]HSDB

   Vapor Pressure
        3X10-5 mm Hg at 20 deg C
   from [8]HSDB

   Other Chemical/Physical Properties

     * Henry's Law constant = 1.5X10-5 atm-cu m/mole at 25 deg C (est)
     * Hydroxyl radical reaction rate constant = 1.6X10-11 cu cm/molec-sec
       at 25 deg C (est)

   from [9]HSDB

   Computed Properties
   Molecular Weight                  355.69753 [g/mol]
   Molecular Formula                 C[12]H[13]ClF[3]N[3]O[4]
   XLogP3                            5
   H-Bond Donor                      0
   H-Bond Acceptor                   8
   Rotatable Bond Count              5
   Exact Mass                        355.054668
   MonoIsotopic Mass                 355.054668
   Topological Polar Surface Area    94.9
   Heavy Atom Count                  23
   Formal Charge                     0
   Complexity                        403
   Isotope Atom Count                0
   Defined Atom Stereocenter Count   0
   Undefined Atom Stereocenter Count 0
   Defined Bond Stereocenter Count   0
   Undefined Bond Stereocenter Count 0
   Covalently-Bonded Unit Count      1
   Feature 3D Acceptor Count         4
   Feature 3D Anion Count            2
   Feature 3D Cation Count           1
   Feature 3D Hydrophobe Count       1
   Feature 3D Ring Count             1
   Effective Rotor Count             8
   Conformer Sampling RMSD           0.8
   CID Conformer Count               [10]4

References

   1. http://toxnet.nlm.nih.gov/cgi-bin/sis/search/r?dbs+hsdb:@term+@rn+@rel+33245-39-5
   2. http://toxnet.nlm.nih.gov/cgi-bin/sis/search/r?dbs+hsdb:@term+@rn+@rel+33245-39-5
   3. http://toxnet.nlm.nih.gov/cgi-bin/sis/search/r?dbs+hsdb:@term+@rn+@rel+33245-39-5
   4. http://toxnet.nlm.nih.gov/cgi-bin/sis/search/r?dbs+hsdb:@term+@rn+@rel+33245-39-5
   5. http://toxnet.nlm.nih.gov/cgi-bin/sis/search/r?dbs+hsdb:@term+@rn+@rel+33245-39-5
   6. http://toxnet.nlm.nih.gov/cgi-bin/sis/search/r?dbs+hsdb:@term+@rn+@rel+33245-39-5
   7. http://toxnet.nlm.nih.gov/cgi-bin/sis/search/r?dbs+hsdb:@term+@rn+@rel+33245-39-5
   8. http://toxnet.nlm.nih.gov/cgi-bin/sis/search/r?dbs+hsdb:@term+@rn+@rel+33245-39-5
   9. http://toxnet.nlm.nih.gov/cgi-bin/sis/search/r?dbs+hsdb:@term+@rn+@rel+33245-39-5
  10. http://pubchem.ncbi.nlm.nih.gov/vw3d/vw3d.cgi?cid=36392
