   Color/Form

     * Needles from alcohol or benzene
     * Gray to purple, crystalline solid.

   from [1]HSDB

   Boiling Point
        402 deg C
   from [2]HSDB

   Melting Point
        132-133 deg C
   from [3]HSDB

   Dissociation Constants
        pKa1 = 3.2; pKa2 = 1.6
   from [4]HSDB

   Octanol/Water Partition Coefficient
        log Kow = 3.51
   from [5]HSDB

   pH
        WEAK BASE
   from [6]HSDB

   Solubilities

     * READILY SOL IN BENZENE, DIETHYL ETHER, ETHANOL, AND GLACIAL ACETIC
       ACID
     * SLIGHTLY SOL IN DILUTE HYDROCHLORIC ACID
     * In water, 3.1 mg/l @ 25 deg C

   from [7]HSDB

   Spectral Properties

     * The absorption maximum for 3,3'-dichlorobenzidine in aqueous
       ethanol is 290 nm with significant absorption in the ultraviolet
       region extending to 340 nm. In dilute aqueous solution the
       absorption maxima have been observed at 282 nm and 211 nm.
     * Intense mass spectral peaks: 252 m/z (100%), 254 m/z (66%), 253 m/z
       (16%), 126 m/z (16%)
     * MASS: 1771 (National Bureau of Standards EPA-NIH Mass Spectra Data
       Base, NSRDS-NBS-63)

   from [8]HSDB

   Other Chemical/Physical Properties

     * Undergoes usual reactions of benzidine derivatives, eg, formation
       of diazonium salts and alkyl deriv
     * Conversion factor: ppm= 0.0966 times mg/cu m
     * When combined with ferric chloride or bleaching powder, a green
       color is produced.
     * HAS GENERAL CHARACTERISTICS OF PRIMARY AROMATIC AMINES

   from [9]HSDB

   Computed Properties
   Molecular Weight                  253.1272 [g/mol]
   Molecular Formula                 C[12]H[10]Cl[2]N[2]
   XLogP3                            3.5
   H-Bond Donor                      2
   H-Bond Acceptor                   2
   Rotatable Bond Count              1
   Exact Mass                        252.022104
   MonoIsotopic Mass                 252.022104
   Topological Polar Surface Area    52
   Heavy Atom Count                  16
   Formal Charge                     0
   Complexity                        213
   Isotope Atom Count                0
   Defined Atom Stereocenter Count   0
   Undefined Atom Stereocenter Count 0
   Defined Bond Stereocenter Count   0
   Undefined Bond Stereocenter Count 0
   Covalently-Bonded Unit Count      1
   Feature 3D Donor Count            2
   Feature 3D Cation Count           2
   Feature 3D Ring Count             2
   Effective Rotor Count             1
   Conformer Sampling RMSD           0.6
   CID Conformer Count               [10]4

References

   1. http://toxnet.nlm.nih.gov/cgi-bin/sis/search/r?dbs+hsdb:@term+@rn+@rel+91-94-1
   2. http://toxnet.nlm.nih.gov/cgi-bin/sis/search/r?dbs+hsdb:@term+@rn+@rel+91-94-1
   3. http://toxnet.nlm.nih.gov/cgi-bin/sis/search/r?dbs+hsdb:@term+@rn+@rel+91-94-1
   4. http://toxnet.nlm.nih.gov/cgi-bin/sis/search/r?dbs+hsdb:@term+@rn+@rel+91-94-1
   5. http://toxnet.nlm.nih.gov/cgi-bin/sis/search/r?dbs+hsdb:@term+@rn+@rel+91-94-1
   6. http://toxnet.nlm.nih.gov/cgi-bin/sis/search/r?dbs+hsdb:@term+@rn+@rel+91-94-1
   7. http://toxnet.nlm.nih.gov/cgi-bin/sis/search/r?dbs+hsdb:@term+@rn+@rel+91-94-1
   8. http://toxnet.nlm.nih.gov/cgi-bin/sis/search/r?dbs+hsdb:@term+@rn+@rel+91-94-1
   9. http://toxnet.nlm.nih.gov/cgi-bin/sis/search/r?dbs+hsdb:@term+@rn+@rel+91-94-1
  10. http://pubchem.ncbi.nlm.nih.gov/vw3d/vw3d.cgi?cid=7070
