   Color/Form

     * Colorless crytals
     * White crystalline solid

   from [1]HSDB

   Odor
        Weak characteristic odor
   from [2]HSDB

   Boiling Point
        132 deg C @ 2 Pa
   from [3]HSDB

   Melting Point
        126.2 deg C
   from [4]HSDB

   Corrosivity
        Non-corrosive
   from [5]HSDB

   Density/Specific Gravity
        1.28 @ 20 deg C/4 deg C
   from [6]HSDB

   Dissociation Constants
        pKa= 1.0
   from [7]HSDB

   Octanol/Water Partition Coefficient
        log Kow= 1.7
   from [8]HSDB

   Solubilities

     * Sol in methanol and ethanol; very slightly soluble in water (1200
       ppm).
     * Soluble in ... glycol ether acetate.
     * In dimethylformamide 1780, cyclohexanone 1000, chloroform 850,
       acetone 820, methanol 450, dichloromethane 340, benzene 220,
       n-butanol 150, ethanol 190, toluene 87, xylene 90, n-hexane 1 (all
       in g/l at 20 deg C).
     * In water, 1.05X10+3 mg/l @ 20 deg C

   from [9]HSDB

   Vapor Pressure
        4.35X10-7 mm Hg @ 20 deg C
   from [10]HSDB

   Other Chemical/Physical Properties
        Slight sulfurous odor /Technical metribuzin/
   from [11]HSDB

   Computed Properties
   Molecular Weight                  214.28796 [g/mol]
   Molecular Formula                 C[8]H[14]N[4]OS
   XLogP3                            1.7
   H-Bond Donor                      1
   H-Bond Acceptor                   5
   Rotatable Bond Count              2
   Exact Mass                        214.088832
   MonoIsotopic Mass                 214.088832
   Topological Polar Surface Area    96.4
   Heavy Atom Count                  14
   Formal Charge                     0
   Complexity                        316
   Isotope Atom Count                0
   Defined Atom Stereocenter Count   0
   Undefined Atom Stereocenter Count 0
   Defined Bond Stereocenter Count   0
   Undefined Bond Stereocenter Count 0
   Covalently-Bonded Unit Count      1
   Feature 3D Acceptor Count         2
   Feature 3D Donor Count            1
   Feature 3D Hydrophobe Count       2
   Feature 3D Ring Count             1
   Effective Rotor Count             2
   Conformer Sampling RMSD           0.6
   CID Conformer Count               [12]3

References

   1. http://toxnet.nlm.nih.gov/cgi-bin/sis/search/r?dbs+hsdb:@term+@rn+@rel+21087-64-9
   2. http://toxnet.nlm.nih.gov/cgi-bin/sis/search/r?dbs+hsdb:@term+@rn+@rel+21087-64-9
   3. http://toxnet.nlm.nih.gov/cgi-bin/sis/search/r?dbs+hsdb:@term+@rn+@rel+21087-64-9
   4. http://toxnet.nlm.nih.gov/cgi-bin/sis/search/r?dbs+hsdb:@term+@rn+@rel+21087-64-9
   5. http://toxnet.nlm.nih.gov/cgi-bin/sis/search/r?dbs+hsdb:@term+@rn+@rel+21087-64-9
   6. http://toxnet.nlm.nih.gov/cgi-bin/sis/search/r?dbs+hsdb:@term+@rn+@rel+21087-64-9
   7. http://toxnet.nlm.nih.gov/cgi-bin/sis/search/r?dbs+hsdb:@term+@rn+@rel+21087-64-9
   8. http://toxnet.nlm.nih.gov/cgi-bin/sis/search/r?dbs+hsdb:@term+@rn+@rel+21087-64-9
   9. http://toxnet.nlm.nih.gov/cgi-bin/sis/search/r?dbs+hsdb:@term+@rn+@rel+21087-64-9
  10. http://toxnet.nlm.nih.gov/cgi-bin/sis/search/r?dbs+hsdb:@term+@rn+@rel+21087-64-9
  11. http://toxnet.nlm.nih.gov/cgi-bin/sis/search/r?dbs+hsdb:@term+@rn+@rel+21087-64-9
  12. http://pubchem.ncbi.nlm.nih.gov/vw3d/vw3d.cgi?cid=30479
