   Color/Form
        Water-white liquid
   from [1]HSDB

   Odor
        Faint aromatic odor
   from [2]HSDB

   Taste
        Sharp burning taste
   from [3]HSDB

   Boiling Point
        205.3 deg C
   from [4]HSDB

   Melting Point
        -15.2 deg C
   from [5]HSDB

   Corrosivity
        Will attack some plastics
   from [6]HSDB

   Critical Temperature and Pressure
        Critical temperature: 715 K; Critical pressure: 4.3X10+6 Pa
   from [7]HSDB

   Density/Specific Gravity
        1.0419 at 20 deg C/4 deg C
   from [8]HSDB

   Dissociation Constants
        pKa = 15.40
   from [9]HSDB

   Heat of Combustion
        894.3 kg cal/g mol wt at 20 deg C
   from [10]HSDB

   Heat of Vaporization
        50.48 kJ/mol at 205.31 deg C
   from [11]HSDB

   Octanol/Water Partition Coefficient
        log Kow = 1.10
   from [12]HSDB

   pH
        A soln in water is neutral to litmus
   from [13]HSDB

   Solubilities

     * Soluble in benzene, methanol, chloroform, ethanol, ether, and
       acetone
     * In water, 35,000 mg/L at 20 deg C
     * In water, 42,900 mg/L at 25 deg C

   from [14]HSDB

   Spectral Properties

     * SADTLER REF NUMBER: 157 (IR, PRISM); 985 (IR, GRATING); MAX
       ABSORPTION (ALCOHOL): 243 NM (LOG E= 1.91); 258.5 NM (LOG E= 2.26);
       268 NM (LOG E= 1.95)
     * Index of refraction: 1.5396 at 20 deg C/D
     * IR: 5219 (Coblentz Society Spectral Collection)
     * UV: 62 (Sadtler Research Laboratories Spectral Collection)
     * 1H NMR: 161 (Varian Associates NMR Spectra Catalogue)
     * MASS: 61913 (NIST/EPA/MSDC Mass Spectral Database, 1990 version);
       204 (National Bureau of Standards)

   from [15]HSDB

   Surface Tension
        39.0 dynes/cm = 0.0390 N/M at 20 deg C
   from [16]HSDB

   Vapor Density
        3.72 (Air = 1.00)
   from [17]HSDB

   Vapor Pressure
        0.094 mm Hg at 25 deg C
   from [18]HSDB

   Viscosity
        5.474 cP at 25 deg C; 2.760 cP at 50 deg C; 1.618 cP at 75 deg C;
   1.055 cP at 100 deg C
   from [19]HSDB

   Other Chemical/Physical Properties

     * PERCENT IN SATURATED AIR AT 20 DEG C: 0.02; DENSITY OF SATURATED
       AIR: 1.0005 (AIR= 1)
     * CONVERSION FACTORS: 1 MG/L= 226.1 PPM & 1 PPM= 4.42 MG/CU M @ 25
       DEG C, 760 MM HG
     * Dielectric constant: 1.66; specific heat: 0.5402 cal/g at 15-20 deg
       C; wt/gal: 9.78 lb at 20 deg C
     * Heat of fusion: 8.97 kJ/mol at -15.4 deg C
     * Specific heat capacity: 2.015 J/g-K at constant pressure
     * Liquid heat capacity = 0.520 BTU/lb-F at 68 deg F; Liquid thermal
       conductivity = 1.088 BTU-in/hr-sq ft-F at 70 deg F; Saturated vapor
       density = 0.00161 lb/cu ft at 180 deg F; Ideal gas heat capacity =
       0.276 BTU/lb-F at 60 deg F; Ratio of specific heats of vapor: 1.070
     * Wt/mL: 1.043 to 1.046 g
     * Forms a large number of azeotropes
     * Enthalpies of formation at 298.15 K: -160.7 kJ/mole (liquid);
       -100.4 kJ/mol (gas). Standard molar entropy at 298.15 K: 217.9
       J/mol K
     * Dielectric constant: 13.0 at 20 deg C & 9.5 at 70 deg C; dipole
       moment: 1.67 in benzene at 25 deg C
     * Henry's Law constant = 3.37X10-7 atm-cu m/mole at 25 deg C [Abraham
       MH et al; J Pharm Sci 83: 1085-100 (1994)] [20]PubMed Abstract
     * Hydroxyl radical rate constant= 2.29X10-11 cu cm/molec-sec

   from [21]HSDB

   Computed Properties
   Molecular Weight                  108.13782 [g/mol]
   Molecular Formula                 C[7]H[8]O
   XLogP3                            1.1
   H-Bond Donor                      1
   H-Bond Acceptor                   1
   Rotatable Bond Count              1
   Exact Mass                        108.057515
   MonoIsotopic Mass                 108.057515
   Topological Polar Surface Area    20.2
   Heavy Atom Count                  8
   Formal Charge                     0
   Complexity                        55.4
   Isotope Atom Count                0
   Defined Atom Stereocenter Count   0
   Undefined Atom Stereocenter Count 0
   Defined Bond Stereocenter Count   0
   Undefined Bond Stereocenter Count 0
   Covalently-Bonded Unit Count      1
   Feature 3D Acceptor Count         1
   Feature 3D Donor Count            1
   Feature 3D Ring Count             1
   Effective Rotor Count             1
   Conformer Sampling RMSD           0.4
   CID Conformer Count               [22]1

References

   1. http://toxnet.nlm.nih.gov/cgi-bin/sis/search/r?dbs+hsdb:@term+@rn+@rel+100-51-6
   2. http://toxnet.nlm.nih.gov/cgi-bin/sis/search/r?dbs+hsdb:@term+@rn+@rel+100-51-6
   3. http://toxnet.nlm.nih.gov/cgi-bin/sis/search/r?dbs+hsdb:@term+@rn+@rel+100-51-6
   4. http://toxnet.nlm.nih.gov/cgi-bin/sis/search/r?dbs+hsdb:@term+@rn+@rel+100-51-6
   5. http://toxnet.nlm.nih.gov/cgi-bin/sis/search/r?dbs+hsdb:@term+@rn+@rel+100-51-6
   6. http://toxnet.nlm.nih.gov/cgi-bin/sis/search/r?dbs+hsdb:@term+@rn+@rel+100-51-6
   7. http://toxnet.nlm.nih.gov/cgi-bin/sis/search/r?dbs+hsdb:@term+@rn+@rel+100-51-6
   8. http://toxnet.nlm.nih.gov/cgi-bin/sis/search/r?dbs+hsdb:@term+@rn+@rel+100-51-6
   9. http://toxnet.nlm.nih.gov/cgi-bin/sis/search/r?dbs+hsdb:@term+@rn+@rel+100-51-6
  10. http://toxnet.nlm.nih.gov/cgi-bin/sis/search/r?dbs+hsdb:@term+@rn+@rel+100-51-6
  11. http://toxnet.nlm.nih.gov/cgi-bin/sis/search/r?dbs+hsdb:@term+@rn+@rel+100-51-6
  12. http://toxnet.nlm.nih.gov/cgi-bin/sis/search/r?dbs+hsdb:@term+@rn+@rel+100-51-6
  13. http://toxnet.nlm.nih.gov/cgi-bin/sis/search/r?dbs+hsdb:@term+@rn+@rel+100-51-6
  14. http://toxnet.nlm.nih.gov/cgi-bin/sis/search/r?dbs+hsdb:@term+@rn+@rel+100-51-6
  15. http://toxnet.nlm.nih.gov/cgi-bin/sis/search/r?dbs+hsdb:@term+@rn+@rel+100-51-6
  16. http://toxnet.nlm.nih.gov/cgi-bin/sis/search/r?dbs+hsdb:@term+@rn+@rel+100-51-6
  17. http://toxnet.nlm.nih.gov/cgi-bin/sis/search/r?dbs+hsdb:@term+@rn+@rel+100-51-6
  18. http://toxnet.nlm.nih.gov/cgi-bin/sis/search/r?dbs+hsdb:@term+@rn+@rel+100-51-6
  19. http://toxnet.nlm.nih.gov/cgi-bin/sis/search/r?dbs+hsdb:@term+@rn+@rel+100-51-6
  20. http://www.ncbi.nlm.nih.gov/entrez/query.fcgi?cmd=Retrieve&db=pubmed&dopt=Abstract&list_uids=7983591
  21. http://toxnet.nlm.nih.gov/cgi-bin/sis/search/r?dbs+hsdb:@term+@rn+@rel+100-51-6
  22. http://pubchem.ncbi.nlm.nih.gov/vw3d/vw3d.cgi?cid=244
