73527
  -OEChem-07051212552D

 61 66  0     1  0  0  0  0  0999 V2000
    3.0261   -0.0401    0.0000 O   0  0  0  0  0  0  0  0  0  0  0  0
    4.4900   -1.5740    0.0000 O   0  0  0  0  0  0  0  0  0  0  0  0
    7.2491    1.3083    0.0000 O   0  0  0  0  0  0  0  0  0  0  0  0
    7.3588   -1.8649    0.0000 O   0  0  0  0  0  0  0  0  0  0  0  0
    7.8049   -0.2876    0.0000 O   0  0  0  0  0  0  0  0  0  0  0  0
    3.6276    0.7947    0.0000 N   0  0  3  0  0  0  0  0  0  0  0  0
    5.3830    0.8083    0.0000 C   0  0  2  0  0  0  0  0  0  0  0  0
    4.5170    1.3083    0.0000 C   0  0  1  0  0  0  0  0  0  0  0  0
    4.5092    0.2902    0.0000 C   0  0  3  0  0  0  0  0  0  0  0  0
    4.5438   -0.6638    0.0000 C   0  0  2  0  0  0  0  0  0  0  0  0
    6.2035    0.3202    0.0000 C   0  0  1  0  0  0  0  0  0  0  0  0
    4.5170    2.3083    0.0000 C   0  0  2  0  0  0  0  0  0  0  0  0
    3.9611    0.3145    0.0000 C   0  0  1  0  0  0  0  0  0  0  0  0
    5.3816   -1.1213    0.0000 C   0  0  1  0  0  0  0  0  0  0  0  0
    6.2028   -0.6344    0.0000 C   0  0  1  0  0  0  0  0  0  0  0  0
    6.2491    1.3083    0.0000 C   0  0  2  0  0  0  0  0  0  0  0  0
    3.6315    1.8106    0.0000 C   0  0  0  0  0  0  0  0  0  0  0  0
    5.3830    2.8083    0.0000 C   0  0  0  0  0  0  0  0  0  0  0  0
    5.6657   -1.3453    0.0000 C   0  0  0  0  0  0  0  0  0  0  0  0
    6.2491    2.3083    0.0000 C   0  0  0  0  0  0  0  0  0  0  0  0
    5.2591   -2.0495    0.0000 C   0  0  0  0  0  0  0  0  0  0  0  0
    6.8393   -2.6439    0.0000 C   0  0  2  0  0  0  0  0  0  0  0  0
    4.0220    3.1772    0.0000 C   0  0  0  0  0  0  0  0  0  0  0  0
    5.9065   -2.7259    0.0000 C   0  0  0  0  0  0  0  0  0  0  0  0
    7.0761   -0.9723    0.0000 C   0  0  0  0  0  0  0  0  0  0  0  0
    2.6428    0.6211    0.0000 C   0  0  0  0  0  0  0  0  0  0  0  0
    2.0000    1.3872    0.0000 C   0  0  0  0  0  0  0  0  0  0  0  0
    7.7491    2.1743    0.0000 C   0  0  0  0  0  0  0  0  0  0  0  0
    5.2473    1.7432    0.0000 H   0  0  0  0  0  0  0  0  0  0  0  0
    3.9786   -0.0305    0.0000 H   0  0  0  0  0  0  0  0  0  0  0  0
    3.8207   -1.1107    0.0000 H   0  0  0  0  0  0  0  0  0  0  0  0
    7.0534    0.3092    0.0000 H   0  0  0  0  0  0  0  0  0  0  0  0
    3.5562    0.7840    0.0000 H   0  0  0  0  0  0  0  0  0  0  0  0
    6.9340   -0.2009    0.0000 H   0  0  0  0  0  0  0  0  0  0  0  0
    6.4096    0.7094    0.0000 H   0  0  0  0  0  0  0  0  0  0  0  0
    3.4247    2.3951    0.0000 H   0  0  0  0  0  0  0  0  0  0  0  0
    3.0202    1.7068    0.0000 H   0  0  0  0  0  0  0  0  0  0  0  0
    5.7816    3.2832    0.0000 H   0  0  0  0  0  0  0  0  0  0  0  0
    4.9845    3.2832    0.0000 H   0  0  0  0  0  0  0  0  0  0  0  0
    5.1178   -1.0553    0.0000 H   0  0  0  0  0  0  0  0  0  0  0  0
    5.2849   -1.8346    0.0000 H   0  0  0  0  0  0  0  0  0  0  0  0
    6.8597    2.2006    0.0000 H   0  0  0  0  0  0  0  0  0  0  0  0
    6.4611    2.8909    0.0000 H   0  0  0  0  0  0  0  0  0  0  0  0
    4.6781   -1.8331    0.0000 H   0  0  0  0  0  0  0  0  0  0  0  0
    4.9183   -2.5675    0.0000 H   0  0  0  0  0  0  0  0  0  0  0  0
    7.2727   -3.3750    0.0000 H   0  0  0  0  0  0  0  0  0  0  0  0
    4.5608    3.4841    0.0000 H   0  0  0  0  0  0  0  0  0  0  0  0
    3.7152    3.7159    0.0000 H   0  0  0  0  0  0  0  0  0  0  0  0
    3.4833    2.8703    0.0000 H   0  0  0  0  0  0  0  0  0  0  0  0
    5.3742   -3.0437    0.0000 H   0  0  0  0  0  0  0  0  0  0  0  0
    6.0974   -3.3158    0.0000 H   0  0  0  0  0  0  0  0  0  0  0  0
    2.1058    0.3112    0.0000 H   0  0  0  0  0  0  0  0  0  0  0  0
    2.8548    0.0385    0.0000 H   0  0  0  0  0  0  0  0  0  0  0  0
    2.9267   -0.6521    0.0000 H   0  0  0  0  0  0  0  0  0  0  0  0
    4.4567   -2.1932    0.0000 H   0  0  0  0  0  0  0  0  0  0  0  0
    2.4750    1.7857    0.0000 H   0  0  0  0  0  0  0  0  0  0  0  0
    1.6015    1.8622    0.0000 H   0  0  0  0  0  0  0  0  0  0  0  0
    1.5250    0.9887    0.0000 H   0  0  0  0  0  0  0  0  0  0  0  0
    8.2860    1.8643    0.0000 H   0  0  0  0  0  0  0  0  0  0  0  0
    8.0591    2.7112    0.0000 H   0  0  0  0  0  0  0  0  0  0  0  0
    7.2121    2.4843    0.0000 H   0  0  0  0  0  0  0  0  0  0  0  0
 13  1  1  1  0  0  0
  1 54  1  0  0  0  0
 14  2  1  1  0  0  0
  2 55  1  0  0  0  0
 16  3  1  6  0  0  0
  3 28  1  0  0  0  0
  4 22  1  0  0  0  0
  4 25  1  0  0  0  0
  5 25  2  0  0  0  0
  6  9  1  0  0  0  0
  6 17  1  0  0  0  0
  6 26  1  0  0  0  0
  7  8  1  0  0  0  0
  7  9  1  6  0  0  0
  7 11  1  0  0  0  0
  7 16  1  0  0  0  0
  8 12  1  0  0  0  0
  8 13  1  0  0  0  0
  8 29  1  1  0  0  0
  9 10  1  0  0  0  0
  9 30  1  0  0  0  0
 10 13  1  0  0  0  0
 10 14  1  0  0  0  0
 10 31  1  6  0  0  0
 11 15  1  0  0  0  0
 11 19  1  0  0  0  0
 11 32  1  6  0  0  0
 12 17  1  0  0  0  0
 12 18  1  0  0  0  0
 12 23  1  1  0  0  0
 13 33  1  0  0  0  0
 14 15  1  0  0  0  0
 14 21  1  0  0  0  0
 15 25  1  0  0  0  0
 15 34  1  1  0  0  0
 16 20  1  0  0  0  0
 16 35  1  0  0  0  0
 17 36  1  0  0  0  0
 17 37  1  0  0  0  0
 18 20  1  0  0  0  0
 18 38  1  0  0  0  0
 18 39  1  0  0  0  0
 19 22  1  0  0  0  0
 19 40  1  0  0  0  0
 19 41  1  0  0  0  0
 20 42  1  0  0  0  0
 20 43  1  0  0  0  0
 21 24  1  0  0  0  0
 21 44  1  0  0  0  0
 21 45  1  0  0  0  0
 22 24  1  0  0  0  0
 22 46  1  6  0  0  0
 23 47  1  0  0  0  0
 23 48  1  0  0  0  0
 23 49  1  0  0  0  0
 24 50  1  0  0  0  0
 24 51  1  0  0  0  0
 26 27  1  0  0  0  0
 26 52  1  0  0  0  0
 26 53  1  0  0  0  0
 27 56  1  0  0  0  0
 27 57  1  0  0  0  0
 27 58  1  0  0  0  0
 28 59  1  0  0  0  0
 28 60  1  0  0  0  0
 28 61  1  0  0  0  0
M  END
> <PUBCHEM_COMPOUND_CID>
73527

> <PUBCHEM_COMPOUND_CANONICALIZED>
1

> <PUBCHEM_CACTVS_COMPLEXITY>
730

> <PUBCHEM_CACTVS_HBOND_ACCEPTOR>
6

> <PUBCHEM_CACTVS_HBOND_DONOR>
2

> <PUBCHEM_CACTVS_ROTATABLE_BOND>
2

> <PUBCHEM_CACTVS_SUBSKEYS>
AAADcfB6OAAAAAAAAAAAAAAAAAAAAAAAAAA8aIEAB4kWAGAAAAAAHgAACAAAD3zhgAYCCAMABgAIAACQCAAAAAAAAAAAAAEIAAAAEBYAgAAGQAAHIACAAAH4/f/fgAAAAAAAAADQAAaEADQAAaEADQAAAA==

> <PUBCHEM_IUPAC_INCHI>
InChI=1S/C22H33NO5/c1-4-23-10-20(2)7-6-13(27-3)22-12-9-11-5-8-21(26,14(12)19(25)28-11)15(18(22)23)16(24)17(20)22/h11-18,24,26H,4-10H2,1-3H3/t11-,12+,13-,14+,15-,16+,17+,18?,20-,21+,22-/m0/s1

> <PUBCHEM_IUPAC_INCHIKEY>
YPSAOPXJHSESSR-AGBQGJAZSA-N

> <PUBCHEM_XLOGP3_AA>
1.1

> <PUBCHEM_EXACT_MASS>
391.235873

> <PUBCHEM_MOLECULAR_FORMULA>
C22H33NO5

> <PUBCHEM_MOLECULAR_WEIGHT>
391.50112

> <PUBCHEM_OPENEYE_CAN_SMILES>
CCN1CC2(CCC(C34C2C(C(C31)C5(CCC6CC4C5C(=O)O6)O)O)OC)C

> <PUBCHEM_OPENEYE_ISO_SMILES>
CCN1C[C@@]2(CC[C@@H]([C@@]34[C@@H]2[C@@H]([C@@H](C31)[C@]5(CC[C@H]6C[C@@H]4[C@@H]5C(=O)O6)O)O)OC)C

> <PUBCHEM_CACTVS_TPSA>
79.2

> <PUBCHEM_MONOISOTOPIC_WEIGHT>
391.235873

> <PUBCHEM_TOTAL_CHARGE>
0

> <PUBCHEM_HEAVY_ATOM_COUNT>
28

> <PUBCHEM_ATOM_DEF_STEREO_COUNT>
10

> <PUBCHEM_ATOM_UDEF_STEREO_COUNT>
1

> <PUBCHEM_BOND_DEF_STEREO_COUNT>
0

> <PUBCHEM_BOND_UDEF_STEREO_COUNT>
0

> <PUBCHEM_ISOTOPIC_ATOM_COUNT>
0

> <PUBCHEM_COMPONENT_COUNT>
1

> <PUBCHEM_CACTVS_TAUTO_COUNT>
1

> <PUBCHEM_COORDINATE_TYPE>
1
5
255

> <PUBCHEM_BONDANNOTATIONS>
13  1  5
10  31  6
11  32  6
12  23  5
15  34  5
14  2  5
22  46  6
16  3  6
9  6  3
7  9  6
8  29  5

$$$$

