17396066
  -OEChem-06241222542D

 61 65  0     1  0  0  0  0  0999 V2000
    8.0524    1.2842    0.0000 S   0  0  0  0  0  0  0  0  0  0  0  0
    6.5661   -0.0540    0.0000 O   0  0  0  0  0  0  0  0  0  0  0  0
    2.8660   -0.3546    0.0000 O   0  0  0  0  0  0  0  0  0  0  0  0
    6.3301   -2.3546    0.0000 O   0  0  0  0  0  0  0  0  0  0  0  0
    5.4071    1.2332    0.0000 N   0  0  0  0  0  0  0  0  0  0  0  0
    9.7736    1.7455    0.0000 N   0  0  0  0  0  0  0  0  0  0  0  0
    9.6045    3.3546    0.0000 N   0  0  0  0  0  0  0  0  0  0  0  0
    8.6910    2.9479    0.0000 N   0  0  0  0  0  0  0  0  0  0  0  0
   11.2682    2.7160    0.0000 C   0  0  0  0  0  0  0  0  0  0  0  0
   12.0772    3.3038    0.0000 C   0  0  0  0  0  0  0  0  0  0  0  0
   12.1817    2.3093    0.0000 C   0  0  0  0  0  0  0  0  0  0  0  0
   10.2736    2.6115    0.0000 C   0  0  0  0  0  0  0  0  0  0  0  0
    4.5981    0.6454    0.0000 C   0  0  3  0  0  0  0  0  0  0  0  0
    3.7891    1.2332    0.0000 C   0  0  0  0  0  0  0  0  0  0  0  0
    4.0981    2.1842    0.0000 C   0  0  0  0  0  0  0  0  0  0  0  0
    5.0981    2.1842    0.0000 C   0  0  0  0  0  0  0  0  0  0  0  0
    4.5981   -0.3546    0.0000 C   0  0  0  0  0  0  0  0  0  0  0  0
    6.3582    0.9241    0.0000 C   0  0  0  0  0  0  0  0  0  0  0  0
    8.7955    1.9534    0.0000 C   0  0  0  0  0  0  0  0  0  0  0  0
    7.1013    1.5933    0.0000 C   0  0  0  0  0  0  0  0  0  0  0  0
   10.1804    0.8319    0.0000 C   0  0  0  0  0  0  0  0  0  0  0  0
    3.7320   -0.8546    0.0000 C   0  0  0  0  0  0  0  0  0  0  0  0
    5.4641   -0.8546    0.0000 C   0  0  0  0  0  0  0  0  0  0  0  0
    5.4641   -1.8546    0.0000 C   0  0  0  0  0  0  0  0  0  0  0  0
    3.7320   -1.8546    0.0000 C   0  0  0  0  0  0  0  0  0  0  0  0
   11.1749    0.7274    0.0000 C   0  0  0  0  0  0  0  0  0  0  0  0
    9.5926    0.0229    0.0000 C   0  0  0  0  0  0  0  0  0  0  0  0
    4.5981   -2.3546    0.0000 C   0  0  0  0  0  0  0  0  0  0  0  0
   11.5816   -0.1862    0.0000 C   0  0  0  0  0  0  0  0  0  0  0  0
    9.9993   -0.8906    0.0000 C   0  0  0  0  0  0  0  0  0  0  0  0
   10.9939   -0.9952    0.0000 C   0  0  0  0  0  0  0  0  0  0  0  0
    2.0000   -0.8546    0.0000 C   0  0  0  0  0  0  0  0  0  0  0  0
    6.3301   -3.3546    0.0000 C   0  0  0  0  0  0  0  0  0  0  0  0
   11.1712    2.1036    0.0000 H   0  0  0  0  0  0  0  0  0  0  0  0
   12.6732    3.4747    0.0000 H   0  0  0  0  0  0  0  0  0  0  0  0
   11.8054    3.8611    0.0000 H   0  0  0  0  0  0  0  0  0  0  0  0
   12.0317    1.7077    0.0000 H   0  0  0  0  0  0  0  0  0  0  0  0
   12.8002    2.2660    0.0000 H   0  0  0  0  0  0  0  0  0  0  0  0
    5.1505    0.3639    0.0000 H   0  0  0  0  0  0  0  0  0  0  0  0
    3.2227    1.4853    0.0000 H   0  0  0  0  0  0  0  0  0  0  0  0
    3.4791    0.6962    0.0000 H   0  0  0  0  0  0  0  0  0  0  0  0
    4.1629    2.8008    0.0000 H   0  0  0  0  0  0  0  0  0  0  0  0
    3.4916    2.3131    0.0000 H   0  0  0  0  0  0  0  0  0  0  0  0
    5.7045    2.3131    0.0000 H   0  0  0  0  0  0  0  0  0  0  0  0
    5.0333    2.8008    0.0000 H   0  0  0  0  0  0  0  0  0  0  0  0
    7.3924    2.1407    0.0000 H   0  0  0  0  0  0  0  0  0  0  0  0
    6.6127    1.9750    0.0000 H   0  0  0  0  0  0  0  0  0  0  0  0
    6.0010   -0.5446    0.0000 H   0  0  0  0  0  0  0  0  0  0  0  0
    3.1951   -2.1646    0.0000 H   0  0  0  0  0  0  0  0  0  0  0  0
   11.5393    1.2290    0.0000 H   0  0  0  0  0  0  0  0  0  0  0  0
    8.9760    0.0877    0.0000 H   0  0  0  0  0  0  0  0  0  0  0  0
    4.5981   -2.9746    0.0000 H   0  0  0  0  0  0  0  0  0  0  0  0
   12.1982   -0.2510    0.0000 H   0  0  0  0  0  0  0  0  0  0  0  0
    9.6349   -1.3922    0.0000 H   0  0  0  0  0  0  0  0  0  0  0  0
   11.2460   -1.5616    0.0000 H   0  0  0  0  0  0  0  0  0  0  0  0
    1.6900   -0.3177    0.0000 H   0  0  0  0  0  0  0  0  0  0  0  0
    1.4631   -1.1646    0.0000 H   0  0  0  0  0  0  0  0  0  0  0  0
    2.3100   -1.3916    0.0000 H   0  0  0  0  0  0  0  0  0  0  0  0
    5.7101   -3.3546    0.0000 H   0  0  0  0  0  0  0  0  0  0  0  0
    6.3301   -3.9746    0.0000 H   0  0  0  0  0  0  0  0  0  0  0  0
    6.9501   -3.3546    0.0000 H   0  0  0  0  0  0  0  0  0  0  0  0
  1 19  1  0  0  0  0
  1 20  1  0  0  0  0
  2 18  2  0  0  0  0
  3 22  1  0  0  0  0
  3 32  1  0  0  0  0
  4 24  1  0  0  0  0
  4 33  1  0  0  0  0
  5 13  1  0  0  0  0
  5 16  1  0  0  0  0
  5 18  1  0  0  0  0
  6 12  1  0  0  0  0
  6 19  1  0  0  0  0
  6 21  1  0  0  0  0
  7  8  1  0  0  0  0
  7 12  2  0  0  0  0
  8 19  2  0  0  0  0
  9 10  1  0  0  0  0
  9 11  1  0  0  0  0
  9 12  1  0  0  0  0
  9 34  1  0  0  0  0
 10 11  1  0  0  0  0
 10 35  1  0  0  0  0
 10 36  1  0  0  0  0
 11 37  1  0  0  0  0
 11 38  1  0  0  0  0
 13 14  1  0  0  0  0
 13 17  1  0  0  0  0
 13 39  1  0  0  0  0
 14 15  1  0  0  0  0
 14 40  1  0  0  0  0
 14 41  1  0  0  0  0
 15 16  1  0  0  0  0
 15 42  1  0  0  0  0
 15 43  1  0  0  0  0
 16 44  1  0  0  0  0
 16 45  1  0  0  0  0
 17 22  2  0  0  0  0
 17 23  1  0  0  0  0
 18 20  1  0  0  0  0
 20 46  1  0  0  0  0
 20 47  1  0  0  0  0
 21 26  2  0  0  0  0
 21 27  1  0  0  0  0
 22 25  1  0  0  0  0
 23 24  2  0  0  0  0
 23 48  1  0  0  0  0
 24 28  1  0  0  0  0
 25 28  2  0  0  0  0
 25 49  1  0  0  0  0
 26 29  1  0  0  0  0
 26 50  1  0  0  0  0
 27 30  2  0  0  0  0
 27 51  1  0  0  0  0
 28 52  1  0  0  0  0
 29 31  2  0  0  0  0
 29 53  1  0  0  0  0
 30 31  1  0  0  0  0
 30 54  1  0  0  0  0
 31 55  1  0  0  0  0
 32 56  1  0  0  0  0
 32 57  1  0  0  0  0
 32 58  1  0  0  0  0
 33 59  1  0  0  0  0
 33 60  1  0  0  0  0
 33 61  1  0  0  0  0
M  END
> <PUBCHEM_COMPOUND_CID>
17396066

> <PUBCHEM_COMPOUND_CANONICALIZED>
1

> <PUBCHEM_CACTVS_COMPLEXITY>
660

> <PUBCHEM_CACTVS_HBOND_ACCEPTOR>
6

> <PUBCHEM_CACTVS_HBOND_DONOR>
0

> <PUBCHEM_CACTVS_ROTATABLE_BOND>
8

> <PUBCHEM_CACTVS_SUBSKEYS>
AAADceB7sABAAAAAAAAAAAAAGAAAAWLAAAAwYAAAAAAAAAAB0AAAHgQIAAAADSzF2waz1ocMFAiqAidydACS2CthIrAdiAA+bIiMLiLEuZuEMChmzhPI6CfwwLAOAQABAAAIAAACAAIAABAAAAAAAAAAAA==

> <PUBCHEM_IUPAC_OPENEYE_NAME>
2-[(5-cyclopropyl-4-phenyl-1,2,4-triazol-3-yl)sulfanyl]-1-[2-(2,5-dimethoxyphenyl)pyrrolidin-1-yl]ethanone

> <PUBCHEM_IUPAC_CAS_NAME>
2-[(5-cyclopropyl-4-phenyl-1,2,4-triazol-3-yl)thio]-1-[2-(2,5-dimethoxyphenyl)-1-pyrrolidinyl]ethanone

> <PUBCHEM_IUPAC_NAME>
2-[(5-cyclopropyl-4-phenyl-1,2,4-triazol-3-yl)sulfanyl]-1-[2-(2,5-dimethoxyphenyl)pyrrolidin-1-yl]ethanone

> <PUBCHEM_IUPAC_SYSTEMATIC_NAME>
2-[(5-cyclopropyl-4-phenyl-1,2,4-triazol-3-yl)sulfanyl]-1-[2-(2,5-dimethoxyphenyl)pyrrolidin-1-yl]ethanone

> <PUBCHEM_IUPAC_TRADITIONAL_NAME>
2-[(5-cyclopropyl-4-phenyl-1,2,4-triazol-3-yl)thio]-1-[2-(2,5-dimethoxyphenyl)pyrrolidino]ethanone

> <PUBCHEM_IUPAC_INCHI>
InChI=1S/C25H28N4O3S/c1-31-19-12-13-22(32-2)20(15-19)21-9-6-14-28(21)23(30)16-33-25-27-26-24(17-10-11-17)29(25)18-7-4-3-5-8-18/h3-5,7-8,12-13,15,17,21H,6,9-11,14,16H2,1-2H3

> <PUBCHEM_IUPAC_INCHIKEY>
LPODCTBNSOWIAC-UHFFFAOYSA-N

> <PUBCHEM_XLOGP3_AA>
4

> <PUBCHEM_EXACT_MASS>
464.188212

> <PUBCHEM_MOLECULAR_FORMULA>
C25H28N4O3S

> <PUBCHEM_MOLECULAR_WEIGHT>
464.57982

> <PUBCHEM_OPENEYE_CAN_SMILES>
COC1=CC(=C(C=C1)OC)C2CCCN2C(=O)CSC3=NN=C(N3C4=CC=CC=C4)C5CC5

> <PUBCHEM_OPENEYE_ISO_SMILES>
COC1=CC(=C(C=C1)OC)C2CCCN2C(=O)CSC3=NN=C(N3C4=CC=CC=C4)C5CC5

> <PUBCHEM_CACTVS_TPSA>
94.8

> <PUBCHEM_MONOISOTOPIC_WEIGHT>
464.188212

> <PUBCHEM_TOTAL_CHARGE>
0

> <PUBCHEM_HEAVY_ATOM_COUNT>
33

> <PUBCHEM_ATOM_DEF_STEREO_COUNT>
0

> <PUBCHEM_ATOM_UDEF_STEREO_COUNT>
1

> <PUBCHEM_BOND_DEF_STEREO_COUNT>
0

> <PUBCHEM_BOND_UDEF_STEREO_COUNT>
0

> <PUBCHEM_ISOTOPIC_ATOM_COUNT>
0

> <PUBCHEM_COMPONENT_COUNT>
1

> <PUBCHEM_CACTVS_TAUTO_COUNT>
1

> <PUBCHEM_COORDINATE_TYPE>
1
5
255

> <PUBCHEM_BONDANNOTATIONS>
13  17  3
17  22  8
17  23  8
21  26  8
21  27  8
22  25  8
23  24  8
24  28  8
25  28  8
26  29  8
27  30  8
29  31  8
30  31  8
6  12  8
6  19  8
7  12  8
7  8  8
8  19  8

$$$$

