   Color/Form

     * Crystals from ethyl acetate
     * Fine white powder at 23 deg C

   from [1]HSDB

   Odor
        Odorless
   from [2]HSDB

   Melting Point
        233-235 deg C (effervescence)
   from [3]HSDB

   Density/Specific Gravity
        Bulk density = 600 mg/ml at 28 deg C
   from [4]HSDB

   Dissociation Constants
        pKa = 4.0
   from [5]HSDB

   Octanol/Water Partition Coefficient
        log Kow = 0.24
   from [6]HSDB

   pH
        pH = 4.0
   from [7]HSDB

   Solubilities

     * Slightly sol in ether; freely sol in ethanol, methanol, acetone;
       moderately sol in ethyl acetate; sol in aq soln of sodium
       bicarbonate, sodium acetate
     * Soluble in aqueous alkalis. Slightly soluble in diethyl ether and
       ethyl acetate. Insoluble in chloroform
     * Very soluble in acetone, ethanol, and methanol
     * In water, 5,000 mg/L at 25 deg C [Shiu WY et al; Rev Environ Contam
       Toxicol 116: 15-187 (1990)] [8]PubMed Abstract

   from [9]HSDB

   Spectral Properties

     * Specific optical rotation: +86 deg at 19 deg C/D (conc= 2.12 g in
       100 ml water)
     * IR: 2:363F (Aldrich Library of Infrared Spectra, Aldrich Chemical
       Co, Milwaukee, WI)
     * NMR: 3:76D (Aldrich Library of Mass Spectra, Aldrich Chemical Co,
       Milwaukee, WI)
     * MASS: 73678 (NIST/EPA/MSDC Mass Spectral Database, 1990 version)

   from [10]HSDB

   Vapor Pressure
        1.3X10-13 mm Hg at 25 deg C (est)
   from [11]HSDB

   Other Chemical/Physical Properties

     * PH OF 5% SOLN: 5.5-6.5; WHITE BULKY POWDER; 1 G DISSOLVES IN 20 ML
       WATER; SPECIFIC OPTICAL ROTATION: +43 DEG TO +60 DEG @ 25 DEG C/D
       (CONCN= 5G IN 100 ML WATER) /POTASSIUM GIBBERELLATE/
     * Very sol in water /sodium, potassium and ammonium salts
     * Slowly hydrolyzed by water and rapidly decomposed by heat or
       chlorine (for example in water).
     * Undergoes a rearrangement of alkali to less biologically-active
       compounds.
     * ... A tetracyclic dihydroxylactonic acid.
     * Needles from benzene and methanol, mp = 209-210 deg C. Specific
       optical rotation = +75 deg at 20 deg C/D ( c = 0.5 moles/L) /Methyl
       ester
     * Henry's Law constant = 1.6X10-15 atm-cu m/mol at 25 deg C (est)
     * Hydroxyl radical reaction rate constant = 1.3X10-10 cu
       cm/molecule-sec at 25 deg C (est)

   from [12]HSDB

   Computed Properties
   Molecular Weight                  346.37438 [g/mol]
   Molecular Formula                 C[19]H[22]O[6]
   XLogP3                            0.2
   H-Bond Donor                      3
   H-Bond Acceptor                   6
   Rotatable Bond Count              1
   Exact Mass                        346.141638
   MonoIsotopic Mass                 346.141638
   Topological Polar Surface Area    104
   Heavy Atom Count                  25
   Formal Charge                     0
   Complexity                        772
   Isotope Atom Count                0
   Defined Atom Stereocenter Count   7
   Undefined Atom Stereocenter Count 1
   Defined Bond Stereocenter Count   0
   Undefined Bond Stereocenter Count 0
   Covalently-Bonded Unit Count      1
   Feature 3D Acceptor Count         5
   Feature 3D Donor Count            2
   Feature 3D Anion Count            1
   Feature 3D Ring Count             3
   Effective Rotor Count             2.4
   Conformer Sampling RMSD           0.6
   CID Conformer Count               [13]2

References

   1. http://toxnet.nlm.nih.gov/cgi-bin/sis/search/r?dbs+hsdb:@term+@rn+@rel+77-06-5
   2. http://toxnet.nlm.nih.gov/cgi-bin/sis/search/r?dbs+hsdb:@term+@rn+@rel+77-06-5
   3. http://toxnet.nlm.nih.gov/cgi-bin/sis/search/r?dbs+hsdb:@term+@rn+@rel+77-06-5
   4. http://toxnet.nlm.nih.gov/cgi-bin/sis/search/r?dbs+hsdb:@term+@rn+@rel+77-06-5
   5. http://toxnet.nlm.nih.gov/cgi-bin/sis/search/r?dbs+hsdb:@term+@rn+@rel+77-06-5
   6. http://toxnet.nlm.nih.gov/cgi-bin/sis/search/r?dbs+hsdb:@term+@rn+@rel+77-06-5
   7. http://toxnet.nlm.nih.gov/cgi-bin/sis/search/r?dbs+hsdb:@term+@rn+@rel+77-06-5
   8. http://www.ncbi.nlm.nih.gov/entrez/query.fcgi?cmd=Retrieve&db=pubmed&dopt=Abstract&list_uids=2205893
   9. http://toxnet.nlm.nih.gov/cgi-bin/sis/search/r?dbs+hsdb:@term+@rn+@rel+77-06-5
  10. http://toxnet.nlm.nih.gov/cgi-bin/sis/search/r?dbs+hsdb:@term+@rn+@rel+77-06-5
  11. http://toxnet.nlm.nih.gov/cgi-bin/sis/search/r?dbs+hsdb:@term+@rn+@rel+77-06-5
  12. http://toxnet.nlm.nih.gov/cgi-bin/sis/search/r?dbs+hsdb:@term+@rn+@rel+77-06-5
  13. http://pubchem.ncbi.nlm.nih.gov/vw3d/vw3d.cgi?cid=439551
