10471123
  -OEChem-07051213102D

 41 43  0     1  0  0  0  0  0999 V2000
    5.9883   -2.2592    0.0000 O   0  0  0  0  0  0  0  0  0  0  0  0
    2.3100   -1.9545    0.0000 O   0  0  0  0  0  0  0  0  0  0  0  0
    2.4440   -0.4545    0.0000 O   0  0  0  0  0  0  0  0  0  0  0  0
    7.2774    0.5070    0.0000 O   0  0  0  0  0  0  0  0  0  0  0  0
    7.5719   -1.4545    0.0000 O   0  0  0  0  0  0  0  0  0  0  0  0
    6.9203    2.2018    0.0000 O   0  0  0  0  0  0  0  0  0  0  0  0
    5.0420   -0.9545    0.0000 C   0  0  1  0  0  0  0  0  0  0  0  0
    5.0420   -1.9545    0.0000 C   0  0  1  0  0  0  0  0  0  0  0  0
    5.9883   -0.6497    0.0000 C   0  0  2  0  0  0  0  0  0  0  0  0
    4.1760   -2.4545    0.0000 C   0  0  0  0  0  0  0  0  0  0  0  0
    4.1760   -0.4545    0.0000 C   0  0  0  0  0  0  0  0  0  0  0  0
    3.3100   -1.9545    0.0000 C   0  0  1  0  0  0  0  0  0  0  0  0
    3.3100   -0.9545    0.0000 C   0  0  0  0  0  0  0  0  0  0  0  0
    6.5719   -1.4545    0.0000 C   0  0  0  0  0  0  0  0  0  0  0  0
    6.2989    0.3008    0.0000 C   0  0  0  0  0  0  0  0  0  0  0  0
    2.8100   -2.8205    0.0000 C   0  0  0  0  0  0  0  0  0  0  0  0
    7.5881    1.4575    0.0000 C   0  0  0  0  0  0  0  0  0  0  0  0
    8.5666    1.6638    0.0000 C   0  0  0  0  0  0  0  0  0  0  0  0
    9.2344    0.9194    0.0000 C   0  0  0  0  0  0  0  0  0  0  0  0
    8.8773    2.6143    0.0000 C   0  0  0  0  0  0  0  0  0  0  0  0
   10.2130    1.1257    0.0000 C   0  0  0  0  0  0  0  0  0  0  0  0
    9.8558    2.8205    0.0000 C   0  0  0  0  0  0  0  0  0  0  0  0
   10.5236    2.0762    0.0000 C   0  0  0  0  0  0  0  0  0  0  0  0
    5.1320   -0.1092    0.0000 H   0  0  0  0  0  0  0  0  0  0  0  0
    5.1320   -2.7997    0.0000 H   0  0  0  0  0  0  0  0  0  0  0  0
    6.6008   -0.5535    0.0000 H   0  0  0  0  0  0  0  0  0  0  0  0
    3.7775   -2.9294    0.0000 H   0  0  0  0  0  0  0  0  0  0  0  0
    4.5746   -2.9294    0.0000 H   0  0  0  0  0  0  0  0  0  0  0  0
    4.5746    0.0205    0.0000 H   0  0  0  0  0  0  0  0  0  0  0  0
    3.7775    0.0205    0.0000 H   0  0  0  0  0  0  0  0  0  0  0  0
    6.2784    0.9204    0.0000 H   0  0  0  0  0  0  0  0  0  0  0  0
    5.6851    0.3881    0.0000 H   0  0  0  0  0  0  0  0  0  0  0  0
    2.2731   -2.5105    0.0000 H   0  0  0  0  0  0  0  0  0  0  0  0
    2.5000   -3.3574    0.0000 H   0  0  0  0  0  0  0  0  0  0  0  0
    3.3469   -3.1305    0.0000 H   0  0  0  0  0  0  0  0  0  0  0  0
    2.0000   -2.4914    0.0000 H   0  0  0  0  0  0  0  0  0  0  0  0
    9.0418    0.3301    0.0000 H   0  0  0  0  0  0  0  0  0  0  0  0
    8.4632    3.0757    0.0000 H   0  0  0  0  0  0  0  0  0  0  0  0
   10.6270    0.6642    0.0000 H   0  0  0  0  0  0  0  0  0  0  0  0
   10.0484    3.4098    0.0000 H   0  0  0  0  0  0  0  0  0  0  0  0
   11.1303    2.2040    0.0000 H   0  0  0  0  0  0  0  0  0  0  0  0
  1  8  1  0  0  0  0
  1 14  1  0  0  0  0
 12  2  1  6  0  0  0
  2 36  1  0  0  0  0
  3 13  2  0  0  0  0
  4 15  1  0  0  0  0
  4 17  1  0  0  0  0
  5 14  2  0  0  0  0
  6 17  2  0  0  0  0
  7  8  1  0  0  0  0
  7  9  1  0  0  0  0
  7 11  1  0  0  0  0
  7 24  1  1  0  0  0
  8 10  1  0  0  0  0
  8 25  1  1  0  0  0
  9 14  1  0  0  0  0
  9 15  1  1  0  0  0
  9 26  1  0  0  0  0
 10 12  1  0  0  0  0
 10 27  1  0  0  0  0
 10 28  1  0  0  0  0
 11 13  1  0  0  0  0
 11 29  1  0  0  0  0
 11 30  1  0  0  0  0
 12 13  1  0  0  0  0
 12 16  1  0  0  0  0
 15 31  1  0  0  0  0
 15 32  1  0  0  0  0
 16 33  1  0  0  0  0
 16 34  1  0  0  0  0
 16 35  1  0  0  0  0
 17 18  1  0  0  0  0
 18 19  2  0  0  0  0
 18 20  1  0  0  0  0
 19 21  1  0  0  0  0
 19 37  1  0  0  0  0
 20 22  2  0  0  0  0
 20 38  1  0  0  0  0
 21 23  2  0  0  0  0
 21 39  1  0  0  0  0
 22 23  1  0  0  0  0
 22 40  1  0  0  0  0
 23 41  1  0  0  0  0
M  END
> <PUBCHEM_COMPOUND_CID>
10471123

> <PUBCHEM_COMPOUND_CANONICALIZED>
1

> <PUBCHEM_CACTVS_COMPLEXITY>
509

> <PUBCHEM_CACTVS_HBOND_ACCEPTOR>
6

> <PUBCHEM_CACTVS_HBOND_DONOR>
1

> <PUBCHEM_CACTVS_ROTATABLE_BOND>
4

> <PUBCHEM_CACTVS_SUBSKEYS>
AAADceB4OAAAAAAAAAAAAAAAAAAAASAAAAAwYAAAAAAAAEgBAAAAGgAACAAADVSgmAIyCIAABgCIAqDSCAICAAAkAAAIiAFACMgIJjaANRiCcQAl4AEIqYfK7vyugAAAAAAAAADAAAIQABAAAAAAAAAAAA==

> <PUBCHEM_IUPAC_OPENEYE_NAME>
[(3S,3aR,6S,7aR)-6-hydroxy-6-methyl-2,5-dioxo-3a,4,7,7a-tetrahydro-3H-benzofuran-3-yl]methyl benzoate

> <PUBCHEM_IUPAC_CAS_NAME>
benzoic acid [(3S,3aR,6S,7aR)-6-hydroxy-6-methyl-2,5-dioxo-3a,4,7,7a-tetrahydro-3H-benzofuran-3-yl]methyl ester

> <PUBCHEM_IUPAC_NAME>
[(3S,3aR,6S,7aR)-6-hydroxy-6-methyl-2,5-dioxo-3a,4,7,7a-tetrahydro-3H-1-benzofuran-3-yl]methyl benzoate

> <PUBCHEM_IUPAC_SYSTEMATIC_NAME>
[(3S,3aR,6S,7aR)-6-methyl-6-oxidanyl-2,5-bis(oxidanylidene)-3a,4,7,7a-tetrahydro-3H-1-benzofuran-3-yl]methyl benzoate

> <PUBCHEM_IUPAC_TRADITIONAL_NAME>
benzoic acid [(3S,3aR,6S,7aR)-6-hydroxy-2,5-diketo-6-methyl-3a,4,7,7a-tetrahydro-3H-benzofuran-3-yl]methyl ester

> <PUBCHEM_IUPAC_INCHI>
InChI=1S/C17H18O6/c1-17(21)8-13-11(7-14(17)18)12(16(20)23-13)9-22-15(19)10-5-3-2-4-6-10/h2-6,11-13,21H,7-9H2,1H3/t11-,12-,13-,17+/m1/s1

> <PUBCHEM_IUPAC_INCHIKEY>
BDKBBWGLLDEQEV-ZFRZLUBXSA-N

> <PUBCHEM_XLOGP3_AA>
1.2

> <PUBCHEM_EXACT_MASS>
318.110338

> <PUBCHEM_MOLECULAR_FORMULA>
C17H18O6

> <PUBCHEM_MOLECULAR_WEIGHT>
318.32122

> <PUBCHEM_OPENEYE_CAN_SMILES>
CC1(CC2C(CC1=O)C(C(=O)O2)COC(=O)C3=CC=CC=C3)O

> <PUBCHEM_OPENEYE_ISO_SMILES>
C[C@@]1(C[C@@H]2[C@H](CC1=O)[C@H](C(=O)O2)COC(=O)C3=CC=CC=C3)O

> <PUBCHEM_CACTVS_TPSA>
89.9

> <PUBCHEM_MONOISOTOPIC_WEIGHT>
318.110338

> <PUBCHEM_TOTAL_CHARGE>
0

> <PUBCHEM_HEAVY_ATOM_COUNT>
23

> <PUBCHEM_ATOM_DEF_STEREO_COUNT>
4

> <PUBCHEM_ATOM_UDEF_STEREO_COUNT>
0

> <PUBCHEM_BOND_DEF_STEREO_COUNT>
0

> <PUBCHEM_BOND_UDEF_STEREO_COUNT>
0

> <PUBCHEM_ISOTOPIC_ATOM_COUNT>
0

> <PUBCHEM_COMPONENT_COUNT>
1

> <PUBCHEM_CACTVS_TAUTO_COUNT>
4

> <PUBCHEM_COORDINATE_TYPE>
1
5
255

> <PUBCHEM_BONDANNOTATIONS>
18  19  8
18  20  8
19  21  8
12  2  6
20  22  8
21  23  8
22  23  8
7  24  5
8  25  5
9  15  5

$$$$

