   Color/Form

     * CRYSTALS
     * Fine, white, crystalline powder

   from [1]HSDB

   Taste
        SLIGHTLY BITTER
   from [2]HSDB

   Melting Point
        140-141.5 DEG C
   from [3]HSDB

   Dissociation Constants
        pKa 7.99
   from [4]HSDB

   pH
        A SATURATED AQUEOUS SOLN IS ACID TO LITMUS
   from [5]HSDB

   Solubilities

     * ALMOST INSOL IN WATER, PETROLEUM ETHER, ALIPHATIC HYDROCARBONS; SOL
       IN ALC, CHLOROFORM, ETHER, ACETONE, BENZENE, GLACIAL ACETIC ACID,
       FIXED ALKALI HYDROXIDE SOLN.
     * Lipid solubility is low.

   from [6]HSDB

   Spectral Properties

     * SADTLER REFERENCE NUMBER: R50
     * INDEX OF REFRACTION ALPHA: 1.520; BETA: 1.581; GAMMA: 1.600
     * MAX ABSORPTION (PH 9.4 BORATE BUFFER): 240 NM (A= 440, 1%, 1 CM)
     * IR: 5192 (Coblentz Society Spectral Collection)
     * UV: 5-235 (Organic Electronic Spectral Data, Phillips et al, John
       Wiley & Sons, New York)
     * MASS: 2-582 (Archives of Mass Spectral Data, John Wiley & Sons, New
       York)
     * MASS: 1311 (National Bureau of Standards EPA-NIH Mass Spectra Data
       Base, NSRDS-NBS-63)
     * Intense mass spectral peaks: 124 m/z, 167 m/z, 195 m/z, 210 m/z

   from [7]HSDB

   Other Chemical/Physical Properties

     * POWDER; HYGROSCOPIC; SLIGHTLY BITTER TASTE; VERY SOL IN WATER;
       SLIGHTLY SOL IN ALC; PRACTICALLY INSOL IN ETHER; AQ SOLN ARE
       ALKALINE TO LITMUS /APROBARBITAL SODIUM SALT/
     * OPTIC SIGN: -; EXTINCTION: INCLINED

   from [8]HSDB

   Computed Properties
   Molecular Weight                  210.22976 [g/mol]
   Molecular Formula                 C[10]H[14]N[2]O[3]
   XLogP3                            1.1
   H-Bond Donor                      2
   H-Bond Acceptor                   3
   Rotatable Bond Count              3
   Tautomer Count                    5
   Exact Mass                        210.100442
   MonoIsotopic Mass                 210.100442
   Topological Polar Surface Area    75.3
   Heavy Atom Count                  15
   Formal Charge                     0
   Complexity                        314
   Isotope Atom Count                0
   Defined Atom Stereocenter Count   0
   Undefined Atom Stereocenter Count 0
   Defined Bond Stereocenter Count   0
   Undefined Bond Stereocenter Count 0
   Covalently-Bonded Unit Count      1
   Feature 3D Acceptor Count         3
   Feature 3D Donor Count            2
   Feature 3D Hydrophobe Count       2
   Feature 3D Ring Count             1
   Effective Rotor Count             3.6
   Conformer Sampling RMSD           0.6
   CID Conformer Count               [9]9

References

   1. http://toxnet.nlm.nih.gov/cgi-bin/sis/search/r?dbs+hsdb:@term+@rn+@rel+77-02-1
   2. http://toxnet.nlm.nih.gov/cgi-bin/sis/search/r?dbs+hsdb:@term+@rn+@rel+77-02-1
   3. http://toxnet.nlm.nih.gov/cgi-bin/sis/search/r?dbs+hsdb:@term+@rn+@rel+77-02-1
   4. http://toxnet.nlm.nih.gov/cgi-bin/sis/search/r?dbs+hsdb:@term+@rn+@rel+77-02-1
   5. http://toxnet.nlm.nih.gov/cgi-bin/sis/search/r?dbs+hsdb:@term+@rn+@rel+77-02-1
   6. http://toxnet.nlm.nih.gov/cgi-bin/sis/search/r?dbs+hsdb:@term+@rn+@rel+77-02-1
   7. http://toxnet.nlm.nih.gov/cgi-bin/sis/search/r?dbs+hsdb:@term+@rn+@rel+77-02-1
   8. http://toxnet.nlm.nih.gov/cgi-bin/sis/search/r?dbs+hsdb:@term+@rn+@rel+77-02-1
   9. http://pubchem.ncbi.nlm.nih.gov/vw3d/vw3d.cgi?cid=6464
