   Color/Form
        Yellow crystals
   from [1]HSDB

   Odor
        Faint characteristic odor
   from [2]HSDB

   Boiling Point
        140-142 deg C at 0.01 mm Hg
   from [3]HSDB

   Melting Point
        53-54 deg C
   from [4]HSDB

   Corrosivity
        Non-corrosive
   from [5]HSDB

   Octanol/Water Partition Coefficient
        log Kow= 5.21
   from [6]HSDB

   Solubilities

     * Sol on most organic solvents such as diethyl ether; slightly sol in
       low molecular weight alcohols.
     * Water solubility: 40 mg/l at 25 deg C
     * Soluble in carbon tetrachloride, ether, and toluene.
     * In acetone 1090, dichloromethane 1120, xylene 900, methanol 100
       (all in g/l at 20 deg C).
     * In water, 0.65 mg/l @ 20 deg C

   from [7]HSDB

   Spectral Properties

     * Intense mass spectral peaks: 331 mz (100%), 125 mz (79%), 329 mz
       (75%), 49 mz (42%)
     * Intense mass spectral peaks: 125 mz, 211 mz, 329 mz, 364 mz

   from [8]HSDB

   Vapor Pressure
        1.3X10-4 mm Hg @ 20 deg C
   from [9]HSDB

   Computed Properties
   Molecular Weight                  365.996082 [g/mol]
   Molecular Formula                 C[8]H[8]BrCl[2]O[3]PS
   XLogP3                            5.2
   H-Bond Donor                      0
   H-Bond Acceptor                   4
   Rotatable Bond Count              4
   Exact Mass                        363.849219
   MonoIsotopic Mass                 363.849219
   Topological Polar Surface Area    59.8
   Heavy Atom Count                  16
   Formal Charge                     0
   Complexity                        276
   Isotope Atom Count                0
   Defined Atom Stereocenter Count   0
   Undefined Atom Stereocenter Count 0
   Defined Bond Stereocenter Count   0
   Undefined Bond Stereocenter Count 0
   Covalently-Bonded Unit Count      1
   Feature 3D Hydrophobe Count       1
   Feature 3D Ring Count             1
   Effective Rotor Count             4
   Conformer Sampling RMSD           0.6
   CID Conformer Count               [10]29

References

   1. http://toxnet.nlm.nih.gov/cgi-bin/sis/search/r?dbs+hsdb:@term+@rn+@rel+2104-96-3
   2. http://toxnet.nlm.nih.gov/cgi-bin/sis/search/r?dbs+hsdb:@term+@rn+@rel+2104-96-3
   3. http://toxnet.nlm.nih.gov/cgi-bin/sis/search/r?dbs+hsdb:@term+@rn+@rel+2104-96-3
   4. http://toxnet.nlm.nih.gov/cgi-bin/sis/search/r?dbs+hsdb:@term+@rn+@rel+2104-96-3
   5. http://toxnet.nlm.nih.gov/cgi-bin/sis/search/r?dbs+hsdb:@term+@rn+@rel+2104-96-3
   6. http://toxnet.nlm.nih.gov/cgi-bin/sis/search/r?dbs+hsdb:@term+@rn+@rel+2104-96-3
   7. http://toxnet.nlm.nih.gov/cgi-bin/sis/search/r?dbs+hsdb:@term+@rn+@rel+2104-96-3
   8. http://toxnet.nlm.nih.gov/cgi-bin/sis/search/r?dbs+hsdb:@term+@rn+@rel+2104-96-3
   9. http://toxnet.nlm.nih.gov/cgi-bin/sis/search/r?dbs+hsdb:@term+@rn+@rel+2104-96-3
  10. http://pubchem.ncbi.nlm.nih.gov/vw3d/vw3d.cgi?cid=16422
