   Color/Form

     * White solid
     * Hexagonal prisms.

   from [1]HSDB

   Boiling Point
        260 DEG C
   from [2]HSDB

   Melting Point
        58 DEG C
   from [3]HSDB

   Density/Specific Gravity
        2.951 @ 15 DEG C (SOLID); 2.609 @ 15 DEG C (LIQUID)
   from [4]HSDB

   Dissociation Constants
        K1 = 2
   from [5]HSDB

   Solubilities

     * 1300 G SOL IN 100 ML WATER @ 30 DEG C
     * SOL IN SULFURIC ACID; INSOL IN AMMONIA

   from [6]HSDB

   Other Chemical/Physical Properties

     * DECOMP IN ALCOHOL; REDUCED BY HYDROBROMIC ACID, HYDRIODIC ACID,
       HYDROGEN SULFIDE, HYDROXYLAMINE HYDROCHLORIDE, PHENYLHYDRAZINE,
       FORMIC ACID, OXALIC ACID, MALONIC ACID, PYRUVIC ACID, ACETYL
       CHLORIDE, & SEVERAL METALS; VERY DELIQUESCENT
     * HYGROSCOPIC

   from [7]HSDB

   Computed Properties
   Molecular Weight                  144.97348 [g/mol]
   Molecular Formula                 H[2]O[4]Se
   H-Bond Donor                      2
   H-Bond Acceptor                   4
   Rotatable Bond Count              0
   Exact Mass                        145.91183
   MonoIsotopic Mass                 145.91183
   Topological Polar Surface Area    74.6
   Heavy Atom Count                  5
   Formal Charge                     0
   Complexity                        81.3
   Isotope Atom Count                0
   Defined Atom Stereocenter Count   0
   Undefined Atom Stereocenter Count 0
   Defined Bond Stereocenter Count   0
   Undefined Bond Stereocenter Count 0
   Covalently-Bonded Unit Count      1

References

   1. http://toxnet.nlm.nih.gov/cgi-bin/sis/search/r?dbs+hsdb:@term+@rn+@rel+7783-08-6
   2. http://toxnet.nlm.nih.gov/cgi-bin/sis/search/r?dbs+hsdb:@term+@rn+@rel+7783-08-6
   3. http://toxnet.nlm.nih.gov/cgi-bin/sis/search/r?dbs+hsdb:@term+@rn+@rel+7783-08-6
   4. http://toxnet.nlm.nih.gov/cgi-bin/sis/search/r?dbs+hsdb:@term+@rn+@rel+7783-08-6
   5. http://toxnet.nlm.nih.gov/cgi-bin/sis/search/r?dbs+hsdb:@term+@rn+@rel+7783-08-6
   6. http://toxnet.nlm.nih.gov/cgi-bin/sis/search/r?dbs+hsdb:@term+@rn+@rel+7783-08-6
   7. http://toxnet.nlm.nih.gov/cgi-bin/sis/search/r?dbs+hsdb:@term+@rn+@rel+7783-08-6
