17395763
  -OEChem-06241222522D

 31 32  0     0  0  0  0  0  0999 V2000
    7.1962    1.0000    0.0000 O   0  0  0  0  0  0  0  0  0  0  0  0
    7.1962   -2.0000    0.0000 O   0  0  0  0  0  0  0  0  0  0  0  0
    5.4641    2.0000    0.0000 O   0  0  0  0  0  0  0  0  0  0  0  0
    4.5981    0.5000    0.0000 N   0  0  0  0  0  0  0  0  0  0  0  0
    8.0622   -0.5000    0.0000 C   0  0  0  0  0  0  0  0  0  0  0  0
    8.0622    0.5000    0.0000 C   0  0  0  0  0  0  0  0  0  0  0  0
    9.8622   -0.5208    0.0000 C   0  0  0  0  0  0  0  0  0  0  0  0
    8.9561   -1.0347    0.0000 C   0  0  0  0  0  0  0  0  0  0  0  0
    7.1962   -1.0000    0.0000 C   0  0  0  0  0  0  0  0  0  0  0  0
    8.9561    1.0347    0.0000 C   0  0  0  0  0  0  0  0  0  0  0  0
    6.3301    0.5000    0.0000 C   0  0  0  0  0  0  0  0  0  0  0  0
    9.8622    0.5208    0.0000 C   0  0  0  0  0  0  0  0  0  0  0  0
    6.3301   -0.5000    0.0000 C   0  0  0  0  0  0  0  0  0  0  0  0
   10.7263   -1.0241    0.0000 C   0  0  0  0  0  0  0  0  0  0  0  0
    5.4641    1.0000    0.0000 C   0  0  0  0  0  0  0  0  0  0  0  0
    3.7320    1.0000    0.0000 C   0  0  0  0  0  0  0  0  0  0  0  0
    2.8660    0.5000    0.0000 C   0  0  0  0  0  0  0  0  0  0  0  0
    2.0000    1.0000    0.0000 C   0  0  0  0  0  0  0  0  0  0  0  0
    8.9490   -1.6546    0.0000 H   0  0  0  0  0  0  0  0  0  0  0  0
    8.9490    1.6546    0.0000 H   0  0  0  0  0  0  0  0  0  0  0  0
   10.3979    0.8329    0.0000 H   0  0  0  0  0  0  0  0  0  0  0  0
    5.7932   -0.8100    0.0000 H   0  0  0  0  0  0  0  0  0  0  0  0
   10.4142   -1.5599    0.0000 H   0  0  0  0  0  0  0  0  0  0  0  0
   11.2620   -1.3362    0.0000 H   0  0  0  0  0  0  0  0  0  0  0  0
   11.0383   -0.4884    0.0000 H   0  0  0  0  0  0  0  0  0  0  0  0
    4.5981   -0.1200    0.0000 H   0  0  0  0  0  0  0  0  0  0  0  0
    4.1306    1.4750    0.0000 H   0  0  0  0  0  0  0  0  0  0  0  0
    3.3335    1.4750    0.0000 H   0  0  0  0  0  0  0  0  0  0  0  0
    2.8660   -0.1200    0.0000 H   0  0  0  0  0  0  0  0  0  0  0  0
    2.0000    1.6200    0.0000 H   0  0  0  0  0  0  0  0  0  0  0  0
    1.4631    0.6900    0.0000 H   0  0  0  0  0  0  0  0  0  0  0  0
  1  6  1  0  0  0  0
  1 11  1  0  0  0  0
  2  9  2  0  0  0  0
  3 15  2  0  0  0  0
  4 15  1  0  0  0  0
  4 16  1  0  0  0  0
  4 26  1  0  0  0  0
  5  6  2  0  0  0  0
  5  8  1  0  0  0  0
  5  9  1  0  0  0  0
  6 10  1  0  0  0  0
  7  8  2  0  0  0  0
  7 12  1  0  0  0  0
  7 14  1  0  0  0  0
  8 19  1  0  0  0  0
  9 13  1  0  0  0  0
 10 12  2  0  0  0  0
 10 20  1  0  0  0  0
 11 13  2  0  0  0  0
 11 15  1  0  0  0  0
 12 21  1  0  0  0  0
 13 22  1  0  0  0  0
 14 23  1  0  0  0  0
 14 24  1  0  0  0  0
 14 25  1  0  0  0  0
 16 17  1  0  0  0  0
 16 27  1  0  0  0  0
 16 28  1  0  0  0  0
 17 18  2  0  0  0  0
 17 29  1  0  0  0  0
 18 30  1  0  0  0  0
 18 31  1  0  0  0  0
M  END
> <PUBCHEM_COMPOUND_CID>
17395763

> <PUBCHEM_COMPOUND_CANONICALIZED>
1

> <PUBCHEM_CACTVS_COMPLEXITY>
400

> <PUBCHEM_CACTVS_HBOND_ACCEPTOR>
3

> <PUBCHEM_CACTVS_HBOND_DONOR>
1

> <PUBCHEM_CACTVS_ROTATABLE_BOND>
3

> <PUBCHEM_CACTVS_SUBSKEYS>
AAADccByMAAAAAAAAAAAAAAAAAAAAAAAAAAwQAAAAAAAAACBAAAAHgAQAAAADATBmAQyBoLABACIAqFSEAKCCAAkIAAIiIFOCMgOJjaENR6DOWCk9hGYqYeIyOCOIAACAAAIAABAAAQAABAAAAAAAAAAAA==

> <PUBCHEM_IUPAC_OPENEYE_NAME>
N-allyl-6-methyl-4-oxo-chromene-2-carboxamide

> <PUBCHEM_IUPAC_CAS_NAME>
6-methyl-4-oxo-N-prop-2-enyl-1-benzopyran-2-carboxamide

> <PUBCHEM_IUPAC_NAME>
6-methyl-4-oxo-N-prop-2-enylchromene-2-carboxamide

> <PUBCHEM_IUPAC_SYSTEMATIC_NAME>
6-methyl-4-oxidanylidene-N-prop-2-enyl-chromene-2-carboxamide

> <PUBCHEM_IUPAC_TRADITIONAL_NAME>
N-allyl-4-keto-6-methyl-chromene-2-carboxamide

> <PUBCHEM_IUPAC_INCHI>
InChI=1S/C14H13NO3/c1-3-6-15-14(17)13-8-11(16)10-7-9(2)4-5-12(10)18-13/h3-5,7-8H,1,6H2,2H3,(H,15,17)

> <PUBCHEM_IUPAC_INCHIKEY>
WTBSJGJFBURMKZ-UHFFFAOYSA-N

> <PUBCHEM_XLOGP3>
2.4

> <PUBCHEM_EXACT_MASS>
243.089543

> <PUBCHEM_MOLECULAR_FORMULA>
C14H13NO3

> <PUBCHEM_MOLECULAR_WEIGHT>
243.25792

> <PUBCHEM_OPENEYE_CAN_SMILES>
CC1=CC2=C(C=C1)OC(=CC2=O)C(=O)NCC=C

> <PUBCHEM_OPENEYE_ISO_SMILES>
CC1=CC2=C(C=C1)OC(=CC2=O)C(=O)NCC=C

> <PUBCHEM_CACTVS_TPSA>
55.4

> <PUBCHEM_MONOISOTOPIC_WEIGHT>
243.089543

> <PUBCHEM_TOTAL_CHARGE>
0

> <PUBCHEM_HEAVY_ATOM_COUNT>
18

> <PUBCHEM_ATOM_DEF_STEREO_COUNT>
0

> <PUBCHEM_ATOM_UDEF_STEREO_COUNT>
0

> <PUBCHEM_BOND_DEF_STEREO_COUNT>
0

> <PUBCHEM_BOND_UDEF_STEREO_COUNT>
0

> <PUBCHEM_ISOTOPIC_ATOM_COUNT>
0

> <PUBCHEM_COMPONENT_COUNT>
1

> <PUBCHEM_CACTVS_TAUTO_COUNT>
2

> <PUBCHEM_COORDINATE_TYPE>
1
5
255

> <PUBCHEM_BONDANNOTATIONS>
1  11  8
1  6  8
10  12  8
11  13  8
5  6  8
5  8  8
5  9  8
6  10  8
7  12  8
7  8  8
9  13  8

$$$$

