148302
  -OEChem-07051213002D

 44 46  0     1  0  0  0  0  0999 V2000
    6.4783   -0.7824    0.0000 O   0  0  0  0  0  0  0  0  0  0  0  0
    9.0619    0.0223    0.0000 O   0  0  0  0  0  0  0  0  0  0  0  0
    4.6660    2.0223    0.0000 O   0  0  0  0  0  0  0  0  0  0  0  0
    2.9176   -2.0123    0.0000 O   0  0  0  0  0  0  0  0  0  0  0  0
    4.6660   -0.9777    0.0000 N   0  3  0  0  0  0  0  0  0  0  0  0
    7.0619    0.0223    0.0000 C   0  0  2  0  0  0  0  0  0  0  0  0
    6.4783    0.8270    0.0000 C   0  0  0  0  0  0  0  0  0  0  0  0
    8.0619    0.0223    0.0000 C   0  0  0  0  0  0  0  0  0  0  0  0
    5.5321    0.5223    0.0000 C   0  0  0  0  0  0  0  0  0  0  0  0
    5.5321   -0.4777    0.0000 C   0  0  0  0  0  0  0  0  0  0  0  0
    4.6660    1.0223    0.0000 C   0  0  0  0  0  0  0  0  0  0  0  0
    8.0619    1.0223    0.0000 C   0  0  0  0  0  0  0  0  0  0  0  0
    8.0619   -0.9777    0.0000 C   0  0  0  0  0  0  0  0  0  0  0  0
    3.8000   -0.4777    0.0000 C   0  0  0  0  0  0  0  0  0  0  0  0
    3.8000    0.5223    0.0000 C   0  0  0  0  0  0  0  0  0  0  0  0
    4.6660   -1.9777    0.0000 C   0  0  0  0  0  0  0  0  0  0  0  0
    2.9061   -1.0124    0.0000 C   0  0  0  0  0  0  0  0  0  0  0  0
    2.9061    1.0570    0.0000 C   0  0  0  0  0  0  0  0  0  0  0  0
    2.0000   -0.4985    0.0000 C   0  0  0  0  0  0  0  0  0  0  0  0
    2.0000    0.5431    0.0000 C   0  0  0  0  0  0  0  0  0  0  0  0
    5.5321    2.5223    0.0000 C   0  0  0  0  0  0  0  0  0  0  0  0
    2.0574   -2.5223    0.0000 C   0  0  0  0  0  0  0  0  0  0  0  0
    7.4481   -0.7349    0.0000 H   0  0  0  0  0  0  0  0  0  0  0  0
    7.0157    1.1362    0.0000 H   0  0  0  0  0  0  0  0  0  0  0  0
    6.2272    1.3939    0.0000 H   0  0  0  0  0  0  0  0  0  0  0  0
    7.4419   -0.9777    0.0000 H   0  0  0  0  0  0  0  0  0  0  0  0
    8.6819    1.0223    0.0000 H   0  0  0  0  0  0  0  0  0  0  0  0
    8.0619    1.6423    0.0000 H   0  0  0  0  0  0  0  0  0  0  0  0
    7.4419    1.0223    0.0000 H   0  0  0  0  0  0  0  0  0  0  0  0
    8.0619   -1.5977    0.0000 H   0  0  0  0  0  0  0  0  0  0  0  0
    8.6819   -0.9777    0.0000 H   0  0  0  0  0  0  0  0  0  0  0  0
    9.3719   -0.5146    0.0000 H   0  0  0  0  0  0  0  0  0  0  0  0
    4.0460   -1.9777    0.0000 H   0  0  0  0  0  0  0  0  0  0  0  0
    4.6660   -2.5977    0.0000 H   0  0  0  0  0  0  0  0  0  0  0  0
    5.2860   -1.9777    0.0000 H   0  0  0  0  0  0  0  0  0  0  0  0
    2.9132    1.6769    0.0000 H   0  0  0  0  0  0  0  0  0  0  0  0
    1.4643   -0.8106    0.0000 H   0  0  0  0  0  0  0  0  0  0  0  0
    1.4643    0.8552    0.0000 H   0  0  0  0  0  0  0  0  0  0  0  0
    5.8421    1.9854    0.0000 H   0  0  0  0  0  0  0  0  0  0  0  0
    6.0690    2.8323    0.0000 H   0  0  0  0  0  0  0  0  0  0  0  0
    5.2221    3.0592    0.0000 H   0  0  0  0  0  0  0  0  0  0  0  0
    1.7413   -1.9890    0.0000 H   0  0  0  0  0  0  0  0  0  0  0  0
    1.5241   -2.8385    0.0000 H   0  0  0  0  0  0  0  0  0  0  0  0
    2.3736   -3.0556    0.0000 H   0  0  0  0  0  0  0  0  0  0  0  0
  1  6  1  0  0  0  0
  1 10  1  0  0  0  0
  2  8  1  0  0  0  0
  2 32  1  0  0  0  0
  3 11  1  0  0  0  0
  3 21  1  0  0  0  0
  4 17  1  0  0  0  0
  4 22  1  0  0  0  0
  5 10  2  0  0  0  0
  5 14  1  0  0  0  0
  5 16  1  0  0  0  0
  6  7  1  0  0  0  0
  6  8  1  0  0  0  0
  6 23  1  1  0  0  0
  7  9  1  0  0  0  0
  7 24  1  0  0  0  0
  7 25  1  0  0  0  0
  8 12  1  0  0  0  0
  8 13  1  0  0  0  0
  9 10  1  0  0  0  0
  9 11  2  0  0  0  0
 11 15  1  0  0  0  0
 12 27  1  0  0  0  0
 12 28  1  0  0  0  0
 12 29  1  0  0  0  0
 13 26  1  0  0  0  0
 13 30  1  0  0  0  0
 13 31  1  0  0  0  0
 14 15  2  0  0  0  0
 14 17  1  0  0  0  0
 15 18  1  0  0  0  0
 16 33  1  0  0  0  0
 16 34  1  0  0  0  0
 16 35  1  0  0  0  0
 17 19  2  0  0  0  0
 18 20  2  0  0  0  0
 18 36  1  0  0  0  0
 19 20  1  0  0  0  0
 19 37  1  0  0  0  0
 20 38  1  0  0  0  0
 21 39  1  0  0  0  0
 21 40  1  0  0  0  0
 21 41  1  0  0  0  0
 22 42  1  0  0  0  0
 22 43  1  0  0  0  0
 22 44  1  0  0  0  0
M  CHG  1   5   1
M  END
> <PUBCHEM_COMPOUND_CID>
148302

> <PUBCHEM_COMPOUND_CANONICALIZED>
1

> <PUBCHEM_CACTVS_COMPLEXITY>
402

> <PUBCHEM_CACTVS_HBOND_ACCEPTOR>
4

> <PUBCHEM_CACTVS_HBOND_DONOR>
1

> <PUBCHEM_CACTVS_ROTATABLE_BOND>
3

> <PUBCHEM_CACTVS_SUBSKEYS>
AAADceB6OAAAAAAAAAAAAAAAAAAAASAAAAA8QAAAAAAAAFix8AAAHgAACAAADFyhngYyxvMMFgCgAyRiRASCiCAhYCAI2CAvTJgPJ+LEsZuPeCjnwB3b6Afw8P8OAAABAAACEAAAAAIAAAQgAAAAAAAAAA==

> <PUBCHEM_IUPAC_OPENEYE_NAME>
2-[(2R)-4,8-dimethoxy-9-methyl-2,3-dihydrofuro[2,3-b]quinolin-9-ium-2-yl]propan-2-ol

> <PUBCHEM_IUPAC_CAS_NAME>
2-[(2R)-4,8-dimethoxy-9-methyl-2,3-dihydrofuro[2,3-b]quinolin-9-ium-2-yl]-2-propanol

> <PUBCHEM_IUPAC_NAME>
2-[(2R)-4,8-dimethoxy-9-methyl-2,3-dihydrofuro[2,3-b]quinolin-9-ium-2-yl]propan-2-ol

> <PUBCHEM_IUPAC_SYSTEMATIC_NAME>
2-[(2R)-4,8-dimethoxy-9-methyl-2,3-dihydrofuro[2,3-b]quinolin-9-ium-2-yl]propan-2-ol

> <PUBCHEM_IUPAC_TRADITIONAL_NAME>
2-[(2R)-4,8-dimethoxy-9-methyl-2,3-dihydrofuro[2,3-b]quinolin-9-ium-2-yl]propan-2-ol

> <PUBCHEM_IUPAC_INCHI>
InChI=1S/C17H22NO4/c1-17(2,19)13-9-11-15(21-5)10-7-6-8-12(20-4)14(10)18(3)16(11)22-13/h6-8,13,19H,9H2,1-5H3/q+1/t13-/m1/s1

> <PUBCHEM_IUPAC_INCHIKEY>
OQZCPLGYHZLFBM-CYBMUJFWSA-N

> <PUBCHEM_XLOGP3_AA>
2.6

> <PUBCHEM_EXACT_MASS>
304.154883

> <PUBCHEM_MOLECULAR_FORMULA>
C17H22NO4+

> <PUBCHEM_MOLECULAR_WEIGHT>
304.36088

> <PUBCHEM_OPENEYE_CAN_SMILES>
CC(C)(C1CC2=C(C3=C(C(=CC=C3)OC)[N+](=C2O1)C)OC)O

> <PUBCHEM_OPENEYE_ISO_SMILES>
CC(C)([C@H]1CC2=C(C3=C(C(=CC=C3)OC)[N+](=C2O1)C)OC)O

> <PUBCHEM_CACTVS_TPSA>
51.8

> <PUBCHEM_MONOISOTOPIC_WEIGHT>
304.154883

> <PUBCHEM_TOTAL_CHARGE>
1

> <PUBCHEM_HEAVY_ATOM_COUNT>
22

> <PUBCHEM_ATOM_DEF_STEREO_COUNT>
1

> <PUBCHEM_ATOM_UDEF_STEREO_COUNT>
0

> <PUBCHEM_BOND_DEF_STEREO_COUNT>
0

> <PUBCHEM_BOND_UDEF_STEREO_COUNT>
0

> <PUBCHEM_ISOTOPIC_ATOM_COUNT>
0

> <PUBCHEM_COMPONENT_COUNT>
1

> <PUBCHEM_CACTVS_TAUTO_COUNT>
1

> <PUBCHEM_COORDINATE_TYPE>
1
5
255

> <PUBCHEM_BONDANNOTATIONS>
11  15  8
14  15  8
14  17  8
15  18  8
17  19  8
18  20  8
19  20  8
5  10  8
5  14  8
6  23  5
9  10  8
9  11  8

$$$$

