11988267
  -OEChem-07051212472D

 59 62  0     1  0  0  0  0  0999 V2000
   10.2192    4.8596    0.0000 P   0  0  0  0  0  0  0  0  0  0  0  0
    3.4151   -5.2929    0.0000 P   0  0  0  0  0  0  0  0  0  0  0  0
    9.5744    1.4064    0.0000 O   0  0  0  0  0  0  0  0  0  0  0  0
    6.2013   -3.1534    0.0000 O   0  0  0  0  0  0  0  0  0  0  0  0
   11.9204    0.3146    0.0000 O   0  0  0  0  0  0  0  0  0  0  0  0
   11.9241    2.4902    0.0000 O   0  0  0  0  0  0  0  0  0  0  0  0
    5.1844   -0.7739    0.0000 O   0  0  0  0  0  0  0  0  0  0  0  0
    3.7286   -2.3907    0.0000 O   0  0  0  0  0  0  0  0  0  0  0  0
   10.5266    3.9080    0.0000 O   0  0  0  0  0  0  0  0  0  0  0  0
    3.8219   -4.3793    0.0000 O   0  0  0  0  0  0  0  0  0  0  0  0
    9.9119    5.8112    0.0000 O   0  0  0  0  0  0  0  0  0  0  0  0
   11.1708    5.1670    0.0000 O   0  0  0  0  0  0  0  0  0  0  0  0
    3.0084   -6.2064    0.0000 O   0  0  0  0  0  0  0  0  0  0  0  0
    2.5016   -4.8862    0.0000 O   0  0  0  0  0  0  0  0  0  0  0  0
    9.2676    4.5522    0.0000 O   0  0  0  0  0  0  0  0  0  0  0  0
    4.3287   -5.6996    0.0000 O   0  0  0  0  0  0  0  0  0  0  0  0
    9.8501   -0.3541    0.0000 N   0  0  0  0  0  0  0  0  0  0  0  0
    7.1718   -1.6588    0.0000 N   0  0  0  0  0  0  0  0  0  0  0  0
    8.0379   -0.1588    0.0000 N   0  0  0  0  0  0  0  0  0  0  0  0
    9.8501   -1.9636    0.0000 N   0  0  0  0  0  0  0  0  0  0  0  0
    8.0379   -3.1588    0.0000 N   0  0  0  0  0  0  0  0  0  0  0  0
   10.1608    0.5964    0.0000 C   0  0  1  0  0  0  0  0  0  0  0  0
   11.1124    0.9038    0.0000 C   0  0  1  0  0  0  0  0  0  0  0  0
   11.1141    1.9038    0.0000 C   0  0  1  0  0  0  0  0  0  0  0  0
    6.3058   -2.1588    0.0000 C   0  0  1  0  0  0  0  0  0  0  0  0
    5.3923   -1.7521    0.0000 C   0  0  1  0  0  0  0  0  0  0  0  0
   10.1636    2.2144    0.0000 C   0  0  1  0  0  0  0  0  0  0  0  0
    4.7231   -2.4952    0.0000 C   0  0  1  0  0  0  0  0  0  0  0  0
    5.2231   -3.3613    0.0000 C   0  0  1  0  0  0  0  0  0  0  0  0
    8.9039   -0.6588    0.0000 C   0  0  0  0  0  0  0  0  0  0  0  0
    9.8562    3.1660    0.0000 C   0  0  0  0  0  0  0  0  0  0  0  0
    4.8164   -4.2748    0.0000 C   0  0  0  0  0  0  0  0  0  0  0  0
    8.9039   -1.6588    0.0000 C   0  0  0  0  0  0  0  0  0  0  0  0
    8.0379   -2.1588    0.0000 C   0  0  0  0  0  0  0  0  0  0  0  0
   10.4337   -1.1588    0.0000 C   0  0  0  0  0  0  0  0  0  0  0  0
    7.1718   -0.6588    0.0000 C   0  0  0  0  0  0  0  0  0  0  0  0
   10.5984    0.1573    0.0000 H   0  0  0  0  0  0  0  0  0  0  0  0
   11.0143    0.2916    0.0000 H   0  0  0  0  0  0  0  0  0  0  0  0
   11.6660    1.6214    0.0000 H   0  0  0  0  0  0  0  0  0  0  0  0
    6.8258   -2.4965    0.0000 H   0  0  0  0  0  0  0  0  0  0  0  0
    5.8741   -1.3619    0.0000 H   0  0  0  0  0  0  0  0  0  0  0  0
    9.5514    2.3125    0.0000 H   0  0  0  0  0  0  0  0  0  0  0  0
    4.5009   -1.9164    0.0000 H   0  0  0  0  0  0  0  0  0  0  0  0
    5.6133   -3.8431    0.0000 H   0  0  0  0  0  0  0  0  0  0  0  0
    9.4753    3.6553    0.0000 H   0  0  0  0  0  0  0  0  0  0  0  0
    9.3083    2.8759    0.0000 H   0  0  0  0  0  0  0  0  0  0  0  0
    4.7732   -4.8933    0.0000 H   0  0  0  0  0  0  0  0  0  0  0  0
    5.4180   -4.4248    0.0000 H   0  0  0  0  0  0  0  0  0  0  0  0
   11.0537   -1.1588    0.0000 H   0  0  0  0  0  0  0  0  0  0  0  0
    6.6349   -0.3488    0.0000 H   0  0  0  0  0  0  0  0  0  0  0  0
   12.4872    0.5658    0.0000 H   0  0  0  0  0  0  0  0  0  0  0  0
   12.4901    2.2370    0.0000 H   0  0  0  0  0  0  0  0  0  0  0  0
    4.5947   -0.5824    0.0000 H   0  0  0  0  0  0  0  0  0  0  0  0
    3.4764   -1.8243    0.0000 H   0  0  0  0  0  0  0  0  0  0  0  0
    8.5748   -3.4688    0.0000 H   0  0  0  0  0  0  0  0  0  0  0  0
   10.3275    6.2712    0.0000 H   0  0  0  0  0  0  0  0  0  0  0  0
   11.3008    5.7732    0.0000 H   0  0  0  0  0  0  0  0  0  0  0  0
    2.3918   -6.2712    0.0000 H   0  0  0  0  0  0  0  0  0  0  0  0
    2.0000   -5.2506    0.0000 H   0  0  0  0  0  0  0  0  0  0  0  0
  1  9  1  0  0  0  0
  1 11  1  0  0  0  0
  1 12  1  0  0  0  0
  1 15  2  0  0  0  0
  2 10  1  0  0  0  0
  2 13  1  0  0  0  0
  2 14  1  0  0  0  0
  2 16  2  0  0  0  0
  3 22  1  0  0  0  0
  3 27  1  0  0  0  0
  4 25  1  0  0  0  0
  4 29  1  0  0  0  0
 23  5  1  1  0  0  0
  5 51  1  0  0  0  0
 24  6  1  1  0  0  0
  6 52  1  0  0  0  0
 26  7  1  1  0  0  0
  7 53  1  0  0  0  0
 28  8  1  1  0  0  0
  8 54  1  0  0  0  0
  9 31  1  0  0  0  0
 10 32  1  0  0  0  0
 11 56  1  0  0  0  0
 12 57  1  0  0  0  0
 13 58  1  0  0  0  0
 14 59  1  0  0  0  0
 22 17  1  6  0  0  0
 17 30  1  0  0  0  0
 17 35  1  0  0  0  0
 25 18  1  6  0  0  0
 18 34  1  0  0  0  0
 18 36  1  0  0  0  0
 19 30  1  0  0  0  0
 19 36  2  0  0  0  0
 20 33  1  0  0  0  0
 20 35  2  0  0  0  0
 21 34  2  0  0  0  0
 21 55  1  0  0  0  0
 22 23  1  0  0  0  0
 22 37  1  0  0  0  0
 23 24  1  0  0  0  0
 23 38  1  0  0  0  0
 24 27  1  0  0  0  0
 24 39  1  0  0  0  0
 25 26  1  0  0  0  0
 25 40  1  0  0  0  0
 26 28  1  0  0  0  0
 26 41  1  0  0  0  0
 27 31  1  6  0  0  0
 27 42  1  0  0  0  0
 28 29  1  0  0  0  0
 28 43  1  0  0  0  0
 29 32  1  6  0  0  0
 29 44  1  0  0  0  0
 30 33  2  0  0  0  0
 31 45  1  0  0  0  0
 31 46  1  0  0  0  0
 32 47  1  0  0  0  0
 32 48  1  0  0  0  0
 33 34  1  0  0  0  0
 35 49  1  0  0  0  0
 36 50  1  0  0  0  0
M  END
> <PUBCHEM_COMPOUND_CID>
11988267

> <PUBCHEM_COMPOUND_CANONICALIZED>
1

> <PUBCHEM_CACTVS_COMPLEXITY>
963

> <PUBCHEM_CACTVS_HBOND_ACCEPTOR>
17

> <PUBCHEM_CACTVS_HBOND_DONOR>
9

> <PUBCHEM_CACTVS_ROTATABLE_BOND>
8

> <PUBCHEM_CACTVS_SUBSKEYS>
AAADceBzvAMAAAAAAAAAAAAAAAAAAWJEgAAgAAAAAAAAAEABgAAAHgAQCCAACBzhlgYFsBdMFxCgQQZhZICAgC2REKABUAAoVBCDWAJAyAAeQAgPAALTACDwMAIAAAAAAAAAAAAAAAAAAAAAAAAAAAAAAA==

> <PUBCHEM_IUPAC_OPENEYE_NAME>
[(2R,3S,4R,5R)-5-[1-[(2R,3R,4S,5R)-3,4-dihydroxy-5-(phosphonooxymethyl)tetrahydrofuran-2-yl]-6-imino-purin-9-yl]-3,4-dihydroxy-tetrahydrofuran-2-yl]methyl dihydrogen phosphate

> <PUBCHEM_IUPAC_CAS_NAME>
[(2R,3S,4R,5R)-5-[1-[(2R,3R,4S,5R)-3,4-dihydroxy-5-(phosphonooxymethyl)-2-oxolanyl]-6-imino-9-purinyl]-3,4-dihydroxy-2-oxolanyl]methyl dihydrogen phosphate

> <PUBCHEM_IUPAC_NAME>
[(2R,3S,4R,5R)-5-[1-[(2R,3R,4S,5R)-3,4-dihydroxy-5-(phosphonooxymethyl)oxolan-2-yl]-6-iminopurin-9-yl]-3,4-dihydroxyoxolan-2-yl]methyl dihydrogen phosphate

> <PUBCHEM_IUPAC_SYSTEMATIC_NAME>
[(2R,3S,4R,5R)-5-[6-azanylidene-1-[(2R,3R,4S,5R)-3,4-bis(oxidanyl)-5-(phosphonooxymethyl)oxolan-2-yl]purin-9-yl]-3,4-bis(oxidanyl)oxolan-2-yl]methyl dihydrogen phosphate

> <PUBCHEM_IUPAC_TRADITIONAL_NAME>
[(2R,3S,4R,5R)-5-[1-[(2R,3R,4S,5R)-3,4-dihydroxy-5-(phosphonooxymethyl)tetrahydrofuran-2-yl]-6-imino-purin-9-yl]-3,4-dihydroxy-tetrahydrofuran-2-yl]methyl dihydrogen phosphate

> <PUBCHEM_IUPAC_INCHI>
InChI=1S/C15H23N5O14P2/c16-12-7-13(18-4-19(12)14-10(23)8(21)5(33-14)1-31-35(25,26)27)20(3-17-7)15-11(24)9(22)6(34-15)2-32-36(28,29)30/h3-6,8-11,14-16,21-24H,1-2H2,(H2,25,26,27)(H2,28,29,30)/t5-,6-,8-,9-,10-,11-,14-,15-/m1/s1

> <PUBCHEM_IUPAC_INCHIKEY>
RTQMRTSPTLIIHM-KEOHHSTQSA-N

> <PUBCHEM_XLOGP3_AA>
-6.7

> <PUBCHEM_EXACT_MASS>
559.071674

> <PUBCHEM_MOLECULAR_FORMULA>
C15H23N5O14P2

> <PUBCHEM_MOLECULAR_WEIGHT>
559.315744

> <PUBCHEM_OPENEYE_CAN_SMILES>
C1=NC2=C(N1C3C(C(C(O3)COP(=O)(O)O)O)O)N=CN(C2=N)C4C(C(C(O4)COP(=O)(O)O)O)O

> <PUBCHEM_OPENEYE_ISO_SMILES>
C1=NC2=C(N1[C@H]3[C@@H]([C@@H]([C@H](O3)COP(=O)(O)O)O)O)N=CN(C2=N)[C@H]4[C@@H]([C@@H]([C@H](O4)COP(=O)(O)O)O)O

> <PUBCHEM_CACTVS_TPSA>
290

> <PUBCHEM_MONOISOTOPIC_WEIGHT>
559.071674

> <PUBCHEM_TOTAL_CHARGE>
0

> <PUBCHEM_HEAVY_ATOM_COUNT>
36

> <PUBCHEM_ATOM_DEF_STEREO_COUNT>
8

> <PUBCHEM_ATOM_UDEF_STEREO_COUNT>
0

> <PUBCHEM_BOND_DEF_STEREO_COUNT>
0

> <PUBCHEM_BOND_UDEF_STEREO_COUNT>
0

> <PUBCHEM_ISOTOPIC_ATOM_COUNT>
0

> <PUBCHEM_COMPONENT_COUNT>
1

> <PUBCHEM_CACTVS_TAUTO_COUNT>
1

> <PUBCHEM_COORDINATE_TYPE>
1
5
255

> <PUBCHEM_BONDANNOTATIONS>
22  17  6
17  30  8
17  35  8
25  18  6
18  34  8
18  36  8
19  30  8
19  36  8
20  33  8
20  35  8
27  31  6
29  32  6
30  33  8
33  34  8
23  5  5
24  6  5
26  7  5
28  8  5

$$$$

