   Color/Form

     * Cyrstals from methanol or ethyl acetate
     * Fine, white or creamy white crystalline powder

   from [1]HSDB

   Melting Point
        159-150 deg C
   from [2]HSDB

   Octanol/Water Partition Coefficient
        log Kow = 0.82 (est)
   from [3]HSDB

   Solubilities

     * Freely soluble in most organic solvents; poorly soluble in ethyl
       acetate, 0.1N hydrochloric acid and absolute alcohol; readily
       soluble in acetone and 100% acetic acid. Practically insoluble in
       water.
     * In water, 2.49X10+3 mg/L at 25 deg C (est)

   from [4]HSDB

   Vapor Pressure
        4.96X10-10 mm Hg at 25 deg C (est)
   from [5]HSDB

   Other Chemical/Physical Properties

     * Henry's Law constant = 1.69X10-12 atm-cu m/mol at 25 deg C (est)
     * Hydroxyl radical reaction rate constant = 1.54X10-10 cu
       cm/molec-sec at 25 deg C

   from [6]HSDB

   Computed Properties
   Molecular Weight                  232.27834 [g/mol]
   Molecular Formula                 C[13]H[16]N[2]O[2]
   XLogP3                            1.2
   H-Bond Donor                      2
   H-Bond Acceptor                   3
   Rotatable Bond Count              2
   Tautomer Count                    5
   Exact Mass                        232.121178
   MonoIsotopic Mass                 232.121178
   Topological Polar Surface Area    72.2
   Heavy Atom Count                  17
   Formal Charge                     0
   Complexity                        321
   Isotope Atom Count                0
   Defined Atom Stereocenter Count   0
   Undefined Atom Stereocenter Count 1
   Defined Bond Stereocenter Count   0
   Undefined Bond Stereocenter Count 0
   Covalently-Bonded Unit Count      1
   Feature 3D Acceptor Count         2
   Feature 3D Donor Count            2
   Feature 3D Cation Count           1
   Feature 3D Hydrophobe Count       1
   Feature 3D Ring Count             2
   Effective Rotor Count             2.8
   Conformer Sampling RMSD           0.6
   CID Conformer Count               [7]8

References

   1. http://toxnet.nlm.nih.gov/cgi-bin/sis/search/r?dbs+hsdb:@term+@rn+@rel+125-84-8
   2. http://toxnet.nlm.nih.gov/cgi-bin/sis/search/r?dbs+hsdb:@term+@rn+@rel+125-84-8
   3. http://toxnet.nlm.nih.gov/cgi-bin/sis/search/r?dbs+hsdb:@term+@rn+@rel+125-84-8
   4. http://toxnet.nlm.nih.gov/cgi-bin/sis/search/r?dbs+hsdb:@term+@rn+@rel+125-84-8
   5. http://toxnet.nlm.nih.gov/cgi-bin/sis/search/r?dbs+hsdb:@term+@rn+@rel+125-84-8
   6. http://toxnet.nlm.nih.gov/cgi-bin/sis/search/r?dbs+hsdb:@term+@rn+@rel+125-84-8
   7. http://pubchem.ncbi.nlm.nih.gov/vw3d/vw3d.cgi?cid=2145
