439319
  -OEChem-07051212452D

 29 29  0     1  0  0  0  0  0999 V2000
    3.8100   -2.6440    0.0000 O   0  0  0  0  0  0  0  0  0  0  0  0
    2.3100    1.2220    0.0000 O   0  0  0  0  0  0  0  0  0  0  0  0
    3.8100    2.0880    0.0000 O   0  0  0  0  0  0  0  0  0  0  0  0
    6.8100    2.0880    0.0000 O   0  0  0  0  0  0  0  0  0  0  0  0
    5.3100    2.9540    0.0000 O   0  0  0  0  0  0  0  0  0  0  0  0
    5.8100    0.3560    0.0000 N   0  0  0  0  0  0  0  0  0  0  0  0
    3.8100    0.3560    0.0000 C   0  0  0  0  0  0  0  0  0  0  0  0
    4.3100    1.2220    0.0000 C   0  0  0  0  0  0  0  0  0  0  0  0
    5.3100    1.2220    0.0000 C   0  0  1  0  0  0  0  0  0  0  0  0
    2.9440   -0.1440    0.0000 C   0  0  0  0  0  0  0  0  0  0  0  0
    4.6760   -0.1440    0.0000 C   0  0  0  0  0  0  0  0  0  0  0  0
    3.8100   -1.6440    0.0000 C   0  0  0  0  0  0  0  0  0  0  0  0
    3.3100    1.2220    0.0000 C   0  0  0  0  0  0  0  0  0  0  0  0
    4.6760   -1.1440    0.0000 C   0  0  0  0  0  0  0  0  0  0  0  0
    2.9440   -1.1440    0.0000 C   0  0  0  0  0  0  0  0  0  0  0  0
    5.8100    2.0880    0.0000 C   0  0  0  0  0  0  0  0  0  0  0  0
    4.4177    1.8326    0.0000 H   0  0  0  0  0  0  0  0  0  0  0  0
    3.7274    1.4340    0.0000 H   0  0  0  0  0  0  0  0  0  0  0  0
    5.0000    0.6851    0.0000 H   0  0  0  0  0  0  0  0  0  0  0  0
    5.2130    0.1660    0.0000 H   0  0  0  0  0  0  0  0  0  0  0  0
    2.4070    0.1660    0.0000 H   0  0  0  0  0  0  0  0  0  0  0  0
    4.3469   -1.9540    0.0000 H   0  0  0  0  0  0  0  0  0  0  0  0
    5.2130   -1.4540    0.0000 H   0  0  0  0  0  0  0  0  0  0  0  0
    2.4070   -1.4540    0.0000 H   0  0  0  0  0  0  0  0  0  0  0  0
    6.4300    0.3560    0.0000 H   0  0  0  0  0  0  0  0  0  0  0  0
    5.5000   -0.1810    0.0000 H   0  0  0  0  0  0  0  0  0  0  0  0
    3.2731   -2.9540    0.0000 H   0  0  0  0  0  0  0  0  0  0  0  0
    2.0000    1.7589    0.0000 H   0  0  0  0  0  0  0  0  0  0  0  0
    7.1200    2.6250    0.0000 H   0  0  0  0  0  0  0  0  0  0  0  0
  1 12  1  0  0  0  0
  1 27  1  0  0  0  0
  2 13  1  0  0  0  0
  2 28  1  0  0  0  0
  3 13  2  0  0  0  0
  4 16  1  0  0  0  0
  4 29  1  0  0  0  0
  5 16  2  0  0  0  0
  9  6  1  1  0  0  0
  6 25  1  0  0  0  0
  6 26  1  0  0  0  0
  7  8  1  0  0  0  0
  7 10  1  0  0  0  0
  7 11  1  0  0  0  0
  7 13  1  0  0  0  0
  8  9  1  0  0  0  0
  8 17  1  0  0  0  0
  8 18  1  0  0  0  0
  9 16  1  0  0  0  0
  9 19  1  0  0  0  0
 10 15  2  0  0  0  0
 10 21  1  0  0  0  0
 11 14  2  0  0  0  0
 11 20  1  0  0  0  0
 12 14  1  0  0  0  0
 12 15  1  0  0  0  0
 12 22  1  0  0  0  0
 14 23  1  0  0  0  0
 15 24  1  0  0  0  0
M  END
> <PUBCHEM_COMPOUND_CID>
439319

> <PUBCHEM_COMPOUND_CANONICALIZED>
1

> <PUBCHEM_CACTVS_COMPLEXITY>
346

> <PUBCHEM_CACTVS_HBOND_ACCEPTOR>
6

> <PUBCHEM_CACTVS_HBOND_DONOR>
4

> <PUBCHEM_CACTVS_ROTATABLE_BOND>
4

> <PUBCHEM_CACTVS_SUBSKEYS>
AAADccByOAAAAAAAAAAAAAAAAAAAAAAAAAAgAAAAAAAAAAAAAAAAHgAQCAAADjzhgAYACABAAgCIACDSCAAAAAAgAAAICIGAAAgCFBIAgQAAUAAE0AAIEAKsJgANAAAAAAAAAAAAAAAAAAAAAAAAAAAAAA==

> <PUBCHEM_IUPAC_OPENEYE_NAME>
1-[(2S)-2-amino-2-carboxy-ethyl]-4-hydroxy-cyclohexa-2,5-diene-1-carboxylic acid

> <PUBCHEM_IUPAC_CAS_NAME>
1-[(2S)-2-amino-2-carboxyethyl]-4-hydroxy-1-cyclohexa-2,5-dienecarboxylic acid

> <PUBCHEM_IUPAC_NAME>
1-[(2S)-2-amino-2-carboxyethyl]-4-hydroxycyclohexa-2,5-diene-1-carboxylic acid

> <PUBCHEM_IUPAC_SYSTEMATIC_NAME>
1-[(2S)-2-azanyl-3-oxidanyl-3-oxidanylidene-propyl]-4-oxidanyl-cyclohexa-2,5-diene-1-carboxylic acid

> <PUBCHEM_IUPAC_TRADITIONAL_NAME>
1-[(2S)-2-amino-2-carboxy-ethyl]-4-hydroxy-cyclohexa-2,5-diene-1-carboxylic acid

> <PUBCHEM_IUPAC_INCHI>
InChI=1S/C10H13NO5/c11-7(8(13)14)5-10(9(15)16)3-1-6(12)2-4-10/h1-4,6-7,12H,5,11H2,(H,13,14)(H,15,16)/t6?,7-,10?/m0/s1

> <PUBCHEM_IUPAC_INCHIKEY>
MIEILDYWGANZNH-DSQUFTABSA-N

> <PUBCHEM_XLOGP3_AA>
-3.1

> <PUBCHEM_EXACT_MASS>
227.079373

> <PUBCHEM_MOLECULAR_FORMULA>
C10H13NO5

> <PUBCHEM_MOLECULAR_WEIGHT>
227.21392

> <PUBCHEM_OPENEYE_CAN_SMILES>
C1=CC(C=CC1O)(CC(C(=O)O)N)C(=O)O

> <PUBCHEM_OPENEYE_ISO_SMILES>
C1=CC(C=CC1O)(C[C@@H](C(=O)O)N)C(=O)O

> <PUBCHEM_CACTVS_TPSA>
121

> <PUBCHEM_MONOISOTOPIC_WEIGHT>
227.079373

> <PUBCHEM_TOTAL_CHARGE>
0

> <PUBCHEM_HEAVY_ATOM_COUNT>
16

> <PUBCHEM_ATOM_DEF_STEREO_COUNT>
1

> <PUBCHEM_ATOM_UDEF_STEREO_COUNT>
0

> <PUBCHEM_BOND_DEF_STEREO_COUNT>
0

> <PUBCHEM_BOND_UDEF_STEREO_COUNT>
0

> <PUBCHEM_ISOTOPIC_ATOM_COUNT>
0

> <PUBCHEM_COMPONENT_COUNT>
1

> <PUBCHEM_CACTVS_TAUTO_COUNT>
1

> <PUBCHEM_COORDINATE_TYPE>
1
5
255

> <PUBCHEM_BONDANNOTATIONS>
9  6  5

$$$$

