5383
  -OEChem-06261200392D

 31 31  0     0  0  0  0  0  0999 V2000
    6.1974   -0.6133    0.0000 S   0  0  0  0  0  0  0  0  0  0  0  0
    3.9021    1.3127    0.0000 O   0  0  0  0  0  0  0  0  0  0  0  0
    6.6974    0.9255    0.0000 N   0  0  0  0  0  0  0  0  0  0  0  0
    4.4374   -0.3346    0.0000 N   0  0  0  0  0  0  0  0  0  0  0  0
    5.6974    0.9255    0.0000 N   0  0  0  0  0  0  0  0  0  0  0  0
    2.7431    0.0255    0.0000 N   0  0  0  0  0  0  0  0  0  0  0  0
    7.9575   -0.3346    0.0000 C   0  0  0  0  0  0  0  0  0  0  0  0
    7.0064   -0.0255    0.0000 C   0  0  0  0  0  0  0  0  0  0  0  0
    8.9086   -0.6436    0.0000 C   0  0  0  0  0  0  0  0  0  0  0  0
    8.2665    0.6165    0.0000 C   0  0  0  0  0  0  0  0  0  0  0  0
    7.6485   -1.2856    0.0000 C   0  0  0  0  0  0  0  0  0  0  0  0
    5.3884   -0.0255    0.0000 C   0  0  0  0  0  0  0  0  0  0  0  0
    4.2294   -1.3127    0.0000 C   0  0  0  0  0  0  0  0  0  0  0  0
    3.6942    0.3346    0.0000 C   0  0  0  0  0  0  0  0  0  0  0  0
    2.0000    0.6947    0.0000 C   0  0  0  0  0  0  0  0  0  0  0  0
    8.7170   -1.2332    0.0000 H   0  0  0  0  0  0  0  0  0  0  0  0
    9.4982   -0.8352    0.0000 H   0  0  0  0  0  0  0  0  0  0  0  0
    9.1001   -0.0539    0.0000 H   0  0  0  0  0  0  0  0  0  0  0  0
    8.8562    0.4249    0.0000 H   0  0  0  0  0  0  0  0  0  0  0  0
    8.4581    1.2062    0.0000 H   0  0  0  0  0  0  0  0  0  0  0  0
    7.6769    0.8081    0.0000 H   0  0  0  0  0  0  0  0  0  0  0  0
    7.0588   -1.0940    0.0000 H   0  0  0  0  0  0  0  0  0  0  0  0
    7.4569   -1.8753    0.0000 H   0  0  0  0  0  0  0  0  0  0  0  0
    8.2381   -1.4772    0.0000 H   0  0  0  0  0  0  0  0  0  0  0  0
    3.6230   -1.1838    0.0000 H   0  0  0  0  0  0  0  0  0  0  0  0
    4.1005   -1.9192    0.0000 H   0  0  0  0  0  0  0  0  0  0  0  0
    4.8359   -1.4416    0.0000 H   0  0  0  0  0  0  0  0  0  0  0  0
    2.6142   -0.5809    0.0000 H   0  0  0  0  0  0  0  0  0  0  0  0
    2.4149    1.1554    0.0000 H   0  0  0  0  0  0  0  0  0  0  0  0
    1.5392    1.1095    0.0000 H   0  0  0  0  0  0  0  0  0  0  0  0
    1.5851    0.2339    0.0000 H   0  0  0  0  0  0  0  0  0  0  0  0
  1  8  1  0  0  0  0
  1 12  1  0  0  0  0
  2 14  2  0  0  0  0
  3  5  1  0  0  0  0
  3  8  2  0  0  0  0
  4 12  1  0  0  0  0
  4 13  1  0  0  0  0
  4 14  1  0  0  0  0
  5 12  2  0  0  0  0
  6 14  1  0  0  0  0
  6 15  1  0  0  0  0
  6 28  1  0  0  0  0
  7  8  1  0  0  0  0
  7  9  1  0  0  0  0
  7 10  1  0  0  0  0
  7 11  1  0  0  0  0
  9 16  1  0  0  0  0
  9 17  1  0  0  0  0
  9 18  1  0  0  0  0
 10 19  1  0  0  0  0
 10 20  1  0  0  0  0
 10 21  1  0  0  0  0
 11 22  1  0  0  0  0
 11 23  1  0  0  0  0
 11 24  1  0  0  0  0
 13 25  1  0  0  0  0
 13 26  1  0  0  0  0
 13 27  1  0  0  0  0
 15 29  1  0  0  0  0
 15 30  1  0  0  0  0
 15 31  1  0  0  0  0
M  END
> <PUBCHEM_COMPOUND_CID>
5383

> <PUBCHEM_COMPOUND_CANONICALIZED>
1

> <PUBCHEM_CACTVS_COMPLEXITY>
241

> <PUBCHEM_CACTVS_HBOND_ACCEPTOR>
4

> <PUBCHEM_CACTVS_HBOND_DONOR>
1

> <PUBCHEM_CACTVS_ROTATABLE_BOND>
2

> <PUBCHEM_CACTVS_SUBSKEYS>
AAADceBzoABAAAAAAAAAAAAAAAAAAWAAAAAAAAAAAAAAAAABgAAAHgQYAAAADgCBQgQDEAPAAAguAAAgMAAQAIJAABgVAIAoAACAAAAgAAAAAAAICwAAAAAAAAAAAAAAAAAAAAAAAAAAAAAAAAAAAAAAAA==

> <PUBCHEM_IUPAC_OPENEYE_NAME>
1-(5-tert-butyl-1,3,4-thiadiazol-2-yl)-1,3-dimethyl-urea

> <PUBCHEM_IUPAC_CAS_NAME>
1-(5-tert-butyl-1,3,4-thiadiazol-2-yl)-1,3-dimethylurea

> <PUBCHEM_IUPAC_NAME>
1-(5-tert-butyl-1,3,4-thiadiazol-2-yl)-1,3-dimethylurea

> <PUBCHEM_IUPAC_SYSTEMATIC_NAME>
1-(5-tert-butyl-1,3,4-thiadiazol-2-yl)-1,3-dimethyl-urea

> <PUBCHEM_IUPAC_TRADITIONAL_NAME>
1-(5-tert-butyl-1,3,4-thiadiazol-2-yl)-1,3-dimethyl-urea

> <PUBCHEM_IUPAC_INCHI>
InChI=1S/C9H16N4OS/c1-9(2,3)6-11-12-8(15-6)13(5)7(14)10-4/h1-5H3,(H,10,14)

> <PUBCHEM_IUPAC_INCHIKEY>
HBPDKDSFLXWOAE-UHFFFAOYSA-N

> <PUBCHEM_XLOGP3_AA>
1.6

> <PUBCHEM_EXACT_MASS>
228.104482

> <PUBCHEM_MOLECULAR_FORMULA>
C9H16N4OS

> <PUBCHEM_MOLECULAR_WEIGHT>
228.31454

> <PUBCHEM_OPENEYE_CAN_SMILES>
CC(C)(C)C1=NN=C(S1)N(C)C(=O)NC

> <PUBCHEM_OPENEYE_ISO_SMILES>
CC(C)(C)C1=NN=C(S1)N(C)C(=O)NC

> <PUBCHEM_CACTVS_TPSA>
86.4

> <PUBCHEM_MONOISOTOPIC_WEIGHT>
228.104482

> <PUBCHEM_TOTAL_CHARGE>
0

> <PUBCHEM_HEAVY_ATOM_COUNT>
15

> <PUBCHEM_ATOM_DEF_STEREO_COUNT>
0

> <PUBCHEM_ATOM_UDEF_STEREO_COUNT>
0

> <PUBCHEM_BOND_DEF_STEREO_COUNT>
0

> <PUBCHEM_BOND_UDEF_STEREO_COUNT>
0

> <PUBCHEM_ISOTOPIC_ATOM_COUNT>
0

> <PUBCHEM_COMPONENT_COUNT>
1

> <PUBCHEM_CACTVS_TAUTO_COUNT>
2

> <PUBCHEM_COORDINATE_TYPE>
1
5
255

> <PUBCHEM_BONDANNOTATIONS>
1  12  8
1  8  8
3  5  8
3  8  8
5  12  8

$$$$

