17395329
  -OEChem-06241222492D

 44 46  0     1  0  0  0  0  0999 V2000
    2.0000   -1.7888    0.0000 F   0  0  0  0  0  0  0  0  0  0  0  0
    5.4641   -3.7888    0.0000 F   0  0  0  0  0  0  0  0  0  0  0  0
    5.4569    2.1186    0.0000 O   0  0  0  0  0  0  0  0  0  0  0  0
    5.3198   -1.5978    0.0000 O   0  0  0  0  0  0  0  0  0  0  0  0
    4.2320    1.7501    0.0000 O   0  0  0  0  0  0  0  0  0  0  0  0
    7.1511    1.7585    0.0000 N   0  0  0  0  0  0  0  0  0  0  0  0
    5.0411    0.1623    0.0000 N   0  0  0  0  0  0  0  0  0  0  0  0
    3.4230    0.1623    0.0000 N   0  0  0  0  0  0  0  0  0  0  0  0
    8.3101    3.0456    0.0000 C   0  0  0  0  0  0  0  0  0  0  0  0
    9.2882    2.8377    0.0000 C   0  0  0  0  0  0  0  0  0  0  0  0
    8.9792    3.7888    0.0000 C   0  0  0  0  0  0  0  0  0  0  0  0
    7.3590    2.7366    0.0000 C   0  0  3  0  0  0  0  0  0  0  0  0
    6.6159    3.4057    0.0000 C   0  0  0  0  0  0  0  0  0  0  0  0
    3.7320   -0.7888    0.0000 C   0  0  3  0  0  0  0  0  0  0  0  0
    6.2000    1.4494    0.0000 C   0  0  0  0  0  0  0  0  0  0  0  0
    5.9921    0.4713    0.0000 C   0  0  0  0  0  0  0  0  0  0  0  0
    4.7320   -0.7888    0.0000 C   0  0  0  0  0  0  0  0  0  0  0  0
    3.7320   -1.7888    0.0000 C   0  0  0  0  0  0  0  0  0  0  0  0
    4.2320    0.7501    0.0000 C   0  0  0  0  0  0  0  0  0  0  0  0
    2.7810   -1.0978    0.0000 C   0  0  0  0  0  0  0  0  0  0  0  0
    2.8660   -2.2888    0.0000 C   0  0  0  0  0  0  0  0  0  0  0  0
    4.5981   -2.2888    0.0000 C   0  0  0  0  0  0  0  0  0  0  0  0
    4.5981   -3.2888    0.0000 C   0  0  0  0  0  0  0  0  0  0  0  0
    2.8660   -3.2888    0.0000 C   0  0  0  0  0  0  0  0  0  0  0  0
    3.7320   -3.7888    0.0000 C   0  0  0  0  0  0  0  0  0  0  0  0
    7.9724    3.5656    0.0000 H   0  0  0  0  0  0  0  0  0  0  0  0
    9.5266    4.0799    0.0000 H   0  0  0  0  0  0  0  0  0  0  0  0
    8.5975    4.2773    0.0000 H   0  0  0  0  0  0  0  0  0  0  0  0
    9.2666    2.2181    0.0000 H   0  0  0  0  0  0  0  0  0  0  0  0
    9.9022    2.9240    0.0000 H   0  0  0  0  0  0  0  0  0  0  0  0
    6.7694    2.5450    0.0000 H   0  0  0  0  0  0  0  0  0  0  0  0
    7.0307    3.8665    0.0000 H   0  0  0  0  0  0  0  0  0  0  0  0
    6.1551    3.8206    0.0000 H   0  0  0  0  0  0  0  0  0  0  0  0
    6.2010    2.9450    0.0000 H   0  0  0  0  0  0  0  0  0  0  0  0
    7.6118    1.3436    0.0000 H   0  0  0  0  0  0  0  0  0  0  0  0
    6.0784   -0.1427    0.0000 H   0  0  0  0  0  0  0  0  0  0  0  0
    6.6118    0.4497    0.0000 H   0  0  0  0  0  0  0  0  0  0  0  0
    2.8334    0.3539    0.0000 H   0  0  0  0  0  0  0  0  0  0  0  0
    2.5894   -0.5081    0.0000 H   0  0  0  0  0  0  0  0  0  0  0  0
    2.1913   -1.2894    0.0000 H   0  0  0  0  0  0  0  0  0  0  0  0
    2.9726   -1.6874    0.0000 H   0  0  0  0  0  0  0  0  0  0  0  0
    5.1350   -1.9788    0.0000 H   0  0  0  0  0  0  0  0  0  0  0  0
    2.3291   -3.5988    0.0000 H   0  0  0  0  0  0  0  0  0  0  0  0
    3.7320   -4.4088    0.0000 H   0  0  0  0  0  0  0  0  0  0  0  0
  1 21  1  0  0  0  0
  2 23  1  0  0  0  0
  3 15  2  0  0  0  0
  4 17  2  0  0  0  0
  5 19  2  0  0  0  0
  6 12  1  0  0  0  0
  6 15  1  0  0  0  0
  6 35  1  0  0  0  0
  7 16  1  0  0  0  0
  7 17  1  0  0  0  0
  7 19  1  0  0  0  0
  8 14  1  0  0  0  0
  8 19  1  0  0  0  0
  8 38  1  0  0  0  0
  9 10  1  0  0  0  0
  9 11  1  0  0  0  0
  9 12  1  0  0  0  0
  9 26  1  0  0  0  0
 10 11  1  0  0  0  0
 10 29  1  0  0  0  0
 10 30  1  0  0  0  0
 11 27  1  0  0  0  0
 11 28  1  0  0  0  0
 12 13  1  0  0  0  0
 12 31  1  0  0  0  0
 13 32  1  0  0  0  0
 13 33  1  0  0  0  0
 13 34  1  0  0  0  0
 14 17  1  0  0  0  0
 14 18  1  0  0  0  0
 14 20  1  0  0  0  0
 15 16  1  0  0  0  0
 16 36  1  0  0  0  0
 16 37  1  0  0  0  0
 18 21  2  0  0  0  0
 18 22  1  0  0  0  0
 20 39  1  0  0  0  0
 20 40  1  0  0  0  0
 20 41  1  0  0  0  0
 21 24  1  0  0  0  0
 22 23  2  0  0  0  0
 22 42  1  0  0  0  0
 23 25  1  0  0  0  0
 24 25  2  0  0  0  0
 24 43  1  0  0  0  0
 25 44  1  0  0  0  0
M  END
> <PUBCHEM_COMPOUND_CID>
17395329

> <PUBCHEM_COMPOUND_CANONICALIZED>
1

> <PUBCHEM_CACTVS_COMPLEXITY>
584

> <PUBCHEM_CACTVS_HBOND_ACCEPTOR>
5

> <PUBCHEM_CACTVS_HBOND_DONOR>
2

> <PUBCHEM_CACTVS_ROTATABLE_BOND>
5

> <PUBCHEM_CACTVS_SUBSKEYS>
AAADceB7MYAAAAAAAAAAAAAAGAAAAWAAAAAwAAAAAAAAAAABAAAAHwAQAAAADajBmAwzAIPAAACIAiFSEACCAAAgAAAIiIGIBIiIYDKAlTGUIAholyKIiAcYiMCOgAAAAAAAAAAAAAAAAAAAAAAAAAAAAA==

> <PUBCHEM_IUPAC_OPENEYE_NAME>
N-(1-cyclopropylethyl)-2-[4-(2,5-difluorophenyl)-4-methyl-2,5-dioxo-imidazolidin-1-yl]acetamide

> <PUBCHEM_IUPAC_CAS_NAME>
N-(1-cyclopropylethyl)-2-[4-(2,5-difluorophenyl)-4-methyl-2,5-dioxo-1-imidazolidinyl]acetamide

> <PUBCHEM_IUPAC_NAME>
N-(1-cyclopropylethyl)-2-[4-(2,5-difluorophenyl)-4-methyl-2,5-dioxoimidazolidin-1-yl]acetamide

> <PUBCHEM_IUPAC_SYSTEMATIC_NAME>
2-[4-[2,5-bis(fluoranyl)phenyl]-4-methyl-2,5-bis(oxidanylidene)imidazolidin-1-yl]-N-(1-cyclopropylethyl)ethanamide

> <PUBCHEM_IUPAC_TRADITIONAL_NAME>
N-(1-cyclopropylethyl)-2-[4-(2,5-difluorophenyl)-2,5-diketo-4-methyl-imidazolidin-1-yl]acetamide

> <PUBCHEM_IUPAC_INCHI>
InChI=1S/C17H19F2N3O3/c1-9(10-3-4-10)20-14(23)8-22-15(24)17(2,21-16(22)25)12-7-11(18)5-6-13(12)19/h5-7,9-10H,3-4,8H2,1-2H3,(H,20,23)(H,21,25)

> <PUBCHEM_IUPAC_INCHIKEY>
FCXWEZBZOXNTLR-UHFFFAOYSA-N

> <PUBCHEM_XLOGP3_AA>
1.7

> <PUBCHEM_EXACT_MASS>
351.139448

> <PUBCHEM_MOLECULAR_FORMULA>
C17H19F2N3O3

> <PUBCHEM_MOLECULAR_WEIGHT>
351.347866

> <PUBCHEM_OPENEYE_CAN_SMILES>
CC(C1CC1)NC(=O)CN2C(=O)C(NC2=O)(C)C3=C(C=CC(=C3)F)F

> <PUBCHEM_OPENEYE_ISO_SMILES>
CC(C1CC1)NC(=O)CN2C(=O)C(NC2=O)(C)C3=C(C=CC(=C3)F)F

> <PUBCHEM_CACTVS_TPSA>
78.5

> <PUBCHEM_MONOISOTOPIC_WEIGHT>
351.139448

> <PUBCHEM_TOTAL_CHARGE>
0

> <PUBCHEM_HEAVY_ATOM_COUNT>
25

> <PUBCHEM_ATOM_DEF_STEREO_COUNT>
0

> <PUBCHEM_ATOM_UDEF_STEREO_COUNT>
2

> <PUBCHEM_BOND_DEF_STEREO_COUNT>
0

> <PUBCHEM_BOND_UDEF_STEREO_COUNT>
0

> <PUBCHEM_ISOTOPIC_ATOM_COUNT>
0

> <PUBCHEM_COMPONENT_COUNT>
1

> <PUBCHEM_CACTVS_TAUTO_COUNT>
4

> <PUBCHEM_COORDINATE_TYPE>
1
5
255

> <PUBCHEM_BONDANNOTATIONS>
12  13  3
14  20  3
18  21  8
18  22  8
21  24  8
22  23  8
23  25  8
24  25  8

$$$$

