   Color/Form
        Red, crystalline solid
   from [1]HSDB

   Melting Point
        230 deg C
   from [2]HSDB

   Dissociation Constants
        pKa1 = 7.34 (phenol); pKa2 = 8.46 (amine); pKa3 = 9.46 (est)
   from [3]HSDB

   Octanol/Water Partition Coefficient
        log Kow = 1.27
   from [4]HSDB

   Solubilities

     * 2% sol in water; soluble in aqueous alcohols; moderately soluble in
       anhydrous methanol; insoluble in non-polar organic solvents
     * In water, 2,600 mg/L at 25 deg C (est)

   from [5]HSDB

   Spectral Properties

     * Specific optical rotation: +248 deg at 20 deg C/D (0.1% in
       methanol)
     * Max absorption (methanol at 56 deg C): 290 nm (epsilon = 145, 1%, 1
       cm); 477 nm (epsilon = 225, 1%, 1 cm); 495 nm (epsilon = 223, 1%, 1
       cm); 530 nm (epsilon = 124, 1%, 1 cm); 233 nm (epsilon = 658, 1%, 1
       cm); 253 nm (epsilon = 440, 1%, 1 cm)

   from [6]HSDB

   Vapor Pressure
        2.5X10-23 at 25 deg C (est)
   from [7]HSDB

   Other Chemical/Physical Properties

     * MELTING POINT: 205 DEG C WITH DECOMP; PKA: 8.22; ALMOST ODORLESS;
       HYGROSCOPIC /HYDROCHLORIDE/
     * Orange-red colored thin needles; mp 204-205 deg C with decomp;
       specific optical rotation: +248 (c = 0.1 in methanol); Absorption
       max (methanol): 233, 252, 288, 479, 496, 529; Soluble in water,
       methanol, aqueous alcohols. Practically insoluble in acetone,
       benzene, chloroform, ethyl ether, and petroleum ether. Aqueous
       solutions are yellow-orange at acid pHs, orange-red at neutral pHs,
       and violet-blue at pH > 9. Aqueous solution unchanged after one
       month at 5 deg C but unstable at higher temperatures or at either
       acid or alkaline pHs /Doxorubicin hydrochloride/
     * Henry's Law constant = 2.2X10-23 atm-cu m/mol at 25 deg C (est)
     * Hydroxyl radical reaction rate constant = 1.4X10-10 cu cm/molec-sec
       at 25 deg C (est)

   from [8]HSDB

   Computed Properties
   Molecular Weight                  543.51926 [g/mol]
   Molecular Formula                 C[27]H[29]NO[11]
   XLogP3                            1.3
   H-Bond Donor                      6
   H-Bond Acceptor                   12
   Rotatable Bond Count              5
   Tautomer Count                    81
   Exact Mass                        543.174061
   MonoIsotopic Mass                 543.174061
   Topological Polar Surface Area    206
   Heavy Atom Count                  39
   Formal Charge                     0
   Complexity                        977
   Isotope Atom Count                0
   Defined Atom Stereocenter Count   6
   Undefined Atom Stereocenter Count 0
   Defined Bond Stereocenter Count   0
   Undefined Bond Stereocenter Count 0
   Covalently-Bonded Unit Count      1
   Feature 3D Acceptor Count         9
   Feature 3D Donor Count            6
   Feature 3D Cation Count           1
   Feature 3D Ring Count             5
   Effective Rotor Count             7
   Conformer Sampling RMSD           1
   CID Conformer Count               [9]12

References

   1. http://toxnet.nlm.nih.gov/cgi-bin/sis/search/r?dbs+hsdb:@term+@rn+@rel+23214-92-8
   2. http://toxnet.nlm.nih.gov/cgi-bin/sis/search/r?dbs+hsdb:@term+@rn+@rel+23214-92-8
   3. http://toxnet.nlm.nih.gov/cgi-bin/sis/search/r?dbs+hsdb:@term+@rn+@rel+23214-92-8
   4. http://toxnet.nlm.nih.gov/cgi-bin/sis/search/r?dbs+hsdb:@term+@rn+@rel+23214-92-8
   5. http://toxnet.nlm.nih.gov/cgi-bin/sis/search/r?dbs+hsdb:@term+@rn+@rel+23214-92-8
   6. http://toxnet.nlm.nih.gov/cgi-bin/sis/search/r?dbs+hsdb:@term+@rn+@rel+23214-92-8
   7. http://toxnet.nlm.nih.gov/cgi-bin/sis/search/r?dbs+hsdb:@term+@rn+@rel+23214-92-8
   8. http://toxnet.nlm.nih.gov/cgi-bin/sis/search/r?dbs+hsdb:@term+@rn+@rel+23214-92-8
   9. http://pubchem.ncbi.nlm.nih.gov/vw3d/vw3d.cgi?cid=31703
