5280992
  -OEChem-07051212522D

 53 53  0     0  0  0  0  0  0999 V2000
    9.0622    5.5000    0.0000 O   0  0  0  0  0  0  0  0  0  0  0  0
    3.0000   -4.0000    0.0000 C   0  0  0  0  0  0  0  0  0  0  0  0
    3.0000   -5.0000    0.0000 C   0  0  0  0  0  0  0  0  0  0  0  0
    3.8660   -5.5000    0.0000 C   0  0  0  0  0  0  0  0  0  0  0  0
    3.8660   -3.5000    0.0000 C   0  0  0  0  0  0  0  0  0  0  0  0
    4.7320   -5.0000    0.0000 C   0  0  0  0  0  0  0  0  0  0  0  0
    4.7320   -4.0000    0.0000 C   0  0  0  0  0  0  0  0  0  0  0  0
    2.0000   -4.0000    0.0000 C   0  0  0  0  0  0  0  0  0  0  0  0
    2.5000   -3.1340    0.0000 C   0  0  0  0  0  0  0  0  0  0  0  0
    3.8660   -2.5000    0.0000 C   0  0  0  0  0  0  0  0  0  0  0  0
    5.5981   -3.5000    0.0000 C   0  0  0  0  0  0  0  0  0  0  0  0
    4.7320   -2.0000    0.0000 C   0  0  0  0  0  0  0  0  0  0  0  0
    4.7320   -1.0000    0.0000 C   0  0  0  0  0  0  0  0  0  0  0  0
    3.8660   -0.5000    0.0000 C   0  0  0  0  0  0  0  0  0  0  0  0
    5.5981   -0.5000    0.0000 C   0  0  0  0  0  0  0  0  0  0  0  0
    5.5981    0.5000    0.0000 C   0  0  0  0  0  0  0  0  0  0  0  0
    6.4641    1.0000    0.0000 C   0  0  0  0  0  0  0  0  0  0  0  0
    6.4641    2.0000    0.0000 C   0  0  0  0  0  0  0  0  0  0  0  0
    5.5981    2.5000    0.0000 C   0  0  0  0  0  0  0  0  0  0  0  0
    7.3301    2.5000    0.0000 C   0  0  0  0  0  0  0  0  0  0  0  0
    7.3301    3.5000    0.0000 C   0  0  0  0  0  0  0  0  0  0  0  0
    8.1962    4.0000    0.0000 C   0  0  0  0  0  0  0  0  0  0  0  0
    8.1962    5.0000    0.0000 C   0  0  0  0  0  0  0  0  0  0  0  0
    2.3894   -4.8923    0.0000 H   0  0  0  0  0  0  0  0  0  0  0  0
    2.7880   -5.5826    0.0000 H   0  0  0  0  0  0  0  0  0  0  0  0
    3.4675   -5.9750    0.0000 H   0  0  0  0  0  0  0  0  0  0  0  0
    4.2646   -5.9750    0.0000 H   0  0  0  0  0  0  0  0  0  0  0  0
    4.9441   -5.5826    0.0000 H   0  0  0  0  0  0  0  0  0  0  0  0
    5.3426   -4.8923    0.0000 H   0  0  0  0  0  0  0  0  0  0  0  0
    2.0000   -3.3800    0.0000 H   0  0  0  0  0  0  0  0  0  0  0  0
    1.3800   -4.0000    0.0000 H   0  0  0  0  0  0  0  0  0  0  0  0
    2.0000   -4.6200    0.0000 H   0  0  0  0  0  0  0  0  0  0  0  0
    3.0369   -2.8240    0.0000 H   0  0  0  0  0  0  0  0  0  0  0  0
    2.1900   -2.5970    0.0000 H   0  0  0  0  0  0  0  0  0  0  0  0
    1.9631   -3.4440    0.0000 H   0  0  0  0  0  0  0  0  0  0  0  0
    3.3291   -2.1900    0.0000 H   0  0  0  0  0  0  0  0  0  0  0  0
    5.9081   -4.0369    0.0000 H   0  0  0  0  0  0  0  0  0  0  0  0
    6.1350   -3.1900    0.0000 H   0  0  0  0  0  0  0  0  0  0  0  0
    5.2881   -2.9631    0.0000 H   0  0  0  0  0  0  0  0  0  0  0  0
    5.2690   -2.3100    0.0000 H   0  0  0  0  0  0  0  0  0  0  0  0
    4.1760    0.0369    0.0000 H   0  0  0  0  0  0  0  0  0  0  0  0
    3.3291   -0.1900    0.0000 H   0  0  0  0  0  0  0  0  0  0  0  0
    3.5560   -1.0369    0.0000 H   0  0  0  0  0  0  0  0  0  0  0  0
    6.1350   -0.8100    0.0000 H   0  0  0  0  0  0  0  0  0  0  0  0
    5.0611    0.8100    0.0000 H   0  0  0  0  0  0  0  0  0  0  0  0
    7.0010    0.6900    0.0000 H   0  0  0  0  0  0  0  0  0  0  0  0
    5.9081    3.0369    0.0000 H   0  0  0  0  0  0  0  0  0  0  0  0
    5.0611    2.8100    0.0000 H   0  0  0  0  0  0  0  0  0  0  0  0
    5.2881    1.9631    0.0000 H   0  0  0  0  0  0  0  0  0  0  0  0
    7.8671    2.1900    0.0000 H   0  0  0  0  0  0  0  0  0  0  0  0
    6.7932    3.8100    0.0000 H   0  0  0  0  0  0  0  0  0  0  0  0
    8.7331    3.6900    0.0000 H   0  0  0  0  0  0  0  0  0  0  0  0
    7.6592    5.3100    0.0000 H   0  0  0  0  0  0  0  0  0  0  0  0
  1 23  2  0  0  0  0
  2  3  1  0  0  0  0
  2  5  1  0  0  0  0
  2  8  1  0  0  0  0
  2  9  1  0  0  0  0
  3  4  1  0  0  0  0
  3 24  1  0  0  0  0
  3 25  1  0  0  0  0
  4  6  1  0  0  0  0
  4 26  1  0  0  0  0
  4 27  1  0  0  0  0
  5  7  2  0  0  0  0
  5 10  1  0  0  0  0
  6  7  1  0  0  0  0
  6 28  1  0  0  0  0
  6 29  1  0  0  0  0
  7 11  1  0  0  0  0
  8 30  1  0  0  0  0
  8 31  1  0  0  0  0
  8 32  1  0  0  0  0
  9 33  1  0  0  0  0
  9 34  1  0  0  0  0
  9 35  1  0  0  0  0
 10 12  2  0  0  0  0
 10 36  1  0  0  0  0
 11 37  1  0  0  0  0
 11 38  1  0  0  0  0
 11 39  1  0  0  0  0
 12 13  1  0  0  0  0
 12 40  1  0  0  0  0
 13 14  1  0  0  0  0
 13 15  2  0  0  0  0
 14 41  1  0  0  0  0
 14 42  1  0  0  0  0
 14 43  1  0  0  0  0
 15 16  1  0  0  0  0
 15 44  1  0  0  0  0
 16 17  2  0  0  0  0
 16 45  1  0  0  0  0
 17 18  1  0  0  0  0
 17 46  1  0  0  0  0
 18 19  1  0  0  0  0
 18 20  2  0  0  0  0
 19 47  1  0  0  0  0
 19 48  1  0  0  0  0
 19 49  1  0  0  0  0
 20 21  1  0  0  0  0
 20 50  1  0  0  0  0
 21 22  2  0  0  0  0
 21 51  1  0  0  0  0
 22 23  1  0  0  0  0
 22 52  1  0  0  0  0
 23 53  1  0  0  0  0
M  END
> <PUBCHEM_COMPOUND_CID>
5280992

> <PUBCHEM_COMPOUND_CANONICALIZED>
1

> <PUBCHEM_CACTVS_COMPLEXITY>
590

> <PUBCHEM_CACTVS_HBOND_ACCEPTOR>
1

> <PUBCHEM_CACTVS_HBOND_DONOR>
0

> <PUBCHEM_CACTVS_ROTATABLE_BOND>
6

> <PUBCHEM_CACTVS_SUBSKEYS>
AAADceB4IAAAAAAAAAAAAAAAAAAAAAAAAAAgAAAAAAAAAAAAAAAAGgAAAAAADgCggAICAAAAAACIAihSgAAAAAAgAAAICAAAAEgIAAIAAQAAAAAAgAAIgYMAgMAPAAAAAAAAAAAAAAAAAAAAAAAAAAAAAA==

> <PUBCHEM_IUPAC_OPENEYE_NAME>
(2E,4E,6E,8E,10E)-5,9-dimethyl-11-(2,6,6-trimethylcyclohexen-1-yl)undeca-2,4,6,8,10-pentaenal

> <PUBCHEM_IUPAC_CAS_NAME>
(2E,4E,6E,8E,10E)-5,9-dimethyl-11-(2,6,6-trimethyl-1-cyclohexenyl)undeca-2,4,6,8,10-pentaenal

> <PUBCHEM_IUPAC_NAME>
(2E,4E,6E,8E,10E)-5,9-dimethyl-11-(2,6,6-trimethylcyclohexen-1-yl)undeca-2,4,6,8,10-pentaenal

> <PUBCHEM_IUPAC_SYSTEMATIC_NAME>
(2E,4E,6E,8E,10E)-5,9-dimethyl-11-(2,6,6-trimethylcyclohexen-1-yl)undeca-2,4,6,8,10-pentaenal

> <PUBCHEM_IUPAC_TRADITIONAL_NAME>
(2E,4E,6E,8E,10E)-5,9-dimethyl-11-(2,6,6-trimethylcyclohexen-1-yl)undeca-2,4,6,8,10-pentaenal

> <PUBCHEM_IUPAC_INCHI>
InChI=1S/C22H30O/c1-18(10-6-7-17-23)11-8-12-19(2)14-15-21-20(3)13-9-16-22(21,4)5/h6-8,10-12,14-15,17H,9,13,16H2,1-5H3/b7-6+,11-8+,15-14+,18-10+,19-12+

> <PUBCHEM_IUPAC_INCHIKEY>
NGISIFNAHMKVQR-SSRYJDFZSA-N

> <PUBCHEM_XLOGP3>
6.5

> <PUBCHEM_EXACT_MASS>
310.229666

> <PUBCHEM_MOLECULAR_FORMULA>
C22H30O

> <PUBCHEM_MOLECULAR_WEIGHT>
310.473

> <PUBCHEM_OPENEYE_CAN_SMILES>
CC1=C(C(CCC1)(C)C)C=CC(=CC=CC(=CC=CC=O)C)C

> <PUBCHEM_OPENEYE_ISO_SMILES>
CC1=C(C(CCC1)(C)C)/C=C/C(=C/C=C/C(=C/C=C/C=O)/C)/C

> <PUBCHEM_CACTVS_TPSA>
17.1

> <PUBCHEM_MONOISOTOPIC_WEIGHT>
310.229666

> <PUBCHEM_TOTAL_CHARGE>
0

> <PUBCHEM_HEAVY_ATOM_COUNT>
23

> <PUBCHEM_ATOM_DEF_STEREO_COUNT>
0

> <PUBCHEM_ATOM_UDEF_STEREO_COUNT>
0

> <PUBCHEM_BOND_DEF_STEREO_COUNT>
5

> <PUBCHEM_BOND_UDEF_STEREO_COUNT>
0

> <PUBCHEM_ISOTOPIC_ATOM_COUNT>
0

> <PUBCHEM_COMPONENT_COUNT>
1

> <PUBCHEM_CACTVS_TAUTO_COUNT>
4

> <PUBCHEM_COORDINATE_TYPE>
1
5
255

$$$$

