61744
  -OEChem-07051212462D

  6  5  0     0  0  0  0  0  0999 V2000
    4.5981    0.5600    0.0000 O   0  0  0  0  0  0  0  0  0  0  0  0
    2.0000    0.0600    0.0000 O   0  0  0  0  0  0  0  0  0  0  0  0
    3.7320    0.0600    0.0000 N   0  0  0  0  0  0  0  0  0  0  0  0
    2.8660    0.5600    0.0000 N   0  0  0  0  0  0  0  0  0  0  0  0
    3.7320   -0.5600    0.0000 H   0  0  0  0  0  0  0  0  0  0  0  0
    5.1350    0.2500    0.0000 H   0  0  0  0  0  0  0  0  0  0  0  0
  1  3  1  0  0  0  0
  1  6  1  0  0  0  0
  2  4  2  0  0  0  0
  3  4  1  0  0  0  0
  3  5  1  0  0  0  0
M  END
> <PUBCHEM_COMPOUND_CID>
61744

> <PUBCHEM_COMPOUND_CANONICALIZED>
1

> <PUBCHEM_CACTVS_COMPLEXITY>
18

> <PUBCHEM_CACTVS_HBOND_ACCEPTOR>
4

> <PUBCHEM_CACTVS_HBOND_DONOR>
2

> <PUBCHEM_CACTVS_ROTATABLE_BOND>
0

> <PUBCHEM_CACTVS_SUBSKEYS>
AAADcQADMAAAAAAAAAAAAAAAAAAAAAAAAAAAAAAAAAAAAAAAAAAAAAAcCAAAAAAAAAAAAAACAAABAAAAAAAAAAAAAAAAAAAAAAAAAAAAAAAAAAAAAAAAAAAAAAAAAAAAAAAAAAAAAAAAAAAAAAAAAAAAAA==

> <PUBCHEM_IUPAC_OPENEYE_NAME>
N-hydroxynitrous amide

> <PUBCHEM_IUPAC_CAS_NAME>
N-hydroxynitrous amide

> <PUBCHEM_IUPAC_NAME>
N-hydroxynitrous amide

> <PUBCHEM_IUPAC_SYSTEMATIC_NAME>
N-oxidanylnitrous amide

> <PUBCHEM_IUPAC_TRADITIONAL_NAME>
N-hydroxynitrous amide

> <PUBCHEM_IUPAC_INCHI>
InChI=1S/H2N2O2/c3-1-2-4/h(H,1,4)(H,2,3)

> <PUBCHEM_IUPAC_INCHIKEY>
NFMHSPWHNQRFNR-UHFFFAOYSA-N

> <PUBCHEM_XLOGP3_AA>
-0.4

> <PUBCHEM_EXACT_MASS>
62.011627

> <PUBCHEM_MOLECULAR_FORMULA>
H2N2O2

> <PUBCHEM_MOLECULAR_WEIGHT>
62.02808

> <PUBCHEM_OPENEYE_CAN_SMILES>
N(N=O)O

> <PUBCHEM_OPENEYE_ISO_SMILES>
N(N=O)O

> <PUBCHEM_CACTVS_TPSA>
61.7

> <PUBCHEM_MONOISOTOPIC_WEIGHT>
62.011627

> <PUBCHEM_TOTAL_CHARGE>
0

> <PUBCHEM_HEAVY_ATOM_COUNT>
4

> <PUBCHEM_ATOM_DEF_STEREO_COUNT>
0

> <PUBCHEM_ATOM_UDEF_STEREO_COUNT>
0

> <PUBCHEM_BOND_DEF_STEREO_COUNT>
0

> <PUBCHEM_BOND_UDEF_STEREO_COUNT>
0

> <PUBCHEM_ISOTOPIC_ATOM_COUNT>
0

> <PUBCHEM_COMPONENT_COUNT>
1

> <PUBCHEM_CACTVS_TAUTO_COUNT>
2

> <PUBCHEM_COORDINATE_TYPE>
1
5
255

$$$$

