583036
  -OEChem-06241222442D

 72 75  0     1  0  0  0  0  0999 V2000
    8.2788   -1.0337    0.0000 O   0  0  0  0  0  0  0  0  0  0  0  0
    6.5000    2.5924    0.0000 O   0  0  0  0  0  0  0  0  0  0  0  0
    5.0000   -1.0057    0.0000 O   0  0  0  0  0  0  0  0  0  0  0  0
    5.0000    0.7263    0.0000 O   0  0  0  0  0  0  0  0  0  0  0  0
    7.0000   -2.7378    0.0000 O   0  0  0  0  0  0  0  0  0  0  0  0
    5.5000   -1.8717    0.0000 O   0  0  0  0  0  0  0  0  0  0  0  0
    9.5388    1.2264    0.0000 N   0  0  3  0  0  0  0  0  0  0  0  0
    8.0000    0.7263    0.0000 N   0  0  0  0  0  0  0  0  0  0  0  0
    7.0000    0.7263    0.0000 N   0  0  0  0  0  0  0  0  0  0  0  0
    8.0526    3.1826    0.0000 N   0  0  0  0  0  0  0  0  0  0  0  0
    9.5388    0.2263    0.0000 C   0  0  3  0  0  0  0  0  0  0  0  0
    8.5878    1.5354    0.0000 C   0  0  3  0  0  0  0  0  0  0  0  0
   10.4851   -0.0784    0.0000 C   0  0  0  0  0  0  0  0  0  0  0  0
   10.4851    1.5311    0.0000 C   0  0  0  0  0  0  0  0  0  0  0  0
   11.0687    0.7263    0.0000 C   0  0  0  0  0  0  0  0  0  0  0  0
    8.5878   -0.0827    0.0000 C   0  0  0  0  0  0  0  0  0  0  0  0
    8.7957    2.5135    0.0000 C   0  0  0  0  0  0  0  0  0  0  0  0
    6.5000   -0.1397    0.0000 C   0  0  3  0  0  0  0  0  0  0  0  0
    6.5000    1.5924    0.0000 C   0  0  0  0  0  0  0  0  0  0  0  0
    9.7468    2.8225    0.0000 C   0  0  0  0  0  0  0  0  0  0  0  0
    7.0000   -1.0057    0.0000 C   0  0  0  0  0  0  0  0  0  0  0  0
    5.5000    1.5924    0.0000 C   0  0  0  0  0  0  0  0  0  0  0  0
    5.5000   -0.1397    0.0000 C   0  0  0  0  0  0  0  0  0  0  0  0
    9.9547    3.8007    0.0000 C   0  0  0  0  0  0  0  0  0  0  0  0
    8.2605    4.1608    0.0000 C   0  0  0  0  0  0  0  0  0  0  0  0
    5.0000    2.4584    0.0000 C   0  0  0  0  0  0  0  0  0  0  0  0
    9.2115    4.4698    0.0000 C   0  0  0  0  0  0  0  0  0  0  0  0
    6.5000   -1.8717    0.0000 C   0  0  0  0  0  0  0  0  0  0  0  0
    4.0000    2.4584    0.0000 C   0  0  0  0  0  0  0  0  0  0  0  0
    4.0000   -1.0057    0.0000 C   0  0  0  0  0  0  0  0  0  0  0  0
    3.5000    3.3244    0.0000 C   0  0  0  0  0  0  0  0  0  0  0  0
    3.5000    1.5924    0.0000 C   0  0  0  0  0  0  0  0  0  0  0  0
    6.5000   -3.6038    0.0000 C   0  0  0  0  0  0  0  0  0  0  0  0
    3.5000   -1.8717    0.0000 C   0  0  0  0  0  0  0  0  0  0  0  0
    2.5000    3.3244    0.0000 C   0  0  0  0  0  0  0  0  0  0  0  0
    2.5000    1.5924    0.0000 C   0  0  0  0  0  0  0  0  0  0  0  0
    2.0000    2.4584    0.0000 C   0  0  0  0  0  0  0  0  0  0  0  0
    7.0000   -4.4698    0.0000 C   0  0  0  0  0  0  0  0  0  0  0  0
    9.5396   -0.3937    0.0000 H   0  0  0  0  0  0  0  0  0  0  0  0
    8.0214    1.7875    0.0000 H   0  0  0  0  0  0  0  0  0  0  0  0
   10.2340   -0.6453    0.0000 H   0  0  0  0  0  0  0  0  0  0  0  0
   11.0224   -0.3876    0.0000 H   0  0  0  0  0  0  0  0  0  0  0  0
   11.0224    1.8403    0.0000 H   0  0  0  0  0  0  0  0  0  0  0  0
   10.2340    2.0980    0.0000 H   0  0  0  0  0  0  0  0  0  0  0  0
   11.5295    0.3116    0.0000 H   0  0  0  0  0  0  0  0  0  0  0  0
   11.5295    1.1411    0.0000 H   0  0  0  0  0  0  0  0  0  0  0  0
    7.1200   -0.1397    0.0000 H   0  0  0  0  0  0  0  0  0  0  0  0
   10.2075    2.4077    0.0000 H   0  0  0  0  0  0  0  0  0  0  0  0
    7.4750   -1.4042    0.0000 H   0  0  0  0  0  0  0  0  0  0  0  0
    7.4750   -0.6072    0.0000 H   0  0  0  0  0  0  0  0  0  0  0  0
    4.9174    1.3803    0.0000 H   0  0  0  0  0  0  0  0  0  0  0  0
    5.6077    0.9818    0.0000 H   0  0  0  0  0  0  0  0  0  0  0  0
   10.5443    3.9923    0.0000 H   0  0  0  0  0  0  0  0  0  0  0  0
    7.7997    4.5757    0.0000 H   0  0  0  0  0  0  0  0  0  0  0  0
    5.5826    2.6705    0.0000 H   0  0  0  0  0  0  0  0  0  0  0  0
    4.8923    3.0690    0.0000 H   0  0  0  0  0  0  0  0  0  0  0  0
    9.3404    5.0763    0.0000 H   0  0  0  0  0  0  0  0  0  0  0  0
    4.1077   -0.3951    0.0000 H   0  0  0  0  0  0  0  0  0  0  0  0
    3.4174   -0.7937    0.0000 H   0  0  0  0  0  0  0  0  0  0  0  0
    3.8100    3.8614    0.0000 H   0  0  0  0  0  0  0  0  0  0  0  0
    3.8100    1.0554    0.0000 H   0  0  0  0  0  0  0  0  0  0  0  0
    6.0250   -3.2052    0.0000 H   0  0  0  0  0  0  0  0  0  0  0  0
    6.0250   -4.0023    0.0000 H   0  0  0  0  0  0  0  0  0  0  0  0
    2.9631   -1.5617    0.0000 H   0  0  0  0  0  0  0  0  0  0  0  0
    3.1900   -2.4087    0.0000 H   0  0  0  0  0  0  0  0  0  0  0  0
    4.0369   -2.1817    0.0000 H   0  0  0  0  0  0  0  0  0  0  0  0
    2.1900    3.8614    0.0000 H   0  0  0  0  0  0  0  0  0  0  0  0
    2.1900    1.0554    0.0000 H   0  0  0  0  0  0  0  0  0  0  0  0
    1.3800    2.4584    0.0000 H   0  0  0  0  0  0  0  0  0  0  0  0
    6.4631   -4.7798    0.0000 H   0  0  0  0  0  0  0  0  0  0  0  0
    7.3100   -5.0067    0.0000 H   0  0  0  0  0  0  0  0  0  0  0  0
    7.5369   -4.1598    0.0000 H   0  0  0  0  0  0  0  0  0  0  0  0
  1 16  2  0  0  0  0
  2 19  2  0  0  0  0
  3 23  1  0  0  0  0
  3 30  1  0  0  0  0
  4 23  2  0  0  0  0
  5 28  1  0  0  0  0
  5 33  1  0  0  0  0
  6 28  2  0  0  0  0
  7 11  1  0  0  0  0
  7 12  1  0  0  0  0
  7 14  1  0  0  0  0
  8  9  1  0  0  0  0
  8 12  1  0  0  0  0
  8 16  1  0  0  0  0
  9 18  1  0  0  0  0
  9 19  1  0  0  0  0
 10 17  1  0  0  0  0
 10 25  2  0  0  0  0
 11 13  1  0  0  0  0
 11 16  1  0  0  0  0
 11 39  1  0  0  0  0
 12 17  1  0  0  0  0
 12 40  1  0  0  0  0
 13 15  1  0  0  0  0
 13 41  1  0  0  0  0
 13 42  1  0  0  0  0
 14 15  1  0  0  0  0
 14 43  1  0  0  0  0
 14 44  1  0  0  0  0
 15 45  1  0  0  0  0
 15 46  1  0  0  0  0
 17 20  2  0  0  0  0
 18 21  1  0  0  0  0
 18 23  1  0  0  0  0
 18 47  1  0  0  0  0
 19 22  1  0  0  0  0
 20 24  1  0  0  0  0
 20 48  1  0  0  0  0
 21 28  1  0  0  0  0
 21 49  1  0  0  0  0
 21 50  1  0  0  0  0
 22 26  1  0  0  0  0
 22 51  1  0  0  0  0
 22 52  1  0  0  0  0
 24 27  2  0  0  0  0
 24 53  1  0  0  0  0
 25 27  1  0  0  0  0
 25 54  1  0  0  0  0
 26 29  1  0  0  0  0
 26 55  1  0  0  0  0
 26 56  1  0  0  0  0
 27 57  1  0  0  0  0
 29 31  2  0  0  0  0
 29 32  1  0  0  0  0
 30 34  1  0  0  0  0
 30 58  1  0  0  0  0
 30 59  1  0  0  0  0
 31 35  1  0  0  0  0
 31 60  1  0  0  0  0
 32 36  2  0  0  0  0
 32 61  1  0  0  0  0
 33 38  1  0  0  0  0
 33 62  1  0  0  0  0
 33 63  1  0  0  0  0
 34 64  1  0  0  0  0
 34 65  1  0  0  0  0
 34 66  1  0  0  0  0
 35 37  2  0  0  0  0
 35 67  1  0  0  0  0
 36 37  1  0  0  0  0
 36 68  1  0  0  0  0
 37 69  1  0  0  0  0
 38 70  1  0  0  0  0
 38 71  1  0  0  0  0
 38 72  1  0  0  0  0
M  END
> <PUBCHEM_COMPOUND_CID>
583036

> <PUBCHEM_COMPOUND_CANONICALIZED>
1

> <PUBCHEM_CACTVS_COMPLEXITY>
847

> <PUBCHEM_CACTVS_HBOND_ACCEPTOR>
8

> <PUBCHEM_CACTVS_HBOND_DONOR>
0

> <PUBCHEM_CACTVS_ROTATABLE_BOND>
12

> <PUBCHEM_CACTVS_SUBSKEYS>
AAADcfB7uAAAAAAAAAAAAAAAAAAAAWLAAAA8QAAAAAAWAAABwAAAHgAIAAAADCjhngY/iJMIFACoAzX3XACCgCAxAiAe2CG4ZJiKYPrAkbGXIAhuhwLYyAdbiYCOAAAAAAAAAAAAAAAAAAAAAAAAAAAAAA==

> <PUBCHEM_IUPAC_OPENEYE_NAME>
diethyl 2-[[1-oxo-3-(2-pyridyl)-5,6,7,7a-tetrahydro-3H-pyrrolo[1,2-c]imidazol-2-yl]-(3-phenylpropanoyl)amino]butanedioate

> <PUBCHEM_IUPAC_CAS_NAME>
2-[(1-oxo-3-phenylpropyl)-[1-oxo-3-(2-pyridinyl)-5,6,7,7a-tetrahydro-3H-pyrrolo[1,2-c]imidazol-2-yl]amino]butanedioic acid diethyl ester

> <PUBCHEM_IUPAC_NAME>
diethyl 2-[(1-oxo-3-pyridin-2-yl-5,6,7,7a-tetrahydro-3H-pyrrolo[1,2-c]imidazol-2-yl)-(3-phenylpropanoyl)amino]butanedioate

> <PUBCHEM_IUPAC_SYSTEMATIC_NAME>
diethyl 2-[(1-oxidanylidene-3-pyridin-2-yl-5,6,7,7a-tetrahydro-3H-pyrrolo[1,2-c]imidazol-2-yl)-(3-phenylpropanoyl)amino]butanedioate

> <PUBCHEM_IUPAC_TRADITIONAL_NAME>
2-[hydrocinnamoyl-[1-keto-3-(2-pyridyl)-5,6,7,7a-tetrahydro-3H-pyrrol[1,2-c]imidazol-2-yl]amino]succinic acid diethyl ester

> <PUBCHEM_IUPAC_INCHI>
InChI=1S/C28H34N4O6/c1-3-37-25(34)19-23(28(36)38-4-2)31(24(33)16-15-20-11-6-5-7-12-20)32-26(21-13-8-9-17-29-21)30-18-10-14-22(30)27(32)35/h5-9,11-13,17,22-23,26H,3-4,10,14-16,18-19H2,1-2H3

> <PUBCHEM_IUPAC_INCHIKEY>
LLZLBJVVCQMTKN-UHFFFAOYSA-N

> <PUBCHEM_XLOGP3_AA>
2.8

> <PUBCHEM_EXACT_MASS>
522.247835

> <PUBCHEM_MOLECULAR_FORMULA>
C28H34N4O6

> <PUBCHEM_MOLECULAR_WEIGHT>
522.59276

> <PUBCHEM_OPENEYE_CAN_SMILES>
CCOC(=O)CC(C(=O)OCC)N(C(=O)CCC1=CC=CC=C1)N2C(N3CCCC3C2=O)C4=CC=CC=N4

> <PUBCHEM_OPENEYE_ISO_SMILES>
CCOC(=O)CC(C(=O)OCC)N(C(=O)CCC1=CC=CC=C1)N2C(N3CCCC3C2=O)C4=CC=CC=N4

> <PUBCHEM_CACTVS_TPSA>
109

> <PUBCHEM_MONOISOTOPIC_WEIGHT>
522.247835

> <PUBCHEM_TOTAL_CHARGE>
0

> <PUBCHEM_HEAVY_ATOM_COUNT>
38

> <PUBCHEM_ATOM_DEF_STEREO_COUNT>
0

> <PUBCHEM_ATOM_UDEF_STEREO_COUNT>
3

> <PUBCHEM_BOND_DEF_STEREO_COUNT>
0

> <PUBCHEM_BOND_UDEF_STEREO_COUNT>
0

> <PUBCHEM_ISOTOPIC_ATOM_COUNT>
0

> <PUBCHEM_COMPONENT_COUNT>
1

> <PUBCHEM_CACTVS_TAUTO_COUNT>
2

> <PUBCHEM_COORDINATE_TYPE>
1
5
255

> <PUBCHEM_BONDANNOTATIONS>
10  17  8
10  25  8
11  13  3
12  17  3
17  20  8
18  21  3
20  24  8
24  27  8
25  27  8
29  31  8
29  32  8
31  35  8
32  36  8
35  37  8
36  37  8

$$$$

