17396468
  -OEChem-06241222562D

 50 51  0     1  0  0  0  0  0999 V2000
    4.5388   -1.1198    0.0000 O   0  0  0  0  0  0  0  0  0  0  0  0
    3.4511    2.2281    0.0000 O   0  0  0  0  0  0  0  0  0  0  0  0
    4.6759    2.5966    0.0000 O   0  0  0  0  0  0  0  0  0  0  0  0
    7.7370    4.5018    0.0000 O   0  0  0  0  0  0  0  0  0  0  0  0
    2.6420    0.6403    0.0000 N   0  0  0  0  0  0  0  0  0  0  0  0
    4.2601    0.6403    0.0000 N   0  0  0  0  0  0  0  0  0  0  0  0
    6.3701    2.2364    0.0000 N   0  0  0  0  0  0  0  0  0  0  0  0
    2.9511   -0.3108    0.0000 C   0  0  3  0  0  0  0  0  0  0  0  0
    2.9511   -1.3108    0.0000 C   0  0  0  0  0  0  0  0  0  0  0  0
    3.9511   -0.3108    0.0000 C   0  0  0  0  0  0  0  0  0  0  0  0
    2.0000   -0.6198    0.0000 C   0  0  0  0  0  0  0  0  0  0  0  0
    3.4511    1.2281    0.0000 C   0  0  0  0  0  0  0  0  0  0  0  0
    2.0850   -1.8108    0.0000 C   0  0  0  0  0  0  0  0  0  0  0  0
    3.8171   -1.8108    0.0000 C   0  0  0  0  0  0  0  0  0  0  0  0
    5.2111    0.9493    0.0000 C   0  0  0  0  0  0  0  0  0  0  0  0
    2.9511   -3.3108    0.0000 C   0  0  0  0  0  0  0  0  0  0  0  0
    2.9511   -4.3108    0.0000 C   0  0  0  0  0  0  0  0  0  0  0  0
    2.0850   -2.8108    0.0000 C   0  0  0  0  0  0  0  0  0  0  0  0
    3.8171   -2.8108    0.0000 C   0  0  0  0  0  0  0  0  0  0  0  0
    5.4190    1.9274    0.0000 C   0  0  0  0  0  0  0  0  0  0  0  0
    2.0850   -4.8108    0.0000 C   0  0  0  0  0  0  0  0  0  0  0  0
    3.8171   -4.8108    0.0000 C   0  0  0  0  0  0  0  0  0  0  0  0
    6.5780    3.2146    0.0000 C   0  0  0  0  0  0  0  0  0  0  0  0
    7.5291    3.5236    0.0000 C   0  0  0  0  0  0  0  0  0  0  0  0
    8.6880    4.8108    0.0000 C   0  0  0  0  0  0  0  0  0  0  0  0
    2.0524    0.8319    0.0000 H   0  0  0  0  0  0  0  0  0  0  0  0
    1.8084   -0.0301    0.0000 H   0  0  0  0  0  0  0  0  0  0  0  0
    1.4103   -0.8114    0.0000 H   0  0  0  0  0  0  0  0  0  0  0  0
    2.1916   -1.2095    0.0000 H   0  0  0  0  0  0  0  0  0  0  0  0
    1.5481   -1.5008    0.0000 H   0  0  0  0  0  0  0  0  0  0  0  0
    4.3540   -1.5008    0.0000 H   0  0  0  0  0  0  0  0  0  0  0  0
    5.2974    0.3353    0.0000 H   0  0  0  0  0  0  0  0  0  0  0  0
    5.8308    0.9277    0.0000 H   0  0  0  0  0  0  0  0  0  0  0  0
    2.9511   -4.9308    0.0000 H   0  0  0  0  0  0  0  0  0  0  0  0
    1.5481   -3.1208    0.0000 H   0  0  0  0  0  0  0  0  0  0  0  0
    4.3540   -3.1208    0.0000 H   0  0  0  0  0  0  0  0  0  0  0  0
    3.5071   -5.3477    0.0000 H   0  0  0  0  0  0  0  0  0  0  0  0
    1.7750   -4.2739    0.0000 H   0  0  0  0  0  0  0  0  0  0  0  0
    1.5481   -5.1208    0.0000 H   0  0  0  0  0  0  0  0  0  0  0  0
    2.3950   -5.3477    0.0000 H   0  0  0  0  0  0  0  0  0  0  0  0
    4.3540   -5.1208    0.0000 H   0  0  0  0  0  0  0  0  0  0  0  0
    4.1271   -4.2739    0.0000 H   0  0  0  0  0  0  0  0  0  0  0  0
    6.8308    1.8216    0.0000 H   0  0  0  0  0  0  0  0  0  0  0  0
    6.4917    3.8286    0.0000 H   0  0  0  0  0  0  0  0  0  0  0  0
    5.9584    3.2362    0.0000 H   0  0  0  0  0  0  0  0  0  0  0  0
    7.6154    2.9096    0.0000 H   0  0  0  0  0  0  0  0  0  0  0  0
    8.1487    3.5020    0.0000 H   0  0  0  0  0  0  0  0  0  0  0  0
    8.8796    4.2211    0.0000 H   0  0  0  0  0  0  0  0  0  0  0  0
    9.2777    5.0024    0.0000 H   0  0  0  0  0  0  0  0  0  0  0  0
    8.4964    5.4004    0.0000 H   0  0  0  0  0  0  0  0  0  0  0  0
  1 10  2  0  0  0  0
  2 12  2  0  0  0  0
  3 20  2  0  0  0  0
  4 24  1  0  0  0  0
  4 25  1  0  0  0  0
  5  8  1  0  0  0  0
  5 12  1  0  0  0  0
  5 26  1  0  0  0  0
  6 10  1  0  0  0  0
  6 12  1  0  0  0  0
  6 15  1  0  0  0  0
  7 20  1  0  0  0  0
  7 23  1  0  0  0  0
  7 43  1  0  0  0  0
  8  9  1  0  0  0  0
  8 10  1  0  0  0  0
  8 11  1  0  0  0  0
  9 13  2  0  0  0  0
  9 14  1  0  0  0  0
 11 27  1  0  0  0  0
 11 28  1  0  0  0  0
 11 29  1  0  0  0  0
 13 18  1  0  0  0  0
 13 30  1  0  0  0  0
 14 19  2  0  0  0  0
 14 31  1  0  0  0  0
 15 20  1  0  0  0  0
 15 32  1  0  0  0  0
 15 33  1  0  0  0  0
 16 17  1  0  0  0  0
 16 18  2  0  0  0  0
 16 19  1  0  0  0  0
 17 21  1  0  0  0  0
 17 22  1  0  0  0  0
 17 34  1  0  0  0  0
 18 35  1  0  0  0  0
 19 36  1  0  0  0  0
 21 38  1  0  0  0  0
 21 39  1  0  0  0  0
 21 40  1  0  0  0  0
 22 37  1  0  0  0  0
 22 41  1  0  0  0  0
 22 42  1  0  0  0  0
 23 24  1  0  0  0  0
 23 44  1  0  0  0  0
 23 45  1  0  0  0  0
 24 46  1  0  0  0  0
 24 47  1  0  0  0  0
 25 48  1  0  0  0  0
 25 49  1  0  0  0  0
 25 50  1  0  0  0  0
M  END
> <PUBCHEM_COMPOUND_CID>
17396468

> <PUBCHEM_COMPOUND_CANONICALIZED>
1

> <PUBCHEM_CACTVS_COMPLEXITY>
515

> <PUBCHEM_CACTVS_HBOND_ACCEPTOR>
4

> <PUBCHEM_CACTVS_HBOND_DONOR>
2

> <PUBCHEM_CACTVS_ROTATABLE_BOND>
7

> <PUBCHEM_CACTVS_SUBSKEYS>
AAADceB7OAAAAAAAAAAAAAAAAAAAAWAAAAAwAAAAAAAAAAABAAAAHgAQAAAADYjhmAYzAIPABACIAiFSEACCAAAgAAAIiIGIBIiKYDKAlTGVIAholyKYiAcYiMCOwAAAAAAAAACAAAAAAAAAAAAAAAAAAA==

> <PUBCHEM_IUPAC_OPENEYE_NAME>
2-[4-(4-isopropylphenyl)-4-methyl-2,5-dioxo-imidazolidin-1-yl]-N-(2-methoxyethyl)acetamide

> <PUBCHEM_IUPAC_CAS_NAME>
N-(2-methoxyethyl)-2-[4-methyl-2,5-dioxo-4-(4-propan-2-ylphenyl)-1-imidazolidinyl]acetamide

> <PUBCHEM_IUPAC_NAME>
N-(2-methoxyethyl)-2-[4-methyl-2,5-dioxo-4-(4-propan-2-ylphenyl)imidazolidin-1-yl]acetamide

> <PUBCHEM_IUPAC_SYSTEMATIC_NAME>
N-(2-methoxyethyl)-2-[4-methyl-2,5-bis(oxidanylidene)-4-(4-propan-2-ylphenyl)imidazolidin-1-yl]ethanamide

> <PUBCHEM_IUPAC_TRADITIONAL_NAME>
2-(2,5-diketo-4-methyl-4-p-cumenyl-imidazolidin-1-yl)-N-(2-methoxyethyl)acetamide

> <PUBCHEM_IUPAC_INCHI>
InChI=1S/C18H25N3O4/c1-12(2)13-5-7-14(8-6-13)18(3)16(23)21(17(24)20-18)11-15(22)19-9-10-25-4/h5-8,12H,9-11H2,1-4H3,(H,19,22)(H,20,24)

> <PUBCHEM_IUPAC_INCHIKEY>
OXLPNOHVIQSWSA-UHFFFAOYSA-N

> <PUBCHEM_XLOGP3_AA>
1.3

> <PUBCHEM_EXACT_MASS>
347.184506

> <PUBCHEM_MOLECULAR_FORMULA>
C18H25N3O4

> <PUBCHEM_MOLECULAR_WEIGHT>
347.4088

> <PUBCHEM_OPENEYE_CAN_SMILES>
CC(C)C1=CC=C(C=C1)C2(C(=O)N(C(=O)N2)CC(=O)NCCOC)C

> <PUBCHEM_OPENEYE_ISO_SMILES>
CC(C)C1=CC=C(C=C1)C2(C(=O)N(C(=O)N2)CC(=O)NCCOC)C

> <PUBCHEM_CACTVS_TPSA>
87.7

> <PUBCHEM_MONOISOTOPIC_WEIGHT>
347.184506

> <PUBCHEM_TOTAL_CHARGE>
0

> <PUBCHEM_HEAVY_ATOM_COUNT>
25

> <PUBCHEM_ATOM_DEF_STEREO_COUNT>
0

> <PUBCHEM_ATOM_UDEF_STEREO_COUNT>
1

> <PUBCHEM_BOND_DEF_STEREO_COUNT>
0

> <PUBCHEM_BOND_UDEF_STEREO_COUNT>
0

> <PUBCHEM_ISOTOPIC_ATOM_COUNT>
0

> <PUBCHEM_COMPONENT_COUNT>
1

> <PUBCHEM_CACTVS_TAUTO_COUNT>
4

> <PUBCHEM_COORDINATE_TYPE>
1
5
255

> <PUBCHEM_BONDANNOTATIONS>
13  18  8
14  19  8
16  18  8
16  19  8
8  11  3
9  13  8
9  14  8

$$$$

