5175
  -OEChem-06261200332D

 44 45  0     0  0  0  0  0  0999 V2000
    7.2125    5.0173    0.0000 Cl  0  0  0  0  0  0  0  0  0  0  0  0
    5.4641    0.9827    0.0000 S   0  0  0  0  0  0  0  0  0  0  0  0
    4.4641    0.9827    0.0000 O   0  0  0  0  0  0  0  0  0  0  0  0
    6.4641    0.9827    0.0000 O   0  0  0  0  0  0  0  0  0  0  0  0
    5.4641   -0.0173    0.0000 N   0  0  0  0  0  0  0  0  0  0  0  0
    3.7320   -2.0173    0.0000 C   0  0  0  0  0  0  0  0  0  0  0  0
    4.5981   -1.5173    0.0000 C   0  0  0  0  0  0  0  0  0  0  0  0
    3.7320   -3.0173    0.0000 C   0  0  0  0  0  0  0  0  0  0  0  0
    4.5981   -0.5173    0.0000 C   0  0  0  0  0  0  0  0  0  0  0  0
    2.8660   -3.5173    0.0000 C   0  0  0  0  0  0  0  0  0  0  0  0
    2.8660   -4.5173    0.0000 C   0  0  0  0  0  0  0  0  0  0  0  0
    5.4641    1.9827    0.0000 C   0  0  0  0  0  0  0  0  0  0  0  0
    6.3301    2.4827    0.0000 C   0  0  0  0  0  0  0  0  0  0  0  0
    6.3301    3.4827    0.0000 C   0  0  0  0  0  0  0  0  0  0  0  0
    2.0000   -5.0173    0.0000 C   0  0  0  0  0  0  0  0  0  0  0  0
    4.5981    2.4827    0.0000 C   0  0  0  0  0  0  0  0  0  0  0  0
    7.2241    1.9480    0.0000 C   0  0  0  0  0  0  0  0  0  0  0  0
    5.4641    3.9827    0.0000 C   0  0  0  0  0  0  0  0  0  0  0  0
    4.5981    3.4827    0.0000 C   0  0  0  0  0  0  0  0  0  0  0  0
    7.2241    4.0174    0.0000 C   0  0  0  0  0  0  0  0  0  0  0  0
    8.1301    2.4619    0.0000 C   0  0  0  0  0  0  0  0  0  0  0  0
    8.1301    3.5035    0.0000 C   0  0  0  0  0  0  0  0  0  0  0  0
    3.5200   -1.4347    0.0000 H   0  0  0  0  0  0  0  0  0  0  0  0
    3.1215   -2.1250    0.0000 H   0  0  0  0  0  0  0  0  0  0  0  0
    4.8101   -2.0999    0.0000 H   0  0  0  0  0  0  0  0  0  0  0  0
    5.2087   -1.4096    0.0000 H   0  0  0  0  0  0  0  0  0  0  0  0
    3.9441   -3.5999    0.0000 H   0  0  0  0  0  0  0  0  0  0  0  0
    4.3426   -2.9096    0.0000 H   0  0  0  0  0  0  0  0  0  0  0  0
    4.3860    0.0653    0.0000 H   0  0  0  0  0  0  0  0  0  0  0  0
    3.9875   -0.6250    0.0000 H   0  0  0  0  0  0  0  0  0  0  0  0
    2.6540   -2.9347    0.0000 H   0  0  0  0  0  0  0  0  0  0  0  0
    2.2554   -3.6250    0.0000 H   0  0  0  0  0  0  0  0  0  0  0  0
    6.0010   -0.3273    0.0000 H   0  0  0  0  0  0  0  0  0  0  0  0
    3.0781   -5.0999    0.0000 H   0  0  0  0  0  0  0  0  0  0  0  0
    3.4766   -4.4096    0.0000 H   0  0  0  0  0  0  0  0  0  0  0  0
    1.6900   -4.4804    0.0000 H   0  0  0  0  0  0  0  0  0  0  0  0
    1.4631   -5.3273    0.0000 H   0  0  0  0  0  0  0  0  0  0  0  0
    2.3100   -5.5542    0.0000 H   0  0  0  0  0  0  0  0  0  0  0  0
    4.0611    2.1727    0.0000 H   0  0  0  0  0  0  0  0  0  0  0  0
    7.2169    1.3281    0.0000 H   0  0  0  0  0  0  0  0  0  0  0  0
    5.4641    4.6027    0.0000 H   0  0  0  0  0  0  0  0  0  0  0  0
    4.0611    3.7927    0.0000 H   0  0  0  0  0  0  0  0  0  0  0  0
    8.6659    2.1498    0.0000 H   0  0  0  0  0  0  0  0  0  0  0  0
    8.6659    3.8156    0.0000 H   0  0  0  0  0  0  0  0  0  0  0  0
  1 20  1  0  0  0  0
  2  3  2  0  0  0  0
  2  4  2  0  0  0  0
  2  5  1  0  0  0  0
  2 12  1  0  0  0  0
  5  9  1  0  0  0  0
  5 33  1  0  0  0  0
  6  7  1  0  0  0  0
  6  8  1  0  0  0  0
  6 23  1  0  0  0  0
  6 24  1  0  0  0  0
  7  9  1  0  0  0  0
  7 25  1  0  0  0  0
  7 26  1  0  0  0  0
  8 10  1  0  0  0  0
  8 27  1  0  0  0  0
  8 28  1  0  0  0  0
  9 29  1  0  0  0  0
  9 30  1  0  0  0  0
 10 11  1  0  0  0  0
 10 31  1  0  0  0  0
 10 32  1  0  0  0  0
 11 15  1  0  0  0  0
 11 34  1  0  0  0  0
 11 35  1  0  0  0  0
 12 13  1  0  0  0  0
 12 16  2  0  0  0  0
 13 14  2  0  0  0  0
 13 17  1  0  0  0  0
 14 18  1  0  0  0  0
 14 20  1  0  0  0  0
 15 36  1  0  0  0  0
 15 37  1  0  0  0  0
 15 38  1  0  0  0  0
 16 19  1  0  0  0  0
 16 39  1  0  0  0  0
 17 21  2  0  0  0  0
 17 40  1  0  0  0  0
 18 19  2  0  0  0  0
 18 41  1  0  0  0  0
 19 42  1  0  0  0  0
 20 22  2  0  0  0  0
 21 22  1  0  0  0  0
 21 43  1  0  0  0  0
 22 44  1  0  0  0  0
M  END
> <PUBCHEM_COMPOUND_CID>
5175

> <PUBCHEM_COMPOUND_CANONICALIZED>
1

> <PUBCHEM_CACTVS_COMPLEXITY>
421

> <PUBCHEM_CACTVS_HBOND_ACCEPTOR>
3

> <PUBCHEM_CACTVS_HBOND_DONOR>
1

> <PUBCHEM_CACTVS_ROTATABLE_BOND>
8

> <PUBCHEM_CACTVS_SUBSKEYS>
AAADceB6MABEAAAAAAAAAAAAAAAAAAAAAAAwYAAAAAAAAADBUAAAHAYQQAAADALBWCQyAcBAAAKAAiBCAHBCABAgBQAIiJgAAogIICKBkxCAIAAgkAAIiAcQgIAOgAAAoAAVAAAAAAFAACoAAAAAAAAAAA==

> <PUBCHEM_IUPAC_OPENEYE_NAME>
5-chloro-N-heptyl-naphthalene-1-sulfonamide

> <PUBCHEM_IUPAC_CAS_NAME>
5-chloro-N-heptyl-1-naphthalenesulfonamide

> <PUBCHEM_IUPAC_NAME>
5-chloro-N-heptylnaphthalene-1-sulfonamide

> <PUBCHEM_IUPAC_SYSTEMATIC_NAME>
5-chloranyl-N-heptyl-naphthalene-1-sulfonamide

> <PUBCHEM_IUPAC_TRADITIONAL_NAME>
5-chloro-N-heptyl-naphthalene-1-sulfonamide

> <PUBCHEM_IUPAC_INCHI>
InChI=1S/C17H22ClNO2S/c1-2-3-4-5-6-13-19-22(20,21)17-12-8-9-14-15(17)10-7-11-16(14)18/h7-12,19H,2-6,13H2,1H3

> <PUBCHEM_IUPAC_INCHIKEY>
MJMJERJFCHYXEM-UHFFFAOYSA-N

> <PUBCHEM_XLOGP3_AA>
5.6

> <PUBCHEM_EXACT_MASS>
339.105978

> <PUBCHEM_MOLECULAR_FORMULA>
C17H22ClNO2S

> <PUBCHEM_MOLECULAR_WEIGHT>
339.88008

> <PUBCHEM_OPENEYE_CAN_SMILES>
CCCCCCCNS(=O)(=O)C1=CC=CC2=C1C=CC=C2Cl

> <PUBCHEM_OPENEYE_ISO_SMILES>
CCCCCCCNS(=O)(=O)C1=CC=CC2=C1C=CC=C2Cl

> <PUBCHEM_CACTVS_TPSA>
54.6

> <PUBCHEM_MONOISOTOPIC_WEIGHT>
339.105978

> <PUBCHEM_TOTAL_CHARGE>
0

> <PUBCHEM_HEAVY_ATOM_COUNT>
22

> <PUBCHEM_ATOM_DEF_STEREO_COUNT>
0

> <PUBCHEM_ATOM_UDEF_STEREO_COUNT>
0

> <PUBCHEM_BOND_DEF_STEREO_COUNT>
0

> <PUBCHEM_BOND_UDEF_STEREO_COUNT>
0

> <PUBCHEM_ISOTOPIC_ATOM_COUNT>
0

> <PUBCHEM_COMPONENT_COUNT>
1

> <PUBCHEM_CACTVS_TAUTO_COUNT>
1

> <PUBCHEM_COORDINATE_TYPE>
1
5
255

> <PUBCHEM_BONDANNOTATIONS>
12  13  8
12  16  8
13  14  8
13  17  8
14  18  8
14  20  8
16  19  8
17  21  8
18  19  8
20  22  8
21  22  8

$$$$

