   Boiling Point
        160-170 deg C at 0.3 mm Hg
   from [1]HSDB

   Dissociation Constants
        pKa = 8.98 (amine) (est)
   from [2]HSDB

   Octanol/Water Partition Coefficient
        log Kow = 5.19
   from [3]HSDB

   Solubilities
        In water, 0.293 mg/L at 25 deg C (est)
   from [4]HSDB

   Vapor Pressure
        4.07X10-7 mm Hg at 25 deg C (est)
   from [5]HSDB

   Other Chemical/Physical Properties

     * Crystals from acetone-ether/methanol-ether. MW 351.31. MP 189-190
       deg C ...; also reported as crystals from acetone; mp 191-5-192 deg
       C... Freely soluble in water, methanol, methylene chloride;
       practically insoluble in ethyl ether, benzene /Clomipramine
       hydrochloride/
     * Henry's Law constant = 7.48X10-9 atm-cu m/mol at 25 deg C (est)
     * Hydroxyl radical reaction rate constant = 2.94X10-10 cu
       cm/molec-sec at 25 deg C (est)

   from [6]HSDB

   Computed Properties
   Molecular Weight                  314.85232 [g/mol]
   Molecular Formula                 C[19]H[23]ClN[2]
   XLogP3                            5.2
   H-Bond Donor                      0
   H-Bond Acceptor                   2
   Rotatable Bond Count              4
   Exact Mass                        314.154976
   MonoIsotopic Mass                 314.154976
   Topological Polar Surface Area    6.5
   Heavy Atom Count                  22
   Formal Charge                     0
   Complexity                        346
   Isotope Atom Count                0
   Defined Atom Stereocenter Count   0
   Undefined Atom Stereocenter Count 0
   Defined Bond Stereocenter Count   0
   Undefined Bond Stereocenter Count 0
   Covalently-Bonded Unit Count      1
   Feature 3D Cation Count           2
   Feature 3D Ring Count             3
   Effective Rotor Count             4.6
   Conformer Sampling RMSD           0.8
   CID Conformer Count               [7]18

References

   1. http://toxnet.nlm.nih.gov/cgi-bin/sis/search/r?dbs+hsdb:@term+@rn+@rel+303-49-1
   2. http://toxnet.nlm.nih.gov/cgi-bin/sis/search/r?dbs+hsdb:@term+@rn+@rel+303-49-1
   3. http://toxnet.nlm.nih.gov/cgi-bin/sis/search/r?dbs+hsdb:@term+@rn+@rel+303-49-1
   4. http://toxnet.nlm.nih.gov/cgi-bin/sis/search/r?dbs+hsdb:@term+@rn+@rel+303-49-1
   5. http://toxnet.nlm.nih.gov/cgi-bin/sis/search/r?dbs+hsdb:@term+@rn+@rel+303-49-1
   6. http://toxnet.nlm.nih.gov/cgi-bin/sis/search/r?dbs+hsdb:@term+@rn+@rel+303-49-1
   7. http://pubchem.ncbi.nlm.nih.gov/vw3d/vw3d.cgi?cid=2801
