5282320
  -OEChem-07051213042D

 62 63  0     1  0  0  0  0  0999 V2000
    5.4646   -2.7396    0.0000 O   0  0  0  0  0  0  0  0  0  0  0  0
    2.0000   -3.7396    0.0000 O   0  0  0  0  0  0  0  0  0  0  0  0
   15.0981    3.8226    0.0000 O   0  0  0  0  0  0  0  0  0  0  0  0
    4.5981   -2.2396    0.0000 C   0  0  2  0  0  0  0  0  0  0  0  0
    4.5981   -3.2396    0.0000 C   0  0  1  0  0  0  0  0  0  0  0  0
    3.7320   -1.7396    0.0000 C   0  0  0  0  0  0  0  0  0  0  0  0
    3.7320   -3.7396    0.0000 C   0  0  0  0  0  0  0  0  0  0  0  0
    2.8660   -2.2396    0.0000 C   0  0  0  0  0  0  0  0  0  0  0  0
    2.8660   -3.2396    0.0000 C   0  0  2  0  0  0  0  0  0  0  0  0
    4.5981   -4.2396    0.0000 C   0  0  0  0  0  0  0  0  0  0  0  0
    5.0981   -1.3735    0.0000 C   0  0  0  0  0  0  0  0  0  0  0  0
    2.8660   -1.2396    0.0000 C   0  0  0  0  0  0  0  0  0  0  0  0
    3.7320   -0.7396    0.0000 C   0  0  0  0  0  0  0  0  0  0  0  0
    6.0981   -1.3735    0.0000 C   0  0  0  0  0  0  0  0  0  0  0  0
    6.5981   -0.5075    0.0000 C   0  0  0  0  0  0  0  0  0  0  0  0
    6.0981    0.3585    0.0000 C   0  0  0  0  0  0  0  0  0  0  0  0
    7.5981   -0.5075    0.0000 C   0  0  0  0  0  0  0  0  0  0  0  0
    8.0981    0.3585    0.0000 C   0  0  0  0  0  0  0  0  0  0  0  0
    9.0981    0.3585    0.0000 C   0  0  0  0  0  0  0  0  0  0  0  0
    9.5981    1.2245    0.0000 C   0  0  0  0  0  0  0  0  0  0  0  0
    9.0981    2.0906    0.0000 C   0  0  0  0  0  0  0  0  0  0  0  0
   10.5981    1.2245    0.0000 C   0  0  0  0  0  0  0  0  0  0  0  0
   11.0981    2.0906    0.0000 C   0  0  0  0  0  0  0  0  0  0  0  0
   12.0981    2.0906    0.0000 C   0  0  0  0  0  0  0  0  0  0  0  0
   12.5981    2.9566    0.0000 C   0  0  0  0  0  0  0  0  0  0  0  0
   13.5981    2.9566    0.0000 C   0  0  0  0  0  0  0  0  0  0  0  0
   14.0981    2.0906    0.0000 C   0  0  0  0  0  0  0  0  0  0  0  0
   14.0981    3.8226    0.0000 C   0  0  0  0  0  0  0  0  0  0  0  0
    3.3335   -4.2145    0.0000 H   0  0  0  0  0  0  0  0  0  0  0  0
    4.1306   -4.2145    0.0000 H   0  0  0  0  0  0  0  0  0  0  0  0
    2.6540   -1.6570    0.0000 H   0  0  0  0  0  0  0  0  0  0  0  0
    2.2554   -2.3472    0.0000 H   0  0  0  0  0  0  0  0  0  0  0  0
    2.8660   -3.8596    0.0000 H   0  0  0  0  0  0  0  0  0  0  0  0
    3.9781   -4.2396    0.0000 H   0  0  0  0  0  0  0  0  0  0  0  0
    4.5981   -4.8596    0.0000 H   0  0  0  0  0  0  0  0  0  0  0  0
    5.2181   -4.2396    0.0000 H   0  0  0  0  0  0  0  0  0  0  0  0
    4.7881   -0.8366    0.0000 H   0  0  0  0  0  0  0  0  0  0  0  0
    3.1760   -0.7026    0.0000 H   0  0  0  0  0  0  0  0  0  0  0  0
    2.3291   -0.9296    0.0000 H   0  0  0  0  0  0  0  0  0  0  0  0
    2.5560   -1.7765    0.0000 H   0  0  0  0  0  0  0  0  0  0  0  0
    4.3520   -0.7396    0.0000 H   0  0  0  0  0  0  0  0  0  0  0  0
    3.7320   -0.1196    0.0000 H   0  0  0  0  0  0  0  0  0  0  0  0
    3.1120   -0.7396    0.0000 H   0  0  0  0  0  0  0  0  0  0  0  0
    2.0000   -4.3596    0.0000 H   0  0  0  0  0  0  0  0  0  0  0  0
    6.4081   -1.9105    0.0000 H   0  0  0  0  0  0  0  0  0  0  0  0
    6.6350    0.6685    0.0000 H   0  0  0  0  0  0  0  0  0  0  0  0
    5.7881    0.8955    0.0000 H   0  0  0  0  0  0  0  0  0  0  0  0
    5.5611    0.0485    0.0000 H   0  0  0  0  0  0  0  0  0  0  0  0
    7.9081   -1.0444    0.0000 H   0  0  0  0  0  0  0  0  0  0  0  0
    7.7881    0.8955    0.0000 H   0  0  0  0  0  0  0  0  0  0  0  0
    9.4081   -0.1784    0.0000 H   0  0  0  0  0  0  0  0  0  0  0  0
    9.6350    2.4006    0.0000 H   0  0  0  0  0  0  0  0  0  0  0  0
    8.7881    2.6275    0.0000 H   0  0  0  0  0  0  0  0  0  0  0  0
    8.5611    1.7806    0.0000 H   0  0  0  0  0  0  0  0  0  0  0  0
   10.9081    0.6876    0.0000 H   0  0  0  0  0  0  0  0  0  0  0  0
   10.7881    2.6275    0.0000 H   0  0  0  0  0  0  0  0  0  0  0  0
   12.4081    1.5536    0.0000 H   0  0  0  0  0  0  0  0  0  0  0  0
   12.2881    3.4935    0.0000 H   0  0  0  0  0  0  0  0  0  0  0  0
   13.5611    1.7806    0.0000 H   0  0  0  0  0  0  0  0  0  0  0  0
   14.4081    1.5536    0.0000 H   0  0  0  0  0  0  0  0  0  0  0  0
   14.6350    2.4006    0.0000 H   0  0  0  0  0  0  0  0  0  0  0  0
   13.7881    4.3596    0.0000 H   0  0  0  0  0  0  0  0  0  0  0  0
  1  4  1  0  0  0  0
  1  5  1  0  0  0  0
  9  2  1  1  0  0  0
  2 44  1  0  0  0  0
  3 28  2  0  0  0  0
  4  5  1  0  0  0  0
  4  6  1  0  0  0  0
  4 11  1  1  0  0  0
  5  7  1  0  0  0  0
  5 10  1  1  0  0  0
  6  8  1  0  0  0  0
  6 12  1  0  0  0  0
  6 13  1  0  0  0  0
  7  9  1  0  0  0  0
  7 29  1  0  0  0  0
  7 30  1  0  0  0  0
  8  9  1  0  0  0  0
  8 31  1  0  0  0  0
  8 32  1  0  0  0  0
  9 33  1  0  0  0  0
 10 34  1  0  0  0  0
 10 35  1  0  0  0  0
 10 36  1  0  0  0  0
 11 14  2  0  0  0  0
 11 37  1  0  0  0  0
 12 38  1  0  0  0  0
 12 39  1  0  0  0  0
 12 40  1  0  0  0  0
 13 41  1  0  0  0  0
 13 42  1  0  0  0  0
 13 43  1  0  0  0  0
 14 15  1  0  0  0  0
 14 45  1  0  0  0  0
 15 16  1  0  0  0  0
 15 17  2  0  0  0  0
 16 46  1  0  0  0  0
 16 47  1  0  0  0  0
 16 48  1  0  0  0  0
 17 18  1  0  0  0  0
 17 49  1  0  0  0  0
 18 19  2  0  0  0  0
 18 50  1  0  0  0  0
 19 20  1  0  0  0  0
 19 51  1  0  0  0  0
 20 21  1  0  0  0  0
 20 22  2  0  0  0  0
 21 52  1  0  0  0  0
 21 53  1  0  0  0  0
 21 54  1  0  0  0  0
 22 23  1  0  0  0  0
 22 55  1  0  0  0  0
 23 24  2  0  0  0  0
 23 56  1  0  0  0  0
 24 25  1  0  0  0  0
 24 57  1  0  0  0  0
 25 26  2  0  0  0  0
 25 58  1  0  0  0  0
 26 27  1  0  0  0  0
 26 28  1  0  0  0  0
 27 59  1  0  0  0  0
 27 60  1  0  0  0  0
 27 61  1  0  0  0  0
 28 62  1  0  0  0  0
M  END
> <PUBCHEM_COMPOUND_CID>
5282320

> <PUBCHEM_COMPOUND_CANONICALIZED>
1

> <PUBCHEM_CACTVS_COMPLEXITY>
776

> <PUBCHEM_CACTVS_HBOND_ACCEPTOR>
3

> <PUBCHEM_CACTVS_HBOND_DONOR>
1

> <PUBCHEM_CACTVS_ROTATABLE_BOND>
7

> <PUBCHEM_CACTVS_SUBSKEYS>
AAADcfB4MAAAAAAAAAAAAAAAEgAAAAAAAAAwAAAABIAAAAAAAAAAGgAACAAADlSggAICAAAABgCIAihSgAAAAAAgAAAICAEAAEgIFAIAIQACUAAFwAAIoYPA4PQPgAAAAAAAAABCAAYQADAAAAAAAAAAAA==

> <PUBCHEM_IUPAC_OPENEYE_NAME>
(2E,4E,6E,8E,10E,12E)-13-[(1R,3S,6S)-3-hydroxy-1,5,5-trimethyl-7-oxabicyclo[4.1.0]heptan-6-yl]-2,7,11-trimethyl-trideca-2,4,6,8,10,12-hexaenal

> <PUBCHEM_IUPAC_CAS_NAME>
(2E,4E,6E,8E,10E,12E)-13-[(1R,3S,6S)-3-hydroxy-1,5,5-trimethyl-7-oxabicyclo[4.1.0]heptan-6-yl]-2,7,11-trimethyltrideca-2,4,6,8,10,12-hexaenal

> <PUBCHEM_IUPAC_NAME>
(2E,4E,6E,8E,10E,12E)-13-[(1R,3S,6S)-3-hydroxy-1,5,5-trimethyl-7-oxabicyclo[4.1.0]heptan-6-yl]-2,7,11-trimethyltrideca-2,4,6,8,10,12-hexaenal

> <PUBCHEM_IUPAC_SYSTEMATIC_NAME>
(2E,4E,6E,8E,10E,12E)-2,7,11-trimethyl-13-[(1R,3S,6S)-1,5,5-trimethyl-3-oxidanyl-7-oxabicyclo[4.1.0]heptan-6-yl]trideca-2,4,6,8,10,12-hexaenal

> <PUBCHEM_IUPAC_TRADITIONAL_NAME>
(2E,4E,6E,8E,10E,12E)-13-[(1R,3S,6S)-3-hydroxy-1,5,5-trimethyl-7-oxabicyclo[4.1.0]heptan-6-yl]-2,7,11-trimethyl-trideca-2,4,6,8,10,12-hexaenal

> <PUBCHEM_IUPAC_INCHI>
InChI=1S/C25H34O3/c1-19(10-7-8-11-21(3)18-26)12-9-13-20(2)14-15-25-23(4,5)16-22(27)17-24(25,6)28-25/h7-15,18,22,27H,16-17H2,1-6H3/b8-7+,12-9+,15-14+,19-10+,20-13+,21-11+/t22-,24+,25-/m0/s1

> <PUBCHEM_IUPAC_INCHIKEY>
CAXVJDRXJFKYQP-LKODNMENSA-N

> <PUBCHEM_XLOGP3_AA>
5.6

> <PUBCHEM_EXACT_MASS>
382.250795

> <PUBCHEM_MOLECULAR_FORMULA>
C25H34O3

> <PUBCHEM_MOLECULAR_WEIGHT>
382.53566

> <PUBCHEM_OPENEYE_CAN_SMILES>
CC(=CC=CC=C(C)C=O)C=CC=C(C)C=CC12C(CC(CC1(O2)C)O)(C)C

> <PUBCHEM_OPENEYE_ISO_SMILES>
C/C(=C\C=C\C=C(/C)\C=O)/C=C/C=C(\C)/C=C/[C@]12[C@](O1)(C[C@H](CC2(C)C)O)C

> <PUBCHEM_CACTVS_TPSA>
49.8

> <PUBCHEM_MONOISOTOPIC_WEIGHT>
382.250795

> <PUBCHEM_TOTAL_CHARGE>
0

> <PUBCHEM_HEAVY_ATOM_COUNT>
28

> <PUBCHEM_ATOM_DEF_STEREO_COUNT>
3

> <PUBCHEM_ATOM_UDEF_STEREO_COUNT>
0

> <PUBCHEM_BOND_DEF_STEREO_COUNT>
6

> <PUBCHEM_BOND_UDEF_STEREO_COUNT>
0

> <PUBCHEM_ISOTOPIC_ATOM_COUNT>
0

> <PUBCHEM_COMPONENT_COUNT>
1

> <PUBCHEM_CACTVS_TAUTO_COUNT>
1

> <PUBCHEM_COORDINATE_TYPE>
1
5
255

> <PUBCHEM_BONDANNOTATIONS>
9  2  5
4  11  5
5  10  5

$$$$

