4416
  -OEChem-07051213042D

 63 67  0     0  0  0  0  0  0999 V2000
    5.4641   -1.4161    0.0000 O   0  0  0  0  0  0  0  0  0  0  0  0
    8.9942    4.6080    0.0000 O   0  0  0  0  0  0  0  0  0  0  0  0
    7.1962   -3.4161    0.0000 N   0  0  0  0  0  0  0  0  0  0  0  0
    7.3007   -4.4106    0.0000 C   0  0  0  0  0  0  0  0  0  0  0  0
    8.1097   -3.0094    0.0000 C   0  0  0  0  0  0  0  0  0  0  0  0
    8.2788   -4.6186    0.0000 C   0  0  0  0  0  0  0  0  0  0  0  0
    8.7788   -3.7525    0.0000 C   0  0  0  0  0  0  0  0  0  0  0  0
    6.3301   -2.9161    0.0000 C   0  0  0  0  0  0  0  0  0  0  0  0
    6.3301   -1.9161    0.0000 C   0  0  0  0  0  0  0  0  0  0  0  0
    4.5981    4.0839    0.0000 C   0  0  0  0  0  0  0  0  0  0  0  0
    5.4641    4.5839    0.0000 C   0  0  0  0  0  0  0  0  0  0  0  0
    5.4641    2.5839    0.0000 C   0  0  0  0  0  0  0  0  0  0  0  0
    4.5981    3.0839    0.0000 C   0  0  0  0  0  0  0  0  0  0  0  0
    6.3301    4.0839    0.0000 C   0  0  0  0  0  0  0  0  0  0  0  0
    6.3301    3.0839    0.0000 C   0  0  0  0  0  0  0  0  0  0  0  0
    5.4641    1.5839    0.0000 C   0  0  0  0  0  0  0  0  0  0  0  0
    3.7320    2.5839    0.0000 C   0  0  0  0  0  0  0  0  0  0  0  0
    7.2241    4.6186    0.0000 C   0  0  0  0  0  0  0  0  0  0  0  0
    7.2241    2.5492    0.0000 C   0  0  0  0  0  0  0  0  0  0  0  0
    5.4641   -0.4161    0.0000 C   0  0  0  0  0  0  0  0  0  0  0  0
    4.5981    1.0839    0.0000 C   0  0  0  0  0  0  0  0  0  0  0  0
    6.3301    1.0839    0.0000 C   0  0  0  0  0  0  0  0  0  0  0  0
    8.1301    4.1047    0.0000 C   0  0  0  0  0  0  0  0  0  0  0  0
    8.1301    3.0631    0.0000 C   0  0  0  0  0  0  0  0  0  0  0  0
    4.5981    0.0839    0.0000 C   0  0  0  0  0  0  0  0  0  0  0  0
    6.3301    0.0839    0.0000 C   0  0  0  0  0  0  0  0  0  0  0  0
    2.8660    3.0839    0.0000 C   0  0  0  0  0  0  0  0  0  0  0  0
    3.7320    1.5839    0.0000 C   0  0  0  0  0  0  0  0  0  0  0  0
    2.0000    2.5839    0.0000 C   0  0  0  0  0  0  0  0  0  0  0  0
    2.8660    1.0839    0.0000 C   0  0  0  0  0  0  0  0  0  0  0  0
    2.0000    1.5839    0.0000 C   0  0  0  0  0  0  0  0  0  0  0  0
    9.8622    4.1114    0.0000 C   0  0  0  0  0  0  0  0  0  0  0  0
    6.6807   -4.4106    0.0000 H   0  0  0  0  0  0  0  0  0  0  0  0
    7.2359   -5.0272    0.0000 H   0  0  0  0  0  0  0  0  0  0  0  0
    8.6113   -2.6450    0.0000 H   0  0  0  0  0  0  0  0  0  0  0  0
    7.7997   -2.4724    0.0000 H   0  0  0  0  0  0  0  0  0  0  0  0
    8.0872   -5.2082    0.0000 H   0  0  0  0  0  0  0  0  0  0  0  0
    8.8452   -4.8707    0.0000 H   0  0  0  0  0  0  0  0  0  0  0  0
    9.2804   -4.1170    0.0000 H   0  0  0  0  0  0  0  0  0  0  0  0
    9.1937   -3.2918    0.0000 H   0  0  0  0  0  0  0  0  0  0  0  0
    5.7196   -2.8084    0.0000 H   0  0  0  0  0  0  0  0  0  0  0  0
    6.1181   -3.4987    0.0000 H   0  0  0  0  0  0  0  0  0  0  0  0
    6.9407   -2.0238    0.0000 H   0  0  0  0  0  0  0  0  0  0  0  0
    6.5422   -1.3335    0.0000 H   0  0  0  0  0  0  0  0  0  0  0  0
    4.3860    4.6665    0.0000 H   0  0  0  0  0  0  0  0  0  0  0  0
    3.9875    3.9762    0.0000 H   0  0  0  0  0  0  0  0  0  0  0  0
    5.8626    5.0588    0.0000 H   0  0  0  0  0  0  0  0  0  0  0  0
    5.0656    5.0588    0.0000 H   0  0  0  0  0  0  0  0  0  0  0  0
    7.2169    5.2385    0.0000 H   0  0  0  0  0  0  0  0  0  0  0  0
    7.2169    1.9293    0.0000 H   0  0  0  0  0  0  0  0  0  0  0  0
    4.0611    1.3939    0.0000 H   0  0  0  0  0  0  0  0  0  0  0  0
    6.8671    1.3939    0.0000 H   0  0  0  0  0  0  0  0  0  0  0  0
    8.6659    2.7510    0.0000 H   0  0  0  0  0  0  0  0  0  0  0  0
    4.0611   -0.2261    0.0000 H   0  0  0  0  0  0  0  0  0  0  0  0
    6.8671   -0.2261    0.0000 H   0  0  0  0  0  0  0  0  0  0  0  0
    2.8660    3.7039    0.0000 H   0  0  0  0  0  0  0  0  0  0  0  0
    4.2690    1.2739    0.0000 H   0  0  0  0  0  0  0  0  0  0  0  0
    1.4631    2.8939    0.0000 H   0  0  0  0  0  0  0  0  0  0  0  0
    2.8660    0.4639    0.0000 H   0  0  0  0  0  0  0  0  0  0  0  0
    1.4631    1.2739    0.0000 H   0  0  0  0  0  0  0  0  0  0  0  0
    9.5542    3.5732    0.0000 H   0  0  0  0  0  0  0  0  0  0  0  0
   10.4003    3.8034    0.0000 H   0  0  0  0  0  0  0  0  0  0  0  0
   10.1701    4.6495    0.0000 H   0  0  0  0  0  0  0  0  0  0  0  0
  1  9  1  0  0  0  0
  1 20  1  0  0  0  0
  2 23  1  0  0  0  0
  2 32  1  0  0  0  0
  3  4  1  0  0  0  0
  3  5  1  0  0  0  0
  3  8  1  0  0  0  0
  4  6  1  0  0  0  0
  4 33  1  0  0  0  0
  4 34  1  0  0  0  0
  5  7  1  0  0  0  0
  5 35  1  0  0  0  0
  5 36  1  0  0  0  0
  6  7  1  0  0  0  0
  6 37  1  0  0  0  0
  6 38  1  0  0  0  0
  7 39  1  0  0  0  0
  7 40  1  0  0  0  0
  8  9  1  0  0  0  0
  8 41  1  0  0  0  0
  8 42  1  0  0  0  0
  9 43  1  0  0  0  0
  9 44  1  0  0  0  0
 10 11  1  0  0  0  0
 10 13  1  0  0  0  0
 10 45  1  0  0  0  0
 10 46  1  0  0  0  0
 11 14  1  0  0  0  0
 11 47  1  0  0  0  0
 11 48  1  0  0  0  0
 12 13  2  0  0  0  0
 12 15  1  0  0  0  0
 12 16  1  0  0  0  0
 13 17  1  0  0  0  0
 14 15  2  0  0  0  0
 14 18  1  0  0  0  0
 15 19  1  0  0  0  0
 16 21  2  0  0  0  0
 16 22  1  0  0  0  0
 17 27  2  0  0  0  0
 17 28  1  0  0  0  0
 18 23  2  0  0  0  0
 18 49  1  0  0  0  0
 19 24  2  0  0  0  0
 19 50  1  0  0  0  0
 20 25  2  0  0  0  0
 20 26  1  0  0  0  0
 21 25  1  0  0  0  0
 21 51  1  0  0  0  0
 22 26  2  0  0  0  0
 22 52  1  0  0  0  0
 23 24  1  0  0  0  0
 24 53  1  0  0  0  0
 25 54  1  0  0  0  0
 26 55  1  0  0  0  0
 27 29  1  0  0  0  0
 27 56  1  0  0  0  0
 28 30  2  0  0  0  0
 28 57  1  0  0  0  0
 29 31  2  0  0  0  0
 29 58  1  0  0  0  0
 30 31  1  0  0  0  0
 30 59  1  0  0  0  0
 31 60  1  0  0  0  0
 32 61  1  0  0  0  0
 32 62  1  0  0  0  0
 32 63  1  0  0  0  0
M  END
> <PUBCHEM_COMPOUND_CID>
4416

> <PUBCHEM_COMPOUND_CANONICALIZED>
1

> <PUBCHEM_CACTVS_COMPLEXITY>
611

> <PUBCHEM_CACTVS_HBOND_ACCEPTOR>
3

> <PUBCHEM_CACTVS_HBOND_DONOR>
0

> <PUBCHEM_CACTVS_ROTATABLE_BOND>
7

> <PUBCHEM_CACTVS_SUBSKEYS>
AAADceB6MAAAAAAAAAAAAAAAAAAAAWAAAAAwYMEAAAAAAACBUAAAHgAAAAAADAThmAYyBoMABACAAiBCAAACCAAgIAAIiAAOCIgOJiKEsRqHOCCkwBGYqAeAwPAOoAABAAAQAABAAAIAACAAAAAAAAAAAA==

> <PUBCHEM_IUPAC_OPENEYE_NAME>
1-[2-[4-(6-methoxy-2-phenyl-3,4-dihydronaphthalen-1-yl)phenoxy]ethyl]pyrrolidine

> <PUBCHEM_IUPAC_CAS_NAME>
1-[2-[4-(6-methoxy-2-phenyl-3,4-dihydronaphthalen-1-yl)phenoxy]ethyl]pyrrolidine

> <PUBCHEM_IUPAC_NAME>
1-[2-[4-(6-methoxy-2-phenyl-3,4-dihydronaphthalen-1-yl)phenoxy]ethyl]pyrrolidine

> <PUBCHEM_IUPAC_SYSTEMATIC_NAME>
1-[2-[4-(6-methoxy-2-phenyl-3,4-dihydronaphthalen-1-yl)phenoxy]ethyl]pyrrolidine

> <PUBCHEM_IUPAC_TRADITIONAL_NAME>
1-[2-[4-(6-methoxy-2-phenyl-3,4-dihydronaphthalen-1-yl)phenoxy]ethyl]pyrrolidine

> <PUBCHEM_IUPAC_INCHI>
InChI=1S/C29H31NO2/c1-31-26-14-16-28-24(21-26)11-15-27(22-7-3-2-4-8-22)29(28)23-9-12-25(13-10-23)32-20-19-30-17-5-6-18-30/h2-4,7-10,12-14,16,21H,5-6,11,15,17-20H2,1H3

> <PUBCHEM_IUPAC_INCHIKEY>
JEYWNNAZDLFBFF-UHFFFAOYSA-N

> <PUBCHEM_XLOGP3_AA>
5.8

> <PUBCHEM_EXACT_MASS>
425.235479

> <PUBCHEM_MOLECULAR_FORMULA>
C29H31NO2

> <PUBCHEM_MOLECULAR_WEIGHT>
425.56194

> <PUBCHEM_OPENEYE_CAN_SMILES>
COC1=CC2=C(C=C1)C(=C(CC2)C3=CC=CC=C3)C4=CC=C(C=C4)OCCN5CCCC5

> <PUBCHEM_OPENEYE_ISO_SMILES>
COC1=CC2=C(C=C1)C(=C(CC2)C3=CC=CC=C3)C4=CC=C(C=C4)OCCN5CCCC5

> <PUBCHEM_CACTVS_TPSA>
21.7

> <PUBCHEM_MONOISOTOPIC_WEIGHT>
425.235479

> <PUBCHEM_TOTAL_CHARGE>
0

> <PUBCHEM_HEAVY_ATOM_COUNT>
32

> <PUBCHEM_ATOM_DEF_STEREO_COUNT>
0

> <PUBCHEM_ATOM_UDEF_STEREO_COUNT>
0

> <PUBCHEM_BOND_DEF_STEREO_COUNT>
0

> <PUBCHEM_BOND_UDEF_STEREO_COUNT>
0

> <PUBCHEM_ISOTOPIC_ATOM_COUNT>
0

> <PUBCHEM_COMPONENT_COUNT>
1

> <PUBCHEM_CACTVS_TAUTO_COUNT>
1

> <PUBCHEM_COORDINATE_TYPE>
1
5
255

> <PUBCHEM_BONDANNOTATIONS>
14  15  8
14  18  8
15  19  8
16  21  8
16  22  8
17  27  8
17  28  8
18  23  8
19  24  8
20  25  8
20  26  8
21  25  8
22  26  8
23  24  8
27  29  8
28  30  8
29  31  8
30  31  8

$$$$

