   Color/Form

     * Orange-red leaflets
     * Monoclinic crystals
     * Yellow or orange crystals

   from [1]HSDB

   Boiling Point
        293 deg C
   from [2]HSDB

   Melting Point
        68 deg C
   from [3]HSDB

   Density/Specific Gravity
        1.203 at 20 deg C/4 deg C
   from [4]HSDB

   Dissociation Constants
        pKa = -2.950E+00
   from [5]HSDB

   Octanol/Water Partition Coefficient
        log Kow = 3.82
   from [6]HSDB

   Solubilities

     * Sol in glacial acetic acid, alcohol, ether
     * SOL IN MOST ORGANIC SOLVENTS
     * Solubility in alc = 4.2/100 at 20 deg C ether; Ligroin = 12/100 at
       20 deg C
     * In water solubility, 6.4 mg/L at 25 deg C

   from [7]HSDB

   Spectral Properties

     * INDEX OF REFRACTION: 1.6266 @ 78 DEG C/D
     * Intense mass spectral peaks: 77 m/z (100%), 51 m/z (57%), 182 m/z
       (37%), 105 m/z (23%)
     * MASS: 62201 (NIST/EPA/MSDC Mass Spectral Database, 1990 Version);
       143 (Aldermaston, Eight Peak Index of Mass)
     * IR: 4773 (Coblentz Society spectral collection)
     * UV: 18440 (Sadtler Research Laboratories spectral collection)
     * RAMAN: 397 (Sadtler Research Laboratories spectral collection)
     * H1-NMR: 306 (Varian Associates NMR spectra collection)

   from [8]HSDB

   Vapor Pressure
        3.61X10-4 mm Hg at 25 deg C
   from [9]HSDB

   Other Chemical/Physical Properties

     * Vapor pressure: 1 mm Hg at 103 deg C
     * Combustible
     * MAX ABSORPTION (ALCOHOL): 226 NM (LOG E= 3.99); 320 NM (LOG E=
       4.28); 350 NM (LOG E= 2.63) /TRANS/
     * MW = 182.220, orange-red monoclinic if from alcohol, MP = 67.88, BP
       = 293, density = 1.203 at 20 deg C, refractive index = 1.6266 at 78
       deg C, soluble in ethanol, ether, benzene, chloroform and very
       soluble in pyridine. /Trans/
     * MAX ABSORPTION (ALCOHOL): 243 NM (LOG E= 4.02); 281 NM (LOG E=
       3.72); 433 NM (LOG E= 3.18) /CIS/
     * MW = 182.220, orange-red plates (petroleum ether), MP = 71, soluble
       in ethanol, ether, benzene, acetic acid, and ligroin /Cis/
     * Henry's Law constant = 1.35X10-5 atm-cu m/mole at 25 deg C (est)
     * Hydroxyl radical reaction rate constant = 1.55X10-12 cu
       cm/molec-sec at 25 deg C (est)

   from [10]HSDB

   Computed Properties
   Molecular Weight                  182.2212 [g/mol]
   Molecular Formula                 C[12]H[10]N[2]
   XLogP3                            3.8
   H-Bond Donor                      0
   H-Bond Acceptor                   2
   Rotatable Bond Count              2
   Exact Mass                        182.084398
   MonoIsotopic Mass                 182.084398
   Topological Polar Surface Area    24.7
   Heavy Atom Count                  14
   Formal Charge                     0
   Complexity                        157
   Isotope Atom Count                0
   Defined Atom Stereocenter Count   0
   Undefined Atom Stereocenter Count 0
   Defined Bond Stereocenter Count   0
   Undefined Bond Stereocenter Count 0
   Covalently-Bonded Unit Count      1
   Feature 3D Ring Count             2
   Effective Rotor Count             2
   Conformer Sampling RMSD           0.6
   CID Conformer Count               [11]2

References

   1. http://toxnet.nlm.nih.gov/cgi-bin/sis/search/r?dbs+hsdb:@term+@rn+@rel+103-33-3
   2. http://toxnet.nlm.nih.gov/cgi-bin/sis/search/r?dbs+hsdb:@term+@rn+@rel+103-33-3
   3. http://toxnet.nlm.nih.gov/cgi-bin/sis/search/r?dbs+hsdb:@term+@rn+@rel+103-33-3
   4. http://toxnet.nlm.nih.gov/cgi-bin/sis/search/r?dbs+hsdb:@term+@rn+@rel+103-33-3
   5. http://toxnet.nlm.nih.gov/cgi-bin/sis/search/r?dbs+hsdb:@term+@rn+@rel+103-33-3
   6. http://toxnet.nlm.nih.gov/cgi-bin/sis/search/r?dbs+hsdb:@term+@rn+@rel+103-33-3
   7. http://toxnet.nlm.nih.gov/cgi-bin/sis/search/r?dbs+hsdb:@term+@rn+@rel+103-33-3
   8. http://toxnet.nlm.nih.gov/cgi-bin/sis/search/r?dbs+hsdb:@term+@rn+@rel+103-33-3
   9. http://toxnet.nlm.nih.gov/cgi-bin/sis/search/r?dbs+hsdb:@term+@rn+@rel+103-33-3
  10. http://toxnet.nlm.nih.gov/cgi-bin/sis/search/r?dbs+hsdb:@term+@rn+@rel+103-33-3
  11. http://pubchem.ncbi.nlm.nih.gov/vw3d/vw3d.cgi?cid=2272
