   Color/Form

     * Waxy off-white to tan solid
     * Colorless crystals

   from [1]HSDB

   Odor
        Chrysanthemate odor
   from [2]HSDB

   Boiling Point
        Decomposes at >180 deg C
   from [3]HSDB

   Melting Point
        56.5 deg C (pure (1-RS)-trans isomer)
   from [4]HSDB

   Corrosivity
        Non-corrosive
   from [5]HSDB

   Density/Specific Gravity
        0.958-0.968 at 20 deg C
   from [6]HSDB

   Octanol/Water Partition Coefficient
        log Kow = 5.43
   from [7]HSDB

   Solubilities

     * Very sol in xylene and aromatic petroleum hydrocarbons; solubility
       in kerosene 10%
     * Insol in water at 25 deg C; methylene chloride at 25 deg C: greater
       than 50% wt/wt; in acetone at 25 deg C: greater than 50% wt/wt; in
       ethanol and isopropanol 8 and 7%, /respectively/
     * In water, 0.0379 mg/L at 25 deg C

   from [8]HSDB

   Spectral Properties
        Refractive index at 20 deg C= 1.5287
   from [9]HSDB

   Vapor Pressure
        1.13X10-8 mm Hg at 30 deg C
   from [10]HSDB

   Other Chemical/Physical Properties

     * Wax solid /Technical resmethrin/
     * Mp: 43-48 deg C (isomeric mixture with 20-30% cis and 80-70% trans)
     * ... Contains 20-30% (1RS)-cis-and 80-70% (1RS)-trans-isomers.
     * Henry's Law constant = 1.3X10-7 atm-cu m/mol at 25 deg C (est)

   from [11]HSDB

   Computed Properties
   Molecular Weight                  338.44004 [g/mol]
   Molecular Formula                 C[22]H[26]O[3]
   XLogP3                            6.1
   H-Bond Donor                      0
   H-Bond Acceptor                   3
   Rotatable Bond Count              7
   Exact Mass                        338.188195
   MonoIsotopic Mass                 338.188195
   Topological Polar Surface Area    39.4
   Heavy Atom Count                  25
   Formal Charge                     0
   Complexity                        497
   Isotope Atom Count                0
   Defined Atom Stereocenter Count   0
   Undefined Atom Stereocenter Count 2
   Defined Bond Stereocenter Count   0
   Undefined Bond Stereocenter Count 0
   Covalently-Bonded Unit Count      1
   Feature 3D Acceptor Count         2
   Feature 3D Hydrophobe Count       2
   Feature 3D Ring Count             2
   Effective Rotor Count             7.6
   Conformer Sampling RMSD           1.4
   CID Conformer Count               [12]91

References

   1. http://toxnet.nlm.nih.gov/cgi-bin/sis/search/r?dbs+hsdb:@term+@rn+@rel+10453-86-8
   2. http://toxnet.nlm.nih.gov/cgi-bin/sis/search/r?dbs+hsdb:@term+@rn+@rel+10453-86-8
   3. http://toxnet.nlm.nih.gov/cgi-bin/sis/search/r?dbs+hsdb:@term+@rn+@rel+10453-86-8
   4. http://toxnet.nlm.nih.gov/cgi-bin/sis/search/r?dbs+hsdb:@term+@rn+@rel+10453-86-8
   5. http://toxnet.nlm.nih.gov/cgi-bin/sis/search/r?dbs+hsdb:@term+@rn+@rel+10453-86-8
   6. http://toxnet.nlm.nih.gov/cgi-bin/sis/search/r?dbs+hsdb:@term+@rn+@rel+10453-86-8
   7. http://toxnet.nlm.nih.gov/cgi-bin/sis/search/r?dbs+hsdb:@term+@rn+@rel+10453-86-8
   8. http://toxnet.nlm.nih.gov/cgi-bin/sis/search/r?dbs+hsdb:@term+@rn+@rel+10453-86-8
   9. http://toxnet.nlm.nih.gov/cgi-bin/sis/search/r?dbs+hsdb:@term+@rn+@rel+10453-86-8
  10. http://toxnet.nlm.nih.gov/cgi-bin/sis/search/r?dbs+hsdb:@term+@rn+@rel+10453-86-8
  11. http://toxnet.nlm.nih.gov/cgi-bin/sis/search/r?dbs+hsdb:@term+@rn+@rel+10453-86-8
  12. http://pubchem.ncbi.nlm.nih.gov/vw3d/vw3d.cgi?cid=5053
