441612
  -OEChem-07051212552D

110112  0     1  0  0  0  0  0999 V2000
   12.2311    2.4683    0.0000 O   0  0  0  0  0  0  0  0  0  0  0  0
   14.3002    1.7960    0.0000 O   0  0  0  0  0  0  0  0  0  0  0  0
   10.2631    1.7689    0.0000 O   0  0  0  0  0  0  0  0  0  0  0  0
   15.4812    0.0735    0.0000 O   0  0  0  0  0  0  0  0  0  0  0  0
    6.8747    2.4892    0.0000 O   0  0  0  0  0  0  0  0  0  0  0  0
   27.9590   -3.4718    0.0000 O   0  0  0  0  0  0  0  0  0  0  0  0
   26.8375   -4.8567    0.0000 O   0  0  0  0  0  0  0  0  0  0  0  0
   13.0401    3.0561    0.0000 C   0  0  1  0  0  0  0  0  0  0  0  0
   13.9912    2.7471    0.0000 C   0  0  1  0  0  0  0  0  0  0  0  0
   12.7311    4.0072    0.0000 C   0  0  0  0  0  0  0  0  0  0  0  0
   14.8002    3.3349    0.0000 C   0  0  0  0  0  0  0  0  0  0  0  0
   11.4221    3.0561    0.0000 C   0  0  2  0  0  0  0  0  0  0  0  0
   15.3002    1.7960    0.0000 C   0  0  2  0  0  0  0  0  0  0  0  0
   11.7311    4.0072    0.0000 C   0  0  0  0  0  0  0  0  0  0  0  0
   15.6092    2.7471    0.0000 C   0  0  0  0  0  0  0  0  0  0  0  0
   10.4710    2.7471    0.0000 C   0  0  2  0  0  0  0  0  0  0  0  0
   15.8880    0.9870    0.0000 C   0  0  1  0  0  0  0  0  0  0  0  0
    9.7279    3.4162    0.0000 C   0  0  0  0  0  0  0  0  0  0  0  0
   16.8825    1.0916    0.0000 C   0  0  0  0  0  0  0  0  0  0  0  0
    8.7768    3.1072    0.0000 C   0  0  0  0  0  0  0  0  0  0  0  0
   17.4703    0.2825    0.0000 C   0  0  0  0  0  0  0  0  0  0  0  0
    8.0337    3.7763    0.0000 C   0  0  0  0  0  0  0  0  0  0  0  0
   18.4648    0.3871    0.0000 C   0  0  0  0  0  0  0  0  0  0  0  0
    7.0826    3.4673    0.0000 C   0  0  2  0  0  0  0  0  0  0  0  0
   19.0526   -0.4220    0.0000 C   0  0  0  0  0  0  0  0  0  0  0  0
    6.3395    4.1364    0.0000 C   0  0  0  0  0  0  0  0  0  0  0  0
   20.0471   -0.3174    0.0000 C   0  0  0  0  0  0  0  0  0  0  0  0
   20.6349   -1.1264    0.0000 C   0  0  0  0  0  0  0  0  0  0  0  0
    5.3884    3.8274    0.0000 C   0  0  0  0  0  0  0  0  0  0  0  0
   21.6294   -1.0219    0.0000 C   0  0  0  0  0  0  0  0  0  0  0  0
    4.6453    4.4966    0.0000 C   0  0  0  0  0  0  0  0  0  0  0  0
   22.2172   -1.8309    0.0000 C   0  0  0  0  0  0  0  0  0  0  0  0
    3.6942    4.1876    0.0000 C   0  0  0  0  0  0  0  0  0  0  0  0
   23.2117   -1.7264    0.0000 C   0  0  0  0  0  0  0  0  0  0  0  0
   23.7995   -2.5354    0.0000 C   0  0  0  0  0  0  0  0  0  0  0  0
    2.9511    4.8567    0.0000 C   0  0  0  0  0  0  0  0  0  0  0  0
   24.7940   -2.4309    0.0000 C   0  0  0  0  0  0  0  0  0  0  0  0
   25.3818   -3.2399    0.0000 C   0  0  0  0  0  0  0  0  0  0  0  0
    2.0000    4.5477    0.0000 C   0  0  0  0  0  0  0  0  0  0  0  0
   26.3763   -3.1354    0.0000 C   0  0  0  0  0  0  0  0  0  0  0  0
   26.8763   -2.2694    0.0000 C   0  0  0  0  0  0  0  0  0  0  0  0
   27.8545   -2.4773    0.0000 C   0  0  2  0  0  0  0  0  0  0  0  0
   27.0455   -3.8785    0.0000 C   0  0  0  0  0  0  0  0  0  0  0  0
   28.5976   -1.8081    0.0000 C   0  0  0  0  0  0  0  0  0  0  0  0
   13.1731    2.2166    0.0000 H   0  0  0  0  0  0  0  0  0  0  0  0
   13.8582    3.5866    0.0000 H   0  0  0  0  0  0  0  0  0  0  0  0
   13.3375    4.1361    0.0000 H   0  0  0  0  0  0  0  0  0  0  0  0
   12.6663    4.6238    0.0000 H   0  0  0  0  0  0  0  0  0  0  0  0
   15.2150    3.7956    0.0000 H   0  0  0  0  0  0  0  0  0  0  0  0
   14.3853    3.7956    0.0000 H   0  0  0  0  0  0  0  0  0  0  0  0
   11.2891    2.2166    0.0000 H   0  0  0  0  0  0  0  0  0  0  0  0
   14.9143    1.0387    0.0000 H   0  0  0  0  0  0  0  0  0  0  0  0
   11.7959    4.6238    0.0000 H   0  0  0  0  0  0  0  0  0  0  0  0
   11.1246    4.1361    0.0000 H   0  0  0  0  0  0  0  0  0  0  0  0
   16.1756    2.4949    0.0000 H   0  0  0  0  0  0  0  0  0  0  0  0
   15.9192    3.2840    0.0000 H   0  0  0  0  0  0  0  0  0  0  0  0
    9.8814    2.5555    0.0000 H   0  0  0  0  0  0  0  0  0  0  0  0
   15.2714    0.9222    0.0000 H   0  0  0  0  0  0  0  0  0  0  0  0
   10.2164    3.7979    0.0000 H   0  0  0  0  0  0  0  0  0  0  0  0
    9.4368    3.9636    0.0000 H   0  0  0  0  0  0  0  0  0  0  0  0
   17.4397    1.3633    0.0000 H   0  0  0  0  0  0  0  0  0  0  0  0
   16.7116    1.6875    0.0000 H   0  0  0  0  0  0  0  0  0  0  0  0
    8.2882    2.7255    0.0000 H   0  0  0  0  0  0  0  0  0  0  0  0
    9.0679    2.5598    0.0000 H   0  0  0  0  0  0  0  0  0  0  0  0
   16.9130    0.0107    0.0000 H   0  0  0  0  0  0  0  0  0  0  0  0
   17.6412   -0.3135    0.0000 H   0  0  0  0  0  0  0  0  0  0  0  0
    9.6734    1.5774    0.0000 H   0  0  0  0  0  0  0  0  0  0  0  0
   15.8456   -0.4281    0.0000 H   0  0  0  0  0  0  0  0  0  0  0  0
    8.5222    4.1580    0.0000 H   0  0  0  0  0  0  0  0  0  0  0  0
    7.7426    4.3238    0.0000 H   0  0  0  0  0  0  0  0  0  0  0  0
   19.0220    0.6588    0.0000 H   0  0  0  0  0  0  0  0  0  0  0  0
   18.2939    0.9830    0.0000 H   0  0  0  0  0  0  0  0  0  0  0  0
    6.4930    3.2757    0.0000 H   0  0  0  0  0  0  0  0  0  0  0  0
   18.4953   -0.6937    0.0000 H   0  0  0  0  0  0  0  0  0  0  0  0
   19.2235   -1.0179    0.0000 H   0  0  0  0  0  0  0  0  0  0  0  0
    6.8280    4.5182    0.0000 H   0  0  0  0  0  0  0  0  0  0  0  0
    6.0484    4.6839    0.0000 H   0  0  0  0  0  0  0  0  0  0  0  0
   20.6043   -0.0456    0.0000 H   0  0  0  0  0  0  0  0  0  0  0  0
   19.8762    0.2786    0.0000 H   0  0  0  0  0  0  0  0  0  0  0  0
   20.0776   -1.3982    0.0000 H   0  0  0  0  0  0  0  0  0  0  0  0
   20.8058   -1.7224    0.0000 H   0  0  0  0  0  0  0  0  0  0  0  0
    4.8998    3.4457    0.0000 H   0  0  0  0  0  0  0  0  0  0  0  0
    5.6795    3.2800    0.0000 H   0  0  0  0  0  0  0  0  0  0  0  0
   22.1867   -0.7501    0.0000 H   0  0  0  0  0  0  0  0  0  0  0  0
   21.4585   -0.4259    0.0000 H   0  0  0  0  0  0  0  0  0  0  0  0
    6.2850    2.2976    0.0000 H   0  0  0  0  0  0  0  0  0  0  0  0
    5.1338    4.8783    0.0000 H   0  0  0  0  0  0  0  0  0  0  0  0
    4.3542    5.0440    0.0000 H   0  0  0  0  0  0  0  0  0  0  0  0
   21.6599   -2.1027    0.0000 H   0  0  0  0  0  0  0  0  0  0  0  0
   22.3881   -2.4269    0.0000 H   0  0  0  0  0  0  0  0  0  0  0  0
    3.2056    3.8058    0.0000 H   0  0  0  0  0  0  0  0  0  0  0  0
    3.9853    3.6401    0.0000 H   0  0  0  0  0  0  0  0  0  0  0  0
   23.7690   -1.4546    0.0000 H   0  0  0  0  0  0  0  0  0  0  0  0
   23.0408   -1.1304    0.0000 H   0  0  0  0  0  0  0  0  0  0  0  0
   23.2422   -2.8072    0.0000 H   0  0  0  0  0  0  0  0  0  0  0  0
   23.9704   -3.1314    0.0000 H   0  0  0  0  0  0  0  0  0  0  0  0
    3.4396    5.2384    0.0000 H   0  0  0  0  0  0  0  0  0  0  0  0
    2.6600    5.4041    0.0000 H   0  0  0  0  0  0  0  0  0  0  0  0
   25.3513   -2.1591    0.0000 H   0  0  0  0  0  0  0  0  0  0  0  0
   24.6231   -1.8349    0.0000 H   0  0  0  0  0  0  0  0  0  0  0  0
   24.8245   -3.5117    0.0000 H   0  0  0  0  0  0  0  0  0  0  0  0
   25.5527   -3.8359    0.0000 H   0  0  0  0  0  0  0  0  0  0  0  0
    1.8084    5.1373    0.0000 H   0  0  0  0  0  0  0  0  0  0  0  0
    1.4103    4.3561    0.0000 H   0  0  0  0  0  0  0  0  0  0  0  0
    2.1916    3.9580    0.0000 H   0  0  0  0  0  0  0  0  0  0  0  0
   26.6241   -1.7030    0.0000 H   0  0  0  0  0  0  0  0  0  0  0  0
   28.4333   -2.6995    0.0000 H   0  0  0  0  0  0  0  0  0  0  0  0
   29.0125   -2.2689    0.0000 H   0  0  0  0  0  0  0  0  0  0  0  0
   29.0584   -1.3933    0.0000 H   0  0  0  0  0  0  0  0  0  0  0  0
   28.1828   -1.3474    0.0000 H   0  0  0  0  0  0  0  0  0  0  0  0
  1  8  1  0  0  0  0
  1 12  1  0  0  0  0
  2  9  1  0  0  0  0
  2 13  1  0  0  0  0
 16  3  1  1  0  0  0
  3 67  1  0  0  0  0
 17  4  1  1  0  0  0
  4 68  1  0  0  0  0
 24  5  1  1  0  0  0
  5 86  1  0  0  0  0
  6 42  1  0  0  0  0
  6 43  1  0  0  0  0
  7 43  2  0  0  0  0
  8  9  1  0  0  0  0
  8 10  1  0  0  0  0
  8 45  1  1  0  0  0
  9 11  1  0  0  0  0
  9 46  1  6  0  0  0
 10 14  1  0  0  0  0
 10 47  1  0  0  0  0
 10 48  1  0  0  0  0
 11 15  1  0  0  0  0
 11 49  1  0  0  0  0
 11 50  1  0  0  0  0
 12 14  1  0  0  0  0
 12 16  1  0  0  0  0
 12 51  1  6  0  0  0
 13 15  1  0  0  0  0
 13 17  1  0  0  0  0
 13 52  1  1  0  0  0
 14 53  1  0  0  0  0
 14 54  1  0  0  0  0
 15 55  1  0  0  0  0
 15 56  1  0  0  0  0
 16 18  1  0  0  0  0
 16 57  1  0  0  0  0
 17 19  1  0  0  0  0
 17 58  1  0  0  0  0
 18 20  1  0  0  0  0
 18 59  1  0  0  0  0
 18 60  1  0  0  0  0
 19 21  1  0  0  0  0
 19 61  1  0  0  0  0
 19 62  1  0  0  0  0
 20 22  1  0  0  0  0
 20 63  1  0  0  0  0
 20 64  1  0  0  0  0
 21 23  1  0  0  0  0
 21 65  1  0  0  0  0
 21 66  1  0  0  0  0
 22 24  1  0  0  0  0
 22 69  1  0  0  0  0
 22 70  1  0  0  0  0
 23 25  1  0  0  0  0
 23 71  1  0  0  0  0
 23 72  1  0  0  0  0
 24 26  1  0  0  0  0
 24 73  1  0  0  0  0
 25 27  1  0  0  0  0
 25 74  1  0  0  0  0
 25 75  1  0  0  0  0
 26 29  1  0  0  0  0
 26 76  1  0  0  0  0
 26 77  1  0  0  0  0
 27 28  1  0  0  0  0
 27 78  1  0  0  0  0
 27 79  1  0  0  0  0
 28 30  1  0  0  0  0
 28 80  1  0  0  0  0
 28 81  1  0  0  0  0
 29 31  1  0  0  0  0
 29 82  1  0  0  0  0
 29 83  1  0  0  0  0
 30 32  1  0  0  0  0
 30 84  1  0  0  0  0
 30 85  1  0  0  0  0
 31 33  1  0  0  0  0
 31 87  1  0  0  0  0
 31 88  1  0  0  0  0
 32 34  1  0  0  0  0
 32 89  1  0  0  0  0
 32 90  1  0  0  0  0
 33 36  1  0  0  0  0
 33 91  1  0  0  0  0
 33 92  1  0  0  0  0
 34 35  1  0  0  0  0
 34 93  1  0  0  0  0
 34 94  1  0  0  0  0
 35 37  1  0  0  0  0
 35 95  1  0  0  0  0
 35 96  1  0  0  0  0
 36 39  1  0  0  0  0
 36 97  1  0  0  0  0
 36 98  1  0  0  0  0
 37 38  1  0  0  0  0
 37 99  1  0  0  0  0
 37100  1  0  0  0  0
 38 40  1  0  0  0  0
 38101  1  0  0  0  0
 38102  1  0  0  0  0
 39103  1  0  0  0  0
 39104  1  0  0  0  0
 39105  1  0  0  0  0
 40 41  2  0  0  0  0
 40 43  1  0  0  0  0
 41 42  1  0  0  0  0
 41106  1  0  0  0  0
 42 44  1  6  0  0  0
 42107  1  0  0  0  0
 44108  1  0  0  0  0
 44109  1  0  0  0  0
 44110  1  0  0  0  0
M  END
> <PUBCHEM_COMPOUND_CID>
441612

> <PUBCHEM_COMPOUND_CANONICALIZED>
1

> <PUBCHEM_CACTVS_COMPLEXITY>
801

> <PUBCHEM_CACTVS_HBOND_ACCEPTOR>
7

> <PUBCHEM_CACTVS_HBOND_DONOR>
3

> <PUBCHEM_CACTVS_ROTATABLE_BOND>
25

> <PUBCHEM_CACTVS_SUBSKEYS>
AAADcfB8OAAAAAAAAAAAAAAAAAAAASJEAAAAAAAAAAAAAAAAAAAAGgAACAAADBSggAICCAAABgCIAiDSCAAAAAAgAAAACAEAAEgBFBIAIQACUAAEgAALIYOI6KyAAAAAAAAAAAAAAAAAAAAAAAAAAAAAAA==

> <PUBCHEM_IUPAC_OPENEYE_NAME>
(2S)-4-[(13R)-13-[(2R,5R)-5-[(2R,5R)-5-[(1S,5S)-1,5-dihydroxyundecyl]tetrahydrofuran-2-yl]tetrahydrofuran-2-yl]-13-hydroxy-tridecyl]-2-methyl-2H-furan-5-one

> <PUBCHEM_IUPAC_CAS_NAME>
(2S)-4-[(13R)-13-[(2R,5R)-5-[(2R,5R)-5-[(1S,5S)-1,5-dihydroxyundecyl]-2-oxolanyl]-2-oxolanyl]-13-hydroxytridecyl]-2-methyl-2H-furan-5-one

> <PUBCHEM_IUPAC_NAME>
(2S)-4-[(13R)-13-[(2R,5R)-5-[(2R,5R)-5-[(1S,5S)-1,5-dihydroxyundecyl]oxolan-2-yl]oxolan-2-yl]-13-hydroxytridecyl]-2-methyl-2H-furan-5-one

> <PUBCHEM_IUPAC_SYSTEMATIC_NAME>
(2S)-4-[(13R)-13-[(2R,5R)-5-[(2R,5R)-5-[(1S,5S)-1,5-bis(oxidanyl)undecyl]oxolan-2-yl]oxolan-2-yl]-13-oxidanyl-tridecyl]-2-methyl-2H-furan-5-one

> <PUBCHEM_IUPAC_TRADITIONAL_NAME>
(2S)-4-[(13R)-13-[(2R,5R)-5-[(2R,5R)-5-[(1S,5S)-1,5-dihydroxyundecyl]tetrahydrofuran-2-yl]tetrahydrofuran-2-yl]-13-hydroxy-tridecyl]-2-methyl-2H-furan-5-one

> <PUBCHEM_IUPAC_INCHI>
InChI=1S/C37H66O7/c1-3-4-5-15-19-30(38)20-17-22-32(40)34-24-26-36(44-34)35-25-23-33(43-35)31(39)21-16-13-11-9-7-6-8-10-12-14-18-29-27-28(2)42-37(29)41/h27-28,30-36,38-40H,3-26H2,1-2H3/t28-,30-,31+,32-,33+,34+,35+,36+/m0/s1

> <PUBCHEM_IUPAC_INCHIKEY>
DAEFUOXKPZLQMM-AUDZWCKFSA-N

> <PUBCHEM_XLOGP3_AA>
9.5

> <PUBCHEM_EXACT_MASS>
622.480854

> <PUBCHEM_MOLECULAR_FORMULA>
C37H66O7

> <PUBCHEM_MOLECULAR_WEIGHT>
622.91574

> <PUBCHEM_OPENEYE_CAN_SMILES>
CCCCCCC(CCCC(C1CCC(O1)C2CCC(O2)C(CCCCCCCCCCCCC3=CC(OC3=O)C)O)O)O

> <PUBCHEM_OPENEYE_ISO_SMILES>
CCCCCC[C@@H](CCC[C@@H]([C@H]1CC[C@@H](O1)[C@H]2CC[C@@H](O2)[C@@H](CCCCCCCCCCCCC3=C[C@@H](OC3=O)C)O)O)O

> <PUBCHEM_CACTVS_TPSA>
105

> <PUBCHEM_MONOISOTOPIC_WEIGHT>
622.480854

> <PUBCHEM_TOTAL_CHARGE>
0

> <PUBCHEM_HEAVY_ATOM_COUNT>
44

> <PUBCHEM_ATOM_DEF_STEREO_COUNT>
8

> <PUBCHEM_ATOM_UDEF_STEREO_COUNT>
0

> <PUBCHEM_BOND_DEF_STEREO_COUNT>
0

> <PUBCHEM_BOND_UDEF_STEREO_COUNT>
0

> <PUBCHEM_ISOTOPIC_ATOM_COUNT>
0

> <PUBCHEM_COMPONENT_COUNT>
1

> <PUBCHEM_CACTVS_TAUTO_COUNT>
1

> <PUBCHEM_COORDINATE_TYPE>
1
5
255

> <PUBCHEM_BONDANNOTATIONS>
12  51  6
13  52  5
16  3  5
17  4  5
42  44  6
24  5  5
8  45  5
9  46  6

$$$$

