5366415
  -OEChem-07051213122D

 10  8  0     0  0  0  0  0  0999 V2000
    2.8660    0.4400    0.0000 S   0  5  0  0  0  0  0  0  0  0  0  0
    3.7320   -1.0600    0.0000 S   0  0  0  0  0  0  0  0  0  0  0  0
    2.0000   -0.0600    0.0000 Na  0  3  0  0  0  0  0  0  0  0  0  0
    4.5981    0.4400    0.0000 N   0  0  0  0  0  0  0  0  0  0  0  0
    5.4641   -0.0600    0.0000 C   0  0  0  0  0  0  0  0  0  0  0  0
    3.7320   -0.0600    0.0000 C   0  0  0  0  0  0  0  0  0  0  0  0
    4.5981    1.0600    0.0000 H   0  0  0  0  0  0  0  0  0  0  0  0
    5.1541   -0.5969    0.0000 H   0  0  0  0  0  0  0  0  0  0  0  0
    6.0010   -0.3700    0.0000 H   0  0  0  0  0  0  0  0  0  0  0  0
    5.7741    0.4769    0.0000 H   0  0  0  0  0  0  0  0  0  0  0  0
  1  6  1  0  0  0  0
  2  6  2  0  0  0  0
  4  5  1  0  0  0  0
  4  6  1  0  0  0  0
  4  7  1  0  0  0  0
  5  8  1  0  0  0  0
  5  9  1  0  0  0  0
  5 10  1  0  0  0  0
M  CHG  2   1  -1   3   1
M  END
> <PUBCHEM_COMPOUND_CID>
5366415

> <PUBCHEM_COMPOUND_CANONICALIZED>
1

> <PUBCHEM_CACTVS_COMPLEXITY>
46.8

> <PUBCHEM_CACTVS_HBOND_ACCEPTOR>
2

> <PUBCHEM_CACTVS_HBOND_DONOR>
1

> <PUBCHEM_CACTVS_ROTATABLE_BOND>
0

> <PUBCHEM_CACTVS_SUBSKEYS>
AAADcYBCACBgAAAAAAAAAAAAAAAAAAAAAAAAAAAAAAAAAAAAAAAAFAQQAAAAAAAAAAQCAALAAAAEAAAAAAAAAAAAAAkAAIAIAAAAAAAAAAAAAAAAAAAAAAAAAAAAAAAAAAAAAAAAAAAAAAAAAAAAAAAAAA==

> <PUBCHEM_IUPAC_OPENEYE_NAME>
sodium N-methylcarbamodithioate

> <PUBCHEM_IUPAC_CAS_NAME>
sodium N-methylcarbamodithioate

> <PUBCHEM_IUPAC_NAME>
sodium N-methylcarbamodithioate

> <PUBCHEM_IUPAC_SYSTEMATIC_NAME>
sodium N-methylcarbamodithioate

> <PUBCHEM_IUPAC_TRADITIONAL_NAME>
sodium N-methylcarbamodithioate

> <PUBCHEM_IUPAC_INCHI>
InChI=1S/C2H5NS2.Na/c1-3-2(4)5;/h1H3,(H2,3,4,5);/q;+1/p-1

> <PUBCHEM_IUPAC_INCHIKEY>
AFCCDDWKHLHPDF-UHFFFAOYSA-M

> <PUBCHEM_EXACT_MASS>
128.968285

> <PUBCHEM_MOLECULAR_FORMULA>
C2H4NNaS2

> <PUBCHEM_MOLECULAR_WEIGHT>
129.179629

> <PUBCHEM_OPENEYE_CAN_SMILES>
CNC(=S)[S-].[Na+]

> <PUBCHEM_OPENEYE_ISO_SMILES>
CNC(=S)[S-].[Na+]

> <PUBCHEM_CACTVS_TPSA>
45.1

> <PUBCHEM_MONOISOTOPIC_WEIGHT>
128.968285

> <PUBCHEM_TOTAL_CHARGE>
0

> <PUBCHEM_HEAVY_ATOM_COUNT>
6

> <PUBCHEM_ATOM_DEF_STEREO_COUNT>
0

> <PUBCHEM_ATOM_UDEF_STEREO_COUNT>
0

> <PUBCHEM_BOND_DEF_STEREO_COUNT>
0

> <PUBCHEM_BOND_UDEF_STEREO_COUNT>
0

> <PUBCHEM_ISOTOPIC_ATOM_COUNT>
0

> <PUBCHEM_COMPONENT_COUNT>
2

> <PUBCHEM_CACTVS_TAUTO_COUNT>
2

> <PUBCHEM_NONSTANDARDBOND>
1  3  7

> <PUBCHEM_COORDINATE_TYPE>
1
5
255

$$$$

