5053
  -OEChem-07051213002D

 51 53  0     1  0  0  0  0  0999 V2000
    6.2160    1.6528    0.0000 O   0  0  0  0  0  0  0  0  0  0  0  0
    6.0349    3.3754    0.0000 O   0  0  0  0  0  0  0  0  0  0  0  0
    4.6456   -0.9744    0.0000 O   0  0  0  0  0  0  0  0  0  0  0  0
    8.4263    3.2587    0.0000 C   0  0  0  0  0  0  0  0  0  0  0  0
    8.5308    2.2642    0.0000 C   0  0  3  0  0  0  0  0  0  0  0  0
    7.6172    2.6709    0.0000 C   0  0  3  0  0  0  0  0  0  0  0  0
    9.4208    3.3632    0.0000 C   0  0  0  0  0  0  0  0  0  0  0  0
    7.8385    4.0677    0.0000 C   0  0  0  0  0  0  0  0  0  0  0  0
    9.1186    1.4551    0.0000 C   0  0  0  0  0  0  0  0  0  0  0  0
    6.6227    2.5664    0.0000 C   0  0  0  0  0  0  0  0  0  0  0  0
   10.1131    1.5597    0.0000 C   0  0  0  0  0  0  0  0  0  0  0  0
   10.7009    0.7506    0.0000 C   0  0  0  0  0  0  0  0  0  0  0  0
   10.5198    2.4732    0.0000 C   0  0  0  0  0  0  0  0  0  0  0  0
    5.2215    1.5483    0.0000 C   0  0  0  0  0  0  0  0  0  0  0  0
    4.8147    0.6347    0.0000 C   0  0  0  0  0  0  0  0  0  0  0  0
    3.8366    0.4268    0.0000 C   0  0  0  0  0  0  0  0  0  0  0  0
    5.3147   -0.2313    0.0000 C   0  0  0  0  0  0  0  0  0  0  0  0
    3.7320   -0.5677    0.0000 C   0  0  0  0  0  0  0  0  0  0  0  0
    2.8660   -1.0677    0.0000 C   0  0  0  0  0  0  0  0  0  0  0  0
    2.8660   -2.0677    0.0000 C   0  0  0  0  0  0  0  0  0  0  0  0
    2.0000   -2.5677    0.0000 C   0  0  0  0  0  0  0  0  0  0  0  0
    3.7320   -2.5677    0.0000 C   0  0  0  0  0  0  0  0  0  0  0  0
    2.0000   -3.5677    0.0000 C   0  0  0  0  0  0  0  0  0  0  0  0
    3.7320   -3.5677    0.0000 C   0  0  0  0  0  0  0  0  0  0  0  0
    2.8660   -4.0677    0.0000 C   0  0  0  0  0  0  0  0  0  0  0  0
    7.9959    1.6036    0.0000 H   0  0  0  0  0  0  0  0  0  0  0  0
    7.3126    3.4644    0.0000 H   0  0  0  0  0  0  0  0  0  0  0  0
    9.4856    2.7466    0.0000 H   0  0  0  0  0  0  0  0  0  0  0  0
   10.0374    3.4280    0.0000 H   0  0  0  0  0  0  0  0  0  0  0  0
    9.3560    3.9798    0.0000 H   0  0  0  0  0  0  0  0  0  0  0  0
    8.3401    4.4321    0.0000 H   0  0  0  0  0  0  0  0  0  0  0  0
    7.4740    4.5693    0.0000 H   0  0  0  0  0  0  0  0  0  0  0  0
    7.3369    3.7033    0.0000 H   0  0  0  0  0  0  0  0  0  0  0  0
    8.8664    0.8887    0.0000 H   0  0  0  0  0  0  0  0  0  0  0  0
   11.0862    2.2210    0.0000 H   0  0  0  0  0  0  0  0  0  0  0  0
   10.7720    3.0396    0.0000 H   0  0  0  0  0  0  0  0  0  0  0  0
    9.9534    2.7254    0.0000 H   0  0  0  0  0  0  0  0  0  0  0  0
   10.1993    0.3862    0.0000 H   0  0  0  0  0  0  0  0  0  0  0  0
   11.0653    0.2491    0.0000 H   0  0  0  0  0  0  0  0  0  0  0  0
   11.2025    1.1151    0.0000 H   0  0  0  0  0  0  0  0  0  0  0  0
    5.2647    2.1668    0.0000 H   0  0  0  0  0  0  0  0  0  0  0  0
    4.6199    1.6983    0.0000 H   0  0  0  0  0  0  0  0  0  0  0  0
    3.3758    0.8417    0.0000 H   0  0  0  0  0  0  0  0  0  0  0  0
    5.9313   -0.2961    0.0000 H   0  0  0  0  0  0  0  0  0  0  0  0
    2.6540   -0.4851    0.0000 H   0  0  0  0  0  0  0  0  0  0  0  0
    2.2554   -1.1753    0.0000 H   0  0  0  0  0  0  0  0  0  0  0  0
    1.4631   -2.2577    0.0000 H   0  0  0  0  0  0  0  0  0  0  0  0
    4.2690   -2.2577    0.0000 H   0  0  0  0  0  0  0  0  0  0  0  0
    1.4631   -3.8777    0.0000 H   0  0  0  0  0  0  0  0  0  0  0  0
    4.2690   -3.8777    0.0000 H   0  0  0  0  0  0  0  0  0  0  0  0
    2.8660   -4.6877    0.0000 H   0  0  0  0  0  0  0  0  0  0  0  0
  1 10  1  0  0  0  0
  1 14  1  0  0  0  0
  2 10  2  0  0  0  0
  3 17  1  0  0  0  0
  3 18  1  0  0  0  0
  4  5  1  0  0  0  0
  4  6  1  0  0  0  0
  4  7  1  0  0  0  0
  4  8  1  0  0  0  0
  5  6  1  0  0  0  0
  5  9  1  0  0  0  0
  5 26  1  0  0  0  0
  6 10  1  0  0  0  0
  6 27  1  0  0  0  0
  7 28  1  0  0  0  0
  7 29  1  0  0  0  0
  7 30  1  0  0  0  0
  8 31  1  0  0  0  0
  8 32  1  0  0  0  0
  8 33  1  0  0  0  0
  9 11  2  0  0  0  0
  9 34  1  0  0  0  0
 11 12  1  0  0  0  0
 11 13  1  0  0  0  0
 12 38  1  0  0  0  0
 12 39  1  0  0  0  0
 12 40  1  0  0  0  0
 13 35  1  0  0  0  0
 13 36  1  0  0  0  0
 13 37  1  0  0  0  0
 14 15  1  0  0  0  0
 14 41  1  0  0  0  0
 14 42  1  0  0  0  0
 15 16  1  0  0  0  0
 15 17  2  0  0  0  0
 16 18  2  0  0  0  0
 16 43  1  0  0  0  0
 17 44  1  0  0  0  0
 18 19  1  0  0  0  0
 19 20  1  0  0  0  0
 19 45  1  0  0  0  0
 19 46  1  0  0  0  0
 20 21  2  0  0  0  0
 20 22  1  0  0  0  0
 21 23  1  0  0  0  0
 21 47  1  0  0  0  0
 22 24  2  0  0  0  0
 22 48  1  0  0  0  0
 23 25  2  0  0  0  0
 23 49  1  0  0  0  0
 24 25  1  0  0  0  0
 24 50  1  0  0  0  0
 25 51  1  0  0  0  0
M  END
> <PUBCHEM_COMPOUND_CID>
5053

> <PUBCHEM_COMPOUND_CANONICALIZED>
1

> <PUBCHEM_CACTVS_COMPLEXITY>
497

> <PUBCHEM_CACTVS_HBOND_ACCEPTOR>
3

> <PUBCHEM_CACTVS_HBOND_DONOR>
0

> <PUBCHEM_CACTVS_ROTATABLE_BOND>
7

> <PUBCHEM_CACTVS_SUBSKEYS>
AAADceB4MAAAAAAAAAAAAAAAGAAAASAAAAAwAAAAAAAAAAABwAAAGgAAAAAADwSgmAIyDIAABECIAqjSiAACCAAkIAAIiAEGCMgMJzaENRqCOSCl4BEIqYfKyOCPgAAAAAAAAAAAAAAAAAAAAAAAAAAAAA==

> <PUBCHEM_IUPAC_OPENEYE_NAME>
(5-benzyl-3-furyl)methyl 2,2-dimethyl-3-(2-methylprop-1-enyl)cyclopropanecarboxylate

> <PUBCHEM_IUPAC_CAS_NAME>
2,2-dimethyl-3-(2-methylprop-1-enyl)-1-cyclopropanecarboxylic acid [5-(phenylmethyl)-3-furanyl]methyl ester

> <PUBCHEM_IUPAC_NAME>
(5-benzylfuran-3-yl)methyl 2,2-dimethyl-3-(2-methylprop-1-enyl)cyclopropane-1-carboxylate

> <PUBCHEM_IUPAC_SYSTEMATIC_NAME>
[5-(phenylmethyl)furan-3-yl]methyl 2,2-dimethyl-3-(2-methylprop-1-enyl)cyclopropane-1-carboxylate

> <PUBCHEM_IUPAC_TRADITIONAL_NAME>
2,2-dimethyl-3-(2-methylprop-1-enyl)cyclopropanecarboxylic acid (5-benzyl-3-furyl)methyl ester

> <PUBCHEM_IUPAC_INCHI>
InChI=1S/C22H26O3/c1-15(2)10-19-20(22(19,3)4)21(23)25-14-17-12-18(24-13-17)11-16-8-6-5-7-9-16/h5-10,12-13,19-20H,11,14H2,1-4H3

> <PUBCHEM_IUPAC_INCHIKEY>
VEMKTZHHVJILDY-UHFFFAOYSA-N

> <PUBCHEM_XLOGP3>
6.1

> <PUBCHEM_EXACT_MASS>
338.188195

> <PUBCHEM_MOLECULAR_FORMULA>
C22H26O3

> <PUBCHEM_MOLECULAR_WEIGHT>
338.44004

> <PUBCHEM_OPENEYE_CAN_SMILES>
CC(=CC1C(C1(C)C)C(=O)OCC2=COC(=C2)CC3=CC=CC=C3)C

> <PUBCHEM_OPENEYE_ISO_SMILES>
CC(=CC1C(C1(C)C)C(=O)OCC2=COC(=C2)CC3=CC=CC=C3)C

> <PUBCHEM_CACTVS_TPSA>
39.4

> <PUBCHEM_MONOISOTOPIC_WEIGHT>
338.188195

> <PUBCHEM_TOTAL_CHARGE>
0

> <PUBCHEM_HEAVY_ATOM_COUNT>
25

> <PUBCHEM_ATOM_DEF_STEREO_COUNT>
0

> <PUBCHEM_ATOM_UDEF_STEREO_COUNT>
2

> <PUBCHEM_BOND_DEF_STEREO_COUNT>
0

> <PUBCHEM_BOND_UDEF_STEREO_COUNT>
0

> <PUBCHEM_ISOTOPIC_ATOM_COUNT>
0

> <PUBCHEM_COMPONENT_COUNT>
1

> <PUBCHEM_CACTVS_TAUTO_COUNT>
1

> <PUBCHEM_COORDINATE_TYPE>
1
5
255

> <PUBCHEM_BONDANNOTATIONS>
15  16  8
15  17  8
16  18  8
20  21  8
20  22  8
21  23  8
22  24  8
23  25  8
24  25  8
3  17  8
3  18  8
5  26  3
6  27  3

$$$$

