   Color/Form
        White crystalline powder from methanol-isopropanol
   from [1]HSDB

   Melting Point
        203-204 deg C (sesquihydrate)
   from [2]HSDB

   Solubilities
        In water, 185,000 mg/l at 25 deg C.
   from [3]HSDB

   Spectral Properties
        Specific optical rotation: +99 deg at 23 C/D (1.0 in H2O)
   from [4]HSDB

   Other Chemical/Physical Properties
        Amorphous form, dec 220-230 deg C,Specific optical rotation:
   +74.75 deg at 22 C/D (in H2O) /Sulfate/
   from [5]HSDB

   Computed Properties
   Molecular Weight                  585.60252 [g/mol]
   Molecular Formula                 C[22]H[43]N[5]O[13]
   XLogP3-AA                         -7.9
   H-Bond Donor                      13
   H-Bond Acceptor                   17
   Rotatable Bond Count              10
   Tautomer Count                    2
   Exact Mass                        585.285736
   MonoIsotopic Mass                 585.285736
   Topological Polar Surface Area    332
   Heavy Atom Count                  40
   Formal Charge                     0
   Complexity                        819
   Isotope Atom Count                0
   Defined Atom Stereocenter Count   16
   Undefined Atom Stereocenter Count 0
   Defined Bond Stereocenter Count   0
   Undefined Bond Stereocenter Count 0
   Covalently-Bonded Unit Count      1
   Feature 3D Acceptor Count         13
   Feature 3D Donor Count            13
   Feature 3D Cation Count           4
   Feature 3D Ring Count             3
   Effective Rotor Count             14.6
   Conformer Sampling RMSD           1.2
   CID Conformer Count               [6]28

References

   1. http://toxnet.nlm.nih.gov/cgi-bin/sis/search/r?dbs+hsdb:@term+@rn+@rel+37517-28-5
   2. http://toxnet.nlm.nih.gov/cgi-bin/sis/search/r?dbs+hsdb:@term+@rn+@rel+37517-28-5
   3. http://toxnet.nlm.nih.gov/cgi-bin/sis/search/r?dbs+hsdb:@term+@rn+@rel+37517-28-5
   4. http://toxnet.nlm.nih.gov/cgi-bin/sis/search/r?dbs+hsdb:@term+@rn+@rel+37517-28-5
   5. http://toxnet.nlm.nih.gov/cgi-bin/sis/search/r?dbs+hsdb:@term+@rn+@rel+37517-28-5
   6. http://pubchem.ncbi.nlm.nih.gov/vw3d/vw3d.cgi?cid=37768
