   Color/Form
        Colorless volatile liquid
   from [1]HSDB

   Odor

     * Characteristic quality: sulfur-like, sweet, sharp; hedonic tone:
       unpleasant
     * Acrid, fruity odor

   from [2]HSDB

   Boiling Point
        100.5 deg C
   from [3]HSDB

   Melting Point
        -47.55 deg C
   from [4]HSDB

   Critical Temperature and Pressure
        Critical temperature: 561 deg F = 294 deg C = 567 K; critical
   pressure: 485 psia = 33 atm
   from [5]HSDB

   Density/Specific Gravity
        0.9337 g/cu cm at 25 deg C
   from [6]HSDB

   Heat of Combustion
        -11,400 BTU/lb = 6,310 cal/g = -264X10+5 J/kg (estimated)
   from [7]HSDB

   Heat of Vaporization
        36.0 kJ/mol at 100.5 deg C
   from [8]HSDB

   Octanol/Water Partition Coefficient
        log Kow = 1.38
   from [9]HSDB

   Solubilities

     * Soluble in methyl ethyl ketone, tetrahydrofuran, esters, aromatic
       and chlorinated hydrocarbons
     * Miscible with ethanol, ethyl ether, acetone; soluble in chloroform
     * 1.500 lb/100 lb water at 68.02 deg F
     * Sol in chloroform
     * 1.6 parts by wt/100 parts by wt of water at room temp
     * 1.5 g/100 g water at 30 deg C
     * Soluble in most organic solvents
     * In water, 1.57X10+4 mg/L at 20 deg C

   from [10]HSDB

   Spectral Properties

     * Index of refraction: 1.4142 at 20 deg C
     * IR: 2226 (Sadtler Research Laboratories Prism Collection)
     * Raman: 102 (Sadtler Research Laboratories spectral collection)
     * UV: 2-37 (Organic Electronic Spectral Data, Phillips et al, John
       Wiley & Sons, New York)
     * 1H NMR: 113 (Varian Associates NMR Spectra Catalogue)
     * 13C NMR: 114 (Johnson and Jankowski, Carbon-13 NMR Spectra, John
       Wiley & Sons, New York)
     * MASS: 34560 (NIST/EPA/MSDC Mass Spectral database, 1990 version)

   from [11]HSDB

   Surface Tension
        0.028 N/m at 20 deg C.
   from [12]HSDB

   Vapor Density
        3.45 (Air = 1)
   from [13]HSDB

   Vapor Pressure
        38.5 mm Hg at 25 deg C
   from [14]HSDB

   Relative Evaporation Rate
        3.1 (Butyl acetate = 1)
   from [15]HSDB

   Other Chemical/Physical Properties

     * Conversion factor: 1 ppm in air = 4.1 mg/cu m
     * Weight: 7.8 lb per gallon
     * Saturated concn in air: 164 g/cu m at 20 deg C, 258 g/cu m at 30
       deg C
     * Liquid water interfacial tension: 14.3 dynes = 0.0143 N/m at 22.7
       deg C; Ratio of specific heats of vapor: 1.059; Heat of
       polymerization: -248 BTU/lb = -138 cal/g = -5.78X10+5 J/kg; Reid
       vapor pressure: 0.5 psia (approx)
     * Liquid heat capacity: 0.448 BTU/lb-F at 70 deg F; Liquid thermal
       conductivity: 1.023 BTU-in/hr-sq ft-F at 70 deg F; Saturated vapor
       density: 0.01119 lb/cu ft at 70 deg F; Ideal gas heat capacity:
       0.361 BTU/lb-F at 75 deg F
     * Readily polymerized by light, heat, ionizing radiation, and
       catalysts; can be copolymerized with other methacrylate esters and
       many other monomers
     * Henry's Law constant = 3.2X10-4 atm-cu m/mole at 25 deg C (est)
     * Hydroxyl radical reaction rate constant = 2.6X10-11 cu cm/molec-sec
       at 25 deg C (est)

   from [16]HSDB

   Computed Properties
   Molecular Weight                  100.11582 [g/mol]
   Molecular Formula                 C[5]H[8]O[2]
   XLogP3                            1.4
   H-Bond Donor                      0
   H-Bond Acceptor                   2
   Rotatable Bond Count              2
   Exact Mass                        100.052429
   MonoIsotopic Mass                 100.052429
   Topological Polar Surface Area    26.3
   Heavy Atom Count                  7
   Formal Charge                     0
   Complexity                        94.3
   Isotope Atom Count                0
   Defined Atom Stereocenter Count   0
   Undefined Atom Stereocenter Count 0
   Defined Bond Stereocenter Count   0
   Undefined Bond Stereocenter Count 0
   Covalently-Bonded Unit Count      1
   Feature 3D Acceptor Count         1
   Effective Rotor Count             2
   Conformer Sampling RMSD           0.4
   CID Conformer Count               [17]2

References

   1. http://toxnet.nlm.nih.gov/cgi-bin/sis/search/r?dbs+hsdb:@term+@rn+@rel+80-62-6
   2. http://toxnet.nlm.nih.gov/cgi-bin/sis/search/r?dbs+hsdb:@term+@rn+@rel+80-62-6
   3. http://toxnet.nlm.nih.gov/cgi-bin/sis/search/r?dbs+hsdb:@term+@rn+@rel+80-62-6
   4. http://toxnet.nlm.nih.gov/cgi-bin/sis/search/r?dbs+hsdb:@term+@rn+@rel+80-62-6
   5. http://toxnet.nlm.nih.gov/cgi-bin/sis/search/r?dbs+hsdb:@term+@rn+@rel+80-62-6
   6. http://toxnet.nlm.nih.gov/cgi-bin/sis/search/r?dbs+hsdb:@term+@rn+@rel+80-62-6
   7. http://toxnet.nlm.nih.gov/cgi-bin/sis/search/r?dbs+hsdb:@term+@rn+@rel+80-62-6
   8. http://toxnet.nlm.nih.gov/cgi-bin/sis/search/r?dbs+hsdb:@term+@rn+@rel+80-62-6
   9. http://toxnet.nlm.nih.gov/cgi-bin/sis/search/r?dbs+hsdb:@term+@rn+@rel+80-62-6
  10. http://toxnet.nlm.nih.gov/cgi-bin/sis/search/r?dbs+hsdb:@term+@rn+@rel+80-62-6
  11. http://toxnet.nlm.nih.gov/cgi-bin/sis/search/r?dbs+hsdb:@term+@rn+@rel+80-62-6
  12. http://toxnet.nlm.nih.gov/cgi-bin/sis/search/r?dbs+hsdb:@term+@rn+@rel+80-62-6
  13. http://toxnet.nlm.nih.gov/cgi-bin/sis/search/r?dbs+hsdb:@term+@rn+@rel+80-62-6
  14. http://toxnet.nlm.nih.gov/cgi-bin/sis/search/r?dbs+hsdb:@term+@rn+@rel+80-62-6
  15. http://toxnet.nlm.nih.gov/cgi-bin/sis/search/r?dbs+hsdb:@term+@rn+@rel+80-62-6
  16. http://toxnet.nlm.nih.gov/cgi-bin/sis/search/r?dbs+hsdb:@term+@rn+@rel+80-62-6
  17. http://pubchem.ncbi.nlm.nih.gov/vw3d/vw3d.cgi?cid=6658
