73672
  -OEChem-07051213122D

 48 49  0     0  0  0  0  0  0999 V2000
    4.6551    0.8026    0.0000 O   0  0  0  0  0  0  0  0  0  0  0  0
    3.7320   -0.7852    0.0000 O   0  0  0  0  0  0  0  0  0  0  0  0
    2.8660   -2.2852    0.0000 O   0  0  0  0  0  0  0  0  0  0  0  0
    6.3301   -2.2852    0.0000 O   0  0  0  0  0  0  0  0  0  0  0  0
    4.9641    1.7536    0.0000 N   0  0  0  0  0  0  0  0  0  0  0  0
    5.4641   -0.7852    0.0000 N   0  0  0  0  0  0  0  0  0  0  0  0
    6.5519    2.5626    0.0000 C   0  0  0  0  0  0  0  0  0  0  0  0
    7.1397    3.3717    0.0000 C   0  0  0  0  0  0  0  0  0  0  0  0
    5.7429    3.1504    0.0000 C   0  0  0  0  0  0  0  0  0  0  0  0
    5.9641    1.7536    0.0000 C   0  0  0  0  0  0  0  0  0  0  0  0
    7.3609    1.9749    0.0000 C   0  0  0  0  0  0  0  0  0  0  0  0
    5.8474    4.1450    0.0000 C   0  0  0  0  0  0  0  0  0  0  0  0
    6.7329    4.2852    0.0000 C   0  0  0  0  0  0  0  0  0  0  0  0
    6.2731    0.8026    0.0000 C   0  0  0  0  0  0  0  0  0  0  0  0
    5.4641    0.2148    0.0000 C   0  0  0  0  0  0  0  0  0  0  0  0
    4.5981   -1.2852    0.0000 C   0  0  0  0  0  0  0  0  0  0  0  0
    4.5981   -2.2852    0.0000 C   0  0  0  0  0  0  0  0  0  0  0  0
    3.7320   -2.7852    0.0000 C   0  0  0  0  0  0  0  0  0  0  0  0
    5.4641   -2.7852    0.0000 C   0  0  0  0  0  0  0  0  0  0  0  0
    3.7320   -3.7852    0.0000 C   0  0  0  0  0  0  0  0  0  0  0  0
    5.4641   -3.7852    0.0000 C   0  0  0  0  0  0  0  0  0  0  0  0
    4.5981   -4.2852    0.0000 C   0  0  0  0  0  0  0  0  0  0  0  0
    2.0000   -2.7852    0.0000 C   0  0  0  0  0  0  0  0  0  0  0  0
    7.1962   -2.7852    0.0000 C   0  0  0  0  0  0  0  0  0  0  0  0
    7.5704    2.9257    0.0000 H   0  0  0  0  0  0  0  0  0  0  0  0
    7.6537    3.7184    0.0000 H   0  0  0  0  0  0  0  0  0  0  0  0
    5.1469    3.3213    0.0000 H   0  0  0  0  0  0  0  0  0  0  0  0
    5.4711    2.5932    0.0000 H   0  0  0  0  0  0  0  0  0  0  0  0
    6.9965    1.4733    0.0000 H   0  0  0  0  0  0  0  0  0  0  0  0
    7.8625    1.6104    0.0000 H   0  0  0  0  0  0  0  0  0  0  0  0
    7.7253    2.4764    0.0000 H   0  0  0  0  0  0  0  0  0  0  0  0
    7.2993    4.5374    0.0000 H   0  0  0  0  0  0  0  0  0  0  0  0
    6.4808    4.8516    0.0000 H   0  0  0  0  0  0  0  0  0  0  0  0
    6.1665    4.0330    0.0000 H   0  0  0  0  0  0  0  0  0  0  0  0
    6.4640    4.0802    0.0000 H   0  0  0  0  0  0  0  0  0  0  0  0
    5.9122    4.7616    0.0000 H   0  0  0  0  0  0  0  0  0  0  0  0
    5.2308    4.2098    0.0000 H   0  0  0  0  0  0  0  0  0  0  0  0
    6.8628    0.6110    0.0000 H   0  0  0  0  0  0  0  0  0  0  0  0
    6.0010   -1.0952    0.0000 H   0  0  0  0  0  0  0  0  0  0  0  0
    3.1951   -4.0952    0.0000 H   0  0  0  0  0  0  0  0  0  0  0  0
    6.0010   -4.0952    0.0000 H   0  0  0  0  0  0  0  0  0  0  0  0
    4.5981   -4.9052    0.0000 H   0  0  0  0  0  0  0  0  0  0  0  0
    1.6900   -2.2483    0.0000 H   0  0  0  0  0  0  0  0  0  0  0  0
    1.4631   -3.0952    0.0000 H   0  0  0  0  0  0  0  0  0  0  0  0
    2.3100   -3.3222    0.0000 H   0  0  0  0  0  0  0  0  0  0  0  0
    6.8862   -3.3222    0.0000 H   0  0  0  0  0  0  0  0  0  0  0  0
    7.7331   -3.0952    0.0000 H   0  0  0  0  0  0  0  0  0  0  0  0
    7.5062   -2.2483    0.0000 H   0  0  0  0  0  0  0  0  0  0  0  0
  1  5  1  0  0  0  0
  1 15  1  0  0  0  0
  2 16  2  0  0  0  0
  3 18  1  0  0  0  0
  3 23  1  0  0  0  0
  4 19  1  0  0  0  0
  4 24  1  0  0  0  0
  5 10  2  0  0  0  0
  6 15  1  0  0  0  0
  6 16  1  0  0  0  0
  6 39  1  0  0  0  0
  7  8  1  0  0  0  0
  7  9  1  0  0  0  0
  7 10  1  0  0  0  0
  7 11  1  0  0  0  0
  8 13  1  0  0  0  0
  8 25  1  0  0  0  0
  8 26  1  0  0  0  0
  9 12  1  0  0  0  0
  9 27  1  0  0  0  0
  9 28  1  0  0  0  0
 10 14  1  0  0  0  0
 11 29  1  0  0  0  0
 11 30  1  0  0  0  0
 11 31  1  0  0  0  0
 12 35  1  0  0  0  0
 12 36  1  0  0  0  0
 12 37  1  0  0  0  0
 13 32  1  0  0  0  0
 13 33  1  0  0  0  0
 13 34  1  0  0  0  0
 14 15  2  0  0  0  0
 14 38  1  0  0  0  0
 16 17  1  0  0  0  0
 17 18  2  0  0  0  0
 17 19  1  0  0  0  0
 18 20  1  0  0  0  0
 19 21  2  0  0  0  0
 20 22  2  0  0  0  0
 20 40  1  0  0  0  0
 21 22  1  0  0  0  0
 21 41  1  0  0  0  0
 22 42  1  0  0  0  0
 23 43  1  0  0  0  0
 23 44  1  0  0  0  0
 23 45  1  0  0  0  0
 24 46  1  0  0  0  0
 24 47  1  0  0  0  0
 24 48  1  0  0  0  0
M  END
> <PUBCHEM_COMPOUND_CID>
73672

> <PUBCHEM_COMPOUND_CANONICALIZED>
1

> <PUBCHEM_CACTVS_COMPLEXITY>
402

> <PUBCHEM_CACTVS_HBOND_ACCEPTOR>
5

> <PUBCHEM_CACTVS_HBOND_DONOR>
1

> <PUBCHEM_CACTVS_ROTATABLE_BOND>
7

> <PUBCHEM_CACTVS_SUBSKEYS>
AAADceB7OAAAAAAAAAAAAAAAAAAAAWAAAAAwAAAAAAAAAAABwAAAHgAUAAAADgyBngIyhpLQBACpAyVyUgCCCAAlIgAomCE2bNsMJz7E9duENehn9D3I6UeY6CyPAAAACAAIAAAAAAAQABAAAAAAAAAAAA==

> <PUBCHEM_IUPAC_OPENEYE_NAME>
N-[3-(1-ethyl-1-methyl-propyl)isoxazol-5-yl]-2,6-dimethoxy-benzamide

> <PUBCHEM_IUPAC_CAS_NAME>
2,6-dimethoxy-N-[3-(3-methylpentan-3-yl)-5-isoxazolyl]benzamide

> <PUBCHEM_IUPAC_NAME>
2,6-dimethoxy-N-[3-(3-methylpentan-3-yl)-1,2-oxazol-5-yl]benzamide

> <PUBCHEM_IUPAC_SYSTEMATIC_NAME>
2,6-dimethoxy-N-[3-(3-methylpentan-3-yl)-1,2-oxazol-5-yl]benzamide

> <PUBCHEM_IUPAC_TRADITIONAL_NAME>
N-[3-(1-ethyl-1-methyl-propyl)isoxazol-5-yl]-2,6-dimethoxy-benzamide

> <PUBCHEM_IUPAC_INCHI>
InChI=1S/C18H24N2O4/c1-6-18(3,7-2)14-11-15(24-20-14)19-17(21)16-12(22-4)9-8-10-13(16)23-5/h8-11H,6-7H2,1-5H3,(H,19,21)

> <PUBCHEM_IUPAC_INCHIKEY>
PMHURSZHKKJGBM-UHFFFAOYSA-N

> <PUBCHEM_XLOGP3_AA>
3.9

> <PUBCHEM_EXACT_MASS>
332.173607

> <PUBCHEM_MOLECULAR_FORMULA>
C18H24N2O4

> <PUBCHEM_MOLECULAR_WEIGHT>
332.39416

> <PUBCHEM_OPENEYE_CAN_SMILES>
CCC(C)(CC)C1=NOC(=C1)NC(=O)C2=C(C=CC=C2OC)OC

> <PUBCHEM_OPENEYE_ISO_SMILES>
CCC(C)(CC)C1=NOC(=C1)NC(=O)C2=C(C=CC=C2OC)OC

> <PUBCHEM_CACTVS_TPSA>
73.6

> <PUBCHEM_MONOISOTOPIC_WEIGHT>
332.173607

> <PUBCHEM_TOTAL_CHARGE>
0

> <PUBCHEM_HEAVY_ATOM_COUNT>
24

> <PUBCHEM_ATOM_DEF_STEREO_COUNT>
0

> <PUBCHEM_ATOM_UDEF_STEREO_COUNT>
0

> <PUBCHEM_BOND_DEF_STEREO_COUNT>
0

> <PUBCHEM_BOND_UDEF_STEREO_COUNT>
0

> <PUBCHEM_ISOTOPIC_ATOM_COUNT>
0

> <PUBCHEM_COMPONENT_COUNT>
1

> <PUBCHEM_CACTVS_TAUTO_COUNT>
4

> <PUBCHEM_COORDINATE_TYPE>
1
5
255

> <PUBCHEM_BONDANNOTATIONS>
1  15  8
1  5  8
10  14  8
14  15  8
17  18  8
17  19  8
18  20  8
19  21  8
20  22  8
21  22  8
5  10  8

$$$$

