   Color/Form

     * Crystals from anhyd ether
     * White crystalline powder

   from [1]HSDB

   Melting Point
        39-41 deg C
   from [2]HSDB

   Octanol/Water Partition Coefficient
        log Kow = 0.86
   from [3]HSDB

   Solubilities
        Soluble in water
   from [4]HSDB

   Computed Properties
   Molecular Weight                  261.085962 [g/mol]
   Molecular Formula                 C[7]H[15]Cl[2]N[2]O[2]P
   XLogP3                            0.9
   H-Bond Donor                      1
   H-Bond Acceptor                   4
   Rotatable Bond Count              5
   Tautomer Count                    2
   Exact Mass                        260.02482
   MonoIsotopic Mass                 260.02482
   Topological Polar Surface Area    41.6
   Heavy Atom Count                  14
   Formal Charge                     0
   Complexity                        218
   Isotope Atom Count                0
   Defined Atom Stereocenter Count   0
   Undefined Atom Stereocenter Count 1
   Defined Bond Stereocenter Count   0
   Undefined Bond Stereocenter Count 0
   Covalently-Bonded Unit Count      1
   Feature 3D Ring Count             1
   Effective Rotor Count             6
   Conformer Sampling RMSD           0.6
   CID Conformer Count               [5]360

References

   1. http://toxnet.nlm.nih.gov/cgi-bin/sis/search/r?dbs+hsdb:@term+@rn+@rel+3778-73-2
   2. http://toxnet.nlm.nih.gov/cgi-bin/sis/search/r?dbs+hsdb:@term+@rn+@rel+3778-73-2
   3. http://toxnet.nlm.nih.gov/cgi-bin/sis/search/r?dbs+hsdb:@term+@rn+@rel+3778-73-2
   4. http://toxnet.nlm.nih.gov/cgi-bin/sis/search/r?dbs+hsdb:@term+@rn+@rel+3778-73-2
   5. http://pubchem.ncbi.nlm.nih.gov/vw3d/vw3d.cgi?cid=3690
