   Color/Form

     * CRYSTALS FROM WATER
     * WHITE TO FAINTLY YELLOWISH WHITE, CRYSTALLINE, POWDER

   from [1]HSDB

   Odor
        ODORLESS
   from [2]HSDB

   Melting Point
        258-259 DEG C (EFFERVESCENCE)
   from [3]HSDB

   Dissociation Constants
        PKA: 7.2
   from [4]HSDB

   Octanol/Water Partition Coefficient
        Log P= -0.45
   from [5]HSDB

   Solubilities

     * SPARINGLY SOL IN COLD WATER
     * SLIGHTLY SOL IN ALCOHOL
     * INSOL IN CHLOROFORM, DIETHYL ETHER, CARBON TETRACHLORIDE; SLIGHTLY
       SOL IN ACETONE
     * Readily soluble in 1 N sodium carbonate solution.
     * In water= 980 mg/l at 30 deg C.

   from [6]HSDB

   Other Chemical/Physical Properties
        WEAK ACID
   from [7]HSDB

   Computed Properties
   Molecular Weight                  222.24544 [g/mol]
   Molecular Formula                 C[4]H[6]N[4]O[3]S[2]
   XLogP3                            -0.3
   H-Bond Donor                      2
   H-Bond Acceptor                   7
   Rotatable Bond Count              2
   Tautomer Count                    5
   Exact Mass                        221.988132
   MonoIsotopic Mass                 221.988132
   Topological Polar Surface Area    152
   Heavy Atom Count                  13
   Formal Charge                     0
   Complexity                        297
   Isotope Atom Count                0
   Defined Atom Stereocenter Count   0
   Undefined Atom Stereocenter Count 0
   Defined Bond Stereocenter Count   0
   Undefined Bond Stereocenter Count 0
   Covalently-Bonded Unit Count      1
   Feature 3D Acceptor Count         4
   Feature 3D Donor Count            2
   Feature 3D Ring Count             1
   Effective Rotor Count             3
   Conformer Sampling RMSD           0.6
   CID Conformer Count               [8]10

References

   1. http://toxnet.nlm.nih.gov/cgi-bin/sis/search/r?dbs+hsdb:@term+@rn+@rel+59-66-5
   2. http://toxnet.nlm.nih.gov/cgi-bin/sis/search/r?dbs+hsdb:@term+@rn+@rel+59-66-5
   3. http://toxnet.nlm.nih.gov/cgi-bin/sis/search/r?dbs+hsdb:@term+@rn+@rel+59-66-5
   4. http://toxnet.nlm.nih.gov/cgi-bin/sis/search/r?dbs+hsdb:@term+@rn+@rel+59-66-5
   5. http://toxnet.nlm.nih.gov/cgi-bin/sis/search/r?dbs+hsdb:@term+@rn+@rel+59-66-5
   6. http://toxnet.nlm.nih.gov/cgi-bin/sis/search/r?dbs+hsdb:@term+@rn+@rel+59-66-5
   7. http://toxnet.nlm.nih.gov/cgi-bin/sis/search/r?dbs+hsdb:@term+@rn+@rel+59-66-5
   8. http://pubchem.ncbi.nlm.nih.gov/vw3d/vw3d.cgi?cid=1986
