5462416
  -OEChem-07051212562D

 74 80  0     1  0  0  0  0  0999 V2000
    3.2704   -1.3358    0.0000 O   0  0  0  0  0  0  0  0  0  0  0  0
    5.4745    2.1529    0.0000 O   0  0  0  0  0  0  0  0  0  0  0  0
    2.5357   -0.5577    0.0000 O   0  0  0  0  0  0  0  0  0  0  0  0
    7.0442   -2.1496    0.0000 O   0  0  0  0  0  0  0  0  0  0  0  0
    6.9198    0.9874    0.0000 O   0  0  0  0  0  0  0  0  0  0  0  0
    7.0120   -0.0582    0.0000 O   0  0  0  0  0  0  0  0  0  0  0  0
    5.1877    3.9874    0.0000 O   0  0  0  0  0  0  0  0  0  0  0  0
    4.5357    3.4564    0.0000 O   0  0  0  0  0  0  0  0  0  0  0  0
    7.0778   -4.8195    0.0000 O   0  0  0  0  0  0  0  0  0  0  0  0
    6.9198    3.9874    0.0000 O   0  0  0  0  0  0  0  0  0  0  0  0
    4.2974   -1.6669    0.0000 C   0  0  1  0  0  0  0  0  0  0  0  0
    4.3058   -0.5819    0.0000 C   0  0  1  0  0  0  0  0  0  0  0  0
    5.2370   -2.2094    0.0000 C   0  0  2  0  0  0  0  0  0  0  0  0
    3.4977   -2.3906    0.0000 C   0  0  1  0  0  0  0  0  0  0  0  0
    5.2038   -0.0541    0.0000 C   0  0  1  0  0  0  0  0  0  0  0  0
    5.1877    0.9874    0.0000 C   0  0  2  0  0  0  0  0  0  0  0  0
    5.0100   -3.2638    0.0000 C   0  0  1  0  0  0  0  0  0  0  0  0
    4.3217    1.4874    0.0000 C   0  0  1  0  0  0  0  0  0  0  0  0
    3.4037   -0.0611    0.0000 C   0  0  1  0  0  0  0  0  0  0  0  0
    3.9373   -3.3756    0.0000 C   0  0  0  0  0  0  0  0  0  0  0  0
    6.1725   -1.6596    0.0000 C   0  0  2  0  0  0  0  0  0  0  0  0
    3.4117    0.9805    0.0000 C   0  0  0  0  0  0  0  0  0  0  0  0
    6.1557   -0.5748    0.0000 C   0  0  0  0  0  0  0  0  0  0  0  0
    4.3217    2.4874    0.0000 C   0  0  2  0  0  0  0  0  0  0  0  0
    3.3223   -0.7631    0.0000 C   0  0  0  0  0  0  0  0  0  0  0  0
    6.0538    1.4874    0.0000 C   0  0  2  0  0  0  0  0  0  0  0  0
    6.1031   -2.7094    0.0000 C   0  0  0  0  0  0  0  0  0  0  0  0
    5.3908    1.3573    0.0000 C   0  0  0  0  0  0  0  0  0  0  0  0
    5.1877    2.9874    0.0000 C   0  0  1  0  0  0  0  0  0  0  0  0
    6.0538    2.4874    0.0000 C   0  0  0  0  0  0  0  0  0  0  0  0
    4.7436    2.4783    0.0000 C   0  0  3  0  0  0  0  0  0  0  0  0
    5.6779   -4.0081    0.0000 C   0  0  0  0  0  0  0  0  0  0  0  0
    3.4557    2.9874    0.0000 C   0  0  0  0  0  0  0  0  0  0  0  0
    5.4683   -4.9859    0.0000 C   0  0  0  0  0  0  0  0  0  0  0  0
    6.6726   -3.9053    0.0000 C   0  0  0  0  0  0  0  0  0  0  0  0
    6.3334   -5.4874    0.0000 C   0  0  0  0  0  0  0  0  0  0  0  0
    6.0538    4.4874    0.0000 C   0  0  0  0  0  0  0  0  0  0  0  0
    6.0538    5.4874    0.0000 C   0  0  0  0  0  0  0  0  0  0  0  0
    2.6898   -2.6548    0.0000 H   0  0  0  0  0  0  0  0  0  0  0  0
    5.9316    0.3850    0.0000 H   0  0  0  0  0  0  0  0  0  0  0  0
    4.7871   -3.8423    0.0000 H   0  0  0  0  0  0  0  0  0  0  0  0
    3.5856    1.9124    0.0000 H   0  0  0  0  0  0  0  0  0  0  0  0
    3.4025   -0.6811    0.0000 H   0  0  0  0  0  0  0  0  0  0  0  0
    3.3477   -3.5674    0.0000 H   0  0  0  0  0  0  0  0  0  0  0  0
    4.0660   -3.9821    0.0000 H   0  0  0  0  0  0  0  0  0  0  0  0
    6.7052   -1.3424    0.0000 H   0  0  0  0  0  0  0  0  0  0  0  0
    3.2072    1.5658    0.0000 H   0  0  0  0  0  0  0  0  0  0  0  0
    2.8001    0.8791    0.0000 H   0  0  0  0  0  0  0  0  0  0  0  0
    3.2100   -0.1534    0.0000 H   0  0  0  0  0  0  0  0  0  0  0  0
    2.7126   -0.8754    0.0000 H   0  0  0  0  0  0  0  0  0  0  0  0
    3.4347   -1.3728    0.0000 H   0  0  0  0  0  0  0  0  0  0  0  0
    6.5907    1.7974    0.0000 H   0  0  0  0  0  0  0  0  0  0  0  0
    5.7931   -3.2463    0.0000 H   0  0  0  0  0  0  0  0  0  0  0  0
    6.6400   -3.0194    0.0000 H   0  0  0  0  0  0  0  0  0  0  0  0
    6.4131   -2.1724    0.0000 H   0  0  0  0  0  0  0  0  0  0  0  0
    5.7795    0.8742    0.0000 H   0  0  0  0  0  0  0  0  0  0  0  0
    4.7992    1.5425    0.0000 H   0  0  0  0  0  0  0  0  0  0  0  0
    4.6508    3.2974    0.0000 H   0  0  0  0  0  0  0  0  0  0  0  0
    6.6644    2.3797    0.0000 H   0  0  0  0  0  0  0  0  0  0  0  0
    6.2658    3.0700    0.0000 H   0  0  0  0  0  0  0  0  0  0  0  0
    4.0888    3.0203    0.0000 H   0  0  0  0  0  0  0  0  0  0  0  0
    3.7657    3.5243    0.0000 H   0  0  0  0  0  0  0  0  0  0  0  0
    2.9188    3.2974    0.0000 H   0  0  0  0  0  0  0  0  0  0  0  0
    3.1457    2.4504    0.0000 H   0  0  0  0  0  0  0  0  0  0  0  0
    2.0000   -0.2457    0.0000 H   0  0  0  0  0  0  0  0  0  0  0  0
    7.5775   -1.8334    0.0000 H   0  0  0  0  0  0  0  0  0  0  0  0
    7.4567    1.2974    0.0000 H   0  0  0  0  0  0  0  0  0  0  0  0
    4.9014   -5.2371    0.0000 H   0  0  0  0  0  0  0  0  0  0  0  0
    6.9835   -3.3689    0.0000 H   0  0  0  0  0  0  0  0  0  0  0  0
    4.1208    3.9172    0.0000 H   0  0  0  0  0  0  0  0  0  0  0  0
    6.3972   -6.1041    0.0000 H   0  0  0  0  0  0  0  0  0  0  0  0
    6.6738    5.4874    0.0000 H   0  0  0  0  0  0  0  0  0  0  0  0
    6.0538    6.1074    0.0000 H   0  0  0  0  0  0  0  0  0  0  0  0
    5.4338    5.4874    0.0000 H   0  0  0  0  0  0  0  0  0  0  0  0
 11  1  1  1  0  0  0
  1 14  1  0  0  0  0
  2 28  1  0  0  0  0
  2 31  1  0  0  0  0
 19  3  1  6  0  0  0
  3 65  1  0  0  0  0
 21  4  1  6  0  0  0
  4 66  1  0  0  0  0
 26  5  1  6  0  0  0
  5 67  1  0  0  0  0
  6 23  2  0  0  0  0
 29  7  1  6  0  0  0
  7 37  1  0  0  0  0
  8 31  1  0  0  0  0
  8 70  1  0  0  0  0
  9 35  1  0  0  0  0
  9 36  1  0  0  0  0
 10 37  2  0  0  0  0
 11 12  1  0  0  0  0
 11 13  1  0  0  0  0
 11 14  1  0  0  0  0
 12 15  1  0  0  0  0
 12 19  1  0  0  0  0
 12 25  1  1  0  0  0
 13 17  1  0  0  0  0
 13 21  1  0  0  0  0
 13 27  1  6  0  0  0
 14 20  1  0  0  0  0
 14 39  1  6  0  0  0
 15 16  1  0  0  0  0
 15 23  1  0  0  0  0
 15 40  1  6  0  0  0
 16 18  1  0  0  0  0
 16 26  1  0  0  0  0
 16 28  1  1  0  0  0
 17 20  1  0  0  0  0
 17 32  1  6  0  0  0
 17 41  1  0  0  0  0
 18 22  1  0  0  0  0
 18 24  1  0  0  0  0
 18 42  1  6  0  0  0
 19 22  1  0  0  0  0
 19 43  1  0  0  0  0
 20 44  1  0  0  0  0
 20 45  1  0  0  0  0
 21 23  1  0  0  0  0
 21 46  1  0  0  0  0
 22 47  1  0  0  0  0
 22 48  1  0  0  0  0
 24 29  1  0  0  0  0
 24 31  1  0  0  0  0
 24 33  1  1  0  0  0
 25 49  1  0  0  0  0
 25 50  1  0  0  0  0
 25 51  1  0  0  0  0
 26 30  1  0  0  0  0
 26 52  1  0  0  0  0
 27 53  1  0  0  0  0
 27 54  1  0  0  0  0
 27 55  1  0  0  0  0
 28 56  1  0  0  0  0
 28 57  1  0  0  0  0
 29 30  1  0  0  0  0
 29 58  1  0  0  0  0
 30 59  1  0  0  0  0
 30 60  1  0  0  0  0
 31 61  1  0  0  0  0
 32 34  1  0  0  0  0
 32 35  2  0  0  0  0
 33 62  1  0  0  0  0
 33 63  1  0  0  0  0
 33 64  1  0  0  0  0
 34 36  2  0  0  0  0
 34 68  1  0  0  0  0
 35 69  1  0  0  0  0
 36 71  1  0  0  0  0
 37 38  1  0  0  0  0
 38 72  1  0  0  0  0
 38 73  1  0  0  0  0
 38 74  1  0  0  0  0
M  END
> <PUBCHEM_COMPOUND_CID>
5462416

> <PUBCHEM_COMPOUND_CANONICALIZED>
1

> <PUBCHEM_CACTVS_COMPLEXITY>
1080

> <PUBCHEM_CACTVS_HBOND_ACCEPTOR>
10

> <PUBCHEM_CACTVS_HBOND_DONOR>
4

> <PUBCHEM_CACTVS_ROTATABLE_BOND>
3

> <PUBCHEM_CACTVS_SUBSKEYS>
AAADcfB4PAAAAAAAAAAAAAAAEgAAAaIAAAA0aMECAAASAGDRgAAAGgAACAAAD1SwmAMyDIAABkCIAqjSiAICCAAkIAAIiAFGCMgcNhIENQqCWSClwBEMKYPK7PzPgAAAAAAAAADAAAYQADAAAYAADAAAAA==

> <PUBCHEM_IUPAC_INCHI>
InChI=1S/C28H36O10/c1-12(29)37-18-9-17(31)27-11-36-23(34)24(18,2)15(27)8-16(30)26(4)21(27)20(32)22(33)25(3)14(13-5-6-35-10-13)7-19-28(25,26)38-19/h5-6,10,14-19,21-23,30-31,33-34H,7-9,11H2,1-4H3/t14-,15-,16+,17-,18+,19+,21-,22-,23?,24+,25+,26+,27+,28+/m0/s1

> <PUBCHEM_IUPAC_INCHIKEY>
PUNWVWPDKCBXSA-RMOQNIQOSA-N

> <PUBCHEM_XLOGP3_AA>
0.1

> <PUBCHEM_EXACT_MASS>
532.230847

> <PUBCHEM_MOLECULAR_FORMULA>
C28H36O10

> <PUBCHEM_MOLECULAR_WEIGHT>
532.57944

> <PUBCHEM_OPENEYE_CAN_SMILES>
CC(=O)OC1CC(C23COC(C1(C2CC(C4(C3C(=O)C(C5(C46C(O6)CC5C7=COC=C7)C)O)C)O)C)O)O

> <PUBCHEM_OPENEYE_ISO_SMILES>
CC(=O)O[C@@H]1C[C@@H]([C@@]23COC([C@@]1([C@@H]2C[C@H]([C@@]4([C@@H]3C(=O)[C@@H]([C@@]5([C@]46[C@H](O6)C[C@H]5C7=COC=C7)C)O)C)O)C)O)O

> <PUBCHEM_CACTVS_TPSA>
159

> <PUBCHEM_MONOISOTOPIC_WEIGHT>
532.230847

> <PUBCHEM_TOTAL_CHARGE>
0

> <PUBCHEM_HEAVY_ATOM_COUNT>
38

> <PUBCHEM_ATOM_DEF_STEREO_COUNT>
13

> <PUBCHEM_ATOM_UDEF_STEREO_COUNT>
1

> <PUBCHEM_BOND_DEF_STEREO_COUNT>
0

> <PUBCHEM_BOND_UDEF_STEREO_COUNT>
0

> <PUBCHEM_ISOTOPIC_ATOM_COUNT>
0

> <PUBCHEM_COMPONENT_COUNT>
1

> <PUBCHEM_CACTVS_TAUTO_COUNT>
4

> <PUBCHEM_COORDINATE_TYPE>
1
5
255

> <PUBCHEM_BONDANNOTATIONS>
11  1  5
12  25  5
13  27  6
14  39  6
15  40  6
16  28  5
17  32  6
18  42  6
24  33  5
19  3  6
31  61  3
32  34  8
32  35  8
34  36  8
21  4  6
26  5  6
29  7  6
9  35  8
9  36  8

$$$$

