   Color/Form

     * OILY LIQUID, COLORLESS WHEN PURE
     * COLORLESS WITH A BLUISH FLUORESCENCE WHEN FRESHLY DISTILLED
     * Colorless to brown, oily liquid

   from [1]HSDB

   Odor

     * Hedonic tone; pungent
     * Aromatic amine-like odor.

   from [2]HSDB

   Taste

     * Burning taste
     * Detection threshold 7.0x10+1 ppm (medium: water; modality: taste;
       sample purity: chemically pure)
     * Detection threshold 4.61x10-5 ppm (medium: water; modality: taste;
       sample purity: not specified)

   from [3]HSDB

   Boiling Point
        184.1 deg C
   from [4]HSDB

   Melting Point
        -6.0 deg C
   from [5]HSDB

   Critical Temperature and Pressure

     * Critical temperature: 699 K; Critical pressure: 4.89 MPa
     * CRITICAL TEMPERATURE: 798.1 DEG F= 425.6 DEG C= 698.8 DEG K;
       CRITICAL PRESSURE: 770 PSIA= 52.4 ATM= 5.31 MEGANEWTONS/SQUARE M

   from [6]HSDB

   Density/Specific Gravity
        1.0217 @ 20 deg C/20 deg C
   from [7]HSDB

   Dissociation Constants
        pKa= 4.6 @ 25 deg C
   from [8]HSDB

   Heat of Combustion
        3394 KJ/mol
   from [9]HSDB

   Heat of Vaporization
        478.5 J/g
   from [10]HSDB

   Octanol/Water Partition Coefficient
        Log Kow= 0.90
   from [11]HSDB

   pH
        8.1 (0.2 molar aq soln)
   from [12]HSDB

   Solubilities

     * Miscible with chloroform, other organic solvents
     * Miscible in ethanol, ethyl ether, and acetone
     * MISCIBLE WITH LIPIDS; SOL IN DIL HYDROCHLORIC ACID
     * MISCIBLE WITH VEGETABLE OILS, ESSENTIAL OILS
     * 1 g in 28.6 ml water, 1 g in 15.7 ml in boiling water
     * > 10% in benzene
     * > 10% in ethyl ether
     * > 10% in ethyl alcohol
     * > 10% in petroleum ether
     * 3.5 parts/100 parts water @ 25 deg C; 6.4 parts/100 parts water @
       90 deg C
     * Water solubility = 36,000 mg/l at 25 deg C

   from [13]HSDB

   Spectral Properties

     * Index of refraction: 1.5863 @ 20 deg C/D
     * MAX ABSORPTION (ALCOHOL): 234.5 NM (LOG E= 3.90); 284.5 NM (LOG E=
       3.23)
     * IR: 4834 (Coblentz Society Spectral Collection)
     * UV: 1129 (Sadtler Research Laboratories Spectral Collection)
     * NMR: 191 (Sadtler Research Laboratories Spectral Collection)
     * MASS: 192 (Atlas of Mass Spectral Data, John Wiley & Sons, New
       York)
     * Intense mass spectral peaks: 66 m/z, 93 m/z

   from [14]HSDB

   Surface Tension
        42.12 dynes/cm @ 25 deg C in contact with air; 39.41 dynes/cm @ 50
   deg C in contact with air; 36.69 dynes/cm @ 75 deg C in contact with
   air.
   from [15]HSDB

   Vapor Density
        3.3 (Air= 1)
   from [16]HSDB

   Vapor Pressure
        4.9X10-1 mm Hg at 25 deg C
   from [17]HSDB

   Relative Evaporation Rate
        < 1 (butyl acetate= 1)
   from [18]HSDB

   Viscosity
        4.35 cP @ 20 deg C; 1.62 cP @ 60 deg C
   from [19]HSDB

   Other Chemical/Physical Properties

     * pKb: 9.30; combines with acids to form salts; it dissolves alkali
       or alkaline earth metals with evolution of hydrogen & formation of
       anilides
     * EASILY ACYLATED & ALKYLATED
     * EASILY OXIDIZED TO COMPLEX SELF-CONDENSATION DYES KNOWN AS ANILINE
       BLACKS
     * LIQ-WATER INTERFACIAL TENSION: 5.8 DYNES/CM= 0.0058 NEWTON/M AT 20
       DEG C
     * Brown oily liquid /SRP: Technical grade/
     * Dielectric constant: 6.89 @ 20 deg C, 5.93 @ 70 deg C; dipole
       moment: 1.53 @ 20 deg C in benzene
     * Heat of formation: 7.55 kcal/mole @ 25 deg C
     * Wt/gal @ 25 deg C: 8.50 lb
     * Heat capacity: 191.9 Joules/mole @ 25 deg C, 1 atm (liq), 107.9
       Joules/mole @ 25 deg C, 1 atm (gas)
     * Henry's Law constant= 2.02X10-6 atm-cu m/mol @ 25 deg C
     * Yields acetanilide when treated with acetic anhydride or acetyl
       chloride & thiocarbanilide when carbon disulfide vapor is passed
       into aniline
     * Vapor Pressure: 1 mm Hg at 35 deg C; 0.3 mm Hg at 20 deg C
     * White crystals which darken in light and air. /Aniline
       hydrochloride/
     * Melting point: 196-198 deg C /Aniline hydrochloride/
     * Boiling point: 245 deg C /Aniline hydrochloride/
     * Specific gravity: 1.2215 /Aniline hydrochloride/
     * Hydroxyl radical rate constant= 1.1X10-10 cu cm/molec-sec @ 25 deg
       C

   from [20]HSDB

   Computed Properties
   Molecular Weight                  93.12648 [g/mol]
   Molecular Formula                 C[6]H[7]N
   XLogP3                            0.9
   H-Bond Donor                      1
   H-Bond Acceptor                   1
   Rotatable Bond Count              0
   Exact Mass                        93.057849
   MonoIsotopic Mass                 93.057849
   Topological Polar Surface Area    26
   Heavy Atom Count                  7
   Formal Charge                     0
   Complexity                        46.1
   Isotope Atom Count                0
   Defined Atom Stereocenter Count   0
   Undefined Atom Stereocenter Count 0
   Defined Bond Stereocenter Count   0
   Undefined Bond Stereocenter Count 0
   Covalently-Bonded Unit Count      1
   Feature 3D Donor Count            1
   Feature 3D Cation Count           1
   Feature 3D Ring Count             1
   Effective Rotor Count             0
   Conformer Sampling RMSD           0.4
   CID Conformer Count               [21]1

References

   1. http://toxnet.nlm.nih.gov/cgi-bin/sis/search/r?dbs+hsdb:@term+@rn+@rel+62-53-3
   2. http://toxnet.nlm.nih.gov/cgi-bin/sis/search/r?dbs+hsdb:@term+@rn+@rel+62-53-3
   3. http://toxnet.nlm.nih.gov/cgi-bin/sis/search/r?dbs+hsdb:@term+@rn+@rel+62-53-3
   4. http://toxnet.nlm.nih.gov/cgi-bin/sis/search/r?dbs+hsdb:@term+@rn+@rel+62-53-3
   5. http://toxnet.nlm.nih.gov/cgi-bin/sis/search/r?dbs+hsdb:@term+@rn+@rel+62-53-3
   6. http://toxnet.nlm.nih.gov/cgi-bin/sis/search/r?dbs+hsdb:@term+@rn+@rel+62-53-3
   7. http://toxnet.nlm.nih.gov/cgi-bin/sis/search/r?dbs+hsdb:@term+@rn+@rel+62-53-3
   8. http://toxnet.nlm.nih.gov/cgi-bin/sis/search/r?dbs+hsdb:@term+@rn+@rel+62-53-3
   9. http://toxnet.nlm.nih.gov/cgi-bin/sis/search/r?dbs+hsdb:@term+@rn+@rel+62-53-3
  10. http://toxnet.nlm.nih.gov/cgi-bin/sis/search/r?dbs+hsdb:@term+@rn+@rel+62-53-3
  11. http://toxnet.nlm.nih.gov/cgi-bin/sis/search/r?dbs+hsdb:@term+@rn+@rel+62-53-3
  12. http://toxnet.nlm.nih.gov/cgi-bin/sis/search/r?dbs+hsdb:@term+@rn+@rel+62-53-3
  13. http://toxnet.nlm.nih.gov/cgi-bin/sis/search/r?dbs+hsdb:@term+@rn+@rel+62-53-3
  14. http://toxnet.nlm.nih.gov/cgi-bin/sis/search/r?dbs+hsdb:@term+@rn+@rel+62-53-3
  15. http://toxnet.nlm.nih.gov/cgi-bin/sis/search/r?dbs+hsdb:@term+@rn+@rel+62-53-3
  16. http://toxnet.nlm.nih.gov/cgi-bin/sis/search/r?dbs+hsdb:@term+@rn+@rel+62-53-3
  17. http://toxnet.nlm.nih.gov/cgi-bin/sis/search/r?dbs+hsdb:@term+@rn+@rel+62-53-3
  18. http://toxnet.nlm.nih.gov/cgi-bin/sis/search/r?dbs+hsdb:@term+@rn+@rel+62-53-3
  19. http://toxnet.nlm.nih.gov/cgi-bin/sis/search/r?dbs+hsdb:@term+@rn+@rel+62-53-3
  20. http://toxnet.nlm.nih.gov/cgi-bin/sis/search/r?dbs+hsdb:@term+@rn+@rel+62-53-3
  21. http://pubchem.ncbi.nlm.nih.gov/vw3d/vw3d.cgi?cid=6115
