13525
  -OEChem-06241222392D

 31 30  0     0  0  0  0  0  0999 V2000
    4.5981    0.0670    0.0000 S   0  0  0  0  0  0  0  0  0  0  0  0
    4.2320   -1.2990    0.0000 S   0  0  0  0  0  0  0  0  0  0  0  0
    3.7320   -0.4330    0.0000 P   0  0  0  0  0  0  0  0  0  0  0  0
    9.7942    0.0670    0.0000 O   0  0  0  0  0  0  0  0  0  0  0  0
    2.8660   -0.9330    0.0000 O   0  0  0  0  0  0  0  0  0  0  0  0
    3.2320    0.4330    0.0000 O   0  0  0  0  0  0  0  0  0  0  0  0
    6.3301    1.0670    0.0000 O   0  0  0  0  0  0  0  0  0  0  0  0
    7.1962   -0.4330    0.0000 N   0  0  0  0  0  0  0  0  0  0  0  0
    8.0622    0.0670    0.0000 C   0  0  0  0  0  0  0  0  0  0  0  0
    8.9282   -0.4330    0.0000 C   0  0  0  0  0  0  0  0  0  0  0  0
    5.4641   -0.4330    0.0000 C   0  0  0  0  0  0  0  0  0  0  0  0
    6.3301    0.0670    0.0000 C   0  0  0  0  0  0  0  0  0  0  0  0
   10.6603   -0.4330    0.0000 C   0  0  0  0  0  0  0  0  0  0  0  0
    2.0000   -0.4330    0.0000 C   0  0  0  0  0  0  0  0  0  0  0  0
    3.7320    1.2990    0.0000 C   0  0  0  0  0  0  0  0  0  0  0  0
    8.4607    0.5419    0.0000 H   0  0  0  0  0  0  0  0  0  0  0  0
    7.6636    0.5419    0.0000 H   0  0  0  0  0  0  0  0  0  0  0  0
    8.5297   -0.9080    0.0000 H   0  0  0  0  0  0  0  0  0  0  0  0
    9.3267   -0.9080    0.0000 H   0  0  0  0  0  0  0  0  0  0  0  0
    7.1962   -1.0530    0.0000 H   0  0  0  0  0  0  0  0  0  0  0  0
    5.0656   -0.9080    0.0000 H   0  0  0  0  0  0  0  0  0  0  0  0
    5.8626   -0.9080    0.0000 H   0  0  0  0  0  0  0  0  0  0  0  0
   10.3503   -0.9699    0.0000 H   0  0  0  0  0  0  0  0  0  0  0  0
   11.1972   -0.7430    0.0000 H   0  0  0  0  0  0  0  0  0  0  0  0
   10.9703    0.1039    0.0000 H   0  0  0  0  0  0  0  0  0  0  0  0
    2.3100    0.1039    0.0000 H   0  0  0  0  0  0  0  0  0  0  0  0
    1.4631   -0.1230    0.0000 H   0  0  0  0  0  0  0  0  0  0  0  0
    1.6900   -0.9699    0.0000 H   0  0  0  0  0  0  0  0  0  0  0  0
    4.2690    0.9890    0.0000 H   0  0  0  0  0  0  0  0  0  0  0  0
    4.0420    1.8360    0.0000 H   0  0  0  0  0  0  0  0  0  0  0  0
    3.1951    1.6090    0.0000 H   0  0  0  0  0  0  0  0  0  0  0  0
  1  3  1  0  0  0  0
  1 11  1  0  0  0  0
  2  3  2  0  0  0  0
  3  5  1  0  0  0  0
  3  6  1  0  0  0  0
  4 10  1  0  0  0  0
  4 13  1  0  0  0  0
  5 14  1  0  0  0  0
  6 15  1  0  0  0  0
  7 12  2  0  0  0  0
  8  9  1  0  0  0  0
  8 12  1  0  0  0  0
  8 20  1  0  0  0  0
  9 10  1  0  0  0  0
  9 16  1  0  0  0  0
  9 17  1  0  0  0  0
 10 18  1  0  0  0  0
 10 19  1  0  0  0  0
 11 12  1  0  0  0  0
 11 21  1  0  0  0  0
 11 22  1  0  0  0  0
 13 23  1  0  0  0  0
 13 24  1  0  0  0  0
 13 25  1  0  0  0  0
 14 26  1  0  0  0  0
 14 27  1  0  0  0  0
 14 28  1  0  0  0  0
 15 29  1  0  0  0  0
 15 30  1  0  0  0  0
 15 31  1  0  0  0  0
M  END
> <PUBCHEM_COMPOUND_CID>
13525

> <PUBCHEM_COMPOUND_CANONICALIZED>
1

> <PUBCHEM_CACTVS_COMPLEXITY>
231

> <PUBCHEM_CACTVS_HBOND_ACCEPTOR>
6

> <PUBCHEM_CACTVS_HBOND_DONOR>
1

> <PUBCHEM_CACTVS_ROTATABLE_BOND>
8

> <PUBCHEM_CACTVS_SUBSKEYS>
AAADceBiOAJgAAAAAAAAAAAAAAAAAAAAAAAAAAAAAAAAAAAAAAAAHgQQACAAAADlwAaCAALABRAIAAEQEAAAAAAAAAAAAIAIAAACAAAAAAABAAAAFgCQAAAAAAAAAAAAAAAAAAAAAAAAAAAAAAAAAAAAAA==

> <PUBCHEM_IUPAC_OPENEYE_NAME>
2-dimethoxyphosphinothioylsulfanyl-N-(2-methoxyethyl)acetamide

> <PUBCHEM_IUPAC_CAS_NAME>
2-(dimethoxyphosphinothioylthio)-N-(2-methoxyethyl)acetamide

> <PUBCHEM_IUPAC_NAME>
2-dimethoxyphosphinothioylsulfanyl-N-(2-methoxyethyl)acetamide

> <PUBCHEM_IUPAC_SYSTEMATIC_NAME>
2-dimethoxyphosphinothioylsulfanyl-N-(2-methoxyethyl)ethanamide

> <PUBCHEM_IUPAC_TRADITIONAL_NAME>
2-(dimethoxythiophosphorylthio)-N-(2-methoxyethyl)acetamide

> <PUBCHEM_IUPAC_INCHI>
InChI=1S/C7H16NO4PS2/c1-10-5-4-8-7(9)6-15-13(14,11-2)12-3/h4-6H2,1-3H3,(H,8,9)

> <PUBCHEM_IUPAC_INCHIKEY>
GDTZUQIYUMGJRT-UHFFFAOYSA-N

> <PUBCHEM_XLOGP3>
0.6

> <PUBCHEM_EXACT_MASS>
273.025837

> <PUBCHEM_MOLECULAR_FORMULA>
C7H16NO4PS2

> <PUBCHEM_MOLECULAR_WEIGHT>
273.310002

> <PUBCHEM_OPENEYE_CAN_SMILES>
COCCNC(=O)CSP(=S)(OC)OC

> <PUBCHEM_OPENEYE_ISO_SMILES>
COCCNC(=O)CSP(=S)(OC)OC

> <PUBCHEM_CACTVS_TPSA>
114

> <PUBCHEM_MONOISOTOPIC_WEIGHT>
273.025837

> <PUBCHEM_TOTAL_CHARGE>
0

> <PUBCHEM_HEAVY_ATOM_COUNT>
15

> <PUBCHEM_ATOM_DEF_STEREO_COUNT>
0

> <PUBCHEM_ATOM_UDEF_STEREO_COUNT>
0

> <PUBCHEM_BOND_DEF_STEREO_COUNT>
0

> <PUBCHEM_BOND_UDEF_STEREO_COUNT>
0

> <PUBCHEM_ISOTOPIC_ATOM_COUNT>
0

> <PUBCHEM_COMPONENT_COUNT>
1

> <PUBCHEM_CACTVS_TAUTO_COUNT>
2

> <PUBCHEM_COORDINATE_TYPE>
1
5
255

$$$$

