   Color/Form

     * Crystals from acetone.
     * FINE, WHITE, CRYSTALLINE POWDER

   from [1]HSDB

   Odor
        CHARACTERISTIC
   from [2]HSDB

   Taste

     * BITTER TASTE
     * CHARACTERISTIC

   from [3]HSDB

   Melting Point
        231 to 232 deg C
   from [4]HSDB

   Octanol/Water Partition Coefficient
        log Kow = 1.31 at pH 6.5
   from [5]HSDB

   Solubilities

     * PRACTICALLY INSOL IN WATER, SOL IN ALKALINE SOLN
     * FREELY SOL IN DIMETHYLFORMAMIDE; SLIGHTLY SOL IN ACETONE;
       PRACTICALLY INSOL IN ETHER & CHLOROFORM

   from [6]HSDB

   Spectral Properties

     * MAX ABSORPTION (0.01 N HYDROCHLORIC ACID): 283 NM (A= 284, 1%, 1
       CM)
     * MAX ABSORPTION (0.1 N SODIUM HYDROXIDE): 316 NM (A= 311, 1%, 1 CM);
       296 NM
     * SADTLER REFERENCE NUMBER: R79 (IR)

   from [7]HSDB

   Other Chemical/Physical Properties
        Melting point also reported as 238 to 239 deg C.
   from [8]HSDB

   Computed Properties
   Molecular Weight                  431.93736 [g/mol]
   Molecular Formula                 C[15]H[14]ClN[3]O[4]S[3]
   XLogP3                            1.7
   H-Bond Donor                      2
   H-Bond Acceptor                   7
   Rotatable Bond Count              5
   Tautomer Count                    3
   Exact Mass                        430.983497
   MonoIsotopic Mass                 430.983497
   Topological Polar Surface Area    161
   Heavy Atom Count                  26
   Formal Charge                     0
   Complexity                        739
   Isotope Atom Count                0
   Defined Atom Stereocenter Count   0
   Undefined Atom Stereocenter Count 0
   Defined Bond Stereocenter Count   0
   Undefined Bond Stereocenter Count 0
   Covalently-Bonded Unit Count      1
   Feature 3D Acceptor Count         4
   Feature 3D Donor Count            3
   Feature 3D Ring Count             3
   Effective Rotor Count             5.2
   Conformer Sampling RMSD           0.8
   CID Conformer Count               [9]54

References

   1. http://toxnet.nlm.nih.gov/cgi-bin/sis/search/r?dbs+hsdb:@term+@rn+@rel+91-33-8
   2. http://toxnet.nlm.nih.gov/cgi-bin/sis/search/r?dbs+hsdb:@term+@rn+@rel+91-33-8
   3. http://toxnet.nlm.nih.gov/cgi-bin/sis/search/r?dbs+hsdb:@term+@rn+@rel+91-33-8
   4. http://toxnet.nlm.nih.gov/cgi-bin/sis/search/r?dbs+hsdb:@term+@rn+@rel+91-33-8
   5. http://toxnet.nlm.nih.gov/cgi-bin/sis/search/r?dbs+hsdb:@term+@rn+@rel+91-33-8
   6. http://toxnet.nlm.nih.gov/cgi-bin/sis/search/r?dbs+hsdb:@term+@rn+@rel+91-33-8
   7. http://toxnet.nlm.nih.gov/cgi-bin/sis/search/r?dbs+hsdb:@term+@rn+@rel+91-33-8
   8. http://toxnet.nlm.nih.gov/cgi-bin/sis/search/r?dbs+hsdb:@term+@rn+@rel+91-33-8
   9. http://pubchem.ncbi.nlm.nih.gov/vw3d/vw3d.cgi?cid=2343
