13218
  -OEChem-06261207542D

 17 17  0     0  0  0  0  0  0999 V2000
    3.0000   -2.6550    0.0000 I   0  0  0  0  0  0  0  0  0  0  0  0
    3.0000    1.3450    0.0000 S   0  0  0  0  0  0  0  0  0  0  0  0
    4.0000    1.3450    0.0000 O   0  0  0  0  0  0  0  0  0  0  0  0
    2.0000    1.3450    0.0000 O   0  0  0  0  0  0  0  0  0  0  0  0
    3.0000    2.3450    0.0000 N   0  0  0  0  0  0  0  0  0  0  0  0
    3.0000    0.3450    0.0000 C   0  0  0  0  0  0  0  0  0  0  0  0
    2.1340   -0.1550    0.0000 C   0  0  0  0  0  0  0  0  0  0  0  0
    3.8660   -0.1550    0.0000 C   0  0  0  0  0  0  0  0  0  0  0  0
    2.1340   -1.1550    0.0000 C   0  0  0  0  0  0  0  0  0  0  0  0
    3.8660   -1.1550    0.0000 C   0  0  0  0  0  0  0  0  0  0  0  0
    3.0000   -1.6550    0.0000 C   0  0  0  0  0  0  0  0  0  0  0  0
    1.5970    0.1550    0.0000 H   0  0  0  0  0  0  0  0  0  0  0  0
    4.4030    0.1550    0.0000 H   0  0  0  0  0  0  0  0  0  0  0  0
    1.5970   -1.4650    0.0000 H   0  0  0  0  0  0  0  0  0  0  0  0
    4.4030   -1.4650    0.0000 H   0  0  0  0  0  0  0  0  0  0  0  0
    3.5369    2.6550    0.0000 H   0  0  0  0  0  0  0  0  0  0  0  0
    2.4631    2.6550    0.0000 H   0  0  0  0  0  0  0  0  0  0  0  0
  1 11  1  0  0  0  0
  2  3  2  0  0  0  0
  2  4  2  0  0  0  0
  2  5  1  0  0  0  0
  2  6  1  0  0  0  0
  5 16  1  0  0  0  0
  5 17  1  0  0  0  0
  6  7  2  0  0  0  0
  6  8  1  0  0  0  0
  7  9  1  0  0  0  0
  7 12  1  0  0  0  0
  8 10  2  0  0  0  0
  8 13  1  0  0  0  0
  9 11  2  0  0  0  0
  9 14  1  0  0  0  0
 10 11  1  0  0  0  0
 10 15  1  0  0  0  0
M  END
> <PUBCHEM_COMPOUND_CID>
13218

> <PUBCHEM_COMPOUND_CANONICALIZED>
1

> <PUBCHEM_CACTVS_COMPLEXITY>
213

> <PUBCHEM_CACTVS_HBOND_ACCEPTOR>
3

> <PUBCHEM_CACTVS_HBOND_DONOR>
1

> <PUBCHEM_CACTVS_ROTATABLE_BOND>
1

> <PUBCHEM_CACTVS_SUBSKEYS>
AAADcYBiMABAAgAAAAAAAAAAAAAAAAAAAAAwAAAAAAAAAAABAAAAGAQwQAAACACCUAAwAYAAAAKAACBCAHBCABAgAAAIiBgAAIgIICKAERCAIAAggAAIiAcAAAAAAAAAAAAAAAAAAAAAAAAAAAAAAAAAAA==

> <PUBCHEM_IUPAC_OPENEYE_NAME>
4-iodobenzenesulfonamide

> <PUBCHEM_IUPAC_CAS_NAME>
4-iodobenzenesulfonamide

> <PUBCHEM_IUPAC_NAME>
4-iodobenzenesulfonamide

> <PUBCHEM_IUPAC_SYSTEMATIC_NAME>
4-iodanylbenzenesulfonamide

> <PUBCHEM_IUPAC_TRADITIONAL_NAME>
4-iodobenzenesulfonamide

> <PUBCHEM_IUPAC_INCHI>
InChI=1S/C6H6INO2S/c7-5-1-3-6(4-2-5)11(8,9)10/h1-4H,(H2,8,9,10)

> <PUBCHEM_IUPAC_INCHIKEY>
KQZFABSTXSNEQH-UHFFFAOYSA-N

> <PUBCHEM_XLOGP3>
1.6

> <PUBCHEM_EXACT_MASS>
282.916397

> <PUBCHEM_MOLECULAR_FORMULA>
C6H6INO2S

> <PUBCHEM_MOLECULAR_WEIGHT>
283.08681

> <PUBCHEM_OPENEYE_CAN_SMILES>
C1=CC(=CC=C1S(=O)(=O)N)I

> <PUBCHEM_OPENEYE_ISO_SMILES>
C1=CC(=CC=C1S(=O)(=O)N)I

> <PUBCHEM_CACTVS_TPSA>
68.5

> <PUBCHEM_MONOISOTOPIC_WEIGHT>
282.916397

> <PUBCHEM_TOTAL_CHARGE>
0

> <PUBCHEM_HEAVY_ATOM_COUNT>
11

> <PUBCHEM_ATOM_DEF_STEREO_COUNT>
0

> <PUBCHEM_ATOM_UDEF_STEREO_COUNT>
0

> <PUBCHEM_BOND_DEF_STEREO_COUNT>
0

> <PUBCHEM_BOND_UDEF_STEREO_COUNT>
0

> <PUBCHEM_ISOTOPIC_ATOM_COUNT>
0

> <PUBCHEM_COMPONENT_COUNT>
1

> <PUBCHEM_CACTVS_TAUTO_COUNT>
1

> <PUBCHEM_COORDINATE_TYPE>
1
5
255

> <PUBCHEM_BONDANNOTATIONS>
10  11  8
6  7  8
6  8  8
7  9  8
8  10  8
9  11  8

$$$$

