   Color/Form
        Colorless crystals
   from [1]HSDB

   Melting Point
        217 deg C
   from [2]HSDB

   Density/Specific Gravity
        1.36 @ 20 deg C
   from [3]HSDB

   Octanol/Water Partition Coefficient
        log Kow = -0.18
   from [4]HSDB

   Solubilities

     * In ethanol, 2.25; in hexane <0.001 (both g/l @ 20 deg C)
     * In water, 290 mg/l @ 25 deg C

   from [5]HSDB

   Vapor Pressure
        <3X10-8 mm Hg @ 25 deg C
   from [6]HSDB

   Computed Properties
   Molecular Weight                  217.22724 [g/mol]
   Molecular Formula                 C[10]H[11]N[5]O
   XLogP3-AA                         0
   H-Bond Donor                      1
   H-Bond Acceptor                   4
   Rotatable Bond Count              2
   Tautomer Count                    2
   Exact Mass                        217.09636
   MonoIsotopic Mass                 217.09636
   Topological Polar Surface Area    70
   Heavy Atom Count                  16
   Formal Charge                     0
   Complexity                        325
   Isotope Atom Count                0
   Defined Atom Stereocenter Count   0
   Undefined Atom Stereocenter Count 0
   Defined Bond Stereocenter Count   1
   Undefined Bond Stereocenter Count 0
   Covalently-Bonded Unit Count      1
   Feature 3D Acceptor Count         4
   Feature 3D Donor Count            1
   Feature 3D Ring Count             2
   Effective Rotor Count             2.6
   Conformer Sampling RMSD           0.6
   CID Conformer Count               [7]12

References

   1. http://toxnet.nlm.nih.gov/cgi-bin/sis/search/r?dbs+hsdb:@term+@rn+@rel+123312-89-0
   2. http://toxnet.nlm.nih.gov/cgi-bin/sis/search/r?dbs+hsdb:@term+@rn+@rel+123312-89-0
   3. http://toxnet.nlm.nih.gov/cgi-bin/sis/search/r?dbs+hsdb:@term+@rn+@rel+123312-89-0
   4. http://toxnet.nlm.nih.gov/cgi-bin/sis/search/r?dbs+hsdb:@term+@rn+@rel+123312-89-0
   5. http://toxnet.nlm.nih.gov/cgi-bin/sis/search/r?dbs+hsdb:@term+@rn+@rel+123312-89-0
   6. http://toxnet.nlm.nih.gov/cgi-bin/sis/search/r?dbs+hsdb:@term+@rn+@rel+123312-89-0
   7. http://pubchem.ncbi.nlm.nih.gov/vw3d/vw3d.cgi?cid=9576037
