   Color/Form

     * Yellow to reddish-yellow transparent liquid
     * Clear amber liquid

   from [1]HSDB

   Odor
        Faint characteristic odor
   from [2]HSDB

   Boiling Point
        119-120 deg C (decomp) at 0.09 mm Hg
   from [3]HSDB

   Melting Point
        14-15 deg C
   from [4]HSDB

   Density/Specific Gravity
        1.255-1.265 at 25 deg C
   from [5]HSDB

   Octanol/Water Partition Coefficient
        log Kow = 2.71
   from [6]HSDB

   Solubilities

     * Very soluble in methanol, ethanol, acetone & chloroform. Sparingly
       soluble in n-hexane, kerosene.
     * In water at 30 deg C, 46 mg/l. In n-hexane 27, methanol 1000,
       xylene 1000 (all in g/kg) at 20 deg C.
     * Miscible in alcohols, benzene, chloroform, ketones, toluene,
       xylene.
     * In water 46 mg/l at 30 deg C; in methanol, acetone, chloroform >50%
       at 20 deg C.

   from [7]HSDB

   Spectral Properties
        Index of refraction: 1.5404 at 32.5 deg C/D
   from [8]HSDB

   Vapor Pressure
        105 mPa at 20 deg C
   from [9]HSDB

   Other Chemical/Physical Properties

     * Vapor pressure: 105 mPa at 20 deg C /Technical grade/
     * Amber liquid /Technical grade/
     * Solubility: 46 mg/l water at 30 deg C; 27 g/kg hexane at 20 deg C
       /Technical grade/
     * Rapidly decomposes under alkaline conditions and upon exposure to
       light.

   from [10]HSDB

   Computed Properties
   Molecular Weight                  243.219362 [g/mol]
   Molecular Formula                 C[9]H[10]NO[3]PS
   XLogP3                            2.7
   H-Bond Donor                      0
   H-Bond Acceptor                   5
   Rotatable Bond Count              4
   Exact Mass                        243.011901
   MonoIsotopic Mass                 243.011901
   Topological Polar Surface Area    83.6
   Heavy Atom Count                  15
   Formal Charge                     0
   Complexity                        285
   Isotope Atom Count                0
   Defined Atom Stereocenter Count   0
   Undefined Atom Stereocenter Count 0
   Defined Bond Stereocenter Count   0
   Undefined Bond Stereocenter Count 0
   Covalently-Bonded Unit Count      1
   Feature 3D Acceptor Count         1
   Feature 3D Ring Count             1
   Effective Rotor Count             4
   Conformer Sampling RMSD           0.6
   CID Conformer Count               [11]15

References

   1. http://toxnet.nlm.nih.gov/cgi-bin/sis/search/r?dbs+hsdb:@term+@rn+@rel+2636-26-2
   2. http://toxnet.nlm.nih.gov/cgi-bin/sis/search/r?dbs+hsdb:@term+@rn+@rel+2636-26-2
   3. http://toxnet.nlm.nih.gov/cgi-bin/sis/search/r?dbs+hsdb:@term+@rn+@rel+2636-26-2
   4. http://toxnet.nlm.nih.gov/cgi-bin/sis/search/r?dbs+hsdb:@term+@rn+@rel+2636-26-2
   5. http://toxnet.nlm.nih.gov/cgi-bin/sis/search/r?dbs+hsdb:@term+@rn+@rel+2636-26-2
   6. http://toxnet.nlm.nih.gov/cgi-bin/sis/search/r?dbs+hsdb:@term+@rn+@rel+2636-26-2
   7. http://toxnet.nlm.nih.gov/cgi-bin/sis/search/r?dbs+hsdb:@term+@rn+@rel+2636-26-2
   8. http://toxnet.nlm.nih.gov/cgi-bin/sis/search/r?dbs+hsdb:@term+@rn+@rel+2636-26-2
   9. http://toxnet.nlm.nih.gov/cgi-bin/sis/search/r?dbs+hsdb:@term+@rn+@rel+2636-26-2
  10. http://toxnet.nlm.nih.gov/cgi-bin/sis/search/r?dbs+hsdb:@term+@rn+@rel+2636-26-2
  11. http://pubchem.ncbi.nlm.nih.gov/vw3d/vw3d.cgi?cid=17522
