23724703
  -OEChem-07051213082D

 83 87  0     1  0  0  0  0  0999 V2000
    5.4641   -2.1550    0.0000 O   0  0  0  0  0  0  0  0  0  0  0  0
    6.3301    5.3450    0.0000 O   0  0  0  0  0  0  0  0  0  0  0  0
    6.3301   -0.6550    0.0000 O   0  0  0  0  0  0  0  0  0  0  0  0
    6.3301   -4.6550    0.0000 O   0  0  0  0  0  0  0  0  0  0  0  0
    8.0622   -3.6550    0.0000 O   0  0  0  0  0  0  0  0  0  0  0  0
    8.0622   -1.6550    0.0000 O   0  0  0  0  0  0  0  0  0  0  0  0
    5.4641    3.8450    0.0000 O   0  0  0  0  0  0  0  0  0  0  0  0
    8.9282    3.8450    0.0000 O   0  0  0  0  0  0  0  0  0  0  0  0
    8.9282    5.8450    0.0000 O   0  0  0  0  0  0  0  0  0  0  0  0
    7.1962    2.8450    0.0000 O   0  0  0  0  0  0  0  0  0  0  0  0
    4.5981   -4.6550    0.0000 O   0  0  0  0  0  0  0  0  0  0  0  0
    6.3301    7.3450    0.0000 O   0  0  0  0  0  0  0  0  0  0  0  0
    8.0622    1.3450    0.0000 O   0  3  0  0  0  0  0  0  0  0  0  0
    3.7320    2.8450    0.0000 O   0  0  0  0  0  0  0  0  0  0  0  0
    3.7320    0.8450    0.0000 O   0  0  0  0  0  0  0  0  0  0  0  0
    2.8660   -4.6550    0.0000 O   0  0  0  0  0  0  0  0  0  0  0  0
    9.8106   -1.6896    0.0000 O   0  0  0  0  0  0  0  0  0  0  0  0
   11.5923    1.3692    0.0000 O   0  0  0  0  0  0  0  0  0  0  0  0
    2.8660   -7.6550    0.0000 O   0  0  0  0  0  0  0  0  0  0  0  0
    2.0000   -6.1550    0.0000 O   0  0  0  0  0  0  0  0  0  0  0  0
    6.3301   -3.6550    0.0000 C   0  0  1  0  0  0  0  0  0  0  0  0
    7.1962   -3.1550    0.0000 C   0  0  1  0  0  0  0  0  0  0  0  0
    5.4641   -3.1550    0.0000 C   0  0  1  0  0  0  0  0  0  0  0  0
    7.1962   -2.1550    0.0000 C   0  0  2  0  0  0  0  0  0  0  0  0
    8.0622    4.3450    0.0000 C   0  0  1  0  0  0  0  0  0  0  0  0
    8.0622    5.3450    0.0000 C   0  0  1  0  0  0  0  0  0  0  0  0
    6.3301   -1.6550    0.0000 C   0  0  1  0  0  0  0  0  0  0  0  0
    7.1962    3.8450    0.0000 C   0  0  2  0  0  0  0  0  0  0  0  0
    7.1962    5.8450    0.0000 C   0  0  1  0  0  0  0  0  0  0  0  0
    6.3301    4.3450    0.0000 C   0  0  1  0  0  0  0  0  0  0  0  0
    4.5981   -3.6550    0.0000 C   0  0  0  0  0  0  0  0  0  0  0  0
    7.1962    6.8450    0.0000 C   0  0  0  0  0  0  0  0  0  0  0  0
    7.1962   -0.1550    0.0000 C   0  0  0  0  0  0  0  0  0  0  0  0
    5.4641    2.8450    0.0000 C   0  0  0  0  0  0  0  0  0  0  0  0
    7.1962    0.8450    0.0000 C   0  0  0  0  0  0  0  0  0  0  0  0
    6.3301    1.3450    0.0000 C   0  0  0  0  0  0  0  0  0  0  0  0
    6.3301    2.3450    0.0000 C   0  0  0  0  0  0  0  0  0  0  0  0
    8.0622   -0.6550    0.0000 C   0  0  0  0  0  0  0  0  0  0  0  0
    4.5981    2.3450    0.0000 C   0  0  0  0  0  0  0  0  0  0  0  0
    8.9282   -0.1550    0.0000 C   0  0  0  0  0  0  0  0  0  0  0  0
    5.4641    0.8450    0.0000 C   0  0  0  0  0  0  0  0  0  0  0  0
    3.7320   -5.1550    0.0000 C   0  0  0  0  0  0  0  0  0  0  0  0
    8.9282    0.8450    0.0000 C   0  0  0  0  0  0  0  0  0  0  0  0
    4.5981    1.3450    0.0000 C   0  0  0  0  0  0  0  0  0  0  0  0
    9.8222   -0.6897    0.0000 C   0  0  0  0  0  0  0  0  0  0  0  0
    3.7320   -6.1550    0.0000 C   0  0  0  0  0  0  0  0  0  0  0  0
    9.8222    1.3797    0.0000 C   0  0  0  0  0  0  0  0  0  0  0  0
   10.7282   -0.1758    0.0000 C   0  0  0  0  0  0  0  0  0  0  0  0
   10.7282    0.8658    0.0000 C   0  0  0  0  0  0  0  0  0  0  0  0
    2.8660   -6.6550    0.0000 C   0  0  0  0  0  0  0  0  0  0  0  0
    6.8671   -3.9650    0.0000 H   0  0  0  0  0  0  0  0  0  0  0  0
    7.7331   -2.8450    0.0000 H   0  0  0  0  0  0  0  0  0  0  0  0
    4.9272   -2.8450    0.0000 H   0  0  0  0  0  0  0  0  0  0  0  0
    7.7331   -2.4650    0.0000 H   0  0  0  0  0  0  0  0  0  0  0  0
    8.0622    3.7250    0.0000 H   0  0  0  0  0  0  0  0  0  0  0  0
    8.0622    5.9650    0.0000 H   0  0  0  0  0  0  0  0  0  0  0  0
    6.8671   -1.3450    0.0000 H   0  0  0  0  0  0  0  0  0  0  0  0
    6.6592    3.5350    0.0000 H   0  0  0  0  0  0  0  0  0  0  0  0
    6.6592    6.1550    0.0000 H   0  0  0  0  0  0  0  0  0  0  0  0
    6.3301    3.7250    0.0000 H   0  0  0  0  0  0  0  0  0  0  0  0
    4.3860   -3.0724    0.0000 H   0  0  0  0  0  0  0  0  0  0  0  0
    3.9875   -3.7627    0.0000 H   0  0  0  0  0  0  0  0  0  0  0  0
    7.8067    6.7373    0.0000 H   0  0  0  0  0  0  0  0  0  0  0  0
    7.4082    7.4276    0.0000 H   0  0  0  0  0  0  0  0  0  0  0  0
    6.8671   -4.9650    0.0000 H   0  0  0  0  0  0  0  0  0  0  0  0
    8.0622   -4.2750    0.0000 H   0  0  0  0  0  0  0  0  0  0  0  0
    8.5991   -1.9650    0.0000 H   0  0  0  0  0  0  0  0  0  0  0  0
    9.4651    4.1550    0.0000 H   0  0  0  0  0  0  0  0  0  0  0  0
    8.9282    6.4650    0.0000 H   0  0  0  0  0  0  0  0  0  0  0  0
    7.7331    2.5350    0.0000 H   0  0  0  0  0  0  0  0  0  0  0  0
    6.8671    2.6550    0.0000 H   0  0  0  0  0  0  0  0  0  0  0  0
    6.3301    7.9650    0.0000 H   0  0  0  0  0  0  0  0  0  0  0  0
    8.0622   -1.2750    0.0000 H   0  0  0  0  0  0  0  0  0  0  0  0
    5.4641    0.2250    0.0000 H   0  0  0  0  0  0  0  0  0  0  0  0
    3.9441   -6.7376    0.0000 H   0  0  0  0  0  0  0  0  0  0  0  0
    4.3426   -6.0473    0.0000 H   0  0  0  0  0  0  0  0  0  0  0  0
    9.8150    1.9996    0.0000 H   0  0  0  0  0  0  0  0  0  0  0  0
    3.1951    2.5350    0.0000 H   0  0  0  0  0  0  0  0  0  0  0  0
   11.2639   -0.4879    0.0000 H   0  0  0  0  0  0  0  0  0  0  0  0
    3.7320    0.2250    0.0000 H   0  0  0  0  0  0  0  0  0  0  0  0
   10.3439   -2.0058    0.0000 H   0  0  0  0  0  0  0  0  0  0  0  0
   12.1304    1.0612    0.0000 H   0  0  0  0  0  0  0  0  0  0  0  0
    2.3291   -7.9650    0.0000 H   0  0  0  0  0  0  0  0  0  0  0  0
  1 23  1  0  0  0  0
  1 27  1  0  0  0  0
  2 29  1  0  0  0  0
  2 30  1  0  0  0  0
 27  3  1  1  0  0  0
  3 33  1  0  0  0  0
 21  4  1  6  0  0  0
  4 65  1  0  0  0  0
 22  5  1  1  0  0  0
  5 66  1  0  0  0  0
 24  6  1  6  0  0  0
  6 67  1  0  0  0  0
 30  7  1  6  0  0  0
  7 34  1  0  0  0  0
 25  8  1  6  0  0  0
  8 68  1  0  0  0  0
 26  9  1  1  0  0  0
  9 69  1  0  0  0  0
 28 10  1  1  0  0  0
 10 70  1  0  0  0  0
 11 31  1  0  0  0  0
 11 42  1  0  0  0  0
 12 32  1  0  0  0  0
 12 72  1  0  0  0  0
 13 35  2  0  0  0  0
 13 43  1  0  0  0  0
 14 39  1  0  0  0  0
 14 78  1  0  0  0  0
 15 44  1  0  0  0  0
 15 80  1  0  0  0  0
 16 42  2  0  0  0  0
 17 45  1  0  0  0  0
 17 81  1  0  0  0  0
 18 49  1  0  0  0  0
 18 82  1  0  0  0  0
 19 50  1  0  0  0  0
 19 83  1  0  0  0  0
 20 50  2  0  0  0  0
 21 22  1  0  0  0  0
 21 23  1  0  0  0  0
 21 51  1  0  0  0  0
 22 24  1  0  0  0  0
 22 52  1  0  0  0  0
 23 31  1  1  0  0  0
 23 53  1  0  0  0  0
 24 27  1  0  0  0  0
 24 54  1  0  0  0  0
 25 26  1  0  0  0  0
 25 28  1  0  0  0  0
 25 55  1  0  0  0  0
 26 29  1  0  0  0  0
 26 56  1  0  0  0  0
 27 57  1  0  0  0  0
 28 30  1  0  0  0  0
 28 58  1  0  0  0  0
 29 32  1  6  0  0  0
 29 59  1  0  0  0  0
 30 60  1  0  0  0  0
 31 61  1  0  0  0  0
 31 62  1  0  0  0  0
 32 63  1  0  0  0  0
 32 64  1  0  0  0  0
 33 35  1  0  0  0  0
 33 38  2  0  0  0  0
 34 37  2  0  0  0  0
 34 39  1  0  0  0  0
 35 36  1  0  0  0  0
 36 37  1  0  0  0  0
 36 41  2  0  0  0  0
 37 71  1  0  0  0  0
 38 40  1  0  0  0  0
 38 73  1  0  0  0  0
 39 44  2  0  0  0  0
 40 43  1  0  0  0  0
 40 45  2  0  0  0  0
 41 44  1  0  0  0  0
 41 74  1  0  0  0  0
 42 46  1  0  0  0  0
 43 47  2  0  0  0  0
 45 48  1  0  0  0  0
 46 50  1  0  0  0  0
 46 75  1  0  0  0  0
 46 76  1  0  0  0  0
 47 49  1  0  0  0  0
 47 77  1  0  0  0  0
 48 49  2  0  0  0  0
 48 79  1  0  0  0  0
M  CHG  1  13   1
M  END
> <PUBCHEM_COMPOUND_CID>
23724703

> <PUBCHEM_COMPOUND_CANONICALIZED>
1

> <PUBCHEM_CACTVS_COMPLEXITY>
1150

> <PUBCHEM_CACTVS_HBOND_ACCEPTOR>
19

> <PUBCHEM_CACTVS_HBOND_DONOR>
12

> <PUBCHEM_CACTVS_ROTATABLE_BOND>
11

> <PUBCHEM_CACTVS_SUBSKEYS>
AAADcfB4PgAAAAAAAAAAAAAAAAAAAAAAAAA0aJECAAAAAACR9AAAGgAACAAADBSwmAMwDsAABkCIAqDSCAICCAAkIAAAiAFGiMgdNzaONR6ieWOl4BUPuYfK7PzOIAABCAAIQABAAAIQABCAAAAAAAAAAA==

> <PUBCHEM_IUPAC_OPENEYE_NAME>
3-[[(2R,3S,4S,5R,6S)-6-[2-[3,4-dihydroxy-5-[(2S,3R,4S,5S,6R)-3,4,5-trihydroxy-6-(hydroxymethyl)tetrahydropyran-2-yl]oxy-phenyl]-5,7-dihydroxy-chromenylium-3-yl]oxy-3,4,5-trihydroxy-tetrahydropyran-2-yl]methoxy]-3-oxo-propanoic acid

> <PUBCHEM_IUPAC_CAS_NAME>
3-[[(2R,3S,4S,5R,6S)-6-[[2-[3,4-dihydroxy-5-[[(2S,3R,4S,5S,6R)-3,4,5-trihydroxy-6-(hydroxymethyl)-2-oxanyl]oxy]phenyl]-5,7-dihydroxy-1-benzopyrylium-3-yl]oxy]-3,4,5-trihydroxy-2-oxanyl]methoxy]-3-oxopropanoic acid

> <PUBCHEM_IUPAC_NAME>
3-[[(2R,3S,4S,5R,6S)-6-[2-[3,4-dihydroxy-5-[(2S,3R,4S,5S,6R)-3,4,5-trihydroxy-6-(hydroxymethyl)oxan-2-yl]oxyphenyl]-5,7-dihydroxychromenylium-3-yl]oxy-3,4,5-trihydroxyoxan-2-yl]methoxy]-3-oxopropanoic acid

> <PUBCHEM_IUPAC_SYSTEMATIC_NAME>
3-[[(2R,3S,4S,5R,6S)-6-[2-[3-[(2S,3R,4S,5S,6R)-6-(hydroxymethyl)-3,4,5-tris(oxidanyl)oxan-2-yl]oxy-4,5-bis(oxidanyl)phenyl]-5,7-bis(oxidanyl)chromenylium-3-yl]oxy-3,4,5-tris(oxidanyl)oxan-2-yl]methoxy]-3-oxidanylidene-propanoic acid

> <PUBCHEM_IUPAC_TRADITIONAL_NAME>
3-[[(2R,3S,4S,5R,6S)-6-[[2-[3,4-dihydroxy-5-[(2S,3R,4S,5S,6R)-3,4,5-trihydroxy-6-methylol-tetrahydropyran-2-yl]oxy-phenyl]-5,7-dihydroxy-1-benzopyrylium-3-yl]oxy]-3,4,5-trihydroxy-tetrahydropyran-2-yl]methoxy]-3-keto-propionic acid

> <PUBCHEM_IUPAC_INCHI>
InChI=1S/C30H32O20/c31-7-17-22(39)24(41)26(43)29(49-17)47-15-2-9(1-13(34)21(15)38)28-16(5-11-12(33)3-10(32)4-14(11)46-28)48-30-27(44)25(42)23(40)18(50-30)8-45-20(37)6-19(35)36/h1-5,17-18,22-27,29-31,39-44H,6-8H2,(H4-,32,33,34,35,36,38)/p+1/t17-,18-,22-,23-,24+,25+,26-,27-,29-,30-/m1/s1

> <PUBCHEM_IUPAC_INCHIKEY>
YHLZPXCREROAPG-YEQKKNNOSA-O

> <PUBCHEM_EXACT_MASS>
713.156518

> <PUBCHEM_MOLECULAR_FORMULA>
C30H33O20+

> <PUBCHEM_MOLECULAR_WEIGHT>
713.57102

> <PUBCHEM_OPENEYE_CAN_SMILES>
C1=C(C=C(C(=C1O)O)OC2C(C(C(C(O2)CO)O)O)O)C3=C(C=C4C(=CC(=CC4=[O+]3)O)O)OC5C(C(C(C(O5)COC(=O)CC(=O)O)O)O)O

> <PUBCHEM_OPENEYE_ISO_SMILES>
C1=C(C=C(C(=C1O)O)O[C@H]2[C@@H]([C@H]([C@@H]([C@H](O2)CO)O)O)O)C3=C(C=C4C(=CC(=CC4=[O+]3)O)O)O[C@H]5[C@@H]([C@H]([C@@H]([C@H](O5)COC(=O)CC(=O)O)O)O)O

> <PUBCHEM_CACTVS_TPSA>
324

> <PUBCHEM_MONOISOTOPIC_WEIGHT>
713.156518

> <PUBCHEM_TOTAL_CHARGE>
1

> <PUBCHEM_HEAVY_ATOM_COUNT>
50

> <PUBCHEM_ATOM_DEF_STEREO_COUNT>
10

> <PUBCHEM_ATOM_UDEF_STEREO_COUNT>
0

> <PUBCHEM_BOND_DEF_STEREO_COUNT>
0

> <PUBCHEM_BOND_UDEF_STEREO_COUNT>
0

> <PUBCHEM_ISOTOPIC_ATOM_COUNT>
0

> <PUBCHEM_COMPONENT_COUNT>
1

> <PUBCHEM_CACTVS_TAUTO_COUNT>
171

> <PUBCHEM_COORDINATE_TYPE>
1
5
255

> <PUBCHEM_BONDANNOTATIONS>
28  10  5
13  35  8
13  43  8
23  31  5
29  32  6
27  3  5
33  35  8
33  38  8
34  37  8
34  39  8
36  37  8
36  41  8
38  40  8
39  44  8
21  4  6
40  43  8
40  45  8
41  44  8
43  47  8
45  48  8
47  49  8
48  49  8
22  5  5
24  6  6
30  7  6
25  8  6
26  9  5

$$$$

