4974
  -OEChem-06261200272D

119125  0     1  0  0  0  0  0999 V2000
    4.8406    0.1661    0.0000 O   0  0  0  0  0  0  0  0  0  0  0  0
    5.9059    2.3951    0.0000 O   0  0  0  0  0  0  0  0  0  0  0  0
    4.2041    1.9477    0.0000 O   0  0  0  0  0  0  0  0  0  0  0  0
    3.1745   -1.2922    0.0000 O   0  0  0  0  0  0  0  0  0  0  0  0
    3.3982    0.6252    0.0000 O   0  0  0  0  0  0  0  0  0  0  0  0
    5.9059    3.3951    0.0000 O   0  0  0  0  0  0  0  0  0  0  0  0
    4.0300   -3.0928    0.0000 O   0  0  0  0  0  0  0  0  0  0  0  0
    7.6379    4.3951    0.0000 O   0  0  0  0  0  0  0  0  0  0  0  0
    9.8878    4.3016    0.0000 O   0  0  0  0  0  0  0  0  0  0  0  0
    5.2371    3.3380    0.0000 O   0  0  0  0  0  0  0  0  0  0  0  0
    3.5844    2.3473    0.0000 O   0  0  0  0  0  0  0  0  0  0  0  0
    6.7719    4.8951    0.0000 O   0  0  0  0  0  0  0  0  0  0  0  0
    5.4361   -4.1042    0.0000 O   0  0  0  0  0  0  0  0  0  0  0  0
    3.2732   -5.6280    0.0000 O   0  0  0  0  0  0  0  0  0  0  0  0
   10.3039    1.8743    0.0000 N   0  0  3  0  0  0  0  0  0  0  0  0
    6.4400    0.3203    0.0000 C   0  0  3  0  0  0  0  0  0  0  0  0
    5.8451   -0.5272    0.0000 C   0  0  3  0  0  0  0  0  0  0  0  0
    6.0349    1.2281    0.0000 C   0  0  3  0  0  0  0  0  0  0  0  0
    6.7719    1.8951    0.0000 C   0  0  3  0  0  0  0  0  0  0  0  0
    7.6379    1.3951    0.0000 C   0  0  3  0  0  0  0  0  0  0  0  0
    4.8144   -0.4278    0.0000 C   0  0  3  0  0  0  0  0  0  0  0  0
    7.4287    0.4233    0.0000 C   0  0  0  0  0  0  0  0  0  0  0  0
    4.1745   -1.2961    0.0000 C   0  0  3  0  0  0  0  0  0  0  0  0
    5.0068    1.3513    0.0000 C   0  0  3  0  0  0  0  0  0  0  0  0
    8.5039    1.8951    0.0000 C   0  0  3  0  0  0  0  0  0  0  0  0
    4.3924    0.5177    0.0000 C   0  0  3  0  0  0  0  0  0  0  0  0
    6.3073   -1.5018    0.0000 C   0  0  0  0  0  0  0  0  0  0  0  0
    6.7719    2.8951    0.0000 C   0  0  3  0  0  0  0  0  0  0  0  0
    8.5039    2.8951    0.0000 C   0  0  3  0  0  0  0  0  0  0  0  0
    4.6140   -2.2810    0.0000 C   0  0  3  0  0  0  0  0  0  0  0  0
    7.6379    3.3951    0.0000 C   0  0  3  0  0  0  0  0  0  0  0  0
    6.8405   -0.6232    0.0000 C   0  0  0  0  0  0  0  0  0  0  0  0
    5.6876   -2.3845    0.0000 C   0  0  0  0  0  0  0  0  0  0  0  0
    9.3979    3.4298    0.0000 C   0  0  3  0  0  0  0  0  0  0  0  0
    9.3979    1.3605    0.0000 C   0  0  0  0  0  0  0  0  0  0  0  0
   10.3039    2.9160    0.0000 C   0  0  3  0  0  0  0  0  0  0  0  0
    8.8879    4.2900    0.0000 C   0  0  0  0  0  0  0  0  0  0  0  0
   11.2351    3.4729    0.0000 C   0  0  0  0  0  0  0  0  0  0  0  0
   11.2351    1.3174    0.0000 C   0  0  0  0  0  0  0  0  0  0  0  0
   12.1789    1.8526    0.0000 C   0  0  3  0  0  0  0  0  0  0  0  0
   12.1789    2.9376    0.0000 C   0  0  0  0  0  0  0  0  0  0  0  0
    4.3192    2.9410    0.0000 C   0  0  0  0  0  0  0  0  0  0  0  0
    2.9942    1.5400    0.0000 C   0  0  0  0  0  0  0  0  0  0  0  0
    5.9059    4.3951    0.0000 C   0  0  0  0  0  0  0  0  0  0  0  0
    4.4411   -4.0044    0.0000 C   0  0  0  0  0  0  0  0  0  0  0  0
   13.0430    1.3493    0.0000 C   0  0  0  0  0  0  0  0  0  0  0  0
    5.0398    4.8951    0.0000 C   0  0  3  0  0  0  0  0  0  0  0  0
    3.5166    3.5374    0.0000 C   0  0  0  0  0  0  0  0  0  0  0  0
    2.0000    1.6475    0.0000 C   0  0  0  0  0  0  0  0  0  0  0  0
    3.8571   -4.8162    0.0000 C   0  0  3  0  0  0  0  0  0  0  0  0
    5.0398    5.8951    0.0000 C   0  0  0  0  0  0  0  0  0  0  0  0
    4.1738    4.3951    0.0000 C   0  0  0  0  0  0  0  0  0  0  0  0
    4.6689   -5.4001    0.0000 C   0  0  0  0  0  0  0  0  0  0  0  0
    3.0454   -4.2322    0.0000 C   0  0  0  0  0  0  0  0  0  0  0  0
    4.1738    6.3951    0.0000 C   0  0  0  0  0  0  0  0  0  0  0  0
    4.5691   -6.3951    0.0000 C   0  0  0  0  0  0  0  0  0  0  0  0
    5.7770    2.0380    0.0000 H   0  0  0  0  0  0  0  0  0  0  0  0
    8.3249    0.8946    0.0000 H   0  0  0  0  0  0  0  0  0  0  0  0
    5.3108    0.2622    0.0000 H   0  0  0  0  0  0  0  0  0  0  0  0
    7.4278   -0.1967    0.0000 H   0  0  0  0  0  0  0  0  0  0  0  0
    8.0452    0.3573    0.0000 H   0  0  0  0  0  0  0  0  0  0  0  0
    5.3214    2.1409    0.0000 H   0  0  0  0  0  0  0  0  0  0  0  0
    8.4974    1.0452    0.0000 H   0  0  0  0  0  0  0  0  0  0  0  0
    3.8921   -0.1694    0.0000 H   0  0  0  0  0  0  0  0  0  0  0  0
    6.7463   -1.9395    0.0000 H   0  0  0  0  0  0  0  0  0  0  0  0
    6.8137   -1.1441    0.0000 H   0  0  0  0  0  0  0  0  0  0  0  0
    6.7719    3.7451    0.0000 H   0  0  0  0  0  0  0  0  0  0  0  0
    8.4974    3.7451    0.0000 H   0  0  0  0  0  0  0  0  0  0  0  0
    4.9649   -3.0552    0.0000 H   0  0  0  0  0  0  0  0  0  0  0  0
    8.3740    3.8201    0.0000 H   0  0  0  0  0  0  0  0  0  0  0  0
    6.7809   -1.2404    0.0000 H   0  0  0  0  0  0  0  0  0  0  0  0
    7.4576   -0.6828    0.0000 H   0  0  0  0  0  0  0  0  0  0  0  0
    6.9000   -0.0061    0.0000 H   0  0  0  0  0  0  0  0  0  0  0  0
    5.5234   -2.9824    0.0000 H   0  0  0  0  0  0  0  0  0  0  0  0
    6.2485   -2.6487    0.0000 H   0  0  0  0  0  0  0  0  0  0  0  0
    8.9933    0.8907    0.0000 H   0  0  0  0  0  0  0  0  0  0  0  0
    9.7915    0.8815    0.0000 H   0  0  0  0  0  0  0  0  0  0  0  0
    5.3689    2.0851    0.0000 H   0  0  0  0  0  0  0  0  0  0  0  0
   10.2941    3.7659    0.0000 H   0  0  0  0  0  0  0  0  0  0  0  0
    2.8624   -1.8279    0.0000 H   0  0  0  0  0  0  0  0  0  0  0  0
    9.4212    4.6062    0.0000 H   0  0  0  0  0  0  0  0  0  0  0  0
    8.5717    4.8233    0.0000 H   0  0  0  0  0  0  0  0  0  0  0  0
    8.3546    3.9738    0.0000 H   0  0  0  0  0  0  0  0  0  0  0  0
   11.6287    3.9519    0.0000 H   0  0  0  0  0  0  0  0  0  0  0  0
   10.8305    3.9427    0.0000 H   0  0  0  0  0  0  0  0  0  0  0  0
   10.8305    0.8476    0.0000 H   0  0  0  0  0  0  0  0  0  0  0  0
   11.6287    0.8384    0.0000 H   0  0  0  0  0  0  0  0  0  0  0  0
    8.1748    4.7051    0.0000 H   0  0  0  0  0  0  0  0  0  0  0  0
    9.5716    4.8349    0.0000 H   0  0  0  0  0  0  0  0  0  0  0  0
   12.1740    1.0027    0.0000 H   0  0  0  0  0  0  0  0  0  0  0  0
   12.7897    2.8316    0.0000 H   0  0  0  0  0  0  0  0  0  0  0  0
   12.3879    3.5213    0.0000 H   0  0  0  0  0  0  0  0  0  0  0  0
   12.7309    0.8136    0.0000 H   0  0  0  0  0  0  0  0  0  0  0  0
   13.5787    1.0372    0.0000 H   0  0  0  0  0  0  0  0  0  0  0  0
   13.3550    1.8850    0.0000 H   0  0  0  0  0  0  0  0  0  0  0  0
    4.3037    5.3201    0.0000 H   0  0  0  0  0  0  0  0  0  0  0  0
    3.8863    4.0351    0.0000 H   0  0  0  0  0  0  0  0  0  0  0  0
    3.0189    3.9072    0.0000 H   0  0  0  0  0  0  0  0  0  0  0  0
    3.1468    3.0398    0.0000 H   0  0  0  0  0  0  0  0  0  0  0  0
    2.0666    2.2639    0.0000 H   0  0  0  0  0  0  0  0  0  0  0  0
    1.3836    1.7142    0.0000 H   0  0  0  0  0  0  0  0  0  0  0  0
    1.9334    1.0311    0.0000 H   0  0  0  0  0  0  0  0  0  0  0  0
    5.6504    5.7875    0.0000 H   0  0  0  0  0  0  0  0  0  0  0  0
    5.2519    6.4778    0.0000 H   0  0  0  0  0  0  0  0  0  0  0  0
    3.8638    4.9321    0.0000 H   0  0  0  0  0  0  0  0  0  0  0  0
    3.6369    4.0851    0.0000 H   0  0  0  0  0  0  0  0  0  0  0  0
    4.4838    3.8582    0.0000 H   0  0  0  0  0  0  0  0  0  0  0  0
    5.2657   -5.5682    0.0000 H   0  0  0  0  0  0  0  0  0  0  0  0
    4.9381   -4.8416    0.0000 H   0  0  0  0  0  0  0  0  0  0  0  0
    3.4074   -3.7289    0.0000 H   0  0  0  0  0  0  0  0  0  0  0  0
    2.5420   -3.8702    0.0000 H   0  0  0  0  0  0  0  0  0  0  0  0
    2.6833   -4.7355    0.0000 H   0  0  0  0  0  0  0  0  0  0  0  0
    3.5280   -6.1932    0.0000 H   0  0  0  0  0  0  0  0  0  0  0  0
    4.4838    6.9321    0.0000 H   0  0  0  0  0  0  0  0  0  0  0  0
    3.6369    6.7051    0.0000 H   0  0  0  0  0  0  0  0  0  0  0  0
    3.8638    5.8582    0.0000 H   0  0  0  0  0  0  0  0  0  0  0  0
    3.9522   -6.3332    0.0000 H   0  0  0  0  0  0  0  0  0  0  0  0
    4.5072   -7.0120    0.0000 H   0  0  0  0  0  0  0  0  0  0  0  0
    5.1860   -6.4570    0.0000 H   0  0  0  0  0  0  0  0  0  0  0  0
  1 16  1  0  0  0  0
  1 23  1  0  0  0  0
  2 19  1  0  0  0  0
  2 78  1  0  0  0  0
  3 24  1  0  0  0  0
  3 42  1  0  0  0  0
  4 23  1  0  0  0  0
  4 80  1  0  0  0  0
  5 26  1  0  0  0  0
  5 43  1  0  0  0  0
  6 28  1  0  0  0  0
  6 44  1  0  0  0  0
  7 30  1  0  0  0  0
  7 45  1  0  0  0  0
  8 31  1  0  0  0  0
  8 88  1  0  0  0  0
  9 34  1  0  0  0  0
  9 89  1  0  0  0  0
 10 42  2  0  0  0  0
 11 43  2  0  0  0  0
 12 44  2  0  0  0  0
 13 45  2  0  0  0  0
 14 50  1  0  0  0  0
 14113  1  0  0  0  0
 15 35  1  0  0  0  0
 15 36  1  0  0  0  0
 15 39  1  0  0  0  0
 16 17  1  0  0  0  0
 16 18  1  0  0  0  0
 16 22  1  0  0  0  0
 17 21  1  0  0  0  0
 17 27  1  0  0  0  0
 17 32  1  0  0  0  0
 18 19  1  0  0  0  0
 18 24  1  0  0  0  0
 18 57  1  0  0  0  0
 19 20  1  0  0  0  0
 19 28  1  0  0  0  0
 20 22  1  0  0  0  0
 20 25  1  0  0  0  0
 20 58  1  0  0  0  0
 21 23  1  0  0  0  0
 21 26  1  0  0  0  0
 21 59  1  0  0  0  0
 22 60  1  0  0  0  0
 22 61  1  0  0  0  0
 23 30  1  0  0  0  0
 24 26  1  0  0  0  0
 24 62  1  0  0  0  0
 25 29  1  0  0  0  0
 25 35  1  0  0  0  0
 25 63  1  0  0  0  0
 26 64  1  0  0  0  0
 27 33  1  0  0  0  0
 27 65  1  0  0  0  0
 27 66  1  0  0  0  0
 28 31  1  0  0  0  0
 28 67  1  0  0  0  0
 29 31  1  0  0  0  0
 29 34  1  0  0  0  0
 29 68  1  0  0  0  0
 30 33  1  0  0  0  0
 30 69  1  0  0  0  0
 31 70  1  0  0  0  0
 32 71  1  0  0  0  0
 32 72  1  0  0  0  0
 32 73  1  0  0  0  0
 33 74  1  0  0  0  0
 33 75  1  0  0  0  0
 34 36  1  0  0  0  0
 34 37  1  0  0  0  0
 35 76  1  0  0  0  0
 35 77  1  0  0  0  0
 36 38  1  0  0  0  0
 36 79  1  0  0  0  0
 37 81  1  0  0  0  0
 37 82  1  0  0  0  0
 37 83  1  0  0  0  0
 38 41  1  0  0  0  0
 38 84  1  0  0  0  0
 38 85  1  0  0  0  0
 39 40  1  0  0  0  0
 39 86  1  0  0  0  0
 39 87  1  0  0  0  0
 40 41  1  0  0  0  0
 40 46  1  0  0  0  0
 40 90  1  0  0  0  0
 41 91  1  0  0  0  0
 41 92  1  0  0  0  0
 42 48  1  0  0  0  0
 43 49  1  0  0  0  0
 44 47  1  0  0  0  0
 45 50  1  0  0  0  0
 46 93  1  0  0  0  0
 46 94  1  0  0  0  0
 46 95  1  0  0  0  0
 47 51  1  0  0  0  0
 47 52  1  0  0  0  0
 47 96  1  0  0  0  0
 48 97  1  0  0  0  0
 48 98  1  0  0  0  0
 48 99  1  0  0  0  0
 49100  1  0  0  0  0
 49101  1  0  0  0  0
 49102  1  0  0  0  0
 50 53  1  0  0  0  0
 50 54  1  0  0  0  0
 51 55  1  0  0  0  0
 51103  1  0  0  0  0
 51104  1  0  0  0  0
 52105  1  0  0  0  0
 52106  1  0  0  0  0
 52107  1  0  0  0  0
 53 56  1  0  0  0  0
 53108  1  0  0  0  0
 53109  1  0  0  0  0
 54110  1  0  0  0  0
 54111  1  0  0  0  0
 54112  1  0  0  0  0
 55114  1  0  0  0  0
 55115  1  0  0  0  0
 55116  1  0  0  0  0
 56117  1  0  0  0  0
 56118  1  0  0  0  0
 56119  1  0  0  0  0
M  END
> <PUBCHEM_COMPOUND_CID>
4974

> <PUBCHEM_COMPOUND_CANONICALIZED>
1

> <PUBCHEM_CACTVS_COMPLEXITY>
1630

> <PUBCHEM_CACTVS_HBOND_ACCEPTOR>
15

> <PUBCHEM_CACTVS_HBOND_DONOR>
5

> <PUBCHEM_CACTVS_ROTATABLE_BOND>
12

> <PUBCHEM_CACTVS_SUBSKEYS>
AAADcfB+PAAAAAAAAAAAAAAAAAAAAaIAAAA8eMECBIkAAGCwAAAAHgAACAAAD3zhgAYCCAMABgAIAACQCAIAAAAAAAAAAAFIAAATEBIAgAAGQAAFAACXAAHw8P8PgAAAAAAAAADCAAYQADCAAYQADAAAAA==

> <PUBCHEM_IUPAC_INCHI>
InChI=1S/C41H63NO14/c1-10-20(4)34(46)55-33-28(45)27-23(18-42-17-19(3)12-13-25(42)38(27,9)49)24-16-39-32(40(24,33)50)30(53-22(6)44)29(52-21(5)43)31-36(39,7)15-14-26(41(31,51)56-39)54-35(47)37(8,48)11-2/h19-20,23-33,45,48-51H,10-18H2,1-9H3

> <PUBCHEM_IUPAC_INCHIKEY>
HYTGGNIMZXFORS-UHFFFAOYSA-N

> <PUBCHEM_XLOGP3_AA>
2.1

> <PUBCHEM_EXACT_MASS>
793.424856

> <PUBCHEM_MOLECULAR_FORMULA>
C41H63NO14

> <PUBCHEM_MOLECULAR_WEIGHT>
793.93722

> <PUBCHEM_OPENEYE_CAN_SMILES>
CCC(C)C(=O)OC1C(C2C(CN3CC(CCC3C2(C)O)C)C4C1(C5C(C(C6C7(C5(C4)OC6(C(CC7)OC(=O)C(C)(CC)O)O)C)OC(=O)C)OC(=O)C)O)O

> <PUBCHEM_OPENEYE_ISO_SMILES>
CCC(C)C(=O)OC1C(C2C(CN3CC(CCC3C2(C)O)C)C4C1(C5C(C(C6C7(C5(C4)OC6(C(CC7)OC(=O)C(C)(CC)O)O)C)OC(=O)C)OC(=O)C)O)O

> <PUBCHEM_CACTVS_TPSA>
219

> <PUBCHEM_MONOISOTOPIC_WEIGHT>
793.424856

> <PUBCHEM_TOTAL_CHARGE>
0

> <PUBCHEM_HEAVY_ATOM_COUNT>
56

> <PUBCHEM_ATOM_DEF_STEREO_COUNT>
0

> <PUBCHEM_ATOM_UDEF_STEREO_COUNT>
19

> <PUBCHEM_BOND_DEF_STEREO_COUNT>
0

> <PUBCHEM_BOND_UDEF_STEREO_COUNT>
0

> <PUBCHEM_ISOTOPIC_ATOM_COUNT>
0

> <PUBCHEM_COMPONENT_COUNT>
1

> <PUBCHEM_CACTVS_TAUTO_COUNT>
1

> <PUBCHEM_COORDINATE_TYPE>
1
5
255

> <PUBCHEM_BONDANNOTATIONS>
50  14  3
16  22  3
17  32  3
18  57  3
19  2  3
20  58  3
21  59  3
24  62  3
25  63  3
26  64  3
28  67  3
29  68  3
30  69  3
31  70  3
34  37  3
36  79  3
23  4  3
40  90  3
47  96  3

$$$$

