   Color/Form

     * Colorless, oily liquid [Note: A solid below 5 degrees F]
     * Clear, colorless liquid

   from [1]HSDB

   Odor
        Slightly pungent disagreeable, rancid odor
   from [2]HSDB

   Taste
        SOUR & MILDLY CHEESE-LIKE
   from [3]HSDB

   Boiling Point
        141.1 deg C
   from [4]HSDB

   Melting Point
        -21.5 deg C
   from [5]HSDB

   Corrosivity
        CORROSIVE
   from [6]HSDB

   Critical Temperature and Pressure
        Critical temperature: 338.9 deg C; Critical pressure: 5.37 MPa
   from [7]HSDB

   Density/Specific Gravity
        Specific gravity: 0.993 g/cu cm at 20 deg C
   from [8]HSDB

   Dissociation Constants
        pKa= 4.88
   from [9]HSDB

   Heat of Combustion
        -1528.3 kJ/mol
   from [10]HSDB

   Heat of Vaporization
        418.7 kJ/kg
   from [11]HSDB

   Octanol/Water Partition Coefficient
        log Kow = 0.33
   from [12]HSDB

   Solubilities

     * Sol in alcohol, ether, chloroform.
     * Miscible with ethanol; soluble in diethyl ether; slightly soluble
       in chloroform
     * In water, 1.0X10+6 mg/L at 25 deg C /miscible/

   from [13]HSDB

   Spectral Properties

     * SADTLER REFERENCE NUMBER: 307 (IR, PRISM)
     * Index of refraction: 1.3869 @ 20 deg C
     * IR: 104 (Sadtler Research Laboratories IR Grating Collection)
     * UV: 1-13 (Organic Electronic Spectral Data, Phillips et al, John
       Wiley & Sons, New York)
     * NMR: 5996 (Sadtler Research Laboratories Spectral Collection)
     * MASS: 19190 (NIST/EPA/MSDC Mass Spectral Database, 1990 Version)

   from [14]HSDB

   Surface Tension
        27.21 dynes/cm at 15 deg C
   from [15]HSDB

   Vapor Density
        2.56 (Air = 1)
   from [16]HSDB

   Vapor Pressure
        3.53 mm Hg at 25 deg C
   from [17]HSDB

   Viscosity
        cP: 1.175 at 15 deg C; 1.020 at 25 deg C; 0.956 at 30 deg C; 0.668
   at 60 deg C; 0.495 at 90 deg C
   from [18]HSDB

   Other Chemical/Physical Properties

     * RATIO OF SPECIFIC HEATS OF VAPOR (GAS): 1.103; LATENT HEAT OF
       VAPORIZATION: 248 BTU/LB= 138 CAL/G= 5.78X10+5 J/KG
     * Azeotrope with water, bp 98.98 deg C, contains 17.7% acid; with
       toluene, bp 110.45 deg C, contains 3% acid; with ortho-xylene, bp
       135.4 deg C, contains 43% acid; with ethylbenzene, 131.1 deg C,
       contains 28% acid.
     * Can be salted out of water soln by the addition of calcium chloride
       or other salts.
     * DENSITY OF SATURATED AIR: 1.02 (AIR= 1)
     * Critical density: 0.315 g/ml
     * Specific heat = 2.34 J/g
     * Solid propionic acid forms monoclinic crystals and undergoes an
       increase in volume on melting of 12.2%.
     * Vapor pressure: 3.3 mm Hg at 27.6 deg C
     * Vapor pressure: 20 mmHg at 125 deg F
     * Powder, usually with slight odor. Freely soluble in water; slightly
       sol in alcohol. /Barium salt monohydrate/
     * Henry's Law constant = 4.45X10-7 atm-cu m/mole at 25 deg C
     * Hydroxyl radical reaction rate constant = 1.22X10-12 cu
       cm/molec-sec at 25 deg C

   from [19]HSDB

   Computed Properties
   Molecular Weight                  74.07854 [g/mol]
   Molecular Formula                 C[3]H[6]O[2]
   XLogP3                            0.3
   H-Bond Donor                      1
   H-Bond Acceptor                   2
   Rotatable Bond Count              1
   Exact Mass                        74.036779
   MonoIsotopic Mass                 74.036779
   Topological Polar Surface Area    37.3
   Heavy Atom Count                  5
   Formal Charge                     0
   Complexity                        40.2
   Isotope Atom Count                0
   Defined Atom Stereocenter Count   0
   Undefined Atom Stereocenter Count 0
   Defined Bond Stereocenter Count   0
   Undefined Bond Stereocenter Count 0
   Covalently-Bonded Unit Count      1
   Feature 3D Acceptor Count         2
   Feature 3D Anion Count            1
   Feature 3D Hydrophobe Count       1
   Effective Rotor Count             1
   Conformer Sampling RMSD           0.4
   CID Conformer Count               [20]2

References

   1. http://toxnet.nlm.nih.gov/cgi-bin/sis/search/r?dbs+hsdb:@term+@rn+@rel+79-09-4
   2. http://toxnet.nlm.nih.gov/cgi-bin/sis/search/r?dbs+hsdb:@term+@rn+@rel+79-09-4
   3. http://toxnet.nlm.nih.gov/cgi-bin/sis/search/r?dbs+hsdb:@term+@rn+@rel+79-09-4
   4. http://toxnet.nlm.nih.gov/cgi-bin/sis/search/r?dbs+hsdb:@term+@rn+@rel+79-09-4
   5. http://toxnet.nlm.nih.gov/cgi-bin/sis/search/r?dbs+hsdb:@term+@rn+@rel+79-09-4
   6. http://toxnet.nlm.nih.gov/cgi-bin/sis/search/r?dbs+hsdb:@term+@rn+@rel+79-09-4
   7. http://toxnet.nlm.nih.gov/cgi-bin/sis/search/r?dbs+hsdb:@term+@rn+@rel+79-09-4
   8. http://toxnet.nlm.nih.gov/cgi-bin/sis/search/r?dbs+hsdb:@term+@rn+@rel+79-09-4
   9. http://toxnet.nlm.nih.gov/cgi-bin/sis/search/r?dbs+hsdb:@term+@rn+@rel+79-09-4
  10. http://toxnet.nlm.nih.gov/cgi-bin/sis/search/r?dbs+hsdb:@term+@rn+@rel+79-09-4
  11. http://toxnet.nlm.nih.gov/cgi-bin/sis/search/r?dbs+hsdb:@term+@rn+@rel+79-09-4
  12. http://toxnet.nlm.nih.gov/cgi-bin/sis/search/r?dbs+hsdb:@term+@rn+@rel+79-09-4
  13. http://toxnet.nlm.nih.gov/cgi-bin/sis/search/r?dbs+hsdb:@term+@rn+@rel+79-09-4
  14. http://toxnet.nlm.nih.gov/cgi-bin/sis/search/r?dbs+hsdb:@term+@rn+@rel+79-09-4
  15. http://toxnet.nlm.nih.gov/cgi-bin/sis/search/r?dbs+hsdb:@term+@rn+@rel+79-09-4
  16. http://toxnet.nlm.nih.gov/cgi-bin/sis/search/r?dbs+hsdb:@term+@rn+@rel+79-09-4
  17. http://toxnet.nlm.nih.gov/cgi-bin/sis/search/r?dbs+hsdb:@term+@rn+@rel+79-09-4
  18. http://toxnet.nlm.nih.gov/cgi-bin/sis/search/r?dbs+hsdb:@term+@rn+@rel+79-09-4
  19. http://toxnet.nlm.nih.gov/cgi-bin/sis/search/r?dbs+hsdb:@term+@rn+@rel+79-09-4
  20. http://pubchem.ncbi.nlm.nih.gov/vw3d/vw3d.cgi?cid=1032
