   Color/Form

     * OILY LIQUID
     * REDDISH-YELLOW OIL

   from [1]HSDB

   Odor

     * SLIGHT ODOR
     * Odorless

   from [2]HSDB

   Boiling Point
        169-170 deg C at 1.0 mm Hg
   from [3]HSDB

   Density/Specific Gravity
        1.2683 at 25 deg C/4 deg C
   from [4]HSDB

   Octanol/Water Partition Coefficient
        log Kow = 1.98
   from [5]HSDB

   Solubilities

     * Freely soluble in ether and other organic solvents
     * In water, 3,640 mg/l at 20 deg C.

   from [6]HSDB

   Spectral Properties

     * INDEX OF REFRACTION: 1.50959 @ 20 DEG C/D; MAX ABSORPTION: 274 NM
       (E= 8.9X10+3)
     * Intense mass spectral peaks: 109 m/z (100%), 81 m/z (93%), 149 m/z
       (64%), 99 m/z (60%)
     * Intense mass spectral peaks: 275 m/z

   from [7]HSDB

   Vapor Pressure
        1.1X10-6 mm Hg at 25 deg C.
   from [8]HSDB

   Other Chemical/Physical Properties

     * DECOMPOSES RAPIDLY IN ALKALINE SOLUTIONS
     * Aqueous solutions are stable up to pH 7. Roughly 300 times more
       stable to hydrolysis than tetraethyl pyrophosphate. The uncatalyzed
       reaction with water is very small and the overall velocity constant
       is K = 0.52 [OH] + 1X10-6/min.

   from [9]HSDB

   Computed Properties
   Molecular Weight                  275.195022 [g/mol]
   Molecular Formula                 C[10]H[14]NO[6]P
   XLogP3                            2
   H-Bond Donor                      0
   H-Bond Acceptor                   6
   Rotatable Bond Count              6
   Exact Mass                        275.055874
   MonoIsotopic Mass                 275.055874
   Topological Polar Surface Area    90.6
   Heavy Atom Count                  18
   Formal Charge                     0
   Complexity                        300
   Isotope Atom Count                0
   Defined Atom Stereocenter Count   0
   Undefined Atom Stereocenter Count 0
   Defined Bond Stereocenter Count   0
   Undefined Bond Stereocenter Count 0
   Covalently-Bonded Unit Count      1
   Feature 3D Acceptor Count         3
   Feature 3D Anion Count            1
   Feature 3D Ring Count             1
   Effective Rotor Count             7
   Conformer Sampling RMSD           0.8
   CID Conformer Count               [10]29

References

   1. http://toxnet.nlm.nih.gov/cgi-bin/sis/search/r?dbs+hsdb:@term+@rn+@rel+311-45-5
   2. http://toxnet.nlm.nih.gov/cgi-bin/sis/search/r?dbs+hsdb:@term+@rn+@rel+311-45-5
   3. http://toxnet.nlm.nih.gov/cgi-bin/sis/search/r?dbs+hsdb:@term+@rn+@rel+311-45-5
   4. http://toxnet.nlm.nih.gov/cgi-bin/sis/search/r?dbs+hsdb:@term+@rn+@rel+311-45-5
   5. http://toxnet.nlm.nih.gov/cgi-bin/sis/search/r?dbs+hsdb:@term+@rn+@rel+311-45-5
   6. http://toxnet.nlm.nih.gov/cgi-bin/sis/search/r?dbs+hsdb:@term+@rn+@rel+311-45-5
   7. http://toxnet.nlm.nih.gov/cgi-bin/sis/search/r?dbs+hsdb:@term+@rn+@rel+311-45-5
   8. http://toxnet.nlm.nih.gov/cgi-bin/sis/search/r?dbs+hsdb:@term+@rn+@rel+311-45-5
   9. http://toxnet.nlm.nih.gov/cgi-bin/sis/search/r?dbs+hsdb:@term+@rn+@rel+311-45-5
  10. http://pubchem.ncbi.nlm.nih.gov/vw3d/vw3d.cgi?cid=9395
