   Color/Form

     * COLORLESS CRYSTALLINE SOLID
     * WHITE CRYSTALLINE SOLID

   from [1]HSDB

   Melting Point
        175 DEG C
   from [2]HSDB

   Corrosivity
        Corrosive to copper and brass.
   from [3]HSDB

   Density/Specific Gravity
        1.33
   from [4]HSDB

   Solubilities

     * @ 25 DEG C: 1.79 KG/KG WATER, 300 MG/KG ACETONE, 400 MG/KG BENZENE,
       12 G/KG ETHANOL, 1.4 G/KG DIMETHYLFORMAMIDE, 158 G/KG METHANOL, 200
       MG/KG HEXANE
     * SLIGHTLY SOL IN MOST COMMON ORGANIC SOLVENTS
     * 0.04 g/kg chloroform at 25 deg C

   from [5]HSDB

   Vapor Pressure
        0.53 mPa @ 25 deg C
   from [6]HSDB

   Other Chemical/Physical Properties

     * Vap: 4x10-6 mm Hg at 25 deg C
     * Henry's Law constant: 5X10-13 atm-cu m/mole (est).

   from [7]HSDB

   Computed Properties
   Molecular Weight                  153.073682 [g/mol]
   Molecular Formula                 C[3]H[8]NO[4]P
   XLogP3-AA                         -1.5
   H-Bond Donor                      2
   H-Bond Acceptor                   4
   Rotatable Bond Count              3
   Tautomer Count                    2
   Exact Mass                        153.019094
   MonoIsotopic Mass                 153.019094
   Topological Polar Surface Area    89.6
   Heavy Atom Count                  9
   Formal Charge                     0
   Complexity                        156
   Isotope Atom Count                0
   Defined Atom Stereocenter Count   0
   Undefined Atom Stereocenter Count 0
   Defined Bond Stereocenter Count   0
   Undefined Bond Stereocenter Count 0
   Covalently-Bonded Unit Count      1
   Feature 3D Acceptor Count         3
   Feature 3D Donor Count            1
   Effective Rotor Count             3
   Conformer Sampling RMSD           0.6
   CID Conformer Count               [8]22

References

   1. http://toxnet.nlm.nih.gov/cgi-bin/sis/search/r?dbs+hsdb:@term+@rn+@rel+25954-13-6
   2. http://toxnet.nlm.nih.gov/cgi-bin/sis/search/r?dbs+hsdb:@term+@rn+@rel+25954-13-6
   3. http://toxnet.nlm.nih.gov/cgi-bin/sis/search/r?dbs+hsdb:@term+@rn+@rel+25954-13-6
   4. http://toxnet.nlm.nih.gov/cgi-bin/sis/search/r?dbs+hsdb:@term+@rn+@rel+25954-13-6
   5. http://toxnet.nlm.nih.gov/cgi-bin/sis/search/r?dbs+hsdb:@term+@rn+@rel+25954-13-6
   6. http://toxnet.nlm.nih.gov/cgi-bin/sis/search/r?dbs+hsdb:@term+@rn+@rel+25954-13-6
   7. http://toxnet.nlm.nih.gov/cgi-bin/sis/search/r?dbs+hsdb:@term+@rn+@rel+25954-13-6
   8. http://pubchem.ncbi.nlm.nih.gov/vw3d/vw3d.cgi?cid=33257
