17396276
  -OEChem-06241222552D

 44 46  0     0  0  0  0  0  0999 V2000
   11.7260    1.2767    0.0000 F   0  0  0  0  0  0  0  0  0  0  0  0
    3.7320    0.2842    0.0000 O   0  0  0  0  0  0  0  0  0  0  0  0
    2.0000   -2.7158    0.0000 O   0  0  0  0  0  0  0  0  0  0  0  0
    7.5013   -0.4987    0.0000 O   0  0  0  0  0  0  0  0  0  0  0  0
    5.5443   -0.9111    0.0000 N   0  0  0  0  0  0  0  0  0  0  0  0
    3.7320   -2.7158    0.0000 N   0  0  0  0  0  0  0  0  0  0  0  0
    2.8660   -1.2158    0.0000 N   0  0  0  0  0  0  0  0  0  0  0  0
    5.5443   -2.5206    0.0000 N   0  0  0  0  0  0  0  0  0  0  0  0
    7.1441    1.1962    0.0000 N   0  0  0  0  0  0  0  0  0  0  0  0
    4.5981   -1.2158    0.0000 C   0  0  0  0  0  0  0  0  0  0  0  0
    4.5981   -2.2158    0.0000 C   0  0  0  0  0  0  0  0  0  0  0  0
    5.8550    0.0394    0.0000 C   0  0  0  0  0  0  0  0  0  0  0  0
    3.7320   -0.7158    0.0000 C   0  0  0  0  0  0  0  0  0  0  0  0
    6.1279   -1.7158    0.0000 C   0  0  0  0  0  0  0  0  0  0  0  0
    2.8660   -2.2158    0.0000 C   0  0  0  0  0  0  0  0  0  0  0  0
    6.8335    0.2456    0.0000 C   0  0  0  0  0  0  0  0  0  0  0  0
    8.1226    1.4024    0.0000 C   0  0  0  0  0  0  0  0  0  0  0  0
    8.4333    2.3529    0.0000 C   0  0  0  0  0  0  0  0  0  0  0  0
    3.7320   -3.7158    0.0000 C   0  0  0  0  0  0  0  0  0  0  0  0
    2.0000   -0.7158    0.0000 C   0  0  0  0  0  0  0  0  0  0  0  0
    9.4118    2.5591    0.0000 C   0  0  0  0  0  0  0  0  0  0  0  0
   10.0796    1.8148    0.0000 C   0  0  0  0  0  0  0  0  0  0  0  0
    9.7225    3.5096    0.0000 C   0  0  0  0  0  0  0  0  0  0  0  0
   11.0582    2.0210    0.0000 C   0  0  0  0  0  0  0  0  0  0  0  0
   10.7010    3.7158    0.0000 C   0  0  0  0  0  0  0  0  0  0  0  0
   11.3688    2.9715    0.0000 C   0  0  0  0  0  0  0  0  0  0  0  0
    5.8344    0.6591    0.0000 H   0  0  0  0  0  0  0  0  0  0  0  0
    5.2411    0.1268    0.0000 H   0  0  0  0  0  0  0  0  0  0  0  0
    6.7479   -1.7158    0.0000 H   0  0  0  0  0  0  0  0  0  0  0  0
    8.1432    0.7827    0.0000 H   0  0  0  0  0  0  0  0  0  0  0  0
    8.7364    1.3150    0.0000 H   0  0  0  0  0  0  0  0  0  0  0  0
    8.4127    2.9726    0.0000 H   0  0  0  0  0  0  0  0  0  0  0  0
    7.8195    2.4402    0.0000 H   0  0  0  0  0  0  0  0  0  0  0  0
    3.1120   -3.7158    0.0000 H   0  0  0  0  0  0  0  0  0  0  0  0
    3.7320   -4.3358    0.0000 H   0  0  0  0  0  0  0  0  0  0  0  0
    4.3520   -3.7158    0.0000 H   0  0  0  0  0  0  0  0  0  0  0  0
    6.7301    1.6576    0.0000 H   0  0  0  0  0  0  0  0  0  0  0  0
    2.3100   -0.1789    0.0000 H   0  0  0  0  0  0  0  0  0  0  0  0
    1.4631   -0.4058    0.0000 H   0  0  0  0  0  0  0  0  0  0  0  0
    1.6900   -1.2528    0.0000 H   0  0  0  0  0  0  0  0  0  0  0  0
    9.8870    1.2255    0.0000 H   0  0  0  0  0  0  0  0  0  0  0  0
    9.3084    3.9711    0.0000 H   0  0  0  0  0  0  0  0  0  0  0  0
   10.8936    4.3052    0.0000 H   0  0  0  0  0  0  0  0  0  0  0  0
   11.9755    3.0994    0.0000 H   0  0  0  0  0  0  0  0  0  0  0  0
  1 24  1  0  0  0  0
  2 13  2  0  0  0  0
  3 15  2  0  0  0  0
  4 16  2  0  0  0  0
  5 10  1  0  0  0  0
  5 12  1  0  0  0  0
  5 14  1  0  0  0  0
  6 11  1  0  0  0  0
  6 15  1  0  0  0  0
  6 19  1  0  0  0  0
  7 13  1  0  0  0  0
  7 15  1  0  0  0  0
  7 20  1  0  0  0  0
  8 11  1  0  0  0  0
  8 14  2  0  0  0  0
  9 16  1  0  0  0  0
  9 17  1  0  0  0  0
  9 37  1  0  0  0  0
 10 11  2  0  0  0  0
 10 13  1  0  0  0  0
 12 16  1  0  0  0  0
 12 27  1  0  0  0  0
 12 28  1  0  0  0  0
 14 29  1  0  0  0  0
 17 18  1  0  0  0  0
 17 30  1  0  0  0  0
 17 31  1  0  0  0  0
 18 21  1  0  0  0  0
 18 32  1  0  0  0  0
 18 33  1  0  0  0  0
 19 34  1  0  0  0  0
 19 35  1  0  0  0  0
 19 36  1  0  0  0  0
 20 38  1  0  0  0  0
 20 39  1  0  0  0  0
 20 40  1  0  0  0  0
 21 22  2  0  0  0  0
 21 23  1  0  0  0  0
 22 24  1  0  0  0  0
 22 41  1  0  0  0  0
 23 25  2  0  0  0  0
 23 42  1  0  0  0  0
 24 26  2  0  0  0  0
 25 26  1  0  0  0  0
 25 43  1  0  0  0  0
 26 44  1  0  0  0  0
M  END
> <PUBCHEM_COMPOUND_CID>
17396276

> <PUBCHEM_COMPOUND_CANONICALIZED>
1

> <PUBCHEM_CACTVS_COMPLEXITY>
575

> <PUBCHEM_CACTVS_HBOND_ACCEPTOR>
5

> <PUBCHEM_CACTVS_HBOND_DONOR>
1

> <PUBCHEM_CACTVS_ROTATABLE_BOND>
5

> <PUBCHEM_CACTVS_SUBSKEYS>
AAADceB7sQAAAAAAAAAAAAAAAAAAAWAAAAA8QAAAAAAAAFgBwAAAHwAQAAAADAjBngw3sJfMEACoAydzdACCgC03EKAJ2IGoVMiIaCrA2TGUIIgolyLIiGcQgIAOAAAAAAAAAAAAAAAAAAAAAAAAAAAAAA==

> <PUBCHEM_IUPAC_OPENEYE_NAME>
2-(1,3-dimethyl-2,6-dioxo-purin-7-yl)-N-[2-(3-fluorophenyl)ethyl]acetamide

> <PUBCHEM_IUPAC_CAS_NAME>
2-(1,3-dimethyl-2,6-dioxo-7-purinyl)-N-[2-(3-fluorophenyl)ethyl]acetamide

> <PUBCHEM_IUPAC_NAME>
2-(1,3-dimethyl-2,6-dioxopurin-7-yl)-N-[2-(3-fluorophenyl)ethyl]acetamide

> <PUBCHEM_IUPAC_SYSTEMATIC_NAME>
2-[1,3-dimethyl-2,6-bis(oxidanylidene)purin-7-yl]-N-[2-(3-fluorophenyl)ethyl]ethanamide

> <PUBCHEM_IUPAC_TRADITIONAL_NAME>
2-(2,6-diketo-1,3-dimethyl-purin-7-yl)-N-[2-(3-fluorophenyl)ethyl]acetamide

> <PUBCHEM_IUPAC_INCHI>
InChI=1S/C17H18FN5O3/c1-21-15-14(16(25)22(2)17(21)26)23(10-20-15)9-13(24)19-7-6-11-4-3-5-12(18)8-11/h3-5,8,10H,6-7,9H2,1-2H3,(H,19,24)

> <PUBCHEM_IUPAC_INCHIKEY>
XGDGDTHHSFJNON-UHFFFAOYSA-N

> <PUBCHEM_XLOGP3>
1.1

> <PUBCHEM_EXACT_MASS>
359.139368

> <PUBCHEM_MOLECULAR_FORMULA>
C17H18FN5O3

> <PUBCHEM_MOLECULAR_WEIGHT>
359.354923

> <PUBCHEM_OPENEYE_CAN_SMILES>
CN1C2=C(C(=O)N(C1=O)C)N(C=N2)CC(=O)NCCC3=CC(=CC=C3)F

> <PUBCHEM_OPENEYE_ISO_SMILES>
CN1C2=C(C(=O)N(C1=O)C)N(C=N2)CC(=O)NCCC3=CC(=CC=C3)F

> <PUBCHEM_CACTVS_TPSA>
87.5

> <PUBCHEM_MONOISOTOPIC_WEIGHT>
359.139368

> <PUBCHEM_TOTAL_CHARGE>
0

> <PUBCHEM_HEAVY_ATOM_COUNT>
26

> <PUBCHEM_ATOM_DEF_STEREO_COUNT>
0

> <PUBCHEM_ATOM_UDEF_STEREO_COUNT>
0

> <PUBCHEM_BOND_DEF_STEREO_COUNT>
0

> <PUBCHEM_BOND_UDEF_STEREO_COUNT>
0

> <PUBCHEM_ISOTOPIC_ATOM_COUNT>
0

> <PUBCHEM_COMPONENT_COUNT>
1

> <PUBCHEM_CACTVS_TAUTO_COUNT>
2

> <PUBCHEM_COORDINATE_TYPE>
1
5
255

> <PUBCHEM_BONDANNOTATIONS>
10  11  8
10  13  8
21  22  8
21  23  8
22  24  8
23  25  8
24  26  8
25  26  8
5  10  8
5  14  8
6  11  8
6  15  8
7  13  8
7  15  8
8  11  8
8  14  8

$$$$

