442411
  -OEChem-07051212582D

 45 47  0     1  0  0  0  0  0999 V2000
    5.4641    0.1481    0.0000 O   0  0  0  0  0  0  0  0  0  0  0  0
    3.7320   -1.8518    0.0000 O   0  0  0  0  0  0  0  0  0  0  0  0
    5.4641   -2.8519    0.0000 O   0  0  0  0  0  0  0  0  0  0  0  0
    7.2125   -2.8864    0.0000 O   0  0  0  0  0  0  0  0  0  0  0  0
    8.9942    0.1723    0.0000 O   0  0  0  0  0  0  0  0  0  0  0  0
    4.5981   -0.3519    0.0000 C   0  0  1  0  0  0  0  0  0  0  0  0
    4.5981   -1.3518    0.0000 C   0  0  2  0  0  0  0  0  0  0  0  0
    6.3301   -0.3519    0.0000 C   0  0  0  0  0  0  0  0  0  0  0  0
    6.3301   -1.3518    0.0000 C   0  0  0  0  0  0  0  0  0  0  0  0
    5.4641   -1.8518    0.0000 C   0  0  0  0  0  0  0  0  0  0  0  0
    7.2241    0.1828    0.0000 C   0  0  0  0  0  0  0  0  0  0  0  0
    3.7320    0.1481    0.0000 C   0  0  0  0  0  0  0  0  0  0  0  0
    7.2241   -1.8865    0.0000 C   0  0  0  0  0  0  0  0  0  0  0  0
    7.2125    1.1827    0.0000 C   0  0  0  0  0  0  0  0  0  0  0  0
    8.1301   -0.3310    0.0000 C   0  0  0  0  0  0  0  0  0  0  0  0
    8.1301   -1.3727    0.0000 C   0  0  0  0  0  0  0  0  0  0  0  0
    3.7320    1.1482    0.0000 C   0  0  0  0  0  0  0  0  0  0  0  0
    2.8660   -0.3519    0.0000 C   0  0  0  0  0  0  0  0  0  0  0  0
    8.0727    1.6927    0.0000 C   0  0  0  0  0  0  0  0  0  0  0  0
    2.8660    1.6482    0.0000 C   0  0  0  0  0  0  0  0  0  0  0  0
    2.0000    0.1481    0.0000 C   0  0  0  0  0  0  0  0  0  0  0  0
    8.0611    2.6927    0.0000 C   0  0  0  0  0  0  0  0  0  0  0  0
    2.0000    1.1482    0.0000 C   0  0  0  0  0  0  0  0  0  0  0  0
    8.9213    3.2026    0.0000 C   0  0  0  0  0  0  0  0  0  0  0  0
    7.1894    3.1826    0.0000 C   0  0  0  0  0  0  0  0  0  0  0  0
    4.5981    0.2681    0.0000 H   0  0  0  0  0  0  0  0  0  0  0  0
    4.5981   -1.9718    0.0000 H   0  0  0  0  0  0  0  0  0  0  0  0
    6.9937    1.7629    0.0000 H   0  0  0  0  0  0  0  0  0  0  0  0
    6.6032    1.0680    0.0000 H   0  0  0  0  0  0  0  0  0  0  0  0
    8.6659   -1.6847    0.0000 H   0  0  0  0  0  0  0  0  0  0  0  0
    4.2690    1.4582    0.0000 H   0  0  0  0  0  0  0  0  0  0  0  0
    2.8660   -0.9719    0.0000 H   0  0  0  0  0  0  0  0  0  0  0  0
    3.7320   -2.4718    0.0000 H   0  0  0  0  0  0  0  0  0  0  0  0
    8.6132    1.3889    0.0000 H   0  0  0  0  0  0  0  0  0  0  0  0
    2.8660    2.2682    0.0000 H   0  0  0  0  0  0  0  0  0  0  0  0
    1.4631   -0.1619    0.0000 H   0  0  0  0  0  0  0  0  0  0  0  0
    1.4631    1.4582    0.0000 H   0  0  0  0  0  0  0  0  0  0  0  0
    7.7458   -3.2026    0.0000 H   0  0  0  0  0  0  0  0  0  0  0  0
    9.5323   -0.1356    0.0000 H   0  0  0  0  0  0  0  0  0  0  0  0
    9.2375    2.6693    0.0000 H   0  0  0  0  0  0  0  0  0  0  0  0
    7.4932    3.7231    0.0000 H   0  0  0  0  0  0  0  0  0  0  0  0
    6.6489    3.4864    0.0000 H   0  0  0  0  0  0  0  0  0  0  0  0
    6.8856    2.6421    0.0000 H   0  0  0  0  0  0  0  0  0  0  0  0
    9.4546    3.5188    0.0000 H   0  0  0  0  0  0  0  0  0  0  0  0
    8.6051    3.7360    0.0000 H   0  0  0  0  0  0  0  0  0  0  0  0
  1  6  1  0  0  0  0
  1  8  1  0  0  0  0
  7  2  1  6  0  0  0
  2 33  1  0  0  0  0
  3 10  2  0  0  0  0
  4 13  1  0  0  0  0
  4 38  1  0  0  0  0
  5 15  1  0  0  0  0
  5 39  1  0  0  0  0
  6  7  1  0  0  0  0
  6 12  1  1  0  0  0
  6 26  1  0  0  0  0
  7 10  1  0  0  0  0
  7 27  1  0  0  0  0
  8  9  1  0  0  0  0
  8 11  2  0  0  0  0
  9 10  1  0  0  0  0
  9 13  2  0  0  0  0
 11 14  1  0  0  0  0
 11 15  1  0  0  0  0
 12 17  2  0  0  0  0
 12 18  1  0  0  0  0
 13 16  1  0  0  0  0
 14 19  1  0  0  0  0
 14 28  1  0  0  0  0
 14 29  1  0  0  0  0
 15 16  2  0  0  0  0
 16 30  1  0  0  0  0
 17 20  1  0  0  0  0
 17 31  1  0  0  0  0
 18 21  2  0  0  0  0
 18 32  1  0  0  0  0
 19 22  2  0  0  0  0
 19 34  1  0  0  0  0
 20 23  2  0  0  0  0
 20 35  1  0  0  0  0
 21 23  1  0  0  0  0
 21 36  1  0  0  0  0
 22 24  1  0  0  0  0
 22 25  1  0  0  0  0
 23 37  1  0  0  0  0
 24 40  1  0  0  0  0
 24 44  1  0  0  0  0
 24 45  1  0  0  0  0
 25 41  1  0  0  0  0
 25 42  1  0  0  0  0
 25 43  1  0  0  0  0
M  END
> <PUBCHEM_COMPOUND_CID>
442411

> <PUBCHEM_COMPOUND_CANONICALIZED>
1

> <PUBCHEM_CACTVS_COMPLEXITY>
506

> <PUBCHEM_CACTVS_HBOND_ACCEPTOR>
5

> <PUBCHEM_CACTVS_HBOND_DONOR>
3

> <PUBCHEM_CACTVS_ROTATABLE_BOND>
3

> <PUBCHEM_CACTVS_SUBSKEYS>
AAADceB4OAAAAAAAAAAAAAAAAAAAAAAAAAA0YIAAAAAAAACRQAAAGgAACAAADBSgmAIyBoAABgCIAqBSAAICCAAkIAAIiAFGCMgNNzaGNRqCeWCl4BULuQfI7PzOIAACCAAIAABAAAQQABAAAAAAAAAAAA==

> <PUBCHEM_IUPAC_OPENEYE_NAME>
(2R,3R)-3,5,7-trihydroxy-8-(3-methylbut-2-enyl)-2-phenyl-chroman-4-one

> <PUBCHEM_IUPAC_CAS_NAME>
(2R,3R)-3,5,7-trihydroxy-8-(3-methylbut-2-enyl)-2-phenyl-3,4-dihydro-2H-1-benzopyran-4-one

> <PUBCHEM_IUPAC_NAME>
(2R,3R)-3,5,7-trihydroxy-8-(3-methylbut-2-enyl)-2-phenyl-2,3-dihydrochromen-4-one

> <PUBCHEM_IUPAC_SYSTEMATIC_NAME>
(2R,3R)-8-(3-methylbut-2-enyl)-3,5,7-tris(oxidanyl)-2-phenyl-2,3-dihydrochromen-4-one

> <PUBCHEM_IUPAC_TRADITIONAL_NAME>
(2R,3R)-3,5,7-trihydroxy-8-(3-methylbut-2-enyl)-2-phenyl-chroman-4-one

> <PUBCHEM_IUPAC_INCHI>
InChI=1S/C20H20O5/c1-11(2)8-9-13-14(21)10-15(22)16-17(23)18(24)19(25-20(13)16)12-6-4-3-5-7-12/h3-8,10,18-19,21-22,24H,9H2,1-2H3/t18-,19+/m0/s1

> <PUBCHEM_IUPAC_INCHIKEY>
ATJOIGKHVRPLSM-RBUKOAKNSA-N

> <PUBCHEM_XLOGP3_AA>
4.1

> <PUBCHEM_EXACT_MASS>
340.131074

> <PUBCHEM_MOLECULAR_FORMULA>
C20H20O5

> <PUBCHEM_MOLECULAR_WEIGHT>
340.3698

> <PUBCHEM_OPENEYE_CAN_SMILES>
CC(=CCC1=C(C=C(C2=C1OC(C(C2=O)O)C3=CC=CC=C3)O)O)C

> <PUBCHEM_OPENEYE_ISO_SMILES>
CC(=CCC1=C(C=C(C2=C1O[C@@H]([C@H](C2=O)O)C3=CC=CC=C3)O)O)C

> <PUBCHEM_CACTVS_TPSA>
87

> <PUBCHEM_MONOISOTOPIC_WEIGHT>
340.131074

> <PUBCHEM_TOTAL_CHARGE>
0

> <PUBCHEM_HEAVY_ATOM_COUNT>
25

> <PUBCHEM_ATOM_DEF_STEREO_COUNT>
2

> <PUBCHEM_ATOM_UDEF_STEREO_COUNT>
0

> <PUBCHEM_BOND_DEF_STEREO_COUNT>
0

> <PUBCHEM_BOND_UDEF_STEREO_COUNT>
0

> <PUBCHEM_ISOTOPIC_ATOM_COUNT>
0

> <PUBCHEM_COMPONENT_COUNT>
1

> <PUBCHEM_CACTVS_TAUTO_COUNT>
39

> <PUBCHEM_COORDINATE_TYPE>
1
5
255

> <PUBCHEM_BONDANNOTATIONS>
11  15  8
12  17  8
12  18  8
13  16  8
15  16  8
17  20  8
18  21  8
7  2  6
20  23  8
21  23  8
6  12  5
8  11  8
8  9  8
9  13  8

$$$$

