53297412
  -OEChem-07051213122D

 46 46  0     0  0  0  0  0  0999 V2000
    6.5010    3.8660    0.0000 S   0  0  0  0  0  0  0  0  0  0  0  0
    0.0000    4.9515    0.0000 Na  0  4  0  0  0  0  0  0  0  0  0  0
    9.0991    0.3660    0.0000 F   0  0  0  0  0  0  0  0  0  0  0  0
    7.7331    0.0000    0.0000 F   0  0  0  0  0  0  0  0  0  0  0  0
    8.7331    1.7320    0.0000 F   0  0  0  0  0  0  0  0  0  0  0  0
    7.5010    3.8660    0.0000 O   0  0  0  0  0  0  0  0  0  0  0  0
    5.5010    3.8660    0.0000 O   0  0  0  0  0  0  0  0  0  0  0  0
    3.9030    2.3660    0.0000 O   0  0  0  0  0  0  0  0  0  0  0  0
    4.7690    3.8660    0.0000 O   0  0  0  0  0  0  0  0  0  0  0  0
    8.2331    4.8660    0.0000 O   0  0  0  0  0  0  0  0  0  0  0  0
    9.0991    9.3660    0.0000 O   0  0  0  0  0  0  0  0  0  0  0  0
   10.8312    6.3660    0.0000 O   0  0  0  0  0  0  0  0  0  0  0  0
    7.3671    2.3660    0.0000 N   0  0  0  0  0  0  0  0  0  0  0  0
    6.5010    4.8660    0.0000 N   0  0  0  0  0  0  0  0  0  0  0  0
    7.3671    6.3660    0.0000 N   0  0  0  0  0  0  0  0  0  0  0  0
    8.2331    7.8660    0.0000 N   0  0  0  0  0  0  0  0  0  0  0  0
    9.0991    6.3660    0.0000 N   0  0  0  0  0  0  0  0  0  0  0  0
    6.5010    2.8660    0.0000 C   0  0  0  0  0  0  0  0  0  0  0  0
    5.6350    2.3660    0.0000 C   0  0  0  0  0  0  0  0  0  0  0  0
    7.3671    1.3660    0.0000 C   0  0  0  0  0  0  0  0  0  0  0  0
    5.6350    1.3660    0.0000 C   0  0  0  0  0  0  0  0  0  0  0  0
    6.5010    0.8660    0.0000 C   0  0  0  0  0  0  0  0  0  0  0  0
    4.7690    2.8660    0.0000 C   0  0  0  0  0  0  0  0  0  0  0  0
    8.2331    0.8660    0.0000 C   0  0  0  0  0  0  0  0  0  0  0  0
    7.3671    5.3660    0.0000 C   0  0  0  0  0  0  0  0  0  0  0  0
    8.2331    6.8660    0.0000 C   0  0  0  0  0  0  0  0  0  0  0  0
    9.0991    8.3660    0.0000 C   0  0  0  0  0  0  0  0  0  0  0  0
    9.9651    6.8660    0.0000 C   0  0  0  0  0  0  0  0  0  0  0  0
    9.9651    7.8660    0.0000 C   0  0  0  0  0  0  0  0  0  0  0  0
    3.0369    2.8660    0.0000 C   0  0  0  0  0  0  0  0  0  0  0  0
    9.9651    9.8660    0.0000 C   0  0  0  0  0  0  0  0  0  0  0  0
   11.6972    6.8660    0.0000 C   0  0  0  0  0  0  0  0  0  0  0  0
    5.0981    1.0560    0.0000 H   0  0  0  0  0  0  0  0  0  0  0  0
    6.5010    0.2460    0.0000 H   0  0  0  0  0  0  0  0  0  0  0  0
    5.9641    5.1760    0.0000 H   0  0  0  0  0  0  0  0  0  0  0  0
    6.8301    6.6760    0.0000 H   0  0  0  0  0  0  0  0  0  0  0  0
   10.5021    8.1760    0.0000 H   0  0  0  0  0  0  0  0  0  0  0  0
    3.3469    3.4030    0.0000 H   0  0  0  0  0  0  0  0  0  0  0  0
    2.5000    3.1760    0.0000 H   0  0  0  0  0  0  0  0  0  0  0  0
    2.7269    2.3291    0.0000 H   0  0  0  0  0  0  0  0  0  0  0  0
   10.2751    9.3291    0.0000 H   0  0  0  0  0  0  0  0  0  0  0  0
   10.5021   10.1760    0.0000 H   0  0  0  0  0  0  0  0  0  0  0  0
    9.6551   10.4030    0.0000 H   0  0  0  0  0  0  0  0  0  0  0  0
   12.0072    6.3291    0.0000 H   0  0  0  0  0  0  0  0  0  0  0  0
   12.2341    7.1760    0.0000 H   0  0  0  0  0  0  0  0  0  0  0  0
   11.3872    7.4030    0.0000 H   0  0  0  0  0  0  0  0  0  0  0  0
  1  6  2  0  0  0  0
  1  7  2  0  0  0  0
  1 14  1  0  0  0  0
  1 18  1  0  0  0  0
  3 24  1  0  0  0  0
  4 24  1  0  0  0  0
  5 24  1  0  0  0  0
  8 23  1  0  0  0  0
  8 30  1  0  0  0  0
  9 23  2  0  0  0  0
 10 25  2  0  0  0  0
 11 27  1  0  0  0  0
 11 31  1  0  0  0  0
 12 28  1  0  0  0  0
 12 32  1  0  0  0  0
 13 18  1  0  0  0  0
 13 20  2  0  0  0  0
 14 25  1  0  0  0  0
 14 35  1  0  0  0  0
 15 25  1  0  0  0  0
 15 26  1  0  0  0  0
 15 36  1  0  0  0  0
 16 26  1  0  0  0  0
 16 27  2  0  0  0  0
 17 26  2  0  0  0  0
 17 28  1  0  0  0  0
 18 19  2  0  0  0  0
 19 21  1  0  0  0  0
 19 23  1  0  0  0  0
 20 22  1  0  0  0  0
 20 24  1  0  0  0  0
 21 22  2  0  0  0  0
 21 33  1  0  0  0  0
 22 34  1  0  0  0  0
 27 29  1  0  0  0  0
 28 29  2  0  0  0  0
 29 37  1  0  0  0  0
 30 38  1  0  0  0  0
 30 39  1  0  0  0  0
 30 40  1  0  0  0  0
 31 41  1  0  0  0  0
 31 42  1  0  0  0  0
 31 43  1  0  0  0  0
 32 44  1  0  0  0  0
 32 45  1  0  0  0  0
 32 46  1  0  0  0  0
M  RAD  1   2   2
M  END
> <PUBCHEM_COMPOUND_CID>
53297412

> <PUBCHEM_COMPOUND_CANONICALIZED>
1

> <PUBCHEM_CACTVS_COMPLEXITY>
736

> <PUBCHEM_CACTVS_HBOND_ACCEPTOR>
13

> <PUBCHEM_CACTVS_HBOND_DONOR>
2

> <PUBCHEM_CACTVS_ROTATABLE_BOND>
7

> <PUBCHEM_CACTVS_SUBSKEYS>
AAADccBzuaBAAAAAAAAAAAAAAAAAAAAAAAAsWAAAAAAAAAAB4AAAHwQQQAAADAiB3hIznZbIFAKoAyTyfHDK2DklIqAJmDE2bNiML/rE/NmENahvwQ/I6eeYWQMcAAAAAAAAAAAAAAAAAAAAAAAAAAAAAA==

> <PUBCHEM_IUPAC_OPENEYE_NAME>
methyl 2-[(4,6-dimethoxypyrimidin-2-yl)carbamoylsulfamoyl]-6-(trifluoromethyl)pyridine-3-carboxylate; sodium

> <PUBCHEM_IUPAC_CAS_NAME>
2-[[[(4,6-dimethoxy-2-pyrimidinyl)amino]-oxomethyl]sulfamoyl]-6-(trifluoromethyl)-3-pyridinecarboxylic acid methyl ester; sodium

> <PUBCHEM_IUPAC_NAME>
methyl 2-[(4,6-dimethoxypyrimidin-2-yl)carbamoylsulfamoyl]-6-(trifluoromethyl)pyridine-3-carboxylate; sodium

> <PUBCHEM_IUPAC_SYSTEMATIC_NAME>
methyl 2-[(4,6-dimethoxypyrimidin-2-yl)carbamoylsulfamoyl]-6-(trifluoromethyl)pyridine-3-carboxylate; sodium

> <PUBCHEM_IUPAC_TRADITIONAL_NAME>
2-[(4,6-dimethoxypyrimidin-2-yl)carbamoylsulfamoyl]-6-(trifluoromethyl)nicotinic acid methyl ester; sodium

> <PUBCHEM_IUPAC_INCHI>
InChI=1S/C15H14F3N5O7S.Na/c1-28-9-6-10(29-2)21-13(20-9)22-14(25)23-31(26,27)11-7(12(24)30-3)4-5-8(19-11)15(16,17)18;/h4-6H,1-3H3,(H2,20,21,22,23,25);

> <PUBCHEM_IUPAC_INCHIKEY>
XVPAYLVQXRJFBG-UHFFFAOYSA-N

> <PUBCHEM_EXACT_MASS>
488.046373

> <PUBCHEM_MOLECULAR_FORMULA>
C15H14F3N5NaO7S

> <PUBCHEM_MOLECULAR_WEIGHT>
488.350939

> <PUBCHEM_OPENEYE_CAN_SMILES>
COC1=CC(=NC(=N1)NC(=O)NS(=O)(=O)C2=C(C=CC(=N2)C(F)(F)F)C(=O)OC)OC.[Na]

> <PUBCHEM_OPENEYE_ISO_SMILES>
COC1=CC(=NC(=N1)NC(=O)NS(=O)(=O)C2=C(C=CC(=N2)C(F)(F)F)C(=O)OC)OC.[Na]

> <PUBCHEM_CACTVS_TPSA>
167

> <PUBCHEM_MONOISOTOPIC_WEIGHT>
488.046373

> <PUBCHEM_TOTAL_CHARGE>
0

> <PUBCHEM_HEAVY_ATOM_COUNT>
32

> <PUBCHEM_ATOM_DEF_STEREO_COUNT>
0

> <PUBCHEM_ATOM_UDEF_STEREO_COUNT>
0

> <PUBCHEM_BOND_DEF_STEREO_COUNT>
0

> <PUBCHEM_BOND_UDEF_STEREO_COUNT>
0

> <PUBCHEM_ISOTOPIC_ATOM_COUNT>
0

> <PUBCHEM_COMPONENT_COUNT>
2

> <PUBCHEM_CACTVS_TAUTO_COUNT>
5

> <PUBCHEM_COORDINATE_TYPE>
1
5
255

> <PUBCHEM_BONDANNOTATIONS>
13  18  8
13  20  8
16  26  8
16  27  8
17  26  8
17  28  8
18  19  8
19  21  8
20  22  8
21  22  8
27  29  8
28  29  8

$$$$

