46173767
  -OEChem-07051212522D

 70 73  0     1  0  0  0  0  0999 V2000
    3.4116    2.9222    0.0000 P   0  0  0  0  0  0  0  0  0  0  0  0
    4.4150    0.0014    0.0000 O   0  0  0  0  0  0  0  0  0  0  0  0
    6.7609   -1.0905    0.0000 O   0  0  0  0  0  0  0  0  0  0  0  0
    3.7190    1.9706    0.0000 O   0  0  0  0  0  0  0  0  0  0  0  0
    5.7491    2.4881    0.0000 O   0  0  0  0  0  0  0  0  0  0  0  0
    3.1042    3.8738    0.0000 O   0  0  0  0  0  0  0  0  0  0  0  0
    2.4600    2.6148    0.0000 O   0  0  0  0  0  0  0  0  0  0  0  0
    4.3632    3.2295    0.0000 O   0  0  0  0  0  0  0  0  0  0  0  0
    5.6462    3.4828    0.0000 O   0  0  0  0  0  0  0  0  0  0  0  0
   11.6249    4.6034    0.0000 O   0  0  0  0  0  0  0  0  0  0  0  0
    4.6907   -1.7592    0.0000 N   0  0  0  0  0  0  0  0  0  0  0  0
    6.7647    1.0851    0.0000 N   0  0  0  0  0  0  0  0  0  0  0  0
    4.6907   -3.3686    0.0000 N   0  0  0  0  0  0  0  0  0  0  0  0
    2.8784   -1.5639    0.0000 N   0  0  0  0  0  0  0  0  0  0  0  0
    7.3691    3.6609    0.0000 N   0  0  0  0  0  0  0  0  0  0  0  0
    2.8784   -4.5639    0.0000 N   0  0  0  0  0  0  0  0  0  0  0  0
    2.0124   -3.0639    0.0000 N   0  0  0  0  0  0  0  0  0  0  0  0
    5.9547    0.4987    0.0000 C   0  0  1  0  0  0  0  0  0  0  0  0
    5.9529   -0.5013    0.0000 C   0  0  2  0  0  0  0  0  0  0  0  0
    5.0042    0.8094    0.0000 C   0  0  1  0  0  0  0  0  0  0  0  0
    5.0014   -0.8087    0.0000 C   0  0  1  0  0  0  0  0  0  0  0  0
    4.6968    1.7610    0.0000 C   0  0  0  0  0  0  0  0  0  0  0  0
    3.7445   -2.0639    0.0000 C   0  0  0  0  0  0  0  0  0  0  0  0
    6.6619    2.0798    0.0000 C   0  0  0  0  0  0  0  0  0  0  0  0
    5.2743   -2.5639    0.0000 C   0  0  0  0  0  0  0  0  0  0  0  0
    7.4719    2.6662    0.0000 C   0  0  2  0  0  0  0  0  0  0  0  0
    3.7445   -3.0639    0.0000 C   0  0  0  0  0  0  0  0  0  0  0  0
    8.3848    2.2579    0.0000 C   0  0  0  0  0  0  0  0  0  0  0  0
    2.8784   -3.5639    0.0000 C   0  0  0  0  0  0  0  0  0  0  0  0
    9.1948    2.8442    0.0000 C   0  0  0  0  0  0  0  0  0  0  0  0
    2.0124   -2.0639    0.0000 C   0  0  0  0  0  0  0  0  0  0  0  0
    6.4563    4.0692    0.0000 C   0  0  0  0  0  0  0  0  0  0  0  0
   10.1076    2.4359    0.0000 C   0  0  0  0  0  0  0  0  0  0  0  0
    9.0920    3.8390    0.0000 C   0  0  0  0  0  0  0  0  0  0  0  0
    2.0124   -5.0639    0.0000 C   0  0  0  0  0  0  0  0  0  0  0  0
    3.7445   -5.0639    0.0000 C   0  0  0  0  0  0  0  0  0  0  0  0
    6.3535    5.0639    0.0000 C   0  0  0  0  0  0  0  0  0  0  0  0
   10.9177    3.0223    0.0000 C   0  0  0  0  0  0  0  0  0  0  0  0
    9.9020    4.4253    0.0000 C   0  0  0  0  0  0  0  0  0  0  0  0
   10.8149    4.0170    0.0000 C   0  0  0  0  0  0  0  0  0  0  0  0
    5.8587    1.1112    0.0000 H   0  0  0  0  0  0  0  0  0  0  0  0
    5.8549   -1.1135    0.0000 H   0  0  0  0  0  0  0  0  0  0  0  0
    4.3919    0.9074    0.0000 H   0  0  0  0  0  0  0  0  0  0  0  0
    4.3888   -0.9046    0.0000 H   0  0  0  0  0  0  0  0  0  0  0  0
    5.3109    1.8462    0.0000 H   0  0  0  0  0  0  0  0  0  0  0  0
    4.7195    2.3806    0.0000 H   0  0  0  0  0  0  0  0  0  0  0  0
    7.3307    0.8319    0.0000 H   0  0  0  0  0  0  0  0  0  0  0  0
    7.3278   -0.8393    0.0000 H   0  0  0  0  0  0  0  0  0  0  0  0
    5.8943   -2.5639    0.0000 H   0  0  0  0  0  0  0  0  0  0  0  0
    6.9060    2.9193    0.0000 H   0  0  0  0  0  0  0  0  0  0  0  0
    8.0372    1.7445    0.0000 H   0  0  0  0  0  0  0  0  0  0  0  0
    8.8300    1.8264    0.0000 H   0  0  0  0  0  0  0  0  0  0  0  0
    7.8713    4.0244    0.0000 H   0  0  0  0  0  0  0  0  0  0  0  0
    1.4755   -1.7539    0.0000 H   0  0  0  0  0  0  0  0  0  0  0  0
   10.1714    1.8192    0.0000 H   0  0  0  0  0  0  0  0  0  0  0  0
    8.5260    4.0921    0.0000 H   0  0  0  0  0  0  0  0  0  0  0  0
    2.0000    3.0304    0.0000 H   0  0  0  0  0  0  0  0  0  0  0  0
    2.4980    4.0037    0.0000 H   0  0  0  0  0  0  0  0  0  0  0  0
    1.7024   -4.5270    0.0000 H   0  0  0  0  0  0  0  0  0  0  0  0
    1.4755   -5.3739    0.0000 H   0  0  0  0  0  0  0  0  0  0  0  0
    2.3224   -5.6008    0.0000 H   0  0  0  0  0  0  0  0  0  0  0  0
    3.4345   -5.6008    0.0000 H   0  0  0  0  0  0  0  0  0  0  0  0
    4.2814   -5.3739    0.0000 H   0  0  0  0  0  0  0  0  0  0  0  0
    4.0545   -4.5270    0.0000 H   0  0  0  0  0  0  0  0  0  0  0  0
    6.9702    5.1276    0.0000 H   0  0  0  0  0  0  0  0  0  0  0  0
    6.2897    5.6806    0.0000 H   0  0  0  0  0  0  0  0  0  0  0  0
    5.7368    5.0002    0.0000 H   0  0  0  0  0  0  0  0  0  0  0  0
   11.4836    2.7692    0.0000 H   0  0  0  0  0  0  0  0  0  0  0  0
    9.8383    5.0420    0.0000 H   0  0  0  0  0  0  0  0  0  0  0  0
   12.1909    4.3502    0.0000 H   0  0  0  0  0  0  0  0  0  0  0  0
  1  4  1  0  0  0  0
  1  6  1  0  0  0  0
  1  7  1  0  0  0  0
  1  8  2  0  0  0  0
  2 20  1  0  0  0  0
  2 21  1  0  0  0  0
 19  3  1  1  0  0  0
  3 48  1  0  0  0  0
  4 22  1  0  0  0  0
  5 24  2  0  0  0  0
  6 58  1  0  0  0  0
  7 57  1  0  0  0  0
  9 32  2  0  0  0  0
 10 40  1  0  0  0  0
 10 70  1  0  0  0  0
 21 11  1  6  0  0  0
 11 23  1  0  0  0  0
 11 25  1  0  0  0  0
 18 12  1  1  0  0  0
 12 24  1  0  0  0  0
 12 47  1  0  0  0  0
 13 25  2  0  0  0  0
 13 27  1  0  0  0  0
 14 23  1  0  0  0  0
 14 31  2  0  0  0  0
 26 15  1  1  0  0  0
 15 32  1  0  0  0  0
 15 53  1  0  0  0  0
 16 29  1  0  0  0  0
 16 35  1  0  0  0  0
 16 36  1  0  0  0  0
 17 29  2  0  0  0  0
 17 31  1  0  0  0  0
 18 19  1  0  0  0  0
 18 20  1  0  0  0  0
 18 41  1  0  0  0  0
 19 21  1  0  0  0  0
 19 42  1  0  0  0  0
 20 22  1  6  0  0  0
 20 43  1  0  0  0  0
 21 44  1  0  0  0  0
 22 45  1  0  0  0  0
 22 46  1  0  0  0  0
 23 27  2  0  0  0  0
 24 26  1  0  0  0  0
 25 49  1  0  0  0  0
 26 28  1  0  0  0  0
 26 50  1  0  0  0  0
 27 29  1  0  0  0  0
 28 30  1  0  0  0  0
 28 51  1  0  0  0  0
 28 52  1  0  0  0  0
 30 33  2  0  0  0  0
 30 34  1  0  0  0  0
 31 54  1  0  0  0  0
 32 37  1  0  0  0  0
 33 38  1  0  0  0  0
 33 55  1  0  0  0  0
 34 39  2  0  0  0  0
 34 56  1  0  0  0  0
 35 59  1  0  0  0  0
 35 60  1  0  0  0  0
 35 61  1  0  0  0  0
 36 62  1  0  0  0  0
 36 63  1  0  0  0  0
 36 64  1  0  0  0  0
 37 65  1  0  0  0  0
 37 66  1  0  0  0  0
 37 67  1  0  0  0  0
 38 40  2  0  0  0  0
 38 68  1  0  0  0  0
 39 40  1  0  0  0  0
 39 69  1  0  0  0  0
M  END
> <PUBCHEM_COMPOUND_CID>
46173767

> <PUBCHEM_COMPOUND_CANONICALIZED>
1

> <PUBCHEM_CACTVS_COMPLEXITY>
934

> <PUBCHEM_CACTVS_HBOND_ACCEPTOR>
13

> <PUBCHEM_CACTVS_HBOND_DONOR>
6

> <PUBCHEM_CACTVS_ROTATABLE_BOND>
10

> <PUBCHEM_CACTVS_SUBSKEYS>
AAADceB7vAIAAAAAAAAAAAAAAAAAAWJAAAA8QAAAAAAAAFgB/AAAHgAQCCAADDzhnwY39r/MFxCoQydzdICCgC0xMKAJ2KGuXJiLfjLC2XOfdAgv1hPbmCf4+KKOIAAAAAAAAABAAAAAAAAAAAAAAAAAAA==

> <PUBCHEM_IUPAC_OPENEYE_NAME>
[(2S,3S,4R,5R)-3-[[(2S)-2-acetamido-3-(4-hydroxyphenyl)propanoyl]amino]-5-[6-(dimethylamino)purin-9-yl]-4-hydroxy-tetrahydrofuran-2-yl]methyl dihydrogen phosphate

> <PUBCHEM_IUPAC_CAS_NAME>
[(2S,3S,4R,5R)-3-[[(2S)-2-acetamido-3-(4-hydroxyphenyl)-1-oxopropyl]amino]-5-[6-(dimethylamino)-9-purinyl]-4-hydroxy-2-oxolanyl]methyl dihydrogen phosphate

> <PUBCHEM_IUPAC_NAME>
[(2S,3S,4R,5R)-3-[[(2S)-2-acetamido-3-(4-hydroxyphenyl)propanoyl]amino]-5-[6-(dimethylamino)purin-9-yl]-4-hydroxyoxolan-2-yl]methyl dihydrogen phosphate

> <PUBCHEM_IUPAC_SYSTEMATIC_NAME>
[(2S,3S,4R,5R)-3-[[(2S)-2-acetamido-3-(4-hydroxyphenyl)propanoyl]amino]-5-[6-(dimethylamino)purin-9-yl]-4-oxidanyl-oxolan-2-yl]methyl dihydrogen phosphate

> <PUBCHEM_IUPAC_TRADITIONAL_NAME>
[(2S,3S,4R,5R)-3-[[(2S)-2-acetamido-3-(4-hydroxyphenyl)propanoyl]amino]-5-[6-(dimethylamino)purin-9-yl]-4-hydroxy-tetrahydrofuran-2-yl]methyl dihydrogen phosphate

> <PUBCHEM_IUPAC_INCHI>
InChI=1S/C23H30N7O9P/c1-12(31)27-15(8-13-4-6-14(32)7-5-13)22(34)28-17-16(9-38-40(35,36)37)39-23(19(17)33)30-11-26-18-20(29(2)3)24-10-25-21(18)30/h4-7,10-11,15-17,19,23,32-33H,8-9H2,1-3H3,(H,27,31)(H,28,34)(H2,35,36,37)/t15-,16+,17+,19+,23+/m0/s1

> <PUBCHEM_IUPAC_INCHIKEY>
DXFVIAQLRPNPPO-PXBBLBRZSA-N

> <PUBCHEM_XLOGP3>
-1.7

> <PUBCHEM_EXACT_MASS>
579.184262

> <PUBCHEM_MOLECULAR_FORMULA>
C23H30N7O9P

> <PUBCHEM_MOLECULAR_WEIGHT>
579.499562

> <PUBCHEM_OPENEYE_CAN_SMILES>
CC(=O)NC(CC1=CC=C(C=C1)O)C(=O)NC2C(OC(C2O)N3C=NC4=C3N=CN=C4N(C)C)COP(=O)(O)O

> <PUBCHEM_OPENEYE_ISO_SMILES>
CC(=O)N[C@@H](CC1=CC=C(C=C1)O)C(=O)N[C@@H]2[C@H](O[C@H]([C@@H]2O)N3C=NC4=C3N=CN=C4N(C)C)COP(=O)(O)O

> <PUBCHEM_CACTVS_TPSA>
222

> <PUBCHEM_MONOISOTOPIC_WEIGHT>
579.184262

> <PUBCHEM_TOTAL_CHARGE>
0

> <PUBCHEM_HEAVY_ATOM_COUNT>
40

> <PUBCHEM_ATOM_DEF_STEREO_COUNT>
5

> <PUBCHEM_ATOM_UDEF_STEREO_COUNT>
0

> <PUBCHEM_BOND_DEF_STEREO_COUNT>
0

> <PUBCHEM_BOND_UDEF_STEREO_COUNT>
0

> <PUBCHEM_ISOTOPIC_ATOM_COUNT>
0

> <PUBCHEM_COMPONENT_COUNT>
1

> <PUBCHEM_CACTVS_TAUTO_COUNT>
8

> <PUBCHEM_COORDINATE_TYPE>
1
5
255

> <PUBCHEM_BONDANNOTATIONS>
21  11  6
11  23  8
11  25  8
18  12  5
13  25  8
13  27  8
14  23  8
14  31  8
26  15  5
17  29  8
17  31  8
20  22  6
23  27  8
27  29  8
19  3  5
30  33  8
30  34  8
33  38  8
34  39  8
38  40  8
39  40  8

$$$$

