   Color/Form

     * Colorless, yellowish, brownish-yellow, or pinkish liquid
     * Colorless to yellow liquid [Note: A solid below 54 degrees F].

   from [1]HSDB

   Odor

     * Phenolic odor
     * Odor of coal tar
     * Sweet, tarry odor.

   from [2]HSDB

   Taste
        Taste threshold: 2.00X10-3 ppm
   from [3]HSDB

   Boiling Point
        202 deg C
   from [4]HSDB

   Melting Point
        11-12 deg C
   from [5]HSDB

   Critical Temperature and Pressure
        Critical temperature: 342.6 deg C; Critical pressure: 4.56 MPa
   from [6]HSDB

   Density/Specific Gravity
        1.034 at 20 deg C/4 deg C
   from [7]HSDB

   Dissociation Constants
        pKa = 10.09
   from [8]HSDB

   Heat of Combustion
        3703.9 kJ/mol at 25 deg C (liquid); 3765.6 kJ/mol at 25 deg C
   (gas)
   from [9]HSDB

   Heat of Vaporization
        47.40 kJ/mol at 202.27 deg C; 61.71 kJ/mol at 25 deg C
   from [10]HSDB

   Octanol/Water Partition Coefficient
        log Kow = 1.96
   from [11]HSDB

   Solubilities

     * In solutions of fixed alkali hydroxides; miscible in alcohol;
       chloroform; ether
     * Miscible in ethanol, ether, and acetone
     * 2.5% IN MINERAL OIL
     * In water, 2.27X10+4 mg/L at 25 deg C.

   from [12]HSDB

   Spectral Properties

     * Index of refraction: 1.5398 @ 20 deg C/D
     * MAX ABSORPTION (HEXANE): 214 NM (LOG E= 3.79); 271 NM (LOG E=
       3.20); 277 NM (LOG E= 3.27)
     * SADTLER REFERENCE NUMBER: 2338 (IR, PRISM); 322 (IR, GRATING)
     * Intense mass spectral peaks: 108 m/z (100%), 107 m/z (85%), 79 m/z
       (35%), 77 m/z (29%)
     * IR: 4818 (Coblentz Society Spectral Collection)
     * UV: 622 (Sadtler Research Laboratories Spectral Collection)
     * NMR: 160 (Varian Associates NMR Spectra Catalogue)
     * MASS: 336 (Atlas of Mass Spectral Data, John Wiley & Sons, New
       York)

   from [13]HSDB

   Vapor Density
        3.72 (Air=1)
   from [14]HSDB

   Vapor Pressure
        0.11 mm Hg at 25 deg C
   from [15]HSDB

   Viscosity
        12.9 cP at 25 deg C; 4.417 cP at 50 deg C; 2.093 cP at 75 deg C;
   1.207 cP at 100 deg C
   from [16]HSDB

   Other Chemical/Physical Properties

     * Percent in saturated air at 25 deg C: 0.0201
     * Wt/gal= 8.66 lb
     * Henry's Law constant = 8.6X10-7 atm-cu m/mol at 25 deg C
     * Hydroxyl radical reaction rate constant = 6.4X10-11 cu cm/molec-sec
       at 25 deg C

   from [17]HSDB

   Computed Properties
   Molecular Weight                  108.13782 [g/mol]
   Molecular Formula                 C[7]H[8]O
   XLogP3                            2
   H-Bond Donor                      1
   H-Bond Acceptor                   1
   Rotatable Bond Count              0
   Tautomer Count                    9
   Exact Mass                        108.057515
   MonoIsotopic Mass                 108.057515
   Topological Polar Surface Area    20.2
   Heavy Atom Count                  8
   Formal Charge                     0
   Complexity                        70.8
   Isotope Atom Count                0
   Defined Atom Stereocenter Count   0
   Undefined Atom Stereocenter Count 0
   Defined Bond Stereocenter Count   0
   Undefined Bond Stereocenter Count 0
   Covalently-Bonded Unit Count      1
   Feature 3D Donor Count            1
   Feature 3D Ring Count             1
   Effective Rotor Count             0
   Conformer Sampling RMSD           0.4
   CID Conformer Count               [18]1

References

   1. http://toxnet.nlm.nih.gov/cgi-bin/sis/search/r?dbs+hsdb:@term+@rn+@rel+108-39-4
   2. http://toxnet.nlm.nih.gov/cgi-bin/sis/search/r?dbs+hsdb:@term+@rn+@rel+108-39-4
   3. http://toxnet.nlm.nih.gov/cgi-bin/sis/search/r?dbs+hsdb:@term+@rn+@rel+108-39-4
   4. http://toxnet.nlm.nih.gov/cgi-bin/sis/search/r?dbs+hsdb:@term+@rn+@rel+108-39-4
   5. http://toxnet.nlm.nih.gov/cgi-bin/sis/search/r?dbs+hsdb:@term+@rn+@rel+108-39-4
   6. http://toxnet.nlm.nih.gov/cgi-bin/sis/search/r?dbs+hsdb:@term+@rn+@rel+108-39-4
   7. http://toxnet.nlm.nih.gov/cgi-bin/sis/search/r?dbs+hsdb:@term+@rn+@rel+108-39-4
   8. http://toxnet.nlm.nih.gov/cgi-bin/sis/search/r?dbs+hsdb:@term+@rn+@rel+108-39-4
   9. http://toxnet.nlm.nih.gov/cgi-bin/sis/search/r?dbs+hsdb:@term+@rn+@rel+108-39-4
  10. http://toxnet.nlm.nih.gov/cgi-bin/sis/search/r?dbs+hsdb:@term+@rn+@rel+108-39-4
  11. http://toxnet.nlm.nih.gov/cgi-bin/sis/search/r?dbs+hsdb:@term+@rn+@rel+108-39-4
  12. http://toxnet.nlm.nih.gov/cgi-bin/sis/search/r?dbs+hsdb:@term+@rn+@rel+108-39-4
  13. http://toxnet.nlm.nih.gov/cgi-bin/sis/search/r?dbs+hsdb:@term+@rn+@rel+108-39-4
  14. http://toxnet.nlm.nih.gov/cgi-bin/sis/search/r?dbs+hsdb:@term+@rn+@rel+108-39-4
  15. http://toxnet.nlm.nih.gov/cgi-bin/sis/search/r?dbs+hsdb:@term+@rn+@rel+108-39-4
  16. http://toxnet.nlm.nih.gov/cgi-bin/sis/search/r?dbs+hsdb:@term+@rn+@rel+108-39-4
  17. http://toxnet.nlm.nih.gov/cgi-bin/sis/search/r?dbs+hsdb:@term+@rn+@rel+108-39-4
  18. http://pubchem.ncbi.nlm.nih.gov/vw3d/vw3d.cgi?cid=342
