5487510
  -OEChem-07051213072D

 27 27  0     0  0  0  0  0  0999 V2000
    4.2601    1.8316    0.0000 S   0  0  0  0  0  0  0  0  0  0  0  0
    7.4223   -0.0465    0.0000 S   0  0  0  0  0  0  0  0  0  0  0  0
    2.0000    0.5715    0.0000 O   0  0  0  0  0  0  0  0  0  0  0  0
    3.7601    0.2928    0.0000 N   0  0  0  0  0  0  0  0  0  0  0  0
    5.5202    0.5715    0.0000 N   0  0  0  0  0  0  0  0  0  0  0  0
    6.2633    1.2407    0.0000 N   0  0  0  0  0  0  0  0  0  0  0  0
    7.9575    1.6008    0.0000 N   0  0  0  0  0  0  0  0  0  0  0  0
    3.7601   -0.7072    0.0000 C   0  0  0  0  0  0  0  0  0  0  0  0
    2.9511    0.8806    0.0000 C   0  0  0  0  0  0  0  0  0  0  0  0
    3.2601    1.8316    0.0000 C   0  0  0  0  0  0  0  0  0  0  0  0
    4.5691    0.8806    0.0000 C   0  0  0  0  0  0  0  0  0  0  0  0
    2.8940   -1.2072    0.0000 C   0  0  0  0  0  0  0  0  0  0  0  0
    2.8940   -2.2072    0.0000 C   0  0  0  0  0  0  0  0  0  0  0  0
    7.2144    0.9316    0.0000 C   0  0  0  0  0  0  0  0  0  0  0  0
    8.9086    1.2918    0.0000 C   0  0  0  0  0  0  0  0  0  0  0  0
    3.9721   -1.2898    0.0000 H   0  0  0  0  0  0  0  0  0  0  0  0
    4.3707   -0.5996    0.0000 H   0  0  0  0  0  0  0  0  0  0  0  0
    3.3249    2.4482    0.0000 H   0  0  0  0  0  0  0  0  0  0  0  0
    2.6536    1.9605    0.0000 H   0  0  0  0  0  0  0  0  0  0  0  0
    2.3571   -0.8972    0.0000 H   0  0  0  0  0  0  0  0  0  0  0  0
    6.1344    1.8471    0.0000 H   0  0  0  0  0  0  0  0  0  0  0  0
    2.3571   -2.5172    0.0000 H   0  0  0  0  0  0  0  0  0  0  0  0
    3.4310   -2.5172    0.0000 H   0  0  0  0  0  0  0  0  0  0  0  0
    7.8286    2.2072    0.0000 H   0  0  0  0  0  0  0  0  0  0  0  0
    8.7170    0.7021    0.0000 H   0  0  0  0  0  0  0  0  0  0  0  0
    9.4982    1.1002    0.0000 H   0  0  0  0  0  0  0  0  0  0  0  0
    9.1001    1.8814    0.0000 H   0  0  0  0  0  0  0  0  0  0  0  0
  1 10  1  0  0  0  0
  1 11  1  0  0  0  0
  2 14  2  0  0  0  0
  3  9  2  0  0  0  0
  4  8  1  0  0  0  0
  4  9  1  0  0  0  0
  4 11  1  0  0  0  0
  5  6  1  0  0  0  0
  5 11  2  0  0  0  0
  6 14  1  0  0  0  0
  6 21  1  0  0  0  0
  7 14  1  0  0  0  0
  7 15  1  0  0  0  0
  7 24  1  0  0  0  0
  8 12  1  0  0  0  0
  8 16  1  0  0  0  0
  8 17  1  0  0  0  0
  9 10  1  0  0  0  0
 10 18  1  0  0  0  0
 10 19  1  0  0  0  0
 12 13  2  0  0  0  0
 12 20  1  0  0  0  0
 13 22  1  0  0  0  0
 13 23  1  0  0  0  0
 15 25  1  0  0  0  0
 15 26  1  0  0  0  0
 15 27  1  0  0  0  0
M  END
> <PUBCHEM_COMPOUND_CID>
5487510

> <PUBCHEM_COMPOUND_CANONICALIZED>
1

> <PUBCHEM_CACTVS_COMPLEXITY>
316

> <PUBCHEM_CACTVS_HBOND_ACCEPTOR>
4

> <PUBCHEM_CACTVS_HBOND_DONOR>
2

> <PUBCHEM_CACTVS_ROTATABLE_BOND>
3

> <PUBCHEM_CACTVS_SUBSKEYS>
AAADccBzoABgAAAAAAAAAAAAAAAAAWAAAAAAAAAAAAAAAAAAAAAAHgQYAAAACADFwASDAAPiAAisACFSMACQAABAABkNAIAIAACAAAAACQAAAAAQBgCAAAAAAAAAAAAAAAAAAAAAAAAAAAAAAAAAAAAAAA==

> <PUBCHEM_IUPAC_OPENEYE_NAME>
1-[(Z)-(3-allyl-4-oxo-thiazolidin-2-ylidene)amino]-3-methyl-thiourea

> <PUBCHEM_IUPAC_CAS_NAME>
1-methyl-3-[(Z)-(4-oxo-3-prop-2-enyl-2-thiazolidinylidene)amino]thiourea

> <PUBCHEM_IUPAC_NAME>
1-methyl-3-[(Z)-(4-oxo-3-prop-2-enyl-1,3-thiazolidin-2-ylidene)amino]thiourea

> <PUBCHEM_IUPAC_SYSTEMATIC_NAME>
1-methyl-3-[(Z)-(4-oxidanylidene-3-prop-2-enyl-1,3-thiazolidin-2-ylidene)amino]thiourea

> <PUBCHEM_IUPAC_TRADITIONAL_NAME>
1-[(Z)-(3-allyl-4-keto-thiazolidin-2-ylidene)amino]-3-methyl-thiourea

> <PUBCHEM_IUPAC_INCHI>
InChI=1S/C8H12N4OS2/c1-3-4-12-6(13)5-15-8(12)11-10-7(14)9-2/h3H,1,4-5H2,2H3,(H2,9,10,14)/b11-8-

> <PUBCHEM_IUPAC_INCHIKEY>
DDYJDIHOSRTMSE-FLIBITNWSA-N

> <PUBCHEM_XLOGP3_AA>
1.1

> <PUBCHEM_EXACT_MASS>
244.045253

> <PUBCHEM_MOLECULAR_FORMULA>
C8H12N4OS2

> <PUBCHEM_MOLECULAR_WEIGHT>
244.33708

> <PUBCHEM_OPENEYE_CAN_SMILES>
CNC(=S)NN=C1N(C(=O)CS1)CC=C

> <PUBCHEM_OPENEYE_ISO_SMILES>
CNC(=S)N/N=C\1/N(C(=O)CS1)CC=C

> <PUBCHEM_CACTVS_TPSA>
114

> <PUBCHEM_MONOISOTOPIC_WEIGHT>
244.045253

> <PUBCHEM_TOTAL_CHARGE>
0

> <PUBCHEM_HEAVY_ATOM_COUNT>
15

> <PUBCHEM_ATOM_DEF_STEREO_COUNT>
0

> <PUBCHEM_ATOM_UDEF_STEREO_COUNT>
0

> <PUBCHEM_BOND_DEF_STEREO_COUNT>
1

> <PUBCHEM_BOND_UDEF_STEREO_COUNT>
0

> <PUBCHEM_ISOTOPIC_ATOM_COUNT>
0

> <PUBCHEM_COMPONENT_COUNT>
1

> <PUBCHEM_CACTVS_TAUTO_COUNT>
6

> <PUBCHEM_COORDINATE_TYPE>
1
5
255

$$$$

