442153
  -OEChem-07051212572D

 58 60  0     1  0  0  0  0  0999 V2000
    8.0622   -0.5746    0.0000 O   0  0  0  0  0  0  0  0  0  0  0  0
    3.7320    0.9254    0.0000 O   0  0  0  0  0  0  0  0  0  0  0  0
    8.0622   -3.5746    0.0000 O   0  0  0  0  0  0  0  0  0  0  0  0
    9.8106   -3.6092    0.0000 O   0  0  0  0  0  0  0  0  0  0  0  0
   11.5923   -0.5505    0.0000 O   0  0  0  0  0  0  0  0  0  0  0  0
    7.1962   -1.0746    0.0000 C   0  0  2  0  0  0  0  0  0  0  0  0
    6.3301   -0.5746    0.0000 C   0  0  0  0  0  0  0  0  0  0  0  0
    7.1962   -2.0746    0.0000 C   0  0  0  0  0  0  0  0  0  0  0  0
    6.3301    0.4254    0.0000 C   0  0  0  0  0  0  0  0  0  0  0  0
    5.4641   -1.0746    0.0000 C   0  0  0  0  0  0  0  0  0  0  0  0
    5.4641    0.9254    0.0000 C   0  0  0  0  0  0  0  0  0  0  0  0
    4.5981   -0.5746    0.0000 C   0  0  0  0  0  0  0  0  0  0  0  0
    8.0622   -2.5746    0.0000 C   0  0  0  0  0  0  0  0  0  0  0  0
    8.9282   -2.0746    0.0000 C   0  0  0  0  0  0  0  0  0  0  0  0
    8.9282   -1.0746    0.0000 C   0  0  0  0  0  0  0  0  0  0  0  0
    4.5981    0.4254    0.0000 C   0  0  0  0  0  0  0  0  0  0  0  0
    5.4641    1.9254    0.0000 C   0  0  0  0  0  0  0  0  0  0  0  0
    3.7320   -1.0746    0.0000 C   0  0  0  0  0  0  0  0  0  0  0  0
    9.8222   -2.6093    0.0000 C   0  0  0  0  0  0  0  0  0  0  0  0
    9.8222   -0.5399    0.0000 C   0  0  0  0  0  0  0  0  0  0  0  0
    6.3301    2.4254    0.0000 C   0  0  0  0  0  0  0  0  0  0  0  0
    3.7320   -2.0746    0.0000 C   0  0  0  0  0  0  0  0  0  0  0  0
   10.7282   -1.0538    0.0000 C   0  0  0  0  0  0  0  0  0  0  0  0
   10.7282   -2.0954    0.0000 C   0  0  0  0  0  0  0  0  0  0  0  0
    6.3301    3.4254    0.0000 C   0  0  0  0  0  0  0  0  0  0  0  0
    2.8660   -2.5746    0.0000 C   0  0  0  0  0  0  0  0  0  0  0  0
    7.1962    3.9254    0.0000 C   0  0  0  0  0  0  0  0  0  0  0  0
    5.4641    3.9254    0.0000 C   0  0  0  0  0  0  0  0  0  0  0  0
    2.8660   -3.5746    0.0000 C   0  0  0  0  0  0  0  0  0  0  0  0
    2.0000   -2.0746    0.0000 C   0  0  0  0  0  0  0  0  0  0  0  0
    6.6592   -1.3846    0.0000 H   0  0  0  0  0  0  0  0  0  0  0  0
    6.5856   -1.9670    0.0000 H   0  0  0  0  0  0  0  0  0  0  0  0
    6.9841   -2.6572    0.0000 H   0  0  0  0  0  0  0  0  0  0  0  0
    6.8671    0.7354    0.0000 H   0  0  0  0  0  0  0  0  0  0  0  0
    5.4641   -1.6946    0.0000 H   0  0  0  0  0  0  0  0  0  0  0  0
    5.2520    2.5080    0.0000 H   0  0  0  0  0  0  0  0  0  0  0  0
    4.8535    1.8177    0.0000 H   0  0  0  0  0  0  0  0  0  0  0  0
    3.5200   -0.4920    0.0000 H   0  0  0  0  0  0  0  0  0  0  0  0
    3.1215   -1.1823    0.0000 H   0  0  0  0  0  0  0  0  0  0  0  0
    9.8150    0.0800    0.0000 H   0  0  0  0  0  0  0  0  0  0  0  0
    6.8671    2.1154    0.0000 H   0  0  0  0  0  0  0  0  0  0  0  0
    4.2690   -2.3846    0.0000 H   0  0  0  0  0  0  0  0  0  0  0  0
   11.2639   -2.4075    0.0000 H   0  0  0  0  0  0  0  0  0  0  0  0
    3.1951    0.6154    0.0000 H   0  0  0  0  0  0  0  0  0  0  0  0
   10.3439   -3.9254    0.0000 H   0  0  0  0  0  0  0  0  0  0  0  0
    5.7741    4.4623    0.0000 H   0  0  0  0  0  0  0  0  0  0  0  0
    4.9272    4.2354    0.0000 H   0  0  0  0  0  0  0  0  0  0  0  0
    5.1541    3.3885    0.0000 H   0  0  0  0  0  0  0  0  0  0  0  0
    7.5062    3.3885    0.0000 H   0  0  0  0  0  0  0  0  0  0  0  0
    7.7331    4.2354    0.0000 H   0  0  0  0  0  0  0  0  0  0  0  0
    6.8862    4.4623    0.0000 H   0  0  0  0  0  0  0  0  0  0  0  0
    2.2460   -3.5746    0.0000 H   0  0  0  0  0  0  0  0  0  0  0  0
    2.8660   -4.1946    0.0000 H   0  0  0  0  0  0  0  0  0  0  0  0
    2.3100   -1.5377    0.0000 H   0  0  0  0  0  0  0  0  0  0  0  0
    1.4631   -1.7646    0.0000 H   0  0  0  0  0  0  0  0  0  0  0  0
    1.6900   -2.6115    0.0000 H   0  0  0  0  0  0  0  0  0  0  0  0
    3.4860   -3.5746    0.0000 H   0  0  0  0  0  0  0  0  0  0  0  0
   12.1304   -0.8584    0.0000 H   0  0  0  0  0  0  0  0  0  0  0  0
  1  6  1  0  0  0  0
  1 15  1  0  0  0  0
  2 16  1  0  0  0  0
  2 44  1  0  0  0  0
  3 13  2  0  0  0  0
  4 19  1  0  0  0  0
  4 45  1  0  0  0  0
  5 23  1  0  0  0  0
  5 58  1  0  0  0  0
  6  7  1  1  0  0  0
  6  8  1  0  0  0  0
  6 31  1  0  0  0  0
  7  9  2  0  0  0  0
  7 10  1  0  0  0  0
  8 13  1  0  0  0  0
  8 32  1  0  0  0  0
  8 33  1  0  0  0  0
  9 11  1  0  0  0  0
  9 34  1  0  0  0  0
 10 12  2  0  0  0  0
 10 35  1  0  0  0  0
 11 16  2  0  0  0  0
 11 17  1  0  0  0  0
 12 16  1  0  0  0  0
 12 18  1  0  0  0  0
 13 14  1  0  0  0  0
 14 15  1  0  0  0  0
 14 19  2  0  0  0  0
 15 20  2  0  0  0  0
 17 21  1  0  0  0  0
 17 36  1  0  0  0  0
 17 37  1  0  0  0  0
 18 22  1  0  0  0  0
 18 38  1  0  0  0  0
 18 39  1  0  0  0  0
 19 24  1  0  0  0  0
 20 23  1  0  0  0  0
 20 40  1  0  0  0  0
 21 25  2  0  0  0  0
 21 41  1  0  0  0  0
 22 26  2  0  0  0  0
 22 42  1  0  0  0  0
 23 24  2  0  0  0  0
 24 43  1  0  0  0  0
 25 27  1  0  0  0  0
 25 28  1  0  0  0  0
 26 29  1  0  0  0  0
 26 30  1  0  0  0  0
 27 49  1  0  0  0  0
 27 50  1  0  0  0  0
 27 51  1  0  0  0  0
 28 46  1  0  0  0  0
 28 47  1  0  0  0  0
 28 48  1  0  0  0  0
 29 52  1  0  0  0  0
 29 53  1  0  0  0  0
 29 57  1  0  0  0  0
 30 54  1  0  0  0  0
 30 55  1  0  0  0  0
 30 56  1  0  0  0  0
M  END
> <PUBCHEM_COMPOUND_CID>
442153

> <PUBCHEM_COMPOUND_CANONICALIZED>
1

> <PUBCHEM_CACTVS_COMPLEXITY>
631

> <PUBCHEM_CACTVS_HBOND_ACCEPTOR>
5

> <PUBCHEM_CACTVS_HBOND_DONOR>
3

> <PUBCHEM_CACTVS_ROTATABLE_BOND>
5

> <PUBCHEM_CACTVS_SUBSKEYS>
AAADceB4OAAAAAAAAAAAAAAAAAAAAAAAAAA0YIAAAAAAAACRQAAAGgAACAAADBSgmAIyBoAABgCIAqBSAAACCAAkIAAAiAEGCMgMJzaGNRqCeWCl4BUIuQeI7OzOIAACCAAIAABAAAQQABAAAAAAAAAAAA==

> <PUBCHEM_IUPAC_OPENEYE_NAME>
(2S)-5,7-dihydroxy-2-[4-hydroxy-3,5-bis(3-methylbut-2-enyl)phenyl]chroman-4-one

> <PUBCHEM_IUPAC_CAS_NAME>
(2S)-5,7-dihydroxy-2-[4-hydroxy-3,5-bis(3-methylbut-2-enyl)phenyl]-3,4-dihydro-2H-1-benzopyran-4-one

> <PUBCHEM_IUPAC_NAME>
(2S)-5,7-dihydroxy-2-[4-hydroxy-3,5-bis(3-methylbut-2-enyl)phenyl]-2,3-dihydrochromen-4-one

> <PUBCHEM_IUPAC_SYSTEMATIC_NAME>
(2S)-2-[3,5-bis(3-methylbut-2-enyl)-4-oxidanyl-phenyl]-5,7-bis(oxidanyl)-2,3-dihydrochromen-4-one

> <PUBCHEM_IUPAC_TRADITIONAL_NAME>
(2S)-5,7-dihydroxy-2-[4-hydroxy-3,5-bis(3-methylbut-2-enyl)phenyl]chroman-4-one

> <PUBCHEM_IUPAC_INCHI>
InChI=1S/C25H28O5/c1-14(2)5-7-16-9-18(10-17(25(16)29)8-6-15(3)4)22-13-21(28)24-20(27)11-19(26)12-23(24)30-22/h5-6,9-12,22,26-27,29H,7-8,13H2,1-4H3/t22-/m0/s1

> <PUBCHEM_IUPAC_INCHIKEY>
LQHKFMYWTKORCE-QFIPXVFZSA-N

> <PUBCHEM_XLOGP3_AA>
6.2

> <PUBCHEM_EXACT_MASS>
408.193674

> <PUBCHEM_MOLECULAR_FORMULA>
C25H28O5

> <PUBCHEM_MOLECULAR_WEIGHT>
408.48682

> <PUBCHEM_OPENEYE_CAN_SMILES>
CC(=CCC1=CC(=CC(=C1O)CC=C(C)C)C2CC(=O)C3=C(C=C(C=C3O2)O)O)C

> <PUBCHEM_OPENEYE_ISO_SMILES>
CC(=CCC1=CC(=CC(=C1O)CC=C(C)C)[C@@H]2CC(=O)C3=C(C=C(C=C3O2)O)O)C

> <PUBCHEM_CACTVS_TPSA>
87

> <PUBCHEM_MONOISOTOPIC_WEIGHT>
408.193674

> <PUBCHEM_TOTAL_CHARGE>
0

> <PUBCHEM_HEAVY_ATOM_COUNT>
30

> <PUBCHEM_ATOM_DEF_STEREO_COUNT>
1

> <PUBCHEM_ATOM_UDEF_STEREO_COUNT>
0

> <PUBCHEM_BOND_DEF_STEREO_COUNT>
0

> <PUBCHEM_BOND_UDEF_STEREO_COUNT>
0

> <PUBCHEM_ISOTOPIC_ATOM_COUNT>
0

> <PUBCHEM_COMPONENT_COUNT>
1

> <PUBCHEM_CACTVS_TAUTO_COUNT>
42

> <PUBCHEM_COORDINATE_TYPE>
1
5
255

> <PUBCHEM_BONDANNOTATIONS>
10  12  8
11  16  8
12  16  8
14  15  8
14  19  8
15  20  8
19  24  8
20  23  8
23  24  8
6  7  5
7  10  8
7  9  8
9  11  8

$$$$

