   Color/Form

     * Colorless crystals
     * Solid at room temperature but sublimes directly to a gas.

   from [1]HSDB

   Odor
        Horseradish-like odor
   from [2]HSDB

   Boiling Point
        119 deg C
   from [3]HSDB

   Melting Point
        36 deg C
   from [4]HSDB

   Corrosivity
        Corrosive to iron, zinc and other metals
   from [5]HSDB

   Density/Specific Gravity
        1.0691 @ 37 deg C/4 deg C
   from [6]HSDB

   Octanol/Water Partition Coefficient
        log Kow= 0.94
   from [7]HSDB

   Solubilities

     * Readily soluble in common organic solvents, such as ethanol,
       methanol, acetone, cyclohexanone, dichloromethane, chloroform,
       carbon tetrachloride, benzene, xylene, petroleum ether, and mineral
       oils.
     * Very soluble in ethyl ether
     * In water, 7,600 mg/l @ 25 deg C

   from [8]HSDB

   Spectral Properties

     * Index of refraction: 1.5258 for 37 deg C and sodium light
     * IR: 3767 (Coblentz Society Spectral Collection)
     * MASS: 75 (Atlas of Mass Spectral Data, John Wiley & Sons, New
       York); 19159 (NIST/EPA/MSDC Mass Spectral Database, 1990 Version)

   from [9]HSDB

   Vapor Density
        2.53 (Air=1)
   from [10]HSDB

   Vapor Pressure
        3.54 mm Hg @ 25 deg C
   from [11]HSDB

   Other Chemical/Physical Properties

     * Saturated concentration: 75.6 g/cu m @ 20 deg C; 115 g/cu m @ 30
       deg C
     * Unstable and reactive. Rapidly hydrolyzed by alkalis, more slowly
       in acidic and neutral solutions. ... Sensitive to oxygen and light.
     * MP: 25.3-27.6 deg C; Density: 1.0537 @ 40 deg C /Technical grade/

   from [12]HSDB

   Computed Properties
   Molecular Weight                  73.11692 [g/mol]
   Molecular Formula                 C[2]H[3]NS
   XLogP3                            0.9
   H-Bond Donor                      0
   H-Bond Acceptor                   2
   Rotatable Bond Count              0
   Exact Mass                        72.99862
   MonoIsotopic Mass                 72.99862
   Topological Polar Surface Area    44.4
   Heavy Atom Count                  4
   Formal Charge                     0
   Complexity                        44
   Isotope Atom Count                0
   Defined Atom Stereocenter Count   0
   Undefined Atom Stereocenter Count 0
   Defined Bond Stereocenter Count   0
   Undefined Bond Stereocenter Count 0
   Covalently-Bonded Unit Count      1
   Feature 3D Acceptor Count         2
   Effective Rotor Count             0
   Conformer Sampling RMSD           0.4
   CID Conformer Count               [13]1

References

   1. http://toxnet.nlm.nih.gov/cgi-bin/sis/search/r?dbs+hsdb:@term+@rn+@rel+556-61-6
   2. http://toxnet.nlm.nih.gov/cgi-bin/sis/search/r?dbs+hsdb:@term+@rn+@rel+556-61-6
   3. http://toxnet.nlm.nih.gov/cgi-bin/sis/search/r?dbs+hsdb:@term+@rn+@rel+556-61-6
   4. http://toxnet.nlm.nih.gov/cgi-bin/sis/search/r?dbs+hsdb:@term+@rn+@rel+556-61-6
   5. http://toxnet.nlm.nih.gov/cgi-bin/sis/search/r?dbs+hsdb:@term+@rn+@rel+556-61-6
   6. http://toxnet.nlm.nih.gov/cgi-bin/sis/search/r?dbs+hsdb:@term+@rn+@rel+556-61-6
   7. http://toxnet.nlm.nih.gov/cgi-bin/sis/search/r?dbs+hsdb:@term+@rn+@rel+556-61-6
   8. http://toxnet.nlm.nih.gov/cgi-bin/sis/search/r?dbs+hsdb:@term+@rn+@rel+556-61-6
   9. http://toxnet.nlm.nih.gov/cgi-bin/sis/search/r?dbs+hsdb:@term+@rn+@rel+556-61-6
  10. http://toxnet.nlm.nih.gov/cgi-bin/sis/search/r?dbs+hsdb:@term+@rn+@rel+556-61-6
  11. http://toxnet.nlm.nih.gov/cgi-bin/sis/search/r?dbs+hsdb:@term+@rn+@rel+556-61-6
  12. http://toxnet.nlm.nih.gov/cgi-bin/sis/search/r?dbs+hsdb:@term+@rn+@rel+556-61-6
  13. http://pubchem.ncbi.nlm.nih.gov/vw3d/vw3d.cgi?cid=11167
