5281271
  -OEChem-07051212552D

 71 73  0     1  0  0  0  0  0999 V2000
    5.7398   -4.1260    0.0000 O   0  0  0  0  0  0  0  0  0  0  0  0
    7.4719   -3.1260    0.0000 O   0  0  0  0  0  0  0  0  0  0  0  0
    2.4900   -4.0440    0.0000 O   0  0  0  0  0  0  0  0  0  0  0  0
    3.9999   -4.8926    0.0000 O   0  0  0  0  0  0  0  0  0  0  0  0
    9.2636    1.9158    0.0000 O   0  0  0  0  0  0  0  0  0  0  0  0
    7.5316    1.9224    0.0000 O   0  0  0  0  0  0  0  0  0  0  0  0
   10.1393    4.4124    0.0000 N   0  0  0  0  0  0  0  0  0  0  0  0
    4.8738   -1.6260    0.0000 C   0  0  1  0  0  0  0  0  0  0  0  0
    4.8738   -2.6260    0.0000 C   0  0  2  0  0  0  0  0  0  0  0  0
    5.7398   -1.1260    0.0000 C   0  0  2  0  0  0  0  0  0  0  0  0
    6.6058   -1.6260    0.0000 C   0  0  2  0  0  0  0  0  0  0  0  0
    3.9798   -3.1607    0.0000 C   0  0  1  0  0  0  0  0  0  0  0  0
    3.9798   -1.0913    0.0000 C   0  0  0  0  0  0  0  0  0  0  0  0
    5.7398   -3.1260    0.0000 C   0  0  2  0  0  0  0  0  0  0  0  0
    5.7238   -0.0845    0.0000 C   0  0  0  0  0  0  0  0  0  0  0  0
    3.0738   -2.6468    0.0000 C   0  0  0  0  0  0  0  0  0  0  0  0
    3.0738   -1.6052    0.0000 C   0  0  0  0  0  0  0  0  0  0  0  0
    7.5158   -1.1192    0.0000 C   0  0  2  0  0  0  0  0  0  0  0  0
    6.6058   -2.6260    0.0000 C   0  0  0  0  0  0  0  0  0  0  0  0
    4.8738   -0.6260    0.0000 C   0  0  0  0  0  0  0  0  0  0  0  0
    6.6218    0.4433    0.0000 C   0  0  0  0  0  0  0  0  0  0  0  0
    4.4898   -4.0208    0.0000 C   0  0  0  0  0  0  0  0  0  0  0  0
    7.5239   -0.0776    0.0000 C   0  0  0  0  0  0  0  0  0  0  0  0
    3.4899   -4.0324    0.0000 C   0  0  0  0  0  0  0  0  0  0  0  0
    8.3760   -1.6291    0.0000 C   0  0  0  0  0  0  0  0  0  0  0  0
    8.3918    0.4191    0.0000 C   0  0  0  0  0  0  0  0  0  0  0  0
    8.3957    1.4191    0.0000 C   0  0  0  0  0  0  0  0  0  0  0  0
    2.0000   -4.9157    0.0000 C   0  0  0  0  0  0  0  0  0  0  0  0
    9.2675    2.9157    0.0000 C   0  0  0  0  0  0  0  0  0  0  0  0
   10.1354    3.4124    0.0000 C   0  0  0  0  0  0  0  0  0  0  0  0
   11.0072    4.9090    0.0000 C   0  0  0  0  0  0  0  0  0  0  0  0
    9.2752    4.9157    0.0000 C   0  0  0  0  0  0  0  0  0  0  0  0
    4.8803   -3.4760    0.0000 H   0  0  0  0  0  0  0  0  0  0  0  0
    6.4726   -0.6953    0.0000 H   0  0  0  0  0  0  0  0  0  0  0  0
    7.3386   -2.0567    0.0000 H   0  0  0  0  0  0  0  0  0  0  0  0
    4.3844   -0.6216    0.0000 H   0  0  0  0  0  0  0  0  0  0  0  0
    3.5862   -0.6123    0.0000 H   0  0  0  0  0  0  0  0  0  0  0  0
    6.2767   -3.4360    0.0000 H   0  0  0  0  0  0  0  0  0  0  0  0
    5.5057    0.4959    0.0000 H   0  0  0  0  0  0  0  0  0  0  0  0
    5.1146   -0.2000    0.0000 H   0  0  0  0  0  0  0  0  0  0  0  0
    2.4629   -2.5407    0.0000 H   0  0  0  0  0  0  0  0  0  0  0  0
    2.8647   -3.2305    0.0000 H   0  0  0  0  0  0  0  0  0  0  0  0
    2.8647   -1.0215    0.0000 H   0  0  0  0  0  0  0  0  0  0  0  0
    2.4629   -1.7113    0.0000 H   0  0  0  0  0  0  0  0  0  0  0  0
    8.0557   -0.8143    0.0000 H   0  0  0  0  0  0  0  0  0  0  0  0
    5.4938   -0.6260    0.0000 H   0  0  0  0  0  0  0  0  0  0  0  0
    4.8738   -0.0060    0.0000 H   0  0  0  0  0  0  0  0  0  0  0  0
    4.2538   -0.6260    0.0000 H   0  0  0  0  0  0  0  0  0  0  0  0
    7.0191    0.9192    0.0000 H   0  0  0  0  0  0  0  0  0  0  0  0
    6.2208    0.9161    0.0000 H   0  0  0  0  0  0  0  0  0  0  0  0
    3.9565   -4.3370    0.0000 H   0  0  0  0  0  0  0  0  0  0  0  0
    4.8060   -4.5542    0.0000 H   0  0  0  0  0  0  0  0  0  0  0  0
    5.0231   -3.7047    0.0000 H   0  0  0  0  0  0  0  0  0  0  0  0
    8.0598   -2.1625    0.0000 H   0  0  0  0  0  0  0  0  0  0  0  0
    8.9093   -1.9453    0.0000 H   0  0  0  0  0  0  0  0  0  0  0  0
    8.6922   -1.0958    0.0000 H   0  0  0  0  0  0  0  0  0  0  0  0
    6.2767   -4.4360    0.0000 H   0  0  0  0  0  0  0  0  0  0  0  0
    8.9275    0.1070    0.0000 H   0  0  0  0  0  0  0  0  0  0  0  0
    1.4595   -4.6120    0.0000 H   0  0  0  0  0  0  0  0  0  0  0  0
    1.6962   -5.4562    0.0000 H   0  0  0  0  0  0  0  0  0  0  0  0
    2.5405   -5.2195    0.0000 H   0  0  0  0  0  0  0  0  0  0  0  0
    9.0577    3.4992    0.0000 H   0  0  0  0  0  0  0  0  0  0  0  0
    8.6565    2.8104    0.0000 H   0  0  0  0  0  0  0  0  0  0  0  0
   10.3452    2.8290    0.0000 H   0  0  0  0  0  0  0  0  0  0  0  0
   10.7464    3.5177    0.0000 H   0  0  0  0  0  0  0  0  0  0  0  0
   11.3151    4.3709    0.0000 H   0  0  0  0  0  0  0  0  0  0  0  0
   11.5453    5.2170    0.0000 H   0  0  0  0  0  0  0  0  0  0  0  0
   10.6993    5.4472    0.0000 H   0  0  0  0  0  0  0  0  0  0  0  0
    9.5872    5.4515    0.0000 H   0  0  0  0  0  0  0  0  0  0  0  0
    8.7394    5.2278    0.0000 H   0  0  0  0  0  0  0  0  0  0  0  0
    8.9631    4.3800    0.0000 H   0  0  0  0  0  0  0  0  0  0  0  0
 14  1  1  6  0  0  0
  1 57  1  0  0  0  0
  2 19  2  0  0  0  0
  3 24  1  0  0  0  0
  3 28  1  0  0  0  0
  4 24  2  0  0  0  0
  5 27  1  0  0  0  0
  5 29  1  0  0  0  0
  6 27  2  0  0  0  0
  7 30  1  0  0  0  0
  7 31  1  0  0  0  0
  7 32  1  0  0  0  0
  8  9  1  0  0  0  0
  8 10  1  0  0  0  0
  8 13  1  0  0  0  0
  8 20  1  1  0  0  0
  9 12  1  0  0  0  0
  9 14  1  0  0  0  0
  9 33  1  6  0  0  0
 10 11  1  0  0  0  0
 10 15  1  0  0  0  0
 10 34  1  6  0  0  0
 11 18  1  0  0  0  0
 11 19  1  0  0  0  0
 11 35  1  1  0  0  0
 12 16  1  0  0  0  0
 12 22  1  6  0  0  0
 12 24  1  0  0  0  0
 13 17  1  0  0  0  0
 13 36  1  0  0  0  0
 13 37  1  0  0  0  0
 14 19  1  0  0  0  0
 14 38  1  0  0  0  0
 15 21  1  0  0  0  0
 15 39  1  0  0  0  0
 15 40  1  0  0  0  0
 16 17  1  0  0  0  0
 16 41  1  0  0  0  0
 16 42  1  0  0  0  0
 17 43  1  0  0  0  0
 17 44  1  0  0  0  0
 18 23  1  0  0  0  0
 18 25  1  6  0  0  0
 18 45  1  0  0  0  0
 20 46  1  0  0  0  0
 20 47  1  0  0  0  0
 20 48  1  0  0  0  0
 21 23  1  0  0  0  0
 21 49  1  0  0  0  0
 21 50  1  0  0  0  0
 22 51  1  0  0  0  0
 22 52  1  0  0  0  0
 22 53  1  0  0  0  0
 23 26  2  0  0  0  0
 25 54  1  0  0  0  0
 25 55  1  0  0  0  0
 25 56  1  0  0  0  0
 26 27  1  0  0  0  0
 26 58  1  0  0  0  0
 28 59  1  0  0  0  0
 28 60  1  0  0  0  0
 28 61  1  0  0  0  0
 29 30  1  0  0  0  0
 29 62  1  0  0  0  0
 29 63  1  0  0  0  0
 30 64  1  0  0  0  0
 30 65  1  0  0  0  0
 31 66  1  0  0  0  0
 31 67  1  0  0  0  0
 31 68  1  0  0  0  0
 32 69  1  0  0  0  0
 32 70  1  0  0  0  0
 32 71  1  0  0  0  0
M  END
> <PUBCHEM_COMPOUND_CID>
5281271

> <PUBCHEM_COMPOUND_CANONICALIZED>
1

> <PUBCHEM_CACTVS_COMPLEXITY>
791

> <PUBCHEM_CACTVS_HBOND_ACCEPTOR>
7

> <PUBCHEM_CACTVS_HBOND_DONOR>
1

> <PUBCHEM_CACTVS_ROTATABLE_BOND>
7

> <PUBCHEM_CACTVS_SUBSKEYS>
AAADcfB6OAAAAAAAAAAAAAAAAAAAAAAAAAAwYMAAAAAAAADAAAAAHgAACAAADxThgAYCCAMABgCIAqDSCAIAAAAgAAAACAFIAEgCFBIAIQADUAAEgAAYIQPKzvCvgAAAAAAAAADAAAYAADAAAAAAAAAAAA==

> <PUBCHEM_IUPAC_OPENEYE_NAME>
methyl (1S,4aR,4bS,7E,8R,8aS,10R,10aR)-7-[2-[2-(dimethylamino)ethoxy]-2-oxo-ethylidene]-10-hydroxy-1,4a,8-trimethyl-9-oxo-2,3,4,4b,5,6,8,8a,10,10a-decahydrophenanthrene-1-carboxylate

> <PUBCHEM_IUPAC_CAS_NAME>
(1S,4aR,4bS,7E,8R,8aS,10R,10aR)-7-[2-[2-(dimethylamino)ethoxy]-2-oxoethylidene]-10-hydroxy-1,4a,8-trimethyl-9-oxo-2,3,4,4b,5,6,8,8a,10,10a-decahydrophenanthrene-1-carboxylic acid methyl ester

> <PUBCHEM_IUPAC_NAME>
methyl (1S,4aR,4bS,7E,8R,8aS,10R,10aR)-7-[2-[2-(dimethylamino)ethoxy]-2-oxoethylidene]-10-hydroxy-1,4a,8-trimethyl-9-oxo-2,3,4,4b,5,6,8,8a,10,10a-decahydrophenanthrene-1-carboxylate

> <PUBCHEM_IUPAC_SYSTEMATIC_NAME>
methyl (1S,4aR,4bS,7E,8R,8aS,10R,10aR)-7-[2-[2-(dimethylamino)ethoxy]-2-oxidanylidene-ethylidene]-1,4a,8-trimethyl-10-oxidanyl-9-oxidanylidene-2,3,4,4b,5,6,8,8a,10,10a-decahydrophenanthrene-1-carboxylate

> <PUBCHEM_IUPAC_TRADITIONAL_NAME>
(1S,4aR,4bS,7E,8R,8aS,10R,10aR)-7-[2-[2-(dimethylamino)ethoxy]-2-keto-ethylidene]-10-hydroxy-9-keto-1,4a,8-trimethyl-2,3,4,4b,5,6,8,8a,10,10a-decahydrophenanthrene-1-carboxylic acid methyl ester

> <PUBCHEM_IUPAC_INCHI>
InChI=1S/C25H39NO6/c1-15-16(14-18(27)32-13-12-26(4)5)8-9-17-19(15)20(28)21(29)22-24(17,2)10-7-11-25(22,3)23(30)31-6/h14-15,17,19,21-22,29H,7-13H2,1-6H3/b16-14+/t15-,17-,19-,21-,22+,24+,25-/m0/s1

> <PUBCHEM_IUPAC_INCHIKEY>
DFDLSTQZQLKKOB-KQYSUTHUSA-N

> <PUBCHEM_XLOGP3_AA>
2.9

> <PUBCHEM_EXACT_MASS>
449.277738

> <PUBCHEM_MOLECULAR_FORMULA>
C25H39NO6

> <PUBCHEM_MOLECULAR_WEIGHT>
449.58026

> <PUBCHEM_OPENEYE_CAN_SMILES>
CC1C2C(CCC1=CC(=O)OCCN(C)C)C3(CCCC(C3C(C2=O)O)(C)C(=O)OC)C

> <PUBCHEM_OPENEYE_ISO_SMILES>
C[C@@H]\1[C@H]2[C@H](CC/C1=C\C(=O)OCCN(C)C)[C@]3(CCC[C@]([C@@H]3[C@H](C2=O)O)(C)C(=O)OC)C

> <PUBCHEM_CACTVS_TPSA>
93.1

> <PUBCHEM_MONOISOTOPIC_WEIGHT>
449.277738

> <PUBCHEM_TOTAL_CHARGE>
0

> <PUBCHEM_HEAVY_ATOM_COUNT>
32

> <PUBCHEM_ATOM_DEF_STEREO_COUNT>
7

> <PUBCHEM_ATOM_UDEF_STEREO_COUNT>
0

> <PUBCHEM_BOND_DEF_STEREO_COUNT>
1

> <PUBCHEM_BOND_UDEF_STEREO_COUNT>
0

> <PUBCHEM_ISOTOPIC_ATOM_COUNT>
0

> <PUBCHEM_COMPONENT_COUNT>
1

> <PUBCHEM_CACTVS_TAUTO_COUNT>
5

> <PUBCHEM_COORDINATE_TYPE>
1
5
255

> <PUBCHEM_BONDANNOTATIONS>
14  1  6
10  34  6
11  35  5
12  22  6
18  25  6
8  20  5
9  33  6

$$$$

