4716
  -OEChem-06261200182D

 84 83  0     1  0  0  0  0  0999 V2000
    7.7331   -1.3450    0.0000 O   0  0  0  0  0  0  0  0  0  0  0  0
   29.3837    0.1550    0.0000 O   0  0  0  0  0  0  0  0  0  0  0  0
    2.5369    1.6550    0.0000 O   0  0  0  0  0  0  0  0  0  0  0  0
   12.9292   -0.3450    0.0000 C   0  0  0  0  0  0  0  0  0  0  0  0
   12.0632    0.1550    0.0000 C   0  0  0  0  0  0  0  0  0  0  0  0
   13.7953    0.1550    0.0000 C   0  0  0  0  0  0  0  0  0  0  0  0
   11.1972   -0.3450    0.0000 C   0  0  0  0  0  0  0  0  0  0  0  0
   14.6613   -0.3450    0.0000 C   0  0  0  0  0  0  0  0  0  0  0  0
   10.3312    0.1550    0.0000 C   0  0  0  0  0  0  0  0  0  0  0  0
   15.5273    0.1550    0.0000 C   0  0  0  0  0  0  0  0  0  0  0  0
    9.4651   -0.3450    0.0000 C   0  0  0  0  0  0  0  0  0  0  0  0
   16.3933   -0.3450    0.0000 C   0  0  0  0  0  0  0  0  0  0  0  0
    8.5991    0.1550    0.0000 C   0  0  0  0  0  0  0  0  0  0  0  0
   17.2594    0.1550    0.0000 C   0  0  0  0  0  0  0  0  0  0  0  0
   24.1876   -0.8450    0.0000 C   0  0  0  0  0  0  0  0  0  0  0  0
    7.7331   -0.3450    0.0000 C   0  0  3  0  0  0  0  0  0  0  0  0
   25.0536   -1.3450    0.0000 C   0  0  0  0  0  0  0  0  0  0  0  0
   23.3215   -1.3450    0.0000 C   0  0  0  0  0  0  0  0  0  0  0  0
   25.9196   -0.8450    0.0000 C   0  0  0  0  0  0  0  0  0  0  0  0
   22.4555   -0.8450    0.0000 C   0  0  0  0  0  0  0  0  0  0  0  0
   18.1254   -0.3450    0.0000 C   0  0  0  0  0  0  0  0  0  0  0  0
   26.7856   -1.3450    0.0000 C   0  0  0  0  0  0  0  0  0  0  0  0
   21.5895   -1.3450    0.0000 C   0  0  0  0  0  0  0  0  0  0  0  0
    6.8671    0.1550    0.0000 C   0  0  0  0  0  0  0  0  0  0  0  0
   18.9914    0.1550    0.0000 C   0  0  0  0  0  0  0  0  0  0  0  0
   27.6517   -0.8450    0.0000 C   0  0  0  0  0  0  0  0  0  0  0  0
   20.7235   -0.8450    0.0000 C   0  0  0  0  0  0  0  0  0  0  0  0
   19.8574   -0.3450    0.0000 C   0  0  0  0  0  0  0  0  0  0  0  0
   28.5177   -1.3450    0.0000 C   0  0  0  0  0  0  0  0  0  0  0  0
    6.0010    0.6550    0.0000 C   0  0  0  0  0  0  0  0  0  0  0  0
   29.3837   -0.8450    0.0000 C   0  0  3  0  0  0  0  0  0  0  0  0
    5.1350    1.1550    0.0000 C   0  0  0  0  0  0  0  0  0  0  0  0
   30.2497   -1.3450    0.0000 C   0  0  0  0  0  0  0  0  0  0  0  0
    4.2690    1.6550    0.0000 C   0  0  0  0  0  0  0  0  0  0  0  0
   31.1158   -1.8450    0.0000 C   0  0  0  0  0  0  0  0  0  0  0  0
    3.4030    2.1550    0.0000 C   0  0  0  0  0  0  0  0  0  0  0  0
   12.5307   -0.8199    0.0000 H   0  0  0  0  0  0  0  0  0  0  0  0
   13.3278   -0.8199    0.0000 H   0  0  0  0  0  0  0  0  0  0  0  0
   12.4617    0.6299    0.0000 H   0  0  0  0  0  0  0  0  0  0  0  0
   11.6647    0.6299    0.0000 H   0  0  0  0  0  0  0  0  0  0  0  0
   14.1938    0.6299    0.0000 H   0  0  0  0  0  0  0  0  0  0  0  0
   13.3967    0.6299    0.0000 H   0  0  0  0  0  0  0  0  0  0  0  0
   10.7987   -0.8199    0.0000 H   0  0  0  0  0  0  0  0  0  0  0  0
   11.5957   -0.8199    0.0000 H   0  0  0  0  0  0  0  0  0  0  0  0
   14.2628   -0.8199    0.0000 H   0  0  0  0  0  0  0  0  0  0  0  0
   15.0598   -0.8199    0.0000 H   0  0  0  0  0  0  0  0  0  0  0  0
   10.7297    0.6299    0.0000 H   0  0  0  0  0  0  0  0  0  0  0  0
    9.9326    0.6299    0.0000 H   0  0  0  0  0  0  0  0  0  0  0  0
   15.9258    0.6299    0.0000 H   0  0  0  0  0  0  0  0  0  0  0  0
   15.1288    0.6299    0.0000 H   0  0  0  0  0  0  0  0  0  0  0  0
    9.0666   -0.8199    0.0000 H   0  0  0  0  0  0  0  0  0  0  0  0
    9.8637   -0.8199    0.0000 H   0  0  0  0  0  0  0  0  0  0  0  0
   15.9948   -0.8199    0.0000 H   0  0  0  0  0  0  0  0  0  0  0  0
   16.7919   -0.8199    0.0000 H   0  0  0  0  0  0  0  0  0  0  0  0
    8.9976    0.6299    0.0000 H   0  0  0  0  0  0  0  0  0  0  0  0
    8.2006    0.6299    0.0000 H   0  0  0  0  0  0  0  0  0  0  0  0
   17.6579    0.6299    0.0000 H   0  0  0  0  0  0  0  0  0  0  0  0
   16.8608    0.6299    0.0000 H   0  0  0  0  0  0  0  0  0  0  0  0
   24.5861   -0.3701    0.0000 H   0  0  0  0  0  0  0  0  0  0  0  0
   23.7890   -0.3701    0.0000 H   0  0  0  0  0  0  0  0  0  0  0  0
   24.6551   -1.8200    0.0000 H   0  0  0  0  0  0  0  0  0  0  0  0
   25.4521   -1.8200    0.0000 H   0  0  0  0  0  0  0  0  0  0  0  0
    8.4692   -0.7700    0.0000 H   0  0  0  0  0  0  0  0  0  0  0  0
   22.9230   -1.8200    0.0000 H   0  0  0  0  0  0  0  0  0  0  0  0
   23.7201   -1.8200    0.0000 H   0  0  0  0  0  0  0  0  0  0  0  0
   26.3182   -0.3701    0.0000 H   0  0  0  0  0  0  0  0  0  0  0  0
   25.5211   -0.3701    0.0000 H   0  0  0  0  0  0  0  0  0  0  0  0
   22.8540   -0.3701    0.0000 H   0  0  0  0  0  0  0  0  0  0  0  0
   22.0570   -0.3701    0.0000 H   0  0  0  0  0  0  0  0  0  0  0  0
   26.3871   -1.8200    0.0000 H   0  0  0  0  0  0  0  0  0  0  0  0
   27.1842   -1.8200    0.0000 H   0  0  0  0  0  0  0  0  0  0  0  0
   18.1254   -0.9650    0.0000 H   0  0  0  0  0  0  0  0  0  0  0  0
   21.1910   -1.8200    0.0000 H   0  0  0  0  0  0  0  0  0  0  0  0
   21.9880   -1.8200    0.0000 H   0  0  0  0  0  0  0  0  0  0  0  0
    7.1962   -1.6550    0.0000 H   0  0  0  0  0  0  0  0  0  0  0  0
   27.6517   -0.2250    0.0000 H   0  0  0  0  0  0  0  0  0  0  0  0
   18.9914    0.7750    0.0000 H   0  0  0  0  0  0  0  0  0  0  0  0
   28.5177   -1.9650    0.0000 H   0  0  0  0  0  0  0  0  0  0  0  0
   30.1198   -0.4200    0.0000 H   0  0  0  0  0  0  0  0  0  0  0  0
   29.9207    0.4650    0.0000 H   0  0  0  0  0  0  0  0  0  0  0  0
   31.6527   -2.1550    0.0000 H   0  0  0  0  0  0  0  0  0  0  0  0
    3.8015    2.6300    0.0000 H   0  0  0  0  0  0  0  0  0  0  0  0
    3.0044    2.6300    0.0000 H   0  0  0  0  0  0  0  0  0  0  0  0
    2.0000    1.9650    0.0000 H   0  0  0  0  0  0  0  0  0  0  0  0
  1 16  1  0  0  0  0
  1 75  1  0  0  0  0
  2 31  1  0  0  0  0
  2 80  1  0  0  0  0
  3 36  1  0  0  0  0
  3 84  1  0  0  0  0
  4  5  1  0  0  0  0
  4  6  1  0  0  0  0
  4 37  1  0  0  0  0
  4 38  1  0  0  0  0
  5  7  1  0  0  0  0
  5 39  1  0  0  0  0
  5 40  1  0  0  0  0
  6  8  1  0  0  0  0
  6 41  1  0  0  0  0
  6 42  1  0  0  0  0
  7  9  1  0  0  0  0
  7 43  1  0  0  0  0
  7 44  1  0  0  0  0
  8 10  1  0  0  0  0
  8 45  1  0  0  0  0
  8 46  1  0  0  0  0
  9 11  1  0  0  0  0
  9 47  1  0  0  0  0
  9 48  1  0  0  0  0
 10 12  1  0  0  0  0
 10 49  1  0  0  0  0
 10 50  1  0  0  0  0
 11 13  1  0  0  0  0
 11 51  1  0  0  0  0
 11 52  1  0  0  0  0
 12 14  1  0  0  0  0
 12 53  1  0  0  0  0
 12 54  1  0  0  0  0
 13 16  1  0  0  0  0
 13 55  1  0  0  0  0
 13 56  1  0  0  0  0
 14 21  1  0  0  0  0
 14 57  1  0  0  0  0
 14 58  1  0  0  0  0
 15 17  1  0  0  0  0
 15 18  1  0  0  0  0
 15 59  1  0  0  0  0
 15 60  1  0  0  0  0
 16 24  1  0  0  0  0
 16 63  1  0  0  0  0
 17 19  1  0  0  0  0
 17 61  1  0  0  0  0
 17 62  1  0  0  0  0
 18 20  1  0  0  0  0
 18 64  1  0  0  0  0
 18 65  1  0  0  0  0
 19 22  1  0  0  0  0
 19 66  1  0  0  0  0
 19 67  1  0  0  0  0
 20 23  1  0  0  0  0
 20 68  1  0  0  0  0
 20 69  1  0  0  0  0
 21 25  2  3  0  0  0
 21 72  1  0  0  0  0
 22 26  1  0  0  0  0
 22 70  1  0  0  0  0
 22 71  1  0  0  0  0
 23 27  1  0  0  0  0
 23 73  1  0  0  0  0
 23 74  1  0  0  0  0
 24 30  3  0  0  0  0
 25 28  1  0  0  0  0
 25 77  1  0  0  0  0
 26 29  2  3  0  0  0
 26 76  1  0  0  0  0
 27 28  3  0  0  0  0
 29 31  1  0  0  0  0
 29 78  1  0  0  0  0
 30 32  1  0  0  0  0
 31 33  1  0  0  0  0
 31 79  1  0  0  0  0
 32 34  3  0  0  0  0
 33 35  3  0  0  0  0
 34 36  1  0  0  0  0
 35 81  1  0  0  0  0
 36 82  1  0  0  0  0
 36 83  1  0  0  0  0
M  END
> <PUBCHEM_COMPOUND_CID>
4716

> <PUBCHEM_COMPOUND_CANONICALIZED>
1

> <PUBCHEM_CACTVS_COMPLEXITY>
830

> <PUBCHEM_CACTVS_HBOND_ACCEPTOR>
3

> <PUBCHEM_CACTVS_HBOND_DONOR>
3

> <PUBCHEM_CACTVS_ROTATABLE_BOND>
21

> <PUBCHEM_CACTVS_SUBSKEYS>
AAADcfB8MAAAAAAAAAAAAAAAAAAAAAAAAAAAAAAAAAAAAAAAAAAAGgAACAAACBSggAIAAAAAAgDAGCBCAAgAAAAgAAAICAAAAAgAFAIAAQAAUAAEgAAIEAOAwKAAAAAAAAAAAAAAAAAAAAAAAAAAAAAAAA==

> <PUBCHEM_IUPAC_OPENEYE_NAME>
tritriaconta-18,29-dien-2,4,20,32-tetrayne-1,6,31-triol

> <PUBCHEM_IUPAC_CAS_NAME>
tritriaconta-18,29-dien-2,4,20,32-tetrayne-1,6,31-triol

> <PUBCHEM_IUPAC_NAME>
tritriaconta-18,29-dien-2,4,20,32-tetrayne-1,6,31-triol

> <PUBCHEM_IUPAC_SYSTEMATIC_NAME>
tritriaconta-18,29-dien-2,4,20,32-tetrayne-1,6,31-triol

> <PUBCHEM_IUPAC_TRADITIONAL_NAME>
tritriaconta-18,29-dien-2,4,20,32-tetrayne-1,6,31-triol

> <PUBCHEM_IUPAC_INCHI>
InChI=1S/C33H48O3/c1-2-32(35)28-24-21-19-17-15-13-11-9-7-5-3-4-6-8-10-12-14-16-18-20-22-25-29-33(36)30-26-23-27-31-34/h1,3-4,24,28,32-36H,6,8-22,25,29,31H2

> <PUBCHEM_IUPAC_INCHIKEY>
LNKXNLNNKBMGQR-UHFFFAOYSA-N

> <PUBCHEM_XLOGP3_AA>
9.1

> <PUBCHEM_EXACT_MASS>
492.360345

> <PUBCHEM_MOLECULAR_FORMULA>
C33H48O3

> <PUBCHEM_MOLECULAR_WEIGHT>
492.73242

> <PUBCHEM_OPENEYE_CAN_SMILES>
C#CC(C=CCCCCCCCC#CC=CCCCCCCCCCCCC(C#CC#CCO)O)O

> <PUBCHEM_OPENEYE_ISO_SMILES>
C#CC(C=CCCCCCCCC#CC=CCCCCCCCCCCCC(C#CC#CCO)O)O

> <PUBCHEM_CACTVS_TPSA>
60.7

> <PUBCHEM_MONOISOTOPIC_WEIGHT>
492.360345

> <PUBCHEM_TOTAL_CHARGE>
0

> <PUBCHEM_HEAVY_ATOM_COUNT>
36

> <PUBCHEM_ATOM_DEF_STEREO_COUNT>
0

> <PUBCHEM_ATOM_UDEF_STEREO_COUNT>
2

> <PUBCHEM_BOND_DEF_STEREO_COUNT>
0

> <PUBCHEM_BOND_UDEF_STEREO_COUNT>
2

> <PUBCHEM_ISOTOPIC_ATOM_COUNT>
0

> <PUBCHEM_COMPONENT_COUNT>
1

> <PUBCHEM_CACTVS_TAUTO_COUNT>
1

> <PUBCHEM_COORDINATE_TYPE>
1
5
255

> <PUBCHEM_BONDANNOTATIONS>
16  63  3
21  25  1
26  29  1
31  79  3

$$$$

