10457683
  -OEChem-07051213102D

 65 68  0     1  0  0  0  0  0999 V2000
    3.8700   -1.3459    0.0000 O   0  0  0  0  0  0  0  0  0  0  0  0
    4.2839    1.6000    0.0000 O   0  0  0  0  0  0  0  0  0  0  0  0
    6.9893    1.1761    0.0000 O   0  0  0  0  0  0  0  0  0  0  0  0
    5.6488    2.3322    0.0000 O   0  0  0  0  0  0  0  0  0  0  0  0
    2.5896    0.2399    0.0000 O   0  0  0  0  0  0  0  0  0  0  0  0
    7.8820   -1.7570    0.0000 O   0  0  0  0  0  0  0  0  0  0  0  0
    9.1556   -2.9308    0.0000 O   0  0  0  0  0  0  0  0  0  0  0  0
    7.2898    2.8864    0.0000 O   0  0  0  0  0  0  0  0  0  0  0  0
    6.5266   -3.2278    0.0000 O   0  0  0  0  0  0  0  0  0  0  0  0
    7.1226   -5.1369    0.0000 O   0  0  0  0  0  0  0  0  0  0  0  0
    9.0740   -5.5753    0.0000 O   0  0  0  0  0  0  0  0  0  0  0  0
   11.1070   -3.3692    0.0000 O   0  0  0  0  0  0  0  0  0  0  0  0
    3.9748   -0.3510    0.0000 C   0  0  1  0  0  0  0  0  0  0  0  0
    4.7839   -0.9388    0.0000 C   0  0  2  0  0  0  0  0  0  0  0  0
    4.2839    0.6000    0.0000 C   0  0  1  0  0  0  0  0  0  0  0  0
    5.5929   -0.3510    0.0000 C   0  0  1  0  0  0  0  0  0  0  0  0
    5.2839    0.6000    0.0000 C   0  0  2  0  0  0  0  0  0  0  0  0
    5.9688    1.3848    0.0000 C   0  0  1  0  0  0  0  0  0  0  0  0
    6.6083   -0.5833    0.0000 C   0  0  0  0  0  0  0  0  0  0  0  0
    3.3328    0.9091    0.0000 C   0  0  0  0  0  0  0  0  0  0  0  0
    7.3112    0.1854    0.0000 C   0  0  0  0  0  0  0  0  0  0  0  0
    6.9063   -1.5378    0.0000 C   0  0  0  0  0  0  0  0  0  0  0  0
    6.3093    3.0830    0.0000 C   0  0  0  0  0  0  0  0  0  0  0  0
    8.1800   -2.7116    0.0000 C   0  0  2  0  0  0  0  0  0  0  0  0
    7.5023   -3.4470    0.0000 C   0  0  1  0  0  0  0  0  0  0  0  0
    5.9893    4.0305    0.0000 C   0  0  0  0  0  0  0  0  0  0  0  0
    7.8003   -4.4015    0.0000 C   0  0  2  0  0  0  0  0  0  0  0  0
    9.4536   -3.8854    0.0000 C   0  0  1  0  0  0  0  0  0  0  0  0
    8.7760   -4.6207    0.0000 C   0  0  1  0  0  0  0  0  0  0  0  0
    6.6498    4.7813    0.0000 C   0  0  0  0  0  0  0  0  0  0  0  0
   10.4293   -4.1046    0.0000 C   0  0  0  0  0  0  0  0  0  0  0  0
    6.3298    5.7287    0.0000 C   0  0  0  0  0  0  0  0  0  0  0  0
    7.6303    4.5847    0.0000 C   0  0  0  0  0  0  0  0  0  0  0  0
    3.3684   -0.2220    0.0000 H   0  0  0  0  0  0  0  0  0  0  0  0
    5.0939   -1.4757    0.0000 H   0  0  0  0  0  0  0  0  0  0  0  0
    5.7632   -1.1838    0.0000 H   0  0  0  0  0  0  0  0  0  0  0  0
    4.9322    1.3739    0.0000 H   0  0  0  0  0  0  0  0  0  0  0  0
    5.3607    1.5055    0.0000 H   0  0  0  0  0  0  0  0  0  0  0  0
    3.6239    1.4565    0.0000 H   0  0  0  0  0  0  0  0  0  0  0  0
    2.8442    1.2908    0.0000 H   0  0  0  0  0  0  0  0  0  0  0  0
    3.7469    1.9100    0.0000 H   0  0  0  0  0  0  0  0  0  0  0  0
    7.9172    0.0542    0.0000 H   0  0  0  0  0  0  0  0  0  0  0  0
    6.2914   -1.6170    0.0000 H   0  0  0  0  0  0  0  0  0  0  0  0
    6.8775   -2.1572    0.0000 H   0  0  0  0  0  0  0  0  0  0  0  0
    2.0000    0.4315    0.0000 H   0  0  0  0  0  0  0  0  0  0  0  0
    7.5750   -2.5757    0.0000 H   0  0  0  0  0  0  0  0  0  0  0  0
    7.0821   -3.9029    0.0000 H   0  0  0  0  0  0  0  0  0  0  0  0
    5.6020    4.5146    0.0000 H   0  0  0  0  0  0  0  0  0  0  0  0
    5.4453    3.7331    0.0000 H   0  0  0  0  0  0  0  0  0  0  0  0
    7.9850   -4.9934    0.0000 H   0  0  0  0  0  0  0  0  0  0  0  0
    9.8738   -3.4294    0.0000 H   0  0  0  0  0  0  0  0  0  0  0  0
    8.3558   -5.0766    0.0000 H   0  0  0  0  0  0  0  0  0  0  0  0
    6.0419    4.9032    0.0000 H   0  0  0  0  0  0  0  0  0  0  0  0
   10.1904   -4.6767    0.0000 H   0  0  0  0  0  0  0  0  0  0  0  0
   10.9513   -4.4392    0.0000 H   0  0  0  0  0  0  0  0  0  0  0  0
    6.1064   -3.6837    0.0000 H   0  0  0  0  0  0  0  0  0  0  0  0
    7.3074   -5.7287    0.0000 H   0  0  0  0  0  0  0  0  0  0  0  0
    9.6789   -5.7112    0.0000 H   0  0  0  0  0  0  0  0  0  0  0  0
    7.5084    3.9768    0.0000 H   0  0  0  0  0  0  0  0  0  0  0  0
    8.2382    4.4628    0.0000 H   0  0  0  0  0  0  0  0  0  0  0  0
    7.7522    5.1926    0.0000 H   0  0  0  0  0  0  0  0  0  0  0  0
    6.9172    5.9271    0.0000 H   0  0  0  0  0  0  0  0  0  0  0  0
    6.1314    6.3161    0.0000 H   0  0  0  0  0  0  0  0  0  0  0  0
    5.7424    5.5303    0.0000 H   0  0  0  0  0  0  0  0  0  0  0  0
   11.7119   -3.5051    0.0000 H   0  0  0  0  0  0  0  0  0  0  0  0
 13  1  1  6  0  0  0
 14  1  1  6  0  0  0
 15  2  1  6  0  0  0
  2 41  1  0  0  0  0
  3 18  1  0  0  0  0
  3 21  1  0  0  0  0
 18  4  1  6  0  0  0
  4 23  1  0  0  0  0
  5 20  1  0  0  0  0
  5 45  1  0  0  0  0
  6 22  1  0  0  0  0
 24  6  1  6  0  0  0
  7 24  1  0  0  0  0
  7 28  1  0  0  0  0
  8 23  2  0  0  0  0
 25  9  1  1  0  0  0
  9 56  1  0  0  0  0
 27 10  1  6  0  0  0
 10 57  1  0  0  0  0
 29 11  1  1  0  0  0
 11 58  1  0  0  0  0
 12 31  1  0  0  0  0
 12 65  1  0  0  0  0
 13 14  1  0  0  0  0
 13 15  1  0  0  0  0
 13 34  1  0  0  0  0
 14 16  1  0  0  0  0
 14 35  1  0  0  0  0
 15 17  1  0  0  0  0
 15 20  1  0  0  0  0
 16 17  1  0  0  0  0
 16 19  1  0  0  0  0
 16 36  1  6  0  0  0
 17 18  1  0  0  0  0
 17 37  1  6  0  0  0
 18 38  1  0  0  0  0
 19 21  2  0  0  0  0
 19 22  1  0  0  0  0
 20 39  1  0  0  0  0
 20 40  1  0  0  0  0
 21 42  1  0  0  0  0
 22 43  1  0  0  0  0
 22 44  1  0  0  0  0
 23 26  1  0  0  0  0
 24 25  1  0  0  0  0
 24 46  1  0  0  0  0
 25 27  1  0  0  0  0
 25 47  1  0  0  0  0
 26 30  1  0  0  0  0
 26 48  1  0  0  0  0
 26 49  1  0  0  0  0
 27 29  1  0  0  0  0
 27 50  1  0  0  0  0
 28 29  1  0  0  0  0
 28 31  1  6  0  0  0
 28 51  1  0  0  0  0
 29 52  1  0  0  0  0
 30 32  1  0  0  0  0
 30 33  1  0  0  0  0
 30 53  1  0  0  0  0
 31 54  1  0  0  0  0
 31 55  1  0  0  0  0
 32 62  1  0  0  0  0
 32 63  1  0  0  0  0
 32 64  1  0  0  0  0
 33 59  1  0  0  0  0
 33 60  1  0  0  0  0
 33 61  1  0  0  0  0
M  END
> <PUBCHEM_COMPOUND_CID>
10457683

> <PUBCHEM_COMPOUND_CANONICALIZED>
1

> <PUBCHEM_CACTVS_COMPLEXITY>
758

> <PUBCHEM_CACTVS_HBOND_ACCEPTOR>
12

> <PUBCHEM_CACTVS_HBOND_DONOR>
6

> <PUBCHEM_CACTVS_ROTATABLE_BOND>
9

> <PUBCHEM_CACTVS_SUBSKEYS>
AAADcfB4PAAAAAAAAAAAAAAAEgAAAYAAAAAkSIAAAAAAAEAAAAAAGgAACAAADVSwgAMCCAAABgCIAgDSCAAACAAgIAAAAAEAAAgRFBIAIQAiQAAFwAAHIAHA4PwOgAAAAAAAAAAAAAAAAAAAAYQADCAAAA==

> <PUBCHEM_IUPAC_OPENEYE_NAME>
[(1aS,1bS,5S,5aS,6S,6aS)-6-hydroxy-6-(hydroxymethyl)-2-[[(2R,3R,4S,5S,6R)-3,4,5-trihydroxy-6-(hydroxymethyl)tetrahydropyran-2-yl]oxymethyl]-1b,5,5a,6a-tetrahydro-1aH-oxireno[3,4]cyclopenta[1,3-d]pyran-5-yl] 3-methylbutanoate

> <PUBCHEM_IUPAC_CAS_NAME>
3-methylbutanoic acid [(1aS,1bS,5S,5aS,6S,6aS)-6-hydroxy-6-(hydroxymethyl)-2-[[(2R,3R,4S,5S,6R)-3,4,5-trihydroxy-6-(hydroxymethyl)-2-oxanyl]oxymethyl]-1b,5,5a,6a-tetrahydro-1aH-oxireno[3,4]cyclopenta[1,3-d]pyran-5-yl] ester

> <PUBCHEM_IUPAC_NAME>
[(1aS,1bS,5S,5aS,6S,6aS)-6-hydroxy-6-(hydroxymethyl)-2-[[(2R,3R,4S,5S,6R)-3,4,5-trihydroxy-6-(hydroxymethyl)oxan-2-yl]oxymethyl]-1b,5,5a,6a-tetrahydro-1aH-oxireno[3,4]cyclopenta[1,3-d]pyran-5-yl] 3-methylbutanoate

> <PUBCHEM_IUPAC_SYSTEMATIC_NAME>
[(1aS,1bS,5S,5aS,6S,6aS)-6-(hydroxymethyl)-2-[[(2R,3R,4S,5S,6R)-6-(hydroxymethyl)-3,4,5-tris(oxidanyl)oxan-2-yl]oxymethyl]-6-oxidanyl-1b,5,5a,6a-tetrahydro-1aH-oxireno[3,4]cyclopenta[1,3-d]pyran-5-yl] 3-methylbutanoate

> <PUBCHEM_IUPAC_TRADITIONAL_NAME>
3-methylbutyric acid [(1aS,1bS,5S,5aS,6S,6aS)-6-hydroxy-6-methylol-2-[[(2R,3R,4S,5S,6R)-3,4,5-trihydroxy-6-methylol-tetrahydropyran-2-yl]oxymethyl]-1b,5,5a,6a-tetrahydro-1aH-oxireno[3,4]cyclopenta[1,3-d]pyran-5-yl] ester

> <PUBCHEM_IUPAC_INCHI>
InChI=1S/C21H32O12/c1-8(2)3-11(24)32-19-13-12(17-18(33-17)21(13,28)7-23)9(5-29-19)6-30-20-16(27)15(26)14(25)10(4-22)31-20/h5,8,10,12-20,22-23,25-28H,3-4,6-7H2,1-2H3/t10-,12-,13-,14-,15+,16-,17+,18+,19+,20-,21-/m1/s1

> <PUBCHEM_IUPAC_INCHIKEY>
CHSDMOZSQFIUGK-MZHNZBIYSA-N

> <PUBCHEM_XLOGP3_AA>
-2.7

> <PUBCHEM_EXACT_MASS>
476.189376

> <PUBCHEM_MOLECULAR_FORMULA>
C21H32O12

> <PUBCHEM_MOLECULAR_WEIGHT>
476.47158

> <PUBCHEM_OPENEYE_CAN_SMILES>
CC(C)CC(=O)OC1C2C(C3C(C2(CO)O)O3)C(=CO1)COC4C(C(C(C(O4)CO)O)O)O

> <PUBCHEM_OPENEYE_ISO_SMILES>
CC(C)CC(=O)O[C@H]1[C@H]2[C@H]([C@H]3[C@@H]([C@]2(CO)O)O3)C(=CO1)CO[C@H]4[C@@H]([C@H]([C@@H]([C@H](O4)CO)O)O)O

> <PUBCHEM_CACTVS_TPSA>
188

> <PUBCHEM_MONOISOTOPIC_WEIGHT>
476.189376

> <PUBCHEM_TOTAL_CHARGE>
0

> <PUBCHEM_HEAVY_ATOM_COUNT>
33

> <PUBCHEM_ATOM_DEF_STEREO_COUNT>
11

> <PUBCHEM_ATOM_UDEF_STEREO_COUNT>
0

> <PUBCHEM_BOND_DEF_STEREO_COUNT>
0

> <PUBCHEM_BOND_UDEF_STEREO_COUNT>
0

> <PUBCHEM_ISOTOPIC_ATOM_COUNT>
0

> <PUBCHEM_COMPONENT_COUNT>
1

> <PUBCHEM_CACTVS_TAUTO_COUNT>
1

> <PUBCHEM_COORDINATE_TYPE>
1
5
255

> <PUBCHEM_BONDANNOTATIONS>
13  1  6
14  1  6
27  10  6
29  11  5
16  36  6
17  37  6
15  2  6
28  31  6
18  4  6
24  6  6
25  9  5

$$$$

