   Color/Form

     * White crystals
     * Amber solid cake

   from [1]HSDB

   Odor
        Slight mercaptan
   from [2]HSDB

   Melting Point
        45.5-46.5 deg C
   from [3]HSDB

   Density/Specific Gravity
        1.64 @ 23 deg C
   from [4]HSDB

   Octanol/Water Partition Coefficient
        log Kow = 4.31
   from [5]HSDB

   Solubilities

     * In acetone > 400; methanol 190; hexane 120 (all in g/kg @ 20 deg C)
     * In water, 4.76 mg/l @ 20 deg C

   from [6]HSDB

   Vapor Pressure
        2.25X10-5 mm Hg @ 25 deg C
   from [7]HSDB

   Other Chemical/Physical Properties
        Henry's Law constant = 4.44X10-6 atm cu-m/mol @ 24 deg C
   from [8]HSDB

   Computed Properties
   Molecular Weight                  322.533142 [g/mol]
   Molecular Formula                 C[7]H[7]Cl[3]NO[3]PS
   XLogP3                            4.3
   H-Bond Donor                      0
   H-Bond Acceptor                   5
   Rotatable Bond Count              4
   Exact Mass                        320.894984
   MonoIsotopic Mass                 320.894984
   Topological Polar Surface Area    72.7
   Heavy Atom Count                  16
   Formal Charge                     0
   Complexity                        278
   Isotope Atom Count                0
   Defined Atom Stereocenter Count   0
   Undefined Atom Stereocenter Count 0
   Defined Bond Stereocenter Count   0
   Undefined Bond Stereocenter Count 0
   Covalently-Bonded Unit Count      1
   Feature 3D Ring Count             1
   Effective Rotor Count             4
   Conformer Sampling RMSD           0.6
   CID Conformer Count               [9]26

References

   1. http://toxnet.nlm.nih.gov/cgi-bin/sis/search/r?dbs+hsdb:@term+@rn+@rel+5598-13-0
   2. http://toxnet.nlm.nih.gov/cgi-bin/sis/search/r?dbs+hsdb:@term+@rn+@rel+5598-13-0
   3. http://toxnet.nlm.nih.gov/cgi-bin/sis/search/r?dbs+hsdb:@term+@rn+@rel+5598-13-0
   4. http://toxnet.nlm.nih.gov/cgi-bin/sis/search/r?dbs+hsdb:@term+@rn+@rel+5598-13-0
   5. http://toxnet.nlm.nih.gov/cgi-bin/sis/search/r?dbs+hsdb:@term+@rn+@rel+5598-13-0
   6. http://toxnet.nlm.nih.gov/cgi-bin/sis/search/r?dbs+hsdb:@term+@rn+@rel+5598-13-0
   7. http://toxnet.nlm.nih.gov/cgi-bin/sis/search/r?dbs+hsdb:@term+@rn+@rel+5598-13-0
   8. http://toxnet.nlm.nih.gov/cgi-bin/sis/search/r?dbs+hsdb:@term+@rn+@rel+5598-13-0
   9. http://pubchem.ncbi.nlm.nih.gov/vw3d/vw3d.cgi?cid=21803
