452855
  -OEChem-07051213002D

 52 54  0     1  0  0  0  0  0999 V2000
    7.1987    0.9428    0.0000 O   0  0  0  0  0  0  0  0  0  0  0  0
    6.3239   -1.2378    0.0000 O   0  0  0  0  0  0  0  0  0  0  0  0
    7.8373   -0.7208    0.0000 O   0  0  0  0  0  0  0  0  0  0  0  0
    4.9836    4.1561    0.0000 O   0  0  0  0  0  0  0  0  0  0  0  0
    3.5179   -3.7596    0.0000 O   0  0  0  0  0  0  0  0  0  0  0  0
    2.9945    4.3651    0.0000 O   0  0  0  0  0  0  0  0  0  0  0  0
    5.2500   -4.7596    0.0000 O   0  0  0  0  0  0  0  0  0  0  0  0
    5.6160    0.6064    0.0000 C   0  0  2  0  0  0  0  0  0  0  0  0
    6.1160   -0.2596    0.0000 C   0  0  2  0  0  0  0  0  0  0  0  0
    6.2851    1.3496    0.0000 C   0  0  0  0  0  0  0  0  0  0  0  0
    4.6215    0.7109    0.0000 C   0  0  0  0  0  0  0  0  0  0  0  0
    5.2500   -0.7596    0.0000 C   0  0  0  0  0  0  0  0  0  0  0  0
    7.0941   -0.0517    0.0000 C   0  0  0  0  0  0  0  0  0  0  0  0
    4.2147    1.6245    0.0000 C   0  0  0  0  0  0  0  0  0  0  0  0
    5.2500   -1.7596    0.0000 C   0  0  0  0  0  0  0  0  0  0  0  0
    4.8025    2.4335    0.0000 C   0  0  0  0  0  0  0  0  0  0  0  0
    3.2202    1.7290    0.0000 C   0  0  0  0  0  0  0  0  0  0  0  0
    4.3839   -2.2596    0.0000 C   0  0  0  0  0  0  0  0  0  0  0  0
    6.1160   -2.2596    0.0000 C   0  0  0  0  0  0  0  0  0  0  0  0
    4.3958    3.3470    0.0000 C   0  0  0  0  0  0  0  0  0  0  0  0
    4.3839   -3.2596    0.0000 C   0  0  0  0  0  0  0  0  0  0  0  0
    2.8135    2.6426    0.0000 C   0  0  0  0  0  0  0  0  0  0  0  0
    6.1160   -3.2596    0.0000 C   0  0  0  0  0  0  0  0  0  0  0  0
    3.4013    3.4516    0.0000 C   0  0  0  0  0  0  0  0  0  0  0  0
    5.2500   -3.7596    0.0000 C   0  0  0  0  0  0  0  0  0  0  0  0
    4.5768    5.0696    0.0000 C   0  0  0  0  0  0  0  0  0  0  0  0
    2.6519   -3.2596    0.0000 C   0  0  0  0  0  0  0  0  0  0  0  0
    2.0000    4.4696    0.0000 C   0  0  0  0  0  0  0  0  0  0  0  0
    5.3938    1.1852    0.0000 H   0  0  0  0  0  0  0  0  0  0  0  0
    6.5951    1.8865    0.0000 H   0  0  0  0  0  0  0  0  0  0  0  0
    5.7835    1.7140    0.0000 H   0  0  0  0  0  0  0  0  0  0  0  0
    4.0199    0.5609    0.0000 H   0  0  0  0  0  0  0  0  0  0  0  0
    4.6647    0.0925    0.0000 H   0  0  0  0  0  0  0  0  0  0  0  0
    5.0379   -0.1770    0.0000 H   0  0  0  0  0  0  0  0  0  0  0  0
    4.6394   -0.8673    0.0000 H   0  0  0  0  0  0  0  0  0  0  0  0
    5.8632   -1.6526    0.0000 H   0  0  0  0  0  0  0  0  0  0  0  0
    5.4191    2.3687    0.0000 H   0  0  0  0  0  0  0  0  0  0  0  0
    2.8558    1.2274    0.0000 H   0  0  0  0  0  0  0  0  0  0  0  0
    3.8470   -1.9496    0.0000 H   0  0  0  0  0  0  0  0  0  0  0  0
    6.6529   -1.9496    0.0000 H   0  0  0  0  0  0  0  0  0  0  0  0
    2.1969    2.7074    0.0000 H   0  0  0  0  0  0  0  0  0  0  0  0
    6.6529   -3.5696    0.0000 H   0  0  0  0  0  0  0  0  0  0  0  0
    5.7869   -5.0696    0.0000 H   0  0  0  0  0  0  0  0  0  0  0  0
    5.1432    5.3218    0.0000 H   0  0  0  0  0  0  0  0  0  0  0  0
    4.3246    5.6360    0.0000 H   0  0  0  0  0  0  0  0  0  0  0  0
    4.0104    4.8174    0.0000 H   0  0  0  0  0  0  0  0  0  0  0  0
    2.9619   -2.7227    0.0000 H   0  0  0  0  0  0  0  0  0  0  0  0
    2.1150   -2.9496    0.0000 H   0  0  0  0  0  0  0  0  0  0  0  0
    2.3419   -3.7966    0.0000 H   0  0  0  0  0  0  0  0  0  0  0  0
    2.0648    5.0863    0.0000 H   0  0  0  0  0  0  0  0  0  0  0  0
    1.3834    4.5345    0.0000 H   0  0  0  0  0  0  0  0  0  0  0  0
    1.9352    3.8530    0.0000 H   0  0  0  0  0  0  0  0  0  0  0  0
  1 10  1  0  0  0  0
  1 13  1  0  0  0  0
  9  2  1  1  0  0  0
  2 36  1  0  0  0  0
  3 13  2  0  0  0  0
  4 20  1  0  0  0  0
  4 26  1  0  0  0  0
  5 21  1  0  0  0  0
  5 27  1  0  0  0  0
  6 24  1  0  0  0  0
  6 28  1  0  0  0  0
  7 25  1  0  0  0  0
  7 43  1  0  0  0  0
  8  9  1  0  0  0  0
  8 10  1  0  0  0  0
  8 11  1  1  0  0  0
  8 29  1  0  0  0  0
  9 12  1  0  0  0  0
  9 13  1  0  0  0  0
 10 30  1  0  0  0  0
 10 31  1  0  0  0  0
 11 14  1  0  0  0  0
 11 32  1  0  0  0  0
 11 33  1  0  0  0  0
 12 15  1  0  0  0  0
 12 34  1  0  0  0  0
 12 35  1  0  0  0  0
 14 16  2  0  0  0  0
 14 17  1  0  0  0  0
 15 18  2  0  0  0  0
 15 19  1  0  0  0  0
 16 20  1  0  0  0  0
 16 37  1  0  0  0  0
 17 22  2  0  0  0  0
 17 38  1  0  0  0  0
 18 21  1  0  0  0  0
 18 39  1  0  0  0  0
 19 23  2  0  0  0  0
 19 40  1  0  0  0  0
 20 24  2  0  0  0  0
 21 25  2  0  0  0  0
 22 24  1  0  0  0  0
 22 41  1  0  0  0  0
 23 25  1  0  0  0  0
 23 42  1  0  0  0  0
 26 44  1  0  0  0  0
 26 45  1  0  0  0  0
 26 46  1  0  0  0  0
 27 47  1  0  0  0  0
 27 48  1  0  0  0  0
 27 49  1  0  0  0  0
 28 50  1  0  0  0  0
 28 51  1  0  0  0  0
 28 52  1  0  0  0  0
M  END
> <PUBCHEM_COMPOUND_CID>
452855

> <PUBCHEM_COMPOUND_CANONICALIZED>
1

> <PUBCHEM_CACTVS_COMPLEXITY>
527

> <PUBCHEM_CACTVS_HBOND_ACCEPTOR>
7

> <PUBCHEM_CACTVS_HBOND_DONOR>
2

> <PUBCHEM_CACTVS_ROTATABLE_BOND>
7

> <PUBCHEM_CACTVS_SUBSKEYS>
AAADceB4OAAAAAAAAAAAAAAAAAAAASAAAAAwYAAAAAAAAAABQAAAGgAACAAADUSgmAIyDoAABgCIAiDSCAICCAAgIAAIiAFGiIgNJjKGMRqCcCMlwBELuAeK6PyOoAABAAAAQABAAAIAAACAAAAAAAAAAA==

> <PUBCHEM_IUPAC_OPENEYE_NAME>
(3S,4S)-4-[(3,4-dimethoxyphenyl)methyl]-3-hydroxy-3-[(4-hydroxy-3-methoxy-phenyl)methyl]tetrahydrofuran-2-one

> <PUBCHEM_IUPAC_CAS_NAME>
(3S,4S)-4-[(3,4-dimethoxyphenyl)methyl]-3-hydroxy-3-[(4-hydroxy-3-methoxyphenyl)methyl]-2-oxolanone

> <PUBCHEM_IUPAC_NAME>
(3S,4S)-4-[(3,4-dimethoxyphenyl)methyl]-3-hydroxy-3-[(4-hydroxy-3-methoxyphenyl)methyl]oxolan-2-one

> <PUBCHEM_IUPAC_SYSTEMATIC_NAME>
(3S,4S)-4-[(3,4-dimethoxyphenyl)methyl]-3-[(3-methoxy-4-oxidanyl-phenyl)methyl]-3-oxidanyl-oxolan-2-one

> <PUBCHEM_IUPAC_TRADITIONAL_NAME>
(3S,4S)-3-hydroxy-3-vanillyl-4-veratryl-tetrahydrofuran-2-one

> <PUBCHEM_IUPAC_INCHI>
InChI=1S/C21H24O7/c1-25-17-7-5-13(9-19(17)27-3)8-15-12-28-20(23)21(15,24)11-14-4-6-16(22)18(10-14)26-2/h4-7,9-10,15,22,24H,8,11-12H2,1-3H3/t15-,21-/m0/s1

> <PUBCHEM_IUPAC_INCHIKEY>
YFVZKLQNMNKWSB-BTYIYWSLSA-N

> <PUBCHEM_XLOGP3_AA>
2.8

> <PUBCHEM_EXACT_MASS>
388.152203

> <PUBCHEM_MOLECULAR_FORMULA>
C21H24O7

> <PUBCHEM_MOLECULAR_WEIGHT>
388.41106

> <PUBCHEM_OPENEYE_CAN_SMILES>
COC1=C(C=C(C=C1)CC2COC(=O)C2(CC3=CC(=C(C=C3)O)OC)O)OC

> <PUBCHEM_OPENEYE_ISO_SMILES>
COC1=C(C=C(C=C1)C[C@H]2COC(=O)[C@@]2(CC3=CC(=C(C=C3)O)OC)O)OC

> <PUBCHEM_CACTVS_TPSA>
94.4

> <PUBCHEM_MONOISOTOPIC_WEIGHT>
388.152203

> <PUBCHEM_TOTAL_CHARGE>
0

> <PUBCHEM_HEAVY_ATOM_COUNT>
28

> <PUBCHEM_ATOM_DEF_STEREO_COUNT>
2

> <PUBCHEM_ATOM_UDEF_STEREO_COUNT>
0

> <PUBCHEM_BOND_DEF_STEREO_COUNT>
0

> <PUBCHEM_BOND_UDEF_STEREO_COUNT>
0

> <PUBCHEM_ISOTOPIC_ATOM_COUNT>
0

> <PUBCHEM_COMPONENT_COUNT>
1

> <PUBCHEM_CACTVS_TAUTO_COUNT>
3

> <PUBCHEM_COORDINATE_TYPE>
1
5
255

> <PUBCHEM_BONDANNOTATIONS>
14  16  8
14  17  8
15  18  8
15  19  8
16  20  8
17  22  8
18  21  8
19  23  8
9  2  5
20  24  8
21  25  8
22  24  8
23  25  8
8  11  5

$$$$

