   Color/Form

     * Colorless crystals
     * Crystal structure: rhombic <46 deg C; triclinic 46-71 deg C; cubic
       >71 deg C

   from [1]HSDB

   Odor
        Camphor-like odor
   from [2]HSDB

   Boiling Point
        Sublimes
   from [3]HSDB

   Melting Point
        Sublimes
   from [4]HSDB

   Corrosivity
        Liquid hexachloroethane will attack some forms of plastics, rubber
   and coating
   from [5]HSDB

   Density/Specific Gravity
        2.091 g/cu m at 20 deg C
   from [6]HSDB

   Heat of Combustion
        110.0 kcal at atm pressure and 20 deg C
   from [7]HSDB

   Heat of Vaporization
        11,711.3 g cal/g mole
   from [8]HSDB

   Octanol/Water Partition Coefficient
        log Kow = 4.14
   from [9]HSDB

   Solubilities

     * Soluble in alcohol, benzene, chloroform, ether, oils
     * Very sol in ether and tetrachloroethylene
     * In water, 50 mg/L at 20 deg C

   from [10]HSDB

   Spectral Properties

     * SADTLER REF NUMBER: 4546 (IR, PRISM)
     * IR: 411 (Sadtler Research Laboratories IR Grating Collection)
     * MASS: 61377 (NIST/EPA/MSDC Mass Spectral database, 1990 version);
       716 (Atlas of Mass Spectral Data, John Wiley & Sons, New York)
     * Raman: 309 (Sadtler Research Laboratories spectral collection)

   from [11]HSDB

   Vapor Density
        8.16 (Air = 1)
   from [12]HSDB

   Vapor Pressure
        0.4 mm Hg at 20 deg C
   from [13]HSDB

   Other Chemical/Physical Properties

     * Sublimation point = 184.7 deg C; Triple point = 186.8 deg C
     * Heat of sublimation 12.2 kcal/mol
     * Specific heat, liquid at 20 deg C = 0.615 J/kg-deg K; heat of
       formation (liquid at 298 deg K) = -203.4 kJ/mol
     * Saturated air concentration: 670 to 700 ppm at 20 deg C
     * Latent heat of vapor (at bp, J/g= 194.1); Binary azeotropes, bp,
       173.7 deg C with 30% phenol
     * Standard molar enthalpy of formation (crystal) = -202.8 kJ/mol at
       25 deg C; Standard molar entropy (crystal) = 237.3 kJ/mol at 25 deg
       C; Standard molar heat capacity (crystal) = 198.2 kJ/mol at 25 deg
       C; Standard molar enthalpy of formation (liquid) = -143.6 kJ/mol at
       25 deg C
     * Henry's Law constant = 3.89X10-3 atm-cu m/mol at 25 deg C

   from [14]HSDB

   Computed Properties
   Molecular Weight                  236.7394 [g/mol]
   Molecular Formula                 C[2]Cl[6]
   XLogP3                            4.1
   H-Bond Donor                      0
   H-Bond Acceptor                   0
   Rotatable Bond Count              0
   Exact Mass                        235.810166
   MonoIsotopic Mass                 233.813116
   Topological Polar Surface Area    0
   Heavy Atom Count                  8
   Formal Charge                     0
   Complexity                        61.5
   Isotope Atom Count                0
   Defined Atom Stereocenter Count   0
   Undefined Atom Stereocenter Count 0
   Defined Bond Stereocenter Count   0
   Undefined Bond Stereocenter Count 0
   Covalently-Bonded Unit Count      1
   Effective Rotor Count             1
   Conformer Sampling RMSD           0.4
   CID Conformer Count               [15]1

References

   1. http://toxnet.nlm.nih.gov/cgi-bin/sis/search/r?dbs+hsdb:@term+@rn+@rel+67-72-1
   2. http://toxnet.nlm.nih.gov/cgi-bin/sis/search/r?dbs+hsdb:@term+@rn+@rel+67-72-1
   3. http://toxnet.nlm.nih.gov/cgi-bin/sis/search/r?dbs+hsdb:@term+@rn+@rel+67-72-1
   4. http://toxnet.nlm.nih.gov/cgi-bin/sis/search/r?dbs+hsdb:@term+@rn+@rel+67-72-1
   5. http://toxnet.nlm.nih.gov/cgi-bin/sis/search/r?dbs+hsdb:@term+@rn+@rel+67-72-1
   6. http://toxnet.nlm.nih.gov/cgi-bin/sis/search/r?dbs+hsdb:@term+@rn+@rel+67-72-1
   7. http://toxnet.nlm.nih.gov/cgi-bin/sis/search/r?dbs+hsdb:@term+@rn+@rel+67-72-1
   8. http://toxnet.nlm.nih.gov/cgi-bin/sis/search/r?dbs+hsdb:@term+@rn+@rel+67-72-1
   9. http://toxnet.nlm.nih.gov/cgi-bin/sis/search/r?dbs+hsdb:@term+@rn+@rel+67-72-1
  10. http://toxnet.nlm.nih.gov/cgi-bin/sis/search/r?dbs+hsdb:@term+@rn+@rel+67-72-1
  11. http://toxnet.nlm.nih.gov/cgi-bin/sis/search/r?dbs+hsdb:@term+@rn+@rel+67-72-1
  12. http://toxnet.nlm.nih.gov/cgi-bin/sis/search/r?dbs+hsdb:@term+@rn+@rel+67-72-1
  13. http://toxnet.nlm.nih.gov/cgi-bin/sis/search/r?dbs+hsdb:@term+@rn+@rel+67-72-1
  14. http://toxnet.nlm.nih.gov/cgi-bin/sis/search/r?dbs+hsdb:@term+@rn+@rel+67-72-1
  15. http://pubchem.ncbi.nlm.nih.gov/vw3d/vw3d.cgi?cid=6214
