11056026
  -OEChem-07051213102D

 37 39  0     1  0  0  0  0  0999 V2000
    6.1322   -3.3523    0.0000 Br  0  0  0  0  0  0  0  0  0  0  0  0
    6.3364    0.6959    0.0000 O   0  0  0  0  0  0  0  0  0  0  0  0
    2.5087    2.7284    0.0000 O   0  0  0  0  0  0  0  0  0  0  0  0
    3.9922    0.5378    0.0000 C   0  0  1  0  0  0  0  0  0  0  0  0
    4.4700    2.4863    0.0000 C   0  0  1  0  0  0  0  0  0  0  0  0
    3.7334    1.5037    0.0000 C   0  0  2  0  0  0  0  0  0  0  0  0
    2.1603   -0.2210    0.0000 C   0  0  0  0  0  0  0  0  0  0  0  0
    1.9015    0.7449    0.0000 C   0  0  0  0  0  0  0  0  0  0  0  0
    5.5274   -0.7054    0.0000 C   0  0  0  0  0  0  0  0  0  0  0  0
    4.2511   -0.4282    0.0000 C   0  0  0  0  0  0  0  0  0  0  0  0
    3.4746    2.4696    0.0000 C   0  0  0  0  0  0  0  0  0  0  0  0
    4.9700    3.3523    0.0000 C   0  0  0  0  0  0  0  0  0  0  0  0
    6.4410   -0.2986    0.0000 C   0  0  0  0  0  0  0  0  0  0  0  0
    5.4026   -1.7395    0.0000 C   0  0  0  0  0  0  0  0  0  0  0  0
    7.2930   -0.8978    0.0000 C   0  0  0  0  0  0  0  0  0  0  0  0
    6.2405   -2.3582    0.0000 C   0  0  0  0  0  0  0  0  0  0  0  0
    7.1921   -1.9346    0.0000 C   0  0  0  0  0  0  0  0  0  0  0  0
    8.0034   -2.5192    0.0000 C   0  0  0  0  0  0  0  0  0  0  0  0
    3.9526    2.8279    0.0000 H   0  0  0  0  0  0  0  0  0  0  0  0
    2.3724   -0.8037    0.0000 H   0  0  0  0  0  0  0  0  0  0  0  0
    1.5690   -0.4075    0.0000 H   0  0  0  0  0  0  0  0  0  0  0  0
    1.3102    0.5584    0.0000 H   0  0  0  0  0  0  0  0  0  0  0  0
    1.6894    1.3275    0.0000 H   0  0  0  0  0  0  0  0  0  0  0  0
    4.8499   -0.2677    0.0000 H   0  0  0  0  0  0  0  0  0  0  0  0
    4.4115   -1.0270    0.0000 H   0  0  0  0  0  0  0  0  0  0  0  0
    3.6522   -0.5886    0.0000 H   0  0  0  0  0  0  0  0  0  0  0  0
    3.5286    3.0873    0.0000 H   0  0  0  0  0  0  0  0  0  0  0  0
    4.0922    2.5237    0.0000 H   0  0  0  0  0  0  0  0  0  0  0  0
    4.4331    3.6623    0.0000 H   0  0  0  0  0  0  0  0  0  0  0  0
    5.2800    3.8893    0.0000 H   0  0  0  0  0  0  0  0  0  0  0  0
    5.5070    3.0423    0.0000 H   0  0  0  0  0  0  0  0  0  0  0  0
    4.8333   -1.9851    0.0000 H   0  0  0  0  0  0  0  0  0  0  0  0
    7.8564   -0.6391    0.0000 H   0  0  0  0  0  0  0  0  0  0  0  0
    2.3482    3.3273    0.0000 H   0  0  0  0  0  0  0  0  0  0  0  0
    8.3659   -2.0162    0.0000 H   0  0  0  0  0  0  0  0  0  0  0  0
    8.5064   -2.8817    0.0000 H   0  0  0  0  0  0  0  0  0  0  0  0
    7.6409   -3.0222    0.0000 H   0  0  0  0  0  0  0  0  0  0  0  0
  1 16  1  0  0  0  0
  2  6  1  0  0  0  0
  2 13  1  0  0  0  0
  3 11  1  0  0  0  0
  3 34  1  0  0  0  0
  4  5  1  0  0  0  0
  4  7  1  0  0  0  0
  4  9  1  0  0  0  0
  4 10  1  1  0  0  0
  5  6  1  0  0  0  0
  5 12  1  1  0  0  0
  5 19  1  0  0  0  0
  6  8  1  0  0  0  0
  6 11  1  6  0  0  0
  7  8  1  0  0  0  0
  7 20  1  0  0  0  0
  7 21  1  0  0  0  0
  8 22  1  0  0  0  0
  8 23  1  0  0  0  0
  9 13  2  0  0  0  0
  9 14  1  0  0  0  0
 10 24  1  0  0  0  0
 10 25  1  0  0  0  0
 10 26  1  0  0  0  0
 11 27  1  0  0  0  0
 11 28  1  0  0  0  0
 12 29  1  0  0  0  0
 12 30  1  0  0  0  0
 12 31  1  0  0  0  0
 13 15  1  0  0  0  0
 14 16  2  0  0  0  0
 14 32  1  0  0  0  0
 15 17  2  0  0  0  0
 15 33  1  0  0  0  0
 16 17  1  0  0  0  0
 17 18  1  0  0  0  0
 18 35  1  0  0  0  0
 18 36  1  0  0  0  0
 18 37  1  0  0  0  0
M  END
> <PUBCHEM_COMPOUND_CID>
11056026

> <PUBCHEM_COMPOUND_CANONICALIZED>
1

> <PUBCHEM_CACTVS_COMPLEXITY>
347

> <PUBCHEM_CACTVS_HBOND_ACCEPTOR>
2

> <PUBCHEM_CACTVS_HBOND_DONOR>
1

> <PUBCHEM_CACTVS_ROTATABLE_BOND>
1

> <PUBCHEM_CACTVS_SUBSKEYS>
AAADceBwMAAAEAAAAAAAAAAAAAAAAYAAAAA0QAAABIAAAACRAAAAGgBACAABr0SgmAIyBoAABgCAAiBCAAACCAAgIAQAiAAGCKgNNiKEMRqCeCCkwBELqheAwPAPwBABEAAIgACAIAIgABEAAYAADAAAAA==

> <PUBCHEM_IUPAC_INCHI>
InChI=1S/C15H19BrO2/c1-9-6-13-11(7-12(9)16)14(3)4-5-15(8-17,18-13)10(14)2/h6-7,10,17H,4-5,8H2,1-3H3/t10-,14+,15+/m0/s1

> <PUBCHEM_IUPAC_INCHIKEY>
HEDUCRHYGUKWLO-COLVAYQJSA-N

> <PUBCHEM_XLOGP3_AA>
3.8

> <PUBCHEM_EXACT_MASS>
310.056842

> <PUBCHEM_MOLECULAR_FORMULA>
C15H19BrO2

> <PUBCHEM_MOLECULAR_WEIGHT>
311.21416

> <PUBCHEM_OPENEYE_CAN_SMILES>
CC1C2(CCC1(OC3=CC(=C(C=C32)Br)C)CO)C

> <PUBCHEM_OPENEYE_ISO_SMILES>
C[C@H]1[C@]2(CC[C@@]1(OC3=CC(=C(C=C32)Br)C)CO)C

> <PUBCHEM_CACTVS_TPSA>
29.5

> <PUBCHEM_MONOISOTOPIC_WEIGHT>
310.056842

> <PUBCHEM_TOTAL_CHARGE>
0

> <PUBCHEM_HEAVY_ATOM_COUNT>
18

> <PUBCHEM_ATOM_DEF_STEREO_COUNT>
3

> <PUBCHEM_ATOM_UDEF_STEREO_COUNT>
0

> <PUBCHEM_BOND_DEF_STEREO_COUNT>
0

> <PUBCHEM_BOND_UDEF_STEREO_COUNT>
0

> <PUBCHEM_ISOTOPIC_ATOM_COUNT>
0

> <PUBCHEM_COMPONENT_COUNT>
1

> <PUBCHEM_CACTVS_TAUTO_COUNT>
1

> <PUBCHEM_COORDINATE_TYPE>
1
5
255

> <PUBCHEM_BONDANNOTATIONS>
13  15  8
14  16  8
15  17  8
16  17  8
4  10  5
5  12  5
6  11  6
9  13  8
9  14  8

$$$$

