   Color/Form

     * Light tan solid
     * WHITE, CRYSTALLINE SOLID

   from [1]HSDB

   Boiling Point
        110 deg C at 0.03 mm Hg
   from [2]HSDB

   Melting Point
        77 deg C
   from [3]HSDB

   Corrosivity
        No corrosion to number 316 and 304 stainless steel, aluminum, and
   heresite; corrosive to ordinary steel.
   from [4]HSDB

   Density/Specific Gravity
        1.242 g/mL at 25 deg C
   from [5]HSDB

   Octanol/Water Partition Coefficient
        log Kow = 2.18
   from [6]HSDB

   Solubilities

     * Sol in common org solvents except aliphatic hydrocarbons
     * In acetone 448, benzene 737, toluene 342, ethanol 408, xylene 239,
       chloroform 602, carbon tetrachloride 174, diethyl ether 219 (all in
       g/kg, 25 deg C).
     * SLIGHTLY SOL IN DIETHYL ETHER
     * In water, 580 mg/L at 25 deg C

   from [7]HSDB

   Spectral Properties
        Intense mass spectral peaks: 120 m/z (100%), 77 m/z (43%), 93 m/z
   (33%), 43 m/z (31%)
   from [8]HSDB

   Vapor Pressure
        7.4X10-4 mm Hg at 25 deg C
   from [9]HSDB

   Other Chemical/Physical Properties

     * Decomp temp: 170 deg C
     * Vapor pressure at 110 deg C: 0.03 mm Hg
     * Decomposed in alkaline and strongly acidic media.
     * Henry's Law constant = 3.6X10-7 atm-cu m/mole at 25 deg C (est)
     * Hydroxyl radical reaction rate constant = 2.1X10-11 cu cm/molec-sec
       at deg C (est)

   from [10]HSDB

   Computed Properties
   Molecular Weight                  211.68796 [g/mol]
   Molecular Formula                 C[11]H[14]ClNO
   XLogP3                            2.2
   H-Bond Donor                      0
   H-Bond Acceptor                   1
   Rotatable Bond Count              3
   Exact Mass                        211.076392
   MonoIsotopic Mass                 211.076392
   Topological Polar Surface Area    20.3
   Heavy Atom Count                  14
   Formal Charge                     0
   Complexity                        188
   Isotope Atom Count                0
   Defined Atom Stereocenter Count   0
   Undefined Atom Stereocenter Count 0
   Defined Bond Stereocenter Count   0
   Undefined Bond Stereocenter Count 0
   Covalently-Bonded Unit Count      1
   Feature 3D Acceptor Count         1
   Feature 3D Hydrophobe Count       1
   Feature 3D Ring Count             1
   Effective Rotor Count             4
   Conformer Sampling RMSD           0.6
   CID Conformer Count               [11]20

References

   1. http://toxnet.nlm.nih.gov/cgi-bin/sis/search/r?dbs+hsdb:@term+@rn+@rel+1918-16-7
   2. http://toxnet.nlm.nih.gov/cgi-bin/sis/search/r?dbs+hsdb:@term+@rn+@rel+1918-16-7
   3. http://toxnet.nlm.nih.gov/cgi-bin/sis/search/r?dbs+hsdb:@term+@rn+@rel+1918-16-7
   4. http://toxnet.nlm.nih.gov/cgi-bin/sis/search/r?dbs+hsdb:@term+@rn+@rel+1918-16-7
   5. http://toxnet.nlm.nih.gov/cgi-bin/sis/search/r?dbs+hsdb:@term+@rn+@rel+1918-16-7
   6. http://toxnet.nlm.nih.gov/cgi-bin/sis/search/r?dbs+hsdb:@term+@rn+@rel+1918-16-7
   7. http://toxnet.nlm.nih.gov/cgi-bin/sis/search/r?dbs+hsdb:@term+@rn+@rel+1918-16-7
   8. http://toxnet.nlm.nih.gov/cgi-bin/sis/search/r?dbs+hsdb:@term+@rn+@rel+1918-16-7
   9. http://toxnet.nlm.nih.gov/cgi-bin/sis/search/r?dbs+hsdb:@term+@rn+@rel+1918-16-7
  10. http://toxnet.nlm.nih.gov/cgi-bin/sis/search/r?dbs+hsdb:@term+@rn+@rel+1918-16-7
  11. http://pubchem.ncbi.nlm.nih.gov/vw3d/vw3d.cgi?cid=4931
