120699
  -OEChem-07051212582D

 70 72  0     1  0  0  0  0  0999 V2000
    8.8042    0.4391    0.0000 O   0  0  0  0  0  0  0  0  0  0  0  0
    7.2146   -1.8247    0.0000 O   0  0  0  0  0  0  0  0  0  0  0  0
    9.6702    1.9391    0.0000 O   0  0  0  0  0  0  0  0  0  0  0  0
    5.5416   -2.2729    0.0000 O   0  0  0  0  0  0  0  0  0  0  0  0
   11.5068    1.9337    0.0000 N   0  0  0  0  0  0  0  0  0  0  0  0
    4.3100   -1.1948    0.0000 N   0  0  0  0  0  0  0  0  0  0  0  0
   12.9849    1.2756    0.0000 N   0  0  0  0  0  0  0  0  0  0  0  0
    3.5380    0.2272    0.0000 N   0  0  0  0  0  0  0  0  0  0  0  0
   12.8916    3.0551    0.0000 N   0  0  0  0  0  0  0  0  0  0  0  0
    2.5286   -1.2414    0.0000 N   0  0  0  0  0  0  0  0  0  0  0  0
   10.5362    0.4391    0.0000 C   0  0  1  0  0  0  0  0  0  0  0  0
    5.9898   -0.5999    0.0000 C   0  0  1  0  0  0  0  0  0  0  0  0
   11.4022    0.9391    0.0000 C   0  0  2  0  0  0  0  0  0  0  0  0
    4.9984   -0.4694    0.0000 C   0  0  2  0  0  0  0  0  0  0  0  0
   10.5362   -0.5609    0.0000 C   0  0  0  0  0  0  0  0  0  0  0  0
    6.4898    0.2661    0.0000 C   0  0  0  0  0  0  0  0  0  0  0  0
   10.1805   -1.5658    0.0000 C   0  0  0  0  0  0  0  0  0  0  0  0
    6.2310    1.2320    0.0000 C   0  0  0  0  0  0  0  0  0  0  0  0
    9.2146   -1.8247    0.0000 C   0  0  0  0  0  0  0  0  0  0  0  0
    6.9381    1.9391    0.0000 C   0  0  0  0  0  0  0  0  0  0  0  0
    8.7146   -2.6907    0.0000 C   0  0  2  0  0  0  0  0  0  0  0  0
    7.9381    1.9391    0.0000 C   0  0  2  0  0  0  0  0  0  0  0  0
   12.3158    0.5324    0.0000 C   0  0  0  0  0  0  0  0  0  0  0  0
    4.5212    0.4094    0.0000 C   0  0  0  0  0  0  0  0  0  0  0  0
    9.6702    0.9391    0.0000 C   0  0  0  0  0  0  0  0  0  0  0  0
    6.2487   -1.5658    0.0000 C   0  0  0  0  0  0  0  0  0  0  0  0
    7.9381    0.9391    0.0000 C   0  0  0  0  0  0  0  0  0  0  0  0
    7.7146   -2.6907    0.0000 C   0  0  0  0  0  0  0  0  0  0  0  0
    9.2146   -3.5567    0.0000 C   0  0  0  0  0  0  0  0  0  0  0  0
    8.6452    2.6463    0.0000 C   0  0  0  0  0  0  0  0  0  0  0  0
   12.4849    2.1416    0.0000 C   0  0  0  0  0  0  0  0  0  0  0  0
    3.4074   -0.7643    0.0000 C   0  0  0  0  0  0  0  0  0  0  0  0
   10.5362    1.2891    0.0000 H   0  0  0  0  0  0  0  0  0  0  0  0
    5.4294   -1.2390    0.0000 H   0  0  0  0  0  0  0  0  0  0  0  0
   11.4467    0.0903    0.0000 H   0  0  0  0  0  0  0  0  0  0  0  0
    5.2821   -1.2706    0.0000 H   0  0  0  0  0  0  0  0  0  0  0  0
   10.9897   -0.9836    0.0000 H   0  0  0  0  0  0  0  0  0  0  0  0
    9.9252   -0.4559    0.0000 H   0  0  0  0  0  0  0  0  0  0  0  0
    6.9282   -0.1723    0.0000 H   0  0  0  0  0  0  0  0  0  0  0  0
    7.0268    0.5761    0.0000 H   0  0  0  0  0  0  0  0  0  0  0  0
   10.2184   -2.1847    0.0000 H   0  0  0  0  0  0  0  0  0  0  0  0
   10.7945   -1.6521    0.0000 H   0  0  0  0  0  0  0  0  0  0  0  0
    5.8754    1.7399    0.0000 H   0  0  0  0  0  0  0  0  0  0  0  0
    5.6691    0.9700    0.0000 H   0  0  0  0  0  0  0  0  0  0  0  0
    9.2146   -1.2047    0.0000 H   0  0  0  0  0  0  0  0  0  0  0  0
    7.0986    2.5380    0.0000 H   0  0  0  0  0  0  0  0  0  0  0  0
    8.6157   -1.6642    0.0000 H   0  0  0  0  0  0  0  0  0  0  0  0
    6.4012    2.2491    0.0000 H   0  0  0  0  0  0  0  0  0  0  0  0
    9.3346   -2.6907    0.0000 H   0  0  0  0  0  0  0  0  0  0  0  0
    8.5109    1.7019    0.0000 H   0  0  0  0  0  0  0  0  0  0  0  0
   12.0058   -0.0045    0.0000 H   0  0  0  0  0  0  0  0  0  0  0  0
   12.8174    0.1680    0.0000 H   0  0  0  0  0  0  0  0  0  0  0  0
    5.0940    0.6467    0.0000 H   0  0  0  0  0  0  0  0  0  0  0  0
    4.3452    1.0039    0.0000 H   0  0  0  0  0  0  0  0  0  0  0  0
    7.3276    1.0468    0.0000 H   0  0  0  0  0  0  0  0  0  0  0  0
    7.7261    0.3565    0.0000 H   0  0  0  0  0  0  0  0  0  0  0  0
    7.1320   -2.9027    0.0000 H   0  0  0  0  0  0  0  0  0  0  0  0
    7.8222   -3.3013    0.0000 H   0  0  0  0  0  0  0  0  0  0  0  0
   11.0460    2.3485    0.0000 H   0  0  0  0  0  0  0  0  0  0  0  0
    4.4230   -1.8044    0.0000 H   0  0  0  0  0  0  0  0  0  0  0  0
    8.6776   -3.8667    0.0000 H   0  0  0  0  0  0  0  0  0  0  0  0
    9.0836    2.2078    0.0000 H   0  0  0  0  0  0  0  0  0  0  0  0
    9.5246   -4.0936    0.0000 H   0  0  0  0  0  0  0  0  0  0  0  0
    9.0836    3.0847    0.0000 H   0  0  0  0  0  0  0  0  0  0  0  0
    9.7515   -3.2467    0.0000 H   0  0  0  0  0  0  0  0  0  0  0  0
    8.2068    3.0847    0.0000 H   0  0  0  0  0  0  0  0  0  0  0  0
   13.5082    3.1199    0.0000 H   0  0  0  0  0  0  0  0  0  0  0  0
   12.5272    3.5567    0.0000 H   0  0  0  0  0  0  0  0  0  0  0  0
    2.0000   -0.9175    0.0000 H   0  0  0  0  0  0  0  0  0  0  0  0
    2.5124   -1.8612    0.0000 H   0  0  0  0  0  0  0  0  0  0  0  0
  1 25  1  0  0  0  0
  1 27  1  0  0  0  0
  2 26  1  0  0  0  0
  2 28  1  0  0  0  0
  3 25  2  0  0  0  0
  4 26  2  0  0  0  0
  5 13  1  0  0  0  0
  5 31  1  0  0  0  0
  5 59  1  0  0  0  0
  6 14  1  0  0  0  0
  6 32  1  0  0  0  0
  6 60  1  0  0  0  0
  7 23  1  0  0  0  0
  7 31  2  0  0  0  0
  8 24  1  0  0  0  0
  8 32  2  0  0  0  0
  9 31  1  0  0  0  0
  9 67  1  0  0  0  0
  9 68  1  0  0  0  0
 10 32  1  0  0  0  0
 10 69  1  0  0  0  0
 10 70  1  0  0  0  0
 11 13  1  0  0  0  0
 11 15  1  0  0  0  0
 11 25  1  0  0  0  0
 11 33  1  6  0  0  0
 12 14  1  0  0  0  0
 12 16  1  0  0  0  0
 12 26  1  0  0  0  0
 12 34  1  6  0  0  0
 13 23  1  0  0  0  0
 13 35  1  6  0  0  0
 14 24  1  0  0  0  0
 14 36  1  6  0  0  0
 15 17  1  0  0  0  0
 15 37  1  0  0  0  0
 15 38  1  0  0  0  0
 16 18  1  0  0  0  0
 16 39  1  0  0  0  0
 16 40  1  0  0  0  0
 17 19  1  0  0  0  0
 17 41  1  0  0  0  0
 17 42  1  0  0  0  0
 18 20  1  0  0  0  0
 18 43  1  0  0  0  0
 18 44  1  0  0  0  0
 19 21  1  0  0  0  0
 19 45  1  0  0  0  0
 19 47  1  0  0  0  0
 20 22  1  0  0  0  0
 20 46  1  0  0  0  0
 20 48  1  0  0  0  0
 21 28  1  0  0  0  0
 21 29  1  1  0  0  0
 21 49  1  0  0  0  0
 22 27  1  0  0  0  0
 22 30  1  1  0  0  0
 22 50  1  0  0  0  0
 23 51  1  0  0  0  0
 23 52  1  0  0  0  0
 24 53  1  0  0  0  0
 24 54  1  0  0  0  0
 27 55  1  0  0  0  0
 27 56  1  0  0  0  0
 28 57  1  0  0  0  0
 28 58  1  0  0  0  0
 29 61  1  0  0  0  0
 29 63  1  0  0  0  0
 29 65  1  0  0  0  0
 30 62  1  0  0  0  0
 30 64  1  0  0  0  0
 30 66  1  0  0  0  0
M  END
> <PUBCHEM_COMPOUND_CID>
120699

> <PUBCHEM_COMPOUND_CANONICALIZED>
1

> <PUBCHEM_CACTVS_COMPLEXITY>
667

> <PUBCHEM_CACTVS_HBOND_ACCEPTOR>
6

> <PUBCHEM_CACTVS_HBOND_DONOR>
4

> <PUBCHEM_CACTVS_ROTATABLE_BOND>
2

> <PUBCHEM_CACTVS_SUBSKEYS>
AAADcfB7uAAAAAAAAAAAAAAAAAAAAQIAAAAAAAAAAAAAAAAAAAAAHgAQAAAADSjhgAYDCALABAAoAACQLAAAAAEAAAABAIEIAACAQBoAiAAWAAAGEAIAAAG8yOCOAAAAAAAAAAAAAAAAAAAAAAAAAAAAAA==

> <PUBCHEM_IUPAC_OPENEYE_NAME>
(3R,7R,11R,15R)-3,11-bis[(5R)-2-amino-4,5-dihydro-1H-imidazol-5-yl]-7,15-dimethyl-1,9-dioxacyclohexadecane-2,10-dione

> <PUBCHEM_IUPAC_CAS_NAME>
(3R,7R,11R,15R)-3,11-bis[(5R)-2-amino-4,5-dihydro-1H-imidazol-5-yl]-7,15-dimethyl-1,9-dioxacyclohexadecane-2,10-dione

> <PUBCHEM_IUPAC_NAME>
(3R,7R,11R,15R)-3,11-bis[(5R)-2-amino-4,5-dihydro-1H-imidazol-5-yl]-7,15-dimethyl-1,9-dioxacyclohexadecane-2,10-dione

> <PUBCHEM_IUPAC_SYSTEMATIC_NAME>
(3R,7R,11R,15R)-3,11-bis[(5R)-2-azanyl-4,5-dihydro-1H-imidazol-5-yl]-7,15-dimethyl-1,9-dioxacyclohexadecane-2,10-dione

> <PUBCHEM_IUPAC_TRADITIONAL_NAME>
(3R,7R,11R,15R)-3,11-bis[(4R)-2-amino-2-imidazolin-4-yl]-7,15-dimethyl-1,9-dioxacyclohexadecane-2,10-quinone

> <PUBCHEM_IUPAC_INCHI>
InChI=1S/C22H38N6O4/c1-13-5-3-7-15(17-9-25-21(23)27-17)20(30)32-12-14(2)6-4-8-16(19(29)31-11-13)18-10-26-22(24)28-18/h13-18H,3-12H2,1-2H3,(H3,23,25,27)(H3,24,26,28)/t13-,14-,15-,16-,17+,18+/m1/s1

> <PUBCHEM_IUPAC_INCHIKEY>
CGGAHJGHSHWGLE-WJQMWINMSA-N

> <PUBCHEM_XLOGP3_AA>
0.8

> <PUBCHEM_EXACT_MASS>
450.295454

> <PUBCHEM_MOLECULAR_FORMULA>
C22H38N6O4

> <PUBCHEM_MOLECULAR_WEIGHT>
450.57492

> <PUBCHEM_OPENEYE_CAN_SMILES>
CC1CCCC(C(=O)OCC(CCCC(C(=O)OC1)C2CN=C(N2)N)C)C3CN=C(N3)N

> <PUBCHEM_OPENEYE_ISO_SMILES>
C[C@@H]1CCC[C@@H](C(=O)OC[C@@H](CCC[C@@H](C(=O)OC1)[C@@H]2CN=C(N2)N)C)[C@@H]3CN=C(N3)N

> <PUBCHEM_CACTVS_TPSA>
153

> <PUBCHEM_MONOISOTOPIC_WEIGHT>
450.295454

> <PUBCHEM_TOTAL_CHARGE>
0

> <PUBCHEM_HEAVY_ATOM_COUNT>
32

> <PUBCHEM_ATOM_DEF_STEREO_COUNT>
6

> <PUBCHEM_ATOM_UDEF_STEREO_COUNT>
0

> <PUBCHEM_BOND_DEF_STEREO_COUNT>
0

> <PUBCHEM_BOND_UDEF_STEREO_COUNT>
0

> <PUBCHEM_ISOTOPIC_ATOM_COUNT>
0

> <PUBCHEM_COMPONENT_COUNT>
1

> <PUBCHEM_CACTVS_TAUTO_COUNT>
21

> <PUBCHEM_COORDINATE_TYPE>
1
5
255

> <PUBCHEM_BONDANNOTATIONS>
11  33  6
12  34  6
13  35  6
14  36  6
21  29  5
22  30  5

$$$$

