42850
  -OEChem-07051213122D

 35 36  0     1  0  0  0  0  0999 V2000
    2.0000    2.4182    0.0000 Cl  0  0  0  0  0  0  0  0  0  0  0  0
    5.6808    2.1206    0.0000 O   0  0  0  0  0  0  0  0  0  0  0  0
    3.9595    2.5818    0.0000 O   0  0  0  0  0  0  0  0  0  0  0  0
    2.0000    0.4182    0.0000 O   0  0  0  0  0  0  0  0  0  0  0  0
    3.7320    0.4182    0.0000 N   0  0  0  0  0  0  0  0  0  0  0  0
    4.5981    0.9182    0.0000 C   0  0  3  0  0  0  0  0  0  0  0  0
    5.5116    0.5114    0.0000 C   0  0  0  0  0  0  0  0  0  0  0  0
    6.1808    1.2546    0.0000 C   0  0  0  0  0  0  0  0  0  0  0  0
    3.7320   -0.5818    0.0000 C   0  0  0  0  0  0  0  0  0  0  0  0
    4.7026    1.9127    0.0000 C   0  0  0  0  0  0  0  0  0  0  0  0
    2.8660   -1.0818    0.0000 C   0  0  0  0  0  0  0  0  0  0  0  0
    4.5981   -1.0818    0.0000 C   0  0  0  0  0  0  0  0  0  0  0  0
    2.8660    0.9182    0.0000 C   0  0  0  0  0  0  0  0  0  0  0  0
    2.8660   -2.0818    0.0000 C   0  0  0  0  0  0  0  0  0  0  0  0
    4.5981   -2.0818    0.0000 C   0  0  0  0  0  0  0  0  0  0  0  0
    2.0000   -0.5818    0.0000 C   0  0  0  0  0  0  0  0  0  0  0  0
    5.4641   -0.5818    0.0000 C   0  0  0  0  0  0  0  0  0  0  0  0
    2.8660    1.9182    0.0000 C   0  0  0  0  0  0  0  0  0  0  0  0
    3.7320   -2.5818    0.0000 C   0  0  0  0  0  0  0  0  0  0  0  0
    4.6426    0.0693    0.0000 H   0  0  0  0  0  0  0  0  0  0  0  0
    5.2016   -0.0255    0.0000 H   0  0  0  0  0  0  0  0  0  0  0  0
    6.0132    0.1470    0.0000 H   0  0  0  0  0  0  0  0  0  0  0  0
    6.5956    0.7938    0.0000 H   0  0  0  0  0  0  0  0  0  0  0  0
    6.6823    1.6190    0.0000 H   0  0  0  0  0  0  0  0  0  0  0  0
    2.3291   -2.3918    0.0000 H   0  0  0  0  0  0  0  0  0  0  0  0
    5.1350   -2.3918    0.0000 H   0  0  0  0  0  0  0  0  0  0  0  0
    2.3100   -0.0449    0.0000 H   0  0  0  0  0  0  0  0  0  0  0  0
    1.4631   -0.2718    0.0000 H   0  0  0  0  0  0  0  0  0  0  0  0
    1.6900   -1.1188    0.0000 H   0  0  0  0  0  0  0  0  0  0  0  0
    5.7741   -1.1188    0.0000 H   0  0  0  0  0  0  0  0  0  0  0  0
    6.0010   -0.2718    0.0000 H   0  0  0  0  0  0  0  0  0  0  0  0
    5.1541   -0.0449    0.0000 H   0  0  0  0  0  0  0  0  0  0  0  0
    3.4766    1.8105    0.0000 H   0  0  0  0  0  0  0  0  0  0  0  0
    3.0781    2.5008    0.0000 H   0  0  0  0  0  0  0  0  0  0  0  0
    3.7320   -3.2018    0.0000 H   0  0  0  0  0  0  0  0  0  0  0  0
  1 18  1  0  0  0  0
  2  8  1  0  0  0  0
  2 10  1  0  0  0  0
  3 10  2  0  0  0  0
  4 13  2  0  0  0  0
  5  6  1  0  0  0  0
  5  9  1  0  0  0  0
  5 13  1  0  0  0  0
  6  7  1  0  0  0  0
  6 10  1  0  0  0  0
  6 20  1  0  0  0  0
  7  8  1  0  0  0  0
  7 21  1  0  0  0  0
  7 22  1  0  0  0  0
  8 23  1  0  0  0  0
  8 24  1  0  0  0  0
  9 11  2  0  0  0  0
  9 12  1  0  0  0  0
 11 14  1  0  0  0  0
 11 16  1  0  0  0  0
 12 15  2  0  0  0  0
 12 17  1  0  0  0  0
 13 18  1  0  0  0  0
 14 19  2  0  0  0  0
 14 25  1  0  0  0  0
 15 19  1  0  0  0  0
 15 26  1  0  0  0  0
 16 27  1  0  0  0  0
 16 28  1  0  0  0  0
 16 29  1  0  0  0  0
 17 30  1  0  0  0  0
 17 31  1  0  0  0  0
 17 32  1  0  0  0  0
 18 33  1  0  0  0  0
 18 34  1  0  0  0  0
 19 35  1  0  0  0  0
M  END
> <PUBCHEM_COMPOUND_CID>
42850

> <PUBCHEM_COMPOUND_CANONICALIZED>
1

> <PUBCHEM_CACTVS_COMPLEXITY>
351

> <PUBCHEM_CACTVS_HBOND_ACCEPTOR>
3

> <PUBCHEM_CACTVS_HBOND_DONOR>
0

> <PUBCHEM_CACTVS_ROTATABLE_BOND>
3

> <PUBCHEM_CACTVS_SUBSKEYS>
AAADceByMAAEAAAAAAAAAAAAAAAAASAAAAAwAAAAAAAAAAABAAAAHgIAAAAADCvhmEYyyIMABACIAiXSWACCAAAhAAAIiAGIRIhKIDLAkbHHIAhmhgDYyAcSgEAOAAACAAACAAAAAAQAAAQAAAAAAAAAAA==

> <PUBCHEM_IUPAC_OPENEYE_NAME>
2-chloro-N-(2,6-dimethylphenyl)-N-(2-oxotetrahydrofuran-3-yl)acetamide

> <PUBCHEM_IUPAC_CAS_NAME>
2-chloro-N-(2,6-dimethylphenyl)-N-(2-oxo-3-oxolanyl)acetamide

> <PUBCHEM_IUPAC_NAME>
2-chloro-N-(2,6-dimethylphenyl)-N-(2-oxooxolan-3-yl)acetamide

> <PUBCHEM_IUPAC_SYSTEMATIC_NAME>
2-chloranyl-N-(2,6-dimethylphenyl)-N-(2-oxidanylideneoxolan-3-yl)ethanamide

> <PUBCHEM_IUPAC_TRADITIONAL_NAME>
2-chloro-N-(2,6-dimethylphenyl)-N-(2-ketotetrahydrofuran-3-yl)acetamide

> <PUBCHEM_IUPAC_INCHI>
InChI=1S/C14H16ClNO3/c1-9-4-3-5-10(2)13(9)16(12(17)8-15)11-6-7-19-14(11)18/h3-5,11H,6-8H2,1-2H3

> <PUBCHEM_IUPAC_INCHIKEY>
OWDLFBLNMPCXSD-UHFFFAOYSA-N

> <PUBCHEM_XLOGP3_AA>
2.7

> <PUBCHEM_EXACT_MASS>
281.081871

> <PUBCHEM_MOLECULAR_FORMULA>
C14H16ClNO3

> <PUBCHEM_MOLECULAR_WEIGHT>
281.73474

> <PUBCHEM_OPENEYE_CAN_SMILES>
CC1=C(C(=CC=C1)C)N(C2CCOC2=O)C(=O)CCl

> <PUBCHEM_OPENEYE_ISO_SMILES>
CC1=C(C(=CC=C1)C)N(C2CCOC2=O)C(=O)CCl

> <PUBCHEM_CACTVS_TPSA>
46.6

> <PUBCHEM_MONOISOTOPIC_WEIGHT>
281.081871

> <PUBCHEM_TOTAL_CHARGE>
0

> <PUBCHEM_HEAVY_ATOM_COUNT>
19

> <PUBCHEM_ATOM_DEF_STEREO_COUNT>
0

> <PUBCHEM_ATOM_UDEF_STEREO_COUNT>
1

> <PUBCHEM_BOND_DEF_STEREO_COUNT>
0

> <PUBCHEM_BOND_UDEF_STEREO_COUNT>
0

> <PUBCHEM_ISOTOPIC_ATOM_COUNT>
0

> <PUBCHEM_COMPONENT_COUNT>
1

> <PUBCHEM_CACTVS_TAUTO_COUNT>
2

> <PUBCHEM_COORDINATE_TYPE>
1
5
255

> <PUBCHEM_BONDANNOTATIONS>
11  14  8
12  15  8
14  19  8
15  19  8
6  20  3
9  11  8
9  12  8

$$$$

