   Color/Form
        Liquid
   from [1]HSDB

   Color/Form

     * Colorless solid
     * Crystals from petroleum ether
     * PURE ALPHA-ISOMER IS WHITE, CRYSTALLINE POWDER

   from [2]HSDB

   Odor
        Floral, lilac
   from [3]HSDB

   Taste

     * Lime
     * PEACH, FLORAL (LILAC) FLAVOR
     * SWEET, LIME TASTE

   from [4]HSDB

   Boiling Point
        80-81.5 deg C @ 5 mm Hg
   from [5]HSDB

   Boiling Point
        218-221 deg
   from [6]HSDB

   Melting Point
        Solidifies @ 36.4 deg C
   from [7]HSDB

   Melting Point
        35-40 deg C
   from [8]HSDB

   Density/Specific Gravity
        0.935 @ 20 deg C/4 deg C
   from [9]HSDB

   Density/Specific Gravity
        0.935 at 20 deg C/20 deg C
   from [10]HSDB

   Dissociation Constants
        pKa = 19.3 (est)
   from [11]HSDB

   Octanol/Water Partition Coefficient
        log Kow = 2.98
   from [12]HSDB

   Solubilities

     * 1:8 OR MORE IN 50% ALCOHOL; SOL IN PROPYLENE GLYCOL
     * Very soluble in benzene, acetone
     * Very sol in alcohol, ether.
     * In water, 7100 mg/L at 25 deg C

   from [13]HSDB

   Spectral Properties
        Index of refraction: 1.4820 @ 20 deg C/D; specific optical
   rotation: -100 deg @ 20 deg C/D (c= 20 in alc)
   from [14]HSDB

   Spectral Properties

     * Index of refraction: 1.4831 at 20 C/D
     * Specific optical rotation: 106.4 deg at 20 deg C/D
     * IR: 5807 (Coblentz Society Spectral Collection) (2438-12-2)
     * 1H NMR: 10387 (Sadtler Research Laboratories Spectral Collection)
       (2438-12-2)
     * Raman: 1030 (Sadtler Research Laboratories Spectral Collection)
       (2438-12-2)
     * MASS: 940 (Atlas of Mass Spectral Data, John Wiley & Sons, New
       York) (2438-12-2)

   from [15]HSDB

   Vapor Pressure
        5 mm Hg @ 80 to 81 mm Hg
   from [16]HSDB

   Vapor Pressure
        0.00423 mm Hg at 24 deg C
   from [17]HSDB

   Other Chemical/Physical Properties
        BP: 81-82 deg C @ 4.5 mm Hg; density: 0.9338 @ 20 deg C/4 deg C;
   index of refraction: 1.4818; specific optical rotation: +92.45 deg @ 20
   deg C/D; solidifies @ 31 deg C /d-Form/
   from [18]HSDB

   Other Chemical/Physical Properties

     * Liquid; bp: 206-207 deg C at 731 mm Hg; density: 0.9338 at 20 deg
       C/4 deg C; index of refraction: 1.4818 at 20 deg C/D; specific
       optical rotation: +92.45 deg C/D; solidifies at 31 deg C /d-Form/
     * Liquid. BP: 80-81.5 deg C at 5 mm Hg; MP: solidifies at 36.4 deg C.
       Density: 0.935 at 20 deg C/4 deg C. Index of refraction: 1.4820 at
       20 deg C/D; specific optical rotation: -100 deg at 20 deg C/D (c=
       20 in alc) /l-Terpineol/
     * VP: 5 mm Hg at 80 to 81 mm Hg /l-Terpineol/
     * Colorless liquid or transparent crystal form; lilac odor
       /Terpineol/
     * VISCOUS @ ROOM TEMP; MP: 40-41 DEG C /D-ISOMER/; CONGEALING POINT:
       +2 DEG C
     * INSOL IN WATER; SOL IN ALL PROP IN ALC AND ETHER. MAX ABSORPTION
       (ALC): 265 NM (LOG E= 3.84). SADTLER REFERENCE NUMBER: 22478 (IR,
       PRISM). /DL-FORM/
     * Heat of volatilization: 18.0 kJ/mol; Heat of solvation: -11.0
       kJ/mol [Copolovici LO et al; Chemosphere 61: 1390-1400 (2005)]
       [19]PubMed Abstract
     * Henry's Law constant = 2.30X10-6 atm-cu m/mol at 25 deg C
       [Copolovici LO et al; Chemosphere 61: 1390-1400 (2005)] [20]PubMed
       Abstract
     * Hydroxyl radical reaction rate constant = 1.9X10-10 cu
       cm/molecule-sec at 25 deg C [Wells JR; Environ Sci Technol. 39:
       6937-6943 (2005)] [21]PubMed Abstract

   from [22]HSDB

   Computed Properties
   Molecular Weight                  154.24932 [g/mol]
   Molecular Formula                 C[10]H[18]O
   XLogP3-AA                         1.8
   H-Bond Donor                      1
   H-Bond Acceptor                   1
   Rotatable Bond Count              1
   Exact Mass                        154.135765
   MonoIsotopic Mass                 154.135765
   Topological Polar Surface Area    20.2
   Heavy Atom Count                  11
   Formal Charge                     0
   Complexity                        168
   Isotope Atom Count                0
   Defined Atom Stereocenter Count   0
   Undefined Atom Stereocenter Count 1
   Defined Bond Stereocenter Count   0
   Undefined Bond Stereocenter Count 0
   Covalently-Bonded Unit Count      1
   Feature 3D Acceptor Count         1
   Feature 3D Donor Count            1
   Feature 3D Hydrophobe Count       1
   Feature 3D Ring Count             1
   Effective Rotor Count             1.8
   Conformer Sampling RMSD           0.4
   CID Conformer Count               [23]4

References

   1. http://toxnet.nlm.nih.gov/cgi-bin/sis/search/r?dbs+hsdb:@term+@rn+@rel+10482-56-1
   2. http://toxnet.nlm.nih.gov/cgi-bin/sis/search/r?dbs+hsdb:@term+@rn+@rel+98-55-5
   3. http://toxnet.nlm.nih.gov/cgi-bin/sis/search/r?dbs+hsdb:@term+@rn+@rel+98-55-5
   4. http://toxnet.nlm.nih.gov/cgi-bin/sis/search/r?dbs+hsdb:@term+@rn+@rel+98-55-5
   5. http://toxnet.nlm.nih.gov/cgi-bin/sis/search/r?dbs+hsdb:@term+@rn+@rel+10482-56-1
   6. http://toxnet.nlm.nih.gov/cgi-bin/sis/search/r?dbs+hsdb:@term+@rn+@rel+98-55-5
   7. http://toxnet.nlm.nih.gov/cgi-bin/sis/search/r?dbs+hsdb:@term+@rn+@rel+10482-56-1
   8. http://toxnet.nlm.nih.gov/cgi-bin/sis/search/r?dbs+hsdb:@term+@rn+@rel+98-55-5
   9. http://toxnet.nlm.nih.gov/cgi-bin/sis/search/r?dbs+hsdb:@term+@rn+@rel+10482-56-1
  10. http://toxnet.nlm.nih.gov/cgi-bin/sis/search/r?dbs+hsdb:@term+@rn+@rel+98-55-5
  11. http://toxnet.nlm.nih.gov/cgi-bin/sis/search/r?dbs+hsdb:@term+@rn+@rel+98-55-5
  12. http://toxnet.nlm.nih.gov/cgi-bin/sis/search/r?dbs+hsdb:@term+@rn+@rel+98-55-5
  13. http://toxnet.nlm.nih.gov/cgi-bin/sis/search/r?dbs+hsdb:@term+@rn+@rel+98-55-5
  14. http://toxnet.nlm.nih.gov/cgi-bin/sis/search/r?dbs+hsdb:@term+@rn+@rel+10482-56-1
  15. http://toxnet.nlm.nih.gov/cgi-bin/sis/search/r?dbs+hsdb:@term+@rn+@rel+98-55-5
  16. http://toxnet.nlm.nih.gov/cgi-bin/sis/search/r?dbs+hsdb:@term+@rn+@rel+10482-56-1
  17. http://toxnet.nlm.nih.gov/cgi-bin/sis/search/r?dbs+hsdb:@term+@rn+@rel+98-55-5
  18. http://toxnet.nlm.nih.gov/cgi-bin/sis/search/r?dbs+hsdb:@term+@rn+@rel+10482-56-1
  19. http://www.ncbi.nlm.nih.gov/entrez/query.fcgi?cmd=Retrieve&db=pubmed&dopt=Abstract&list_uids=15967478
  20. http://www.ncbi.nlm.nih.gov/entrez/query.fcgi?cmd=Retrieve&db=pubmed&dopt=Abstract&list_uids=15967478
  21. http://www.ncbi.nlm.nih.gov/entrez/query.fcgi?cmd=Retrieve&db=pubmed&dopt=Abstract&list_uids=16201614
  22. http://toxnet.nlm.nih.gov/cgi-bin/sis/search/r?dbs+hsdb:@term+@rn+@rel+98-55-5
  23. http://pubchem.ncbi.nlm.nih.gov/vw3d/vw3d.cgi?cid=17100
