   Chemical and Physical Properties References

   [1]USDA ARS - USDA chemical properties

   [2]USDA ARS - USDA chemical properties
   from [3]ChemIDplus

   Color/Form

     * Monoclinic, spear-shaped plates from absolute alcohol
     * White, crystalline solid
     * LEAVES FROM ALCOHOL

   from [4]HSDB

   Taste
        Pleasant acid taste
   from [5]HSDB

   Melting Point
        160.5 deg C
   from [6]HSDB

   Corrosivity
        Mildly corrosive
   from [7]HSDB

   Dissociation Constants
        pKa1= 4.1; pKa2= 9.02
   from [8]HSDB

   Solubilities

     * Soluble in ethanol
     * In water, 2.56X10+5 mg/l @ 20 deg C.

   from [9]HSDB

   Spectral Properties
        IR: 247 (Coblentz Society Spectral Collection)
   from [10]HSDB

   Vapor Pressure
        <7.5X10-8 mm Hg @ 25 deg C
   from [11]HSDB

   Other Chemical/Physical Properties

     * Strong dibasic acid.
     * Water high in calcium, magnesium and iron may cause precipitation;
       these cations form insoluble methane arsonate salts.

   from [12]HSDB

   Computed Properties
   Molecular Weight                  139.9702 [g/mol]
   Molecular Formula                 CH[5]AsO[3]
   H-Bond Donor                      2
   H-Bond Acceptor                   3
   Rotatable Bond Count              0
   Exact Mass                        139.945466
   MonoIsotopic Mass                 139.945466
   Topological Polar Surface Area    57.5
   Heavy Atom Count                  5
   Formal Charge                     0
   Complexity                        61.3
   Isotope Atom Count                0
   Defined Atom Stereocenter Count   0
   Undefined Atom Stereocenter Count 0
   Defined Bond Stereocenter Count   0
   Undefined Bond Stereocenter Count 0
   Covalently-Bonded Unit Count      1

References

   1. http://www.ars.usda.gov/SP2UserFiles/ad_hoc/12755100DatabaseFiles/PesticidePropertiesDatabase/IndividualPesticideFiles/DSMA.TXT
   2. http://www.ars.usda.gov/SP2UserFiles/ad_hoc/12755100DatabaseFiles/PesticidePropertiesDatabase/IndividualPesticideFiles/MSMA.TXT
   3. http://chem.sis.nlm.nih.gov/chemidplus/
   4. http://toxnet.nlm.nih.gov/cgi-bin/sis/search/r?dbs+hsdb:@term+@rn+@rel+124-58-3
   5. http://toxnet.nlm.nih.gov/cgi-bin/sis/search/r?dbs+hsdb:@term+@rn+@rel+124-58-3
   6. http://toxnet.nlm.nih.gov/cgi-bin/sis/search/r?dbs+hsdb:@term+@rn+@rel+124-58-3
   7. http://toxnet.nlm.nih.gov/cgi-bin/sis/search/r?dbs+hsdb:@term+@rn+@rel+124-58-3
   8. http://toxnet.nlm.nih.gov/cgi-bin/sis/search/r?dbs+hsdb:@term+@rn+@rel+124-58-3
   9. http://toxnet.nlm.nih.gov/cgi-bin/sis/search/r?dbs+hsdb:@term+@rn+@rel+124-58-3
  10. http://toxnet.nlm.nih.gov/cgi-bin/sis/search/r?dbs+hsdb:@term+@rn+@rel+124-58-3
  11. http://toxnet.nlm.nih.gov/cgi-bin/sis/search/r?dbs+hsdb:@term+@rn+@rel+124-58-3
  12. http://toxnet.nlm.nih.gov/cgi-bin/sis/search/r?dbs+hsdb:@term+@rn+@rel+124-58-3
