   Color/Form

     * OILY LIQUID
     * WATER-WHITE TO PALE YELLOW LIQUID
     * Water-white to pale-yellow liquid ...

   from [1]HSDB

   Odor

     * ODOR REMINISCENT OF PEPPERMINT & ACETONE
     * ... Peppermint- or acetone-like odor.

   from [2]HSDB

   Boiling Point
        155.6 DEG C @ 760 MM HG; 132.5 DEG C @ 400 MM HG; 110.3 DEG C @
   200 MM HG; 90.4 DEG C @ 100 MM HG; 77.5 DEG C @ 60 MM HG; 67.8 DEG C @
   40 MM HG; 52.5 DEG C @ 20 MM HG; 38.7 DEG C @ 10 MM HG; 26.4 DEG C @ 5
   MM HG; 1.4 DEG C @ 1.0 MM HG
   from [3]HSDB

   Melting Point
        -31 DEG C
   from [4]HSDB

   Corrosivity
        Corrosive
   from [5]HSDB

   Critical Temperature and Pressure
        Critical temp: 673 deg F= 356 deg C= 629 deg K; Critical pressure:
   560 psia= 38 atm= 3.8 MN/sq m
   from [6]HSDB

   Density/Specific Gravity
        0.9421 @ 25 DEG C/4 DEG C; 0.9478 @ 20 DEG C/4 DEG C
   from [7]HSDB

   Heat of Combustion
        -15,430 btu/lb= -8570 cal/g= -358.8x10+5 J/kg
   from [8]HSDB

   Heat of Vaporization
        45.06 kJ/mol @ 25 deg C
   from [9]HSDB

   Octanol/Water Partition Coefficient
        Log Kow= 0.81
   from [10]HSDB

   Solubilities

     * 150 G/L IN WATER @ 10 DEG C; 50 G/L IN WATER @ 30 DEG C
     * SOL IN ACETONE; ETHYL ETHER; ETHANOL; WATER
     * SOLUBLE IN ALCOHOL, ETHER, AND OTHER COMMON ORGANIC SOLVENTS

   from [11]HSDB

   Spectral Properties

     * INDEX OF REFRACTION: 1.4507 @ 20 DEG C
     * MAX ABSORPTION (ALCOHOL): 284 NM (LOG E= 1.26); SADTLER REFERENCE
       NUMBER: 166 (IR, PRISM); 51 (IR, GRATING)
     * IR: 4789 (Coblentz Society Spectral Collection)
     * UV: 65 (Sadtler Research Laboratories Spectral Collection)
     * NMR: 10208 (Sadtler Research Laboratories Spectral Collection)
     * MASS: 227 (Atlas of Mass Spectral Data, John Wiley & Sons, New
       York)

   from [12]HSDB

   Surface Tension
        35.05 dynes/cm @ 20 deg C
   from [13]HSDB

   Vapor Density
        3.4 (air= 1)
   from [14]HSDB

   Vapor Pressure
        5 mm Hg at 26.4 deg C
   from [15]HSDB

   Relative Evaporation Rate

     * EVAPORATION RATE: 40.6 (ETHER= 1)
     * Evaporation rate: 0.29 (Butylacetate = 1)

   from [16]HSDB

   Viscosity
        2.2 mPa.s (=cP) @ 25 deg C
   from [17]HSDB

   Other Chemical/Physical Properties

     * PERCENT IN SATURATED AIR: 0.60; 1 MG/L= 249 PPM @ 25 DEG C, 760 MM
       HG; 1 PPM= 4.02 MG/CU M
     * SOLUBILITY OF WATER IN CYCLOHEXANONE: 87 G/L AT 20 DEG C.

   from [18]HSDB

   Computed Properties
   Molecular Weight                  98.143 [g/mol]
   Molecular Formula                 C[6]H[10]O
   XLogP3                            0.8
   H-Bond Donor                      0
   H-Bond Acceptor                   1
   Rotatable Bond Count              0
   Tautomer Count                    2
   Exact Mass                        98.073165
   MonoIsotopic Mass                 98.073165
   Topological Polar Surface Area    17.1
   Heavy Atom Count                  7
   Formal Charge                     0
   Complexity                        68.2
   Isotope Atom Count                0
   Defined Atom Stereocenter Count   0
   Undefined Atom Stereocenter Count 0
   Defined Bond Stereocenter Count   0
   Undefined Bond Stereocenter Count 0
   Covalently-Bonded Unit Count      1
   Feature 3D Acceptor Count         1
   Feature 3D Ring Count             1
   Effective Rotor Count             1
   Conformer Sampling RMSD           0.4
   CID Conformer Count               [19]1

References

   1. http://toxnet.nlm.nih.gov/cgi-bin/sis/search/r?dbs+hsdb:@term+@rn+@rel+108-94-1
   2. http://toxnet.nlm.nih.gov/cgi-bin/sis/search/r?dbs+hsdb:@term+@rn+@rel+108-94-1
   3. http://toxnet.nlm.nih.gov/cgi-bin/sis/search/r?dbs+hsdb:@term+@rn+@rel+108-94-1
   4. http://toxnet.nlm.nih.gov/cgi-bin/sis/search/r?dbs+hsdb:@term+@rn+@rel+108-94-1
   5. http://toxnet.nlm.nih.gov/cgi-bin/sis/search/r?dbs+hsdb:@term+@rn+@rel+108-94-1
   6. http://toxnet.nlm.nih.gov/cgi-bin/sis/search/r?dbs+hsdb:@term+@rn+@rel+108-94-1
   7. http://toxnet.nlm.nih.gov/cgi-bin/sis/search/r?dbs+hsdb:@term+@rn+@rel+108-94-1
   8. http://toxnet.nlm.nih.gov/cgi-bin/sis/search/r?dbs+hsdb:@term+@rn+@rel+108-94-1
   9. http://toxnet.nlm.nih.gov/cgi-bin/sis/search/r?dbs+hsdb:@term+@rn+@rel+108-94-1
  10. http://toxnet.nlm.nih.gov/cgi-bin/sis/search/r?dbs+hsdb:@term+@rn+@rel+108-94-1
  11. http://toxnet.nlm.nih.gov/cgi-bin/sis/search/r?dbs+hsdb:@term+@rn+@rel+108-94-1
  12. http://toxnet.nlm.nih.gov/cgi-bin/sis/search/r?dbs+hsdb:@term+@rn+@rel+108-94-1
  13. http://toxnet.nlm.nih.gov/cgi-bin/sis/search/r?dbs+hsdb:@term+@rn+@rel+108-94-1
  14. http://toxnet.nlm.nih.gov/cgi-bin/sis/search/r?dbs+hsdb:@term+@rn+@rel+108-94-1
  15. http://toxnet.nlm.nih.gov/cgi-bin/sis/search/r?dbs+hsdb:@term+@rn+@rel+108-94-1
  16. http://toxnet.nlm.nih.gov/cgi-bin/sis/search/r?dbs+hsdb:@term+@rn+@rel+108-94-1
  17. http://toxnet.nlm.nih.gov/cgi-bin/sis/search/r?dbs+hsdb:@term+@rn+@rel+108-94-1
  18. http://toxnet.nlm.nih.gov/cgi-bin/sis/search/r?dbs+hsdb:@term+@rn+@rel+108-94-1
  19. http://pubchem.ncbi.nlm.nih.gov/vw3d/vw3d.cgi?cid=7967
