   Color/Form

     * COLORLESS OR WHITE CRYSTALS, OR WHITE GRANULES OR POWDER
     * COLORLESS, RHOMBIC OR HEXAGONAL CRYSTALS

   from [1]HSDB

   Odor
        ODORLESS
   from [2]HSDB

   Taste
        HARD, BITTER, SALINE TASTE
   from [3]HSDB

   Boiling Point
        1689 DEG C
   from [4]HSDB

   Melting Point
        1067 DEG C
   from [5]HSDB

   Density/Specific Gravity
        2.66
   from [6]HSDB

   pH
        AQ SOLN IS NEUTRAL; PH ABOUT 7
   from [7]HSDB

   Solubilities

     * 1 G DISSOLVES IN: 8.3 ML WATER, 4 ML BOILING WATER, 75 ML GLYCEROL;
       PRACTICALLY INSOL IN SATURATED SOLN OF AMMONIUM SULFATE; INSOL IN
       ALC
     * INSOL IN ACETATE, CARBON DISULFIDE

   from [8]HSDB

   Spectral Properties
        INDEX OF REFRACTION: 1.494, 1.495, 1.497
   from [9]HSDB

   Other Chemical/Physical Properties

     * TRANSITION POINT: 588 DEG C
     * ITS SOLUBILITY IN WATER IS DECR BY KCL OR (NH4)2SO4

   from [10]HSDB

   Computed Properties
   Molecular Weight                  174.2592 [g/mol]
   Molecular Formula                 K[2]O[4]S
   H-Bond Donor                      0
   H-Bond Acceptor                   4
   Rotatable Bond Count              0
   Exact Mass                        173.879143
   MonoIsotopic Mass                 173.879143
   Topological Polar Surface Area    88.6
   Heavy Atom Count                  7
   Formal Charge                     0
   Complexity                        62.2
   Isotope Atom Count                0
   Defined Atom Stereocenter Count   0
   Undefined Atom Stereocenter Count 0
   Defined Bond Stereocenter Count   0
   Undefined Bond Stereocenter Count 0
   Covalently-Bonded Unit Count      3

References

   1. http://toxnet.nlm.nih.gov/cgi-bin/sis/search/r?dbs+hsdb:@term+@rn+@rel+7778-80-5
   2. http://toxnet.nlm.nih.gov/cgi-bin/sis/search/r?dbs+hsdb:@term+@rn+@rel+7778-80-5
   3. http://toxnet.nlm.nih.gov/cgi-bin/sis/search/r?dbs+hsdb:@term+@rn+@rel+7778-80-5
   4. http://toxnet.nlm.nih.gov/cgi-bin/sis/search/r?dbs+hsdb:@term+@rn+@rel+7778-80-5
   5. http://toxnet.nlm.nih.gov/cgi-bin/sis/search/r?dbs+hsdb:@term+@rn+@rel+7778-80-5
   6. http://toxnet.nlm.nih.gov/cgi-bin/sis/search/r?dbs+hsdb:@term+@rn+@rel+7778-80-5
   7. http://toxnet.nlm.nih.gov/cgi-bin/sis/search/r?dbs+hsdb:@term+@rn+@rel+7778-80-5
   8. http://toxnet.nlm.nih.gov/cgi-bin/sis/search/r?dbs+hsdb:@term+@rn+@rel+7778-80-5
   9. http://toxnet.nlm.nih.gov/cgi-bin/sis/search/r?dbs+hsdb:@term+@rn+@rel+7778-80-5
  10. http://toxnet.nlm.nih.gov/cgi-bin/sis/search/r?dbs+hsdb:@term+@rn+@rel+7778-80-5
