5281847
  -OEChem-07051213002D

 66 69  0     0  0  0  0  0  0999 V2000
    9.3900   -0.6081    0.0000 O   0  0  0  0  0  0  0  0  0  0  0  0
    7.6300    2.4266    0.0000 O   0  0  0  0  0  0  0  0  0  0  0  0
    5.8980   -0.5734    0.0000 O   0  0  0  0  0  0  0  0  0  0  0  0
    6.5820    3.3060    0.0000 O   0  0  0  0  0  0  0  0  0  0  0  0
    3.9284    1.0793    0.0000 O   0  0  0  0  0  0  0  0  0  0  0  0
    8.4960   -2.0734    0.0000 O   0  0  0  0  0  0  0  0  0  0  0  0
    3.3268    4.4908    0.0000 O   0  0  0  0  0  0  0  0  0  0  0  0
    2.3008    1.6717    0.0000 O   0  0  0  0  0  0  0  0  0  0  0  0
   10.2961   -0.0942    0.0000 C   0  0  0  0  0  0  0  0  0  0  0  0
    8.4960   -0.0734    0.0000 C   0  0  0  0  0  0  0  0  0  0  0  0
    8.4960    0.9266    0.0000 C   0  0  0  0  0  0  0  0  0  0  0  0
    6.7640    0.9266    0.0000 C   0  0  0  0  0  0  0  0  0  0  0  0
    5.8980    1.4266    0.0000 C   0  0  0  0  0  0  0  0  0  0  0  0
    7.6300    1.4266    0.0000 C   0  0  0  0  0  0  0  0  0  0  0  0
   10.2961    0.9474    0.0000 C   0  0  0  0  0  0  0  0  0  0  0  0
    7.6300   -0.5734    0.0000 C   0  0  0  0  0  0  0  0  0  0  0  0
    6.7640   -0.0734    0.0000 C   0  0  0  0  0  0  0  0  0  0  0  0
    9.3900    1.4613    0.0000 C   0  0  0  0  0  0  0  0  0  0  0  0
   11.2961   -0.0981    0.0000 C   0  0  0  0  0  0  0  0  0  0  0  0
   10.7927   -0.9622    0.0000 C   0  0  0  0  0  0  0  0  0  0  0  0
    5.2552    2.1926    0.0000 C   0  0  0  0  0  0  0  0  0  0  0  0
    5.5972    3.1323    0.0000 C   0  0  0  0  0  0  0  0  0  0  0  0
    4.2704    2.0190    0.0000 C   0  0  0  0  0  0  0  0  0  0  0  0
    7.6300   -1.5734    0.0000 C   0  0  0  0  0  0  0  0  0  0  0  0
    4.9544    3.8984    0.0000 C   0  0  0  0  0  0  0  0  0  0  0  0
    3.6276    2.7850    0.0000 C   0  0  0  0  0  0  0  0  0  0  0  0
    3.9696    3.7247    0.0000 C   0  0  0  0  0  0  0  0  0  0  0  0
    5.2964    4.8381    0.0000 C   0  0  0  0  0  0  0  0  0  0  0  0
    6.7640   -2.0734    0.0000 C   0  0  0  0  0  0  0  0  0  0  0  0
    2.6428    2.6114    0.0000 C   0  0  0  0  0  0  0  0  0  0  0  0
    6.7640   -3.0734    0.0000 C   0  0  0  0  0  0  0  0  0  0  0  0
    2.0000    3.3774    0.0000 C   0  0  0  0  0  0  0  0  0  0  0  0
    5.8980   -3.5734    0.0000 C   0  0  0  0  0  0  0  0  0  0  0  0
    5.0320   -3.0734    0.0000 C   0  0  0  0  0  0  0  0  0  0  0  0
    5.8980   -4.5734    0.0000 C   0  0  0  0  0  0  0  0  0  0  0  0
    4.1659   -3.5734    0.0000 C   0  0  0  0  0  0  0  0  0  0  0  0
    5.0320   -5.0734    0.0000 C   0  0  0  0  0  0  0  0  0  0  0  0
    4.1659   -4.5734    0.0000 C   0  0  0  0  0  0  0  0  0  0  0  0
    5.3040    1.2488    0.0000 H   0  0  0  0  0  0  0  0  0  0  0  0
    6.2965    1.9016    0.0000 H   0  0  0  0  0  0  0  0  0  0  0  0
   10.8318    1.2595    0.0000 H   0  0  0  0  0  0  0  0  0  0  0  0
    9.3828    2.0812    0.0000 H   0  0  0  0  0  0  0  0  0  0  0  0
   11.2937   -0.7181    0.0000 H   0  0  0  0  0  0  0  0  0  0  0  0
   11.9161   -0.1005    0.0000 H   0  0  0  0  0  0  0  0  0  0  0  0
   11.2984    0.5219    0.0000 H   0  0  0  0  0  0  0  0  0  0  0  0
   10.2546   -1.2701    0.0000 H   0  0  0  0  0  0  0  0  0  0  0  0
   11.1006   -1.5003    0.0000 H   0  0  0  0  0  0  0  0  0  0  0  0
   11.3308   -0.6542    0.0000 H   0  0  0  0  0  0  0  0  0  0  0  0
    7.0931    2.7366    0.0000 H   0  0  0  0  0  0  0  0  0  0  0  0
    5.3610   -0.2634    0.0000 H   0  0  0  0  0  0  0  0  0  0  0  0
    5.8790    4.6260    0.0000 H   0  0  0  0  0  0  0  0  0  0  0  0
    5.5085    5.4207    0.0000 H   0  0  0  0  0  0  0  0  0  0  0  0
    4.7138    5.0501    0.0000 H   0  0  0  0  0  0  0  0  0  0  0  0
    6.2271   -1.7634    0.0000 H   0  0  0  0  0  0  0  0  0  0  0  0
    6.7941    3.8886    0.0000 H   0  0  0  0  0  0  0  0  0  0  0  0
    3.3178    0.9716    0.0000 H   0  0  0  0  0  0  0  0  0  0  0  0
    7.3009   -3.3834    0.0000 H   0  0  0  0  0  0  0  0  0  0  0  0
    2.4750    3.7760    0.0000 H   0  0  0  0  0  0  0  0  0  0  0  0
    1.6015    3.8524    0.0000 H   0  0  0  0  0  0  0  0  0  0  0  0
    1.5250    2.9789    0.0000 H   0  0  0  0  0  0  0  0  0  0  0  0
    3.5389    5.0734    0.0000 H   0  0  0  0  0  0  0  0  0  0  0  0
    5.0320   -2.4534    0.0000 H   0  0  0  0  0  0  0  0  0  0  0  0
    6.4349   -4.8834    0.0000 H   0  0  0  0  0  0  0  0  0  0  0  0
    3.6290   -3.2634    0.0000 H   0  0  0  0  0  0  0  0  0  0  0  0
    5.0320   -5.6934    0.0000 H   0  0  0  0  0  0  0  0  0  0  0  0
    3.6290   -4.8834    0.0000 H   0  0  0  0  0  0  0  0  0  0  0  0
  1  9  1  0  0  0  0
  1 10  1  0  0  0  0
  2 14  1  0  0  0  0
  2 49  1  0  0  0  0
  3 17  1  0  0  0  0
  3 50  1  0  0  0  0
  4 22  1  0  0  0  0
  4 55  1  0  0  0  0
  5 23  1  0  0  0  0
  5 56  1  0  0  0  0
  6 24  2  0  0  0  0
  7 27  1  0  0  0  0
  7 61  1  0  0  0  0
  8 30  2  0  0  0  0
  9 15  1  0  0  0  0
  9 19  1  0  0  0  0
  9 20  1  0  0  0  0
 10 11  1  0  0  0  0
 10 16  2  0  0  0  0
 11 14  2  0  0  0  0
 11 18  1  0  0  0  0
 12 13  1  0  0  0  0
 12 14  1  0  0  0  0
 12 17  2  0  0  0  0
 13 21  1  0  0  0  0
 13 39  1  0  0  0  0
 13 40  1  0  0  0  0
 15 18  2  0  0  0  0
 15 41  1  0  0  0  0
 16 17  1  0  0  0  0
 16 24  1  0  0  0  0
 18 42  1  0  0  0  0
 19 43  1  0  0  0  0
 19 44  1  0  0  0  0
 19 45  1  0  0  0  0
 20 46  1  0  0  0  0
 20 47  1  0  0  0  0
 20 48  1  0  0  0  0
 21 22  1  0  0  0  0
 21 23  2  0  0  0  0
 22 25  2  0  0  0  0
 23 26  1  0  0  0  0
 24 29  1  0  0  0  0
 25 27  1  0  0  0  0
 25 28  1  0  0  0  0
 26 27  2  0  0  0  0
 26 30  1  0  0  0  0
 28 51  1  0  0  0  0
 28 52  1  0  0  0  0
 28 53  1  0  0  0  0
 29 31  2  0  0  0  0
 29 54  1  0  0  0  0
 30 32  1  0  0  0  0
 31 33  1  0  0  0  0
 31 57  1  0  0  0  0
 32 58  1  0  0  0  0
 32 59  1  0  0  0  0
 32 60  1  0  0  0  0
 33 34  2  0  0  0  0
 33 35  1  0  0  0  0
 34 36  1  0  0  0  0
 34 62  1  0  0  0  0
 35 37  2  0  0  0  0
 35 63  1  0  0  0  0
 36 38  2  0  0  0  0
 36 64  1  0  0  0  0
 37 38  1  0  0  0  0
 37 65  1  0  0  0  0
 38 66  1  0  0  0  0
M  END
> <PUBCHEM_COMPOUND_CID>
5281847

> <PUBCHEM_COMPOUND_CANONICALIZED>
1

> <PUBCHEM_CACTVS_COMPLEXITY>
921

> <PUBCHEM_CACTVS_HBOND_ACCEPTOR>
8

> <PUBCHEM_CACTVS_HBOND_DONOR>
5

> <PUBCHEM_CACTVS_ROTATABLE_BOND>
6

> <PUBCHEM_CACTVS_SUBSKEYS>
AAADceB4PAAAAAAAAAAAAAAAAAAAAAAAAAAwYMEAAAAAAACBUAAAGgAACAAADESAmAAyBoAABgCIAqBSAAACCAAkIAAIiAEECMgMJzaGNRqCeWCl4BUIuYeI7OzOIAACCAAIAABAAAQQABAAAAAAAAAAAA==

> <PUBCHEM_IUPAC_OPENEYE_NAME>
(E)-1-[6-[(3-acetyl-2,4,6-trihydroxy-5-methyl-phenyl)methyl]-5,7-dihydroxy-2,2-dimethyl-chromen-8-yl]-3-phenyl-prop-2-en-1-one

> <PUBCHEM_IUPAC_CAS_NAME>
(E)-1-[6-[(3-acetyl-2,4,6-trihydroxy-5-methylphenyl)methyl]-5,7-dihydroxy-2,2-dimethyl-1-benzopyran-8-yl]-3-phenyl-2-propen-1-one

> <PUBCHEM_IUPAC_NAME>
(E)-1-[6-[(3-acetyl-2,4,6-trihydroxy-5-methylphenyl)methyl]-5,7-dihydroxy-2,2-dimethylchromen-8-yl]-3-phenylprop-2-en-1-one

> <PUBCHEM_IUPAC_SYSTEMATIC_NAME>
(E)-1-[6-[[3-ethanoyl-5-methyl-2,4,6-tris(oxidanyl)phenyl]methyl]-2,2-dimethyl-5,7-bis(oxidanyl)chromen-8-yl]-3-phenyl-prop-2-en-1-one

> <PUBCHEM_IUPAC_TRADITIONAL_NAME>
(E)-1-[6-(3-acetyl-2,4,6-trihydroxy-5-methyl-benzyl)-5,7-dihydroxy-2,2-dimethyl-chromen-8-yl]-3-phenyl-prop-2-en-1-one

> <PUBCHEM_IUPAC_INCHI>
InChI=1S/C30H28O8/c1-15-24(33)19(27(36)22(16(2)31)25(15)34)14-20-26(35)18-12-13-30(3,4)38-29(18)23(28(20)37)21(32)11-10-17-8-6-5-7-9-17/h5-13,33-37H,14H2,1-4H3/b11-10+

> <PUBCHEM_IUPAC_INCHIKEY>
DEZFNHCVIZBHBI-ZHACJKMWSA-N

> <PUBCHEM_XLOGP3_AA>
5.9

> <PUBCHEM_EXACT_MASS>
516.178418

> <PUBCHEM_MOLECULAR_FORMULA>
C30H28O8

> <PUBCHEM_MOLECULAR_WEIGHT>
516.53852

> <PUBCHEM_OPENEYE_CAN_SMILES>
CC1=C(C(=C(C(=C1O)C(=O)C)O)CC2=C(C3=C(C(=C2O)C(=O)C=CC4=CC=CC=C4)OC(C=C3)(C)C)O)O

> <PUBCHEM_OPENEYE_ISO_SMILES>
CC1=C(C(=C(C(=C1O)C(=O)C)O)CC2=C(C3=C(C(=C2O)C(=O)/C=C/C4=CC=CC=C4)OC(C=C3)(C)C)O)O

> <PUBCHEM_CACTVS_TPSA>
145

> <PUBCHEM_MONOISOTOPIC_WEIGHT>
516.178418

> <PUBCHEM_TOTAL_CHARGE>
0

> <PUBCHEM_HEAVY_ATOM_COUNT>
38

> <PUBCHEM_ATOM_DEF_STEREO_COUNT>
0

> <PUBCHEM_ATOM_UDEF_STEREO_COUNT>
0

> <PUBCHEM_BOND_DEF_STEREO_COUNT>
1

> <PUBCHEM_BOND_UDEF_STEREO_COUNT>
0

> <PUBCHEM_ISOTOPIC_ATOM_COUNT>
0

> <PUBCHEM_COMPONENT_COUNT>
1

> <PUBCHEM_CACTVS_TAUTO_COUNT>
630

> <PUBCHEM_COORDINATE_TYPE>
1
5
255

> <PUBCHEM_BONDANNOTATIONS>
10  11  8
10  16  8
11  14  8
12  14  8
12  17  8
16  17  8
21  22  8
21  23  8
22  25  8
23  26  8
25  27  8
26  27  8
33  34  8
33  35  8
34  36  8
35  37  8
36  38  8
37  38  8

$$$$

