46173989
  -OEChem-07051213102D

 89 92  0     1  0  0  0  0  0999 V2000
   13.7953    4.6550    0.0000 O   0  0  0  0  0  0  0  0  0  0  0  0
    5.1350   -4.3450    0.0000 O   0  0  0  0  0  0  0  0  0  0  0  0
   16.3933    4.1550    0.0000 O   0  0  0  0  0  0  0  0  0  0  0  0
    3.4030   -6.3450    0.0000 O   0  0  0  0  0  0  0  0  0  0  0  0
   16.3933    6.1550    0.0000 O   0  0  0  0  0  0  0  0  0  0  0  0
    5.1350   -7.3450    0.0000 O   0  0  0  0  0  0  0  0  0  0  0  0
   12.9292    6.1550    0.0000 O   0  0  0  0  0  0  0  0  0  0  0  0
    6.8671   -4.3450    0.0000 O   0  0  0  0  0  0  0  0  0  0  0  0
   14.6613    7.1550    0.0000 O   0  0  0  0  0  0  0  0  0  0  0  0
    6.8671   -6.3450    0.0000 O   0  0  0  0  0  0  0  0  0  0  0  0
   15.5273    2.6550    0.0000 O   0  0  0  0  0  0  0  0  0  0  0  0
    2.5369   -4.8450    0.0000 O   0  0  0  0  0  0  0  0  0  0  0  0
   11.1972    7.1550    0.0000 O   0  0  0  0  0  0  0  0  0  0  0  0
    8.5991   -3.3450    0.0000 O   0  0  0  0  0  0  0  0  0  0  0  0
    7.7331    3.1550    0.0000 O   0  0  0  0  0  0  0  0  0  0  0  0
    6.8671    1.6550    0.0000 O   0  0  0  0  0  0  0  0  0  0  0  0
   15.5273    4.6550    0.0000 C   0  0  1  0  0  0  0  0  0  0  0  0
    4.2690   -5.8450    0.0000 C   0  0  1  0  0  0  0  0  0  0  0  0
   15.5273    5.6550    0.0000 C   0  0  1  0  0  0  0  0  0  0  0  0
    5.1350   -6.3450    0.0000 C   0  0  1  0  0  0  0  0  0  0  0  0
   14.6613    4.1550    0.0000 C   0  0  1  0  0  0  0  0  0  0  0  0
    4.2690   -4.8450    0.0000 C   0  0  1  0  0  0  0  0  0  0  0  0
   14.6613    6.1550    0.0000 C   0  0  2  0  0  0  0  0  0  0  0  0
    6.0010   -5.8450    0.0000 C   0  0  2  0  0  0  0  0  0  0  0  0
   13.7953    5.6550    0.0000 C   0  0  1  0  0  0  0  0  0  0  0  0
    6.0010   -4.8450    0.0000 C   0  0  1  0  0  0  0  0  0  0  0  0
   14.6613    3.1550    0.0000 C   0  0  0  0  0  0  0  0  0  0  0  0
    3.4030   -4.3450    0.0000 C   0  0  0  0  0  0  0  0  0  0  0  0
   12.0632    5.6550    0.0000 C   0  0  0  0  0  0  0  0  0  0  0  0
    6.8671   -3.3450    0.0000 C   0  0  0  0  0  0  0  0  0  0  0  0
   11.1972    6.1550    0.0000 C   0  0  0  0  0  0  0  0  0  0  0  0
    7.7331   -2.8450    0.0000 C   0  0  0  0  0  0  0  0  0  0  0  0
   12.0632    4.6550    0.0000 C   0  0  0  0  0  0  0  0  0  0  0  0
    6.0010   -2.8450    0.0000 C   0  0  0  0  0  0  0  0  0  0  0  0
   10.3312    5.6550    0.0000 C   0  0  0  0  0  0  0  0  0  0  0  0
    7.7331   -1.8450    0.0000 C   0  0  0  0  0  0  0  0  0  0  0  0
   11.1972    4.1550    0.0000 C   0  0  0  0  0  0  0  0  0  0  0  0
    6.0010   -1.8450    0.0000 C   0  0  0  0  0  0  0  0  0  0  0  0
   10.3312    4.6550    0.0000 C   0  0  0  0  0  0  0  0  0  0  0  0
    6.8671   -1.3450    0.0000 C   0  0  0  0  0  0  0  0  0  0  0  0
    9.4651    4.1550    0.0000 C   0  0  0  0  0  0  0  0  0  0  0  0
    6.8671   -0.3450    0.0000 C   0  0  0  0  0  0  0  0  0  0  0  0
   10.3312    7.6550    0.0000 C   0  0  0  0  0  0  0  0  0  0  0  0
    9.4651   -2.8450    0.0000 C   0  0  0  0  0  0  0  0  0  0  0  0
    9.4651    3.1550    0.0000 C   0  0  0  0  0  0  0  0  0  0  0  0
    7.7331    0.1550    0.0000 C   0  0  0  0  0  0  0  0  0  0  0  0
    8.5991    2.6550    0.0000 C   0  0  0  0  0  0  0  0  0  0  0  0
    7.7331    1.1550    0.0000 C   0  0  0  0  0  0  0  0  0  0  0  0
    8.5991    1.6550    0.0000 C   0  0  0  0  0  0  0  0  0  0  0  0
   15.5273    4.0350    0.0000 H   0  0  0  0  0  0  0  0  0  0  0  0
    4.2690   -6.4650    0.0000 H   0  0  0  0  0  0  0  0  0  0  0  0
   15.5273    6.2750    0.0000 H   0  0  0  0  0  0  0  0  0  0  0  0
    5.6720   -6.6550    0.0000 H   0  0  0  0  0  0  0  0  0  0  0  0
   14.1244    3.8450    0.0000 H   0  0  0  0  0  0  0  0  0  0  0  0
    4.2690   -4.2250    0.0000 H   0  0  0  0  0  0  0  0  0  0  0  0
   14.1244    6.4650    0.0000 H   0  0  0  0  0  0  0  0  0  0  0  0
    6.5380   -5.5350    0.0000 H   0  0  0  0  0  0  0  0  0  0  0  0
   13.7953    6.2750    0.0000 H   0  0  0  0  0  0  0  0  0  0  0  0
    6.5380   -5.1550    0.0000 H   0  0  0  0  0  0  0  0  0  0  0  0
   14.0507    3.2627    0.0000 H   0  0  0  0  0  0  0  0  0  0  0  0
   14.4492    2.5724    0.0000 H   0  0  0  0  0  0  0  0  0  0  0  0
    3.8015   -3.8700    0.0000 H   0  0  0  0  0  0  0  0  0  0  0  0
    3.0044   -3.8700    0.0000 H   0  0  0  0  0  0  0  0  0  0  0  0
   16.9303    4.4650    0.0000 H   0  0  0  0  0  0  0  0  0  0  0  0
    3.4030   -6.9650    0.0000 H   0  0  0  0  0  0  0  0  0  0  0  0
   16.9303    5.8450    0.0000 H   0  0  0  0  0  0  0  0  0  0  0  0
    4.5981   -7.6550    0.0000 H   0  0  0  0  0  0  0  0  0  0  0  0
   15.1982    7.4650    0.0000 H   0  0  0  0  0  0  0  0  0  0  0  0
    6.8671   -6.9650    0.0000 H   0  0  0  0  0  0  0  0  0  0  0  0
   15.5273    2.0350    0.0000 H   0  0  0  0  0  0  0  0  0  0  0  0
    2.0000   -4.5350    0.0000 H   0  0  0  0  0  0  0  0  0  0  0  0
   12.6002    4.3450    0.0000 H   0  0  0  0  0  0  0  0  0  0  0  0
    5.4641   -3.1550    0.0000 H   0  0  0  0  0  0  0  0  0  0  0  0
    9.7942    5.9650    0.0000 H   0  0  0  0  0  0  0  0  0  0  0  0
    8.2700   -1.5350    0.0000 H   0  0  0  0  0  0  0  0  0  0  0  0
   11.1972    3.5350    0.0000 H   0  0  0  0  0  0  0  0  0  0  0  0
    5.4641   -1.5350    0.0000 H   0  0  0  0  0  0  0  0  0  0  0  0
    8.9282    4.4650    0.0000 H   0  0  0  0  0  0  0  0  0  0  0  0
    6.3301   -0.0350    0.0000 H   0  0  0  0  0  0  0  0  0  0  0  0
   10.6412    8.1919    0.0000 H   0  0  0  0  0  0  0  0  0  0  0  0
    9.7942    7.9650    0.0000 H   0  0  0  0  0  0  0  0  0  0  0  0
   10.0212    7.1181    0.0000 H   0  0  0  0  0  0  0  0  0  0  0  0
    9.7751   -3.3819    0.0000 H   0  0  0  0  0  0  0  0  0  0  0  0
   10.0021   -2.5350    0.0000 H   0  0  0  0  0  0  0  0  0  0  0  0
    9.1551   -2.3081    0.0000 H   0  0  0  0  0  0  0  0  0  0  0  0
   10.0021    2.8450    0.0000 H   0  0  0  0  0  0  0  0  0  0  0  0
    8.2700   -0.1550    0.0000 H   0  0  0  0  0  0  0  0  0  0  0  0
    9.1360    1.3450    0.0000 H   0  0  0  0  0  0  0  0  0  0  0  0
    7.7331    3.7750    0.0000 H   0  0  0  0  0  0  0  0  0  0  0  0
  1 21  1  0  0  0  0
  1 25  1  0  0  0  0
  2 22  1  0  0  0  0
  2 26  1  0  0  0  0
 17  3  1  6  0  0  0
  3 64  1  0  0  0  0
 18  4  1  6  0  0  0
  4 65  1  0  0  0  0
 19  5  1  1  0  0  0
  5 66  1  0  0  0  0
 20  6  1  1  0  0  0
  6 67  1  0  0  0  0
 25  7  1  1  0  0  0
  7 29  1  0  0  0  0
 26  8  1  1  0  0  0
  8 30  1  0  0  0  0
 23  9  1  6  0  0  0
  9 68  1  0  0  0  0
 24 10  1  6  0  0  0
 10 69  1  0  0  0  0
 11 27  1  0  0  0  0
 11 70  1  0  0  0  0
 12 28  1  0  0  0  0
 12 71  1  0  0  0  0
 13 31  1  0  0  0  0
 13 43  1  0  0  0  0
 14 32  1  0  0  0  0
 14 44  1  0  0  0  0
 15 47  1  0  0  0  0
 15 89  1  0  0  0  0
 16 48  2  0  0  0  0
 17 19  1  0  0  0  0
 17 21  1  0  0  0  0
 17 50  1  0  0  0  0
 18 20  1  0  0  0  0
 18 22  1  0  0  0  0
 18 51  1  0  0  0  0
 19 23  1  0  0  0  0
 19 52  1  0  0  0  0
 20 24  1  0  0  0  0
 20 53  1  0  0  0  0
 21 27  1  1  0  0  0
 21 54  1  0  0  0  0
 22 28  1  1  0  0  0
 22 55  1  0  0  0  0
 23 25  1  0  0  0  0
 23 56  1  0  0  0  0
 24 26  1  0  0  0  0
 24 57  1  0  0  0  0
 25 58  1  0  0  0  0
 26 59  1  0  0  0  0
 27 60  1  0  0  0  0
 27 61  1  0  0  0  0
 28 62  1  0  0  0  0
 28 63  1  0  0  0  0
 29 31  2  0  0  0  0
 29 33  1  0  0  0  0
 30 32  2  0  0  0  0
 30 34  1  0  0  0  0
 31 35  1  0  0  0  0
 32 36  1  0  0  0  0
 33 37  2  0  0  0  0
 33 72  1  0  0  0  0
 34 38  2  0  0  0  0
 34 73  1  0  0  0  0
 35 39  2  0  0  0  0
 35 74  1  0  0  0  0
 36 40  2  0  0  0  0
 36 75  1  0  0  0  0
 37 39  1  0  0  0  0
 37 76  1  0  0  0  0
 38 40  1  0  0  0  0
 38 77  1  0  0  0  0
 39 41  1  0  0  0  0
 40 42  1  0  0  0  0
 41 45  2  0  0  0  0
 41 78  1  0  0  0  0
 42 46  2  0  0  0  0
 42 79  1  0  0  0  0
 43 80  1  0  0  0  0
 43 81  1  0  0  0  0
 43 82  1  0  0  0  0
 44 83  1  0  0  0  0
 44 84  1  0  0  0  0
 44 85  1  0  0  0  0
 45 47  1  0  0  0  0
 45 86  1  0  0  0  0
 46 48  1  0  0  0  0
 46 87  1  0  0  0  0
 47 49  2  0  0  0  0
 48 49  1  0  0  0  0
 49 88  1  0  0  0  0
M  END
> <PUBCHEM_COMPOUND_CID>
46173989

> <PUBCHEM_COMPOUND_CANONICALIZED>
1

> <PUBCHEM_CACTVS_COMPLEXITY>
1130

> <PUBCHEM_CACTVS_HBOND_ACCEPTOR>
16

> <PUBCHEM_CACTVS_HBOND_DONOR>
9

> <PUBCHEM_CACTVS_ROTATABLE_BOND>
13

> <PUBCHEM_CACTVS_SUBSKEYS>
AAADcfB8PgAAAAAAAAAAAAAAAAAAAAAAAAA0aIEAAAAAAAABQAAAGgAACAAADBSwmAMyDoAABgCIAqBSAAACCAAgIAAIiAAGiMgdNiKEMRqieCKlwBEPuYfA4BwOIAABAAAAQABAAAIAAACAAAAAAAAAAA==

> <PUBCHEM_IUPAC_OPENEYE_NAME>
(1E,4Z,6E)-5-hydroxy-1,7-bis[3-methoxy-4-[(2S,3R,4S,5S,6R)-3,4,5-trihydroxy-6-(hydroxymethyl)tetrahydropyran-2-yl]oxy-phenyl]hepta-1,4,6-trien-3-one

> <PUBCHEM_IUPAC_CAS_NAME>
(1E,4Z,6E)-5-hydroxy-1,7-bis[3-methoxy-4-[[(2S,3R,4S,5S,6R)-3,4,5-trihydroxy-6-(hydroxymethyl)-2-oxanyl]oxy]phenyl]-3-hepta-1,4,6-trienone

> <PUBCHEM_IUPAC_NAME>
(1E,4Z,6E)-5-hydroxy-1,7-bis[3-methoxy-4-[(2S,3R,4S,5S,6R)-3,4,5-trihydroxy-6-(hydroxymethyl)oxan-2-yl]oxyphenyl]hepta-1,4,6-trien-3-one

> <PUBCHEM_IUPAC_SYSTEMATIC_NAME>
(1E,4Z,6E)-1,7-bis[4-[(2S,3R,4S,5S,6R)-6-(hydroxymethyl)-3,4,5-tris(oxidanyl)oxan-2-yl]oxy-3-methoxy-phenyl]-5-oxidanyl-hepta-1,4,6-trien-3-one

> <PUBCHEM_IUPAC_TRADITIONAL_NAME>
(1E,4Z,6E)-5-hydroxy-1,7-bis[3-methoxy-4-[(2S,3R,4S,5S,6R)-3,4,5-trihydroxy-6-methylol-tetrahydropyran-2-yl]oxy-phenyl]hepta-1,4,6-trien-3-one

> <PUBCHEM_IUPAC_INCHI>
InChI=1S/C33H40O16/c1-44-22-11-16(5-9-20(22)46-32-30(42)28(40)26(38)24(14-34)48-32)3-7-18(36)13-19(37)8-4-17-6-10-21(23(12-17)45-2)47-33-31(43)29(41)27(39)25(15-35)49-33/h3-13,24-36,38-43H,14-15H2,1-2H3/b7-3+,8-4+,18-13-/t24-,25-,26-,27-,28+,29+,30-,31-,32-,33-/m1/s1

> <PUBCHEM_IUPAC_INCHIKEY>
HQRWPYNQQYEQRQ-ORWZVCRDSA-N

> <PUBCHEM_XLOGP3_AA>
0.4

> <PUBCHEM_EXACT_MASS>
692.231635

> <PUBCHEM_MOLECULAR_FORMULA>
C33H40O16

> <PUBCHEM_MOLECULAR_WEIGHT>
692.6611

> <PUBCHEM_OPENEYE_CAN_SMILES>
COC1=C(C=CC(=C1)C=CC(=CC(=O)C=CC2=CC(=C(C=C2)OC3C(C(C(C(O3)CO)O)O)O)OC)O)OC4C(C(C(C(O4)CO)O)O)O

> <PUBCHEM_OPENEYE_ISO_SMILES>
COC1=C(C=CC(=C1)/C=C/C(=C/C(=O)/C=C/C2=CC(=C(C=C2)O[C@H]3[C@@H]([C@H]([C@@H]([C@H](O3)CO)O)O)O)OC)/O)O[C@H]4[C@@H]([C@H]([C@@H]([C@H](O4)CO)O)O)O

> <PUBCHEM_CACTVS_TPSA>
255

> <PUBCHEM_MONOISOTOPIC_WEIGHT>
692.231635

> <PUBCHEM_TOTAL_CHARGE>
0

> <PUBCHEM_HEAVY_ATOM_COUNT>
49

> <PUBCHEM_ATOM_DEF_STEREO_COUNT>
10

> <PUBCHEM_ATOM_UDEF_STEREO_COUNT>
0

> <PUBCHEM_BOND_DEF_STEREO_COUNT>
3

> <PUBCHEM_BOND_UDEF_STEREO_COUNT>
0

> <PUBCHEM_ISOTOPIC_ATOM_COUNT>
0

> <PUBCHEM_COMPONENT_COUNT>
1

> <PUBCHEM_CACTVS_TAUTO_COUNT>
2

> <PUBCHEM_COORDINATE_TYPE>
1
5
255

> <PUBCHEM_BONDANNOTATIONS>
24  10  6
21  27  5
22  28  5
29  31  8
29  33  8
17  3  6
30  32  8
30  34  8
31  35  8
32  36  8
33  37  8
34  38  8
35  39  8
36  40  8
37  39  8
38  40  8
18  4  6
19  5  5
20  6  5
25  7  5
26  8  5
23  9  6

$$$$

