54675759
  -OEChem-07051212472D

 24 24  0     1  0  0  0  0  0999 V2000
    5.3128    2.5084    0.0000 S   0  0  0  0  0  0  0  0  0  0  0  0
    4.9467   -0.5304    0.0000 O   0  0  0  0  0  0  0  0  0  0  0  0
    2.3644   -1.2349    0.0000 O   0  0  0  0  0  0  0  0  0  0  0  0
    4.4467    2.0084    0.0000 O   0  0  0  0  0  0  0  0  0  0  0  0
    2.6867    0.7296    0.0000 O   0  0  0  0  0  0  0  0  0  0  0  0
    3.1779   -3.0620    0.0000 O   0  0  0  0  0  0  0  0  0  0  0  0
    6.2068    0.7296    0.0000 O   0  0  0  0  0  0  0  0  0  0  0  0
    6.1788    3.0084    0.0000 O   0  0  0  0  0  0  0  0  0  0  0  0
    4.8128    3.3744    0.0000 O   0  0  0  0  0  0  0  0  0  0  0  0
    5.8128    1.6424    0.0000 O   0  0  0  0  0  0  0  0  0  0  0  0
    3.9467   -0.5304    0.0000 C   0  0  2  0  0  0  0  0  0  0  0  0
    3.3590   -1.3394    0.0000 C   0  0  3  0  0  0  0  0  0  0  0  0
    3.6377    0.4206    0.0000 C   0  0  0  0  0  0  0  0  0  0  0  0
    4.4467    1.0084    0.0000 C   0  0  0  0  0  0  0  0  0  0  0  0
    3.7657   -2.2530    0.0000 C   0  0  0  0  0  0  0  0  0  0  0  0
    5.2558    0.4206    0.0000 C   0  0  0  0  0  0  0  0  0  0  0  0
    4.2282   -1.0829    0.0000 H   0  0  0  0  0  0  0  0  0  0  0  0
    3.0132   -0.5629    0.0000 H   0  0  0  0  0  0  0  0  0  0  0  0
    4.1964   -2.6990    0.0000 H   0  0  0  0  0  0  0  0  0  0  0  0
    4.2797   -1.9063    0.0000 H   0  0  0  0  0  0  0  0  0  0  0  0
    2.0000   -1.7365    0.0000 H   0  0  0  0  0  0  0  0  0  0  0  0
    2.5578    1.3361    0.0000 H   0  0  0  0  0  0  0  0  0  0  0  0
    3.4301   -3.6284    0.0000 H   0  0  0  0  0  0  0  0  0  0  0  0
    6.1788    3.6284    0.0000 H   0  0  0  0  0  0  0  0  0  0  0  0
  1  4  1  0  0  0  0
  1  8  1  0  0  0  0
  1  9  2  0  0  0  0
  1 10  2  0  0  0  0
  2 11  1  0  0  0  0
  2 16  1  0  0  0  0
  3 12  1  0  0  0  0
  3 21  1  0  0  0  0
  4 14  1  0  0  0  0
  5 13  1  0  0  0  0
  5 22  1  0  0  0  0
  6 15  1  0  0  0  0
  6 23  1  0  0  0  0
  7 16  2  0  0  0  0
  8 24  1  0  0  0  0
 11 12  1  6  0  0  0
 11 13  1  0  0  0  0
 11 17  1  0  0  0  0
 12 15  1  0  0  0  0
 12 18  1  0  0  0  0
 13 14  2  0  0  0  0
 14 16  1  0  0  0  0
 15 19  1  0  0  0  0
 15 20  1  0  0  0  0
M  END
> <PUBCHEM_COMPOUND_CID>
54675759

> <PUBCHEM_COMPOUND_CANONICALIZED>
1

> <PUBCHEM_CACTVS_COMPLEXITY>
416

> <PUBCHEM_CACTVS_HBOND_ACCEPTOR>
9

> <PUBCHEM_CACTVS_HBOND_DONOR>
4

> <PUBCHEM_CACTVS_ROTATABLE_BOND>
4

> <PUBCHEM_CACTVS_SUBSKEYS>
AAADccBgPABAAAAAAAAAAAAAAAAAAQAAAAAAAAAAAAAAAAAAAAAAGgAACAAACBSggAIACAAABoCIAADQCDIAAAAgIAAACABAAEgBFAAAIAACUAAFwAALIQJAAAAAAAAAAAAAAAAAAAAAAAAAAAAAAAAAAA==

> <PUBCHEM_IUPAC_OPENEYE_NAME>
[(2R)-2-(1,2-dihydroxyethyl)-3-hydroxy-5-oxo-2H-furan-4-yl] hydrogen sulfate

> <PUBCHEM_IUPAC_CAS_NAME>
sulfuric acid [(2R)-2-(1,2-dihydroxyethyl)-3-hydroxy-5-oxo-2H-furan-4-yl] ester

> <PUBCHEM_IUPAC_NAME>
[(2R)-2-(1,2-dihydroxyethyl)-3-hydroxy-5-oxo-2H-furan-4-yl] hydrogen sulfate

> <PUBCHEM_IUPAC_SYSTEMATIC_NAME>
[(2R)-2-[1,2-bis(oxidanyl)ethyl]-3-oxidanyl-5-oxidanylidene-2H-furan-4-yl] hydrogen sulfate

> <PUBCHEM_IUPAC_TRADITIONAL_NAME>
sulfuric acid [(2R)-2-(1,2-dihydroxyethyl)-3-hydroxy-5-keto-2H-furan-4-yl] ester

> <PUBCHEM_IUPAC_INCHI>
InChI=1S/C6H8O9S/c7-1-2(8)4-3(9)5(6(10)14-4)15-16(11,12)13/h2,4,7-9H,1H2,(H,11,12,13)/t2?,4-/m1/s1

> <PUBCHEM_IUPAC_INCHIKEY>
XDBMXUKHMOFBPJ-URVZRBSTSA-N

> <PUBCHEM_XLOGP3>
-2.2

> <PUBCHEM_EXACT_MASS>
255.988903

> <PUBCHEM_MOLECULAR_FORMULA>
C6H8O9S

> <PUBCHEM_MOLECULAR_WEIGHT>
256.18732

> <PUBCHEM_OPENEYE_CAN_SMILES>
C(C(C1C(=C(C(=O)O1)OS(=O)(=O)O)O)O)O

> <PUBCHEM_OPENEYE_ISO_SMILES>
C(C([C@@H]1C(=C(C(=O)O1)OS(=O)(=O)O)O)O)O

> <PUBCHEM_CACTVS_TPSA>
159

> <PUBCHEM_MONOISOTOPIC_WEIGHT>
255.988903

> <PUBCHEM_TOTAL_CHARGE>
0

> <PUBCHEM_HEAVY_ATOM_COUNT>
16

> <PUBCHEM_ATOM_DEF_STEREO_COUNT>
1

> <PUBCHEM_ATOM_UDEF_STEREO_COUNT>
1

> <PUBCHEM_BOND_DEF_STEREO_COUNT>
0

> <PUBCHEM_BOND_UDEF_STEREO_COUNT>
0

> <PUBCHEM_ISOTOPIC_ATOM_COUNT>
0

> <PUBCHEM_COMPONENT_COUNT>
1

> <PUBCHEM_CACTVS_TAUTO_COUNT>
5

> <PUBCHEM_COORDINATE_TYPE>
1
5
255

> <PUBCHEM_BONDANNOTATIONS>
11  12  6
12  18  3

$$$$

