443193
  -OEChem-07051213012D

 28 30  0     1  0  0  0  0  0999 V2000
    5.0294    0.2674    0.0000 O   0  0  0  0  0  0  0  0  0  0  0  0
    3.6267    0.6215    0.0000 O   0  0  0  0  0  0  0  0  0  0  0  0
    2.6200   -1.1067    0.0000 O   0  0  0  0  0  0  0  0  0  0  0  0
    2.6267    0.6253    0.0000 O   0  0  0  0  0  0  0  0  0  0  0  0
    5.9233   -0.2673    0.0000 C   0  0  0  0  0  0  0  0  0  0  0  0
    6.7894    0.2327    0.0000 C   0  0  0  0  0  0  0  0  0  0  0  0
    5.9233   -1.2673    0.0000 C   0  0  0  0  0  0  0  0  0  0  0  0
    4.1233   -0.2465    0.0000 C   0  0  3  0  0  0  0  0  0  0  0  0
    7.6554   -0.2673    0.0000 C   0  0  0  0  0  0  0  0  0  0  0  0
    5.0294   -1.8020    0.0000 C   0  0  0  0  0  0  0  0  0  0  0  0
    4.1233   -1.2881    0.0000 C   0  0  0  0  0  0  0  0  0  0  0  0
    6.7894   -1.7673    0.0000 C   0  0  0  0  0  0  0  0  0  0  0  0
    7.6554   -1.2673    0.0000 C   0  0  0  0  0  0  0  0  0  0  0  0
    6.7733    1.2742    0.0000 C   0  0  0  0  0  0  0  0  0  0  0  0
    8.5654    0.2395    0.0000 C   0  0  0  0  0  0  0  0  0  0  0  0
    3.1233   -0.2426    0.0000 C   0  0  0  0  0  0  0  0  0  0  0  0
    7.6713    1.8020    0.0000 C   0  0  0  0  0  0  0  0  0  0  0  0
    8.5734    1.2812    0.0000 C   0  0  0  0  0  0  0  0  0  0  0  0
    5.0366   -2.4219    0.0000 H   0  0  0  0  0  0  0  0  0  0  0  0
    3.5876   -1.6002    0.0000 H   0  0  0  0  0  0  0  0  0  0  0  0
    6.7894   -2.3873    0.0000 H   0  0  0  0  0  0  0  0  0  0  0  0
    8.1923   -1.5773    0.0000 H   0  0  0  0  0  0  0  0  0  0  0  0
    6.2328    1.5780    0.0000 H   0  0  0  0  0  0  0  0  0  0  0  0
    9.0987   -0.0766    0.0000 H   0  0  0  0  0  0  0  0  0  0  0  0
    7.6689    2.4220    0.0000 H   0  0  0  0  0  0  0  0  0  0  0  0
    9.1115    1.5891    0.0000 H   0  0  0  0  0  0  0  0  0  0  0  0
    3.9387    1.1572    0.0000 H   0  0  0  0  0  0  0  0  0  0  0  0
    2.0000   -1.1043    0.0000 H   0  0  0  0  0  0  0  0  0  0  0  0
  1  5  1  0  0  0  0
  1  8  1  0  0  0  0
  2  8  1  0  0  0  0
  2 27  1  0  0  0  0
  3 16  1  0  0  0  0
  3 28  1  0  0  0  0
  4 16  2  0  0  0  0
  5  6  1  0  0  0  0
  5  7  2  0  0  0  0
  6  9  1  0  0  0  0
  6 14  2  0  0  0  0
  7 10  1  0  0  0  0
  7 12  1  0  0  0  0
  8 11  1  0  0  0  0
  8 16  1  0  0  0  0
  9 13  1  0  0  0  0
  9 15  2  0  0  0  0
 10 11  2  0  0  0  0
 10 19  1  0  0  0  0
 11 20  1  0  0  0  0
 12 13  2  0  0  0  0
 12 21  1  0  0  0  0
 13 22  1  0  0  0  0
 14 17  1  0  0  0  0
 14 23  1  0  0  0  0
 15 18  1  0  0  0  0
 15 24  1  0  0  0  0
 17 18  2  0  0  0  0
 17 25  1  0  0  0  0
 18 26  1  0  0  0  0
M  END
> <PUBCHEM_COMPOUND_CID>
443193

> <PUBCHEM_COMPOUND_CANONICALIZED>
1

> <PUBCHEM_CACTVS_COMPLEXITY>
378

> <PUBCHEM_CACTVS_HBOND_ACCEPTOR>
4

> <PUBCHEM_CACTVS_HBOND_DONOR>
2

> <PUBCHEM_CACTVS_ROTATABLE_BOND>
1

> <PUBCHEM_CACTVS_SUBSKEYS>
AAADccBwOAAAAAAAAAAAAAAAAAAAAAAAAAAwYIAAAAAAAADBUAAAGgAACAAADASAmAAwDsAABgCIAiDSCAICCAAgIAAIiAFECIgdJiKEMR6CeCCkwBEPuAeAwPAOwAADAAAYAACAAAYAADAAAAAAAAAAAA==

> <PUBCHEM_IUPAC_OPENEYE_NAME>
2-hydroxybenzo[h]chromene-2-carboxylic acid

> <PUBCHEM_IUPAC_CAS_NAME>
2-hydroxy-2-benzo[h][1]benzopyrancarboxylic acid

> <PUBCHEM_IUPAC_NAME>
2-hydroxybenzo[h]chromene-2-carboxylic acid

> <PUBCHEM_IUPAC_SYSTEMATIC_NAME>
2-oxidanylbenzo[h]chromene-2-carboxylic acid

> <PUBCHEM_IUPAC_TRADITIONAL_NAME>
2-hydroxybenzo[h]chromene-2-carboxylic acid

> <PUBCHEM_IUPAC_INCHI>
InChI=1S/C14H10O4/c15-13(16)14(17)8-7-10-6-5-9-3-1-2-4-11(9)12(10)18-14/h1-8,17H,(H,15,16)

> <PUBCHEM_IUPAC_INCHIKEY>
JHPCFHVVWPKZJP-UHFFFAOYSA-N

> <PUBCHEM_XLOGP3_AA>
2.5

> <PUBCHEM_EXACT_MASS>
242.057909

> <PUBCHEM_MOLECULAR_FORMULA>
C14H10O4

> <PUBCHEM_MOLECULAR_WEIGHT>
242.2268

> <PUBCHEM_OPENEYE_CAN_SMILES>
C1=CC=C2C(=C1)C=CC3=C2OC(C=C3)(C(=O)O)O

> <PUBCHEM_OPENEYE_ISO_SMILES>
C1=CC=C2C(=C1)C=CC3=C2OC(C=C3)(C(=O)O)O

> <PUBCHEM_CACTVS_TPSA>
66.8

> <PUBCHEM_MONOISOTOPIC_WEIGHT>
242.057909

> <PUBCHEM_TOTAL_CHARGE>
0

> <PUBCHEM_HEAVY_ATOM_COUNT>
18

> <PUBCHEM_ATOM_DEF_STEREO_COUNT>
0

> <PUBCHEM_ATOM_UDEF_STEREO_COUNT>
1

> <PUBCHEM_BOND_DEF_STEREO_COUNT>
0

> <PUBCHEM_BOND_UDEF_STEREO_COUNT>
0

> <PUBCHEM_ISOTOPIC_ATOM_COUNT>
0

> <PUBCHEM_COMPONENT_COUNT>
1

> <PUBCHEM_CACTVS_TAUTO_COUNT>
1

> <PUBCHEM_COORDINATE_TYPE>
1
5
255

> <PUBCHEM_BONDANNOTATIONS>
12  13  8
14  17  8
15  18  8
17  18  8
8  2  3
5  6  8
5  7  8
6  14  8
6  9  8
7  12  8
9  13  8
9  15  8

$$$$

