441418
  -OEChem-07051212542D

 26 26  0     1  0  0  0  0  0999 V2000
    4.2690   -1.4400    0.0000 O   0  0  0  0  0  0  0  0  0  0  0  0
    4.2690    1.5600    0.0000 O   0  0  0  0  0  0  0  0  0  0  0  0
    6.0010    0.5600    0.0000 O   0  0  0  0  0  0  0  0  0  0  0  0
    2.5369    0.5600    0.0000 O   0  0  0  0  0  0  0  0  0  0  0  0
    2.5369   -1.4400    0.0000 O   0  0  0  0  0  0  0  0  0  0  0  0
    4.2690    0.5600    0.0000 C   0  0  1  0  0  0  0  0  0  0  0  0
    5.1350    0.0600    0.0000 C   0  0  2  0  0  0  0  0  0  0  0  0
    3.4030    0.0600    0.0000 C   0  0  2  0  0  0  0  0  0  0  0  0
    5.1350   -0.9400    0.0000 C   0  0  1  0  0  0  0  0  0  0  0  0
    3.4030   -0.9400    0.0000 C   0  0  1  0  0  0  0  0  0  0  0  0
    6.0010   -1.4400    0.0000 C   0  0  0  0  0  0  0  0  0  0  0  0
    5.1350    2.0600    0.0000 C   0  0  0  0  0  0  0  0  0  0  0  0
    4.8059    0.8700    0.0000 H   0  0  0  0  0  0  0  0  0  0  0  0
    5.1350    0.6800    0.0000 H   0  0  0  0  0  0  0  0  0  0  0  0
    3.4030    0.6800    0.0000 H   0  0  0  0  0  0  0  0  0  0  0  0
    5.1350   -1.5600    0.0000 H   0  0  0  0  0  0  0  0  0  0  0  0
    2.8660   -0.6300    0.0000 H   0  0  0  0  0  0  0  0  0  0  0  0
    5.6910   -1.9769    0.0000 H   0  0  0  0  0  0  0  0  0  0  0  0
    6.5380   -1.7500    0.0000 H   0  0  0  0  0  0  0  0  0  0  0  0
    6.3110   -0.9031    0.0000 H   0  0  0  0  0  0  0  0  0  0  0  0
    6.5380    0.2500    0.0000 H   0  0  0  0  0  0  0  0  0  0  0  0
    2.0000    0.2500    0.0000 H   0  0  0  0  0  0  0  0  0  0  0  0
    2.5369   -2.0600    0.0000 H   0  0  0  0  0  0  0  0  0  0  0  0
    5.4450    1.5231    0.0000 H   0  0  0  0  0  0  0  0  0  0  0  0
    5.6720    2.3700    0.0000 H   0  0  0  0  0  0  0  0  0  0  0  0
    4.8250    2.5969    0.0000 H   0  0  0  0  0  0  0  0  0  0  0  0
  1  9  1  0  0  0  0
  1 10  1  0  0  0  0
  6  2  1  1  0  0  0
  2 12  1  0  0  0  0
  7  3  1  1  0  0  0
  3 21  1  0  0  0  0
  8  4  1  6  0  0  0
  4 22  1  0  0  0  0
 10  5  1  1  0  0  0
  5 23  1  0  0  0  0
  6  7  1  0  0  0  0
  6  8  1  0  0  0  0
  6 13  1  0  0  0  0
  7  9  1  0  0  0  0
  7 14  1  0  0  0  0
  8 10  1  0  0  0  0
  8 15  1  0  0  0  0
  9 11  1  1  0  0  0
  9 16  1  0  0  0  0
 10 17  1  0  0  0  0
 11 18  1  0  0  0  0
 11 19  1  0  0  0  0
 11 20  1  0  0  0  0
 12 24  1  0  0  0  0
 12 25  1  0  0  0  0
 12 26  1  0  0  0  0
M  END
> <PUBCHEM_COMPOUND_CID>
441418

> <PUBCHEM_COMPOUND_CANONICALIZED>
1

> <PUBCHEM_CACTVS_COMPLEXITY>
151

> <PUBCHEM_CACTVS_HBOND_ACCEPTOR>
5

> <PUBCHEM_CACTVS_HBOND_DONOR>
3

> <PUBCHEM_CACTVS_ROTATABLE_BOND>
1

> <PUBCHEM_CACTVS_SUBSKEYS>
AAADccBgOAAAAAAAAAAAAAAAAAAAAAAAAAAkAAAAAAAAAAAAAAAAGgAACAAACBSwgAMCCAAABgAAAAAAAAAAAAAAAAAAAAAAAAAREAIAAAACQAAFAAAHAAHAYAQAAAAAAAAAAAAAAAAAAAAAAAAAAAAAAA==

> <PUBCHEM_IUPAC_OPENEYE_NAME>
(2R,3R,4S,5S,6R)-4-methoxy-6-methyl-tetrahydropyran-2,3,5-triol

> <PUBCHEM_IUPAC_CAS_NAME>
(2R,3R,4S,5S,6R)-4-methoxy-6-methyloxane-2,3,5-triol

> <PUBCHEM_IUPAC_NAME>
(2R,3R,4S,5S,6R)-4-methoxy-6-methyloxane-2,3,5-triol

> <PUBCHEM_IUPAC_SYSTEMATIC_NAME>
(2R,3R,4S,5S,6R)-4-methoxy-6-methyl-oxane-2,3,5-triol

> <PUBCHEM_IUPAC_TRADITIONAL_NAME>
(2R,3R,4S,5S,6R)-4-methoxy-6-methyl-tetrahydropyran-2,3,5-triol

> <PUBCHEM_IUPAC_INCHI>
InChI=1S/C7H14O5/c1-3-4(8)6(11-2)5(9)7(10)12-3/h3-10H,1-2H3/t3-,4+,5-,6+,7-/m1/s1

> <PUBCHEM_IUPAC_INCHIKEY>
OEKPKBBXXDGXNB-IBISWUOJSA-N

> <PUBCHEM_XLOGP3_AA>
-1.6

> <PUBCHEM_EXACT_MASS>
178.084124

> <PUBCHEM_MOLECULAR_FORMULA>
C7H14O5

> <PUBCHEM_MOLECULAR_WEIGHT>
178.18306

> <PUBCHEM_OPENEYE_CAN_SMILES>
CC1C(C(C(C(O1)O)O)OC)O

> <PUBCHEM_OPENEYE_ISO_SMILES>
C[C@@H]1[C@@H]([C@@H]([C@H]([C@@H](O1)O)O)OC)O

> <PUBCHEM_CACTVS_TPSA>
79.2

> <PUBCHEM_MONOISOTOPIC_WEIGHT>
178.084124

> <PUBCHEM_TOTAL_CHARGE>
0

> <PUBCHEM_HEAVY_ATOM_COUNT>
12

> <PUBCHEM_ATOM_DEF_STEREO_COUNT>
5

> <PUBCHEM_ATOM_UDEF_STEREO_COUNT>
0

> <PUBCHEM_BOND_DEF_STEREO_COUNT>
0

> <PUBCHEM_BOND_UDEF_STEREO_COUNT>
0

> <PUBCHEM_ISOTOPIC_ATOM_COUNT>
0

> <PUBCHEM_COMPONENT_COUNT>
1

> <PUBCHEM_CACTVS_TAUTO_COUNT>
1

> <PUBCHEM_COORDINATE_TYPE>
1
5
255

> <PUBCHEM_BONDANNOTATIONS>
6  2  5
7  3  5
8  4  6
10  5  5
9  11  5

$$$$

