8699
  -OEChem-06261203012D

 47 48  0     1  0  0  0  0  0999 V2000
    5.5270    0.0000    0.0000 Cl  0  0  0  0  0  0  0  0  0  0  0  0
    4.0010    6.1177    0.0000 O   0  0  0  0  0  0  0  0  0  0  0  0
   11.0094    4.9225    0.0000 O   0  0  0  0  0  0  0  0  0  0  0  0
   11.0094    3.3130    0.0000 O   0  0  0  0  0  0  0  0  0  0  0  0
    0.5369    5.1177    0.0000 O   0  0  0  0  0  0  0  0  0  0  0  0
    0.5369    3.1177    0.0000 O   0  0  0  0  0  0  0  0  0  0  0  0
    5.7331    5.1177    0.0000 N   0  0  0  0  0  0  0  0  0  0  0  0
    6.5991    4.6177    0.0000 C   0  0  3  0  0  0  0  0  0  0  0  0
    7.4651    5.1177    0.0000 C   0  0  0  0  0  0  0  0  0  0  0  0
    4.8671    4.6177    0.0000 C   0  0  0  0  0  0  0  0  0  0  0  0
    8.3312    4.6177    0.0000 C   0  0  0  0  0  0  0  0  0  0  0  0
    4.0010    5.1177    0.0000 C   0  0  3  0  0  0  0  0  0  0  0  0
    6.5991    3.6177    0.0000 C   0  0  0  0  0  0  0  0  0  0  0  0
    3.1350    4.6177    0.0000 C   0  0  0  0  0  0  0  0  0  0  0  0
    9.1972    5.1177    0.0000 C   0  0  0  0  0  0  0  0  0  0  0  0
    8.3312    3.6177    0.0000 C   0  0  0  0  0  0  0  0  0  0  0  0
   10.0632    4.6177    0.0000 C   0  0  0  0  0  0  0  0  0  0  0  0
   10.0632    3.6177    0.0000 C   0  0  0  0  0  0  0  0  0  0  0  0
    9.1972    3.1177    0.0000 C   0  0  0  0  0  0  0  0  0  0  0  0
    2.2690    5.1177    0.0000 C   0  0  0  0  0  0  0  0  0  0  0  0
    3.1350    3.6177    0.0000 C   0  0  0  0  0  0  0  0  0  0  0  0
   11.5930    4.1177    0.0000 C   0  0  0  0  0  0  0  0  0  0  0  0
    1.4030    4.6177    0.0000 C   0  0  0  0  0  0  0  0  0  0  0  0
    2.2690    3.1177    0.0000 C   0  0  0  0  0  0  0  0  0  0  0  0
    1.4030    3.6177    0.0000 C   0  0  0  0  0  0  0  0  0  0  0  0
    6.0622    4.3077    0.0000 H   0  0  0  0  0  0  0  0  0  0  0  0
    7.8637    5.5927    0.0000 H   0  0  0  0  0  0  0  0  0  0  0  0
    7.0666    5.5927    0.0000 H   0  0  0  0  0  0  0  0  0  0  0  0
    5.7331    5.7377    0.0000 H   0  0  0  0  0  0  0  0  0  0  0  0
    4.4685    4.1428    0.0000 H   0  0  0  0  0  0  0  0  0  0  0  0
    5.2656    4.1428    0.0000 H   0  0  0  0  0  0  0  0  0  0  0  0
    4.5380    5.4277    0.0000 H   0  0  0  0  0  0  0  0  0  0  0  0
    5.9791    3.6177    0.0000 H   0  0  0  0  0  0  0  0  0  0  0  0
    6.5991    2.9977    0.0000 H   0  0  0  0  0  0  0  0  0  0  0  0
    7.2191    3.6177    0.0000 H   0  0  0  0  0  0  0  0  0  0  0  0
    9.1972    5.7377    0.0000 H   0  0  0  0  0  0  0  0  0  0  0  0
    7.7942    3.3077    0.0000 H   0  0  0  0  0  0  0  0  0  0  0  0
    9.1972    2.4977    0.0000 H   0  0  0  0  0  0  0  0  0  0  0  0
    2.2690    5.7377    0.0000 H   0  0  0  0  0  0  0  0  0  0  0  0
    3.6720    3.3077    0.0000 H   0  0  0  0  0  0  0  0  0  0  0  0
    3.4641    6.4277    0.0000 H   0  0  0  0  0  0  0  0  0  0  0  0
   12.0539    3.7030    0.0000 H   0  0  0  0  0  0  0  0  0  0  0  0
   12.0539    4.5324    0.0000 H   0  0  0  0  0  0  0  0  0  0  0  0
    2.2690    2.4977    0.0000 H   0  0  0  0  0  0  0  0  0  0  0  0
    0.0000    4.8077    0.0000 H   0  0  0  0  0  0  0  0  0  0  0  0
    0.5369    2.4977    0.0000 H   0  0  0  0  0  0  0  0  0  0  0  0
    6.5270    0.0000    0.0000 H   0  0  0  0  0  0  0  0  0  0  0  0
  1 47  1  0  0  0  0
  2 12  1  0  0  0  0
  2 41  1  0  0  0  0
  3 17  1  0  0  0  0
  3 22  1  0  0  0  0
  4 18  1  0  0  0  0
  4 22  1  0  0  0  0
  5 23  1  0  0  0  0
  5 45  1  0  0  0  0
  6 25  1  0  0  0  0
  6 46  1  0  0  0  0
  7  8  1  0  0  0  0
  7 10  1  0  0  0  0
  7 29  1  0  0  0  0
  8  9  1  0  0  0  0
  8 13  1  0  0  0  0
  8 26  1  0  0  0  0
  9 11  1  0  0  0  0
  9 27  1  0  0  0  0
  9 28  1  0  0  0  0
 10 12  1  0  0  0  0
 10 30  1  0  0  0  0
 10 31  1  0  0  0  0
 11 15  2  0  0  0  0
 11 16  1  0  0  0  0
 12 14  1  0  0  0  0
 12 32  1  0  0  0  0
 13 33  1  0  0  0  0
 13 34  1  0  0  0  0
 13 35  1  0  0  0  0
 14 20  2  0  0  0  0
 14 21  1  0  0  0  0
 15 17  1  0  0  0  0
 15 36  1  0  0  0  0
 16 19  2  0  0  0  0
 16 37  1  0  0  0  0
 17 18  2  0  0  0  0
 18 19  1  0  0  0  0
 19 38  1  0  0  0  0
 20 23  1  0  0  0  0
 20 39  1  0  0  0  0
 21 24  2  0  0  0  0
 21 40  1  0  0  0  0
 22 42  1  0  0  0  0
 22 43  1  0  0  0  0
 23 25  2  0  0  0  0
 24 25  1  0  0  0  0
 24 44  1  0  0  0  0
M  END
> <PUBCHEM_COMPOUND_CID>
8699

> <PUBCHEM_COMPOUND_CANONICALIZED>
1

> <PUBCHEM_CACTVS_COMPLEXITY>
396

> <PUBCHEM_CACTVS_HBOND_ACCEPTOR>
6

> <PUBCHEM_CACTVS_HBOND_DONOR>
5

> <PUBCHEM_CACTVS_ROTATABLE_BOND>
6

> <PUBCHEM_CACTVS_SUBSKEYS>
AAADceB6OAAEAAAAAAAAAAAAAAAAASAAAAAwYAAAAAAAAEgBQAAAHgAQCAAADDzhmAcyDoLABgCAAiBCAAACCAAgIAAIiIAOiIgfNiKGsRukcCMk0BGfuAfQ8LcOIAABAAAAQABAAAIAAACAAAAAAAAAAA==

> <PUBCHEM_IUPAC_OPENEYE_NAME>
4-[2-[[2-(1,3-benzodioxol-5-yl)-1-methyl-ethyl]amino]-1-hydroxy-ethyl]benzene-1,2-diol hydrochloride

> <PUBCHEM_IUPAC_CAS_NAME>
4-[2-[1-(1,3-benzodioxol-5-yl)propan-2-ylamino]-1-hydroxyethyl]benzene-1,2-diol hydrochloride

> <PUBCHEM_IUPAC_NAME>
4-[2-[1-(1,3-benzodioxol-5-yl)propan-2-ylamino]-1-hydroxyethyl]benzene-1,2-diol hydrochloride

> <PUBCHEM_IUPAC_SYSTEMATIC_NAME>
4-[2-[1-(1,3-benzodioxol-5-yl)propan-2-ylamino]-1-oxidanyl-ethyl]benzene-1,2-diol hydrochloride

> <PUBCHEM_IUPAC_TRADITIONAL_NAME>
4-[2-[[2-(1,3-benzodioxol-5-yl)-1-methyl-ethyl]amino]-1-hydroxy-ethyl]pyrocatechol hydrochloride

> <PUBCHEM_IUPAC_INCHI>
InChI=1S/C18H21NO5.ClH/c1-11(6-12-2-5-17-18(7-12)24-10-23-17)19-9-16(22)13-3-4-14(20)15(21)8-13;/h2-5,7-8,11,16,19-22H,6,9-10H2,1H3;1H

> <PUBCHEM_IUPAC_INCHIKEY>
LOVXREQUMZKFCM-UHFFFAOYSA-N

> <PUBCHEM_EXACT_MASS>
367.11865

> <PUBCHEM_MOLECULAR_FORMULA>
C18H22ClNO5

> <PUBCHEM_MOLECULAR_WEIGHT>
367.82398

> <PUBCHEM_OPENEYE_CAN_SMILES>
CC(CC1=CC2=C(C=C1)OCO2)NCC(C3=CC(=C(C=C3)O)O)O.Cl

> <PUBCHEM_OPENEYE_ISO_SMILES>
CC(CC1=CC2=C(C=C1)OCO2)NCC(C3=CC(=C(C=C3)O)O)O.Cl

> <PUBCHEM_CACTVS_TPSA>
91.2

> <PUBCHEM_MONOISOTOPIC_WEIGHT>
367.11865

> <PUBCHEM_TOTAL_CHARGE>
0

> <PUBCHEM_HEAVY_ATOM_COUNT>
25

> <PUBCHEM_ATOM_DEF_STEREO_COUNT>
0

> <PUBCHEM_ATOM_UDEF_STEREO_COUNT>
2

> <PUBCHEM_BOND_DEF_STEREO_COUNT>
0

> <PUBCHEM_BOND_UDEF_STEREO_COUNT>
0

> <PUBCHEM_ISOTOPIC_ATOM_COUNT>
0

> <PUBCHEM_COMPONENT_COUNT>
2

> <PUBCHEM_CACTVS_TAUTO_COUNT>
10

> <PUBCHEM_COORDINATE_TYPE>
1
5
255

> <PUBCHEM_BONDANNOTATIONS>
11  15  8
11  16  8
14  20  8
14  21  8
15  17  8
16  19  8
17  18  8
18  19  8
12  2  3
20  23  8
21  24  8
23  25  8
24  25  8
8  13  3

$$$$

