255702
  -OEChem-07051213062D

 52 55  0     1  0  0  0  0  0999 V2000
    8.6500    1.5983    0.0000 O   0  0  0  0  0  0  0  0  0  0  0  0
    3.8076   -2.7551    0.0000 O   0  0  0  0  0  0  0  0  0  0  0  0
    2.0000   -2.7092    0.0000 O   0  0  0  0  0  0  0  0  0  0  0  0
   10.2963    1.0603    0.0000 O   0  0  0  0  0  0  0  0  0  0  0  0
    7.3931   -0.6569    0.0000 C   0  0  2  0  0  0  0  0  0  0  0  0
    7.3931    0.3431    0.0000 C   0  0  2  0  0  0  0  0  0  0  0  0
    6.5271   -1.1569    0.0000 C   0  0  1  0  0  0  0  0  0  0  0  0
    5.6610   -0.6569    0.0000 C   0  0  1  0  0  0  0  0  0  0  0  0
    4.7510   -1.1638    0.0000 C   0  0  1  0  0  0  0  0  0  0  0  0
    6.5271    0.8431    0.0000 C   0  0  0  0  0  0  0  0  0  0  0  0
    5.6610    0.3431    0.0000 C   0  0  0  0  0  0  0  0  0  0  0  0
    8.3393    0.6478    0.0000 C   0  0  2  0  0  0  0  0  0  0  0  0
    8.3393   -0.9616    0.0000 C   0  0  0  0  0  0  0  0  0  0  0  0
    6.5431   -2.1984    0.0000 C   0  0  0  0  0  0  0  0  0  0  0  0
    8.9229   -0.1569    0.0000 C   0  0  0  0  0  0  0  0  0  0  0  0
    4.7430   -2.2054    0.0000 C   0  0  1  0  0  0  0  0  0  0  0  0
    5.6451   -2.7262    0.0000 C   0  0  0  0  0  0  0  0  0  0  0  0
    7.3931    1.3431    0.0000 C   0  0  0  0  0  0  0  0  0  0  0  0
    4.7587   -0.1638    0.0000 C   0  0  0  0  0  0  0  0  0  0  0  0
    3.8242   -0.5997    0.0000 C   0  0  0  0  0  0  0  0  0  0  0  0
    2.8763   -1.1276    0.0000 C   0  0  0  0  0  0  0  0  0  0  0  0
    2.8680   -2.2126    0.0000 C   0  0  0  0  0  0  0  0  0  0  0  0
    9.6285    1.8046    0.0000 C   0  0  0  0  0  0  0  0  0  0  0  0
    9.9391    2.7551    0.0000 C   0  0  0  0  0  0  0  0  0  0  0  0
    7.4830   -1.5021    0.0000 H   0  0  0  0  0  0  0  0  0  0  0  0
    7.2664   -1.5762    0.0000 H   0  0  0  0  0  0  0  0  0  0  0  0
    6.3972   -0.2319    0.0000 H   0  0  0  0  0  0  0  0  0  0  0  0
    6.9256    1.3180    0.0000 H   0  0  0  0  0  0  0  0  0  0  0  0
    6.1285    1.3180    0.0000 H   0  0  0  0  0  0  0  0  0  0  0  0
    5.4490    0.9257    0.0000 H   0  0  0  0  0  0  0  0  0  0  0  0
    5.0504    0.2354    0.0000 H   0  0  0  0  0  0  0  0  0  0  0  0
    7.9018    1.0872    0.0000 H   0  0  0  0  0  0  0  0  0  0  0  0
    8.0883   -1.5286    0.0000 H   0  0  0  0  0  0  0  0  0  0  0  0
    8.8767   -1.2709    0.0000 H   0  0  0  0  0  0  0  0  0  0  0  0
    6.7612   -2.7788    0.0000 H   0  0  0  0  0  0  0  0  0  0  0  0
    7.1523   -2.0829    0.0000 H   0  0  0  0  0  0  0  0  0  0  0  0
    9.3838   -0.5716    0.0000 H   0  0  0  0  0  0  0  0  0  0  0  0
    9.3838    0.2578    0.0000 H   0  0  0  0  0  0  0  0  0  0  0  0
    4.7463   -3.0553    0.0000 H   0  0  0  0  0  0  0  0  0  0  0  0
    5.2478   -3.2021    0.0000 H   0  0  0  0  0  0  0  0  0  0  0  0
    6.0460   -3.1991    0.0000 H   0  0  0  0  0  0  0  0  0  0  0  0
    8.0131    1.3431    0.0000 H   0  0  0  0  0  0  0  0  0  0  0  0
    7.3931    1.9631    0.0000 H   0  0  0  0  0  0  0  0  0  0  0  0
    6.7731    1.3431    0.0000 H   0  0  0  0  0  0  0  0  0  0  0  0
    5.3787   -0.1686    0.0000 H   0  0  0  0  0  0  0  0  0  0  0  0
    4.7635    0.4562    0.0000 H   0  0  0  0  0  0  0  0  0  0  0  0
    4.1388   -0.1590    0.0000 H   0  0  0  0  0  0  0  0  0  0  0  0
    3.8361    0.0202    0.0000 H   0  0  0  0  0  0  0  0  0  0  0  0
    2.3430   -0.8114    0.0000 H   0  0  0  0  0  0  0  0  0  0  0  0
   10.5285    2.5625    0.0000 H   0  0  0  0  0  0  0  0  0  0  0  0
   10.1317    3.3444    0.0000 H   0  0  0  0  0  0  0  0  0  0  0  0
    9.3498    2.9477    0.0000 H   0  0  0  0  0  0  0  0  0  0  0  0
 12  1  1  1  0  0  0
  1 23  1  0  0  0  0
  2 16  1  0  0  0  0
  2 22  1  0  0  0  0
  3 22  2  0  0  0  0
  4 23  2  0  0  0  0
  5  6  1  0  0  0  0
  5  7  1  0  0  0  0
  5 13  1  0  0  0  0
  5 25  1  6  0  0  0
  6 10  1  0  0  0  0
  6 12  1  0  0  0  0
  6 18  1  1  0  0  0
  7  8  1  0  0  0  0
  7 14  1  0  0  0  0
  7 26  1  1  0  0  0
  8  9  1  0  0  0  0
  8 11  1  0  0  0  0
  8 27  1  6  0  0  0
  9 16  1  0  0  0  0
  9 19  1  1  0  0  0
  9 20  1  0  0  0  0
 10 11  1  0  0  0  0
 10 28  1  0  0  0  0
 10 29  1  0  0  0  0
 11 30  1  0  0  0  0
 11 31  1  0  0  0  0
 12 15  1  0  0  0  0
 12 32  1  0  0  0  0
 13 15  1  0  0  0  0
 13 33  1  0  0  0  0
 13 34  1  0  0  0  0
 14 17  1  0  0  0  0
 14 35  1  0  0  0  0
 14 36  1  0  0  0  0
 15 37  1  0  0  0  0
 15 38  1  0  0  0  0
 16 17  1  0  0  0  0
 16 39  1  6  0  0  0
 17 40  1  0  0  0  0
 17 41  1  0  0  0  0
 18 42  1  0  0  0  0
 18 43  1  0  0  0  0
 18 44  1  0  0  0  0
 19 45  1  0  0  0  0
 19 46  1  0  0  0  0
 19 47  1  0  0  0  0
 20 21  2  0  0  0  0
 20 48  1  0  0  0  0
 21 22  1  0  0  0  0
 21 49  1  0  0  0  0
 23 24  1  0  0  0  0
 24 50  1  0  0  0  0
 24 51  1  0  0  0  0
 24 52  1  0  0  0  0
M  END
> <PUBCHEM_COMPOUND_CID>
255702

> <PUBCHEM_COMPOUND_CANONICALIZED>
1

> <PUBCHEM_CACTVS_COMPLEXITY>
596

> <PUBCHEM_CACTVS_HBOND_ACCEPTOR>
4

> <PUBCHEM_CACTVS_HBOND_DONOR>
0

> <PUBCHEM_CACTVS_ROTATABLE_BOND>
2

> <PUBCHEM_CACTVS_SUBSKEYS>
AAADceB4OAAAAAAAAAAAAAAAAAAAAYAAAAAwYIAAAAAAAGDAAAAAGgAAAAAADxSggAICCAAABACIACDSCAAAAAAgAAAICAAAAEgABAIAIAACEAAEwAAIIYOAwPAPgAAAAAAAAADAAAYAADAAAIAADAAAAA==

> <PUBCHEM_IUPAC_OPENEYE_NAME>
[(1S,3aS,3bS,5aR,9aR,9bS,11aS)-9a,11a-dimethyl-7-oxo-2,3,3a,3b,4,5,5a,9b,10,11-decahydro-1H-indeno[5,4-f]chromen-1-yl] acetate

> <PUBCHEM_IUPAC_CAS_NAME>
acetic acid [(1S,3aS,3bS,5aR,9aR,9bS,11aS)-9a,11a-dimethyl-7-oxo-2,3,3a,3b,4,5,5a,9b,10,11-decahydro-1H-indeno[5,4-f][1]benzopyran-1-yl] ester

> <PUBCHEM_IUPAC_NAME>
[(1S,3aS,3bS,5aR,9aR,9bS,11aS)-9a,11a-dimethyl-7-oxo-2,3,3a,3b,4,5,5a,9b,10,11-decahydro-1H-indeno[5,4-f]chromen-1-yl] acetate

> <PUBCHEM_IUPAC_SYSTEMATIC_NAME>
[(1S,3aS,3bS,5aR,9aR,9bS,11aS)-9a,11a-dimethyl-7-oxidanylidene-2,3,3a,3b,4,5,5a,9b,10,11-decahydro-1H-indeno[5,4-f]chromen-1-yl] ethanoate

> <PUBCHEM_IUPAC_TRADITIONAL_NAME>
acetic acid [(1S,3aS,3bS,5aR,9aR,9bS,11aS)-7-keto-9a,11a-dimethyl-2,3,3a,3b,4,5,5a,9b,10,11-decahydro-1H-indeno[5,4-f]chromen-1-yl] ester

> <PUBCHEM_IUPAC_INCHI>
InChI=1S/C20H28O4/c1-12(21)23-16-7-5-14-13-4-6-17-20(3,11-9-18(22)24-17)15(13)8-10-19(14,16)2/h9,11,13-17H,4-8,10H2,1-3H3/t13-,14-,15-,16-,17+,19-,20+/m0/s1

> <PUBCHEM_IUPAC_INCHIKEY>
NJHXENDODLZLSB-SHUFMVBLSA-N

> <PUBCHEM_XLOGP3_AA>
4.1

> <PUBCHEM_EXACT_MASS>
332.198759

> <PUBCHEM_MOLECULAR_FORMULA>
C20H28O4

> <PUBCHEM_MOLECULAR_WEIGHT>
332.43392

> <PUBCHEM_OPENEYE_CAN_SMILES>
CC(=O)OC1CCC2C1(CCC3C2CCC4C3(C=CC(=O)O4)C)C

> <PUBCHEM_OPENEYE_ISO_SMILES>
CC(=O)O[C@H]1CC[C@@H]2[C@@]1(CC[C@H]3[C@H]2CC[C@@H]4[C@@]3(C=CC(=O)O4)C)C

> <PUBCHEM_CACTVS_TPSA>
52.6

> <PUBCHEM_MONOISOTOPIC_WEIGHT>
332.198759

> <PUBCHEM_TOTAL_CHARGE>
0

> <PUBCHEM_HEAVY_ATOM_COUNT>
24

> <PUBCHEM_ATOM_DEF_STEREO_COUNT>
7

> <PUBCHEM_ATOM_UDEF_STEREO_COUNT>
0

> <PUBCHEM_BOND_DEF_STEREO_COUNT>
0

> <PUBCHEM_BOND_UDEF_STEREO_COUNT>
0

> <PUBCHEM_ISOTOPIC_ATOM_COUNT>
0

> <PUBCHEM_COMPONENT_COUNT>
1

> <PUBCHEM_CACTVS_TAUTO_COUNT>
1

> <PUBCHEM_COORDINATE_TYPE>
1
5
255

> <PUBCHEM_BONDANNOTATIONS>
12  1  5
16  39  6
5  25  6
6  18  5
7  26  5
8  27  6
9  19  5

$$$$

