   Color/Form
        Colorless powder
   from [1]HSDB

   Odor
        Odorless
   from [2]HSDB

   Melting Point
        176.8 deg C
   from [3]HSDB

   Density/Specific Gravity
        1.61 g/cu cm at 20 deg C
   from [4]HSDB

   Dissociation Constants
        pKa = 11.09 at 20 deg C
   from [5]HSDB

   Octanol/Water Partition Coefficient
        log Kow = 0.7 at 25 deg
   from [6]HSDB

   pH
        pH = 6.24 at 23 deg C
   from [7]HSDB

   Solubilities

     * Solubility in water: 0.304 (pH 4), 0.340 (pH 10) (both g/L, 20 deg
       C). In heptane less than 0.00104, xylene 0.0128, dichloromethane
       1.32, methanol 6.26, octanol 0.938, acetone 15.2, ethyl acetate
       2.03 (all in g/L, 25 deg C)
     * In water, 327 mg/L at 20 deg C

   from [8]HSDB

   Vapor Pressure
        9.8X10-10 mm Hg at 25 deg C
   from [9]HSDB

   Other Chemical/Physical Properties

     * Liquid suspension, latex paint like odor, density = 1.2632 g/ml
       /End-use/
     * Henry's Law constant = 2.9X10-16 atm-cu m/mol at 20 deg C
     * Hydroxyl radical reaction rate constant = 1.4X10-10 cu cm/molecule
       sec at 25 deg C /Estimated/

   from [10]HSDB

   Computed Properties
   Molecular Weight                  249.67802 [g/mol]
   Molecular Formula                 C[6]H[8]ClN[5]O[2]S
   XLogP3-AA                         1.2
   H-Bond Donor                      2
   H-Bond Acceptor                   5
   Rotatable Bond Count              4
   Tautomer Count                    3
   Exact Mass                        249.008723
   MonoIsotopic Mass                 249.008723
   Topological Polar Surface Area    123
   Heavy Atom Count                  15
   Formal Charge                     0
   Complexity                        258
   Isotope Atom Count                0
   Defined Atom Stereocenter Count   0
   Undefined Atom Stereocenter Count 0
   Defined Bond Stereocenter Count   0
   Undefined Bond Stereocenter Count 0
   Covalently-Bonded Unit Count      1
   Feature 3D Acceptor Count         3
   Feature 3D Donor Count            2
   Feature 3D Cation Count           1
   Feature 3D Ring Count             1
   Effective Rotor Count             5
   Conformer Sampling RMSD           0.6
   CID Conformer Count               [11]325

References

   1. http://toxnet.nlm.nih.gov/cgi-bin/sis/search/r?dbs+hsdb:@term+@rn+@rel+210880-92-5
   2. http://toxnet.nlm.nih.gov/cgi-bin/sis/search/r?dbs+hsdb:@term+@rn+@rel+210880-92-5
   3. http://toxnet.nlm.nih.gov/cgi-bin/sis/search/r?dbs+hsdb:@term+@rn+@rel+210880-92-5
   4. http://toxnet.nlm.nih.gov/cgi-bin/sis/search/r?dbs+hsdb:@term+@rn+@rel+210880-92-5
   5. http://toxnet.nlm.nih.gov/cgi-bin/sis/search/r?dbs+hsdb:@term+@rn+@rel+210880-92-5
   6. http://toxnet.nlm.nih.gov/cgi-bin/sis/search/r?dbs+hsdb:@term+@rn+@rel+210880-92-5
   7. http://toxnet.nlm.nih.gov/cgi-bin/sis/search/r?dbs+hsdb:@term+@rn+@rel+210880-92-5
   8. http://toxnet.nlm.nih.gov/cgi-bin/sis/search/r?dbs+hsdb:@term+@rn+@rel+210880-92-5
   9. http://toxnet.nlm.nih.gov/cgi-bin/sis/search/r?dbs+hsdb:@term+@rn+@rel+210880-92-5
  10. http://toxnet.nlm.nih.gov/cgi-bin/sis/search/r?dbs+hsdb:@term+@rn+@rel+210880-92-5
  11. http://pubchem.ncbi.nlm.nih.gov/vw3d/vw3d.cgi?cid=213027
