108086
  -OEChem-07051213152D

 36 37  0     1  0  0  0  0  0999 V2000
    2.5016    1.1773    0.0000 O   0  0  0  0  0  0  0  0  0  0  0  0
    3.5197    2.5786    0.0000 O   0  0  0  0  0  0  0  0  0  0  0  0
    7.2326    2.6165    0.0000 O   0  0  0  0  0  0  0  0  0  0  0  0
    5.3068   -2.2061    0.0000 O   0  0  0  0  0  0  0  0  0  0  0  0
    5.5853    3.1517    0.0000 O   0  0  0  0  0  0  0  0  0  0  0  0
    9.6370   -1.7061    0.0000 O   0  0  0  0  0  0  0  0  0  0  0  0
    8.7709   -3.2061    0.0000 O   0  0  0  0  0  0  0  0  0  0  0  0
    3.7242    0.1303    0.0000 N   0  0  0  0  0  0  0  0  0  0  0  0
    7.0389   -2.2061    0.0000 N   0  0  0  0  0  0  0  0  0  0  0  0
    5.2023    0.7884    0.0000 C   0  0  1  0  0  0  0  0  0  0  0  0
    5.3068   -0.2061    0.0000 C   0  0  2  0  0  0  0  0  0  0  0  0
    4.2242    0.9963    0.0000 C   0  0  1  0  0  0  0  0  0  0  0  0
    4.3933   -0.6129    0.0000 C   0  0  0  0  0  0  0  0  0  0  0  0
    5.9454    1.4575    0.0000 C   0  0  0  0  0  0  0  0  0  0  0  0
    6.1729   -0.7061    0.0000 C   0  0  0  0  0  0  0  0  0  0  0  0
    3.4151    1.5841    0.0000 C   0  0  0  0  0  0  0  0  0  0  0  0
    6.1729   -1.7061    0.0000 C   0  0  0  0  0  0  0  0  0  0  0  0
    7.0389   -0.2061    0.0000 C   0  0  0  0  0  0  0  0  0  0  0  0
    6.2545    2.4086    0.0000 C   0  0  0  0  0  0  0  0  0  0  0  0
    7.9049   -0.7061    0.0000 C   0  0  0  0  0  0  0  0  0  0  0  0
    7.9049   -1.7061    0.0000 C   0  0  0  0  0  0  0  0  0  0  0  0
    8.7709   -2.2061    0.0000 C   0  0  0  0  0  0  0  0  0  0  0  0
    5.0418    1.3873    0.0000 H   0  0  0  0  0  0  0  0  0  0  0  0
    5.2744   -0.8253    0.0000 H   0  0  0  0  0  0  0  0  0  0  0  0
    3.6177    0.8674    0.0000 H   0  0  0  0  0  0  0  0  0  0  0  0
    3.8917   -0.9773    0.0000 H   0  0  0  0  0  0  0  0  0  0  0  0
    4.7033   -1.1498    0.0000 H   0  0  0  0  0  0  0  0  0  0  0  0
    3.1075    0.0655    0.0000 H   0  0  0  0  0  0  0  0  0  0  0  0
    6.1777    0.8827    0.0000 H   0  0  0  0  0  0  0  0  0  0  0  0
    5.4255    1.7952    0.0000 H   0  0  0  0  0  0  0  0  0  0  0  0
    7.0389    0.4139    0.0000 H   0  0  0  0  0  0  0  0  0  0  0  0
    7.0389   -2.8261    0.0000 H   0  0  0  0  0  0  0  0  0  0  0  0
    8.4418   -0.3961    0.0000 H   0  0  0  0  0  0  0  0  0  0  0  0
    2.0000    1.5418    0.0000 H   0  0  0  0  0  0  0  0  0  0  0  0
    7.4242    3.2061    0.0000 H   0  0  0  0  0  0  0  0  0  0  0  0
   10.1739   -2.0161    0.0000 H   0  0  0  0  0  0  0  0  0  0  0  0
  1 16  1  0  0  0  0
  1 34  1  0  0  0  0
  2 16  2  0  0  0  0
  3 19  1  0  0  0  0
  3 35  1  0  0  0  0
  4 17  2  0  0  0  0
  5 19  2  0  0  0  0
  6 22  1  0  0  0  0
  6 36  1  0  0  0  0
  7 22  2  0  0  0  0
  8 12  1  0  0  0  0
  8 13  1  0  0  0  0
  8 28  1  0  0  0  0
  9 17  1  0  0  0  0
  9 21  1  0  0  0  0
  9 32  1  0  0  0  0
 10 11  1  0  0  0  0
 10 12  1  0  0  0  0
 10 14  1  1  0  0  0
 10 23  1  0  0  0  0
 11 13  1  0  0  0  0
 11 15  1  1  0  0  0
 11 24  1  0  0  0  0
 12 16  1  6  0  0  0
 12 25  1  0  0  0  0
 13 26  1  0  0  0  0
 13 27  1  0  0  0  0
 14 19  1  0  0  0  0
 14 29  1  0  0  0  0
 14 30  1  0  0  0  0
 15 17  1  0  0  0  0
 15 18  2  0  0  0  0
 18 20  1  0  0  0  0
 18 31  1  0  0  0  0
 20 21  2  0  0  0  0
 20 33  1  0  0  0  0
 21 22  1  0  0  0  0
M  END
> <PUBCHEM_COMPOUND_CID>
108086

> <PUBCHEM_COMPOUND_CANONICALIZED>
1

> <PUBCHEM_CACTVS_COMPLEXITY>
608

> <PUBCHEM_CACTVS_HBOND_ACCEPTOR>
8

> <PUBCHEM_CACTVS_HBOND_DONOR>
5

> <PUBCHEM_CACTVS_ROTATABLE_BOND>
5

> <PUBCHEM_CACTVS_SUBSKEYS>
AAADccBzOAAAAAAAAAAAAAAAAAAAAWAAAAAgAAAAAAAAAAAAAAAAHgAQCAAADSjBgAQACALAAgCIAiXSWACAAAAgAgAACIGIAEgKBBIAgSAEUAAElACYkYO8fwIegAAAAAAAAAAAAAAAAAAAAAAAAAAAAA==

> <PUBCHEM_IUPAC_OPENEYE_NAME>
5-[(3S,4S,5S)-5-carboxy-4-(carboxymethyl)pyrrolidin-3-yl]-6-oxo-1H-pyridine-2-carboxylic acid

> <PUBCHEM_IUPAC_CAS_NAME>
5-[(3S,4S,5S)-5-carboxy-4-(carboxymethyl)-3-pyrrolidinyl]-6-oxo-1H-pyridine-2-carboxylic acid

> <PUBCHEM_IUPAC_NAME>
5-[(3S,4S,5S)-5-carboxy-4-(carboxymethyl)pyrrolidin-3-yl]-6-oxo-1H-pyridine-2-carboxylic acid

> <PUBCHEM_IUPAC_SYSTEMATIC_NAME>
5-[(3S,4S,5S)-5-carboxy-4-(2-hydroxy-2-oxoethyl)pyrrolidin-3-yl]-6-oxidanylidene-1H-pyridine-2-carboxylic acid

> <PUBCHEM_IUPAC_TRADITIONAL_NAME>
5-[(3S,4S,5S)-5-carboxy-4-(carboxymethyl)pyrrolidin-3-yl]-6-keto-1H-pyridine-2-carboxylic acid

> <PUBCHEM_IUPAC_INCHI>
InChI=1S/C13H14N2O7/c16-9(17)3-6-7(4-14-10(6)13(21)22)5-1-2-8(12(19)20)15-11(5)18/h1-2,6-7,10,14H,3-4H2,(H,15,18)(H,16,17)(H,19,20)(H,21,22)/t6-,7+,10-/m0/s1

> <PUBCHEM_IUPAC_INCHIKEY>
CWXNEBSQRIECMV-PJKMHFRUSA-N

> <PUBCHEM_XLOGP3_AA>
-3.5

> <PUBCHEM_EXACT_MASS>
310.080101

> <PUBCHEM_MOLECULAR_FORMULA>
C13H14N2O7

> <PUBCHEM_MOLECULAR_WEIGHT>
310.25946

> <PUBCHEM_OPENEYE_CAN_SMILES>
C1C(C(C(N1)C(=O)O)CC(=O)O)C2=CC=C(NC2=O)C(=O)O

> <PUBCHEM_OPENEYE_ISO_SMILES>
C1[C@@H]([C@@H]([C@H](N1)C(=O)O)CC(=O)O)C2=CC=C(NC2=O)C(=O)O

> <PUBCHEM_CACTVS_TPSA>
153

> <PUBCHEM_MONOISOTOPIC_WEIGHT>
310.080101

> <PUBCHEM_TOTAL_CHARGE>
0

> <PUBCHEM_HEAVY_ATOM_COUNT>
22

> <PUBCHEM_ATOM_DEF_STEREO_COUNT>
3

> <PUBCHEM_ATOM_UDEF_STEREO_COUNT>
0

> <PUBCHEM_BOND_DEF_STEREO_COUNT>
0

> <PUBCHEM_BOND_UDEF_STEREO_COUNT>
0

> <PUBCHEM_ISOTOPIC_ATOM_COUNT>
0

> <PUBCHEM_COMPONENT_COUNT>
1

> <PUBCHEM_CACTVS_TAUTO_COUNT>
6

> <PUBCHEM_COORDINATE_TYPE>
1
5
255

> <PUBCHEM_BONDANNOTATIONS>
10  14  5
11  15  5
12  16  6
15  17  8
15  18  8
18  20  8
20  21  8
9  17  8
9  21  8

$$$$

