17395456
  -OEChem-06241222502D

 40 41  0     1  0  0  0  0  0999 V2000
    5.4641   -3.9625    0.0000 Cl  0  0  0  0  0  0  0  0  0  0  0  0
    4.8255    2.7012    0.0000 O   0  0  0  0  0  0  0  0  0  0  0  0
    6.5856   -0.3474    0.0000 O   0  0  0  0  0  0  0  0  0  0  0  0
    5.4641   -0.9625    0.0000 O   0  0  0  0  0  0  0  0  0  0  0  0
    7.0468    1.3739    0.0000 N   0  0  0  0  0  0  0  0  0  0  0  0
    5.4641    1.0375    0.0000 N   0  0  0  0  0  0  0  0  0  0  0  0
    3.7320   -0.9625    0.0000 N   0  0  0  0  0  0  0  0  0  0  0  0
    6.5468    2.2399    0.0000 C   0  0  3  0  0  0  0  0  0  0  0  0
    6.9535    3.1535    0.0000 C   0  0  0  0  0  0  0  0  0  0  0  0
    5.5686    2.0320    0.0000 C   0  0  0  0  0  0  0  0  0  0  0  0
    7.9480    3.2580    0.0000 C   0  0  0  0  0  0  0  0  0  0  0  0
    6.3657    3.9625    0.0000 C   0  0  0  0  0  0  0  0  0  0  0  0
    6.3776    0.6308    0.0000 C   0  0  0  0  0  0  0  0  0  0  0  0
    4.5981    0.5375    0.0000 C   0  0  0  0  0  0  0  0  0  0  0  0
    4.5981   -0.4625    0.0000 C   0  0  0  0  0  0  0  0  0  0  0  0
    3.7320   -1.9625    0.0000 C   0  0  0  0  0  0  0  0  0  0  0  0
    2.8660   -2.4625    0.0000 C   0  0  0  0  0  0  0  0  0  0  0  0
    4.5981   -2.4625    0.0000 C   0  0  0  0  0  0  0  0  0  0  0  0
    2.8660   -3.4625    0.0000 C   0  0  0  0  0  0  0  0  0  0  0  0
    2.0000   -1.9625    0.0000 C   0  0  0  0  0  0  0  0  0  0  0  0
    4.5981   -3.4625    0.0000 C   0  0  0  0  0  0  0  0  0  0  0  0
    3.7320   -3.9625    0.0000 C   0  0  0  0  0  0  0  0  0  0  0  0
    7.1659    2.2724    0.0000 H   0  0  0  0  0  0  0  0  0  0  0  0
    6.3369    3.0887    0.0000 H   0  0  0  0  0  0  0  0  0  0  0  0
    7.6634    1.3091    0.0000 H   0  0  0  0  0  0  0  0  0  0  0  0
    8.0128    2.6414    0.0000 H   0  0  0  0  0  0  0  0  0  0  0  0
    8.5646    3.3228    0.0000 H   0  0  0  0  0  0  0  0  0  0  0  0
    7.8832    3.8746    0.0000 H   0  0  0  0  0  0  0  0  0  0  0  0
    6.8673    4.3269    0.0000 H   0  0  0  0  0  0  0  0  0  0  0  0
    6.0013    4.4641    0.0000 H   0  0  0  0  0  0  0  0  0  0  0  0
    5.8641    3.5981    0.0000 H   0  0  0  0  0  0  0  0  0  0  0  0
    4.3860    1.1201    0.0000 H   0  0  0  0  0  0  0  0  0  0  0  0
    3.9875    0.4298    0.0000 H   0  0  0  0  0  0  0  0  0  0  0  0
    3.1951   -0.6525    0.0000 H   0  0  0  0  0  0  0  0  0  0  0  0
    5.1350   -2.1525    0.0000 H   0  0  0  0  0  0  0  0  0  0  0  0
    2.3291   -3.7725    0.0000 H   0  0  0  0  0  0  0  0  0  0  0  0
    2.3100   -1.4256    0.0000 H   0  0  0  0  0  0  0  0  0  0  0  0
    1.4631   -1.6525    0.0000 H   0  0  0  0  0  0  0  0  0  0  0  0
    1.6900   -2.4994    0.0000 H   0  0  0  0  0  0  0  0  0  0  0  0
    3.7320   -4.5825    0.0000 H   0  0  0  0  0  0  0  0  0  0  0  0
  1 21  1  0  0  0  0
  2 10  2  0  0  0  0
  3 13  2  0  0  0  0
  4 15  2  0  0  0  0
  5  8  1  0  0  0  0
  5 13  1  0  0  0  0
  5 25  1  0  0  0  0
  6 10  1  0  0  0  0
  6 13  1  0  0  0  0
  6 14  1  0  0  0  0
  7 15  1  0  0  0  0
  7 16  1  0  0  0  0
  7 34  1  0  0  0  0
  8  9  1  0  0  0  0
  8 10  1  0  0  0  0
  8 23  1  0  0  0  0
  9 11  1  0  0  0  0
  9 12  1  0  0  0  0
  9 24  1  0  0  0  0
 11 26  1  0  0  0  0
 11 27  1  0  0  0  0
 11 28  1  0  0  0  0
 12 29  1  0  0  0  0
 12 30  1  0  0  0  0
 12 31  1  0  0  0  0
 14 15  1  0  0  0  0
 14 32  1  0  0  0  0
 14 33  1  0  0  0  0
 16 17  2  0  0  0  0
 16 18  1  0  0  0  0
 17 19  1  0  0  0  0
 17 20  1  0  0  0  0
 18 21  2  0  0  0  0
 18 35  1  0  0  0  0
 19 22  2  0  0  0  0
 19 36  1  0  0  0  0
 20 37  1  0  0  0  0
 20 38  1  0  0  0  0
 20 39  1  0  0  0  0
 21 22  1  0  0  0  0
 22 40  1  0  0  0  0
M  END
> <PUBCHEM_COMPOUND_CID>
17395456

> <PUBCHEM_COMPOUND_CANONICALIZED>
1

> <PUBCHEM_CACTVS_COMPLEXITY>
469

> <PUBCHEM_CACTVS_HBOND_ACCEPTOR>
3

> <PUBCHEM_CACTVS_HBOND_DONOR>
2

> <PUBCHEM_CACTVS_ROTATABLE_BOND>
4

> <PUBCHEM_CACTVS_SUBSKEYS>
AAADceBzMAAEAAAAAAAAAAAAAAAAAWAAAAAwAAAAAAAAAAABAAAAHgIQAAAADSrBmCQzwIPAAACIAiVSUACCAAAhBwAIiIGIZoiIYDLBk7GUIAholyLIyAcQgAAOBAAAAAICAAAIAAAABAQAAAAAAAAAAA==

> <PUBCHEM_IUPAC_OPENEYE_NAME>
N-(5-chloro-2-methyl-phenyl)-2-(4-isopropyl-2,5-dioxo-imidazolidin-1-yl)acetamide

> <PUBCHEM_IUPAC_CAS_NAME>
N-(5-chloro-2-methylphenyl)-2-(2,5-dioxo-4-propan-2-yl-1-imidazolidinyl)acetamide

> <PUBCHEM_IUPAC_NAME>
N-(5-chloro-2-methylphenyl)-2-(2,5-dioxo-4-propan-2-ylimidazolidin-1-yl)acetamide

> <PUBCHEM_IUPAC_SYSTEMATIC_NAME>
2-[2,5-bis(oxidanylidene)-4-propan-2-yl-imidazolidin-1-yl]-N-(5-chloranyl-2-methyl-phenyl)ethanamide

> <PUBCHEM_IUPAC_TRADITIONAL_NAME>
N-(5-chloro-2-methyl-phenyl)-2-(4-isopropyl-2,5-diketo-imidazolidin-1-yl)acetamide

> <PUBCHEM_IUPAC_INCHI>
InChI=1S/C15H18ClN3O3/c1-8(2)13-14(21)19(15(22)18-13)7-12(20)17-11-6-10(16)5-4-9(11)3/h4-6,8,13H,7H2,1-3H3,(H,17,20)(H,18,22)

> <PUBCHEM_IUPAC_INCHIKEY>
HGOMOMJDWYDNCK-UHFFFAOYSA-N

> <PUBCHEM_XLOGP3_AA>
2.4

> <PUBCHEM_EXACT_MASS>
323.103669

> <PUBCHEM_MOLECULAR_FORMULA>
C15H18ClN3O3

> <PUBCHEM_MOLECULAR_WEIGHT>
323.77472

> <PUBCHEM_OPENEYE_CAN_SMILES>
CC1=C(C=C(C=C1)Cl)NC(=O)CN2C(=O)C(NC2=O)C(C)C

> <PUBCHEM_OPENEYE_ISO_SMILES>
CC1=C(C=C(C=C1)Cl)NC(=O)CN2C(=O)C(NC2=O)C(C)C

> <PUBCHEM_CACTVS_TPSA>
78.5

> <PUBCHEM_MONOISOTOPIC_WEIGHT>
323.103669

> <PUBCHEM_TOTAL_CHARGE>
0

> <PUBCHEM_HEAVY_ATOM_COUNT>
22

> <PUBCHEM_ATOM_DEF_STEREO_COUNT>
0

> <PUBCHEM_ATOM_UDEF_STEREO_COUNT>
1

> <PUBCHEM_BOND_DEF_STEREO_COUNT>
0

> <PUBCHEM_BOND_UDEF_STEREO_COUNT>
0

> <PUBCHEM_ISOTOPIC_ATOM_COUNT>
0

> <PUBCHEM_COMPONENT_COUNT>
1

> <PUBCHEM_CACTVS_TAUTO_COUNT>
12

> <PUBCHEM_COORDINATE_TYPE>
1
5
255

> <PUBCHEM_BONDANNOTATIONS>
16  17  8
16  18  8
17  19  8
18  21  8
19  22  8
21  22  8
8  9  3

$$$$

