104758
  -OEChem-07051213012D

 54 56  0     1  0  0  0  0  0999 V2000
    9.0949    1.2242    0.0000 S   0  0  0  0  0  0  0  0  0  0  0  0
   13.2701   -1.9495    0.0000 O   0  0  0  0  0  0  0  0  0  0  0  0
    9.8846   -0.7093    0.0000 O   0  0  0  0  0  0  0  0  0  0  0  0
   13.4578   -0.2277    0.0000 O   0  0  0  0  0  0  0  0  0  0  0  0
    3.7320    1.2499    0.0000 O   0  0  0  0  0  0  0  0  0  0  0  0
   11.4974   -4.3698    0.0000 O   0  0  0  0  0  0  0  0  0  0  0  0
   10.1001   -3.3463    0.0000 O   0  0  0  0  0  0  0  0  0  0  0  0
    8.1301    2.7224    0.0000 N   0  0  3  0  0  0  0  0  0  0  0  0
   11.4696   -0.0109    0.0000 N   0  0  0  0  0  0  0  0  0  0  0  0
    3.7320    4.2499    0.0000 N   0  0  0  0  0  0  0  0  0  0  0  0
    2.8660    2.7499    0.0000 N   0  0  0  0  0  0  0  0  0  0  0  0
    7.2622    2.2258    0.0000 C   0  0  0  0  0  0  0  0  0  0  0  0
   11.8728   -0.9261    0.0000 C   0  0  1  0  0  0  0  0  0  0  0  0
    6.3981    2.7291    0.0000 C   0  0  0  0  0  0  0  0  0  0  0  0
   11.2819   -1.7328    0.0000 C   0  0  0  0  0  0  0  0  0  0  0  0
    8.9942    2.2191    0.0000 C   0  0  0  0  0  0  0  0  0  0  0  0
    4.5981    2.7499    0.0000 C   0  0  0  0  0  0  0  0  0  0  0  0
    5.4920    2.2153    0.0000 C   0  0  0  0  0  0  0  0  0  0  0  0
    4.5981    3.7499    0.0000 C   0  0  0  0  0  0  0  0  0  0  0  0
   11.6851   -2.6479    0.0000 C   0  0  0  0  0  0  0  0  0  0  0  0
    6.3981    3.7708    0.0000 C   0  0  0  0  0  0  0  0  0  0  0  0
   10.0722    1.0125    0.0000 C   0  0  0  0  0  0  0  0  0  0  0  0
    5.4920    4.2846    0.0000 C   0  0  0  0  0  0  0  0  0  0  0  0
   10.4755    0.0974    0.0000 C   0  0  0  0  0  0  0  0  0  0  0  0
    8.1340    3.7224    0.0000 C   0  0  0  0  0  0  0  0  0  0  0  0
    9.9093    2.6223    0.0000 C   0  0  0  0  0  0  0  0  0  0  0  0
   10.5756    1.8766    0.0000 C   0  0  0  0  0  0  0  0  0  0  0  0
   12.8669   -1.0344    0.0000 C   0  0  0  0  0  0  0  0  0  0  0  0
    3.7320    2.2499    0.0000 C   0  0  0  0  0  0  0  0  0  0  0  0
    2.8660    3.7499    0.0000 C   0  0  0  0  0  0  0  0  0  0  0  0
   11.0942   -3.4546    0.0000 C   0  0  0  0  0  0  0  0  0  0  0  0
    2.0000    4.2499    0.0000 C   0  0  0  0  0  0  0  0  0  0  0  0
    6.8618    1.7524    0.0000 H   0  0  0  0  0  0  0  0  0  0  0  0
    7.6589    1.7493    0.0000 H   0  0  0  0  0  0  0  0  0  0  0  0
   12.2391   -0.4259    0.0000 H   0  0  0  0  0  0  0  0  0  0  0  0
   10.8529   -1.2852    0.0000 H   0  0  0  0  0  0  0  0  0  0  0  0
   10.7665   -2.0775    0.0000 H   0  0  0  0  0  0  0  0  0  0  0  0
    5.4848    1.5953    0.0000 H   0  0  0  0  0  0  0  0  0  0  0  0
   12.1141   -3.0956    0.0000 H   0  0  0  0  0  0  0  0  0  0  0  0
   12.2004   -2.3032    0.0000 H   0  0  0  0  0  0  0  0  0  0  0  0
   11.8359    0.4892    0.0000 H   0  0  0  0  0  0  0  0  0  0  0  0
    6.9338    4.0828    0.0000 H   0  0  0  0  0  0  0  0  0  0  0  0
    5.4848    4.9046    0.0000 H   0  0  0  0  0  0  0  0  0  0  0  0
    8.7540    3.7200    0.0000 H   0  0  0  0  0  0  0  0  0  0  0  0
    8.1364    4.3424    0.0000 H   0  0  0  0  0  0  0  0  0  0  0  0
    7.5140    3.7248    0.0000 H   0  0  0  0  0  0  0  0  0  0  0  0
   10.0406    3.2283    0.0000 H   0  0  0  0  0  0  0  0  0  0  0  0
   11.1924    1.9390    0.0000 H   0  0  0  0  0  0  0  0  0  0  0  0
    3.7320    4.8699    0.0000 H   0  0  0  0  0  0  0  0  0  0  0  0
    2.3100    4.7869    0.0000 H   0  0  0  0  0  0  0  0  0  0  0  0
    1.4631    4.5599    0.0000 H   0  0  0  0  0  0  0  0  0  0  0  0
    1.6900    3.7130    0.0000 H   0  0  0  0  0  0  0  0  0  0  0  0
   13.8865   -2.0167    0.0000 H   0  0  0  0  0  0  0  0  0  0  0  0
   11.1311   -4.8699    0.0000 H   0  0  0  0  0  0  0  0  0  0  0  0
  1 16  1  0  0  0  0
  1 22  1  0  0  0  0
  2 28  1  0  0  0  0
  2 53  1  0  0  0  0
  3 24  2  0  0  0  0
  4 28  2  0  0  0  0
  5 29  2  0  0  0  0
  6 31  1  0  0  0  0
  6 54  1  0  0  0  0
  7 31  2  0  0  0  0
  8 12  1  0  0  0  0
  8 16  1  0  0  0  0
  8 25  1  0  0  0  0
 13  9  1  6  0  0  0
  9 24  1  0  0  0  0
  9 41  1  0  0  0  0
 10 19  1  0  0  0  0
 10 30  1  0  0  0  0
 10 49  1  0  0  0  0
 11 29  1  0  0  0  0
 11 30  2  0  0  0  0
 12 14  1  0  0  0  0
 12 33  1  0  0  0  0
 12 34  1  0  0  0  0
 13 15  1  0  0  0  0
 13 28  1  0  0  0  0
 13 35  1  0  0  0  0
 14 18  2  0  0  0  0
 14 21  1  0  0  0  0
 15 20  1  0  0  0  0
 15 36  1  0  0  0  0
 15 37  1  0  0  0  0
 16 26  2  0  0  0  0
 17 18  1  0  0  0  0
 17 19  2  0  0  0  0
 17 29  1  0  0  0  0
 18 38  1  0  0  0  0
 19 23  1  0  0  0  0
 20 31  1  0  0  0  0
 20 39  1  0  0  0  0
 20 40  1  0  0  0  0
 21 23  2  0  0  0  0
 21 42  1  0  0  0  0
 22 24  1  0  0  0  0
 22 27  2  0  0  0  0
 23 43  1  0  0  0  0
 25 44  1  0  0  0  0
 25 45  1  0  0  0  0
 25 46  1  0  0  0  0
 26 27  1  0  0  0  0
 26 47  1  0  0  0  0
 27 48  1  0  0  0  0
 30 32  1  0  0  0  0
 32 50  1  0  0  0  0
 32 51  1  0  0  0  0
 32 52  1  0  0  0  0
M  END
> <PUBCHEM_COMPOUND_CID>
104758

> <PUBCHEM_COMPOUND_CANONICALIZED>
1

> <PUBCHEM_CACTVS_COMPLEXITY>
790

> <PUBCHEM_CACTVS_HBOND_ACCEPTOR>
8

> <PUBCHEM_CACTVS_HBOND_DONOR>
4

> <PUBCHEM_CACTVS_ROTATABLE_BOND>
9

> <PUBCHEM_CACTVS_SUBSKEYS>
AAADceB7uABAAAAAAAAAAAAAAAAAASAAAAAwQAAAAAAAAACBwAAAHgQQCAAADCjB2AQzyYPAAgisAifyfACDAIFlChhJiJmYZMgKIDrg3bGEYYhklgD4yce8r0COCAACAAACAAAQAAQAAAQAAAAAAAAAAA==

> <PUBCHEM_IUPAC_OPENEYE_NAME>
(2S)-2-[[5-[methyl-[(2-methyl-4-oxo-1H-quinazolin-6-yl)methyl]amino]thiophene-2-carbonyl]amino]pentanedioic acid

> <PUBCHEM_IUPAC_CAS_NAME>
(2S)-2-[[[5-[methyl-[(2-methyl-4-oxo-1H-quinazolin-6-yl)methyl]amino]-2-thiophenyl]-oxomethyl]amino]pentanedioic acid

> <PUBCHEM_IUPAC_NAME>
(2S)-2-[[5-[methyl-[(2-methyl-4-oxo-1H-quinazolin-6-yl)methyl]amino]thiophene-2-carbonyl]amino]pentanedioic acid

> <PUBCHEM_IUPAC_SYSTEMATIC_NAME>
(2S)-2-[[5-[methyl-[(2-methyl-4-oxidanylidene-1H-quinazolin-6-yl)methyl]amino]thiophen-2-yl]carbonylamino]pentanedioic acid

> <PUBCHEM_IUPAC_TRADITIONAL_NAME>
(2S)-2-[[5-[(4-keto-2-methyl-1H-quinazolin-6-yl)methyl-methyl-amino]thiophene-2-carbonyl]amino]glutaric acid

> <PUBCHEM_IUPAC_INCHI>
InChI=1S/C21H22N4O6S/c1-11-22-14-4-3-12(9-13(14)19(28)23-11)10-25(2)17-7-6-16(32-17)20(29)24-15(21(30)31)5-8-18(26)27/h3-4,6-7,9,15H,5,8,10H2,1-2H3,(H,24,29)(H,26,27)(H,30,31)(H,22,23,28)/t15-/m0/s1

> <PUBCHEM_IUPAC_INCHIKEY>
IVTVGDXNLFLDRM-HNNXBMFYSA-N

> <PUBCHEM_XLOGP3_AA>
1.4

> <PUBCHEM_EXACT_MASS>
458.126005

> <PUBCHEM_MOLECULAR_FORMULA>
C21H22N4O6S

> <PUBCHEM_MOLECULAR_WEIGHT>
458.48758

> <PUBCHEM_OPENEYE_CAN_SMILES>
CC1=NC(=O)C2=C(N1)C=CC(=C2)CN(C)C3=CC=C(S3)C(=O)NC(CCC(=O)O)C(=O)O

> <PUBCHEM_OPENEYE_ISO_SMILES>
CC1=NC(=O)C2=C(N1)C=CC(=C2)CN(C)C3=CC=C(S3)C(=O)N[C@@H](CCC(=O)O)C(=O)O

> <PUBCHEM_CACTVS_TPSA>
177

> <PUBCHEM_MONOISOTOPIC_WEIGHT>
458.126005

> <PUBCHEM_TOTAL_CHARGE>
0

> <PUBCHEM_HEAVY_ATOM_COUNT>
32

> <PUBCHEM_ATOM_DEF_STEREO_COUNT>
1

> <PUBCHEM_ATOM_UDEF_STEREO_COUNT>
0

> <PUBCHEM_BOND_DEF_STEREO_COUNT>
0

> <PUBCHEM_BOND_UDEF_STEREO_COUNT>
0

> <PUBCHEM_ISOTOPIC_ATOM_COUNT>
0

> <PUBCHEM_COMPONENT_COUNT>
1

> <PUBCHEM_CACTVS_TAUTO_COUNT>
20

> <PUBCHEM_COORDINATE_TYPE>
1
5
255

> <PUBCHEM_BONDANNOTATIONS>
1  16  8
1  22  8
10  19  8
10  30  8
11  29  8
11  30  8
14  18  8
14  21  8
16  26  8
17  18  8
17  19  8
17  29  8
19  23  8
21  23  8
22  27  8
26  27  8
13  9  6

$$$$

