   Color/Form
        WATER-WHITE LIQ
   from [1]HSDB

   Odor
        MILD AMMONIACAL ODOR
   from [2]HSDB

   Boiling Point
        188.5 DEG C
   from [3]HSDB

   Melting Point
        -65 DEG C
   from [4]HSDB

   Density/Specific Gravity
        0.9535 @ 20 DEG C/20 DEG C
   from [5]HSDB

   Solubilities
        SOL IN MOST ORG SOLVENTS & HYDROCARBONS
   from [6]HSDB

   Spectral Properties
        INDEX OF REFRACTION: 1.5366 @ 20 DEG C
   from [7]HSDB

   Vapor Density
        4.2 (AIR= 1)
   from [8]HSDB

   Vapor Pressure
        0.5 MM HG @ 20 DEG C
   from [9]HSDB

   Other Chemical/Physical Properties

     * BOILING POINT: 187 DEG C @ 760 MM HG; DENSITY: 0.9651 @ 15 DEG C;
       SPECIFIC OPTICAL ROTATION (METHANOL): +39.2 DEG @ 25 DEG C/D; SOL
       IN WATER; VERY SOL IN ALC, ETHER /D-FORM/
     * BOILING POINT: 184-186 DEG C; DENSITY: 0.9520 @ 20 DEG C/4 DEG C;
       SPECIFIC OPTICAL ROTATION (METHANOL): -38 DEG @ 18 DEG C/D; SOL IN
       WATER; VERY SOL IN ALC, ETHER /L-FORM/
     * AROMATIC ODOR; STRONG BASE; ABSORBS CO2 FROM AIR; DENSITY: 0.9395 @
       15 DEG C/4 DEG C; BP: 80-81 DEG C @ 18 MM HG; LIQUID; SOL IN WATER:
       ABOUT 4.2% @ 20 DEG C; MISCIBLE WITH ALC, ETHER /DL-FORM/
     * INDEX OF REFRACTION: 1.5238 @ 25 DEG C/D; SADTLER REFERENCE NUMBER:
       5859 (IR, PRISM); 8420 (IR, GRATING); 1640 (UV); 207 (NMR, VARIAN)
       /DL-FORM/
     * SETS TO A GLASS BELOW -65 DEG C [Hawley, G.G. The Condensed
       Chemical Dictionary. 9th ed. New York: Van Nostrand Reinhold Co.,
       1977., p. 561] **UNREVIEWED**

   from [10]HSDB

   Computed Properties
   Molecular Weight                  121.17964 [g/mol]
   Molecular Formula                 C[8]H[11]N
   XLogP3                            1.2
   H-Bond Donor                      1
   H-Bond Acceptor                   1
   Rotatable Bond Count              1
   Exact Mass                        121.089149
   MonoIsotopic Mass                 121.089149
   Topological Polar Surface Area    26
   Heavy Atom Count                  9
   Formal Charge                     0
   Complexity                        74.6
   Isotope Atom Count                0
   Defined Atom Stereocenter Count   0
   Undefined Atom Stereocenter Count 1
   Defined Bond Stereocenter Count   0
   Undefined Bond Stereocenter Count 0
   Covalently-Bonded Unit Count      1
   Feature 3D Donor Count            1
   Feature 3D Cation Count           1
   Feature 3D Ring Count             1
   Effective Rotor Count             1
   Conformer Sampling RMSD           0.4
   CID Conformer Count               [11]2

References

   1. http://toxnet.nlm.nih.gov/cgi-bin/sis/search/r?dbs+hsdb:@term+@rn+@rel+98-84-0
   2. http://toxnet.nlm.nih.gov/cgi-bin/sis/search/r?dbs+hsdb:@term+@rn+@rel+98-84-0
   3. http://toxnet.nlm.nih.gov/cgi-bin/sis/search/r?dbs+hsdb:@term+@rn+@rel+98-84-0
   4. http://toxnet.nlm.nih.gov/cgi-bin/sis/search/r?dbs+hsdb:@term+@rn+@rel+98-84-0
   5. http://toxnet.nlm.nih.gov/cgi-bin/sis/search/r?dbs+hsdb:@term+@rn+@rel+98-84-0
   6. http://toxnet.nlm.nih.gov/cgi-bin/sis/search/r?dbs+hsdb:@term+@rn+@rel+98-84-0
   7. http://toxnet.nlm.nih.gov/cgi-bin/sis/search/r?dbs+hsdb:@term+@rn+@rel+98-84-0
   8. http://toxnet.nlm.nih.gov/cgi-bin/sis/search/r?dbs+hsdb:@term+@rn+@rel+98-84-0
   9. http://toxnet.nlm.nih.gov/cgi-bin/sis/search/r?dbs+hsdb:@term+@rn+@rel+98-84-0
  10. http://toxnet.nlm.nih.gov/cgi-bin/sis/search/r?dbs+hsdb:@term+@rn+@rel+98-84-0
  11. http://pubchem.ncbi.nlm.nih.gov/vw3d/vw3d.cgi?cid=7408
