   Color/Form
        CRYSTALS FROM PETROLEUM ETHER
   from [1]HSDB

   Melting Point
        38-40 DEG C
   from [2]HSDB

   Solubilities

     * SOL IN BENZENE
     * SOL IN ACIDIFIED AQUEOUS SOLN OF PROPYLENE GLYCOL, HEPTANE &
       TRICAPRYLIN

   from [3]HSDB

   Spectral Properties
        MAX ABSORPTION (ACID): 274 NM (A= 50, 1%, 1 CM); 257 NM (A= 40,
   1%, 1 CM); 267 NM (A= 30, 1%, 1 CM)
   from [4]HSDB

   Other Chemical/Physical Properties

     * WHITE CRYSTALLINE POWDER; SOL IN 9 PARTS CHLOROFORM; INSOL IN
       DIETHYLETHER /PHENOXYBENZAMINE HYDROCHLORIDE/
     * CRYSTALS FROM ALC & ETHER; SOL IN ALC, PROPYLENE GLYCOL; VERY
       SPARINGLY SOL IN WATER /PHENOXYBENZAMINE HYDROCHLORIDE/
     * Melting point: 137.5-140 deg C /Phenoxybenzamine hydrochloride/
     * Odorless /Phenoxybenzamine hydrochloride/
     * Almost tasteless /Phenoxybenzamine hydrochloride/
     * Lambda max (in chloroform) 272 nm, A(1%, 1cm) = 56.3; 279 nm, A(1%,
       1cm) = 46.1 /Phenoxybenzamine hydrochloride/
     * SOLN IN 50: 50 ETHANOL:PROPYLENE GLYCOL ARE STABLE WHEN STORED
       BELOW 25 DEG C /PHENOXYBENZAMINE HYDROCHLORIDE/
     * NEUTRAL & ALKALINE SOLN ARE UNSTABLE; SENSITIVE TO OXIDATION &
       PHOTODEGRADATION /PHENOXYBENZAMINE HYDROCHLORIDE/

   from [5]HSDB

   Computed Properties
   Molecular Weight                  303.82638 [g/mol]
   Molecular Formula                 C[18]H[22]ClNO
   XLogP3-AA                         4.4
   H-Bond Donor                      0
   H-Bond Acceptor                   2
   Rotatable Bond Count              8
   Exact Mass                        303.138992
   MonoIsotopic Mass                 303.138992
   Topological Polar Surface Area    12.5
   Heavy Atom Count                  21
   Formal Charge                     0
   Complexity                        262
   Isotope Atom Count                0
   Defined Atom Stereocenter Count   0
   Undefined Atom Stereocenter Count 1
   Defined Bond Stereocenter Count   0
   Undefined Bond Stereocenter Count 0
   Covalently-Bonded Unit Count      1
   Feature 3D Acceptor Count         1
   Feature 3D Cation Count           1
   Feature 3D Ring Count             2
   Effective Rotor Count             8
   Conformer Sampling RMSD           0.8
   CID Conformer Count               [6]113

References

   1. http://toxnet.nlm.nih.gov/cgi-bin/sis/search/r?dbs+hsdb:@term+@rn+@rel+59-96-1
   2. http://toxnet.nlm.nih.gov/cgi-bin/sis/search/r?dbs+hsdb:@term+@rn+@rel+59-96-1
   3. http://toxnet.nlm.nih.gov/cgi-bin/sis/search/r?dbs+hsdb:@term+@rn+@rel+59-96-1
   4. http://toxnet.nlm.nih.gov/cgi-bin/sis/search/r?dbs+hsdb:@term+@rn+@rel+59-96-1
   5. http://toxnet.nlm.nih.gov/cgi-bin/sis/search/r?dbs+hsdb:@term+@rn+@rel+59-96-1
   6. http://pubchem.ncbi.nlm.nih.gov/vw3d/vw3d.cgi?cid=4768
