442698
  -OEChem-07051212592D

 83 90  0     1  0  0  0  0  0999 V2000
    6.2855   -3.8494    0.0000 O   0  0  0  0  0  0  0  0  0  0  0  0
    9.7701    1.7848    0.0000 O   0  0  0  0  0  0  0  0  0  0  0  0
    3.2746   -2.0084    0.0000 O   0  0  0  0  0  0  0  0  0  0  0  0
   10.8265   -1.5938    0.0000 O   0  0  0  0  0  0  0  0  0  0  0  0
   10.1953   -4.6778    0.0000 O   0  0  0  0  0  0  0  0  0  0  0  0
    4.0827    3.2182    0.0000 O   0  0  0  0  0  0  0  0  0  0  0  0
    7.2038    4.7213    0.0000 O   0  0  0  0  0  0  0  0  0  0  0  0
    2.4217    1.3751    0.0000 O   0  0  0  0  0  0  0  0  0  0  0  0
    9.6804    4.8707    0.0000 O   0  0  0  0  0  0  0  0  0  0  0  0
    7.4449   -0.9238    0.0000 C   0  0  1  0  0  0  0  0  0  0  0  0
    6.5439   -0.4899    0.0000 C   0  0  1  0  0  0  0  0  0  0  0  0
    7.3089   -1.9085    0.0000 C   0  0  1  0  0  0  0  0  0  0  0  0
    5.8588   -1.2102    0.0000 C   0  0  0  0  0  0  0  0  0  0  0  0
    6.3307   -2.0852    0.0000 C   0  0  0  0  0  0  0  0  0  0  0  0
    8.3459   -0.4899    0.0000 C   0  0  0  0  0  0  0  0  0  0  0  0
    6.3214    0.4850    0.0000 C   0  0  0  0  0  0  0  0  0  0  0  0
    7.9449    1.2668    0.0000 C   0  0  2  0  0  0  0  0  0  0  0  0
    8.5684    0.4850    0.0000 C   0  0  0  0  0  0  0  0  0  0  0  0
    6.9449    1.2668    0.0000 C   0  0  0  0  0  0  0  0  0  0  0  0
    8.0305   -2.6008    0.0000 C   0  0  0  0  0  0  0  0  0  0  0  0
    4.8244   -1.1642    0.0000 C   0  0  0  0  0  0  0  0  0  0  0  0
    5.8007   -2.9748    0.0000 C   0  0  0  0  0  0  0  0  0  0  0  0
    9.0984   -1.2101    0.0000 C   0  0  0  0  0  0  0  0  0  0  0  0
    5.3465    0.7075    0.0000 C   0  0  0  0  0  0  0  0  0  0  0  0
    9.5589    0.8073    0.0000 C   0  0  0  0  0  0  0  0  0  0  0  0
    8.3788    2.1678    0.0000 C   0  0  0  0  0  0  0  0  0  0  0  0
    6.5110    2.1678    0.0000 C   0  0  0  0  0  0  0  0  0  0  0  0
    4.2740   -2.0413    0.0000 C   0  0  0  0  0  0  0  0  0  0  0  0
    4.7655   -2.9527    0.0000 C   0  0  0  0  0  0  0  0  0  0  0  0
    7.7918   -3.5719    0.0000 C   0  0  0  0  0  0  0  0  0  0  0  0
    8.9909   -2.3221    0.0000 C   0  0  0  0  0  0  0  0  0  0  0  0
   10.0961   -0.9108    0.0000 C   0  0  0  0  0  0  0  0  0  0  0  0
   10.3279    0.1048    0.0000 C   0  0  0  0  0  0  0  0  0  0  0  0
    5.0517    1.6631    0.0000 C   0  0  0  0  0  0  0  0  0  0  0  0
    4.6663   -0.0255    0.0000 C   0  0  0  0  0  0  0  0  0  0  0  0
    9.3760    2.2425    0.0000 C   0  0  0  0  0  0  0  0  0  0  0  0
    7.8155    2.9940    0.0000 C   0  0  0  0  0  0  0  0  0  0  0  0
    7.0743    2.9940    0.0000 C   0  0  0  0  0  0  0  0  0  0  0  0
    5.5138    2.2425    0.0000 C   0  0  0  0  0  0  0  0  0  0  0  0
    8.5134   -4.2642    0.0000 C   0  0  0  0  0  0  0  0  0  0  0  0
    9.7125   -3.0144    0.0000 C   0  0  0  0  0  0  0  0  0  0  0  0
    9.4737   -3.9855    0.0000 C   0  0  0  0  0  0  0  0  0  0  0  0
    4.0768    1.8856    0.0000 C   0  0  0  0  0  0  0  0  0  0  0  0
    3.6914    0.1970    0.0000 C   0  0  0  0  0  0  0  0  0  0  0  0
    9.8099    3.1435    0.0000 C   0  0  0  0  0  0  0  0  0  0  0  0
    8.2494    3.8950    0.0000 C   0  0  0  0  0  0  0  0  0  0  0  0
    5.0799    3.1435    0.0000 C   0  0  0  0  0  0  0  0  0  0  0  0
    6.6405    3.8950    0.0000 C   0  0  0  0  0  0  0  0  0  0  0  0
    3.3966    1.1526    0.0000 C   0  0  0  0  0  0  0  0  0  0  0  0
    9.2466    3.9698    0.0000 C   0  0  0  0  0  0  0  0  0  0  0  0
    5.6433    3.9698    0.0000 C   0  0  0  0  0  0  0  0  0  0  0  0
    8.1319   -1.4243    0.0000 H   0  0  0  0  0  0  0  0  0  0  0  0
    7.2085    0.0400    0.0000 H   0  0  0  0  0  0  0  0  0  0  0  0
    7.1298   -2.5021    0.0000 H   0  0  0  0  0  0  0  0  0  0  0  0
    7.6150    1.7918    0.0000 H   0  0  0  0  0  0  0  0  0  0  0  0
    4.5365   -0.6151    0.0000 H   0  0  0  0  0  0  0  0  0  0  0  0
    8.9535   -1.8129    0.0000 H   0  0  0  0  0  0  0  0  0  0  0  0
    4.4421   -3.4816    0.0000 H   0  0  0  0  0  0  0  0  0  0  0  0
    7.1963   -3.7448    0.0000 H   0  0  0  0  0  0  0  0  0  0  0  0
    9.1389   -1.7200    0.0000 H   0  0  0  0  0  0  0  0  0  0  0  0
   10.9197    0.2898    0.0000 H   0  0  0  0  0  0  0  0  0  0  0  0
    5.4734    2.1176    0.0000 H   0  0  0  0  0  0  0  0  0  0  0  0
    4.8491   -0.6180    0.0000 H   0  0  0  0  0  0  0  0  0  0  0  0
    9.7253    1.7303    0.0000 H   0  0  0  0  0  0  0  0  0  0  0  0
    7.1972    2.9477    0.0000 H   0  0  0  0  0  0  0  0  0  0  0  0
    5.9662   -4.3808    0.0000 H   0  0  0  0  0  0  0  0  0  0  0  0
    7.6926    2.9477    0.0000 H   0  0  0  0  0  0  0  0  0  0  0  0
    5.1646    1.7303    0.0000 H   0  0  0  0  0  0  0  0  0  0  0  0
    8.3653   -4.8663    0.0000 H   0  0  0  0  0  0  0  0  0  0  0  0
   10.3079   -2.8416    0.0000 H   0  0  0  0  0  0  0  0  0  0  0  0
   10.3604    1.9744    0.0000 H   0  0  0  0  0  0  0  0  0  0  0  0
    3.8941    2.4781    0.0000 H   0  0  0  0  0  0  0  0  0  0  0  0
    3.2697   -0.2575    0.0000 H   0  0  0  0  0  0  0  0  0  0  0  0
    2.9471   -2.5348    0.0000 H   0  0  0  0  0  0  0  0  0  0  0  0
   10.4281    3.1898    0.0000 H   0  0  0  0  0  0  0  0  0  0  0  0
    7.9001    4.4073    0.0000 H   0  0  0  0  0  0  0  0  0  0  0  0
   11.4197   -1.4133    0.0000 H   0  0  0  0  0  0  0  0  0  0  0  0
    5.3742    4.5284    0.0000 H   0  0  0  0  0  0  0  0  0  0  0  0
   10.0473   -5.2799    0.0000 H   0  0  0  0  0  0  0  0  0  0  0  0
    3.8137    3.7768    0.0000 H   0  0  0  0  0  0  0  0  0  0  0  0
    6.9348    5.2799    0.0000 H   0  0  0  0  0  0  0  0  0  0  0  0
    2.0000    0.9206    0.0000 H   0  0  0  0  0  0  0  0  0  0  0  0
   10.2987    4.9170    0.0000 H   0  0  0  0  0  0  0  0  0  0  0  0
  1 22  1  0  0  0  0
  1 66  1  0  0  0  0
  2 25  1  0  0  0  0
  2 71  1  0  0  0  0
  3 28  1  0  0  0  0
  3 74  1  0  0  0  0
  4 32  1  0  0  0  0
  4 77  1  0  0  0  0
  5 42  1  0  0  0  0
  5 79  1  0  0  0  0
  6 47  1  0  0  0  0
  6 80  1  0  0  0  0
  7 48  1  0  0  0  0
  7 81  1  0  0  0  0
  8 49  1  0  0  0  0
  8 82  1  0  0  0  0
  9 50  1  0  0  0  0
  9 83  1  0  0  0  0
 10 11  1  0  0  0  0
 10 12  1  0  0  0  0
 10 15  1  0  0  0  0
 10 52  1  1  0  0  0
 11 13  1  0  0  0  0
 11 16  1  0  0  0  0
 11 53  1  6  0  0  0
 12 14  1  0  0  0  0
 12 20  1  6  0  0  0
 12 54  1  0  0  0  0
 13 14  1  0  0  0  0
 13 21  2  0  0  0  0
 14 22  2  0  0  0  0
 15 18  1  0  0  0  0
 15 23  2  0  0  0  0
 16 19  2  0  0  0  0
 16 24  1  0  0  0  0
 17 18  1  0  0  0  0
 17 19  1  0  0  0  0
 17 26  1  6  0  0  0
 17 55  1  0  0  0  0
 18 25  2  0  0  0  0
 19 27  1  0  0  0  0
 20 30  2  0  0  0  0
 20 31  1  0  0  0  0
 21 28  1  0  0  0  0
 21 56  1  0  0  0  0
 22 29  1  0  0  0  0
 23 32  1  0  0  0  0
 23 57  1  0  0  0  0
 24 34  2  0  0  0  0
 24 35  1  0  0  0  0
 25 33  1  0  0  0  0
 26 36  2  0  0  0  0
 26 37  1  0  0  0  0
 27 38  2  0  0  0  0
 27 39  1  0  0  0  0
 28 29  2  0  0  0  0
 29 58  1  0  0  0  0
 30 40  1  0  0  0  0
 30 59  1  0  0  0  0
 31 41  2  0  0  0  0
 31 60  1  0  0  0  0
 32 33  2  0  0  0  0
 33 61  1  0  0  0  0
 34 43  1  0  0  0  0
 34 62  1  0  0  0  0
 35 44  2  0  0  0  0
 35 63  1  0  0  0  0
 36 45  1  0  0  0  0
 36 64  1  0  0  0  0
 37 46  2  0  0  0  0
 37 65  1  0  0  0  0
 38 48  1  0  0  0  0
 38 67  1  0  0  0  0
 39 47  2  0  0  0  0
 39 68  1  0  0  0  0
 40 42  2  0  0  0  0
 40 69  1  0  0  0  0
 41 42  1  0  0  0  0
 41 70  1  0  0  0  0
 43 49  2  0  0  0  0
 43 72  1  0  0  0  0
 44 49  1  0  0  0  0
 44 73  1  0  0  0  0
 45 50  2  0  0  0  0
 45 75  1  0  0  0  0
 46 50  1  0  0  0  0
 46 76  1  0  0  0  0
 47 51  1  0  0  0  0
 48 51  2  0  0  0  0
 51 78  1  0  0  0  0
M  END
> <PUBCHEM_COMPOUND_CID>
442698

> <PUBCHEM_COMPOUND_CANONICALIZED>
1

> <PUBCHEM_CACTVS_COMPLEXITY>
1210

> <PUBCHEM_CACTVS_HBOND_ACCEPTOR>
9

> <PUBCHEM_CACTVS_HBOND_DONOR>
9

> <PUBCHEM_CACTVS_ROTATABLE_BOND>
4

> <PUBCHEM_CACTVS_SUBSKEYS>
AAADcfB8PAAAAAAAAAAAAAAAAAAAAYAAAAAwYMGDBAAAAGCBVAAAGgAACAAADQSAmAAwBoAAAgCAAiBCAAACAAAgIAAIiAAGCIgIJyKCERKAcAAlwBUImAeA4PQOoAABCAAYAABAAAIQADAAAQAACAAAAA==

> <PUBCHEM_IUPAC_INCHI>
InChI=1S/C42H32O9/c43-24-7-1-20(2-8-24)35-38(23-13-27(46)15-28(47)14-23)36(21-3-9-25(44)10-4-21)41-32-17-30(49)19-34(51)40(32)37(22-5-11-26(45)12-6-22)42(41)31-16-29(48)18-33(50)39(31)35/h1-19,35,37,41-51H/t35-,37+,41-,42+/m0/s1

> <PUBCHEM_IUPAC_INCHIKEY>
WJBCPQVBWGTJNA-GUOLYAGMSA-N

> <PUBCHEM_XLOGP3_AA>
6.6

> <PUBCHEM_EXACT_MASS>
680.204633

> <PUBCHEM_MOLECULAR_FORMULA>
C42H32O9

> <PUBCHEM_MOLECULAR_WEIGHT>
680.69808

> <PUBCHEM_OPENEYE_CAN_SMILES>
C1=CC(=CC=C1C2C3C(C4=CC(=CC(=C24)O)O)C(=C(C(C5=C(C=C(C=C35)O)O)C6=CC=C(C=C6)O)C7=CC(=CC(=C7)O)O)C8=CC=C(C=C8)O)O

> <PUBCHEM_OPENEYE_ISO_SMILES>
C1=CC(=CC=C1[C@H]2[C@@H]3[C@@H](C4=CC(=CC(=C24)O)O)C(=C([C@@H](C5=C(C=C(C=C35)O)O)C6=CC=C(C=C6)O)C7=CC(=CC(=C7)O)O)C8=CC=C(C=C8)O)O

> <PUBCHEM_CACTVS_TPSA>
182

> <PUBCHEM_MONOISOTOPIC_WEIGHT>
680.204633

> <PUBCHEM_TOTAL_CHARGE>
0

> <PUBCHEM_HEAVY_ATOM_COUNT>
51

> <PUBCHEM_ATOM_DEF_STEREO_COUNT>
4

> <PUBCHEM_ATOM_UDEF_STEREO_COUNT>
0

> <PUBCHEM_BOND_DEF_STEREO_COUNT>
0

> <PUBCHEM_BOND_UDEF_STEREO_COUNT>
0

> <PUBCHEM_ISOTOPIC_ATOM_COUNT>
0

> <PUBCHEM_COMPONENT_COUNT>
1

> <PUBCHEM_CACTVS_TAUTO_COUNT>
998

> <PUBCHEM_COORDINATE_TYPE>
1
5
255

> <PUBCHEM_BONDANNOTATIONS>
10  52  5
11  53  6
12  20  6
13  14  8
13  21  8
14  22  8
15  18  8
15  23  8
17  26  6
18  25  8
20  30  8
20  31  8
21  28  8
22  29  8
23  32  8
24  34  8
24  35  8
25  33  8
26  36  8
26  37  8
27  38  8
27  39  8
28  29  8
30  40  8
31  41  8
32  33  8
34  43  8
35  44  8
36  45  8
37  46  8
38  48  8
39  47  8
40  42  8
41  42  8
43  49  8
44  49  8
45  50  8
46  50  8
47  51  8
48  51  8

$$$$

