4721
  -OEChem-06261200182D

104105  0     1  0  0  0  0  0999 V2000
   13.2583   -4.3450    0.0000 O   0  0  0  0  0  0  0  0  0  0  0  0
   16.7224   -4.3450    0.0000 O   0  0  0  0  0  0  0  0  0  0  0  0
   14.9904   -5.3450    0.0000 O   0  0  0  0  0  0  0  0  0  0  0  0
   13.2583   -2.3450    0.0000 O   0  0  0  0  0  0  0  0  0  0  0  0
   14.9904   -1.3450    0.0000 C   0  0  3  0  0  0  0  0  0  0  0  0
    9.7942   -4.3450    0.0000 C   0  0  3  0  0  0  0  0  0  0  0  0
   14.9904   -0.3450    0.0000 C   0  0  0  0  0  0  0  0  0  0  0  0
    8.9282   -4.8450    0.0000 C   0  0  0  0  0  0  0  0  0  0  0  0
   14.9904   -2.3450    0.0000 C   0  0  0  0  0  0  0  0  0  0  0  0
   10.6603   -3.8450    0.0000 C   0  0  0  0  0  0  0  0  0  0  0  0
   13.9904   -1.3450    0.0000 C   0  0  0  0  0  0  0  0  0  0  0  0
   15.8564    0.1550    0.0000 C   0  0  0  0  0  0  0  0  0  0  0  0
    8.0622   -4.3450    0.0000 C   0  0  0  0  0  0  0  0  0  0  0  0
   10.2942   -5.2110    0.0000 C   0  0  0  0  0  0  0  0  0  0  0  0
   15.9904   -1.3450    0.0000 C   0  0  0  0  0  0  0  0  0  0  0  0
    9.2942   -3.4790    0.0000 C   0  0  0  0  0  0  0  0  0  0  0  0
   14.1244   -2.8450    0.0000 C   0  0  0  0  0  0  0  0  0  0  0  0
   11.5263   -4.3450    0.0000 C   0  0  0  0  0  0  0  0  0  0  0  0
   15.8564   -2.8450    0.0000 C   0  0  0  0  0  0  0  0  0  0  0  0
   10.6603   -2.8450    0.0000 C   0  0  0  0  0  0  0  0  0  0  0  0
   14.1244   -3.8450    0.0000 C   0  0  0  0  0  0  0  0  0  0  0  0
   15.8564    1.1550    0.0000 C   0  0  0  0  0  0  0  0  0  0  0  0
   12.3923   -3.8450    0.0000 C   0  0  0  0  0  0  0  0  0  0  0  0
    7.1962   -4.8450    0.0000 C   0  0  0  0  0  0  0  0  0  0  0  0
   15.8564   -3.8450    0.0000 C   0  0  0  0  0  0  0  0  0  0  0  0
   14.9904   -4.3450    0.0000 C   0  0  0  0  0  0  0  0  0  0  0  0
   16.7224    1.6550    0.0000 C   0  0  0  0  0  0  0  0  0  0  0  0
   11.5263   -2.3450    0.0000 C   0  0  0  0  0  0  0  0  0  0  0  0
   12.3923   -2.8450    0.0000 C   0  0  0  0  0  0  0  0  0  0  0  0
    6.3301   -4.3450    0.0000 C   0  0  0  0  0  0  0  0  0  0  0  0
   16.4904   -0.4790    0.0000 C   0  0  0  0  0  0  0  0  0  0  0  0
    8.2942   -3.4790    0.0000 C   0  0  0  0  0  0  0  0  0  0  0  0
   16.7224    2.6550    0.0000 C   0  0  0  0  0  0  0  0  0  0  0  0
    5.4641   -4.8450    0.0000 C   0  0  0  0  0  0  0  0  0  0  0  0
   17.5885    1.1550    0.0000 C   0  0  0  0  0  0  0  0  0  0  0  0
    6.3301   -3.3450    0.0000 C   0  0  0  0  0  0  0  0  0  0  0  0
   17.5885    3.1550    0.0000 C   0  0  0  0  0  0  0  0  0  0  0  0
    4.5981   -4.3450    0.0000 C   0  0  0  0  0  0  0  0  0  0  0  0
   17.5885    4.1550    0.0000 C   0  0  0  0  0  0  0  0  0  0  0  0
    3.7320   -4.8450    0.0000 C   0  0  0  0  0  0  0  0  0  0  0  0
   18.4545    4.6550    0.0000 C   0  0  0  0  0  0  0  0  0  0  0  0
    2.8660   -4.3450    0.0000 C   0  0  0  0  0  0  0  0  0  0  0  0
   18.4545    5.6550    0.0000 C   0  0  0  0  0  0  0  0  0  0  0  0
   19.3205    4.1550    0.0000 C   0  0  0  0  0  0  0  0  0  0  0  0
    2.0000   -4.8450    0.0000 C   0  0  0  0  0  0  0  0  0  0  0  0
    2.8660   -3.3450    0.0000 C   0  0  0  0  0  0  0  0  0  0  0  0
   14.7783    0.2376    0.0000 H   0  0  0  0  0  0  0  0  0  0  0  0
   14.3798   -0.4527    0.0000 H   0  0  0  0  0  0  0  0  0  0  0  0
    8.5297   -5.3200    0.0000 H   0  0  0  0  0  0  0  0  0  0  0  0
    9.3267   -5.3200    0.0000 H   0  0  0  0  0  0  0  0  0  0  0  0
   13.9904   -0.7250    0.0000 H   0  0  0  0  0  0  0  0  0  0  0  0
   13.3704   -1.3450    0.0000 H   0  0  0  0  0  0  0  0  0  0  0  0
   13.9904   -1.9650    0.0000 H   0  0  0  0  0  0  0  0  0  0  0  0
   16.0685   -0.4276    0.0000 H   0  0  0  0  0  0  0  0  0  0  0  0
   16.4670    0.2627    0.0000 H   0  0  0  0  0  0  0  0  0  0  0  0
    8.4607   -3.8700    0.0000 H   0  0  0  0  0  0  0  0  0  0  0  0
    7.6636   -3.8700    0.0000 H   0  0  0  0  0  0  0  0  0  0  0  0
    9.7573   -5.5210    0.0000 H   0  0  0  0  0  0  0  0  0  0  0  0
   10.6042   -5.7480    0.0000 H   0  0  0  0  0  0  0  0  0  0  0  0
   10.8312   -4.9010    0.0000 H   0  0  0  0  0  0  0  0  0  0  0  0
   16.3004   -1.8819    0.0000 H   0  0  0  0  0  0  0  0  0  0  0  0
    9.6042   -2.9420    0.0000 H   0  0  0  0  0  0  0  0  0  0  0  0
   13.5874   -2.5350    0.0000 H   0  0  0  0  0  0  0  0  0  0  0  0
   11.5263   -4.9650    0.0000 H   0  0  0  0  0  0  0  0  0  0  0  0
   16.3933   -2.5350    0.0000 H   0  0  0  0  0  0  0  0  0  0  0  0
   10.1233   -2.5350    0.0000 H   0  0  0  0  0  0  0  0  0  0  0  0
   15.3195    1.4650    0.0000 H   0  0  0  0  0  0  0  0  0  0  0  0
    7.1962   -5.4650    0.0000 H   0  0  0  0  0  0  0  0  0  0  0  0
   11.5263   -1.7250    0.0000 H   0  0  0  0  0  0  0  0  0  0  0  0
   17.1104   -0.4790    0.0000 H   0  0  0  0  0  0  0  0  0  0  0  0
   16.1804    0.0580    0.0000 H   0  0  0  0  0  0  0  0  0  0  0  0
    7.9842   -2.9420    0.0000 H   0  0  0  0  0  0  0  0  0  0  0  0
    7.9842   -4.0159    0.0000 H   0  0  0  0  0  0  0  0  0  0  0  0
   16.5104    3.2376    0.0000 H   0  0  0  0  0  0  0  0  0  0  0  0
   16.1119    2.5473    0.0000 H   0  0  0  0  0  0  0  0  0  0  0  0
    5.0656   -5.3200    0.0000 H   0  0  0  0  0  0  0  0  0  0  0  0
    5.8626   -5.3200    0.0000 H   0  0  0  0  0  0  0  0  0  0  0  0
   17.2785    0.6181    0.0000 H   0  0  0  0  0  0  0  0  0  0  0  0
   18.1254    0.8450    0.0000 H   0  0  0  0  0  0  0  0  0  0  0  0
   17.8985    1.6919    0.0000 H   0  0  0  0  0  0  0  0  0  0  0  0
    6.9501   -3.3450    0.0000 H   0  0  0  0  0  0  0  0  0  0  0  0
    6.3301   -2.7250    0.0000 H   0  0  0  0  0  0  0  0  0  0  0  0
    5.7101   -3.3450    0.0000 H   0  0  0  0  0  0  0  0  0  0  0  0
   17.8005    2.5724    0.0000 H   0  0  0  0  0  0  0  0  0  0  0  0
   18.1990    3.2627    0.0000 H   0  0  0  0  0  0  0  0  0  0  0  0
    4.9966   -3.8700    0.0000 H   0  0  0  0  0  0  0  0  0  0  0  0
    4.1996   -3.8700    0.0000 H   0  0  0  0  0  0  0  0  0  0  0  0
   17.2594   -4.0350    0.0000 H   0  0  0  0  0  0  0  0  0  0  0  0
   15.5273   -5.6550    0.0000 H   0  0  0  0  0  0  0  0  0  0  0  0
   13.2583   -1.7250    0.0000 H   0  0  0  0  0  0  0  0  0  0  0  0
   17.0515    4.4650    0.0000 H   0  0  0  0  0  0  0  0  0  0  0  0
    3.7320   -5.4650    0.0000 H   0  0  0  0  0  0  0  0  0  0  0  0
   19.0745    5.6550    0.0000 H   0  0  0  0  0  0  0  0  0  0  0  0
   18.4545    6.2750    0.0000 H   0  0  0  0  0  0  0  0  0  0  0  0
   17.8345    5.6550    0.0000 H   0  0  0  0  0  0  0  0  0  0  0  0
   19.0105    3.6181    0.0000 H   0  0  0  0  0  0  0  0  0  0  0  0
   19.8574    3.8450    0.0000 H   0  0  0  0  0  0  0  0  0  0  0  0
   19.6305    4.6919    0.0000 H   0  0  0  0  0  0  0  0  0  0  0  0
    3.4860   -3.3450    0.0000 H   0  0  0  0  0  0  0  0  0  0  0  0
    2.8660   -2.7250    0.0000 H   0  0  0  0  0  0  0  0  0  0  0  0
    2.2460   -3.3450    0.0000 H   0  0  0  0  0  0  0  0  0  0  0  0
    1.6900   -4.3081    0.0000 H   0  0  0  0  0  0  0  0  0  0  0  0
    1.4631   -5.1550    0.0000 H   0  0  0  0  0  0  0  0  0  0  0  0
    2.3100   -5.3819    0.0000 H   0  0  0  0  0  0  0  0  0  0  0  0
  1 21  1  0  0  0  0
  1 23  1  0  0  0  0
  2 25  1  0  0  0  0
  2 88  1  0  0  0  0
  3 26  1  0  0  0  0
  3 89  1  0  0  0  0
  4 29  1  0  0  0  0
  4 90  1  0  0  0  0
  5  7  1  0  0  0  0
  5  9  1  0  0  0  0
  5 11  1  0  0  0  0
  5 15  1  0  0  0  0
  6  8  1  0  0  0  0
  6 10  1  0  0  0  0
  6 14  1  0  0  0  0
  6 16  1  0  0  0  0
  7 12  1  0  0  0  0
  7 47  1  0  0  0  0
  7 48  1  0  0  0  0
  8 13  1  0  0  0  0
  8 49  1  0  0  0  0
  8 50  1  0  0  0  0
  9 17  1  0  0  0  0
  9 19  2  0  0  0  0
 10 18  2  0  0  0  0
 10 20  1  0  0  0  0
 11 51  1  0  0  0  0
 11 52  1  0  0  0  0
 11 53  1  0  0  0  0
 12 22  1  0  0  0  0
 12 54  1  0  0  0  0
 12 55  1  0  0  0  0
 13 24  1  0  0  0  0
 13 56  1  0  0  0  0
 13 57  1  0  0  0  0
 14 58  1  0  0  0  0
 14 59  1  0  0  0  0
 14 60  1  0  0  0  0
 15 31  2  0  0  0  0
 15 61  1  0  0  0  0
 16 32  2  0  0  0  0
 16 62  1  0  0  0  0
 17 21  2  0  0  0  0
 17 63  1  0  0  0  0
 18 23  1  0  0  0  0
 18 64  1  0  0  0  0
 19 25  1  0  0  0  0
 19 65  1  0  0  0  0
 20 28  2  0  0  0  0
 20 66  1  0  0  0  0
 21 26  1  0  0  0  0
 22 27  2  3  0  0  0
 22 67  1  0  0  0  0
 23 29  2  0  0  0  0
 24 30  2  3  0  0  0
 24 68  1  0  0  0  0
 25 26  2  0  0  0  0
 27 33  1  0  0  0  0
 27 35  1  0  0  0  0
 28 29  1  0  0  0  0
 28 69  1  0  0  0  0
 30 34  1  0  0  0  0
 30 36  1  0  0  0  0
 31 70  1  0  0  0  0
 31 71  1  0  0  0  0
 32 72  1  0  0  0  0
 32 73  1  0  0  0  0
 33 37  1  0  0  0  0
 33 74  1  0  0  0  0
 33 75  1  0  0  0  0
 34 38  1  0  0  0  0
 34 76  1  0  0  0  0
 34 77  1  0  0  0  0
 35 78  1  0  0  0  0
 35 79  1  0  0  0  0
 35 80  1  0  0  0  0
 36 81  1  0  0  0  0
 36 82  1  0  0  0  0
 36 83  1  0  0  0  0
 37 39  1  0  0  0  0
 37 84  1  0  0  0  0
 37 85  1  0  0  0  0
 38 40  1  0  0  0  0
 38 86  1  0  0  0  0
 38 87  1  0  0  0  0
 39 41  2  0  0  0  0
 39 91  1  0  0  0  0
 40 42  2  0  0  0  0
 40 92  1  0  0  0  0
 41 43  1  0  0  0  0
 41 44  1  0  0  0  0
 42 45  1  0  0  0  0
 42 46  1  0  0  0  0
 43 93  1  0  0  0  0
 43 94  1  0  0  0  0
 43 95  1  0  0  0  0
 44 96  1  0  0  0  0
 44 97  1  0  0  0  0
 44 98  1  0  0  0  0
 45102  1  0  0  0  0
 45103  1  0  0  0  0
 45104  1  0  0  0  0
 46 99  1  0  0  0  0
 46100  1  0  0  0  0
 46101  1  0  0  0  0
M  END
> <PUBCHEM_COMPOUND_CID>
4721

> <PUBCHEM_COMPOUND_CANONICALIZED>
1

> <PUBCHEM_CACTVS_COMPLEXITY>
1070

> <PUBCHEM_CACTVS_HBOND_ACCEPTOR>
4

> <PUBCHEM_CACTVS_HBOND_DONOR>
3

> <PUBCHEM_CACTVS_ROTATABLE_BOND>
18

> <PUBCHEM_CACTVS_SUBSKEYS>
AAADcfB8OAAAAAAAAAAAAAAAAAAAAAAAAAAwYAAAAAAAAAABQAAAGgAACAAADgSAmAAyBoAABgCAAiBCAAACCAAgIAAIiAAGiIgNJyKGMRqCeCOlwBULuAeA4PwPoAABCAAAQABAAAIQAACAAAAAAAAAAA==

> <PUBCHEM_IUPAC_OPENEYE_NAME>
3-[2-hydroxy-5-(1,5,9-trimethyl-1-vinyl-deca-4,8-dienyl)phenoxy]-5-(1,5,9-trimethyl-1-vinyl-deca-4,8-dienyl)benzene-1,2-diol

> <PUBCHEM_IUPAC_CAS_NAME>
3-[2-hydroxy-5-(3,7,11-trimethyldodeca-1,6,10-trien-3-yl)phenoxy]-5-(3,7,11-trimethyldodeca-1,6,10-trien-3-yl)benzene-1,2-diol

> <PUBCHEM_IUPAC_NAME>
3-[2-hydroxy-5-(3,7,11-trimethyldodeca-1,6,10-trien-3-yl)phenoxy]-5-(3,7,11-trimethyldodeca-1,6,10-trien-3-yl)benzene-1,2-diol

> <PUBCHEM_IUPAC_SYSTEMATIC_NAME>
3-[2-oxidanyl-5-(3,7,11-trimethyldodeca-1,6,10-trien-3-yl)phenoxy]-5-(3,7,11-trimethyldodeca-1,6,10-trien-3-yl)benzene-1,2-diol

> <PUBCHEM_IUPAC_TRADITIONAL_NAME>
3-[2-hydroxy-5-(1,5,9-trimethyl-1-vinyl-deca-4,8-dienyl)phenoxy]-5-(1,5,9-trimethyl-1-vinyl-deca-4,8-dienyl)pyrocatechol

> <PUBCHEM_IUPAC_INCHI>
InChI=1S/C42H58O4/c1-11-41(9,25-15-21-32(7)19-13-17-30(3)4)34-23-24-36(43)38(28-34)46-39-29-35(27-37(44)40(39)45)42(10,12-2)26-16-22-33(8)20-14-18-31(5)6/h11-12,17-18,21-24,27-29,43-45H,1-2,13-16,19-20,25-26H2,3-10H3

> <PUBCHEM_IUPAC_INCHIKEY>
SRYUFQNDYPIUQF-UHFFFAOYSA-N

> <PUBCHEM_XLOGP3_AA>
13.9

> <PUBCHEM_EXACT_MASS>
626.43351

> <PUBCHEM_MOLECULAR_FORMULA>
C42H58O4

> <PUBCHEM_MOLECULAR_WEIGHT>
626.90752

> <PUBCHEM_OPENEYE_CAN_SMILES>
CC(=CCCC(=CCCC(C)(C=C)C1=CC(=C(C=C1)O)OC2=CC(=CC(=C2O)O)C(C)(CCC=C(C)CCC=C(C)C)C=C)C)C

> <PUBCHEM_OPENEYE_ISO_SMILES>
CC(=CCCC(=CCCC(C)(C=C)C1=CC(=C(C=C1)O)OC2=CC(=CC(=C2O)O)C(C)(CCC=C(C)CCC=C(C)C)C=C)C)C

> <PUBCHEM_CACTVS_TPSA>
69.9

> <PUBCHEM_MONOISOTOPIC_WEIGHT>
626.43351

> <PUBCHEM_TOTAL_CHARGE>
0

> <PUBCHEM_HEAVY_ATOM_COUNT>
46

> <PUBCHEM_ATOM_DEF_STEREO_COUNT>
0

> <PUBCHEM_ATOM_UDEF_STEREO_COUNT>
2

> <PUBCHEM_BOND_DEF_STEREO_COUNT>
0

> <PUBCHEM_BOND_UDEF_STEREO_COUNT>
2

> <PUBCHEM_ISOTOPIC_ATOM_COUNT>
0

> <PUBCHEM_COMPONENT_COUNT>
1

> <PUBCHEM_CACTVS_TAUTO_COUNT>
23

> <PUBCHEM_COORDINATE_TYPE>
1
5
255

> <PUBCHEM_BONDANNOTATIONS>
10  18  8
10  20  8
17  21  8
18  23  8
19  25  8
20  28  8
21  26  8
22  27  1
23  29  8
24  30  1
25  26  8
28  29  8
5  11  3
6  14  3
9  17  8
9  19  8

$$$$

