   Color/Form
        White crystals
   from [1]HSDB

   Melting Point
        167.5-169 deg C
   from [2]HSDB

   Corrosivity
        Formulated products are noncorrosive
   from [3]HSDB

   Density/Specific Gravity
        1.29 kg/l @ 20 deg C
   from [4]HSDB

   Dissociation Constants
        pKa = 0.87
   from [5]HSDB

   Octanol/Water Partition Coefficient
        log Kow= 2.22
   from [6]HSDB

   Solubilities

     * Solubility at 25 deg C (g/l) in: benzene, 15; chloroform, 210;
       ethanol, 45; hexane, 15.
     * In water, 170 mg/l @ 25 deg C

   from [7]HSDB

   Vapor Pressure
        1.38X10-7 mm Hg @ 25 deg C
   from [8]HSDB

   Other Chemical/Physical Properties

     * Bulk density of technical material: Fluffed 0.35 g/cc; packed 0.45
       g/cc
     * White crystalline solid /Technical cyanazine (> or equal 95% pure)/
     * Henry's Law constant= 2.57X10-10 atm-cu m/mole @ 25 deg C

   from [9]HSDB

   Computed Properties
   Molecular Weight                  240.69272 [g/mol]
   Molecular Formula                 C[9]H[13]ClN[6]
   XLogP3                            2.2
   H-Bond Donor                      2
   H-Bond Acceptor                   6
   Rotatable Bond Count              4
   Tautomer Count                    9
   Exact Mass                        240.089022
   MonoIsotopic Mass                 240.089022
   Topological Polar Surface Area    86.5
   Heavy Atom Count                  16
   Formal Charge                     0
   Complexity                        272
   Isotope Atom Count                0
   Defined Atom Stereocenter Count   0
   Undefined Atom Stereocenter Count 0
   Defined Bond Stereocenter Count   0
   Undefined Bond Stereocenter Count 0
   Covalently-Bonded Unit Count      1
   Feature 3D Acceptor Count         1
   Feature 3D Donor Count            2
   Feature 3D Cation Count           2
   Feature 3D Hydrophobe Count       1
   Feature 3D Ring Count             1
   Effective Rotor Count             4
   Conformer Sampling RMSD           0.6
   CID Conformer Count               [10]107

References

   1. http://toxnet.nlm.nih.gov/cgi-bin/sis/search/r?dbs+hsdb:@term+@rn+@rel+21725-46-2
   2. http://toxnet.nlm.nih.gov/cgi-bin/sis/search/r?dbs+hsdb:@term+@rn+@rel+21725-46-2
   3. http://toxnet.nlm.nih.gov/cgi-bin/sis/search/r?dbs+hsdb:@term+@rn+@rel+21725-46-2
   4. http://toxnet.nlm.nih.gov/cgi-bin/sis/search/r?dbs+hsdb:@term+@rn+@rel+21725-46-2
   5. http://toxnet.nlm.nih.gov/cgi-bin/sis/search/r?dbs+hsdb:@term+@rn+@rel+21725-46-2
   6. http://toxnet.nlm.nih.gov/cgi-bin/sis/search/r?dbs+hsdb:@term+@rn+@rel+21725-46-2
   7. http://toxnet.nlm.nih.gov/cgi-bin/sis/search/r?dbs+hsdb:@term+@rn+@rel+21725-46-2
   8. http://toxnet.nlm.nih.gov/cgi-bin/sis/search/r?dbs+hsdb:@term+@rn+@rel+21725-46-2
   9. http://toxnet.nlm.nih.gov/cgi-bin/sis/search/r?dbs+hsdb:@term+@rn+@rel+21725-46-2
  10. http://pubchem.ncbi.nlm.nih.gov/vw3d/vw3d.cgi?cid=30773
