33478
  -OEChem-07051213022D

 61 63  0     1  0  0  0  0  0999 V2000
    9.2365    2.5918    0.0000 S   0  0  0  0  0  0  0  0  0  0  0  0
    6.5715    0.5701    0.0000 O   0  0  0  0  0  0  0  0  0  0  0  0
    8.8764   -0.7204    0.0000 O   0  0  0  0  0  0  0  0  0  0  0  0
   10.5236   -0.1852    0.0000 O   0  0  0  0  0  0  0  0  0  0  0  0
    5.3442    1.7733    0.0000 O   0  0  0  0  0  0  0  0  0  0  0  0
    8.5162   -2.4146    0.0000 O   0  0  0  0  0  0  0  0  0  0  0  0
    9.8034   -3.5736    0.0000 O   0  0  0  0  0  0  0  0  0  0  0  0
    8.2854    1.2828    0.0000 N   0  0  0  0  0  0  0  0  0  0  0  0
    6.5715    2.9955    0.0000 N   0  0  0  0  0  0  0  0  0  0  0  0
    5.1602    4.4126    0.0000 N   0  0  0  0  0  0  0  0  0  0  0  0
    8.2854    2.2828    0.0000 C   0  0  1  0  0  0  0  0  0  0  0  0
    9.8242    1.7828    0.0000 C   0  0  0  0  0  0  0  0  0  0  0  0
    9.2365    0.9738    0.0000 C   0  0  2  0  0  0  0  0  0  0  0  0
    7.2771    2.2870    0.0000 C   0  0  1  0  0  0  0  0  0  0  0  0
    7.2771    1.2787    0.0000 C   0  0  0  0  0  0  0  0  0  0  0  0
   10.6333    2.3706    0.0000 C   0  0  0  0  0  0  0  0  0  0  0  0
   10.6333    1.1950    0.0000 C   0  0  0  0  0  0  0  0  0  0  0  0
    9.5455    0.0227    0.0000 C   0  0  0  0  0  0  0  0  0  0  0  0
    5.6050    2.7387    0.0000 C   0  0  0  0  0  0  0  0  0  0  0  0
    4.8994    3.4472    0.0000 C   0  0  1  0  0  0  0  0  0  0  0  0
    9.1854   -1.6714    0.0000 C   0  0  0  0  0  0  0  0  0  0  0  0
    3.9329    3.1904    0.0000 C   0  0  0  0  0  0  0  0  0  0  0  0
    8.1561   -4.1088    0.0000 C   0  0  0  0  0  0  0  0  0  0  0  0
    3.2273    3.8990    0.0000 C   0  0  0  0  0  0  0  0  0  0  0  0
    3.6721    2.2250    0.0000 C   0  0  0  0  0  0  0  0  0  0  0  0
    8.8252   -3.3657    0.0000 C   0  0  0  0  0  0  0  0  0  0  0  0
    7.4870   -4.8520    0.0000 C   0  0  0  0  0  0  0  0  0  0  0  0
    8.8993   -4.7779    0.0000 C   0  0  0  0  0  0  0  0  0  0  0  0
    7.4130   -3.4397    0.0000 C   0  0  0  0  0  0  0  0  0  0  0  0
    2.2608    3.6421    0.0000 C   0  0  0  0  0  0  0  0  0  0  0  0
    2.7056    1.9682    0.0000 C   0  0  0  0  0  0  0  0  0  0  0  0
    2.0000    2.6768    0.0000 C   0  0  0  0  0  0  0  0  0  0  0  0
    8.1542    3.1226    0.0000 H   0  0  0  0  0  0  0  0  0  0  0  0
    8.7981    0.5354    0.0000 H   0  0  0  0  0  0  0  0  0  0  0  0
    6.7041    2.0503    0.0000 H   0  0  0  0  0  0  0  0  0  0  0  0
   10.2688    0.6934    0.0000 H   0  0  0  0  0  0  0  0  0  0  0  0
   11.1349    0.8306    0.0000 H   0  0  0  0  0  0  0  0  0  0  0  0
   10.9977    1.6966    0.0000 H   0  0  0  0  0  0  0  0  0  0  0  0
   10.9977    1.8690    0.0000 H   0  0  0  0  0  0  0  0  0  0  0  0
   11.1349    2.7350    0.0000 H   0  0  0  0  0  0  0  0  0  0  0  0
   10.2688    2.8722    0.0000 H   0  0  0  0  0  0  0  0  0  0  0  0
    6.7332    3.5941    0.0000 H   0  0  0  0  0  0  0  0  0  0  0  0
    4.4619    3.8866    0.0000 H   0  0  0  0  0  0  0  0  0  0  0  0
    9.5671   -2.1600    0.0000 H   0  0  0  0  0  0  0  0  0  0  0  0
    9.7328   -1.3804    0.0000 H   0  0  0  0  0  0  0  0  0  0  0  0
    4.7227    4.8520    0.0000 H   0  0  0  0  0  0  0  0  0  0  0  0
    5.7594    4.5719    0.0000 H   0  0  0  0  0  0  0  0  0  0  0  0
    3.3890    4.4975    0.0000 H   0  0  0  0  0  0  0  0  0  0  0  0
    4.1096    1.7857    0.0000 H   0  0  0  0  0  0  0  0  0  0  0  0
    7.0262   -4.4371    0.0000 H   0  0  0  0  0  0  0  0  0  0  0  0
    7.0721   -5.3127    0.0000 H   0  0  0  0  0  0  0  0  0  0  0  0
    7.9477   -5.2668    0.0000 H   0  0  0  0  0  0  0  0  0  0  0  0
    8.4844   -5.2387    0.0000 H   0  0  0  0  0  0  0  0  0  0  0  0
    9.3600   -5.1928    0.0000 H   0  0  0  0  0  0  0  0  0  0  0  0
    9.3141   -4.3172    0.0000 H   0  0  0  0  0  0  0  0  0  0  0  0
    7.8278   -2.9789    0.0000 H   0  0  0  0  0  0  0  0  0  0  0  0
    6.9522   -3.0248    0.0000 H   0  0  0  0  0  0  0  0  0  0  0  0
    6.9981   -3.9004    0.0000 H   0  0  0  0  0  0  0  0  0  0  0  0
    1.8233    4.0814    0.0000 H   0  0  0  0  0  0  0  0  0  0  0  0
    2.5440    1.3696    0.0000 H   0  0  0  0  0  0  0  0  0  0  0  0
    1.4008    2.5175    0.0000 H   0  0  0  0  0  0  0  0  0  0  0  0
  1 11  1  0  0  0  0
  1 12  1  0  0  0  0
  2 15  2  0  0  0  0
  3 18  1  0  0  0  0
  3 21  1  0  0  0  0
  4 18  2  0  0  0  0
  5 19  2  0  0  0  0
  6 21  1  0  0  0  0
  6 26  1  0  0  0  0
  7 26  2  0  0  0  0
  8 11  1  0  0  0  0
  8 13  1  0  0  0  0
  8 15  1  0  0  0  0
 14  9  1  1  0  0  0
  9 19  1  0  0  0  0
  9 42  1  0  0  0  0
 20 10  1  1  0  0  0
 10 46  1  0  0  0  0
 10 47  1  0  0  0  0
 11 14  1  0  0  0  0
 11 33  1  6  0  0  0
 12 13  1  0  0  0  0
 12 16  1  0  0  0  0
 12 17  1  0  0  0  0
 13 18  1  6  0  0  0
 13 34  1  0  0  0  0
 14 15  1  0  0  0  0
 14 35  1  0  0  0  0
 16 39  1  0  0  0  0
 16 40  1  0  0  0  0
 16 41  1  0  0  0  0
 17 36  1  0  0  0  0
 17 37  1  0  0  0  0
 17 38  1  0  0  0  0
 19 20  1  0  0  0  0
 20 22  1  0  0  0  0
 20 43  1  0  0  0  0
 21 44  1  0  0  0  0
 21 45  1  0  0  0  0
 22 24  2  0  0  0  0
 22 25  1  0  0  0  0
 23 26  1  0  0  0  0
 23 27  1  0  0  0  0
 23 28  1  0  0  0  0
 23 29  1  0  0  0  0
 24 30  1  0  0  0  0
 24 48  1  0  0  0  0
 25 31  2  0  0  0  0
 25 49  1  0  0  0  0
 27 50  1  0  0  0  0
 27 51  1  0  0  0  0
 27 52  1  0  0  0  0
 28 53  1  0  0  0  0
 28 54  1  0  0  0  0
 28 55  1  0  0  0  0
 29 56  1  0  0  0  0
 29 57  1  0  0  0  0
 29 58  1  0  0  0  0
 30 32  2  0  0  0  0
 30 59  1  0  0  0  0
 31 32  1  0  0  0  0
 31 60  1  0  0  0  0
 32 61  1  0  0  0  0
M  END
> <PUBCHEM_COMPOUND_CID>
33478

> <PUBCHEM_COMPOUND_CANONICALIZED>
1

> <PUBCHEM_CACTVS_COMPLEXITY>
774

> <PUBCHEM_CACTVS_HBOND_ACCEPTOR>
8

> <PUBCHEM_CACTVS_HBOND_DONOR>
2

> <PUBCHEM_CACTVS_ROTATABLE_BOND>
9

> <PUBCHEM_CACTVS_SUBSKEYS>
AAADceB7OABAAAAAAAAAAAAAAABYAWAAAAAwAAAABYAAAAABAAAAHgQQAAAADijF2AeyCIPABAiIAiHSGACCAABgABAIiIGIBIgaYDqglTG1IABklgC8iAcYiICOAAAAAAAAAAAAAAAAAAAAAAAAAAAAAA==

> <PUBCHEM_IUPAC_OPENEYE_NAME>
2,2-dimethylpropanoyloxymethyl (2S,5R,6R)-6-[[(2R)-2-amino-2-phenyl-acetyl]amino]-3,3-dimethyl-7-oxo-4-thia-1-azabicyclo[3.2.0]heptane-2-carboxylate

> <PUBCHEM_IUPAC_CAS_NAME>
(2S,5R,6R)-6-[[(2R)-2-amino-1-oxo-2-phenylethyl]amino]-3,3-dimethyl-7-oxo-4-thia-1-azabicyclo[3.2.0]heptane-2-carboxylic acid (2,2-dimethyl-1-oxopropoxy)methyl ester

> <PUBCHEM_IUPAC_NAME>
2,2-dimethylpropanoyloxymethyl (2S,5R,6R)-6-[[(2R)-2-amino-2-phenylacetyl]amino]-3,3-dimethyl-7-oxo-4-thia-1-azabicyclo[3.2.0]heptane-2-carboxylate

> <PUBCHEM_IUPAC_SYSTEMATIC_NAME>
2,2-dimethylpropanoyloxymethyl (2S,5R,6R)-6-[[(2R)-2-azanyl-2-phenyl-ethanoyl]amino]-3,3-dimethyl-7-oxidanylidene-4-thia-1-azabicyclo[3.2.0]heptane-2-carboxylate

> <PUBCHEM_IUPAC_TRADITIONAL_NAME>
(2S,5R,6R)-6-[[(2R)-2-amino-2-phenyl-acetyl]amino]-7-keto-3,3-dimethyl-4-thia-1-azabicyclo[3.2.0]heptane-2-carboxylic acid pivaloyloxymethyl ester

> <PUBCHEM_IUPAC_INCHI>
InChI=1S/C22H29N3O6S/c1-21(2,3)20(29)31-11-30-19(28)15-22(4,5)32-18-14(17(27)25(15)18)24-16(26)13(23)12-9-7-6-8-10-12/h6-10,13-15,18H,11,23H2,1-5H3,(H,24,26)/t13-,14-,15+,18-/m1/s1

> <PUBCHEM_IUPAC_INCHIKEY>
ZEMIJUDPLILVNQ-ZXFNITATSA-N

> <PUBCHEM_XLOGP3>
2.9

> <PUBCHEM_EXACT_MASS>
463.177707

> <PUBCHEM_MOLECULAR_FORMULA>
C22H29N3O6S

> <PUBCHEM_MOLECULAR_WEIGHT>
463.54716

> <PUBCHEM_OPENEYE_CAN_SMILES>
CC1(C(N2C(S1)C(C2=O)NC(=O)C(C3=CC=CC=C3)N)C(=O)OCOC(=O)C(C)(C)C)C

> <PUBCHEM_OPENEYE_ISO_SMILES>
CC1([C@@H](N2[C@H](S1)[C@@H](C2=O)NC(=O)[C@@H](C3=CC=CC=C3)N)C(=O)OCOC(=O)C(C)(C)C)C

> <PUBCHEM_CACTVS_TPSA>
153

> <PUBCHEM_MONOISOTOPIC_WEIGHT>
463.177707

> <PUBCHEM_TOTAL_CHARGE>
0

> <PUBCHEM_HEAVY_ATOM_COUNT>
32

> <PUBCHEM_ATOM_DEF_STEREO_COUNT>
4

> <PUBCHEM_ATOM_UDEF_STEREO_COUNT>
0

> <PUBCHEM_BOND_DEF_STEREO_COUNT>
0

> <PUBCHEM_BOND_UDEF_STEREO_COUNT>
0

> <PUBCHEM_ISOTOPIC_ATOM_COUNT>
0

> <PUBCHEM_COMPONENT_COUNT>
1

> <PUBCHEM_CACTVS_TAUTO_COUNT>
4

> <PUBCHEM_COORDINATE_TYPE>
1
5
255

> <PUBCHEM_BONDANNOTATIONS>
20  10  5
11  33  6
13  18  6
22  24  8
22  25  8
24  30  8
25  31  8
30  32  8
31  32  8
14  9  5

$$$$

