   Chemical and Physical Properties References

   [1]USDA ARS - USDA chemical properties
   from [2]ChemIDplus

   Color/Form

     * White monoclinic, crystalline solid
     * Needle-like crystals
     * Colorless to white crystalline solid

   from [3]HSDB

   Odor

     * Phenolic odor
     * Very pungent odor, only when hot
     * Benzene-like odor

   from [4]HSDB

   Taste
        Taste threshold of 30 ug/L
   from [5]HSDB

   Boiling Point
        309-310 deg C (decomposes)
   from [6]HSDB

   Melting Point
        174 deg C
   from [7]HSDB

   Corrosivity
        Noncorrosive in absence of moisture
   from [8]HSDB

   Density/Specific Gravity
        1.978 g/mL
   from [9]HSDB

   Dissociation Constants
        pKa = 4.70
   from [10]HSDB

   Heat of Vaporization
        16,742.6 gcal/gmole
   from [11]HSDB

   Octanol/Water Partition Coefficient
        log Kow = 5.12
   from [12]HSDB

   Solubilities

     * Slightly soluble in ligroin; very soluble in diethyl ether
     * Soluble in most organic solvents, for example acetone 215 g/L at 20
       deg C. Slightly soluble in ... parafins.
     * Sol in dilute alkali, carbitol, cellosolve
     * Solubilities (g/100 g of solution at 20 deg C): 2 g in carbon
       tetrachloride; 8.5 in o-dichlorobenzene; 3.1 g in diesel oil; 32 in
       pine oil; 1.5 in Stoddard solvent
     * In acetone: 50 g/100 g at 25 deg C; benzene: 15 g/100 g at 25 deg
       C; diacetone alcohol: 190 g/100 g at 25 deg C; ethanol (95%): 120
       g/100 g at 25 deg C; methanol: 180 g/100 g at 25 deg C;
       isopropanol: 85 g/100 g at 25 deg C; ethylene glycol: 11 g/100 g at
       25 deg C
     * Water solubility: 5 mg/L in water at 0 deg C; 14 mg/L in water at
       20 deg C; 35 mg/L in water at 50 deg C; 85 mg/L in water at 70 deg
       C
     * In water, 14 mg/L at 25 deg C

   from [13]HSDB

   Spectral Properties

     * MAX ABSORPTION (ALCOHOL): 300.5 NM (LOG E= 3.4); 308 NM (LOG E=
       3.4); SADTLER REFERENCE NUMBER: 279 (IR, PRISM); 96 (IR, GRATING)
     * Intense mass spectral peaks: 266 m/z (100%), 268 m/z (70%), 264 m/z
       (68%), 165 m/z (54%)
     * Intense mass spectral peaks: 200 m/z, 228 m/z
     * IR: 3657 (Coblentz Society Spectral Collection)
     * UV: 112 (Sadtler Research Laboratories Spectral Collection)
     * MASS: 104250 (NIST/EPA/MSDC Mass Spectral Database, 1990 Version)
     * Infrared (prism(279)); grating (96), ultraviolet (112) and nuclear
       magnetic resonance (proton (39667); C-13 (26001)) spectral data
       have been reported.

   from [14]HSDB

   Vapor Density
        9.20 (Air = 1)
   from [15]HSDB

   Vapor Pressure
        1.10X10-4 mm Hg at 25 deg C
   from [16]HSDB

   Other Chemical/Physical Properties

     * DENSITY OF SATURATED AIR: 1.0000011 (AIR= 1); PERCENT IN SATURATED
       AIR: 0.0000145% BY VOLUME AT 20 DEG C; 1 MG/L IS EQUIVALENT TO 91.9
       PPM & 1 PPM IS EQUIVALENT TO 0.01088 MG/L AT 25 DEG C
     * Light brown to tan solid /Technical/
     * Dark grey /Technical/
     * The sodium, calcium and magnesium salts are soluble in water.
     * Henry's Law constant = 2.45X10-8 atm-cu m/mole at 22 deg C
     * Hydroxyl radical reaction rate constant = 0.55X10-12 cu
       cm/molec-sec at 25 deg C (est)

   from [17]HSDB

   Computed Properties
   Molecular Weight                  266.33654 [g/mol]
   Molecular Formula                 C[6]HCl[5]O
   XLogP3                            5.1
   H-Bond Donor                      1
   H-Bond Acceptor                   1
   Rotatable Bond Count              0
   Tautomer Count                    2
   Exact Mass                        265.844053
   MonoIsotopic Mass                 263.847003
   Topological Polar Surface Area    20.2
   Heavy Atom Count                  12
   Formal Charge                     0
   Complexity                        150
   Isotope Atom Count                0
   Defined Atom Stereocenter Count   0
   Undefined Atom Stereocenter Count 0
   Defined Bond Stereocenter Count   0
   Undefined Bond Stereocenter Count 0
   Covalently-Bonded Unit Count      1
   Feature 3D Donor Count            1
   Feature 3D Ring Count             1
   Effective Rotor Count             0
   Conformer Sampling RMSD           0.4
   CID Conformer Count               [18]1

References

   1. http://www.ars.usda.gov/SP2UserFiles/ad_hoc/12755100DatabaseFiles/PesticidePropertiesDatabase/IndividualPesticideFiles/PENTACHLOROPHENOL.TXT
   2. http://chem.sis.nlm.nih.gov/chemidplus/
   3. http://toxnet.nlm.nih.gov/cgi-bin/sis/search/r?dbs+hsdb:@term+@rn+@rel+87-86-5
   4. http://toxnet.nlm.nih.gov/cgi-bin/sis/search/r?dbs+hsdb:@term+@rn+@rel+87-86-5
   5. http://toxnet.nlm.nih.gov/cgi-bin/sis/search/r?dbs+hsdb:@term+@rn+@rel+87-86-5
   6. http://toxnet.nlm.nih.gov/cgi-bin/sis/search/r?dbs+hsdb:@term+@rn+@rel+87-86-5
   7. http://toxnet.nlm.nih.gov/cgi-bin/sis/search/r?dbs+hsdb:@term+@rn+@rel+87-86-5
   8. http://toxnet.nlm.nih.gov/cgi-bin/sis/search/r?dbs+hsdb:@term+@rn+@rel+87-86-5
   9. http://toxnet.nlm.nih.gov/cgi-bin/sis/search/r?dbs+hsdb:@term+@rn+@rel+87-86-5
  10. http://toxnet.nlm.nih.gov/cgi-bin/sis/search/r?dbs+hsdb:@term+@rn+@rel+87-86-5
  11. http://toxnet.nlm.nih.gov/cgi-bin/sis/search/r?dbs+hsdb:@term+@rn+@rel+87-86-5
  12. http://toxnet.nlm.nih.gov/cgi-bin/sis/search/r?dbs+hsdb:@term+@rn+@rel+87-86-5
  13. http://toxnet.nlm.nih.gov/cgi-bin/sis/search/r?dbs+hsdb:@term+@rn+@rel+87-86-5
  14. http://toxnet.nlm.nih.gov/cgi-bin/sis/search/r?dbs+hsdb:@term+@rn+@rel+87-86-5
  15. http://toxnet.nlm.nih.gov/cgi-bin/sis/search/r?dbs+hsdb:@term+@rn+@rel+87-86-5
  16. http://toxnet.nlm.nih.gov/cgi-bin/sis/search/r?dbs+hsdb:@term+@rn+@rel+87-86-5
  17. http://toxnet.nlm.nih.gov/cgi-bin/sis/search/r?dbs+hsdb:@term+@rn+@rel+87-86-5
  18. http://pubchem.ncbi.nlm.nih.gov/vw3d/vw3d.cgi?cid=992
