183419
  -OEChem-07051213012D

 38 39  0     0  0  0  0  0  0999 V2000
    6.3301   -4.4920    0.0000 Cl  0  0  0  0  0  0  0  0  0  0  0  0
    3.7320   -2.9920    0.0000 S   0  0  0  0  0  0  0  0  0  0  0  0
    8.0622   -1.4920    0.0000 F   0  0  0  0  0  0  0  0  0  0  0  0
    7.1922    4.4920    0.0000 F   0  0  0  0  0  0  0  0  0  0  0  0
    3.2320   -3.8580    0.0000 O   0  0  0  0  0  0  0  0  0  0  0  0
    4.2320   -2.1260    0.0000 O   0  0  0  0  0  0  0  0  0  0  0  0
    8.0902   -0.2132    0.0000 O   0  0  0  0  0  0  0  0  0  0  0  0
    6.8301    1.0469    0.0000 N   0  0  0  0  0  0  0  0  0  0  0  0
    6.3301   -0.4920    0.0000 N   0  0  0  0  0  0  0  0  0  0  0  0
    4.5981   -3.4920    0.0000 N   0  0  0  0  0  0  0  0  0  0  0  0
    5.8301    1.0469    0.0000 N   0  0  0  0  0  0  0  0  0  0  0  0
    5.5211    0.0958    0.0000 N   0  0  0  0  0  0  0  0  0  0  0  0
    7.4179    1.8559    0.0000 C   0  0  0  0  0  0  0  0  0  0  0  0
    6.3301   -1.4920    0.0000 C   0  0  0  0  0  0  0  0  0  0  0  0
    5.4641   -2.9920    0.0000 C   0  0  0  0  0  0  0  0  0  0  0  0
    7.0112    2.7694    0.0000 C   0  0  0  0  0  0  0  0  0  0  0  0
    5.4641   -1.9920    0.0000 C   0  0  0  0  0  0  0  0  0  0  0  0
    2.8660   -2.4920    0.0000 C   0  0  0  0  0  0  0  0  0  0  0  0
    7.1391    0.0958    0.0000 C   0  0  0  0  0  0  0  0  0  0  0  0
    7.1962   -1.9920    0.0000 C   0  0  0  0  0  0  0  0  0  0  0  0
    6.3301   -3.4920    0.0000 C   0  0  0  0  0  0  0  0  0  0  0  0
    7.1962   -2.9920    0.0000 C   0  0  0  0  0  0  0  0  0  0  0  0
    7.5990    3.5784    0.0000 C   0  0  0  0  0  0  0  0  0  0  0  0
    2.0000   -2.9920    0.0000 C   0  0  0  0  0  0  0  0  0  0  0  0
    7.8486    1.4099    0.0000 H   0  0  0  0  0  0  0  0  0  0  0  0
    7.9319    2.2026    0.0000 H   0  0  0  0  0  0  0  0  0  0  0  0
    6.5805    3.2154    0.0000 H   0  0  0  0  0  0  0  0  0  0  0  0
    6.4972    2.4227    0.0000 H   0  0  0  0  0  0  0  0  0  0  0  0
    4.9272   -1.6820    0.0000 H   0  0  0  0  0  0  0  0  0  0  0  0
    3.2646   -2.0170    0.0000 H   0  0  0  0  0  0  0  0  0  0  0  0
    2.4675   -2.0170    0.0000 H   0  0  0  0  0  0  0  0  0  0  0  0
    4.5981   -4.1120    0.0000 H   0  0  0  0  0  0  0  0  0  0  0  0
    7.7331   -3.3020    0.0000 H   0  0  0  0  0  0  0  0  0  0  0  0
    8.0296    3.1324    0.0000 H   0  0  0  0  0  0  0  0  0  0  0  0
    8.1130    3.9251    0.0000 H   0  0  0  0  0  0  0  0  0  0  0  0
    1.6900   -2.4550    0.0000 H   0  0  0  0  0  0  0  0  0  0  0  0
    1.4631   -3.3020    0.0000 H   0  0  0  0  0  0  0  0  0  0  0  0
    2.3100   -3.5289    0.0000 H   0  0  0  0  0  0  0  0  0  0  0  0
  1 21  1  0  0  0  0
  2  5  2  0  0  0  0
  2  6  2  0  0  0  0
  2 10  1  0  0  0  0
  2 18  1  0  0  0  0
  3 20  1  0  0  0  0
  4 23  1  0  0  0  0
  7 19  2  0  0  0  0
  8 11  1  0  0  0  0
  8 13  1  0  0  0  0
  8 19  1  0  0  0  0
  9 12  1  0  0  0  0
  9 14  1  0  0  0  0
  9 19  1  0  0  0  0
 10 15  1  0  0  0  0
 10 32  1  0  0  0  0
 11 12  2  0  0  0  0
 13 16  1  0  0  0  0
 13 25  1  0  0  0  0
 13 26  1  0  0  0  0
 14 17  1  0  0  0  0
 14 20  2  0  0  0  0
 15 17  2  0  0  0  0
 15 21  1  0  0  0  0
 16 23  1  0  0  0  0
 16 27  1  0  0  0  0
 16 28  1  0  0  0  0
 17 29  1  0  0  0  0
 18 24  1  0  0  0  0
 18 30  1  0  0  0  0
 18 31  1  0  0  0  0
 20 22  1  0  0  0  0
 21 22  2  0  0  0  0
 22 33  1  0  0  0  0
 23 34  1  0  0  0  0
 23 35  1  0  0  0  0
 24 36  1  0  0  0  0
 24 37  1  0  0  0  0
 24 38  1  0  0  0  0
M  END
> <PUBCHEM_COMPOUND_CID>
183419

> <PUBCHEM_COMPOUND_CANONICALIZED>
1

> <PUBCHEM_CACTVS_COMPLEXITY>
588

> <PUBCHEM_CACTVS_HBOND_ACCEPTOR>
8

> <PUBCHEM_CACTVS_HBOND_DONOR>
1

> <PUBCHEM_CACTVS_ROTATABLE_BOND>
7

> <PUBCHEM_CACTVS_SUBSKEYS>
AAADccBzsYBEAAAAAAAAAAAAAAAAAQAAAAAwAAAAAAAAAAABAAAAHwYYQAAACArFUCyzwIJAAAKKACRCUHDCBAAhBwAWiAAIZoiIICLB0tGEIAholgJIyCcQAAAAAABAAAQAABAAAIAACAAAIAAAAAAAAA==

> <PUBCHEM_IUPAC_OPENEYE_NAME>
N-[2-chloro-4-fluoro-5-[4-(3-fluoropropyl)-5-oxo-tetrazol-1-yl]phenyl]ethanesulfonamide

> <PUBCHEM_IUPAC_CAS_NAME>
N-[2-chloro-4-fluoro-5-[4-(3-fluoropropyl)-5-oxo-1-tetrazolyl]phenyl]ethanesulfonamide

> <PUBCHEM_IUPAC_NAME>
N-[2-chloro-4-fluoro-5-[4-(3-fluoropropyl)-5-oxotetrazol-1-yl]phenyl]ethanesulfonamide

> <PUBCHEM_IUPAC_SYSTEMATIC_NAME>
N-[2-chloranyl-4-fluoranyl-5-[4-(3-fluoranylpropyl)-5-oxidanylidene-1,2,3,4-tetrazol-1-yl]phenyl]ethanesulfonamide

> <PUBCHEM_IUPAC_TRADITIONAL_NAME>
N-[2-chloro-4-fluoro-5-[4-(3-fluoropropyl)-5-keto-tetrazol-1-yl]phenyl]ethanesulfonamide

> <PUBCHEM_IUPAC_INCHI>
InChI=1S/C12H14ClF2N5O3S/c1-2-24(22,23)16-10-7-11(9(15)6-8(10)13)20-12(21)19(17-18-20)5-3-4-14/h6-7,16H,2-5H2,1H3

> <PUBCHEM_IUPAC_INCHIKEY>
FDNBWBAHQKZDSN-UHFFFAOYSA-N

> <PUBCHEM_XLOGP3_AA>
2.6

> <PUBCHEM_EXACT_MASS>
381.047394

> <PUBCHEM_MOLECULAR_FORMULA>
C12H14ClF2N5O3S

> <PUBCHEM_MOLECULAR_WEIGHT>
381.786066

> <PUBCHEM_OPENEYE_CAN_SMILES>
CCS(=O)(=O)NC1=C(C=C(C(=C1)N2C(=O)N(N=N2)CCCF)F)Cl

> <PUBCHEM_OPENEYE_ISO_SMILES>
CCS(=O)(=O)NC1=C(C=C(C(=C1)N2C(=O)N(N=N2)CCCF)F)Cl

> <PUBCHEM_CACTVS_TPSA>
103

> <PUBCHEM_MONOISOTOPIC_WEIGHT>
381.047394

> <PUBCHEM_TOTAL_CHARGE>
0

> <PUBCHEM_HEAVY_ATOM_COUNT>
24

> <PUBCHEM_ATOM_DEF_STEREO_COUNT>
0

> <PUBCHEM_ATOM_UDEF_STEREO_COUNT>
0

> <PUBCHEM_BOND_DEF_STEREO_COUNT>
0

> <PUBCHEM_BOND_UDEF_STEREO_COUNT>
0

> <PUBCHEM_ISOTOPIC_ATOM_COUNT>
0

> <PUBCHEM_COMPONENT_COUNT>
1

> <PUBCHEM_CACTVS_TAUTO_COUNT>
1

> <PUBCHEM_COORDINATE_TYPE>
1
5
255

> <PUBCHEM_BONDANNOTATIONS>
11  12  8
14  17  8
14  20  8
15  17  8
15  21  8
20  22  8
21  22  8
8  11  8
8  19  8
9  12  8
9  19  8

$$$$

