441319
  -OEChem-07051212542D

 27 29  0     1  0  0  0  0  0999 V2000
    5.3923   -1.4027    0.0000 O   0  0  0  0  0  0  0  0  0  0  0  0
    7.3991   -0.9923    0.0000 O   0  0  0  0  0  0  0  0  0  0  0  0
    5.0274    0.3294    0.0000 C   0  0  0  0  0  0  0  0  0  0  0  0
    5.7123   -0.4553    0.0000 C   0  0  2  0  0  0  0  0  0  0  0  0
    5.3364    1.2805    0.0000 C   0  0  0  0  0  0  0  0  0  0  0  0
    4.5274    1.8683    0.0000 C   0  0  0  0  0  0  0  0  0  0  0  0
    4.0274    0.3294    0.0000 C   0  0  0  0  0  0  0  0  0  0  0  0
    3.7183    1.2805    0.0000 C   0  0  0  0  0  0  0  0  0  0  0  0
    6.7328   -0.2466    0.0000 C   0  0  2  0  0  0  0  0  0  0  0  0
    6.3518    1.5127    0.0000 C   0  0  0  0  0  0  0  0  0  0  0  0
    7.0547    0.7440    0.0000 C   0  0  0  0  0  0  0  0  0  0  0  0
    3.3424   -0.4553    0.0000 C   0  0  0  0  0  0  0  0  0  0  0  0
    2.7029    1.5127    0.0000 C   0  0  0  0  0  0  0  0  0  0  0  0
    2.3219   -0.2466    0.0000 C   0  0  0  0  0  0  0  0  0  0  0  0
    2.0000    0.7440    0.0000 C   0  0  0  0  0  0  0  0  0  0  0  0
    6.1227   -0.9200    0.0000 H   0  0  0  0  0  0  0  0  0  0  0  0
    4.9422    2.3290    0.0000 H   0  0  0  0  0  0  0  0  0  0  0  0
    4.1125    2.3290    0.0000 H   0  0  0  0  0  0  0  0  0  0  0  0
    6.5378   -0.8352    0.0000 H   0  0  0  0  0  0  0  0  0  0  0  0
    6.5365    2.1046    0.0000 H   0  0  0  0  0  0  0  0  0  0  0  0
    7.6607    0.8753    0.0000 H   0  0  0  0  0  0  0  0  0  0  0  0
    3.5408   -1.0427    0.0000 H   0  0  0  0  0  0  0  0  0  0  0  0
    2.5182    2.1046    0.0000 H   0  0  0  0  0  0  0  0  0  0  0  0
    5.8018   -1.8683    0.0000 H   0  0  0  0  0  0  0  0  0  0  0  0
    1.9088   -0.7090    0.0000 H   0  0  0  0  0  0  0  0  0  0  0  0
    1.3940    0.8753    0.0000 H   0  0  0  0  0  0  0  0  0  0  0  0
    8.0060   -0.8658    0.0000 H   0  0  0  0  0  0  0  0  0  0  0  0
  4  1  1  6  0  0  0
  1 24  1  0  0  0  0
  9  2  1  6  0  0  0
  2 27  1  0  0  0  0
  3  4  1  0  0  0  0
  3  5  2  0  0  0  0
  3  7  1  0  0  0  0
  4  9  1  0  0  0  0
  4 16  1  0  0  0  0
  5  6  1  0  0  0  0
  5 10  1  0  0  0  0
  6  8  1  0  0  0  0
  6 17  1  0  0  0  0
  6 18  1  0  0  0  0
  7  8  1  0  0  0  0
  7 12  2  0  0  0  0
  8 13  2  0  0  0  0
  9 11  1  0  0  0  0
  9 19  1  0  0  0  0
 10 11  2  0  0  0  0
 10 20  1  0  0  0  0
 11 21  1  0  0  0  0
 12 14  1  0  0  0  0
 12 22  1  0  0  0  0
 13 15  1  0  0  0  0
 13 23  1  0  0  0  0
 14 15  2  0  0  0  0
 14 25  1  0  0  0  0
 15 26  1  0  0  0  0
M  END
> <PUBCHEM_COMPOUND_CID>
441319

> <PUBCHEM_COMPOUND_CANONICALIZED>
1

> <PUBCHEM_CACTVS_COMPLEXITY>
329

> <PUBCHEM_CACTVS_HBOND_ACCEPTOR>
2

> <PUBCHEM_CACTVS_HBOND_DONOR>
2

> <PUBCHEM_CACTVS_ROTATABLE_BOND>
0

> <PUBCHEM_CACTVS_SUBSKEYS>
AAADccBwMAAAAAAAAAAAAAAAAAAAAQAAAAAwQAAAAAAAAEABAAAAGgAACAAADBSgmAIwAIAAAgCAAiBCAAACAAAgAAAIiAAAAIgJNCKAERCAcAAkwAEJmAeAwPAOgAAAAAAQAAAAAAAAACAAAAAAAAAAAA==

> <PUBCHEM_IUPAC_OPENEYE_NAME>
(3S,4R)-4,9-dihydro-3H-fluorene-3,4-diol

> <PUBCHEM_IUPAC_CAS_NAME>
(3S,4R)-4,9-dihydro-3H-fluorene-3,4-diol

> <PUBCHEM_IUPAC_NAME>
(3S,4R)-4,9-dihydro-3H-fluorene-3,4-diol

> <PUBCHEM_IUPAC_SYSTEMATIC_NAME>
(3S,4R)-4,9-dihydro-3H-fluorene-3,4-diol

> <PUBCHEM_IUPAC_TRADITIONAL_NAME>
(3S,4R)-4,9-dihydro-3H-fluorene-3,4-diol

> <PUBCHEM_IUPAC_INCHI>
InChI=1S/C13H12O2/c14-11-6-5-9-7-8-3-1-2-4-10(8)12(9)13(11)15/h1-6,11,13-15H,7H2/t11-,13-/m0/s1

> <PUBCHEM_IUPAC_INCHIKEY>
BEUONYFZDLXHIB-AAEUAGOBSA-N

> <PUBCHEM_XLOGP3_AA>
0.7

> <PUBCHEM_EXACT_MASS>
200.08373

> <PUBCHEM_MOLECULAR_FORMULA>
C13H12O2

> <PUBCHEM_MOLECULAR_WEIGHT>
200.23318

> <PUBCHEM_OPENEYE_CAN_SMILES>
C1C2=C(C(C(C=C2)O)O)C3=CC=CC=C31

> <PUBCHEM_OPENEYE_ISO_SMILES>
C1C2=C([C@H]([C@H](C=C2)O)O)C3=CC=CC=C31

> <PUBCHEM_CACTVS_TPSA>
40.5

> <PUBCHEM_MONOISOTOPIC_WEIGHT>
200.08373

> <PUBCHEM_TOTAL_CHARGE>
0

> <PUBCHEM_HEAVY_ATOM_COUNT>
15

> <PUBCHEM_ATOM_DEF_STEREO_COUNT>
2

> <PUBCHEM_ATOM_UDEF_STEREO_COUNT>
0

> <PUBCHEM_BOND_DEF_STEREO_COUNT>
0

> <PUBCHEM_BOND_UDEF_STEREO_COUNT>
0

> <PUBCHEM_ISOTOPIC_ATOM_COUNT>
0

> <PUBCHEM_COMPONENT_COUNT>
1

> <PUBCHEM_CACTVS_TAUTO_COUNT>
1

> <PUBCHEM_COORDINATE_TYPE>
1
5
255

> <PUBCHEM_BONDANNOTATIONS>
4  1  6
12  14  8
13  15  8
14  15  8
9  2  6
7  12  8
7  8  8
8  13  8

$$$$

