443775
  -OEChem-07051213032D

 53 56  0     1  0  0  0  0  0999 V2000
    3.7320    2.1295    0.0000 O   0  0  0  0  0  0  0  0  0  0  0  0
    5.4804   -1.9051    0.0000 O   0  0  0  0  0  0  0  0  0  0  0  0
    8.1340    0.6020    0.0000 O   0  0  0  0  0  0  0  0  0  0  0  0
    9.8825    0.6298    0.0000 O   0  0  0  0  0  0  0  0  0  0  0  0
    2.8660   -0.3705    0.0000 N   0  0  0  0  0  0  0  0  0  0  0  0
    2.8660    0.6295    0.0000 C   0  0  1  0  0  0  0  0  0  0  0  0
    3.7320   -0.8705    0.0000 C   0  0  1  0  0  0  0  0  0  0  0  0
    3.7320    1.1295    0.0000 C   0  0  1  0  0  0  0  0  0  0  0  0
    4.5981   -0.3705    0.0000 C   0  0  0  0  0  0  0  0  0  0  0  0
    4.5981    0.6295    0.0000 C   0  0  0  0  0  0  0  0  0  0  0  0
    5.4920   -0.9052    0.0000 C   0  0  0  0  0  0  0  0  0  0  0  0
    2.0000    1.1295    0.0000 C   0  0  0  0  0  0  0  0  0  0  0  0
    3.7320   -1.8705    0.0000 C   0  0  0  0  0  0  0  0  0  0  0  0
    5.4920    1.1641    0.0000 C   0  0  0  0  0  0  0  0  0  0  0  0
    6.3981   -0.3914    0.0000 C   0  0  0  0  0  0  0  0  0  0  0  0
    6.3981    0.6503    0.0000 C   0  0  0  0  0  0  0  0  0  0  0  0
    7.2622   -0.8947    0.0000 C   0  0  0  0  0  0  0  0  0  0  0  0
    8.1301   -0.3980    0.0000 C   0  0  0  0  0  0  0  0  0  0  0  0
    8.9942   -0.9014    0.0000 C   0  0  0  0  0  0  0  0  0  0  0  0
    7.2583   -1.8947    0.0000 C   0  0  0  0  0  0  0  0  0  0  0  0
    8.9904   -1.9014    0.0000 C   0  0  0  0  0  0  0  0  0  0  0  0
    8.1224   -2.3980    0.0000 C   0  0  0  0  0  0  0  0  0  0  0  0
    9.8902   -0.3702    0.0000 C   0  0  0  0  0  0  0  0  0  0  0  0
    9.8822   -2.4395    0.0000 C   0  0  0  0  0  0  0  0  0  0  0  0
   10.7903   -1.9291    0.0000 C   0  0  0  0  0  0  0  0  0  0  0  0
   10.7943   -0.8875    0.0000 C   0  0  0  0  0  0  0  0  0  0  0  0
   11.6524   -2.4358    0.0000 C   0  0  0  0  0  0  0  0  0  0  0  0
   10.7446    1.1365    0.0000 C   0  0  0  0  0  0  0  0  0  0  0  0
    2.3291    0.3195    0.0000 H   0  0  0  0  0  0  0  0  0  0  0  0
    3.1951   -1.1805    0.0000 H   0  0  0  0  0  0  0  0  0  0  0  0
    4.2690    1.4395    0.0000 H   0  0  0  0  0  0  0  0  0  0  0  0
    2.3291   -0.6805    0.0000 H   0  0  0  0  0  0  0  0  0  0  0  0
    2.3100    1.6664    0.0000 H   0  0  0  0  0  0  0  0  0  0  0  0
    1.4631    1.4395    0.0000 H   0  0  0  0  0  0  0  0  0  0  0  0
    1.6900    0.5925    0.0000 H   0  0  0  0  0  0  0  0  0  0  0  0
    3.1120   -1.8705    0.0000 H   0  0  0  0  0  0  0  0  0  0  0  0
    3.7320   -2.4905    0.0000 H   0  0  0  0  0  0  0  0  0  0  0  0
    4.3520   -1.8705    0.0000 H   0  0  0  0  0  0  0  0  0  0  0  0
    5.4848    1.7841    0.0000 H   0  0  0  0  0  0  0  0  0  0  0  0
    6.9338    0.9623    0.0000 H   0  0  0  0  0  0  0  0  0  0  0  0
    3.1951    2.4395    0.0000 H   0  0  0  0  0  0  0  0  0  0  0  0
    6.7202   -2.2026    0.0000 H   0  0  0  0  0  0  0  0  0  0  0  0
    4.9400   -2.2089    0.0000 H   0  0  0  0  0  0  0  0  0  0  0  0
    8.1200   -3.0180    0.0000 H   0  0  0  0  0  0  0  0  0  0  0  0
    9.8727   -3.0594    0.0000 H   0  0  0  0  0  0  0  0  0  0  0  0
   11.3312   -0.5775    0.0000 H   0  0  0  0  0  0  0  0  0  0  0  0
    8.6721    0.9099    0.0000 H   0  0  0  0  0  0  0  0  0  0  0  0
   11.3383   -2.9703    0.0000 H   0  0  0  0  0  0  0  0  0  0  0  0
   12.1870   -2.7499    0.0000 H   0  0  0  0  0  0  0  0  0  0  0  0
   11.9666   -1.9012    0.0000 H   0  0  0  0  0  0  0  0  0  0  0  0
   11.0588    0.6019    0.0000 H   0  0  0  0  0  0  0  0  0  0  0  0
   11.2792    1.4506    0.0000 H   0  0  0  0  0  0  0  0  0  0  0  0
   10.4305    1.6710    0.0000 H   0  0  0  0  0  0  0  0  0  0  0  0
  8  1  1  6  0  0  0
  1 41  1  0  0  0  0
  2 11  1  0  0  0  0
  2 43  1  0  0  0  0
  3 18  1  0  0  0  0
  3 47  1  0  0  0  0
  4 23  1  0  0  0  0
  4 28  1  0  0  0  0
  5  6  1  0  0  0  0
  5  7  1  0  0  0  0
  5 32  1  0  0  0  0
  6  8  1  0  0  0  0
  6 12  1  6  0  0  0
  6 29  1  0  0  0  0
  7  9  1  0  0  0  0
  7 13  1  1  0  0  0
  7 30  1  0  0  0  0
  8 10  1  0  0  0  0
  8 31  1  0  0  0  0
  9 10  2  0  0  0  0
  9 11  1  0  0  0  0
 10 14  1  0  0  0  0
 11 15  2  0  0  0  0
 12 33  1  0  0  0  0
 12 34  1  0  0  0  0
 12 35  1  0  0  0  0
 13 36  1  0  0  0  0
 13 37  1  0  0  0  0
 13 38  1  0  0  0  0
 14 16  2  0  0  0  0
 14 39  1  0  0  0  0
 15 16  1  0  0  0  0
 15 17  1  0  0  0  0
 16 40  1  0  0  0  0
 17 18  2  0  0  0  0
 17 20  1  0  0  0  0
 18 19  1  0  0  0  0
 19 21  1  0  0  0  0
 19 23  2  0  0  0  0
 20 22  2  0  0  0  0
 20 42  1  0  0  0  0
 21 22  1  0  0  0  0
 21 24  2  0  0  0  0
 22 44  1  0  0  0  0
 23 26  1  0  0  0  0
 24 25  1  0  0  0  0
 24 45  1  0  0  0  0
 25 26  2  0  0  0  0
 25 27  1  0  0  0  0
 26 46  1  0  0  0  0
 27 48  1  0  0  0  0
 27 49  1  0  0  0  0
 27 50  1  0  0  0  0
 28 51  1  0  0  0  0
 28 52  1  0  0  0  0
 28 53  1  0  0  0  0
M  END
> <PUBCHEM_COMPOUND_CID>
443775

> <PUBCHEM_COMPOUND_CANONICALIZED>
1

> <PUBCHEM_CACTVS_COMPLEXITY>
545

> <PUBCHEM_CACTVS_HBOND_ACCEPTOR>
5

> <PUBCHEM_CACTVS_HBOND_DONOR>
4

> <PUBCHEM_CACTVS_ROTATABLE_BOND>
2

> <PUBCHEM_CACTVS_SUBSKEYS>
AAADceB6OAAAAAAAAAAAAAAAAAAAAAAAAAA8YMEAAAAAAADxVAAAHgAQCAAADDzhmAYyBsLABgCAAiBCAACCCAAgIAAIiIAODIgONyKGsRuEcChn0BWYuAfw0PMOwAADAAAYAACAAAYAADAAAAAAAAAAAA==

> <PUBCHEM_IUPAC_OPENEYE_NAME>
(1R,3R,4R)-7-(1-hydroxy-8-methoxy-6-methyl-2-naphthyl)-1,3-dimethyl-1,2,3,4-tetrahydroisoquinoline-4,8-diol

> <PUBCHEM_IUPAC_CAS_NAME>
(1R,3R,4R)-7-(1-hydroxy-8-methoxy-6-methyl-2-naphthalenyl)-1,3-dimethyl-1,2,3,4-tetrahydroisoquinoline-4,8-diol

> <PUBCHEM_IUPAC_NAME>
(1R,3R,4R)-7-(1-hydroxy-8-methoxy-6-methylnaphthalen-2-yl)-1,3-dimethyl-1,2,3,4-tetrahydroisoquinoline-4,8-diol

> <PUBCHEM_IUPAC_SYSTEMATIC_NAME>
(1R,3R,4R)-7-(8-methoxy-6-methyl-1-oxidanyl-naphthalen-2-yl)-1,3-dimethyl-1,2,3,4-tetrahydroisoquinoline-4,8-diol

> <PUBCHEM_IUPAC_TRADITIONAL_NAME>
(1R,3R,4R)-7-(1-hydroxy-8-methoxy-6-methyl-2-naphthyl)-1,3-dimethyl-1,2,3,4-tetrahydroisoquinoline-4,8-diol

> <PUBCHEM_IUPAC_INCHI>
InChI=1S/C23H25NO4/c1-11-9-14-5-6-15(23(27)20(14)18(10-11)28-4)16-7-8-17-19(22(16)26)12(2)24-13(3)21(17)25/h5-10,12-13,21,24-27H,1-4H3/t12-,13-,21+/m1/s1

> <PUBCHEM_IUPAC_INCHIKEY>
NNCITNDNYQWFCU-ZNLKAECVSA-N

> <PUBCHEM_XLOGP3_AA>
3.5

> <PUBCHEM_EXACT_MASS>
379.178358

> <PUBCHEM_MOLECULAR_FORMULA>
C23H25NO4

> <PUBCHEM_MOLECULAR_WEIGHT>
379.4489

> <PUBCHEM_OPENEYE_CAN_SMILES>
CC1C(C2=C(C(N1)C)C(=C(C=C2)C3=C(C4=C(C=C(C=C4C=C3)C)OC)O)O)O

> <PUBCHEM_OPENEYE_ISO_SMILES>
C[C@@H]1[C@@H](C2=C([C@H](N1)C)C(=C(C=C2)C3=C(C4=C(C=C(C=C4C=C3)C)OC)O)O)O

> <PUBCHEM_CACTVS_TPSA>
82

> <PUBCHEM_MONOISOTOPIC_WEIGHT>
379.178358

> <PUBCHEM_TOTAL_CHARGE>
0

> <PUBCHEM_HEAVY_ATOM_COUNT>
28

> <PUBCHEM_ATOM_DEF_STEREO_COUNT>
3

> <PUBCHEM_ATOM_UDEF_STEREO_COUNT>
0

> <PUBCHEM_BOND_DEF_STEREO_COUNT>
0

> <PUBCHEM_BOND_UDEF_STEREO_COUNT>
0

> <PUBCHEM_ISOTOPIC_ATOM_COUNT>
0

> <PUBCHEM_COMPONENT_COUNT>
1

> <PUBCHEM_CACTVS_TAUTO_COUNT>
45

> <PUBCHEM_COORDINATE_TYPE>
1
5
255

> <PUBCHEM_BONDANNOTATIONS>
8  1  6
10  14  8
11  15  8
14  16  8
15  16  8
17  18  8
17  20  8
18  19  8
19  21  8
19  23  8
20  22  8
21  22  8
21  24  8
23  26  8
24  25  8
25  26  8
6  12  6
7  13  5
9  10  8
9  11  8

$$$$

