   Color/Form

     * Rhombohedra from ether
     * Needles from water

   from [1]HSDB

   Boiling Point
        310 deg C
   from [2]HSDB

   Melting Point
        92 deg C
   from [3]HSDB

   Dissociation Constants
        pKa = 2.51
   from [4]HSDB

   Octanol/Water Partition Coefficient
        log Kow = 1.86
   from [5]HSDB

   Solubilities

     * One gram dissolves in about 5 ml alcohol, 2 ml chloroform, in about
       4 ml ether, and in 30 to 50 ml of expressed almond oil or olive
       oil. Also sol in dil acids.
     * Soluble in acid
     * In water, 1,310 mg/L at 25 deg C

   from [6]HSDB

   Spectral Properties

     * IR: m 6882 (Coblentz Society spectral collection)
     * UV: 888 (Sadtler Research Laboratories spectral collection)
     * 1H NMR: 1856 (Sadtler Research Laboratories spectral collection)

   from [7]HSDB

   Vapor Pressure
        2.6X10-4 mm Hg at 25 deg C /Estimated/
   from [8]HSDB

   Other Chemical/Physical Properties

     * Stable in air
     * Henry's Law constant = 1.6X10-8 atm-cu m/mole at 25 deg C
       /Estimated/
     * Hydroxyl radical reaction rate constant = 3.6X10-11 cu
       cm/molecule-sec at 25 deg C /Estimated/

   from [9]HSDB

   Computed Properties
   Molecular Weight                  165.18914 [g/mol]
   Molecular Formula                 C[9]H[11]NO[2]
   XLogP3                            1.9
   H-Bond Donor                      1
   H-Bond Acceptor                   3
   Rotatable Bond Count              3
   Tautomer Count                    3
   Exact Mass                        165.078979
   MonoIsotopic Mass                 165.078979
   Topological Polar Surface Area    52.3
   Heavy Atom Count                  12
   Formal Charge                     0
   Complexity                        151
   Isotope Atom Count                0
   Defined Atom Stereocenter Count   0
   Undefined Atom Stereocenter Count 0
   Defined Bond Stereocenter Count   0
   Undefined Bond Stereocenter Count 0
   Covalently-Bonded Unit Count      1
   Feature 3D Acceptor Count         1
   Feature 3D Donor Count            1
   Feature 3D Cation Count           1
   Feature 3D Ring Count             1
   Effective Rotor Count             3
   Conformer Sampling RMSD           0.6
   CID Conformer Count               [10]7

References

   1. http://toxnet.nlm.nih.gov/cgi-bin/sis/search/r?dbs+hsdb:@term+@rn+@rel+94-09-7
   2. http://toxnet.nlm.nih.gov/cgi-bin/sis/search/r?dbs+hsdb:@term+@rn+@rel+94-09-7
   3. http://toxnet.nlm.nih.gov/cgi-bin/sis/search/r?dbs+hsdb:@term+@rn+@rel+94-09-7
   4. http://toxnet.nlm.nih.gov/cgi-bin/sis/search/r?dbs+hsdb:@term+@rn+@rel+94-09-7
   5. http://toxnet.nlm.nih.gov/cgi-bin/sis/search/r?dbs+hsdb:@term+@rn+@rel+94-09-7
   6. http://toxnet.nlm.nih.gov/cgi-bin/sis/search/r?dbs+hsdb:@term+@rn+@rel+94-09-7
   7. http://toxnet.nlm.nih.gov/cgi-bin/sis/search/r?dbs+hsdb:@term+@rn+@rel+94-09-7
   8. http://toxnet.nlm.nih.gov/cgi-bin/sis/search/r?dbs+hsdb:@term+@rn+@rel+94-09-7
   9. http://toxnet.nlm.nih.gov/cgi-bin/sis/search/r?dbs+hsdb:@term+@rn+@rel+94-09-7
  10. http://pubchem.ncbi.nlm.nih.gov/vw3d/vw3d.cgi?cid=2337
