440728
  -OEChem-07051212502D

 16 17  0     0  0  0  0  0  0999 V2000
    2.0000    0.8030    0.0000 O   0  0  0  0  0  0  0  0  0  0  0  0
    2.0000   -1.1970    0.0000 O   0  0  0  0  0  0  0  0  0  0  0  0
    5.5443    0.6077    0.0000 N   0  0  0  0  0  0  0  0  0  0  0  0
    4.5981    0.3030    0.0000 C   0  0  0  0  0  0  0  0  0  0  0  0
    4.5981   -0.6970    0.0000 C   0  0  0  0  0  0  0  0  0  0  0  0
    5.5443   -1.0018    0.0000 C   0  0  0  0  0  0  0  0  0  0  0  0
    3.7320    0.8030    0.0000 C   0  0  0  0  0  0  0  0  0  0  0  0
    3.7320   -1.1970    0.0000 C   0  0  0  0  0  0  0  0  0  0  0  0
    6.1279   -0.1970    0.0000 C   0  0  0  0  0  0  0  0  0  0  0  0
    2.8660    0.3030    0.0000 C   0  0  0  0  0  0  0  0  0  0  0  0
    2.8660   -0.6970    0.0000 C   0  0  0  0  0  0  0  0  0  0  0  0
    5.7369    1.1970    0.0000 H   0  0  0  0  0  0  0  0  0  0  0  0
    5.7369   -1.5911    0.0000 H   0  0  0  0  0  0  0  0  0  0  0  0
    3.7320    1.4230    0.0000 H   0  0  0  0  0  0  0  0  0  0  0  0
    3.7320   -1.8170    0.0000 H   0  0  0  0  0  0  0  0  0  0  0  0
    6.7479   -0.1970    0.0000 H   0  0  0  0  0  0  0  0  0  0  0  0
  1 10  2  0  0  0  0
  2 11  2  0  0  0  0
  3  4  1  0  0  0  0
  3  9  1  0  0  0  0
  3 12  1  0  0  0  0
  4  5  1  0  0  0  0
  4  7  2  0  0  0  0
  5  6  1  0  0  0  0
  5  8  2  0  0  0  0
  6  9  2  0  0  0  0
  6 13  1  0  0  0  0
  7 10  1  0  0  0  0
  7 14  1  0  0  0  0
  8 11  1  0  0  0  0
  8 15  1  0  0  0  0
  9 16  1  0  0  0  0
 10 11  1  0  0  0  0
M  END
> <PUBCHEM_COMPOUND_CID>
440728

> <PUBCHEM_COMPOUND_CANONICALIZED>
1

> <PUBCHEM_CACTVS_COMPLEXITY>
334

> <PUBCHEM_CACTVS_HBOND_ACCEPTOR>
3

> <PUBCHEM_CACTVS_HBOND_DONOR>
1

> <PUBCHEM_CACTVS_ROTATABLE_BOND>
0

> <PUBCHEM_CACTVS_SUBSKEYS>
AAADcYByMAAAAAAAAAAAAAAAAAAAAQAAAAAgAAAAAAAAAEAAAAAAHgAQAAAADAzBgAQAAALAAACIAqRWQACAAAAgAgAICIEIAEgIAAAAAQAEAAAAgAAIgUIAAAAAAAAAAAAAAAAAAAAAAAAAAAAAAAAAAA==

> <PUBCHEM_IUPAC_OPENEYE_NAME>
1H-indole-5,6-dione

> <PUBCHEM_IUPAC_CAS_NAME>
1H-indole-5,6-dione

> <PUBCHEM_IUPAC_NAME>
1H-indole-5,6-dione

> <PUBCHEM_IUPAC_SYSTEMATIC_NAME>
1H-indole-5,6-dione

> <PUBCHEM_IUPAC_TRADITIONAL_NAME>
1H-indole-5,6-quinone

> <PUBCHEM_IUPAC_INCHI>
InChI=1S/C8H5NO2/c10-7-3-5-1-2-9-6(5)4-8(7)11/h1-4,9H

> <PUBCHEM_IUPAC_INCHIKEY>
IGGVVGHJSQSLFO-UHFFFAOYSA-N

> <PUBCHEM_XLOGP3_AA>
-0.3

> <PUBCHEM_EXACT_MASS>
147.032028

> <PUBCHEM_MOLECULAR_FORMULA>
C8H5NO2

> <PUBCHEM_MOLECULAR_WEIGHT>
147.1308

> <PUBCHEM_OPENEYE_CAN_SMILES>
C1=CNC2=CC(=O)C(=O)C=C21

> <PUBCHEM_OPENEYE_ISO_SMILES>
C1=CNC2=CC(=O)C(=O)C=C21

> <PUBCHEM_CACTVS_TPSA>
46.2

> <PUBCHEM_MONOISOTOPIC_WEIGHT>
147.032028

> <PUBCHEM_TOTAL_CHARGE>
0

> <PUBCHEM_HEAVY_ATOM_COUNT>
11

> <PUBCHEM_ATOM_DEF_STEREO_COUNT>
0

> <PUBCHEM_ATOM_UDEF_STEREO_COUNT>
0

> <PUBCHEM_BOND_DEF_STEREO_COUNT>
0

> <PUBCHEM_BOND_UDEF_STEREO_COUNT>
0

> <PUBCHEM_ISOTOPIC_ATOM_COUNT>
0

> <PUBCHEM_COMPONENT_COUNT>
1

> <PUBCHEM_CACTVS_TAUTO_COUNT>
6

> <PUBCHEM_COORDINATE_TYPE>
1
5
255

> <PUBCHEM_BONDANNOTATIONS>
3  4  8
3  9  8
4  5  8
5  6  8
6  9  8

$$$$

