   Color/Form
        Yellow to red oily liquid
   from [1]HSDB

   Odor
        Unpleasant
   from [2]HSDB

   Boiling Point
        194.5 deg C
   from [3]HSDB

   Melting Point
        5.6 deg C
   from [4]HSDB

   Density/Specific Gravity
        1.4924 g/cu cm at 20 deg C
   from [5]HSDB

   Dissociation Constants
        pKa = 8.45
   from [6]HSDB

   Octanol/Water Partition Coefficient
        log Kow = 2.35
   from [7]HSDB

   Solubilities

     * Slightly soluble in chloroform; soluble in ethanol, ether, alkali
     * In water, 2.23X10+3 mg/L at 25 deg C (est)

   from [8]HSDB

   Spectral Properties

     * Index of refraction = 1.589 at 20 deg C/D
     * MASS: 22084 (NIST/EPA/MSDC Mass Spectral Database, 1990 version);
       1143 (Atlas of Mass Spectral Data, John Wiley & Sons, New York)
     * IR: 1181 (Coblentz Society spectral collection)
     * UV: 1281 (Sadtler Research Laboratories spectral collection)
     * 1H NMR: 5792 (Sadlter Research Laboratories spectral collection)

   from [9]HSDB

   Vapor Pressure
        3.73X10-2 mm Hg at 25 deg C (est)
   from [10]HSDB

   Other Chemical/Physical Properties

     * Henry's Law constant = 2.23X10-7 atm-cu m/mol at 25 deg C (est)
     * Hydroxyl radical reaction rate constant = 9.69X10-12 cu
       cm/molec-sec at 25 deg C (est)

   from [11]HSDB

   Computed Properties
   Molecular Weight                  173.0073 [g/mol]
   Molecular Formula                 C[6]H[5]BrO
   XLogP3                            2.4
   H-Bond Donor                      1
   H-Bond Acceptor                   1
   Rotatable Bond Count              0
   Tautomer Count                    3
   Exact Mass                        171.952377
   MonoIsotopic Mass                 171.952377
   Topological Polar Surface Area    20.2
   Heavy Atom Count                  8
   Formal Charge                     0
   Complexity                        74.9
   Isotope Atom Count                0
   Defined Atom Stereocenter Count   0
   Undefined Atom Stereocenter Count 0
   Defined Bond Stereocenter Count   0
   Undefined Bond Stereocenter Count 0
   Covalently-Bonded Unit Count      1
   Feature 3D Donor Count            1
   Feature 3D Hydrophobe Count       1
   Feature 3D Ring Count             1
   Effective Rotor Count             0
   Conformer Sampling RMSD           0.4
   CID Conformer Count               [12]1

References

   1. http://toxnet.nlm.nih.gov/cgi-bin/sis/search/r?dbs+hsdb:@term+@rn+@rel+95-56-7
   2. http://toxnet.nlm.nih.gov/cgi-bin/sis/search/r?dbs+hsdb:@term+@rn+@rel+95-56-7
   3. http://toxnet.nlm.nih.gov/cgi-bin/sis/search/r?dbs+hsdb:@term+@rn+@rel+95-56-7
   4. http://toxnet.nlm.nih.gov/cgi-bin/sis/search/r?dbs+hsdb:@term+@rn+@rel+95-56-7
   5. http://toxnet.nlm.nih.gov/cgi-bin/sis/search/r?dbs+hsdb:@term+@rn+@rel+95-56-7
   6. http://toxnet.nlm.nih.gov/cgi-bin/sis/search/r?dbs+hsdb:@term+@rn+@rel+95-56-7
   7. http://toxnet.nlm.nih.gov/cgi-bin/sis/search/r?dbs+hsdb:@term+@rn+@rel+95-56-7
   8. http://toxnet.nlm.nih.gov/cgi-bin/sis/search/r?dbs+hsdb:@term+@rn+@rel+95-56-7
   9. http://toxnet.nlm.nih.gov/cgi-bin/sis/search/r?dbs+hsdb:@term+@rn+@rel+95-56-7
  10. http://toxnet.nlm.nih.gov/cgi-bin/sis/search/r?dbs+hsdb:@term+@rn+@rel+95-56-7
  11. http://toxnet.nlm.nih.gov/cgi-bin/sis/search/r?dbs+hsdb:@term+@rn+@rel+95-56-7
  12. http://pubchem.ncbi.nlm.nih.gov/vw3d/vw3d.cgi?cid=7244
