6516
  -OEChem-06261201222D

 30 29  0     0  0  0  0  0  0999 V2000
    4.5981   -0.4330    0.0000 Si  0  0  0  0  0  0  0  0  0  0  0  0
    5.4641    0.0670    0.0000 O   0  0  0  0  0  0  0  0  0  0  0  0
    3.7320   -0.9330    0.0000 O   0  0  0  0  0  0  0  0  0  0  0  0
    4.0981    0.4330    0.0000 O   0  0  0  0  0  0  0  0  0  0  0  0
    5.0981   -1.2990    0.0000 C   0  0  0  0  0  0  0  0  0  0  0  0
    4.5981    1.2990    0.0000 C   0  0  0  0  0  0  0  0  0  0  0  0
    2.8660   -0.4330    0.0000 C   0  0  0  0  0  0  0  0  0  0  0  0
    6.3301   -0.4330    0.0000 C   0  0  0  0  0  0  0  0  0  0  0  0
    4.0981    2.1651    0.0000 C   0  0  0  0  0  0  0  0  0  0  0  0
    2.0000   -0.9330    0.0000 C   0  0  0  0  0  0  0  0  0  0  0  0
    7.1962    0.0670    0.0000 C   0  0  0  0  0  0  0  0  0  0  0  0
    4.5981   -2.1651    0.0000 C   0  0  0  0  0  0  0  0  0  0  0  0
    5.7181   -1.2990    0.0000 H   0  0  0  0  0  0  0  0  0  0  0  0
    5.9316   -0.9080    0.0000 H   0  0  0  0  0  0  0  0  0  0  0  0
    6.7287   -0.9080    0.0000 H   0  0  0  0  0  0  0  0  0  0  0  0
    3.2646    0.0419    0.0000 H   0  0  0  0  0  0  0  0  0  0  0  0
    2.4675    0.0419    0.0000 H   0  0  0  0  0  0  0  0  0  0  0  0
    5.0730    0.9005    0.0000 H   0  0  0  0  0  0  0  0  0  0  0  0
    5.0730    1.6976    0.0000 H   0  0  0  0  0  0  0  0  0  0  0  0
    4.6350    2.4751    0.0000 H   0  0  0  0  0  0  0  0  0  0  0  0
    3.7881    2.7020    0.0000 H   0  0  0  0  0  0  0  0  0  0  0  0
    3.5611    1.8551    0.0000 H   0  0  0  0  0  0  0  0  0  0  0  0
    1.6900   -0.3961    0.0000 H   0  0  0  0  0  0  0  0  0  0  0  0
    1.4631   -1.2430    0.0000 H   0  0  0  0  0  0  0  0  0  0  0  0
    2.3100   -1.4700    0.0000 H   0  0  0  0  0  0  0  0  0  0  0  0
    7.5062   -0.4699    0.0000 H   0  0  0  0  0  0  0  0  0  0  0  0
    7.7331    0.3770    0.0000 H   0  0  0  0  0  0  0  0  0  0  0  0
    6.8862    0.6039    0.0000 H   0  0  0  0  0  0  0  0  0  0  0  0
    3.9781   -2.1651    0.0000 H   0  0  0  0  0  0  0  0  0  0  0  0
    4.9081   -2.7020    0.0000 H   0  0  0  0  0  0  0  0  0  0  0  0
  1  2  1  0  0  0  0
  1  3  1  0  0  0  0
  1  4  1  0  0  0  0
  1  5  1  0  0  0  0
  2  8  1  0  0  0  0
  3  7  1  0  0  0  0
  4  6  1  0  0  0  0
  5 12  2  0  0  0  0
  5 13  1  0  0  0  0
  6  9  1  0  0  0  0
  6 18  1  0  0  0  0
  6 19  1  0  0  0  0
  7 10  1  0  0  0  0
  7 16  1  0  0  0  0
  7 17  1  0  0  0  0
  8 11  1  0  0  0  0
  8 14  1  0  0  0  0
  8 15  1  0  0  0  0
  9 20  1  0  0  0  0
  9 21  1  0  0  0  0
  9 22  1  0  0  0  0
 10 23  1  0  0  0  0
 10 24  1  0  0  0  0
 10 25  1  0  0  0  0
 11 26  1  0  0  0  0
 11 27  1  0  0  0  0
 11 28  1  0  0  0  0
 12 29  1  0  0  0  0
 12 30  1  0  0  0  0
M  END
> <PUBCHEM_COMPOUND_CID>
6516

> <PUBCHEM_COMPOUND_CANONICALIZED>
1

> <PUBCHEM_CACTVS_COMPLEXITY>
111

> <PUBCHEM_CACTVS_HBOND_ACCEPTOR>
3

> <PUBCHEM_CACTVS_HBOND_DONOR>
0

> <PUBCHEM_CACTVS_ROTATABLE_BOND>
7

> <PUBCHEM_CACTVS_SUBSKEYS>
AAADceBwMAgAAAAAAAAAAAAAAAAAAAAAAAAAAAAAAAAAAAAAAAAAGhAAAEAAAACgoAJCAAAAAACAAAACAAAAAAAAAAAIAAAAAAAAAAAAAAAAAAAAAAAAAAAAAAAAAAAAAAAAAAAAAAAAAAAAAAAAAAAAAA==

> <PUBCHEM_IUPAC_OPENEYE_NAME>
triethoxy(vinyl)silane

> <PUBCHEM_IUPAC_CAS_NAME>
ethenyl(triethoxy)silane

> <PUBCHEM_IUPAC_NAME>
ethenyl(triethoxy)silane

> <PUBCHEM_IUPAC_SYSTEMATIC_NAME>
ethenyl(triethoxy)silane

> <PUBCHEM_IUPAC_TRADITIONAL_NAME>
triethoxy(vinyl)silane

> <PUBCHEM_IUPAC_INCHI>
InChI=1S/C8H18O3Si/c1-5-9-12(8-4,10-6-2)11-7-3/h8H,4-7H2,1-3H3

> <PUBCHEM_IUPAC_INCHIKEY>
FWDBOZPQNFPOLF-UHFFFAOYSA-N

> <PUBCHEM_EXACT_MASS>
190.102521

> <PUBCHEM_MOLECULAR_FORMULA>
C8H18O3Si

> <PUBCHEM_MOLECULAR_WEIGHT>
190.31222

> <PUBCHEM_OPENEYE_CAN_SMILES>
CCO[Si](C=C)(OCC)OCC

> <PUBCHEM_OPENEYE_ISO_SMILES>
CCO[Si](C=C)(OCC)OCC

> <PUBCHEM_CACTVS_TPSA>
27.7

> <PUBCHEM_MONOISOTOPIC_WEIGHT>
190.102521

> <PUBCHEM_TOTAL_CHARGE>
0

> <PUBCHEM_HEAVY_ATOM_COUNT>
12

> <PUBCHEM_ATOM_DEF_STEREO_COUNT>
0

> <PUBCHEM_ATOM_UDEF_STEREO_COUNT>
0

> <PUBCHEM_BOND_DEF_STEREO_COUNT>
0

> <PUBCHEM_BOND_UDEF_STEREO_COUNT>
0

> <PUBCHEM_ISOTOPIC_ATOM_COUNT>
0

> <PUBCHEM_COMPONENT_COUNT>
1

> <PUBCHEM_CACTVS_TAUTO_COUNT>
1

> <PUBCHEM_COORDINATE_TYPE>
1
5
255

$$$$

