11696
  -OEChem-06261206002D

 21 20  0     0  0  0  0  0  0999 V2000
    2.7690    0.9821    0.0000 O   0  0  0  0  0  0  0  0  0  0  0  0
    2.5369    0.1160    0.0000 O   0  0  0  0  0  0  0  0  0  0  0  0
    6.0010    0.1160    0.0000 O   0  5  0  0  0  0  0  0  0  0  0  0
    5.1350    1.6160    0.0000 O   0  0  0  0  0  0  0  0  0  0  0  0
    5.1350    0.6160    0.0000 N   0  3  0  0  0  0  0  0  0  0  0  0
    4.2690    0.1160    0.0000 C   0  0  0  0  0  0  0  0  0  0  0  0
    4.7690   -0.7500    0.0000 C   0  0  0  0  0  0  0  0  0  0  0  0
    3.4030   -0.3840    0.0000 C   0  0  0  0  0  0  0  0  0  0  0  0
    3.7690    0.9821    0.0000 C   0  0  0  0  0  0  0  0  0  0  0  0
    4.2690   -1.6160    0.0000 C   0  0  0  0  0  0  0  0  0  0  0  0
    5.2439   -1.1485    0.0000 H   0  0  0  0  0  0  0  0  0  0  0  0
    5.2439   -0.3515    0.0000 H   0  0  0  0  0  0  0  0  0  0  0  0
    3.0044   -0.8589    0.0000 H   0  0  0  0  0  0  0  0  0  0  0  0
    3.8015   -0.8589    0.0000 H   0  0  0  0  0  0  0  0  0  0  0  0
    4.3516    1.1941    0.0000 H   0  0  0  0  0  0  0  0  0  0  0  0
    3.6613    1.5926    0.0000 H   0  0  0  0  0  0  0  0  0  0  0  0
    3.7320   -1.3060    0.0000 H   0  0  0  0  0  0  0  0  0  0  0  0
    3.9590   -2.1530    0.0000 H   0  0  0  0  0  0  0  0  0  0  0  0
    4.8059   -1.9260    0.0000 H   0  0  0  0  0  0  0  0  0  0  0  0
    2.0000   -0.1940    0.0000 H   0  0  0  0  0  0  0  0  0  0  0  0
    2.4590    1.5190    0.0000 H   0  0  0  0  0  0  0  0  0  0  0  0
  1  9  1  0  0  0  0
  1 21  1  0  0  0  0
  2  8  1  0  0  0  0
  2 20  1  0  0  0  0
  3  5  1  0  0  0  0
  4  5  2  0  0  0  0
  5  6  1  0  0  0  0
  6  7  1  0  0  0  0
  6  8  1  0  0  0  0
  6  9  1  0  0  0  0
  7 10  1  0  0  0  0
  7 11  1  0  0  0  0
  7 12  1  0  0  0  0
  8 13  1  0  0  0  0
  8 14  1  0  0  0  0
  9 15  1  0  0  0  0
  9 16  1  0  0  0  0
 10 17  1  0  0  0  0
 10 18  1  0  0  0  0
 10 19  1  0  0  0  0
M  CHG  2   3  -1   5   1
M  END
> <PUBCHEM_COMPOUND_CID>
11696

> <PUBCHEM_COMPOUND_CANONICALIZED>
1

> <PUBCHEM_CACTVS_COMPLEXITY>
115

> <PUBCHEM_CACTVS_HBOND_ACCEPTOR>
4

> <PUBCHEM_CACTVS_HBOND_DONOR>
2

> <PUBCHEM_CACTVS_ROTATABLE_BOND>
3

> <PUBCHEM_CACTVS_SUBSKEYS>
AAADccBiOAAAAAAAAAAAAAAAAAAAAAAAAAAAAAAAAAAAAAAAAAAAHgAECAAADIihgAICAAAQQgABAAAAAwAAAAAAAAAgAAAAAAACEAAAAAAAQAAFAAAAAAAAAAAIAAAAAAAAAAAAAAAAAAAAAAAAAAAAAA==

> <PUBCHEM_IUPAC_OPENEYE_NAME>
2-ethyl-2-nitro-propane-1,3-diol

> <PUBCHEM_IUPAC_CAS_NAME>
2-ethyl-2-nitropropane-1,3-diol

> <PUBCHEM_IUPAC_NAME>
2-ethyl-2-nitropropane-1,3-diol

> <PUBCHEM_IUPAC_SYSTEMATIC_NAME>
2-ethyl-2-nitro-propane-1,3-diol

> <PUBCHEM_IUPAC_TRADITIONAL_NAME>
2-ethyl-2-nitro-propane-1,3-diol

> <PUBCHEM_IUPAC_INCHI>
InChI=1S/C5H11NO4/c1-2-5(3-7,4-8)6(9)10/h7-8H,2-4H2,1H3

> <PUBCHEM_IUPAC_INCHIKEY>
YADISKICBOYXFS-UHFFFAOYSA-N

> <PUBCHEM_XLOGP3_AA>
-0.6

> <PUBCHEM_EXACT_MASS>
149.068808

> <PUBCHEM_MOLECULAR_FORMULA>
C5H11NO4

> <PUBCHEM_MOLECULAR_WEIGHT>
149.14514

> <PUBCHEM_OPENEYE_CAN_SMILES>
CCC(CO)(CO)[N+](=O)[O-]

> <PUBCHEM_OPENEYE_ISO_SMILES>
CCC(CO)(CO)[N+](=O)[O-]

> <PUBCHEM_CACTVS_TPSA>
86.3

> <PUBCHEM_MONOISOTOPIC_WEIGHT>
149.068808

> <PUBCHEM_TOTAL_CHARGE>
0

> <PUBCHEM_HEAVY_ATOM_COUNT>
10

> <PUBCHEM_ATOM_DEF_STEREO_COUNT>
0

> <PUBCHEM_ATOM_UDEF_STEREO_COUNT>
0

> <PUBCHEM_BOND_DEF_STEREO_COUNT>
0

> <PUBCHEM_BOND_UDEF_STEREO_COUNT>
0

> <PUBCHEM_ISOTOPIC_ATOM_COUNT>
0

> <PUBCHEM_COMPONENT_COUNT>
1

> <PUBCHEM_CACTVS_TAUTO_COUNT>
1

> <PUBCHEM_COORDINATE_TYPE>
1
5
255

$$$$

