441031
  -OEChem-07051212512D

 16 16  0     1  0  0  0  0  0999 V2000
    3.8890    1.0101    0.0000 O   0  0  0  0  0  0  0  0  0  0  0  0
    2.8012   -1.3378    0.0000 O   0  0  0  0  0  0  0  0  0  0  0  0
    4.9768   -1.3378    0.0000 O   0  0  0  0  0  0  0  0  0  0  0  0
    2.1289    0.7313    0.0000 O   0  0  0  0  0  0  0  0  0  0  0  0
    3.3890   -0.5288    0.0000 C   0  0  1  0  0  0  0  0  0  0  0  0
    4.3890   -0.5288    0.0000 C   0  0  1  0  0  0  0  0  0  0  0  0
    3.0800    0.4223    0.0000 C   0  0  3  0  0  0  0  0  0  0  0  0
    4.6980    0.4223    0.0000 C   0  0  0  0  0  0  0  0  0  0  0  0
    2.7766   -0.4318    0.0000 H   0  0  0  0  0  0  0  0  0  0  0  0
    5.0014   -0.4318    0.0000 H   0  0  0  0  0  0  0  0  0  0  0  0
    2.9470    1.2618    0.0000 H   0  0  0  0  0  0  0  0  0  0  0  0
    5.2644    0.1701    0.0000 H   0  0  0  0  0  0  0  0  0  0  0  0
    5.0080    0.9592    0.0000 H   0  0  0  0  0  0  0  0  0  0  0  0
    2.1846   -1.2730    0.0000 H   0  0  0  0  0  0  0  0  0  0  0  0
    5.5934   -1.2730    0.0000 H   0  0  0  0  0  0  0  0  0  0  0  0
    2.0000    1.3378    0.0000 H   0  0  0  0  0  0  0  0  0  0  0  0
  1  7  1  0  0  0  0
  1  8  1  0  0  0  0
  5  2  1  6  0  0  0
  2 14  1  0  0  0  0
  6  3  1  1  0  0  0
  3 15  1  0  0  0  0
  4  7  1  0  0  0  0
  4 16  1  0  0  0  0
  5  6  1  0  0  0  0
  5  7  1  0  0  0  0
  5  9  1  0  0  0  0
  6  8  1  0  0  0  0
  6 10  1  0  0  0  0
  7 11  1  0  0  0  0
  8 12  1  0  0  0  0
  8 13  1  0  0  0  0
M  END
> <PUBCHEM_COMPOUND_CID>
441031

> <PUBCHEM_COMPOUND_CANONICALIZED>
1

> <PUBCHEM_CACTVS_COMPLEXITY>
84.1

> <PUBCHEM_CACTVS_HBOND_ACCEPTOR>
4

> <PUBCHEM_CACTVS_HBOND_DONOR>
3

> <PUBCHEM_CACTVS_ROTATABLE_BOND>
0

> <PUBCHEM_CACTVS_SUBSKEYS>
AAADccBgOAAAAAAAAAAAAAAAAAAAASAAAAAAAAAAAAAAAAAAAAAAGgAACAAACBSwgAMACAAABgAAAAAAAAAAAAAAAAAAAAAAAAAREAAAAAACQAAFAAAHAABAAAAAAAAAAAAAAAAAAAAAAAAAAAAAAAAAAA==

> <PUBCHEM_IUPAC_OPENEYE_NAME>
(3S,4R)-tetrahydrofuran-2,3,4-triol

> <PUBCHEM_IUPAC_CAS_NAME>
(3S,4R)-oxolane-2,3,4-triol

> <PUBCHEM_IUPAC_NAME>
(3S,4R)-oxolane-2,3,4-triol

> <PUBCHEM_IUPAC_SYSTEMATIC_NAME>
(3S,4R)-oxolane-2,3,4-triol

> <PUBCHEM_IUPAC_TRADITIONAL_NAME>
(3S,4R)-tetrahydrofuran-2,3,4-triol

> <PUBCHEM_IUPAC_INCHI>
InChI=1S/C4H8O4/c5-2-1-8-4(7)3(2)6/h2-7H,1H2/t2-,3+,4?/m1/s1

> <PUBCHEM_IUPAC_INCHIKEY>
FMAORJIQYMIRHF-BCDHYOAOSA-N

> <PUBCHEM_XLOGP3_AA>
-1.9

> <PUBCHEM_EXACT_MASS>
120.042259

> <PUBCHEM_MOLECULAR_FORMULA>
C4H8O4

> <PUBCHEM_MOLECULAR_WEIGHT>
120.10392

> <PUBCHEM_OPENEYE_CAN_SMILES>
C1C(C(C(O1)O)O)O

> <PUBCHEM_OPENEYE_ISO_SMILES>
C1[C@H]([C@@H](C(O1)O)O)O

> <PUBCHEM_CACTVS_TPSA>
69.9

> <PUBCHEM_MONOISOTOPIC_WEIGHT>
120.042259

> <PUBCHEM_TOTAL_CHARGE>
0

> <PUBCHEM_HEAVY_ATOM_COUNT>
8

> <PUBCHEM_ATOM_DEF_STEREO_COUNT>
2

> <PUBCHEM_ATOM_UDEF_STEREO_COUNT>
1

> <PUBCHEM_BOND_DEF_STEREO_COUNT>
0

> <PUBCHEM_BOND_UDEF_STEREO_COUNT>
0

> <PUBCHEM_ISOTOPIC_ATOM_COUNT>
0

> <PUBCHEM_COMPONENT_COUNT>
1

> <PUBCHEM_CACTVS_TAUTO_COUNT>
1

> <PUBCHEM_COORDINATE_TYPE>
1
5
255

> <PUBCHEM_BONDANNOTATIONS>
5  2  6
6  3  5
7  11  3

$$$$

