17396583
  -OEChem-06241222572D

 44 46  0     0  0  0  0  0  0999 V2000
    5.5361   -0.7148    0.0000 O   0  0  0  0  0  0  0  0  0  0  0  0
    3.8611   -2.8026    0.0000 O   0  0  0  0  0  0  0  0  0  0  0  0
    8.1342    4.7852    0.0000 O   0  0  0  0  0  0  0  0  0  0  0  0
    4.6701    0.7852    0.0000 O   0  0  0  0  0  0  0  0  0  0  0  0
    9.0002    3.2852    0.0000 O   0  0  0  0  0  0  0  0  0  0  0  0
    7.2682    3.2852    0.0000 N   0  0  0  0  0  0  0  0  0  0  0  0
    5.1701   -3.7536    0.0000 N   0  0  0  0  0  0  0  0  0  0  0  0
    5.4791   -2.8026    0.0000 N   0  0  0  0  0  0  0  0  0  0  0  0
    6.4021    0.7852    0.0000 C   0  0  0  0  0  0  0  0  0  0  0  0
    7.2682    2.2852    0.0000 C   0  0  0  0  0  0  0  0  0  0  0  0
    6.4021    1.7852    0.0000 C   0  0  0  0  0  0  0  0  0  0  0  0
    3.5823   -4.5626    0.0000 C   0  0  0  0  0  0  0  0  0  0  0  0
    7.2682    0.2852    0.0000 C   0  0  0  0  0  0  0  0  0  0  0  0
    8.1342    1.7852    0.0000 C   0  0  0  0  0  0  0  0  0  0  0  0
    4.6701   -1.2148    0.0000 C   0  0  0  0  0  0  0  0  0  0  0  0
    4.1701   -3.7536    0.0000 C   0  0  0  0  0  0  0  0  0  0  0  0
    4.6701   -2.2148    0.0000 C   0  0  0  0  0  0  0  0  0  0  0  0
    8.1342    0.7852    0.0000 C   0  0  0  0  0  0  0  0  0  0  0  0
    5.5361    0.2852    0.0000 C   0  0  0  0  0  0  0  0  0  0  0  0
    2.5878   -4.4581    0.0000 C   0  0  0  0  0  0  0  0  0  0  0  0
    3.9890   -5.4762    0.0000 C   0  0  0  0  0  0  0  0  0  0  0  0
    2.0000   -5.2671    0.0000 C   0  0  0  0  0  0  0  0  0  0  0  0
    3.4013   -6.2852    0.0000 C   0  0  0  0  0  0  0  0  0  0  0  0
    2.4067   -6.1807    0.0000 C   0  0  0  0  0  0  0  0  0  0  0  0
    8.1342    3.7852    0.0000 C   0  0  0  0  0  0  0  0  0  0  0  0
    9.0002    5.2852    0.0000 C   0  0  0  0  0  0  0  0  0  0  0  0
    9.0002    6.2852    0.0000 C   0  0  0  0  0  0  0  0  0  0  0  0
    5.8652    2.0952    0.0000 H   0  0  0  0  0  0  0  0  0  0  0  0
    7.2682   -0.3348    0.0000 H   0  0  0  0  0  0  0  0  0  0  0  0
    8.6711    2.0952    0.0000 H   0  0  0  0  0  0  0  0  0  0  0  0
    4.4580   -0.6322    0.0000 H   0  0  0  0  0  0  0  0  0  0  0  0
    4.0595   -1.3224    0.0000 H   0  0  0  0  0  0  0  0  0  0  0  0
    8.6711    0.4752    0.0000 H   0  0  0  0  0  0  0  0  0  0  0  0
    6.7312    3.5952    0.0000 H   0  0  0  0  0  0  0  0  0  0  0  0
    2.3356   -3.8917    0.0000 H   0  0  0  0  0  0  0  0  0  0  0  0
    4.6056   -5.5410    0.0000 H   0  0  0  0  0  0  0  0  0  0  0  0
    1.3834   -5.2023    0.0000 H   0  0  0  0  0  0  0  0  0  0  0  0
    3.6534   -6.8516    0.0000 H   0  0  0  0  0  0  0  0  0  0  0  0
    2.0423   -6.6823    0.0000 H   0  0  0  0  0  0  0  0  0  0  0  0
    9.2123    4.7026    0.0000 H   0  0  0  0  0  0  0  0  0  0  0  0
    9.6108    5.3929    0.0000 H   0  0  0  0  0  0  0  0  0  0  0  0
    9.6202    6.2852    0.0000 H   0  0  0  0  0  0  0  0  0  0  0  0
    9.0002    6.9052    0.0000 H   0  0  0  0  0  0  0  0  0  0  0  0
    8.3802    6.2852    0.0000 H   0  0  0  0  0  0  0  0  0  0  0  0
  1 15  1  0  0  0  0
  1 19  1  0  0  0  0
  2 16  1  0  0  0  0
  2 17  1  0  0  0  0
  3 25  1  0  0  0  0
  3 26  1  0  0  0  0
  4 19  2  0  0  0  0
  5 25  2  0  0  0  0
  6 10  1  0  0  0  0
  6 25  1  0  0  0  0
  6 34  1  0  0  0  0
  7  8  1  0  0  0  0
  7 16  2  0  0  0  0
  8 17  2  0  0  0  0
  9 11  2  0  0  0  0
  9 13  1  0  0  0  0
  9 19  1  0  0  0  0
 10 11  1  0  0  0  0
 10 14  2  0  0  0  0
 11 28  1  0  0  0  0
 12 16  1  0  0  0  0
 12 20  2  0  0  0  0
 12 21  1  0  0  0  0
 13 18  2  0  0  0  0
 13 29  1  0  0  0  0
 14 18  1  0  0  0  0
 14 30  1  0  0  0  0
 15 17  1  0  0  0  0
 15 31  1  0  0  0  0
 15 32  1  0  0  0  0
 18 33  1  0  0  0  0
 20 22  1  0  0  0  0
 20 35  1  0  0  0  0
 21 23  2  0  0  0  0
 21 36  1  0  0  0  0
 22 24  2  0  0  0  0
 22 37  1  0  0  0  0
 23 24  1  0  0  0  0
 23 38  1  0  0  0  0
 24 39  1  0  0  0  0
 26 27  1  0  0  0  0
 26 40  1  0  0  0  0
 26 41  1  0  0  0  0
 27 42  1  0  0  0  0
 27 43  1  0  0  0  0
 27 44  1  0  0  0  0
M  END
> <PUBCHEM_COMPOUND_CID>
17396583

> <PUBCHEM_COMPOUND_CANONICALIZED>
1

> <PUBCHEM_CACTVS_COMPLEXITY>
498

> <PUBCHEM_CACTVS_HBOND_ACCEPTOR>
7

> <PUBCHEM_CACTVS_HBOND_DONOR>
1

> <PUBCHEM_CACTVS_ROTATABLE_BOND>
8

> <PUBCHEM_CACTVS_SUBSKEYS>
AAADceB7OAAAAAAAAAAAAAAAAAAAAWAAAAAwYAAAAAAAAAAB0AAAHgAYAAAADAihmgIyyILABECqAiXyWAaSAAAtAgAaiCFwbNkLJrLAtZ2PMQhk3AFK6Ye8yCCOAAAAQAAAAAAAAACAAAAAAAAAAAAAAA==

> <PUBCHEM_IUPAC_OPENEYE_NAME>
(5-phenyl-1,3,4-oxadiazol-2-yl)methyl 3-(ethoxycarbonylamino)benzoate

> <PUBCHEM_IUPAC_CAS_NAME>
3-(ethoxycarbonylamino)benzoic acid (5-phenyl-1,3,4-oxadiazol-2-yl)methyl ester

> <PUBCHEM_IUPAC_NAME>
(5-phenyl-1,3,4-oxadiazol-2-yl)methyl 3-(ethoxycarbonylamino)benzoate

> <PUBCHEM_IUPAC_SYSTEMATIC_NAME>
(5-phenyl-1,3,4-oxadiazol-2-yl)methyl 3-(ethoxycarbonylamino)benzoate

> <PUBCHEM_IUPAC_TRADITIONAL_NAME>
3-(carbethoxyamino)benzoic acid (5-phenyl-1,3,4-oxadiazol-2-yl)methyl ester

> <PUBCHEM_IUPAC_INCHI>
InChI=1S/C19H17N3O5/c1-2-25-19(24)20-15-10-6-9-14(11-15)18(23)26-12-16-21-22-17(27-16)13-7-4-3-5-8-13/h3-11H,2,12H2,1H3,(H,20,24)

> <PUBCHEM_IUPAC_INCHIKEY>
NGUQAFRSFXJRGU-UHFFFAOYSA-N

> <PUBCHEM_XLOGP3_AA>
2.7

> <PUBCHEM_EXACT_MASS>
367.116821

> <PUBCHEM_MOLECULAR_FORMULA>
C19H17N3O5

> <PUBCHEM_MOLECULAR_WEIGHT>
367.35538

> <PUBCHEM_OPENEYE_CAN_SMILES>
CCOC(=O)NC1=CC=CC(=C1)C(=O)OCC2=NN=C(O2)C3=CC=CC=C3

> <PUBCHEM_OPENEYE_ISO_SMILES>
CCOC(=O)NC1=CC=CC(=C1)C(=O)OCC2=NN=C(O2)C3=CC=CC=C3

> <PUBCHEM_CACTVS_TPSA>
104

> <PUBCHEM_MONOISOTOPIC_WEIGHT>
367.116821

> <PUBCHEM_TOTAL_CHARGE>
0

> <PUBCHEM_HEAVY_ATOM_COUNT>
27

> <PUBCHEM_ATOM_DEF_STEREO_COUNT>
0

> <PUBCHEM_ATOM_UDEF_STEREO_COUNT>
0

> <PUBCHEM_BOND_DEF_STEREO_COUNT>
0

> <PUBCHEM_BOND_UDEF_STEREO_COUNT>
0

> <PUBCHEM_ISOTOPIC_ATOM_COUNT>
0

> <PUBCHEM_COMPONENT_COUNT>
1

> <PUBCHEM_CACTVS_TAUTO_COUNT>
2

> <PUBCHEM_COORDINATE_TYPE>
1
5
255

> <PUBCHEM_BONDANNOTATIONS>
10  11  8
10  14  8
12  20  8
12  21  8
13  18  8
14  18  8
2  16  8
2  17  8
20  22  8
21  23  8
22  24  8
23  24  8
7  16  8
7  8  8
8  17  8
9  11  8
9  13  8

$$$$

