51090976
  -OEChem-06241223012D

 45 47  0     0  0  0  0  0  0999 V2000
    4.3211    1.2397    0.0000 O   0  0  0  0  0  0  0  0  0  0  0  0
    8.2816   -0.5808    0.0000 O   0  0  0  0  0  0  0  0  0  0  0  0
    5.9674    0.7016    0.0000 N   0  0  0  0  0  0  0  0  0  0  0  0
    4.6783   -2.0646    0.0000 N   0  0  0  0  0  0  0  0  0  0  0  0
    7.9244    1.1141    0.0000 N   0  0  0  0  0  0  0  0  0  0  0  0
    4.6783   -0.4551    0.0000 C   0  0  0  0  0  0  0  0  0  0  0  0
    3.7320   -0.7598    0.0000 C   0  0  0  0  0  0  0  0  0  0  0  0
    3.7320   -1.7598    0.0000 C   0  0  0  0  0  0  0  0  0  0  0  0
    4.9889    0.4954    0.0000 C   0  0  0  0  0  0  0  0  0  0  0  0
    5.2619   -1.2598    0.0000 C   0  0  0  0  0  0  0  0  0  0  0  0
    6.6353   -0.0427    0.0000 C   0  0  0  0  0  0  0  0  0  0  0  0
    6.2781    1.6521    0.0000 C   0  0  0  0  0  0  0  0  0  0  0  0
    2.8660   -0.2598    0.0000 C   0  0  0  0  0  0  0  0  0  0  0  0
    2.8660   -2.2598    0.0000 C   0  0  0  0  0  0  0  0  0  0  0  0
    7.6138    0.1635    0.0000 C   0  0  0  0  0  0  0  0  0  0  0  0
    4.9889   -3.0151    0.0000 C   0  0  0  0  0  0  0  0  0  0  0  0
    7.2566    1.8584    0.0000 C   0  0  0  0  0  0  0  0  0  0  0  0
    2.0000   -0.7598    0.0000 C   0  0  0  0  0  0  0  0  0  0  0  0
    2.0000   -1.7598    0.0000 C   0  0  0  0  0  0  0  0  0  0  0  0
    7.5673    2.8089    0.0000 C   0  0  0  0  0  0  0  0  0  0  0  0
    8.5458    3.0151    0.0000 C   0  0  0  0  0  0  0  0  0  0  0  0
    8.9030    1.3203    0.0000 C   0  0  0  0  0  0  0  0  0  0  0  0
    9.2136    2.2708    0.0000 C   0  0  0  0  0  0  0  0  0  0  0  0
    9.2601   -0.3745    0.0000 C   0  0  0  0  0  0  0  0  0  0  0  0
    5.8819   -1.2598    0.0000 H   0  0  0  0  0  0  0  0  0  0  0  0
    6.1089   -0.3703    0.0000 H   0  0  0  0  0  0  0  0  0  0  0  0
    6.8665   -0.6179    0.0000 H   0  0  0  0  0  0  0  0  0  0  0  0
    6.2575    2.2718    0.0000 H   0  0  0  0  0  0  0  0  0  0  0  0
    5.6643    1.7395    0.0000 H   0  0  0  0  0  0  0  0  0  0  0  0
    2.8660    0.3602    0.0000 H   0  0  0  0  0  0  0  0  0  0  0  0
    2.8660   -2.8798    0.0000 H   0  0  0  0  0  0  0  0  0  0  0  0
    8.1402    0.4912    0.0000 H   0  0  0  0  0  0  0  0  0  0  0  0
    7.3825    0.7388    0.0000 H   0  0  0  0  0  0  0  0  0  0  0  0
    4.3996   -3.2077    0.0000 H   0  0  0  0  0  0  0  0  0  0  0  0
    5.1815   -3.6044    0.0000 H   0  0  0  0  0  0  0  0  0  0  0  0
    5.5783   -2.8225    0.0000 H   0  0  0  0  0  0  0  0  0  0  0  0
    1.4631   -0.4498    0.0000 H   0  0  0  0  0  0  0  0  0  0  0  0
    1.4631   -2.0699    0.0000 H   0  0  0  0  0  0  0  0  0  0  0  0
    7.1532    3.2704    0.0000 H   0  0  0  0  0  0  0  0  0  0  0  0
    8.7384    3.6044    0.0000 H   0  0  0  0  0  0  0  0  0  0  0  0
    9.3170    0.8588    0.0000 H   0  0  0  0  0  0  0  0  0  0  0  0
    9.8203    2.3986    0.0000 H   0  0  0  0  0  0  0  0  0  0  0  0
    9.3880   -0.9812    0.0000 H   0  0  0  0  0  0  0  0  0  0  0  0
    9.8668   -0.2467    0.0000 H   0  0  0  0  0  0  0  0  0  0  0  0
    9.1323    0.2321    0.0000 H   0  0  0  0  0  0  0  0  0  0  0  0
  1  9  2  0  0  0  0
  2 15  1  0  0  0  0
  2 24  1  0  0  0  0
  3  9  1  0  0  0  0
  3 11  1  0  0  0  0
  3 12  1  0  0  0  0
  4  8  1  0  0  0  0
  4 10  1  0  0  0  0
  4 16  1  0  0  0  0
  5 17  1  0  0  0  0
  5 22  2  0  0  0  0
  6  7  1  0  0  0  0
  6  9  1  0  0  0  0
  6 10  2  0  0  0  0
  7  8  1  0  0  0  0
  7 13  2  0  0  0  0
  8 14  2  0  0  0  0
 10 25  1  0  0  0  0
 11 15  1  0  0  0  0
 11 26  1  0  0  0  0
 11 27  1  0  0  0  0
 12 17  1  0  0  0  0
 12 28  1  0  0  0  0
 12 29  1  0  0  0  0
 13 18  1  0  0  0  0
 13 30  1  0  0  0  0
 14 19  1  0  0  0  0
 14 31  1  0  0  0  0
 15 32  1  0  0  0  0
 15 33  1  0  0  0  0
 16 34  1  0  0  0  0
 16 35  1  0  0  0  0
 16 36  1  0  0  0  0
 17 20  2  0  0  0  0
 18 19  2  0  0  0  0
 18 37  1  0  0  0  0
 19 38  1  0  0  0  0
 20 21  1  0  0  0  0
 20 39  1  0  0  0  0
 21 23  2  0  0  0  0
 21 40  1  0  0  0  0
 22 23  1  0  0  0  0
 22 41  1  0  0  0  0
 23 42  1  0  0  0  0
 24 43  1  0  0  0  0
 24 44  1  0  0  0  0
 24 45  1  0  0  0  0
M  END
> <PUBCHEM_COMPOUND_CID>
51090976

> <PUBCHEM_COMPOUND_CANONICALIZED>
1

> <PUBCHEM_CACTVS_COMPLEXITY>
417

> <PUBCHEM_CACTVS_HBOND_ACCEPTOR>
3

> <PUBCHEM_CACTVS_HBOND_DONOR>
0

> <PUBCHEM_CACTVS_ROTATABLE_BOND>
6

> <PUBCHEM_CACTVS_SUBSKEYS>
AAADceB7MAAAAAAAAAAAAAAAAAAAAWAAAAA8QAAAAAAAAFgB/AAAHgAAAAAADAjhngY+wPMMFACoAzV3VACCgCA1AiAI2CE4ZNgKYPrA1ZGVIYhghgDYyccciMCOgAAAAAACAAAAAAAAAAQAAAAAAAAAAA==

> <PUBCHEM_IUPAC_OPENEYE_NAME>
N-(2-methoxyethyl)-1-methyl-N-(2-pyridylmethyl)indole-3-carboxamide

> <PUBCHEM_IUPAC_CAS_NAME>
N-(2-methoxyethyl)-1-methyl-N-(2-pyridinylmethyl)-3-indolecarboxamide

> <PUBCHEM_IUPAC_NAME>
N-(2-methoxyethyl)-1-methyl-N-(pyridin-2-ylmethyl)indole-3-carboxamide

> <PUBCHEM_IUPAC_SYSTEMATIC_NAME>
N-(2-methoxyethyl)-1-methyl-N-(pyridin-2-ylmethyl)indole-3-carboxamide

> <PUBCHEM_IUPAC_TRADITIONAL_NAME>
N-(2-methoxyethyl)-1-methyl-N-(2-pyridylmethyl)indole-3-carboxamide

> <PUBCHEM_IUPAC_INCHI>
InChI=1S/C19H21N3O2/c1-21-14-17(16-8-3-4-9-18(16)21)19(23)22(11-12-24-2)13-15-7-5-6-10-20-15/h3-10,14H,11-13H2,1-2H3

> <PUBCHEM_IUPAC_INCHIKEY>
OTQBJKWUAJKJQQ-UHFFFAOYSA-N

> <PUBCHEM_XLOGP3_AA>
1.8

> <PUBCHEM_EXACT_MASS>
323.163377

> <PUBCHEM_MOLECULAR_FORMULA>
C19H21N3O2

> <PUBCHEM_MOLECULAR_WEIGHT>
323.38894

> <PUBCHEM_OPENEYE_CAN_SMILES>
CN1C=C(C2=CC=CC=C21)C(=O)N(CCOC)CC3=CC=CC=N3

> <PUBCHEM_OPENEYE_ISO_SMILES>
CN1C=C(C2=CC=CC=C21)C(=O)N(CCOC)CC3=CC=CC=N3

> <PUBCHEM_CACTVS_TPSA>
47.4

> <PUBCHEM_MONOISOTOPIC_WEIGHT>
323.163377

> <PUBCHEM_TOTAL_CHARGE>
0

> <PUBCHEM_HEAVY_ATOM_COUNT>
24

> <PUBCHEM_ATOM_DEF_STEREO_COUNT>
0

> <PUBCHEM_ATOM_UDEF_STEREO_COUNT>
0

> <PUBCHEM_BOND_DEF_STEREO_COUNT>
0

> <PUBCHEM_BOND_UDEF_STEREO_COUNT>
0

> <PUBCHEM_ISOTOPIC_ATOM_COUNT>
0

> <PUBCHEM_COMPONENT_COUNT>
1

> <PUBCHEM_CACTVS_TAUTO_COUNT>
1

> <PUBCHEM_COORDINATE_TYPE>
1
5
255

> <PUBCHEM_BONDANNOTATIONS>
13  18  8
14  19  8
17  20  8
18  19  8
20  21  8
21  23  8
22  23  8
4  10  8
4  8  8
5  17  8
5  22  8
6  10  8
6  7  8
7  13  8
7  8  8
8  14  8

$$$$

