46173724
  -OEChem-07051212492D

 66 70  0     1  0  0  0  0  0999 V2000
    6.0010   -0.5950    0.0000 O   0  0  0  0  0  0  0  0  0  0  0  0
    8.5991   -1.0950    0.0000 O   0  0  0  0  0  0  0  0  0  0  0  0
    5.1350   -2.0950    0.0000 O   0  0  0  0  0  0  0  0  0  0  0  0
    7.7331    0.4050    0.0000 O   0  0  0  0  0  0  0  0  0  0  0  0
    6.0010   -2.5950    0.0000 O   0  0  0  0  0  0  0  0  0  0  0  0
    7.7331   -3.5950    0.0000 O   0  0  0  0  0  0  0  0  0  0  0  0
    4.2690    0.4050    0.0000 O   0  0  0  0  0  0  0  0  0  0  0  0
    2.5369   -0.5950    0.0000 O   0  0  0  0  0  0  0  0  0  0  0  0
    2.5369   -2.5950    0.0000 O   0  0  0  0  0  0  0  0  0  0  0  0
    9.4651   -3.5950    0.0000 O   0  0  0  0  0  0  0  0  0  0  0  0
    9.4651    2.4050    0.0000 O   0  0  0  0  0  0  0  0  0  0  0  0
    9.4651   -0.5950    0.0000 O   0  0  0  0  0  0  0  0  0  0  0  0
    6.8671   -1.0950    0.0000 C   0  0  2  0  0  0  0  0  0  0  0  0
    6.8671   -2.0950    0.0000 C   0  0  2  0  0  0  0  0  0  0  0  0
    7.7331   -2.5950    0.0000 C   0  0  3  0  0  0  0  0  0  0  0  0
    8.5991   -2.0950    0.0000 C   0  0  1  0  0  0  0  0  0  0  0  0
    7.7331   -0.5950    0.0000 C   0  0  1  0  0  0  0  0  0  0  0  0
    5.1350   -1.0950    0.0000 C   0  0  2  0  0  0  0  0  0  0  0  0
    4.2690   -0.5950    0.0000 C   0  0  1  0  0  0  0  0  0  0  0  0
    3.4030   -1.0950    0.0000 C   0  0  2  0  0  0  0  0  0  0  0  0
    3.4030   -2.0950    0.0000 C   0  0  1  0  0  0  0  0  0  0  0  0
    9.4651   -2.5950    0.0000 C   0  0  0  0  0  0  0  0  0  0  0  0
    4.2690   -2.5950    0.0000 C   0  0  0  0  0  0  0  0  0  0  0  0
    8.5991    0.9050    0.0000 C   0  0  0  0  0  0  0  0  0  0  0  0
    8.5991    1.9050    0.0000 C   0  0  0  0  0  0  0  0  0  0  0  0
    9.4651    0.4050    0.0000 C   0  0  0  0  0  0  0  0  0  0  0  0
   10.3312    0.9050    0.0000 C   0  0  0  0  0  0  0  0  0  0  0  0
    7.7331    2.4050    0.0000 C   0  0  0  0  0  0  0  0  0  0  0  0
   10.3312    1.9050    0.0000 C   0  0  0  0  0  0  0  0  0  0  0  0
   11.2251    0.3703    0.0000 C   0  0  0  0  0  0  0  0  0  0  0  0
   11.2251    2.4397    0.0000 C   0  0  0  0  0  0  0  0  0  0  0  0
    7.7331    3.4050    0.0000 C   0  0  0  0  0  0  0  0  0  0  0  0
    6.8671    1.9050    0.0000 C   0  0  0  0  0  0  0  0  0  0  0  0
   12.1312    0.8842    0.0000 C   0  0  0  0  0  0  0  0  0  0  0  0
   12.1312    1.9258    0.0000 C   0  0  0  0  0  0  0  0  0  0  0  0
    6.8671    3.9050    0.0000 C   0  0  0  0  0  0  0  0  0  0  0  0
    6.0010    2.4050    0.0000 C   0  0  0  0  0  0  0  0  0  0  0  0
    6.0010    3.4050    0.0000 C   0  0  0  0  0  0  0  0  0  0  0  0
    6.3301   -1.4050    0.0000 H   0  0  0  0  0  0  0  0  0  0  0  0
    6.3301   -1.7850    0.0000 H   0  0  0  0  0  0  0  0  0  0  0  0
    8.2700   -2.9050    0.0000 H   0  0  0  0  0  0  0  0  0  0  0  0
    9.1360   -1.7850    0.0000 H   0  0  0  0  0  0  0  0  0  0  0  0
    7.1962   -0.2850    0.0000 H   0  0  0  0  0  0  0  0  0  0  0  0
    5.1350   -0.4750    0.0000 H   0  0  0  0  0  0  0  0  0  0  0  0
    4.8059   -0.2850    0.0000 H   0  0  0  0  0  0  0  0  0  0  0  0
    3.4030   -0.4750    0.0000 H   0  0  0  0  0  0  0  0  0  0  0  0
    3.4030   -2.7150    0.0000 H   0  0  0  0  0  0  0  0  0  0  0  0
   10.0757   -2.7027    0.0000 H   0  0  0  0  0  0  0  0  0  0  0  0
    9.6772   -2.0124    0.0000 H   0  0  0  0  0  0  0  0  0  0  0  0
    3.8705   -3.0700    0.0000 H   0  0  0  0  0  0  0  0  0  0  0  0
    4.6675   -3.0700    0.0000 H   0  0  0  0  0  0  0  0  0  0  0  0
    6.0010   -3.2150    0.0000 H   0  0  0  0  0  0  0  0  0  0  0  0
    7.1962   -3.9050    0.0000 H   0  0  0  0  0  0  0  0  0  0  0  0
    3.7320    0.7150    0.0000 H   0  0  0  0  0  0  0  0  0  0  0  0
    2.0000   -0.9050    0.0000 H   0  0  0  0  0  0  0  0  0  0  0  0
    2.5369   -3.2150    0.0000 H   0  0  0  0  0  0  0  0  0  0  0  0
   10.0021   -3.9050    0.0000 H   0  0  0  0  0  0  0  0  0  0  0  0
   11.2179   -0.2496    0.0000 H   0  0  0  0  0  0  0  0  0  0  0  0
   11.2179    3.0596    0.0000 H   0  0  0  0  0  0  0  0  0  0  0  0
    8.2700    3.7150    0.0000 H   0  0  0  0  0  0  0  0  0  0  0  0
    6.8671    1.2850    0.0000 H   0  0  0  0  0  0  0  0  0  0  0  0
   12.6669    0.5721    0.0000 H   0  0  0  0  0  0  0  0  0  0  0  0
   12.6669    2.2379    0.0000 H   0  0  0  0  0  0  0  0  0  0  0  0
    6.8671    4.5250    0.0000 H   0  0  0  0  0  0  0  0  0  0  0  0
    5.4641    2.0950    0.0000 H   0  0  0  0  0  0  0  0  0  0  0  0
    5.4641    3.7150    0.0000 H   0  0  0  0  0  0  0  0  0  0  0  0
 13  1  1  1  0  0  0
 18  1  1  6  0  0  0
  2 16  1  0  0  0  0
  2 17  1  0  0  0  0
  3 18  1  0  0  0  0
  3 23  1  0  0  0  0
 17  4  1  6  0  0  0
  4 24  1  0  0  0  0
 14  5  1  6  0  0  0
  5 52  1  0  0  0  0
  6 15  1  0  0  0  0
  6 53  1  0  0  0  0
 19  7  1  1  0  0  0
  7 54  1  0  0  0  0
 20  8  1  6  0  0  0
  8 55  1  0  0  0  0
 21  9  1  1  0  0  0
  9 56  1  0  0  0  0
 10 22  1  0  0  0  0
 10 57  1  0  0  0  0
 11 25  1  0  0  0  0
 11 29  1  0  0  0  0
 12 26  2  0  0  0  0
 13 14  1  0  0  0  0
 13 17  1  0  0  0  0
 13 39  1  0  0  0  0
 14 15  1  0  0  0  0
 14 40  1  0  0  0  0
 15 16  1  0  0  0  0
 15 41  1  0  0  0  0
 16 22  1  6  0  0  0
 16 42  1  0  0  0  0
 17 43  1  0  0  0  0
 18 19  1  0  0  0  0
 18 44  1  0  0  0  0
 19 20  1  0  0  0  0
 19 45  1  0  0  0  0
 20 21  1  0  0  0  0
 20 46  1  0  0  0  0
 21 23  1  0  0  0  0
 21 47  1  0  0  0  0
 22 48  1  0  0  0  0
 22 49  1  0  0  0  0
 23 50  1  0  0  0  0
 23 51  1  0  0  0  0
 24 25  2  0  0  0  0
 24 26  1  0  0  0  0
 25 28  1  0  0  0  0
 26 27  1  0  0  0  0
 27 29  1  0  0  0  0
 27 30  2  0  0  0  0
 28 32  2  0  0  0  0
 28 33  1  0  0  0  0
 29 31  2  0  0  0  0
 30 34  1  0  0  0  0
 30 58  1  0  0  0  0
 31 35  1  0  0  0  0
 31 59  1  0  0  0  0
 32 36  1  0  0  0  0
 32 60  1  0  0  0  0
 33 37  2  0  0  0  0
 33 61  1  0  0  0  0
 34 35  2  0  0  0  0
 34 62  1  0  0  0  0
 35 63  1  0  0  0  0
 36 38  2  0  0  0  0
 36 64  1  0  0  0  0
 37 38  1  0  0  0  0
 37 65  1  0  0  0  0
 38 66  1  0  0  0  0
M  END
> <PUBCHEM_COMPOUND_CID>
46173724

> <PUBCHEM_COMPOUND_CANONICALIZED>
1

> <PUBCHEM_CACTVS_COMPLEXITY>
859

> <PUBCHEM_CACTVS_HBOND_ACCEPTOR>
12

> <PUBCHEM_CACTVS_HBOND_DONOR>
6

> <PUBCHEM_CACTVS_ROTATABLE_BOND>
6

> <PUBCHEM_CACTVS_SUBSKEYS>
AAADceB4PAAAAAAAAAAAAAAAAAAAAAAAAAA0aIECAAAAAACBQAAAGgAACAAADBSwmAMwDoAABgCIAqBSAAICCAAkIAAIiAFGCMgdNjaENR6ieWCl4BEPqYfI6KyOAAAAAAAIAAAAAAAAABAAAAAAAAAAAA==

> <PUBCHEM_IUPAC_OPENEYE_NAME>
3-[(2S,3R,4S,6R)-4,5-dihydroxy-6-(hydroxymethyl)-3-[(2S,3R,4S,5R)-3,4,5-trihydroxytetrahydropyran-2-yl]oxy-tetrahydropyran-2-yl]oxy-2-phenyl-chromen-4-one

> <PUBCHEM_IUPAC_CAS_NAME>
3-[[(2S,3R,4S,6R)-4,5-dihydroxy-6-(hydroxymethyl)-3-[[(2S,3R,4S,5R)-3,4,5-trihydroxy-2-oxanyl]oxy]-2-oxanyl]oxy]-2-phenyl-1-benzopyran-4-one

> <PUBCHEM_IUPAC_NAME>
3-[(2S,3R,4S,6R)-4,5-dihydroxy-6-(hydroxymethyl)-3-[(2S,3R,4S,5R)-3,4,5-trihydroxyoxan-2-yl]oxyoxan-2-yl]oxy-2-phenylchromen-4-one

> <PUBCHEM_IUPAC_SYSTEMATIC_NAME>
3-[(2S,3R,4S,6R)-6-(hydroxymethyl)-4,5-bis(oxidanyl)-3-[(2S,3R,4S,5R)-3,4,5-tris(oxidanyl)oxan-2-yl]oxy-oxan-2-yl]oxy-2-phenyl-chromen-4-one

> <PUBCHEM_IUPAC_TRADITIONAL_NAME>
3-[(2S,3R,4S,6R)-4,5-dihydroxy-6-methylol-3-[(2S,3R,4S,5R)-3,4,5-trihydroxytetrahydropyran-2-yl]oxy-tetrahydropyran-2-yl]oxy-2-phenyl-chromone

> <PUBCHEM_IUPAC_INCHI>
InChI=1S/C26H28O12/c27-10-16-19(31)20(32)24(38-25-21(33)18(30)14(28)11-34-25)26(36-16)37-23-17(29)13-8-4-5-9-15(13)35-22(23)12-6-2-1-3-7-12/h1-9,14,16,18-21,24-28,30-33H,10-11H2/t14-,16-,18+,19?,20+,21-,24-,25+,26+/m1/s1

> <PUBCHEM_IUPAC_INCHIKEY>
KSXCVPLBQGWZKZ-PTMRMJEWSA-N

> <PUBCHEM_XLOGP3_AA>
-0.3

> <PUBCHEM_EXACT_MASS>
532.158076

> <PUBCHEM_MOLECULAR_FORMULA>
C26H28O12

> <PUBCHEM_MOLECULAR_WEIGHT>
532.49332

> <PUBCHEM_OPENEYE_CAN_SMILES>
C1C(C(C(C(O1)OC2C(C(C(OC2OC3=C(OC4=CC=CC=C4C3=O)C5=CC=CC=C5)CO)O)O)O)O)O

> <PUBCHEM_OPENEYE_ISO_SMILES>
C1[C@H]([C@@H]([C@H]([C@@H](O1)O[C@@H]2[C@H](C([C@H](O[C@H]2OC3=C(OC4=CC=CC=C4C3=O)C5=CC=CC=C5)CO)O)O)O)O)O

> <PUBCHEM_CACTVS_TPSA>
185

> <PUBCHEM_MONOISOTOPIC_WEIGHT>
532.158076

> <PUBCHEM_TOTAL_CHARGE>
0

> <PUBCHEM_HEAVY_ATOM_COUNT>
38

> <PUBCHEM_ATOM_DEF_STEREO_COUNT>
8

> <PUBCHEM_ATOM_UDEF_STEREO_COUNT>
1

> <PUBCHEM_BOND_DEF_STEREO_COUNT>
0

> <PUBCHEM_BOND_UDEF_STEREO_COUNT>
0

> <PUBCHEM_ISOTOPIC_ATOM_COUNT>
0

> <PUBCHEM_COMPONENT_COUNT>
1

> <PUBCHEM_CACTVS_TAUTO_COUNT>
1

> <PUBCHEM_COORDINATE_TYPE>
1
5
255

> <PUBCHEM_BONDANNOTATIONS>
13  1  5
18  1  6
11  25  8
11  29  8
16  22  6
24  25  8
24  26  8
26  27  8
27  29  8
27  30  8
28  32  8
28  33  8
29  31  8
30  34  8
31  35  8
32  36  8
33  37  8
34  35  8
36  38  8
37  38  8
17  4  6
14  5  6
15  6  3
19  7  5
20  8  6
21  9  5

$$$$

