101543
  -OEChem-07051212452D

 34 35  0     1  0  0  0  0  0999 V2000
    3.5398   -2.9231    0.0000 P   0  0  0  0  0  0  0  0  0  0  0  0
    5.0298   -0.2495    0.0000 O   0  0  0  0  0  0  0  0  0  0  0  0
    3.1330   -2.0096    0.0000 O   0  0  0  0  0  0  0  0  0  0  0  0
    2.4608    0.0595    0.0000 O   0  0  0  0  0  0  0  0  0  0  0  0
    6.3031   -1.9051    0.0000 O   0  0  0  0  0  0  0  0  0  0  0  0
    3.9465   -3.8367    0.0000 O   0  0  0  0  0  0  0  0  0  0  0  0
    2.6262   -3.3299    0.0000 O   0  0  0  0  0  0  0  0  0  0  0  0
    2.4888    1.3383    0.0000 O   0  0  0  0  0  0  0  0  0  0  0  0
    4.4533   -2.5164    0.0000 O   0  0  0  0  0  0  0  0  0  0  0  0
    4.2208    4.3383    0.0000 O   0  0  0  0  0  0  0  0  0  0  0  0
    4.2208    1.3383    0.0000 N   0  0  0  0  0  0  0  0  0  0  0  0
    3.3548    2.8383    0.0000 N   0  0  0  0  0  0  0  0  0  0  0  0
    3.7208   -1.2006    0.0000 C   0  0  1  0  0  0  0  0  0  0  0  0
    3.4118   -0.2495    0.0000 C   0  0  2  0  0  0  0  0  0  0  0  0
    4.7208   -1.2006    0.0000 C   0  0  1  0  0  0  0  0  0  0  0  0
    4.2208    0.3383    0.0000 C   0  0  1  0  0  0  0  0  0  0  0  0
    5.3086   -2.0096    0.0000 C   0  0  0  0  0  0  0  0  0  0  0  0
    3.3548    1.8383    0.0000 C   0  0  0  0  0  0  0  0  0  0  0  0
    5.0868    1.8383    0.0000 C   0  0  0  0  0  0  0  0  0  0  0  0
    5.0868    2.8383    0.0000 C   0  0  0  0  0  0  0  0  0  0  0  0
    4.2208    3.3383    0.0000 C   0  0  0  0  0  0  0  0  0  0  0  0
    3.1085   -1.1036    0.0000 H   0  0  0  0  0  0  0  0  0  0  0  0
    2.9734   -0.6879    0.0000 H   0  0  0  0  0  0  0  0  0  0  0  0
    5.3332   -1.1036    0.0000 H   0  0  0  0  0  0  0  0  0  0  0  0
    3.6684    0.6197    0.0000 H   0  0  0  0  0  0  0  0  0  0  0  0
    4.7514   -2.2814    0.0000 H   0  0  0  0  0  0  0  0  0  0  0  0
    5.4795   -2.6056    0.0000 H   0  0  0  0  0  0  0  0  0  0  0  0
    2.0000   -0.3554    0.0000 H   0  0  0  0  0  0  0  0  0  0  0  0
    5.6238    1.5283    0.0000 H   0  0  0  0  0  0  0  0  0  0  0  0
    6.6676   -2.4066    0.0000 H   0  0  0  0  0  0  0  0  0  0  0  0
    2.8179    3.1483    0.0000 H   0  0  0  0  0  0  0  0  0  0  0  0
    5.6238    3.1483    0.0000 H   0  0  0  0  0  0  0  0  0  0  0  0
    2.1246   -2.9654    0.0000 H   0  0  0  0  0  0  0  0  0  0  0  0
    3.5821   -4.3383    0.0000 H   0  0  0  0  0  0  0  0  0  0  0  0
  1  3  1  0  0  0  0
  1  6  1  0  0  0  0
  1  7  1  0  0  0  0
  1  9  2  0  0  0  0
  2 15  1  0  0  0  0
  2 16  1  0  0  0  0
 13  3  1  1  0  0  0
 14  4  1  1  0  0  0
  4 28  1  0  0  0  0
  5 17  1  0  0  0  0
  5 30  1  0  0  0  0
  6 34  1  0  0  0  0
  7 33  1  0  0  0  0
  8 18  2  0  0  0  0
 10 21  2  0  0  0  0
 16 11  1  6  0  0  0
 11 18  1  0  0  0  0
 11 19  1  0  0  0  0
 12 18  1  0  0  0  0
 12 21  1  0  0  0  0
 12 31  1  0  0  0  0
 13 14  1  0  0  0  0
 13 15  1  0  0  0  0
 13 22  1  0  0  0  0
 14 16  1  0  0  0  0
 14 23  1  0  0  0  0
 15 17  1  6  0  0  0
 15 24  1  0  0  0  0
 16 25  1  0  0  0  0
 17 26  1  0  0  0  0
 17 27  1  0  0  0  0
 19 20  2  0  0  0  0
 19 29  1  0  0  0  0
 20 21  1  0  0  0  0
 20 32  1  0  0  0  0
M  END
> <PUBCHEM_COMPOUND_CID>
101543

> <PUBCHEM_COMPOUND_CANONICALIZED>
1

> <PUBCHEM_CACTVS_COMPLEXITY>
517

> <PUBCHEM_CACTVS_HBOND_ACCEPTOR>
9

> <PUBCHEM_CACTVS_HBOND_DONOR>
5

> <PUBCHEM_CACTVS_ROTATABLE_BOND>
4

> <PUBCHEM_CACTVS_SUBSKEYS>
AAADccBzPAIAAAAAAAAAAAAAAAAAASAAAAAgAAAAAAAAAAAAAAAAHgAQCCAACBThgAYBAAPABxCIQCFWUICAAAAAAgAIAAAIAECDEAIAgAAOQAAPFyITAMDwMAIAAAAAAAAAAAAAAAAAAAAAAAAAAAAAAA==

> <PUBCHEM_IUPAC_OPENEYE_NAME>
[(2R,3S,4R,5R)-5-(2,4-dioxopyrimidin-1-yl)-4-hydroxy-2-(hydroxymethyl)tetrahydrofuran-3-yl] dihydrogen phosphate

> <PUBCHEM_IUPAC_CAS_NAME>
[(2R,3S,4R,5R)-5-(2,4-dioxo-1-pyrimidinyl)-4-hydroxy-2-(hydroxymethyl)-3-oxolanyl] dihydrogen phosphate

> <PUBCHEM_IUPAC_NAME>
[(2R,3S,4R,5R)-5-(2,4-dioxopyrimidin-1-yl)-4-hydroxy-2-(hydroxymethyl)oxolan-3-yl] dihydrogen phosphate

> <PUBCHEM_IUPAC_SYSTEMATIC_NAME>
[(2R,3S,4R,5R)-5-[2,4-bis(oxidanylidene)pyrimidin-1-yl]-2-(hydroxymethyl)-4-oxidanyl-oxolan-3-yl] dihydrogen phosphate

> <PUBCHEM_IUPAC_TRADITIONAL_NAME>
[(2R,3S,4R,5R)-5-(2,4-diketopyrimidin-1-yl)-4-hydroxy-2-methylol-tetrahydrofuran-3-yl] dihydrogen phosphate

> <PUBCHEM_IUPAC_INCHI>
InChI=1S/C9H13N2O9P/c12-3-4-7(20-21(16,17)18)6(14)8(19-4)11-2-1-5(13)10-9(11)15/h1-2,4,6-8,12,14H,3H2,(H,10,13,15)(H2,16,17,18)/t4-,6-,7-,8-/m1/s1

> <PUBCHEM_IUPAC_INCHIKEY>
FOGRQMPFHUHIGU-XVFCMESISA-N

> <PUBCHEM_XLOGP3>
-3.6

> <PUBCHEM_EXACT_MASS>
324.035867

> <PUBCHEM_MOLECULAR_FORMULA>
C9H13N2O9P

> <PUBCHEM_MOLECULAR_WEIGHT>
324.181282

> <PUBCHEM_OPENEYE_CAN_SMILES>
C1=CN(C(=O)NC1=O)C2C(C(C(O2)CO)OP(=O)(O)O)O

> <PUBCHEM_OPENEYE_ISO_SMILES>
C1=CN(C(=O)NC1=O)[C@H]2[C@@H]([C@@H]([C@H](O2)CO)OP(=O)(O)O)O

> <PUBCHEM_CACTVS_TPSA>
166

> <PUBCHEM_MONOISOTOPIC_WEIGHT>
324.035867

> <PUBCHEM_TOTAL_CHARGE>
0

> <PUBCHEM_HEAVY_ATOM_COUNT>
21

> <PUBCHEM_ATOM_DEF_STEREO_COUNT>
4

> <PUBCHEM_ATOM_UDEF_STEREO_COUNT>
0

> <PUBCHEM_BOND_DEF_STEREO_COUNT>
0

> <PUBCHEM_BOND_UDEF_STEREO_COUNT>
0

> <PUBCHEM_ISOTOPIC_ATOM_COUNT>
0

> <PUBCHEM_COMPONENT_COUNT>
1

> <PUBCHEM_CACTVS_TAUTO_COUNT>
3

> <PUBCHEM_COORDINATE_TYPE>
1
5
255

> <PUBCHEM_BONDANNOTATIONS>
16  11  6
11  18  8
11  19  8
12  18  8
12  21  8
15  17  6
19  20  8
20  21  8
13  3  5
14  4  5

$$$$

