   Color/Form
        PALE-YELLOW NEEDLES
   from [1]HSDB

   Melting Point
        270-271 DEG C
   from [2]HSDB

   Solubilities
        INSOL IN WATER & HOT ETHANOL; SLIGHTLY SOL IN HOT DIETHYL ETHER,
   HOT BENZENE, HOT ACETIC ACID & CHLOROFORM; SOL IN NITROBENZENE
   from [3]HSDB

   Spectral Properties

     * IR: 4628 (Coblentz Society Spectral Collection)
     * MASS: 4709 (National Bureau of Standards EPA-NIH Mass Spectra Data
       Base, NSRDS-NBS-63)

   from [4]HSDB

   Other Chemical/Physical Properties
        NITRO GROUP MAY BE REPLACED BY A VARIETY OF SUBSTITUENTS; EASILY
   REDUCED TO AMINO GROUP
   from [5]HSDB

   Computed Properties
   Molecular Weight                  267.23626 [g/mol]
   Molecular Formula                 C[15]H[9]NO[4]
   XLogP3-AA                         3.1
   H-Bond Donor                      0
   H-Bond Acceptor                   4
   Rotatable Bond Count              0
   Tautomer Count                    4
   Exact Mass                        267.053158
   MonoIsotopic Mass                 267.053158
   Topological Polar Surface Area    80
   Heavy Atom Count                  20
   Formal Charge                     0
   Complexity                        455
   Isotope Atom Count                0
   Defined Atom Stereocenter Count   0
   Undefined Atom Stereocenter Count 0
   Defined Bond Stereocenter Count   0
   Undefined Bond Stereocenter Count 0
   Covalently-Bonded Unit Count      1
   Feature 3D Acceptor Count         4
   Feature 3D Anion Count            1
   Feature 3D Ring Count             3
   Effective Rotor Count             1
   Conformer Sampling RMSD           0.6
   CID Conformer Count               [6]1

References

   1. http://toxnet.nlm.nih.gov/cgi-bin/sis/search/r?dbs+hsdb:@term+@rn+@rel+129-15-7
   2. http://toxnet.nlm.nih.gov/cgi-bin/sis/search/r?dbs+hsdb:@term+@rn+@rel+129-15-7
   3. http://toxnet.nlm.nih.gov/cgi-bin/sis/search/r?dbs+hsdb:@term+@rn+@rel+129-15-7
   4. http://toxnet.nlm.nih.gov/cgi-bin/sis/search/r?dbs+hsdb:@term+@rn+@rel+129-15-7
   5. http://toxnet.nlm.nih.gov/cgi-bin/sis/search/r?dbs+hsdb:@term+@rn+@rel+129-15-7
   6. http://pubchem.ncbi.nlm.nih.gov/vw3d/vw3d.cgi?cid=31426
