   Color/Form

     * COLORLESS, MOBILE LIQUID
     * Colorless liquid

   from [1]HSDB

   Odor

     * Offensive
     * Characteristic odor of cabbage

   from [2]HSDB

   Taste
        BELOW 2-3 PPM SWEET ONION & CABBAGE-LIKE FLAVOR
   from [3]HSDB

   Boiling Point
        67.8 deg C
   from [4]HSDB

   Melting Point
        -113.3 deg C
   from [5]HSDB

   Critical Temperature and Pressure
        Critical temp: 495 deg F= 257 deg C= 530 deg K (est); Critical
   pressure: 667 psia= 45.3 atm= 4.60 MN/sq m (est)
   from [6]HSDB

   Density/Specific Gravity
        0.843 g/cu cm at 20 deg C
   from [7]HSDB

   Heat of Combustion
        -15,990 Btu/lb= -8,890 cal/g= -372x10+5 J/kg
   from [8]HSDB

   Heat of Vaporization
        179 Btu/lb= 99 cal/g= 4.16x10+5 J/kg
   from [9]HSDB

   Octanol/Water Partition Coefficient
        log Kow = 1.81
   from [10]HSDB

   Solubilities

     * Miscible in ethanol, ether; very soluble in acetone
     * SOL IN PROPYLENE GLYCOL
     * Soluble in ethanol, ether, acetone, benzene
     * In water, 1.90X10+3 mg/L at 25 deg C

   from [11]HSDB

   Spectral Properties

     * MAX ABSORPTION (WATER, PH= 10.2): 240 NM (LOG E= 3.20)
     * Index of refraction: 1.4380 @ 20 deg C/D
     * IR: 5983 (Sadtler Research Laboratories Prism Collection)
     * UV: 3-12 (Organic Electronic Spectral Data, Phillips et al, John
       Wiley & Sons, New York)
     * 1H NMR: 16981 (Sadtler Research Laboratories Spectral Collection)
     * MASS: 19220 (NIST/EPA/MSDC Mass Spectral Database, 1990 version);
       92 (Atlas of Mass Spectral Data, John Wiley & Sons, New York)

   from [12]HSDB

   Surface Tension
        24.7 dynes/cm= 0.0247 N/m @ 20 deg C
   from [13]HSDB

   Vapor Pressure
        154.2 mm Hg at 25 deg C /Extrapolated/
   from [14]HSDB

   Other Chemical/Physical Properties

     * Forms binary azeotropic mixture with propyl alcohol (91.35%) &
       ternary azeotrope with water & propyl alcohol
     * Henry's Law constant = 4.08X10-3 atm-cu m/mol at 25 deg C
     * Hydroxyl radical reaction rate constant = 4.83X10-11 cu
       cm/molec-sec at 25 deg C

   from [15]HSDB

   Computed Properties
   Molecular Weight                  76.16062 [g/mol]
   Molecular Formula                 C[3]H[8]S
   XLogP3                            1.8
   H-Bond Donor                      1
   H-Bond Acceptor                   1
   Rotatable Bond Count              1
   Exact Mass                        76.034671
   MonoIsotopic Mass                 76.034671
   Topological Polar Surface Area    1
   Heavy Atom Count                  4
   Formal Charge                     0
   Complexity                        7.2
   Isotope Atom Count                0
   Defined Atom Stereocenter Count   0
   Undefined Atom Stereocenter Count 0
   Defined Bond Stereocenter Count   0
   Undefined Bond Stereocenter Count 0
   Covalently-Bonded Unit Count      1
   Feature 3D Hydrophobe Count       1
   Effective Rotor Count             1
   Conformer Sampling RMSD           0.4
   CID Conformer Count               [16]3

References

   1. http://toxnet.nlm.nih.gov/cgi-bin/sis/search/r?dbs+hsdb:@term+@rn+@rel+107-03-9
   2. http://toxnet.nlm.nih.gov/cgi-bin/sis/search/r?dbs+hsdb:@term+@rn+@rel+107-03-9
   3. http://toxnet.nlm.nih.gov/cgi-bin/sis/search/r?dbs+hsdb:@term+@rn+@rel+107-03-9
   4. http://toxnet.nlm.nih.gov/cgi-bin/sis/search/r?dbs+hsdb:@term+@rn+@rel+107-03-9
   5. http://toxnet.nlm.nih.gov/cgi-bin/sis/search/r?dbs+hsdb:@term+@rn+@rel+107-03-9
   6. http://toxnet.nlm.nih.gov/cgi-bin/sis/search/r?dbs+hsdb:@term+@rn+@rel+107-03-9
   7. http://toxnet.nlm.nih.gov/cgi-bin/sis/search/r?dbs+hsdb:@term+@rn+@rel+107-03-9
   8. http://toxnet.nlm.nih.gov/cgi-bin/sis/search/r?dbs+hsdb:@term+@rn+@rel+107-03-9
   9. http://toxnet.nlm.nih.gov/cgi-bin/sis/search/r?dbs+hsdb:@term+@rn+@rel+107-03-9
  10. http://toxnet.nlm.nih.gov/cgi-bin/sis/search/r?dbs+hsdb:@term+@rn+@rel+107-03-9
  11. http://toxnet.nlm.nih.gov/cgi-bin/sis/search/r?dbs+hsdb:@term+@rn+@rel+107-03-9
  12. http://toxnet.nlm.nih.gov/cgi-bin/sis/search/r?dbs+hsdb:@term+@rn+@rel+107-03-9
  13. http://toxnet.nlm.nih.gov/cgi-bin/sis/search/r?dbs+hsdb:@term+@rn+@rel+107-03-9
  14. http://toxnet.nlm.nih.gov/cgi-bin/sis/search/r?dbs+hsdb:@term+@rn+@rel+107-03-9
  15. http://toxnet.nlm.nih.gov/cgi-bin/sis/search/r?dbs+hsdb:@term+@rn+@rel+107-03-9
  16. http://pubchem.ncbi.nlm.nih.gov/vw3d/vw3d.cgi?cid=7848
