443191
  -OEChem-07051213012D

 31 30  0     1  0  0  0  0  0999 V2000
    6.0010   -1.1900    0.0000 O   0  0  0  0  0  0  0  0  0  0  0  0
    2.5369    0.8100    0.0000 O   0  0  0  0  0  0  0  0  0  0  0  0
    3.4030   -0.6900    0.0000 O   0  0  0  0  0  0  0  0  0  0  0  0
    6.0010    0.8100    0.0000 C   0  0  0  0  0  0  0  0  0  0  0  0
    6.8671    0.3100    0.0000 C   0  0  1  0  0  0  0  0  0  0  0  0
    5.1350    0.3100    0.0000 C   0  0  0  0  0  0  0  0  0  0  0  0
    4.2690    0.8100    0.0000 C   0  0  3  0  0  0  0  0  0  0  0  0
    6.8671   -0.6900    0.0000 C   0  0  0  0  0  0  0  0  0  0  0  0
    7.7331    0.8100    0.0000 C   0  0  0  0  0  0  0  0  0  0  0  0
    4.2690    1.8100    0.0000 C   0  0  0  0  0  0  0  0  0  0  0  0
    3.4030    0.3100    0.0000 C   0  0  0  0  0  0  0  0  0  0  0  0
    8.5991    0.3100    0.0000 C   0  0  0  0  0  0  0  0  0  0  0  0
    7.7331    1.8100    0.0000 C   0  0  0  0  0  0  0  0  0  0  0  0
    6.3996    1.2850    0.0000 H   0  0  0  0  0  0  0  0  0  0  0  0
    5.6025    1.2850    0.0000 H   0  0  0  0  0  0  0  0  0  0  0  0
    6.3301    0.0000    0.0000 H   0  0  0  0  0  0  0  0  0  0  0  0
    4.7365   -0.1649    0.0000 H   0  0  0  0  0  0  0  0  0  0  0  0
    5.5335   -0.1649    0.0000 H   0  0  0  0  0  0  0  0  0  0  0  0
    5.0051    1.2350    0.0000 H   0  0  0  0  0  0  0  0  0  0  0  0
    7.0791   -1.2726    0.0000 H   0  0  0  0  0  0  0  0  0  0  0  0
    7.4776   -0.5823    0.0000 H   0  0  0  0  0  0  0  0  0  0  0  0
    4.8890    1.8100    0.0000 H   0  0  0  0  0  0  0  0  0  0  0  0
    4.2690    2.4300    0.0000 H   0  0  0  0  0  0  0  0  0  0  0  0
    3.6490    1.8100    0.0000 H   0  0  0  0  0  0  0  0  0  0  0  0
    8.2891   -0.2269    0.0000 H   0  0  0  0  0  0  0  0  0  0  0  0
    9.1360    0.0000    0.0000 H   0  0  0  0  0  0  0  0  0  0  0  0
    8.9091    0.8469    0.0000 H   0  0  0  0  0  0  0  0  0  0  0  0
    8.2700    2.1200    0.0000 H   0  0  0  0  0  0  0  0  0  0  0  0
    7.1962    2.1200    0.0000 H   0  0  0  0  0  0  0  0  0  0  0  0
    6.0010   -1.8100    0.0000 H   0  0  0  0  0  0  0  0  0  0  0  0
    2.0000    0.5000    0.0000 H   0  0  0  0  0  0  0  0  0  0  0  0
  1  8  1  0  0  0  0
  1 30  1  0  0  0  0
  2 11  1  0  0  0  0
  2 31  1  0  0  0  0
  3 11  2  0  0  0  0
  5  4  1  6  0  0  0
  4  6  1  0  0  0  0
  4 14  1  0  0  0  0
  4 15  1  0  0  0  0
  5  8  1  0  0  0  0
  5  9  1  0  0  0  0
  5 16  1  0  0  0  0
  6  7  1  0  0  0  0
  6 17  1  0  0  0  0
  6 18  1  0  0  0  0
  7 10  1  0  0  0  0
  7 11  1  0  0  0  0
  7 19  1  0  0  0  0
  8 20  1  0  0  0  0
  8 21  1  0  0  0  0
  9 12  1  0  0  0  0
  9 13  2  0  0  0  0
 10 22  1  0  0  0  0
 10 23  1  0  0  0  0
 10 24  1  0  0  0  0
 12 25  1  0  0  0  0
 12 26  1  0  0  0  0
 12 27  1  0  0  0  0
 13 28  1  0  0  0  0
 13 29  1  0  0  0  0
M  END
> <PUBCHEM_COMPOUND_CID>
443191

> <PUBCHEM_COMPOUND_CANONICALIZED>
1

> <PUBCHEM_CACTVS_COMPLEXITY>
187

> <PUBCHEM_CACTVS_HBOND_ACCEPTOR>
3

> <PUBCHEM_CACTVS_HBOND_DONOR>
2

> <PUBCHEM_CACTVS_ROTATABLE_BOND>
6

> <PUBCHEM_CACTVS_SUBSKEYS>
AAADceBwMAAAAAAAAAAAAAAAAAAAAAAAAAAAAAAAAAAAAAAAAAAAGgAACAAADQCggAICCAAAAgCIAgDSCAAAAAAgAAAAAAEAAAgAEBIAAQAAQAAEwAAAAAGIyHCOAAAAAAAAAAAAAAAAAAAAAAAAAAAAAA==

> <PUBCHEM_IUPAC_OPENEYE_NAME>
(5R)-5-(hydroxymethyl)-2,6-dimethyl-hept-6-enoic acid

> <PUBCHEM_IUPAC_CAS_NAME>
(5R)-5-(hydroxymethyl)-2,6-dimethyl-6-heptenoic acid

> <PUBCHEM_IUPAC_NAME>
(5R)-5-(hydroxymethyl)-2,6-dimethylhept-6-enoic acid

> <PUBCHEM_IUPAC_SYSTEMATIC_NAME>
(5R)-5-(hydroxymethyl)-2,6-dimethyl-hept-6-enoic acid

> <PUBCHEM_IUPAC_TRADITIONAL_NAME>
(5R)-2,6-dimethyl-5-methylol-hept-6-enoic acid

> <PUBCHEM_IUPAC_INCHI>
InChI=1S/C10H18O3/c1-7(2)9(6-11)5-4-8(3)10(12)13/h8-9,11H,1,4-6H2,2-3H3,(H,12,13)/t8?,9-/m0/s1

> <PUBCHEM_IUPAC_INCHIKEY>
QJXGZJIBSSFJPK-GKAPJAKFSA-N

> <PUBCHEM_XLOGP3_AA>
1.8

> <PUBCHEM_EXACT_MASS>
186.125594

> <PUBCHEM_MOLECULAR_FORMULA>
C10H18O3

> <PUBCHEM_MOLECULAR_WEIGHT>
186.24812

> <PUBCHEM_OPENEYE_CAN_SMILES>
CC(CCC(CO)C(=C)C)C(=O)O

> <PUBCHEM_OPENEYE_ISO_SMILES>
CC(CC[C@@H](CO)C(=C)C)C(=O)O

> <PUBCHEM_CACTVS_TPSA>
57.5

> <PUBCHEM_MONOISOTOPIC_WEIGHT>
186.125594

> <PUBCHEM_TOTAL_CHARGE>
0

> <PUBCHEM_HEAVY_ATOM_COUNT>
13

> <PUBCHEM_ATOM_DEF_STEREO_COUNT>
1

> <PUBCHEM_ATOM_UDEF_STEREO_COUNT>
1

> <PUBCHEM_BOND_DEF_STEREO_COUNT>
0

> <PUBCHEM_BOND_UDEF_STEREO_COUNT>
0

> <PUBCHEM_ISOTOPIC_ATOM_COUNT>
0

> <PUBCHEM_COMPONENT_COUNT>
1

> <PUBCHEM_CACTVS_TAUTO_COUNT>
1

> <PUBCHEM_COORDINATE_TYPE>
1
5
255

> <PUBCHEM_BONDANNOTATIONS>
5  4  6
7  19  3

$$$$

