   Color/Form

     * Colorless, volatile, mobile liquid
     * Colorless liquid [Note: A gas above 94 degees F].

   from [1]HSDB

   Odor

     * Sweetish, pungent odor
     * Ethereal odor

   from [2]HSDB

   Taste
        Burning and sweet taste
   from [3]HSDB

   Boiling Point
        34.6 deg C at 760 mm Hg; 17.9 deg C at 400 mm Hg; 2.2 deg C at 200
   mm Hg
   from [4]HSDB

   Melting Point
        -116.3 deg C (stable crystals); -123.3 deg C (metastable crystals)
   from [5]HSDB

   Critical Temperature and Pressure
        Critical temp 192.7 deg C; critical pressure 35.6 atm
   from [6]HSDB

   Density/Specific Gravity
        0.7134 at 20 deg C/4 deg C
   from [7]HSDB

   Dissociation Constants
        pKa = -3.59
   from [8]HSDB

   Heat of Combustion
        -8.807 kcal/g
   from [9]HSDB

   Heat of Vaporization
        89.80 cal/g at 30 deg C
   from [10]HSDB

   Octanol/Water Partition Coefficient
        log Kow= 0.89
   from [11]HSDB

   Solubilities

     * Miscible with lower aliphatic alcohols, benzene, chloroform,
       petroleum ether, fat solvents, many oils; sol in concn hydrochloric
       acid
     * Sol in acetone; very sol in ethanol
     * Sol in solvent naphtha, benzene, oils
     * Miscible with most organic solvents
     * In water, 6.04X10+4 mg/L at 25 deg C

   from [12]HSDB

   Spectral Properties

     * Index of refraction: 1.35555 at 15 deg C/D
     * Index of refraction: 1.3526 at 20 deg C/D
     * MAX ABSORPTION: 171 NM (LOG E= 3.60), 188 NM (LOG E= 3.30) (GAS);
       SADTLER REF NUMBER: 1335 (IR, PRISM); 241 (IR, GRATING) LIQUID
     * Ether, absolute, exhibits its two strongest infra red absorption
       bands at wavelengths of 7.2 and 8.9 microns.
     * IR: 6162 (Coblentz Society Spectral Collection)
     * NMR: 3998 (Sadtler Research Laboratories Spectral Collection)
     * MASS: 61549 (NIST/EPA/MSDC Mass Spectral Database, 1990 version)
     * Raman: 257 (Sadtler Research Laboratories Spectral Collection)

   from [13]HSDB

   Surface Tension
        17.06 dynes/cm at 20 deg C
   from [14]HSDB

   Vapor Density
        2.55 (Air = 1.0)
   from [15]HSDB

   Vapor Pressure
        538 mm Hg at 25 deg C
   from [16]HSDB

   Viscosity
        0.2448 centipoise at 20 deg C
   from [17]HSDB

   Other Chemical/Physical Properties

     * Dielectric constant 4.197 at 26.9 deg C and 85.8 kilocycles
     * HYGROSCOPIC
     * Electric conductivity 4x10-13 reciprocal ohms at 25 deg C
     * Ratio of specific heats of vapor (gas)= 1.081
     * Coefficient of expansion 0.00164/deg C
     * Burns with a smoky greenish flame ...
     * Heat of fusion= 23.45 cal/g
     * Wt/gal = 6 lb at 20 deg C
     * Heat of formation = -907 cal/g
     * Azeotrope with water
     * Partition coefficients at 37 deg C for diethyl ether into blood=
       14.0; into oil= 64. [Sato A, Nakajima T; Scand J Work Environ
       Health 13: 81-93 (1987)] [18]PubMed Abstract
     * Solubility in water is increased by hydrochloric acid
     * Sat vapor pressure = 439.8 mm Hg at 20 deg C
     * Henry's Law constant = 1.23X10-3 atm-cu m/mol at 25 deg C
     * Hydroxyl radical reaction rate constant = 1.31X10-11 cu
       cm/molecule-sec at 25 deg C

   from [19]HSDB

   Computed Properties
   Molecular Weight                  74.1216 [g/mol]
   Molecular Formula                 C[4]H[10]O
   XLogP3                            0.9
   H-Bond Donor                      0
   H-Bond Acceptor                   1
   Rotatable Bond Count              2
   Exact Mass                        74.073165
   MonoIsotopic Mass                 74.073165
   Topological Polar Surface Area    9.2
   Heavy Atom Count                  5
   Formal Charge                     0
   Complexity                        11.1
   Isotope Atom Count                0
   Defined Atom Stereocenter Count   0
   Undefined Atom Stereocenter Count 0
   Defined Bond Stereocenter Count   0
   Undefined Bond Stereocenter Count 0
   Covalently-Bonded Unit Count      1
   Feature 3D Acceptor Count         1
   Effective Rotor Count             2
   Conformer Sampling RMSD           0.4
   CID Conformer Count               [20]5

References

   1. http://toxnet.nlm.nih.gov/cgi-bin/sis/search/r?dbs+hsdb:@term+@rn+@rel+60-29-7
   2. http://toxnet.nlm.nih.gov/cgi-bin/sis/search/r?dbs+hsdb:@term+@rn+@rel+60-29-7
   3. http://toxnet.nlm.nih.gov/cgi-bin/sis/search/r?dbs+hsdb:@term+@rn+@rel+60-29-7
   4. http://toxnet.nlm.nih.gov/cgi-bin/sis/search/r?dbs+hsdb:@term+@rn+@rel+60-29-7
   5. http://toxnet.nlm.nih.gov/cgi-bin/sis/search/r?dbs+hsdb:@term+@rn+@rel+60-29-7
   6. http://toxnet.nlm.nih.gov/cgi-bin/sis/search/r?dbs+hsdb:@term+@rn+@rel+60-29-7
   7. http://toxnet.nlm.nih.gov/cgi-bin/sis/search/r?dbs+hsdb:@term+@rn+@rel+60-29-7
   8. http://toxnet.nlm.nih.gov/cgi-bin/sis/search/r?dbs+hsdb:@term+@rn+@rel+60-29-7
   9. http://toxnet.nlm.nih.gov/cgi-bin/sis/search/r?dbs+hsdb:@term+@rn+@rel+60-29-7
  10. http://toxnet.nlm.nih.gov/cgi-bin/sis/search/r?dbs+hsdb:@term+@rn+@rel+60-29-7
  11. http://toxnet.nlm.nih.gov/cgi-bin/sis/search/r?dbs+hsdb:@term+@rn+@rel+60-29-7
  12. http://toxnet.nlm.nih.gov/cgi-bin/sis/search/r?dbs+hsdb:@term+@rn+@rel+60-29-7
  13. http://toxnet.nlm.nih.gov/cgi-bin/sis/search/r?dbs+hsdb:@term+@rn+@rel+60-29-7
  14. http://toxnet.nlm.nih.gov/cgi-bin/sis/search/r?dbs+hsdb:@term+@rn+@rel+60-29-7
  15. http://toxnet.nlm.nih.gov/cgi-bin/sis/search/r?dbs+hsdb:@term+@rn+@rel+60-29-7
  16. http://toxnet.nlm.nih.gov/cgi-bin/sis/search/r?dbs+hsdb:@term+@rn+@rel+60-29-7
  17. http://toxnet.nlm.nih.gov/cgi-bin/sis/search/r?dbs+hsdb:@term+@rn+@rel+60-29-7
  18. http://www.ncbi.nlm.nih.gov/entrez/query.fcgi?cmd=Retrieve&db=pubmed&dopt=Abstract&list_uids=3299685
  19. http://toxnet.nlm.nih.gov/cgi-bin/sis/search/r?dbs+hsdb:@term+@rn+@rel+60-29-7
  20. http://pubchem.ncbi.nlm.nih.gov/vw3d/vw3d.cgi?cid=3283
