   Color/Form

     * Yellow needles from benzene
     * Orange-yellow needles
     * Chrome-red, thick prismatic crystals

   from [1]HSDB

   Boiling Point
        Sublimes without decomposition
   from [2]HSDB

   Melting Point
        approximately 215 deg C (decomposes)
   from [3]HSDB

   Octanol/Water Partition Coefficient
        log Kow = 5.34 (est)
   from [4]HSDB

   Solubilities

     * Slightly soluble in cold ethanol, diethyl ether and carbon
       disulfide; somewhat more soluble in benzene and acetic acid;
       soluble in hot nitrobenzene
     * In water, 1.53X10-2 mg/L at 25 deg C (est)

   from [5]HSDB

   Spectral Properties

     * MASS: 101254 (NIST/EPA/MSDC Mass Spectral Database, 1990 version);
       1727 (Atlas of Mass Spectral Data, John Wiley & Sons, New York)
     * IR: 13107 (Sadtler Research Laboratories prism collection)
     * UV: 461(Friedel and Orchin, Ultraviolet Spectra of Aromatic
       Compounds, John Wiley & Sons, New York)

   from [6]HSDB

   Vapor Pressure
        7.61X10-9 mm Hg at 25 deg C (est)
   from [7]HSDB

   Other Chemical/Physical Properties

     * Henry's Law constant = 1.47X10-8 atm-cu m/mol at 25 deg C (est)
     * Hydroxyl radical reaction rate constant = 6.25X10-12 cu
       cm/molec-sec at 25 deg C (est)

   from [8]HSDB

   Computed Properties
   Molecular Weight                  273.28544 [g/mol]
   Molecular Formula                 C[18]H[11]NO[2]
   XLogP3                            5.5
   H-Bond Donor                      0
   H-Bond Acceptor                   2
   Rotatable Bond Count              0
   Exact Mass                        273.078979
   MonoIsotopic Mass                 273.078979
   Topological Polar Surface Area    45.8
   Heavy Atom Count                  21
   Formal Charge                     0
   Complexity                        405
   Isotope Atom Count                0
   Defined Atom Stereocenter Count   0
   Undefined Atom Stereocenter Count 0
   Defined Bond Stereocenter Count   0
   Undefined Bond Stereocenter Count 0
   Covalently-Bonded Unit Count      1
   Feature 3D Acceptor Count         2
   Feature 3D Anion Count            1
   Feature 3D Ring Count             4
   Effective Rotor Count             1
   Conformer Sampling RMSD           0.6
   CID Conformer Count               [9]1

References

   1. http://toxnet.nlm.nih.gov/cgi-bin/sis/search/r?dbs+hsdb:@term+@rn+@rel+7496-02-8
   2. http://toxnet.nlm.nih.gov/cgi-bin/sis/search/r?dbs+hsdb:@term+@rn+@rel+7496-02-8
   3. http://toxnet.nlm.nih.gov/cgi-bin/sis/search/r?dbs+hsdb:@term+@rn+@rel+7496-02-8
   4. http://toxnet.nlm.nih.gov/cgi-bin/sis/search/r?dbs+hsdb:@term+@rn+@rel+7496-02-8
   5. http://toxnet.nlm.nih.gov/cgi-bin/sis/search/r?dbs+hsdb:@term+@rn+@rel+7496-02-8
   6. http://toxnet.nlm.nih.gov/cgi-bin/sis/search/r?dbs+hsdb:@term+@rn+@rel+7496-02-8
   7. http://toxnet.nlm.nih.gov/cgi-bin/sis/search/r?dbs+hsdb:@term+@rn+@rel+7496-02-8
   8. http://toxnet.nlm.nih.gov/cgi-bin/sis/search/r?dbs+hsdb:@term+@rn+@rel+7496-02-8
   9. http://pubchem.ncbi.nlm.nih.gov/vw3d/vw3d.cgi?cid=24121
