11954209
  -OEChem-07051213072D

 71 75  0     1  0  0  0  0  0999 V2000
   10.7224   -0.8990    0.0000 O   0  0  0  0  0  0  0  0  0  0  0  0
    9.8660    1.6044    0.0000 O   0  0  0  0  0  0  0  0  0  0  0  0
   12.4544   -0.9056    0.0000 O   0  0  0  0  0  0  0  0  0  0  0  0
    8.9942    0.1077    0.0000 O   0  0  0  0  0  0  0  0  0  0  0  0
   12.4583    0.0944    0.0000 O   0  0  0  0  0  0  0  0  0  0  0  0
   12.4660    2.0944    0.0000 O   0  0  0  0  0  0  0  0  0  0  0  0
   10.7147   -2.8989    0.0000 O   0  0  0  0  0  0  0  0  0  0  0  0
   12.4429   -3.9056    0.0000 O   0  0  0  0  0  0  0  0  0  0  0  0
   14.1788   -2.9123    0.0000 O   0  0  0  0  0  0  0  0  0  0  0  0
   11.6058    3.5977    0.0000 O   0  0  0  0  0  0  0  0  0  0  0  0
    5.4641    0.1319    0.0000 O   0  0  0  0  0  0  0  0  0  0  0  0
    5.4641    3.1319    0.0000 O   0  0  0  0  0  0  0  0  0  0  0  0
   10.7263    0.1010    0.0000 C   0  0  2  0  0  0  0  0  0  0  0  0
   11.5942    0.5977    0.0000 C   0  0  2  0  0  0  0  0  0  0  0  0
   11.5981    1.5977    0.0000 C   0  0  1  0  0  0  0  0  0  0  0  0
   11.5865   -1.4023    0.0000 C   0  0  2  0  0  0  0  0  0  0  0  0
    9.8622    0.6044    0.0000 C   0  0  1  0  0  0  0  0  0  0  0  0
   11.5826   -2.4023    0.0000 C   0  0  1  0  0  0  0  0  0  0  0  0
   10.7340    2.1010    0.0000 C   0  0  1  0  0  0  0  0  0  0  0  0
   12.4467   -2.9056    0.0000 C   0  0  1  0  0  0  0  0  0  0  0  0
   13.3147   -2.4090    0.0000 C   0  0  2  0  0  0  0  0  0  0  0  0
   13.3185   -1.4090    0.0000 C   0  0  2  0  0  0  0  0  0  0  0  0
   10.7378    3.1010    0.0000 C   0  0  0  0  0  0  0  0  0  0  0  0
   14.1865   -0.9123    0.0000 C   0  0  0  0  0  0  0  0  0  0  0  0
    8.1301    0.6111    0.0000 C   0  0  0  0  0  0  0  0  0  0  0  0
    7.2241    0.0972    0.0000 C   0  0  0  0  0  0  0  0  0  0  0  0
    8.1301    1.6527    0.0000 C   0  0  0  0  0  0  0  0  0  0  0  0
    6.3301    0.6319    0.0000 C   0  0  0  0  0  0  0  0  0  0  0  0
    6.3301    1.6319    0.0000 C   0  0  0  0  0  0  0  0  0  0  0  0
    4.5981    0.6319    0.0000 C   0  0  3  0  0  0  0  0  0  0  0  0
    7.2241    2.1665    0.0000 C   0  0  0  0  0  0  0  0  0  0  0  0
    4.5981    1.6319    0.0000 C   0  0  0  0  0  0  0  0  0  0  0  0
    5.4641    2.1319    0.0000 C   0  0  0  0  0  0  0  0  0  0  0  0
    3.7320    0.1319    0.0000 C   0  0  0  0  0  0  0  0  0  0  0  0
    2.8660    0.6319    0.0000 C   0  0  0  0  0  0  0  0  0  0  0  0
    3.7320   -0.8681    0.0000 C   0  0  0  0  0  0  0  0  0  0  0  0
    2.0000    0.1319    0.0000 C   0  0  0  0  0  0  0  0  0  0  0  0
    2.8660   -1.3681    0.0000 C   0  0  0  0  0  0  0  0  0  0  0  0
    2.0000   -0.8681    0.0000 C   0  0  0  0  0  0  0  0  0  0  0  0
   11.2620   -0.2110    0.0000 H   0  0  0  0  0  0  0  0  0  0  0  0
   11.5918   -0.0223    0.0000 H   0  0  0  0  0  0  0  0  0  0  0  0
   12.1338    1.2856    0.0000 H   0  0  0  0  0  0  0  0  0  0  0  0
   11.5889   -0.7823    0.0000 H   0  0  0  0  0  0  0  0  0  0  0  0
    9.8598   -0.0156    0.0000 H   0  0  0  0  0  0  0  0  0  0  0  0
   11.0469   -2.0902    0.0000 H   0  0  0  0  0  0  0  0  0  0  0  0
   10.1982    2.4131    0.0000 H   0  0  0  0  0  0  0  0  0  0  0  0
   12.9825   -3.2177    0.0000 H   0  0  0  0  0  0  0  0  0  0  0  0
   13.8528   -2.1010    0.0000 H   0  0  0  0  0  0  0  0  0  0  0  0
   13.3209   -0.7890    0.0000 H   0  0  0  0  0  0  0  0  0  0  0  0
   10.5280    3.6844    0.0000 H   0  0  0  0  0  0  0  0  0  0  0  0
   10.1268    2.9957    0.0000 H   0  0  0  0  0  0  0  0  0  0  0  0
   14.4944   -1.4504    0.0000 H   0  0  0  0  0  0  0  0  0  0  0  0
   14.7246   -0.6044    0.0000 H   0  0  0  0  0  0  0  0  0  0  0  0
   13.8786   -0.3742    0.0000 H   0  0  0  0  0  0  0  0  0  0  0  0
   12.9964    0.4023    0.0000 H   0  0  0  0  0  0  0  0  0  0  0  0
   13.0017    1.7823    0.0000 H   0  0  0  0  0  0  0  0  0  0  0  0
   10.7123   -3.5189    0.0000 H   0  0  0  0  0  0  0  0  0  0  0  0
   12.9786   -4.2177    0.0000 H   0  0  0  0  0  0  0  0  0  0  0  0
   14.7169   -2.6044    0.0000 H   0  0  0  0  0  0  0  0  0  0  0  0
   11.6082    4.2177    0.0000 H   0  0  0  0  0  0  0  0  0  0  0  0
    7.2169   -0.5228    0.0000 H   0  0  0  0  0  0  0  0  0  0  0  0
    8.6659    1.9648    0.0000 H   0  0  0  0  0  0  0  0  0  0  0  0
    4.5981   -0.2181    0.0000 H   0  0  0  0  0  0  0  0  0  0  0  0
    4.3860    2.2145    0.0000 H   0  0  0  0  0  0  0  0  0  0  0  0
    3.9875    1.5242    0.0000 H   0  0  0  0  0  0  0  0  0  0  0  0
    7.2169    2.7865    0.0000 H   0  0  0  0  0  0  0  0  0  0  0  0
    2.8660    1.2519    0.0000 H   0  0  0  0  0  0  0  0  0  0  0  0
    4.2690   -1.1781    0.0000 H   0  0  0  0  0  0  0  0  0  0  0  0
    1.4631    0.4419    0.0000 H   0  0  0  0  0  0  0  0  0  0  0  0
    2.8660   -1.9881    0.0000 H   0  0  0  0  0  0  0  0  0  0  0  0
    1.4631   -1.1781    0.0000 H   0  0  0  0  0  0  0  0  0  0  0  0
 13  1  1  1  0  0  0
 16  1  1  6  0  0  0
  2 17  1  0  0  0  0
  2 19  1  0  0  0  0
  3 16  1  0  0  0  0
  3 22  1  0  0  0  0
 17  4  1  6  0  0  0
  4 25  1  0  0  0  0
 14  5  1  6  0  0  0
  5 55  1  0  0  0  0
 15  6  1  1  0  0  0
  6 56  1  0  0  0  0
 18  7  1  1  0  0  0
  7 57  1  0  0  0  0
 20  8  1  1  0  0  0
  8 58  1  0  0  0  0
 21  9  1  6  0  0  0
  9 59  1  0  0  0  0
 10 23  1  0  0  0  0
 10 60  1  0  0  0  0
 11 28  1  0  0  0  0
 11 30  1  0  0  0  0
 12 33  2  0  0  0  0
 13 14  1  0  0  0  0
 13 17  1  0  0  0  0
 13 40  1  0  0  0  0
 14 15  1  0  0  0  0
 14 41  1  0  0  0  0
 15 19  1  0  0  0  0
 15 42  1  0  0  0  0
 16 18  1  0  0  0  0
 16 43  1  0  0  0  0
 17 44  1  0  0  0  0
 18 20  1  0  0  0  0
 18 45  1  0  0  0  0
 19 23  1  6  0  0  0
 19 46  1  0  0  0  0
 20 21  1  0  0  0  0
 20 47  1  0  0  0  0
 21 22  1  0  0  0  0
 21 48  1  0  0  0  0
 22 24  1  1  0  0  0
 22 49  1  0  0  0  0
 23 50  1  0  0  0  0
 23 51  1  0  0  0  0
 24 52  1  0  0  0  0
 24 53  1  0  0  0  0
 24 54  1  0  0  0  0
 25 26  2  0  0  0  0
 25 27  1  0  0  0  0
 26 28  1  0  0  0  0
 26 61  1  0  0  0  0
 27 31  2  0  0  0  0
 27 62  1  0  0  0  0
 28 29  2  0  0  0  0
 29 31  1  0  0  0  0
 29 33  1  0  0  0  0
 30 32  1  0  0  0  0
 30 34  1  0  0  0  0
 30 63  1  0  0  0  0
 31 66  1  0  0  0  0
 32 33  1  0  0  0  0
 32 64  1  0  0  0  0
 32 65  1  0  0  0  0
 34 35  2  0  0  0  0
 34 36  1  0  0  0  0
 35 37  1  0  0  0  0
 35 67  1  0  0  0  0
 36 38  2  0  0  0  0
 36 68  1  0  0  0  0
 37 39  2  0  0  0  0
 37 69  1  0  0  0  0
 38 39  1  0  0  0  0
 38 70  1  0  0  0  0
 39 71  1  0  0  0  0
M  END
> <PUBCHEM_COMPOUND_CID>
11954209

> <PUBCHEM_COMPOUND_CANONICALIZED>
1

> <PUBCHEM_CACTVS_COMPLEXITY>
823

> <PUBCHEM_CACTVS_HBOND_ACCEPTOR>
12

> <PUBCHEM_CACTVS_HBOND_DONOR>
6

> <PUBCHEM_CACTVS_ROTATABLE_BOND>
6

> <PUBCHEM_CACTVS_SUBSKEYS>
AAADcfB4PAAAAAAAAAAAAAAAAAAAAAAAAAA0aJECAAAAAACRQAAAGgAACAAADBSwmAMyDoAABgCIAqBSAAACCAAkIAAIiAEGCMgdNzaENRqieWCl4BUPqYfI7OzOIAAACAAIAABAAAAQABAAAAAAAAAAAA==

> <PUBCHEM_IUPAC_OPENEYE_NAME>
7-[(2S,3R,4S,5S,6R)-4,5-dihydroxy-6-(hydroxymethyl)-3-[(2S,3R,4R,5R,6S)-3,4,5-trihydroxy-6-methyl-tetrahydropyran-2-yl]oxy-tetrahydropyran-2-yl]oxy-2-phenyl-chroman-4-one

> <PUBCHEM_IUPAC_CAS_NAME>
7-[[(2S,3R,4S,5S,6R)-4,5-dihydroxy-6-(hydroxymethyl)-3-[[(2S,3R,4R,5R,6S)-3,4,5-trihydroxy-6-methyl-2-oxanyl]oxy]-2-oxanyl]oxy]-2-phenyl-3,4-dihydro-2H-1-benzopyran-4-one

> <PUBCHEM_IUPAC_NAME>
7-[(2S,3R,4S,5S,6R)-4,5-dihydroxy-6-(hydroxymethyl)-3-[(2S,3R,4R,5R,6S)-3,4,5-trihydroxy-6-methyloxan-2-yl]oxyoxan-2-yl]oxy-2-phenyl-2,3-dihydrochromen-4-one

> <PUBCHEM_IUPAC_SYSTEMATIC_NAME>
7-[(2S,3R,4S,5S,6R)-6-(hydroxymethyl)-3-[(2S,3R,4R,5R,6S)-6-methyl-3,4,5-tris(oxidanyl)oxan-2-yl]oxy-4,5-bis(oxidanyl)oxan-2-yl]oxy-2-phenyl-2,3-dihydrochromen-4-one

> <PUBCHEM_IUPAC_TRADITIONAL_NAME>
7-[(2S,3R,4S,5S,6R)-4,5-dihydroxy-6-methylol-3-[(2S,3R,4R,5R,6S)-3,4,5-trihydroxy-6-methyl-tetrahydropyran-2-yl]oxy-tetrahydropyran-2-yl]oxy-2-phenyl-chroman-4-one

> <PUBCHEM_IUPAC_INCHI>
InChI=1S/C27H32O12/c1-12-20(30)22(32)24(34)26(35-12)39-25-23(33)21(31)19(11-28)38-27(25)36-14-7-8-15-16(29)10-17(37-18(15)9-14)13-5-3-2-4-6-13/h2-9,12,17,19-28,30-34H,10-11H2,1H3/t12-,17?,19+,20-,21+,22+,23-,24+,25+,26-,27+/m0/s1

> <PUBCHEM_IUPAC_INCHIKEY>
NGCDNNXVUMHGTD-UJZKHPIGSA-N

> <PUBCHEM_XLOGP3_AA>
-0.3

> <PUBCHEM_EXACT_MASS>
548.189376

> <PUBCHEM_MOLECULAR_FORMULA>
C27H32O12

> <PUBCHEM_MOLECULAR_WEIGHT>
548.53578

> <PUBCHEM_OPENEYE_CAN_SMILES>
CC1C(C(C(C(O1)OC2C(C(C(OC2OC3=CC4=C(C=C3)C(=O)CC(O4)C5=CC=CC=C5)CO)O)O)O)O)O

> <PUBCHEM_OPENEYE_ISO_SMILES>
C[C@H]1[C@@H]([C@H]([C@H]([C@@H](O1)O[C@@H]2[C@H]([C@@H]([C@H](O[C@H]2OC3=CC4=C(C=C3)C(=O)CC(O4)C5=CC=CC=C5)CO)O)O)O)O)O

> <PUBCHEM_CACTVS_TPSA>
185

> <PUBCHEM_MONOISOTOPIC_WEIGHT>
548.189376

> <PUBCHEM_TOTAL_CHARGE>
0

> <PUBCHEM_HEAVY_ATOM_COUNT>
39

> <PUBCHEM_ATOM_DEF_STEREO_COUNT>
10

> <PUBCHEM_ATOM_UDEF_STEREO_COUNT>
1

> <PUBCHEM_BOND_DEF_STEREO_COUNT>
0

> <PUBCHEM_BOND_UDEF_STEREO_COUNT>
0

> <PUBCHEM_ISOTOPIC_ATOM_COUNT>
0

> <PUBCHEM_COMPONENT_COUNT>
1

> <PUBCHEM_CACTVS_TAUTO_COUNT>
2

> <PUBCHEM_COORDINATE_TYPE>
1
5
255

> <PUBCHEM_BONDANNOTATIONS>
13  1  5
16  1  6
19  23  6
22  24  5
25  26  8
25  27  8
26  28  8
27  31  8
28  29  8
29  31  8
30  63  3
34  35  8
34  36  8
35  37  8
36  38  8
37  39  8
38  39  8
17  4  6
14  5  6
15  6  5
18  7  5
20  8  5
21  9  6

$$$$

