10097
  -OEChem-06261204192D

 41 43  0     1  0  0  0  0  0999 V2000
    6.5792    1.6358    0.0000 Cl  0  0  0  0  0  0  0  0  0  0  0  0
    5.3536   -0.1977    0.0000 O   0  0  0  0  0  0  0  0  0  0  0  0
    4.5446   -3.7854    0.0000 O   0  0  0  0  0  0  0  0  0  0  0  0
    2.8084    0.1770    0.0000 O   0  0  0  0  0  0  0  0  0  0  0  0
    2.6937   -1.4591    0.0000 O   0  0  0  0  0  0  0  0  0  0  0  0
    2.5100    1.6358    0.0000 O   0  0  0  0  0  0  0  0  0  0  0  0
    5.5687    3.4175    0.0000 O   0  0  0  0  0  0  0  0  0  0  0  0
    4.5446   -0.7854    0.0000 C   0  0  3  0  0  0  0  0  0  0  0  0
    5.4106   -1.2854    0.0000 C   0  0  3  0  0  0  0  0  0  0  0  0
    5.4106   -2.2854    0.0000 C   0  0  0  0  0  0  0  0  0  0  0  0
    3.7356   -0.1977    0.0000 C   0  0  0  0  0  0  0  0  0  0  0  0
    3.6786   -1.2854    0.0000 C   0  0  0  0  0  0  0  0  0  0  0  0
    6.2766   -0.7854    0.0000 C   0  0  0  0  0  0  0  0  0  0  0  0
    4.0446    0.7534    0.0000 C   0  0  0  0  0  0  0  0  0  0  0  0
    4.5446   -2.7854    0.0000 C   0  0  0  0  0  0  0  0  0  0  0  0
    5.0446    0.7534    0.0000 C   0  0  0  0  0  0  0  0  0  0  0  0
    3.6786   -2.2854    0.0000 C   0  0  0  0  0  0  0  0  0  0  0  0
    3.5099    1.6473    0.0000 C   0  0  0  0  0  0  0  0  0  0  0  0
    5.5792    1.6473    0.0000 C   0  0  0  0  0  0  0  0  0  0  0  0
    4.0238    2.5534    0.0000 C   0  0  0  0  0  0  0  0  0  0  0  0
    5.0654    2.5534    0.0000 C   0  0  0  0  0  0  0  0  0  0  0  0
    5.4106   -4.2854    0.0000 C   0  0  0  0  0  0  0  0  0  0  0  0
    2.0000    2.4960    0.0000 C   0  0  0  0  0  0  0  0  0  0  0  0
    5.0721    4.2854    0.0000 C   0  0  0  0  0  0  0  0  0  0  0  0
    5.4106   -0.4354    0.0000 H   0  0  0  0  0  0  0  0  0  0  0  0
    5.6226   -2.8681    0.0000 H   0  0  0  0  0  0  0  0  0  0  0  0
    6.0212   -2.1778    0.0000 H   0  0  0  0  0  0  0  0  0  0  0  0
    6.5866   -1.3224    0.0000 H   0  0  0  0  0  0  0  0  0  0  0  0
    6.8136   -0.4754    0.0000 H   0  0  0  0  0  0  0  0  0  0  0  0
    5.9666   -0.2485    0.0000 H   0  0  0  0  0  0  0  0  0  0  0  0
    3.1416   -2.5954    0.0000 H   0  0  0  0  0  0  0  0  0  0  0  0
    3.7117    3.0891    0.0000 H   0  0  0  0  0  0  0  0  0  0  0  0
    5.1006   -4.8224    0.0000 H   0  0  0  0  0  0  0  0  0  0  0  0
    5.9475   -4.5954    0.0000 H   0  0  0  0  0  0  0  0  0  0  0  0
    5.7206   -3.7485    0.0000 H   0  0  0  0  0  0  0  0  0  0  0  0
    2.5333    2.8122    0.0000 H   0  0  0  0  0  0  0  0  0  0  0  0
    1.6838    3.0293    0.0000 H   0  0  0  0  0  0  0  0  0  0  0  0
    1.4667    2.1798    0.0000 H   0  0  0  0  0  0  0  0  0  0  0  0
    5.6102    4.5934    0.0000 H   0  0  0  0  0  0  0  0  0  0  0  0
    4.7641    4.8236    0.0000 H   0  0  0  0  0  0  0  0  0  0  0  0
    4.5339    3.9775    0.0000 H   0  0  0  0  0  0  0  0  0  0  0  0
  1 19  1  0  0  0  0
  2  8  1  0  0  0  0
  2 16  1  0  0  0  0
  3 15  1  0  0  0  0
  3 22  1  0  0  0  0
  4 11  2  0  0  0  0
  5 12  2  0  0  0  0
  6 18  1  0  0  0  0
  6 23  1  0  0  0  0
  7 21  1  0  0  0  0
  7 24  1  0  0  0  0
  8  9  1  0  0  0  0
  8 11  1  0  0  0  0
  8 12  1  0  0  0  0
  9 10  1  0  0  0  0
  9 13  1  0  0  0  0
  9 25  1  0  0  0  0
 10 15  1  0  0  0  0
 10 26  1  0  0  0  0
 10 27  1  0  0  0  0
 11 14  1  0  0  0  0
 12 17  1  0  0  0  0
 13 28  1  0  0  0  0
 13 29  1  0  0  0  0
 13 30  1  0  0  0  0
 14 16  2  0  0  0  0
 14 18  1  0  0  0  0
 15 17  2  0  0  0  0
 16 19  1  0  0  0  0
 17 31  1  0  0  0  0
 18 20  2  0  0  0  0
 19 21  2  0  0  0  0
 20 21  1  0  0  0  0
 20 32  1  0  0  0  0
 22 33  1  0  0  0  0
 22 34  1  0  0  0  0
 22 35  1  0  0  0  0
 23 36  1  0  0  0  0
 23 37  1  0  0  0  0
 23 38  1  0  0  0  0
 24 39  1  0  0  0  0
 24 40  1  0  0  0  0
 24 41  1  0  0  0  0
M  END
> <PUBCHEM_COMPOUND_CID>
10097

> <PUBCHEM_COMPOUND_CANONICALIZED>
1

> <PUBCHEM_CACTVS_COMPLEXITY>
575

> <PUBCHEM_CACTVS_HBOND_ACCEPTOR>
6

> <PUBCHEM_CACTVS_HBOND_DONOR>
0

> <PUBCHEM_CACTVS_ROTATABLE_BOND>
3

> <PUBCHEM_CACTVS_SUBSKEYS>
AAADceB4OAAEAAAAAAAAAAAAAAAAASAAAAAwQAAAAAAAAEgBAAAAGgIAAAAADUaAmCIyBoAABACIAqBSAAICCAAkJEAAiAFGC8gMJzeNNx6COWCl4BUIqQfI7PzOoCAAKAAICABAQABQABAQAAAAAAAAAA==

> <PUBCHEM_IUPAC_OPENEYE_NAME>
7-chloro-3',4,6-trimethoxy-5'-methyl-spiro[benzofuran-2,6'-cyclohex-2-ene]-1',3-dione

> <PUBCHEM_IUPAC_CAS_NAME>
7-chloro-3',4,6-trimethoxy-5'-methylspiro[benzofuran-2,6'-cyclohex-2-ene]-1',3-dione

> <PUBCHEM_IUPAC_NAME>
7-chloro-3',4,6-trimethoxy-5'-methylspiro[1-benzofuran-2,6'-cyclohex-2-ene]-1',3-dione

> <PUBCHEM_IUPAC_SYSTEMATIC_NAME>
7-chloranyl-3',4,6-trimethoxy-5'-methyl-spiro[1-benzofuran-2,6'-cyclohex-2-ene]-1',3-dione

> <PUBCHEM_IUPAC_TRADITIONAL_NAME>
7-chloro-3',4,6-trimethoxy-5'-methyl-spiro[coumaran-2,6'-cyclohex-2-ene]-1',3-quinone

> <PUBCHEM_IUPAC_INCHI>
InChI=1S/C17H17ClO6/c1-8-5-9(21-2)6-12(19)17(8)16(20)13-10(22-3)7-11(23-4)14(18)15(13)24-17/h6-8H,5H2,1-4H3

> <PUBCHEM_IUPAC_INCHIKEY>
FFKRWPQQTGWKIH-UHFFFAOYSA-N

> <PUBCHEM_XLOGP3>
2.7

> <PUBCHEM_EXACT_MASS>
352.071366

> <PUBCHEM_MOLECULAR_FORMULA>
C17H17ClO6

> <PUBCHEM_MOLECULAR_WEIGHT>
352.76628

> <PUBCHEM_OPENEYE_CAN_SMILES>
CC1CC(=CC(=O)C12C(=O)C3=C(O2)C(=C(C=C3OC)OC)Cl)OC

> <PUBCHEM_OPENEYE_ISO_SMILES>
CC1CC(=CC(=O)C12C(=O)C3=C(O2)C(=C(C=C3OC)OC)Cl)OC

> <PUBCHEM_CACTVS_TPSA>
71.1

> <PUBCHEM_MONOISOTOPIC_WEIGHT>
352.071366

> <PUBCHEM_TOTAL_CHARGE>
0

> <PUBCHEM_HEAVY_ATOM_COUNT>
24

> <PUBCHEM_ATOM_DEF_STEREO_COUNT>
0

> <PUBCHEM_ATOM_UDEF_STEREO_COUNT>
2

> <PUBCHEM_BOND_DEF_STEREO_COUNT>
0

> <PUBCHEM_BOND_UDEF_STEREO_COUNT>
0

> <PUBCHEM_ISOTOPIC_ATOM_COUNT>
0

> <PUBCHEM_COMPONENT_COUNT>
1

> <PUBCHEM_CACTVS_TAUTO_COUNT>
3

> <PUBCHEM_COORDINATE_TYPE>
1
5
255

> <PUBCHEM_BONDANNOTATIONS>
14  16  8
14  18  8
16  19  8
18  20  8
19  21  8
20  21  8
8  11  3
9  25  3

$$$$

