46173954
  -OEChem-07051213102D

 39 41  0     1  0  0  0  0  0999 V2000
    4.0488    1.5988    0.0000 O   0  0  0  0  0  0  0  0  0  0  0  0
    3.7104    0.9316    0.0000 O   0  0  0  0  0  0  0  0  0  0  0  0
    5.5161    0.0895    0.0000 C   0  0  3  0  0  0  0  0  0  0  0  0
    4.6501    0.5895    0.0000 C   0  0  3  0  0  0  0  0  0  0  0  0
    3.7401    0.0827    0.0000 C   0  0  3  0  0  0  0  0  0  0  0  0
    5.5322   -0.9520    0.0000 C   0  0  0  0  0  0  0  0  0  0  0  0
    6.3821    0.5895    0.0000 C   0  0  0  0  0  0  0  0  0  0  0  0
    3.7320   -0.9589    0.0000 C   0  0  3  0  0  0  0  0  0  0  0  0
    5.5161    2.0895    0.0000 C   0  0  3  0  0  0  0  0  0  0  0  0
    4.6501    1.5895    0.0000 C   0  0  0  0  0  0  0  0  0  0  0  0
    4.6341   -1.4797    0.0000 C   0  0  0  0  0  0  0  0  0  0  0  0
    6.3821    1.5895    0.0000 C   0  0  0  0  0  0  0  0  0  0  0  0
    6.3821   -0.4105    0.0000 C   0  0  0  0  0  0  0  0  0  0  0  0
    2.8641   -1.4556    0.0000 C   0  0  0  0  0  0  0  0  0  0  0  0
    4.1501    2.4556    0.0000 C   0  0  0  0  0  0  0  0  0  0  0  0
    2.8602   -2.4556    0.0000 C   0  0  0  0  0  0  0  0  0  0  0  0
    2.0000   -0.9522    0.0000 C   0  0  0  0  0  0  0  0  0  0  0  0
    3.1234    0.1472    0.0000 H   0  0  0  0  0  0  0  0  0  0  0  0
    5.7502   -1.5324    0.0000 H   0  0  0  0  0  0  0  0  0  0  0  0
    6.1413   -0.8365    0.0000 H   0  0  0  0  0  0  0  0  0  0  0  0
    6.5942    0.0069    0.0000 H   0  0  0  0  0  0  0  0  0  0  0  0
    6.9927    0.6972    0.0000 H   0  0  0  0  0  0  0  0  0  0  0  0
    3.7308   -1.5789    0.0000 H   0  0  0  0  0  0  0  0  0  0  0  0
    5.5783    2.7064    0.0000 H   0  0  0  0  0  0  0  0  0  0  0  0
    4.2368   -1.9557    0.0000 H   0  0  0  0  0  0  0  0  0  0  0  0
    5.0351   -1.9526    0.0000 H   0  0  0  0  0  0  0  0  0  0  0  0
    6.9927    1.4819    0.0000 H   0  0  0  0  0  0  0  0  0  0  0  0
    6.5942    2.1721    0.0000 H   0  0  0  0  0  0  0  0  0  0  0  0
    6.0721   -0.9474    0.0000 H   0  0  0  0  0  0  0  0  0  0  0  0
    6.9191   -0.7205    0.0000 H   0  0  0  0  0  0  0  0  0  0  0  0
    6.6921    0.1265    0.0000 H   0  0  0  0  0  0  0  0  0  0  0  0
    3.2354    0.5330    0.0000 H   0  0  0  0  0  0  0  0  0  0  0  0
    4.4601    2.9925    0.0000 H   0  0  0  0  0  0  0  0  0  0  0  0
    3.5301    2.4556    0.0000 H   0  0  0  0  0  0  0  0  0  0  0  0
    2.2402   -2.4532    0.0000 H   0  0  0  0  0  0  0  0  0  0  0  0
    2.8578   -3.0756    0.0000 H   0  0  0  0  0  0  0  0  0  0  0  0
    3.4802   -2.4580    0.0000 H   0  0  0  0  0  0  0  0  0  0  0  0
    2.0024   -0.3322    0.0000 H   0  0  0  0  0  0  0  0  0  0  0  0
    1.4619   -1.2602    0.0000 H   0  0  0  0  0  0  0  0  0  0  0  0
  1  5  1  0  0  0  0
  1  9  1  0  0  0  0
  2  4  1  0  0  0  0
  2 32  1  0  0  0  0
  3  4  1  0  0  0  0
  3  6  1  0  0  0  0
  3  7  1  0  0  0  0
  3 13  1  0  0  0  0
  4  5  1  0  0  0  0
  4 10  1  0  0  0  0
  5  8  1  0  0  0  0
  5 18  1  0  0  0  0
  6 11  1  0  0  0  0
  6 19  1  0  0  0  0
  6 20  1  0  0  0  0
  7 12  1  0  0  0  0
  7 21  1  0  0  0  0
  7 22  1  0  0  0  0
  8 11  1  0  0  0  0
  8 14  1  0  0  0  0
  8 23  1  0  0  0  0
  9 10  1  0  0  0  0
  9 12  1  0  0  0  0
  9 24  1  0  0  0  0
 10 15  2  0  0  0  0
 11 25  1  0  0  0  0
 11 26  1  0  0  0  0
 12 27  1  0  0  0  0
 12 28  1  0  0  0  0
 13 29  1  0  0  0  0
 13 30  1  0  0  0  0
 13 31  1  0  0  0  0
 14 16  1  0  0  0  0
 14 17  2  0  0  0  0
 15 33  1  0  0  0  0
 15 34  1  0  0  0  0
 16 35  1  0  0  0  0
 16 36  1  0  0  0  0
 16 37  1  0  0  0  0
 17 38  1  0  0  0  0
 17 39  1  0  0  0  0
M  END
> <PUBCHEM_COMPOUND_CID>
46173954

> <PUBCHEM_COMPOUND_CANONICALIZED>
1

> <PUBCHEM_CACTVS_COMPLEXITY>
400

> <PUBCHEM_CACTVS_HBOND_ACCEPTOR>
2

> <PUBCHEM_CACTVS_HBOND_DONOR>
1

> <PUBCHEM_CACTVS_ROTATABLE_BOND>
1

> <PUBCHEM_CACTVS_SUBSKEYS>
AAADceBwMAAAAAAAAAAAAAAAAAAAASAAAAAwYAAAAAAAAEgAAAAAGgAACAAAD1SggAICAAAABgCAAgBCAAAAAAAgAAAAAAAAAAgBBAIAIQACQAAFwAADMAGA4PwPgAAAAAAAAADAAAYQADCAAAAAAAAAAA==

> <PUBCHEM_IUPAC_INCHI>
InChI=1S/C15H22O2/c1-9(2)11-5-7-14(4)8-6-12-10(3)15(14,16)13(11)17-12/h11-13,16H,1,3,5-8H2,2,4H3

> <PUBCHEM_IUPAC_INCHIKEY>
IMIAOSAKRWYJIZ-UHFFFAOYSA-N

> <PUBCHEM_XLOGP3_AA>
2.3

> <PUBCHEM_EXACT_MASS>
234.16198

> <PUBCHEM_MOLECULAR_FORMULA>
C15H22O2

> <PUBCHEM_MOLECULAR_WEIGHT>
234.33398

> <PUBCHEM_OPENEYE_CAN_SMILES>
CC(=C)C1CCC2(CCC3C(=C)C2(C1O3)O)C

> <PUBCHEM_OPENEYE_ISO_SMILES>
CC(=C)C1CCC2(CCC3C(=C)C2(C1O3)O)C

> <PUBCHEM_CACTVS_TPSA>
29.5

> <PUBCHEM_MONOISOTOPIC_WEIGHT>
234.16198

> <PUBCHEM_TOTAL_CHARGE>
0

> <PUBCHEM_HEAVY_ATOM_COUNT>
17

> <PUBCHEM_ATOM_DEF_STEREO_COUNT>
0

> <PUBCHEM_ATOM_UDEF_STEREO_COUNT>
5

> <PUBCHEM_BOND_DEF_STEREO_COUNT>
0

> <PUBCHEM_BOND_UDEF_STEREO_COUNT>
0

> <PUBCHEM_ISOTOPIC_ATOM_COUNT>
0

> <PUBCHEM_COMPONENT_COUNT>
1

> <PUBCHEM_CACTVS_TAUTO_COUNT>
1

> <PUBCHEM_COORDINATE_TYPE>
1
5
255

> <PUBCHEM_BONDANNOTATIONS>
5  1  3
4  2  3
3  13  3
8  14  3
9  10  3

$$$$

