17396008
  -OEChem-06241222532D

 40 41  0     0  0  0  0  0  0999 V2000
    2.3344   -5.3100    0.0000 Cl  0  0  0  0  0  0  0  0  0  0  0  0
    4.1989    2.7785    0.0000 O   0  0  0  0  0  0  0  0  0  0  0  0
    4.3800    1.0559    0.0000 O   0  0  0  0  0  0  0  0  0  0  0  0
    2.6166    3.4830    0.0000 N   0  0  0  0  0  0  0  0  0  0  0  0
    2.7976    1.7604    0.0000 N   0  0  0  0  0  0  0  0  0  0  0  0
    3.5665   -0.7712    0.0000 N   0  0  0  0  0  0  0  0  0  0  0  0
    3.2575   -1.7222    0.0000 N   0  0  0  0  0  0  0  0  0  0  0  0
    4.5665   -0.7712    0.0000 N   0  0  0  0  0  0  0  0  0  0  0  0
    4.8755   -1.7222    0.0000 N   0  0  0  0  0  0  0  0  0  0  0  0
    3.0233    4.3965    0.0000 C   0  0  0  0  0  0  0  0  0  0  0  0
    3.4301    5.3100    0.0000 C   0  0  0  0  0  0  0  0  0  0  0  0
    2.1098    4.8032    0.0000 C   0  0  0  0  0  0  0  0  0  0  0  0
    3.9369    3.9898    0.0000 C   0  0  0  0  0  0  0  0  0  0  0  0
    3.2044    2.6739    0.0000 C   0  0  0  0  0  0  0  0  0  0  0  0
    2.9787    0.0378    0.0000 C   0  0  0  0  0  0  0  0  0  0  0  0
    3.3854    0.9514    0.0000 C   0  0  0  0  0  0  0  0  0  0  0  0
    4.0665   -3.3100    0.0000 C   0  0  0  0  0  0  0  0  0  0  0  0
    4.0665   -2.3100    0.0000 C   0  0  0  0  0  0  0  0  0  0  0  0
    3.2005   -3.8100    0.0000 C   0  0  0  0  0  0  0  0  0  0  0  0
    4.9325   -3.8100    0.0000 C   0  0  0  0  0  0  0  0  0  0  0  0
    3.2005   -4.8100    0.0000 C   0  0  0  0  0  0  0  0  0  0  0  0
    4.9325   -4.8100    0.0000 C   0  0  0  0  0  0  0  0  0  0  0  0
    4.0665   -5.3100    0.0000 C   0  0  0  0  0  0  0  0  0  0  0  0
    3.6847    3.4234    0.0000 H   0  0  0  0  0  0  0  0  0  0  0  0
    4.5033    3.7376    0.0000 H   0  0  0  0  0  0  0  0  0  0  0  0
    2.3620    5.3696    0.0000 H   0  0  0  0  0  0  0  0  0  0  0  0
    1.5434    5.0554    0.0000 H   0  0  0  0  0  0  0  0  0  0  0  0
    1.8576    4.2368    0.0000 H   0  0  0  0  0  0  0  0  0  0  0  0
    3.9965    5.0579    0.0000 H   0  0  0  0  0  0  0  0  0  0  0  0
    3.6822    5.8764    0.0000 H   0  0  0  0  0  0  0  0  0  0  0  0
    2.8637    5.5622    0.0000 H   0  0  0  0  0  0  0  0  0  0  0  0
    4.1891    4.5562    0.0000 H   0  0  0  0  0  0  0  0  0  0  0  0
    2.0000    3.4181    0.0000 H   0  0  0  0  0  0  0  0  0  0  0  0
    2.1810    1.6956    0.0000 H   0  0  0  0  0  0  0  0  0  0  0  0
    2.4647    0.3845    0.0000 H   0  0  0  0  0  0  0  0  0  0  0  0
    2.5480   -0.4082    0.0000 H   0  0  0  0  0  0  0  0  0  0  0  0
    2.6635   -3.5000    0.0000 H   0  0  0  0  0  0  0  0  0  0  0  0
    5.4694   -3.5000    0.0000 H   0  0  0  0  0  0  0  0  0  0  0  0
    5.4694   -5.1200    0.0000 H   0  0  0  0  0  0  0  0  0  0  0  0
    4.0665   -5.9300    0.0000 H   0  0  0  0  0  0  0  0  0  0  0  0
  1 21  1  0  0  0  0
  2 14  2  0  0  0  0
  3 16  2  0  0  0  0
  4 10  1  0  0  0  0
  4 14  1  0  0  0  0
  4 33  1  0  0  0  0
  5 14  1  0  0  0  0
  5 16  1  0  0  0  0
  5 34  1  0  0  0  0
  6  7  1  0  0  0  0
  6  8  1  0  0  0  0
  6 15  1  0  0  0  0
  7 18  2  0  0  0  0
  8  9  2  0  0  0  0
  9 18  1  0  0  0  0
 10 11  1  0  0  0  0
 10 12  1  0  0  0  0
 10 13  1  0  0  0  0
 11 29  1  0  0  0  0
 11 30  1  0  0  0  0
 11 31  1  0  0  0  0
 12 26  1  0  0  0  0
 12 27  1  0  0  0  0
 12 28  1  0  0  0  0
 13 24  1  0  0  0  0
 13 25  1  0  0  0  0
 13 32  1  0  0  0  0
 15 16  1  0  0  0  0
 15 35  1  0  0  0  0
 15 36  1  0  0  0  0
 17 18  1  0  0  0  0
 17 19  2  0  0  0  0
 17 20  1  0  0  0  0
 19 21  1  0  0  0  0
 19 37  1  0  0  0  0
 20 22  2  0  0  0  0
 20 38  1  0  0  0  0
 21 23  2  0  0  0  0
 22 23  1  0  0  0  0
 22 39  1  0  0  0  0
 23 40  1  0  0  0  0
M  END
> <PUBCHEM_COMPOUND_CID>
17396008

> <PUBCHEM_COMPOUND_CANONICALIZED>
1

> <PUBCHEM_CACTVS_COMPLEXITY>
442

> <PUBCHEM_CACTVS_HBOND_ACCEPTOR>
5

> <PUBCHEM_CACTVS_HBOND_DONOR>
2

> <PUBCHEM_CACTVS_ROTATABLE_BOND>
4

> <PUBCHEM_CACTVS_SUBSKEYS>
AAADceBzsAAEAAAAAAAAAAAAAAAAAWAAAAAwAAAAAAAAAAABwAAAHgIYAAAADIrBmyQzEIbAAACqAiNyMACSAAIghQAciCCgBpiIYKKBkxGQIABonSIIiAcQgAAOAAAAIAAAAAAAAABAAAAAAAAAAAAAAA==

> <PUBCHEM_IUPAC_OPENEYE_NAME>
N-(tert-butylcarbamoyl)-2-[5-(3-chlorophenyl)tetrazol-2-yl]acetamide

> <PUBCHEM_IUPAC_CAS_NAME>
N-[(tert-butylamino)-oxomethyl]-2-[5-(3-chlorophenyl)-2-tetrazolyl]acetamide

> <PUBCHEM_IUPAC_NAME>
N-(tert-butylcarbamoyl)-2-[5-(3-chlorophenyl)tetrazol-2-yl]acetamide

> <PUBCHEM_IUPAC_SYSTEMATIC_NAME>
N-(tert-butylcarbamoyl)-2-[5-(3-chlorophenyl)-1,2,3,4-tetrazol-2-yl]ethanamide

> <PUBCHEM_IUPAC_TRADITIONAL_NAME>
N-(tert-butylcarbamoyl)-2-[5-(3-chlorophenyl)tetrazol-2-yl]acetamide

> <PUBCHEM_IUPAC_INCHI>
InChI=1S/C14H17ClN6O2/c1-14(2,3)17-13(23)16-11(22)8-21-19-12(18-20-21)9-5-4-6-10(15)7-9/h4-7H,8H2,1-3H3,(H2,16,17,22,23)

> <PUBCHEM_IUPAC_INCHIKEY>
UJNBSXKJLYRPRB-UHFFFAOYSA-N

> <PUBCHEM_XLOGP3_AA>
3

> <PUBCHEM_EXACT_MASS>
336.110151

> <PUBCHEM_MOLECULAR_FORMULA>
C14H17ClN6O2

> <PUBCHEM_MOLECULAR_WEIGHT>
336.77678

> <PUBCHEM_OPENEYE_CAN_SMILES>
CC(C)(C)NC(=O)NC(=O)CN1N=C(N=N1)C2=CC(=CC=C2)Cl

> <PUBCHEM_OPENEYE_ISO_SMILES>
CC(C)(C)NC(=O)NC(=O)CN1N=C(N=N1)C2=CC(=CC=C2)Cl

> <PUBCHEM_CACTVS_TPSA>
102

> <PUBCHEM_MONOISOTOPIC_WEIGHT>
336.110151

> <PUBCHEM_TOTAL_CHARGE>
0

> <PUBCHEM_HEAVY_ATOM_COUNT>
23

> <PUBCHEM_ATOM_DEF_STEREO_COUNT>
0

> <PUBCHEM_ATOM_UDEF_STEREO_COUNT>
0

> <PUBCHEM_BOND_DEF_STEREO_COUNT>
0

> <PUBCHEM_BOND_UDEF_STEREO_COUNT>
0

> <PUBCHEM_ISOTOPIC_ATOM_COUNT>
0

> <PUBCHEM_COMPONENT_COUNT>
1

> <PUBCHEM_CACTVS_TAUTO_COUNT>
5

> <PUBCHEM_COORDINATE_TYPE>
1
5
255

> <PUBCHEM_BONDANNOTATIONS>
17  19  8
17  20  8
19  21  8
20  22  8
21  23  8
22  23  8
6  7  8
6  8  8
7  18  8
8  9  8
9  18  8

$$$$

