71593
  -OEChem-07051212472D

 18 19  0     0  0  0  0  0  0999 V2000
    4.6783    0.1497    0.0000 N   0  0  0  0  0  0  0  0  0  0  0  0
    4.6783   -1.4597    0.0000 N   0  0  0  0  0  0  0  0  0  0  0  0
    2.8660   -1.6550    0.0000 N   0  0  0  0  0  0  0  0  0  0  0  0
    2.0000   -0.1550    0.0000 N   0  0  0  0  0  0  0  0  0  0  0  0
    2.8660    1.3450    0.0000 N   0  0  0  0  0  0  0  0  0  0  0  0
    3.7320   -0.1550    0.0000 C   0  0  0  0  0  0  0  0  0  0  0  0
    3.7320   -1.1550    0.0000 C   0  0  0  0  0  0  0  0  0  0  0  0
    2.8660    0.3450    0.0000 C   0  0  0  0  0  0  0  0  0  0  0  0
    5.2619   -0.6550    0.0000 C   0  0  0  0  0  0  0  0  0  0  0  0
    4.9889    1.1002    0.0000 C   0  0  0  0  0  0  0  0  0  0  0  0
    2.0000   -1.1550    0.0000 C   0  0  0  0  0  0  0  0  0  0  0  0
    5.8819   -0.6550    0.0000 H   0  0  0  0  0  0  0  0  0  0  0  0
    5.5783    0.9076    0.0000 H   0  0  0  0  0  0  0  0  0  0  0  0
    5.1815    1.6896    0.0000 H   0  0  0  0  0  0  0  0  0  0  0  0
    4.3996    1.2929    0.0000 H   0  0  0  0  0  0  0  0  0  0  0  0
    1.4631   -1.4650    0.0000 H   0  0  0  0  0  0  0  0  0  0  0  0
    2.3291    1.6550    0.0000 H   0  0  0  0  0  0  0  0  0  0  0  0
    3.4030    1.6550    0.0000 H   0  0  0  0  0  0  0  0  0  0  0  0
  1  6  1  0  0  0  0
  1  9  1  0  0  0  0
  1 10  1  0  0  0  0
  2  7  1  0  0  0  0
  2  9  2  0  0  0  0
  3  7  1  0  0  0  0
  3 11  2  0  0  0  0
  4  8  2  0  0  0  0
  4 11  1  0  0  0  0
  5  8  1  0  0  0  0
  5 17  1  0  0  0  0
  5 18  1  0  0  0  0
  6  7  2  0  0  0  0
  6  8  1  0  0  0  0
  9 12  1  0  0  0  0
 10 13  1  0  0  0  0
 10 14  1  0  0  0  0
 10 15  1  0  0  0  0
 11 16  1  0  0  0  0
M  END
> <PUBCHEM_COMPOUND_CID>
71593

> <PUBCHEM_COMPOUND_CANONICALIZED>
1

> <PUBCHEM_CACTVS_COMPLEXITY>
150

> <PUBCHEM_CACTVS_HBOND_ACCEPTOR>
4

> <PUBCHEM_CACTVS_HBOND_DONOR>
1

> <PUBCHEM_CACTVS_ROTATABLE_BOND>
0

> <PUBCHEM_CACTVS_SUBSKEYS>
AAADcYBjgAAAAAAAAAAAAAAAAAAAAWAAAAAsAAAAAAAAAFgB+AAAHAAQAAAACAgBFwQH8L9MEACgAQZhZACAgC0REKABUCAoVBCASABASEAUBAgIAAJAACAAAAAAAAAAAAAAAAAAAAAAAAAAAAAAAAAAAA==

> <PUBCHEM_IUPAC_OPENEYE_NAME>
7-methylpurin-6-amine

> <PUBCHEM_IUPAC_CAS_NAME>
7-methyl-6-purinamine

> <PUBCHEM_IUPAC_NAME>
7-methylpurin-6-amine

> <PUBCHEM_IUPAC_SYSTEMATIC_NAME>
7-methylpurin-6-amine

> <PUBCHEM_IUPAC_TRADITIONAL_NAME>
(7-methylpurin-6-yl)amine

> <PUBCHEM_IUPAC_INCHI>
InChI=1S/C6H7N5/c1-11-3-10-6-4(11)5(7)8-2-9-6/h2-3H,1H3,(H2,7,8,9)

> <PUBCHEM_IUPAC_INCHIKEY>
HCGHYQLFMPXSDU-UHFFFAOYSA-N

> <PUBCHEM_XLOGP3>
0.1

> <PUBCHEM_EXACT_MASS>
149.070145

> <PUBCHEM_MOLECULAR_FORMULA>
C6H7N5

> <PUBCHEM_MOLECULAR_WEIGHT>
149.15328

> <PUBCHEM_OPENEYE_CAN_SMILES>
CN1C=NC2=C1C(=NC=N2)N

> <PUBCHEM_OPENEYE_ISO_SMILES>
CN1C=NC2=C1C(=NC=N2)N

> <PUBCHEM_CACTVS_TPSA>
69.6

> <PUBCHEM_MONOISOTOPIC_WEIGHT>
149.070145

> <PUBCHEM_TOTAL_CHARGE>
0

> <PUBCHEM_HEAVY_ATOM_COUNT>
11

> <PUBCHEM_ATOM_DEF_STEREO_COUNT>
0

> <PUBCHEM_ATOM_UDEF_STEREO_COUNT>
0

> <PUBCHEM_BOND_DEF_STEREO_COUNT>
0

> <PUBCHEM_BOND_UDEF_STEREO_COUNT>
0

> <PUBCHEM_ISOTOPIC_ATOM_COUNT>
0

> <PUBCHEM_COMPONENT_COUNT>
1

> <PUBCHEM_CACTVS_TAUTO_COUNT>
3

> <PUBCHEM_COORDINATE_TYPE>
1
5
255

> <PUBCHEM_BONDANNOTATIONS>
1  6  8
1  9  8
2  7  8
2  9  8
3  11  8
3  7  8
4  11  8
4  8  8
6  7  8
6  8  8

$$$$

