   Color/Form
        COLORLESS LIQUID
   from [1]HSDB

   Odor

     * Chloroform-like
     * Camphor-like

   from [2]HSDB

   Boiling Point
        162.0 deg C
   from [3]HSDB

   Melting Point
        -28.78 deg C
   from [4]HSDB

   Corrosivity
        Dry pentachloroethane does not corrode iron; if it is stored over
   longer periods of time, however, the addition of amine stabilizers is
   recommended.
   from [5]HSDB

   Density/Specific Gravity
        1.6796 at 20 deg C/4 deg C
   from [6]HSDB

   Heat of Vaporization
        36.9 kJ/mol at 159.8 deg C
   from [7]HSDB

   Octanol/Water Partition Coefficient
        log Kow = 3.22
   from [8]HSDB

   Solubilities

     * Miscible with ethanol, ether
     * Miscible in most common organic solvents
     * In water, 4.90X10+2 mg/L at 25 deg C

   from [9]HSDB

   Spectral Properties

     * Index of refraction = 1.5025 at 20 deg C/D
     * MASS: 22495 (NIST/EPA/MSDC Mass Spectral Database, 1990 Version)
     * IR: 178 (Sadtler Research Laboratories Prism Collection)
     * Raman: 1160 (Sadtler Research Laboratories spectral collection)

   from [10]HSDB

   Surface Tension
        3.47X10-2 N/m
   from [11]HSDB

   Vapor Density
        7.0 (Air = 1)
   from [12]HSDB

   Vapor Pressure
        3.50 mm Hg at 25 deg C
   from [13]HSDB

   Relative Evaporation Rate
        0.03 (ETHER = 1)
   from [14]HSDB

   Viscosity
        2.49X10-3 Pa-sec at 20 deg C
   from [15]HSDB

   Other Chemical/Physical Properties

     * Percent in saturated air = 0.45 at 25 deg C
     * Wt per gallon at 20 deg C = 14.00 lb; latent heat of vaporization
       at bp = 43.6 cal/g = 78.4 Btu/lb; acidity as HCl = 0.001% by wt,
       max; coefficient of cubical expansion Av/deg C, liquid = 0.0009097;
       solubility of water in solvent at 20 deg C = 0.24 g water/100 g
     * Henry's Law constant = 1.9X10-3 atm-cu m/mol at 25 deg C (est)
     * Hydroxyl radical reaction rate constant = 2.33X10-13 cu
       cm/molecule-sec at 25 deg C

   from [16]HSDB

   Computed Properties
   Molecular Weight                  202.29434 [g/mol]
   Molecular Formula                 C[2]HCl[5]
   XLogP3                            3.2
   H-Bond Donor                      0
   H-Bond Acceptor                   0
   Rotatable Bond Count              0
   Exact Mass                        201.849138
   MonoIsotopic Mass                 199.852088
   Topological Polar Surface Area    0
   Heavy Atom Count                  7
   Formal Charge                     0
   Complexity                        51.6
   Isotope Atom Count                0
   Defined Atom Stereocenter Count   0
   Undefined Atom Stereocenter Count 0
   Defined Bond Stereocenter Count   0
   Undefined Bond Stereocenter Count 0
   Covalently-Bonded Unit Count      1
   Effective Rotor Count             1
   Conformer Sampling RMSD           0.4
   CID Conformer Count               [17]1

References

   1. http://toxnet.nlm.nih.gov/cgi-bin/sis/search/r?dbs+hsdb:@term+@rn+@rel+76-01-7
   2. http://toxnet.nlm.nih.gov/cgi-bin/sis/search/r?dbs+hsdb:@term+@rn+@rel+76-01-7
   3. http://toxnet.nlm.nih.gov/cgi-bin/sis/search/r?dbs+hsdb:@term+@rn+@rel+76-01-7
   4. http://toxnet.nlm.nih.gov/cgi-bin/sis/search/r?dbs+hsdb:@term+@rn+@rel+76-01-7
   5. http://toxnet.nlm.nih.gov/cgi-bin/sis/search/r?dbs+hsdb:@term+@rn+@rel+76-01-7
   6. http://toxnet.nlm.nih.gov/cgi-bin/sis/search/r?dbs+hsdb:@term+@rn+@rel+76-01-7
   7. http://toxnet.nlm.nih.gov/cgi-bin/sis/search/r?dbs+hsdb:@term+@rn+@rel+76-01-7
   8. http://toxnet.nlm.nih.gov/cgi-bin/sis/search/r?dbs+hsdb:@term+@rn+@rel+76-01-7
   9. http://toxnet.nlm.nih.gov/cgi-bin/sis/search/r?dbs+hsdb:@term+@rn+@rel+76-01-7
  10. http://toxnet.nlm.nih.gov/cgi-bin/sis/search/r?dbs+hsdb:@term+@rn+@rel+76-01-7
  11. http://toxnet.nlm.nih.gov/cgi-bin/sis/search/r?dbs+hsdb:@term+@rn+@rel+76-01-7
  12. http://toxnet.nlm.nih.gov/cgi-bin/sis/search/r?dbs+hsdb:@term+@rn+@rel+76-01-7
  13. http://toxnet.nlm.nih.gov/cgi-bin/sis/search/r?dbs+hsdb:@term+@rn+@rel+76-01-7
  14. http://toxnet.nlm.nih.gov/cgi-bin/sis/search/r?dbs+hsdb:@term+@rn+@rel+76-01-7
  15. http://toxnet.nlm.nih.gov/cgi-bin/sis/search/r?dbs+hsdb:@term+@rn+@rel+76-01-7
  16. http://toxnet.nlm.nih.gov/cgi-bin/sis/search/r?dbs+hsdb:@term+@rn+@rel+76-01-7
  17. http://pubchem.ncbi.nlm.nih.gov/vw3d/vw3d.cgi?cid=6419
