   Color/Form

     * Clear, colorless liquid
     * Colorless, highly refractive, heavy volatile liquid.

   from [1]HSDB

   Odor

     * Pleasant, etheric, nonirritating
     * Pleasant odor.
     * Odor threshold: 205-307 ppm

   from [2]HSDB

   Taste
        Sweet taste
   from [3]HSDB

   Boiling Point
        61.17 deg C
   from [4]HSDB

   Melting Point
        -63.41 deg C
   from [5]HSDB

   Corrosivity
        Liquid chloroform will attack some forms of plastics, rubber, and
   coatings.
   from [6]HSDB

   Critical Temperature and Pressure
        Critical temperature: 506 deg F= 263.2 deg C= 536.4 K; Critical
   pressure: 790 psia= 54 atm= 5.5 Mn/sq m
   from [7]HSDB

   Density/Specific Gravity
        1.4888 g/cu m at 25 deg C
   from [8]HSDB

   Heat of Combustion
        Not pertinent
   from [9]HSDB

   Heat of Vaporization
        106.7 BTU/lb= 59.3 cal/g= 2.483X10+5 J/kg
   from [10]HSDB

   Octanol/Water Partition Coefficient
        log Kow = 1.97
   from [11]HSDB

   Solubilities

     * Sol in carbon disulfide
     * Miscible with alcohol, ether, benzene, carbon tetrachloride, fixed
       and volatile oils; highly soluble in water
     * In water, 7.95X10+3 mg/L at 25 deg C

   from [12]HSDB

   Spectral Properties

     * SADTLER REF NUMBER: 2224 (IR, PRISM)
     * Index of refraction: 1.4459 at 20 deg C/D
     * IR: 305 (Sadtler Research Laboratories IR Grating Collection)
     * Raman: 308 (Sadtler Research Laboratories Spectral Collection)
     * 1H NMR: 10513 (Sadtler Research Laboratories Spectral Collection)
     * 13C NMR: 128 (Stothers, 13-NMR Spectroscopy, Academic Press, New
       York))
     * MASS: 56415 (NIST/EPA/MSDC Mass Spectral Database, 1990 version);
       680 (Atlas of Mass Spectral Data, John Wiley & Sons, New York)
     * Intense mass spectral peaks: 83 m/z, 118 m/z

   from [13]HSDB

   Surface Tension
        27.1 dynes/cm = 0.0271 N/m at 20 deg C
   from [14]HSDB

   Vapor Density
        4.12 (Air= 1)
   from [15]HSDB

   Vapor Pressure
        197 mm Hg at 25 deg C
   from [16]HSDB

   Relative Evaporation Rate
        11.6 (butyl acetate= 1)
   from [17]HSDB

   Viscosity
        5.63 millipoises at 20 deg C; 5.10 millipoises at 30 deg C
   from [18]HSDB

   Other Chemical/Physical Properties

     * Liquid-Water Interfacial Tension: 32.8 dynes/cm= 0.0328 N/m at 20
       deg C
     * Ratio of specific heats of vapor: 1.146
     * Weight per gallon at 25 deg C: 12.29 lb
     * Partition coefficients at 25 deg C for chloroform into blood= 8.4;
       into oil= 394.
     * Ionization potential: 11.42 eV
     * Enthalpy of fusion: 9.5 kJ/mol
     * Heat capacity @ 20 deg C: 0.979 kJ/kg.K; critical density: 500
       kg/cu m; critical vol: 0.002 cu m/kg; thermal conductivity @ 20 deg
       C: 0.130 W/m.K; coefficient of cubical expansion: 0.001399;
       dielectric constant @ 20 deg C: 4.9; dipole moment: 3.84X10-30 C.m;
       heat of formation @ 25 deg C: -89.66 MJ/kg.mole (gas), -120.9
       MJ/kg.mole (liq); latent heat of evaporation @ bp: 247 kJ/kg
     * The azeotrope with water boils @ 56.1 deg C and contains 97.2%
       chloroform. The ternary azeotrope with ethanol and water boils @
       55.5 deg C and contains 4 mol% alcohol and 3.5 mol% water. At 25
       deg C, chloroform dissolves 3.59 times its volume of carbon
       dioxide.
     * Chloroform forms azeotropes with acetone, 2-bromopropane,
       2-butanone, ethanol, ethyl formate, formic acid, n-hexane,
       isopropanol, methanol, methyl acetate, and water.
     * Vapor pressure= 100 mm Hg @ 10.4 deg C
     * Henry's Law constant = 3.67X10-3 atm-cu m/mol at 24 deg C
     * Hydroxyl radical rate constant = 1.03X10-13 cu cm/molecule-sec at
       25 deg C

   from [19]HSDB

   Computed Properties
   Molecular Weight                  119.37764 [g/mol]
   Molecular Formula                 CHCl[3]
   XLogP3-AA                         2.3
   H-Bond Donor                      0
   H-Bond Acceptor                   0
   Rotatable Bond Count              0
   Exact Mass                        117.914383
   MonoIsotopic Mass                 117.914383
   Topological Polar Surface Area    0
   Heavy Atom Count                  4
   Formal Charge                     0
   Complexity                        8
   Isotope Atom Count                0
   Defined Atom Stereocenter Count   0
   Undefined Atom Stereocenter Count 0
   Defined Bond Stereocenter Count   0
   Undefined Bond Stereocenter Count 0
   Covalently-Bonded Unit Count      1
   Effective Rotor Count             0
   Conformer Sampling RMSD           0.4
   CID Conformer Count               [20]1

References

   1. http://toxnet.nlm.nih.gov/cgi-bin/sis/search/r?dbs+hsdb:@term+@rn+@rel+67-66-3
   2. http://toxnet.nlm.nih.gov/cgi-bin/sis/search/r?dbs+hsdb:@term+@rn+@rel+67-66-3
   3. http://toxnet.nlm.nih.gov/cgi-bin/sis/search/r?dbs+hsdb:@term+@rn+@rel+67-66-3
   4. http://toxnet.nlm.nih.gov/cgi-bin/sis/search/r?dbs+hsdb:@term+@rn+@rel+67-66-3
   5. http://toxnet.nlm.nih.gov/cgi-bin/sis/search/r?dbs+hsdb:@term+@rn+@rel+67-66-3
   6. http://toxnet.nlm.nih.gov/cgi-bin/sis/search/r?dbs+hsdb:@term+@rn+@rel+67-66-3
   7. http://toxnet.nlm.nih.gov/cgi-bin/sis/search/r?dbs+hsdb:@term+@rn+@rel+67-66-3
   8. http://toxnet.nlm.nih.gov/cgi-bin/sis/search/r?dbs+hsdb:@term+@rn+@rel+67-66-3
   9. http://toxnet.nlm.nih.gov/cgi-bin/sis/search/r?dbs+hsdb:@term+@rn+@rel+67-66-3
  10. http://toxnet.nlm.nih.gov/cgi-bin/sis/search/r?dbs+hsdb:@term+@rn+@rel+67-66-3
  11. http://toxnet.nlm.nih.gov/cgi-bin/sis/search/r?dbs+hsdb:@term+@rn+@rel+67-66-3
  12. http://toxnet.nlm.nih.gov/cgi-bin/sis/search/r?dbs+hsdb:@term+@rn+@rel+67-66-3
  13. http://toxnet.nlm.nih.gov/cgi-bin/sis/search/r?dbs+hsdb:@term+@rn+@rel+67-66-3
  14. http://toxnet.nlm.nih.gov/cgi-bin/sis/search/r?dbs+hsdb:@term+@rn+@rel+67-66-3
  15. http://toxnet.nlm.nih.gov/cgi-bin/sis/search/r?dbs+hsdb:@term+@rn+@rel+67-66-3
  16. http://toxnet.nlm.nih.gov/cgi-bin/sis/search/r?dbs+hsdb:@term+@rn+@rel+67-66-3
  17. http://toxnet.nlm.nih.gov/cgi-bin/sis/search/r?dbs+hsdb:@term+@rn+@rel+67-66-3
  18. http://toxnet.nlm.nih.gov/cgi-bin/sis/search/r?dbs+hsdb:@term+@rn+@rel+67-66-3
  19. http://toxnet.nlm.nih.gov/cgi-bin/sis/search/r?dbs+hsdb:@term+@rn+@rel+67-66-3
  20. http://pubchem.ncbi.nlm.nih.gov/vw3d/vw3d.cgi?cid=6212
