14200
  -OEChem-06241222422D

 41 44  0     0  0  0  0  0  0999 V2000
    8.1142   -0.8796    0.0000 S   0  0  0  0  0  0  0  0  0  0  0  0
    8.1142   -1.8796    0.0000 O   0  0  0  0  0  0  0  0  0  0  0  0
    7.1142   -0.8796    0.0000 O   0  0  0  0  0  0  0  0  0  0  0  0
    9.1142   -0.8796    0.0000 O   0  0  0  0  0  0  0  0  0  0  0  0
    5.5161   -1.3796    0.0000 O   0  0  0  0  0  0  0  0  0  0  0  0
    6.3821    0.1204    0.0000 N   0  0  0  0  0  0  0  0  0  0  0  0
    5.5161    0.6204    0.0000 N   0  0  0  0  0  0  0  0  0  0  0  0
    8.9802    0.6204    0.0000 C   0  0  0  0  0  0  0  0  0  0  0  0
    8.1142    0.1204    0.0000 C   0  0  0  0  0  0  0  0  0  0  0  0
    8.9802    1.6204    0.0000 C   0  0  0  0  0  0  0  0  0  0  0  0
    7.2482    0.6204    0.0000 C   0  0  0  0  0  0  0  0  0  0  0  0
    8.1142    2.1204    0.0000 C   0  0  0  0  0  0  0  0  0  0  0  0
    3.7841    0.6204    0.0000 C   0  0  0  0  0  0  0  0  0  0  0  0
    7.2482    1.6204    0.0000 C   0  0  0  0  0  0  0  0  0  0  0  0
    9.8742    0.0857    0.0000 C   0  0  0  0  0  0  0  0  0  0  0  0
    2.9180    0.1204    0.0000 C   0  0  0  0  0  0  0  0  0  0  0  0
    9.8742    2.1550    0.0000 C   0  0  0  0  0  0  0  0  0  0  0  0
    4.6501    0.1204    0.0000 C   0  0  0  0  0  0  0  0  0  0  0  0
   10.7802    0.5996    0.0000 C   0  0  0  0  0  0  0  0  0  0  0  0
   10.7802    1.6412    0.0000 C   0  0  0  0  0  0  0  0  0  0  0  0
    4.6501   -0.8796    0.0000 C   0  0  0  0  0  0  0  0  0  0  0  0
    2.9180   -0.8796    0.0000 C   0  0  0  0  0  0  0  0  0  0  0  0
    3.8001    1.6619    0.0000 C   0  0  0  0  0  0  0  0  0  0  0  0
    2.0080    0.6272    0.0000 C   0  0  0  0  0  0  0  0  0  0  0  0
    3.7841   -1.3796    0.0000 C   0  0  0  0  0  0  0  0  0  0  0  0
    2.9021    2.1896    0.0000 C   0  0  0  0  0  0  0  0  0  0  0  0
    2.0000    1.6688    0.0000 C   0  0  0  0  0  0  0  0  0  0  0  0
    8.1142    2.7404    0.0000 H   0  0  0  0  0  0  0  0  0  0  0  0
    6.7112    1.9304    0.0000 H   0  0  0  0  0  0  0  0  0  0  0  0
    9.8670   -0.5343    0.0000 H   0  0  0  0  0  0  0  0  0  0  0  0
    9.8670    2.7750    0.0000 H   0  0  0  0  0  0  0  0  0  0  0  0
   11.3160    0.2875    0.0000 H   0  0  0  0  0  0  0  0  0  0  0  0
   11.3160    1.9533    0.0000 H   0  0  0  0  0  0  0  0  0  0  0  0
    2.3811   -1.1896    0.0000 H   0  0  0  0  0  0  0  0  0  0  0  0
    4.3406    1.9656    0.0000 H   0  0  0  0  0  0  0  0  0  0  0  0
    1.4747    0.3110    0.0000 H   0  0  0  0  0  0  0  0  0  0  0  0
    3.7841   -1.9996    0.0000 H   0  0  0  0  0  0  0  0  0  0  0  0
    2.9045    2.8096    0.0000 H   0  0  0  0  0  0  0  0  0  0  0  0
    1.4619    1.9767    0.0000 H   0  0  0  0  0  0  0  0  0  0  0  0
    8.6511   -2.1896    0.0000 H   0  0  0  0  0  0  0  0  0  0  0  0
    5.5161   -1.9996    0.0000 H   0  0  0  0  0  0  0  0  0  0  0  0
  1  2  1  0  0  0  0
  1  3  2  0  0  0  0
  1  4  2  0  0  0  0
  1  9  1  0  0  0  0
  2 40  1  0  0  0  0
  5 21  1  0  0  0  0
  5 41  1  0  0  0  0
  6  7  2  0  0  0  0
  6 11  1  0  0  0  0
  7 18  1  0  0  0  0
  8  9  1  0  0  0  0
  8 10  1  0  0  0  0
  8 15  2  0  0  0  0
  9 11  2  0  0  0  0
 10 12  1  0  0  0  0
 10 17  2  0  0  0  0
 11 14  1  0  0  0  0
 12 14  2  0  0  0  0
 12 28  1  0  0  0  0
 13 16  1  0  0  0  0
 13 18  1  0  0  0  0
 13 23  2  0  0  0  0
 14 29  1  0  0  0  0
 15 19  1  0  0  0  0
 15 30  1  0  0  0  0
 16 22  1  0  0  0  0
 16 24  2  0  0  0  0
 17 20  1  0  0  0  0
 17 31  1  0  0  0  0
 18 21  2  0  0  0  0
 19 20  2  0  0  0  0
 19 32  1  0  0  0  0
 20 33  1  0  0  0  0
 21 25  1  0  0  0  0
 22 25  2  0  0  0  0
 22 34  1  0  0  0  0
 23 26  1  0  0  0  0
 23 35  1  0  0  0  0
 24 27  1  0  0  0  0
 24 36  1  0  0  0  0
 25 37  1  0  0  0  0
 26 27  2  0  0  0  0
 26 38  1  0  0  0  0
 27 39  1  0  0  0  0
M  END
> <PUBCHEM_COMPOUND_CID>
14200

> <PUBCHEM_COMPOUND_CANONICALIZED>
1

> <PUBCHEM_CACTVS_COMPLEXITY>
647

> <PUBCHEM_CACTVS_HBOND_ACCEPTOR>
6

> <PUBCHEM_CACTVS_HBOND_DONOR>
2

> <PUBCHEM_CACTVS_ROTATABLE_BOND>
3

> <PUBCHEM_CACTVS_SUBSKEYS>
AAADccB7OABAAAAAAAAAAAAAAAAAAAAAAAAwYMGAAAAAAADBVAAAHgQICAAADAyB2AAwx8AAAoKCAiRCQHDCAEAgIgAIiBQHbIgKJiKSkZOAcABkwBEI2AeQwLAOqAABwAAWEQBQAAOAACwiAAAAAAAAAA==

> <PUBCHEM_IUPAC_OPENEYE_NAME>
2-[(2-hydroxy-1-naphthyl)azo]naphthalene-1-sulfonic acid

> <PUBCHEM_IUPAC_CAS_NAME>
2-[(2-hydroxy-1-naphthalenyl)azo]-1-naphthalenesulfonic acid

> <PUBCHEM_IUPAC_NAME>
2-[(2-hydroxynaphthalen-1-yl)diazenyl]naphthalene-1-sulfonic acid

> <PUBCHEM_IUPAC_SYSTEMATIC_NAME>
2-[(2-oxidanylnaphthalen-1-yl)diazenyl]naphthalene-1-sulfonic acid

> <PUBCHEM_IUPAC_TRADITIONAL_NAME>
2-[(2-hydroxy-1-naphthyl)azo]naphthalene-1-sulfonic acid

> <PUBCHEM_IUPAC_INCHI>
InChI=1S/C20H14N2O4S/c23-18-12-10-13-5-1-3-7-15(13)19(18)22-21-17-11-9-14-6-2-4-8-16(14)20(17)27(24,25)26/h1-12,23H,(H,24,25,26)

> <PUBCHEM_IUPAC_INCHIKEY>
SRPCPRSDICCCRQ-UHFFFAOYSA-N

> <PUBCHEM_XLOGP3_AA>
4.6

> <PUBCHEM_EXACT_MASS>
378.067428

> <PUBCHEM_MOLECULAR_FORMULA>
C20H14N2O4S

> <PUBCHEM_MOLECULAR_WEIGHT>
378.40116

> <PUBCHEM_OPENEYE_CAN_SMILES>
C1=CC=C2C(=C1)C=CC(=C2N=NC3=C(C4=CC=CC=C4C=C3)S(=O)(=O)O)O

> <PUBCHEM_OPENEYE_ISO_SMILES>
C1=CC=C2C(=C1)C=CC(=C2N=NC3=C(C4=CC=CC=C4C=C3)S(=O)(=O)O)O

> <PUBCHEM_CACTVS_TPSA>
108

> <PUBCHEM_MONOISOTOPIC_WEIGHT>
378.067428

> <PUBCHEM_TOTAL_CHARGE>
0

> <PUBCHEM_HEAVY_ATOM_COUNT>
27

> <PUBCHEM_ATOM_DEF_STEREO_COUNT>
0

> <PUBCHEM_ATOM_UDEF_STEREO_COUNT>
0

> <PUBCHEM_BOND_DEF_STEREO_COUNT>
0

> <PUBCHEM_BOND_UDEF_STEREO_COUNT>
0

> <PUBCHEM_ISOTOPIC_ATOM_COUNT>
0

> <PUBCHEM_COMPONENT_COUNT>
1

> <PUBCHEM_CACTVS_TAUTO_COUNT>
3

> <PUBCHEM_COORDINATE_TYPE>
1
5
255

> <PUBCHEM_BONDANNOTATIONS>
10  12  8
10  17  8
11  14  8
12  14  8
13  16  8
13  18  8
13  23  8
15  19  8
16  22  8
16  24  8
17  20  8
18  21  8
19  20  8
21  25  8
22  25  8
23  26  8
24  27  8
26  27  8
8  10  8
8  15  8
8  9  8
9  11  8

$$$$

