10895555
  -OEChem-07051213152D

 84 87  0     1  0  0  0  0  0999 V2000
    2.5357   -3.3289    0.0000 O   0  0  0  0  0  0  0  0  0  0  0  0
   10.1362    0.6680    0.0000 O   0  0  0  0  0  0  0  0  0  0  0  0
    7.0628   -1.7766    0.0000 C   0  0  1  0  0  0  0  0  0  0  0  0
    7.9288   -1.2766    0.0000 C   0  0  1  0  0  0  0  0  0  0  0  0
    6.1968   -1.2766    0.0000 C   0  0  1  0  0  0  0  0  0  0  0  0
    5.2868   -1.7834    0.0000 C   0  0  2  0  0  0  0  0  0  0  0  0
    7.9288   -0.2766    0.0000 C   0  0  1  0  0  0  0  0  0  0  0  0
    5.2787   -2.8250    0.0000 C   0  0  1  0  0  0  0  0  0  0  0  0
    7.0789   -2.8181    0.0000 C   0  0  0  0  0  0  0  0  0  0  0  0
    6.1968   -0.2766    0.0000 C   0  0  0  0  0  0  0  0  0  0  0  0
    8.8750    0.0282    0.0000 C   0  0  2  0  0  0  0  0  0  0  0  0
    8.8750   -1.5813    0.0000 C   0  0  0  0  0  0  0  0  0  0  0  0
    7.0628    0.2234    0.0000 C   0  0  0  0  0  0  0  0  0  0  0  0
    6.1808   -3.3458    0.0000 C   0  0  0  0  0  0  0  0  0  0  0  0
    4.3433   -3.3747    0.0000 C   0  0  0  0  0  0  0  0  0  0  0  0
    9.4586   -0.7766    0.0000 C   0  0  0  0  0  0  0  0  0  0  0  0
    4.3599   -1.2193    0.0000 C   0  0  0  0  0  0  0  0  0  0  0  0
    7.7056   -2.5426    0.0000 C   0  0  0  0  0  0  0  0  0  0  0  0
    8.2709   -2.2162    0.0000 C   0  0  0  0  0  0  0  0  0  0  0  0
    5.2945   -0.7834    0.0000 C   0  0  0  0  0  0  0  0  0  0  0  0
    3.4037   -2.8322    0.0000 C   0  0  2  0  0  0  0  0  0  0  0  0
    9.1857    0.9787    0.0000 C   0  0  2  0  0  0  0  0  0  0  0  0
    3.4120   -1.7473    0.0000 C   0  0  0  0  0  0  0  0  0  0  0  0
    3.8467   -4.2427    0.0000 C   0  0  0  0  0  0  0  0  0  0  0  0
    4.8466   -4.2388    0.0000 C   0  0  0  0  0  0  0  0  0  0  0  0
    9.4964    1.9292    0.0000 C   0  0  0  0  0  0  0  0  0  0  0  0
    8.2352    1.2894    0.0000 C   0  0  0  0  0  0  0  0  0  0  0  0
   10.4749    2.1354    0.0000 C   0  0  0  0  0  0  0  0  0  0  0  0
   10.7855    3.0859    0.0000 C   0  0  0  0  0  0  0  0  0  0  0  0
   11.7640    3.2922    0.0000 C   0  0  0  0  0  0  0  0  0  0  0  0
   12.0747    4.2427    0.0000 C   0  0  0  0  0  0  0  0  0  0  0  0
   12.4319    2.5479    0.0000 C   0  0  0  0  0  0  0  0  0  0  0  0
    6.9329   -0.8516    0.0000 H   0  0  0  0  0  0  0  0  0  0  0  0
    8.0188    0.5687    0.0000 H   0  0  0  0  0  0  0  0  0  0  0  0
    5.2820   -3.6750    0.0000 H   0  0  0  0  0  0  0  0  0  0  0  0
    7.2969   -3.3985    0.0000 H   0  0  0  0  0  0  0  0  0  0  0  0
    7.6880   -2.7026    0.0000 H   0  0  0  0  0  0  0  0  0  0  0  0
    5.9847    0.3060    0.0000 H   0  0  0  0  0  0  0  0  0  0  0  0
    5.5862   -0.3842    0.0000 H   0  0  0  0  0  0  0  0  0  0  0  0
    9.7148    0.1600    0.0000 H   0  0  0  0  0  0  0  0  0  0  0  0
    8.6240   -2.1482    0.0000 H   0  0  0  0  0  0  0  0  0  0  0  0
    9.4124   -1.8905    0.0000 H   0  0  0  0  0  0  0  0  0  0  0  0
    7.4613    0.6984    0.0000 H   0  0  0  0  0  0  0  0  0  0  0  0
    6.6643    0.6984    0.0000 H   0  0  0  0  0  0  0  0  0  0  0  0
    5.7835   -3.8218    0.0000 H   0  0  0  0  0  0  0  0  0  0  0  0
    6.5818   -3.8187    0.0000 H   0  0  0  0  0  0  0  0  0  0  0  0
    9.9195   -1.1913    0.0000 H   0  0  0  0  0  0  0  0  0  0  0  0
    9.9195   -0.3618    0.0000 H   0  0  0  0  0  0  0  0  0  0  0  0
    4.7681   -0.7527    0.0000 H   0  0  0  0  0  0  0  0  0  0  0  0
    3.9700   -0.7373    0.0000 H   0  0  0  0  0  0  0  0  0  0  0  0
    7.2306   -2.9411    0.0000 H   0  0  0  0  0  0  0  0  0  0  0  0
    8.1041   -3.0176    0.0000 H   0  0  0  0  0  0  0  0  0  0  0  0
    8.1805   -2.1441    0.0000 H   0  0  0  0  0  0  0  0  0  0  0  0
    7.6884   -2.4283    0.0000 H   0  0  0  0  0  0  0  0  0  0  0  0
    8.4830   -2.7988    0.0000 H   0  0  0  0  0  0  0  0  0  0  0  0
    8.8535   -2.0041    0.0000 H   0  0  0  0  0  0  0  0  0  0  0  0
    5.9145   -0.7882    0.0000 H   0  0  0  0  0  0  0  0  0  0  0  0
    5.2993   -0.1635    0.0000 H   0  0  0  0  0  0  0  0  0  0  0  0
    4.6745   -0.7787    0.0000 H   0  0  0  0  0  0  0  0  0  0  0  0
    3.4025   -3.4522    0.0000 H   0  0  0  0  0  0  0  0  0  0  0  0
    3.2075   -1.1620    0.0000 H   0  0  0  0  0  0  0  0  0  0  0  0
    2.8004   -1.8487    0.0000 H   0  0  0  0  0  0  0  0  0  0  0  0
    4.3109   -4.5509    0.0000 H   0  0  0  0  0  0  0  0  0  0  0  0
    5.1587   -4.7746    0.0000 H   0  0  0  0  0  0  0  0  0  0  0  0
    5.3824   -3.9268    0.0000 H   0  0  0  0  0  0  0  0  0  0  0  0
    3.3085   -3.9348    0.0000 H   0  0  0  0  0  0  0  0  0  0  0  0
    3.5387   -4.7808    0.0000 H   0  0  0  0  0  0  0  0  0  0  0  0
    4.3848   -4.5506    0.0000 H   0  0  0  0  0  0  0  0  0  0  0  0
    9.4758    2.5489    0.0000 H   0  0  0  0  0  0  0  0  0  0  0  0
    8.8826    2.0166    0.0000 H   0  0  0  0  0  0  0  0  0  0  0  0
    8.4278    1.8787    0.0000 H   0  0  0  0  0  0  0  0  0  0  0  0
    7.6459    1.4820    0.0000 H   0  0  0  0  0  0  0  0  0  0  0  0
    8.0426    0.7000    0.0000 H   0  0  0  0  0  0  0  0  0  0  0  0
    2.0000   -3.0168    0.0000 H   0  0  0  0  0  0  0  0  0  0  0  0
   10.5977    1.0821    0.0000 H   0  0  0  0  0  0  0  0  0  0  0  0
   10.4954    1.5158    0.0000 H   0  0  0  0  0  0  0  0  0  0  0  0
   11.0887    2.0481    0.0000 H   0  0  0  0  0  0  0  0  0  0  0  0
   10.3715    3.5474    0.0000 H   0  0  0  0  0  0  0  0  0  0  0  0
   11.9704    2.1338    0.0000 H   0  0  0  0  0  0  0  0  0  0  0  0
   12.8459    2.0864    0.0000 H   0  0  0  0  0  0  0  0  0  0  0  0
   12.6640    4.0501    0.0000 H   0  0  0  0  0  0  0  0  0  0  0  0
   12.2673    4.8320    0.0000 H   0  0  0  0  0  0  0  0  0  0  0  0
   12.8933    2.9619    0.0000 H   0  0  0  0  0  0  0  0  0  0  0  0
   11.4854    4.4353    0.0000 H   0  0  0  0  0  0  0  0  0  0  0  0
 21  1  1  1  0  0  0
  1 74  1  0  0  0  0
 22  2  1  1  0  0  0
  2 75  1  0  0  0  0
  3  4  1  0  0  0  0
  3  5  1  0  0  0  0
  3  9  1  0  0  0  0
  3 18  1  1  0  0  0
  4  7  1  0  0  0  0
  4 12  1  0  0  0  0
  4 19  1  6  0  0  0
  5  6  1  0  0  0  0
  5 10  1  0  0  0  0
  5 33  1  6  0  0  0
  6  8  1  0  0  0  0
  6 17  1  0  0  0  0
  6 20  1  1  0  0  0
  7 11  1  0  0  0  0
  7 13  1  0  0  0  0
  7 34  1  1  0  0  0
  8 14  1  0  0  0  0
  8 15  1  0  0  0  0
  8 35  1  6  0  0  0
  9 14  1  0  0  0  0
  9 36  1  0  0  0  0
  9 37  1  0  0  0  0
 10 13  1  0  0  0  0
 10 38  1  0  0  0  0
 10 39  1  0  0  0  0
 11 16  1  0  0  0  0
 11 22  1  0  0  0  0
 11 40  1  6  0  0  0
 12 16  1  0  0  0  0
 12 41  1  0  0  0  0
 12 42  1  0  0  0  0
 13 43  1  0  0  0  0
 13 44  1  0  0  0  0
 14 45  1  0  0  0  0
 14 46  1  0  0  0  0
 15 21  1  0  0  0  0
 15 24  1  0  0  0  0
 15 25  1  0  0  0  0
 16 47  1  0  0  0  0
 16 48  1  0  0  0  0
 17 23  1  0  0  0  0
 17 49  1  0  0  0  0
 17 50  1  0  0  0  0
 18 51  1  0  0  0  0
 18 52  1  0  0  0  0
 18 53  1  0  0  0  0
 19 54  1  0  0  0  0
 19 55  1  0  0  0  0
 19 56  1  0  0  0  0
 20 57  1  0  0  0  0
 20 58  1  0  0  0  0
 20 59  1  0  0  0  0
 21 23  1  0  0  0  0
 21 60  1  0  0  0  0
 22 26  1  0  0  0  0
 22 27  1  0  0  0  0
 23 61  1  0  0  0  0
 23 62  1  0  0  0  0
 24 66  1  0  0  0  0
 24 67  1  0  0  0  0
 24 68  1  0  0  0  0
 25 63  1  0  0  0  0
 25 64  1  0  0  0  0
 25 65  1  0  0  0  0
 26 28  1  0  0  0  0
 26 69  1  0  0  0  0
 26 70  1  0  0  0  0
 27 71  1  0  0  0  0
 27 72  1  0  0  0  0
 27 73  1  0  0  0  0
 28 29  1  0  0  0  0
 28 76  1  0  0  0  0
 28 77  1  0  0  0  0
 29 30  2  0  0  0  0
 29 78  1  0  0  0  0
 30 31  1  0  0  0  0
 30 32  1  0  0  0  0
 31 81  1  0  0  0  0
 31 82  1  0  0  0  0
 31 84  1  0  0  0  0
 32 79  1  0  0  0  0
 32 80  1  0  0  0  0
 32 83  1  0  0  0  0
M  END
> <PUBCHEM_COMPOUND_CID>
10895555

> <PUBCHEM_COMPOUND_CANONICALIZED>
1

> <PUBCHEM_CACTVS_COMPLEXITY>
750

> <PUBCHEM_CACTVS_HBOND_ACCEPTOR>
2

> <PUBCHEM_CACTVS_HBOND_DONOR>
2

> <PUBCHEM_CACTVS_ROTATABLE_BOND>
4

> <PUBCHEM_CACTVS_SUBSKEYS>
AAADcfB4MAAAAAAAAAAAAAAAAAAAAYAAAAAwYMAAAAAAAGDAAAAAGgAACAAAD1SggAICAAAAAgCAAiBCAAAAAAAgAAAACAAAAAgAEAIAAQAAQAAEgAAIAAOAwPAPgAAAAAAAAADAAAYAADAAAQAACAAAAA==

> <PUBCHEM_IUPAC_OPENEYE_NAME>
(3S,5R,8R,9R,10R,13R,14R,17S)-17-[(1S)-1-hydroxy-1,5-dimethyl-hex-4-enyl]-4,4,8,10,14-pentamethyl-2,3,5,6,7,9,11,12,13,15,16,17-dodecahydro-1H-cyclopenta[a]phenanthren-3-ol

> <PUBCHEM_IUPAC_CAS_NAME>
(3S,5R,8R,9R,10R,13R,14R,17S)-17-[(2S)-2-hydroxy-6-methylhept-5-en-2-yl]-4,4,8,10,14-pentamethyl-2,3,5,6,7,9,11,12,13,15,16,17-dodecahydro-1H-cyclopenta[a]phenanthren-3-ol

> <PUBCHEM_IUPAC_NAME>
(3S,5R,8R,9R,10R,13R,14R,17S)-17-[(2S)-2-hydroxy-6-methylhept-5-en-2-yl]-4,4,8,10,14-pentamethyl-2,3,5,6,7,9,11,12,13,15,16,17-dodecahydro-1H-cyclopenta[a]phenanthren-3-ol

> <PUBCHEM_IUPAC_SYSTEMATIC_NAME>
(3S,5R,8R,9R,10R,13R,14R,17S)-4,4,8,10,14-pentamethyl-17-[(2S)-6-methyl-2-oxidanyl-hept-5-en-2-yl]-2,3,5,6,7,9,11,12,13,15,16,17-dodecahydro-1H-cyclopenta[a]phenanthren-3-ol

> <PUBCHEM_IUPAC_TRADITIONAL_NAME>
(3S,5R,8R,9R,10R,13R,14R,17S)-17-[(1S)-1-hydroxy-1,5-dimethyl-hex-4-enyl]-4,4,8,10,14-pentamethyl-2,3,5,6,7,9,11,12,13,15,16,17-dodecahydro-1H-cyclopenta[a]phenanthren-3-ol

> <PUBCHEM_IUPAC_INCHI>
InChI=1S/C30H52O2/c1-20(2)10-9-16-30(8,32)22-13-18-28(6)21(22)11-12-24-27(5)17-15-25(31)26(3,4)23(27)14-19-29(24,28)7/h10,21-25,31-32H,9,11-19H2,1-8H3/t21-,22+,23+,24-,25+,27+,28-,29-,30+/m1/s1

> <PUBCHEM_IUPAC_INCHIKEY>
NLHQJXWYMZLQJY-TXNIMPHESA-N

> <PUBCHEM_XLOGP3_AA>
8.5

> <PUBCHEM_EXACT_MASS>
444.396731

> <PUBCHEM_MOLECULAR_FORMULA>
C30H52O2

> <PUBCHEM_MOLECULAR_WEIGHT>
444.73268

> <PUBCHEM_OPENEYE_CAN_SMILES>
CC(=CCCC(C)(C1CCC2(C1CCC3C2(CCC4C3(CCC(C4(C)C)O)C)C)C)O)C

> <PUBCHEM_OPENEYE_ISO_SMILES>
CC(=CCC[C@@](C)([C@H]1CC[C@@]2([C@@H]1CC[C@H]3[C@]2(CC[C@@H]4[C@@]3(CC[C@@H](C4(C)C)O)C)C)C)O)C

> <PUBCHEM_CACTVS_TPSA>
40.5

> <PUBCHEM_MONOISOTOPIC_WEIGHT>
444.396731

> <PUBCHEM_TOTAL_CHARGE>
0

> <PUBCHEM_HEAVY_ATOM_COUNT>
32

> <PUBCHEM_ATOM_DEF_STEREO_COUNT>
9

> <PUBCHEM_ATOM_UDEF_STEREO_COUNT>
0

> <PUBCHEM_BOND_DEF_STEREO_COUNT>
0

> <PUBCHEM_BOND_UDEF_STEREO_COUNT>
0

> <PUBCHEM_ISOTOPIC_ATOM_COUNT>
0

> <PUBCHEM_COMPONENT_COUNT>
1

> <PUBCHEM_CACTVS_TAUTO_COUNT>
1

> <PUBCHEM_COORDINATE_TYPE>
1
5
255

> <PUBCHEM_BONDANNOTATIONS>
21  1  5
11  40  6
22  2  5
3  18  5
4  19  6
5  33  6
6  20  5
7  34  5
8  35  6

$$$$

