54731235
  -OEChem-07051213112D

 23 22  0     0  0  0  0  0  0999 V2000
    2.0000    1.3529    0.0000 O   0  0  0  0  0  0  0  0  0  0  0  0
    6.3301   -0.1471    0.0000 O   0  0  0  0  0  0  0  0  0  0  0  0
    2.4052   -1.7605    0.0000 O   0  0  0  0  0  0  0  0  0  0  0  0
    4.0328   -2.3529    0.0000 O   0  0  0  0  0  0  0  0  0  0  0  0
    3.7320    1.3529    0.0000 O   0  0  0  0  0  0  0  0  0  0  0  0
    6.7909   -1.7605    0.0000 O   0  0  0  0  0  0  0  0  0  0  0  0
    5.1634   -2.3529    0.0000 O   0  0  0  0  0  0  0  0  0  0  0  0
    3.7320   -0.6471    0.0000 C   0  0  0  0  0  0  0  0  0  0  0  0
    4.5981   -0.1471    0.0000 C   0  0  0  0  0  0  0  0  0  0  0  0
    2.8660   -0.1471    0.0000 C   0  0  0  0  0  0  0  0  0  0  0  0
    5.4641   -0.6471    0.0000 C   0  0  0  0  0  0  0  0  0  0  0  0
    3.3901   -1.5869    0.0000 C   0  0  0  0  0  0  0  0  0  0  0  0
    2.8660    0.8529    0.0000 C   0  0  0  0  0  0  0  0  0  0  0  0
    5.8062   -1.5868    0.0000 C   0  0  0  0  0  0  0  0  0  0  0  0
    2.0000    2.3529    0.0000 C   0  0  0  0  0  0  0  0  0  0  0  0
    4.5981    0.4729    0.0000 H   0  0  0  0  0  0  0  0  0  0  0  0
    2.3291   -0.4571    0.0000 H   0  0  0  0  0  0  0  0  0  0  0  0
    2.6200    2.3529    0.0000 H   0  0  0  0  0  0  0  0  0  0  0  0
    2.0000    2.9729    0.0000 H   0  0  0  0  0  0  0  0  0  0  0  0
    1.3800    2.3529    0.0000 H   0  0  0  0  0  0  0  0  0  0  0  0
    6.8671   -0.4571    0.0000 H   0  0  0  0  0  0  0  0  0  0  0  0
    2.1932   -2.3431    0.0000 H   0  0  0  0  0  0  0  0  0  0  0  0
    7.0030   -2.3431    0.0000 H   0  0  0  0  0  0  0  0  0  0  0  0
  1 13  1  0  0  0  0
  1 15  1  0  0  0  0
  2 11  1  0  0  0  0
  2 21  1  0  0  0  0
  3 12  1  0  0  0  0
  3 22  1  0  0  0  0
  4 12  2  0  0  0  0
  5 13  2  0  0  0  0
  6 14  1  0  0  0  0
  6 23  1  0  0  0  0
  7 14  2  0  0  0  0
  8  9  1  0  0  0  0
  8 10  2  0  0  0  0
  8 12  1  0  0  0  0
  9 11  2  0  0  0  0
  9 16  1  0  0  0  0
 10 13  1  0  0  0  0
 10 17  1  0  0  0  0
 11 14  1  0  0  0  0
 15 18  1  0  0  0  0
 15 19  1  0  0  0  0
 15 20  1  0  0  0  0
M  END
> <PUBCHEM_COMPOUND_CID>
54731235

> <PUBCHEM_COMPOUND_CANONICALIZED>
1

> <PUBCHEM_CACTVS_COMPLEXITY>
350

> <PUBCHEM_CACTVS_HBOND_ACCEPTOR>
7

> <PUBCHEM_CACTVS_HBOND_DONOR>
3

> <PUBCHEM_CACTVS_ROTATABLE_BOND>
5

> <PUBCHEM_CACTVS_SUBSKEYS>
AAADccBwOAAAAAAAAAAAAAAAAAAAAAAAAAAAAAAAAAAAAAAAAAAAGgAACAAADASAgAICCAAABgCIAiDSCAIAAAAgIAAACAFAAEgJBAAAIQAAUAAAQAAJsYIAAAAAAAAAAAAAAAAAAAAAAAAAAAAAAAAAAA==

> <PUBCHEM_IUPAC_OPENEYE_NAME>
(E,4E)-2-hydroxy-4-(2-methoxy-2-oxo-ethylidene)pent-2-enedioic acid

> <PUBCHEM_IUPAC_CAS_NAME>
(E,4E)-2-hydroxy-4-(2-methoxy-2-oxoethylidene)-2-pentenedioic acid

> <PUBCHEM_IUPAC_NAME>
(E,4E)-2-hydroxy-4-(2-methoxy-2-oxoethylidene)pent-2-enedioic acid

> <PUBCHEM_IUPAC_SYSTEMATIC_NAME>
(E,4E)-4-(2-methoxy-2-oxidanylidene-ethylidene)-2-oxidanyl-pent-2-enedioic acid

> <PUBCHEM_IUPAC_TRADITIONAL_NAME>
(E,4E)-2-hydroxy-4-(2-keto-2-methoxy-ethylidene)pent-2-enedioic acid

> <PUBCHEM_IUPAC_INCHI>
InChI=1S/C8H8O7/c1-15-6(10)3-4(7(11)12)2-5(9)8(13)14/h2-3,9H,1H3,(H,11,12)(H,13,14)/b4-3+,5-2+

> <PUBCHEM_IUPAC_INCHIKEY>
GMSSRLGBUSZBFV-JWVZGZSZSA-N

> <PUBCHEM_XLOGP3_AA>
-0.3

> <PUBCHEM_EXACT_MASS>
216.027003

> <PUBCHEM_MOLECULAR_FORMULA>
C8H8O7

> <PUBCHEM_MOLECULAR_WEIGHT>
216.14492

> <PUBCHEM_OPENEYE_CAN_SMILES>
COC(=O)C=C(C=C(C(=O)O)O)C(=O)O

> <PUBCHEM_OPENEYE_ISO_SMILES>
COC(=O)/C=C(\C=C(/C(=O)O)\O)/C(=O)O

> <PUBCHEM_CACTVS_TPSA>
121

> <PUBCHEM_MONOISOTOPIC_WEIGHT>
216.027003

> <PUBCHEM_TOTAL_CHARGE>
0

> <PUBCHEM_HEAVY_ATOM_COUNT>
15

> <PUBCHEM_ATOM_DEF_STEREO_COUNT>
0

> <PUBCHEM_ATOM_UDEF_STEREO_COUNT>
0

> <PUBCHEM_BOND_DEF_STEREO_COUNT>
2

> <PUBCHEM_BOND_UDEF_STEREO_COUNT>
0

> <PUBCHEM_ISOTOPIC_ATOM_COUNT>
0

> <PUBCHEM_COMPONENT_COUNT>
1

> <PUBCHEM_CACTVS_TAUTO_COUNT>
4

> <PUBCHEM_COORDINATE_TYPE>
1
5
255

$$$$

