439783
  -OEChem-07051212472D

 59 63  0     1  0  0  0  0  0999 V2000
    6.3194   -1.4080    0.0000 O   0  0  0  0  0  0  0  0  0  0  0  0
    5.9036   -3.3642    0.0000 O   0  0  0  0  0  0  0  0  0  0  0  0
    7.0625   -2.0771    0.0000 O   0  0  0  0  0  0  0  0  0  0  0  0
    6.4218    3.0823    0.0000 O   0  0  0  0  0  0  0  0  0  0  0  0
    2.6254   -1.1340    0.0000 N   0  0  3  0  0  0  0  0  0  0  0  0
    5.7049   -0.1334    0.0000 N   0  0  3  0  0  0  0  0  0  0  0  0
    4.1652   -0.6337    0.0000 C   0  0  1  0  0  0  0  0  0  0  0  0
    3.5397   -1.3283    0.0000 C   0  0  2  0  0  0  0  0  0  0  0  0
    5.0795   -0.8280    0.0000 C   0  0  2  0  0  0  0  0  0  0  0  0
    3.8286   -2.2173    0.0000 C   0  0  1  0  0  0  0  0  0  0  0  0
    5.3683   -1.7170    0.0000 C   0  0  1  0  0  0  0  0  0  0  0  0
    3.7801    0.4019    0.0000 C   0  0  0  0  0  0  0  0  0  0  0  0
    4.7429   -2.4116    0.0000 C   0  0  0  0  0  0  0  0  0  0  0  0
    4.5018    0.9499    0.0000 C   0  0  0  0  0  0  0  0  0  0  0  0
    2.3366   -0.2450    0.0000 C   0  0  0  0  0  0  0  0  0  0  0  0
    4.1376   -3.1683    0.0000 C   0  0  0  0  0  0  0  0  0  0  0  0
    5.4161    0.7556    0.0000 C   0  0  0  0  0  0  0  0  0  0  0  0
    3.2031   -2.9119    0.0000 C   0  0  0  0  0  0  0  0  0  0  0  0
    2.0000   -1.8286    0.0000 C   0  0  0  0  0  0  0  0  0  0  0  0
    2.2888   -2.7176    0.0000 C   0  0  0  0  0  0  0  0  0  0  0  0
    6.1115   -2.3861    0.0000 C   0  0  0  0  0  0  0  0  0  0  0  0
    4.2129    1.8389    0.0000 C   0  0  0  0  0  0  0  0  0  0  0  0
    6.6560    0.1756    0.0000 C   0  0  0  0  0  0  0  0  0  0  0  0
    3.4685   -3.9115    0.0000 C   0  0  0  0  0  0  0  0  0  0  0  0
    6.0415    1.4502    0.0000 C   0  0  0  0  0  0  0  0  0  0  0  0
    4.8384    2.5335    0.0000 C   0  0  0  0  0  0  0  0  0  0  0  0
    5.7527    2.3392    0.0000 C   0  0  0  0  0  0  0  0  0  0  0  0
    6.6467   -4.0334    0.0000 C   0  0  0  0  0  0  0  0  0  0  0  0
    6.1128    4.0334    0.0000 C   0  0  0  0  0  0  0  0  0  0  0  0
    3.2771   -0.5199    0.0000 H   0  0  0  0  0  0  0  0  0  0  0  0
    5.9109   -1.0047    0.0000 H   0  0  0  0  0  0  0  0  0  0  0  0
    4.3564    0.6306    0.0000 H   0  0  0  0  0  0  0  0  0  0  0  0
    3.5389    0.9731    0.0000 H   0  0  0  0  0  0  0  0  0  0  0  0
    4.5106   -2.9865    0.0000 H   0  0  0  0  0  0  0  0  0  0  0  0
    5.2687   -2.7402    0.0000 H   0  0  0  0  0  0  0  0  0  0  0  0
    2.1034    0.3295    0.0000 H   0  0  0  0  0  0  0  0  0  0  0  0
    1.7542   -0.4575    0.0000 H   0  0  0  0  0  0  0  0  0  0  0  0
    4.5193   -3.6569    0.0000 H   0  0  0  0  0  0  0  0  0  0  0  0
    4.6850   -2.8772    0.0000 H   0  0  0  0  0  0  0  0  0  0  0  0
    3.3947   -3.5016    0.0000 H   0  0  0  0  0  0  0  0  0  0  0  0
    1.6183   -1.3400    0.0000 H   0  0  0  0  0  0  0  0  0  0  0  0
    1.4526   -2.1197    0.0000 H   0  0  0  0  0  0  0  0  0  0  0  0
    1.8740   -3.1783    0.0000 H   0  0  0  0  0  0  0  0  0  0  0  0
    3.6065    1.9678    0.0000 H   0  0  0  0  0  0  0  0  0  0  0  0
    6.7342   -0.9472    0.0000 H   0  0  0  0  0  0  0  0  0  0  0  0
    6.8476   -0.4140    0.0000 H   0  0  0  0  0  0  0  0  0  0  0  0
    7.2456    0.3672    0.0000 H   0  0  0  0  0  0  0  0  0  0  0  0
    6.4644    0.7653    0.0000 H   0  0  0  0  0  0  0  0  0  0  0  0
    3.0077   -3.4966    0.0000 H   0  0  0  0  0  0  0  0  0  0  0  0
    3.0536   -4.3722    0.0000 H   0  0  0  0  0  0  0  0  0  0  0  0
    3.9292   -4.3263    0.0000 H   0  0  0  0  0  0  0  0  0  0  0  0
    6.6480    1.3213    0.0000 H   0  0  0  0  0  0  0  0  0  0  0  0
    4.6468    3.1232    0.0000 H   0  0  0  0  0  0  0  0  0  0  0  0
    6.2318   -4.4941    0.0000 H   0  0  0  0  0  0  0  0  0  0  0  0
    7.1074   -4.4482    0.0000 H   0  0  0  0  0  0  0  0  0  0  0  0
    7.0616   -3.5726    0.0000 H   0  0  0  0  0  0  0  0  0  0  0  0
    6.7025    4.2250    0.0000 H   0  0  0  0  0  0  0  0  0  0  0  0
    5.9212    4.6230    0.0000 H   0  0  0  0  0  0  0  0  0  0  0  0
    5.5232    3.8418    0.0000 H   0  0  0  0  0  0  0  0  0  0  0  0
 11  1  1  6  0  0  0
  1 45  1  0  0  0  0
  2 21  1  0  0  0  0
  2 28  1  0  0  0  0
  3 21  2  0  0  0  0
  4 27  1  0  0  0  0
  4 29  1  0  0  0  0
  5  8  1  0  0  0  0
  5 15  1  0  0  0  0
  5 19  1  0  0  0  0
  6  9  1  0  0  0  0
  6 17  1  0  0  0  0
  6 23  1  0  0  0  0
  7  8  1  0  0  0  0
  7  9  1  0  0  0  0
  7 12  1  6  0  0  0
  7 14  1  0  0  0  0
  8 10  1  0  0  0  0
  8 30  1  1  0  0  0
  9 11  1  0  0  0  0
  9 31  1  6  0  0  0
 10 13  1  0  0  0  0
 10 16  1  1  0  0  0
 10 18  1  0  0  0  0
 11 13  1  0  0  0  0
 11 21  1  0  0  0  0
 12 15  1  0  0  0  0
 12 32  1  0  0  0  0
 12 33  1  0  0  0  0
 13 34  1  0  0  0  0
 13 35  1  0  0  0  0
 14 17  2  0  0  0  0
 14 22  1  0  0  0  0
 15 36  1  0  0  0  0
 15 37  1  0  0  0  0
 16 24  1  0  0  0  0
 16 38  1  0  0  0  0
 16 39  1  0  0  0  0
 17 25  1  0  0  0  0
 18 20  2  0  0  0  0
 18 40  1  0  0  0  0
 19 20  1  0  0  0  0
 19 41  1  0  0  0  0
 19 42  1  0  0  0  0
 20 43  1  0  0  0  0
 22 26  2  0  0  0  0
 22 44  1  0  0  0  0
 23 46  1  0  0  0  0
 23 47  1  0  0  0  0
 23 48  1  0  0  0  0
 24 49  1  0  0  0  0
 24 50  1  0  0  0  0
 24 51  1  0  0  0  0
 25 27  2  0  0  0  0
 25 52  1  0  0  0  0
 26 27  1  0  0  0  0
 26 53  1  0  0  0  0
 28 54  1  0  0  0  0
 28 55  1  0  0  0  0
 28 56  1  0  0  0  0
 29 57  1  0  0  0  0
 29 58  1  0  0  0  0
 29 59  1  0  0  0  0
M  END
> <PUBCHEM_COMPOUND_CID>
439783

> <PUBCHEM_COMPOUND_CANONICALIZED>
1

> <PUBCHEM_CACTVS_COMPLEXITY>
728

> <PUBCHEM_CACTVS_HBOND_ACCEPTOR>
6

> <PUBCHEM_CACTVS_HBOND_DONOR>
1

> <PUBCHEM_CACTVS_ROTATABLE_BOND>
4

> <PUBCHEM_CACTVS_SUBSKEYS>
AAADceB7OAAAAAAAAAAAAAAAAAAAAWLAAAAwYIAAAAAAAFiBAAAAHgAACAAADmzBmAYyzoMABgCIAiTSSAKCCAAhIgAIiAFObIgPJjrE8ZuEcChmwBnb6Ae42fOfoAAAAgACAABQgAYECAQgAAAAAAAAAA==

> <PUBCHEM_IUPAC_INCHI>
InChI=1S/C23H30N2O4/c1-5-21-9-6-11-25-12-10-22(18(21)25)16-8-7-15(28-3)13-17(16)24(2)19(22)23(27,14-21)20(26)29-4/h6-9,13,18-19,27H,5,10-12,14H2,1-4H3/t18-,19+,21-,22+,23+/m0/s1

> <PUBCHEM_IUPAC_INCHIKEY>
WNKDGPXNFMMOEJ-RNJSZURPSA-N

> <PUBCHEM_XLOGP3_AA>
2.8

> <PUBCHEM_EXACT_MASS>
398.220557

> <PUBCHEM_MOLECULAR_FORMULA>
C23H30N2O4

> <PUBCHEM_MOLECULAR_WEIGHT>
398.4953

> <PUBCHEM_OPENEYE_CAN_SMILES>
CCC12CC(C3C4(C1N(CC4)CC=C2)C5=C(N3C)C=C(C=C5)OC)(C(=O)OC)O

> <PUBCHEM_OPENEYE_ISO_SMILES>
CC[C@]12C[C@@]([C@H]3[C@@]4([C@H]1N(CC4)CC=C2)C5=C(N3C)C=C(C=C5)OC)(C(=O)OC)O

> <PUBCHEM_CACTVS_TPSA>
62.2

> <PUBCHEM_MONOISOTOPIC_WEIGHT>
398.220557

> <PUBCHEM_TOTAL_CHARGE>
0

> <PUBCHEM_HEAVY_ATOM_COUNT>
29

> <PUBCHEM_ATOM_DEF_STEREO_COUNT>
5

> <PUBCHEM_ATOM_UDEF_STEREO_COUNT>
0

> <PUBCHEM_BOND_DEF_STEREO_COUNT>
0

> <PUBCHEM_BOND_UDEF_STEREO_COUNT>
0

> <PUBCHEM_ISOTOPIC_ATOM_COUNT>
0

> <PUBCHEM_COMPONENT_COUNT>
1

> <PUBCHEM_CACTVS_TAUTO_COUNT>
1

> <PUBCHEM_COORDINATE_TYPE>
1
5
255

> <PUBCHEM_BONDANNOTATIONS>
11  1  6
10  16  5
14  17  8
14  22  8
17  25  8
22  26  8
25  27  8
26  27  8
7  12  6
8  30  5
9  31  6

$$$$

