439395
  -OEChem-07051212452D

 30 30  0     1  0  0  0  0  0999 V2000
    4.3287    0.7329    0.0000 P   0  0  3  0  0  0  0  0  0  0  0  0
    3.1697    2.0200    0.0000 P   0  0  0  0  0  0  0  0  0  0  0  0
    7.2478   -0.2755    0.0000 O   0  0  0  0  0  0  0  0  0  0  0  0
    6.1600   -2.6234    0.0000 O   0  0  0  0  0  0  0  0  0  0  0  0
    8.3355   -2.6234    0.0000 O   0  0  0  0  0  0  0  0  0  0  0  0
    5.2798    0.4239    0.0000 O   0  0  0  0  0  0  0  0  0  0  0  0
    9.0078   -0.5543    0.0000 O   0  0  0  0  0  0  0  0  0  0  0  0
    3.3776    1.0419    0.0000 O   0  0  0  0  0  0  0  0  0  0  0  0
    4.6377    1.6839    0.0000 O   0  0  0  0  0  0  0  0  0  0  0  0
    4.0197   -0.2182    0.0000 O   0  0  0  0  0  0  0  0  0  0  0  0
    2.9618    2.9982    0.0000 O   0  0  0  0  0  0  0  0  0  0  0  0
    2.1916    1.8121    0.0000 O   0  0  0  0  0  0  0  0  0  0  0  0
    4.1479    2.2280    0.0000 O   0  0  0  0  0  0  0  0  0  0  0  0
    6.7478   -1.8144    0.0000 C   0  0  2  0  0  0  0  0  0  0  0  0
    6.4387   -0.8633    0.0000 C   0  0  1  0  0  0  0  0  0  0  0  0
    7.7478   -1.8144    0.0000 C   0  0  2  0  0  0  0  0  0  0  0  0
    8.0568   -0.8633    0.0000 C   0  0  1  0  0  0  0  0  0  0  0  0
    5.4877   -0.5543    0.0000 C   0  0  0  0  0  0  0  0  0  0  0  0
    6.3417   -0.2509    0.0000 H   0  0  0  0  0  0  0  0  0  0  0  0
    6.1354   -1.7174    0.0000 H   0  0  0  0  0  0  0  0  0  0  0  0
    8.3601   -1.7174    0.0000 H   0  0  0  0  0  0  0  0  0  0  0  0
    8.1538   -0.2509    0.0000 H   0  0  0  0  0  0  0  0  0  0  0  0
    4.8680   -0.5759    0.0000 H   0  0  0  0  0  0  0  0  0  0  0  0
    5.4014   -1.1683    0.0000 H   0  0  0  0  0  0  0  0  0  0  0  0
    6.4121   -3.1898    0.0000 H   0  0  0  0  0  0  0  0  0  0  0  0
    8.9521   -2.5586    0.0000 H   0  0  0  0  0  0  0  0  0  0  0  0
    9.1367    0.0522    0.0000 H   0  0  0  0  0  0  0  0  0  0  0  0
    5.2442    1.8128    0.0000 H   0  0  0  0  0  0  0  0  0  0  0  0
    2.3722    3.1898    0.0000 H   0  0  0  0  0  0  0  0  0  0  0  0
    2.0000    1.2225    0.0000 H   0  0  0  0  0  0  0  0  0  0  0  0
  1  6  1  0  0  0  0
  1  8  1  0  0  0  0
  1  9  1  0  0  0  0
  1 10  2  0  0  0  0
  2  8  1  0  0  0  0
  2 11  1  0  0  0  0
  2 12  1  0  0  0  0
  2 13  2  0  0  0  0
  3 15  1  0  0  0  0
  3 17  1  0  0  0  0
 14  4  1  6  0  0  0
  4 25  1  0  0  0  0
 16  5  1  6  0  0  0
  5 26  1  0  0  0  0
  6 18  1  0  0  0  0
 17  7  1  1  0  0  0
  7 27  1  0  0  0  0
  9 28  1  0  0  0  0
 11 29  1  0  0  0  0
 12 30  1  0  0  0  0
 14 15  1  0  0  0  0
 14 16  1  0  0  0  0
 14 20  1  0  0  0  0
 15 18  1  1  0  0  0
 15 19  1  0  0  0  0
 16 17  1  0  0  0  0
 16 21  1  0  0  0  0
 17 22  1  0  0  0  0
 18 23  1  0  0  0  0
 18 24  1  0  0  0  0
M  END
> <PUBCHEM_COMPOUND_CID>
439395

> <PUBCHEM_COMPOUND_CANONICALIZED>
1

> <PUBCHEM_CACTVS_COMPLEXITY>
378

> <PUBCHEM_CACTVS_HBOND_ACCEPTOR>
11

> <PUBCHEM_CACTVS_HBOND_DONOR>
6

> <PUBCHEM_CACTVS_ROTATABLE_BOND>
5

> <PUBCHEM_CACTVS_SUBSKEYS>
AAADccBgPAMAAAAAAAAAAAAAAAAAASAAAAAAAAAAAAAAAAAAAAAAGgAACCAACBSwgAMACAAABxAAQAAAAIAAAAAAAAAAAAAAAAAREAIAAAACQAAFAAAHAADAIAAAAAAAAAAAAAAAAAAAAAAAAAAAAAAAAA==

> <PUBCHEM_IUPAC_OPENEYE_NAME>
phosphono [(2R,3S,4R,5R)-3,4,5-trihydroxytetrahydrofuran-2-yl]methyl hydrogen phosphate

> <PUBCHEM_IUPAC_CAS_NAME>
phosphono [(2R,3S,4R,5R)-3,4,5-trihydroxy-2-oxolanyl]methyl hydrogen phosphate

> <PUBCHEM_IUPAC_NAME>
phosphono [(2R,3S,4R,5R)-3,4,5-trihydroxyoxolan-2-yl]methyl hydrogen phosphate

> <PUBCHEM_IUPAC_SYSTEMATIC_NAME>
phosphono [(2R,3S,4R,5R)-3,4,5-tris(oxidanyl)oxolan-2-yl]methyl hydrogen phosphate

> <PUBCHEM_IUPAC_TRADITIONAL_NAME>
phosphono [(2R,3S,4R,5R)-3,4,5-trihydroxytetrahydrofuran-2-yl]methyl hydrogen phosphate

> <PUBCHEM_IUPAC_INCHI>
InChI=1S/C5H12O11P2/c6-3-2(15-5(8)4(3)7)1-14-18(12,13)16-17(9,10)11/h2-8H,1H2,(H,12,13)(H2,9,10,11)/t2-,3-,4-,5-/m1/s1

> <PUBCHEM_IUPAC_INCHIKEY>
NSCLVINFVJKEKF-TXICZTDVSA-N

> <PUBCHEM_XLOGP3_AA>
-4.7

> <PUBCHEM_EXACT_MASS>
309.985484

> <PUBCHEM_MOLECULAR_FORMULA>
C5H12O11P2

> <PUBCHEM_MOLECULAR_WEIGHT>
310.089704

> <PUBCHEM_OPENEYE_CAN_SMILES>
C(C1C(C(C(O1)O)O)O)OP(=O)(O)OP(=O)(O)O

> <PUBCHEM_OPENEYE_ISO_SMILES>
C([C@@H]1[C@H]([C@H]([C@@H](O1)O)O)O)OP(=O)(O)OP(=O)(O)O

> <PUBCHEM_CACTVS_TPSA>
183

> <PUBCHEM_MONOISOTOPIC_WEIGHT>
309.985484

> <PUBCHEM_TOTAL_CHARGE>
0

> <PUBCHEM_HEAVY_ATOM_COUNT>
18

> <PUBCHEM_ATOM_DEF_STEREO_COUNT>
4

> <PUBCHEM_ATOM_UDEF_STEREO_COUNT>
0

> <PUBCHEM_BOND_DEF_STEREO_COUNT>
0

> <PUBCHEM_BOND_UDEF_STEREO_COUNT>
0

> <PUBCHEM_ISOTOPIC_ATOM_COUNT>
0

> <PUBCHEM_COMPONENT_COUNT>
1

> <PUBCHEM_CACTVS_TAUTO_COUNT>
1

> <PUBCHEM_COORDINATE_TYPE>
1
5
255

> <PUBCHEM_BONDANNOTATIONS>
15  18  5
14  4  6
16  5  6
17  7  5

$$$$

