   Color/Form

     * CRYSTALS FROM ALCOHOL, BENZENE, TOLUENE, GLACIAL ACETIC ACID
     * WHITE CRYSTALS
     * PLATES OR LEAVES

   from [1]HSDB

   Boiling Point
        355 DEG C
   from [2]HSDB

   Melting Point
        245 DEG C
   from [3]HSDB

   Density/Specific Gravity
        1.10 @ 18 DEG C/4 DEG C
   from [4]HSDB

   pH
        EXTREMELY WEAK BASE
   from [5]HSDB

   Solubilities

     * 1 G SOL IN 3 ML QUINOLINE, 6 ML PYRIDINE, 9 ML ACETONE, 2 ML
       ACETONE @ 50 DEG C, 35 ML ETHER, 120 ML BENZENE, 135 ML ABSOLUTE
       ALCOHOL; SLIGHTLY SOL IN PETROLEUM ETHER, CHLORINATED HYDROCARBONS,
       ACETIC ACID; INSOL IN WATER; DISSOLVES IN CONCN SULFURIC ACID
       WITHOUT DECOMP
     * SLIGHTLY SOL IN PYRIMIDINE, CARBON DISULFIDE; SOL IN HOT
       CHLOROFORM, TOLUENE

   from [6]HSDB

   Spectral Properties

     * SADTLER REFERENCE NUMBER: 1311 (IR, PRISM); 237 (IR , GRATING);
       13550 (UV)
     * Intense mass spectral peaks: 167 m/z (100%), 166 m/z (14%), 44 m/z
       (13%), 168 m/z (12%)
     * IR: 237 (Sadtler Research Laboratories IR Grating Collection)
     * UV: 13550 (Sadtler Research Laboratories Spectral Collection)
     * NMR: 6688 (Sadtler Research Laboratories Spectral Collection)
     * MASS: 52 (National Bureau of Standards EPA-NIH Mass Spectra Data
       Base, NSRDS-NBS-63)

   from [7]HSDB

   Vapor Pressure
        1.37X10-6 mm Hg at 25 deg C (est)
   from [8]HSDB

   Other Chemical/Physical Properties

     * EXHIBITS STRONG FLUORESCENCE & LONG PHOSPHORESCENCE ON EXPOSURE TO
       UV LIGHT
     * SUBLIMES
     * POTASSIUM HYDROXIDE FUSION YIELDS N-POTASSIUM SALT
     * Henry's Law constant: 8.65X10-8 atm-cu m/mole at 25 deg C (est)

   from [9]HSDB

   Computed Properties
   Molecular Weight                  167.20656 [g/mol]
   Molecular Formula                 C[12]H[9]N
   XLogP3                            3.7
   H-Bond Donor                      1
   H-Bond Acceptor                   0
   Rotatable Bond Count              0
   Exact Mass                        167.073499
   MonoIsotopic Mass                 167.073499
   Topological Polar Surface Area    15.8
   Heavy Atom Count                  13
   Formal Charge                     0
   Complexity                        170
   Isotope Atom Count                0
   Defined Atom Stereocenter Count   0
   Undefined Atom Stereocenter Count 0
   Defined Bond Stereocenter Count   0
   Undefined Bond Stereocenter Count 0
   Covalently-Bonded Unit Count      1
   Feature 3D Donor Count            1
   Feature 3D Cation Count           1
   Feature 3D Ring Count             3
   Effective Rotor Count             0
   Conformer Sampling RMSD           0.4
   CID Conformer Count               [10]1

References

   1. http://toxnet.nlm.nih.gov/cgi-bin/sis/search/r?dbs+hsdb:@term+@rn+@rel+86-74-8
   2. http://toxnet.nlm.nih.gov/cgi-bin/sis/search/r?dbs+hsdb:@term+@rn+@rel+86-74-8
   3. http://toxnet.nlm.nih.gov/cgi-bin/sis/search/r?dbs+hsdb:@term+@rn+@rel+86-74-8
   4. http://toxnet.nlm.nih.gov/cgi-bin/sis/search/r?dbs+hsdb:@term+@rn+@rel+86-74-8
   5. http://toxnet.nlm.nih.gov/cgi-bin/sis/search/r?dbs+hsdb:@term+@rn+@rel+86-74-8
   6. http://toxnet.nlm.nih.gov/cgi-bin/sis/search/r?dbs+hsdb:@term+@rn+@rel+86-74-8
   7. http://toxnet.nlm.nih.gov/cgi-bin/sis/search/r?dbs+hsdb:@term+@rn+@rel+86-74-8
   8. http://toxnet.nlm.nih.gov/cgi-bin/sis/search/r?dbs+hsdb:@term+@rn+@rel+86-74-8
   9. http://toxnet.nlm.nih.gov/cgi-bin/sis/search/r?dbs+hsdb:@term+@rn+@rel+86-74-8
  10. http://pubchem.ncbi.nlm.nih.gov/vw3d/vw3d.cgi?cid=6854
