8828
  -OEChem-06261203092D

 13 11  0     0  0  0  0  0  0999 V2000
    4.5838   -1.0171    0.0000 Cd  0  2  0  0  0  0  0  0  0  0  0  0
    3.6828   -1.4510    0.0000 O   0  5  0  0  0  0  0  0  0  0  0  0
    4.8063   -0.0422    0.0000 O   0  5  0  0  0  0  0  0  0  0  0  0
    2.0000   -1.6406    0.0000 O   0  0  0  0  0  0  0  0  0  0  0  0
    4.6167    1.6406    0.0000 O   0  0  0  0  0  0  0  0  0  0  0  0
    2.5593   -0.0422    0.0000 C   0  0  0  0  0  0  0  0  0  0  0  0
    3.1828    0.7396    0.0000 C   0  0  0  0  0  0  0  0  0  0  0  0
    2.7818   -1.0171    0.0000 C   0  0  0  0  0  0  0  0  0  0  0  0
    4.1828    0.7396    0.0000 C   0  0  0  0  0  0  0  0  0  0  0  0
    2.1728    0.4425    0.0000 H   0  0  0  0  0  0  0  0  0  0  0  0
    2.0007   -0.3112    0.0000 H   0  0  0  0  0  0  0  0  0  0  0  0
    3.3208    1.3441    0.0000 H   0  0  0  0  0  0  0  0  0  0  0  0
    2.6242    1.0086    0.0000 H   0  0  0  0  0  0  0  0  0  0  0  0
  2  8  1  0  0  0  0
  3  9  1  0  0  0  0
  4  8  2  0  0  0  0
  5  9  2  0  0  0  0
  6  7  1  0  0  0  0
  6  8  1  0  0  0  0
  6 10  1  0  0  0  0
  6 11  1  0  0  0  0
  7  9  1  0  0  0  0
  7 12  1  0  0  0  0
  7 13  1  0  0  0  0
M  CHG  3   1   2   2  -1   3  -1
M  END
> <PUBCHEM_COMPOUND_CID>
8828

> <PUBCHEM_COMPOUND_CANONICALIZED>
1

> <PUBCHEM_CACTVS_COMPLEXITY>
81.6

> <PUBCHEM_CACTVS_HBOND_ACCEPTOR>
4

> <PUBCHEM_CACTVS_HBOND_DONOR>
0

> <PUBCHEM_CACTVS_ROTATABLE_BOND>
1

> <PUBCHEM_CACTVS_SUBSKEYS>
AAADcYBgOAAAAAAAAAIAAAAAAAAAAAAAAAAAAAAAAAAAAAAAAAAAGgAAAAAACACAgAAACAAAAAAIAACQCAAAAAAAAAAAAAEAAAAAABAAAAAAAAAEAAAAAABDAAAAAAAAAAAAAAAAAAAAAAAAAAAAAAAAAA==

> <PUBCHEM_IUPAC_OPENEYE_NAME>
butanedioate; cadmium(2+)

> <PUBCHEM_IUPAC_CAS_NAME>
butanedioate; cadmium(2+)

> <PUBCHEM_IUPAC_NAME>
butanedioate; cadmium(2+)

> <PUBCHEM_IUPAC_SYSTEMATIC_NAME>
butanedioate; cadmium(2+)

> <PUBCHEM_IUPAC_TRADITIONAL_NAME>
cadmium(2+); succinate

> <PUBCHEM_IUPAC_INCHI>
InChI=1S/C4H6O4.Cd/c5-3(6)1-2-4(7)8;/h1-2H2,(H,5,6)(H,7,8);/q;+2/p-2

> <PUBCHEM_IUPAC_INCHIKEY>
RHIAOOMCMLDTKE-UHFFFAOYSA-L

> <PUBCHEM_EXACT_MASS>
229.914317

> <PUBCHEM_MOLECULAR_FORMULA>
C4H4CdO4

> <PUBCHEM_MOLECULAR_WEIGHT>
228.48316

> <PUBCHEM_OPENEYE_CAN_SMILES>
C(CC(=O)[O-])C(=O)[O-].[Cd+2]

> <PUBCHEM_OPENEYE_ISO_SMILES>
C(CC(=O)[O-])C(=O)[O-].[Cd+2]

> <PUBCHEM_CACTVS_TPSA>
80.3

> <PUBCHEM_MONOISOTOPIC_WEIGHT>
229.914317

> <PUBCHEM_TOTAL_CHARGE>
0

> <PUBCHEM_HEAVY_ATOM_COUNT>
9

> <PUBCHEM_ATOM_DEF_STEREO_COUNT>
0

> <PUBCHEM_ATOM_UDEF_STEREO_COUNT>
0

> <PUBCHEM_BOND_DEF_STEREO_COUNT>
0

> <PUBCHEM_BOND_UDEF_STEREO_COUNT>
0

> <PUBCHEM_ISOTOPIC_ATOM_COUNT>
0

> <PUBCHEM_COMPONENT_COUNT>
2

> <PUBCHEM_CACTVS_TAUTO_COUNT>
1

> <PUBCHEM_COORDINATE_TYPE>
1
5
255

$$$$

