   Color/Form
        Off-white solid
   from [1]HSDB

   Odor
        Odorless
   from [2]HSDB

   Melting Point
        186 deg C
   from [3]HSDB

   Density/Specific Gravity
        1.580 g/cu cm
   from [4]HSDB

   Dissociation Constants
        pKa = 4.0 at 25 deg C
   from [5]HSDB

   Octanol/Water Partition Coefficient
        log Kow = -1.56
   from [6]HSDB

   Solubilities
        In water, 2.24X10+3 mg/L at 25 deg C
   from [7]HSDB

   Vapor Pressure
        1.28X10-10 mm Hg at 25 deg C
   from [8]HSDB

   Other Chemical/Physical Properties
        Henry's Law constant = 2.92X10-14 atm-cu m/mol at 25 deg C (est)
   from [9]HSDB

   Computed Properties
   Molecular Weight                  387.39152 [g/mol]
   Molecular Formula                 C[12]H[13]N[5]O[6]S[2]
   XLogP3-AA                         1.6
   H-Bond Donor                      2
   H-Bond Acceptor                   10
   Rotatable Bond Count              6
   Tautomer Count                    9
   Exact Mass                        387.030725
   MonoIsotopic Mass                 387.030725
   Topological Polar Surface Area    186
   Heavy Atom Count                  25
   Formal Charge                     0
   Complexity                        597
   Isotope Atom Count                0
   Defined Atom Stereocenter Count   0
   Undefined Atom Stereocenter Count 0
   Defined Bond Stereocenter Count   0
   Undefined Bond Stereocenter Count 0
   Covalently-Bonded Unit Count      1
   Feature 3D Acceptor Count         4
   Feature 3D Donor Count            2
   Feature 3D Cation Count           2
   Feature 3D Ring Count             2
   Effective Rotor Count             8
   Conformer Sampling RMSD           1
   CID Conformer Count               [10]213

References

   1. http://toxnet.nlm.nih.gov/cgi-bin/sis/search/r?dbs+hsdb:@term+@rn+@rel+79277-27-3
   2. http://toxnet.nlm.nih.gov/cgi-bin/sis/search/r?dbs+hsdb:@term+@rn+@rel+79277-27-3
   3. http://toxnet.nlm.nih.gov/cgi-bin/sis/search/r?dbs+hsdb:@term+@rn+@rel+79277-27-3
   4. http://toxnet.nlm.nih.gov/cgi-bin/sis/search/r?dbs+hsdb:@term+@rn+@rel+79277-27-3
   5. http://toxnet.nlm.nih.gov/cgi-bin/sis/search/r?dbs+hsdb:@term+@rn+@rel+79277-27-3
   6. http://toxnet.nlm.nih.gov/cgi-bin/sis/search/r?dbs+hsdb:@term+@rn+@rel+79277-27-3
   7. http://toxnet.nlm.nih.gov/cgi-bin/sis/search/r?dbs+hsdb:@term+@rn+@rel+79277-27-3
   8. http://toxnet.nlm.nih.gov/cgi-bin/sis/search/r?dbs+hsdb:@term+@rn+@rel+79277-27-3
   9. http://toxnet.nlm.nih.gov/cgi-bin/sis/search/r?dbs+hsdb:@term+@rn+@rel+79277-27-3
  10. http://pubchem.ncbi.nlm.nih.gov/vw3d/vw3d.cgi?cid=73674
