187808
  -OEChem-07051213082D

 54 57  0     1  0  0  0  0  0999 V2000
    5.1350    1.1121    0.0000 O   0  0  0  0  0  0  0  0  0  0  0  0
    4.2690   -0.3879    0.0000 O   0  0  0  0  0  0  0  0  0  0  0  0
    2.5369    2.6121    0.0000 O   0  0  0  0  0  0  0  0  0  0  0  0
    4.2690    3.6121    0.0000 O   0  0  0  0  0  0  0  0  0  0  0  0
    2.5369    0.6121    0.0000 O   0  0  0  0  0  0  0  0  0  0  0  0
    6.0010    3.6121    0.0000 O   0  0  0  0  0  0  0  0  0  0  0  0
    7.7610   -0.3533    0.0000 O   0  0  0  0  0  0  0  0  0  0  0  0
    4.2690   -2.3879    0.0000 O   0  0  0  0  0  0  0  0  0  0  0  0
    7.7494   -3.4225    0.0000 O   0  0  0  0  0  0  0  0  0  0  0  0
   12.1234   -3.9221    0.0000 O   0  0  0  0  0  0  0  0  0  0  0  0
    3.4030    2.1121    0.0000 C   0  0  1  0  0  0  0  0  0  0  0  0
    4.2690    2.6121    0.0000 C   0  0  1  0  0  0  0  0  0  0  0  0
    3.4030    1.1121    0.0000 C   0  0  2  0  0  0  0  0  0  0  0  0
    5.1350    2.1121    0.0000 C   0  0  1  0  0  0  0  0  0  0  0  0
    4.2690    0.6121    0.0000 C   0  0  1  0  0  0  0  0  0  0  0  0
    6.0010    2.6121    0.0000 C   0  0  0  0  0  0  0  0  0  0  0  0
    5.1350   -0.8879    0.0000 C   0  0  0  0  0  0  0  0  0  0  0  0
    5.1350   -1.8879    0.0000 C   0  0  0  0  0  0  0  0  0  0  0  0
    6.0010   -0.3879    0.0000 C   0  0  0  0  0  0  0  0  0  0  0  0
    6.8671   -0.8879    0.0000 C   0  0  0  0  0  0  0  0  0  0  0  0
    6.8671   -1.8879    0.0000 C   0  0  0  0  0  0  0  0  0  0  0  0
    6.0010   -2.3879    0.0000 C   0  0  0  0  0  0  0  0  0  0  0  0
    7.7610   -2.4226    0.0000 C   0  0  0  0  0  0  0  0  0  0  0  0
    8.6671   -1.9087    0.0000 C   0  0  0  0  0  0  0  0  0  0  0  0
    8.6671   -0.8671    0.0000 C   0  0  0  0  0  0  0  0  0  0  0  0
    9.5312   -2.4121    0.0000 C   0  0  0  0  0  0  0  0  0  0  0  0
    4.2690   -3.3879    0.0000 C   0  0  0  0  0  0  0  0  0  0  0  0
    9.5273   -3.4121    0.0000 C   0  0  0  0  0  0  0  0  0  0  0  0
   10.3991   -1.9154    0.0000 C   0  0  0  0  0  0  0  0  0  0  0  0
   10.3914   -3.9154    0.0000 C   0  0  0  0  0  0  0  0  0  0  0  0
   11.2632   -2.4188    0.0000 C   0  0  0  0  0  0  0  0  0  0  0  0
   11.2593   -3.4187    0.0000 C   0  0  0  0  0  0  0  0  0  0  0  0
    3.4030    2.7321    0.0000 H   0  0  0  0  0  0  0  0  0  0  0  0
    4.8059    2.9221    0.0000 H   0  0  0  0  0  0  0  0  0  0  0  0
    2.8660    1.4221    0.0000 H   0  0  0  0  0  0  0  0  0  0  0  0
    5.6720    1.8021    0.0000 H   0  0  0  0  0  0  0  0  0  0  0  0
    3.7320    0.3021    0.0000 H   0  0  0  0  0  0  0  0  0  0  0  0
    6.2131    2.0295    0.0000 H   0  0  0  0  0  0  0  0  0  0  0  0
    6.6116    2.7197    0.0000 H   0  0  0  0  0  0  0  0  0  0  0  0
    2.5369    3.2321    0.0000 H   0  0  0  0  0  0  0  0  0  0  0  0
    3.7320    3.9221    0.0000 H   0  0  0  0  0  0  0  0  0  0  0  0
    2.0000    0.9221    0.0000 H   0  0  0  0  0  0  0  0  0  0  0  0
    6.5380    3.9221    0.0000 H   0  0  0  0  0  0  0  0  0  0  0  0
    6.0010    0.2321    0.0000 H   0  0  0  0  0  0  0  0  0  0  0  0
    6.0010   -3.0079    0.0000 H   0  0  0  0  0  0  0  0  0  0  0  0
    9.2028   -0.5550    0.0000 H   0  0  0  0  0  0  0  0  0  0  0  0
    3.6490   -3.3879    0.0000 H   0  0  0  0  0  0  0  0  0  0  0  0
    4.2690   -4.0079    0.0000 H   0  0  0  0  0  0  0  0  0  0  0  0
    4.8890   -3.3879    0.0000 H   0  0  0  0  0  0  0  0  0  0  0  0
    8.9892   -3.7200    0.0000 H   0  0  0  0  0  0  0  0  0  0  0  0
   10.4015   -1.2954    0.0000 H   0  0  0  0  0  0  0  0  0  0  0  0
   10.3890   -4.5354    0.0000 H   0  0  0  0  0  0  0  0  0  0  0  0
   11.8013   -2.1108    0.0000 H   0  0  0  0  0  0  0  0  0  0  0  0
   12.6616   -3.6142    0.0000 H   0  0  0  0  0  0  0  0  0  0  0  0
  1 14  1  0  0  0  0
  1 15  1  0  0  0  0
 15  2  1  1  0  0  0
  2 17  1  0  0  0  0
 11  3  1  1  0  0  0
  3 40  1  0  0  0  0
 12  4  1  6  0  0  0
  4 41  1  0  0  0  0
 13  5  1  6  0  0  0
  5 42  1  0  0  0  0
  6 16  1  0  0  0  0
  6 43  1  0  0  0  0
  7 20  1  0  0  0  0
  7 25  1  0  0  0  0
  8 18  1  0  0  0  0
  8 27  1  0  0  0  0
  9 23  2  0  0  0  0
 10 32  1  0  0  0  0
 10 54  1  0  0  0  0
 11 12  1  0  0  0  0
 11 13  1  0  0  0  0
 11 33  1  0  0  0  0
 12 14  1  0  0  0  0
 12 34  1  0  0  0  0
 13 15  1  0  0  0  0
 13 35  1  0  0  0  0
 14 16  1  1  0  0  0
 14 36  1  0  0  0  0
 15 37  1  0  0  0  0
 16 38  1  0  0  0  0
 16 39  1  0  0  0  0
 17 18  2  0  0  0  0
 17 19  1  0  0  0  0
 18 22  1  0  0  0  0
 19 20  2  0  0  0  0
 19 44  1  0  0  0  0
 20 21  1  0  0  0  0
 21 22  2  0  0  0  0
 21 23  1  0  0  0  0
 22 45  1  0  0  0  0
 23 24  1  0  0  0  0
 24 25  2  0  0  0  0
 24 26  1  0  0  0  0
 25 46  1  0  0  0  0
 26 28  2  0  0  0  0
 26 29  1  0  0  0  0
 27 47  1  0  0  0  0
 27 48  1  0  0  0  0
 27 49  1  0  0  0  0
 28 30  1  0  0  0  0
 28 50  1  0  0  0  0
 29 31  2  0  0  0  0
 29 51  1  0  0  0  0
 30 32  2  0  0  0  0
 30 52  1  0  0  0  0
 31 32  1  0  0  0  0
 31 53  1  0  0  0  0
M  END
> <PUBCHEM_COMPOUND_CID>
187808

> <PUBCHEM_COMPOUND_CANONICALIZED>
1

> <PUBCHEM_CACTVS_COMPLEXITY>
690

> <PUBCHEM_CACTVS_HBOND_ACCEPTOR>
10

> <PUBCHEM_CACTVS_HBOND_DONOR>
5

> <PUBCHEM_CACTVS_ROTATABLE_BOND>
5

> <PUBCHEM_CACTVS_SUBSKEYS>
AAADceB4PAAAAAAAAAAAAAAAAAAAAAAAAAA0YIEAAAAAAACBQAAAGgAACAAADBSwmAMyDoAABgCIAqBSAAACCAAkIAAIiAEGiMgdNzaGNRqieWKl4BUPuYfK7PzOIQABCAAIQABCAAIQABCAAAAAAAAAAA==

> <PUBCHEM_IUPAC_OPENEYE_NAME>
3-(4-hydroxyphenyl)-6-methoxy-7-[(2S,3R,4S,5S,6R)-3,4,5-trihydroxy-6-(hydroxymethyl)tetrahydropyran-2-yl]oxy-chromen-4-one

> <PUBCHEM_IUPAC_CAS_NAME>
3-(4-hydroxyphenyl)-6-methoxy-7-[[(2S,3R,4S,5S,6R)-3,4,5-trihydroxy-6-(hydroxymethyl)-2-oxanyl]oxy]-1-benzopyran-4-one

> <PUBCHEM_IUPAC_NAME>
3-(4-hydroxyphenyl)-6-methoxy-7-[(2S,3R,4S,5S,6R)-3,4,5-trihydroxy-6-(hydroxymethyl)oxan-2-yl]oxychromen-4-one

> <PUBCHEM_IUPAC_SYSTEMATIC_NAME>
7-[(2S,3R,4S,5S,6R)-6-(hydroxymethyl)-3,4,5-tris(oxidanyl)oxan-2-yl]oxy-3-(4-hydroxyphenyl)-6-methoxy-chromen-4-one

> <PUBCHEM_IUPAC_TRADITIONAL_NAME>
3-(4-hydroxyphenyl)-6-methoxy-7-[(2S,3R,4S,5S,6R)-3,4,5-trihydroxy-6-methylol-tetrahydropyran-2-yl]oxy-chromone

> <PUBCHEM_IUPAC_INCHI>
InChI=1S/C22H22O10/c1-29-15-6-12-14(30-9-13(18(12)25)10-2-4-11(24)5-3-10)7-16(15)31-22-21(28)20(27)19(26)17(8-23)32-22/h2-7,9,17,19-24,26-28H,8H2,1H3/t17-,19-,20+,21-,22-/m1/s1

> <PUBCHEM_IUPAC_INCHIKEY>
OZBAVEKZGSOMOJ-MIUGBVLSSA-N

> <PUBCHEM_XLOGP3_AA>
0.6

> <PUBCHEM_EXACT_MASS>
446.121297

> <PUBCHEM_MOLECULAR_FORMULA>
C22H22O10

> <PUBCHEM_MOLECULAR_WEIGHT>
446.40408

> <PUBCHEM_OPENEYE_CAN_SMILES>
COC1=C(C=C2C(=C1)C(=O)C(=CO2)C3=CC=C(C=C3)O)OC4C(C(C(C(O4)CO)O)O)O

> <PUBCHEM_OPENEYE_ISO_SMILES>
COC1=C(C=C2C(=C1)C(=O)C(=CO2)C3=CC=C(C=C3)O)O[C@H]4[C@@H]([C@H]([C@@H]([C@H](O4)CO)O)O)O

> <PUBCHEM_CACTVS_TPSA>
155

> <PUBCHEM_MONOISOTOPIC_WEIGHT>
446.121297

> <PUBCHEM_TOTAL_CHARGE>
0

> <PUBCHEM_HEAVY_ATOM_COUNT>
32

> <PUBCHEM_ATOM_DEF_STEREO_COUNT>
5

> <PUBCHEM_ATOM_UDEF_STEREO_COUNT>
0

> <PUBCHEM_BOND_DEF_STEREO_COUNT>
0

> <PUBCHEM_BOND_UDEF_STEREO_COUNT>
0

> <PUBCHEM_ISOTOPIC_ATOM_COUNT>
0

> <PUBCHEM_COMPONENT_COUNT>
1

> <PUBCHEM_CACTVS_TAUTO_COUNT>
2

> <PUBCHEM_COORDINATE_TYPE>
1
5
255

> <PUBCHEM_BONDANNOTATIONS>
14  16  5
17  18  8
17  19  8
18  22  8
19  20  8
15  2  5
20  21  8
21  22  8
21  23  8
23  24  8
24  25  8
26  28  8
26  29  8
28  30  8
29  31  8
11  3  5
30  32  8
31  32  8
12  4  6
13  5  6
7  20  8
7  25  8

$$$$

