   Odor
        Pungent, irritating odor
   from [1]HSDB

   Taste
        Taste threshold: 1.60X10-4 moles/L (recognition in water,
   chemically pure); 1.30X10-4 M/L (recognition in water, chemically
   pure); 1.10X10-4 M/L (recognition in water, chemically pure)
   from [2]HSDB

   Boiling Point
        -85.05 deg C at 760 mm Hg
   from [3]HSDB

   Melting Point
        -114.22 deg C
   from [4]HSDB

   Corrosivity
        Corrosive
   from [5]HSDB

   Critical Temperature and Pressure
        Critical temperature: 51.4 deg C; critical pressure: 81.6 atm
   from [6]HSDB

   Density/Specific Gravity
        1.639 g/L
   from [7]HSDB

   Heat of Vaporization
        16.1421 kJ/mol at -85.05 deg C
   from [8]HSDB

   Solubilities

     * 82.3 g/100 g water at 0 deg C; 67.3 g/100 g water at 30 deg C; 63.3
       g/100 g water at 40 deg C; 59.6 g/100 g water at 50 deg C; 56.1
       g/100 g water at 60 deg C
     * Solubility in methanol: 54.6 g/ 100 g solution at -10 deg C; 51.3
       g/ 100 g solution at 0 deg C; 47.0 g/ 100 g solution at 20 deg C;
       43.0 g/ 100 g solution at 30 deg C; solubility in ethanol: 45.4 g/
       100 g solution at 0 deg C; 42.7 g/ 100 g solution at 10 deg C; 41.0
       g/ 100 g solution at 20 deg C; 38.1 g/ 100 g solution at 30 deg C;
       solubility in ether: 37.52 g/ 100 g solution at -10 deg C; 35.6 g/
       100 g solution at 0 deg C; 24.9 g/ 100 g solution at 20 deg C;
       19.47 g/ 100 g solution at 30 deg C

   from [9]HSDB

   Spectral Properties
        Index of refraction: 1.254 (liquid at 283.16 K); 1.0004456 (gas at
   273.16 K)
   from [10]HSDB

   Surface Tension
        23 mN/cm at 118.16 K
   from [11]HSDB

   Vapor Density
        1.268 (Air = 1.000)
   from [12]HSDB

   Vapor Pressure
        35,424 mm Hg at 25 deg C
   from [13]HSDB

   Viscosity
        0.405 cP (liquid at 118.16 K); 0.0131 cP (vapor at 273.06 K);
   0.0253 cP (vapor at 523.2 K)
   from [14]HSDB

   Other Chemical/Physical Properties

     * Chemical/Physical Properties of Hydrogen chloride.

       Property

   Value

   Boiling point -114.61 deg C at 100 mm Hg
   -137.77 deg C at 10 mm Hg
   -154.37 deg C at 1.0 mm Hg
   Heat capacity at constant volume (15 deg C) 0.1939 cal/g deg C
   Heat capacity at constant pressure (15 deg C) 0.13 cal/g deg C
   Heat of solution (infinite dilution) -17.88 kcal/mol
   Heat of formation (gas at 25 deg C) -22.063 kcal/mol

     Chemical/Physical Properties for Hydrogen chloride.

   Property Value
   Heat of fusion at -114.22 deg C 1.9924 kJ/mol
   Triple point -114.25 deg C
   Critical volume 0.069 L/mol
   Critical density 424 g/L
   Critical compressability factor 0.117
   Enthalpy of formation at 198 K -92.312 kJ/mol
   Dissociation energy at 298 K 431.62 kJ
   Compressability coefficient 0.00787
   Dipole moment 3.716 Cm
   Ionization potential 20.51 J
   Thermal conductivity 335 mW/m K (liquid at 118.16 K)
   Density 1.045 g/cu cm (liquid at 118.16 K)
   0.630 g/cu cm (liquid at 319.15 K
   1.507 g/cu cm (solid, rhombic at 81 K)
   1.48 g/cu cm (solid, cubic at 98.36 K)
   1.469 g/cu cm (solid, cubic at 107 K)
   Dielectric constant 14.2 (liquid at 158.94 K)
   1.0046 (gas at 298.16 K)
   Electrical conductivity 1.7X10-7 1/Ohm m at 158.94 K
   3.5X10-7 1/Ohm m at 185.56 K

     Conversion factor: 1 ppm = 1.49 mg/cu m /Hydrogen chloride/

     A solution of hydrogen chloride gas in water; may be colored yellow
   by traces of iron, chlorine, and organic matter; fumes in air; freezing
   point: -17.14 deg C (10.81% solution); -62.25 deg C (20.69%); -46.2 deg
   C (31.24%); -25.4 deg C (39.17%); density (15 deg C/4 deg C): 1.05
   (10.17% w/w solution); 1.010 (20%); 1.15 (29.57%);1.20 (39.11%); pH:
   0.10 (1.0 N HCl); 1.10 (0.1 N HCl); 2.02 (0.01 N HCl); 3.02 (0.001 N
   HCl); 4.01 (0.0001 N HCl); index of refraction (1.0 N solution):
   1.34168 18 deg C/D /Hydrochloric acid/

     The aqueous solution is a strong acid. Corrosive fumes emitted on
   contact with air. Reacts violently with bases, oxidizers forming toxic
   chlorine gas. Reacts, often violently, with acetic anhydride, active
   metals, aliphatic amines, alkanolamines, alkylene oxides, aromatic
   amines, amides, 2-aminoethanol, ammonia, ammonium hydroxide, calcium
   phosphide, chlorosulfonic acid, ethylene diamine, ethyleneimine,
   epichlorohydrin, isocyanates, metal acetylides, oleum, organic
   anhydrides, perchloric acid, 3-propiolactone, uranium phosphide,
   sulfuric acid, vinyl acetate, vinylidene fluoride. Highly corrosive to
   most metals, forming flammable hydrogen gas. Attacks some plastics,
   rubber, and coatings.

     Henry's Law constant: 2.04X10+6 mol/L atm (4.90X10-10 cu m atm/mol)
   /Hydrochloric acid/

   from [15]HSDB

   Computed Properties
   Molecular Weight                  36.46094 [g/mol]
   Molecular Formula                 ClH
   XLogP3-AA                         0.8
   H-Bond Donor                      1
   H-Bond Acceptor                   0
   Rotatable Bond Count              0
   Exact Mass                        35.976678
   MonoIsotopic Mass                 35.976678
   Topological Polar Surface Area    0
   Heavy Atom Count                  1
   Formal Charge                     0
   Complexity                        0
   Isotope Atom Count                0
   Defined Atom Stereocenter Count   0
   Undefined Atom Stereocenter Count 0
   Defined Bond Stereocenter Count   0
   Undefined Bond Stereocenter Count 0
   Covalently-Bonded Unit Count      1
   Feature 3D Anion Count            1
   Effective Rotor Count             0
   Conformer Sampling RMSD           0.4
   CID Conformer Count               [16]1

References

   1. http://toxnet.nlm.nih.gov/cgi-bin/sis/search/r?dbs+hsdb:@term+@rn+@rel+7647-01-0
   2. http://toxnet.nlm.nih.gov/cgi-bin/sis/search/r?dbs+hsdb:@term+@rn+@rel+7647-01-0
   3. http://toxnet.nlm.nih.gov/cgi-bin/sis/search/r?dbs+hsdb:@term+@rn+@rel+7647-01-0
   4. http://toxnet.nlm.nih.gov/cgi-bin/sis/search/r?dbs+hsdb:@term+@rn+@rel+7647-01-0
   5. http://toxnet.nlm.nih.gov/cgi-bin/sis/search/r?dbs+hsdb:@term+@rn+@rel+7647-01-0
   6. http://toxnet.nlm.nih.gov/cgi-bin/sis/search/r?dbs+hsdb:@term+@rn+@rel+7647-01-0
   7. http://toxnet.nlm.nih.gov/cgi-bin/sis/search/r?dbs+hsdb:@term+@rn+@rel+7647-01-0
   8. http://toxnet.nlm.nih.gov/cgi-bin/sis/search/r?dbs+hsdb:@term+@rn+@rel+7647-01-0
   9. http://toxnet.nlm.nih.gov/cgi-bin/sis/search/r?dbs+hsdb:@term+@rn+@rel+7647-01-0
  10. http://toxnet.nlm.nih.gov/cgi-bin/sis/search/r?dbs+hsdb:@term+@rn+@rel+7647-01-0
  11. http://toxnet.nlm.nih.gov/cgi-bin/sis/search/r?dbs+hsdb:@term+@rn+@rel+7647-01-0
  12. http://toxnet.nlm.nih.gov/cgi-bin/sis/search/r?dbs+hsdb:@term+@rn+@rel+7647-01-0
  13. http://toxnet.nlm.nih.gov/cgi-bin/sis/search/r?dbs+hsdb:@term+@rn+@rel+7647-01-0
  14. http://toxnet.nlm.nih.gov/cgi-bin/sis/search/r?dbs+hsdb:@term+@rn+@rel+7647-01-0
  15. http://toxnet.nlm.nih.gov/cgi-bin/sis/search/r?dbs+hsdb:@term+@rn+@rel+7647-01-0
  16. http://pubchem.ncbi.nlm.nih.gov/vw3d/vw3d.cgi?cid=313
