17395566
  -OEChem-06241222512D

 40 42  0     1  0  0  0  0  0999 V2000
    6.0875    3.3261    0.0000 O   0  0  0  0  0  0  0  0  0  0  0  0
    2.8660    1.2101    0.0000 O   0  0  0  0  0  0  0  0  0  0  0  0
    8.7631    2.2510    0.0000 O   0  0  0  0  0  0  0  0  0  0  0  0
    6.1808    1.5465    0.0000 N   0  0  0  0  0  0  0  0  0  0  0  0
    3.7320   -0.2899    0.0000 N   0  0  0  0  0  0  0  0  0  0  0  0
    4.5981    1.2101    0.0000 C   0  0  3  0  0  0  0  0  0  0  0  0
    5.5116    0.8034    0.0000 C   0  0  0  0  0  0  0  0  0  0  0  0
    4.7026    2.2046    0.0000 C   0  0  0  0  0  0  0  0  0  0  0  0
    5.6808    2.4126    0.0000 C   0  0  0  0  0  0  0  0  0  0  0  0
    7.1753    1.4420    0.0000 C   0  0  0  0  0  0  0  0  0  0  0  0
    3.7320    0.7101    0.0000 C   0  0  0  0  0  0  0  0  0  0  0  0
    7.7631    2.2510    0.0000 C   0  0  0  0  0  0  0  0  0  0  0  0
    2.8660   -0.7899    0.0000 C   0  0  0  0  0  0  0  0  0  0  0  0
    7.4540    3.2021    0.0000 C   0  0  0  0  0  0  0  0  0  0  0  0
    2.8660   -1.7899    0.0000 C   0  0  0  0  0  0  0  0  0  0  0  0
    8.2631    3.7899    0.0000 C   0  0  0  0  0  0  0  0  0  0  0  0
    9.0721    3.2021    0.0000 C   0  0  0  0  0  0  0  0  0  0  0  0
    2.0000   -2.2899    0.0000 C   0  0  0  0  0  0  0  0  0  0  0  0
    3.7320   -2.2899    0.0000 C   0  0  0  0  0  0  0  0  0  0  0  0
    2.0000   -3.2899    0.0000 C   0  0  0  0  0  0  0  0  0  0  0  0
    3.7320   -3.2899    0.0000 C   0  0  0  0  0  0  0  0  0  0  0  0
    2.8660   -3.7899    0.0000 C   0  0  0  0  0  0  0  0  0  0  0  0
    4.0781    1.5478    0.0000 H   0  0  0  0  0  0  0  0  0  0  0  0
    5.2016    0.2665    0.0000 H   0  0  0  0  0  0  0  0  0  0  0  0
    6.0132    0.4390    0.0000 H   0  0  0  0  0  0  0  0  0  0  0  0
    4.6378    2.8213    0.0000 H   0  0  0  0  0  0  0  0  0  0  0  0
    4.0826    2.2046    0.0000 H   0  0  0  0  0  0  0  0  0  0  0  0
    7.0044    0.8460    0.0000 H   0  0  0  0  0  0  0  0  0  0  0  0
    7.7325    1.1702    0.0000 H   0  0  0  0  0  0  0  0  0  0  0  0
    4.2690   -0.5999    0.0000 H   0  0  0  0  0  0  0  0  0  0  0  0
    2.6540   -0.2073    0.0000 H   0  0  0  0  0  0  0  0  0  0  0  0
    2.2554   -0.8975    0.0000 H   0  0  0  0  0  0  0  0  0  0  0  0
    6.8644    3.3937    0.0000 H   0  0  0  0  0  0  0  0  0  0  0  0
    8.2631    4.4099    0.0000 H   0  0  0  0  0  0  0  0  0  0  0  0
    9.6617    3.3937    0.0000 H   0  0  0  0  0  0  0  0  0  0  0  0
    1.4631   -1.9799    0.0000 H   0  0  0  0  0  0  0  0  0  0  0  0
    4.2690   -1.9799    0.0000 H   0  0  0  0  0  0  0  0  0  0  0  0
    1.4631   -3.5999    0.0000 H   0  0  0  0  0  0  0  0  0  0  0  0
    4.2690   -3.5999    0.0000 H   0  0  0  0  0  0  0  0  0  0  0  0
    2.8660   -4.4099    0.0000 H   0  0  0  0  0  0  0  0  0  0  0  0
  1  9  2  0  0  0  0
  2 11  2  0  0  0  0
  3 12  1  0  0  0  0
  3 17  1  0  0  0  0
  4  7  1  0  0  0  0
  4  9  1  0  0  0  0
  4 10  1  0  0  0  0
  5 11  1  0  0  0  0
  5 13  1  0  0  0  0
  5 30  1  0  0  0  0
  6  7  1  0  0  0  0
  6  8  1  0  0  0  0
  6 11  1  0  0  0  0
  6 23  1  0  0  0  0
  7 24  1  0  0  0  0
  7 25  1  0  0  0  0
  8  9  1  0  0  0  0
  8 26  1  0  0  0  0
  8 27  1  0  0  0  0
 10 12  1  0  0  0  0
 10 28  1  0  0  0  0
 10 29  1  0  0  0  0
 12 14  2  0  0  0  0
 13 15  1  0  0  0  0
 13 31  1  0  0  0  0
 13 32  1  0  0  0  0
 14 16  1  0  0  0  0
 14 33  1  0  0  0  0
 15 18  2  0  0  0  0
 15 19  1  0  0  0  0
 16 17  2  0  0  0  0
 16 34  1  0  0  0  0
 17 35  1  0  0  0  0
 18 20  1  0  0  0  0
 18 36  1  0  0  0  0
 19 21  2  0  0  0  0
 19 37  1  0  0  0  0
 20 22  2  0  0  0  0
 20 38  1  0  0  0  0
 21 22  1  0  0  0  0
 21 39  1  0  0  0  0
 22 40  1  0  0  0  0
M  END
> <PUBCHEM_COMPOUND_CID>
17395566

> <PUBCHEM_COMPOUND_CANONICALIZED>
1

> <PUBCHEM_CACTVS_COMPLEXITY>
407

> <PUBCHEM_CACTVS_HBOND_ACCEPTOR>
3

> <PUBCHEM_CACTVS_HBOND_DONOR>
1

> <PUBCHEM_CACTVS_ROTATABLE_BOND>
5

> <PUBCHEM_CACTVS_SUBSKEYS>
AAADceB7MAAAAAAAAAAAAAAAAAAAAWJAAAAwAAAAAAAAAAABwAAAHgAQAAAADQThmAYwBIPABECIAqlSkACCCAAkIAAIiIGODMgOJjqE9TuHOSjk1hGYqYedkQIOAAAAAAAAAAAAAAAAAAAAAAAAAAAAAA==

> <PUBCHEM_IUPAC_OPENEYE_NAME>
N-benzyl-1-(2-furylmethyl)-5-oxo-pyrrolidine-3-carboxamide

> <PUBCHEM_IUPAC_CAS_NAME>
1-(2-furanylmethyl)-5-oxo-N-(phenylmethyl)-3-pyrrolidinecarboxamide

> <PUBCHEM_IUPAC_NAME>
N-benzyl-1-(furan-2-ylmethyl)-5-oxopyrrolidine-3-carboxamide

> <PUBCHEM_IUPAC_SYSTEMATIC_NAME>
1-(furan-2-ylmethyl)-5-oxidanylidene-N-(phenylmethyl)pyrrolidine-3-carboxamide

> <PUBCHEM_IUPAC_TRADITIONAL_NAME>
N-benzyl-1-(2-furfuryl)-5-keto-pyrrolidine-3-carboxamide

> <PUBCHEM_IUPAC_INCHI>
InChI=1S/C17H18N2O3/c20-16-9-14(11-19(16)12-15-7-4-8-22-15)17(21)18-10-13-5-2-1-3-6-13/h1-8,14H,9-12H2,(H,18,21)

> <PUBCHEM_IUPAC_INCHIKEY>
QXWRXIUMIGENFS-UHFFFAOYSA-N

> <PUBCHEM_XLOGP3_AA>
0.8

> <PUBCHEM_EXACT_MASS>
298.131742

> <PUBCHEM_MOLECULAR_FORMULA>
C17H18N2O3

> <PUBCHEM_MOLECULAR_WEIGHT>
298.33642

> <PUBCHEM_OPENEYE_CAN_SMILES>
C1C(CN(C1=O)CC2=CC=CO2)C(=O)NCC3=CC=CC=C3

> <PUBCHEM_OPENEYE_ISO_SMILES>
C1C(CN(C1=O)CC2=CC=CO2)C(=O)NCC3=CC=CC=C3

> <PUBCHEM_CACTVS_TPSA>
62.6

> <PUBCHEM_MONOISOTOPIC_WEIGHT>
298.131742

> <PUBCHEM_TOTAL_CHARGE>
0

> <PUBCHEM_HEAVY_ATOM_COUNT>
22

> <PUBCHEM_ATOM_DEF_STEREO_COUNT>
0

> <PUBCHEM_ATOM_UDEF_STEREO_COUNT>
1

> <PUBCHEM_BOND_DEF_STEREO_COUNT>
0

> <PUBCHEM_BOND_UDEF_STEREO_COUNT>
0

> <PUBCHEM_ISOTOPIC_ATOM_COUNT>
0

> <PUBCHEM_COMPONENT_COUNT>
1

> <PUBCHEM_CACTVS_TAUTO_COUNT>
4

> <PUBCHEM_COORDINATE_TYPE>
1
5
255

> <PUBCHEM_BONDANNOTATIONS>
12  14  8
14  16  8
15  18  8
15  19  8
16  17  8
18  20  8
19  21  8
20  22  8
21  22  8
3  12  8
3  17  8
6  11  3

$$$$

