13274
  -OEChem-06261208232D

 34 33  0     0  0  0  0  0  0999 V2000
    7.4040    5.6200    0.0000 O   0  0  0  0  0  0  0  0  0  0  0  0
    1.7320    4.9650    0.0000 O   0  0  0  0  0  0  0  0  0  0  0  0
    0.0000    4.9650    0.0000 O   0  5  0  0  0  0  0  0  0  0  0  0
    0.8660    3.4650    0.0000 O   0  0  0  0  0  0  0  0  0  0  0  0
    7.4040    6.6200    0.0000 N   0  0  0  0  0  0  0  0  0  0  0  0
    8.2700    8.1200    0.0000 N   0  0  0  0  0  0  0  0  0  0  0  0
    9.1360    6.6200    0.0000 N   0  0  0  0  0  0  0  0  0  0  0  0
    0.8660    4.4650    0.0000 N   0  3  0  0  0  0  0  0  0  0  0  0
    5.6720    3.6200    0.0000 C   0  0  0  0  0  0  0  0  0  0  0  0
    6.5380    4.1200    0.0000 C   0  0  0  0  0  0  0  0  0  0  0  0
    5.6720    2.6200    0.0000 C   0  0  0  0  0  0  0  0  0  0  0  0
    6.5380    5.1200    0.0000 C   0  0  0  0  0  0  0  0  0  0  0  0
    4.8059    2.1200    0.0000 C   0  0  0  0  0  0  0  0  0  0  0  0
    6.5380    2.1200    0.0000 C   0  0  0  0  0  0  0  0  0  0  0  0
    4.8059    1.1200    0.0000 C   0  0  0  0  0  0  0  0  0  0  0  0
    6.5380    1.1200    0.0000 C   0  0  0  0  0  0  0  0  0  0  0  0
    5.6720    0.6200    0.0000 C   0  0  0  0  0  0  0  0  0  0  0  0
    8.2700    7.1200    0.0000 C   0  0  0  0  0  0  0  0  0  0  0  0
    5.4599    4.2026    0.0000 H   0  0  0  0  0  0  0  0  0  0  0  0
    5.0614    3.5123    0.0000 H   0  0  0  0  0  0  0  0  0  0  0  0
    6.7500    3.5374    0.0000 H   0  0  0  0  0  0  0  0  0  0  0  0
    7.1486    4.2277    0.0000 H   0  0  0  0  0  0  0  0  0  0  0  0
    6.3259    5.7026    0.0000 H   0  0  0  0  0  0  0  0  0  0  0  0
    5.9274    5.0123    0.0000 H   0  0  0  0  0  0  0  0  0  0  0  0
    4.2690    2.4300    0.0000 H   0  0  0  0  0  0  0  0  0  0  0  0
    7.0749    2.4300    0.0000 H   0  0  0  0  0  0  0  0  0  0  0  0
    4.2690    0.8100    0.0000 H   0  0  0  0  0  0  0  0  0  0  0  0
    7.0749    0.8100    0.0000 H   0  0  0  0  0  0  0  0  0  0  0  0
    5.6720    0.0000    0.0000 H   0  0  0  0  0  0  0  0  0  0  0  0
    8.8070    8.4300    0.0000 H   0  0  0  0  0  0  0  0  0  0  0  0
    7.7331    8.4300    0.0000 H   0  0  0  0  0  0  0  0  0  0  0  0
    9.6730    6.9300    0.0000 H   0  0  0  0  0  0  0  0  0  0  0  0
    9.1360    6.0000    0.0000 H   0  0  0  0  0  0  0  0  0  0  0  0
    2.2690    4.6550    0.0000 H   0  0  0  0  0  0  0  0  0  0  0  0
  1  5  1  0  0  0  0
  1 12  1  0  0  0  0
  2  8  1  0  0  0  0
  2 34  1  0  0  0  0
  3  8  1  0  0  0  0
  4  8  2  0  0  0  0
  5 18  2  0  0  0  0
  6 18  1  0  0  0  0
  6 30  1  0  0  0  0
  6 31  1  0  0  0  0
  7 18  1  0  0  0  0
  7 32  1  0  0  0  0
  7 33  1  0  0  0  0
  9 10  1  0  0  0  0
  9 11  1  0  0  0  0
  9 19  1  0  0  0  0
  9 20  1  0  0  0  0
 10 12  1  0  0  0  0
 10 21  1  0  0  0  0
 10 22  1  0  0  0  0
 11 13  2  0  0  0  0
 11 14  1  0  0  0  0
 12 23  1  0  0  0  0
 12 24  1  0  0  0  0
 13 15  1  0  0  0  0
 13 25  1  0  0  0  0
 14 16  2  0  0  0  0
 14 26  1  0  0  0  0
 15 17  2  0  0  0  0
 15 27  1  0  0  0  0
 16 17  1  0  0  0  0
 16 28  1  0  0  0  0
 17 29  1  0  0  0  0
M  CHG  2   3  -1   8   1
M  END
> <PUBCHEM_COMPOUND_CID>
13274

> <PUBCHEM_COMPOUND_CANONICALIZED>
1

> <PUBCHEM_CACTVS_COMPLEXITY>
197

> <PUBCHEM_CACTVS_HBOND_ACCEPTOR>
5

> <PUBCHEM_CACTVS_HBOND_DONOR>
3

> <PUBCHEM_CACTVS_ROTATABLE_BOND>
5

> <PUBCHEM_CACTVS_SUBSKEYS>
AAADceBzuAAAAAAAAAAAAAAAAAAAAAAAAAAwAAAAAAAAAAABAAAAHgAUCAAADACgmAIxAIBQQAChAiBCIQACAAAgAAAIiAAAAIgIICKAERCAIAAkgAAIiAeAwKAOAAAAAAAAAAAAAAAAAAAAAAAAAAAAAA==

> <PUBCHEM_IUPAC_OPENEYE_NAME>
nitric acid; 2-(3-phenylpropoxy)guanidine

> <PUBCHEM_IUPAC_CAS_NAME>
nitric acid; 2-(3-phenylpropoxy)guanidine

> <PUBCHEM_IUPAC_NAME>
nitric acid; 2-(3-phenylpropoxy)guanidine

> <PUBCHEM_IUPAC_SYSTEMATIC_NAME>
nitric acid; 2-(3-phenylpropoxy)guanidine

> <PUBCHEM_IUPAC_TRADITIONAL_NAME>
nitric acid; 2-(3-phenylpropoxy)guanidine

> <PUBCHEM_IUPAC_INCHI>
InChI=1S/C10H15N3O.HNO3/c11-10(12)13-14-8-4-7-9-5-2-1-3-6-9;2-1(3)4/h1-3,5-6H,4,7-8H2,(H4,11,12,13);(H,2,3,4)

> <PUBCHEM_IUPAC_INCHIKEY>
DGETYXVFFJLUNY-UHFFFAOYSA-N

> <PUBCHEM_EXACT_MASS>
256.117155

> <PUBCHEM_MOLECULAR_FORMULA>
C10H16N4O4

> <PUBCHEM_MOLECULAR_WEIGHT>
256.25844

> <PUBCHEM_OPENEYE_CAN_SMILES>
C1=CC=C(C=C1)CCCON=C(N)N.[N+](=O)(O)[O-]

> <PUBCHEM_OPENEYE_ISO_SMILES>
C1=CC=C(C=C1)CCCON=C(N)N.[N+](=O)(O)[O-]

> <PUBCHEM_CACTVS_TPSA>
140

> <PUBCHEM_MONOISOTOPIC_WEIGHT>
256.117155

> <PUBCHEM_TOTAL_CHARGE>
0

> <PUBCHEM_HEAVY_ATOM_COUNT>
18

> <PUBCHEM_ATOM_DEF_STEREO_COUNT>
0

> <PUBCHEM_ATOM_UDEF_STEREO_COUNT>
0

> <PUBCHEM_BOND_DEF_STEREO_COUNT>
0

> <PUBCHEM_BOND_UDEF_STEREO_COUNT>
0

> <PUBCHEM_ISOTOPIC_ATOM_COUNT>
0

> <PUBCHEM_COMPONENT_COUNT>
2

> <PUBCHEM_CACTVS_TAUTO_COUNT>
2

> <PUBCHEM_COORDINATE_TYPE>
1
5
255

> <PUBCHEM_BONDANNOTATIONS>
11  13  8
11  14  8
13  15  8
14  16  8
15  17  8
16  17  8

$$$$

