442510
  -OEChem-07051212582D

 46 49  0     1  0  0  0  0  0999 V2000
    7.2342   -1.2422    0.0000 O   0  0  0  0  0  0  0  0  0  0  0  0
    7.2342    0.8271    0.0000 O   0  0  0  0  0  0  0  0  0  0  0  0
    5.4679    1.8166    0.0000 O   0  0  0  0  0  0  0  0  0  0  0  0
    8.9781    1.8340    0.0000 O   0  0  0  0  0  0  0  0  0  0  0  0
    8.9942   -2.2076    0.0000 O   0  0  0  0  0  0  0  0  0  0  0  0
    2.8641   -0.7417    0.0000 O   0  0  0  0  0  0  0  0  0  0  0  0
    2.8718   -2.7417    0.0000 O   0  0  0  0  0  0  0  0  0  0  0  0
    9.8723    3.3617    0.0000 O   0  0  0  0  0  0  0  0  0  0  0  0
    6.3282   -0.7284    0.0000 C   0  0  1  0  0  0  0  0  0  0  0  0
    6.3282    0.3133    0.0000 C   0  0  1  0  0  0  0  0  0  0  0  0
    5.4641   -1.2317    0.0000 C   0  0  0  0  0  0  0  0  0  0  0  0
    8.1282    0.2924    0.0000 C   0  0  0  0  0  0  0  0  0  0  0  0
    8.1282   -0.7076    0.0000 C   0  0  0  0  0  0  0  0  0  0  0  0
    5.4641    0.8166    0.0000 C   0  0  0  0  0  0  0  0  0  0  0  0
    8.9942    0.7924    0.0000 C   0  0  0  0  0  0  0  0  0  0  0  0
    8.9942   -1.2075    0.0000 C   0  0  0  0  0  0  0  0  0  0  0  0
    9.8602    0.2924    0.0000 C   0  0  0  0  0  0  0  0  0  0  0  0
    4.5961   -0.7350    0.0000 C   0  0  0  0  0  0  0  0  0  0  0  0
    5.4679   -2.2317    0.0000 C   0  0  0  0  0  0  0  0  0  0  0  0
    9.8602   -0.7076    0.0000 C   0  0  0  0  0  0  0  0  0  0  0  0
    3.7320   -1.2384    0.0000 C   0  0  0  0  0  0  0  0  0  0  0  0
    4.6038   -2.7350    0.0000 C   0  0  0  0  0  0  0  0  0  0  0  0
   10.7702    0.7993    0.0000 C   0  0  0  0  0  0  0  0  0  0  0  0
    3.7359   -2.2384    0.0000 C   0  0  0  0  0  0  0  0  0  0  0  0
   10.7783    1.8409    0.0000 C   0  0  0  0  0  0  0  0  0  0  0  0
    9.8762    2.3617    0.0000 C   0  0  0  0  0  0  0  0  0  0  0  0
    9.8602   -2.7076    0.0000 C   0  0  0  0  0  0  0  0  0  0  0  0
    2.0000   -1.2450    0.0000 C   0  0  0  0  0  0  0  0  0  0  0  0
    5.7906   -0.4194    0.0000 H   0  0  0  0  0  0  0  0  0  0  0  0
    6.3318    0.9333    0.0000 H   0  0  0  0  0  0  0  0  0  0  0  0
    4.8539    0.9266    0.0000 H   0  0  0  0  0  0  0  0  0  0  0  0
    5.2498    0.2348    0.0000 H   0  0  0  0  0  0  0  0  0  0  0  0
    4.5937   -0.1150    0.0000 H   0  0  0  0  0  0  0  0  0  0  0  0
    6.0061   -2.5396    0.0000 H   0  0  0  0  0  0  0  0  0  0  0  0
   10.3972   -1.0176    0.0000 H   0  0  0  0  0  0  0  0  0  0  0  0
    4.6062   -3.3550    0.0000 H   0  0  0  0  0  0  0  0  0  0  0  0
   11.3035    0.4831    0.0000 H   0  0  0  0  0  0  0  0  0  0  0  0
    4.9322    2.1287    0.0000 H   0  0  0  0  0  0  0  0  0  0  0  0
   11.3164    2.1488    0.0000 H   0  0  0  0  0  0  0  0  0  0  0  0
    9.5502   -3.2445    0.0000 H   0  0  0  0  0  0  0  0  0  0  0  0
   10.3972   -3.0176    0.0000 H   0  0  0  0  0  0  0  0  0  0  0  0
   10.1702   -2.1706    0.0000 H   0  0  0  0  0  0  0  0  0  0  0  0
    2.8742   -3.3617    0.0000 H   0  0  0  0  0  0  0  0  0  0  0  0
    1.6879   -0.7093    0.0000 H   0  0  0  0  0  0  0  0  0  0  0  0
    1.4643   -1.5571    0.0000 H   0  0  0  0  0  0  0  0  0  0  0  0
    2.3121   -1.7808    0.0000 H   0  0  0  0  0  0  0  0  0  0  0  0
  1  9  1  0  0  0  0
  1 13  1  0  0  0  0
  2 10  1  0  0  0  0
  2 12  1  0  0  0  0
  3 14  1  0  0  0  0
  3 38  1  0  0  0  0
  4 15  1  0  0  0  0
  4 26  1  0  0  0  0
  5 16  1  0  0  0  0
  5 27  1  0  0  0  0
  6 21  1  0  0  0  0
  6 28  1  0  0  0  0
  7 24  1  0  0  0  0
  7 43  1  0  0  0  0
  8 26  2  0  0  0  0
  9 10  1  0  0  0  0
  9 11  1  6  0  0  0
  9 29  1  0  0  0  0
 10 14  1  1  0  0  0
 10 30  1  0  0  0  0
 11 18  2  0  0  0  0
 11 19  1  0  0  0  0
 12 13  1  0  0  0  0
 12 15  2  0  0  0  0
 13 16  2  0  0  0  0
 14 31  1  0  0  0  0
 14 32  1  0  0  0  0
 15 17  1  0  0  0  0
 16 20  1  0  0  0  0
 17 20  2  0  0  0  0
 17 23  1  0  0  0  0
 18 21  1  0  0  0  0
 18 33  1  0  0  0  0
 19 22  2  0  0  0  0
 19 34  1  0  0  0  0
 20 35  1  0  0  0  0
 21 24  2  0  0  0  0
 22 24  1  0  0  0  0
 22 36  1  0  0  0  0
 23 25  2  0  0  0  0
 23 37  1  0  0  0  0
 25 26  1  0  0  0  0
 25 39  1  0  0  0  0
 27 40  1  0  0  0  0
 27 41  1  0  0  0  0
 27 42  1  0  0  0  0
 28 44  1  0  0  0  0
 28 45  1  0  0  0  0
 28 46  1  0  0  0  0
M  END
> <PUBCHEM_COMPOUND_CID>
442510

> <PUBCHEM_COMPOUND_CANONICALIZED>
1

> <PUBCHEM_CACTVS_COMPLEXITY>
595

> <PUBCHEM_CACTVS_HBOND_ACCEPTOR>
8

> <PUBCHEM_CACTVS_HBOND_DONOR>
2

> <PUBCHEM_CACTVS_ROTATABLE_BOND>
4

> <PUBCHEM_CACTVS_SUBSKEYS>
AAADceB4PAAAAAAAAAAAAAAAAAAAAAAAAAA0YIEAAAAAAACRQAAAGgAACAAADBSgmAIyDoAABgCIAiDSCAACCAAgIAAIiAAGiMgNNyKGMRqCeiOlwBULuYfA4LwOIQABCAAIQABCAAIQABCAAAAAAAAAAA==

> <PUBCHEM_IUPAC_OPENEYE_NAME>
(2R,3R)-3-(4-hydroxy-3-methoxy-phenyl)-2-(hydroxymethyl)-5-methoxy-2,3-dihydropyrano[3,2-h][1,4]benzodioxin-9-one

> <PUBCHEM_IUPAC_CAS_NAME>
(2R,3R)-3-(4-hydroxy-3-methoxyphenyl)-2-(hydroxymethyl)-5-methoxy-2,3-dihydropyrano[3,2-h][1,4]benzodioxin-9-one

> <PUBCHEM_IUPAC_NAME>
(2R,3R)-3-(4-hydroxy-3-methoxyphenyl)-2-(hydroxymethyl)-5-methoxy-2,3-dihydropyrano[3,2-h][1,4]benzodioxin-9-one

> <PUBCHEM_IUPAC_SYSTEMATIC_NAME>
(2R,3R)-2-(hydroxymethyl)-5-methoxy-3-(3-methoxy-4-oxidanyl-phenyl)-2,3-dihydropyrano[3,2-h][1,4]benzodioxin-9-one

> <PUBCHEM_IUPAC_TRADITIONAL_NAME>
(2R,3R)-3-(4-hydroxy-3-methoxy-phenyl)-5-methoxy-2-methylol-2,3-dihydropyrano[3,2-h][1,4]benzodioxin-9-one

> <PUBCHEM_IUPAC_INCHI>
InChI=1S/C20H18O8/c1-24-13-7-10(3-5-12(13)22)17-15(9-21)26-20-18-11(4-6-16(23)27-18)8-14(25-2)19(20)28-17/h3-8,15,17,21-22H,9H2,1-2H3/t15-,17-/m1/s1

> <PUBCHEM_IUPAC_INCHIKEY>
OCBGWPJNUZMLCA-NVXWUHKLSA-N

> <PUBCHEM_XLOGP3_AA>
2.1

> <PUBCHEM_EXACT_MASS>
386.100168

> <PUBCHEM_MOLECULAR_FORMULA>
C20H18O8

> <PUBCHEM_MOLECULAR_WEIGHT>
386.35212

> <PUBCHEM_OPENEYE_CAN_SMILES>
COC1=C(C=CC(=C1)C2C(OC3=C4C(=CC(=C3O2)OC)C=CC(=O)O4)CO)O

> <PUBCHEM_OPENEYE_ISO_SMILES>
COC1=C(C=CC(=C1)[C@@H]2[C@H](OC3=C4C(=CC(=C3O2)OC)C=CC(=O)O4)CO)O

> <PUBCHEM_CACTVS_TPSA>
104

> <PUBCHEM_MONOISOTOPIC_WEIGHT>
386.100168

> <PUBCHEM_TOTAL_CHARGE>
0

> <PUBCHEM_HEAVY_ATOM_COUNT>
28

> <PUBCHEM_ATOM_DEF_STEREO_COUNT>
2

> <PUBCHEM_ATOM_UDEF_STEREO_COUNT>
0

> <PUBCHEM_BOND_DEF_STEREO_COUNT>
0

> <PUBCHEM_BOND_UDEF_STEREO_COUNT>
0

> <PUBCHEM_ISOTOPIC_ATOM_COUNT>
0

> <PUBCHEM_COMPONENT_COUNT>
1

> <PUBCHEM_CACTVS_TAUTO_COUNT>
3

> <PUBCHEM_COORDINATE_TYPE>
1
5
255

> <PUBCHEM_BONDANNOTATIONS>
10  14  5
11  18  8
11  19  8
12  13  8
12  15  8
13  16  8
15  17  8
16  20  8
17  20  8
17  23  8
18  21  8
19  22  8
21  24  8
22  24  8
23  25  8
25  26  8
4  15  8
4  26  8
9  11  6

$$$$

