   Color/Form

     * Colorless powder
     * WHITE POWDER

   from [1]HSDB

   Odor
        LOW ODOR /SRP: MAY BE DUE TO PHENOLIC IMPURITIES/
   from [2]HSDB

   Melting Point
        179-181 deg C
   from [3]HSDB

   Corrosivity
        Acid is slightly corrosive
   from [4]HSDB

   Density/Specific Gravity
        1.2085 at 20 deg C
   from [5]HSDB

   Dissociation Constants
        pKa = 2.84
   from [6]HSDB

   Octanol/Water Partition Coefficient
        log Kow = 3.80
   from [7]HSDB

   pH
        Acidic
   from [8]HSDB

   Solubilities

     * 0.014% water at 25 deg C, 15.2% acetone, 0.16% benzene, 0.024%
       carbon tetrachloride, 7.13% diethyl ether, 0.017% heptane, 10.5%
       methanol
     * In acetone 180, methanol 134, diethyl ether 98, heptane 0.86 (all
       in g/kg , 25 deg C)
     * In water, 71 mg/L at 25 deg C

   from [9]HSDB

   Spectral Properties

     * Intense mass spectral peaks: 268 m/z, 233 m/z, 209 m/z, 181 m/z
     * Intense mass spectral peaks: 196 m/z (100%), 198 m/z (95%), 97 m/z
       (40%), 200 m/z (29%)

   from [10]HSDB

   Vapor Pressure
        9.97X10-6 mm Hg at 25 deg C (est)
   from [11]HSDB

   Other Chemical/Physical Properties

     * Surface area per molecule: 59.1 sq angstrom
     * BULK DENSITY: 27.4 LB/CU FT
     * Acid is practically nonvolatile
     * /2,4,5-TP's/ acidic forming amine & alkali-metal salts which are
       sol in water, acetone, lower alcohol; insol in aromatic &
       chlorinated hydrocarbons & most non-polar organic solvents. Its
       lower alkyl esters are slightly volatile .... They are sparingly
       sol in water; very sol in most organic solvents.
     * White solids /2,4,5-TP esters/
     * MW: 269.7. Slightly volatile ... sparingly soluble in water; very
       soluble in most organic solvents /Butotyl ester/
     * Henry's Law constant = 9.06X10-9 atm-cu m/mol at 25 deg C (est)
     * Hydroxyl radical reaction rate constant = 1.09X10-11 cu
       cm/molec-sec at 25 deg C (est)

   from [12]HSDB

   Computed Properties
   Molecular Weight                  269.50908 [g/mol]
   Molecular Formula                 C[9]H[7]Cl[3]O[3]
   XLogP3                            3.8
   H-Bond Donor                      1
   H-Bond Acceptor                   3
   Rotatable Bond Count              3
   Exact Mass                        267.946077
   MonoIsotopic Mass                 267.946077
   Topological Polar Surface Area    46.5
   Heavy Atom Count                  15
   Formal Charge                     0
   Complexity                        237
   Isotope Atom Count                0
   Defined Atom Stereocenter Count   0
   Undefined Atom Stereocenter Count 1
   Defined Bond Stereocenter Count   0
   Undefined Bond Stereocenter Count 0
   Covalently-Bonded Unit Count      1
   Feature 3D Acceptor Count         3
   Feature 3D Anion Count            1
   Feature 3D Ring Count             1
   Effective Rotor Count             3
   Conformer Sampling RMSD           0.6
   CID Conformer Count               [13]29

References

   1. http://toxnet.nlm.nih.gov/cgi-bin/sis/search/r?dbs+hsdb:@term+@rn+@rel+93-72-1
   2. http://toxnet.nlm.nih.gov/cgi-bin/sis/search/r?dbs+hsdb:@term+@rn+@rel+93-72-1
   3. http://toxnet.nlm.nih.gov/cgi-bin/sis/search/r?dbs+hsdb:@term+@rn+@rel+93-72-1
   4. http://toxnet.nlm.nih.gov/cgi-bin/sis/search/r?dbs+hsdb:@term+@rn+@rel+93-72-1
   5. http://toxnet.nlm.nih.gov/cgi-bin/sis/search/r?dbs+hsdb:@term+@rn+@rel+93-72-1
   6. http://toxnet.nlm.nih.gov/cgi-bin/sis/search/r?dbs+hsdb:@term+@rn+@rel+93-72-1
   7. http://toxnet.nlm.nih.gov/cgi-bin/sis/search/r?dbs+hsdb:@term+@rn+@rel+93-72-1
   8. http://toxnet.nlm.nih.gov/cgi-bin/sis/search/r?dbs+hsdb:@term+@rn+@rel+93-72-1
   9. http://toxnet.nlm.nih.gov/cgi-bin/sis/search/r?dbs+hsdb:@term+@rn+@rel+93-72-1
  10. http://toxnet.nlm.nih.gov/cgi-bin/sis/search/r?dbs+hsdb:@term+@rn+@rel+93-72-1
  11. http://toxnet.nlm.nih.gov/cgi-bin/sis/search/r?dbs+hsdb:@term+@rn+@rel+93-72-1
  12. http://toxnet.nlm.nih.gov/cgi-bin/sis/search/r?dbs+hsdb:@term+@rn+@rel+93-72-1
  13. http://pubchem.ncbi.nlm.nih.gov/vw3d/vw3d.cgi?cid=7158
