46173345
  -OEChem-07051212512D

 67 70  0     1  0  0  0  0  0999 V2000
    5.4104    2.2406    0.0000 P   0  0  3  0  0  0  0  0  0  0  0  0
    5.0474    0.5471    0.0000 P   0  0  3  0  0  0  0  0  0  0  0  0
    4.4026   -2.9061    0.0000 O   0  0  0  0  0  0  0  0  0  0  0  0
    6.4439    4.6762    0.0000 O   0  0  0  0  0  0  0  0  0  0  0  0
    6.7523   -1.8224    0.0000 O   0  0  0  0  0  0  0  0  0  0  0  0
    6.7485   -3.9980    0.0000 O   0  0  0  0  0  0  0  0  0  0  0  0
    6.0809    2.9826    0.0000 O   0  0  0  0  0  0  0  0  0  0  0  0
    4.8514    6.7890    0.0000 O   0  0  0  0  0  0  0  0  0  0  0  0
    3.5106    5.3050    0.0000 O   0  0  0  0  0  0  0  0  0  0  0  0
    4.1253    3.4018    0.0000 O   0  0  0  0  0  0  0  0  0  0  0  0
    5.3548   -0.4045    0.0000 O   0  0  0  0  0  0  0  0  0  0  0  0
    6.4996    7.3214    0.0000 O   0  0  0  0  0  0  0  0  0  0  0  0
    4.7400    1.4986    0.0000 O   0  0  0  0  0  0  0  0  0  0  0  0
    8.4552    6.9022    0.0000 O   0  0  0  0  0  0  0  0  0  0  0  0
    4.6685    2.9110    0.0000 O   0  0  0  0  0  0  0  0  0  0  0  0
    5.9990    0.8544    0.0000 O   0  0  0  0  0  0  0  0  0  0  0  0
    6.1524    1.5702    0.0000 O   0  0  0  0  0  0  0  0  0  0  0  0
    4.0958    0.2397    0.0000 O   0  0  0  0  0  0  0  0  0  0  0  0
    4.6783   -4.6667    0.0000 N   0  0  0  0  0  0  0  0  0  0  0  0
    4.6783   -6.2761    0.0000 N   0  0  0  0  0  0  0  0  0  0  0  0
    2.8660   -4.4714    0.0000 N   0  0  0  0  0  0  0  0  0  0  0  0
    2.0000   -5.9714    0.0000 N   0  0  0  0  0  0  0  0  0  0  0  0
    2.8660   -7.4714    0.0000 N   0  0  0  0  0  0  0  0  0  0  0  0
    5.9422   -2.4088    0.0000 C   0  0  1  0  0  0  0  0  0  0  0  0
    5.9405   -3.4088    0.0000 C   0  0  2  0  0  0  0  0  0  0  0  0
    4.9917   -2.0981    0.0000 C   0  0  1  0  0  0  0  0  0  0  0  0
    4.9889   -3.7161    0.0000 C   0  0  1  0  0  0  0  0  0  0  0  0
    6.1365    5.6278    0.0000 C   0  0  1  0  0  0  0  0  0  0  0  0
    5.1588    5.8374    0.0000 C   0  0  2  0  0  0  0  0  0  0  0  0
    4.4883    5.0954    0.0000 C   0  0  1  0  0  0  0  0  0  0  0  0
    4.7957    4.1438    0.0000 C   0  0  1  0  0  0  0  0  0  0  0  0
    5.7735    3.9342    0.0000 C   0  0  1  0  0  0  0  0  0  0  0  0
    6.8070    6.3698    0.0000 C   0  0  2  0  0  0  0  0  0  0  0  0
    4.6844   -1.1465    0.0000 C   0  0  0  0  0  0  0  0  0  0  0  0
    7.7847    6.1602    0.0000 C   0  0  0  0  0  0  0  0  0  0  0  0
    3.7320   -4.9714    0.0000 C   0  0  0  0  0  0  0  0  0  0  0  0
    5.2619   -5.4714    0.0000 C   0  0  0  0  0  0  0  0  0  0  0  0
    3.7320   -5.9714    0.0000 C   0  0  0  0  0  0  0  0  0  0  0  0
    2.8660   -6.4714    0.0000 C   0  0  0  0  0  0  0  0  0  0  0  0
    2.0000   -4.9714    0.0000 C   0  0  0  0  0  0  0  0  0  0  0  0
    6.4942   -2.6912    0.0000 H   0  0  0  0  0  0  0  0  0  0  0  0
    5.8425   -4.0210    0.0000 H   0  0  0  0  0  0  0  0  0  0  0  0
    4.3795   -2.0001    0.0000 H   0  0  0  0  0  0  0  0  0  0  0  0
    5.4266   -4.1553    0.0000 H   0  0  0  0  0  0  0  0  0  0  0  0
    6.9677    5.4496    0.0000 H   0  0  0  0  0  0  0  0  0  0  0  0
    5.5744    6.2974    0.0000 H   0  0  0  0  0  0  0  0  0  0  0  0
    4.2978    5.6854    0.0000 H   0  0  0  0  0  0  0  0  0  0  0  0
    4.9863    3.5538    0.0000 H   0  0  0  0  0  0  0  0  0  0  0  0
    5.3578    3.4742    0.0000 H   0  0  0  0  0  0  0  0  0  0  0  0
    6.2007    6.4997    0.0000 H   0  0  0  0  0  0  0  0  0  0  0  0
    4.3035   -0.6573    0.0000 H   0  0  0  0  0  0  0  0  0  0  0  0
    4.1364   -1.4366    0.0000 H   0  0  0  0  0  0  0  0  0  0  0  0
    7.5515    5.5857    0.0000 H   0  0  0  0  0  0  0  0  0  0  0  0
    8.3100    5.8307    0.0000 H   0  0  0  0  0  0  0  0  0  0  0  0
    7.3182   -2.0755    0.0000 H   0  0  0  0  0  0  0  0  0  0  0  0
    7.3154   -3.7468    0.0000 H   0  0  0  0  0  0  0  0  0  0  0  0
    4.2452    6.9189    0.0000 H   0  0  0  0  0  0  0  0  0  0  0  0
    3.0949    4.8450    0.0000 H   0  0  0  0  0  0  0  0  0  0  0  0
    5.8819   -5.4714    0.0000 H   0  0  0  0  0  0  0  0  0  0  0  0
    3.5191    3.5318    0.0000 H   0  0  0  0  0  0  0  0  0  0  0  0
    6.9152    7.7814    0.0000 H   0  0  0  0  0  0  0  0  0  0  0  0
    9.0614    6.7722    0.0000 H   0  0  0  0  0  0  0  0  0  0  0  0
    4.0785    2.7205    0.0000 H   0  0  0  0  0  0  0  0  0  0  0  0
    1.4631   -4.6614    0.0000 H   0  0  0  0  0  0  0  0  0  0  0  0
    6.4590    0.4388    0.0000 H   0  0  0  0  0  0  0  0  0  0  0  0
    2.3291   -7.7814    0.0000 H   0  0  0  0  0  0  0  0  0  0  0  0
    3.4030   -7.7814    0.0000 H   0  0  0  0  0  0  0  0  0  0  0  0
  1  7  1  0  0  0  0
  1 13  1  0  0  0  0
  1 15  1  0  0  0  0
  1 17  2  0  0  0  0
  2 11  1  0  0  0  0
  2 13  1  0  0  0  0
  2 16  1  0  0  0  0
  2 18  2  0  0  0  0
  3 26  1  0  0  0  0
  3 27  1  0  0  0  0
  4 28  1  0  0  0  0
  4 32  1  0  0  0  0
 24  5  1  1  0  0  0
  5 55  1  0  0  0  0
 25  6  1  1  0  0  0
  6 56  1  0  0  0  0
 32  7  1  1  0  0  0
 29  8  1  6  0  0  0
  8 57  1  0  0  0  0
 30  9  1  1  0  0  0
  9 58  1  0  0  0  0
 31 10  1  1  0  0  0
 10 60  1  0  0  0  0
 11 34  1  0  0  0  0
 33 12  1  1  0  0  0
 12 61  1  0  0  0  0
 14 35  1  0  0  0  0
 14 62  1  0  0  0  0
 15 63  1  0  0  0  0
 16 65  1  0  0  0  0
 27 19  1  6  0  0  0
 19 36  1  0  0  0  0
 19 37  1  0  0  0  0
 20 37  2  0  0  0  0
 20 38  1  0  0  0  0
 21 36  2  0  0  0  0
 21 40  1  0  0  0  0
 22 39  1  0  0  0  0
 22 40  2  0  0  0  0
 23 39  1  0  0  0  0
 23 66  1  0  0  0  0
 23 67  1  0  0  0  0
 24 25  1  0  0  0  0
 24 26  1  0  0  0  0
 24 41  1  0  0  0  0
 25 27  1  0  0  0  0
 25 42  1  0  0  0  0
 26 34  1  6  0  0  0
 26 43  1  0  0  0  0
 27 44  1  0  0  0  0
 28 29  1  0  0  0  0
 28 33  1  0  0  0  0
 28 45  1  6  0  0  0
 29 30  1  0  0  0  0
 29 46  1  0  0  0  0
 30 31  1  0  0  0  0
 30 47  1  0  0  0  0
 31 32  1  0  0  0  0
 31 48  1  0  0  0  0
 32 49  1  0  0  0  0
 33 35  1  0  0  0  0
 33 50  1  0  0  0  0
 34 51  1  0  0  0  0
 34 52  1  0  0  0  0
 35 53  1  0  0  0  0
 35 54  1  0  0  0  0
 36 38  1  0  0  0  0
 37 59  1  0  0  0  0
 38 39  2  0  0  0  0
 40 64  1  0  0  0  0
M  END
> <PUBCHEM_COMPOUND_CID>
46173345

> <PUBCHEM_COMPOUND_CANONICALIZED>
1

> <PUBCHEM_CACTVS_COMPLEXITY>
973

> <PUBCHEM_CACTVS_HBOND_ACCEPTOR>
20

> <PUBCHEM_CACTVS_HBOND_DONOR>
10

> <PUBCHEM_CACTVS_ROTATABLE_BOND>
10

> <PUBCHEM_CACTVS_SUBSKEYS>
AAADceB7vgMAAAAAAAAAAAAAAAAAAWJAAAAsSAAAAAAAAFgB+AAAHgAQCCAACBzxlwcF+L9MFxCgQQZhZICAgC0REKABUCAoVBCTWAJAyEAeRAgPAALXACHw8CYAAAAAAAAAAAAAAAAAAAAAAAAAAAAAAA==

> <PUBCHEM_IUPAC_OPENEYE_NAME>
[[(2R,3S,4R,5R)-5-(6-aminopurin-9-yl)-3,4-dihydroxy-tetrahydrofuran-2-yl]methoxy-hydroxy-phosphoryl] [(2S,3S,4S,5S,6R)-6-[(1S)-1,2-dihydroxyethyl]-3,4,5-trihydroxy-tetrahydropyran-2-yl] hydrogen phosphate

> <PUBCHEM_IUPAC_CAS_NAME>
[[(2R,3S,4R,5R)-5-(6-aminopurin-9-yl)-3,4-dihydroxy-2-oxolanyl]methoxy-hydroxyphosphoryl] [(2S,3S,4S,5S,6R)-6-[(1S)-1,2-dihydroxyethyl]-3,4,5-trihydroxy-2-oxanyl] hydrogen phosphate

> <PUBCHEM_IUPAC_NAME>
[[(2R,3S,4R,5R)-5-(6-aminopurin-9-yl)-3,4-dihydroxyoxolan-2-yl]methoxy-hydroxyphosphoryl] [(2S,3S,4S,5S,6R)-6-[(1S)-1,2-dihydroxyethyl]-3,4,5-trihydroxyoxan-2-yl] hydrogen phosphate

> <PUBCHEM_IUPAC_SYSTEMATIC_NAME>
[[(2R,3S,4R,5R)-5-(6-aminopurin-9-yl)-3,4-bis(oxidanyl)oxolan-2-yl]methoxy-oxidanyl-phosphoryl] [(2S,3S,4S,5S,6R)-6-[(1S)-1,2-bis(oxidanyl)ethyl]-3,4,5-tris(oxidanyl)oxan-2-yl] hydrogen phosphate

> <PUBCHEM_IUPAC_TRADITIONAL_NAME>
[[(2R,3S,4R,5R)-5-adenin-9-yl-3,4-dihydroxy-tetrahydrofuran-2-yl]methoxy-hydroxy-phosphoryl] [(2S,3S,4S,5S,6R)-6-[(1S)-1,2-dihydroxyethyl]-3,4,5-trihydroxy-tetrahydropyran-2-yl] hydrogen phosphate

> <PUBCHEM_IUPAC_INCHI>
InChI=1S/C17H27N5O16P2/c18-14-7-15(20-3-19-14)22(4-21-7)16-11(28)8(25)6(35-16)2-34-39(30,31)38-40(32,33)37-17-12(29)9(26)10(27)13(36-17)5(24)1-23/h3-6,8-13,16-17,23-29H,1-2H2,(H,30,31)(H,32,33)(H2,18,19,20)/t5-,6+,8+,9-,10-,11+,12-,13+,16+,17-/m0/s1

> <PUBCHEM_IUPAC_INCHIKEY>
KMSFWBYFWSKGGR-DTBZDYEHSA-N

> <PUBCHEM_XLOGP3>
-6.8

> <PUBCHEM_EXACT_MASS>
619.092803

> <PUBCHEM_MOLECULAR_FORMULA>
C17H27N5O16P2

> <PUBCHEM_MOLECULAR_WEIGHT>
619.367704

> <PUBCHEM_OPENEYE_CAN_SMILES>
C1=NC2=C(C(=N1)N)N=CN2C3C(C(C(O3)COP(=O)(O)OP(=O)(O)OC4C(C(C(C(O4)C(CO)O)O)O)O)O)O

> <PUBCHEM_OPENEYE_ISO_SMILES>
C1=NC2=C(C(=N1)N)N=CN2[C@H]3[C@@H]([C@@H]([C@H](O3)COP(=O)(O)OP(=O)(O)O[C@H]4[C@H]([C@H]([C@@H]([C@H](O4)[C@H](CO)O)O)O)O)O)O

> <PUBCHEM_CACTVS_TPSA>
332

> <PUBCHEM_MONOISOTOPIC_WEIGHT>
619.092803

> <PUBCHEM_TOTAL_CHARGE>
0

> <PUBCHEM_HEAVY_ATOM_COUNT>
40

> <PUBCHEM_ATOM_DEF_STEREO_COUNT>
10

> <PUBCHEM_ATOM_UDEF_STEREO_COUNT>
0

> <PUBCHEM_BOND_DEF_STEREO_COUNT>
0

> <PUBCHEM_BOND_UDEF_STEREO_COUNT>
0

> <PUBCHEM_ISOTOPIC_ATOM_COUNT>
0

> <PUBCHEM_COMPONENT_COUNT>
1

> <PUBCHEM_CACTVS_TAUTO_COUNT>
3

> <PUBCHEM_COORDINATE_TYPE>
1
5
255

> <PUBCHEM_BONDANNOTATIONS>
31  10  5
33  12  5
27  19  6
19  36  8
19  37  8
20  37  8
20  38  8
21  36  8
21  40  8
22  39  8
22  40  8
26  34  6
28  45  6
36  38  8
38  39  8
24  5  5
25  6  5
32  7  5
29  8  6
30  9  5

$$$$

