47205064
  -OEChem-06241222582D

 29 31  0     0  0  0  0  0  0999 V2000
    9.7250    0.3047    0.0000 O   0  0  0  0  0  0  0  0  0  0  0  0
    9.7250   -1.3047    0.0000 O   0  0  0  0  0  0  0  0  0  0  0  0
    6.1808    1.5000    0.0000 O   0  0  0  0  0  0  0  0  0  0  0  0
    5.3147    0.0000    0.0000 N   0  0  0  0  0  0  0  0  0  0  0  0
    2.6691    0.4067    0.0000 N   0  0  0  0  0  0  0  0  0  0  0  0
    2.0000   -0.3364    0.0000 N   0  0  0  0  0  0  0  0  0  0  0  0
    7.0468    0.0000    0.0000 C   0  0  0  0  0  0  0  0  0  0  0  0
    8.7788    0.0000    0.0000 C   0  0  0  0  0  0  0  0  0  0  0  0
    8.7788   -1.0000    0.0000 C   0  0  0  0  0  0  0  0  0  0  0  0
    7.9128    0.5000    0.0000 C   0  0  0  0  0  0  0  0  0  0  0  0
    4.4487    0.5000    0.0000 C   0  0  0  0  0  0  0  0  0  0  0  0
    7.0468   -1.0000    0.0000 C   0  0  0  0  0  0  0  0  0  0  0  0
    7.9128   -1.5000    0.0000 C   0  0  0  0  0  0  0  0  0  0  0  0
    6.1808    0.5000    0.0000 C   0  0  0  0  0  0  0  0  0  0  0  0
    3.5827    0.0000    0.0000 C   0  0  0  0  0  0  0  0  0  0  0  0
   10.3087   -0.5000    0.0000 C   0  0  0  0  0  0  0  0  0  0  0  0
    3.4782   -0.9945    0.0000 C   0  0  0  0  0  0  0  0  0  0  0  0
    2.5000   -1.2024    0.0000 C   0  0  0  0  0  0  0  0  0  0  0  0
    7.9128    1.1200    0.0000 H   0  0  0  0  0  0  0  0  0  0  0  0
    4.8472    0.9749    0.0000 H   0  0  0  0  0  0  0  0  0  0  0  0
    4.0502    0.9749    0.0000 H   0  0  0  0  0  0  0  0  0  0  0  0
    6.5098   -1.3100    0.0000 H   0  0  0  0  0  0  0  0  0  0  0  0
    7.9128   -2.1200    0.0000 H   0  0  0  0  0  0  0  0  0  0  0  0
    5.3147   -0.6200    0.0000 H   0  0  0  0  0  0  0  0  0  0  0  0
   10.7695   -0.9147    0.0000 H   0  0  0  0  0  0  0  0  0  0  0  0
   10.7695   -0.0853    0.0000 H   0  0  0  0  0  0  0  0  0  0  0  0
    3.9389   -1.4094    0.0000 H   0  0  0  0  0  0  0  0  0  0  0  0
    2.5402    1.0132    0.0000 H   0  0  0  0  0  0  0  0  0  0  0  0
    2.2478   -1.7688    0.0000 H   0  0  0  0  0  0  0  0  0  0  0  0
  1  8  1  0  0  0  0
  1 16  1  0  0  0  0
  2  9  1  0  0  0  0
  2 16  1  0  0  0  0
  3 14  2  0  0  0  0
  4 11  1  0  0  0  0
  4 14  1  0  0  0  0
  4 24  1  0  0  0  0
  5  6  1  0  0  0  0
  5 15  1  0  0  0  0
  5 28  1  0  0  0  0
  6 18  2  0  0  0  0
  7 10  2  0  0  0  0
  7 12  1  0  0  0  0
  7 14  1  0  0  0  0
  8  9  2  0  0  0  0
  8 10  1  0  0  0  0
  9 13  1  0  0  0  0
 10 19  1  0  0  0  0
 11 15  1  0  0  0  0
 11 20  1  0  0  0  0
 11 21  1  0  0  0  0
 12 13  2  0  0  0  0
 12 22  1  0  0  0  0
 13 23  1  0  0  0  0
 15 17  2  0  0  0  0
 16 25  1  0  0  0  0
 16 26  1  0  0  0  0
 17 18  1  0  0  0  0
 17 27  1  0  0  0  0
 18 29  1  0  0  0  0
M  END
> <PUBCHEM_COMPOUND_CID>
47205064

> <PUBCHEM_COMPOUND_CANONICALIZED>
1

> <PUBCHEM_CACTVS_COMPLEXITY>
313

> <PUBCHEM_CACTVS_HBOND_ACCEPTOR>
4

> <PUBCHEM_CACTVS_HBOND_DONOR>
2

> <PUBCHEM_CACTVS_ROTATABLE_BOND>
3

> <PUBCHEM_CACTVS_SUBSKEYS>
AAADccBzMAAAAAAAAAAAAAAAAAAAAWJAAAAwAAAAAAAAAEgBwAAAHgAYAAAADAzBngc8jpLjBACqAzV3UACSDAAkogAYuaE+7NgdZrKE9du0tSpk3hGO6Ye63BLOIAABAAAAQABAAAIAAACAAAAAAAAAAA==

> <PUBCHEM_IUPAC_OPENEYE_NAME>
N-(1H-pyrazol-5-ylmethyl)-1,3-benzodioxole-5-carboxamide

> <PUBCHEM_IUPAC_CAS_NAME>
N-(1H-pyrazol-5-ylmethyl)-1,3-benzodioxole-5-carboxamide

> <PUBCHEM_IUPAC_NAME>
N-(1H-pyrazol-5-ylmethyl)-1,3-benzodioxole-5-carboxamide

> <PUBCHEM_IUPAC_SYSTEMATIC_NAME>
N-(1H-pyrazol-5-ylmethyl)-1,3-benzodioxole-5-carboxamide

> <PUBCHEM_IUPAC_TRADITIONAL_NAME>
N-(1H-pyrazol-5-ylmethyl)-piperonylamide

> <PUBCHEM_IUPAC_INCHI>
InChI=1S/C12H11N3O3/c16-12(13-6-9-3-4-14-15-9)8-1-2-10-11(5-8)18-7-17-10/h1-5H,6-7H2,(H,13,16)(H,14,15)

> <PUBCHEM_IUPAC_INCHIKEY>
SEHDXNRDSIPRQL-UHFFFAOYSA-N

> <PUBCHEM_XLOGP3_AA>
0.8

> <PUBCHEM_EXACT_MASS>
245.080041

> <PUBCHEM_MOLECULAR_FORMULA>
C12H11N3O3

> <PUBCHEM_MOLECULAR_WEIGHT>
245.23404

> <PUBCHEM_OPENEYE_CAN_SMILES>
C1OC2=C(O1)C=C(C=C2)C(=O)NCC3=CC=NN3

> <PUBCHEM_OPENEYE_ISO_SMILES>
C1OC2=C(O1)C=C(C=C2)C(=O)NCC3=CC=NN3

> <PUBCHEM_CACTVS_TPSA>
76.2

> <PUBCHEM_MONOISOTOPIC_WEIGHT>
245.080041

> <PUBCHEM_TOTAL_CHARGE>
0

> <PUBCHEM_HEAVY_ATOM_COUNT>
18

> <PUBCHEM_ATOM_DEF_STEREO_COUNT>
0

> <PUBCHEM_ATOM_UDEF_STEREO_COUNT>
0

> <PUBCHEM_BOND_DEF_STEREO_COUNT>
0

> <PUBCHEM_BOND_UDEF_STEREO_COUNT>
0

> <PUBCHEM_ISOTOPIC_ATOM_COUNT>
0

> <PUBCHEM_COMPONENT_COUNT>
1

> <PUBCHEM_CACTVS_TAUTO_COUNT>
4

> <PUBCHEM_COORDINATE_TYPE>
1
5
255

> <PUBCHEM_BONDANNOTATIONS>
12  13  8
15  17  8
17  18  8
5  15  8
5  6  8
6  18  8
7  10  8
7  12  8
8  10  8
8  9  8
9  13  8

$$$$

