   Color/Form

     * VISCOUS, HYGROSCOPIC LIQUID
     * Yellow liquid

   from [1]HSDB

   Odor
        AMMONIACAL; DIAGREEABLE, PENETRATING
   from [2]HSDB

   Boiling Point
        340.30 DEG C @ 760 MM HG
   from [3]HSDB

   Melting Point
        FP: -30 DEG C
   from [4]HSDB

   Density/Specific Gravity
        0.9980 @ 20 DEG C/20 DEG C
   from [5]HSDB

   Dissociation Constants
        pKa1= 9.68; pKa2= 9.10; pKa3= 8.08; pKa4= 4.72; pKa5= 2.98
   from [6]HSDB

   Heat of Vaporization
        63.3 kJ/mol @ 1 atm
   from [7]HSDB

   Octanol/Water Partition Coefficient
        log Kow= 1.503
   from [8]HSDB

   pH
        ALKALINE
   from [9]HSDB

   Solubilities
        SOL IN MOST ORGANIC SOLVENTS & WATER
   from [10]HSDB

   Spectral Properties

     * SADTLER REFERENCE NUMBER: 5320 (IR, PRISM)
     * IR: 15545 (Sadtler Research Laboratories IR Grating Collection)
     * NMR: 9439 (Sadtler Research Laboratories Spectral Collection)
     * INDEX OF REFRACTION: 1.5042 @ 20 DEG C/D

   from [11]HSDB

   Vapor Density
        6.53 (AIR= 1)
   from [12]HSDB

   Vapor Pressure
        8.0X10-7 mm Hg at 25 deg C
   from [13]HSDB

   Viscosity
        96.2 cP @ 20 deg C
   from [14]HSDB

   Other Chemical/Physical Properties

     * Bulk density 8.3 lb/gal
     * Vapor pressure= <1 Torr @ 20 deg C
     * Vapor pressure: > 0.01 mm Hg @ 20 deg C
     * Henry's Law constant= 3X10-20 atm-cu m/mole at 25 deg C

   from [15]HSDB

   Computed Properties
   Molecular Weight                  189.30172 [g/mol]
   Molecular Formula                 C[8]H[23]N[5]
   XLogP3-AA                         -2.9
   H-Bond Donor                      5
   H-Bond Acceptor                   5
   Rotatable Bond Count              10
   Exact Mass                        189.195346
   MonoIsotopic Mass                 189.195346
   Topological Polar Surface Area    88.1
   Heavy Atom Count                  13
   Formal Charge                     0
   Complexity                        78.6
   Isotope Atom Count                0
   Defined Atom Stereocenter Count   0
   Undefined Atom Stereocenter Count 0
   Defined Bond Stereocenter Count   0
   Undefined Bond Stereocenter Count 0
   Covalently-Bonded Unit Count      1
   Feature 3D Donor Count            5
   Feature 3D Cation Count           5
   Effective Rotor Count             10
   Conformer Sampling RMSD           0.8
   CID Conformer Count               [16]46

References

   1. http://toxnet.nlm.nih.gov/cgi-bin/sis/search/r?dbs+hsdb:@term+@rn+@rel+112-57-2
   2. http://toxnet.nlm.nih.gov/cgi-bin/sis/search/r?dbs+hsdb:@term+@rn+@rel+112-57-2
   3. http://toxnet.nlm.nih.gov/cgi-bin/sis/search/r?dbs+hsdb:@term+@rn+@rel+112-57-2
   4. http://toxnet.nlm.nih.gov/cgi-bin/sis/search/r?dbs+hsdb:@term+@rn+@rel+112-57-2
   5. http://toxnet.nlm.nih.gov/cgi-bin/sis/search/r?dbs+hsdb:@term+@rn+@rel+112-57-2
   6. http://toxnet.nlm.nih.gov/cgi-bin/sis/search/r?dbs+hsdb:@term+@rn+@rel+112-57-2
   7. http://toxnet.nlm.nih.gov/cgi-bin/sis/search/r?dbs+hsdb:@term+@rn+@rel+112-57-2
   8. http://toxnet.nlm.nih.gov/cgi-bin/sis/search/r?dbs+hsdb:@term+@rn+@rel+112-57-2
   9. http://toxnet.nlm.nih.gov/cgi-bin/sis/search/r?dbs+hsdb:@term+@rn+@rel+112-57-2
  10. http://toxnet.nlm.nih.gov/cgi-bin/sis/search/r?dbs+hsdb:@term+@rn+@rel+112-57-2
  11. http://toxnet.nlm.nih.gov/cgi-bin/sis/search/r?dbs+hsdb:@term+@rn+@rel+112-57-2
  12. http://toxnet.nlm.nih.gov/cgi-bin/sis/search/r?dbs+hsdb:@term+@rn+@rel+112-57-2
  13. http://toxnet.nlm.nih.gov/cgi-bin/sis/search/r?dbs+hsdb:@term+@rn+@rel+112-57-2
  14. http://toxnet.nlm.nih.gov/cgi-bin/sis/search/r?dbs+hsdb:@term+@rn+@rel+112-57-2
  15. http://toxnet.nlm.nih.gov/cgi-bin/sis/search/r?dbs+hsdb:@term+@rn+@rel+112-57-2
  16. http://pubchem.ncbi.nlm.nih.gov/vw3d/vw3d.cgi?cid=8197
