439555
  -OEChem-07051212462D

 45 46  0     1  0  0  0  0  0999 V2000
    5.0298   -1.3118    0.0000 O   0  0  0  0  0  0  0  0  0  0  0  0
    4.8086    0.0850    0.0000 O   0  0  0  0  0  0  0  0  0  0  0  0
    7.3909    0.7895    0.0000 O   0  0  0  0  0  0  0  0  0  0  0  0
    2.4608   -1.0028    0.0000 O   0  0  0  0  0  0  0  0  0  0  0  0
    5.1308    2.0495    0.0000 O   0  0  0  0  0  0  0  0  0  0  0  0
    3.1330   -3.0719    0.0000 O   0  0  0  0  0  0  0  0  0  0  0  0
    6.8909    3.3283    0.0000 O   0  0  0  0  0  0  0  0  0  0  0  0
    8.6510    1.4315    0.0000 O   0  0  0  0  0  0  0  0  0  0  0  0
    4.0398    0.9985    0.0000 O   0  0  0  0  0  0  0  0  0  0  0  0
    6.3031   -2.9674    0.0000 O   0  0  0  0  0  0  0  0  0  0  0  0
    9.2822    2.4450    0.0000 O   0  0  0  0  0  0  0  0  0  0  0  0
    4.2208   -0.7240    0.0000 C   0  0  1  0  0  0  0  0  0  0  0  0
    3.4118   -1.3118    0.0000 C   0  0  2  0  0  0  0  0  0  0  0  0
    6.3909    0.7895    0.0000 C   0  0  1  0  0  0  0  0  0  0  0  0
    6.0819    1.7405    0.0000 C   0  0  2  0  0  0  0  0  0  0  0  0
    3.7208   -2.2629    0.0000 C   0  0  1  0  0  0  0  0  0  0  0  0
    6.8909    2.3283    0.0000 C   0  0  1  0  0  0  0  0  0  0  0  0
    4.7208   -2.2629    0.0000 C   0  0  1  0  0  0  0  0  0  0  0  0
    7.6999    1.7405    0.0000 C   0  0  1  0  0  0  0  0  0  0  0  0
    5.8031   -0.0196    0.0000 C   0  0  0  0  0  0  0  0  0  0  0  0
    3.6330    0.0850    0.0000 C   0  0  0  0  0  0  0  0  0  0  0  0
    5.3086   -3.0719    0.0000 C   0  0  0  0  0  0  0  0  0  0  0  0
    8.2877    2.5495    0.0000 C   0  0  0  0  0  0  0  0  0  0  0  0
    3.3148   -0.6995    0.0000 H   0  0  0  0  0  0  0  0  0  0  0  0
    6.6724    0.2370    0.0000 H   0  0  0  0  0  0  0  0  0  0  0  0
    5.9849    2.3529    0.0000 H   0  0  0  0  0  0  0  0  0  0  0  0
    3.1085   -2.1659    0.0000 H   0  0  0  0  0  0  0  0  0  0  0  0
    7.4433    2.6098    0.0000 H   0  0  0  0  0  0  0  0  0  0  0  0
    5.3332   -2.1659    0.0000 H   0  0  0  0  0  0  0  0  0  0  0  0
    5.6322   -0.6155    0.0000 H   0  0  0  0  0  0  0  0  0  0  0  0
    6.3604   -0.2913    0.0000 H   0  0  0  0  0  0  0  0  0  0  0  0
    3.1190    0.4317    0.0000 H   0  0  0  0  0  0  0  0  0  0  0  0
    3.2024   -0.3610    0.0000 H   0  0  0  0  0  0  0  0  0  0  0  0
    4.7514   -3.3437    0.0000 H   0  0  0  0  0  0  0  0  0  0  0  0
    5.4795   -3.6679    0.0000 H   0  0  0  0  0  0  0  0  0  0  0  0
    8.4586    3.1455    0.0000 H   0  0  0  0  0  0  0  0  0  0  0  0
    7.7305    2.8213    0.0000 H   0  0  0  0  0  0  0  0  0  0  0  0
    2.0000   -1.4177    0.0000 H   0  0  0  0  0  0  0  0  0  0  0  0
    5.0019    2.6560    0.0000 H   0  0  0  0  0  0  0  0  0  0  0  0
    3.3852   -3.6383    0.0000 H   0  0  0  0  0  0  0  0  0  0  0  0
    6.3540    3.6383    0.0000 H   0  0  0  0  0  0  0  0  0  0  0  0
    8.7799    0.8250    0.0000 H   0  0  0  0  0  0  0  0  0  0  0  0
    3.6754    1.5001    0.0000 H   0  0  0  0  0  0  0  0  0  0  0  0
    6.6676   -3.4690    0.0000 H   0  0  0  0  0  0  0  0  0  0  0  0
    9.6467    2.9466    0.0000 H   0  0  0  0  0  0  0  0  0  0  0  0
  1 12  1  0  0  0  0
  1 18  1  0  0  0  0
 12  2  1  6  0  0  0
  2 20  1  0  0  0  0
  3 14  1  0  0  0  0
  3 19  1  0  0  0  0
 13  4  1  6  0  0  0
  4 38  1  0  0  0  0
 15  5  1  1  0  0  0
  5 39  1  0  0  0  0
 16  6  1  1  0  0  0
  6 40  1  0  0  0  0
 17  7  1  6  0  0  0
  7 41  1  0  0  0  0
 19  8  1  6  0  0  0
  8 42  1  0  0  0  0
  9 21  1  0  0  0  0
  9 43  1  0  0  0  0
 10 22  1  0  0  0  0
 10 44  1  0  0  0  0
 11 23  1  0  0  0  0
 11 45  1  0  0  0  0
 12 13  1  0  0  0  0
 12 21  1  0  0  0  0
 13 16  1  0  0  0  0
 13 24  1  0  0  0  0
 14 15  1  0  0  0  0
 14 20  1  6  0  0  0
 14 25  1  0  0  0  0
 15 17  1  0  0  0  0
 15 26  1  0  0  0  0
 16 18  1  0  0  0  0
 16 27  1  0  0  0  0
 17 19  1  0  0  0  0
 17 28  1  0  0  0  0
 18 22  1  6  0  0  0
 18 29  1  0  0  0  0
 19 23  1  0  0  0  0
 20 30  1  0  0  0  0
 20 31  1  0  0  0  0
 21 32  1  0  0  0  0
 21 33  1  0  0  0  0
 22 34  1  0  0  0  0
 22 35  1  0  0  0  0
 23 36  1  0  0  0  0
 23 37  1  0  0  0  0
M  END
> <PUBCHEM_COMPOUND_CID>
439555

> <PUBCHEM_COMPOUND_CANONICALIZED>
1

> <PUBCHEM_CACTVS_COMPLEXITY>
409

> <PUBCHEM_CACTVS_HBOND_ACCEPTOR>
11

> <PUBCHEM_CACTVS_HBOND_DONOR>
8

> <PUBCHEM_CACTVS_ROTATABLE_BOND>
6

> <PUBCHEM_CACTVS_SUBSKEYS>
AAADceBwPAAAAAAAAAAAAAAAAAAAASJAAAAAAAAAAAAAAAAAAAAAGgAACAAACBSggAIACAAABgAAAAAAAAAAAAAAAAAAAAAAAAAREAIAAAAiQAAFAAAHAAHAYAwAAAAAAAAAAAAAAAAAAAAAAAAAAAAAAA==

> <PUBCHEM_IUPAC_OPENEYE_NAME>
(2R,3S,4S,5R)-5-[[(2R,3S,4S,5R)-3,4-dihydroxy-2,5-bis(hydroxymethyl)tetrahydrofuran-2-yl]oxymethyl]-2-(hydroxymethyl)tetrahydrofuran-2,3,4-triol

> <PUBCHEM_IUPAC_CAS_NAME>
(2R,3S,4S,5R)-5-[[(2R,3S,4S,5R)-3,4-dihydroxy-2,5-bis(hydroxymethyl)-2-oxolanyl]oxymethyl]-2-(hydroxymethyl)oxolane-2,3,4-triol

> <PUBCHEM_IUPAC_NAME>
(2R,3S,4S,5R)-5-[[(2R,3S,4S,5R)-3,4-dihydroxy-2,5-bis(hydroxymethyl)oxolan-2-yl]oxymethyl]-2-(hydroxymethyl)oxolane-2,3,4-triol

> <PUBCHEM_IUPAC_SYSTEMATIC_NAME>
(2R,3S,4S,5R)-5-[[(2R,3S,4S,5R)-2,5-bis(hydroxymethyl)-3,4-bis(oxidanyl)oxolan-2-yl]oxymethyl]-2-(hydroxymethyl)oxolane-2,3,4-triol

> <PUBCHEM_IUPAC_TRADITIONAL_NAME>
(2R,3S,4S,5R)-5-[[(2R,3S,4S,5R)-3,4-dihydroxy-2,5-dimethylol-tetrahydrofuran-2-yl]oxymethyl]-2-methylol-tetrahydrofuran-2,3,4-triol

> <PUBCHEM_IUPAC_INCHI>
InChI=1S/C12H22O11/c13-1-5-7(16)10(19)12(4-15,23-5)21-2-6-8(17)9(18)11(20,3-14)22-6/h5-10,13-20H,1-4H2/t5-,6-,7-,8-,9+,10+,11-,12-/m1/s1

> <PUBCHEM_IUPAC_INCHIKEY>
FEXBYMWJVRXRSN-TWOHWVPZSA-N

> <PUBCHEM_XLOGP3_AA>
-4.1

> <PUBCHEM_EXACT_MASS>
342.116212

> <PUBCHEM_MOLECULAR_FORMULA>
C12H22O11

> <PUBCHEM_MOLECULAR_WEIGHT>
342.29648

> <PUBCHEM_OPENEYE_CAN_SMILES>
C(C1C(C(C(O1)(CO)OCC2C(C(C(O2)(CO)O)O)O)O)O)O

> <PUBCHEM_OPENEYE_ISO_SMILES>
C([C@@H]1[C@H]([C@@H]([C@](O1)(CO)OC[C@@H]2[C@H]([C@@H]([C@](O2)(CO)O)O)O)O)O)O

> <PUBCHEM_CACTVS_TPSA>
190

> <PUBCHEM_MONOISOTOPIC_WEIGHT>
342.116212

> <PUBCHEM_TOTAL_CHARGE>
0

> <PUBCHEM_HEAVY_ATOM_COUNT>
23

> <PUBCHEM_ATOM_DEF_STEREO_COUNT>
8

> <PUBCHEM_ATOM_UDEF_STEREO_COUNT>
0

> <PUBCHEM_BOND_DEF_STEREO_COUNT>
0

> <PUBCHEM_BOND_UDEF_STEREO_COUNT>
0

> <PUBCHEM_ISOTOPIC_ATOM_COUNT>
0

> <PUBCHEM_COMPONENT_COUNT>
1

> <PUBCHEM_CACTVS_TAUTO_COUNT>
1

> <PUBCHEM_COORDINATE_TYPE>
1
5
255

> <PUBCHEM_BONDANNOTATIONS>
14  20  6
18  22  6
12  2  6
13  4  6
15  5  5
16  6  5
17  7  6
19  8  6

$$$$

