4202
  -OEChem-06251223572D

 34 35  0     0  0  0  0  0  0999 V2000
    3.7690   -3.0000    0.0000 S   0  0  0  0  0  0  0  0  0  0  0  0
    4.2690   -2.1340    0.0000 O   0  0  0  0  0  0  0  0  0  0  0  0
    4.6351   -3.5000    0.0000 O   0  5  0  0  0  0  0  0  0  0  0  0
    3.2689   -3.8660    0.0000 O   0  0  0  0  0  0  0  0  0  0  0  0
    2.9030   -2.5000    0.0000 O   0  0  0  0  0  0  0  0  0  0  0  0
    4.2690    1.8660    0.0000 N   0  0  0  0  0  0  0  0  0  0  0  0
    3.4030    0.3660    0.0000 N   0  0  0  0  0  0  0  0  0  0  0  0
    4.2690   -1.1340    0.0000 N   0  3  0  0  0  0  0  0  0  0  0  0
    6.0010   -1.1340    0.0000 N   0  0  0  0  0  0  0  0  0  0  0  0
    2.5369   -1.1340    0.0000 N   0  0  0  0  0  0  0  0  0  0  0  0
    4.2690    3.8660    0.0000 C   0  0  0  0  0  0  0  0  0  0  0  0
    5.1350    3.3660    0.0000 C   0  0  0  0  0  0  0  0  0  0  0  0
    3.4030    3.3660    0.0000 C   0  0  0  0  0  0  0  0  0  0  0  0
    5.1350    2.3660    0.0000 C   0  0  0  0  0  0  0  0  0  0  0  0
    3.4030    2.3660    0.0000 C   0  0  0  0  0  0  0  0  0  0  0  0
    4.2690    0.8660    0.0000 C   0  0  0  0  0  0  0  0  0  0  0  0
    5.1350    0.3660    0.0000 C   0  0  0  0  0  0  0  0  0  0  0  0
    5.1350   -0.6340    0.0000 C   0  0  0  0  0  0  0  0  0  0  0  0
    3.4030   -0.6340    0.0000 C   0  0  0  0  0  0  0  0  0  0  0  0
    4.6675    4.3410    0.0000 H   0  0  0  0  0  0  0  0  0  0  0  0
    3.8705    4.3410    0.0000 H   0  0  0  0  0  0  0  0  0  0  0  0
    5.7456    3.2584    0.0000 H   0  0  0  0  0  0  0  0  0  0  0  0
    5.3471    3.9486    0.0000 H   0  0  0  0  0  0  0  0  0  0  0  0
    3.1909    3.9486    0.0000 H   0  0  0  0  0  0  0  0  0  0  0  0
    2.7924    3.2584    0.0000 H   0  0  0  0  0  0  0  0  0  0  0  0
    5.3471    1.7834    0.0000 H   0  0  0  0  0  0  0  0  0  0  0  0
    5.7456    2.4737    0.0000 H   0  0  0  0  0  0  0  0  0  0  0  0
    2.7924    2.4737    0.0000 H   0  0  0  0  0  0  0  0  0  0  0  0
    3.1909    1.7834    0.0000 H   0  0  0  0  0  0  0  0  0  0  0  0
    5.6720    0.6760    0.0000 H   0  0  0  0  0  0  0  0  0  0  0  0
    6.5380   -0.8240    0.0000 H   0  0  0  0  0  0  0  0  0  0  0  0
    6.0010   -1.7540    0.0000 H   0  0  0  0  0  0  0  0  0  0  0  0
    2.0000   -0.8240    0.0000 H   0  0  0  0  0  0  0  0  0  0  0  0
    2.2270   -1.6710    0.0000 H   0  0  0  0  0  0  0  0  0  0  0  0
  1  2  1  0  0  0  0
  1  3  1  0  0  0  0
  1  4  2  0  0  0  0
  1  5  2  0  0  0  0
  2  8  1  0  0  0  0
  6 14  1  0  0  0  0
  6 15  1  0  0  0  0
  6 16  1  0  0  0  0
  7 16  2  0  0  0  0
  7 19  1  0  0  0  0
  8 18  1  0  0  0  0
  8 19  2  0  0  0  0
  9 18  1  0  0  0  0
  9 31  1  0  0  0  0
  9 32  1  0  0  0  0
 10 19  1  0  0  0  0
 10 33  1  0  0  0  0
 10 34  1  0  0  0  0
 11 12  1  0  0  0  0
 11 13  1  0  0  0  0
 11 20  1  0  0  0  0
 11 21  1  0  0  0  0
 12 14  1  0  0  0  0
 12 22  1  0  0  0  0
 12 23  1  0  0  0  0
 13 15  1  0  0  0  0
 13 24  1  0  0  0  0
 13 25  1  0  0  0  0
 14 26  1  0  0  0  0
 14 27  1  0  0  0  0
 15 28  1  0  0  0  0
 15 29  1  0  0  0  0
 16 17  1  0  0  0  0
 17 18  2  0  0  0  0
 17 30  1  0  0  0  0
M  CHG  2   3  -1   8   1
M  END
> <PUBCHEM_COMPOUND_CID>
4202

> <PUBCHEM_COMPOUND_CANONICALIZED>
1

> <PUBCHEM_CACTVS_COMPLEXITY>
381

> <PUBCHEM_CACTVS_HBOND_ACCEPTOR>
8

> <PUBCHEM_CACTVS_HBOND_DONOR>
2

> <PUBCHEM_CACTVS_ROTATABLE_BOND>
2

> <PUBCHEM_CACTVS_SUBSKEYS>
AAADccBzuABAAAAAAAAAAAAAAAAAAAAAAAAsWAAAAAAAAAABgAAAHAAUAAAACADBEgQxsJdYEACgACJiZDCAgCkBAqAhECA4ZBCACAJAyEAEBAgIEALAACAQAAAAAAAAAAAAAAAAAAAAAAAAAAAAAAAAAA==

> <PUBCHEM_IUPAC_OPENEYE_NAME>
[2,6-diamino-4-(1-piperidyl)pyrimidin-1-ium-1-yl] sulfate

> <PUBCHEM_IUPAC_CAS_NAME>
[2,6-diamino-4-(1-piperidinyl)-1-pyrimidin-1-iumyl] sulfate

> <PUBCHEM_IUPAC_NAME>
(2,6-diamino-4-piperidin-1-ylpyrimidin-1-ium-1-yl) sulfate

> <PUBCHEM_IUPAC_SYSTEMATIC_NAME>
[2,6-bis(azanyl)-4-piperidin-1-yl-pyrimidin-1-ium-1-yl] sulfate

> <PUBCHEM_IUPAC_TRADITIONAL_NAME>
(2,6-diamino-4-piperidino-pyrimidin-1-ium-1-yl) sulfate

> <PUBCHEM_IUPAC_INCHI>
InChI=1S/C9H15N5O4S/c10-7-6-8(13-4-2-1-3-5-13)12-9(11)14(7)18-19(15,16)17/h6H,1-5H2,(H4,10,11,12,15,16,17)

> <PUBCHEM_IUPAC_INCHIKEY>
OEOLOEUAGSPDLT-UHFFFAOYSA-N

> <PUBCHEM_XLOGP3>
1.8

> <PUBCHEM_EXACT_MASS>
289.084475

> <PUBCHEM_MOLECULAR_FORMULA>
C9H15N5O4S

> <PUBCHEM_MOLECULAR_WEIGHT>
289.3115

> <PUBCHEM_OPENEYE_CAN_SMILES>
C1CCN(CC1)C2=CC(=[N+](C(=N2)N)OS(=O)(=O)[O-])N

> <PUBCHEM_OPENEYE_ISO_SMILES>
C1CCN(CC1)C2=CC(=[N+](C(=N2)N)OS(=O)(=O)[O-])N

> <PUBCHEM_CACTVS_TPSA>
147

> <PUBCHEM_MONOISOTOPIC_WEIGHT>
289.084475

> <PUBCHEM_TOTAL_CHARGE>
0

> <PUBCHEM_HEAVY_ATOM_COUNT>
19

> <PUBCHEM_ATOM_DEF_STEREO_COUNT>
0

> <PUBCHEM_ATOM_UDEF_STEREO_COUNT>
0

> <PUBCHEM_BOND_DEF_STEREO_COUNT>
0

> <PUBCHEM_BOND_UDEF_STEREO_COUNT>
0

> <PUBCHEM_ISOTOPIC_ATOM_COUNT>
0

> <PUBCHEM_COMPONENT_COUNT>
1

> <PUBCHEM_CACTVS_TAUTO_COUNT>
9

> <PUBCHEM_COORDINATE_TYPE>
1
5
255

> <PUBCHEM_BONDANNOTATIONS>
16  17  8
17  18  8
7  16  8
7  19  8
8  18  8
8  19  8

$$$$

