108179
  -OEChem-07051213042D

 54 58  0     1  0  0  0  0  0999 V2000
    2.3968   -0.9075    0.0000 O   0  0  0  0  0  0  0  0  0  0  0  0
    3.8106    1.0385    0.0000 O   0  0  0  0  0  0  0  0  0  0  0  0
    4.0567    1.8087    0.0000 O   0  0  0  0  0  0  0  0  0  0  0  0
    4.1061   -2.1681    0.0000 O   0  0  0  0  0  0  0  0  0  0  0  0
    5.0707   -0.2216    0.0000 O   0  0  0  0  0  0  0  0  0  0  0  0
    6.0131    1.3934    0.0000 O   0  0  0  0  0  0  0  0  0  0  0  0
    2.3764   -2.2588    0.0000 O   0  0  0  0  0  0  0  0  0  0  0  0
    8.0807    1.8294    0.0000 O   0  0  0  0  0  0  0  0  0  0  0  0
    3.3106   -0.5004    0.0000 C   0  0  1  0  0  0  0  0  0  0  0  0
    2.5016    0.0874    0.0000 C   0  0  1  0  0  0  0  0  0  0  0  0
    2.8106    1.0385    0.0000 C   0  0  1  0  0  0  0  0  0  0  0  0
    3.7478    2.7602    0.0000 C   0  0  2  0  0  0  0  0  0  0  0  0
    3.0185    2.0166    0.0000 C   0  0  0  0  0  0  0  0  0  0  0  0
    4.0538   -1.1695    0.0000 C   0  0  2  0  0  0  0  0  0  0  0  0
    4.7259    2.5523    0.0000 C   0  0  2  0  0  0  0  0  0  0  0  0
    4.1196    0.0874    0.0000 C   0  0  0  0  0  0  0  0  0  0  0  0
    5.0048   -0.8605    0.0000 C   0  0  0  0  0  0  0  0  0  0  0  0
    3.4390    3.7114    0.0000 C   0  0  0  0  0  0  0  0  0  0  0  0
    5.8958   -1.3145    0.0000 C   0  0  1  0  0  0  0  0  0  0  0  0
    5.0349    1.6013    0.0000 C   0  0  0  0  0  0  0  0  0  0  0  0
    6.3498   -0.4235    0.0000 C   0  0  0  0  0  0  0  0  0  0  0  0
    5.8052    0.4152    0.0000 C   0  0  0  0  0  0  0  0  0  0  0  0
    5.9615    1.9501    0.0000 C   0  0  0  0  0  0  0  0  0  0  0  0
    6.7868   -1.7684    0.0000 C   0  0  0  0  0  0  0  0  0  0  0  0
    6.5007    1.1198    0.0000 C   0  0  0  0  0  0  0  0  0  0  0  0
    3.2674   -2.7128    0.0000 C   0  0  0  0  0  0  0  0  0  0  0  0
    7.6255   -1.2238    0.0000 C   0  0  0  0  0  0  0  0  0  0  0  0
    6.8392   -2.7671    0.0000 C   0  0  0  0  0  0  0  0  0  0  0  0
    7.4956    1.0185    0.0000 C   0  0  0  0  0  0  0  0  0  0  0  0
    3.3198   -3.7114    0.0000 C   0  0  0  0  0  0  0  0  0  0  0  0
    1.8139    0.5870    0.0000 H   0  0  0  0  0  0  0  0  0  0  0  0
    1.9896    1.2585    0.0000 H   0  0  0  0  0  0  0  0  0  0  0  0
    2.7431    2.5721    0.0000 H   0  0  0  0  0  0  0  0  0  0  0  0
    3.5648    1.7235    0.0000 H   0  0  0  0  0  0  0  0  0  0  0  0
    3.5338   -1.5072    0.0000 H   0  0  0  0  0  0  0  0  0  0  0  0
    4.9025    3.3838    0.0000 H   0  0  0  0  0  0  0  0  0  0  0  0
    5.4197   -0.3997    0.0000 H   0  0  0  0  0  0  0  0  0  0  0  0
    4.6671   -0.3405    0.0000 H   0  0  0  0  0  0  0  0  0  0  0  0
    4.0287    3.9028    0.0000 H   0  0  0  0  0  0  0  0  0  0  0  0
    3.2476    4.3011    0.0000 H   0  0  0  0  0  0  0  0  0  0  0  0
    2.8493    3.5199    0.0000 H   0  0  0  0  0  0  0  0  0  0  0  0
    5.9283   -1.9336    0.0000 H   0  0  0  0  0  0  0  0  0  0  0  0
    6.8450   -0.7966    0.0000 H   0  0  0  0  0  0  0  0  0  0  0  0
    6.8032   -0.0006    0.0000 H   0  0  0  0  0  0  0  0  0  0  0  0
    6.1550    2.5391    0.0000 H   0  0  0  0  0  0  0  0  0  0  0  0
    7.9632   -1.7438    0.0000 H   0  0  0  0  0  0  0  0  0  0  0  0
    8.1455   -0.8861    0.0000 H   0  0  0  0  0  0  0  0  0  0  0  0
    7.2878   -0.7038    0.0000 H   0  0  0  0  0  0  0  0  0  0  0  0
    6.3192   -3.1048    0.0000 H   0  0  0  0  0  0  0  0  0  0  0  0
    7.3916   -3.0486    0.0000 H   0  0  0  0  0  0  0  0  0  0  0  0
    7.7496    0.4529    0.0000 H   0  0  0  0  0  0  0  0  0  0  0  0
    2.7006   -3.7438    0.0000 H   0  0  0  0  0  0  0  0  0  0  0  0
    3.3522   -4.3305    0.0000 H   0  0  0  0  0  0  0  0  0  0  0  0
    3.9389   -3.6789    0.0000 H   0  0  0  0  0  0  0  0  0  0  0  0
  9  1  1  6  0  0  0
  1 10  1  0  0  0  0
  2 11  1  0  0  0  0
  2 16  1  0  0  0  0
  3 12  1  0  0  0  0
  3 15  1  0  0  0  0
 14  4  1  6  0  0  0
  4 26  1  0  0  0  0
  5 16  2  0  0  0  0
  6 20  1  0  0  0  0
  6 22  1  0  0  0  0
  7 26  2  0  0  0  0
  8 29  2  0  0  0  0
  9 10  1  0  0  0  0
  9 14  1  0  0  0  0
  9 16  1  0  0  0  0
 10 11  1  0  0  0  0
 10 31  1  1  0  0  0
 11 13  1  0  0  0  0
 11 32  1  6  0  0  0
 12 13  1  0  0  0  0
 12 15  1  0  0  0  0
 12 18  1  1  0  0  0
 13 33  1  0  0  0  0
 13 34  1  0  0  0  0
 14 17  1  0  0  0  0
 14 35  1  0  0  0  0
 15 20  1  0  0  0  0
 15 36  1  1  0  0  0
 17 19  1  0  0  0  0
 17 37  1  0  0  0  0
 17 38  1  0  0  0  0
 18 39  1  0  0  0  0
 18 40  1  0  0  0  0
 18 41  1  0  0  0  0
 19 21  1  0  0  0  0
 19 24  1  1  0  0  0
 19 42  1  0  0  0  0
 20 23  2  0  0  0  0
 21 22  1  0  0  0  0
 21 43  1  0  0  0  0
 21 44  1  0  0  0  0
 22 25  2  0  0  0  0
 23 25  1  0  0  0  0
 23 45  1  0  0  0  0
 24 27  1  0  0  0  0
 24 28  2  0  0  0  0
 25 29  1  0  0  0  0
 26 30  1  0  0  0  0
 27 46  1  0  0  0  0
 27 47  1  0  0  0  0
 27 48  1  0  0  0  0
 28 49  1  0  0  0  0
 28 50  1  0  0  0  0
 29 51  1  0  0  0  0
 30 52  1  0  0  0  0
 30 53  1  0  0  0  0
 30 54  1  0  0  0  0
M  END
> <PUBCHEM_COMPOUND_CID>
108179

> <PUBCHEM_COMPOUND_CANONICALIZED>
1

> <PUBCHEM_CACTVS_COMPLEXITY>
809

> <PUBCHEM_CACTVS_HBOND_ACCEPTOR>
8

> <PUBCHEM_CACTVS_HBOND_DONOR>
0

> <PUBCHEM_CACTVS_ROTATABLE_BOND>
4

> <PUBCHEM_CACTVS_SUBSKEYS>
AAADceB4PAAAAAAAAAAAAAAAEiQAASJAAAAkAAAAAAAAAAABgAAAGgAAAAAADVSgmAIyDIAABECIAqjSiAICCAAkIAAAiAFGCMgNJjaMNR6CGWCl4BEKqYfL7PzOAAAAAAAAAAAAAAAAAAAAAAAAAAAAAA==

> <PUBCHEM_IUPAC_INCHI>
InChI=1S/C22H24O8/c1-10(2)12-5-14-13(9-23)6-15(27-14)18-21(4,29-18)8-16-19-22(30-19,20(25)28-16)17(7-12)26-11(3)24/h6,9,12,16-19H,1,5,7-8H2,2-4H3/t12-,16-,17+,18+,19-,21-,22-/m1/s1

> <PUBCHEM_IUPAC_INCHIKEY>
KGRIGHVGXOOCOY-ALYDTWDZSA-N

> <PUBCHEM_XLOGP3_AA>
1.8

> <PUBCHEM_EXACT_MASS>
416.147118

> <PUBCHEM_MOLECULAR_FORMULA>
C22H24O8

> <PUBCHEM_MOLECULAR_WEIGHT>
416.42116

> <PUBCHEM_OPENEYE_CAN_SMILES>
CC(=C)C1CC(C23C(O2)C(CC4(C(O4)C5=CC(=C(C1)O5)C=O)C)OC3=O)OC(=O)C

> <PUBCHEM_OPENEYE_ISO_SMILES>
CC(=C)[C@H]1C[C@@H]([C@]23[C@H](O2)[C@@H](C[C@@]4([C@@H](O4)C5=CC(=C(C1)O5)C=O)C)OC3=O)OC(=O)C

> <PUBCHEM_CACTVS_TPSA>
108

> <PUBCHEM_MONOISOTOPIC_WEIGHT>
416.147118

> <PUBCHEM_TOTAL_CHARGE>
0

> <PUBCHEM_HEAVY_ATOM_COUNT>
30

> <PUBCHEM_ATOM_DEF_STEREO_COUNT>
7

> <PUBCHEM_ATOM_UDEF_STEREO_COUNT>
0

> <PUBCHEM_BOND_DEF_STEREO_COUNT>
0

> <PUBCHEM_BOND_UDEF_STEREO_COUNT>
0

> <PUBCHEM_ISOTOPIC_ATOM_COUNT>
0

> <PUBCHEM_COMPONENT_COUNT>
1

> <PUBCHEM_CACTVS_TAUTO_COUNT>
1

> <PUBCHEM_COORDINATE_TYPE>
1
5
255

> <PUBCHEM_BONDANNOTATIONS>
9  1  6
10  31  5
11  32  6
12  18  5
15  36  5
19  24  5
20  23  8
22  25  8
23  25  8
14  4  6
6  20  8
6  22  8

$$$$

