5513
  -OEChem-06261200432D

155164  0     1  0  0  0  0  0999 V2000
    5.5954   -7.6136    0.0000 O   0  0  0  0  0  0  0  0  0  0  0  0
   12.0027   -2.2344    0.0000 O   0  0  0  0  0  0  0  0  0  0  0  0
   12.8630   -0.7311    0.0000 O   0  0  0  0  0  0  0  0  0  0  0  0
   10.2668   -1.2411    0.0000 O   0  0  0  0  0  0  0  0  0  0  0  0
   10.2591    0.7589    0.0000 O   0  0  0  0  0  0  0  0  0  0  0  0
   11.9873    1.7656    0.0000 O   0  0  0  0  0  0  0  0  0  0  0  0
   14.5912    0.2756    0.0000 O   0  0  0  0  0  0  0  0  0  0  0  0
   13.7194    1.7722    0.0000 O   0  0  0  0  0  0  0  0  0  0  0  0
   11.9796    3.7656    0.0000 O   0  0  0  0  0  0  0  0  0  0  0  0
   13.7078    4.7722    0.0000 O   0  0  0  0  0  0  0  0  0  0  0  0
   15.4437    3.7789    0.0000 O   0  0  0  0  0  0  0  0  0  0  0  0
   11.6723    5.4701    0.0000 O   0  0  0  0  0  0  0  0  0  0  0  0
   15.4552    0.7789    0.0000 O   0  0  0  0  0  0  0  0  0  0  0  0
   15.4398    4.7789    0.0000 O   0  0  0  0  0  0  0  0  0  0  0  0
   10.0113    3.4107    0.0000 O   0  0  0  0  0  0  0  0  0  0  0  0
    8.7199    4.9378    0.0000 O   0  0  0  0  0  0  0  0  0  0  0  0
   13.7001    6.7722    0.0000 O   0  0  0  0  0  0  0  0  0  0  0  0
    9.3967    6.8198    0.0000 O   0  0  0  0  0  0  0  0  0  0  0  0
   15.4283    7.7789    0.0000 O   0  0  0  0  0  0  0  0  0  0  0  0
   17.1642    6.7856    0.0000 O   0  0  0  0  0  0  0  0  0  0  0  0
   10.7192    7.9382    0.0000 O   0  0  0  0  0  0  0  0  0  0  0  0
    4.6359   -8.1141    0.0000 N   0  0  0  0  0  0  0  0  0  0  0  0
    6.6628   -5.3788    0.0000 C   0  0  3  0  0  0  0  0  0  0  0  0
    7.5288   -5.8788    0.0000 C   0  0  3  0  0  0  0  0  0  0  0  0
    5.9258   -6.0459    0.0000 C   0  0  3  0  0  0  0  0  0  0  0  0
    8.3948   -5.3788    0.0000 C   0  0  3  0  0  0  0  0  0  0  0  0
    8.3948   -4.3788    0.0000 C   0  0  3  0  0  0  0  0  0  0  0  0
    6.3309   -6.9537    0.0000 C   0  0  3  0  0  0  0  0  0  0  0  0
    9.2888   -3.8441    0.0000 C   0  0  3  0  0  0  0  0  0  0  0  0
    7.3196   -6.8506    0.0000 C   0  0  0  0  0  0  0  0  0  0  0  0
    6.6628   -4.3788    0.0000 C   0  0  0  0  0  0  0  0  0  0  0  0
    4.9434   -6.1526    0.0000 C   0  0  3  0  0  0  0  0  0  0  0  0
    7.5288   -3.8788    0.0000 C   0  0  0  0  0  0  0  0  0  0  0  0
   10.1949   -4.3580    0.0000 C   0  0  3  0  0  0  0  0  0  0  0  0
    9.2888   -5.9134    0.0000 C   0  0  0  0  0  0  0  0  0  0  0  0
    4.7396   -7.1195    0.0000 C   0  0  3  0  0  0  0  0  0  0  0  0
   10.1949   -5.3996    0.0000 C   0  0  0  0  0  0  0  0  0  0  0  0
    5.7968   -4.8788    0.0000 C   0  0  0  0  0  0  0  0  0  0  0  0
    9.2637   -2.7594    0.0000 C   0  0  0  0  0  0  0  0  0  0  0  0
   11.1386   -3.8227    0.0000 C   0  0  0  0  0  0  0  0  0  0  0  0
    8.4189   -3.3508    0.0000 C   0  0  0  0  0  0  0  0  0  0  0  0
    3.9300   -6.5324    0.0000 C   0  0  0  0  0  0  0  0  0  0  0  0
    4.2723   -5.4112    0.0000 C   0  0  0  0  0  0  0  0  0  0  0  0
   10.1949   -2.2025    0.0000 C   0  0  0  0  0  0  0  0  0  0  0  0
   11.1386   -2.7377    0.0000 C   0  0  3  0  0  0  0  0  0  0  0  0
    3.0169   -6.9400    0.0000 C   0  0  0  0  0  0  0  0  0  0  0  0
    3.7227   -8.5217    0.0000 C   0  0  0  0  0  0  0  0  0  0  0  0
    2.9132   -7.9346    0.0000 C   0  0  3  0  0  0  0  0  0  0  0  0
    2.0000   -8.3421    0.0000 C   0  0  0  0  0  0  0  0  0  0  0  0
   11.9989   -1.2344    0.0000 C   0  0  3  0  0  0  0  0  0  0  0  0
   11.1309   -0.7378    0.0000 C   0  0  3  0  0  0  0  0  0  0  0  0
   11.1271    0.2622    0.0000 C   0  0  3  0  0  0  0  0  0  0  0  0
   12.8591    0.2689    0.0000 C   0  0  3  0  0  0  0  0  0  0  0  0
   11.9912    0.7656    0.0000 C   0  0  3  0  0  0  0  0  0  0  0  0
   13.7232    0.7722    0.0000 C   0  0  0  0  0  0  0  0  0  0  0  0
   12.8514    2.2689    0.0000 C   0  0  3  0  0  0  0  0  0  0  0  0
   12.8476    3.2689    0.0000 C   0  0  3  0  0  0  0  0  0  0  0  0
   13.7116    3.7722    0.0000 C   0  0  3  0  0  0  0  0  0  0  0  0
   14.5834    2.2756    0.0000 C   0  0  3  0  0  0  0  0  0  0  0  0
   14.5796    3.2756    0.0000 C   0  0  3  0  0  0  0  0  0  0  0  0
   15.4514    1.7789    0.0000 C   0  0  0  0  0  0  0  0  0  0  0  0
   11.3339    4.5291    0.0000 C   0  0  3  0  0  0  0  0  0  0  0  0
   14.5719    5.2756    0.0000 C   0  0  3  0  0  0  0  0  0  0  0  0
   10.3497    4.3517    0.0000 C   0  0  3  0  0  0  0  0  0  0  0  0
    9.7040    5.1152    0.0000 C   0  0  3  0  0  0  0  0  0  0  0  0
   14.5680    6.2755    0.0000 C   0  0  3  0  0  0  0  0  0  0  0  0
   11.0265    6.2337    0.0000 C   0  0  3  0  0  0  0  0  0  0  0  0
   10.0424    6.0562    0.0000 C   0  0  3  0  0  0  0  0  0  0  0  0
   15.4321    6.7789    0.0000 C   0  0  3  0  0  0  0  0  0  0  0  0
   16.3039    5.2822    0.0000 C   0  0  0  0  0  0  0  0  0  0  0  0
   16.3001    6.2822    0.0000 C   0  0  3  0  0  0  0  0  0  0  0  0
   11.3649    7.1747    0.0000 C   0  0  0  0  0  0  0  0  0  0  0  0
    8.2158   -6.3793    0.0000 H   0  0  0  0  0  0  0  0  0  0  0  0
    5.5777   -5.2704    0.0000 H   0  0  0  0  0  0  0  0  0  0  0  0
    8.3883   -6.2288    0.0000 H   0  0  0  0  0  0  0  0  0  0  0  0
    8.3883   -3.5288    0.0000 H   0  0  0  0  0  0  0  0  0  0  0  0
    6.6756   -7.7306    0.0000 H   0  0  0  0  0  0  0  0  0  0  0  0
    7.3187   -7.4706    0.0000 H   0  0  0  0  0  0  0  0  0  0  0  0
    7.9361   -6.9167    0.0000 H   0  0  0  0  0  0  0  0  0  0  0  0
    6.4507   -3.7962    0.0000 H   0  0  0  0  0  0  0  0  0  0  0  0
    6.0522   -4.4864    0.0000 H   0  0  0  0  0  0  0  0  0  0  0  0
    4.1228   -6.3743    0.0000 H   0  0  0  0  0  0  0  0  0  0  0  0
    7.9274   -3.4038    0.0000 H   0  0  0  0  0  0  0  0  0  0  0  0
    7.1303   -3.4038    0.0000 H   0  0  0  0  0  0  0  0  0  0  0  0
   10.9293   -4.7858    0.0000 H   0  0  0  0  0  0  0  0  0  0  0  0
    8.8842   -6.3832    0.0000 H   0  0  0  0  0  0  0  0  0  0  0  0
    9.6824   -6.3925    0.0000 H   0  0  0  0  0  0  0  0  0  0  0  0
   10.4039   -5.9833    0.0000 H   0  0  0  0  0  0  0  0  0  0  0  0
   10.8057   -5.2935    0.0000 H   0  0  0  0  0  0  0  0  0  0  0  0
    6.1068   -4.3418    0.0000 H   0  0  0  0  0  0  0  0  0  0  0  0
    5.2598   -4.5688    0.0000 H   0  0  0  0  0  0  0  0  0  0  0  0
    5.4868   -5.4157    0.0000 H   0  0  0  0  0  0  0  0  0  0  0  0
    9.0412   -2.1807    0.0000 H   0  0  0  0  0  0  0  0  0  0  0  0
    8.6555   -2.8796    0.0000 H   0  0  0  0  0  0  0  0  0  0  0  0
   11.3477   -4.4064    0.0000 H   0  0  0  0  0  0  0  0  0  0  0  0
   11.7495   -3.7166    0.0000 H   0  0  0  0  0  0  0  0  0  0  0  0
    8.7248   -2.8115    0.0000 H   0  0  0  0  0  0  0  0  0  0  0  0
    7.8796   -3.0450    0.0000 H   0  0  0  0  0  0  0  0  0  0  0  0
    8.1131   -3.8901    0.0000 H   0  0  0  0  0  0  0  0  0  0  0  0
    4.3757   -6.1014    0.0000 H   0  0  0  0  0  0  0  0  0  0  0  0
    3.5829   -6.0187    0.0000 H   0  0  0  0  0  0  0  0  0  0  0  0
    4.7320   -4.9951    0.0000 H   0  0  0  0  0  0  0  0  0  0  0  0
    3.8562   -4.9515    0.0000 H   0  0  0  0  0  0  0  0  0  0  0  0
    3.8126   -5.8272    0.0000 H   0  0  0  0  0  0  0  0  0  0  0  0
   10.5885   -1.7235    0.0000 H   0  0  0  0  0  0  0  0  0  0  0  0
    9.7903   -1.7327    0.0000 H   0  0  0  0  0  0  0  0  0  0  0  0
   11.1337   -1.8878    0.0000 H   0  0  0  0  0  0  0  0  0  0  0  0
    5.1378   -8.4781    0.0000 H   0  0  0  0  0  0  0  0  0  0  0  0
    2.8664   -6.3385    0.0000 H   0  0  0  0  0  0  0  0  0  0  0  0
    2.3984   -6.9838    0.0000 H   0  0  0  0  0  0  0  0  0  0  0  0
    3.2771   -8.9527    0.0000 H   0  0  0  0  0  0  0  0  0  0  0  0
    4.0699   -9.0354    0.0000 H   0  0  0  0  0  0  0  0  0  0  0  0
    2.8251   -8.7800    0.0000 H   0  0  0  0  0  0  0  0  0  0  0  0
    1.7473   -7.7759    0.0000 H   0  0  0  0  0  0  0  0  0  0  0  0
    1.4338   -8.5948    0.0000 H   0  0  0  0  0  0  0  0  0  0  0  0
    2.2527   -8.9083    0.0000 H   0  0  0  0  0  0  0  0  0  0  0  0
   11.2644   -1.6622    0.0000 H   0  0  0  0  0  0  0  0  0  0  0  0
   10.3932   -0.3156    0.0000 H   0  0  0  0  0  0  0  0  0  0  0  0
   11.1238    1.1122    0.0000 H   0  0  0  0  0  0  0  0  0  0  0  0
   13.5969   -0.1532    0.0000 H   0  0  0  0  0  0  0  0  0  0  0  0
   11.2534    1.1877    0.0000 H   0  0  0  0  0  0  0  0  0  0  0  0
    9.7287   -0.9332    0.0000 H   0  0  0  0  0  0  0  0  0  0  0  0
   14.1199    1.2487    0.0000 H   0  0  0  0  0  0  0  0  0  0  0  0
   13.3229    1.2456    0.0000 H   0  0  0  0  0  0  0  0  0  0  0  0
   10.2567    1.3789    0.0000 H   0  0  0  0  0  0  0  0  0  0  0  0
   12.8547    1.4189    0.0000 H   0  0  0  0  0  0  0  0  0  0  0  0
   14.5935   -0.3444    0.0000 H   0  0  0  0  0  0  0  0  0  0  0  0
   12.8443    4.1189    0.0000 H   0  0  0  0  0  0  0  0  0  0  0  0
   14.4461    4.2001    0.0000 H   0  0  0  0  0  0  0  0  0  0  0  0
   14.5867    1.4256    0.0000 H   0  0  0  0  0  0  0  0  0  0  0  0
   14.5763    4.1256    0.0000 H   0  0  0  0  0  0  0  0  0  0  0  0
   16.0624    1.6736    0.0000 H   0  0  0  0  0  0  0  0  0  0  0  0
   15.6612    2.3623    0.0000 H   0  0  0  0  0  0  0  0  0  0  0  0
   11.0462    3.7293    0.0000 H   0  0  0  0  0  0  0  0  0  0  0  0
   15.9818    3.4710    0.0000 H   0  0  0  0  0  0  0  0  0  0  0  0
   13.8341    5.6977    0.0000 H   0  0  0  0  0  0  0  0  0  0  0  0
    9.5132    4.2008    0.0000 H   0  0  0  0  0  0  0  0  0  0  0  0
    9.1551    5.7642    0.0000 H   0  0  0  0  0  0  0  0  0  0  0  0
   14.5648    7.1255    0.0000 H   0  0  0  0  0  0  0  0  0  0  0  0
   15.9934    0.4710    0.0000 H   0  0  0  0  0  0  0  0  0  0  0  0
   11.8630    6.3845    0.0000 H   0  0  0  0  0  0  0  0  0  0  0  0
   10.3300    6.8561    0.0000 H   0  0  0  0  0  0  0  0  0  0  0  0
   16.1666    7.2067    0.0000 H   0  0  0  0  0  0  0  0  0  0  0  0
    9.4012    3.3006    0.0000 H   0  0  0  0  0  0  0  0  0  0  0  0
   16.5182    4.7004    0.0000 H   0  0  0  0  0  0  0  0  0  0  0  0
   16.9141    5.3922    0.0000 H   0  0  0  0  0  0  0  0  0  0  0  0
   16.2968    7.1322    0.0000 H   0  0  0  0  0  0  0  0  0  0  0  0
   11.9031    6.8668    0.0000 H   0  0  0  0  0  0  0  0  0  0  0  0
   11.7616    7.6512    0.0000 H   0  0  0  0  0  0  0  0  0  0  0  0
    8.3195    5.4112    0.0000 H   0  0  0  0  0  0  0  0  0  0  0  0
   13.6977    7.3922    0.0000 H   0  0  0  0  0  0  0  0  0  0  0  0
    8.7865    6.7098    0.0000 H   0  0  0  0  0  0  0  0  0  0  0  0
   15.9640    8.0909    0.0000 H   0  0  0  0  0  0  0  0  0  0  0  0
   17.7023    6.4776    0.0000 H   0  0  0  0  0  0  0  0  0  0  0  0
   10.9290    8.5217    0.0000 H   0  0  0  0  0  0  0  0  0  0  0  0
  1 28  1  0  0  0  0
  1 36  1  0  0  0  0
  2 45  1  0  0  0  0
  2 50  1  0  0  0  0
  3 50  1  0  0  0  0
  3 53  1  0  0  0  0
  4 51  1  0  0  0  0
  4122  1  0  0  0  0
  5 52  1  0  0  0  0
  5125  1  0  0  0  0
  6 54  1  0  0  0  0
  6 56  1  0  0  0  0
  7 55  1  0  0  0  0
  7127  1  0  0  0  0
  8 56  1  0  0  0  0
  8 59  1  0  0  0  0
  9 57  1  0  0  0  0
  9 62  1  0  0  0  0
 10 58  1  0  0  0  0
 10 63  1  0  0  0  0
 11 60  1  0  0  0  0
 11135  1  0  0  0  0
 12 62  1  0  0  0  0
 12 67  1  0  0  0  0
 13 61  1  0  0  0  0
 13140  1  0  0  0  0
 14 63  1  0  0  0  0
 14 70  1  0  0  0  0
 15 64  1  0  0  0  0
 15144  1  0  0  0  0
 16 65  1  0  0  0  0
 16150  1  0  0  0  0
 17 66  1  0  0  0  0
 17151  1  0  0  0  0
 18 68  1  0  0  0  0
 18152  1  0  0  0  0
 19 69  1  0  0  0  0
 19153  1  0  0  0  0
 20 71  1  0  0  0  0
 20154  1  0  0  0  0
 21 72  1  0  0  0  0
 21155  1  0  0  0  0
 22 36  1  0  0  0  0
 22 47  1  0  0  0  0
 22108  1  0  0  0  0
 23 24  1  0  0  0  0
 23 25  1  0  0  0  0
 23 31  1  0  0  0  0
 23 38  1  0  0  0  0
 24 26  1  0  0  0  0
 24 30  1  0  0  0  0
 24 73  1  0  0  0  0
 25 28  1  0  0  0  0
 25 32  1  0  0  0  0
 25 74  1  0  0  0  0
 26 27  1  0  0  0  0
 26 35  1  0  0  0  0
 26 75  1  0  0  0  0
 27 29  1  0  0  0  0
 27 33  1  0  0  0  0
 27 76  1  0  0  0  0
 28 30  1  0  0  0  0
 28 77  1  0  0  0  0
 29 34  1  0  0  0  0
 29 39  1  0  0  0  0
 29 41  1  0  0  0  0
 30 78  1  0  0  0  0
 30 79  1  0  0  0  0
 31 33  1  0  0  0  0
 31 80  1  0  0  0  0
 31 81  1  0  0  0  0
 32 36  1  0  0  0  0
 32 43  1  0  0  0  0
 32 82  1  0  0  0  0
 33 83  1  0  0  0  0
 33 84  1  0  0  0  0
 34 37  1  0  0  0  0
 34 40  1  0  0  0  0
 34 85  1  0  0  0  0
 35 37  1  0  0  0  0
 35 86  1  0  0  0  0
 35 87  1  0  0  0  0
 36 42  1  0  0  0  0
 37 88  1  0  0  0  0
 37 89  1  0  0  0  0
 38 90  1  0  0  0  0
 38 91  1  0  0  0  0
 38 92  1  0  0  0  0
 39 44  1  0  0  0  0
 39 93  1  0  0  0  0
 39 94  1  0  0  0  0
 40 45  1  0  0  0  0
 40 95  1  0  0  0  0
 40 96  1  0  0  0  0
 41 97  1  0  0  0  0
 41 98  1  0  0  0  0
 41 99  1  0  0  0  0
 42 46  1  0  0  0  0
 42100  1  0  0  0  0
 42101  1  0  0  0  0
 43102  1  0  0  0  0
 43103  1  0  0  0  0
 43104  1  0  0  0  0
 44 45  1  0  0  0  0
 44105  1  0  0  0  0
 44106  1  0  0  0  0
 45107  1  0  0  0  0
 46 48  1  0  0  0  0
 46109  1  0  0  0  0
 46110  1  0  0  0  0
 47 48  1  0  0  0  0
 47111  1  0  0  0  0
 47112  1  0  0  0  0
 48 49  1  0  0  0  0
 48113  1  0  0  0  0
 49114  1  0  0  0  0
 49115  1  0  0  0  0
 49116  1  0  0  0  0
 50 51  1  0  0  0  0
 50117  1  0  0  0  0
 51 52  1  0  0  0  0
 51118  1  0  0  0  0
 52 54  1  0  0  0  0
 52119  1  0  0  0  0
 53 54  1  0  0  0  0
 53 55  1  0  0  0  0
 53120  1  0  0  0  0
 54121  1  0  0  0  0
 55123  1  0  0  0  0
 55124  1  0  0  0  0
 56 57  1  0  0  0  0
 56126  1  0  0  0  0
 57 58  1  0  0  0  0
 57128  1  0  0  0  0
 58 60  1  0  0  0  0
 58129  1  0  0  0  0
 59 60  1  0  0  0  0
 59 61  1  0  0  0  0
 59130  1  0  0  0  0
 60131  1  0  0  0  0
 61132  1  0  0  0  0
 61133  1  0  0  0  0
 62 64  1  0  0  0  0
 62134  1  0  0  0  0
 63 66  1  0  0  0  0
 63136  1  0  0  0  0
 64 65  1  0  0  0  0
 64137  1  0  0  0  0
 65 68  1  0  0  0  0
 65138  1  0  0  0  0
 66 69  1  0  0  0  0
 66139  1  0  0  0  0
 67 68  1  0  0  0  0
 67 72  1  0  0  0  0
 67141  1  0  0  0  0
 68142  1  0  0  0  0
 69 71  1  0  0  0  0
 69143  1  0  0  0  0
 70 71  1  0  0  0  0
 70145  1  0  0  0  0
 70146  1  0  0  0  0
 71147  1  0  0  0  0
 72148  1  0  0  0  0
 72149  1  0  0  0  0
M  END
> <PUBCHEM_COMPOUND_CID>
5513

> <PUBCHEM_COMPOUND_CANONICALIZED>
1

> <PUBCHEM_CACTVS_COMPLEXITY>
1840

> <PUBCHEM_CACTVS_HBOND_ACCEPTOR>
22

> <PUBCHEM_CACTVS_HBOND_DONOR>
13

> <PUBCHEM_CACTVS_ROTATABLE_BOND>
11

> <PUBCHEM_CACTVS_SUBSKEYS>
AAADcfB+PgAAAAAAAAAAAAAAAAAAAaIAAAA8aNEiQAASAGDAAAAAHgAQCAAADxzxgAcCCALABgAAAAAAAAAAAAAAAAAAAIAIAAEREAIAgAAuQAAFEACHAAHw8PwPgAAAAAAAAADAAAYAACAAAYAADAAAAA==

> <PUBCHEM_IUPAC_INCHI>
InChI=1S/C50H83NO21/c1-20-7-12-50(51-15-20)21(2)32-28(72-50)14-26-24-6-5-22-13-23(8-10-48(22,3)25(24)9-11-49(26,32)4)65-45-40(63)37(60)41(31(18-54)68-45)69-47-43(71-46-39(62)36(59)34(57)29(16-52)66-46)42(35(58)30(17-53)67-47)70-44-38(61)33(56)27(55)19-64-44/h20-47,51-63H,5-19H2,1-4H3

> <PUBCHEM_IUPAC_INCHIKEY>
REJLGAUYTKNVJM-UHFFFAOYSA-N

> <PUBCHEM_XLOGP3_AA>
-0.7

> <PUBCHEM_EXACT_MASS>
1033.545759

> <PUBCHEM_MOLECULAR_FORMULA>
C50H83NO21

> <PUBCHEM_MOLECULAR_WEIGHT>
1034.18812

> <PUBCHEM_OPENEYE_CAN_SMILES>
CC1CCC2(C(C3C(O2)CC4C3(CCC5C4CCC6C5(CCC(C6)OC7C(C(C(C(O7)CO)OC8C(C(C(C(O8)CO)O)OC9C(C(C(CO9)O)O)O)OC2C(C(C(C(O2)CO)O)O)O)O)O)C)C)C)NC1

> <PUBCHEM_OPENEYE_ISO_SMILES>
CC1CCC2(C(C3C(O2)CC4C3(CCC5C4CCC6C5(CCC(C6)OC7C(C(C(C(O7)CO)OC8C(C(C(C(O8)CO)O)OC9C(C(C(CO9)O)O)O)OC2C(C(C(C(O2)CO)O)O)O)O)O)C)C)C)NC1

> <PUBCHEM_CACTVS_TPSA>
338

> <PUBCHEM_MONOISOTOPIC_WEIGHT>
1033.545759

> <PUBCHEM_TOTAL_CHARGE>
0

> <PUBCHEM_HEAVY_ATOM_COUNT>
72

> <PUBCHEM_ATOM_DEF_STEREO_COUNT>
0

> <PUBCHEM_ATOM_UDEF_STEREO_COUNT>
31

> <PUBCHEM_BOND_DEF_STEREO_COUNT>
0

> <PUBCHEM_BOND_UDEF_STEREO_COUNT>
0

> <PUBCHEM_ISOTOPIC_ATOM_COUNT>
0

> <PUBCHEM_COMPONENT_COUNT>
1

> <PUBCHEM_CACTVS_TAUTO_COUNT>
1

> <PUBCHEM_COORDINATE_TYPE>
1
5
255

> <PUBCHEM_BONDANNOTATIONS>
23  38  3
24  73  3
25  74  3
26  75  3
27  76  3
28  77  3
29  41  3
32  82  3
34  85  3
36  42  3
45  107  3
48  113  3
50  117  3
51  118  3
52  119  3
53  120  3
54  121  3
56  126  3
57  128  3
58  129  3
59  130  3
60  131  3
62  134  3
63  136  3
64  137  3
65  138  3
66  139  3
67  141  3
68  142  3
69  143  3
71  147  3

$$$$

