9543349
  -OEChem-07051213112D

 36 40  0     1  0  0  0  0  0999 V2000
    4.6719    2.6417    0.0000 O   0  0  0  0  0  0  0  0  0  0  0  0
    2.9059    3.6795    0.0000 O   0  0  0  0  0  0  0  0  0  0  0  0
    3.7841   -0.8897    0.0000 C   0  0  0  0  0  0  0  0  0  0  0  0
    3.7841    1.1102    0.0000 C   0  0  0  0  0  0  0  0  0  0  0  0
    2.9180    0.6103    0.0000 C   0  0  0  0  0  0  0  0  0  0  0  0
    2.9180   -0.3897    0.0000 C   0  0  0  0  0  0  0  0  0  0  0  0
    3.8001    2.1518    0.0000 C   0  0  2  0  0  0  0  0  0  0  0  0
    3.8001   -1.9312    0.0000 C   0  0  0  0  0  0  0  0  0  0  0  0
    4.6501   -0.3897    0.0000 C   0  0  0  0  0  0  0  0  0  0  0  0
    2.9021    2.6795    0.0000 C   0  0  2  0  0  0  0  0  0  0  0  0
    4.6501    0.6103    0.0000 C   0  0  0  0  0  0  0  0  0  0  0  0
    2.9021   -2.4590    0.0000 C   0  0  0  0  0  0  0  0  0  0  0  0
    4.6772   -2.3940    0.0000 C   0  0  0  0  0  0  0  0  0  0  0  0
    2.0080    1.1171    0.0000 C   0  0  0  0  0  0  0  0  0  0  0  0
    2.0080   -0.8966    0.0000 C   0  0  0  0  0  0  0  0  0  0  0  0
    2.0000    2.1587    0.0000 C   0  0  0  0  0  0  0  0  0  0  0  0
    5.5095   -0.8845    0.0000 C   0  0  0  0  0  0  0  0  0  0  0  0
    2.0000   -1.9382    0.0000 C   0  0  0  0  0  0  0  0  0  0  0  0
    5.5230   -1.8761    0.0000 C   0  0  0  0  0  0  0  0  0  0  0  0
    2.9282   -3.5005    0.0000 C   0  0  0  0  0  0  0  0  0  0  0  0
    4.7274   -3.4346    0.0000 C   0  0  0  0  0  0  0  0  0  0  0  0
    3.8470   -3.9916    0.0000 C   0  0  0  0  0  0  0  0  0  0  0  0
    4.3328    1.8346    0.0000 H   0  0  0  0  0  0  0  0  0  0  0  0
    3.4408    2.9864    0.0000 H   0  0  0  0  0  0  0  0  0  0  0  0
    5.1870    0.9203    0.0000 H   0  0  0  0  0  0  0  0  0  0  0  0
    1.4747    0.8009    0.0000 H   0  0  0  0  0  0  0  0  0  0  0  0
    1.4747   -0.5804    0.0000 H   0  0  0  0  0  0  0  0  0  0  0  0
    1.4619    2.4666    0.0000 H   0  0  0  0  0  0  0  0  0  0  0  0
    6.0442   -0.5706    0.0000 H   0  0  0  0  0  0  0  0  0  0  0  0
    1.4619   -2.2461    0.0000 H   0  0  0  0  0  0  0  0  0  0  0  0
    6.0659   -2.1755    0.0000 H   0  0  0  0  0  0  0  0  0  0  0  0
    2.4004   -3.8259    0.0000 H   0  0  0  0  0  0  0  0  0  0  0  0
    5.2775   -3.7205    0.0000 H   0  0  0  0  0  0  0  0  0  0  0  0
    3.8696   -4.6112    0.0000 H   0  0  0  0  0  0  0  0  0  0  0  0
    4.6790    3.2617    0.0000 H   0  0  0  0  0  0  0  0  0  0  0  0
    2.3702    3.9916    0.0000 H   0  0  0  0  0  0  0  0  0  0  0  0
  7  1  1  6  0  0  0
  1 35  1  0  0  0  0
 10  2  1  6  0  0  0
  2 36  1  0  0  0  0
  3  6  2  0  0  0  0
  3  8  1  0  0  0  0
  3  9  1  0  0  0  0
  4  5  2  0  0  0  0
  4  7  1  0  0  0  0
  4 11  1  0  0  0  0
  5  6  1  0  0  0  0
  5 14  1  0  0  0  0
  6 15  1  0  0  0  0
  7 10  1  0  0  0  0
  7 23  1  0  0  0  0
  8 12  1  0  0  0  0
  8 13  2  0  0  0  0
  9 11  2  0  0  0  0
  9 17  1  0  0  0  0
 10 16  1  0  0  0  0
 10 24  1  0  0  0  0
 11 25  1  0  0  0  0
 12 18  1  0  0  0  0
 12 20  2  0  0  0  0
 13 19  1  0  0  0  0
 13 21  1  0  0  0  0
 14 16  2  0  0  0  0
 14 26  1  0  0  0  0
 15 18  2  0  0  0  0
 15 27  1  0  0  0  0
 16 28  1  0  0  0  0
 17 19  2  0  0  0  0
 17 29  1  0  0  0  0
 18 30  1  0  0  0  0
 19 31  1  0  0  0  0
 20 22  1  0  0  0  0
 20 32  1  0  0  0  0
 21 22  2  0  0  0  0
 21 33  1  0  0  0  0
 22 34  1  0  0  0  0
M  END
> <PUBCHEM_COMPOUND_CID>
9543349

> <PUBCHEM_COMPOUND_CANONICALIZED>
1

> <PUBCHEM_CACTVS_COMPLEXITY>
472

> <PUBCHEM_CACTVS_HBOND_ACCEPTOR>
2

> <PUBCHEM_CACTVS_HBOND_DONOR>
2

> <PUBCHEM_CACTVS_ROTATABLE_BOND>
0

> <PUBCHEM_CACTVS_SUBSKEYS>
AAADccB4MAAAAAAAAAAAAAAAAAAAAAAAAAAwYMGCAAAAAADBVAAAGgAACAAADBSgmAIwAMAAAgCAAiBCAAACAAAgAAAIiAAACIgJNiKAERCAcAAkwAEJmAeAwPAOwAACAAAQAACAAAQAACAAAAAAAAAAAA==

> <PUBCHEM_IUPAC_OPENEYE_NAME>
(7R,8S)-7,8-dihydrobenzo[a]pyrene-7,8-diol

> <PUBCHEM_IUPAC_CAS_NAME>
(7R,8S)-7,8-dihydrobenzo[a]pyrene-7,8-diol

> <PUBCHEM_IUPAC_NAME>
(7R,8S)-7,8-dihydrobenzo[a]pyrene-7,8-diol

> <PUBCHEM_IUPAC_SYSTEMATIC_NAME>
(7R,8S)-7,8-dihydrobenzo[a]pyrene-7,8-diol

> <PUBCHEM_IUPAC_TRADITIONAL_NAME>
(7R,8S)-7,8-dihydrobenzo[a]pyrene-7,8-diol

> <PUBCHEM_IUPAC_INCHI>
InChI=1S/C20H14O2/c21-17-9-8-14-15-7-6-12-3-1-2-11-4-5-13(19(15)18(11)12)10-16(14)20(17)22/h1-10,17,20-22H/t17-,20+/m0/s1

> <PUBCHEM_IUPAC_INCHIKEY>
YDXRLMMGARHIIC-FXAWDEMLSA-N

> <PUBCHEM_XLOGP3_AA>
3.9

> <PUBCHEM_EXACT_MASS>
286.09938

> <PUBCHEM_MOLECULAR_FORMULA>
C20H14O2

> <PUBCHEM_MOLECULAR_WEIGHT>
286.32396

> <PUBCHEM_OPENEYE_CAN_SMILES>
C1=CC2=C3C(=C1)C=CC4=C3C(=CC5=C4C=CC(C5O)O)C=C2

> <PUBCHEM_OPENEYE_ISO_SMILES>
C1=CC2=C3C(=C1)C=CC4=C3C(=CC5=C4C=C[C@@H]([C@@H]5O)O)C=C2

> <PUBCHEM_CACTVS_TPSA>
40.5

> <PUBCHEM_MONOISOTOPIC_WEIGHT>
286.09938

> <PUBCHEM_TOTAL_CHARGE>
0

> <PUBCHEM_HEAVY_ATOM_COUNT>
22

> <PUBCHEM_ATOM_DEF_STEREO_COUNT>
2

> <PUBCHEM_ATOM_UDEF_STEREO_COUNT>
0

> <PUBCHEM_BOND_DEF_STEREO_COUNT>
0

> <PUBCHEM_BOND_UDEF_STEREO_COUNT>
0

> <PUBCHEM_ISOTOPIC_ATOM_COUNT>
0

> <PUBCHEM_COMPONENT_COUNT>
1

> <PUBCHEM_CACTVS_TAUTO_COUNT>
1

> <PUBCHEM_COORDINATE_TYPE>
1
5
255

> <PUBCHEM_BONDANNOTATIONS>
7  1  6
12  18  8
12  20  8
13  19  8
13  21  8
15  18  8
17  19  8
10  2  6
20  22  8
21  22  8
3  6  8
3  8  8
3  9  8
4  11  8
4  5  8
5  6  8
6  15  8
8  12  8
8  13  8
9  11  8
9  17  8

$$$$

