14384
  -OEChem-06241222432D

 39 40  0     0  0  0  0  0  0999 V2000
    5.4641   -1.4564    0.0000 O   0  0  0  0  0  0  0  0  0  0  0  0
    2.0000   -1.4564    0.0000 O   0  0  0  0  0  0  0  0  0  0  0  0
    3.7320   -4.4564    0.0000 O   0  0  0  0  0  0  0  0  0  0  0  0
    3.2320    2.8737    0.0000 N   0  0  0  0  0  0  0  0  0  0  0  0
    4.5981   -2.9564    0.0000 N   0  0  0  0  0  0  0  0  0  0  0  0
    2.8660   -2.9564    0.0000 N   0  0  0  0  0  0  0  0  0  0  0  0
    4.4345    3.9564    0.0000 C   0  0  0  0  0  0  0  0  0  0  0  0
    3.5685    4.4564    0.0000 C   0  0  0  0  0  0  0  0  0  0  0  0
    4.2266    2.9782    0.0000 C   0  0  0  0  0  0  0  0  0  0  0  0
    2.8253    3.7873    0.0000 C   0  0  0  0  0  0  0  0  0  0  0  0
    3.7320   -1.4564    0.0000 C   0  0  0  0  0  0  0  0  0  0  0  0
    3.2320   -0.5904    0.0000 C   0  0  0  0  0  0  0  0  0  0  0  0
    4.2320   -0.5904    0.0000 C   0  0  0  0  0  0  0  0  0  0  0  0
    2.7320    2.0077    0.0000 C   0  0  0  0  0  0  0  0  0  0  0  0
    4.5981   -1.9564    0.0000 C   0  0  0  0  0  0  0  0  0  0  0  0
    2.8660   -1.9564    0.0000 C   0  0  0  0  0  0  0  0  0  0  0  0
    2.2320   -0.5904    0.0000 C   0  0  0  0  0  0  0  0  0  0  0  0
    3.7320    0.2756    0.0000 C   0  0  0  0  0  0  0  0  0  0  0  0
    3.2320    1.1417    0.0000 C   0  0  0  0  0  0  0  0  0  0  0  0
    3.7320   -3.4564    0.0000 C   0  0  0  0  0  0  0  0  0  0  0  0
    3.9329    4.9580    0.0000 H   0  0  0  0  0  0  0  0  0  0  0  0
    3.1077    4.8713    0.0000 H   0  0  0  0  0  0  0  0  0  0  0  0
    5.0241    3.7648    0.0000 H   0  0  0  0  0  0  0  0  0  0  0  0
    4.6867    4.5228    0.0000 H   0  0  0  0  0  0  0  0  0  0  0  0
    2.4609    4.2889    0.0000 H   0  0  0  0  0  0  0  0  0  0  0  0
    2.2884    3.4773    0.0000 H   0  0  0  0  0  0  0  0  0  0  0  0
    4.2266    2.3582    0.0000 H   0  0  0  0  0  0  0  0  0  0  0  0
    4.8432    2.9134    0.0000 H   0  0  0  0  0  0  0  0  0  0  0  0
    3.8147   -0.3783    0.0000 H   0  0  0  0  0  0  0  0  0  0  0  0
    3.1244    0.0202    0.0000 H   0  0  0  0  0  0  0  0  0  0  0  0
    4.7070   -0.9889    0.0000 H   0  0  0  0  0  0  0  0  0  0  0  0
    4.7070   -0.1918    0.0000 H   0  0  0  0  0  0  0  0  0  0  0  0
    2.2571    2.4062    0.0000 H   0  0  0  0  0  0  0  0  0  0  0  0
    2.2571    1.6092    0.0000 H   0  0  0  0  0  0  0  0  0  0  0  0
    2.2320    0.0296    0.0000 H   0  0  0  0  0  0  0  0  0  0  0  0
    1.6120   -0.5904    0.0000 H   0  0  0  0  0  0  0  0  0  0  0  0
    2.2320   -1.2104    0.0000 H   0  0  0  0  0  0  0  0  0  0  0  0
    5.1350   -3.2664    0.0000 H   0  0  0  0  0  0  0  0  0  0  0  0
    2.3291   -3.2664    0.0000 H   0  0  0  0  0  0  0  0  0  0  0  0
  1 15  2  0  0  0  0
  2 16  2  0  0  0  0
  3 20  2  0  0  0  0
  4  9  1  0  0  0  0
  4 10  1  0  0  0  0
  4 14  1  0  0  0  0
  5 15  1  0  0  0  0
  5 20  1  0  0  0  0
  5 38  1  0  0  0  0
  6 16  1  0  0  0  0
  6 20  1  0  0  0  0
  6 39  1  0  0  0  0
  7  8  1  0  0  0  0
  7  9  1  0  0  0  0
  7 23  1  0  0  0  0
  7 24  1  0  0  0  0
  8 10  1  0  0  0  0
  8 21  1  0  0  0  0
  8 22  1  0  0  0  0
  9 27  1  0  0  0  0
  9 28  1  0  0  0  0
 10 25  1  0  0  0  0
 10 26  1  0  0  0  0
 11 12  1  0  0  0  0
 11 13  1  0  0  0  0
 11 15  1  0  0  0  0
 11 16  1  0  0  0  0
 12 17  1  0  0  0  0
 12 29  1  0  0  0  0
 12 30  1  0  0  0  0
 13 18  1  0  0  0  0
 13 31  1  0  0  0  0
 13 32  1  0  0  0  0
 14 19  1  0  0  0  0
 14 33  1  0  0  0  0
 14 34  1  0  0  0  0
 17 35  1  0  0  0  0
 17 36  1  0  0  0  0
 17 37  1  0  0  0  0
 18 19  3  0  0  0  0
M  END
> <PUBCHEM_COMPOUND_CID>
14384

> <PUBCHEM_COMPOUND_CANONICALIZED>
1

> <PUBCHEM_CACTVS_COMPLEXITY>
474

> <PUBCHEM_CACTVS_HBOND_ACCEPTOR>
4

> <PUBCHEM_CACTVS_HBOND_DONOR>
2

> <PUBCHEM_CACTVS_ROTATABLE_BOND>
3

> <PUBCHEM_CACTVS_SUBSKEYS>
AAADceBzMAAAAAAAAAAAAAAAAAAAAWAAAAAsAAAAAAAAAAAAAAAAHgAQAAAADgDBgAQDAAPAAABIEAEQEAgAAAAAAAAAAAEIAACAABoIwAAEAAAIBSKAAAAAAAALAAAAAAAAAAAAAAAAAAAAAAAAAAAAAA==

> <PUBCHEM_IUPAC_OPENEYE_NAME>
5-ethyl-5-(4-pyrrolidin-1-ylbut-2-ynyl)hexahydropyrimidine-2,4,6-trione

> <PUBCHEM_IUPAC_CAS_NAME>
5-ethyl-5-[4-(1-pyrrolidinyl)but-2-ynyl]-1,3-diazinane-2,4,6-trione

> <PUBCHEM_IUPAC_NAME>
5-ethyl-5-(4-pyrrolidin-1-ylbut-2-ynyl)-1,3-diazinane-2,4,6-trione

> <PUBCHEM_IUPAC_SYSTEMATIC_NAME>
5-ethyl-5-(4-pyrrolidin-1-ylbut-2-ynyl)-1,3-diazinane-2,4,6-trione

> <PUBCHEM_IUPAC_TRADITIONAL_NAME>
5-ethyl-5-(4-pyrrolidinobut-2-ynyl)barbituric acid

> <PUBCHEM_IUPAC_INCHI>
InChI=1S/C14H19N3O3/c1-2-14(11(18)15-13(20)16-12(14)19)7-3-4-8-17-9-5-6-10-17/h2,5-10H2,1H3,(H2,15,16,18,19,20)

> <PUBCHEM_IUPAC_INCHIKEY>
ZKEHPXDIQKWNOW-UHFFFAOYSA-N

> <PUBCHEM_XLOGP3_AA>
0.6

> <PUBCHEM_EXACT_MASS>
277.142641

> <PUBCHEM_MOLECULAR_FORMULA>
C14H19N3O3

> <PUBCHEM_MOLECULAR_WEIGHT>
277.31896

> <PUBCHEM_OPENEYE_CAN_SMILES>
CCC1(C(=O)NC(=O)NC1=O)CC#CCN2CCCC2

> <PUBCHEM_OPENEYE_ISO_SMILES>
CCC1(C(=O)NC(=O)NC1=O)CC#CCN2CCCC2

> <PUBCHEM_CACTVS_TPSA>
78.5

> <PUBCHEM_MONOISOTOPIC_WEIGHT>
277.142641

> <PUBCHEM_TOTAL_CHARGE>
0

> <PUBCHEM_HEAVY_ATOM_COUNT>
20

> <PUBCHEM_ATOM_DEF_STEREO_COUNT>
0

> <PUBCHEM_ATOM_UDEF_STEREO_COUNT>
0

> <PUBCHEM_BOND_DEF_STEREO_COUNT>
0

> <PUBCHEM_BOND_UDEF_STEREO_COUNT>
0

> <PUBCHEM_ISOTOPIC_ATOM_COUNT>
0

> <PUBCHEM_COMPONENT_COUNT>
1

> <PUBCHEM_CACTVS_TAUTO_COUNT>
5

> <PUBCHEM_COORDINATE_TYPE>
1
5
255

$$$$

