   Color/Form
        Colorless to white crystals or crystalline powder; needles from
   water
   from [1]HSDB

   Odor
        Odorless
   from [2]HSDB

   Taste
        Tasteless
   from [3]HSDB

   Melting Point
        284-286 deg C
   from [4]HSDB

   Dissociation Constants
        pKa = 2.32
   from [5]HSDB

   Octanol/Water Partition Coefficient
        log Kow = -2.39
   from [6]HSDB

   Solubilities

     * Readily sol in dil hydrochloric and formic acids; practically insol
       in ethanol, benzene, chloroform, ethyl acetate
     * In water, 5,000 mg/l @ 20 deg C

   from [7]HSDB

   Spectral Properties

     * Specific optical rotation: -13.1 deg @ 13 deg C/D (c= 5.12 in 1 N
       HCl); max absorption (0.001 N HCl): 220.5 nm (log e= 3.79); 280 nm
       (log e= 3.42)
     * IR: 10623 (Sadtler Research Laboratories Prism Collection)
     * MASS: 76457 (NIST/EPA/MSDC Mass Spectral Database, 1990 Version)
     * UV: 20883 (Sadtler Research Laboratories Spectral Collection)
     * In the presence of moisture, L-dopa is rapidly oxidized by
       atmospheric oxygen and darkens.

   from [8]HSDB

   Other Chemical/Physical Properties
        MASS: 1141 (National Bureau of Standards EPA-NIH Mass Spectra Data
   Base, NSRDS-NBS-63) /D-Tyrosine, 3-hydroxy (l)/
   from [9]HSDB

   Computed Properties
   Molecular Weight                  197.18794 [g/mol]
   Molecular Formula                 C[9]H[11]NO[4]
   XLogP3                            -2.7
   H-Bond Donor                      4
   H-Bond Acceptor                   5
   Rotatable Bond Count              3
   Tautomer Count                    18
   Exact Mass                        197.068808
   MonoIsotopic Mass                 197.068808
   Topological Polar Surface Area    104
   Heavy Atom Count                  14
   Formal Charge                     0
   Complexity                        209
   Isotope Atom Count                0
   Defined Atom Stereocenter Count   1
   Undefined Atom Stereocenter Count 0
   Defined Bond Stereocenter Count   0
   Undefined Bond Stereocenter Count 0
   Covalently-Bonded Unit Count      1
   Feature 3D Acceptor Count         2
   Feature 3D Donor Count            3
   Feature 3D Anion Count            1
   Feature 3D Cation Count           1
   Feature 3D Ring Count             1
   Effective Rotor Count             3
   Conformer Sampling RMSD           0.6
   CID Conformer Count               [10]21

References

   1. http://toxnet.nlm.nih.gov/cgi-bin/sis/search/r?dbs+hsdb:@term+@rn+@rel+59-92-7
   2. http://toxnet.nlm.nih.gov/cgi-bin/sis/search/r?dbs+hsdb:@term+@rn+@rel+59-92-7
   3. http://toxnet.nlm.nih.gov/cgi-bin/sis/search/r?dbs+hsdb:@term+@rn+@rel+59-92-7
   4. http://toxnet.nlm.nih.gov/cgi-bin/sis/search/r?dbs+hsdb:@term+@rn+@rel+59-92-7
   5. http://toxnet.nlm.nih.gov/cgi-bin/sis/search/r?dbs+hsdb:@term+@rn+@rel+59-92-7
   6. http://toxnet.nlm.nih.gov/cgi-bin/sis/search/r?dbs+hsdb:@term+@rn+@rel+59-92-7
   7. http://toxnet.nlm.nih.gov/cgi-bin/sis/search/r?dbs+hsdb:@term+@rn+@rel+59-92-7
   8. http://toxnet.nlm.nih.gov/cgi-bin/sis/search/r?dbs+hsdb:@term+@rn+@rel+59-92-7
   9. http://toxnet.nlm.nih.gov/cgi-bin/sis/search/r?dbs+hsdb:@term+@rn+@rel+59-92-7
  10. http://pubchem.ncbi.nlm.nih.gov/vw3d/vw3d.cgi?cid=6047
