2832
  -OEChem-07051213012D

 52 54  0     1  0  0  0  0  0999 V2000
    5.3788   -1.8227    0.0000 O   0  0  0  0  0  0  0  0  0  0  0  0
    7.0622   -2.9895    0.0000 O   0  0  0  0  0  0  0  0  0  0  0  0
    8.9077   -2.1008    0.0000 O   0  0  0  0  0  0  0  0  0  0  0  0
    2.2948   -0.1416    0.0000 O   0  0  0  0  0  0  0  0  0  0  0  0
    2.7031    1.6588    0.0000 O   0  0  0  0  0  0  0  0  0  0  0  0
    5.4447    2.7298    0.0000 N   0  0  0  0  0  0  0  0  0  0  0  0
    5.8786    1.8288    0.0000 C   0  0  3  0  0  0  0  0  0  0  0  0
    6.8786    1.8288    0.0000 C   0  0  0  0  0  0  0  0  0  0  0  0
    7.5021    1.0470    0.0000 C   0  0  0  0  0  0  0  0  0  0  0  0
    5.2551    1.0470    0.0000 C   0  0  0  0  0  0  0  0  0  0  0  0
    7.2796    0.0721    0.0000 C   0  0  0  0  0  0  0  0  0  0  0  0
    6.3786   -0.3618    0.0000 C   0  0  0  0  0  0  0  0  0  0  0  0
    5.4776    0.0721    0.0000 C   0  0  0  0  0  0  0  0  0  0  0  0
    6.2847   -1.3992    0.0000 C   0  0  0  0  0  0  0  0  0  0  0  0
    8.1491   -0.5014    0.0000 C   0  0  0  0  0  0  0  0  0  0  0  0
    4.3686    1.4666    0.0000 C   0  0  0  0  0  0  0  0  0  0  0  0
    4.8610   -0.6906    0.0000 C   0  0  0  0  0  0  0  0  0  0  0  0
    7.1408   -1.9926    0.0000 C   0  0  0  0  0  0  0  0  0  0  0  0
    8.0793   -1.5407    0.0000 C   0  0  0  0  0  0  0  0  0  0  0  0
    6.0080    3.5560    0.0000 C   0  0  0  0  0  0  0  0  0  0  0  0
    3.4866    1.0375    0.0000 C   0  0  0  0  0  0  0  0  0  0  0  0
    3.8802   -0.6867    0.0000 C   0  0  0  0  0  0  0  0  0  0  0  0
    3.2697    0.0810    0.0000 C   0  0  0  0  0  0  0  0  0  0  0  0
    5.2926   -2.8189    0.0000 C   0  0  0  0  0  0  0  0  0  0  0  0
    7.8863   -3.5560    0.0000 C   0  0  0  0  0  0  0  0  0  0  0  0
    9.8070   -1.6634    0.0000 C   0  0  0  0  0  0  0  0  0  0  0  0
    2.0000   -1.0971    0.0000 C   0  0  0  0  0  0  0  0  0  0  0  0
    6.2084    2.3538    0.0000 H   0  0  0  0  0  0  0  0  0  0  0  0
    7.4372    2.0978    0.0000 H   0  0  0  0  0  0  0  0  0  0  0  0
    6.7406    2.4333    0.0000 H   0  0  0  0  0  0  0  0  0  0  0  0
    8.0607    0.7780    0.0000 H   0  0  0  0  0  0  0  0  0  0  0  0
    7.8886    1.5317    0.0000 H   0  0  0  0  0  0  0  0  0  0  0  0
    4.8264    2.7761    0.0000 H   0  0  0  0  0  0  0  0  0  0  0  0
    8.7046   -0.2259    0.0000 H   0  0  0  0  0  0  0  0  0  0  0  0
    4.3652    2.0866    0.0000 H   0  0  0  0  0  0  0  0  0  0  0  0
    5.1270   -1.2507    0.0000 H   0  0  0  0  0  0  0  0  0  0  0  0
    6.5203    3.2068    0.0000 H   0  0  0  0  0  0  0  0  0  0  0  0
    6.3573    4.0683    0.0000 H   0  0  0  0  0  0  0  0  0  0  0  0
    5.4958    3.9053    0.0000 H   0  0  0  0  0  0  0  0  0  0  0  0
    3.6097   -1.2445    0.0000 H   0  0  0  0  0  0  0  0  0  0  0  0
    4.6749   -2.7654    0.0000 H   0  0  0  0  0  0  0  0  0  0  0  0
    5.2391   -3.4366    0.0000 H   0  0  0  0  0  0  0  0  0  0  0  0
    5.9102   -2.8724    0.0000 H   0  0  0  0  0  0  0  0  0  0  0  0
    7.5351   -4.0669    0.0000 H   0  0  0  0  0  0  0  0  0  0  0  0
    8.3972   -3.9072    0.0000 H   0  0  0  0  0  0  0  0  0  0  0  0
    8.2375   -3.0451    0.0000 H   0  0  0  0  0  0  0  0  0  0  0  0
   10.0781   -2.2210    0.0000 H   0  0  0  0  0  0  0  0  0  0  0  0
   10.3646   -1.3923    0.0000 H   0  0  0  0  0  0  0  0  0  0  0  0
    9.5358   -1.1059    0.0000 H   0  0  0  0  0  0  0  0  0  0  0  0
    1.4075   -0.9144    0.0000 H   0  0  0  0  0  0  0  0  0  0  0  0
    1.8172   -1.6896    0.0000 H   0  0  0  0  0  0  0  0  0  0  0  0
    2.5925   -1.2799    0.0000 H   0  0  0  0  0  0  0  0  0  0  0  0
  1 14  1  0  0  0  0
  1 24  1  0  0  0  0
  2 18  1  0  0  0  0
  2 25  1  0  0  0  0
  3 19  1  0  0  0  0
  3 26  1  0  0  0  0
  4 23  1  0  0  0  0
  4 27  1  0  0  0  0
  5 21  2  0  0  0  0
  6  7  1  0  0  0  0
  6 20  1  0  0  0  0
  6 33  1  0  0  0  0
  7  8  1  0  0  0  0
  7 10  1  0  0  0  0
  7 28  1  0  0  0  0
  8  9  1  0  0  0  0
  8 29  1  0  0  0  0
  8 30  1  0  0  0  0
  9 11  1  0  0  0  0
  9 31  1  0  0  0  0
  9 32  1  0  0  0  0
 10 13  1  0  0  0  0
 10 16  2  0  0  0  0
 11 12  1  0  0  0  0
 11 15  2  0  0  0  0
 12 13  1  0  0  0  0
 12 14  2  0  0  0  0
 13 17  2  0  0  0  0
 14 18  1  0  0  0  0
 15 19  1  0  0  0  0
 15 34  1  0  0  0  0
 16 21  1  0  0  0  0
 16 35  1  0  0  0  0
 17 22  1  0  0  0  0
 17 36  1  0  0  0  0
 18 19  2  0  0  0  0
 20 37  1  0  0  0  0
 20 38  1  0  0  0  0
 20 39  1  0  0  0  0
 21 23  1  0  0  0  0
 22 23  2  0  0  0  0
 22 40  1  0  0  0  0
 24 41  1  0  0  0  0
 24 42  1  0  0  0  0
 24 43  1  0  0  0  0
 25 44  1  0  0  0  0
 25 45  1  0  0  0  0
 25 46  1  0  0  0  0
 26 47  1  0  0  0  0
 26 48  1  0  0  0  0
 26 49  1  0  0  0  0
 27 50  1  0  0  0  0
 27 51  1  0  0  0  0
 27 52  1  0  0  0  0
M  END
> <PUBCHEM_COMPOUND_CID>
2832

> <PUBCHEM_COMPOUND_CANONICALIZED>
1

> <PUBCHEM_CACTVS_COMPLEXITY>
653

> <PUBCHEM_CACTVS_HBOND_ACCEPTOR>
6

> <PUBCHEM_CACTVS_HBOND_DONOR>
1

> <PUBCHEM_CACTVS_ROTATABLE_BOND>
5

> <PUBCHEM_CACTVS_SUBSKEYS>
AAADceB6OAAAAAAAAAAAAAAAAAAAAAAAAAAwAAAABggAAAABAAAAHgAQAAAADCzBmAYyBoLABACIAqBSAAKCCAAgIAAAiIBOiMgNJyKEsR6EMCIl0BUKqYeQ8P8OoAABCAAYQABAAAIQADCAAAAAAAAAAA==

> <PUBCHEM_IUPAC_OPENEYE_NAME>
1,2,3,10-tetramethoxy-7-(methylamino)-6,7-dihydro-5H-benzo[a]heptalen-9-one

> <PUBCHEM_IUPAC_CAS_NAME>
1,2,3,10-tetramethoxy-7-(methylamino)-6,7-dihydro-5H-benzo[a]heptalen-9-one

> <PUBCHEM_IUPAC_NAME>
1,2,3,10-tetramethoxy-7-(methylamino)-6,7-dihydro-5H-benzo[a]heptalen-9-one

> <PUBCHEM_IUPAC_SYSTEMATIC_NAME>
1,2,3,10-tetramethoxy-7-(methylamino)-6,7-dihydro-5H-benzo[a]heptalen-9-one

> <PUBCHEM_IUPAC_TRADITIONAL_NAME>
1,2,3,10-tetramethoxy-7-(methylamino)-6,7-dihydro-5H-benzo[a]heptalen-9-one

> <PUBCHEM_IUPAC_INCHI>
InChI=1S/C21H25NO5/c1-22-15-8-6-12-10-18(25-3)20(26-4)21(27-5)19(12)13-7-9-17(24-2)16(23)11-14(13)15/h7,9-11,15,22H,6,8H2,1-5H3

> <PUBCHEM_IUPAC_INCHIKEY>
NNJPGOLRFBJNIW-UHFFFAOYSA-N

> <PUBCHEM_XLOGP3>
1.4

> <PUBCHEM_EXACT_MASS>
371.173273

> <PUBCHEM_MOLECULAR_FORMULA>
C21H25NO5

> <PUBCHEM_MOLECULAR_WEIGHT>
371.4269

> <PUBCHEM_OPENEYE_CAN_SMILES>
CNC1CCC2=CC(=C(C(=C2C3=CC=C(C(=O)C=C13)OC)OC)OC)OC

> <PUBCHEM_OPENEYE_ISO_SMILES>
CNC1CCC2=CC(=C(C(=C2C3=CC=C(C(=O)C=C13)OC)OC)OC)OC

> <PUBCHEM_CACTVS_TPSA>
66

> <PUBCHEM_MONOISOTOPIC_WEIGHT>
371.173273

> <PUBCHEM_TOTAL_CHARGE>
0

> <PUBCHEM_HEAVY_ATOM_COUNT>
27

> <PUBCHEM_ATOM_DEF_STEREO_COUNT>
0

> <PUBCHEM_ATOM_UDEF_STEREO_COUNT>
1

> <PUBCHEM_BOND_DEF_STEREO_COUNT>
0

> <PUBCHEM_BOND_UDEF_STEREO_COUNT>
0

> <PUBCHEM_ISOTOPIC_ATOM_COUNT>
0

> <PUBCHEM_COMPONENT_COUNT>
1

> <PUBCHEM_CACTVS_TAUTO_COUNT>
1

> <PUBCHEM_COORDINATE_TYPE>
1
5
255

> <PUBCHEM_BONDANNOTATIONS>
10  13  8
10  16  8
11  12  8
11  15  8
12  14  8
13  17  8
14  18  8
15  19  8
16  21  8
17  22  8
18  19  8
21  23  8
22  23  8
7  6  3

$$$$

