   Color/Form

     * CRYSTALS FROM ALCOHOL
     * WHITE AMORPHOUS SOLID

   from [1]HSDB

   Taste
        EXTREME BITTER TASTE
   from [2]HSDB

   Melting Point
        158 DEG C
   from [3]HSDB

   pH
        (1% AQ SOLN) 6.6 TO 7.3
   from [4]HSDB

   Solubilities

     * FREELY SOL IN WATER; 1 G IN 3 ML H2O @ 25 DEG C
     * SOL IN ALC: 2 G/100 ML; IN CHLOROFORM: 1 G/100 ML

   from [5]HSDB

   Spectral Properties

     * MAX ABSORPTION (WATER, 0.001%): 273 NM (A= 361, 1%, 1 CM)
     * IR: 3:1288D (Aldrich Library of Infrared Spectra, Aldrich Chemical
       Co, Milwaukee, WI) [Weast, R.C. and M.J. Astle. CRC Handbook of
       Data on Organic Compounds. Volumes I and II. Boca Raton, FL: CRC
       Press Inc. 1985., p. V2 335] **UNREVIEWED**
     * NMR: 8:109A (Aldrich Library of Mass Spectra, Aldrich Chemical Co,
       Milwaukee, WI)

   from [6]HSDB

   Computed Properties
   Molecular Weight                  254.24256 [g/mol]
   Molecular Formula                 C[10]H[14]N[4]O[4]
   XLogP3                            -1.8
   H-Bond Donor                      2
   H-Bond Acceptor                   5
   Rotatable Bond Count              3
   Exact Mass                        254.101505
   MonoIsotopic Mass                 254.101505
   Topological Polar Surface Area    98.9
   Heavy Atom Count                  18
   Formal Charge                     0
   Complexity                        364
   Isotope Atom Count                0
   Defined Atom Stereocenter Count   0
   Undefined Atom Stereocenter Count 1
   Defined Bond Stereocenter Count   0
   Undefined Bond Stereocenter Count 0
   Covalently-Bonded Unit Count      1
   Feature 3D Acceptor Count         4
   Feature 3D Donor Count            2
   Feature 3D Cation Count           1
   Feature 3D Ring Count             2
   Effective Rotor Count             3
   Conformer Sampling RMSD           0.6
   CID Conformer Count               [7]16

References

   1. http://toxnet.nlm.nih.gov/cgi-bin/sis/search/r?dbs+hsdb:@term+@rn+@rel+479-18-5
   2. http://toxnet.nlm.nih.gov/cgi-bin/sis/search/r?dbs+hsdb:@term+@rn+@rel+479-18-5
   3. http://toxnet.nlm.nih.gov/cgi-bin/sis/search/r?dbs+hsdb:@term+@rn+@rel+479-18-5
   4. http://toxnet.nlm.nih.gov/cgi-bin/sis/search/r?dbs+hsdb:@term+@rn+@rel+479-18-5
   5. http://toxnet.nlm.nih.gov/cgi-bin/sis/search/r?dbs+hsdb:@term+@rn+@rel+479-18-5
   6. http://toxnet.nlm.nih.gov/cgi-bin/sis/search/r?dbs+hsdb:@term+@rn+@rel+479-18-5
   7. http://pubchem.ncbi.nlm.nih.gov/vw3d/vw3d.cgi?cid=3182
