68184
  -OEChem-07051212592D

 52 56  0     1  0  0  0  0  0999 V2000
    4.7340   -0.6444    0.0000 O   0  0  0  0  0  0  0  0  0  0  0  0
    5.6521    1.9040    0.0000 O   0  0  0  0  0  0  0  0  0  0  0  0
    2.8832    1.0292    0.0000 O   0  0  0  0  0  0  0  0  0  0  0  0
    3.2118   -3.7242    0.0000 O   0  0  0  0  0  0  0  0  0  0  0  0
    2.1360    0.8556    0.0000 O   0  0  0  0  0  0  0  0  0  0  0  0
    2.0116    3.9925    0.0000 O   0  0  0  0  0  0  0  0  0  0  0  0
    3.8149    5.0523    0.0000 O   0  0  0  0  0  0  0  0  0  0  0  0
    3.8680    0.8556    0.0000 C   0  0  1  0  0  0  0  0  0  0  0  0
    4.7340    0.3556    0.0000 C   0  0  1  0  0  0  0  0  0  0  0  0
    3.8520    1.8971    0.0000 C   0  0  0  0  0  0  0  0  0  0  0  0
    3.0020    0.3556    0.0000 C   0  0  0  0  0  0  0  0  0  0  0  0
    3.8680   -1.1444    0.0000 C   0  0  0  0  0  0  0  0  0  0  0  0
    5.6440    0.8624    0.0000 C   0  0  0  0  0  0  0  0  0  0  0  0
    3.0020   -0.6444    0.0000 C   0  0  0  0  0  0  0  0  0  0  0  0
    3.8841   -2.1859    0.0000 C   0  0  0  0  0  0  0  0  0  0  0  0
    4.6571   -2.8748    0.0000 C   0  0  0  0  0  0  0  0  0  0  0  0
    4.7500    2.4248    0.0000 C   0  0  0  0  0  0  0  0  0  0  0  0
    4.2424   -3.8236    0.0000 C   0  0  2  0  0  0  0  0  0  0  0  0
    2.9860   -2.7137    0.0000 C   0  0  0  0  0  0  0  0  0  0  0  0
    2.0920   -1.1513    0.0000 C   0  0  0  0  0  0  0  0  0  0  0  0
    2.9000    2.4177    0.0000 C   0  0  0  0  0  0  0  0  0  0  0  0
    2.0840   -2.1929    0.0000 C   0  0  0  0  0  0  0  0  0  0  0  0
    4.7584    3.5098    0.0000 C   0  0  0  0  0  0  0  0  0  0  0  0
    4.7491   -4.6858    0.0000 C   0  0  0  0  0  0  0  0  0  0  0  0
    2.8833    3.5026    0.0000 C   0  0  0  0  0  0  0  0  0  0  0  0
    3.8187    4.0523    0.0000 C   0  0  0  0  0  0  0  0  0  0  0  0
    4.2558   -5.5556    0.0000 C   0  0  0  0  0  0  0  0  0  0  0  0
    5.7491   -4.6781    0.0000 C   0  0  0  0  0  0  0  0  0  0  0  0
    2.0000    4.9925    0.0000 C   0  0  0  0  0  0  0  0  0  0  0  0
    4.6790    5.5556    0.0000 C   0  0  0  0  0  0  0  0  0  0  0  0
    5.4669   -0.0751    0.0000 H   0  0  0  0  0  0  0  0  0  0  0  0
    5.8486    0.2771    0.0000 H   0  0  0  0  0  0  0  0  0  0  0  0
    6.2557    0.9638    0.0000 H   0  0  0  0  0  0  0  0  0  0  0  0
    5.1960   -3.1815    0.0000 H   0  0  0  0  0  0  0  0  0  0  0  0
    5.0187   -2.3712    0.0000 H   0  0  0  0  0  0  0  0  0  0  0  0
    3.9090   -4.3464    0.0000 H   0  0  0  0  0  0  0  0  0  0  0  0
    1.5587   -0.8351    0.0000 H   0  0  0  0  0  0  0  0  0  0  0  0
    2.3692    2.0974    0.0000 H   0  0  0  0  0  0  0  0  0  0  0  0
    2.6712    1.6118    0.0000 H   0  0  0  0  0  0  0  0  0  0  0  0
    1.5458   -2.5008    0.0000 H   0  0  0  0  0  0  0  0  0  0  0  0
    5.2965    3.8177    0.0000 H   0  0  0  0  0  0  0  0  0  0  0  0
    3.7165   -5.2498    0.0000 H   0  0  0  0  0  0  0  0  0  0  0  0
    3.9499   -6.0950    0.0000 H   0  0  0  0  0  0  0  0  0  0  0  0
    4.7951   -5.8615    0.0000 H   0  0  0  0  0  0  0  0  0  0  0  0
    6.0632   -5.2126    0.0000 H   0  0  0  0  0  0  0  0  0  0  0  0
    6.0549   -4.1388    0.0000 H   0  0  0  0  0  0  0  0  0  0  0  0
    2.6200    4.9996    0.0000 H   0  0  0  0  0  0  0  0  0  0  0  0
    1.9928    5.6124    0.0000 H   0  0  0  0  0  0  0  0  0  0  0  0
    1.3800    4.9853    0.0000 H   0  0  0  0  0  0  0  0  0  0  0  0
    4.9910    5.0199    0.0000 H   0  0  0  0  0  0  0  0  0  0  0  0
    5.2147    5.8677    0.0000 H   0  0  0  0  0  0  0  0  0  0  0  0
    4.3669    6.0914    0.0000 H   0  0  0  0  0  0  0  0  0  0  0  0
  1  9  1  0  0  0  0
  1 12  1  0  0  0  0
  2 13  1  0  0  0  0
  2 17  1  0  0  0  0
  8  3  1  6  0  0  0
  3 39  1  0  0  0  0
  4 18  1  0  0  0  0
  4 19  1  0  0  0  0
  5 11  2  0  0  0  0
  6 25  1  0  0  0  0
  6 29  1  0  0  0  0
  7 26  1  0  0  0  0
  7 30  1  0  0  0  0
  8  9  1  0  0  0  0
  8 10  1  0  0  0  0
  8 11  1  0  0  0  0
  9 13  1  0  0  0  0
  9 31  1  6  0  0  0
 10 17  1  0  0  0  0
 10 21  2  0  0  0  0
 11 14  1  0  0  0  0
 12 14  2  0  0  0  0
 12 15  1  0  0  0  0
 13 32  1  0  0  0  0
 13 33  1  0  0  0  0
 14 20  1  0  0  0  0
 15 16  1  0  0  0  0
 15 19  2  0  0  0  0
 16 18  1  0  0  0  0
 16 34  1  0  0  0  0
 16 35  1  0  0  0  0
 17 23  2  0  0  0  0
 18 24  1  6  0  0  0
 18 36  1  0  0  0  0
 19 22  1  0  0  0  0
 20 22  2  0  0  0  0
 20 37  1  0  0  0  0
 21 25  1  0  0  0  0
 21 38  1  0  0  0  0
 22 40  1  0  0  0  0
 23 26  1  0  0  0  0
 23 41  1  0  0  0  0
 24 27  1  0  0  0  0
 24 28  2  0  0  0  0
 25 26  2  0  0  0  0
 27 42  1  0  0  0  0
 27 43  1  0  0  0  0
 27 44  1  0  0  0  0
 28 45  1  0  0  0  0
 28 46  1  0  0  0  0
 29 47  1  0  0  0  0
 29 48  1  0  0  0  0
 29 49  1  0  0  0  0
 30 50  1  0  0  0  0
 30 51  1  0  0  0  0
 30 52  1  0  0  0  0
M  END
> <PUBCHEM_COMPOUND_CID>
68184

> <PUBCHEM_COMPOUND_CANONICALIZED>
1

> <PUBCHEM_CACTVS_COMPLEXITY>
710

> <PUBCHEM_CACTVS_HBOND_ACCEPTOR>
7

> <PUBCHEM_CACTVS_HBOND_DONOR>
1

> <PUBCHEM_CACTVS_ROTATABLE_BOND>
3

> <PUBCHEM_CACTVS_SUBSKEYS>
AAADceB4OAAAAAAAAAAAAAAAAAAAASAAAAA0aIEAAAAAAEiRQAAAGgAACAAADFSgmAIyBoAABgCIAqBSAAICCAAkIAAIiAFGiMgNJzaENRqCeWKl4BULuYfK7PzOoQADCAAIQABCAAYQABCAAAAAAAAAAA==

> <PUBCHEM_IUPAC_INCHI>
InChI=1S/C23H22O7/c1-11(2)16-7-13-15(29-16)6-5-12-21(13)30-20-10-28-17-9-19(27-4)18(26-3)8-14(17)23(20,25)22(12)24/h5-6,8-9,16,20,25H,1,7,10H2,2-4H3/t16-,20-,23-/m1/s1

> <PUBCHEM_IUPAC_INCHIKEY>
JFVKWCYZKMUTLH-AYPBNUJASA-N

> <PUBCHEM_XLOGP3>
3.3

> <PUBCHEM_EXACT_MASS>
410.136553

> <PUBCHEM_MOLECULAR_FORMULA>
C23H22O7

> <PUBCHEM_MOLECULAR_WEIGHT>
410.41658

> <PUBCHEM_OPENEYE_CAN_SMILES>
CC(=C)C1CC2=C(O1)C=CC3=C2OC4COC5=CC(=C(C=C5C4(C3=O)O)OC)OC

> <PUBCHEM_OPENEYE_ISO_SMILES>
CC(=C)[C@H]1CC2=C(O1)C=CC3=C2O[C@@H]4COC5=CC(=C(C=C5[C@@]4(C3=O)O)OC)OC

> <PUBCHEM_CACTVS_TPSA>
83.4

> <PUBCHEM_MONOISOTOPIC_WEIGHT>
410.136553

> <PUBCHEM_TOTAL_CHARGE>
0

> <PUBCHEM_HEAVY_ATOM_COUNT>
30

> <PUBCHEM_ATOM_DEF_STEREO_COUNT>
3

> <PUBCHEM_ATOM_UDEF_STEREO_COUNT>
0

> <PUBCHEM_BOND_DEF_STEREO_COUNT>
0

> <PUBCHEM_BOND_UDEF_STEREO_COUNT>
0

> <PUBCHEM_ISOTOPIC_ATOM_COUNT>
0

> <PUBCHEM_COMPONENT_COUNT>
1

> <PUBCHEM_CACTVS_TAUTO_COUNT>
1

> <PUBCHEM_COORDINATE_TYPE>
1
5
255

> <PUBCHEM_BONDANNOTATIONS>
10  17  8
10  21  8
12  14  8
12  15  8
14  20  8
15  19  8
17  23  8
18  24  6
19  22  8
20  22  8
21  25  8
23  26  8
25  26  8
8  3  6
9  31  6

$$$$

