441199
  -OEChem-07051212522D

 45 47  0     1  0  0  0  0  0999 V2000
    6.8671   -0.6471    0.0000 S   0  0  0  0  0  0  0  0  0  0  0  0
   11.3292   -2.8022    0.0000 S   0  0  0  0  0  0  0  0  0  0  0  0
    8.7393   -1.1513    0.0000 O   0  0  0  0  0  0  0  0  0  0  0  0
    9.4470    1.5656    0.0000 O   0  0  0  0  0  0  0  0  0  0  0  0
    4.2690    0.8529    0.0000 O   0  0  0  0  0  0  0  0  0  0  0  0
    6.0010    2.8529    0.0000 O   0  0  0  0  0  0  0  0  0  0  0  0
    9.7378   -1.8854    0.0000 O   0  0  0  0  0  0  0  0  0  0  0  0
    7.7331    2.8529    0.0000 O   0  0  0  0  0  0  0  0  0  0  0  0
    3.4030    2.3529    0.0000 O   0  0  0  0  0  0  0  0  0  0  0  0
    7.7331    0.8529    0.0000 N   0  0  0  0  0  0  0  0  0  0  0  0
    9.7414   -0.1533    0.0000 N   0  0  0  0  0  0  0  0  0  0  0  0
    2.5369    0.8529    0.0000 N   0  0  0  0  0  0  0  0  0  0  0  0
    8.7414   -0.1513    0.0000 C   0  0  2  0  0  0  0  0  0  0  0  0
    7.7331   -0.1471    0.0000 C   0  0  1  0  0  0  0  0  0  0  0  0
    8.7414    0.8570    0.0000 C   0  0  0  0  0  0  0  0  0  0  0  0
    6.8671    1.3529    0.0000 C   0  0  0  0  0  0  0  0  0  0  0  0
    6.0010    0.8529    0.0000 C   0  0  0  0  0  0  0  0  0  0  0  0
    6.0010   -0.1471    0.0000 C   0  0  0  0  0  0  0  0  0  0  0  0
    5.1350    1.3529    0.0000 C   0  0  0  0  0  0  0  0  0  0  0  0
   10.2396   -1.0204    0.0000 C   0  0  0  0  0  0  0  0  0  0  0  0
    6.8671    2.3529    0.0000 C   0  0  0  0  0  0  0  0  0  0  0  0
    7.8723   -1.6495    0.0000 C   0  0  0  0  0  0  0  0  0  0  0  0
   11.2396   -1.0224    0.0000 C   0  0  0  0  0  0  0  0  0  0  0  0
   11.7378   -1.8895    0.0000 C   0  0  0  0  0  0  0  0  0  0  0  0
   12.7321   -1.9961    0.0000 C   0  0  0  0  0  0  0  0  0  0  0  0
    3.4030    1.3529    0.0000 C   0  0  0  0  0  0  0  0  0  0  0  0
   12.9380   -2.9746    0.0000 C   0  0  0  0  0  0  0  0  0  0  0  0
   12.0710   -3.4729    0.0000 C   0  0  0  0  0  0  0  0  0  0  0  0
    7.9514   -0.9686    0.0000 H   0  0  0  0  0  0  0  0  0  0  0  0
   10.0525    0.3830    0.0000 H   0  0  0  0  0  0  0  0  0  0  0  0
    5.3905   -0.0395    0.0000 H   0  0  0  0  0  0  0  0  0  0  0  0
    5.7890   -0.7297    0.0000 H   0  0  0  0  0  0  0  0  0  0  0  0
    5.5335    1.8278    0.0000 H   0  0  0  0  0  0  0  0  0  0  0  0
    4.7365    1.8278    0.0000 H   0  0  0  0  0  0  0  0  0  0  0  0
    7.5634   -1.1119    0.0000 H   0  0  0  0  0  0  0  0  0  0  0  0
    7.3347   -1.9584    0.0000 H   0  0  0  0  0  0  0  0  0  0  0  0
    8.1812   -2.1871    0.0000 H   0  0  0  0  0  0  0  0  0  0  0  0
   11.8226   -0.8116    0.0000 H   0  0  0  0  0  0  0  0  0  0  0  0
   11.1332   -0.4116    0.0000 H   0  0  0  0  0  0  0  0  0  0  0  0
    6.0010    3.4729    0.0000 H   0  0  0  0  0  0  0  0  0  0  0  0
   13.1479   -1.5362    0.0000 H   0  0  0  0  0  0  0  0  0  0  0  0
   13.5039   -3.2280    0.0000 H   0  0  0  0  0  0  0  0  0  0  0  0
   12.0049   -4.0893    0.0000 H   0  0  0  0  0  0  0  0  0  0  0  0
    2.0000    1.1629    0.0000 H   0  0  0  0  0  0  0  0  0  0  0  0
    2.5369    0.2329    0.0000 H   0  0  0  0  0  0  0  0  0  0  0  0
  1 14  1  0  0  0  0
  1 18  1  0  0  0  0
  2 24  1  0  0  0  0
  2 28  1  0  0  0  0
 13  3  1  6  0  0  0
  3 22  1  0  0  0  0
  4 15  2  0  0  0  0
  5 19  1  0  0  0  0
  5 26  1  0  0  0  0
  6 21  1  0  0  0  0
  6 40  1  0  0  0  0
  7 20  2  0  0  0  0
  8 21  2  0  0  0  0
  9 26  2  0  0  0  0
 10 14  1  0  0  0  0
 10 15  1  0  0  0  0
 10 16  1  0  0  0  0
 11 13  1  0  0  0  0
 11 20  1  0  0  0  0
 11 30  1  0  0  0  0
 12 26  1  0  0  0  0
 12 44  1  0  0  0  0
 12 45  1  0  0  0  0
 13 14  1  0  0  0  0
 13 15  1  0  0  0  0
 14 29  1  6  0  0  0
 16 17  2  0  0  0  0
 16 21  1  0  0  0  0
 17 18  1  0  0  0  0
 17 19  1  0  0  0  0
 18 31  1  0  0  0  0
 18 32  1  0  0  0  0
 19 33  1  0  0  0  0
 19 34  1  0  0  0  0
 20 23  1  0  0  0  0
 22 35  1  0  0  0  0
 22 36  1  0  0  0  0
 22 37  1  0  0  0  0
 23 24  1  0  0  0  0
 23 38  1  0  0  0  0
 23 39  1  0  0  0  0
 24 25  2  0  0  0  0
 25 27  1  0  0  0  0
 25 41  1  0  0  0  0
 27 28  2  0  0  0  0
 27 42  1  0  0  0  0
 28 43  1  0  0  0  0
M  END
> <PUBCHEM_COMPOUND_CID>
441199

> <PUBCHEM_COMPOUND_CANONICALIZED>
1

> <PUBCHEM_CACTVS_COMPLEXITY>
744

> <PUBCHEM_CACTVS_HBOND_ACCEPTOR>
9

> <PUBCHEM_CACTVS_HBOND_DONOR>
3

> <PUBCHEM_CACTVS_ROTATABLE_BOND>
8

> <PUBCHEM_CACTVS_SUBSKEYS>
AAADceB7OABgAAAAAAAAAAAAAABYASAAAAAgAAAAAAAQAAABgAAAHgQQCAAADAzl0AayCYPABgiMAiXSWAIDAIBgCBBIiBnIAMkKZDqgtTWdEAAglgC4uQcYCAAAAAAAAAAAAAAAAAAAAAAAAAAAAAAAAA==

> <PUBCHEM_IUPAC_OPENEYE_NAME>
(6R,7S)-3-(carbamoyloxymethyl)-7-methoxy-8-oxo-7-[[2-(2-thienyl)acetyl]amino]-5-thia-1-azabicyclo[4.2.0]oct-2-ene-2-carboxylic acid

> <PUBCHEM_IUPAC_CAS_NAME>
(6R,7S)-3-(carbamoyloxymethyl)-7-methoxy-8-oxo-7-[(1-oxo-2-thiophen-2-ylethyl)amino]-5-thia-1-azabicyclo[4.2.0]oct-2-ene-2-carboxylic acid

> <PUBCHEM_IUPAC_NAME>
(6R,7S)-3-(carbamoyloxymethyl)-7-methoxy-8-oxo-7-[(2-thiophen-2-ylacetyl)amino]-5-thia-1-azabicyclo[4.2.0]oct-2-ene-2-carboxylic acid

> <PUBCHEM_IUPAC_SYSTEMATIC_NAME>
(6R,7S)-3-(aminocarbonyloxymethyl)-7-methoxy-8-oxidanylidene-7-(2-thiophen-2-ylethanoylamino)-5-thia-1-azabicyclo[4.2.0]oct-2-ene-2-carboxylic acid

> <PUBCHEM_IUPAC_TRADITIONAL_NAME>
(6R,7S)-3-(carbamoyloxymethyl)-8-keto-7-methoxy-7-[[2-(2-thienyl)acetyl]amino]-5-thia-1-azabicyclo[4.2.0]oct-2-ene-2-carboxylic acid

> <PUBCHEM_IUPAC_INCHI>
InChI=1S/C16H17N3O7S2/c1-25-16(18-10(20)5-9-3-2-4-27-9)13(23)19-11(12(21)22)8(6-26-15(17)24)7-28-14(16)19/h2-4,14H,5-7H2,1H3,(H2,17,24)(H,18,20)(H,21,22)/t14-,16+/m1/s1

> <PUBCHEM_IUPAC_INCHIKEY>
WZOZEZRFJCJXNZ-ZBFHGGJFSA-N

> <PUBCHEM_XLOGP3>
0

> <PUBCHEM_EXACT_MASS>
427.050792

> <PUBCHEM_MOLECULAR_FORMULA>
C16H17N3O7S2

> <PUBCHEM_MOLECULAR_WEIGHT>
427.45208

> <PUBCHEM_OPENEYE_CAN_SMILES>
COC1(C2N(C1=O)C(=C(CS2)COC(=O)N)C(=O)O)NC(=O)CC3=CC=CS3

> <PUBCHEM_OPENEYE_ISO_SMILES>
CO[C@@]1([C@@H]2N(C1=O)C(=C(CS2)COC(=O)N)C(=O)O)NC(=O)CC3=CC=CS3

> <PUBCHEM_CACTVS_TPSA>
202

> <PUBCHEM_MONOISOTOPIC_WEIGHT>
427.050792

> <PUBCHEM_TOTAL_CHARGE>
0

> <PUBCHEM_HEAVY_ATOM_COUNT>
28

> <PUBCHEM_ATOM_DEF_STEREO_COUNT>
2

> <PUBCHEM_ATOM_UDEF_STEREO_COUNT>
0

> <PUBCHEM_BOND_DEF_STEREO_COUNT>
0

> <PUBCHEM_BOND_UDEF_STEREO_COUNT>
0

> <PUBCHEM_ISOTOPIC_ATOM_COUNT>
0

> <PUBCHEM_COMPONENT_COUNT>
1

> <PUBCHEM_CACTVS_TAUTO_COUNT>
4

> <PUBCHEM_COORDINATE_TYPE>
1
5
255

> <PUBCHEM_BONDANNOTATIONS>
14  29  6
2  24  8
2  28  8
24  25  8
25  27  8
27  28  8
13  3  6

$$$$

