13736
  -OEChem-06241222402D

 32 34  0     0  0  0  0  0  0999 V2000
    6.0682    0.5053    0.0000 S   0  0  0  0  0  0  0  0  0  0  0  0
    9.5984    0.5294    0.0000 N   0  3  0  0  0  0  0  0  0  0  0  0
    6.0682   -1.4947    0.0000 N   0  0  0  0  0  0  0  0  0  0  0  0
    2.5381    0.5294    0.0000 N   0  0  0  0  0  0  0  0  0  0  0  0
    6.9343    0.0053    0.0000 C   0  0  0  0  0  0  0  0  0  0  0  0
    8.7343    0.0261    0.0000 C   0  0  0  0  0  0  0  0  0  0  0  0
    6.9343   -0.9947    0.0000 C   0  0  0  0  0  0  0  0  0  0  0  0
    7.8282    0.5399    0.0000 C   0  0  0  0  0  0  0  0  0  0  0  0
    5.2022    0.0053    0.0000 C   0  0  0  0  0  0  0  0  0  0  0  0
    5.2022   -0.9947    0.0000 C   0  0  0  0  0  0  0  0  0  0  0  0
    8.7343   -1.0156    0.0000 C   0  0  0  0  0  0  0  0  0  0  0  0
    7.8282   -1.5294    0.0000 C   0  0  0  0  0  0  0  0  0  0  0  0
    4.3083    0.5399    0.0000 C   0  0  0  0  0  0  0  0  0  0  0  0
    4.3083   -1.5294    0.0000 C   0  0  0  0  0  0  0  0  0  0  0  0
    3.4022    0.0261    0.0000 C   0  0  0  0  0  0  0  0  0  0  0  0
   10.4663    0.0328    0.0000 C   0  0  0  0  0  0  0  0  0  0  0  0
    9.5945    1.5294    0.0000 C   0  0  0  0  0  0  0  0  0  0  0  0
    3.4022   -1.0156    0.0000 C   0  0  0  0  0  0  0  0  0  0  0  0
    7.8210    1.1599    0.0000 H   0  0  0  0  0  0  0  0  0  0  0  0
    9.2700   -1.3276    0.0000 H   0  0  0  0  0  0  0  0  0  0  0  0
    7.8210   -2.1494    0.0000 H   0  0  0  0  0  0  0  0  0  0  0  0
    4.3154    1.1599    0.0000 H   0  0  0  0  0  0  0  0  0  0  0  0
    4.3154   -2.1494    0.0000 H   0  0  0  0  0  0  0  0  0  0  0  0
   10.1584   -0.5054    0.0000 H   0  0  0  0  0  0  0  0  0  0  0  0
   11.0045   -0.2752    0.0000 H   0  0  0  0  0  0  0  0  0  0  0  0
   10.7743    0.5709    0.0000 H   0  0  0  0  0  0  0  0  0  0  0  0
   10.2145    1.5318    0.0000 H   0  0  0  0  0  0  0  0  0  0  0  0
    9.5921    2.1494    0.0000 H   0  0  0  0  0  0  0  0  0  0  0  0
    8.9745    1.5270    0.0000 H   0  0  0  0  0  0  0  0  0  0  0  0
    2.8665   -1.3276    0.0000 H   0  0  0  0  0  0  0  0  0  0  0  0
    2.0000    0.2215    0.0000 H   0  0  0  0  0  0  0  0  0  0  0  0
    2.5405    1.1494    0.0000 H   0  0  0  0  0  0  0  0  0  0  0  0
  1  5  1  0  0  0  0
  1  9  1  0  0  0  0
  2  6  2  0  0  0  0
  2 16  1  0  0  0  0
  2 17  1  0  0  0  0
  3  7  2  0  0  0  0
  3 10  1  0  0  0  0
  4 15  1  0  0  0  0
  4 31  1  0  0  0  0
  4 32  1  0  0  0  0
  5  7  1  0  0  0  0
  5  8  2  0  0  0  0
  6  8  1  0  0  0  0
  6 11  1  0  0  0  0
  7 12  1  0  0  0  0
  8 19  1  0  0  0  0
  9 10  2  0  0  0  0
  9 13  1  0  0  0  0
 10 14  1  0  0  0  0
 11 12  2  0  0  0  0
 11 20  1  0  0  0  0
 12 21  1  0  0  0  0
 13 15  2  0  0  0  0
 13 22  1  0  0  0  0
 14 18  2  0  0  0  0
 14 23  1  0  0  0  0
 15 18  1  0  0  0  0
 16 24  1  0  0  0  0
 16 25  1  0  0  0  0
 16 26  1  0  0  0  0
 17 27  1  0  0  0  0
 17 28  1  0  0  0  0
 17 29  1  0  0  0  0
 18 30  1  0  0  0  0
M  CHG  1   2   1
M  END
> <PUBCHEM_COMPOUND_CID>
13736

> <PUBCHEM_COMPOUND_CANONICALIZED>
1

> <PUBCHEM_CACTVS_COMPLEXITY>
483

> <PUBCHEM_CACTVS_HBOND_ACCEPTOR>
3

> <PUBCHEM_CACTVS_HBOND_DONOR>
1

> <PUBCHEM_CACTVS_ROTATABLE_BOND>
0

> <PUBCHEM_CACTVS_SUBSKEYS>
AAADccBzAABAAAAAAAAAAAAAAAAAAAAAAAAwQIAAAAAAAACBAAAAHAQQAAAACAiBUAQywYNAAAigASRiRACCAAAgChAIiBwYZJgIICKgkZGAIARgkAAoyAcQAAAAAACAACAAAQAAAQAAQAACAAAAAAAAAA==

> <PUBCHEM_IUPAC_OPENEYE_NAME>
(7-aminophenothiazin-3-ylidene)-dimethyl-ammonium

> <PUBCHEM_IUPAC_CAS_NAME>
(7-amino-3-phenothiazinylidene)-dimethylammonium

> <PUBCHEM_IUPAC_NAME>
(7-aminophenothiazin-3-ylidene)-dimethylazanium

> <PUBCHEM_IUPAC_SYSTEMATIC_NAME>
(7-azanylphenothiazin-3-ylidene)-dimethyl-azanium

> <PUBCHEM_IUPAC_TRADITIONAL_NAME>
(7-aminophenothiazin-3-ylidene)-dimethyl-ammonium

> <PUBCHEM_IUPAC_INCHI>
InChI=1S/C14H13N3S/c1-17(2)10-4-6-12-14(8-10)18-13-7-9(15)3-5-11(13)16-12/h3-8,15H,1-2H3/p+1

> <PUBCHEM_IUPAC_INCHIKEY>
HMYISFASHDWPMO-UHFFFAOYSA-O

> <PUBCHEM_XLOGP3_AA>
1.4

> <PUBCHEM_EXACT_MASS>
256.090843

> <PUBCHEM_MOLECULAR_FORMULA>
C14H14N3S+

> <PUBCHEM_MOLECULAR_WEIGHT>
256.34606

> <PUBCHEM_OPENEYE_CAN_SMILES>
C[N+](=C1C=CC2=NC3=C(C=C(C=C3)N)SC2=C1)C

> <PUBCHEM_OPENEYE_ISO_SMILES>
C[N+](=C1C=CC2=NC3=C(C=C(C=C3)N)SC2=C1)C

> <PUBCHEM_CACTVS_TPSA>
66.7

> <PUBCHEM_MONOISOTOPIC_WEIGHT>
256.090843

> <PUBCHEM_TOTAL_CHARGE>
1

> <PUBCHEM_HEAVY_ATOM_COUNT>
18

> <PUBCHEM_ATOM_DEF_STEREO_COUNT>
0

> <PUBCHEM_ATOM_UDEF_STEREO_COUNT>
0

> <PUBCHEM_BOND_DEF_STEREO_COUNT>
0

> <PUBCHEM_BOND_UDEF_STEREO_COUNT>
0

> <PUBCHEM_ISOTOPIC_ATOM_COUNT>
0

> <PUBCHEM_COMPONENT_COUNT>
1

> <PUBCHEM_CACTVS_TAUTO_COUNT>
1

> <PUBCHEM_COORDINATE_TYPE>
1
5
255

> <PUBCHEM_BONDANNOTATIONS>
1  5  8
1  9  8
10  14  8
11  12  8
13  15  8
14  18  8
15  18  8
3  10  8
3  7  8
5  8  8
6  11  8
6  8  8
7  12  8
9  10  8
9  13  8

$$$$

