   Color/Form

     * Light tan crystalline solid
     * Needles in alcohol

   from [1]HSDB

   Melting Point
        273-274 deg C
   from [2]HSDB

   Octanol/Water Partition Coefficient
        log Kow = 3.24 (est)
   from [3]HSDB

   Solubilities

     * Slightly sol in acetic acid; very soluble in ether and alcohol.
     * Practically insoluble in water

   from [4]HSDB

   Spectral Properties

     * MASS: 8854 (NIST/EPA/MSDC Mass spectral database, 1990 version)
     * IR: 8568 (Sadtler Research Laboratories IR grating collection)
     * UV: 2710 (Sadtler Research Laboratories)
     * 1H NMR: 18747 (Sadtler Research Laboratories)

   from [5]HSDB

   Vapor Pressure
        4.12X10-7 mm Hg at 25 deg C (est)
   from [6]HSDB

   Other Chemical/Physical Properties

     * Henry's Law constant = 6.2X10-7 atm-cu m/mole at 25 deg C (est)
     * Hydroxy radical reaction rate constant = 8.3X10-12 cu cm/molec-sec
       at 25 deg C (est)

   from [7]HSDB

   Computed Properties
   Molecular Weight                  198.17424 [g/mol]
   Molecular Formula                 C[12]H[6]O[3]
   XLogP3                            2.3
   H-Bond Donor                      0
   H-Bond Acceptor                   3
   Rotatable Bond Count              0
   Exact Mass                        198.031694
   MonoIsotopic Mass                 198.031694
   Topological Polar Surface Area    43.4
   Heavy Atom Count                  15
   Formal Charge                     0
   Complexity                        282
   Isotope Atom Count                0
   Defined Atom Stereocenter Count   0
   Undefined Atom Stereocenter Count 0
   Defined Bond Stereocenter Count   0
   Undefined Bond Stereocenter Count 0
   Covalently-Bonded Unit Count      1
   Feature 3D Acceptor Count         2
   Feature 3D Ring Count             3
   Effective Rotor Count             0.2
   Conformer Sampling RMSD           0.4
   CID Conformer Count               [8]1

References

   1. http://toxnet.nlm.nih.gov/cgi-bin/sis/search/r?dbs+hsdb:@term+@rn+@rel+81-84-5
   2. http://toxnet.nlm.nih.gov/cgi-bin/sis/search/r?dbs+hsdb:@term+@rn+@rel+81-84-5
   3. http://toxnet.nlm.nih.gov/cgi-bin/sis/search/r?dbs+hsdb:@term+@rn+@rel+81-84-5
   4. http://toxnet.nlm.nih.gov/cgi-bin/sis/search/r?dbs+hsdb:@term+@rn+@rel+81-84-5
   5. http://toxnet.nlm.nih.gov/cgi-bin/sis/search/r?dbs+hsdb:@term+@rn+@rel+81-84-5
   6. http://toxnet.nlm.nih.gov/cgi-bin/sis/search/r?dbs+hsdb:@term+@rn+@rel+81-84-5
   7. http://toxnet.nlm.nih.gov/cgi-bin/sis/search/r?dbs+hsdb:@term+@rn+@rel+81-84-5
   8. http://pubchem.ncbi.nlm.nih.gov/vw3d/vw3d.cgi?cid=6693
