   Color/Form
        Colorless crystals
   from [1]HSDB

   Odor
        Odorless
   from [2]HSDB

   Melting Point
        94-95 deg C
   from [3]HSDB

   Corrosivity
        CORROSIVE TO METALS IN PRESENCE OF MOISTURE
   from [4]HSDB

   Dissociation Constants

     * pKa: 3.20; 3.38 @ 60 DEG C; 3.75
     * pKa = 3.78 (20-25 deg C)
     * pKa = 3.1

   from [5]HSDB

   Octanol/Water Partition Coefficient
        Log Kow = 3.13
   from [6]HSDB

   Solubilities

     * Water: 734 mg/L @ 25 deg C
     * In acetone, diethyl ether, ethanol > 1000; ethyl acetate 825;
       chloroform: 339 (all in g/kg, 20 deg C)

   from [7]HSDB

   Vapor Pressure
        0.31 mPa (2.3X10-6 mm Hg) @ 20 deg C
   from [8]HSDB

   Other Chemical/Physical Properties

     * Mecoprop has an asymmetric carbon & therefore exists in 2
       enantiomorphs, of which the commercial product contains equal
       amounts; forms water-sol salts with many inorganic & organic bases;
       esters of the lower alcohols are solids or volatile liquids
     * THE (+)-FORM IS ACTIVE AS HERBICIDE
     * THE TECHNICAL PRODUCT MAY HAVE A SLIGHT PHENOLIC ODOR & MELTS @ 90
       DEG C OR ABOVE
     * Solubility of its salts in water (approx solubility, g(ae)/100 ml):
       @ 0 deg C, ammonium 32, diethylamine 50, potassium 80, sodium 26; @
       20 deg C, diethylamine 56, dimethylamine 66, potassium 92, sodium
       50 /Mecoprop salts/
     * Stable to heat, hydrolysis, reduction, and atmospheric oxidation.

   from [9]HSDB

   Computed Properties
   Molecular Weight                  214.64554 [g/mol]
   Molecular Formula                 C[10]H[11]ClO[3]
   XLogP3                            3.1
   H-Bond Donor                      1
   H-Bond Acceptor                   3
   Rotatable Bond Count              3
   Exact Mass                        214.039672
   MonoIsotopic Mass                 214.039672
   Topological Polar Surface Area    46.5
   Heavy Atom Count                  14
   Formal Charge                     0
   Complexity                        208
   Isotope Atom Count                0
   Defined Atom Stereocenter Count   0
   Undefined Atom Stereocenter Count 1
   Defined Bond Stereocenter Count   0
   Undefined Bond Stereocenter Count 0
   Covalently-Bonded Unit Count      1
   Feature 3D Acceptor Count         3
   Feature 3D Anion Count            1
   Feature 3D Ring Count             1
   Effective Rotor Count             3
   Conformer Sampling RMSD           0.6
   CID Conformer Count               [10]26

References

   1. http://toxnet.nlm.nih.gov/cgi-bin/sis/search/r?dbs+hsdb:@term+@rn+@rel+93-65-2
   2. http://toxnet.nlm.nih.gov/cgi-bin/sis/search/r?dbs+hsdb:@term+@rn+@rel+93-65-2
   3. http://toxnet.nlm.nih.gov/cgi-bin/sis/search/r?dbs+hsdb:@term+@rn+@rel+93-65-2
   4. http://toxnet.nlm.nih.gov/cgi-bin/sis/search/r?dbs+hsdb:@term+@rn+@rel+93-65-2
   5. http://toxnet.nlm.nih.gov/cgi-bin/sis/search/r?dbs+hsdb:@term+@rn+@rel+93-65-2
   6. http://toxnet.nlm.nih.gov/cgi-bin/sis/search/r?dbs+hsdb:@term+@rn+@rel+93-65-2
   7. http://toxnet.nlm.nih.gov/cgi-bin/sis/search/r?dbs+hsdb:@term+@rn+@rel+93-65-2
   8. http://toxnet.nlm.nih.gov/cgi-bin/sis/search/r?dbs+hsdb:@term+@rn+@rel+93-65-2
   9. http://toxnet.nlm.nih.gov/cgi-bin/sis/search/r?dbs+hsdb:@term+@rn+@rel+93-65-2
  10. http://pubchem.ncbi.nlm.nih.gov/vw3d/vw3d.cgi?cid=7153
