11172
  -OEChem-06261205212D

 90 90  0     0  0  0  0  0  0999 V2000
    7.2960   -2.2500    0.0000 Si  0  0  0  0  0  0  0  0  0  0  0  0
    5.5640   -2.2500    0.0000 Si  0  0  0  0  0  0  0  0  0  0  0  0
    8.1621   -0.7500    0.0000 Si  0  0  0  0  0  0  0  0  0  0  0  0
    4.6980   -0.7500    0.0000 Si  0  0  0  0  0  0  0  0  0  0  0  0
    7.2960    0.7500    0.0000 Si  0  0  0  0  0  0  0  0  0  0  0  0
    3.8320    0.7500    0.0000 Si  0  0  0  0  0  0  0  0  0  0  0  0
    6.4300    2.2500    0.0000 Si  0  0  0  0  0  0  0  0  0  0  0  0
    2.9659    2.2500    0.0000 Si  0  0  0  0  0  0  0  0  0  0  0  0
    4.6980    2.2500    0.0000 Si  0  0  0  0  0  0  0  0  0  0  0  0
    6.4300   -1.7500    0.0000 O   0  0  0  0  0  0  0  0  0  0  0  0
    8.1621   -1.7500    0.0000 O   0  0  0  0  0  0  0  0  0  0  0  0
    4.6980   -1.7500    0.0000 O   0  0  0  0  0  0  0  0  0  0  0  0
    7.2960   -0.2500    0.0000 O   0  0  0  0  0  0  0  0  0  0  0  0
    3.8320   -0.2500    0.0000 O   0  0  0  0  0  0  0  0  0  0  0  0
    6.4300    1.2500    0.0000 O   0  0  0  0  0  0  0  0  0  0  0  0
    2.9659    1.2500    0.0000 O   0  0  0  0  0  0  0  0  0  0  0  0
    5.5640    2.7500    0.0000 O   0  0  0  0  0  0  0  0  0  0  0  0
    3.8320    2.7500    0.0000 O   0  0  0  0  0  0  0  0  0  0  0  0
    8.0032   -2.9571    0.0000 C   0  0  0  0  0  0  0  0  0  0  0  0
    7.0372   -3.2159    0.0000 C   0  0  0  0  0  0  0  0  0  0  0  0
    4.8570   -2.9572    0.0000 C   0  0  0  0  0  0  0  0  0  0  0  0
    5.8228   -3.2159    0.0000 C   0  0  0  0  0  0  0  0  0  0  0  0
    9.1280   -1.0088    0.0000 C   0  0  0  0  0  0  0  0  0  0  0  0
    8.8692   -0.0429    0.0000 C   0  0  0  0  0  0  0  0  0  0  0  0
    5.4051   -0.0429    0.0000 C   0  0  0  0  0  0  0  0  0  0  0  0
    5.6639   -1.0088    0.0000 C   0  0  0  0  0  0  0  0  0  0  0  0
    8.0032    1.4571    0.0000 C   0  0  0  0  0  0  0  0  0  0  0  0
    8.2922    0.6628    0.0000 C   0  0  0  0  0  0  0  0  0  0  0  0
    4.7979    0.4912    0.0000 C   0  0  0  0  0  0  0  0  0  0  0  0
    4.5391    1.4571    0.0000 C   0  0  0  0  0  0  0  0  0  0  0  0
    6.6888    3.2159    0.0000 C   0  0  0  0  0  0  0  0  0  0  0  0
    7.3960    2.5088    0.0000 C   0  0  0  0  0  0  0  0  0  0  0  0
    2.7071    3.2159    0.0000 C   0  0  0  0  0  0  0  0  0  0  0  0
    2.0000    2.5088    0.0000 C   0  0  0  0  0  0  0  0  0  0  0  0
    5.4051    1.5429    0.0000 C   0  0  0  0  0  0  0  0  0  0  0  0
    3.7917    1.8273    0.0000 C   0  0  0  0  0  0  0  0  0  0  0  0
    8.9675   -1.6077    0.0000 H   0  0  0  0  0  0  0  0  0  0  0  0
    9.3076   -0.4813    0.0000 H   0  0  0  0  0  0  0  0  0  0  0  0
    9.3076    0.3955    0.0000 H   0  0  0  0  0  0  0  0  0  0  0  0
    8.4308    0.3955    0.0000 H   0  0  0  0  0  0  0  0  0  0  0  0
    5.8435   -0.4813    0.0000 H   0  0  0  0  0  0  0  0  0  0  0  0
    5.8435    0.3955    0.0000 H   0  0  0  0  0  0  0  0  0  0  0  0
    4.9667    0.3955    0.0000 H   0  0  0  0  0  0  0  0  0  0  0  0
    5.5034   -1.6077    0.0000 H   0  0  0  0  0  0  0  0  0  0  0  0
    6.2628   -1.1693    0.0000 H   0  0  0  0  0  0  0  0  0  0  0  0
    5.8244   -0.4099    0.0000 H   0  0  0  0  0  0  0  0  0  0  0  0
    8.4416    1.0187    0.0000 H   0  0  0  0  0  0  0  0  0  0  0  0
    8.4416    1.8955    0.0000 H   0  0  0  0  0  0  0  0  0  0  0  0
    7.5648    1.8955    0.0000 H   0  0  0  0  0  0  0  0  0  0  0  0
    9.7269   -1.1693    0.0000 H   0  0  0  0  0  0  0  0  0  0  0  0
    9.2885   -0.4099    0.0000 H   0  0  0  0  0  0  0  0  0  0  0  0
    5.2240   -3.3764    0.0000 H   0  0  0  0  0  0  0  0  0  0  0  0
    5.9833   -3.8148    0.0000 H   0  0  0  0  0  0  0  0  0  0  0  0
    6.4217   -3.0555    0.0000 H   0  0  0  0  0  0  0  0  0  0  0  0
    4.4185   -2.5188    0.0000 H   0  0  0  0  0  0  0  0  0  0  0  0
    4.4186   -3.3956    0.0000 H   0  0  0  0  0  0  0  0  0  0  0  0
    5.2954   -3.3955    0.0000 H   0  0  0  0  0  0  0  0  0  0  0  0
    6.4384   -3.0555    0.0000 H   0  0  0  0  0  0  0  0  0  0  0  0
    6.8768   -3.8148    0.0000 H   0  0  0  0  0  0  0  0  0  0  0  0
    7.6361   -3.3764    0.0000 H   0  0  0  0  0  0  0  0  0  0  0  0
    7.5648   -3.3955    0.0000 H   0  0  0  0  0  0  0  0  0  0  0  0
    8.4416   -3.3955    0.0000 H   0  0  0  0  0  0  0  0  0  0  0  0
    8.4416   -2.5187    0.0000 H   0  0  0  0  0  0  0  0  0  0  0  0
    3.5296    2.3892    0.0000 H   0  0  0  0  0  0  0  0  0  0  0  0
    3.2298    1.5652    0.0000 H   0  0  0  0  0  0  0  0  0  0  0  0
    4.0538    1.2654    0.0000 H   0  0  0  0  0  0  0  0  0  0  0  0
    4.9667    1.1045    0.0000 H   0  0  0  0  0  0  0  0  0  0  0  0
    5.8435    1.1045    0.0000 H   0  0  0  0  0  0  0  0  0  0  0  0
    5.8435    1.9813    0.0000 H   0  0  0  0  0  0  0  0  0  0  0  0
    2.1605    3.1077    0.0000 H   0  0  0  0  0  0  0  0  0  0  0  0
    1.4011    2.6693    0.0000 H   0  0  0  0  0  0  0  0  0  0  0  0
    1.8395    1.9100    0.0000 H   0  0  0  0  0  0  0  0  0  0  0  0
    3.3060    3.3764    0.0000 H   0  0  0  0  0  0  0  0  0  0  0  0
    2.5466    3.8148    0.0000 H   0  0  0  0  0  0  0  0  0  0  0  0
    2.1082    3.0555    0.0000 H   0  0  0  0  0  0  0  0  0  0  0  0
    7.5564    1.9100    0.0000 H   0  0  0  0  0  0  0  0  0  0  0  0
    7.9948    2.6693    0.0000 H   0  0  0  0  0  0  0  0  0  0  0  0
    7.2355    3.1077    0.0000 H   0  0  0  0  0  0  0  0  0  0  0  0
    7.2877    3.0555    0.0000 H   0  0  0  0  0  0  0  0  0  0  0  0
    6.8493    3.8148    0.0000 H   0  0  0  0  0  0  0  0  0  0  0  0
    6.0900    3.3764    0.0000 H   0  0  0  0  0  0  0  0  0  0  0  0
    4.9775    1.0187    0.0000 H   0  0  0  0  0  0  0  0  0  0  0  0
    4.9775    1.8955    0.0000 H   0  0  0  0  0  0  0  0  0  0  0  0
    4.1006    1.8955    0.0000 H   0  0  0  0  0  0  0  0  0  0  0  0
    4.6374   -0.1077    0.0000 H   0  0  0  0  0  0  0  0  0  0  0  0
    5.3968    0.3307    0.0000 H   0  0  0  0  0  0  0  0  0  0  0  0
    4.9583    1.0900    0.0000 H   0  0  0  0  0  0  0  0  0  0  0  0
    8.2382    0.0452    0.0000 H   0  0  0  0  0  0  0  0  0  0  0  0
    8.9099    0.6088    0.0000 H   0  0  0  0  0  0  0  0  0  0  0  0
    8.3463    1.2805    0.0000 H   0  0  0  0  0  0  0  0  0  0  0  0
  1 10  1  0  0  0  0
  1 11  1  0  0  0  0
  1 19  1  0  0  0  0
  1 20  1  0  0  0  0
  2 10  1  0  0  0  0
  2 12  1  0  0  0  0
  2 21  1  0  0  0  0
  2 22  1  0  0  0  0
  3 11  1  0  0  0  0
  3 13  1  0  0  0  0
  3 23  1  0  0  0  0
  3 24  1  0  0  0  0
  4 12  1  0  0  0  0
  4 14  1  0  0  0  0
  4 25  1  0  0  0  0
  4 26  1  0  0  0  0
  5 13  1  0  0  0  0
  5 15  1  0  0  0  0
  5 27  1  0  0  0  0
  5 28  1  0  0  0  0
  6 14  1  0  0  0  0
  6 16  1  0  0  0  0
  6 29  1  0  0  0  0
  6 30  1  0  0  0  0
  7 15  1  0  0  0  0
  7 17  1  0  0  0  0
  7 31  1  0  0  0  0
  7 32  1  0  0  0  0
  8 16  1  0  0  0  0
  8 18  1  0  0  0  0
  8 33  1  0  0  0  0
  8 34  1  0  0  0  0
  9 17  1  0  0  0  0
  9 18  1  0  0  0  0
  9 35  1  0  0  0  0
  9 36  1  0  0  0  0
 19 61  1  0  0  0  0
 19 62  1  0  0  0  0
 19 63  1  0  0  0  0
 20 58  1  0  0  0  0
 20 59  1  0  0  0  0
 20 60  1  0  0  0  0
 21 55  1  0  0  0  0
 21 56  1  0  0  0  0
 21 57  1  0  0  0  0
 22 52  1  0  0  0  0
 22 53  1  0  0  0  0
 22 54  1  0  0  0  0
 23 37  1  0  0  0  0
 23 50  1  0  0  0  0
 23 51  1  0  0  0  0
 24 38  1  0  0  0  0
 24 39  1  0  0  0  0
 24 40  1  0  0  0  0
 25 41  1  0  0  0  0
 25 42  1  0  0  0  0
 25 43  1  0  0  0  0
 26 44  1  0  0  0  0
 26 45  1  0  0  0  0
 26 46  1  0  0  0  0
 27 47  1  0  0  0  0
 27 48  1  0  0  0  0
 27 49  1  0  0  0  0
 28 88  1  0  0  0  0
 28 89  1  0  0  0  0
 28 90  1  0  0  0  0
 29 85  1  0  0  0  0
 29 86  1  0  0  0  0
 29 87  1  0  0  0  0
 30 82  1  0  0  0  0
 30 83  1  0  0  0  0
 30 84  1  0  0  0  0
 31 79  1  0  0  0  0
 31 80  1  0  0  0  0
 31 81  1  0  0  0  0
 32 76  1  0  0  0  0
 32 77  1  0  0  0  0
 32 78  1  0  0  0  0
 33 73  1  0  0  0  0
 33 74  1  0  0  0  0
 33 75  1  0  0  0  0
 34 70  1  0  0  0  0
 34 71  1  0  0  0  0
 34 72  1  0  0  0  0
 35 67  1  0  0  0  0
 35 68  1  0  0  0  0
 35 69  1  0  0  0  0
 36 64  1  0  0  0  0
 36 65  1  0  0  0  0
 36 66  1  0  0  0  0
M  END
> <PUBCHEM_COMPOUND_CID>
11172

> <PUBCHEM_COMPOUND_CANONICALIZED>
1

> <PUBCHEM_CACTVS_COMPLEXITY>
517

> <PUBCHEM_CACTVS_HBOND_ACCEPTOR>
9

> <PUBCHEM_CACTVS_HBOND_DONOR>
0

> <PUBCHEM_CACTVS_ROTATABLE_BOND>
0

> <PUBCHEM_CACTVS_SUBSKEYS>
AAADcfB4PAwAAAAAAAAAAAAAAAAAAAAAAAAAAAAAAAAAAAAAAAAAEBAAAEAAAAAAAABCAAAAAAEAAAAAAAAAAAAAAAAAAAAAAAAAAAAAAAAAAAAAAAAAAAAAAAAAAAAAAAAAAAAAAAAAAAAAAAAAAAAAAA==

> <PUBCHEM_IUPAC_OPENEYE_NAME>
2,2,4,4,6,6,8,8,10,10,12,12,14,14,16,16,18,18-octadecamethyl-1,3,5,7,9,11,13,15,17-nonaoxa-2,4,6,8,10,12,14,16,18-nonasilacyclooctadecane

> <PUBCHEM_IUPAC_CAS_NAME>
2,2,4,4,6,6,8,8,10,10,12,12,14,14,16,16,18,18-octadecamethyl-1,3,5,7,9,11,13,15,17-nonaoxa-2,4,6,8,10,12,14,16,18-nonasilacyclooctadecane

> <PUBCHEM_IUPAC_NAME>
2,2,4,4,6,6,8,8,10,10,12,12,14,14,16,16,18,18-octadecamethyl-1,3,5,7,9,11,13,15,17-nonaoxa-2,4,6,8,10,12,14,16,18-nonasilacyclooctadecane

> <PUBCHEM_IUPAC_SYSTEMATIC_NAME>
2,2,4,4,6,6,8,8,10,10,12,12,14,14,16,16,18,18-octadecamethyl-1,3,5,7,9,11,13,15,17-nonaoxa-2,4,6,8,10,12,14,16,18-nonasilacyclooctadecane

> <PUBCHEM_IUPAC_TRADITIONAL_NAME>
2,2,4,4,6,6,8,8,10,10,12,12,14,14,16,16,18,18-octadecamethyl-1,3,5,7,9,11,13,15,17-nonaoxa-2,4,6,8,10,12,14,16,18-nonasilacyclooctadecane

> <PUBCHEM_IUPAC_INCHI>
InChI=1S/C18H54O9Si9/c1-28(2)19-29(3,4)21-31(7,8)23-33(11,12)25-35(15,16)27-36(17,18)26-34(13,14)24-32(9,10)22-30(5,6)20-28/h1-18H3

> <PUBCHEM_IUPAC_INCHIKEY>
ISXOGOLHEGHGQF-UHFFFAOYSA-N

> <PUBCHEM_EXACT_MASS>
666.169122

> <PUBCHEM_MOLECULAR_FORMULA>
C18H54O9Si9

> <PUBCHEM_MOLECULAR_WEIGHT>
667.38546

> <PUBCHEM_OPENEYE_CAN_SMILES>
C[Si]1(O[Si](O[Si](O[Si](O[Si](O[Si](O[Si](O[Si](O[Si](O1)(C)C)(C)C)(C)C)(C)C)(C)C)(C)C)(C)C)(C)C)C

> <PUBCHEM_OPENEYE_ISO_SMILES>
C[Si]1(O[Si](O[Si](O[Si](O[Si](O[Si](O[Si](O[Si](O[Si](O1)(C)C)(C)C)(C)C)(C)C)(C)C)(C)C)(C)C)(C)C)C

> <PUBCHEM_CACTVS_TPSA>
83.1

> <PUBCHEM_MONOISOTOPIC_WEIGHT>
666.169122

> <PUBCHEM_TOTAL_CHARGE>
0

> <PUBCHEM_HEAVY_ATOM_COUNT>
36

> <PUBCHEM_ATOM_DEF_STEREO_COUNT>
0

> <PUBCHEM_ATOM_UDEF_STEREO_COUNT>
0

> <PUBCHEM_BOND_DEF_STEREO_COUNT>
0

> <PUBCHEM_BOND_UDEF_STEREO_COUNT>
0

> <PUBCHEM_ISOTOPIC_ATOM_COUNT>
0

> <PUBCHEM_COMPONENT_COUNT>
1

> <PUBCHEM_CACTVS_TAUTO_COUNT>
1

> <PUBCHEM_COORDINATE_TYPE>
1
5
255

$$$$

