442637
  -OEChem-07051212582D

 37 39  0     1  0  0  0  0  0999 V2000
    7.9472    0.8021    0.0000 S   0  0  0  0  0  0  0  0  0  0  0  0
    3.3090   -0.7367    0.0000 S   0  0  0  0  0  0  0  0  0  0  0  0
    8.7562    0.2143    0.0000 S   0  0  0  0  0  0  0  0  0  0  0  0
    2.3090   -0.7367    0.0000 S   0  0  0  0  0  0  0  0  0  0  0  0
    6.8594   -1.5457    0.0000 O   0  0  0  0  0  0  0  0  0  0  0  0
    2.8090    1.8021    0.0000 O   0  0  0  0  0  0  0  0  0  0  0  0
    5.3781   -0.0644    0.0000 N   0  0  0  0  0  0  0  0  0  0  0  0
    6.1871    0.5234    0.0000 C   0  0  2  0  0  0  0  0  0  0  0  0
    4.5691    0.5234    0.0000 C   0  0  2  0  0  0  0  0  0  0  0  0
    5.8781    1.4744    0.0000 C   0  0  0  0  0  0  0  0  0  0  0  0
    4.8781    1.4744    0.0000 C   0  0  0  0  0  0  0  0  0  0  0  0
    7.1382    0.2143    0.0000 C   0  0  1  0  0  0  0  0  0  0  0  0
    3.6180    0.2143    0.0000 C   0  0  1  0  0  0  0  0  0  0  0  0
    7.4472   -0.7367    0.0000 C   0  0  2  0  0  0  0  0  0  0  0  0
    2.8090    0.8021    0.0000 C   0  0  2  0  0  0  0  0  0  0  0  0
    5.3781   -1.0644    0.0000 C   0  0  0  0  0  0  0  0  0  0  0  0
    8.4472   -0.7367    0.0000 C   0  0  0  0  0  0  0  0  0  0  0  0
    2.0000    0.2143    0.0000 C   0  0  0  0  0  0  0  0  0  0  0  0
    6.3201   -0.3162    0.0000 H   0  0  0  0  0  0  0  0  0  0  0  0
    3.9680    1.1244    0.0000 H   0  0  0  0  0  0  0  0  0  0  0  0
    6.4846    1.6033    0.0000 H   0  0  0  0  0  0  0  0  0  0  0  0
    5.8133    2.0910    0.0000 H   0  0  0  0  0  0  0  0  0  0  0  0
    4.9429    2.0910    0.0000 H   0  0  0  0  0  0  0  0  0  0  0  0
    4.2717    1.6033    0.0000 H   0  0  0  0  0  0  0  0  0  0  0  0
    7.0052    1.0539    0.0000 H   0  0  0  0  0  0  0  0  0  0  0  0
    3.7510    1.0539    0.0000 H   0  0  0  0  0  0  0  0  0  0  0  0
    6.8348   -0.6397    0.0000 H   0  0  0  0  0  0  0  0  0  0  0  0
    3.3614    1.0836    0.0000 H   0  0  0  0  0  0  0  0  0  0  0  0
    4.7581   -1.0644    0.0000 H   0  0  0  0  0  0  0  0  0  0  0  0
    5.3781   -1.6844    0.0000 H   0  0  0  0  0  0  0  0  0  0  0  0
    5.9981   -1.0644    0.0000 H   0  0  0  0  0  0  0  0  0  0  0  0
    8.3824   -1.3533    0.0000 H   0  0  0  0  0  0  0  0  0  0  0  0
    9.0536   -0.8656    0.0000 H   0  0  0  0  0  0  0  0  0  0  0  0
    1.6900    0.7513    0.0000 H   0  0  0  0  0  0  0  0  0  0  0  0
    1.4336   -0.0378    0.0000 H   0  0  0  0  0  0  0  0  0  0  0  0
    7.1116   -2.1121    0.0000 H   0  0  0  0  0  0  0  0  0  0  0  0
    2.2721    2.1121    0.0000 H   0  0  0  0  0  0  0  0  0  0  0  0
  1  3  1  0  0  0  0
  1 12  1  0  0  0  0
  2  4  1  0  0  0  0
  2 13  1  0  0  0  0
  3 17  1  0  0  0  0
  4 18  1  0  0  0  0
 14  5  1  6  0  0  0
  5 36  1  0  0  0  0
 15  6  1  6  0  0  0
  6 37  1  0  0  0  0
  7  8  1  0  0  0  0
  7  9  1  0  0  0  0
  7 16  1  0  0  0  0
  8 10  1  0  0  0  0
  8 12  1  0  0  0  0
  8 19  1  1  0  0  0
  9 11  1  0  0  0  0
  9 13  1  0  0  0  0
  9 20  1  6  0  0  0
 10 11  1  0  0  0  0
 10 21  1  0  0  0  0
 10 22  1  0  0  0  0
 11 23  1  0  0  0  0
 11 24  1  0  0  0  0
 12 14  1  0  0  0  0
 12 25  1  1  0  0  0
 13 15  1  0  0  0  0
 13 26  1  1  0  0  0
 14 17  1  0  0  0  0
 14 27  1  0  0  0  0
 15 18  1  0  0  0  0
 15 28  1  0  0  0  0
 16 29  1  0  0  0  0
 16 30  1  0  0  0  0
 16 31  1  0  0  0  0
 17 32  1  0  0  0  0
 17 33  1  0  0  0  0
 18 34  1  0  0  0  0
 18 35  1  0  0  0  0
M  END
> <PUBCHEM_COMPOUND_CID>
442637

> <PUBCHEM_COMPOUND_CANONICALIZED>
1

> <PUBCHEM_CACTVS_COMPLEXITY>
281

> <PUBCHEM_CACTVS_HBOND_ACCEPTOR>
7

> <PUBCHEM_CACTVS_HBOND_DONOR>
2

> <PUBCHEM_CACTVS_ROTATABLE_BOND>
2

> <PUBCHEM_CACTVS_SUBSKEYS>
AAADceByMABwAAAAAAAAAAAAAAAAAWJEgAAAAAAAAAAAAAAAAAAAHgQACAAACDzlwAaCAAMAAgAAAAAAAAAAAAAAAAAAAAAIAAAAEAIAgAAEQAAGAACAAAGQwKAAAAAAAAAAAAAAAAAAAAAAAAAAAAAAAA==

> <PUBCHEM_IUPAC_OPENEYE_NAME>
(3S,4S)-3-[(2R,5R)-5-[(3S,4S)-4-hydroxydithiolan-3-yl]-1-methyl-pyrrolidin-2-yl]dithiolan-4-ol

> <PUBCHEM_IUPAC_CAS_NAME>
(3S,4S)-3-[(2R,5R)-5-[(3S,4S)-4-hydroxy-3-dithiolanyl]-1-methyl-2-pyrrolidinyl]-4-dithiolanol

> <PUBCHEM_IUPAC_NAME>
(3S,4S)-3-[(2R,5R)-5-[(3S,4S)-4-hydroxydithiolan-3-yl]-1-methylpyrrolidin-2-yl]dithiolan-4-ol

> <PUBCHEM_IUPAC_SYSTEMATIC_NAME>
(3S,4S)-3-[(2R,5R)-1-methyl-5-[(3S,4S)-4-oxidanyl-1,2-dithiolan-3-yl]pyrrolidin-2-yl]-1,2-dithiolan-4-ol

> <PUBCHEM_IUPAC_TRADITIONAL_NAME>
(3S,4S)-3-[(2R,5R)-5-[(3S,4S)-4-hydroxydithiolan-3-yl]-1-methyl-pyrrolidin-2-yl]dithiolan-4-ol

> <PUBCHEM_IUPAC_INCHI>
InChI=1S/C11H19NO2S4/c1-12-6(10-8(13)4-15-17-10)2-3-7(12)11-9(14)5-16-18-11/h6-11,13-14H,2-5H2,1H3/t6-,7-,8+,9+,10+,11+/m1/s1

> <PUBCHEM_IUPAC_INCHIKEY>
BEZBZIDWLUURMB-VCACHIOZSA-N

> <PUBCHEM_XLOGP3_AA>
0.7

> <PUBCHEM_EXACT_MASS>
325.029863

> <PUBCHEM_MOLECULAR_FORMULA>
C11H19NO2S4

> <PUBCHEM_MOLECULAR_WEIGHT>
325.53406

> <PUBCHEM_OPENEYE_CAN_SMILES>
CN1C(CCC1C2C(CSS2)O)C3C(CSS3)O

> <PUBCHEM_OPENEYE_ISO_SMILES>
CN1[C@H](CC[C@@H]1[C@H]2[C@H](CSS2)O)[C@H]3[C@H](CSS3)O

> <PUBCHEM_CACTVS_TPSA>
145

> <PUBCHEM_MONOISOTOPIC_WEIGHT>
325.029863

> <PUBCHEM_TOTAL_CHARGE>
0

> <PUBCHEM_HEAVY_ATOM_COUNT>
18

> <PUBCHEM_ATOM_DEF_STEREO_COUNT>
6

> <PUBCHEM_ATOM_UDEF_STEREO_COUNT>
0

> <PUBCHEM_BOND_DEF_STEREO_COUNT>
0

> <PUBCHEM_BOND_UDEF_STEREO_COUNT>
0

> <PUBCHEM_ISOTOPIC_ATOM_COUNT>
0

> <PUBCHEM_COMPONENT_COUNT>
1

> <PUBCHEM_CACTVS_TAUTO_COUNT>
1

> <PUBCHEM_COORDINATE_TYPE>
1
5
255

> <PUBCHEM_BONDANNOTATIONS>
12  25  5
13  26  5
14  5  6
15  6  6
8  19  5
9  20  6

$$$$

