441135
  -OEChem-07051212522D

 31 32  0     0  0  0  0  0  0999 V2000
    3.7320    4.1550    0.0000 S   0  0  0  0  0  0  0  0  0  0  0  0
    3.7320    5.1550    0.0000 O   0  0  0  0  0  0  0  0  0  0  0  0
    4.7320    4.1550    0.0000 O   0  0  0  0  0  0  0  0  0  0  0  0
    2.7320    4.1550    0.0000 O   0  0  0  0  0  0  0  0  0  0  0  0
    2.0000   -4.8450    0.0000 O   0  0  0  0  0  0  0  0  0  0  0  0
    3.7320   -4.8450    0.0000 O   0  0  0  0  0  0  0  0  0  0  0  0
    3.7320    0.1550    0.0000 N   0  0  0  0  0  0  0  0  0  0  0  0
    2.8660   -0.3450    0.0000 N   0  0  0  0  0  0  0  0  0  0  0  0
    3.7320    3.1550    0.0000 C   0  0  0  0  0  0  0  0  0  0  0  0
    3.7320    1.1550    0.0000 C   0  0  0  0  0  0  0  0  0  0  0  0
    2.8660    2.6550    0.0000 C   0  0  0  0  0  0  0  0  0  0  0  0
    4.5981    2.6550    0.0000 C   0  0  0  0  0  0  0  0  0  0  0  0
    2.8660    1.6550    0.0000 C   0  0  0  0  0  0  0  0  0  0  0  0
    4.5981    1.6550    0.0000 C   0  0  0  0  0  0  0  0  0  0  0  0
    2.8660   -1.3450    0.0000 C   0  0  0  0  0  0  0  0  0  0  0  0
    2.8660   -3.3450    0.0000 C   0  0  0  0  0  0  0  0  0  0  0  0
    2.0000   -1.8450    0.0000 C   0  0  0  0  0  0  0  0  0  0  0  0
    3.7320   -1.8450    0.0000 C   0  0  0  0  0  0  0  0  0  0  0  0
    2.0000   -2.8450    0.0000 C   0  0  0  0  0  0  0  0  0  0  0  0
    3.7320   -2.8450    0.0000 C   0  0  0  0  0  0  0  0  0  0  0  0
    2.8660   -4.3450    0.0000 C   0  0  0  0  0  0  0  0  0  0  0  0
    2.3291    2.9650    0.0000 H   0  0  0  0  0  0  0  0  0  0  0  0
    5.1350    2.9650    0.0000 H   0  0  0  0  0  0  0  0  0  0  0  0
    2.3291    1.3450    0.0000 H   0  0  0  0  0  0  0  0  0  0  0  0
    5.1350    1.3450    0.0000 H   0  0  0  0  0  0  0  0  0  0  0  0
    1.4631   -1.5350    0.0000 H   0  0  0  0  0  0  0  0  0  0  0  0
    4.2690   -1.5350    0.0000 H   0  0  0  0  0  0  0  0  0  0  0  0
    1.4631   -3.1550    0.0000 H   0  0  0  0  0  0  0  0  0  0  0  0
    4.2690   -3.1550    0.0000 H   0  0  0  0  0  0  0  0  0  0  0  0
    4.2690    5.4650    0.0000 H   0  0  0  0  0  0  0  0  0  0  0  0
    2.0000   -5.4650    0.0000 H   0  0  0  0  0  0  0  0  0  0  0  0
  1  2  1  0  0  0  0
  1  3  2  0  0  0  0
  1  4  2  0  0  0  0
  1  9  1  0  0  0  0
  2 30  1  0  0  0  0
  5 21  1  0  0  0  0
  5 31  1  0  0  0  0
  6 21  2  0  0  0  0
  7  8  2  0  0  0  0
  7 10  1  0  0  0  0
  8 15  1  0  0  0  0
  9 11  2  0  0  0  0
  9 12  1  0  0  0  0
 10 13  2  0  0  0  0
 10 14  1  0  0  0  0
 11 13  1  0  0  0  0
 11 22  1  0  0  0  0
 12 14  2  0  0  0  0
 12 23  1  0  0  0  0
 13 24  1  0  0  0  0
 14 25  1  0  0  0  0
 15 17  2  0  0  0  0
 15 18  1  0  0  0  0
 16 19  2  0  0  0  0
 16 20  1  0  0  0  0
 16 21  1  0  0  0  0
 17 19  1  0  0  0  0
 17 26  1  0  0  0  0
 18 20  2  0  0  0  0
 18 27  1  0  0  0  0
 19 28  1  0  0  0  0
 20 29  1  0  0  0  0
M  END
> <PUBCHEM_COMPOUND_CID>
441135

> <PUBCHEM_COMPOUND_CANONICALIZED>
1

> <PUBCHEM_CACTVS_COMPLEXITY>
483

> <PUBCHEM_CACTVS_HBOND_ACCEPTOR>
7

> <PUBCHEM_CACTVS_HBOND_DONOR>
2

> <PUBCHEM_CACTVS_ROTATABLE_BOND>
4

> <PUBCHEM_CACTVS_SUBSKEYS>
AAADccBzOABAAAAAAAAAAAAAAAAAAAAAAAAwYAAAAAAAAAABQAAAHgQICAAADAiB2AAwyYAAAoKKAiTSSHDCAEAkAgAIiBkAbMgIJjKAlZGAcQBkwAEI2YeY2SGeCAQAAAAAAAAQCAAAAAAAAAAAAAAAAA==

> <PUBCHEM_IUPAC_OPENEYE_NAME>
4-(4-sulfophenyl)azobenzoic acid

> <PUBCHEM_IUPAC_CAS_NAME>
4-(4-sulfophenyl)azobenzoic acid

> <PUBCHEM_IUPAC_NAME>
4-[(4-sulfophenyl)diazenyl]benzoic acid

> <PUBCHEM_IUPAC_SYSTEMATIC_NAME>
4-[(4-sulfophenyl)diazenyl]benzoic acid

> <PUBCHEM_IUPAC_TRADITIONAL_NAME>
4-(4-sulfophenyl)azobenzoic acid

> <PUBCHEM_IUPAC_INCHI>
InChI=1S/C13H10N2O5S/c16-13(17)9-1-3-10(4-2-9)14-15-11-5-7-12(8-6-11)21(18,19)20/h1-8H,(H,16,17)(H,18,19,20)

> <PUBCHEM_IUPAC_INCHIKEY>
IDPOSZGKQSRDFE-UHFFFAOYSA-N

> <PUBCHEM_XLOGP3_AA>
2

> <PUBCHEM_EXACT_MASS>
306.031042

> <PUBCHEM_MOLECULAR_FORMULA>
C13H10N2O5S

> <PUBCHEM_MOLECULAR_WEIGHT>
306.2939

> <PUBCHEM_OPENEYE_CAN_SMILES>
C1=CC(=CC=C1C(=O)O)N=NC2=CC=C(C=C2)S(=O)(=O)O

> <PUBCHEM_OPENEYE_ISO_SMILES>
C1=CC(=CC=C1C(=O)O)N=NC2=CC=C(C=C2)S(=O)(=O)O

> <PUBCHEM_CACTVS_TPSA>
125

> <PUBCHEM_MONOISOTOPIC_WEIGHT>
306.031042

> <PUBCHEM_TOTAL_CHARGE>
0

> <PUBCHEM_HEAVY_ATOM_COUNT>
21

> <PUBCHEM_ATOM_DEF_STEREO_COUNT>
0

> <PUBCHEM_ATOM_UDEF_STEREO_COUNT>
0

> <PUBCHEM_BOND_DEF_STEREO_COUNT>
0

> <PUBCHEM_BOND_UDEF_STEREO_COUNT>
0

> <PUBCHEM_ISOTOPIC_ATOM_COUNT>
0

> <PUBCHEM_COMPONENT_COUNT>
1

> <PUBCHEM_CACTVS_TAUTO_COUNT>
1

> <PUBCHEM_COORDINATE_TYPE>
1
5
255

> <PUBCHEM_BONDANNOTATIONS>
10  13  8
10  14  8
11  13  8
12  14  8
15  17  8
15  18  8
16  19  8
16  20  8
17  19  8
18  20  8
9  11  8
9  12  8

$$$$

