5281394
  -OEChem-07051212562D

 78 84  0     1  0  0  0  0  0999 V2000
    5.9812   -0.1936    0.0000 O   0  0  0  0  0  0  0  0  0  0  0  0
    4.2493   -0.2137    0.0000 O   0  0  0  0  0  0  0  0  0  0  0  0
    6.8183    2.3162    0.0000 O   0  0  0  0  0  0  0  0  0  0  0  0
    7.7016    0.8263    0.0000 O   0  0  0  0  0  0  0  0  0  0  0  0
    4.2840   -3.2135    0.0000 O   0  0  0  0  0  0  0  0  0  0  0  0
    4.2377    0.7863    0.0000 O   0  0  0  0  0  0  0  0  0  0  0  0
    6.0043   -2.1935    0.0000 O   0  0  0  0  0  0  0  0  0  0  0  0
    4.2146    2.7861    0.0000 O   0  0  0  0  0  0  0  0  0  0  0  0
    2.5405   -2.2336    0.0000 O   0  0  0  0  0  0  0  0  0  0  0  0
    8.5618   -0.6774    0.0000 O   0  0  0  0  0  0  0  0  0  0  0  0
   12.0767   -1.6569    0.0000 O   0  0  0  0  0  0  0  0  0  0  0  0
   12.0699    1.3295    0.0000 O   0  0  0  0  0  0  0  0  0  0  0  0
   12.9256   -0.1589    0.0000 O   0  0  0  0  0  0  0  0  0  0  0  0
    7.6858   -2.2156    0.0000 O   0  0  0  0  0  0  0  0  0  0  0  0
    5.9697    0.8063    0.0000 C   0  0  2  0  0  0  0  0  0  0  0  0
    5.0979    1.2962    0.0000 C   0  0  2  0  0  0  0  0  0  0  0  0
    5.1210   -0.7036    0.0000 C   0  0  1  0  0  0  0  0  0  0  0  0
    5.1326   -1.7036    0.0000 C   0  0  1  0  0  0  0  0  0  0  0  0
    5.0864    2.2962    0.0000 C   0  0  2  0  0  0  0  0  0  0  0  0
    4.2724   -2.2135    0.0000 C   0  0  2  0  0  0  0  0  0  0  0  0
    6.8298    1.3163    0.0000 C   0  0  1  0  0  0  0  0  0  0  0  0
    3.4007   -1.7236    0.0000 C   0  0  2  0  0  0  0  0  0  0  0  0
    5.9465    2.8062    0.0000 C   0  0  1  0  0  0  0  0  0  0  0  0
    3.3891   -0.7236    0.0000 C   0  0  1  0  0  0  0  0  0  0  0  0
    5.9350    3.8061    0.0000 C   0  0  0  0  0  0  0  0  0  0  0  0
    2.5174   -0.2337    0.0000 C   0  0  0  0  0  0  0  0  0  0  0  0
    8.5618    1.3363    0.0000 C   0  0  0  0  0  0  0  0  0  0  0  0
    9.4718    0.8295    0.0000 C   0  0  0  0  0  0  0  0  0  0  0  0
    3.4238   -3.7234    0.0000 C   0  0  0  0  0  0  0  0  0  0  0  0
    9.4718   -0.1705    0.0000 C   0  0  0  0  0  0  0  0  0  0  0  0
   10.3378    1.3295    0.0000 C   0  0  0  0  0  0  0  0  0  0  0  0
   10.3378   -0.6705    0.0000 C   0  0  0  0  0  0  0  0  0  0  0  0
    8.5538    2.3779    0.0000 C   0  0  0  0  0  0  0  0  0  0  0  0
   11.2038   -0.1705    0.0000 C   0  0  0  0  0  0  0  0  0  0  0  0
   10.3539   -1.7120    0.0000 C   0  0  0  0  0  0  0  0  0  0  0  0
   11.2038    0.8295    0.0000 C   0  0  0  0  0  0  0  0  0  0  0  0
   10.3539    2.3710    0.0000 C   0  0  0  0  0  0  0  0  0  0  0  0
    9.4558   -2.2398    0.0000 C   0  0  0  0  0  0  0  0  0  0  0  0
    9.4558    2.8987    0.0000 C   0  0  0  0  0  0  0  0  0  0  0  0
   11.2310   -2.1748    0.0000 C   0  0  0  0  0  0  0  0  0  0  0  0
   12.0633   -0.6653    0.0000 C   0  0  0  0  0  0  0  0  0  0  0  0
    8.5538   -1.7190    0.0000 C   0  0  0  0  0  0  0  0  0  0  0  0
    9.4819   -3.2813    0.0000 C   0  0  0  0  0  0  0  0  0  0  0  0
   11.2811   -3.2154    0.0000 C   0  0  0  0  0  0  0  0  0  0  0  0
   10.4007   -3.7724    0.0000 C   0  0  0  0  0  0  0  0  0  0  0  0
    8.6307   -3.8061    0.0000 C   0  0  0  0  0  0  0  0  0  0  0  0
    5.4364    0.4901    0.0000 H   0  0  0  0  0  0  0  0  0  0  0  0
    5.1051    0.6763    0.0000 H   0  0  0  0  0  0  0  0  0  0  0  0
    5.6615   -1.0074    0.0000 H   0  0  0  0  0  0  0  0  0  0  0  0
    5.1398   -2.3235    0.0000 H   0  0  0  0  0  0  0  0  0  0  0  0
    4.5530    1.9800    0.0000 H   0  0  0  0  0  0  0  0  0  0  0  0
    3.7391   -2.5297    0.0000 H   0  0  0  0  0  0  0  0  0  0  0  0
    6.8370    0.6963    0.0000 H   0  0  0  0  0  0  0  0  0  0  0  0
    3.4078   -2.3435    0.0000 H   0  0  0  0  0  0  0  0  0  0  0  0
    6.4798    3.1224    0.0000 H   0  0  0  0  0  0  0  0  0  0  0  0
    3.3819   -0.1037    0.0000 H   0  0  0  0  0  0  0  0  0  0  0  0
    6.5549    3.8133    0.0000 H   0  0  0  0  0  0  0  0  0  0  0  0
    5.9278    4.4260    0.0000 H   0  0  0  0  0  0  0  0  0  0  0  0
    5.3150    3.7989    0.0000 H   0  0  0  0  0  0  0  0  0  0  0  0
    2.8211    0.3068    0.0000 H   0  0  0  0  0  0  0  0  0  0  0  0
    1.9769    0.0701    0.0000 H   0  0  0  0  0  0  0  0  0  0  0  0
    2.2136   -0.7742    0.0000 H   0  0  0  0  0  0  0  0  0  0  0  0
    3.6972    1.0900    0.0000 H   0  0  0  0  0  0  0  0  0  0  0  0
    6.0115   -2.8135    0.0000 H   0  0  0  0  0  0  0  0  0  0  0  0
    4.2074    3.4061    0.0000 H   0  0  0  0  0  0  0  0  0  0  0  0
    2.0000   -1.9298    0.0000 H   0  0  0  0  0  0  0  0  0  0  0  0
    3.1076   -3.1901    0.0000 H   0  0  0  0  0  0  0  0  0  0  0  0
    2.8905   -4.0396    0.0000 H   0  0  0  0  0  0  0  0  0  0  0  0
    3.7400   -4.2568    0.0000 H   0  0  0  0  0  0  0  0  0  0  0  0
    8.0156    2.6858    0.0000 H   0  0  0  0  0  0  0  0  0  0  0  0
   10.8944    2.6747    0.0000 H   0  0  0  0  0  0  0  0  0  0  0  0
    9.4582    3.5187    0.0000 H   0  0  0  0  0  0  0  0  0  0  0  0
   11.8313   -3.5013    0.0000 H   0  0  0  0  0  0  0  0  0  0  0  0
   10.4234   -4.3920    0.0000 H   0  0  0  0  0  0  0  0  0  0  0  0
   12.0699    1.9495    0.0000 H   0  0  0  0  0  0  0  0  0  0  0  0
    8.3053   -3.2783    0.0000 H   0  0  0  0  0  0  0  0  0  0  0  0
    8.1029   -4.1315    0.0000 H   0  0  0  0  0  0  0  0  0  0  0  0
    8.9561   -4.3338    0.0000 H   0  0  0  0  0  0  0  0  0  0  0  0
 15  1  1  6  0  0  0
 17  1  1  6  0  0  0
  2 17  1  0  0  0  0
  2 24  1  0  0  0  0
  3 21  1  0  0  0  0
  3 23  1  0  0  0  0
 21  4  1  1  0  0  0
  4 27  1  0  0  0  0
 20  5  1  1  0  0  0
  5 29  1  0  0  0  0
 16  6  1  1  0  0  0
  6 63  1  0  0  0  0
 18  7  1  6  0  0  0
  7 64  1  0  0  0  0
 19  8  1  1  0  0  0
  8 65  1  0  0  0  0
 22  9  1  1  0  0  0
  9 66  1  0  0  0  0
 10 30  1  0  0  0  0
 10 42  1  0  0  0  0
 11 40  1  0  0  0  0
 11 41  1  0  0  0  0
 12 36  1  0  0  0  0
 12 75  1  0  0  0  0
 13 41  2  0  0  0  0
 14 42  2  0  0  0  0
 15 16  1  0  0  0  0
 15 21  1  0  0  0  0
 15 47  1  0  0  0  0
 16 19  1  0  0  0  0
 16 48  1  0  0  0  0
 17 18  1  0  0  0  0
 17 49  1  0  0  0  0
 18 20  1  0  0  0  0
 18 50  1  0  0  0  0
 19 23  1  0  0  0  0
 19 51  1  0  0  0  0
 20 22  1  0  0  0  0
 20 52  1  0  0  0  0
 21 53  1  0  0  0  0
 22 24  1  0  0  0  0
 22 54  1  0  0  0  0
 23 25  1  1  0  0  0
 23 55  1  0  0  0  0
 24 26  1  1  0  0  0
 24 56  1  0  0  0  0
 25 57  1  0  0  0  0
 25 58  1  0  0  0  0
 25 59  1  0  0  0  0
 26 60  1  0  0  0  0
 26 61  1  0  0  0  0
 26 62  1  0  0  0  0
 27 28  1  0  0  0  0
 27 33  2  0  0  0  0
 28 30  1  0  0  0  0
 28 31  2  0  0  0  0
 29 67  1  0  0  0  0
 29 68  1  0  0  0  0
 29 69  1  0  0  0  0
 30 32  2  0  0  0  0
 31 36  1  0  0  0  0
 31 37  1  0  0  0  0
 32 34  1  0  0  0  0
 32 35  1  0  0  0  0
 33 39  1  0  0  0  0
 33 70  1  0  0  0  0
 34 36  2  0  0  0  0
 34 41  1  0  0  0  0
 35 38  1  0  0  0  0
 35 40  2  0  0  0  0
 37 39  2  0  0  0  0
 37 71  1  0  0  0  0
 38 42  1  0  0  0  0
 38 43  2  0  0  0  0
 39 72  1  0  0  0  0
 40 44  1  0  0  0  0
 43 45  1  0  0  0  0
 43 46  1  0  0  0  0
 44 45  2  0  0  0  0
 44 73  1  0  0  0  0
 45 74  1  0  0  0  0
 46 76  1  0  0  0  0
 46 77  1  0  0  0  0
 46 78  1  0  0  0  0
M  END
> <PUBCHEM_COMPOUND_CID>
5281394

> <PUBCHEM_COMPOUND_CANONICALIZED>
1

> <PUBCHEM_CACTVS_COMPLEXITY>
1150

> <PUBCHEM_CACTVS_HBOND_ACCEPTOR>
14

> <PUBCHEM_CACTVS_HBOND_DONOR>
5

> <PUBCHEM_CACTVS_ROTATABLE_BOND>
5

> <PUBCHEM_CACTVS_SUBSKEYS>
AAADcfB8PAAAAAAAAAAAAAAAAAAAAAAAAAA0aNEiAAAAAADRVAAAGgAACAAADBSwmAMyDsAABgCIAiDSCAACCAAkIAAIiAEGCMgdNzaGNRqie2Cl4BUPuQfK7PzO4QADAAAYAADCAAYAADAAAAAAAAAAAA==

> <PUBCHEM_IUPAC_INCHI>
InChI=1S/C32H32O14/c1-10-8-9-15-18-16(10)29(38)45-26-17-13(23(35)20(19(18)26)30(39)43-15)6-5-7-14(17)44-32-28(24(36)21(33)11(2)42-32)46-31-25(37)27(40-4)22(34)12(3)41-31/h5-9,11-12,21-22,24-25,27-28,31-37H,1-4H3/t11-,12-,21+,22+,24+,25-,27+,28-,31-,32+/m1/s1

> <PUBCHEM_IUPAC_INCHIKEY>
PONPPNYZKHNPKZ-RYBWXQSLSA-N

> <PUBCHEM_XLOGP3_AA>
2.1

> <PUBCHEM_EXACT_MASS>
640.179206

> <PUBCHEM_MOLECULAR_FORMULA>
C32H32O14

> <PUBCHEM_MOLECULAR_WEIGHT>
640.58808

> <PUBCHEM_OPENEYE_CAN_SMILES>
CC1C(C(C(C(O1)OC2=CC=CC3=C2C4=C5C6=C(C=CC(=C6C(=O)O4)C)OC(=O)C5=C3O)OC7C(C(C(C(O7)C)O)OC)O)O)O

> <PUBCHEM_OPENEYE_ISO_SMILES>
C[C@@H]1[C@@H]([C@@H]([C@H]([C@@H](O1)OC2=CC=CC3=C2C4=C5C6=C(C=CC(=C6C(=O)O4)C)OC(=O)C5=C3O)O[C@@H]7[C@@H]([C@H]([C@H]([C@H](O7)C)O)OC)O)O)O

> <PUBCHEM_CACTVS_TPSA>
200

> <PUBCHEM_MONOISOTOPIC_WEIGHT>
640.179206

> <PUBCHEM_TOTAL_CHARGE>
0

> <PUBCHEM_HEAVY_ATOM_COUNT>
46

> <PUBCHEM_ATOM_DEF_STEREO_COUNT>
10

> <PUBCHEM_ATOM_UDEF_STEREO_COUNT>
0

> <PUBCHEM_BOND_DEF_STEREO_COUNT>
0

> <PUBCHEM_BOND_UDEF_STEREO_COUNT>
0

> <PUBCHEM_ISOTOPIC_ATOM_COUNT>
0

> <PUBCHEM_COMPONENT_COUNT>
1

> <PUBCHEM_CACTVS_TAUTO_COUNT>
3

> <PUBCHEM_COORDINATE_TYPE>
1
5
255

> <PUBCHEM_BONDANNOTATIONS>
15  1  6
17  1  6
10  30  8
10  42  8
11  40  8
11  41  8
23  25  5
24  26  5
27  28  8
27  33  8
28  30  8
28  31  8
30  32  8
31  36  8
31  37  8
32  34  8
32  35  8
33  39  8
34  36  8
34  41  8
35  38  8
35  40  8
37  39  8
38  42  8
38  43  8
21  4  5
40  44  8
43  45  8
44  45  8
20  5  5
16  6  5
18  7  6
19  8  5
22  9  5

$$$$

