5462519
  -OEChem-07051213022D

 58 61  0     1  0  0  0  0  0999 V2000
    6.5837   -0.4467    0.0000 S   0  0  0  0  0  0  0  0  0  0  0  0
    4.4381    2.6854    0.0000 S   0  0  0  0  0  0  0  0  0  0  0  0
    9.4805   -2.2068    0.0000 S   0  0  0  0  0  0  0  0  0  0  0  0
    7.9497    2.5921    0.0000 O   0  0  0  0  0  0  0  0  0  0  0  0
    2.5369    4.2946    0.0000 O   0  0  0  0  0  0  0  0  0  0  0  0
    3.4030    5.7946    0.0000 O   0  0  0  0  0  0  0  0  0  0  0  0
    6.9394   -3.7946    0.0000 O   0  0  0  0  0  0  0  0  0  0  0  0
    7.8927    0.5043    0.0000 N   0  0  0  0  0  0  0  0  0  0  0  0
    7.8625   -2.2068    0.0000 N   0  0  0  0  0  0  0  0  0  0  0  0
    5.2471    4.0867    0.0000 N   0  0  0  0  0  0  0  0  0  0  0  0
    7.0837    1.0921    0.0000 C   0  0  2  0  0  0  0  0  0  0  0  0
    7.0837    2.0921    0.0000 C   0  0  2  0  0  0  0  0  0  0  0  0
    6.2177    2.5921    0.0000 C   0  0  0  0  0  0  0  0  0  0  0  0
    7.5837   -0.4467    0.0000 C   0  0  3  0  0  0  0  0  0  0  0  0
    6.2747    0.5043    0.0000 C   0  0  0  0  0  0  0  0  0  0  0  0
    8.1715   -1.2557    0.0000 C   0  0  1  0  0  0  0  0  0  0  0  0
    5.3517    3.0921    0.0000 C   0  0  0  0  0  0  0  0  0  0  0  0
    6.7177    3.4582    0.0000 C   0  0  0  0  0  0  0  0  0  0  0  0
    5.7177    1.7261    0.0000 C   0  0  0  0  0  0  0  0  0  0  0  0
    9.1715   -1.2557    0.0000 C   0  0  0  0  0  0  0  0  0  0  0  0
    4.2690    4.2946    0.0000 C   0  0  1  0  0  0  0  0  0  0  0  0
    3.7690    3.4285    0.0000 C   0  0  0  0  0  0  0  0  0  0  0  0
    8.6715   -2.7946    0.0000 C   0  0  0  0  0  0  0  0  0  0  0  0
    4.4769    5.2727    0.0000 C   0  0  0  0  0  0  0  0  0  0  0  0
    3.4030    4.7946    0.0000 C   0  0  0  0  0  0  0  0  0  0  0  0
    8.6715   -3.7946    0.0000 C   0  0  0  0  0  0  0  0  0  0  0  0
    7.8055   -4.2946    0.0000 C   0  0  0  0  0  0  0  0  0  0  0  0
    9.5375   -4.2946    0.0000 C   0  0  0  0  0  0  0  0  0  0  0  0
    7.8055   -5.2946    0.0000 C   0  0  0  0  0  0  0  0  0  0  0  0
    9.5375   -5.2946    0.0000 C   0  0  0  0  0  0  0  0  0  0  0  0
    8.6715   -5.7946    0.0000 C   0  0  0  0  0  0  0  0  0  0  0  0
    7.8411    1.4780    0.0000 H   0  0  0  0  0  0  0  0  0  0  0  0
    7.0837    2.7121    0.0000 H   0  0  0  0  0  0  0  0  0  0  0  0
    8.4232   -0.3137    0.0000 H   0  0  0  0  0  0  0  0  0  0  0  0
    5.9647    1.0413    0.0000 H   0  0  0  0  0  0  0  0  0  0  0  0
    5.7083    0.2522    0.0000 H   0  0  0  0  0  0  0  0  0  0  0  0
    8.4824    0.6959    0.0000 H   0  0  0  0  0  0  0  0  0  0  0  0
    7.3320   -1.3887    0.0000 H   0  0  0  0  0  0  0  0  0  0  0  0
    5.1808    2.0361    0.0000 H   0  0  0  0  0  0  0  0  0  0  0  0
    5.4077    1.1892    0.0000 H   0  0  0  0  0  0  0  0  0  0  0  0
    6.2546    1.4161    0.0000 H   0  0  0  0  0  0  0  0  0  0  0  0
    7.2546    3.1482    0.0000 H   0  0  0  0  0  0  0  0  0  0  0  0
    7.0277    3.9951    0.0000 H   0  0  0  0  0  0  0  0  0  0  0  0
    6.1808    3.7682    0.0000 H   0  0  0  0  0  0  0  0  0  0  0  0
    9.7780   -1.1268    0.0000 H   0  0  0  0  0  0  0  0  0  0  0  0
    9.1067   -0.6391    0.0000 H   0  0  0  0  0  0  0  0  0  0  0  0
    7.2728   -2.3984    0.0000 H   0  0  0  0  0  0  0  0  0  0  0  0
    8.4867    2.2821    0.0000 H   0  0  0  0  0  0  0  0  0  0  0  0
    3.2674    3.7930    0.0000 H   0  0  0  0  0  0  0  0  0  0  0  0
    3.3541    2.9678    0.0000 H   0  0  0  0  0  0  0  0  0  0  0  0
    5.0834    5.1438    0.0000 H   0  0  0  0  0  0  0  0  0  0  0  0
    4.6058    5.8792    0.0000 H   0  0  0  0  0  0  0  0  0  0  0  0
    3.8704    5.4016    0.0000 H   0  0  0  0  0  0  0  0  0  0  0  0
   10.0745   -3.9846    0.0000 H   0  0  0  0  0  0  0  0  0  0  0  0
    2.0000    4.6046    0.0000 H   0  0  0  0  0  0  0  0  0  0  0  0
    7.2685   -5.6046    0.0000 H   0  0  0  0  0  0  0  0  0  0  0  0
   10.0745   -5.6046    0.0000 H   0  0  0  0  0  0  0  0  0  0  0  0
    8.6715   -6.4146    0.0000 H   0  0  0  0  0  0  0  0  0  0  0  0
  1 14  1  0  0  0  0
  1 15  1  0  0  0  0
  2 17  1  0  0  0  0
  2 22  1  0  0  0  0
  3 20  1  0  0  0  0
  3 23  1  0  0  0  0
 12  4  1  6  0  0  0
  4 48  1  0  0  0  0
  5 25  1  0  0  0  0
  5 55  1  0  0  0  0
  6 25  2  0  0  0  0
  7 27  2  0  0  0  0
  8 11  1  0  0  0  0
  8 14  1  0  0  0  0
  8 37  1  0  0  0  0
  9 16  1  0  0  0  0
  9 23  1  0  0  0  0
  9 47  1  0  0  0  0
 10 17  2  0  0  0  0
 10 21  1  0  0  0  0
 11 12  1  0  0  0  0
 11 15  1  0  0  0  0
 11 32  1  6  0  0  0
 12 13  1  0  0  0  0
 12 33  1  0  0  0  0
 13 17  1  0  0  0  0
 13 18  1  0  0  0  0
 13 19  1  0  0  0  0
 14 16  1  0  0  0  0
 14 34  1  0  0  0  0
 15 35  1  0  0  0  0
 15 36  1  0  0  0  0
 16 20  1  0  0  0  0
 16 38  1  6  0  0  0
 18 42  1  0  0  0  0
 18 43  1  0  0  0  0
 18 44  1  0  0  0  0
 19 39  1  0  0  0  0
 19 40  1  0  0  0  0
 19 41  1  0  0  0  0
 20 45  1  0  0  0  0
 20 46  1  0  0  0  0
 21 22  1  0  0  0  0
 21 24  1  1  0  0  0
 21 25  1  0  0  0  0
 22 49  1  0  0  0  0
 22 50  1  0  0  0  0
 23 26  2  0  0  0  0
 24 51  1  0  0  0  0
 24 52  1  0  0  0  0
 24 53  1  0  0  0  0
 26 27  1  0  0  0  0
 26 28  1  0  0  0  0
 27 29  1  0  0  0  0
 28 30  2  0  0  0  0
 28 54  1  0  0  0  0
 29 31  2  0  0  0  0
 29 56  1  0  0  0  0
 30 31  1  0  0  0  0
 30 57  1  0  0  0  0
 31 58  1  0  0  0  0
M  END
> <PUBCHEM_COMPOUND_CID>
5462519

> <PUBCHEM_COMPOUND_CANONICALIZED>
1

> <PUBCHEM_CACTVS_COMPLEXITY>
914

> <PUBCHEM_CACTVS_HBOND_ACCEPTOR>
10

> <PUBCHEM_CACTVS_HBOND_DONOR>
4

> <PUBCHEM_CACTVS_ROTATABLE_BOND>
5

> <PUBCHEM_CACTVS_SUBSKEYS>
AAADceB7OABgAAAAAAAAAAAAAAAAAWLEAAAgAAAAAAAAAAAAAAAAHgQQCAAADrzlwAaCCALAAgioAqDyTAAAEABgABAICIGoAEgKUAIggQAUQAAAkAC4gcIAAAANAAAAAAAAAAAAAAAAAAAAAAAAAAAAAA==

> <PUBCHEM_IUPAC_OPENEYE_NAME>
(4S)-2-[(2S)-2-hydroxy-1,1-dimethyl-2-[(4R)-2-[(2E,4R)-2-(6-oxocyclohexa-2,4-dien-1-ylidene)thiazolidin-4-yl]thiazolidin-4-yl]ethyl]-4-methyl-5H-thiazole-4-carboxylic acid

> <PUBCHEM_IUPAC_CAS_NAME>
(4S)-2-[(1S)-1-hydroxy-2-methyl-1-[(4R)-2-[(2E,4R)-2-(6-oxo-1-cyclohexa-2,4-dienylidene)-4-thiazolidinyl]-4-thiazolidinyl]propan-2-yl]-4-methyl-5H-thiazole-4-carboxylic acid

> <PUBCHEM_IUPAC_NAME>
(4S)-2-[(1S)-1-hydroxy-2-methyl-1-[(4R)-2-[(2E,4R)-2-(6-oxocyclohexa-2,4-dien-1-ylidene)-1,3-thiazolidin-4-yl]-1,3-thiazolidin-4-yl]propan-2-yl]-4-methyl-5H-1,3-thiazole-4-carboxylic acid

> <PUBCHEM_IUPAC_SYSTEMATIC_NAME>
(4S)-4-methyl-2-[(1S)-2-methyl-1-oxidanyl-1-[(4R)-2-[(2E,4R)-2-(6-oxidanylidenecyclohexa-2,4-dien-1-ylidene)-1,3-thiazolidin-4-yl]-1,3-thiazolidin-4-yl]propan-2-yl]-5H-1,3-thiazole-4-carboxylic acid

> <PUBCHEM_IUPAC_TRADITIONAL_NAME>
(4S)-2-[(2S)-2-hydroxy-2-[(4R)-2-[(2E,4R)-2-(6-ketocyclohexa-2,4-dien-1-ylidene)thiazolidin-4-yl]thiazolidin-4-yl]-1,1-dimethyl-ethyl]-4-methyl-2-thiazoline-4-carboxylic acid

> <PUBCHEM_IUPAC_INCHI>
InChI=1S/C21H27N3O4S3/c1-20(2,18-24-21(3,10-31-18)19(27)28)15(26)12-8-30-17(22-12)13-9-29-16(23-13)11-6-4-5-7-14(11)25/h4-7,12-13,15,17,22-23,26H,8-10H2,1-3H3,(H,27,28)/b16-11+/t12-,13+,15+,17?,21+/m0/s1

> <PUBCHEM_IUPAC_INCHIKEY>
CARQCAHMXWHUIE-NRMQOZBLSA-N

> <PUBCHEM_XLOGP3_AA>
0.1

> <PUBCHEM_EXACT_MASS>
481.116369

> <PUBCHEM_MOLECULAR_FORMULA>
C21H27N3O4S3

> <PUBCHEM_MOLECULAR_WEIGHT>
481.65178

> <PUBCHEM_OPENEYE_CAN_SMILES>
CC1(CSC(=N1)C(C)(C)C(C2CSC(N2)C3CSC(=C4C=CC=CC4=O)N3)O)C(=O)O

> <PUBCHEM_OPENEYE_ISO_SMILES>
C[C@@]1(CSC(=N1)C(C)(C)[C@@H]([C@@H]2CSC(N2)[C@H]3CS/C(=C/4\C=CC=CC4=O)/N3)O)C(=O)O

> <PUBCHEM_CACTVS_TPSA>
187

> <PUBCHEM_MONOISOTOPIC_WEIGHT>
481.116369

> <PUBCHEM_TOTAL_CHARGE>
0

> <PUBCHEM_HEAVY_ATOM_COUNT>
31

> <PUBCHEM_ATOM_DEF_STEREO_COUNT>
4

> <PUBCHEM_ATOM_UDEF_STEREO_COUNT>
1

> <PUBCHEM_BOND_DEF_STEREO_COUNT>
1

> <PUBCHEM_BOND_UDEF_STEREO_COUNT>
0

> <PUBCHEM_ISOTOPIC_ATOM_COUNT>
0

> <PUBCHEM_COMPONENT_COUNT>
1

> <PUBCHEM_CACTVS_TAUTO_COUNT>
4

> <PUBCHEM_COORDINATE_TYPE>
1
5
255

> <PUBCHEM_BONDANNOTATIONS>
11  32  6
14  34  3
16  38  6
21  24  5
12  4  6

$$$$

