   Color/Form
        Water-white mobile liquid
   from [1]HSDB

   Odor
        Strong disagreeable odor
   from [2]HSDB

   Boiling Point
        Decomp at bp 157-158 deg C, 742 mm Hg
   from [3]HSDB

   Density/Specific Gravity
        1.1143 at 20 deg C/4 deg C
   from [4]HSDB

   Dissociation Constants
        pKa = 9.72 at 25 deg C (c = 0.00012 moles/L)
   from [5]HSDB

   Octanol/Water Partition Coefficient
        log Kow = -2.0 (est)
   from [6]HSDB

   Solubilities

     * Miscible with alcohol, ether, and benzene /Pure liquid/
     * Miscible in most organic solvents.
     * Miscible in water

   from [7]HSDB

   Spectral Properties

     * Index of refraction: 1.4996 at 20 deg C/D
     * IR: 15599 (Sadtler Research Laboratories IR Grating Collection)
     * 1H NMR: 6840 (Sadtler Research Laboratories Spectral Collection)
     * RAMAN: 619 (Sadtler Research Laboratories Spectral Collection)
     * 13C NMR: 12 (Johnson and Jankowski, Carbon-13 NMR Spectra, John
       Wiley and Sons, New York)
     * MASS: 19239 (NIST/EPA/MSDC Mass Spectral Database, 1990 version)

   from [8]HSDB

   Vapor Density
        2.69 (Air = 1)
   from [9]HSDB

   Vapor Pressure
        1.756 mm Hg at 25 deg C /Extrapolated/
   from [10]HSDB

   Viscosity
        3.43 cP
   from [11]HSDB

   Other Chemical/Physical Properties

     * Heat ionization at 6.21 kcal mole
     * 9.29 lb/gal at 20 deg C
     * Freezing point: sets to a glass below -100 deg C
     * Henry's Law constant = 1.3X10-7 atm-cu m/mol at 25 deg C (est)
     * Hydroxyl radical reaction rate constant = 4.6X10-11 cu cm/molec-sec
       at 25 deg C (est)

   from [12]HSDB

   Computed Properties
   Molecular Weight                  78.13344 [g/mol]
   Molecular Formula                 C[2]H[6]OS
   XLogP3-AA                         -0.2
   H-Bond Donor                      2
   H-Bond Acceptor                   2
   Rotatable Bond Count              1
   Exact Mass                        78.013936
   MonoIsotopic Mass                 78.013936
   Topological Polar Surface Area    21.2
   Heavy Atom Count                  4
   Formal Charge                     0
   Complexity                        10
   Isotope Atom Count                0
   Defined Atom Stereocenter Count   0
   Undefined Atom Stereocenter Count 0
   Defined Bond Stereocenter Count   0
   Undefined Bond Stereocenter Count 0
   Covalently-Bonded Unit Count      1
   Feature 3D Acceptor Count         1
   Feature 3D Donor Count            1
   Effective Rotor Count             1
   Conformer Sampling RMSD           0.4
   CID Conformer Count               [13]3

References

   1. http://toxnet.nlm.nih.gov/cgi-bin/sis/search/r?dbs+hsdb:@term+@rn+@rel+60-24-2
   2. http://toxnet.nlm.nih.gov/cgi-bin/sis/search/r?dbs+hsdb:@term+@rn+@rel+60-24-2
   3. http://toxnet.nlm.nih.gov/cgi-bin/sis/search/r?dbs+hsdb:@term+@rn+@rel+60-24-2
   4. http://toxnet.nlm.nih.gov/cgi-bin/sis/search/r?dbs+hsdb:@term+@rn+@rel+60-24-2
   5. http://toxnet.nlm.nih.gov/cgi-bin/sis/search/r?dbs+hsdb:@term+@rn+@rel+60-24-2
   6. http://toxnet.nlm.nih.gov/cgi-bin/sis/search/r?dbs+hsdb:@term+@rn+@rel+60-24-2
   7. http://toxnet.nlm.nih.gov/cgi-bin/sis/search/r?dbs+hsdb:@term+@rn+@rel+60-24-2
   8. http://toxnet.nlm.nih.gov/cgi-bin/sis/search/r?dbs+hsdb:@term+@rn+@rel+60-24-2
   9. http://toxnet.nlm.nih.gov/cgi-bin/sis/search/r?dbs+hsdb:@term+@rn+@rel+60-24-2
  10. http://toxnet.nlm.nih.gov/cgi-bin/sis/search/r?dbs+hsdb:@term+@rn+@rel+60-24-2
  11. http://toxnet.nlm.nih.gov/cgi-bin/sis/search/r?dbs+hsdb:@term+@rn+@rel+60-24-2
  12. http://toxnet.nlm.nih.gov/cgi-bin/sis/search/r?dbs+hsdb:@term+@rn+@rel+60-24-2
  13. http://pubchem.ncbi.nlm.nih.gov/vw3d/vw3d.cgi?cid=1567
