   Color/Form

     * Oily liquid
     * Colorless liquid

   from [1]HSDB

   Odor

     * Pleasant odor
     * Faint odor

   from [2]HSDB

   Boiling Point
        204 deg C at 760 mm Hg
   from [3]HSDB

   Melting Point
        -43.53 deg C
   from [4]HSDB

   Corrosivity
        Non-corrosive
   from [5]HSDB

   Critical Temperature and Pressure
        Critical temperature: 436 deg C; critical pressure: 3.43
   megapascal
   from [6]HSDB

   Density/Specific Gravity
        1.1296 g/cu cm at 20 deg C
   from [7]HSDB

   Heat of Combustion
        234 KJ/g at constant volume or pressure
   from [8]HSDB

   Heat of Vaporization
        52.2 kJ/mol at 204 deg C and 760 mm Hg
   from [9]HSDB

   Octanol/Water Partition Coefficient
        log Kow = -0.64
   from [10]HSDB

   Solubilities

     * Miscible with alcohol and ether.
     * Very soluble in acetone, benzene, diethyl ether, and ethanol.
     * Miscible with water. Soluble in methanol, ethanol, acetone, ether,
       benzene.

   from [11]HSDB

   Spectral Properties

     * MAX ABSORPTION (METHANOL): 209 NM (LOG E= 1.63)
     * Index of refraction: 1.4348 at 20 deg C/D
     * UV: 4-18 (Organic Electronic Spectral Data, Phillips et al, John
       Wiley & Sons, New York)
     * Raman: 534 (Sadtler Research Laboratories spectral collection)
     * 1H NMR: 63 (Varian Associates NMR Spectra Catalogue)
     * 13C NMR: 60 (Johnson and Jankowski, Carbon-13 NMR Spectra, John
       Wiley & Sons, New York)
     * MASS: 61932 (NIST/EPA/MSDC Mass Spectral database, 1990 version);
       2741 (National Bureau of Standards)
     * IR: 5530 (Sadtler Research Laboratories Prism Collection)

   from [12]HSDB

   Surface Tension
        44.6X10-5 N/cm at 20 deg C
   from [13]HSDB

   Vapor Pressure
        4.5X10-1 mm Hg at 25 deg C
   from [14]HSDB

   Viscosity
        1.75 centipoise at 25 deg C
   from [15]HSDB

   Other Chemical/Physical Properties

     * Density: 1.1441 at 0 deg C/0 deg C; 1.1286 at 15 deg C/0 deg C
     * Combustible
     * Volatile with steam; hydrolyzed by hot alkaline soln.
     * Extremely stable at pH 7
     * Slightly hygroscopic
     * Henry's Law constant = 5.3X10-8 atm-cu m/mole at 25 deg C (est)
     * Hydroxyl radical reaction rate constant = 2.3X10-12 cu
       cm/molecule-sec at 25 deg C (est)

   from [16]HSDB

   Computed Properties
   Molecular Weight                  86.08924 [g/mol]
   Molecular Formula                 C[4]H[6]O[2]
   XLogP3                            -0.6
   H-Bond Donor                      0
   H-Bond Acceptor                   2
   Rotatable Bond Count              0
   Tautomer Count                    2
   Exact Mass                        86.036779
   MonoIsotopic Mass                 86.036779
   Topological Polar Surface Area    26.3
   Heavy Atom Count                  6
   Formal Charge                     0
   Complexity                        67.9
   Isotope Atom Count                0
   Defined Atom Stereocenter Count   0
   Undefined Atom Stereocenter Count 0
   Defined Bond Stereocenter Count   0
   Undefined Bond Stereocenter Count 0
   Covalently-Bonded Unit Count      1
   Feature 3D Acceptor Count         1
   Feature 3D Ring Count             1
   Effective Rotor Count             0.8
   Conformer Sampling RMSD           0.4
   CID Conformer Count               [17]1

References

   1. http://toxnet.nlm.nih.gov/cgi-bin/sis/search/r?dbs+hsdb:@term+@rn+@rel+96-48-0
   2. http://toxnet.nlm.nih.gov/cgi-bin/sis/search/r?dbs+hsdb:@term+@rn+@rel+96-48-0
   3. http://toxnet.nlm.nih.gov/cgi-bin/sis/search/r?dbs+hsdb:@term+@rn+@rel+96-48-0
   4. http://toxnet.nlm.nih.gov/cgi-bin/sis/search/r?dbs+hsdb:@term+@rn+@rel+96-48-0
   5. http://toxnet.nlm.nih.gov/cgi-bin/sis/search/r?dbs+hsdb:@term+@rn+@rel+96-48-0
   6. http://toxnet.nlm.nih.gov/cgi-bin/sis/search/r?dbs+hsdb:@term+@rn+@rel+96-48-0
   7. http://toxnet.nlm.nih.gov/cgi-bin/sis/search/r?dbs+hsdb:@term+@rn+@rel+96-48-0
   8. http://toxnet.nlm.nih.gov/cgi-bin/sis/search/r?dbs+hsdb:@term+@rn+@rel+96-48-0
   9. http://toxnet.nlm.nih.gov/cgi-bin/sis/search/r?dbs+hsdb:@term+@rn+@rel+96-48-0
  10. http://toxnet.nlm.nih.gov/cgi-bin/sis/search/r?dbs+hsdb:@term+@rn+@rel+96-48-0
  11. http://toxnet.nlm.nih.gov/cgi-bin/sis/search/r?dbs+hsdb:@term+@rn+@rel+96-48-0
  12. http://toxnet.nlm.nih.gov/cgi-bin/sis/search/r?dbs+hsdb:@term+@rn+@rel+96-48-0
  13. http://toxnet.nlm.nih.gov/cgi-bin/sis/search/r?dbs+hsdb:@term+@rn+@rel+96-48-0
  14. http://toxnet.nlm.nih.gov/cgi-bin/sis/search/r?dbs+hsdb:@term+@rn+@rel+96-48-0
  15. http://toxnet.nlm.nih.gov/cgi-bin/sis/search/r?dbs+hsdb:@term+@rn+@rel+96-48-0
  16. http://toxnet.nlm.nih.gov/cgi-bin/sis/search/r?dbs+hsdb:@term+@rn+@rel+96-48-0
  17. http://pubchem.ncbi.nlm.nih.gov/vw3d/vw3d.cgi?cid=7302
