   Color/Form

     * LEAFLETS OR OILY LIQ
     * CLEAR, COLORLESS LIQ

   from [1]HSDB

   Odor
        FAINT PLEASANT AROMATIC ODOR
   from [2]HSDB

   Taste
        SHARP BURNING TASTE
   from [3]HSDB

   Boiling Point
        323-324 deg C
   from [4]HSDB

   Melting Point
        21 DEG C
   from [5]HSDB

   Critical Temperature and Pressure
        Critical temp = 820 deg K; Critical pressure = 2.58X10+6 Pa
   from [6]HSDB

   Density/Specific Gravity
        1.118 AT 25 DEG C/4 DEG C
   from [7]HSDB

   Heat of Combustion
        -6.69X10+9 J/kmol
   from [8]HSDB

   Heat of Vaporization
        18.6 kcal/mol @ 12-60 deg C
   from [9]HSDB

   Octanol/Water Partition Coefficient
        Log Kow = 3.97
   from [10]HSDB

   pH
        SOLN IN ALC PRACTICALLY NEUTRAL TO MOISTENED LITMUS PAPER
   from [11]HSDB

   Solubilities

     * INSOL IN WATER OR GLYCEROL; MISCIBLE WITH ALCOHOL, CHLOROFORM,
       ETHER, OILS
     * SOL IN ACETONE, BENZENE

   from [12]HSDB

   Spectral Properties

     * INDEX OF REFRACTION: 1.5681 AT 21 DEG C/D
     * MAX ABSORPTION (ALCOHOL): 229 NM (LOG E= 4.2), 267 NM (LOG E= 3.0),
       272 NM (LOG E= 3.0), 280 NM (LOG E= 2.9); SADTLER REFERENCE NUMBER:
       1509 (IR, PRISM), 253 (IR, GRATING)
     * Intense mass spectral peaks: 105 m/z (100%), 91 m/z (42%), 77 m/z
       (28%), 51 m/z (12%)
     * IR: 6248 (Coblentz Society Spectral Collection)
     * UV: 427 (Sadtler Research Laboratories Spectral Collection)
     * NMR: 627 (Varian Associates NMR Spectra Catalogue)
     * MASS: 1511 (Atlas of Mass Spectral Data, John Wiley & Sons, New
       York)

   from [13]HSDB

   Surface Tension
        26.6 dyne/cm @ 210.5 deg C
   from [14]HSDB

   Vapor Density
        7.31 (AIR= 1)
   from [15]HSDB

   Vapor Pressure
        0.000224 mm Hg @ 25 deg C
   from [16]HSDB

   Viscosity
        8.292 cP @ 25 deg C
   from [17]HSDB

   Other Chemical/Physical Properties

     * CONGEALS AT TEMP NOT BELOW 18 DEG C
     * Supercools easily
     * CONVERSION FACTORS: 8.66 MG/CU M IS EQUIVALENT TO 1 PPM (WT/VOL)
     * Heat of formation = -1.91X10+8 J/kmol
     * Liquid molar volume = 0.190348 cu m/kmol

   from [18]HSDB

   Computed Properties
   Molecular Weight                  212.24388 [g/mol]
   Molecular Formula                 C[14]H[12]O[2]
   XLogP3                            4
   H-Bond Donor                      0
   H-Bond Acceptor                   2
   Rotatable Bond Count              4
   Exact Mass                        212.08373
   MonoIsotopic Mass                 212.08373
   Topological Polar Surface Area    26.3
   Heavy Atom Count                  16
   Formal Charge                     0
   Complexity                        213
   Isotope Atom Count                0
   Defined Atom Stereocenter Count   0
   Undefined Atom Stereocenter Count 0
   Defined Bond Stereocenter Count   0
   Undefined Bond Stereocenter Count 0
   Covalently-Bonded Unit Count      1
   Feature 3D Acceptor Count         1
   Feature 3D Ring Count             2
   Effective Rotor Count             4
   Conformer Sampling RMSD           0.6
   CID Conformer Count               [19]21

References

   1. http://toxnet.nlm.nih.gov/cgi-bin/sis/search/r?dbs+hsdb:@term+@rn+@rel+120-51-4
   2. http://toxnet.nlm.nih.gov/cgi-bin/sis/search/r?dbs+hsdb:@term+@rn+@rel+120-51-4
   3. http://toxnet.nlm.nih.gov/cgi-bin/sis/search/r?dbs+hsdb:@term+@rn+@rel+120-51-4
   4. http://toxnet.nlm.nih.gov/cgi-bin/sis/search/r?dbs+hsdb:@term+@rn+@rel+120-51-4
   5. http://toxnet.nlm.nih.gov/cgi-bin/sis/search/r?dbs+hsdb:@term+@rn+@rel+120-51-4
   6. http://toxnet.nlm.nih.gov/cgi-bin/sis/search/r?dbs+hsdb:@term+@rn+@rel+120-51-4
   7. http://toxnet.nlm.nih.gov/cgi-bin/sis/search/r?dbs+hsdb:@term+@rn+@rel+120-51-4
   8. http://toxnet.nlm.nih.gov/cgi-bin/sis/search/r?dbs+hsdb:@term+@rn+@rel+120-51-4
   9. http://toxnet.nlm.nih.gov/cgi-bin/sis/search/r?dbs+hsdb:@term+@rn+@rel+120-51-4
  10. http://toxnet.nlm.nih.gov/cgi-bin/sis/search/r?dbs+hsdb:@term+@rn+@rel+120-51-4
  11. http://toxnet.nlm.nih.gov/cgi-bin/sis/search/r?dbs+hsdb:@term+@rn+@rel+120-51-4
  12. http://toxnet.nlm.nih.gov/cgi-bin/sis/search/r?dbs+hsdb:@term+@rn+@rel+120-51-4
  13. http://toxnet.nlm.nih.gov/cgi-bin/sis/search/r?dbs+hsdb:@term+@rn+@rel+120-51-4
  14. http://toxnet.nlm.nih.gov/cgi-bin/sis/search/r?dbs+hsdb:@term+@rn+@rel+120-51-4
  15. http://toxnet.nlm.nih.gov/cgi-bin/sis/search/r?dbs+hsdb:@term+@rn+@rel+120-51-4
  16. http://toxnet.nlm.nih.gov/cgi-bin/sis/search/r?dbs+hsdb:@term+@rn+@rel+120-51-4
  17. http://toxnet.nlm.nih.gov/cgi-bin/sis/search/r?dbs+hsdb:@term+@rn+@rel+120-51-4
  18. http://toxnet.nlm.nih.gov/cgi-bin/sis/search/r?dbs+hsdb:@term+@rn+@rel+120-51-4
  19. http://pubchem.ncbi.nlm.nih.gov/vw3d/vw3d.cgi?cid=2345
