6477011
  -OEChem-07051213002D

 63 66  0     1  0  0  0  0  0999 V2000
    6.5934   -1.0575    0.0000 O   0  0  0  0  0  0  0  0  0  0  0  0
    8.8924   -3.8557    0.0000 O   0  0  0  0  0  0  0  0  0  0  0  0
    9.3680   -1.7524    0.0000 O   0  0  0  0  0  0  0  0  0  0  0  0
    2.0000    1.5251    0.0000 O   0  0  0  0  0  0  0  0  0  0  0  0
    8.9279   -0.3221    0.0000 N   0  0  0  0  0  0  0  0  0  0  0  0
    6.7468    3.4658    0.0000 N   0  0  0  0  0  0  0  0  0  0  0  0
    3.3570    2.1560    0.0000 N   0  0  0  0  0  0  0  0  0  0  0  0
    6.0934   -2.5963    0.0000 C   0  0  2  0  0  0  0  0  0  0  0  0
    6.9024   -2.0085    0.0000 C   0  0  1  0  0  0  0  0  0  0  0  0
    6.1863   -3.6338    0.0000 C   0  0  0  0  0  0  0  0  0  0  0  0
    5.2844   -2.0085    0.0000 C   0  0  0  0  0  0  0  0  0  0  0  0
    7.8604   -2.4175    0.0000 C   0  0  0  0  0  0  0  0  0  0  0  0
    7.1346   -4.0648    0.0000 C   0  0  0  0  0  0  0  0  0  0  0  0
    5.5934   -1.0575    0.0000 C   0  0  0  0  0  0  0  0  0  0  0  0
    7.0408   -2.4005    0.0000 C   0  0  0  0  0  0  0  0  0  0  0  0
    7.9773   -3.4525    0.0000 C   0  0  0  0  0  0  0  0  0  0  0  0
    4.2690   -2.2408    0.0000 C   0  0  0  0  0  0  0  0  0  0  0  0
    4.9084   -0.2727    0.0000 C   0  0  0  0  0  0  0  0  0  0  0  0
    7.8810   -1.9209    0.0000 C   0  0  0  0  0  0  0  0  0  0  0  0
    3.5660   -1.4721    0.0000 C   0  0  0  0  0  0  0  0  0  0  0  0
    3.8879   -0.4814    0.0000 C   0  0  0  0  0  0  0  0  0  0  0  0
    8.5314   -1.2046    0.0000 C   0  0  0  0  0  0  0  0  0  0  0  0
    3.0770   -0.6373    0.0000 C   0  0  0  0  0  0  0  0  0  0  0  0
    9.0316    0.6398    0.0000 C   0  0  0  0  0  0  0  0  0  0  0  0
    2.8706    0.3079    0.0000 C   0  0  0  0  0  0  0  0  0  0  0  0
    8.8322    1.5865    0.0000 C   0  0  0  0  0  0  0  0  0  0  0  0
    8.3494    2.4249    0.0000 C   0  0  0  0  0  0  0  0  0  0  0  0
    7.6307    3.0726    0.0000 C   0  0  0  0  0  0  0  0  0  0  0  0
    2.9671    1.2705    0.0000 C   0  0  0  0  0  0  0  0  0  0  0  0
    5.7845    3.5659    0.0000 C   0  0  0  0  0  0  0  0  0  0  0  0
    4.8385    3.3630    0.0000 C   0  0  0  0  0  0  0  0  0  0  0  0
    4.0019    2.8771    0.0000 C   0  0  0  0  0  0  0  0  0  0  0  0
    7.5297   -1.4349    0.0000 H   0  0  0  0  0  0  0  0  0  0  0  0
    5.5684   -3.5826    0.0000 H   0  0  0  0  0  0  0  0  0  0  0  0
    6.0301   -4.2338    0.0000 H   0  0  0  0  0  0  0  0  0  0  0  0
    8.4793   -2.4543    0.0000 H   0  0  0  0  0  0  0  0  0  0  0  0
    8.0026   -1.8140    0.0000 H   0  0  0  0  0  0  0  0  0  0  0  0
    6.7852   -4.5770    0.0000 H   0  0  0  0  0  0  0  0  0  0  0  0
    7.5794   -4.4966    0.0000 H   0  0  0  0  0  0  0  0  0  0  0  0
    7.2600   -2.9805    0.0000 H   0  0  0  0  0  0  0  0  0  0  0  0
    4.0842   -2.8326    0.0000 H   0  0  0  0  0  0  0  0  0  0  0  0
    5.1068    0.3147    0.0000 H   0  0  0  0  0  0  0  0  0  0  0  0
    8.4588   -2.1457    0.0000 H   0  0  0  0  0  0  0  0  0  0  0  0
    3.4748   -0.0191    0.0000 H   0  0  0  0  0  0  0  0  0  0  0  0
    2.4995   -0.8629    0.0000 H   0  0  0  0  0  0  0  0  0  0  0  0
    9.5263   -0.4844    0.0000 H   0  0  0  0  0  0  0  0  0  0  0  0
    9.5677    0.3285    0.0000 H   0  0  0  0  0  0  0  0  0  0  0  0
    8.4123    0.6088    0.0000 H   0  0  0  0  0  0  0  0  0  0  0  0
    9.4384    1.4566    0.0000 H   0  0  0  0  0  0  0  0  0  0  0  0
    8.2530    1.3652    0.0000 H   0  0  0  0  0  0  0  0  0  0  0  0
    2.2516    0.2722    0.0000 H   0  0  0  0  0  0  0  0  0  0  0  0
    8.9661    2.4892    0.0000 H   0  0  0  0  0  0  0  0  0  0  0  0
    7.8673    2.0351    0.0000 H   0  0  0  0  0  0  0  0  0  0  0  0
    8.1972    3.3247    0.0000 H   0  0  0  0  0  0  0  0  0  0  0  0
    7.2930    2.5526    0.0000 H   0  0  0  0  0  0  0  0  0  0  0  0
    6.0938    4.1032    0.0000 H   0  0  0  0  0  0  0  0  0  0  0  0
    5.8178    2.9468    0.0000 H   0  0  0  0  0  0  0  0  0  0  0  0
    4.9662    3.9697    0.0000 H   0  0  0  0  0  0  0  0  0  0  0  0
    5.0620    2.7846    0.0000 H   0  0  0  0  0  0  0  0  0  0  0  0
    6.9068    4.0648    0.0000 H   0  0  0  0  0  0  0  0  0  0  0  0
    3.9354    3.4935    0.0000 H   0  0  0  0  0  0  0  0  0  0  0  0
    4.3935    2.3964    0.0000 H   0  0  0  0  0  0  0  0  0  0  0  0
    2.8357    2.4917    0.0000 H   0  0  0  0  0  0  0  0  0  0  0  0
  1  9  1  0  0  0  0
  1 14  1  0  0  0  0
  2 16  2  0  0  0  0
  3 22  2  0  0  0  0
  4 29  2  0  0  0  0
  5 22  1  0  0  0  0
  5 24  1  0  0  0  0
  5 46  1  0  0  0  0
  6 28  1  0  0  0  0
  6 30  1  0  0  0  0
  6 60  1  0  0  0  0
  7 29  1  0  0  0  0
  7 32  1  0  0  0  0
  7 63  1  0  0  0  0
  8  9  1  0  0  0  0
  8 10  1  6  0  0  0
  8 11  1  0  0  0  0
  8 15  1  0  0  0  0
  9 12  1  0  0  0  0
  9 33  1  1  0  0  0
 10 13  1  0  0  0  0
 10 34  1  0  0  0  0
 10 35  1  0  0  0  0
 11 14  2  0  0  0  0
 11 17  1  0  0  0  0
 12 16  1  0  0  0  0
 12 36  1  0  0  0  0
 12 37  1  0  0  0  0
 13 16  1  0  0  0  0
 13 38  1  0  0  0  0
 13 39  1  0  0  0  0
 14 18  1  0  0  0  0
 15 19  2  0  0  0  0
 15 40  1  0  0  0  0
 17 20  2  0  0  0  0
 17 41  1  0  0  0  0
 18 21  2  0  0  0  0
 18 42  1  0  0  0  0
 19 22  1  0  0  0  0
 19 43  1  0  0  0  0
 20 21  1  0  0  0  0
 20 23  1  0  0  0  0
 21 44  1  0  0  0  0
 23 25  2  0  0  0  0
 23 45  1  0  0  0  0
 24 26  1  0  0  0  0
 24 47  1  0  0  0  0
 24 48  1  0  0  0  0
 25 29  1  0  0  0  0
 25 51  1  0  0  0  0
 26 27  1  0  0  0  0
 26 49  1  0  0  0  0
 26 50  1  0  0  0  0
 27 28  1  0  0  0  0
 27 52  1  0  0  0  0
 27 53  1  0  0  0  0
 28 54  1  0  0  0  0
 28 55  1  0  0  0  0
 30 31  1  0  0  0  0
 30 56  1  0  0  0  0
 30 57  1  0  0  0  0
 31 32  1  0  0  0  0
 31 58  1  0  0  0  0
 31 59  1  0  0  0  0
 32 61  1  0  0  0  0
 32 62  1  0  0  0  0
M  END
> <PUBCHEM_COMPOUND_CID>
6477011

> <PUBCHEM_COMPOUND_CANONICALIZED>
1

> <PUBCHEM_CACTVS_COMPLEXITY>
764

> <PUBCHEM_CACTVS_HBOND_ACCEPTOR>
5

> <PUBCHEM_CACTVS_HBOND_DONOR>
3

> <PUBCHEM_CACTVS_ROTATABLE_BOND>
0

> <PUBCHEM_CACTVS_SUBSKEYS>
AAADceB7OAAAAAAAAAAAAAAAAAAAASAAAAAwYAAAAAAAAEgBAAAAHgAQAAAADhThmAYwBoLABACIAqFSEACCCAAgIAAIiIEOCMgMJjaE8RqGOCCk9hGIqYeIzPDPoAACAAAIAABAAAQAABAAAAAAAAAAAA==

> <PUBCHEM_IUPAC_INCHI>
InChI=1S/C25H31N3O4/c29-19-8-10-25-11-9-24(31)27-14-2-1-12-26-13-3-15-28-23(30)7-5-18-4-6-21(20(25)16-18)32-22(25)17-19/h4-7,9,11,16,22,26H,1-3,8,10,12-15,17H2,(H,27,31)(H,28,30)/b7-5+,11-9+/t22-,25+/m1/s1

> <PUBCHEM_IUPAC_INCHIKEY>
YIWJEBPTHXRHQF-LLMLIWGDSA-N

> <PUBCHEM_XLOGP3_AA>
1.6

> <PUBCHEM_EXACT_MASS>
437.231456

> <PUBCHEM_MOLECULAR_FORMULA>
C25H31N3O4

> <PUBCHEM_MOLECULAR_WEIGHT>
437.53134

> <PUBCHEM_OPENEYE_CAN_SMILES>
C1CCNC(=O)C=CC23CCC(=O)CC2OC4=C3C=C(C=C4)C=CC(=O)NCCCNC1

> <PUBCHEM_OPENEYE_ISO_SMILES>
C1CCNC(=O)/C=C/[C@]23CCC(=O)C[C@H]2OC4=C3C=C(C=C4)/C=C/C(=O)NCCCNC1

> <PUBCHEM_CACTVS_TPSA>
96.5

> <PUBCHEM_MONOISOTOPIC_WEIGHT>
437.231456

> <PUBCHEM_TOTAL_CHARGE>
0

> <PUBCHEM_HEAVY_ATOM_COUNT>
32

> <PUBCHEM_ATOM_DEF_STEREO_COUNT>
2

> <PUBCHEM_ATOM_UDEF_STEREO_COUNT>
0

> <PUBCHEM_BOND_DEF_STEREO_COUNT>
2

> <PUBCHEM_BOND_UDEF_STEREO_COUNT>
0

> <PUBCHEM_ISOTOPIC_ATOM_COUNT>
0

> <PUBCHEM_COMPONENT_COUNT>
1

> <PUBCHEM_CACTVS_TAUTO_COUNT>
12

> <PUBCHEM_COORDINATE_TYPE>
1
5
255

> <PUBCHEM_BONDANNOTATIONS>
11  14  8
11  17  8
14  18  8
17  20  8
18  21  8
20  21  8
8  10  6
9  33  5

$$$$

