443716
  -OEChem-07051213032D

 39 44  0     0  0  0  0  0  0999 V2000
    4.5732    3.5673    0.0000 O   0  0  0  0  0  0  0  0  0  0  0  0
    3.1278    4.4167    0.0000 O   0  0  0  0  0  0  0  0  0  0  0  0
    5.5740   -3.5278    0.0000 O   0  0  0  0  0  0  0  0  0  0  0  0
    4.0684   -4.4125    0.0000 O   0  0  0  0  0  0  0  0  0  0  0  0
    5.5161    1.8368    0.0000 O   0  0  0  0  0  0  0  0  0  0  0  0
    4.6501    0.3368    0.0000 N   0  0  0  0  0  0  0  0  0  0  0  0
    3.7841   -0.1632    0.0000 C   0  0  0  0  0  0  0  0  0  0  0  0
    2.9180    0.3368    0.0000 C   0  0  0  0  0  0  0  0  0  0  0  0
    2.9180    1.3368    0.0000 C   0  0  0  0  0  0  0  0  0  0  0  0
    3.8001   -1.2047    0.0000 C   0  0  0  0  0  0  0  0  0  0  0  0
    3.7841    1.8368    0.0000 C   0  0  0  0  0  0  0  0  0  0  0  0
    2.9021   -1.7324    0.0000 C   0  0  0  0  0  0  0  0  0  0  0  0
    4.6501    1.3368    0.0000 C   0  0  0  0  0  0  0  0  0  0  0  0
    3.8001    2.8783    0.0000 C   0  0  0  0  0  0  0  0  0  0  0  0
    2.0080   -0.1700    0.0000 C   0  0  0  0  0  0  0  0  0  0  0  0
    2.0000   -1.2116    0.0000 C   0  0  0  0  0  0  0  0  0  0  0  0
    4.7520   -1.7253    0.0000 C   0  0  0  0  0  0  0  0  0  0  0  0
    2.0080    1.8437    0.0000 C   0  0  0  0  0  0  0  0  0  0  0  0
    2.9021    3.4061    0.0000 C   0  0  0  0  0  0  0  0  0  0  0  0
    2.8937   -2.8174    0.0000 C   0  0  0  0  0  0  0  0  0  0  0  0
    4.7688   -2.8102    0.0000 C   0  0  0  0  0  0  0  0  0  0  0  0
    3.8334   -3.3599    0.0000 C   0  0  0  0  0  0  0  0  0  0  0  0
    5.5161   -0.1632    0.0000 C   0  0  0  0  0  0  0  0  0  0  0  0
    2.0000    2.8853    0.0000 C   0  0  0  0  0  0  0  0  0  0  0  0
    4.1585    4.5161    0.0000 C   0  0  0  0  0  0  0  0  0  0  0  0
    5.1420   -4.5161    0.0000 C   0  0  0  0  0  0  0  0  0  0  0  0
    1.4747    0.1462    0.0000 H   0  0  0  0  0  0  0  0  0  0  0  0
    1.4619   -1.5195    0.0000 H   0  0  0  0  0  0  0  0  0  0  0  0
    5.2829   -1.4050    0.0000 H   0  0  0  0  0  0  0  0  0  0  0  0
    1.4747    1.5275    0.0000 H   0  0  0  0  0  0  0  0  0  0  0  0
    2.3556   -3.1253    0.0000 H   0  0  0  0  0  0  0  0  0  0  0  0
    5.2061   -0.7001    0.0000 H   0  0  0  0  0  0  0  0  0  0  0  0
    6.0530   -0.4732    0.0000 H   0  0  0  0  0  0  0  0  0  0  0  0
    5.8261    0.3738    0.0000 H   0  0  0  0  0  0  0  0  0  0  0  0
    1.4619    3.1932    0.0000 H   0  0  0  0  0  0  0  0  0  0  0  0
    4.7495    4.7033    0.0000 H   0  0  0  0  0  0  0  0  0  0  0  0
    4.0344    5.1235    0.0000 H   0  0  0  0  0  0  0  0  0  0  0  0
    5.0180   -5.1235    0.0000 H   0  0  0  0  0  0  0  0  0  0  0  0
    5.7331   -4.7033    0.0000 H   0  0  0  0  0  0  0  0  0  0  0  0
  1 14  1  0  0  0  0
  1 25  1  0  0  0  0
  2 19  1  0  0  0  0
  2 25  1  0  0  0  0
  3 21  1  0  0  0  0
  3 26  1  0  0  0  0
  4 22  1  0  0  0  0
  4 26  1  0  0  0  0
  5 13  2  0  0  0  0
  6  7  1  0  0  0  0
  6 13  1  0  0  0  0
  6 23  1  0  0  0  0
  7  8  2  0  0  0  0
  7 10  1  0  0  0  0
  8  9  1  0  0  0  0
  8 15  1  0  0  0  0
  9 11  2  0  0  0  0
  9 18  1  0  0  0  0
 10 12  1  0  0  0  0
 10 17  2  0  0  0  0
 11 13  1  0  0  0  0
 11 14  1  0  0  0  0
 12 16  1  0  0  0  0
 12 20  2  0  0  0  0
 14 19  2  0  0  0  0
 15 16  2  0  0  0  0
 15 27  1  0  0  0  0
 16 28  1  0  0  0  0
 17 21  1  0  0  0  0
 17 29  1  0  0  0  0
 18 24  2  0  0  0  0
 18 30  1  0  0  0  0
 19 24  1  0  0  0  0
 20 22  1  0  0  0  0
 20 31  1  0  0  0  0
 21 22  2  0  0  0  0
 23 32  1  0  0  0  0
 23 33  1  0  0  0  0
 23 34  1  0  0  0  0
 24 35  1  0  0  0  0
 25 36  1  0  0  0  0
 25 37  1  0  0  0  0
 26 38  1  0  0  0  0
 26 39  1  0  0  0  0
M  END
> <PUBCHEM_COMPOUND_CID>
443716

> <PUBCHEM_COMPOUND_CANONICALIZED>
1

> <PUBCHEM_CACTVS_COMPLEXITY>
599

> <PUBCHEM_CACTVS_HBOND_ACCEPTOR>
5

> <PUBCHEM_CACTVS_HBOND_DONOR>
0

> <PUBCHEM_CACTVS_ROTATABLE_BOND>
0

> <PUBCHEM_CACTVS_SUBSKEYS>
AAADccB6OAAAAAAAAAAAAAAAAAAAASJAAAA8YMEAAAAAAEjxVAAAHgAAAAAADAyBmAcyzsMABACIAiVSUACCCAAlIAAIiAEOzMgdJjbEtZukMWpm5hHO6Qe62fOe4AADQAAaQADAAAaAADSAAAAAAAAAAA==

> <PUBCHEM_IUPAC_INCHI>
InChI=1S/C20H13NO5/c1-21-18-12(3-2-10-6-15-16(7-13(10)18)25-8-24-15)11-4-5-14-19(26-9-23-14)17(11)20(21)22/h2-7H,8-9H2,1H3

> <PUBCHEM_IUPAC_INCHIKEY>
UFHGABBBZRPRJV-UHFFFAOYSA-N

> <PUBCHEM_XLOGP3_AA>
3.5

> <PUBCHEM_EXACT_MASS>
347.079373

> <PUBCHEM_MOLECULAR_FORMULA>
C20H13NO5

> <PUBCHEM_MOLECULAR_WEIGHT>
347.32092

> <PUBCHEM_OPENEYE_CAN_SMILES>
CN1C2=C(C=CC3=CC4=C(C=C32)OCO4)C5=C(C1=O)C6=C(C=C5)OCO6

> <PUBCHEM_OPENEYE_ISO_SMILES>
CN1C2=C(C=CC3=CC4=C(C=C32)OCO4)C5=C(C1=O)C6=C(C=C5)OCO6

> <PUBCHEM_CACTVS_TPSA>
57.2

> <PUBCHEM_MONOISOTOPIC_WEIGHT>
347.079373

> <PUBCHEM_TOTAL_CHARGE>
0

> <PUBCHEM_HEAVY_ATOM_COUNT>
26

> <PUBCHEM_ATOM_DEF_STEREO_COUNT>
0

> <PUBCHEM_ATOM_UDEF_STEREO_COUNT>
0

> <PUBCHEM_BOND_DEF_STEREO_COUNT>
0

> <PUBCHEM_BOND_UDEF_STEREO_COUNT>
0

> <PUBCHEM_ISOTOPIC_ATOM_COUNT>
0

> <PUBCHEM_COMPONENT_COUNT>
1

> <PUBCHEM_CACTVS_TAUTO_COUNT>
1

> <PUBCHEM_COORDINATE_TYPE>
1
5
255

> <PUBCHEM_BONDANNOTATIONS>
10  12  8
10  17  8
11  13  8
11  14  8
12  16  8
12  20  8
14  19  8
15  16  8
17  21  8
18  24  8
19  24  8
20  22  8
21  22  8
6  13  8
6  7  8
7  10  8
7  8  8
8  15  8
8  9  8
9  11  8
9  18  8

$$$$

