586258
  -OEChem-06241222462D

 29 30  0     0  0  0  0  0  0999 V2000
    2.8660   -3.9239    0.0000 F   0  0  0  0  0  0  0  0  0  0  0  0
    4.5981    0.0761    0.0000 O   0  0  0  0  0  0  0  0  0  0  0  0
    3.7320    1.5761    0.0000 N   0  0  0  0  0  0  0  0  0  0  0  0
    2.9230    2.1639    0.0000 N   0  0  0  0  0  0  0  0  0  0  0  0
    2.8660    0.0761    0.0000 N   0  0  0  0  0  0  0  0  0  0  0  0
    4.5411    2.1639    0.0000 C   0  0  0  0  0  0  0  0  0  0  0  0
    3.2320    3.1149    0.0000 C   0  0  0  0  0  0  0  0  0  0  0  0
    4.2320    3.1149    0.0000 C   0  0  0  0  0  0  0  0  0  0  0  0
    3.7320    0.5761    0.0000 C   0  0  0  0  0  0  0  0  0  0  0  0
    5.4921    1.8548    0.0000 C   0  0  0  0  0  0  0  0  0  0  0  0
    2.8660   -0.9239    0.0000 C   0  0  0  0  0  0  0  0  0  0  0  0
    2.6443    3.9239    0.0000 C   0  0  0  0  0  0  0  0  0  0  0  0
    2.0000   -1.4239    0.0000 C   0  0  0  0  0  0  0  0  0  0  0  0
    3.7320   -1.4239    0.0000 C   0  0  0  0  0  0  0  0  0  0  0  0
    2.0000   -2.4239    0.0000 C   0  0  0  0  0  0  0  0  0  0  0  0
    3.7320   -2.4239    0.0000 C   0  0  0  0  0  0  0  0  0  0  0  0
    2.8660   -2.9239    0.0000 C   0  0  0  0  0  0  0  0  0  0  0  0
    4.5965    3.6165    0.0000 H   0  0  0  0  0  0  0  0  0  0  0  0
    5.3005    1.2652    0.0000 H   0  0  0  0  0  0  0  0  0  0  0  0
    6.0818    1.6632    0.0000 H   0  0  0  0  0  0  0  0  0  0  0  0
    5.6837    2.4445    0.0000 H   0  0  0  0  0  0  0  0  0  0  0  0
    2.3291    0.3861    0.0000 H   0  0  0  0  0  0  0  0  0  0  0  0
    3.1459    4.2884    0.0000 H   0  0  0  0  0  0  0  0  0  0  0  0
    2.2798    4.4255    0.0000 H   0  0  0  0  0  0  0  0  0  0  0  0
    2.1427    3.5595    0.0000 H   0  0  0  0  0  0  0  0  0  0  0  0
    1.4631   -1.1139    0.0000 H   0  0  0  0  0  0  0  0  0  0  0  0
    4.2690   -1.1139    0.0000 H   0  0  0  0  0  0  0  0  0  0  0  0
    1.4631   -2.7339    0.0000 H   0  0  0  0  0  0  0  0  0  0  0  0
    4.2690   -2.7339    0.0000 H   0  0  0  0  0  0  0  0  0  0  0  0
  1 17  1  0  0  0  0
  2  9  2  0  0  0  0
  3  4  1  0  0  0  0
  3  6  1  0  0  0  0
  3  9  1  0  0  0  0
  4  7  2  0  0  0  0
  5  9  1  0  0  0  0
  5 11  1  0  0  0  0
  5 22  1  0  0  0  0
  6  8  2  0  0  0  0
  6 10  1  0  0  0  0
  7  8  1  0  0  0  0
  7 12  1  0  0  0  0
  8 18  1  0  0  0  0
 10 19  1  0  0  0  0
 10 20  1  0  0  0  0
 10 21  1  0  0  0  0
 11 13  2  0  0  0  0
 11 14  1  0  0  0  0
 12 23  1  0  0  0  0
 12 24  1  0  0  0  0
 12 25  1  0  0  0  0
 13 15  1  0  0  0  0
 13 26  1  0  0  0  0
 14 16  2  0  0  0  0
 14 27  1  0  0  0  0
 15 17  2  0  0  0  0
 15 28  1  0  0  0  0
 16 17  1  0  0  0  0
 16 29  1  0  0  0  0
M  END
> <PUBCHEM_COMPOUND_CID>
586258

> <PUBCHEM_COMPOUND_CANONICALIZED>
1

> <PUBCHEM_CACTVS_COMPLEXITY>
279

> <PUBCHEM_CACTVS_HBOND_ACCEPTOR>
3

> <PUBCHEM_CACTVS_HBOND_DONOR>
1

> <PUBCHEM_CACTVS_ROTATABLE_BOND>
1

> <PUBCHEM_CACTVS_SUBSKEYS>
AAADccBzIQAAAAAAAAAAAAAAAAAAAWAAAAAwAAAAAAAAAAABwAAAHwAYAAAACAiBFggzwJLIAACqASRiVACSBAAhAgAemCAwZJiIICLA0dGEpAh4nAJIyCcQAAAAAAAAAAAAAAAAAAAAAAAAAAAAAAAAAA==

> <PUBCHEM_IUPAC_OPENEYE_NAME>
N-(4-fluorophenyl)-3,5-dimethyl-pyrazole-1-carboxamide

> <PUBCHEM_IUPAC_CAS_NAME>
N-(4-fluorophenyl)-3,5-dimethyl-1-pyrazolecarboxamide

> <PUBCHEM_IUPAC_NAME>
N-(4-fluorophenyl)-3,5-dimethylpyrazole-1-carboxamide

> <PUBCHEM_IUPAC_SYSTEMATIC_NAME>
N-(4-fluorophenyl)-3,5-dimethyl-pyrazole-1-carboxamide

> <PUBCHEM_IUPAC_TRADITIONAL_NAME>
N-(4-fluorophenyl)-3,5-dimethyl-pyrazole-1-carboxamide

> <PUBCHEM_IUPAC_INCHI>
InChI=1S/C12H12FN3O/c1-8-7-9(2)16(15-8)12(17)14-11-5-3-10(13)4-6-11/h3-7H,1-2H3,(H,14,17)

> <PUBCHEM_IUPAC_INCHIKEY>
APDLPASAVBAFBP-UHFFFAOYSA-N

> <PUBCHEM_XLOGP3_AA>
2.4

> <PUBCHEM_EXACT_MASS>
233.09644

> <PUBCHEM_MOLECULAR_FORMULA>
C12H12FN3O

> <PUBCHEM_MOLECULAR_WEIGHT>
233.241583

> <PUBCHEM_OPENEYE_CAN_SMILES>
CC1=CC(=NN1C(=O)NC2=CC=C(C=C2)F)C

> <PUBCHEM_OPENEYE_ISO_SMILES>
CC1=CC(=NN1C(=O)NC2=CC=C(C=C2)F)C

> <PUBCHEM_CACTVS_TPSA>
46.9

> <PUBCHEM_MONOISOTOPIC_WEIGHT>
233.09644

> <PUBCHEM_TOTAL_CHARGE>
0

> <PUBCHEM_HEAVY_ATOM_COUNT>
17

> <PUBCHEM_ATOM_DEF_STEREO_COUNT>
0

> <PUBCHEM_ATOM_UDEF_STEREO_COUNT>
0

> <PUBCHEM_BOND_DEF_STEREO_COUNT>
0

> <PUBCHEM_BOND_UDEF_STEREO_COUNT>
0

> <PUBCHEM_ISOTOPIC_ATOM_COUNT>
0

> <PUBCHEM_COMPONENT_COUNT>
1

> <PUBCHEM_CACTVS_TAUTO_COUNT>
2

> <PUBCHEM_COORDINATE_TYPE>
1
5
255

> <PUBCHEM_BONDANNOTATIONS>
11  13  8
11  14  8
13  15  8
14  16  8
15  17  8
16  17  8
3  4  8
3  6  8
4  7  8
6  8  8
7  8  8

$$$$

