9568055
  -OEChem-07051213132D

 24 25  0     0  0  0  0  0  0999 V2000
    5.4351    1.2273    0.0000 O   0  0  0  0  0  0  0  0  0  0  0  0
    2.0000   -2.1392    0.0000 O   0  0  0  0  0  0  0  0  0  0  0  0
    5.3072    3.9009    0.0000 O   0  5  0  0  0  0  0  0  0  0  0  0
    6.7084    2.8828    0.0000 O   0  0  0  0  0  0  0  0  0  0  0  0
    3.7601   -1.8605    0.0000 N   0  0  0  0  0  0  0  0  0  0  0  0
    3.2601   -3.3993    0.0000 N   0  0  0  0  0  0  0  0  0  0  0  0
    3.7601   -0.8605    0.0000 N   0  0  0  0  0  0  0  0  0  0  0  0
    5.7139    2.9874    0.0000 N   0  3  0  0  0  0  0  0  0  0  0  0
    4.5691   -2.4483    0.0000 C   0  0  0  0  0  0  0  0  0  0  0  0
    4.2601   -3.3993    0.0000 C   0  0  0  0  0  0  0  0  0  0  0  0
    2.9511   -2.4483    0.0000 C   0  0  0  0  0  0  0  0  0  0  0  0
    4.6261    0.6395    0.0000 C   0  0  0  0  0  0  0  0  0  0  0  0
    4.6261   -0.3605    0.0000 C   0  0  0  0  0  0  0  0  0  0  0  0
    3.8171    1.2273    0.0000 C   0  0  0  0  0  0  0  0  0  0  0  0
    5.1261    2.1784    0.0000 C   0  0  0  0  0  0  0  0  0  0  0  0
    4.1261    2.1784    0.0000 C   0  0  0  0  0  0  0  0  0  0  0  0
    5.1355   -2.7004    0.0000 H   0  0  0  0  0  0  0  0  0  0  0  0
    4.8791   -1.9113    0.0000 H   0  0  0  0  0  0  0  0  0  0  0  0
    4.1953   -4.0159    0.0000 H   0  0  0  0  0  0  0  0  0  0  0  0
    4.8665   -3.5282    0.0000 H   0  0  0  0  0  0  0  0  0  0  0  0
    2.8956   -3.9009    0.0000 H   0  0  0  0  0  0  0  0  0  0  0  0
    5.1630   -0.6705    0.0000 H   0  0  0  0  0  0  0  0  0  0  0  0
    3.2274    1.0357    0.0000 H   0  0  0  0  0  0  0  0  0  0  0  0
    3.7617    2.6800    0.0000 H   0  0  0  0  0  0  0  0  0  0  0  0
  1 12  1  0  0  0  0
  1 15  1  0  0  0  0
  2 11  2  0  0  0  0
  3  8  1  0  0  0  0
  4  8  2  0  0  0  0
  5  7  1  0  0  0  0
  5  9  1  0  0  0  0
  5 11  1  0  0  0  0
  6 10  1  0  0  0  0
  6 11  1  0  0  0  0
  6 21  1  0  0  0  0
  7 13  2  0  0  0  0
  8 15  1  0  0  0  0
  9 10  1  0  0  0  0
  9 17  1  0  0  0  0
  9 18  1  0  0  0  0
 10 19  1  0  0  0  0
 10 20  1  0  0  0  0
 12 13  1  0  0  0  0
 12 14  2  0  0  0  0
 13 22  1  0  0  0  0
 14 16  1  0  0  0  0
 14 23  1  0  0  0  0
 15 16  2  0  0  0  0
 16 24  1  0  0  0  0
M  CHG  2   3  -1   8   1
M  END
> <PUBCHEM_COMPOUND_CID>
9568055

> <PUBCHEM_COMPOUND_CANONICALIZED>
1

> <PUBCHEM_CACTVS_COMPLEXITY>
327

> <PUBCHEM_CACTVS_HBOND_ACCEPTOR>
5

> <PUBCHEM_CACTVS_HBOND_DONOR>
1

> <PUBCHEM_CACTVS_ROTATABLE_BOND>
2

> <PUBCHEM_CACTVS_SUBSKEYS>
AAADccBzuAAAAAAAAAAAAAAAAAAAAWJAAAAAAAAAAAAAAAABgAAAHgAcAAAACATBkAQxhILQRECpALFzUwSSCAAsIgA+iIEubNqMZrKEtZuaGSD83hMI6Ya8AAAAAAAAAAAAAAAAAAAAAAAAAAAAAAAAAA==

> <PUBCHEM_IUPAC_OPENEYE_NAME>
1-[(E)-(5-nitro-2-furyl)methyleneamino]imidazolidin-2-one

> <PUBCHEM_IUPAC_CAS_NAME>
1-[(E)-(5-nitro-2-furanyl)methylideneamino]-2-imidazolidinone

> <PUBCHEM_IUPAC_NAME>
1-[(E)-(5-nitrofuran-2-yl)methylideneamino]imidazolidin-2-one

> <PUBCHEM_IUPAC_SYSTEMATIC_NAME>
1-[(E)-(5-nitrofuran-2-yl)methylideneamino]imidazolidin-2-one

> <PUBCHEM_IUPAC_TRADITIONAL_NAME>
1-[(E)-(5-nitro-2-furyl)methyleneamino]-2-imidazolidinone

> <PUBCHEM_IUPAC_INCHI>
InChI=1S/C8H8N4O4/c13-8-9-3-4-11(8)10-5-6-1-2-7(16-6)12(14)15/h1-2,5H,3-4H2,(H,9,13)/b10-5+

> <PUBCHEM_IUPAC_INCHIKEY>
VSVAVMVWTLLTCH-BJMVGYQFSA-N

> <PUBCHEM_XLOGP3>
-0.6

> <PUBCHEM_EXACT_MASS>
224.054555

> <PUBCHEM_MOLECULAR_FORMULA>
C8H8N4O4

> <PUBCHEM_MOLECULAR_WEIGHT>
224.17352

> <PUBCHEM_OPENEYE_CAN_SMILES>
C1CN(C(=O)N1)N=CC2=CC=C(O2)[N+](=O)[O-]

> <PUBCHEM_OPENEYE_ISO_SMILES>
C1CN(C(=O)N1)/N=C/C2=CC=C(O2)[N+](=O)[O-]

> <PUBCHEM_CACTVS_TPSA>
104

> <PUBCHEM_MONOISOTOPIC_WEIGHT>
224.054555

> <PUBCHEM_TOTAL_CHARGE>
0

> <PUBCHEM_HEAVY_ATOM_COUNT>
16

> <PUBCHEM_ATOM_DEF_STEREO_COUNT>
0

> <PUBCHEM_ATOM_UDEF_STEREO_COUNT>
0

> <PUBCHEM_BOND_DEF_STEREO_COUNT>
1

> <PUBCHEM_BOND_UDEF_STEREO_COUNT>
0

> <PUBCHEM_ISOTOPIC_ATOM_COUNT>
0

> <PUBCHEM_COMPONENT_COUNT>
1

> <PUBCHEM_CACTVS_TAUTO_COUNT>
2

> <PUBCHEM_COORDINATE_TYPE>
1
5
255

> <PUBCHEM_BONDANNOTATIONS>
1  12  8
1  15  8
12  14  8
14  16  8
15  16  8

$$$$

