4934
  -OEChem-07051212532D

 57 59  0     0  0  0  0  0  0999 V2000
    5.5321   -0.2327    0.0000 O   0  0  0  0  0  0  0  0  0  0  0  0
    4.6660   -3.7327    0.0000 O   0  0  0  0  0  0  0  0  0  0  0  0
    3.8000   -0.2327    0.0000 O   0  0  0  0  0  0  0  0  0  0  0  0
    6.3981    2.2673    0.0000 N   0  3  0  0  0  0  0  0  0  0  0  0
    6.3981    3.2673    0.0000 C   0  0  0  0  0  0  0  0  0  0  0  0
    7.3981    2.2673    0.0000 C   0  0  0  0  0  0  0  0  0  0  0  0
    6.3981    1.2673    0.0000 C   0  0  0  0  0  0  0  0  0  0  0  0
    5.3981    2.2673    0.0000 C   0  0  0  0  0  0  0  0  0  0  0  0
    7.8981    1.4013    0.0000 C   0  0  0  0  0  0  0  0  0  0  0  0
    7.8981    3.1334    0.0000 C   0  0  0  0  0  0  0  0  0  0  0  0
    7.2641    3.7673    0.0000 C   0  0  0  0  0  0  0  0  0  0  0  0
    5.5321    3.7673    0.0000 C   0  0  0  0  0  0  0  0  0  0  0  0
    5.5321    0.7673    0.0000 C   0  0  0  0  0  0  0  0  0  0  0  0
    4.6660   -1.7327    0.0000 C   0  0  0  0  0  0  0  0  0  0  0  0
    4.6660   -0.7327    0.0000 C   0  0  0  0  0  0  0  0  0  0  0  0
    5.5321   -2.2327    0.0000 C   0  0  0  0  0  0  0  0  0  0  0  0
    3.8000   -2.2327    0.0000 C   0  0  0  0  0  0  0  0  0  0  0  0
    5.5321   -3.2327    0.0000 C   0  0  0  0  0  0  0  0  0  0  0  0
    3.8000   -3.2327    0.0000 C   0  0  0  0  0  0  0  0  0  0  0  0
    2.9061   -1.6980    0.0000 C   0  0  0  0  0  0  0  0  0  0  0  0
    6.4260   -1.6980    0.0000 C   0  0  0  0  0  0  0  0  0  0  0  0
    6.4260   -3.7673    0.0000 C   0  0  0  0  0  0  0  0  0  0  0  0
    2.9061   -3.7673    0.0000 C   0  0  0  0  0  0  0  0  0  0  0  0
    7.3321   -2.2118    0.0000 C   0  0  0  0  0  0  0  0  0  0  0  0
    2.0000   -2.2118    0.0000 C   0  0  0  0  0  0  0  0  0  0  0  0
    7.3321   -3.2535    0.0000 C   0  0  0  0  0  0  0  0  0  0  0  0
    2.0000   -3.2535    0.0000 C   0  0  0  0  0  0  0  0  0  0  0  0
    6.3981    3.8873    0.0000 H   0  0  0  0  0  0  0  0  0  0  0  0
    8.0181    2.2673    0.0000 H   0  0  0  0  0  0  0  0  0  0  0  0
    6.6101    0.6847    0.0000 H   0  0  0  0  0  0  0  0  0  0  0  0
    7.0087    1.3750    0.0000 H   0  0  0  0  0  0  0  0  0  0  0  0
    5.3981    2.8873    0.0000 H   0  0  0  0  0  0  0  0  0  0  0  0
    4.7781    2.2673    0.0000 H   0  0  0  0  0  0  0  0  0  0  0  0
    5.3981    1.6473    0.0000 H   0  0  0  0  0  0  0  0  0  0  0  0
    7.3612    1.0913    0.0000 H   0  0  0  0  0  0  0  0  0  0  0  0
    8.2081    0.8644    0.0000 H   0  0  0  0  0  0  0  0  0  0  0  0
    8.4350    1.7113    0.0000 H   0  0  0  0  0  0  0  0  0  0  0  0
    8.4350    2.8234    0.0000 H   0  0  0  0  0  0  0  0  0  0  0  0
    8.2081    3.6703    0.0000 H   0  0  0  0  0  0  0  0  0  0  0  0
    7.3612    3.4434    0.0000 H   0  0  0  0  0  0  0  0  0  0  0  0
    7.5741    3.2304    0.0000 H   0  0  0  0  0  0  0  0  0  0  0  0
    7.8010    4.0773    0.0000 H   0  0  0  0  0  0  0  0  0  0  0  0
    6.9541    4.3043    0.0000 H   0  0  0  0  0  0  0  0  0  0  0  0
    5.8421    4.3043    0.0000 H   0  0  0  0  0  0  0  0  0  0  0  0
    4.9951    4.0773    0.0000 H   0  0  0  0  0  0  0  0  0  0  0  0
    5.2221    3.2304    0.0000 H   0  0  0  0  0  0  0  0  0  0  0  0
    5.3200    1.3499    0.0000 H   0  0  0  0  0  0  0  0  0  0  0  0
    4.9215    0.6597    0.0000 H   0  0  0  0  0  0  0  0  0  0  0  0
    5.2030   -1.4227    0.0000 H   0  0  0  0  0  0  0  0  0  0  0  0
    6.4188   -1.0780    0.0000 H   0  0  0  0  0  0  0  0  0  0  0  0
    2.9132   -1.0780    0.0000 H   0  0  0  0  0  0  0  0  0  0  0  0
    6.4188   -4.3873    0.0000 H   0  0  0  0  0  0  0  0  0  0  0  0
    2.9132   -4.3873    0.0000 H   0  0  0  0  0  0  0  0  0  0  0  0
    1.4643   -1.8998    0.0000 H   0  0  0  0  0  0  0  0  0  0  0  0
    7.8678   -1.8998    0.0000 H   0  0  0  0  0  0  0  0  0  0  0  0
    7.8678   -3.5656    0.0000 H   0  0  0  0  0  0  0  0  0  0  0  0
    1.4643   -3.5656    0.0000 H   0  0  0  0  0  0  0  0  0  0  0  0
  1 13  1  0  0  0  0
  1 15  1  0  0  0  0
  2 18  1  0  0  0  0
  2 19  1  0  0  0  0
  3 15  2  0  0  0  0
  4  5  1  0  0  0  0
  4  6  1  0  0  0  0
  4  7  1  0  0  0  0
  4  8  1  0  0  0  0
  5 11  1  0  0  0  0
  5 12  1  0  0  0  0
  5 28  1  0  0  0  0
  6  9  1  0  0  0  0
  6 10  1  0  0  0  0
  6 29  1  0  0  0  0
  7 13  1  0  0  0  0
  7 30  1  0  0  0  0
  7 31  1  0  0  0  0
  8 32  1  0  0  0  0
  8 33  1  0  0  0  0
  8 34  1  0  0  0  0
  9 35  1  0  0  0  0
  9 36  1  0  0  0  0
  9 37  1  0  0  0  0
 10 38  1  0  0  0  0
 10 39  1  0  0  0  0
 10 40  1  0  0  0  0
 11 41  1  0  0  0  0
 11 42  1  0  0  0  0
 11 43  1  0  0  0  0
 12 44  1  0  0  0  0
 12 45  1  0  0  0  0
 12 46  1  0  0  0  0
 13 47  1  0  0  0  0
 13 48  1  0  0  0  0
 14 15  1  0  0  0  0
 14 16  1  0  0  0  0
 14 17  1  0  0  0  0
 14 49  1  0  0  0  0
 16 18  1  0  0  0  0
 16 21  2  0  0  0  0
 17 19  1  0  0  0  0
 17 20  2  0  0  0  0
 18 22  2  0  0  0  0
 19 23  2  0  0  0  0
 20 25  1  0  0  0  0
 20 51  1  0  0  0  0
 21 24  1  0  0  0  0
 21 50  1  0  0  0  0
 22 26  1  0  0  0  0
 22 52  1  0  0  0  0
 23 27  1  0  0  0  0
 23 53  1  0  0  0  0
 24 26  2  0  0  0  0
 24 55  1  0  0  0  0
 25 27  2  0  0  0  0
 25 54  1  0  0  0  0
 26 56  1  0  0  0  0
 27 57  1  0  0  0  0
M  CHG  1   4   1
M  END
> <PUBCHEM_COMPOUND_CID>
4934

> <PUBCHEM_COMPOUND_CANONICALIZED>
1

> <PUBCHEM_CACTVS_COMPLEXITY>
474

> <PUBCHEM_CACTVS_HBOND_ACCEPTOR>
3

> <PUBCHEM_CACTVS_HBOND_DONOR>
0

> <PUBCHEM_CACTVS_ROTATABLE_BOND>
7

> <PUBCHEM_CACTVS_SUBSKEYS>
AAADceB6MAAAAAAAAAAAAAAAAAAAAAAAAAA0YIAAAAAAAACRQAAAHgAAAAAADSzhmAYyDoMABACIAiDSCAACCAAgIAAIiAEOCIgOJjKENRqDOCCkwBGYqAfKyOCOgAAAAAAIAAAAAAAAABAAAAAAAAAAAA==

> <PUBCHEM_IUPAC_OPENEYE_NAME>
diisopropyl-methyl-[2-(9H-xanthene-9-carbonyloxy)ethyl]ammonium

> <PUBCHEM_IUPAC_CAS_NAME>
methyl-[2-[oxo(9H-xanthen-9-yl)methoxy]ethyl]-di(propan-2-yl)ammonium

> <PUBCHEM_IUPAC_NAME>
methyl-di(propan-2-yl)-[2-(9H-xanthene-9-carbonyloxy)ethyl]azanium

> <PUBCHEM_IUPAC_SYSTEMATIC_NAME>
methyl-di(propan-2-yl)-[2-(9H-xanthen-9-ylcarbonyloxy)ethyl]azanium

> <PUBCHEM_IUPAC_TRADITIONAL_NAME>
diisopropyl-methyl-[2-(9H-xanthene-9-carbonyloxy)ethyl]ammonium

> <PUBCHEM_IUPAC_INCHI>
InChI=1S/C23H30NO3/c1-16(2)24(5,17(3)4)14-15-26-23(25)22-18-10-6-8-12-20(18)27-21-13-9-7-11-19(21)22/h6-13,16-17,22H,14-15H2,1-5H3/q+1

> <PUBCHEM_IUPAC_INCHIKEY>
VVWYOYDLCMFIEM-UHFFFAOYSA-N

> <PUBCHEM_XLOGP3>
4.2

> <PUBCHEM_EXACT_MASS>
368.222569

> <PUBCHEM_MOLECULAR_FORMULA>
C23H30NO3+

> <PUBCHEM_MOLECULAR_WEIGHT>
368.4892

> <PUBCHEM_OPENEYE_CAN_SMILES>
CC(C)[N+](C)(CCOC(=O)C1C2=CC=CC=C2OC3=CC=CC=C13)C(C)C

> <PUBCHEM_OPENEYE_ISO_SMILES>
CC(C)[N+](C)(CCOC(=O)C1C2=CC=CC=C2OC3=CC=CC=C13)C(C)C

> <PUBCHEM_CACTVS_TPSA>
35.5

> <PUBCHEM_MONOISOTOPIC_WEIGHT>
368.222569

> <PUBCHEM_TOTAL_CHARGE>
1

> <PUBCHEM_HEAVY_ATOM_COUNT>
27

> <PUBCHEM_ATOM_DEF_STEREO_COUNT>
0

> <PUBCHEM_ATOM_UDEF_STEREO_COUNT>
0

> <PUBCHEM_BOND_DEF_STEREO_COUNT>
0

> <PUBCHEM_BOND_UDEF_STEREO_COUNT>
0

> <PUBCHEM_ISOTOPIC_ATOM_COUNT>
0

> <PUBCHEM_COMPONENT_COUNT>
1

> <PUBCHEM_CACTVS_TAUTO_COUNT>
1

> <PUBCHEM_COORDINATE_TYPE>
1
5
255

> <PUBCHEM_BONDANNOTATIONS>
16  18  8
16  21  8
17  19  8
17  20  8
18  22  8
19  23  8
20  25  8
21  24  8
22  26  8
23  27  8
24  26  8
25  27  8

$$$$

