   Color/Form
        Yellow crystalline powder
   from [1]HSDB

   Melting Point
        230-240 deg C
   from [2]HSDB

   Octanol/Water Partition Coefficient
        log Kow = 2.85 @ pH 7.4
   from [3]HSDB

   Solubilities

     * Slightly soluble in chloroform, ethanol, and methanol.
     * Insoluble in water (less than 1.0 mg/ml)

   from [4]HSDB

   Other Chemical/Physical Properties

     * Mol wt 429.93. Crystals, mp 197-199 deg C /Hydrochloride/
     * Mol wt 489.57. Crystals, mp 292-293 deg C /Methanesulfonate/

   from [5]HSDB

   Computed Properties
   Molecular Weight                  393.45886 [g/mol]
   Molecular Formula                 C[21]H[19]N[3]O[3]S
   XLogP3-AA                         4
   H-Bond Donor                      2
   H-Bond Acceptor                   6
   Rotatable Bond Count              5
   Tautomer Count                    2
   Exact Mass                        393.114712
   MonoIsotopic Mass                 393.114712
   Topological Polar Surface Area    88.7
   Heavy Atom Count                  28
   Formal Charge                     0
   Complexity                        601
   Isotope Atom Count                0
   Defined Atom Stereocenter Count   0
   Undefined Atom Stereocenter Count 0
   Defined Bond Stereocenter Count   0
   Undefined Bond Stereocenter Count 0
   Covalently-Bonded Unit Count      1
   Feature 3D Acceptor Count         4
   Feature 3D Donor Count            2
   Feature 3D Cation Count           1
   Feature 3D Ring Count             4
   Effective Rotor Count             5
   Conformer Sampling RMSD           0.8
   CID Conformer Count               [6]48

References

   1. http://toxnet.nlm.nih.gov/cgi-bin/sis/search/r?dbs+hsdb:@term+@rn+@rel+51264-14-3
   2. http://toxnet.nlm.nih.gov/cgi-bin/sis/search/r?dbs+hsdb:@term+@rn+@rel+51264-14-3
   3. http://toxnet.nlm.nih.gov/cgi-bin/sis/search/r?dbs+hsdb:@term+@rn+@rel+51264-14-3
   4. http://toxnet.nlm.nih.gov/cgi-bin/sis/search/r?dbs+hsdb:@term+@rn+@rel+51264-14-3
   5. http://toxnet.nlm.nih.gov/cgi-bin/sis/search/r?dbs+hsdb:@term+@rn+@rel+51264-14-3
   6. http://pubchem.ncbi.nlm.nih.gov/vw3d/vw3d.cgi?cid=2179
