439955
  -OEChem-07051212482D

 19 19  0     1  0  0  0  0  0999 V2000
    4.2599   -1.0005    0.0000 O   0  0  0  0  0  0  0  0  0  0  0  0
    2.5771   -1.1901    0.0000 O   0  0  0  0  0  0  0  0  0  0  0  0
    5.9427   -1.1901    0.0000 O   0  0  0  0  0  0  0  0  0  0  0  0
    3.7599    1.1901    0.0000 C   0  0  0  0  0  0  0  0  0  0  0  0
    3.1364    0.4083    0.0000 C   0  0  0  0  0  0  0  0  0  0  0  0
    4.7599    1.1901    0.0000 C   0  0  0  0  0  0  0  0  0  0  0  0
    3.3590   -0.5666    0.0000 C   0  0  3  0  0  0  0  0  0  0  0  0
    5.3834    0.4083    0.0000 C   0  0  0  0  0  0  0  0  0  0  0  0
    5.1609   -0.5666    0.0000 C   0  0  0  0  0  0  0  0  0  0  0  0
    3.8979    1.7946    0.0000 H   0  0  0  0  0  0  0  0  0  0  0  0
    3.2013    1.4591    0.0000 H   0  0  0  0  0  0  0  0  0  0  0  0
    2.7499    0.8930    0.0000 H   0  0  0  0  0  0  0  0  0  0  0  0
    2.5779    0.1393    0.0000 H   0  0  0  0  0  0  0  0  0  0  0  0
    5.3185    1.4591    0.0000 H   0  0  0  0  0  0  0  0  0  0  0  0
    4.6220    1.7946    0.0000 H   0  0  0  0  0  0  0  0  0  0  0  0
    2.5567   -0.2859    0.0000 H   0  0  0  0  0  0  0  0  0  0  0  0
    5.9420    0.1393    0.0000 H   0  0  0  0  0  0  0  0  0  0  0  0
    5.7700    0.8930    0.0000 H   0  0  0  0  0  0  0  0  0  0  0  0
    2.0000   -0.9636    0.0000 H   0  0  0  0  0  0  0  0  0  0  0  0
  1  7  1  0  0  0  0
  1  9  1  0  0  0  0
  2  7  1  0  0  0  0
  2 19  1  0  0  0  0
  3  9  2  0  0  0  0
  4  5  1  0  0  0  0
  4  6  1  0  0  0  0
  4 10  1  0  0  0  0
  4 11  1  0  0  0  0
  5  7  1  0  0  0  0
  5 12  1  0  0  0  0
  5 13  1  0  0  0  0
  6  8  1  0  0  0  0
  6 14  1  0  0  0  0
  6 15  1  0  0  0  0
  7 16  1  0  0  0  0
  8  9  1  0  0  0  0
  8 17  1  0  0  0  0
  8 18  1  0  0  0  0
M  END
> <PUBCHEM_COMPOUND_CID>
439955

> <PUBCHEM_COMPOUND_CANONICALIZED>
1

> <PUBCHEM_CACTVS_COMPLEXITY>
111

> <PUBCHEM_CACTVS_HBOND_ACCEPTOR>
3

> <PUBCHEM_CACTVS_HBOND_DONOR>
1

> <PUBCHEM_CACTVS_ROTATABLE_BOND>
0

> <PUBCHEM_CACTVS_SUBSKEYS>
AAADccBgMAAAAAAAAAAAAAAAAAAAAAAAAAAAAAAABIAAAAAAAAAAGgAACAAACACwgAMACAAABgAIAACQCAAAAAAAAAAAAAEAAAAQEBIAAAACQAAEAAAEAAGISAAAAAAAAAAAAAAAAAAAAAAAAAAAAAAAAA==

> <PUBCHEM_IUPAC_OPENEYE_NAME>
7-hydroxyoxepan-2-one

> <PUBCHEM_IUPAC_CAS_NAME>
7-hydroxy-2-oxepanone

> <PUBCHEM_IUPAC_NAME>
7-hydroxyoxepan-2-one

> <PUBCHEM_IUPAC_SYSTEMATIC_NAME>
7-oxidanyloxepan-2-one

> <PUBCHEM_IUPAC_TRADITIONAL_NAME>
7-hydroxyoxepan-2-one

> <PUBCHEM_IUPAC_INCHI>
InChI=1S/C6H10O3/c7-5-3-1-2-4-6(8)9-5/h5,7H,1-4H2

> <PUBCHEM_IUPAC_INCHIKEY>
FXIBGWAZMBWMLW-UHFFFAOYSA-N

> <PUBCHEM_XLOGP3_AA>
0.4

> <PUBCHEM_EXACT_MASS>
130.062994

> <PUBCHEM_MOLECULAR_FORMULA>
C6H10O3

> <PUBCHEM_MOLECULAR_WEIGHT>
130.1418

> <PUBCHEM_OPENEYE_CAN_SMILES>
C1CCC(=O)OC(C1)O

> <PUBCHEM_OPENEYE_ISO_SMILES>
C1CCC(=O)OC(C1)O

> <PUBCHEM_CACTVS_TPSA>
46.5

> <PUBCHEM_MONOISOTOPIC_WEIGHT>
130.062994

> <PUBCHEM_TOTAL_CHARGE>
0

> <PUBCHEM_HEAVY_ATOM_COUNT>
9

> <PUBCHEM_ATOM_DEF_STEREO_COUNT>
0

> <PUBCHEM_ATOM_UDEF_STEREO_COUNT>
1

> <PUBCHEM_BOND_DEF_STEREO_COUNT>
0

> <PUBCHEM_BOND_UDEF_STEREO_COUNT>
0

> <PUBCHEM_ISOTOPIC_ATOM_COUNT>
0

> <PUBCHEM_COMPONENT_COUNT>
1

> <PUBCHEM_CACTVS_TAUTO_COUNT>
2

> <PUBCHEM_COORDINATE_TYPE>
1
5
255

> <PUBCHEM_BONDANNOTATIONS>
7  16  3

$$$$

