   Color/Form
        COLORLESS, SLIGHTLY VISCOUS, LIQUID
   from [1]HSDB

   Odor
        ETHEREAL ODOR
   from [2]HSDB

   Boiling Point
        174.3 DEG C @ 760 MM HG
   from [3]HSDB

   Melting Point
        -4 DEG C
   from [4]HSDB

   Density/Specific Gravity
        1.3506 @ 17 DEG C/4 DEG C
   from [5]HSDB

   Solubilities

     * MISCIBLE WITH ALC, ETHER
     * SOL ETHANOL, ETHER, ACETONE
     * MISCIBLE WITH MOST ORGANIC SOLVENTS, VEGETABLE OILS
     * In water, 9.9X10+4 mg/l at 25 deg C.

   from [6]HSDB

   Spectral Properties

     * INDEX OF REFRACTION: 1.480245 @ 17 DEG C/D
     * SADTLER REF NUMBER: 17455 (IR, PRISM), V386 (NMR)
     * IR: 947 (Coblentz Society Spectral Collection)
     * NMR: 386 (Varian Associates NMR Spectra Catalogue)
     * MASS: 550 (Atlas of Mass Spectral Data, John Wiley & Sons, New
       York)

   from [7]HSDB

   Vapor Density
        4.4 (AIR= 1)
   from [8]HSDB

   Vapor Pressure
        0.75 mm Hg @ 25 deg C
   from [9]HSDB

   Computed Properties
   Molecular Weight                  128.98514 [g/mol]
   Molecular Formula                 C[3]H[6]Cl[2]O
   XLogP3-AA                         0.8
   H-Bond Donor                      1
   H-Bond Acceptor                   1
   Rotatable Bond Count              2
   Exact Mass                        127.97957
   MonoIsotopic Mass                 127.97957
   Topological Polar Surface Area    20.2
   Heavy Atom Count                  6
   Formal Charge                     0
   Complexity                        28
   Isotope Atom Count                0
   Defined Atom Stereocenter Count   0
   Undefined Atom Stereocenter Count 0
   Defined Bond Stereocenter Count   0
   Undefined Bond Stereocenter Count 0
   Covalently-Bonded Unit Count      1
   Feature 3D Acceptor Count         1
   Feature 3D Donor Count            1
   Effective Rotor Count             2
   Conformer Sampling RMSD           0.4
   CID Conformer Count               [10]9

References

   1. http://toxnet.nlm.nih.gov/cgi-bin/sis/search/r?dbs+hsdb:@term+@rn+@rel+96-23-1
   2. http://toxnet.nlm.nih.gov/cgi-bin/sis/search/r?dbs+hsdb:@term+@rn+@rel+96-23-1
   3. http://toxnet.nlm.nih.gov/cgi-bin/sis/search/r?dbs+hsdb:@term+@rn+@rel+96-23-1
   4. http://toxnet.nlm.nih.gov/cgi-bin/sis/search/r?dbs+hsdb:@term+@rn+@rel+96-23-1
   5. http://toxnet.nlm.nih.gov/cgi-bin/sis/search/r?dbs+hsdb:@term+@rn+@rel+96-23-1
   6. http://toxnet.nlm.nih.gov/cgi-bin/sis/search/r?dbs+hsdb:@term+@rn+@rel+96-23-1
   7. http://toxnet.nlm.nih.gov/cgi-bin/sis/search/r?dbs+hsdb:@term+@rn+@rel+96-23-1
   8. http://toxnet.nlm.nih.gov/cgi-bin/sis/search/r?dbs+hsdb:@term+@rn+@rel+96-23-1
   9. http://toxnet.nlm.nih.gov/cgi-bin/sis/search/r?dbs+hsdb:@term+@rn+@rel+96-23-1
  10. http://pubchem.ncbi.nlm.nih.gov/vw3d/vw3d.cgi?cid=7289
