17395716
  -OEChem-06241222522D

 47 47  0     1  0  0  0  0  0999 V2000
    7.8258   -0.4112    0.0000 S   0  0  0  0  0  0  0  0  0  0  0  0
    9.5858   -0.6900    0.0000 S   0  0  0  0  0  0  0  0  0  0  0  0
    2.7431    0.6691    0.0000 O   0  0  0  0  0  0  0  0  0  0  0  0
    3.9021    1.9563    0.0000 O   0  0  0  0  0  0  0  0  0  0  0  0
    5.9236   -1.0292    0.0000 O   0  0  0  0  0  0  0  0  0  0  0  0
    5.3884    0.6180    0.0000 N   0  0  0  0  0  0  0  0  0  0  0  0
   11.3459   -0.4112    0.0000 N   0  0  0  0  0  0  0  0  0  0  0  0
   10.0858    0.8489    0.0000 N   0  0  0  0  0  0  0  0  0  0  0  0
    9.0858    0.8489    0.0000 N   0  0  0  0  0  0  0  0  0  0  0  0
    3.2784   -0.9781    0.0000 C   0  0  0  0  0  0  0  0  0  0  0  0
    4.2294   -0.6691    0.0000 C   0  0  0  0  0  0  0  0  0  0  0  0
    4.4374    0.3090    0.0000 C   0  0  3  0  0  0  0  0  0  0  0  0
    3.0705   -1.9563    0.0000 C   0  0  0  0  0  0  0  0  0  0  0  0
    2.5352   -0.3090    0.0000 C   0  0  0  0  0  0  0  0  0  0  0  0
    3.6942    0.9781    0.0000 C   0  0  0  0  0  0  0  0  0  0  0  0
    6.1316   -0.0511    0.0000 C   0  0  0  0  0  0  0  0  0  0  0  0
    7.0826    0.2579    0.0000 C   0  0  0  0  0  0  0  0  0  0  0  0
   12.0890    0.2579    0.0000 C   0  0  0  0  0  0  0  0  0  0  0  0
   13.0401   -0.0511    0.0000 C   0  0  0  0  0  0  0  0  0  0  0  0
   11.8811    1.2361    0.0000 C   0  0  0  0  0  0  0  0  0  0  0  0
    2.0000    1.3383    0.0000 C   0  0  0  0  0  0  0  0  0  0  0  0
   10.3948   -0.1022    0.0000 C   0  0  0  0  0  0  0  0  0  0  0  0
    8.7768   -0.1022    0.0000 C   0  0  0  0  0  0  0  0  0  0  0  0
    3.4073   -0.3717    0.0000 H   0  0  0  0  0  0  0  0  0  0  0  0
    4.3157   -1.2831    0.0000 H   0  0  0  0  0  0  0  0  0  0  0  0
    4.8491   -0.6908    0.0000 H   0  0  0  0  0  0  0  0  0  0  0  0
    4.5662    0.9155    0.0000 H   0  0  0  0  0  0  0  0  0  0  0  0
    2.9501    0.1517    0.0000 H   0  0  0  0  0  0  0  0  0  0  0  0
    2.4640   -1.8274    0.0000 H   0  0  0  0  0  0  0  0  0  0  0  0
    2.9416   -2.5628    0.0000 H   0  0  0  0  0  0  0  0  0  0  0  0
    3.6769   -2.0852    0.0000 H   0  0  0  0  0  0  0  0  0  0  0  0
    2.0745    0.1058    0.0000 H   0  0  0  0  0  0  0  0  0  0  0  0
    2.1204   -0.7698    0.0000 H   0  0  0  0  0  0  0  0  0  0  0  0
    5.5173    1.2245    0.0000 H   0  0  0  0  0  0  0  0  0  0  0  0
    7.5712    0.6396    0.0000 H   0  0  0  0  0  0  0  0  0  0  0  0
    6.7915    0.8053    0.0000 H   0  0  0  0  0  0  0  0  0  0  0  0
   11.4994    0.4495    0.0000 H   0  0  0  0  0  0  0  0  0  0  0  0
   11.4748   -1.0177    0.0000 H   0  0  0  0  0  0  0  0  0  0  0  0
   12.8485   -0.6408    0.0000 H   0  0  0  0  0  0  0  0  0  0  0  0
   13.6298   -0.2427    0.0000 H   0  0  0  0  0  0  0  0  0  0  0  0
   13.2317    0.5386    0.0000 H   0  0  0  0  0  0  0  0  0  0  0  0
   12.4876    1.3650    0.0000 H   0  0  0  0  0  0  0  0  0  0  0  0
   11.7522    1.8425    0.0000 H   0  0  0  0  0  0  0  0  0  0  0  0
   11.2747    1.1072    0.0000 H   0  0  0  0  0  0  0  0  0  0  0  0
    2.4149    1.7990    0.0000 H   0  0  0  0  0  0  0  0  0  0  0  0
    1.5392    1.7531    0.0000 H   0  0  0  0  0  0  0  0  0  0  0  0
    1.5851    0.8775    0.0000 H   0  0  0  0  0  0  0  0  0  0  0  0
  1 17  1  0  0  0  0
  1 23  1  0  0  0  0
  2 22  1  0  0  0  0
  2 23  1  0  0  0  0
  3 15  1  0  0  0  0
  3 21  1  0  0  0  0
  4 15  2  0  0  0  0
  5 16  2  0  0  0  0
  6 12  1  0  0  0  0
  6 16  1  0  0  0  0
  6 34  1  0  0  0  0
  7 18  1  0  0  0  0
  7 22  1  0  0  0  0
  7 38  1  0  0  0  0
  8  9  1  0  0  0  0
  8 22  2  0  0  0  0
  9 23  2  0  0  0  0
 10 11  1  0  0  0  0
 10 13  1  0  0  0  0
 10 14  1  0  0  0  0
 10 24  1  0  0  0  0
 11 12  1  0  0  0  0
 11 25  1  0  0  0  0
 11 26  1  0  0  0  0
 12 15  1  0  0  0  0
 12 27  1  0  0  0  0
 13 29  1  0  0  0  0
 13 30  1  0  0  0  0
 13 31  1  0  0  0  0
 14 28  1  0  0  0  0
 14 32  1  0  0  0  0
 14 33  1  0  0  0  0
 16 17  1  0  0  0  0
 17 35  1  0  0  0  0
 17 36  1  0  0  0  0
 18 19  1  0  0  0  0
 18 20  1  0  0  0  0
 18 37  1  0  0  0  0
 19 39  1  0  0  0  0
 19 40  1  0  0  0  0
 19 41  1  0  0  0  0
 20 42  1  0  0  0  0
 20 43  1  0  0  0  0
 20 44  1  0  0  0  0
 21 45  1  0  0  0  0
 21 46  1  0  0  0  0
 21 47  1  0  0  0  0
M  END
> <PUBCHEM_COMPOUND_CID>
17395716

> <PUBCHEM_COMPOUND_CANONICALIZED>
1

> <PUBCHEM_CACTVS_COMPLEXITY>
396

> <PUBCHEM_CACTVS_HBOND_ACCEPTOR>
8

> <PUBCHEM_CACTVS_HBOND_DONOR>
2

> <PUBCHEM_CACTVS_ROTATABLE_BOND>
10

> <PUBCHEM_CACTVS_SUBSKEYS>
AAADceBzsABgAAAAAAAAAAAAAAAAAWAAAAAAAAAAAAAAAAABgAAAHgQYAAAADSjFwAaDGALABAguAAGQOAAQAQJAABkFAIGIAACCABIAiCAFAAAUFgKQAACIAAAMAAAAAAAAAAAAAAAAAAAAAAAAAAAAAA==

> <PUBCHEM_IUPAC_OPENEYE_NAME>
methyl 2-[[2-[[5-(isopropylamino)-1,3,4-thiadiazol-2-yl]sulfanyl]acetyl]amino]-4-methyl-pentanoate

> <PUBCHEM_IUPAC_CAS_NAME>
4-methyl-2-[[1-oxo-2-[[5-(propan-2-ylamino)-1,3,4-thiadiazol-2-yl]thio]ethyl]amino]pentanoic acid methyl ester

> <PUBCHEM_IUPAC_NAME>
methyl 4-methyl-2-[[2-[[5-(propan-2-ylamino)-1,3,4-thiadiazol-2-yl]sulfanyl]acetyl]amino]pentanoate

> <PUBCHEM_IUPAC_SYSTEMATIC_NAME>
methyl 4-methyl-2-[2-[[5-(propan-2-ylamino)-1,3,4-thiadiazol-2-yl]sulfanyl]ethanoylamino]pentanoate

> <PUBCHEM_IUPAC_TRADITIONAL_NAME>
2-[[2-[[5-(isopropylamino)-1,3,4-thiadiazol-2-yl]thio]acetyl]amino]-4-methyl-valeric acid methyl ester

> <PUBCHEM_IUPAC_INCHI>
InChI=1S/C14H24N4O3S2/c1-8(2)6-10(12(20)21-5)16-11(19)7-22-14-18-17-13(23-14)15-9(3)4/h8-10H,6-7H2,1-5H3,(H,15,17)(H,16,19)

> <PUBCHEM_IUPAC_INCHIKEY>
AONRFUCQHSAZKA-UHFFFAOYSA-N

> <PUBCHEM_XLOGP3_AA>
3.3

> <PUBCHEM_EXACT_MASS>
360.128983

> <PUBCHEM_MOLECULAR_FORMULA>
C14H24N4O3S2

> <PUBCHEM_MOLECULAR_WEIGHT>
360.49536

> <PUBCHEM_OPENEYE_CAN_SMILES>
CC(C)CC(C(=O)OC)NC(=O)CSC1=NN=C(S1)NC(C)C

> <PUBCHEM_OPENEYE_ISO_SMILES>
CC(C)CC(C(=O)OC)NC(=O)CSC1=NN=C(S1)NC(C)C

> <PUBCHEM_CACTVS_TPSA>
147

> <PUBCHEM_MONOISOTOPIC_WEIGHT>
360.128983

> <PUBCHEM_TOTAL_CHARGE>
0

> <PUBCHEM_HEAVY_ATOM_COUNT>
23

> <PUBCHEM_ATOM_DEF_STEREO_COUNT>
0

> <PUBCHEM_ATOM_UDEF_STEREO_COUNT>
1

> <PUBCHEM_BOND_DEF_STEREO_COUNT>
0

> <PUBCHEM_BOND_UDEF_STEREO_COUNT>
0

> <PUBCHEM_ISOTOPIC_ATOM_COUNT>
0

> <PUBCHEM_COMPONENT_COUNT>
1

> <PUBCHEM_CACTVS_TAUTO_COUNT>
4

> <PUBCHEM_COORDINATE_TYPE>
1
5
255

> <PUBCHEM_BONDANNOTATIONS>
12  11  3
2  22  8
2  23  8
8  22  8
8  9  8
9  23  8

$$$$

