442520
  -OEChem-07051212582D

 34 36  0     1  0  0  0  0  0999 V2000
    5.4920    0.9259    0.0000 O   0  0  0  0  0  0  0  0  0  0  0  0
    5.4804   -2.1433    0.0000 O   0  0  0  0  0  0  0  0  0  0  0  0
    3.7320   -2.1087    0.0000 O   0  0  0  0  0  0  0  0  0  0  0  0
    2.0000    0.8913    0.0000 O   0  0  0  0  0  0  0  0  0  0  0  0
    6.3981    0.4121    0.0000 C   0  0  1  0  0  0  0  0  0  0  0  0
    6.3981   -0.6296    0.0000 C   0  0  0  0  0  0  0  0  0  0  0  0
    4.5981   -0.6087    0.0000 C   0  0  0  0  0  0  0  0  0  0  0  0
    4.5981    0.3913    0.0000 C   0  0  0  0  0  0  0  0  0  0  0  0
    5.4920   -1.1434    0.0000 C   0  0  0  0  0  0  0  0  0  0  0  0
    7.2622    0.9154    0.0000 C   0  0  0  0  0  0  0  0  0  0  0  0
    3.7320   -1.1087    0.0000 C   0  0  0  0  0  0  0  0  0  0  0  0
    2.8660   -0.6087    0.0000 C   0  0  0  0  0  0  0  0  0  0  0  0
    3.7320    0.8913    0.0000 C   0  0  0  0  0  0  0  0  0  0  0  0
    2.8660    0.3913    0.0000 C   0  0  0  0  0  0  0  0  0  0  0  0
    8.1301    0.4188    0.0000 C   0  0  0  0  0  0  0  0  0  0  0  0
    7.2583    1.9154    0.0000 C   0  0  0  0  0  0  0  0  0  0  0  0
    2.0000   -1.1087    0.0000 C   0  0  0  0  0  0  0  0  0  0  0  0
    8.9942    0.9221    0.0000 C   0  0  0  0  0  0  0  0  0  0  0  0
    8.1224    2.4187    0.0000 C   0  0  0  0  0  0  0  0  0  0  0  0
    8.9904    1.9221    0.0000 C   0  0  0  0  0  0  0  0  0  0  0  0
    6.9356    0.1031    0.0000 H   0  0  0  0  0  0  0  0  0  0  0  0
    6.6071   -1.2132    0.0000 H   0  0  0  0  0  0  0  0  0  0  0  0
    7.0089   -0.5235    0.0000 H   0  0  0  0  0  0  0  0  0  0  0  0
    3.7320    1.5113    0.0000 H   0  0  0  0  0  0  0  0  0  0  0  0
    8.1325   -0.2012    0.0000 H   0  0  0  0  0  0  0  0  0  0  0  0
    6.7202    2.2233    0.0000 H   0  0  0  0  0  0  0  0  0  0  0  0
    1.6900   -0.5718    0.0000 H   0  0  0  0  0  0  0  0  0  0  0  0
    1.4631   -1.4187    0.0000 H   0  0  0  0  0  0  0  0  0  0  0  0
    2.3100   -1.6457    0.0000 H   0  0  0  0  0  0  0  0  0  0  0  0
    9.5323    0.6142    0.0000 H   0  0  0  0  0  0  0  0  0  0  0  0
    8.1200    3.0387    0.0000 H   0  0  0  0  0  0  0  0  0  0  0  0
    9.5261    2.2342    0.0000 H   0  0  0  0  0  0  0  0  0  0  0  0
    3.1951   -2.4187    0.0000 H   0  0  0  0  0  0  0  0  0  0  0  0
    2.0000    1.5113    0.0000 H   0  0  0  0  0  0  0  0  0  0  0  0
  1  5  1  0  0  0  0
  1  8  1  0  0  0  0
  2  9  2  0  0  0  0
  3 11  1  0  0  0  0
  3 33  1  0  0  0  0
  4 14  1  0  0  0  0
  4 34  1  0  0  0  0
  5  6  1  0  0  0  0
  5 10  1  6  0  0  0
  5 21  1  0  0  0  0
  6  9  1  0  0  0  0
  6 22  1  0  0  0  0
  6 23  1  0  0  0  0
  7  8  1  0  0  0  0
  7  9  1  0  0  0  0
  7 11  2  0  0  0  0
  8 13  2  0  0  0  0
 10 15  2  0  0  0  0
 10 16  1  0  0  0  0
 11 12  1  0  0  0  0
 12 14  2  0  0  0  0
 12 17  1  0  0  0  0
 13 14  1  0  0  0  0
 13 24  1  0  0  0  0
 15 18  1  0  0  0  0
 15 25  1  0  0  0  0
 16 19  2  0  0  0  0
 16 26  1  0  0  0  0
 17 27  1  0  0  0  0
 17 28  1  0  0  0  0
 17 29  1  0  0  0  0
 18 20  2  0  0  0  0
 18 30  1  0  0  0  0
 19 20  1  0  0  0  0
 19 31  1  0  0  0  0
 20 32  1  0  0  0  0
M  END
> <PUBCHEM_COMPOUND_CID>
442520

> <PUBCHEM_COMPOUND_CANONICALIZED>
1

> <PUBCHEM_CACTVS_COMPLEXITY>
364

> <PUBCHEM_CACTVS_HBOND_ACCEPTOR>
4

> <PUBCHEM_CACTVS_HBOND_DONOR>
2

> <PUBCHEM_CACTVS_ROTATABLE_BOND>
1

> <PUBCHEM_CACTVS_SUBSKEYS>
AAADccB4OAAAAAAAAAAAAAAAAAAAAAAAAAA0YIAAAAAAAACRQAAAGgAACAAADBSgmAIyBoAABgCIAqBSAAACCAAkIAAIiAEGCMgMJzaGNRqCeWCl4BUIuQeI7OzOIAACCAAIAABAAAQQABAAAAAAAAAAAA==

> <PUBCHEM_IUPAC_OPENEYE_NAME>
(2S)-5,7-dihydroxy-6-methyl-2-phenyl-chroman-4-one

> <PUBCHEM_IUPAC_CAS_NAME>
(2S)-5,7-dihydroxy-6-methyl-2-phenyl-3,4-dihydro-2H-1-benzopyran-4-one

> <PUBCHEM_IUPAC_NAME>
(2S)-5,7-dihydroxy-6-methyl-2-phenyl-2,3-dihydrochromen-4-one

> <PUBCHEM_IUPAC_SYSTEMATIC_NAME>
(2S)-6-methyl-5,7-bis(oxidanyl)-2-phenyl-2,3-dihydrochromen-4-one

> <PUBCHEM_IUPAC_TRADITIONAL_NAME>
(2S)-5,7-dihydroxy-6-methyl-2-phenyl-chroman-4-one

> <PUBCHEM_IUPAC_INCHI>
InChI=1S/C16H14O4/c1-9-11(17)7-14-15(16(9)19)12(18)8-13(20-14)10-5-3-2-4-6-10/h2-7,13,17,19H,8H2,1H3/t13-/m0/s1

> <PUBCHEM_IUPAC_INCHIKEY>
INBPQAJYHSJVRY-ZDUSSCGKSA-N

> <PUBCHEM_XLOGP3_AA>
3.1

> <PUBCHEM_EXACT_MASS>
270.089209

> <PUBCHEM_MOLECULAR_FORMULA>
C16H14O4

> <PUBCHEM_MOLECULAR_WEIGHT>
270.27996

> <PUBCHEM_OPENEYE_CAN_SMILES>
CC1=C(C=C2C(=C1O)C(=O)CC(O2)C3=CC=CC=C3)O

> <PUBCHEM_OPENEYE_ISO_SMILES>
CC1=C(C=C2C(=C1O)C(=O)C[C@H](O2)C3=CC=CC=C3)O

> <PUBCHEM_CACTVS_TPSA>
66.8

> <PUBCHEM_MONOISOTOPIC_WEIGHT>
270.089209

> <PUBCHEM_TOTAL_CHARGE>
0

> <PUBCHEM_HEAVY_ATOM_COUNT>
20

> <PUBCHEM_ATOM_DEF_STEREO_COUNT>
1

> <PUBCHEM_ATOM_UDEF_STEREO_COUNT>
0

> <PUBCHEM_BOND_DEF_STEREO_COUNT>
0

> <PUBCHEM_BOND_UDEF_STEREO_COUNT>
0

> <PUBCHEM_ISOTOPIC_ATOM_COUNT>
0

> <PUBCHEM_COMPONENT_COUNT>
1

> <PUBCHEM_CACTVS_TAUTO_COUNT>
21

> <PUBCHEM_COORDINATE_TYPE>
1
5
255

> <PUBCHEM_BONDANNOTATIONS>
10  15  8
10  16  8
11  12  8
12  14  8
13  14  8
15  18  8
16  19  8
18  20  8
19  20  8
5  10  6
7  11  8
7  8  8
8  13  8

$$$$

