9827618
  -OEChem-07051213152D

 84 88  0     1  0  0  0  0  0999 V2000
    7.9506   -2.6746    0.0000 O   0  0  0  0  0  0  0  0  0  0  0  0
    6.1847   -3.7124    0.0000 O   0  0  0  0  0  0  0  0  0  0  0  0
    4.3472   -3.7413    0.0000 O   0  0  0  0  0  0  0  0  0  0  0  0
    9.1857   -1.8984    0.0000 O   0  0  0  0  0  0  0  0  0  0  0  0
    2.5357   -2.6955    0.0000 O   0  0  0  0  0  0  0  0  0  0  0  0
   10.4749    2.7688    0.0000 O   0  0  0  0  0  0  0  0  0  0  0  0
   11.7640    3.9256    0.0000 O   0  0  0  0  0  0  0  0  0  0  0  0
    6.1968   -0.6432    0.0000 C   0  0  1  0  0  0  0  0  0  0  0  0
    7.0628   -1.1432    0.0000 C   0  0  2  0  0  0  0  0  0  0  0  0
    7.9288    0.3568    0.0000 C   0  0  1  0  0  0  0  0  0  0  0  0
    5.2868   -1.1500    0.0000 C   0  0  2  0  0  0  0  0  0  0  0  0
    7.9288   -0.6432    0.0000 C   0  0  2  0  0  0  0  0  0  0  0  0
    5.2787   -2.1916    0.0000 C   0  0  1  0  0  0  0  0  0  0  0  0
    8.8750    0.6616    0.0000 C   0  0  2  0  0  0  0  0  0  0  0  0
    6.1968    0.3568    0.0000 C   0  0  0  0  0  0  0  0  0  0  0  0
    7.0628    0.8568    0.0000 C   0  0  0  0  0  0  0  0  0  0  0  0
    7.0789   -2.1847    0.0000 C   0  0  2  0  0  0  0  0  0  0  0  0
    6.1808   -2.7124    0.0000 C   0  0  2  0  0  0  0  0  0  0  0  0
    4.3599   -0.5859    0.0000 C   0  0  0  0  0  0  0  0  0  0  0  0
    8.8750   -0.9479    0.0000 C   0  0  0  0  0  0  0  0  0  0  0  0
    9.4586   -0.1432    0.0000 C   0  0  0  0  0  0  0  0  0  0  0  0
    4.3433   -2.7414    0.0000 C   0  0  2  0  0  0  0  0  0  0  0  0
    9.1857    1.6121    0.0000 C   0  0  1  0  0  0  0  0  0  0  0  0
    7.9288    1.3568    0.0000 C   0  0  0  0  0  0  0  0  0  0  0  0
    5.2945   -0.1501    0.0000 C   0  0  0  0  0  0  0  0  0  0  0  0
    3.4120   -1.1139    0.0000 C   0  0  0  0  0  0  0  0  0  0  0  0
    3.4037   -2.1989    0.0000 C   0  0  1  0  0  0  0  0  0  0  0  0
   10.1642    1.8183    0.0000 C   0  0  1  0  0  0  0  0  0  0  0  0
    8.5179    2.3564    0.0000 C   0  0  0  0  0  0  0  0  0  0  0  0
   10.8321    1.0740    0.0000 C   0  0  0  0  0  0  0  0  0  0  0  0
   11.8106    1.2802    0.0000 C   0  0  2  0  0  0  0  0  0  0  0  0
   12.1212    2.2307    0.0000 C   0  0  0  0  0  0  0  0  0  0  0  0
   11.4534    2.9750    0.0000 C   0  0  3  0  0  0  0  0  0  0  0  0
   12.4784    0.5359    0.0000 C   0  0  0  0  0  0  0  0  0  0  0  0
   13.4569    0.7421    0.0000 C   0  0  0  0  0  0  0  0  0  0  0  0
   12.1677   -0.4146    0.0000 C   0  0  0  0  0  0  0  0  0  0  0  0
    6.9329   -0.2182    0.0000 H   0  0  0  0  0  0  0  0  0  0  0  0
    7.8022   -1.5625    0.0000 H   0  0  0  0  0  0  0  0  0  0  0  0
    8.0188   -1.4884    0.0000 H   0  0  0  0  0  0  0  0  0  0  0  0
    5.2820   -3.0416    0.0000 H   0  0  0  0  0  0  0  0  0  0  0  0
    9.7148    0.7934    0.0000 H   0  0  0  0  0  0  0  0  0  0  0  0
    5.9847    0.9394    0.0000 H   0  0  0  0  0  0  0  0  0  0  0  0
    5.5862    0.2492    0.0000 H   0  0  0  0  0  0  0  0  0  0  0  0
    7.4613    1.3318    0.0000 H   0  0  0  0  0  0  0  0  0  0  0  0
    6.6643    1.3318    0.0000 H   0  0  0  0  0  0  0  0  0  0  0  0
    7.6116   -1.8675    0.0000 H   0  0  0  0  0  0  0  0  0  0  0  0
    6.7195   -3.0193    0.0000 H   0  0  0  0  0  0  0  0  0  0  0  0
    4.7681   -0.1193    0.0000 H   0  0  0  0  0  0  0  0  0  0  0  0
    3.9700   -0.1039    0.0000 H   0  0  0  0  0  0  0  0  0  0  0  0
    9.9195   -0.5579    0.0000 H   0  0  0  0  0  0  0  0  0  0  0  0
    9.9195    0.2716    0.0000 H   0  0  0  0  0  0  0  0  0  0  0  0
    3.8070   -3.0524    0.0000 H   0  0  0  0  0  0  0  0  0  0  0  0
    9.3783    2.2014    0.0000 H   0  0  0  0  0  0  0  0  0  0  0  0
    8.5488    1.3568    0.0000 H   0  0  0  0  0  0  0  0  0  0  0  0
    7.9288    1.9768    0.0000 H   0  0  0  0  0  0  0  0  0  0  0  0
    7.3088    1.3568    0.0000 H   0  0  0  0  0  0  0  0  0  0  0  0
    5.9145   -0.1548    0.0000 H   0  0  0  0  0  0  0  0  0  0  0  0
    5.2993    0.4699    0.0000 H   0  0  0  0  0  0  0  0  0  0  0  0
    4.6745   -0.1453    0.0000 H   0  0  0  0  0  0  0  0  0  0  0  0
    3.2075   -0.5286    0.0000 H   0  0  0  0  0  0  0  0  0  0  0  0
    2.8004   -1.2153    0.0000 H   0  0  0  0  0  0  0  0  0  0  0  0
    3.4025   -2.8188    0.0000 H   0  0  0  0  0  0  0  0  0  0  0  0
    9.5965    2.4510    0.0000 H   0  0  0  0  0  0  0  0  0  0  0  0
    7.9578   -3.2946    0.0000 H   0  0  0  0  0  0  0  0  0  0  0  0
    6.7228   -4.0204    0.0000 H   0  0  0  0  0  0  0  0  0  0  0  0
    8.9793    2.7704    0.0000 H   0  0  0  0  0  0  0  0  0  0  0  0
    8.1038    2.8178    0.0000 H   0  0  0  0  0  0  0  0  0  0  0  0
    8.0564    1.9423    0.0000 H   0  0  0  0  0  0  0  0  0  0  0  0
    3.8114   -4.0534    0.0000 H   0  0  0  0  0  0  0  0  0  0  0  0
   10.3057    0.7464    0.0000 H   0  0  0  0  0  0  0  0  0  0  0  0
   11.0633    0.4987    0.0000 H   0  0  0  0  0  0  0  0  0  0  0  0
    2.0000   -2.3834    0.0000 H   0  0  0  0  0  0  0  0  0  0  0  0
   11.6179    0.6909    0.0000 H   0  0  0  0  0  0  0  0  0  0  0  0
   12.6681    1.9387    0.0000 H   0  0  0  0  0  0  0  0  0  0  0  0
   12.5038    2.7186    0.0000 H   0  0  0  0  0  0  0  0  0  0  0  0
   12.2851    3.1503    0.0000 H   0  0  0  0  0  0  0  0  0  0  0  0
   12.6710    1.1252    0.0000 H   0  0  0  0  0  0  0  0  0  0  0  0
   13.5848    0.1355    0.0000 H   0  0  0  0  0  0  0  0  0  0  0  0
   14.0636    0.8700    0.0000 H   0  0  0  0  0  0  0  0  0  0  0  0
   13.3291    1.3488    0.0000 H   0  0  0  0  0  0  0  0  0  0  0  0
   11.5784   -0.2220    0.0000 H   0  0  0  0  0  0  0  0  0  0  0  0
   11.9751   -1.0039    0.0000 H   0  0  0  0  0  0  0  0  0  0  0  0
   12.7571   -0.6072    0.0000 H   0  0  0  0  0  0  0  0  0  0  0  0
   12.3707    4.0534    0.0000 H   0  0  0  0  0  0  0  0  0  0  0  0
 17  1  1  1  0  0  0
  1 64  1  0  0  0  0
 18  2  1  6  0  0  0
  2 65  1  0  0  0  0
 22  3  1  1  0  0  0
  3 69  1  0  0  0  0
  4 20  2  0  0  0  0
 27  5  1  6  0  0  0
  5 72  1  0  0  0  0
  6 28  1  0  0  0  0
  6 33  1  0  0  0  0
  7 33  1  0  0  0  0
  7 84  1  0  0  0  0
  8  9  1  0  0  0  0
  8 11  1  0  0  0  0
  8 15  1  0  0  0  0
  8 37  1  6  0  0  0
  9 12  1  0  0  0  0
  9 17  1  0  0  0  0
  9 38  1  1  0  0  0
 10 12  1  0  0  0  0
 10 14  1  0  0  0  0
 10 16  1  0  0  0  0
 10 24  1  1  0  0  0
 11 13  1  0  0  0  0
 11 19  1  0  0  0  0
 11 25  1  1  0  0  0
 12 20  1  0  0  0  0
 12 39  1  1  0  0  0
 13 18  1  0  0  0  0
 13 22  1  0  0  0  0
 13 40  1  6  0  0  0
 14 21  1  0  0  0  0
 14 23  1  0  0  0  0
 14 41  1  6  0  0  0
 15 16  1  0  0  0  0
 15 42  1  0  0  0  0
 15 43  1  0  0  0  0
 16 44  1  0  0  0  0
 16 45  1  0  0  0  0
 17 18  1  0  0  0  0
 17 46  1  0  0  0  0
 18 47  1  0  0  0  0
 19 26  1  0  0  0  0
 19 48  1  0  0  0  0
 19 49  1  0  0  0  0
 20 21  1  0  0  0  0
 21 50  1  0  0  0  0
 21 51  1  0  0  0  0
 22 27  1  0  0  0  0
 22 52  1  0  0  0  0
 23 28  1  0  0  0  0
 23 29  1  6  0  0  0
 23 53  1  0  0  0  0
 24 54  1  0  0  0  0
 24 55  1  0  0  0  0
 24 56  1  0  0  0  0
 25 57  1  0  0  0  0
 25 58  1  0  0  0  0
 25 59  1  0  0  0  0
 26 27  1  0  0  0  0
 26 60  1  0  0  0  0
 26 61  1  0  0  0  0
 27 62  1  0  0  0  0
 28 30  1  0  0  0  0
 28 63  1  1  0  0  0
 29 66  1  0  0  0  0
 29 67  1  0  0  0  0
 29 68  1  0  0  0  0
 30 31  1  0  0  0  0
 30 70  1  0  0  0  0
 30 71  1  0  0  0  0
 31 32  1  0  0  0  0
 31 34  1  6  0  0  0
 31 73  1  0  0  0  0
 32 33  1  0  0  0  0
 32 74  1  0  0  0  0
 32 75  1  0  0  0  0
 33 76  1  0  0  0  0
 34 35  1  0  0  0  0
 34 36  1  0  0  0  0
 34 77  1  0  0  0  0
 35 78  1  0  0  0  0
 35 79  1  0  0  0  0
 35 80  1  0  0  0  0
 36 81  1  0  0  0  0
 36 82  1  0  0  0  0
 36 83  1  0  0  0  0
M  END
> <PUBCHEM_COMPOUND_CID>
9827618

> <PUBCHEM_COMPOUND_CANONICALIZED>
1

> <PUBCHEM_CACTVS_COMPLEXITY>
848

> <PUBCHEM_CACTVS_HBOND_ACCEPTOR>
7

> <PUBCHEM_CACTVS_HBOND_DONOR>
5

> <PUBCHEM_CACTVS_ROTATABLE_BOND>
3

> <PUBCHEM_CACTVS_SUBSKEYS>
AAADcfB4OAAAAAAAAAAAAAAAAAAAAYAAAAA0YMEAAAAAAGDAAAAAGgAACAAADxSwgAMCCAAABgAIAIAQAAAAAAAAAAAAAAEAAAAREBIAAAACQAAFAAAFAAHK7PTPgAAAAAAAAADAAAYAADCAAQAACAAAAA==

> <PUBCHEM_IUPAC_OPENEYE_NAME>
(3R,4R,5R,6R,7R,8R,9S,10R,13R,14R,17R)-3,4,6,7-tetrahydroxy-17-[(1S)-1-[(2R,4R)-6-hydroxy-4-isopropyl-tetrahydropyran-2-yl]ethyl]-10,13-dimethyl-1,2,3,4,5,6,7,8,9,11,12,14,16,17-tetradecahydrocyclopenta[a]phenanthren-15-one

> <PUBCHEM_IUPAC_CAS_NAME>
(3R,4R,5R,6R,7R,8R,9S,10R,13R,14R,17R)-3,4,6,7-tetrahydroxy-17-[(1S)-1-[(2R,4R)-6-hydroxy-4-propan-2-yl-2-oxanyl]ethyl]-10,13-dimethyl-1,2,3,4,5,6,7,8,9,11,12,14,16,17-tetradecahydrocyclopenta[a]phenanthren-15-one

> <PUBCHEM_IUPAC_NAME>
(3R,4R,5R,6R,7R,8R,9S,10R,13R,14R,17R)-3,4,6,7-tetrahydroxy-17-[(1S)-1-[(2R,4R)-6-hydroxy-4-propan-2-yloxan-2-yl]ethyl]-10,13-dimethyl-1,2,3,4,5,6,7,8,9,11,12,14,16,17-tetradecahydrocyclopenta[a]phenanthren-15-one

> <PUBCHEM_IUPAC_SYSTEMATIC_NAME>
(3R,4R,5R,6R,7R,8R,9S,10R,13R,14R,17R)-10,13-dimethyl-3,4,6,7-tetrakis(oxidanyl)-17-[(1S)-1-[(2R,4R)-6-oxidanyl-4-propan-2-yl-oxan-2-yl]ethyl]-1,2,3,4,5,6,7,8,9,11,12,14,16,17-tetradecahydrocyclopenta[a]phenanthren-15-one

> <PUBCHEM_IUPAC_TRADITIONAL_NAME>
(3R,4R,5R,6R,7R,8R,9S,10R,13R,14R,17R)-3,4,6,7-tetrahydroxy-17-[(1S)-1-[(2R,4R)-6-hydroxy-4-isopropyl-tetrahydropyran-2-yl]ethyl]-10,13-dimethyl-1,2,3,4,5,6,7,8,9,11,12,14,16,17-tetradecahydrocyclopenta[a]phenanthren-15-one

> <PUBCHEM_IUPAC_INCHI>
InChI=1S/C29H48O7/c1-13(2)15-10-20(36-21(32)11-15)14(3)17-12-19(31)23-22-16(6-8-29(17,23)5)28(4)9-7-18(30)25(33)24(28)27(35)26(22)34/h13-18,20-27,30,32-35H,6-12H2,1-5H3/t14-,15+,16-,17+,18+,20+,21?,22+,23+,24+,25-,26+,27+,28+,29+/m0/s1

> <PUBCHEM_IUPAC_INCHIKEY>
IRHVLQMEQPABHG-GHFTVTFTSA-N

> <PUBCHEM_XLOGP3_AA>
3

> <PUBCHEM_EXACT_MASS>
508.340004

> <PUBCHEM_MOLECULAR_FORMULA>
C29H48O7

> <PUBCHEM_MOLECULAR_WEIGHT>
508.68722

> <PUBCHEM_OPENEYE_CAN_SMILES>
CC(C)C1CC(OC(C1)O)C(C)C2CC(=O)C3C2(CCC4C3C(C(C5C4(CCC(C5O)O)C)O)O)C

> <PUBCHEM_OPENEYE_ISO_SMILES>
C[C@H]([C@H]1C[C@H](CC(O1)O)C(C)C)[C@H]2CC(=O)[C@H]3[C@@]2(CC[C@H]4[C@H]3[C@H]([C@@H]([C@@H]5[C@@]4(CC[C@H]([C@@H]5O)O)C)O)O)C

> <PUBCHEM_CACTVS_TPSA>
127

> <PUBCHEM_MONOISOTOPIC_WEIGHT>
508.340004

> <PUBCHEM_TOTAL_CHARGE>
0

> <PUBCHEM_HEAVY_ATOM_COUNT>
36

> <PUBCHEM_ATOM_DEF_STEREO_COUNT>
14

> <PUBCHEM_ATOM_UDEF_STEREO_COUNT>
1

> <PUBCHEM_BOND_DEF_STEREO_COUNT>
0

> <PUBCHEM_BOND_UDEF_STEREO_COUNT>
0

> <PUBCHEM_ISOTOPIC_ATOM_COUNT>
0

> <PUBCHEM_COMPONENT_COUNT>
1

> <PUBCHEM_CACTVS_TAUTO_COUNT>
3

> <PUBCHEM_COORDINATE_TYPE>
1
5
255

> <PUBCHEM_BONDANNOTATIONS>
17  1  5
10  24  5
11  25  5
12  39  5
13  40  6
14  41  6
18  2  6
23  29  6
28  63  5
22  3  5
31  34  6
33  76  3
27  5  6
8  37  6
9  38  5

$$$$

