235500
  -OEChem-07051213062D

 54 58  0     1  0  0  0  0  0999 V2000
    5.2090   -2.3609    0.0000 O   0  0  0  0  0  0  0  0  0  0  0  0
    3.4203   -4.4233    0.0000 O   0  0  0  0  0  0  0  0  0  0  0  0
    2.0000    3.2765    0.0000 O   0  0  0  0  0  0  0  0  0  0  0  0
    3.4324   -1.3540    0.0000 C   0  0  1  0  0  0  0  0  0  0  0  0
    4.2984   -1.8540    0.0000 C   0  0  2  0  0  0  0  0  0  0  0  0
    3.4324   -0.3540    0.0000 C   0  0  2  0  0  0  0  0  0  0  0  0
    4.2984    0.1460    0.0000 C   0  0  2  0  0  0  0  0  0  0  0  0
    4.3145    1.1875    0.0000 C   0  0  1  0  0  0  0  0  0  0  0  0
    3.4164    1.7152    0.0000 C   0  0  2  0  0  0  0  0  0  0  0  0
    4.3145   -2.8956    0.0000 C   0  0  2  0  0  0  0  0  0  0  0  0
    5.1645   -1.3540    0.0000 C   0  0  0  0  0  0  0  0  0  0  0  0
    5.1645   -0.3540    0.0000 C   0  0  0  0  0  0  0  0  0  0  0  0
    2.5224    0.1528    0.0000 C   0  0  0  0  0  0  0  0  0  0  0  0
    2.5224   -1.8609    0.0000 C   0  0  0  0  0  0  0  0  0  0  0  0
    2.5144    1.1944    0.0000 C   0  0  0  0  0  0  0  0  0  0  0  0
    3.6422    2.7258    0.0000 C   0  0  2  0  0  0  0  0  0  0  0  0
    5.0875    1.8764    0.0000 C   0  0  0  0  0  0  0  0  0  0  0  0
    2.5664   -0.8540    0.0000 C   0  0  0  0  0  0  0  0  0  0  0  0
    4.6728    2.8252    0.0000 C   0  0  0  0  0  0  0  0  0  0  0  0
    2.5144   -2.9025    0.0000 C   0  0  0  0  0  0  0  0  0  0  0  0
    3.4164   -3.4233    0.0000 C   0  0  0  0  0  0  0  0  0  0  0  0
    2.5543    2.2219    0.0000 C   0  0  0  0  0  0  0  0  0  0  0  0
    2.9801    3.4752    0.0000 C   0  0  0  0  0  0  0  0  0  0  0  0
    3.2980    4.4233    0.0000 C   0  0  0  0  0  0  0  0  0  0  0  0
    2.6996   -0.7847    0.0000 H   0  0  0  0  0  0  0  0  0  0  0  0
    5.0378    0.5653    0.0000 H   0  0  0  0  0  0  0  0  0  0  0  0
    5.0874    0.8338    0.0000 H   0  0  0  0  0  0  0  0  0  0  0  0
    4.7479   -3.6268    0.0000 H   0  0  0  0  0  0  0  0  0  0  0  0
    5.3765   -1.9367    0.0000 H   0  0  0  0  0  0  0  0  0  0  0  0
    5.7750   -1.2464    0.0000 H   0  0  0  0  0  0  0  0  0  0  0  0
    5.7750   -0.4617    0.0000 H   0  0  0  0  0  0  0  0  0  0  0  0
    5.3765    0.2286    0.0000 H   0  0  0  0  0  0  0  0  0  0  0  0
    1.9107    0.2542    0.0000 H   0  0  0  0  0  0  0  0  0  0  0  0
    2.3178   -0.4325    0.0000 H   0  0  0  0  0  0  0  0  0  0  0  0
    2.3178   -1.2756    0.0000 H   0  0  0  0  0  0  0  0  0  0  0  0
    1.9107   -1.9623    0.0000 H   0  0  0  0  0  0  0  0  0  0  0  0
    2.3008    1.7765    0.0000 H   0  0  0  0  0  0  0  0  0  0  0  0
    1.9043    1.0836    0.0000 H   0  0  0  0  0  0  0  0  0  0  0  0
    3.8695    3.3026    0.0000 H   0  0  0  0  0  0  0  0  0  0  0  0
    5.4491    1.3727    0.0000 H   0  0  0  0  0  0  0  0  0  0  0  0
    5.6264    2.1830    0.0000 H   0  0  0  0  0  0  0  0  0  0  0  0
    2.8764   -0.3171    0.0000 H   0  0  0  0  0  0  0  0  0  0  0  0
    2.0294   -0.5440    0.0000 H   0  0  0  0  0  0  0  0  0  0  0  0
    2.2564   -1.3910    0.0000 H   0  0  0  0  0  0  0  0  0  0  0  0
    5.2639    3.0124    0.0000 H   0  0  0  0  0  0  0  0  0  0  0  0
    4.5488    3.4326    0.0000 H   0  0  0  0  0  0  0  0  0  0  0  0
    1.9043   -2.7917    0.0000 H   0  0  0  0  0  0  0  0  0  0  0  0
    2.3008   -3.4846    0.0000 H   0  0  0  0  0  0  0  0  0  0  0  0
    2.8684    2.7564    0.0000 H   0  0  0  0  0  0  0  0  0  0  0  0
    2.0198    2.5360    0.0000 H   0  0  0  0  0  0  0  0  0  0  0  0
    2.2402    1.6873    0.0000 H   0  0  0  0  0  0  0  0  0  0  0  0
    3.8859    4.2261    0.0000 H   0  0  0  0  0  0  0  0  0  0  0  0
    3.4952    5.0111    0.0000 H   0  0  0  0  0  0  0  0  0  0  0  0
    2.7102    4.6204    0.0000 H   0  0  0  0  0  0  0  0  0  0  0  0
  5  1  1  1  0  0  0
  1 10  1  0  0  0  0
  2 21  2  0  0  0  0
  3 23  2  0  0  0  0
  4  5  1  0  0  0  0
  4  6  1  0  0  0  0
  4 14  1  0  0  0  0
  4 18  1  1  0  0  0
  5 10  1  0  0  0  0
  5 11  1  0  0  0  0
  6  7  1  0  0  0  0
  6 13  1  0  0  0  0
  6 25  1  6  0  0  0
  7  8  1  0  0  0  0
  7 12  1  0  0  0  0
  7 26  1  1  0  0  0
  8  9  1  0  0  0  0
  8 17  1  0  0  0  0
  8 27  1  6  0  0  0
  9 15  1  0  0  0  0
  9 16  1  0  0  0  0
  9 22  1  1  0  0  0
 10 21  1  0  0  0  0
 10 28  1  6  0  0  0
 11 12  1  0  0  0  0
 11 29  1  0  0  0  0
 11 30  1  0  0  0  0
 12 31  1  0  0  0  0
 12 32  1  0  0  0  0
 13 15  1  0  0  0  0
 13 33  1  0  0  0  0
 13 34  1  0  0  0  0
 14 20  1  0  0  0  0
 14 35  1  0  0  0  0
 14 36  1  0  0  0  0
 15 37  1  0  0  0  0
 15 38  1  0  0  0  0
 16 19  1  0  0  0  0
 16 23  1  1  0  0  0
 16 39  1  0  0  0  0
 17 19  1  0  0  0  0
 17 40  1  0  0  0  0
 17 41  1  0  0  0  0
 18 42  1  0  0  0  0
 18 43  1  0  0  0  0
 18 44  1  0  0  0  0
 19 45  1  0  0  0  0
 19 46  1  0  0  0  0
 20 21  1  0  0  0  0
 20 47  1  0  0  0  0
 20 48  1  0  0  0  0
 22 49  1  0  0  0  0
 22 50  1  0  0  0  0
 22 51  1  0  0  0  0
 23 24  1  0  0  0  0
 24 52  1  0  0  0  0
 24 53  1  0  0  0  0
 24 54  1  0  0  0  0
M  END
> <PUBCHEM_COMPOUND_CID>
235500

> <PUBCHEM_COMPOUND_CANONICALIZED>
1

> <PUBCHEM_CACTVS_COMPLEXITY>
627

> <PUBCHEM_CACTVS_HBOND_ACCEPTOR>
3

> <PUBCHEM_CACTVS_HBOND_DONOR>
0

> <PUBCHEM_CACTVS_ROTATABLE_BOND>
1

> <PUBCHEM_CACTVS_SUBSKEYS>
AAADceB4MAAAAAAAAAAAAAAAEgAAAYAAAAAwYMAABIAAAGDAAAAAGgAAAAAAD1SggAICAAAABAAIAIAQAAIAAAAAAAAAAAFAAAAAABYAAAQCAAAEIAAAAAGIzPDPgAAAAAAAAADAAAYAADAAAQAACAAAAA==

> <PUBCHEM_IUPAC_INCHI>
InChI=1S/C21H30O3/c1-12(22)14-4-5-15-13-6-11-21-18(24-21)17(23)8-10-20(21,3)16(13)7-9-19(14,15)2/h13-16,18H,4-11H2,1-3H3/t13-,14+,15-,16-,18-,19+,20+,21-/m0/s1

> <PUBCHEM_IUPAC_INCHIKEY>
AHUAGQAMTIBPDR-JFYOIKPISA-N

> <PUBCHEM_XLOGP3_AA>
3.5

> <PUBCHEM_EXACT_MASS>
330.219495

> <PUBCHEM_MOLECULAR_FORMULA>
C21H30O3

> <PUBCHEM_MOLECULAR_WEIGHT>
330.4611

> <PUBCHEM_OPENEYE_CAN_SMILES>
CC(=O)C1CCC2C1(CCC3C2CCC45C3(CCC(=O)C4O5)C)C

> <PUBCHEM_OPENEYE_ISO_SMILES>
CC(=O)[C@H]1CC[C@@H]2[C@@]1(CC[C@H]3[C@H]2CC[C@@]45[C@@]3(CCC(=O)[C@@H]4O5)C)C

> <PUBCHEM_CACTVS_TPSA>
46.7

> <PUBCHEM_MONOISOTOPIC_WEIGHT>
330.219495

> <PUBCHEM_TOTAL_CHARGE>
0

> <PUBCHEM_HEAVY_ATOM_COUNT>
24

> <PUBCHEM_ATOM_DEF_STEREO_COUNT>
8

> <PUBCHEM_ATOM_UDEF_STEREO_COUNT>
0

> <PUBCHEM_BOND_DEF_STEREO_COUNT>
0

> <PUBCHEM_BOND_UDEF_STEREO_COUNT>
0

> <PUBCHEM_ISOTOPIC_ATOM_COUNT>
0

> <PUBCHEM_COMPONENT_COUNT>
1

> <PUBCHEM_CACTVS_TAUTO_COUNT>
9

> <PUBCHEM_COORDINATE_TYPE>
1
5
255

> <PUBCHEM_BONDANNOTATIONS>
5  1  5
10  28  6
16  23  5
4  18  5
6  25  6
7  26  5
8  27  6
9  22  5

$$$$

