6850728
  -OEChem-07051213032D

  2  0  0     0  0  0  0  0  0999 V2000
    2.0000    0.0000    0.0000 Ca  0  2  0  0  0  0  0  0  0  0  0  0
    3.0000    0.0000    0.0000 O   0  6  0  0  0  0  0  0  0  0  0  0
M  CHG  2   1   2   2  -2
M  END
> <PUBCHEM_COMPOUND_CID>
6850728

> <PUBCHEM_COMPOUND_CANONICALIZED>
1

> <PUBCHEM_CACTVS_COMPLEXITY>
0

> <PUBCHEM_CACTVS_HBOND_ACCEPTOR>
1

> <PUBCHEM_CACTVS_HBOND_DONOR>
0

> <PUBCHEM_CACTVS_ROTATABLE_BOND>
0

> <PUBCHEM_CACTVS_SUBSKEYS>
AAADcQAAIAAAAAgAAAAAAAAAAAAAAAAAAAAAAAAAAAAAAAAAAAAAAAAAAAAAAAAAAAAAAAAAAAAAAAAAAAAAAAAAAAAAAAAAAAAAAAAAAAAAAAAAAAAAAAAAAAAAAAAAAAAAAAAAAAAAAAAAAAAAAAAAAA==

> <PUBCHEM_IUPAC_OPENEYE_NAME>
calcium oxygen(2-)

> <PUBCHEM_IUPAC_CAS_NAME>
calcium oxygen(2-)

> <PUBCHEM_IUPAC_NAME>
calcium oxygen(2-)

> <PUBCHEM_IUPAC_SYSTEMATIC_NAME>
calcium oxygen(2-)

> <PUBCHEM_IUPAC_TRADITIONAL_NAME>
calcium oxygen(2-)

> <PUBCHEM_IUPAC_INCHI>
InChI=1S/Ca.O/q+2;-2

> <PUBCHEM_IUPAC_INCHIKEY>
BRPQOXSCLDDYGP-UHFFFAOYSA-N

> <PUBCHEM_EXACT_MASS>
55.957506

> <PUBCHEM_MOLECULAR_FORMULA>
CaO

> <PUBCHEM_MOLECULAR_WEIGHT>
56.0774

> <PUBCHEM_OPENEYE_CAN_SMILES>
[O-2].[Ca+2]

> <PUBCHEM_OPENEYE_ISO_SMILES>
[O-2].[Ca+2]

> <PUBCHEM_CACTVS_TPSA>
1

> <PUBCHEM_MONOISOTOPIC_WEIGHT>
55.957506

> <PUBCHEM_TOTAL_CHARGE>
0

> <PUBCHEM_HEAVY_ATOM_COUNT>
2

> <PUBCHEM_ATOM_DEF_STEREO_COUNT>
0

> <PUBCHEM_ATOM_UDEF_STEREO_COUNT>
0

> <PUBCHEM_BOND_DEF_STEREO_COUNT>
0

> <PUBCHEM_BOND_UDEF_STEREO_COUNT>
0

> <PUBCHEM_ISOTOPIC_ATOM_COUNT>
0

> <PUBCHEM_COMPONENT_COUNT>
2

> <PUBCHEM_CACTVS_TAUTO_COUNT>
1

> <PUBCHEM_COORDINATE_TYPE>
1
5
255

$$$$

