   Color/Form
        COLORLESS CRYSTALS
   from [1]HSDB

   Boiling Point
        90-91 DEG C @ 23 MM HG
   from [2]HSDB

   Melting Point
        41 DEG C
   from [3]HSDB

   Solubilities
        EXTREMELY SOL IN WATER; VERY SOL IN ALCOHOL, ETHER, ACETONE
   from [4]HSDB

   Computed Properties
   Molecular Weight                  173.152742 [g/mol]
   Molecular Formula                 C[6]H[12]N[3]OP
   XLogP3                            -0.6
   H-Bond Donor                      0
   H-Bond Acceptor                   4
   Rotatable Bond Count              3
   Exact Mass                        173.071799
   MonoIsotopic Mass                 173.071799
   Topological Polar Surface Area    26.1
   Heavy Atom Count                  11
   Formal Charge                     0
   Complexity                        194
   Isotope Atom Count                0
   Defined Atom Stereocenter Count   0
   Undefined Atom Stereocenter Count 0
   Defined Bond Stereocenter Count   0
   Undefined Bond Stereocenter Count 0
   Covalently-Bonded Unit Count      1
   Feature 3D Acceptor Count         1
   Effective Rotor Count             4.8
   Conformer Sampling RMSD           0.6
   CID Conformer Count               [5]5

References

   1. http://toxnet.nlm.nih.gov/cgi-bin/sis/search/r?dbs+hsdb:@term+@rn+@rel+545-55-1
   2. http://toxnet.nlm.nih.gov/cgi-bin/sis/search/r?dbs+hsdb:@term+@rn+@rel+545-55-1
   3. http://toxnet.nlm.nih.gov/cgi-bin/sis/search/r?dbs+hsdb:@term+@rn+@rel+545-55-1
   4. http://toxnet.nlm.nih.gov/cgi-bin/sis/search/r?dbs+hsdb:@term+@rn+@rel+545-55-1
   5. http://pubchem.ncbi.nlm.nih.gov/vw3d/vw3d.cgi?cid=11016
