656770
  -OEChem-07051213042D

 76 77  0     1  0  0  0  0  0999 V2000
    5.6661    0.0000    0.0000 Cl  0  0  0  0  0  0  0  0  0  0  0  0
   11.7953    7.5369    0.0000 O   0  0  0  0  0  0  0  0  0  0  0  0
    3.1350   10.5369    0.0000 O   0  0  0  0  0  0  0  0  0  0  0  0
    8.3312    4.5369    0.0000 O   0  0  0  0  0  0  0  0  0  0  0  0
    1.4030    9.5369    0.0000 O   0  0  0  0  0  0  0  0  0  0  0  0
   10.0632    3.5369    0.0000 O   0  0  0  0  0  0  0  0  0  0  0  0
   11.7953   12.5369    0.0000 O   0  5  0  0  0  0  0  0  0  0  0  0
   10.0632   12.5369    0.0000 O   0  0  0  0  0  0  0  0  0  0  0  0
    6.5991    7.5369    0.0000 N   0  0  3  0  0  0  0  0  0  0  0  0
   10.0632    7.5369    0.0000 N   0  0  0  0  0  0  0  0  0  0  0  0
   10.9292   12.0369    0.0000 N   0  3  0  0  0  0  0  0  0  0  0  0
    7.4651    8.0369    0.0000 C   0  0  0  0  0  0  0  0  0  0  0  0
    8.3312    7.5369    0.0000 C   0  0  0  0  0  0  0  0  0  0  0  0
    5.7331    8.0369    0.0000 C   0  0  0  0  0  0  0  0  0  0  0  0
    9.1972    8.0369    0.0000 C   0  0  0  0  0  0  0  0  0  0  0  0
    4.8671    7.5369    0.0000 C   0  0  0  0  0  0  0  0  0  0  0  0
    6.5991    6.5369    0.0000 C   0  0  0  0  0  0  0  0  0  0  0  0
    4.0010    8.0369    0.0000 C   0  0  0  0  0  0  0  0  0  0  0  0
   10.0632    6.5369    0.0000 C   0  0  0  0  0  0  0  0  0  0  0  0
   10.9292    8.0369    0.0000 C   0  0  0  0  0  0  0  0  0  0  0  0
    4.0010    9.0369    0.0000 C   0  0  0  0  0  0  0  0  0  0  0  0
    3.1350    7.5369    0.0000 C   0  0  0  0  0  0  0  0  0  0  0  0
    9.1972    6.0369    0.0000 C   0  0  0  0  0  0  0  0  0  0  0  0
   10.9292    6.0369    0.0000 C   0  0  0  0  0  0  0  0  0  0  0  0
   10.9292    9.0369    0.0000 C   0  0  0  0  0  0  0  0  0  0  0  0
    3.1350    9.5369    0.0000 C   0  0  0  0  0  0  0  0  0  0  0  0
    9.1972    5.0369    0.0000 C   0  0  0  0  0  0  0  0  0  0  0  0
    2.2690    8.0369    0.0000 C   0  0  0  0  0  0  0  0  0  0  0  0
    2.2690    9.0369    0.0000 C   0  0  0  0  0  0  0  0  0  0  0  0
   10.9292    5.0369    0.0000 C   0  0  0  0  0  0  0  0  0  0  0  0
   10.0632    4.5369    0.0000 C   0  0  0  0  0  0  0  0  0  0  0  0
   11.7953    9.5369    0.0000 C   0  0  0  0  0  0  0  0  0  0  0  0
   10.0632    9.5369    0.0000 C   0  0  0  0  0  0  0  0  0  0  0  0
   11.7953   10.5369    0.0000 C   0  0  0  0  0  0  0  0  0  0  0  0
   10.0632   10.5369    0.0000 C   0  0  0  0  0  0  0  0  0  0  0  0
   10.9292   11.0369    0.0000 C   0  0  0  0  0  0  0  0  0  0  0  0
    2.2690   11.0369    0.0000 C   0  0  0  0  0  0  0  0  0  0  0  0
    7.4651    5.0369    0.0000 C   0  0  0  0  0  0  0  0  0  0  0  0
    0.5369    9.0369    0.0000 C   0  0  0  0  0  0  0  0  0  0  0  0
   10.9292    3.0369    0.0000 C   0  0  0  0  0  0  0  0  0  0  0  0
    7.8637    8.5119    0.0000 H   0  0  0  0  0  0  0  0  0  0  0  0
    7.0666    8.5119    0.0000 H   0  0  0  0  0  0  0  0  0  0  0  0
    7.9326    7.0620    0.0000 H   0  0  0  0  0  0  0  0  0  0  0  0
    8.7297    7.0620    0.0000 H   0  0  0  0  0  0  0  0  0  0  0  0
    6.1316    8.5119    0.0000 H   0  0  0  0  0  0  0  0  0  0  0  0
    5.3346    8.5119    0.0000 H   0  0  0  0  0  0  0  0  0  0  0  0
    9.5957    8.5119    0.0000 H   0  0  0  0  0  0  0  0  0  0  0  0
    8.7987    8.5119    0.0000 H   0  0  0  0  0  0  0  0  0  0  0  0
    4.4685    7.0620    0.0000 H   0  0  0  0  0  0  0  0  0  0  0  0
    5.2656    7.0620    0.0000 H   0  0  0  0  0  0  0  0  0  0  0  0
    5.9791    6.5369    0.0000 H   0  0  0  0  0  0  0  0  0  0  0  0
    6.5991    5.9169    0.0000 H   0  0  0  0  0  0  0  0  0  0  0  0
    7.2191    6.5369    0.0000 H   0  0  0  0  0  0  0  0  0  0  0  0
    4.5380    9.3469    0.0000 H   0  0  0  0  0  0  0  0  0  0  0  0
    3.1350    6.9169    0.0000 H   0  0  0  0  0  0  0  0  0  0  0  0
    8.6602    6.3469    0.0000 H   0  0  0  0  0  0  0  0  0  0  0  0
   11.4662    6.3469    0.0000 H   0  0  0  0  0  0  0  0  0  0  0  0
    1.7320    7.7269    0.0000 H   0  0  0  0  0  0  0  0  0  0  0  0
   11.4662    4.7269    0.0000 H   0  0  0  0  0  0  0  0  0  0  0  0
   12.3322    9.2269    0.0000 H   0  0  0  0  0  0  0  0  0  0  0  0
    9.5263    9.2269    0.0000 H   0  0  0  0  0  0  0  0  0  0  0  0
   12.3322   10.8469    0.0000 H   0  0  0  0  0  0  0  0  0  0  0  0
    9.5263   10.8469    0.0000 H   0  0  0  0  0  0  0  0  0  0  0  0
    2.5790   11.5739    0.0000 H   0  0  0  0  0  0  0  0  0  0  0  0
    1.7320   11.3469    0.0000 H   0  0  0  0  0  0  0  0  0  0  0  0
    1.9590   10.5000    0.0000 H   0  0  0  0  0  0  0  0  0  0  0  0
    7.7751    5.5739    0.0000 H   0  0  0  0  0  0  0  0  0  0  0  0
    6.9282    5.3469    0.0000 H   0  0  0  0  0  0  0  0  0  0  0  0
    7.1551    4.5000    0.0000 H   0  0  0  0  0  0  0  0  0  0  0  0
    0.2269    9.5739    0.0000 H   0  0  0  0  0  0  0  0  0  0  0  0
    0.0000    8.7269    0.0000 H   0  0  0  0  0  0  0  0  0  0  0  0
    0.8469    8.5000    0.0000 H   0  0  0  0  0  0  0  0  0  0  0  0
   10.6192    2.5000    0.0000 H   0  0  0  0  0  0  0  0  0  0  0  0
   11.4662    2.7269    0.0000 H   0  0  0  0  0  0  0  0  0  0  0  0
   11.2392    3.5739    0.0000 H   0  0  0  0  0  0  0  0  0  0  0  0
    6.6661    0.0000    0.0000 H   0  0  0  0  0  0  0  0  0  0  0  0
  1 76  1  0  0  0  0
  2 20  2  0  0  0  0
  3 26  1  0  0  0  0
  3 37  1  0  0  0  0
  4 27  1  0  0  0  0
  4 38  1  0  0  0  0
  5 29  1  0  0  0  0
  5 39  1  0  0  0  0
  6 31  1  0  0  0  0
  6 40  1  0  0  0  0
  7 11  1  0  0  0  0
  8 11  2  0  0  0  0
  9 12  1  0  0  0  0
  9 14  1  0  0  0  0
  9 17  1  0  0  0  0
 10 15  1  0  0  0  0
 10 19  1  0  0  0  0
 10 20  1  0  0  0  0
 11 36  1  0  0  0  0
 12 13  1  0  0  0  0
 12 41  1  0  0  0  0
 12 42  1  0  0  0  0
 13 15  1  0  0  0  0
 13 43  1  0  0  0  0
 13 44  1  0  0  0  0
 14 16  1  0  0  0  0
 14 45  1  0  0  0  0
 14 46  1  0  0  0  0
 15 47  1  0  0  0  0
 15 48  1  0  0  0  0
 16 18  1  0  0  0  0
 16 49  1  0  0  0  0
 16 50  1  0  0  0  0
 17 51  1  0  0  0  0
 17 52  1  0  0  0  0
 17 53  1  0  0  0  0
 18 21  2  0  0  0  0
 18 22  1  0  0  0  0
 19 23  2  0  0  0  0
 19 24  1  0  0  0  0
 20 25  1  0  0  0  0
 21 26  1  0  0  0  0
 21 54  1  0  0  0  0
 22 28  2  0  0  0  0
 22 55  1  0  0  0  0
 23 27  1  0  0  0  0
 23 56  1  0  0  0  0
 24 30  2  0  0  0  0
 24 57  1  0  0  0  0
 25 32  2  0  0  0  0
 25 33  1  0  0  0  0
 26 29  2  0  0  0  0
 27 31  2  0  0  0  0
 28 29  1  0  0  0  0
 28 58  1  0  0  0  0
 30 31  1  0  0  0  0
 30 59  1  0  0  0  0
 32 34  1  0  0  0  0
 32 60  1  0  0  0  0
 33 35  2  0  0  0  0
 33 61  1  0  0  0  0
 34 36  2  0  0  0  0
 34 62  1  0  0  0  0
 35 36  1  0  0  0  0
 35 63  1  0  0  0  0
 37 64  1  0  0  0  0
 37 65  1  0  0  0  0
 37 66  1  0  0  0  0
 38 67  1  0  0  0  0
 38 68  1  0  0  0  0
 38 69  1  0  0  0  0
 39 70  1  0  0  0  0
 39 71  1  0  0  0  0
 39 72  1  0  0  0  0
 40 73  1  0  0  0  0
 40 74  1  0  0  0  0
 40 75  1  0  0  0  0
M  CHG  2   7  -1  11   1
M  END
> <PUBCHEM_COMPOUND_CID>
656770

> <PUBCHEM_COMPOUND_CANONICALIZED>
1

> <PUBCHEM_CACTVS_COMPLEXITY>
743

> <PUBCHEM_CACTVS_HBOND_ACCEPTOR>
8

> <PUBCHEM_CACTVS_HBOND_DONOR>
1

> <PUBCHEM_CACTVS_ROTATABLE_BOND>
13

> <PUBCHEM_CACTVS_SUBSKEYS>
AAADcfB7OAAEAAAAAAAAAAAAAAAAAAAAAAAwYMAAAAAAAAABUAAAHgAEAAAADAzBmAYyxoMQRACJAiVSUwCCCAAlIgAoiAEO7MoNJjLE9ZuEMSpmxhnK6Ye42bOeKEABAgAAQABQgAIEAACAAAAAAAAAAA==

> <PUBCHEM_IUPAC_OPENEYE_NAME>
N-(3,4-dimethoxyphenyl)-N-[3-[2-(3,4-dimethoxyphenyl)ethyl-methyl-amino]propyl]-4-nitro-benzamide hydrochloride

> <PUBCHEM_IUPAC_CAS_NAME>
N-(3,4-dimethoxyphenyl)-N-[3-[2-(3,4-dimethoxyphenyl)ethyl-methylamino]propyl]-4-nitrobenzamide hydrochloride

> <PUBCHEM_IUPAC_NAME>
N-(3,4-dimethoxyphenyl)-N-[3-[2-(3,4-dimethoxyphenyl)ethyl-methylamino]propyl]-4-nitrobenzamide hydrochloride

> <PUBCHEM_IUPAC_SYSTEMATIC_NAME>
N-(3,4-dimethoxyphenyl)-N-[3-[2-(3,4-dimethoxyphenyl)ethyl-methyl-amino]propyl]-4-nitro-benzamide hydrochloride

> <PUBCHEM_IUPAC_TRADITIONAL_NAME>
N-(3,4-dimethoxyphenyl)-N-[3-[homoveratryl(methyl)amino]propyl]-4-nitro-benzamide hydrochloride

> <PUBCHEM_IUPAC_INCHI>
InChI=1S/C29H35N3O7.ClH/c1-30(18-15-21-7-13-25(36-2)27(19-21)38-4)16-6-17-31(24-12-14-26(37-3)28(20-24)39-5)29(33)22-8-10-23(11-9-22)32(34)35;/h7-14,19-20H,6,15-18H2,1-5H3;1H

> <PUBCHEM_IUPAC_INCHIKEY>
CMKVOHIRMCFVBJ-UHFFFAOYSA-N

> <PUBCHEM_EXACT_MASS>
573.224178

> <PUBCHEM_MOLECULAR_FORMULA>
C29H36ClN3O7

> <PUBCHEM_MOLECULAR_WEIGHT>
574.06504

> <PUBCHEM_OPENEYE_CAN_SMILES>
CN(CCCN(C1=CC(=C(C=C1)OC)OC)C(=O)C2=CC=C(C=C2)[N+](=O)[O-])CCC3=CC(=C(C=C3)OC)OC.Cl

> <PUBCHEM_OPENEYE_ISO_SMILES>
CN(CCCN(C1=CC(=C(C=C1)OC)OC)C(=O)C2=CC=C(C=C2)[N+](=O)[O-])CCC3=CC(=C(C=C3)OC)OC.Cl

> <PUBCHEM_CACTVS_TPSA>
106

> <PUBCHEM_MONOISOTOPIC_WEIGHT>
573.224178

> <PUBCHEM_TOTAL_CHARGE>
0

> <PUBCHEM_HEAVY_ATOM_COUNT>
40

> <PUBCHEM_ATOM_DEF_STEREO_COUNT>
0

> <PUBCHEM_ATOM_UDEF_STEREO_COUNT>
0

> <PUBCHEM_BOND_DEF_STEREO_COUNT>
0

> <PUBCHEM_BOND_UDEF_STEREO_COUNT>
0

> <PUBCHEM_ISOTOPIC_ATOM_COUNT>
0

> <PUBCHEM_COMPONENT_COUNT>
2

> <PUBCHEM_CACTVS_TAUTO_COUNT>
1

> <PUBCHEM_COORDINATE_TYPE>
1
5
255

> <PUBCHEM_BONDANNOTATIONS>
18  21  8
18  22  8
19  23  8
19  24  8
21  26  8
22  28  8
23  27  8
24  30  8
25  32  8
25  33  8
26  29  8
27  31  8
28  29  8
30  31  8
32  34  8
33  35  8
34  36  8
35  36  8

$$$$

