11953903
  -OEChem-07051212552D

 86 90  0     1  0  0  0  0  0999 V2000
    6.0010   -2.3215    0.0000 O   0  0  0  0  0  0  0  0  0  0  0  0
    8.5991   -2.8215    0.0000 O   0  0  0  0  0  0  0  0  0  0  0  0
    5.1350   -3.8216    0.0000 O   0  0  0  0  0  0  0  0  0  0  0  0
    7.7331   -1.3216    0.0000 O   0  0  0  0  0  0  0  0  0  0  0  0
    6.0010   -4.3216    0.0000 O   0  0  0  0  0  0  0  0  0  0  0  0
    7.7331   -5.3216    0.0000 O   0  0  0  0  0  0  0  0  0  0  0  0
    4.2690   -1.3216    0.0000 O   0  0  0  0  0  0  0  0  0  0  0  0
    2.5369   -2.3215    0.0000 O   0  0  0  0  0  0  0  0  0  0  0  0
    2.5369   -4.3216    0.0000 O   0  0  0  0  0  0  0  0  0  0  0  0
    9.4651   -5.3216    0.0000 O   0  0  0  0  0  0  0  0  0  0  0  0
    3.4030   -5.8216    0.0000 O   0  0  0  0  0  0  0  0  0  0  0  0
    7.7331    0.6784    0.0000 O   0  0  0  0  0  0  0  0  0  0  0  0
   13.3610   -1.1876    0.0000 O   0  5  0  0  0  0  0  0  0  0  0  0
   13.3610    0.5445    0.0000 O   0  0  0  0  0  0  0  0  0  0  0  0
   12.1629    5.9801    0.0000 O   0  0  0  0  0  0  0  0  0  0  0  0
   10.8737    4.8233    0.0000 O   0  0  0  0  0  0  0  0  0  0  0  0
   15.8127    3.2091    0.0000 O   0  0  0  0  0  0  0  0  0  0  0  0
   15.4556    4.9039    0.0000 O   0  0  0  0  0  0  0  0  0  0  0  0
   11.2774    0.4832    0.0000 N   0  3  0  0  0  0  0  0  0  0  0  0
   13.4985    4.4915    0.0000 N   0  0  0  0  0  0  0  0  0  0  0  0
    6.8671   -2.8215    0.0000 C   0  0  2  0  0  0  0  0  0  0  0  0
    6.8671   -3.8216    0.0000 C   0  0  2  0  0  0  0  0  0  0  0  0
    7.7331   -4.3216    0.0000 C   0  0  1  0  0  0  0  0  0  0  0  0
    5.1350   -2.8215    0.0000 C   0  0  2  0  0  0  0  0  0  0  0  0
    7.7331   -2.3215    0.0000 C   0  0  1  0  0  0  0  0  0  0  0  0
    4.2690   -2.3215    0.0000 C   0  0  1  0  0  0  0  0  0  0  0  0
    8.5991   -3.8216    0.0000 C   0  0  1  0  0  0  0  0  0  0  0  0
    3.4030   -2.8215    0.0000 C   0  0  2  0  0  0  0  0  0  0  0  0
    3.4030   -3.8216    0.0000 C   0  0  1  0  0  0  0  0  0  0  0  0
    4.2690   -4.3216    0.0000 C   0  0  1  0  0  0  0  0  0  0  0  0
    9.4651   -4.3216    0.0000 C   0  0  0  0  0  0  0  0  0  0  0  0
    4.2690   -5.3216    0.0000 C   0  0  0  0  0  0  0  0  0  0  0  0
    8.5991   -0.8216    0.0000 C   0  0  0  0  0  0  0  0  0  0  0  0
   10.3312   -0.8216    0.0000 C   0  0  0  0  0  0  0  0  0  0  0  0
   11.8610   -0.3216    0.0000 C   0  0  1  0  0  0  0  0  0  0  0  0
   11.2774   -1.1263    0.0000 C   0  0  0  0  0  0  0  0  0  0  0  0
   10.3312    0.1784    0.0000 C   0  0  0  0  0  0  0  0  0  0  0  0
    9.4651   -1.3216    0.0000 C   0  0  0  0  0  0  0  0  0  0  0  0
    8.5991    0.1784    0.0000 C   0  0  0  0  0  0  0  0  0  0  0  0
    9.4651    0.6784    0.0000 C   0  0  0  0  0  0  0  0  0  0  0  0
   11.5880    1.4337    0.0000 C   0  0  0  0  0  0  0  0  0  0  0  0
   12.8610   -0.3216    0.0000 C   0  0  0  0  0  0  0  0  0  0  0  0
   12.5666    1.6399    0.0000 C   0  0  0  0  0  0  0  0  0  0  0  0
   12.8772    2.5904    0.0000 C   0  0  0  0  0  0  0  0  0  0  0  0
   12.2094    3.3347    0.0000 C   0  0  0  0  0  0  0  0  0  0  0  0
   12.5200    4.2853    0.0000 C   0  0  1  0  0  0  0  0  0  0  0  0
   13.8557    2.7967    0.0000 C   0  0  0  0  0  0  0  0  0  0  0  0
   14.1664    3.7472    0.0000 C   0  0  0  0  0  0  0  0  0  0  0  0
   11.8522    5.0296    0.0000 C   0  0  0  0  0  0  0  0  0  0  0  0
   15.1449    3.9534    0.0000 C   0  0  0  0  0  0  0  0  0  0  0  0
    6.3301   -3.1316    0.0000 H   0  0  0  0  0  0  0  0  0  0  0  0
    6.3301   -3.5116    0.0000 H   0  0  0  0  0  0  0  0  0  0  0  0
    8.2700   -4.6316    0.0000 H   0  0  0  0  0  0  0  0  0  0  0  0
    5.1350   -2.2016    0.0000 H   0  0  0  0  0  0  0  0  0  0  0  0
    7.1962   -2.0116    0.0000 H   0  0  0  0  0  0  0  0  0  0  0  0
    4.8059   -2.0116    0.0000 H   0  0  0  0  0  0  0  0  0  0  0  0
    9.1360   -3.5116    0.0000 H   0  0  0  0  0  0  0  0  0  0  0  0
    3.4030   -2.2016    0.0000 H   0  0  0  0  0  0  0  0  0  0  0  0
    3.4030   -4.4416    0.0000 H   0  0  0  0  0  0  0  0  0  0  0  0
    4.8059   -4.6316    0.0000 H   0  0  0  0  0  0  0  0  0  0  0  0
   10.0757   -4.4292    0.0000 H   0  0  0  0  0  0  0  0  0  0  0  0
    9.6772   -3.7389    0.0000 H   0  0  0  0  0  0  0  0  0  0  0  0
    4.4810   -5.9042    0.0000 H   0  0  0  0  0  0  0  0  0  0  0  0
    4.8796   -5.2139    0.0000 H   0  0  0  0  0  0  0  0  0  0  0  0
    6.0010   -4.9416    0.0000 H   0  0  0  0  0  0  0  0  0  0  0  0
    7.1962   -5.6316    0.0000 H   0  0  0  0  0  0  0  0  0  0  0  0
    3.7320   -1.0116    0.0000 H   0  0  0  0  0  0  0  0  0  0  0  0
    2.0000   -2.6316    0.0000 H   0  0  0  0  0  0  0  0  0  0  0  0
   12.1427    0.2308    0.0000 H   0  0  0  0  0  0  0  0  0  0  0  0
   11.0264   -1.6932    0.0000 H   0  0  0  0  0  0  0  0  0  0  0  0
   11.8148   -1.4355    0.0000 H   0  0  0  0  0  0  0  0  0  0  0  0
    2.0000   -4.0116    0.0000 H   0  0  0  0  0  0  0  0  0  0  0  0
    9.4651   -1.9416    0.0000 H   0  0  0  0  0  0  0  0  0  0  0  0
    9.4651    1.2985    0.0000 H   0  0  0  0  0  0  0  0  0  0  0  0
   10.0021   -5.6316    0.0000 H   0  0  0  0  0  0  0  0  0  0  0  0
    3.4030   -6.4416    0.0000 H   0  0  0  0  0  0  0  0  0  0  0  0
   11.1740    1.8952    0.0000 H   0  0  0  0  0  0  0  0  0  0  0  0
   12.9806    1.1784    0.0000 H   0  0  0  0  0  0  0  0  0  0  0  0
    7.7331    1.2985    0.0000 H   0  0  0  0  0  0  0  0  0  0  0  0
   11.6624    3.6268    0.0000 H   0  0  0  0  0  0  0  0  0  0  0  0
   11.8268    2.8468    0.0000 H   0  0  0  0  0  0  0  0  0  0  0  0
   12.7126    4.8746    0.0000 H   0  0  0  0  0  0  0  0  0  0  0  0
   14.2698    2.3352    0.0000 H   0  0  0  0  0  0  0  0  0  0  0  0
   13.6911    5.0808    0.0000 H   0  0  0  0  0  0  0  0  0  0  0  0
   11.7488    6.4416    0.0000 H   0  0  0  0  0  0  0  0  0  0  0  0
   16.4194    3.3370    0.0000 H   0  0  0  0  0  0  0  0  0  0  0  0
 21  1  1  1  0  0  0
 24  1  1  6  0  0  0
  2 25  1  0  0  0  0
  2 27  1  0  0  0  0
  3 24  1  0  0  0  0
  3 30  1  0  0  0  0
 25  4  1  6  0  0  0
  4 33  1  0  0  0  0
 22  5  1  6  0  0  0
  5 65  1  0  0  0  0
 23  6  1  1  0  0  0
  6 66  1  0  0  0  0
 26  7  1  1  0  0  0
  7 67  1  0  0  0  0
 28  8  1  6  0  0  0
  8 68  1  0  0  0  0
 29  9  1  1  0  0  0
  9 72  1  0  0  0  0
 10 31  1  0  0  0  0
 10 75  1  0  0  0  0
 11 32  1  0  0  0  0
 11 76  1  0  0  0  0
 12 39  1  0  0  0  0
 12 79  1  0  0  0  0
 13 42  1  0  0  0  0
 14 42  2  0  0  0  0
 15 49  1  0  0  0  0
 15 85  1  0  0  0  0
 16 49  2  0  0  0  0
 17 50  1  0  0  0  0
 17 86  1  0  0  0  0
 18 50  2  0  0  0  0
 19 35  1  0  0  0  0
 19 37  1  0  0  0  0
 19 41  2  0  0  0  0
 20 46  1  0  0  0  0
 20 48  1  0  0  0  0
 20 84  1  0  0  0  0
 21 22  1  0  0  0  0
 21 25  1  0  0  0  0
 21 51  1  0  0  0  0
 22 23  1  0  0  0  0
 22 52  1  0  0  0  0
 23 27  1  0  0  0  0
 23 53  1  0  0  0  0
 24 26  1  0  0  0  0
 24 54  1  0  0  0  0
 25 55  1  0  0  0  0
 26 28  1  0  0  0  0
 26 56  1  0  0  0  0
 27 31  1  6  0  0  0
 27 57  1  0  0  0  0
 28 29  1  0  0  0  0
 28 58  1  0  0  0  0
 29 30  1  0  0  0  0
 29 59  1  0  0  0  0
 30 32  1  6  0  0  0
 30 60  1  0  0  0  0
 31 61  1  0  0  0  0
 31 62  1  0  0  0  0
 32 63  1  0  0  0  0
 32 64  1  0  0  0  0
 33 38  1  0  0  0  0
 33 39  2  0  0  0  0
 34 36  1  0  0  0  0
 34 37  1  0  0  0  0
 34 38  2  0  0  0  0
 35 36  1  0  0  0  0
 35 42  1  6  0  0  0
 35 69  1  0  0  0  0
 36 70  1  0  0  0  0
 36 71  1  0  0  0  0
 37 40  2  0  0  0  0
 38 73  1  0  0  0  0
 39 40  1  0  0  0  0
 40 74  1  0  0  0  0
 41 43  1  0  0  0  0
 41 77  1  0  0  0  0
 43 44  2  0  0  0  0
 43 78  1  0  0  0  0
 44 45  1  0  0  0  0
 44 47  1  0  0  0  0
 45 46  1  0  0  0  0
 45 80  1  0  0  0  0
 45 81  1  0  0  0  0
 46 49  1  1  0  0  0
 46 82  1  0  0  0  0
 47 48  2  0  0  0  0
 47 83  1  0  0  0  0
 48 50  1  0  0  0  0
M  CHG  2  13  -1  19   1
M  END
> <PUBCHEM_COMPOUND_CID>
11953903

> <PUBCHEM_COMPOUND_CANONICALIZED>
1

> <PUBCHEM_CACTVS_COMPLEXITY>
1370

> <PUBCHEM_CACTVS_HBOND_ACCEPTOR>
19

> <PUBCHEM_CACTVS_HBOND_DONOR>
11

> <PUBCHEM_CACTVS_ROTATABLE_BOND>
9

> <PUBCHEM_CACTVS_SUBSKEYS>
AAADcfB7PgAAAAAAAAAAAAAAAAAAAWAAAAA0SIEAAAAAAFgBAAAAHgAQCAAADDzxmAcwzoPABgCoAjTzTACCCAAhIgAAiIGe7NgfNjLGsbumeCvn0Bnf+Yf4+b+eIEABAgACQABAgAIEAASAAAAAAAAAAA==

> <PUBCHEM_IUPAC_OPENEYE_NAME>
(2S)-1-[(2E)-2-[(2S)-2,6-dicarboxy-2,3-dihydro-1H-pyridin-4-ylidene]ethylidene]-5-[(2S,3R,4S,5S,6R)-4,5-dihydroxy-6-(hydroxymethyl)-3-[(2S,3R,4S,5S,6R)-3,4,5-trihydroxy-6-(hydroxymethyl)tetrahydropyran-2-yl]oxy-tetrahydropyran-2-yl]oxy-6-hydroxy-indolin-1-ium-2-carboxylate

> <PUBCHEM_IUPAC_CAS_NAME>
(2S)-1-[(2E)-2-[(2S)-2,6-dicarboxy-2,3-dihydro-1H-pyridin-4-ylidene]ethylidene]-5-[[(2S,3R,4S,5S,6R)-4,5-dihydroxy-6-(hydroxymethyl)-3-[[(2S,3R,4S,5S,6R)-3,4,5-trihydroxy-6-(hydroxymethyl)-2-oxanyl]oxy]-2-oxanyl]oxy]-6-hydroxy-2,3-dihydroindol-1-ium-2-carboxylate

> <PUBCHEM_IUPAC_NAME>
(2S)-1-[(2E)-2-[(2S)-2,6-dicarboxy-2,3-dihydro-1H-pyridin-4-ylidene]ethylidene]-5-[(2S,3R,4S,5S,6R)-4,5-dihydroxy-6-(hydroxymethyl)-3-[(2S,3R,4S,5S,6R)-3,4,5-trihydroxy-6-(hydroxymethyl)oxan-2-yl]oxyoxan-2-yl]oxy-6-hydroxy-2,3-dihydroindol-1-ium-2-carboxylate

> <PUBCHEM_IUPAC_SYSTEMATIC_NAME>
(2S)-1-[(2E)-2-[(2S)-2,6-dicarboxy-2,3-dihydro-1H-pyridin-4-ylidene]ethylidene]-5-[(2S,3R,4S,5S,6R)-6-(hydroxymethyl)-3-[(2S,3R,4S,5S,6R)-6-(hydroxymethyl)-3,4,5-tris(oxidanyl)oxan-2-yl]oxy-4,5-bis(oxidanyl)oxan-2-yl]oxy-6-oxidanyl-2,3-dihydroindol-1-ium-2-carboxylate

> <PUBCHEM_IUPAC_TRADITIONAL_NAME>
(2S)-1-[(2E)-2-[(2S)-2,6-dicarboxy-2,3-dihydro-1H-pyridin-4-ylidene]ethylidene]-5-[(2S,3R,4S,5S,6R)-4,5-dihydroxy-6-methylol-3-[(2S,3R,4S,5S,6R)-3,4,5-trihydroxy-6-methylol-tetrahydropyran-2-yl]oxy-tetrahydropyran-2-yl]oxy-6-hydroxy-indolin-1-ium-2-carboxylate

> <PUBCHEM_IUPAC_INCHI>
InChI=1S/C30H36N2O18/c33-8-18-20(36)22(38)24(40)29(48-18)50-25-23(39)21(37)19(9-34)49-30(25)47-17-6-11-5-15(28(45)46)32(14(11)7-16(17)35)2-1-10-3-12(26(41)42)31-13(4-10)27(43)44/h1-3,6-7,13,15,18-25,29-30,33-34,36-40H,4-5,8-9H2,(H4,35,41,42,43,44,45,46)/t13-,15-,18+,19+,20+,21+,22-,23-,24+,25+,29-,30+/m0/s1

> <PUBCHEM_IUPAC_INCHIKEY>
JFSHCYUNIKQIPE-XAZCMKEVSA-N

> <PUBCHEM_XLOGP3_AA>
-2.5

> <PUBCHEM_EXACT_MASS>
712.196312

> <PUBCHEM_MOLECULAR_FORMULA>
C30H36N2O18

> <PUBCHEM_MOLECULAR_WEIGHT>
712.60944

> <PUBCHEM_OPENEYE_CAN_SMILES>
C1C(NC(=CC1=CC=[N+]2C(CC3=CC(=C(C=C32)O)OC4C(C(C(C(O4)CO)O)O)OC5C(C(C(C(O5)CO)O)O)O)C(=O)[O-])C(=O)O)C(=O)O

> <PUBCHEM_OPENEYE_ISO_SMILES>
C\1[C@H](NC(=C/C1=C/C=[N+]2[C@@H](CC3=CC(=C(C=C32)O)O[C@H]4[C@@H]([C@H]([C@@H]([C@H](O4)CO)O)O)O[C@H]5[C@@H]([C@H]([C@@H]([C@H](O5)CO)O)O)O)C(=O)[O-])C(=O)O)C(=O)O

> <PUBCHEM_CACTVS_TPSA>
329

> <PUBCHEM_MONOISOTOPIC_WEIGHT>
712.196312

> <PUBCHEM_TOTAL_CHARGE>
0

> <PUBCHEM_HEAVY_ATOM_COUNT>
50

> <PUBCHEM_ATOM_DEF_STEREO_COUNT>
12

> <PUBCHEM_ATOM_UDEF_STEREO_COUNT>
0

> <PUBCHEM_BOND_DEF_STEREO_COUNT>
1

> <PUBCHEM_BOND_UDEF_STEREO_COUNT>
0

> <PUBCHEM_ISOTOPIC_ATOM_COUNT>
0

> <PUBCHEM_COMPONENT_COUNT>
1

> <PUBCHEM_CACTVS_TAUTO_COUNT>
3

> <PUBCHEM_COORDINATE_TYPE>
1
5
255

> <PUBCHEM_BONDANNOTATIONS>
21  1  5
24  1  6
27  31  6
30  32  6
33  38  8
33  39  8
34  37  8
34  38  8
35  42  6
37  40  8
39  40  8
25  4  6
46  49  5
22  5  6
23  6  5
26  7  5
28  8  6
29  9  5

$$$$

