121969
  -OEChem-07051212492D

 44 44  0     1  0  0  0  0  0999 V2000
    5.9081    2.5000    0.0000 P   0  0  0  0  0  0  0  0  0  0  0  0
    6.7741   -2.0000    0.0000 P   0  0  0  0  0  0  0  0  0  0  0  0
    3.3100    2.0000    0.0000 P   0  0  0  0  0  0  0  0  0  0  0  0
    4.1760   -2.5000    0.0000 P   0  0  0  0  0  0  0  0  0  0  0  0
    5.0420    2.0000    0.0000 O   0  0  0  0  0  0  0  0  0  0  0  0
    6.7741   -1.0000    0.0000 O   0  0  0  0  0  0  0  0  0  0  0  0
    3.3100    1.0000    0.0000 O   0  0  0  0  0  0  0  0  0  0  0  0
    5.0420   -2.0000    0.0000 O   0  0  0  0  0  0  0  0  0  0  0  0
    6.7741    1.0000    0.0000 O   0  0  0  0  0  0  0  0  0  0  0  0
    3.3100   -1.0000    0.0000 O   0  0  0  0  0  0  0  0  0  0  0  0
    6.7741    3.0000    0.0000 O   0  0  0  0  0  0  0  0  0  0  0  0
    5.4081    3.3660    0.0000 O   0  0  0  0  0  0  0  0  0  0  0  0
    7.7741   -2.0000    0.0000 O   0  0  0  0  0  0  0  0  0  0  0  0
    6.7741   -3.0000    0.0000 O   0  0  0  0  0  0  0  0  0  0  0  0
    3.3100    3.0000    0.0000 O   0  0  0  0  0  0  0  0  0  0  0  0
    3.3100   -3.0000    0.0000 O   0  0  0  0  0  0  0  0  0  0  0  0
    2.3100    2.0000    0.0000 O   0  0  0  0  0  0  0  0  0  0  0  0
    4.6760   -3.3660    0.0000 O   0  0  0  0  0  0  0  0  0  0  0  0
    6.4081    1.6340    0.0000 O   0  0  0  0  0  0  0  0  0  0  0  0
    5.7741   -2.0000    0.0000 O   0  0  0  0  0  0  0  0  0  0  0  0
    4.3100    2.0000    0.0000 O   0  0  0  0  0  0  0  0  0  0  0  0
    3.6760   -1.6340    0.0000 O   0  0  0  0  0  0  0  0  0  0  0  0
    5.0420    1.0000    0.0000 C   0  0  2  0  0  0  0  0  0  0  0  0
    5.9081   -0.5000    0.0000 C   0  0  1  0  0  0  0  0  0  0  0  0
    4.1760    0.5000    0.0000 C   0  0  2  0  0  0  0  0  0  0  0  0
    5.0420   -1.0000    0.0000 C   0  0  1  0  0  0  0  0  0  0  0  0
    5.9081    0.5000    0.0000 C   0  0  0  0  0  0  0  0  0  0  0  0
    4.1760   -0.5000    0.0000 C   0  0  0  0  0  0  0  0  0  0  0  0
    5.5790    1.3100    0.0000 H   0  0  0  0  0  0  0  0  0  0  0  0
    5.9081   -1.1200    0.0000 H   0  0  0  0  0  0  0  0  0  0  0  0
    4.1760    1.1200    0.0000 H   0  0  0  0  0  0  0  0  0  0  0  0
    5.5790   -1.3100    0.0000 H   0  0  0  0  0  0  0  0  0  0  0  0
    5.9081    1.1200    0.0000 H   0  0  0  0  0  0  0  0  0  0  0  0
    4.1760   -1.1200    0.0000 H   0  0  0  0  0  0  0  0  0  0  0  0
    7.3110    0.6900    0.0000 H   0  0  0  0  0  0  0  0  0  0  0  0
    2.7731   -0.6900    0.0000 H   0  0  0  0  0  0  0  0  0  0  0  0
    6.7741    3.6200    0.0000 H   0  0  0  0  0  0  0  0  0  0  0  0
    5.7181    3.9030    0.0000 H   0  0  0  0  0  0  0  0  0  0  0  0
    8.0841   -2.5369    0.0000 H   0  0  0  0  0  0  0  0  0  0  0  0
    7.3110   -3.3100    0.0000 H   0  0  0  0  0  0  0  0  0  0  0  0
    2.7731    3.3100    0.0000 H   0  0  0  0  0  0  0  0  0  0  0  0
    3.3100   -3.6200    0.0000 H   0  0  0  0  0  0  0  0  0  0  0  0
    2.0000    2.5369    0.0000 H   0  0  0  0  0  0  0  0  0  0  0  0
    4.3660   -3.9030    0.0000 H   0  0  0  0  0  0  0  0  0  0  0  0
  1  5  1  0  0  0  0
  1 11  1  0  0  0  0
  1 12  1  0  0  0  0
  1 19  2  0  0  0  0
  2  6  1  0  0  0  0
  2 13  1  0  0  0  0
  2 14  1  0  0  0  0
  2 20  2  0  0  0  0
  3  7  1  0  0  0  0
  3 15  1  0  0  0  0
  3 17  1  0  0  0  0
  3 21  2  0  0  0  0
  4  8  1  0  0  0  0
  4 16  1  0  0  0  0
  4 18  1  0  0  0  0
  4 22  2  0  0  0  0
 23  5  1  1  0  0  0
 24  6  1  1  0  0  0
 25  7  1  6  0  0  0
 26  8  1  6  0  0  0
  9 27  1  0  0  0  0
  9 35  1  0  0  0  0
 10 28  1  0  0  0  0
 10 36  1  0  0  0  0
 11 37  1  0  0  0  0
 12 38  1  0  0  0  0
 13 39  1  0  0  0  0
 14 40  1  0  0  0  0
 15 41  1  0  0  0  0
 16 42  1  0  0  0  0
 17 43  1  0  0  0  0
 18 44  1  0  0  0  0
 23 25  1  0  0  0  0
 23 27  1  0  0  0  0
 23 29  1  0  0  0  0
 24 26  1  0  0  0  0
 24 27  1  0  0  0  0
 24 30  1  0  0  0  0
 25 28  1  0  0  0  0
 25 31  1  0  0  0  0
 26 28  1  0  0  0  0
 26 32  1  0  0  0  0
 27 33  1  0  0  0  0
 28 34  1  0  0  0  0
M  END
> <PUBCHEM_COMPOUND_CID>
121969

> <PUBCHEM_COMPOUND_CANONICALIZED>
1

> <PUBCHEM_CACTVS_COMPLEXITY>
604

> <PUBCHEM_CACTVS_HBOND_ACCEPTOR>
18

> <PUBCHEM_CACTVS_HBOND_DONOR>
10

> <PUBCHEM_CACTVS_ROTATABLE_BOND>
8

> <PUBCHEM_CACTVS_SUBSKEYS>
AAADceBgPgOAAAAAAAAAAAAAAAAAAAAAAAAwAAAAAAAAAAAAAAAAGgAACCAACBSggAIAAAAAAxAAQAAAAIAAAAAAAAAAAAAAAAABEAIAAAAAQAAFAAABAAHAYAQAAAAAAAAAAAACAAAQAACAAAAAAAAAAA==

> <PUBCHEM_IUPAC_OPENEYE_NAME>
[(1S,3R,4R,6S)-2,5-dihydroxy-3,4,6-triphosphonooxy-cyclohexyl] dihydrogen phosphate

> <PUBCHEM_IUPAC_CAS_NAME>
[(1S,3R,4R,6S)-2,5-dihydroxy-3,4,6-triphosphonooxycyclohexyl] dihydrogen phosphate

> <PUBCHEM_IUPAC_NAME>
[(1S,3R,4R,6S)-2,5-dihydroxy-3,4,6-triphosphonooxycyclohexyl] dihydrogen phosphate

> <PUBCHEM_IUPAC_SYSTEMATIC_NAME>
[(1S,3R,4R,6S)-2,5-bis(oxidanyl)-3,4,6-triphosphonooxy-cyclohexyl] dihydrogen phosphate

> <PUBCHEM_IUPAC_TRADITIONAL_NAME>
[(1S,3R,4R,6S)-2,5-dihydroxy-3,4,6-triphosphonooxy-cyclohexyl] dihydrogen phosphate

> <PUBCHEM_IUPAC_INCHI>
InChI=1S/C6H16O18P4/c7-1-3(21-25(9,10)11)5(23-27(15,16)17)2(8)6(24-28(18,19)20)4(1)22-26(12,13)14/h1-8H,(H2,9,10,11)(H2,12,13,14)(H2,15,16,17)(H2,18,19,20)/t1?,2?,3-,4+,5-,6+

> <PUBCHEM_IUPAC_INCHIKEY>
ZAWIXNGTTZTBKV-IUHIMVDQSA-N

> <PUBCHEM_XLOGP3_AA>
-8.1

> <PUBCHEM_EXACT_MASS>
499.92871

> <PUBCHEM_MOLECULAR_FORMULA>
C6H16O18P4

> <PUBCHEM_MOLECULAR_WEIGHT>
500.075488

> <PUBCHEM_OPENEYE_CAN_SMILES>
C1(C(C(C(C(C1OP(=O)(O)O)OP(=O)(O)O)O)OP(=O)(O)O)OP(=O)(O)O)O

> <PUBCHEM_OPENEYE_ISO_SMILES>
[C@H]1([C@H](C([C@H]([C@@H](C1O)OP(=O)(O)O)OP(=O)(O)O)O)OP(=O)(O)O)OP(=O)(O)O

> <PUBCHEM_CACTVS_TPSA>
308

> <PUBCHEM_MONOISOTOPIC_WEIGHT>
499.92871

> <PUBCHEM_TOTAL_CHARGE>
0

> <PUBCHEM_HEAVY_ATOM_COUNT>
28

> <PUBCHEM_ATOM_DEF_STEREO_COUNT>
4

> <PUBCHEM_ATOM_UDEF_STEREO_COUNT>
0

> <PUBCHEM_BOND_DEF_STEREO_COUNT>
0

> <PUBCHEM_BOND_UDEF_STEREO_COUNT>
0

> <PUBCHEM_ISOTOPIC_ATOM_COUNT>
0

> <PUBCHEM_COMPONENT_COUNT>
1

> <PUBCHEM_CACTVS_TAUTO_COUNT>
1

> <PUBCHEM_COORDINATE_TYPE>
1
5
255

> <PUBCHEM_BONDANNOTATIONS>
23  5  5
24  6  5
25  7  6
26  8  6

$$$$

