   Color/Form

     * Monoclinic prisms
     * Crystalline scales or powder
     * Solid
     * WHITE, GLISTENING CRYSTALS, USUALLY SCALES, OR AS FINE WHITE,
       CRYSTALLINE POWDER

   from [1]HSDB

   Odor
        ODORLESS
   from [2]HSDB

   Taste
        Slightly bitter
   from [3]HSDB

   Boiling Point
        242-245 deg C
   from [4]HSDB

   Melting Point
        134-135 deg C
   from [5]HSDB

   Octanol/Water Partition Coefficient
        log Kow = 1.58
   from [6]HSDB

   pH
        SATURATED SOLN IS NEUTRAL TO LITMUS
   from [7]HSDB

   Solubilities

     * 1 g dissolves in 1310 mL cold water, 82 mL boiling water, 15 mL
       cold alcohol, 2.8 mL boiling alcohol, 14 mL chloroform, 90 mL
       ether; sol in glycerol.
     * Very sol in pyrimidine; sol in ethanol, acetone; slightly sol in
       benzene. ethyl ether.
     * In water, 766 mg/L at 25 deg C

   from [8]HSDB

   Spectral Properties

     * Index of refraction = 1.571at 25 deg C/D
     * MAX ABSORPTION (ETHANOL): 250 NM; (CHLOROFORM & ISOOCTANE): 285 NM
     * MASS: 107172 (NIST/EPA/MSDC Mass Spectral database, 1990 version;
       22 (Aldermaston, eoght Peak Index of Mass Spectra, U.K.)
     * IR: 5159 (Coblentz Society spectral collection)
     * UV: 548 (Adsorption Spectra in the UV and Visible Region, Academic
       Press, New York)
     * Raman: 519 (Sadtler Research Laboratories spectral collection)
     * Intense mass spectral peaks: 108 m/z, 109 m/z, 137 m/z, 179 m/z

   from [9]HSDB

   Vapor Pressure
        6.29X10-7 mm Hg at 25 deg C
   from [10]HSDB

   Other Chemical/Physical Properties

     * BP: DECOMP
     * Henry's Law constant = 2.13X10-10 atm-cu m/ mol at 25 deg C (est)
     * Hydroxyl radical reaction rate constant = 1.75X10-11 cu
       cm/molec-sec at 25 deg C (est)

   from [11]HSDB

   Computed Properties
   Molecular Weight                  179.21572 [g/mol]
   Molecular Formula                 C[10]H[13]NO[2]
   XLogP3                            1.6
   H-Bond Donor                      1
   H-Bond Acceptor                   2
   Rotatable Bond Count              3
   Tautomer Count                    3
   Exact Mass                        179.094629
   MonoIsotopic Mass                 179.094629
   Topological Polar Surface Area    38.3
   Heavy Atom Count                  13
   Formal Charge                     0
   Complexity                        162
   Isotope Atom Count                0
   Defined Atom Stereocenter Count   0
   Undefined Atom Stereocenter Count 0
   Defined Bond Stereocenter Count   0
   Undefined Bond Stereocenter Count 0
   Covalently-Bonded Unit Count      1
   Feature 3D Acceptor Count         2
   Feature 3D Donor Count            1
   Feature 3D Ring Count             1
   Effective Rotor Count             4
   Conformer Sampling RMSD           0.6
   CID Conformer Count               [12]8

References

   1. http://toxnet.nlm.nih.gov/cgi-bin/sis/search/r?dbs+hsdb:@term+@rn+@rel+62-44-2
   2. http://toxnet.nlm.nih.gov/cgi-bin/sis/search/r?dbs+hsdb:@term+@rn+@rel+62-44-2
   3. http://toxnet.nlm.nih.gov/cgi-bin/sis/search/r?dbs+hsdb:@term+@rn+@rel+62-44-2
   4. http://toxnet.nlm.nih.gov/cgi-bin/sis/search/r?dbs+hsdb:@term+@rn+@rel+62-44-2
   5. http://toxnet.nlm.nih.gov/cgi-bin/sis/search/r?dbs+hsdb:@term+@rn+@rel+62-44-2
   6. http://toxnet.nlm.nih.gov/cgi-bin/sis/search/r?dbs+hsdb:@term+@rn+@rel+62-44-2
   7. http://toxnet.nlm.nih.gov/cgi-bin/sis/search/r?dbs+hsdb:@term+@rn+@rel+62-44-2
   8. http://toxnet.nlm.nih.gov/cgi-bin/sis/search/r?dbs+hsdb:@term+@rn+@rel+62-44-2
   9. http://toxnet.nlm.nih.gov/cgi-bin/sis/search/r?dbs+hsdb:@term+@rn+@rel+62-44-2
  10. http://toxnet.nlm.nih.gov/cgi-bin/sis/search/r?dbs+hsdb:@term+@rn+@rel+62-44-2
  11. http://toxnet.nlm.nih.gov/cgi-bin/sis/search/r?dbs+hsdb:@term+@rn+@rel+62-44-2
  12. http://pubchem.ncbi.nlm.nih.gov/vw3d/vw3d.cgi?cid=4754
