44374
  -OEChem-07051213142D

 34 38  0     0  0  0  0  0  0999 V2000
    5.5161    2.7663    0.0000 O   0  5  0  0  0  0  0  0  0  0  0  0
    6.3821    1.2663    0.0000 O   0  0  0  0  0  0  0  0  0  0  0  0
    5.5161    1.7663    0.0000 N   0  3  0  0  0  0  0  0  0  0  0  0
    3.7841   -0.2337    0.0000 C   0  0  0  0  0  0  0  0  0  0  0  0
    3.8001   -1.2752    0.0000 C   0  0  0  0  0  0  0  0  0  0  0  0
    2.9180    0.2663    0.0000 C   0  0  0  0  0  0  0  0  0  0  0  0
    4.6501    0.2663    0.0000 C   0  0  0  0  0  0  0  0  0  0  0  0
    2.9180    1.2663    0.0000 C   0  0  0  0  0  0  0  0  0  0  0  0
    2.9021   -1.8030    0.0000 C   0  0  0  0  0  0  0  0  0  0  0  0
    3.7841    1.7663    0.0000 C   0  0  0  0  0  0  0  0  0  0  0  0
    4.6772   -1.7380    0.0000 C   0  0  0  0  0  0  0  0  0  0  0  0
    4.6501    1.2663    0.0000 C   0  0  0  0  0  0  0  0  0  0  0  0
    2.0080   -0.2406    0.0000 C   0  0  0  0  0  0  0  0  0  0  0  0
    5.5095   -0.2285    0.0000 C   0  0  0  0  0  0  0  0  0  0  0  0
    2.0000   -1.2822    0.0000 C   0  0  0  0  0  0  0  0  0  0  0  0
    5.5230   -1.2201    0.0000 C   0  0  0  0  0  0  0  0  0  0  0  0
    2.9282   -2.8445    0.0000 C   0  0  0  0  0  0  0  0  0  0  0  0
    4.7274   -2.7786    0.0000 C   0  0  0  0  0  0  0  0  0  0  0  0
    2.0080    1.7731    0.0000 C   0  0  0  0  0  0  0  0  0  0  0  0
    3.8001    2.8078    0.0000 C   0  0  0  0  0  0  0  0  0  0  0  0
    3.8470   -3.3356    0.0000 C   0  0  0  0  0  0  0  0  0  0  0  0
    2.0000    2.8147    0.0000 C   0  0  0  0  0  0  0  0  0  0  0  0
    2.9021    3.3356    0.0000 C   0  0  0  0  0  0  0  0  0  0  0  0
    1.4747    0.0756    0.0000 H   0  0  0  0  0  0  0  0  0  0  0  0
    6.0442    0.0855    0.0000 H   0  0  0  0  0  0  0  0  0  0  0  0
    1.4619   -1.5901    0.0000 H   0  0  0  0  0  0  0  0  0  0  0  0
    6.0659   -1.5195    0.0000 H   0  0  0  0  0  0  0  0  0  0  0  0
    2.4004   -3.1698    0.0000 H   0  0  0  0  0  0  0  0  0  0  0  0
    5.2775   -3.0645    0.0000 H   0  0  0  0  0  0  0  0  0  0  0  0
    1.4747    1.4569    0.0000 H   0  0  0  0  0  0  0  0  0  0  0  0
    4.3406    3.1116    0.0000 H   0  0  0  0  0  0  0  0  0  0  0  0
    3.8696   -3.9551    0.0000 H   0  0  0  0  0  0  0  0  0  0  0  0
    1.4619    3.1227    0.0000 H   0  0  0  0  0  0  0  0  0  0  0  0
    2.9045    3.9555    0.0000 H   0  0  0  0  0  0  0  0  0  0  0  0
  1  3  1  0  0  0  0
  2  3  2  0  0  0  0
  3 12  1  0  0  0  0
  4  5  1  0  0  0  0
  4  6  2  0  0  0  0
  4  7  1  0  0  0  0
  5  9  2  0  0  0  0
  5 11  1  0  0  0  0
  6  8  1  0  0  0  0
  6 13  1  0  0  0  0
  7 12  2  0  0  0  0
  7 14  1  0  0  0  0
  8 10  1  0  0  0  0
  8 19  2  0  0  0  0
  9 15  1  0  0  0  0
  9 17  1  0  0  0  0
 10 12  1  0  0  0  0
 10 20  2  0  0  0  0
 11 16  1  0  0  0  0
 11 18  2  0  0  0  0
 13 15  2  0  0  0  0
 13 24  1  0  0  0  0
 14 16  2  0  0  0  0
 14 25  1  0  0  0  0
 15 26  1  0  0  0  0
 16 27  1  0  0  0  0
 17 21  2  0  0  0  0
 17 28  1  0  0  0  0
 18 21  1  0  0  0  0
 18 29  1  0  0  0  0
 19 22  1  0  0  0  0
 19 30  1  0  0  0  0
 20 23  1  0  0  0  0
 20 31  1  0  0  0  0
 21 32  1  0  0  0  0
 22 23  2  0  0  0  0
 22 33  1  0  0  0  0
 23 34  1  0  0  0  0
M  CHG  2   1  -1   3   1
M  END
> <PUBCHEM_COMPOUND_CID>
44374

> <PUBCHEM_COMPOUND_CANONICALIZED>
1

> <PUBCHEM_CACTVS_COMPLEXITY>
487

> <PUBCHEM_CACTVS_HBOND_ACCEPTOR>
2

> <PUBCHEM_CACTVS_HBOND_DONOR>
0

> <PUBCHEM_CACTVS_ROTATABLE_BOND>
0

> <PUBCHEM_CACTVS_SUBSKEYS>
AAADccB6MAAAAAAAAAAAAAAAAAAAAAAAAAAwYMGDAAAAAADBVAAAHAAEAAAADAiBGAAwwMAQQACBAiRCQwCCAAAgAAAoiAAARIoIICKAkZGAIABggAAIyAcQgMAOyAACQAASAACQAASAACQAAAAAAAAAAA==

> <PUBCHEM_IUPAC_OPENEYE_NAME>
6-nitrobenzo[a]pyrene

> <PUBCHEM_IUPAC_CAS_NAME>
6-nitrobenzo[a]pyrene

> <PUBCHEM_IUPAC_NAME>
6-nitrobenzo[a]pyrene

> <PUBCHEM_IUPAC_SYSTEMATIC_NAME>
6-nitrobenzo[a]pyrene

> <PUBCHEM_IUPAC_TRADITIONAL_NAME>
6-nitrobenzo[a]pyrene

> <PUBCHEM_IUPAC_INCHI>
InChI=1S/C20H11NO2/c22-21(23)20-16-7-2-1-6-14(16)15-10-8-12-4-3-5-13-9-11-17(20)19(15)18(12)13/h1-11H

> <PUBCHEM_IUPAC_INCHIKEY>
NMMAFYSZGOFZCM-UHFFFAOYSA-N

> <PUBCHEM_XLOGP3>
6.6

> <PUBCHEM_EXACT_MASS>
297.078979

> <PUBCHEM_MOLECULAR_FORMULA>
C20H11NO2

> <PUBCHEM_MOLECULAR_WEIGHT>
297.30684

> <PUBCHEM_OPENEYE_CAN_SMILES>
C1=CC=C2C(=C1)C3=C4C(=C2[N+](=O)[O-])C=CC5=CC=CC(=C54)C=C3

> <PUBCHEM_OPENEYE_ISO_SMILES>
C1=CC=C2C(=C1)C3=C4C(=C2[N+](=O)[O-])C=CC5=CC=CC(=C54)C=C3

> <PUBCHEM_CACTVS_TPSA>
45.8

> <PUBCHEM_MONOISOTOPIC_WEIGHT>
297.078979

> <PUBCHEM_TOTAL_CHARGE>
0

> <PUBCHEM_HEAVY_ATOM_COUNT>
23

> <PUBCHEM_ATOM_DEF_STEREO_COUNT>
0

> <PUBCHEM_ATOM_UDEF_STEREO_COUNT>
0

> <PUBCHEM_BOND_DEF_STEREO_COUNT>
0

> <PUBCHEM_BOND_UDEF_STEREO_COUNT>
0

> <PUBCHEM_ISOTOPIC_ATOM_COUNT>
0

> <PUBCHEM_COMPONENT_COUNT>
1

> <PUBCHEM_CACTVS_TAUTO_COUNT>
1

> <PUBCHEM_COORDINATE_TYPE>
1
5
255

> <PUBCHEM_BONDANNOTATIONS>
10  12  8
10  20  8
11  16  8
11  18  8
13  15  8
14  16  8
17  21  8
18  21  8
19  22  8
20  23  8
22  23  8
4  5  8
4  6  8
4  7  8
5  11  8
5  9  8
6  13  8
6  8  8
7  12  8
7  14  8
8  10  8
8  19  8
9  15  8
9  17  8

$$$$

