13338
  -OEChem-06261209072D

 47 49  0     1  0  0  0  0  0999 V2000
    5.8898   -0.0482    0.0000 O   0  0  0  0  0  0  0  0  0  0  0  0
    5.0550    2.4624    0.0000 N   0  0  0  0  0  0  0  0  0  0  0  0
    5.5071   -0.9721    0.0000 C   0  0  3  0  0  0  0  0  0  0  0  0
    4.5071   -0.9721    0.0000 C   0  0  0  0  0  0  0  0  0  0  0  0
    6.2142   -1.6792    0.0000 C   0  0  0  0  0  0  0  0  0  0  0  0
    5.5071   -3.3863    0.0000 C   0  0  0  0  0  0  0  0  0  0  0  0
    3.8000   -1.6792    0.0000 C   0  0  0  0  0  0  0  0  0  0  0  0
    6.2142   -2.6792    0.0000 C   0  0  0  0  0  0  0  0  0  0  0  0
    4.5071   -3.3863    0.0000 C   0  0  0  0  0  0  0  0  0  0  0  0
    3.8000   -2.6792    0.0000 C   0  0  0  0  0  0  0  0  0  0  0  0
    7.1082   -1.1445    0.0000 C   0  0  0  0  0  0  0  0  0  0  0  0
    7.1082   -3.2138    0.0000 C   0  0  0  0  0  0  0  0  0  0  0  0
    2.9061   -1.1445    0.0000 C   0  0  0  0  0  0  0  0  0  0  0  0
    5.2810    0.7452    0.0000 C   0  0  0  0  0  0  0  0  0  0  0  0
    2.9061   -3.2138    0.0000 C   0  0  0  0  0  0  0  0  0  0  0  0
    5.6637    1.6690    0.0000 C   0  0  0  0  0  0  0  0  0  0  0  0
    8.0142   -1.6584    0.0000 C   0  0  0  0  0  0  0  0  0  0  0  0
    8.0142   -2.7000    0.0000 C   0  0  0  0  0  0  0  0  0  0  0  0
    2.0000   -1.6584    0.0000 C   0  0  0  0  0  0  0  0  0  0  0  0
    2.0000   -2.7000    0.0000 C   0  0  0  0  0  0  0  0  0  0  0  0
    5.4376    3.3863    0.0000 C   0  0  0  0  0  0  0  0  0  0  0  0
    4.0635    2.3319    0.0000 C   0  0  0  0  0  0  0  0  0  0  0  0
    5.1627   -0.4566    0.0000 H   0  0  0  0  0  0  0  0  0  0  0  0
    4.6676   -0.3732    0.0000 H   0  0  0  0  0  0  0  0  0  0  0  0
    3.9702   -0.6621    0.0000 H   0  0  0  0  0  0  0  0  0  0  0  0
    5.3466   -3.9852    0.0000 H   0  0  0  0  0  0  0  0  0  0  0  0
    6.0441   -3.6963    0.0000 H   0  0  0  0  0  0  0  0  0  0  0  0
    3.9702   -3.6963    0.0000 H   0  0  0  0  0  0  0  0  0  0  0  0
    4.6676   -3.9852    0.0000 H   0  0  0  0  0  0  0  0  0  0  0  0
    7.1010   -0.5246    0.0000 H   0  0  0  0  0  0  0  0  0  0  0  0
    7.1010   -3.8338    0.0000 H   0  0  0  0  0  0  0  0  0  0  0  0
    2.9132   -0.5246    0.0000 H   0  0  0  0  0  0  0  0  0  0  0  0
    4.7581    1.0783    0.0000 H   0  0  0  0  0  0  0  0  0  0  0  0
    4.8622    0.2881    0.0000 H   0  0  0  0  0  0  0  0  0  0  0  0
    2.9132   -3.8338    0.0000 H   0  0  0  0  0  0  0  0  0  0  0  0
    6.1866    1.3359    0.0000 H   0  0  0  0  0  0  0  0  0  0  0  0
    6.0826    2.1262    0.0000 H   0  0  0  0  0  0  0  0  0  0  0  0
    8.5500   -1.3463    0.0000 H   0  0  0  0  0  0  0  0  0  0  0  0
    8.5500   -3.0121    0.0000 H   0  0  0  0  0  0  0  0  0  0  0  0
    1.4643   -1.3463    0.0000 H   0  0  0  0  0  0  0  0  0  0  0  0
    1.4643   -3.0121    0.0000 H   0  0  0  0  0  0  0  0  0  0  0  0
    3.9826    2.9466    0.0000 H   0  0  0  0  0  0  0  0  0  0  0  0
    3.4488    2.2510    0.0000 H   0  0  0  0  0  0  0  0  0  0  0  0
    6.0104    3.1490    0.0000 H   0  0  0  0  0  0  0  0  0  0  0  0
    5.6749    3.9591    0.0000 H   0  0  0  0  0  0  0  0  0  0  0  0
    4.8648    3.6235    0.0000 H   0  0  0  0  0  0  0  0  0  0  0  0
    4.1444    1.7172    0.0000 H   0  0  0  0  0  0  0  0  0  0  0  0
  1  3  1  0  0  0  0
  1 14  1  0  0  0  0
  2 16  1  0  0  0  0
  2 21  1  0  0  0  0
  2 22  1  0  0  0  0
  3  4  1  0  0  0  0
  3  5  1  0  0  0  0
  3 23  1  0  0  0  0
  4  7  1  0  0  0  0
  4 24  1  0  0  0  0
  4 25  1  0  0  0  0
  5  8  1  0  0  0  0
  5 11  2  0  0  0  0
  6  8  1  0  0  0  0
  6  9  1  0  0  0  0
  6 26  1  0  0  0  0
  6 27  1  0  0  0  0
  7 10  1  0  0  0  0
  7 13  2  0  0  0  0
  8 12  2  0  0  0  0
  9 10  1  0  0  0  0
  9 28  1  0  0  0  0
  9 29  1  0  0  0  0
 10 15  2  0  0  0  0
 11 17  1  0  0  0  0
 11 30  1  0  0  0  0
 12 18  1  0  0  0  0
 12 31  1  0  0  0  0
 13 19  1  0  0  0  0
 13 32  1  0  0  0  0
 14 16  1  0  0  0  0
 14 33  1  0  0  0  0
 14 34  1  0  0  0  0
 15 20  1  0  0  0  0
 15 35  1  0  0  0  0
 16 36  1  0  0  0  0
 16 37  1  0  0  0  0
 17 18  2  0  0  0  0
 17 38  1  0  0  0  0
 18 39  1  0  0  0  0
 19 20  2  0  0  0  0
 19 40  1  0  0  0  0
 20 41  1  0  0  0  0
 21 44  1  0  0  0  0
 21 45  1  0  0  0  0
 21 46  1  0  0  0  0
 22 42  1  0  0  0  0
 22 43  1  0  0  0  0
 22 47  1  0  0  0  0
M  END
> <PUBCHEM_COMPOUND_CID>
13338

> <PUBCHEM_COMPOUND_CANONICALIZED>
1

> <PUBCHEM_CACTVS_COMPLEXITY>
330

> <PUBCHEM_CACTVS_HBOND_ACCEPTOR>
2

> <PUBCHEM_CACTVS_HBOND_DONOR>
0

> <PUBCHEM_CACTVS_ROTATABLE_BOND>
4

> <PUBCHEM_CACTVS_SUBSKEYS>
AAADceB6IAAAAAAAAAAAAAAAAAAAAAAAAAAwYAAAAAAYAAABQAAAHgAAAAAADBThmAYyAIMABACAAiBCAAACAAAgAAAIiAAICIgKJiKAMRiDMAAkwAEYqAeAwOAOgAAAAAAQAAAAAAAAACAAAAAAAAAAAA==

> <PUBCHEM_IUPAC_OPENEYE_NAME>
N,N-dimethyl-2-(5,6,11,12-tetrahydrodibenzo[1,2-b:1',2'-g][8]annulen-5-yloxy)ethanamine

> <PUBCHEM_IUPAC_CAS_NAME>
N,N-dimethyl-2-(5,6,11,12-tetrahydrodibenzo[1,2-b:1',2'-g][8]annulen-5-yloxy)ethanamine

> <PUBCHEM_IUPAC_NAME>
N,N-dimethyl-2-(5,6,11,12-tetrahydrodibenzo[1,2-b:1',2'-g][8]annulen-5-yloxy)ethanamine

> <PUBCHEM_IUPAC_SYSTEMATIC_NAME>
N,N-dimethyl-2-(5,6,11,12-tetrahydrodibenzo[1,2-b:1',2'-g][8]annulen-5-yloxy)ethanamine

> <PUBCHEM_IUPAC_TRADITIONAL_NAME>
dimethyl-[2-(5,6,11,12-tetrahydrodibenzo[1,2-b:1',2'-g]cycloocten-5-yloxy)ethyl]amine

> <PUBCHEM_IUPAC_INCHI>
InChI=1S/C20H25NO/c1-21(2)13-14-22-20-15-18-9-4-3-7-16(18)11-12-17-8-5-6-10-19(17)20/h3-10,20H,11-15H2,1-2H3

> <PUBCHEM_IUPAC_INCHIKEY>
HOJUHOKTHAVHTK-UHFFFAOYSA-N

> <PUBCHEM_XLOGP3_AA>
3.9

> <PUBCHEM_EXACT_MASS>
295.193614

> <PUBCHEM_MOLECULAR_FORMULA>
C20H25NO

> <PUBCHEM_MOLECULAR_WEIGHT>
295.4186

> <PUBCHEM_OPENEYE_CAN_SMILES>
CN(C)CCOC1CC2=CC=CC=C2CCC3=CC=CC=C13

> <PUBCHEM_OPENEYE_ISO_SMILES>
CN(C)CCOC1CC2=CC=CC=C2CCC3=CC=CC=C13

> <PUBCHEM_CACTVS_TPSA>
12.5

> <PUBCHEM_MONOISOTOPIC_WEIGHT>
295.193614

> <PUBCHEM_TOTAL_CHARGE>
0

> <PUBCHEM_HEAVY_ATOM_COUNT>
22

> <PUBCHEM_ATOM_DEF_STEREO_COUNT>
0

> <PUBCHEM_ATOM_UDEF_STEREO_COUNT>
1

> <PUBCHEM_BOND_DEF_STEREO_COUNT>
0

> <PUBCHEM_BOND_UDEF_STEREO_COUNT>
0

> <PUBCHEM_ISOTOPIC_ATOM_COUNT>
0

> <PUBCHEM_COMPONENT_COUNT>
1

> <PUBCHEM_CACTVS_TAUTO_COUNT>
1

> <PUBCHEM_COORDINATE_TYPE>
1
5
255

> <PUBCHEM_BONDANNOTATIONS>
3  1  3
10  15  8
11  17  8
12  18  8
13  19  8
15  20  8
17  18  8
19  20  8
5  11  8
5  8  8
7  10  8
7  13  8
8  12  8

$$$$

