46173857
  -OEChem-07051213092D

113120  0     1  0  0  0  0  0999 V2000
    5.5954   -4.3745    0.0000 O   0  0  0  0  0  0  0  0  0  0  0  0
    3.9300   -3.2933    0.0000 O   0  0  0  0  0  0  0  0  0  0  0  0
    8.3882    0.9630    0.0000 O   0  0  0  0  0  0  0  0  0  0  0  0
   12.0027    1.0048    0.0000 O   0  0  0  0  0  0  0  0  0  0  0  0
    9.2252    2.4794    0.0000 O   0  0  0  0  0  0  0  0  0  0  0  0
    6.6372    1.9294    0.0000 O   0  0  0  0  0  0  0  0  0  0  0  0
    6.5986    3.9290    0.0000 O   0  0  0  0  0  0  0  0  0  0  0  0
    8.3111    4.9622    0.0000 O   0  0  0  0  0  0  0  0  0  0  0  0
    5.7424    3.4124    0.0000 O   0  0  0  0  0  0  0  0  0  0  0  0
    4.9247    0.8962    0.0000 O   0  0  0  0  0  0  0  0  0  0  0  0
    3.1737    1.8626    0.0000 O   0  0  0  0  0  0  0  0  0  0  0  0
    3.1352    3.8623    0.0000 O   0  0  0  0  0  0  0  0  0  0  0  0
    6.6628   -2.1396    0.0000 C   0  0  1  0  0  0  0  0  0  0  0  0
    7.5288   -2.6396    0.0000 C   0  0  2  0  0  0  0  0  0  0  0  0
    5.9258   -2.8067    0.0000 C   0  0  2  0  0  0  0  0  0  0  0  0
    8.3948   -2.1396    0.0000 C   0  0  1  0  0  0  0  0  0  0  0  0
    6.3309   -3.7145    0.0000 C   0  0  2  0  0  0  0  0  0  0  0  0
    8.3948   -1.1396    0.0000 C   0  0  2  0  0  0  0  0  0  0  0  0
    7.3196   -3.6114    0.0000 C   0  0  0  0  0  0  0  0  0  0  0  0
    6.6628   -1.1396    0.0000 C   0  0  0  0  0  0  0  0  0  0  0  0
    4.9434   -2.9134    0.0000 C   0  0  1  0  0  0  0  0  0  0  0  0
    7.5288   -0.6396    0.0000 C   0  0  0  0  0  0  0  0  0  0  0  0
    9.2888   -0.6050    0.0000 C   0  0  2  0  0  0  0  0  0  0  0  0
    4.7396   -3.8804    0.0000 C   0  0  1  0  0  0  0  0  0  0  0  0
    5.7968   -1.6396    0.0000 C   0  0  0  0  0  0  0  0  0  0  0  0
    9.2888   -2.6743    0.0000 C   0  0  0  0  0  0  0  0  0  0  0  0
   10.1949   -1.1188    0.0000 C   0  0  0  0  0  0  0  0  0  0  0  0
    9.2637    0.4797    0.0000 C   0  0  1  0  0  0  0  0  0  0  0  0
    4.2723   -2.1720    0.0000 C   0  0  0  0  0  0  0  0  0  0  0  0
   10.1949   -2.1604    0.0000 C   0  0  0  0  0  0  0  0  0  0  0  0
    4.6359   -4.8750    0.0000 C   0  0  0  0  0  0  0  0  0  0  0  0
    8.4189   -0.1117    0.0000 C   0  0  0  0  0  0  0  0  0  0  0  0
   11.1386   -0.5836    0.0000 C   0  0  0  0  0  0  0  0  0  0  0  0
   10.1949    1.0367    0.0000 C   0  0  0  0  0  0  0  0  0  0  0  0
   11.1386    0.5014    0.0000 C   0  0  2  0  0  0  0  0  0  0  0  0
    3.7227   -5.2825    0.0000 C   0  0  0  0  0  0  0  0  0  0  0  0
    2.9132   -4.6954    0.0000 C   0  0  2  0  0  0  0  0  0  0  0  0
    3.0169   -3.7008    0.0000 C   0  0  0  0  0  0  0  0  0  0  0  0
    8.3689    1.9628    0.0000 C   0  0  2  0  0  0  0  0  0  0  0  0
    2.0000   -5.1029    0.0000 C   0  0  0  0  0  0  0  0  0  0  0  0
    7.4934    2.4460    0.0000 C   0  0  1  0  0  0  0  0  0  0  0  0
    7.4742    3.4458    0.0000 C   0  0  2  0  0  0  0  0  0  0  0  0
    9.2059    3.4792    0.0000 C   0  0  1  0  0  0  0  0  0  0  0  0
    8.3304    3.9624    0.0000 C   0  0  2  0  0  0  0  0  0  0  0  0
   10.0621    3.9958    0.0000 C   0  0  0  0  0  0  0  0  0  0  0  0
    5.7617    2.4126    0.0000 C   0  0  2  0  0  0  0  0  0  0  0  0
    4.9055    1.8960    0.0000 C   0  0  1  0  0  0  0  0  0  0  0  0
    4.0300    2.3792    0.0000 C   0  0  1  0  0  0  0  0  0  0  0  0
    4.8669    3.8956    0.0000 C   0  0  2  0  0  0  0  0  0  0  0  0
    4.0107    3.3790    0.0000 C   0  0  2  0  0  0  0  0  0  0  0  0
    4.8476    4.8954    0.0000 C   0  0  0  0  0  0  0  0  0  0  0  0
    8.2158   -3.1401    0.0000 H   0  0  0  0  0  0  0  0  0  0  0  0
    5.5777   -2.0312    0.0000 H   0  0  0  0  0  0  0  0  0  0  0  0
    8.3883   -2.9896    0.0000 H   0  0  0  0  0  0  0  0  0  0  0  0
    6.6756   -4.4915    0.0000 H   0  0  0  0  0  0  0  0  0  0  0  0
    8.3883   -0.2897    0.0000 H   0  0  0  0  0  0  0  0  0  0  0  0
    7.3187   -4.2314    0.0000 H   0  0  0  0  0  0  0  0  0  0  0  0
    7.9361   -3.6775    0.0000 H   0  0  0  0  0  0  0  0  0  0  0  0
    6.4507   -0.5570    0.0000 H   0  0  0  0  0  0  0  0  0  0  0  0
    6.0522   -1.2473    0.0000 H   0  0  0  0  0  0  0  0  0  0  0  0
    5.1638   -2.3339    0.0000 H   0  0  0  0  0  0  0  0  0  0  0  0
    7.9274   -0.1647    0.0000 H   0  0  0  0  0  0  0  0  0  0  0  0
    7.1303   -0.1647    0.0000 H   0  0  0  0  0  0  0  0  0  0  0  0
    6.1068   -1.1027    0.0000 H   0  0  0  0  0  0  0  0  0  0  0  0
    5.2598   -1.3296    0.0000 H   0  0  0  0  0  0  0  0  0  0  0  0
    5.4868   -2.1766    0.0000 H   0  0  0  0  0  0  0  0  0  0  0  0
    8.8842   -3.1441    0.0000 H   0  0  0  0  0  0  0  0  0  0  0  0
    9.6824   -3.1533    0.0000 H   0  0  0  0  0  0  0  0  0  0  0  0
    9.2529    1.0996    0.0000 H   0  0  0  0  0  0  0  0  0  0  0  0
    4.7320   -1.7560    0.0000 H   0  0  0  0  0  0  0  0  0  0  0  0
    3.8562   -1.7123    0.0000 H   0  0  0  0  0  0  0  0  0  0  0  0
    3.8126   -2.5881    0.0000 H   0  0  0  0  0  0  0  0  0  0  0  0
   10.7306   -2.4725    0.0000 H   0  0  0  0  0  0  0  0  0  0  0  0
    4.7864   -5.4764    0.0000 H   0  0  0  0  0  0  0  0  0  0  0  0
    5.2544   -4.8312    0.0000 H   0  0  0  0  0  0  0  0  0  0  0  0
    8.7248    0.4276    0.0000 H   0  0  0  0  0  0  0  0  0  0  0  0
    7.8796    0.1942    0.0000 H   0  0  0  0  0  0  0  0  0  0  0  0
    8.1131   -0.6510    0.0000 H   0  0  0  0  0  0  0  0  0  0  0  0
   11.3477   -1.1673    0.0000 H   0  0  0  0  0  0  0  0  0  0  0  0
   11.7495   -0.4775    0.0000 H   0  0  0  0  0  0  0  0  0  0  0  0
   10.5885    1.5157    0.0000 H   0  0  0  0  0  0  0  0  0  0  0  0
    9.7903    1.5064    0.0000 H   0  0  0  0  0  0  0  0  0  0  0  0
   11.1351    1.1214    0.0000 H   0  0  0  0  0  0  0  0  0  0  0  0
    3.2771   -5.7136    0.0000 H   0  0  0  0  0  0  0  0  0  0  0  0
    4.0699   -5.7962    0.0000 H   0  0  0  0  0  0  0  0  0  0  0  0
    2.4113   -4.3314    0.0000 H   0  0  0  0  0  0  0  0  0  0  0  0
    2.8664   -3.0994    0.0000 H   0  0  0  0  0  0  0  0  0  0  0  0
    2.3984   -3.7446    0.0000 H   0  0  0  0  0  0  0  0  0  0  0  0
    7.8381    1.6425    0.0000 H   0  0  0  0  0  0  0  0  0  0  0  0
    1.7473   -4.5368    0.0000 H   0  0  0  0  0  0  0  0  0  0  0  0
    1.4338   -5.3556    0.0000 H   0  0  0  0  0  0  0  0  0  0  0  0
    2.2527   -5.6691    0.0000 H   0  0  0  0  0  0  0  0  0  0  0  0
   12.5409    0.6968    0.0000 H   0  0  0  0  0  0  0  0  0  0  0  0
    6.9506    2.7456    0.0000 H   0  0  0  0  0  0  0  0  0  0  0  0
    7.4622    4.0657    0.0000 H   0  0  0  0  0  0  0  0  0  0  0  0
    9.7487    3.1796    0.0000 H   0  0  0  0  0  0  0  0  0  0  0  0
    8.8612    4.2827    0.0000 H   0  0  0  0  0  0  0  0  0  0  0  0
   10.3824    3.4649    0.0000 H   0  0  0  0  0  0  0  0  0  0  0  0
   10.5930    4.3161    0.0000 H   0  0  0  0  0  0  0  0  0  0  0  0
    9.7418    4.5266    0.0000 H   0  0  0  0  0  0  0  0  0  0  0  0
    5.7736    1.7927    0.0000 H   0  0  0  0  0  0  0  0  0  0  0  0
    6.5867    4.5489    0.0000 H   0  0  0  0  0  0  0  0  0  0  0  0
    8.8420    5.2825    0.0000 H   0  0  0  0  0  0  0  0  0  0  0  0
    5.4483    1.5964    0.0000 H   0  0  0  0  0  0  0  0  0  0  0  0
    3.4872    2.6788    0.0000 H   0  0  0  0  0  0  0  0  0  0  0  0
    5.3978    4.2159    0.0000 H   0  0  0  0  0  0  0  0  0  0  0  0
    3.4798    3.0588    0.0000 H   0  0  0  0  0  0  0  0  0  0  0  0
    4.3939    0.5759    0.0000 H   0  0  0  0  0  0  0  0  0  0  0  0
    5.4675    4.9074    0.0000 H   0  0  0  0  0  0  0  0  0  0  0  0
    4.8357    5.5153    0.0000 H   0  0  0  0  0  0  0  0  0  0  0  0
    4.2278    4.8835    0.0000 H   0  0  0  0  0  0  0  0  0  0  0  0
    2.6309    2.1622    0.0000 H   0  0  0  0  0  0  0  0  0  0  0  0
    3.1232    4.4821    0.0000 H   0  0  0  0  0  0  0  0  0  0  0  0
  1 17  1  0  0  0  0
 24  1  1  1  0  0  0
  2 24  1  0  0  0  0
  2 38  1  0  0  0  0
 28  3  1  6  0  0  0
 39  3  1  1  0  0  0
 35  4  1  6  0  0  0
  4 93  1  0  0  0  0
  5 39  1  0  0  0  0
  5 43  1  0  0  0  0
 41  6  1  6  0  0  0
 46  6  1  1  0  0  0
 42  7  1  1  0  0  0
  7102  1  0  0  0  0
 44  8  1  1  0  0  0
  8103  1  0  0  0  0
  9 46  1  0  0  0  0
  9 49  1  0  0  0  0
 47 10  1  6  0  0  0
 10108  1  0  0  0  0
 48 11  1  6  0  0  0
 11112  1  0  0  0  0
 50 12  1  1  0  0  0
 12113  1  0  0  0  0
 13 14  1  0  0  0  0
 13 15  1  0  0  0  0
 13 20  1  0  0  0  0
 13 25  1  6  0  0  0
 14 16  1  0  0  0  0
 14 19  1  0  0  0  0
 14 52  1  1  0  0  0
 15 17  1  0  0  0  0
 15 21  1  0  0  0  0
 15 53  1  1  0  0  0
 16 18  1  0  0  0  0
 16 26  1  0  0  0  0
 16 54  1  6  0  0  0
 17 19  1  0  0  0  0
 17 55  1  1  0  0  0
 18 22  1  0  0  0  0
 18 23  1  0  0  0  0
 18 56  1  1  0  0  0
 19 57  1  0  0  0  0
 19 58  1  0  0  0  0
 20 22  1  0  0  0  0
 20 59  1  0  0  0  0
 20 60  1  0  0  0  0
 21 24  1  0  0  0  0
 21 29  1  1  0  0  0
 21 61  1  0  0  0  0
 22 62  1  0  0  0  0
 22 63  1  0  0  0  0
 23 27  1  0  0  0  0
 23 28  1  0  0  0  0
 23 32  1  6  0  0  0
 24 31  1  0  0  0  0
 25 64  1  0  0  0  0
 25 65  1  0  0  0  0
 25 66  1  0  0  0  0
 26 30  1  0  0  0  0
 26 67  1  0  0  0  0
 26 68  1  0  0  0  0
 27 30  2  0  0  0  0
 27 33  1  0  0  0  0
 28 34  1  0  0  0  0
 28 69  1  0  0  0  0
 29 70  1  0  0  0  0
 29 71  1  0  0  0  0
 29 72  1  0  0  0  0
 30 73  1  0  0  0  0
 31 36  1  0  0  0  0
 31 74  1  0  0  0  0
 31 75  1  0  0  0  0
 32 76  1  0  0  0  0
 32 77  1  0  0  0  0
 32 78  1  0  0  0  0
 33 35  1  0  0  0  0
 33 79  1  0  0  0  0
 33 80  1  0  0  0  0
 34 35  1  0  0  0  0
 34 81  1  0  0  0  0
 34 82  1  0  0  0  0
 35 83  1  0  0  0  0
 36 37  1  0  0  0  0
 36 84  1  0  0  0  0
 36 85  1  0  0  0  0
 37 38  1  0  0  0  0
 37 40  1  1  0  0  0
 37 86  1  0  0  0  0
 38 87  1  0  0  0  0
 38 88  1  0  0  0  0
 39 41  1  0  0  0  0
 39 89  1  0  0  0  0
 40 90  1  0  0  0  0
 40 91  1  0  0  0  0
 40 92  1  0  0  0  0
 41 42  1  0  0  0  0
 41 94  1  0  0  0  0
 42 44  1  0  0  0  0
 42 95  1  0  0  0  0
 43 44  1  0  0  0  0
 43 45  1  1  0  0  0
 43 96  1  0  0  0  0
 44 97  1  0  0  0  0
 45 98  1  0  0  0  0
 45 99  1  0  0  0  0
 45100  1  0  0  0  0
 46 47  1  0  0  0  0
 46101  1  0  0  0  0
 47 48  1  0  0  0  0
 47104  1  0  0  0  0
 48 50  1  0  0  0  0
 48105  1  0  0  0  0
 49 50  1  0  0  0  0
 49 51  1  6  0  0  0
 49106  1  0  0  0  0
 50107  1  0  0  0  0
 51109  1  0  0  0  0
 51110  1  0  0  0  0
 51111  1  0  0  0  0
M  END
> <PUBCHEM_COMPOUND_CID>
46173857

> <PUBCHEM_COMPOUND_CANONICALIZED>
1

> <PUBCHEM_CACTVS_COMPLEXITY>
1330

> <PUBCHEM_CACTVS_HBOND_ACCEPTOR>
12

> <PUBCHEM_CACTVS_HBOND_DONOR>
6

> <PUBCHEM_CACTVS_ROTATABLE_BOND>
4

> <PUBCHEM_CACTVS_SUBSKEYS>
AAADcfB8PAAAAAAAAAAAAAAAAAAAAaIAAAA0aJECAAASAGCAAAAAGgAACAAADxSwgAMCCAAABgCAAiBCAAAAAAAgAAAACAAAAAgREAIAAQAiQAAFwAAPAAPA4PwPgAAAAAAAAADAAAQQADAAAYAADAAAAA==

> <PUBCHEM_IUPAC_INCHI>
InChI=1S/C39H62O12/c1-17-9-12-39(46-16-17)18(2)28-26(51-39)15-25-23-8-7-21-13-22(40)14-27(38(21,6)24(23)10-11-37(25,28)5)49-36-34(32(44)30(42)20(4)48-36)50-35-33(45)31(43)29(41)19(3)47-35/h7,17-20,22-36,40-45H,8-16H2,1-6H3/t17-,18+,19+,20-,22-,23-,24+,25+,26+,27-,28+,29+,30+,31-,32+,33-,34-,35+,36+,37+,38+,39-/m1/s1

> <PUBCHEM_IUPAC_INCHIKEY>
OWGURJWJHWYCIQ-AKYREZHBSA-N

> <PUBCHEM_XLOGP3_AA>
2.5

> <PUBCHEM_EXACT_MASS>
722.424127

> <PUBCHEM_MOLECULAR_FORMULA>
C39H62O12

> <PUBCHEM_MOLECULAR_WEIGHT>
722.90238

> <PUBCHEM_OPENEYE_CAN_SMILES>
CC1CCC2(C(C3C(O2)CC4C3(CCC5C4CC=C6C5(C(CC(C6)O)OC7C(C(C(C(O7)C)O)O)OC8C(C(C(C(O8)C)O)O)O)C)C)C)OC1

> <PUBCHEM_OPENEYE_ISO_SMILES>
C[C@@H]1CC[C@@]2([C@H]([C@H]3[C@@H](O2)C[C@@H]4[C@@]3(CC[C@H]5[C@H]4CC=C6[C@@]5([C@@H](C[C@@H](C6)O)O[C@H]7[C@@H]([C@H]([C@H]([C@H](O7)C)O)O)O[C@H]8[C@@H]([C@@H]([C@H]([C@@H](O8)C)O)O)O)C)C)C)OC1

> <PUBCHEM_CACTVS_TPSA>
177

> <PUBCHEM_MONOISOTOPIC_WEIGHT>
722.424127

> <PUBCHEM_TOTAL_CHARGE>
0

> <PUBCHEM_HEAVY_ATOM_COUNT>
51

> <PUBCHEM_ATOM_DEF_STEREO_COUNT>
22

> <PUBCHEM_ATOM_UDEF_STEREO_COUNT>
0

> <PUBCHEM_BOND_DEF_STEREO_COUNT>
0

> <PUBCHEM_BOND_UDEF_STEREO_COUNT>
0

> <PUBCHEM_ISOTOPIC_ATOM_COUNT>
0

> <PUBCHEM_COMPONENT_COUNT>
1

> <PUBCHEM_CACTVS_TAUTO_COUNT>
1

> <PUBCHEM_COORDINATE_TYPE>
1
5
255

> <PUBCHEM_BONDANNOTATIONS>
24  1  5
47  10  6
48  11  6
50  12  5
13  25  6
14  52  5
15  53  5
16  54  6
17  55  5
18  56  5
21  29  5
23  32  6
28  3  6
39  3  5
37  40  5
35  4  6
43  45  5
49  51  6
41  6  6
46  6  5
42  7  5
44  8  5

$$$$

