   Color/Form

     * White solid
     * Tan solid

   from [1]HSDB

   Odor
        Mercaptan-like odor
   from [2]HSDB

   Boiling Point
        Decomposes
   from [3]HSDB

   Melting Point
        75-77 deg C
   from [4]HSDB

   Corrosivity
        Non-corrosive to equipment and metal surfaces
   from [5]HSDB

   Density/Specific Gravity
        1.312 g/ml
   from [6]HSDB

   Dissociation Constants
        Does not dissociate
   from [7]HSDB

   Octanol/Water Partition Coefficient
        Kow = 1600 @ 24 deg C (log Kow = 3.20)
   from [8]HSDB

   pH
        pH= 4.49 (approx 1% aqueous slurry)
   from [9]HSDB

   Solubilities

     * Solubility in organic solvents (g/l at 20 deg C): n-hexane - 8.7;
       toluene - >200; dichloromethane - >200; 2-propanol - 170; 1-octanol
       - 88; polyethylene glycol - 74; acetone - >200; dimethylformamide -
       >200; acetonitrile - >200; dimethylsulfoxide - >200
     * In water, 56 mg/l (pH 4) at 25 deg C; 56 mg/l (pH 7) at 25 deg C;
       54 mg/l (pH 9) at 25 deg C

   from [10]HSDB

   Vapor Pressure
        6.75X10-7 mm Hg @ 20 deg C
   from [11]HSDB

   Other Chemical/Physical Properties
        Stable to hydrolysis at pH 5-9; Stable to photolysis at pH 5
   from [12]HSDB

   Computed Properties
   Molecular Weight                  363.330533 [g/mol]
   Molecular Formula                 C[14]H[13]F[4]N[3]O[2]S
   XLogP3-AA                         3.6
   H-Bond Donor                      0
   H-Bond Acceptor                   9
   Rotatable Bond Count              5
   Exact Mass                        363.066461
   MonoIsotopic Mass                 363.066461
   Topological Polar Surface Area    83.6
   Heavy Atom Count                  24
   Formal Charge                     0
   Complexity                        431
   Isotope Atom Count                0
   Defined Atom Stereocenter Count   0
   Undefined Atom Stereocenter Count 0
   Defined Bond Stereocenter Count   0
   Undefined Bond Stereocenter Count 0
   Covalently-Bonded Unit Count      1
   Feature 3D Acceptor Count         2
   Feature 3D Hydrophobe Count       1
   Feature 3D Ring Count             2
   Effective Rotor Count             7
   Conformer Sampling RMSD           0.8
   CID Conformer Count               [13]267

References

   1. http://toxnet.nlm.nih.gov/cgi-bin/sis/search/r?dbs+hsdb:@term+@rn+@rel+142459-58-3
   2. http://toxnet.nlm.nih.gov/cgi-bin/sis/search/r?dbs+hsdb:@term+@rn+@rel+142459-58-3
   3. http://toxnet.nlm.nih.gov/cgi-bin/sis/search/r?dbs+hsdb:@term+@rn+@rel+142459-58-3
   4. http://toxnet.nlm.nih.gov/cgi-bin/sis/search/r?dbs+hsdb:@term+@rn+@rel+142459-58-3
   5. http://toxnet.nlm.nih.gov/cgi-bin/sis/search/r?dbs+hsdb:@term+@rn+@rel+142459-58-3
   6. http://toxnet.nlm.nih.gov/cgi-bin/sis/search/r?dbs+hsdb:@term+@rn+@rel+142459-58-3
   7. http://toxnet.nlm.nih.gov/cgi-bin/sis/search/r?dbs+hsdb:@term+@rn+@rel+142459-58-3
   8. http://toxnet.nlm.nih.gov/cgi-bin/sis/search/r?dbs+hsdb:@term+@rn+@rel+142459-58-3
   9. http://toxnet.nlm.nih.gov/cgi-bin/sis/search/r?dbs+hsdb:@term+@rn+@rel+142459-58-3
  10. http://toxnet.nlm.nih.gov/cgi-bin/sis/search/r?dbs+hsdb:@term+@rn+@rel+142459-58-3
  11. http://toxnet.nlm.nih.gov/cgi-bin/sis/search/r?dbs+hsdb:@term+@rn+@rel+142459-58-3
  12. http://toxnet.nlm.nih.gov/cgi-bin/sis/search/r?dbs+hsdb:@term+@rn+@rel+142459-58-3
  13. http://pubchem.ncbi.nlm.nih.gov/vw3d/vw3d.cgi?cid=86429
