72523
  -OEChem-07051213092D

 53 53  0     1  0  0  0  0  0999 V2000
   12.3923   -0.6900    0.0000 N   0  0  0  0  0  0  0  0  0  0  0  0
   11.5263   -0.1900    0.0000 C   0  0  1  0  0  0  0  0  0  0  0  0
   11.5263    0.8100    0.0000 C   0  0  0  0  0  0  0  0  0  0  0  0
   13.2583   -0.1900    0.0000 C   0  0  1  0  0  0  0  0  0  0  0  0
   12.3923    1.3100    0.0000 C   0  0  0  0  0  0  0  0  0  0  0  0
   10.6603   -0.6900    0.0000 C   0  0  0  0  0  0  0  0  0  0  0  0
   13.2583    0.8100    0.0000 C   0  0  0  0  0  0  0  0  0  0  0  0
    9.7942   -0.1900    0.0000 C   0  0  0  0  0  0  0  0  0  0  0  0
    8.9282   -0.6900    0.0000 C   0  0  0  0  0  0  0  0  0  0  0  0
   14.1244   -0.6900    0.0000 C   0  0  0  0  0  0  0  0  0  0  0  0
    8.0622   -0.1900    0.0000 C   0  0  0  0  0  0  0  0  0  0  0  0
    7.1962   -0.6900    0.0000 C   0  0  0  0  0  0  0  0  0  0  0  0
    6.3301   -0.1900    0.0000 C   0  0  0  0  0  0  0  0  0  0  0  0
    5.4641   -0.6900    0.0000 C   0  0  0  0  0  0  0  0  0  0  0  0
    4.5981   -0.1900    0.0000 C   0  0  0  0  0  0  0  0  0  0  0  0
    3.7320   -0.6900    0.0000 C   0  0  0  0  0  0  0  0  0  0  0  0
    2.8660   -0.1900    0.0000 C   0  0  0  0  0  0  0  0  0  0  0  0
    2.0000   -0.6900    0.0000 C   0  0  0  0  0  0  0  0  0  0  0  0
   11.5263   -0.8100    0.0000 H   0  0  0  0  0  0  0  0  0  0  0  0
   11.3142    1.3926    0.0000 H   0  0  0  0  0  0  0  0  0  0  0  0
   10.9157    0.7023    0.0000 H   0  0  0  0  0  0  0  0  0  0  0  0
   13.2583   -0.8100    0.0000 H   0  0  0  0  0  0  0  0  0  0  0  0
   12.7908    1.7850    0.0000 H   0  0  0  0  0  0  0  0  0  0  0  0
   11.9938    1.7850    0.0000 H   0  0  0  0  0  0  0  0  0  0  0  0
   10.2617   -1.1650    0.0000 H   0  0  0  0  0  0  0  0  0  0  0  0
   11.0588   -1.1650    0.0000 H   0  0  0  0  0  0  0  0  0  0  0  0
   13.8689    0.7023    0.0000 H   0  0  0  0  0  0  0  0  0  0  0  0
   13.4704    1.3926    0.0000 H   0  0  0  0  0  0  0  0  0  0  0  0
   12.3923   -1.3100    0.0000 H   0  0  0  0  0  0  0  0  0  0  0  0
   10.1928    0.2849    0.0000 H   0  0  0  0  0  0  0  0  0  0  0  0
    9.3957    0.2849    0.0000 H   0  0  0  0  0  0  0  0  0  0  0  0
    8.5297   -1.1650    0.0000 H   0  0  0  0  0  0  0  0  0  0  0  0
    9.3267   -1.1650    0.0000 H   0  0  0  0  0  0  0  0  0  0  0  0
   13.8144   -1.2269    0.0000 H   0  0  0  0  0  0  0  0  0  0  0  0
   14.6613   -1.0000    0.0000 H   0  0  0  0  0  0  0  0  0  0  0  0
   14.4344   -0.1531    0.0000 H   0  0  0  0  0  0  0  0  0  0  0  0
    8.4607    0.2849    0.0000 H   0  0  0  0  0  0  0  0  0  0  0  0
    7.6636    0.2849    0.0000 H   0  0  0  0  0  0  0  0  0  0  0  0
    6.7976   -1.1650    0.0000 H   0  0  0  0  0  0  0  0  0  0  0  0
    7.5947   -1.1650    0.0000 H   0  0  0  0  0  0  0  0  0  0  0  0
    6.7287    0.2849    0.0000 H   0  0  0  0  0  0  0  0  0  0  0  0
    5.9316    0.2849    0.0000 H   0  0  0  0  0  0  0  0  0  0  0  0
    5.0656   -1.1650    0.0000 H   0  0  0  0  0  0  0  0  0  0  0  0
    5.8626   -1.1650    0.0000 H   0  0  0  0  0  0  0  0  0  0  0  0
    4.9966    0.2849    0.0000 H   0  0  0  0  0  0  0  0  0  0  0  0
    4.1996    0.2849    0.0000 H   0  0  0  0  0  0  0  0  0  0  0  0
    3.3335   -1.1650    0.0000 H   0  0  0  0  0  0  0  0  0  0  0  0
    4.1306   -1.1650    0.0000 H   0  0  0  0  0  0  0  0  0  0  0  0
    3.2646    0.2849    0.0000 H   0  0  0  0  0  0  0  0  0  0  0  0
    2.4675    0.2849    0.0000 H   0  0  0  0  0  0  0  0  0  0  0  0
    1.6900   -0.1531    0.0000 H   0  0  0  0  0  0  0  0  0  0  0  0
    1.4631   -1.0000    0.0000 H   0  0  0  0  0  0  0  0  0  0  0  0
    2.3100   -1.2269    0.0000 H   0  0  0  0  0  0  0  0  0  0  0  0
  1  2  1  0  0  0  0
  1  4  1  0  0  0  0
  1 29  1  0  0  0  0
  2  3  1  0  0  0  0
  2  6  1  6  0  0  0
  2 19  1  0  0  0  0
  3  5  1  0  0  0  0
  3 20  1  0  0  0  0
  3 21  1  0  0  0  0
  4  7  1  0  0  0  0
  4 10  1  1  0  0  0
  4 22  1  0  0  0  0
  5  7  1  0  0  0  0
  5 23  1  0  0  0  0
  5 24  1  0  0  0  0
  6  8  1  0  0  0  0
  6 25  1  0  0  0  0
  6 26  1  0  0  0  0
  7 27  1  0  0  0  0
  7 28  1  0  0  0  0
  8  9  1  0  0  0  0
  8 30  1  0  0  0  0
  8 31  1  0  0  0  0
  9 11  1  0  0  0  0
  9 32  1  0  0  0  0
  9 33  1  0  0  0  0
 10 34  1  0  0  0  0
 10 35  1  0  0  0  0
 10 36  1  0  0  0  0
 11 12  1  0  0  0  0
 11 37  1  0  0  0  0
 11 38  1  0  0  0  0
 12 13  1  0  0  0  0
 12 39  1  0  0  0  0
 12 40  1  0  0  0  0
 13 14  1  0  0  0  0
 13 41  1  0  0  0  0
 13 42  1  0  0  0  0
 14 15  1  0  0  0  0
 14 43  1  0  0  0  0
 14 44  1  0  0  0  0
 15 16  1  0  0  0  0
 15 45  1  0  0  0  0
 15 46  1  0  0  0  0
 16 17  1  0  0  0  0
 16 47  1  0  0  0  0
 16 48  1  0  0  0  0
 17 18  1  0  0  0  0
 17 49  1  0  0  0  0
 17 50  1  0  0  0  0
 18 51  1  0  0  0  0
 18 52  1  0  0  0  0
 18 53  1  0  0  0  0
M  END
> <PUBCHEM_COMPOUND_CID>
72523

> <PUBCHEM_COMPOUND_CANONICALIZED>
1

> <PUBCHEM_CACTVS_COMPLEXITY>
178

> <PUBCHEM_CACTVS_HBOND_ACCEPTOR>
1

> <PUBCHEM_CACTVS_HBOND_DONOR>
1

> <PUBCHEM_CACTVS_ROTATABLE_BOND>
10

> <PUBCHEM_CACTVS_SUBSKEYS>
AAADcfB6AAAAAAAAAAAAAAAAAAAAAAAAAAAsAAAAAAAAAAAAAAAAHAAQAAAACCjBAAQCAALAAAAAAAAAAAAAAAAAAAAAAIAIAAAAAAIAgAAEAAAAEACAAAEQgIAAAAAAAAAAAAAAAAAAAAAAAAAAAAAAAA==

> <PUBCHEM_IUPAC_OPENEYE_NAME>
(2R,6R)-2-methyl-6-undecyl-piperidine

> <PUBCHEM_IUPAC_CAS_NAME>
(2R,6R)-2-methyl-6-undecylpiperidine

> <PUBCHEM_IUPAC_NAME>
(2R,6R)-2-methyl-6-undecylpiperidine

> <PUBCHEM_IUPAC_SYSTEMATIC_NAME>
(2R,6R)-2-methyl-6-undecyl-piperidine

> <PUBCHEM_IUPAC_TRADITIONAL_NAME>
(2R,6R)-2-methyl-6-undecyl-piperidine

> <PUBCHEM_IUPAC_INCHI>
InChI=1S/C17H35N/c1-3-4-5-6-7-8-9-10-11-14-17-15-12-13-16(2)18-17/h16-18H,3-15H2,1-2H3/t16-,17-/m1/s1

> <PUBCHEM_IUPAC_INCHIKEY>
AYJGABFBAYKWDX-IAGOWNOFSA-N

> <PUBCHEM_XLOGP3_AA>
6.7

> <PUBCHEM_EXACT_MASS>
253.27695

> <PUBCHEM_MOLECULAR_FORMULA>
C17H35N

> <PUBCHEM_MOLECULAR_WEIGHT>
253.4665

> <PUBCHEM_OPENEYE_CAN_SMILES>
CCCCCCCCCCCC1CCCC(N1)C

> <PUBCHEM_OPENEYE_ISO_SMILES>
CCCCCCCCCCC[C@@H]1CCC[C@H](N1)C

> <PUBCHEM_CACTVS_TPSA>
12

> <PUBCHEM_MONOISOTOPIC_WEIGHT>
253.27695

> <PUBCHEM_TOTAL_CHARGE>
0

> <PUBCHEM_HEAVY_ATOM_COUNT>
18

> <PUBCHEM_ATOM_DEF_STEREO_COUNT>
2

> <PUBCHEM_ATOM_UDEF_STEREO_COUNT>
0

> <PUBCHEM_BOND_DEF_STEREO_COUNT>
0

> <PUBCHEM_BOND_UDEF_STEREO_COUNT>
0

> <PUBCHEM_ISOTOPIC_ATOM_COUNT>
0

> <PUBCHEM_COMPONENT_COUNT>
1

> <PUBCHEM_CACTVS_TAUTO_COUNT>
1

> <PUBCHEM_COORDINATE_TYPE>
1
5
255

> <PUBCHEM_BONDANNOTATIONS>
2  6  6
4  10  5

$$$$

