   Color/Form

     * GOLDEN-ORANGE CRYSTALLINE SOLID
     * FINE CRYSTALLINE, LIGHT YELLOW TO ORANGE
     * Orange prisms

   from [1]HSDB

   Odor
        MILD CHEMICAL ODOR
   from [2]HSDB

   Melting Point
        151-152 DEG C
   from [3]HSDB

   Corrosivity
        Noncorrosive
   from [4]HSDB

   Solubilities

     * SOLUBILITY @ 22 DEG C: 0.6 MG/L IN WATER; 360 G/L IN ACETONE; 330
       G/L IN DIMETHYLSULFOXIDE; POORLY SOL IN COMMON HYDROCARBON AND
       AROMATIC SOLVENTS AND IN COMMON ALCOHOLS
     * Solubility at 25 deg C: methanol 1.1%, isopropanol 0.18%, benzene
       less than 12.5%

   from [5]HSDB

   Spectral Properties
        Intense mass spectral peaks: 43 m/z (100%), 41 m/z (64%), 274 m/z
   (45%), 316 m/z (39%)
   from [6]HSDB

   Vapor Pressure
        9.3X10-9 mm Hg at 20 deg C; 3.3X10-8 mm Hg at 30 deg C
   from [7]HSDB

   Computed Properties
   Molecular Weight                  345.37146 [g/mol]
   Molecular Formula                 C[13]H[19]N[3]O[6]S
   XLogP3                            3.7
   H-Bond Donor                      0
   H-Bond Acceptor                   7
   Rotatable Bond Count              6
   Exact Mass                        345.099456
   MonoIsotopic Mass                 345.099456
   Topological Polar Surface Area    137
   Heavy Atom Count                  23
   Formal Charge                     0
   Complexity                        491
   Isotope Atom Count                0
   Defined Atom Stereocenter Count   0
   Undefined Atom Stereocenter Count 0
   Defined Bond Stereocenter Count   0
   Undefined Bond Stereocenter Count 0
   Covalently-Bonded Unit Count      1
   Feature 3D Acceptor Count         6
   Feature 3D Anion Count            2
   Feature 3D Cation Count           1
   Feature 3D Hydrophobe Count       2
   Feature 3D Ring Count             1
   Effective Rotor Count             8
   Conformer Sampling RMSD           0.8
   CID Conformer Count               [8]2

References

   1. http://toxnet.nlm.nih.gov/cgi-bin/sis/search/r?dbs+hsdb:@term+@rn+@rel+4726-14-1
   2. http://toxnet.nlm.nih.gov/cgi-bin/sis/search/r?dbs+hsdb:@term+@rn+@rel+4726-14-1
   3. http://toxnet.nlm.nih.gov/cgi-bin/sis/search/r?dbs+hsdb:@term+@rn+@rel+4726-14-1
   4. http://toxnet.nlm.nih.gov/cgi-bin/sis/search/r?dbs+hsdb:@term+@rn+@rel+4726-14-1
   5. http://toxnet.nlm.nih.gov/cgi-bin/sis/search/r?dbs+hsdb:@term+@rn+@rel+4726-14-1
   6. http://toxnet.nlm.nih.gov/cgi-bin/sis/search/r?dbs+hsdb:@term+@rn+@rel+4726-14-1
   7. http://toxnet.nlm.nih.gov/cgi-bin/sis/search/r?dbs+hsdb:@term+@rn+@rel+4726-14-1
   8. http://pubchem.ncbi.nlm.nih.gov/vw3d/vw3d.cgi?cid=20848
