13690
  -OEChem-06241222392D

 37 37  0     0  0  0  0  0  0999 V2000
    2.6384   -2.3820    0.0000 O   0  0  0  0  0  0  0  0  0  0  0  0
    4.0741   -1.7359    0.0000 N   0  0  0  0  0  0  0  0  0  0  0  0
    4.5741    2.3820    0.0000 C   0  0  0  0  0  0  0  0  0  0  0  0
    5.4595    1.9173    0.0000 C   0  0  0  0  0  0  0  0  0  0  0  0
    3.5741    2.3820    0.0000 C   0  0  0  0  0  0  0  0  0  0  0  0
    6.0276    1.0943    0.0000 C   0  0  0  0  0  0  0  0  0  0  0  0
    2.6886    1.9173    0.0000 C   0  0  0  0  0  0  0  0  0  0  0  0
    6.1481    0.1016    0.0000 C   0  0  0  0  0  0  0  0  0  0  0  0
    2.1205    1.0943    0.0000 C   0  0  0  0  0  0  0  0  0  0  0  0
    5.7935   -0.8334    0.0000 C   0  0  0  0  0  0  0  0  0  0  0  0
    2.0000    0.1016    0.0000 C   0  0  0  0  0  0  0  0  0  0  0  0
    5.0450   -1.4966    0.0000 C   0  0  0  0  0  0  0  0  0  0  0  0
    2.3546   -0.8334    0.0000 C   0  0  0  0  0  0  0  0  0  0  0  0
    3.1031   -1.4966    0.0000 C   0  0  0  0  0  0  0  0  0  0  0  0
    5.0381    2.7931    0.0000 H   0  0  0  0  0  0  0  0  0  0  0  0
    4.4257    1.7800    0.0000 H   0  0  0  0  0  0  0  0  0  0  0  0
    6.0615    2.0657    0.0000 H   0  0  0  0  0  0  0  0  0  0  0  0
    5.0484    1.4532    0.0000 H   0  0  0  0  0  0  0  0  0  0  0  0
    3.7939    2.9617    0.0000 H   0  0  0  0  0  0  0  0  0  0  0  0
    3.7224    1.7800    0.0000 H   0  0  0  0  0  0  0  0  0  0  0  0
    6.6296    0.9459    0.0000 H   0  0  0  0  0  0  0  0  0  0  0  0
    5.4479    0.8744    0.0000 H   0  0  0  0  0  0  0  0  0  0  0  0
    2.6139    2.5328    0.0000 H   0  0  0  0  0  0  0  0  0  0  0  0
    3.0997    1.4532    0.0000 H   0  0  0  0  0  0  0  0  0  0  0  0
    6.6122   -0.3095    0.0000 H   0  0  0  0  0  0  0  0  0  0  0  0
    5.5326    0.1763    0.0000 H   0  0  0  0  0  0  0  0  0  0  0  0
    1.7683    1.6046    0.0000 H   0  0  0  0  0  0  0  0  0  0  0  0
    2.7002    0.8744    0.0000 H   0  0  0  0  0  0  0  0  0  0  0  0
    6.0134   -1.4131    0.0000 H   0  0  0  0  0  0  0  0  0  0  0  0
    5.2833   -0.4812    0.0000 H   0  0  0  0  0  0  0  0  0  0  0  0
    1.4510    0.3897    0.0000 H   0  0  0  0  0  0  0  0  0  0  0  0
    2.6155    0.1763    0.0000 H   0  0  0  0  0  0  0  0  0  0  0  0
    4.9703   -2.1120    0.0000 H   0  0  0  0  0  0  0  0  0  0  0  0
    4.7569   -0.9476    0.0000 H   0  0  0  0  0  0  0  0  0  0  0  0
    1.7346   -0.8334    0.0000 H   0  0  0  0  0  0  0  0  0  0  0  0
    2.8649   -0.4812    0.0000 H   0  0  0  0  0  0  0  0  0  0  0  0
    4.0741   -2.3559    0.0000 H   0  0  0  0  0  0  0  0  0  0  0  0
  1 14  2  0  0  0  0
  2 12  1  0  0  0  0
  2 14  1  0  0  0  0
  2 37  1  0  0  0  0
  3  4  1  0  0  0  0
  3  5  1  0  0  0  0
  3 15  1  0  0  0  0
  3 16  1  0  0  0  0
  4  6  1  0  0  0  0
  4 17  1  0  0  0  0
  4 18  1  0  0  0  0
  5  7  1  0  0  0  0
  5 19  1  0  0  0  0
  5 20  1  0  0  0  0
  6  8  1  0  0  0  0
  6 21  1  0  0  0  0
  6 22  1  0  0  0  0
  7  9  1  0  0  0  0
  7 23  1  0  0  0  0
  7 24  1  0  0  0  0
  8 10  1  0  0  0  0
  8 25  1  0  0  0  0
  8 26  1  0  0  0  0
  9 11  1  0  0  0  0
  9 27  1  0  0  0  0
  9 28  1  0  0  0  0
 10 12  1  0  0  0  0
 10 29  1  0  0  0  0
 10 30  1  0  0  0  0
 11 13  1  0  0  0  0
 11 31  1  0  0  0  0
 11 32  1  0  0  0  0
 12 33  1  0  0  0  0
 12 34  1  0  0  0  0
 13 14  1  0  0  0  0
 13 35  1  0  0  0  0
 13 36  1  0  0  0  0
M  END
> <PUBCHEM_COMPOUND_CID>
13690

> <PUBCHEM_COMPOUND_CANONICALIZED>
1

> <PUBCHEM_CACTVS_COMPLEXITY>
156

> <PUBCHEM_CACTVS_HBOND_ACCEPTOR>
1

> <PUBCHEM_CACTVS_HBOND_DONOR>
1

> <PUBCHEM_CACTVS_ROTATABLE_BOND>
0

> <PUBCHEM_CACTVS_SUBSKEYS>
AAADceByIAAAAAAAAAAAAAAAAAAAAAAAAAAAAAAAAAAAAAAAAAAAHgAQAAAACADBgAQAAALAAAAIAAEQEAAAAAAAAAAAAIEIAAAAABIAgAAEAAAAFgCAAAEYiICAAAAAAAAAAAAAAAAAAAAAAAAAAAAAAA==

> <PUBCHEM_IUPAC_OPENEYE_NAME>
azacyclotridecan-2-one

> <PUBCHEM_IUPAC_CAS_NAME>
azacyclotridecan-2-one

> <PUBCHEM_IUPAC_NAME>
azacyclotridecan-2-one

> <PUBCHEM_IUPAC_SYSTEMATIC_NAME>
1-azacyclotridecan-2-one

> <PUBCHEM_IUPAC_TRADITIONAL_NAME>
azacyclotridecan-2-one

> <PUBCHEM_IUPAC_INCHI>
InChI=1S/C12H23NO/c14-12-10-8-6-4-2-1-3-5-7-9-11-13-12/h1-11H2,(H,13,14)

> <PUBCHEM_IUPAC_INCHIKEY>
JHWNWJKBPDFINM-UHFFFAOYSA-N

> <PUBCHEM_XLOGP3>
2.8

> <PUBCHEM_EXACT_MASS>
197.177964

> <PUBCHEM_MOLECULAR_FORMULA>
C12H23NO

> <PUBCHEM_MOLECULAR_WEIGHT>
197.31712

> <PUBCHEM_OPENEYE_CAN_SMILES>
C1CCCCCC(=O)NCCCCC1

> <PUBCHEM_OPENEYE_ISO_SMILES>
C1CCCCCC(=O)NCCCCC1

> <PUBCHEM_CACTVS_TPSA>
29.1

> <PUBCHEM_MONOISOTOPIC_WEIGHT>
197.177964

> <PUBCHEM_TOTAL_CHARGE>
0

> <PUBCHEM_HEAVY_ATOM_COUNT>
14

> <PUBCHEM_ATOM_DEF_STEREO_COUNT>
0

> <PUBCHEM_ATOM_UDEF_STEREO_COUNT>
0

> <PUBCHEM_BOND_DEF_STEREO_COUNT>
0

> <PUBCHEM_BOND_UDEF_STEREO_COUNT>
0

> <PUBCHEM_ISOTOPIC_ATOM_COUNT>
0

> <PUBCHEM_COMPONENT_COUNT>
1

> <PUBCHEM_CACTVS_TAUTO_COUNT>
3

> <PUBCHEM_COORDINATE_TYPE>
1
5
255

$$$$

