583069
  -OEChem-06241222442D

 38 41  0     1  0  0  0  0  0999 V2000
    8.0550    0.4215    0.0000 O   0  0  0  0  0  0  0  0  0  0  0  0
    7.7820    2.1767    0.0000 O   0  0  0  0  0  0  0  0  0  0  0  0
    5.6591   -0.5785    0.0000 N   0  0  3  0  0  0  0  0  0  0  0  0
    6.5251   -0.0785    0.0000 C   0  0  3  0  0  0  0  0  0  0  0  0
    6.5251    0.9215    0.0000 C   0  0  3  0  0  0  0  0  0  0  0  0
    4.7931   -0.0785    0.0000 C   0  0  3  0  0  0  0  0  0  0  0  0
    5.6591    1.4215    0.0000 C   0  0  0  0  0  0  0  0  0  0  0  0
    4.7931    0.9215    0.0000 C   0  0  0  0  0  0  0  0  0  0  0  0
    7.4714   -0.3833    0.0000 C   0  0  3  0  0  0  0  0  0  0  0  0
    5.6752   -1.6200    0.0000 C   0  0  0  0  0  0  0  0  0  0  0  0
    3.8831   -0.5854    0.0000 C   0  0  0  0  0  0  0  0  0  0  0  0
    7.4714    1.2262    0.0000 C   0  0  0  0  0  0  0  0  0  0  0  0
    4.7771   -2.1478    0.0000 C   0  0  0  0  0  0  0  0  0  0  0  0
    3.8751   -1.6270    0.0000 C   0  0  0  0  0  0  0  0  0  0  0  0
    7.7820   -1.3338    0.0000 C   0  0  0  0  0  0  0  0  0  0  0  0
    2.9562   -0.0213    0.0000 C   0  0  0  0  0  0  0  0  0  0  0  0
    2.9396   -2.1767    0.0000 C   0  0  0  0  0  0  0  0  0  0  0  0
    2.0084   -0.5493    0.0000 C   0  0  0  0  0  0  0  0  0  0  0  0
    2.0000   -1.6342    0.0000 C   0  0  0  0  0  0  0  0  0  0  0  0
    6.5908   -0.6951    0.0000 H   0  0  0  0  0  0  0  0  0  0  0  0
    6.5908    1.5380    0.0000 H   0  0  0  0  0  0  0  0  0  0  0  0
    5.3300    0.2315    0.0000 H   0  0  0  0  0  0  0  0  0  0  0  0
    6.0576    1.8964    0.0000 H   0  0  0  0  0  0  0  0  0  0  0  0
    5.2606    1.8964    0.0000 H   0  0  0  0  0  0  0  0  0  0  0  0
    4.5810    1.5041    0.0000 H   0  0  0  0  0  0  0  0  0  0  0  0
    4.1825    0.8138    0.0000 H   0  0  0  0  0  0  0  0  0  0  0  0
    8.0838   -0.4795    0.0000 H   0  0  0  0  0  0  0  0  0  0  0  0
    5.8932   -2.2004    0.0000 H   0  0  0  0  0  0  0  0  0  0  0  0
    6.2843   -1.5046    0.0000 H   0  0  0  0  0  0  0  0  0  0  0  0
    4.3798   -2.6238    0.0000 H   0  0  0  0  0  0  0  0  0  0  0  0
    5.1781   -2.6207    0.0000 H   0  0  0  0  0  0  0  0  0  0  0  0
    7.1927   -1.5264    0.0000 H   0  0  0  0  0  0  0  0  0  0  0  0
    7.9746   -1.9231    0.0000 H   0  0  0  0  0  0  0  0  0  0  0  0
    8.3713   -1.1412    0.0000 H   0  0  0  0  0  0  0  0  0  0  0  0
    2.9682    0.5986    0.0000 H   0  0  0  0  0  0  0  0  0  0  0  0
    2.9420   -2.7967    0.0000 H   0  0  0  0  0  0  0  0  0  0  0  0
    1.4750   -0.2331    0.0000 H   0  0  0  0  0  0  0  0  0  0  0  0
    1.4619   -1.9421    0.0000 H   0  0  0  0  0  0  0  0  0  0  0  0
  1  9  1  0  0  0  0
  1 12  1  0  0  0  0
  2 12  2  0  0  0  0
  3  4  1  0  0  0  0
  3  6  1  0  0  0  0
  3 10  1  0  0  0  0
  4  5  1  0  0  0  0
  4  9  1  0  0  0  0
  4 20  1  0  0  0  0
  5  7  1  0  0  0  0
  5 12  1  0  0  0  0
  5 21  1  0  0  0  0
  6  8  1  0  0  0  0
  6 11  1  0  0  0  0
  6 22  1  0  0  0  0
  7  8  1  0  0  0  0
  7 23  1  0  0  0  0
  7 24  1  0  0  0  0
  8 25  1  0  0  0  0
  8 26  1  0  0  0  0
  9 15  1  0  0  0  0
  9 27  1  0  0  0  0
 10 13  1  0  0  0  0
 10 28  1  0  0  0  0
 10 29  1  0  0  0  0
 11 14  1  0  0  0  0
 11 16  2  0  0  0  0
 13 14  1  0  0  0  0
 13 30  1  0  0  0  0
 13 31  1  0  0  0  0
 14 17  2  0  0  0  0
 15 32  1  0  0  0  0
 15 33  1  0  0  0  0
 15 34  1  0  0  0  0
 16 18  1  0  0  0  0
 16 35  1  0  0  0  0
 17 19  1  0  0  0  0
 17 36  1  0  0  0  0
 18 19  2  0  0  0  0
 18 37  1  0  0  0  0
 19 38  1  0  0  0  0
M  END
> <PUBCHEM_COMPOUND_CID>
583069

> <PUBCHEM_COMPOUND_CANONICALIZED>
1

> <PUBCHEM_CACTVS_COMPLEXITY>
383

> <PUBCHEM_CACTVS_HBOND_ACCEPTOR>
3

> <PUBCHEM_CACTVS_HBOND_DONOR>
0

> <PUBCHEM_CACTVS_ROTATABLE_BOND>
0

> <PUBCHEM_CACTVS_SUBSKEYS>
AAADceB6MAAAAAAAAAAAAAAAAAAAASAAAAA8WIAAAAAAAFixAAAAHgAAAAAADTzhmAYyCIMABACIAiDSCACCAAAgAAAIiAEIBIgKIDqAkRGHIAhmgACYiAea2eOegAAAAAAQAAAAAAAAACAAAAAAAAAAAA==

> <PUBCHEM_IUPAC_INCHI>
InChI=1S/C16H19NO2/c1-10-15-13(16(18)19-10)6-7-14-12-5-3-2-4-11(12)8-9-17(14)15/h2-5,10,13-15H,6-9H2,1H3

> <PUBCHEM_IUPAC_INCHIKEY>
RFAUXYMFAVVSFU-UHFFFAOYSA-N

> <PUBCHEM_XLOGP3_AA>
2.4

> <PUBCHEM_EXACT_MASS>
257.141579

> <PUBCHEM_MOLECULAR_FORMULA>
C16H19NO2

> <PUBCHEM_MOLECULAR_WEIGHT>
257.32756

> <PUBCHEM_OPENEYE_CAN_SMILES>
CC1C2C(CCC3N2CCC4=CC=CC=C34)C(=O)O1

> <PUBCHEM_OPENEYE_ISO_SMILES>
CC1C2C(CCC3N2CCC4=CC=CC=C34)C(=O)O1

> <PUBCHEM_CACTVS_TPSA>
29.5

> <PUBCHEM_MONOISOTOPIC_WEIGHT>
257.141579

> <PUBCHEM_TOTAL_CHARGE>
0

> <PUBCHEM_HEAVY_ATOM_COUNT>
19

> <PUBCHEM_ATOM_DEF_STEREO_COUNT>
0

> <PUBCHEM_ATOM_UDEF_STEREO_COUNT>
4

> <PUBCHEM_BOND_DEF_STEREO_COUNT>
0

> <PUBCHEM_BOND_UDEF_STEREO_COUNT>
0

> <PUBCHEM_ISOTOPIC_ATOM_COUNT>
0

> <PUBCHEM_COMPONENT_COUNT>
1

> <PUBCHEM_CACTVS_TAUTO_COUNT>
2

> <PUBCHEM_COORDINATE_TYPE>
1
5
255

> <PUBCHEM_BONDANNOTATIONS>
11  14  8
11  16  8
14  17  8
16  18  8
17  19  8
18  19  8
4  3  3
5  7  3
6  8  3
9  15  3

$$$$

