47205465
  -OEChem-06241222582D

 37 38  0     0  0  0  0  0  0999 V2000
    2.8660   -4.0670    0.0000 S   0  0  0  0  0  0  0  0  0  0  0  0
    4.5981    4.9330    0.0000 F   0  0  0  0  0  0  0  0  0  0  0  0
    2.3660   -4.9330    0.0000 O   0  0  0  0  0  0  0  0  0  0  0  0
    3.3660   -4.9330    0.0000 O   0  0  0  0  0  0  0  0  0  0  0  0
    4.5981   -1.0670    0.0000 O   0  0  0  0  0  0  0  0  0  0  0  0
    2.8660   -2.0670    0.0000 N   0  0  0  0  0  0  0  0  0  0  0  0
    3.7320    0.4330    0.0000 N   0  0  0  0  0  0  0  0  0  0  0  0
    2.0000   -3.5670    0.0000 C   0  0  0  0  0  0  0  0  0  0  0  0
    3.7320   -3.5670    0.0000 C   0  0  0  0  0  0  0  0  0  0  0  0
    2.0000   -2.5670    0.0000 C   0  0  0  0  0  0  0  0  0  0  0  0
    3.7320   -2.5670    0.0000 C   0  0  0  0  0  0  0  0  0  0  0  0
    2.8660   -1.0670    0.0000 C   0  0  0  0  0  0  0  0  0  0  0  0
    3.7320   -0.5670    0.0000 C   0  0  0  0  0  0  0  0  0  0  0  0
    4.5981    0.9330    0.0000 C   0  0  0  0  0  0  0  0  0  0  0  0
    4.5981    1.9330    0.0000 C   0  0  0  0  0  0  0  0  0  0  0  0
    5.4641    2.4330    0.0000 C   0  0  0  0  0  0  0  0  0  0  0  0
    3.7320    2.4330    0.0000 C   0  0  0  0  0  0  0  0  0  0  0  0
    5.4641    3.4330    0.0000 C   0  0  0  0  0  0  0  0  0  0  0  0
    3.7320    3.4330    0.0000 C   0  0  0  0  0  0  0  0  0  0  0  0
    4.5981    3.9330    0.0000 C   0  0  0  0  0  0  0  0  0  0  0  0
    1.7880   -1.9844    0.0000 H   0  0  0  0  0  0  0  0  0  0  0  0
    1.3894   -2.6747    0.0000 H   0  0  0  0  0  0  0  0  0  0  0  0
    4.3426   -2.6747    0.0000 H   0  0  0  0  0  0  0  0  0  0  0  0
    3.9441   -1.9844    0.0000 H   0  0  0  0  0  0  0  0  0  0  0  0
    1.3894   -3.4593    0.0000 H   0  0  0  0  0  0  0  0  0  0  0  0
    1.7880   -4.1496    0.0000 H   0  0  0  0  0  0  0  0  0  0  0  0
    3.9441   -4.1496    0.0000 H   0  0  0  0  0  0  0  0  0  0  0  0
    4.3426   -3.4593    0.0000 H   0  0  0  0  0  0  0  0  0  0  0  0
    2.6540   -0.4844    0.0000 H   0  0  0  0  0  0  0  0  0  0  0  0
    2.2554   -1.1746    0.0000 H   0  0  0  0  0  0  0  0  0  0  0  0
    3.1951    0.7430    0.0000 H   0  0  0  0  0  0  0  0  0  0  0  0
    4.8101    0.3504    0.0000 H   0  0  0  0  0  0  0  0  0  0  0  0
    5.2087    1.0407    0.0000 H   0  0  0  0  0  0  0  0  0  0  0  0
    6.0010    2.1230    0.0000 H   0  0  0  0  0  0  0  0  0  0  0  0
    3.1951    2.1230    0.0000 H   0  0  0  0  0  0  0  0  0  0  0  0
    6.0010    3.7430    0.0000 H   0  0  0  0  0  0  0  0  0  0  0  0
    3.1951    3.7430    0.0000 H   0  0  0  0  0  0  0  0  0  0  0  0
  1  3  2  0  0  0  0
  1  4  2  0  0  0  0
  1  8  1  0  0  0  0
  1  9  1  0  0  0  0
  2 20  1  0  0  0  0
  5 13  2  0  0  0  0
  6 10  1  0  0  0  0
  6 11  1  0  0  0  0
  6 12  1  0  0  0  0
  7 13  1  0  0  0  0
  7 14  1  0  0  0  0
  7 31  1  0  0  0  0
  8 10  1  0  0  0  0
  8 25  1  0  0  0  0
  8 26  1  0  0  0  0
  9 11  1  0  0  0  0
  9 27  1  0  0  0  0
  9 28  1  0  0  0  0
 10 21  1  0  0  0  0
 10 22  1  0  0  0  0
 11 23  1  0  0  0  0
 11 24  1  0  0  0  0
 12 13  1  0  0  0  0
 12 29  1  0  0  0  0
 12 30  1  0  0  0  0
 14 15  1  0  0  0  0
 14 32  1  0  0  0  0
 14 33  1  0  0  0  0
 15 16  2  0  0  0  0
 15 17  1  0  0  0  0
 16 18  1  0  0  0  0
 16 34  1  0  0  0  0
 17 19  2  0  0  0  0
 17 35  1  0  0  0  0
 18 20  2  0  0  0  0
 18 36  1  0  0  0  0
 19 20  1  0  0  0  0
 19 37  1  0  0  0  0
M  END
> <PUBCHEM_COMPOUND_CID>
47205465

> <PUBCHEM_COMPOUND_CANONICALIZED>
1

> <PUBCHEM_CACTVS_COMPLEXITY>
413

> <PUBCHEM_CACTVS_HBOND_ACCEPTOR>
5

> <PUBCHEM_CACTVS_HBOND_DONOR>
1

> <PUBCHEM_CACTVS_ROTATABLE_BOND>
4

> <PUBCHEM_CACTVS_SUBSKEYS>
AAADceBzMQBAAAAAAAAAAAAAAAAAAAAAAAA8QAAAAAAAAAABAAAAHwQQAAAADADF2AywAIPAAAqIAiFSEHDCAAAgABAIiICIBIgIYCKAkTGUIAhglgCoiAcQgAAOAAAAAAAAAAAAAAAAAAAAAAAAAAAAAA==

> <PUBCHEM_IUPAC_OPENEYE_NAME>
2-(1,1-dioxo-1,4-thiazinan-4-yl)-N-[(4-fluorophenyl)methyl]acetamide

> <PUBCHEM_IUPAC_CAS_NAME>
2-(1,1-dioxo-1,4-thiazinan-4-yl)-N-[(4-fluorophenyl)methyl]acetamide

> <PUBCHEM_IUPAC_NAME>
2-(1,1-dioxo-1,4-thiazinan-4-yl)-N-[(4-fluorophenyl)methyl]acetamide

> <PUBCHEM_IUPAC_SYSTEMATIC_NAME>
2-[1,1-bis(oxidanylidene)-1,4-thiazinan-4-yl]-N-[(4-fluorophenyl)methyl]ethanamide

> <PUBCHEM_IUPAC_TRADITIONAL_NAME>
2-(1,1-diketo-1,4-thiazinan-4-yl)-N-(4-fluorobenzyl)acetamide

> <PUBCHEM_IUPAC_INCHI>
InChI=1S/C13H17FN2O3S/c14-12-3-1-11(2-4-12)9-15-13(17)10-16-5-7-20(18,19)8-6-16/h1-4H,5-10H2,(H,15,17)

> <PUBCHEM_IUPAC_INCHIKEY>
YUVPFZJJSQUASL-UHFFFAOYSA-N

> <PUBCHEM_XLOGP3>
0.3

> <PUBCHEM_EXACT_MASS>
300.094392

> <PUBCHEM_MOLECULAR_FORMULA>
C13H17FN2O3S

> <PUBCHEM_MOLECULAR_WEIGHT>
300.349083

> <PUBCHEM_OPENEYE_CAN_SMILES>
C1CS(=O)(=O)CCN1CC(=O)NCC2=CC=C(C=C2)F

> <PUBCHEM_OPENEYE_ISO_SMILES>
C1CS(=O)(=O)CCN1CC(=O)NCC2=CC=C(C=C2)F

> <PUBCHEM_CACTVS_TPSA>
74.9

> <PUBCHEM_MONOISOTOPIC_WEIGHT>
300.094392

> <PUBCHEM_TOTAL_CHARGE>
0

> <PUBCHEM_HEAVY_ATOM_COUNT>
20

> <PUBCHEM_ATOM_DEF_STEREO_COUNT>
0

> <PUBCHEM_ATOM_UDEF_STEREO_COUNT>
0

> <PUBCHEM_BOND_DEF_STEREO_COUNT>
0

> <PUBCHEM_BOND_UDEF_STEREO_COUNT>
0

> <PUBCHEM_ISOTOPIC_ATOM_COUNT>
0

> <PUBCHEM_COMPONENT_COUNT>
1

> <PUBCHEM_CACTVS_TAUTO_COUNT>
2

> <PUBCHEM_COORDINATE_TYPE>
1
5
255

> <PUBCHEM_BONDANNOTATIONS>
15  16  8
15  17  8
16  18  8
17  19  8
18  20  8
19  20  8

$$$$

