5359271
  -OEChem-07051212532D

 46 50  0     1  0  0  0  0  0999 V2000
    3.0974   -0.3872    0.0000 O   0  0  0  0  0  0  0  0  0  0  0  0
    2.8660   -2.8422    0.0000 O   0  0  0  0  0  0  0  0  0  0  0  0
    2.8660    1.9622    0.0000 O   0  0  0  0  0  0  0  0  0  0  0  0
    7.0267   -1.3911    0.0000 N   0  0  3  0  0  0  0  0  0  0  0  0
    4.5557   -0.9155    0.0000 C   0  0  1  0  0  0  0  0  0  0  0  0
    5.3793   -1.3911    0.0000 C   0  0  2  0  0  0  0  0  0  0  0  0
    6.2030   -0.9155    0.0000 C   0  0  1  0  0  0  0  0  0  0  0  0
    3.7320   -1.3911    0.0000 C   0  0  2  0  0  0  0  0  0  0  0  0
    5.1052   -0.2181    0.0000 C   0  0  0  0  0  0  0  0  0  0  0  0
    4.5557    0.0355    0.0000 C   0  0  0  0  0  0  0  0  0  0  0  0
    6.2030    0.0355    0.0000 C   0  0  0  0  0  0  0  0  0  0  0  0
    6.4578   -0.2181    0.0000 C   0  0  0  0  0  0  0  0  0  0  0  0
    5.3793    0.5111    0.0000 C   0  0  0  0  0  0  0  0  0  0  0  0
    3.7320   -2.3422    0.0000 C   0  0  2  0  0  0  0  0  0  0  0  0
    5.3793   -2.3422    0.0000 C   0  0  0  0  0  0  0  0  0  0  0  0
    3.7320    0.5111    0.0000 C   0  0  0  0  0  0  0  0  0  0  0  0
    4.5557   -2.8177    0.0000 C   0  0  0  0  0  0  0  0  0  0  0  0
    5.3793    1.4622    0.0000 C   0  0  0  0  0  0  0  0  0  0  0  0
    7.7078   -2.1232    0.0000 C   0  0  0  0  0  0  0  0  0  0  0  0
    3.7320    1.4622    0.0000 C   0  0  0  0  0  0  0  0  0  0  0  0
    4.5557    1.9377    0.0000 C   0  0  0  0  0  0  0  0  0  0  0  0
    2.8660    2.9622    0.0000 C   0  0  0  0  0  0  0  0  0  0  0  0
    2.0000    3.4622    0.0000 C   0  0  0  0  0  0  0  0  0  0  0  0
    5.9257   -2.0422    0.0000 H   0  0  0  0  0  0  0  0  0  0  0  0
    6.4944   -1.7140    0.0000 H   0  0  0  0  0  0  0  0  0  0  0  0
    2.9156   -1.6275    0.0000 H   0  0  0  0  0  0  0  0  0  0  0  0
    5.2420    0.3866    0.0000 H   0  0  0  0  0  0  0  0  0  0  0  0
    4.5456    0.0487    0.0000 H   0  0  0  0  0  0  0  0  0  0  0  0
    6.8136   -0.0721    0.0000 H   0  0  0  0  0  0  0  0  0  0  0  0
    6.4151    0.6181    0.0000 H   0  0  0  0  0  0  0  0  0  0  0  0
    7.0500   -0.0343    0.0000 H   0  0  0  0  0  0  0  0  0  0  0  0
    6.3649    0.3949    0.0000 H   0  0  0  0  0  0  0  0  0  0  0  0
    3.7320   -2.9622    0.0000 H   0  0  0  0  0  0  0  0  0  0  0  0
    5.9163   -2.6521    0.0000 H   0  0  0  0  0  0  0  0  0  0  0  0
    4.5557   -3.4377    0.0000 H   0  0  0  0  0  0  0  0  0  0  0  0
    5.9163    1.7722    0.0000 H   0  0  0  0  0  0  0  0  0  0  0  0
    7.2539   -2.5455    0.0000 H   0  0  0  0  0  0  0  0  0  0  0  0
    8.1302   -2.5771    0.0000 H   0  0  0  0  0  0  0  0  0  0  0  0
    8.1618   -1.7009    0.0000 H   0  0  0  0  0  0  0  0  0  0  0  0
    4.5557    2.5577    0.0000 H   0  0  0  0  0  0  0  0  0  0  0  0
    2.8660   -3.4622    0.0000 H   0  0  0  0  0  0  0  0  0  0  0  0
    3.4766    2.8545    0.0000 H   0  0  0  0  0  0  0  0  0  0  0  0
    3.0781    3.5448    0.0000 H   0  0  0  0  0  0  0  0  0  0  0  0
    2.3100    3.9991    0.0000 H   0  0  0  0  0  0  0  0  0  0  0  0
    1.4631    3.7722    0.0000 H   0  0  0  0  0  0  0  0  0  0  0  0
    1.6900    2.9252    0.0000 H   0  0  0  0  0  0  0  0  0  0  0  0
  1  8  1  0  0  0  0
  1 16  1  0  0  0  0
 14  2  1  6  0  0  0
  2 41  1  0  0  0  0
  3 20  1  0  0  0  0
  3 22  1  0  0  0  0
  4  7  1  0  0  0  0
  4 12  1  0  0  0  0
  4 19  1  0  0  0  0
  5  6  1  0  0  0  0
  5  8  1  0  0  0  0
  5  9  1  1  0  0  0
  5 10  1  0  0  0  0
  6  7  1  0  0  0  0
  6 15  1  0  0  0  0
  6 24  1  1  0  0  0
  7 11  1  0  0  0  0
  7 25  1  6  0  0  0
  8 14  1  0  0  0  0
  8 26  1  1  0  0  0
  9 12  1  0  0  0  0
  9 27  1  0  0  0  0
  9 28  1  0  0  0  0
 10 13  2  0  0  0  0
 10 16  1  0  0  0  0
 11 13  1  0  0  0  0
 11 29  1  0  0  0  0
 11 30  1  0  0  0  0
 12 31  1  0  0  0  0
 12 32  1  0  0  0  0
 13 18  1  0  0  0  0
 14 17  1  0  0  0  0
 14 33  1  0  0  0  0
 15 17  2  0  0  0  0
 15 34  1  0  0  0  0
 16 20  2  0  0  0  0
 17 35  1  0  0  0  0
 18 21  2  0  0  0  0
 18 36  1  0  0  0  0
 19 37  1  0  0  0  0
 19 38  1  0  0  0  0
 19 39  1  0  0  0  0
 20 21  1  0  0  0  0
 21 40  1  0  0  0  0
 22 23  1  0  0  0  0
 22 42  1  0  0  0  0
 22 43  1  0  0  0  0
 23 44  1  0  0  0  0
 23 45  1  0  0  0  0
 23 46  1  0  0  0  0
M  END
> <PUBCHEM_COMPOUND_CID>
5359271

> <PUBCHEM_COMPOUND_CANONICALIZED>
1

> <PUBCHEM_CACTVS_COMPLEXITY>
523

> <PUBCHEM_CACTVS_HBOND_ACCEPTOR>
4

> <PUBCHEM_CACTVS_HBOND_DONOR>
1

> <PUBCHEM_CACTVS_ROTATABLE_BOND>
2

> <PUBCHEM_CACTVS_SUBSKEYS>
AAADceB6MAAAAAAAAAAAAAAAAAAAASAAAAA8YIEAAAAWAEjBAAAAHgAACAAADzzhmAYyBoMABgCAAiBCAAACCAAgIAAIiAAOiIgNNiKEsRuGeCKkwBGLuAew8P8PoAABAAAYQADQAAaAADSAAAAAAAAAAA==

> <PUBCHEM_IUPAC_OPENEYE_NAME>
(4R,4aR,7S,7aR,12bS)-9-ethoxy-3-methyl-2,4,4a,7,7a,13-hexahydro-1H-4,12-methanobenzofuro[3,2-e]isoquinoline-7-ol

> <PUBCHEM_IUPAC_CAS_NAME>
(4R,4aR,7S,7aR,12bS)-9-ethoxy-3-methyl-2,4,4a,7,7a,13-hexahydro-1H-4,12-methanobenzofuro[3,2-e]isoquinoline-7-ol

> <PUBCHEM_IUPAC_NAME>
(4R,4aR,7S,7aR,12bS)-9-ethoxy-3-methyl-2,4,4a,7,7a,13-hexahydro-1H-4,12-methanobenzofuro[3,2-e]isoquinoline-7-ol

> <PUBCHEM_IUPAC_SYSTEMATIC_NAME>
(4R,4aR,7S,7aR,12bS)-9-ethoxy-3-methyl-2,4,4a,7,7a,13-hexahydro-1H-4,12-methanobenzofuro[3,2-e]isoquinoline-7-ol

> <PUBCHEM_IUPAC_TRADITIONAL_NAME>
(4R,4aR,7S,7aR,12bS)-9-ethoxy-3-methyl-2,4,4a,7,7a,13-hexahydro-1H-4,12-methanobenzofuro[3,2-e]isoquinoline-7-ol

> <PUBCHEM_IUPAC_INCHI>
InChI=1S/C19H23NO3/c1-3-22-15-7-4-11-10-13-12-5-6-14(21)18-19(12,8-9-20(13)2)16(11)17(15)23-18/h4-7,12-14,18,21H,3,8-10H2,1-2H3/t12-,13+,14-,18-,19-/m0/s1

> <PUBCHEM_IUPAC_INCHIKEY>
OGDVEMNWJVYAJL-LEPYJNQMSA-N

> <PUBCHEM_XLOGP3>
1.5

> <PUBCHEM_EXACT_MASS>
313.167794

> <PUBCHEM_MOLECULAR_FORMULA>
C19H23NO3

> <PUBCHEM_MOLECULAR_WEIGHT>
313.39082

> <PUBCHEM_OPENEYE_CAN_SMILES>
CCOC1=C2C3=C(CC4C5C3(CCN4C)C(O2)C(C=C5)O)C=C1

> <PUBCHEM_OPENEYE_ISO_SMILES>
CCOC1=C2C3=C(C[C@@H]4[C@H]5[C@]3(CCN4C)[C@@H](O2)[C@H](C=C5)O)C=C1

> <PUBCHEM_CACTVS_TPSA>
41.9

> <PUBCHEM_MONOISOTOPIC_WEIGHT>
313.167794

> <PUBCHEM_TOTAL_CHARGE>
0

> <PUBCHEM_HEAVY_ATOM_COUNT>
23

> <PUBCHEM_ATOM_DEF_STEREO_COUNT>
5

> <PUBCHEM_ATOM_UDEF_STEREO_COUNT>
0

> <PUBCHEM_BOND_DEF_STEREO_COUNT>
0

> <PUBCHEM_BOND_UDEF_STEREO_COUNT>
0

> <PUBCHEM_ISOTOPIC_ATOM_COUNT>
0

> <PUBCHEM_COMPONENT_COUNT>
1

> <PUBCHEM_CACTVS_TAUTO_COUNT>
1

> <PUBCHEM_COORDINATE_TYPE>
1
5
255

> <PUBCHEM_BONDANNOTATIONS>
10  13  8
10  16  8
13  18  8
16  20  8
18  21  8
14  2  6
20  21  8
5  9  5
6  24  5
7  25  6
8  26  5

$$$$

