   Color/Form

     * Colorless gas or liquid
     * Water-white liquid below 26.5 deg C (acid)
     * Colorless to bluish white liquid
     * Colorless or pale-blue liquid or gas (above 78 degrees F) ...
       [Note: Often used as a 96% solution in water].

   from [1]HSDB

   Odor

     * Characteristic sweetish, like almond
     * ... Bitter, almond-like odor.

   from [2]HSDB

   Taste
        Bitter, burning taste
   from [3]HSDB

   Boiling Point
        25.6 deg C (acid)
   from [4]HSDB

   Melting Point
        -13.4 deg C (acid)
   from [5]HSDB

   Corrosivity

     * Although HCN is a weak acid and normally not considered corrosive,
       it has a corrosive effect under two special conditions: (1) water
       solutions of HCN cause transcrystalline stress-cracking of carbon
       steels under stress even at room temperature and in dilute
       solution; (2) water solutions of HCN containing sulfuric acid as a
       stabilizer severely corrode steel above 40 deg C and stainless
       steels above 80 deg C.
     * Liquid hydrogen cyanide will attack some forms of plastics, rubber,
       and coatings.

   from [6]HSDB

   Critical Temperature and Pressure
        Critical temperature: 183.5 deg C; Critical pressure: 5.4 MPa
   from [7]HSDB

   Density/Specific Gravity
        (liq) 0.687
   from [8]HSDB

   Dissociation Constants
        pKa = 9.2
   from [9]HSDB

   Heat of Combustion
        642 kJ/mol
   from [10]HSDB

   Heat of Vaporization
        25.2 kJ/mol
   from [11]HSDB

   Octanol/Water Partition Coefficient
        log Kow = -0.25
   from [12]HSDB

   pH
        Very weak acid (does not redden litmus)
   from [13]HSDB

   Solubilities

     * Miscible with alcohol; slightly sol in ether
     * Miscible with water

   from [14]HSDB

   Spectral Properties

     * Index of refraction: 1.2614 at 20 deg C/D
     * IR: 1642 (Documentation of Molecular Spectroscopy Collection)
     * 13C NMR: 308 (Stothers, Carbon-13 NMR Spectroscopy, Academic Press,
       New York)
     * MASS: 18813 (NIST/EPA/MSDC Mass Spectral database, 1990 version)

   from [15]HSDB

   Vapor Density
        0.94 (Air = 1)
   from [16]HSDB

   Vapor Pressure
        742 mm Hg at 25 deg C
   from [17]HSDB

   Other Chemical/Physical Properties

     * Density: (gas) 0.941 (Air = 1)
     * Burns in air with a blue flame (acid)
     * 1 mg/cu m = 0.9 ppm; 1 ppm = 1.13 mg/cu m (acid)
     * When not absolutely pure or stabilized, it polymerizes
       spontaneously with explosive violence. (acid)
     * Henry's Law constant = 1.33X10-4 atm-cu m/mol at 25 deg C [Gaffney
       JS et al; Environ Sci Technol 21: 519-23 (1987)] [18]PubMed
       Abstract
     * Hydroxyl radical reaction rate constant = 3.00X10-14 cu m/molc-sec
       at 25 deg C

   from [19]HSDB

   Computed Properties
   Molecular Weight                  27.02534 [g/mol]
   Molecular Formula                 CHN
   XLogP3-AA                         0.1
   H-Bond Donor                      0
   H-Bond Acceptor                   1
   Rotatable Bond Count              0
   Tautomer Count                    2
   Exact Mass                        27.010899
   MonoIsotopic Mass                 27.010899
   Topological Polar Surface Area    23.8
   Heavy Atom Count                  2
   Formal Charge                     0
   Complexity                        10
   Isotope Atom Count                0
   Defined Atom Stereocenter Count   0
   Undefined Atom Stereocenter Count 0
   Defined Bond Stereocenter Count   0
   Undefined Bond Stereocenter Count 0
   Covalently-Bonded Unit Count      1
   Feature 3D Acceptor Count         1
   Effective Rotor Count             0
   Conformer Sampling RMSD           0.4
   CID Conformer Count               [20]1

References

   1. http://toxnet.nlm.nih.gov/cgi-bin/sis/search/r?dbs+hsdb:@term+@rn+@rel+74-90-8
   2. http://toxnet.nlm.nih.gov/cgi-bin/sis/search/r?dbs+hsdb:@term+@rn+@rel+74-90-8
   3. http://toxnet.nlm.nih.gov/cgi-bin/sis/search/r?dbs+hsdb:@term+@rn+@rel+74-90-8
   4. http://toxnet.nlm.nih.gov/cgi-bin/sis/search/r?dbs+hsdb:@term+@rn+@rel+74-90-8
   5. http://toxnet.nlm.nih.gov/cgi-bin/sis/search/r?dbs+hsdb:@term+@rn+@rel+74-90-8
   6. http://toxnet.nlm.nih.gov/cgi-bin/sis/search/r?dbs+hsdb:@term+@rn+@rel+74-90-8
   7. http://toxnet.nlm.nih.gov/cgi-bin/sis/search/r?dbs+hsdb:@term+@rn+@rel+74-90-8
   8. http://toxnet.nlm.nih.gov/cgi-bin/sis/search/r?dbs+hsdb:@term+@rn+@rel+74-90-8
   9. http://toxnet.nlm.nih.gov/cgi-bin/sis/search/r?dbs+hsdb:@term+@rn+@rel+74-90-8
  10. http://toxnet.nlm.nih.gov/cgi-bin/sis/search/r?dbs+hsdb:@term+@rn+@rel+74-90-8
  11. http://toxnet.nlm.nih.gov/cgi-bin/sis/search/r?dbs+hsdb:@term+@rn+@rel+74-90-8
  12. http://toxnet.nlm.nih.gov/cgi-bin/sis/search/r?dbs+hsdb:@term+@rn+@rel+74-90-8
  13. http://toxnet.nlm.nih.gov/cgi-bin/sis/search/r?dbs+hsdb:@term+@rn+@rel+74-90-8
  14. http://toxnet.nlm.nih.gov/cgi-bin/sis/search/r?dbs+hsdb:@term+@rn+@rel+74-90-8
  15. http://toxnet.nlm.nih.gov/cgi-bin/sis/search/r?dbs+hsdb:@term+@rn+@rel+74-90-8
  16. http://toxnet.nlm.nih.gov/cgi-bin/sis/search/r?dbs+hsdb:@term+@rn+@rel+74-90-8
  17. http://toxnet.nlm.nih.gov/cgi-bin/sis/search/r?dbs+hsdb:@term+@rn+@rel+74-90-8
  18. http://www.ncbi.nlm.nih.gov/entrez/query.fcgi?cmd=Retrieve&db=pubmed&dopt=Abstract&list_uids=19994967
  19. http://toxnet.nlm.nih.gov/cgi-bin/sis/search/r?dbs+hsdb:@term+@rn+@rel+74-90-8
  20. http://pubchem.ncbi.nlm.nih.gov/vw3d/vw3d.cgi?cid=768
