107541
  -OEChem-07051212462D

 16 16  0     1  0  0  0  0  0999 V2000
    6.1807   -1.5236    0.0000 O   0  0  0  0  0  0  0  0  0  0  0  0
    2.5896   -0.1237    0.0000 O   0  0  0  0  0  0  0  0  0  0  0  0
    3.1249    1.5236    0.0000 O   0  0  0  0  0  0  0  0  0  0  0  0
    5.0929    0.8242    0.0000 N   0  0  0  0  0  0  0  0  0  0  0  0
    4.2839    0.2365    0.0000 C   0  0  1  0  0  0  0  0  0  0  0  0
    4.5929   -0.7146    0.0000 C   0  0  0  0  0  0  0  0  0  0  0  0
    5.9019    0.2365    0.0000 C   0  0  0  0  0  0  0  0  0  0  0  0
    5.5929   -0.7146    0.0000 C   0  0  0  0  0  0  0  0  0  0  0  0
    3.3328    0.5455    0.0000 C   0  0  0  0  0  0  0  0  0  0  0  0
    4.1869    0.8488    0.0000 H   0  0  0  0  0  0  0  0  0  0  0  0
    3.9864   -0.8435    0.0000 H   0  0  0  0  0  0  0  0  0  0  0  0
    4.6577   -1.3312    0.0000 H   0  0  0  0  0  0  0  0  0  0  0  0
    6.4683   -0.0157    0.0000 H   0  0  0  0  0  0  0  0  0  0  0  0
    6.2119    0.7734    0.0000 H   0  0  0  0  0  0  0  0  0  0  0  0
    5.0929    1.4442    0.0000 H   0  0  0  0  0  0  0  0  0  0  0  0
    2.0000    0.0679    0.0000 H   0  0  0  0  0  0  0  0  0  0  0  0
  1  8  2  0  0  0  0
  2  9  1  0  0  0  0
  2 16  1  0  0  0  0
  3  9  2  0  0  0  0
  4  5  1  0  0  0  0
  4  7  1  0  0  0  0
  4 15  1  0  0  0  0
  5  6  1  0  0  0  0
  5  9  1  1  0  0  0
  5 10  1  0  0  0  0
  6  8  1  0  0  0  0
  6 11  1  0  0  0  0
  6 12  1  0  0  0  0
  7  8  1  0  0  0  0
  7 13  1  0  0  0  0
  7 14  1  0  0  0  0
M  END
> <PUBCHEM_COMPOUND_CID>
107541

> <PUBCHEM_COMPOUND_CANONICALIZED>
1

> <PUBCHEM_CACTVS_COMPLEXITY>
154

> <PUBCHEM_CACTVS_HBOND_ACCEPTOR>
4

> <PUBCHEM_CACTVS_HBOND_DONOR>
2

> <PUBCHEM_CACTVS_ROTATABLE_BOND>
1

> <PUBCHEM_CACTVS_SUBSKEYS>
AAADcYBiMAAAAAAAAAAAAAAAAAAAAWAAAAAAAAAAAAAAAAAAAAAAHgAQCAAACCzBgAQACALAAgAIAICQCAAAAAAAAAAAAIGIAAACABoAgCAEQAAEEACQAACbEQAAAAAAAAAAAAAAAAAAAAAAAAAAAAAAAA==

> <PUBCHEM_IUPAC_OPENEYE_NAME>
(2S)-4-oxopyrrolidine-2-carboxylic acid

> <PUBCHEM_IUPAC_CAS_NAME>
(2S)-4-oxo-2-pyrrolidinecarboxylic acid

> <PUBCHEM_IUPAC_NAME>
(2S)-4-oxopyrrolidine-2-carboxylic acid

> <PUBCHEM_IUPAC_SYSTEMATIC_NAME>
(2S)-4-oxidanylidenepyrrolidine-2-carboxylic acid

> <PUBCHEM_IUPAC_TRADITIONAL_NAME>
(2S)-4-ketoproline

> <PUBCHEM_IUPAC_INCHI>
InChI=1S/C5H7NO3/c7-3-1-4(5(8)9)6-2-3/h4,6H,1-2H2,(H,8,9)/t4-/m0/s1

> <PUBCHEM_IUPAC_INCHIKEY>
HFXAFXVXPMUQCQ-BYPYZUCNSA-N

> <PUBCHEM_XLOGP3_AA>
-3.3

> <PUBCHEM_EXACT_MASS>
129.042593

> <PUBCHEM_MOLECULAR_FORMULA>
C5H7NO3

> <PUBCHEM_MOLECULAR_WEIGHT>
129.11398

> <PUBCHEM_OPENEYE_CAN_SMILES>
C1C(NCC1=O)C(=O)O

> <PUBCHEM_OPENEYE_ISO_SMILES>
C1[C@H](NCC1=O)C(=O)O

> <PUBCHEM_CACTVS_TPSA>
66.4

> <PUBCHEM_MONOISOTOPIC_WEIGHT>
129.042593

> <PUBCHEM_TOTAL_CHARGE>
0

> <PUBCHEM_HEAVY_ATOM_COUNT>
9

> <PUBCHEM_ATOM_DEF_STEREO_COUNT>
1

> <PUBCHEM_ATOM_UDEF_STEREO_COUNT>
0

> <PUBCHEM_BOND_DEF_STEREO_COUNT>
0

> <PUBCHEM_BOND_UDEF_STEREO_COUNT>
0

> <PUBCHEM_ISOTOPIC_ATOM_COUNT>
0

> <PUBCHEM_COMPONENT_COUNT>
1

> <PUBCHEM_CACTVS_TAUTO_COUNT>
3

> <PUBCHEM_COORDINATE_TYPE>
1
5
255

> <PUBCHEM_BONDANNOTATIONS>
5  9  5

$$$$

