132448
  -OEChem-07051213102D

 31 32  0     1  0  0  0  0  0999 V2000
    7.6567    0.1443    0.0000 S   0  0  0  0  0  0  0  0  0  0  0  0
    3.4040   -1.0684    0.0000 O   0  0  0  0  0  0  0  0  0  0  0  0
    2.4375    1.1002    0.0000 O   0  0  0  0  0  0  0  0  0  0  0  0
    7.3561   -1.8237    0.0000 O   0  0  0  0  0  0  0  0  0  0  0  0
    5.7088   -2.3589    0.0000 O   0  0  0  0  0  0  0  0  0  0  0  0
    5.1179   -0.3557    0.0000 N   0  0  0  0  0  0  0  0  0  0  0  0
    9.6567    1.8764    0.0000 N   0  0  0  0  0  0  0  0  0  0  0  0
    5.1179    0.6443    0.0000 C   0  0  1  0  0  0  0  0  0  0  0  0
    4.1096    0.6485    0.0000 C   0  0  2  0  0  0  0  0  0  0  0  0
    6.0690    0.9533    0.0000 C   0  0  0  0  0  0  0  0  0  0  0  0
    4.1096   -0.3598    0.0000 C   0  0  0  0  0  0  0  0  0  0  0  0
    6.0690   -0.6647    0.0000 C   0  0  0  0  0  0  0  0  0  0  0  0
    6.6567    0.1443    0.0000 C   0  0  0  0  0  0  0  0  0  0  0  0
    3.4040    1.3570    0.0000 C   0  0  0  0  0  0  0  0  0  0  0  0
    6.3780   -1.6158    0.0000 C   0  0  0  0  0  0  0  0  0  0  0  0
    8.1567    1.0104    0.0000 C   0  0  0  0  0  0  0  0  0  0  0  0
    9.1567    1.0104    0.0000 C   0  0  0  0  0  0  0  0  0  0  0  0
    4.9866    1.4841    0.0000 H   0  0  0  0  0  0  0  0  0  0  0  0
    3.5366    0.4118    0.0000 H   0  0  0  0  0  0  0  0  0  0  0  0
    6.6059    1.2633    0.0000 H   0  0  0  0  0  0  0  0  0  0  0  0
    5.8168    1.5197    0.0000 H   0  0  0  0  0  0  0  0  0  0  0  0
    3.9126    1.7116    0.0000 H   0  0  0  0  0  0  0  0  0  0  0  0
    3.1431    1.9195    0.0000 H   0  0  0  0  0  0  0  0  0  0  0  0
    2.0000    1.5395    0.0000 H   0  0  0  0  0  0  0  0  0  0  0  0
    8.2644    1.6209    0.0000 H   0  0  0  0  0  0  0  0  0  0  0  0
    7.5741    1.2224    0.0000 H   0  0  0  0  0  0  0  0  0  0  0  0
    9.0491    0.3998    0.0000 H   0  0  0  0  0  0  0  0  0  0  0  0
    9.7393    0.7983    0.0000 H   0  0  0  0  0  0  0  0  0  0  0  0
    7.5477   -2.4133    0.0000 H   0  0  0  0  0  0  0  0  0  0  0  0
   10.2767    1.8764    0.0000 H   0  0  0  0  0  0  0  0  0  0  0  0
    9.3467    2.4133    0.0000 H   0  0  0  0  0  0  0  0  0  0  0  0
  1 13  1  0  0  0  0
  1 16  1  0  0  0  0
  2 11  2  0  0  0  0
  3 14  1  0  0  0  0
  3 24  1  0  0  0  0
  4 15  1  0  0  0  0
  4 29  1  0  0  0  0
  5 15  2  0  0  0  0
  6  8  1  0  0  0  0
  6 11  1  0  0  0  0
  6 12  1  0  0  0  0
  7 17  1  0  0  0  0
  7 30  1  0  0  0  0
  7 31  1  0  0  0  0
  8  9  1  0  0  0  0
  8 10  1  0  0  0  0
  8 18  1  6  0  0  0
  9 11  1  0  0  0  0
  9 14  1  6  0  0  0
  9 19  1  0  0  0  0
 10 13  1  0  0  0  0
 10 20  1  0  0  0  0
 10 21  1  0  0  0  0
 12 13  2  0  0  0  0
 12 15  1  0  0  0  0
 14 22  1  0  0  0  0
 14 23  1  0  0  0  0
 16 17  1  0  0  0  0
 16 25  1  0  0  0  0
 16 26  1  0  0  0  0
 17 27  1  0  0  0  0
 17 28  1  0  0  0  0
M  END
> <PUBCHEM_COMPOUND_CID>
132448

> <PUBCHEM_COMPOUND_CANONICALIZED>
1

> <PUBCHEM_CACTVS_COMPLEXITY>
396

> <PUBCHEM_CACTVS_HBOND_ACCEPTOR>
6

> <PUBCHEM_CACTVS_HBOND_DONOR>
3

> <PUBCHEM_CACTVS_ROTATABLE_BOND>
5

> <PUBCHEM_CACTVS_SUBSKEYS>
AAADccBzOABAAAAAAAAAAAAAAABYAQAAAAAAAAAABAAAAAAAAAAAHgQQCAAADSjlwAaACANAAgiIAAXQWAAAAAAgABAACIGIAEgCFB4ggCAEUAAGtgC4EQKYAAAMAAAAAAAAAAAAAAAAAAAAAAAAAAAAAA==

> <PUBCHEM_IUPAC_OPENEYE_NAME>
(5R,6S)-3-(2-aminoethylsulfanyl)-6-(hydroxymethyl)-7-oxo-1-azabicyclo[3.2.0]hept-2-ene-2-carboxylic acid

> <PUBCHEM_IUPAC_CAS_NAME>
(5R,6S)-3-(2-aminoethylthio)-6-(hydroxymethyl)-7-oxo-1-azabicyclo[3.2.0]hept-2-ene-2-carboxylic acid

> <PUBCHEM_IUPAC_NAME>
(5R,6S)-3-(2-aminoethylsulfanyl)-6-(hydroxymethyl)-7-oxo-1-azabicyclo[3.2.0]hept-2-ene-2-carboxylic acid

> <PUBCHEM_IUPAC_SYSTEMATIC_NAME>
(5R,6S)-3-(2-azanylethylsulfanyl)-6-(hydroxymethyl)-7-oxidanylidene-1-azabicyclo[3.2.0]hept-2-ene-2-carboxylic acid

> <PUBCHEM_IUPAC_TRADITIONAL_NAME>
(5R,6S)-3-(2-aminoethylthio)-7-keto-6-methylol-1-azabicyclo[3.2.0]hept-2-ene-2-carboxylic acid

> <PUBCHEM_IUPAC_INCHI>
InChI=1S/C10H14N2O4S/c11-1-2-17-7-3-6-5(4-13)9(14)12(6)8(7)10(15)16/h5-6,13H,1-4,11H2,(H,15,16)/t5-,6-/m1/s1

> <PUBCHEM_IUPAC_INCHIKEY>
CORBMZCTOZNVHZ-PHDIDXHHSA-N

> <PUBCHEM_XLOGP3_AA>
-3.4

> <PUBCHEM_EXACT_MASS>
258.067428

> <PUBCHEM_MOLECULAR_FORMULA>
C10H14N2O4S

> <PUBCHEM_MOLECULAR_WEIGHT>
258.29416

> <PUBCHEM_OPENEYE_CAN_SMILES>
C1C2C(C(=O)N2C(=C1SCCN)C(=O)O)CO

> <PUBCHEM_OPENEYE_ISO_SMILES>
C1[C@@H]2[C@H](C(=O)N2C(=C1SCCN)C(=O)O)CO

> <PUBCHEM_CACTVS_TPSA>
129

> <PUBCHEM_MONOISOTOPIC_WEIGHT>
258.067428

> <PUBCHEM_TOTAL_CHARGE>
0

> <PUBCHEM_HEAVY_ATOM_COUNT>
17

> <PUBCHEM_ATOM_DEF_STEREO_COUNT>
2

> <PUBCHEM_ATOM_UDEF_STEREO_COUNT>
0

> <PUBCHEM_BOND_DEF_STEREO_COUNT>
0

> <PUBCHEM_BOND_UDEF_STEREO_COUNT>
0

> <PUBCHEM_ISOTOPIC_ATOM_COUNT>
0

> <PUBCHEM_COMPONENT_COUNT>
1

> <PUBCHEM_CACTVS_TAUTO_COUNT>
2

> <PUBCHEM_COORDINATE_TYPE>
1
5
255

> <PUBCHEM_BONDANNOTATIONS>
8  18  6
9  14  6

$$$$

