   Color/Form
        WHITE TO OFF-WHITE
   from [1]HSDB

   Melting Point
        136-137 DEG C
   from [2]HSDB

   Dissociation Constants
        PKA: 2.8
   from [3]HSDB

   Solubilities

     * SOL IN ETHYL ACETATE, CHLOROFORM
     * SLIGHTLY SOL IN WATER, ALC, ETHER, MINERAL OILS
     * SLIGHTLY SOL IN FATS
     * 1 G SOL IN 10 ML ACETONE & 10 ML 0.5 N NAOH
     * PRACTICALLY INSOL IN SOLVENT HEXANE
     * SPARINGLY SOL IN DILUTE ALKALI

   from [4]HSDB

   Spectral Properties

     * MAX ABSORPTION (1.0 N NAOH): 255 NM
     * Intense mass spectral peaks: 77 m/z, 105 m/z, 278 m/z

   from [5]HSDB

   Other Chemical/Physical Properties

     * CRYSTALS FROM CHLOROFORM & HEPTANE; CRYSTALS FROM ETHANOL /D-FORM/;
       CRYSTALS /L-FORM/
     * SPECIFIC OPTICAL ROTATION: +67.1 DEG @ 22 DEG C/D (C= 2.04 IN
       ETHANOL); +109.3 DEG @ 25 DEG C/D (C= 0.5 IN CHLOROFORM) /D-/
     * SPECIFIC OPTICAL ROTATION: -64.2 DEG @ 23 DEG C/D (C= 2.14 IN
       ETHANOL); -104.5 DEG @ 26 DEG C/D (C= 0.5 IN CHLOROFORM) /L-/
     * MELTING POINT: 130-133 DEG C /D-FORM, L-FORM/

   from [6]HSDB

   Computed Properties
   Molecular Weight                  404.4815 [g/mol]
   Molecular Formula                 C[23]H[20]N[2]O[3]S
   XLogP3                            2.3
   H-Bond Donor                      0
   H-Bond Acceptor                   4
   Rotatable Bond Count              6
   Tautomer Count                    2
   Exact Mass                        404.119464
   MonoIsotopic Mass                 404.119464
   Topological Polar Surface Area    76.9
   Heavy Atom Count                  29
   Formal Charge                     0
   Complexity                        571
   Isotope Atom Count                0
   Defined Atom Stereocenter Count   0
   Undefined Atom Stereocenter Count 1
   Defined Bond Stereocenter Count   0
   Undefined Bond Stereocenter Count 0
   Covalently-Bonded Unit Count      1
   Feature 3D Acceptor Count         3
   Feature 3D Anion Count            1
   Feature 3D Ring Count             4
   Effective Rotor Count             6.6
   Conformer Sampling RMSD           0.8
   CID Conformer Count               [7]42

References

   1. http://toxnet.nlm.nih.gov/cgi-bin/sis/search/r?dbs+hsdb:@term+@rn+@rel+57-96-5
   2. http://toxnet.nlm.nih.gov/cgi-bin/sis/search/r?dbs+hsdb:@term+@rn+@rel+57-96-5
   3. http://toxnet.nlm.nih.gov/cgi-bin/sis/search/r?dbs+hsdb:@term+@rn+@rel+57-96-5
   4. http://toxnet.nlm.nih.gov/cgi-bin/sis/search/r?dbs+hsdb:@term+@rn+@rel+57-96-5
   5. http://toxnet.nlm.nih.gov/cgi-bin/sis/search/r?dbs+hsdb:@term+@rn+@rel+57-96-5
   6. http://toxnet.nlm.nih.gov/cgi-bin/sis/search/r?dbs+hsdb:@term+@rn+@rel+57-96-5
   7. http://pubchem.ncbi.nlm.nih.gov/vw3d/vw3d.cgi?cid=5342
