6650
  -OEChem-06261201262D

 34 34  0     0  0  0  0  0  0999 V2000
    3.5000    2.3195    0.0000 N   0  0  0  0  0  0  0  0  0  0  0  0
    3.0000   -2.5465    0.0000 N   0  0  0  0  0  0  0  0  0  0  0  0
    3.0000   -0.5465    0.0000 C   0  0  0  0  0  0  0  0  0  0  0  0
    3.0000    1.4535    0.0000 C   0  0  0  0  0  0  0  0  0  0  0  0
    3.8660   -0.0465    0.0000 C   0  0  0  0  0  0  0  0  0  0  0  0
    2.1340   -0.0465    0.0000 C   0  0  0  0  0  0  0  0  0  0  0  0
    3.8660    0.9535    0.0000 C   0  0  0  0  0  0  0  0  0  0  0  0
    2.1340    0.9535    0.0000 C   0  0  0  0  0  0  0  0  0  0  0  0
    3.0000   -1.5465    0.0000 C   0  0  0  0  0  0  0  0  0  0  0  0
    2.5000    2.3195    0.0000 C   0  0  0  0  0  0  0  0  0  0  0  0
    2.0000   -1.5465    0.0000 C   0  0  0  0  0  0  0  0  0  0  0  0
    4.0000   -1.5465    0.0000 C   0  0  0  0  0  0  0  0  0  0  0  0
    3.5369   -0.8565    0.0000 H   0  0  0  0  0  0  0  0  0  0  0  0
    1.5234    0.0612    0.0000 H   0  0  0  0  0  0  0  0  0  0  0  0
    1.9219   -0.6291    0.0000 H   0  0  0  0  0  0  0  0  0  0  0  0
    4.0781   -0.6291    0.0000 H   0  0  0  0  0  0  0  0  0  0  0  0
    4.4766    0.0612    0.0000 H   0  0  0  0  0  0  0  0  0  0  0  0
    4.4766    0.8459    0.0000 H   0  0  0  0  0  0  0  0  0  0  0  0
    1.9219    1.5361    0.0000 H   0  0  0  0  0  0  0  0  0  0  0  0
    1.5234    0.8459    0.0000 H   0  0  0  0  0  0  0  0  0  0  0  0
    4.0781    1.5361    0.0000 H   0  0  0  0  0  0  0  0  0  0  0  0
    3.0369    2.6295    0.0000 H   0  0  0  0  0  0  0  0  0  0  0  0
    2.1900    2.8565    0.0000 H   0  0  0  0  0  0  0  0  0  0  0  0
    1.9631    2.0095    0.0000 H   0  0  0  0  0  0  0  0  0  0  0  0
    2.0000   -0.9265    0.0000 H   0  0  0  0  0  0  0  0  0  0  0  0
    1.3800   -1.5465    0.0000 H   0  0  0  0  0  0  0  0  0  0  0  0
    2.0000   -2.1665    0.0000 H   0  0  0  0  0  0  0  0  0  0  0  0
    4.0000   -2.1665    0.0000 H   0  0  0  0  0  0  0  0  0  0  0  0
    4.6200   -1.5465    0.0000 H   0  0  0  0  0  0  0  0  0  0  0  0
    4.0000   -0.9265    0.0000 H   0  0  0  0  0  0  0  0  0  0  0  0
    4.1200    2.3195    0.0000 H   0  0  0  0  0  0  0  0  0  0  0  0
    3.1900    2.8565    0.0000 H   0  0  0  0  0  0  0  0  0  0  0  0
    2.4631   -2.8565    0.0000 H   0  0  0  0  0  0  0  0  0  0  0  0
    3.5369   -2.8565    0.0000 H   0  0  0  0  0  0  0  0  0  0  0  0
  1  4  1  0  0  0  0
  1 31  1  0  0  0  0
  1 32  1  0  0  0  0
  2  9  1  0  0  0  0
  2 33  1  0  0  0  0
  2 34  1  0  0  0  0
  3  5  1  0  0  0  0
  3  6  1  0  0  0  0
  3  9  1  0  0  0  0
  3 13  1  0  0  0  0
  4  7  1  0  0  0  0
  4  8  1  0  0  0  0
  4 10  1  0  0  0  0
  5  7  1  0  0  0  0
  5 16  1  0  0  0  0
  5 17  1  0  0  0  0
  6  8  1  0  0  0  0
  6 14  1  0  0  0  0
  6 15  1  0  0  0  0
  7 18  1  0  0  0  0
  7 21  1  0  0  0  0
  8 19  1  0  0  0  0
  8 20  1  0  0  0  0
  9 11  1  0  0  0  0
  9 12  1  0  0  0  0
 10 22  1  0  0  0  0
 10 23  1  0  0  0  0
 10 24  1  0  0  0  0
 11 25  1  0  0  0  0
 11 26  1  0  0  0  0
 11 27  1  0  0  0  0
 12 28  1  0  0  0  0
 12 29  1  0  0  0  0
 12 30  1  0  0  0  0
M  END
> <PUBCHEM_COMPOUND_CID>
6650

> <PUBCHEM_COMPOUND_CANONICALIZED>
1

> <PUBCHEM_CACTVS_COMPLEXITY>
155

> <PUBCHEM_CACTVS_HBOND_ACCEPTOR>
2

> <PUBCHEM_CACTVS_HBOND_DONOR>
2

> <PUBCHEM_CACTVS_ROTATABLE_BOND>
1

> <PUBCHEM_CACTVS_SUBSKEYS>
AAADceBzAAAAAAAAAAAAAAAAAAAAAAAAAAAwAAAAAAAAAAAAAAAAHAAQAAAADYiBAAACAABAAAAAAAAAAAAAAAAAAAAAAAAAAAAAAAIAgAAAAAAAEAAAAAEQgMAOgAAAAAAAAACQAAAAAAAAAAAAAAAAAA==

> <PUBCHEM_IUPAC_OPENEYE_NAME>
4-(1-amino-1-methyl-ethyl)-1-methyl-cyclohexanamine

> <PUBCHEM_IUPAC_CAS_NAME>
4-(2-aminopropan-2-yl)-1-methyl-1-cyclohexanamine

> <PUBCHEM_IUPAC_NAME>
4-(2-aminopropan-2-yl)-1-methylcyclohexan-1-amine

> <PUBCHEM_IUPAC_SYSTEMATIC_NAME>
4-(2-azanylpropan-2-yl)-1-methyl-cyclohexan-1-amine

> <PUBCHEM_IUPAC_TRADITIONAL_NAME>
[1-(4-amino-4-methyl-cyclohexyl)-1-methyl-ethyl]amine

> <PUBCHEM_IUPAC_INCHI>
InChI=1S/C10H22N2/c1-9(2,11)8-4-6-10(3,12)7-5-8/h8H,4-7,11-12H2,1-3H3

> <PUBCHEM_IUPAC_INCHIKEY>
KOGSPLLRMRSADR-UHFFFAOYSA-N

> <PUBCHEM_XLOGP3_AA>
0.7

> <PUBCHEM_EXACT_MASS>
170.178299

> <PUBCHEM_MOLECULAR_FORMULA>
C10H22N2

> <PUBCHEM_MOLECULAR_WEIGHT>
170.29508

> <PUBCHEM_OPENEYE_CAN_SMILES>
CC1(CCC(CC1)C(C)(C)N)N

> <PUBCHEM_OPENEYE_ISO_SMILES>
CC1(CCC(CC1)C(C)(C)N)N

> <PUBCHEM_CACTVS_TPSA>
52

> <PUBCHEM_MONOISOTOPIC_WEIGHT>
170.178299

> <PUBCHEM_TOTAL_CHARGE>
0

> <PUBCHEM_HEAVY_ATOM_COUNT>
12

> <PUBCHEM_ATOM_DEF_STEREO_COUNT>
0

> <PUBCHEM_ATOM_UDEF_STEREO_COUNT>
0

> <PUBCHEM_BOND_DEF_STEREO_COUNT>
0

> <PUBCHEM_BOND_UDEF_STEREO_COUNT>
0

> <PUBCHEM_ISOTOPIC_ATOM_COUNT>
0

> <PUBCHEM_COMPONENT_COUNT>
1

> <PUBCHEM_CACTVS_TAUTO_COUNT>
1

> <PUBCHEM_COORDINATE_TYPE>
1
5
255

$$$$

