10430488
  -OEChem-07051213102D

 61 62  0     1  0  0  0  0  0999 V2000
    5.3100    0.1830    0.0000 O   0  0  0  0  0  0  0  0  0  0  0  0
    6.6760    1.5490    0.0000 O   0  0  0  0  0  0  0  0  0  0  0  0
    5.3100   -1.5490    0.0000 O   0  0  0  0  0  0  0  0  0  0  0  0
    3.3100    0.1830    0.0000 O   0  0  0  0  0  0  0  0  0  0  0  0
    2.3100   -1.5490    0.0000 O   0  0  0  0  0  0  0  0  0  0  0  0
    3.3100   -3.2811    0.0000 O   0  0  0  0  0  0  0  0  0  0  0  0
    7.1760    4.1471    0.0000 O   0  0  0  0  0  0  0  0  0  0  0  0
    4.8100   -4.1471    0.0000 O   0  0  0  0  0  0  0  0  0  0  0  0
    8.0420    0.1830    0.0000 C   0  0  0  0  0  0  0  0  0  0  0  0
    7.1760    0.6830    0.0000 C   0  0  2  0  0  0  0  0  0  0  0  0
    6.3100    0.1830    0.0000 C   0  0  1  0  0  0  0  0  0  0  0  0
    8.0420   -0.8170    0.0000 C   0  0  0  0  0  0  0  0  0  0  0  0
    6.3100   -0.8170    0.0000 C   0  0  0  0  0  0  0  0  0  0  0  0
    7.1760   -1.3170    0.0000 C   0  0  0  0  0  0  0  0  0  0  0  0
    9.0420    0.1830    0.0000 C   0  0  0  0  0  0  0  0  0  0  0  0
    8.8081    0.8258    0.0000 C   0  0  0  0  0  0  0  0  0  0  0  0
    5.6672    0.9491    0.0000 C   0  0  0  0  0  0  0  0  0  0  0  0
    7.6760    1.5490    0.0000 C   0  0  0  0  0  0  0  0  0  0  0  0
    4.8100   -0.6830    0.0000 C   0  0  2  0  0  0  0  0  0  0  0  0
    3.8100   -0.6830    0.0000 C   0  0  1  0  0  0  0  0  0  0  0  0
    3.3100   -1.5490    0.0000 C   0  0  2  0  0  0  0  0  0  0  0  0
    3.8100   -2.4151    0.0000 C   0  0  1  0  0  0  0  0  0  0  0  0
    4.8100   -2.4151    0.0000 C   0  0  1  0  0  0  0  0  0  0  0  0
    7.1760    2.4151    0.0000 C   0  0  0  0  0  0  0  0  0  0  0  0
    7.6760    3.2811    0.0000 C   0  0  1  0  0  0  0  0  0  0  0  0
    5.3100   -3.2811    0.0000 C   0  0  0  0  0  0  0  0  0  0  0  0
    8.6760    3.2811    0.0000 C   0  0  0  0  0  0  0  0  0  0  0  0
    8.2541   -1.3996    0.0000 H   0  0  0  0  0  0  0  0  0  0  0  0
    8.6526   -0.7093    0.0000 H   0  0  0  0  0  0  0  0  0  0  0  0
    5.6994   -0.7093    0.0000 H   0  0  0  0  0  0  0  0  0  0  0  0
    6.0980   -1.3996    0.0000 H   0  0  0  0  0  0  0  0  0  0  0  0
    6.7775   -1.7919    0.0000 H   0  0  0  0  0  0  0  0  0  0  0  0
    7.5746   -1.7919    0.0000 H   0  0  0  0  0  0  0  0  0  0  0  0
    9.0420   -0.4370    0.0000 H   0  0  0  0  0  0  0  0  0  0  0  0
    9.6620    0.1830    0.0000 H   0  0  0  0  0  0  0  0  0  0  0  0
    9.0420    0.8030    0.0000 H   0  0  0  0  0  0  0  0  0  0  0  0
    9.2066    0.3509    0.0000 H   0  0  0  0  0  0  0  0  0  0  0  0
    9.2830    1.2243    0.0000 H   0  0  0  0  0  0  0  0  0  0  0  0
    8.4096    1.3008    0.0000 H   0  0  0  0  0  0  0  0  0  0  0  0
    6.1422    1.3476    0.0000 H   0  0  0  0  0  0  0  0  0  0  0  0
    5.2687    1.4240    0.0000 H   0  0  0  0  0  0  0  0  0  0  0  0
    5.1923    0.5505    0.0000 H   0  0  0  0  0  0  0  0  0  0  0  0
    8.2586    1.7611    0.0000 H   0  0  0  0  0  0  0  0  0  0  0  0
    4.5000   -0.1461    0.0000 H   0  0  0  0  0  0  0  0  0  0  0  0
    6.0655    1.6568    0.0000 H   0  0  0  0  0  0  0  0  0  0  0  0
    3.1900   -0.6830    0.0000 H   0  0  0  0  0  0  0  0  0  0  0  0
    3.0000   -1.0121    0.0000 H   0  0  0  0  0  0  0  0  0  0  0  0
    4.1200   -2.9520    0.0000 H   0  0  0  0  0  0  0  0  0  0  0  0
    5.4300   -2.4151    0.0000 H   0  0  0  0  0  0  0  0  0  0  0  0
    6.5560    2.4151    0.0000 H   0  0  0  0  0  0  0  0  0  0  0  0
    7.9860    3.8180    0.0000 H   0  0  0  0  0  0  0  0  0  0  0  0
    5.7850   -3.6796    0.0000 H   0  0  0  0  0  0  0  0  0  0  0  0
    5.7850   -2.8826    0.0000 H   0  0  0  0  0  0  0  0  0  0  0  0
    2.6900    0.1830    0.0000 H   0  0  0  0  0  0  0  0  0  0  0  0
    2.0000   -2.0860    0.0000 H   0  0  0  0  0  0  0  0  0  0  0  0
    2.6900   -3.2811    0.0000 H   0  0  0  0  0  0  0  0  0  0  0  0
    8.6760    2.6611    0.0000 H   0  0  0  0  0  0  0  0  0  0  0  0
    9.2960    3.2811    0.0000 H   0  0  0  0  0  0  0  0  0  0  0  0
    8.6760    3.9011    0.0000 H   0  0  0  0  0  0  0  0  0  0  0  0
    7.4860    4.6840    0.0000 H   0  0  0  0  0  0  0  0  0  0  0  0
    5.1200   -4.6840    0.0000 H   0  0  0  0  0  0  0  0  0  0  0  0
 11  1  1  1  0  0  0
 19  1  1  6  0  0  0
 10  2  1  6  0  0  0
  2 45  1  0  0  0  0
  3 19  1  0  0  0  0
  3 23  1  0  0  0  0
 20  4  1  1  0  0  0
  4 54  1  0  0  0  0
 21  5  1  6  0  0  0
  5 55  1  0  0  0  0
 22  6  1  1  0  0  0
  6 56  1  0  0  0  0
 25  7  1  6  0  0  0
  7 60  1  0  0  0  0
  8 26  1  0  0  0  0
  8 61  1  0  0  0  0
  9 10  1  0  0  0  0
  9 12  1  0  0  0  0
  9 15  1  0  0  0  0
  9 16  1  0  0  0  0
 10 11  1  0  0  0  0
 10 18  1  0  0  0  0
 11 13  1  0  0  0  0
 11 17  1  0  0  0  0
 12 14  1  0  0  0  0
 12 28  1  0  0  0  0
 12 29  1  0  0  0  0
 13 14  1  0  0  0  0
 13 30  1  0  0  0  0
 13 31  1  0  0  0  0
 14 32  1  0  0  0  0
 14 33  1  0  0  0  0
 15 34  1  0  0  0  0
 15 35  1  0  0  0  0
 15 36  1  0  0  0  0
 16 37  1  0  0  0  0
 16 38  1  0  0  0  0
 16 39  1  0  0  0  0
 17 40  1  0  0  0  0
 17 41  1  0  0  0  0
 17 42  1  0  0  0  0
 18 24  2  0  0  0  0
 18 43  1  0  0  0  0
 19 20  1  0  0  0  0
 19 44  1  0  0  0  0
 20 21  1  0  0  0  0
 20 46  1  0  0  0  0
 21 22  1  0  0  0  0
 21 47  1  0  0  0  0
 22 23  1  0  0  0  0
 22 48  1  0  0  0  0
 23 26  1  6  0  0  0
 23 49  1  0  0  0  0
 24 25  1  0  0  0  0
 24 50  1  0  0  0  0
 25 27  1  0  0  0  0
 25 51  1  0  0  0  0
 26 52  1  0  0  0  0
 26 53  1  0  0  0  0
 27 57  1  0  0  0  0
 27 58  1  0  0  0  0
 27 59  1  0  0  0  0
M  END
> <PUBCHEM_COMPOUND_CID>
10430488

> <PUBCHEM_COMPOUND_CANONICALIZED>
1

> <PUBCHEM_CACTVS_COMPLEXITY>
538

> <PUBCHEM_CACTVS_HBOND_ACCEPTOR>
8

> <PUBCHEM_CACTVS_HBOND_DONOR>
6

> <PUBCHEM_CACTVS_ROTATABLE_BOND>
5

> <PUBCHEM_CACTVS_SUBSKEYS>
AAADcfB4PAAAAAAAAAAAAAAAAAAAAAAAAAA0QAAAAAAAAAAAAAAAGgAACAAADlSwgAMCCAAABgCAACBCAAAAAAAgAAAICAAAAAgRFAIAAQAiUAAFwAAPEAPA4PwPgAAAAAAAAAAAAAYAADCAAAAAAAAAAA==

> <PUBCHEM_IUPAC_OPENEYE_NAME>
(2S,3R,4S,5S,6R)-2-[(1R,2R)-2-hydroxy-2-[(E,3R)-3-hydroxybut-1-enyl]-1,3,3-trimethyl-cyclohexoxy]-6-(hydroxymethyl)tetrahydropyran-3,4,5-triol

> <PUBCHEM_IUPAC_CAS_NAME>
(2S,3R,4S,5S,6R)-2-[(1R,2R)-2-hydroxy-2-[(E,3R)-3-hydroxybut-1-enyl]-1,3,3-trimethylcyclohexyl]oxy-6-(hydroxymethyl)oxane-3,4,5-triol

> <PUBCHEM_IUPAC_NAME>
(2S,3R,4S,5S,6R)-2-[(1R,2R)-2-hydroxy-2-[(E,3R)-3-hydroxybut-1-enyl]-1,3,3-trimethylcyclohexyl]oxy-6-(hydroxymethyl)oxane-3,4,5-triol

> <PUBCHEM_IUPAC_SYSTEMATIC_NAME>
(2R,3S,4S,5R,6S)-2-(hydroxymethyl)-6-[(1R,2R)-1,3,3-trimethyl-2-oxidanyl-2-[(E,3R)-3-oxidanylbut-1-enyl]cyclohexyl]oxy-oxane-3,4,5-triol

> <PUBCHEM_IUPAC_TRADITIONAL_NAME>
(2S,3R,4S,5S,6R)-2-[(1R,2R)-2-hydroxy-2-[(E,3R)-3-hydroxybut-1-enyl]-1,3,3-trimethyl-cyclohexoxy]-6-methylol-tetrahydropyran-3,4,5-triol

> <PUBCHEM_IUPAC_INCHI>
InChI=1S/C19H34O8/c1-11(21)6-9-19(25)17(2,3)7-5-8-18(19,4)27-16-15(24)14(23)13(22)12(10-20)26-16/h6,9,11-16,20-25H,5,7-8,10H2,1-4H3/b9-6+/t11-,12-,13-,14+,15-,16+,18-,19-/m1/s1

> <PUBCHEM_IUPAC_INCHIKEY>
ICINSKFENWFTQI-BHYGOWNVSA-N

> <PUBCHEM_XLOGP3_AA>
-0.6

> <PUBCHEM_EXACT_MASS>
390.225368

> <PUBCHEM_MOLECULAR_FORMULA>
C19H34O8

> <PUBCHEM_MOLECULAR_WEIGHT>
390.46846

> <PUBCHEM_OPENEYE_CAN_SMILES>
CC(C=CC1(C(CCCC1(C)OC2C(C(C(C(O2)CO)O)O)O)(C)C)O)O

> <PUBCHEM_OPENEYE_ISO_SMILES>
C[C@H](/C=C/[C@@]1([C@](CCCC1(C)C)(C)O[C@H]2[C@@H]([C@H]([C@@H]([C@H](O2)CO)O)O)O)O)O

> <PUBCHEM_CACTVS_TPSA>
140

> <PUBCHEM_MONOISOTOPIC_WEIGHT>
390.225368

> <PUBCHEM_TOTAL_CHARGE>
0

> <PUBCHEM_HEAVY_ATOM_COUNT>
27

> <PUBCHEM_ATOM_DEF_STEREO_COUNT>
8

> <PUBCHEM_ATOM_UDEF_STEREO_COUNT>
0

> <PUBCHEM_BOND_DEF_STEREO_COUNT>
1

> <PUBCHEM_BOND_UDEF_STEREO_COUNT>
0

> <PUBCHEM_ISOTOPIC_ATOM_COUNT>
0

> <PUBCHEM_COMPONENT_COUNT>
1

> <PUBCHEM_CACTVS_TAUTO_COUNT>
1

> <PUBCHEM_COORDINATE_TYPE>
1
5
255

> <PUBCHEM_BONDANNOTATIONS>
11  1  5
19  1  6
10  2  6
23  26  6
20  4  5
21  5  6
22  6  5
25  7  6

$$$$

