   Color/Form

     * DAZZLING WHITE LEAFLETS OR FLAKES FROM ALCOHOL
     * SMALL, WHITE, CRYSTALLINE PLATES; FLUORESCENT WHEN IMPURE

   from [1]HSDB

   Boiling Point
        295 DEG C
   from [2]HSDB

   Melting Point
        116-117 DEG C
   from [3]HSDB

   Density/Specific Gravity
        1.203 @ 0 DEG C/4 DEG C
   from [4]HSDB

   Heat of Vaporization
        13,682.8 g cal/g mol
   from [5]HSDB

   Solubilities

     * FREELY SOL IN GLACIAL ACETIC ACID; SOL IN CARBON DISULFIDE, ETHER,
       BENZENE, HOT ALCOHOL
     * INSOL IN WATER; SOL IN PYRIMIDINE, CARBON TETRACHLORIDE, TOLUENE
     * Soluble in acetone

   from [6]HSDB

   Spectral Properties

     * MAX ABSORPTION (CHLOROFORM): 266 NM (LOG E= 4.3); 290 NM (LOG E=
       3.8); 301 NM (LOG E= 4.0)
     * SADTLER REF NUMBER: 7540 (IR, PRISM); 240 (IR, GRATING); 2114 (UV);
       288 (NMR)
     * Intense mass spectral peaks: 166 m/z (100%), 165 m/z (80%), 167 m/z
       (15%), 163 m/z (12%)
     * IR: 6251 (Coblentz Society Spectral Collection)
     * UV: 5-350 (Organic Electronic Spectral Data, Phillips et al, John
       Wiley & Sons, New York)
     * MASS: 127 (Aldermaston, Eight Peak Index of Mass Spectra, UK)

   from [7]HSDB

   Vapor Pressure
        Vapor pressure = 3.2X10-4 mm Hg at 20 deg C
   from [8]HSDB

   Other Chemical/Physical Properties

     * SUBLIMES EASILY IN HIGH VACUUM
     * Photo oxidation by uv in aqueous medium at 90-95 deg C: time for
       the formation of CO2 (% of theoretical): 25%: 75.3 hr; 50%: 160.6
       hr; 75%: 297.4 hr.
     * Henry's Law constant= 0.0001 atm-cu m/mole at 25 deg C
     * 10 MM HG @ 146.0 DEG C

   from [9]HSDB

   Computed Properties
   Molecular Weight                  166.2185 [g/mol]
   Molecular Formula                 C[13]H[10]
   XLogP3                            4.2
   H-Bond Donor                      0
   H-Bond Acceptor                   0
   Rotatable Bond Count              0
   Exact Mass                        166.07825
   MonoIsotopic Mass                 166.07825
   Topological Polar Surface Area    0
   Heavy Atom Count                  13
   Formal Charge                     0
   Complexity                        165
   Isotope Atom Count                0
   Defined Atom Stereocenter Count   0
   Undefined Atom Stereocenter Count 0
   Defined Bond Stereocenter Count   0
   Undefined Bond Stereocenter Count 0
   Covalently-Bonded Unit Count      1
   Feature 3D Ring Count             3
   Effective Rotor Count             0.2
   Conformer Sampling RMSD           0.4
   CID Conformer Count               [10]1

References

   1. http://toxnet.nlm.nih.gov/cgi-bin/sis/search/r?dbs+hsdb:@term+@rn+@rel+86-73-7
   2. http://toxnet.nlm.nih.gov/cgi-bin/sis/search/r?dbs+hsdb:@term+@rn+@rel+86-73-7
   3. http://toxnet.nlm.nih.gov/cgi-bin/sis/search/r?dbs+hsdb:@term+@rn+@rel+86-73-7
   4. http://toxnet.nlm.nih.gov/cgi-bin/sis/search/r?dbs+hsdb:@term+@rn+@rel+86-73-7
   5. http://toxnet.nlm.nih.gov/cgi-bin/sis/search/r?dbs+hsdb:@term+@rn+@rel+86-73-7
   6. http://toxnet.nlm.nih.gov/cgi-bin/sis/search/r?dbs+hsdb:@term+@rn+@rel+86-73-7
   7. http://toxnet.nlm.nih.gov/cgi-bin/sis/search/r?dbs+hsdb:@term+@rn+@rel+86-73-7
   8. http://toxnet.nlm.nih.gov/cgi-bin/sis/search/r?dbs+hsdb:@term+@rn+@rel+86-73-7
   9. http://toxnet.nlm.nih.gov/cgi-bin/sis/search/r?dbs+hsdb:@term+@rn+@rel+86-73-7
  10. http://pubchem.ncbi.nlm.nih.gov/vw3d/vw3d.cgi?cid=6853
