23724601
  -OEChem-07051213082D

 75 75  0     1  0  0  0  0  0999 V2000
    2.5369   -4.6900    0.0000 O   0  0  0  0  0  0  0  0  0  0  0  0
    6.0010   -6.6900    0.0000 O   0  0  0  0  0  0  0  0  0  0  0  0
    8.5991    3.8100    0.0000 C   0  0  3  0  0  0  0  0  0  0  0  0
    8.5991    2.8100    0.0000 C   0  0  0  0  0  0  0  0  0  0  0  0
    6.8671    0.8100    0.0000 C   0  0  3  0  0  0  0  0  0  0  0  0
    7.7331    2.3100    0.0000 C   0  0  0  0  0  0  0  0  0  0  0  0
    7.7331    1.3100    0.0000 C   0  0  0  0  0  0  0  0  0  0  0  0
    9.4651    4.3100    0.0000 C   0  0  0  0  0  0  0  0  0  0  0  0
    6.8671   -0.1900    0.0000 C   0  0  0  0  0  0  0  0  0  0  0  0
    9.4651    5.3100    0.0000 C   0  0  0  0  0  0  0  0  0  0  0  0
   10.3312    5.8100    0.0000 C   0  0  0  0  0  0  0  0  0  0  0  0
    7.7331    4.3100    0.0000 C   0  0  0  0  0  0  0  0  0  0  0  0
    6.0010   -0.6900    0.0000 C   0  0  0  0  0  0  0  0  0  0  0  0
    6.0010    1.3100    0.0000 C   0  0  0  0  0  0  0  0  0  0  0  0
   10.3312    6.8100    0.0000 C   0  0  0  0  0  0  0  0  0  0  0  0
    6.0010   -1.6900    0.0000 C   0  0  0  0  0  0  0  0  0  0  0  0
   11.1972    7.3100    0.0000 C   0  0  0  0  0  0  0  0  0  0  0  0
    9.4651    7.3100    0.0000 C   0  0  0  0  0  0  0  0  0  0  0  0
    5.1350   -2.1900    0.0000 C   0  0  0  0  0  0  0  0  0  0  0  0
    5.1350   -3.1900    0.0000 C   0  0  0  0  0  0  0  0  0  0  0  0
    4.2690   -1.6900    0.0000 C   0  0  0  0  0  0  0  0  0  0  0  0
    4.2690   -3.6900    0.0000 C   0  0  0  0  0  0  0  0  0  0  0  0
    4.2690   -4.6900    0.0000 C   0  0  0  0  0  0  0  0  0  0  0  0
    3.4030   -5.1900    0.0000 C   0  0  0  0  0  0  0  0  0  0  0  0
    5.1350   -5.1900    0.0000 C   0  0  0  0  0  0  0  0  0  0  0  0
    3.4030   -6.1900    0.0000 C   0  0  0  0  0  0  0  0  0  0  0  0
    5.1350   -6.1900    0.0000 C   0  0  0  0  0  0  0  0  0  0  0  0
    4.2690   -6.6900    0.0000 C   0  0  0  0  0  0  0  0  0  0  0  0
    2.5369   -6.6900    0.0000 C   0  0  0  0  0  0  0  0  0  0  0  0
    8.5991    4.4300    0.0000 H   0  0  0  0  0  0  0  0  0  0  0  0
    8.8112    2.2274    0.0000 H   0  0  0  0  0  0  0  0  0  0  0  0
    9.2097    2.9177    0.0000 H   0  0  0  0  0  0  0  0  0  0  0  0
    6.3301    0.5000    0.0000 H   0  0  0  0  0  0  0  0  0  0  0  0
    7.5210    2.8926    0.0000 H   0  0  0  0  0  0  0  0  0  0  0  0
    7.1225    2.2023    0.0000 H   0  0  0  0  0  0  0  0  0  0  0  0
    7.9451    0.7274    0.0000 H   0  0  0  0  0  0  0  0  0  0  0  0
    8.3437    1.4177    0.0000 H   0  0  0  0  0  0  0  0  0  0  0  0
    9.6772    3.7274    0.0000 H   0  0  0  0  0  0  0  0  0  0  0  0
   10.0757    4.4177    0.0000 H   0  0  0  0  0  0  0  0  0  0  0  0
    7.0791   -0.7726    0.0000 H   0  0  0  0  0  0  0  0  0  0  0  0
    7.4776   -0.0823    0.0000 H   0  0  0  0  0  0  0  0  0  0  0  0
    9.2531    5.8926    0.0000 H   0  0  0  0  0  0  0  0  0  0  0  0
    8.8546    5.2023    0.0000 H   0  0  0  0  0  0  0  0  0  0  0  0
   10.5432    5.2274    0.0000 H   0  0  0  0  0  0  0  0  0  0  0  0
   10.9417    5.9177    0.0000 H   0  0  0  0  0  0  0  0  0  0  0  0
    8.0431    4.8469    0.0000 H   0  0  0  0  0  0  0  0  0  0  0  0
    7.1962    4.6200    0.0000 H   0  0  0  0  0  0  0  0  0  0  0  0
    7.4231    3.7731    0.0000 H   0  0  0  0  0  0  0  0  0  0  0  0
    5.7890   -0.1074    0.0000 H   0  0  0  0  0  0  0  0  0  0  0  0
    5.3905   -0.7977    0.0000 H   0  0  0  0  0  0  0  0  0  0  0  0
    6.3110    1.8469    0.0000 H   0  0  0  0  0  0  0  0  0  0  0  0
    5.4641    1.6200    0.0000 H   0  0  0  0  0  0  0  0  0  0  0  0
    5.6910    0.7731    0.0000 H   0  0  0  0  0  0  0  0  0  0  0  0
   10.8681    6.5000    0.0000 H   0  0  0  0  0  0  0  0  0  0  0  0
    6.2131   -2.2726    0.0000 H   0  0  0  0  0  0  0  0  0  0  0  0
    6.6116   -1.5823    0.0000 H   0  0  0  0  0  0  0  0  0  0  0  0
   11.5072    6.7731    0.0000 H   0  0  0  0  0  0  0  0  0  0  0  0
   11.7341    7.6200    0.0000 H   0  0  0  0  0  0  0  0  0  0  0  0
   10.8872    7.8469    0.0000 H   0  0  0  0  0  0  0  0  0  0  0  0
    9.7751    7.8469    0.0000 H   0  0  0  0  0  0  0  0  0  0  0  0
    8.9282    7.6200    0.0000 H   0  0  0  0  0  0  0  0  0  0  0  0
    9.1551    6.7731    0.0000 H   0  0  0  0  0  0  0  0  0  0  0  0
    5.6720   -3.5000    0.0000 H   0  0  0  0  0  0  0  0  0  0  0  0
    4.5790   -1.1531    0.0000 H   0  0  0  0  0  0  0  0  0  0  0  0
    3.7320   -1.3800    0.0000 H   0  0  0  0  0  0  0  0  0  0  0  0
    3.9590   -2.2269    0.0000 H   0  0  0  0  0  0  0  0  0  0  0  0
    4.0569   -3.1074    0.0000 H   0  0  0  0  0  0  0  0  0  0  0  0
    3.6584   -3.7977    0.0000 H   0  0  0  0  0  0  0  0  0  0  0  0
    5.6720   -4.8800    0.0000 H   0  0  0  0  0  0  0  0  0  0  0  0
    4.2690   -7.3100    0.0000 H   0  0  0  0  0  0  0  0  0  0  0  0
    2.2269   -6.1531    0.0000 H   0  0  0  0  0  0  0  0  0  0  0  0
    2.0000   -7.0000    0.0000 H   0  0  0  0  0  0  0  0  0  0  0  0
    2.8469   -7.2269    0.0000 H   0  0  0  0  0  0  0  0  0  0  0  0
    2.0000   -5.0000    0.0000 H   0  0  0  0  0  0  0  0  0  0  0  0
    6.0010   -7.3100    0.0000 H   0  0  0  0  0  0  0  0  0  0  0  0
  1 24  1  0  0  0  0
  1 74  1  0  0  0  0
  2 27  1  0  0  0  0
  2 75  1  0  0  0  0
  3  4  1  0  0  0  0
  3  8  1  0  0  0  0
  3 12  1  0  0  0  0
  3 30  1  0  0  0  0
  4  6  1  0  0  0  0
  4 31  1  0  0  0  0
  4 32  1  0  0  0  0
  5  7  1  0  0  0  0
  5  9  1  0  0  0  0
  5 14  1  0  0  0  0
  5 33  1  0  0  0  0
  6  7  1  0  0  0  0
  6 34  1  0  0  0  0
  6 35  1  0  0  0  0
  7 36  1  0  0  0  0
  7 37  1  0  0  0  0
  8 10  1  0  0  0  0
  8 38  1  0  0  0  0
  8 39  1  0  0  0  0
  9 13  1  0  0  0  0
  9 40  1  0  0  0  0
  9 41  1  0  0  0  0
 10 11  1  0  0  0  0
 10 42  1  0  0  0  0
 10 43  1  0  0  0  0
 11 15  1  0  0  0  0
 11 44  1  0  0  0  0
 11 45  1  0  0  0  0
 12 46  1  0  0  0  0
 12 47  1  0  0  0  0
 12 48  1  0  0  0  0
 13 16  1  0  0  0  0
 13 49  1  0  0  0  0
 13 50  1  0  0  0  0
 14 51  1  0  0  0  0
 14 52  1  0  0  0  0
 14 53  1  0  0  0  0
 15 17  1  0  0  0  0
 15 18  1  0  0  0  0
 15 54  1  0  0  0  0
 16 19  1  0  0  0  0
 16 55  1  0  0  0  0
 16 56  1  0  0  0  0
 17 57  1  0  0  0  0
 17 58  1  0  0  0  0
 17 59  1  0  0  0  0
 18 60  1  0  0  0  0
 18 61  1  0  0  0  0
 18 62  1  0  0  0  0
 19 20  2  0  0  0  0
 19 21  1  0  0  0  0
 20 22  1  0  0  0  0
 20 63  1  0  0  0  0
 21 64  1  0  0  0  0
 21 65  1  0  0  0  0
 21 66  1  0  0  0  0
 22 23  1  0  0  0  0
 22 67  1  0  0  0  0
 22 68  1  0  0  0  0
 23 24  2  0  0  0  0
 23 25  1  0  0  0  0
 24 26  1  0  0  0  0
 25 27  2  0  0  0  0
 25 69  1  0  0  0  0
 26 28  2  0  0  0  0
 26 29  1  0  0  0  0
 27 28  1  0  0  0  0
 28 70  1  0  0  0  0
 29 71  1  0  0  0  0
 29 72  1  0  0  0  0
 29 73  1  0  0  0  0
M  END
> <PUBCHEM_COMPOUND_CID>
23724601

> <PUBCHEM_COMPOUND_CANONICALIZED>
1

> <PUBCHEM_CACTVS_COMPLEXITY>
442

> <PUBCHEM_CACTVS_HBOND_ACCEPTOR>
2

> <PUBCHEM_CACTVS_HBOND_DONOR>
2

> <PUBCHEM_CACTVS_ROTATABLE_BOND>
14

> <PUBCHEM_CACTVS_SUBSKEYS>
AAADcfB4MAAAAAAAAAAAAAAAAAAAAAAAAAAwAAAAAAAAAAABAAAAGgAACAAADQSAmAAyBoAAAgCAAiBCAAACAAAgIAAAiAAGCIgIJiKCERKAcAAkwBEImAfAwPAOAQADAAAIAAACAAYAABAAAAAAAAAAAA==

> <PUBCHEM_IUPAC_OPENEYE_NAME>
2-methyl-6-[(E)-3,7,11,15-tetramethylhexadec-2-enyl]benzene-1,4-diol

> <PUBCHEM_IUPAC_CAS_NAME>
2-methyl-6-[(E)-3,7,11,15-tetramethylhexadec-2-enyl]benzene-1,4-diol

> <PUBCHEM_IUPAC_NAME>
2-methyl-6-[(E)-3,7,11,15-tetramethylhexadec-2-enyl]benzene-1,4-diol

> <PUBCHEM_IUPAC_SYSTEMATIC_NAME>
2-methyl-6-[(E)-3,7,11,15-tetramethylhexadec-2-enyl]benzene-1,4-diol

> <PUBCHEM_IUPAC_TRADITIONAL_NAME>
2-methyl-6-[(E)-3,7,11,15-tetramethylhexadec-2-enyl]hydroquinone

> <PUBCHEM_IUPAC_INCHI>
InChI=1S/C27H46O2/c1-20(2)10-7-11-21(3)12-8-13-22(4)14-9-15-23(5)16-17-25-19-26(28)18-24(6)27(25)29/h16,18-22,28-29H,7-15,17H2,1-6H3/b23-16+

> <PUBCHEM_IUPAC_INCHIKEY>
GTWCNYRFOZKWTL-XQNSMLJCSA-N

> <PUBCHEM_XLOGP3_AA>
10.6

> <PUBCHEM_EXACT_MASS>
402.349781

> <PUBCHEM_MOLECULAR_FORMULA>
C27H46O2

> <PUBCHEM_MOLECULAR_WEIGHT>
402.65294

> <PUBCHEM_OPENEYE_CAN_SMILES>
CC1=CC(=CC(=C1O)CC=C(C)CCCC(C)CCCC(C)CCCC(C)C)O

> <PUBCHEM_OPENEYE_ISO_SMILES>
CC1=CC(=CC(=C1O)C/C=C(\C)/CCCC(C)CCCC(C)CCCC(C)C)O

> <PUBCHEM_CACTVS_TPSA>
40.5

> <PUBCHEM_MONOISOTOPIC_WEIGHT>
402.349781

> <PUBCHEM_TOTAL_CHARGE>
0

> <PUBCHEM_HEAVY_ATOM_COUNT>
29

> <PUBCHEM_ATOM_DEF_STEREO_COUNT>
0

> <PUBCHEM_ATOM_UDEF_STEREO_COUNT>
2

> <PUBCHEM_BOND_DEF_STEREO_COUNT>
1

> <PUBCHEM_BOND_UDEF_STEREO_COUNT>
0

> <PUBCHEM_ISOTOPIC_ATOM_COUNT>
0

> <PUBCHEM_COMPONENT_COUNT>
1

> <PUBCHEM_CACTVS_TAUTO_COUNT>
96

> <PUBCHEM_COORDINATE_TYPE>
1
5
255

> <PUBCHEM_BONDANNOTATIONS>
23  24  8
23  25  8
24  26  8
25  27  8
26  28  8
27  28  8
3  12  3
5  14  3

$$$$

