446313
  -OEChem-07051213072D

 75 75  0     0  0  0  0  0  0999 V2000
    7.1962   -1.4510    0.0000 P   0  0  0  0  0  0  0  0  0  0  0  0
    5.4641   -1.4510    0.0000 P   0  0  0  0  0  0  0  0  0  0  0  0
    2.8660    2.0490    0.0000 O   0  0  0  0  0  0  0  0  0  0  0  0
    8.0622   -1.9510    0.0000 O   0  0  0  0  0  0  0  0  0  0  0  0
    4.5981   -1.9510    0.0000 O   0  0  0  0  0  0  0  0  0  0  0  0
    5.9641   -2.3170    0.0000 O   0  0  0  0  0  0  0  0  0  0  0  0
    6.6962   -2.3170    0.0000 O   0  0  0  0  0  0  0  0  0  0  0  0
    7.6962   -0.5849    0.0000 O   0  0  0  0  0  0  0  0  0  0  0  0
    4.9641   -0.5849    0.0000 O   0  0  0  0  0  0  0  0  0  0  0  0
    4.5981    3.0490    0.0000 C   0  0  0  0  0  0  0  0  0  0  0  0
    2.8660    0.0490    0.0000 C   0  0  0  0  0  0  0  0  0  0  0  0
    4.5981    2.0490    0.0000 C   0  0  0  0  0  0  0  0  0  0  0  0
    3.7320    0.5490    0.0000 C   0  0  0  0  0  0  0  0  0  0  0  0
    3.7320    1.5490    0.0000 C   0  0  0  0  0  0  0  0  0  0  0  0
    5.4641    1.5490    0.0000 C   0  0  0  0  0  0  0  0  0  0  0  0
    4.5981    0.0490    0.0000 C   0  0  0  0  0  0  0  0  0  0  0  0
    5.4641    0.5490    0.0000 C   0  0  0  0  0  0  0  0  0  0  0  0
    4.5981    4.0490    0.0000 C   0  0  0  0  0  0  0  0  0  0  0  0
    5.5981    3.0490    0.0000 C   0  0  0  0  0  0  0  0  0  0  0  0
    3.5981    3.0490    0.0000 C   0  0  0  0  0  0  0  0  0  0  0  0
    2.0000   -0.4510    0.0000 C   0  0  0  0  0  0  0  0  0  0  0  0
    3.3660   -0.8170    0.0000 C   0  0  0  0  0  0  0  0  0  0  0  0
    2.3660    0.9151    0.0000 C   0  0  0  0  0  0  0  0  0  0  0  0
    6.3301    0.0490    0.0000 C   0  0  0  0  0  0  0  0  0  0  0  0
    6.3301   -0.9510    0.0000 C   0  0  0  0  0  0  0  0  0  0  0  0
    7.1962   -3.1830    0.0000 C   0  0  0  0  0  0  0  0  0  0  0  0
    8.9282   -1.4510    0.0000 C   0  0  0  0  0  0  0  0  0  0  0  0
    4.5981   -2.9510    0.0000 C   0  0  0  0  0  0  0  0  0  0  0  0
    5.4641   -3.1830    0.0000 C   0  0  0  0  0  0  0  0  0  0  0  0
    5.9641   -4.0490    0.0000 C   0  0  0  0  0  0  0  0  0  0  0  0
    3.7320   -3.4510    0.0000 C   0  0  0  0  0  0  0  0  0  0  0  0
    9.7942   -1.9510    0.0000 C   0  0  0  0  0  0  0  0  0  0  0  0
    6.6962   -4.0490    0.0000 C   0  0  0  0  0  0  0  0  0  0  0  0
    6.0010    1.8590    0.0000 H   0  0  0  0  0  0  0  0  0  0  0  0
    4.5981   -0.5710    0.0000 H   0  0  0  0  0  0  0  0  0  0  0  0
    5.5981    2.4290    0.0000 H   0  0  0  0  0  0  0  0  0  0  0  0
    6.2181    3.0490    0.0000 H   0  0  0  0  0  0  0  0  0  0  0  0
    5.5981    3.6690    0.0000 H   0  0  0  0  0  0  0  0  0  0  0  0
    3.5981    3.6690    0.0000 H   0  0  0  0  0  0  0  0  0  0  0  0
    2.9781    3.0490    0.0000 H   0  0  0  0  0  0  0  0  0  0  0  0
    3.5981    2.4290    0.0000 H   0  0  0  0  0  0  0  0  0  0  0  0
    5.2181    4.0490    0.0000 H   0  0  0  0  0  0  0  0  0  0  0  0
    4.5981    4.6690    0.0000 H   0  0  0  0  0  0  0  0  0  0  0  0
    3.9781    4.0490    0.0000 H   0  0  0  0  0  0  0  0  0  0  0  0
    2.9030    1.2251    0.0000 H   0  0  0  0  0  0  0  0  0  0  0  0
    2.0560    1.4520    0.0000 H   0  0  0  0  0  0  0  0  0  0  0  0
    1.8291    0.6051    0.0000 H   0  0  0  0  0  0  0  0  0  0  0  0
    2.8291   -1.1270    0.0000 H   0  0  0  0  0  0  0  0  0  0  0  0
    3.6760   -1.3539    0.0000 H   0  0  0  0  0  0  0  0  0  0  0  0
    3.9030   -0.5070    0.0000 H   0  0  0  0  0  0  0  0  0  0  0  0
    1.6900    0.0860    0.0000 H   0  0  0  0  0  0  0  0  0  0  0  0
    1.4631   -0.7610    0.0000 H   0  0  0  0  0  0  0  0  0  0  0  0
    2.3100   -0.9879    0.0000 H   0  0  0  0  0  0  0  0  0  0  0  0
    6.8671    0.3590    0.0000 H   0  0  0  0  0  0  0  0  0  0  0  0
    2.8660    2.6690    0.0000 H   0  0  0  0  0  0  0  0  0  0  0  0
    7.6711   -3.5815    0.0000 H   0  0  0  0  0  0  0  0  0  0  0  0
    7.6711   -2.7845    0.0000 H   0  0  0  0  0  0  0  0  0  0  0  0
    9.3267   -0.9760    0.0000 H   0  0  0  0  0  0  0  0  0  0  0  0
    8.5297   -0.9760    0.0000 H   0  0  0  0  0  0  0  0  0  0  0  0
    4.8101   -3.5336    0.0000 H   0  0  0  0  0  0  0  0  0  0  0  0
    5.2087   -2.8433    0.0000 H   0  0  0  0  0  0  0  0  0  0  0  0
    4.9892   -2.7845    0.0000 H   0  0  0  0  0  0  0  0  0  0  0  0
    4.9892   -3.5815    0.0000 H   0  0  0  0  0  0  0  0  0  0  0  0
    5.4272   -4.3590    0.0000 H   0  0  0  0  0  0  0  0  0  0  0  0
    6.1592   -3.7390    0.0000 H   0  0  0  0  0  0  0  0  0  0  0  0
    6.3862   -4.5860    0.0000 H   0  0  0  0  0  0  0  0  0  0  0  0
    7.2331   -4.3590    0.0000 H   0  0  0  0  0  0  0  0  0  0  0  0
    9.4842   -2.4879    0.0000 H   0  0  0  0  0  0  0  0  0  0  0  0
   10.3312   -2.2610    0.0000 H   0  0  0  0  0  0  0  0  0  0  0  0
   10.1042   -1.4140    0.0000 H   0  0  0  0  0  0  0  0  0  0  0  0
    3.4220   -2.9140    0.0000 H   0  0  0  0  0  0  0  0  0  0  0  0
    3.1951   -3.7610    0.0000 H   0  0  0  0  0  0  0  0  0  0  0  0
    4.0420   -3.9879    0.0000 H   0  0  0  0  0  0  0  0  0  0  0  0
    6.2741   -4.5860    0.0000 H   0  0  0  0  0  0  0  0  0  0  0  0
    6.5010   -3.7390    0.0000 H   0  0  0  0  0  0  0  0  0  0  0  0
  1  4  1  0  0  0  0
  1  7  1  0  0  0  0
  1  8  2  0  0  0  0
  1 25  1  0  0  0  0
  2  5  1  0  0  0  0
  2  6  1  0  0  0  0
  2  9  2  0  0  0  0
  2 25  1  0  0  0  0
  3 14  1  0  0  0  0
  3 55  1  0  0  0  0
  4 27  1  0  0  0  0
  5 28  1  0  0  0  0
  6 29  1  0  0  0  0
  7 26  1  0  0  0  0
 10 12  1  0  0  0  0
 10 18  1  0  0  0  0
 10 19  1  0  0  0  0
 10 20  1  0  0  0  0
 11 13  1  0  0  0  0
 11 21  1  0  0  0  0
 11 22  1  0  0  0  0
 11 23  1  0  0  0  0
 12 14  2  0  0  0  0
 12 15  1  0  0  0  0
 13 14  1  0  0  0  0
 13 16  2  0  0  0  0
 15 17  2  0  0  0  0
 15 34  1  0  0  0  0
 16 17  1  0  0  0  0
 16 35  1  0  0  0  0
 17 24  1  0  0  0  0
 18 42  1  0  0  0  0
 18 43  1  0  0  0  0
 18 44  1  0  0  0  0
 19 36  1  0  0  0  0
 19 37  1  0  0  0  0
 19 38  1  0  0  0  0
 20 39  1  0  0  0  0
 20 40  1  0  0  0  0
 20 41  1  0  0  0  0
 21 51  1  0  0  0  0
 21 52  1  0  0  0  0
 21 53  1  0  0  0  0
 22 48  1  0  0  0  0
 22 49  1  0  0  0  0
 22 50  1  0  0  0  0
 23 45  1  0  0  0  0
 23 46  1  0  0  0  0
 23 47  1  0  0  0  0
 24 25  2  0  0  0  0
 24 54  1  0  0  0  0
 26 33  1  0  0  0  0
 26 56  1  0  0  0  0
 26 57  1  0  0  0  0
 27 32  1  0  0  0  0
 27 58  1  0  0  0  0
 27 59  1  0  0  0  0
 28 31  1  0  0  0  0
 28 60  1  0  0  0  0
 28 61  1  0  0  0  0
 29 30  1  0  0  0  0
 29 62  1  0  0  0  0
 29 63  1  0  0  0  0
 30 64  1  0  0  0  0
 30 74  1  0  0  0  0
 30 75  1  0  0  0  0
 31 71  1  0  0  0  0
 31 72  1  0  0  0  0
 31 73  1  0  0  0  0
 32 68  1  0  0  0  0
 32 69  1  0  0  0  0
 32 70  1  0  0  0  0
 33 65  1  0  0  0  0
 33 66  1  0  0  0  0
 33 67  1  0  0  0  0
M  END
> <PUBCHEM_COMPOUND_CID>
446313

> <PUBCHEM_COMPOUND_CANONICALIZED>
1

> <PUBCHEM_CACTVS_COMPLEXITY>
660

> <PUBCHEM_CACTVS_HBOND_ACCEPTOR>
7

> <PUBCHEM_CACTVS_HBOND_DONOR>
1

> <PUBCHEM_CACTVS_ROTATABLE_BOND>
13

> <PUBCHEM_CACTVS_SUBSKEYS>
AAADcfB4OAMAAAAAAAAAAAAAAAAAAAAAAAAwAAAAAAAAAAABAAAAGggACCAADgSgmAIyBoAAAxCAQiBCAIACAAAgIAAAiAAECIgIJiKCERKAcAAkwBEImAeAwOAPoAACAAAIAABAAAQAABAAAAAAAAAAAA==

> <PUBCHEM_IUPAC_OPENEYE_NAME>
4-[2,2-bis(diethoxyphosphoryl)vinyl]-2,6-ditert-butyl-phenol

> <PUBCHEM_IUPAC_CAS_NAME>
4-[2,2-bis(diethoxyphosphoryl)ethenyl]-2,6-ditert-butylphenol

> <PUBCHEM_IUPAC_NAME>
4-[2,2-bis(diethoxyphosphoryl)ethenyl]-2,6-ditert-butylphenol

> <PUBCHEM_IUPAC_SYSTEMATIC_NAME>
4-[2,2-bis(diethoxyphosphoryl)ethenyl]-2,6-ditert-butyl-phenol

> <PUBCHEM_IUPAC_TRADITIONAL_NAME>
4-[2,2-bis(diethoxyphosphoryl)vinyl]-2,6-ditert-butyl-phenol

> <PUBCHEM_IUPAC_INCHI>
InChI=1S/C24H42O7P2/c1-11-28-32(26,29-12-2)21(33(27,30-13-3)31-14-4)17-18-15-19(23(5,6)7)22(25)20(16-18)24(8,9)10/h15-17,25H,11-14H2,1-10H3

> <PUBCHEM_IUPAC_INCHIKEY>
YQLJDECYQDRSBI-UHFFFAOYSA-N

> <PUBCHEM_XLOGP3_AA>
5.2

> <PUBCHEM_EXACT_MASS>
504.240577

> <PUBCHEM_MOLECULAR_FORMULA>
C24H42O7P2

> <PUBCHEM_MOLECULAR_WEIGHT>
504.533604

> <PUBCHEM_OPENEYE_CAN_SMILES>
CCOP(=O)(C(=CC1=CC(=C(C(=C1)C(C)(C)C)O)C(C)(C)C)P(=O)(OCC)OCC)OCC

> <PUBCHEM_OPENEYE_ISO_SMILES>
CCOP(=O)(C(=CC1=CC(=C(C(=C1)C(C)(C)C)O)C(C)(C)C)P(=O)(OCC)OCC)OCC

> <PUBCHEM_CACTVS_TPSA>
91.3

> <PUBCHEM_MONOISOTOPIC_WEIGHT>
504.240577

> <PUBCHEM_TOTAL_CHARGE>
0

> <PUBCHEM_HEAVY_ATOM_COUNT>
33

> <PUBCHEM_ATOM_DEF_STEREO_COUNT>
0

> <PUBCHEM_ATOM_UDEF_STEREO_COUNT>
0

> <PUBCHEM_BOND_DEF_STEREO_COUNT>
0

> <PUBCHEM_BOND_UDEF_STEREO_COUNT>
0

> <PUBCHEM_ISOTOPIC_ATOM_COUNT>
0

> <PUBCHEM_COMPONENT_COUNT>
1

> <PUBCHEM_CACTVS_TAUTO_COUNT>
2

> <PUBCHEM_COORDINATE_TYPE>
1
5
255

> <PUBCHEM_BONDANNOTATIONS>
12  14  8
12  15  8
13  14  8
13  16  8
15  17  8
16  17  8

$$$$

