   Color/Form

     * Crystals from acetonitrile
     * White to off-white crystalline powder

   from [1]HSDB

   Melting Point
        156 deg C
   from [2]HSDB

   Dissociation Constants
        pKa1 = 1.2; pKa2 = 7.4 /Estimated/
   from [3]HSDB

   Octanol/Water Partition Coefficient
        log Kow = 2.23
   from [4]HSDB

   pH
        Weak base
   from [5]HSDB

   Solubilities

     * Freely soluble in ethanol and methanol, and slightly soluble in
       acetone and isopropanol and very slightly soluble in water.
     * In water, 82.3 mg/L at 25 deg C /Estimated/

   from [6]HSDB

   Vapor Pressure
        9.2X10-13 mm Hg at 25 deg C /Estimated/
   from [7]HSDB

   Other Chemical/Physical Properties

     * The stability ... is a function of pH; it is rapidly degraded in
       acid media, but has acceptable stability under alkaline conditions.
     * Colorless syrup. Specific optical rotation = - 155 deg @ 20 deg C/D
       ©= 0.5 in chloroform) /S-form/
     * MW: 713.13. White powder. Specific optical rotation = -128.2 deg @
       20 deg C/D © = 1 in methanol) /S-form magnesium salt/
     * Henry's Law constant = 3.0X10-19 atm-cu m/mole at 25 deg C
       /Estimated/
     * Hydroxyl radical reaction rate constant = 9.6X10-11 cu cm/molec-sec
       at 25 deg C /Estimated/

   from [8]HSDB

   Computed Properties
   Molecular Weight                  345.41606 [g/mol]
   Molecular Formula                 C[17]H[19]N[3]O[3]S
   XLogP3                            2.2
   H-Bond Donor                      1
   H-Bond Acceptor                   6
   Rotatable Bond Count              5
   Tautomer Count                    2
   Exact Mass                        345.114712
   MonoIsotopic Mass                 345.114712
   Topological Polar Surface Area    96.3
   Heavy Atom Count                  24
   Formal Charge                     0
   Complexity                        453
   Isotope Atom Count                0
   Defined Atom Stereocenter Count   0
   Undefined Atom Stereocenter Count 1
   Defined Bond Stereocenter Count   0
   Undefined Bond Stereocenter Count 0
   Covalently-Bonded Unit Count      1
   Feature 3D Acceptor Count         4
   Feature 3D Donor Count            1
   Feature 3D Cation Count           1
   Feature 3D Ring Count             3
   Effective Rotor Count             5
   Conformer Sampling RMSD           0.8
   CID Conformer Count               [9]61

References

   1. http://toxnet.nlm.nih.gov/cgi-bin/sis/search/r?dbs+hsdb:@term+@rn+@rel+73590-58-6
   2. http://toxnet.nlm.nih.gov/cgi-bin/sis/search/r?dbs+hsdb:@term+@rn+@rel+73590-58-6
   3. http://toxnet.nlm.nih.gov/cgi-bin/sis/search/r?dbs+hsdb:@term+@rn+@rel+73590-58-6
   4. http://toxnet.nlm.nih.gov/cgi-bin/sis/search/r?dbs+hsdb:@term+@rn+@rel+73590-58-6
   5. http://toxnet.nlm.nih.gov/cgi-bin/sis/search/r?dbs+hsdb:@term+@rn+@rel+73590-58-6
   6. http://toxnet.nlm.nih.gov/cgi-bin/sis/search/r?dbs+hsdb:@term+@rn+@rel+73590-58-6
   7. http://toxnet.nlm.nih.gov/cgi-bin/sis/search/r?dbs+hsdb:@term+@rn+@rel+73590-58-6
   8. http://toxnet.nlm.nih.gov/cgi-bin/sis/search/r?dbs+hsdb:@term+@rn+@rel+73590-58-6
   9. http://pubchem.ncbi.nlm.nih.gov/vw3d/vw3d.cgi?cid=4594
