10844
  -OEChem-06261205022D

 18 17  0     0  0  0  0  0  0999 V2000
    4.0010    1.0000    0.0000 As  0  0  0  0  0  0  0  0  0  0  0  0
    1.5005    6.3100    0.0000 Cl  0  0  0  0  0  0  0  0  0  0  0  0
    0.5369    3.0000    0.0000 O   0  0  0  0  0  0  0  0  0  0  0  0
    4.0010    0.0000    0.0000 O   0  0  0  0  0  0  0  0  0  0  0  0
    2.2690    4.0000    0.0000 N   0  0  0  0  0  0  0  0  0  0  0  0
    2.2690    3.0000    0.0000 C   0  0  0  0  0  0  0  0  0  0  0  0
    1.4030    2.5000    0.0000 C   0  0  0  0  0  0  0  0  0  0  0  0
    3.1350    2.5000    0.0000 C   0  0  0  0  0  0  0  0  0  0  0  0
    3.1350    1.5000    0.0000 C   0  0  0  0  0  0  0  0  0  0  0  0
    1.4030    1.5000    0.0000 C   0  0  0  0  0  0  0  0  0  0  0  0
    2.2690    1.0000    0.0000 C   0  0  0  0  0  0  0  0  0  0  0  0
    3.6720    2.8100    0.0000 H   0  0  0  0  0  0  0  0  0  0  0  0
    0.8660    1.1900    0.0000 H   0  0  0  0  0  0  0  0  0  0  0  0
    2.2690    0.3800    0.0000 H   0  0  0  0  0  0  0  0  0  0  0  0
    2.8059    4.3100    0.0000 H   0  0  0  0  0  0  0  0  0  0  0  0
    1.7320    4.3100    0.0000 H   0  0  0  0  0  0  0  0  0  0  0  0
    0.0000    2.6900    0.0000 H   0  0  0  0  0  0  0  0  0  0  0  0
    2.5005    6.3100    0.0000 H   0  0  0  0  0  0  0  0  0  0  0  0
  1  4  2  0  0  0  0
  1  9  1  0  0  0  0
  2 18  1  0  0  0  0
  3  7  1  0  0  0  0
  3 17  1  0  0  0  0
  5  6  1  0  0  0  0
  5 15  1  0  0  0  0
  5 16  1  0  0  0  0
  6  7  2  0  0  0  0
  6  8  1  0  0  0  0
  7 10  1  0  0  0  0
  8  9  2  0  0  0  0
  8 12  1  0  0  0  0
  9 11  1  0  0  0  0
 10 11  2  0  0  0  0
 10 13  1  0  0  0  0
 11 14  1  0  0  0  0
M  END
> <PUBCHEM_COMPOUND_CID>
10844

> <PUBCHEM_COMPOUND_CANONICALIZED>
1

> <PUBCHEM_CACTVS_COMPLEXITY>
131

> <PUBCHEM_CACTVS_HBOND_ACCEPTOR>
3

> <PUBCHEM_CACTVS_HBOND_DONOR>
3

> <PUBCHEM_CACTVS_ROTATABLE_BOND>
0

> <PUBCHEM_CACTVS_SUBSKEYS>
AAADcYBiMAAEAAAAQAAAAAAAAAAAAAAAAAAwAAAAAAAAAAABAAAAHgEQCAAACAyBkAAwxoBAAgCAACRCQACCAAAgIgAIjAAHbIgKJiKSkZOAcBBk0BEI2AeQQAAAAAAAAAAAEAAAAAAAAAAgAAAAAAAAAA==

> <PUBCHEM_IUPAC_OPENEYE_NAME>
2-amino-4-arsoroso-phenol hydrochloride

> <PUBCHEM_IUPAC_CAS_NAME>
2-amino-4-arsorosophenol hydrochloride

> <PUBCHEM_IUPAC_NAME>
2-amino-4-arsorosophenol hydrochloride

> <PUBCHEM_IUPAC_SYSTEMATIC_NAME>
4-arsoroso-2-azanyl-phenol hydrochloride

> <PUBCHEM_IUPAC_TRADITIONAL_NAME>
2-amino-4-arsoroso-phenol hydrochloride

> <PUBCHEM_IUPAC_INCHI>
InChI=1S/C6H6AsNO2.ClH/c8-5-3-4(7-10)1-2-6(5)9;/h1-3,9H,8H2;1H

> <PUBCHEM_IUPAC_INCHIKEY>
JRIGVWDKYXCHMG-UHFFFAOYSA-N

> <PUBCHEM_EXACT_MASS>
234.938128

> <PUBCHEM_MOLECULAR_FORMULA>
C6H7AsClNO2

> <PUBCHEM_MOLECULAR_WEIGHT>
235.49988

> <PUBCHEM_OPENEYE_CAN_SMILES>
C1=CC(=C(C=C1[As]=O)N)O.Cl

> <PUBCHEM_OPENEYE_ISO_SMILES>
C1=CC(=C(C=C1[As]=O)N)O.Cl

> <PUBCHEM_CACTVS_TPSA>
63.3

> <PUBCHEM_MONOISOTOPIC_WEIGHT>
234.938128

> <PUBCHEM_TOTAL_CHARGE>
0

> <PUBCHEM_HEAVY_ATOM_COUNT>
11

> <PUBCHEM_ATOM_DEF_STEREO_COUNT>
0

> <PUBCHEM_ATOM_UDEF_STEREO_COUNT>
0

> <PUBCHEM_BOND_DEF_STEREO_COUNT>
0

> <PUBCHEM_BOND_UDEF_STEREO_COUNT>
0

> <PUBCHEM_ISOTOPIC_ATOM_COUNT>
0

> <PUBCHEM_COMPONENT_COUNT>
2

> <PUBCHEM_CACTVS_TAUTO_COUNT>
5

> <PUBCHEM_COORDINATE_TYPE>
1
5
255

> <PUBCHEM_BONDANNOTATIONS>
10  11  8
6  7  8
6  8  8
7  10  8
8  9  8
9  11  8

$$$$

