34230
  -OEChem-07051213012D

119124  0     1  0  0  0  0  0999 V2000
    8.5878   -1.1321    0.0000 O   0  0  0  0  0  0  0  0  0  0  0  0
   11.1266   -0.6321    0.0000 O   0  0  0  0  0  0  0  0  0  0  0  0
    7.5000   -1.0751    0.0000 O   0  0  0  0  0  0  0  0  0  0  0  0
   13.6655   -0.1321    0.0000 O   0  0  0  0  0  0  0  0  0  0  0  0
    6.0000   -3.6732    0.0000 O   0  0  0  0  0  0  0  0  0  0  0  0
   16.3391   -0.2601    0.0000 O   0  0  0  0  0  0  0  0  0  0  0  0
    4.5000    0.6569    0.0000 O   0  0  0  0  0  0  0  0  0  0  0  0
   17.7359   -0.4813    0.0000 O   0  0  0  0  0  0  0  0  0  0  0  0
   18.7304   -0.3768    0.0000 O   0  0  0  0  0  0  0  0  0  0  0  0
    3.0000    3.2550    0.0000 O   0  0  0  0  0  0  0  0  0  0  0  0
    4.5000    2.3890    0.0000 O   0  0  0  0  0  0  0  0  0  0  0  0
    9.5388   -1.4411    0.0000 C   0  0  2  0  0  0  0  0  0  0  0  0
    8.0000   -1.9411    0.0000 C   0  0  2  0  0  0  0  0  0  0  0  0
   10.5388   -1.4411    0.0000 C   0  0  1  0  0  0  0  0  0  0  0  0
    8.5878   -2.7501    0.0000 C   0  0  1  0  0  0  0  0  0  0  0  0
   12.0777   -0.9411    0.0000 C   0  0  2  0  0  0  0  0  0  0  0  0
    9.5388   -2.4411    0.0000 C   0  0  0  0  0  0  0  0  0  0  0  0
    7.5000   -2.8072    0.0000 C   0  0  1  0  0  0  0  0  0  0  0  0
   13.0777   -0.9411    0.0000 C   0  0  1  0  0  0  0  0  0  0  0  0
   11.1266   -2.2501    0.0000 C   0  0  0  0  0  0  0  0  0  0  0  0
   12.0777   -1.9411    0.0000 C   0  0  0  0  0  0  0  0  0  0  0  0
   13.6655   -1.7501    0.0000 C   0  0  2  0  0  0  0  0  0  0  0  0
    6.5000   -2.8072    0.0000 C   0  0  1  0  0  0  0  0  0  0  0  0
    9.8479   -0.4901    0.0000 C   0  0  0  0  0  0  0  0  0  0  0  0
   14.6165   -0.4411    0.0000 C   0  0  2  0  0  0  0  0  0  0  0  0
    6.5000   -1.0751    0.0000 C   0  0  1  0  0  0  0  0  0  0  0  0
   14.6165   -1.4411    0.0000 C   0  0  0  0  0  0  0  0  0  0  0  0
    6.0000   -1.9411    0.0000 C   0  0  0  0  0  0  0  0  0  0  0  0
    8.9624   -3.6773    0.0000 C   0  0  0  0  0  0  0  0  0  0  0  0
   12.3867    0.0099    0.0000 C   0  0  0  0  0  0  0  0  0  0  0  0
   15.4255    0.1467    0.0000 C   0  0  2  0  0  0  0  0  0  0  0  0
    7.3264   -3.7920    0.0000 C   0  0  0  0  0  0  0  0  0  0  0  0
    6.0000   -0.2091    0.0000 C   0  0  0  0  0  0  0  0  0  0  0  0
   15.3210    1.1412    0.0000 C   0  0  2  0  0  0  0  0  0  0  0  0
   13.3565   -2.7012    0.0000 C   0  0  0  0  0  0  0  0  0  0  0  0
    5.0000   -0.2091    0.0000 C   0  0  1  0  0  0  0  0  0  0  0  0
   16.1300    1.7290    0.0000 C   0  0  0  0  0  0  0  0  0  0  0  0
   17.0436    1.3222    0.0000 C   0  0  2  0  0  0  0  0  0  0  0  0
   17.1481    0.3277    0.0000 C   0  0  2  0  0  0  0  0  0  0  0  0
    4.5000   -1.0751    0.0000 C   0  0  0  0  0  0  0  0  0  0  0  0
   14.4075    1.5479    0.0000 C   0  0  0  0  0  0  0  0  0  0  0  0
    3.5000   -1.0751    0.0000 C   0  0  0  0  0  0  0  0  0  0  0  0
    3.5000    0.6569    0.0000 C   0  0  2  0  0  0  0  0  0  0  0  0
    3.0000   -0.2091    0.0000 C   0  0  1  0  0  0  0  0  0  0  0  0
   17.8526    1.9100    0.0000 C   0  0  0  0  0  0  0  0  0  0  0  0
   18.1426    0.4322    0.0000 C   0  0  0  0  0  0  0  0  0  0  0  0
    5.0000   -3.6732    0.0000 C   0  0  0  0  0  0  0  0  0  0  0  0
    3.0000    1.5230    0.0000 C   0  0  1  0  0  0  0  0  0  0  0  0
    2.0000   -0.2091    0.0000 C   0  0  0  0  0  0  0  0  0  0  0  0
    2.0000    1.5230    0.0000 C   0  0  0  0  0  0  0  0  0  0  0  0
    3.5000    2.3890    0.0000 C   0  0  0  0  0  0  0  0  0  0  0  0
   10.1530   -2.1985    0.0000 H   0  0  0  0  0  0  0  0  0  0  0  0
    8.0455   -3.0507    0.0000 H   0  0  0  0  0  0  0  0  0  0  0  0
    9.6678   -3.0476    0.0000 H   0  0  0  0  0  0  0  0  0  0  0  0
   10.1554   -2.3763    0.0000 H   0  0  0  0  0  0  0  0  0  0  0  0
    8.0826   -3.0192    0.0000 H   0  0  0  0  0  0  0  0  0  0  0  0
   12.6918   -0.1838    0.0000 H   0  0  0  0  0  0  0  0  0  0  0  0
   10.5897   -2.5601    0.0000 H   0  0  0  0  0  0  0  0  0  0  0  0
   11.3788   -2.8165    0.0000 H   0  0  0  0  0  0  0  0  0  0  0  0
   12.2066   -2.5476    0.0000 H   0  0  0  0  0  0  0  0  0  0  0  0
   12.6943   -1.8763    0.0000 H   0  0  0  0  0  0  0  0  0  0  0  0
   14.1039   -2.1886    0.0000 H   0  0  0  0  0  0  0  0  0  0  0  0
    5.8800   -2.8072    0.0000 H   0  0  0  0  0  0  0  0  0  0  0  0
   10.4375   -0.6817    0.0000 H   0  0  0  0  0  0  0  0  0  0  0  0
   10.0394    0.0996    0.0000 H   0  0  0  0  0  0  0  0  0  0  0  0
    9.2582   -0.2985    0.0000 H   0  0  0  0  0  0  0  0  0  0  0  0
   14.4836    0.3984    0.0000 H   0  0  0  0  0  0  0  0  0  0  0  0
    6.8100   -0.5382    0.0000 H   0  0  0  0  0  0  0  0  0  0  0  0
   14.7454   -2.0476    0.0000 H   0  0  0  0  0  0  0  0  0  0  0  0
   15.2331   -1.3763    0.0000 H   0  0  0  0  0  0  0  0  0  0  0  0
    5.5250   -1.5426    0.0000 H   0  0  0  0  0  0  0  0  0  0  0  0
    5.5250   -2.3397    0.0000 H   0  0  0  0  0  0  0  0  0  0  0  0
    8.3876   -3.9096    0.0000 H   0  0  0  0  0  0  0  0  0  0  0  0
    9.1947   -4.2521    0.0000 H   0  0  0  0  0  0  0  0  0  0  0  0
    9.5373   -3.4450    0.0000 H   0  0  0  0  0  0  0  0  0  0  0  0
   12.9764   -0.1817    0.0000 H   0  0  0  0  0  0  0  0  0  0  0  0
   12.5783    0.5996    0.0000 H   0  0  0  0  0  0  0  0  0  0  0  0
   11.7970    0.2015    0.0000 H   0  0  0  0  0  0  0  0  0  0  0  0
   14.6490    0.4924    0.0000 H   0  0  0  0  0  0  0  0  0  0  0  0
    6.7158   -3.6843    0.0000 H   0  0  0  0  0  0  0  0  0  0  0  0
    7.2187   -4.4025    0.0000 H   0  0  0  0  0  0  0  0  0  0  0  0
    7.9369   -3.8996    0.0000 H   0  0  0  0  0  0  0  0  0  0  0  0
    6.5826    0.0030    0.0000 H   0  0  0  0  0  0  0  0  0  0  0  0
    5.8923    0.4015    0.0000 H   0  0  0  0  0  0  0  0  0  0  0  0
   15.2562    1.7578    0.0000 H   0  0  0  0  0  0  0  0  0  0  0  0
   12.7668   -2.5096    0.0000 H   0  0  0  0  0  0  0  0  0  0  0  0
   13.1649   -3.2909    0.0000 H   0  0  0  0  0  0  0  0  0  0  0  0
   13.9461   -2.8928    0.0000 H   0  0  0  0  0  0  0  0  0  0  0  0
    5.3100    0.3279    0.0000 H   0  0  0  0  0  0  0  0  0  0  0  0
   16.4767    2.2430    0.0000 H   0  0  0  0  0  0  0  0  0  0  0  0
   15.6840    2.1596    0.0000 H   0  0  0  0  0  0  0  0  0  0  0  0
   17.6100    1.0700    0.0000 H   0  0  0  0  0  0  0  0  0  0  0  0
    4.3923   -1.6857    0.0000 H   0  0  0  0  0  0  0  0  0  0  0  0
    5.0826   -1.2872    0.0000 H   0  0  0  0  0  0  0  0  0  0  0  0
   14.6596    2.1143    0.0000 H   0  0  0  0  0  0  0  0  0  0  0  0
   13.8411    1.8001    0.0000 H   0  0  0  0  0  0  0  0  0  0  0  0
   14.1553    0.9815    0.0000 H   0  0  0  0  0  0  0  0  0  0  0  0
    2.9174   -1.2872    0.0000 H   0  0  0  0  0  0  0  0  0  0  0  0
    3.6077   -1.6857    0.0000 H   0  0  0  0  0  0  0  0  0  0  0  0
    3.9250    1.3931    0.0000 H   0  0  0  0  0  0  0  0  0  0  0  0
    2.6900   -0.7460    0.0000 H   0  0  0  0  0  0  0  0  0  0  0  0
   18.2170    1.4084    0.0000 H   0  0  0  0  0  0  0  0  0  0  0  0
   18.3542    2.2744    0.0000 H   0  0  0  0  0  0  0  0  0  0  0  0
   17.4882    2.4116    0.0000 H   0  0  0  0  0  0  0  0  0  0  0  0
   18.6999    0.7040    0.0000 H   0  0  0  0  0  0  0  0  0  0  0  0
   17.9717    1.0282    0.0000 H   0  0  0  0  0  0  0  0  0  0  0  0
    5.0000   -3.0532    0.0000 H   0  0  0  0  0  0  0  0  0  0  0  0
    4.3800   -3.6732    0.0000 H   0  0  0  0  0  0  0  0  0  0  0  0
    5.0000   -4.2932    0.0000 H   0  0  0  0  0  0  0  0  0  0  0  0
    2.6900    2.0599    0.0000 H   0  0  0  0  0  0  0  0  0  0  0  0
   17.4837   -1.0477    0.0000 H   0  0  0  0  0  0  0  0  0  0  0  0
    2.0000    0.4109    0.0000 H   0  0  0  0  0  0  0  0  0  0  0  0
    1.3800   -0.2091    0.0000 H   0  0  0  0  0  0  0  0  0  0  0  0
    2.0000   -0.8291    0.0000 H   0  0  0  0  0  0  0  0  0  0  0  0
   19.3470   -0.3120    0.0000 H   0  0  0  0  0  0  0  0  0  0  0  0
    2.0000    2.1430    0.0000 H   0  0  0  0  0  0  0  0  0  0  0  0
    1.3800    1.5230    0.0000 H   0  0  0  0  0  0  0  0  0  0  0  0
    2.0000    0.9030    0.0000 H   0  0  0  0  0  0  0  0  0  0  0  0
    3.3100    3.7920    0.0000 H   0  0  0  0  0  0  0  0  0  0  0  0
  1 12  1  0  0  0  0
  1 13  1  0  0  0  0
  2 14  1  0  0  0  0
  2 16  1  0  0  0  0
 13  3  1  1  0  0  0
  3 26  1  0  0  0  0
  4 19  1  0  0  0  0
  4 25  1  0  0  0  0
 23  5  1  6  0  0  0
  5 47  1  0  0  0  0
  6 31  1  0  0  0  0
  6 39  1  0  0  0  0
  7 36  1  0  0  0  0
  7 43  1  0  0  0  0
 39  8  1  1  0  0  0
  8111  1  0  0  0  0
  9 46  1  0  0  0  0
  9115  1  0  0  0  0
 10 51  1  0  0  0  0
 10119  1  0  0  0  0
 11 51  2  0  0  0  0
 12 14  1  0  0  0  0
 12 17  1  0  0  0  0
 12 24  1  1  0  0  0
 13 15  1  0  0  0  0
 13 18  1  0  0  0  0
 14 20  1  0  0  0  0
 14 52  1  1  0  0  0
 15 17  1  0  0  0  0
 15 29  1  1  0  0  0
 15 53  1  0  0  0  0
 16 19  1  0  0  0  0
 16 21  1  0  0  0  0
 16 30  1  1  0  0  0
 17 54  1  0  0  0  0
 17 55  1  0  0  0  0
 18 23  1  0  0  0  0
 18 32  1  6  0  0  0
 18 56  1  0  0  0  0
 19 22  1  0  0  0  0
 19 57  1  1  0  0  0
 20 21  1  0  0  0  0
 20 58  1  0  0  0  0
 20 59  1  0  0  0  0
 21 60  1  0  0  0  0
 21 61  1  0  0  0  0
 22 27  1  0  0  0  0
 22 35  1  6  0  0  0
 22 62  1  0  0  0  0
 23 28  1  0  0  0  0
 23 63  1  0  0  0  0
 24 64  1  0  0  0  0
 24 65  1  0  0  0  0
 24 66  1  0  0  0  0
 25 27  1  0  0  0  0
 25 31  1  0  0  0  0
 25 67  1  6  0  0  0
 26 28  1  0  0  0  0
 26 33  1  1  0  0  0
 26 68  1  0  0  0  0
 27 69  1  0  0  0  0
 27 70  1  0  0  0  0
 28 71  1  0  0  0  0
 28 72  1  0  0  0  0
 29 73  1  0  0  0  0
 29 74  1  0  0  0  0
 29 75  1  0  0  0  0
 30 76  1  0  0  0  0
 30 77  1  0  0  0  0
 30 78  1  0  0  0  0
 31 34  1  0  0  0  0
 31 79  1  1  0  0  0
 32 80  1  0  0  0  0
 32 81  1  0  0  0  0
 32 82  1  0  0  0  0
 36 33  1  1  0  0  0
 33 83  1  0  0  0  0
 33 84  1  0  0  0  0
 34 37  1  0  0  0  0
 34 41  1  1  0  0  0
 34 85  1  0  0  0  0
 35 86  1  0  0  0  0
 35 87  1  0  0  0  0
 35 88  1  0  0  0  0
 36 40  1  0  0  0  0
 36 89  1  0  0  0  0
 37 38  1  0  0  0  0
 37 90  1  0  0  0  0
 37 91  1  0  0  0  0
 38 39  1  0  0  0  0
 38 45  1  1  0  0  0
 38 92  1  0  0  0  0
 39 46  1  0  0  0  0
 40 42  1  0  0  0  0
 40 93  1  0  0  0  0
 40 94  1  0  0  0  0
 41 95  1  0  0  0  0
 41 96  1  0  0  0  0
 41 97  1  0  0  0  0
 42 44  1  0  0  0  0
 42 98  1  0  0  0  0
 42 99  1  0  0  0  0
 43 44  1  0  0  0  0
 43 48  1  0  0  0  0
 43100  1  1  0  0  0
 44 49  1  6  0  0  0
 44101  1  0  0  0  0
 45102  1  0  0  0  0
 45103  1  0  0  0  0
 45104  1  0  0  0  0
 46105  1  0  0  0  0
 46106  1  0  0  0  0
 47107  1  0  0  0  0
 47108  1  0  0  0  0
 47109  1  0  0  0  0
 48 50  1  1  0  0  0
 48 51  1  0  0  0  0
 48110  1  0  0  0  0
 49112  1  0  0  0  0
 49113  1  0  0  0  0
 49114  1  0  0  0  0
 50116  1  0  0  0  0
 50117  1  0  0  0  0
 50118  1  0  0  0  0
M  END
> <PUBCHEM_COMPOUND_CID>
34230

> <PUBCHEM_COMPOUND_CANONICALIZED>
1

> <PUBCHEM_CACTVS_COMPLEXITY>
1230

> <PUBCHEM_CACTVS_HBOND_ACCEPTOR>
11

> <PUBCHEM_CACTVS_HBOND_DONOR>
3

> <PUBCHEM_CACTVS_ROTATABLE_BOND>
9

> <PUBCHEM_CACTVS_SUBSKEYS>
AAADcfB8PAAAAAAAAAAAAAAAAAAAASJEgAAkSJAAAAAAAAAAAAAAGgAACAAADVSggAICCAAABgAIAACQCAAAAAAAAAAAAAEAAAAREBYAAAAiQAAFIAAHAAHI6PyOAAAAAAAAAAAAAAAAAAAAAAAAAAAAAA==

> <PUBCHEM_IUPAC_OPENEYE_NAME>
(2R)-2-[(2R,3S,6R)-6-[[(2S,4R,6R,7R,9R,10R)-2-[(2R,5S)-5-[(2R,3S,5R)-5-[(2S,3S,5R,6R)-6-hydroxy-6-(hydroxymethyl)-3,5-dimethyl-tetrahydropyran-2-yl]-3-methyl-tetrahydrofuran-2-yl]-5-methyl-tetrahydrofuran-2-yl]-9-methoxy-2,4,10-trimethyl-1,6-dioxaspiro[4.5]decan-7-yl]methyl]-3-methyl-tetrahydropyran-2-yl]propanoic acid

> <PUBCHEM_IUPAC_CAS_NAME>
(2R)-2-[(2R,3S,6R)-6-[[(2S,4R,6R,7R,9R,10R)-2-[(2R,5S)-5-[(2R,3S,5R)-5-[(2S,3S,5R,6R)-6-hydroxy-6-(hydroxymethyl)-3,5-dimethyl-2-oxanyl]-3-methyl-2-oxolanyl]-5-methyl-2-oxolanyl]-9-methoxy-2,4,10-trimethyl-1,6-dioxaspiro[4.5]decan-7-yl]methyl]-3-methyl-2-oxanyl]propanoic acid

> <PUBCHEM_IUPAC_NAME>
(2R)-2-[(2R,3S,6R)-6-[[(2S,4R,6R,7R,9R,10R)-2-[(2R,5S)-5-[(2R,3S,5R)-5-[(2S,3S,5R,6R)-6-hydroxy-6-(hydroxymethyl)-3,5-dimethyloxan-2-yl]-3-methyloxolan-2-yl]-5-methyloxolan-2-yl]-9-methoxy-2,4,10-trimethyl-1,6-dioxaspiro[4.5]decan-7-yl]methyl]-3-methyloxan-2-yl]propanoic acid

> <PUBCHEM_IUPAC_SYSTEMATIC_NAME>
(2R)-2-[(2R,3S,6R)-6-[[(2S,4R,6R,7R,9R,10R)-2-[(2R,5S)-5-[(2R,3S,5R)-5-[(2S,3S,5R,6R)-6-(hydroxymethyl)-3,5-dimethyl-6-oxidanyl-oxan-2-yl]-3-methyl-oxolan-2-yl]-5-methyl-oxolan-2-yl]-9-methoxy-2,4,10-trimethyl-1,6-dioxaspiro[4.5]decan-7-yl]methyl]-3-methyl-oxan-2-yl]propanoic acid

> <PUBCHEM_IUPAC_TRADITIONAL_NAME>
(2R)-2-[(2R,3S,6R)-6-[[(2S,4R,6R,7R,9R,10R)-2-[(2R,5S)-5-[(2R,3S,5R)-5-[(2S,3S,5R,6R)-6-hydroxy-3,5-dimethyl-6-methylol-tetrahydropyran-2-yl]-3-methyl-tetrahydrofuran-2-yl]-5-methyl-tetrahydrofuran-2-yl]-9-methoxy-2,4,10-trimethyl-1,6-dioxaspiro[4.5]decan-7-yl]methyl]-3-methyl-tetrahydropyran-2-yl]propionic acid

> <PUBCHEM_IUPAC_INCHI>
InChI=1S/C40H68O11/c1-21-11-12-28(46-33(21)26(6)36(42)43)17-29-18-30(45-10)27(7)40(48-29)25(5)19-38(9,51-40)32-13-14-37(8,49-32)35-23(3)16-31(47-35)34-22(2)15-24(4)39(44,20-41)50-34/h21-35,41,44H,11-20H2,1-10H3,(H,42,43)/t21-,22-,23-,24+,25+,26+,27+,28+,29+,30+,31+,32+,33+,34-,35+,37-,38-,39-,40+/m0/s1

> <PUBCHEM_IUPAC_INCHIKEY>
DANUORFCFTYTSZ-SJSJOXFOSA-N

> <PUBCHEM_XLOGP3_AA>
5.5

> <PUBCHEM_EXACT_MASS>
724.476163

> <PUBCHEM_MOLECULAR_FORMULA>
C40H68O11

> <PUBCHEM_MOLECULAR_WEIGHT>
724.96132

> <PUBCHEM_OPENEYE_CAN_SMILES>
CC1CCC(OC1C(C)C(=O)O)CC2CC(C(C3(O2)C(CC(O3)(C)C4CCC(O4)(C)C5C(CC(O5)C6C(CC(C(O6)(CO)O)C)C)C)C)C)OC

> <PUBCHEM_OPENEYE_ISO_SMILES>
C[C@H]1CC[C@@H](O[C@H]1[C@@H](C)C(=O)O)C[C@@H]2C[C@H]([C@H]([C@@]3(O2)[C@@H](C[C@@](O3)(C)[C@H]4CC[C@@](O4)(C)[C@H]5[C@H](C[C@@H](O5)[C@@H]6[C@H](C[C@H]([C@@](O6)(CO)O)C)C)C)C)C)OC

> <PUBCHEM_CACTVS_TPSA>
142

> <PUBCHEM_MONOISOTOPIC_WEIGHT>
724.476163

> <PUBCHEM_TOTAL_CHARGE>
0

> <PUBCHEM_HEAVY_ATOM_COUNT>
51

> <PUBCHEM_ATOM_DEF_STEREO_COUNT>
19

> <PUBCHEM_ATOM_UDEF_STEREO_COUNT>
0

> <PUBCHEM_BOND_DEF_STEREO_COUNT>
0

> <PUBCHEM_BOND_UDEF_STEREO_COUNT>
0

> <PUBCHEM_ISOTOPIC_ATOM_COUNT>
0

> <PUBCHEM_COMPONENT_COUNT>
1

> <PUBCHEM_CACTVS_TAUTO_COUNT>
1

> <PUBCHEM_COORDINATE_TYPE>
1
5
255

> <PUBCHEM_BONDANNOTATIONS>
12  24  5
14  52  5
15  29  5
16  30  5
18  32  6
19  57  5
22  35  6
25  67  6
26  33  5
13  3  5
31  79  5
36  33  5
34  41  5
38  45  5
43  100  5
44  49  6
48  50  5
23  5  6
39  8  5

$$$$

