17395970
  -OEChem-06241222532D

 55 56  0     1  0  0  0  0  0999 V2000
    3.0000   -1.7500    0.0000 S   0  0  0  0  0  0  0  0  0  0  0  0
    3.0000   -5.7500    0.0000 F   0  0  0  0  0  0  0  0  0  0  0  0
    2.1340    2.7500    0.0000 O   0  0  0  0  0  0  0  0  0  0  0  0
    2.0000   -1.7500    0.0000 O   0  0  0  0  0  0  0  0  0  0  0  0
    4.0000   -1.7500    0.0000 O   0  0  0  0  0  0  0  0  0  0  0  0
    3.0000    5.2500    0.0000 O   0  0  0  0  0  0  0  0  0  0  0  0
    2.1340    3.7500    0.0000 O   0  0  0  0  0  0  0  0  0  0  0  0
    3.0000   -0.7500    0.0000 N   0  0  0  0  0  0  0  0  0  0  0  0
    3.8660    2.7500    0.0000 N   0  0  0  0  0  0  0  0  0  0  0  0
    3.0000    1.2500    0.0000 C   0  0  0  0  0  0  0  0  0  0  0  0
    2.1340    0.7500    0.0000 C   0  0  0  0  0  0  0  0  0  0  0  0
    3.8660    0.7500    0.0000 C   0  0  0  0  0  0  0  0  0  0  0  0
    2.1340   -0.2500    0.0000 C   0  0  0  0  0  0  0  0  0  0  0  0
    3.8660   -0.2500    0.0000 C   0  0  0  0  0  0  0  0  0  0  0  0
    3.0000    2.2500    0.0000 C   0  0  0  0  0  0  0  0  0  0  0  0
    3.8660    3.7500    0.0000 C   0  0  3  0  0  0  0  0  0  0  0  0
    4.7320    4.2500    0.0000 C   0  0  3  0  0  0  0  0  0  0  0  0
    4.7320    5.2500    0.0000 C   0  0  0  0  0  0  0  0  0  0  0  0
    3.0000   -2.7500    0.0000 C   0  0  0  0  0  0  0  0  0  0  0  0
    5.5981    3.7500    0.0000 C   0  0  0  0  0  0  0  0  0  0  0  0
    3.0000    4.2500    0.0000 C   0  0  0  0  0  0  0  0  0  0  0  0
    5.5981    5.7500    0.0000 C   0  0  0  0  0  0  0  0  0  0  0  0
    2.1340   -3.2500    0.0000 C   0  0  0  0  0  0  0  0  0  0  0  0
    3.8660   -3.2500    0.0000 C   0  0  0  0  0  0  0  0  0  0  0  0
    2.1340   -4.2500    0.0000 C   0  0  0  0  0  0  0  0  0  0  0  0
    3.8660   -4.2500    0.0000 C   0  0  0  0  0  0  0  0  0  0  0  0
    3.0000   -4.7500    0.0000 C   0  0  0  0  0  0  0  0  0  0  0  0
    2.1340    5.7500    0.0000 C   0  0  0  0  0  0  0  0  0  0  0  0
    3.5369    1.5600    0.0000 H   0  0  0  0  0  0  0  0  0  0  0  0
    4.4766    0.6423    0.0000 H   0  0  0  0  0  0  0  0  0  0  0  0
    4.0781    1.3326    0.0000 H   0  0  0  0  0  0  0  0  0  0  0  0
    1.9219    1.3326    0.0000 H   0  0  0  0  0  0  0  0  0  0  0  0
    1.5234    0.6423    0.0000 H   0  0  0  0  0  0  0  0  0  0  0  0
    4.0781   -0.8326    0.0000 H   0  0  0  0  0  0  0  0  0  0  0  0
    4.4766   -0.1423    0.0000 H   0  0  0  0  0  0  0  0  0  0  0  0
    1.5234   -0.1423    0.0000 H   0  0  0  0  0  0  0  0  0  0  0  0
    1.9219   -0.8326    0.0000 H   0  0  0  0  0  0  0  0  0  0  0  0
    4.4030    3.4400    0.0000 H   0  0  0  0  0  0  0  0  0  0  0  0
    4.7320    3.6300    0.0000 H   0  0  0  0  0  0  0  0  0  0  0  0
    4.4030    2.4400    0.0000 H   0  0  0  0  0  0  0  0  0  0  0  0
    4.5200    5.8326    0.0000 H   0  0  0  0  0  0  0  0  0  0  0  0
    4.1215    5.1423    0.0000 H   0  0  0  0  0  0  0  0  0  0  0  0
    5.2881    3.2131    0.0000 H   0  0  0  0  0  0  0  0  0  0  0  0
    6.1350    3.4400    0.0000 H   0  0  0  0  0  0  0  0  0  0  0  0
    5.9081    4.2869    0.0000 H   0  0  0  0  0  0  0  0  0  0  0  0
    5.9081    5.2131    0.0000 H   0  0  0  0  0  0  0  0  0  0  0  0
    6.1350    6.0600    0.0000 H   0  0  0  0  0  0  0  0  0  0  0  0
    5.2881    6.2869    0.0000 H   0  0  0  0  0  0  0  0  0  0  0  0
    1.5970   -2.9400    0.0000 H   0  0  0  0  0  0  0  0  0  0  0  0
    4.4030   -2.9400    0.0000 H   0  0  0  0  0  0  0  0  0  0  0  0
    1.5970   -4.5600    0.0000 H   0  0  0  0  0  0  0  0  0  0  0  0
    4.4030   -4.5600    0.0000 H   0  0  0  0  0  0  0  0  0  0  0  0
    2.4440    6.2869    0.0000 H   0  0  0  0  0  0  0  0  0  0  0  0
    1.5970    6.0600    0.0000 H   0  0  0  0  0  0  0  0  0  0  0  0
    1.8240    5.2131    0.0000 H   0  0  0  0  0  0  0  0  0  0  0  0
  1  4  2  0  0  0  0
  1  5  2  0  0  0  0
  1  8  1  0  0  0  0
  1 19  1  0  0  0  0
  2 27  1  0  0  0  0
  3 15  2  0  0  0  0
  6 21  1  0  0  0  0
  6 28  1  0  0  0  0
  7 21  2  0  0  0  0
  8 13  1  0  0  0  0
  8 14  1  0  0  0  0
  9 15  1  0  0  0  0
  9 16  1  0  0  0  0
  9 40  1  0  0  0  0
 10 11  1  0  0  0  0
 10 12  1  0  0  0  0
 10 15  1  0  0  0  0
 10 29  1  0  0  0  0
 11 13  1  0  0  0  0
 11 32  1  0  0  0  0
 11 33  1  0  0  0  0
 12 14  1  0  0  0  0
 12 30  1  0  0  0  0
 12 31  1  0  0  0  0
 13 36  1  0  0  0  0
 13 37  1  0  0  0  0
 14 34  1  0  0  0  0
 14 35  1  0  0  0  0
 16 17  1  0  0  0  0
 16 21  1  0  0  0  0
 16 38  1  0  0  0  0
 17 18  1  0  0  0  0
 17 20  1  0  0  0  0
 17 39  1  0  0  0  0
 18 22  1  0  0  0  0
 18 41  1  0  0  0  0
 18 42  1  0  0  0  0
 19 23  2  0  0  0  0
 19 24  1  0  0  0  0
 20 43  1  0  0  0  0
 20 44  1  0  0  0  0
 20 45  1  0  0  0  0
 22 46  1  0  0  0  0
 22 47  1  0  0  0  0
 22 48  1  0  0  0  0
 23 25  1  0  0  0  0
 23 49  1  0  0  0  0
 24 26  2  0  0  0  0
 24 50  1  0  0  0  0
 25 27  2  0  0  0  0
 25 51  1  0  0  0  0
 26 27  1  0  0  0  0
 26 52  1  0  0  0  0
 28 53  1  0  0  0  0
 28 54  1  0  0  0  0
 28 55  1  0  0  0  0
M  END
> <PUBCHEM_COMPOUND_CID>
17395970

> <PUBCHEM_COMPOUND_CANONICALIZED>
1

> <PUBCHEM_CACTVS_COMPLEXITY>
635

> <PUBCHEM_CACTVS_HBOND_ACCEPTOR>
7

> <PUBCHEM_CACTVS_HBOND_DONOR>
1

> <PUBCHEM_CACTVS_ROTATABLE_BOND>
8

> <PUBCHEM_CACTVS_SUBSKEYS>
AAADceB7OQBAAAAAAAAAAAAAAAAAAAAAAAA8QAAAAAAAAAABAAAAHwQQQAAADSjB0A4yCYLABAKIACHSGHBCABAgAAAIiJmIAIgKIDKAkTCFIAAklgCYiAecAAAKAAAAAAAAAAAAAAAAAAAAAAAAAAAAAA==

> <PUBCHEM_IUPAC_OPENEYE_NAME>
methyl 2-[[1-(4-fluorophenyl)sulfonylpiperidine-4-carbonyl]amino]-3-methyl-pentanoate

> <PUBCHEM_IUPAC_CAS_NAME>
2-[[[1-(4-fluorophenyl)sulfonyl-4-piperidinyl]-oxomethyl]amino]-3-methylpentanoic acid methyl ester

> <PUBCHEM_IUPAC_NAME>
methyl 2-[[1-(4-fluorophenyl)sulfonylpiperidine-4-carbonyl]amino]-3-methylpentanoate

> <PUBCHEM_IUPAC_SYSTEMATIC_NAME>
methyl 2-[[1-(4-fluorophenyl)sulfonylpiperidin-4-yl]carbonylamino]-3-methyl-pentanoate

> <PUBCHEM_IUPAC_TRADITIONAL_NAME>
2-[[1-(4-fluorophenyl)sulfonylisonipecotoyl]amino]-3-methyl-valeric acid methyl ester

> <PUBCHEM_IUPAC_INCHI>
InChI=1S/C19H27FN2O5S/c1-4-13(2)17(19(24)27-3)21-18(23)14-9-11-22(12-10-14)28(25,26)16-7-5-15(20)6-8-16/h5-8,13-14,17H,4,9-12H2,1-3H3,(H,21,23)

> <PUBCHEM_IUPAC_INCHIKEY>
KHGIHVYXUYLDIM-UHFFFAOYSA-N

> <PUBCHEM_XLOGP3_AA>
2.6

> <PUBCHEM_EXACT_MASS>
414.162471

> <PUBCHEM_MOLECULAR_FORMULA>
C19H27FN2O5S

> <PUBCHEM_MOLECULAR_WEIGHT>
414.491483

> <PUBCHEM_OPENEYE_CAN_SMILES>
CCC(C)C(C(=O)OC)NC(=O)C1CCN(CC1)S(=O)(=O)C2=CC=C(C=C2)F

> <PUBCHEM_OPENEYE_ISO_SMILES>
CCC(C)C(C(=O)OC)NC(=O)C1CCN(CC1)S(=O)(=O)C2=CC=C(C=C2)F

> <PUBCHEM_CACTVS_TPSA>
101

> <PUBCHEM_MONOISOTOPIC_WEIGHT>
414.162471

> <PUBCHEM_TOTAL_CHARGE>
0

> <PUBCHEM_HEAVY_ATOM_COUNT>
28

> <PUBCHEM_ATOM_DEF_STEREO_COUNT>
0

> <PUBCHEM_ATOM_UDEF_STEREO_COUNT>
2

> <PUBCHEM_BOND_DEF_STEREO_COUNT>
0

> <PUBCHEM_BOND_UDEF_STEREO_COUNT>
0

> <PUBCHEM_ISOTOPIC_ATOM_COUNT>
0

> <PUBCHEM_COMPONENT_COUNT>
1

> <PUBCHEM_CACTVS_TAUTO_COUNT>
2

> <PUBCHEM_COORDINATE_TYPE>
1
5
255

> <PUBCHEM_BONDANNOTATIONS>
16  21  3
17  20  3
19  23  8
19  24  8
23  25  8
24  26  8
25  27  8
26  27  8

$$$$

