   Color/Form

     * Crystals form alcohol and water
     * White or practically white, crystalline powder

   from [1]HSDB

   Odor
        Odorless or has slight odor.
   from [2]HSDB

   Taste
        TASTELESS
   from [3]HSDB

   Melting Point
        225 deg C
   from [4]HSDB

   Dissociation Constants
        pKa = 9.4
   from [5]HSDB

   Octanol/Water Partition Coefficient
        log Kow = 1.42 at pH 6.5
   from [6]HSDB

   Solubilities
        Slightly soluble in alcohol; freely soluble in acetone, pyridine;
   sparingly soluble in methanol; very slightly soluble in water, benzene,
   chloroform, isopropyl alcohol.
   from [7]HSDB

   Spectral Properties
        UV max (methanol): 226, 267, 311 nm (E 39300, 21250, 3300)
   from [8]HSDB

   Other Chemical/Physical Properties
        Chars slightly below 220 deg C and decomposes at 220 deg C
   from [9]HSDB

   Computed Properties
   Molecular Weight                  360.23734 [g/mol]
   Molecular Formula                 C[9]H[11]Cl[2]N[3]O[4]S[2]
   XLogP3                            1.4
   H-Bond Donor                      2
   H-Bond Acceptor                   7
   Rotatable Bond Count              2
   Exact Mass                        358.956803
   MonoIsotopic Mass                 358.956803
   Topological Polar Surface Area    126
   Heavy Atom Count                  20
   Formal Charge                     0
   Complexity                        571
   Isotope Atom Count                0
   Defined Atom Stereocenter Count   0
   Undefined Atom Stereocenter Count 1
   Defined Bond Stereocenter Count   0
   Undefined Bond Stereocenter Count 0
   Covalently-Bonded Unit Count      1
   Feature 3D Acceptor Count         4
   Feature 3D Donor Count            2
   Feature 3D Cation Count           1
   Feature 3D Ring Count             2
   Effective Rotor Count             2.6
   Conformer Sampling RMSD           0.6
   CID Conformer Count               [10]11

References

   1. http://toxnet.nlm.nih.gov/cgi-bin/sis/search/r?dbs+hsdb:@term+@rn+@rel+135-07-9
   2. http://toxnet.nlm.nih.gov/cgi-bin/sis/search/r?dbs+hsdb:@term+@rn+@rel+135-07-9
   3. http://toxnet.nlm.nih.gov/cgi-bin/sis/search/r?dbs+hsdb:@term+@rn+@rel+135-07-9
   4. http://toxnet.nlm.nih.gov/cgi-bin/sis/search/r?dbs+hsdb:@term+@rn+@rel+135-07-9
   5. http://toxnet.nlm.nih.gov/cgi-bin/sis/search/r?dbs+hsdb:@term+@rn+@rel+135-07-9
   6. http://toxnet.nlm.nih.gov/cgi-bin/sis/search/r?dbs+hsdb:@term+@rn+@rel+135-07-9
   7. http://toxnet.nlm.nih.gov/cgi-bin/sis/search/r?dbs+hsdb:@term+@rn+@rel+135-07-9
   8. http://toxnet.nlm.nih.gov/cgi-bin/sis/search/r?dbs+hsdb:@term+@rn+@rel+135-07-9
   9. http://toxnet.nlm.nih.gov/cgi-bin/sis/search/r?dbs+hsdb:@term+@rn+@rel+135-07-9
  10. http://pubchem.ncbi.nlm.nih.gov/vw3d/vw3d.cgi?cid=4121
