   Color/Form
        Colorless liquid.
   from [1]HSDB

   Odor

     * Ether-like odor
     * Mildly sweet, chloroform-like odor
     * Chlorinated solvent odor

   from [2]HSDB

   Boiling Point
        121.3 deg C
   from [3]HSDB

   Melting Point
        -22.3 deg C
   from [4]HSDB

   Corrosivity
        Corrosion of aluminum, iron, and zinc, which is negligible unless
   water is present, can be inhibited by the addition of stabilizers
   from [5]HSDB

   Critical Temperature and Pressure
        347.1 deg C; 9.74 MPa (to convert MPa to atm, divide by 0.101)
   from [6]HSDB

   Density/Specific Gravity
        1.6227 @ 20 deg C/4 deg C
   from [7]HSDB

   Heat of Combustion
        679.9 kJ/mol (constant pressure with formation of aq hydrochloric
   acid; 831.8 kJ/mol (constant volume at 18.7 deg C) (to convert J to
   cal, divide by 4.184)
   from [8]HSDB

   Heat of Vaporization
        90.2 BTU/lb= 50.1 cal/g= 2.10X10+5 J/kg
   from [9]HSDB

   Octanol/Water Partition Coefficient
        log Kow= 3.40
   from [10]HSDB

   Solubilities

     * Miscible with alcohol, ether, chloroform, benzene
     * Miscible with solvent hexane; dissolves in most of the fixed and
       volatile oils
     * 0.015 G/100 ML WATER AT 25 DEG C

   from [11]HSDB

   Spectral Properties

     * SADTLER REF NUMBER: 237 (IR, PRISM); 79 (IR, GRATING)
     * Index of Refraction: 1.5053 at 20 deg C/D
     * IR: 4786 (Coblentz Society Spectral Collection)
     * MASS: 1053 (Atlas of Mass Spectral Data, John Wiley & Sons, New
       York)

   from [12]HSDB

   Surface Tension
        31.74 dynes/cm at 20 deg C in contact with vapor
   from [13]HSDB

   Vapor Density
        5.7 (AIR= 1)
   from [14]HSDB

   Vapor Pressure
        18.5 mm Hg @ 25 deg C
   from [15]HSDB

   Relative Evaporation Rate
        EVAPORATION RATE SLOWER THAN THAT FOR TRICHLOROETHYLENE, ABOUT
   3-1.
   from [16]HSDB

   Viscosity
        Liquid: 0.932, 0.839, 0.657 & 0.534 CP at 15, 25, 50 & 75 deg C,
   respectively; Vapor: 9900 CP at 60 deg C
   from [17]HSDB

   Other Chemical/Physical Properties

     * Liquid-water interfacial tension: 44.4 dynes/cm= 0.0444 N/m at 25
       deg C
     * Conversion factors: 1 mg/l equals 147.4 ppm and 1 ppm equals 6.78
       mg/cu m at 25 deg C, 760 mm Hg
     * Partition coefficients at 37 deg C for tetrachloroethylene into
       blood= 13.1; into oil= 1,920 [Sato A, Nakajima T; Scand J Work
       Environ Health 13: 81-93 (1987)] [18]PubMed Abstract
     * Sat concn in air: 126 g/cu m at 20 deg C, 210 g/cu m at 30 deg C
     * DECOMP SLOWLY IN WATER TO YIELD TRICHLOROACETIC AND HYDROCHLORIC
       ACIDS; OXIDIZED BY STRONG OXIDIZING AGENTS
     * Henry's law constant = 0.0177 atm-cu m/mole @ 25 deg C
     * Hydroxyl radical rate constant = 1.67X10-13 cu cm/molecule-sec @ 25
       deg C

   from [19]HSDB

   Computed Properties
   Molecular Weight                  165.8334 [g/mol]
   Molecular Formula                 C[2]Cl[4]
   XLogP3                            3.4
   H-Bond Donor                      0
   H-Bond Acceptor                   0
   Rotatable Bond Count              0
   Exact Mass                        165.872461
   MonoIsotopic Mass                 163.875411
   Topological Polar Surface Area    0
   Heavy Atom Count                  6
   Formal Charge                     0
   Complexity                        55.6
   Isotope Atom Count                0
   Defined Atom Stereocenter Count   0
   Undefined Atom Stereocenter Count 0
   Defined Bond Stereocenter Count   0
   Undefined Bond Stereocenter Count 0
   Covalently-Bonded Unit Count      1
   Effective Rotor Count             0
   Conformer Sampling RMSD           0.4
   CID Conformer Count               [20]1

References

   1. http://toxnet.nlm.nih.gov/cgi-bin/sis/search/r?dbs+hsdb:@term+@rn+@rel+127-18-4
   2. http://toxnet.nlm.nih.gov/cgi-bin/sis/search/r?dbs+hsdb:@term+@rn+@rel+127-18-4
   3. http://toxnet.nlm.nih.gov/cgi-bin/sis/search/r?dbs+hsdb:@term+@rn+@rel+127-18-4
   4. http://toxnet.nlm.nih.gov/cgi-bin/sis/search/r?dbs+hsdb:@term+@rn+@rel+127-18-4
   5. http://toxnet.nlm.nih.gov/cgi-bin/sis/search/r?dbs+hsdb:@term+@rn+@rel+127-18-4
   6. http://toxnet.nlm.nih.gov/cgi-bin/sis/search/r?dbs+hsdb:@term+@rn+@rel+127-18-4
   7. http://toxnet.nlm.nih.gov/cgi-bin/sis/search/r?dbs+hsdb:@term+@rn+@rel+127-18-4
   8. http://toxnet.nlm.nih.gov/cgi-bin/sis/search/r?dbs+hsdb:@term+@rn+@rel+127-18-4
   9. http://toxnet.nlm.nih.gov/cgi-bin/sis/search/r?dbs+hsdb:@term+@rn+@rel+127-18-4
  10. http://toxnet.nlm.nih.gov/cgi-bin/sis/search/r?dbs+hsdb:@term+@rn+@rel+127-18-4
  11. http://toxnet.nlm.nih.gov/cgi-bin/sis/search/r?dbs+hsdb:@term+@rn+@rel+127-18-4
  12. http://toxnet.nlm.nih.gov/cgi-bin/sis/search/r?dbs+hsdb:@term+@rn+@rel+127-18-4
  13. http://toxnet.nlm.nih.gov/cgi-bin/sis/search/r?dbs+hsdb:@term+@rn+@rel+127-18-4
  14. http://toxnet.nlm.nih.gov/cgi-bin/sis/search/r?dbs+hsdb:@term+@rn+@rel+127-18-4
  15. http://toxnet.nlm.nih.gov/cgi-bin/sis/search/r?dbs+hsdb:@term+@rn+@rel+127-18-4
  16. http://toxnet.nlm.nih.gov/cgi-bin/sis/search/r?dbs+hsdb:@term+@rn+@rel+127-18-4
  17. http://toxnet.nlm.nih.gov/cgi-bin/sis/search/r?dbs+hsdb:@term+@rn+@rel+127-18-4
  18. http://www.ncbi.nlm.nih.gov/entrez/query.fcgi?cmd=Retrieve&db=pubmed&dopt=Abstract&list_uids=3299685
  19. http://toxnet.nlm.nih.gov/cgi-bin/sis/search/r?dbs+hsdb:@term+@rn+@rel+127-18-4
  20. http://pubchem.ncbi.nlm.nih.gov/vw3d/vw3d.cgi?cid=31373
