   Boiling Point
        276.5 deg C
   from [1]HSDB

   Melting Point
        <-20 deg C
   from [2]HSDB

   Density/Specific Gravity
        1.1416 at 20 deg C g/cu cm
   from [3]HSDB

   Octanol/Water Partition Coefficient
        log Kow = 3.53 (est)
   from [4]HSDB

   Solubilities

     * In water, 46.4 mg/L at 25 deg C (est)
     * Insoluble in water, slightly soluble in ethanol, soluble in ether
       and benzene.

   from [5]HSDB

   Spectral Properties

     * Index of refraction = 1.5403 at 20 deg C/D
     * MASS: 8357 (NIST/EPA/MSDC Mass Spectral database, 1990 version)

   from [6]HSDB

   Vapor Pressure
        6.46X10-3 mm Hg at 25 deg C (est)
   from [7]HSDB

   Other Chemical/Physical Properties

     * Henry's Law constant = 5.37X10-7 atm-cu m/mol at 25 deg C (est)
     * Hydroxyl radical reaction rate constant = 2.30X10-10 cu
       cm/molec-sec at 25 deg C (est)
     * 0.183 kPa at 100 deg C (1.3725 mm Hg)

   from [8]HSDB

   Computed Properties
   Molecular Weight                  192.21118 [g/mol]
   Molecular Formula                 C[11]H[12]O[3]
   XLogP3                            2.9
   H-Bond Donor                      0
   H-Bond Acceptor                   3
   Rotatable Bond Count              3
   Exact Mass                        192.078644
   MonoIsotopic Mass                 192.078644
   Topological Polar Surface Area    27.7
   Heavy Atom Count                  14
   Formal Charge                     0
   Complexity                        205
   Isotope Atom Count                0
   Defined Atom Stereocenter Count   0
   Undefined Atom Stereocenter Count 0
   Defined Bond Stereocenter Count   0
   Undefined Bond Stereocenter Count 0
   Covalently-Bonded Unit Count      1
   Feature 3D Acceptor Count         3
   Feature 3D Hydrophobe Count       1
   Feature 3D Ring Count             2
   Effective Rotor Count             3.6
   Conformer Sampling RMSD           0.6
   CID Conformer Count               [9]8

References

   1. http://toxnet.nlm.nih.gov/cgi-bin/sis/search/r?dbs+hsdb:@term+@rn+@rel+607-91-0
   2. http://toxnet.nlm.nih.gov/cgi-bin/sis/search/r?dbs+hsdb:@term+@rn+@rel+607-91-0
   3. http://toxnet.nlm.nih.gov/cgi-bin/sis/search/r?dbs+hsdb:@term+@rn+@rel+607-91-0
   4. http://toxnet.nlm.nih.gov/cgi-bin/sis/search/r?dbs+hsdb:@term+@rn+@rel+607-91-0
   5. http://toxnet.nlm.nih.gov/cgi-bin/sis/search/r?dbs+hsdb:@term+@rn+@rel+607-91-0
   6. http://toxnet.nlm.nih.gov/cgi-bin/sis/search/r?dbs+hsdb:@term+@rn+@rel+607-91-0
   7. http://toxnet.nlm.nih.gov/cgi-bin/sis/search/r?dbs+hsdb:@term+@rn+@rel+607-91-0
   8. http://toxnet.nlm.nih.gov/cgi-bin/sis/search/r?dbs+hsdb:@term+@rn+@rel+607-91-0
   9. http://pubchem.ncbi.nlm.nih.gov/vw3d/vw3d.cgi?cid=4276
