5908
  -OEChem-06261200582D

 23 21  0     0  0  0  0  0  0999 V2000
    5.4641    1.0000    0.0000 Hg  0  3  0  0  0  0  0  0  0  0  0  0
    4.5981    0.5000    0.0000 S   0  5  0  0  0  0  0  0  0  0  0  0
    3.7320    1.0000    0.0000 Na  0  3  0  0  0  0  0  0  0  0  0  0
    2.0000   -1.0000    0.0000 O   0  5  0  0  0  0  0  0  0  0  0  0
    2.8660    0.5000    0.0000 O   0  0  0  0  0  0  0  0  0  0  0  0
    4.5981   -0.5000    0.0000 C   0  0  0  0  0  0  0  0  0  0  0  0
    3.7320   -1.0000    0.0000 C   0  0  0  0  0  0  0  0  0  0  0  0
    5.4641   -1.0000    0.0000 C   0  0  0  0  0  0  0  0  0  0  0  0
    3.7320   -2.0000    0.0000 C   0  0  0  0  0  0  0  0  0  0  0  0
    5.4641   -2.0000    0.0000 C   0  0  0  0  0  0  0  0  0  0  0  0
    4.5981   -2.5000    0.0000 C   0  0  0  0  0  0  0  0  0  0  0  0
    5.4641    2.0000    0.0000 C   0  0  0  0  0  0  0  0  0  0  0  0
    6.3301    2.5000    0.0000 C   0  0  0  0  0  0  0  0  0  0  0  0
    2.8660   -0.5000    0.0000 C   0  0  0  0  0  0  0  0  0  0  0  0
    6.0010   -0.6900    0.0000 H   0  0  0  0  0  0  0  0  0  0  0  0
    3.1951   -2.3100    0.0000 H   0  0  0  0  0  0  0  0  0  0  0  0
    6.0010   -2.3100    0.0000 H   0  0  0  0  0  0  0  0  0  0  0  0
    4.5981   -3.1200    0.0000 H   0  0  0  0  0  0  0  0  0  0  0  0
    5.2520    2.5826    0.0000 H   0  0  0  0  0  0  0  0  0  0  0  0
    4.8535    1.8923    0.0000 H   0  0  0  0  0  0  0  0  0  0  0  0
    6.6401    1.9631    0.0000 H   0  0  0  0  0  0  0  0  0  0  0  0
    6.8671    2.8100    0.0000 H   0  0  0  0  0  0  0  0  0  0  0  0
    6.0201    3.0369    0.0000 H   0  0  0  0  0  0  0  0  0  0  0  0
  1 12  1  0  0  0  0
  2  6  1  0  0  0  0
  4 14  1  0  0  0  0
  5 14  2  0  0  0  0
  6  7  1  0  0  0  0
  6  8  2  0  0  0  0
  7  9  2  0  0  0  0
  7 14  1  0  0  0  0
  8 10  1  0  0  0  0
  8 15  1  0  0  0  0
  9 11  1  0  0  0  0
  9 16  1  0  0  0  0
 10 11  2  0  0  0  0
 10 17  1  0  0  0  0
 11 18  1  0  0  0  0
 12 13  1  0  0  0  0
 12 19  1  0  0  0  0
 12 20  1  0  0  0  0
 13 21  1  0  0  0  0
 13 22  1  0  0  0  0
 13 23  1  0  0  0  0
M  CHG  4   1   1   2  -1   3   1   4  -1
M  END
> <PUBCHEM_COMPOUND_CID>
5908

> <PUBCHEM_COMPOUND_CANONICALIZED>
1

> <PUBCHEM_CACTVS_COMPLEXITY>
147

> <PUBCHEM_CACTVS_HBOND_ACCEPTOR>
3

> <PUBCHEM_CACTVS_HBOND_DONOR>
0

> <PUBCHEM_CACTVS_ROTATABLE_BOND>
1

> <PUBCHEM_CACTVS_SUBSKEYS>
AAADccBwMCBAAAAAAAAAAQAAAAAAAAAAAAAwAAAAAAAAAAABAAAAGgQAAAAADACA2AAyCYAAAACIAiDSCAACAAAkAAAIiBkACMgIJjKAFRCAMQAkwAEIiYeIyCCOAAAAAAAEAAAAAAAAAAgAAAAAAAAAAA==

> <PUBCHEM_IUPAC_OPENEYE_NAME>
sodium; ethylmercury(1+); 2-sulfidobenzoate

> <PUBCHEM_IUPAC_CAS_NAME>
sodium; ethylmercury(1+); 2-sulfidobenzoate

> <PUBCHEM_IUPAC_NAME>
sodium; ethylmercury(1+); 2-sulfidobenzoate

> <PUBCHEM_IUPAC_SYSTEMATIC_NAME>
sodium; ethylmercury(1+); 2-sulfanidylbenzoate

> <PUBCHEM_IUPAC_TRADITIONAL_NAME>
sodium; ethylmercury(1+); 2-sulfidobenzoate

> <PUBCHEM_IUPAC_INCHI>
InChI=1S/C7H6O2S.C2H5.Hg.Na/c8-7(9)5-3-1-2-4-6(5)10;1-2;;/h1-4,10H,(H,8,9);1H2,2H3;;/q;;2*+1/p-2

> <PUBCHEM_IUPAC_INCHIKEY>
RTKIYNMVFMVABJ-UHFFFAOYSA-L

> <PUBCHEM_EXACT_MASS>
405.992738

> <PUBCHEM_MOLECULAR_FORMULA>
C9H9HgNaO2S

> <PUBCHEM_MOLECULAR_WEIGHT>
404.811329

> <PUBCHEM_OPENEYE_CAN_SMILES>
CC[Hg+].C1=CC=C(C(=C1)C(=O)[O-])[S-].[Na+]

> <PUBCHEM_OPENEYE_ISO_SMILES>
CC[Hg+].C1=CC=C(C(=C1)C(=O)[O-])[S-].[Na+]

> <PUBCHEM_CACTVS_TPSA>
41.1

> <PUBCHEM_MONOISOTOPIC_WEIGHT>
405.992738

> <PUBCHEM_TOTAL_CHARGE>
0

> <PUBCHEM_HEAVY_ATOM_COUNT>
14

> <PUBCHEM_ATOM_DEF_STEREO_COUNT>
0

> <PUBCHEM_ATOM_UDEF_STEREO_COUNT>
0

> <PUBCHEM_BOND_DEF_STEREO_COUNT>
0

> <PUBCHEM_BOND_UDEF_STEREO_COUNT>
0

> <PUBCHEM_ISOTOPIC_ATOM_COUNT>
0

> <PUBCHEM_COMPONENT_COUNT>
3

> <PUBCHEM_CACTVS_TAUTO_COUNT>
1

> <PUBCHEM_NONSTANDARDBOND>
1  2  6

> <PUBCHEM_COORDINATE_TYPE>
1
5
255

> <PUBCHEM_BONDANNOTATIONS>
10  11  8
6  7  8
6  8  8
7  9  8
8  10  8
9  11  8

$$$$

