   Odor
        Characteristic aromatic; like benzene, like toluene
   from [1]HSDB

   Boiling Point
        183.7 deg C
   from [2]HSDB

   Melting Point
        -42.83 deg C
   from [3]HSDB

   Critical Temperature and Pressure
        Critical temperature: 657.90 K; Critical pressure: 2.8X10+6 Pa
   from [4]HSDB

   Density/Specific Gravity
        0.8620 @ 20 deg C/4 deg C
   from [5]HSDB

   Heat of Vaporization
        5.5X10+7J/kmol @ 230.32 K
   from [6]HSDB

   Octanol/Water Partition Coefficient
        log Kow= 4.45
   from [7]HSDB

   Solubilities

     * Miscible in ethanol, ethyl ether and acetone
     * Soluble in alcohol, benzene, carbon tetrachloride, ether.
       /Diethylbenzene/
     * In water, 24.8 mg/l @ 25 deg C.

   from [8]HSDB

   Spectral Properties

     * Index of refraction: 1.4967 @ 20 deg C/D
     * MAX ABSORPTION (ISOOCTANE): 259 NM (LOG E= 2.47); 265 NM (LOG E=
       2.60); MAX ABSORPTION (ISOOCTANE): 267 NM (LOG E= 2.58); 273 NM
       (LOG E= 2.62)
     * IR: 6326 (Coblentz Society Spectral Collection)
     * UV: 8529 (Sadtler Research Laboratories Spectral Collection)
     * MASS: 669 (Atlas of Mass Spectral Data, John Wiley & Sons, New
       York)

   from [9]HSDB

   Surface Tension
        3.6X10-2 N/m @ 230.32 K
   from [10]HSDB

   Vapor Pressure
        1.03 mm Hg @ 25 deg C
   from [11]HSDB

   Viscosity
        3.6X10-3 Pa.s @ 230.32 K
   from [12]HSDB

   Other Chemical/Physical Properties

     * Colorless liquid; wt/gallon: 7.22 lb. /Isomeric mixt/
     * CAN REACT WITH OXIDIZING MATERIALS; VAPOR PRESSURE: 1 MM HG AT 20.7
       DEG C /MIXT OF ISOMERS/

   from [13]HSDB

   Computed Properties
   Molecular Weight                  134.21816 [g/mol]
   Molecular Formula                 C[10]H[14]
   XLogP3-AA                         3.5
   H-Bond Donor                      0
   H-Bond Acceptor                   0
   Rotatable Bond Count              2
   Exact Mass                        134.10955
   MonoIsotopic Mass                 134.10955
   Topological Polar Surface Area    0
   Heavy Atom Count                  10
   Formal Charge                     0
   Complexity                        66
   Isotope Atom Count                0
   Defined Atom Stereocenter Count   0
   Undefined Atom Stereocenter Count 0
   Defined Bond Stereocenter Count   0
   Undefined Bond Stereocenter Count 0
   Covalently-Bonded Unit Count      1
   Feature 3D Hydrophobe Count       2
   Feature 3D Ring Count             1
   Effective Rotor Count             2
   Conformer Sampling RMSD           0.4
   CID Conformer Count               [14]6

References

   1. http://toxnet.nlm.nih.gov/cgi-bin/sis/search/r?dbs+hsdb:@term+@rn+@rel+105-05-5
   2. http://toxnet.nlm.nih.gov/cgi-bin/sis/search/r?dbs+hsdb:@term+@rn+@rel+105-05-5
   3. http://toxnet.nlm.nih.gov/cgi-bin/sis/search/r?dbs+hsdb:@term+@rn+@rel+105-05-5
   4. http://toxnet.nlm.nih.gov/cgi-bin/sis/search/r?dbs+hsdb:@term+@rn+@rel+105-05-5
   5. http://toxnet.nlm.nih.gov/cgi-bin/sis/search/r?dbs+hsdb:@term+@rn+@rel+105-05-5
   6. http://toxnet.nlm.nih.gov/cgi-bin/sis/search/r?dbs+hsdb:@term+@rn+@rel+105-05-5
   7. http://toxnet.nlm.nih.gov/cgi-bin/sis/search/r?dbs+hsdb:@term+@rn+@rel+105-05-5
   8. http://toxnet.nlm.nih.gov/cgi-bin/sis/search/r?dbs+hsdb:@term+@rn+@rel+105-05-5
   9. http://toxnet.nlm.nih.gov/cgi-bin/sis/search/r?dbs+hsdb:@term+@rn+@rel+105-05-5
  10. http://toxnet.nlm.nih.gov/cgi-bin/sis/search/r?dbs+hsdb:@term+@rn+@rel+105-05-5
  11. http://toxnet.nlm.nih.gov/cgi-bin/sis/search/r?dbs+hsdb:@term+@rn+@rel+105-05-5
  12. http://toxnet.nlm.nih.gov/cgi-bin/sis/search/r?dbs+hsdb:@term+@rn+@rel+105-05-5
  13. http://toxnet.nlm.nih.gov/cgi-bin/sis/search/r?dbs+hsdb:@term+@rn+@rel+105-05-5
  14. http://pubchem.ncbi.nlm.nih.gov/vw3d/vw3d.cgi?cid=7734
