46173985
  -OEChem-07051213102D

 81 84  0     1  0  0  0  0  0999 V2000
    7.7890    3.4997    0.0000 O   0  0  0  0  0  0  0  0  0  0  0  0
    3.7012   -0.7952    0.0000 O   0  0  0  0  0  0  0  0  0  0  0  0
   12.1264    2.6361    0.0000 O   0  0  0  0  0  0  0  0  0  0  0  0
    9.2229    4.4007    0.0000 O   0  0  0  0  0  0  0  0  0  0  0  0
    4.8874   -3.1601    0.0000 O   0  0  0  0  0  0  0  0  0  0  0  0
    6.5883    0.1303    0.0000 C   0  0  1  0  0  0  0  0  0  0  0  0
    6.5184    1.1696    0.0000 C   0  0  3  0  0  0  0  0  0  0  0  0
    7.3880    1.7430    0.0000 C   0  0  3  0  0  0  0  0  0  0  0  0
    8.2890    1.3091    0.0000 C   0  0  3  0  0  0  0  0  0  0  0  0
    5.6262   -0.2525    0.0000 C   0  0  3  0  0  0  0  0  0  0  0  0
    9.1900    1.7430    0.0000 C   0  0  2  0  0  0  0  0  0  0  0  0
    7.5268   -0.3217    0.0000 C   0  0  0  0  0  0  0  0  0  0  0  0
    5.5138    1.4202    0.0000 C   0  0  0  0  0  0  0  0  0  0  0  0
    8.3828    0.2717    0.0000 C   0  0  0  0  0  0  0  0  0  0  0  0
    4.9634    0.5431    0.0000 C   0  0  0  0  0  0  0  0  0  0  0  0
    5.3799   -1.2217    0.0000 C   0  0  1  0  0  0  0  0  0  0  0  0
    9.4125    2.7179    0.0000 C   0  0  3  0  0  0  0  0  0  0  0  0
    6.6553   -0.8675    0.0000 C   0  0  0  0  0  0  0  0  0  0  0  0
    7.1655    2.7179    0.0000 C   0  0  0  0  0  0  0  0  0  0  0  0
    9.9425    1.0228    0.0000 C   0  0  0  0  0  0  0  0  0  0  0  0
    8.9674    0.7681    0.0000 C   0  0  0  0  0  0  0  0  0  0  0  0
   10.4030    3.0402    0.0000 C   0  0  0  0  0  0  0  0  0  0  0  0
   10.9402    1.3222    0.0000 C   0  0  0  0  0  0  0  0  0  0  0  0
    4.4174   -1.4931    0.0000 C   0  0  2  0  0  0  0  0  0  0  0  0
   11.1720    2.3377    0.0000 C   0  0  1  0  0  0  0  0  0  0  0  0
    8.7890    3.4997    0.0000 C   0  0  0  0  0  0  0  0  0  0  0  0
    6.0962   -1.9196    0.0000 C   0  0  0  0  0  0  0  0  0  0  0  0
    4.1712   -2.4623    0.0000 C   0  0  1  0  0  0  0  0  0  0  0  0
    3.2087   -2.7336    0.0000 C   0  0  2  0  0  0  0  0  0  0  0  0
    2.9625   -3.7028    0.0000 C   0  0  0  0  0  0  0  0  0  0  0  0
    2.4925   -2.0358    0.0000 C   0  0  0  0  0  0  0  0  0  0  0  0
    2.0000   -3.9742    0.0000 C   0  0  0  0  0  0  0  0  0  0  0  0
    3.6787   -4.4007    0.0000 C   0  0  0  0  0  0  0  0  0  0  0  0
    6.4140    1.7807    0.0000 H   0  0  0  0  0  0  0  0  0  0  0  0
    7.8728    2.1295    0.0000 H   0  0  0  0  0  0  0  0  0  0  0  0
    8.8283    1.0032    0.0000 H   0  0  0  0  0  0  0  0  0  0  0  0
    5.0215   -0.3896    0.0000 H   0  0  0  0  0  0  0  0  0  0  0  0
    7.1661   -0.8260    0.0000 H   0  0  0  0  0  0  0  0  0  0  0  0
    7.9619   -0.7633    0.0000 H   0  0  0  0  0  0  0  0  0  0  0  0
    5.7262    2.0026    0.0000 H   0  0  0  0  0  0  0  0  0  0  0  0
    4.9569    1.6927    0.0000 H   0  0  0  0  0  0  0  0  0  0  0  0
    8.6436   -0.2908    0.0000 H   0  0  0  0  0  0  0  0  0  0  0  0
    8.9816    0.4324    0.0000 H   0  0  0  0  0  0  0  0  0  0  0  0
    4.4758    0.9260    0.0000 H   0  0  0  0  0  0  0  0  0  0  0  0
    4.5314    0.0984    0.0000 H   0  0  0  0  0  0  0  0  0  0  0  0
    5.2272   -1.8226    0.0000 H   0  0  0  0  0  0  0  0  0  0  0  0
    9.5907    3.3118    0.0000 H   0  0  0  0  0  0  0  0  0  0  0  0
    6.0367   -0.9091    0.0000 H   0  0  0  0  0  0  0  0  0  0  0  0
    6.6969   -1.4861    0.0000 H   0  0  0  0  0  0  0  0  0  0  0  0
    7.2739   -0.8259    0.0000 H   0  0  0  0  0  0  0  0  0  0  0  0
    6.7789    3.2026    0.0000 H   0  0  0  0  0  0  0  0  0  0  0  0
    6.6069    2.4489    0.0000 H   0  0  0  0  0  0  0  0  0  0  0  0
    9.4435    0.6548    0.0000 H   0  0  0  0  0  0  0  0  0  0  0  0
   10.2197    0.4682    0.0000 H   0  0  0  0  0  0  0  0  0  0  0  0
    8.3630    0.9060    0.0000 H   0  0  0  0  0  0  0  0  0  0  0  0
    8.8295    0.1636    0.0000 H   0  0  0  0  0  0  0  0  0  0  0  0
    9.5719    0.6301    0.0000 H   0  0  0  0  0  0  0  0  0  0  0  0
   10.8933    3.4197    0.0000 H   0  0  0  0  0  0  0  0  0  0  0  0
   10.1131    3.5883    0.0000 H   0  0  0  0  0  0  0  0  0  0  0  0
   11.0141    0.7066    0.0000 H   0  0  0  0  0  0  0  0  0  0  0  0
   11.5594    1.2896    0.0000 H   0  0  0  0  0  0  0  0  0  0  0  0
    3.8207   -1.6613    0.0000 H   0  0  0  0  0  0  0  0  0  0  0  0
   11.3065    2.9429    0.0000 H   0  0  0  0  0  0  0  0  0  0  0  0
    5.6635   -2.3636    0.0000 H   0  0  0  0  0  0  0  0  0  0  0  0
    6.5402   -2.3522    0.0000 H   0  0  0  0  0  0  0  0  0  0  0  0
    6.5288   -1.4755    0.0000 H   0  0  0  0  0  0  0  0  0  0  0  0
    4.7679   -2.2940    0.0000 H   0  0  0  0  0  0  0  0  0  0  0  0
    3.3614   -2.1327    0.0000 H   0  0  0  0  0  0  0  0  0  0  0  0
    3.1045   -0.9635    0.0000 H   0  0  0  0  0  0  0  0  0  0  0  0
   12.5825    2.2162    0.0000 H   0  0  0  0  0  0  0  0  0  0  0  0
    2.8098   -4.3038    0.0000 H   0  0  0  0  0  0  0  0  0  0  0  0
    4.7348   -3.7611    0.0000 H   0  0  0  0  0  0  0  0  0  0  0  0
    2.9252   -1.5917    0.0000 H   0  0  0  0  0  0  0  0  0  0  0  0
    2.0484   -1.6031    0.0000 H   0  0  0  0  0  0  0  0  0  0  0  0
    2.0598   -2.4799    0.0000 H   0  0  0  0  0  0  0  0  0  0  0  0
    1.8318   -3.3775    0.0000 H   0  0  0  0  0  0  0  0  0  0  0  0
    1.4033   -4.1424    0.0000 H   0  0  0  0  0  0  0  0  0  0  0  0
    2.1682   -4.5710    0.0000 H   0  0  0  0  0  0  0  0  0  0  0  0
    3.2460   -4.8448    0.0000 H   0  0  0  0  0  0  0  0  0  0  0  0
    4.1228   -4.8334    0.0000 H   0  0  0  0  0  0  0  0  0  0  0  0
    4.1114   -3.9566    0.0000 H   0  0  0  0  0  0  0  0  0  0  0  0
  1 19  1  0  0  0  0
  1 26  1  0  0  0  0
 24  2  1  6  0  0  0
  2 69  1  0  0  0  0
 25  3  1  6  0  0  0
  3 70  1  0  0  0  0
  4 26  2  0  0  0  0
 28  5  1  6  0  0  0
  5 72  1  0  0  0  0
  6  7  1  0  0  0  0
  6 10  1  0  0  0  0
  6 12  1  0  0  0  0
  6 18  1  1  0  0  0
  7  8  1  0  0  0  0
  7 13  1  0  0  0  0
  7 34  1  0  0  0  0
  8  9  1  0  0  0  0
  8 19  1  0  0  0  0
  8 35  1  0  0  0  0
  9 11  1  0  0  0  0
  9 14  1  0  0  0  0
  9 36  1  0  0  0  0
 10 15  1  0  0  0  0
 10 16  1  0  0  0  0
 10 37  1  0  0  0  0
 11 17  1  0  0  0  0
 11 20  1  0  0  0  0
 11 21  1  1  0  0  0
 12 14  1  0  0  0  0
 12 38  1  0  0  0  0
 12 39  1  0  0  0  0
 13 15  1  0  0  0  0
 13 40  1  0  0  0  0
 13 41  1  0  0  0  0
 14 42  1  0  0  0  0
 14 43  1  0  0  0  0
 15 44  1  0  0  0  0
 15 45  1  0  0  0  0
 16 24  1  0  0  0  0
 16 27  1  6  0  0  0
 16 46  1  0  0  0  0
 17 22  1  0  0  0  0
 17 26  1  0  0  0  0
 17 47  1  0  0  0  0
 18 48  1  0  0  0  0
 18 49  1  0  0  0  0
 18 50  1  0  0  0  0
 19 51  1  0  0  0  0
 19 52  1  0  0  0  0
 20 23  1  0  0  0  0
 20 53  1  0  0  0  0
 20 54  1  0  0  0  0
 21 55  1  0  0  0  0
 21 56  1  0  0  0  0
 21 57  1  0  0  0  0
 22 25  1  0  0  0  0
 22 58  1  0  0  0  0
 22 59  1  0  0  0  0
 23 25  1  0  0  0  0
 23 60  1  0  0  0  0
 23 61  1  0  0  0  0
 24 28  1  0  0  0  0
 24 62  1  0  0  0  0
 25 63  1  0  0  0  0
 27 64  1  0  0  0  0
 27 65  1  0  0  0  0
 27 66  1  0  0  0  0
 28 29  1  0  0  0  0
 28 67  1  0  0  0  0
 29 30  1  0  0  0  0
 29 31  1  6  0  0  0
 29 68  1  0  0  0  0
 30 32  1  0  0  0  0
 30 33  1  0  0  0  0
 30 71  1  0  0  0  0
 31 73  1  0  0  0  0
 31 74  1  0  0  0  0
 31 75  1  0  0  0  0
 32 76  1  0  0  0  0
 32 77  1  0  0  0  0
 32 78  1  0  0  0  0
 33 79  1  0  0  0  0
 33 80  1  0  0  0  0
 33 81  1  0  0  0  0
M  END
> <PUBCHEM_COMPOUND_CID>
46173985

> <PUBCHEM_COMPOUND_CANONICALIZED>
1

> <PUBCHEM_CACTVS_COMPLEXITY>
723

> <PUBCHEM_CACTVS_HBOND_ACCEPTOR>
5

> <PUBCHEM_CACTVS_HBOND_DONOR>
3

> <PUBCHEM_CACTVS_ROTATABLE_BOND>
5

> <PUBCHEM_CACTVS_SUBSKEYS>
AAADcfB4OAAAAAAAAAAAAAAAAAAAAYAAAAAwYAAABIAAAGAAAAAAGgAACAAADxSggAICCAAABgAIAACQCAAAAAAAAAAAAAEAAAABEBIAAAACQAAEAAABAAHKyPCPgAAAAAAAAADAAAYAACAAAQAACAAAAA==

> <PUBCHEM_IUPAC_INCHI>
InChI=1S/C28H48O5/c1-15(2)16(3)24(30)25(31)17(4)20-7-8-21-19-14-33-26(32)23-13-18(29)9-11-28(23,6)22(19)10-12-27(20,21)5/h15-25,29-31H,7-14H2,1-6H3/t16-,17-,18+,19?,20?,21?,22?,23?,24+,25+,27+,28+/m0/s1

> <PUBCHEM_IUPAC_INCHIKEY>
LLFIMDUWAVPJEJ-IPLAFFEMSA-N

> <PUBCHEM_XLOGP3_AA>
5.8

> <PUBCHEM_EXACT_MASS>
464.350175

> <PUBCHEM_MOLECULAR_FORMULA>
C28H48O5

> <PUBCHEM_MOLECULAR_WEIGHT>
464.67772

> <PUBCHEM_OPENEYE_CAN_SMILES>
CC(C)C(C)C(C(C(C)C1CCC2C1(CCC3C2COC(=O)C4C3(CCC(C4)O)C)C)O)O

> <PUBCHEM_OPENEYE_ISO_SMILES>
C[C@@H](C1CCC2[C@@]1(CCC3C2COC(=O)C4[C@@]3(CC[C@H](C4)O)C)C)[C@H]([C@@H]([C@@H](C)C(C)C)O)O

> <PUBCHEM_CACTVS_TPSA>
87

> <PUBCHEM_MONOISOTOPIC_WEIGHT>
464.350175

> <PUBCHEM_TOTAL_CHARGE>
0

> <PUBCHEM_HEAVY_ATOM_COUNT>
33

> <PUBCHEM_ATOM_DEF_STEREO_COUNT>
7

> <PUBCHEM_ATOM_UDEF_STEREO_COUNT>
5

> <PUBCHEM_BOND_DEF_STEREO_COUNT>
0

> <PUBCHEM_BOND_UDEF_STEREO_COUNT>
0

> <PUBCHEM_ISOTOPIC_ATOM_COUNT>
0

> <PUBCHEM_COMPONENT_COUNT>
1

> <PUBCHEM_CACTVS_TAUTO_COUNT>
2

> <PUBCHEM_COORDINATE_TYPE>
1
5
255

> <PUBCHEM_BONDANNOTATIONS>
10  15  3
11  21  5
16  27  6
17  26  3
24  2  6
29  31  6
25  3  6
28  5  6
6  18  5
7  13  3
8  19  3
9  14  3

$$$$

