   Color/Form

     * Colorless oil
     * Liquid (or colorless gas at elevated temperatures)

   from [1]HSDB

   Odor

     * Disagreeable, sweetish odor
     * Unpleasant odor

   from [2]HSDB

   Boiling Point
        33 deg C
   from [3]HSDB

   Melting Point
        -66 to -64 deg C
   from [4]HSDB

   Density/Specific Gravity
        1.261 at 20 deg C
   from [5]HSDB

   Octanol/Water Partition Coefficient
        log Kow = 1.1 /Estimated/
   from [6]HSDB

   Solubilities
        Insoluble in water; soluble in ethanol, diethyl ether and acetone
   from [7]HSDB

   Vapor Pressure
        570 mm Hg @ 25 deg C /Estimated/
   from [8]HSDB

   Other Chemical/Physical Properties

     * Volatile liquid
     * Henry's Law constant = 2.0X10-2 atm-cu m/mole @ 25 deg C
       /Estimated/
     * Hydroxyl radical reaction rate constant = 1.2X10-12 cu
       cm/molecule-sec @ 25 deg C /Estimated/
     * Ozone rate constant = 0.000061X10-17 cu cm/molecule-sec @ 25 deg C
       /Estimated/

   from [9]HSDB

   Computed Properties
   Molecular Weight                  94.9274 [g/mol]
   Molecular Formula                 C[2]Cl[2]
   XLogP3-AA                         2.3
   H-Bond Donor                      0
   H-Bond Acceptor                   0
   Rotatable Bond Count              0
   Exact Mass                        93.937705
   MonoIsotopic Mass                 93.937705
   Topological Polar Surface Area    0
   Heavy Atom Count                  4
   Formal Charge                     0
   Complexity                        46.9
   Isotope Atom Count                0
   Defined Atom Stereocenter Count   0
   Undefined Atom Stereocenter Count 0
   Defined Bond Stereocenter Count   0
   Undefined Bond Stereocenter Count 0
   Covalently-Bonded Unit Count      1
   Effective Rotor Count             0
   Conformer Sampling RMSD           0.4
   CID Conformer Count               [10]1

References

   1. http://toxnet.nlm.nih.gov/cgi-bin/sis/search/r?dbs+hsdb:@term+@rn+@rel+7572-29-4
   2. http://toxnet.nlm.nih.gov/cgi-bin/sis/search/r?dbs+hsdb:@term+@rn+@rel+7572-29-4
   3. http://toxnet.nlm.nih.gov/cgi-bin/sis/search/r?dbs+hsdb:@term+@rn+@rel+7572-29-4
   4. http://toxnet.nlm.nih.gov/cgi-bin/sis/search/r?dbs+hsdb:@term+@rn+@rel+7572-29-4
   5. http://toxnet.nlm.nih.gov/cgi-bin/sis/search/r?dbs+hsdb:@term+@rn+@rel+7572-29-4
   6. http://toxnet.nlm.nih.gov/cgi-bin/sis/search/r?dbs+hsdb:@term+@rn+@rel+7572-29-4
   7. http://toxnet.nlm.nih.gov/cgi-bin/sis/search/r?dbs+hsdb:@term+@rn+@rel+7572-29-4
   8. http://toxnet.nlm.nih.gov/cgi-bin/sis/search/r?dbs+hsdb:@term+@rn+@rel+7572-29-4
   9. http://toxnet.nlm.nih.gov/cgi-bin/sis/search/r?dbs+hsdb:@term+@rn+@rel+7572-29-4
  10. http://pubchem.ncbi.nlm.nih.gov/vw3d/vw3d.cgi?cid=24227
