5358
  -OEChem-07051212532D

 41 42  0     0  0  0  0  0  0999 V2000
    3.7320   -0.6311    0.0000 S   0  0  0  0  0  0  0  0  0  0  0  0
    3.2320    0.2349    0.0000 O   0  0  0  0  0  0  0  0  0  0  0  0
    4.2320   -1.4971    0.0000 O   0  0  0  0  0  0  0  0  0  0  0  0
    8.1424   -1.9358    0.0000 N   0  0  0  0  0  0  0  0  0  0  0  0
    9.7422    1.7809    0.0000 N   0  0  0  0  0  0  0  0  0  0  0  0
    2.8660   -1.1311    0.0000 N   0  0  0  0  0  0  0  0  0  0  0  0
    8.1424   -0.3264    0.0000 C   0  0  0  0  0  0  0  0  0  0  0  0
    7.1962   -0.6311    0.0000 C   0  0  0  0  0  0  0  0  0  0  0  0
    8.4530    0.6241    0.0000 C   0  0  0  0  0  0  0  0  0  0  0  0
    7.1962   -1.6311    0.0000 C   0  0  0  0  0  0  0  0  0  0  0  0
    5.4641   -0.6311    0.0000 C   0  0  0  0  0  0  0  0  0  0  0  0
    9.4315    0.8304    0.0000 C   0  0  0  0  0  0  0  0  0  0  0  0
    6.3301   -0.1311    0.0000 C   0  0  0  0  0  0  0  0  0  0  0  0
    8.7260   -1.1311    0.0000 C   0  0  0  0  0  0  0  0  0  0  0  0
    4.5981   -0.1311    0.0000 C   0  0  0  0  0  0  0  0  0  0  0  0
    6.3301   -2.1311    0.0000 C   0  0  0  0  0  0  0  0  0  0  0  0
    5.4641   -1.6311    0.0000 C   0  0  0  0  0  0  0  0  0  0  0  0
   10.7207    1.9871    0.0000 C   0  0  0  0  0  0  0  0  0  0  0  0
    9.0744    2.5252    0.0000 C   0  0  0  0  0  0  0  0  0  0  0  0
    2.0000   -0.6311    0.0000 C   0  0  0  0  0  0  0  0  0  0  0  0
    8.4325    1.2438    0.0000 H   0  0  0  0  0  0  0  0  0  0  0  0
    7.8392    0.7115    0.0000 H   0  0  0  0  0  0  0  0  0  0  0  0
    9.4521    0.2107    0.0000 H   0  0  0  0  0  0  0  0  0  0  0  0
   10.0454    0.7430    0.0000 H   0  0  0  0  0  0  0  0  0  0  0  0
    6.3301    0.4889    0.0000 H   0  0  0  0  0  0  0  0  0  0  0  0
    9.3460   -1.1311    0.0000 H   0  0  0  0  0  0  0  0  0  0  0  0
    4.9966    0.3438    0.0000 H   0  0  0  0  0  0  0  0  0  0  0  0
    4.1996    0.3438    0.0000 H   0  0  0  0  0  0  0  0  0  0  0  0
    8.3350   -2.5252    0.0000 H   0  0  0  0  0  0  0  0  0  0  0  0
    6.3301   -2.7511    0.0000 H   0  0  0  0  0  0  0  0  0  0  0  0
    4.9272   -1.9411    0.0000 H   0  0  0  0  0  0  0  0  0  0  0  0
   10.8486    1.3804    0.0000 H   0  0  0  0  0  0  0  0  0  0  0  0
   11.3274    2.1150    0.0000 H   0  0  0  0  0  0  0  0  0  0  0  0
   10.5929    2.5938    0.0000 H   0  0  0  0  0  0  0  0  0  0  0  0
    9.5358    2.9392    0.0000 H   0  0  0  0  0  0  0  0  0  0  0  0
    8.6603    2.9866    0.0000 H   0  0  0  0  0  0  0  0  0  0  0  0
    8.6129    2.1111    0.0000 H   0  0  0  0  0  0  0  0  0  0  0  0
    2.8660   -1.7511    0.0000 H   0  0  0  0  0  0  0  0  0  0  0  0
    2.3100   -0.0942    0.0000 H   0  0  0  0  0  0  0  0  0  0  0  0
    1.4631   -0.3211    0.0000 H   0  0  0  0  0  0  0  0  0  0  0  0
    1.6900   -1.1680    0.0000 H   0  0  0  0  0  0  0  0  0  0  0  0
  1  2  2  0  0  0  0
  1  3  2  0  0  0  0
  1  6  1  0  0  0  0
  1 15  1  0  0  0  0
  4 10  1  0  0  0  0
  4 14  1  0  0  0  0
  4 29  1  0  0  0  0
  5 12  1  0  0  0  0
  5 18  1  0  0  0  0
  5 19  1  0  0  0  0
  6 20  1  0  0  0  0
  6 38  1  0  0  0  0
  7  8  1  0  0  0  0
  7  9  1  0  0  0  0
  7 14  2  0  0  0  0
  8 10  2  0  0  0  0
  8 13  1  0  0  0  0
  9 12  1  0  0  0  0
  9 21  1  0  0  0  0
  9 22  1  0  0  0  0
 10 16  1  0  0  0  0
 11 13  2  0  0  0  0
 11 15  1  0  0  0  0
 11 17  1  0  0  0  0
 12 23  1  0  0  0  0
 12 24  1  0  0  0  0
 13 25  1  0  0  0  0
 14 26  1  0  0  0  0
 15 27  1  0  0  0  0
 15 28  1  0  0  0  0
 16 17  2  0  0  0  0
 16 30  1  0  0  0  0
 17 31  1  0  0  0  0
 18 32  1  0  0  0  0
 18 33  1  0  0  0  0
 18 34  1  0  0  0  0
 19 35  1  0  0  0  0
 19 36  1  0  0  0  0
 19 37  1  0  0  0  0
 20 39  1  0  0  0  0
 20 40  1  0  0  0  0
 20 41  1  0  0  0  0
M  END
> <PUBCHEM_COMPOUND_CID>
5358

> <PUBCHEM_COMPOUND_CANONICALIZED>
1

> <PUBCHEM_CACTVS_COMPLEXITY>
405

> <PUBCHEM_CACTVS_HBOND_ACCEPTOR>
4

> <PUBCHEM_CACTVS_HBOND_DONOR>
2

> <PUBCHEM_CACTVS_ROTATABLE_BOND>
6

> <PUBCHEM_CACTVS_SUBSKEYS>
AAADceBzMABAAAAAAAAAAAAAAAAAAWAAAAAwAAAAAAAAAFgB8AAAHAQQQAAADAjFXgS+wPPJkAKgAzRnRHDCgCAxAiAI2aA4ZJgIIOLAkZGEIAhgkADIyAcQgMAOiAACAAACAAAQAAQAAAQAAAAAAAAAAA==

> <PUBCHEM_IUPAC_OPENEYE_NAME>
1-[3-[2-(dimethylamino)ethyl]-1H-indol-5-yl]-N-methyl-methanesulfonamide

> <PUBCHEM_IUPAC_CAS_NAME>
1-[3-[2-(dimethylamino)ethyl]-1H-indol-5-yl]-N-methylmethanesulfonamide

> <PUBCHEM_IUPAC_NAME>
1-[3-[2-(dimethylamino)ethyl]-1H-indol-5-yl]-N-methylmethanesulfonamide

> <PUBCHEM_IUPAC_SYSTEMATIC_NAME>
1-[3-[2-(dimethylamino)ethyl]-1H-indol-5-yl]-N-methyl-methanesulfonamide

> <PUBCHEM_IUPAC_TRADITIONAL_NAME>
1-[3-[2-(dimethylamino)ethyl]-1H-indol-5-yl]-N-methyl-methanesulfonamide

> <PUBCHEM_IUPAC_INCHI>
InChI=1S/C14H21N3O2S/c1-15-20(18,19)10-11-4-5-14-13(8-11)12(9-16-14)6-7-17(2)3/h4-5,8-9,15-16H,6-7,10H2,1-3H3

> <PUBCHEM_IUPAC_INCHIKEY>
KQKPFRSPSRPDEB-UHFFFAOYSA-N

> <PUBCHEM_XLOGP3>
0.9

> <PUBCHEM_EXACT_MASS>
295.135448

> <PUBCHEM_MOLECULAR_FORMULA>
C14H21N3O2S

> <PUBCHEM_MOLECULAR_WEIGHT>
295.40044

> <PUBCHEM_OPENEYE_CAN_SMILES>
CNS(=O)(=O)CC1=CC2=C(C=C1)NC=C2CCN(C)C

> <PUBCHEM_OPENEYE_ISO_SMILES>
CNS(=O)(=O)CC1=CC2=C(C=C1)NC=C2CCN(C)C

> <PUBCHEM_CACTVS_TPSA>
73.6

> <PUBCHEM_MONOISOTOPIC_WEIGHT>
295.135448

> <PUBCHEM_TOTAL_CHARGE>
0

> <PUBCHEM_HEAVY_ATOM_COUNT>
20

> <PUBCHEM_ATOM_DEF_STEREO_COUNT>
0

> <PUBCHEM_ATOM_UDEF_STEREO_COUNT>
0

> <PUBCHEM_BOND_DEF_STEREO_COUNT>
0

> <PUBCHEM_BOND_UDEF_STEREO_COUNT>
0

> <PUBCHEM_ISOTOPIC_ATOM_COUNT>
0

> <PUBCHEM_COMPONENT_COUNT>
1

> <PUBCHEM_CACTVS_TAUTO_COUNT>
1

> <PUBCHEM_COORDINATE_TYPE>
1
5
255

> <PUBCHEM_BONDANNOTATIONS>
10  16  8
11  13  8
11  17  8
16  17  8
4  10  8
4  14  8
7  14  8
7  8  8
8  10  8
8  13  8

$$$$

