17395976
  -OEChem-06241222532D

 44 47  0     0  0  0  0  0  0999 V2000
    3.5827    4.5178    0.0000 S   0  0  0  0  0  0  0  0  0  0  0  0
    3.3833   -1.9246    0.0000 O   0  0  0  0  0  0  0  0  0  0  0  0
    4.2493    1.5754    0.0000 O   0  0  0  0  0  0  0  0  0  0  0  0
    5.1724    3.1632    0.0000 N   0  0  0  0  0  0  0  0  0  0  0  0
    5.9814    1.5754    0.0000 N   0  0  0  0  0  0  0  0  0  0  0  0
    5.4814    4.1143    0.0000 N   0  0  0  0  0  0  0  0  0  0  0  0
    4.2213    2.8542    0.0000 C   0  0  0  0  0  0  0  0  0  0  0  0
    5.9814    2.5754    0.0000 C   0  0  0  0  0  0  0  0  0  0  0  0
    3.4782    3.5233    0.0000 C   0  0  0  0  0  0  0  0  0  0  0  0
    6.7904    3.1632    0.0000 C   0  0  0  0  0  0  0  0  0  0  0  0
    5.1153    0.0754    0.0000 C   0  0  0  0  0  0  0  0  0  0  0  0
    5.1153    1.0754    0.0000 C   0  0  0  0  0  0  0  0  0  0  0  0
    6.4814    4.1143    0.0000 C   0  0  0  0  0  0  0  0  0  0  0  0
    2.5000    3.3154    0.0000 C   0  0  0  0  0  0  0  0  0  0  0  0
    4.2493   -0.4246    0.0000 C   0  0  0  0  0  0  0  0  0  0  0  0
    4.2493   -1.4246    0.0000 C   0  0  0  0  0  0  0  0  0  0  0  0
    5.9814   -0.4246    0.0000 C   0  0  0  0  0  0  0  0  0  0  0  0
    2.0000    4.1814    0.0000 C   0  0  0  0  0  0  0  0  0  0  0  0
    5.1153   -1.9246    0.0000 C   0  0  0  0  0  0  0  0  0  0  0  0
    5.9814   -1.4246    0.0000 C   0  0  0  0  0  0  0  0  0  0  0  0
    2.6691    4.9246    0.0000 C   0  0  0  0  0  0  0  0  0  0  0  0
    3.3833   -2.9246    0.0000 C   0  0  0  0  0  0  0  0  0  0  0  0
    2.5173   -3.4246    0.0000 C   0  0  0  0  0  0  0  0  0  0  0  0
    4.2493   -3.4246    0.0000 C   0  0  0  0  0  0  0  0  0  0  0  0
    2.5173   -4.4246    0.0000 C   0  0  0  0  0  0  0  0  0  0  0  0
    4.2493   -4.4246    0.0000 C   0  0  0  0  0  0  0  0  0  0  0  0
    3.3833   -4.9246    0.0000 C   0  0  0  0  0  0  0  0  0  0  0  0
    3.7327    2.4725    0.0000 H   0  0  0  0  0  0  0  0  0  0  0  0
    4.5124    2.3068    0.0000 H   0  0  0  0  0  0  0  0  0  0  0  0
    6.5183    1.2654    0.0000 H   0  0  0  0  0  0  0  0  0  0  0  0
    7.3800    2.9716    0.0000 H   0  0  0  0  0  0  0  0  0  0  0  0
    6.8458    4.6158    0.0000 H   0  0  0  0  0  0  0  0  0  0  0  0
    2.2478    2.7490    0.0000 H   0  0  0  0  0  0  0  0  0  0  0  0
    3.7124   -0.1146    0.0000 H   0  0  0  0  0  0  0  0  0  0  0  0
    6.5183   -0.1146    0.0000 H   0  0  0  0  0  0  0  0  0  0  0  0
    1.3834    4.2462    0.0000 H   0  0  0  0  0  0  0  0  0  0  0  0
    5.1153   -2.5446    0.0000 H   0  0  0  0  0  0  0  0  0  0  0  0
    6.5183   -1.7346    0.0000 H   0  0  0  0  0  0  0  0  0  0  0  0
    2.5402    5.5310    0.0000 H   0  0  0  0  0  0  0  0  0  0  0  0
    1.9803   -3.1146    0.0000 H   0  0  0  0  0  0  0  0  0  0  0  0
    4.7862   -3.1146    0.0000 H   0  0  0  0  0  0  0  0  0  0  0  0
    1.9803   -4.7346    0.0000 H   0  0  0  0  0  0  0  0  0  0  0  0
    4.7862   -4.7346    0.0000 H   0  0  0  0  0  0  0  0  0  0  0  0
    3.3833   -5.5446    0.0000 H   0  0  0  0  0  0  0  0  0  0  0  0
  1  9  1  0  0  0  0
  1 21  1  0  0  0  0
  2 16  1  0  0  0  0
  2 22  1  0  0  0  0
  3 12  2  0  0  0  0
  4  6  1  0  0  0  0
  4  7  1  0  0  0  0
  4  8  1  0  0  0  0
  5  8  1  0  0  0  0
  5 12  1  0  0  0  0
  5 30  1  0  0  0  0
  6 13  2  0  0  0  0
  7  9  1  0  0  0  0
  7 28  1  0  0  0  0
  7 29  1  0  0  0  0
  8 10  2  0  0  0  0
  9 14  2  0  0  0  0
 10 13  1  0  0  0  0
 10 31  1  0  0  0  0
 11 12  1  0  0  0  0
 11 15  2  0  0  0  0
 11 17  1  0  0  0  0
 13 32  1  0  0  0  0
 14 18  1  0  0  0  0
 14 33  1  0  0  0  0
 15 16  1  0  0  0  0
 15 34  1  0  0  0  0
 16 19  2  0  0  0  0
 17 20  2  0  0  0  0
 17 35  1  0  0  0  0
 18 21  2  0  0  0  0
 18 36  1  0  0  0  0
 19 20  1  0  0  0  0
 19 37  1  0  0  0  0
 20 38  1  0  0  0  0
 21 39  1  0  0  0  0
 22 23  2  0  0  0  0
 22 24  1  0  0  0  0
 23 25  1  0  0  0  0
 23 40  1  0  0  0  0
 24 26  2  0  0  0  0
 24 41  1  0  0  0  0
 25 27  2  0  0  0  0
 25 42  1  0  0  0  0
 26 27  1  0  0  0  0
 26 43  1  0  0  0  0
 27 44  1  0  0  0  0
M  END
> <PUBCHEM_COMPOUND_CID>
17395976

> <PUBCHEM_COMPOUND_CANONICALIZED>
1

> <PUBCHEM_CACTVS_COMPLEXITY>
486

> <PUBCHEM_CACTVS_HBOND_ACCEPTOR>
4

> <PUBCHEM_CACTVS_HBOND_DONOR>
1

> <PUBCHEM_CACTVS_ROTATABLE_BOND>
6

> <PUBCHEM_CACTVS_SUBSKEYS>
AAADceB7MABAAAAAAAAAAAAAAAAAAWJAAAAwYAAAAAAAAAAB9AAAHgQYAAAADATF2gS9t5LIBAiuAjN3dACTDIMlqhBd2Dk+bNiMJrLk/VuGvSj83RPoqYe6yBCOAAABAAAAAAAAAAIAAAAAAAAAAAAAAA==

> <PUBCHEM_IUPAC_OPENEYE_NAME>
3-phenoxy-N-[2-(2-thienylmethyl)pyrazol-3-yl]benzamide

> <PUBCHEM_IUPAC_CAS_NAME>
3-phenoxy-N-[2-(thiophen-2-ylmethyl)-3-pyrazolyl]benzamide

> <PUBCHEM_IUPAC_NAME>
3-phenoxy-N-[2-(thiophen-2-ylmethyl)pyrazol-3-yl]benzamide

> <PUBCHEM_IUPAC_SYSTEMATIC_NAME>
3-phenoxy-N-[2-(thiophen-2-ylmethyl)pyrazol-3-yl]benzamide

> <PUBCHEM_IUPAC_TRADITIONAL_NAME>
3-phenoxy-N-[2-(2-thenyl)pyrazol-3-yl]benzamide

> <PUBCHEM_IUPAC_INCHI>
InChI=1S/C21H17N3O2S/c25-21(23-20-11-12-22-24(20)15-19-10-5-13-27-19)16-6-4-9-18(14-16)26-17-7-2-1-3-8-17/h1-14H,15H2,(H,23,25)

> <PUBCHEM_IUPAC_INCHIKEY>
SGYAMSDIKVRLQA-UHFFFAOYSA-N

> <PUBCHEM_XLOGP3_AA>
4.2

> <PUBCHEM_EXACT_MASS>
375.104148

> <PUBCHEM_MOLECULAR_FORMULA>
C21H17N3O2S

> <PUBCHEM_MOLECULAR_WEIGHT>
375.44358

> <PUBCHEM_OPENEYE_CAN_SMILES>
C1=CC=C(C=C1)OC2=CC=CC(=C2)C(=O)NC3=CC=NN3CC4=CC=CS4

> <PUBCHEM_OPENEYE_ISO_SMILES>
C1=CC=C(C=C1)OC2=CC=CC(=C2)C(=O)NC3=CC=NN3CC4=CC=CS4

> <PUBCHEM_CACTVS_TPSA>
84.4

> <PUBCHEM_MONOISOTOPIC_WEIGHT>
375.104148

> <PUBCHEM_TOTAL_CHARGE>
0

> <PUBCHEM_HEAVY_ATOM_COUNT>
27

> <PUBCHEM_ATOM_DEF_STEREO_COUNT>
0

> <PUBCHEM_ATOM_UDEF_STEREO_COUNT>
0

> <PUBCHEM_BOND_DEF_STEREO_COUNT>
0

> <PUBCHEM_BOND_UDEF_STEREO_COUNT>
0

> <PUBCHEM_ISOTOPIC_ATOM_COUNT>
0

> <PUBCHEM_COMPONENT_COUNT>
1

> <PUBCHEM_CACTVS_TAUTO_COUNT>
4

> <PUBCHEM_COORDINATE_TYPE>
1
5
255

> <PUBCHEM_BONDANNOTATIONS>
1  21  8
1  9  8
10  13  8
11  15  8
11  17  8
14  18  8
15  16  8
16  19  8
17  20  8
18  21  8
19  20  8
22  23  8
22  24  8
23  25  8
24  26  8
25  27  8
26  27  8
4  6  8
4  8  8
6  13  8
8  10  8
9  14  8

$$$$

