17395619
  -OEChem-06241222512D

 57 60  0     1  0  0  0  0  0999 V2000
    4.9641    4.0194    0.0000 S   0  0  0  0  0  0  0  0  0  0  0  0
    4.9641    5.0194    0.0000 O   0  0  0  0  0  0  0  0  0  0  0  0
    4.0130    4.3284    0.0000 O   0  0  0  0  0  0  0  0  0  0  0  0
    3.7320    1.4806    0.0000 O   0  0  0  0  0  0  0  0  0  0  0  0
    4.5981   -0.0194    0.0000 N   0  0  0  0  0  0  0  0  0  0  0  0
    4.5981   -2.0194    0.0000 N   0  0  0  0  0  0  0  0  0  0  0  0
    5.4641    2.4806    0.0000 C   0  0  3  0  0  0  0  0  0  0  0  0
    4.6551    3.0684    0.0000 C   0  0  0  0  0  0  0  0  0  0  0  0
    6.2731    3.0684    0.0000 C   0  0  0  0  0  0  0  0  0  0  0  0
    5.9641    4.0194    0.0000 C   0  0  0  0  0  0  0  0  0  0  0  0
    5.4641    1.4806    0.0000 C   0  0  0  0  0  0  0  0  0  0  0  0
    4.5981    0.9806    0.0000 C   0  0  0  0  0  0  0  0  0  0  0  0
    5.4641   -0.5194    0.0000 C   0  0  0  0  0  0  0  0  0  0  0  0
    3.7320   -0.5194    0.0000 C   0  0  0  0  0  0  0  0  0  0  0  0
    3.7320   -1.5194    0.0000 C   0  0  0  0  0  0  0  0  0  0  0  0
    5.4641   -1.5194    0.0000 C   0  0  0  0  0  0  0  0  0  0  0  0
    4.5981   -3.0194    0.0000 C   0  0  0  0  0  0  0  0  0  0  0  0
    3.7320   -3.5194    0.0000 C   0  0  0  0  0  0  0  0  0  0  0  0
    5.4641   -3.5194    0.0000 C   0  0  0  0  0  0  0  0  0  0  0  0
    5.4641   -4.5194    0.0000 C   0  0  0  0  0  0  0  0  0  0  0  0
    2.8660   -3.0194    0.0000 C   0  0  0  0  0  0  0  0  0  0  0  0
    6.3301   -3.0194    0.0000 C   0  0  0  0  0  0  0  0  0  0  0  0
    3.7320   -4.5194    0.0000 C   0  0  0  0  0  0  0  0  0  0  0  0
    6.3301   -5.0194    0.0000 C   0  0  0  0  0  0  0  0  0  0  0  0
    2.0000   -3.5194    0.0000 C   0  0  0  0  0  0  0  0  0  0  0  0
    7.1962   -3.5194    0.0000 C   0  0  0  0  0  0  0  0  0  0  0  0
    2.8660   -5.0194    0.0000 C   0  0  0  0  0  0  0  0  0  0  0  0
    7.1962   -4.5194    0.0000 C   0  0  0  0  0  0  0  0  0  0  0  0
    2.0000   -4.5194    0.0000 C   0  0  0  0  0  0  0  0  0  0  0  0
    6.0165    2.1991    0.0000 H   0  0  0  0  0  0  0  0  0  0  0  0
    4.0887    3.3205    0.0000 H   0  0  0  0  0  0  0  0  0  0  0  0
    4.3451    2.5314    0.0000 H   0  0  0  0  0  0  0  0  0  0  0  0
    6.5831    2.5314    0.0000 H   0  0  0  0  0  0  0  0  0  0  0  0
    6.8395    3.3205    0.0000 H   0  0  0  0  0  0  0  0  0  0  0  0
    6.5706    4.1483    0.0000 H   0  0  0  0  0  0  0  0  0  0  0  0
    5.8993    4.6360    0.0000 H   0  0  0  0  0  0  0  0  0  0  0  0
    5.6762    0.8980    0.0000 H   0  0  0  0  0  0  0  0  0  0  0  0
    6.0747    1.5882    0.0000 H   0  0  0  0  0  0  0  0  0  0  0  0
    3.5200    0.0632    0.0000 H   0  0  0  0  0  0  0  0  0  0  0  0
    3.1215   -0.6271    0.0000 H   0  0  0  0  0  0  0  0  0  0  0  0
    6.0747   -0.6271    0.0000 H   0  0  0  0  0  0  0  0  0  0  0  0
    5.6762    0.0632    0.0000 H   0  0  0  0  0  0  0  0  0  0  0  0
    5.6762   -2.1020    0.0000 H   0  0  0  0  0  0  0  0  0  0  0  0
    6.0747   -1.4118    0.0000 H   0  0  0  0  0  0  0  0  0  0  0  0
    3.1215   -1.4118    0.0000 H   0  0  0  0  0  0  0  0  0  0  0  0
    3.5200   -2.1020    0.0000 H   0  0  0  0  0  0  0  0  0  0  0  0
    4.5981   -3.6394    0.0000 H   0  0  0  0  0  0  0  0  0  0  0  0
    4.9272   -4.8294    0.0000 H   0  0  0  0  0  0  0  0  0  0  0  0
    2.8660   -2.3994    0.0000 H   0  0  0  0  0  0  0  0  0  0  0  0
    6.3301   -2.3994    0.0000 H   0  0  0  0  0  0  0  0  0  0  0  0
    4.2690   -4.8294    0.0000 H   0  0  0  0  0  0  0  0  0  0  0  0
    6.3301   -5.6394    0.0000 H   0  0  0  0  0  0  0  0  0  0  0  0
    1.4631   -3.2094    0.0000 H   0  0  0  0  0  0  0  0  0  0  0  0
    7.7331   -3.2094    0.0000 H   0  0  0  0  0  0  0  0  0  0  0  0
    2.8660   -5.6394    0.0000 H   0  0  0  0  0  0  0  0  0  0  0  0
    1.4631   -4.8294    0.0000 H   0  0  0  0  0  0  0  0  0  0  0  0
    7.7331   -4.8294    0.0000 H   0  0  0  0  0  0  0  0  0  0  0  0
  1  2  2  0  0  0  0
  1  3  2  0  0  0  0
  1  8  1  0  0  0  0
  1 10  1  0  0  0  0
  4 12  2  0  0  0  0
  5 12  1  0  0  0  0
  5 13  1  0  0  0  0
  5 14  1  0  0  0  0
  6 15  1  0  0  0  0
  6 16  1  0  0  0  0
  6 17  1  0  0  0  0
  7  8  1  0  0  0  0
  7  9  1  0  0  0  0
  7 11  1  0  0  0  0
  7 30  1  0  0  0  0
  8 31  1  0  0  0  0
  8 32  1  0  0  0  0
  9 10  1  0  0  0  0
  9 33  1  0  0  0  0
  9 34  1  0  0  0  0
 10 35  1  0  0  0  0
 10 36  1  0  0  0  0
 11 12  1  0  0  0  0
 11 37  1  0  0  0  0
 11 38  1  0  0  0  0
 13 16  1  0  0  0  0
 13 41  1  0  0  0  0
 13 42  1  0  0  0  0
 14 15  1  0  0  0  0
 14 39  1  0  0  0  0
 14 40  1  0  0  0  0
 15 45  1  0  0  0  0
 15 46  1  0  0  0  0
 16 43  1  0  0  0  0
 16 44  1  0  0  0  0
 17 18  1  0  0  0  0
 17 19  1  0  0  0  0
 17 47  1  0  0  0  0
 18 21  2  0  0  0  0
 18 23  1  0  0  0  0
 19 20  2  0  0  0  0
 19 22  1  0  0  0  0
 20 24  1  0  0  0  0
 20 48  1  0  0  0  0
 21 25  1  0  0  0  0
 21 49  1  0  0  0  0
 22 26  2  0  0  0  0
 22 50  1  0  0  0  0
 23 27  2  0  0  0  0
 23 51  1  0  0  0  0
 24 28  2  0  0  0  0
 24 52  1  0  0  0  0
 25 29  2  0  0  0  0
 25 53  1  0  0  0  0
 26 28  1  0  0  0  0
 26 54  1  0  0  0  0
 27 29  1  0  0  0  0
 27 55  1  0  0  0  0
 28 57  1  0  0  0  0
 29 56  1  0  0  0  0
M  END
> <PUBCHEM_COMPOUND_CID>
17395619

> <PUBCHEM_COMPOUND_CANONICALIZED>
1

> <PUBCHEM_CACTVS_COMPLEXITY>
622

> <PUBCHEM_CACTVS_HBOND_ACCEPTOR>
4

> <PUBCHEM_CACTVS_HBOND_DONOR>
0

> <PUBCHEM_CACTVS_ROTATABLE_BOND>
5

> <PUBCHEM_CACTVS_SUBSKEYS>
AAADceB7MABAAAAAAAAAAAAAAAAAASAAAAA8YIAAAAAAAAABQAAAHgQAAAAADSjF2ASwAIMAAAqIAiFSEHDCAAAgABAIiAEIBIgIYDKgkRGUIAhghgCoiAcYgMAOAAAAAAAAAAAAAAAAAAAAAAAAAAAAAA==

> <PUBCHEM_IUPAC_OPENEYE_NAME>
1-(4-benzhydrylpiperazin-1-yl)-2-(1,1-dioxothiolan-3-yl)ethanone

> <PUBCHEM_IUPAC_CAS_NAME>
2-(1,1-dioxo-3-thiolanyl)-1-[4-(diphenylmethyl)-1-piperazinyl]ethanone

> <PUBCHEM_IUPAC_NAME>
1-(4-benzhydrylpiperazin-1-yl)-2-(1,1-dioxothiolan-3-yl)ethanone

> <PUBCHEM_IUPAC_SYSTEMATIC_NAME>
2-[1,1-bis(oxidanylidene)thiolan-3-yl]-1-[4-(diphenylmethyl)piperazin-1-yl]ethanone

> <PUBCHEM_IUPAC_TRADITIONAL_NAME>
1-(4-benzhydrylpiperazino)-2-(1,1-diketothiolan-3-yl)ethanone

> <PUBCHEM_IUPAC_INCHI>
InChI=1S/C23H28N2O3S/c26-22(17-19-11-16-29(27,28)18-19)24-12-14-25(15-13-24)23(20-7-3-1-4-8-20)21-9-5-2-6-10-21/h1-10,19,23H,11-18H2

> <PUBCHEM_IUPAC_INCHIKEY>
WRIPMXCXXWSDMW-UHFFFAOYSA-N

> <PUBCHEM_XLOGP3_AA>
2.4

> <PUBCHEM_EXACT_MASS>
412.182064

> <PUBCHEM_MOLECULAR_FORMULA>
C23H28N2O3S

> <PUBCHEM_MOLECULAR_WEIGHT>
412.54502

> <PUBCHEM_OPENEYE_CAN_SMILES>
C1CS(=O)(=O)CC1CC(=O)N2CCN(CC2)C(C3=CC=CC=C3)C4=CC=CC=C4

> <PUBCHEM_OPENEYE_ISO_SMILES>
C1CS(=O)(=O)CC1CC(=O)N2CCN(CC2)C(C3=CC=CC=C3)C4=CC=CC=C4

> <PUBCHEM_CACTVS_TPSA>
66.1

> <PUBCHEM_MONOISOTOPIC_WEIGHT>
412.182064

> <PUBCHEM_TOTAL_CHARGE>
0

> <PUBCHEM_HEAVY_ATOM_COUNT>
29

> <PUBCHEM_ATOM_DEF_STEREO_COUNT>
0

> <PUBCHEM_ATOM_UDEF_STEREO_COUNT>
1

> <PUBCHEM_BOND_DEF_STEREO_COUNT>
0

> <PUBCHEM_BOND_UDEF_STEREO_COUNT>
0

> <PUBCHEM_ISOTOPIC_ATOM_COUNT>
0

> <PUBCHEM_COMPONENT_COUNT>
1

> <PUBCHEM_CACTVS_TAUTO_COUNT>
1

> <PUBCHEM_COORDINATE_TYPE>
1
5
255

> <PUBCHEM_BONDANNOTATIONS>
18  21  8
18  23  8
19  20  8
19  22  8
20  24  8
21  25  8
22  26  8
23  27  8
24  28  8
25  29  8
26  28  8
27  29  8
7  11  3

$$$$

