   Color/Form
        Colorless gas [Note: A liquid below 37 deg F. Shipped as a
   liquefied compressed gas].
   from [1]HSDB

   Odor

     * Pungent, fishy, ammoniacal
     * Fishy, amine odor
     * A fish-like odor at low concentrations changing to an ammonia-like
       odor at higher concentrations.

   from [2]HSDB

   Taste

     * Old fish
     * Saline taste

   from [3]HSDB

   Boiling Point
        2.87 deg C
   from [4]HSDB

   Melting Point
        -117.08 deg C
   from [5]HSDB

   Critical Temperature and Pressure
        Critical temperature: 161 deg C; Critical pressure: 41 atm
   from [6]HSDB

   Density/Specific Gravity
        0.6709
   from [7]HSDB

   Dissociation Constants
        pKa = 9.80
   from [8]HSDB

   Heat of Combustion
        2443.1 kJ/mol
   from [9]HSDB

   Heat of Vaporization
        21.66 kJ/mol at 25 deg C
   from [10]HSDB

   Octanol/Water Partition Coefficient
        log Kow = 0.16
   from [11]HSDB

   pH
        Strong base
   from [12]HSDB

   Solubilities

     * Readily absorbed by alcohol with which it is miscible; also soluble
       in ether, benzene, toluene, xylene, ethylbenzene, chloroform.
     * Miscible with oxygenated solvents
     * Solubility of gas per 1cc liquid, pressure = 1 atm, temperature =
       20 deg C.

       Solvent (1 cc)

   cc Trimethylamine

   Aniline 300
   Anisole 185
   Benzyl alcohol 322
   Iso-butanol 405
   n-Butanol 379
   Cedrene 156
   alpha-Naphthalene 130
   Cymene 177
   Decahydronaphthalene 156
   Diacetone alcohol 345
   o-Dichlorobenzene 240
   Diethylaniline 134
   Diethylene glycol mono-ethyl ether 216
   Dimethylaniline 149
   Dimethylcyclohexylamine 187
   Dimethylformamide 78
   Ethanol 600
   Ethylene glycol 369
   Furfuryl alcohol 410
   Methanol 573
   Methylcyclohexanol 256
   Monoethanolamine 48
   Monoethylaniline 228
   Monomethylaniline 223
   Morpholine 138
   Nitrobenzene 154
   o-Nitrotoluene 149
   Pinene 176
   n-Propanol 439
   Quinoline 255
   Tetrahydronaphthalene 151
   o-Toluidine 242
   Triethylene glycol 164
   Trimethylene glycol 307

     In water, 8.9X10+5 mg/L at 30 deg C

   from [13]HSDB

   Spectral Properties

     * MAX ABSORPTION: 161 NM (LOG E= 3.4); 190.5 NM (LOG E= 3.59); 227 NM
       (LOG E= 2.95) (GAS)
     * Index of refraction: 1.3631 at 0 deg C/D
     * IR: 9718 (Sadtler Research Laboratories Prism Collection)
     * MASS: 18972 (NITS/EPA/MSDC Mass Spectral database, 1990 version)
     * UV: HBCP

   from [14]HSDB

   Surface Tension
        17.4 dynes/cm at -4 deg C
   from [15]HSDB

   Vapor Density
        2.0 (Air= 1)
   from [16]HSDB

   Vapor Pressure
        1610 mm Hg at 25 deg C
   from [17]HSDB

   Viscosity
        5.1564X10-4 Pa.sec at 200 K
   from [18]HSDB

   Other Chemical/Physical Properties

     * Liquefiable by pressure at ordinary temp or by condensation
     * Conversion units: 1 mg/L = 414 ppm; 1 ppm = 2.42 mg/cu m
     * Vapor (Gas) Specific Gravity: 2.0; Ratio of Specific Heats of Vapor
       (Gas): 1.139; Heat of Solution: -385 Btu/lb = -214 cal/g =
       -8.96X10+5 J/kg
     * Heat of Fusion: 26.47 cal/g
     * Decomposition temp: 800-1300 deg C; Dielectric constant at 4 deg C:
       2.9; Electrical conductivity: 2.2X10-12 reciprocal ohms @ - 33.5
       deg C; Ionization constant at 25 deg C: 6.5X10-5 for solutions
       0.001-0.06N; Heat of vaporization at BP: 95.6 cal/g
     * Amines tends to be fat soluble /Amines/
     * Saturated liquid density= 40.890 lb/cu ft @ 35 deg C
     * Liquid heat capacity= 0.513 Btu/lb-F @ 30 deg C
     * Saturated vapor pressure= 28.770 lb/sq in @ 70 deg C
     * Saturated vapor density= 0.29910 lb/cu ft @ 70 deg C
     * Ideal gas heat capacity= 0.278 Btu/lb ft @ 75 deg C
     * Trimethylamine can form quaternary ammonium compounds by
       N-alkylation
     * Extremely flammable product that should be stored in a
       well-ventilated area and protected from fire risks.
     * Henry's Law constant = 1.04X10-4 atm-cu m/mole at 25 deg C
     * Hydroxyl radical reaction rate constant = 6.09X10-11 cu cm/molc-sec
       at 25 deg C

   from [19]HSDB

   Computed Properties
   Molecular Weight                  59.11026 [g/mol]
   Molecular Formula                 C[3]H[9]N
   XLogP3-AA                         0.3
   H-Bond Donor                      0
   H-Bond Acceptor                   1
   Rotatable Bond Count              0
   Exact Mass                        59.073499
   MonoIsotopic Mass                 59.073499
   Topological Polar Surface Area    3.2
   Heavy Atom Count                  4
   Formal Charge                     0
   Complexity                        8
   Isotope Atom Count                0
   Defined Atom Stereocenter Count   0
   Undefined Atom Stereocenter Count 0
   Defined Bond Stereocenter Count   0
   Undefined Bond Stereocenter Count 0
   Covalently-Bonded Unit Count      1
   Feature 3D Cation Count           1
   Effective Rotor Count             0
   Conformer Sampling RMSD           0.4
   CID Conformer Count               [20]1

References

   1. http://toxnet.nlm.nih.gov/cgi-bin/sis/search/r?dbs+hsdb:@term+@rn+@rel+75-50-3
   2. http://toxnet.nlm.nih.gov/cgi-bin/sis/search/r?dbs+hsdb:@term+@rn+@rel+75-50-3
   3. http://toxnet.nlm.nih.gov/cgi-bin/sis/search/r?dbs+hsdb:@term+@rn+@rel+75-50-3
   4. http://toxnet.nlm.nih.gov/cgi-bin/sis/search/r?dbs+hsdb:@term+@rn+@rel+75-50-3
   5. http://toxnet.nlm.nih.gov/cgi-bin/sis/search/r?dbs+hsdb:@term+@rn+@rel+75-50-3
   6. http://toxnet.nlm.nih.gov/cgi-bin/sis/search/r?dbs+hsdb:@term+@rn+@rel+75-50-3
   7. http://toxnet.nlm.nih.gov/cgi-bin/sis/search/r?dbs+hsdb:@term+@rn+@rel+75-50-3
   8. http://toxnet.nlm.nih.gov/cgi-bin/sis/search/r?dbs+hsdb:@term+@rn+@rel+75-50-3
   9. http://toxnet.nlm.nih.gov/cgi-bin/sis/search/r?dbs+hsdb:@term+@rn+@rel+75-50-3
  10. http://toxnet.nlm.nih.gov/cgi-bin/sis/search/r?dbs+hsdb:@term+@rn+@rel+75-50-3
  11. http://toxnet.nlm.nih.gov/cgi-bin/sis/search/r?dbs+hsdb:@term+@rn+@rel+75-50-3
  12. http://toxnet.nlm.nih.gov/cgi-bin/sis/search/r?dbs+hsdb:@term+@rn+@rel+75-50-3
  13. http://toxnet.nlm.nih.gov/cgi-bin/sis/search/r?dbs+hsdb:@term+@rn+@rel+75-50-3
  14. http://toxnet.nlm.nih.gov/cgi-bin/sis/search/r?dbs+hsdb:@term+@rn+@rel+75-50-3
  15. http://toxnet.nlm.nih.gov/cgi-bin/sis/search/r?dbs+hsdb:@term+@rn+@rel+75-50-3
  16. http://toxnet.nlm.nih.gov/cgi-bin/sis/search/r?dbs+hsdb:@term+@rn+@rel+75-50-3
  17. http://toxnet.nlm.nih.gov/cgi-bin/sis/search/r?dbs+hsdb:@term+@rn+@rel+75-50-3
  18. http://toxnet.nlm.nih.gov/cgi-bin/sis/search/r?dbs+hsdb:@term+@rn+@rel+75-50-3
  19. http://toxnet.nlm.nih.gov/cgi-bin/sis/search/r?dbs+hsdb:@term+@rn+@rel+75-50-3
  20. http://pubchem.ncbi.nlm.nih.gov/vw3d/vw3d.cgi?cid=1146
