6857439
  -OEChem-07051213152D

 73 78  0     1  0  0  0  0  0999 V2000
    5.5954   -2.2515    0.0000 O   0  0  0  0  0  0  0  0  0  0  0  0
    3.9300   -1.1704    0.0000 O   0  0  0  0  0  0  0  0  0  0  0  0
    6.6628   -0.0167    0.0000 C   0  0  1  0  0  0  0  0  0  0  0  0
    7.5288   -0.5167    0.0000 C   0  0  2  0  0  0  0  0  0  0  0  0
    5.9258   -0.6838    0.0000 C   0  0  2  0  0  0  0  0  0  0  0  0
    8.3948   -0.0167    0.0000 C   0  0  1  0  0  0  0  0  0  0  0  0
    8.3948    0.9833    0.0000 C   0  0  1  0  0  0  0  0  0  0  0  0
    6.3309   -1.5916    0.0000 C   0  0  2  0  0  0  0  0  0  0  0  0
    9.2888    1.5180    0.0000 C   0  0  2  0  0  0  0  0  0  0  0  0
    7.3196   -1.4885    0.0000 C   0  0  0  0  0  0  0  0  0  0  0  0
    6.6628    0.9833    0.0000 C   0  0  0  0  0  0  0  0  0  0  0  0
    7.5288    1.4833    0.0000 C   0  0  0  0  0  0  0  0  0  0  0  0
    4.9434   -0.7905    0.0000 C   0  0  1  0  0  0  0  0  0  0  0  0
   10.1949    1.0041    0.0000 C   0  0  3  0  0  0  0  0  0  0  0  0
    9.2888   -0.5514    0.0000 C   0  0  0  0  0  0  0  0  0  0  0  0
    4.7396   -1.7574    0.0000 C   0  0  1  0  0  0  0  0  0  0  0  0
   10.1949   -0.0375    0.0000 C   0  0  0  0  0  0  0  0  0  0  0  0
    5.7968    0.4833    0.0000 C   0  0  0  0  0  0  0  0  0  0  0  0
    9.2637    2.6027    0.0000 C   0  0  0  0  0  0  0  0  0  0  0  0
   11.1386    1.5394    0.0000 C   0  0  0  0  0  0  0  0  0  0  0  0
    8.4189    2.0113    0.0000 C   0  0  0  0  0  0  0  0  0  0  0  0
    4.2723   -0.0491    0.0000 C   0  0  0  0  0  0  0  0  0  0  0  0
    4.6359   -2.7520    0.0000 C   0  0  0  0  0  0  0  0  0  0  0  0
   10.1949    3.1596    0.0000 C   0  0  0  0  0  0  0  0  0  0  0  0
   11.1386    2.6243    0.0000 C   0  0  0  0  0  0  0  0  0  0  0  0
    3.7227   -3.1596    0.0000 C   0  0  0  0  0  0  0  0  0  0  0  0
    3.0169   -1.5779    0.0000 C   0  0  0  0  0  0  0  0  0  0  0  0
    2.9132   -2.5725    0.0000 C   0  0  3  0  0  0  0  0  0  0  0  0
    2.0000   -2.9800    0.0000 C   0  0  0  0  0  0  0  0  0  0  0  0
    8.2158   -1.0172    0.0000 H   0  0  0  0  0  0  0  0  0  0  0  0
    5.5777    0.0917    0.0000 H   0  0  0  0  0  0  0  0  0  0  0  0
    8.3883   -0.8667    0.0000 H   0  0  0  0  0  0  0  0  0  0  0  0
    8.3883    1.8333    0.0000 H   0  0  0  0  0  0  0  0  0  0  0  0
    6.6756   -2.3685    0.0000 H   0  0  0  0  0  0  0  0  0  0  0  0
    7.3187   -2.1085    0.0000 H   0  0  0  0  0  0  0  0  0  0  0  0
    7.9361   -1.5546    0.0000 H   0  0  0  0  0  0  0  0  0  0  0  0
    6.4507    1.5659    0.0000 H   0  0  0  0  0  0  0  0  0  0  0  0
    6.0522    0.8756    0.0000 H   0  0  0  0  0  0  0  0  0  0  0  0
    7.9274    1.9582    0.0000 H   0  0  0  0  0  0  0  0  0  0  0  0
    7.1303    1.9582    0.0000 H   0  0  0  0  0  0  0  0  0  0  0  0
    4.3448   -0.9522    0.0000 H   0  0  0  0  0  0  0  0  0  0  0  0
   10.9293    0.5763    0.0000 H   0  0  0  0  0  0  0  0  0  0  0  0
    8.8842   -1.0212    0.0000 H   0  0  0  0  0  0  0  0  0  0  0  0
    9.6824   -1.0304    0.0000 H   0  0  0  0  0  0  0  0  0  0  0  0
   10.4039   -0.6212    0.0000 H   0  0  0  0  0  0  0  0  0  0  0  0
   10.8057    0.0686    0.0000 H   0  0  0  0  0  0  0  0  0  0  0  0
    6.1068    1.0202    0.0000 H   0  0  0  0  0  0  0  0  0  0  0  0
    5.2598    0.7933    0.0000 H   0  0  0  0  0  0  0  0  0  0  0  0
    5.4868   -0.0536    0.0000 H   0  0  0  0  0  0  0  0  0  0  0  0
    9.0412    3.1814    0.0000 H   0  0  0  0  0  0  0  0  0  0  0  0
    8.6555    2.4825    0.0000 H   0  0  0  0  0  0  0  0  0  0  0  0
   11.3477    0.9557    0.0000 H   0  0  0  0  0  0  0  0  0  0  0  0
   11.7495    1.6454    0.0000 H   0  0  0  0  0  0  0  0  0  0  0  0
    8.7248    2.5506    0.0000 H   0  0  0  0  0  0  0  0  0  0  0  0
    7.8796    2.3171    0.0000 H   0  0  0  0  0  0  0  0  0  0  0  0
    8.1131    1.4720    0.0000 H   0  0  0  0  0  0  0  0  0  0  0  0
    4.7320    0.3670    0.0000 H   0  0  0  0  0  0  0  0  0  0  0  0
    3.8562    0.4106    0.0000 H   0  0  0  0  0  0  0  0  0  0  0  0
    3.8126   -0.4651    0.0000 H   0  0  0  0  0  0  0  0  0  0  0  0
    4.7864   -3.3535    0.0000 H   0  0  0  0  0  0  0  0  0  0  0  0
    5.2544   -2.7083    0.0000 H   0  0  0  0  0  0  0  0  0  0  0  0
   10.5885    3.6386    0.0000 H   0  0  0  0  0  0  0  0  0  0  0  0
    9.7903    3.6294    0.0000 H   0  0  0  0  0  0  0  0  0  0  0  0
   11.7495    2.5182    0.0000 H   0  0  0  0  0  0  0  0  0  0  0  0
   11.3477    3.2080    0.0000 H   0  0  0  0  0  0  0  0  0  0  0  0
    3.2771   -3.5906    0.0000 H   0  0  0  0  0  0  0  0  0  0  0  0
    4.0699   -3.6733    0.0000 H   0  0  0  0  0  0  0  0  0  0  0  0
    2.8664   -0.9764    0.0000 H   0  0  0  0  0  0  0  0  0  0  0  0
    2.3984   -1.6217    0.0000 H   0  0  0  0  0  0  0  0  0  0  0  0
    2.2251   -2.0735    0.0000 H   0  0  0  0  0  0  0  0  0  0  0  0
    1.7473   -2.4138    0.0000 H   0  0  0  0  0  0  0  0  0  0  0  0
    1.4338   -3.2327    0.0000 H   0  0  0  0  0  0  0  0  0  0  0  0
    2.2527   -3.5462    0.0000 H   0  0  0  0  0  0  0  0  0  0  0  0
  1  8  1  0  0  0  0
 16  1  1  1  0  0  0
  2 16  1  0  0  0  0
  2 27  1  0  0  0  0
  3  4  1  0  0  0  0
  3  5  1  0  0  0  0
  3 11  1  0  0  0  0
  3 18  1  6  0  0  0
  4  6  1  0  0  0  0
  4 10  1  0  0  0  0
  4 30  1  1  0  0  0
  5  8  1  0  0  0  0
  5 13  1  0  0  0  0
  5 31  1  1  0  0  0
  6  7  1  0  0  0  0
  6 15  1  0  0  0  0
  6 32  1  6  0  0  0
  7  9  1  0  0  0  0
  7 12  1  0  0  0  0
  7 33  1  1  0  0  0
  8 10  1  0  0  0  0
  8 34  1  1  0  0  0
  9 14  1  0  0  0  0
  9 19  1  0  0  0  0
  9 21  1  6  0  0  0
 10 35  1  0  0  0  0
 10 36  1  0  0  0  0
 11 12  1  0  0  0  0
 11 37  1  0  0  0  0
 11 38  1  0  0  0  0
 12 39  1  0  0  0  0
 12 40  1  0  0  0  0
 13 16  1  0  0  0  0
 13 22  1  1  0  0  0
 13 41  1  0  0  0  0
 14 17  1  0  0  0  0
 14 20  1  0  0  0  0
 14 42  1  0  0  0  0
 15 17  1  0  0  0  0
 15 43  1  0  0  0  0
 15 44  1  0  0  0  0
 16 23  1  0  0  0  0
 17 45  1  0  0  0  0
 17 46  1  0  0  0  0
 18 47  1  0  0  0  0
 18 48  1  0  0  0  0
 18 49  1  0  0  0  0
 19 24  1  0  0  0  0
 19 50  1  0  0  0  0
 19 51  1  0  0  0  0
 20 25  1  0  0  0  0
 20 52  1  0  0  0  0
 20 53  1  0  0  0  0
 21 54  1  0  0  0  0
 21 55  1  0  0  0  0
 21 56  1  0  0  0  0
 22 57  1  0  0  0  0
 22 58  1  0  0  0  0
 22 59  1  0  0  0  0
 23 26  1  0  0  0  0
 23 60  1  0  0  0  0
 23 61  1  0  0  0  0
 24 25  1  0  0  0  0
 24 62  1  0  0  0  0
 24 63  1  0  0  0  0
 25 64  1  0  0  0  0
 25 65  1  0  0  0  0
 26 28  1  0  0  0  0
 26 66  1  0  0  0  0
 26 67  1  0  0  0  0
 27 28  1  0  0  0  0
 27 68  1  0  0  0  0
 27 69  1  0  0  0  0
 28 29  1  0  0  0  0
 28 70  1  0  0  0  0
 29 71  1  0  0  0  0
 29 72  1  0  0  0  0
 29 73  1  0  0  0  0
M  END
> <PUBCHEM_COMPOUND_CID>
6857439

> <PUBCHEM_COMPOUND_CANONICALIZED>
1

> <PUBCHEM_CACTVS_COMPLEXITY>
661

> <PUBCHEM_CACTVS_HBOND_ACCEPTOR>
2

> <PUBCHEM_CACTVS_HBOND_DONOR>
0

> <PUBCHEM_CACTVS_ROTATABLE_BOND>
0

> <PUBCHEM_CACTVS_SUBSKEYS>
AAADcfB4MAAAAAAAAAAAAAAAAAAAAaIAAAA0YMEAAAASAGDAAAAAGgAAAAAADxSggAICCAAABAAAAAAAAAAAAAAAAAAAAAAAAAAQAAIAAAAiAAAEAAAEAAHA4PwPgAAAAAAAAACAAAQAACAAAYAADAAAAA==

> <PUBCHEM_IUPAC_INCHI>
InChI=1S/C27H44O2/c1-17-10-14-27(28-16-17)18(2)24-23(29-27)15-22-20-9-8-19-7-5-6-12-25(19,3)21(20)11-13-26(22,24)4/h17-24H,5-16H2,1-4H3/t17?,18-,19?,20+,21-,22-,23-,24-,25-,26-,27+/m0/s1

> <PUBCHEM_IUPAC_INCHIKEY>
INLFWQCRAJUDCR-LHVCHFHMSA-N

> <PUBCHEM_XLOGP3_AA>
8.2

> <PUBCHEM_EXACT_MASS>
400.334131

> <PUBCHEM_MOLECULAR_FORMULA>
C27H44O2

> <PUBCHEM_MOLECULAR_WEIGHT>
400.63706

> <PUBCHEM_OPENEYE_CAN_SMILES>
CC1CCC2(C(C3C(O2)CC4C3(CCC5C4CCC6C5(CCCC6)C)C)C)OC1

> <PUBCHEM_OPENEYE_ISO_SMILES>
C[C@H]1[C@H]2[C@H](C[C@@H]3[C@@]2(CC[C@H]4[C@H]3CCC5[C@@]4(CCCC5)C)C)O[C@]16CCC(CO6)C

> <PUBCHEM_CACTVS_TPSA>
18.5

> <PUBCHEM_MONOISOTOPIC_WEIGHT>
400.334131

> <PUBCHEM_TOTAL_CHARGE>
0

> <PUBCHEM_HEAVY_ATOM_COUNT>
29

> <PUBCHEM_ATOM_DEF_STEREO_COUNT>
9

> <PUBCHEM_ATOM_UDEF_STEREO_COUNT>
2

> <PUBCHEM_BOND_DEF_STEREO_COUNT>
0

> <PUBCHEM_BOND_UDEF_STEREO_COUNT>
0

> <PUBCHEM_ISOTOPIC_ATOM_COUNT>
0

> <PUBCHEM_COMPONENT_COUNT>
1

> <PUBCHEM_CACTVS_TAUTO_COUNT>
1

> <PUBCHEM_COORDINATE_TYPE>
1
5
255

> <PUBCHEM_BONDANNOTATIONS>
16  1  5
13  22  5
14  42  3
28  70  3
3  18  6
4  30  5
5  31  5
6  32  6
7  33  5
8  34  5
9  21  6

$$$$

