   Color/Form
        COLORLESS CRYSTALLINE SOLID
   from [1]HSDB

   Odor
        ODORLESS
   from [2]HSDB

   Melting Point
        200-201 DEG C
   from [3]HSDB

   Octanol/Water Partition Coefficient
        log Kow = 1.11
   from [4]HSDB

   Solubilities

     * water solubility = 700 mg/l @ 25 deg C
     * SOLUBILITY IN ETHANOL: 172 G/L @ 25 DEG C
     * SOL IN ALKALI
     * SOLUBILITY IN ACETONE: 23.27 G/100 G @ 29 DEG C
     * SOLUBILITY IN BENZENE: 200 PPM @ 24 DEG C
     * INSOLUBLE IN CARBON TETRACHLORIDE
     * SOLUBILITY IN CHLOROFORM: 900 PPM @ 25 DEG C
     * SOLUBILITY IN ISOPROPANOL: 11.29 G/100 G @ 26 DEG C
     * 354 g/100 g ether

   from [5]HSDB

   Spectral Properties

     * MAX ABSORPTION (WATER): 297 NM
     * Intense mass spectral peaks: 205 m/z (100%), 207 m/z (63%), 188 m/z
       (28%), 63 m/z (19%)
     * IR: 19785 (Sadtler Research Laboratories IR Grating Collection)
     * UV: 18646 (Sadtler Research Laboratories Spectral Collection)
     * NMR: 9551 (Sadtler Research Laboratories Spectral Collection)
     * MASS: 1245 (National Bureau of Standards EPA-NIH Mass Spectra Data
       Base, NSRDS-NBS-63)

   from [6]HSDB

   Vapor Pressure
        930 mPa @ 100 Deg C
   from [7]HSDB

   Other Chemical/Physical Properties

     * MP: ABOVE 195 DEG C /TECHNICAL PRODUCT/
     * FORMS WATER-SOLUBLE ALKALI METAL & AMMONIUM SALTS, THERE IS NO
       PROBLEM OF PRECIPITATION WITH HARD WATER
     * STABLE TO HEAT, TO OXIDATION & TO HYDROLYSIS BY ACID OR ALKALINE
       MEDIA BUT IS DECOMP BY SODIUM HYPOCHLORITE SOLN
     * PURPLISH-WHITE POWDER /TECHNICAL PRODUCT/

   from [8]HSDB

   Computed Properties
   Molecular Weight                  206.0261 [g/mol]
   Molecular Formula                 C[7]H[5]Cl[2]NO[2]
   XLogP3-AA                         2
   H-Bond Donor                      2
   H-Bond Acceptor                   3
   Rotatable Bond Count              1
   Exact Mass                        204.969734
   MonoIsotopic Mass                 204.969734
   Topological Polar Surface Area    63.3
   Heavy Atom Count                  12
   Formal Charge                     0
   Complexity                        188
   Isotope Atom Count                0
   Defined Atom Stereocenter Count   0
   Undefined Atom Stereocenter Count 0
   Defined Bond Stereocenter Count   0
   Undefined Bond Stereocenter Count 0
   Covalently-Bonded Unit Count      1
   Feature 3D Acceptor Count         2
   Feature 3D Donor Count            1
   Feature 3D Anion Count            1
   Feature 3D Cation Count           1
   Feature 3D Ring Count             1
   Effective Rotor Count             1
   Conformer Sampling RMSD           0.4
   CID Conformer Count               [9]2

References

   1. http://toxnet.nlm.nih.gov/cgi-bin/sis/search/r?dbs+hsdb:@term+@rn+@rel+133-90-4
   2. http://toxnet.nlm.nih.gov/cgi-bin/sis/search/r?dbs+hsdb:@term+@rn+@rel+133-90-4
   3. http://toxnet.nlm.nih.gov/cgi-bin/sis/search/r?dbs+hsdb:@term+@rn+@rel+133-90-4
   4. http://toxnet.nlm.nih.gov/cgi-bin/sis/search/r?dbs+hsdb:@term+@rn+@rel+133-90-4
   5. http://toxnet.nlm.nih.gov/cgi-bin/sis/search/r?dbs+hsdb:@term+@rn+@rel+133-90-4
   6. http://toxnet.nlm.nih.gov/cgi-bin/sis/search/r?dbs+hsdb:@term+@rn+@rel+133-90-4
   7. http://toxnet.nlm.nih.gov/cgi-bin/sis/search/r?dbs+hsdb:@term+@rn+@rel+133-90-4
   8. http://toxnet.nlm.nih.gov/cgi-bin/sis/search/r?dbs+hsdb:@term+@rn+@rel+133-90-4
   9. http://pubchem.ncbi.nlm.nih.gov/vw3d/vw3d.cgi?cid=8630
