11845
  -OEChem-06261206112D

 12 12  0     0  0  0  0  0  0999 V2000
    3.7320    1.5000    0.0000 I   0  0  0  0  0  0  0  0  0  0  0  0
    2.0000    0.5000    0.0000 I   0  0  0  0  0  0  0  0  0  0  0  0
    5.4641    0.5000    0.0000 I   0  0  0  0  0  0  0  0  0  0  0  0
    3.7320    0.5000    0.0000 C   0  0  0  0  0  0  0  0  0  0  0  0
    2.8660    0.0000    0.0000 C   0  0  0  0  0  0  0  0  0  0  0  0
    4.5981    0.0000    0.0000 C   0  0  0  0  0  0  0  0  0  0  0  0
    2.8660   -1.0000    0.0000 C   0  0  0  0  0  0  0  0  0  0  0  0
    4.5981   -1.0000    0.0000 C   0  0  0  0  0  0  0  0  0  0  0  0
    3.7320   -1.5000    0.0000 C   0  0  0  0  0  0  0  0  0  0  0  0
    2.3291   -1.3100    0.0000 H   0  0  0  0  0  0  0  0  0  0  0  0
    5.1350   -1.3100    0.0000 H   0  0  0  0  0  0  0  0  0  0  0  0
    3.7320   -2.1200    0.0000 H   0  0  0  0  0  0  0  0  0  0  0  0
  1  4  1  0  0  0  0
  2  5  1  0  0  0  0
  3  6  1  0  0  0  0
  4  5  2  0  0  0  0
  4  6  1  0  0  0  0
  5  7  1  0  0  0  0
  6  8  2  0  0  0  0
  7  9  2  0  0  0  0
  7 10  1  0  0  0  0
  8  9  1  0  0  0  0
  8 11  1  0  0  0  0
  9 12  1  0  0  0  0
M  END
> <PUBCHEM_COMPOUND_CID>
11845

> <PUBCHEM_COMPOUND_CANONICALIZED>
1

> <PUBCHEM_CACTVS_COMPLEXITY>
84.3

> <PUBCHEM_CACTVS_HBOND_ACCEPTOR>
0

> <PUBCHEM_CACTVS_HBOND_DONOR>
0

> <PUBCHEM_CACTVS_ROTATABLE_BOND>
0

> <PUBCHEM_CACTVS_SUBSKEYS>
AAADcQBgAAAAAwAAAAAAAAAAAAAAAAAAAAAwAAAAAAAAAAABAAAAGAAgAAAACACCEAAwAIAAAACAACBCAAACAAAgAAAIiAAAAIgIICKAERCAIAAggAAIiAcAAAAAAAAAAAAAAAAAAAAAAAAAAAAAAAAAAA==

> <PUBCHEM_IUPAC_OPENEYE_NAME>
1,2,3-triiodobenzene

> <PUBCHEM_IUPAC_CAS_NAME>
1,2,3-triiodobenzene

> <PUBCHEM_IUPAC_NAME>
1,2,3-triiodobenzene

> <PUBCHEM_IUPAC_SYSTEMATIC_NAME>
1,2,3-tris(iodanyl)benzene

> <PUBCHEM_IUPAC_TRADITIONAL_NAME>
1,2,3-triiodobenzene

> <PUBCHEM_IUPAC_INCHI>
InChI=1S/C6H3I3/c7-4-2-1-3-5(8)6(4)9/h1-3H

> <PUBCHEM_IUPAC_INCHIKEY>
RIWAPWDHHMWTRA-UHFFFAOYSA-N

> <PUBCHEM_XLOGP3_AA>
3.9

> <PUBCHEM_EXACT_MASS>
455.736894

> <PUBCHEM_MOLECULAR_FORMULA>
C6H3I3

> <PUBCHEM_MOLECULAR_WEIGHT>
455.80143

> <PUBCHEM_OPENEYE_CAN_SMILES>
C1=CC(=C(C(=C1)I)I)I

> <PUBCHEM_OPENEYE_ISO_SMILES>
C1=CC(=C(C(=C1)I)I)I

> <PUBCHEM_CACTVS_TPSA>
0

> <PUBCHEM_MONOISOTOPIC_WEIGHT>
455.736894

> <PUBCHEM_TOTAL_CHARGE>
0

> <PUBCHEM_HEAVY_ATOM_COUNT>
9

> <PUBCHEM_ATOM_DEF_STEREO_COUNT>
0

> <PUBCHEM_ATOM_UDEF_STEREO_COUNT>
0

> <PUBCHEM_BOND_DEF_STEREO_COUNT>
0

> <PUBCHEM_BOND_UDEF_STEREO_COUNT>
0

> <PUBCHEM_ISOTOPIC_ATOM_COUNT>
0

> <PUBCHEM_COMPONENT_COUNT>
1

> <PUBCHEM_CACTVS_TAUTO_COUNT>
1

> <PUBCHEM_COORDINATE_TYPE>
1
5
255

> <PUBCHEM_BONDANNOTATIONS>
4  5  8
4  6  8
5  7  8
6  8  8
7  9  8
8  9  8

$$$$

