442941
  -OEChem-07051213002D

 56 61  0     1  0  0  0  0  0999 V2000
    9.9161   -1.9720    0.0000 O   0  0  0  0  0  0  0  0  0  0  0  0
   16.4608    2.5245    0.0000 O   0  0  0  0  0  0  0  0  0  0  0  0
    2.0000   -1.3503    0.0000 O   0  0  0  0  0  0  0  0  0  0  0  0
   10.3644   -0.2990    0.0000 N   0  0  0  0  0  0  0  0  0  0  0  0
    8.6914   -0.7473    0.0000 N   0  0  0  0  0  0  0  0  0  0  0  0
   14.8449    1.8016    0.0000 N   0  0  0  0  0  0  0  0  0  0  0  0
    3.7608   -1.1684    0.0000 N   0  0  0  0  0  0  0  0  0  0  0  0
   11.5990    2.0087    0.0000 C   0  0  1  0  0  0  0  0  0  0  0  0
    6.4683    0.6340    0.0000 C   0  0  1  0  0  0  0  0  0  0  0  0
   12.3061    1.3016    0.0000 C   0  0  1  0  0  0  0  0  0  0  0  0
    6.2095   -0.3320    0.0000 C   0  0  1  0  0  0  0  0  0  0  0  0
   11.7456    3.2280    0.0000 C   0  0  0  0  0  0  0  0  0  0  0  0
    5.7317    1.6166    0.0000 C   0  0  0  0  0  0  0  0  0  0  0  0
   10.2080    0.6887    0.0000 C   0  0  0  0  0  0  0  0  0  0  0  0
    8.3330    0.1863    0.0000 C   0  0  0  0  0  0  0  0  0  0  0  0
   11.3521   -0.4554    0.0000 C   0  0  0  0  0  0  0  0  0  0  0  0
    7.9142   -1.3766    0.0000 C   0  0  0  0  0  0  0  0  0  0  0  0
   14.2571    2.6106    0.0000 C   0  0  0  0  0  0  0  0  0  0  0  0
    3.8654   -0.1739    0.0000 C   0  0  0  0  0  0  0  0  0  0  0  0
   14.2571    0.9926    0.0000 C   0  0  0  0  0  0  0  0  0  0  0  0
    4.6744   -1.5751    0.0000 C   0  0  0  0  0  0  0  0  0  0  0  0
    9.6573   -1.0061    0.0000 C   0  0  0  0  0  0  0  0  0  0  0  0
   14.6661    0.0346    0.0000 C   0  0  0  0  0  0  0  0  0  0  0  0
    4.7992   -2.6092    0.0000 C   0  0  0  0  0  0  0  0  0  0  0  0
   15.8824    1.7087    0.0000 C   0  0  0  0  0  0  0  0  0  0  0  0
    2.9088   -1.7676    0.0000 C   0  0  0  0  0  0  0  0  0  0  0  0
   15.7011   -0.0823    0.0000 C   0  0  0  0  0  0  0  0  0  0  0  0
    3.9612   -3.2280    0.0000 C   0  0  0  0  0  0  0  0  0  0  0  0
   16.3134    0.7604    0.0000 C   0  0  0  0  0  0  0  0  0  0  0  0
    3.0097   -2.8043    0.0000 C   0  0  0  0  0  0  0  0  0  0  0  0
   10.9979    2.6097    0.0000 H   0  0  0  0  0  0  0  0  0  0  0  0
    6.6883    1.4550    0.0000 H   0  0  0  0  0  0  0  0  0  0  0  0
   12.9071    0.7006    0.0000 H   0  0  0  0  0  0  0  0  0  0  0  0
    5.9895   -1.1530    0.0000 H   0  0  0  0  0  0  0  0  0  0  0  0
   12.2306    3.6142    0.0000 H   0  0  0  0  0  0  0  0  0  0  0  0
   11.2042    3.5301    0.0000 H   0  0  0  0  0  0  0  0  0  0  0  0
    6.0495    2.1489    0.0000 H   0  0  0  0  0  0  0  0  0  0  0  0
    5.1186    1.7085    0.0000 H   0  0  0  0  0  0  0  0  0  0  0  0
    9.8794    1.2145    0.0000 H   0  0  0  0  0  0  0  0  0  0  0  0
    9.6272    0.4716    0.0000 H   0  0  0  0  0  0  0  0  0  0  0  0
    8.9445    0.2886    0.0000 H   0  0  0  0  0  0  0  0  0  0  0  0
    8.3546    0.8059    0.0000 H   0  0  0  0  0  0  0  0  0  0  0  0
   11.1864   -1.0529    0.0000 H   0  0  0  0  0  0  0  0  0  0  0  0
   11.9269   -0.6877    0.0000 H   0  0  0  0  0  0  0  0  0  0  0  0
    7.5325   -1.8652    0.0000 H   0  0  0  0  0  0  0  0  0  0  0  0
    8.3564   -1.8112    0.0000 H   0  0  0  0  0  0  0  0  0  0  0  0
   14.8033    2.9041    0.0000 H   0  0  0  0  0  0  0  0  0  0  0  0
   14.0399    3.1913    0.0000 H   0  0  0  0  0  0  0  0  0  0  0  0
    3.7631    0.4376    0.0000 H   0  0  0  0  0  0  0  0  0  0  0  0
    3.2456   -0.1928    0.0000 H   0  0  0  0  0  0  0  0  0  0  0  0
   14.2959   -0.4628    0.0000 H   0  0  0  0  0  0  0  0  0  0  0  0
    5.3685   -2.8548    0.0000 H   0  0  0  0  0  0  0  0  0  0  0  0
   15.9511   -0.6496    0.0000 H   0  0  0  0  0  0  0  0  0  0  0  0
    4.0284   -3.8443    0.0000 H   0  0  0  0  0  0  0  0  0  0  0  0
   16.9302    0.6980    0.0000 H   0  0  0  0  0  0  0  0  0  0  0  0
    2.5067   -3.1668    0.0000 H   0  0  0  0  0  0  0  0  0  0  0  0
  1 22  2  0  0  0  0
  2 25  2  0  0  0  0
  3 26  2  0  0  0  0
  4 14  1  0  0  0  0
  4 16  1  0  0  0  0
  4 22  1  0  0  0  0
  5 15  1  0  0  0  0
  5 17  1  0  0  0  0
  5 22  1  0  0  0  0
  6 18  1  0  0  0  0
  6 20  1  0  0  0  0
  6 25  1  0  0  0  0
  7 19  1  0  0  0  0
  7 21  1  0  0  0  0
  7 26  1  0  0  0  0
  8 12  1  0  0  0  0
  8 14  1  0  0  0  0
  8 18  1  0  0  0  0
  8 31  1  1  0  0  0
  9 13  1  0  0  0  0
  9 15  1  0  0  0  0
  9 19  1  0  0  0  0
  9 32  1  6  0  0  0
 10 12  1  0  0  0  0
 10 16  1  0  0  0  0
 10 20  1  0  0  0  0
 10 33  1  1  0  0  0
 11 13  1  0  0  0  0
 11 17  1  0  0  0  0
 11 21  1  0  0  0  0
 11 34  1  6  0  0  0
 12 35  1  0  0  0  0
 12 36  1  0  0  0  0
 13 37  1  0  0  0  0
 13 38  1  0  0  0  0
 14 39  1  0  0  0  0
 14 40  1  0  0  0  0
 15 41  1  0  0  0  0
 15 42  1  0  0  0  0
 16 43  1  0  0  0  0
 16 44  1  0  0  0  0
 17 45  1  0  0  0  0
 17 46  1  0  0  0  0
 18 47  1  0  0  0  0
 18 48  1  0  0  0  0
 19 49  1  0  0  0  0
 19 50  1  0  0  0  0
 20 23  2  0  0  0  0
 21 24  2  0  0  0  0
 23 27  1  0  0  0  0
 23 51  1  0  0  0  0
 24 28  1  0  0  0  0
 24 52  1  0  0  0  0
 25 29  1  0  0  0  0
 26 30  1  0  0  0  0
 27 29  2  0  0  0  0
 27 53  1  0  0  0  0
 28 30  2  0  0  0  0
 28 54  1  0  0  0  0
 29 55  1  0  0  0  0
 30 56  1  0  0  0  0
M  END
> <PUBCHEM_COMPOUND_CID>
442941

> <PUBCHEM_COMPOUND_CANONICALIZED>
1

> <PUBCHEM_CACTVS_COMPLEXITY>
874

> <PUBCHEM_CACTVS_HBOND_ACCEPTOR>
3

> <PUBCHEM_CACTVS_HBOND_DONOR>
0

> <PUBCHEM_CACTVS_ROTATABLE_BOND>
0

> <PUBCHEM_CACTVS_SUBSKEYS>
AAADceB7sAAAAAAAAAAAAAAAAAAAAAAAAAAsWLFiAAAWLACAAAAAHgAAAAAADQjBgAQBAAMAAACIACVSUACAAAAgAgAICAAIAEiIAAIAwQAEAAAIhgKIgYIQAAAMAAAAAAAAAAAAAAAAAAAAAAAAAAAAAA==

> <PUBCHEM_IUPAC_INCHI>
InChI=1S/C23H26N4O3/c28-21-5-1-3-19-17-7-15(11-26(19)21)9-24(13-17)23(30)25-10-16-8-18(14-25)20-4-2-6-22(29)27(20)12-16/h1-6,15-18H,7-14H2/t15-,16-,17-,18-/m0/s1

> <PUBCHEM_IUPAC_INCHIKEY>
AILDTIZEPVHXBF-XSLAGTTESA-N

> <PUBCHEM_XLOGP3_AA>
0.5

> <PUBCHEM_EXACT_MASS>
406.200491

> <PUBCHEM_MOLECULAR_FORMULA>
C23H26N4O3

> <PUBCHEM_MOLECULAR_WEIGHT>
406.47754

> <PUBCHEM_OPENEYE_CAN_SMILES>
C1C2CN(CC1C3=CC=CC(=O)N3C2)C(=O)N4CC5CC(C4)C6=CC=CC(=O)N6C5

> <PUBCHEM_OPENEYE_ISO_SMILES>
C1[C@H]2CN(C[C@H]1C3=CC=CC(=O)N3C2)C(=O)N4C[C@@H]5C[C@@H](C4)C6=CC=CC(=O)N6C5

> <PUBCHEM_CACTVS_TPSA>
64.2

> <PUBCHEM_MONOISOTOPIC_WEIGHT>
406.200491

> <PUBCHEM_TOTAL_CHARGE>
0

> <PUBCHEM_HEAVY_ATOM_COUNT>
30

> <PUBCHEM_ATOM_DEF_STEREO_COUNT>
4

> <PUBCHEM_ATOM_UDEF_STEREO_COUNT>
0

> <PUBCHEM_BOND_DEF_STEREO_COUNT>
0

> <PUBCHEM_BOND_UDEF_STEREO_COUNT>
0

> <PUBCHEM_ISOTOPIC_ATOM_COUNT>
0

> <PUBCHEM_COMPONENT_COUNT>
1

> <PUBCHEM_CACTVS_TAUTO_COUNT>
6

> <PUBCHEM_COORDINATE_TYPE>
1
5
255

> <PUBCHEM_BONDANNOTATIONS>
10  33  5
11  34  6
20  23  8
21  24  8
23  27  8
24  28  8
25  29  8
26  30  8
27  29  8
28  30  8
6  20  8
6  25  8
7  21  8
7  26  8
8  31  5
9  32  6

$$$$

