107744
  -OEChem-07051212542D

 30 29  0     1  0  0  0  0  0999 V2000
    8.9641   -0.9400    0.0000 Cl  0  0  0  0  0  0  0  0  0  0  0  0
    7.2320    2.0600    0.0000 Cl  0  0  0  0  0  0  0  0  0  0  0  0
    5.5000   -0.9400    0.0000 P   0  0  3  0  0  0  0  0  0  0  0  0
    5.0000   -0.0740    0.0000 O   0  0  0  0  0  0  0  0  0  0  0  0
    6.0000   -1.8060    0.0000 O   0  0  0  0  0  0  0  0  0  0  0  0
    2.0000    1.6581    0.0000 O   0  0  0  0  0  0  0  0  0  0  0  0
    6.3660   -0.4400    0.0000 N   0  0  0  0  0  0  0  0  0  0  0  0
    4.6340   -1.4400    0.0000 N   0  0  0  0  0  0  0  0  0  0  0  0
    7.2320   -0.9400    0.0000 C   0  0  0  0  0  0  0  0  0  0  0  0
    6.3660    0.5600    0.0000 C   0  0  0  0  0  0  0  0  0  0  0  0
    8.0981   -0.4400    0.0000 C   0  0  0  0  0  0  0  0  0  0  0  0
    7.2320    1.0600    0.0000 C   0  0  0  0  0  0  0  0  0  0  0  0
    4.0000   -0.0740    0.0000 C   0  0  0  0  0  0  0  0  0  0  0  0
    3.5000    0.7921    0.0000 C   0  0  0  0  0  0  0  0  0  0  0  0
    2.5000    0.7921    0.0000 C   0  0  0  0  0  0  0  0  0  0  0  0
    6.8335   -1.4150    0.0000 H   0  0  0  0  0  0  0  0  0  0  0  0
    7.6306   -1.4150    0.0000 H   0  0  0  0  0  0  0  0  0  0  0  0
    6.1540    1.1426    0.0000 H   0  0  0  0  0  0  0  0  0  0  0  0
    5.7554    0.4523    0.0000 H   0  0  0  0  0  0  0  0  0  0  0  0
    8.4966    0.0349    0.0000 H   0  0  0  0  0  0  0  0  0  0  0  0
    7.6996    0.0349    0.0000 H   0  0  0  0  0  0  0  0  0  0  0  0
    7.4441    0.4774    0.0000 H   0  0  0  0  0  0  0  0  0  0  0  0
    7.8426    1.1677    0.0000 H   0  0  0  0  0  0  0  0  0  0  0  0
    3.4174   -0.2860    0.0000 H   0  0  0  0  0  0  0  0  0  0  0  0
    4.1077   -0.6846    0.0000 H   0  0  0  0  0  0  0  0  0  0  0  0
    4.0970   -1.1300    0.0000 H   0  0  0  0  0  0  0  0  0  0  0  0
    4.6340   -2.0600    0.0000 H   0  0  0  0  0  0  0  0  0  0  0  0
    4.0826    1.0041    0.0000 H   0  0  0  0  0  0  0  0  0  0  0  0
    3.3923    1.4026    0.0000 H   0  0  0  0  0  0  0  0  0  0  0  0
    2.1900    0.2551    0.0000 H   0  0  0  0  0  0  0  0  0  0  0  0
  1 11  1  0  0  0  0
  2 12  1  0  0  0  0
  3  4  1  0  0  0  0
  3  5  2  0  0  0  0
  3  7  1  0  0  0  0
  3  8  1  0  0  0  0
  4 13  1  0  0  0  0
  6 15  2  0  0  0  0
  7  9  1  0  0  0  0
  7 10  1  0  0  0  0
  8 26  1  0  0  0  0
  8 27  1  0  0  0  0
  9 11  1  0  0  0  0
  9 16  1  0  0  0  0
  9 17  1  0  0  0  0
 10 12  1  0  0  0  0
 10 18  1  0  0  0  0
 10 19  1  0  0  0  0
 11 20  1  0  0  0  0
 11 21  1  0  0  0  0
 12 22  1  0  0  0  0
 12 23  1  0  0  0  0
 13 14  1  0  0  0  0
 13 24  1  0  0  0  0
 13 25  1  0  0  0  0
 14 15  1  0  0  0  0
 14 28  1  0  0  0  0
 14 29  1  0  0  0  0
 15 30  1  0  0  0  0
M  END
> <PUBCHEM_COMPOUND_CID>
107744

> <PUBCHEM_COMPOUND_CANONICALIZED>
1

> <PUBCHEM_CACTVS_COMPLEXITY>
224

> <PUBCHEM_CACTVS_HBOND_ACCEPTOR>
5

> <PUBCHEM_CACTVS_HBOND_DONOR>
1

> <PUBCHEM_CACTVS_ROTATABLE_BOND>
9

> <PUBCHEM_CACTVS_SUBSKEYS>
AAADccBjMAIGAAAAAAAAAAAAAAAAAAAAAAAAAAAAAAAAAAAAAAAAHgIQgCAACAPhgEYAAAIAARAIQAgQgIAAAAAAAAAAAAEIAAAAAAQAAABAAAAAIACAAAAAAAAAAAAAAAAAAAAAAAAAAAAAAAAAAAAAAA==

> <PUBCHEM_IUPAC_OPENEYE_NAME>
3-[amino-[bis(2-chloroethyl)amino]phosphoryl]oxypropanal

> <PUBCHEM_IUPAC_CAS_NAME>
3-[amino-[bis(2-chloroethyl)amino]phosphoryl]oxypropanal

> <PUBCHEM_IUPAC_NAME>
3-[amino-[bis(2-chloroethyl)amino]phosphoryl]oxypropanal

> <PUBCHEM_IUPAC_SYSTEMATIC_NAME>
3-[azanyl-[bis(2-chloroethyl)amino]phosphoryl]oxypropanal

> <PUBCHEM_IUPAC_TRADITIONAL_NAME>
3-[amino-[bis(2-chloroethyl)amino]phosphoryl]oxypropionaldehyde

> <PUBCHEM_IUPAC_INCHI>
InChI=1S/C7H15Cl2N2O3P/c8-2-4-11(5-3-9)15(10,13)14-7-1-6-12/h6H,1-5,7H2,(H2,10,13)

> <PUBCHEM_IUPAC_INCHIKEY>
QMGUSPDJTPDFSF-UHFFFAOYSA-N

> <PUBCHEM_XLOGP3_AA>
-0.5

> <PUBCHEM_EXACT_MASS>
276.019734

> <PUBCHEM_MOLECULAR_FORMULA>
C7H15Cl2N2O3P

> <PUBCHEM_MOLECULAR_WEIGHT>
277.085362

> <PUBCHEM_OPENEYE_CAN_SMILES>
C(COP(=O)(N)N(CCCl)CCCl)C=O

> <PUBCHEM_OPENEYE_ISO_SMILES>
C(COP(=O)(N)N(CCCl)CCCl)C=O

> <PUBCHEM_CACTVS_TPSA>
72.6

> <PUBCHEM_MONOISOTOPIC_WEIGHT>
276.019734

> <PUBCHEM_TOTAL_CHARGE>
0

> <PUBCHEM_HEAVY_ATOM_COUNT>
15

> <PUBCHEM_ATOM_DEF_STEREO_COUNT>
0

> <PUBCHEM_ATOM_UDEF_STEREO_COUNT>
1

> <PUBCHEM_BOND_DEF_STEREO_COUNT>
0

> <PUBCHEM_BOND_UDEF_STEREO_COUNT>
0

> <PUBCHEM_ISOTOPIC_ATOM_COUNT>
0

> <PUBCHEM_COMPONENT_COUNT>
1

> <PUBCHEM_CACTVS_TAUTO_COUNT>
4

> <PUBCHEM_COORDINATE_TYPE>
1
5
255

> <PUBCHEM_BONDANNOTATIONS>
3  8  3

$$$$

