56928151
  -OEChem-07051213152D

 96 99  0     1  0  0  0  0  0999 V2000
    6.3155   -0.4385    0.0000 O   0  0  0  0  0  0  0  0  0  0  0  0
    3.3100    1.5274    0.0000 O   0  0  0  0  0  0  0  0  0  0  0  0
    9.5062    2.2600    0.0000 O   0  0  0  0  0  0  0  0  0  0  0  0
    8.7814   -1.5633    0.0000 O   0  0  0  0  0  0  0  0  0  0  0  0
    2.3100    2.5274    0.0000 O   0  0  0  0  0  0  0  0  0  0  0  0
    3.6760    3.8935    0.0000 O   0  0  0  0  0  0  0  0  0  0  0  0
   11.4976    0.6580    0.0000 O   0  0  0  0  0  0  0  0  0  0  0  0
    2.4440    4.0274    0.0000 O   0  0  0  0  0  0  0  0  0  0  0  0
    6.7741    0.5274    0.0000 O   0  0  0  0  0  0  0  0  0  0  0  0
    9.1509    0.2941    0.0000 O   0  0  0  0  0  0  0  0  0  0  0  0
    5.9081    2.0274    0.0000 O   0  0  0  0  0  0  0  0  0  0  0  0
    5.8155    0.4275    0.0000 C   0  0  3  0  0  0  0  0  0  0  0  0
    4.1760    1.0274    0.0000 C   0  0  3  0  0  0  0  0  0  0  0  0
    7.2814   -0.6973    0.0000 C   0  0  3  0  0  0  0  0  0  0  0  0
    5.0420    0.5274    0.0000 C   0  0  0  0  0  0  0  0  0  0  0  0
    5.5982   -0.5504    0.0000 C   0  0  0  0  0  0  0  0  0  0  0  0
    6.3930   -1.1603    0.0000 C   0  0  0  0  0  0  0  0  0  0  0  0
    3.3100    2.5274    0.0000 C   0  0  3  0  0  0  0  0  0  0  0  0
    5.0420    1.5274    0.0000 C   0  0  0  0  0  0  0  0  0  0  0  0
    7.7814   -1.5633    0.0000 C   0  0  3  0  0  0  0  0  0  0  0  0
   10.0062    1.3935    0.0000 C   0  0  3  0  0  0  0  0  0  0  0  0
    4.1760    3.0274    0.0000 C   0  0  3  0  0  0  0  0  0  0  0  0
    5.0420    2.5274    0.0000 C   0  0  0  0  0  0  0  0  0  0  0  0
    9.0062    1.3935    0.0000 C   0  0  3  0  0  0  0  0  0  0  0  0
   10.5062    0.5274    0.0000 C   0  0  3  0  0  0  0  0  0  0  0  0
    3.3100    3.5274    0.0000 C   0  0  3  0  0  0  0  0  0  0  0  0
   10.2473   -0.4385    0.0000 C   0  0  3  0  0  0  0  0  0  0  0  0
    7.2814   -2.4294    0.0000 C   0  0  0  0  0  0  0  0  0  0  0  0
    8.5062    0.5274    0.0000 C   0  0  0  0  0  0  0  0  0  0  0  0
    4.1760    4.0274    0.0000 C   0  0  0  0  0  0  0  0  0  0  0  0
    9.2814   -0.6973    0.0000 C   0  0  0  0  0  0  0  0  0  0  0  0
    7.7814   -3.2954    0.0000 C   0  0  0  0  0  0  0  0  0  0  0  0
    7.6401    1.0274    0.0000 C   0  0  3  0  0  0  0  0  0  0  0  0
   10.9544   -1.1456    0.0000 C   0  0  0  0  0  0  0  0  0  0  0  0
    7.6401    2.0274    0.0000 C   0  0  0  0  0  0  0  0  0  0  0  0
    5.0420    3.5274    0.0000 C   0  0  0  0  0  0  0  0  0  0  0  0
    7.2814   -4.1614    0.0000 C   0  0  0  0  0  0  0  0  0  0  0  0
    8.2473   -0.4385    0.0000 C   0  0  0  0  0  0  0  0  0  0  0  0
    6.7741    3.5274    0.0000 C   0  0  3  0  0  0  0  0  0  0  0  0
    5.9081    4.0274    0.0000 C   0  0  0  0  0  0  0  0  0  0  0  0
    6.7741    2.5274    0.0000 C   0  0  0  0  0  0  0  0  0  0  0  0
    7.7814   -5.0274    0.0000 C   0  0  0  0  0  0  0  0  0  0  0  0
    7.6401    4.0274    0.0000 C   0  0  0  0  0  0  0  0  0  0  0  0
    5.9081    5.0274    0.0000 C   0  0  0  0  0  0  0  0  0  0  0  0
    6.1593    0.9435    0.0000 H   0  0  0  0  0  0  0  0  0  0  0  0
    3.8660    0.4905    0.0000 H   0  0  0  0  0  0  0  0  0  0  0  0
    7.6588   -0.2054    0.0000 H   0  0  0  0  0  0  0  0  0  0  0  0
    4.5505    0.1496    0.0000 H   0  0  0  0  0  0  0  0  0  0  0  0
    5.2406    1.1148    0.0000 H   0  0  0  0  0  0  0  0  0  0  0  0
    5.0188   -0.3298    0.0000 H   0  0  0  0  0  0  0  0  0  0  0  0
    5.2960   -1.0918    0.0000 H   0  0  0  0  0  0  0  0  0  0  0  0
    5.9483   -1.5923    0.0000 H   0  0  0  0  0  0  0  0  0  0  0  0
    6.7561   -1.6628    0.0000 H   0  0  0  0  0  0  0  0  0  0  0  0
    5.2541    0.9448    0.0000 H   0  0  0  0  0  0  0  0  0  0  0  0
    5.6526    1.6351    0.0000 H   0  0  0  0  0  0  0  0  0  0  0  0
    8.0914   -2.1003    0.0000 H   0  0  0  0  0  0  0  0  0  0  0  0
   10.5431    1.7034    0.0000 H   0  0  0  0  0  0  0  0  0  0  0  0
    4.6144    3.4658    0.0000 H   0  0  0  0  0  0  0  0  0  0  0  0
    5.6526    2.4198    0.0000 H   0  0  0  0  0  0  0  0  0  0  0  0
    5.2541    3.1101    0.0000 H   0  0  0  0  0  0  0  0  0  0  0  0
    8.4692    1.7034    0.0000 H   0  0  0  0  0  0  0  0  0  0  0  0
   10.7804    1.0835    0.0000 H   0  0  0  0  0  0  0  0  0  0  0  0
    3.3100    4.1474    0.0000 H   0  0  0  0  0  0  0  0  0  0  0  0
   10.8462   -0.2780    0.0000 H   0  0  0  0  0  0  0  0  0  0  0  0
    6.8065   -2.0308    0.0000 H   0  0  0  0  0  0  0  0  0  0  0  0
    6.8065   -2.8279    0.0000 H   0  0  0  0  0  0  0  0  0  0  0  0
    4.5746    4.5024    0.0000 H   0  0  0  0  0  0  0  0  0  0  0  0
    3.7775    4.5024    0.0000 H   0  0  0  0  0  0  0  0  0  0  0  0
    8.2564   -3.6939    0.0000 H   0  0  0  0  0  0  0  0  0  0  0  0
    8.2564   -2.8969    0.0000 H   0  0  0  0  0  0  0  0  0  0  0  0
    7.1032    1.3374    0.0000 H   0  0  0  0  0  0  0  0  0  0  0  0
    2.0000    1.9905    0.0000 H   0  0  0  0  0  0  0  0  0  0  0  0
   10.5160   -1.5840    0.0000 H   0  0  0  0  0  0  0  0  0  0  0  0
   11.3928   -1.5840    0.0000 H   0  0  0  0  0  0  0  0  0  0  0  0
   11.3928   -0.7072    0.0000 H   0  0  0  0  0  0  0  0  0  0  0  0
    3.6760    4.5135    0.0000 H   0  0  0  0  0  0  0  0  0  0  0  0
   11.7349    1.2308    0.0000 H   0  0  0  0  0  0  0  0  0  0  0  0
    8.2507    1.9198    0.0000 H   0  0  0  0  0  0  0  0  0  0  0  0
    7.8522    2.6101    0.0000 H   0  0  0  0  0  0  0  0  0  0  0  0
    5.4407    3.0526    0.0000 H   0  0  0  0  0  0  0  0  0  0  0  0
    6.8065   -3.7629    0.0000 H   0  0  0  0  0  0  0  0  0  0  0  0
    6.8065   -4.5599    0.0000 H   0  0  0  0  0  0  0  0  0  0  0  0
    2.4440    4.6474    0.0000 H   0  0  0  0  0  0  0  0  0  0  0  0
    7.6485   -0.5990    0.0000 H   0  0  0  0  0  0  0  0  0  0  0  0
    8.6857   -0.8769    0.0000 H   0  0  0  0  0  0  0  0  0  0  0  0
    6.7741    4.1474    0.0000 H   0  0  0  0  0  0  0  0  0  0  0  0
    6.4641    1.0644    0.0000 H   0  0  0  0  0  0  0  0  0  0  0  0
    7.2445   -5.3374    0.0000 H   0  0  0  0  0  0  0  0  0  0  0  0
    8.0914   -5.5644    0.0000 H   0  0  0  0  0  0  0  0  0  0  0  0
    8.3183   -4.7174    0.0000 H   0  0  0  0  0  0  0  0  0  0  0  0
    7.9501    3.4905    0.0000 H   0  0  0  0  0  0  0  0  0  0  0  0
    8.1771    4.3374    0.0000 H   0  0  0  0  0  0  0  0  0  0  0  0
    7.3301    4.5644    0.0000 H   0  0  0  0  0  0  0  0  0  0  0  0
    6.5281    5.0274    0.0000 H   0  0  0  0  0  0  0  0  0  0  0  0
    5.9081    5.6474    0.0000 H   0  0  0  0  0  0  0  0  0  0  0  0
    5.2881    5.0274    0.0000 H   0  0  0  0  0  0  0  0  0  0  0  0
  1 12  1  0  0  0  0
  1 14  1  0  0  0  0
  2 13  1  0  0  0  0
  2 18  1  0  0  0  0
  3 21  1  0  0  0  0
  3 24  1  0  0  0  0
  4 20  1  0  0  0  0
  4 31  1  0  0  0  0
  5 18  1  0  0  0  0
  5 72  1  0  0  0  0
  6 22  1  0  0  0  0
  6 76  1  0  0  0  0
  7 25  1  0  0  0  0
  7 77  1  0  0  0  0
  8 26  1  0  0  0  0
  8 83  1  0  0  0  0
  9 33  1  0  0  0  0
  9 87  1  0  0  0  0
 10 31  2  0  0  0  0
 11 41  2  0  0  0  0
 12 15  1  0  0  0  0
 12 16  1  0  0  0  0
 12 45  1  0  0  0  0
 13 15  1  0  0  0  0
 13 19  1  0  0  0  0
 13 46  1  0  0  0  0
 14 17  1  0  0  0  0
 14 20  1  0  0  0  0
 14 47  1  0  0  0  0
 15 48  1  0  0  0  0
 15 49  1  0  0  0  0
 16 17  1  0  0  0  0
 16 50  1  0  0  0  0
 16 51  1  0  0  0  0
 17 52  1  0  0  0  0
 17 53  1  0  0  0  0
 18 22  1  0  0  0  0
 18 26  1  0  0  0  0
 19 23  1  0  0  0  0
 19 54  1  0  0  0  0
 19 55  1  0  0  0  0
 20 28  1  0  0  0  0
 20 56  1  0  0  0  0
 21 24  1  0  0  0  0
 21 25  1  0  0  0  0
 21 57  1  0  0  0  0
 22 23  1  0  0  0  0
 22 58  1  0  0  0  0
 23 59  1  0  0  0  0
 23 60  1  0  0  0  0
 24 29  1  0  0  0  0
 24 61  1  0  0  0  0
 25 27  1  0  0  0  0
 25 62  1  0  0  0  0
 26 30  1  0  0  0  0
 26 63  1  0  0  0  0
 27 31  1  0  0  0  0
 27 34  1  0  0  0  0
 27 64  1  0  0  0  0
 28 32  1  0  0  0  0
 28 65  1  0  0  0  0
 28 66  1  0  0  0  0
 29 33  1  0  0  0  0
 29 38  2  0  0  0  0
 30 36  1  0  0  0  0
 30 67  1  0  0  0  0
 30 68  1  0  0  0  0
 32 37  1  0  0  0  0
 32 69  1  0  0  0  0
 32 70  1  0  0  0  0
 33 35  1  0  0  0  0
 33 71  1  0  0  0  0
 34 73  1  0  0  0  0
 34 74  1  0  0  0  0
 34 75  1  0  0  0  0
 35 41  1  0  0  0  0
 35 78  1  0  0  0  0
 35 79  1  0  0  0  0
 36 40  2  0  0  0  0
 36 80  1  0  0  0  0
 37 42  1  0  0  0  0
 37 81  1  0  0  0  0
 37 82  1  0  0  0  0
 38 84  1  0  0  0  0
 38 85  1  0  0  0  0
 39 40  1  0  0  0  0
 39 41  1  0  0  0  0
 39 43  1  0  0  0  0
 39 86  1  0  0  0  0
 40 44  1  0  0  0  0
 42 88  1  0  0  0  0
 42 89  1  0  0  0  0
 42 90  1  0  0  0  0
 43 91  1  0  0  0  0
 43 92  1  0  0  0  0
 43 93  1  0  0  0  0
 44 94  1  0  0  0  0
 44 95  1  0  0  0  0
 44 96  1  0  0  0  0
M  END
> <PUBCHEM_COMPOUND_CID>
56928151

> <PUBCHEM_COMPOUND_CANONICALIZED>
1

> <PUBCHEM_CACTVS_COMPLEXITY>
1060

> <PUBCHEM_CACTVS_HBOND_ACCEPTOR>
11

> <PUBCHEM_CACTVS_HBOND_DONOR>
5

> <PUBCHEM_CACTVS_ROTATABLE_BOND>
3

> <PUBCHEM_CACTVS_SUBSKEYS>
AAADcfB8PAAAAAAAAAAAAAAAEgAAASAAAAAkAAAAAAAAAAAAAAAAGgAACAAADRSggAICCAAABgCIAqDSCAAAAAAgAAAACAEAAAgRFBYAIQACQAAF4AAPMAPK7OzOAAAAAAAAAAAAAAAAAAAAAAAAAAAAAA==

> <PUBCHEM_IUPAC_INCHI>
InChI=1S/C33H52O11/c1-6-7-8-25-26-12-10-21(41-26)15-22-11-14-28(37)33(40,44-22)27(36)13-9-17(2)18(3)23(34)16-24(35)19(4)30-31(43-30)29(38)20(5)32(39)42-25/h9,18,20-22,24-31,35-38,40H,4,6-8,10-16H2,1-3,5H3/b17-9+

> <PUBCHEM_IUPAC_INCHIKEY>
NCSDSPZVIVCVMZ-RQZCQDPDSA-N

> <PUBCHEM_XLOGP3_AA>
1.3

> <PUBCHEM_EXACT_MASS>
624.350962

> <PUBCHEM_MOLECULAR_FORMULA>
C33H52O11

> <PUBCHEM_MOLECULAR_WEIGHT>
624.75938

> <PUBCHEM_OPENEYE_CAN_SMILES>
CCCCC1C2CCC(O2)CC3CCC(C(O3)(C(CC=C(C(C(=O)CC(C(=C)C4C(O4)C(C(C(=O)O1)C)O)O)C)C)O)O)O

> <PUBCHEM_OPENEYE_ISO_SMILES>
CCCCC1C2CCC(O2)CC3CCC(C(O3)(C(C/C=C(/C(C(=O)CC(C(=C)C4C(O4)C(C(C(=O)O1)C)O)O)C)\C)O)O)O

> <PUBCHEM_CACTVS_TPSA>
176

> <PUBCHEM_MONOISOTOPIC_WEIGHT>
624.350962

> <PUBCHEM_TOTAL_CHARGE>
0

> <PUBCHEM_HEAVY_ATOM_COUNT>
44

> <PUBCHEM_ATOM_DEF_STEREO_COUNT>
0

> <PUBCHEM_ATOM_UDEF_STEREO_COUNT>
13

> <PUBCHEM_BOND_DEF_STEREO_COUNT>
1

> <PUBCHEM_BOND_UDEF_STEREO_COUNT>
0

> <PUBCHEM_ISOTOPIC_ATOM_COUNT>
0

> <PUBCHEM_COMPONENT_COUNT>
1

> <PUBCHEM_CACTVS_TAUTO_COUNT>
1

> <PUBCHEM_COORDINATE_TYPE>
1
5
255

> <PUBCHEM_BONDANNOTATIONS>
12  15  3
13  19  3
14  17  3
20  28  3
24  29  3
27  34  3
21  3  3
39  43  3
18  5  3
22  6  3
25  7  3
26  8  3
33  9  3

$$$$

