441172
  -OEChem-07051212522D

 61 65  0     1  0  0  0  0  0999 V2000
    2.5405    0.9825    0.0000 O   0  0  0  0  0  0  0  0  0  0  0  0
    2.5247   -1.0658    0.0000 O   0  0  0  0  0  0  0  0  0  0  0  0
    3.4446    2.4793    0.0000 O   0  0  0  0  0  0  0  0  0  0  0  0
    6.9088    0.4793    0.0000 O   0  0  0  0  0  0  0  0  0  0  0  0
    7.0009   -0.5662    0.0000 O   0  0  0  0  0  0  0  0  0  0  0  0
    4.2889    4.0108    0.0000 O   0  0  0  0  0  0  0  0  0  0  0  0
    7.8129    1.9762    0.0000 O   0  0  0  0  0  0  0  0  0  0  0  0
    7.8934   -2.1476    0.0000 O   0  0  0  0  0  0  0  0  0  0  0  0
    5.1702    5.6234    0.0000 O   0  0  0  0  0  0  0  0  0  0  0  0
    8.7850    5.6374    0.0000 O   0  0  0  0  0  0  0  0  0  0  0  0
    8.7998   -5.6374    0.0000 O   0  0  0  0  0  0  0  0  0  0  0  0
    7.0678   -5.6574    0.0000 O   0  0  0  0  0  0  0  0  0  0  0  0
    7.0447   -3.6576    0.0000 N   0  0  0  0  0  0  0  0  0  0  0  0
    3.4007    0.4725    0.0000 C   0  0  2  0  0  0  0  0  0  0  0  0
    3.3926   -0.5691    0.0000 C   0  0  2  0  0  0  0  0  0  0  0  0
    4.3107    0.9793    0.0000 C   0  0  0  0  0  0  0  0  0  0  0  0
    5.1767    0.4793    0.0000 C   0  0  0  0  0  0  0  0  0  0  0  0
    4.2947   -1.0899    0.0000 C   0  0  0  0  0  0  0  0  0  0  0  0
    5.1928   -0.5622    0.0000 C   0  0  0  0  0  0  0  0  0  0  0  0
    4.3107    1.9793    0.0000 C   0  0  0  0  0  0  0  0  0  0  0  0
    6.0427    0.9793    0.0000 C   0  0  0  0  0  0  0  0  0  0  0  0
    5.1767    2.4793    0.0000 C   0  0  0  0  0  0  0  0  0  0  0  0
    6.0427    1.9793    0.0000 C   0  0  0  0  0  0  0  0  0  0  0  0
    6.1447   -1.0828    0.0000 C   0  0  0  0  0  0  0  0  0  0  0  0
    4.2864   -2.1749    0.0000 C   0  0  0  0  0  0  0  0  0  0  0  0
    5.2260   -2.7174    0.0000 C   0  0  0  0  0  0  0  0  0  0  0  0
    6.1614   -2.1677    0.0000 C   0  0  0  0  0  0  0  0  0  0  0  0
    5.1606    3.5208    0.0000 C   0  0  0  0  0  0  0  0  0  0  0  0
    6.9527    2.4862    0.0000 C   0  0  0  0  0  0  0  0  0  0  0  0
    6.0587    4.0486    0.0000 C   0  0  0  0  0  0  0  0  0  0  0  0
    6.9608    3.5278    0.0000 C   0  0  0  0  0  0  0  0  0  0  0  0
    5.2298   -3.7174    0.0000 C   0  0  0  0  0  0  0  0  0  0  0  0
    7.0332   -2.6576    0.0000 C   0  0  0  0  0  0  0  0  0  0  0  0
    6.0420    5.1335    0.0000 C   0  0  0  0  0  0  0  0  0  0  0  0
    7.9086    4.0557    0.0000 C   0  0  0  0  0  0  0  0  0  0  0  0
    7.9170    5.1407    0.0000 C   0  0  0  0  0  0  0  0  0  0  0  0
    6.9774    5.6832    0.0000 C   0  0  0  0  0  0  0  0  0  0  0  0
    7.9165   -4.1475    0.0000 C   0  0  3  0  0  0  0  0  0  0  0  0
    8.7767   -3.6375    0.0000 C   0  0  0  0  0  0  0  0  0  0  0  0
    7.9280   -5.1474    0.0000 C   0  0  0  0  0  0  0  0  0  0  0  0
    3.4090    1.0924    0.0000 H   0  0  0  0  0  0  0  0  0  0  0  0
    2.8575   -0.2560    0.0000 H   0  0  0  0  0  0  0  0  0  0  0  0
    3.7482   -2.4828    0.0000 H   0  0  0  0  0  0  0  0  0  0  0  0
    2.0000    0.6787    0.0000 H   0  0  0  0  0  0  0  0  0  0  0  0
    2.5223   -1.6858    0.0000 H   0  0  0  0  0  0  0  0  0  0  0  0
    4.6098   -3.7198    0.0000 H   0  0  0  0  0  0  0  0  0  0  0  0
    5.2322   -4.3374    0.0000 H   0  0  0  0  0  0  0  0  0  0  0  0
    5.8498   -3.7150    0.0000 H   0  0  0  0  0  0  0  0  0  0  0  0
    2.9077    2.1693    0.0000 H   0  0  0  0  0  0  0  0  0  0  0  0
    7.4457    0.7893    0.0000 H   0  0  0  0  0  0  0  0  0  0  0  0
    7.5437   -0.8658    0.0000 H   0  0  0  0  0  0  0  0  0  0  0  0
    8.4420    3.7395    0.0000 H   0  0  0  0  0  0  0  0  0  0  0  0
    6.5114   -3.9737    0.0000 H   0  0  0  0  0  0  0  0  0  0  0  0
    6.9750    6.3032    0.0000 H   0  0  0  0  0  0  0  0  0  0  0  0
    7.9066   -3.2976    0.0000 H   0  0  0  0  0  0  0  0  0  0  0  0
    5.1630    6.2434    0.0000 H   0  0  0  0  0  0  0  0  0  0  0  0
    9.0928   -4.1708    0.0000 H   0  0  0  0  0  0  0  0  0  0  0  0
    9.3100   -3.3213    0.0000 H   0  0  0  0  0  0  0  0  0  0  0  0
    8.4605   -3.1042    0.0000 H   0  0  0  0  0  0  0  0  0  0  0  0
    8.7873    6.2573    0.0000 H   0  0  0  0  0  0  0  0  0  0  0  0
    8.8070   -6.2573    0.0000 H   0  0  0  0  0  0  0  0  0  0  0  0
 14  1  1  1  0  0  0
  1 44  1  0  0  0  0
 15  2  1  6  0  0  0
  2 45  1  0  0  0  0
  3 20  1  0  0  0  0
  3 49  1  0  0  0  0
  4 21  1  0  0  0  0
  4 50  1  0  0  0  0
  5 24  1  0  0  0  0
  5 51  1  0  0  0  0
  6 28  2  0  0  0  0
  7 29  2  0  0  0  0
  8 33  2  0  0  0  0
  9 34  1  0  0  0  0
  9 56  1  0  0  0  0
 10 36  1  0  0  0  0
 10 60  1  0  0  0  0
 11 40  1  0  0  0  0
 11 61  1  0  0  0  0
 12 40  2  0  0  0  0
 13 33  1  0  0  0  0
 13 38  1  0  0  0  0
 13 53  1  0  0  0  0
 14 15  1  0  0  0  0
 14 16  1  0  0  0  0
 14 41  1  0  0  0  0
 15 18  1  0  0  0  0
 15 42  1  0  0  0  0
 16 17  2  0  0  0  0
 16 20  1  0  0  0  0
 17 19  1  0  0  0  0
 17 21  1  0  0  0  0
 18 19  1  0  0  0  0
 18 25  2  0  0  0  0
 19 24  2  0  0  0  0
 20 22  2  0  0  0  0
 21 23  2  0  0  0  0
 22 23  1  0  0  0  0
 22 28  1  0  0  0  0
 23 29  1  0  0  0  0
 24 27  1  0  0  0  0
 25 26  1  0  0  0  0
 25 43  1  0  0  0  0
 26 27  2  0  0  0  0
 26 32  1  0  0  0  0
 27 33  1  0  0  0  0
 28 30  1  0  0  0  0
 29 31  1  0  0  0  0
 30 31  1  0  0  0  0
 30 34  2  0  0  0  0
 31 35  2  0  0  0  0
 32 46  1  0  0  0  0
 32 47  1  0  0  0  0
 32 48  1  0  0  0  0
 34 37  1  0  0  0  0
 35 36  1  0  0  0  0
 35 52  1  0  0  0  0
 36 37  2  0  0  0  0
 37 54  1  0  0  0  0
 38 39  1  0  0  0  0
 38 40  1  0  0  0  0
 38 55  1  0  0  0  0
 39 57  1  0  0  0  0
 39 58  1  0  0  0  0
 39 59  1  0  0  0  0
M  END
> <PUBCHEM_COMPOUND_CID>
441172

> <PUBCHEM_COMPOUND_CANONICALIZED>
1

> <PUBCHEM_CACTVS_COMPLEXITY>
1070

> <PUBCHEM_CACTVS_HBOND_ACCEPTOR>
12

> <PUBCHEM_CACTVS_HBOND_DONOR>
9

> <PUBCHEM_CACTVS_ROTATABLE_BOND>
3

> <PUBCHEM_CACTVS_SUBSKEYS>
AAADceB6PAAAAAAAAAAAAAAAAAAAAAAAAAAwYMGDAAAAAADBUAAAHgAQCAAADDzhmAYyDoLAAgCIAqHSGACCAAAkIAAAiIGODMgLNzaClTOEcUhn9hWZmYfb7PTO4QADCAAYAADCAAYQADCAAAAAAAAAAA==

> <PUBCHEM_IUPAC_OPENEYE_NAME>
2-[[(5S,6S)-1,5,6,7,9,11,14-heptahydroxy-3-methyl-8,13-dioxo-5,6-dihydrobenzo[a]tetracene-2-carbonyl]amino]propanoic acid

> <PUBCHEM_IUPAC_CAS_NAME>
2-[[[(5S,6S)-1,5,6,7,9,11,14-heptahydroxy-3-methyl-8,13-dioxo-5,6-dihydrobenzo[a]tetracen-2-yl]-oxomethyl]amino]propanoic acid

> <PUBCHEM_IUPAC_NAME>
2-[[(5S,6S)-1,5,6,7,9,11,14-heptahydroxy-3-methyl-8,13-dioxo-5,6-dihydrobenzo[a]tetracene-2-carbonyl]amino]propanoic acid

> <PUBCHEM_IUPAC_SYSTEMATIC_NAME>
2-[[(5S,6S)-3-methyl-1,5,6,7,9,11,14-heptakis(oxidanyl)-8,13-bis(oxidanylidene)-5,6-dihydrobenzo[a]tetracen-2-yl]carbonylamino]propanoic acid

> <PUBCHEM_IUPAC_TRADITIONAL_NAME>
2-[[(5S,6S)-1,5,6,7,9,11,14-heptahydroxy-8,13-diketo-3-methyl-5,6-dihydrobenzo[a]tetracene-2-carbonyl]amino]propionic acid

> <PUBCHEM_IUPAC_INCHI>
InChI=1S/C27H21NO12/c1-6-3-9-14(21(33)12(6)26(38)28-7(2)27(39)40)15-16(25(37)20(9)32)24(36)18-17(23(15)35)19(31)10-4-8(29)5-11(30)13(10)22(18)34/h3-5,7,20,25,29-30,32-33,35-37H,1-2H3,(H,28,38)(H,39,40)/t7?,20-,25-/m0/s1

> <PUBCHEM_IUPAC_INCHIKEY>
ZYIREGFVRPWOMN-MAVRXOSISA-N

> <PUBCHEM_XLOGP3_AA>
2.1

> <PUBCHEM_EXACT_MASS>
551.106375

> <PUBCHEM_MOLECULAR_FORMULA>
C27H21NO12

> <PUBCHEM_MOLECULAR_WEIGHT>
551.45514

> <PUBCHEM_OPENEYE_CAN_SMILES>
CC1=C(C(=C2C(=C1)C(C(C3=C2C(=C4C(=C3O)C(=O)C5=C(C=C(C=C5C4=O)O)O)O)O)O)O)C(=O)NC(C)C(=O)O

> <PUBCHEM_OPENEYE_ISO_SMILES>
CC1=C(C(=C2C(=C1)[C@@H]([C@H](C3=C2C(=C4C(=C3O)C(=O)C5=C(C=C(C=C5C4=O)O)O)O)O)O)O)C(=O)NC(C)C(=O)O

> <PUBCHEM_CACTVS_TPSA>
242

> <PUBCHEM_MONOISOTOPIC_WEIGHT>
551.106375

> <PUBCHEM_TOTAL_CHARGE>
0

> <PUBCHEM_HEAVY_ATOM_COUNT>
40

> <PUBCHEM_ATOM_DEF_STEREO_COUNT>
2

> <PUBCHEM_ATOM_UDEF_STEREO_COUNT>
1

> <PUBCHEM_BOND_DEF_STEREO_COUNT>
0

> <PUBCHEM_BOND_UDEF_STEREO_COUNT>
0

> <PUBCHEM_ISOTOPIC_ATOM_COUNT>
0

> <PUBCHEM_COMPONENT_COUNT>
1

> <PUBCHEM_CACTVS_TAUTO_COUNT>
994

> <PUBCHEM_COORDINATE_TYPE>
1
5
255

> <PUBCHEM_BONDANNOTATIONS>
14  1  5
16  17  8
16  20  8
17  21  8
18  19  8
18  25  8
19  24  8
15  2  6
20  22  8
21  23  8
22  23  8
24  27  8
25  26  8
26  27  8
30  31  8
30  34  8
31  35  8
34  37  8
35  36  8
36  37  8
38  55  3

$$$$

