   Boiling Point
        151 deg C
   from [1]HSDB

   Density/Specific Gravity
        Specific gravity = 0.872 at 20 deg C
   from [2]HSDB

   Octanol/Water Partition Coefficient
        log Kow = 0.87 /Estimated/
   from [3]HSDB

   Solubilities
        In water, 1.73X10+5 mg/L at 20 deg C
   from [4]HSDB

   Spectral Properties
        Index of refraction = 1.4116 at 20 deg C
   from [5]HSDB

   Surface Tension
        24.2 dyn/cm at 25 deg C
   from [6]HSDB

   Vapor Density
        4.56 (Air = 1)
   from [7]HSDB

   Vapor Pressure
        4.7 mm Hg at 20 deg C
   from [8]HSDB

   Relative Evaporation Rate
        0.26
   from [9]HSDB

   Viscosity
        3.30 cP at 25 deg C
   from [10]HSDB

   Other Chemical/Physical Properties

     * Freezing point = -56 deg C
     * Distillation range = 145-155 deg C
     * Henry's Law constant = 4.7X10-6 atm-cu m/mol at 25 deg C
       /Estimated/
     * Hydroxyl radical reaction rate constant = 1.7X10-11 cu-cm/molecule
       sec at 25 deg C /Estimated/

   from [11]HSDB

   Computed Properties
   Molecular Weight                  132.20074 [g/mol]
   Molecular Formula                 C[7]H[16]O[2]
   XLogP3-AA                         0.8
   H-Bond Donor                      1
   H-Bond Acceptor                   2
   Rotatable Bond Count              3
   Exact Mass                        132.11503
   MonoIsotopic Mass                 132.11503
   Topological Polar Surface Area    29.5
   Heavy Atom Count                  9
   Formal Charge                     0
   Complexity                        73.5
   Isotope Atom Count                0
   Defined Atom Stereocenter Count   0
   Undefined Atom Stereocenter Count 1
   Defined Bond Stereocenter Count   0
   Undefined Bond Stereocenter Count 0
   Covalently-Bonded Unit Count      1
   Feature 3D Acceptor Count         2
   Feature 3D Donor Count            1
   Feature 3D Hydrophobe Count       1
   Effective Rotor Count             3
   Conformer Sampling RMSD           0.6
   CID Conformer Count               [12]3

References

   1. http://toxnet.nlm.nih.gov/cgi-bin/sis/search/r?dbs+hsdb:@term+@rn+@rel+57018-52-7
   2. http://toxnet.nlm.nih.gov/cgi-bin/sis/search/r?dbs+hsdb:@term+@rn+@rel+57018-52-7
   3. http://toxnet.nlm.nih.gov/cgi-bin/sis/search/r?dbs+hsdb:@term+@rn+@rel+57018-52-7
   4. http://toxnet.nlm.nih.gov/cgi-bin/sis/search/r?dbs+hsdb:@term+@rn+@rel+57018-52-7
   5. http://toxnet.nlm.nih.gov/cgi-bin/sis/search/r?dbs+hsdb:@term+@rn+@rel+57018-52-7
   6. http://toxnet.nlm.nih.gov/cgi-bin/sis/search/r?dbs+hsdb:@term+@rn+@rel+57018-52-7
   7. http://toxnet.nlm.nih.gov/cgi-bin/sis/search/r?dbs+hsdb:@term+@rn+@rel+57018-52-7
   8. http://toxnet.nlm.nih.gov/cgi-bin/sis/search/r?dbs+hsdb:@term+@rn+@rel+57018-52-7
   9. http://toxnet.nlm.nih.gov/cgi-bin/sis/search/r?dbs+hsdb:@term+@rn+@rel+57018-52-7
  10. http://toxnet.nlm.nih.gov/cgi-bin/sis/search/r?dbs+hsdb:@term+@rn+@rel+57018-52-7
  11. http://toxnet.nlm.nih.gov/cgi-bin/sis/search/r?dbs+hsdb:@term+@rn+@rel+57018-52-7
  12. http://pubchem.ncbi.nlm.nih.gov/vw3d/vw3d.cgi?cid=92629
