   Color/Form

     * White crystals
     * Colorless

   from [1]HSDB

   Odor
        Odorless
   from [2]HSDB

   Melting Point
        97.2-101.7 deg C
   from [3]HSDB

   Density/Specific Gravity
        1.258 kg/l
   from [4]HSDB

   Octanol/Water Partition Coefficient
        log Kow = 3.40
   from [5]HSDB

   pH
        pH = 5.8
   from [6]HSDB

   Solubilities

     * All in g/100 ml: n-heptane, 0.17; toluene, 11.1; dichloromethane,
       93.9; methanol, 1.49; acetone, 21.7; ethyl acetate, 12.3.
     * In water, 2 mg/l @ 20 deg C

   from [7]HSDB

   Vapor Pressure
        1.72X10-8 mm Hg @ 20 deg C
   from [8]HSDB

   Other Chemical/Physical Properties

     * Light-brown, solid; MP: 98-100 deg C; vapor pressure: 2.3X10-6 Pa @
       20 deg C; solubility (water) = 2 ppm /Technical/
     * Dark brown solid; odor: moderately sulfurous; pH = 5.8; bulk
       density = 541 g/l /Cygnus Fungicide/

   from [9]HSDB

   Computed Properties
   Molecular Weight                  313.34776 [g/mol]
   Molecular Formula                 C[18]H[19]NO[4]
   XLogP3-AA                         4.1
   H-Bond Donor                      0
   H-Bond Acceptor                   5
   Rotatable Bond Count              7
   Exact Mass                        313.131408
   MonoIsotopic Mass                 313.131408
   Topological Polar Surface Area    57.1
   Heavy Atom Count                  23
   Formal Charge                     0
   Complexity                        410
   Isotope Atom Count                0
   Defined Atom Stereocenter Count   0
   Undefined Atom Stereocenter Count 0
   Defined Bond Stereocenter Count   1
   Undefined Bond Stereocenter Count 0
   Covalently-Bonded Unit Count      1
   Feature 3D Acceptor Count         3
   Feature 3D Ring Count             2
   Effective Rotor Count             7
   Conformer Sampling RMSD           0.8
   CID Conformer Count               [10]179

References

   1. http://toxnet.nlm.nih.gov/cgi-bin/sis/search/r?dbs+hsdb:@term+@rn+@rel+143390-89-0
   2. http://toxnet.nlm.nih.gov/cgi-bin/sis/search/r?dbs+hsdb:@term+@rn+@rel+143390-89-0
   3. http://toxnet.nlm.nih.gov/cgi-bin/sis/search/r?dbs+hsdb:@term+@rn+@rel+143390-89-0
   4. http://toxnet.nlm.nih.gov/cgi-bin/sis/search/r?dbs+hsdb:@term+@rn+@rel+143390-89-0
   5. http://toxnet.nlm.nih.gov/cgi-bin/sis/search/r?dbs+hsdb:@term+@rn+@rel+143390-89-0
   6. http://toxnet.nlm.nih.gov/cgi-bin/sis/search/r?dbs+hsdb:@term+@rn+@rel+143390-89-0
   7. http://toxnet.nlm.nih.gov/cgi-bin/sis/search/r?dbs+hsdb:@term+@rn+@rel+143390-89-0
   8. http://toxnet.nlm.nih.gov/cgi-bin/sis/search/r?dbs+hsdb:@term+@rn+@rel+143390-89-0
   9. http://toxnet.nlm.nih.gov/cgi-bin/sis/search/r?dbs+hsdb:@term+@rn+@rel+143390-89-0
  10. http://pubchem.ncbi.nlm.nih.gov/vw3d/vw3d.cgi?cid=6112114
