440269
  -OEChem-07051212492D

 20 19  0     1  0  0  0  0  0999 V2000
    2.6340   -0.7500    0.0000 O   0  0  0  0  0  0  0  0  0  0  0  0
    4.3660    1.2500    0.0000 O   0  0  0  0  0  0  0  0  0  0  0  0
    6.0981    0.2500    0.0000 O   0  0  0  0  0  0  0  0  0  0  0  0
    5.2320   -1.2500    0.0000 O   0  0  0  0  0  0  0  0  0  0  0  0
    3.5000   -0.2500    0.0000 C   0  0  3  0  0  0  0  0  0  0  0  0
    3.0000    0.6160    0.0000 C   0  0  0  0  0  0  0  0  0  0  0  0
    4.0000   -1.1160    0.0000 C   0  0  0  0  0  0  0  0  0  0  0  0
    4.3660    0.2500    0.0000 C   0  0  0  0  0  0  0  0  0  0  0  0
    2.0000    0.6160    0.0000 C   0  0  0  0  0  0  0  0  0  0  0  0
    5.2320   -0.2500    0.0000 C   0  0  0  0  0  0  0  0  0  0  0  0
    3.5826    0.8281    0.0000 H   0  0  0  0  0  0  0  0  0  0  0  0
    2.8923    1.2266    0.0000 H   0  0  0  0  0  0  0  0  0  0  0  0
    3.4631   -1.4260    0.0000 H   0  0  0  0  0  0  0  0  0  0  0  0
    4.3100   -1.6530    0.0000 H   0  0  0  0  0  0  0  0  0  0  0  0
    4.5369   -0.8060    0.0000 H   0  0  0  0  0  0  0  0  0  0  0  0
    2.0000    1.2360    0.0000 H   0  0  0  0  0  0  0  0  0  0  0  0
    1.3800    0.6160    0.0000 H   0  0  0  0  0  0  0  0  0  0  0  0
    2.0000   -0.0040    0.0000 H   0  0  0  0  0  0  0  0  0  0  0  0
    2.0970   -0.4400    0.0000 H   0  0  0  0  0  0  0  0  0  0  0  0
    6.6350   -0.0600    0.0000 H   0  0  0  0  0  0  0  0  0  0  0  0
  1  5  1  0  0  0  0
  1 19  1  0  0  0  0
  2  8  2  0  0  0  0
  3 10  1  0  0  0  0
  3 20  1  0  0  0  0
  4 10  2  0  0  0  0
  5  6  1  0  0  0  0
  5  7  1  0  0  0  0
  5  8  1  0  0  0  0
  6  9  1  0  0  0  0
  6 11  1  0  0  0  0
  6 12  1  0  0  0  0
  7 13  1  0  0  0  0
  7 14  1  0  0  0  0
  7 15  1  0  0  0  0
  8 10  1  0  0  0  0
  9 16  1  0  0  0  0
  9 17  1  0  0  0  0
  9 18  1  0  0  0  0
M  END
> <PUBCHEM_COMPOUND_CID>
440269

> <PUBCHEM_COMPOUND_CANONICALIZED>
1

> <PUBCHEM_CACTVS_COMPLEXITY>
163

> <PUBCHEM_CACTVS_HBOND_ACCEPTOR>
4

> <PUBCHEM_CACTVS_HBOND_DONOR>
2

> <PUBCHEM_CACTVS_ROTATABLE_BOND>
3

> <PUBCHEM_CACTVS_SUBSKEYS>
AAADccBgOAAAAAAAAAAAAAAAAAAAAAAAAAAAAAAAAAAAAAAAAAAAGgAACAAADESAgAACCAAAAgAIAICQCAIAAAAAAAAAAAFAAAAAABYAAAAAQAAFIAAAAACIAAAKAAAAAAAAAAAAAAAAAAAAAAAAAAAAAA==

> <PUBCHEM_IUPAC_OPENEYE_NAME>
3-hydroxy-3-methyl-2-oxo-pentanoic acid

> <PUBCHEM_IUPAC_CAS_NAME>
3-hydroxy-3-methyl-2-oxopentanoic acid

> <PUBCHEM_IUPAC_NAME>
3-hydroxy-3-methyl-2-oxopentanoic acid

> <PUBCHEM_IUPAC_SYSTEMATIC_NAME>
3-methyl-3-oxidanyl-2-oxidanylidene-pentanoic acid

> <PUBCHEM_IUPAC_TRADITIONAL_NAME>
3-hydroxy-2-keto-3-methyl-valeric acid

> <PUBCHEM_IUPAC_INCHI>
InChI=1S/C6H10O4/c1-3-6(2,10)4(7)5(8)9/h10H,3H2,1-2H3,(H,8,9)

> <PUBCHEM_IUPAC_INCHIKEY>
YJVOWRAWFXRESP-UHFFFAOYSA-N

> <PUBCHEM_XLOGP3_AA>
0.1

> <PUBCHEM_EXACT_MASS>
146.057909

> <PUBCHEM_MOLECULAR_FORMULA>
C6H10O4

> <PUBCHEM_MOLECULAR_WEIGHT>
146.1412

> <PUBCHEM_OPENEYE_CAN_SMILES>
CCC(C)(C(=O)C(=O)O)O

> <PUBCHEM_OPENEYE_ISO_SMILES>
CCC(C)(C(=O)C(=O)O)O

> <PUBCHEM_CACTVS_TPSA>
74.6

> <PUBCHEM_MONOISOTOPIC_WEIGHT>
146.057909

> <PUBCHEM_TOTAL_CHARGE>
0

> <PUBCHEM_HEAVY_ATOM_COUNT>
10

> <PUBCHEM_ATOM_DEF_STEREO_COUNT>
0

> <PUBCHEM_ATOM_UDEF_STEREO_COUNT>
1

> <PUBCHEM_BOND_DEF_STEREO_COUNT>
0

> <PUBCHEM_BOND_UDEF_STEREO_COUNT>
0

> <PUBCHEM_ISOTOPIC_ATOM_COUNT>
0

> <PUBCHEM_COMPONENT_COUNT>
1

> <PUBCHEM_CACTVS_TAUTO_COUNT>
1

> <PUBCHEM_COORDINATE_TYPE>
1
5
255

> <PUBCHEM_BONDANNOTATIONS>
5  1  3

$$$$

