441582
  -OEChem-07051212552D

 49 53  0     1  0  0  0  0  0999 V2000
    5.3717    1.7795    0.0000 O   0  0  0  0  0  0  0  0  0  0  0  0
    8.9116    1.7932    0.0000 O   0  0  0  0  0  0  0  0  0  0  0  0
    4.5112   -2.7865    0.0000 O   0  0  0  0  0  0  0  0  0  0  0  0
    2.6079    0.0863    0.0000 O   0  0  0  0  0  0  0  0  0  0  0  0
    2.6079   -1.5902    0.0000 O   0  0  0  0  0  0  0  0  0  0  0  0
    8.0513    3.2965    0.0000 O   0  0  0  0  0  0  0  0  0  0  0  0
    7.1256   -1.2519    0.0000 N   0  0  3  0  0  0  0  0  0  0  0  0
    6.2596    0.2481    0.0000 C   0  0  1  0  0  0  0  0  0  0  0  0
    7.1256   -0.2519    0.0000 C   0  0  1  0  0  0  0  0  0  0  0  0
    6.1461   -0.3555    0.0000 C   0  0  0  0  0  0  0  0  0  0  0  0
    6.2435    1.2896    0.0000 C   0  0  1  0  0  0  0  0  0  0  0  0
    8.0356    0.2549    0.0000 C   0  0  0  0  0  0  0  0  0  0  0  0
    6.5462   -1.0483    0.0000 C   0  0  0  0  0  0  0  0  0  0  0  0
    5.3935   -0.2519    0.0000 C   0  0  0  0  0  0  0  0  0  0  0  0
    7.1415    1.8173    0.0000 C   0  0  0  0  0  0  0  0  0  0  0  0
    8.0436    1.2965    0.0000 C   0  0  2  0  0  0  0  0  0  0  0  0
    6.2596   -1.7519    0.0000 C   0  0  0  0  0  0  0  0  0  0  0  0
    5.3935   -1.2519    0.0000 C   0  0  0  0  0  0  0  0  0  0  0  0
    4.4996    0.2827    0.0000 C   0  0  0  0  0  0  0  0  0  0  0  0
    4.4996   -1.7866    0.0000 C   0  0  0  0  0  0  0  0  0  0  0  0
    3.5935   -0.2311    0.0000 C   0  0  0  0  0  0  0  0  0  0  0  0
    3.5935   -1.2727    0.0000 C   0  0  0  0  0  0  0  0  0  0  0  0
    8.9154    2.7932    0.0000 C   0  0  0  0  0  0  0  0  0  0  0  0
    2.0000   -0.7519    0.0000 C   0  0  0  0  0  0  0  0  0  0  0  0
    3.6510   -3.2965    0.0000 C   0  0  0  0  0  0  0  0  0  0  0  0
    9.7834    3.2898    0.0000 C   0  0  0  0  0  0  0  0  0  0  0  0
    7.8617   -0.6769    0.0000 H   0  0  0  0  0  0  0  0  0  0  0  0
    5.5942   -0.0731    0.0000 H   0  0  0  0  0  0  0  0  0  0  0  0
    5.7190   -0.8049    0.0000 H   0  0  0  0  0  0  0  0  0  0  0  0
    5.7108    0.9724    0.0000 H   0  0  0  0  0  0  0  0  0  0  0  0
    8.2401   -0.3304    0.0000 H   0  0  0  0  0  0  0  0  0  0  0  0
    8.6472    0.3563    0.0000 H   0  0  0  0  0  0  0  0  0  0  0  0
    5.9434   -1.1936    0.0000 H   0  0  0  0  0  0  0  0  0  0  0  0
    6.5147   -1.6675    0.0000 H   0  0  0  0  0  0  0  0  0  0  0  0
    7.5388    2.2933    0.0000 H   0  0  0  0  0  0  0  0  0  0  0  0
    6.7406    2.2902    0.0000 H   0  0  0  0  0  0  0  0  0  0  0  0
    8.0448    1.9165    0.0000 H   0  0  0  0  0  0  0  0  0  0  0  0
    5.8610   -2.2269    0.0000 H   0  0  0  0  0  0  0  0  0  0  0  0
    6.6581   -2.2269    0.0000 H   0  0  0  0  0  0  0  0  0  0  0  0
    4.5068    0.9027    0.0000 H   0  0  0  0  0  0  0  0  0  0  0  0
    5.3646    2.3995    0.0000 H   0  0  0  0  0  0  0  0  0  0  0  0
    1.5391   -0.3372    0.0000 H   0  0  0  0  0  0  0  0  0  0  0  0
    1.5391   -1.1667    0.0000 H   0  0  0  0  0  0  0  0  0  0  0  0
    3.3348   -2.7632    0.0000 H   0  0  0  0  0  0  0  0  0  0  0  0
    3.1176   -3.6127    0.0000 H   0  0  0  0  0  0  0  0  0  0  0  0
    3.9672   -3.8298    0.0000 H   0  0  0  0  0  0  0  0  0  0  0  0
   10.0913    2.7517    0.0000 H   0  0  0  0  0  0  0  0  0  0  0  0
   10.3215    3.5978    0.0000 H   0  0  0  0  0  0  0  0  0  0  0  0
    9.4754    3.8280    0.0000 H   0  0  0  0  0  0  0  0  0  0  0  0
 11  1  1  6  0  0  0
  1 41  1  0  0  0  0
 16  2  1  6  0  0  0
  2 23  1  0  0  0  0
  3 20  1  0  0  0  0
  3 25  1  0  0  0  0
  4 21  1  0  0  0  0
  4 24  1  0  0  0  0
  5 22  1  0  0  0  0
  5 24  1  0  0  0  0
  6 23  2  0  0  0  0
  7  9  1  0  0  0  0
  7 13  1  0  0  0  0
  7 17  1  0  0  0  0
  8  9  1  0  0  0  0
  8 10  1  1  0  0  0
  8 11  1  0  0  0  0
  8 14  1  0  0  0  0
  9 12  1  0  0  0  0
  9 27  1  6  0  0  0
 10 13  1  0  0  0  0
 10 28  1  0  0  0  0
 10 29  1  0  0  0  0
 11 15  1  0  0  0  0
 11 30  1  0  0  0  0
 12 16  1  0  0  0  0
 12 31  1  0  0  0  0
 12 32  1  0  0  0  0
 13 33  1  0  0  0  0
 13 34  1  0  0  0  0
 14 18  1  0  0  0  0
 14 19  2  0  0  0  0
 15 16  1  0  0  0  0
 15 35  1  0  0  0  0
 15 36  1  0  0  0  0
 16 37  1  0  0  0  0
 17 18  1  0  0  0  0
 17 38  1  0  0  0  0
 17 39  1  0  0  0  0
 18 20  2  0  0  0  0
 19 21  1  0  0  0  0
 19 40  1  0  0  0  0
 20 22  1  0  0  0  0
 21 22  2  0  0  0  0
 23 26  1  0  0  0  0
 24 42  1  0  0  0  0
 24 43  1  0  0  0  0
 25 44  1  0  0  0  0
 25 45  1  0  0  0  0
 25 46  1  0  0  0  0
 26 47  1  0  0  0  0
 26 48  1  0  0  0  0
 26 49  1  0  0  0  0
M  END
> <PUBCHEM_COMPOUND_CID>
441582

> <PUBCHEM_COMPOUND_CANONICALIZED>
1

> <PUBCHEM_CACTVS_COMPLEXITY>
586

> <PUBCHEM_CACTVS_HBOND_ACCEPTOR>
7

> <PUBCHEM_CACTVS_HBOND_DONOR>
1

> <PUBCHEM_CACTVS_ROTATABLE_BOND>
3

> <PUBCHEM_CACTVS_SUBSKEYS>
AAADceB6OAAAAAAAAAAAAAAAAAAAAWJAAAA8YIAABYAAAFixAAAAHgAACAAADjzhmAcyDoMABgCIAiDSCACCCAAgIAAAiAAOjIgdNyKEsBumcCpnwBWOqAew8P8PoAABCAAYQABAAAIUADSAAAAAAAAAAA==

> <PUBCHEM_IUPAC_INCHI>
InChI=1S/C19H23NO6/c1-10(21)26-11-5-15-19(16(22)6-11)3-4-20(15)8-12-13(19)7-14-18(17(12)23-2)25-9-24-14/h7,11,15-16,22H,3-6,8-9H2,1-2H3/t11-,15-,16-,19+/m1/s1

> <PUBCHEM_IUPAC_INCHIKEY>
BSVABPABKQCTBP-GZJVQYRHSA-N

> <PUBCHEM_XLOGP3_AA>
1.4

> <PUBCHEM_EXACT_MASS>
361.152537

> <PUBCHEM_MOLECULAR_FORMULA>
C19H23NO6

> <PUBCHEM_MOLECULAR_WEIGHT>
361.38902

> <PUBCHEM_OPENEYE_CAN_SMILES>
CC(=O)OC1CC2C3(CCN2CC4=C(C5=C(C=C43)OCO5)OC)C(C1)O

> <PUBCHEM_OPENEYE_ISO_SMILES>
CC(=O)O[C@@H]1C[C@@H]2[C@@]3(CCN2CC4=C(C5=C(C=C43)OCO5)OC)[C@@H](C1)O

> <PUBCHEM_CACTVS_TPSA>
77.5

> <PUBCHEM_MONOISOTOPIC_WEIGHT>
361.152537

> <PUBCHEM_TOTAL_CHARGE>
0

> <PUBCHEM_HEAVY_ATOM_COUNT>
26

> <PUBCHEM_ATOM_DEF_STEREO_COUNT>
4

> <PUBCHEM_ATOM_UDEF_STEREO_COUNT>
0

> <PUBCHEM_BOND_DEF_STEREO_COUNT>
0

> <PUBCHEM_BOND_UDEF_STEREO_COUNT>
0

> <PUBCHEM_ISOTOPIC_ATOM_COUNT>
0

> <PUBCHEM_COMPONENT_COUNT>
1

> <PUBCHEM_CACTVS_TAUTO_COUNT>
1

> <PUBCHEM_COORDINATE_TYPE>
1
5
255

> <PUBCHEM_BONDANNOTATIONS>
11  1  6
14  18  8
14  19  8
18  20  8
19  21  8
16  2  6
20  22  8
21  22  8
8  10  5
9  27  6

$$$$

