442651
  -OEChem-07051212582D

 31 32  0     1  0  0  0  0  0999 V2000
    2.5369    0.0000    0.0000 O   0  0  0  0  0  0  0  0  0  0  0  0
    5.1350   -1.5000    0.0000 N   0  0  0  0  0  0  0  0  0  0  0  0
    4.2690    0.0000    0.0000 C   0  0  1  0  0  0  0  0  0  0  0  0
    3.4030    0.5000    0.0000 C   0  0  1  0  0  0  0  0  0  0  0  0
    5.1350    0.5000    0.0000 C   0  0  0  0  0  0  0  0  0  0  0  0
    3.4030   -0.5000    0.0000 C   0  0  0  0  0  0  0  0  0  0  0  0
    5.1350   -0.5000    0.0000 C   0  0  0  0  0  0  0  0  0  0  0  0
    3.4030    1.5000    0.0000 C   0  0  0  0  0  0  0  0  0  0  0  0
    5.1350    1.5000    0.0000 C   0  0  0  0  0  0  0  0  0  0  0  0
    4.2690    2.0000    0.0000 C   0  0  0  0  0  0  0  0  0  0  0  0
    3.4030   -1.5000    0.0000 C   0  0  0  0  0  0  0  0  0  0  0  0
    4.2690   -2.0000    0.0000 C   0  0  0  0  0  0  0  0  0  0  0  0
    3.4030   -0.1200    0.0000 H   0  0  0  0  0  0  0  0  0  0  0  0
    5.3471   -0.0826    0.0000 H   0  0  0  0  0  0  0  0  0  0  0  0
    5.7456    0.6077    0.0000 H   0  0  0  0  0  0  0  0  0  0  0  0
    3.1909    0.0826    0.0000 H   0  0  0  0  0  0  0  0  0  0  0  0
    2.7924   -0.6077    0.0000 H   0  0  0  0  0  0  0  0  0  0  0  0
    5.7456   -0.6077    0.0000 H   0  0  0  0  0  0  0  0  0  0  0  0
    5.3471    0.0826    0.0000 H   0  0  0  0  0  0  0  0  0  0  0  0
    3.1909    2.0826    0.0000 H   0  0  0  0  0  0  0  0  0  0  0  0
    2.7924    1.3923    0.0000 H   0  0  0  0  0  0  0  0  0  0  0  0
    5.7456    1.3923    0.0000 H   0  0  0  0  0  0  0  0  0  0  0  0
    5.3471    2.0826    0.0000 H   0  0  0  0  0  0  0  0  0  0  0  0
    4.6675    2.4750    0.0000 H   0  0  0  0  0  0  0  0  0  0  0  0
    3.8705    2.4750    0.0000 H   0  0  0  0  0  0  0  0  0  0  0  0
    2.7924   -1.3923    0.0000 H   0  0  0  0  0  0  0  0  0  0  0  0
    3.1909   -2.0826    0.0000 H   0  0  0  0  0  0  0  0  0  0  0  0
    3.8705   -2.4750    0.0000 H   0  0  0  0  0  0  0  0  0  0  0  0
    4.6675   -2.4750    0.0000 H   0  0  0  0  0  0  0  0  0  0  0  0
    5.6720   -1.8100    0.0000 H   0  0  0  0  0  0  0  0  0  0  0  0
    2.0000    0.3100    0.0000 H   0  0  0  0  0  0  0  0  0  0  0  0
  4  1  1  6  0  0  0
  1 31  1  0  0  0  0
  2  7  1  0  0  0  0
  2 12  1  0  0  0  0
  2 30  1  0  0  0  0
  3  4  1  0  0  0  0
  3  5  1  1  0  0  0
  3  6  1  0  0  0  0
  3  7  1  0  0  0  0
  4  8  1  0  0  0  0
  4 13  1  0  0  0  0
  5  9  1  0  0  0  0
  5 14  1  0  0  0  0
  5 15  1  0  0  0  0
  6 11  1  0  0  0  0
  6 16  1  0  0  0  0
  6 17  1  0  0  0  0
  7 18  1  0  0  0  0
  7 19  1  0  0  0  0
  8 10  1  0  0  0  0
  8 20  1  0  0  0  0
  8 21  1  0  0  0  0
  9 10  1  0  0  0  0
  9 22  1  0  0  0  0
  9 23  1  0  0  0  0
 10 24  1  0  0  0  0
 10 25  1  0  0  0  0
 11 12  1  0  0  0  0
 11 26  1  0  0  0  0
 11 27  1  0  0  0  0
 12 28  1  0  0  0  0
 12 29  1  0  0  0  0
M  END
> <PUBCHEM_COMPOUND_CID>
442651

> <PUBCHEM_COMPOUND_CANONICALIZED>
1

> <PUBCHEM_CACTVS_COMPLEXITY>
160

> <PUBCHEM_CACTVS_HBOND_ACCEPTOR>
2

> <PUBCHEM_CACTVS_HBOND_DONOR>
2

> <PUBCHEM_CACTVS_ROTATABLE_BOND>
0

> <PUBCHEM_CACTVS_SUBSKEYS>
AAADceByIAAAAAAAAAAAAAAAAAAAAAAAAAA8QAAAAAAAAAAAAAAAHgAQCAAADhThgAYAAALAAgAAAAAAAAAAAAAAAAAAAIAIAAAAEAIAgAAEQAAGEACAAAGQ0OIPAAAAAAAAAAAAAAAAABAAAAAAAAAAAA==

> <PUBCHEM_IUPAC_OPENEYE_NAME>
(6S,11R)-2-azaspiro[5.5]undecan-11-ol

> <PUBCHEM_IUPAC_CAS_NAME>
(6S,11R)-2-azaspiro[5.5]undecan-11-ol

> <PUBCHEM_IUPAC_NAME>
(6S,11R)-2-azaspiro[5.5]undecan-11-ol

> <PUBCHEM_IUPAC_SYSTEMATIC_NAME>
(6S,11R)-2-azaspiro[5.5]undecan-11-ol

> <PUBCHEM_IUPAC_TRADITIONAL_NAME>
(6S,11R)-2-azaspiro[5.5]undecan-11-ol

> <PUBCHEM_IUPAC_INCHI>
InChI=1S/C10H19NO/c12-9-4-1-2-5-10(9)6-3-7-11-8-10/h9,11-12H,1-8H2/t9-,10+/m1/s1

> <PUBCHEM_IUPAC_INCHIKEY>
POCJOGNVFHPZNS-ZJUUUORDSA-N

> <PUBCHEM_XLOGP3_AA>
1.2

> <PUBCHEM_EXACT_MASS>
169.146664

> <PUBCHEM_MOLECULAR_FORMULA>
C10H19NO

> <PUBCHEM_MOLECULAR_WEIGHT>
169.26396

> <PUBCHEM_OPENEYE_CAN_SMILES>
C1CCC2(CCCNC2)C(C1)O

> <PUBCHEM_OPENEYE_ISO_SMILES>
C1CC[C@@]2(CCCNC2)[C@@H](C1)O

> <PUBCHEM_CACTVS_TPSA>
32.3

> <PUBCHEM_MONOISOTOPIC_WEIGHT>
169.146664

> <PUBCHEM_TOTAL_CHARGE>
0

> <PUBCHEM_HEAVY_ATOM_COUNT>
12

> <PUBCHEM_ATOM_DEF_STEREO_COUNT>
2

> <PUBCHEM_ATOM_UDEF_STEREO_COUNT>
0

> <PUBCHEM_BOND_DEF_STEREO_COUNT>
0

> <PUBCHEM_BOND_UDEF_STEREO_COUNT>
0

> <PUBCHEM_ISOTOPIC_ATOM_COUNT>
0

> <PUBCHEM_COMPONENT_COUNT>
1

> <PUBCHEM_CACTVS_TAUTO_COUNT>
1

> <PUBCHEM_COORDINATE_TYPE>
1
5
255

> <PUBCHEM_BONDANNOTATIONS>
4  1  6
3  5  5

$$$$

