   Color/Form
        Crystals from toluene
   from [1]HSDB

   Melting Point
        166.5 deg C
   from [2]HSDB

   Octanol/Water Partition Coefficient
        log Kow = 2.43 /Estimated/
   from [3]HSDB

   Solubilities
        In water, 153 mg/L at 25 deg C /Estimated/
   from [4]HSDB

   Vapor Pressure
        1.25X10-6 mm Hg at 25 deg C /Estimated/
   from [5]HSDB

   Other Chemical/Physical Properties

     * Henry's Law constant = 1.23X10-10 atm-cu m/mol at 25 deg C
       /Estimated/
     * Hydroxyl radical reaction rate constant = 7.33X10-12 cu cm/molc-sec
       at 25 deg C /Estimated/

   from [6]HSDB

   Computed Properties
   Molecular Weight                  270.20727 [g/mol]
   Molecular Formula                 C[12]H[9]F[3]N[2]O[2]
   XLogP3-AA                         2.5
   H-Bond Donor                      1
   H-Bond Acceptor                   6
   Rotatable Bond Count              2
   Tautomer Count                    2
   Exact Mass                        270.061612
   MonoIsotopic Mass                 270.061612
   Topological Polar Surface Area    55.1
   Heavy Atom Count                  19
   Formal Charge                     0
   Complexity                        327
   Isotope Atom Count                0
   Defined Atom Stereocenter Count   0
   Undefined Atom Stereocenter Count 0
   Defined Bond Stereocenter Count   0
   Undefined Bond Stereocenter Count 0
   Covalently-Bonded Unit Count      1
   Feature 3D Acceptor Count         2
   Feature 3D Donor Count            1
   Feature 3D Ring Count             2
   Effective Rotor Count             4
   Conformer Sampling RMSD           0.6
   CID Conformer Count               [7]5

References

   1. http://toxnet.nlm.nih.gov/cgi-bin/sis/search/r?dbs+hsdb:@term+@rn+@rel+75706-12-6
   2. http://toxnet.nlm.nih.gov/cgi-bin/sis/search/r?dbs+hsdb:@term+@rn+@rel+75706-12-6
   3. http://toxnet.nlm.nih.gov/cgi-bin/sis/search/r?dbs+hsdb:@term+@rn+@rel+75706-12-6
   4. http://toxnet.nlm.nih.gov/cgi-bin/sis/search/r?dbs+hsdb:@term+@rn+@rel+75706-12-6
   5. http://toxnet.nlm.nih.gov/cgi-bin/sis/search/r?dbs+hsdb:@term+@rn+@rel+75706-12-6
   6. http://toxnet.nlm.nih.gov/cgi-bin/sis/search/r?dbs+hsdb:@term+@rn+@rel+75706-12-6
   7. http://pubchem.ncbi.nlm.nih.gov/vw3d/vw3d.cgi?cid=3899
