13943
  -OEChem-07051213132D

 39 40  0     0  0  0  0  0  0999 V2000
    4.7922    1.8126    0.0000 P   0  0  0  0  0  0  0  0  0  0  0  0
    3.9832    2.4004    0.0000 O   0  0  0  0  0  0  0  0  0  0  0  0
    5.3800    2.6217    0.0000 N   0  0  0  0  0  0  0  0  0  0  0  0
    5.6012    1.2249    0.0000 N   0  0  0  0  0  0  0  0  0  0  0  0
    4.2044    1.0036    0.0000 N   0  0  0  0  0  0  0  0  0  0  0  0
    4.5134    0.0526    0.0000 N   0  0  0  0  0  0  0  0  0  0  0  0
    2.8954    0.0526    0.0000 N   0  0  0  0  0  0  0  0  0  0  0  0
    2.6166    1.8126    0.0000 N   0  0  0  0  0  0  0  0  0  0  0  0
    3.2044    1.0036    0.0000 C   0  0  0  0  0  0  0  0  0  0  0  0
    6.5147    1.6316    0.0000 C   0  0  0  0  0  0  0  0  0  0  0  0
    5.4967    0.2303    0.0000 C   0  0  0  0  0  0  0  0  0  0  0  0
    6.3745    2.5171    0.0000 C   0  0  0  0  0  0  0  0  0  0  0  0
    4.9732    3.5352    0.0000 C   0  0  0  0  0  0  0  0  0  0  0  0
    3.7044   -0.5352    0.0000 C   0  0  0  0  0  0  0  0  0  0  0  0
    3.7044   -1.5352    0.0000 C   0  0  0  0  0  0  0  0  0  0  0  0
    2.8384   -2.0352    0.0000 C   0  0  0  0  0  0  0  0  0  0  0  0
    4.5704   -2.0352    0.0000 C   0  0  0  0  0  0  0  0  0  0  0  0
    2.8384   -3.0352    0.0000 C   0  0  0  0  0  0  0  0  0  0  0  0
    4.5704   -3.0352    0.0000 C   0  0  0  0  0  0  0  0  0  0  0  0
    3.7044   -3.5352    0.0000 C   0  0  0  0  0  0  0  0  0  0  0  0
    6.7669    1.0652    0.0000 H   0  0  0  0  0  0  0  0  0  0  0  0
    7.0811    1.8838    0.0000 H   0  0  0  0  0  0  0  0  0  0  0  0
    6.2626    2.1980    0.0000 H   0  0  0  0  0  0  0  0  0  0  0  0
    4.8801    0.2951    0.0000 H   0  0  0  0  0  0  0  0  0  0  0  0
    5.4319   -0.3863    0.0000 H   0  0  0  0  0  0  0  0  0  0  0  0
    6.1133    0.1655    0.0000 H   0  0  0  0  0  0  0  0  0  0  0  0
    6.3097    1.9005    0.0000 H   0  0  0  0  0  0  0  0  0  0  0  0
    6.9911    2.4523    0.0000 H   0  0  0  0  0  0  0  0  0  0  0  0
    6.4393    3.1337    0.0000 H   0  0  0  0  0  0  0  0  0  0  0  0
    5.5396    3.7874    0.0000 H   0  0  0  0  0  0  0  0  0  0  0  0
    4.7210    4.1016    0.0000 H   0  0  0  0  0  0  0  0  0  0  0  0
    4.4068    3.2830    0.0000 H   0  0  0  0  0  0  0  0  0  0  0  0
    2.0000    1.7478    0.0000 H   0  0  0  0  0  0  0  0  0  0  0  0
    2.8688    2.3790    0.0000 H   0  0  0  0  0  0  0  0  0  0  0  0
    2.3014   -1.7252    0.0000 H   0  0  0  0  0  0  0  0  0  0  0  0
    5.1074   -1.7252    0.0000 H   0  0  0  0  0  0  0  0  0  0  0  0
    2.3014   -3.3452    0.0000 H   0  0  0  0  0  0  0  0  0  0  0  0
    5.1074   -3.3452    0.0000 H   0  0  0  0  0  0  0  0  0  0  0  0
    3.7044   -4.1552    0.0000 H   0  0  0  0  0  0  0  0  0  0  0  0
  1  2  2  0  0  0  0
  1  3  1  0  0  0  0
  1  4  1  0  0  0  0
  1  5  1  0  0  0  0
  3 12  1  0  0  0  0
  3 13  1  0  0  0  0
  4 10  1  0  0  0  0
  4 11  1  0  0  0  0
  5  6  1  0  0  0  0
  5  9  1  0  0  0  0
  6 14  2  0  0  0  0
  7  9  2  0  0  0  0
  7 14  1  0  0  0  0
  8  9  1  0  0  0  0
  8 33  1  0  0  0  0
  8 34  1  0  0  0  0
 10 21  1  0  0  0  0
 10 22  1  0  0  0  0
 10 23  1  0  0  0  0
 11 24  1  0  0  0  0
 11 25  1  0  0  0  0
 11 26  1  0  0  0  0
 12 27  1  0  0  0  0
 12 28  1  0  0  0  0
 12 29  1  0  0  0  0
 13 30  1  0  0  0  0
 13 31  1  0  0  0  0
 13 32  1  0  0  0  0
 14 15  1  0  0  0  0
 15 16  2  0  0  0  0
 15 17  1  0  0  0  0
 16 18  1  0  0  0  0
 16 35  1  0  0  0  0
 17 19  2  0  0  0  0
 17 36  1  0  0  0  0
 18 20  2  0  0  0  0
 18 37  1  0  0  0  0
 19 20  1  0  0  0  0
 19 38  1  0  0  0  0
 20 39  1  0  0  0  0
M  END
> <PUBCHEM_COMPOUND_CID>
13943

> <PUBCHEM_COMPOUND_CANONICALIZED>
1

> <PUBCHEM_CACTVS_COMPLEXITY>
359

> <PUBCHEM_CACTVS_HBOND_ACCEPTOR>
6

> <PUBCHEM_CACTVS_HBOND_DONOR>
1

> <PUBCHEM_CACTVS_ROTATABLE_BOND>
4

> <PUBCHEM_CACTVS_SUBSKEYS>
AAADceBzoAIAAAAAAAAAAAAAAAAAAWAAAAAwAAAAAAAAAAABwAAAHAAYgCAADACBGwQzEIZIEACiQiJiJACSgAsgAKAdiCAoBJiIKKKAmRGEIAhwiAIIiAcQgAAOAAAAAAAAAAAAAAAAAAAAAAAAAAAAAA==

> <PUBCHEM_IUPAC_OPENEYE_NAME>
2-[bis(dimethylamino)phosphoryl]-5-phenyl-1,2,4-triazol-3-amine

> <PUBCHEM_IUPAC_CAS_NAME>
2-[bis(dimethylamino)phosphoryl]-5-phenyl-1,2,4-triazol-3-amine

> <PUBCHEM_IUPAC_NAME>
2-[bis(dimethylamino)phosphoryl]-5-phenyl-1,2,4-triazol-3-amine

> <PUBCHEM_IUPAC_SYSTEMATIC_NAME>
2-[bis(dimethylamino)phosphoryl]-5-phenyl-1,2,4-triazol-3-amine

> <PUBCHEM_IUPAC_TRADITIONAL_NAME>
[(5-amino-3-phenyl-1,2,4-triazol-1-yl)-(dimethylamino)phosphoryl]-dimethyl-amine

> <PUBCHEM_IUPAC_INCHI>
InChI=1S/C12H19N6OP/c1-16(2)20(19,17(3)4)18-12(13)14-11(15-18)10-8-6-5-7-9-10/h5-9H,1-4H3,(H2,13,14,15)

> <PUBCHEM_IUPAC_INCHIKEY>
BABJTMNVJXLAEX-UHFFFAOYSA-N

> <PUBCHEM_XLOGP3_AA>
1.8

> <PUBCHEM_EXACT_MASS>
294.135796

> <PUBCHEM_MOLECULAR_FORMULA>
C12H19N6OP

> <PUBCHEM_MOLECULAR_WEIGHT>
294.292622

> <PUBCHEM_OPENEYE_CAN_SMILES>
CN(C)P(=O)(N1C(=NC(=N1)C2=CC=CC=C2)N)N(C)C

> <PUBCHEM_OPENEYE_ISO_SMILES>
CN(C)P(=O)(N1C(=NC(=N1)C2=CC=CC=C2)N)N(C)C

> <PUBCHEM_CACTVS_TPSA>
80.3

> <PUBCHEM_MONOISOTOPIC_WEIGHT>
294.135796

> <PUBCHEM_TOTAL_CHARGE>
0

> <PUBCHEM_HEAVY_ATOM_COUNT>
20

> <PUBCHEM_ATOM_DEF_STEREO_COUNT>
0

> <PUBCHEM_ATOM_UDEF_STEREO_COUNT>
0

> <PUBCHEM_BOND_DEF_STEREO_COUNT>
0

> <PUBCHEM_BOND_UDEF_STEREO_COUNT>
0

> <PUBCHEM_ISOTOPIC_ATOM_COUNT>
0

> <PUBCHEM_COMPONENT_COUNT>
1

> <PUBCHEM_CACTVS_TAUTO_COUNT>
3

> <PUBCHEM_COORDINATE_TYPE>
1
5
255

> <PUBCHEM_BONDANNOTATIONS>
15  16  8
15  17  8
16  18  8
17  19  8
18  20  8
19  20  8
5  6  8
5  9  8
6  14  8
7  14  8
7  9  8

$$$$

