   Color/Form
        COLORLESS LIQUID
   from [1]HSDB

   Odor
        PLEASANT GREEN, FRUITY, RUM ODOR
   from [2]HSDB

   Taste
        RIPE FRUIT TASTE
   from [3]HSDB

   Boiling Point
        180.8 DEG C AT 760 MM HG
   from [4]HSDB

   Melting Point
        -45 DEG C
   from [5]HSDB

   Density/Specific Gravity
        1.0282 AT 20 DEG C/4 DEG C
   from [6]HSDB

   Octanol/Water Partition Coefficient
        log Kow = 0.25
   from [7]HSDB

   Solubilities

     * SOL IN ABOUT 35 PARTS WATER
     * SOL IN BENZENE, & CHLOROFORM; MISCIBLE WITH ETHER, & ACETONE
     * water solubility = 1.11X10+5 mg/l @ 17 deg C

   from [8]HSDB

   Spectral Properties

     * MAX ABSORPTION (ALCOHOL): 248 NM (LOG E= 3.2); INDEX OF REFRACTION:
       1.4194 AT 20 DEG C/D; SADTLER REFERENCE NUMBER: 101 (IR, PRISM)
     * MASS: 265 (National Bureau of Standards EPA-NIH Mass Spectra Data
       Base, NSRDS-NBS-63)
     * IR: 14440 (Sadtler Research Laboratories Prism Collection)

   from [9]HSDB

   Vapor Density
        4.48
   from [10]HSDB

   Vapor Pressure
        0.78 MM HG AT 25 DEG C
   from [11]HSDB

   Other Chemical/Physical Properties

     * CONVERSION FACTOR: 5.31 MG/CU M IS EQUIVALENT TO 1 PPM
     * CONVERSION FACTOR: 1 MG/L IS EQUIVALENT TO 188 PPM
     * THIS COMPD IS A TAUTOMER AT ROOM TEMP CONSISTING OF ABOUT 93% KETO
       FORM & 7% ENOL FORM; COEFFICIENT OF EXPANSION 0.00101/DEG C; FP
       (ENOL) -80 DEG C; FP (KETO) -39 DEG C
     * MAX ABSORPTION (VAPOR): 238.5 NM (LOG E= 4.21); DENSITY 1.0119 @ 10
       DEG C; INDEX OF REFRACTION 1.4432 @ 20 DEG C /ENOL FORM/
     * MAX ABSORPTION (VAPOR): 263 NM (LOG E= 2.47); DENSITY 1.0368 AT 10
       DEG C/4 DEG C; INDEX OF REFRACTION: 1.4171 AT 20 DEG C /KETO FORM/
     * CAN REACT WITH OXIDIZING MATERIALS
     * IR: 32 (Sadtler Research Laboratories IR Grating Collection) /Ethyl
       acetoacetate (keto form)/
     * UV: 40 (Sadtler Research Laboratories Spectral Collection) /Ethyl
       acetoacetate (keto form)/
     * NMR: 10321 (Sadtler Research Laboratories Spectral Collection)
       /Ethyl acetoacetate (keto form)/
     * MASS: 590 (Atlas of Mass Spectral Data, John Wiley & Sons, New
       York) /Ethyl acetoacetate (keto form)/

   from [12]HSDB

   Computed Properties
   Molecular Weight                  130.1418 [g/mol]
   Molecular Formula                 C[6]H[10]O[3]
   XLogP3                            0.2
   H-Bond Donor                      0
   H-Bond Acceptor                   3
   Rotatable Bond Count              4
   Tautomer Count                    5
   Exact Mass                        130.062994
   MonoIsotopic Mass                 130.062994
   Topological Polar Surface Area    43.4
   Heavy Atom Count                  9
   Formal Charge                     0
   Complexity                        118
   Isotope Atom Count                0
   Defined Atom Stereocenter Count   0
   Undefined Atom Stereocenter Count 0
   Defined Bond Stereocenter Count   0
   Undefined Bond Stereocenter Count 0
   Covalently-Bonded Unit Count      1
   Feature 3D Acceptor Count         2
   Feature 3D Anion Count            1
   Effective Rotor Count             4
   Conformer Sampling RMSD           0.6
   CID Conformer Count               [13]70

References

   1. http://toxnet.nlm.nih.gov/cgi-bin/sis/search/r?dbs+hsdb:@term+@rn+@rel+141-97-9
   2. http://toxnet.nlm.nih.gov/cgi-bin/sis/search/r?dbs+hsdb:@term+@rn+@rel+141-97-9
   3. http://toxnet.nlm.nih.gov/cgi-bin/sis/search/r?dbs+hsdb:@term+@rn+@rel+141-97-9
   4. http://toxnet.nlm.nih.gov/cgi-bin/sis/search/r?dbs+hsdb:@term+@rn+@rel+141-97-9
   5. http://toxnet.nlm.nih.gov/cgi-bin/sis/search/r?dbs+hsdb:@term+@rn+@rel+141-97-9
   6. http://toxnet.nlm.nih.gov/cgi-bin/sis/search/r?dbs+hsdb:@term+@rn+@rel+141-97-9
   7. http://toxnet.nlm.nih.gov/cgi-bin/sis/search/r?dbs+hsdb:@term+@rn+@rel+141-97-9
   8. http://toxnet.nlm.nih.gov/cgi-bin/sis/search/r?dbs+hsdb:@term+@rn+@rel+141-97-9
   9. http://toxnet.nlm.nih.gov/cgi-bin/sis/search/r?dbs+hsdb:@term+@rn+@rel+141-97-9
  10. http://toxnet.nlm.nih.gov/cgi-bin/sis/search/r?dbs+hsdb:@term+@rn+@rel+141-97-9
  11. http://toxnet.nlm.nih.gov/cgi-bin/sis/search/r?dbs+hsdb:@term+@rn+@rel+141-97-9
  12. http://toxnet.nlm.nih.gov/cgi-bin/sis/search/r?dbs+hsdb:@term+@rn+@rel+141-97-9
  13. http://pubchem.ncbi.nlm.nih.gov/vw3d/vw3d.cgi?cid=8868
