17396469
  -OEChem-06241222562D

 44 46  0     0  0  0  0  0  0999 V2000
    9.4547   -0.3098    0.0000 S   0  0  0  0  0  0  0  0  0  0  0  0
    3.4088    0.2795    0.0000 O   0  0  0  0  0  0  0  0  0  0  0  0
    3.4088   -1.9675    0.0000 O   0  0  0  0  0  0  0  0  0  0  0  0
    7.7265   -1.3165    0.0000 O   0  0  0  0  0  0  0  0  0  0  0  0
   11.3969    1.4001    0.0000 N   0  0  0  0  0  0  0  0  0  0  0  0
    6.8547    0.1802    0.0000 N   0  0  0  0  0  0  0  0  0  0  0  0
   11.2339   -0.2097    0.0000 N   0  0  0  0  0  0  0  0  0  0  0  0
   10.4195    1.1884    0.0000 N   0  0  0  0  0  0  0  0  0  0  0  0
    2.0000   -0.8440    0.0000 C   0  0  0  0  0  0  0  0  0  0  0  0
   12.8951    0.4353    0.0000 C   0  0  0  0  0  0  0  0  0  0  0  0
    2.4339    0.0570    0.0000 C   0  0  0  0  0  0  0  0  0  0  0  0
    2.4339   -1.7450    0.0000 C   0  0  0  0  0  0  0  0  0  0  0  0
    4.1906   -0.3440    0.0000 C   0  0  0  0  0  0  0  0  0  0  0  0
    4.1906   -1.3440    0.0000 C   0  0  0  0  0  0  0  0  0  0  0  0
   11.9002    0.5360    0.0000 C   0  0  0  0  0  0  0  0  0  0  0  0
    5.9906   -0.3232    0.0000 C   0  0  0  0  0  0  0  0  0  0  0  0
    5.0846    0.1907    0.0000 C   0  0  0  0  0  0  0  0  0  0  0  0
   13.3054   -0.4766    0.0000 C   0  0  0  0  0  0  0  0  0  0  0  0
   13.4798    1.2466    0.0000 C   0  0  0  0  0  0  0  0  0  0  0  0
    5.0846   -1.8786    0.0000 C   0  0  0  0  0  0  0  0  0  0  0  0
    5.9906   -1.3648    0.0000 C   0  0  0  0  0  0  0  0  0  0  0  0
   10.3188    0.1935    0.0000 C   0  0  0  0  0  0  0  0  0  0  0  0
    8.5868    0.1868    0.0000 C   0  0  0  0  0  0  0  0  0  0  0  0
    7.7227   -0.3165    0.0000 C   0  0  0  0  0  0  0  0  0  0  0  0
    1.5153   -0.4574    0.0000 H   0  0  0  0  0  0  0  0  0  0  0  0
    1.5153   -1.2306    0.0000 H   0  0  0  0  0  0  0  0  0  0  0  0
   12.5326   -0.0677    0.0000 H   0  0  0  0  0  0  0  0  0  0  0  0
    2.4339    0.6770    0.0000 H   0  0  0  0  0  0  0  0  0  0  0  0
    1.8294    0.1949    0.0000 H   0  0  0  0  0  0  0  0  0  0  0  0
    1.8294   -1.8829    0.0000 H   0  0  0  0  0  0  0  0  0  0  0  0
    2.4339   -2.3650    0.0000 H   0  0  0  0  0  0  0  0  0  0  0  0
    5.0774    0.8106    0.0000 H   0  0  0  0  0  0  0  0  0  0  0  0
   13.9828    0.8841    0.0000 H   0  0  0  0  0  0  0  0  0  0  0  0
   12.7399   -0.7310    0.0000 H   0  0  0  0  0  0  0  0  0  0  0  0
   13.5597   -1.0421    0.0000 H   0  0  0  0  0  0  0  0  0  0  0  0
   13.8708   -0.2223    0.0000 H   0  0  0  0  0  0  0  0  0  0  0  0
   13.8423    1.7496    0.0000 H   0  0  0  0  0  0  0  0  0  0  0  0
   12.9768    1.6091    0.0000 H   0  0  0  0  0  0  0  0  0  0  0  0
    5.0774   -2.4986    0.0000 H   0  0  0  0  0  0  0  0  0  0  0  0
    6.5264   -1.6769    0.0000 H   0  0  0  0  0  0  0  0  0  0  0  0
   11.6468    1.9675    0.0000 H   0  0  0  0  0  0  0  0  0  0  0  0
    6.8524    0.8002    0.0000 H   0  0  0  0  0  0  0  0  0  0  0  0
    8.9835    0.6633    0.0000 H   0  0  0  0  0  0  0  0  0  0  0  0
    8.1864    0.6602    0.0000 H   0  0  0  0  0  0  0  0  0  0  0  0
  1 22  1  0  0  0  0
  1 23  1  0  0  0  0
  2 11  1  0  0  0  0
  2 13  1  0  0  0  0
  3 12  1  0  0  0  0
  3 14  1  0  0  0  0
  4 24  2  0  0  0  0
  5  8  1  0  0  0  0
  5 15  1  0  0  0  0
  5 41  1  0  0  0  0
  6 16  1  0  0  0  0
  6 24  1  0  0  0  0
  6 42  1  0  0  0  0
  7 15  2  0  0  0  0
  7 22  1  0  0  0  0
  8 22  2  0  0  0  0
  9 11  1  0  0  0  0
  9 12  1  0  0  0  0
  9 25  1  0  0  0  0
  9 26  1  0  0  0  0
 10 15  1  0  0  0  0
 10 18  1  0  0  0  0
 10 19  1  0  0  0  0
 10 27  1  0  0  0  0
 11 28  1  0  0  0  0
 11 29  1  0  0  0  0
 12 30  1  0  0  0  0
 12 31  1  0  0  0  0
 13 14  2  0  0  0  0
 13 17  1  0  0  0  0
 14 20  1  0  0  0  0
 16 17  2  0  0  0  0
 16 21  1  0  0  0  0
 17 32  1  0  0  0  0
 18 34  1  0  0  0  0
 18 35  1  0  0  0  0
 18 36  1  0  0  0  0
 19 33  1  0  0  0  0
 19 37  1  0  0  0  0
 19 38  1  0  0  0  0
 20 21  2  0  0  0  0
 20 39  1  0  0  0  0
 21 40  1  0  0  0  0
 23 24  1  0  0  0  0
 23 43  1  0  0  0  0
 23 44  1  0  0  0  0
M  END
> <PUBCHEM_COMPOUND_CID>
17396469

> <PUBCHEM_COMPOUND_CANONICALIZED>
1

> <PUBCHEM_CACTVS_COMPLEXITY>
426

> <PUBCHEM_CACTVS_HBOND_ACCEPTOR>
6

> <PUBCHEM_CACTVS_HBOND_DONOR>
2

> <PUBCHEM_CACTVS_ROTATABLE_BOND>
5

> <PUBCHEM_CACTVS_SUBSKEYS>
AAADceB7sABAAAAAAAAAAAAAAAAAAWAAAAAwAAAABIAAAAABwAAAHgQYAAAADQyl0wKz1obrFAiqACdydACS2AvhIrAdqAA27IiNLiLEuZuGOCrn3BvK6AewUAMAAEAAAgAAQAAAgAAEAACAAAAAAAAAAA==

> <PUBCHEM_IUPAC_OPENEYE_NAME>
N-(3,4-dihydro-2H-1,5-benzodioxepin-7-yl)-2-[(5-isopropyl-1H-1,2,4-triazol-3-yl)sulfanyl]acetamide

> <PUBCHEM_IUPAC_CAS_NAME>
N-(3,4-dihydro-2H-1,5-benzodioxepin-7-yl)-2-[(5-propan-2-yl-1H-1,2,4-triazol-3-yl)thio]acetamide

> <PUBCHEM_IUPAC_NAME>
N-(3,4-dihydro-2H-1,5-benzodioxepin-7-yl)-2-[(5-propan-2-yl-1H-1,2,4-triazol-3-yl)sulfanyl]acetamide

> <PUBCHEM_IUPAC_SYSTEMATIC_NAME>
N-(3,4-dihydro-2H-1,5-benzodioxepin-7-yl)-2-[(5-propan-2-yl-1H-1,2,4-triazol-3-yl)sulfanyl]ethanamide

> <PUBCHEM_IUPAC_TRADITIONAL_NAME>
N-(3,4-dihydro-2H-1,5-benzodioxepin-7-yl)-2-[(5-isopropyl-1H-1,2,4-triazol-3-yl)thio]acetamide

> <PUBCHEM_IUPAC_INCHI>
InChI=1S/C16H20N4O3S/c1-10(2)15-18-16(20-19-15)24-9-14(21)17-11-4-5-12-13(8-11)23-7-3-6-22-12/h4-5,8,10H,3,6-7,9H2,1-2H3,(H,17,21)(H,18,19,20)

> <PUBCHEM_IUPAC_INCHIKEY>
OGBRSHHPEYEMQR-UHFFFAOYSA-N

> <PUBCHEM_XLOGP3_AA>
3

> <PUBCHEM_EXACT_MASS>
348.125612

> <PUBCHEM_MOLECULAR_FORMULA>
C16H20N4O3S

> <PUBCHEM_MOLECULAR_WEIGHT>
348.42

> <PUBCHEM_OPENEYE_CAN_SMILES>
CC(C)C1=NC(=NN1)SCC(=O)NC2=CC3=C(C=C2)OCCCO3

> <PUBCHEM_OPENEYE_ISO_SMILES>
CC(C)C1=NC(=NN1)SCC(=O)NC2=CC3=C(C=C2)OCCCO3

> <PUBCHEM_CACTVS_TPSA>
114

> <PUBCHEM_MONOISOTOPIC_WEIGHT>
348.125612

> <PUBCHEM_TOTAL_CHARGE>
0

> <PUBCHEM_HEAVY_ATOM_COUNT>
24

> <PUBCHEM_ATOM_DEF_STEREO_COUNT>
0

> <PUBCHEM_ATOM_UDEF_STEREO_COUNT>
0

> <PUBCHEM_BOND_DEF_STEREO_COUNT>
0

> <PUBCHEM_BOND_UDEF_STEREO_COUNT>
0

> <PUBCHEM_ISOTOPIC_ATOM_COUNT>
0

> <PUBCHEM_COMPONENT_COUNT>
1

> <PUBCHEM_CACTVS_TAUTO_COUNT>
15

> <PUBCHEM_COORDINATE_TYPE>
1
5
255

> <PUBCHEM_BONDANNOTATIONS>
13  14  8
13  17  8
14  20  8
16  17  8
16  21  8
20  21  8
5  15  8
5  8  8
7  15  8
7  22  8
8  22  8

$$$$

