   Color/Form
        Crystals from ether-petroleum ether
   from [1]HSDB

   Melting Point
        156-158 deg C
   from [2]HSDB

   Dissociation Constants
        pKa = 4.15
   from [3]HSDB

   Octanol/Water Partition Coefficient
        log Kow = 4.51
   from [4]HSDB

   Solubilities
        In water, 2.37 mg/L at 25 deg C
   from [5]HSDB

   Vapor Pressure
        6.1X10-8 mm Hg @ 25 deg C /Estimated/
   from [6]HSDB

   Other Chemical/Physical Properties

     * MW 334.24 /Potassium salt/
     * Crystals from water; mp 283-285 deg C. uv max (methanol) 283 nm
       (epsilon 1.01X10+5); (phosphate buffer, pH 7.2) 276 nm (epsilon
       1.01X10+5). Solubility @ 25 deg C (mg/mL): deionized water (pH 5.2)
       >0; methanol >24; acetone 6; acetonitrile <1; cyclohexane <1; Hcl
       (pH 1.1) <1; phosphate buffer (pH 7.2) 6. Pka 4. Partition
       coefficient (N-octanol/aq. Buffer): 13.4 /Sodium salt/
     * White to off-white, virtually odorless, crystalline powder.
       ...Freely soluble in methanol, soluble in ethanol and practically
       insoluble in chloroform and in dilute acid. ... sparingly soluble
       in water. MW: 318.14. /Diclofenac sodium/
     * Henry's Law constant = 4.7X10-12 atm-cu m/mole at 25 deg C
       /Estimated/
     * Hydroxyl radical reaction rate constant = 1.6X10-10 cu cm/molec-sec
       at 25 deg C /Estimated/

   from [7]HSDB

   Computed Properties
   Molecular Weight                  296.14864 [g/mol]
   Molecular Formula                 C[14]H[11]Cl[2]NO[2]
   XLogP3                            4.4
   H-Bond Donor                      2
   H-Bond Acceptor                   3
   Rotatable Bond Count              4
   Exact Mass                        295.016684
   MonoIsotopic Mass                 295.016684
   Topological Polar Surface Area    49.3
   Heavy Atom Count                  19
   Formal Charge                     0
   Complexity                        304
   Isotope Atom Count                0
   Defined Atom Stereocenter Count   0
   Undefined Atom Stereocenter Count 0
   Defined Bond Stereocenter Count   0
   Undefined Bond Stereocenter Count 0
   Covalently-Bonded Unit Count      1
   Feature 3D Acceptor Count         2
   Feature 3D Donor Count            1
   Feature 3D Anion Count            1
   Feature 3D Cation Count           1
   Feature 3D Ring Count             2
   Effective Rotor Count             4
   Conformer Sampling RMSD           0.6
   CID Conformer Count               [8]44

References

   1. http://toxnet.nlm.nih.gov/cgi-bin/sis/search/r?dbs+hsdb:@term+@rn+@rel+15307-86-5
   2. http://toxnet.nlm.nih.gov/cgi-bin/sis/search/r?dbs+hsdb:@term+@rn+@rel+15307-86-5
   3. http://toxnet.nlm.nih.gov/cgi-bin/sis/search/r?dbs+hsdb:@term+@rn+@rel+15307-86-5
   4. http://toxnet.nlm.nih.gov/cgi-bin/sis/search/r?dbs+hsdb:@term+@rn+@rel+15307-86-5
   5. http://toxnet.nlm.nih.gov/cgi-bin/sis/search/r?dbs+hsdb:@term+@rn+@rel+15307-86-5
   6. http://toxnet.nlm.nih.gov/cgi-bin/sis/search/r?dbs+hsdb:@term+@rn+@rel+15307-86-5
   7. http://toxnet.nlm.nih.gov/cgi-bin/sis/search/r?dbs+hsdb:@term+@rn+@rel+15307-86-5
   8. http://pubchem.ncbi.nlm.nih.gov/vw3d/vw3d.cgi?cid=3033
