240036
  -OEChem-07051213062D

 46 50  0     1  0  0  0  0  0999 V2000
    2.1498   -0.2601    0.0000 O   0  0  0  0  0  0  0  0  0  0  0  0
    2.5574    3.9564    0.0000 O   0  0  0  0  0  0  0  0  0  0  0  0
    2.9629   -3.9564    0.0000 O   0  0  0  0  0  0  0  0  0  0  0  0
    3.0160    0.2403    0.0000 C   0  0  2  0  0  0  0  0  0  0  0  0
    3.8821    0.7403    0.0000 C   0  0  2  0  0  0  0  0  0  0  0  0
    2.1500    0.7403    0.0000 C   0  0  2  0  0  0  0  0  0  0  0  0
    3.8821    1.7403    0.0000 C   0  0  1  0  0  0  0  0  0  0  0  0
    3.0000   -0.8012    0.0000 C   0  0  2  0  0  0  0  0  0  0  0  0
    3.0160    2.2403    0.0000 C   0  0  2  0  0  0  0  0  0  0  0  0
    2.1500    1.7403    0.0000 C   0  0  0  0  0  0  0  0  0  0  0  0
    4.7921    0.2335    0.0000 C   0  0  0  0  0  0  0  0  0  0  0  0
    4.6191    2.4074    0.0000 C   0  0  0  0  0  0  0  0  0  0  0  0
    3.8980   -1.3290    0.0000 C   0  0  0  0  0  0  0  0  0  0  0  0
    4.8001   -0.8081    0.0000 C   0  0  0  0  0  0  0  0  0  0  0  0
    2.0480   -1.3218    0.0000 C   0  0  0  0  0  0  0  0  0  0  0  0
    3.2252    3.2121    0.0000 C   0  0  0  0  0  0  0  0  0  0  0  0
    4.2140    3.3152    0.0000 C   0  0  0  0  0  0  0  0  0  0  0  0
    2.0000   -0.7935    0.0000 C   0  0  0  0  0  0  0  0  0  0  0  0
    2.1500    2.7403    0.0000 C   0  0  0  0  0  0  0  0  0  0  0  0
    2.0313   -2.4067    0.0000 C   0  0  0  0  0  0  0  0  0  0  0  0
    3.9064   -2.4139    0.0000 C   0  0  0  0  0  0  0  0  0  0  0  0
    2.9667   -2.9564    0.0000 C   0  0  0  0  0  0  0  0  0  0  0  0
    4.6149    1.1710    0.0000 H   0  0  0  0  0  0  0  0  0  0  0  0
    1.3000    0.7404    0.0000 H   0  0  0  0  0  0  0  0  0  0  0  0
    4.6590    1.3956    0.0000 H   0  0  0  0  0  0  0  0  0  0  0  0
    1.9380    2.3229    0.0000 H   0  0  0  0  0  0  0  0  0  0  0  0
    1.5394    1.6326    0.0000 H   0  0  0  0  0  0  0  0  0  0  0  0
    5.4037    0.1321    0.0000 H   0  0  0  0  0  0  0  0  0  0  0  0
    4.9966    0.8187    0.0000 H   0  0  0  0  0  0  0  0  0  0  0  0
    4.9845    1.9065    0.0000 H   0  0  0  0  0  0  0  0  0  0  0  0
    5.1556    2.7182    0.0000 H   0  0  0  0  0  0  0  0  0  0  0  0
    5.0136   -1.3902    0.0000 H   0  0  0  0  0  0  0  0  0  0  0  0
    5.4101   -0.6973    0.0000 H   0  0  0  0  0  0  0  0  0  0  0  0
    1.8480   -0.7350    0.0000 H   0  0  0  0  0  0  0  0  0  0  0  0
    1.4356   -1.4185    0.0000 H   0  0  0  0  0  0  0  0  0  0  0  0
    4.8036    3.5069    0.0000 H   0  0  0  0  0  0  0  0  0  0  0  0
    4.0852    3.9217    0.0000 H   0  0  0  0  0  0  0  0  0  0  0  0
    2.0048   -0.1735    0.0000 H   0  0  0  0  0  0  0  0  0  0  0  0
    1.3800   -0.7887    0.0000 H   0  0  0  0  0  0  0  0  0  0  0  0
    1.9952   -1.4135    0.0000 H   0  0  0  0  0  0  0  0  0  0  0  0
    2.4600    3.2772    0.0000 H   0  0  0  0  0  0  0  0  0  0  0  0
    1.6131    3.0503    0.0000 H   0  0  0  0  0  0  0  0  0  0  0  0
    1.8400    2.2034    0.0000 H   0  0  0  0  0  0  0  0  0  0  0  0
    1.4222   -2.2912    0.0000 H   0  0  0  0  0  0  0  0  0  0  0  0
    1.8133   -2.9871    0.0000 H   0  0  0  0  0  0  0  0  0  0  0  0
    4.4445   -2.7218    0.0000 H   0  0  0  0  0  0  0  0  0  0  0  0
  4  1  1  1  0  0  0
  1  6  1  0  0  0  0
  2 16  2  0  0  0  0
  3 22  2  0  0  0  0
  4  5  1  0  0  0  0
  4  6  1  0  0  0  0
  4  8  1  0  0  0  0
  5  7  1  0  0  0  0
  5 11  1  0  0  0  0
  5 23  1  1  0  0  0
  6 10  1  0  0  0  0
  6 24  1  6  0  0  0
  7  9  1  0  0  0  0
  7 12  1  0  0  0  0
  7 25  1  6  0  0  0
  8 13  1  0  0  0  0
  8 15  1  0  0  0  0
  8 18  1  1  0  0  0
  9 10  1  0  0  0  0
  9 16  1  0  0  0  0
  9 19  1  1  0  0  0
 10 26  1  0  0  0  0
 10 27  1  0  0  0  0
 11 14  1  0  0  0  0
 11 28  1  0  0  0  0
 11 29  1  0  0  0  0
 12 17  1  0  0  0  0
 12 30  1  0  0  0  0
 12 31  1  0  0  0  0
 13 14  1  0  0  0  0
 13 21  2  0  0  0  0
 14 32  1  0  0  0  0
 14 33  1  0  0  0  0
 15 20  1  0  0  0  0
 15 34  1  0  0  0  0
 15 35  1  0  0  0  0
 16 17  1  0  0  0  0
 17 36  1  0  0  0  0
 17 37  1  0  0  0  0
 18 38  1  0  0  0  0
 18 39  1  0  0  0  0
 18 40  1  0  0  0  0
 19 41  1  0  0  0  0
 19 42  1  0  0  0  0
 19 43  1  0  0  0  0
 20 22  1  0  0  0  0
 20 44  1  0  0  0  0
 20 45  1  0  0  0  0
 21 22  1  0  0  0  0
 21 46  1  0  0  0  0
M  END
> <PUBCHEM_COMPOUND_CID>
240036

> <PUBCHEM_COMPOUND_CANONICALIZED>
1

> <PUBCHEM_CACTVS_COMPLEXITY>
635

> <PUBCHEM_CACTVS_HBOND_ACCEPTOR>
3

> <PUBCHEM_CACTVS_HBOND_DONOR>
0

> <PUBCHEM_CACTVS_ROTATABLE_BOND>
0

> <PUBCHEM_CACTVS_SUBSKEYS>
AAADceB4MAAAAAAAAAAAAAAAEgAAAYAAAAAwYIAABIAAAGDAAAAAGgAAAAAAD1SggAICAAAABACIAqBSAAAAAAAgAAAACAEAAEgAABIAAQACAAAEwAAIAQOKzPDPgAAAAAAAAADAAAYAADAAAAAACAAAAA==

> <PUBCHEM_IUPAC_INCHI>
InChI=1S/C19H24O3/c1-17-10-16-19(22-16)14(13(17)5-6-15(17)21)4-3-11-9-12(20)7-8-18(11,19)2/h9,13-14,16H,3-8,10H2,1-2H3/t13-,14-,16-,17-,18-,19+/m0/s1

> <PUBCHEM_IUPAC_INCHIKEY>
RDZRMCWJXAYYAO-SMVSCOHQSA-N

> <PUBCHEM_XLOGP3_AA>
1.6

> <PUBCHEM_EXACT_MASS>
300.172545

> <PUBCHEM_MOLECULAR_FORMULA>
C19H24O3

> <PUBCHEM_MOLECULAR_WEIGHT>
300.39206

> <PUBCHEM_OPENEYE_CAN_SMILES>
CC12CCC(=O)C=C1CCC3C24C(O4)CC5(C3CCC5=O)C

> <PUBCHEM_OPENEYE_ISO_SMILES>
C[C@]12CCC(=O)C=C1CC[C@@H]3[C@@]24[C@@H](O4)C[C@]5([C@H]3CCC5=O)C

> <PUBCHEM_CACTVS_TPSA>
46.7

> <PUBCHEM_MONOISOTOPIC_WEIGHT>
300.172545

> <PUBCHEM_TOTAL_CHARGE>
0

> <PUBCHEM_HEAVY_ATOM_COUNT>
22

> <PUBCHEM_ATOM_DEF_STEREO_COUNT>
6

> <PUBCHEM_ATOM_UDEF_STEREO_COUNT>
0

> <PUBCHEM_BOND_DEF_STEREO_COUNT>
0

> <PUBCHEM_BOND_UDEF_STEREO_COUNT>
0

> <PUBCHEM_ISOTOPIC_ATOM_COUNT>
0

> <PUBCHEM_COMPONENT_COUNT>
1

> <PUBCHEM_CACTVS_TAUTO_COUNT>
10

> <PUBCHEM_COORDINATE_TYPE>
1
5
255

> <PUBCHEM_BONDANNOTATIONS>
4  1  5
5  23  5
6  24  6
7  25  6
8  18  5
9  19  5

$$$$

