656733
  -OEChem-07051213042D

 68 74  0     0  0  0  0  0  0999 V2000
    5.9483   -1.5918    0.0000 N   0  3  0  0  0  0  0  0  0  0  0  0
    6.9477    2.1379    0.0000 N   0  3  0  0  0  0  0  0  0  0  0  0
    2.9483   -1.5918    0.0000 N   0  0  0  0  0  0  0  0  0  0  0  0
    4.3496    3.6379    0.0000 N   0  0  0  0  0  0  0  0  0  0  0  0
    6.9483   -1.5918    0.0000 C   0  0  0  0  0  0  0  0  0  0  0  0
    7.8137    1.6379    0.0000 C   0  0  0  0  0  0  0  0  0  0  0  0
    5.4483   -2.4579    0.0000 C   0  0  0  0  0  0  0  0  0  0  0  0
    6.0816    1.6379    0.0000 C   0  0  0  0  0  0  0  0  0  0  0  0
    7.6554   -0.8847    0.0000 C   0  0  0  0  0  0  0  0  0  0  0  0
    8.1037    0.7883    0.0000 C   0  0  0  0  0  0  0  0  0  0  0  0
    4.4483   -2.4579    0.0000 C   0  0  0  0  0  0  0  0  0  0  0  0
    5.2156    2.1379    0.0000 C   0  0  0  0  0  0  0  0  0  0  0  0
    3.9483   -1.5918    0.0000 C   0  0  0  0  0  0  0  0  0  0  0  0
    5.2156    3.1379    0.0000 C   0  0  0  0  0  0  0  0  0  0  0  0
    7.3966    0.0812    0.0000 C   0  0  0  0  0  0  0  0  0  0  0  0
    5.4517   -0.7161    0.0000 C   0  0  0  0  0  0  0  0  0  0  0  0
    6.9477    3.1379    0.0000 C   0  0  0  0  0  0  0  0  0  0  0  0
    4.4449   -0.7161    0.0000 C   0  0  0  0  0  0  0  0  0  0  0  0
    6.0816    3.6379    0.0000 C   0  0  0  0  0  0  0  0  0  0  0  0
    8.6335   -1.1590    0.0000 C   0  0  0  0  0  0  0  0  0  0  0  0
    9.0879    0.5367    0.0000 C   0  0  0  0  0  0  0  0  0  0  0  0
    2.4483   -0.7258    0.0000 C   0  0  0  0  0  0  0  0  0  0  0  0
    3.4836    3.1379    0.0000 C   0  0  0  0  0  0  0  0  0  0  0  0
    5.9830   -3.3518    0.0000 C   0  0  0  0  0  0  0  0  0  0  0  0
    6.0977    0.5964    0.0000 C   0  0  0  0  0  0  0  0  0  0  0  0
    3.9136   -3.3518    0.0000 C   0  0  0  0  0  0  0  0  0  0  0  0
    4.3056    1.6310    0.0000 C   0  0  0  0  0  0  0  0  0  0  0  0
    2.7071    0.2401    0.0000 C   0  0  0  0  0  0  0  0  0  0  0  0
    3.2247    2.1720    0.0000 C   0  0  0  0  0  0  0  0  0  0  0  0
    9.3546   -0.4435    0.0000 C   0  0  0  0  0  0  0  0  0  0  0  0
    5.4691   -4.2579    0.0000 C   0  0  0  0  0  0  0  0  0  0  0  0
    5.1997    0.0686    0.0000 C   0  0  0  0  0  0  0  0  0  0  0  0
    4.4275   -4.2579    0.0000 C   0  0  0  0  0  0  0  0  0  0  0  0
    4.2976    0.5894    0.0000 C   0  0  0  0  0  0  0  0  0  0  0  0
    2.0000    0.9472    0.0000 C   0  0  0  0  0  0  0  0  0  0  0  0
    3.6815    0.4932    0.0000 C   0  0  0  0  0  0  0  0  0  0  0  0
    2.2588    1.9131    0.0000 C   0  0  0  0  0  0  0  0  0  0  0  0
    3.9421    1.4656    0.0000 C   0  0  0  0  0  0  0  0  0  0  0  0
    6.7878   -2.1907    0.0000 H   0  0  0  0  0  0  0  0  0  0  0  0
    7.4852   -1.9018    0.0000 H   0  0  0  0  0  0  0  0  0  0  0  0
    8.4331    1.6656    0.0000 H   0  0  0  0  0  0  0  0  0  0  0  0
    7.9607    2.2402    0.0000 H   0  0  0  0  0  0  0  0  0  0  0  0
    6.7977    0.2417    0.0000 H   0  0  0  0  0  0  0  0  0  0  0  0
    5.7637   -0.1804    0.0000 H   0  0  0  0  0  0  0  0  0  0  0  0
    7.4846    3.4479    0.0000 H   0  0  0  0  0  0  0  0  0  0  0  0
    4.1328   -0.1804    0.0000 H   0  0  0  0  0  0  0  0  0  0  0  0
    6.0816    4.2579    0.0000 H   0  0  0  0  0  0  0  0  0  0  0  0
    2.6383   -2.1288    0.0000 H   0  0  0  0  0  0  0  0  0  0  0  0
    4.3496    4.2579    0.0000 H   0  0  0  0  0  0  0  0  0  0  0  0
    1.9114   -0.4158    0.0000 H   0  0  0  0  0  0  0  0  0  0  0  0
    2.0099   -1.1642    0.0000 H   0  0  0  0  0  0  0  0  0  0  0  0
    3.3231    3.7368    0.0000 H   0  0  0  0  0  0  0  0  0  0  0  0
    2.8636    3.1379    0.0000 H   0  0  0  0  0  0  0  0  0  0  0  0
    8.7894   -1.7591    0.0000 H   0  0  0  0  0  0  0  0  0  0  0  0
    9.5229    0.9785    0.0000 H   0  0  0  0  0  0  0  0  0  0  0  0
    6.6029   -3.3446    0.0000 H   0  0  0  0  0  0  0  0  0  0  0  0
    6.6382    0.2926    0.0000 H   0  0  0  0  0  0  0  0  0  0  0  0
    3.2937   -3.3446    0.0000 H   0  0  0  0  0  0  0  0  0  0  0  0
    3.7723    1.9472    0.0000 H   0  0  0  0  0  0  0  0  0  0  0  0
    9.9534   -0.6039    0.0000 H   0  0  0  0  0  0  0  0  0  0  0  0
    5.7812   -4.7936    0.0000 H   0  0  0  0  0  0  0  0  0  0  0  0
    5.2020   -0.5514    0.0000 H   0  0  0  0  0  0  0  0  0  0  0  0
    4.1154   -4.7936    0.0000 H   0  0  0  0  0  0  0  0  0  0  0  0
    3.7595    0.2815    0.0000 H   0  0  0  0  0  0  0  0  0  0  0  0
    1.4011    0.7867    0.0000 H   0  0  0  0  0  0  0  0  0  0  0  0
    4.1182    0.0531    0.0000 H   0  0  0  0  0  0  0  0  0  0  0  0
    1.8204    2.3515    0.0000 H   0  0  0  0  0  0  0  0  0  0  0  0
    4.5403    1.6284    0.0000 H   0  0  0  0  0  0  0  0  0  0  0  0
  1  5  1  0  0  0  0
  1  7  1  0  0  0  0
  1 16  2  0  0  0  0
  2  6  1  0  0  0  0
  2  8  1  0  0  0  0
  2 17  2  0  0  0  0
  3 13  1  0  0  0  0
  3 22  1  0  0  0  0
  3 48  1  0  0  0  0
  4 14  1  0  0  0  0
  4 23  1  0  0  0  0
  4 49  1  0  0  0  0
  5  9  1  0  0  0  0
  5 39  1  0  0  0  0
  5 40  1  0  0  0  0
  6 10  1  0  0  0  0
  6 41  1  0  0  0  0
  6 42  1  0  0  0  0
  7 11  1  0  0  0  0
  7 24  2  0  0  0  0
  8 12  1  0  0  0  0
  8 25  2  0  0  0  0
  9 15  2  0  0  0  0
  9 20  1  0  0  0  0
 10 15  1  0  0  0  0
 10 21  2  0  0  0  0
 11 13  1  0  0  0  0
 11 26  2  0  0  0  0
 12 14  1  0  0  0  0
 12 27  2  0  0  0  0
 13 18  2  0  0  0  0
 14 19  2  0  0  0  0
 15 43  1  0  0  0  0
 16 18  1  0  0  0  0
 16 44  1  0  0  0  0
 17 19  1  0  0  0  0
 17 45  1  0  0  0  0
 18 46  1  0  0  0  0
 19 47  1  0  0  0  0
 20 30  2  0  0  0  0
 20 54  1  0  0  0  0
 21 30  1  0  0  0  0
 21 55  1  0  0  0  0
 22 28  1  0  0  0  0
 22 50  1  0  0  0  0
 22 51  1  0  0  0  0
 23 29  1  0  0  0  0
 23 52  1  0  0  0  0
 23 53  1  0  0  0  0
 24 31  1  0  0  0  0
 24 56  1  0  0  0  0
 25 32  1  0  0  0  0
 25 57  1  0  0  0  0
 26 33  1  0  0  0  0
 26 58  1  0  0  0  0
 27 34  1  0  0  0  0
 27 59  1  0  0  0  0
 28 35  2  0  0  0  0
 28 36  1  0  0  0  0
 29 37  2  0  0  0  0
 29 38  1  0  0  0  0
 30 60  1  0  0  0  0
 31 33  2  0  0  0  0
 31 61  1  0  0  0  0
 32 34  2  0  0  0  0
 32 62  1  0  0  0  0
 33 63  1  0  0  0  0
 34 64  1  0  0  0  0
 35 37  1  0  0  0  0
 35 65  1  0  0  0  0
 36 38  2  0  0  0  0
 36 66  1  0  0  0  0
 37 67  1  0  0  0  0
 38 68  1  0  0  0  0
M  CHG  2   1   1   2   1
M  END
> <PUBCHEM_COMPOUND_CID>
656733

> <PUBCHEM_COMPOUND_CANONICALIZED>
1

> <PUBCHEM_CACTVS_COMPLEXITY>
689

> <PUBCHEM_CACTVS_HBOND_ACCEPTOR>
2

> <PUBCHEM_CACTVS_HBOND_DONOR>
2

> <PUBCHEM_CACTVS_ROTATABLE_BOND>
0

> <PUBCHEM_CACTVS_SUBSKEYS>
AAADceB/gAAAAAAAAAAAAAAAAAAAAAAAAAA8eMGCAAAAAACx/gAAHAAQAAAADAjBHgQ8wPPMEACgAzRnRACCgCAxAiAI2KA4ZJgIIOLA0dGEJAhgkADIyAcQgMAOQAACAAACAACAAAQAAAQAAAAAAAAAAA==

> <PUBCHEM_IUPAC_INCHI>
InChI=1S/C34H28N4/c1-3-10-33-29(8-1)31-16-18-37(33)23-27-6-5-7-28(20-27)24-38-19-17-32(30-9-2-4-11-34(30)38)36-22-26-14-12-25(13-15-26)21-35-31/h1-20H,21-24H2/p+2

> <PUBCHEM_IUPAC_INCHIKEY>
HZWVJPDDZQOYGA-UHFFFAOYSA-P

> <PUBCHEM_XLOGP3_AA>
6.9

> <PUBCHEM_EXACT_MASS>
494.247047

> <PUBCHEM_MOLECULAR_FORMULA>
C34H30N4+2

> <PUBCHEM_MOLECULAR_WEIGHT>
494.6288

> <PUBCHEM_OPENEYE_CAN_SMILES>
C1C2=CC=C(CNC3=CC=[N+](CC4=CC=CC(=C4)C[N+]5=CC=C(N1)C6=CC=CC=C65)C7=CC=CC=C37)C=C2

> <PUBCHEM_OPENEYE_ISO_SMILES>
C1C2=CC=C(CNC3=CC=[N+](CC4=CC=CC(=C4)C[N+]5=CC=C(N1)C6=CC=CC=C65)C7=CC=CC=C37)C=C2

> <PUBCHEM_CACTVS_TPSA>
31.8

> <PUBCHEM_MONOISOTOPIC_WEIGHT>
494.247047

> <PUBCHEM_TOTAL_CHARGE>
2

> <PUBCHEM_HEAVY_ATOM_COUNT>
38

> <PUBCHEM_ATOM_DEF_STEREO_COUNT>
0

> <PUBCHEM_ATOM_UDEF_STEREO_COUNT>
0

> <PUBCHEM_BOND_DEF_STEREO_COUNT>
0

> <PUBCHEM_BOND_UDEF_STEREO_COUNT>
0

> <PUBCHEM_ISOTOPIC_ATOM_COUNT>
0

> <PUBCHEM_COMPONENT_COUNT>
1

> <PUBCHEM_CACTVS_TAUTO_COUNT>
2

> <PUBCHEM_COORDINATE_TYPE>
1
5
255

> <PUBCHEM_BONDANNOTATIONS>
1  16  8
1  7  8
10  15  8
10  21  8
11  13  8
11  26  8
12  14  8
12  27  8
13  18  8
14  19  8
16  18  8
17  19  8
2  17  8
2  8  8
20  30  8
21  30  8
24  31  8
25  32  8
26  33  8
27  34  8
28  35  8
28  36  8
29  37  8
29  38  8
31  33  8
32  34  8
35  37  8
36  38  8
7  11  8
7  24  8
8  12  8
8  25  8
9  15  8
9  20  8

$$$$

