92295
  -OEChem-07051213012D

 62 65  0     0  0  0  0  0  0999 V2000
    6.4062    0.0000    0.0000 Cl  0  5  0  0  0  0  0  0  0  0  0  0
   10.9959    6.6467    0.0000 N   0  3  0  0  0  0  0  0  0  0  0  0
   12.7819    9.6918    0.0000 N   0  0  0  0  0  0  0  0  0  0  0  0
    6.5998    6.1225    0.0000 N   0  0  0  0  0  0  0  0  0  0  0  0
    5.7318    6.6192    0.0000 N   0  0  0  0  0  0  0  0  0  0  0  0
    4.8678    6.1159    0.0000 N   0  0  0  0  0  0  0  0  0  0  0  0
    0.5357    6.5992    0.0000 N   0  0  0  0  0  0  0  0  0  0  0  0
    1.4075    5.1025    0.0000 N   0  0  0  0  0  0  0  0  0  0  0  0
   10.1299    6.1467    0.0000 C   0  0  0  0  0  0  0  0  0  0  0  0
   10.9959    7.6467    0.0000 C   0  0  0  0  0  0  0  0  0  0  0  0
    9.2639    6.6467    0.0000 C   0  0  0  0  0  0  0  0  0  0  0  0
   10.1299    8.1467    0.0000 C   0  0  0  0  0  0  0  0  0  0  0  0
    9.2639    7.6467    0.0000 C   0  0  0  0  0  0  0  0  0  0  0  0
   11.8620    6.1467    0.0000 C   0  0  0  0  0  0  0  0  0  0  0  0
   10.1299    5.1467    0.0000 C   0  0  0  0  0  0  0  0  0  0  0  0
   11.9059    8.1535    0.0000 C   0  0  0  0  0  0  0  0  0  0  0  0
    8.3700    6.1120    0.0000 C   0  0  0  0  0  0  0  0  0  0  0  0
   10.1139    9.1882    0.0000 C   0  0  0  0  0  0  0  0  0  0  0  0
    8.3700    8.1814    0.0000 C   0  0  0  0  0  0  0  0  0  0  0  0
   11.9140    9.1951    0.0000 C   0  0  0  0  0  0  0  0  0  0  0  0
   12.7280    6.6467    0.0000 C   0  0  0  0  0  0  0  0  0  0  0  0
    7.4639    6.6259    0.0000 C   0  0  0  0  0  0  0  0  0  0  0  0
   11.0119    9.7160    0.0000 C   0  0  0  0  0  0  0  0  0  0  0  0
    7.4639    7.6675    0.0000 C   0  0  0  0  0  0  0  0  0  0  0  0
    9.2639    4.6467    0.0000 C   0  0  0  0  0  0  0  0  0  0  0  0
   10.9959    4.6467    0.0000 C   0  0  0  0  0  0  0  0  0  0  0  0
    9.2639    3.6467    0.0000 C   0  0  0  0  0  0  0  0  0  0  0  0
   10.9959    3.6467    0.0000 C   0  0  0  0  0  0  0  0  0  0  0  0
   10.1299    3.1467    0.0000 C   0  0  0  0  0  0  0  0  0  0  0  0
    3.9998    6.6125    0.0000 C   0  0  0  0  0  0  0  0  0  0  0  0
    3.1357    6.1092    0.0000 C   0  0  0  0  0  0  0  0  0  0  0  0
    3.9960    7.6125    0.0000 C   0  0  0  0  0  0  0  0  0  0  0  0
    2.2678    6.6058    0.0000 C   0  0  0  0  0  0  0  0  0  0  0  0
    3.1280    8.1092    0.0000 C   0  0  0  0  0  0  0  0  0  0  0  0
    2.2639    7.6058    0.0000 C   0  0  0  0  0  0  0  0  0  0  0  0
    1.4037    6.1025    0.0000 C   0  0  0  0  0  0  0  0  0  0  0  0
   11.4634    5.6717    0.0000 H   0  0  0  0  0  0  0  0  0  0  0  0
   12.2605    5.6717    0.0000 H   0  0  0  0  0  0  0  0  0  0  0  0
   12.4393    7.8373    0.0000 H   0  0  0  0  0  0  0  0  0  0  0  0
    8.3771    5.4921    0.0000 H   0  0  0  0  0  0  0  0  0  0  0  0
    9.5734    9.4920    0.0000 H   0  0  0  0  0  0  0  0  0  0  0  0
    8.3771    8.8013    0.0000 H   0  0  0  0  0  0  0  0  0  0  0  0
   13.0380    6.1098    0.0000 H   0  0  0  0  0  0  0  0  0  0  0  0
   13.2649    6.9567    0.0000 H   0  0  0  0  0  0  0  0  0  0  0  0
   12.4180    7.1836    0.0000 H   0  0  0  0  0  0  0  0  0  0  0  0
   11.0095   10.3359    0.0000 H   0  0  0  0  0  0  0  0  0  0  0  0
    6.9282    7.9796    0.0000 H   0  0  0  0  0  0  0  0  0  0  0  0
    8.7270    4.9567    0.0000 H   0  0  0  0  0  0  0  0  0  0  0  0
   11.5329    4.9567    0.0000 H   0  0  0  0  0  0  0  0  0  0  0  0
    8.7270    3.3367    0.0000 H   0  0  0  0  0  0  0  0  0  0  0  0
   11.5329    3.3367    0.0000 H   0  0  0  0  0  0  0  0  0  0  0  0
   12.7843   10.3118    0.0000 H   0  0  0  0  0  0  0  0  0  0  0  0
   13.3177    9.3797    0.0000 H   0  0  0  0  0  0  0  0  0  0  0  0
   10.1299    2.5267    0.0000 H   0  0  0  0  0  0  0  0  0  0  0  0
    4.8702    5.4959    0.0000 H   0  0  0  0  0  0  0  0  0  0  0  0
    3.1381    5.4892    0.0000 H   0  0  0  0  0  0  0  0  0  0  0  0
    4.5317    7.9246    0.0000 H   0  0  0  0  0  0  0  0  0  0  0  0
    1.7258    7.9138    0.0000 H   0  0  0  0  0  0  0  0  0  0  0  0
    3.1256    8.7292    0.0000 H   0  0  0  0  0  0  0  0  0  0  0  0
    0.0000    6.2871    0.0000 H   0  0  0  0  0  0  0  0  0  0  0  0
    0.5333    7.2192    0.0000 H   0  0  0  0  0  0  0  0  0  0  0  0
    0.8718    4.7904    0.0000 H   0  0  0  0  0  0  0  0  0  0  0  0
  2  9  1  0  0  0  0
  2 10  2  0  0  0  0
  2 14  1  0  0  0  0
  3 20  1  0  0  0  0
  3 52  1  0  0  0  0
  3 53  1  0  0  0  0
  4  5  2  0  0  0  0
  4 22  1  0  0  0  0
  5  6  1  0  0  0  0
  6 30  1  0  0  0  0
  6 55  1  0  0  0  0
  7 36  1  0  0  0  0
  7 60  1  0  0  0  0
  7 61  1  0  0  0  0
  8 36  2  0  0  0  0
  8 62  1  0  0  0  0
  9 11  2  0  0  0  0
  9 15  1  0  0  0  0
 10 12  1  0  0  0  0
 10 16  1  0  0  0  0
 11 13  1  0  0  0  0
 11 17  1  0  0  0  0
 12 13  2  0  0  0  0
 12 18  1  0  0  0  0
 13 19  1  0  0  0  0
 14 21  1  0  0  0  0
 14 37  1  0  0  0  0
 14 38  1  0  0  0  0
 15 25  2  0  0  0  0
 15 26  1  0  0  0  0
 16 20  2  0  0  0  0
 16 39  1  0  0  0  0
 17 22  2  0  0  0  0
 17 40  1  0  0  0  0
 18 23  2  0  0  0  0
 18 41  1  0  0  0  0
 19 24  2  0  0  0  0
 19 42  1  0  0  0  0
 20 23  1  0  0  0  0
 21 43  1  0  0  0  0
 21 44  1  0  0  0  0
 21 45  1  0  0  0  0
 22 24  1  0  0  0  0
 23 46  1  0  0  0  0
 24 47  1  0  0  0  0
 25 27  1  0  0  0  0
 25 48  1  0  0  0  0
 26 28  2  0  0  0  0
 26 49  1  0  0  0  0
 27 29  2  0  0  0  0
 27 50  1  0  0  0  0
 28 29  1  0  0  0  0
 28 51  1  0  0  0  0
 29 54  1  0  0  0  0
 30 31  1  0  0  0  0
 30 32  2  0  0  0  0
 31 33  2  0  0  0  0
 31 56  1  0  0  0  0
 32 34  1  0  0  0  0
 32 57  1  0  0  0  0
 33 35  1  0  0  0  0
 33 36  1  0  0  0  0
 34 35  2  0  0  0  0
 34 59  1  0  0  0  0
 35 58  1  0  0  0  0
M  CHG  2   1  -1   2   1
M  END
> <PUBCHEM_COMPOUND_CID>
92295

> <PUBCHEM_COMPOUND_CANONICALIZED>
1

> <PUBCHEM_CACTVS_COMPLEXITY>
735

> <PUBCHEM_CACTVS_HBOND_ACCEPTOR>
6

> <PUBCHEM_CACTVS_HBOND_DONOR>
4

> <PUBCHEM_CACTVS_ROTATABLE_BOND>
6

> <PUBCHEM_CACTVS_SUBSKEYS>
AAADceB7gAAEAAAAAAAAAAAAAAAAAAAAAAA8YMGCAAAAAACx/AAAHAAYAAAADAjBHgQzwPNuEACiAyZiZACChCChAiAY2CA4ZJgIIOLA0dGEJAhgkADIyAcQgMAOiAAAQAQSAAAQAACACCQAAAAAAAAAAA==

> <PUBCHEM_IUPAC_OPENEYE_NAME>
3-[2-(3-amino-5-ethyl-6-phenyl-phenanthridin-5-ium-8-yl)iminohydrazino]benzamidine chloride

> <PUBCHEM_IUPAC_CAS_NAME>
3-[2-[(3-amino-5-ethyl-6-phenyl-8-phenanthridin-5-iumyl)imino]hydrazinyl]benzenecarboximidamide chloride

> <PUBCHEM_IUPAC_NAME>
3-[2-(3-amino-5-ethyl-6-phenylphenanthridin-5-ium-8-yl)iminohydrazinyl]benzenecarboximidamide chloride

> <PUBCHEM_IUPAC_SYSTEMATIC_NAME>
3-[2-(3-azanyl-5-ethyl-6-phenyl-phenanthridin-5-ium-8-yl)iminohydrazinyl]benzenecarboximidamide chloride

> <PUBCHEM_IUPAC_TRADITIONAL_NAME>
3-[N'-(3-amino-5-ethyl-6-phenyl-phenanthridin-5-ium-8-yl)iminohydrazino]benzamidine chloride

> <PUBCHEM_IUPAC_INCHI>
InChI=1S/C28H25N7.ClH/c1-2-35-26-16-20(29)11-13-24(26)23-14-12-22(17-25(23)27(35)18-7-4-3-5-8-18)33-34-32-21-10-6-9-19(15-21)28(30)31;/h3-17,29H,2H2,1H3,(H4,30,31,32,33);1H

> <PUBCHEM_IUPAC_INCHIKEY>
QNZJTSGALAVCLH-UHFFFAOYSA-N

> <PUBCHEM_EXACT_MASS>
495.193822

> <PUBCHEM_MOLECULAR_FORMULA>
C28H26ClN7

> <PUBCHEM_MOLECULAR_WEIGHT>
496.00594

> <PUBCHEM_OPENEYE_CAN_SMILES>
CC[N+]1=C2C=C(C=CC2=C3C=CC(=CC3=C1C4=CC=CC=C4)N=NNC5=CC=CC(=C5)C(=N)N)N.[Cl-]

> <PUBCHEM_OPENEYE_ISO_SMILES>
CC[N+]1=C2C=C(C=CC2=C3C=CC(=CC3=C1C4=CC=CC=C4)N=NNC5=CC=CC(=C5)C(=N)N)N.[Cl-]

> <PUBCHEM_CACTVS_TPSA>
117

> <PUBCHEM_MONOISOTOPIC_WEIGHT>
495.193822

> <PUBCHEM_TOTAL_CHARGE>
0

> <PUBCHEM_HEAVY_ATOM_COUNT>
36

> <PUBCHEM_ATOM_DEF_STEREO_COUNT>
0

> <PUBCHEM_ATOM_UDEF_STEREO_COUNT>
0

> <PUBCHEM_BOND_DEF_STEREO_COUNT>
0

> <PUBCHEM_BOND_UDEF_STEREO_COUNT>
0

> <PUBCHEM_ISOTOPIC_ATOM_COUNT>
0

> <PUBCHEM_COMPONENT_COUNT>
2

> <PUBCHEM_CACTVS_TAUTO_COUNT>
15

> <PUBCHEM_COORDINATE_TYPE>
1
5
255

> <PUBCHEM_BONDANNOTATIONS>
10  12  8
10  16  8
11  13  8
11  17  8
12  13  8
12  18  8
13  19  8
15  25  8
15  26  8
16  20  8
17  22  8
18  23  8
19  24  8
2  10  8
2  9  8
20  23  8
22  24  8
25  27  8
26  28  8
27  29  8
28  29  8
30  31  8
30  32  8
31  33  8
32  34  8
33  35  8
34  35  8
9  11  8

$$$$

