6452388
  -OEChem-07051213072D

 52 55  0     1  0  0  0  0  0999 V2000
    4.7950    0.3433    0.0000 O   0  0  0  0  0  0  0  0  0  0  0  0
    2.0000   -3.2090    0.0000 O   0  0  0  0  0  0  0  0  0  0  0  0
    8.2928    2.7934    0.0000 O   0  0  0  0  0  0  0  0  0  0  0  0
    7.3931   -1.1567    0.0000 C   0  0  1  0  0  0  0  0  0  0  0  0
    6.5271   -1.6567    0.0000 C   0  0  1  0  0  0  0  0  0  0  0  0
    7.3931   -0.1567    0.0000 C   0  0  2  0  0  0  0  0  0  0  0  0
    5.6610   -1.1567    0.0000 C   0  0  2  0  0  0  0  0  0  0  0  0
    5.6610   -0.1567    0.0000 C   0  0  2  0  0  0  0  0  0  0  0  0
    6.5271    0.3433    0.0000 C   0  0  0  0  0  0  0  0  0  0  0  0
    4.7510   -1.6635    0.0000 C   0  0  1  0  0  0  0  0  0  0  0  0
    8.3393   -1.4614    0.0000 C   0  0  0  0  0  0  0  0  0  0  0  0
    6.5431   -2.6982    0.0000 C   0  0  0  0  0  0  0  0  0  0  0  0
    8.3393    0.1480    0.0000 C   0  0  0  0  0  0  0  0  0  0  0  0
    8.9229   -0.6567    0.0000 C   0  0  0  0  0  0  0  0  0  0  0  0
    4.7430   -2.7051    0.0000 C   0  0  0  0  0  0  0  0  0  0  0  0
    5.6451   -3.2260    0.0000 C   0  0  0  0  0  0  0  0  0  0  0  0
    7.3931    0.8433    0.0000 C   0  0  0  0  0  0  0  0  0  0  0  0
    4.7587   -0.6636    0.0000 C   0  0  0  0  0  0  0  0  0  0  0  0
    3.8242   -1.0994    0.0000 C   0  0  0  0  0  0  0  0  0  0  0  0
    8.6500    1.0986    0.0000 C   0  0  0  0  0  0  0  0  0  0  0  0
    3.8076   -3.2549    0.0000 C   0  0  0  0  0  0  0  0  0  0  0  0
    2.8763   -1.6274    0.0000 C   0  0  0  0  0  0  0  0  0  0  0  0
    2.8680   -2.7124    0.0000 C   0  0  0  0  0  0  0  0  0  0  0  0
    7.9821    1.8429    0.0000 C   0  0  0  0  0  0  0  0  0  0  0  0
    7.4830   -2.0019    0.0000 H   0  0  0  0  0  0  0  0  0  0  0  0
    7.2664   -2.0760    0.0000 H   0  0  0  0  0  0  0  0  0  0  0  0
    6.3972   -0.7317    0.0000 H   0  0  0  0  0  0  0  0  0  0  0  0
    5.6610    0.4633    0.0000 H   0  0  0  0  0  0  0  0  0  0  0  0
    6.9256    0.8183    0.0000 H   0  0  0  0  0  0  0  0  0  0  0  0
    6.1285    0.8183    0.0000 H   0  0  0  0  0  0  0  0  0  0  0  0
    8.0883   -2.0283    0.0000 H   0  0  0  0  0  0  0  0  0  0  0  0
    8.8767   -1.7706    0.0000 H   0  0  0  0  0  0  0  0  0  0  0  0
    6.7612   -3.2786    0.0000 H   0  0  0  0  0  0  0  0  0  0  0  0
    7.1523   -2.5827    0.0000 H   0  0  0  0  0  0  0  0  0  0  0  0
    9.3838   -1.0714    0.0000 H   0  0  0  0  0  0  0  0  0  0  0  0
    9.3838   -0.2420    0.0000 H   0  0  0  0  0  0  0  0  0  0  0  0
    5.2478   -3.7019    0.0000 H   0  0  0  0  0  0  0  0  0  0  0  0
    6.0460   -3.6988    0.0000 H   0  0  0  0  0  0  0  0  0  0  0  0
    8.0131    0.8433    0.0000 H   0  0  0  0  0  0  0  0  0  0  0  0
    7.3931    1.4633    0.0000 H   0  0  0  0  0  0  0  0  0  0  0  0
    6.7731    0.8433    0.0000 H   0  0  0  0  0  0  0  0  0  0  0  0
    5.3787   -0.6683    0.0000 H   0  0  0  0  0  0  0  0  0  0  0  0
    4.7635   -0.0436    0.0000 H   0  0  0  0  0  0  0  0  0  0  0  0
    4.1388   -0.6588    0.0000 H   0  0  0  0  0  0  0  0  0  0  0  0
    3.8361   -0.4796    0.0000 H   0  0  0  0  0  0  0  0  0  0  0  0
    9.2566    1.2264    0.0000 H   0  0  0  0  0  0  0  0  0  0  0  0
    4.7950    0.9633    0.0000 H   0  0  0  0  0  0  0  0  0  0  0  0
    3.8100   -3.8748    0.0000 H   0  0  0  0  0  0  0  0  0  0  0  0
    2.3430   -1.3112    0.0000 H   0  0  0  0  0  0  0  0  0  0  0  0
    7.4352    2.1349    0.0000 H   0  0  0  0  0  0  0  0  0  0  0  0
    7.5996    1.3550    0.0000 H   0  0  0  0  0  0  0  0  0  0  0  0
    7.8787    3.2549    0.0000 H   0  0  0  0  0  0  0  0  0  0  0  0
  8  1  1  1  0  0  0
  1 47  1  0  0  0  0
  2 23  2  0  0  0  0
  3 24  1  0  0  0  0
  3 52  1  0  0  0  0
  4  5  1  0  0  0  0
  4  6  1  0  0  0  0
  4 11  1  0  0  0  0
  4 25  1  6  0  0  0
  5  7  1  0  0  0  0
  5 12  1  0  0  0  0
  5 26  1  1  0  0  0
  6  9  1  0  0  0  0
  6 13  1  0  0  0  0
  6 17  1  1  0  0  0
  7  8  1  0  0  0  0
  7 10  1  0  0  0  0
  7 27  1  6  0  0  0
  8  9  1  0  0  0  0
  8 28  1  0  0  0  0
  9 29  1  0  0  0  0
  9 30  1  0  0  0  0
 10 15  1  0  0  0  0
 10 18  1  1  0  0  0
 10 19  1  0  0  0  0
 11 14  1  0  0  0  0
 11 31  1  0  0  0  0
 11 32  1  0  0  0  0
 12 16  1  0  0  0  0
 12 33  1  0  0  0  0
 12 34  1  0  0  0  0
 13 14  1  0  0  0  0
 13 20  2  0  0  0  0
 14 35  1  0  0  0  0
 14 36  1  0  0  0  0
 15 16  1  0  0  0  0
 15 21  2  0  0  0  0
 16 37  1  0  0  0  0
 16 38  1  0  0  0  0
 17 39  1  0  0  0  0
 17 40  1  0  0  0  0
 17 41  1  0  0  0  0
 18 42  1  0  0  0  0
 18 43  1  0  0  0  0
 18 44  1  0  0  0  0
 19 22  2  0  0  0  0
 19 45  1  0  0  0  0
 20 24  1  0  0  0  0
 20 46  1  0  0  0  0
 21 23  1  0  0  0  0
 21 48  1  0  0  0  0
 22 23  1  0  0  0  0
 22 49  1  0  0  0  0
 24 50  1  0  0  0  0
 24 51  1  0  0  0  0
M  END
> <PUBCHEM_COMPOUND_CID>
6452388

> <PUBCHEM_COMPOUND_CANONICALIZED>
1

> <PUBCHEM_CACTVS_COMPLEXITY>
658

> <PUBCHEM_CACTVS_HBOND_ACCEPTOR>
3

> <PUBCHEM_CACTVS_HBOND_DONOR>
2

> <PUBCHEM_CACTVS_ROTATABLE_BOND>
1

> <PUBCHEM_CACTVS_SUBSKEYS>
AAADceB4MAAAAAAAAAAAAAAAAAAAAYAAAAAwYIAAAAAAAGDAAAAAGgAACAAADxSggAICAAAAAgCIAqBSAAAAAAAgAAAICAAAAEgAFAIAAQAAUAAEgAAIEYOAwPAPgAAAAAAAAADAAAYAADAAAAAACAAAAA==

> <PUBCHEM_IUPAC_OPENEYE_NAME>
(8S,9S,10R,11S,13S,14S,17Z)-11-hydroxy-17-(2-hydroxyethylidene)-10,13-dimethyl-7,8,9,11,12,14,15,16-octahydro-6H-cyclopenta[a]phenanthren-3-one

> <PUBCHEM_IUPAC_CAS_NAME>
(8S,9S,10R,11S,13S,14S,17Z)-11-hydroxy-17-(2-hydroxyethylidene)-10,13-dimethyl-7,8,9,11,12,14,15,16-octahydro-6H-cyclopenta[a]phenanthren-3-one

> <PUBCHEM_IUPAC_NAME>
(8S,9S,10R,11S,13S,14S,17Z)-11-hydroxy-17-(2-hydroxyethylidene)-10,13-dimethyl-7,8,9,11,12,14,15,16-octahydro-6H-cyclopenta[a]phenanthren-3-one

> <PUBCHEM_IUPAC_SYSTEMATIC_NAME>
(8S,9S,10R,11S,13S,14S,17Z)-10,13-dimethyl-11-oxidanyl-17-(2-oxidanylethylidene)-7,8,9,11,12,14,15,16-octahydro-6H-cyclopenta[a]phenanthren-3-one

> <PUBCHEM_IUPAC_TRADITIONAL_NAME>
(8S,9S,10R,11S,13S,14S,17Z)-11-hydroxy-17-(2-hydroxyethylidene)-10,13-dimethyl-7,8,9,11,12,14,15,16-octahydro-6H-cyclopenta[a]phenanthren-3-one

> <PUBCHEM_IUPAC_INCHI>
InChI=1S/C21H28O3/c1-20-9-7-15(23)11-14(20)3-5-16-17-6-4-13(8-10-22)21(17,2)12-18(24)19(16)20/h7-9,11,16-19,22,24H,3-6,10,12H2,1-2H3/b13-8-/t16-,17-,18-,19+,20-,21+/m0/s1

> <PUBCHEM_IUPAC_INCHIKEY>
FIMYJWIQTVIDQB-PKJGFKEFSA-N

> <PUBCHEM_XLOGP3_AA>
2.5

> <PUBCHEM_EXACT_MASS>
328.203845

> <PUBCHEM_MOLECULAR_FORMULA>
C21H28O3

> <PUBCHEM_MOLECULAR_WEIGHT>
328.44522

> <PUBCHEM_OPENEYE_CAN_SMILES>
CC12CC(C3C(C1CCC2=CCO)CCC4=CC(=O)C=CC34C)O

> <PUBCHEM_OPENEYE_ISO_SMILES>
C[C@]1\2C[C@@H]([C@H]3[C@H]([C@@H]1CC/C2=C/CO)CCC4=CC(=O)C=C[C@]34C)O

> <PUBCHEM_CACTVS_TPSA>
57.5

> <PUBCHEM_MONOISOTOPIC_WEIGHT>
328.203845

> <PUBCHEM_TOTAL_CHARGE>
0

> <PUBCHEM_HEAVY_ATOM_COUNT>
24

> <PUBCHEM_ATOM_DEF_STEREO_COUNT>
6

> <PUBCHEM_ATOM_UDEF_STEREO_COUNT>
0

> <PUBCHEM_BOND_DEF_STEREO_COUNT>
1

> <PUBCHEM_BOND_UDEF_STEREO_COUNT>
0

> <PUBCHEM_ISOTOPIC_ATOM_COUNT>
0

> <PUBCHEM_COMPONENT_COUNT>
1

> <PUBCHEM_CACTVS_TAUTO_COUNT>
3

> <PUBCHEM_COORDINATE_TYPE>
1
5
255

> <PUBCHEM_BONDANNOTATIONS>
8  1  5
10  18  5
4  25  6
5  26  5
6  17  5
7  27  6

$$$$

