   Color/Form
        Colorless or slightly yellow liquid
   from [1]HSDB

   Odor

     * Pleasant odor
     * Mild ketone-like odor

   from [2]HSDB

   Boiling Point
        138 deg C
   from [3]HSDB

   Melting Point
        -23 deg C
   from [4]HSDB

   Density/Specific Gravity
        0.9721 at 25 deg C/4 deg C
   from [5]HSDB

   Heat of Combustion
        -11,070 Btu/lb= -6,150 Cal/g
   from [6]HSDB

   Heat of Vaporization
        36.55 kJ/mol at 101.3 kPa
   from [7]HSDB

   Octanol/Water Partition Coefficient
        log Kow = 0.40
   from [8]HSDB

   Solubilities

     * Miscible in ethanol, ether, acetone chloroform
     * Miscible with glacial acetic acid, propylene glycol. Insoluble in
       glycerin.
     * In water, 166,000 mg/L at 20 deg C

   from [9]HSDB

   Spectral Properties

     * Index of refraction: 1.4494 at 20 deg C/D
     * SADTLER REFERENCE NUMBER: 5774 (IR, PRISM)
     * MAX ABSORPTION (ISOOCTANE): 271 NM (LOG E= 4.00); (CHLOROFORM): 274
       NM (LOG E= 4.03)
     * IR: 497 (Sadtler Research Laboratories IR Grating Collection)
     * UV: 1615 (Sadtler Research Laboratories Spectral Collection)
     * 13C NMR: 115 (Johnson and Jankowski, Carbon-13 NMR for Chemists,
       John Wiley & Sons, New York)
     * MASS: 1117 (NIST/EPA/MSDC Mass Spectral Database, 1990 version)

   from [10]HSDB

   Surface Tension
        31.2 dynes/cm @ 20 deg C
   from [11]HSDB

   Vapor Density
        3.5 (Air= 1)
   from [12]HSDB

   Vapor Pressure
        2.96 mm Hg at 20 deg C (est)
   from [13]HSDB

   Viscosity
        0.6 mPa.s at 20 deg C
   from [14]HSDB

   Other Chemical/Physical Properties

     * Bulk density = 8.1 lb/gal
     * Heat of solution: -11.5 Btu/lg = -6.4 Cal/g; Ratio of specific
       heats of vapor (gas) = 1.072 (est)
     * The enol form predominates (70-90%) in the pure liquid state, the
       vapor state, and when dissolved in most organic solvents. In water,
       only 12% of the enol is present at equilibrium
     * Henry's Law constant= 2.35X10-6 atm-cu m/mole at 20 deg C (est)
     * Hydroxyl radical reaction rate constant = 1.15X10-12 cu
       cm/molec-sec at 25 deg C

   from [15]HSDB

   Computed Properties
   Molecular Weight                  100.11582 [g/mol]
   Molecular Formula                 C[5]H[8]O[2]
   XLogP3                            0.4
   H-Bond Donor                      0
   H-Bond Acceptor                   2
   Rotatable Bond Count              2
   Tautomer Count                    5
   Exact Mass                        100.052429
   MonoIsotopic Mass                 100.052429
   Topological Polar Surface Area    34.1
   Heavy Atom Count                  7
   Formal Charge                     0
   Complexity                        82.3
   Isotope Atom Count                0
   Defined Atom Stereocenter Count   0
   Undefined Atom Stereocenter Count 0
   Defined Bond Stereocenter Count   0
   Undefined Bond Stereocenter Count 0
   Covalently-Bonded Unit Count      1
   Feature 3D Acceptor Count         2
   Feature 3D Anion Count            1
   Effective Rotor Count             2
   Conformer Sampling RMSD           0.4
   CID Conformer Count               [16]26

References

   1. http://toxnet.nlm.nih.gov/cgi-bin/sis/search/r?dbs+hsdb:@term+@rn+@rel+123-54-6
   2. http://toxnet.nlm.nih.gov/cgi-bin/sis/search/r?dbs+hsdb:@term+@rn+@rel+123-54-6
   3. http://toxnet.nlm.nih.gov/cgi-bin/sis/search/r?dbs+hsdb:@term+@rn+@rel+123-54-6
   4. http://toxnet.nlm.nih.gov/cgi-bin/sis/search/r?dbs+hsdb:@term+@rn+@rel+123-54-6
   5. http://toxnet.nlm.nih.gov/cgi-bin/sis/search/r?dbs+hsdb:@term+@rn+@rel+123-54-6
   6. http://toxnet.nlm.nih.gov/cgi-bin/sis/search/r?dbs+hsdb:@term+@rn+@rel+123-54-6
   7. http://toxnet.nlm.nih.gov/cgi-bin/sis/search/r?dbs+hsdb:@term+@rn+@rel+123-54-6
   8. http://toxnet.nlm.nih.gov/cgi-bin/sis/search/r?dbs+hsdb:@term+@rn+@rel+123-54-6
   9. http://toxnet.nlm.nih.gov/cgi-bin/sis/search/r?dbs+hsdb:@term+@rn+@rel+123-54-6
  10. http://toxnet.nlm.nih.gov/cgi-bin/sis/search/r?dbs+hsdb:@term+@rn+@rel+123-54-6
  11. http://toxnet.nlm.nih.gov/cgi-bin/sis/search/r?dbs+hsdb:@term+@rn+@rel+123-54-6
  12. http://toxnet.nlm.nih.gov/cgi-bin/sis/search/r?dbs+hsdb:@term+@rn+@rel+123-54-6
  13. http://toxnet.nlm.nih.gov/cgi-bin/sis/search/r?dbs+hsdb:@term+@rn+@rel+123-54-6
  14. http://toxnet.nlm.nih.gov/cgi-bin/sis/search/r?dbs+hsdb:@term+@rn+@rel+123-54-6
  15. http://toxnet.nlm.nih.gov/cgi-bin/sis/search/r?dbs+hsdb:@term+@rn+@rel+123-54-6
  16. http://pubchem.ncbi.nlm.nih.gov/vw3d/vw3d.cgi?cid=31261
