17396111
  -OEChem-06241222542D

 59 62  0     1  0  0  0  0  0999 V2000
    3.7320    2.7694    0.0000 S   0  0  0  0  0  0  0  0  0  0  0  0
    4.7320    2.7694    0.0000 O   0  0  0  0  0  0  0  0  0  0  0  0
    2.7320    2.7694    0.0000 O   0  0  0  0  0  0  0  0  0  0  0  0
    6.3301    0.2694    0.0000 O   0  0  0  0  0  0  0  0  0  0  0  0
    5.4641   -1.2306    0.0000 N   0  0  0  0  0  0  0  0  0  0  0  0
    3.7320    3.7694    0.0000 N   0  0  0  0  0  0  0  0  0  0  0  0
    6.3301   -5.7306    0.0000 N   0  0  0  0  0  0  0  0  0  0  0  0
    5.5211   -6.3184    0.0000 N   0  0  0  0  0  0  0  0  0  0  0  0
    6.8301   -7.2694    0.0000 N   0  0  0  0  0  0  0  0  0  0  0  0
    6.3301   -1.7306    0.0000 C   0  0  3  0  0  0  0  0  0  0  0  0
    3.7320    1.7694    0.0000 C   0  0  0  0  0  0  0  0  0  0  0  0
    6.3301   -2.7306    0.0000 C   0  0  0  0  0  0  0  0  0  0  0  0
    4.5981    0.2694    0.0000 C   0  0  0  0  0  0  0  0  0  0  0  0
    2.8660    1.2694    0.0000 C   0  0  0  0  0  0  0  0  0  0  0  0
    4.5981    1.2694    0.0000 C   0  0  0  0  0  0  0  0  0  0  0  0
    5.4641   -0.2306    0.0000 C   0  0  0  0  0  0  0  0  0  0  0  0
    7.1962   -1.2306    0.0000 C   0  0  0  0  0  0  0  0  0  0  0  0
    3.7320   -0.2306    0.0000 C   0  0  0  0  0  0  0  0  0  0  0  0
    2.8660    0.2694    0.0000 C   0  0  0  0  0  0  0  0  0  0  0  0
    4.5981    4.2694    0.0000 C   0  0  0  0  0  0  0  0  0  0  0  0
    5.4641   -3.2306    0.0000 C   0  0  0  0  0  0  0  0  0  0  0  0
    7.1962   -3.2306    0.0000 C   0  0  0  0  0  0  0  0  0  0  0  0
    2.0000    1.7694    0.0000 C   0  0  0  0  0  0  0  0  0  0  0  0
    6.3301   -4.7306    0.0000 C   0  0  0  0  0  0  0  0  0  0  0  0
    5.4641   -4.2306    0.0000 C   0  0  0  0  0  0  0  0  0  0  0  0
    7.1962   -4.2306    0.0000 C   0  0  0  0  0  0  0  0  0  0  0  0
    4.5981    5.2694    0.0000 C   0  0  0  0  0  0  0  0  0  0  0  0
    5.4641    5.7694    0.0000 C   0  0  0  0  0  0  0  0  0  0  0  0
    3.7320    5.7694    0.0000 C   0  0  0  0  0  0  0  0  0  0  0  0
    5.4641    6.7694    0.0000 C   0  0  0  0  0  0  0  0  0  0  0  0
    3.7320    6.7694    0.0000 C   0  0  0  0  0  0  0  0  0  0  0  0
    4.5981    7.2694    0.0000 C   0  0  0  0  0  0  0  0  0  0  0  0
    7.1391   -6.3184    0.0000 C   0  0  0  0  0  0  0  0  0  0  0  0
    5.8301   -7.2694    0.0000 C   0  0  0  0  0  0  0  0  0  0  0  0
    5.7932   -2.0406    0.0000 H   0  0  0  0  0  0  0  0  0  0  0  0
    4.9272   -1.5406    0.0000 H   0  0  0  0  0  0  0  0  0  0  0  0
    5.1350    1.5794    0.0000 H   0  0  0  0  0  0  0  0  0  0  0  0
    7.5062   -1.7675    0.0000 H   0  0  0  0  0  0  0  0  0  0  0  0
    7.7331   -0.9206    0.0000 H   0  0  0  0  0  0  0  0  0  0  0  0
    6.8862   -0.6936    0.0000 H   0  0  0  0  0  0  0  0  0  0  0  0
    3.1951    4.0794    0.0000 H   0  0  0  0  0  0  0  0  0  0  0  0
    3.7320   -0.8506    0.0000 H   0  0  0  0  0  0  0  0  0  0  0  0
    2.3291   -0.0406    0.0000 H   0  0  0  0  0  0  0  0  0  0  0  0
    4.8101    3.6868    0.0000 H   0  0  0  0  0  0  0  0  0  0  0  0
    5.2087    4.3771    0.0000 H   0  0  0  0  0  0  0  0  0  0  0  0
    4.9272   -2.9206    0.0000 H   0  0  0  0  0  0  0  0  0  0  0  0
    7.7331   -2.9206    0.0000 H   0  0  0  0  0  0  0  0  0  0  0  0
    2.3100    2.3064    0.0000 H   0  0  0  0  0  0  0  0  0  0  0  0
    1.4631    2.0794    0.0000 H   0  0  0  0  0  0  0  0  0  0  0  0
    1.6900    1.2325    0.0000 H   0  0  0  0  0  0  0  0  0  0  0  0
    4.9272   -4.5406    0.0000 H   0  0  0  0  0  0  0  0  0  0  0  0
    7.7331   -4.5406    0.0000 H   0  0  0  0  0  0  0  0  0  0  0  0
    6.0010    5.4594    0.0000 H   0  0  0  0  0  0  0  0  0  0  0  0
    3.1951    5.4594    0.0000 H   0  0  0  0  0  0  0  0  0  0  0  0
    6.0010    7.0794    0.0000 H   0  0  0  0  0  0  0  0  0  0  0  0
    3.1951    7.0794    0.0000 H   0  0  0  0  0  0  0  0  0  0  0  0
    4.5981    7.8894    0.0000 H   0  0  0  0  0  0  0  0  0  0  0  0
    7.7288   -6.1268    0.0000 H   0  0  0  0  0  0  0  0  0  0  0  0
    5.4657   -7.7710    0.0000 H   0  0  0  0  0  0  0  0  0  0  0  0
  1  2  2  0  0  0  0
  1  3  2  0  0  0  0
  1  6  1  0  0  0  0
  1 11  1  0  0  0  0
  4 16  2  0  0  0  0
  5 10  1  0  0  0  0
  5 16  1  0  0  0  0
  5 36  1  0  0  0  0
  6 20  1  0  0  0  0
  6 41  1  0  0  0  0
  7  8  1  0  0  0  0
  7 24  1  0  0  0  0
  7 33  1  0  0  0  0
  8 34  2  0  0  0  0
  9 33  2  0  0  0  0
  9 34  1  0  0  0  0
 10 12  1  0  0  0  0
 10 17  1  0  0  0  0
 10 35  1  0  0  0  0
 11 14  2  0  0  0  0
 11 15  1  0  0  0  0
 12 21  2  0  0  0  0
 12 22  1  0  0  0  0
 13 15  2  0  0  0  0
 13 16  1  0  0  0  0
 13 18  1  0  0  0  0
 14 19  1  0  0  0  0
 14 23  1  0  0  0  0
 15 37  1  0  0  0  0
 17 38  1  0  0  0  0
 17 39  1  0  0  0  0
 17 40  1  0  0  0  0
 18 19  2  0  0  0  0
 18 42  1  0  0  0  0
 19 43  1  0  0  0  0
 20 27  1  0  0  0  0
 20 44  1  0  0  0  0
 20 45  1  0  0  0  0
 21 25  1  0  0  0  0
 21 46  1  0  0  0  0
 22 26  2  0  0  0  0
 22 47  1  0  0  0  0
 23 48  1  0  0  0  0
 23 49  1  0  0  0  0
 23 50  1  0  0  0  0
 24 25  2  0  0  0  0
 24 26  1  0  0  0  0
 25 51  1  0  0  0  0
 26 52  1  0  0  0  0
 27 28  2  0  0  0  0
 27 29  1  0  0  0  0
 28 30  1  0  0  0  0
 28 53  1  0  0  0  0
 29 31  2  0  0  0  0
 29 54  1  0  0  0  0
 30 32  2  0  0  0  0
 30 55  1  0  0  0  0
 31 32  1  0  0  0  0
 31 56  1  0  0  0  0
 32 57  1  0  0  0  0
 33 58  1  0  0  0  0
 34 59  1  0  0  0  0
M  END
> <PUBCHEM_COMPOUND_CID>
17396111

> <PUBCHEM_COMPOUND_CANONICALIZED>
1

> <PUBCHEM_CACTVS_COMPLEXITY>
759

> <PUBCHEM_CACTVS_HBOND_ACCEPTOR>
6

> <PUBCHEM_CACTVS_HBOND_DONOR>
2

> <PUBCHEM_CACTVS_ROTATABLE_BOND>
8

> <PUBCHEM_CACTVS_SUBSKEYS>
AAADceB7sABAAAAAAAAAAAAAAAAAAWAAAAAwYMAAAAAAAAAB1AAAHgQYQAAADCjB2AQ30YbIEAKqAiVTdHDSBDs1goAdyJkIZMiIKDLAnZGEIQholgLIyacYiICOSAAAgAAEAACQAAEAAAgAAAAAAAAAAA==

> <PUBCHEM_IUPAC_OPENEYE_NAME>
3-(benzylsulfamoyl)-4-methyl-N-[1-[4-(1,2,4-triazol-1-yl)phenyl]ethyl]benzamide

> <PUBCHEM_IUPAC_CAS_NAME>
4-methyl-3-[(phenylmethyl)sulfamoyl]-N-[1-[4-(1,2,4-triazol-1-yl)phenyl]ethyl]benzamide

> <PUBCHEM_IUPAC_NAME>
3-(benzylsulfamoyl)-4-methyl-N-[1-[4-(1,2,4-triazol-1-yl)phenyl]ethyl]benzamide

> <PUBCHEM_IUPAC_SYSTEMATIC_NAME>
4-methyl-3-[(phenylmethyl)sulfamoyl]-N-[1-[4-(1,2,4-triazol-1-yl)phenyl]ethyl]benzamide

> <PUBCHEM_IUPAC_TRADITIONAL_NAME>
3-(benzylsulfamoyl)-4-methyl-N-[1-[4-(1,2,4-triazol-1-yl)phenyl]ethyl]benzamide

> <PUBCHEM_IUPAC_INCHI>
InChI=1S/C25H25N5O3S/c1-18-8-9-22(14-24(18)34(32,33)28-15-20-6-4-3-5-7-20)25(31)29-19(2)21-10-12-23(13-11-21)30-17-26-16-27-30/h3-14,16-17,19,28H,15H2,1-2H3,(H,29,31)

> <PUBCHEM_IUPAC_INCHIKEY>
PDRFTCBBQJBGDQ-UHFFFAOYSA-N

> <PUBCHEM_XLOGP3_AA>
3.7

> <PUBCHEM_EXACT_MASS>
475.167811

> <PUBCHEM_MOLECULAR_FORMULA>
C25H25N5O3S

> <PUBCHEM_MOLECULAR_WEIGHT>
475.5627

> <PUBCHEM_OPENEYE_CAN_SMILES>
CC1=C(C=C(C=C1)C(=O)NC(C)C2=CC=C(C=C2)N3C=NC=N3)S(=O)(=O)NCC4=CC=CC=C4

> <PUBCHEM_OPENEYE_ISO_SMILES>
CC1=C(C=C(C=C1)C(=O)NC(C)C2=CC=C(C=C2)N3C=NC=N3)S(=O)(=O)NCC4=CC=CC=C4

> <PUBCHEM_CACTVS_TPSA>
114

> <PUBCHEM_MONOISOTOPIC_WEIGHT>
475.167811

> <PUBCHEM_TOTAL_CHARGE>
0

> <PUBCHEM_HEAVY_ATOM_COUNT>
34

> <PUBCHEM_ATOM_DEF_STEREO_COUNT>
0

> <PUBCHEM_ATOM_UDEF_STEREO_COUNT>
1

> <PUBCHEM_BOND_DEF_STEREO_COUNT>
0

> <PUBCHEM_BOND_UDEF_STEREO_COUNT>
0

> <PUBCHEM_ISOTOPIC_ATOM_COUNT>
0

> <PUBCHEM_COMPONENT_COUNT>
1

> <PUBCHEM_CACTVS_TAUTO_COUNT>
5

> <PUBCHEM_COORDINATE_TYPE>
1
5
255

> <PUBCHEM_BONDANNOTATIONS>
10  17  3
11  14  8
11  15  8
12  21  8
12  22  8
13  15  8
13  18  8
14  19  8
18  19  8
21  25  8
22  26  8
24  25  8
24  26  8
27  28  8
27  29  8
28  30  8
29  31  8
30  32  8
31  32  8
7  33  8
7  8  8
8  34  8
9  33  8
9  34  8

$$$$

