443466
  -OEChem-07051213022D

 51 54  0     1  0  0  0  0  0999 V2000
    2.0000   -2.3547    0.0000 O   0  0  0  0  0  0  0  0  0  0  0  0
    6.2038    0.1363    0.0000 C   0  0  2  0  0  0  0  0  0  0  0  0
    5.3352    0.6319    0.0000 C   0  0  2  0  0  0  0  0  0  0  0  0
    4.4278    0.1206    0.0000 C   0  0  1  0  0  0  0  0  0  0  0  0
    4.4250   -0.9211    0.0000 C   0  0  2  0  0  0  0  0  0  0  0  0
    6.1793    1.3176    0.0000 C   0  0  0  0  0  0  0  0  0  0  0  0
    6.2250   -0.9052    0.0000 C   0  0  0  0  0  0  0  0  0  0  0  0
    6.8554    2.2867    0.0000 C   0  0  1  0  0  0  0  0  0  0  0  0
    5.3296   -1.4374    0.0000 C   0  0  0  0  0  0  0  0  0  0  0  0
    5.1813    1.6200    0.0000 C   0  0  0  0  0  0  0  0  0  0  0  0
    7.1328    0.5062    0.0000 C   0  0  0  0  0  0  0  0  0  0  0  0
    3.4923   -1.4755    0.0000 C   0  0  2  0  0  0  0  0  0  0  0  0
    3.4982    0.6800    0.0000 C   0  0  0  0  0  0  0  0  0  0  0  0
    5.8578    2.3564    0.0000 C   0  0  0  0  0  0  0  0  0  0  0  0
    7.4228    1.4633    0.0000 C   0  0  0  0  0  0  0  0  0  0  0  0
    4.0883    1.0612    0.0000 C   0  0  0  0  0  0  0  0  0  0  0  0
    2.5500   -0.9377    0.0000 C   0  0  0  0  0  0  0  0  0  0  0  0
    2.5529    0.1473    0.0000 C   0  0  0  0  0  0  0  0  0  0  0  0
    3.9999   -2.3370    0.0000 C   0  0  0  0  0  0  0  0  0  0  0  0
    3.0000   -2.3459    0.0000 C   0  0  0  0  0  0  0  0  0  0  0  0
    8.4109    1.6172    0.0000 C   0  0  0  0  0  0  0  0  0  0  0  0
    4.5970    1.0532    0.0000 H   0  0  0  0  0  0  0  0  0  0  0  0
    4.4325   -1.7710    0.0000 H   0  0  0  0  0  0  0  0  0  0  0  0
    5.8050    1.8119    0.0000 H   0  0  0  0  0  0  0  0  0  0  0  0
    5.5936    1.1141    0.0000 H   0  0  0  0  0  0  0  0  0  0  0  0
    6.4459   -1.4845    0.0000 H   0  0  0  0  0  0  0  0  0  0  0  0
    6.8336   -0.7866    0.0000 H   0  0  0  0  0  0  0  0  0  0  0  0
    7.1018    3.1002    0.0000 H   0  0  0  0  0  0  0  0  0  0  0  0
    4.9347   -1.9153    0.0000 H   0  0  0  0  0  0  0  0  0  0  0  0
    5.7329   -1.9083    0.0000 H   0  0  0  0  0  0  0  0  0  0  0  0
    4.8295    2.1305    0.0000 H   0  0  0  0  0  0  0  0  0  0  0  0
    4.6053    1.3906    0.0000 H   0  0  0  0  0  0  0  0  0  0  0  0
    7.2283   -0.1064    0.0000 H   0  0  0  0  0  0  0  0  0  0  0  0
    7.7513    0.4630    0.0000 H   0  0  0  0  0  0  0  0  0  0  0  0
    3.9040    1.1487    0.0000 H   0  0  0  0  0  0  0  0  0  0  0  0
    3.1058    1.1601    0.0000 H   0  0  0  0  0  0  0  0  0  0  0  0
    6.0376    2.9498    0.0000 H   0  0  0  0  0  0  0  0  0  0  0  0
    5.3193    2.6638    0.0000 H   0  0  0  0  0  0  0  0  0  0  0  0
    4.6715    1.2716    0.0000 H   0  0  0  0  0  0  0  0  0  0  0  0
    3.8779    1.6444    0.0000 H   0  0  0  0  0  0  0  0  0  0  0  0
    3.5052    0.8507    0.0000 H   0  0  0  0  0  0  0  0  0  0  0  0
    1.9394   -0.8299    0.0000 H   0  0  0  0  0  0  0  0  0  0  0  0
    2.3393   -1.5208    0.0000 H   0  0  0  0  0  0  0  0  0  0  0  0
    2.3454    0.7316    0.0000 H   0  0  0  0  0  0  0  0  0  0  0  0
    1.9418    0.0429    0.0000 H   0  0  0  0  0  0  0  0  0  0  0  0
    3.4658   -2.6518    0.0000 H   0  0  0  0  0  0  0  0  0  0  0  0
    4.3147   -2.8712    0.0000 H   0  0  0  0  0  0  0  0  0  0  0  0
    4.5341   -2.0223    0.0000 H   0  0  0  0  0  0  0  0  0  0  0  0
    3.3147   -2.8800    0.0000 H   0  0  0  0  0  0  0  0  0  0  0  0
    8.7998    1.1344    0.0000 H   0  0  0  0  0  0  0  0  0  0  0  0
    8.6345    2.1955    0.0000 H   0  0  0  0  0  0  0  0  0  0  0  0
  1 20  2  0  0  0  0
  2  3  1  0  0  0  0
  2  6  1  0  0  0  0
  2  7  1  6  0  0  0
  2 11  1  0  0  0  0
  3  4  1  0  0  0  0
  3 10  1  0  0  0  0
  3 22  1  1  0  0  0
  4  5  1  0  0  0  0
  4 13  1  0  0  0  0
  4 16  1  6  0  0  0
  5  9  1  0  0  0  0
  5 12  1  0  0  0  0
  5 23  1  1  0  0  0
  6  8  1  0  0  0  0
  6 24  1  0  0  0  0
  6 25  1  0  0  0  0
  7  9  1  0  0  0  0
  7 26  1  0  0  0  0
  7 27  1  0  0  0  0
  8 14  1  0  0  0  0
  8 15  1  0  0  0  0
  8 28  1  6  0  0  0
  9 29  1  0  0  0  0
  9 30  1  0  0  0  0
 10 14  1  0  0  0  0
 10 31  1  0  0  0  0
 10 32  1  0  0  0  0
 11 15  1  0  0  0  0
 11 33  1  0  0  0  0
 11 34  1  0  0  0  0
 12 17  1  0  0  0  0
 12 19  1  1  0  0  0
 12 20  1  0  0  0  0
 13 18  1  0  0  0  0
 13 35  1  0  0  0  0
 13 36  1  0  0  0  0
 14 37  1  0  0  0  0
 14 38  1  0  0  0  0
 15 21  2  0  0  0  0
 16 39  1  0  0  0  0
 16 40  1  0  0  0  0
 16 41  1  0  0  0  0
 17 18  1  0  0  0  0
 17 42  1  0  0  0  0
 17 43  1  0  0  0  0
 18 44  1  0  0  0  0
 18 45  1  0  0  0  0
 19 46  1  0  0  0  0
 19 47  1  0  0  0  0
 19 48  1  0  0  0  0
 20 49  1  0  0  0  0
 21 50  1  0  0  0  0
 21 51  1  0  0  0  0
M  END
> <PUBCHEM_COMPOUND_CID>
443466

> <PUBCHEM_COMPOUND_CANONICALIZED>
1

> <PUBCHEM_CACTVS_COMPLEXITY>
494

> <PUBCHEM_CACTVS_HBOND_ACCEPTOR>
1

> <PUBCHEM_CACTVS_HBOND_DONOR>
0

> <PUBCHEM_CACTVS_ROTATABLE_BOND>
1

> <PUBCHEM_CACTVS_SUBSKEYS>
AAADceB4IAAAAAAAAAAAAAAAAAAAAYAAAAAwYMAABgAAAADAAAAAGgAAAAAADwCggAICAAAAAACIAghSgAAAAAAgAAAAAAEAAAgAABIAAQAAAAAAgAAAAAEIiMCPgAAAAAAAAACAAAQAACAAAQAAAAAAAA==

> <PUBCHEM_IUPAC_INCHI>
InChI=1S/C20H30O/c1-14-11-20-10-7-16-18(2,13-21)8-4-9-19(16,3)17(20)6-5-15(14)12-20/h13,15-17H,1,4-12H2,2-3H3/t15-,16-,17+,18+,19-,20-/m1/s1

> <PUBCHEM_IUPAC_INCHIKEY>
JCAVDWHQNFTFBW-XRNRSJMDSA-N

> <PUBCHEM_XLOGP3_AA>
5.4

> <PUBCHEM_EXACT_MASS>
286.229666

> <PUBCHEM_MOLECULAR_FORMULA>
C20H30O

> <PUBCHEM_MOLECULAR_WEIGHT>
286.4516

> <PUBCHEM_OPENEYE_CAN_SMILES>
CC1(CCCC2(C1CCC34C2CCC(C3)C(=C)C4)C)C=O

> <PUBCHEM_OPENEYE_ISO_SMILES>
C[C@]1(CCC[C@@]2([C@@H]1CC[C@]34[C@H]2CC[C@H](C3)C(=C)C4)C)C=O

> <PUBCHEM_CACTVS_TPSA>
17.1

> <PUBCHEM_MONOISOTOPIC_WEIGHT>
286.229666

> <PUBCHEM_TOTAL_CHARGE>
0

> <PUBCHEM_HEAVY_ATOM_COUNT>
21

> <PUBCHEM_ATOM_DEF_STEREO_COUNT>
6

> <PUBCHEM_ATOM_UDEF_STEREO_COUNT>
0

> <PUBCHEM_BOND_DEF_STEREO_COUNT>
0

> <PUBCHEM_BOND_UDEF_STEREO_COUNT>
0

> <PUBCHEM_ISOTOPIC_ATOM_COUNT>
0

> <PUBCHEM_COMPONENT_COUNT>
1

> <PUBCHEM_CACTVS_TAUTO_COUNT>
1

> <PUBCHEM_COORDINATE_TYPE>
1
5
255

> <PUBCHEM_BONDANNOTATIONS>
12  19  5
2  7  6
3  22  5
4  16  6
5  23  5
8  28  6

$$$$

