24883438
  -OEChem-07051213152D

 52 53  0     1  0  0  0  0  0999 V2000
    4.5981   -1.1478    0.0000 C   0  0  1  0  0  0  0  0  0  0  0  0
    3.7320   -0.6478    0.0000 C   0  0  1  0  0  0  0  0  0  0  0  0
    4.5981   -2.1478    0.0000 C   0  0  2  0  0  0  0  0  0  0  0  0
    2.8660   -1.1478    0.0000 C   0  0  1  0  0  0  0  0  0  0  0  0
    3.7320   -2.6478    0.0000 C   0  0  0  0  0  0  0  0  0  0  0  0
    2.8660   -2.1478    0.0000 C   0  0  0  0  0  0  0  0  0  0  0  0
    5.4920   -0.6131    0.0000 C   0  0  0  0  0  0  0  0  0  0  0  0
    3.2320    0.2183    0.0000 C   0  0  0  0  0  0  0  0  0  0  0  0
    5.4920   -2.6824    0.0000 C   0  0  0  0  0  0  0  0  0  0  0  0
    4.2320    0.2183    0.0000 C   0  0  0  0  0  0  0  0  0  0  0  0
    4.5981   -3.1478    0.0000 C   0  0  0  0  0  0  0  0  0  0  0  0
    6.3981   -1.1269    0.0000 C   0  0  0  0  0  0  0  0  0  0  0  0
    2.0000   -0.6478    0.0000 C   0  0  0  0  0  0  0  0  0  0  0  0
    6.3981   -2.1686    0.0000 C   0  0  0  0  0  0  0  0  0  0  0  0
    3.7320    1.0843    0.0000 C   0  0  0  0  0  0  0  0  0  0  0  0
    5.4804   -3.6824    0.0000 C   0  0  0  0  0  0  0  0  0  0  0  0
    3.2320    1.9503    0.0000 C   0  0  0  0  0  0  0  0  0  0  0  0
    3.7320    2.8163    0.0000 C   0  0  0  0  0  0  0  0  0  0  0  0
    2.2320    1.9503    0.0000 C   0  0  0  0  0  0  0  0  0  0  0  0
    3.2320    3.6824    0.0000 C   0  0  0  0  0  0  0  0  0  0  0  0
    4.5915   -0.2978    0.0000 H   0  0  0  0  0  0  0  0  0  0  0  0
    2.3291   -1.4578    0.0000 H   0  0  0  0  0  0  0  0  0  0  0  0
    3.3335   -3.1227    0.0000 H   0  0  0  0  0  0  0  0  0  0  0  0
    4.1306   -3.1227    0.0000 H   0  0  0  0  0  0  0  0  0  0  0  0
    2.2554   -2.0401    0.0000 H   0  0  0  0  0  0  0  0  0  0  0  0
    2.6540   -2.7304    0.0000 H   0  0  0  0  0  0  0  0  0  0  0  0
    5.8856   -0.1341    0.0000 H   0  0  0  0  0  0  0  0  0  0  0  0
    5.0874   -0.1433    0.0000 H   0  0  0  0  0  0  0  0  0  0  0  0
    2.7571    0.6168    0.0000 H   0  0  0  0  0  0  0  0  0  0  0  0
    2.7571   -0.1803    0.0000 H   0  0  0  0  0  0  0  0  0  0  0  0
    4.7690   -0.0917    0.0000 H   0  0  0  0  0  0  0  0  0  0  0  0
    4.5420    0.7552    0.0000 H   0  0  0  0  0  0  0  0  0  0  0  0
    3.6951    0.5283    0.0000 H   0  0  0  0  0  0  0  0  0  0  0  0
    3.9781   -3.1478    0.0000 H   0  0  0  0  0  0  0  0  0  0  0  0
    4.5981   -3.7678    0.0000 H   0  0  0  0  0  0  0  0  0  0  0  0
    5.2181   -3.1478    0.0000 H   0  0  0  0  0  0  0  0  0  0  0  0
    7.0089   -1.2330    0.0000 H   0  0  0  0  0  0  0  0  0  0  0  0
    6.6071   -0.5433    0.0000 H   0  0  0  0  0  0  0  0  0  0  0  0
    2.3100   -0.1108    0.0000 H   0  0  0  0  0  0  0  0  0  0  0  0
    1.4631   -0.3378    0.0000 H   0  0  0  0  0  0  0  0  0  0  0  0
    1.6900   -1.1847    0.0000 H   0  0  0  0  0  0  0  0  0  0  0  0
    6.9338   -2.4806    0.0000 H   0  0  0  0  0  0  0  0  0  0  0  0
    4.2070    0.6858    0.0000 H   0  0  0  0  0  0  0  0  0  0  0  0
    4.2070    1.4828    0.0000 H   0  0  0  0  0  0  0  0  0  0  0  0
    4.8605   -3.6752    0.0000 H   0  0  0  0  0  0  0  0  0  0  0  0
    5.4733   -4.3023    0.0000 H   0  0  0  0  0  0  0  0  0  0  0  0
    6.1004   -3.6895    0.0000 H   0  0  0  0  0  0  0  0  0  0  0  0
    4.3520    2.8163    0.0000 H   0  0  0  0  0  0  0  0  0  0  0  0
    1.9220    2.4872    0.0000 H   0  0  0  0  0  0  0  0  0  0  0  0
    1.9220    1.4134    0.0000 H   0  0  0  0  0  0  0  0  0  0  0  0
    3.5420    4.2193    0.0000 H   0  0  0  0  0  0  0  0  0  0  0  0
    2.6120    3.6824    0.0000 H   0  0  0  0  0  0  0  0  0  0  0  0
  1  2  1  0  0  0  0
  1  3  1  0  0  0  0
  1  7  1  0  0  0  0
  1 21  1  1  0  0  0
  2  4  1  0  0  0  0
  2  8  1  0  0  0  0
  2 10  1  6  0  0  0
  3  5  1  0  0  0  0
  3  9  1  0  0  0  0
  3 11  1  6  0  0  0
  4  6  1  0  0  0  0
  4 13  1  1  0  0  0
  4 22  1  0  0  0  0
  5  6  1  0  0  0  0
  5 23  1  0  0  0  0
  5 24  1  0  0  0  0
  6 25  1  0  0  0  0
  6 26  1  0  0  0  0
  7 12  1  0  0  0  0
  7 27  1  0  0  0  0
  7 28  1  0  0  0  0
  8 15  1  0  0  0  0
  8 29  1  0  0  0  0
  8 30  1  0  0  0  0
  9 14  2  0  0  0  0
  9 16  1  0  0  0  0
 10 31  1  0  0  0  0
 10 32  1  0  0  0  0
 10 33  1  0  0  0  0
 11 34  1  0  0  0  0
 11 35  1  0  0  0  0
 11 36  1  0  0  0  0
 12 14  1  0  0  0  0
 12 37  1  0  0  0  0
 12 38  1  0  0  0  0
 13 39  1  0  0  0  0
 13 40  1  0  0  0  0
 13 41  1  0  0  0  0
 14 42  1  0  0  0  0
 15 17  1  0  0  0  0
 15 43  1  0  0  0  0
 15 44  1  0  0  0  0
 16 45  1  0  0  0  0
 16 46  1  0  0  0  0
 16 47  1  0  0  0  0
 17 18  1  0  0  0  0
 17 19  2  0  0  0  0
 18 20  2  0  0  0  0
 18 48  1  0  0  0  0
 19 49  1  0  0  0  0
 19 50  1  0  0  0  0
 20 51  1  0  0  0  0
 20 52  1  0  0  0  0
M  END
> <PUBCHEM_COMPOUND_CID>
24883438

> <PUBCHEM_COMPOUND_CANONICALIZED>
1

> <PUBCHEM_CACTVS_COMPLEXITY>
427

> <PUBCHEM_CACTVS_HBOND_ACCEPTOR>
0

> <PUBCHEM_CACTVS_HBOND_DONOR>
0

> <PUBCHEM_CACTVS_ROTATABLE_BOND>
4

> <PUBCHEM_CACTVS_SUBSKEYS>
AAADcfB4AAAAAAAAAAAAAAAAAAAAAAAAAAAwQAAAAAAAAACAAAAAGAAAAAAADwCAAAACAAAAAACAAiBCAAAAAAAgAAAICAAAAAgIAAIAAQAAAAAAgAAIAAMAgMAPgAAAAAAAAACAAAQAACAAAAAAAAAAAA==

> <PUBCHEM_IUPAC_OPENEYE_NAME>
(3R,4R,4aS,8aS)-3,4,8,8a-tetramethyl-4-(3-methylenepent-4-enyl)-1,2,3,4a,5,6-hexahydronaphthalene

> <PUBCHEM_IUPAC_CAS_NAME>
(3R,4R,4aS,8aS)-3,4,8,8a-tetramethyl-4-(3-methylenepent-4-enyl)-1,2,3,4a,5,6-hexahydronaphthalene

> <PUBCHEM_IUPAC_NAME>
(3R,4R,4aS,8aS)-3,4,8,8a-tetramethyl-4-(3-methylidenepent-4-enyl)-1,2,3,4a,5,6-hexahydronaphthalene

> <PUBCHEM_IUPAC_SYSTEMATIC_NAME>
(3R,4R,4aS,8aS)-3,4,8,8a-tetramethyl-4-(3-methylidenepent-4-enyl)-1,2,3,4a,5,6-hexahydronaphthalene

> <PUBCHEM_IUPAC_TRADITIONAL_NAME>
(3R,4R,4aS,8aS)-3,4,8,8a-tetramethyl-4-(3-methylenepent-4-enyl)-1,2,3,4a,5,6-hexahydronaphthalene

> <PUBCHEM_IUPAC_INCHI>
InChI=1S/C20H32/c1-7-15(2)11-13-19(5)17(4)12-14-20(6)16(3)9-8-10-18(19)20/h7,9,17-18H,1-2,8,10-14H2,3-6H3/t17-,18+,19-,20-/m1/s1

> <PUBCHEM_IUPAC_INCHIKEY>
DTIVNEHSCKVQIB-IYWMVGAKSA-N

> <PUBCHEM_XLOGP3_AA>
7.4

> <PUBCHEM_EXACT_MASS>
272.250401

> <PUBCHEM_MOLECULAR_FORMULA>
C20H32

> <PUBCHEM_MOLECULAR_WEIGHT>
272.46808

> <PUBCHEM_OPENEYE_CAN_SMILES>
CC1CCC2(C(C1(C)CCC(=C)C=C)CCC=C2C)C

> <PUBCHEM_OPENEYE_ISO_SMILES>
C[C@@H]1CC[C@]2([C@H]([C@]1(C)CCC(=C)C=C)CCC=C2C)C

> <PUBCHEM_CACTVS_TPSA>
0

> <PUBCHEM_MONOISOTOPIC_WEIGHT>
272.250401

> <PUBCHEM_TOTAL_CHARGE>
0

> <PUBCHEM_HEAVY_ATOM_COUNT>
20

> <PUBCHEM_ATOM_DEF_STEREO_COUNT>
4

> <PUBCHEM_ATOM_UDEF_STEREO_COUNT>
0

> <PUBCHEM_BOND_DEF_STEREO_COUNT>
0

> <PUBCHEM_BOND_UDEF_STEREO_COUNT>
0

> <PUBCHEM_ISOTOPIC_ATOM_COUNT>
0

> <PUBCHEM_COMPONENT_COUNT>
1

> <PUBCHEM_CACTVS_TAUTO_COUNT>
1

> <PUBCHEM_COORDINATE_TYPE>
1
5
255

> <PUBCHEM_BONDANNOTATIONS>
1  21  5
2  10  6
3  11  6
4  13  5

$$$$

