   Color/Form

     * YELLOW-PINK CRYSTALS
     * Pale buff-yellow hexagonal plates.

   from [1]HSDB

   Melting Point
        103-104 DEG C (with decomposition)
   from [2]HSDB

   Octanol/Water Partition Coefficient
        log Kow= 0.23
   from [3]HSDB

   Solubilities

     * SOL IN WATER (APPROX 1.3%) & IN POLAR ORG SOLVENTS; INSOL IN
       NON-POLAR ORG SOLVENTS
     * Soluble in chloroform.

   from [4]HSDB

   Spectral Properties

     * MAX ABSORPTION (WATER): 233 NM (E= 469, 1%, 1 CM)
     * IR: 16796 (Sadtler Research Laboratories IR Grating Collection)
     * NMR: 8229 (Sadtler Research Laboratories Spectral Collection)
     * MASS: 175 (National Bureau of Standards EPA-NIH Mass Spectra Data
       Base, NSRDS-NBS-63)

   from [5]HSDB

   Other Chemical/Physical Properties
        Decomposes to diazoethane in alkaline solutions; stability in
   aqueous solutions is pH dependent: pH 4.0, half-life 190 hours; pH 6.0,
   half-life 31 hours; pH 7.0, half-life 1.5 hours; pH 8.0, half-life 0.1
   hours; pH 9.0, half-life 0.05 hours (at 20 deg C).
   from [6]HSDB

   Computed Properties
   Molecular Weight                  117.10658 [g/mol]
   Molecular Formula                 C[3]H[7]N[3]O[2]
   XLogP3                            0.2
   H-Bond Donor                      1
   H-Bond Acceptor                   3
   Rotatable Bond Count              1
   Tautomer Count                    2
   Exact Mass                        117.053826
   MonoIsotopic Mass                 117.053826
   Topological Polar Surface Area    75.8
   Heavy Atom Count                  8
   Formal Charge                     0
   Complexity                        103
   Isotope Atom Count                0
   Defined Atom Stereocenter Count   0
   Undefined Atom Stereocenter Count 0
   Defined Bond Stereocenter Count   0
   Undefined Bond Stereocenter Count 0
   Covalently-Bonded Unit Count      1
   Feature 3D Acceptor Count         1
   Feature 3D Donor Count            1
   Effective Rotor Count             3
   Conformer Sampling RMSD           0.6
   CID Conformer Count               [7]8

References

   1. http://toxnet.nlm.nih.gov/cgi-bin/sis/search/r?dbs+hsdb:@term+@rn+@rel+759-73-9
   2. http://toxnet.nlm.nih.gov/cgi-bin/sis/search/r?dbs+hsdb:@term+@rn+@rel+759-73-9
   3. http://toxnet.nlm.nih.gov/cgi-bin/sis/search/r?dbs+hsdb:@term+@rn+@rel+759-73-9
   4. http://toxnet.nlm.nih.gov/cgi-bin/sis/search/r?dbs+hsdb:@term+@rn+@rel+759-73-9
   5. http://toxnet.nlm.nih.gov/cgi-bin/sis/search/r?dbs+hsdb:@term+@rn+@rel+759-73-9
   6. http://toxnet.nlm.nih.gov/cgi-bin/sis/search/r?dbs+hsdb:@term+@rn+@rel+759-73-9
   7. http://pubchem.ncbi.nlm.nih.gov/vw3d/vw3d.cgi?cid=12967
