5281429
  -OEChem-07051212572D

 39 41  0     1  0  0  0  0  0999 V2000
    7.2621    1.9328    0.0000 O   0  0  0  0  0  0  0  0  0  0  0  0
    3.5836   -0.3724    0.0000 O   0  0  0  0  0  0  0  0  0  0  0  0
    8.1279   -1.5676    0.0000 O   0  0  0  0  0  0  0  0  0  0  0  0
    2.0000    0.4324    0.0000 O   0  0  0  0  0  0  0  0  0  0  0  0
    7.2619    0.9324    0.0000 C   0  0  1  0  0  0  0  0  0  0  0  0
    6.3958    1.4324    0.0000 C   0  0  1  0  0  0  0  0  0  0  0  0
    5.5298    0.9324    0.0000 C   0  0  0  0  0  0  0  0  0  0  0  0
    7.2619   -0.0676    0.0000 C   0  0  0  0  0  0  0  0  0  0  0  0
    4.5298    0.9324    0.0000 C   0  0  1  0  0  0  0  0  0  0  0  0
    8.1279    0.4324    0.0000 C   0  0  0  0  0  0  0  0  0  0  0  0
    4.5298   -0.0676    0.0000 C   0  0  2  0  0  0  0  0  0  0  0  0
    7.2619   -1.0676    0.0000 C   0  0  1  0  0  0  0  0  0  0  0  0
    3.5836    1.2371    0.0000 C   0  0  0  0  0  0  0  0  0  0  0  0
    5.5298   -0.0676    0.0000 C   0  0  0  0  0  0  0  0  0  0  0  0
    6.3958   -1.5676    0.0000 C   0  0  0  0  0  0  0  0  0  0  0  0
    5.5298   -1.0676    0.0000 C   0  0  0  0  0  0  0  0  0  0  0  0
    3.0000    0.4324    0.0000 C   0  0  0  0  0  0  0  0  0  0  0  0
    3.2729    2.1876    0.0000 C   0  0  0  0  0  0  0  0  0  0  0  0
    4.6638   -1.5676    0.0000 C   0  0  0  0  0  0  0  0  0  0  0  0
    5.9708    2.1684    0.0000 H   0  0  0  0  0  0  0  0  0  0  0  0
    5.3178    0.3498    0.0000 H   0  0  0  0  0  0  0  0  0  0  0  0
    5.3694    1.5312    0.0000 H   0  0  0  0  0  0  0  0  0  0  0  0
    7.7988   -0.3776    0.0000 H   0  0  0  0  0  0  0  0  0  0  0  0
    6.6419   -0.0676    0.0000 H   0  0  0  0  0  0  0  0  0  0  0  0
    4.6617    1.7721    0.0000 H   0  0  0  0  0  0  0  0  0  0  0  0
    7.8179   -0.1046    0.0000 H   0  0  0  0  0  0  0  0  0  0  0  0
    8.6648    0.1224    0.0000 H   0  0  0  0  0  0  0  0  0  0  0  0
    8.4379    0.9693    0.0000 H   0  0  0  0  0  0  0  0  0  0  0  0
    4.6617   -0.9073    0.0000 H   0  0  0  0  0  0  0  0  0  0  0  0
    7.7988   -0.7576    0.0000 H   0  0  0  0  0  0  0  0  0  0  0  0
    6.1498   -0.0676    0.0000 H   0  0  0  0  0  0  0  0  0  0  0  0
    5.5298    0.5524    0.0000 H   0  0  0  0  0  0  0  0  0  0  0  0
    6.3958   -2.1876    0.0000 H   0  0  0  0  0  0  0  0  0  0  0  0
    8.1279   -2.1876    0.0000 H   0  0  0  0  0  0  0  0  0  0  0  0
    3.6870    2.6491    0.0000 H   0  0  0  0  0  0  0  0  0  0  0  0
    2.6663    2.3155    0.0000 H   0  0  0  0  0  0  0  0  0  0  0  0
    4.3538   -1.0307    0.0000 H   0  0  0  0  0  0  0  0  0  0  0  0
    4.1269   -1.8776    0.0000 H   0  0  0  0  0  0  0  0  0  0  0  0
    4.9738   -2.1046    0.0000 H   0  0  0  0  0  0  0  0  0  0  0  0
  1  5  1  0  0  0  0
  1  6  1  0  0  0  0
  2 11  1  0  0  0  0
  2 17  1  0  0  0  0
 12  3  1  6  0  0  0
  3 34  1  0  0  0  0
  4 17  2  0  0  0  0
  5  6  1  0  0  0  0
  5  8  1  0  0  0  0
  5 10  1  1  0  0  0
  6  7  1  0  0  0  0
  6 20  1  6  0  0  0
  7  9  1  0  0  0  0
  7 21  1  0  0  0  0
  7 22  1  0  0  0  0
  8 12  1  0  0  0  0
  8 23  1  0  0  0  0
  8 24  1  0  0  0  0
  9 11  1  0  0  0  0
  9 13  1  0  0  0  0
  9 25  1  6  0  0  0
 10 26  1  0  0  0  0
 10 27  1  0  0  0  0
 10 28  1  0  0  0  0
 11 14  1  0  0  0  0
 11 29  1  1  0  0  0
 12 15  1  0  0  0  0
 12 30  1  0  0  0  0
 13 17  1  0  0  0  0
 13 18  2  0  0  0  0
 14 16  1  0  0  0  0
 14 31  1  0  0  0  0
 14 32  1  0  0  0  0
 15 16  2  0  0  0  0
 15 33  1  0  0  0  0
 16 19  1  0  0  0  0
 18 35  1  0  0  0  0
 18 36  1  0  0  0  0
 19 37  1  0  0  0  0
 19 38  1  0  0  0  0
 19 39  1  0  0  0  0
M  END
> <PUBCHEM_COMPOUND_CID>
5281429

> <PUBCHEM_COMPOUND_CANONICALIZED>
1

> <PUBCHEM_CACTVS_COMPLEXITY>
467

> <PUBCHEM_CACTVS_HBOND_ACCEPTOR>
4

> <PUBCHEM_CACTVS_HBOND_DONOR>
1

> <PUBCHEM_CACTVS_ROTATABLE_BOND>
0

> <PUBCHEM_CACTVS_SUBSKEYS>
AAADceBwOAAAAAAAAAAAAAAAEgAAASAAAAAAAAAAAAAAAACAAAAAGgAACAAADVSggAICCAAABgCIAiDSCAAAAAAgAAAACAEAAEgAFBIAIQACUAAFwAAIMIPK7PzOAAAAAAAAAAAAAAAAAAAAAAAAAAAAAA==

> <PUBCHEM_IUPAC_INCHI>
InChI=1S/C15H20O4/c1-8-4-10(16)7-15(3)13(19-15)6-11-9(2)14(17)18-12(11)5-8/h4,10-13,16H,2,5-7H2,1,3H3/b8-4-/t10-,11-,12+,13-,15-/m1/s1

> <PUBCHEM_IUPAC_INCHIKEY>
PRFWDFBVAWMKOR-BBWOBEDSSA-N

> <PUBCHEM_XLOGP3_AA>
1.2

> <PUBCHEM_EXACT_MASS>
264.136159

> <PUBCHEM_MOLECULAR_FORMULA>
C15H20O4

> <PUBCHEM_MOLECULAR_WEIGHT>
264.3169

> <PUBCHEM_OPENEYE_CAN_SMILES>
CC1=CC(CC2(C(O2)CC3C(C1)OC(=O)C3=C)C)O

> <PUBCHEM_OPENEYE_ISO_SMILES>
C/C/1=C/[C@H](C[C@@]2([C@H](O2)C[C@H]3[C@H](C1)OC(=O)C3=C)C)O

> <PUBCHEM_CACTVS_TPSA>
59.1

> <PUBCHEM_MONOISOTOPIC_WEIGHT>
264.136159

> <PUBCHEM_TOTAL_CHARGE>
0

> <PUBCHEM_HEAVY_ATOM_COUNT>
19

> <PUBCHEM_ATOM_DEF_STEREO_COUNT>
5

> <PUBCHEM_ATOM_UDEF_STEREO_COUNT>
0

> <PUBCHEM_BOND_DEF_STEREO_COUNT>
1

> <PUBCHEM_BOND_UDEF_STEREO_COUNT>
0

> <PUBCHEM_ISOTOPIC_ATOM_COUNT>
0

> <PUBCHEM_COMPONENT_COUNT>
1

> <PUBCHEM_CACTVS_TAUTO_COUNT>
1

> <PUBCHEM_COORDINATE_TYPE>
1
5
255

> <PUBCHEM_BONDANNOTATIONS>
11  29  5
12  3  6
5  10  5
6  20  6
9  25  6

$$$$

