54723871
  -OEChem-07051213082D

 29 29  0     0  0  0  0  0  0999 V2000
    6.3301    1.6550    0.0000 O   0  0  0  0  0  0  0  0  0  0  0  0
    6.3301   -1.3450    0.0000 O   0  0  0  0  0  0  0  0  0  0  0  0
    9.7942   -1.3450    0.0000 O   0  0  0  0  0  0  0  0  0  0  0  0
    2.8660    0.6550    0.0000 N   0  0  0  0  0  0  0  0  0  0  0  0
    8.0622   -1.3450    0.0000 N   0  0  0  0  0  0  0  0  0  0  0  0
    4.5981    0.6550    0.0000 C   0  0  0  0  0  0  0  0  0  0  0  0
    5.4641    0.1550    0.0000 C   0  0  0  0  0  0  0  0  0  0  0  0
    3.7320    0.1550    0.0000 C   0  0  0  0  0  0  0  0  0  0  0  0
    6.3301    0.6550    0.0000 C   0  0  0  0  0  0  0  0  0  0  0  0
    7.1962    0.1550    0.0000 C   0  0  0  0  0  0  0  0  0  0  0  0
    7.1962   -0.8450    0.0000 C   0  0  0  0  0  0  0  0  0  0  0  0
    8.0622    0.6550    0.0000 C   0  0  0  0  0  0  0  0  0  0  0  0
    2.0000    0.1550    0.0000 C   0  0  0  0  0  0  0  0  0  0  0  0
    8.9282    0.1550    0.0000 C   0  0  0  0  0  0  0  0  0  0  0  0
    8.9282   -0.8450    0.0000 C   0  0  0  0  0  0  0  0  0  0  0  0
    4.9966    1.1300    0.0000 H   0  0  0  0  0  0  0  0  0  0  0  0
    4.1996    1.1300    0.0000 H   0  0  0  0  0  0  0  0  0  0  0  0
    5.0656   -0.3199    0.0000 H   0  0  0  0  0  0  0  0  0  0  0  0
    5.8626   -0.3199    0.0000 H   0  0  0  0  0  0  0  0  0  0  0  0
    3.3335   -0.3199    0.0000 H   0  0  0  0  0  0  0  0  0  0  0  0
    4.1306   -0.3199    0.0000 H   0  0  0  0  0  0  0  0  0  0  0  0
    2.8660    1.2750    0.0000 H   0  0  0  0  0  0  0  0  0  0  0  0
    8.0622    1.2750    0.0000 H   0  0  0  0  0  0  0  0  0  0  0  0
    1.6900    0.6919    0.0000 H   0  0  0  0  0  0  0  0  0  0  0  0
    1.4631   -0.1550    0.0000 H   0  0  0  0  0  0  0  0  0  0  0  0
    2.3100   -0.3819    0.0000 H   0  0  0  0  0  0  0  0  0  0  0  0
    8.0622   -1.9650    0.0000 H   0  0  0  0  0  0  0  0  0  0  0  0
    9.4651    0.4650    0.0000 H   0  0  0  0  0  0  0  0  0  0  0  0
    5.7932    1.9650    0.0000 H   0  0  0  0  0  0  0  0  0  0  0  0
  1  9  1  0  0  0  0
  1 29  1  0  0  0  0
  2 11  2  0  0  0  0
  3 15  2  0  0  0  0
  4  8  1  0  0  0  0
  4 13  1  0  0  0  0
  4 22  1  0  0  0  0
  5 11  1  0  0  0  0
  5 15  1  0  0  0  0
  5 27  1  0  0  0  0
  6  7  1  0  0  0  0
  6  8  1  0  0  0  0
  6 16  1  0  0  0  0
  6 17  1  0  0  0  0
  7  9  1  0  0  0  0
  7 18  1  0  0  0  0
  7 19  1  0  0  0  0
  8 20  1  0  0  0  0
  8 21  1  0  0  0  0
  9 10  2  0  0  0  0
 10 11  1  0  0  0  0
 10 12  1  0  0  0  0
 12 14  2  0  0  0  0
 12 23  1  0  0  0  0
 13 24  1  0  0  0  0
 13 25  1  0  0  0  0
 13 26  1  0  0  0  0
 14 15  1  0  0  0  0
 14 28  1  0  0  0  0
M  END
> <PUBCHEM_COMPOUND_CID>
54723871

> <PUBCHEM_COMPOUND_CANONICALIZED>
1

> <PUBCHEM_CACTVS_COMPLEXITY>
332

> <PUBCHEM_CACTVS_HBOND_ACCEPTOR>
4

> <PUBCHEM_CACTVS_HBOND_DONOR>
3

> <PUBCHEM_CACTVS_ROTATABLE_BOND>
4

> <PUBCHEM_CACTVS_SUBSKEYS>
AAADccBzMAAAAAAAAAAAAAAAAAAAAAAAAAAgAAAAAAAAAAAAAAAAHgAQCAAADATBgAQCAALAAgCIAiFSEACAAAAgIAAICIEIAEgIAAAAgAAEQAAElCCIgYIgAAAAAAAAAAAAAAAAAAAAAAAAAAAAAAAAAA==

> <PUBCHEM_IUPAC_OPENEYE_NAME>
(3E)-3-[1-hydroxy-4-(methylamino)butylidene]pyridine-2,6-dione

> <PUBCHEM_IUPAC_CAS_NAME>
(3E)-3-[1-hydroxy-4-(methylamino)butylidene]pyridine-2,6-dione

> <PUBCHEM_IUPAC_NAME>
(3E)-3-[1-hydroxy-4-(methylamino)butylidene]pyridine-2,6-dione

> <PUBCHEM_IUPAC_SYSTEMATIC_NAME>
(3E)-3-[4-(methylamino)-1-oxidanyl-butylidene]pyridine-2,6-dione

> <PUBCHEM_IUPAC_TRADITIONAL_NAME>
(3E)-3-[1-hydroxy-4-(methylamino)butylidene]pyridine-2,6-quinone

> <PUBCHEM_IUPAC_INCHI>
InChI=1S/C10H14N2O3/c1-11-6-2-3-8(13)7-4-5-9(14)12-10(7)15/h4-5,11,13H,2-3,6H2,1H3,(H,12,14,15)/b8-7+

> <PUBCHEM_IUPAC_INCHIKEY>
RQLRYTXUWITRHR-BQYQJAHWSA-N

> <PUBCHEM_XLOGP3_AA>
0.2

> <PUBCHEM_EXACT_MASS>
210.100442

> <PUBCHEM_MOLECULAR_FORMULA>
C10H14N2O3

> <PUBCHEM_MOLECULAR_WEIGHT>
210.22976

> <PUBCHEM_OPENEYE_CAN_SMILES>
CNCCCC(=C1C=CC(=O)NC1=O)O

> <PUBCHEM_OPENEYE_ISO_SMILES>
CNCCC/C(=C\1/C=CC(=O)NC1=O)/O

> <PUBCHEM_CACTVS_TPSA>
78.4

> <PUBCHEM_MONOISOTOPIC_WEIGHT>
210.100442

> <PUBCHEM_TOTAL_CHARGE>
0

> <PUBCHEM_HEAVY_ATOM_COUNT>
15

> <PUBCHEM_ATOM_DEF_STEREO_COUNT>
0

> <PUBCHEM_ATOM_UDEF_STEREO_COUNT>
0

> <PUBCHEM_BOND_DEF_STEREO_COUNT>
1

> <PUBCHEM_BOND_UDEF_STEREO_COUNT>
0

> <PUBCHEM_ISOTOPIC_ATOM_COUNT>
0

> <PUBCHEM_COMPONENT_COUNT>
1

> <PUBCHEM_CACTVS_TAUTO_COUNT>
21

> <PUBCHEM_COORDINATE_TYPE>
1
5
255

$$$$

