   Color/Form

     * Crystals from water
     * Colorless crystals

   from [1]HSDB

   Melting Point
        245 deg C
   from [2]HSDB

   Dissociation Constants
        pKa = 0.26
   from [3]HSDB

   Octanol/Water Partition Coefficient
        log Kow = -3.86 /Estimated/
   from [4]HSDB

   Solubilities

     * SOL IN SOLN OF ALKALI HYDROXIDES
     * Insol in common organic solvents
     * In water, 1,000 mg/L @ 25 deg C

   from [5]HSDB

   Spectral Properties

     * IR: 230F (Aldrich Chemical Co., Inc., New York; Aldrich Library of
       Infrared Spectra, Aldrich Chemical Co., Milwaukee, WI)
     * NMR: 3:2D (Aldrich Library of Mass Spectra, Aldrich Chemical Co,
       Milwaukee, WI)

   from [6]HSDB

   Vapor Pressure
        2X10-12 mm Hg @ 25 deg C /Extrapolated/
   from [7]HSDB

   Other Chemical/Physical Properties

     * Decomposition at 220 deg C
     * Neutralized by alkali metal hydroxides to form a series of
       water-soluble salts containing from one to four alkali metal
       cations.
     * Decomposition at 240 deg C
     * Henry's Law constant = 7.69X10-16 atm-cu m/mol @ 25 deg C
       /Estimated/
     * Hydroxyl radical reaction rate constant = 1.82X10-10 cu cm/molc sec
       @ 25 deg C /Estimated/

   from [8]HSDB

   Computed Properties
   Molecular Weight                  292.24264 [g/mol]
   Molecular Formula                 C[10]H[16]N[2]O[8]
   XLogP3-AA                         -5.9
   H-Bond Donor                      4
   H-Bond Acceptor                   10
   Rotatable Bond Count              11
   Exact Mass                        292.090665
   MonoIsotopic Mass                 292.090665
   Topological Polar Surface Area    156
   Heavy Atom Count                  20
   Formal Charge                     0
   Complexity                        316
   Isotope Atom Count                0
   Defined Atom Stereocenter Count   0
   Undefined Atom Stereocenter Count 0
   Defined Bond Stereocenter Count   0
   Undefined Bond Stereocenter Count 0
   Covalently-Bonded Unit Count      1
   Feature 3D Acceptor Count         8
   Feature 3D Anion Count            4
   Feature 3D Cation Count           2
   Effective Rotor Count             11
   Conformer Sampling RMSD           1
   CID Conformer Count               [9]17

References

   1. http://toxnet.nlm.nih.gov/cgi-bin/sis/search/r?dbs+hsdb:@term+@rn+@rel+60-00-4
   2. http://toxnet.nlm.nih.gov/cgi-bin/sis/search/r?dbs+hsdb:@term+@rn+@rel+60-00-4
   3. http://toxnet.nlm.nih.gov/cgi-bin/sis/search/r?dbs+hsdb:@term+@rn+@rel+60-00-4
   4. http://toxnet.nlm.nih.gov/cgi-bin/sis/search/r?dbs+hsdb:@term+@rn+@rel+60-00-4
   5. http://toxnet.nlm.nih.gov/cgi-bin/sis/search/r?dbs+hsdb:@term+@rn+@rel+60-00-4
   6. http://toxnet.nlm.nih.gov/cgi-bin/sis/search/r?dbs+hsdb:@term+@rn+@rel+60-00-4
   7. http://toxnet.nlm.nih.gov/cgi-bin/sis/search/r?dbs+hsdb:@term+@rn+@rel+60-00-4
   8. http://toxnet.nlm.nih.gov/cgi-bin/sis/search/r?dbs+hsdb:@term+@rn+@rel+60-00-4
   9. http://pubchem.ncbi.nlm.nih.gov/vw3d/vw3d.cgi?cid=6049
