7846980
  -OEChem-06241222482D

 43 44  0     1  0  0  0  0  0999 V2000
    4.6783    2.4698    0.0000 S   0  0  0  0  0  0  0  0  0  0  0  0
    8.2619   -0.0670    0.0000 O   0  0  0  0  0  0  0  0  0  0  0  0
    9.2619   -1.7990    0.0000 O   0  0  0  0  0  0  0  0  0  0  0  0
    8.2619    1.6651    0.0000 O   0  0  0  0  0  0  0  0  0  0  0  0
   10.7619   -2.6651    0.0000 O   0  0  0  0  0  0  0  0  0  0  0  0
   10.7619   -0.9330    0.0000 N   0  0  0  0  0  0  0  0  0  0  0  0
    4.6783    0.8603    0.0000 N   0  0  0  0  0  0  0  0  0  0  0  0
   12.2619   -1.7990    0.0000 N   0  0  0  0  0  0  0  0  0  0  0  0
    9.7619    0.7990    0.0000 C   0  0  0  0  0  0  0  0  0  0  0  0
    9.2619   -0.0670    0.0000 C   0  0  2  0  0  0  0  0  0  0  0  0
   10.7619    0.7990    0.0000 C   0  0  0  0  0  0  0  0  0  0  0  0
    9.2619    1.6651    0.0000 C   0  0  0  0  0  0  0  0  0  0  0  0
    9.7619   -0.9330    0.0000 C   0  0  0  0  0  0  0  0  0  0  0  0
    6.7619    0.7990    0.0000 C   0  0  0  0  0  0  0  0  0  0  0  0
    6.2619    1.6651    0.0000 C   0  0  0  0  0  0  0  0  0  0  0  0
    7.7619    0.7990    0.0000 C   0  0  0  0  0  0  0  0  0  0  0  0
    5.2619    1.6651    0.0000 C   0  0  0  0  0  0  0  0  0  0  0  0
    3.7320    2.1651    0.0000 C   0  0  0  0  0  0  0  0  0  0  0  0
    3.7320    1.1651    0.0000 C   0  0  0  0  0  0  0  0  0  0  0  0
    2.8660    2.6651    0.0000 C   0  0  0  0  0  0  0  0  0  0  0  0
    2.8660    0.6651    0.0000 C   0  0  0  0  0  0  0  0  0  0  0  0
    2.0000    2.1651    0.0000 C   0  0  0  0  0  0  0  0  0  0  0  0
    2.0000    1.1651    0.0000 C   0  0  0  0  0  0  0  0  0  0  0  0
   11.2619   -1.7990    0.0000 C   0  0  0  0  0  0  0  0  0  0  0  0
   10.0719    0.2621    0.0000 H   0  0  0  0  0  0  0  0  0  0  0  0
    8.9519    0.4699    0.0000 H   0  0  0  0  0  0  0  0  0  0  0  0
    9.7988    1.9751    0.0000 H   0  0  0  0  0  0  0  0  0  0  0  0
   10.7619    0.1790    0.0000 H   0  0  0  0  0  0  0  0  0  0  0  0
   11.3819    0.7990    0.0000 H   0  0  0  0  0  0  0  0  0  0  0  0
   10.7619    1.4190    0.0000 H   0  0  0  0  0  0  0  0  0  0  0  0
    8.9519    2.2020    0.0000 H   0  0  0  0  0  0  0  0  0  0  0  0
    8.7249    1.3551    0.0000 H   0  0  0  0  0  0  0  0  0  0  0  0
    6.1793    0.5870    0.0000 H   0  0  0  0  0  0  0  0  0  0  0  0
    6.8695    0.1885    0.0000 H   0  0  0  0  0  0  0  0  0  0  0  0
    6.8445    1.8771    0.0000 H   0  0  0  0  0  0  0  0  0  0  0  0
    6.1542    2.2756    0.0000 H   0  0  0  0  0  0  0  0  0  0  0  0
   11.0719   -0.3961    0.0000 H   0  0  0  0  0  0  0  0  0  0  0  0
    2.8660    3.2851    0.0000 H   0  0  0  0  0  0  0  0  0  0  0  0
    2.8660    0.0451    0.0000 H   0  0  0  0  0  0  0  0  0  0  0  0
    1.4631    2.4751    0.0000 H   0  0  0  0  0  0  0  0  0  0  0  0
    1.4631    0.8551    0.0000 H   0  0  0  0  0  0  0  0  0  0  0  0
   12.5719   -2.3360    0.0000 H   0  0  0  0  0  0  0  0  0  0  0  0
   12.5719   -1.2621    0.0000 H   0  0  0  0  0  0  0  0  0  0  0  0
  1 17  1  0  0  0  0
  1 18  1  0  0  0  0
 10  2  1  6  0  0  0
  2 16  1  0  0  0  0
  3 13  2  0  0  0  0
  4 16  2  0  0  0  0
  5 24  2  0  0  0  0
  6 13  1  0  0  0  0
  6 24  1  0  0  0  0
  6 37  1  0  0  0  0
  7 17  2  0  0  0  0
  7 19  1  0  0  0  0
  8 24  1  0  0  0  0
  8 42  1  0  0  0  0
  8 43  1  0  0  0  0
  9 10  1  0  0  0  0
  9 11  1  0  0  0  0
  9 12  1  0  0  0  0
  9 25  1  0  0  0  0
 10 13  1  0  0  0  0
 10 26  1  0  0  0  0
 11 28  1  0  0  0  0
 11 29  1  0  0  0  0
 11 30  1  0  0  0  0
 12 27  1  0  0  0  0
 12 31  1  0  0  0  0
 12 32  1  0  0  0  0
 14 15  1  0  0  0  0
 14 16  1  0  0  0  0
 14 33  1  0  0  0  0
 14 34  1  0  0  0  0
 15 17  1  0  0  0  0
 15 35  1  0  0  0  0
 15 36  1  0  0  0  0
 18 19  1  0  0  0  0
 18 20  2  0  0  0  0
 19 21  2  0  0  0  0
 20 22  1  0  0  0  0
 20 38  1  0  0  0  0
 21 23  1  0  0  0  0
 21 39  1  0  0  0  0
 22 23  2  0  0  0  0
 22 40  1  0  0  0  0
 23 41  1  0  0  0  0
M  END
> <PUBCHEM_COMPOUND_CID>
7846980

> <PUBCHEM_COMPOUND_CANONICALIZED>
1

> <PUBCHEM_CACTVS_COMPLEXITY>
486

> <PUBCHEM_CACTVS_HBOND_ACCEPTOR>
6

> <PUBCHEM_CACTVS_HBOND_DONOR>
2

> <PUBCHEM_CACTVS_ROTATABLE_BOND>
7

> <PUBCHEM_CACTVS_SUBSKEYS>
AAADceB7OABAAAAAAAAAAAAAAAAAAWAAAAAwAAAAAAAAAFgB8AAAHgQQAAAADRyh1gIzybLIFAisASXyXAKD8KBhCjhImD1wZJiKILLgkZWHIAhklSL4yAc0AAAIAAAAAAAAAQAAAAAAAAACAAAAAAAAAA==

> <PUBCHEM_IUPAC_OPENEYE_NAME>
[(1R)-1-allophanoyl-2-methyl-propyl] 3-(1,3-benzothiazol-2-yl)propanoate

> <PUBCHEM_IUPAC_CAS_NAME>
3-(1,3-benzothiazol-2-yl)propanoic acid [(2R)-1-(carbamoylamino)-3-methyl-1-oxobutan-2-yl] ester

> <PUBCHEM_IUPAC_NAME>
[(2R)-1-(carbamoylamino)-3-methyl-1-oxobutan-2-yl] 3-(1,3-benzothiazol-2-yl)propanoate

> <PUBCHEM_IUPAC_SYSTEMATIC_NAME>
[(2R)-1-(aminocarbonylamino)-3-methyl-1-oxidanylidene-butan-2-yl] 3-(1,3-benzothiazol-2-yl)propanoate

> <PUBCHEM_IUPAC_TRADITIONAL_NAME>
3-(1,3-benzothiazol-2-yl)propionic acid [(1R)-1-allophanoyl-2-methyl-propyl] ester

> <PUBCHEM_IUPAC_INCHI>
InChI=1S/C16H19N3O4S/c1-9(2)14(15(21)19-16(17)22)23-13(20)8-7-12-18-10-5-3-4-6-11(10)24-12/h3-6,9,14H,7-8H2,1-2H3,(H3,17,19,21,22)/t14-/m1/s1

> <PUBCHEM_IUPAC_INCHIKEY>
AKLIMCQWUBVOBU-CQSZACIVSA-N

> <PUBCHEM_XLOGP3_AA>
3

> <PUBCHEM_EXACT_MASS>
349.109627

> <PUBCHEM_MOLECULAR_FORMULA>
C16H19N3O4S

> <PUBCHEM_MOLECULAR_WEIGHT>
349.40476

> <PUBCHEM_OPENEYE_CAN_SMILES>
CC(C)C(C(=O)NC(=O)N)OC(=O)CCC1=NC2=CC=CC=C2S1

> <PUBCHEM_OPENEYE_ISO_SMILES>
CC(C)[C@H](C(=O)NC(=O)N)OC(=O)CCC1=NC2=CC=CC=C2S1

> <PUBCHEM_CACTVS_TPSA>
140

> <PUBCHEM_MONOISOTOPIC_WEIGHT>
349.109627

> <PUBCHEM_TOTAL_CHARGE>
0

> <PUBCHEM_HEAVY_ATOM_COUNT>
24

> <PUBCHEM_ATOM_DEF_STEREO_COUNT>
1

> <PUBCHEM_ATOM_UDEF_STEREO_COUNT>
0

> <PUBCHEM_BOND_DEF_STEREO_COUNT>
0

> <PUBCHEM_BOND_UDEF_STEREO_COUNT>
0

> <PUBCHEM_ISOTOPIC_ATOM_COUNT>
0

> <PUBCHEM_COMPONENT_COUNT>
1

> <PUBCHEM_CACTVS_TAUTO_COUNT>
10

> <PUBCHEM_COORDINATE_TYPE>
1
5
255

> <PUBCHEM_BONDANNOTATIONS>
1  17  8
1  18  8
18  19  8
18  20  8
19  21  8
10  2  6
20  22  8
21  23  8
22  23  8
7  17  8
7  19  8

$$$$

