   Color/Form
        Colorless liquid, turns brown upon standing
   from [1]HSDB

   Odor
        Ethereal
   from [2]HSDB

   Boiling Point
        31.36 DEG C AT 760 MM HG
   from [3]HSDB

   Melting Point
        -85.6 deg C
   from [4]HSDB

   Critical Temperature and Pressure

     * Critical temp: 214 deg C
     * Critical pressure: 5.32 mPa

   from [5]HSDB

   Density/Specific Gravity
        0.9371 @ 19.4 DEG C/4 DEG C
   from [6]HSDB

   Heat of Combustion
        -500.1 kg cal/mole (at constant vol)
   from [7]HSDB

   Heat of Vaporization
        95.5 cal/g @ 31.2 deg C
   from [8]HSDB

   Octanol/Water Partition Coefficient
        Log Kow= 1.34
   from [9]HSDB

   Solubilities

     * > 10% in acetone
     * > 10% in benzene
     * > 10% in ether
     * > 10% in ethanol
     * Water solubility = 1X10+4 mg/l at 25 deg C [Valvani SC et al; J
       Pharm Sci 70: 502-7 (1981)] [10]PubMed Abstract

   from [11]HSDB

   Spectral Properties

     * Index of refraction: 1.4214 @ 20 deg C/D
     * MAX ABSORPTION (ALCOHOL): 208 NM (LOG E= 3.9) SHOULDER
     * Furan, 99%, exhibits its two strongest infra red absorption bands
       at wavelengths of 10.1 and 13.5 microns.
     * IR: 3664 (Sadtler Research Laboratories Prism Collection)
     * UV: 3-15 (Organic Electronic Spectral Data, Phillips et al, John
       Wiley & Sons, New York)
     * NMR: 50 (Varian Associates NMR Spectra Catalogue)
     * MASS: 51 (Atlas of Mass Spectral Data, John Wiley & Sons, New York)

   from [12]HSDB

   Vapor Density
        2.3 (Air= 1)
   from [13]HSDB

   Vapor Pressure
        Vapor pressure = 600 mm Hg at 25 deg C /from experimentally
   derived coefficients/
   from [14]HSDB

   Viscosity
        0.38 cp @ 20 deg C
   from [15]HSDB

   Other Chemical/Physical Properties

     * Heat of formation @ 25 deg C= -14.9 kcal/mole
     * Dielectric constant @ 25 deg C: 2.95; dipole moment: 0.66 (gas),
       0.67 in benzene @ 20 deg C (liquid)
     * Enthalpy of formation: -8.23 kcal/mole; Gibbs (free) energy of
       formation: 0.21 kcal/mole; entropy: 63.86 cal/deg/mole; heat
       capacity: 15.64 cal/deg.mole
     * Enthalpy of transition @ -123.2 deg C: 0.489 kcal/mole; enthalpy of
       sublimation @ 298 K: 6.61 kcal/mole; specific heat: 21.20
       cal/K.mole @ 400 K, 29.31 cal/K/mole @ 600 K, 34.41 cal/K/mole @
       800 K, 37.39 cal/K/mole @ 1000 K
     * Critical molar vol: 218 cu cm/mole
     * STABLE TO ALKALIES, RESINIFIES ON EVAPORATION OR WHEN IN CONTACT
       WITH MINERAL ACIDS
     * Slowly oxidizes in air to form peroxides.

   from [16]HSDB

   Computed Properties
   Molecular Weight                  68.07396 [g/mol]
   Molecular Formula                 C[4]H[4]O
   XLogP3                            1.3
   H-Bond Donor                      0
   H-Bond Acceptor                   1
   Rotatable Bond Count              0
   Exact Mass                        68.026215
   MonoIsotopic Mass                 68.026215
   Topological Polar Surface Area    13.1
   Heavy Atom Count                  5
   Formal Charge                     0
   Complexity                        22.8
   Isotope Atom Count                0
   Defined Atom Stereocenter Count   0
   Undefined Atom Stereocenter Count 0
   Defined Bond Stereocenter Count   0
   Undefined Bond Stereocenter Count 0
   Covalently-Bonded Unit Count      1
   Feature 3D Acceptor Count         1
   Feature 3D Ring Count             1
   Effective Rotor Count             0
   Conformer Sampling RMSD           0.4
   CID Conformer Count               [17]1

References

   1. http://toxnet.nlm.nih.gov/cgi-bin/sis/search/r?dbs+hsdb:@term+@rn+@rel+110-00-9
   2. http://toxnet.nlm.nih.gov/cgi-bin/sis/search/r?dbs+hsdb:@term+@rn+@rel+110-00-9
   3. http://toxnet.nlm.nih.gov/cgi-bin/sis/search/r?dbs+hsdb:@term+@rn+@rel+110-00-9
   4. http://toxnet.nlm.nih.gov/cgi-bin/sis/search/r?dbs+hsdb:@term+@rn+@rel+110-00-9
   5. http://toxnet.nlm.nih.gov/cgi-bin/sis/search/r?dbs+hsdb:@term+@rn+@rel+110-00-9
   6. http://toxnet.nlm.nih.gov/cgi-bin/sis/search/r?dbs+hsdb:@term+@rn+@rel+110-00-9
   7. http://toxnet.nlm.nih.gov/cgi-bin/sis/search/r?dbs+hsdb:@term+@rn+@rel+110-00-9
   8. http://toxnet.nlm.nih.gov/cgi-bin/sis/search/r?dbs+hsdb:@term+@rn+@rel+110-00-9
   9. http://toxnet.nlm.nih.gov/cgi-bin/sis/search/r?dbs+hsdb:@term+@rn+@rel+110-00-9
  10. http://www.ncbi.nlm.nih.gov/entrez/query.fcgi?cmd=Retrieve&db=pubmed&dopt=Abstract&list_uids=7241352
  11. http://toxnet.nlm.nih.gov/cgi-bin/sis/search/r?dbs+hsdb:@term+@rn+@rel+110-00-9
  12. http://toxnet.nlm.nih.gov/cgi-bin/sis/search/r?dbs+hsdb:@term+@rn+@rel+110-00-9
  13. http://toxnet.nlm.nih.gov/cgi-bin/sis/search/r?dbs+hsdb:@term+@rn+@rel+110-00-9
  14. http://toxnet.nlm.nih.gov/cgi-bin/sis/search/r?dbs+hsdb:@term+@rn+@rel+110-00-9
  15. http://toxnet.nlm.nih.gov/cgi-bin/sis/search/r?dbs+hsdb:@term+@rn+@rel+110-00-9
  16. http://toxnet.nlm.nih.gov/cgi-bin/sis/search/r?dbs+hsdb:@term+@rn+@rel+110-00-9
  17. http://pubchem.ncbi.nlm.nih.gov/vw3d/vw3d.cgi?cid=8029
