14409
  -OEChem-06241222432D

 43 45  0     0  0  0  0  0  0999 V2000
    2.0000   -3.6080    0.0000 Cl  0  0  0  0  0  0  0  0  0  0  0  0
    6.3156    0.1535    0.0000 O   0  0  0  0  0  0  0  0  0  0  0  0
    4.8817   -0.7474    0.0000 N   0  0  0  0  0  0  0  0  0  0  0  0
    5.1406    2.7070    0.0000 N   0  0  0  0  0  0  0  0  0  0  0  0
    5.3816   -2.9381    0.0000 N   0  0  0  0  0  0  0  0  0  0  0  0
    4.4478    0.1536    0.0000 C   0  0  0  0  0  0  0  0  0  0  0  0
    5.0111    0.9798    0.0000 C   0  0  0  0  0  0  0  0  0  0  0  0
    4.2582   -1.5292    0.0000 C   0  0  0  0  0  0  0  0  0  0  0  0
    4.5772    1.8808    0.0000 C   0  0  0  0  0  0  0  0  0  0  0  0
    4.4807   -2.5042    0.0000 C   0  0  0  0  0  0  0  0  0  0  0  0
    5.8817   -0.7474    0.0000 C   0  0  0  0  0  0  0  0  0  0  0  0
    6.5052   -1.5292    0.0000 C   0  0  0  0  0  0  0  0  0  0  0  0
    6.2826   -2.5042    0.0000 C   0  0  0  0  0  0  0  0  0  0  0  0
    3.2677   -1.2069    0.0000 C   0  0  0  0  0  0  0  0  0  0  0  0
    3.7281   -3.2243    0.0000 C   0  0  0  0  0  0  0  0  0  0  0  0
    7.4956   -1.2069    0.0000 C   0  0  0  0  0  0  0  0  0  0  0  0
    7.0352   -3.2244    0.0000 C   0  0  0  0  0  0  0  0  0  0  0  0
    2.4986   -1.9095    0.0000 C   0  0  0  0  0  0  0  0  0  0  0  0
    4.7067    3.6080    0.0000 C   0  0  0  0  0  0  0  0  0  0  0  0
    6.1378    2.6323    0.0000 C   0  0  0  0  0  0  0  0  0  0  0  0
    2.7304   -2.9250    0.0000 C   0  0  0  0  0  0  0  0  0  0  0  0
    8.2646   -1.9095    0.0000 C   0  0  0  0  0  0  0  0  0  0  0  0
    8.0329   -2.9250    0.0000 C   0  0  0  0  0  0  0  0  0  0  0  0
    4.0040    0.5865    0.0000 H   0  0  0  0  0  0  0  0  0  0  0  0
    3.9444   -0.2084    0.0000 H   0  0  0  0  0  0  0  0  0  0  0  0
    5.4550    0.5469    0.0000 H   0  0  0  0  0  0  0  0  0  0  0  0
    5.5145    1.3417    0.0000 H   0  0  0  0  0  0  0  0  0  0  0  0
    4.1334    2.3137    0.0000 H   0  0  0  0  0  0  0  0  0  0  0  0
    4.0738    1.5188    0.0000 H   0  0  0  0  0  0  0  0  0  0  0  0
    5.3816   -3.5581    0.0000 H   0  0  0  0  0  0  0  0  0  0  0  0
    3.1367   -0.6009    0.0000 H   0  0  0  0  0  0  0  0  0  0  0  0
    3.8731   -3.8272    0.0000 H   0  0  0  0  0  0  0  0  0  0  0  0
    7.6266   -0.6009    0.0000 H   0  0  0  0  0  0  0  0  0  0  0  0
    6.8902   -3.8272    0.0000 H   0  0  0  0  0  0  0  0  0  0  0  0
    1.9069   -1.7244    0.0000 H   0  0  0  0  0  0  0  0  0  0  0  0
    6.0914    2.0140    0.0000 H   0  0  0  0  0  0  0  0  0  0  0  0
    5.2653    3.8770    0.0000 H   0  0  0  0  0  0  0  0  0  0  0  0
    4.4377    4.1666    0.0000 H   0  0  0  0  0  0  0  0  0  0  0  0
    4.1481    3.3390    0.0000 H   0  0  0  0  0  0  0  0  0  0  0  0
    6.7560    2.5859    0.0000 H   0  0  0  0  0  0  0  0  0  0  0  0
    6.1841    3.2505    0.0000 H   0  0  0  0  0  0  0  0  0  0  0  0
    8.8564   -1.7245    0.0000 H   0  0  0  0  0  0  0  0  0  0  0  0
    8.4857   -3.3485    0.0000 H   0  0  0  0  0  0  0  0  0  0  0  0
  1 21  1  0  0  0  0
  2 11  2  0  0  0  0
  3  6  1  0  0  0  0
  3  8  1  0  0  0  0
  3 11  1  0  0  0  0
  4  9  1  0  0  0  0
  4 19  1  0  0  0  0
  4 20  1  0  0  0  0
  5 10  1  0  0  0  0
  5 13  1  0  0  0  0
  5 30  1  0  0  0  0
  6  7  1  0  0  0  0
  6 24  1  0  0  0  0
  6 25  1  0  0  0  0
  7  9  1  0  0  0  0
  7 26  1  0  0  0  0
  7 27  1  0  0  0  0
  8 10  2  0  0  0  0
  8 14  1  0  0  0  0
  9 28  1  0  0  0  0
  9 29  1  0  0  0  0
 10 15  1  0  0  0  0
 11 12  1  0  0  0  0
 12 13  1  0  0  0  0
 12 16  2  0  0  0  0
 13 17  2  0  0  0  0
 14 18  2  0  0  0  0
 14 31  1  0  0  0  0
 15 21  2  0  0  0  0
 15 32  1  0  0  0  0
 16 22  1  0  0  0  0
 16 33  1  0  0  0  0
 17 23  1  0  0  0  0
 17 34  1  0  0  0  0
 18 21  1  0  0  0  0
 18 35  1  0  0  0  0
 19 37  1  0  0  0  0
 19 38  1  0  0  0  0
 19 39  1  0  0  0  0
 20 36  1  0  0  0  0
 20 40  1  0  0  0  0
 20 41  1  0  0  0  0
 22 23  2  0  0  0  0
 22 42  1  0  0  0  0
 23 43  1  0  0  0  0
M  END
> <PUBCHEM_COMPOUND_CID>
14409

> <PUBCHEM_COMPOUND_CANONICALIZED>
1

> <PUBCHEM_CACTVS_COMPLEXITY>
417

> <PUBCHEM_CACTVS_HBOND_ACCEPTOR>
3

> <PUBCHEM_CACTVS_HBOND_DONOR>
1

> <PUBCHEM_CACTVS_ROTATABLE_BOND>
4

> <PUBCHEM_CACTVS_SUBSKEYS>
AAADceB7IAAEAAAAAAAAAAAAAAAAAAAAAAAwYAAABYAAAAABQAAAHgIQAAAADArBmCQywIPAAACIAiVSUACCAAAlBwAIiAEIdsgIYHrB15GUIYhglgDIyccYiACOAABAAAICACAAAIAABAQAQAAAAAAAAA==

> <PUBCHEM_IUPAC_OPENEYE_NAME>
2-chloro-5-[3-(dimethylamino)propyl]-11H-benzo[b][1,4]benzodiazepin-6-one

> <PUBCHEM_IUPAC_CAS_NAME>
2-chloro-5-[3-(dimethylamino)propyl]-11H-benzo[b][1,4]benzodiazepin-6-one

> <PUBCHEM_IUPAC_NAME>
2-chloro-5-[3-(dimethylamino)propyl]-11H-benzo[b][1,4]benzodiazepin-6-one

> <PUBCHEM_IUPAC_SYSTEMATIC_NAME>
2-chloranyl-5-[3-(dimethylamino)propyl]-11H-benzo[b][1,4]benzodiazepin-6-one

> <PUBCHEM_IUPAC_TRADITIONAL_NAME>
2-chloro-5-[3-(dimethylamino)propyl]-11H-benzo[b][1,4]benzodiazepin-6-one

> <PUBCHEM_IUPAC_INCHI>
InChI=1S/C18H20ClN3O/c1-21(2)10-5-11-22-17-9-8-13(19)12-16(17)20-15-7-4-3-6-14(15)18(22)23/h3-4,6-9,12,20H,5,10-11H2,1-2H3

> <PUBCHEM_IUPAC_INCHIKEY>
ONZPYYBDRDYTAH-UHFFFAOYSA-N

> <PUBCHEM_XLOGP3_AA>
3.6

> <PUBCHEM_EXACT_MASS>
329.12949

> <PUBCHEM_MOLECULAR_FORMULA>
C18H20ClN3O

> <PUBCHEM_MOLECULAR_WEIGHT>
329.8239

> <PUBCHEM_OPENEYE_CAN_SMILES>
CN(C)CCCN1C2=C(C=C(C=C2)Cl)NC3=CC=CC=C3C1=O

> <PUBCHEM_OPENEYE_ISO_SMILES>
CN(C)CCCN1C2=C(C=C(C=C2)Cl)NC3=CC=CC=C3C1=O

> <PUBCHEM_CACTVS_TPSA>
35.6

> <PUBCHEM_MONOISOTOPIC_WEIGHT>
329.12949

> <PUBCHEM_TOTAL_CHARGE>
0

> <PUBCHEM_HEAVY_ATOM_COUNT>
23

> <PUBCHEM_ATOM_DEF_STEREO_COUNT>
0

> <PUBCHEM_ATOM_UDEF_STEREO_COUNT>
0

> <PUBCHEM_BOND_DEF_STEREO_COUNT>
0

> <PUBCHEM_BOND_UDEF_STEREO_COUNT>
0

> <PUBCHEM_ISOTOPIC_ATOM_COUNT>
0

> <PUBCHEM_COMPONENT_COUNT>
1

> <PUBCHEM_CACTVS_TAUTO_COUNT>
4

> <PUBCHEM_COORDINATE_TYPE>
1
5
255

> <PUBCHEM_BONDANNOTATIONS>
10  15  8
12  13  8
12  16  8
13  17  8
14  18  8
15  21  8
16  22  8
17  23  8
18  21  8
22  23  8
8  10  8
8  14  8

$$$$

