92235
  -OEChem-07051213012D

 19 19  0     1  0  0  0  0  0999 V2000
    7.0064    0.4476    0.0000 O   0  0  0  0  0  0  0  0  0  0  0  0
    6.4712   -1.1997    0.0000 O   0  0  0  0  0  0  0  0  0  0  0  0
    5.1043    1.0656    0.0000 N   0  0  0  0  0  0  0  0  0  0  0  0
    2.8090   -0.8605    0.0000 N   0  0  0  0  0  0  0  0  0  0  0  0
    3.3090    0.6784    0.0000 N   0  0  0  0  0  0  0  0  0  0  0  0
    2.0000   -0.2727    0.0000 N   0  0  0  0  0  0  0  0  0  0  0  0
    4.5691   -0.5817    0.0000 C   0  0  0  0  0  0  0  0  0  0  0  0
    5.3122    0.0874    0.0000 C   0  0  3  0  0  0  0  0  0  0  0  0
    3.6180   -0.2727    0.0000 C   0  0  0  0  0  0  0  0  0  0  0  0
    6.2633   -0.2216    0.0000 C   0  0  0  0  0  0  0  0  0  0  0  0
    2.3090    0.6784    0.0000 C   0  0  0  0  0  0  0  0  0  0  0  0
    4.2780   -1.1291    0.0000 H   0  0  0  0  0  0  0  0  0  0  0  0
    5.0577   -0.9634    0.0000 H   0  0  0  0  0  0  0  0  0  0  0  0
    4.5038    0.3501    0.0000 H   0  0  0  0  0  0  0  0  0  0  0  0
    5.5651    1.4804    0.0000 H   0  0  0  0  0  0  0  0  0  0  0  0
    4.5147    1.2572    0.0000 H   0  0  0  0  0  0  0  0  0  0  0  0
    2.8090   -1.4804    0.0000 H   0  0  0  0  0  0  0  0  0  0  0  0
    1.9446    1.1800    0.0000 H   0  0  0  0  0  0  0  0  0  0  0  0
    7.5961    0.2560    0.0000 H   0  0  0  0  0  0  0  0  0  0  0  0
  1 10  1  0  0  0  0
  1 19  1  0  0  0  0
  2 10  2  0  0  0  0
  3  8  1  0  0  0  0
  3 15  1  0  0  0  0
  3 16  1  0  0  0  0
  4  6  1  0  0  0  0
  4  9  1  0  0  0  0
  4 17  1  0  0  0  0
  5  9  2  0  0  0  0
  5 11  1  0  0  0  0
  6 11  2  0  0  0  0
  7  8  1  0  0  0  0
  7  9  1  0  0  0  0
  7 12  1  0  0  0  0
  7 13  1  0  0  0  0
  8 10  1  0  0  0  0
  8 14  1  0  0  0  0
 11 18  1  0  0  0  0
M  END
> <PUBCHEM_COMPOUND_CID>
92235

> <PUBCHEM_COMPOUND_CANONICALIZED>
1

> <PUBCHEM_CACTVS_COMPLEXITY>
151

> <PUBCHEM_CACTVS_HBOND_ACCEPTOR>
5

> <PUBCHEM_CACTVS_HBOND_DONOR>
3

> <PUBCHEM_CACTVS_ROTATABLE_BOND>
3

> <PUBCHEM_CACTVS_SUBSKEYS>
AAADccBjsAAAAAAAAAAAAAAAAAAAAWAAAAAAAAAAAAAAAAABgAAAHgAYCAAACCjBgwQFGAZrEgAqAAKxLAAQgAuQgKAVYIG4AACCCBAAyAAEQAAEGAIAAAAkAAAAAAAAAAAAAAAAAAAAAAAAAAAAAAAAAA==

> <PUBCHEM_IUPAC_OPENEYE_NAME>
2-amino-3-(1H-1,2,4-triazol-5-yl)propanoic acid

> <PUBCHEM_IUPAC_CAS_NAME>
2-amino-3-(1H-1,2,4-triazol-5-yl)propanoic acid

> <PUBCHEM_IUPAC_NAME>
2-amino-3-(1H-1,2,4-triazol-5-yl)propanoic acid

> <PUBCHEM_IUPAC_SYSTEMATIC_NAME>
2-azanyl-3-(1H-1,2,4-triazol-5-yl)propanoic acid

> <PUBCHEM_IUPAC_TRADITIONAL_NAME>
2-amino-3-(1H-1,2,4-triazol-5-yl)propionic acid

> <PUBCHEM_IUPAC_INCHI>
InChI=1S/C5H8N4O2/c6-3(5(10)11)1-4-7-2-8-9-4/h2-3H,1,6H2,(H,10,11)(H,7,8,9)

> <PUBCHEM_IUPAC_INCHIKEY>
CAPORZWUTKSILW-UHFFFAOYSA-N

> <PUBCHEM_XLOGP3_AA>
-3.3

> <PUBCHEM_EXACT_MASS>
156.064726

> <PUBCHEM_MOLECULAR_FORMULA>
C5H8N4O2

> <PUBCHEM_MOLECULAR_WEIGHT>
156.14262

> <PUBCHEM_OPENEYE_CAN_SMILES>
C1=NNC(=N1)CC(C(=O)O)N

> <PUBCHEM_OPENEYE_ISO_SMILES>
C1=NNC(=N1)CC(C(=O)O)N

> <PUBCHEM_CACTVS_TPSA>
105

> <PUBCHEM_MONOISOTOPIC_WEIGHT>
156.064726

> <PUBCHEM_TOTAL_CHARGE>
0

> <PUBCHEM_HEAVY_ATOM_COUNT>
11

> <PUBCHEM_ATOM_DEF_STEREO_COUNT>
0

> <PUBCHEM_ATOM_UDEF_STEREO_COUNT>
1

> <PUBCHEM_BOND_DEF_STEREO_COUNT>
0

> <PUBCHEM_BOND_UDEF_STEREO_COUNT>
0

> <PUBCHEM_ISOTOPIC_ATOM_COUNT>
0

> <PUBCHEM_COMPONENT_COUNT>
1

> <PUBCHEM_CACTVS_TAUTO_COUNT>
5

> <PUBCHEM_COORDINATE_TYPE>
1
5
255

> <PUBCHEM_BONDANNOTATIONS>
4  6  8
4  9  8
5  11  8
5  9  8
6  11  8
8  14  3

$$$$

