86138
  -OEChem-07051213122D

 41 43  0     1  0  0  0  0  0999 V2000
    9.5000   -0.7172    0.0000 Cl  0  0  0  0  0  0  0  0  0  0  0  0
    4.8660    1.6488    0.0000 N   0  0  0  0  0  0  0  0  0  0  0  0
    5.7796    1.2421    0.0000 N   0  0  0  0  0  0  0  0  0  0  0  0
    5.9487    2.8512    0.0000 N   0  0  0  0  0  0  0  0  0  0  0  0
    2.0000    0.1488    0.0000 N   0  0  0  0  0  0  0  0  0  0  0  0
    4.0000    0.1488    0.0000 C   0  0  3  0  0  0  0  0  0  0  0  0
    5.0000    0.1488    0.0000 C   0  0  0  0  0  0  0  0  0  0  0  0
    4.0000    1.1488    0.0000 C   0  0  0  0  0  0  0  0  0  0  0  0
    4.0000   -0.8512    0.0000 C   0  0  0  0  0  0  0  0  0  0  0  0
    5.5000   -0.7172    0.0000 C   0  0  0  0  0  0  0  0  0  0  0  0
    6.5000   -0.7172    0.0000 C   0  0  0  0  0  0  0  0  0  0  0  0
    3.0000    0.1488    0.0000 C   0  0  0  0  0  0  0  0  0  0  0  0
    3.1340   -1.3512    0.0000 C   0  0  0  0  0  0  0  0  0  0  0  0
    4.8660   -1.3512    0.0000 C   0  0  0  0  0  0  0  0  0  0  0  0
    7.0000   -1.5833    0.0000 C   0  0  0  0  0  0  0  0  0  0  0  0
    7.0000    0.1488    0.0000 C   0  0  0  0  0  0  0  0  0  0  0  0
    3.1340   -2.3512    0.0000 C   0  0  0  0  0  0  0  0  0  0  0  0
    4.8660   -2.3512    0.0000 C   0  0  0  0  0  0  0  0  0  0  0  0
    4.9706    2.6433    0.0000 C   0  0  0  0  0  0  0  0  0  0  0  0
    4.0000   -2.8512    0.0000 C   0  0  0  0  0  0  0  0  0  0  0  0
    8.0000   -1.5833    0.0000 C   0  0  0  0  0  0  0  0  0  0  0  0
    8.0000    0.1488    0.0000 C   0  0  0  0  0  0  0  0  0  0  0  0
    6.4487    1.9852    0.0000 C   0  0  0  0  0  0  0  0  0  0  0  0
    8.5000   -0.7172    0.0000 C   0  0  0  0  0  0  0  0  0  0  0  0
    5.5826    0.3608    0.0000 H   0  0  0  0  0  0  0  0  0  0  0  0
    4.8923    0.7594    0.0000 H   0  0  0  0  0  0  0  0  0  0  0  0
    3.7880    1.7314    0.0000 H   0  0  0  0  0  0  0  0  0  0  0  0
    3.3894    1.0411    0.0000 H   0  0  0  0  0  0  0  0  0  0  0  0
    4.9174   -0.9293    0.0000 H   0  0  0  0  0  0  0  0  0  0  0  0
    5.6077   -1.3278    0.0000 H   0  0  0  0  0  0  0  0  0  0  0  0
    2.5970   -1.0412    0.0000 H   0  0  0  0  0  0  0  0  0  0  0  0
    5.4030   -1.0412    0.0000 H   0  0  0  0  0  0  0  0  0  0  0  0
    6.6900   -2.1202    0.0000 H   0  0  0  0  0  0  0  0  0  0  0  0
    6.6900    0.6857    0.0000 H   0  0  0  0  0  0  0  0  0  0  0  0
    2.5970   -2.6612    0.0000 H   0  0  0  0  0  0  0  0  0  0  0  0
    5.4030   -2.6612    0.0000 H   0  0  0  0  0  0  0  0  0  0  0  0
    4.5098    3.0582    0.0000 H   0  0  0  0  0  0  0  0  0  0  0  0
    4.0000   -3.4712    0.0000 H   0  0  0  0  0  0  0  0  0  0  0  0
    8.3100   -2.1202    0.0000 H   0  0  0  0  0  0  0  0  0  0  0  0
    8.3100    0.6857    0.0000 H   0  0  0  0  0  0  0  0  0  0  0  0
    7.0653    1.9204    0.0000 H   0  0  0  0  0  0  0  0  0  0  0  0
  1 24  1  0  0  0  0
  2  3  1  0  0  0  0
  2  8  1  0  0  0  0
  2 19  1  0  0  0  0
  3 23  2  0  0  0  0
  4 19  2  0  0  0  0
  4 23  1  0  0  0  0
  5 12  3  0  0  0  0
  6  7  1  0  0  0  0
  6  8  1  0  0  0  0
  6  9  1  0  0  0  0
  6 12  1  0  0  0  0
  7 10  1  0  0  0  0
  7 25  1  0  0  0  0
  7 26  1  0  0  0  0
  8 27  1  0  0  0  0
  8 28  1  0  0  0  0
  9 13  2  0  0  0  0
  9 14  1  0  0  0  0
 10 11  1  0  0  0  0
 10 29  1  0  0  0  0
 10 30  1  0  0  0  0
 11 15  2  0  0  0  0
 11 16  1  0  0  0  0
 13 17  1  0  0  0  0
 13 31  1  0  0  0  0
 14 18  2  0  0  0  0
 14 32  1  0  0  0  0
 15 21  1  0  0  0  0
 15 33  1  0  0  0  0
 16 22  2  0  0  0  0
 16 34  1  0  0  0  0
 17 20  2  0  0  0  0
 17 35  1  0  0  0  0
 18 20  1  0  0  0  0
 18 36  1  0  0  0  0
 19 37  1  0  0  0  0
 20 38  1  0  0  0  0
 21 24  2  0  0  0  0
 21 39  1  0  0  0  0
 22 24  1  0  0  0  0
 22 40  1  0  0  0  0
 23 41  1  0  0  0  0
M  END
> <PUBCHEM_COMPOUND_CID>
86138

> <PUBCHEM_COMPOUND_CANONICALIZED>
1

> <PUBCHEM_CACTVS_COMPLEXITY>
434

> <PUBCHEM_CACTVS_HBOND_ACCEPTOR>
3

> <PUBCHEM_CACTVS_HBOND_DONOR>
0

> <PUBCHEM_CACTVS_ROTATABLE_BOND>
6

> <PUBCHEM_CACTVS_SUBSKEYS>
AAADceB7gAAEAAAAAAAAAAAAAAAAAWAAAAAwYAAAAAAAAAAB0AAAHAIIAAAADgLBGCQ1EIYIEACyBiBDJAASAAswhYAdyAAIAoiIqCKBmxGEIAAogAIIiA8QgMAPhAAAAAAAAAAIAAAAAAAAAAAAAAAAAA==

> <PUBCHEM_IUPAC_OPENEYE_NAME>
4-(4-chlorophenyl)-2-phenyl-2-(1,2,4-triazol-1-ylmethyl)butanenitrile

> <PUBCHEM_IUPAC_CAS_NAME>
4-(4-chlorophenyl)-2-phenyl-2-(1,2,4-triazol-1-ylmethyl)butanenitrile

> <PUBCHEM_IUPAC_NAME>
4-(4-chlorophenyl)-2-phenyl-2-(1,2,4-triazol-1-ylmethyl)butanenitrile

> <PUBCHEM_IUPAC_SYSTEMATIC_NAME>
4-(4-chlorophenyl)-2-phenyl-2-(1,2,4-triazol-1-ylmethyl)butanenitrile

> <PUBCHEM_IUPAC_TRADITIONAL_NAME>
4-(4-chlorophenyl)-2-phenyl-2-(1,2,4-triazol-1-ylmethyl)butyronitrile

> <PUBCHEM_IUPAC_INCHI>
InChI=1S/C19H17ClN4/c20-18-8-6-16(7-9-18)10-11-19(12-21,13-24-15-22-14-23-24)17-4-2-1-3-5-17/h1-9,14-15H,10-11,13H2

> <PUBCHEM_IUPAC_INCHIKEY>
RQDJADAKIFFEKQ-UHFFFAOYSA-N

> <PUBCHEM_XLOGP3>
3.2

> <PUBCHEM_EXACT_MASS>
336.114174

> <PUBCHEM_MOLECULAR_FORMULA>
C19H17ClN4

> <PUBCHEM_MOLECULAR_WEIGHT>
336.81808

> <PUBCHEM_OPENEYE_CAN_SMILES>
C1=CC=C(C=C1)C(CCC2=CC=C(C=C2)Cl)(CN3C=NC=N3)C#N

> <PUBCHEM_OPENEYE_ISO_SMILES>
C1=CC=C(C=C1)C(CCC2=CC=C(C=C2)Cl)(CN3C=NC=N3)C#N

> <PUBCHEM_CACTVS_TPSA>
54.5

> <PUBCHEM_MONOISOTOPIC_WEIGHT>
336.114174

> <PUBCHEM_TOTAL_CHARGE>
0

> <PUBCHEM_HEAVY_ATOM_COUNT>
24

> <PUBCHEM_ATOM_DEF_STEREO_COUNT>
0

> <PUBCHEM_ATOM_UDEF_STEREO_COUNT>
1

> <PUBCHEM_BOND_DEF_STEREO_COUNT>
0

> <PUBCHEM_BOND_UDEF_STEREO_COUNT>
0

> <PUBCHEM_ISOTOPIC_ATOM_COUNT>
0

> <PUBCHEM_COMPONENT_COUNT>
1

> <PUBCHEM_CACTVS_TAUTO_COUNT>
1

> <PUBCHEM_COORDINATE_TYPE>
1
5
255

> <PUBCHEM_BONDANNOTATIONS>
11  15  8
11  16  8
13  17  8
14  18  8
15  21  8
16  22  8
17  20  8
18  20  8
2  19  8
2  3  8
21  24  8
22  24  8
3  23  8
4  19  8
4  23  8
6  7  3
9  13  8
9  14  8

$$$$

