6071
  -OEChem-06261201052D

 47 50  0     1  0  0  0  0  0999 V2000
    2.8819    0.3119    0.0000 O   0  0  0  0  0  0  0  0  0  0  0  0
    2.0024    3.8086    0.0000 O   0  0  0  0  0  0  0  0  0  0  0  0
    6.4140    0.3117    0.0000 N   0  0  3  0  0  0  0  0  0  0  0  0
    7.4021   -3.8785    0.0000 N   0  0  0  0  0  0  0  0  0  0  0  0
    3.7421    1.8153    0.0000 N   0  0  0  0  0  0  0  0  0  0  0  0
    6.3980   -0.7298    0.0000 C   0  0  1  0  0  0  0  0  0  0  0  0
    5.5320   -1.2298    0.0000 C   0  0  0  0  0  0  0  0  0  0  0  0
    7.2640   -1.2298    0.0000 C   0  0  0  0  0  0  0  0  0  0  0  0
    4.6139    0.3186    0.0000 C   0  0  1  0  0  0  0  0  0  0  0  0
    5.5160    0.8394    0.0000 C   0  0  0  0  0  0  0  0  0  0  0  0
    7.2640   -2.2298    0.0000 C   0  0  0  0  0  0  0  0  0  0  0  0
    5.5320   -2.2298    0.0000 C   0  0  0  0  0  0  0  0  0  0  0  0
    6.3980   -2.7298    0.0000 C   0  0  0  0  0  0  0  0  0  0  0  0
    4.6220   -0.7230    0.0000 C   0  0  0  0  0  0  0  0  0  0  0  0
    6.4140   -3.7713    0.0000 C   0  0  0  0  0  0  0  0  0  0  0  0
    7.2858    0.8016    0.0000 C   0  0  0  0  0  0  0  0  0  0  0  0
    7.8819   -3.0082    0.0000 C   0  0  0  0  0  0  0  0  0  0  0  0
    3.7460    0.8153    0.0000 C   0  0  0  0  0  0  0  0  0  0  0  0
    4.6220   -2.7367    0.0000 C   0  0  0  0  0  0  0  0  0  0  0  0
    5.5160   -4.2991    0.0000 C   0  0  0  0  0  0  0  0  0  0  0  0
    4.6139   -3.7783    0.0000 C   0  0  0  0  0  0  0  0  0  0  0  0
    2.8742    2.3119    0.0000 C   0  0  1  0  0  0  0  0  0  0  0  0
    2.8703    3.3119    0.0000 C   0  0  0  0  0  0  0  0  0  0  0  0
    2.0101    1.8086    0.0000 C   0  0  0  0  0  0  0  0  0  0  0  0
    7.1374   -0.3105    0.0000 H   0  0  0  0  0  0  0  0  0  0  0  0
    7.8746   -1.3375    0.0000 H   0  0  0  0  0  0  0  0  0  0  0  0
    7.4761   -0.6472    0.0000 H   0  0  0  0  0  0  0  0  0  0  0  0
    4.6127    0.9386    0.0000 H   0  0  0  0  0  0  0  0  0  0  0  0
    5.9170    1.3123    0.0000 H   0  0  0  0  0  0  0  0  0  0  0  0
    5.1187    1.3154    0.0000 H   0  0  0  0  0  0  0  0  0  0  0  0
    4.0886   -1.0392    0.0000 H   0  0  0  0  0  0  0  0  0  0  0  0
    7.5896    0.2611    0.0000 H   0  0  0  0  0  0  0  0  0  0  0  0
    7.8263    1.1054    0.0000 H   0  0  0  0  0  0  0  0  0  0  0  0
    6.9820    1.3421    0.0000 H   0  0  0  0  0  0  0  0  0  0  0  0
    8.4998   -2.9564    0.0000 H   0  0  0  0  0  0  0  0  0  0  0  0
    4.0886   -2.4205    0.0000 H   0  0  0  0  0  0  0  0  0  0  0  0
    7.6881   -4.4286    0.0000 H   0  0  0  0  0  0  0  0  0  0  0  0
    5.5184   -4.9191    0.0000 H   0  0  0  0  0  0  0  0  0  0  0  0
    4.0758   -4.0862    0.0000 H   0  0  0  0  0  0  0  0  0  0  0  0
    4.2779    2.1273    0.0000 H   0  0  0  0  0  0  0  0  0  0  0  0
    3.4099    2.6240    0.0000 H   0  0  0  0  0  0  0  0  0  0  0  0
    3.4813    3.2066    0.0000 H   0  0  0  0  0  0  0  0  0  0  0  0
    3.0801    3.8953    0.0000 H   0  0  0  0  0  0  0  0  0  0  0  0
    1.6980    2.3443    0.0000 H   0  0  0  0  0  0  0  0  0  0  0  0
    1.4744    1.4965    0.0000 H   0  0  0  0  0  0  0  0  0  0  0  0
    2.3222    1.2729    0.0000 H   0  0  0  0  0  0  0  0  0  0  0  0
    2.0000    4.4286    0.0000 H   0  0  0  0  0  0  0  0  0  0  0  0
  1 18  2  0  0  0  0
  2 23  1  0  0  0  0
  2 47  1  0  0  0  0
  3  6  1  0  0  0  0
  3 10  1  0  0  0  0
  3 16  1  0  0  0  0
  4 15  1  0  0  0  0
  4 17  1  0  0  0  0
  4 37  1  0  0  0  0
  5 18  1  0  0  0  0
 22  5  1  6  0  0  0
  5 40  1  0  0  0  0
  6  7  1  0  0  0  0
  6  8  1  0  0  0  0
  6 25  1  1  0  0  0
  7 12  1  0  0  0  0
  7 14  2  0  0  0  0
  8 11  1  0  0  0  0
  8 26  1  0  0  0  0
  8 27  1  0  0  0  0
  9 10  1  0  0  0  0
  9 14  1  0  0  0  0
  9 18  1  1  0  0  0
  9 28  1  0  0  0  0
 10 29  1  0  0  0  0
 10 30  1  0  0  0  0
 11 13  1  0  0  0  0
 11 17  2  0  0  0  0
 12 13  2  0  0  0  0
 12 19  1  0  0  0  0
 13 15  1  0  0  0  0
 14 31  1  0  0  0  0
 15 20  2  0  0  0  0
 16 32  1  0  0  0  0
 16 33  1  0  0  0  0
 16 34  1  0  0  0  0
 17 35  1  0  0  0  0
 19 21  2  0  0  0  0
 19 36  1  0  0  0  0
 20 21  1  0  0  0  0
 20 38  1  0  0  0  0
 21 39  1  0  0  0  0
 22 23  1  0  0  0  0
 22 24  1  0  0  0  0
 22 41  1  0  0  0  0
 23 42  1  0  0  0  0
 23 43  1  0  0  0  0
 24 44  1  0  0  0  0
 24 45  1  0  0  0  0
 24 46  1  0  0  0  0
M  END
> <PUBCHEM_COMPOUND_CID>
6071

> <PUBCHEM_COMPOUND_CANONICALIZED>
1

> <PUBCHEM_CACTVS_COMPLEXITY>
535

> <PUBCHEM_CACTVS_HBOND_ACCEPTOR>
3

> <PUBCHEM_CACTVS_HBOND_DONOR>
3

> <PUBCHEM_CACTVS_ROTATABLE_BOND>
3

> <PUBCHEM_CACTVS_SUBSKEYS>
AAADceB7MAAAAAAAAAAAAAAAAAAAAWAAAAAwYIAAAAAAAFjB8AAAHgAQCAAADSjhngY+wPPJkgCoAzV3VACCgCAxAiAI2aE4ZJgKMOrA0ZGEYAhglgDYyAcQgMAOgAAAQAASAAAQAASAACQAAAAAAAAAAA==

> <PUBCHEM_IUPAC_OPENEYE_NAME>
(6aR,9R)-N-[(1R)-2-hydroxy-1-methyl-ethyl]-7-methyl-6,6a,8,9-tetrahydro-4H-indolo[4,3-fg]quinoline-9-carboxamide

> <PUBCHEM_IUPAC_CAS_NAME>
(6aR,9R)-N-[(2R)-1-hydroxypropan-2-yl]-7-methyl-6,6a,8,9-tetrahydro-4H-indolo[4,3-fg]quinoline-9-carboxamide

> <PUBCHEM_IUPAC_NAME>
(6aR,9R)-N-[(2R)-1-hydroxypropan-2-yl]-7-methyl-6,6a,8,9-tetrahydro-4H-indolo[4,3-fg]quinoline-9-carboxamide

> <PUBCHEM_IUPAC_SYSTEMATIC_NAME>
(6aR,9R)-7-methyl-N-[(2R)-1-oxidanylpropan-2-yl]-6,6a,8,9-tetrahydro-4H-indolo[4,3-fg]quinoline-9-carboxamide

> <PUBCHEM_IUPAC_TRADITIONAL_NAME>
(6aR,9R)-N-[(1R)-2-hydroxy-1-methyl-ethyl]-7-methyl-6,6a,8,9-tetrahydro-4H-indolo[4,3-fg]quinoline-9-carboxamide

> <PUBCHEM_IUPAC_INCHI>
InChI=1S/C19H23N3O2/c1-11(10-23)21-19(24)13-6-15-14-4-3-5-16-18(14)12(8-20-16)7-17(15)22(2)9-13/h3-6,8,11,13,17,20,23H,7,9-10H2,1-2H3,(H,21,24)/t11-,13-,17-/m1/s1

> <PUBCHEM_IUPAC_INCHIKEY>
WVVSZNPYNCNODU-CJBNDPTMSA-N

> <PUBCHEM_XLOGP3>
1.8

> <PUBCHEM_EXACT_MASS>
325.179027

> <PUBCHEM_MOLECULAR_FORMULA>
C19H23N3O2

> <PUBCHEM_MOLECULAR_WEIGHT>
325.40482

> <PUBCHEM_OPENEYE_CAN_SMILES>
CC(CO)NC(=O)C1CN(C2CC3=CNC4=CC=CC(=C34)C2=C1)C

> <PUBCHEM_OPENEYE_ISO_SMILES>
C[C@H](CO)NC(=O)[C@H]1CN([C@@H]2CC3=CNC4=CC=CC(=C34)C2=C1)C

> <PUBCHEM_CACTVS_TPSA>
68.4

> <PUBCHEM_MONOISOTOPIC_WEIGHT>
325.179027

> <PUBCHEM_TOTAL_CHARGE>
0

> <PUBCHEM_HEAVY_ATOM_COUNT>
24

> <PUBCHEM_ATOM_DEF_STEREO_COUNT>
3

> <PUBCHEM_ATOM_UDEF_STEREO_COUNT>
0

> <PUBCHEM_BOND_DEF_STEREO_COUNT>
0

> <PUBCHEM_BOND_UDEF_STEREO_COUNT>
0

> <PUBCHEM_ISOTOPIC_ATOM_COUNT>
0

> <PUBCHEM_COMPONENT_COUNT>
1

> <PUBCHEM_CACTVS_TAUTO_COUNT>
4

> <PUBCHEM_COORDINATE_TYPE>
1
5
255

> <PUBCHEM_BONDANNOTATIONS>
11  13  8
11  17  8
12  13  8
12  19  8
13  15  8
15  20  8
19  21  8
20  21  8
4  15  8
4  17  8
22  5  6
6  25  5
9  18  5

$$$$

