10332558
  -OEChem-07051213102D

 44 44  0     1  0  0  0  0  0999 V2000
    5.1350    2.7500    0.0000 O   0  0  0  0  0  0  0  0  0  0  0  0
    6.8671    1.7500    0.0000 O   0  0  0  0  0  0  0  0  0  0  0  0
    2.5369   -2.7500    0.0000 O   0  0  0  0  0  0  0  0  0  0  0  0
    4.2690    1.2500    0.0000 C   0  0  2  0  0  0  0  0  0  0  0  0
    5.1350    1.7500    0.0000 C   0  0  2  0  0  0  0  0  0  0  0  0
    3.4030    1.7500    0.0000 C   0  0  0  0  0  0  0  0  0  0  0  0
    4.2690    0.2500    0.0000 C   0  0  0  0  0  0  0  0  0  0  0  0
    6.0010    1.2500    0.0000 C   0  0  1  0  0  0  0  0  0  0  0  0
    3.4030   -0.2500    0.0000 C   0  0  0  0  0  0  0  0  0  0  0  0
    2.5369    1.2500    0.0000 C   0  0  0  0  0  0  0  0  0  0  0  0
    3.4030    2.7500    0.0000 C   0  0  0  0  0  0  0  0  0  0  0  0
    6.0010    0.2500    0.0000 C   0  0  0  0  0  0  0  0  0  0  0  0
    3.4030   -1.2500    0.0000 C   0  0  0  0  0  0  0  0  0  0  0  0
    5.1350   -0.2500    0.0000 C   0  0  0  0  0  0  0  0  0  0  0  0
    5.1350   -1.2500    0.0000 C   0  0  0  0  0  0  0  0  0  0  0  0
    4.2690   -1.7500    0.0000 C   0  0  0  0  0  0  0  0  0  0  0  0
    2.5369   -1.7500    0.0000 C   0  0  0  0  0  0  0  0  0  0  0  0
    6.8671   -0.2500    0.0000 C   0  0  0  0  0  0  0  0  0  0  0  0
    3.7320    0.9400    0.0000 H   0  0  0  0  0  0  0  0  0  0  0  0
    5.6720    2.0600    0.0000 H   0  0  0  0  0  0  0  0  0  0  0  0
    3.4030    1.1300    0.0000 H   0  0  0  0  0  0  0  0  0  0  0  0
    4.4810   -0.3326    0.0000 H   0  0  0  0  0  0  0  0  0  0  0  0
    4.8796    0.3577    0.0000 H   0  0  0  0  0  0  0  0  0  0  0  0
    6.5380    0.9400    0.0000 H   0  0  0  0  0  0  0  0  0  0  0  0
    3.1909    0.3326    0.0000 H   0  0  0  0  0  0  0  0  0  0  0  0
    2.7924   -0.3577    0.0000 H   0  0  0  0  0  0  0  0  0  0  0  0
    4.0230    2.7500    0.0000 H   0  0  0  0  0  0  0  0  0  0  0  0
    2.2269    1.7869    0.0000 H   0  0  0  0  0  0  0  0  0  0  0  0
    3.4030    3.3700    0.0000 H   0  0  0  0  0  0  0  0  0  0  0  0
    2.7830    2.7500    0.0000 H   0  0  0  0  0  0  0  0  0  0  0  0
    2.0000    0.9400    0.0000 H   0  0  0  0  0  0  0  0  0  0  0  0
    2.8469    0.7131    0.0000 H   0  0  0  0  0  0  0  0  0  0  0  0
    4.9230    0.3326    0.0000 H   0  0  0  0  0  0  0  0  0  0  0  0
    4.5244   -0.3577    0.0000 H   0  0  0  0  0  0  0  0  0  0  0  0
    5.3471   -1.8326    0.0000 H   0  0  0  0  0  0  0  0  0  0  0  0
    5.7456   -1.1423    0.0000 H   0  0  0  0  0  0  0  0  0  0  0  0
    5.6720    3.0600    0.0000 H   0  0  0  0  0  0  0  0  0  0  0  0
    4.2690   -2.3700    0.0000 H   0  0  0  0  0  0  0  0  0  0  0  0
    7.4040    1.4400    0.0000 H   0  0  0  0  0  0  0  0  0  0  0  0
    2.3249   -1.1674    0.0000 H   0  0  0  0  0  0  0  0  0  0  0  0
    1.9264   -1.8577    0.0000 H   0  0  0  0  0  0  0  0  0  0  0  0
    6.8671   -0.8700    0.0000 H   0  0  0  0  0  0  0  0  0  0  0  0
    7.4040    0.0600    0.0000 H   0  0  0  0  0  0  0  0  0  0  0  0
    2.0000   -3.0600    0.0000 H   0  0  0  0  0  0  0  0  0  0  0  0
  5  1  1  1  0  0  0
  1 37  1  0  0  0  0
  8  2  1  6  0  0  0
  2 39  1  0  0  0  0
  3 17  1  0  0  0  0
  3 44  1  0  0  0  0
  4  5  1  0  0  0  0
  4  6  1  1  0  0  0
  4  7  1  0  0  0  0
  4 19  1  0  0  0  0
  5  8  1  0  0  0  0
  5 20  1  0  0  0  0
  6 10  1  0  0  0  0
  6 11  1  0  0  0  0
  6 21  1  0  0  0  0
  7  9  1  0  0  0  0
  7 22  1  0  0  0  0
  7 23  1  0  0  0  0
  8 12  1  0  0  0  0
  8 24  1  0  0  0  0
  9 13  1  0  0  0  0
  9 25  1  0  0  0  0
  9 26  1  0  0  0  0
 10 28  1  0  0  0  0
 10 31  1  0  0  0  0
 10 32  1  0  0  0  0
 11 27  1  0  0  0  0
 11 29  1  0  0  0  0
 11 30  1  0  0  0  0
 12 14  1  0  0  0  0
 12 18  2  0  0  0  0
 13 16  2  0  0  0  0
 13 17  1  0  0  0  0
 14 15  1  0  0  0  0
 14 33  1  0  0  0  0
 14 34  1  0  0  0  0
 15 16  1  0  0  0  0
 15 35  1  0  0  0  0
 15 36  1  0  0  0  0
 16 38  1  0  0  0  0
 17 40  1  0  0  0  0
 17 41  1  0  0  0  0
 18 42  1  0  0  0  0
 18 43  1  0  0  0  0
M  END
> <PUBCHEM_COMPOUND_CID>
10332558

> <PUBCHEM_COMPOUND_CANONICALIZED>
1

> <PUBCHEM_CACTVS_COMPLEXITY>
307

> <PUBCHEM_CACTVS_HBOND_ACCEPTOR>
3

> <PUBCHEM_CACTVS_HBOND_DONOR>
3

> <PUBCHEM_CACTVS_ROTATABLE_BOND>
2

> <PUBCHEM_CACTVS_SUBSKEYS>
AAADceBwMAAAAAAAAAAAAAAAAAAAAAAAAAAAAAAAAAAAAACAAAAAGgAACAAADRSggAICAAAAAgCAAiBCAAAAAAAgAAAACAAAAAgBFAIAAQAAUAAEwAAJEAOAwPAOgAAAAAAAAAAAAAAAAAAAAAAAAAAAAA==

> <PUBCHEM_IUPAC_OPENEYE_NAME>
(1R,2R,3S,6E)-6-(hydroxymethyl)-3-isopropyl-10-methylene-cyclodec-6-ene-1,2-diol

> <PUBCHEM_IUPAC_CAS_NAME>
(1R,2R,3S,6E)-6-(hydroxymethyl)-10-methylene-3-propan-2-ylcyclodec-6-ene-1,2-diol

> <PUBCHEM_IUPAC_NAME>
(1R,2R,3S,6E)-6-(hydroxymethyl)-10-methylidene-3-propan-2-ylcyclodec-6-ene-1,2-diol

> <PUBCHEM_IUPAC_SYSTEMATIC_NAME>
(1R,2R,3S,6E)-6-(hydroxymethyl)-10-methylidene-3-propan-2-yl-cyclodec-6-ene-1,2-diol

> <PUBCHEM_IUPAC_TRADITIONAL_NAME>
(1R,2R,3S,6E)-3-isopropyl-10-methylene-6-methylol-cyclodec-6-ene-1,2-diol

> <PUBCHEM_IUPAC_INCHI>
InChI=1S/C15H26O3/c1-10(2)13-8-7-12(9-16)6-4-5-11(3)14(17)15(13)18/h6,10,13-18H,3-5,7-9H2,1-2H3/b12-6+/t13-,14+,15+/m0/s1

> <PUBCHEM_IUPAC_INCHIKEY>
DXLKOOQBJKRNLJ-AZTPNKIGSA-N

> <PUBCHEM_XLOGP3_AA>
1.2

> <PUBCHEM_EXACT_MASS>
254.188195

> <PUBCHEM_MOLECULAR_FORMULA>
C15H26O3

> <PUBCHEM_MOLECULAR_WEIGHT>
254.36514

> <PUBCHEM_OPENEYE_CAN_SMILES>
CC(C)C1CCC(=CCCC(=C)C(C1O)O)CO

> <PUBCHEM_OPENEYE_ISO_SMILES>
CC(C)[C@@H]1CC/C(=C\CCC(=C)[C@H]([C@@H]1O)O)/CO

> <PUBCHEM_CACTVS_TPSA>
60.7

> <PUBCHEM_MONOISOTOPIC_WEIGHT>
254.188195

> <PUBCHEM_TOTAL_CHARGE>
0

> <PUBCHEM_HEAVY_ATOM_COUNT>
18

> <PUBCHEM_ATOM_DEF_STEREO_COUNT>
3

> <PUBCHEM_ATOM_UDEF_STEREO_COUNT>
0

> <PUBCHEM_BOND_DEF_STEREO_COUNT>
1

> <PUBCHEM_BOND_UDEF_STEREO_COUNT>
0

> <PUBCHEM_ISOTOPIC_ATOM_COUNT>
0

> <PUBCHEM_COMPONENT_COUNT>
1

> <PUBCHEM_CACTVS_TAUTO_COUNT>
1

> <PUBCHEM_COORDINATE_TYPE>
1
5
255

> <PUBCHEM_BONDANNOTATIONS>
5  1  5
8  2  6
4  6  5

$$$$

