   Dissociation Constants
        pKa1 = 3.56 (carboxylic acid); pKa2 = 9.49 (secondary amine) (est)
   from [1]HSDB

   Octanol/Water Partition Coefficient
        log Kow = 2.04 (est)
   from [2]HSDB

   Solubilities
        In water, 6.6X10-1 mg/L at 25 deg C (est)
   from [3]HSDB

   Vapor Pressure
        7.2X10-14 mm Hg at 25 deg C (est)
   from [4]HSDB

   Other Chemical/Physical Properties

     * Mol wt: 215.71. White to off-white, odorless crystalline powder, mp
       192 deg C (decomposes) (Mengel). Specific optical rotation: -11 deg
       at 20 deg C/D. pKa2 = 9.4. log Kow = 39.3 (pH 7.4). Solubility in
       water: 3%. Practically insoluble in hexane. /Hydrochloride/
     * Soluble in aqueous base /Hydrochloride/
     * Henry's Law constant = 3.5X10-13 atm-cu m/mol at 25 deg C (est)
     * Hydroxyl radical reaction rate constant = 2.9X10-10 cu cm/molec-sec
       at 25 deg C (est)

   from [5]HSDB

   Computed Properties
   Molecular Weight                  375.548 [g/mol]
   Molecular Formula                 C[20]H[25]NO[2]S[2]
   XLogP3-AA                         2.7
   H-Bond Donor                      1
   H-Bond Acceptor                   5
   Rotatable Bond Count              6
   Exact Mass                        375.132671
   MonoIsotopic Mass                 375.132671
   Topological Polar Surface Area    97
   Heavy Atom Count                  25
   Formal Charge                     0
   Complexity                        474
   Isotope Atom Count                0
   Defined Atom Stereocenter Count   1
   Undefined Atom Stereocenter Count 0
   Defined Bond Stereocenter Count   0
   Undefined Bond Stereocenter Count 0
   Covalently-Bonded Unit Count      1
   Feature 3D Acceptor Count         2
   Feature 3D Anion Count            1
   Feature 3D Cation Count           1
   Feature 3D Ring Count             3
   Effective Rotor Count             7.2
   Conformer Sampling RMSD           0.8
   CID Conformer Count               [6]310

References

   1. http://toxnet.nlm.nih.gov/cgi-bin/sis/search/r?dbs+hsdb:@term+@rn+@rel+115103-54-3
   2. http://toxnet.nlm.nih.gov/cgi-bin/sis/search/r?dbs+hsdb:@term+@rn+@rel+115103-54-3
   3. http://toxnet.nlm.nih.gov/cgi-bin/sis/search/r?dbs+hsdb:@term+@rn+@rel+115103-54-3
   4. http://toxnet.nlm.nih.gov/cgi-bin/sis/search/r?dbs+hsdb:@term+@rn+@rel+115103-54-3
   5. http://toxnet.nlm.nih.gov/cgi-bin/sis/search/r?dbs+hsdb:@term+@rn+@rel+115103-54-3
   6. http://pubchem.ncbi.nlm.nih.gov/vw3d/vw3d.cgi?cid=60648
