92716
  -OEChem-07051213032D

 41 43  0     1  0  0  0  0  0999 V2000
    2.0000    0.8691    0.0000 O   0  0  0  0  0  0  0  0  0  0  0  0
    2.0000    2.8691    0.0000 O   0  0  0  0  0  0  0  0  0  0  0  0
    7.1777   -3.1853    0.0000 O   0  0  0  0  0  0  0  0  0  0  0  0
    8.9212   -2.2054    0.0000 O   0  0  0  0  0  0  0  0  0  0  0  0
    6.3981    1.3483    0.0000 N   0  0  3  0  0  0  0  0  0  0  0  0
    5.4920    0.8344    0.0000 C   0  0  3  0  0  0  0  0  0  0  0  0
    4.5981    1.3691    0.0000 C   0  0  0  0  0  0  0  0  0  0  0  0
    6.3981    2.3899    0.0000 C   0  0  0  0  0  0  0  0  0  0  0  0
    5.4920    2.9038    0.0000 C   0  0  0  0  0  0  0  0  0  0  0  0
    4.5981    2.3691    0.0000 C   0  0  0  0  0  0  0  0  0  0  0  0
    5.4804   -0.1655    0.0000 C   0  0  0  0  0  0  0  0  0  0  0  0
    7.2622    0.8449    0.0000 C   0  0  0  0  0  0  0  0  0  0  0  0
    3.7320    0.8691    0.0000 C   0  0  0  0  0  0  0  0  0  0  0  0
    6.3406   -0.6755    0.0000 C   0  0  0  0  0  0  0  0  0  0  0  0
    3.7320    2.8691    0.0000 C   0  0  0  0  0  0  0  0  0  0  0  0
    2.8660    1.3691    0.0000 C   0  0  0  0  0  0  0  0  0  0  0  0
    2.8660    2.3691    0.0000 C   0  0  0  0  0  0  0  0  0  0  0  0
    6.3291   -1.6754    0.0000 C   0  0  0  0  0  0  0  0  0  0  0  0
    7.2124   -0.1855    0.0000 C   0  0  0  0  0  0  0  0  0  0  0  0
    7.1893   -2.1854    0.0000 C   0  0  0  0  0  0  0  0  0  0  0  0
    8.0726   -0.6955    0.0000 C   0  0  0  0  0  0  0  0  0  0  0  0
    8.0610   -1.6954    0.0000 C   0  0  0  0  0  0  0  0  0  0  0  0
    6.0259    0.5193    0.0000 H   0  0  0  0  0  0  0  0  0  0  0  0
    7.0089    2.2838    0.0000 H   0  0  0  0  0  0  0  0  0  0  0  0
    6.6071    2.9736    0.0000 H   0  0  0  0  0  0  0  0  0  0  0  0
    5.8856    3.3828    0.0000 H   0  0  0  0  0  0  0  0  0  0  0  0
    5.0874    3.3736    0.0000 H   0  0  0  0  0  0  0  0  0  0  0  0
    4.8712   -0.0508    0.0000 H   0  0  0  0  0  0  0  0  0  0  0  0
    5.2617   -0.7456    0.0000 H   0  0  0  0  0  0  0  0  0  0  0  0
    6.9501    0.3092    0.0000 H   0  0  0  0  0  0  0  0  0  0  0  0
    7.7979    0.5329    0.0000 H   0  0  0  0  0  0  0  0  0  0  0  0
    7.5742    1.3807    0.0000 H   0  0  0  0  0  0  0  0  0  0  0  0
    3.7320    0.2491    0.0000 H   0  0  0  0  0  0  0  0  0  0  0  0
    3.7320    3.4891    0.0000 H   0  0  0  0  0  0  0  0  0  0  0  0
    5.7886   -1.9792    0.0000 H   0  0  0  0  0  0  0  0  0  0  0  0
    7.2196    0.4344    0.0000 H   0  0  0  0  0  0  0  0  0  0  0  0
    8.6131   -0.3917    0.0000 H   0  0  0  0  0  0  0  0  0  0  0  0
    2.0000    0.2491    0.0000 H   0  0  0  0  0  0  0  0  0  0  0  0
    2.0000    3.4891    0.0000 H   0  0  0  0  0  0  0  0  0  0  0  0
    6.6372   -3.4891    0.0000 H   0  0  0  0  0  0  0  0  0  0  0  0
    9.4617   -1.9016    0.0000 H   0  0  0  0  0  0  0  0  0  0  0  0
  1 16  1  0  0  0  0
  1 38  1  0  0  0  0
  2 17  1  0  0  0  0
  2 39  1  0  0  0  0
  3 20  1  0  0  0  0
  3 40  1  0  0  0  0
  4 22  1  0  0  0  0
  4 41  1  0  0  0  0
  5  6  1  0  0  0  0
  5  8  1  0  0  0  0
  5 12  1  0  0  0  0
  6  7  1  0  0  0  0
  6 11  1  0  0  0  0
  6 23  1  0  0  0  0
  7 10  1  0  0  0  0
  7 13  2  0  0  0  0
  8  9  1  0  0  0  0
  8 24  1  0  0  0  0
  8 25  1  0  0  0  0
  9 10  1  0  0  0  0
  9 26  1  0  0  0  0
  9 27  1  0  0  0  0
 10 15  2  0  0  0  0
 11 14  1  0  0  0  0
 11 28  1  0  0  0  0
 11 29  1  0  0  0  0
 12 30  1  0  0  0  0
 12 31  1  0  0  0  0
 12 32  1  0  0  0  0
 13 16  1  0  0  0  0
 13 33  1  0  0  0  0
 14 18  2  0  0  0  0
 14 19  1  0  0  0  0
 15 17  1  0  0  0  0
 15 34  1  0  0  0  0
 16 17  2  0  0  0  0
 18 20  1  0  0  0  0
 18 35  1  0  0  0  0
 19 21  2  0  0  0  0
 19 36  1  0  0  0  0
 20 22  2  0  0  0  0
 21 22  1  0  0  0  0
 21 37  1  0  0  0  0
M  END
> <PUBCHEM_COMPOUND_CID>
92716

> <PUBCHEM_COMPOUND_CANONICALIZED>
1

> <PUBCHEM_CACTVS_COMPLEXITY>
380

> <PUBCHEM_CACTVS_HBOND_ACCEPTOR>
5

> <PUBCHEM_CACTVS_HBOND_DONOR>
4

> <PUBCHEM_CACTVS_ROTATABLE_BOND>
2

> <PUBCHEM_CACTVS_SUBSKEYS>
AAADceB6OAAAAAAAAAAAAAAAAAAAAAAAAAA8YIAAAAAAAACxQAAAHgAACAAADCzBmAQyBoMAAgCAAiBCAACCAAAgIAAIiAAOjIgJJiKCkROEcAlkwBGJmAew0PMOoAABAAAQQABAAAIAACCAAAAAAAAAAA==

> <PUBCHEM_IUPAC_OPENEYE_NAME>
1-[(3,4-dihydroxyphenyl)methyl]-2-methyl-3,4-dihydro-1H-isoquinoline-6,7-diol

> <PUBCHEM_IUPAC_CAS_NAME>
1-[(3,4-dihydroxyphenyl)methyl]-2-methyl-3,4-dihydro-1H-isoquinoline-6,7-diol

> <PUBCHEM_IUPAC_NAME>
1-[(3,4-dihydroxyphenyl)methyl]-2-methyl-3,4-dihydro-1H-isoquinoline-6,7-diol

> <PUBCHEM_IUPAC_SYSTEMATIC_NAME>
1-[[3,4-bis(oxidanyl)phenyl]methyl]-2-methyl-3,4-dihydro-1H-isoquinoline-6,7-diol

> <PUBCHEM_IUPAC_TRADITIONAL_NAME>
2-methyl-1-protocatechuyl-3,4-dihydro-1H-isoquinoline-6,7-diol

> <PUBCHEM_IUPAC_INCHI>
InChI=1S/C17H19NO4/c1-18-5-4-11-8-16(21)17(22)9-12(11)13(18)6-10-2-3-14(19)15(20)7-10/h2-3,7-9,13,19-22H,4-6H2,1H3

> <PUBCHEM_IUPAC_INCHIKEY>
VHRSWCTVFBWHKE-UHFFFAOYSA-N

> <PUBCHEM_XLOGP3_AA>
2.4

> <PUBCHEM_EXACT_MASS>
301.131408

> <PUBCHEM_MOLECULAR_FORMULA>
C17H19NO4

> <PUBCHEM_MOLECULAR_WEIGHT>
301.33706

> <PUBCHEM_OPENEYE_CAN_SMILES>
CN1CCC2=CC(=C(C=C2C1CC3=CC(=C(C=C3)O)O)O)O

> <PUBCHEM_OPENEYE_ISO_SMILES>
CN1CCC2=CC(=C(C=C2C1CC3=CC(=C(C=C3)O)O)O)O

> <PUBCHEM_CACTVS_TPSA>
84.2

> <PUBCHEM_MONOISOTOPIC_WEIGHT>
301.131408

> <PUBCHEM_TOTAL_CHARGE>
0

> <PUBCHEM_HEAVY_ATOM_COUNT>
22

> <PUBCHEM_ATOM_DEF_STEREO_COUNT>
0

> <PUBCHEM_ATOM_UDEF_STEREO_COUNT>
1

> <PUBCHEM_BOND_DEF_STEREO_COUNT>
0

> <PUBCHEM_BOND_UDEF_STEREO_COUNT>
0

> <PUBCHEM_ISOTOPIC_ATOM_COUNT>
0

> <PUBCHEM_COMPONENT_COUNT>
1

> <PUBCHEM_CACTVS_TAUTO_COUNT>
324

> <PUBCHEM_COORDINATE_TYPE>
1
5
255

> <PUBCHEM_BONDANNOTATIONS>
10  15  8
13  16  8
14  18  8
14  19  8
15  17  8
16  17  8
18  20  8
19  21  8
20  22  8
21  22  8
6  11  3
7  10  8
7  13  8

$$$$

