440452
  -OEChem-07051212492D

 46 47  0     1  0  0  0  0  0999 V2000
    6.3301   -0.7934    0.0000 S   0  0  0  0  0  0  0  0  0  0  0  0
    8.9101    1.4193    0.0000 O   0  0  0  0  0  0  0  0  0  0  0  0
    3.7320    0.7066    0.0000 O   0  0  0  0  0  0  0  0  0  0  0  0
    5.4641    2.7066    0.0000 O   0  0  0  0  0  0  0  0  0  0  0  0
   10.1373    0.2162    0.0000 O   0  0  0  0  0  0  0  0  0  0  0  0
    7.1962    2.7066    0.0000 O   0  0  0  0  0  0  0  0  0  0  0  0
    2.8660    2.2066    0.0000 O   0  0  0  0  0  0  0  0  0  0  0  0
   13.4816   -0.6873    0.0000 O   0  0  0  0  0  0  0  0  0  0  0  0
   14.8929   -2.1044    0.0000 O   0  0  0  0  0  0  0  0  0  0  0  0
   13.6656   -3.3266    0.0000 O   0  0  0  0  0  0  0  0  0  0  0  0
    7.1962    0.7066    0.0000 N   0  0  0  0  0  0  0  0  0  0  0  0
    8.9101   -1.0061    0.0000 N   0  0  0  0  0  0  0  0  0  0  0  0
    7.1962   -0.2934    0.0000 C   0  0  1  0  0  0  0  0  0  0  0  0
    8.2044   -0.2975    0.0000 C   0  0  1  0  0  0  0  0  0  0  0  0
    8.2044    0.7108    0.0000 C   0  0  0  0  0  0  0  0  0  0  0  0
    6.3301    1.2066    0.0000 C   0  0  0  0  0  0  0  0  0  0  0  0
    5.4641    0.7066    0.0000 C   0  0  0  0  0  0  0  0  0  0  0  0
    5.4641   -0.2934    0.0000 C   0  0  0  0  0  0  0  0  0  0  0  0
    4.5981    1.2066    0.0000 C   0  0  0  0  0  0  0  0  0  0  0  0
    9.8765   -0.7492    0.0000 C   0  0  0  0  0  0  0  0  0  0  0  0
    6.3301    2.2066    0.0000 C   0  0  0  0  0  0  0  0  0  0  0  0
   10.5822   -1.4578    0.0000 C   0  0  0  0  0  0  0  0  0  0  0  0
   11.5486   -1.2010    0.0000 C   0  0  0  0  0  0  0  0  0  0  0  0
   12.2543   -1.9095    0.0000 C   0  0  0  0  0  0  0  0  0  0  0  0
    2.8660    1.2066    0.0000 C   0  0  0  0  0  0  0  0  0  0  0  0
   13.2208   -1.6527    0.0000 C   0  0  0  0  0  0  0  0  0  0  0  0
    2.0000    0.7066    0.0000 C   0  0  0  0  0  0  0  0  0  0  0  0
   13.9264   -2.3612    0.0000 C   0  0  0  0  0  0  0  0  0  0  0  0
    7.4145   -1.1148    0.0000 H   0  0  0  0  0  0  0  0  0  0  0  0
    7.9654   -0.8696    0.0000 H   0  0  0  0  0  0  0  0  0  0  0  0
    8.7484   -1.6046    0.0000 H   0  0  0  0  0  0  0  0  0  0  0  0
    4.8535   -0.1857    0.0000 H   0  0  0  0  0  0  0  0  0  0  0  0
    5.2520   -0.8760    0.0000 H   0  0  0  0  0  0  0  0  0  0  0  0
    4.9966    1.6816    0.0000 H   0  0  0  0  0  0  0  0  0  0  0  0
    4.1996    1.6816    0.0000 H   0  0  0  0  0  0  0  0  0  0  0  0
   10.0736   -1.8124    0.0000 H   0  0  0  0  0  0  0  0  0  0  0  0
   10.8431   -2.0202    0.0000 H   0  0  0  0  0  0  0  0  0  0  0  0
   12.0573   -0.8464    0.0000 H   0  0  0  0  0  0  0  0  0  0  0  0
   11.2878   -0.6385    0.0000 H   0  0  0  0  0  0  0  0  0  0  0  0
   11.7457   -2.2641    0.0000 H   0  0  0  0  0  0  0  0  0  0  0  0
   12.5152   -2.4720    0.0000 H   0  0  0  0  0  0  0  0  0  0  0  0
    5.4641    3.3266    0.0000 H   0  0  0  0  0  0  0  0  0  0  0  0
    1.6900    1.2436    0.0000 H   0  0  0  0  0  0  0  0  0  0  0  0
    1.4631    0.3966    0.0000 H   0  0  0  0  0  0  0  0  0  0  0  0
    2.3100    0.1697    0.0000 H   0  0  0  0  0  0  0  0  0  0  0  0
   15.3304   -2.5437    0.0000 H   0  0  0  0  0  0  0  0  0  0  0  0
  1 13  1  0  0  0  0
  1 18  1  0  0  0  0
  2 15  2  0  0  0  0
  3 19  1  0  0  0  0
  3 25  1  0  0  0  0
  4 21  1  0  0  0  0
  4 42  1  0  0  0  0
  5 20  2  0  0  0  0
  6 21  2  0  0  0  0
  7 25  2  0  0  0  0
  8 26  2  0  0  0  0
  9 28  1  0  0  0  0
  9 46  1  0  0  0  0
 10 28  2  0  0  0  0
 11 13  1  0  0  0  0
 11 15  1  0  0  0  0
 11 16  1  0  0  0  0
 14 12  1  1  0  0  0
 12 20  1  0  0  0  0
 12 31  1  0  0  0  0
 13 14  1  0  0  0  0
 13 29  1  6  0  0  0
 14 15  1  0  0  0  0
 14 30  1  0  0  0  0
 16 17  2  0  0  0  0
 16 21  1  0  0  0  0
 17 18  1  0  0  0  0
 17 19  1  0  0  0  0
 18 32  1  0  0  0  0
 18 33  1  0  0  0  0
 19 34  1  0  0  0  0
 19 35  1  0  0  0  0
 20 22  1  0  0  0  0
 22 23  1  0  0  0  0
 22 36  1  0  0  0  0
 22 37  1  0  0  0  0
 23 24  1  0  0  0  0
 23 38  1  0  0  0  0
 23 39  1  0  0  0  0
 24 26  1  0  0  0  0
 24 40  1  0  0  0  0
 24 41  1  0  0  0  0
 25 27  1  0  0  0  0
 26 28  1  0  0  0  0
 27 43  1  0  0  0  0
 27 44  1  0  0  0  0
 27 45  1  0  0  0  0
M  END
> <PUBCHEM_COMPOUND_CID>
440452

> <PUBCHEM_COMPOUND_CANONICALIZED>
1

> <PUBCHEM_CACTVS_COMPLEXITY>
776

> <PUBCHEM_CACTVS_HBOND_ACCEPTOR>
10

> <PUBCHEM_CACTVS_HBOND_DONOR>
3

> <PUBCHEM_CACTVS_ROTATABLE_BOND>
10

> <PUBCHEM_CACTVS_SUBSKEYS>
AAADceB7PABAAAAAAAAAAAAAAABYAAAAAAAgAAAAAAAQAAAAAAAAHgQQCAAADCzlwAaCCAPABgiIAoXQWAIAAABAABAACIHIAEACRBogoCAWUAAEFgCwMQGYSwAgAAAAAAAAAAAAAAAAAAAAAAAAAAAAAA==

> <PUBCHEM_IUPAC_OPENEYE_NAME>
(6R,7R)-3-(acetoxymethyl)-7-[(5-carboxy-5-oxo-pentanoyl)amino]-8-oxo-5-thia-1-azabicyclo[4.2.0]oct-2-ene-2-carboxylic acid

> <PUBCHEM_IUPAC_CAS_NAME>
(6R,7R)-3-(acetyloxymethyl)-7-[(5-carboxy-1,5-dioxopentyl)amino]-8-oxo-5-thia-1-azabicyclo[4.2.0]oct-2-ene-2-carboxylic acid

> <PUBCHEM_IUPAC_NAME>
(6R,7R)-3-(acetyloxymethyl)-7-[(5-carboxy-5-oxopentanoyl)amino]-8-oxo-5-thia-1-azabicyclo[4.2.0]oct-2-ene-2-carboxylic acid

> <PUBCHEM_IUPAC_SYSTEMATIC_NAME>
(6R,7R)-3-(acetyloxymethyl)-7-[[6-oxidanyl-5,6-bis(oxidanylidene)hexanoyl]amino]-8-oxidanylidene-5-thia-1-azabicyclo[4.2.0]oct-2-ene-2-carboxylic acid

> <PUBCHEM_IUPAC_TRADITIONAL_NAME>
(6R,7R)-3-(acetoxymethyl)-7-[(5-carboxy-5-keto-pentanoyl)amino]-8-keto-5-thia-1-azabicyclo[4.2.0]oct-2-ene-2-carboxylic acid

> <PUBCHEM_IUPAC_INCHI>
InChI=1S/C16H18N2O9S/c1-7(19)27-5-8-6-28-14-11(13(22)18(14)12(8)16(25)26)17-10(21)4-2-3-9(20)15(23)24/h11,14H,2-6H2,1H3,(H,17,21)(H,23,24)(H,25,26)/t11-,14-/m1/s1

> <PUBCHEM_IUPAC_INCHIKEY>
UKRMDFPJXIVYCZ-BXUZGUMPSA-N

> <PUBCHEM_XLOGP3>
-1.8

> <PUBCHEM_EXACT_MASS>
414.073301

> <PUBCHEM_MOLECULAR_FORMULA>
C16H18N2O9S

> <PUBCHEM_MOLECULAR_WEIGHT>
414.38712

> <PUBCHEM_OPENEYE_CAN_SMILES>
CC(=O)OCC1=C(N2C(C(C2=O)NC(=O)CCCC(=O)C(=O)O)SC1)C(=O)O

> <PUBCHEM_OPENEYE_ISO_SMILES>
CC(=O)OCC1=C(N2[C@@H]([C@@H](C2=O)NC(=O)CCCC(=O)C(=O)O)SC1)C(=O)O

> <PUBCHEM_CACTVS_TPSA>
193

> <PUBCHEM_MONOISOTOPIC_WEIGHT>
414.073301

> <PUBCHEM_TOTAL_CHARGE>
0

> <PUBCHEM_HEAVY_ATOM_COUNT>
28

> <PUBCHEM_ATOM_DEF_STEREO_COUNT>
2

> <PUBCHEM_ATOM_UDEF_STEREO_COUNT>
0

> <PUBCHEM_BOND_DEF_STEREO_COUNT>
0

> <PUBCHEM_BOND_UDEF_STEREO_COUNT>
0

> <PUBCHEM_ISOTOPIC_ATOM_COUNT>
0

> <PUBCHEM_COMPONENT_COUNT>
1

> <PUBCHEM_CACTVS_TAUTO_COUNT>
8

> <PUBCHEM_COORDINATE_TYPE>
1
5
255

> <PUBCHEM_BONDANNOTATIONS>
14  12  5
13  29  6

$$$$

