   Color/Form

     * White coarse powder
     * White flakes

   from [1]HSDB

   Odor

     * Faint pungent, soapy odor
     * Faint odor

   from [2]HSDB

   Taste
        Tasteless
   from [3]HSDB

   Boiling Point
        BOILING POINT: DECOMPOSES
   from [4]HSDB

   Melting Point
        49 deg C
   from [5]HSDB

   Density/Specific Gravity
        0.91 @ 25 DEG C (SOLID)
   from [6]HSDB

   Solubilities

     * Insol in water; slightly sol in alc
     * Sol in oils and most organic solvents

   from [7]HSDB

   Spectral Properties
        SADTLER REF NUMBER: 334 (IR, PRISM); 9994 (IR, GRATING); 3845
   (NMR)
   from [8]HSDB

   Other Chemical/Physical Properties

     * PHYSICAL STATE @ 15 DEG C & 1 ATM: SOLID
     * Decomposes on heating with release of oxygen; half-life is 10 hours
       at 62 deg C

   from [9]HSDB

   Computed Properties
   Molecular Weight                  398.61964 [g/mol]
   Molecular Formula                 C[24]H[46]O[4]
   XLogP3-AA                         10.5
   H-Bond Donor                      0
   H-Bond Acceptor                   4
   Rotatable Bond Count              23
   Exact Mass                        398.33961
   MonoIsotopic Mass                 398.33961
   Topological Polar Surface Area    52.6
   Heavy Atom Count                  28
   Formal Charge                     0
   Complexity                        321
   Isotope Atom Count                0
   Defined Atom Stereocenter Count   0
   Undefined Atom Stereocenter Count 0
   Defined Bond Stereocenter Count   0
   Undefined Bond Stereocenter Count 0
   Covalently-Bonded Unit Count      1

References

   1. http://toxnet.nlm.nih.gov/cgi-bin/sis/search/r?dbs+hsdb:@term+@rn+@rel+105-74-8
   2. http://toxnet.nlm.nih.gov/cgi-bin/sis/search/r?dbs+hsdb:@term+@rn+@rel+105-74-8
   3. http://toxnet.nlm.nih.gov/cgi-bin/sis/search/r?dbs+hsdb:@term+@rn+@rel+105-74-8
   4. http://toxnet.nlm.nih.gov/cgi-bin/sis/search/r?dbs+hsdb:@term+@rn+@rel+105-74-8
   5. http://toxnet.nlm.nih.gov/cgi-bin/sis/search/r?dbs+hsdb:@term+@rn+@rel+105-74-8
   6. http://toxnet.nlm.nih.gov/cgi-bin/sis/search/r?dbs+hsdb:@term+@rn+@rel+105-74-8
   7. http://toxnet.nlm.nih.gov/cgi-bin/sis/search/r?dbs+hsdb:@term+@rn+@rel+105-74-8
   8. http://toxnet.nlm.nih.gov/cgi-bin/sis/search/r?dbs+hsdb:@term+@rn+@rel+105-74-8
   9. http://toxnet.nlm.nih.gov/cgi-bin/sis/search/r?dbs+hsdb:@term+@rn+@rel+105-74-8
