5281817
  -OEChem-07051212592D

 48 50  0     1  0  0  0  0  0999 V2000
    6.3660    0.5000    0.0000 O   0  0  0  0  0  0  0  0  0  0  0  0
    5.5000   -1.7320    0.0000 O   0  0  0  0  0  0  0  0  0  0  0  0
    2.5000    0.0000    0.0000 O   0  0  0  0  0  0  0  0  0  0  0  0
   10.7763   -0.1953    0.0000 O   0  0  0  0  0  0  0  0  0  0  0  0
   10.7763   -1.8047    0.0000 O   0  0  0  0  0  0  0  0  0  0  0  0
    5.5000    0.0000    0.0000 C   0  0  3  0  0  0  0  0  0  0  0  0
    6.3660   -0.5000    0.0000 C   0  0  0  0  0  0  0  0  0  0  0  0
    5.0000    0.8660    0.0000 C   0  0  0  0  0  0  0  0  0  0  0  0
    5.0000   -0.8660    0.0000 C   0  0  0  0  0  0  0  0  0  0  0  0
    4.0000    0.8660    0.0000 C   0  0  0  0  0  0  0  0  0  0  0  0
    4.0000   -0.8660    0.0000 C   0  0  0  0  0  0  0  0  0  0  0  0
    7.2320    0.0000    0.0000 C   0  0  0  0  0  0  0  0  0  0  0  0
    3.5000    0.0000    0.0000 C   0  0  0  0  0  0  0  0  0  0  0  0
    6.3660   -1.5000    0.0000 C   0  0  0  0  0  0  0  0  0  0  0  0
    3.5000    1.7320    0.0000 C   0  0  0  0  0  0  0  0  0  0  0  0
    8.0981   -0.5000    0.0000 C   0  0  0  0  0  0  0  0  0  0  0  0
    8.9641    0.0000    0.0000 C   0  0  0  0  0  0  0  0  0  0  0  0
    6.3660    1.5000    0.0000 C   0  0  0  0  0  0  0  0  0  0  0  0
    8.0981   -1.5000    0.0000 C   0  0  0  0  0  0  0  0  0  0  0  0
    9.8301   -0.5000    0.0000 C   0  0  0  0  0  0  0  0  0  0  0  0
    9.8301   -1.5000    0.0000 C   0  0  0  0  0  0  0  0  0  0  0  0
    2.5000    1.7320    0.0000 C   0  0  0  0  0  0  0  0  0  0  0  0
    8.9641   -2.0000    0.0000 C   0  0  0  0  0  0  0  0  0  0  0  0
    5.0000   -2.5981    0.0000 C   0  0  0  0  0  0  0  0  0  0  0  0
   11.3600   -1.0000    0.0000 C   0  0  0  0  0  0  0  0  0  0  0  0
    2.0000    2.5981    0.0000 C   0  0  0  0  0  0  0  0  0  0  0  0
    5.3100    1.4030    0.0000 H   0  0  0  0  0  0  0  0  0  0  0  0
    3.6900   -1.4030    0.0000 H   0  0  0  0  0  0  0  0  0  0  0  0
    7.2320    0.6200    0.0000 H   0  0  0  0  0  0  0  0  0  0  0  0
    5.7460   -1.5000    0.0000 H   0  0  0  0  0  0  0  0  0  0  0  0
    6.3660   -2.1200    0.0000 H   0  0  0  0  0  0  0  0  0  0  0  0
    6.9860   -1.5000    0.0000 H   0  0  0  0  0  0  0  0  0  0  0  0
    4.0826    1.9441    0.0000 H   0  0  0  0  0  0  0  0  0  0  0  0
    3.3923    2.3426    0.0000 H   0  0  0  0  0  0  0  0  0  0  0  0
    8.9641    0.6200    0.0000 H   0  0  0  0  0  0  0  0  0  0  0  0
    6.9860    1.5000    0.0000 H   0  0  0  0  0  0  0  0  0  0  0  0
    6.3660    2.1200    0.0000 H   0  0  0  0  0  0  0  0  0  0  0  0
    5.7460    1.5000    0.0000 H   0  0  0  0  0  0  0  0  0  0  0  0
    7.5611   -1.8100    0.0000 H   0  0  0  0  0  0  0  0  0  0  0  0
    2.1900    1.1951    0.0000 H   0  0  0  0  0  0  0  0  0  0  0  0
    8.9641   -2.6200    0.0000 H   0  0  0  0  0  0  0  0  0  0  0  0
    4.4631   -2.2881    0.0000 H   0  0  0  0  0  0  0  0  0  0  0  0
    4.6900   -3.1350    0.0000 H   0  0  0  0  0  0  0  0  0  0  0  0
    5.5369   -2.9081    0.0000 H   0  0  0  0  0  0  0  0  0  0  0  0
   11.8208   -1.4147    0.0000 H   0  0  0  0  0  0  0  0  0  0  0  0
   11.8208   -0.5853    0.0000 H   0  0  0  0  0  0  0  0  0  0  0  0
    2.3100    3.1350    0.0000 H   0  0  0  0  0  0  0  0  0  0  0  0
    1.3800    2.5981    0.0000 H   0  0  0  0  0  0  0  0  0  0  0  0
  1  6  1  0  0  0  0
  1 18  1  0  0  0  0
  2  9  1  0  0  0  0
  2 24  1  0  0  0  0
  3 13  2  0  0  0  0
  4 20  1  0  0  0  0
  4 25  1  0  0  0  0
  5 21  1  0  0  0  0
  5 25  1  0  0  0  0
  6  7  1  0  0  0  0
  6  8  1  0  0  0  0
  6  9  1  0  0  0  0
  7 12  2  0  0  0  0
  7 14  1  0  0  0  0
  8 10  2  0  0  0  0
  8 27  1  0  0  0  0
  9 11  2  0  0  0  0
 10 13  1  0  0  0  0
 10 15  1  0  0  0  0
 11 13  1  0  0  0  0
 11 28  1  0  0  0  0
 12 16  1  0  0  0  0
 12 29  1  0  0  0  0
 14 30  1  0  0  0  0
 14 31  1  0  0  0  0
 14 32  1  0  0  0  0
 15 22  1  0  0  0  0
 15 33  1  0  0  0  0
 15 34  1  0  0  0  0
 16 17  2  0  0  0  0
 16 19  1  0  0  0  0
 17 20  1  0  0  0  0
 17 35  1  0  0  0  0
 18 36  1  0  0  0  0
 18 37  1  0  0  0  0
 18 38  1  0  0  0  0
 19 23  2  0  0  0  0
 19 39  1  0  0  0  0
 20 21  2  0  0  0  0
 21 23  1  0  0  0  0
 22 26  2  0  0  0  0
 22 40  1  0  0  0  0
 23 41  1  0  0  0  0
 24 42  1  0  0  0  0
 24 43  1  0  0  0  0
 24 44  1  0  0  0  0
 25 45  1  0  0  0  0
 25 46  1  0  0  0  0
 26 47  1  0  0  0  0
 26 48  1  0  0  0  0
M  END
> <PUBCHEM_COMPOUND_CID>
5281817

> <PUBCHEM_COMPOUND_CANONICALIZED>
1

> <PUBCHEM_CACTVS_COMPLEXITY>
659

> <PUBCHEM_CACTVS_HBOND_ACCEPTOR>
5

> <PUBCHEM_CACTVS_HBOND_DONOR>
0

> <PUBCHEM_CACTVS_ROTATABLE_BOND>
6

> <PUBCHEM_CACTVS_SUBSKEYS>
AAADceB4OAAAAAAAAAAAAAAAAAAAASAAAAAwQAAAAAAAAEgBAAAAGgAAAAAADESAmAMyDoAABACIAqBSAAACCAAgIAAIiAEGiMgdJjKEMRqgMCIkwBEOqYeAwBAOIAABAAAAQABAAAIAAACAAAAAAAAAAA==

> <PUBCHEM_IUPAC_OPENEYE_NAME>
2-allyl-4-[(E)-2-(1,3-benzodioxol-5-yl)-1-methyl-vinyl]-4,5-dimethoxy-cyclohexa-2,5-dien-1-one

> <PUBCHEM_IUPAC_CAS_NAME>
4-[(E)-1-(1,3-benzodioxol-5-yl)prop-1-en-2-yl]-4,5-dimethoxy-2-prop-2-enyl-1-cyclohexa-2,5-dienone

> <PUBCHEM_IUPAC_NAME>
4-[(E)-1-(1,3-benzodioxol-5-yl)prop-1-en-2-yl]-4,5-dimethoxy-2-prop-2-enylcyclohexa-2,5-dien-1-one

> <PUBCHEM_IUPAC_SYSTEMATIC_NAME>
4-[(E)-1-(1,3-benzodioxol-5-yl)prop-1-en-2-yl]-4,5-dimethoxy-2-prop-2-enyl-cyclohexa-2,5-dien-1-one

> <PUBCHEM_IUPAC_TRADITIONAL_NAME>
2-allyl-4-[(E)-2-(1,3-benzodioxol-5-yl)-1-methyl-vinyl]-4,5-dimethoxy-cyclohexa-2,5-dien-1-one

> <PUBCHEM_IUPAC_INCHI>
InChI=1S/C21H22O5/c1-5-6-16-12-21(24-4,20(23-3)11-17(16)22)14(2)9-15-7-8-18-19(10-15)26-13-25-18/h5,7-12H,1,6,13H2,2-4H3/b14-9+

> <PUBCHEM_IUPAC_INCHIKEY>
AOZTYYBGNNXAOI-NTEUORMPSA-N

> <PUBCHEM_XLOGP3_AA>
3.9

> <PUBCHEM_EXACT_MASS>
354.146724

> <PUBCHEM_MOLECULAR_FORMULA>
C21H22O5

> <PUBCHEM_MOLECULAR_WEIGHT>
354.39638

> <PUBCHEM_OPENEYE_CAN_SMILES>
CC(=CC1=CC2=C(C=C1)OCO2)C3(C=C(C(=O)C=C3OC)CC=C)OC

> <PUBCHEM_OPENEYE_ISO_SMILES>
C/C(=C\C1=CC2=C(C=C1)OCO2)/C3(C=C(C(=O)C=C3OC)CC=C)OC

> <PUBCHEM_CACTVS_TPSA>
54

> <PUBCHEM_MONOISOTOPIC_WEIGHT>
354.146724

> <PUBCHEM_TOTAL_CHARGE>
0

> <PUBCHEM_HEAVY_ATOM_COUNT>
26

> <PUBCHEM_ATOM_DEF_STEREO_COUNT>
0

> <PUBCHEM_ATOM_UDEF_STEREO_COUNT>
1

> <PUBCHEM_BOND_DEF_STEREO_COUNT>
1

> <PUBCHEM_BOND_UDEF_STEREO_COUNT>
0

> <PUBCHEM_ISOTOPIC_ATOM_COUNT>
0

> <PUBCHEM_COMPONENT_COUNT>
1

> <PUBCHEM_CACTVS_TAUTO_COUNT>
1

> <PUBCHEM_COORDINATE_TYPE>
1
5
255

> <PUBCHEM_BONDANNOTATIONS>
16  17  8
16  19  8
17  20  8
19  23  8
20  21  8
21  23  8
6  7  3

$$$$

