443435
  -OEChem-07051213022D

 26 26  0     1  0  0  0  0  0999 V2000
    3.2601   -2.9244    0.0000 O   0  0  0  0  0  0  0  0  0  0  0  0
    2.0000   -1.6644    0.0000 O   0  0  0  0  0  0  0  0  0  0  0  0
    5.4921    2.6144    0.0000 O   0  0  0  0  0  0  0  0  0  0  0  0
    5.4921   -0.3856    0.0000 O   0  0  0  0  0  0  0  0  0  0  0  0
    3.7601   -0.3856    0.0000 N   0  0  0  0  0  0  0  0  0  0  0  0
    3.7601   -1.3856    0.0000 C   0  0  3  0  0  0  0  0  0  0  0  0
    4.5691   -1.9734    0.0000 C   0  0  0  0  0  0  0  0  0  0  0  0
    4.2601   -2.9244    0.0000 C   0  0  0  0  0  0  0  0  0  0  0  0
    2.9511   -1.9734    0.0000 C   0  0  0  0  0  0  0  0  0  0  0  0
    4.6261    1.1144    0.0000 C   0  0  0  0  0  0  0  0  0  0  0  0
    4.6261    0.1144    0.0000 C   0  0  0  0  0  0  0  0  0  0  0  0
    5.4921    1.6144    0.0000 C   0  0  2  0  0  0  0  0  0  0  0  0
    6.3582    1.1144    0.0000 C   0  0  0  0  0  0  0  0  0  0  0  0
    4.5174   -0.9997    0.0000 H   0  0  0  0  0  0  0  0  0  0  0  0
    5.1355   -2.2255    0.0000 H   0  0  0  0  0  0  0  0  0  0  0  0
    4.8791   -1.4364    0.0000 H   0  0  0  0  0  0  0  0  0  0  0  0
    4.1953   -3.5410    0.0000 H   0  0  0  0  0  0  0  0  0  0  0  0
    4.8665   -3.0533    0.0000 H   0  0  0  0  0  0  0  0  0  0  0  0
    3.2231   -0.0756    0.0000 H   0  0  0  0  0  0  0  0  0  0  0  0
    4.4140    1.6970    0.0000 H   0  0  0  0  0  0  0  0  0  0  0  0
    4.0155    1.0068    0.0000 H   0  0  0  0  0  0  0  0  0  0  0  0
    4.9552    1.9244    0.0000 H   0  0  0  0  0  0  0  0  0  0  0  0
    6.0482    0.5775    0.0000 H   0  0  0  0  0  0  0  0  0  0  0  0
    6.8951    0.8044    0.0000 H   0  0  0  0  0  0  0  0  0  0  0  0
    6.6682    1.6514    0.0000 H   0  0  0  0  0  0  0  0  0  0  0  0
    6.0291    2.9244    0.0000 H   0  0  0  0  0  0  0  0  0  0  0  0
  1  8  1  0  0  0  0
  1  9  1  0  0  0  0
  2  9  2  0  0  0  0
 12  3  1  1  0  0  0
  3 26  1  0  0  0  0
  4 11  2  0  0  0  0
  5  6  1  0  0  0  0
  5 11  1  0  0  0  0
  5 19  1  0  0  0  0
  6  7  1  0  0  0  0
  6  9  1  0  0  0  0
  6 14  1  0  0  0  0
  7  8  1  0  0  0  0
  7 15  1  0  0  0  0
  7 16  1  0  0  0  0
  8 17  1  0  0  0  0
  8 18  1  0  0  0  0
 10 11  1  0  0  0  0
 10 12  1  0  0  0  0
 10 20  1  0  0  0  0
 10 21  1  0  0  0  0
 12 13  1  0  0  0  0
 12 22  1  0  0  0  0
 13 23  1  0  0  0  0
 13 24  1  0  0  0  0
 13 25  1  0  0  0  0
M  END
> <PUBCHEM_COMPOUND_CID>
443435

> <PUBCHEM_COMPOUND_CANONICALIZED>
1

> <PUBCHEM_CACTVS_COMPLEXITY>
216

> <PUBCHEM_CACTVS_HBOND_ACCEPTOR>
4

> <PUBCHEM_CACTVS_HBOND_DONOR>
2

> <PUBCHEM_CACTVS_ROTATABLE_BOND>
3

> <PUBCHEM_CACTVS_SUBSKEYS>
AAADccByOAAAAAAAAAAAAAAAAAAAASAAAAAAAAAAAAAAAAAAAAAAHgAQCAAACDzhgAYCCALABgAIAAGQGAAAAAAAAAAAAIGIAAACEBQAgCAHQAAGNgCQAAACAAAAAAAAAAAAAAAAAAAAAAAAAAAAAAAAAA==

> <PUBCHEM_IUPAC_OPENEYE_NAME>
(3S)-3-hydroxy-N-(2-oxotetrahydrofuran-3-yl)butanamide

> <PUBCHEM_IUPAC_CAS_NAME>
(3S)-3-hydroxy-N-(2-oxo-3-oxolanyl)butanamide

> <PUBCHEM_IUPAC_NAME>
(3S)-3-hydroxy-N-(2-oxooxolan-3-yl)butanamide

> <PUBCHEM_IUPAC_SYSTEMATIC_NAME>
(3S)-3-oxidanyl-N-(2-oxidanylideneoxolan-3-yl)butanamide

> <PUBCHEM_IUPAC_TRADITIONAL_NAME>
(3S)-3-hydroxy-N-(2-ketotetrahydrofuran-3-yl)butyramide

> <PUBCHEM_IUPAC_INCHI>
InChI=1S/C8H13NO4/c1-5(10)4-7(11)9-6-2-3-13-8(6)12/h5-6,10H,2-4H2,1H3,(H,9,11)/t5-,6?/m0/s1

> <PUBCHEM_IUPAC_INCHIKEY>
FIXDIFPJOFIIEC-ZBHICJROSA-N

> <PUBCHEM_XLOGP3_AA>
-0.1

> <PUBCHEM_EXACT_MASS>
187.084458

> <PUBCHEM_MOLECULAR_FORMULA>
C8H13NO4

> <PUBCHEM_MOLECULAR_WEIGHT>
187.19312

> <PUBCHEM_OPENEYE_CAN_SMILES>
CC(CC(=O)NC1CCOC1=O)O

> <PUBCHEM_OPENEYE_ISO_SMILES>
C[C@@H](CC(=O)NC1CCOC1=O)O

> <PUBCHEM_CACTVS_TPSA>
75.6

> <PUBCHEM_MONOISOTOPIC_WEIGHT>
187.084458

> <PUBCHEM_TOTAL_CHARGE>
0

> <PUBCHEM_HEAVY_ATOM_COUNT>
13

> <PUBCHEM_ATOM_DEF_STEREO_COUNT>
1

> <PUBCHEM_ATOM_UDEF_STEREO_COUNT>
1

> <PUBCHEM_BOND_DEF_STEREO_COUNT>
0

> <PUBCHEM_BOND_UDEF_STEREO_COUNT>
0

> <PUBCHEM_ISOTOPIC_ATOM_COUNT>
0

> <PUBCHEM_COMPONENT_COUNT>
1

> <PUBCHEM_CACTVS_TAUTO_COUNT>
4

> <PUBCHEM_COORDINATE_TYPE>
1
5
255

> <PUBCHEM_BONDANNOTATIONS>
12  3  5
6  14  3

$$$$

