   Color/Form
        Crystals
   from [1]HSDB

   Melting Point
        64 deg C (decomposes)
   from [2]HSDB

   Octanol/Water Partition Coefficient
        log Kow = 3.30
   from [3]HSDB

   Solubilities
        In water, 38 mg/L at 25 deg C (est)
   from [4]HSDB

   Vapor Pressure
        5.61X10-6 mm Hg at 25 deg C (est)
   from [5]HSDB

   Other Chemical/Physical Properties

     * Henry's Law constant = 2.5X10-10 atm-cu m/mol at 25 deg C (est)
     * Hydroxyl radical reaction rate constant = 2.4X10-11 cu
       cm/molecule-sec at 25 deg C (est)

   from [6]HSDB

   Computed Properties
   Molecular Weight                  247.72182 [g/mol]
   Molecular Formula                 C[10]H[18]ClN[3]O[2]
   XLogP3                            3.3
   H-Bond Donor                      1
   H-Bond Acceptor                   3
   Rotatable Bond Count              3
   Tautomer Count                    2
   Exact Mass                        247.108755
   MonoIsotopic Mass                 247.108755
   Topological Polar Surface Area    61.8
   Heavy Atom Count                  16
   Formal Charge                     0
   Complexity                        242
   Isotope Atom Count                0
   Defined Atom Stereocenter Count   0
   Undefined Atom Stereocenter Count 0
   Defined Bond Stereocenter Count   0
   Undefined Bond Stereocenter Count 0
   Covalently-Bonded Unit Count      1
   Feature 3D Acceptor Count         1
   Feature 3D Donor Count            1
   Feature 3D Ring Count             1
   Effective Rotor Count             7.2
   Conformer Sampling RMSD           0.8
   CID Conformer Count               [7]95

References

   1. http://toxnet.nlm.nih.gov/cgi-bin/sis/search/r?dbs+hsdb:@term+@rn+@rel+13909-09-6
   2. http://toxnet.nlm.nih.gov/cgi-bin/sis/search/r?dbs+hsdb:@term+@rn+@rel+13909-09-6
   3. http://toxnet.nlm.nih.gov/cgi-bin/sis/search/r?dbs+hsdb:@term+@rn+@rel+13909-09-6
   4. http://toxnet.nlm.nih.gov/cgi-bin/sis/search/r?dbs+hsdb:@term+@rn+@rel+13909-09-6
   5. http://toxnet.nlm.nih.gov/cgi-bin/sis/search/r?dbs+hsdb:@term+@rn+@rel+13909-09-6
   6. http://toxnet.nlm.nih.gov/cgi-bin/sis/search/r?dbs+hsdb:@term+@rn+@rel+13909-09-6
   7. http://pubchem.ncbi.nlm.nih.gov/vw3d/vw3d.cgi?cid=5198
