442901
  -OEChem-07051213002D

 68 69  0     1  0  0  0  0  0999 V2000
    6.3301   -1.2141    0.0000 O   0  0  0  0  0  0  0  0  0  0  0  0
    2.8660   -1.2141    0.0000 O   0  0  0  0  0  0  0  0  0  0  0  0
    4.5981   -4.2141    0.0000 O   0  0  0  0  0  0  0  0  0  0  0  0
    6.0981    1.3840    0.0000 O   0  0  0  0  0  0  0  0  0  0  0  0
    3.0981   -0.3481    0.0000 O   0  0  0  0  0  0  0  0  0  0  0  0
    2.0000   -2.7141    0.0000 O   0  0  0  0  0  0  0  0  0  0  0  0
    3.0981    3.1160    0.0000 O   0  0  0  0  0  0  0  0  0  0  0  0
    6.0981    3.1160    0.0000 O   0  0  0  0  0  0  0  0  0  0  0  0
    4.5981   -1.2141    0.0000 C   0  0  1  0  0  0  0  0  0  0  0  0
    5.0981   -0.3481    0.0000 C   0  0  0  0  0  0  0  0  0  0  0  0
    5.4641   -1.7141    0.0000 C   0  0  0  0  0  0  0  0  0  0  0  0
    3.7320   -1.7141    0.0000 C   0  0  0  0  0  0  0  0  0  0  0  0
    4.0981   -0.3481    0.0000 C   0  0  0  0  0  0  0  0  0  0  0  0
    4.5981    0.5179    0.0000 C   0  0  0  0  0  0  0  0  0  0  0  0
    3.7320   -2.7141    0.0000 C   0  0  0  0  0  0  0  0  0  0  0  0
    5.4641   -2.7141    0.0000 C   0  0  0  0  0  0  0  0  0  0  0  0
    4.5981   -3.2141    0.0000 C   0  0  0  0  0  0  0  0  0  0  0  0
    2.8660   -3.2141    0.0000 C   0  0  0  0  0  0  0  0  0  0  0  0
    2.8660   -4.2141    0.0000 C   0  0  1  0  0  0  0  0  0  0  0  0
    5.0981    1.3840    0.0000 C   0  0  0  0  0  0  0  0  0  0  0  0
    3.5981    0.5179    0.0000 C   0  0  0  0  0  0  0  0  0  0  0  0
    6.3301   -3.2141    0.0000 C   0  0  0  0  0  0  0  0  0  0  0  0
    4.5981    2.2500    0.0000 C   0  0  0  0  0  0  0  0  0  0  0  0
    3.0981    1.3840    0.0000 C   0  0  0  0  0  0  0  0  0  0  0  0
    2.0000   -4.7141    0.0000 C   0  0  0  0  0  0  0  0  0  0  0  0
    3.5981    2.2500    0.0000 C   0  0  0  0  0  0  0  0  0  0  0  0
    3.7320   -4.7141    0.0000 C   0  0  0  0  0  0  0  0  0  0  0  0
    5.0981    3.1160    0.0000 C   0  0  0  0  0  0  0  0  0  0  0  0
    2.0981    1.3840    0.0000 C   0  0  0  0  0  0  0  0  0  0  0  0
    2.0000   -5.7141    0.0000 C   0  0  0  0  0  0  0  0  0  0  0  0
    4.5981    3.9820    0.0000 C   0  0  0  0  0  0  0  0  0  0  0  0
    5.0981    4.8481    0.0000 C   0  0  0  0  0  0  0  0  0  0  0  0
    2.0981    3.1160    0.0000 C   0  0  0  0  0  0  0  0  0  0  0  0
    4.5981    5.7141    0.0000 C   0  0  0  0  0  0  0  0  0  0  0  0
    5.5730   -0.7466    0.0000 H   0  0  0  0  0  0  0  0  0  0  0  0
    5.5730    0.0505    0.0000 H   0  0  0  0  0  0  0  0  0  0  0  0
    4.6350   -0.0381    0.0000 H   0  0  0  0  0  0  0  0  0  0  0  0
    3.7881    0.1889    0.0000 H   0  0  0  0  0  0  0  0  0  0  0  0
    3.5611   -0.6581    0.0000 H   0  0  0  0  0  0  0  0  0  0  0  0
    2.8660   -4.8341    0.0000 H   0  0  0  0  0  0  0  0  0  0  0  0
    6.0201   -3.7510    0.0000 H   0  0  0  0  0  0  0  0  0  0  0  0
    6.8671   -3.5241    0.0000 H   0  0  0  0  0  0  0  0  0  0  0  0
    6.6401   -2.6772    0.0000 H   0  0  0  0  0  0  0  0  0  0  0  0
    1.7880   -4.1315    0.0000 H   0  0  0  0  0  0  0  0  0  0  0  0
    1.3894   -4.8218    0.0000 H   0  0  0  0  0  0  0  0  0  0  0  0
    6.8671   -1.5241    0.0000 H   0  0  0  0  0  0  0  0  0  0  0  0
    3.4220   -5.2510    0.0000 H   0  0  0  0  0  0  0  0  0  0  0  0
    4.2690   -5.0241    0.0000 H   0  0  0  0  0  0  0  0  0  0  0  0
    4.0420   -4.1772    0.0000 H   0  0  0  0  0  0  0  0  0  0  0  0
    5.1350   -4.5241    0.0000 H   0  0  0  0  0  0  0  0  0  0  0  0
    2.0981    2.0040    0.0000 H   0  0  0  0  0  0  0  0  0  0  0  0
    1.4781    1.3840    0.0000 H   0  0  0  0  0  0  0  0  0  0  0  0
    2.0981    0.7640    0.0000 H   0  0  0  0  0  0  0  0  0  0  0  0
    1.3800   -5.7141    0.0000 H   0  0  0  0  0  0  0  0  0  0  0  0
    2.0000   -6.3341    0.0000 H   0  0  0  0  0  0  0  0  0  0  0  0
    2.6200   -5.7141    0.0000 H   0  0  0  0  0  0  0  0  0  0  0  0
    4.1231    4.3806    0.0000 H   0  0  0  0  0  0  0  0  0  0  0  0
    4.1231    3.5835    0.0000 H   0  0  0  0  0  0  0  0  0  0  0  0
    6.4081    1.9209    0.0000 H   0  0  0  0  0  0  0  0  0  0  0  0
    2.4781   -0.3481    0.0000 H   0  0  0  0  0  0  0  0  0  0  0  0
    5.5730    4.4496    0.0000 H   0  0  0  0  0  0  0  0  0  0  0  0
    5.5730    5.2466    0.0000 H   0  0  0  0  0  0  0  0  0  0  0  0
    2.0981    3.7360    0.0000 H   0  0  0  0  0  0  0  0  0  0  0  0
    1.4781    3.1160    0.0000 H   0  0  0  0  0  0  0  0  0  0  0  0
    2.0981    2.4960    0.0000 H   0  0  0  0  0  0  0  0  0  0  0  0
    5.1350    6.0241    0.0000 H   0  0  0  0  0  0  0  0  0  0  0  0
    4.2881    6.2510    0.0000 H   0  0  0  0  0  0  0  0  0  0  0  0
    4.0611    5.4041    0.0000 H   0  0  0  0  0  0  0  0  0  0  0  0
  1 11  1  0  0  0  0
  1 46  1  0  0  0  0
  2 12  2  0  0  0  0
  3 17  1  0  0  0  0
  3 50  1  0  0  0  0
  4 20  1  0  0  0  0
  4 59  1  0  0  0  0
  5 21  1  0  0  0  0
  5 60  1  0  0  0  0
  6 18  2  0  0  0  0
  7 26  1  0  0  0  0
  7 33  1  0  0  0  0
  8 28  2  0  0  0  0
  9 10  1  0  0  0  0
  9 11  1  0  0  0  0
  9 12  1  0  0  0  0
  9 13  1  6  0  0  0
 10 14  1  0  0  0  0
 10 35  1  0  0  0  0
 10 36  1  0  0  0  0
 11 16  2  0  0  0  0
 12 15  1  0  0  0  0
 13 37  1  0  0  0  0
 13 38  1  0  0  0  0
 13 39  1  0  0  0  0
 14 20  2  0  0  0  0
 14 21  1  0  0  0  0
 15 17  2  0  0  0  0
 15 18  1  0  0  0  0
 16 17  1  0  0  0  0
 16 22  1  0  0  0  0
 18 19  1  0  0  0  0
 19 25  1  0  0  0  0
 19 27  1  6  0  0  0
 19 40  1  0  0  0  0
 20 23  1  0  0  0  0
 21 24  2  0  0  0  0
 22 41  1  0  0  0  0
 22 42  1  0  0  0  0
 22 43  1  0  0  0  0
 23 26  2  0  0  0  0
 23 28  1  0  0  0  0
 24 26  1  0  0  0  0
 24 29  1  0  0  0  0
 25 30  1  0  0  0  0
 25 44  1  0  0  0  0
 25 45  1  0  0  0  0
 27 47  1  0  0  0  0
 27 48  1  0  0  0  0
 27 49  1  0  0  0  0
 28 31  1  0  0  0  0
 29 51  1  0  0  0  0
 29 52  1  0  0  0  0
 29 53  1  0  0  0  0
 30 54  1  0  0  0  0
 30 55  1  0  0  0  0
 30 56  1  0  0  0  0
 31 32  1  0  0  0  0
 31 57  1  0  0  0  0
 31 58  1  0  0  0  0
 32 34  1  0  0  0  0
 32 61  1  0  0  0  0
 32 62  1  0  0  0  0
 33 63  1  0  0  0  0
 33 64  1  0  0  0  0
 33 65  1  0  0  0  0
 34 66  1  0  0  0  0
 34 67  1  0  0  0  0
 34 68  1  0  0  0  0
M  END
> <PUBCHEM_COMPOUND_CID>
442901

> <PUBCHEM_COMPOUND_CANONICALIZED>
1

> <PUBCHEM_CACTVS_COMPLEXITY>
887

> <PUBCHEM_CACTVS_HBOND_ACCEPTOR>
8

> <PUBCHEM_CACTVS_HBOND_DONOR>
4

> <PUBCHEM_CACTVS_ROTATABLE_BOND>
9

> <PUBCHEM_CACTVS_SUBSKEYS>
AAADcfB4PAAAAAAAAAAAAAAAAAAAAAAAAAAwQAAAAAAAAAABAAAAGgAACAAADwSAmAICBoAABgCIAoBQAAACCAAkIAAAiAEECMgMJzaONBqAcWAl4BUIuQeI7OzPIAACCAAIAABAAAQQABAAAAAAAAAAAA==

> <PUBCHEM_IUPAC_OPENEYE_NAME>
(6S)-6-[(3-butanoyl-2,6-dihydroxy-4-methoxy-5-methyl-phenyl)methyl]-3,5-dihydroxy-4,6-dimethyl-2-[(2R)-2-methylbutanoyl]cyclohexa-2,4-dien-1-one

> <PUBCHEM_IUPAC_CAS_NAME>
(6S)-6-[[2,6-dihydroxy-4-methoxy-3-methyl-5-(1-oxobutyl)phenyl]methyl]-3,5-dihydroxy-4,6-dimethyl-2-[(2R)-2-methyl-1-oxobutyl]-1-cyclohexa-2,4-dienone

> <PUBCHEM_IUPAC_NAME>
(6S)-6-[(3-butanoyl-2,6-dihydroxy-4-methoxy-5-methylphenyl)methyl]-3,5-dihydroxy-4,6-dimethyl-2-[(2R)-2-methylbutanoyl]cyclohexa-2,4-dien-1-one

> <PUBCHEM_IUPAC_SYSTEMATIC_NAME>
(6S)-6-[[3-butanoyl-4-methoxy-5-methyl-2,6-bis(oxidanyl)phenyl]methyl]-4,6-dimethyl-2-[(2R)-2-methylbutanoyl]-3,5-bis(oxidanyl)cyclohexa-2,4-dien-1-one

> <PUBCHEM_IUPAC_TRADITIONAL_NAME>
(6S)-6-(3-butyryl-2,6-dihydroxy-4-methoxy-5-methyl-benzyl)-3,5-dihydroxy-4,6-dimethyl-2-[(2R)-2-methylbutanoyl]cyclohexa-2,4-dien-1-one

> <PUBCHEM_IUPAC_INCHI>
InChI=1S/C26H34O8/c1-8-10-16(27)17-22(31)15(20(29)13(4)23(17)34-7)11-26(6)24(32)14(5)21(30)18(25(26)33)19(28)12(3)9-2/h12,29-32H,8-11H2,1-7H3/t12-,26+/m1/s1

> <PUBCHEM_IUPAC_INCHIKEY>
NQGCBDWQKDAGTK-RYZVSIALSA-N

> <PUBCHEM_XLOGP3_AA>
4.6

> <PUBCHEM_EXACT_MASS>
474.225368

> <PUBCHEM_MOLECULAR_FORMULA>
C26H34O8

> <PUBCHEM_MOLECULAR_WEIGHT>
474.54336

> <PUBCHEM_OPENEYE_CAN_SMILES>
CCCC(=O)C1=C(C(=C(C(=C1O)CC2(C(=C(C(=C(C2=O)C(=O)C(C)CC)O)C)O)C)O)C)OC

> <PUBCHEM_OPENEYE_ISO_SMILES>
CCCC(=O)C1=C(C(=C(C(=C1O)C[C@]2(C(=C(C(=C(C2=O)C(=O)[C@H](C)CC)O)C)O)C)O)C)OC

> <PUBCHEM_CACTVS_TPSA>
141

> <PUBCHEM_MONOISOTOPIC_WEIGHT>
474.225368

> <PUBCHEM_TOTAL_CHARGE>
0

> <PUBCHEM_HEAVY_ATOM_COUNT>
34

> <PUBCHEM_ATOM_DEF_STEREO_COUNT>
2

> <PUBCHEM_ATOM_UDEF_STEREO_COUNT>
0

> <PUBCHEM_BOND_DEF_STEREO_COUNT>
0

> <PUBCHEM_BOND_UDEF_STEREO_COUNT>
0

> <PUBCHEM_ISOTOPIC_ATOM_COUNT>
0

> <PUBCHEM_COMPONENT_COUNT>
1

> <PUBCHEM_CACTVS_TAUTO_COUNT>
399

> <PUBCHEM_COORDINATE_TYPE>
1
5
255

> <PUBCHEM_BONDANNOTATIONS>
14  20  8
14  21  8
19  27  6
20  23  8
21  24  8
23  26  8
24  26  8
9  13  6

$$$$

