5282224
  -OEChem-07051213032D

 38 38  0     1  0  0  0  0  0999 V2000
    3.3660    0.2010    0.0000 O   0  0  0  0  0  0  0  0  0  0  0  0
    3.8660   -3.6651    0.0000 O   0  0  0  0  0  0  0  0  0  0  0  0
    2.3660    3.6651    0.0000 O   0  0  0  0  0  0  0  0  0  0  0  0
    3.0000   -1.1651    0.0000 C   0  0  0  0  0  0  0  0  0  0  0  0
    3.8660   -0.6651    0.0000 C   0  0  1  0  0  0  0  0  0  0  0  0
    3.0000   -2.1651    0.0000 C   0  0  0  0  0  0  0  0  0  0  0  0
    4.7320   -1.1651    0.0000 C   0  0  0  0  0  0  0  0  0  0  0  0
    2.0000   -1.1651    0.0000 C   0  0  0  0  0  0  0  0  0  0  0  0
    2.2340   -0.5223    0.0000 C   0  0  0  0  0  0  0  0  0  0  0  0
    3.8660   -2.6651    0.0000 C   0  0  0  0  0  0  0  0  0  0  0  0
    4.3660    0.2010    0.0000 C   0  0  0  0  0  0  0  0  0  0  0  0
    4.7320   -2.1651    0.0000 C   0  0  0  0  0  0  0  0  0  0  0  0
    5.5981   -0.6651    0.0000 C   0  0  0  0  0  0  0  0  0  0  0  0
    3.8660    1.0670    0.0000 C   0  0  0  0  0  0  0  0  0  0  0  0
    4.3660    1.9330    0.0000 C   0  0  0  0  0  0  0  0  0  0  0  0
    5.3660    1.9330    0.0000 C   0  0  0  0  0  0  0  0  0  0  0  0
    3.8660    2.7990    0.0000 C   0  0  0  0  0  0  0  0  0  0  0  0
    2.8660    2.7990    0.0000 C   0  0  0  0  0  0  0  0  0  0  0  0
    2.3894   -2.0574    0.0000 H   0  0  0  0  0  0  0  0  0  0  0  0
    2.7880   -2.7477    0.0000 H   0  0  0  0  0  0  0  0  0  0  0  0
    2.0000   -0.5451    0.0000 H   0  0  0  0  0  0  0  0  0  0  0  0
    1.3800   -1.1651    0.0000 H   0  0  0  0  0  0  0  0  0  0  0  0
    2.0000   -1.7851    0.0000 H   0  0  0  0  0  0  0  0  0  0  0  0
    2.6325   -0.0473    0.0000 H   0  0  0  0  0  0  0  0  0  0  0  0
    1.7590   -0.1237    0.0000 H   0  0  0  0  0  0  0  0  0  0  0  0
    1.8354   -0.9972    0.0000 H   0  0  0  0  0  0  0  0  0  0  0  0
    4.9860    0.2010    0.0000 H   0  0  0  0  0  0  0  0  0  0  0  0
    5.2690   -2.4751    0.0000 H   0  0  0  0  0  0  0  0  0  0  0  0
    2.7460    0.2010    0.0000 H   0  0  0  0  0  0  0  0  0  0  0  0
    5.9081   -1.2020    0.0000 H   0  0  0  0  0  0  0  0  0  0  0  0
    6.1350   -0.3551    0.0000 H   0  0  0  0  0  0  0  0  0  0  0  0
    5.2881   -0.1281    0.0000 H   0  0  0  0  0  0  0  0  0  0  0  0
    3.2460    1.0670    0.0000 H   0  0  0  0  0  0  0  0  0  0  0  0
    5.3660    1.3130    0.0000 H   0  0  0  0  0  0  0  0  0  0  0  0
    5.9860    1.9330    0.0000 H   0  0  0  0  0  0  0  0  0  0  0  0
    5.3660    2.5530    0.0000 H   0  0  0  0  0  0  0  0  0  0  0  0
    4.1760    3.3360    0.0000 H   0  0  0  0  0  0  0  0  0  0  0  0
    2.5560    2.2621    0.0000 H   0  0  0  0  0  0  0  0  0  0  0  0
  5  1  1  6  0  0  0
  1 29  1  0  0  0  0
  2 10  2  0  0  0  0
  3 18  2  0  0  0  0
  4  5  1  0  0  0  0
  4  6  1  0  0  0  0
  4  8  1  0  0  0  0
  4  9  1  0  0  0  0
  5  7  1  0  0  0  0
  5 11  1  0  0  0  0
  6 10  1  0  0  0  0
  6 19  1  0  0  0  0
  6 20  1  0  0  0  0
  7 12  2  0  0  0  0
  7 13  1  0  0  0  0
  8 21  1  0  0  0  0
  8 22  1  0  0  0  0
  8 23  1  0  0  0  0
  9 24  1  0  0  0  0
  9 25  1  0  0  0  0
  9 26  1  0  0  0  0
 10 12  1  0  0  0  0
 11 14  2  0  0  0  0
 11 27  1  0  0  0  0
 12 28  1  0  0  0  0
 13 30  1  0  0  0  0
 13 31  1  0  0  0  0
 13 32  1  0  0  0  0
 14 15  1  0  0  0  0
 14 33  1  0  0  0  0
 15 16  1  0  0  0  0
 15 17  2  0  0  0  0
 16 34  1  0  0  0  0
 16 35  1  0  0  0  0
 16 36  1  0  0  0  0
 17 18  1  0  0  0  0
 17 37  1  0  0  0  0
 18 38  1  0  0  0  0
M  END
> <PUBCHEM_COMPOUND_CID>
5282224

> <PUBCHEM_COMPOUND_CANONICALIZED>
1

> <PUBCHEM_CACTVS_COMPLEXITY>
452

> <PUBCHEM_CACTVS_HBOND_ACCEPTOR>
3

> <PUBCHEM_CACTVS_HBOND_DONOR>
1

> <PUBCHEM_CACTVS_ROTATABLE_BOND>
3

> <PUBCHEM_CACTVS_SUBSKEYS>
AAADceBwMAAAAAAAAAAAAAAAAAAAAAAAAAAgAAAAAAAAAAAAAAAAGgAACAAADkSggAICAAAAAgCIAqhSgAAAAAAgAAAICAEAAEgIBBIAAQAAUAAEgAAIkQOKiAAPgAAAAAAAAAAAAAAAAAAAAAAAAAAAAA==

> <PUBCHEM_IUPAC_OPENEYE_NAME>
(2Z,4E)-5-[(1S)-1-hydroxy-2,6,6-trimethyl-4-oxo-cyclohex-2-en-1-yl]-3-methyl-penta-2,4-dienal

> <PUBCHEM_IUPAC_CAS_NAME>
(2Z,4E)-5-[(1S)-1-hydroxy-2,6,6-trimethyl-4-oxo-1-cyclohex-2-enyl]-3-methylpenta-2,4-dienal

> <PUBCHEM_IUPAC_NAME>
(2Z,4E)-5-[(1S)-1-hydroxy-2,6,6-trimethyl-4-oxocyclohex-2-en-1-yl]-3-methylpenta-2,4-dienal

> <PUBCHEM_IUPAC_SYSTEMATIC_NAME>
(2Z,4E)-3-methyl-5-[(1S)-2,6,6-trimethyl-1-oxidanyl-4-oxidanylidene-cyclohex-2-en-1-yl]penta-2,4-dienal

> <PUBCHEM_IUPAC_TRADITIONAL_NAME>
(2Z,4E)-5-[(1S)-1-hydroxy-4-keto-2,6,6-trimethyl-cyclohex-2-en-1-yl]-3-methyl-penta-2,4-dienal

> <PUBCHEM_IUPAC_INCHI>
InChI=1S/C15H20O3/c1-11(6-8-16)5-7-15(18)12(2)9-13(17)10-14(15,3)4/h5-9,18H,10H2,1-4H3/b7-5+,11-6-/t15-/m1/s1

> <PUBCHEM_IUPAC_INCHIKEY>
RIKWDZWVHUIUAM-KICRZJJPSA-N

> <PUBCHEM_XLOGP3_AA>
1.5

> <PUBCHEM_EXACT_MASS>
248.141245

> <PUBCHEM_MOLECULAR_FORMULA>
C15H20O3

> <PUBCHEM_MOLECULAR_WEIGHT>
248.3175

> <PUBCHEM_OPENEYE_CAN_SMILES>
CC1=CC(=O)CC(C1(C=CC(=CC=O)C)O)(C)C

> <PUBCHEM_OPENEYE_ISO_SMILES>
CC1=CC(=O)CC([C@]1(/C=C/C(=C\C=O)/C)O)(C)C

> <PUBCHEM_CACTVS_TPSA>
54.4

> <PUBCHEM_MONOISOTOPIC_WEIGHT>
248.141245

> <PUBCHEM_TOTAL_CHARGE>
0

> <PUBCHEM_HEAVY_ATOM_COUNT>
18

> <PUBCHEM_ATOM_DEF_STEREO_COUNT>
1

> <PUBCHEM_ATOM_UDEF_STEREO_COUNT>
0

> <PUBCHEM_BOND_DEF_STEREO_COUNT>
2

> <PUBCHEM_BOND_UDEF_STEREO_COUNT>
0

> <PUBCHEM_ISOTOPIC_ATOM_COUNT>
0

> <PUBCHEM_COMPONENT_COUNT>
1

> <PUBCHEM_CACTVS_TAUTO_COUNT>
5

> <PUBCHEM_COORDINATE_TYPE>
1
5
255

> <PUBCHEM_BONDANNOTATIONS>
5  1  6

$$$$

