13873378
  -OEChem-07051213092D

 34 34  0     1  0  0  0  0  0999 V2000
    4.5981    1.5600    0.0000 O   0  0  0  0  0  0  0  0  0  0  0  0
    7.1962    1.0600    0.0000 O   0  0  0  0  0  0  0  0  0  0  0  0
    2.8660   -3.4400    0.0000 O   0  0  0  0  0  0  0  0  0  0  0  0
    2.0000   -1.9400    0.0000 O   0  0  0  0  0  0  0  0  0  0  0  0
    5.4641    1.0600    0.0000 C   0  0  1  0  0  0  0  0  0  0  0  0
    6.3301    1.5600    0.0000 C   0  0  2  0  0  0  0  0  0  0  0  0
    5.4641    0.0600    0.0000 C   0  0  0  0  0  0  0  0  0  0  0  0
    4.5981   -1.4400    0.0000 C   0  0  0  0  0  0  0  0  0  0  0  0
    4.5981   -0.4400    0.0000 C   0  0  0  0  0  0  0  0  0  0  0  0
    6.3301    2.5600    0.0000 C   0  0  0  0  0  0  0  0  0  0  0  0
    3.7320   -1.9400    0.0000 C   0  0  0  0  0  0  0  0  0  0  0  0
    5.4641   -1.9400    0.0000 C   0  0  0  0  0  0  0  0  0  0  0  0
    3.7320   -2.9400    0.0000 C   0  0  0  0  0  0  0  0  0  0  0  0
    7.1962    3.0600    0.0000 C   0  0  0  0  0  0  0  0  0  0  0  0
    5.4641   -2.9400    0.0000 C   0  0  0  0  0  0  0  0  0  0  0  0
    4.5981   -3.4400    0.0000 C   0  0  0  0  0  0  0  0  0  0  0  0
    2.8660   -1.4400    0.0000 C   0  0  0  0  0  0  0  0  0  0  0  0
    7.1962    4.0600    0.0000 C   0  0  0  0  0  0  0  0  0  0  0  0
    5.4641    1.6800    0.0000 H   0  0  0  0  0  0  0  0  0  0  0  0
    6.8671    1.8700    0.0000 H   0  0  0  0  0  0  0  0  0  0  0  0
    6.0010   -0.2500    0.0000 H   0  0  0  0  0  0  0  0  0  0  0  0
    4.0611   -0.1300    0.0000 H   0  0  0  0  0  0  0  0  0  0  0  0
    5.7932    2.8700    0.0000 H   0  0  0  0  0  0  0  0  0  0  0  0
    6.0010   -1.6300    0.0000 H   0  0  0  0  0  0  0  0  0  0  0  0
    4.5981    2.1800    0.0000 H   0  0  0  0  0  0  0  0  0  0  0  0
    7.7331    2.7500    0.0000 H   0  0  0  0  0  0  0  0  0  0  0  0
    7.7331    1.3700    0.0000 H   0  0  0  0  0  0  0  0  0  0  0  0
    6.0010   -3.2500    0.0000 H   0  0  0  0  0  0  0  0  0  0  0  0
    4.5981   -4.0600    0.0000 H   0  0  0  0  0  0  0  0  0  0  0  0
    2.8660   -0.8200    0.0000 H   0  0  0  0  0  0  0  0  0  0  0  0
    7.8162    4.0600    0.0000 H   0  0  0  0  0  0  0  0  0  0  0  0
    7.1962    4.6800    0.0000 H   0  0  0  0  0  0  0  0  0  0  0  0
    6.5762    4.0600    0.0000 H   0  0  0  0  0  0  0  0  0  0  0  0
    2.8660   -4.0600    0.0000 H   0  0  0  0  0  0  0  0  0  0  0  0
  5  1  1  1  0  0  0
  1 25  1  0  0  0  0
  6  2  1  6  0  0  0
  2 27  1  0  0  0  0
  3 13  1  0  0  0  0
  3 34  1  0  0  0  0
  4 17  2  0  0  0  0
  5  6  1  0  0  0  0
  5  7  1  0  0  0  0
  5 19  1  0  0  0  0
  6 10  1  0  0  0  0
  6 20  1  0  0  0  0
  7  9  2  0  0  0  0
  7 21  1  0  0  0  0
  8  9  1  0  0  0  0
  8 11  2  0  0  0  0
  8 12  1  0  0  0  0
  9 22  1  0  0  0  0
 10 14  2  0  0  0  0
 10 23  1  0  0  0  0
 11 13  1  0  0  0  0
 11 17  1  0  0  0  0
 12 15  2  0  0  0  0
 12 24  1  0  0  0  0
 13 16  2  0  0  0  0
 14 18  1  0  0  0  0
 14 26  1  0  0  0  0
 15 16  1  0  0  0  0
 15 28  1  0  0  0  0
 16 29  1  0  0  0  0
 17 30  1  0  0  0  0
 18 31  1  0  0  0  0
 18 32  1  0  0  0  0
 18 33  1  0  0  0  0
M  END
> <PUBCHEM_COMPOUND_CID>
13873378

> <PUBCHEM_COMPOUND_CANONICALIZED>
1

> <PUBCHEM_CACTVS_COMPLEXITY>
311

> <PUBCHEM_CACTVS_HBOND_ACCEPTOR>
4

> <PUBCHEM_CACTVS_HBOND_DONOR>
3

> <PUBCHEM_CACTVS_ROTATABLE_BOND>
5

> <PUBCHEM_CACTVS_SUBSKEYS>
AAADceBwOAAAAAAAAAAAAAAAAAAAAAAAAAAwAAAAAAAAAAABAAAAGgAACAAADBSgmAIyBoAAAgCIAihSgAACAAAkIAAIiAEGCMgJNjaCFRKAcUAk4BEJmQeIyLCOgAABAAAYAAAAAAIAADAAAAAAAAAAAA==

> <PUBCHEM_IUPAC_OPENEYE_NAME>
2-[(1E,3R,4S,5E)-3,4-dihydroxyhepta-1,5-dienyl]-6-hydroxy-benzaldehyde

> <PUBCHEM_IUPAC_CAS_NAME>
2-[(1E,3R,4S,5E)-3,4-dihydroxyhepta-1,5-dienyl]-6-hydroxybenzaldehyde

> <PUBCHEM_IUPAC_NAME>
2-[(1E,3R,4S,5E)-3,4-dihydroxyhepta-1,5-dienyl]-6-hydroxybenzaldehyde

> <PUBCHEM_IUPAC_SYSTEMATIC_NAME>
2-[(1E,3R,4S,5E)-3,4-bis(oxidanyl)hepta-1,5-dienyl]-6-oxidanyl-benzaldehyde

> <PUBCHEM_IUPAC_TRADITIONAL_NAME>
2-[(1E,3R,4S,5E)-3,4-dihydroxyhepta-1,5-dienyl]-6-hydroxy-benzaldehyde

> <PUBCHEM_IUPAC_INCHI>
InChI=1S/C14H16O4/c1-2-4-13(17)14(18)8-7-10-5-3-6-12(16)11(10)9-15/h2-9,13-14,16-18H,1H3/b4-2+,8-7+/t13-,14+/m0/s1

> <PUBCHEM_IUPAC_INCHIKEY>
YUQDGJSYYKKISE-COOXUBAGSA-N

> <PUBCHEM_XLOGP3_AA>
1.6

> <PUBCHEM_EXACT_MASS>
248.104859

> <PUBCHEM_MOLECULAR_FORMULA>
C14H16O4

> <PUBCHEM_MOLECULAR_WEIGHT>
248.27444

> <PUBCHEM_OPENEYE_CAN_SMILES>
CC=CC(C(C=CC1=C(C(=CC=C1)O)C=O)O)O

> <PUBCHEM_OPENEYE_ISO_SMILES>
C/C=C/[C@@H]([C@@H](/C=C/C1=C(C(=CC=C1)O)C=O)O)O

> <PUBCHEM_CACTVS_TPSA>
77.8

> <PUBCHEM_MONOISOTOPIC_WEIGHT>
248.104859

> <PUBCHEM_TOTAL_CHARGE>
0

> <PUBCHEM_HEAVY_ATOM_COUNT>
18

> <PUBCHEM_ATOM_DEF_STEREO_COUNT>
2

> <PUBCHEM_ATOM_UDEF_STEREO_COUNT>
0

> <PUBCHEM_BOND_DEF_STEREO_COUNT>
2

> <PUBCHEM_BOND_UDEF_STEREO_COUNT>
0

> <PUBCHEM_ISOTOPIC_ATOM_COUNT>
0

> <PUBCHEM_COMPONENT_COUNT>
1

> <PUBCHEM_CACTVS_TAUTO_COUNT>
5

> <PUBCHEM_COORDINATE_TYPE>
1
5
255

> <PUBCHEM_BONDANNOTATIONS>
5  1  5
11  13  8
12  15  8
13  16  8
15  16  8
6  2  6
8  11  8
8  12  8

$$$$

