   Chemical and Physical Properties References

   [1]USDA ARS - USDA chemical properties
   from [2]ChemIDplus

   Color/Form

     * The pure material is a yellowish liquid at temperatures above 6 deg
       C
     * Pale-yellow to dark-brown liquid ... [Note: A solid below 43
       degrees F. Pesticide that may be absorbed on a dry carrier].
     * Pale yellow liquid
     * Deep brown to yellow liquid

   from [3]HSDB

   Odor

     * Usually has a faint odor
     * ... Garlic-like odor ...
     * Phenol-like odor

   from [4]HSDB

   Boiling Point
        375 DEG C AT 760 MM HG
   from [5]HSDB

   Melting Point
        6.1 deg C
   from [6]HSDB

   Density/Specific Gravity
        1.26 AT 25 DEG C/4 DEG C
   from [7]HSDB

   Heat of Combustion
        -9,240 BTU/LB= -5,140 CAL/G= -215X10+5 J/KG
   from [8]HSDB

   Octanol/Water Partition Coefficient
        Log Kow= 3.83
   from [9]HSDB

   Solubilities

     * PRACTICALLY INSOL IN PETROLEUM ETHER, KEROSENE, & USUAL SPRAY OILS
     * COMPLETELY SOL IN ALCOHOLS, ESTERS, ETHERS, KETONES, AROMATIC
       HYDROCARBONS, ANIMAL & VEGETABLE OILS
     * SOL IN CHLOROFORM
     * Water solubility = 11 mg/l @ 20 deg C
     * Completely miscible with most organic solvents, e.g.
       dichloromethane >200, isopropanol, toluene, hexane 50 to 100 (all
       in g/l at 20 deg C).

   from [10]HSDB

   Spectral Properties

     * INDEX OF REFRACTION: 1.5370 AT 25 DEG C/D
     * SADTLER REF NUMBER: 503 (IR, PRISM)
     * Intense mass spectral peaks: 97 m/z (100%), 291 m/z (98%), 109 m/z
       (91%), 137 m/z (61%)
     * IR: 1036 (Coblentz Society Spectral Collection)
     * NMR: 10403 (Sadtler Research Laboratories Spectral Collection)
     * MASS: 4788 (National Bureau of Standards EPA-NIH Mass Spectra Data
       Base, NSRDS-NBS-63)
     * UV: 1-348 (Organic Electronic Spectral Data, Phillips et al, John
       Wiley & Sons, New York)

   from [11]HSDB

   Surface Tension
        39.2 DYNES/CM AT 25 DEG C
   from [12]HSDB

   Vapor Pressure
        6.68X10-6 mm Hg @ 20 deg C
   from [13]HSDB

   Viscosity
        15.30 CENTIPOISE AT 25 DEG C
   from [14]HSDB

   Other Chemical/Physical Properties

     * TECHNICAL PRODUCT IS A BROWN LIQUID WITH A GARLIC-LIKE ODOR.
       /TECHNICAL PRODUCT/
     * Can penetrate leather, canvas shoes, and sneakers.
     * Parathion will attack some forms of plastics, rubber, and coatings.
     * It is slowly hydrolyzed in water to form p-nitrophenol and diethyl
       orthothiophosphoric acid. The time for 50% hydrolysis is 120 days,
       but this occurs more rapidly in alkaline solution.
     * Incompatible with alkaline materials. Hydrolyzed very slowly in
       acidic media (pH 1-6), more rapidly in alkaline media; half-life
       272 days at pH 4, 260 days at pH 7, and 130 days at pH 9 (all at 22
       deg C). Isomerizes on heating above 130 deg C, to the O,S-diethyl
       isomer.
     * Henry's Law constant = 0.0302 Pa/cu m mole
     * Slow decomposition in air.
     * Parathion is reduced readily to the nontoxic O,O-diethyl
       O-4-aminophenyl phosphorthioate and oxidized with difficulty to the
       very highly toxic paraoxon O,O-diethyl O-4-nitrophenyl
       phosphorothiolate.

   from [15]HSDB

   Computed Properties
   Molecular Weight                  291.260622 [g/mol]
   Molecular Formula                 C[10]H[14]NO[5]PS
   XLogP3                            3.8
   H-Bond Donor                      0
   H-Bond Acceptor                   6
   Rotatable Bond Count              6
   Exact Mass                        291.03303
   MonoIsotopic Mass                 291.03303
   Topological Polar Surface Area    106
   Heavy Atom Count                  18
   Formal Charge                     0
   Complexity                        304
   Isotope Atom Count                0
   Defined Atom Stereocenter Count   0
   Undefined Atom Stereocenter Count 0
   Defined Bond Stereocenter Count   0
   Undefined Bond Stereocenter Count 0
   Covalently-Bonded Unit Count      1
   Feature 3D Acceptor Count         2
   Feature 3D Anion Count            1
   Feature 3D Ring Count             1
   Effective Rotor Count             7
   Conformer Sampling RMSD           0.8
   CID Conformer Count               [16]21

References

   1. http://www.ars.usda.gov/SP2UserFiles/ad_hoc/12755100DatabaseFiles/PesticidePropertiesDatabase/IndividualPesticideFiles/PARATHION.TXT
   2. http://chem.sis.nlm.nih.gov/chemidplus/
   3. http://toxnet.nlm.nih.gov/cgi-bin/sis/search/r?dbs+hsdb:@term+@rn+@rel+56-38-2
   4. http://toxnet.nlm.nih.gov/cgi-bin/sis/search/r?dbs+hsdb:@term+@rn+@rel+56-38-2
   5. http://toxnet.nlm.nih.gov/cgi-bin/sis/search/r?dbs+hsdb:@term+@rn+@rel+56-38-2
   6. http://toxnet.nlm.nih.gov/cgi-bin/sis/search/r?dbs+hsdb:@term+@rn+@rel+56-38-2
   7. http://toxnet.nlm.nih.gov/cgi-bin/sis/search/r?dbs+hsdb:@term+@rn+@rel+56-38-2
   8. http://toxnet.nlm.nih.gov/cgi-bin/sis/search/r?dbs+hsdb:@term+@rn+@rel+56-38-2
   9. http://toxnet.nlm.nih.gov/cgi-bin/sis/search/r?dbs+hsdb:@term+@rn+@rel+56-38-2
  10. http://toxnet.nlm.nih.gov/cgi-bin/sis/search/r?dbs+hsdb:@term+@rn+@rel+56-38-2
  11. http://toxnet.nlm.nih.gov/cgi-bin/sis/search/r?dbs+hsdb:@term+@rn+@rel+56-38-2
  12. http://toxnet.nlm.nih.gov/cgi-bin/sis/search/r?dbs+hsdb:@term+@rn+@rel+56-38-2
  13. http://toxnet.nlm.nih.gov/cgi-bin/sis/search/r?dbs+hsdb:@term+@rn+@rel+56-38-2
  14. http://toxnet.nlm.nih.gov/cgi-bin/sis/search/r?dbs+hsdb:@term+@rn+@rel+56-38-2
  15. http://toxnet.nlm.nih.gov/cgi-bin/sis/search/r?dbs+hsdb:@term+@rn+@rel+56-38-2
  16. http://pubchem.ncbi.nlm.nih.gov/vw3d/vw3d.cgi?cid=991
