17395359
  -OEChem-06241222492D

 39 41  0     1  0  0  0  0  0999 V2000
    7.9601    1.7103    0.0000 S   0  0  0  0  0  0  0  0  0  0  0  0
    2.0000   -1.2492    0.0000 F   0  0  0  0  0  0  0  0  0  0  0  0
    5.4641   -3.2492    0.0000 F   0  0  0  0  0  0  0  0  0  0  0  0
    5.3198   -1.0582    0.0000 O   0  0  0  0  0  0  0  0  0  0  0  0
    4.2320    2.2897    0.0000 O   0  0  0  0  0  0  0  0  0  0  0  0
    5.4569    2.6582    0.0000 O   0  0  0  0  0  0  0  0  0  0  0  0
    3.4230    0.7019    0.0000 N   0  0  0  0  0  0  0  0  0  0  0  0
    5.0411    0.7019    0.0000 N   0  0  0  0  0  0  0  0  0  0  0  0
    3.7320   -0.2491    0.0000 C   0  0  3  0  0  0  0  0  0  0  0  0
    4.7320   -0.2491    0.0000 C   0  0  0  0  0  0  0  0  0  0  0  0
    3.7320   -1.2492    0.0000 C   0  0  0  0  0  0  0  0  0  0  0  0
    2.7810   -0.5582    0.0000 C   0  0  0  0  0  0  0  0  0  0  0  0
    4.2320    1.2897    0.0000 C   0  0  0  0  0  0  0  0  0  0  0  0
    5.9921    1.0109    0.0000 C   0  0  0  0  0  0  0  0  0  0  0  0
    2.8660   -1.7492    0.0000 C   0  0  0  0  0  0  0  0  0  0  0  0
    4.5981   -1.7492    0.0000 C   0  0  0  0  0  0  0  0  0  0  0  0
    6.2000    1.9891    0.0000 C   0  0  0  0  0  0  0  0  0  0  0  0
    4.5981   -2.7492    0.0000 C   0  0  0  0  0  0  0  0  0  0  0  0
    2.8660   -2.7492    0.0000 C   0  0  0  0  0  0  0  0  0  0  0  0
    7.1511    2.2981    0.0000 C   0  0  0  0  0  0  0  0  0  0  0  0
    3.7320   -3.2492    0.0000 C   0  0  0  0  0  0  0  0  0  0  0  0
    7.4601    3.2492    0.0000 C   0  0  0  0  0  0  0  0  0  0  0  0
    8.7691    2.2981    0.0000 C   0  0  0  0  0  0  0  0  0  0  0  0
    8.4601    3.2492    0.0000 C   0  0  0  0  0  0  0  0  0  0  0  0
    9.7202    1.9891    0.0000 C   0  0  0  0  0  0  0  0  0  0  0  0
    2.8334    0.8935    0.0000 H   0  0  0  0  0  0  0  0  0  0  0  0
    2.5894    0.0315    0.0000 H   0  0  0  0  0  0  0  0  0  0  0  0
    2.1913   -0.7498    0.0000 H   0  0  0  0  0  0  0  0  0  0  0  0
    2.9726   -1.1478    0.0000 H   0  0  0  0  0  0  0  0  0  0  0  0
    6.0784    0.3970    0.0000 H   0  0  0  0  0  0  0  0  0  0  0  0
    6.6118    0.9893    0.0000 H   0  0  0  0  0  0  0  0  0  0  0  0
    5.1350   -1.4392    0.0000 H   0  0  0  0  0  0  0  0  0  0  0  0
    2.3291   -3.0591    0.0000 H   0  0  0  0  0  0  0  0  0  0  0  0
    3.7320   -3.8692    0.0000 H   0  0  0  0  0  0  0  0  0  0  0  0
    7.0957    3.7507    0.0000 H   0  0  0  0  0  0  0  0  0  0  0  0
    8.8245    3.7507    0.0000 H   0  0  0  0  0  0  0  0  0  0  0  0
    9.5286    1.3994    0.0000 H   0  0  0  0  0  0  0  0  0  0  0  0
   10.3098    1.7975    0.0000 H   0  0  0  0  0  0  0  0  0  0  0  0
    9.9118    2.5787    0.0000 H   0  0  0  0  0  0  0  0  0  0  0  0
  1 20  1  0  0  0  0
  1 23  1  0  0  0  0
  2 15  1  0  0  0  0
  3 18  1  0  0  0  0
  4 10  2  0  0  0  0
  5 13  2  0  0  0  0
  6 17  2  0  0  0  0
  7  9  1  0  0  0  0
  7 13  1  0  0  0  0
  7 26  1  0  0  0  0
  8 10  1  0  0  0  0
  8 13  1  0  0  0  0
  8 14  1  0  0  0  0
  9 10  1  0  0  0  0
  9 11  1  0  0  0  0
  9 12  1  0  0  0  0
 11 15  2  0  0  0  0
 11 16  1  0  0  0  0
 12 27  1  0  0  0  0
 12 28  1  0  0  0  0
 12 29  1  0  0  0  0
 14 17  1  0  0  0  0
 14 30  1  0  0  0  0
 14 31  1  0  0  0  0
 15 19  1  0  0  0  0
 16 18  2  0  0  0  0
 16 32  1  0  0  0  0
 17 20  1  0  0  0  0
 18 21  1  0  0  0  0
 19 21  2  0  0  0  0
 19 33  1  0  0  0  0
 20 22  2  0  0  0  0
 21 34  1  0  0  0  0
 22 24  1  0  0  0  0
 22 35  1  0  0  0  0
 23 24  2  0  0  0  0
 23 25  1  0  0  0  0
 24 36  1  0  0  0  0
 25 37  1  0  0  0  0
 25 38  1  0  0  0  0
 25 39  1  0  0  0  0
M  END
> <PUBCHEM_COMPOUND_CID>
17395359

> <PUBCHEM_COMPOUND_CANONICALIZED>
1

> <PUBCHEM_CACTVS_COMPLEXITY>
590

> <PUBCHEM_CACTVS_HBOND_ACCEPTOR>
6

> <PUBCHEM_CACTVS_HBOND_DONOR>
1

> <PUBCHEM_CACTVS_ROTATABLE_BOND>
4

> <PUBCHEM_CACTVS_SUBSKEYS>
AAADccB7MYBAAAAAAAAAAAAAAAAAAWJAAAAwAAAAAAAAAAABwAAAHwQQAAAADIzB2AwzAYPAAAiMAqFSEACDAIAkCBBIiBmIBMiIYDKglTGUIQholyKoiYcYiMCOgAAAAAAAAAAAAAAAAAAAAAAAAAAAAA==

> <PUBCHEM_IUPAC_OPENEYE_NAME>
5-(2,5-difluorophenyl)-5-methyl-3-[2-(5-methyl-2-thienyl)-2-oxo-ethyl]imidazolidine-2,4-dione

> <PUBCHEM_IUPAC_CAS_NAME>
5-(2,5-difluorophenyl)-5-methyl-3-[2-(5-methyl-2-thiophenyl)-2-oxoethyl]imidazolidine-2,4-dione

> <PUBCHEM_IUPAC_NAME>
5-(2,5-difluorophenyl)-5-methyl-3-[2-(5-methylthiophen-2-yl)-2-oxoethyl]imidazolidine-2,4-dione

> <PUBCHEM_IUPAC_SYSTEMATIC_NAME>
5-[2,5-bis(fluoranyl)phenyl]-5-methyl-3-[2-(5-methylthiophen-2-yl)-2-oxidanylidene-ethyl]imidazolidine-2,4-dione

> <PUBCHEM_IUPAC_TRADITIONAL_NAME>
5-(2,5-difluorophenyl)-3-[2-keto-2-(5-methyl-2-thienyl)ethyl]-5-methyl-hydantoin

> <PUBCHEM_IUPAC_INCHI>
InChI=1S/C17H14F2N2O3S/c1-9-3-6-14(25-9)13(22)8-21-15(23)17(2,20-16(21)24)11-7-10(18)4-5-12(11)19/h3-7H,8H2,1-2H3,(H,20,24)

> <PUBCHEM_IUPAC_INCHIKEY>
JBNGLLCNKOZVBN-UHFFFAOYSA-N

> <PUBCHEM_XLOGP3_AA>
3

> <PUBCHEM_EXACT_MASS>
364.06932

> <PUBCHEM_MOLECULAR_FORMULA>
C17H14F2N2O3S

> <PUBCHEM_MOLECULAR_WEIGHT>
364.366466

> <PUBCHEM_OPENEYE_CAN_SMILES>
CC1=CC=C(S1)C(=O)CN2C(=O)C(NC2=O)(C)C3=C(C=CC(=C3)F)F

> <PUBCHEM_OPENEYE_ISO_SMILES>
CC1=CC=C(S1)C(=O)CN2C(=O)C(NC2=O)(C)C3=C(C=CC(=C3)F)F

> <PUBCHEM_CACTVS_TPSA>
94.7

> <PUBCHEM_MONOISOTOPIC_WEIGHT>
364.06932

> <PUBCHEM_TOTAL_CHARGE>
0

> <PUBCHEM_HEAVY_ATOM_COUNT>
25

> <PUBCHEM_ATOM_DEF_STEREO_COUNT>
0

> <PUBCHEM_ATOM_UDEF_STEREO_COUNT>
1

> <PUBCHEM_BOND_DEF_STEREO_COUNT>
0

> <PUBCHEM_BOND_UDEF_STEREO_COUNT>
0

> <PUBCHEM_ISOTOPIC_ATOM_COUNT>
0

> <PUBCHEM_COMPONENT_COUNT>
1

> <PUBCHEM_CACTVS_TAUTO_COUNT>
14

> <PUBCHEM_COORDINATE_TYPE>
1
5
255

> <PUBCHEM_BONDANNOTATIONS>
1  20  8
1  23  8
11  15  8
11  16  8
15  19  8
16  18  8
18  21  8
19  21  8
20  22  8
22  24  8
23  24  8
9  12  3

$$$$

