441212
  -OEChem-07051212522D

 45 47  0     1  0  0  0  0  0999 V2000
    8.4752    2.2720    0.0000 P   0  0  3  0  0  0  0  0  0  0  0  0
   10.1980    2.4500    0.0000 P   0  0  3  0  0  0  0  0  0  0  0  0
   11.9209    2.6281    0.0000 P   0  0  0  0  0  0  0  0  0  0  0  0
    5.9405    0.5075    0.0000 O   0  0  0  0  0  0  0  0  0  0  0  0
    3.4026    1.0119    0.0000 O   0  0  0  0  0  0  0  0  0  0  0  0
    7.6651    1.6856    0.0000 O   0  0  0  0  0  0  0  0  0  0  0  0
    4.6844    2.7698    0.0000 O   0  0  0  0  0  0  0  0  0  0  0  0
    9.2852    2.8584    0.0000 O   0  0  0  0  0  0  0  0  0  0  0  0
    9.0615    1.4619    0.0000 O   0  0  0  0  0  0  0  0  0  0  0  0
    7.8888    3.0820    0.0000 O   0  0  0  0  0  0  0  0  0  0  0  0
   11.1109    2.0417    0.0000 O   0  0  0  0  0  0  0  0  0  0  0  0
   10.6063    3.3629    0.0000 O   0  0  0  0  0  0  0  0  0  0  0  0
    9.7897    1.5372    0.0000 O   0  0  0  0  0  0  0  0  0  0  0  0
   12.7309    3.2145    0.0000 O   0  0  0  0  0  0  0  0  0  0  0  0
   12.5073    1.8181    0.0000 O   0  0  0  0  0  0  0  0  0  0  0  0
   11.3345    3.4381    0.0000 O   0  0  0  0  0  0  0  0  0  0  0  0
    4.6783   -0.7504    0.0000 N   0  0  0  0  0  0  0  0  0  0  0  0
    4.6783   -2.3598    0.0000 N   0  0  0  0  0  0  0  0  0  0  0  0
    2.8660   -0.5551    0.0000 N   0  0  0  0  0  0  0  0  0  0  0  0
    2.0000   -2.0551    0.0000 N   0  0  0  0  0  0  0  0  0  0  0  0
    2.8660   -3.5551    0.0000 N   0  0  0  0  0  0  0  0  0  0  0  0
    4.9889    0.2002    0.0000 C   0  0  1  0  0  0  0  0  0  0  0  0
    4.4026    1.0102    0.0000 C   0  0  1  0  0  0  0  0  0  0  0  0
    5.9422    1.5075    0.0000 C   0  0  1  0  0  0  0  0  0  0  0  0
    4.9917    1.8182    0.0000 C   0  0  0  0  0  0  0  0  0  0  0  0
    6.7523    2.0939    0.0000 C   0  0  0  0  0  0  0  0  0  0  0  0
    3.7320   -1.0551    0.0000 C   0  0  0  0  0  0  0  0  0  0  0  0
    5.2619   -1.5551    0.0000 C   0  0  0  0  0  0  0  0  0  0  0  0
    3.7320   -2.0551    0.0000 C   0  0  0  0  0  0  0  0  0  0  0  0
    2.8660   -2.5551    0.0000 C   0  0  0  0  0  0  0  0  0  0  0  0
    2.0000   -1.0551    0.0000 C   0  0  0  0  0  0  0  0  0  0  0  0
    5.4266   -0.2390    0.0000 H   0  0  0  0  0  0  0  0  0  0  0  0
    4.1220    1.5631    0.0000 H   0  0  0  0  0  0  0  0  0  0  0  0
    6.4942    1.2251    0.0000 H   0  0  0  0  0  0  0  0  0  0  0  0
    7.0999    2.6073    0.0000 H   0  0  0  0  0  0  0  0  0  0  0  0
    6.3070    2.5254    0.0000 H   0  0  0  0  0  0  0  0  0  0  0  0
    5.8819   -1.5551    0.0000 H   0  0  0  0  0  0  0  0  0  0  0  0
    3.0935    1.5494    0.0000 H   0  0  0  0  0  0  0  0  0  0  0  0
    1.4631   -0.7451    0.0000 H   0  0  0  0  0  0  0  0  0  0  0  0
    2.3291   -3.8651    0.0000 H   0  0  0  0  0  0  0  0  0  0  0  0
    3.4030   -3.8651    0.0000 H   0  0  0  0  0  0  0  0  0  0  0  0
    8.8084    0.8960    0.0000 H   0  0  0  0  0  0  0  0  0  0  0  0
   10.2428    3.8651    0.0000 H   0  0  0  0  0  0  0  0  0  0  0  0
   12.2541    1.2521    0.0000 H   0  0  0  0  0  0  0  0  0  0  0  0
   13.2969    2.9613    0.0000 H   0  0  0  0  0  0  0  0  0  0  0  0
  1  6  1  0  0  0  0
  1  8  1  0  0  0  0
  1  9  1  0  0  0  0
  1 10  2  0  0  0  0
  2  8  1  0  0  0  0
  2 11  1  0  0  0  0
  2 12  1  0  0  0  0
  2 13  2  0  0  0  0
  3 11  1  0  0  0  0
  3 14  1  0  0  0  0
  3 15  1  0  0  0  0
  3 16  2  0  0  0  0
  4 22  1  0  0  0  0
  4 24  1  0  0  0  0
 23  5  1  6  0  0  0
  5 38  1  0  0  0  0
  6 26  1  0  0  0  0
  7 25  2  0  0  0  0
  9 42  1  0  0  0  0
 12 43  1  0  0  0  0
 14 45  1  0  0  0  0
 15 44  1  0  0  0  0
 22 17  1  1  0  0  0
 17 27  1  0  0  0  0
 17 28  1  0  0  0  0
 18 28  2  0  0  0  0
 18 29  1  0  0  0  0
 19 27  2  0  0  0  0
 19 31  1  0  0  0  0
 20 30  1  0  0  0  0
 20 31  2  0  0  0  0
 21 30  1  0  0  0  0
 21 40  1  0  0  0  0
 21 41  1  0  0  0  0
 22 23  1  0  0  0  0
 22 32  1  0  0  0  0
 23 25  1  0  0  0  0
 23 33  1  0  0  0  0
 24 25  1  0  0  0  0
 24 26  1  1  0  0  0
 24 34  1  0  0  0  0
 26 35  1  0  0  0  0
 26 36  1  0  0  0  0
 27 29  1  0  0  0  0
 28 37  1  0  0  0  0
 29 30  2  0  0  0  0
 31 39  1  0  0  0  0
M  END
> <PUBCHEM_COMPOUND_CID>
441212

> <PUBCHEM_COMPOUND_CANONICALIZED>
1

> <PUBCHEM_CACTVS_COMPLEXITY>
841

> <PUBCHEM_CACTVS_HBOND_ACCEPTOR>
17

> <PUBCHEM_CACTVS_HBOND_DONOR>
6

> <PUBCHEM_CACTVS_ROTATABLE_BOND>
8

> <PUBCHEM_CACTVS_SUBSKEYS>
AAADccBzvAMAAAAAAAAAAAAAAAAAAWJAAAAsAAAAAAAAAFgB+AAAHgAQCCAACBzhlwYF8L9MFxCoQYZxZIKAgC0REKABUCFoVBCDWA5AyEQeRAgNIALTACDwMAIAAAAAAAAAAAAAAAAAAAAAAAAAAAAAAA==

> <PUBCHEM_IUPAC_OPENEYE_NAME>
[[(2R,4S,5R)-5-(6-aminopurin-9-yl)-4-hydroxy-3-oxo-tetrahydrofuran-2-yl]methoxy-hydroxy-phosphoryl] phosphono hydrogen phosphate

> <PUBCHEM_IUPAC_CAS_NAME>
[[(2R,4S,5R)-5-(6-aminopurin-9-yl)-4-hydroxy-3-oxo-2-oxolanyl]methoxy-hydroxyphosphoryl] phosphono hydrogen phosphate

> <PUBCHEM_IUPAC_NAME>
[[(2R,4S,5R)-5-(6-aminopurin-9-yl)-4-hydroxy-3-oxooxolan-2-yl]methoxy-hydroxyphosphoryl] phosphono hydrogen phosphate

> <PUBCHEM_IUPAC_SYSTEMATIC_NAME>
[[(2R,4S,5R)-5-(6-aminopurin-9-yl)-4-oxidanyl-3-oxidanylidene-oxolan-2-yl]methoxy-oxidanyl-phosphoryl] phosphono hydrogen phosphate

> <PUBCHEM_IUPAC_TRADITIONAL_NAME>
[[(2R,4S,5R)-5-adenin-9-yl-4-hydroxy-3-keto-tetrahydrofuran-2-yl]methoxy-hydroxy-phosphoryl] phosphono hydrogen phosphate

> <PUBCHEM_IUPAC_INCHI>
InChI=1S/C10H14N5O13P3/c11-8-5-9(13-2-12-8)15(3-14-5)10-7(17)6(16)4(26-10)1-25-30(21,22)28-31(23,24)27-29(18,19)20/h2-4,7,10,17H,1H2,(H,21,22)(H,23,24)(H2,11,12,13)(H2,18,19,20)/t4-,7-,10-/m1/s1

> <PUBCHEM_IUPAC_INCHIKEY>
DWVQEFBZTUVQKH-XMRAEQSQSA-N

> <PUBCHEM_XLOGP3_AA>
-5.3

> <PUBCHEM_EXACT_MASS>
504.980095

> <PUBCHEM_MOLECULAR_FORMULA>
C10H14N5O13P3

> <PUBCHEM_MOLECULAR_WEIGHT>
505.165146

> <PUBCHEM_OPENEYE_CAN_SMILES>
C1=NC2=C(C(=N1)N)N=CN2C3C(C(=O)C(O3)COP(=O)(O)OP(=O)(O)OP(=O)(O)O)O

> <PUBCHEM_OPENEYE_ISO_SMILES>
C1=NC2=C(C(=N1)N)N=CN2[C@H]3[C@@H](C(=O)[C@H](O3)COP(=O)(O)OP(=O)(O)OP(=O)(O)O)O

> <PUBCHEM_CACTVS_TPSA>
276

> <PUBCHEM_MONOISOTOPIC_WEIGHT>
504.980095

> <PUBCHEM_TOTAL_CHARGE>
0

> <PUBCHEM_HEAVY_ATOM_COUNT>
31

> <PUBCHEM_ATOM_DEF_STEREO_COUNT>
3

> <PUBCHEM_ATOM_UDEF_STEREO_COUNT>
0

> <PUBCHEM_BOND_DEF_STEREO_COUNT>
0

> <PUBCHEM_BOND_UDEF_STEREO_COUNT>
0

> <PUBCHEM_ISOTOPIC_ATOM_COUNT>
0

> <PUBCHEM_COMPONENT_COUNT>
1

> <PUBCHEM_CACTVS_TAUTO_COUNT>
15

> <PUBCHEM_COORDINATE_TYPE>
1
5
255

> <PUBCHEM_BONDANNOTATIONS>
22  17  5
17  27  8
17  28  8
18  28  8
18  29  8
19  27  8
19  31  8
20  30  8
20  31  8
24  26  5
27  29  8
29  30  8
23  5  6

$$$$

