54694369
  -OEChem-07051213112D

 26 26  0     1  0  0  0  0  0999 V2000
    5.0298    0.0424    0.0000 O   0  0  0  0  0  0  0  0  0  0  0  0
    3.3548    2.1302    0.0000 O   0  0  0  0  0  0  0  0  0  0  0  0
    3.1330   -1.7176    0.0000 O   0  0  0  0  0  0  0  0  0  0  0  0
    2.4608    0.3514    0.0000 O   0  0  0  0  0  0  0  0  0  0  0  0
    5.0868    3.1302    0.0000 O   0  0  0  0  0  0  0  0  0  0  0  0
    5.3086   -1.7176    0.0000 O   0  0  0  0  0  0  0  0  0  0  0  0
    4.2208    0.6302    0.0000 C   0  0  2  0  0  0  0  0  0  0  0  0
    4.2208    1.6302    0.0000 C   0  0  2  0  0  0  0  0  0  0  0  0
    3.4118    0.0424    0.0000 C   0  0  0  0  0  0  0  0  0  0  0  0
    3.7208   -0.9086    0.0000 C   0  0  0  0  0  0  0  0  0  0  0  0
    5.0868    2.1302    0.0000 C   0  0  0  0  0  0  0  0  0  0  0  0
    4.7208   -0.9086    0.0000 C   0  0  0  0  0  0  0  0  0  0  0  0
    3.5398   -2.6312    0.0000 C   0  0  0  0  0  0  0  0  0  0  0  0
    2.9520   -3.4402    0.0000 C   0  0  0  0  0  0  0  0  0  0  0  0
    4.9782    1.0161    0.0000 H   0  0  0  0  0  0  0  0  0  0  0  0
    4.2208    2.2502    0.0000 H   0  0  0  0  0  0  0  0  0  0  0  0
    5.2989    1.5476    0.0000 H   0  0  0  0  0  0  0  0  0  0  0  0
    5.6974    2.2379    0.0000 H   0  0  0  0  0  0  0  0  0  0  0  0
    3.3548    2.7502    0.0000 H   0  0  0  0  0  0  0  0  0  0  0  0
    3.9705   -3.0772    0.0000 H   0  0  0  0  0  0  0  0  0  0  0  0
    4.0538   -2.2845    0.0000 H   0  0  0  0  0  0  0  0  0  0  0  0
    2.0000   -0.0634    0.0000 H   0  0  0  0  0  0  0  0  0  0  0  0
    5.6238    3.4402    0.0000 H   0  0  0  0  0  0  0  0  0  0  0  0
    2.4504   -3.0758    0.0000 H   0  0  0  0  0  0  0  0  0  0  0  0
    2.5876   -3.9418    0.0000 H   0  0  0  0  0  0  0  0  0  0  0  0
    3.4536   -3.8046    0.0000 H   0  0  0  0  0  0  0  0  0  0  0  0
  1  7  1  0  0  0  0
  1 12  1  0  0  0  0
  8  2  1  1  0  0  0
  2 19  1  0  0  0  0
  3 10  1  0  0  0  0
  3 13  1  0  0  0  0
  4  9  1  0  0  0  0
  4 22  1  0  0  0  0
  5 11  1  0  0  0  0
  5 23  1  0  0  0  0
  6 12  2  0  0  0  0
  7  8  1  0  0  0  0
  7  9  1  0  0  0  0
  7 15  1  6  0  0  0
  8 11  1  0  0  0  0
  8 16  1  0  0  0  0
  9 10  2  0  0  0  0
 10 12  1  0  0  0  0
 11 17  1  0  0  0  0
 11 18  1  0  0  0  0
 13 14  1  0  0  0  0
 13 20  1  0  0  0  0
 13 21  1  0  0  0  0
 14 24  1  0  0  0  0
 14 25  1  0  0  0  0
 14 26  1  0  0  0  0
M  END
> <PUBCHEM_COMPOUND_CID>
54694369

> <PUBCHEM_COMPOUND_CANONICALIZED>
1

> <PUBCHEM_CACTVS_COMPLEXITY>
259

> <PUBCHEM_CACTVS_HBOND_ACCEPTOR>
6

> <PUBCHEM_CACTVS_HBOND_DONOR>
3

> <PUBCHEM_CACTVS_ROTATABLE_BOND>
4

> <PUBCHEM_CACTVS_SUBSKEYS>
AAADccBwOAAAAAAAAAAAAAAAAAAAAQAAAAAAAAAAAAAAAAAAAAAAGgAACAAACBSggAICCAAABgCIAADQCAIACAAgIAAACABAAEgBFAAAIAQCUAAFwAALIQJAAAAAAAAAAAAAAAAAAAAAAAAAAAAAAAAAAA==

> <PUBCHEM_IUPAC_OPENEYE_NAME>
(2R)-2-[(1S)-1,2-dihydroxyethyl]-4-ethoxy-3-hydroxy-2H-furan-5-one

> <PUBCHEM_IUPAC_CAS_NAME>
(2R)-2-[(1S)-1,2-dihydroxyethyl]-4-ethoxy-3-hydroxy-2H-furan-5-one

> <PUBCHEM_IUPAC_NAME>
(2R)-2-[(1S)-1,2-dihydroxyethyl]-4-ethoxy-3-hydroxy-2H-furan-5-one

> <PUBCHEM_IUPAC_SYSTEMATIC_NAME>
(2R)-2-[(1S)-1,2-bis(oxidanyl)ethyl]-4-ethoxy-3-oxidanyl-2H-furan-5-one

> <PUBCHEM_IUPAC_TRADITIONAL_NAME>
(2R)-2-[(1S)-1,2-dihydroxyethyl]-4-ethoxy-3-hydroxy-2H-furan-5-one

> <PUBCHEM_IUPAC_INCHI>
InChI=1S/C8H12O6/c1-2-13-7-5(11)6(4(10)3-9)14-8(7)12/h4,6,9-11H,2-3H2,1H3/t4-,6+/m0/s1

> <PUBCHEM_IUPAC_INCHIKEY>
GXRFOOHMMLYYNW-UJURSFKZSA-N

> <PUBCHEM_XLOGP3>
-0.9

> <PUBCHEM_EXACT_MASS>
204.063388

> <PUBCHEM_MOLECULAR_FORMULA>
C8H12O6

> <PUBCHEM_MOLECULAR_WEIGHT>
204.17728

> <PUBCHEM_OPENEYE_CAN_SMILES>
CCOC1=C(C(OC1=O)C(CO)O)O

> <PUBCHEM_OPENEYE_ISO_SMILES>
CCOC1=C([C@H](OC1=O)[C@H](CO)O)O

> <PUBCHEM_CACTVS_TPSA>
96.2

> <PUBCHEM_MONOISOTOPIC_WEIGHT>
204.063388

> <PUBCHEM_TOTAL_CHARGE>
0

> <PUBCHEM_HEAVY_ATOM_COUNT>
14

> <PUBCHEM_ATOM_DEF_STEREO_COUNT>
2

> <PUBCHEM_ATOM_UDEF_STEREO_COUNT>
0

> <PUBCHEM_BOND_DEF_STEREO_COUNT>
0

> <PUBCHEM_BOND_UDEF_STEREO_COUNT>
0

> <PUBCHEM_ISOTOPIC_ATOM_COUNT>
0

> <PUBCHEM_COMPONENT_COUNT>
1

> <PUBCHEM_CACTVS_TAUTO_COUNT>
5

> <PUBCHEM_COORDINATE_TYPE>
1
5
255

> <PUBCHEM_BONDANNOTATIONS>
8  2  5
7  15  6

$$$$

