   Color/Form

     * RHOMBIC, BIPYRAMIDAL PLATES IN WATER
     * Tabular crystals
     * Othrorombic and monoclinic modifications

   from [1]HSDB

   Boiling Point
        >360 deg C
   from [2]HSDB

   Melting Point
        170.5 deg C
   from [3]HSDB

   Dissociation Constants

     * pKa= 5.48 @ 25 deg C
     * pKa= 5.3 @ 25 deg C

   from [4]HSDB

   Octanol/Water Partition Coefficient
        log Kow= 1.32
   from [5]HSDB

   pH
        Weak base
   from [6]HSDB

   Solubilities

     * Freely soluble in alcohol, sparingly soluble in ether. Practically
       insoluble in benzene, petroleum ether. One gram dissolves in 2 g
       boiling xylene. Soluble in aqueous solutions of acids and strong
       alkalis.
     * In water, 2.01X10+3 mg/l @ 30 deg C

   from [7]HSDB

   Spectral Properties

     * MAX ABSORPTION (WATER): 245 NM (LOG E= 3.72); 271 NM (LOG E= 3.79);
       278 NM (LOG E= 3.78); SADTLER REFERENCE NUMBER: 1685 (IR, PRISM);
       491 (UV); 4270 (NMR)
     * IR: 4839 (Coblentz Society Spectral Collection)
     * UV: 5-86 (Organic Electronic Spectral Data, Phillips et al, John
       Wiley & Sons, New York)
     * NMR: 4220 (Sadtler Research Laboratories Spectral Collection)
     * MASS: 4045 (National Bureau of Standards EPA-NIH Mass Spectra Data
       Base, NSRDS-NBS-63)

   from [8]HSDB

   Other Chemical/Physical Properties
        Dipole moment: 3.93 (Dioxane)
   from [9]HSDB

   Computed Properties
   Molecular Weight                  118.13594 [g/mol]
   Molecular Formula                 C[7]H[6]N[2]
   XLogP3                            1.3
   H-Bond Donor                      1
   H-Bond Acceptor                   1
   Rotatable Bond Count              0
   Exact Mass                        118.053098
   MonoIsotopic Mass                 118.053098
   Topological Polar Surface Area    28.7
   Heavy Atom Count                  9
   Formal Charge                     0
   Complexity                        103
   Isotope Atom Count                0
   Defined Atom Stereocenter Count   0
   Undefined Atom Stereocenter Count 0
   Defined Bond Stereocenter Count   0
   Undefined Bond Stereocenter Count 0
   Covalently-Bonded Unit Count      1
   Feature 3D Donor Count            1
   Feature 3D Cation Count           1
   Feature 3D Ring Count             2
   Effective Rotor Count             0
   Conformer Sampling RMSD           0.4
   CID Conformer Count               [10]1

References

   1. http://toxnet.nlm.nih.gov/cgi-bin/sis/search/r?dbs+hsdb:@term+@rn+@rel+51-17-2
   2. http://toxnet.nlm.nih.gov/cgi-bin/sis/search/r?dbs+hsdb:@term+@rn+@rel+51-17-2
   3. http://toxnet.nlm.nih.gov/cgi-bin/sis/search/r?dbs+hsdb:@term+@rn+@rel+51-17-2
   4. http://toxnet.nlm.nih.gov/cgi-bin/sis/search/r?dbs+hsdb:@term+@rn+@rel+51-17-2
   5. http://toxnet.nlm.nih.gov/cgi-bin/sis/search/r?dbs+hsdb:@term+@rn+@rel+51-17-2
   6. http://toxnet.nlm.nih.gov/cgi-bin/sis/search/r?dbs+hsdb:@term+@rn+@rel+51-17-2
   7. http://toxnet.nlm.nih.gov/cgi-bin/sis/search/r?dbs+hsdb:@term+@rn+@rel+51-17-2
   8. http://toxnet.nlm.nih.gov/cgi-bin/sis/search/r?dbs+hsdb:@term+@rn+@rel+51-17-2
   9. http://toxnet.nlm.nih.gov/cgi-bin/sis/search/r?dbs+hsdb:@term+@rn+@rel+51-17-2
  10. http://pubchem.ncbi.nlm.nih.gov/vw3d/vw3d.cgi?cid=5798
