442455
  -OEChem-07051212582D

 67 70  0     1  0  0  0  0  0999 V2000
    7.2764   -0.1922    0.0000 O   0  0  0  0  0  0  0  0  0  0  0  0
    9.8600    0.6125    0.0000 O   0  0  0  0  0  0  0  0  0  0  0  0
    4.9641    2.4785    0.0000 O   0  0  0  0  0  0  0  0  0  0  0  0
    5.9687    3.4228    0.0000 O   0  0  0  0  0  0  0  0  0  0  0  0
    3.7320   -0.3875    0.0000 O   0  0  0  0  0  0  0  0  0  0  0  0
    6.3301   -1.8875    0.0000 O   0  0  0  0  0  0  0  0  0  0  0  0
   10.1653    4.6813    0.0000 O   0  0  0  0  0  0  0  0  0  0  0  0
   10.5225    2.9864    0.0000 O   0  0  0  0  0  0  0  0  0  0  0  0
    7.8600    0.6125    0.0000 C   0  0  1  0  0  0  0  0  0  0  0  0
    7.2764    1.4173    0.0000 C   0  0  2  0  0  0  0  0  0  0  0  0
    8.8600    0.6125    0.0000 C   0  0  0  0  0  0  0  0  0  0  0  0
    6.3301    1.1125    0.0000 C   0  0  0  0  0  0  0  0  0  0  0  0
    6.3301    0.1125    0.0000 C   0  0  0  0  0  0  0  0  0  0  0  0
    7.5870    2.3678    0.0000 C   0  0  0  0  0  0  0  0  0  0  0  0
    8.8600   -0.3875    0.0000 C   0  0  0  0  0  0  0  0  0  0  0  0
    8.8600    1.6125    0.0000 C   0  0  0  0  0  0  0  0  0  0  0  0
    5.4641    1.6125    0.0000 C   0  0  0  0  0  0  0  0  0  0  0  0
    5.4641   -0.3875    0.0000 C   0  0  0  0  0  0  0  0  0  0  0  0
    6.9192    3.1121    0.0000 C   0  0  0  0  0  0  0  0  0  0  0  0
    8.5655    2.5740    0.0000 C   0  0  0  0  0  0  0  0  0  0  0  0
    4.5981    0.1125    0.0000 C   0  0  0  0  0  0  0  0  0  0  0  0
    4.5981    1.1125    0.0000 C   0  0  0  0  0  0  0  0  0  0  0  0
    5.4641   -1.3875    0.0000 C   0  0  0  0  0  0  0  0  0  0  0  0
    8.8762    3.5245    0.0000 C   0  0  0  0  0  0  0  0  0  0  0  0
    7.2298    4.0626    0.0000 C   0  0  0  0  0  0  0  0  0  0  0  0
    4.5981   -1.8875    0.0000 C   0  0  0  0  0  0  0  0  0  0  0  0
    8.2083    4.2688    0.0000 C   0  0  0  0  0  0  0  0  0  0  0  0
    4.5981   -2.8875    0.0000 C   0  0  0  0  0  0  0  0  0  0  0  0
    3.9641    2.4785    0.0000 C   0  0  0  0  0  0  0  0  0  0  0  0
    9.8547    3.7307    0.0000 C   0  0  0  0  0  0  0  0  0  0  0  0
    3.7320   -3.3875    0.0000 C   0  0  0  0  0  0  0  0  0  0  0  0
    2.8660   -2.8875    0.0000 C   0  0  0  0  0  0  0  0  0  0  0  0
    3.7320   -4.3875    0.0000 C   0  0  0  0  0  0  0  0  0  0  0  0
    2.0000   -3.3875    0.0000 C   0  0  0  0  0  0  0  0  0  0  0  0
    2.8660   -4.8875    0.0000 C   0  0  0  0  0  0  0  0  0  0  0  0
   11.1439    4.8875    0.0000 C   0  0  0  0  0  0  0  0  0  0  0  0
    2.0000   -4.3875    0.0000 C   0  0  0  0  0  0  0  0  0  0  0  0
    8.2462   -0.1447    0.0000 H   0  0  0  0  0  0  0  0  0  0  0  0
    8.1160    1.5491    0.0000 H   0  0  0  0  0  0  0  0  0  0  0  0
    8.2400   -0.3875    0.0000 H   0  0  0  0  0  0  0  0  0  0  0  0
    8.8600   -1.0075    0.0000 H   0  0  0  0  0  0  0  0  0  0  0  0
    9.4800   -0.3875    0.0000 H   0  0  0  0  0  0  0  0  0  0  0  0
    9.4800    1.6125    0.0000 H   0  0  0  0  0  0  0  0  0  0  0  0
    8.8600    2.2325    0.0000 H   0  0  0  0  0  0  0  0  0  0  0  0
    8.2400    1.6125    0.0000 H   0  0  0  0  0  0  0  0  0  0  0  0
   10.1700    0.0756    0.0000 H   0  0  0  0  0  0  0  0  0  0  0  0
    8.9796    2.1125    0.0000 H   0  0  0  0  0  0  0  0  0  0  0  0
    4.0611    1.4225    0.0000 H   0  0  0  0  0  0  0  0  0  0  0  0
    6.8158    4.5241    0.0000 H   0  0  0  0  0  0  0  0  0  0  0  0
    4.3860   -1.3049    0.0000 H   0  0  0  0  0  0  0  0  0  0  0  0
    3.9875   -1.9951    0.0000 H   0  0  0  0  0  0  0  0  0  0  0  0
    8.4009    4.8581    0.0000 H   0  0  0  0  0  0  0  0  0  0  0  0
    4.8101   -3.4701    0.0000 H   0  0  0  0  0  0  0  0  0  0  0  0
    5.2087   -2.7798    0.0000 H   0  0  0  0  0  0  0  0  0  0  0  0
    5.8408    4.0294    0.0000 H   0  0  0  0  0  0  0  0  0  0  0  0
    3.1951   -0.0775    0.0000 H   0  0  0  0  0  0  0  0  0  0  0  0
    3.9641    3.0986    0.0000 H   0  0  0  0  0  0  0  0  0  0  0  0
    3.3441    2.4785    0.0000 H   0  0  0  0  0  0  0  0  0  0  0  0
    3.9641    1.8586    0.0000 H   0  0  0  0  0  0  0  0  0  0  0  0
    2.8660   -2.2675    0.0000 H   0  0  0  0  0  0  0  0  0  0  0  0
    4.2690   -4.6975    0.0000 H   0  0  0  0  0  0  0  0  0  0  0  0
    1.4631   -3.0775    0.0000 H   0  0  0  0  0  0  0  0  0  0  0  0
    2.8660   -5.5075    0.0000 H   0  0  0  0  0  0  0  0  0  0  0  0
   11.2717    4.2808    0.0000 H   0  0  0  0  0  0  0  0  0  0  0  0
   11.7505    5.0153    0.0000 H   0  0  0  0  0  0  0  0  0  0  0  0
   11.0160    5.4942    0.0000 H   0  0  0  0  0  0  0  0  0  0  0  0
    1.4631   -4.6975    0.0000 H   0  0  0  0  0  0  0  0  0  0  0  0
  1  9  1  0  0  0  0
  1 13  1  0  0  0  0
  2 11  1  0  0  0  0
  2 46  1  0  0  0  0
  3 17  1  0  0  0  0
  3 29  1  0  0  0  0
  4 19  1  0  0  0  0
  4 55  1  0  0  0  0
  5 21  1  0  0  0  0
  5 56  1  0  0  0  0
  6 23  2  0  0  0  0
  7 30  1  0  0  0  0
  7 36  1  0  0  0  0
  8 30  2  0  0  0  0
  9 10  1  0  0  0  0
  9 11  1  0  0  0  0
  9 38  1  6  0  0  0
 10 12  1  0  0  0  0
 10 14  1  0  0  0  0
 10 39  1  1  0  0  0
 11 15  1  0  0  0  0
 11 16  1  0  0  0  0
 12 13  1  0  0  0  0
 12 17  2  0  0  0  0
 13 18  2  0  0  0  0
 14 19  2  0  0  0  0
 14 20  1  0  0  0  0
 15 40  1  0  0  0  0
 15 41  1  0  0  0  0
 15 42  1  0  0  0  0
 16 43  1  0  0  0  0
 16 44  1  0  0  0  0
 16 45  1  0  0  0  0
 17 22  1  0  0  0  0
 18 21  1  0  0  0  0
 18 23  1  0  0  0  0
 19 25  1  0  0  0  0
 20 24  2  0  0  0  0
 20 47  1  0  0  0  0
 21 22  2  0  0  0  0
 22 48  1  0  0  0  0
 23 26  1  0  0  0  0
 24 27  1  0  0  0  0
 24 30  1  0  0  0  0
 25 27  2  0  0  0  0
 25 49  1  0  0  0  0
 26 28  1  0  0  0  0
 26 50  1  0  0  0  0
 26 51  1  0  0  0  0
 27 52  1  0  0  0  0
 28 31  1  0  0  0  0
 28 53  1  0  0  0  0
 28 54  1  0  0  0  0
 29 57  1  0  0  0  0
 29 58  1  0  0  0  0
 29 59  1  0  0  0  0
 31 32  2  0  0  0  0
 31 33  1  0  0  0  0
 32 34  1  0  0  0  0
 32 60  1  0  0  0  0
 33 35  2  0  0  0  0
 33 61  1  0  0  0  0
 34 37  2  0  0  0  0
 34 62  1  0  0  0  0
 35 37  1  0  0  0  0
 35 63  1  0  0  0  0
 36 64  1  0  0  0  0
 36 65  1  0  0  0  0
 36 66  1  0  0  0  0
 37 67  1  0  0  0  0
M  END
> <PUBCHEM_COMPOUND_CID>
442455

> <PUBCHEM_COMPOUND_CANONICALIZED>
1

> <PUBCHEM_CACTVS_COMPLEXITY>
793

> <PUBCHEM_CACTVS_HBOND_ACCEPTOR>
8

> <PUBCHEM_CACTVS_HBOND_DONOR>
3

> <PUBCHEM_CACTVS_ROTATABLE_BOND>
9

> <PUBCHEM_CACTVS_SUBSKEYS>
AAADceB4PAAAAAAAAAAAAAAAAAAAASAAAAAwYMAAAAAAAEgBUAAAGgAACAAADVSgmAIyDoAABgCIAqDSCAACCAAkIAAIiAEGCMgNJzaGNRqCeWCl4BULuYfI7PzOoAACCAAIAABAAAQQABAAAAAAAAAAAA==

> <PUBCHEM_IUPAC_OPENEYE_NAME>
methyl 4-hydroxy-3-[(2S,3S)-6-hydroxy-2-(1-hydroxy-1-methyl-ethyl)-4-methoxy-7-(3-phenylpropanoyl)-2,3-dihydrobenzofuran-3-yl]benzoate

> <PUBCHEM_IUPAC_CAS_NAME>
4-hydroxy-3-[(2S,3S)-6-hydroxy-2-(2-hydroxypropan-2-yl)-4-methoxy-7-(1-oxo-3-phenylpropyl)-2,3-dihydrobenzofuran-3-yl]benzoic acid methyl ester

> <PUBCHEM_IUPAC_NAME>
methyl 4-hydroxy-3-[(2S,3S)-6-hydroxy-2-(2-hydroxypropan-2-yl)-4-methoxy-7-(3-phenylpropanoyl)-2,3-dihydro-1-benzofuran-3-yl]benzoate

> <PUBCHEM_IUPAC_SYSTEMATIC_NAME>
methyl 3-[(2S,3S)-4-methoxy-6-oxidanyl-2-(2-oxidanylpropan-2-yl)-7-(3-phenylpropanoyl)-2,3-dihydro-1-benzofuran-3-yl]-4-oxidanyl-benzoate

> <PUBCHEM_IUPAC_TRADITIONAL_NAME>
3-[(2S,3S)-7-hydrocinnamoyl-6-hydroxy-2-(1-hydroxy-1-methyl-ethyl)-4-methoxy-coumaran-3-yl]-4-hydroxy-benzoic acid methyl ester

> <PUBCHEM_IUPAC_INCHI>
InChI=1S/C29H30O8/c1-29(2,34)27-23(18-14-17(28(33)36-4)11-13-19(18)30)25-22(35-3)15-21(32)24(26(25)37-27)20(31)12-10-16-8-6-5-7-9-16/h5-9,11,13-15,23,27,30,32,34H,10,12H2,1-4H3/t23-,27-/m0/s1

> <PUBCHEM_IUPAC_INCHIKEY>
KGNWKZGVYSTAOX-HOFKKMOUSA-N

> <PUBCHEM_XLOGP3_AA>
4.6

> <PUBCHEM_EXACT_MASS>
506.194068

> <PUBCHEM_MOLECULAR_FORMULA>
C29H30O8

> <PUBCHEM_MOLECULAR_WEIGHT>
506.5437

> <PUBCHEM_OPENEYE_CAN_SMILES>
CC(C)(C1C(C2=C(C=C(C(=C2O1)C(=O)CCC3=CC=CC=C3)O)OC)C4=C(C=CC(=C4)C(=O)OC)O)O

> <PUBCHEM_OPENEYE_ISO_SMILES>
CC(C)([C@@H]1[C@H](C2=C(C=C(C(=C2O1)C(=O)CCC3=CC=CC=C3)O)OC)C4=C(C=CC(=C4)C(=O)OC)O)O

> <PUBCHEM_CACTVS_TPSA>
123

> <PUBCHEM_MONOISOTOPIC_WEIGHT>
506.194068

> <PUBCHEM_TOTAL_CHARGE>
0

> <PUBCHEM_HEAVY_ATOM_COUNT>
37

> <PUBCHEM_ATOM_DEF_STEREO_COUNT>
2

> <PUBCHEM_ATOM_UDEF_STEREO_COUNT>
0

> <PUBCHEM_BOND_DEF_STEREO_COUNT>
0

> <PUBCHEM_BOND_UDEF_STEREO_COUNT>
0

> <PUBCHEM_ISOTOPIC_ATOM_COUNT>
0

> <PUBCHEM_COMPONENT_COUNT>
1

> <PUBCHEM_CACTVS_TAUTO_COUNT>
45

> <PUBCHEM_COORDINATE_TYPE>
1
5
255

> <PUBCHEM_BONDANNOTATIONS>
10  39  5
12  13  8
12  17  8
13  18  8
14  19  8
14  20  8
17  22  8
18  21  8
19  25  8
20  24  8
21  22  8
24  27  8
25  27  8
31  32  8
31  33  8
32  34  8
33  35  8
34  37  8
35  37  8
9  38  6

$$$$

