11168362
  -OEChem-07051213102D

 69 73  0     1  0  0  0  0  0999 V2000
    7.3358   -0.9801    0.0000 O   0  0  0  0  0  0  0  0  0  0  0  0
   10.4045   -0.9801    0.0000 O   0  0  0  0  0  0  0  0  0  0  0  0
    6.6876    3.6332    0.0000 O   0  0  0  0  0  0  0  0  0  0  0  0
    5.0403    3.0980    0.0000 O   0  0  0  0  0  0  0  0  0  0  0  0
    8.6439    3.2174    0.0000 O   0  0  0  0  0  0  0  0  0  0  0  0
    6.0695    5.5353    0.0000 O   0  0  0  0  0  0  0  0  0  0  0  0
    4.1132    5.9511    0.0000 O   0  0  0  0  0  0  0  0  0  0  0  0
    2.7750    4.4648    0.0000 O   0  0  0  0  0  0  0  0  0  0  0  0
    9.1066   -5.1744    0.0000 O   0  0  0  0  0  0  0  0  0  0  0  0
   11.0636   -5.5869    0.0000 O   0  0  0  0  0  0  0  0  0  0  0  0
    2.4149    2.7706    0.0000 O   0  0  0  0  0  0  0  0  0  0  0  0
    8.8747   -0.4801    0.0000 C   0  0  2  0  0  0  0  0  0  0  0  0
    8.8747   -1.4801    0.0000 C   0  0  2  0  0  0  0  0  0  0  0  0
    7.9236   -0.1710    0.0000 C   0  0  2  0  0  0  0  0  0  0  0  0
    9.8209   -1.7848    0.0000 C   0  0  2  0  0  0  0  0  0  0  0  0
    7.9236   -1.7891    0.0000 C   0  0  0  0  0  0  0  0  0  0  0  0
    9.8209   -0.1753    0.0000 C   0  0  0  0  0  0  0  0  0  0  0  0
    7.6146    0.7800    0.0000 C   0  0  0  0  0  0  0  0  0  0  0  0
   10.1316   -2.7353    0.0000 C   0  0  0  0  0  0  0  0  0  0  0  0
    8.2838    1.5232    0.0000 C   0  0  0  0  0  0  0  0  0  0  0  0
    6.6365    0.9879    0.0000 C   0  0  0  0  0  0  0  0  0  0  0  0
    9.4637   -3.4796    0.0000 C   0  0  0  0  0  0  0  0  0  0  0  0
   11.1101   -2.9415    0.0000 C   0  0  0  0  0  0  0  0  0  0  0  0
    7.9747    2.4742    0.0000 C   0  0  0  0  0  0  0  0  0  0  0  0
    6.3274    1.9390    0.0000 C   0  0  0  0  0  0  0  0  0  0  0  0
    5.4004    4.7922    0.0000 C   0  0  2  0  0  0  0  0  0  0  0  0
    4.4222    5.0001    0.0000 C   0  0  2  0  0  0  0  0  0  0  0  0
    5.7094    3.8411    0.0000 C   0  0  2  0  0  0  0  0  0  0  0  0
    6.9966    2.6821    0.0000 C   0  0  0  0  0  0  0  0  0  0  0  0
    3.7531    4.2569    0.0000 C   0  0  1  0  0  0  0  0  0  0  0  0
    4.0621    3.3059    0.0000 C   0  0  1  0  0  0  0  0  0  0  0  0
    9.7744   -4.4301    0.0000 C   0  0  0  0  0  0  0  0  0  0  0  0
   11.4207   -3.8920    0.0000 C   0  0  0  0  0  0  0  0  0  0  0  0
   10.7529   -4.6364    0.0000 C   0  0  0  0  0  0  0  0  0  0  0  0
    3.3930    2.5627    0.0000 C   0  0  0  0  0  0  0  0  0  0  0  0
    9.6220    3.0094    0.0000 C   0  0  0  0  0  0  0  0  0  0  0  0
    9.4172   -6.1250    0.0000 C   0  0  0  0  0  0  0  0  0  0  0  0
    8.8758    0.3699    0.0000 H   0  0  0  0  0  0  0  0  0  0  0  0
    8.8758   -2.3301    0.0000 H   0  0  0  0  0  0  0  0  0  0  0  0
    7.3113   -0.0741    0.0000 H   0  0  0  0  0  0  0  0  0  0  0  0
   10.4334   -1.8810    0.0000 H   0  0  0  0  0  0  0  0  0  0  0  0
    7.3867   -2.0991    0.0000 H   0  0  0  0  0  0  0  0  0  0  0  0
    8.1758   -2.3555    0.0000 H   0  0  0  0  0  0  0  0  0  0  0  0
   10.3583    0.1339    0.0000 H   0  0  0  0  0  0  0  0  0  0  0  0
    9.5699    0.3916    0.0000 H   0  0  0  0  0  0  0  0  0  0  0  0
    8.8902    1.3943    0.0000 H   0  0  0  0  0  0  0  0  0  0  0  0
    6.2216    0.5272    0.0000 H   0  0  0  0  0  0  0  0  0  0  0  0
    8.8570   -3.3518    0.0000 H   0  0  0  0  0  0  0  0  0  0  0  0
   11.5241   -2.4801    0.0000 H   0  0  0  0  0  0  0  0  0  0  0  0
    5.2088    5.3818    0.0000 H   0  0  0  0  0  0  0  0  0  0  0  0
    3.8158    5.1290    0.0000 H   0  0  0  0  0  0  0  0  0  0  0  0
    6.1243    4.3018    0.0000 H   0  0  0  0  0  0  0  0  0  0  0  0
    5.7210    2.0679    0.0000 H   0  0  0  0  0  0  0  0  0  0  0  0
    3.3383    3.7962    0.0000 H   0  0  0  0  0  0  0  0  0  0  0  0
    4.2537    2.7162    0.0000 H   0  0  0  0  0  0  0  0  0  0  0  0
   12.0274   -4.0199    0.0000 H   0  0  0  0  0  0  0  0  0  0  0  0
    3.1608    1.9879    0.0000 H   0  0  0  0  0  0  0  0  0  0  0  0
    3.9188    2.2342    0.0000 H   0  0  0  0  0  0  0  0  0  0  0  0
    5.8779    6.1250    0.0000 H   0  0  0  0  0  0  0  0  0  0  0  0
    3.5068    6.0800    0.0000 H   0  0  0  0  0  0  0  0  0  0  0  0
    2.5834    5.0545    0.0000 H   0  0  0  0  0  0  0  0  0  0  0  0
   11.6702   -5.7147    0.0000 H   0  0  0  0  0  0  0  0  0  0  0  0
    9.4931    2.4030    0.0000 H   0  0  0  0  0  0  0  0  0  0  0  0
   10.2285    2.8806    0.0000 H   0  0  0  0  0  0  0  0  0  0  0  0
    9.7509    3.6159    0.0000 H   0  0  0  0  0  0  0  0  0  0  0  0
    2.0000    2.3099    0.0000 H   0  0  0  0  0  0  0  0  0  0  0  0
    8.8279   -6.3176    0.0000 H   0  0  0  0  0  0  0  0  0  0  0  0
    9.6098   -6.7143    0.0000 H   0  0  0  0  0  0  0  0  0  0  0  0
   10.0065   -5.9323    0.0000 H   0  0  0  0  0  0  0  0  0  0  0  0
  1 14  1  0  0  0  0
  1 16  1  0  0  0  0
  2 15  1  0  0  0  0
  2 17  1  0  0  0  0
 28  3  1  6  0  0  0
  3 29  1  0  0  0  0
  4 28  1  0  0  0  0
  4 31  1  0  0  0  0
  5 24  1  0  0  0  0
  5 36  1  0  0  0  0
 26  6  1  1  0  0  0
  6 59  1  0  0  0  0
 27  7  1  6  0  0  0
  7 60  1  0  0  0  0
 30  8  1  1  0  0  0
  8 61  1  0  0  0  0
  9 32  1  0  0  0  0
  9 37  1  0  0  0  0
 10 34  1  0  0  0  0
 10 62  1  0  0  0  0
 11 35  1  0  0  0  0
 11 66  1  0  0  0  0
 12 13  1  0  0  0  0
 12 14  1  0  0  0  0
 12 17  1  0  0  0  0
 12 38  1  1  0  0  0
 13 15  1  0  0  0  0
 13 16  1  0  0  0  0
 13 39  1  1  0  0  0
 14 18  1  1  0  0  0
 14 40  1  0  0  0  0
 15 19  1  1  0  0  0
 15 41  1  0  0  0  0
 16 42  1  0  0  0  0
 16 43  1  0  0  0  0
 17 44  1  0  0  0  0
 17 45  1  0  0  0  0
 18 20  2  0  0  0  0
 18 21  1  0  0  0  0
 19 22  2  0  0  0  0
 19 23  1  0  0  0  0
 20 24  1  0  0  0  0
 20 46  1  0  0  0  0
 21 25  2  0  0  0  0
 21 47  1  0  0  0  0
 22 32  1  0  0  0  0
 22 48  1  0  0  0  0
 23 33  2  0  0  0  0
 23 49  1  0  0  0  0
 24 29  2  0  0  0  0
 25 29  1  0  0  0  0
 25 53  1  0  0  0  0
 26 27  1  0  0  0  0
 26 28  1  0  0  0  0
 26 50  1  0  0  0  0
 27 30  1  0  0  0  0
 27 51  1  0  0  0  0
 28 52  1  0  0  0  0
 30 31  1  0  0  0  0
 30 54  1  0  0  0  0
 31 35  1  6  0  0  0
 31 55  1  0  0  0  0
 32 34  2  0  0  0  0
 33 34  1  0  0  0  0
 33 56  1  0  0  0  0
 35 57  1  0  0  0  0
 35 58  1  0  0  0  0
 36 63  1  0  0  0  0
 36 64  1  0  0  0  0
 36 65  1  0  0  0  0
 37 67  1  0  0  0  0
 37 68  1  0  0  0  0
 37 69  1  0  0  0  0
M  END
> <PUBCHEM_COMPOUND_CID>
11168362

> <PUBCHEM_COMPOUND_CANONICALIZED>
1

> <PUBCHEM_CACTVS_COMPLEXITY>
741

> <PUBCHEM_CACTVS_HBOND_ACCEPTOR>
11

> <PUBCHEM_CACTVS_HBOND_DONOR>
5

> <PUBCHEM_CACTVS_ROTATABLE_BOND>
7

> <PUBCHEM_CACTVS_SUBSKEYS>
AAADcfB4PAAAAAAAAAAAAAAAAAAAASJAAAA0YIAAAAASAAABQAAAGgAACAAADRSwmAMyDoAABgCAAiBCAAACCAAgIAAIiAAGiIgdNiKGMRqieCOlwBEPuAfA4PwOoAABAAAAQABAAAIAAACAAAAAAAAAAA==

> <PUBCHEM_IUPAC_OPENEYE_NAME>
(2S,3R,4S,5S,6R)-2-[4-[(3R,3aS,6R,6aS)-3-(4-hydroxy-3-methoxy-phenyl)-1,3,3a,4,6,6a-hexahydrofuro[3,4-c]furan-6-yl]-2-methoxy-phenoxy]-6-(hydroxymethyl)tetrahydropyran-3,4,5-triol

> <PUBCHEM_IUPAC_CAS_NAME>
(2S,3R,4S,5S,6R)-2-[4-[(3R,3aS,6R,6aS)-3-(4-hydroxy-3-methoxyphenyl)-1,3,3a,4,6,6a-hexahydrofuro[3,4-c]furan-6-yl]-2-methoxyphenoxy]-6-(hydroxymethyl)oxane-3,4,5-triol

> <PUBCHEM_IUPAC_NAME>
(2S,3R,4S,5S,6R)-2-[4-[(3R,3aS,6R,6aS)-3-(4-hydroxy-3-methoxyphenyl)-1,3,3a,4,6,6a-hexahydrofuro[3,4-c]furan-6-yl]-2-methoxyphenoxy]-6-(hydroxymethyl)oxane-3,4,5-triol

> <PUBCHEM_IUPAC_SYSTEMATIC_NAME>
(2S,3R,4S,5S,6R)-2-[4-[(3R,3aS,6R,6aS)-3-(3-methoxy-4-oxidanyl-phenyl)-1,3,3a,4,6,6a-hexahydrofuro[3,4-c]furan-6-yl]-2-methoxy-phenoxy]-6-(hydroxymethyl)oxane-3,4,5-triol

> <PUBCHEM_IUPAC_TRADITIONAL_NAME>
(2S,3R,4S,5S,6R)-2-[4-[(3R,3aS,6R,6aS)-3-(4-hydroxy-3-methoxy-phenyl)-1,3,3a,4,6,6a-hexahydrofuro[3,4-c]furan-6-yl]-2-methoxy-phenoxy]-6-methylol-tetrahydropyran-3,4,5-triol

> <PUBCHEM_IUPAC_INCHI>
InChI=1S/C26H32O11/c1-32-18-7-12(3-5-16(18)28)24-14-10-35-25(15(14)11-34-24)13-4-6-17(19(8-13)33-2)36-26-23(31)22(30)21(29)20(9-27)37-26/h3-8,14-15,20-31H,9-11H2,1-2H3/t14-,15-,20-,21-,22+,23-,24+,25+,26-/m1/s1

> <PUBCHEM_IUPAC_INCHIKEY>
QLJNETOQFQXTLI-JKUDBEEXSA-N

> <PUBCHEM_XLOGP3_AA>
0.5

> <PUBCHEM_EXACT_MASS>
520.194462

> <PUBCHEM_MOLECULAR_FORMULA>
C26H32O11

> <PUBCHEM_MOLECULAR_WEIGHT>
520.52568

> <PUBCHEM_OPENEYE_CAN_SMILES>
COC1=C(C=CC(=C1)C2C3COC(C3CO2)C4=CC(=C(C=C4)OC5C(C(C(C(O5)CO)O)O)O)OC)O

> <PUBCHEM_OPENEYE_ISO_SMILES>
COC1=C(C=CC(=C1)[C@H]2[C@@H]3CO[C@H]([C@@H]3CO2)C4=CC(=C(C=C4)O[C@H]5[C@@H]([C@H]([C@@H]([C@H](O5)CO)O)O)O)OC)O

> <PUBCHEM_CACTVS_TPSA>
157

> <PUBCHEM_MONOISOTOPIC_WEIGHT>
520.194462

> <PUBCHEM_TOTAL_CHARGE>
0

> <PUBCHEM_HEAVY_ATOM_COUNT>
37

> <PUBCHEM_ATOM_DEF_STEREO_COUNT>
9

> <PUBCHEM_ATOM_UDEF_STEREO_COUNT>
0

> <PUBCHEM_BOND_DEF_STEREO_COUNT>
0

> <PUBCHEM_BOND_UDEF_STEREO_COUNT>
0

> <PUBCHEM_ISOTOPIC_ATOM_COUNT>
0

> <PUBCHEM_COMPONENT_COUNT>
1

> <PUBCHEM_CACTVS_TAUTO_COUNT>
3

> <PUBCHEM_COORDINATE_TYPE>
1
5
255

> <PUBCHEM_BONDANNOTATIONS>
12  38  5
13  39  5
14  18  5
15  19  5
18  20  8
18  21  8
19  22  8
19  23  8
20  24  8
21  25  8
22  32  8
23  33  8
24  29  8
25  29  8
28  3  6
31  35  6
32  34  8
33  34  8
26  6  5
27  7  6
30  8  5

$$$$

