   Color/Form

     * COLORLESS CRYSTALS WHICH DARKEN IN AIR TO A REDDISH-PURPLE COLOR
     * White to red crystalls [Note: Darkens in air to reddish-purple
       color].

   from [1]HSDB

   Odor
        Faint aromatic odor
   from [2]HSDB

   Boiling Point
        306 deg C, also stated as 294 deg C
   from [3]HSDB

   Melting Point
        111-113 deg C
   from [4]HSDB

   Corrosivity
        NOT CORROSIVE
   from [5]HSDB

   Density/Specific Gravity
        1.061 @ 98 deg C/4 deg C
   from [6]HSDB

   Dissociation Constants
        pKa = 4.16
   from [7]HSDB

   Octanol/Water Partition Coefficient
        log Kow =2.28
   from [8]HSDB

   pH
        WEAK BASE
   from [9]HSDB

   Solubilities

     * Soluble in alcohol, ether
     * SOL IN MANY ORG SOLVENTS
     * In water, 6.40 mg/L @ 18 deg C

   from [10]HSDB

   Spectral Properties

     * MAX ABSORPTION (ALCOHOL): 236 NM (LOG E= 4.78); 280 NM (LOG E=
       3.82); 292 NM (LOG E= 3.73); 340 NM (LOG E= 3.28); SADTLER REF
       NUMBER: 46 (IR, PRISM)
     * Index of refraction: 1.6493 @ 98 deg C/D
     * Intense mass spectral peaks: 143 m/z (100%), 115 m/z (38%), 144 m/z
       (14%), 116 m/z (13%)
     * IR: 2647 (Coblentz Society Spectral Collection)
     * UV: 22 (Sadtler Research Laboratories Spectral Collection)
     * MASS: 3969 (NIST/EPA/MSDC Mass Spectral Database, 1990 Version)

   from [11]HSDB

   Vapor Density
        4.95 (Air = 1)
   from [12]HSDB

   Vapor Pressure
        2.56X10-4 mm Hg @ 25 deg C
   from [13]HSDB

   Other Chemical/Physical Properties

     * Reduces warm ammoniacal silver nitrate
     * MP: 109.5 deg C /Technical/
     * Henry's Law constant = 8.10X10-8 atm-cu m/mol @ 25 deg C [Abraham
       MH et al; J Pharm Sci 83: 1085-100 (1994)] [14]PubMed Abstract
     * Hydroxyl radical reaction rate constant = 2.0X10-10 cu
       cm/molecule-sec @ 25 deg C /Estimated/

   from [15]HSDB

   Computed Properties
   Molecular Weight                  143.18516 [g/mol]
   Molecular Formula                 C[10]H[9]N
   XLogP3                            2.3
   H-Bond Donor                      1
   H-Bond Acceptor                   1
   Rotatable Bond Count              0
   Exact Mass                        143.073499
   MonoIsotopic Mass                 143.073499
   Topological Polar Surface Area    26
   Heavy Atom Count                  11
   Formal Charge                     0
   Complexity                        133
   Isotope Atom Count                0
   Defined Atom Stereocenter Count   0
   Undefined Atom Stereocenter Count 0
   Defined Bond Stereocenter Count   0
   Undefined Bond Stereocenter Count 0
   Covalently-Bonded Unit Count      1
   Feature 3D Donor Count            1
   Feature 3D Cation Count           1
   Feature 3D Ring Count             2
   Effective Rotor Count             0
   Conformer Sampling RMSD           0.4
   CID Conformer Count               [16]1

References

   1. http://toxnet.nlm.nih.gov/cgi-bin/sis/search/r?dbs+hsdb:@term+@rn+@rel+91-59-8
   2. http://toxnet.nlm.nih.gov/cgi-bin/sis/search/r?dbs+hsdb:@term+@rn+@rel+91-59-8
   3. http://toxnet.nlm.nih.gov/cgi-bin/sis/search/r?dbs+hsdb:@term+@rn+@rel+91-59-8
   4. http://toxnet.nlm.nih.gov/cgi-bin/sis/search/r?dbs+hsdb:@term+@rn+@rel+91-59-8
   5. http://toxnet.nlm.nih.gov/cgi-bin/sis/search/r?dbs+hsdb:@term+@rn+@rel+91-59-8
   6. http://toxnet.nlm.nih.gov/cgi-bin/sis/search/r?dbs+hsdb:@term+@rn+@rel+91-59-8
   7. http://toxnet.nlm.nih.gov/cgi-bin/sis/search/r?dbs+hsdb:@term+@rn+@rel+91-59-8
   8. http://toxnet.nlm.nih.gov/cgi-bin/sis/search/r?dbs+hsdb:@term+@rn+@rel+91-59-8
   9. http://toxnet.nlm.nih.gov/cgi-bin/sis/search/r?dbs+hsdb:@term+@rn+@rel+91-59-8
  10. http://toxnet.nlm.nih.gov/cgi-bin/sis/search/r?dbs+hsdb:@term+@rn+@rel+91-59-8
  11. http://toxnet.nlm.nih.gov/cgi-bin/sis/search/r?dbs+hsdb:@term+@rn+@rel+91-59-8
  12. http://toxnet.nlm.nih.gov/cgi-bin/sis/search/r?dbs+hsdb:@term+@rn+@rel+91-59-8
  13. http://toxnet.nlm.nih.gov/cgi-bin/sis/search/r?dbs+hsdb:@term+@rn+@rel+91-59-8
  14. http://www.ncbi.nlm.nih.gov/entrez/query.fcgi?cmd=Retrieve&db=pubmed&dopt=Abstract&list_uids=7983591
  15. http://toxnet.nlm.nih.gov/cgi-bin/sis/search/r?dbs+hsdb:@term+@rn+@rel+91-59-8
  16. http://pubchem.ncbi.nlm.nih.gov/vw3d/vw3d.cgi?cid=7057
