   Color/Form

     * Colorless solid
     * Gray to dark brown pellet

   from [1]HSDB

   Odor

     * Odorless
     * Faint musty odor

   from [2]HSDB

   Melting Point
        161.5-164 deg C
   from [3]HSDB

   Corrosivity
        Noncorrosive in commercial packaging
   from [4]HSDB

   Dissociation Constants
        pKa = 1.20
   from [5]HSDB

   Octanol/Water Partition Coefficient
        log Kow = 1.79
   from [6]HSDB

   Solubilities

     * Solubility in benzene 3.7, hexane 6.1, 2-methoxyethanol 60,
       acetonitrile 60, acetone 70, methanol 170, chloroform 250 (all in
       g/L, 25 deg C)
     * In water, 2.5X10+3 mg/L at 25 deg C

   from [7]HSDB

   Vapor Pressure
        3.0X10-7 mm Hg at 25 deg C (0.04 mPa, 25 deg C, gas saturation
   method)
   from [8]HSDB

   Other Chemical/Physical Properties

     * Stable in aqueous media between pH 5 and 9. On hydrolysis, DT50 (25
       deg C) >64 days (pH 3, 6, and 9).
     * Dry flowable and wettable powder disperse in water. Pellets are not
       soluble, but disintegrate in water. Granules not soluble.
     * Henry's Law constant = 1.2X10-10 atm-cu m/mol (1.31X10-5 Pa-cu
       m/mol) at 25 deg C
     * Hydroxyl radical reaction rate constant = 3.3X10-12 cu cm/molec-sec
       at 25 deg C (est)

   from [9]HSDB

   Computed Properties
   Molecular Weight                  228.31454 [g/mol]
   Molecular Formula                 C[9]H[16]N[4]OS
   XLogP3-AA                         1.6
   H-Bond Donor                      1
   H-Bond Acceptor                   4
   Rotatable Bond Count              2
   Tautomer Count                    2
   Exact Mass                        228.104482
   MonoIsotopic Mass                 228.104482
   Topological Polar Surface Area    86.4
   Heavy Atom Count                  15
   Formal Charge                     0
   Complexity                        241
   Isotope Atom Count                0
   Defined Atom Stereocenter Count   0
   Undefined Atom Stereocenter Count 0
   Defined Bond Stereocenter Count   0
   Undefined Bond Stereocenter Count 0
   Covalently-Bonded Unit Count      1
   Feature 3D Acceptor Count         2
   Feature 3D Donor Count            1
   Feature 3D Hydrophobe Count       1
   Feature 3D Ring Count             1
   Effective Rotor Count             4
   Conformer Sampling RMSD           0.6
   CID Conformer Count               [10]15

References

   1. http://toxnet.nlm.nih.gov/cgi-bin/sis/search/r?dbs+hsdb:@term+@rn+@rel+34014-18-1
   2. http://toxnet.nlm.nih.gov/cgi-bin/sis/search/r?dbs+hsdb:@term+@rn+@rel+34014-18-1
   3. http://toxnet.nlm.nih.gov/cgi-bin/sis/search/r?dbs+hsdb:@term+@rn+@rel+34014-18-1
   4. http://toxnet.nlm.nih.gov/cgi-bin/sis/search/r?dbs+hsdb:@term+@rn+@rel+34014-18-1
   5. http://toxnet.nlm.nih.gov/cgi-bin/sis/search/r?dbs+hsdb:@term+@rn+@rel+34014-18-1
   6. http://toxnet.nlm.nih.gov/cgi-bin/sis/search/r?dbs+hsdb:@term+@rn+@rel+34014-18-1
   7. http://toxnet.nlm.nih.gov/cgi-bin/sis/search/r?dbs+hsdb:@term+@rn+@rel+34014-18-1
   8. http://toxnet.nlm.nih.gov/cgi-bin/sis/search/r?dbs+hsdb:@term+@rn+@rel+34014-18-1
   9. http://toxnet.nlm.nih.gov/cgi-bin/sis/search/r?dbs+hsdb:@term+@rn+@rel+34014-18-1
  10. http://pubchem.ncbi.nlm.nih.gov/vw3d/vw3d.cgi?cid=5383
