   Color/Form
        WHITE CRYSTALLINE SOLID
   from [1]HSDB

   Odor
        ODORLESS
   from [2]HSDB

   Melting Point
        85 DEG C
   from [3]HSDB

   Solubilities

     * 0.01% IN WATER AT 25 DEG C
     * (SOL IN WT/WT PERCENT): FREELY SOL IN ACETONE 162.3%; ACETONITRILE
       142%; METHYLENE CHLORIDE 120.6%; ETHANOL 116.0%; BENZENE 102.0%;
       SPARINGLY SOL IN PETROLEUM SOLVENTS 1.05%;

   from [4]HSDB

   Spectral Properties

     * INDEX OF REFRACTION 1.6319 @ 20 DEG C
     * Intense mass spectral peaks: 144 M/z (100%), 115 M/z (44%), 116 M/z
       (37%), 145 M/z (14%)

   from [5]HSDB

   Vapor Pressure
        LESS THAN 0.1 MM HG AT 139 DEG C
   from [6]HSDB

   Other Chemical/Physical Properties
        Hydrolyzes rapidly in alkaline solutions
   from [7]HSDB

   Computed Properties
   Molecular Weight                  222.28352 [g/mol]
   Molecular Formula                 C[12]H[18]N[2]O[2]
   XLogP3                            2.5
   H-Bond Donor                      1
   H-Bond Acceptor                   3
   Rotatable Bond Count              3
   Tautomer Count                    2
   Exact Mass                        222.136828
   MonoIsotopic Mass                 222.136828
   Topological Polar Surface Area    41.6
   Heavy Atom Count                  16
   Formal Charge                     0
   Complexity                        231
   Isotope Atom Count                0
   Defined Atom Stereocenter Count   0
   Undefined Atom Stereocenter Count 0
   Defined Bond Stereocenter Count   0
   Undefined Bond Stereocenter Count 0
   Covalently-Bonded Unit Count      1
   Feature 3D Acceptor Count         1
   Feature 3D Donor Count            1
   Feature 3D Cation Count           1
   Feature 3D Ring Count             1
   Effective Rotor Count             4
   Conformer Sampling RMSD           0.6
   CID Conformer Count               [8]13

References

   1. http://toxnet.nlm.nih.gov/cgi-bin/sis/search/r?dbs+hsdb:@term+@rn+@rel+315-18-4
   2. http://toxnet.nlm.nih.gov/cgi-bin/sis/search/r?dbs+hsdb:@term+@rn+@rel+315-18-4
   3. http://toxnet.nlm.nih.gov/cgi-bin/sis/search/r?dbs+hsdb:@term+@rn+@rel+315-18-4
   4. http://toxnet.nlm.nih.gov/cgi-bin/sis/search/r?dbs+hsdb:@term+@rn+@rel+315-18-4
   5. http://toxnet.nlm.nih.gov/cgi-bin/sis/search/r?dbs+hsdb:@term+@rn+@rel+315-18-4
   6. http://toxnet.nlm.nih.gov/cgi-bin/sis/search/r?dbs+hsdb:@term+@rn+@rel+315-18-4
   7. http://toxnet.nlm.nih.gov/cgi-bin/sis/search/r?dbs+hsdb:@term+@rn+@rel+315-18-4
   8. http://pubchem.ncbi.nlm.nih.gov/vw3d/vw3d.cgi?cid=9414
