67458
  -OEChem-07051213142D

 31 35  0     0  0  0  0  0  0999 V2000
    3.7841   -0.3462    0.0000 C   0  0  0  0  0  0  0  0  0  0  0  0
    3.8001   -1.3877    0.0000 C   0  0  0  0  0  0  0  0  0  0  0  0
    4.6501    0.1538    0.0000 C   0  0  0  0  0  0  0  0  0  0  0  0
    5.2680   -0.6245    0.0000 C   0  0  0  0  0  0  0  0  0  0  0  0
    4.7881   -1.4948    0.0000 C   0  0  0  0  0  0  0  0  0  0  0  0
    2.9180    0.1538    0.0000 C   0  0  0  0  0  0  0  0  0  0  0  0
    2.9021   -1.9154    0.0000 C   0  0  0  0  0  0  0  0  0  0  0  0
    2.9180    1.1538    0.0000 C   0  0  0  0  0  0  0  0  0  0  0  0
    4.6501    1.1538    0.0000 C   0  0  0  0  0  0  0  0  0  0  0  0
    3.7841    1.6538    0.0000 C   0  0  0  0  0  0  0  0  0  0  0  0
    2.0080   -0.3530    0.0000 C   0  0  0  0  0  0  0  0  0  0  0  0
    4.9664   -2.5270    0.0000 C   0  0  0  0  0  0  0  0  0  0  0  0
    2.0000   -1.3946    0.0000 C   0  0  0  0  0  0  0  0  0  0  0  0
    3.1793   -2.9256    0.0000 C   0  0  0  0  0  0  0  0  0  0  0  0
    4.1836   -3.2231    0.0000 C   0  0  0  0  0  0  0  0  0  0  0  0
    2.0080    1.6607    0.0000 C   0  0  0  0  0  0  0  0  0  0  0  0
    3.8001    2.6954    0.0000 C   0  0  0  0  0  0  0  0  0  0  0  0
    2.0000    2.7023    0.0000 C   0  0  0  0  0  0  0  0  0  0  0  0
    2.9021    3.2231    0.0000 C   0  0  0  0  0  0  0  0  0  0  0  0
    5.7668   -0.9927    0.0000 H   0  0  0  0  0  0  0  0  0  0  0  0
    5.6986   -0.1785    0.0000 H   0  0  0  0  0  0  0  0  0  0  0  0
    5.1870    1.4638    0.0000 H   0  0  0  0  0  0  0  0  0  0  0  0
    1.4747   -0.0368    0.0000 H   0  0  0  0  0  0  0  0  0  0  0  0
    5.5516   -2.7317    0.0000 H   0  0  0  0  0  0  0  0  0  0  0  0
    1.4619   -1.7025    0.0000 H   0  0  0  0  0  0  0  0  0  0  0  0
    2.7365   -3.3595    0.0000 H   0  0  0  0  0  0  0  0  0  0  0  0
    4.3186   -3.8282    0.0000 H   0  0  0  0  0  0  0  0  0  0  0  0
    1.4747    1.3445    0.0000 H   0  0  0  0  0  0  0  0  0  0  0  0
    4.3406    2.9991    0.0000 H   0  0  0  0  0  0  0  0  0  0  0  0
    1.4619    3.0102    0.0000 H   0  0  0  0  0  0  0  0  0  0  0  0
    2.9045    3.8431    0.0000 H   0  0  0  0  0  0  0  0  0  0  0  0
  1  2  1  0  0  0  0
  1  3  1  0  0  0  0
  1  6  2  0  0  0  0
  2  5  1  0  0  0  0
  2  7  2  0  0  0  0
  3  4  1  0  0  0  0
  3  9  2  0  0  0  0
  4  5  1  0  0  0  0
  4 20  1  0  0  0  0
  4 21  1  0  0  0  0
  5 12  2  0  0  0  0
  6  8  1  0  0  0  0
  6 11  1  0  0  0  0
  7 13  1  0  0  0  0
  7 14  1  0  0  0  0
  8 10  1  0  0  0  0
  8 16  2  0  0  0  0
  9 10  1  0  0  0  0
  9 22  1  0  0  0  0
 10 17  2  0  0  0  0
 11 13  2  0  0  0  0
 11 23  1  0  0  0  0
 12 15  1  0  0  0  0
 12 24  1  0  0  0  0
 13 25  1  0  0  0  0
 14 15  2  0  0  0  0
 14 26  1  0  0  0  0
 15 27  1  0  0  0  0
 16 18  1  0  0  0  0
 16 28  1  0  0  0  0
 17 19  1  0  0  0  0
 17 29  1  0  0  0  0
 18 19  2  0  0  0  0
 18 30  1  0  0  0  0
 19 31  1  0  0  0  0
M  END
> <PUBCHEM_COMPOUND_CID>
67458

> <PUBCHEM_COMPOUND_CANONICALIZED>
1

> <PUBCHEM_CACTVS_COMPLEXITY>
359

> <PUBCHEM_CACTVS_HBOND_ACCEPTOR>
0

> <PUBCHEM_CACTVS_HBOND_DONOR>
0

> <PUBCHEM_CACTVS_ROTATABLE_BOND>
0

> <PUBCHEM_CACTVS_SUBSKEYS>
AAADccB4AAAAAAAAAAAAAAAAAAAAAYAAAAAwYMGAAAAAAGDBVAAAGAAAAAAADACAGAAwAMAAAACAAiBCAAACAAAgAAAIiAAAAIgIICKAERCAIAAggAAIiAcAgMAOwAACAAAQAACAAAQAACAAAQAACAAAAA==

> <PUBCHEM_IUPAC_INCHI>
InChI=1S/C19H12/c1-2-7-16-13(4-1)10-15-11-14-6-3-5-12-8-9-17(16)19(15)18(12)14/h1-10H,11H2

> <PUBCHEM_IUPAC_INCHIKEY>
GTDQLJVKXFXBMM-UHFFFAOYSA-N

> <PUBCHEM_XLOGP3_AA>
5.7

> <PUBCHEM_EXACT_MASS>
240.0939

> <PUBCHEM_MOLECULAR_FORMULA>
C19H12

> <PUBCHEM_MOLECULAR_WEIGHT>
240.29858

> <PUBCHEM_OPENEYE_CAN_SMILES>
C1C2=CC=CC3=C2C4=C(C=C3)C5=CC=CC=C5C=C41

> <PUBCHEM_OPENEYE_ISO_SMILES>
C1C2=CC=CC3=C2C4=C(C=C3)C5=CC=CC=C5C=C41

> <PUBCHEM_CACTVS_TPSA>
0

> <PUBCHEM_MONOISOTOPIC_WEIGHT>
240.0939

> <PUBCHEM_TOTAL_CHARGE>
0

> <PUBCHEM_HEAVY_ATOM_COUNT>
19

> <PUBCHEM_ATOM_DEF_STEREO_COUNT>
0

> <PUBCHEM_ATOM_UDEF_STEREO_COUNT>
0

> <PUBCHEM_BOND_DEF_STEREO_COUNT>
0

> <PUBCHEM_BOND_UDEF_STEREO_COUNT>
0

> <PUBCHEM_ISOTOPIC_ATOM_COUNT>
0

> <PUBCHEM_COMPONENT_COUNT>
1

> <PUBCHEM_CACTVS_TAUTO_COUNT>
1

> <PUBCHEM_COORDINATE_TYPE>
1
5
255

> <PUBCHEM_BONDANNOTATIONS>
1  2  8
1  3  8
1  6  8
10  17  8
11  13  8
12  15  8
14  15  8
16  18  8
17  19  8
18  19  8
2  5  8
2  7  8
3  9  8
5  12  8
6  11  8
6  8  8
7  13  8
7  14  8
8  10  8
8  16  8
9  10  8

$$$$

