   Color/Form

     * YELLOW TO PINK OIL
     * Light colored liquid

   from [1]HSDB

   Odor
        Sweet smelling
   from [2]HSDB

   Boiling Point
        62-64 DEG C @ 12 MM HG; 70 DEG C @ 27 MM HG
   from [3]HSDB

   Density/Specific Gravity
        1.133 @ 20 DEG C/4 DEG C
   from [4]HSDB

   Solubilities

     * SOL IN MANY COMMON ORGANIC SOLVENTS
     * INFINITELY SOL IN ALCOHOL, ETHER, BENZENE
     * Water solubility = 37,000 mg/l @ 25 deg C (0.28 M) [Mirvish SS et
       al; J Natl Cancer Inst 56:1125-9 (1976)] [5]PubMed Abstract

   from [6]HSDB

   Spectral Properties
        INDEX OF REFRACTION: 1.43632 @ 20 DEG C/D; MAX ABSORPTION (WATER):
   237 NM (LOG E= 3.77)
   from [7]HSDB

   Vapor Pressure
        1.18 mm Hg @ 25 deg C /extrapolated (12 mm Hg @ 63 deg C)/ [Klein
   RG; ; Toxicology 23:135-47 (1982)] [8]PubMed Abstract
   from [9]HSDB

   Viscosity
        LOW
   from [10]HSDB

   Other Chemical/Physical Properties
        1 MG/L APPROX= 185 PPM & 1 PPM APPROX= 5.4 MG/CU M
   from [11]HSDB

   Computed Properties
   Molecular Weight                  132.11792 [g/mol]
   Molecular Formula                 C[4]H[8]N[2]O[3]
   XLogP3-AA                         0.2
   H-Bond Donor                      0
   H-Bond Acceptor                   4
   Rotatable Bond Count              2
   Exact Mass                        132.053492
   MonoIsotopic Mass                 132.053492
   Topological Polar Surface Area    59
   Heavy Atom Count                  9
   Formal Charge                     0
   Complexity                        114
   Isotope Atom Count                0
   Defined Atom Stereocenter Count   0
   Undefined Atom Stereocenter Count 0
   Defined Bond Stereocenter Count   0
   Undefined Bond Stereocenter Count 0
   Covalently-Bonded Unit Count      1
   Feature 3D Acceptor Count         1
   Effective Rotor Count             4
   Conformer Sampling RMSD           0.6
   CID Conformer Count               [12]26

References

   1. http://toxnet.nlm.nih.gov/cgi-bin/sis/search/r?dbs+hsdb:@term+@rn+@rel+615-53-2
   2. http://toxnet.nlm.nih.gov/cgi-bin/sis/search/r?dbs+hsdb:@term+@rn+@rel+615-53-2
   3. http://toxnet.nlm.nih.gov/cgi-bin/sis/search/r?dbs+hsdb:@term+@rn+@rel+615-53-2
   4. http://toxnet.nlm.nih.gov/cgi-bin/sis/search/r?dbs+hsdb:@term+@rn+@rel+615-53-2
   5. http://www.ncbi.nlm.nih.gov/entrez/query.fcgi?cmd=Retrieve&db=pubmed&dopt=Abstract&list_uids=994213
   6. http://toxnet.nlm.nih.gov/cgi-bin/sis/search/r?dbs+hsdb:@term+@rn+@rel+615-53-2
   7. http://toxnet.nlm.nih.gov/cgi-bin/sis/search/r?dbs+hsdb:@term+@rn+@rel+615-53-2
   8. http://www.ncbi.nlm.nih.gov/entrez/query.fcgi?cmd=Retrieve&db=pubmed&dopt=Abstract&list_uids=7112590
   9. http://toxnet.nlm.nih.gov/cgi-bin/sis/search/r?dbs+hsdb:@term+@rn+@rel+615-53-2
  10. http://toxnet.nlm.nih.gov/cgi-bin/sis/search/r?dbs+hsdb:@term+@rn+@rel+615-53-2
  11. http://toxnet.nlm.nih.gov/cgi-bin/sis/search/r?dbs+hsdb:@term+@rn+@rel+615-53-2
  12. http://pubchem.ncbi.nlm.nih.gov/vw3d/vw3d.cgi?cid=12001
