5774
  -OEChem-06261200522D

 46 49  0     1  0  0  0  0  0999 V2000
    6.3301   -1.5407    0.0000 S   0  0  0  0  0  0  0  0  0  0  0  0
   12.3245   -2.5793    0.0000 S   0  0  0  0  0  0  0  0  0  0  0  0
    8.9101    0.6720    0.0000 O   0  0  0  0  0  0  0  0  0  0  0  0
    5.4641    1.9593    0.0000 O   0  0  0  0  0  0  0  0  0  0  0  0
    7.1962    1.9593    0.0000 O   0  0  0  0  0  0  0  0  0  0  0  0
   10.1373   -0.5312    0.0000 O   0  0  0  0  0  0  0  0  0  0  0  0
    7.1962   -0.0407    0.0000 N   0  0  0  0  0  0  0  0  0  0  0  0
    8.9101   -1.7534    0.0000 N   0  0  0  0  0  0  0  0  0  0  0  0
    3.7320   -0.0407    0.0000 N   0  3  0  0  0  0  0  0  0  0  0  0
    7.1962   -1.0407    0.0000 C   0  0  1  0  0  0  0  0  0  0  0  0
    8.2044   -1.0449    0.0000 C   0  0  1  0  0  0  0  0  0  0  0  0
    8.2044   -0.0366    0.0000 C   0  0  0  0  0  0  0  0  0  0  0  0
    6.3301    0.4593    0.0000 C   0  0  0  0  0  0  0  0  0  0  0  0
    5.4641   -0.0407    0.0000 C   0  0  0  0  0  0  0  0  0  0  0  0
    5.4641   -1.0407    0.0000 C   0  0  0  0  0  0  0  0  0  0  0  0
    4.5981    0.4593    0.0000 C   0  0  0  0  0  0  0  0  0  0  0  0
    6.3301    1.4593    0.0000 C   0  0  0  0  0  0  0  0  0  0  0  0
    9.8765   -1.4966    0.0000 C   0  0  0  0  0  0  0  0  0  0  0  0
   10.5822   -2.2052    0.0000 C   0  0  0  0  0  0  0  0  0  0  0  0
    2.8660    0.4593    0.0000 C   0  0  0  0  0  0  0  0  0  0  0  0
    3.7320   -1.0407    0.0000 C   0  0  0  0  0  0  0  0  0  0  0  0
   11.5486   -1.9483    0.0000 C   0  0  0  0  0  0  0  0  0  0  0  0
    2.0000   -0.0407    0.0000 C   0  0  0  0  0  0  0  0  0  0  0  0
    2.8660   -1.5407    0.0000 C   0  0  0  0  0  0  0  0  0  0  0  0
    2.0000   -1.0407    0.0000 C   0  0  0  0  0  0  0  0  0  0  0  0
   11.9089   -1.0155    0.0000 C   0  0  0  0  0  0  0  0  0  0  0  0
   12.9075   -1.0699    0.0000 C   0  0  0  0  0  0  0  0  0  0  0  0
   13.1643   -2.0363    0.0000 C   0  0  0  0  0  0  0  0  0  0  0  0
    7.4145   -1.8622    0.0000 H   0  0  0  0  0  0  0  0  0  0  0  0
    7.9654   -1.6170    0.0000 H   0  0  0  0  0  0  0  0  0  0  0  0
    4.8535   -0.9331    0.0000 H   0  0  0  0  0  0  0  0  0  0  0  0
    5.2520   -1.6234    0.0000 H   0  0  0  0  0  0  0  0  0  0  0  0
    8.7484   -2.3520    0.0000 H   0  0  0  0  0  0  0  0  0  0  0  0
    4.9966    0.9342    0.0000 H   0  0  0  0  0  0  0  0  0  0  0  0
    4.1996    0.9342    0.0000 H   0  0  0  0  0  0  0  0  0  0  0  0
   10.0736   -2.5598    0.0000 H   0  0  0  0  0  0  0  0  0  0  0  0
   10.8431   -2.7676    0.0000 H   0  0  0  0  0  0  0  0  0  0  0  0
    2.8660    1.0793    0.0000 H   0  0  0  0  0  0  0  0  0  0  0  0
    4.2690   -1.3507    0.0000 H   0  0  0  0  0  0  0  0  0  0  0  0
    5.4641    2.5793    0.0000 H   0  0  0  0  0  0  0  0  0  0  0  0
    1.4631    0.2693    0.0000 H   0  0  0  0  0  0  0  0  0  0  0  0
    2.8660   -2.1607    0.0000 H   0  0  0  0  0  0  0  0  0  0  0  0
    1.4631   -1.3507    0.0000 H   0  0  0  0  0  0  0  0  0  0  0  0
   11.5723   -0.4948    0.0000 H   0  0  0  0  0  0  0  0  0  0  0  0
   13.2986   -0.5889    0.0000 H   0  0  0  0  0  0  0  0  0  0  0  0
   13.7427   -2.2597    0.0000 H   0  0  0  0  0  0  0  0  0  0  0  0
  1 10  1  0  0  0  0
  1 15  1  0  0  0  0
  2 22  1  0  0  0  0
  2 28  1  0  0  0  0
  3 12  2  0  0  0  0
  4 17  1  0  0  0  0
  4 40  1  0  0  0  0
  5 17  2  0  0  0  0
  6 18  2  0  0  0  0
  7 10  1  0  0  0  0
  7 12  1  0  0  0  0
  7 13  1  0  0  0  0
 11  8  1  1  0  0  0
  8 18  1  0  0  0  0
  8 33  1  0  0  0  0
  9 16  1  0  0  0  0
  9 20  2  0  0  0  0
  9 21  1  0  0  0  0
 10 11  1  0  0  0  0
 10 29  1  6  0  0  0
 11 12  1  0  0  0  0
 11 30  1  0  0  0  0
 13 14  2  0  0  0  0
 13 17  1  0  0  0  0
 14 15  1  0  0  0  0
 14 16  1  0  0  0  0
 15 31  1  0  0  0  0
 15 32  1  0  0  0  0
 16 34  1  0  0  0  0
 16 35  1  0  0  0  0
 18 19  1  0  0  0  0
 19 22  1  0  0  0  0
 19 36  1  0  0  0  0
 19 37  1  0  0  0  0
 20 23  1  0  0  0  0
 20 38  1  0  0  0  0
 21 24  2  0  0  0  0
 21 39  1  0  0  0  0
 22 26  2  0  0  0  0
 23 25  2  0  0  0  0
 23 41  1  0  0  0  0
 24 25  1  0  0  0  0
 24 42  1  0  0  0  0
 25 43  1  0  0  0  0
 26 27  1  0  0  0  0
 26 44  1  0  0  0  0
 27 28  2  0  0  0  0
 27 45  1  0  0  0  0
 28 46  1  0  0  0  0
M  CHG  1   9   1
M  END
> <PUBCHEM_COMPOUND_CID>
5774

> <PUBCHEM_COMPOUND_CANONICALIZED>
1

> <PUBCHEM_CACTVS_COMPLEXITY>
693

> <PUBCHEM_CACTVS_HBOND_ACCEPTOR>
6

> <PUBCHEM_CACTVS_HBOND_DONOR>
2

> <PUBCHEM_CACTVS_ROTATABLE_BOND>
6

> <PUBCHEM_CACTVS_SUBSKEYS>
AAADceB7OABgAAAAAAAAAAAAAABYASAAAAAsQAAAAAAQAAAB4AAAHgQQCAAADCjF0gS8iZPMEgisAjX3XACDgKBxCjBI2Lm4ZNgKZPrglbGUMAhglgD42QcYCAAAAAAAAAAAAAAAAAAAAAAAAAAAAAAAAA==

> <PUBCHEM_IUPAC_OPENEYE_NAME>
(6R,7R)-8-oxo-3-(pyridin-1-ium-1-ylmethyl)-7-[[2-(2-thienyl)acetyl]amino]-5-thia-1-azabicyclo[4.2.0]oct-2-ene-2-carboxylic acid

> <PUBCHEM_IUPAC_CAS_NAME>
(6R,7R)-8-oxo-7-[(1-oxo-2-thiophen-2-ylethyl)amino]-3-(1-pyridin-1-iumylmethyl)-5-thia-1-azabicyclo[4.2.0]oct-2-ene-2-carboxylic acid

> <PUBCHEM_IUPAC_NAME>
(6R,7R)-8-oxo-3-(pyridin-1-ium-1-ylmethyl)-7-[(2-thiophen-2-ylacetyl)amino]-5-thia-1-azabicyclo[4.2.0]oct-2-ene-2-carboxylic acid

> <PUBCHEM_IUPAC_SYSTEMATIC_NAME>
(6R,7R)-8-oxidanylidene-3-(pyridin-1-ium-1-ylmethyl)-7-(2-thiophen-2-ylethanoylamino)-5-thia-1-azabicyclo[4.2.0]oct-2-ene-2-carboxylic acid

> <PUBCHEM_IUPAC_TRADITIONAL_NAME>
(6R,7R)-8-keto-3-(pyridin-1-ium-1-ylmethyl)-7-[[2-(2-thienyl)acetyl]amino]-5-thia-1-azabicyclo[4.2.0]oct-2-ene-2-carboxylic acid

> <PUBCHEM_IUPAC_INCHI>
InChI=1S/C19H17N3O4S2/c23-14(9-13-5-4-8-27-13)20-15-17(24)22-16(19(25)26)12(11-28-18(15)22)10-21-6-2-1-3-7-21/h1-8,15,18H,9-11H2,(H-,20,23,25,26)/p+1/t15-,18-/m1/s1

> <PUBCHEM_IUPAC_INCHIKEY>
CZTQZXZIADLWOZ-CRAIPNDOSA-O

> <PUBCHEM_XLOGP3>
1.2

> <PUBCHEM_EXACT_MASS>
416.073873

> <PUBCHEM_MOLECULAR_FORMULA>
C19H18N3O4S2+

> <PUBCHEM_MOLECULAR_WEIGHT>
416.49392

> <PUBCHEM_OPENEYE_CAN_SMILES>
C1C(=C(N2C(S1)C(C2=O)NC(=O)CC3=CC=CS3)C(=O)O)C[N+]4=CC=CC=C4

> <PUBCHEM_OPENEYE_ISO_SMILES>
C1C(=C(N2[C@H](S1)[C@@H](C2=O)NC(=O)CC3=CC=CS3)C(=O)O)C[N+]4=CC=CC=C4

> <PUBCHEM_CACTVS_TPSA>
144

> <PUBCHEM_MONOISOTOPIC_WEIGHT>
416.073873

> <PUBCHEM_TOTAL_CHARGE>
1

> <PUBCHEM_HEAVY_ATOM_COUNT>
28

> <PUBCHEM_ATOM_DEF_STEREO_COUNT>
2

> <PUBCHEM_ATOM_UDEF_STEREO_COUNT>
0

> <PUBCHEM_BOND_DEF_STEREO_COUNT>
0

> <PUBCHEM_BOND_UDEF_STEREO_COUNT>
0

> <PUBCHEM_ISOTOPIC_ATOM_COUNT>
0

> <PUBCHEM_COMPONENT_COUNT>
1

> <PUBCHEM_CACTVS_TAUTO_COUNT>
4

> <PUBCHEM_COORDINATE_TYPE>
1
5
255

> <PUBCHEM_BONDANNOTATIONS>
10  29  6
2  22  8
2  28  8
20  23  8
21  24  8
22  26  8
23  25  8
24  25  8
26  27  8
27  28  8
11  8  5
9  20  8
9  21  8

$$$$

