56928098
  -OEChem-07051213102D

 40 42  0     1  0  0  0  0  0999 V2000
    2.0000   -0.8930    0.0000 Br  0  0  0  0  0  0  0  0  0  0  0  0
    7.2622   -0.8689    0.0000 Cl  0  0  0  0  0  0  0  0  0  0  0  0
    2.0000    1.1553    0.0000 O   0  0  0  0  0  0  0  0  0  0  0  0
    4.6641   -0.3689    0.0000 C   0  0  1  0  0  0  0  0  0  0  0  0
    3.7702   -0.9035    0.0000 C   0  0  0  0  0  0  0  0  0  0  0  0
    6.3961    0.6311    0.0000 C   0  0  1  0  0  0  0  0  0  0  0  0
    5.5301   -0.8689    0.0000 C   0  0  0  0  0  0  0  0  0  0  0  0
    4.9837    0.2775    0.0000 C   0  0  0  0  0  0  0  0  0  0  0  0
    4.6641    0.6311    0.0000 C   0  0  0  0  0  0  0  0  0  0  0  0
    6.3961   -0.3689    0.0000 C   0  0  2  0  0  0  0  0  0  0  0  0
    5.6765    0.6775    0.0000 C   0  0  0  0  0  0  0  0  0  0  0  0
    2.8641   -0.3897    0.0000 C   0  0  2  0  0  0  0  0  0  0  0  0
    5.5301    1.1311    0.0000 C   0  0  0  0  0  0  0  0  0  0  0  0
    3.7702    1.1658    0.0000 C   0  0  0  0  0  0  0  0  0  0  0  0
    2.8641    0.6519    0.0000 C   0  0  2  0  0  0  0  0  0  0  0  0
    3.2802   -1.7753    0.0000 C   0  0  0  0  0  0  0  0  0  0  0  0
    4.2801   -1.7637    0.0000 C   0  0  0  0  0  0  0  0  0  0  0  0
    7.2622    1.1311    0.0000 C   0  0  0  0  0  0  0  0  0  0  0  0
    5.1316   -1.3438    0.0000 H   0  0  0  0  0  0  0  0  0  0  0  0
    5.9286   -1.3438    0.0000 H   0  0  0  0  0  0  0  0  0  0  0  0
    4.8630    0.8857    0.0000 H   0  0  0  0  0  0  0  0  0  0  0  0
    5.4360   -0.1465    0.0000 H   0  0  0  0  0  0  0  0  0  0  0  0
    6.9331   -0.0589    0.0000 H   0  0  0  0  0  0  0  0  0  0  0  0
    5.9134    1.2505    0.0000 H   0  0  0  0  0  0  0  0  0  0  0  0
    5.8176    0.0738    0.0000 H   0  0  0  0  0  0  0  0  0  0  0  0
    2.3266   -0.0807    0.0000 H   0  0  0  0  0  0  0  0  0  0  0  0
    5.5301    1.7511    0.0000 H   0  0  0  0  0  0  0  0  0  0  0  0
    4.1748    1.6356    0.0000 H   0  0  0  0  0  0  0  0  0  0  0  0
    3.3765    1.6448    0.0000 H   0  0  0  0  0  0  0  0  0  0  0  0
    2.3266    0.3430    0.0000 H   0  0  0  0  0  0  0  0  0  0  0  0
    3.7468   -2.0799    0.0000 H   0  0  0  0  0  0  0  0  0  0  0  0
    4.5963   -2.2970    0.0000 H   0  0  0  0  0  0  0  0  0  0  0  0
    4.8134   -1.4475    0.0000 H   0  0  0  0  0  0  0  0  0  0  0  0
    2.7397   -1.4715    0.0000 H   0  0  0  0  0  0  0  0  0  0  0  0
    2.9764   -2.3158    0.0000 H   0  0  0  0  0  0  0  0  0  0  0  0
    3.8207   -2.0790    0.0000 H   0  0  0  0  0  0  0  0  0  0  0  0
    7.5722    0.5942    0.0000 H   0  0  0  0  0  0  0  0  0  0  0  0
    7.7991    1.4411    0.0000 H   0  0  0  0  0  0  0  0  0  0  0  0
    6.9522    1.6681    0.0000 H   0  0  0  0  0  0  0  0  0  0  0  0
    2.0024    1.7753    0.0000 H   0  0  0  0  0  0  0  0  0  0  0  0
 12  1  1  1  0  0  0
 10  2  1  1  0  0  0
 15  3  1  1  0  0  0
  3 40  1  0  0  0  0
  4  5  1  6  0  0  0
  4  7  1  0  0  0  0
  4  8  1  0  0  0  0
  4  9  1  0  0  0  0
  5 12  1  0  0  0  0
  5 16  1  0  0  0  0
  5 17  1  0  0  0  0
  6 10  1  0  0  0  0
  6 11  1  0  0  0  0
  6 13  1  0  0  0  0
  6 18  1  6  0  0  0
  7 10  1  0  0  0  0
  7 19  1  0  0  0  0
  7 20  1  0  0  0  0
  8 11  1  0  0  0  0
  8 21  1  0  0  0  0
  8 22  1  0  0  0  0
  9 13  2  0  0  0  0
  9 14  1  0  0  0  0
 10 23  1  0  0  0  0
 11 24  1  0  0  0  0
 11 25  1  0  0  0  0
 12 15  1  0  0  0  0
 12 26  1  0  0  0  0
 13 27  1  0  0  0  0
 14 15  1  0  0  0  0
 14 28  1  0  0  0  0
 14 29  1  0  0  0  0
 15 30  1  0  0  0  0
 16 34  1  0  0  0  0
 16 35  1  0  0  0  0
 16 36  1  0  0  0  0
 17 31  1  0  0  0  0
 17 32  1  0  0  0  0
 17 33  1  0  0  0  0
 18 37  1  0  0  0  0
 18 38  1  0  0  0  0
 18 39  1  0  0  0  0
M  END
> <PUBCHEM_COMPOUND_CID>
56928098

> <PUBCHEM_COMPOUND_CANONICALIZED>
1

> <PUBCHEM_CACTVS_COMPLEXITY>
419

> <PUBCHEM_CACTVS_HBOND_ACCEPTOR>
1

> <PUBCHEM_CACTVS_HBOND_DONOR>
1

> <PUBCHEM_CACTVS_ROTATABLE_BOND>
0

> <PUBCHEM_CACTVS_SUBSKEYS>
AAADceBwIAAEEAAAAAAAAAAAAAAAAAAAAAAwYIEAAAAAAACAAAAAGgJACAABzheggEICAAAAAgCAAiBCAAAAAAAgAAAACAAAAigAEAIBAQAAQAAEwAAIAAOAwPAPgAAAAAAAAADAAAJgACMIAAAAAAAAAA==

> <PUBCHEM_IUPAC_INCHI>
InChI=1S/C15H22BrClO/c1-13(2)12(16)10(18)6-9-7-14(3)4-5-15(9,13)8-11(14)17/h7,10-12,18H,4-6,8H2,1-3H3/t10-,11-,12-,14-,15+/m0/s1

> <PUBCHEM_IUPAC_INCHIKEY>
GERMJTUOMAFORB-ZCRGAIPPSA-N

> <PUBCHEM_XLOGP3_AA>
4.2

> <PUBCHEM_EXACT_MASS>
332.054255

> <PUBCHEM_MOLECULAR_FORMULA>
C15H22BrClO

> <PUBCHEM_MOLECULAR_WEIGHT>
333.69158

> <PUBCHEM_OPENEYE_CAN_SMILES>
CC1(C(C(CC2=CC3(CCC21CC3Cl)C)O)Br)C

> <PUBCHEM_OPENEYE_ISO_SMILES>
C[C@@]12CC[C@@]3(C[C@@H]1Cl)C(=C2)C[C@@H]([C@@H](C3(C)C)Br)O

> <PUBCHEM_CACTVS_TPSA>
20.2

> <PUBCHEM_MONOISOTOPIC_WEIGHT>
332.054255

> <PUBCHEM_TOTAL_CHARGE>
0

> <PUBCHEM_HEAVY_ATOM_COUNT>
18

> <PUBCHEM_ATOM_DEF_STEREO_COUNT>
5

> <PUBCHEM_ATOM_UDEF_STEREO_COUNT>
0

> <PUBCHEM_BOND_DEF_STEREO_COUNT>
0

> <PUBCHEM_BOND_UDEF_STEREO_COUNT>
0

> <PUBCHEM_ISOTOPIC_ATOM_COUNT>
0

> <PUBCHEM_COMPONENT_COUNT>
1

> <PUBCHEM_CACTVS_TAUTO_COUNT>
1

> <PUBCHEM_COORDINATE_TYPE>
1
5
255

> <PUBCHEM_BONDANNOTATIONS>
12  1  5
10  2  5
15  3  5
4  5  6
6  18  6

$$$$

