439656
  -OEChem-07051212462D

 17 16  0     1  0  0  0  0  0999 V2000
    2.3100    0.6760    0.0000 O   0  0  0  0  0  0  0  0  0  0  0  0
    5.5420   -0.1900    0.0000 O   0  0  0  0  0  0  0  0  0  0  0  0
    4.6760    1.3100    0.0000 O   0  0  0  0  0  0  0  0  0  0  0  0
    2.9440   -0.6900    0.0000 N   0  0  0  0  0  0  0  0  0  0  0  0
    3.8100   -0.1900    0.0000 C   0  0  1  0  0  0  0  0  0  0  0  0
    3.3100    0.6760    0.0000 C   0  0  0  0  0  0  0  0  0  0  0  0
    4.3100   -1.0560    0.0000 C   0  0  0  0  0  0  0  0  0  0  0  0
    4.6760    0.3100    0.0000 C   0  0  0  0  0  0  0  0  0  0  0  0
    3.8926    0.8881    0.0000 H   0  0  0  0  0  0  0  0  0  0  0  0
    3.2023    1.2866    0.0000 H   0  0  0  0  0  0  0  0  0  0  0  0
    3.7731   -1.3660    0.0000 H   0  0  0  0  0  0  0  0  0  0  0  0
    4.6200   -1.5930    0.0000 H   0  0  0  0  0  0  0  0  0  0  0  0
    4.8469   -0.7460    0.0000 H   0  0  0  0  0  0  0  0  0  0  0  0
    2.4070   -0.3800    0.0000 H   0  0  0  0  0  0  0  0  0  0  0  0
    2.9440   -1.3100    0.0000 H   0  0  0  0  0  0  0  0  0  0  0  0
    2.0000    1.2130    0.0000 H   0  0  0  0  0  0  0  0  0  0  0  0
    6.0790    0.1200    0.0000 H   0  0  0  0  0  0  0  0  0  0  0  0
  1  6  1  0  0  0  0
  1 16  1  0  0  0  0
  2  8  1  0  0  0  0
  2 17  1  0  0  0  0
  3  8  2  0  0  0  0
  5  4  1  6  0  0  0
  4 14  1  0  0  0  0
  4 15  1  0  0  0  0
  5  6  1  0  0  0  0
  5  7  1  0  0  0  0
  5  8  1  0  0  0  0
  6  9  1  0  0  0  0
  6 10  1  0  0  0  0
  7 11  1  0  0  0  0
  7 12  1  0  0  0  0
  7 13  1  0  0  0  0
M  END
> <PUBCHEM_COMPOUND_CID>
439656

> <PUBCHEM_COMPOUND_CANONICALIZED>
1

> <PUBCHEM_CACTVS_COMPLEXITY>
104

> <PUBCHEM_CACTVS_HBOND_ACCEPTOR>
4

> <PUBCHEM_CACTVS_HBOND_DONOR>
3

> <PUBCHEM_CACTVS_ROTATABLE_BOND>
2

> <PUBCHEM_CACTVS_SUBSKEYS>
AAADccBiMAAAAAAAAAAAAAAAAAAAAAAAAAAAAAAAAAAAAAAAAAAAHgAQCAAADIihgAICCABAAgAIAACQCAAAAAAAAAAAAAGAAAACEAQAAAAAQAABMAAAAAAAAAAAAAAAAAAAAAAAAAAAAAAAAAAAAAAAAA==

> <PUBCHEM_IUPAC_OPENEYE_NAME>
(2R)-2-amino-3-hydroxy-2-methyl-propanoic acid

> <PUBCHEM_IUPAC_CAS_NAME>
(2R)-2-amino-3-hydroxy-2-methylpropanoic acid

> <PUBCHEM_IUPAC_NAME>
(2R)-2-amino-3-hydroxy-2-methylpropanoic acid

> <PUBCHEM_IUPAC_SYSTEMATIC_NAME>
(2R)-2-azanyl-2-methyl-3-oxidanyl-propanoic acid

> <PUBCHEM_IUPAC_TRADITIONAL_NAME>
(2R)-2-amino-3-hydroxy-2-methyl-propionic acid

> <PUBCHEM_IUPAC_INCHI>
InChI=1S/C4H9NO3/c1-4(5,2-6)3(7)8/h6H,2,5H2,1H3,(H,7,8)/t4-/m1/s1

> <PUBCHEM_IUPAC_INCHIKEY>
CDUUKBXTEOFITR-SCSAIBSYSA-N

> <PUBCHEM_XLOGP3_AA>
-3.9

> <PUBCHEM_EXACT_MASS>
119.058243

> <PUBCHEM_MOLECULAR_FORMULA>
C4H9NO3

> <PUBCHEM_MOLECULAR_WEIGHT>
119.11916

> <PUBCHEM_OPENEYE_CAN_SMILES>
CC(CO)(C(=O)O)N

> <PUBCHEM_OPENEYE_ISO_SMILES>
C[C@@](CO)(C(=O)O)N

> <PUBCHEM_CACTVS_TPSA>
83.6

> <PUBCHEM_MONOISOTOPIC_WEIGHT>
119.058243

> <PUBCHEM_TOTAL_CHARGE>
0

> <PUBCHEM_HEAVY_ATOM_COUNT>
8

> <PUBCHEM_ATOM_DEF_STEREO_COUNT>
1

> <PUBCHEM_ATOM_UDEF_STEREO_COUNT>
0

> <PUBCHEM_BOND_DEF_STEREO_COUNT>
0

> <PUBCHEM_BOND_UDEF_STEREO_COUNT>
0

> <PUBCHEM_ISOTOPIC_ATOM_COUNT>
0

> <PUBCHEM_COMPONENT_COUNT>
1

> <PUBCHEM_CACTVS_TAUTO_COUNT>
1

> <PUBCHEM_COORDINATE_TYPE>
1
5
255

> <PUBCHEM_BONDANNOTATIONS>
5  4  6

$$$$

