   Color/Form
        White, lustrious, bulky leaflets or white powder
   from [1]HSDB

   Odor
        Faint phenol-like odor
   from [2]HSDB

   Boiling Point
        285 deg C
   from [3]HSDB

   Melting Point
        121.6 deg C
   from [4]HSDB

   Density/Specific Gravity
        1.28 @ 20 deg C
   from [5]HSDB

   Dissociation Constants

     * In water = 1.14X10-10 at 20 deg C
     * pKa = 9.51 at 25 deg C

   from [6]HSDB

   Octanol/Water Partition Coefficient
        Log Kow = 2.70
   from [7]HSDB

   Solubilities

     * Soluble in alcohol, ether, chloroform, glycerol, oils, alkaline
       solutions. Almost insoluble in water.
     * Very soluble in ethanol, soluble in benzene.
     * 1 gram dissolves in 1000 ml water, 80 ml boiling water, 0.8 ml
       alcohol, 17 ml chloroform, 1.3 ml ether.
     * Water solubility = 7.56X10+2 mg/L at 25 deg C.

   from [8]HSDB

   Vapor Pressure
        9.9 mm Hg at 144 deg C.
   from [9]HSDB

   Other Chemical/Physical Properties

     * Vapor pressure = 2.9X10-3 mm Hg at 25 deg C (extrapolated - Super
       cooled liquid).
     * Vapor pressure = 3.2X10-4 mm Hg at 25 deg C (solid) (Extrapolated
       using value obtained from Boublik T et al (1984)).

   from [10]HSDB

   Computed Properties
   Molecular Weight                  144.16992 [g/mol]
   Molecular Formula                 C[10]H[8]O
   XLogP3                            2.7
   H-Bond Donor                      1
   H-Bond Acceptor                   1
   Rotatable Bond Count              0
   Tautomer Count                    3
   Exact Mass                        144.057515
   MonoIsotopic Mass                 144.057515
   Topological Polar Surface Area    20.2
   Heavy Atom Count                  11
   Formal Charge                     0
   Complexity                        133
   Isotope Atom Count                0
   Defined Atom Stereocenter Count   0
   Undefined Atom Stereocenter Count 0
   Defined Bond Stereocenter Count   0
   Undefined Bond Stereocenter Count 0
   Covalently-Bonded Unit Count      1
   Feature 3D Donor Count            1
   Feature 3D Ring Count             2
   Effective Rotor Count             0
   Conformer Sampling RMSD           0.4
   CID Conformer Count               [11]1

References

   1. http://toxnet.nlm.nih.gov/cgi-bin/sis/search/r?dbs+hsdb:@term+@rn+@rel+135-19-3
   2. http://toxnet.nlm.nih.gov/cgi-bin/sis/search/r?dbs+hsdb:@term+@rn+@rel+135-19-3
   3. http://toxnet.nlm.nih.gov/cgi-bin/sis/search/r?dbs+hsdb:@term+@rn+@rel+135-19-3
   4. http://toxnet.nlm.nih.gov/cgi-bin/sis/search/r?dbs+hsdb:@term+@rn+@rel+135-19-3
   5. http://toxnet.nlm.nih.gov/cgi-bin/sis/search/r?dbs+hsdb:@term+@rn+@rel+135-19-3
   6. http://toxnet.nlm.nih.gov/cgi-bin/sis/search/r?dbs+hsdb:@term+@rn+@rel+135-19-3
   7. http://toxnet.nlm.nih.gov/cgi-bin/sis/search/r?dbs+hsdb:@term+@rn+@rel+135-19-3
   8. http://toxnet.nlm.nih.gov/cgi-bin/sis/search/r?dbs+hsdb:@term+@rn+@rel+135-19-3
   9. http://toxnet.nlm.nih.gov/cgi-bin/sis/search/r?dbs+hsdb:@term+@rn+@rel+135-19-3
  10. http://toxnet.nlm.nih.gov/cgi-bin/sis/search/r?dbs+hsdb:@term+@rn+@rel+135-19-3
  11. http://pubchem.ncbi.nlm.nih.gov/vw3d/vw3d.cgi?cid=8663
