17395312
  -OEChem-06241222492D

 40 42  0     0  0  0  0  0  0999 V2000
    2.0000   -1.7673    0.0000 F   0  0  0  0  0  0  0  0  0  0  0  0
    2.8660   -0.2673    0.0000 F   0  0  0  0  0  0  0  0  0  0  0  0
   13.2862   -0.3020    0.0000 O   0  0  0  0  0  0  0  0  0  0  0  0
   13.2862    1.7673    0.0000 O   0  0  0  0  0  0  0  0  0  0  0  0
    9.7942   -0.2673    0.0000 O   0  0  0  0  0  0  0  0  0  0  0  0
    3.7320   -1.7673    0.0000 O   0  0  0  0  0  0  0  0  0  0  0  0
    8.0622   -1.2673    0.0000 O   0  0  0  0  0  0  0  0  0  0  0  0
    7.1962    0.2327    0.0000 N   0  0  0  0  0  0  0  0  0  0  0  0
   12.3923    0.2327    0.0000 C   0  0  0  0  0  0  0  0  0  0  0  0
   12.3923    1.2327    0.0000 C   0  0  0  0  0  0  0  0  0  0  0  0
   14.1923    0.2119    0.0000 C   0  0  0  0  0  0  0  0  0  0  0  0
   14.1923    1.2535    0.0000 C   0  0  0  0  0  0  0  0  0  0  0  0
   11.5263   -0.2673    0.0000 C   0  0  0  0  0  0  0  0  0  0  0  0
   10.6603    0.2327    0.0000 C   0  0  0  0  0  0  0  0  0  0  0  0
   11.5263    1.7327    0.0000 C   0  0  0  0  0  0  0  0  0  0  0  0
   10.6603    1.2327    0.0000 C   0  0  0  0  0  0  0  0  0  0  0  0
    8.9282    0.2327    0.0000 C   0  0  0  0  0  0  0  0  0  0  0  0
    6.3301   -0.2673    0.0000 C   0  0  0  0  0  0  0  0  0  0  0  0
    8.0622   -0.2673    0.0000 C   0  0  0  0  0  0  0  0  0  0  0  0
    5.4641    0.2327    0.0000 C   0  0  0  0  0  0  0  0  0  0  0  0
    6.3301   -1.2673    0.0000 C   0  0  0  0  0  0  0  0  0  0  0  0
    4.5981   -1.2673    0.0000 C   0  0  0  0  0  0  0  0  0  0  0  0
    4.5981   -0.2673    0.0000 C   0  0  0  0  0  0  0  0  0  0  0  0
    5.4641   -1.7673    0.0000 C   0  0  0  0  0  0  0  0  0  0  0  0
    2.8660   -1.2673    0.0000 C   0  0  0  0  0  0  0  0  0  0  0  0
   14.4014   -0.3718    0.0000 H   0  0  0  0  0  0  0  0  0  0  0  0
   14.8032    0.3179    0.0000 H   0  0  0  0  0  0  0  0  0  0  0  0
   14.8032    1.1474    0.0000 H   0  0  0  0  0  0  0  0  0  0  0  0
   14.4014    1.8372    0.0000 H   0  0  0  0  0  0  0  0  0  0  0  0
   11.5263   -0.8873    0.0000 H   0  0  0  0  0  0  0  0  0  0  0  0
   11.5263    2.3527    0.0000 H   0  0  0  0  0  0  0  0  0  0  0  0
   10.1233    1.5427    0.0000 H   0  0  0  0  0  0  0  0  0  0  0  0
    9.3267    0.7076    0.0000 H   0  0  0  0  0  0  0  0  0  0  0  0
    8.5297    0.7076    0.0000 H   0  0  0  0  0  0  0  0  0  0  0  0
    7.1962    0.8527    0.0000 H   0  0  0  0  0  0  0  0  0  0  0  0
    5.4641    0.8527    0.0000 H   0  0  0  0  0  0  0  0  0  0  0  0
    6.8671   -1.5773    0.0000 H   0  0  0  0  0  0  0  0  0  0  0  0
    4.0611    0.0427    0.0000 H   0  0  0  0  0  0  0  0  0  0  0  0
    5.4641   -2.3873    0.0000 H   0  0  0  0  0  0  0  0  0  0  0  0
    2.8660   -1.8873    0.0000 H   0  0  0  0  0  0  0  0  0  0  0  0
  1 25  1  0  0  0  0
  2 25  1  0  0  0  0
  3  9  1  0  0  0  0
  3 11  1  0  0  0  0
  4 10  1  0  0  0  0
  4 12  1  0  0  0  0
  5 14  1  0  0  0  0
  5 17  1  0  0  0  0
  6 22  1  0  0  0  0
  6 25  1  0  0  0  0
  7 19  2  0  0  0  0
  8 18  1  0  0  0  0
  8 19  1  0  0  0  0
  8 35  1  0  0  0  0
  9 10  2  0  0  0  0
  9 13  1  0  0  0  0
 10 15  1  0  0  0  0
 11 12  1  0  0  0  0
 11 26  1  0  0  0  0
 11 27  1  0  0  0  0
 12 28  1  0  0  0  0
 12 29  1  0  0  0  0
 13 14  2  0  0  0  0
 13 30  1  0  0  0  0
 14 16  1  0  0  0  0
 15 16  2  0  0  0  0
 15 31  1  0  0  0  0
 16 32  1  0  0  0  0
 17 19  1  0  0  0  0
 17 33  1  0  0  0  0
 17 34  1  0  0  0  0
 18 20  2  0  0  0  0
 18 21  1  0  0  0  0
 20 23  1  0  0  0  0
 20 36  1  0  0  0  0
 21 24  2  0  0  0  0
 21 37  1  0  0  0  0
 22 23  2  0  0  0  0
 22 24  1  0  0  0  0
 23 38  1  0  0  0  0
 24 39  1  0  0  0  0
 25 40  1  0  0  0  0
M  END
> <PUBCHEM_COMPOUND_CID>
17395312

> <PUBCHEM_COMPOUND_CANONICALIZED>
1

> <PUBCHEM_CACTVS_COMPLEXITY>
431

> <PUBCHEM_CACTVS_HBOND_ACCEPTOR>
7

> <PUBCHEM_CACTVS_HBOND_DONOR>
1

> <PUBCHEM_CACTVS_ROTATABLE_BOND>
6

> <PUBCHEM_CACTVS_SUBSKEYS>
AAADccB6OYAAAAAAAAAAAAAAAAAAAAAAAAA0YIAAAAAAAACRQAAAHwAQAAAACAyhkBIwxoLABACIACVSUAKCCAAhIgAIiABG7IgPJyLEsZ+HOCrl1BXa6AfwYAwAAUAACAAAQAACgAAQAACAAAAAAAAAAA==

> <PUBCHEM_IUPAC_OPENEYE_NAME>
N-[4-(difluoromethoxy)phenyl]-2-(2,3-dihydro-1,4-benzodioxin-6-yloxy)acetamide

> <PUBCHEM_IUPAC_CAS_NAME>
N-[4-(difluoromethoxy)phenyl]-2-(2,3-dihydro-1,4-benzodioxin-6-yloxy)acetamide

> <PUBCHEM_IUPAC_NAME>
N-[4-(difluoromethoxy)phenyl]-2-(2,3-dihydro-1,4-benzodioxin-6-yloxy)acetamide

> <PUBCHEM_IUPAC_SYSTEMATIC_NAME>
N-[4-[bis(fluoranyl)methoxy]phenyl]-2-(2,3-dihydro-1,4-benzodioxin-6-yloxy)ethanamide

> <PUBCHEM_IUPAC_TRADITIONAL_NAME>
N-[4-(difluoromethoxy)phenyl]-2-(2,3-dihydro-1,4-benzodioxin-6-yloxy)acetamide

> <PUBCHEM_IUPAC_INCHI>
InChI=1S/C17H15F2NO5/c18-17(19)25-12-3-1-11(2-4-12)20-16(21)10-24-13-5-6-14-15(9-13)23-8-7-22-14/h1-6,9,17H,7-8,10H2,(H,20,21)

> <PUBCHEM_IUPAC_INCHIKEY>
AZYPNRAGSFNDMO-UHFFFAOYSA-N

> <PUBCHEM_XLOGP3_AA>
3.4

> <PUBCHEM_EXACT_MASS>
351.091829

> <PUBCHEM_MOLECULAR_FORMULA>
C17H15F2NO5

> <PUBCHEM_MOLECULAR_WEIGHT>
351.301506

> <PUBCHEM_OPENEYE_CAN_SMILES>
C1COC2=C(O1)C=CC(=C2)OCC(=O)NC3=CC=C(C=C3)OC(F)F

> <PUBCHEM_OPENEYE_ISO_SMILES>
C1COC2=C(O1)C=CC(=C2)OCC(=O)NC3=CC=C(C=C3)OC(F)F

> <PUBCHEM_CACTVS_TPSA>
66

> <PUBCHEM_MONOISOTOPIC_WEIGHT>
351.091829

> <PUBCHEM_TOTAL_CHARGE>
0

> <PUBCHEM_HEAVY_ATOM_COUNT>
25

> <PUBCHEM_ATOM_DEF_STEREO_COUNT>
0

> <PUBCHEM_ATOM_UDEF_STEREO_COUNT>
0

> <PUBCHEM_BOND_DEF_STEREO_COUNT>
0

> <PUBCHEM_BOND_UDEF_STEREO_COUNT>
0

> <PUBCHEM_ISOTOPIC_ATOM_COUNT>
0

> <PUBCHEM_COMPONENT_COUNT>
1

> <PUBCHEM_CACTVS_TAUTO_COUNT>
3

> <PUBCHEM_COORDINATE_TYPE>
1
5
255

> <PUBCHEM_BONDANNOTATIONS>
10  15  8
13  14  8
14  16  8
15  16  8
18  20  8
18  21  8
20  23  8
21  24  8
22  23  8
22  24  8
9  10  8
9  13  8

$$$$

