51090901
  -OEChem-06241223002D

 46 46  0     0  0  0  0  0  0999 V2000
    3.0000   -3.0000    0.0000 S   0  0  0  0  0  0  0  0  0  0  0  0
    2.0000   -3.0000    0.0000 O   0  0  0  0  0  0  0  0  0  0  0  0
    4.0000   -3.0000    0.0000 O   0  0  0  0  0  0  0  0  0  0  0  0
    2.1340    1.5000    0.0000 O   0  0  0  0  0  0  0  0  0  0  0  0
    5.5981    2.5000    0.0000 O   0  0  0  0  0  0  0  0  0  0  0  0
    3.0000   -2.0000    0.0000 N   0  0  0  0  0  0  0  0  0  0  0  0
    3.8660    1.5000    0.0000 N   0  0  0  0  0  0  0  0  0  0  0  0
    4.7320    4.0000    0.0000 N   0  0  0  0  0  0  0  0  0  0  0  0
    3.0000    0.0000    0.0000 C   0  0  0  0  0  0  0  0  0  0  0  0
    3.8660   -0.5000    0.0000 C   0  0  0  0  0  0  0  0  0  0  0  0
    2.1340   -0.5000    0.0000 C   0  0  0  0  0  0  0  0  0  0  0  0
    2.1340   -1.5000    0.0000 C   0  0  0  0  0  0  0  0  0  0  0  0
    3.8660   -1.5000    0.0000 C   0  0  0  0  0  0  0  0  0  0  0  0
    3.0000    1.0000    0.0000 C   0  0  0  0  0  0  0  0  0  0  0  0
    3.0000   -4.0000    0.0000 C   0  0  0  0  0  0  0  0  0  0  0  0
    4.7320    1.0000    0.0000 C   0  0  0  0  0  0  0  0  0  0  0  0
    3.8660    2.5000    0.0000 C   0  0  0  0  0  0  0  0  0  0  0  0
    2.1340   -4.5000    0.0000 C   0  0  0  0  0  0  0  0  0  0  0  0
    5.5981    1.5000    0.0000 C   0  0  0  0  0  0  0  0  0  0  0  0
    4.7320    3.0000    0.0000 C   0  0  0  0  0  0  0  0  0  0  0  0
    5.5981    4.5000    0.0000 C   0  0  0  0  0  0  0  0  0  0  0  0
    3.5369    0.3100    0.0000 H   0  0  0  0  0  0  0  0  0  0  0  0
    1.9219    0.0826    0.0000 H   0  0  0  0  0  0  0  0  0  0  0  0
    1.5234   -0.6077    0.0000 H   0  0  0  0  0  0  0  0  0  0  0  0
    4.4766   -0.6077    0.0000 H   0  0  0  0  0  0  0  0  0  0  0  0
    4.0781    0.0826    0.0000 H   0  0  0  0  0  0  0  0  0  0  0  0
    1.5234   -1.3923    0.0000 H   0  0  0  0  0  0  0  0  0  0  0  0
    1.9219   -2.0826    0.0000 H   0  0  0  0  0  0  0  0  0  0  0  0
    4.0781   -2.0826    0.0000 H   0  0  0  0  0  0  0  0  0  0  0  0
    4.4766   -1.3923    0.0000 H   0  0  0  0  0  0  0  0  0  0  0  0
    3.2120   -4.5826    0.0000 H   0  0  0  0  0  0  0  0  0  0  0  0
    3.6106   -3.8923    0.0000 H   0  0  0  0  0  0  0  0  0  0  0  0
    4.3335    0.5251    0.0000 H   0  0  0  0  0  0  0  0  0  0  0  0
    5.1306    0.5251    0.0000 H   0  0  0  0  0  0  0  0  0  0  0  0
    3.6540    3.0826    0.0000 H   0  0  0  0  0  0  0  0  0  0  0  0
    3.2554    2.3923    0.0000 H   0  0  0  0  0  0  0  0  0  0  0  0
    1.8240   -3.9631    0.0000 H   0  0  0  0  0  0  0  0  0  0  0  0
    1.5970   -4.8100    0.0000 H   0  0  0  0  0  0  0  0  0  0  0  0
    2.4440   -5.0369    0.0000 H   0  0  0  0  0  0  0  0  0  0  0  0
    5.9081    0.9631    0.0000 H   0  0  0  0  0  0  0  0  0  0  0  0
    6.1350    1.8100    0.0000 H   0  0  0  0  0  0  0  0  0  0  0  0
    5.2881    2.0369    0.0000 H   0  0  0  0  0  0  0  0  0  0  0  0
    4.1951    4.3100    0.0000 H   0  0  0  0  0  0  0  0  0  0  0  0
    5.9081    3.9631    0.0000 H   0  0  0  0  0  0  0  0  0  0  0  0
    6.1350    4.8100    0.0000 H   0  0  0  0  0  0  0  0  0  0  0  0
    5.2881    5.0369    0.0000 H   0  0  0  0  0  0  0  0  0  0  0  0
  1  2  2  0  0  0  0
  1  3  2  0  0  0  0
  1  6  1  0  0  0  0
  1 15  1  0  0  0  0
  4 14  2  0  0  0  0
  5 20  2  0  0  0  0
  6 12  1  0  0  0  0
  6 13  1  0  0  0  0
  7 14  1  0  0  0  0
  7 16  1  0  0  0  0
  7 17  1  0  0  0  0
  8 20  1  0  0  0  0
  8 21  1  0  0  0  0
  8 43  1  0  0  0  0
  9 10  1  0  0  0  0
  9 11  1  0  0  0  0
  9 14  1  0  0  0  0
  9 22  1  0  0  0  0
 10 13  1  0  0  0  0
 10 25  1  0  0  0  0
 10 26  1  0  0  0  0
 11 12  1  0  0  0  0
 11 23  1  0  0  0  0
 11 24  1  0  0  0  0
 12 27  1  0  0  0  0
 12 28  1  0  0  0  0
 13 29  1  0  0  0  0
 13 30  1  0  0  0  0
 15 18  1  0  0  0  0
 15 31  1  0  0  0  0
 15 32  1  0  0  0  0
 16 19  1  0  0  0  0
 16 33  1  0  0  0  0
 16 34  1  0  0  0  0
 17 20  1  0  0  0  0
 17 35  1  0  0  0  0
 17 36  1  0  0  0  0
 18 37  1  0  0  0  0
 18 38  1  0  0  0  0
 18 39  1  0  0  0  0
 19 40  1  0  0  0  0
 19 41  1  0  0  0  0
 19 42  1  0  0  0  0
 21 44  1  0  0  0  0
 21 45  1  0  0  0  0
 21 46  1  0  0  0  0
M  END
> <PUBCHEM_COMPOUND_CID>
51090901

> <PUBCHEM_COMPOUND_CANONICALIZED>
1

> <PUBCHEM_CACTVS_COMPLEXITY>
464

> <PUBCHEM_CACTVS_HBOND_ACCEPTOR>
5

> <PUBCHEM_CACTVS_HBOND_DONOR>
1

> <PUBCHEM_CACTVS_ROTATABLE_BOND>
6

> <PUBCHEM_CACTVS_SUBSKEYS>
AAADceBzOABAAAAAAAAAAAAAAAAAAAAAAAAsAAAAAAAAAAAAAAAAHgQQQAAADQDFwASCAAPAAAIIAAEQEHBAAAAAAAAAAIGIAAAAQBIAgCAUAAAAFgCAAAAUAAAKAAAAAAAAAAAAAAAAAAAAAAAAAAAAAA==

> <PUBCHEM_IUPAC_OPENEYE_NAME>
N-ethyl-1-ethylsulfonyl-N-[2-(methylamino)-2-oxo-ethyl]piperidine-4-carboxamide

> <PUBCHEM_IUPAC_CAS_NAME>
N-ethyl-1-ethylsulfonyl-N-[2-(methylamino)-2-oxoethyl]-4-piperidinecarboxamide

> <PUBCHEM_IUPAC_NAME>
N-ethyl-1-ethylsulfonyl-N-[2-(methylamino)-2-oxoethyl]piperidine-4-carboxamide

> <PUBCHEM_IUPAC_SYSTEMATIC_NAME>
N-ethyl-1-ethylsulfonyl-N-[2-(methylamino)-2-oxidanylidene-ethyl]piperidine-4-carboxamide

> <PUBCHEM_IUPAC_TRADITIONAL_NAME>
1-esyl-N-ethyl-N-[2-keto-2-(methylamino)ethyl]isonipecotamide

> <PUBCHEM_IUPAC_INCHI>
InChI=1S/C13H25N3O4S/c1-4-15(10-12(17)14-3)13(18)11-6-8-16(9-7-11)21(19,20)5-2/h11H,4-10H2,1-3H3,(H,14,17)

> <PUBCHEM_IUPAC_INCHIKEY>
XMFIQASTDQVGFN-UHFFFAOYSA-N

> <PUBCHEM_XLOGP3_AA>
-0.5

> <PUBCHEM_EXACT_MASS>
319.156577

> <PUBCHEM_MOLECULAR_FORMULA>
C13H25N3O4S

> <PUBCHEM_MOLECULAR_WEIGHT>
319.4203

> <PUBCHEM_OPENEYE_CAN_SMILES>
CCN(CC(=O)NC)C(=O)C1CCN(CC1)S(=O)(=O)CC

> <PUBCHEM_OPENEYE_ISO_SMILES>
CCN(CC(=O)NC)C(=O)C1CCN(CC1)S(=O)(=O)CC

> <PUBCHEM_CACTVS_TPSA>
95.2

> <PUBCHEM_MONOISOTOPIC_WEIGHT>
319.156577

> <PUBCHEM_TOTAL_CHARGE>
0

> <PUBCHEM_HEAVY_ATOM_COUNT>
21

> <PUBCHEM_ATOM_DEF_STEREO_COUNT>
0

> <PUBCHEM_ATOM_UDEF_STEREO_COUNT>
0

> <PUBCHEM_BOND_DEF_STEREO_COUNT>
0

> <PUBCHEM_BOND_UDEF_STEREO_COUNT>
0

> <PUBCHEM_ISOTOPIC_ATOM_COUNT>
0

> <PUBCHEM_COMPONENT_COUNT>
1

> <PUBCHEM_CACTVS_TAUTO_COUNT>
2

> <PUBCHEM_COORDINATE_TYPE>
1
5
255

$$$$

