   Color/Form
        White crystals
   from [1]HSDB

   Boiling Point
        115.6 deg C at 60 mm Hg
   from [2]HSDB

   Melting Point
        112.3 deg C
   from [3]HSDB

   Octanol/Water Partition Coefficient
        log Kow = 0.77 [Munro NB et al; Environ Health Perspect 107:
   933-974 (1999)] [4]PubMed Abstract
   from [5]HSDB

   Solubilities

     * Soluble in ethanol, ether, carbon tetrachloride, acetic acid and
       carbon disulfide.
     * In water, 3,000 mg/L at 25 deg C [Munro NB et al; Environ Health
       Perspect 107: 933-974 (1999)] [6]PubMed Abstract

   from [7]HSDB

   Spectral Properties

     * MASS: 2183 (NIST/EPA/MSDC Mass Spectral Database, 1990 version)
     * IR: 3675 (Sadtler Research Laboratories Grating Collection)
     * NMR: 330 (Sadtler Research Laboratories Spectral Collection)
     * UV: 6-27 (Organic electronic Spectral Data, Phillips et al, John
       Wiley & Sons)

   from [8]HSDB

   Vapor Pressure
        0.80 mm Hg at 25 deg C [Munro NB et al; Environ Health Perspect
   107: 933-974 (1999)] [9]PubMed Abstract
   from [10]HSDB

   Other Chemical/Physical Properties

     * Henry's Law constant = 4.2X10-5 atm cu m/mole at 25 deg C (est)
     * Hydroxyl radical reaction rate constant = 3.9X10-11 cu cm/molec-sec
       at 25 deg C (est)

   from [11]HSDB

   Computed Properties
   Molecular Weight                  120.23632 [g/mol]
   Molecular Formula                 C[4]H[8]S[2]
   XLogP3-AA                         1.3
   H-Bond Donor                      0
   H-Bond Acceptor                   2
   Rotatable Bond Count              0
   Exact Mass                        120.006742
   MonoIsotopic Mass                 120.006742
   Topological Polar Surface Area    50.6
   Heavy Atom Count                  6
   Formal Charge                     0
   Complexity                        26.5
   Isotope Atom Count                0
   Defined Atom Stereocenter Count   0
   Undefined Atom Stereocenter Count 0
   Defined Bond Stereocenter Count   0
   Undefined Bond Stereocenter Count 0
   Covalently-Bonded Unit Count      1
   Feature 3D Ring Count             1
   Effective Rotor Count             1.2
   Conformer Sampling RMSD           0.4
   CID Conformer Count               [12]3

References

   1. http://toxnet.nlm.nih.gov/cgi-bin/sis/search/r?dbs+hsdb:@term+@rn+@rel+505-29-3
   2. http://toxnet.nlm.nih.gov/cgi-bin/sis/search/r?dbs+hsdb:@term+@rn+@rel+505-29-3
   3. http://toxnet.nlm.nih.gov/cgi-bin/sis/search/r?dbs+hsdb:@term+@rn+@rel+505-29-3
   4. http://www.ncbi.nlm.nih.gov/entrez/query.fcgi?cmd=Retrieve&db=pubmed&dopt=Abstract&list_uids=10585900
   5. http://toxnet.nlm.nih.gov/cgi-bin/sis/search/r?dbs+hsdb:@term+@rn+@rel+505-29-3
   6. http://www.ncbi.nlm.nih.gov/entrez/query.fcgi?cmd=Retrieve&db=pubmed&dopt=Abstract&list_uids=10585900
   7. http://toxnet.nlm.nih.gov/cgi-bin/sis/search/r?dbs+hsdb:@term+@rn+@rel+505-29-3
   8. http://toxnet.nlm.nih.gov/cgi-bin/sis/search/r?dbs+hsdb:@term+@rn+@rel+505-29-3
   9. http://www.ncbi.nlm.nih.gov/entrez/query.fcgi?cmd=Retrieve&db=pubmed&dopt=Abstract&list_uids=10585900
  10. http://toxnet.nlm.nih.gov/cgi-bin/sis/search/r?dbs+hsdb:@term+@rn+@rel+505-29-3
  11. http://toxnet.nlm.nih.gov/cgi-bin/sis/search/r?dbs+hsdb:@term+@rn+@rel+505-29-3
  12. http://pubchem.ncbi.nlm.nih.gov/vw3d/vw3d.cgi?cid=10452
