7833
  -OEChem-07051213132D

 22 24  0     1  0  0  0  0  0999 V2000
    6.4646   -0.4330    0.0000 O   0  0  0  0  0  0  0  0  0  0  0  0
    2.0000    0.5670    0.0000 O   0  0  0  0  0  0  0  0  0  0  0  0
    5.5981    0.0670    0.0000 C   0  0  3  0  0  0  0  0  0  0  0  0
    3.8660    0.0670    0.0000 C   0  0  3  0  0  0  0  0  0  0  0  0
    5.5981   -0.9330    0.0000 C   0  0  3  0  0  0  0  0  0  0  0  0
    4.7320    0.5670    0.0000 C   0  0  0  0  0  0  0  0  0  0  0  0
    3.0000    0.5670    0.0000 C   0  0  3  0  0  0  0  0  0  0  0  0
    3.8660   -0.9330    0.0000 C   0  0  0  0  0  0  0  0  0  0  0  0
    4.7320   -1.4330    0.0000 C   0  0  0  0  0  0  0  0  0  0  0  0
    2.5000    1.4330    0.0000 C   0  0  0  0  0  0  0  0  0  0  0  0
    5.9080    0.6040    0.0000 H   0  0  0  0  0  0  0  0  0  0  0  0
    3.8660    0.6870    0.0000 H   0  0  0  0  0  0  0  0  0  0  0  0
    5.9080   -1.4700    0.0000 H   0  0  0  0  0  0  0  0  0  0  0  0
    5.1306    1.0419    0.0000 H   0  0  0  0  0  0  0  0  0  0  0  0
    4.3335    1.0419    0.0000 H   0  0  0  0  0  0  0  0  0  0  0  0
    2.8395   -0.0319    0.0000 H   0  0  0  0  0  0  0  0  0  0  0  0
    3.2554   -0.8254    0.0000 H   0  0  0  0  0  0  0  0  0  0  0  0
    3.6540   -1.5156    0.0000 H   0  0  0  0  0  0  0  0  0  0  0  0
    4.3335   -1.9080    0.0000 H   0  0  0  0  0  0  0  0  0  0  0  0
    5.1306   -1.9080    0.0000 H   0  0  0  0  0  0  0  0  0  0  0  0
    2.9750    1.8315    0.0000 H   0  0  0  0  0  0  0  0  0  0  0  0
    2.0250    1.8315    0.0000 H   0  0  0  0  0  0  0  0  0  0  0  0
  1  3  1  0  0  0  0
  1  5  1  0  0  0  0
  2  7  1  0  0  0  0
  2 10  1  0  0  0  0
  3  5  1  0  0  0  0
  3  6  1  0  0  0  0
  3 11  1  0  0  0  0
  4  6  1  0  0  0  0
  4  7  1  0  0  0  0
  4  8  1  0  0  0  0
  4 12  1  0  0  0  0
  5  9  1  0  0  0  0
  5 13  1  0  0  0  0
  6 14  1  0  0  0  0
  6 15  1  0  0  0  0
  7 10  1  0  0  0  0
  7 16  1  0  0  0  0
  8  9  1  0  0  0  0
  8 17  1  0  0  0  0
  8 18  1  0  0  0  0
  9 19  1  0  0  0  0
  9 20  1  0  0  0  0
 10 21  1  0  0  0  0
 10 22  1  0  0  0  0
M  END
> <PUBCHEM_COMPOUND_CID>
7833

> <PUBCHEM_COMPOUND_CANONICALIZED>
1

> <PUBCHEM_CACTVS_COMPLEXITY>
157

> <PUBCHEM_CACTVS_HBOND_ACCEPTOR>
2

> <PUBCHEM_CACTVS_HBOND_DONOR>
0

> <PUBCHEM_CACTVS_ROTATABLE_BOND>
1

> <PUBCHEM_CACTVS_SUBSKEYS>
AAADccBwMAAAAAAAAAAAAAAAEiQAAAAAAAAwAAAABIAAAAAAAAAAGgAAAAAADRSggAIAAAAABAAAAAAAAAAAAAAAAAAAAAAAAAAAAAIAAAACAAAEAAAAAAHA4LwOAAAAAAAAAABAAAIAAAAAAAAAAAAAAA==

> <PUBCHEM_IUPAC_OPENEYE_NAME>
4-(oxiran-2-yl)-7-oxabicyclo[4.1.0]heptane

> <PUBCHEM_IUPAC_CAS_NAME>
4-(2-oxiranyl)-7-oxabicyclo[4.1.0]heptane

> <PUBCHEM_IUPAC_NAME>
4-(oxiran-2-yl)-7-oxabicyclo[4.1.0]heptane

> <PUBCHEM_IUPAC_SYSTEMATIC_NAME>
4-(oxiran-2-yl)-7-oxabicyclo[4.1.0]heptane

> <PUBCHEM_IUPAC_TRADITIONAL_NAME>
4-(oxiran-2-yl)-7-oxabicyclo[4.1.0]heptane

> <PUBCHEM_IUPAC_INCHI>
InChI=1S/C8H12O2/c1-2-6-7(10-6)3-5(1)8-4-9-8/h5-8H,1-4H2

> <PUBCHEM_IUPAC_INCHIKEY>
OECTYKWYRCHAKR-UHFFFAOYSA-N

> <PUBCHEM_XLOGP3_AA>
0.8

> <PUBCHEM_EXACT_MASS>
140.08373

> <PUBCHEM_MOLECULAR_FORMULA>
C8H12O2

> <PUBCHEM_MOLECULAR_WEIGHT>
140.17968

> <PUBCHEM_OPENEYE_CAN_SMILES>
C1CC2C(O2)CC1C3CO3

> <PUBCHEM_OPENEYE_ISO_SMILES>
C1CC2C(O2)CC1C3CO3

> <PUBCHEM_CACTVS_TPSA>
25.1

> <PUBCHEM_MONOISOTOPIC_WEIGHT>
140.08373

> <PUBCHEM_TOTAL_CHARGE>
0

> <PUBCHEM_HEAVY_ATOM_COUNT>
10

> <PUBCHEM_ATOM_DEF_STEREO_COUNT>
0

> <PUBCHEM_ATOM_UDEF_STEREO_COUNT>
4

> <PUBCHEM_BOND_DEF_STEREO_COUNT>
0

> <PUBCHEM_BOND_UDEF_STEREO_COUNT>
0

> <PUBCHEM_ISOTOPIC_ATOM_COUNT>
0

> <PUBCHEM_COMPONENT_COUNT>
1

> <PUBCHEM_CACTVS_TAUTO_COUNT>
1

> <PUBCHEM_COORDINATE_TYPE>
1
5
255

> <PUBCHEM_BONDANNOTATIONS>
3  6  3
4  6  3
5  9  3
7  10  3

$$$$

