13811
  -OEChem-06241222402D

 77 77  0     1  0  0  0  0  0999 V2000
    2.8660    5.0950    0.0000 O   0  0  0  0  0  0  0  0  0  0  0  0
    2.8660   -3.9050    0.0000 O   0  0  0  0  0  0  0  0  0  0  0  0
    4.5981    5.0950    0.0000 O   0  0  0  0  0  0  0  0  0  0  0  0
   11.5263    2.0950    0.0000 O   0  0  0  0  0  0  0  0  0  0  0  0
    8.9282   -5.4050    0.0000 O   0  0  0  0  0  0  0  0  0  0  0  0
    2.0000   -2.4050    0.0000 O   0  0  0  0  0  0  0  0  0  0  0  0
   10.6603    0.5950    0.0000 O   0  0  0  0  0  0  0  0  0  0  0  0
    9.7942   -3.9050    0.0000 O   0  0  0  0  0  0  0  0  0  0  0  0
    6.3301    0.0950    0.0000 N   0  3  0  0  0  0  0  0  0  0  0  0
    2.8660    3.0950    0.0000 N   0  0  0  0  0  0  0  0  0  0  0  0
    4.5981   -2.9050    0.0000 N   0  0  0  0  0  0  0  0  0  0  0  0
    9.7942    3.0950    0.0000 N   0  0  0  0  0  0  0  0  0  0  0  0
    7.1962   -4.4050    0.0000 N   0  0  0  0  0  0  0  0  0  0  0  0
    5.4641    0.5950    0.0000 C   0  0  0  0  0  0  0  0  0  0  0  0
    5.4641    1.5950    0.0000 C   0  0  0  0  0  0  0  0  0  0  0  0
    4.5981    0.0950    0.0000 C   0  0  0  0  0  0  0  0  0  0  0  0
    6.3301   -0.9050    0.0000 C   0  0  0  0  0  0  0  0  0  0  0  0
    4.5981    2.0950    0.0000 C   0  0  0  0  0  0  0  0  0  0  0  0
    7.1962    1.5950    0.0000 C   0  0  0  0  0  0  0  0  0  0  0  0
    7.1962   -1.4050    0.0000 C   0  0  0  0  0  0  0  0  0  0  0  0
    4.5981   -0.9050    0.0000 C   0  0  0  0  0  0  0  0  0  0  0  0
    7.1962    0.5950    0.0000 C   0  0  0  0  0  0  0  0  0  0  0  0
    6.3301    2.0950    0.0000 C   0  0  0  0  0  0  0  0  0  0  0  0
    8.0622    2.0950    0.0000 C   0  0  0  0  0  0  0  0  0  0  0  0
    7.1962   -2.4050    0.0000 C   0  0  0  0  0  0  0  0  0  0  0  0
    4.5981    3.0950    0.0000 C   0  0  0  0  0  0  0  0  0  0  0  0
    3.7320   -1.4050    0.0000 C   0  0  0  0  0  0  0  0  0  0  0  0
    8.9282    1.5950    0.0000 C   0  0  0  0  0  0  0  0  0  0  0  0
    8.0622   -2.9050    0.0000 C   0  0  0  0  0  0  0  0  0  0  0  0
    3.7320    3.5950    0.0000 C   0  0  3  0  0  0  0  0  0  0  0  0
    3.7320   -2.4050    0.0000 C   0  0  3  0  0  0  0  0  0  0  0  0
    9.7942    2.0950    0.0000 C   0  0  3  0  0  0  0  0  0  0  0  0
    8.0622   -3.9050    0.0000 C   0  0  3  0  0  0  0  0  0  0  0  0
    3.7320    4.5950    0.0000 C   0  0  0  0  0  0  0  0  0  0  0  0
    2.8660   -2.9050    0.0000 C   0  0  0  0  0  0  0  0  0  0  0  0
   10.6603    1.5950    0.0000 C   0  0  0  0  0  0  0  0  0  0  0  0
    8.9282   -4.4050    0.0000 C   0  0  0  0  0  0  0  0  0  0  0  0
    4.3860    0.6776    0.0000 H   0  0  0  0  0  0  0  0  0  0  0  0
    3.9875   -0.0127    0.0000 H   0  0  0  0  0  0  0  0  0  0  0  0
    5.7196   -0.7973    0.0000 H   0  0  0  0  0  0  0  0  0  0  0  0
    6.1181   -1.4876    0.0000 H   0  0  0  0  0  0  0  0  0  0  0  0
    3.9875    2.2027    0.0000 H   0  0  0  0  0  0  0  0  0  0  0  0
    4.3860    1.5124    0.0000 H   0  0  0  0  0  0  0  0  0  0  0  0
    7.8067   -1.5127    0.0000 H   0  0  0  0  0  0  0  0  0  0  0  0
    7.4082   -0.8224    0.0000 H   0  0  0  0  0  0  0  0  0  0  0  0
    4.8101   -1.4876    0.0000 H   0  0  0  0  0  0  0  0  0  0  0  0
    5.2087   -0.7973    0.0000 H   0  0  0  0  0  0  0  0  0  0  0  0
    7.7331    0.2850    0.0000 H   0  0  0  0  0  0  0  0  0  0  0  0
    6.3301    2.7150    0.0000 H   0  0  0  0  0  0  0  0  0  0  0  0
    8.4607    2.5700    0.0000 H   0  0  0  0  0  0  0  0  0  0  0  0
    7.6636    2.5700    0.0000 H   0  0  0  0  0  0  0  0  0  0  0  0
    6.5856   -2.2973    0.0000 H   0  0  0  0  0  0  0  0  0  0  0  0
    6.9841   -2.9876    0.0000 H   0  0  0  0  0  0  0  0  0  0  0  0
    5.2087    2.9873    0.0000 H   0  0  0  0  0  0  0  0  0  0  0  0
    4.8101    3.6776    0.0000 H   0  0  0  0  0  0  0  0  0  0  0  0
    3.5200   -0.8224    0.0000 H   0  0  0  0  0  0  0  0  0  0  0  0
    3.1215   -1.5127    0.0000 H   0  0  0  0  0  0  0  0  0  0  0  0
    8.5297    1.1200    0.0000 H   0  0  0  0  0  0  0  0  0  0  0  0
    9.3267    1.1200    0.0000 H   0  0  0  0  0  0  0  0  0  0  0  0
    8.6728   -3.0127    0.0000 H   0  0  0  0  0  0  0  0  0  0  0  0
    8.2742   -2.3224    0.0000 H   0  0  0  0  0  0  0  0  0  0  0  0
    3.7320    2.9750    0.0000 H   0  0  0  0  0  0  0  0  0  0  0  0
    3.7320   -3.0250    0.0000 H   0  0  0  0  0  0  0  0  0  0  0  0
    9.2573    2.4050    0.0000 H   0  0  0  0  0  0  0  0  0  0  0  0
    7.5252   -3.5950    0.0000 H   0  0  0  0  0  0  0  0  0  0  0  0
    2.3291    3.4050    0.0000 H   0  0  0  0  0  0  0  0  0  0  0  0
    2.8660    2.4750    0.0000 H   0  0  0  0  0  0  0  0  0  0  0  0
    4.5981   -3.5250    0.0000 H   0  0  0  0  0  0  0  0  0  0  0  0
    5.1350   -2.5950    0.0000 H   0  0  0  0  0  0  0  0  0  0  0  0
   10.3312    3.4050    0.0000 H   0  0  0  0  0  0  0  0  0  0  0  0
    9.2573    3.4050    0.0000 H   0  0  0  0  0  0  0  0  0  0  0  0
    7.1962   -5.0250    0.0000 H   0  0  0  0  0  0  0  0  0  0  0  0
    6.6592   -4.0950    0.0000 H   0  0  0  0  0  0  0  0  0  0  0  0
    2.8660    5.7150    0.0000 H   0  0  0  0  0  0  0  0  0  0  0  0
    2.3291   -4.2150    0.0000 H   0  0  0  0  0  0  0  0  0  0  0  0
   12.0632    1.7850    0.0000 H   0  0  0  0  0  0  0  0  0  0  0  0
    9.4651   -5.7150    0.0000 H   0  0  0  0  0  0  0  0  0  0  0  0
  1 34  1  0  0  0  0
  1 74  1  0  0  0  0
  2 35  1  0  0  0  0
  2 75  1  0  0  0  0
  3 34  2  0  0  0  0
  4 36  1  0  0  0  0
  4 76  1  0  0  0  0
  5 37  1  0  0  0  0
  5 77  1  0  0  0  0
  6 35  2  0  0  0  0
  7 36  2  0  0  0  0
  8 37  2  0  0  0  0
  9 14  1  0  0  0  0
  9 17  1  0  0  0  0
  9 22  2  0  0  0  0
 10 30  1  0  0  0  0
 10 66  1  0  0  0  0
 10 67  1  0  0  0  0
 11 31  1  0  0  0  0
 11 68  1  0  0  0  0
 11 69  1  0  0  0  0
 12 32  1  0  0  0  0
 12 70  1  0  0  0  0
 12 71  1  0  0  0  0
 13 33  1  0  0  0  0
 13 72  1  0  0  0  0
 13 73  1  0  0  0  0
 14 15  2  0  0  0  0
 14 16  1  0  0  0  0
 15 18  1  0  0  0  0
 15 23  1  0  0  0  0
 16 21  1  0  0  0  0
 16 38  1  0  0  0  0
 16 39  1  0  0  0  0
 17 20  1  0  0  0  0
 17 40  1  0  0  0  0
 17 41  1  0  0  0  0
 18 26  1  0  0  0  0
 18 42  1  0  0  0  0
 18 43  1  0  0  0  0
 19 22  1  0  0  0  0
 19 23  2  0  0  0  0
 19 24  1  0  0  0  0
 20 25  1  0  0  0  0
 20 44  1  0  0  0  0
 20 45  1  0  0  0  0
 21 27  1  0  0  0  0
 21 46  1  0  0  0  0
 21 47  1  0  0  0  0
 22 48  1  0  0  0  0
 23 49  1  0  0  0  0
 24 28  1  0  0  0  0
 24 50  1  0  0  0  0
 24 51  1  0  0  0  0
 25 29  1  0  0  0  0
 25 52  1  0  0  0  0
 25 53  1  0  0  0  0
 26 30  1  0  0  0  0
 26 54  1  0  0  0  0
 26 55  1  0  0  0  0
 27 31  1  0  0  0  0
 27 56  1  0  0  0  0
 27 57  1  0  0  0  0
 28 32  1  0  0  0  0
 28 58  1  0  0  0  0
 28 59  1  0  0  0  0
 29 33  1  0  0  0  0
 29 60  1  0  0  0  0
 29 61  1  0  0  0  0
 30 34  1  0  0  0  0
 30 62  1  0  0  0  0
 31 35  1  0  0  0  0
 31 63  1  0  0  0  0
 32 36  1  0  0  0  0
 32 64  1  0  0  0  0
 33 37  1  0  0  0  0
 33 65  1  0  0  0  0
M  CHG  1   9   1
M  END
> <PUBCHEM_COMPOUND_CID>
13811

> <PUBCHEM_COMPOUND_CANONICALIZED>
1

> <PUBCHEM_CACTVS_COMPLEXITY>
755

> <PUBCHEM_CACTVS_HBOND_ACCEPTOR>
12

> <PUBCHEM_CACTVS_HBOND_DONOR>
8

> <PUBCHEM_CACTVS_ROTATABLE_BOND>
19

> <PUBCHEM_CACTVS_SUBSKEYS>
AAADcfB7vAAAAAAAAAAAAAAAAAAAAAAAAAAsAAAAAAAAAAABgAAAHgAQCAAADCjBngQ8iJNMEgCoAzT3TACCgCAxACAA2KG4RJgKIPLAkZGEYAhkkADIyAeYyPCOAAAAAAAAAAAAAAAAAAAAAAAAAAAAAA==

> <PUBCHEM_IUPAC_OPENEYE_NAME>
2-amino-6-[2-(4-amino-4-carboxy-butyl)-3,5-bis(3-amino-3-carboxy-propyl)pyridin-1-ium-1-yl]hexanoic acid

> <PUBCHEM_IUPAC_CAS_NAME>
2-amino-6-[2-(4-amino-4-carboxybutyl)-3,5-bis(3-amino-3-carboxypropyl)-1-pyridin-1-iumyl]hexanoic acid

> <PUBCHEM_IUPAC_NAME>
2-amino-6-[2-(4-amino-4-carboxybutyl)-3,5-bis(3-amino-3-carboxypropyl)pyridin-1-ium-1-yl]hexanoic acid

> <PUBCHEM_IUPAC_SYSTEMATIC_NAME>
2-azanyl-6-[3,5-bis(3-azanyl-4-oxidanyl-4-oxidanylidene-butyl)-2-(4-azanyl-5-oxidanyl-5-oxidanylidene-pentyl)pyridin-1-ium-1-yl]hexanoic acid

> <PUBCHEM_IUPAC_TRADITIONAL_NAME>
2-amino-6-[2-(4-amino-4-carboxy-butyl)-3,5-bis(3-amino-3-carboxy-propyl)pyridin-1-ium-1-yl]hexanoic acid

> <PUBCHEM_IUPAC_INCHI>
InChI=1S/C24H39N5O8/c25-16(21(30)31)4-1-2-11-29-13-14(7-9-18(27)23(34)35)12-15(8-10-19(28)24(36)37)20(29)6-3-5-17(26)22(32)33/h12-13,16-19H,1-11,25-28H2,(H3-,30,31,32,33,34,35,36,37)/p+1

> <PUBCHEM_IUPAC_INCHIKEY>
RGXCTRIQQODGIZ-UHFFFAOYSA-O

> <PUBCHEM_XLOGP3_AA>
-10.1

> <PUBCHEM_EXACT_MASS>
526.287688

> <PUBCHEM_MOLECULAR_FORMULA>
C24H40N5O8+

> <PUBCHEM_MOLECULAR_WEIGHT>
526.6031

> <PUBCHEM_OPENEYE_CAN_SMILES>
C1=C(C=[N+](C(=C1CCC(C(=O)O)N)CCCC(C(=O)O)N)CCCCC(C(=O)O)N)CCC(C(=O)O)N

> <PUBCHEM_OPENEYE_ISO_SMILES>
C1=C(C=[N+](C(=C1CCC(C(=O)O)N)CCCC(C(=O)O)N)CCCCC(C(=O)O)N)CCC(C(=O)O)N

> <PUBCHEM_CACTVS_TPSA>
257

> <PUBCHEM_MONOISOTOPIC_WEIGHT>
526.287688

> <PUBCHEM_TOTAL_CHARGE>
1

> <PUBCHEM_HEAVY_ATOM_COUNT>
37

> <PUBCHEM_ATOM_DEF_STEREO_COUNT>
0

> <PUBCHEM_ATOM_UDEF_STEREO_COUNT>
4

> <PUBCHEM_BOND_DEF_STEREO_COUNT>
0

> <PUBCHEM_BOND_UDEF_STEREO_COUNT>
0

> <PUBCHEM_ISOTOPIC_ATOM_COUNT>
0

> <PUBCHEM_COMPONENT_COUNT>
1

> <PUBCHEM_CACTVS_TAUTO_COUNT>
2

> <PUBCHEM_COORDINATE_TYPE>
1
5
255

> <PUBCHEM_BONDANNOTATIONS>
30  10  3
31  11  3
32  12  3
33  13  3
14  15  8
15  23  8
19  22  8
19  23  8
9  14  8
9  22  8

$$$$

