   Color/Form

     * Colorless, clear, heavy liquid
     * Colorless liquid.
     * Colorless liquid

   from [1]HSDB

   Odor

     * SWEETISH, AROMATIC, MODERATELY STRONG ETHEREAL; SOMEWHAT RESEMBLING
       THAT OF CHLOROFORM
     * Characteristic, ether-like odor.
     * Sweetish, distinctive odor
     * Characteristic non-irritant odor

   from [2]HSDB

   Boiling Point
        76.8 deg C
   from [3]HSDB

   Melting Point
        -23 deg C
   from [4]HSDB

   Corrosivity
        Liquid carbon tetrachloride attacks some forms of plastics,
   rubber, and coatings.
   from [5]HSDB

   Critical Temperature and Pressure
        Critical temperature: 556.35 K; Critical pressure: 4.56X10+6 Pa
   from [6]HSDB

   Density/Specific Gravity
        1.5940 @ 20 deg C/4 deg C
   from [7]HSDB

   Heat of Combustion
        37.3 kg cal/g mol wt at 20 deg C
   from [8]HSDB

   Heat of Vaporization
        3.45X10+7 J/kmol @ 250-33 K
   from [9]HSDB

   Octanol/Water Partition Coefficient
        log Kow= 2.83
   from [10]HSDB

   Solubilities

     * Miscible with alcohol, benzene, chloroform, ether, carbon
       disulfide, petroleum ether, oils
     * Soluble in ethanol and acetone; miscible in ethyl ether.
     * Soluble in naphtha
     * In water: 1160 mg/l at 25 deg C and 800 mg/l at 20 deg C
     * Water solubility = 793 mg/l at 25 deg C

   from [11]HSDB

   Spectral Properties

     * MAX ABSORPTION: LESS THAN 200 NM (VAPOR)
     * Index of refraction: 1.4607 @ 20 deg C/D
     * IR: 6470 (Coblentz Society Spectral Collection)
     * MASS: 899 (Atlas of Mass Spectral Data, John Wiley & Sons, New
       York)
     * Intense mass spectral peaks: 47 m/z, 82 m/z, 117 m/z

   from [12]HSDB

   Surface Tension
        3.23X10-2 N/m @ 25.33 K
   from [13]HSDB

   Vapor Density
        5.32 (AIR= 1)
   from [14]HSDB

   Vapor Pressure
        115 mm Hg at 25 deg C
   from [15]HSDB

   Relative Evaporation Rate
        Evaporation rate: 12.8 (butyl acetate = 1)
   from [16]HSDB

   Viscosity
        2.03X10-3 Pa.s @ 250.00 K
   from [17]HSDB

   Other Chemical/Physical Properties

     * CONVERSION FACTORS: 1 PPM= 6.29 MG/CU M @ 25 DEG C, 1 MG/L= 159 PPM
     * Heat of fusion: 5.09 cal/g= 21.30 J/g= 3,276 J/mol
     * Heat capacity: 31.7 cal/g mole deg K at 1 atm (liquid); 19.9 cal/g
       mole deg K at 1 atm (gas)
     * Ratio of specific heats of vapor: 1.111
     * Saturated liquid density: 99.080 lb/cu ft; liquid heat capacity:
       0.219 Btu/lb deg F; liquid viscosity: 0.922 centipoise; ideal gas
       heat capacity: 0.130 Btu/lb deg F (all at 75 deg F)
     * Liquid thermal conductivity: 0.690 Btu-inch/hr-sq ft deg F;
       saturated vapor pressure: 1.874 lb/sq in; saturated vapor density:
       0.05069 lb/cu ft (all at 70 deg F)
     * Partition coefficients at 37 deg C for carbon tetrachloride into
       blood= 2.4; into oil= 361. [Sato A, Nakajima T; Scand J Work
       Environ Health 13: 81-93 (1987)] [18]PubMed Abstract
     * Wt/gal 13.22 lb at 25 deg C.
     * REACTS SLOWLY WITH COPPER, LEAD; REDUCED TO CHLOROFORM WITH ZINC
       AND ACID
     * High vapor pressure (108 torr at 25 C)
     * Henry's Law Constant for carbon tetrachloride has been measured to
       be 3.04 X 10-2 atm-cu m/mole at 24.8 deg C.
     * VAPOR PRESSURE = 91.3 MM HG @ 20 DEG C
     * Henry's Law constant = 2.76X10-2 atm-cu m/mol at 25 deg C
     * Hydroxyl radical rate constant = 1.20X10-16 cu-cm/molecule-sec @ 25
       deg C

   from [19]HSDB

   Computed Properties
   Molecular Weight                  153.8227 [g/mol]
   Molecular Formula                 CCl[4]
   XLogP3-AA                         2.8
   H-Bond Donor                      0
   H-Bond Acceptor                   0
   Rotatable Bond Count              0
   Exact Mass                        153.872461
   MonoIsotopic Mass                 151.875411
   Topological Polar Surface Area    0
   Heavy Atom Count                  5
   Formal Charge                     0
   Complexity                        19.1
   Isotope Atom Count                0
   Defined Atom Stereocenter Count   0
   Undefined Atom Stereocenter Count 0
   Defined Bond Stereocenter Count   0
   Undefined Bond Stereocenter Count 0
   Covalently-Bonded Unit Count      1
   Effective Rotor Count             0
   Conformer Sampling RMSD           0.4
   CID Conformer Count               [20]1

References

   1. http://toxnet.nlm.nih.gov/cgi-bin/sis/search/r?dbs+hsdb:@term+@rn+@rel+56-23-5
   2. http://toxnet.nlm.nih.gov/cgi-bin/sis/search/r?dbs+hsdb:@term+@rn+@rel+56-23-5
   3. http://toxnet.nlm.nih.gov/cgi-bin/sis/search/r?dbs+hsdb:@term+@rn+@rel+56-23-5
   4. http://toxnet.nlm.nih.gov/cgi-bin/sis/search/r?dbs+hsdb:@term+@rn+@rel+56-23-5
   5. http://toxnet.nlm.nih.gov/cgi-bin/sis/search/r?dbs+hsdb:@term+@rn+@rel+56-23-5
   6. http://toxnet.nlm.nih.gov/cgi-bin/sis/search/r?dbs+hsdb:@term+@rn+@rel+56-23-5
   7. http://toxnet.nlm.nih.gov/cgi-bin/sis/search/r?dbs+hsdb:@term+@rn+@rel+56-23-5
   8. http://toxnet.nlm.nih.gov/cgi-bin/sis/search/r?dbs+hsdb:@term+@rn+@rel+56-23-5
   9. http://toxnet.nlm.nih.gov/cgi-bin/sis/search/r?dbs+hsdb:@term+@rn+@rel+56-23-5
  10. http://toxnet.nlm.nih.gov/cgi-bin/sis/search/r?dbs+hsdb:@term+@rn+@rel+56-23-5
  11. http://toxnet.nlm.nih.gov/cgi-bin/sis/search/r?dbs+hsdb:@term+@rn+@rel+56-23-5
  12. http://toxnet.nlm.nih.gov/cgi-bin/sis/search/r?dbs+hsdb:@term+@rn+@rel+56-23-5
  13. http://toxnet.nlm.nih.gov/cgi-bin/sis/search/r?dbs+hsdb:@term+@rn+@rel+56-23-5
  14. http://toxnet.nlm.nih.gov/cgi-bin/sis/search/r?dbs+hsdb:@term+@rn+@rel+56-23-5
  15. http://toxnet.nlm.nih.gov/cgi-bin/sis/search/r?dbs+hsdb:@term+@rn+@rel+56-23-5
  16. http://toxnet.nlm.nih.gov/cgi-bin/sis/search/r?dbs+hsdb:@term+@rn+@rel+56-23-5
  17. http://toxnet.nlm.nih.gov/cgi-bin/sis/search/r?dbs+hsdb:@term+@rn+@rel+56-23-5
  18. http://www.ncbi.nlm.nih.gov/entrez/query.fcgi?cmd=Retrieve&db=pubmed&dopt=Abstract&list_uids=3299685
  19. http://toxnet.nlm.nih.gov/cgi-bin/sis/search/r?dbs+hsdb:@term+@rn+@rel+56-23-5
  20. http://pubchem.ncbi.nlm.nih.gov/vw3d/vw3d.cgi?cid=5943
