   Color/Form

     * WHITE, CRYSTALLINE FLAKES OR SOLID
     * WHITE SCALES, BALLS, POWDER OR CAKES
     * MONOCLINIC PLATES FROM ALCOHOL
     * Colorless to brown solid ... [Note: Shipped as a molten solid].

   from [1]HSDB

   Odor

     * Aromatic odor
     * ... Odor of mothballs ...

   from [2]HSDB

   Boiling Point
        217.9 deg C @ 760 mm Hg
   from [3]HSDB

   Melting Point
        80.2 deg C
   from [4]HSDB

   Corrosivity
        Melted naphthalene will attack some forms of plastics, rubber, and
   coatings.
   from [5]HSDB

   Critical Temperature and Pressure

     * CRIT TEMP: 887.4 DEG F= 475.2 DEG C= 748.4 DEG K
     * CRIT PRESSURE: 588 PSI= 40.0 ATM= 4.05 MEGANEWTONS/SQ M

   from [6]HSDB

   Density/Specific Gravity
        1.162 g/cu cm @ 20 deg C
   from [7]HSDB

   Heat of Combustion
        -16,720 BTU/LB= -9287 CAL/G= -388.8X10+5 JOULES/KG
   from [8]HSDB

   Heat of Vaporization
        43.5 kJ/mol
   from [9]HSDB

   Octanol/Water Partition Coefficient
        log Kow= 3.30
   from [10]HSDB

   Solubilities

     * 1 g/13 ml ethanol or methanol; 1 g/3.5 ml benzene or toluene; 1 g/8
       ml olive oil or tupentine; 1 g/2 ml chloroform or carbon
       tetrachloride; 1 g/1.2 ml carbon disulfide. Very sol in ether,
       hydronaphthalenes, and in fixed and volatile oils.
     * In water, 31 mg/l @ 25 deg C
     * SOL IN ETHYLENE DICHLORIDE

   from [11]HSDB

   Spectral Properties

     * MAX ABSORPTION (ALCOHOL): 221 NM (LOG E= 5.04); 275.5 NM (LOG E=
       3.76); 286 NM (LOG E= 3.59); 311 NM (LOG E= 2.38)
     * SADTLER REF NUMBER: 865 (IR, PRISM): 169 (IR, GRATING)
     * Ultraviolet absorption: several characteristic bands between 217.5
       and 320 nm in hexane
     * Purple fluorescence in Hg light (petroleum ether soln)
     * Index of refraction: 1.58212 at 100 deg C/D
     * Index of refraction: 1.4003 @ 24 deg C/D
     * Intense mass spectral peaks: 128 m/z (100%), 51 m/z (13%), 129 m/z
       (11%), 64 m/z (11%)
     * IR: 5547 (Coblentz Society Spectral Collection)
     * UV: 265 (Sadtler Research Laboratories Spectral Collection)
     * NMR: 62 (Sadtler Research Laboratories Prism Collection)
     * MASS: 2250 (Atlas of Mass Spectral Data, John Wiley & Sons, New
       York)

   from [12]HSDB

   Surface Tension
        LIQUID SURFACE TENSION: 31.8 DYNES/CM= 0.0318 NEWTONS/M AT 100 DEG
   C
   from [13]HSDB

   Vapor Density
        4.42 (Air = 1)
   from [14]HSDB

   Vapor Pressure
        0.085 mm Hg @ 25 deg C
   from [15]HSDB

   Relative Evaporation Rate
        Much less than 1. (Butyl acetate= 1)
   from [16]HSDB

   Viscosity
        0.96 cP @ 80.3 deg C
   from [17]HSDB

   Other Chemical/Physical Properties

     * Sublimes appreciably at temp above melting point
     * Naphthalene carries two nonequivalent sets of hydrogen atoms.
       Therefore, two isomers of every monosubstituted naphthalene are
       known.
     * Triple point, deg C: 80.28. Heat of fusion at triple point, kJ/mol:
       18.979.
     * Heat capacity (at 15.5 deg C and 101.3 kPa), J/(molxK): 159.28.
       Heat of formation (at 25 deg C), kJ/mol: Solid: 78.53; gas: 150.58.
     * Henry's Law constant = 4.4X10-4 atm-cu m/mole @ 25 deg C
     * Hydroxyl radical reaction rate constant = 2.16X10-11 cu
       cm/molecule-sec @ 25 deg C

   from [18]HSDB

   Computed Properties
   Molecular Weight                  128.17052 [g/mol]
   Molecular Formula                 C[10]H[8]
   XLogP3                            3.3
   H-Bond Donor                      0
   H-Bond Acceptor                   0
   Rotatable Bond Count              0
   Exact Mass                        128.0626
   MonoIsotopic Mass                 128.0626
   Topological Polar Surface Area    0
   Heavy Atom Count                  10
   Formal Charge                     0
   Complexity                        80.6
   Isotope Atom Count                0
   Defined Atom Stereocenter Count   0
   Undefined Atom Stereocenter Count 0
   Defined Bond Stereocenter Count   0
   Undefined Bond Stereocenter Count 0
   Covalently-Bonded Unit Count      1
   Feature 3D Ring Count             2
   Effective Rotor Count             0
   Conformer Sampling RMSD           0.4
   CID Conformer Count               [19]1

References

   1. http://toxnet.nlm.nih.gov/cgi-bin/sis/search/r?dbs+hsdb:@term+@rn+@rel+91-20-3
   2. http://toxnet.nlm.nih.gov/cgi-bin/sis/search/r?dbs+hsdb:@term+@rn+@rel+91-20-3
   3. http://toxnet.nlm.nih.gov/cgi-bin/sis/search/r?dbs+hsdb:@term+@rn+@rel+91-20-3
   4. http://toxnet.nlm.nih.gov/cgi-bin/sis/search/r?dbs+hsdb:@term+@rn+@rel+91-20-3
   5. http://toxnet.nlm.nih.gov/cgi-bin/sis/search/r?dbs+hsdb:@term+@rn+@rel+91-20-3
   6. http://toxnet.nlm.nih.gov/cgi-bin/sis/search/r?dbs+hsdb:@term+@rn+@rel+91-20-3
   7. http://toxnet.nlm.nih.gov/cgi-bin/sis/search/r?dbs+hsdb:@term+@rn+@rel+91-20-3
   8. http://toxnet.nlm.nih.gov/cgi-bin/sis/search/r?dbs+hsdb:@term+@rn+@rel+91-20-3
   9. http://toxnet.nlm.nih.gov/cgi-bin/sis/search/r?dbs+hsdb:@term+@rn+@rel+91-20-3
  10. http://toxnet.nlm.nih.gov/cgi-bin/sis/search/r?dbs+hsdb:@term+@rn+@rel+91-20-3
  11. http://toxnet.nlm.nih.gov/cgi-bin/sis/search/r?dbs+hsdb:@term+@rn+@rel+91-20-3
  12. http://toxnet.nlm.nih.gov/cgi-bin/sis/search/r?dbs+hsdb:@term+@rn+@rel+91-20-3
  13. http://toxnet.nlm.nih.gov/cgi-bin/sis/search/r?dbs+hsdb:@term+@rn+@rel+91-20-3
  14. http://toxnet.nlm.nih.gov/cgi-bin/sis/search/r?dbs+hsdb:@term+@rn+@rel+91-20-3
  15. http://toxnet.nlm.nih.gov/cgi-bin/sis/search/r?dbs+hsdb:@term+@rn+@rel+91-20-3
  16. http://toxnet.nlm.nih.gov/cgi-bin/sis/search/r?dbs+hsdb:@term+@rn+@rel+91-20-3
  17. http://toxnet.nlm.nih.gov/cgi-bin/sis/search/r?dbs+hsdb:@term+@rn+@rel+91-20-3
  18. http://toxnet.nlm.nih.gov/cgi-bin/sis/search/r?dbs+hsdb:@term+@rn+@rel+91-20-3
  19. http://pubchem.ncbi.nlm.nih.gov/vw3d/vw3d.cgi?cid=931
