3037884
  -OEChem-07051213092D

 55 58  0     1  0  0  0  0  0999 V2000
    7.5587   -2.5301    0.0000 O   0  0  0  0  0  0  0  0  0  0  0  0
    9.5747   -0.3085    0.0000 O   0  0  0  0  0  0  0  0  0  0  0  0
    6.2760   -1.3662    0.0000 O   0  0  0  0  0  0  0  0  0  0  0  0
    6.9654    2.0780    0.0000 N   0  0  3  0  0  0  0  0  0  0  0  0
    4.5124    0.9605    0.0000 N   0  0  0  0  0  0  0  0  0  0  0  0
    6.2962    1.3348    0.0000 C   0  0  2  0  0  0  0  0  0  0  0  0
    8.3170    0.8890    0.0000 C   0  0  2  0  0  0  0  0  0  0  0  0
    7.6200    0.1149    0.0000 C   0  0  2  0  0  0  0  0  0  0  0  0
    6.6028    0.3393    0.0000 C   0  0  0  0  0  0  0  0  0  0  0  0
    7.9875    1.8771    0.0000 C   0  0  0  0  0  0  0  0  0  0  0  0
    5.3181    1.5427    0.0000 C   0  0  0  0  0  0  0  0  0  0  0  0
    6.6564    3.0290    0.0000 C   0  0  0  0  0  0  0  0  0  0  0  0
    5.0091    2.4938    0.0000 C   0  0  0  0  0  0  0  0  0  0  0  0
    5.6782    3.2369    0.0000 C   0  0  0  0  0  0  0  0  0  0  0  0
    9.2959    0.6848    0.0000 C   0  0  0  0  0  0  0  0  0  0  0  0
    7.9253   -0.8373    0.0000 C   0  0  0  0  0  0  0  0  0  0  0  0
    4.0150    2.4912    0.0000 C   0  0  0  0  0  0  0  0  0  0  0  0
    3.7086    1.5455    0.0000 C   0  0  0  0  0  0  0  0  0  0  0  0
    9.9622    1.4306    0.0000 C   0  0  0  0  0  0  0  0  0  0  0  0
    7.2533   -1.5779    0.0000 C   0  0  0  0  0  0  0  0  0  0  0  0
    8.9027   -1.0490    0.0000 C   0  0  0  0  0  0  0  0  0  0  0  0
    3.3334    3.2707    0.0000 C   0  0  0  0  0  0  0  0  0  0  0  0
    2.6994    1.3138    0.0000 C   0  0  0  0  0  0  0  0  0  0  0  0
    2.3191    3.0624    0.0000 C   0  0  0  0  0  0  0  0  0  0  0  0
    2.0000    2.0773    0.0000 C   0  0  0  0  0  0  0  0  0  0  0  0
    6.8867   -3.2707    0.0000 C   0  0  0  0  0  0  0  0  0  0  0  0
   10.5520   -0.5201    0.0000 C   0  0  0  0  0  0  0  0  0  0  0  0
    5.7226    0.7075    0.0000 H   0  0  0  0  0  0  0  0  0  0  0  0
    8.5097    0.2997    0.0000 H   0  0  0  0  0  0  0  0  0  0  0  0
    8.2262   -0.0152    0.0000 H   0  0  0  0  0  0  0  0  0  0  0  0
    5.9878    0.2609    0.0000 H   0  0  0  0  0  0  0  0  0  0  0  0
    6.5748   -0.2800    0.0000 H   0  0  0  0  0  0  0  0  0  0  0  0
    8.6005    1.9697    0.0000 H   0  0  0  0  0  0  0  0  0  0  0  0
    8.0011    2.4970    0.0000 H   0  0  0  0  0  0  0  0  0  0  0  0
    7.2703    3.1153    0.0000 H   0  0  0  0  0  0  0  0  0  0  0  0
    6.6780    3.6486    0.0000 H   0  0  0  0  0  0  0  0  0  0  0  0
    5.9105    3.8118    0.0000 H   0  0  0  0  0  0  0  0  0  0  0  0
    5.1524    3.5655    0.0000 H   0  0  0  0  0  0  0  0  0  0  0  0
    9.0659    0.1091    0.0000 H   0  0  0  0  0  0  0  0  0  0  0  0
    9.8230    0.3583    0.0000 H   0  0  0  0  0  0  0  0  0  0  0  0
    4.5113    0.3405    0.0000 H   0  0  0  0  0  0  0  0  0  0  0  0
   10.4245    1.0175    0.0000 H   0  0  0  0  0  0  0  0  0  0  0  0
   10.3752    1.8929    0.0000 H   0  0  0  0  0  0  0  0  0  0  0  0
    9.4998    1.8436    0.0000 H   0  0  0  0  0  0  0  0  0  0  0  0
    9.0920   -1.6394    0.0000 H   0  0  0  0  0  0  0  0  0  0  0  0
    3.5313    3.8583    0.0000 H   0  0  0  0  0  0  0  0  0  0  0  0
    2.5152    0.7218    0.0000 H   0  0  0  0  0  0  0  0  0  0  0  0
    1.9056    3.5243    0.0000 H   0  0  0  0  0  0  0  0  0  0  0  0
    1.3942    1.9455    0.0000 H   0  0  0  0  0  0  0  0  0  0  0  0
    6.4276   -2.8541    0.0000 H   0  0  0  0  0  0  0  0  0  0  0  0
    6.4701   -3.7298    0.0000 H   0  0  0  0  0  0  0  0  0  0  0  0
    7.3458   -3.6873    0.0000 H   0  0  0  0  0  0  0  0  0  0  0  0
   10.4208   -1.1261    0.0000 H   0  0  0  0  0  0  0  0  0  0  0  0
   11.1579   -0.6514    0.0000 H   0  0  0  0  0  0  0  0  0  0  0  0
   10.6832    0.0858    0.0000 H   0  0  0  0  0  0  0  0  0  0  0  0
  1 20  1  0  0  0  0
  1 26  1  0  0  0  0
  2 21  1  0  0  0  0
  2 27  1  0  0  0  0
  3 20  2  0  0  0  0
  4  6  1  0  0  0  0
  4 10  1  0  0  0  0
  4 12  1  0  0  0  0
  5 11  1  0  0  0  0
  5 18  1  0  0  0  0
  5 41  1  0  0  0  0
  6  9  1  0  0  0  0
  6 11  1  0  0  0  0
  6 28  1  1  0  0  0
  7  8  1  0  0  0  0
  7 10  1  0  0  0  0
  7 15  1  6  0  0  0
  7 29  1  0  0  0  0
  8  9  1  0  0  0  0
  8 16  1  1  0  0  0
  8 30  1  0  0  0  0
  9 31  1  0  0  0  0
  9 32  1  0  0  0  0
 10 33  1  0  0  0  0
 10 34  1  0  0  0  0
 11 13  2  0  0  0  0
 12 14  1  0  0  0  0
 12 35  1  0  0  0  0
 12 36  1  0  0  0  0
 13 14  1  0  0  0  0
 13 17  1  0  0  0  0
 14 37  1  0  0  0  0
 14 38  1  0  0  0  0
 15 19  1  0  0  0  0
 15 39  1  0  0  0  0
 15 40  1  0  0  0  0
 16 20  1  0  0  0  0
 16 21  2  0  0  0  0
 17 18  1  0  0  0  0
 17 22  2  0  0  0  0
 18 23  2  0  0  0  0
 19 42  1  0  0  0  0
 19 43  1  0  0  0  0
 19 44  1  0  0  0  0
 21 45  1  0  0  0  0
 22 24  1  0  0  0  0
 22 46  1  0  0  0  0
 23 25  1  0  0  0  0
 23 47  1  0  0  0  0
 24 25  2  0  0  0  0
 24 48  1  0  0  0  0
 25 49  1  0  0  0  0
 26 50  1  0  0  0  0
 26 51  1  0  0  0  0
 26 52  1  0  0  0  0
 27 53  1  0  0  0  0
 27 54  1  0  0  0  0
 27 55  1  0  0  0  0
M  END
> <PUBCHEM_COMPOUND_CID>
3037884

> <PUBCHEM_COMPOUND_CANONICALIZED>
1

> <PUBCHEM_CACTVS_COMPLEXITY>
578

> <PUBCHEM_CACTVS_HBOND_ACCEPTOR>
4

> <PUBCHEM_CACTVS_HBOND_DONOR>
1

> <PUBCHEM_CACTVS_ROTATABLE_BOND>
5

> <PUBCHEM_CACTVS_SUBSKEYS>
AAADceB7MAAAAAAAAAAAAAAAAAAAAWAAAAA8WIAAAAAAAFix8AAAHgAQAAAADSjhngYyyPPJlACoAyTyTACCiCAhIiAImSE4ZNgIZPLAsZGUIAhkkADI6IeY2eOegAAAAAACAAAAAAAAAAQAAAAAAAAAAA==

> <PUBCHEM_IUPAC_OPENEYE_NAME>
methyl (E)-2-[(2S,3R,12bR)-3-ethyl-1,2,3,4,6,7,12,12b-octahydroindolo[2,3-a]quinolizin-2-yl]-3-methoxy-prop-2-enoate

> <PUBCHEM_IUPAC_CAS_NAME>
(E)-2-[(2S,3R,12bR)-3-ethyl-1,2,3,4,6,7,12,12b-octahydroindolo[2,3-a]quinolizin-2-yl]-3-methoxy-2-propenoic acid methyl ester

> <PUBCHEM_IUPAC_NAME>
methyl (E)-2-[(2S,3R,12bR)-3-ethyl-1,2,3,4,6,7,12,12b-octahydroindolo[2,3-a]quinolizin-2-yl]-3-methoxyprop-2-enoate

> <PUBCHEM_IUPAC_SYSTEMATIC_NAME>
methyl (E)-2-[(2S,3R,12bR)-3-ethyl-1,2,3,4,6,7,12,12b-octahydroindolo[2,3-a]quinolizin-2-yl]-3-methoxy-prop-2-enoate

> <PUBCHEM_IUPAC_TRADITIONAL_NAME>
(E)-2-[(2S,3R,12bR)-3-ethyl-1,2,3,4,6,7,12,12b-octahydropyrido[2,1-a]$b-carbolin-2-yl]-3-methoxy-acrylic acid methyl ester

> <PUBCHEM_IUPAC_INCHI>
InChI=1S/C22H28N2O3/c1-4-14-12-24-10-9-16-15-7-5-6-8-19(15)23-21(16)20(24)11-17(14)18(13-26-2)22(25)27-3/h5-8,13-14,17,20,23H,4,9-12H2,1-3H3/b18-13+/t14-,17-,20+/m0/s1

> <PUBCHEM_IUPAC_INCHIKEY>
NMLUOJBSAYAYEM-AZQGJTAVSA-N

> <PUBCHEM_XLOGP3_AA>
3.4

> <PUBCHEM_EXACT_MASS>
368.209993

> <PUBCHEM_MOLECULAR_FORMULA>
C22H28N2O3

> <PUBCHEM_MOLECULAR_WEIGHT>
368.46932

> <PUBCHEM_OPENEYE_CAN_SMILES>
CCC1CN2CCC3=C(C2CC1C(=COC)C(=O)OC)NC4=CC=CC=C34

> <PUBCHEM_OPENEYE_ISO_SMILES>
CC[C@H]1CN2CCC3=C([C@H]2C[C@@H]1/C(=C\OC)/C(=O)OC)NC4=CC=CC=C34

> <PUBCHEM_CACTVS_TPSA>
54.6

> <PUBCHEM_MONOISOTOPIC_WEIGHT>
368.209993

> <PUBCHEM_TOTAL_CHARGE>
0

> <PUBCHEM_HEAVY_ATOM_COUNT>
27

> <PUBCHEM_ATOM_DEF_STEREO_COUNT>
3

> <PUBCHEM_ATOM_UDEF_STEREO_COUNT>
0

> <PUBCHEM_BOND_DEF_STEREO_COUNT>
1

> <PUBCHEM_BOND_UDEF_STEREO_COUNT>
0

> <PUBCHEM_ISOTOPIC_ATOM_COUNT>
0

> <PUBCHEM_COMPONENT_COUNT>
1

> <PUBCHEM_CACTVS_TAUTO_COUNT>
1

> <PUBCHEM_COORDINATE_TYPE>
1
5
255

> <PUBCHEM_BONDANNOTATIONS>
11  13  8
13  17  8
17  18  8
17  22  8
18  23  8
22  24  8
23  25  8
24  25  8
5  11  8
5  18  8
6  28  5
7  15  6
8  16  5

$$$$

