10346314
  -OEChem-07051213092D

 65 70  0     1  0  0  0  0  0999 V2000
    3.7690   -1.7135    0.0000 O   0  0  0  0  0  0  0  0  0  0  0  0
    5.4319   -2.4090    0.0000 O   0  0  0  0  0  0  0  0  0  0  0  0
    5.6181   -4.1310    0.0000 O   0  0  0  0  0  0  0  0  0  0  0  0
    2.0000    0.8932    0.0000 O   0  0  0  0  0  0  0  0  0  0  0  0
    3.4435   -2.6240    0.0000 O   0  0  0  0  0  0  0  0  0  0  0  0
    2.6355   -4.4535    0.0000 O   0  0  0  0  0  0  0  0  0  0  0  0
    3.8159   -6.0680    0.0000 O   0  0  0  0  0  0  0  0  0  0  0  0
    2.8981    4.9992    0.0000 O   0  0  0  0  0  0  0  0  0  0  0  0
    6.7985   -5.7455    0.0000 O   0  0  0  0  0  0  0  0  0  0  0  0
    3.4322    1.9244    0.0000 N   0  0  0  0  0  0  0  0  0  0  0  0
    5.4962    3.4992    0.0000 N   0  0  0  0  0  0  0  0  0  0  0  0
    4.6270    0.2499    0.0000 C   0  0  1  0  0  0  0  0  0  0  0  0
    4.4210    2.0274    0.0000 C   0  0  1  0  0  0  0  0  0  0  0  0
    5.0417    1.1987    0.0000 C   0  0  0  0  0  0  0  0  0  0  0  0
    5.2736   -0.6134    0.0000 C   0  0  2  0  0  0  0  0  0  0  0  0
    3.5972    0.1425    0.0000 C   0  0  0  0  0  0  0  0  0  0  0  0
    4.6302    2.9992    0.0000 C   0  0  0  0  0  0  0  0  0  0  0  0
    3.0271    2.8322    0.0000 C   0  0  0  0  0  0  0  0  0  0  0  0
    4.8417   -1.6017    0.0000 C   0  0  1  0  0  0  0  0  0  0  0  0
    2.9957    0.9854    0.0000 C   0  0  0  0  0  0  0  0  0  0  0  0
    3.7642    3.4992    0.0000 C   0  0  0  0  0  0  0  0  0  0  0  0
    3.1425   -0.8355    0.0000 C   0  0  0  0  0  0  0  0  0  0  0  0
    6.2670   -0.4982    0.0000 C   0  0  0  0  0  0  0  0  0  0  0  0
    5.0279   -3.3237    0.0000 C   0  0  2  0  0  0  0  0  0  0  0  0
    4.0337   -3.4312    0.0000 C   0  0  1  0  0  0  0  0  0  0  0  0
    3.7642    4.4992    0.0000 C   0  0  0  0  0  0  0  0  0  0  0  0
    3.6297   -4.3460    0.0000 C   0  0  2  0  0  0  0  0  0  0  0  0
    4.2199   -5.1532    0.0000 C   0  0  1  0  0  0  0  0  0  0  0  0
    5.2141   -5.0457    0.0000 C   0  0  1  0  0  0  0  0  0  0  0  0
    5.4962    4.4992    0.0000 C   0  0  0  0  0  0  0  0  0  0  0  0
    4.6302    4.9992    0.0000 C   0  0  0  0  0  0  0  0  0  0  0  0
    5.8043   -5.8530    0.0000 C   0  0  0  0  0  0  0  0  0  0  0  0
    6.8634   -1.3009    0.0000 C   0  0  0  0  0  0  0  0  0  0  0  0
    6.4062    5.0061    0.0000 C   0  0  0  0  0  0  0  0  0  0  0  0
    4.6141    6.0407    0.0000 C   0  0  0  0  0  0  0  0  0  0  0  0
    6.4142    6.0477    0.0000 C   0  0  0  0  0  0  0  0  0  0  0  0
    5.5122    6.5685    0.0000 C   0  0  0  0  0  0  0  0  0  0  0  0
    5.4714    0.3477    0.0000 H   0  0  0  0  0  0  0  0  0  0  0  0
    5.2513    2.2091    0.0000 H   0  0  0  0  0  0  0  0  0  0  0  0
    5.5590    0.8568    0.0000 H   0  0  0  0  0  0  0  0  0  0  0  0
    5.4670    1.6498    0.0000 H   0  0  0  0  0  0  0  0  0  0  0  0
    5.6425   -1.1118    0.0000 H   0  0  0  0  0  0  0  0  0  0  0  0
    2.6617    3.3330    0.0000 H   0  0  0  0  0  0  0  0  0  0  0  0
    2.4906    2.5214    0.0000 H   0  0  0  0  0  0  0  0  0  0  0  0
    5.4580   -1.5339    0.0000 H   0  0  0  0  0  0  0  0  0  0  0  0
    2.5251   -0.8927    0.0000 H   0  0  0  0  0  0  0  0  0  0  0  0
    4.6620   -2.8232    0.0000 H   0  0  0  0  0  0  0  0  0  0  0  0
    6.5131    0.0708    0.0000 H   0  0  0  0  0  0  0  0  0  0  0  0
    6.0331    3.1892    0.0000 H   0  0  0  0  0  0  0  0  0  0  0  0
    3.4173   -3.4979    0.0000 H   0  0  0  0  0  0  0  0  0  0  0  0
    3.3792   -4.9131    0.0000 H   0  0  0  0  0  0  0  0  0  0  0  0
    4.5858   -5.6537    0.0000 H   0  0  0  0  0  0  0  0  0  0  0  0
    5.8305   -4.9791    0.0000 H   0  0  0  0  0  0  0  0  0  0  0  0
    5.2479   -6.1264    0.0000 H   0  0  0  0  0  0  0  0  0  0  0  0
    5.9770   -6.4485    0.0000 H   0  0  0  0  0  0  0  0  0  0  0  0
    6.6173   -1.8700    0.0000 H   0  0  0  0  0  0  0  0  0  0  0  0
    7.4793   -1.2295    0.0000 H   0  0  0  0  0  0  0  0  0  0  0  0
    6.9395    4.6899    0.0000 H   0  0  0  0  0  0  0  0  0  0  0  0
    4.0736    6.3445    0.0000 H   0  0  0  0  0  0  0  0  0  0  0  0
    2.8271   -2.6906    0.0000 H   0  0  0  0  0  0  0  0  0  0  0  0
    2.3850   -5.0206    0.0000 H   0  0  0  0  0  0  0  0  0  0  0  0
    4.1818   -6.5685    0.0000 H   0  0  0  0  0  0  0  0  0  0  0  0
    6.9524    6.3556    0.0000 H   0  0  0  0  0  0  0  0  0  0  0  0
    5.5098    7.1885    0.0000 H   0  0  0  0  0  0  0  0  0  0  0  0
    7.1644   -6.2460    0.0000 H   0  0  0  0  0  0  0  0  0  0  0  0
  1 19  1  0  0  0  0
  1 22  1  0  0  0  0
 19  2  1  6  0  0  0
 24  2  1  6  0  0  0
  3 24  1  0  0  0  0
  3 29  1  0  0  0  0
  4 20  2  0  0  0  0
 25  5  1  1  0  0  0
  5 60  1  0  0  0  0
 27  6  1  6  0  0  0
  6 61  1  0  0  0  0
 28  7  1  1  0  0  0
  7 62  1  0  0  0  0
  8 26  2  0  0  0  0
  9 32  1  0  0  0  0
  9 65  1  0  0  0  0
 10 13  1  0  0  0  0
 10 18  1  0  0  0  0
 10 20  1  0  0  0  0
 11 17  1  0  0  0  0
 11 30  1  0  0  0  0
 11 49  1  0  0  0  0
 12 14  1  0  0  0  0
 12 15  1  0  0  0  0
 12 16  1  0  0  0  0
 12 38  1  6  0  0  0
 13 14  1  0  0  0  0
 13 17  1  0  0  0  0
 13 39  1  1  0  0  0
 14 40  1  0  0  0  0
 14 41  1  0  0  0  0
 15 19  1  0  0  0  0
 15 23  1  1  0  0  0
 15 42  1  0  0  0  0
 16 20  1  0  0  0  0
 16 22  2  0  0  0  0
 17 21  2  0  0  0  0
 18 21  1  0  0  0  0
 18 43  1  0  0  0  0
 18 44  1  0  0  0  0
 19 45  1  0  0  0  0
 21 26  1  0  0  0  0
 22 46  1  0  0  0  0
 23 33  2  0  0  0  0
 23 48  1  0  0  0  0
 24 25  1  0  0  0  0
 24 47  1  0  0  0  0
 25 27  1  0  0  0  0
 25 50  1  0  0  0  0
 26 31  1  0  0  0  0
 27 28  1  0  0  0  0
 27 51  1  0  0  0  0
 28 29  1  0  0  0  0
 28 52  1  0  0  0  0
 29 32  1  6  0  0  0
 29 53  1  0  0  0  0
 30 31  1  0  0  0  0
 30 34  2  0  0  0  0
 31 35  2  0  0  0  0
 32 54  1  0  0  0  0
 32 55  1  0  0  0  0
 33 56  1  0  0  0  0
 33 57  1  0  0  0  0
 34 36  1  0  0  0  0
 34 58  1  0  0  0  0
 35 37  1  0  0  0  0
 35 59  1  0  0  0  0
 36 37  2  0  0  0  0
 36 63  1  0  0  0  0
 37 64  1  0  0  0  0
M  END
> <PUBCHEM_COMPOUND_CID>
10346314

> <PUBCHEM_COMPOUND_CANONICALIZED>
1

> <PUBCHEM_CACTVS_COMPLEXITY>
1040

> <PUBCHEM_CACTVS_HBOND_ACCEPTOR>
10

> <PUBCHEM_CACTVS_HBOND_DONOR>
5

> <PUBCHEM_CACTVS_ROTATABLE_BOND>
4

> <PUBCHEM_CACTVS_SUBSKEYS>
AAADceB7PAAAAAAAAAAAAAAAAAAAAQAAAAA8SIECAAAAAFiBAAAAHgAQCAAADTzxmAcwyIPABgCIAqVSUACCCAAlIgAIiAEIZMgZcDrAlZG2YYhl1gDPycfY/Y+egAAAAAACAAAAAAAAAAQAAAAAAAAAAA==

> <PUBCHEM_IUPAC_INCHI>
InChI=1S/C26H28N2O9/c1-2-11-13-7-17-19-14(20(30)12-5-3-4-6-16(12)27-19)8-28(17)24(34)15(13)10-35-25(11)37-26-23(33)22(32)21(31)18(9-29)36-26/h2-6,10-11,13,17-18,21-23,25-26,29,31-33H,1,7-9H2,(H,27,30)/t11-,13+,17+,18-,21-,22+,23-,25+,26+/m1/s1

> <PUBCHEM_IUPAC_INCHIKEY>
ODQBQUXGRYBRTP-FWMZWJSFSA-N

> <PUBCHEM_XLOGP3_AA>
-0.6

> <PUBCHEM_EXACT_MASS>
512.17948

> <PUBCHEM_MOLECULAR_FORMULA>
C26H28N2O9

> <PUBCHEM_MOLECULAR_WEIGHT>
512.50852

> <PUBCHEM_OPENEYE_CAN_SMILES>
C=CC1C2CC3C4=C(CN3C(=O)C2=COC1OC5C(C(C(C(O5)CO)O)O)O)C(=O)C6=CC=CC=C6N4

> <PUBCHEM_OPENEYE_ISO_SMILES>
C=C[C@@H]1[C@@H]2C[C@H]3C4=C(CN3C(=O)C2=CO[C@H]1O[C@H]5[C@@H]([C@H]([C@@H]([C@H](O5)CO)O)O)O)C(=O)C6=CC=CC=C6N4

> <PUBCHEM_CACTVS_TPSA>
158

> <PUBCHEM_MONOISOTOPIC_WEIGHT>
512.17948

> <PUBCHEM_TOTAL_CHARGE>
0

> <PUBCHEM_HEAVY_ATOM_COUNT>
37

> <PUBCHEM_ATOM_DEF_STEREO_COUNT>
9

> <PUBCHEM_ATOM_UDEF_STEREO_COUNT>
0

> <PUBCHEM_BOND_DEF_STEREO_COUNT>
0

> <PUBCHEM_BOND_UDEF_STEREO_COUNT>
0

> <PUBCHEM_ISOTOPIC_ATOM_COUNT>
0

> <PUBCHEM_COMPONENT_COUNT>
1

> <PUBCHEM_CACTVS_TAUTO_COUNT>
12

> <PUBCHEM_COORDINATE_TYPE>
1
5
255

> <PUBCHEM_BONDANNOTATIONS>
11  17  8
11  30  8
12  38  6
13  39  5
15  23  5
17  21  8
19  2  6
24  2  6
21  26  8
26  31  8
29  32  6
30  31  8
30  34  8
31  35  8
34  36  8
35  37  8
36  37  8
25  5  5
27  6  6
28  7  5

$$$$

