   Color/Form
        Colorless gas ... [Note: Shipped under pressure dissolved in
   acetone].
   from [1]HSDB

   Odor

     * Not unpleasant odor unless impure (due to phosphine)
     * FAINT ODOR OF ETHER
     * ... Faint, ethereal odor [Note: Commercial grade has a garlic-like
       odor] ...

   from [2]HSDB

   Boiling Point
        -84.7 deg C (sublimation point)
   from [3]HSDB

   Melting Point
        -80.7 deg C (triple point)
   from [4]HSDB

   Critical Temperature and Pressure
        35.2 deg C and 6190 kPa
   from [5]HSDB

   Density/Specific Gravity
        0.377 g/cu cm (pressure >1 atm)
   from [6]HSDB

   Heat of Combustion
        313 cal
   from [7]HSDB

   Octanol/Water Partition Coefficient
        log Kow = 0.37
   from [8]HSDB

   Solubilities

     * Soluble in water and many organic materials
     * Slightly soluble in ethanol, carbon disulfide; soluble in acetone,
       benzene, chloroform
     * One volume dissolves in 6 volumes of glacial acetic acid or
       alcohol. Soluble in ether; acetone dissolves 25 volume at 15 deg C,
       760 mm Hg; acetone dissolves 300 vol at 12 atm
     * Moderately soluble in ethanol and acetic acid; very soluble in
       Me2CO; almost miscible in ether
     * In water, 1200 mg/L at 25 deg C

   from [9]HSDB

   Spectral Properties

     * INDEX OF REFRACTION: 1.00051 @ 0 DEG C/D
     * IR: 3961 (Sadtler Research Laboratories Prism Collection)
     * MASS: 61312 (NIST/EPA/MSDC Mass Spectral Database, 1990 version)

   from [10]HSDB

   Vapor Density
        0.91 (Air = 1)
   from [11]HSDB

   Vapor Pressure
        4.04X10+4 mm Hg at 25 deg C (est)
   from [12]HSDB

   Other Chemical/Physical Properties

     * Air pollution factors: 1 mg/cu m = 0.92 ppm; 1 ppm = 1.08 mg/cu m
     * 1 L weighs 1.165 g at 0 deg C and 760 mm Hg; density of gas: 0.90
       (air= 1); below 37 deg C (critical temp) it liquifies at 68 atm; at
       0 deg C it liquifies at 21.5 atm
     * Ignition temperature: 335 deg C
     * Heat capacity: 43.9 J/mol K
     * BP: -84 deg C sublimes
     * Vapor (Gas) Specific Gravity: 0.9
     * vapor pressure = 40 atm at 16.8 deg C
     * Henry's Law constant = 2.17X10-2 atm-cu m/mol at 25 deg C (est)
     * Hydroxyl radical reaction rate constant = 8.15X10-13 cu m/molec-sec
       at 25 deg C

   from [13]HSDB

   Computed Properties
   Molecular Weight                  26.03728 [g/mol]
   Molecular Formula                 C[2]H[2]
   XLogP3-AA                         0.4
   H-Bond Donor                      0
   H-Bond Acceptor                   0
   Rotatable Bond Count              0
   Exact Mass                        26.01565
   MonoIsotopic Mass                 26.01565
   Topological Polar Surface Area    0
   Heavy Atom Count                  2
   Formal Charge                     0
   Complexity                        8
   Isotope Atom Count                0
   Defined Atom Stereocenter Count   0
   Undefined Atom Stereocenter Count 0
   Defined Bond Stereocenter Count   0
   Undefined Bond Stereocenter Count 0
   Covalently-Bonded Unit Count      1
   Feature 3D Hydrophobe Count       2
   Effective Rotor Count             0
   Conformer Sampling RMSD           0.4
   CID Conformer Count               [14]1

References

   1. http://toxnet.nlm.nih.gov/cgi-bin/sis/search/r?dbs+hsdb:@term+@rn+@rel+74-86-2
   2. http://toxnet.nlm.nih.gov/cgi-bin/sis/search/r?dbs+hsdb:@term+@rn+@rel+74-86-2
   3. http://toxnet.nlm.nih.gov/cgi-bin/sis/search/r?dbs+hsdb:@term+@rn+@rel+74-86-2
   4. http://toxnet.nlm.nih.gov/cgi-bin/sis/search/r?dbs+hsdb:@term+@rn+@rel+74-86-2
   5. http://toxnet.nlm.nih.gov/cgi-bin/sis/search/r?dbs+hsdb:@term+@rn+@rel+74-86-2
   6. http://toxnet.nlm.nih.gov/cgi-bin/sis/search/r?dbs+hsdb:@term+@rn+@rel+74-86-2
   7. http://toxnet.nlm.nih.gov/cgi-bin/sis/search/r?dbs+hsdb:@term+@rn+@rel+74-86-2
   8. http://toxnet.nlm.nih.gov/cgi-bin/sis/search/r?dbs+hsdb:@term+@rn+@rel+74-86-2
   9. http://toxnet.nlm.nih.gov/cgi-bin/sis/search/r?dbs+hsdb:@term+@rn+@rel+74-86-2
  10. http://toxnet.nlm.nih.gov/cgi-bin/sis/search/r?dbs+hsdb:@term+@rn+@rel+74-86-2
  11. http://toxnet.nlm.nih.gov/cgi-bin/sis/search/r?dbs+hsdb:@term+@rn+@rel+74-86-2
  12. http://toxnet.nlm.nih.gov/cgi-bin/sis/search/r?dbs+hsdb:@term+@rn+@rel+74-86-2
  13. http://toxnet.nlm.nih.gov/cgi-bin/sis/search/r?dbs+hsdb:@term+@rn+@rel+74-86-2
  14. http://pubchem.ncbi.nlm.nih.gov/vw3d/vw3d.cgi?cid=6326
