   Color/Form

     * Colorless elongated prisms from moist ethyl acetate
     * White powder (pure synthetic)
     * Needles (water + 1)

   from [1]HSDB

   Melting Point
        199 deg C
   from [2]HSDB

   Octanol/Water Partition Coefficient
        log Kow = -1.35
   from [3]HSDB

   Solubilities

     * Slightly soluble in ethyl ether; insoluble in benzene, chloroform,
       CS2
     * Soluble in water and alcohol
     * In water, 9.59X10+5 mg/L at 25 deg C (est)

   from [4]HSDB

   Spectral Properties

     * Specific optical rotation: -60.3 deg at 20 deg C/D (in water)
     * Specific optical rotation: -64 deg at 25 deg C/D (3% water)
     * IR: 18673 (Sadtler Research Laboratories IR grating collection)
     * UV: 4704 (Sadtler Research Laboratories spectral collection)
     * 1H NMR: 4444 (Sadtler Research Laboratories spectral collection)

   from [5]HSDB

   Vapor Pressure
        2.30X10-12 mm Hg at 25 deg C (est)
   from [6]HSDB

   Other Chemical/Physical Properties

     * MP 199 deg C after sintering at 163-164 deg C ... Also reported as
       unstable form, mp 165 deg C; stable form, mp 199.5-200 deg C
     * Crystalizes from water as the monohydrate, mp 158-160 deg C;
       solifidies and melts again at 175 deg C. Also reported as unstable
       form, mp 160.5 deg C; stable form, mp 176 deg C. Specific optical
       rotation: -60.66 deg at 20 deg C/D (in water). Soluble in hot water
       or alcohol; slightly soluble in ether. /Methylarbutin/
     * Henry's Law constant = 1.20X10-19 atm-cu m/mol at 25 deg C (est)
     * Hydroxyl radical reaction rate constant = 9.10X10-11 cu
       cm/molec-sec at 25 deg C (est)

   from [7]HSDB

   Computed Properties
   Molecular Weight                  272.25124 [g/mol]
   Molecular Formula                 C[12]H[16]O[7]
   XLogP3                            -0.7
   H-Bond Donor                      5
   H-Bond Acceptor                   7
   Rotatable Bond Count              3
   Tautomer Count                    2
   Exact Mass                        272.089603
   MonoIsotopic Mass                 272.089603
   Topological Polar Surface Area    120
   Heavy Atom Count                  19
   Formal Charge                     0
   Complexity                        279
   Isotope Atom Count                0
   Defined Atom Stereocenter Count   5
   Undefined Atom Stereocenter Count 0
   Defined Bond Stereocenter Count   0
   Undefined Bond Stereocenter Count 0
   Covalently-Bonded Unit Count      1
   Feature 3D Acceptor Count         6
   Feature 3D Donor Count            5
   Feature 3D Ring Count             2
   Effective Rotor Count             4.2
   Conformer Sampling RMSD           0.6
   CID Conformer Count               [8]80

References

   1. http://toxnet.nlm.nih.gov/cgi-bin/sis/search/r?dbs+hsdb:@term+@rn+@rel+497-76-7
   2. http://toxnet.nlm.nih.gov/cgi-bin/sis/search/r?dbs+hsdb:@term+@rn+@rel+497-76-7
   3. http://toxnet.nlm.nih.gov/cgi-bin/sis/search/r?dbs+hsdb:@term+@rn+@rel+497-76-7
   4. http://toxnet.nlm.nih.gov/cgi-bin/sis/search/r?dbs+hsdb:@term+@rn+@rel+497-76-7
   5. http://toxnet.nlm.nih.gov/cgi-bin/sis/search/r?dbs+hsdb:@term+@rn+@rel+497-76-7
   6. http://toxnet.nlm.nih.gov/cgi-bin/sis/search/r?dbs+hsdb:@term+@rn+@rel+497-76-7
   7. http://toxnet.nlm.nih.gov/cgi-bin/sis/search/r?dbs+hsdb:@term+@rn+@rel+497-76-7
   8. http://pubchem.ncbi.nlm.nih.gov/vw3d/vw3d.cgi?cid=440936
