5499
  -OEChem-06261200422D

 90 91  0     1  0  0  0  0  0999 V2000
    9.4931   -2.7889    0.0000 O   0  0  0  0  0  0  0  0  0  0  0  0
    6.0010   -0.7543    0.0000 O   0  0  0  0  0  0  0  0  0  0  0  0
    2.5369   -0.7543    0.0000 O   0  0  0  0  0  0  0  0  0  0  0  0
    3.4030   -2.2543    0.0000 O   0  0  0  0  0  0  0  0  0  0  0  0
   10.3991   -2.2751    0.0000 C   0  0  3  0  0  0  0  0  0  0  0  0
   11.3991   -2.2790    0.0000 C   0  0  0  0  0  0  0  0  0  0  0  0
   10.3991   -1.2335    0.0000 C   0  0  0  0  0  0  0  0  0  0  0  0
   11.9024   -1.4149    0.0000 C   0  0  0  0  0  0  0  0  0  0  0  0
   13.4058   -0.5546    0.0000 C   0  0  3  0  0  0  0  0  0  0  0  0
   12.9024   -1.4187    0.0000 C   0  0  0  0  0  0  0  0  0  0  0  0
    9.4931   -0.7196    0.0000 C   0  0  0  0  0  0  0  0  0  0  0  0
   14.4058   -0.5585    0.0000 C   0  0  0  0  0  0  0  0  0  0  0  0
    8.5991   -1.2543    0.0000 C   0  0  0  0  0  0  0  0  0  0  0  0
   10.8958   -3.1430    0.0000 C   0  0  0  0  0  0  0  0  0  0  0  0
    8.5991   -2.2543    0.0000 C   0  0  0  0  0  0  0  0  0  0  0  0
   14.9091    0.3056    0.0000 C   0  0  0  0  0  0  0  0  0  0  0  0
   15.9091    0.3018    0.0000 C   0  0  0  0  0  0  0  0  0  0  0  0
   16.4124    1.1659    0.0000 C   0  0  3  0  0  0  0  0  0  0  0  0
   12.9091    0.3133    0.0000 C   0  0  0  0  0  0  0  0  0  0  0  0
    7.7331   -0.7543    0.0000 C   0  0  0  0  0  0  0  0  0  0  0  0
    7.7331   -2.7543    0.0000 C   0  0  0  0  0  0  0  0  0  0  0  0
   17.4124    1.1620    0.0000 C   0  0  0  0  0  0  0  0  0  0  0  0
    6.8671   -2.2543    0.0000 C   0  0  0  0  0  0  0  0  0  0  0  0
    6.8671   -1.2543    0.0000 C   0  0  0  0  0  0  0  0  0  0  0  0
   17.9158    2.0261    0.0000 C   0  0  0  0  0  0  0  0  0  0  0  0
   15.9158    2.0338    0.0000 C   0  0  0  0  0  0  0  0  0  0  0  0
   18.9158    2.0222    0.0000 C   0  0  0  0  0  0  0  0  0  0  0  0
    7.7331    0.2457    0.0000 C   0  0  0  0  0  0  0  0  0  0  0  0
    7.7331   -3.7543    0.0000 C   0  0  0  0  0  0  0  0  0  0  0  0
   19.4191    2.8863    0.0000 C   0  0  0  0  0  0  0  0  0  0  0  0
    6.0010   -2.7543    0.0000 C   0  0  0  0  0  0  0  0  0  0  0  0
   20.4191    2.8825    0.0000 C   0  0  0  0  0  0  0  0  0  0  0  0
   18.9224    3.7543    0.0000 C   0  0  0  0  0  0  0  0  0  0  0  0
    5.1350   -1.2543    0.0000 C   0  0  0  0  0  0  0  0  0  0  0  0
    4.2690   -0.7543    0.0000 C   0  0  0  0  0  0  0  0  0  0  0  0
    3.4030   -1.2543    0.0000 C   0  0  0  0  0  0  0  0  0  0  0  0
   11.2891   -2.8891    0.0000 H   0  0  0  0  0  0  0  0  0  0  0  0
   11.9809   -2.4932    0.0000 H   0  0  0  0  0  0  0  0  0  0  0  0
   11.0100   -1.3396    0.0000 H   0  0  0  0  0  0  0  0  0  0  0  0
   10.6082   -0.6498    0.0000 H   0  0  0  0  0  0  0  0  0  0  0  0
   12.0125   -0.8047    0.0000 H   0  0  0  0  0  0  0  0  0  0  0  0
   11.3207   -1.2006    0.0000 H   0  0  0  0  0  0  0  0  0  0  0  0
   12.7858   -0.5522    0.0000 H   0  0  0  0  0  0  0  0  0  0  0  0
   12.7924   -2.0289    0.0000 H   0  0  0  0  0  0  0  0  0  0  0  0
   13.4842   -1.6330    0.0000 H   0  0  0  0  0  0  0  0  0  0  0  0
    9.8867   -0.2406    0.0000 H   0  0  0  0  0  0  0  0  0  0  0  0
    9.0885   -0.2498    0.0000 H   0  0  0  0  0  0  0  0  0  0  0  0
   14.2958   -1.1686    0.0000 H   0  0  0  0  0  0  0  0  0  0  0  0
   14.9876   -0.7728    0.0000 H   0  0  0  0  0  0  0  0  0  0  0  0
   10.3577   -3.4510    0.0000 H   0  0  0  0  0  0  0  0  0  0  0  0
   11.2037   -3.6812    0.0000 H   0  0  0  0  0  0  0  0  0  0  0  0
   11.4339   -2.8351    0.0000 H   0  0  0  0  0  0  0  0  0  0  0  0
   15.0191    0.9158    0.0000 H   0  0  0  0  0  0  0  0  0  0  0  0
   14.3273    0.5199    0.0000 H   0  0  0  0  0  0  0  0  0  0  0  0
   15.7991   -0.3084    0.0000 H   0  0  0  0  0  0  0  0  0  0  0  0
   16.4909    0.0875    0.0000 H   0  0  0  0  0  0  0  0  0  0  0  0
   15.7924    1.1682    0.0000 H   0  0  0  0  0  0  0  0  0  0  0  0
   13.4472    0.6213    0.0000 H   0  0  0  0  0  0  0  0  0  0  0  0
   12.6012    0.8515    0.0000 H   0  0  0  0  0  0  0  0  0  0  0  0
   12.3710    0.0054    0.0000 H   0  0  0  0  0  0  0  0  0  0  0  0
   17.3024    0.5518    0.0000 H   0  0  0  0  0  0  0  0  0  0  0  0
   17.9942    0.9477    0.0000 H   0  0  0  0  0  0  0  0  0  0  0  0
   18.0258    2.6362    0.0000 H   0  0  0  0  0  0  0  0  0  0  0  0
   17.3340    2.2404    0.0000 H   0  0  0  0  0  0  0  0  0  0  0  0
   16.4539    2.3417    0.0000 H   0  0  0  0  0  0  0  0  0  0  0  0
   15.6078    2.5719    0.0000 H   0  0  0  0  0  0  0  0  0  0  0  0
   15.3776    1.7259    0.0000 H   0  0  0  0  0  0  0  0  0  0  0  0
   18.8057    1.4121    0.0000 H   0  0  0  0  0  0  0  0  0  0  0  0
   19.4975    1.8079    0.0000 H   0  0  0  0  0  0  0  0  0  0  0  0
    8.3531    0.2457    0.0000 H   0  0  0  0  0  0  0  0  0  0  0  0
    7.7331    0.8657    0.0000 H   0  0  0  0  0  0  0  0  0  0  0  0
    7.1131    0.2457    0.0000 H   0  0  0  0  0  0  0  0  0  0  0  0
    7.1131   -3.7543    0.0000 H   0  0  0  0  0  0  0  0  0  0  0  0
    7.7331   -4.3743    0.0000 H   0  0  0  0  0  0  0  0  0  0  0  0
    8.3531   -3.7543    0.0000 H   0  0  0  0  0  0  0  0  0  0  0  0
   18.7991    2.8887    0.0000 H   0  0  0  0  0  0  0  0  0  0  0  0
    5.6910   -2.2173    0.0000 H   0  0  0  0  0  0  0  0  0  0  0  0
    5.4641   -3.0643    0.0000 H   0  0  0  0  0  0  0  0  0  0  0  0
    6.3110   -3.2912    0.0000 H   0  0  0  0  0  0  0  0  0  0  0  0
   19.4606    4.0622    0.0000 H   0  0  0  0  0  0  0  0  0  0  0  0
   18.6145    4.2924    0.0000 H   0  0  0  0  0  0  0  0  0  0  0  0
   18.3843    3.4464    0.0000 H   0  0  0  0  0  0  0  0  0  0  0  0
   20.4167    2.2625    0.0000 H   0  0  0  0  0  0  0  0  0  0  0  0
   21.0391    2.8801    0.0000 H   0  0  0  0  0  0  0  0  0  0  0  0
   20.4215    3.5025    0.0000 H   0  0  0  0  0  0  0  0  0  0  0  0
    4.7365   -1.7292    0.0000 H   0  0  0  0  0  0  0  0  0  0  0  0
    5.5335   -1.7292    0.0000 H   0  0  0  0  0  0  0  0  0  0  0  0
    4.6675   -0.2793    0.0000 H   0  0  0  0  0  0  0  0  0  0  0  0
    3.8705   -0.2793    0.0000 H   0  0  0  0  0  0  0  0  0  0  0  0
    2.0000   -1.0643    0.0000 H   0  0  0  0  0  0  0  0  0  0  0  0
  1  5  1  0  0  0  0
  1 15  1  0  0  0  0
  2 24  1  0  0  0  0
  2 34  1  0  0  0  0
  3 36  1  0  0  0  0
  3 90  1  0  0  0  0
  4 36  2  0  0  0  0
  5  6  1  0  0  0  0
  5  7  1  0  0  0  0
  5 14  1  0  0  0  0
  6  8  1  0  0  0  0
  6 37  1  0  0  0  0
  6 38  1  0  0  0  0
  7 11  1  0  0  0  0
  7 39  1  0  0  0  0
  7 40  1  0  0  0  0
  8 10  1  0  0  0  0
  8 41  1  0  0  0  0
  8 42  1  0  0  0  0
  9 10  1  0  0  0  0
  9 12  1  0  0  0  0
  9 19  1  0  0  0  0
  9 43  1  0  0  0  0
 10 44  1  0  0  0  0
 10 45  1  0  0  0  0
 11 13  1  0  0  0  0
 11 46  1  0  0  0  0
 11 47  1  0  0  0  0
 12 16  1  0  0  0  0
 12 48  1  0  0  0  0
 12 49  1  0  0  0  0
 13 15  2  0  0  0  0
 13 20  1  0  0  0  0
 14 50  1  0  0  0  0
 14 51  1  0  0  0  0
 14 52  1  0  0  0  0
 15 21  1  0  0  0  0
 16 17  1  0  0  0  0
 16 53  1  0  0  0  0
 16 54  1  0  0  0  0
 17 18  1  0  0  0  0
 17 55  1  0  0  0  0
 17 56  1  0  0  0  0
 18 22  1  0  0  0  0
 18 26  1  0  0  0  0
 18 57  1  0  0  0  0
 19 58  1  0  0  0  0
 19 59  1  0  0  0  0
 19 60  1  0  0  0  0
 20 24  2  0  0  0  0
 20 28  1  0  0  0  0
 21 23  2  0  0  0  0
 21 29  1  0  0  0  0
 22 25  1  0  0  0  0
 22 61  1  0  0  0  0
 22 62  1  0  0  0  0
 23 24  1  0  0  0  0
 23 31  1  0  0  0  0
 25 27  1  0  0  0  0
 25 63  1  0  0  0  0
 25 64  1  0  0  0  0
 26 65  1  0  0  0  0
 26 66  1  0  0  0  0
 26 67  1  0  0  0  0
 27 30  1  0  0  0  0
 27 68  1  0  0  0  0
 27 69  1  0  0  0  0
 28 70  1  0  0  0  0
 28 71  1  0  0  0  0
 28 72  1  0  0  0  0
 29 73  1  0  0  0  0
 29 74  1  0  0  0  0
 29 75  1  0  0  0  0
 30 32  1  0  0  0  0
 30 33  1  0  0  0  0
 30 76  1  0  0  0  0
 31 77  1  0  0  0  0
 31 78  1  0  0  0  0
 31 79  1  0  0  0  0
 32 83  1  0  0  0  0
 32 84  1  0  0  0  0
 32 85  1  0  0  0  0
 33 80  1  0  0  0  0
 33 81  1  0  0  0  0
 33 82  1  0  0  0  0
 34 35  1  0  0  0  0
 34 86  1  0  0  0  0
 34 87  1  0  0  0  0
 35 36  1  0  0  0  0
 35 88  1  0  0  0  0
 35 89  1  0  0  0  0
M  END
> <PUBCHEM_COMPOUND_CID>
5499

> <PUBCHEM_COMPOUND_CANONICALIZED>
1

> <PUBCHEM_CACTVS_COMPLEXITY>
634

> <PUBCHEM_CACTVS_HBOND_ACCEPTOR>
4

> <PUBCHEM_CACTVS_HBOND_DONOR>
1

> <PUBCHEM_CACTVS_ROTATABLE_BOND>
16

> <PUBCHEM_CACTVS_SUBSKEYS>
AAADcfB8OAAAAAAAAAAAAAAAAAAAAAAAAAA0QAAAAAAAAACRAAAAGgAACAAADUSgmAICDoAABgCIAgDQCAACCAAgIAAAiAEECIgMJiaEMBqCeCCl4BEIqAfAwPAOwQADAAAYAACCAAYAADAAAAAAAAAAAA==

> <PUBCHEM_IUPAC_OPENEYE_NAME>
3-[2,5,7,8-tetramethyl-2-(4,8,12-trimethyltridecyl)chroman-6-yl]oxypropanoic acid

> <PUBCHEM_IUPAC_CAS_NAME>
3-[[2,5,7,8-tetramethyl-2-(4,8,12-trimethyltridecyl)-3,4-dihydro-2H-1-benzopyran-6-yl]oxy]propanoic acid

> <PUBCHEM_IUPAC_NAME>
3-[[2,5,7,8-tetramethyl-2-(4,8,12-trimethyltridecyl)-3,4-dihydrochromen-6-yl]oxy]propanoic acid

> <PUBCHEM_IUPAC_SYSTEMATIC_NAME>
3-[[2,5,7,8-tetramethyl-2-(4,8,12-trimethyltridecyl)-3,4-dihydrochromen-6-yl]oxy]propanoic acid

> <PUBCHEM_IUPAC_TRADITIONAL_NAME>
3-[2,5,7,8-tetramethyl-2-(4,8,12-trimethyltridecyl)chroman-6-yl]oxypropionic acid

> <PUBCHEM_IUPAC_INCHI>
InChI=1S/C32H54O4/c1-22(2)12-9-13-23(3)14-10-15-24(4)16-11-19-32(8)20-17-28-27(7)30(35-21-18-29(33)34)25(5)26(6)31(28)36-32/h22-24H,9-21H2,1-8H3,(H,33,34)

> <PUBCHEM_IUPAC_INCHIKEY>
OOAFDZRLYBYHIH-UHFFFAOYSA-N

> <PUBCHEM_XLOGP3_AA>
10.5

> <PUBCHEM_EXACT_MASS>
502.40221

> <PUBCHEM_MOLECULAR_FORMULA>
C32H54O4

> <PUBCHEM_MOLECULAR_WEIGHT>
502.76876

> <PUBCHEM_OPENEYE_CAN_SMILES>
CC1=C2C(=C(C(=C1C)OCCC(=O)O)C)CCC(O2)(C)CCCC(C)CCCC(C)CCCC(C)C

> <PUBCHEM_OPENEYE_ISO_SMILES>
CC1=C2C(=C(C(=C1C)OCCC(=O)O)C)CCC(O2)(C)CCCC(C)CCCC(C)CCCC(C)C

> <PUBCHEM_CACTVS_TPSA>
55.8

> <PUBCHEM_MONOISOTOPIC_WEIGHT>
502.40221

> <PUBCHEM_TOTAL_CHARGE>
0

> <PUBCHEM_HEAVY_ATOM_COUNT>
36

> <PUBCHEM_ATOM_DEF_STEREO_COUNT>
0

> <PUBCHEM_ATOM_UDEF_STEREO_COUNT>
3

> <PUBCHEM_BOND_DEF_STEREO_COUNT>
0

> <PUBCHEM_BOND_UDEF_STEREO_COUNT>
0

> <PUBCHEM_ISOTOPIC_ATOM_COUNT>
0

> <PUBCHEM_COMPONENT_COUNT>
1

> <PUBCHEM_CACTVS_TAUTO_COUNT>
1

> <PUBCHEM_COORDINATE_TYPE>
1
5
255

> <PUBCHEM_BONDANNOTATIONS>
13  15  8
13  20  8
15  21  8
18  26  3
20  24  8
21  23  8
23  24  8
5  14  3
9  19  3

$$$$

