51091017
  -OEChem-06241223012D

 38 39  0     0  0  0  0  0  0999 V2000
    5.7567   -0.9330    0.0000 S   0  0  0  0  0  0  0  0  0  0  0  0
    2.4067   -3.6535    0.0000 S   0  0  0  0  0  0  0  0  0  0  0  0
    4.7861   -2.4275    0.0000 O   0  0  0  0  0  0  0  0  0  0  0  0
    6.6227    3.5670    0.0000 O   0  0  0  0  0  0  0  0  0  0  0  0
    8.3548    3.5670    0.0000 N   0  0  0  0  0  0  0  0  0  0  0  0
    3.9771   -1.0262    0.0000 N   0  0  0  0  0  0  0  0  0  0  0  0
    3.3080   -1.7694    0.0000 N   0  0  0  0  0  0  0  0  0  0  0  0
    6.6227    0.5670    0.0000 C   0  0  0  0  0  0  0  0  0  0  0  0
    7.4888    2.0670    0.0000 C   0  0  0  0  0  0  0  0  0  0  0  0
    6.6227    1.5670    0.0000 C   0  0  0  0  0  0  0  0  0  0  0  0
    5.7567    0.0670    0.0000 C   0  0  0  0  0  0  0  0  0  0  0  0
    7.4888    0.0670    0.0000 C   0  0  0  0  0  0  0  0  0  0  0  0
    8.3548    1.5670    0.0000 C   0  0  0  0  0  0  0  0  0  0  0  0
    7.4888    3.0670    0.0000 C   0  0  0  0  0  0  0  0  0  0  0  0
    8.3548    0.5670    0.0000 C   0  0  0  0  0  0  0  0  0  0  0  0
    8.3548    4.5670    0.0000 C   0  0  0  0  0  0  0  0  0  0  0  0
    9.2208    3.0670    0.0000 C   0  0  0  0  0  0  0  0  0  0  0  0
    4.8907   -1.4330    0.0000 C   0  0  0  0  0  0  0  0  0  0  0  0
    3.8080   -2.6354    0.0000 C   0  0  0  0  0  0  0  0  0  0  0  0
    3.4013   -3.5490    0.0000 C   0  0  0  0  0  0  0  0  0  0  0  0
    2.0000   -4.5670    0.0000 C   0  0  0  0  0  0  0  0  0  0  0  0
    6.0858    1.8770    0.0000 H   0  0  0  0  0  0  0  0  0  0  0  0
    5.5446    0.6496    0.0000 H   0  0  0  0  0  0  0  0  0  0  0  0
    5.1461   -0.0406    0.0000 H   0  0  0  0  0  0  0  0  0  0  0  0
    7.4888   -0.5530    0.0000 H   0  0  0  0  0  0  0  0  0  0  0  0
    8.8917    1.8770    0.0000 H   0  0  0  0  0  0  0  0  0  0  0  0
    8.8917    0.2570    0.0000 H   0  0  0  0  0  0  0  0  0  0  0  0
    8.9108    2.5301    0.0000 H   0  0  0  0  0  0  0  0  0  0  0  0
    8.9748    4.5670    0.0000 H   0  0  0  0  0  0  0  0  0  0  0  0
    8.3548    5.1870    0.0000 H   0  0  0  0  0  0  0  0  0  0  0  0
    7.7348    4.5670    0.0000 H   0  0  0  0  0  0  0  0  0  0  0  0
    9.7577    2.7570    0.0000 H   0  0  0  0  0  0  0  0  0  0  0  0
    9.5308    3.6040    0.0000 H   0  0  0  0  0  0  0  0  0  0  0  0
    3.3580   -4.1674    0.0000 H   0  0  0  0  0  0  0  0  0  0  0  0
    4.0028   -3.6989    0.0000 H   0  0  0  0  0  0  0  0  0  0  0  0
    1.4336   -4.3148    0.0000 H   0  0  0  0  0  0  0  0  0  0  0  0
    1.7478   -5.1334    0.0000 H   0  0  0  0  0  0  0  0  0  0  0  0
    2.5664   -4.8192    0.0000 H   0  0  0  0  0  0  0  0  0  0  0  0
  1 11  1  0  0  0  0
  1 18  1  0  0  0  0
  2 20  1  0  0  0  0
  2 21  1  0  0  0  0
  3 18  1  0  0  0  0
  3 19  1  0  0  0  0
  4 14  2  0  0  0  0
  5 14  1  0  0  0  0
  5 16  1  0  0  0  0
  5 17  1  0  0  0  0
  6  7  1  0  0  0  0
  6 18  2  0  0  0  0
  7 19  2  0  0  0  0
  8 10  2  0  0  0  0
  8 11  1  0  0  0  0
  8 12  1  0  0  0  0
  9 10  1  0  0  0  0
  9 13  2  0  0  0  0
  9 14  1  0  0  0  0
 10 22  1  0  0  0  0
 11 23  1  0  0  0  0
 11 24  1  0  0  0  0
 12 15  2  0  0  0  0
 12 25  1  0  0  0  0
 13 15  1  0  0  0  0
 13 26  1  0  0  0  0
 15 27  1  0  0  0  0
 16 29  1  0  0  0  0
 16 30  1  0  0  0  0
 16 31  1  0  0  0  0
 17 28  1  0  0  0  0
 17 32  1  0  0  0  0
 17 33  1  0  0  0  0
 19 20  1  0  0  0  0
 20 34  1  0  0  0  0
 20 35  1  0  0  0  0
 21 36  1  0  0  0  0
 21 37  1  0  0  0  0
 21 38  1  0  0  0  0
M  END
> <PUBCHEM_COMPOUND_CID>
51091017

> <PUBCHEM_COMPOUND_CANONICALIZED>
1

> <PUBCHEM_CACTVS_COMPLEXITY>
344

> <PUBCHEM_CACTVS_HBOND_ACCEPTOR>
6

> <PUBCHEM_CACTVS_HBOND_DONOR>
0

> <PUBCHEM_CACTVS_ROTATABLE_BOND>
6

> <PUBCHEM_CACTVS_SUBSKEYS>
AAADceBzMABgAAAAAAAAAAAAAAAAAWAAAAAwAAAAAAAAAAABwAAAHgQIAAAADACF2gSyAIMABEiqAiFyEACSAABsABAaiAEYBMgIIDKglRGMIQhgigAIiYcYiECOAAACAAAAAAAAAAQAAAAAAAAAAAAAAA==

> <PUBCHEM_IUPAC_OPENEYE_NAME>
N,N-dimethyl-3-[[5-(methylsulfanylmethyl)-1,3,4-oxadiazol-2-yl]sulfanylmethyl]benzamide

> <PUBCHEM_IUPAC_CAS_NAME>
N,N-dimethyl-3-[[[5-[(methylthio)methyl]-1,3,4-oxadiazol-2-yl]thio]methyl]benzamide

> <PUBCHEM_IUPAC_NAME>
N,N-dimethyl-3-[[5-(methylsulfanylmethyl)-1,3,4-oxadiazol-2-yl]sulfanylmethyl]benzamide

> <PUBCHEM_IUPAC_SYSTEMATIC_NAME>
N,N-dimethyl-3-[[5-(methylsulfanylmethyl)-1,3,4-oxadiazol-2-yl]sulfanylmethyl]benzamide

> <PUBCHEM_IUPAC_TRADITIONAL_NAME>
N,N-dimethyl-3-[[[5-[(methylthio)methyl]-1,3,4-oxadiazol-2-yl]thio]methyl]benzamide

> <PUBCHEM_IUPAC_INCHI>
InChI=1S/C14H17N3O2S2/c1-17(2)13(18)11-6-4-5-10(7-11)8-21-14-16-15-12(19-14)9-20-3/h4-7H,8-9H2,1-3H3

> <PUBCHEM_IUPAC_INCHIKEY>
NIFBQEVAIPBGFL-UHFFFAOYSA-N

> <PUBCHEM_XLOGP3_AA>
2

> <PUBCHEM_EXACT_MASS>
323.076219

> <PUBCHEM_MOLECULAR_FORMULA>
C14H17N3O2S2

> <PUBCHEM_MOLECULAR_WEIGHT>
323.43368

> <PUBCHEM_OPENEYE_CAN_SMILES>
CN(C)C(=O)C1=CC(=CC=C1)CSC2=NN=C(O2)CSC

> <PUBCHEM_OPENEYE_ISO_SMILES>
CN(C)C(=O)C1=CC(=CC=C1)CSC2=NN=C(O2)CSC

> <PUBCHEM_CACTVS_TPSA>
110

> <PUBCHEM_MONOISOTOPIC_WEIGHT>
323.076219

> <PUBCHEM_TOTAL_CHARGE>
0

> <PUBCHEM_HEAVY_ATOM_COUNT>
21

> <PUBCHEM_ATOM_DEF_STEREO_COUNT>
0

> <PUBCHEM_ATOM_UDEF_STEREO_COUNT>
0

> <PUBCHEM_BOND_DEF_STEREO_COUNT>
0

> <PUBCHEM_BOND_UDEF_STEREO_COUNT>
0

> <PUBCHEM_ISOTOPIC_ATOM_COUNT>
0

> <PUBCHEM_COMPONENT_COUNT>
1

> <PUBCHEM_CACTVS_TAUTO_COUNT>
1

> <PUBCHEM_COORDINATE_TYPE>
1
5
255

> <PUBCHEM_BONDANNOTATIONS>
12  15  8
13  15  8
3  18  8
3  19  8
6  18  8
6  7  8
7  19  8
8  10  8
8  12  8
9  10  8
9  13  8

$$$$

