68862
  -OEChem-07051213002D

 51 53  0     1  0  0  0  0  0999 V2000
    2.3100    0.0000    0.0000 O   0  0  0  0  0  0  0  0  0  0  0  0
    4.8100    0.8660    0.0000 O   0  0  0  0  0  0  0  0  0  0  0  0
    7.8216   -0.0933    0.0000 N   0  0  3  0  0  0  0  0  0  0  0  0
    5.1760   -0.5000    0.0000 N   0  0  0  0  0  0  0  0  0  0  0  0
    6.9081   -0.5000    0.0000 C   0  0  3  0  0  0  0  0  0  0  0  0
    7.0126   -1.4945    0.0000 C   0  0  0  0  0  0  0  0  0  0  0  0
    7.9908   -1.7024    0.0000 C   0  0  0  0  0  0  0  0  0  0  0  0
    8.4908   -0.8364    0.0000 C   0  0  0  0  0  0  0  0  0  0  0  0
    6.0420    0.0000    0.0000 C   0  0  0  0  0  0  0  0  0  0  0  0
    8.0295    0.8849    0.0000 C   0  0  0  0  0  0  0  0  0  0  0  0
    8.9806    1.1939    0.0000 C   0  0  0  0  0  0  0  0  0  0  0  0
    4.3100    0.0000    0.0000 C   0  0  0  0  0  0  0  0  0  0  0  0
    3.3100    0.0000    0.0000 C   0  0  0  0  0  0  0  0  0  0  0  0
    3.3100   -1.0000    0.0000 C   0  0  0  0  0  0  0  0  0  0  0  0
    3.3100    1.0000    0.0000 C   0  0  0  0  0  0  0  0  0  0  0  0
    2.4440   -1.5000    0.0000 C   0  0  0  0  0  0  0  0  0  0  0  0
    4.1760    1.5000    0.0000 C   0  0  0  0  0  0  0  0  0  0  0  0
    4.1760   -1.5000    0.0000 C   0  0  0  0  0  0  0  0  0  0  0  0
    2.4440    1.5000    0.0000 C   0  0  0  0  0  0  0  0  0  0  0  0
    2.4440   -2.5000    0.0000 C   0  0  0  0  0  0  0  0  0  0  0  0
    4.1760    2.5000    0.0000 C   0  0  0  0  0  0  0  0  0  0  0  0
    4.1760   -2.5000    0.0000 C   0  0  0  0  0  0  0  0  0  0  0  0
    2.4440    2.5000    0.0000 C   0  0  0  0  0  0  0  0  0  0  0  0
    3.3100   -3.0000    0.0000 C   0  0  0  0  0  0  0  0  0  0  0  0
    3.3100    3.0000    0.0000 C   0  0  0  0  0  0  0  0  0  0  0  0
    6.9526    0.3488    0.0000 H   0  0  0  0  0  0  0  0  0  0  0  0
    6.3926   -1.4945    0.0000 H   0  0  0  0  0  0  0  0  0  0  0  0
    6.9478   -2.1111    0.0000 H   0  0  0  0  0  0  0  0  0  0  0  0
    7.7992   -2.2921    0.0000 H   0  0  0  0  0  0  0  0  0  0  0  0
    8.5572   -1.9546    0.0000 H   0  0  0  0  0  0  0  0  0  0  0  0
    8.9923   -1.2008    0.0000 H   0  0  0  0  0  0  0  0  0  0  0  0
    8.9056   -0.3757    0.0000 H   0  0  0  0  0  0  0  0  0  0  0  0
    6.4406    0.4749    0.0000 H   0  0  0  0  0  0  0  0  0  0  0  0
    5.6435    0.4749    0.0000 H   0  0  0  0  0  0  0  0  0  0  0  0
    7.9432    1.4988    0.0000 H   0  0  0  0  0  0  0  0  0  0  0  0
    7.4099    0.9065    0.0000 H   0  0  0  0  0  0  0  0  0  0  0  0
    5.1760   -1.1200    0.0000 H   0  0  0  0  0  0  0  0  0  0  0  0
    9.1722    0.6042    0.0000 H   0  0  0  0  0  0  0  0  0  0  0  0
    9.5702    1.3855    0.0000 H   0  0  0  0  0  0  0  0  0  0  0  0
    8.7890    1.7836    0.0000 H   0  0  0  0  0  0  0  0  0  0  0  0
    2.0000    0.5369    0.0000 H   0  0  0  0  0  0  0  0  0  0  0  0
    1.9070   -1.1900    0.0000 H   0  0  0  0  0  0  0  0  0  0  0  0
    4.7130    1.1900    0.0000 H   0  0  0  0  0  0  0  0  0  0  0  0
    4.7130   -1.1900    0.0000 H   0  0  0  0  0  0  0  0  0  0  0  0
    1.9070    1.1900    0.0000 H   0  0  0  0  0  0  0  0  0  0  0  0
    1.9070   -2.8100    0.0000 H   0  0  0  0  0  0  0  0  0  0  0  0
    4.7130    2.8100    0.0000 H   0  0  0  0  0  0  0  0  0  0  0  0
    4.7130   -2.8100    0.0000 H   0  0  0  0  0  0  0  0  0  0  0  0
    1.9070    2.8100    0.0000 H   0  0  0  0  0  0  0  0  0  0  0  0
    3.3100   -3.6200    0.0000 H   0  0  0  0  0  0  0  0  0  0  0  0
    3.3100    3.6200    0.0000 H   0  0  0  0  0  0  0  0  0  0  0  0
  1 13  1  0  0  0  0
  1 41  1  0  0  0  0
  2 12  2  0  0  0  0
  3  5  1  0  0  0  0
  3  8  1  0  0  0  0
  3 10  1  0  0  0  0
  4  9  1  0  0  0  0
  4 12  1  0  0  0  0
  4 37  1  0  0  0  0
  5  6  1  0  0  0  0
  5  9  1  0  0  0  0
  5 26  1  0  0  0  0
  6  7  1  0  0  0  0
  6 27  1  0  0  0  0
  6 28  1  0  0  0  0
  7  8  1  0  0  0  0
  7 29  1  0  0  0  0
  7 30  1  0  0  0  0
  8 31  1  0  0  0  0
  8 32  1  0  0  0  0
  9 33  1  0  0  0  0
  9 34  1  0  0  0  0
 10 11  1  0  0  0  0
 10 35  1  0  0  0  0
 10 36  1  0  0  0  0
 11 38  1  0  0  0  0
 11 39  1  0  0  0  0
 11 40  1  0  0  0  0
 12 13  1  0  0  0  0
 13 14  1  0  0  0  0
 13 15  1  0  0  0  0
 14 16  2  0  0  0  0
 14 18  1  0  0  0  0
 15 17  2  0  0  0  0
 15 19  1  0  0  0  0
 16 20  1  0  0  0  0
 16 42  1  0  0  0  0
 17 21  1  0  0  0  0
 17 43  1  0  0  0  0
 18 22  2  0  0  0  0
 18 44  1  0  0  0  0
 19 23  2  0  0  0  0
 19 45  1  0  0  0  0
 20 24  2  0  0  0  0
 20 46  1  0  0  0  0
 21 25  2  0  0  0  0
 21 47  1  0  0  0  0
 22 24  1  0  0  0  0
 22 48  1  0  0  0  0
 23 25  1  0  0  0  0
 23 49  1  0  0  0  0
 24 50  1  0  0  0  0
 25 51  1  0  0  0  0
M  END
> <PUBCHEM_COMPOUND_CID>
68862

> <PUBCHEM_COMPOUND_CANONICALIZED>
1

> <PUBCHEM_CACTVS_COMPLEXITY>
410

> <PUBCHEM_CACTVS_HBOND_ACCEPTOR>
3

> <PUBCHEM_CACTVS_HBOND_DONOR>
2

> <PUBCHEM_CACTVS_ROTATABLE_BOND>
6

> <PUBCHEM_CACTVS_SUBSKEYS>
AAADceB7MAAAAAAAAAAAAAAAAAAAAWAAAAAwYAAAAAAAAAABQAAAHgAQCAAADGzBmAQyAIPAAgCIAiFSEAICAAAgAAAIiIFICIgKZjKAlRGUcAAk1gGYmAeYyOCOgAAAAAAAAAAAAAAAAAAAAAAAAAAAAA==

> <PUBCHEM_IUPAC_OPENEYE_NAME>
N-[(1-ethylpyrrolidin-2-yl)methyl]-2-hydroxy-2,2-diphenyl-acetamide

> <PUBCHEM_IUPAC_CAS_NAME>
N-[(1-ethyl-2-pyrrolidinyl)methyl]-2-hydroxy-2,2-diphenylacetamide

> <PUBCHEM_IUPAC_NAME>
N-[(1-ethylpyrrolidin-2-yl)methyl]-2-hydroxy-2,2-diphenylacetamide

> <PUBCHEM_IUPAC_SYSTEMATIC_NAME>
N-[(1-ethylpyrrolidin-2-yl)methyl]-2-oxidanyl-2,2-diphenyl-ethanamide

> <PUBCHEM_IUPAC_TRADITIONAL_NAME>
N-[(1-ethylpyrrolidin-2-yl)methyl]-2-hydroxy-2,2-diphenyl-acetamide

> <PUBCHEM_IUPAC_INCHI>
InChI=1S/C21H26N2O2/c1-2-23-15-9-14-19(23)16-22-20(24)21(25,17-10-5-3-6-11-17)18-12-7-4-8-13-18/h3-8,10-13,19,25H,2,9,14-16H2,1H3,(H,22,24)

> <PUBCHEM_IUPAC_INCHIKEY>
LMXFPUVUUSHCMM-UHFFFAOYSA-N

> <PUBCHEM_XLOGP3_AA>
3

> <PUBCHEM_EXACT_MASS>
338.199428

> <PUBCHEM_MOLECULAR_FORMULA>
C21H26N2O2

> <PUBCHEM_MOLECULAR_WEIGHT>
338.44334

> <PUBCHEM_OPENEYE_CAN_SMILES>
CCN1CCCC1CNC(=O)C(C2=CC=CC=C2)(C3=CC=CC=C3)O

> <PUBCHEM_OPENEYE_ISO_SMILES>
CCN1CCCC1CNC(=O)C(C2=CC=CC=C2)(C3=CC=CC=C3)O

> <PUBCHEM_CACTVS_TPSA>
52.6

> <PUBCHEM_MONOISOTOPIC_WEIGHT>
338.199428

> <PUBCHEM_TOTAL_CHARGE>
0

> <PUBCHEM_HEAVY_ATOM_COUNT>
25

> <PUBCHEM_ATOM_DEF_STEREO_COUNT>
0

> <PUBCHEM_ATOM_UDEF_STEREO_COUNT>
1

> <PUBCHEM_BOND_DEF_STEREO_COUNT>
0

> <PUBCHEM_BOND_UDEF_STEREO_COUNT>
0

> <PUBCHEM_ISOTOPIC_ATOM_COUNT>
0

> <PUBCHEM_COMPONENT_COUNT>
1

> <PUBCHEM_CACTVS_TAUTO_COUNT>
2

> <PUBCHEM_COORDINATE_TYPE>
1
5
255

> <PUBCHEM_BONDANNOTATIONS>
14  16  8
14  18  8
15  17  8
15  19  8
16  20  8
17  21  8
18  22  8
19  23  8
20  24  8
21  25  8
22  24  8
23  25  8
5  26  3

$$$$

