10525982
  -OEChem-07051213072D

 74 79  0     1  0  0  0  0  0999 V2000
    5.2020   -3.4072    0.0000 O   0  0  0  0  0  0  0  0  0  0  0  0
    2.5381   -2.9309    0.0000 O   0  0  0  0  0  0  0  0  0  0  0  0
   12.1859    3.4072    0.0000 O   0  0  0  0  0  0  0  0  0  0  0  0
    5.2022   -2.4067    0.0000 C   0  0  2  0  0  0  0  0  0  0  0  0
    5.2022   -1.4067    0.0000 C   0  0  1  0  0  0  0  0  0  0  0  0
    6.0682   -0.9067    0.0000 C   0  0  2  0  0  0  0  0  0  0  0  0
    6.9343   -1.4067    0.0000 C   0  0  2  0  0  0  0  0  0  0  0  0
    6.0682   -2.9067    0.0000 C   0  0  2  0  0  0  0  0  0  0  0  0
    7.8443   -0.8999    0.0000 C   0  0  1  0  0  0  0  0  0  0  0  0
    7.8523    0.1417    0.0000 C   0  0  1  0  0  0  0  0  0  0  0  0
    6.9343   -2.4067    0.0000 C   0  0  0  0  0  0  0  0  0  0  0  0
    6.0522    0.1348    0.0000 C   0  0  0  0  0  0  0  0  0  0  0  0
    4.3083   -2.9414    0.0000 C   0  0  0  0  0  0  0  0  0  0  0  0
    8.8403    0.4515    0.0000 C   0  0  2  0  0  0  0  0  0  0  0  0
    6.9502    0.6625    0.0000 C   0  0  0  0  0  0  0  0  0  0  0  0
    4.3083   -0.8721    0.0000 C   0  0  0  0  0  0  0  0  0  0  0  0
    8.8274   -1.2249    0.0000 C   0  0  0  0  0  0  0  0  0  0  0  0
    9.4418   -0.3914    0.0000 C   0  0  0  0  0  0  0  0  0  0  0  0
    5.2022   -0.4067    0.0000 C   0  0  0  0  0  0  0  0  0  0  0  0
    3.4022   -2.4275    0.0000 C   0  0  2  0  0  0  0  0  0  0  0  0
    3.4022   -1.3859    0.0000 C   0  0  0  0  0  0  0  0  0  0  0  0
    7.8600    1.1417    0.0000 C   0  0  0  0  0  0  0  0  0  0  0  0
    9.1583    1.3996    0.0000 C   0  0  1  0  0  0  0  0  0  0  0  0
   10.1384    1.5983    0.0000 C   0  0  0  0  0  0  0  0  0  0  0  0
    8.4962    2.1491    0.0000 C   0  0  0  0  0  0  0  0  0  0  0  0
   10.4564    2.5464    0.0000 C   0  0  0  0  0  0  0  0  0  0  0  0
   11.4364    2.7451    0.0000 C   0  0  1  0  0  0  0  0  0  0  0  0
   12.3845    2.4271    0.0000 C   0  0  0  0  0  0  0  0  0  0  0  0
   13.3646    2.6258    0.0000 C   0  0  0  0  0  0  0  0  0  0  0  0
   12.0665    1.4790    0.0000 C   0  0  0  0  0  0  0  0  0  0  0  0
    6.8011   -0.4761    0.0000 H   0  0  0  0  0  0  0  0  0  0  0  0
    7.6671   -1.8374    0.0000 H   0  0  0  0  0  0  0  0  0  0  0  0
    6.4934   -3.6428    0.0000 H   0  0  0  0  0  0  0  0  0  0  0  0
    7.9244   -1.7461    0.0000 H   0  0  0  0  0  0  0  0  0  0  0  0
    7.1463   -2.9893    0.0000 H   0  0  0  0  0  0  0  0  0  0  0  0
    7.5449   -2.2990    0.0000 H   0  0  0  0  0  0  0  0  0  0  0  0
    5.8342    0.7152    0.0000 H   0  0  0  0  0  0  0  0  0  0  0  0
    5.4431    0.0193    0.0000 H   0  0  0  0  0  0  0  0  0  0  0  0
    3.9147   -3.4204    0.0000 H   0  0  0  0  0  0  0  0  0  0  0  0
    4.7129   -3.4112    0.0000 H   0  0  0  0  0  0  0  0  0  0  0  0
    9.6810    0.5769    0.0000 H   0  0  0  0  0  0  0  0  0  0  0  0
    7.3475    1.1385    0.0000 H   0  0  0  0  0  0  0  0  0  0  0  0
    6.5493    1.1354    0.0000 H   0  0  0  0  0  0  0  0  0  0  0  0
    4.7129   -0.4023    0.0000 H   0  0  0  0  0  0  0  0  0  0  0  0
    3.9147   -0.3930    0.0000 H   0  0  0  0  0  0  0  0  0  0  0  0
    8.5720   -1.7898    0.0000 H   0  0  0  0  0  0  0  0  0  0  0  0
    9.3624   -1.5382    0.0000 H   0  0  0  0  0  0  0  0  0  0  0  0
    9.8994   -0.8096    0.0000 H   0  0  0  0  0  0  0  0  0  0  0  0
    9.9058    0.0198    0.0000 H   0  0  0  0  0  0  0  0  0  0  0  0
    5.8222   -0.4067    0.0000 H   0  0  0  0  0  0  0  0  0  0  0  0
    5.2022    0.2133    0.0000 H   0  0  0  0  0  0  0  0  0  0  0  0
    4.5822   -0.4067    0.0000 H   0  0  0  0  0  0  0  0  0  0  0  0
    2.8647   -2.1186    0.0000 H   0  0  0  0  0  0  0  0  0  0  0  0
    3.1932   -0.8022    0.0000 H   0  0  0  0  0  0  0  0  0  0  0  0
    2.7914   -1.4920    0.0000 H   0  0  0  0  0  0  0  0  0  0  0  0
    8.4800    1.1369    0.0000 H   0  0  0  0  0  0  0  0  0  0  0  0
    7.8648    1.7617    0.0000 H   0  0  0  0  0  0  0  0  0  0  0  0
    7.2400    1.1465    0.0000 H   0  0  0  0  0  0  0  0  0  0  0  0
    9.3555    1.9875    0.0000 H   0  0  0  0  0  0  0  0  0  0  0  0
   10.1542    0.9785    0.0000 H   0  0  0  0  0  0  0  0  0  0  0  0
   10.7515    1.5062    0.0000 H   0  0  0  0  0  0  0  0  0  0  0  0
    8.9609    2.5596    0.0000 H   0  0  0  0  0  0  0  0  0  0  0  0
    8.0857    2.6137    0.0000 H   0  0  0  0  0  0  0  0  0  0  0  0
    8.0316    1.7386    0.0000 H   0  0  0  0  0  0  0  0  0  0  0  0
    2.0000   -2.6229    0.0000 H   0  0  0  0  0  0  0  0  0  0  0  0
   10.4406    3.1662    0.0000 H   0  0  0  0  0  0  0  0  0  0  0  0
    9.8432    2.6385    0.0000 H   0  0  0  0  0  0  0  0  0  0  0  0
   11.1602    3.3001    0.0000 H   0  0  0  0  0  0  0  0  0  0  0  0
   13.4878    2.0181    0.0000 H   0  0  0  0  0  0  0  0  0  0  0  0
   13.9722    2.7489    0.0000 H   0  0  0  0  0  0  0  0  0  0  0  0
   13.2414    3.2334    0.0000 H   0  0  0  0  0  0  0  0  0  0  0  0
   11.4787    1.6761    0.0000 H   0  0  0  0  0  0  0  0  0  0  0  0
   11.8694    0.8912    0.0000 H   0  0  0  0  0  0  0  0  0  0  0  0
   12.6544    1.2818    0.0000 H   0  0  0  0  0  0  0  0  0  0  0  0
  4  1  1  6  0  0  0
  1  8  1  0  0  0  0
 20  2  1  1  0  0  0
  2 65  1  0  0  0  0
  3 27  1  0  0  0  0
  3 28  1  0  0  0  0
  4  5  1  0  0  0  0
  4  8  1  0  0  0  0
  4 13  1  0  0  0  0
  5  6  1  0  0  0  0
  5 16  1  0  0  0  0
  5 19  1  1  0  0  0
  6  7  1  0  0  0  0
  6 12  1  0  0  0  0
  6 31  1  6  0  0  0
  7  9  1  0  0  0  0
  7 11  1  0  0  0  0
  7 32  1  1  0  0  0
  8 11  1  0  0  0  0
  8 33  1  1  0  0  0
  9 10  1  0  0  0  0
  9 17  1  0  0  0  0
  9 34  1  6  0  0  0
 10 14  1  0  0  0  0
 10 15  1  0  0  0  0
 10 22  1  1  0  0  0
 11 35  1  0  0  0  0
 11 36  1  0  0  0  0
 12 15  1  0  0  0  0
 12 37  1  0  0  0  0
 12 38  1  0  0  0  0
 13 20  1  0  0  0  0
 13 39  1  0  0  0  0
 13 40  1  0  0  0  0
 14 18  1  0  0  0  0
 14 23  1  0  0  0  0
 14 41  1  6  0  0  0
 15 42  1  0  0  0  0
 15 43  1  0  0  0  0
 16 21  1  0  0  0  0
 16 44  1  0  0  0  0
 16 45  1  0  0  0  0
 17 18  1  0  0  0  0
 17 46  1  0  0  0  0
 17 47  1  0  0  0  0
 18 48  1  0  0  0  0
 18 49  1  0  0  0  0
 19 50  1  0  0  0  0
 19 51  1  0  0  0  0
 19 52  1  0  0  0  0
 20 21  1  0  0  0  0
 20 53  1  0  0  0  0
 21 54  1  0  0  0  0
 21 55  1  0  0  0  0
 22 56  1  0  0  0  0
 22 57  1  0  0  0  0
 22 58  1  0  0  0  0
 23 24  1  0  0  0  0
 23 25  1  6  0  0  0
 23 59  1  0  0  0  0
 24 26  1  0  0  0  0
 24 60  1  0  0  0  0
 24 61  1  0  0  0  0
 25 62  1  0  0  0  0
 25 63  1  0  0  0  0
 25 64  1  0  0  0  0
 27 26  1  6  0  0  0
 26 66  1  0  0  0  0
 26 67  1  0  0  0  0
 27 28  1  0  0  0  0
 27 68  1  0  0  0  0
 28 29  1  0  0  0  0
 28 30  1  0  0  0  0
 29 69  1  0  0  0  0
 29 70  1  0  0  0  0
 29 71  1  0  0  0  0
 30 72  1  0  0  0  0
 30 73  1  0  0  0  0
 30 74  1  0  0  0  0
M  END
> <PUBCHEM_COMPOUND_CID>
10525982

> <PUBCHEM_COMPOUND_CANONICALIZED>
1

> <PUBCHEM_CACTVS_COMPLEXITY>
719

> <PUBCHEM_CACTVS_HBOND_ACCEPTOR>
3

> <PUBCHEM_CACTVS_HBOND_DONOR>
1

> <PUBCHEM_CACTVS_ROTATABLE_BOND>
4

> <PUBCHEM_CACTVS_SUBSKEYS>
AAADcfB4MAAAAAAAAAAAAAAAEiQAAYAAAAAwYMAABIAAAGDAAAAAGgAACAAAD1SggAICAAAABgAAAAAAAAAAAAAAAAAAAAAAAAAAEAIAAAACQAAFAAAAAAHA4PwPgAAAAAAAAADAAAYQADAAAQAACAAAAA==

> <PUBCHEM_IUPAC_INCHI>
InChI=1S/C27H44O3/c1-16(6-9-22-24(2,3)29-22)19-7-8-20-18-14-23-27(30-23)15-17(28)10-13-26(27,5)21(18)11-12-25(19,20)4/h16-23,28H,6-15H2,1-5H3/t16-,17+,18+,19-,20+,21+,22+,23+,25-,26-,27+/m1/s1

> <PUBCHEM_IUPAC_INCHIKEY>
IUSLCYDEWITGFD-AISCQZDLSA-N

> <PUBCHEM_XLOGP3_AA>
6

> <PUBCHEM_EXACT_MASS>
416.329045

> <PUBCHEM_MOLECULAR_FORMULA>
C27H44O3

> <PUBCHEM_MOLECULAR_WEIGHT>
416.63646

> <PUBCHEM_OPENEYE_CAN_SMILES>
CC(CCC1C(O1)(C)C)C2CCC3C2(CCC4C3CC5C6(C4(CCC(C6)O)C)O5)C

> <PUBCHEM_OPENEYE_ISO_SMILES>
C[C@H](CC[C@H]1C(O1)(C)C)[C@H]2CC[C@@H]3[C@@]2(CC[C@H]4[C@H]3C[C@H]5[C@@]6([C@@]4(CC[C@@H](C6)O)C)O5)C

> <PUBCHEM_CACTVS_TPSA>
45.3

> <PUBCHEM_MONOISOTOPIC_WEIGHT>
416.329045

> <PUBCHEM_TOTAL_CHARGE>
0

> <PUBCHEM_HEAVY_ATOM_COUNT>
30

> <PUBCHEM_ATOM_DEF_STEREO_COUNT>
11

> <PUBCHEM_ATOM_UDEF_STEREO_COUNT>
0

> <PUBCHEM_BOND_DEF_STEREO_COUNT>
0

> <PUBCHEM_BOND_UDEF_STEREO_COUNT>
0

> <PUBCHEM_ISOTOPIC_ATOM_COUNT>
0

> <PUBCHEM_COMPONENT_COUNT>
1

> <PUBCHEM_CACTVS_TAUTO_COUNT>
1

> <PUBCHEM_COORDINATE_TYPE>
1
5
255

> <PUBCHEM_BONDANNOTATIONS>
4  1  6
10  22  5
14  41  6
20  2  5
23  25  6
27  26  6
5  19  5
6  31  6
7  32  5
8  33  5
9  34  6

$$$$

