56928139
  -OEChem-07051213152D

116119  0     1  0  0  0  0  0999 V2000
   15.1834    1.1595    0.0000 O   0  0  0  0  0  0  0  0  0  0  0  0
   10.6563   -3.3928    0.0000 O   0  0  0  0  0  0  0  0  0  0  0  0
   10.6725   -1.3012    0.0000 O   0  0  0  0  0  0  0  0  0  0  0  0
   16.9491    2.6096    0.0000 O   0  0  0  0  0  0  0  0  0  0  0  0
   20.2418    1.5334    0.0000 O   0  0  0  0  0  0  0  0  0  0  0  0
    9.7961   -1.8895    0.0000 O   0  0  0  0  0  0  0  0  0  0  0  0
   20.1953    4.1788    0.0000 O   0  0  0  0  0  0  0  0  0  0  0  0
    7.5569   -3.7469    0.0000 O   0  0  0  0  0  0  0  0  0  0  0  0
    6.3243   -3.8761    0.0000 O   0  0  0  0  0  0  0  0  0  0  0  0
    2.8641   -2.8628    0.0000 O   0  0  0  0  0  0  0  0  0  0  0  0
    3.7359   -1.3661    0.0000 O   0  0  0  0  0  0  0  0  0  0  0  0
    5.4641   -2.3728    0.0000 N   0  0  0  0  0  0  0  0  0  0  0  0
   16.0494   -0.3405    0.0000 C   0  0  1  0  0  0  0  0  0  0  0  0
   16.0494   -1.3405    0.0000 C   0  0  2  0  0  0  0  0  0  0  0  0
   16.9956   -0.0358    0.0000 C   0  0  2  0  0  0  0  0  0  0  0  0
   13.4074   -1.8473    0.0000 C   0  0  1  0  0  0  0  0  0  0  0  0
   15.1834   -1.8405    0.0000 C   0  0  0  0  0  0  0  0  0  0  0  0
   13.3993   -2.8889    0.0000 C   0  0  3  0  0  0  0  0  0  0  0  0
   14.3174   -1.3405    0.0000 C   0  0  0  0  0  0  0  0  0  0  0  0
   15.1834    0.1595    0.0000 C   0  0  2  0  0  0  0  0  0  0  0  0
   16.9956   -1.6452    0.0000 C   0  0  0  0  0  0  0  0  0  0  0  0
   17.5792   -0.8405    0.0000 C   0  0  0  0  0  0  0  0  0  0  0  0
   14.3174   -0.3405    0.0000 C   0  0  0  0  0  0  0  0  0  0  0  0
   12.4639   -3.4387    0.0000 C   0  0  0  0  0  0  0  0  0  0  0  0
   15.1995   -2.8820    0.0000 C   0  0  0  0  0  0  0  0  0  0  0  0
   14.3014   -3.4098    0.0000 C   0  0  0  0  0  0  0  0  0  0  0  0
   17.3063    0.9148    0.0000 C   0  0  3  0  0  0  0  0  0  0  0  0
   12.4805   -1.2833    0.0000 C   0  0  0  0  0  0  0  0  0  0  0  0
   16.0494    0.6595    0.0000 C   0  0  0  0  0  0  0  0  0  0  0  0
   16.0494   -2.3405    0.0000 C   0  0  0  0  0  0  0  0  0  0  0  0
   11.5243   -2.8962    0.0000 C   0  0  2  0  0  0  0  0  0  0  0  0
   11.5326   -1.8112    0.0000 C   0  0  2  0  0  0  0  0  0  0  0  0
   13.4151   -0.8474    0.0000 C   0  0  0  0  0  0  0  0  0  0  0  0
   18.2848    1.1210    0.0000 C   0  0  0  0  0  0  0  0  0  0  0  0
   11.9673   -4.3066    0.0000 C   0  0  0  0  0  0  0  0  0  0  0  0
   12.9672   -4.3028    0.0000 C   0  0  0  0  0  0  0  0  0  0  0  0
   16.6385    1.6591    0.0000 C   0  0  0  0  0  0  0  0  0  0  0  0
   18.5955    2.0715    0.0000 C   0  0  0  0  0  0  0  0  0  0  0  0
   19.5740    2.2777    0.0000 C   0  0  2  0  0  0  0  0  0  0  0  0
    9.7922   -2.8895    0.0000 C   0  0  0  0  0  0  0  0  0  0  0  0
   19.8846    3.2282    0.0000 C   0  0  0  0  0  0  0  0  0  0  0  0
    8.9243   -3.3862    0.0000 C   0  0  0  0  0  0  0  0  0  0  0  0
   20.8352    2.9176    0.0000 C   0  0  0  0  0  0  0  0  0  0  0  0
   18.9341    3.5389    0.0000 C   0  0  0  0  0  0  0  0  0  0  0  0
    8.0602   -2.8828    0.0000 C   0  0  3  0  0  0  0  0  0  0  0  0
    7.1961   -2.3795    0.0000 C   0  0  0  0  0  0  0  0  0  0  0  0
    8.5635   -2.0187    0.0000 C   0  0  0  0  0  0  0  0  0  0  0  0
    6.3282   -2.8761    0.0000 C   0  0  0  0  0  0  0  0  0  0  0  0
    4.5961   -2.8695    0.0000 C   0  0  0  0  0  0  0  0  0  0  0  0
    3.7320   -2.3661    0.0000 C   0  0  0  0  0  0  0  0  0  0  0  0
    2.0000   -2.3594    0.0000 C   0  0  0  0  0  0  0  0  0  0  0  0
   17.6081    0.0604    0.0000 H   0  0  0  0  0  0  0  0  0  0  0  0
   13.4017   -3.5089    0.0000 H   0  0  0  0  0  0  0  0  0  0  0  0
   15.7203    0.4695    0.0000 H   0  0  0  0  0  0  0  0  0  0  0  0
   16.7446   -2.2121    0.0000 H   0  0  0  0  0  0  0  0  0  0  0  0
   17.5330   -1.9544    0.0000 H   0  0  0  0  0  0  0  0  0  0  0  0
   18.0401   -1.2552    0.0000 H   0  0  0  0  0  0  0  0  0  0  0  0
   18.0401   -0.4258    0.0000 H   0  0  0  0  0  0  0  0  0  0  0  0
   14.1053    0.2421    0.0000 H   0  0  0  0  0  0  0  0  0  0  0  0
   13.7068   -0.4482    0.0000 H   0  0  0  0  0  0  0  0  0  0  0  0
   15.4175   -3.4624    0.0000 H   0  0  0  0  0  0  0  0  0  0  0  0
   15.8086   -2.7665    0.0000 H   0  0  0  0  0  0  0  0  0  0  0  0
   13.9041   -3.8857    0.0000 H   0  0  0  0  0  0  0  0  0  0  0  0
   14.7024   -3.8826    0.0000 H   0  0  0  0  0  0  0  0  0  0  0  0
   16.6996    0.7869    0.0000 H   0  0  0  0  0  0  0  0  0  0  0  0
   12.8887   -0.8166    0.0000 H   0  0  0  0  0  0  0  0  0  0  0  0
   12.0906   -0.8012    0.0000 H   0  0  0  0  0  0  0  0  0  0  0  0
   16.6694    0.6595    0.0000 H   0  0  0  0  0  0  0  0  0  0  0  0
   16.0494    1.2795    0.0000 H   0  0  0  0  0  0  0  0  0  0  0  0
   15.4294    0.6595    0.0000 H   0  0  0  0  0  0  0  0  0  0  0  0
   15.4294   -2.3405    0.0000 H   0  0  0  0  0  0  0  0  0  0  0  0
   16.0494   -2.9605    0.0000 H   0  0  0  0  0  0  0  0  0  0  0  0
   16.6694   -2.3405    0.0000 H   0  0  0  0  0  0  0  0  0  0  0  0
   11.5231   -3.5162    0.0000 H   0  0  0  0  0  0  0  0  0  0  0  0
   10.9927   -2.1160    0.0000 H   0  0  0  0  0  0  0  0  0  0  0  0
   14.0351   -0.8522    0.0000 H   0  0  0  0  0  0  0  0  0  0  0  0
   13.4199   -0.2274    0.0000 H   0  0  0  0  0  0  0  0  0  0  0  0
   12.7951   -0.8426    0.0000 H   0  0  0  0  0  0  0  0  0  0  0  0
   18.3054    0.5013    0.0000 H   0  0  0  0  0  0  0  0  0  0  0  0
   18.8986    1.0336    0.0000 H   0  0  0  0  0  0  0  0  0  0  0  0
   12.4315   -4.6148    0.0000 H   0  0  0  0  0  0  0  0  0  0  0  0
   13.2793   -4.8385    0.0000 H   0  0  0  0  0  0  0  0  0  0  0  0
   13.5030   -3.9907    0.0000 H   0  0  0  0  0  0  0  0  0  0  0  0
   11.4291   -3.9987    0.0000 H   0  0  0  0  0  0  0  0  0  0  0  0
   11.6593   -4.8447    0.0000 H   0  0  0  0  0  0  0  0  0  0  0  0
   12.5054   -4.6145    0.0000 H   0  0  0  0  0  0  0  0  0  0  0  0
   14.6465    1.4695    0.0000 H   0  0  0  0  0  0  0  0  0  0  0  0
   16.0915    1.9511    0.0000 H   0  0  0  0  0  0  0  0  0  0  0  0
   16.2559    1.1712    0.0000 H   0  0  0  0  0  0  0  0  0  0  0  0
   18.5749    2.6912    0.0000 H   0  0  0  0  0  0  0  0  0  0  0  0
   17.9817    2.1588    0.0000 H   0  0  0  0  0  0  0  0  0  0  0  0
   10.6796   -0.6813    0.0000 H   0  0  0  0  0  0  0  0  0  0  0  0
   20.1807    2.4056    0.0000 H   0  0  0  0  0  0  0  0  0  0  0  0
   16.5351    3.0710    0.0000 H   0  0  0  0  0  0  0  0  0  0  0  0
    8.5239   -3.8596    0.0000 H   0  0  0  0  0  0  0  0  0  0  0  0
    9.3210   -3.8626    0.0000 H   0  0  0  0  0  0  0  0  0  0  0  0
   20.8485    1.6613    0.0000 H   0  0  0  0  0  0  0  0  0  0  0  0
   20.6425    2.3282    0.0000 H   0  0  0  0  0  0  0  0  0  0  0  0
   21.4245    2.7250    0.0000 H   0  0  0  0  0  0  0  0  0  0  0  0
   21.0278    3.5069    0.0000 H   0  0  0  0  0  0  0  0  0  0  0  0
   19.1267    4.1282    0.0000 H   0  0  0  0  0  0  0  0  0  0  0  0
   18.3448    3.7315    0.0000 H   0  0  0  0  0  0  0  0  0  0  0  0
   18.7415    2.9496    0.0000 H   0  0  0  0  0  0  0  0  0  0  0  0
   20.8020    4.3066    0.0000 H   0  0  0  0  0  0  0  0  0  0  0  0
    7.5965   -1.9061    0.0000 H   0  0  0  0  0  0  0  0  0  0  0  0
    6.7994   -1.9030    0.0000 H   0  0  0  0  0  0  0  0  0  0  0  0
    9.0993   -2.3308    0.0000 H   0  0  0  0  0  0  0  0  0  0  0  0
    8.8756   -1.4830    0.0000 H   0  0  0  0  0  0  0  0  0  0  0  0
    8.0278   -1.7067    0.0000 H   0  0  0  0  0  0  0  0  0  0  0  0
    7.8648   -4.2850    0.0000 H   0  0  0  0  0  0  0  0  0  0  0  0
    5.4665   -1.7528    0.0000 H   0  0  0  0  0  0  0  0  0  0  0  0
    4.1958   -3.3429    0.0000 H   0  0  0  0  0  0  0  0  0  0  0  0
    4.9928   -3.3459    0.0000 H   0  0  0  0  0  0  0  0  0  0  0  0
    2.3121   -1.8237    0.0000 H   0  0  0  0  0  0  0  0  0  0  0  0
    1.4643   -2.0474    0.0000 H   0  0  0  0  0  0  0  0  0  0  0  0
    1.6879   -2.8952    0.0000 H   0  0  0  0  0  0  0  0  0  0  0  0
 20  1  1  6  0  0  0
  1 87  1  0  0  0  0
 31  2  1  1  0  0  0
  2 40  1  0  0  0  0
 32  3  1  6  0  0  0
  3 92  1  0  0  0  0
  4 37  1  0  0  0  0
  4 94  1  0  0  0  0
 39  5  1  6  0  0  0
  5 97  1  0  0  0  0
  6 40  2  0  0  0  0
  7 41  1  0  0  0  0
  7104  1  0  0  0  0
  8 45  1  0  0  0  0
  8110  1  0  0  0  0
  9 48  2  0  0  0  0
 10 50  1  0  0  0  0
 10 51  1  0  0  0  0
 11 50  2  0  0  0  0
 12 48  1  0  0  0  0
 12 49  1  0  0  0  0
 12111  1  0  0  0  0
 13 14  1  0  0  0  0
 13 15  1  0  0  0  0
 13 20  1  0  0  0  0
 13 29  1  1  0  0  0
 14 17  1  0  0  0  0
 14 21  1  0  0  0  0
 14 30  1  6  0  0  0
 15 22  1  0  0  0  0
 15 27  1  1  0  0  0
 15 52  1  0  0  0  0
 16 18  1  0  0  0  0
 16 19  1  0  0  0  0
 16 28  1  0  0  0  0
 16 33  1  1  0  0  0
 17 19  2  0  0  0  0
 17 25  1  0  0  0  0
 18 24  1  0  0  0  0
 18 26  1  0  0  0  0
 18 53  1  0  0  0  0
 19 23  1  0  0  0  0
 20 23  1  0  0  0  0
 20 54  1  0  0  0  0
 21 22  1  0  0  0  0
 21 55  1  0  0  0  0
 21 56  1  0  0  0  0
 22 57  1  0  0  0  0
 22 58  1  0  0  0  0
 23 59  1  0  0  0  0
 23 60  1  0  0  0  0
 24 31  1  0  0  0  0
 24 35  1  0  0  0  0
 24 36  1  0  0  0  0
 25 26  1  0  0  0  0
 25 61  1  0  0  0  0
 25 62  1  0  0  0  0
 26 63  1  0  0  0  0
 26 64  1  0  0  0  0
 27 34  1  0  0  0  0
 27 37  1  0  0  0  0
 27 65  1  0  0  0  0
 28 32  1  0  0  0  0
 28 66  1  0  0  0  0
 28 67  1  0  0  0  0
 29 68  1  0  0  0  0
 29 69  1  0  0  0  0
 29 70  1  0  0  0  0
 30 71  1  0  0  0  0
 30 72  1  0  0  0  0
 30 73  1  0  0  0  0
 31 32  1  0  0  0  0
 31 74  1  0  0  0  0
 32 75  1  0  0  0  0
 33 76  1  0  0  0  0
 33 77  1  0  0  0  0
 33 78  1  0  0  0  0
 34 38  1  0  0  0  0
 34 79  1  0  0  0  0
 34 80  1  0  0  0  0
 35 84  1  0  0  0  0
 35 85  1  0  0  0  0
 35 86  1  0  0  0  0
 36 81  1  0  0  0  0
 36 82  1  0  0  0  0
 36 83  1  0  0  0  0
 37 88  1  0  0  0  0
 37 89  1  0  0  0  0
 38 39  1  0  0  0  0
 38 90  1  0  0  0  0
 38 91  1  0  0  0  0
 39 41  1  0  0  0  0
 39 93  1  0  0  0  0
 40 42  1  0  0  0  0
 41 43  1  0  0  0  0
 41 44  1  0  0  0  0
 42 45  1  0  0  0  0
 42 95  1  0  0  0  0
 42 96  1  0  0  0  0
 43 98  1  0  0  0  0
 43 99  1  0  0  0  0
 43100  1  0  0  0  0
 44101  1  0  0  0  0
 44102  1  0  0  0  0
 44103  1  0  0  0  0
 45 46  1  0  0  0  0
 45 47  1  0  0  0  0
 46 48  1  0  0  0  0
 46105  1  0  0  0  0
 46106  1  0  0  0  0
 47107  1  0  0  0  0
 47108  1  0  0  0  0
 47109  1  0  0  0  0
 49 50  1  0  0  0  0
 49112  1  0  0  0  0
 49113  1  0  0  0  0
 51114  1  0  0  0  0
 51115  1  0  0  0  0
 51116  1  0  0  0  0
M  END
> <PUBCHEM_COMPOUND_CID>
56928139

> <PUBCHEM_COMPOUND_CANONICALIZED>
1

> <PUBCHEM_CACTVS_COMPLEXITY>
1360

> <PUBCHEM_CACTVS_HBOND_ACCEPTOR>
11

> <PUBCHEM_CACTVS_HBOND_DONOR>
7

> <PUBCHEM_CACTVS_ROTATABLE_BOND>
15

> <PUBCHEM_CACTVS_SUBSKEYS>
AAADcfB+PAAAAAAAAAAAAAAAAAAAAYAAAAAwQIAAAAAAAEDAAAAAHgAQCAAAD1ThgAYCCALABgCIAgHQGAAAAAAgAAAACIGIAAgDEBYAgCAHQAAH9gCbAAOY9/YPgAAAAAAAAABAAAYAADCAAQAACAAAAA==

> <PUBCHEM_IUPAC_OPENEYE_NAME>
[(2R,3R,10S,12S,13R,14S,17R)-17-[(4R)-4,5-dihydroxy-1-(hydroxymethyl)-5-methyl-hexyl]-2,12-dihydroxy-4,4,10,13,14-pentamethyl-2,3,5,6,7,11,12,15,16,17-decahydro-1H-cyclopenta[a]phenanthren-3-yl] 3-hydroxy-5-[(2-methoxy-2-oxo-ethyl)amino]-3-methyl-5-oxo-pentanoate

> <PUBCHEM_IUPAC_CAS_NAME>
3-hydroxy-5-[(2-methoxy-2-oxoethyl)amino]-3-methyl-5-oxopentanoic acid [(2R,3R,10S,12S,13R,14S,17R)-2,12-dihydroxy-4,4,10,13,14-pentamethyl-17-[(5R)-1,5,6-trihydroxy-6-methylheptan-2-yl]-2,3,5,6,7,11,12,15,16,17-decahydro-1H-cyclopenta[a]phenanthren-3-yl] ester

> <PUBCHEM_IUPAC_NAME>
[(2R,3R,10S,12S,13R,14S,17R)-2,12-dihydroxy-4,4,10,13,14-pentamethyl-17-[(5R)-1,5,6-trihydroxy-6-methylheptan-2-yl]-2,3,5,6,7,11,12,15,16,17-decahydro-1H-cyclopenta[a]phenanthren-3-yl] 3-hydroxy-5-[(2-methoxy-2-oxoethyl)amino]-3-methyl-5-oxopentanoate

> <PUBCHEM_IUPAC_SYSTEMATIC_NAME>
[(2R,3R,10S,12S,13R,14S,17R)-4,4,10,13,14-pentamethyl-17-[(5R)-6-methyl-1,5,6-tris(oxidanyl)heptan-2-yl]-2,12-bis(oxidanyl)-2,3,5,6,7,11,12,15,16,17-decahydro-1H-cyclopenta[a]phenanthren-3-yl] 5-[(2-methoxy-2-oxidanylidene-ethyl)amino]-3-methyl-3-oxidanyl-5-oxidanylidene-pentanoate

> <PUBCHEM_IUPAC_TRADITIONAL_NAME>
3-hydroxy-5-keto-5-[(2-keto-2-methoxy-ethyl)amino]-3-methyl-valeric acid [(2R,3R,10S,12S,13R,14S,17R)-17-[(4R)-4,5-dihydroxy-5-methyl-1-methylol-hexyl]-2,12-dihydroxy-4,4,10,13,14-pentamethyl-2,3,5,6,7,11,12,15,16,17-decahydro-1H-cyclopenta[a]phenanthren-3-yl] ester

> <PUBCHEM_IUPAC_INCHI>
InChI=1S/C39H65NO11/c1-34(2)27-12-11-24-25(16-29(44)39(8)23(14-15-38(24,39)7)22(21-41)10-13-28(43)35(3,4)48)37(27,6)17-26(42)33(34)51-31(46)19-36(5,49)18-30(45)40-20-32(47)50-9/h22-23,26-29,33,41-44,48-49H,10-21H2,1-9H3,(H,40,45)/t22?,23-,26-,27?,28-,29+,33+,36?,37-,38+,39+/m1/s1

> <PUBCHEM_IUPAC_INCHIKEY>
XCIUFBDNARZOSJ-HNHLWXLESA-N

> <PUBCHEM_XLOGP3_AA>
2.3

> <PUBCHEM_EXACT_MASS>
723.455762

> <PUBCHEM_MOLECULAR_FORMULA>
C39H65NO11

> <PUBCHEM_MOLECULAR_WEIGHT>
723.9335

> <PUBCHEM_OPENEYE_CAN_SMILES>
CC1(C2CCC3=C(C2(CC(C1OC(=O)CC(C)(CC(=O)NCC(=O)OC)O)O)C)CC(C4(C3(CCC4C(CCC(C(C)(C)O)O)CO)C)C)O)C

> <PUBCHEM_OPENEYE_ISO_SMILES>
C[C@@]12CC[C@@H]([C@]1([C@H](CC3=C2CCC4[C@@]3(C[C@H]([C@@H](C4(C)C)OC(=O)CC(C)(CC(=O)NCC(=O)OC)O)O)C)O)C)C(CC[C@H](C(C)(C)O)O)CO

> <PUBCHEM_CACTVS_TPSA>
203

> <PUBCHEM_MONOISOTOPIC_WEIGHT>
723.455762

> <PUBCHEM_TOTAL_CHARGE>
0

> <PUBCHEM_HEAVY_ATOM_COUNT>
51

> <PUBCHEM_ATOM_DEF_STEREO_COUNT>
8

> <PUBCHEM_ATOM_UDEF_STEREO_COUNT>
3

> <PUBCHEM_BOND_DEF_STEREO_COUNT>
0

> <PUBCHEM_BOND_UDEF_STEREO_COUNT>
0

> <PUBCHEM_ISOTOPIC_ATOM_COUNT>
0

> <PUBCHEM_COMPONENT_COUNT>
1

> <PUBCHEM_CACTVS_TAUTO_COUNT>
2

> <PUBCHEM_COORDINATE_TYPE>
1
5
255

> <PUBCHEM_BONDANNOTATIONS>
20  1  6
13  29  5
14  30  6
15  27  5
16  33  5
18  24  3
31  2  5
27  34  3
32  3  6
39  5  6
45  8  3

$$$$

