   Color/Form
        Colorless oil; tan liquid /technical grade/
   from [1]HSDB

   Odor

     * Phosphorus odor
     * Mercaptan-like odor

   from [2]HSDB

   Boiling Point
        155-158 deg C at 0.1 mm Hg
   from [3]HSDB

   Melting Point
        -15 deg C /technical grade/
   from [4]HSDB

   Density/Specific Gravity
        1.20 at 20 deg C/20 deg C
   from [5]HSDB

   Octanol/Water Partition Coefficient
        log Kow = 5.48
   from [6]HSDB

   Solubilities

     * Sol in organic solvents.
     * In water, 0.31 mg/l at 20 deg C

   from [7]HSDB

   Spectral Properties
        Index of refraction = 1.5859 at deg 20 C/D
   from [8]HSDB

   Vapor Pressure
        0.084 mPa (6.3X10-7 mm Hg) at 20 deg C; 0.16 mPa (1.2X10-6 mm Hg)
   at 25 deg C
   from [9]HSDB

   Other Chemical/Physical Properties

     * Henry's Law constant = 8.6X10-7 atm-cu m/mol @ 25 deg C /Estimated/
     * Hydroxyl radical reaction rate constant = 1.1X10-10 cu
       cm/molecule-sec @ 25 deg C /Estimated/

   from [10]HSDB

   Computed Properties
   Molecular Weight                  322.446822 [g/mol]
   Molecular Formula                 C[12]H[19]O[2]PS[3]
   XLogP3                            4.9
   H-Bond Donor                      0
   H-Bond Acceptor                   5
   Rotatable Bond Count              8
   Exact Mass                        322.028479
   MonoIsotopic Mass                 322.028479
   Topological Polar Surface Area    101
   Heavy Atom Count                  18
   Formal Charge                     0
   Complexity                        268
   Isotope Atom Count                0
   Defined Atom Stereocenter Count   0
   Undefined Atom Stereocenter Count 1
   Defined Bond Stereocenter Count   0
   Undefined Bond Stereocenter Count 0
   Covalently-Bonded Unit Count      1
   Feature 3D Hydrophobe Count       2
   Feature 3D Ring Count             1
   Effective Rotor Count             8
   Conformer Sampling RMSD           0.8
   CID Conformer Count               [11]245

References

   1. http://toxnet.nlm.nih.gov/cgi-bin/sis/search/r?dbs+hsdb:@term+@rn+@rel+35400-43-2
   2. http://toxnet.nlm.nih.gov/cgi-bin/sis/search/r?dbs+hsdb:@term+@rn+@rel+35400-43-2
   3. http://toxnet.nlm.nih.gov/cgi-bin/sis/search/r?dbs+hsdb:@term+@rn+@rel+35400-43-2
   4. http://toxnet.nlm.nih.gov/cgi-bin/sis/search/r?dbs+hsdb:@term+@rn+@rel+35400-43-2
   5. http://toxnet.nlm.nih.gov/cgi-bin/sis/search/r?dbs+hsdb:@term+@rn+@rel+35400-43-2
   6. http://toxnet.nlm.nih.gov/cgi-bin/sis/search/r?dbs+hsdb:@term+@rn+@rel+35400-43-2
   7. http://toxnet.nlm.nih.gov/cgi-bin/sis/search/r?dbs+hsdb:@term+@rn+@rel+35400-43-2
   8. http://toxnet.nlm.nih.gov/cgi-bin/sis/search/r?dbs+hsdb:@term+@rn+@rel+35400-43-2
   9. http://toxnet.nlm.nih.gov/cgi-bin/sis/search/r?dbs+hsdb:@term+@rn+@rel+35400-43-2
  10. http://toxnet.nlm.nih.gov/cgi-bin/sis/search/r?dbs+hsdb:@term+@rn+@rel+35400-43-2
  11. http://pubchem.ncbi.nlm.nih.gov/vw3d/vw3d.cgi?cid=37125
