   Color/Form

     * Colorless solid
     * Tan solid
     * Crystals from hexane + ethyl acetate

   from [1]HSDB

   Odor
        Slightly pungent
   from [2]HSDB

   Melting Point
        219-222 deg C (decomposition)
   from [3]HSDB

   Solubilities

     * Slightly soluble in some organic solvents.
     * Sol in water @ 25 deg C: 60-120 ppm

   from [4]HSDB

   Vapor Pressure
        <0.013 mPa @ 60 deg C
   from [5]HSDB

   Other Chemical/Physical Properties

     * Odorless white solid /Technical imazaquin/
     * Sol in water /Imazaquin ammonium salt/

   from [6]HSDB

   Computed Properties
   Molecular Weight                  311.33518 [g/mol]
   Molecular Formula                 C[17]H[17]N[3]O[3]
   XLogP3-AA                         2.5
   H-Bond Donor                      2
   H-Bond Acceptor                   5
   Rotatable Bond Count              3
   Tautomer Count                    3
   Exact Mass                        311.126991
   MonoIsotopic Mass                 311.126991
   Topological Polar Surface Area    91.6
   Heavy Atom Count                  23
   Formal Charge                     0
   Complexity                        545
   Isotope Atom Count                0
   Defined Atom Stereocenter Count   0
   Undefined Atom Stereocenter Count 1
   Defined Bond Stereocenter Count   0
   Undefined Bond Stereocenter Count 0
   Covalently-Bonded Unit Count      1
   Feature 3D Acceptor Count         4
   Feature 3D Donor Count            1
   Feature 3D Anion Count            1
   Feature 3D Hydrophobe Count       1
   Feature 3D Ring Count             3
   Effective Rotor Count             3.4
   Conformer Sampling RMSD           0.6
   CID Conformer Count               [7]20

References

   1. http://toxnet.nlm.nih.gov/cgi-bin/sis/search/r?dbs+hsdb:@term+@rn+@rel+81335-37-7
   2. http://toxnet.nlm.nih.gov/cgi-bin/sis/search/r?dbs+hsdb:@term+@rn+@rel+81335-37-7
   3. http://toxnet.nlm.nih.gov/cgi-bin/sis/search/r?dbs+hsdb:@term+@rn+@rel+81335-37-7
   4. http://toxnet.nlm.nih.gov/cgi-bin/sis/search/r?dbs+hsdb:@term+@rn+@rel+81335-37-7
   5. http://toxnet.nlm.nih.gov/cgi-bin/sis/search/r?dbs+hsdb:@term+@rn+@rel+81335-37-7
   6. http://toxnet.nlm.nih.gov/cgi-bin/sis/search/r?dbs+hsdb:@term+@rn+@rel+81335-37-7
   7. http://pubchem.ncbi.nlm.nih.gov/vw3d/vw3d.cgi?cid=54739
