   Color/Form

     * Orthorhombic plates from water
     * White plates from water
     * Colorless crystals
     * White or reddish yellow crystals

   from [1]HSDB

   Boiling Point
        284 deg C @ 760 mm Hg, decomp
   from [2]HSDB

   Melting Point
        189.6-190.2 deg C
   from [3]HSDB

   Dissociation Constants

     * pK1= 5.48 @ 25 deg C
     * pK2= 10.46

   from [4]HSDB

   Octanol/Water Partition Coefficient
        log Kow= 0.04 @ pH 7.4
   from [5]HSDB

   Solubilities

     * Solubility in water: 0.65% @ 24 deg C; in ethyl methyl ketone: 9.3%
       @ 58.5 deg C; in abs ethanol: 4.5% @ 0 deg C; practically insol in
       benzene and chloroform
     * SOL IN ALKALIES
     * Insoluble in benzene, chloroform; slightly soluble in toluene,
       diethyl ether, ethanol, cold water; soluble in acetonitrile, ethyl
       acetate, acetone, hot water; very soluble in dimethylsulfoxide.
     * In water, 6,000 mg/l @ 25 deg C

   from [6]HSDB

   Spectral Properties

     * MAX ABSORPTION (WATER): 229 NM (LOG E= 3.78); 294 NM (LOG E= 3.30)
     * SADTLER REFERENCE NUMBER: 158 (IR, GRATING)
     * IR: 712 (Sadtler Research Laboratories Prism Collection)
     * UV: 236 (Sadtler Research Laboratories Spectral Collection)
     * NMR: 717 (Sadtler Research Laboratories Spectral Collection)
     * MASS: 46 (Aldermaston, Eight Peak Index of Mass Spectra, UK)
     * Intense mass spectral peaks: 52 m/z, 80 m/z, 109 m/z

   from [7]HSDB

   Vapor Pressure
        4.0X10-5 mm Hg @ 25 deg C
   from [8]HSDB

   Other Chemical/Physical Properties

     * Sublimed @ 0.3 mm Hg and 110 deg C without decomp; forms salts with
       acids and bases
     * Commercial product usually pink
     * MP of commercial product 186 deg C
     * Heat of formation= -190.6 kJ/mol
     * 4-Aminophenol crystals exist in two forms. The alpha form (from
       alcohol, water, or ethyl acetate) is the more stable and has an
       orthorhombic pyramidal structure, density 1.290 g/cu cm
       /alpha-4-aminophenol/
     * 4-Aminophenol crystals exist in two forms. The less stable beta
       form (from acetone) exists as acicular crystals that turn into the
       alpha form on standing; they are orthorhombic bipyramidal or
       pyramidal /beta-4-aminophenol/

   from [9]HSDB

   Computed Properties
   Molecular Weight                  109.12588 [g/mol]
   Molecular Formula                 C[6]H[7]NO
   XLogP3                            0
   H-Bond Donor                      2
   H-Bond Acceptor                   2
   Rotatable Bond Count              0
   Tautomer Count                    4
   Exact Mass                        109.052764
   MonoIsotopic Mass                 109.052764
   Topological Polar Surface Area    46.2
   Heavy Atom Count                  8
   Formal Charge                     0
   Complexity                        66.9
   Isotope Atom Count                0
   Defined Atom Stereocenter Count   0
   Undefined Atom Stereocenter Count 0
   Defined Bond Stereocenter Count   0
   Undefined Bond Stereocenter Count 0
   Covalently-Bonded Unit Count      1
   Feature 3D Donor Count            2
   Feature 3D Cation Count           1
   Feature 3D Ring Count             1
   Effective Rotor Count             0
   Conformer Sampling RMSD           0.4
   CID Conformer Count               [10]1

References

   1. http://toxnet.nlm.nih.gov/cgi-bin/sis/search/r?dbs+hsdb:@term+@rn+@rel+123-30-8
   2. http://toxnet.nlm.nih.gov/cgi-bin/sis/search/r?dbs+hsdb:@term+@rn+@rel+123-30-8
   3. http://toxnet.nlm.nih.gov/cgi-bin/sis/search/r?dbs+hsdb:@term+@rn+@rel+123-30-8
   4. http://toxnet.nlm.nih.gov/cgi-bin/sis/search/r?dbs+hsdb:@term+@rn+@rel+123-30-8
   5. http://toxnet.nlm.nih.gov/cgi-bin/sis/search/r?dbs+hsdb:@term+@rn+@rel+123-30-8
   6. http://toxnet.nlm.nih.gov/cgi-bin/sis/search/r?dbs+hsdb:@term+@rn+@rel+123-30-8
   7. http://toxnet.nlm.nih.gov/cgi-bin/sis/search/r?dbs+hsdb:@term+@rn+@rel+123-30-8
   8. http://toxnet.nlm.nih.gov/cgi-bin/sis/search/r?dbs+hsdb:@term+@rn+@rel+123-30-8
   9. http://toxnet.nlm.nih.gov/cgi-bin/sis/search/r?dbs+hsdb:@term+@rn+@rel+123-30-8
  10. http://pubchem.ncbi.nlm.nih.gov/vw3d/vw3d.cgi?cid=403
