11307
  -OEChem-06261205312D

 45 47  0     0  0  0  0  0  0999 V2000
    5.0966    0.6196    0.0000 S   0  0  0  0  0  0  0  0  0  0  0  0
    4.6000   -0.2484    0.0000 P   0  0  0  0  0  0  0  0  0  0  0  0
    8.9981   -0.7209    0.0000 O   0  0  0  0  0  0  0  0  0  0  0  0
   10.7301   -0.7209    0.0000 O   0  0  0  0  0  0  0  0  0  0  0  0
    5.4679   -0.7450    0.0000 O   0  0  0  0  0  0  0  0  0  0  0  0
    3.7320    0.2483    0.0000 O   0  0  0  0  0  0  0  0  0  0  0  0
    4.1033   -1.1163    0.0000 O   0  0  0  0  0  0  0  0  0  0  0  0
    8.9820    2.3206    0.0000 C   0  0  0  0  0  0  0  0  0  0  0  0
    9.8800    2.8484    0.0000 C   0  0  0  0  0  0  0  0  0  0  0  0
   10.7821    2.3276    0.0000 C   0  0  0  0  0  0  0  0  0  0  0  0
    8.9981    1.2791    0.0000 C   0  0  0  0  0  0  0  0  0  0  0  0
   10.7741    1.2860    0.0000 C   0  0  0  0  0  0  0  0  0  0  0  0
    9.8641    0.7791    0.0000 C   0  0  0  0  0  0  0  0  0  0  0  0
    8.1320    0.7791    0.0000 C   0  0  0  0  0  0  0  0  0  0  0  0
    8.1320   -0.2209    0.0000 C   0  0  0  0  0  0  0  0  0  0  0  0
    9.8641   -0.2209    0.0000 C   0  0  0  0  0  0  0  0  0  0  0  0
    7.2381    1.3138    0.0000 C   0  0  0  0  0  0  0  0  0  0  0  0
    7.2381   -0.7556    0.0000 C   0  0  0  0  0  0  0  0  0  0  0  0
    6.3320   -0.2417    0.0000 C   0  0  0  0  0  0  0  0  0  0  0  0
    6.3320    0.7999    0.0000 C   0  0  0  0  0  0  0  0  0  0  0  0
    2.8680   -0.2551    0.0000 C   0  0  0  0  0  0  0  0  0  0  0  0
    4.6067   -1.9804    0.0000 C   0  0  0  0  0  0  0  0  0  0  0  0
    4.1100   -2.8484    0.0000 C   0  0  0  0  0  0  0  0  0  0  0  0
    2.0000    0.2416    0.0000 C   0  0  0  0  0  0  0  0  0  0  0  0
    8.7640    2.9010    0.0000 H   0  0  0  0  0  0  0  0  0  0  0  0
    8.3728    2.2051    0.0000 H   0  0  0  0  0  0  0  0  0  0  0  0
   10.2773    3.3243    0.0000 H   0  0  0  0  0  0  0  0  0  0  0  0
    9.4791    3.3213    0.0000 H   0  0  0  0  0  0  0  0  0  0  0  0
   11.3921    2.2168    0.0000 H   0  0  0  0  0  0  0  0  0  0  0  0
   10.9957    2.9096    0.0000 H   0  0  0  0  0  0  0  0  0  0  0  0
   10.9786    0.7007    0.0000 H   0  0  0  0  0  0  0  0  0  0  0  0
   11.3857    1.3873    0.0000 H   0  0  0  0  0  0  0  0  0  0  0  0
    7.2453    1.9337    0.0000 H   0  0  0  0  0  0  0  0  0  0  0  0
    7.2453   -1.3755    0.0000 H   0  0  0  0  0  0  0  0  0  0  0  0
    5.7963    1.1120    0.0000 H   0  0  0  0  0  0  0  0  0  0  0  0
    2.4712   -0.7315    0.0000 H   0  0  0  0  0  0  0  0  0  0  0  0
    3.2683   -0.7285    0.0000 H   0  0  0  0  0  0  0  0  0  0  0  0
    5.0831   -2.3771    0.0000 H   0  0  0  0  0  0  0  0  0  0  0  0
    5.0801   -1.5801    0.0000 H   0  0  0  0  0  0  0  0  0  0  0  0
    3.5719   -2.5404    0.0000 H   0  0  0  0  0  0  0  0  0  0  0  0
    3.8021   -3.3865    0.0000 H   0  0  0  0  0  0  0  0  0  0  0  0
    4.6481   -3.1563    0.0000 H   0  0  0  0  0  0  0  0  0  0  0  0
    2.3079    0.7797    0.0000 H   0  0  0  0  0  0  0  0  0  0  0  0
    1.4619    0.5495    0.0000 H   0  0  0  0  0  0  0  0  0  0  0  0
    1.6921   -0.2965    0.0000 H   0  0  0  0  0  0  0  0  0  0  0  0
  1  2  2  0  0  0  0
  2  5  1  0  0  0  0
  2  6  1  0  0  0  0
  2  7  1  0  0  0  0
  3 15  1  0  0  0  0
  3 16  1  0  0  0  0
  4 16  2  0  0  0  0
  5 19  1  0  0  0  0
  6 21  1  0  0  0  0
  7 22  1  0  0  0  0
  8  9  1  0  0  0  0
  8 11  1  0  0  0  0
  8 25  1  0  0  0  0
  8 26  1  0  0  0  0
  9 10  1  0  0  0  0
  9 27  1  0  0  0  0
  9 28  1  0  0  0  0
 10 12  1  0  0  0  0
 10 29  1  0  0  0  0
 10 30  1  0  0  0  0
 11 13  2  0  0  0  0
 11 14  1  0  0  0  0
 12 13  1  0  0  0  0
 12 31  1  0  0  0  0
 12 32  1  0  0  0  0
 13 16  1  0  0  0  0
 14 15  2  0  0  0  0
 14 17  1  0  0  0  0
 15 18  1  0  0  0  0
 17 20  2  0  0  0  0
 17 33  1  0  0  0  0
 18 19  2  0  0  0  0
 18 34  1  0  0  0  0
 19 20  1  0  0  0  0
 20 35  1  0  0  0  0
 21 24  1  0  0  0  0
 21 36  1  0  0  0  0
 21 37  1  0  0  0  0
 22 23  1  0  0  0  0
 22 38  1  0  0  0  0
 22 39  1  0  0  0  0
 23 40  1  0  0  0  0
 23 41  1  0  0  0  0
 23 42  1  0  0  0  0
 24 43  1  0  0  0  0
 24 44  1  0  0  0  0
 24 45  1  0  0  0  0
M  END
> <PUBCHEM_COMPOUND_CID>
11307

> <PUBCHEM_COMPOUND_CANONICALIZED>
1

> <PUBCHEM_CACTVS_COMPLEXITY>
551

> <PUBCHEM_CACTVS_HBOND_ACCEPTOR>
6

> <PUBCHEM_CACTVS_HBOND_DONOR>
0

> <PUBCHEM_CACTVS_ROTATABLE_BOND>
6

> <PUBCHEM_CACTVS_SUBSKEYS>
AAADceB4OAJAAAAAAAAAAAAAAAAAAAAAAAAwQIAAAAAAAACRAAAAGgAAACAADASgmAIyDoAABRCIAiDSCAACCAAgIAAIiAEGCMgMJzKEMRqCOiClwBUIqQeI6OyOIAAACAAIAABAAAAQABAAAAAAAAAAAA==

> <PUBCHEM_IUPAC_OPENEYE_NAME>
3-diethoxyphosphinothioyloxy-7,8,9,10-tetrahydrobenzo[c]chromen-6-one

> <PUBCHEM_IUPAC_CAS_NAME>
3-diethoxyphosphinothioyloxy-7,8,9,10-tetrahydrobenzo[c][1]benzopyran-6-one

> <PUBCHEM_IUPAC_NAME>
3-diethoxyphosphinothioyloxy-7,8,9,10-tetrahydrobenzo[c]chromen-6-one

> <PUBCHEM_IUPAC_SYSTEMATIC_NAME>
3-diethoxyphosphinothioyloxy-7,8,9,10-tetrahydrobenzo[c]chromen-6-one

> <PUBCHEM_IUPAC_TRADITIONAL_NAME>
3-diethoxythiophosphoryloxy-7,8,9,10-tetrahydrobenzo[c]chromen-6-one

> <PUBCHEM_IUPAC_INCHI>
InChI=1S/C17H21O5PS/c1-3-19-23(24,20-4-2)22-12-9-10-14-13-7-5-6-8-15(13)17(18)21-16(14)11-12/h9-11H,3-8H2,1-2H3

> <PUBCHEM_IUPAC_INCHIKEY>
NSMRHYDOKZAMKJ-UHFFFAOYSA-N

> <PUBCHEM_XLOGP3_AA>
4.7

> <PUBCHEM_EXACT_MASS>
368.084731

> <PUBCHEM_MOLECULAR_FORMULA>
C17H21O5PS

> <PUBCHEM_MOLECULAR_WEIGHT>
368.384402

> <PUBCHEM_OPENEYE_CAN_SMILES>
CCOP(=S)(OCC)OC1=CC2=C(C=C1)C3=C(CCCC3)C(=O)O2

> <PUBCHEM_OPENEYE_ISO_SMILES>
CCOP(=S)(OCC)OC1=CC2=C(C=C1)C3=C(CCCC3)C(=O)O2

> <PUBCHEM_CACTVS_TPSA>
86.1

> <PUBCHEM_MONOISOTOPIC_WEIGHT>
368.084731

> <PUBCHEM_TOTAL_CHARGE>
0

> <PUBCHEM_HEAVY_ATOM_COUNT>
24

> <PUBCHEM_ATOM_DEF_STEREO_COUNT>
0

> <PUBCHEM_ATOM_UDEF_STEREO_COUNT>
0

> <PUBCHEM_BOND_DEF_STEREO_COUNT>
0

> <PUBCHEM_BOND_UDEF_STEREO_COUNT>
0

> <PUBCHEM_ISOTOPIC_ATOM_COUNT>
0

> <PUBCHEM_COMPONENT_COUNT>
1

> <PUBCHEM_CACTVS_TAUTO_COUNT>
1

> <PUBCHEM_COORDINATE_TYPE>
1
5
255

> <PUBCHEM_BONDANNOTATIONS>
11  13  8
11  14  8
13  16  8
14  15  8
14  17  8
15  18  8
17  20  8
18  19  8
19  20  8
3  15  8
3  16  8

$$$$

