17396284
  -OEChem-06241222552D

 34 36  0     0  0  0  0  0  0999 V2000
    4.6783    2.5393    0.0000 S   0  0  0  0  0  0  0  0  0  0  0  0
    8.8564   -3.4909    0.0000 F   0  0  0  0  0  0  0  0  0  0  0  0
    5.4883    3.1257    0.0000 O   0  0  0  0  0  0  0  0  0  0  0  0
    4.3709    3.4909    0.0000 O   0  0  0  0  0  0  0  0  0  0  0  0
    4.9889   -0.0207    0.0000 N   0  0  0  0  0  0  0  0  0  0  0  0
    5.2619    1.7346    0.0000 N   0  0  0  0  0  0  0  0  0  0  0  0
    3.7320    1.2346    0.0000 C   0  0  0  0  0  0  0  0  0  0  0  0
    3.7320    2.2346    0.0000 C   0  0  0  0  0  0  0  0  0  0  0  0
    4.6783    0.9298    0.0000 C   0  0  0  0  0  0  0  0  0  0  0  0
    5.9674   -0.2269    0.0000 C   0  0  0  0  0  0  0  0  0  0  0  0
    6.2781   -1.1774    0.0000 C   0  0  0  0  0  0  0  0  0  0  0  0
    2.8660    0.7346    0.0000 C   0  0  0  0  0  0  0  0  0  0  0  0
    7.2566   -1.3836    0.0000 C   0  0  0  0  0  0  0  0  0  0  0  0
    2.8660    2.7346    0.0000 C   0  0  0  0  0  0  0  0  0  0  0  0
    2.0000    1.2346    0.0000 C   0  0  0  0  0  0  0  0  0  0  0  0
    2.0000    2.2346    0.0000 C   0  0  0  0  0  0  0  0  0  0  0  0
    7.5673   -2.3342    0.0000 C   0  0  0  0  0  0  0  0  0  0  0  0
    7.9244   -0.6393    0.0000 C   0  0  0  0  0  0  0  0  0  0  0  0
    8.5458   -2.5404    0.0000 C   0  0  0  0  0  0  0  0  0  0  0  0
    8.9030   -0.8456    0.0000 C   0  0  0  0  0  0  0  0  0  0  0  0
    9.2136   -1.7961    0.0000 C   0  0  0  0  0  0  0  0  0  0  0  0
    6.5812   -0.1395    0.0000 H   0  0  0  0  0  0  0  0  0  0  0  0
    5.9880    0.3928    0.0000 H   0  0  0  0  0  0  0  0  0  0  0  0
    5.6643   -1.2648    0.0000 H   0  0  0  0  0  0  0  0  0  0  0  0
    6.2575   -1.7971    0.0000 H   0  0  0  0  0  0  0  0  0  0  0  0
    4.5749   -0.4821    0.0000 H   0  0  0  0  0  0  0  0  0  0  0  0
    2.8660    0.1146    0.0000 H   0  0  0  0  0  0  0  0  0  0  0  0
    2.8660    3.3546    0.0000 H   0  0  0  0  0  0  0  0  0  0  0  0
    1.4631    0.9246    0.0000 H   0  0  0  0  0  0  0  0  0  0  0  0
    1.4631    2.5446    0.0000 H   0  0  0  0  0  0  0  0  0  0  0  0
    7.1532   -2.7956    0.0000 H   0  0  0  0  0  0  0  0  0  0  0  0
    7.7318   -0.0500    0.0000 H   0  0  0  0  0  0  0  0  0  0  0  0
    9.3170   -0.3841    0.0000 H   0  0  0  0  0  0  0  0  0  0  0  0
    9.8203   -1.9239    0.0000 H   0  0  0  0  0  0  0  0  0  0  0  0
  1  3  2  0  0  0  0
  1  4  2  0  0  0  0
  1  6  1  0  0  0  0
  1  8  1  0  0  0  0
  2 19  1  0  0  0  0
  5  9  1  0  0  0  0
  5 10  1  0  0  0  0
  5 26  1  0  0  0  0
  6  9  2  0  0  0  0
  7  8  1  0  0  0  0
  7  9  1  0  0  0  0
  7 12  2  0  0  0  0
  8 14  2  0  0  0  0
 10 11  1  0  0  0  0
 10 22  1  0  0  0  0
 10 23  1  0  0  0  0
 11 13  1  0  0  0  0
 11 24  1  0  0  0  0
 11 25  1  0  0  0  0
 12 15  1  0  0  0  0
 12 27  1  0  0  0  0
 13 17  2  0  0  0  0
 13 18  1  0  0  0  0
 14 16  1  0  0  0  0
 14 28  1  0  0  0  0
 15 16  2  0  0  0  0
 15 29  1  0  0  0  0
 16 30  1  0  0  0  0
 17 19  1  0  0  0  0
 17 31  1  0  0  0  0
 18 20  2  0  0  0  0
 18 32  1  0  0  0  0
 19 21  2  0  0  0  0
 20 21  1  0  0  0  0
 20 33  1  0  0  0  0
 21 34  1  0  0  0  0
M  END
> <PUBCHEM_COMPOUND_CID>
17396284

> <PUBCHEM_COMPOUND_CANONICALIZED>
1

> <PUBCHEM_CACTVS_COMPLEXITY>
500

> <PUBCHEM_CACTVS_HBOND_ACCEPTOR>
4

> <PUBCHEM_CACTVS_HBOND_DONOR>
1

> <PUBCHEM_CACTVS_ROTATABLE_BOND>
4

> <PUBCHEM_CACTVS_SUBSKEYS>
AAADccBzMQBAAAAAAAAAAAAAAAAAAQAAAAAwYAAAAAAAAEABQAAAHQQQQAAADADBWAwxAYLAAAKgAiJiIHDCABAgAAAJiJgoBJgIIKKAmRGEIAhgkACIiAcQgIAOAAAAAAAEAAAAAAAAAAgAAAAAAAAAAA==

> <PUBCHEM_IUPAC_OPENEYE_NAME>
N-[2-(3-fluorophenyl)ethyl]-1,1-dioxo-1,2-benzothiazol-3-amine

> <PUBCHEM_IUPAC_CAS_NAME>
N-[2-(3-fluorophenyl)ethyl]-1,1-dioxo-1,2-benzothiazol-3-amine

> <PUBCHEM_IUPAC_NAME>
N-[2-(3-fluorophenyl)ethyl]-1,1-dioxo-1,2-benzothiazol-3-amine

> <PUBCHEM_IUPAC_SYSTEMATIC_NAME>
N-[2-(3-fluorophenyl)ethyl]-1,1-bis(oxidanylidene)-1,2-benzothiazol-3-amine

> <PUBCHEM_IUPAC_TRADITIONAL_NAME>
(1,1-diketo-1,2-benzothiazol-3-yl)-[2-(3-fluorophenyl)ethyl]amine

> <PUBCHEM_IUPAC_INCHI>
InChI=1S/C15H13FN2O2S/c16-12-5-3-4-11(10-12)8-9-17-15-13-6-1-2-7-14(13)21(19,20)18-15/h1-7,10H,8-9H2,(H,17,18)

> <PUBCHEM_IUPAC_INCHIKEY>
VOKKKJOLHVQLBV-UHFFFAOYSA-N

> <PUBCHEM_XLOGP3_AA>
2.5

> <PUBCHEM_EXACT_MASS>
304.068177

> <PUBCHEM_MOLECULAR_FORMULA>
C15H13FN2O2S

> <PUBCHEM_MOLECULAR_WEIGHT>
304.339323

> <PUBCHEM_OPENEYE_CAN_SMILES>
C1=CC=C2C(=C1)C(=NS2(=O)=O)NCCC3=CC(=CC=C3)F

> <PUBCHEM_OPENEYE_ISO_SMILES>
C1=CC=C2C(=C1)C(=NS2(=O)=O)NCCC3=CC(=CC=C3)F

> <PUBCHEM_CACTVS_TPSA>
66.9

> <PUBCHEM_MONOISOTOPIC_WEIGHT>
304.068177

> <PUBCHEM_TOTAL_CHARGE>
0

> <PUBCHEM_HEAVY_ATOM_COUNT>
21

> <PUBCHEM_ATOM_DEF_STEREO_COUNT>
0

> <PUBCHEM_ATOM_UDEF_STEREO_COUNT>
0

> <PUBCHEM_BOND_DEF_STEREO_COUNT>
0

> <PUBCHEM_BOND_UDEF_STEREO_COUNT>
0

> <PUBCHEM_ISOTOPIC_ATOM_COUNT>
0

> <PUBCHEM_COMPONENT_COUNT>
1

> <PUBCHEM_CACTVS_TAUTO_COUNT>
2

> <PUBCHEM_COORDINATE_TYPE>
1
5
255

> <PUBCHEM_BONDANNOTATIONS>
12  15  8
13  17  8
13  18  8
14  16  8
15  16  8
17  19  8
18  20  8
19  21  8
20  21  8
7  12  8
7  8  8
8  14  8

$$$$

