   Color/Form
        Colorless liquid
   from [1]HSDB

   Boiling Point
        274.5 deg C
   from [2]HSDB

   Melting Point
        -29.0 deg C
   from [3]HSDB

   Corrosivity
        NON-CORROSIVE
   from [4]HSDB

   Density/Specific Gravity
        0.9768 @ 20 deg C/4 deg C
   from [5]HSDB

   Solubilities

     * MISCIBLE WITH MOST ORG SOLVENTS INCLUDING PETROLEUM OILS
     * Soluble in ethanol, ethyl ether, and benzene.
     * In water, 2.30X10+2 mg/l, temperature not specified.

   from [6]HSDB

   Spectral Properties

     * Index of refraction: 1.4299 @ 20 deg C/D
     * Intense mass spectral peaks: 101 m/z (100%), 157 m/z (29%), 56 m/z
       (12%), 57 m/z (10%)
     * IR: u SADP 3218 (Sadtler Research Laboratories Prism Collection)
     * 1H NMR: SAD 6738 (Sadtler Research Laboratories Spectral
       Collection)
     * MS: NIST 24887 (NIST/EPA/MCDC Mass Spectral Database 1990 version)

   from [7]HSDB

   Other Chemical/Physical Properties
        W/V conversion factor: 8.26 mg/cu m
   from [8]HSDB

   Computed Properties
   Molecular Weight                  230.30068 [g/mol]
   Molecular Formula                 C[12]H[22]O[4]
   XLogP3                            2.9
   H-Bond Donor                      0
   H-Bond Acceptor                   4
   Rotatable Bond Count              11
   Exact Mass                        230.151809
   MonoIsotopic Mass                 230.151809
   Topological Polar Surface Area    52.6
   Heavy Atom Count                  16
   Formal Charge                     0
   Complexity                        179
   Isotope Atom Count                0
   Defined Atom Stereocenter Count   0
   Undefined Atom Stereocenter Count 0
   Defined Bond Stereocenter Count   0
   Undefined Bond Stereocenter Count 0
   Covalently-Bonded Unit Count      1
   Feature 3D Acceptor Count         2
   Feature 3D Hydrophobe Count       2
   Effective Rotor Count             11
   Conformer Sampling RMSD           1
   CID Conformer Count               [9]103

References

   1. http://toxnet.nlm.nih.gov/cgi-bin/sis/search/r?dbs+hsdb:@term+@rn+@rel+141-03-7
   2. http://toxnet.nlm.nih.gov/cgi-bin/sis/search/r?dbs+hsdb:@term+@rn+@rel+141-03-7
   3. http://toxnet.nlm.nih.gov/cgi-bin/sis/search/r?dbs+hsdb:@term+@rn+@rel+141-03-7
   4. http://toxnet.nlm.nih.gov/cgi-bin/sis/search/r?dbs+hsdb:@term+@rn+@rel+141-03-7
   5. http://toxnet.nlm.nih.gov/cgi-bin/sis/search/r?dbs+hsdb:@term+@rn+@rel+141-03-7
   6. http://toxnet.nlm.nih.gov/cgi-bin/sis/search/r?dbs+hsdb:@term+@rn+@rel+141-03-7
   7. http://toxnet.nlm.nih.gov/cgi-bin/sis/search/r?dbs+hsdb:@term+@rn+@rel+141-03-7
   8. http://toxnet.nlm.nih.gov/cgi-bin/sis/search/r?dbs+hsdb:@term+@rn+@rel+141-03-7
   9. http://pubchem.ncbi.nlm.nih.gov/vw3d/vw3d.cgi?cid=8830
