   Color/Form
        Colorless to pale-yellow liquid.
   from [1]HSDB

   Odor
        Odorless
   from [2]HSDB

   Boiling Point
        289 deg C
   from [3]HSDB

   Melting Point
        Less than -80 deg C
   from [4]HSDB

   Density/Specific Gravity
        0.9727 at 25 deg C
   from [5]HSDB

   Heat of Combustion
        -1905.7 kcal/mol at 25 deg C
   from [6]HSDB

   Heat of Vaporization
        55.1 cal/g at 289 deg C
   from [7]HSDB

   Octanol/Water Partition Coefficient
        log Kow = 4.00
   from [8]HSDB

   Solubilities

     * Soluble in diethyl ether, benzene, carbon disulfide; miscible with
       ethanol
     * Miscible with most solvents and diluents
     * In water, 280 mg/L at 25 deg C

   from [9]HSDB

   Spectral Properties

     * SADTLER REFERENCE NUMBER: 138 (IR, PRISM)
     * Index of refraction = 1.4224 at 25 deg C
     * Intense mass spectral peaks: 99 m/z (100%), 155 m/z (32%), 211 m/z
       (30%), 57 m/z (15%)
     * IR: 1548 (Coblentz Society Spectral Collection)
     * NMR: 6338 (Sadtler Research Laboratories Spectral Collection)
     * MASS: 65137 (NIST/EPA/MSDC Mass Spectral Database 1990 version);
       1217 (Atlas of Mass Spectral Data, John Wiley & Sons, New York)

   from [10]HSDB

   Surface Tension
        27.55 dyne/cm at 20 deg C
   from [11]HSDB

   Vapor Density
        9.20 (Air = 1)
   from [12]HSDB

   Vapor Pressure
        1.13X10-3 mm Hg at 25 deg C
   from [13]HSDB

   Viscosity
        38.6 sec at 29.4 deg C (Saybolt viscosity)
   from [14]HSDB

   Other Chemical/Physical Properties

     * Dielectric constant = 8.34
     * Heat capacity = 379.4 J/mol-K
     * Bulk Density: 8.19 lb/gal
     * Viscosity: 3.39 cP at 25 deg C. Dielectric constant: 8.91 at 25 deg
       C. Standard heat of formation: -348.6 kcal/mole. Heat of
       Vaporization: 14.680 kcal/mol
     * Henry's Law constant = 1.4X10-6 atm-cu m/mol at 25 deg C (est)
     * Hydroxyl radical reaction rate constant = 7.9X10-11 cu cm/molec-sec
       at 25 deg C (est)

   from [15]HSDB

   Computed Properties
   Molecular Weight                  266.314142 [g/mol]
   Molecular Formula                 C[12]H[27]O[4]P
   XLogP3                            2.9
   H-Bond Donor                      0
   H-Bond Acceptor                   4
   Rotatable Bond Count              12
   Exact Mass                        266.164696
   MonoIsotopic Mass                 266.164696
   Topological Polar Surface Area    44.8
   Heavy Atom Count                  17
   Formal Charge                     0
   Complexity                        175
   Isotope Atom Count                0
   Defined Atom Stereocenter Count   0
   Undefined Atom Stereocenter Count 0
   Defined Bond Stereocenter Count   0
   Undefined Bond Stereocenter Count 0
   Covalently-Bonded Unit Count      1
   Feature 3D Acceptor Count         1
   Feature 3D Hydrophobe Count       3
   Effective Rotor Count             12
   Conformer Sampling RMSD           1
   CID Conformer Count               [16]187

References

   1. http://toxnet.nlm.nih.gov/cgi-bin/sis/search/r?dbs+hsdb:@term+@rn+@rel+126-73-8
   2. http://toxnet.nlm.nih.gov/cgi-bin/sis/search/r?dbs+hsdb:@term+@rn+@rel+126-73-8
   3. http://toxnet.nlm.nih.gov/cgi-bin/sis/search/r?dbs+hsdb:@term+@rn+@rel+126-73-8
   4. http://toxnet.nlm.nih.gov/cgi-bin/sis/search/r?dbs+hsdb:@term+@rn+@rel+126-73-8
   5. http://toxnet.nlm.nih.gov/cgi-bin/sis/search/r?dbs+hsdb:@term+@rn+@rel+126-73-8
   6. http://toxnet.nlm.nih.gov/cgi-bin/sis/search/r?dbs+hsdb:@term+@rn+@rel+126-73-8
   7. http://toxnet.nlm.nih.gov/cgi-bin/sis/search/r?dbs+hsdb:@term+@rn+@rel+126-73-8
   8. http://toxnet.nlm.nih.gov/cgi-bin/sis/search/r?dbs+hsdb:@term+@rn+@rel+126-73-8
   9. http://toxnet.nlm.nih.gov/cgi-bin/sis/search/r?dbs+hsdb:@term+@rn+@rel+126-73-8
  10. http://toxnet.nlm.nih.gov/cgi-bin/sis/search/r?dbs+hsdb:@term+@rn+@rel+126-73-8
  11. http://toxnet.nlm.nih.gov/cgi-bin/sis/search/r?dbs+hsdb:@term+@rn+@rel+126-73-8
  12. http://toxnet.nlm.nih.gov/cgi-bin/sis/search/r?dbs+hsdb:@term+@rn+@rel+126-73-8
  13. http://toxnet.nlm.nih.gov/cgi-bin/sis/search/r?dbs+hsdb:@term+@rn+@rel+126-73-8
  14. http://toxnet.nlm.nih.gov/cgi-bin/sis/search/r?dbs+hsdb:@term+@rn+@rel+126-73-8
  15. http://toxnet.nlm.nih.gov/cgi-bin/sis/search/r?dbs+hsdb:@term+@rn+@rel+126-73-8
  16. http://pubchem.ncbi.nlm.nih.gov/vw3d/vw3d.cgi?cid=31357
