   Color/Form
        PRISMS FROM ACETONE; NEEDLES FROM DILUTED ALCOHOL OR PETROLEUM
   ETHER
   from [1]HSDB

   Boiling Point
        245 deg C AT 760 mm Hg
   from [2]HSDB

   Melting Point
        63-64 deg C
   from [3]HSDB

   Density/Specific Gravity
        1.567 @ 20 deg C
   from [4]HSDB

   Dissociation Constants
        pKa= 2.00
   from [5]HSDB

   Octanol/Water Partition Coefficient
        log Kow= 2.91
   from [6]HSDB

   Solubilities
        Slightly soluble in water, alcohol, and ether.
   from [7]HSDB

   Spectral Properties

     * IR: 5787 (Coblentz Society Spectral Collection)
     * UV: 16957 (Sadtler Research Laboratories Spectral Collection)
     * MASS: 619 (National Bureau of Standards EPA-NIH Mass Spectra Data
       Base, NSRDS-NBS-63)
     * NMR: 8851 (Sadtler Research Laboratories Spectral Collection)

   from [8]HSDB

   Computed Properties
   Molecular Weight                  162.0166 [g/mol]
   Molecular Formula                 C[6]H[5]Cl[2]N
   XLogP3                            2.9
   H-Bond Donor                      1
   H-Bond Acceptor                   1
   Rotatable Bond Count              0
   Exact Mass                        160.979905
   MonoIsotopic Mass                 160.979905
   Topological Polar Surface Area    26
   Heavy Atom Count                  9
   Formal Charge                     0
   Complexity                        97.1
   Isotope Atom Count                0
   Defined Atom Stereocenter Count   0
   Undefined Atom Stereocenter Count 0
   Defined Bond Stereocenter Count   0
   Undefined Bond Stereocenter Count 0
   Covalently-Bonded Unit Count      1
   Feature 3D Donor Count            1
   Feature 3D Cation Count           1
   Feature 3D Ring Count             1
   Effective Rotor Count             0
   Conformer Sampling RMSD           0.4
   CID Conformer Count               [9]1

References

   1. http://toxnet.nlm.nih.gov/cgi-bin/sis/search/r?dbs+hsdb:@term+@rn+@rel+554-00-7
   2. http://toxnet.nlm.nih.gov/cgi-bin/sis/search/r?dbs+hsdb:@term+@rn+@rel+554-00-7
   3. http://toxnet.nlm.nih.gov/cgi-bin/sis/search/r?dbs+hsdb:@term+@rn+@rel+554-00-7
   4. http://toxnet.nlm.nih.gov/cgi-bin/sis/search/r?dbs+hsdb:@term+@rn+@rel+554-00-7
   5. http://toxnet.nlm.nih.gov/cgi-bin/sis/search/r?dbs+hsdb:@term+@rn+@rel+554-00-7
   6. http://toxnet.nlm.nih.gov/cgi-bin/sis/search/r?dbs+hsdb:@term+@rn+@rel+554-00-7
   7. http://toxnet.nlm.nih.gov/cgi-bin/sis/search/r?dbs+hsdb:@term+@rn+@rel+554-00-7
   8. http://toxnet.nlm.nih.gov/cgi-bin/sis/search/r?dbs+hsdb:@term+@rn+@rel+554-00-7
   9. http://pubchem.ncbi.nlm.nih.gov/vw3d/vw3d.cgi?cid=11123
