   Color/Form

     * PRISMS FROM ETHER; LONG FINE NEEDLES FROM HOT WATER
     * CRYSTALS FROM ALCOHOL

   from [1]HSDB

   Melting Point
        102 DEG C
   from [2]HSDB

   Solubilities

     * PRACTICALLY INSOL IN COLD WATER; VERY SPARINGLY SOL IN BOILING
       WATER; FREELY SOL IN CHLOROFORM; SOL IN BENZENE, ALCOHOL, ETHER,
       PETROLEUM ETHER, ALKALI HYDROXIDES
     * SOL IN ACETONE, ORGANIC SOLVENTS

   from [3]HSDB

   Spectral Properties
        MAX ABSORPTION: 302 NM (LOG E= 3.95), 265 NM (LOG E= 4.00), 250 NM
   (LOG E= 4.24)
   from [4]HSDB

   Computed Properties
   Molecular Weight                  270.27996 [g/mol]
   Molecular Formula                 C[16]H[14]O[4]
   XLogP3                            3.4
   H-Bond Donor                      0
   H-Bond Acceptor                   4
   Rotatable Bond Count              3
   Exact Mass                        270.089209
   MonoIsotopic Mass                 270.089209
   Topological Polar Surface Area    48.7
   Heavy Atom Count                  20
   Formal Charge                     0
   Complexity                        436
   Isotope Atom Count                0
   Defined Atom Stereocenter Count   0
   Undefined Atom Stereocenter Count 0
   Defined Bond Stereocenter Count   0
   Undefined Bond Stereocenter Count 0
   Covalently-Bonded Unit Count      1
   Feature 3D Acceptor Count         3
   Feature 3D Hydrophobe Count       1
   Feature 3D Ring Count             3
   Effective Rotor Count             3
   Conformer Sampling RMSD           0.6
   CID Conformer Count               [5]28

References

   1. http://toxnet.nlm.nih.gov/cgi-bin/sis/search/r?dbs+hsdb:@term+@rn+@rel+482-44-0
   2. http://toxnet.nlm.nih.gov/cgi-bin/sis/search/r?dbs+hsdb:@term+@rn+@rel+482-44-0
   3. http://toxnet.nlm.nih.gov/cgi-bin/sis/search/r?dbs+hsdb:@term+@rn+@rel+482-44-0
   4. http://toxnet.nlm.nih.gov/cgi-bin/sis/search/r?dbs+hsdb:@term+@rn+@rel+482-44-0
   5. http://pubchem.ncbi.nlm.nih.gov/vw3d/vw3d.cgi?cid=10212
