   Color/Form
        Colorless liquid or solid (below 53 degrees F).
   from [1]HSDB

   Odor

     * Faint pleasant odor
     * Mild, ether-like odor.

   from [2]HSDB

   Boiling Point
        101.1 deg C at 760 mm Hg
   from [3]HSDB

   Melting Point
        11.80 deg C
   from [4]HSDB

   Critical Temperature and Pressure
        Critical temperature: 312 deg C; critical pressure: 50.7 atm
   from [5]HSDB

   Density/Specific Gravity
        1.0329 at 20 deg C/4 deg C
   from [6]HSDB

   Heat of Combustion
        581 kcal/mol
   from [7]HSDB

   Heat of Vaporization
        98.6 cal/g
   from [8]HSDB

   Octanol/Water Partition Coefficient
        log Kow= -0.27
   from [9]HSDB

   Solubilities

     * Miscible with most org solvents
     * Miscible with aromatic hydrocarbons and oils.
     * Miscible with water

   from [10]HSDB

   Spectral Properties

     * Index of refraction: 1.4175 at 20 deg C/D
     * IR: 6181 (Coblentz Society Spectral Collection)
     * NMR: 1193 (Sadtler Research Laboratories Spectral Collection)
     * MASS: 19514 (National Institute Standards and Technology)
     * Intense mass spectral peaks: 58 m/z, 88 m/z

   from [11]HSDB

   Surface Tension
        36.9 dynes/cm at 25 deg C
   from [12]HSDB

   Vapor Density
        3.03 (air = 1)
   from [13]HSDB

   Vapor Pressure
        38.1 mm Hg at 25 deg C
   from [14]HSDB

   Relative Evaporation Rate
        2.7 (butyl acetate= 1)
   from [15]HSDB

   Viscosity
        0.0120 centipoise at 25 deg C
   from [16]HSDB

   Other Chemical/Physical Properties

     * Cryoscopic constant: 4.83; heat of fusion: 2.98 kcal/mol; specific
       heat: 0.0370 kcal/mol/deg C at 20 deg C; azeotropic mixture with
       water: 81.6% dioxane, bp 87.8 deg C; azeotropic mixture with
       ethanol: 9.3% dioxane, bp 78.1 deg C
     * Hygroscopic
     * 1 mg/cu m= 0.278 ppm, 1 ppm= 3.6 mg/cu m
     * Distillation range 95-103 deg C at 760 mm Hg
     * Weight per gallon at 20 deg C= 8.61 lb
     * ... Acid catalyzed degradation of poly (2-butyl-1,3,6-trioxocane)
       has been studied. ... With 98% sulfuric acid (H2SO4) as the
       catalyst ... the major products are diethylene glycol,
       valeraldehyde, and 1,4-dioxane with some 2-butyl-1,3-dioxolane.
     * Henry's Law constant = 4.8X10-6 atm-cu m/mol at 25 deg C
     * Hydroxyl radical reaction rate constant = 1.09X10-11 cu
       cm/molec-sec at 25 deg C

   from [17]HSDB

   Computed Properties
   Molecular Weight                  88.10512 [g/mol]
   Molecular Formula                 C[4]H[8]O[2]
   XLogP3                            -0.3
   H-Bond Donor                      0
   H-Bond Acceptor                   2
   Rotatable Bond Count              0
   Exact Mass                        88.052429
   MonoIsotopic Mass                 88.052429
   Topological Polar Surface Area    18.5
   Heavy Atom Count                  6
   Formal Charge                     0
   Complexity                        26.5
   Isotope Atom Count                0
   Defined Atom Stereocenter Count   0
   Undefined Atom Stereocenter Count 0
   Defined Bond Stereocenter Count   0
   Undefined Bond Stereocenter Count 0
   Covalently-Bonded Unit Count      1
   Feature 3D Acceptor Count         2
   Feature 3D Ring Count             1
   Effective Rotor Count             1.2
   Conformer Sampling RMSD           0.4
   CID Conformer Count               [18]1

References

   1. http://toxnet.nlm.nih.gov/cgi-bin/sis/search/r?dbs+hsdb:@term+@rn+@rel+123-91-1
   2. http://toxnet.nlm.nih.gov/cgi-bin/sis/search/r?dbs+hsdb:@term+@rn+@rel+123-91-1
   3. http://toxnet.nlm.nih.gov/cgi-bin/sis/search/r?dbs+hsdb:@term+@rn+@rel+123-91-1
   4. http://toxnet.nlm.nih.gov/cgi-bin/sis/search/r?dbs+hsdb:@term+@rn+@rel+123-91-1
   5. http://toxnet.nlm.nih.gov/cgi-bin/sis/search/r?dbs+hsdb:@term+@rn+@rel+123-91-1
   6. http://toxnet.nlm.nih.gov/cgi-bin/sis/search/r?dbs+hsdb:@term+@rn+@rel+123-91-1
   7. http://toxnet.nlm.nih.gov/cgi-bin/sis/search/r?dbs+hsdb:@term+@rn+@rel+123-91-1
   8. http://toxnet.nlm.nih.gov/cgi-bin/sis/search/r?dbs+hsdb:@term+@rn+@rel+123-91-1
   9. http://toxnet.nlm.nih.gov/cgi-bin/sis/search/r?dbs+hsdb:@term+@rn+@rel+123-91-1
  10. http://toxnet.nlm.nih.gov/cgi-bin/sis/search/r?dbs+hsdb:@term+@rn+@rel+123-91-1
  11. http://toxnet.nlm.nih.gov/cgi-bin/sis/search/r?dbs+hsdb:@term+@rn+@rel+123-91-1
  12. http://toxnet.nlm.nih.gov/cgi-bin/sis/search/r?dbs+hsdb:@term+@rn+@rel+123-91-1
  13. http://toxnet.nlm.nih.gov/cgi-bin/sis/search/r?dbs+hsdb:@term+@rn+@rel+123-91-1
  14. http://toxnet.nlm.nih.gov/cgi-bin/sis/search/r?dbs+hsdb:@term+@rn+@rel+123-91-1
  15. http://toxnet.nlm.nih.gov/cgi-bin/sis/search/r?dbs+hsdb:@term+@rn+@rel+123-91-1
  16. http://toxnet.nlm.nih.gov/cgi-bin/sis/search/r?dbs+hsdb:@term+@rn+@rel+123-91-1
  17. http://toxnet.nlm.nih.gov/cgi-bin/sis/search/r?dbs+hsdb:@term+@rn+@rel+123-91-1
  18. http://pubchem.ncbi.nlm.nih.gov/vw3d/vw3d.cgi?cid=31275
