   Chemical and Physical Properties References

   [1]USDA ARS - USDA chemical properties
   from [2]ChemIDplus

   Color/Form

     * Colorless plates from acetone
     * Yellow or yellowish crystalline solid

   from [3]HSDB

   Odor
        Odorless
   from [4]HSDB

   Melting Point
        194 deg C (decomposes)
   from [5]HSDB

   Solubilities
        Almost insoluble in water; sparingly soluble in most organic
   solvents
   from [6]HSDB

   Other Chemical/Physical Properties
        Forms unstable solutions of salts with aqueous alkali and forms
   complexes with divalent transition metal ions, for example copper.
   from [7]HSDB

   Computed Properties
   Molecular Weight                  370.44712 [g/mol]
   Molecular Formula                 C[14]H[18]N[4]O[4]S[2]
   XLogP3-AA                         3.3
   H-Bond Donor                      4
   H-Bond Acceptor                   6
   Rotatable Bond Count              6
   Tautomer Count                    15
   Exact Mass                        370.076947
   MonoIsotopic Mass                 370.076947
   Topological Polar Surface Area    165
   Heavy Atom Count                  24
   Formal Charge                     0
   Complexity                        434
   Isotope Atom Count                0
   Defined Atom Stereocenter Count   0
   Undefined Atom Stereocenter Count 0
   Defined Bond Stereocenter Count   0
   Undefined Bond Stereocenter Count 0
   Covalently-Bonded Unit Count      1
   Feature 3D Acceptor Count         4
   Feature 3D Donor Count            4
   Feature 3D Ring Count             1
   Effective Rotor Count             12
   Conformer Sampling RMSD           1
   CID Conformer Count               [8]46

References

   1. http://www.ars.usda.gov/SP2UserFiles/ad_hoc/12755100DatabaseFiles/PesticidePropertiesDatabase/IndividualPesticideFiles/THIOPHANATE-ME.TXT
   2. http://chem.sis.nlm.nih.gov/chemidplus/
   3. http://toxnet.nlm.nih.gov/cgi-bin/sis/search/r?dbs+hsdb:@term+@rn+@rel+23564-06-9
   4. http://toxnet.nlm.nih.gov/cgi-bin/sis/search/r?dbs+hsdb:@term+@rn+@rel+23564-06-9
   5. http://toxnet.nlm.nih.gov/cgi-bin/sis/search/r?dbs+hsdb:@term+@rn+@rel+23564-06-9
   6. http://toxnet.nlm.nih.gov/cgi-bin/sis/search/r?dbs+hsdb:@term+@rn+@rel+23564-06-9
   7. http://toxnet.nlm.nih.gov/cgi-bin/sis/search/r?dbs+hsdb:@term+@rn+@rel+23564-06-9
   8. http://pubchem.ncbi.nlm.nih.gov/vw3d/vw3d.cgi?cid=3032792
