49970
  -OEChem-07051213132D

 22 24  0     0  0  0  0  0  0999 V2000
    5.9787    0.1859    0.0000 N   0  0  0  0  0  0  0  0  0  0  0  0
    5.4787    1.7248    0.0000 N   0  0  0  0  0  0  0  0  0  0  0  0
    4.2937   -0.5988    0.0000 N   0  0  0  0  0  0  0  0  0  0  0  0
    2.6069   -1.1358    0.0000 N   0  0  0  0  0  0  0  0  0  0  0  0
    4.9787    0.1859    0.0000 C   0  0  0  0  0  0  0  0  0  0  0  0
    6.2877    1.1370    0.0000 C   0  0  0  0  0  0  0  0  0  0  0  0
    4.6697    1.1370    0.0000 C   0  0  0  0  0  0  0  0  0  0  0  0
    6.6636   -0.5988    0.0000 C   0  0  0  0  0  0  0  0  0  0  0  0
    7.3031    1.3692    0.0000 C   0  0  0  0  0  0  0  0  0  0  0  0
    3.6543    1.3692    0.0000 C   0  0  0  0  0  0  0  0  0  0  0  0
    7.6842   -0.3901    0.0000 C   0  0  0  0  0  0  0  0  0  0  0  0
    3.2732   -0.3901    0.0000 C   0  0  0  0  0  0  0  0  0  0  0  0
    2.9513    0.6005    0.0000 C   0  0  0  0  0  0  0  0  0  0  0  0
    8.0060    0.6005    0.0000 C   0  0  0  0  0  0  0  0  0  0  0  0
    6.4653   -1.1862    0.0000 H   0  0  0  0  0  0  0  0  0  0  0  0
    3.4695    1.9610    0.0000 H   0  0  0  0  0  0  0  0  0  0  0  0
    7.4879    1.9610    0.0000 H   0  0  0  0  0  0  0  0  0  0  0  0
    8.0972   -0.8525    0.0000 H   0  0  0  0  0  0  0  0  0  0  0  0
    2.3454    0.7318    0.0000 H   0  0  0  0  0  0  0  0  0  0  0  0
    8.6120    0.7318    0.0000 H   0  0  0  0  0  0  0  0  0  0  0  0
    2.0000   -1.0093    0.0000 H   0  0  0  0  0  0  0  0  0  0  0  0
    2.8008   -1.7248    0.0000 H   0  0  0  0  0  0  0  0  0  0  0  0
  1  5  1  0  0  0  0
  1  6  1  0  0  0  0
  1  8  1  0  0  0  0
  2  6  2  0  0  0  0
  2  7  1  0  0  0  0
  3  5  1  0  0  0  0
  3 12  2  0  0  0  0
  4 12  1  0  0  0  0
  4 21  1  0  0  0  0
  4 22  1  0  0  0  0
  5  7  2  0  0  0  0
  6  9  1  0  0  0  0
  7 10  1  0  0  0  0
  8 11  2  0  0  0  0
  8 15  1  0  0  0  0
  9 14  2  0  0  0  0
  9 17  1  0  0  0  0
 10 13  2  0  0  0  0
 10 16  1  0  0  0  0
 11 14  1  0  0  0  0
 11 18  1  0  0  0  0
 12 13  1  0  0  0  0
 13 19  1  0  0  0  0
 14 20  1  0  0  0  0
M  END
> <PUBCHEM_COMPOUND_CID>
49970

> <PUBCHEM_COMPOUND_CANONICALIZED>
1

> <PUBCHEM_CACTVS_COMPLEXITY>
220

> <PUBCHEM_CACTVS_HBOND_ACCEPTOR>
3

> <PUBCHEM_CACTVS_HBOND_DONOR>
1

> <PUBCHEM_CACTVS_ROTATABLE_BOND>
0

> <PUBCHEM_CACTVS_SUBSKEYS>
AAADccBzgAAAAAAAAAAAAAAAAAAAAWAAAAAsWAAAAAAAAFgB/gAAHAAQAAAACAjBFwQ98L9MGACgATZnZACCgC0xEqAJ2CA4dJiIaOLAmZGUIAhokALIyCYQAAAAAAAAAAAAAAAAAAAAAAAAAAAAAAAAAA==

> <PUBCHEM_IUPAC_INCHI>
InChI=1S/C10H8N4/c11-8-5-4-7-10(13-8)14-6-2-1-3-9(14)12-7/h1-6H,(H2,11,13)

> <PUBCHEM_IUPAC_INCHIKEY>
BUXVIXBGMQXWGT-UHFFFAOYSA-N

> <PUBCHEM_XLOGP3>
1.4

> <PUBCHEM_EXACT_MASS>
184.074896

> <PUBCHEM_MOLECULAR_FORMULA>
C10H8N4

> <PUBCHEM_MOLECULAR_WEIGHT>
184.19732

> <PUBCHEM_OPENEYE_CAN_SMILES>
C1=CC2=NC3=C(N2C=C1)N=C(C=C3)N

> <PUBCHEM_OPENEYE_ISO_SMILES>
C1=CC2=NC3=C(N2C=C1)N=C(C=C3)N

> <PUBCHEM_CACTVS_TPSA>
56.2

> <PUBCHEM_MONOISOTOPIC_WEIGHT>
184.074896

> <PUBCHEM_TOTAL_CHARGE>
0

> <PUBCHEM_HEAVY_ATOM_COUNT>
14

> <PUBCHEM_ATOM_DEF_STEREO_COUNT>
0

> <PUBCHEM_ATOM_UDEF_STEREO_COUNT>
0

> <PUBCHEM_BOND_DEF_STEREO_COUNT>
0

> <PUBCHEM_BOND_UDEF_STEREO_COUNT>
0

> <PUBCHEM_ISOTOPIC_ATOM_COUNT>
0

> <PUBCHEM_COMPONENT_COUNT>
1

> <PUBCHEM_CACTVS_TAUTO_COUNT>
2

> <PUBCHEM_COORDINATE_TYPE>
1
5
255

> <PUBCHEM_BONDANNOTATIONS>
1  5  8
1  6  8
1  8  8
10  13  8
11  14  8
12  13  8
2  6  8
2  7  8
3  12  8
3  5  8
5  7  8
6  9  8
7  10  8
8  11  8
9  14  8

$$$$

