5282271
  -OEChem-07051213042D

 61 61  0     1  0  0  0  0  0999 V2000
    6.3230   -3.4507    0.0000 O   0  0  0  0  0  0  0  0  0  0  0  0
    9.1709   -1.3816    0.0000 O   0  0  0  0  0  0  0  0  0  0  0  0
    7.4108    1.8971    0.0000 O   0  0  0  0  0  0  0  0  0  0  0  0
   13.4730    3.3971    0.0000 O   0  0  0  0  0  0  0  0  0  0  0  0
   12.6070    1.8971    0.0000 O   0  0  0  0  0  0  0  0  0  0  0  0
    6.6018   -1.6907    0.0000 C   0  0  3  0  0  0  0  0  0  0  0  0
    7.4108   -1.1029    0.0000 C   0  0  3  0  0  0  0  0  0  0  0  0
    6.9108   -2.6417    0.0000 C   0  0  3  0  0  0  0  0  0  0  0  0
    8.2198   -1.6907    0.0000 C   0  0  3  0  0  0  0  0  0  0  0  0
    7.9108   -2.6417    0.0000 C   0  0  0  0  0  0  0  0  0  0  0  0
    5.6507   -1.3816    0.0000 C   0  0  0  0  0  0  0  0  0  0  0  0
    7.4108   -0.1029    0.0000 C   0  0  0  0  0  0  0  0  0  0  0  0
    4.9076   -2.0508    0.0000 C   0  0  0  0  0  0  0  0  0  0  0  0
    8.2768    0.3971    0.0000 C   0  0  0  0  0  0  0  0  0  0  0  0
    8.2768    1.3971    0.0000 C   0  0  3  0  0  0  0  0  0  0  0  0
    3.9565   -1.7418    0.0000 C   0  0  0  0  0  0  0  0  0  0  0  0
    9.1429    1.8971    0.0000 C   0  0  0  0  0  0  0  0  0  0  0  0
    3.7486   -0.7636    0.0000 C   0  0  0  0  0  0  0  0  0  0  0  0
    9.1429    2.8971    0.0000 C   0  0  0  0  0  0  0  0  0  0  0  0
    2.7976   -0.4546    0.0000 C   0  0  0  0  0  0  0  0  0  0  0  0
   10.0089    3.3971    0.0000 C   0  0  0  0  0  0  0  0  0  0  0  0
    2.5896    0.5236    0.0000 C   0  0  0  0  0  0  0  0  0  0  0  0
   10.8749    2.8971    0.0000 C   0  0  0  0  0  0  0  0  0  0  0  0
    3.3328    1.1927    0.0000 C   0  0  0  0  0  0  0  0  0  0  0  0
   11.7409    3.3971    0.0000 C   0  0  0  0  0  0  0  0  0  0  0  0
    3.1249    2.1708    0.0000 C   0  0  0  0  0  0  0  0  0  0  0  0
   12.6070    2.8971    0.0000 C   0  0  0  0  0  0  0  0  0  0  0  0
    6.4688   -0.8511    0.0000 H   0  0  0  0  0  0  0  0  0  0  0  0
    8.1682   -0.7170    0.0000 H   0  0  0  0  0  0  0  0  0  0  0  0
    7.2967   -3.3991    0.0000 H   0  0  0  0  0  0  0  0  0  0  0  0
    8.3528   -0.8511    0.0000 H   0  0  0  0  0  0  0  0  0  0  0  0
    7.8460   -3.2583    0.0000 H   0  0  0  0  0  0  0  0  0  0  0  0
    8.5173   -2.7706    0.0000 H   0  0  0  0  0  0  0  0  0  0  0  0
    5.9418   -0.8342    0.0000 H   0  0  0  0  0  0  0  0  0  0  0  0
    5.1622   -0.9999    0.0000 H   0  0  0  0  0  0  0  0  0  0  0  0
    6.8739    0.2071    0.0000 H   0  0  0  0  0  0  0  0  0  0  0  0
    6.5752   -4.0171    0.0000 H   0  0  0  0  0  0  0  0  0  0  0  0
    9.6316   -1.7965    0.0000 H   0  0  0  0  0  0  0  0  0  0  0  0
    5.0365   -2.6572    0.0000 H   0  0  0  0  0  0  0  0  0  0  0  0
    8.8138    0.0871    0.0000 H   0  0  0  0  0  0  0  0  0  0  0  0
    7.5407    0.9721    0.0000 H   0  0  0  0  0  0  0  0  0  0  0  0
    3.4958   -2.1566    0.0000 H   0  0  0  0  0  0  0  0  0  0  0  0
    9.3549    1.3145    0.0000 H   0  0  0  0  0  0  0  0  0  0  0  0
    9.7534    2.0048    0.0000 H   0  0  0  0  0  0  0  0  0  0  0  0
    4.3682   -0.7420    0.0000 H   0  0  0  0  0  0  0  0  0  0  0  0
    3.8349   -0.1496    0.0000 H   0  0  0  0  0  0  0  0  0  0  0  0
    7.4108    2.5171    0.0000 H   0  0  0  0  0  0  0  0  0  0  0  0
    8.6059    3.2071    0.0000 H   0  0  0  0  0  0  0  0  0  0  0  0
    2.3368   -0.8694    0.0000 H   0  0  0  0  0  0  0  0  0  0  0  0
   10.0089    4.0171    0.0000 H   0  0  0  0  0  0  0  0  0  0  0  0
    2.0000    0.7151    0.0000 H   0  0  0  0  0  0  0  0  0  0  0  0
   10.4764    2.4222    0.0000 H   0  0  0  0  0  0  0  0  0  0  0  0
   11.2734    2.4222    0.0000 H   0  0  0  0  0  0  0  0  0  0  0  0
    3.6614    0.6669    0.0000 H   0  0  0  0  0  0  0  0  0  0  0  0
    3.9076    1.4250    0.0000 H   0  0  0  0  0  0  0  0  0  0  0  0
   12.1395    3.8721    0.0000 H   0  0  0  0  0  0  0  0  0  0  0  0
   11.3424    3.8721    0.0000 H   0  0  0  0  0  0  0  0  0  0  0  0
    3.7313    2.2997    0.0000 H   0  0  0  0  0  0  0  0  0  0  0  0
    2.9960    2.7773    0.0000 H   0  0  0  0  0  0  0  0  0  0  0  0
    2.5184    2.0419    0.0000 H   0  0  0  0  0  0  0  0  0  0  0  0
   14.0099    3.0871    0.0000 H   0  0  0  0  0  0  0  0  0  0  0  0
  1  8  1  0  0  0  0
  1 37  1  0  0  0  0
  2  9  1  0  0  0  0
  2 38  1  0  0  0  0
  3 15  1  0  0  0  0
  3 47  1  0  0  0  0
  4 27  1  0  0  0  0
  4 61  1  0  0  0  0
  5 27  2  0  0  0  0
  6  7  1  0  0  0  0
  6  8  1  0  0  0  0
  6 11  1  0  0  0  0
  6 28  1  0  0  0  0
  7  9  1  0  0  0  0
  7 12  1  0  0  0  0
  7 29  1  0  0  0  0
  8 10  1  0  0  0  0
  8 30  1  0  0  0  0
  9 10  1  0  0  0  0
  9 31  1  0  0  0  0
 10 32  1  0  0  0  0
 10 33  1  0  0  0  0
 11 13  1  0  0  0  0
 11 34  1  0  0  0  0
 11 35  1  0  0  0  0
 12 14  2  0  0  0  0
 12 36  1  0  0  0  0
 13 16  2  0  0  0  0
 13 39  1  0  0  0  0
 14 15  1  0  0  0  0
 14 40  1  0  0  0  0
 15 17  1  0  0  0  0
 15 41  1  0  0  0  0
 16 18  1  0  0  0  0
 16 42  1  0  0  0  0
 17 19  1  0  0  0  0
 17 43  1  0  0  0  0
 17 44  1  0  0  0  0
 18 20  1  0  0  0  0
 18 45  1  0  0  0  0
 18 46  1  0  0  0  0
 19 21  2  0  0  0  0
 19 48  1  0  0  0  0
 20 22  2  0  0  0  0
 20 49  1  0  0  0  0
 21 23  1  0  0  0  0
 21 50  1  0  0  0  0
 22 24  1  0  0  0  0
 22 51  1  0  0  0  0
 23 25  1  0  0  0  0
 23 52  1  0  0  0  0
 23 53  1  0  0  0  0
 24 26  1  0  0  0  0
 24 54  1  0  0  0  0
 24 55  1  0  0  0  0
 25 27  1  0  0  0  0
 25 56  1  0  0  0  0
 25 57  1  0  0  0  0
 26 58  1  0  0  0  0
 26 59  1  0  0  0  0
 26 60  1  0  0  0  0
M  END
> <PUBCHEM_COMPOUND_CID>
5282271

> <PUBCHEM_COMPOUND_CANONICALIZED>
1

> <PUBCHEM_CACTVS_COMPLEXITY>
535

> <PUBCHEM_CACTVS_HBOND_ACCEPTOR>
5

> <PUBCHEM_CACTVS_HBOND_DONOR>
4

> <PUBCHEM_CACTVS_ROTATABLE_BOND>
12

> <PUBCHEM_CACTVS_SUBSKEYS>
AAADcfB4OAAAAAAAAAAAAAAAAAAAAYAAAAAAAAAAAAAAAAAAAAAAGgAACAAADRSggAICCAAAAgCIACDSCAAAAAAgAAAICAEAAAgAFBIAAQAAUAAFwAAIEAPAwKAOgAAAAAAAAAAAAAAAAAAAAIQADAAAAA==

> <PUBCHEM_IUPAC_OPENEYE_NAME>
(4Z,8E)-9-[3,5-dihydroxy-2-[(2Z,5Z)-octa-2,5-dienyl]cyclopentyl]-7-hydroxy-nona-4,8-dienoic acid

> <PUBCHEM_IUPAC_CAS_NAME>
(4Z,8E)-9-[3,5-dihydroxy-2-[(2Z,5Z)-octa-2,5-dienyl]cyclopentyl]-7-hydroxynona-4,8-dienoic acid

> <PUBCHEM_IUPAC_NAME>
(4Z,8E)-9-[3,5-dihydroxy-2-[(2Z,5Z)-octa-2,5-dienyl]cyclopentyl]-7-hydroxynona-4,8-dienoic acid

> <PUBCHEM_IUPAC_SYSTEMATIC_NAME>
(4Z,8E)-9-[2-[(2Z,5Z)-octa-2,5-dienyl]-3,5-bis(oxidanyl)cyclopentyl]-7-oxidanyl-nona-4,8-dienoic acid

> <PUBCHEM_IUPAC_TRADITIONAL_NAME>
(4Z,8E)-9-[3,5-dihydroxy-2-[(2Z,5Z)-octa-2,5-dienyl]cyclopentyl]-7-hydroxy-nona-4,8-dienoic acid

> <PUBCHEM_IUPAC_INCHI>
InChI=1S/C22H34O5/c1-2-3-4-5-6-9-12-18-19(21(25)16-20(18)24)15-14-17(23)11-8-7-10-13-22(26)27/h3-4,6-9,14-15,17-21,23-25H,2,5,10-13,16H2,1H3,(H,26,27)/b4-3-,8-7-,9-6-,15-14+

> <PUBCHEM_IUPAC_INCHIKEY>
HLOKCEDYFAXGRQ-UGCWMZKCSA-N

> <PUBCHEM_XLOGP3>
2.7

> <PUBCHEM_EXACT_MASS>
378.240624

> <PUBCHEM_MOLECULAR_FORMULA>
C22H34O5

> <PUBCHEM_MOLECULAR_WEIGHT>
378.50236

> <PUBCHEM_OPENEYE_CAN_SMILES>
CCC=CCC=CCC1C(CC(C1C=CC(CC=CCCC(=O)O)O)O)O

> <PUBCHEM_OPENEYE_ISO_SMILES>
CC/C=C\C/C=C\CC1C(CC(C1/C=C/C(C/C=C\CCC(=O)O)O)O)O

> <PUBCHEM_CACTVS_TPSA>
98

> <PUBCHEM_MONOISOTOPIC_WEIGHT>
378.240624

> <PUBCHEM_TOTAL_CHARGE>
0

> <PUBCHEM_HEAVY_ATOM_COUNT>
27

> <PUBCHEM_ATOM_DEF_STEREO_COUNT>
0

> <PUBCHEM_ATOM_UDEF_STEREO_COUNT>
5

> <PUBCHEM_BOND_DEF_STEREO_COUNT>
4

> <PUBCHEM_BOND_UDEF_STEREO_COUNT>
0

> <PUBCHEM_ISOTOPIC_ATOM_COUNT>
0

> <PUBCHEM_COMPONENT_COUNT>
1

> <PUBCHEM_CACTVS_TAUTO_COUNT>
1

> <PUBCHEM_COORDINATE_TYPE>
1
5
255

> <PUBCHEM_BONDANNOTATIONS>
15  41  3
6  28  3
7  29  3
8  30  3
9  31  3

$$$$

