   Color/Form
        Off-white crystalline
   from [1]HSDB

   Odor
        Weak halide /Technical product/
   from [2]HSDB

   Melting Point
        61-62 deg C
   from [3]HSDB

   Density/Specific Gravity
        1.0214 g/cu cm
   from [4]HSDB

   Octanol/Water Partition Coefficient
        log Kow = 5.04 at 25 deg C
   from [5]HSDB

   pH
        pH = 5.9 in water /Technical/; pH = 5.0 /End-use product/
   from [6]HSDB

   Solubilities

     * In water, 2.8 mg/L at 25 deg C
     * Solubility in water = 2.61 ppm at pH 5.9, 3.21 ppm at pH 4, 2.39
       ppm at pH 7, and 2.32 ppm at pH 10 /Technical product/

   from [7]HSDB

   Vapor Pressure
        5.5X10-11 mm Hg at 25 deg C /Estimated/
   from [8]HSDB

   Other Chemical/Physical Properties

     * Density = 0.5 g/mL at 24.1 deg C /Technical product/; 8.71 lbs/gal
       /End-use product/
     * Measured vapor pressure = less than 7.3X10-8 mm Hg at 20 deg C
       /Technical product/
     * Henry's Law constant = 1.6X10-11 atm-cu m/mol at 25 deg C
       /Estimated/
     * Hydroxyl radical reaction rate constant = 5.3X10-11 cu
       cm/molecule-sec at 25 deg C /Estimated/

   from [9]HSDB

   Computed Properties
   Molecular Weight                  333.85566 [g/mol]
   Molecular Formula                 C[18]H[24]ClN[3]O
   XLogP3-AA                         4.5
   H-Bond Donor                      1
   H-Bond Acceptor                   2
   Rotatable Bond Count              5
   Tautomer Count                    2
   Exact Mass                        333.16079
   MonoIsotopic Mass                 333.16079
   Topological Polar Surface Area    46.9
   Heavy Atom Count                  23
   Formal Charge                     0
   Complexity                        402
   Isotope Atom Count                0
   Defined Atom Stereocenter Count   0
   Undefined Atom Stereocenter Count 0
   Defined Bond Stereocenter Count   0
   Undefined Bond Stereocenter Count 0
   Covalently-Bonded Unit Count      1
   Feature 3D Acceptor Count         2
   Feature 3D Donor Count            1
   Feature 3D Hydrophobe Count       2
   Feature 3D Ring Count             2
   Effective Rotor Count             6
   Conformer Sampling RMSD           0.8
   CID Conformer Count               [10]22

References

   1. http://toxnet.nlm.nih.gov/cgi-bin/sis/search/r?dbs+hsdb:@term+@rn+@rel+119168-77-3
   2. http://toxnet.nlm.nih.gov/cgi-bin/sis/search/r?dbs+hsdb:@term+@rn+@rel+119168-77-3
   3. http://toxnet.nlm.nih.gov/cgi-bin/sis/search/r?dbs+hsdb:@term+@rn+@rel+119168-77-3
   4. http://toxnet.nlm.nih.gov/cgi-bin/sis/search/r?dbs+hsdb:@term+@rn+@rel+119168-77-3
   5. http://toxnet.nlm.nih.gov/cgi-bin/sis/search/r?dbs+hsdb:@term+@rn+@rel+119168-77-3
   6. http://toxnet.nlm.nih.gov/cgi-bin/sis/search/r?dbs+hsdb:@term+@rn+@rel+119168-77-3
   7. http://toxnet.nlm.nih.gov/cgi-bin/sis/search/r?dbs+hsdb:@term+@rn+@rel+119168-77-3
   8. http://toxnet.nlm.nih.gov/cgi-bin/sis/search/r?dbs+hsdb:@term+@rn+@rel+119168-77-3
   9. http://toxnet.nlm.nih.gov/cgi-bin/sis/search/r?dbs+hsdb:@term+@rn+@rel+119168-77-3
  10. http://pubchem.ncbi.nlm.nih.gov/vw3d/vw3d.cgi?cid=86354
