17395667
  -OEChem-06241222512D

 34 36  0     0  0  0  0  0  0999 V2000
    3.7320    2.7500    0.0000 Cl  0  0  0  0  0  0  0  0  0  0  0  0
    2.0000    1.7500    0.0000 F   0  0  0  0  0  0  0  0  0  0  0  0
    8.0622    0.2500    0.0000 O   0  0  0  0  0  0  0  0  0  0  0  0
    8.0622   -2.7500    0.0000 O   0  0  0  0  0  0  0  0  0  0  0  0
    6.3301    1.2500    0.0000 O   0  0  0  0  0  0  0  0  0  0  0  0
    5.4641   -0.2500    0.0000 N   0  0  0  0  0  0  0  0  0  0  0  0
    8.9282   -1.2500    0.0000 C   0  0  0  0  0  0  0  0  0  0  0  0
    8.9282   -0.2500    0.0000 C   0  0  0  0  0  0  0  0  0  0  0  0
    9.8222   -1.7847    0.0000 C   0  0  0  0  0  0  0  0  0  0  0  0
   10.7282   -1.2708    0.0000 C   0  0  0  0  0  0  0  0  0  0  0  0
    7.1962   -0.2500    0.0000 C   0  0  0  0  0  0  0  0  0  0  0  0
    8.0622   -1.7500    0.0000 C   0  0  0  0  0  0  0  0  0  0  0  0
    9.8222    0.2847    0.0000 C   0  0  0  0  0  0  0  0  0  0  0  0
   10.7282   -0.2292    0.0000 C   0  0  0  0  0  0  0  0  0  0  0  0
    7.1962   -1.2500    0.0000 C   0  0  0  0  0  0  0  0  0  0  0  0
    6.3301    0.2500    0.0000 C   0  0  0  0  0  0  0  0  0  0  0  0
   11.5923   -1.7742    0.0000 C   0  0  0  0  0  0  0  0  0  0  0  0
    4.5981    0.2500    0.0000 C   0  0  0  0  0  0  0  0  0  0  0  0
    4.5981    1.2500    0.0000 C   0  0  0  0  0  0  0  0  0  0  0  0
    3.7320   -0.2500    0.0000 C   0  0  0  0  0  0  0  0  0  0  0  0
    3.7320    1.7500    0.0000 C   0  0  0  0  0  0  0  0  0  0  0  0
    2.8660    0.2500    0.0000 C   0  0  0  0  0  0  0  0  0  0  0  0
    2.8660    1.2500    0.0000 C   0  0  0  0  0  0  0  0  0  0  0  0
    9.8150   -2.4046    0.0000 H   0  0  0  0  0  0  0  0  0  0  0  0
    9.8150    0.9046    0.0000 H   0  0  0  0  0  0  0  0  0  0  0  0
   11.2639    0.0829    0.0000 H   0  0  0  0  0  0  0  0  0  0  0  0
    6.6592   -1.5600    0.0000 H   0  0  0  0  0  0  0  0  0  0  0  0
   11.2802   -2.3099    0.0000 H   0  0  0  0  0  0  0  0  0  0  0  0
   12.1280   -2.0862    0.0000 H   0  0  0  0  0  0  0  0  0  0  0  0
   11.9044   -1.2384    0.0000 H   0  0  0  0  0  0  0  0  0  0  0  0
    5.4641   -0.8700    0.0000 H   0  0  0  0  0  0  0  0  0  0  0  0
    5.1350    1.5600    0.0000 H   0  0  0  0  0  0  0  0  0  0  0  0
    3.7320   -0.8700    0.0000 H   0  0  0  0  0  0  0  0  0  0  0  0
    2.3291   -0.0600    0.0000 H   0  0  0  0  0  0  0  0  0  0  0  0
  1 21  1  0  0  0  0
  2 23  1  0  0  0  0
  3  8  1  0  0  0  0
  3 11  1  0  0  0  0
  4 12  2  0  0  0  0
  5 16  2  0  0  0  0
  6 16  1  0  0  0  0
  6 18  1  0  0  0  0
  6 31  1  0  0  0  0
  7  8  2  0  0  0  0
  7  9  1  0  0  0  0
  7 12  1  0  0  0  0
  8 13  1  0  0  0  0
  9 10  2  0  0  0  0
  9 24  1  0  0  0  0
 10 14  1  0  0  0  0
 10 17  1  0  0  0  0
 11 15  2  0  0  0  0
 11 16  1  0  0  0  0
 12 15  1  0  0  0  0
 13 14  2  0  0  0  0
 13 25  1  0  0  0  0
 14 26  1  0  0  0  0
 15 27  1  0  0  0  0
 17 28  1  0  0  0  0
 17 29  1  0  0  0  0
 17 30  1  0  0  0  0
 18 19  2  0  0  0  0
 18 20  1  0  0  0  0
 19 21  1  0  0  0  0
 19 32  1  0  0  0  0
 20 22  2  0  0  0  0
 20 33  1  0  0  0  0
 21 23  2  0  0  0  0
 22 23  1  0  0  0  0
 22 34  1  0  0  0  0
M  END
> <PUBCHEM_COMPOUND_CID>
17395667

> <PUBCHEM_COMPOUND_CANONICALIZED>
1

> <PUBCHEM_CACTVS_COMPLEXITY>
524

> <PUBCHEM_CACTVS_HBOND_ACCEPTOR>
4

> <PUBCHEM_CACTVS_HBOND_DONOR>
1

> <PUBCHEM_CACTVS_ROTATABLE_BOND>
2

> <PUBCHEM_CACTVS_SUBSKEYS>
AAADccB6MQAEAAAAAAAAAAAAAAAAAAAAAAAwYIAAAAAAAACBQAAAHwIQAAAADA6BmCgyxoLABACIAqVSUAKCCAAlJwAIiAFGbsgOJjbFt5+HOWjk9BHY6YeYyOCOIAACAAIIAABAAAQABBAAAAAAAAAAAA==

> <PUBCHEM_IUPAC_OPENEYE_NAME>
N-(3-chloro-4-fluoro-phenyl)-6-methyl-4-oxo-chromene-2-carboxamide

> <PUBCHEM_IUPAC_CAS_NAME>
N-(3-chloro-4-fluorophenyl)-6-methyl-4-oxo-1-benzopyran-2-carboxamide

> <PUBCHEM_IUPAC_NAME>
N-(3-chloro-4-fluorophenyl)-6-methyl-4-oxochromene-2-carboxamide

> <PUBCHEM_IUPAC_SYSTEMATIC_NAME>
N-(3-chloranyl-4-fluoranyl-phenyl)-6-methyl-4-oxidanylidene-chromene-2-carboxamide

> <PUBCHEM_IUPAC_TRADITIONAL_NAME>
N-(3-chloro-4-fluoro-phenyl)-4-keto-6-methyl-chromene-2-carboxamide

> <PUBCHEM_IUPAC_INCHI>
InChI=1S/C17H11ClFNO3/c1-9-2-5-15-11(6-9)14(21)8-16(23-15)17(22)20-10-3-4-13(19)12(18)7-10/h2-8H,1H3,(H,20,22)

> <PUBCHEM_IUPAC_INCHIKEY>
NUGIDEWWXZXBTO-UHFFFAOYSA-N

> <PUBCHEM_XLOGP3_AA>
3.7

> <PUBCHEM_EXACT_MASS>
331.041149

> <PUBCHEM_MOLECULAR_FORMULA>
C17H11ClFNO3

> <PUBCHEM_MOLECULAR_WEIGHT>
331.725543

> <PUBCHEM_OPENEYE_CAN_SMILES>
CC1=CC2=C(C=C1)OC(=CC2=O)C(=O)NC3=CC(=C(C=C3)F)Cl

> <PUBCHEM_OPENEYE_ISO_SMILES>
CC1=CC2=C(C=C1)OC(=CC2=O)C(=O)NC3=CC(=C(C=C3)F)Cl

> <PUBCHEM_CACTVS_TPSA>
55.4

> <PUBCHEM_MONOISOTOPIC_WEIGHT>
331.041149

> <PUBCHEM_TOTAL_CHARGE>
0

> <PUBCHEM_HEAVY_ATOM_COUNT>
23

> <PUBCHEM_ATOM_DEF_STEREO_COUNT>
0

> <PUBCHEM_ATOM_UDEF_STEREO_COUNT>
0

> <PUBCHEM_BOND_DEF_STEREO_COUNT>
0

> <PUBCHEM_BOND_UDEF_STEREO_COUNT>
0

> <PUBCHEM_ISOTOPIC_ATOM_COUNT>
0

> <PUBCHEM_COMPONENT_COUNT>
1

> <PUBCHEM_CACTVS_TAUTO_COUNT>
2

> <PUBCHEM_COORDINATE_TYPE>
1
5
255

> <PUBCHEM_BONDANNOTATIONS>
10  14  8
11  15  8
12  15  8
13  14  8
18  19  8
18  20  8
19  21  8
20  22  8
21  23  8
22  23  8
3  11  8
3  8  8
7  12  8
7  8  8
7  9  8
8  13  8
9  10  8

$$$$

