   Color/Form
        Clear, colorless liquid
   from [1]HSDB

   Odor
        Mild, turpentine-like odor.
   from [2]HSDB

   Boiling Point
        215 deg C @ 760 mm Hg
   from [3]HSDB

   Melting Point
        -21 deg C
   from [4]HSDB

   Density/Specific Gravity
        1.556 @ 25 deg C
   from [5]HSDB

   Octanol/Water Partition Coefficient
        log Kow = 4.78
   from [6]HSDB

   Solubilities

     * Sol in alc, ether
     * In water, 3.20 mg/l @ 25 deg C

   from [7]HSDB

   Spectral Properties

     * Index of refraction: 1.5542 @ 20 deg C/D
     * MAX ABSORPTION (HEPTANE): 253 NM (LOG E= 3.7)
     * IR: u SAD 3229 (Sadtler Research Laboratories Prism Collection)
     * UV: SAD 956 (Sadtler Research Laboratories Spectral Collection)
     * MS: NIST 12582 (NIST/EPA/MSDC Mass Spectral Database 1990 version)
     * 13C NMR: JJ 43 (Johnson and Jankowski, Carbon-13 NMR Spectra, John
       Wiley & Sons, New York)
     * Raman: SAD 314 (Sadtler Research Laboratories Spectral Collection)

   from [8]HSDB

   Vapor Density
        8.99 (AIR= 1)
   from [9]HSDB

   Vapor Pressure
        0.22 mm Hg @ 25 deg C
   from [10]HSDB

   Viscosity
        2.447 centipoise at 37.7 deg C, 1.479 centistokes; 1.131
   centipoise at 98.8 deg C, 0.724 centistokes.
   from [11]HSDB

   Other Chemical/Physical Properties

     * Compatible with numerous resins.
     * Percent in saturated air: 0.037 at 25 deg C; 1 mg/l is equiv to 936
       ppm and 1 ppm is equiv to 10.7 mg/cu m at 25 deg C, 760 torr.
     * Henry's Law constant = 1.03X10-2 atm-cu m/mole @ 20 deg C

   from [12]HSDB

   Computed Properties
   Molecular Weight                  260.7608 [g/mol]
   Molecular Formula                 C[4]Cl[6]
   XLogP3                            4.8
   H-Bond Donor                      0
   H-Bond Acceptor                   0
   Rotatable Bond Count              1
   Exact Mass                        259.810166
   MonoIsotopic Mass                 257.813116
   Topological Polar Surface Area    0
   Heavy Atom Count                  10
   Formal Charge                     0
   Complexity                        160
   Isotope Atom Count                0
   Defined Atom Stereocenter Count   0
   Undefined Atom Stereocenter Count 0
   Defined Bond Stereocenter Count   0
   Undefined Bond Stereocenter Count 0
   Covalently-Bonded Unit Count      1

References

   1. http://toxnet.nlm.nih.gov/cgi-bin/sis/search/r?dbs+hsdb:@term+@rn+@rel+87-68-3
   2. http://toxnet.nlm.nih.gov/cgi-bin/sis/search/r?dbs+hsdb:@term+@rn+@rel+87-68-3
   3. http://toxnet.nlm.nih.gov/cgi-bin/sis/search/r?dbs+hsdb:@term+@rn+@rel+87-68-3
   4. http://toxnet.nlm.nih.gov/cgi-bin/sis/search/r?dbs+hsdb:@term+@rn+@rel+87-68-3
   5. http://toxnet.nlm.nih.gov/cgi-bin/sis/search/r?dbs+hsdb:@term+@rn+@rel+87-68-3
   6. http://toxnet.nlm.nih.gov/cgi-bin/sis/search/r?dbs+hsdb:@term+@rn+@rel+87-68-3
   7. http://toxnet.nlm.nih.gov/cgi-bin/sis/search/r?dbs+hsdb:@term+@rn+@rel+87-68-3
   8. http://toxnet.nlm.nih.gov/cgi-bin/sis/search/r?dbs+hsdb:@term+@rn+@rel+87-68-3
   9. http://toxnet.nlm.nih.gov/cgi-bin/sis/search/r?dbs+hsdb:@term+@rn+@rel+87-68-3
  10. http://toxnet.nlm.nih.gov/cgi-bin/sis/search/r?dbs+hsdb:@term+@rn+@rel+87-68-3
  11. http://toxnet.nlm.nih.gov/cgi-bin/sis/search/r?dbs+hsdb:@term+@rn+@rel+87-68-3
  12. http://toxnet.nlm.nih.gov/cgi-bin/sis/search/r?dbs+hsdb:@term+@rn+@rel+87-68-3
