10136
  -OEChem-06261204202D

 90 95  0     1  0  0  0  0  0999 V2000
   12.9636   -0.0799    0.0000 O   0  0  0  0  0  0  0  0  0  0  0  0
   14.2552   -1.2339    0.0000 O   0  0  0  0  0  0  0  0  0  0  0  0
    5.2996    3.0051    0.0000 O   0  0  0  0  0  0  0  0  0  0  0  0
   11.6311   -1.5713    0.0000 O   0  0  0  0  0  0  0  0  0  0  0  0
   12.2564   -3.4710    0.0000 O   0  0  0  0  0  0  0  0  0  0  0  0
   14.2143   -3.8793    0.0000 O   0  0  0  0  0  0  0  0  0  0  0  0
   16.2131   -1.6422    0.0000 O   0  0  0  0  0  0  0  0  0  0  0  0
    3.0407    1.6275    0.0000 N   0  0  0  0  0  0  0  0  0  0  0  0
    9.9639    0.5701    0.0000 C   0  0  3  0  0  0  0  0  0  0  0  0
    8.9858    0.7780    0.0000 C   0  0  2  0  0  0  0  0  0  0  0  0
    8.6768    1.7290    0.0000 C   0  0  1  0  0  0  0  0  0  0  0  0
   10.6330    1.3132    0.0000 C   0  0  0  0  0  0  0  0  0  0  0  0
    8.1800    0.1958    0.0000 C   0  0  0  0  0  0  0  0  0  0  0  0
   10.2705   -0.4254    0.0000 C   0  0  0  0  0  0  0  0  0  0  0  0
    9.3459    2.4722    0.0000 C   0  0  0  0  0  0  0  0  0  0  0  0
    7.6827    1.7265    0.0000 C   0  0  0  0  0  0  0  0  0  0  0  0
    7.3763    0.7808    0.0000 C   0  0  0  0  0  0  0  0  0  0  0  0
   11.6551    1.1124    0.0000 C   0  0  0  0  0  0  0  0  0  0  0  0
   11.2877   -0.6498    0.0000 C   0  0  0  0  0  0  0  0  0  0  0  0
    9.2948   -0.1731    0.0000 C   0  0  0  0  0  0  0  0  0  0  0  0
   11.9846    0.1243    0.0000 C   0  0  3  0  0  0  0  0  0  0  0  0
   10.3240    2.2643    0.0000 C   0  0  0  0  0  0  0  0  0  0  0  0
    6.3671    0.5490    0.0000 C   0  0  0  0  0  0  0  0  0  0  0  0
    7.0011    2.5060    0.0000 C   0  0  0  0  0  0  0  0  0  0  0  0
    5.6677    1.3126    0.0000 C   0  0  0  0  0  0  0  0  0  0  0  0
    4.6905    1.1000    0.0000 C   0  0  1  0  0  0  0  0  0  0  0  0
    5.9868    2.2976    0.0000 C   0  0  0  0  0  0  0  0  0  0  0  0
    4.0179    1.8400    0.0000 C   0  0  1  0  0  0  0  0  0  0  0  0
    6.0699   -0.4058    0.0000 C   0  0  0  0  0  0  0  0  0  0  0  0
   13.2763   -1.0297    0.0000 C   0  0  3  0  0  0  0  0  0  0  0  0
    4.3224    2.7925    0.0000 C   0  0  3  0  0  0  0  0  0  0  0  0
    4.3860    0.1475    0.0000 C   0  0  0  0  0  0  0  0  0  0  0  0
   12.6100   -1.7755    0.0000 C   0  0  3  0  0  0  0  0  0  0  0  0
    3.6498    3.5325    0.0000 C   0  0  0  0  0  0  0  0  0  0  0  0
    2.6726    3.3200    0.0000 C   0  0  3  0  0  0  0  0  0  0  0  0
    2.3681    2.3675    0.0000 C   0  0  0  0  0  0  0  0  0  0  0  0
   12.9227   -2.7253    0.0000 C   0  0  3  0  0  0  0  0  0  0  0  0
   14.5679   -2.1837    0.0000 C   0  0  3  0  0  0  0  0  0  0  0  0
   13.9016   -2.9295    0.0000 C   0  0  3  0  0  0  0  0  0  0  0  0
    2.0000    4.0600    0.0000 C   0  0  0  0  0  0  0  0  0  0  0  0
   15.5468   -2.3879    0.0000 C   0  0  0  0  0  0  0  0  0  0  0  0
    9.1614   -0.0537    0.0000 H   0  0  0  0  0  0  0  0  0  0  0  0
    8.3300    2.5051    0.0000 H   0  0  0  0  0  0  0  0  0  0  0  0
    7.7645   -0.2644    0.0000 H   0  0  0  0  0  0  0  0  0  0  0  0
    8.5940   -0.2658    0.0000 H   0  0  0  0  0  0  0  0  0  0  0  0
    9.6555   -0.5038    0.0000 H   0  0  0  0  0  0  0  0  0  0  0  0
   10.2425   -1.0448    0.0000 H   0  0  0  0  0  0  0  0  0  0  0  0
    9.5781    3.0470    0.0000 H   0  0  0  0  0  0  0  0  0  0  0  0
    8.8201    2.8008    0.0000 H   0  0  0  0  0  0  0  0  0  0  0  0
   12.2682    1.2050    0.0000 H   0  0  0  0  0  0  0  0  0  0  0  0
   11.6688    1.7322    0.0000 H   0  0  0  0  0  0  0  0  0  0  0  0
   11.0524   -1.2235    0.0000 H   0  0  0  0  0  0  0  0  0  0  0  0
   11.8126   -0.9797    0.0000 H   0  0  0  0  0  0  0  0  0  0  0  0
    8.8340    0.2418    0.0000 H   0  0  0  0  0  0  0  0  0  0  0  0
    8.8799   -0.6338    0.0000 H   0  0  0  0  0  0  0  0  0  0  0  0
    9.7555   -0.5879    0.0000 H   0  0  0  0  0  0  0  0  0  0  0  0
   12.2489   -0.6836    0.0000 H   0  0  0  0  0  0  0  0  0  0  0  0
   10.7389    2.7250    0.0000 H   0  0  0  0  0  0  0  0  0  0  0  0
    7.1990    3.0935    0.0000 H   0  0  0  0  0  0  0  0  0  0  0  0
    4.0847    0.9683    0.0000 H   0  0  0  0  0  0  0  0  0  0  0  0
    5.5733    2.7596    0.0000 H   0  0  0  0  0  0  0  0  0  0  0  0
    3.7590    1.0304    0.0000 H   0  0  0  0  0  0  0  0  0  0  0  0
    5.4780   -0.2215    0.0000 H   0  0  0  0  0  0  0  0  0  0  0  0
    5.8857   -0.9978    0.0000 H   0  0  0  0  0  0  0  0  0  0  0  0
    6.6619   -0.5900    0.0000 H   0  0  0  0  0  0  0  0  0  0  0  0
   12.4442   -0.8562    0.0000 H   0  0  0  0  0  0  0  0  0  0  0  0
    4.8942    2.1635    0.0000 H   0  0  0  0  0  0  0  0  0  0  0  0
    3.7954    0.3363    0.0000 H   0  0  0  0  0  0  0  0  0  0  0  0
    4.1972   -0.4430    0.0000 H   0  0  0  0  0  0  0  0  0  0  0  0
    4.9765   -0.0413    0.0000 H   0  0  0  0  0  0  0  0  0  0  0  0
   12.3442   -0.9681    0.0000 H   0  0  0  0  0  0  0  0  0  0  0  0
    2.8519    1.0369    0.0000 H   0  0  0  0  0  0  0  0  0  0  0  0
    4.1740    3.8635    0.0000 H   0  0  0  0  0  0  0  0  0  0  0  0
    3.4148    4.1062    0.0000 H   0  0  0  0  0  0  0  0  0  0  0  0
    2.9315    4.1296    0.0000 H   0  0  0  0  0  0  0  0  0  0  0  0
    1.8193    2.6559    0.0000 H   0  0  0  0  0  0  0  0  0  0  0  0
    1.9887    1.8771    0.0000 H   0  0  0  0  0  0  0  0  0  0  0  0
   12.0906   -2.5518    0.0000 H   0  0  0  0  0  0  0  0  0  0  0  0
   15.1342   -1.5499    0.0000 H   0  0  0  0  0  0  0  0  0  0  0  0
   14.7337   -3.1030    0.0000 H   0  0  0  0  0  0  0  0  0  0  0  0
    2.4588    4.4770    0.0000 H   0  0  0  0  0  0  0  0  0  0  0  0
    1.5830    4.5187    0.0000 H   0  0  0  0  0  0  0  0  0  0  0  0
    1.5412    3.6429    0.0000 H   0  0  0  0  0  0  0  0  0  0  0  0
    5.4884    3.5956    0.0000 H   0  0  0  0  0  0  0  0  0  0  0  0
   15.3168   -2.9636    0.0000 H   0  0  0  0  0  0  0  0  0  0  0  0
   16.0739   -2.7144    0.0000 H   0  0  0  0  0  0  0  0  0  0  0  0
   11.2180   -2.0337    0.0000 H   0  0  0  0  0  0  0  0  0  0  0  0
   12.4503   -4.0600    0.0000 H   0  0  0  0  0  0  0  0  0  0  0  0
   14.8213   -4.0059    0.0000 H   0  0  0  0  0  0  0  0  0  0  0  0
   16.8200   -1.7687    0.0000 H   0  0  0  0  0  0  0  0  0  0  0  0
  1 21  1  0  0  0  0
  1 30  1  0  0  0  0
  2 30  1  0  0  0  0
  2 38  1  0  0  0  0
  3 31  1  0  0  0  0
  3 84  1  0  0  0  0
  4 33  1  0  0  0  0
  4 87  1  0  0  0  0
  5 37  1  0  0  0  0
  5 88  1  0  0  0  0
  6 39  1  0  0  0  0
  6 89  1  0  0  0  0
  7 41  1  0  0  0  0
  7 90  1  0  0  0  0
  8 28  1  0  0  0  0
  8 36  1  0  0  0  0
  8 72  1  0  0  0  0
  9 10  1  0  0  0  0
  9 12  1  0  0  0  0
  9 14  1  0  0  0  0
  9 20  1  0  0  0  0
 10 11  1  0  0  0  0
 10 13  1  0  0  0  0
 10 42  1  6  0  0  0
 11 15  1  0  0  0  0
 11 16  1  0  0  0  0
 11 43  1  1  0  0  0
 12 18  1  0  0  0  0
 12 22  2  0  0  0  0
 13 17  1  0  0  0  0
 13 44  1  0  0  0  0
 13 45  1  0  0  0  0
 14 19  1  0  0  0  0
 14 46  1  0  0  0  0
 14 47  1  0  0  0  0
 15 22  1  0  0  0  0
 15 48  1  0  0  0  0
 15 49  1  0  0  0  0
 16 17  2  0  0  0  0
 16 24  1  0  0  0  0
 17 23  1  0  0  0  0
 18 21  1  0  0  0  0
 18 50  1  0  0  0  0
 18 51  1  0  0  0  0
 19 21  1  0  0  0  0
 19 52  1  0  0  0  0
 19 53  1  0  0  0  0
 20 54  1  0  0  0  0
 20 55  1  0  0  0  0
 20 56  1  0  0  0  0
 21 57  1  0  0  0  0
 22 58  1  0  0  0  0
 23 25  2  0  0  0  0
 23 29  1  0  0  0  0
 24 27  2  0  0  0  0
 24 59  1  0  0  0  0
 25 26  1  0  0  0  0
 25 27  1  0  0  0  0
 26 28  1  0  0  0  0
 26 32  1  6  0  0  0
 26 60  1  0  0  0  0
 27 61  1  0  0  0  0
 28 31  1  0  0  0  0
 28 62  1  1  0  0  0
 29 63  1  0  0  0  0
 29 64  1  0  0  0  0
 29 65  1  0  0  0  0
 30 33  1  0  0  0  0
 30 66  1  0  0  0  0
 31 34  1  0  0  0  0
 31 67  1  0  0  0  0
 32 68  1  0  0  0  0
 32 69  1  0  0  0  0
 32 70  1  0  0  0  0
 33 37  1  0  0  0  0
 33 71  1  0  0  0  0
 34 35  1  0  0  0  0
 34 73  1  0  0  0  0
 34 74  1  0  0  0  0
 35 36  1  0  0  0  0
 35 40  1  0  0  0  0
 35 75  1  0  0  0  0
 36 76  1  0  0  0  0
 36 77  1  0  0  0  0
 37 39  1  0  0  0  0
 37 78  1  0  0  0  0
 38 39  1  0  0  0  0
 38 41  1  0  0  0  0
 38 79  1  0  0  0  0
 39 80  1  0  0  0  0
 40 81  1  0  0  0  0
 40 82  1  0  0  0  0
 40 83  1  0  0  0  0
 41 85  1  0  0  0  0
 41 86  1  0  0  0  0
M  END
> <PUBCHEM_COMPOUND_CID>
10136

> <PUBCHEM_COMPOUND_CANONICALIZED>
1

> <PUBCHEM_CACTVS_COMPLEXITY>
962

> <PUBCHEM_CACTVS_HBOND_ACCEPTOR>
8

> <PUBCHEM_CACTVS_HBOND_DONOR>
6

> <PUBCHEM_CACTVS_ROTATABLE_BOND>
5

> <PUBCHEM_CACTVS_SUBSKEYS>
AAADcfB+OAAAAAAAAAAAAAAAAAAAAYAAAAA8aIECAAAAAGCBAAAAHgAQCAAADzzxmAcyCILABgCAAiBCAAACAAAgAAAIiIAIAIgbMCKAkRGmYAAl0ACfiAfw4PwPwAACAAAQAADAAAQAACAAAQAACAAAAA==

> <PUBCHEM_IUPAC_OPENEYE_NAME>
2-[[(6aR,11aS)-9-[(1S)-1-[(2S)-3-hydroxy-5-methyl-2-piperidyl]ethyl]-10,11b-dimethyl-1,2,3,4,6,6a,11,11a-octahydrobenzo[a]fluoren-3-yl]oxy]-6-(hydroxymethyl)tetrahydropyran-3,4,5-triol

> <PUBCHEM_IUPAC_CAS_NAME>
2-[[(6aR,11aS)-9-[(1S)-1-[(2S)-3-hydroxy-5-methyl-2-piperidinyl]ethyl]-10,11b-dimethyl-1,2,3,4,6,6a,11,11a-octahydrobenzo[a]fluoren-3-yl]oxy]-6-(hydroxymethyl)oxane-3,4,5-triol

> <PUBCHEM_IUPAC_NAME>
2-[[(6aR,11aS)-9-[(1S)-1-[(2S)-3-hydroxy-5-methylpiperidin-2-yl]ethyl]-10,11b-dimethyl-1,2,3,4,6,6a,11,11a-octahydrobenzo[a]fluoren-3-yl]oxy]-6-(hydroxymethyl)oxane-3,4,5-triol

> <PUBCHEM_IUPAC_SYSTEMATIC_NAME>
2-[[(6aR,11aS)-10,11b-dimethyl-9-[(1S)-1-[(2S)-5-methyl-3-oxidanyl-piperidin-2-yl]ethyl]-1,2,3,4,6,6a,11,11a-octahydrobenzo[a]fluoren-3-yl]oxy]-6-(hydroxymethyl)oxane-3,4,5-triol

> <PUBCHEM_IUPAC_TRADITIONAL_NAME>
2-[[(6aR,11aS)-9-[(1S)-1-[(2S)-3-hydroxy-5-methyl-2-piperidyl]ethyl]-10,11b-dimethyl-1,2,3,4,6,6a,11,11a-octahydrobenzo[a]fluoren-3-yl]oxy]-6-methylol-tetrahydropyran-3,4,5-triol

> <PUBCHEM_IUPAC_INCHI>
InChI=1S/C33H49NO7/c1-16-11-26(36)28(34-14-16)18(3)21-7-8-22-23-6-5-19-12-20(9-10-33(19,4)25(23)13-24(22)17(21)2)40-32-31(39)30(38)29(37)27(15-35)41-32/h5,7-8,16,18,20,23,25-32,34-39H,6,9-15H2,1-4H3/t16?,18-,20?,23-,25-,26?,27?,28-,29?,30?,31?,32?,33?/m0/s1

> <PUBCHEM_IUPAC_INCHIKEY>
WXQHVBNTINGJJR-NHJAXKLSSA-N

> <PUBCHEM_XLOGP3_AA>
2.7

> <PUBCHEM_EXACT_MASS>
571.350903

> <PUBCHEM_MOLECULAR_FORMULA>
C33H49NO7

> <PUBCHEM_MOLECULAR_WEIGHT>
571.74466

> <PUBCHEM_OPENEYE_CAN_SMILES>
CC1CC(C(NC1)C(C)C2=C(C3=C(C=C2)C4CC=C5CC(CCC5(C4C3)C)OC6C(C(C(C(O6)CO)O)O)O)C)O

> <PUBCHEM_OPENEYE_ISO_SMILES>
CC1CC([C@@H](NC1)[C@@H](C)C2=C(C3=C(C=C2)[C@@H]4CC=C5CC(CCC5([C@H]4C3)C)OC6C(C(C(C(O6)CO)O)O)O)C)O

> <PUBCHEM_CACTVS_TPSA>
132

> <PUBCHEM_MONOISOTOPIC_WEIGHT>
571.350903

> <PUBCHEM_TOTAL_CHARGE>
0

> <PUBCHEM_HEAVY_ATOM_COUNT>
41

> <PUBCHEM_ATOM_DEF_STEREO_COUNT>
4

> <PUBCHEM_ATOM_UDEF_STEREO_COUNT>
9

> <PUBCHEM_BOND_DEF_STEREO_COUNT>
0

> <PUBCHEM_BOND_UDEF_STEREO_COUNT>
0

> <PUBCHEM_ISOTOPIC_ATOM_COUNT>
0

> <PUBCHEM_COMPONENT_COUNT>
1

> <PUBCHEM_CACTVS_TAUTO_COUNT>
1

> <PUBCHEM_COORDINATE_TYPE>
1
5
255

> <PUBCHEM_BONDANNOTATIONS>
10  42  6
11  43  5
16  17  8
16  24  8
17  23  8
21  57  3
23  25  8
24  27  8
25  27  8
26  32  6
28  62  5
30  66  3
31  67  3
33  71  3
35  75  3
37  78  3
38  79  3
39  80  3
9  20  3

$$$$

