   Color/Form

     * Crystals from ether
     * WHITE TO PRACTICALLY WHITE CRYSTALLINE POWDER

   from [1]HSDB

   Melting Point
        262-264 deg C
   from [2]HSDB

   Octanol/Water Partition Coefficient
        log Kow = 1.83
   from [3]HSDB

   Solubilities

     * Solubility in water (25 deg C): 10 mg/100 mL; sol in acetone,
       ethanol, chloroform
     * In water, 89.0 mg/L at 25 deg C

   from [4]HSDB

   Spectral Properties

     * Specific optical rotation: +77.5 deg at 25 deg C/D (dioxane)
     * IR: u 5108 (Coblentz Society spectral collection) /spectra
       converted from micrometers to wavenumbers/

   from [5]HSDB

   Vapor Pressure
        8.86X10-14 mm Hg at 25 deg C (est)
   from [6]HSDB

   Other Chemical/Physical Properties

     * Crystals; specific optical rotation +73 deg AT 25 deg C/D
       (chloroform); max absorption 239 nm (e= 14,900); mp 215-221 deg C
       /21-acetate dexamethasone/
     * Crystals; sol in water; max absorption (ethanol): 238-239 nm (e=
       14,000); specific optical rotation: +57 deg/D (water); mp 233-235
       deg C; specific optical rotation: +74 +- 4 deg at 25 deg C/D
       (water- and alc-free basis, 10 mg/mL) /21-phosphate disodium salt
       of dexamethasone/
     * ODORLESS OR HAS SLIGHT ODOR OF ALCOHOL; WHITE, OR SLIGHTLY YELLOW,
       CRYSTALLINE POWDER; 1 G DISSOLVES IN ABOUT 2 ML OF WATER; INSOL IN
       DIOXANE; SLIGHTLY SOL IN ALC; INSOL IN ETHER & CHLOROFORM; VERY
       HYGROSCOPIC /DEXAMETHASONE SODIUM PHOSPHATE/
     * Crystals; specific optical rotation: +183.5 deg at 27 deg C/D
       (dioxane); mp 250-252 deg C; mw 497.55 /21-isonicotinate
       dexamethasone/
     * Henry's Law constant = 7.15X10-8 atm-cu m/mol at 25 deg C (est)
     * Hydroxyl radical reaction rate constant = 6.95X10-11 cu
       cm/molec-sec at 25 deg C (est)
     * Ozone radical reaction rate constant = 1.31X10-17 cu cm/molec-sec
       at 25 deg (est)

   from [7]HSDB

   Computed Properties
   Molecular Weight                  392.461063 [g/mol]
   Molecular Formula                 C[22]H[29]FO[5]
   XLogP3                            1.9
   H-Bond Donor                      3
   H-Bond Acceptor                   6
   Rotatable Bond Count              2
   Tautomer Count                    9
   Exact Mass                        392.199902
   MonoIsotopic Mass                 392.199902
   Topological Polar Surface Area    94.8
   Heavy Atom Count                  28
   Formal Charge                     0
   Complexity                        805
   Isotope Atom Count                0
   Defined Atom Stereocenter Count   8
   Undefined Atom Stereocenter Count 0
   Defined Bond Stereocenter Count   0
   Undefined Bond Stereocenter Count 0
   Covalently-Bonded Unit Count      1
   Feature 3D Acceptor Count         5
   Feature 3D Donor Count            3
   Feature 3D Ring Count             4
   Effective Rotor Count             3.4
   Conformer Sampling RMSD           0.8
   CID Conformer Count               [8]2

References

   1. http://toxnet.nlm.nih.gov/cgi-bin/sis/search/r?dbs+hsdb:@term+@rn+@rel+50-02-2
   2. http://toxnet.nlm.nih.gov/cgi-bin/sis/search/r?dbs+hsdb:@term+@rn+@rel+50-02-2
   3. http://toxnet.nlm.nih.gov/cgi-bin/sis/search/r?dbs+hsdb:@term+@rn+@rel+50-02-2
   4. http://toxnet.nlm.nih.gov/cgi-bin/sis/search/r?dbs+hsdb:@term+@rn+@rel+50-02-2
   5. http://toxnet.nlm.nih.gov/cgi-bin/sis/search/r?dbs+hsdb:@term+@rn+@rel+50-02-2
   6. http://toxnet.nlm.nih.gov/cgi-bin/sis/search/r?dbs+hsdb:@term+@rn+@rel+50-02-2
   7. http://toxnet.nlm.nih.gov/cgi-bin/sis/search/r?dbs+hsdb:@term+@rn+@rel+50-02-2
   8. http://pubchem.ncbi.nlm.nih.gov/vw3d/vw3d.cgi?cid=5743
