47205079
  -OEChem-06241222582D

 30 31  0     0  0  0  0  0  0999 V2000
    2.0000   -0.7047    0.0000 Cl  0  0  0  0  0  0  0  0  0  0  0  0
    5.4641   -2.7047    0.0000 S   0  0  0  0  0  0  0  0  0  0  0  0
    2.8660    0.7953    0.0000 O   0  0  0  0  0  0  0  0  0  0  0  0
    4.5981    0.7953    0.0000 N   0  0  0  0  0  0  0  0  0  0  0  0
    5.5686    3.2898    0.0000 N   0  0  0  0  0  0  0  0  0  0  0  0
    6.5468    3.4977    0.0000 N   0  0  0  0  0  0  0  0  0  0  0  0
    4.5981    1.7953    0.0000 C   0  0  0  0  0  0  0  0  0  0  0  0
    5.4641    2.2953    0.0000 C   0  0  0  0  0  0  0  0  0  0  0  0
    3.7320   -0.7047    0.0000 C   0  0  0  0  0  0  0  0  0  0  0  0
    3.7320    0.2953    0.0000 C   0  0  0  0  0  0  0  0  0  0  0  0
    4.5981   -1.2047    0.0000 C   0  0  0  0  0  0  0  0  0  0  0  0
    2.8660   -1.2047    0.0000 C   0  0  0  0  0  0  0  0  0  0  0  0
    4.5981   -2.2047    0.0000 C   0  0  0  0  0  0  0  0  0  0  0  0
    6.3776    1.8886    0.0000 C   0  0  0  0  0  0  0  0  0  0  0  0
    2.8660   -2.2047    0.0000 C   0  0  0  0  0  0  0  0  0  0  0  0
    3.7320   -2.7047    0.0000 C   0  0  0  0  0  0  0  0  0  0  0  0
    7.0468    2.6317    0.0000 C   0  0  0  0  0  0  0  0  0  0  0  0
    5.4641   -3.7047    0.0000 C   0  0  0  0  0  0  0  0  0  0  0  0
    4.3860    2.3779    0.0000 H   0  0  0  0  0  0  0  0  0  0  0  0
    3.9875    1.6876    0.0000 H   0  0  0  0  0  0  0  0  0  0  0  0
    5.1350    0.4853    0.0000 H   0  0  0  0  0  0  0  0  0  0  0  0
    5.1350   -0.8947    0.0000 H   0  0  0  0  0  0  0  0  0  0  0  0
    6.5066    1.2821    0.0000 H   0  0  0  0  0  0  0  0  0  0  0  0
    5.1079    3.7047    0.0000 H   0  0  0  0  0  0  0  0  0  0  0  0
    2.3291   -2.5147    0.0000 H   0  0  0  0  0  0  0  0  0  0  0  0
    3.7320   -3.3247    0.0000 H   0  0  0  0  0  0  0  0  0  0  0  0
    7.6634    2.5669    0.0000 H   0  0  0  0  0  0  0  0  0  0  0  0
    4.8441   -3.7047    0.0000 H   0  0  0  0  0  0  0  0  0  0  0  0
    5.4641   -4.3247    0.0000 H   0  0  0  0  0  0  0  0  0  0  0  0
    6.0841   -3.7047    0.0000 H   0  0  0  0  0  0  0  0  0  0  0  0
  1 12  1  0  0  0  0
  2 13  1  0  0  0  0
  2 18  1  0  0  0  0
  3 10  2  0  0  0  0
  4  7  1  0  0  0  0
  4 10  1  0  0  0  0
  4 21  1  0  0  0  0
  5  6  1  0  0  0  0
  5  8  1  0  0  0  0
  5 24  1  0  0  0  0
  6 17  2  0  0  0  0
  7  8  1  0  0  0  0
  7 19  1  0  0  0  0
  7 20  1  0  0  0  0
  8 14  2  0  0  0  0
  9 10  1  0  0  0  0
  9 11  1  0  0  0  0
  9 12  2  0  0  0  0
 11 13  2  0  0  0  0
 11 22  1  0  0  0  0
 12 15  1  0  0  0  0
 13 16  1  0  0  0  0
 14 17  1  0  0  0  0
 14 23  1  0  0  0  0
 15 16  2  0  0  0  0
 15 25  1  0  0  0  0
 16 26  1  0  0  0  0
 17 27  1  0  0  0  0
 18 28  1  0  0  0  0
 18 29  1  0  0  0  0
 18 30  1  0  0  0  0
M  END
> <PUBCHEM_COMPOUND_CID>
47205079

> <PUBCHEM_COMPOUND_CANONICALIZED>
1

> <PUBCHEM_CACTVS_COMPLEXITY>
293

> <PUBCHEM_CACTVS_HBOND_ACCEPTOR>
3

> <PUBCHEM_CACTVS_HBOND_DONOR>
2

> <PUBCHEM_CACTVS_ROTATABLE_BOND>
4

> <PUBCHEM_CACTVS_SUBSKEYS>
AAADccBzIABEAAAAAAAAAAAAAAAAAWAAAAAwAAAAAAAAAAABwAAAHgYYAAAADArB3iS+gZLjAAiqAzV3UACSBAAkjxAYubk4ZtgIYLKh19GUpQhgngCIzYcYiACOAAIAgAABAAAABAEAAAIAAAAAAAAAAA==

> <PUBCHEM_IUPAC_OPENEYE_NAME>
2-chloro-5-methylsulfanyl-N-(1H-pyrazol-5-ylmethyl)benzamide

> <PUBCHEM_IUPAC_CAS_NAME>
2-chloro-5-(methylthio)-N-(1H-pyrazol-5-ylmethyl)benzamide

> <PUBCHEM_IUPAC_NAME>
2-chloro-5-methylsulfanyl-N-(1H-pyrazol-5-ylmethyl)benzamide

> <PUBCHEM_IUPAC_SYSTEMATIC_NAME>
2-chloranyl-5-methylsulfanyl-N-(1H-pyrazol-5-ylmethyl)benzamide

> <PUBCHEM_IUPAC_TRADITIONAL_NAME>
2-chloro-5-(methylthio)-N-(1H-pyrazol-5-ylmethyl)benzamide

> <PUBCHEM_IUPAC_INCHI>
InChI=1S/C12H12ClN3OS/c1-18-9-2-3-11(13)10(6-9)12(17)14-7-8-4-5-15-16-8/h2-6H,7H2,1H3,(H,14,17)(H,15,16)

> <PUBCHEM_IUPAC_INCHIKEY>
BARSJQNVPTURLS-UHFFFAOYSA-N

> <PUBCHEM_XLOGP3_AA>
2.2

> <PUBCHEM_EXACT_MASS>
281.038961

> <PUBCHEM_MOLECULAR_FORMULA>
C12H12ClN3OS

> <PUBCHEM_MOLECULAR_WEIGHT>
281.76118

> <PUBCHEM_OPENEYE_CAN_SMILES>
CSC1=CC(=C(C=C1)Cl)C(=O)NCC2=CC=NN2

> <PUBCHEM_OPENEYE_ISO_SMILES>
CSC1=CC(=C(C=C1)Cl)C(=O)NCC2=CC=NN2

> <PUBCHEM_CACTVS_TPSA>
83.1

> <PUBCHEM_MONOISOTOPIC_WEIGHT>
281.038961

> <PUBCHEM_TOTAL_CHARGE>
0

> <PUBCHEM_HEAVY_ATOM_COUNT>
18

> <PUBCHEM_ATOM_DEF_STEREO_COUNT>
0

> <PUBCHEM_ATOM_UDEF_STEREO_COUNT>
0

> <PUBCHEM_BOND_DEF_STEREO_COUNT>
0

> <PUBCHEM_BOND_UDEF_STEREO_COUNT>
0

> <PUBCHEM_ISOTOPIC_ATOM_COUNT>
0

> <PUBCHEM_COMPONENT_COUNT>
1

> <PUBCHEM_CACTVS_TAUTO_COUNT>
4

> <PUBCHEM_COORDINATE_TYPE>
1
5
255

> <PUBCHEM_BONDANNOTATIONS>
11  13  8
12  15  8
13  16  8
14  17  8
15  16  8
5  6  8
5  8  8
6  17  8
8  14  8
9  11  8
9  12  8

$$$$

