   Color/Form

     * Fine black powder
     * Black solid

   from [1]HSDB

   Odor
        Odorless
   from [2]HSDB

   Boiling Point
        4200 deg C
   from [3]HSDB

   Melting Point
        Sublimes
   from [4]HSDB

   Density/Specific Gravity
        1.8-2.1
   from [5]HSDB

   Solubilities

     * INSOL IN ALL SOLVENTS
     * Insoluble in water

   from [6]HSDB

   Vapor Pressure
        Negligible at 20 deg C
   from [7]HSDB

   Other Chemical/Physical Properties

     * Sublimates at 3652-97 deg C
     * X-ray diffraction reveals a structure similar to, but less regular
       than graphite; particle sizes from 5-500 nm; appear spherical under
       electron microscope

   from [8]HSDB

   Computed Properties
   Molecular Weight                  16.04246 [g/mol]
   Molecular Formula                 CH[4]
   XLogP3-AA                         0.6
   H-Bond Donor                      0
   H-Bond Acceptor                   0
   Rotatable Bond Count              0
   Exact Mass                        16.0313
   MonoIsotopic Mass                 16.0313
   Topological Polar Surface Area    0
   Heavy Atom Count                  1
   Formal Charge                     0
   Complexity                        0
   Isotope Atom Count                0
   Defined Atom Stereocenter Count   0
   Undefined Atom Stereocenter Count 0
   Defined Bond Stereocenter Count   0
   Undefined Bond Stereocenter Count 0
   Covalently-Bonded Unit Count      1
   Effective Rotor Count             0
   Conformer Sampling RMSD           0.4
   CID Conformer Count               [9]1

References

   1. http://toxnet.nlm.nih.gov/cgi-bin/sis/search/r?dbs+hsdb:@term+@rn+@rel+1333-86-4
   2. http://toxnet.nlm.nih.gov/cgi-bin/sis/search/r?dbs+hsdb:@term+@rn+@rel+1333-86-4
   3. http://toxnet.nlm.nih.gov/cgi-bin/sis/search/r?dbs+hsdb:@term+@rn+@rel+1333-86-4
   4. http://toxnet.nlm.nih.gov/cgi-bin/sis/search/r?dbs+hsdb:@term+@rn+@rel+1333-86-4
   5. http://toxnet.nlm.nih.gov/cgi-bin/sis/search/r?dbs+hsdb:@term+@rn+@rel+1333-86-4
   6. http://toxnet.nlm.nih.gov/cgi-bin/sis/search/r?dbs+hsdb:@term+@rn+@rel+1333-86-4
   7. http://toxnet.nlm.nih.gov/cgi-bin/sis/search/r?dbs+hsdb:@term+@rn+@rel+1333-86-4
   8. http://toxnet.nlm.nih.gov/cgi-bin/sis/search/r?dbs+hsdb:@term+@rn+@rel+1333-86-4
   9. http://pubchem.ncbi.nlm.nih.gov/vw3d/vw3d.cgi?cid=297
