   Color/Form
        Colorless gas [Note: Shipped as a liquefied compressed gas].
   from [1]HSDB

   Odor
        Faint, ethereal odor.
   from [2]HSDB

   Boiling Point
        -72 deg C
   from [3]HSDB

   Melting Point
        -160.5 deg C
   from [4]HSDB

   Critical Temperature and Pressure
        Critical tempurature = 54.7 deg C; Critical pressure = 5.1 MPa
   from [5]HSDB

   Density/Specific Gravity
        0.636 (liquid) at 21 deg C
   from [6]HSDB

   Heat of Combustion
        -1.01E+8 J/kmol
   from [7]HSDB

   Heat of Vaporization
        2.2243X10+07 J/kmol at melting point
   from [8]HSDB

   Octanol/Water Partition Coefficient
        log Kow = 1.19 /Estimated/
   from [9]HSDB

   Solubilities

     * Soluble in ether.
     * Soluble in ethanol and acetone
     * Water solubility at 80 deg C (g/100 g water): 0.94 (at 3.4 MPa),
       1.54 (at 6.9 MPa)
     * In water, 1.29X10+4 mg/L at 25 deg C /Estimated/

   from [10]HSDB

   Spectral Properties

     * Sadtler Ref Number: 30864 (IR, prism)
     * MASS: 79 (NIST/EPA/MSDC Mass Spectral Database, 1990 version)

   from [11]HSDB

   Surface Tension
        3.4137E-02 newtons/meter @ melting point
   from [12]HSDB

   Vapor Density
        1.58 (Air= 1)
   from [13]HSDB

   Vapor Pressure
        1.98X10+4 mm Hg at 25 deg C /Extrapolated/
   from [14]HSDB

   Viscosity
        3.2347E-04 pascal/seconds (liquid) @ boiling point
   from [15]HSDB

   Other Chemical/Physical Properties

     * 1 mg/cu m = 2.62 ppm
     * Heat of evaporation: 13494 J/mol at -20 deg C; Density = 0.775 g/cu
       cm at -30 deg C; Critical density = 0.320 g/cu cm
     * Vapor pressure = 2.4 mPa @ 21 deg C
     * Liquid molar volume = 0.053091 cu m/kmol; Heat of formation =
       -1.3891X10+08 J/kmol
     * Henry's Law constant = 1.2X10-1 atm-cu m/mole at 25 deg C
       /Estimated/
     * Hydroxyl radical reaction rate constant = 5.56X10-12 cu
       cm/molec-sec at 25 deg C

   from [16]HSDB

   Computed Properties
   Molecular Weight                  46.043623 [g/mol]
   Molecular Formula                 C[2]H[3]F
   XLogP3-AA                         1
   H-Bond Donor                      0
   H-Bond Acceptor                   1
   Rotatable Bond Count              0
   Exact Mass                        46.021878
   MonoIsotopic Mass                 46.021878
   Topological Polar Surface Area    0
   Heavy Atom Count                  3
   Formal Charge                     0
   Complexity                        10.3
   Isotope Atom Count                0
   Defined Atom Stereocenter Count   0
   Undefined Atom Stereocenter Count 0
   Defined Bond Stereocenter Count   0
   Undefined Bond Stereocenter Count 0
   Covalently-Bonded Unit Count      1
   Effective Rotor Count             0
   Conformer Sampling RMSD           0.4
   CID Conformer Count               [17]1

References

   1. http://toxnet.nlm.nih.gov/cgi-bin/sis/search/r?dbs+hsdb:@term+@rn+@rel+75-02-5
   2. http://toxnet.nlm.nih.gov/cgi-bin/sis/search/r?dbs+hsdb:@term+@rn+@rel+75-02-5
   3. http://toxnet.nlm.nih.gov/cgi-bin/sis/search/r?dbs+hsdb:@term+@rn+@rel+75-02-5
   4. http://toxnet.nlm.nih.gov/cgi-bin/sis/search/r?dbs+hsdb:@term+@rn+@rel+75-02-5
   5. http://toxnet.nlm.nih.gov/cgi-bin/sis/search/r?dbs+hsdb:@term+@rn+@rel+75-02-5
   6. http://toxnet.nlm.nih.gov/cgi-bin/sis/search/r?dbs+hsdb:@term+@rn+@rel+75-02-5
   7. http://toxnet.nlm.nih.gov/cgi-bin/sis/search/r?dbs+hsdb:@term+@rn+@rel+75-02-5
   8. http://toxnet.nlm.nih.gov/cgi-bin/sis/search/r?dbs+hsdb:@term+@rn+@rel+75-02-5
   9. http://toxnet.nlm.nih.gov/cgi-bin/sis/search/r?dbs+hsdb:@term+@rn+@rel+75-02-5
  10. http://toxnet.nlm.nih.gov/cgi-bin/sis/search/r?dbs+hsdb:@term+@rn+@rel+75-02-5
  11. http://toxnet.nlm.nih.gov/cgi-bin/sis/search/r?dbs+hsdb:@term+@rn+@rel+75-02-5
  12. http://toxnet.nlm.nih.gov/cgi-bin/sis/search/r?dbs+hsdb:@term+@rn+@rel+75-02-5
  13. http://toxnet.nlm.nih.gov/cgi-bin/sis/search/r?dbs+hsdb:@term+@rn+@rel+75-02-5
  14. http://toxnet.nlm.nih.gov/cgi-bin/sis/search/r?dbs+hsdb:@term+@rn+@rel+75-02-5
  15. http://toxnet.nlm.nih.gov/cgi-bin/sis/search/r?dbs+hsdb:@term+@rn+@rel+75-02-5
  16. http://toxnet.nlm.nih.gov/cgi-bin/sis/search/r?dbs+hsdb:@term+@rn+@rel+75-02-5
  17. http://pubchem.ncbi.nlm.nih.gov/vw3d/vw3d.cgi?cid=6339
