443009
  -OEChem-07051213002D

 24 26  0     1  0  0  0  0  0999 V2000
    3.3021   -1.6462    0.0000 O   0  0  0  0  0  0  0  0  0  0  0  0
    5.3718   -0.4228    0.0000 O   0  0  0  0  0  0  0  0  0  0  0  0
    3.1117    0.8372    0.0000 N   0  0  3  0  0  0  0  0  0  0  0  0
    2.8027   -0.1138    0.0000 C   0  0  3  0  0  0  0  0  0  0  0  0
    3.6117   -0.7016    0.0000 C   0  0  3  0  0  0  0  0  0  0  0  0
    4.1117    0.8372    0.0000 C   0  0  3  0  0  0  0  0  0  0  0  0
    2.3080   -1.6454    0.0000 C   0  0  3  0  0  0  0  0  0  0  0  0
    4.4207   -0.1138    0.0000 C   0  0  2  0  0  0  0  0  0  0  0  0
    2.0000   -0.7002    0.0000 C   0  0  0  0  0  0  0  0  0  0  0  0
    2.4932    0.1166    0.0000 C   0  0  0  0  0  0  0  0  0  0  0  0
    2.5239    1.6462    0.0000 C   0  0  0  0  0  0  0  0  0  0  0  0
    3.6111    0.1488    0.0000 H   0  0  0  0  0  0  0  0  0  0  0  0
    4.2987   -1.2021    0.0000 H   0  0  0  0  0  0  0  0  0  0  0  0
    4.6113    1.5249    0.0000 H   0  0  0  0  0  0  0  0  0  0  0  0
    1.8084   -2.3330    0.0000 H   0  0  0  0  0  0  0  0  0  0  0  0
    4.5177   -0.7262    0.0000 H   0  0  0  0  0  0  0  0  0  0  0  0
    1.6889   -0.1639    0.0000 H   0  0  0  0  0  0  0  0  0  0  0  0
    1.4340   -0.9532    0.0000 H   0  0  0  0  0  0  0  0  0  0  0  0
    2.3432    0.7182    0.0000 H   0  0  0  0  0  0  0  0  0  0  0  0
    1.8747    0.0734    0.0000 H   0  0  0  0  0  0  0  0  0  0  0  0
    3.0255    2.0107    0.0000 H   0  0  0  0  0  0  0  0  0  0  0  0
    2.1595    2.1478    0.0000 H   0  0  0  0  0  0  0  0  0  0  0  0
    2.0224    1.2818    0.0000 H   0  0  0  0  0  0  0  0  0  0  0  0
    5.8326   -0.0080    0.0000 H   0  0  0  0  0  0  0  0  0  0  0  0
  1  5  1  0  0  0  0
  1  7  1  0  0  0  0
  8  2  1  6  0  0  0
  2 24  1  0  0  0  0
  3  4  1  0  0  0  0
  3  6  1  0  0  0  0
  3 11  1  0  0  0  0
  4  5  1  0  0  0  0
  4  9  1  0  0  0  0
  4 12  1  0  0  0  0
  5  8  1  0  0  0  0
  5 13  1  0  0  0  0
  6  8  1  0  0  0  0
  6 10  1  0  0  0  0
  6 14  1  0  0  0  0
  7  9  1  0  0  0  0
  7 10  1  0  0  0  0
  7 15  1  0  0  0  0
  8 16  1  0  0  0  0
  9 17  1  0  0  0  0
  9 18  1  0  0  0  0
 10 19  1  0  0  0  0
 10 20  1  0  0  0  0
 11 21  1  0  0  0  0
 11 22  1  0  0  0  0
 11 23  1  0  0  0  0
M  END
> <PUBCHEM_COMPOUND_CID>
443009

> <PUBCHEM_COMPOUND_CANONICALIZED>
1

> <PUBCHEM_CACTVS_COMPLEXITY>
197

> <PUBCHEM_CACTVS_HBOND_ACCEPTOR>
3

> <PUBCHEM_CACTVS_HBOND_DONOR>
1

> <PUBCHEM_CACTVS_ROTATABLE_BOND>
0

> <PUBCHEM_CACTVS_SUBSKEYS>
AAADccByMAAAAAAAAAAAAAAAAAAAAWJAAAAsSAAAAAAAAAAAAAAAHgAACAAACDzhgAYCAAMABgAAAAAAAAAAAAAAAAAAAAAIAAADEAIAgAAHQAAGAACTAAHQ4CQAAAAAAAAAAAAAAAAAAAAAAAAAAAAAAA==

> <PUBCHEM_IUPAC_INCHI>
InChI=1S/C8H13NO2/c1-9-5-2-4-3-6(9)8(11-4)7(5)10/h4-8,10H,2-3H2,1H3/t4?,5?,6?,7-,8?/m0/s1

> <PUBCHEM_IUPAC_INCHIKEY>
MEGPURSNXMUDAE-IKTQEEBSSA-N

> <PUBCHEM_XLOGP3_AA>
-0.2

> <PUBCHEM_EXACT_MASS>
155.094629

> <PUBCHEM_MOLECULAR_FORMULA>
C8H13NO2

> <PUBCHEM_MOLECULAR_WEIGHT>
155.19432

> <PUBCHEM_OPENEYE_CAN_SMILES>
CN1C2CC3CC1C(C2O)O3

> <PUBCHEM_OPENEYE_ISO_SMILES>
CN1C2CC3CC1C([C@H]2O)O3

> <PUBCHEM_CACTVS_TPSA>
32.7

> <PUBCHEM_MONOISOTOPIC_WEIGHT>
155.094629

> <PUBCHEM_TOTAL_CHARGE>
0

> <PUBCHEM_HEAVY_ATOM_COUNT>
11

> <PUBCHEM_ATOM_DEF_STEREO_COUNT>
1

> <PUBCHEM_ATOM_UDEF_STEREO_COUNT>
4

> <PUBCHEM_BOND_DEF_STEREO_COUNT>
0

> <PUBCHEM_BOND_UDEF_STEREO_COUNT>
0

> <PUBCHEM_ISOTOPIC_ATOM_COUNT>
0

> <PUBCHEM_COMPONENT_COUNT>
1

> <PUBCHEM_CACTVS_TAUTO_COUNT>
1

> <PUBCHEM_COORDINATE_TYPE>
1
5
255

> <PUBCHEM_BONDANNOTATIONS>
8  2  6
4  12  3
5  13  3
6  14  3
7  15  3

$$$$

