14945680
  -OEChem-07051213082D

 28 29  0     0  0  0  0  0  0999 V2000
    3.7320    2.7500    0.0000 O   0  0  0  0  0  0  0  0  0  0  0  0
    2.8660    1.2500    0.0000 O   0  0  0  0  0  0  0  0  0  0  0  0
    2.8660   -2.7500    0.0000 O   0  0  0  0  0  0  0  0  0  0  0  0
    2.0000   -1.2500    0.0000 O   0  0  0  0  0  0  0  0  0  0  0  0
    6.3301    0.2500    0.0000 C   0  0  0  0  0  0  0  0  0  0  0  0
    6.3301    1.2500    0.0000 C   0  0  0  0  0  0  0  0  0  0  0  0
    4.5981    0.2500    0.0000 C   0  0  0  0  0  0  0  0  0  0  0  0
    4.5981    1.2500    0.0000 C   0  0  0  0  0  0  0  0  0  0  0  0
    5.4641   -0.2500    0.0000 C   0  0  0  0  0  0  0  0  0  0  0  0
    5.4641    1.7500    0.0000 C   0  0  0  0  0  0  0  0  0  0  0  0
    7.2241   -0.2847    0.0000 C   0  0  0  0  0  0  0  0  0  0  0  0
    7.2241    1.7847    0.0000 C   0  0  0  0  0  0  0  0  0  0  0  0
    8.1301    0.2292    0.0000 C   0  0  0  0  0  0  0  0  0  0  0  0
    8.1301    1.2708    0.0000 C   0  0  0  0  0  0  0  0  0  0  0  0
    3.7320   -0.2500    0.0000 C   0  0  0  0  0  0  0  0  0  0  0  0
    3.7320    1.7500    0.0000 C   0  0  0  0  0  0  0  0  0  0  0  0
    3.7320   -1.2500    0.0000 C   0  0  0  0  0  0  0  0  0  0  0  0
    2.8660   -1.7500    0.0000 C   0  0  0  0  0  0  0  0  0  0  0  0
    5.4641   -0.8700    0.0000 H   0  0  0  0  0  0  0  0  0  0  0  0
    5.4641    2.3700    0.0000 H   0  0  0  0  0  0  0  0  0  0  0  0
    7.2169   -0.9046    0.0000 H   0  0  0  0  0  0  0  0  0  0  0  0
    7.2169    2.4046    0.0000 H   0  0  0  0  0  0  0  0  0  0  0  0
    8.6659   -0.0829    0.0000 H   0  0  0  0  0  0  0  0  0  0  0  0
    8.6659    1.5829    0.0000 H   0  0  0  0  0  0  0  0  0  0  0  0
    3.1951    0.0600    0.0000 H   0  0  0  0  0  0  0  0  0  0  0  0
    4.2690   -1.5600    0.0000 H   0  0  0  0  0  0  0  0  0  0  0  0
    3.1951    3.0600    0.0000 H   0  0  0  0  0  0  0  0  0  0  0  0
    2.3291   -3.0600    0.0000 H   0  0  0  0  0  0  0  0  0  0  0  0
  1 16  1  0  0  0  0
  1 27  1  0  0  0  0
  2 16  2  0  0  0  0
  3 18  1  0  0  0  0
  3 28  1  0  0  0  0
  4 18  2  0  0  0  0
  5  6  1  0  0  0  0
  5  9  1  0  0  0  0
  5 11  2  0  0  0  0
  6 10  1  0  0  0  0
  6 12  2  0  0  0  0
  7  8  1  0  0  0  0
  7  9  2  0  0  0  0
  7 15  1  0  0  0  0
  8 10  2  0  0  0  0
  8 16  1  0  0  0  0
  9 19  1  0  0  0  0
 10 20  1  0  0  0  0
 11 13  1  0  0  0  0
 11 21  1  0  0  0  0
 12 14  1  0  0  0  0
 12 22  1  0  0  0  0
 13 14  2  0  0  0  0
 13 23  1  0  0  0  0
 14 24  1  0  0  0  0
 15 17  2  0  0  0  0
 15 25  1  0  0  0  0
 17 18  1  0  0  0  0
 17 26  1  0  0  0  0
M  END
> <PUBCHEM_COMPOUND_CID>
14945680

> <PUBCHEM_COMPOUND_CANONICALIZED>
1

> <PUBCHEM_CACTVS_COMPLEXITY>
361

> <PUBCHEM_CACTVS_HBOND_ACCEPTOR>
4

> <PUBCHEM_CACTVS_HBOND_DONOR>
2

> <PUBCHEM_CACTVS_ROTATABLE_BOND>
3

> <PUBCHEM_CACTVS_SUBSKEYS>
AAADccBwOAAAAAAAAAAAAAAAAAAAAAAAAAAwYAAAAAAAAADBUAAAGgAACAAADACAmAAwCMAAAgCIAiDSCAACAAAkAAAIiAEACMgIJjKAFRCAcQAkwAEImYeIyPCOwAACAAAQAACAAAQAACAAAAAAAAAAAA==

> <PUBCHEM_IUPAC_OPENEYE_NAME>
3-[(E)-2-carboxyvinyl]naphthalene-2-carboxylic acid

> <PUBCHEM_IUPAC_CAS_NAME>
3-[(E)-2-carboxyethenyl]-2-naphthalenecarboxylic acid

> <PUBCHEM_IUPAC_NAME>
3-[(E)-2-carboxyethenyl]naphthalene-2-carboxylic acid

> <PUBCHEM_IUPAC_SYSTEMATIC_NAME>
3-[(E)-3-oxidanyl-3-oxidanylidene-prop-1-enyl]naphthalene-2-carboxylic acid

> <PUBCHEM_IUPAC_TRADITIONAL_NAME>
3-[(E)-2-carboxyvinyl]-2-naphthoic acid

> <PUBCHEM_IUPAC_INCHI>
InChI=1S/C14H10O4/c15-13(16)6-5-11-7-9-3-1-2-4-10(9)8-12(11)14(17)18/h1-8H,(H,15,16)(H,17,18)/b6-5+

> <PUBCHEM_IUPAC_INCHIKEY>
BWVRZRDHGKPOON-AATRIKPKSA-N

> <PUBCHEM_XLOGP3_AA>
2.7

> <PUBCHEM_EXACT_MASS>
242.057909

> <PUBCHEM_MOLECULAR_FORMULA>
C14H10O4

> <PUBCHEM_MOLECULAR_WEIGHT>
242.2268

> <PUBCHEM_OPENEYE_CAN_SMILES>
C1=CC=C2C=C(C(=CC2=C1)C=CC(=O)O)C(=O)O

> <PUBCHEM_OPENEYE_ISO_SMILES>
C1=CC=C2C=C(C(=CC2=C1)/C=C/C(=O)O)C(=O)O

> <PUBCHEM_CACTVS_TPSA>
74.6

> <PUBCHEM_MONOISOTOPIC_WEIGHT>
242.057909

> <PUBCHEM_TOTAL_CHARGE>
0

> <PUBCHEM_HEAVY_ATOM_COUNT>
18

> <PUBCHEM_ATOM_DEF_STEREO_COUNT>
0

> <PUBCHEM_ATOM_UDEF_STEREO_COUNT>
0

> <PUBCHEM_BOND_DEF_STEREO_COUNT>
1

> <PUBCHEM_BOND_UDEF_STEREO_COUNT>
0

> <PUBCHEM_ISOTOPIC_ATOM_COUNT>
0

> <PUBCHEM_COMPONENT_COUNT>
1

> <PUBCHEM_CACTVS_TAUTO_COUNT>
1

> <PUBCHEM_COORDINATE_TYPE>
1
5
255

> <PUBCHEM_BONDANNOTATIONS>
11  13  8
12  14  8
13  14  8
5  11  8
5  6  8
5  9  8
6  10  8
6  12  8
7  8  8
7  9  8
8  10  8

$$$$

