586303
  -OEChem-06241222462D

 33 34  0     0  0  0  0  0  0999 V2000
    4.6551    2.8184    0.0000 S   0  0  0  0  0  0  0  0  0  0  0  0
    5.4641   -0.7694    0.0000 O   0  0  0  0  0  0  0  0  0  0  0  0
    3.7320   -0.7694    0.0000 N   0  0  0  0  0  0  0  0  0  0  0  0
    3.7320   -1.7694    0.0000 C   0  0  0  0  0  0  0  0  0  0  0  0
    2.8660   -2.2694    0.0000 C   0  0  0  0  0  0  0  0  0  0  0  0
    4.5981   -2.2694    0.0000 C   0  0  0  0  0  0  0  0  0  0  0  0
    2.8660   -3.2694    0.0000 C   0  0  0  0  0  0  0  0  0  0  0  0
    4.5981   -3.2694    0.0000 C   0  0  0  0  0  0  0  0  0  0  0  0
    3.7320   -3.7694    0.0000 C   0  0  0  0  0  0  0  0  0  0  0  0
    2.0000   -1.7694    0.0000 C   0  0  0  0  0  0  0  0  0  0  0  0
    5.4641   -1.7694    0.0000 C   0  0  0  0  0  0  0  0  0  0  0  0
    4.5981   -0.2694    0.0000 C   0  0  0  0  0  0  0  0  0  0  0  0
    4.5981    0.7306    0.0000 C   0  0  0  0  0  0  0  0  0  0  0  0
    5.4641    1.2306    0.0000 C   0  0  0  0  0  0  0  0  0  0  0  0
    5.4641    2.2306    0.0000 C   0  0  0  0  0  0  0  0  0  0  0  0
    6.2731    2.8184    0.0000 C   0  0  0  0  0  0  0  0  0  0  0  0
    5.9641    3.7694    0.0000 C   0  0  0  0  0  0  0  0  0  0  0  0
    4.9641    3.7694    0.0000 C   0  0  0  0  0  0  0  0  0  0  0  0
    2.3291   -3.5794    0.0000 H   0  0  0  0  0  0  0  0  0  0  0  0
    5.1350   -3.5794    0.0000 H   0  0  0  0  0  0  0  0  0  0  0  0
    3.1951   -0.4594    0.0000 H   0  0  0  0  0  0  0  0  0  0  0  0
    3.7320   -4.3894    0.0000 H   0  0  0  0  0  0  0  0  0  0  0  0
    2.3100   -1.2325    0.0000 H   0  0  0  0  0  0  0  0  0  0  0  0
    1.4631   -1.4594    0.0000 H   0  0  0  0  0  0  0  0  0  0  0  0
    1.6900   -2.3064    0.0000 H   0  0  0  0  0  0  0  0  0  0  0  0
    5.7741   -2.3064    0.0000 H   0  0  0  0  0  0  0  0  0  0  0  0
    6.0010   -1.4594    0.0000 H   0  0  0  0  0  0  0  0  0  0  0  0
    5.1541   -1.2325    0.0000 H   0  0  0  0  0  0  0  0  0  0  0  0
    4.0611    1.0406    0.0000 H   0  0  0  0  0  0  0  0  0  0  0  0
    6.0010    0.9206    0.0000 H   0  0  0  0  0  0  0  0  0  0  0  0
    6.8628    2.6268    0.0000 H   0  0  0  0  0  0  0  0  0  0  0  0
    6.3285    4.2710    0.0000 H   0  0  0  0  0  0  0  0  0  0  0  0
    4.5997    4.2710    0.0000 H   0  0  0  0  0  0  0  0  0  0  0  0
  1 15  1  0  0  0  0
  1 18  1  0  0  0  0
  2 12  2  0  0  0  0
  3  4  1  0  0  0  0
  3 12  1  0  0  0  0
  3 21  1  0  0  0  0
  4  5  2  0  0  0  0
  4  6  1  0  0  0  0
  5  7  1  0  0  0  0
  5 10  1  0  0  0  0
  6  8  2  0  0  0  0
  6 11  1  0  0  0  0
  7  9  2  0  0  0  0
  7 19  1  0  0  0  0
  8  9  1  0  0  0  0
  8 20  1  0  0  0  0
  9 22  1  0  0  0  0
 10 23  1  0  0  0  0
 10 24  1  0  0  0  0
 10 25  1  0  0  0  0
 11 26  1  0  0  0  0
 11 27  1  0  0  0  0
 11 28  1  0  0  0  0
 12 13  1  0  0  0  0
 13 14  2  3  0  0  0
 13 29  1  0  0  0  0
 14 15  1  0  0  0  0
 14 30  1  0  0  0  0
 15 16  2  0  0  0  0
 16 17  1  0  0  0  0
 16 31  1  0  0  0  0
 17 18  2  0  0  0  0
 17 32  1  0  0  0  0
 18 33  1  0  0  0  0
M  END
> <PUBCHEM_COMPOUND_CID>
586303

> <PUBCHEM_COMPOUND_CANONICALIZED>
1

> <PUBCHEM_CACTVS_COMPLEXITY>
306

> <PUBCHEM_CACTVS_HBOND_ACCEPTOR>
2

> <PUBCHEM_CACTVS_HBOND_DONOR>
1

> <PUBCHEM_CACTVS_ROTATABLE_BOND>
3

> <PUBCHEM_CACTVS_SUBSKEYS>
AAADccByIABAAAAAAAAAAAAAAAAAASAAAAAwAAAAAAAAAAABwAAAHgQQAAAADAiF2ACywYLAAAiMAiVSUACDAIAhCBBIiBgARMgIICLgkZGEIAhglADoyYcQgEAOAAACAAACAAAAAAQAAAQAAAAAAAAAAA==

> <PUBCHEM_IUPAC_OPENEYE_NAME>
N-(2,6-dimethylphenyl)-3-(2-thienyl)prop-2-enamide

> <PUBCHEM_IUPAC_CAS_NAME>
N-(2,6-dimethylphenyl)-3-thiophen-2-yl-2-propenamide

> <PUBCHEM_IUPAC_NAME>
N-(2,6-dimethylphenyl)-3-thiophen-2-ylprop-2-enamide

> <PUBCHEM_IUPAC_SYSTEMATIC_NAME>
N-(2,6-dimethylphenyl)-3-thiophen-2-yl-prop-2-enamide

> <PUBCHEM_IUPAC_TRADITIONAL_NAME>
N-(2,6-dimethylphenyl)-3-(2-thienyl)acrylamide

> <PUBCHEM_IUPAC_INCHI>
InChI=1S/C15H15NOS/c1-11-5-3-6-12(2)15(11)16-14(17)9-8-13-7-4-10-18-13/h3-10H,1-2H3,(H,16,17)

> <PUBCHEM_IUPAC_INCHIKEY>
JWHISZRISTZQIK-UHFFFAOYSA-N

> <PUBCHEM_XLOGP3_AA>
3.6

> <PUBCHEM_EXACT_MASS>
257.087435

> <PUBCHEM_MOLECULAR_FORMULA>
C15H15NOS

> <PUBCHEM_MOLECULAR_WEIGHT>
257.3507

> <PUBCHEM_OPENEYE_CAN_SMILES>
CC1=C(C(=CC=C1)C)NC(=O)C=CC2=CC=CS2

> <PUBCHEM_OPENEYE_ISO_SMILES>
CC1=C(C(=CC=C1)C)NC(=O)C=CC2=CC=CS2

> <PUBCHEM_CACTVS_TPSA>
57.3

> <PUBCHEM_MONOISOTOPIC_WEIGHT>
257.087435

> <PUBCHEM_TOTAL_CHARGE>
0

> <PUBCHEM_HEAVY_ATOM_COUNT>
18

> <PUBCHEM_ATOM_DEF_STEREO_COUNT>
0

> <PUBCHEM_ATOM_UDEF_STEREO_COUNT>
0

> <PUBCHEM_BOND_DEF_STEREO_COUNT>
0

> <PUBCHEM_BOND_UDEF_STEREO_COUNT>
1

> <PUBCHEM_ISOTOPIC_ATOM_COUNT>
0

> <PUBCHEM_COMPONENT_COUNT>
1

> <PUBCHEM_CACTVS_TAUTO_COUNT>
2

> <PUBCHEM_COORDINATE_TYPE>
1
5
255

> <PUBCHEM_BONDANNOTATIONS>
1  15  8
1  18  8
13  14  1
15  16  8
16  17  8
17  18  8
4  5  8
4  6  8
5  7  8
6  8  8
7  9  8
8  9  8

$$$$

