23724596
  -OEChem-07051213082D

 78 81  0     1  0  0  0  0  0999 V2000
    2.5357   -2.5247    0.0000 O   0  0  0  0  0  0  0  0  0  0  0  0
    4.3500   -4.3026    0.0000 O   0  0  0  0  0  0  0  0  0  0  0  0
    2.8467   -3.4423    0.0000 O   0  0  0  0  0  0  0  0  0  0  0  0
    7.9288    0.5277    0.0000 C   0  0  1  0  0  0  0  0  0  0  0  0
    7.9288   -0.4723    0.0000 C   0  0  3  0  0  0  0  0  0  0  0  0
    5.2868   -0.9792    0.0000 C   0  0  1  0  0  0  0  0  0  0  0  0
    8.8750    0.8324    0.0000 C   0  0  3  0  0  0  0  0  0  0  0  0
    5.2787   -2.0208    0.0000 C   0  0  2  0  0  0  0  0  0  0  0  0
    7.0628   -0.9723    0.0000 C   0  0  0  0  0  0  0  0  0  0  0  0
    6.1968   -0.4723    0.0000 C   0  0  0  0  0  0  0  0  0  0  0  0
    7.0628    1.0276    0.0000 C   0  0  0  0  0  0  0  0  0  0  0  0
    8.8750   -0.7771    0.0000 C   0  0  0  0  0  0  0  0  0  0  0  0
    9.4586    0.0277    0.0000 C   0  0  0  0  0  0  0  0  0  0  0  0
    6.1968    0.5277    0.0000 C   0  0  0  0  0  0  0  0  0  0  0  0
    4.3433   -2.5705    0.0000 C   0  0  2  0  0  0  0  0  0  0  0  0
    6.1808   -2.5416    0.0000 C   0  0  0  0  0  0  0  0  0  0  0  0
    7.0789   -2.0139    0.0000 C   0  0  0  0  0  0  0  0  0  0  0  0
    4.3599   -0.4151    0.0000 C   0  0  0  0  0  0  0  0  0  0  0  0
    9.1857    1.7829    0.0000 C   0  0  1  0  0  0  0  0  0  0  0  0
    7.9288    1.5276    0.0000 C   0  0  0  0  0  0  0  0  0  0  0  0
    3.4037   -2.0280    0.0000 C   0  0  2  0  0  0  0  0  0  0  0  0
    3.4120   -0.9431    0.0000 C   0  0  0  0  0  0  0  0  0  0  0  0
    5.2945    0.0208    0.0000 C   0  0  0  0  0  0  0  0  0  0  0  0
    4.8466   -3.4346    0.0000 C   0  0  0  0  0  0  0  0  0  0  0  0
   10.1642    1.9891    0.0000 C   0  0  0  0  0  0  0  0  0  0  0  0
    3.8467   -3.4385    0.0000 C   0  0  0  0  0  0  0  0  0  0  0  0
    8.5179    2.5272    0.0000 C   0  0  0  0  0  0  0  0  0  0  0  0
   10.4749    2.9396    0.0000 C   0  0  0  0  0  0  0  0  0  0  0  0
   11.4534    3.1459    0.0000 C   0  0  0  0  0  0  0  0  0  0  0  0
   11.7640    4.0964    0.0000 C   0  0  0  0  0  0  0  0  0  0  0  0
   12.7425    4.3026    0.0000 C   0  0  0  0  0  0  0  0  0  0  0  0
   11.0962    4.8407    0.0000 C   0  0  0  0  0  0  0  0  0  0  0  0
    7.9944   -1.0889    0.0000 H   0  0  0  0  0  0  0  0  0  0  0  0
    9.4875    0.9286    0.0000 H   0  0  0  0  0  0  0  0  0  0  0  0
    5.2820   -2.8708    0.0000 H   0  0  0  0  0  0  0  0  0  0  0  0
    7.4613    1.5026    0.0000 H   0  0  0  0  0  0  0  0  0  0  0  0
    6.6643    1.5026    0.0000 H   0  0  0  0  0  0  0  0  0  0  0  0
    8.6240   -1.3440    0.0000 H   0  0  0  0  0  0  0  0  0  0  0  0
    9.4124   -1.0863    0.0000 H   0  0  0  0  0  0  0  0  0  0  0  0
    9.9195   -0.3871    0.0000 H   0  0  0  0  0  0  0  0  0  0  0  0
    9.9195    0.4424    0.0000 H   0  0  0  0  0  0  0  0  0  0  0  0
    5.9847    1.1103    0.0000 H   0  0  0  0  0  0  0  0  0  0  0  0
    5.5862    0.4200    0.0000 H   0  0  0  0  0  0  0  0  0  0  0  0
    5.7835   -3.0176    0.0000 H   0  0  0  0  0  0  0  0  0  0  0  0
    6.5818   -3.0145    0.0000 H   0  0  0  0  0  0  0  0  0  0  0  0
    7.2969   -2.5942    0.0000 H   0  0  0  0  0  0  0  0  0  0  0  0
    7.6880   -1.8984    0.0000 H   0  0  0  0  0  0  0  0  0  0  0  0
    4.7681    0.0515    0.0000 H   0  0  0  0  0  0  0  0  0  0  0  0
    3.9700    0.0669    0.0000 H   0  0  0  0  0  0  0  0  0  0  0  0
    9.3783    2.3722    0.0000 H   0  0  0  0  0  0  0  0  0  0  0  0
    8.5488    1.5276    0.0000 H   0  0  0  0  0  0  0  0  0  0  0  0
    7.9288    2.1476    0.0000 H   0  0  0  0  0  0  0  0  0  0  0  0
    7.3088    1.5276    0.0000 H   0  0  0  0  0  0  0  0  0  0  0  0
    3.4025   -2.6480    0.0000 H   0  0  0  0  0  0  0  0  0  0  0  0
    3.2075   -0.3578    0.0000 H   0  0  0  0  0  0  0  0  0  0  0  0
    2.8004   -1.0444    0.0000 H   0  0  0  0  0  0  0  0  0  0  0  0
    5.9145    0.0160    0.0000 H   0  0  0  0  0  0  0  0  0  0  0  0
    5.2993    0.6408    0.0000 H   0  0  0  0  0  0  0  0  0  0  0  0
    4.6745    0.0256    0.0000 H   0  0  0  0  0  0  0  0  0  0  0  0
    4.3109   -3.7467    0.0000 H   0  0  0  0  0  0  0  0  0  0  0  0
    5.1587   -3.9704    0.0000 H   0  0  0  0  0  0  0  0  0  0  0  0
    5.3824   -3.1225    0.0000 H   0  0  0  0  0  0  0  0  0  0  0  0
   10.1848    1.3695    0.0000 H   0  0  0  0  0  0  0  0  0  0  0  0
   10.7780    1.9018    0.0000 H   0  0  0  0  0  0  0  0  0  0  0  0
    8.9793    2.9413    0.0000 H   0  0  0  0  0  0  0  0  0  0  0  0
    8.1038    2.9887    0.0000 H   0  0  0  0  0  0  0  0  0  0  0  0
    8.0564    2.1131    0.0000 H   0  0  0  0  0  0  0  0  0  0  0  0
    2.0000   -2.2126    0.0000 H   0  0  0  0  0  0  0  0  0  0  0  0
   10.4543    3.5593    0.0000 H   0  0  0  0  0  0  0  0  0  0  0  0
    9.8611    3.0270    0.0000 H   0  0  0  0  0  0  0  0  0  0  0  0
    4.0421   -4.8407    0.0000 H   0  0  0  0  0  0  0  0  0  0  0  0
   11.8674    2.6844    0.0000 H   0  0  0  0  0  0  0  0  0  0  0  0
   12.8704    3.6959    0.0000 H   0  0  0  0  0  0  0  0  0  0  0  0
   13.3492    4.4305    0.0000 H   0  0  0  0  0  0  0  0  0  0  0  0
   12.6147    4.9093    0.0000 H   0  0  0  0  0  0  0  0  0  0  0  0
   11.5577    5.2547    0.0000 H   0  0  0  0  0  0  0  0  0  0  0  0
   10.6821    5.3022    0.0000 H   0  0  0  0  0  0  0  0  0  0  0  0
   10.6347    4.4266    0.0000 H   0  0  0  0  0  0  0  0  0  0  0  0
 21  1  1  1  0  0  0
  1 68  1  0  0  0  0
  2 26  1  0  0  0  0
  2 71  1  0  0  0  0
  3 26  2  0  0  0  0
  4  5  1  0  0  0  0
  4  7  1  0  0  0  0
  4 11  1  0  0  0  0
  4 20  1  1  0  0  0
  5  9  1  0  0  0  0
  5 12  1  0  0  0  0
  5 33  1  0  0  0  0
  6  8  1  0  0  0  0
  6 10  1  0  0  0  0
  6 18  1  0  0  0  0
  6 23  1  1  0  0  0
  7 13  1  0  0  0  0
  7 19  1  0  0  0  0
  7 34  1  0  0  0  0
  8 15  1  0  0  0  0
  8 16  1  0  0  0  0
  8 35  1  6  0  0  0
  9 10  2  0  0  0  0
  9 17  1  0  0  0  0
 10 14  1  0  0  0  0
 11 14  1  0  0  0  0
 11 36  1  0  0  0  0
 11 37  1  0  0  0  0
 12 13  1  0  0  0  0
 12 38  1  0  0  0  0
 12 39  1  0  0  0  0
 13 40  1  0  0  0  0
 13 41  1  0  0  0  0
 14 42  1  0  0  0  0
 14 43  1  0  0  0  0
 15 21  1  0  0  0  0
 15 24  1  1  0  0  0
 15 26  1  0  0  0  0
 16 17  1  0  0  0  0
 16 44  1  0  0  0  0
 16 45  1  0  0  0  0
 17 46  1  0  0  0  0
 17 47  1  0  0  0  0
 18 22  1  0  0  0  0
 18 48  1  0  0  0  0
 18 49  1  0  0  0  0
 19 25  1  0  0  0  0
 19 27  1  6  0  0  0
 19 50  1  0  0  0  0
 20 51  1  0  0  0  0
 20 52  1  0  0  0  0
 20 53  1  0  0  0  0
 21 22  1  0  0  0  0
 21 54  1  0  0  0  0
 22 55  1  0  0  0  0
 22 56  1  0  0  0  0
 23 57  1  0  0  0  0
 23 58  1  0  0  0  0
 23 59  1  0  0  0  0
 24 60  1  0  0  0  0
 24 61  1  0  0  0  0
 24 62  1  0  0  0  0
 25 28  1  0  0  0  0
 25 63  1  0  0  0  0
 25 64  1  0  0  0  0
 27 65  1  0  0  0  0
 27 66  1  0  0  0  0
 27 67  1  0  0  0  0
 28 29  1  0  0  0  0
 28 69  1  0  0  0  0
 28 70  1  0  0  0  0
 29 30  2  0  0  0  0
 29 72  1  0  0  0  0
 30 31  1  0  0  0  0
 30 32  1  0  0  0  0
 31 73  1  0  0  0  0
 31 74  1  0  0  0  0
 31 75  1  0  0  0  0
 32 76  1  0  0  0  0
 32 77  1  0  0  0  0
 32 78  1  0  0  0  0
M  END
> <PUBCHEM_COMPOUND_CID>
23724596

> <PUBCHEM_COMPOUND_CANONICALIZED>
1

> <PUBCHEM_CACTVS_COMPLEXITY>
820

> <PUBCHEM_CACTVS_HBOND_ACCEPTOR>
3

> <PUBCHEM_CACTVS_HBOND_DONOR>
2

> <PUBCHEM_CACTVS_ROTATABLE_BOND>
5

> <PUBCHEM_CACTVS_SUBSKEYS>
AAADcfB4MAAAAAAAAAAAAAAAAAAAAYAAAAAwQIAAAAAAAEDAAAAAGgAACAAADxSggAICCAAAAgCIAiDSCAAAAAAgAAAACAEAAAgAEBYAAQAAQAAFoAAIAAOIyPCPgAAAAAAAAABAAAYAADAAAQAACAAAAA==

> <PUBCHEM_IUPAC_OPENEYE_NAME>
(3S,4S,5R,10S,13R)-17-[(1R)-1,5-dimethylhex-4-enyl]-3-hydroxy-4,10,13-trimethyl-1,2,3,5,6,7,11,12,14,15,16,17-dodecahydrocyclopenta[a]phenanthrene-4-carboxylic acid

> <PUBCHEM_IUPAC_CAS_NAME>
(3S,4S,5R,10S,13R)-3-hydroxy-4,10,13-trimethyl-17-[(2R)-6-methylhept-5-en-2-yl]-1,2,3,5,6,7,11,12,14,15,16,17-dodecahydrocyclopenta[a]phenanthrene-4-carboxylic acid

> <PUBCHEM_IUPAC_NAME>
(3S,4S,5R,10S,13R)-3-hydroxy-4,10,13-trimethyl-17-[(2R)-6-methylhept-5-en-2-yl]-1,2,3,5,6,7,11,12,14,15,16,17-dodecahydrocyclopenta[a]phenanthrene-4-carboxylic acid

> <PUBCHEM_IUPAC_SYSTEMATIC_NAME>
(3S,4S,5R,10S,13R)-4,10,13-trimethyl-17-[(2R)-6-methylhept-5-en-2-yl]-3-oxidanyl-1,2,3,5,6,7,11,12,14,15,16,17-dodecahydrocyclopenta[a]phenanthrene-4-carboxylic acid

> <PUBCHEM_IUPAC_TRADITIONAL_NAME>
(3S,4S,5R,10S,13R)-17-[(1R)-1,5-dimethylhex-4-enyl]-3-hydroxy-4,10,13-trimethyl-1,2,3,5,6,7,11,12,14,15,16,17-dodecahydrocyclopenta[a]phenanthrene-4-carboxylic acid

> <PUBCHEM_IUPAC_INCHI>
InChI=1S/C29H46O3/c1-18(2)8-7-9-19(3)21-11-12-22-20-10-13-24-28(5,23(20)14-16-27(21,22)4)17-15-25(30)29(24,6)26(31)32/h8,19,21-22,24-25,30H,7,9-17H2,1-6H3,(H,31,32)/t19-,21?,22?,24-,25+,27-,28-,29+/m1/s1

> <PUBCHEM_IUPAC_INCHIKEY>
MYWAIWDQTCHPTH-YCIQJMEESA-N

> <PUBCHEM_XLOGP3_AA>
7.6

> <PUBCHEM_EXACT_MASS>
442.344695

> <PUBCHEM_MOLECULAR_FORMULA>
C29H46O3

> <PUBCHEM_MOLECULAR_WEIGHT>
442.67374

> <PUBCHEM_OPENEYE_CAN_SMILES>
CC(CCC=C(C)C)C1CCC2C1(CCC3=C2CCC4C3(CCC(C4(C)C(=O)O)O)C)C

> <PUBCHEM_OPENEYE_ISO_SMILES>
C[C@H](CCC=C(C)C)C1CCC2[C@@]1(CCC3=C2CC[C@@H]4[C@@]3(CC[C@@H]([C@@]4(C)C(=O)O)O)C)C

> <PUBCHEM_CACTVS_TPSA>
57.5

> <PUBCHEM_MONOISOTOPIC_WEIGHT>
442.344695

> <PUBCHEM_TOTAL_CHARGE>
0

> <PUBCHEM_HEAVY_ATOM_COUNT>
32

> <PUBCHEM_ATOM_DEF_STEREO_COUNT>
6

> <PUBCHEM_ATOM_UDEF_STEREO_COUNT>
2

> <PUBCHEM_BOND_DEF_STEREO_COUNT>
0

> <PUBCHEM_BOND_UDEF_STEREO_COUNT>
0

> <PUBCHEM_ISOTOPIC_ATOM_COUNT>
0

> <PUBCHEM_COMPONENT_COUNT>
1

> <PUBCHEM_CACTVS_TAUTO_COUNT>
1

> <PUBCHEM_COORDINATE_TYPE>
1
5
255

> <PUBCHEM_BONDANNOTATIONS>
21  1  5
15  24  5
19  27  6
4  20  5
5  12  3
6  23  5
7  13  3
8  35  6

$$$$

