56928083
  -OEChem-07051213042D

 63 65  0     0  0  0  0  0  0999 V2000
    7.4904    3.9197    0.0000 S   0  0  0  0  0  0  0  0  0  0  0  0
    6.1056    2.7983    0.0000 S   0  0  0  0  0  0  0  0  0  0  0  0
    9.8699    5.1457    0.0000 O   0  0  0  0  0  0  0  0  0  0  0  0
    4.2690   -7.1963    0.0000 O   0  0  0  0  0  0  0  0  0  0  0  0
    2.5369   -7.1963    0.0000 O   0  0  0  0  0  0  0  0  0  0  0  0
    6.0010   -0.1963    0.0000 O   0  0  0  0  0  0  0  0  0  0  0  0
    3.4030   -4.6963    0.0000 N   0  0  0  0  0  0  0  0  0  0  0  0
    8.3917    5.8038    0.0000 N   0  0  0  0  0  0  0  0  0  0  0  0
    4.2690   -0.1963    0.0000 N   0  0  0  0  0  0  0  0  0  0  0  0
    6.9146    1.3970    0.0000 N   0  0  0  0  0  0  0  0  0  0  0  0
   10.8404    6.6402    0.0000 C   0  0  0  0  0  0  0  0  0  0  0  0
    9.9744    6.1402    0.0000 C   0  0  0  0  0  0  0  0  0  0  0  0
   11.7064    7.1402    0.0000 C   0  0  0  0  0  0  0  0  0  0  0  0
   10.3404    7.5063    0.0000 C   0  0  0  0  0  0  0  0  0  0  0  0
   11.3404    5.7742    0.0000 C   0  0  0  0  0  0  0  0  0  0  0  0
    3.4030   -5.6963    0.0000 C   0  0  0  0  0  0  0  0  0  0  0  0
    9.0608    6.5470    0.0000 C   0  0  0  0  0  0  0  0  0  0  0  0
    4.2690   -4.1963    0.0000 C   0  0  0  0  0  0  0  0  0  0  0  0
    8.8917    4.9378    0.0000 C   0  0  0  0  0  0  0  0  0  0  0  0
    2.5369   -6.1963    0.0000 C   0  0  0  0  0  0  0  0  0  0  0  0
    4.2690   -6.1963    0.0000 C   0  0  0  0  0  0  0  0  0  0  0  0
    4.2690   -3.1963    0.0000 C   0  0  0  0  0  0  0  0  0  0  0  0
    8.4850    4.0242    0.0000 C   0  0  0  0  0  0  0  0  0  0  0  0
    5.1350   -2.6963    0.0000 C   0  0  0  0  0  0  0  0  0  0  0  0
    3.4030   -2.6963    0.0000 C   0  0  0  0  0  0  0  0  0  0  0  0
    4.2690   -1.1963    0.0000 C   0  0  0  0  0  0  0  0  0  0  0  0
    5.1350   -1.6963    0.0000 C   0  0  0  0  0  0  0  0  0  0  0  0
    3.4030   -1.6963    0.0000 C   0  0  0  0  0  0  0  0  0  0  0  0
    5.1350    1.3037    0.0000 C   0  0  0  0  0  0  0  0  0  0  0  0
    7.0837    3.0062    0.0000 C   0  0  0  0  0  0  0  0  0  0  0  0
    5.1350    0.3037    0.0000 C   0  0  0  0  0  0  0  0  0  0  0  0
    6.0010    1.8037    0.0000 C   0  0  0  0  0  0  0  0  0  0  0  0
    7.5837    2.1402    0.0000 C   0  0  0  0  0  0  0  0  0  0  0  0
   12.0164    6.6033    0.0000 H   0  0  0  0  0  0  0  0  0  0  0  0
   12.2434    7.4502    0.0000 H   0  0  0  0  0  0  0  0  0  0  0  0
   10.8035    5.4642    0.0000 H   0  0  0  0  0  0  0  0  0  0  0  0
   11.6504    5.2373    0.0000 H   0  0  0  0  0  0  0  0  0  0  0  0
   11.8773    6.0842    0.0000 H   0  0  0  0  0  0  0  0  0  0  0  0
   10.8773    7.8163    0.0000 H   0  0  0  0  0  0  0  0  0  0  0  0
   10.0304    8.0432    0.0000 H   0  0  0  0  0  0  0  0  0  0  0  0
    9.8035    7.1963    0.0000 H   0  0  0  0  0  0  0  0  0  0  0  0
   11.3964    7.6772    0.0000 H   0  0  0  0  0  0  0  0  0  0  0  0
    3.9399   -5.3863    0.0000 H   0  0  0  0  0  0  0  0  0  0  0  0
    8.9319    7.1534    0.0000 H   0  0  0  0  0  0  0  0  0  0  0  0
    4.4810   -4.7789    0.0000 H   0  0  0  0  0  0  0  0  0  0  0  0
    4.8796   -4.0886    0.0000 H   0  0  0  0  0  0  0  0  0  0  0  0
    2.8660   -4.3863    0.0000 H   0  0  0  0  0  0  0  0  0  0  0  0
    4.8796   -6.3039    0.0000 H   0  0  0  0  0  0  0  0  0  0  0  0
    4.4810   -5.6136    0.0000 H   0  0  0  0  0  0  0  0  0  0  0  0
    2.3249   -5.6136    0.0000 H   0  0  0  0  0  0  0  0  0  0  0  0
    1.9264   -6.3039    0.0000 H   0  0  0  0  0  0  0  0  0  0  0  0
    8.4417    3.4058    0.0000 H   0  0  0  0  0  0  0  0  0  0  0  0
    9.0866    3.8743    0.0000 H   0  0  0  0  0  0  0  0  0  0  0  0
    5.6720   -3.0063    0.0000 H   0  0  0  0  0  0  0  0  0  0  0  0
    2.8660   -3.0063    0.0000 H   0  0  0  0  0  0  0  0  0  0  0  0
    5.6720   -1.3863    0.0000 H   0  0  0  0  0  0  0  0  0  0  0  0
    2.8660   -1.3863    0.0000 H   0  0  0  0  0  0  0  0  0  0  0  0
    3.7320    0.1137    0.0000 H   0  0  0  0  0  0  0  0  0  0  0  0
    4.8059   -7.5063    0.0000 H   0  0  0  0  0  0  0  0  0  0  0  0
    2.0000   -7.5063    0.0000 H   0  0  0  0  0  0  0  0  0  0  0  0
    4.9230    1.8864    0.0000 H   0  0  0  0  0  0  0  0  0  0  0  0
    4.5244    1.1961    0.0000 H   0  0  0  0  0  0  0  0  0  0  0  0
    8.2003    2.0753    0.0000 H   0  0  0  0  0  0  0  0  0  0  0  0
  1 23  1  0  0  0  0
  1 30  1  0  0  0  0
  2 30  1  0  0  0  0
  2 32  1  0  0  0  0
  3 12  1  0  0  0  0
  3 19  1  0  0  0  0
  4 21  1  0  0  0  0
  4 59  1  0  0  0  0
  5 20  1  0  0  0  0
  5 60  1  0  0  0  0
  6 31  2  0  0  0  0
  7 16  1  0  0  0  0
  7 18  1  0  0  0  0
  7 47  1  0  0  0  0
  8 17  1  0  0  0  0
  8 19  2  0  0  0  0
  9 26  1  0  0  0  0
  9 31  1  0  0  0  0
  9 58  1  0  0  0  0
 10 32  2  0  0  0  0
 10 33  1  0  0  0  0
 11 12  1  0  0  0  0
 11 13  1  0  0  0  0
 11 14  1  0  0  0  0
 11 15  1  0  0  0  0
 12 17  2  0  0  0  0
 13 34  1  0  0  0  0
 13 35  1  0  0  0  0
 13 42  1  0  0  0  0
 14 39  1  0  0  0  0
 14 40  1  0  0  0  0
 14 41  1  0  0  0  0
 15 36  1  0  0  0  0
 15 37  1  0  0  0  0
 15 38  1  0  0  0  0
 16 20  1  0  0  0  0
 16 21  1  0  0  0  0
 16 43  1  0  0  0  0
 17 44  1  0  0  0  0
 18 22  1  0  0  0  0
 18 45  1  0  0  0  0
 18 46  1  0  0  0  0
 19 23  1  0  0  0  0
 20 50  1  0  0  0  0
 20 51  1  0  0  0  0
 21 48  1  0  0  0  0
 21 49  1  0  0  0  0
 22 24  2  0  0  0  0
 22 25  1  0  0  0  0
 23 52  1  0  0  0  0
 23 53  1  0  0  0  0
 24 27  1  0  0  0  0
 24 54  1  0  0  0  0
 25 28  2  0  0  0  0
 25 55  1  0  0  0  0
 26 27  2  0  0  0  0
 26 28  1  0  0  0  0
 27 56  1  0  0  0  0
 28 57  1  0  0  0  0
 29 31  1  0  0  0  0
 29 32  1  0  0  0  0
 29 61  1  0  0  0  0
 29 62  1  0  0  0  0
 30 33  2  0  0  0  0
 33 63  1  0  0  0  0
M  END
> <PUBCHEM_COMPOUND_CID>
56928083

> <PUBCHEM_COMPOUND_CANONICALIZED>
1

> <PUBCHEM_CACTVS_COMPLEXITY>
598

> <PUBCHEM_CACTVS_HBOND_ACCEPTOR>
9

> <PUBCHEM_CACTVS_HBOND_DONOR>
4

> <PUBCHEM_CACTVS_ROTATABLE_BOND>
12

> <PUBCHEM_CACTVS_SUBSKEYS>
AAADceB7uABgAAAAAAAAAAAAAAAAAWLAAAAwAAAAAAAAAAAB8AAAHgQQCAAADizl2ga+xZLIFkisArV3VASC+aB7SjhI2I27ZIgOMCrg0bGPaAjhlgD4yAcQgAAPCAAAAAAAAAAQAAAAAAAAAAAAAAAAAA==

> <PUBCHEM_IUPAC_OPENEYE_NAME>
2-[5-[(5-tert-butyloxazol-2-yl)methylsulfanyl]thiazol-2-yl]-N-[4-[[[2-hydroxy-1-(hydroxymethyl)ethyl]amino]methyl]phenyl]acetamide

> <PUBCHEM_IUPAC_CAS_NAME>
2-[5-[(5-tert-butyl-2-oxazolyl)methylthio]-2-thiazolyl]-N-[4-[(1,3-dihydroxypropan-2-ylamino)methyl]phenyl]acetamide

> <PUBCHEM_IUPAC_NAME>
2-[5-[(5-tert-butyl-1,3-oxazol-2-yl)methylsulfanyl]-1,3-thiazol-2-yl]-N-[4-[(1,3-dihydroxypropan-2-ylamino)methyl]phenyl]acetamide

> <PUBCHEM_IUPAC_SYSTEMATIC_NAME>
N-[4-[[1,3-bis(oxidanyl)propan-2-ylamino]methyl]phenyl]-2-[5-[(5-tert-butyl-1,3-oxazol-2-yl)methylsulfanyl]-1,3-thiazol-2-yl]ethanamide

> <PUBCHEM_IUPAC_TRADITIONAL_NAME>
2-[5-[(5-tert-butyloxazol-2-yl)methylthio]thiazol-2-yl]-N-[4-[[(2-hydroxy-1-methylol-ethyl)amino]methyl]phenyl]acetamide

> <PUBCHEM_IUPAC_INCHI>
InChI=1S/C23H30N4O4S2/c1-23(2,3)18-10-25-20(31-18)14-32-22-11-26-21(33-22)8-19(30)27-16-6-4-15(5-7-16)9-24-17(12-28)13-29/h4-7,10-11,17,24,28-29H,8-9,12-14H2,1-3H3,(H,27,30)

> <PUBCHEM_IUPAC_INCHIKEY>
UFOXIKRFTOAYEM-UHFFFAOYSA-N

> <PUBCHEM_XLOGP3_AA>
2.3

> <PUBCHEM_EXACT_MASS>
490.170847

> <PUBCHEM_MOLECULAR_FORMULA>
C23H30N4O4S2

> <PUBCHEM_MOLECULAR_WEIGHT>
490.6387

> <PUBCHEM_OPENEYE_CAN_SMILES>
CC(C)(C)C1=CN=C(O1)CSC2=CN=C(S2)CC(=O)NC3=CC=C(C=C3)CNC(CO)CO

> <PUBCHEM_OPENEYE_ISO_SMILES>
CC(C)(C)C1=CN=C(O1)CSC2=CN=C(S2)CC(=O)NC3=CC=C(C=C3)CNC(CO)CO

> <PUBCHEM_CACTVS_TPSA>
174

> <PUBCHEM_MONOISOTOPIC_WEIGHT>
490.170847

> <PUBCHEM_TOTAL_CHARGE>
0

> <PUBCHEM_HEAVY_ATOM_COUNT>
33

> <PUBCHEM_ATOM_DEF_STEREO_COUNT>
0

> <PUBCHEM_ATOM_UDEF_STEREO_COUNT>
0

> <PUBCHEM_BOND_DEF_STEREO_COUNT>
0

> <PUBCHEM_BOND_UDEF_STEREO_COUNT>
0

> <PUBCHEM_ISOTOPIC_ATOM_COUNT>
0

> <PUBCHEM_COMPONENT_COUNT>
1

> <PUBCHEM_CACTVS_TAUTO_COUNT>
5

> <PUBCHEM_COORDINATE_TYPE>
1
5
255

> <PUBCHEM_BONDANNOTATIONS>
10  32  8
10  33  8
12  17  8
2  30  8
2  32  8
22  24  8
22  25  8
24  27  8
25  28  8
26  27  8
26  28  8
3  12  8
3  19  8
30  33  8
8  17  8
8  19  8

$$$$

