440582
  -OEChem-07051212502D

 43 47  0     1  0  0  0  0  0999 V2000
    4.6527   -3.7408    0.0000 O   0  0  0  0  0  0  0  0  0  0  0  0
    3.2074   -4.5902    0.0000 O   0  0  0  0  0  0  0  0  0  0  0  0
    3.8105    4.1863    0.0000 O   0  0  0  0  0  0  0  0  0  0  0  0
    2.0072    3.1265    0.0000 O   0  0  0  0  0  0  0  0  0  0  0  0
    4.7297   -0.5104    0.0000 N   0  0  3  0  0  0  0  0  0  0  0  0
    3.8636   -0.0104    0.0000 C   0  0  1  0  0  0  0  0  0  0  0  0
    2.9976   -0.5104    0.0000 C   0  0  0  0  0  0  0  0  0  0  0  0
    5.6397   -0.0036    0.0000 C   0  0  0  0  0  0  0  0  0  0  0  0
    4.7297   -1.5104    0.0000 C   0  0  0  0  0  0  0  0  0  0  0  0
    3.8476    1.0311    0.0000 C   0  0  0  0  0  0  0  0  0  0  0  0
    2.9976   -1.5104    0.0000 C   0  0  0  0  0  0  0  0  0  0  0  0
    5.6477    1.0380    0.0000 C   0  0  0  0  0  0  0  0  0  0  0  0
    3.8636   -2.0104    0.0000 C   0  0  0  0  0  0  0  0  0  0  0  0
    4.7456    1.5588    0.0000 C   0  0  0  0  0  0  0  0  0  0  0  0
    3.8797   -3.0519    0.0000 C   0  0  0  0  0  0  0  0  0  0  0  0
    2.8956    1.5517    0.0000 C   0  0  0  0  0  0  0  0  0  0  0  0
    2.0876   -2.0173    0.0000 C   0  0  0  0  0  0  0  0  0  0  0  0
    4.7540    2.6438    0.0000 C   0  0  0  0  0  0  0  0  0  0  0  0
    2.9816   -3.5797    0.0000 C   0  0  0  0  0  0  0  0  0  0  0  0
    2.0796   -3.0589    0.0000 C   0  0  0  0  0  0  0  0  0  0  0  0
    2.8789    2.6366    0.0000 C   0  0  0  0  0  0  0  0  0  0  0  0
    3.8143    3.1863    0.0000 C   0  0  0  0  0  0  0  0  0  0  0  0
    4.2380   -4.6896    0.0000 C   0  0  0  0  0  0  0  0  0  0  0  0
    4.6746    4.6896    0.0000 C   0  0  0  0  0  0  0  0  0  0  0  0
    3.1243    0.4089    0.0000 H   0  0  0  0  0  0  0  0  0  0  0  0
    2.7856    0.0722    0.0000 H   0  0  0  0  0  0  0  0  0  0  0  0
    2.3870   -0.6181    0.0000 H   0  0  0  0  0  0  0  0  0  0  0  0
    4.9417   -2.0930    0.0000 H   0  0  0  0  0  0  0  0  0  0  0  0
    5.3402   -1.4028    0.0000 H   0  0  0  0  0  0  0  0  0  0  0  0
    5.8442   -0.5889    0.0000 H   0  0  0  0  0  0  0  0  0  0  0  0
    6.2513    0.0978    0.0000 H   0  0  0  0  0  0  0  0  0  0  0  0
    6.2577    0.9272    0.0000 H   0  0  0  0  0  0  0  0  0  0  0  0
    5.8612    1.6201    0.0000 H   0  0  0  0  0  0  0  0  0  0  0  0
    2.3648    1.2314    0.0000 H   0  0  0  0  0  0  0  0  0  0  0  0
    1.5543   -1.7011    0.0000 H   0  0  0  0  0  0  0  0  0  0  0  0
    5.2921    2.9517    0.0000 H   0  0  0  0  0  0  0  0  0  0  0  0
    1.5414   -3.3668    0.0000 H   0  0  0  0  0  0  0  0  0  0  0  0
    4.1140   -5.2971    0.0000 H   0  0  0  0  0  0  0  0  0  0  0  0
    4.8291   -4.8768    0.0000 H   0  0  0  0  0  0  0  0  0  0  0  0
    2.0000    3.7465    0.0000 H   0  0  0  0  0  0  0  0  0  0  0  0
    4.9866    4.1539    0.0000 H   0  0  0  0  0  0  0  0  0  0  0  0
    5.2103    5.0017    0.0000 H   0  0  0  0  0  0  0  0  0  0  0  0
    4.3625    5.2254    0.0000 H   0  0  0  0  0  0  0  0  0  0  0  0
  1 15  1  0  0  0  0
  1 23  1  0  0  0  0
  2 19  1  0  0  0  0
  2 23  1  0  0  0  0
  3 22  1  0  0  0  0
  3 24  1  0  0  0  0
  4 21  1  0  0  0  0
  4 40  1  0  0  0  0
  5  6  1  0  0  0  0
  5  8  1  0  0  0  0
  5  9  1  0  0  0  0
  6  7  1  0  0  0  0
  6 10  1  0  0  0  0
  6 25  1  6  0  0  0
  7 11  1  0  0  0  0
  7 26  1  0  0  0  0
  7 27  1  0  0  0  0
  8 12  1  0  0  0  0
  8 30  1  0  0  0  0
  8 31  1  0  0  0  0
  9 13  1  0  0  0  0
  9 28  1  0  0  0  0
  9 29  1  0  0  0  0
 10 14  1  0  0  0  0
 10 16  2  0  0  0  0
 11 13  2  0  0  0  0
 11 17  1  0  0  0  0
 12 14  1  0  0  0  0
 12 32  1  0  0  0  0
 12 33  1  0  0  0  0
 13 15  1  0  0  0  0
 14 18  2  0  0  0  0
 15 19  2  0  0  0  0
 16 21  1  0  0  0  0
 16 34  1  0  0  0  0
 17 20  2  0  0  0  0
 17 35  1  0  0  0  0
 18 22  1  0  0  0  0
 18 36  1  0  0  0  0
 19 20  1  0  0  0  0
 20 37  1  0  0  0  0
 21 22  2  0  0  0  0
 23 38  1  0  0  0  0
 23 39  1  0  0  0  0
 24 41  1  0  0  0  0
 24 42  1  0  0  0  0
 24 43  1  0  0  0  0
M  END
> <PUBCHEM_COMPOUND_CID>
440582

> <PUBCHEM_COMPOUND_CANONICALIZED>
1

> <PUBCHEM_CACTVS_COMPLEXITY>
474

> <PUBCHEM_CACTVS_HBOND_ACCEPTOR>
5

> <PUBCHEM_CACTVS_HBOND_DONOR>
1

> <PUBCHEM_CACTVS_ROTATABLE_BOND>
1

> <PUBCHEM_CACTVS_SUBSKEYS>
AAADceB6OAAAAAAAAAAAAAAAAAAAASAAAAA8eIEAAAAAAEixQAAAHgAACAAADCzBmAcyDoMABgCAAiBCAACCCAAgIAAIiAAOjIgdJiKGsRukcCtmwBGPuAew0PMOoAABAAAYQABAAAIAADCAAAAAAAAAAA==

> <PUBCHEM_IUPAC_INCHI>
InChI=1S/C19H19NO4/c1-22-18-7-12-4-5-20-9-14-11(2-3-17-19(14)24-10-23-17)6-15(20)13(12)8-16(18)21/h2-3,7-8,15,21H,4-6,9-10H2,1H3/t15-/m0/s1

> <PUBCHEM_IUPAC_INCHIKEY>
FVXCQULKSPVRPK-HNNXBMFYSA-N

> <PUBCHEM_XLOGP3_AA>
2.8

> <PUBCHEM_EXACT_MASS>
325.131408

> <PUBCHEM_MOLECULAR_FORMULA>
C19H19NO4

> <PUBCHEM_MOLECULAR_WEIGHT>
325.35846

> <PUBCHEM_OPENEYE_CAN_SMILES>
COC1=C(C=C2C3CC4=C(CN3CCC2=C1)C5=C(C=C4)OCO5)O

> <PUBCHEM_OPENEYE_ISO_SMILES>
COC1=C(C=C2[C@@H]3CC4=C(CN3CCC2=C1)C5=C(C=C4)OCO5)O

> <PUBCHEM_CACTVS_TPSA>
51.2

> <PUBCHEM_MONOISOTOPIC_WEIGHT>
325.131408

> <PUBCHEM_TOTAL_CHARGE>
0

> <PUBCHEM_HEAVY_ATOM_COUNT>
24

> <PUBCHEM_ATOM_DEF_STEREO_COUNT>
1

> <PUBCHEM_ATOM_UDEF_STEREO_COUNT>
0

> <PUBCHEM_BOND_DEF_STEREO_COUNT>
0

> <PUBCHEM_BOND_UDEF_STEREO_COUNT>
0

> <PUBCHEM_ISOTOPIC_ATOM_COUNT>
0

> <PUBCHEM_COMPONENT_COUNT>
1

> <PUBCHEM_CACTVS_TAUTO_COUNT>
3

> <PUBCHEM_COORDINATE_TYPE>
1
5
255

> <PUBCHEM_BONDANNOTATIONS>
10  14  8
10  16  8
11  13  8
11  17  8
13  15  8
14  18  8
15  19  8
16  21  8
17  20  8
18  22  8
19  20  8
21  22  8
6  25  6

$$$$

