17776
  -OEChem-07051213132D

 34 34  0     1  0  0  0  0  0999 V2000
    5.4641    1.3971    0.0000 O   0  0  0  0  0  0  0  0  0  0  0  0
    7.6570   -1.2162    0.0000 O   0  5  0  0  0  0  0  0  0  0  0  0
    7.9577    0.4895    0.0000 O   0  0  0  0  0  0  0  0  0  0  0  0
    4.5981   -3.1029    0.0000 O   0  5  0  0  0  0  0  0  0  0  0  0
    6.3301   -3.1029    0.0000 O   0  0  0  0  0  0  0  0  0  0  0  0
    6.7909    2.5105    0.0000 O   0  0  0  0  0  0  0  0  0  0  0  0
    7.3149   -0.2765    0.0000 N   0  3  0  0  0  0  0  0  0  0  0  0
    5.4641   -2.6029    0.0000 N   0  3  0  0  0  0  0  0  0  0  0  0
    3.7320    0.3971    0.0000 C   0  0  3  0  0  0  0  0  0  0  0  0
    4.5981   -0.1029    0.0000 C   0  0  0  0  0  0  0  0  0  0  0  0
    2.8660   -0.1029    0.0000 C   0  0  0  0  0  0  0  0  0  0  0  0
    3.7320    1.3971    0.0000 C   0  0  0  0  0  0  0  0  0  0  0  0
    5.4641    0.3971    0.0000 C   0  0  0  0  0  0  0  0  0  0  0  0
    4.5981   -1.1029    0.0000 C   0  0  0  0  0  0  0  0  0  0  0  0
    2.0000    0.3971    0.0000 C   0  0  0  0  0  0  0  0  0  0  0  0
    6.3301   -0.1029    0.0000 C   0  0  0  0  0  0  0  0  0  0  0  0
    5.4641   -1.6029    0.0000 C   0  0  0  0  0  0  0  0  0  0  0  0
    6.3301   -1.1029    0.0000 C   0  0  0  0  0  0  0  0  0  0  0  0
    5.8061    2.3368    0.0000 C   0  0  0  0  0  0  0  0  0  0  0  0
    5.1633    3.1029    0.0000 C   0  0  0  0  0  0  0  0  0  0  0  0
    4.2690    0.7071    0.0000 H   0  0  0  0  0  0  0  0  0  0  0  0
    2.4675   -0.5778    0.0000 H   0  0  0  0  0  0  0  0  0  0  0  0
    3.2646   -0.5778    0.0000 H   0  0  0  0  0  0  0  0  0  0  0  0
    4.3520    1.3971    0.0000 H   0  0  0  0  0  0  0  0  0  0  0  0
    3.7320    2.0171    0.0000 H   0  0  0  0  0  0  0  0  0  0  0  0
    3.1120    1.3971    0.0000 H   0  0  0  0  0  0  0  0  0  0  0  0
    4.0611   -1.4129    0.0000 H   0  0  0  0  0  0  0  0  0  0  0  0
    2.3100    0.9341    0.0000 H   0  0  0  0  0  0  0  0  0  0  0  0
    1.4631    0.7071    0.0000 H   0  0  0  0  0  0  0  0  0  0  0  0
    1.6900   -0.1398    0.0000 H   0  0  0  0  0  0  0  0  0  0  0  0
    6.8671   -1.4129    0.0000 H   0  0  0  0  0  0  0  0  0  0  0  0
    5.6383    3.5014    0.0000 H   0  0  0  0  0  0  0  0  0  0  0  0
    4.7648    3.5778    0.0000 H   0  0  0  0  0  0  0  0  0  0  0  0
    4.6884    2.7043    0.0000 H   0  0  0  0  0  0  0  0  0  0  0  0
  1 13  1  0  0  0  0
  1 19  1  0  0  0  0
  2  7  1  0  0  0  0
  3  7  2  0  0  0  0
  4  8  1  0  0  0  0
  5  8  2  0  0  0  0
  6 19  2  0  0  0  0
  7 16  1  0  0  0  0
  8 17  1  0  0  0  0
  9 10  1  0  0  0  0
  9 11  1  0  0  0  0
  9 12  1  0  0  0  0
  9 21  1  0  0  0  0
 10 13  2  0  0  0  0
 10 14  1  0  0  0  0
 11 15  1  0  0  0  0
 11 22  1  0  0  0  0
 11 23  1  0  0  0  0
 12 24  1  0  0  0  0
 12 25  1  0  0  0  0
 12 26  1  0  0  0  0
 13 16  1  0  0  0  0
 14 17  2  0  0  0  0
 14 27  1  0  0  0  0
 15 28  1  0  0  0  0
 15 29  1  0  0  0  0
 15 30  1  0  0  0  0
 16 18  2  0  0  0  0
 17 18  1  0  0  0  0
 18 31  1  0  0  0  0
 19 20  1  0  0  0  0
 20 32  1  0  0  0  0
 20 33  1  0  0  0  0
 20 34  1  0  0  0  0
M  CHG  4   2  -1   4  -1   7   1   8   1
M  END
> <PUBCHEM_COMPOUND_CID>
17776

> <PUBCHEM_COMPOUND_CANONICALIZED>
1

> <PUBCHEM_CACTVS_COMPLEXITY>
388

> <PUBCHEM_CACTVS_HBOND_ACCEPTOR>
6

> <PUBCHEM_CACTVS_HBOND_DONOR>
0

> <PUBCHEM_CACTVS_ROTATABLE_BOND>
4

> <PUBCHEM_CACTVS_SUBSKEYS>
AAADccBzOAAAAAAAAAAAAAAAAAAAAAAAAAAwAAAAAAAAAAABAAAAHgAEAAAADQyBmAAyzoAQRACJAiTSSwCCCAAgIgAgiAAFbIoOJiKE8duDOiDkwFEI6AewwOAOgEAAQAQIEAAAgACACBAgAAAAAAAAAA==

> <PUBCHEM_IUPAC_OPENEYE_NAME>
(2,4-dinitro-6-sec-butyl-phenyl) acetate

> <PUBCHEM_IUPAC_CAS_NAME>
acetic acid (2-butan-2-yl-4,6-dinitrophenyl) ester

> <PUBCHEM_IUPAC_NAME>
(2-butan-2-yl-4,6-dinitrophenyl) acetate

> <PUBCHEM_IUPAC_SYSTEMATIC_NAME>
(2-butan-2-yl-4,6-dinitro-phenyl) ethanoate

> <PUBCHEM_IUPAC_TRADITIONAL_NAME>
acetic acid (2,4-dinitro-6-sec-butyl-phenyl) ester

> <PUBCHEM_IUPAC_INCHI>
InChI=1S/C12H14N2O6/c1-4-7(2)10-5-9(13(16)17)6-11(14(18)19)12(10)20-8(3)15/h5-7H,4H2,1-3H3

> <PUBCHEM_IUPAC_INCHIKEY>
RDJTWDKSYLLHRW-UHFFFAOYSA-N

> <PUBCHEM_XLOGP3>
3.1

> <PUBCHEM_EXACT_MASS>
282.085186

> <PUBCHEM_MOLECULAR_FORMULA>
C12H14N2O6

> <PUBCHEM_MOLECULAR_WEIGHT>
282.24936

> <PUBCHEM_OPENEYE_CAN_SMILES>
CCC(C)C1=CC(=CC(=C1OC(=O)C)[N+](=O)[O-])[N+](=O)[O-]

> <PUBCHEM_OPENEYE_ISO_SMILES>
CCC(C)C1=CC(=CC(=C1OC(=O)C)[N+](=O)[O-])[N+](=O)[O-]

> <PUBCHEM_CACTVS_TPSA>
118

> <PUBCHEM_MONOISOTOPIC_WEIGHT>
282.085186

> <PUBCHEM_TOTAL_CHARGE>
0

> <PUBCHEM_HEAVY_ATOM_COUNT>
20

> <PUBCHEM_ATOM_DEF_STEREO_COUNT>
0

> <PUBCHEM_ATOM_UDEF_STEREO_COUNT>
1

> <PUBCHEM_BOND_DEF_STEREO_COUNT>
0

> <PUBCHEM_BOND_UDEF_STEREO_COUNT>
0

> <PUBCHEM_ISOTOPIC_ATOM_COUNT>
0

> <PUBCHEM_COMPONENT_COUNT>
1

> <PUBCHEM_CACTVS_TAUTO_COUNT>
1

> <PUBCHEM_COORDINATE_TYPE>
1
5
255

> <PUBCHEM_BONDANNOTATIONS>
10  13  8
10  14  8
13  16  8
14  17  8
16  18  8
17  18  8
9  12  3

$$$$

