   Color/Form
        Yellow, viscous liquid.
   from [1]HSDB

   Boiling Point
        160 deg C at 0.01 mm Hg
   from [2]HSDB

   Density/Specific Gravity
        1.148 (20 deg C)
   from [3]HSDB

   Octanol/Water Partition Coefficient
        log Kow = 4.70
   from [4]HSDB

   Solubilities

     * Readily miscible with most common organic solvents, including
       acetone, methanol, isopropanol, hexane, and toluene.
     * In water, 11 mg/l @ 25 deg C

   from [5]HSDB

   Vapor Pressure
        3.9X10-3 mPa (2.9X10-8 mm Hg) @ 25 deg C
   from [6]HSDB

   Computed Properties
   Molecular Weight                  382.47444 [g/mol]
   Molecular Formula                 C[18]H[26]N[2]O[5]S
   XLogP3                            4.7
   H-Bond Donor                      0
   H-Bond Acceptor                   6
   Rotatable Bond Count              8
   Exact Mass                        382.156243
   MonoIsotopic Mass                 382.156243
   Topological Polar Surface Area    93.6
   Heavy Atom Count                  26
   Formal Charge                     0
   Complexity                        502
   Isotope Atom Count                0
   Defined Atom Stereocenter Count   0
   Undefined Atom Stereocenter Count 0
   Defined Bond Stereocenter Count   0
   Undefined Bond Stereocenter Count 0
   Covalently-Bonded Unit Count      1
   Feature 3D Acceptor Count         3
   Feature 3D Hydrophobe Count       2
   Feature 3D Ring Count             2
   Effective Rotor Count             10.6
   Conformer Sampling RMSD           1.2
   CID Conformer Count               [7]167

References

   1. http://toxnet.nlm.nih.gov/cgi-bin/sis/search/r?dbs+hsdb:@term+@rn+@rel+65907-30-4
   2. http://toxnet.nlm.nih.gov/cgi-bin/sis/search/r?dbs+hsdb:@term+@rn+@rel+65907-30-4
   3. http://toxnet.nlm.nih.gov/cgi-bin/sis/search/r?dbs+hsdb:@term+@rn+@rel+65907-30-4
   4. http://toxnet.nlm.nih.gov/cgi-bin/sis/search/r?dbs+hsdb:@term+@rn+@rel+65907-30-4
   5. http://toxnet.nlm.nih.gov/cgi-bin/sis/search/r?dbs+hsdb:@term+@rn+@rel+65907-30-4
   6. http://toxnet.nlm.nih.gov/cgi-bin/sis/search/r?dbs+hsdb:@term+@rn+@rel+65907-30-4
   7. http://pubchem.ncbi.nlm.nih.gov/vw3d/vw3d.cgi?cid=47759
