5281524
  -OEChem-07051212582D

 70 71  0     1  0  0  0  0  0999 V2000
    5.7803   -1.7448    0.0000 O   0  0  0  0  0  0  0  0  0  0  0  0
    4.5838   -2.0929    0.0000 O   0  0  0  0  0  0  0  0  0  0  0  0
    4.5629    2.1039    0.0000 O   0  0  0  0  0  0  0  0  0  0  0  0
    2.0432   -0.4410    0.0000 O   0  0  0  0  0  0  0  0  0  0  0  0
    2.7440    1.6792    0.0000 O   0  0  0  0  0  0  0  0  0  0  0  0
    2.8971   -2.4867    0.0000 O   0  0  0  0  0  0  0  0  0  0  0  0
    2.8724    2.4809    0.0000 O   0  0  0  0  0  0  0  0  0  0  0  0
    5.1302    0.5083    0.0000 C   0  0  2  0  0  0  0  0  0  0  0  0
    5.1352   -0.4917    0.0000 C   0  0  2  0  0  0  0  0  0  0  0  0
    6.0829   -0.7917    0.0000 C   0  0  2  0  0  0  0  0  0  0  0  0
    6.0748    0.8177    0.0000 C   0  0  0  0  0  0  0  0  0  0  0  0
    6.6625    0.0159    0.0000 C   0  0  0  0  0  0  0  0  0  0  0  0
    4.3564   -1.1191    0.0000 C   0  0  2  0  0  0  0  0  0  0  0  0
    4.3452    1.1279    0.0000 C   0  0  1  0  0  0  0  0  0  0  0  0
    6.8958   -1.3740    0.0000 C   0  0  0  0  0  0  0  0  0  0  0  0
    5.1252    1.5083    0.0000 C   0  0  0  0  0  0  0  0  0  0  0  0
    3.3804   -0.9014    0.0000 C   0  0  0  0  0  0  0  0  0  0  0  0
    2.9420   -0.0026    0.0000 C   0  0  2  0  0  0  0  0  0  0  0  0
    3.3714    0.9005    0.0000 C   0  0  0  0  0  0  0  0  0  0  0  0
    7.8066   -0.9612    0.0000 C   0  0  0  0  0  0  0  0  0  0  0  0
    6.7980   -2.3692    0.0000 C   0  0  0  0  0  0  0  0  0  0  0  0
    2.0389    0.4268    0.0000 C   0  0  0  0  0  0  0  0  0  0  0  0
    3.8542   -2.7767    0.0000 C   0  0  0  0  0  0  0  0  0  0  0  0
    3.8265    2.7804    0.0000 C   0  0  0  0  0  0  0  0  0  0  0  0
    4.0816   -3.7505    0.0000 C   0  0  0  0  0  0  0  0  0  0  0  0
    4.0441    3.7564    0.0000 C   0  0  0  0  0  0  0  0  0  0  0  0
    5.0386   -4.0405    0.0000 C   0  0  0  0  0  0  0  0  0  0  0  0
    4.9982    4.0560    0.0000 C   0  0  0  0  0  0  0  0  0  0  0  0
    3.3519   -4.4343    0.0000 C   0  0  0  0  0  0  0  0  0  0  0  0
    3.3077    4.4330    0.0000 C   0  0  0  0  0  0  0  0  0  0  0  0
    2.3949   -4.1443    0.0000 C   0  0  0  0  0  0  0  0  0  0  0  0
    2.3536    4.1334    0.0000 C   0  0  0  0  0  0  0  0  0  0  0  0
    5.2922   -1.3271    0.0000 H   0  0  0  0  0  0  0  0  0  0  0  0
    6.6107    1.1296    0.0000 H   0  0  0  0  0  0  0  0  0  0  0  0
    5.8210    1.3834    0.0000 H   0  0  0  0  0  0  0  0  0  0  0  0
    7.1254   -0.3965    0.0000 H   0  0  0  0  0  0  0  0  0  0  0  0
    7.1213    0.4330    0.0000 H   0  0  0  0  0  0  0  0  0  0  0  0
    3.9202   -1.5597    0.0000 H   0  0  0  0  0  0  0  0  0  0  0  0
    4.9294    1.3356    0.0000 H   0  0  0  0  0  0  0  0  0  0  0  0
    7.3998   -1.7351    0.0000 H   0  0  0  0  0  0  0  0  0  0  0  0
    5.7452    1.5114    0.0000 H   0  0  0  0  0  0  0  0  0  0  0  0
    5.1221    2.1283    0.0000 H   0  0  0  0  0  0  0  0  0  0  0  0
    4.5052    1.5052    0.0000 H   0  0  0  0  0  0  0  0  0  0  0  0
    2.7766   -1.0424    0.0000 H   0  0  0  0  0  0  0  0  0  0  0  0
    3.3835   -1.5214    0.0000 H   0  0  0  0  0  0  0  0  0  0  0  0
    6.1982   -2.2028    0.0000 H   0  0  0  0  0  0  0  0  0  0  0  0
    6.1810   -2.3086    0.0000 H   0  0  0  0  0  0  0  0  0  0  0  0
    8.0626   -1.5259    0.0000 H   0  0  0  0  0  0  0  0  0  0  0  0
    8.3713   -0.7052    0.0000 H   0  0  0  0  0  0  0  0  0  0  0  0
    7.5506   -0.3965    0.0000 H   0  0  0  0  0  0  0  0  0  0  0  0
    6.7373   -2.9863    0.0000 H   0  0  0  0  0  0  0  0  0  0  0  0
    7.4150   -2.4299    0.0000 H   0  0  0  0  0  0  0  0  0  0  0  0
    2.3051    0.9867    0.0000 H   0  0  0  0  0  0  0  0  0  0  0  0
    1.4790    0.6930    0.0000 H   0  0  0  0  0  0  0  0  0  0  0  0
    1.7727   -0.1332    0.0000 H   0  0  0  0  0  0  0  0  0  0  0  0
    2.0000   -1.0595    0.0000 H   0  0  0  0  0  0  0  0  0  0  0  0
    4.8588   -4.6338    0.0000 H   0  0  0  0  0  0  0  0  0  0  0  0
    5.6319   -4.2203    0.0000 H   0  0  0  0  0  0  0  0  0  0  0  0
    5.2184   -3.4471    0.0000 H   0  0  0  0  0  0  0  0  0  0  0  0
    5.1839    3.4644    0.0000 H   0  0  0  0  0  0  0  0  0  0  0  0
    5.5897    4.2417    0.0000 H   0  0  0  0  0  0  0  0  0  0  0  0
    4.8125    4.6475    0.0000 H   0  0  0  0  0  0  0  0  0  0  0  0
    3.4929   -5.0381    0.0000 H   0  0  0  0  0  0  0  0  0  0  0  0
    3.4426    5.0381    0.0000 H   0  0  0  0  0  0  0  0  0  0  0  0
    2.5747   -3.5510    0.0000 H   0  0  0  0  0  0  0  0  0  0  0  0
    1.8015   -3.9646    0.0000 H   0  0  0  0  0  0  0  0  0  0  0  0
    2.2151   -4.7377    0.0000 H   0  0  0  0  0  0  0  0  0  0  0  0
    2.1679    4.7250    0.0000 H   0  0  0  0  0  0  0  0  0  0  0  0
    1.7620    3.9477    0.0000 H   0  0  0  0  0  0  0  0  0  0  0  0
    2.5393    3.5419    0.0000 H   0  0  0  0  0  0  0  0  0  0  0  0
 10  1  1  6  0  0  0
  1 46  1  0  0  0  0
 13  2  1  1  0  0  0
  2 23  1  0  0  0  0
 14  3  1  1  0  0  0
  3 24  1  0  0  0  0
 18  4  1  1  0  0  0
  4 56  1  0  0  0  0
  5 19  2  0  0  0  0
  6 23  2  0  0  0  0
  7 24  2  0  0  0  0
  8  9  1  0  0  0  0
  8 11  1  0  0  0  0
  8 14  1  0  0  0  0
  8 16  1  6  0  0  0
  9 10  1  0  0  0  0
  9 13  1  0  0  0  0
  9 33  1  1  0  0  0
 10 12  1  0  0  0  0
 10 15  1  0  0  0  0
 11 12  1  0  0  0  0
 11 34  1  0  0  0  0
 11 35  1  0  0  0  0
 12 36  1  0  0  0  0
 12 37  1  0  0  0  0
 13 17  1  0  0  0  0
 13 38  1  0  0  0  0
 14 19  1  0  0  0  0
 14 39  1  0  0  0  0
 15 20  1  0  0  0  0
 15 21  1  0  0  0  0
 15 40  1  0  0  0  0
 16 41  1  0  0  0  0
 16 42  1  0  0  0  0
 16 43  1  0  0  0  0
 17 18  1  0  0  0  0
 17 44  1  0  0  0  0
 17 45  1  0  0  0  0
 18 19  1  0  0  0  0
 18 22  1  0  0  0  0
 20 48  1  0  0  0  0
 20 49  1  0  0  0  0
 20 50  1  0  0  0  0
 21 47  1  0  0  0  0
 21 51  1  0  0  0  0
 21 52  1  0  0  0  0
 22 53  1  0  0  0  0
 22 54  1  0  0  0  0
 22 55  1  0  0  0  0
 23 25  1  0  0  0  0
 24 26  1  0  0  0  0
 25 27  1  0  0  0  0
 25 29  2  0  0  0  0
 26 28  1  0  0  0  0
 26 30  2  0  0  0  0
 27 57  1  0  0  0  0
 27 58  1  0  0  0  0
 27 59  1  0  0  0  0
 28 60  1  0  0  0  0
 28 61  1  0  0  0  0
 28 62  1  0  0  0  0
 29 31  1  0  0  0  0
 29 63  1  0  0  0  0
 30 32  1  0  0  0  0
 30 64  1  0  0  0  0
 31 65  1  0  0  0  0
 31 66  1  0  0  0  0
 31 67  1  0  0  0  0
 32 68  1  0  0  0  0
 32 69  1  0  0  0  0
 32 70  1  0  0  0  0
M  END
> <PUBCHEM_COMPOUND_CID>
5281524

> <PUBCHEM_COMPOUND_CANONICALIZED>
1

> <PUBCHEM_CACTVS_COMPLEXITY>
841

> <PUBCHEM_CACTVS_HBOND_ACCEPTOR>
7

> <PUBCHEM_CACTVS_HBOND_DONOR>
2

> <PUBCHEM_CACTVS_ROTATABLE_BOND>
7

> <PUBCHEM_CACTVS_SUBSKEYS>
AAADcfB4OAAAAAAAAAAAAAAAAAAAAYAAAAAAAAAABgAAAADAAAAAGgAACAAAD1SggAICCAAABgCIAqDSCAIAAAAAAAAACAFAAEAABBIAIQQCUAAFAAAAIYHK7PzPgAAAAAAAAAAAAAAAAAAAAYAADAAAAA==

> <PUBCHEM_IUPAC_OPENEYE_NAME>
[(3R,3aS,4S,6R,8S,8aS)-3,6-dihydroxy-3-isopropyl-6,8a-dimethyl-8-[(Z)-2-methylbut-2-enoyl]oxy-7-oxo-1,2,3a,4,5,8-hexahydroazulen-4-yl] (Z)-2-methylbut-2-enoate

> <PUBCHEM_IUPAC_CAS_NAME>
(Z)-2-methyl-2-butenoic acid [(3R,3aS,4S,6R,8S,8aS)-3,6-dihydroxy-6,8a-dimethyl-8-[(Z)-2-methyl-1-oxobut-2-enoxy]-7-oxo-3-propan-2-yl-1,2,3a,4,5,8-hexahydroazulen-4-yl] ester

> <PUBCHEM_IUPAC_NAME>
[(3R,3aS,4S,6R,8S,8aS)-3,6-dihydroxy-6,8a-dimethyl-8-[(Z)-2-methylbut-2-enoyl]oxy-7-oxo-3-propan-2-yl-1,2,3a,4,5,8-hexahydroazulen-4-yl] (Z)-2-methylbut-2-enoate

> <PUBCHEM_IUPAC_SYSTEMATIC_NAME>
[(3R,3aS,4S,6R,8S,8aS)-6,8a-dimethyl-8-[(Z)-2-methylbut-2-enoyl]oxy-3,6-bis(oxidanyl)-7-oxidanylidene-3-propan-2-yl-1,2,3a,4,5,8-hexahydroazulen-4-yl] (Z)-2-methylbut-2-enoate

> <PUBCHEM_IUPAC_TRADITIONAL_NAME>
(Z)-2-methylbut-2-enoic acid [(3R,3aS,4S,6R,8S,8aS)-3,6-dihydroxy-3-isopropyl-7-keto-6,8a-dimethyl-8-[(Z)-2-methylbut-2-enoyl]oxy-1,2,3a,4,5,8-hexahydroazulen-4-yl] ester

> <PUBCHEM_IUPAC_INCHI>
InChI=1S/C25H38O7/c1-9-15(5)21(27)31-17-13-24(8,29)19(26)20(32-22(28)16(6)10-2)23(7)11-12-25(30,14(3)4)18(17)23/h9-10,14,17-18,20,29-30H,11-13H2,1-8H3/b15-9-,16-10-/t17-,18+,20+,23-,24+,25+/m0/s1

> <PUBCHEM_IUPAC_INCHIKEY>
LYTPVRMVQVQYGM-NVWKHIKUSA-N

> <PUBCHEM_XLOGP3_AA>
4

> <PUBCHEM_EXACT_MASS>
450.261754

> <PUBCHEM_MOLECULAR_FORMULA>
C25H38O7

> <PUBCHEM_MOLECULAR_WEIGHT>
450.56502

> <PUBCHEM_OPENEYE_CAN_SMILES>
CC=C(C)C(=O)OC1CC(C(=O)C(C2(C1C(CC2)(C(C)C)O)C)OC(=O)C(=CC)C)(C)O

> <PUBCHEM_OPENEYE_ISO_SMILES>
C/C=C(/C)\C(=O)O[C@H]1C[C@@](C(=O)[C@H]([C@@]2([C@@H]1[C@@](CC2)(C(C)C)O)C)OC(=O)/C(=C\C)/C)(C)O

> <PUBCHEM_CACTVS_TPSA>
110

> <PUBCHEM_MONOISOTOPIC_WEIGHT>
450.261754

> <PUBCHEM_TOTAL_CHARGE>
0

> <PUBCHEM_HEAVY_ATOM_COUNT>
32

> <PUBCHEM_ATOM_DEF_STEREO_COUNT>
6

> <PUBCHEM_ATOM_UDEF_STEREO_COUNT>
0

> <PUBCHEM_BOND_DEF_STEREO_COUNT>
2

> <PUBCHEM_BOND_UDEF_STEREO_COUNT>
0

> <PUBCHEM_ISOTOPIC_ATOM_COUNT>
0

> <PUBCHEM_COMPONENT_COUNT>
1

> <PUBCHEM_CACTVS_TAUTO_COUNT>
2

> <PUBCHEM_COORDINATE_TYPE>
1
5
255

> <PUBCHEM_BONDANNOTATIONS>
10  1  6
13  2  5
14  3  5
18  4  5
8  16  6
9  33  5

$$$$

