   Color/Form

     * Colorless crystals
     * Colorless to white solid

   from [1]HSDB

   Melting Point
        82-89 deg C /Technical grade 82-90% purity/
   from [2]HSDB

   Density/Specific Gravity
        1.35
   from [3]HSDB

   Octanol/Water Partition Coefficient
        log Kow = -0.85
   from [4]HSDB

   Solubilities

     * Solubilities in various solvents.

       Solvent

   g/L at 20 deg C

   Acetone 151
   Ethanol >100
   Ethyl acetate 35
   Benzene 16
   Hexane 0.1

     Low solubility in aromatic solvents.

     In water, 818,000 mg/L at 25 deg C

   from [5]HSDB

   Vapor Pressure
        1.7X10-6 mm Hg at 25 deg C
   from [6]HSDB

   Other Chemical/Physical Properties

     * Henry's Law constant = 5X10-13 atm cu m/mol at 25 deg C (est)
     * Hydroxyl radical reaction rate constant = 1.1X10-11 cu cm/molec-sec
       at 25 deg C (est) [

   from [7]HSDB

   Computed Properties
   Molecular Weight                  183.165862 [g/mol]
   Molecular Formula                 C[4]H[10]NO[3]PS
   XLogP3                            -0.8
   H-Bond Donor                      1
   H-Bond Acceptor                   4
   Rotatable Bond Count              3
   Tautomer Count                    3
   Exact Mass                        183.011901
   MonoIsotopic Mass                 183.011901
   Topological Polar Surface Area    80.7
   Heavy Atom Count                  10
   Formal Charge                     0
   Complexity                        172
   Isotope Atom Count                0
   Defined Atom Stereocenter Count   0
   Undefined Atom Stereocenter Count 1
   Defined Bond Stereocenter Count   0
   Undefined Bond Stereocenter Count 0
   Covalently-Bonded Unit Count      1
   Feature 3D Acceptor Count         1
   Feature 3D Donor Count            1
   Effective Rotor Count             4
   Conformer Sampling RMSD           0.6
   CID Conformer Count               [8]128

References

   1. http://toxnet.nlm.nih.gov/cgi-bin/sis/search/r?dbs+hsdb:@term+@rn+@rel+30560-19-1
   2. http://toxnet.nlm.nih.gov/cgi-bin/sis/search/r?dbs+hsdb:@term+@rn+@rel+30560-19-1
   3. http://toxnet.nlm.nih.gov/cgi-bin/sis/search/r?dbs+hsdb:@term+@rn+@rel+30560-19-1
   4. http://toxnet.nlm.nih.gov/cgi-bin/sis/search/r?dbs+hsdb:@term+@rn+@rel+30560-19-1
   5. http://toxnet.nlm.nih.gov/cgi-bin/sis/search/r?dbs+hsdb:@term+@rn+@rel+30560-19-1
   6. http://toxnet.nlm.nih.gov/cgi-bin/sis/search/r?dbs+hsdb:@term+@rn+@rel+30560-19-1
   7. http://toxnet.nlm.nih.gov/cgi-bin/sis/search/r?dbs+hsdb:@term+@rn+@rel+30560-19-1
   8. http://pubchem.ncbi.nlm.nih.gov/vw3d/vw3d.cgi?cid=1982
