3037981
  -OEChem-07051212462D

 91 92  0     1  0  0  0  0  0999 V2000
   12.0106    1.1965    0.0000 O   0  0  0  0  0  0  0  0  0  0  0  0
    7.7331   -0.9050    0.0000 O   0  0  0  0  0  0  0  0  0  0  0  0
   11.1972    0.0950    0.0000 O   0  0  0  0  0  0  0  0  0  0  0  0
    4.2690    2.0950    0.0000 O   0  0  0  0  0  0  0  0  0  0  0  0
    5.1350   -1.4050    0.0000 O   0  0  0  0  0  0  0  0  0  0  0  0
    5.1350    4.5950    0.0000 O   0  0  0  0  0  0  0  0  0  0  0  0
    6.8671    4.5950    0.0000 O   0  0  0  0  0  0  0  0  0  0  0  0
   10.3312    3.5950    0.0000 O   0  0  0  0  0  0  0  0  0  0  0  0
    9.4651    5.0950    0.0000 O   0  0  0  0  0  0  0  0  0  0  0  0
   12.8660    4.1480    0.0000 O   0  0  0  0  0  0  0  0  0  0  0  0
    9.1915    2.2226    0.0000 N   0  0  0  0  0  0  0  0  0  0  0  0
    9.4651    0.0950    0.0000 N   0  0  0  0  0  0  0  0  0  0  0  0
    6.8671    0.5950    0.0000 N   0  0  0  0  0  0  0  0  0  0  0  0
   10.8972    2.5234    0.0000 N   0  0  0  0  0  0  0  0  0  0  0  0
    4.2690    0.0950    0.0000 N   0  0  0  0  0  0  0  0  0  0  0  0
    9.7839    3.8502    0.0000 N   0  0  0  0  0  0  0  0  0  0  0  0
    6.0010    2.0950    0.0000 N   0  0  0  0  0  0  0  0  0  0  0  0
    2.5369   -2.9050    0.0000 N   0  0  0  0  0  0  0  0  0  0  0  0
    9.4651    2.0950    0.0000 N   0  0  0  0  0  0  0  0  0  0  0  0
    7.7331    3.0950    0.0000 N   0  0  0  0  0  0  0  0  0  0  0  0
    5.1350   -5.4050    0.0000 N   0  0  0  0  0  0  0  0  0  0  0  0
   11.5392    3.0347    0.0000 N   0  0  0  0  0  0  0  0  0  0  0  0
   13.1668    2.4423    0.0000 N   0  0  0  0  0  0  0  0  0  0  0  0
    9.3652    1.2378    0.0000 C   0  0  1  0  0  0  0  0  0  0  0  0
    8.5991    0.5950    0.0000 C   0  0  1  0  0  0  0  0  0  0  0  0
   10.3049    0.8958    0.0000 C   0  0  0  0  0  0  0  0  0  0  0  0
   11.0709    1.5386    0.0000 C   0  0  2  0  0  0  0  0  0  0  0  0
    7.7331    0.0950    0.0000 C   0  0  0  0  0  0  0  0  0  0  0  0
    9.9576    2.8654    0.0000 C   0  0  0  0  0  0  0  0  0  0  0  0
    5.1350    0.5950    0.0000 C   0  0  1  0  0  0  0  0  0  0  0  0
    6.0010    0.0950    0.0000 C   0  0  0  0  0  0  0  0  0  0  0  0
    3.4030   -2.4050    0.0000 C   0  0  2  0  0  0  0  0  0  0  0  0
   10.3312    0.5950    0.0000 C   0  0  0  0  0  0  0  0  0  0  0  0
    3.4030   -1.4050    0.0000 C   0  0  0  0  0  0  0  0  0  0  0  0
    5.1350    1.5950    0.0000 C   0  0  0  0  0  0  0  0  0  0  0  0
    4.2690   -2.9050    0.0000 C   0  0  0  0  0  0  0  0  0  0  0  0
    4.2690   -0.9050    0.0000 C   0  0  0  0  0  0  0  0  0  0  0  0
    6.0010    3.0950    0.0000 C   0  0  2  0  0  0  0  0  0  0  0  0
    4.2690   -3.9050    0.0000 C   0  0  0  0  0  0  0  0  0  0  0  0
   10.3312    1.5950    0.0000 C   0  0  0  0  0  0  0  0  0  0  0  0
    8.5991    3.5950    0.0000 C   0  0  2  0  0  0  0  0  0  0  0  0
    6.8671    3.5950    0.0000 C   0  0  0  0  0  0  0  0  0  0  0  0
    5.1350   -4.4050    0.0000 C   0  0  0  0  0  0  0  0  0  0  0  0
    5.1350    3.5950    0.0000 C   0  0  0  0  0  0  0  0  0  0  0  0
    9.4651    3.0950    0.0000 C   0  0  0  0  0  0  0  0  0  0  0  0
   11.1972    2.0950    0.0000 C   0  0  0  0  0  0  0  0  0  0  0  0
    8.5991    4.5950    0.0000 C   0  0  0  0  0  0  0  0  0  0  0  0
   12.5240    3.2083    0.0000 C   0  0  0  0  0  0  0  0  0  0  0  0
    8.5664    1.5285    0.0000 H   0  0  0  0  0  0  0  0  0  0  0  0
    8.1116    1.2913    0.0000 H   0  0  0  0  0  0  0  0  0  0  0  0
    9.9948    0.3588    0.0000 H   0  0  0  0  0  0  0  0  0  0  0  0
   10.7798    0.4972    0.0000 H   0  0  0  0  0  0  0  0  0  0  0  0
   11.1786    0.9280    0.0000 H   0  0  0  0  0  0  0  0  0  0  0  0
    8.6089    2.4346    0.0000 H   0  0  0  0  0  0  0  0  0  0  0  0
    9.4651   -0.5250    0.0000 H   0  0  0  0  0  0  0  0  0  0  0  0
    5.1350   -0.0250    0.0000 H   0  0  0  0  0  0  0  0  0  0  0  0
    5.6025   -0.3799    0.0000 H   0  0  0  0  0  0  0  0  0  0  0  0
    6.3996   -0.3799    0.0000 H   0  0  0  0  0  0  0  0  0  0  0  0
    6.8671    1.2150    0.0000 H   0  0  0  0  0  0  0  0  0  0  0  0
    3.4030   -3.0250    0.0000 H   0  0  0  0  0  0  0  0  0  0  0  0
    3.7320    0.4050    0.0000 H   0  0  0  0  0  0  0  0  0  0  0  0
    3.1909   -0.8224    0.0000 H   0  0  0  0  0  0  0  0  0  0  0  0
    2.7924   -1.5127    0.0000 H   0  0  0  0  0  0  0  0  0  0  0  0
    4.8796   -3.0127    0.0000 H   0  0  0  0  0  0  0  0  0  0  0  0
    4.4810   -2.3224    0.0000 H   0  0  0  0  0  0  0  0  0  0  0  0
   12.1182    0.5860    0.0000 H   0  0  0  0  0  0  0  0  0  0  0  0
    5.4641    2.7850    0.0000 H   0  0  0  0  0  0  0  0  0  0  0  0
   10.2589    4.2487    0.0000 H   0  0  0  0  0  0  0  0  0  0  0  0
    9.2013    4.0622    0.0000 H   0  0  0  0  0  0  0  0  0  0  0  0
    3.6584   -3.7973    0.0000 H   0  0  0  0  0  0  0  0  0  0  0  0
    4.0569   -4.4876    0.0000 H   0  0  0  0  0  0  0  0  0  0  0  0
    6.5380    1.7850    0.0000 H   0  0  0  0  0  0  0  0  0  0  0  0
    8.0622    3.9050    0.0000 H   0  0  0  0  0  0  0  0  0  0  0  0
    2.5369   -3.5250    0.0000 H   0  0  0  0  0  0  0  0  0  0  0  0
    2.0000   -2.5950    0.0000 H   0  0  0  0  0  0  0  0  0  0  0  0
    5.7456   -4.5127    0.0000 H   0  0  0  0  0  0  0  0  0  0  0  0
    5.3471   -3.8224    0.0000 H   0  0  0  0  0  0  0  0  0  0  0  0
    4.5244    3.7027    0.0000 H   0  0  0  0  0  0  0  0  0  0  0  0
    4.9230    3.0124    0.0000 H   0  0  0  0  0  0  0  0  0  0  0  0
    8.9902    1.6965    0.0000 H   0  0  0  0  0  0  0  0  0  0  0  0
    7.7331    2.4750    0.0000 H   0  0  0  0  0  0  0  0  0  0  0  0
   11.7341    1.7850    0.0000 H   0  0  0  0  0  0  0  0  0  0  0  0
    8.3871    5.1776    0.0000 H   0  0  0  0  0  0  0  0  0  0  0  0
    7.9885    4.4873    0.0000 H   0  0  0  0  0  0  0  0  0  0  0  0
    5.6720   -5.7150    0.0000 H   0  0  0  0  0  0  0  0  0  0  0  0
    4.5981   -5.7150    0.0000 H   0  0  0  0  0  0  0  0  0  0  0  0
    4.5981    4.9050    0.0000 H   0  0  0  0  0  0  0  0  0  0  0  0
   11.1407    3.5096    0.0000 H   0  0  0  0  0  0  0  0  0  0  0  0
    9.4651    5.7150    0.0000 H   0  0  0  0  0  0  0  0  0  0  0  0
   13.7774    2.5500    0.0000 H   0  0  0  0  0  0  0  0  0  0  0  0
   12.9548    1.8597    0.0000 H   0  0  0  0  0  0  0  0  0  0  0  0
 27  1  1  1  0  0  0
  1 66  1  0  0  0  0
  2 28  2  0  0  0  0
  3 33  2  0  0  0  0
  4 35  2  0  0  0  0
  5 37  2  0  0  0  0
  6 44  1  0  0  0  0
  6 87  1  0  0  0  0
  7 42  2  0  0  0  0
  8 45  2  0  0  0  0
  9 47  1  0  0  0  0
  9 89  1  0  0  0  0
 10 48  2  0  0  0  0
 11 24  1  0  0  0  0
 11 29  1  0  0  0  0
 11 54  1  0  0  0  0
 12 25  1  0  0  0  0
 12 33  1  0  0  0  0
 12 55  1  0  0  0  0
 13 28  1  0  0  0  0
 13 31  1  0  0  0  0
 13 59  1  0  0  0  0
 14 27  1  0  0  0  0
 14 29  2  0  0  0  0
 30 15  1  6  0  0  0
 15 37  1  0  0  0  0
 15 61  1  0  0  0  0
 16 29  1  0  0  0  0
 16 68  1  0  0  0  0
 16 69  1  0  0  0  0
 17 35  1  0  0  0  0
 17 38  1  0  0  0  0
 17 72  1  0  0  0  0
 32 18  1  6  0  0  0
 18 74  1  0  0  0  0
 18 75  1  0  0  0  0
 19 40  1  0  0  0  0
 19 45  1  0  0  0  0
 19 80  1  0  0  0  0
 20 41  1  0  0  0  0
 20 42  1  0  0  0  0
 20 81  1  0  0  0  0
 21 43  1  0  0  0  0
 21 85  1  0  0  0  0
 21 86  1  0  0  0  0
 22 46  1  0  0  0  0
 22 48  1  0  0  0  0
 22 88  1  0  0  0  0
 23 48  1  0  0  0  0
 23 90  1  0  0  0  0
 23 91  1  0  0  0  0
 24 25  1  0  0  0  0
 24 26  1  0  0  0  0
 24 49  1  1  0  0  0
 25 28  1  0  0  0  0
 25 50  1  1  0  0  0
 26 27  1  0  0  0  0
 26 51  1  0  0  0  0
 26 52  1  0  0  0  0
 27 53  1  0  0  0  0
 30 31  1  0  0  0  0
 30 35  1  0  0  0  0
 30 56  1  0  0  0  0
 31 57  1  0  0  0  0
 31 58  1  0  0  0  0
 32 34  1  0  0  0  0
 32 36  1  0  0  0  0
 32 60  1  0  0  0  0
 33 40  1  0  0  0  0
 34 37  1  0  0  0  0
 34 62  1  0  0  0  0
 34 63  1  0  0  0  0
 36 39  1  0  0  0  0
 36 64  1  0  0  0  0
 36 65  1  0  0  0  0
 38 42  1  0  0  0  0
 38 44  1  1  0  0  0
 38 67  1  0  0  0  0
 39 43  1  0  0  0  0
 39 70  1  0  0  0  0
 39 71  1  0  0  0  0
 40 46  2  0  0  0  0
 41 45  1  0  0  0  0
 41 47  1  1  0  0  0
 41 73  1  0  0  0  0
 43 76  1  0  0  0  0
 43 77  1  0  0  0  0
 44 78  1  0  0  0  0
 44 79  1  0  0  0  0
 46 82  1  0  0  0  0
 47 83  1  0  0  0  0
 47 84  1  0  0  0  0
M  END
> <PUBCHEM_COMPOUND_CID>
3037981

> <PUBCHEM_COMPOUND_CANONICALIZED>
1

> <PUBCHEM_CACTVS_COMPLEXITY>
1280

> <PUBCHEM_CACTVS_HBOND_ACCEPTOR>
13

> <PUBCHEM_CACTVS_HBOND_DONOR>
15

> <PUBCHEM_CACTVS_ROTATABLE_BOND>
10

> <PUBCHEM_CACTVS_SUBSKEYS>
AAADcfB7/AAAAAAAAAAAAAAAAAAAAAAAAAAgAAAAAAAAAAAAAAAAHgAQCAAACCjhgAYBAALAAgCoAAVWdACAAAEAAgABAIGIAECCUB4AyCAUQAAGNgKQAMG4HQIAAAAAAAAAAAAAAAAAAAAAAAAAAAAAAA==

> <PUBCHEM_IUPAC_OPENEYE_NAME>
(3S)-3,6-diamino-N-[(3S,6Z,9S,12S,15S)-3-[(4S,6R)-2-amino-4-hydroxy-1,4,5,6-tetrahydropyrimidin-6-yl]-9,12-bis(hydroxymethyl)-2,5,8,11,14-pentaoxo-6-(ureidomethylene)-1,4,7,10,13-pentazacyclohexadec-15-yl]hexanamide

> <PUBCHEM_IUPAC_CAS_NAME>
(3S)-3,6-diamino-N-[(3S,6Z,9S,12S,15S)-3-[(4S,6R)-2-amino-4-hydroxy-1,4,5,6-tetrahydropyrimidin-6-yl]-6-[(carbamoylamino)methylidene]-9,12-bis(hydroxymethyl)-2,5,8,11,14-pentaoxo-1,4,7,10,13-pentazacyclohexadec-15-yl]hexanamide

> <PUBCHEM_IUPAC_NAME>
(3S)-3,6-diamino-N-[(3S,6Z,9S,12S,15S)-3-[(4S,6R)-2-amino-4-hydroxy-1,4,5,6-tetrahydropyrimidin-6-yl]-6-[(carbamoylamino)methylidene]-9,12-bis(hydroxymethyl)-2,5,8,11,14-pentaoxo-1,4,7,10,13-pentazacyclohexadec-15-yl]hexanamide

> <PUBCHEM_IUPAC_SYSTEMATIC_NAME>
(3S)-N-[(3S,6Z,9S,12S,15S)-6-[(aminocarbonylamino)methylidene]-3-[(4S,6R)-2-azanyl-4-oxidanyl-1,4,5,6-tetrahydropyrimidin-6-yl]-9,12-bis(hydroxymethyl)-2,5,8,11,14-pentakis(oxidanylidene)-1,4,7,10,13-pentazacyclohexadec-15-yl]-3,6-bis(azanyl)hexanamide

> <PUBCHEM_IUPAC_TRADITIONAL_NAME>
(3S)-3,6-diamino-N-[(3S,6Z,9S,12S,15S)-3-[(4S,6R)-2-amino-4-hydroxy-1,4,5,6-tetrahydropyrimidin-6-yl]-2,5,8,11,14-pentaketo-9,12-dimethylol-6-(ureidomethylene)-1,4,7,10,13-pentazacyclohexadec-15-yl]hexanamide

> <PUBCHEM_IUPAC_INCHI>
InChI=1S/C25H43N13O10/c26-3-1-2-10(27)4-16(41)32-12-6-30-23(47)18(11-5-17(42)37-24(28)36-11)38-20(44)13(7-31-25(29)48)33-21(45)14(8-39)35-22(46)15(9-40)34-19(12)43/h7,10-12,14-15,17-18,39-40,42H,1-6,8-9,26-27H2,(H,30,47)(H,32,41)(H,33,45)(H,34,43)(H,35,46)(H,38,44)(H3,28,36,37)(H3,29,31,48)/b13-7-/t10-,11+,12-,14-,15-,17-,18-/m0/s1

> <PUBCHEM_IUPAC_INCHIKEY>
GXFAIFRPOKBQRV-GHXCTMGLSA-N

> <PUBCHEM_XLOGP3_AA>
-7

> <PUBCHEM_EXACT_MASS>
685.325585

> <PUBCHEM_MOLECULAR_FORMULA>
C25H43N13O10

> <PUBCHEM_MOLECULAR_WEIGHT>
685.69002

> <PUBCHEM_OPENEYE_CAN_SMILES>
C1C(NC(=NC1O)N)C2C(=O)NCC(C(=O)NC(C(=O)NC(C(=O)NC(=CNC(=O)N)C(=O)N2)CO)CO)NC(=O)CC(CCCN)N

> <PUBCHEM_OPENEYE_ISO_SMILES>
C1[C@@H](NC(=N[C@H]1O)N)[C@H]2C(=O)NC[C@@H](C(=O)N[C@H](C(=O)N[C@H](C(=O)N/C(=C\NC(=O)N)/C(=O)N2)CO)CO)NC(=O)C[C@H](CCCN)N

> <PUBCHEM_CACTVS_TPSA>
393

> <PUBCHEM_MONOISOTOPIC_WEIGHT>
685.325585

> <PUBCHEM_TOTAL_CHARGE>
0

> <PUBCHEM_HEAVY_ATOM_COUNT>
48

> <PUBCHEM_ATOM_DEF_STEREO_COUNT>
7

> <PUBCHEM_ATOM_UDEF_STEREO_COUNT>
0

> <PUBCHEM_BOND_DEF_STEREO_COUNT>
1

> <PUBCHEM_BOND_UDEF_STEREO_COUNT>
0

> <PUBCHEM_ISOTOPIC_ATOM_COUNT>
0

> <PUBCHEM_COMPONENT_COUNT>
1

> <PUBCHEM_CACTVS_TAUTO_COUNT>
1001

> <PUBCHEM_COORDINATE_TYPE>
1
5
255

> <PUBCHEM_BONDANNOTATIONS>
27  1  5
30  15  6
32  18  6
24  49  5
25  50  5
38  44  5
41  47  5

$$$$

