6321
  -OEChem-07051213002D

 17 16  0     1  0  0  0  0  0999 V2000
    3.4030    0.2220    0.0000 S   0  0  0  0  0  0  0  0  0  0  0  0
    5.1350   -0.7780    0.0000 S   0  0  0  0  0  0  0  0  0  0  0  0
    6.8671    0.2220    0.0000 S   0  0  0  0  0  0  0  0  0  0  0  0
    2.5369   -0.2780    0.0000 O   0  0  0  0  0  0  0  0  0  0  0  0
    2.9030    1.0880    0.0000 O   0  0  0  0  0  0  0  0  0  0  0  0
    3.9030   -0.6440    0.0000 O   0  0  0  0  0  0  0  0  0  0  0  0
    5.1350    0.2220    0.0000 C   0  0  3  0  0  0  0  0  0  0  0  0
    4.2690    0.7220    0.0000 C   0  0  0  0  0  0  0  0  0  0  0  0
    6.0010    0.7220    0.0000 C   0  0  0  0  0  0  0  0  0  0  0  0
    5.8711   -0.2030    0.0000 H   0  0  0  0  0  0  0  0  0  0  0  0
    4.6675    1.1969    0.0000 H   0  0  0  0  0  0  0  0  0  0  0  0
    3.8705    1.1969    0.0000 H   0  0  0  0  0  0  0  0  0  0  0  0
    6.3996    1.1969    0.0000 H   0  0  0  0  0  0  0  0  0  0  0  0
    5.6025    1.1969    0.0000 H   0  0  0  0  0  0  0  0  0  0  0  0
    5.6720   -1.0880    0.0000 H   0  0  0  0  0  0  0  0  0  0  0  0
    2.0000    0.0320    0.0000 H   0  0  0  0  0  0  0  0  0  0  0  0
    7.4040    0.5320    0.0000 H   0  0  0  0  0  0  0  0  0  0  0  0
  1  4  1  0  0  0  0
  1  5  2  0  0  0  0
  1  6  2  0  0  0  0
  1  8  1  0  0  0  0
  2  7  1  0  0  0  0
  2 15  1  0  0  0  0
  3  9  1  0  0  0  0
  3 17  1  0  0  0  0
  4 16  1  0  0  0  0
  7  8  1  0  0  0  0
  7  9  1  0  0  0  0
  7 10  1  0  0  0  0
  8 11  1  0  0  0  0
  8 12  1  0  0  0  0
  9 13  1  0  0  0  0
  9 14  1  0  0  0  0
M  END
> <PUBCHEM_COMPOUND_CID>
6321

> <PUBCHEM_COMPOUND_CANONICALIZED>
1

> <PUBCHEM_CACTVS_COMPLEXITY>
156

> <PUBCHEM_CACTVS_HBOND_ACCEPTOR>
5

> <PUBCHEM_CACTVS_HBOND_DONOR>
3

> <PUBCHEM_CACTVS_ROTATABLE_BOND>
3

> <PUBCHEM_CACTVS_SUBSKEYS>
AAADccBAMABgAAAAAAAAAAAAAAAAAAAAAAAAAAAAAAAAAAAAAAAAGAQACAAACACEQACAAAAAAIYAAAAAAHBAAAAAAAAAAAAAAAAAAAAAAAAAAAAAAAAAAAAAAAAAAAAAAAAAAAAAAAAAAAAAAAAAAAAAAA==

> <PUBCHEM_IUPAC_OPENEYE_NAME>
2,3-bis(sulfanyl)propane-1-sulfonic acid

> <PUBCHEM_IUPAC_CAS_NAME>
2,3-dimercapto-1-propanesulfonic acid

> <PUBCHEM_IUPAC_NAME>
2,3-bis(sulfanyl)propane-1-sulfonic acid

> <PUBCHEM_IUPAC_SYSTEMATIC_NAME>
2,3-bis(sulfanyl)propane-1-sulfonic acid

> <PUBCHEM_IUPAC_TRADITIONAL_NAME>
2,3-dimercaptopropane-1-sulfonic acid

> <PUBCHEM_IUPAC_INCHI>
InChI=1S/C3H8O3S3/c4-9(5,6)2-3(8)1-7/h3,7-8H,1-2H2,(H,4,5,6)

> <PUBCHEM_IUPAC_INCHIKEY>
JLVSRWOIZZXQAD-UHFFFAOYSA-N

> <PUBCHEM_XLOGP3_AA>
-0.2

> <PUBCHEM_EXACT_MASS>
187.963557

> <PUBCHEM_MOLECULAR_FORMULA>
C3H8O3S3

> <PUBCHEM_MOLECULAR_WEIGHT>
188.28882

> <PUBCHEM_OPENEYE_CAN_SMILES>
C(C(CS(=O)(=O)O)S)S

> <PUBCHEM_OPENEYE_ISO_SMILES>
C(C(CS(=O)(=O)O)S)S

> <PUBCHEM_CACTVS_TPSA>
64.8

> <PUBCHEM_MONOISOTOPIC_WEIGHT>
187.963557

> <PUBCHEM_TOTAL_CHARGE>
0

> <PUBCHEM_HEAVY_ATOM_COUNT>
9

> <PUBCHEM_ATOM_DEF_STEREO_COUNT>
0

> <PUBCHEM_ATOM_UDEF_STEREO_COUNT>
1

> <PUBCHEM_BOND_DEF_STEREO_COUNT>
0

> <PUBCHEM_BOND_UDEF_STEREO_COUNT>
0

> <PUBCHEM_ISOTOPIC_ATOM_COUNT>
0

> <PUBCHEM_COMPONENT_COUNT>
1

> <PUBCHEM_CACTVS_TAUTO_COUNT>
1

> <PUBCHEM_COORDINATE_TYPE>
1
5
255

> <PUBCHEM_BONDANNOTATIONS>
7  10  3

$$$$

