   Color/Form
        White solid
   from [1]HSDB

   Boiling Point
        Decomposes before boiling
   from [2]HSDB

   Melting Point
        123-124 deg C
   from [3]HSDB

   Corrosivity
        Non-corrosive to metals
   from [4]HSDB

   Density/Specific Gravity
        1.24 at 25 deg C
   from [5]HSDB

   Solubilities

     * @ 25 DEG C: 1.5 MG/L WATER, 40 G/L ACETONE, 6.5 G/L METHANOL, 55
       G/L XYLENE
     * @ 25 deg C in ethanol approx equal to 1.0% wt/wt

   from [6]HSDB

   Spectral Properties
        Intense mass spectral peaks: 159 m/z (100%), 124 m/z (97%), 260
   m/z (71%), 161 m/z (71%)
   from [7]HSDB

   Vapor Pressure
        133 uPa at 25 deg C
   from [8]HSDB

   Other Chemical/Physical Properties

     * LIGHT TAN SOLID /TECHNICAL PRODUCT/
     * Exothermic decomp begins at 273 deg C.
     * Henry's Law constant= 2.29X10-7 atm-cu m/mole

   from [9]HSDB

   Computed Properties
   Molecular Weight                  261.06154 [g/mol]
   Molecular Formula                 C[9]H[6]Cl[2]N[2]O[3]
   XLogP3-AA                         2.7
   H-Bond Donor                      0
   H-Bond Acceptor                   3
   Rotatable Bond Count              1
   Exact Mass                        259.975547
   MonoIsotopic Mass                 259.975547
   Topological Polar Surface Area    49.8
   Heavy Atom Count                  16
   Formal Charge                     0
   Complexity                        326
   Isotope Atom Count                0
   Defined Atom Stereocenter Count   0
   Undefined Atom Stereocenter Count 0
   Defined Bond Stereocenter Count   0
   Undefined Bond Stereocenter Count 0
   Covalently-Bonded Unit Count      1
   Feature 3D Acceptor Count         2
   Feature 3D Ring Count             2
   Effective Rotor Count             1
   Conformer Sampling RMSD           0.6
   CID Conformer Count               [10]4

References

   1. http://toxnet.nlm.nih.gov/cgi-bin/sis/search/r?dbs+hsdb:@term+@rn+@rel+20354-26-1
   2. http://toxnet.nlm.nih.gov/cgi-bin/sis/search/r?dbs+hsdb:@term+@rn+@rel+20354-26-1
   3. http://toxnet.nlm.nih.gov/cgi-bin/sis/search/r?dbs+hsdb:@term+@rn+@rel+20354-26-1
   4. http://toxnet.nlm.nih.gov/cgi-bin/sis/search/r?dbs+hsdb:@term+@rn+@rel+20354-26-1
   5. http://toxnet.nlm.nih.gov/cgi-bin/sis/search/r?dbs+hsdb:@term+@rn+@rel+20354-26-1
   6. http://toxnet.nlm.nih.gov/cgi-bin/sis/search/r?dbs+hsdb:@term+@rn+@rel+20354-26-1
   7. http://toxnet.nlm.nih.gov/cgi-bin/sis/search/r?dbs+hsdb:@term+@rn+@rel+20354-26-1
   8. http://toxnet.nlm.nih.gov/cgi-bin/sis/search/r?dbs+hsdb:@term+@rn+@rel+20354-26-1
   9. http://toxnet.nlm.nih.gov/cgi-bin/sis/search/r?dbs+hsdb:@term+@rn+@rel+20354-26-1
  10. http://pubchem.ncbi.nlm.nih.gov/vw3d/vw3d.cgi?cid=4690
