12617
  -OEChem-06261207092D

 30 28  0     0  0  0  0  0  0999 V2000
    3.8365    1.0000    0.0000 Cl  0  0  0  0  0  0  0  0  0  0  0  0
    2.9705    2.5000    0.0000 Cl  0  0  0  0  0  0  0  0  0  0  0  0
    1.2384    1.5000    0.0000 O   0  0  0  0  0  0  0  0  0  0  0  0
    2.1044    0.0000    0.0000 O   0  0  0  0  0  0  0  0  0  0  0  0
    2.2690    5.1200    0.0000 N   0  0  0  0  0  0  0  0  0  0  0  0
    3.1350    5.6200    0.0000 C   0  0  0  0  0  0  0  0  0  0  0  0
    1.4030    5.6200    0.0000 C   0  0  0  0  0  0  0  0  0  0  0  0
    0.5369    5.1200    0.0000 C   0  0  0  0  0  0  0  0  0  0  0  0
    1.4030    6.6200    0.0000 C   0  0  0  0  0  0  0  0  0  0  0  0
    4.0010    5.1200    0.0000 C   0  0  0  0  0  0  0  0  0  0  0  0
    3.1350    6.6200    0.0000 C   0  0  0  0  0  0  0  0  0  0  0  0
    2.9705    1.5000    0.0000 C   0  0  0  0  0  0  0  0  0  0  0  0
    2.1044    1.0000    0.0000 C   0  0  0  0  0  0  0  0  0  0  0  0
    3.1350    5.0000    0.0000 H   0  0  0  0  0  0  0  0  0  0  0  0
    1.9399    5.9300    0.0000 H   0  0  0  0  0  0  0  0  0  0  0  0
    2.2690    4.5000    0.0000 H   0  0  0  0  0  0  0  0  0  0  0  0
    0.2269    5.6569    0.0000 H   0  0  0  0  0  0  0  0  0  0  0  0
    0.0000    4.8100    0.0000 H   0  0  0  0  0  0  0  0  0  0  0  0
    0.8469    4.5831    0.0000 H   0  0  0  0  0  0  0  0  0  0  0  0
    2.0230    6.6200    0.0000 H   0  0  0  0  0  0  0  0  0  0  0  0
    1.4030    7.2400    0.0000 H   0  0  0  0  0  0  0  0  0  0  0  0
    0.7830    6.6200    0.0000 H   0  0  0  0  0  0  0  0  0  0  0  0
    3.6910    4.5831    0.0000 H   0  0  0  0  0  0  0  0  0  0  0  0
    4.5380    4.8100    0.0000 H   0  0  0  0  0  0  0  0  0  0  0  0
    4.3110    5.6569    0.0000 H   0  0  0  0  0  0  0  0  0  0  0  0
    3.7550    6.6200    0.0000 H   0  0  0  0  0  0  0  0  0  0  0  0
    3.1350    7.2400    0.0000 H   0  0  0  0  0  0  0  0  0  0  0  0
    2.5150    6.6200    0.0000 H   0  0  0  0  0  0  0  0  0  0  0  0
    2.9705    0.8800    0.0000 H   0  0  0  0  0  0  0  0  0  0  0  0
    0.7015    1.1900    0.0000 H   0  0  0  0  0  0  0  0  0  0  0  0
  1 12  1  0  0  0  0
  2 12  1  0  0  0  0
  3 13  1  0  0  0  0
  3 30  1  0  0  0  0
  4 13  2  0  0  0  0
  5  6  1  0  0  0  0
  5  7  1  0  0  0  0
  5 16  1  0  0  0  0
  6 10  1  0  0  0  0
  6 11  1  0  0  0  0
  6 14  1  0  0  0  0
  7  8  1  0  0  0  0
  7  9  1  0  0  0  0
  7 15  1  0  0  0  0
  8 17  1  0  0  0  0
  8 18  1  0  0  0  0
  8 19  1  0  0  0  0
  9 20  1  0  0  0  0
  9 21  1  0  0  0  0
  9 22  1  0  0  0  0
 10 23  1  0  0  0  0
 10 24  1  0  0  0  0
 10 25  1  0  0  0  0
 11 26  1  0  0  0  0
 11 27  1  0  0  0  0
 11 28  1  0  0  0  0
 12 13  1  0  0  0  0
 12 29  1  0  0  0  0
M  END
> <PUBCHEM_COMPOUND_CID>
12617

> <PUBCHEM_COMPOUND_CANONICALIZED>
1

> <PUBCHEM_CACTVS_COMPLEXITY>
94

> <PUBCHEM_CACTVS_HBOND_ACCEPTOR>
3

> <PUBCHEM_CACTVS_HBOND_DONOR>
2

> <PUBCHEM_CACTVS_ROTATABLE_BOND>
3

> <PUBCHEM_CACTVS_SUBSKEYS>
AAADceByMAAGAAAAAAAAAAAAAAAAAAAAAAAAAAAAAAAAAAAAAAAAHgIQCAAACCvBgMQCCALAAgAIAACQCAAAAAAAAAAAAIAIAQBAAAAAAAAAAAAAEACAAAAAAAAAAAAAAAAAAAAAAAAAAAAAAAAAAAAAAA==

> <PUBCHEM_IUPAC_OPENEYE_NAME>
2,2-dichloroacetic acid; N-isopropylpropan-2-amine

> <PUBCHEM_IUPAC_CAS_NAME>
2,2-dichloroacetic acid; N-propan-2-yl-2-propanamine

> <PUBCHEM_IUPAC_NAME>
2,2-dichloroacetic acid; N-propan-2-ylpropan-2-amine

> <PUBCHEM_IUPAC_SYSTEMATIC_NAME>
2,2-bis(chloranyl)ethanoic acid; N-propan-2-ylpropan-2-amine

> <PUBCHEM_IUPAC_TRADITIONAL_NAME>
2,2-dichloroacetic acid; diisopropylamine

> <PUBCHEM_IUPAC_INCHI>
InChI=1S/C6H15N.C2H2Cl2O2/c1-5(2)7-6(3)4;3-1(4)2(5)6/h5-7H,1-4H3;1H,(H,5,6)

> <PUBCHEM_IUPAC_INCHIKEY>
ILKBHIBYKSHTKQ-UHFFFAOYSA-N

> <PUBCHEM_EXACT_MASS>
229.063634

> <PUBCHEM_MOLECULAR_FORMULA>
C8H17Cl2NO2

> <PUBCHEM_MOLECULAR_WEIGHT>
230.13208

> <PUBCHEM_OPENEYE_CAN_SMILES>
CC(C)NC(C)C.C(C(=O)O)(Cl)Cl

> <PUBCHEM_OPENEYE_ISO_SMILES>
CC(C)NC(C)C.C(C(=O)O)(Cl)Cl

> <PUBCHEM_CACTVS_TPSA>
49.3

> <PUBCHEM_MONOISOTOPIC_WEIGHT>
229.063634

> <PUBCHEM_TOTAL_CHARGE>
0

> <PUBCHEM_HEAVY_ATOM_COUNT>
13

> <PUBCHEM_ATOM_DEF_STEREO_COUNT>
0

> <PUBCHEM_ATOM_UDEF_STEREO_COUNT>
0

> <PUBCHEM_BOND_DEF_STEREO_COUNT>
0

> <PUBCHEM_BOND_UDEF_STEREO_COUNT>
0

> <PUBCHEM_ISOTOPIC_ATOM_COUNT>
0

> <PUBCHEM_COMPONENT_COUNT>
2

> <PUBCHEM_CACTVS_TAUTO_COUNT>
1

> <PUBCHEM_COORDINATE_TYPE>
1
5
255

$$$$

