128357
  -OEChem-07051213102D

 69 72  0     1  0  0  0  0  0999 V2000
    7.9506   -3.0786    0.0000 O   0  0  0  0  0  0  0  0  0  0  0  0
    2.5357   -3.0994    0.0000 O   0  0  0  0  0  0  0  0  0  0  0  0
    9.8070    3.1092    0.0000 O   0  0  0  0  0  0  0  0  0  0  0  0
   11.7640    3.5216    0.0000 O   0  0  0  0  0  0  0  0  0  0  0  0
   12.1212    1.8268    0.0000 O   0  0  0  0  0  0  0  0  0  0  0  0
    7.9288   -1.0471    0.0000 C   0  0  2  0  0  0  0  0  0  0  0  0
    7.9288   -0.0471    0.0000 C   0  0  1  0  0  0  0  0  0  0  0  0
    7.0628   -1.5471    0.0000 C   0  0  1  0  0  0  0  0  0  0  0  0
    6.1968   -1.0471    0.0000 C   0  0  1  0  0  0  0  0  0  0  0  0
    5.2868   -1.5539    0.0000 C   0  0  2  0  0  0  0  0  0  0  0  0
    8.8750    0.2576    0.0000 C   0  0  2  0  0  0  0  0  0  0  0  0
    5.2787   -2.5955    0.0000 C   0  0  2  0  0  0  0  0  0  0  0  0
    7.0628    0.4529    0.0000 C   0  0  0  0  0  0  0  0  0  0  0  0
    6.1968   -0.0471    0.0000 C   0  0  0  0  0  0  0  0  0  0  0  0
    7.0789   -2.5886    0.0000 C   0  0  1  0  0  0  0  0  0  0  0  0
    8.8750   -1.3518    0.0000 C   0  0  0  0  0  0  0  0  0  0  0  0
    9.4586   -0.5471    0.0000 C   0  0  0  0  0  0  0  0  0  0  0  0
    6.1808   -3.1164    0.0000 C   0  0  0  0  0  0  0  0  0  0  0  0
    4.3599   -0.9899    0.0000 C   0  0  0  0  0  0  0  0  0  0  0  0
    7.9288    0.9529    0.0000 C   0  0  0  0  0  0  0  0  0  0  0  0
    9.1857    1.2082    0.0000 C   0  0  1  0  0  0  0  0  0  0  0  0
    4.3433   -3.1453    0.0000 C   0  0  0  0  0  0  0  0  0  0  0  0
    5.2945   -0.5540    0.0000 C   0  0  0  0  0  0  0  0  0  0  0  0
    3.4120   -1.5178    0.0000 C   0  0  0  0  0  0  0  0  0  0  0  0
    3.4037   -2.6028    0.0000 C   0  0  1  0  0  0  0  0  0  0  0  0
   10.1642    1.4144    0.0000 C   0  0  0  0  0  0  0  0  0  0  0  0
    8.5179    1.9525    0.0000 C   0  0  0  0  0  0  0  0  0  0  0  0
   10.4749    2.3649    0.0000 C   0  0  2  0  0  0  0  0  0  0  0  0
   11.4534    2.5711    0.0000 C   0  0  0  0  0  0  0  0  0  0  0  0
    8.0188   -1.8923    0.0000 H   0  0  0  0  0  0  0  0  0  0  0  0
    7.8022   -1.9664    0.0000 H   0  0  0  0  0  0  0  0  0  0  0  0
    6.9329   -0.6221    0.0000 H   0  0  0  0  0  0  0  0  0  0  0  0
    9.7148    0.3895    0.0000 H   0  0  0  0  0  0  0  0  0  0  0  0
    5.2820   -3.4455    0.0000 H   0  0  0  0  0  0  0  0  0  0  0  0
    7.4613    0.9278    0.0000 H   0  0  0  0  0  0  0  0  0  0  0  0
    6.6643    0.9278    0.0000 H   0  0  0  0  0  0  0  0  0  0  0  0
    5.9847    0.5355    0.0000 H   0  0  0  0  0  0  0  0  0  0  0  0
    5.5862   -0.1548    0.0000 H   0  0  0  0  0  0  0  0  0  0  0  0
    7.6116   -2.2714    0.0000 H   0  0  0  0  0  0  0  0  0  0  0  0
    8.6240   -1.9187    0.0000 H   0  0  0  0  0  0  0  0  0  0  0  0
    9.4124   -1.6611    0.0000 H   0  0  0  0  0  0  0  0  0  0  0  0
    9.9195   -0.9618    0.0000 H   0  0  0  0  0  0  0  0  0  0  0  0
    9.9195   -0.1324    0.0000 H   0  0  0  0  0  0  0  0  0  0  0  0
    5.7835   -3.5923    0.0000 H   0  0  0  0  0  0  0  0  0  0  0  0
    6.5818   -3.5892    0.0000 H   0  0  0  0  0  0  0  0  0  0  0  0
    4.7681   -0.5232    0.0000 H   0  0  0  0  0  0  0  0  0  0  0  0
    3.9700   -0.5078    0.0000 H   0  0  0  0  0  0  0  0  0  0  0  0
    8.5488    0.9529    0.0000 H   0  0  0  0  0  0  0  0  0  0  0  0
    7.9288    1.5729    0.0000 H   0  0  0  0  0  0  0  0  0  0  0  0
    7.3088    0.9529    0.0000 H   0  0  0  0  0  0  0  0  0  0  0  0
    9.3783    1.7975    0.0000 H   0  0  0  0  0  0  0  0  0  0  0  0
    3.9460   -3.6212    0.0000 H   0  0  0  0  0  0  0  0  0  0  0  0
    4.7443   -3.6182    0.0000 H   0  0  0  0  0  0  0  0  0  0  0  0
    5.9145   -0.5588    0.0000 H   0  0  0  0  0  0  0  0  0  0  0  0
    5.2993    0.0660    0.0000 H   0  0  0  0  0  0  0  0  0  0  0  0
    4.6745   -0.5492    0.0000 H   0  0  0  0  0  0  0  0  0  0  0  0
    3.2075   -0.9325    0.0000 H   0  0  0  0  0  0  0  0  0  0  0  0
    2.8004   -1.6192    0.0000 H   0  0  0  0  0  0  0  0  0  0  0  0
    2.8686   -2.2897    0.0000 H   0  0  0  0  0  0  0  0  0  0  0  0
   10.1848    0.7947    0.0000 H   0  0  0  0  0  0  0  0  0  0  0  0
   10.7780    1.3270    0.0000 H   0  0  0  0  0  0  0  0  0  0  0  0
    7.9578   -3.6985    0.0000 H   0  0  0  0  0  0  0  0  0  0  0  0
    8.9793    2.3665    0.0000 H   0  0  0  0  0  0  0  0  0  0  0  0
    8.1038    2.4139    0.0000 H   0  0  0  0  0  0  0  0  0  0  0  0
    8.0564    1.5384    0.0000 H   0  0  0  0  0  0  0  0  0  0  0  0
   10.6675    2.9542    0.0000 H   0  0  0  0  0  0  0  0  0  0  0  0
    2.0000   -2.7874    0.0000 H   0  0  0  0  0  0  0  0  0  0  0  0
    9.9996    3.6985    0.0000 H   0  0  0  0  0  0  0  0  0  0  0  0
   12.3707    3.6495    0.0000 H   0  0  0  0  0  0  0  0  0  0  0  0
 15  1  1  6  0  0  0
  1 62  1  0  0  0  0
 25  2  1  6  0  0  0
  2 67  1  0  0  0  0
 28  3  1  1  0  0  0
  3 68  1  0  0  0  0
  4 29  1  0  0  0  0
  4 69  1  0  0  0  0
  5 29  2  0  0  0  0
  6  7  1  0  0  0  0
  6  8  1  0  0  0  0
  6 16  1  0  0  0  0
  6 30  1  6  0  0  0
  7 11  1  0  0  0  0
  7 13  1  0  0  0  0
  7 20  1  1  0  0  0
  8  9  1  0  0  0  0
  8 15  1  0  0  0  0
  8 31  1  1  0  0  0
  9 10  1  0  0  0  0
  9 14  1  0  0  0  0
  9 32  1  6  0  0  0
 10 12  1  0  0  0  0
 10 19  1  0  0  0  0
 10 23  1  1  0  0  0
 11 17  1  0  0  0  0
 11 21  1  0  0  0  0
 11 33  1  6  0  0  0
 12 18  1  0  0  0  0
 12 22  1  0  0  0  0
 12 34  1  1  0  0  0
 13 14  1  0  0  0  0
 13 35  1  0  0  0  0
 13 36  1  0  0  0  0
 14 37  1  0  0  0  0
 14 38  1  0  0  0  0
 15 18  1  0  0  0  0
 15 39  1  0  0  0  0
 16 17  1  0  0  0  0
 16 40  1  0  0  0  0
 16 41  1  0  0  0  0
 17 42  1  0  0  0  0
 17 43  1  0  0  0  0
 18 44  1  0  0  0  0
 18 45  1  0  0  0  0
 19 24  1  0  0  0  0
 19 46  1  0  0  0  0
 19 47  1  0  0  0  0
 20 48  1  0  0  0  0
 20 49  1  0  0  0  0
 20 50  1  0  0  0  0
 21 26  1  0  0  0  0
 21 27  1  6  0  0  0
 21 51  1  0  0  0  0
 22 25  1  0  0  0  0
 22 52  1  0  0  0  0
 22 53  1  0  0  0  0
 23 54  1  0  0  0  0
 23 55  1  0  0  0  0
 23 56  1  0  0  0  0
 24 25  1  0  0  0  0
 24 57  1  0  0  0  0
 24 58  1  0  0  0  0
 25 59  1  0  0  0  0
 26 28  1  0  0  0  0
 26 60  1  0  0  0  0
 26 61  1  0  0  0  0
 27 63  1  0  0  0  0
 27 64  1  0  0  0  0
 27 65  1  0  0  0  0
 28 29  1  0  0  0  0
 28 66  1  0  0  0  0
M  END
> <PUBCHEM_COMPOUND_CID>
128357

> <PUBCHEM_COMPOUND_CANONICALIZED>
1

> <PUBCHEM_CACTVS_COMPLEXITY>
637

> <PUBCHEM_CACTVS_HBOND_ACCEPTOR>
5

> <PUBCHEM_CACTVS_HBOND_DONOR>
4

> <PUBCHEM_CACTVS_ROTATABLE_BOND>
4

> <PUBCHEM_CACTVS_SUBSKEYS>
AAADcfB4OAAAAAAAAAAAAAAAAAAAAYAAAAAwYMAAAAAAAGDAAAAAGgAACAAADxSggAICCAAAAgAIAACQCAIAAAAAAAAAAAFAAAABEBIAAAAAQAAEAAABAAGI6PSPgAAAAAAAAADAAAYAADAAAQAACAAAAA==

> <PUBCHEM_IUPAC_OPENEYE_NAME>
(2R,4R)-4-[(3R,5S,7R,8R,9S,10S,13R,14S,17R)-3,7-dihydroxy-10,13-dimethyl-2,3,4,5,6,7,8,9,11,12,14,15,16,17-tetradecahydro-1H-cyclopenta[a]phenanthren-17-yl]-2-hydroxy-pentanoic acid

> <PUBCHEM_IUPAC_CAS_NAME>
(2R,4R)-4-[(3R,5S,7R,8R,9S,10S,13R,14S,17R)-3,7-dihydroxy-10,13-dimethyl-2,3,4,5,6,7,8,9,11,12,14,15,16,17-tetradecahydro-1H-cyclopenta[a]phenanthren-17-yl]-2-hydroxypentanoic acid

> <PUBCHEM_IUPAC_NAME>
(2R,4R)-4-[(3R,5S,7R,8R,9S,10S,13R,14S,17R)-3,7-dihydroxy-10,13-dimethyl-2,3,4,5,6,7,8,9,11,12,14,15,16,17-tetradecahydro-1H-cyclopenta[a]phenanthren-17-yl]-2-hydroxypentanoic acid

> <PUBCHEM_IUPAC_SYSTEMATIC_NAME>
(2R,4R)-4-[(3R,5S,7R,8R,9S,10S,13R,14S,17R)-10,13-dimethyl-3,7-bis(oxidanyl)-2,3,4,5,6,7,8,9,11,12,14,15,16,17-tetradecahydro-1H-cyclopenta[a]phenanthren-17-yl]-2-oxidanyl-pentanoic acid

> <PUBCHEM_IUPAC_TRADITIONAL_NAME>
(2R,4R)-4-[(3R,5S,7R,8R,9S,10S,13R,14S,17R)-3,7-dihydroxy-10,13-dimethyl-2,3,4,5,6,7,8,9,11,12,14,15,16,17-tetradecahydro-1H-cyclopenta[a]phenanthren-17-yl]-2-hydroxy-valeric acid

> <PUBCHEM_IUPAC_INCHI>
InChI=1S/C24H40O5/c1-13(10-20(27)22(28)29)16-4-5-17-21-18(7-9-24(16,17)3)23(2)8-6-15(25)11-14(23)12-19(21)26/h13-21,25-27H,4-12H2,1-3H3,(H,28,29)/t13-,14+,15-,16-,17+,18+,19-,20-,21+,23+,24-/m1/s1

> <PUBCHEM_IUPAC_INCHIKEY>
SLDVWYDDPPFGHK-WEZRZJDESA-N

> <PUBCHEM_XLOGP3_AA>
4.4

> <PUBCHEM_EXACT_MASS>
408.287574

> <PUBCHEM_MOLECULAR_FORMULA>
C24H40O5

> <PUBCHEM_MOLECULAR_WEIGHT>
408.5714

> <PUBCHEM_OPENEYE_CAN_SMILES>
CC(CC(C(=O)O)O)C1CCC2C1(CCC3C2C(CC4C3(CCC(C4)O)C)O)C

> <PUBCHEM_OPENEYE_ISO_SMILES>
C[C@H](C[C@H](C(=O)O)O)[C@H]1CC[C@@H]2[C@@]1(CC[C@H]3[C@H]2[C@@H](C[C@H]4[C@@]3(CC[C@H](C4)O)C)O)C

> <PUBCHEM_CACTVS_TPSA>
98

> <PUBCHEM_MONOISOTOPIC_WEIGHT>
408.287574

> <PUBCHEM_TOTAL_CHARGE>
0

> <PUBCHEM_HEAVY_ATOM_COUNT>
29

> <PUBCHEM_ATOM_DEF_STEREO_COUNT>
11

> <PUBCHEM_ATOM_UDEF_STEREO_COUNT>
0

> <PUBCHEM_BOND_DEF_STEREO_COUNT>
0

> <PUBCHEM_BOND_UDEF_STEREO_COUNT>
0

> <PUBCHEM_ISOTOPIC_ATOM_COUNT>
0

> <PUBCHEM_COMPONENT_COUNT>
1

> <PUBCHEM_CACTVS_TAUTO_COUNT>
1

> <PUBCHEM_COORDINATE_TYPE>
1
5
255

> <PUBCHEM_BONDANNOTATIONS>
15  1  6
10  23  5
11  33  6
12  34  5
25  2  6
21  27  6
28  3  5
6  30  6
7  20  5
8  31  5
9  32  6

$$$$

