8394
  -OEChem-07051213052D

 17 18  0     0  0  0  0  0  0999 V2000
    3.4030   -1.5173    0.0000 O   0  0  0  0  0  0  0  0  0  0  0  0
    2.5369   -0.0173    0.0000 N   0  0  0  0  0  0  0  0  0  0  0  0
    2.5369    0.9827    0.0000 N   0  0  0  0  0  0  0  0  0  0  0  0
    4.2690   -0.0173    0.0000 C   0  0  0  0  0  0  0  0  0  0  0  0
    4.2690    0.9827    0.0000 C   0  0  0  0  0  0  0  0  0  0  0  0
    5.1629   -0.5520    0.0000 C   0  0  0  0  0  0  0  0  0  0  0  0
    5.1629    1.5173    0.0000 C   0  0  0  0  0  0  0  0  0  0  0  0
    3.4030   -0.5173    0.0000 C   0  0  0  0  0  0  0  0  0  0  0  0
    3.4030    1.4827    0.0000 C   0  0  0  0  0  0  0  0  0  0  0  0
    6.0690   -0.0381    0.0000 C   0  0  0  0  0  0  0  0  0  0  0  0
    6.0690    1.0035    0.0000 C   0  0  0  0  0  0  0  0  0  0  0  0
    5.1558   -1.1720    0.0000 H   0  0  0  0  0  0  0  0  0  0  0  0
    5.1558    2.1373    0.0000 H   0  0  0  0  0  0  0  0  0  0  0  0
    3.4030    2.1027    0.0000 H   0  0  0  0  0  0  0  0  0  0  0  0
    6.6047   -0.3502    0.0000 H   0  0  0  0  0  0  0  0  0  0  0  0
    6.6047    1.3156    0.0000 H   0  0  0  0  0  0  0  0  0  0  0  0
    2.0000   -0.3273    0.0000 H   0  0  0  0  0  0  0  0  0  0  0  0
  1  8  2  0  0  0  0
  2  3  1  0  0  0  0
  2  8  1  0  0  0  0
  2 17  1  0  0  0  0
  3  9  2  0  0  0  0
  4  5  1  0  0  0  0
  4  6  2  0  0  0  0
  4  8  1  0  0  0  0
  5  7  2  0  0  0  0
  5  9  1  0  0  0  0
  6 10  1  0  0  0  0
  6 12  1  0  0  0  0
  7 11  1  0  0  0  0
  7 13  1  0  0  0  0
  9 14  1  0  0  0  0
 10 11  2  0  0  0  0
 10 15  1  0  0  0  0
 11 16  1  0  0  0  0
M  END
> <PUBCHEM_COMPOUND_CID>
8394

> <PUBCHEM_COMPOUND_CANONICALIZED>
1

> <PUBCHEM_CACTVS_COMPLEXITY>
200

> <PUBCHEM_CACTVS_HBOND_ACCEPTOR>
2

> <PUBCHEM_CACTVS_HBOND_DONOR>
1

> <PUBCHEM_CACTVS_ROTATABLE_BOND>
0

> <PUBCHEM_CACTVS_SUBSKEYS>
AAADcYBzIAAAAAAAAAAAAAAAAAAAAAAAAAAwQAAAAAAAAACBAAAAHgAYAAAADADBmAQwAIBiAACoAjFzEACSAAAkAAAaiAEgBNgIILKAlRGAIQBgiAAIiYcYiICOgAAAAAAQAAAAAAAAACAAAAAAAAAAAA==

> <PUBCHEM_IUPAC_OPENEYE_NAME>
2H-phthalazin-1-one

> <PUBCHEM_IUPAC_CAS_NAME>
2H-phthalazin-1-one

> <PUBCHEM_IUPAC_NAME>
2H-phthalazin-1-one

> <PUBCHEM_IUPAC_SYSTEMATIC_NAME>
2H-phthalazin-1-one

> <PUBCHEM_IUPAC_TRADITIONAL_NAME>
2H-phthalazin-1-one

> <PUBCHEM_IUPAC_INCHI>
InChI=1S/C8H6N2O/c11-8-7-4-2-1-3-6(7)5-9-10-8/h1-5H,(H,10,11)

> <PUBCHEM_IUPAC_INCHIKEY>
IJAPPYDYQCXOEF-UHFFFAOYSA-N

> <PUBCHEM_XLOGP3>
0.8

> <PUBCHEM_EXACT_MASS>
146.048013

> <PUBCHEM_MOLECULAR_FORMULA>
C8H6N2O

> <PUBCHEM_MOLECULAR_WEIGHT>
146.14604

> <PUBCHEM_OPENEYE_CAN_SMILES>
C1=CC=C2C(=C1)C=NNC2=O

> <PUBCHEM_OPENEYE_ISO_SMILES>
C1=CC=C2C(=C1)C=NNC2=O

> <PUBCHEM_CACTVS_TPSA>
41.5

> <PUBCHEM_MONOISOTOPIC_WEIGHT>
146.048013

> <PUBCHEM_TOTAL_CHARGE>
0

> <PUBCHEM_HEAVY_ATOM_COUNT>
11

> <PUBCHEM_ATOM_DEF_STEREO_COUNT>
0

> <PUBCHEM_ATOM_UDEF_STEREO_COUNT>
0

> <PUBCHEM_BOND_DEF_STEREO_COUNT>
0

> <PUBCHEM_BOND_UDEF_STEREO_COUNT>
0

> <PUBCHEM_ISOTOPIC_ATOM_COUNT>
0

> <PUBCHEM_COMPONENT_COUNT>
1

> <PUBCHEM_CACTVS_TAUTO_COUNT>
2

> <PUBCHEM_COORDINATE_TYPE>
1
5
255

> <PUBCHEM_BONDANNOTATIONS>
10  11  8
2  3  8
2  8  8
3  9  8
4  5  8
4  6  8
4  8  8
5  7  8
5  9  8
6  10  8
7  11  8

$$$$

