   Melting Point
        Decomposes at 303 deg C
   from [1]HSDB

   Density/Specific Gravity
        1.33 at 25 deg C
   from [2]HSDB

   Dissociation Constants
        pKa1 = 3.8 (carboxylic acid); pKa2 = 12.7 (amine)
   from [3]HSDB

   Octanol/Water Partition Coefficient
        log Kow = -3.72 (est)
   from [4]HSDB

   pH
        Neutral reaction to litmus
   from [5]HSDB

   Solubilities

     * Slightly soluble in water, insoluble in ether
     * Slightly soluble in ether and ethanol
     * In water, 1.33X10+4 mg/L at 18 deg C

   from [6]HSDB

   Spectral Properties

     * MASS: 76453 (NIST/EPA/MSDC Mass Spectral Data Base, 1990 Version)
     * IR: 21934 (Sadtler Research Laboratories IR prism collection)
     * UV max = 215 nm

   from [7]HSDB

   Vapor Pressure
        7.9X10-4 mm Hg at 25 deg C (est)
   from [8]HSDB

   Other Chemical/Physical Properties

     * Crystals heat of fusion = -537.2, Molar heat capacity = 140.9
       J/mole-K
     * pKb = 11.02 at 20 deg C
     * Prisms from water at 100 deg C /monohydrate/
     * 1 g is soluble in 75 mL of water /monohydrate/
     * Henry's Law constant = 1.7X10-14 atm-cu m/mole at 25 deg C (est)
     * Hydroxyl radical reaction rate constant = 9.5X10-11 cu cm/molec-sec
       at 25 deg C (est)

   from [9]HSDB

   Computed Properties
   Molecular Weight                  131.13316 [g/mol]
   Molecular Formula                 C[4]H[9]N[3]O[2]
   XLogP3-AA                         -1.2
   H-Bond Donor                      3
   H-Bond Acceptor                   3
   Rotatable Bond Count              3
   Exact Mass                        131.069477
   MonoIsotopic Mass                 131.069477
   Topological Polar Surface Area    90.4
   Heavy Atom Count                  9
   Formal Charge                     0
   Complexity                        134
   Isotope Atom Count                0
   Defined Atom Stereocenter Count   0
   Undefined Atom Stereocenter Count 0
   Defined Bond Stereocenter Count   0
   Undefined Bond Stereocenter Count 0
   Covalently-Bonded Unit Count      1
   Feature 3D Acceptor Count         2
   Feature 3D Donor Count            2
   Feature 3D Anion Count            1
   Feature 3D Cation Count           1
   Effective Rotor Count             3
   Conformer Sampling RMSD           0.6
   CID Conformer Count               [10]15

References

   1. http://toxnet.nlm.nih.gov/cgi-bin/sis/search/r?dbs+hsdb:@term+@rn+@rel+57-00-1
   2. http://toxnet.nlm.nih.gov/cgi-bin/sis/search/r?dbs+hsdb:@term+@rn+@rel+57-00-1
   3. http://toxnet.nlm.nih.gov/cgi-bin/sis/search/r?dbs+hsdb:@term+@rn+@rel+57-00-1
   4. http://toxnet.nlm.nih.gov/cgi-bin/sis/search/r?dbs+hsdb:@term+@rn+@rel+57-00-1
   5. http://toxnet.nlm.nih.gov/cgi-bin/sis/search/r?dbs+hsdb:@term+@rn+@rel+57-00-1
   6. http://toxnet.nlm.nih.gov/cgi-bin/sis/search/r?dbs+hsdb:@term+@rn+@rel+57-00-1
   7. http://toxnet.nlm.nih.gov/cgi-bin/sis/search/r?dbs+hsdb:@term+@rn+@rel+57-00-1
   8. http://toxnet.nlm.nih.gov/cgi-bin/sis/search/r?dbs+hsdb:@term+@rn+@rel+57-00-1
   9. http://toxnet.nlm.nih.gov/cgi-bin/sis/search/r?dbs+hsdb:@term+@rn+@rel+57-00-1
  10. http://pubchem.ncbi.nlm.nih.gov/vw3d/vw3d.cgi?cid=586
