   Color/Form

     * White to off-white crystalline powder
     * Crystals from ethyl acetate

   from [1]HSDB

   Melting Point
        110-121 deg C
   from [2]HSDB

   Dissociation Constants
        pKa1 = 1.9 (amide)
   from [3]HSDB

   Octanol/Water Partition Coefficient
        log Kow = 0.56 (est)
   from [4]HSDB

   Solubilities
        In water, 26 mg/mL at 20 deg C
   from [5]HSDB

   Vapor Pressure
        1.12X10-12 mm Hg at 25 deg C (est)
   from [6]HSDB

   Other Chemical/Physical Properties

     * Henry's Law constant = 2.9X10-19 atm-cu m/mol at 25 deg C (est)
     * Hydroxyl radical reaction rate constant = 8.27X10-11 cu
       cm/molec-sec at 25 deg C (est)
     * Ozone reaction rate constant = 7.0X10-15 cu cm/molec-sec at 25 deg
       C (est)

   from [7]HSDB

   Computed Properties
   Molecular Weight                  359.350083 [g/mol]
   Molecular Formula                 C[15]H[22]FN[3]O[6]
   XLogP3-AA                         0.6
   H-Bond Donor                      3
   H-Bond Acceptor                   7
   Rotatable Bond Count              7
   Tautomer Count                    4
   Exact Mass                        359.149264
   MonoIsotopic Mass                 359.149264
   Topological Polar Surface Area    121
   Heavy Atom Count                  25
   Formal Charge                     0
   Complexity                        582
   Isotope Atom Count                0
   Defined Atom Stereocenter Count   4
   Undefined Atom Stereocenter Count 0
   Defined Bond Stereocenter Count   0
   Undefined Bond Stereocenter Count 0
   Covalently-Bonded Unit Count      1
   Feature 3D Acceptor Count         5
   Feature 3D Donor Count            4
   Feature 3D Hydrophobe Count       1
   Feature 3D Ring Count             2
   Effective Rotor Count             9
   Conformer Sampling RMSD           1
   CID Conformer Count               [8]87

References

   1. http://toxnet.nlm.nih.gov/cgi-bin/sis/search/r?dbs+hsdb:@term+@rn+@rel+154361-50-9
   2. http://toxnet.nlm.nih.gov/cgi-bin/sis/search/r?dbs+hsdb:@term+@rn+@rel+154361-50-9
   3. http://toxnet.nlm.nih.gov/cgi-bin/sis/search/r?dbs+hsdb:@term+@rn+@rel+154361-50-9
   4. http://toxnet.nlm.nih.gov/cgi-bin/sis/search/r?dbs+hsdb:@term+@rn+@rel+154361-50-9
   5. http://toxnet.nlm.nih.gov/cgi-bin/sis/search/r?dbs+hsdb:@term+@rn+@rel+154361-50-9
   6. http://toxnet.nlm.nih.gov/cgi-bin/sis/search/r?dbs+hsdb:@term+@rn+@rel+154361-50-9
   7. http://toxnet.nlm.nih.gov/cgi-bin/sis/search/r?dbs+hsdb:@term+@rn+@rel+154361-50-9
   8. http://pubchem.ncbi.nlm.nih.gov/vw3d/vw3d.cgi?cid=60953
