51351778
  -OEChem-07051213152D

102101  0     0  0  0  0  0  0999 V2000
   14.9904    3.5000    0.0000 C   0  0  0  0  0  0  0  0  0  0  0  0
   15.8564    4.0000    0.0000 C   0  0  0  0  0  0  0  0  0  0  0  0
   14.9904    2.5000    0.0000 C   0  0  0  0  0  0  0  0  0  0  0  0
   16.7224    5.5000    0.0000 C   0  0  0  0  0  0  0  0  0  0  0  0
   16.7224    6.5000    0.0000 C   0  0  0  0  0  0  0  0  0  0  0  0
   15.8564    5.0000    0.0000 C   0  0  0  0  0  0  0  0  0  0  0  0
   14.1244    1.0000    0.0000 C   0  0  0  0  0  0  0  0  0  0  0  0
   14.1244    2.0000    0.0000 C   0  0  0  0  0  0  0  0  0  0  0  0
   13.2583    0.5000    0.0000 C   0  0  0  0  0  0  0  0  0  0  0  0
   17.5885    7.0000    0.0000 C   0  0  0  0  0  0  0  0  0  0  0  0
    4.5981   -6.5000    0.0000 C   0  0  0  0  0  0  0  0  0  0  0  0
    4.5981   -5.5000    0.0000 C   0  0  0  0  0  0  0  0  0  0  0  0
    5.4641   -4.0000    0.0000 C   0  0  0  0  0  0  0  0  0  0  0  0
   15.8564    2.0000    0.0000 C   0  0  0  0  0  0  0  0  0  0  0  0
    6.3301   -3.5000    0.0000 C   0  0  0  0  0  0  0  0  0  0  0  0
   17.5885    5.0000    0.0000 C   0  0  0  0  0  0  0  0  0  0  0  0
    3.7320   -7.0000    0.0000 C   0  0  0  0  0  0  0  0  0  0  0  0
    5.4641   -5.0000    0.0000 C   0  0  0  0  0  0  0  0  0  0  0  0
   13.2583   -0.5000    0.0000 C   0  0  0  0  0  0  0  0  0  0  0  0
   17.5885    8.0000    0.0000 C   0  0  0  0  0  0  0  0  0  0  0  0
    6.3301   -2.5000    0.0000 C   0  0  0  0  0  0  0  0  0  0  0  0
    3.7320   -5.0000    0.0000 C   0  0  0  0  0  0  0  0  0  0  0  0
    3.7320   -8.0000    0.0000 C   0  0  0  0  0  0  0  0  0  0  0  0
   18.4545    8.5000    0.0000 C   0  0  0  0  0  0  0  0  0  0  0  0
   14.1244   -1.0000    0.0000 C   0  0  0  0  0  0  0  0  0  0  0  0
   12.3923   -1.0000    0.0000 C   0  0  0  0  0  0  0  0  0  0  0  0
    2.8660   -8.5000    0.0000 C   0  0  0  0  0  0  0  0  0  0  0  0
    5.4641   -2.0000    0.0000 C   0  0  0  0  0  0  0  0  0  0  0  0
    7.1962   -2.0000    0.0000 C   0  0  0  0  0  0  0  0  0  0  0  0
   18.4545    9.5000    0.0000 C   0  0  0  0  0  0  0  0  0  0  0  0
   19.3205    8.0000    0.0000 C   0  0  0  0  0  0  0  0  0  0  0  0
   12.3923   -2.0000    0.0000 C   0  0  0  0  0  0  0  0  0  0  0  0
    2.8660   -9.5000    0.0000 C   0  0  0  0  0  0  0  0  0  0  0  0
    2.0000   -8.0000    0.0000 C   0  0  0  0  0  0  0  0  0  0  0  0
    8.0622   -2.5000    0.0000 C   0  0  0  0  0  0  0  0  0  0  0  0
   11.5263   -2.5000    0.0000 C   0  0  0  0  0  0  0  0  0  0  0  0
    8.9282   -2.0000    0.0000 C   0  0  0  0  0  0  0  0  0  0  0  0
    9.7942   -2.5000    0.0000 C   0  0  0  0  0  0  0  0  0  0  0  0
   10.6603   -2.0000    0.0000 C   0  0  0  0  0  0  0  0  0  0  0  0
    9.7942   -3.5000    0.0000 C   0  0  0  0  0  0  0  0  0  0  0  0
   14.7783    4.0826    0.0000 H   0  0  0  0  0  0  0  0  0  0  0  0
   14.3798    3.3923    0.0000 H   0  0  0  0  0  0  0  0  0  0  0  0
   16.0685    3.4174    0.0000 H   0  0  0  0  0  0  0  0  0  0  0  0
   16.4670    4.1077    0.0000 H   0  0  0  0  0  0  0  0  0  0  0  0
   16.5104    7.0826    0.0000 H   0  0  0  0  0  0  0  0  0  0  0  0
   16.1119    6.3923    0.0000 H   0  0  0  0  0  0  0  0  0  0  0  0
   15.3195    5.3100    0.0000 H   0  0  0  0  0  0  0  0  0  0  0  0
   14.3364    0.4174    0.0000 H   0  0  0  0  0  0  0  0  0  0  0  0
   14.7349    1.1077    0.0000 H   0  0  0  0  0  0  0  0  0  0  0  0
   13.5874    2.3100    0.0000 H   0  0  0  0  0  0  0  0  0  0  0  0
   13.0463    1.0826    0.0000 H   0  0  0  0  0  0  0  0  0  0  0  0
   12.6477    0.3923    0.0000 H   0  0  0  0  0  0  0  0  0  0  0  0
   17.8005    6.4174    0.0000 H   0  0  0  0  0  0  0  0  0  0  0  0
   18.1990    7.1077    0.0000 H   0  0  0  0  0  0  0  0  0  0  0  0
    4.8101   -7.0826    0.0000 H   0  0  0  0  0  0  0  0  0  0  0  0
    5.2087   -6.3923    0.0000 H   0  0  0  0  0  0  0  0  0  0  0  0
    5.2520   -3.4174    0.0000 H   0  0  0  0  0  0  0  0  0  0  0  0
    4.8535   -4.1077    0.0000 H   0  0  0  0  0  0  0  0  0  0  0  0
   15.5464    1.4631    0.0000 H   0  0  0  0  0  0  0  0  0  0  0  0
   16.3933    1.6900    0.0000 H   0  0  0  0  0  0  0  0  0  0  0  0
   16.1664    2.5369    0.0000 H   0  0  0  0  0  0  0  0  0  0  0  0
    6.5422   -4.0826    0.0000 H   0  0  0  0  0  0  0  0  0  0  0  0
    6.9407   -3.3923    0.0000 H   0  0  0  0  0  0  0  0  0  0  0  0
   17.2785    4.4631    0.0000 H   0  0  0  0  0  0  0  0  0  0  0  0
   18.1254    4.6900    0.0000 H   0  0  0  0  0  0  0  0  0  0  0  0
   17.8985    5.5369    0.0000 H   0  0  0  0  0  0  0  0  0  0  0  0
    3.5200   -6.4174    0.0000 H   0  0  0  0  0  0  0  0  0  0  0  0
    3.1215   -7.1077    0.0000 H   0  0  0  0  0  0  0  0  0  0  0  0
    6.0010   -5.3100    0.0000 H   0  0  0  0  0  0  0  0  0  0  0  0
   17.0515    8.3100    0.0000 H   0  0  0  0  0  0  0  0  0  0  0  0
    4.0420   -4.4631    0.0000 H   0  0  0  0  0  0  0  0  0  0  0  0
    3.1951   -4.6900    0.0000 H   0  0  0  0  0  0  0  0  0  0  0  0
    3.4220   -5.5369    0.0000 H   0  0  0  0  0  0  0  0  0  0  0  0
    4.2690   -8.3100    0.0000 H   0  0  0  0  0  0  0  0  0  0  0  0
   13.8144   -1.5369    0.0000 H   0  0  0  0  0  0  0  0  0  0  0  0
   14.6613   -1.3100    0.0000 H   0  0  0  0  0  0  0  0  0  0  0  0
   14.4344   -0.4631    0.0000 H   0  0  0  0  0  0  0  0  0  0  0  0
   11.8554   -0.6900    0.0000 H   0  0  0  0  0  0  0  0  0  0  0  0
    5.7741   -1.4631    0.0000 H   0  0  0  0  0  0  0  0  0  0  0  0
    4.9272   -1.6900    0.0000 H   0  0  0  0  0  0  0  0  0  0  0  0
    5.1541   -2.5369    0.0000 H   0  0  0  0  0  0  0  0  0  0  0  0
    7.1962   -1.3800    0.0000 H   0  0  0  0  0  0  0  0  0  0  0  0
   19.0105    7.4631    0.0000 H   0  0  0  0  0  0  0  0  0  0  0  0
   19.8574    7.6900    0.0000 H   0  0  0  0  0  0  0  0  0  0  0  0
   19.6305    8.5369    0.0000 H   0  0  0  0  0  0  0  0  0  0  0  0
   19.0745    9.5000    0.0000 H   0  0  0  0  0  0  0  0  0  0  0  0
   18.4545   10.1200    0.0000 H   0  0  0  0  0  0  0  0  0  0  0  0
   17.8345    9.5000    0.0000 H   0  0  0  0  0  0  0  0  0  0  0  0
   12.9292   -2.3100    0.0000 H   0  0  0  0  0  0  0  0  0  0  0  0
    2.3100   -7.4631    0.0000 H   0  0  0  0  0  0  0  0  0  0  0  0
    1.4631   -7.6900    0.0000 H   0  0  0  0  0  0  0  0  0  0  0  0
    1.6900   -8.5369    0.0000 H   0  0  0  0  0  0  0  0  0  0  0  0
    2.2460   -9.5000    0.0000 H   0  0  0  0  0  0  0  0  0  0  0  0
    2.8660  -10.1200    0.0000 H   0  0  0  0  0  0  0  0  0  0  0  0
    3.4860   -9.5000    0.0000 H   0  0  0  0  0  0  0  0  0  0  0  0
    8.0622   -3.1200    0.0000 H   0  0  0  0  0  0  0  0  0  0  0  0
   11.5263   -3.1200    0.0000 H   0  0  0  0  0  0  0  0  0  0  0  0
    8.9282   -1.3800    0.0000 H   0  0  0  0  0  0  0  0  0  0  0  0
   10.6603   -1.3800    0.0000 H   0  0  0  0  0  0  0  0  0  0  0  0
    9.1742   -3.5000    0.0000 H   0  0  0  0  0  0  0  0  0  0  0  0
    9.7942   -4.1200    0.0000 H   0  0  0  0  0  0  0  0  0  0  0  0
   10.4142   -3.5000    0.0000 H   0  0  0  0  0  0  0  0  0  0  0  0
  1  2  1  0  0  0  0
  1  3  1  0  0  0  0
  1 41  1  0  0  0  0
  1 42  1  0  0  0  0
  2  6  1  0  0  0  0
  2 43  1  0  0  0  0
  2 44  1  0  0  0  0
  3  8  2  0  0  0  0
  3 14  1  0  0  0  0
  4  5  1  0  0  0  0
  4  6  2  0  0  0  0
  4 16  1  0  0  0  0
  5 10  1  0  0  0  0
  5 45  1  0  0  0  0
  5 46  1  0  0  0  0
  6 47  1  0  0  0  0
  7  8  1  0  0  0  0
  7  9  1  0  0  0  0
  7 48  1  0  0  0  0
  7 49  1  0  0  0  0
  8 50  1  0  0  0  0
  9 19  1  0  0  0  0
  9 51  1  0  0  0  0
  9 52  1  0  0  0  0
 10 20  1  0  0  0  0
 10 53  1  0  0  0  0
 10 54  1  0  0  0  0
 11 12  1  0  0  0  0
 11 17  1  0  0  0  0
 11 55  1  0  0  0  0
 11 56  1  0  0  0  0
 12 18  2  0  0  0  0
 12 22  1  0  0  0  0
 13 15  1  0  0  0  0
 13 18  1  0  0  0  0
 13 57  1  0  0  0  0
 13 58  1  0  0  0  0
 14 59  1  0  0  0  0
 14 60  1  0  0  0  0
 14 61  1  0  0  0  0
 15 21  1  0  0  0  0
 15 62  1  0  0  0  0
 15 63  1  0  0  0  0
 16 64  1  0  0  0  0
 16 65  1  0  0  0  0
 16 66  1  0  0  0  0
 17 23  1  0  0  0  0
 17 67  1  0  0  0  0
 17 68  1  0  0  0  0
 18 69  1  0  0  0  0
 19 25  1  0  0  0  0
 19 26  2  0  0  0  0
 20 24  2  0  0  0  0
 20 70  1  0  0  0  0
 21 28  1  0  0  0  0
 21 29  2  0  0  0  0
 22 71  1  0  0  0  0
 22 72  1  0  0  0  0
 22 73  1  0  0  0  0
 23 27  2  0  0  0  0
 23 74  1  0  0  0  0
 24 30  1  0  0  0  0
 24 31  1  0  0  0  0
 25 75  1  0  0  0  0
 25 76  1  0  0  0  0
 25 77  1  0  0  0  0
 26 32  1  0  0  0  0
 26 78  1  0  0  0  0
 27 33  1  0  0  0  0
 27 34  1  0  0  0  0
 28 79  1  0  0  0  0
 28 80  1  0  0  0  0
 28 81  1  0  0  0  0
 29 35  1  0  0  0  0
 29 82  1  0  0  0  0
 30 86  1  0  0  0  0
 30 87  1  0  0  0  0
 30 88  1  0  0  0  0
 31 83  1  0  0  0  0
 31 84  1  0  0  0  0
 31 85  1  0  0  0  0
 32 36  2  0  0  0  0
 32 89  1  0  0  0  0
 33 93  1  0  0  0  0
 33 94  1  0  0  0  0
 33 95  1  0  0  0  0
 34 90  1  0  0  0  0
 34 91  1  0  0  0  0
 34 92  1  0  0  0  0
 35 37  2  0  0  0  0
 35 96  1  0  0  0  0
 36 39  1  0  0  0  0
 36 97  1  0  0  0  0
 37 38  1  0  0  0  0
 37 98  1  0  0  0  0
 38 39  2  0  0  0  0
 38 40  1  0  0  0  0
 39 99  1  0  0  0  0
 40100  1  0  0  0  0
 40101  1  0  0  0  0
 40102  1  0  0  0  0
M  END
> <PUBCHEM_COMPOUND_CID>
51351778

> <PUBCHEM_COMPOUND_CANONICALIZED>
1

> <PUBCHEM_CACTVS_COMPLEXITY>
1010

> <PUBCHEM_CACTVS_HBOND_ACCEPTOR>
0

> <PUBCHEM_CACTVS_HBOND_DONOR>
0

> <PUBCHEM_CACTVS_ROTATABLE_BOND>
19

> <PUBCHEM_CACTVS_SUBSKEYS>
AAADcfB8AAAAAAAAAAAAAAAAAAAAAAAAAAAAAAAAAAAAAAAAAAAAGAAAAAAADACAAAACAAAAAACAAiBCAAAAAAAgAAAICAAAAAgIAAIAAQAAAAAAgAAIgAIAAAAAAAAAAAAAAAAAAAAAAAAAAAAAAAAAAA==

> <PUBCHEM_IUPAC_OPENEYE_NAME>
(6E,10Z,12E,14E,16Z,18E,22E,26E)-2,6,10,14,19,23,27,31-octamethyldotriaconta-2,6,10,12,14,16,18,22,26,30-decaene

> <PUBCHEM_IUPAC_CAS_NAME>
(6E,10Z,12E,14E,16Z,18E,22E,26E)-2,6,10,14,19,23,27,31-octamethyldotriaconta-2,6,10,12,14,16,18,22,26,30-decaene

> <PUBCHEM_IUPAC_NAME>
(6E,10Z,12E,14E,16Z,18E,22E,26E)-2,6,10,14,19,23,27,31-octamethyldotriaconta-2,6,10,12,14,16,18,22,26,30-decaene

> <PUBCHEM_IUPAC_SYSTEMATIC_NAME>
(6E,10Z,12E,14E,16Z,18E,22E,26E)-2,6,10,14,19,23,27,31-octamethyldotriaconta-2,6,10,12,14,16,18,22,26,30-decaene

> <PUBCHEM_IUPAC_TRADITIONAL_NAME>
(6E,10Z,12E,14E,16Z,18E,22E,26E)-2,6,10,14,19,23,27,31-octamethyldotriaconta-2,6,10,12,14,16,18,22,26,30-decaene

> <PUBCHEM_IUPAC_INCHI>
InChI=1S/C40H62/c1-33(2)19-13-23-37(7)27-17-31-39(9)29-15-25-35(5)21-11-12-22-36(6)26-16-30-40(10)32-18-28-38(8)24-14-20-34(3)4/h11-12,15,19-22,25,27-30H,13-14,16-18,23-24,26,31-32H2,1-10H3/b12-11-,25-15+,35-21+,36-22+,37-27+,38-28+,39-29-,40-30+

> <PUBCHEM_IUPAC_INCHIKEY>
OVSVTCFNLSGAMM-IQEMYQFOSA-N

> <PUBCHEM_XLOGP3_AA>
15.4

> <PUBCHEM_EXACT_MASS>
542.485152

> <PUBCHEM_MOLECULAR_FORMULA>
C40H62

> <PUBCHEM_MOLECULAR_WEIGHT>
542.92028

> <PUBCHEM_OPENEYE_CAN_SMILES>
CC(=CCCC(=CCCC(=CCCC(=CC=CC=C(C)C=CC=C(C)CCC=C(C)CCC=C(C)C)C)C)C)C

> <PUBCHEM_OPENEYE_ISO_SMILES>
CC(=CCC/C(=C/CC/C(=C/CC/C(=C/C=C\C=C(/C)\C=C\C=C(\C)/CC/C=C(\C)/CCC=C(C)C)/C)/C)/C)C

> <PUBCHEM_CACTVS_TPSA>
0

> <PUBCHEM_MONOISOTOPIC_WEIGHT>
542.485152

> <PUBCHEM_TOTAL_CHARGE>
0

> <PUBCHEM_HEAVY_ATOM_COUNT>
40

> <PUBCHEM_ATOM_DEF_STEREO_COUNT>
0

> <PUBCHEM_ATOM_UDEF_STEREO_COUNT>
0

> <PUBCHEM_BOND_DEF_STEREO_COUNT>
8

> <PUBCHEM_BOND_UDEF_STEREO_COUNT>
0

> <PUBCHEM_ISOTOPIC_ATOM_COUNT>
0

> <PUBCHEM_COMPONENT_COUNT>
1

> <PUBCHEM_CACTVS_TAUTO_COUNT>
1

> <PUBCHEM_COORDINATE_TYPE>
1
5
255

$$$$

