   Color/Form
        Colorless liquid
   from [1]HSDB

   Odor

     * Alcoholic odor; pungent odor when crude
     * Characteristic pungent odor

   from [2]HSDB

   Boiling Point
        64.7 deg C at 760 mm Hg
   from [3]HSDB

   Melting Point
        -97.8 deg C
   from [4]HSDB

   Critical Temperature and Pressure
        Critical temperature: 240.0 deg C; critical pressure: 78.5 atm
   from [5]HSDB

   Density/Specific Gravity
        0.8100 at 0 deg C/4 deg C; 0.7866 at 25 deg C/4 deg C
   from [6]HSDB

   Dissociation Constants
        pKa = 15.3
   from [7]HSDB

   Heat of Combustion
        723 kJ/mole
   from [8]HSDB

   Heat of Vaporization
        39.2 kJ/mole
   from [9]HSDB

   Octanol/Water Partition Coefficient
        log Kow= -0.77
   from [10]HSDB

   Solubilities

     * Miscible with ethanol, ether, benzene, most organic solvents and
       ketones.
     * Sol in acetone, chloroform
     * Completely miscible in water @ 20 deg C
     * Water solubility = miscible

   from [11]HSDB

   Spectral Properties

     * Index of refraction: 1.3292 at 20 deg C/D
     * MAX ABSORPTION (GAS): 183.3 NM (LOG EPSILON= 2.18)
     * IR: 287 (Sadtler Research Laboratories IR Grating Collection)
     * UV: 1-3 (Organic Electronic Spectral Data, Phillips et al, John
       Wiley & Sons, New York)
     * NMR: 1 (Varian Associates NMR Spectra Catalogue)
     * MASS: 61305 (NIST/EPA/MSDC Mass Spectral Database, 1990 version)

   from [12]HSDB

   Surface Tension
        22.61 mN/m (at 20 deg C)
   from [13]HSDB

   Vapor Density
        1.11
   from [14]HSDB

   Vapor Pressure
        127 mm Hg at 25 deg C
   from [15]HSDB

   Viscosity
        0.614 mPa sec
   from [16]HSDB

   Other Chemical/Physical Properties

     * Dipole moment: 1.69 /debyes/; specific heat: 0.595-0.605 at 20-25
       deg C, forms Azeotropes with many cmpd; burns with nonluminous
       bluish flame ...
     * 1 MG/L= 764 PPM; 1 PPM= 1.31 MG/CU M @ 25 DEG C, 760 MM HG
     * Heat of fusion: 103 J/g
     * Partition coefficients at 37 deg C for methanol into blood= 2,100;
       into oil= 56. [Sato A, Nakajima T; Scand J Work Environ Health 13:
       81-93 (1987)] [17]PubMed Abstract
     * Vapor pressure= 100 mm Hg at 21.2 deg C
     * Henry's Law constant = 4.55X10-6 atm-cu m/mol at 25 deg C [Gaffney
       JS et al; Environ Sci Technol 21: 519-23 (1987)] [18]PubMed
       Abstract
     * Hydroxyl radical reaction rate constant = 9.4X10-13 cu cm/molec-sec
       at 25 deg C

   from [19]HSDB

   Computed Properties
   Molecular Weight                  32.04186 [g/mol]
   Molecular Formula                 CH[4]O
   XLogP3-AA                         -0.5
   H-Bond Donor                      1
   H-Bond Acceptor                   1
   Rotatable Bond Count              0
   Exact Mass                        32.026215
   MonoIsotopic Mass                 32.026215
   Topological Polar Surface Area    20.2
   Heavy Atom Count                  2
   Formal Charge                     0
   Complexity                        2
   Isotope Atom Count                0
   Defined Atom Stereocenter Count   0
   Undefined Atom Stereocenter Count 0
   Defined Bond Stereocenter Count   0
   Undefined Bond Stereocenter Count 0
   Covalently-Bonded Unit Count      1
   Feature 3D Acceptor Count         1
   Feature 3D Donor Count            1
   Effective Rotor Count             0
   Conformer Sampling RMSD           0.4
   CID Conformer Count               [20]1

References

   1. http://toxnet.nlm.nih.gov/cgi-bin/sis/search/r?dbs+hsdb:@term+@rn+@rel+67-56-1
   2. http://toxnet.nlm.nih.gov/cgi-bin/sis/search/r?dbs+hsdb:@term+@rn+@rel+67-56-1
   3. http://toxnet.nlm.nih.gov/cgi-bin/sis/search/r?dbs+hsdb:@term+@rn+@rel+67-56-1
   4. http://toxnet.nlm.nih.gov/cgi-bin/sis/search/r?dbs+hsdb:@term+@rn+@rel+67-56-1
   5. http://toxnet.nlm.nih.gov/cgi-bin/sis/search/r?dbs+hsdb:@term+@rn+@rel+67-56-1
   6. http://toxnet.nlm.nih.gov/cgi-bin/sis/search/r?dbs+hsdb:@term+@rn+@rel+67-56-1
   7. http://toxnet.nlm.nih.gov/cgi-bin/sis/search/r?dbs+hsdb:@term+@rn+@rel+67-56-1
   8. http://toxnet.nlm.nih.gov/cgi-bin/sis/search/r?dbs+hsdb:@term+@rn+@rel+67-56-1
   9. http://toxnet.nlm.nih.gov/cgi-bin/sis/search/r?dbs+hsdb:@term+@rn+@rel+67-56-1
  10. http://toxnet.nlm.nih.gov/cgi-bin/sis/search/r?dbs+hsdb:@term+@rn+@rel+67-56-1
  11. http://toxnet.nlm.nih.gov/cgi-bin/sis/search/r?dbs+hsdb:@term+@rn+@rel+67-56-1
  12. http://toxnet.nlm.nih.gov/cgi-bin/sis/search/r?dbs+hsdb:@term+@rn+@rel+67-56-1
  13. http://toxnet.nlm.nih.gov/cgi-bin/sis/search/r?dbs+hsdb:@term+@rn+@rel+67-56-1
  14. http://toxnet.nlm.nih.gov/cgi-bin/sis/search/r?dbs+hsdb:@term+@rn+@rel+67-56-1
  15. http://toxnet.nlm.nih.gov/cgi-bin/sis/search/r?dbs+hsdb:@term+@rn+@rel+67-56-1
  16. http://toxnet.nlm.nih.gov/cgi-bin/sis/search/r?dbs+hsdb:@term+@rn+@rel+67-56-1
  17. http://www.ncbi.nlm.nih.gov/entrez/query.fcgi?cmd=Retrieve&db=pubmed&dopt=Abstract&list_uids=3299685
  18. http://www.ncbi.nlm.nih.gov/entrez/query.fcgi?cmd=Retrieve&db=pubmed&dopt=Abstract&list_uids=19994967
  19. http://toxnet.nlm.nih.gov/cgi-bin/sis/search/r?dbs+hsdb:@term+@rn+@rel+67-56-1
  20. http://pubchem.ncbi.nlm.nih.gov/vw3d/vw3d.cgi?cid=887
