443717
  -OEChem-07051213032D

 56 59  0     1  0  0  0  0  0999 V2000
    5.1132   -3.3452    0.0000 O   0  0  0  0  0  0  0  0  0  0  0  0
    6.8792   -4.3830    0.0000 O   0  0  0  0  0  0  0  0  0  0  0  0
    2.5369   -1.8137    0.0000 O   0  0  0  0  0  0  0  0  0  0  0  0
    4.1446    3.3232    0.0000 O   0  0  0  0  0  0  0  0  0  0  0  0
    5.9479    4.3830    0.0000 O   0  0  0  0  0  0  0  0  0  0  0  0
    3.4030   -0.3137    0.0000 O   0  0  0  0  0  0  0  0  0  0  0  0
    5.1350   -0.3137    0.0000 N   0  0  3  0  0  0  0  0  0  0  0  0
    5.1350   -1.3137    0.0000 C   0  0  2  0  0  0  0  0  0  0  0  0
    6.0010   -1.8137    0.0000 C   0  0  0  0  0  0  0  0  0  0  0  0
    6.0010    0.1863    0.0000 C   0  0  0  0  0  0  0  0  0  0  0  0
    6.8671   -1.3137    0.0000 C   0  0  0  0  0  0  0  0  0  0  0  0
    6.8671   -0.3137    0.0000 C   0  0  0  0  0  0  0  0  0  0  0  0
    4.2690   -1.8137    0.0000 C   0  0  0  0  0  0  0  0  0  0  0  0
    5.9850    1.2278    0.0000 C   0  0  0  0  0  0  0  0  0  0  0  0
    5.9850   -2.8552    0.0000 C   0  0  0  0  0  0  0  0  0  0  0  0
    4.2690    0.1863    0.0000 C   0  0  0  0  0  0  0  0  0  0  0  0
    6.8830    1.7555    0.0000 C   0  0  0  0  0  0  0  0  0  0  0  0
    7.7771    0.1931    0.0000 C   0  0  0  0  0  0  0  0  0  0  0  0
    7.7771   -1.8206    0.0000 C   0  0  0  0  0  0  0  0  0  0  0  0
    7.7851    1.2347    0.0000 C   0  0  0  0  0  0  0  0  0  0  0  0
    6.8830   -3.3830    0.0000 C   0  0  0  0  0  0  0  0  0  0  0  0
    5.0330    1.7484    0.0000 C   0  0  0  0  0  0  0  0  0  0  0  0
    7.7851   -2.8622    0.0000 C   0  0  0  0  0  0  0  0  0  0  0  0
    3.4030   -1.3137    0.0000 C   0  0  0  0  0  0  0  0  0  0  0  0
    6.8914    2.8405    0.0000 C   0  0  0  0  0  0  0  0  0  0  0  0
    5.0163    2.8333    0.0000 C   0  0  0  0  0  0  0  0  0  0  0  0
    5.9518    3.3830    0.0000 C   0  0  0  0  0  0  0  0  0  0  0  0
    5.1017   -4.3451    0.0000 C   0  0  0  0  0  0  0  0  0  0  0  0
    7.7432   -4.8863    0.0000 C   0  0  0  0  0  0  0  0  0  0  0  0
    4.1330    4.3232    0.0000 C   0  0  0  0  0  0  0  0  0  0  0  0
    6.8120    4.8863    0.0000 C   0  0  0  0  0  0  0  0  0  0  0  0
    4.5981   -1.0037    0.0000 H   0  0  0  0  0  0  0  0  0  0  0  0
    3.8705   -2.2887    0.0000 H   0  0  0  0  0  0  0  0  0  0  0  0
    4.6675   -2.2887    0.0000 H   0  0  0  0  0  0  0  0  0  0  0  0
    4.5790    0.7232    0.0000 H   0  0  0  0  0  0  0  0  0  0  0  0
    3.7320    0.4963    0.0000 H   0  0  0  0  0  0  0  0  0  0  0  0
    3.9590   -0.3507    0.0000 H   0  0  0  0  0  0  0  0  0  0  0  0
    8.3104   -0.1231    0.0000 H   0  0  0  0  0  0  0  0  0  0  0  0
    8.3104   -1.5044    0.0000 H   0  0  0  0  0  0  0  0  0  0  0  0
    8.3232    1.5426    0.0000 H   0  0  0  0  0  0  0  0  0  0  0  0
    4.5022    1.4281    0.0000 H   0  0  0  0  0  0  0  0  0  0  0  0
    8.3232   -3.1701    0.0000 H   0  0  0  0  0  0  0  0  0  0  0  0
    7.4295    3.1484    0.0000 H   0  0  0  0  0  0  0  0  0  0  0  0
    4.4817   -4.3380    0.0000 H   0  0  0  0  0  0  0  0  0  0  0  0
    5.0945   -4.9651    0.0000 H   0  0  0  0  0  0  0  0  0  0  0  0
    5.7216   -4.3523    0.0000 H   0  0  0  0  0  0  0  0  0  0  0  0
    2.0000   -1.5037    0.0000 H   0  0  0  0  0  0  0  0  0  0  0  0
    7.4312   -5.4221    0.0000 H   0  0  0  0  0  0  0  0  0  0  0  0
    8.2790   -5.1984    0.0000 H   0  0  0  0  0  0  0  0  0  0  0  0
    8.0553   -4.3506    0.0000 H   0  0  0  0  0  0  0  0  0  0  0  0
    4.7530    4.3303    0.0000 H   0  0  0  0  0  0  0  0  0  0  0  0
    4.1258    4.9431    0.0000 H   0  0  0  0  0  0  0  0  0  0  0  0
    3.5130    4.3160    0.0000 H   0  0  0  0  0  0  0  0  0  0  0  0
    7.1240    4.3506    0.0000 H   0  0  0  0  0  0  0  0  0  0  0  0
    7.3477    5.1984    0.0000 H   0  0  0  0  0  0  0  0  0  0  0  0
    6.4999    5.4221    0.0000 H   0  0  0  0  0  0  0  0  0  0  0  0
  1 15  1  0  0  0  0
  1 28  1  0  0  0  0
  2 21  1  0  0  0  0
  2 29  1  0  0  0  0
  3 24  1  0  0  0  0
  3 47  1  0  0  0  0
  4 26  1  0  0  0  0
  4 30  1  0  0  0  0
  5 27  1  0  0  0  0
  5 31  1  0  0  0  0
  6 24  2  0  0  0  0
  7  8  1  0  0  0  0
  7 10  1  0  0  0  0
  7 16  1  0  0  0  0
  8  9  1  0  0  0  0
  8 13  1  6  0  0  0
  8 32  1  0  0  0  0
  9 11  2  0  0  0  0
  9 15  1  0  0  0  0
 10 12  2  0  0  0  0
 10 14  1  0  0  0  0
 11 12  1  0  0  0  0
 11 19  1  0  0  0  0
 12 18  1  0  0  0  0
 13 24  1  0  0  0  0
 13 33  1  0  0  0  0
 13 34  1  0  0  0  0
 14 17  1  0  0  0  0
 14 22  2  0  0  0  0
 15 21  2  0  0  0  0
 16 35  1  0  0  0  0
 16 36  1  0  0  0  0
 16 37  1  0  0  0  0
 17 20  1  0  0  0  0
 17 25  2  0  0  0  0
 18 20  2  0  0  0  0
 18 38  1  0  0  0  0
 19 23  2  0  0  0  0
 19 39  1  0  0  0  0
 20 40  1  0  0  0  0
 21 23  1  0  0  0  0
 22 26  1  0  0  0  0
 22 41  1  0  0  0  0
 23 42  1  0  0  0  0
 25 27  1  0  0  0  0
 25 43  1  0  0  0  0
 26 27  2  0  0  0  0
 28 44  1  0  0  0  0
 28 45  1  0  0  0  0
 28 46  1  0  0  0  0
 29 48  1  0  0  0  0
 29 49  1  0  0  0  0
 29 50  1  0  0  0  0
 30 51  1  0  0  0  0
 30 52  1  0  0  0  0
 30 53  1  0  0  0  0
 31 54  1  0  0  0  0
 31 55  1  0  0  0  0
 31 56  1  0  0  0  0
M  END
> <PUBCHEM_COMPOUND_CID>
443717

> <PUBCHEM_COMPOUND_CANONICALIZED>
1

> <PUBCHEM_CACTVS_COMPLEXITY>
631

> <PUBCHEM_CACTVS_HBOND_ACCEPTOR>
7

> <PUBCHEM_CACTVS_HBOND_DONOR>
1

> <PUBCHEM_CACTVS_ROTATABLE_BOND>
6

> <PUBCHEM_CACTVS_SUBSKEYS>
AAADceB6OAAAAAAAAAAAAAAAAAAAAAAAAAA8YMEAAAAAAADxVAAAHgAACAAADCzBmAYyzsMABgCIAiTSSACCCAAhIAAIiAEOzIgNJjrEsZuEcCpmwBHK6Ae4/P/O4AADQAAaQADAAAaAADSAAAAAAAAAAA==

> <PUBCHEM_IUPAC_OPENEYE_NAME>
2-[(6S)-2,3,7,8-tetramethoxy-5-methyl-6H-benzo[c]phenanthridin-6-yl]acetic acid

> <PUBCHEM_IUPAC_CAS_NAME>
2-[(6S)-2,3,7,8-tetramethoxy-5-methyl-6H-benzo[c]phenanthridin-6-yl]acetic acid

> <PUBCHEM_IUPAC_NAME>
2-[(6S)-2,3,7,8-tetramethoxy-5-methyl-6H-benzo[c]phenanthridin-6-yl]acetic acid

> <PUBCHEM_IUPAC_SYSTEMATIC_NAME>
2-[(6S)-2,3,7,8-tetramethoxy-5-methyl-6H-benzo[c]phenanthridin-6-yl]ethanoic acid

> <PUBCHEM_IUPAC_TRADITIONAL_NAME>
2-[(6S)-2,3,7,8-tetramethoxy-5-methyl-6H-benzo[c]phenanthridin-6-yl]acetic acid

> <PUBCHEM_IUPAC_INCHI>
InChI=1S/C24H25NO6/c1-25-17(12-21(26)27)22-14(8-9-18(28-2)24(22)31-5)15-7-6-13-10-19(29-3)20(30-4)11-16(13)23(15)25/h6-11,17H,12H2,1-5H3,(H,26,27)/t17-/m0/s1

> <PUBCHEM_IUPAC_INCHIKEY>
ITTVQFYNAAJGHT-KRWDZBQOSA-N

> <PUBCHEM_XLOGP3_AA>
3.9

> <PUBCHEM_EXACT_MASS>
423.168188

> <PUBCHEM_MOLECULAR_FORMULA>
C24H25NO6

> <PUBCHEM_MOLECULAR_WEIGHT>
423.4584

> <PUBCHEM_OPENEYE_CAN_SMILES>
CN1C(C2=C(C=CC(=C2OC)OC)C3=C1C4=CC(=C(C=C4C=C3)OC)OC)CC(=O)O

> <PUBCHEM_OPENEYE_ISO_SMILES>
CN1[C@H](C2=C(C=CC(=C2OC)OC)C3=C1C4=CC(=C(C=C4C=C3)OC)OC)CC(=O)O

> <PUBCHEM_CACTVS_TPSA>
77.5

> <PUBCHEM_MONOISOTOPIC_WEIGHT>
423.168188

> <PUBCHEM_TOTAL_CHARGE>
0

> <PUBCHEM_HEAVY_ATOM_COUNT>
31

> <PUBCHEM_ATOM_DEF_STEREO_COUNT>
1

> <PUBCHEM_ATOM_UDEF_STEREO_COUNT>
0

> <PUBCHEM_BOND_DEF_STEREO_COUNT>
0

> <PUBCHEM_BOND_UDEF_STEREO_COUNT>
0

> <PUBCHEM_ISOTOPIC_ATOM_COUNT>
0

> <PUBCHEM_COMPONENT_COUNT>
1

> <PUBCHEM_CACTVS_TAUTO_COUNT>
1

> <PUBCHEM_COORDINATE_TYPE>
1
5
255

> <PUBCHEM_BONDANNOTATIONS>
10  12  8
10  14  8
11  19  8
12  18  8
14  17  8
14  22  8
15  21  8
17  20  8
17  25  8
18  20  8
19  23  8
21  23  8
22  26  8
25  27  8
26  27  8
8  13  6
9  11  8
9  15  8

$$$$

