24892805
  -OEChem-07051213092D

 30 29  0     1  0  0  0  0  0999 V2000
    5.4641    3.1550    0.0000 O   0  0  0  0  0  0  0  0  0  0  0  0
    2.8660    1.6550    0.0000 O   0  0  0  0  0  0  0  0  0  0  0  0
    3.7320    3.1550    0.0000 O   0  0  0  0  0  0  0  0  0  0  0  0
    7.1962    2.1550    0.0000 O   0  0  0  0  0  0  0  0  0  0  0  0
    6.3301    0.6550    0.0000 O   0  0  0  0  0  0  0  0  0  0  0  0
    2.0000   -2.8450    0.0000 O   0  0  0  0  0  0  0  0  0  0  0  0
    3.7320   -2.8450    0.0000 O   0  0  0  0  0  0  0  0  0  0  0  0
    4.5981    1.6550    0.0000 C   0  0  1  0  0  0  0  0  0  0  0  0
    4.5981    0.6550    0.0000 C   0  0  0  0  0  0  0  0  0  0  0  0
    3.7320    0.1550    0.0000 C   0  0  0  0  0  0  0  0  0  0  0  0
    5.4641    2.1550    0.0000 C   0  0  2  0  0  0  0  0  0  0  0  0
    3.7320   -0.8450    0.0000 C   0  0  0  0  0  0  0  0  0  0  0  0
    2.8660   -1.3450    0.0000 C   0  0  0  0  0  0  0  0  0  0  0  0
    3.7320    2.1550    0.0000 C   0  0  0  0  0  0  0  0  0  0  0  0
    6.3301    1.6550    0.0000 C   0  0  0  0  0  0  0  0  0  0  0  0
    2.8660   -2.3450    0.0000 C   0  0  0  0  0  0  0  0  0  0  0  0
    4.5981    2.2750    0.0000 H   0  0  0  0  0  0  0  0  0  0  0  0
    4.8101    0.0724    0.0000 H   0  0  0  0  0  0  0  0  0  0  0  0
    5.2087    0.7627    0.0000 H   0  0  0  0  0  0  0  0  0  0  0  0
    3.5200    0.7376    0.0000 H   0  0  0  0  0  0  0  0  0  0  0  0
    3.1215    0.0473    0.0000 H   0  0  0  0  0  0  0  0  0  0  0  0
    6.0010    2.4650    0.0000 H   0  0  0  0  0  0  0  0  0  0  0  0
    3.9441   -1.4276    0.0000 H   0  0  0  0  0  0  0  0  0  0  0  0
    4.3426   -0.7373    0.0000 H   0  0  0  0  0  0  0  0  0  0  0  0
    2.6540   -0.7624    0.0000 H   0  0  0  0  0  0  0  0  0  0  0  0
    2.2554   -1.4527    0.0000 H   0  0  0  0  0  0  0  0  0  0  0  0
    6.0010    3.4650    0.0000 H   0  0  0  0  0  0  0  0  0  0  0  0
    2.3291    1.9650    0.0000 H   0  0  0  0  0  0  0  0  0  0  0  0
    7.7331    1.8450    0.0000 H   0  0  0  0  0  0  0  0  0  0  0  0
    2.0000   -3.4650    0.0000 H   0  0  0  0  0  0  0  0  0  0  0  0
 11  1  1  1  0  0  0
  1 27  1  0  0  0  0
  2 14  1  0  0  0  0
  2 28  1  0  0  0  0
  3 14  2  0  0  0  0
  4 15  1  0  0  0  0
  4 29  1  0  0  0  0
  5 15  2  0  0  0  0
  6 16  1  0  0  0  0
  6 30  1  0  0  0  0
  7 16  2  0  0  0  0
  8  9  1  1  0  0  0
  8 11  1  0  0  0  0
  8 14  1  0  0  0  0
  8 17  1  0  0  0  0
  9 10  1  0  0  0  0
  9 18  1  0  0  0  0
  9 19  1  0  0  0  0
 10 12  1  0  0  0  0
 10 20  1  0  0  0  0
 10 21  1  0  0  0  0
 11 15  1  0  0  0  0
 11 22  1  0  0  0  0
 12 13  1  0  0  0  0
 12 23  1  0  0  0  0
 12 24  1  0  0  0  0
 13 16  1  0  0  0  0
 13 25  1  0  0  0  0
 13 26  1  0  0  0  0
M  END
> <PUBCHEM_COMPOUND_CID>
24892805

> <PUBCHEM_COMPOUND_CANONICALIZED>
1

> <PUBCHEM_CACTVS_COMPLEXITY>
273

> <PUBCHEM_CACTVS_HBOND_ACCEPTOR>
7

> <PUBCHEM_CACTVS_HBOND_DONOR>
4

> <PUBCHEM_CACTVS_ROTATABLE_BOND>
8

> <PUBCHEM_CACTVS_SUBSKEYS>
AAADccBwOAAAAAAAAAAAAAAAAAAAAAAAAAAAAAAAAAAAAAAAAAAAGgAACAAADRSggAIACAAAAgAIAACQCAIAAAAAAAAAAAFAAAABEBYAAAAAQAAFIAABAAHLyOCOAAAAAAAAAAAAAAAAAAAAAAAAAAAAAA==

> <PUBCHEM_IUPAC_OPENEYE_NAME>
(1R,2S)-1-hydroxyhexane-1,2,6-tricarboxylic acid

> <PUBCHEM_IUPAC_CAS_NAME>
(1R,2S)-1-hydroxyhexane-1,2,6-tricarboxylic acid

> <PUBCHEM_IUPAC_NAME>
(1R,2S)-1-hydroxyhexane-1,2,6-tricarboxylic acid

> <PUBCHEM_IUPAC_SYSTEMATIC_NAME>
(1R,2S)-1-oxidanylhexane-1,2,6-tricarboxylic acid

> <PUBCHEM_IUPAC_TRADITIONAL_NAME>
(1R,2S)-1-hydroxyhexane-1,2,6-tricarboxylic acid

> <PUBCHEM_IUPAC_INCHI>
InChI=1S/C9H14O7/c10-6(11)4-2-1-3-5(8(13)14)7(12)9(15)16/h5,7,12H,1-4H2,(H,10,11)(H,13,14)(H,15,16)/t5-,7+/m0/s1

> <PUBCHEM_IUPAC_INCHIKEY>
NLOCBSDWTSPKMJ-CAHLUQPWSA-N

> <PUBCHEM_XLOGP3_AA>
-0.5

> <PUBCHEM_EXACT_MASS>
234.073953

> <PUBCHEM_MOLECULAR_FORMULA>
C9H14O7

> <PUBCHEM_MOLECULAR_WEIGHT>
234.20326

> <PUBCHEM_OPENEYE_CAN_SMILES>
C(CCC(=O)O)CC(C(C(=O)O)O)C(=O)O

> <PUBCHEM_OPENEYE_ISO_SMILES>
C(CCC(=O)O)C[C@@H]([C@H](C(=O)O)O)C(=O)O

> <PUBCHEM_CACTVS_TPSA>
132

> <PUBCHEM_MONOISOTOPIC_WEIGHT>
234.073953

> <PUBCHEM_TOTAL_CHARGE>
0

> <PUBCHEM_HEAVY_ATOM_COUNT>
16

> <PUBCHEM_ATOM_DEF_STEREO_COUNT>
2

> <PUBCHEM_ATOM_UDEF_STEREO_COUNT>
0

> <PUBCHEM_BOND_DEF_STEREO_COUNT>
0

> <PUBCHEM_BOND_UDEF_STEREO_COUNT>
0

> <PUBCHEM_ISOTOPIC_ATOM_COUNT>
0

> <PUBCHEM_COMPONENT_COUNT>
1

> <PUBCHEM_CACTVS_TAUTO_COUNT>
1

> <PUBCHEM_COORDINATE_TYPE>
1
5
255

> <PUBCHEM_BONDANNOTATIONS>
11  1  5
8  9  5

$$$$

