5179
  -OEChem-06261200332D

 75 79  0     1  0  0  0  0  0999 V2000
    6.2619    4.3301    0.0000 S   0  0  0  0  0  0  0  0  0  0  0  0
    4.6783    5.1349    0.0000 S   0  0  0  0  0  0  0  0  0  0  0  0
    9.7619    3.4641    0.0000 O   0  0  0  0  0  0  0  0  0  0  0  0
    8.2619    2.5981    0.0000 O   0  0  0  0  0  0  0  0  0  0  0  0
   12.2619    7.7942    0.0000 O   0  0  0  0  0  0  0  0  0  0  0  0
   12.2619   -2.5981    0.0000 O   0  0  0  0  0  0  0  0  0  0  0  0
   12.2619   -6.0622    0.0000 O   0  0  0  0  0  0  0  0  0  0  0  0
   11.2619   -7.7942    0.0000 O   0  0  0  0  0  0  0  0  0  0  0  0
   10.7619   -1.7320    0.0000 N   0  0  0  0  0  0  0  0  0  0  0  0
    4.6783    3.5254    0.0000 N   0  0  0  0  0  0  0  0  0  0  0  0
   10.7619   -6.9282    0.0000 N   0  0  0  0  0  0  0  0  0  0  0  0
    8.2619    4.3301    0.0000 C   0  0  0  0  0  0  0  0  0  0  0  0
    9.2619    4.3301    0.0000 C   0  0  3  0  0  0  0  0  0  0  0  0
    7.7619    3.4641    0.0000 C   0  0  3  0  0  0  0  0  0  0  0  0
    9.2619    2.5981    0.0000 C   0  0  3  0  0  0  0  0  0  0  0  0
    9.7619    5.1962    0.0000 C   0  0  0  0  0  0  0  0  0  0  0  0
    6.7619    3.4641    0.0000 C   0  0  0  0  0  0  0  0  0  0  0  0
    9.7619    1.7320    0.0000 C   0  0  0  0  0  0  0  0  0  0  0  0
   10.7619    5.1962    0.0000 C   0  0  0  0  0  0  0  0  0  0  0  0
    9.2619    6.0622    0.0000 C   0  0  0  0  0  0  0  0  0  0  0  0
    9.2619    0.8660    0.0000 C   0  0  0  0  0  0  0  0  0  0  0  0
   10.7619    1.7320    0.0000 C   0  0  0  0  0  0  0  0  0  0  0  0
   11.2619    6.0622    0.0000 C   0  0  0  0  0  0  0  0  0  0  0  0
    9.7619    6.9282    0.0000 C   0  0  0  0  0  0  0  0  0  0  0  0
   10.7619    6.9282    0.0000 C   0  0  0  0  0  0  0  0  0  0  0  0
   10.7619    0.0000    0.0000 C   0  0  0  0  0  0  0  0  0  0  0  0
    9.7619    0.0000    0.0000 C   0  0  0  0  0  0  0  0  0  0  0  0
   11.2619    0.8660    0.0000 C   0  0  0  0  0  0  0  0  0  0  0  0
   11.2619   -0.8660    0.0000 C   0  0  0  0  0  0  0  0  0  0  0  0
    5.2619    4.3301    0.0000 C   0  0  0  0  0  0  0  0  0  0  0  0
   11.2619    7.7942    0.0000 C   0  0  0  0  0  0  0  0  0  0  0  0
    3.7320    4.8301    0.0000 C   0  0  0  0  0  0  0  0  0  0  0  0
    3.7320    3.8301    0.0000 C   0  0  0  0  0  0  0  0  0  0  0  0
   11.2619   -2.5981    0.0000 C   0  0  0  0  0  0  0  0  0  0  0  0
   10.7619   -3.4641    0.0000 C   0  0  0  0  0  0  0  0  0  0  0  0
   11.2619   -4.3301    0.0000 C   0  0  0  0  0  0  0  0  0  0  0  0
   10.7619   -5.1962    0.0000 C   0  0  0  0  0  0  0  0  0  0  0  0
    2.8660    5.3301    0.0000 C   0  0  0  0  0  0  0  0  0  0  0  0
    2.8660    3.3301    0.0000 C   0  0  0  0  0  0  0  0  0  0  0  0
    2.0000    4.8301    0.0000 C   0  0  0  0  0  0  0  0  0  0  0  0
    2.0000    3.8301    0.0000 C   0  0  0  0  0  0  0  0  0  0  0  0
   11.2619   -6.0622    0.0000 C   0  0  0  0  0  0  0  0  0  0  0  0
    8.3695    4.9407    0.0000 H   0  0  0  0  0  0  0  0  0  0  0  0
    7.6793    4.5422    0.0000 H   0  0  0  0  0  0  0  0  0  0  0  0
    8.9519    4.8671    0.0000 H   0  0  0  0  0  0  0  0  0  0  0  0
    7.4519    2.9272    0.0000 H   0  0  0  0  0  0  0  0  0  0  0  0
    8.9519    2.0611    0.0000 H   0  0  0  0  0  0  0  0  0  0  0  0
    6.1793    3.2520    0.0000 H   0  0  0  0  0  0  0  0  0  0  0  0
    6.8695    2.8535    0.0000 H   0  0  0  0  0  0  0  0  0  0  0  0
   11.0719    4.6592    0.0000 H   0  0  0  0  0  0  0  0  0  0  0  0
    8.6419    6.0622    0.0000 H   0  0  0  0  0  0  0  0  0  0  0  0
    8.6419    0.8660    0.0000 H   0  0  0  0  0  0  0  0  0  0  0  0
   11.0719    2.2690    0.0000 H   0  0  0  0  0  0  0  0  0  0  0  0
   11.8819    6.0622    0.0000 H   0  0  0  0  0  0  0  0  0  0  0  0
    9.4519    7.4651    0.0000 H   0  0  0  0  0  0  0  0  0  0  0  0
    9.4519   -0.5369    0.0000 H   0  0  0  0  0  0  0  0  0  0  0  0
   11.8819    0.8660    0.0000 H   0  0  0  0  0  0  0  0  0  0  0  0
   11.7368   -1.2646    0.0000 H   0  0  0  0  0  0  0  0  0  0  0  0
   11.7368   -0.4675    0.0000 H   0  0  0  0  0  0  0  0  0  0  0  0
   11.3695    8.4048    0.0000 H   0  0  0  0  0  0  0  0  0  0  0  0
   10.6793    8.0063    0.0000 H   0  0  0  0  0  0  0  0  0  0  0  0
   10.1419   -1.7320    0.0000 H   0  0  0  0  0  0  0  0  0  0  0  0
   10.2869   -3.0656    0.0000 H   0  0  0  0  0  0  0  0  0  0  0  0
   10.2869   -3.8626    0.0000 H   0  0  0  0  0  0  0  0  0  0  0  0
   11.7368   -4.7287    0.0000 H   0  0  0  0  0  0  0  0  0  0  0  0
   11.7368   -3.9316    0.0000 H   0  0  0  0  0  0  0  0  0  0  0  0
   12.5719    8.3312    0.0000 H   0  0  0  0  0  0  0  0  0  0  0  0
   10.2869   -4.7976    0.0000 H   0  0  0  0  0  0  0  0  0  0  0  0
   10.2869   -5.5947    0.0000 H   0  0  0  0  0  0  0  0  0  0  0  0
    2.8660    5.9501    0.0000 H   0  0  0  0  0  0  0  0  0  0  0  0
    2.8660    2.7101    0.0000 H   0  0  0  0  0  0  0  0  0  0  0  0
    1.4631    5.1401    0.0000 H   0  0  0  0  0  0  0  0  0  0  0  0
    1.4631    3.5201    0.0000 H   0  0  0  0  0  0  0  0  0  0  0  0
   10.1419   -6.9282    0.0000 H   0  0  0  0  0  0  0  0  0  0  0  0
   10.9519   -8.3312    0.0000 H   0  0  0  0  0  0  0  0  0  0  0  0
  1 17  1  0  0  0  0
  1 30  1  0  0  0  0
  2 30  1  0  0  0  0
  2 32  1  0  0  0  0
  3 13  1  0  0  0  0
  3 15  1  0  0  0  0
  4 14  1  0  0  0  0
  4 15  1  0  0  0  0
  5 31  1  0  0  0  0
  5 67  1  0  0  0  0
  6 34  2  0  0  0  0
  7 42  2  0  0  0  0
  8 11  1  0  0  0  0
  8 75  1  0  0  0  0
  9 29  1  0  0  0  0
  9 34  1  0  0  0  0
  9 62  1  0  0  0  0
 10 30  2  0  0  0  0
 10 33  1  0  0  0  0
 11 42  1  0  0  0  0
 11 74  1  0  0  0  0
 12 13  1  0  0  0  0
 12 14  1  0  0  0  0
 12 43  1  0  0  0  0
 12 44  1  0  0  0  0
 13 16  1  0  0  0  0
 13 45  1  0  0  0  0
 14 17  1  0  0  0  0
 14 46  1  0  0  0  0
 15 18  1  0  0  0  0
 15 47  1  0  0  0  0
 16 19  2  0  0  0  0
 16 20  1  0  0  0  0
 17 48  1  0  0  0  0
 17 49  1  0  0  0  0
 18 21  2  0  0  0  0
 18 22  1  0  0  0  0
 19 23  1  0  0  0  0
 19 50  1  0  0  0  0
 20 24  2  0  0  0  0
 20 51  1  0  0  0  0
 21 27  1  0  0  0  0
 21 52  1  0  0  0  0
 22 28  2  0  0  0  0
 22 53  1  0  0  0  0
 23 25  2  0  0  0  0
 23 54  1  0  0  0  0
 24 25  1  0  0  0  0
 24 55  1  0  0  0  0
 25 31  1  0  0  0  0
 26 27  2  0  0  0  0
 26 28  1  0  0  0  0
 26 29  1  0  0  0  0
 27 56  1  0  0  0  0
 28 57  1  0  0  0  0
 29 58  1  0  0  0  0
 29 59  1  0  0  0  0
 31 60  1  0  0  0  0
 31 61  1  0  0  0  0
 32 33  1  0  0  0  0
 32 38  2  0  0  0  0
 33 39  2  0  0  0  0
 34 35  1  0  0  0  0
 35 36  1  0  0  0  0
 35 63  1  0  0  0  0
 35 64  1  0  0  0  0
 36 37  1  0  0  0  0
 36 65  1  0  0  0  0
 36 66  1  0  0  0  0
 37 42  1  0  0  0  0
 37 68  1  0  0  0  0
 37 69  1  0  0  0  0
 38 40  1  0  0  0  0
 38 70  1  0  0  0  0
 39 41  1  0  0  0  0
 39 71  1  0  0  0  0
 40 41  2  0  0  0  0
 40 72  1  0  0  0  0
 41 73  1  0  0  0  0
M  END
> <PUBCHEM_COMPOUND_CID>
5179

> <PUBCHEM_COMPOUND_CANONICALIZED>
1

> <PUBCHEM_CACTVS_COMPLEXITY>
855

> <PUBCHEM_CACTVS_HBOND_ACCEPTOR>
9

> <PUBCHEM_CACTVS_HBOND_DONOR>
4

> <PUBCHEM_CACTVS_ROTATABLE_BOND>
12

> <PUBCHEM_CACTVS_SUBSKEYS>
AAADcfB7OABgAAAAAAAAAAAAAAAAAWAAAAA0YMEAAAAAAFgB9AAAHgQUCAAADBz13gewybLYFgisAyVyVACD8aBhCjhomL04bJgYNrLgsZmmcAhl1gHM+AeYw/AOQAAAAAAAAQCAAAAAAAACAAAAAAAAAA==

> <PUBCHEM_IUPAC_OPENEYE_NAME>
N-[[4-[4-(1,3-benzothiazol-2-ylsulfanylmethyl)-6-[4-(hydroxymethyl)phenyl]-1,3-dioxan-2-yl]phenyl]methyl]-5-(hydroxyamino)-5-oxo-pentanamide

> <PUBCHEM_IUPAC_CAS_NAME>
N-[[4-[4-[(1,3-benzothiazol-2-ylthio)methyl]-6-[4-(hydroxymethyl)phenyl]-1,3-dioxan-2-yl]phenyl]methyl]-N'-hydroxypentanediamide

> <PUBCHEM_IUPAC_NAME>
N-[[4-[4-(1,3-benzothiazol-2-ylsulfanylmethyl)-6-[4-(hydroxymethyl)phenyl]-1,3-dioxan-2-yl]phenyl]methyl]-N'-hydroxypentanediamide

> <PUBCHEM_IUPAC_SYSTEMATIC_NAME>
N-[[4-[4-(1,3-benzothiazol-2-ylsulfanylmethyl)-6-[4-(hydroxymethyl)phenyl]-1,3-dioxan-2-yl]phenyl]methyl]-N'-oxidanyl-pentanediamide

> <PUBCHEM_IUPAC_TRADITIONAL_NAME>
N-[4-[4-[(1,3-benzothiazol-2-ylthio)methyl]-6-(4-methylolphenyl)-1,3-dioxan-2-yl]benzyl]-5-(hydroxyamino)-5-keto-valeramide

> <PUBCHEM_IUPAC_INCHI>
InChI=1S/C31H33N3O6S2/c35-18-21-10-12-22(13-11-21)26-16-24(19-41-31-33-25-4-1-2-5-27(25)42-31)39-30(40-26)23-14-8-20(9-15-23)17-32-28(36)6-3-7-29(37)34-38/h1-2,4-5,8-15,24,26,30,35,38H,3,6-7,16-19H2,(H,32,36)(H,34,37)

> <PUBCHEM_IUPAC_INCHIKEY>
VZZQYFVUHBRPBL-UHFFFAOYSA-N

> <PUBCHEM_XLOGP3_AA>
3.6

> <PUBCHEM_EXACT_MASS>
607.181078

> <PUBCHEM_MOLECULAR_FORMULA>
C31H33N3O6S2

> <PUBCHEM_MOLECULAR_WEIGHT>
607.74022

> <PUBCHEM_OPENEYE_CAN_SMILES>
C1C(OC(OC1C2=CC=C(C=C2)CO)C3=CC=C(C=C3)CNC(=O)CCCC(=O)NO)CSC4=NC5=CC=CC=C5S4

> <PUBCHEM_OPENEYE_ISO_SMILES>
C1C(OC(OC1C2=CC=C(C=C2)CO)C3=CC=C(C=C3)CNC(=O)CCCC(=O)NO)CSC4=NC5=CC=CC=C5S4

> <PUBCHEM_CACTVS_TPSA>
184

> <PUBCHEM_MONOISOTOPIC_WEIGHT>
607.181078

> <PUBCHEM_TOTAL_CHARGE>
0

> <PUBCHEM_HEAVY_ATOM_COUNT>
42

> <PUBCHEM_ATOM_DEF_STEREO_COUNT>
0

> <PUBCHEM_ATOM_UDEF_STEREO_COUNT>
3

> <PUBCHEM_BOND_DEF_STEREO_COUNT>
0

> <PUBCHEM_BOND_UDEF_STEREO_COUNT>
0

> <PUBCHEM_ISOTOPIC_ATOM_COUNT>
0

> <PUBCHEM_COMPONENT_COUNT>
1

> <PUBCHEM_CACTVS_TAUTO_COUNT>
8

> <PUBCHEM_COORDINATE_TYPE>
1
5
255

> <PUBCHEM_BONDANNOTATIONS>
10  30  8
10  33  8
13  16  3
14  17  3
15  18  3
16  19  8
16  20  8
18  21  8
18  22  8
19  23  8
2  30  8
2  32  8
20  24  8
21  27  8
22  28  8
23  25  8
24  25  8
26  27  8
26  28  8
32  33  8
32  38  8
33  39  8
38  40  8
39  41  8
40  41  8

$$$$

