5952
  -OEChem-07051213052D

 59 62  0     1  0  0  0  0  0999 V2000
    7.9821    1.7643    0.0000 O   0  0  0  0  0  0  0  0  0  0  0  0
    9.9391    2.1767    0.0000 O   0  0  0  0  0  0  0  0  0  0  0  0
    2.0000   -3.2876    0.0000 O   0  0  0  0  0  0  0  0  0  0  0  0
   11.5855    1.6386    0.0000 O   0  0  0  0  0  0  0  0  0  0  0  0
    7.3931   -1.2353    0.0000 C   0  0  2  0  0  0  0  0  0  0  0  0
    7.3931   -0.2353    0.0000 C   0  0  1  0  0  0  0  0  0  0  0  0
    6.5271   -1.7353    0.0000 C   0  0  1  0  0  0  0  0  0  0  0  0
    5.6610   -1.2353    0.0000 C   0  0  1  0  0  0  0  0  0  0  0  0
    4.7510   -1.7421    0.0000 C   0  0  2  0  0  0  0  0  0  0  0  0
    8.3393    0.0695    0.0000 C   0  0  2  0  0  0  0  0  0  0  0  0
    6.5271    0.2647    0.0000 C   0  0  0  0  0  0  0  0  0  0  0  0
    5.6610   -0.2353    0.0000 C   0  0  0  0  0  0  0  0  0  0  0  0
    8.3393   -1.5400    0.0000 C   0  0  0  0  0  0  0  0  0  0  0  0
    8.9229   -0.7353    0.0000 C   0  0  0  0  0  0  0  0  0  0  0  0
    6.5431   -2.7768    0.0000 C   0  0  0  0  0  0  0  0  0  0  0  0
    7.3931    0.7647    0.0000 C   0  0  0  0  0  0  0  0  0  0  0  0
    4.7430   -2.7837    0.0000 C   0  0  0  0  0  0  0  0  0  0  0  0
    5.6451   -3.3045    0.0000 C   0  0  0  0  0  0  0  0  0  0  0  0
    3.8242   -1.1780    0.0000 C   0  0  0  0  0  0  0  0  0  0  0  0
    4.7587   -0.7422    0.0000 C   0  0  0  0  0  0  0  0  0  0  0  0
    8.6500    1.0200    0.0000 C   0  0  0  0  0  0  0  0  0  0  0  0
    2.8763   -1.7060    0.0000 C   0  0  0  0  0  0  0  0  0  0  0  0
    3.8076   -3.3334    0.0000 C   0  0  0  0  0  0  0  0  0  0  0  0
    2.8680   -2.7910    0.0000 C   0  0  0  0  0  0  0  0  0  0  0  0
    9.6285    1.2262    0.0000 C   0  0  0  0  0  0  0  0  0  0  0  0
   10.9176    2.3829    0.0000 C   0  0  0  0  0  0  0  0  0  0  0  0
   11.2283    3.3334    0.0000 C   0  0  0  0  0  0  0  0  0  0  0  0
    7.4830   -2.0805    0.0000 H   0  0  0  0  0  0  0  0  0  0  0  0
    7.2664   -2.1546    0.0000 H   0  0  0  0  0  0  0  0  0  0  0  0
    6.3972   -0.8103    0.0000 H   0  0  0  0  0  0  0  0  0  0  0  0
    7.9018    0.5088    0.0000 H   0  0  0  0  0  0  0  0  0  0  0  0
    6.9256    0.7397    0.0000 H   0  0  0  0  0  0  0  0  0  0  0  0
    6.1285    0.7397    0.0000 H   0  0  0  0  0  0  0  0  0  0  0  0
    5.4490    0.3473    0.0000 H   0  0  0  0  0  0  0  0  0  0  0  0
    5.0504   -0.3429    0.0000 H   0  0  0  0  0  0  0  0  0  0  0  0
    8.0883   -2.1069    0.0000 H   0  0  0  0  0  0  0  0  0  0  0  0
    8.8767   -1.8492    0.0000 H   0  0  0  0  0  0  0  0  0  0  0  0
    9.3838   -1.1500    0.0000 H   0  0  0  0  0  0  0  0  0  0  0  0
    9.3838   -0.3206    0.0000 H   0  0  0  0  0  0  0  0  0  0  0  0
    6.7612   -3.3572    0.0000 H   0  0  0  0  0  0  0  0  0  0  0  0
    7.1523   -2.6613    0.0000 H   0  0  0  0  0  0  0  0  0  0  0  0
    8.0131    0.7647    0.0000 H   0  0  0  0  0  0  0  0  0  0  0  0
    7.3931    1.3847    0.0000 H   0  0  0  0  0  0  0  0  0  0  0  0
    6.7731    0.7647    0.0000 H   0  0  0  0  0  0  0  0  0  0  0  0
    5.2478   -3.7805    0.0000 H   0  0  0  0  0  0  0  0  0  0  0  0
    6.0460   -3.7774    0.0000 H   0  0  0  0  0  0  0  0  0  0  0  0
    4.2324   -0.7114    0.0000 H   0  0  0  0  0  0  0  0  0  0  0  0
    3.4343   -0.6960    0.0000 H   0  0  0  0  0  0  0  0  0  0  0  0
    5.3787   -0.7469    0.0000 H   0  0  0  0  0  0  0  0  0  0  0  0
    4.7635   -0.1222    0.0000 H   0  0  0  0  0  0  0  0  0  0  0  0
    4.1388   -0.7374    0.0000 H   0  0  0  0  0  0  0  0  0  0  0  0
    2.6718   -1.1207    0.0000 H   0  0  0  0  0  0  0  0  0  0  0  0
    2.2647   -1.8074    0.0000 H   0  0  0  0  0  0  0  0  0  0  0  0
    3.8100   -3.9534    0.0000 H   0  0  0  0  0  0  0  0  0  0  0  0
    9.6490    0.6065    0.0000 H   0  0  0  0  0  0  0  0  0  0  0  0
   10.2423    1.1388    0.0000 H   0  0  0  0  0  0  0  0  0  0  0  0
   11.8176    3.1408    0.0000 H   0  0  0  0  0  0  0  0  0  0  0  0
   11.4209    3.9228    0.0000 H   0  0  0  0  0  0  0  0  0  0  0  0
   10.6390    3.5261    0.0000 H   0  0  0  0  0  0  0  0  0  0  0  0
  1 21  2  0  0  0  0
  2 25  1  0  0  0  0
  2 26  1  0  0  0  0
  3 24  2  0  0  0  0
  4 26  2  0  0  0  0
  5  6  1  0  0  0  0
  5  7  1  0  0  0  0
  5 13  1  0  0  0  0
  5 28  1  6  0  0  0
  6 10  1  0  0  0  0
  6 11  1  0  0  0  0
  6 16  1  1  0  0  0
  7  8  1  0  0  0  0
  7 15  1  0  0  0  0
  7 29  1  1  0  0  0
  8  9  1  0  0  0  0
  8 12  1  0  0  0  0
  8 30  1  6  0  0  0
  9 17  1  0  0  0  0
  9 19  1  0  0  0  0
  9 20  1  1  0  0  0
 10 14  1  0  0  0  0
 10 21  1  1  0  0  0
 10 31  1  0  0  0  0
 11 12  1  0  0  0  0
 11 32  1  0  0  0  0
 11 33  1  0  0  0  0
 12 34  1  0  0  0  0
 12 35  1  0  0  0  0
 13 14  1  0  0  0  0
 13 36  1  0  0  0  0
 13 37  1  0  0  0  0
 14 38  1  0  0  0  0
 14 39  1  0  0  0  0
 15 18  1  0  0  0  0
 15 40  1  0  0  0  0
 15 41  1  0  0  0  0
 16 42  1  0  0  0  0
 16 43  1  0  0  0  0
 16 44  1  0  0  0  0
 17 18  1  0  0  0  0
 17 23  2  0  0  0  0
 18 45  1  0  0  0  0
 18 46  1  0  0  0  0
 19 22  1  0  0  0  0
 19 47  1  0  0  0  0
 19 48  1  0  0  0  0
 20 49  1  0  0  0  0
 20 50  1  0  0  0  0
 20 51  1  0  0  0  0
 21 25  1  0  0  0  0
 22 24  1  0  0  0  0
 22 52  1  0  0  0  0
 22 53  1  0  0  0  0
 23 24  1  0  0  0  0
 23 54  1  0  0  0  0
 25 55  1  0  0  0  0
 25 56  1  0  0  0  0
 26 27  1  0  0  0  0
 27 57  1  0  0  0  0
 27 58  1  0  0  0  0
 27 59  1  0  0  0  0
M  END
> <PUBCHEM_COMPOUND_CID>
5952

> <PUBCHEM_COMPOUND_CANONICALIZED>
1

> <PUBCHEM_CACTVS_COMPLEXITY>
707

> <PUBCHEM_CACTVS_HBOND_ACCEPTOR>
4

> <PUBCHEM_CACTVS_HBOND_DONOR>
0

> <PUBCHEM_CACTVS_ROTATABLE_BOND>
4

> <PUBCHEM_CACTVS_SUBSKEYS>
AAADcfB4OAAAAAAAAAAAAAAAAAAAAYAAAAAwYIAAAAAAAGDAAAAAGgAAAAAADwSggAICCAAABACIAqDSCAIAAAAgAAAACAFAAEgAABIAAQQCAAAEgAAIAQOIyPCPgAAAAAAAAACAAAQAACAAAQAACAAAAA==

> <PUBCHEM_IUPAC_OPENEYE_NAME>
[2-[(8S,9S,10R,13S,14S,17S)-10,13-dimethyl-3-oxo-1,2,6,7,8,9,11,12,14,15,16,17-dodecahydrocyclopenta[a]phenanthren-17-yl]-2-oxo-ethyl] acetate

> <PUBCHEM_IUPAC_CAS_NAME>
acetic acid [2-[(8S,9S,10R,13S,14S,17S)-10,13-dimethyl-3-oxo-1,2,6,7,8,9,11,12,14,15,16,17-dodecahydrocyclopenta[a]phenanthren-17-yl]-2-oxoethyl] ester

> <PUBCHEM_IUPAC_NAME>
[2-[(8S,9S,10R,13S,14S,17S)-10,13-dimethyl-3-oxo-1,2,6,7,8,9,11,12,14,15,16,17-dodecahydrocyclopenta[a]phenanthren-17-yl]-2-oxoethyl] acetate

> <PUBCHEM_IUPAC_SYSTEMATIC_NAME>
[2-[(8S,9S,10R,13S,14S,17S)-10,13-dimethyl-3-oxidanylidene-1,2,6,7,8,9,11,12,14,15,16,17-dodecahydrocyclopenta[a]phenanthren-17-yl]-2-oxidanylidene-ethyl] ethanoate

> <PUBCHEM_IUPAC_TRADITIONAL_NAME>
acetic acid [2-keto-2-[(8S,9S,10R,13S,14S,17S)-3-keto-10,13-dimethyl-1,2,6,7,8,9,11,12,14,15,16,17-dodecahydrocyclopenta[a]phenanthren-17-yl]ethyl] ester

> <PUBCHEM_IUPAC_INCHI>
InChI=1S/C23H32O4/c1-14(24)27-13-21(26)20-7-6-18-17-5-4-15-12-16(25)8-10-22(15,2)19(17)9-11-23(18,20)3/h12,17-20H,4-11,13H2,1-3H3/t17-,18-,19-,20+,22-,23-/m0/s1

> <PUBCHEM_IUPAC_INCHIKEY>
VPGRYOFKCNULNK-ACXQXYJUSA-N

> <PUBCHEM_XLOGP3>
3.1

> <PUBCHEM_EXACT_MASS>
372.23006

> <PUBCHEM_MOLECULAR_FORMULA>
C23H32O4

> <PUBCHEM_MOLECULAR_WEIGHT>
372.49778

> <PUBCHEM_OPENEYE_CAN_SMILES>
CC(=O)OCC(=O)C1CCC2C1(CCC3C2CCC4=CC(=O)CCC34C)C

> <PUBCHEM_OPENEYE_ISO_SMILES>
CC(=O)OCC(=O)[C@H]1CC[C@@H]2[C@@]1(CC[C@H]3[C@H]2CCC4=CC(=O)CC[C@]34C)C

> <PUBCHEM_CACTVS_TPSA>
60.4

> <PUBCHEM_MONOISOTOPIC_WEIGHT>
372.23006

> <PUBCHEM_TOTAL_CHARGE>
0

> <PUBCHEM_HEAVY_ATOM_COUNT>
27

> <PUBCHEM_ATOM_DEF_STEREO_COUNT>
6

> <PUBCHEM_ATOM_UDEF_STEREO_COUNT>
0

> <PUBCHEM_BOND_DEF_STEREO_COUNT>
0

> <PUBCHEM_BOND_UDEF_STEREO_COUNT>
0

> <PUBCHEM_ISOTOPIC_ATOM_COUNT>
0

> <PUBCHEM_COMPONENT_COUNT>
1

> <PUBCHEM_CACTVS_TAUTO_COUNT>
15

> <PUBCHEM_COORDINATE_TYPE>
1
5
255

> <PUBCHEM_BONDANNOTATIONS>
10  21  5
5  28  6
6  16  5
7  29  5
8  30  6
9  20  5

$$$$

