5497123
  -OEChem-07051212492D

 52 51  0     1  0  0  0  0  0999 V2000
    2.8660    4.3450    0.0000 O   0  0  0  0  0  0  0  0  0  0  0  0
    9.7942   -1.6550    0.0000 O   0  0  0  0  0  0  0  0  0  0  0  0
    2.0000    2.8450    0.0000 O   0  0  0  0  0  0  0  0  0  0  0  0
   10.6603   -1.1550    0.0000 O   0  0  0  0  0  0  0  0  0  0  0  0
    4.5981    0.3450    0.0000 C   0  0  0  0  0  0  0  0  0  0  0  0
    5.4641   -0.1550    0.0000 C   0  0  0  0  0  0  0  0  0  0  0  0
    4.5981    1.3450    0.0000 C   0  0  0  0  0  0  0  0  0  0  0  0
    5.4641   -1.1550    0.0000 C   0  0  0  0  0  0  0  0  0  0  0  0
    3.7320    1.8450    0.0000 C   0  0  0  0  0  0  0  0  0  0  0  0
    6.3301   -1.6550    0.0000 C   0  0  0  0  0  0  0  0  0  0  0  0
    3.7320    2.8450    0.0000 C   0  0  0  0  0  0  0  0  0  0  0  0
    6.3301   -2.6550    0.0000 C   0  0  0  0  0  0  0  0  0  0  0  0
    2.8660    3.3450    0.0000 C   0  0  0  0  0  0  0  0  0  0  0  0
    7.1962   -3.1550    0.0000 C   0  0  0  0  0  0  0  0  0  0  0  0
    9.7942   -2.6550    0.0000 C   0  0  1  0  0  0  0  0  0  0  0  0
   10.6603   -3.1550    0.0000 C   0  0  0  0  0  0  0  0  0  0  0  0
    8.0622   -2.6550    0.0000 C   0  0  0  0  0  0  0  0  0  0  0  0
    8.9282   -3.1550    0.0000 C   0  0  0  0  0  0  0  0  0  0  0  0
   11.5263   -2.6550    0.0000 C   0  0  0  0  0  0  0  0  0  0  0  0
   12.3923   -3.1550    0.0000 C   0  0  0  0  0  0  0  0  0  0  0  0
   12.3923   -4.1550    0.0000 C   0  0  0  0  0  0  0  0  0  0  0  0
   13.2583   -4.6550    0.0000 C   0  0  0  0  0  0  0  0  0  0  0  0
    3.9875    0.4527    0.0000 H   0  0  0  0  0  0  0  0  0  0  0  0
    4.3860   -0.2376    0.0000 H   0  0  0  0  0  0  0  0  0  0  0  0
    6.0747   -0.2627    0.0000 H   0  0  0  0  0  0  0  0  0  0  0  0
    5.6762    0.4276    0.0000 H   0  0  0  0  0  0  0  0  0  0  0  0
    5.2087    1.2373    0.0000 H   0  0  0  0  0  0  0  0  0  0  0  0
    4.8101    1.9276    0.0000 H   0  0  0  0  0  0  0  0  0  0  0  0
    4.8535   -1.0473    0.0000 H   0  0  0  0  0  0  0  0  0  0  0  0
    5.2520   -1.7376    0.0000 H   0  0  0  0  0  0  0  0  0  0  0  0
    3.1215    1.9527    0.0000 H   0  0  0  0  0  0  0  0  0  0  0  0
    3.5200    1.2624    0.0000 H   0  0  0  0  0  0  0  0  0  0  0  0
    6.9407   -1.7627    0.0000 H   0  0  0  0  0  0  0  0  0  0  0  0
    6.5422   -1.0724    0.0000 H   0  0  0  0  0  0  0  0  0  0  0  0
    4.3426    2.7373    0.0000 H   0  0  0  0  0  0  0  0  0  0  0  0
    3.9441    3.4276    0.0000 H   0  0  0  0  0  0  0  0  0  0  0  0
    5.7932   -2.9650    0.0000 H   0  0  0  0  0  0  0  0  0  0  0  0
    7.1962   -3.7750    0.0000 H   0  0  0  0  0  0  0  0  0  0  0  0
    9.2573   -2.3450    0.0000 H   0  0  0  0  0  0  0  0  0  0  0  0
   10.2617   -3.6300    0.0000 H   0  0  0  0  0  0  0  0  0  0  0  0
   11.0588   -3.6300    0.0000 H   0  0  0  0  0  0  0  0  0  0  0  0
    8.0622   -2.0350    0.0000 H   0  0  0  0  0  0  0  0  0  0  0  0
    8.9282   -3.7750    0.0000 H   0  0  0  0  0  0  0  0  0  0  0  0
   11.5263   -2.0350    0.0000 H   0  0  0  0  0  0  0  0  0  0  0  0
   12.9292   -2.8450    0.0000 H   0  0  0  0  0  0  0  0  0  0  0  0
    2.3291    4.6550    0.0000 H   0  0  0  0  0  0  0  0  0  0  0  0
   11.7817   -4.0473    0.0000 H   0  0  0  0  0  0  0  0  0  0  0  0
   12.1803   -4.7376    0.0000 H   0  0  0  0  0  0  0  0  0  0  0  0
   12.9483   -5.1919    0.0000 H   0  0  0  0  0  0  0  0  0  0  0  0
   13.7953   -4.9650    0.0000 H   0  0  0  0  0  0  0  0  0  0  0  0
   13.5683   -4.1181    0.0000 H   0  0  0  0  0  0  0  0  0  0  0  0
   10.6603   -0.5350    0.0000 H   0  0  0  0  0  0  0  0  0  0  0  0
  1 13  1  0  0  0  0
  1 46  1  0  0  0  0
  2  4  1  0  0  0  0
 15  2  1  1  0  0  0
  3 13  2  0  0  0  0
  4 52  1  0  0  0  0
  5  6  1  0  0  0  0
  5  7  1  0  0  0  0
  5 23  1  0  0  0  0
  5 24  1  0  0  0  0
  6  8  1  0  0  0  0
  6 25  1  0  0  0  0
  6 26  1  0  0  0  0
  7  9  1  0  0  0  0
  7 27  1  0  0  0  0
  7 28  1  0  0  0  0
  8 10  1  0  0  0  0
  8 29  1  0  0  0  0
  8 30  1  0  0  0  0
  9 11  1  0  0  0  0
  9 31  1  0  0  0  0
  9 32  1  0  0  0  0
 10 12  1  0  0  0  0
 10 33  1  0  0  0  0
 10 34  1  0  0  0  0
 11 13  1  0  0  0  0
 11 35  1  0  0  0  0
 11 36  1  0  0  0  0
 12 14  2  0  0  0  0
 12 37  1  0  0  0  0
 14 17  1  0  0  0  0
 14 38  1  0  0  0  0
 15 16  1  0  0  0  0
 15 18  1  0  0  0  0
 15 39  1  0  0  0  0
 16 19  1  0  0  0  0
 16 40  1  0  0  0  0
 16 41  1  0  0  0  0
 17 18  2  0  0  0  0
 17 42  1  0  0  0  0
 18 43  1  0  0  0  0
 19 20  2  0  0  0  0
 19 44  1  0  0  0  0
 20 21  1  0  0  0  0
 20 45  1  0  0  0  0
 21 22  1  0  0  0  0
 21 47  1  0  0  0  0
 21 48  1  0  0  0  0
 22 49  1  0  0  0  0
 22 50  1  0  0  0  0
 22 51  1  0  0  0  0
M  END
> <PUBCHEM_COMPOUND_CID>
5497123

> <PUBCHEM_COMPOUND_CANONICALIZED>
1

> <PUBCHEM_CACTVS_COMPLEXITY>
345

> <PUBCHEM_CACTVS_HBOND_ACCEPTOR>
4

> <PUBCHEM_CACTVS_HBOND_DONOR>
2

> <PUBCHEM_CACTVS_ROTATABLE_BOND>
14

> <PUBCHEM_CACTVS_SUBSKEYS>
AAADceB4OAAAAAAAAAAAAAAAAAAAAAAAAAAAAAAAAAAAAAAAAAAAGgAADAAACBSggAICCAAAAgCIACDSCAAAAAAgAAAICAEAAAgIBBIAAQAAUAAEwAAIgAOIyKCAAAAAAAAAAAAAAAAAAAAAAAAAAAAAAA==

> <PUBCHEM_IUPAC_OPENEYE_NAME>
(9Z,11E,13S,15Z)-13-hydroperoxyoctadeca-9,11,15-trienoic acid

> <PUBCHEM_IUPAC_CAS_NAME>
(9Z,11E,13S,15Z)-13-hydroperoxyoctadeca-9,11,15-trienoic acid

> <PUBCHEM_IUPAC_NAME>
(9Z,11E,13S,15Z)-13-hydroperoxyoctadeca-9,11,15-trienoic acid

> <PUBCHEM_IUPAC_SYSTEMATIC_NAME>
(9Z,11E,13S,15Z)-13-(dioxidanyl)octadeca-9,11,15-trienoic acid

> <PUBCHEM_IUPAC_TRADITIONAL_NAME>
(9Z,11E,13S,15Z)-13-hydroperoxyoctadeca-9,11,15-trienoic acid

> <PUBCHEM_IUPAC_INCHI>
InChI=1S/C18H30O4/c1-2-3-11-14-17(22-21)15-12-9-7-5-4-6-8-10-13-16-18(19)20/h3,7,9,11-12,15,17,21H,2,4-6,8,10,13-14,16H2,1H3,(H,19,20)/b9-7-,11-3-,15-12+/t17-/m0/s1

> <PUBCHEM_IUPAC_INCHIKEY>
UYQGVDXDXBAABN-FQSPHKRJSA-N

> <PUBCHEM_XLOGP3_AA>
4.8

> <PUBCHEM_EXACT_MASS>
310.214409

> <PUBCHEM_MOLECULAR_FORMULA>
C18H30O4

> <PUBCHEM_MOLECULAR_WEIGHT>
310.4284

> <PUBCHEM_OPENEYE_CAN_SMILES>
CCC=CCC(C=CC=CCCCCCCCC(=O)O)OO

> <PUBCHEM_OPENEYE_ISO_SMILES>
CC/C=C\C[C@@H](/C=C/C=C\CCCCCCCC(=O)O)OO

> <PUBCHEM_CACTVS_TPSA>
66.8

> <PUBCHEM_MONOISOTOPIC_WEIGHT>
310.214409

> <PUBCHEM_TOTAL_CHARGE>
0

> <PUBCHEM_HEAVY_ATOM_COUNT>
22

> <PUBCHEM_ATOM_DEF_STEREO_COUNT>
1

> <PUBCHEM_ATOM_UDEF_STEREO_COUNT>
0

> <PUBCHEM_BOND_DEF_STEREO_COUNT>
3

> <PUBCHEM_BOND_UDEF_STEREO_COUNT>
0

> <PUBCHEM_ISOTOPIC_ATOM_COUNT>
0

> <PUBCHEM_COMPONENT_COUNT>
1

> <PUBCHEM_CACTVS_TAUTO_COUNT>
1

> <PUBCHEM_COORDINATE_TYPE>
1
5
255

> <PUBCHEM_BONDANNOTATIONS>
15  2  5

$$$$

