   Color/Form
        Colorless liquid
   from [1]HSDB

   Odor
        Mild fruity odor
   from [2]HSDB

   Boiling Point
        167.5 deg C
   from [3]HSDB

   Density/Specific Gravity
        0.820-0.824 at 20 deg C/20 deg C
   from [4]HSDB

   Octanol/Water Partition Coefficient
        log Kow = 2.22 (est)
   from [5]HSDB

   Solubilities

     * Miscible with ethanol, ether
     * Miscible with oxygenated solvents.
     * In water, 2.6X10+3 mg/L at 20 deg C

   from [6]HSDB

   Spectral Properties

     * Index of refraction: 1.4150 at 20 deg C/D
     * MAXIMUM ABSORPTION (METHANOL): 278 NM (LOG E= 1.38)
     * IR: 10632 (Sadtler Research Laboratories Prism Collection)
     * UV: 2915 (Sadtler Research Laboratories Spectral Collection)
     * 1H NMR: 19489 (Sadtler Research Laboratories Spectral Collection)
     * MASS: 53590 (NIST/EPA/MSDC Mass Spectral Database, 1990 version);
       567 (Atlas of Mass Spectral Data, John Wiley & Sons, New York)

   from [7]HSDB

   Vapor Pressure
        2 mm Hg at 20 deg C
   from [8]HSDB

   Relative Evaporation Rate
        0.3 (n-butyl acetate = 1)
   from [9]HSDB

   Other Chemical/Physical Properties

     * One gallon weighs 6.83 lbs at 20 deg C. BP 157-162 deg C at 760 mm
       Hg.
     * Compatible with alcohols, ketones, ethers, manu other organic
       solvents.
     * Freezing point = 46 deg C
     * Henry's Law constant = 1.30X10-4 atm-cu m/mol at 25 deg C (est)
     * Hydroxyl radical reaction rate constant = 9.3X10-12 cu cm/molec-sec
       at 25 deg C (est)

   from [10]HSDB

   Computed Properties
   Molecular Weight                  128.21204 [g/mol]
   Molecular Formula                 C[8]H[16]O
   XLogP3-AA                         2.3
   H-Bond Donor                      0
   H-Bond Acceptor                   1
   Rotatable Bond Count              5
   Tautomer Count                    3
   Exact Mass                        128.120115
   MonoIsotopic Mass                 128.120115
   Topological Polar Surface Area    17.1
   Heavy Atom Count                  9
   Formal Charge                     0
   Complexity                        76.6
   Isotope Atom Count                0
   Defined Atom Stereocenter Count   0
   Undefined Atom Stereocenter Count 0
   Defined Bond Stereocenter Count   0
   Undefined Bond Stereocenter Count 0
   Covalently-Bonded Unit Count      1
   Feature 3D Acceptor Count         1
   Feature 3D Hydrophobe Count       3
   Effective Rotor Count             5
   Conformer Sampling RMSD           0.6
   CID Conformer Count               [11]116

References

   1. http://toxnet.nlm.nih.gov/cgi-bin/sis/search/r?dbs+hsdb:@term+@rn+@rel+106-68-3
   2. http://toxnet.nlm.nih.gov/cgi-bin/sis/search/r?dbs+hsdb:@term+@rn+@rel+106-68-3
   3. http://toxnet.nlm.nih.gov/cgi-bin/sis/search/r?dbs+hsdb:@term+@rn+@rel+106-68-3
   4. http://toxnet.nlm.nih.gov/cgi-bin/sis/search/r?dbs+hsdb:@term+@rn+@rel+106-68-3
   5. http://toxnet.nlm.nih.gov/cgi-bin/sis/search/r?dbs+hsdb:@term+@rn+@rel+106-68-3
   6. http://toxnet.nlm.nih.gov/cgi-bin/sis/search/r?dbs+hsdb:@term+@rn+@rel+106-68-3
   7. http://toxnet.nlm.nih.gov/cgi-bin/sis/search/r?dbs+hsdb:@term+@rn+@rel+106-68-3
   8. http://toxnet.nlm.nih.gov/cgi-bin/sis/search/r?dbs+hsdb:@term+@rn+@rel+106-68-3
   9. http://toxnet.nlm.nih.gov/cgi-bin/sis/search/r?dbs+hsdb:@term+@rn+@rel+106-68-3
  10. http://toxnet.nlm.nih.gov/cgi-bin/sis/search/r?dbs+hsdb:@term+@rn+@rel+106-68-3
  11. http://pubchem.ncbi.nlm.nih.gov/vw3d/vw3d.cgi?cid=246728
