5280655
  -OEChem-07051212492D

 55 58  0     1  0  0  0  0  0999 V2000
    4.0725   -1.3343    0.0000 O   0  0  0  0  0  0  0  0  0  0  0  0
   10.0680    1.0240    0.0000 O   0  0  0  0  0  0  0  0  0  0  0  0
    2.3506   -1.5220    0.0000 O   0  0  0  0  0  0  0  0  0  0  0  0
    3.7637    1.7194    0.0000 N   0  0  3  0  0  0  0  0  0  0  0  0
    8.6942    2.1405    0.0000 N   0  0  0  0  0  0  0  0  0  0  0  0
    6.2124    2.5558    0.0000 C   0  0  2  0  0  0  0  0  0  0  0  0
    6.4712    3.5217    0.0000 C   0  0  2  0  0  0  0  0  0  0  0  0
    4.6772    1.3127    0.0000 C   0  0  2  0  0  0  0  0  0  0  0  0
    5.7346    4.5043    0.0000 C   0  0  0  0  0  0  0  0  0  0  0  0
    8.3359    3.0741    0.0000 C   0  0  1  0  0  0  0  0  0  0  0  0
    3.8682    2.7139    0.0000 C   0  0  0  0  0  0  0  0  0  0  0  0
    7.9171    1.5112    0.0000 C   0  0  0  0  0  0  0  0  0  0  0  0
    4.8021    0.2785    0.0000 C   0  0  0  0  0  0  0  0  0  0  0  0
    8.9788    3.8936    0.0000 C   0  0  0  0  0  0  0  0  0  0  0  0
    2.9117    1.1202    0.0000 C   0  0  0  0  0  0  0  0  0  0  0  0
    3.9641   -0.3402    0.0000 C   0  0  2  0  0  0  0  0  0  0  0  0
    3.0126    0.0835    0.0000 C   0  0  0  0  0  0  0  0  0  0  0  0
   10.0089    3.7386    0.0000 C   0  0  0  0  0  0  0  0  0  0  0  0
    9.7204    1.9617    0.0000 C   0  0  0  0  0  0  0  0  0  0  0  0
   10.3822    2.7661    0.0000 C   0  0  0  0  0  0  0  0  0  0  0  0
    3.2658   -1.9252    0.0000 C   0  0  0  0  0  0  0  0  0  0  0  0
    3.3741   -2.9193    0.0000 C   0  0  0  0  0  0  0  0  0  0  0  0
    4.2892   -3.3225    0.0000 C   0  0  0  0  0  0  0  0  0  0  0  0
    2.5674   -3.5102    0.0000 C   0  0  0  0  0  0  0  0  0  0  0  0
    2.6757   -4.5043    0.0000 C   0  0  0  0  0  0  0  0  0  0  0  0
    5.9924    1.7348    0.0000 H   0  0  0  0  0  0  0  0  0  0  0  0
    6.6912    4.3428    0.0000 H   0  0  0  0  0  0  0  0  0  0  0  0
    5.4538    0.9669    0.0000 H   0  0  0  0  0  0  0  0  0  0  0  0
    6.0524    5.0367    0.0000 H   0  0  0  0  0  0  0  0  0  0  0  0
    5.1215    4.5963    0.0000 H   0  0  0  0  0  0  0  0  0  0  0  0
    8.0313    3.8676    0.0000 H   0  0  0  0  0  0  0  0  0  0  0  0
    3.7660    3.3254    0.0000 H   0  0  0  0  0  0  0  0  0  0  0  0
    3.2485    2.6950    0.0000 H   0  0  0  0  0  0  0  0  0  0  0  0
    7.5354    1.0226    0.0000 H   0  0  0  0  0  0  0  0  0  0  0  0
    8.3593    1.0766    0.0000 H   0  0  0  0  0  0  0  0  0  0  0  0
    5.0796   -0.2759    0.0000 H   0  0  0  0  0  0  0  0  0  0  0  0
    5.3958    0.4571    0.0000 H   0  0  0  0  0  0  0  0  0  0  0  0
    9.1747    4.4818    0.0000 H   0  0  0  0  0  0  0  0  0  0  0  0
    8.4328    4.1872    0.0000 H   0  0  0  0  0  0  0  0  0  0  0  0
    2.6471    1.6809    0.0000 H   0  0  0  0  0  0  0  0  0  0  0  0
    2.3140    0.9554    0.0000 H   0  0  0  0  0  0  0  0  0  0  0  0
    3.4632   -0.7056    0.0000 H   0  0  0  0  0  0  0  0  0  0  0  0
    2.3943    0.1299    0.0000 H   0  0  0  0  0  0  0  0  0  0  0  0
    2.8610   -0.5177    0.0000 H   0  0  0  0  0  0  0  0  0  0  0  0
   10.6172    3.8584    0.0000 H   0  0  0  0  0  0  0  0  0  0  0  0
    9.9949    4.3584    0.0000 H   0  0  0  0  0  0  0  0  0  0  0  0
   10.7865    2.2961    0.0000 H   0  0  0  0  0  0  0  0  0  0  0  0
   10.9144    3.0841    0.0000 H   0  0  0  0  0  0  0  0  0  0  0  0
    4.0392   -3.8899    0.0000 H   0  0  0  0  0  0  0  0  0  0  0  0
    4.8566   -3.5725    0.0000 H   0  0  0  0  0  0  0  0  0  0  0  0
    4.5392   -2.7552    0.0000 H   0  0  0  0  0  0  0  0  0  0  0  0
    2.0000   -3.2602    0.0000 H   0  0  0  0  0  0  0  0  0  0  0  0
    2.0594   -4.5715    0.0000 H   0  0  0  0  0  0  0  0  0  0  0  0
    2.7429   -5.1207    0.0000 H   0  0  0  0  0  0  0  0  0  0  0  0
    3.2921   -4.4372    0.0000 H   0  0  0  0  0  0  0  0  0  0  0  0
 16  1  1  1  0  0  0
  1 21  1  0  0  0  0
  2 19  2  0  0  0  0
  3 21  2  0  0  0  0
  4  8  1  0  0  0  0
  4 11  1  0  0  0  0
  4 15  1  0  0  0  0
  5 10  1  0  0  0  0
  5 12  1  0  0  0  0
  5 19  1  0  0  0  0
  6  8  1  0  0  0  0
  6  9  1  0  0  0  0
  6 12  1  0  0  0  0
  6 26  1  1  0  0  0
  7  9  1  0  0  0  0
  7 10  1  0  0  0  0
  7 11  1  0  0  0  0
  7 27  1  1  0  0  0
  8 13  1  0  0  0  0
  8 28  1  1  0  0  0
  9 29  1  0  0  0  0
  9 30  1  0  0  0  0
 10 14  1  0  0  0  0
 10 31  1  6  0  0  0
 11 32  1  0  0  0  0
 11 33  1  0  0  0  0
 12 34  1  0  0  0  0
 12 35  1  0  0  0  0
 13 16  1  0  0  0  0
 13 36  1  0  0  0  0
 13 37  1  0  0  0  0
 14 18  1  0  0  0  0
 14 38  1  0  0  0  0
 14 39  1  0  0  0  0
 15 17  1  0  0  0  0
 15 40  1  0  0  0  0
 15 41  1  0  0  0  0
 16 17  1  0  0  0  0
 16 42  1  0  0  0  0
 17 43  1  0  0  0  0
 17 44  1  0  0  0  0
 18 20  1  0  0  0  0
 18 45  1  0  0  0  0
 18 46  1  0  0  0  0
 19 20  1  0  0  0  0
 20 47  1  0  0  0  0
 20 48  1  0  0  0  0
 21 22  1  0  0  0  0
 22 23  1  0  0  0  0
 22 24  2  0  0  0  0
 23 49  1  0  0  0  0
 23 50  1  0  0  0  0
 23 51  1  0  0  0  0
 24 25  1  0  0  0  0
 24 52  1  0  0  0  0
 25 53  1  0  0  0  0
 25 54  1  0  0  0  0
 25 55  1  0  0  0  0
M  END
> <PUBCHEM_COMPOUND_CID>
5280655

> <PUBCHEM_COMPOUND_CANONICALIZED>
1

> <PUBCHEM_CACTVS_COMPLEXITY>
588

> <PUBCHEM_CACTVS_HBOND_ACCEPTOR>
4

> <PUBCHEM_CACTVS_HBOND_DONOR>
0

> <PUBCHEM_CACTVS_ROTATABLE_BOND>
3

> <PUBCHEM_CACTVS_SUBSKEYS>
AAADceB7MAAAAAAAAAAAAAAAAAAAAAAAAAAsWLFgAAAWAACwAAAAHgAAAAAADTzhgAYCCAMABACIAiHSGAAAAAAAAAAACAEIAEAABBIA4QAGEAAGBgCAIYGY2eKeAAAAAAAAAAAAAAAAAAAAAAAAAAAAAA==

> <PUBCHEM_IUPAC_INCHI>
InChI=1S/C20H30N2O3/c1-3-13(2)20(24)25-16-7-8-21-11-14-9-15(18(21)10-16)12-22-17(14)5-4-6-19(22)23/h3,14-18H,4-12H2,1-2H3/b13-3+/t14-,15+,16-,17+,18-/m0/s1

> <PUBCHEM_IUPAC_INCHIKEY>
UPVPJQNTGLTBPC-ILQGDWHLSA-N

> <PUBCHEM_XLOGP3_AA>
2.4

> <PUBCHEM_EXACT_MASS>
346.225643

> <PUBCHEM_MOLECULAR_FORMULA>
C20H30N2O3

> <PUBCHEM_MOLECULAR_WEIGHT>
346.4638

> <PUBCHEM_OPENEYE_CAN_SMILES>
CC=C(C)C(=O)OC1CCN2CC3CC(C2C1)CN4C3CCCC4=O

> <PUBCHEM_OPENEYE_ISO_SMILES>
C/C=C(\C)/C(=O)O[C@H]1CCN2C[C@@H]3C[C@@H]([C@@H]2C1)CN4[C@@H]3CCCC4=O

> <PUBCHEM_CACTVS_TPSA>
49.8

> <PUBCHEM_MONOISOTOPIC_WEIGHT>
346.225643

> <PUBCHEM_TOTAL_CHARGE>
0

> <PUBCHEM_HEAVY_ATOM_COUNT>
25

> <PUBCHEM_ATOM_DEF_STEREO_COUNT>
5

> <PUBCHEM_ATOM_UDEF_STEREO_COUNT>
0

> <PUBCHEM_BOND_DEF_STEREO_COUNT>
1

> <PUBCHEM_BOND_UDEF_STEREO_COUNT>
0

> <PUBCHEM_ISOTOPIC_ATOM_COUNT>
0

> <PUBCHEM_COMPONENT_COUNT>
1

> <PUBCHEM_CACTVS_TAUTO_COUNT>
2

> <PUBCHEM_COORDINATE_TYPE>
1
5
255

> <PUBCHEM_BONDANNOTATIONS>
16  1  5
10  31  6
6  26  5
7  27  5
8  28  5

$$$$

