164674
  -OEChem-07051213112D

 59 62  0     1  0  0  0  0  0999 V2000
   10.1642    1.9852    0.0000 O   0  0  0  0  0  0  0  0  0  0  0  0
    2.5357   -2.5286    0.0000 O   0  0  0  0  0  0  0  0  0  0  0  0
    7.0628   -0.9763    0.0000 C   0  0  1  0  0  0  0  0  0  0  0  0
    7.9288   -0.4763    0.0000 C   0  0  1  0  0  0  0  0  0  0  0  0
    6.1968   -0.4763    0.0000 C   0  0  1  0  0  0  0  0  0  0  0  0
    7.9288    0.5237    0.0000 C   0  0  1  0  0  0  0  0  0  0  0  0
    5.2868   -0.9832    0.0000 C   0  0  2  0  0  0  0  0  0  0  0  0
    5.2787   -2.0248    0.0000 C   0  0  1  0  0  0  0  0  0  0  0  0
    8.8750    0.8284    0.0000 C   0  0  2  0  0  0  0  0  0  0  0  0
    6.1968    0.5237    0.0000 C   0  0  0  0  0  0  0  0  0  0  0  0
    7.0628    1.0237    0.0000 C   0  0  0  0  0  0  0  0  0  0  0  0
    7.0789   -2.0178    0.0000 C   0  0  0  0  0  0  0  0  0  0  0  0
    8.8750   -0.7810    0.0000 C   0  0  0  0  0  0  0  0  0  0  0  0
    6.1808   -2.5456    0.0000 C   0  0  0  0  0  0  0  0  0  0  0  0
    9.4586    0.0237    0.0000 C   0  0  0  0  0  0  0  0  0  0  0  0
    4.3599   -0.4191    0.0000 C   0  0  0  0  0  0  0  0  0  0  0  0
    7.9288    1.5237    0.0000 C   0  0  0  0  0  0  0  0  0  0  0  0
    4.3433   -2.5745    0.0000 C   0  0  0  0  0  0  0  0  0  0  0  0
    5.2945    0.0168    0.0000 C   0  0  0  0  0  0  0  0  0  0  0  0
    9.1857    1.7789    0.0000 C   0  0  2  0  0  0  0  0  0  0  0  0
    3.4120   -0.9470    0.0000 C   0  0  0  0  0  0  0  0  0  0  0  0
    3.4037   -2.0320    0.0000 C   0  0  1  0  0  0  0  0  0  0  0  0
    8.5179    2.5232    0.0000 C   0  0  0  0  0  0  0  0  0  0  0  0
    7.8022   -1.3956    0.0000 H   0  0  0  0  0  0  0  0  0  0  0  0
    8.0188   -1.3215    0.0000 H   0  0  0  0  0  0  0  0  0  0  0  0
    6.9329   -0.0513    0.0000 H   0  0  0  0  0  0  0  0  0  0  0  0
    5.2820   -2.8748    0.0000 H   0  0  0  0  0  0  0  0  0  0  0  0
    9.7148    0.9603    0.0000 H   0  0  0  0  0  0  0  0  0  0  0  0
    5.9847    1.1063    0.0000 H   0  0  0  0  0  0  0  0  0  0  0  0
    5.5862    0.4160    0.0000 H   0  0  0  0  0  0  0  0  0  0  0  0
    7.4613    1.4986    0.0000 H   0  0  0  0  0  0  0  0  0  0  0  0
    6.6643    1.4986    0.0000 H   0  0  0  0  0  0  0  0  0  0  0  0
    7.2969   -2.5982    0.0000 H   0  0  0  0  0  0  0  0  0  0  0  0
    7.6880   -1.9023    0.0000 H   0  0  0  0  0  0  0  0  0  0  0  0
    8.6240   -1.3480    0.0000 H   0  0  0  0  0  0  0  0  0  0  0  0
    9.4124   -1.0903    0.0000 H   0  0  0  0  0  0  0  0  0  0  0  0
    5.7835   -3.0215    0.0000 H   0  0  0  0  0  0  0  0  0  0  0  0
    6.5818   -3.0185    0.0000 H   0  0  0  0  0  0  0  0  0  0  0  0
    9.9195   -0.3910    0.0000 H   0  0  0  0  0  0  0  0  0  0  0  0
    9.9195    0.4384    0.0000 H   0  0  0  0  0  0  0  0  0  0  0  0
    4.7681    0.0476    0.0000 H   0  0  0  0  0  0  0  0  0  0  0  0
    3.9700    0.0630    0.0000 H   0  0  0  0  0  0  0  0  0  0  0  0
    8.5488    1.5237    0.0000 H   0  0  0  0  0  0  0  0  0  0  0  0
    7.9288    2.1437    0.0000 H   0  0  0  0  0  0  0  0  0  0  0  0
    7.3088    1.5237    0.0000 H   0  0  0  0  0  0  0  0  0  0  0  0
    3.9460   -3.0504    0.0000 H   0  0  0  0  0  0  0  0  0  0  0  0
    4.7443   -3.0474    0.0000 H   0  0  0  0  0  0  0  0  0  0  0  0
    5.9145    0.0120    0.0000 H   0  0  0  0  0  0  0  0  0  0  0  0
    5.2993    0.6368    0.0000 H   0  0  0  0  0  0  0  0  0  0  0  0
    4.6745    0.0216    0.0000 H   0  0  0  0  0  0  0  0  0  0  0  0
    9.3783    2.3683    0.0000 H   0  0  0  0  0  0  0  0  0  0  0  0
    3.2075   -0.3617    0.0000 H   0  0  0  0  0  0  0  0  0  0  0  0
    2.8004   -1.0484    0.0000 H   0  0  0  0  0  0  0  0  0  0  0  0
    2.8686   -1.7189    0.0000 H   0  0  0  0  0  0  0  0  0  0  0  0
    8.9793    2.9373    0.0000 H   0  0  0  0  0  0  0  0  0  0  0  0
    8.1038    2.9847    0.0000 H   0  0  0  0  0  0  0  0  0  0  0  0
    8.0564    2.1092    0.0000 H   0  0  0  0  0  0  0  0  0  0  0  0
   10.3568    2.5745    0.0000 H   0  0  0  0  0  0  0  0  0  0  0  0
    2.0000   -2.2166    0.0000 H   0  0  0  0  0  0  0  0  0  0  0  0
 20  1  1  6  0  0  0
  1 58  1  0  0  0  0
 22  2  1  6  0  0  0
  2 59  1  0  0  0  0
  3  4  1  0  0  0  0
  3  5  1  0  0  0  0
  3 12  1  0  0  0  0
  3 24  1  1  0  0  0
  4  6  1  0  0  0  0
  4 13  1  0  0  0  0
  4 25  1  6  0  0  0
  5  7  1  0  0  0  0
  5 10  1  0  0  0  0
  5 26  1  6  0  0  0
  6  9  1  0  0  0  0
  6 11  1  0  0  0  0
  6 17  1  1  0  0  0
  7  8  1  0  0  0  0
  7 16  1  0  0  0  0
  7 19  1  1  0  0  0
  8 14  1  0  0  0  0
  8 18  1  0  0  0  0
  8 27  1  6  0  0  0
  9 15  1  0  0  0  0
  9 20  1  0  0  0  0
  9 28  1  6  0  0  0
 10 11  1  0  0  0  0
 10 29  1  0  0  0  0
 10 30  1  0  0  0  0
 11 31  1  0  0  0  0
 11 32  1  0  0  0  0
 12 14  1  0  0  0  0
 12 33  1  0  0  0  0
 12 34  1  0  0  0  0
 13 15  1  0  0  0  0
 13 35  1  0  0  0  0
 13 36  1  0  0  0  0
 14 37  1  0  0  0  0
 14 38  1  0  0  0  0
 15 39  1  0  0  0  0
 15 40  1  0  0  0  0
 16 21  1  0  0  0  0
 16 41  1  0  0  0  0
 16 42  1  0  0  0  0
 17 43  1  0  0  0  0
 17 44  1  0  0  0  0
 17 45  1  0  0  0  0
 18 22  1  0  0  0  0
 18 46  1  0  0  0  0
 18 47  1  0  0  0  0
 19 48  1  0  0  0  0
 19 49  1  0  0  0  0
 19 50  1  0  0  0  0
 20 23  1  0  0  0  0
 20 51  1  0  0  0  0
 21 22  1  0  0  0  0
 21 52  1  0  0  0  0
 21 53  1  0  0  0  0
 22 54  1  0  0  0  0
 23 55  1  0  0  0  0
 23 56  1  0  0  0  0
 23 57  1  0  0  0  0
M  END
> <PUBCHEM_COMPOUND_CID>
164674

> <PUBCHEM_COMPOUND_CANONICALIZED>
1

> <PUBCHEM_CACTVS_COMPLEXITY>
463

> <PUBCHEM_CACTVS_HBOND_ACCEPTOR>
2

> <PUBCHEM_CACTVS_HBOND_DONOR>
2

> <PUBCHEM_CACTVS_ROTATABLE_BOND>
1

> <PUBCHEM_CACTVS_SUBSKEYS>
AAADcfB4MAAAAAAAAAAAAAAAAAAAAYAAAAAwYMAAAAAAAGDAAAAAGgAACAAADxSggAICAAAAAgAAAAAAAAAAAAAAAAAAAAAAAAAAEAIAAAAAQAAEAAAAAAGAwPAPgAAAAAAAAADAAAYAACAAAQAACAAAAA==

> <PUBCHEM_IUPAC_OPENEYE_NAME>
(3R,5S,8R,9S,10S,13S,14S,17S)-17-[(1S)-1-hydroxyethyl]-10,13-dimethyl-2,3,4,5,6,7,8,9,11,12,14,15,16,17-tetradecahydro-1H-cyclopenta[a]phenanthren-3-ol

> <PUBCHEM_IUPAC_CAS_NAME>
(3R,5S,8R,9S,10S,13S,14S,17S)-17-[(1S)-1-hydroxyethyl]-10,13-dimethyl-2,3,4,5,6,7,8,9,11,12,14,15,16,17-tetradecahydro-1H-cyclopenta[a]phenanthren-3-ol

> <PUBCHEM_IUPAC_NAME>
(3R,5S,8R,9S,10S,13S,14S,17S)-17-[(1S)-1-hydroxyethyl]-10,13-dimethyl-2,3,4,5,6,7,8,9,11,12,14,15,16,17-tetradecahydro-1H-cyclopenta[a]phenanthren-3-ol

> <PUBCHEM_IUPAC_SYSTEMATIC_NAME>
(3R,5S,8R,9S,10S,13S,14S,17S)-10,13-dimethyl-17-[(1S)-1-oxidanylethyl]-2,3,4,5,6,7,8,9,11,12,14,15,16,17-tetradecahydro-1H-cyclopenta[a]phenanthren-3-ol

> <PUBCHEM_IUPAC_TRADITIONAL_NAME>
(3R,5S,8R,9S,10S,13S,14S,17S)-17-[(1S)-1-hydroxyethyl]-10,13-dimethyl-2,3,4,5,6,7,8,9,11,12,14,15,16,17-tetradecahydro-1H-cyclopenta[a]phenanthren-3-ol

> <PUBCHEM_IUPAC_INCHI>
InChI=1S/C21H36O2/c1-13(22)17-6-7-18-16-5-4-14-12-15(23)8-10-20(14,2)19(16)9-11-21(17,18)3/h13-19,22-23H,4-12H2,1-3H3/t13-,14-,15+,16-,17+,18-,19-,20-,21+/m0/s1

> <PUBCHEM_IUPAC_INCHIKEY>
YWYQTGBBEZQBGO-CGVINKDUSA-N

> <PUBCHEM_XLOGP3_AA>
5.2

> <PUBCHEM_EXACT_MASS>
320.27153

> <PUBCHEM_MOLECULAR_FORMULA>
C21H36O2

> <PUBCHEM_MOLECULAR_WEIGHT>
320.50934

> <PUBCHEM_OPENEYE_CAN_SMILES>
CC(C1CCC2C1(CCC3C2CCC4C3(CCC(C4)O)C)C)O

> <PUBCHEM_OPENEYE_ISO_SMILES>
C[C@@H]([C@H]1CC[C@@H]2[C@@]1(CC[C@H]3[C@H]2CC[C@@H]4[C@@]3(CC[C@H](C4)O)C)C)O

> <PUBCHEM_CACTVS_TPSA>
40.5

> <PUBCHEM_MONOISOTOPIC_WEIGHT>
320.27153

> <PUBCHEM_TOTAL_CHARGE>
0

> <PUBCHEM_HEAVY_ATOM_COUNT>
23

> <PUBCHEM_ATOM_DEF_STEREO_COUNT>
9

> <PUBCHEM_ATOM_UDEF_STEREO_COUNT>
0

> <PUBCHEM_BOND_DEF_STEREO_COUNT>
0

> <PUBCHEM_BOND_UDEF_STEREO_COUNT>
0

> <PUBCHEM_ISOTOPIC_ATOM_COUNT>
0

> <PUBCHEM_COMPONENT_COUNT>
1

> <PUBCHEM_CACTVS_TAUTO_COUNT>
1

> <PUBCHEM_COORDINATE_TYPE>
1
5
255

> <PUBCHEM_BONDANNOTATIONS>
20  1  6
22  2  6
3  24  5
4  25  6
5  26  6
6  17  5
7  19  5
8  27  6
9  28  6

$$$$

