   Boiling Point
        264 deg C
   from [1]HSDB

   Melting Point
        -16.9 deg C
   from [2]HSDB

   Density/Specific Gravity
        1.003 @ 20 deg C
   from [3]HSDB

   Solubilities
        Insoluble in water; sol in ether and benzene
   from [4]HSDB

   Spectral Properties

     * Index of refraction: 1.6166 @ 20 deg C/D
     * IR: 2176 (Sadtler Research Laboratories Prism Collection)
     * Raman 22-1074* (Note: Spectra were only recorded from 1700 to
       150(-1) in Analytical Chemistry)
     * MASS: 5253 (NIST/EPA/MSDC Mass Spectral Database, 1990 Version);
       558 (National Bureau of Standards)
     * UV: 2-306 (Organic Electronic Spectral Data, Phillips et al, John
       Wiley & Sons, New York)

   from [5]HSDB

   Vapor Pressure
        1.46X10-2 mm Hg @ 25 deg C
   from [6]HSDB

   Other Chemical/Physical Properties

     * Hydroxyl radical reaction rate constant = 6.34X10-11 cu
       cm/molec-sec @ 25 deg C
     * IR: 17117 (Sadtler Research Laboratories Prism Collection); UV:
       5402 (Sadtler Research Laboratories Spectral Collection); MASS:
       5250 (NIST/EPA/MSDC Mass Spectral Database, Version 1990); 113
       Aldermaston, Eight Peak Index of Mass Spectra, U.K.) /Naphthalene,
       1,2-dimethyl-/
     * IR: 2594 (Coblentz Society Spectral Collection); UV: 8-244 (Organic
       Electronic Spectral Data, Phillips et al, John Wiley & Sons, New
       York); MASS: 5251 (NIST/EPA/MSDC Mass Spectral Database, Version
       1990); 558 (National Bureau of Standards) /Naphthalene,
       1,3-dimethyl-/
     * IR: 21290 (Sadtler Research Laboratories Prism Collection); UV:
       9679 (Sadtler Research Laboratories Spectral Collection); MASS:
       5252 (NIST/EPA/MSDC Mass Spectral Database, Version 1990); 958
       (National Bureau of Standards) /Naphthalene, 1,5-dimethyl-/
     * IR: 17116 (Sadtler Research Laboratories Prism Collection); UV:
       5401 (Sadtler Research Laboratories Spectral Collection); MASS:
       39233 (NIST/EPA/MSDC Mass Spectral Database, Version 1990); 557
       (National Bureau of Standards EPA-NIH Mass Spectra Data Base,
       NSRDS-NBS-63) /Naphthalene, 1,7-dimethyl-/
     * IR: 772 (American Petroleum Institute Collection); UV: 3-344
       (Organic Electronic Spectral Data, Phillips et al, John Wiley &
       Sons, New York); MASS: 39234 (NIST/EPA/MSDC Mass Spectral Database,
       Version 1990); 113 Aldermaston, Eight Peak Index of Mass Spectra,
       U.K.); 13C NMR: 93 (Stothers, Carbon-13 NMR Spectrospcopy, Academic
       Press, NY) /Naphthalene, 1,8-dimethyl-/
     * IR: 8569 (Sadtler Research Laboratories Spectral Collection); UV:
       340 (Sadtler Research Laboratories Spectral Collection); NMR: 6527
       (Sadtler Research Laboratories Spectral Collection); MASS: 5255
       (NIST/EPA/MSDC Mass Spectral Database, Version 1990); 959 (Atlas of
       Mass Spectral Data, John Wiley & Sons, New York) /Naphthalene,
       2,3-dimethyl-/
     * IR: 2592 (Coblentz Society Spectral Collection); UV: 226 American
       Petroleum Institute spectral collection); Raman: 799 (Sadtler
       Research Laboratories Spectral Collection); 1H NMR: 1201 (Sadtler
       Research Laboratories Spectral Collection); MASS: 5256
       (NIST/EPA/MSDC Mass Spectral Database, Version 1990); 958 (Atlas of
       Mass Spectral Data, John Wiley & Sons, New York) /Naphthalene,
       2,6-dimethyl-/
     * IR: 17389 (Sadtler Research Laboratories Prism Collection); UV:
       5523 (Sadtler Research Laboratories Spectral Collection); NMR:
       12838 (Sadtler Research Laboratories Spectral Collection); MASS:
       5257 (NIST/EPA/MSDC Mass Spectral Database, Version 1990); 979
       (National Bureau of Standards) /Naphthalene, 2,7-dimethyl-/

   from [7]HSDB

   Computed Properties
   Molecular Weight                  156.22368 [g/mol]
   Molecular Formula                 C[12]H[12]
   XLogP3                            4.4
   H-Bond Donor                      0
   H-Bond Acceptor                   0
   Rotatable Bond Count              0
   Exact Mass                        156.0939
   MonoIsotopic Mass                 156.0939
   Topological Polar Surface Area    0
   Heavy Atom Count                  12
   Formal Charge                     0
   Complexity                        150
   Isotope Atom Count                0
   Defined Atom Stereocenter Count   0
   Undefined Atom Stereocenter Count 0
   Defined Bond Stereocenter Count   0
   Undefined Bond Stereocenter Count 0
   Covalently-Bonded Unit Count      1
   Feature 3D Ring Count             2
   Effective Rotor Count             0
   Conformer Sampling RMSD           0.4
   CID Conformer Count               [8]1

References

   1. http://toxnet.nlm.nih.gov/cgi-bin/sis/search/r?dbs+hsdb:@term+@rn+@rel+575-43-9
   2. http://toxnet.nlm.nih.gov/cgi-bin/sis/search/r?dbs+hsdb:@term+@rn+@rel+575-43-9
   3. http://toxnet.nlm.nih.gov/cgi-bin/sis/search/r?dbs+hsdb:@term+@rn+@rel+575-43-9
   4. http://toxnet.nlm.nih.gov/cgi-bin/sis/search/r?dbs+hsdb:@term+@rn+@rel+575-43-9
   5. http://toxnet.nlm.nih.gov/cgi-bin/sis/search/r?dbs+hsdb:@term+@rn+@rel+575-43-9
   6. http://toxnet.nlm.nih.gov/cgi-bin/sis/search/r?dbs+hsdb:@term+@rn+@rel+575-43-9
   7. http://toxnet.nlm.nih.gov/cgi-bin/sis/search/r?dbs+hsdb:@term+@rn+@rel+575-43-9
   8. http://pubchem.ncbi.nlm.nih.gov/vw3d/vw3d.cgi?cid=11328
