   Color/Form

     * Fine, cream-colored powder
     * Pale brown, crystalline

   from [1]HSDB

   Melting Point
        126-127 deg C
   from [2]HSDB

   Density/Specific Gravity
        1.565 at 24 deg C
   from [3]HSDB

   Dissociation Constants
        pKa = 2.9 (est)
   from [4]HSDB

   Octanol/Water Partition Coefficient
        log Kow = 3.49
   from [5]HSDB

   Solubilities

     * In xylene 41.7-43.5, acetone 167-182, methanol 7.39, ethyl acetate
       105-111 (all in g/L, 20 deg C)
     * In water, 8.2X10-2 mg/L at 20 deg C

   from [6]HSDB

   Vapor Pressure
        1.2X10-10 mm Hg (1.6X10-5 mPa) at 25 deg C
   from [7]HSDB

   Other Chemical/Physical Properties

     * Henry's Law constant = 8.1X10-5 Pa-cu m/mol (est)
     * Hydroxyl radical reaction rate constant = 4.23X10-11 cu
       cm/molec-sec at 25 deg C (est)

   from [8]HSDB

   Computed Properties
   Molecular Weight                  413.17593 [g/mol]
   Molecular Formula                 C[15]H[13]Cl[2]F[3]N[2]O[4]
   XLogP3-AA                         4.8
   H-Bond Donor                      0
   H-Bond Acceptor                   8
   Rotatable Bond Count              8
   Exact Mass                        412.020447
   MonoIsotopic Mass                 412.020447
   Topological Polar Surface Area    62.6
   Heavy Atom Count                  26
   Formal Charge                     0
   Complexity                        480
   Isotope Atom Count                0
   Defined Atom Stereocenter Count   0
   Undefined Atom Stereocenter Count 0
   Defined Bond Stereocenter Count   0
   Undefined Bond Stereocenter Count 0
   Covalently-Bonded Unit Count      1
   Feature 3D Acceptor Count         4
   Feature 3D Ring Count             2
   Effective Rotor Count             8
   Conformer Sampling RMSD           0.8
   CID Conformer Count               [9]100

References

   1. http://toxnet.nlm.nih.gov/cgi-bin/sis/search/r?dbs+hsdb:@term+@rn+@rel+129630-19-9
   2. http://toxnet.nlm.nih.gov/cgi-bin/sis/search/r?dbs+hsdb:@term+@rn+@rel+129630-19-9
   3. http://toxnet.nlm.nih.gov/cgi-bin/sis/search/r?dbs+hsdb:@term+@rn+@rel+129630-19-9
   4. http://toxnet.nlm.nih.gov/cgi-bin/sis/search/r?dbs+hsdb:@term+@rn+@rel+129630-19-9
   5. http://toxnet.nlm.nih.gov/cgi-bin/sis/search/r?dbs+hsdb:@term+@rn+@rel+129630-19-9
   6. http://toxnet.nlm.nih.gov/cgi-bin/sis/search/r?dbs+hsdb:@term+@rn+@rel+129630-19-9
   7. http://toxnet.nlm.nih.gov/cgi-bin/sis/search/r?dbs+hsdb:@term+@rn+@rel+129630-19-9
   8. http://toxnet.nlm.nih.gov/cgi-bin/sis/search/r?dbs+hsdb:@term+@rn+@rel+129630-19-9
   9. http://pubchem.ncbi.nlm.nih.gov/vw3d/vw3d.cgi?cid=182951
