17396170
  -OEChem-06241222552D

 45 47  0     0  0  0  0  0  0999 V2000
    3.2320    1.7342    0.0000 S   0  0  0  0  0  0  0  0  0  0  0  0
    2.0000   -3.8046    0.0000 O   0  0  0  0  0  0  0  0  0  0  0  0
    6.3099    5.2168    0.0000 O   0  0  0  0  0  0  0  0  0  0  0  0
    3.4186    3.5613    0.0000 O   0  0  0  0  0  0  0  0  0  0  0  0
    3.7320   -3.8046    0.0000 N   0  0  0  0  0  0  0  0  0  0  0  0
    4.5411    0.7832    0.0000 N   0  0  0  0  0  0  0  0  0  0  0  0
    4.8198    2.5432    0.0000 N   0  0  0  0  0  0  0  0  0  0  0  0
    2.8660   -5.3046    0.0000 C   0  0  0  0  0  0  0  0  0  0  0  0
    2.8660   -4.3046    0.0000 C   0  0  0  0  0  0  0  0  0  0  0  0
    3.7320   -2.8046    0.0000 C   0  0  0  0  0  0  0  0  0  0  0  0
    3.7320   -0.8046    0.0000 C   0  0  0  0  0  0  0  0  0  0  0  0
    2.0000   -5.8046    0.0000 C   0  0  0  0  0  0  0  0  0  0  0  0
    3.7320   -5.8046    0.0000 C   0  0  0  0  0  0  0  0  0  0  0  0
    4.5981   -2.3046    0.0000 C   0  0  0  0  0  0  0  0  0  0  0  0
    2.8660   -2.3046    0.0000 C   0  0  0  0  0  0  0  0  0  0  0  0
    3.7320    0.1954    0.0000 C   0  0  0  0  0  0  0  0  0  0  0  0
    4.5981   -1.3046    0.0000 C   0  0  0  0  0  0  0  0  0  0  0  0
    2.8660   -1.3046    0.0000 C   0  0  0  0  0  0  0  0  0  0  0  0
    5.0009    4.2658    0.0000 C   0  0  0  0  0  0  0  0  0  0  0  0
    4.2320    1.7342    0.0000 C   0  0  0  0  0  0  0  0  0  0  0  0
    2.9230    0.7832    0.0000 C   0  0  0  0  0  0  0  0  0  0  0  0
    6.0009    4.2658    0.0000 C   0  0  0  0  0  0  0  0  0  0  0  0
    4.4131    3.4568    0.0000 C   0  0  0  0  0  0  0  0  0  0  0  0
    4.6919    5.2168    0.0000 C   0  0  0  0  0  0  0  0  0  0  0  0
    6.5887    3.4568    0.0000 C   0  0  0  0  0  0  0  0  0  0  0  0
    5.5009    5.8046    0.0000 C   0  0  0  0  0  0  0  0  0  0  0  0
    2.8660   -5.9246    0.0000 H   0  0  0  0  0  0  0  0  0  0  0  0
    1.6900   -5.2677    0.0000 H   0  0  0  0  0  0  0  0  0  0  0  0
    1.4631   -6.1146    0.0000 H   0  0  0  0  0  0  0  0  0  0  0  0
    2.3100   -6.3416    0.0000 H   0  0  0  0  0  0  0  0  0  0  0  0
    3.4220   -6.3416    0.0000 H   0  0  0  0  0  0  0  0  0  0  0  0
    4.2690   -6.1146    0.0000 H   0  0  0  0  0  0  0  0  0  0  0  0
    4.0420   -5.2677    0.0000 H   0  0  0  0  0  0  0  0  0  0  0  0
    4.2690   -4.1146    0.0000 H   0  0  0  0  0  0  0  0  0  0  0  0
    5.1350   -2.6146    0.0000 H   0  0  0  0  0  0  0  0  0  0  0  0
    2.3291   -2.6146    0.0000 H   0  0  0  0  0  0  0  0  0  0  0  0
    5.1350   -0.9946    0.0000 H   0  0  0  0  0  0  0  0  0  0  0  0
    2.3291   -0.9946    0.0000 H   0  0  0  0  0  0  0  0  0  0  0  0
    2.3334    0.5916    0.0000 H   0  0  0  0  0  0  0  0  0  0  0  0
    5.4364    2.4784    0.0000 H   0  0  0  0  0  0  0  0  0  0  0  0
    4.1022    5.4084    0.0000 H   0  0  0  0  0  0  0  0  0  0  0  0
    6.0871    3.0924    0.0000 H   0  0  0  0  0  0  0  0  0  0  0  0
    6.9531    2.9552    0.0000 H   0  0  0  0  0  0  0  0  0  0  0  0
    7.0903    3.8212    0.0000 H   0  0  0  0  0  0  0  0  0  0  0  0
    5.5009    6.4246    0.0000 H   0  0  0  0  0  0  0  0  0  0  0  0
  1 20  1  0  0  0  0
  1 21  1  0  0  0  0
  2  9  2  0  0  0  0
  3 22  1  0  0  0  0
  3 26  1  0  0  0  0
  4 23  2  0  0  0  0
  5  9  1  0  0  0  0
  5 10  1  0  0  0  0
  5 34  1  0  0  0  0
  6 16  1  0  0  0  0
  6 20  2  0  0  0  0
  7 20  1  0  0  0  0
  7 23  1  0  0  0  0
  7 40  1  0  0  0  0
  8  9  1  0  0  0  0
  8 12  1  0  0  0  0
  8 13  1  0  0  0  0
  8 27  1  0  0  0  0
 10 14  2  0  0  0  0
 10 15  1  0  0  0  0
 11 16  1  0  0  0  0
 11 17  2  0  0  0  0
 11 18  1  0  0  0  0
 12 28  1  0  0  0  0
 12 29  1  0  0  0  0
 12 30  1  0  0  0  0
 13 31  1  0  0  0  0
 13 32  1  0  0  0  0
 13 33  1  0  0  0  0
 14 17  1  0  0  0  0
 14 35  1  0  0  0  0
 15 18  2  0  0  0  0
 15 36  1  0  0  0  0
 16 21  2  0  0  0  0
 17 37  1  0  0  0  0
 18 38  1  0  0  0  0
 19 22  2  0  0  0  0
 19 23  1  0  0  0  0
 19 24  1  0  0  0  0
 21 39  1  0  0  0  0
 22 25  1  0  0  0  0
 24 26  2  0  0  0  0
 24 41  1  0  0  0  0
 25 42  1  0  0  0  0
 25 43  1  0  0  0  0
 25 44  1  0  0  0  0
 26 45  1  0  0  0  0
M  END
> <PUBCHEM_COMPOUND_CID>
17396170

> <PUBCHEM_COMPOUND_CANONICALIZED>
1

> <PUBCHEM_CACTVS_COMPLEXITY>
508

> <PUBCHEM_CACTVS_HBOND_ACCEPTOR>
5

> <PUBCHEM_CACTVS_HBOND_DONOR>
2

> <PUBCHEM_CACTVS_ROTATABLE_BOND>
5

> <PUBCHEM_CACTVS_SUBSKEYS>
AAADceB7MABAAAAAAAAAAAAAAAAAAWJAAAAwAAAAAAAAAAAB8AAAHgQQAAAADQyl3gKz1ZLIFEisA61y9ACC+KllKjkJiDU2bNiMJr7svZuGOWju9RPI6ae/gIAOCAAAAAAAAAAQAAAAAAAAAAAAAAAAAA==

> <PUBCHEM_IUPAC_OPENEYE_NAME>
2-methyl-N-[4-[4-(2-methylpropanoylamino)phenyl]thiazol-2-yl]furan-3-carboxamide

> <PUBCHEM_IUPAC_CAS_NAME>
2-methyl-N-[4-[4-[(2-methyl-1-oxopropyl)amino]phenyl]-2-thiazolyl]-3-furancarboxamide

> <PUBCHEM_IUPAC_NAME>
2-methyl-N-[4-[4-(2-methylpropanoylamino)phenyl]-1,3-thiazol-2-yl]furan-3-carboxamide

> <PUBCHEM_IUPAC_SYSTEMATIC_NAME>
2-methyl-N-[4-[4-(2-methylpropanoylamino)phenyl]-1,3-thiazol-2-yl]furan-3-carboxamide

> <PUBCHEM_IUPAC_TRADITIONAL_NAME>
N-[4-[4-(isobutyrylamino)phenyl]thiazol-2-yl]-2-methyl-3-furamide

> <PUBCHEM_IUPAC_INCHI>
InChI=1S/C19H19N3O3S/c1-11(2)17(23)20-14-6-4-13(5-7-14)16-10-26-19(21-16)22-18(24)15-8-9-25-12(15)3/h4-11H,1-3H3,(H,20,23)(H,21,22,24)

> <PUBCHEM_IUPAC_INCHIKEY>
VDOAEOAIAAZPLD-UHFFFAOYSA-N

> <PUBCHEM_XLOGP3_AA>
3.5

> <PUBCHEM_EXACT_MASS>
369.114712

> <PUBCHEM_MOLECULAR_FORMULA>
C19H19N3O3S

> <PUBCHEM_MOLECULAR_WEIGHT>
369.43746

> <PUBCHEM_OPENEYE_CAN_SMILES>
CC1=C(C=CO1)C(=O)NC2=NC(=CS2)C3=CC=C(C=C3)NC(=O)C(C)C

> <PUBCHEM_OPENEYE_ISO_SMILES>
CC1=C(C=CO1)C(=O)NC2=NC(=CS2)C3=CC=C(C=C3)NC(=O)C(C)C

> <PUBCHEM_CACTVS_TPSA>
113

> <PUBCHEM_MONOISOTOPIC_WEIGHT>
369.114712

> <PUBCHEM_TOTAL_CHARGE>
0

> <PUBCHEM_HEAVY_ATOM_COUNT>
26

> <PUBCHEM_ATOM_DEF_STEREO_COUNT>
0

> <PUBCHEM_ATOM_UDEF_STEREO_COUNT>
0

> <PUBCHEM_BOND_DEF_STEREO_COUNT>
0

> <PUBCHEM_BOND_UDEF_STEREO_COUNT>
0

> <PUBCHEM_ISOTOPIC_ATOM_COUNT>
0

> <PUBCHEM_COMPONENT_COUNT>
1

> <PUBCHEM_CACTVS_TAUTO_COUNT>
9

> <PUBCHEM_COORDINATE_TYPE>
1
5
255

> <PUBCHEM_BONDANNOTATIONS>
1  20  8
1  21  8
10  14  8
10  15  8
11  17  8
11  18  8
14  17  8
15  18  8
16  21  8
19  22  8
19  24  8
24  26  8
3  22  8
3  26  8
6  16  8
6  20  8

$$$$

