   Color/Form

     * Colorless crystals.
     * White crystalline solid.

   from [1]HSDB

   Melting Point
        220 to 221 deg C
   from [2]HSDB

   Corrosivity
        Noncorrosive under normal use conditions.
   from [3]HSDB

   Density/Specific Gravity
        1.28 g/ml at 20 deg C
   from [4]HSDB

   Dissociation Constants
        pKa approx. 2.7 at 20 deg C
   from [5]HSDB

   Octanol/Water Partition Coefficient
        log Kow = 2.9 at pH 1
   from [6]HSDB

   Solubilities

     * Soluble in water 50 mg/l at 25 deg C and pH 7; less than 1 mg/l at
       pH 1.
     * Soluble in a range of organic solvents. /Technical material/

   from [7]HSDB

   Vapor Pressure
        <7.5X10-7 mm Hg at 50 deg C
   from [8]HSDB

   Other Chemical/Physical Properties
        Stable in storage for at least 6 months at 50 deg C. Decomposed by
   light. Resistant to hydrolysis under both acidic and alkaline
   conditions. Forms water-soluble salts.
   from [9]HSDB

   Computed Properties
   Molecular Weight                  438.76291 [g/mol]
   Molecular Formula                 C[15]H[10]ClF[3]N[2]O[6]S
   XLogP3                            2.4
   H-Bond Donor                      1
   H-Bond Acceptor                   9
   Rotatable Bond Count              4
   Tautomer Count                    2
   Exact Mass                        437.990019
   MonoIsotopic Mass                 437.990019
   Topological Polar Surface Area    127
   Heavy Atom Count                  28
   Formal Charge                     0
   Complexity                        693
   Isotope Atom Count                0
   Defined Atom Stereocenter Count   0
   Undefined Atom Stereocenter Count 0
   Defined Bond Stereocenter Count   0
   Undefined Bond Stereocenter Count 0
   Covalently-Bonded Unit Count      1
   Feature 3D Acceptor Count         6
   Feature 3D Donor Count            1
   Feature 3D Anion Count            1
   Feature 3D Ring Count             2
   Effective Rotor Count             7
   Conformer Sampling RMSD           0.8
   CID Conformer Count               [10]161

References

   1. http://toxnet.nlm.nih.gov/cgi-bin/sis/search/r?dbs+hsdb:@term+@rn+@rel+72178-02-0
   2. http://toxnet.nlm.nih.gov/cgi-bin/sis/search/r?dbs+hsdb:@term+@rn+@rel+72178-02-0
   3. http://toxnet.nlm.nih.gov/cgi-bin/sis/search/r?dbs+hsdb:@term+@rn+@rel+72178-02-0
   4. http://toxnet.nlm.nih.gov/cgi-bin/sis/search/r?dbs+hsdb:@term+@rn+@rel+72178-02-0
   5. http://toxnet.nlm.nih.gov/cgi-bin/sis/search/r?dbs+hsdb:@term+@rn+@rel+72178-02-0
   6. http://toxnet.nlm.nih.gov/cgi-bin/sis/search/r?dbs+hsdb:@term+@rn+@rel+72178-02-0
   7. http://toxnet.nlm.nih.gov/cgi-bin/sis/search/r?dbs+hsdb:@term+@rn+@rel+72178-02-0
   8. http://toxnet.nlm.nih.gov/cgi-bin/sis/search/r?dbs+hsdb:@term+@rn+@rel+72178-02-0
   9. http://toxnet.nlm.nih.gov/cgi-bin/sis/search/r?dbs+hsdb:@term+@rn+@rel+72178-02-0
  10. http://pubchem.ncbi.nlm.nih.gov/vw3d/vw3d.cgi?cid=51556
