442876
  -OEChem-07051213002D

 63 65  0     1  0  0  0  0  0999 V2000
    5.2623   -0.0064    0.0000 O   0  0  0  0  0  0  0  0  0  0  0  0
    7.8034   -3.5942    0.0000 O   0  0  0  0  0  0  0  0  0  0  0  0
    4.3393   -3.5942    0.0000 O   0  0  0  0  0  0  0  0  0  0  0  0
    2.4067    2.3536    0.0000 O   0  0  0  0  0  0  0  0  0  0  0  0
    5.2092    4.3897    0.0000 O   0  0  0  0  0  0  0  0  0  0  0  0
    6.0714   -4.5942    0.0000 O   0  0  0  0  0  0  0  0  0  0  0  0
    3.2202    4.1807    0.0000 O   0  0  0  0  0  0  0  0  0  0  0  0
    6.8804   -0.0064    0.0000 C   0  0  1  0  0  0  0  0  0  0  0  0
    6.5714    0.9446    0.0000 C   0  0  1  0  0  0  0  0  0  0  0  0
    6.0714   -0.5942    0.0000 C   0  0  1  0  0  0  0  0  0  0  0  0
    5.5714    0.9446    0.0000 C   0  0  1  0  0  0  0  0  0  0  0  0
    7.8314   -0.3155    0.0000 C   0  0  0  0  0  0  0  0  0  0  0  0
    7.1591    1.7536    0.0000 C   0  0  0  0  0  0  0  0  0  0  0  0
    6.0714   -1.5942    0.0000 C   0  0  0  0  0  0  0  0  0  0  0  0
    4.9836    1.7536    0.0000 C   0  0  0  0  0  0  0  0  0  0  0  0
    5.2053   -2.0942    0.0000 C   0  0  0  0  0  0  0  0  0  0  0  0
    6.9374   -2.0942    0.0000 C   0  0  0  0  0  0  0  0  0  0  0  0
    5.3903    2.6672    0.0000 C   0  0  0  0  0  0  0  0  0  0  0  0
    3.9890    1.6491    0.0000 C   0  0  0  0  0  0  0  0  0  0  0  0
    6.9374   -3.0942    0.0000 C   0  0  0  0  0  0  0  0  0  0  0  0
    5.2053   -3.0942    0.0000 C   0  0  0  0  0  0  0  0  0  0  0  0
    3.4013    2.4581    0.0000 C   0  0  0  0  0  0  0  0  0  0  0  0
    4.8025    3.4762    0.0000 C   0  0  0  0  0  0  0  0  0  0  0  0
    6.0714   -3.5942    0.0000 C   0  0  0  0  0  0  0  0  0  0  0  0
    3.8080    3.3717    0.0000 C   0  0  0  0  0  0  0  0  0  0  0  0
    8.6694   -3.0942    0.0000 C   0  0  0  0  0  0  0  0  0  0  0  0
    3.4733   -3.0942    0.0000 C   0  0  0  0  0  0  0  0  0  0  0  0
    2.0000    1.4400    0.0000 C   0  0  0  0  0  0  0  0  0  0  0  0
    6.2038    4.4943    0.0000 C   0  0  0  0  0  0  0  0  0  0  0  0
    6.9374   -5.0942    0.0000 C   0  0  0  0  0  0  0  0  0  0  0  0
    3.6270    5.0942    0.0000 C   0  0  0  0  0  0  0  0  0  0  0  0
    6.9774   -0.6188    0.0000 H   0  0  0  0  0  0  0  0  0  0  0  0
    7.1837    0.8476    0.0000 H   0  0  0  0  0  0  0  0  0  0  0  0
    6.6238   -0.8757    0.0000 H   0  0  0  0  0  0  0  0  0  0  0  0
    5.8528    1.4970    0.0000 H   0  0  0  0  0  0  0  0  0  0  0  0
    7.6398   -0.9051    0.0000 H   0  0  0  0  0  0  0  0  0  0  0  0
    8.4211   -0.5070    0.0000 H   0  0  0  0  0  0  0  0  0  0  0  0
    8.0230    0.2742    0.0000 H   0  0  0  0  0  0  0  0  0  0  0  0
    7.6607    1.3892    0.0000 H   0  0  0  0  0  0  0  0  0  0  0  0
    7.5236    2.2552    0.0000 H   0  0  0  0  0  0  0  0  0  0  0  0
    6.6576    2.1181    0.0000 H   0  0  0  0  0  0  0  0  0  0  0  0
    4.6684   -1.7842    0.0000 H   0  0  0  0  0  0  0  0  0  0  0  0
    7.4743   -1.7842    0.0000 H   0  0  0  0  0  0  0  0  0  0  0  0
    6.0069    2.7320    0.0000 H   0  0  0  0  0  0  0  0  0  0  0  0
    3.7369    1.0827    0.0000 H   0  0  0  0  0  0  0  0  0  0  0  0
    8.9794   -3.6312    0.0000 H   0  0  0  0  0  0  0  0  0  0  0  0
    9.2064   -2.7842    0.0000 H   0  0  0  0  0  0  0  0  0  0  0  0
    8.3594   -2.5573    0.0000 H   0  0  0  0  0  0  0  0  0  0  0  0
    3.7833   -2.5573    0.0000 H   0  0  0  0  0  0  0  0  0  0  0  0
    2.9363   -2.7842    0.0000 H   0  0  0  0  0  0  0  0  0  0  0  0
    3.1633   -3.6312    0.0000 H   0  0  0  0  0  0  0  0  0  0  0  0
    1.4336    1.6922    0.0000 H   0  0  0  0  0  0  0  0  0  0  0  0
    1.7478    0.8736    0.0000 H   0  0  0  0  0  0  0  0  0  0  0  0
    2.5664    1.1879    0.0000 H   0  0  0  0  0  0  0  0  0  0  0  0
    6.2686    3.8777    0.0000 H   0  0  0  0  0  0  0  0  0  0  0  0
    6.8204    4.5591    0.0000 H   0  0  0  0  0  0  0  0  0  0  0  0
    6.1390    5.1109    0.0000 H   0  0  0  0  0  0  0  0  0  0  0  0
    6.6274   -5.6312    0.0000 H   0  0  0  0  0  0  0  0  0  0  0  0
    7.4743   -5.4042    0.0000 H   0  0  0  0  0  0  0  0  0  0  0  0
    7.2474   -4.5573    0.0000 H   0  0  0  0  0  0  0  0  0  0  0  0
    4.1934    4.8421    0.0000 H   0  0  0  0  0  0  0  0  0  0  0  0
    3.8791    5.6606    0.0000 H   0  0  0  0  0  0  0  0  0  0  0  0
    3.0606    5.3464    0.0000 H   0  0  0  0  0  0  0  0  0  0  0  0
  1 10  1  0  0  0  0
  1 11  1  0  0  0  0
  2 20  1  0  0  0  0
  2 26  1  0  0  0  0
  3 21  1  0  0  0  0
  3 27  1  0  0  0  0
  4 22  1  0  0  0  0
  4 28  1  0  0  0  0
  5 23  1  0  0  0  0
  5 29  1  0  0  0  0
  6 24  1  0  0  0  0
  6 30  1  0  0  0  0
  7 25  1  0  0  0  0
  7 31  1  0  0  0  0
  8  9  1  0  0  0  0
  8 10  1  0  0  0  0
  8 12  1  6  0  0  0
  8 32  1  0  0  0  0
  9 11  1  0  0  0  0
  9 13  1  1  0  0  0
  9 33  1  0  0  0  0
 10 14  1  1  0  0  0
 10 34  1  0  0  0  0
 11 15  1  6  0  0  0
 11 35  1  0  0  0  0
 12 36  1  0  0  0  0
 12 37  1  0  0  0  0
 12 38  1  0  0  0  0
 13 39  1  0  0  0  0
 13 40  1  0  0  0  0
 13 41  1  0  0  0  0
 14 16  2  0  0  0  0
 14 17  1  0  0  0  0
 15 18  2  0  0  0  0
 15 19  1  0  0  0  0
 16 21  1  0  0  0  0
 16 42  1  0  0  0  0
 17 20  2  0  0  0  0
 17 43  1  0  0  0  0
 18 23  1  0  0  0  0
 18 44  1  0  0  0  0
 19 22  2  0  0  0  0
 19 45  1  0  0  0  0
 20 24  1  0  0  0  0
 21 24  2  0  0  0  0
 22 25  1  0  0  0  0
 23 25  2  0  0  0  0
 26 46  1  0  0  0  0
 26 47  1  0  0  0  0
 26 48  1  0  0  0  0
 27 49  1  0  0  0  0
 27 50  1  0  0  0  0
 27 51  1  0  0  0  0
 28 52  1  0  0  0  0
 28 53  1  0  0  0  0
 28 54  1  0  0  0  0
 29 55  1  0  0  0  0
 29 56  1  0  0  0  0
 29 57  1  0  0  0  0
 30 58  1  0  0  0  0
 30 59  1  0  0  0  0
 30 60  1  0  0  0  0
 31 61  1  0  0  0  0
 31 62  1  0  0  0  0
 31 63  1  0  0  0  0
M  END
> <PUBCHEM_COMPOUND_CID>
442876

> <PUBCHEM_COMPOUND_CANONICALIZED>
1

> <PUBCHEM_CACTVS_COMPLEXITY>
472

> <PUBCHEM_CACTVS_HBOND_ACCEPTOR>
7

> <PUBCHEM_CACTVS_HBOND_DONOR>
0

> <PUBCHEM_CACTVS_ROTATABLE_BOND>
8

> <PUBCHEM_CACTVS_SUBSKEYS>
AAADcfB4OAAAAAAAAAAAAAAAAAAAASAAAAAwYAAAAAAAAAABQAAAGgAAAAAADRSgmAIyBoAABACAAiBCAAACCAAgIAAAiAAGiIgNJyKEMRqCMCIlwBUKqAfA4PwOoAABCAAAQABAAAIQAACAAAAAAAAAAA==

> <PUBCHEM_IUPAC_OPENEYE_NAME>
(2S,3S,4S,5S)-3,4-dimethyl-2,5-bis(3,4,5-trimethoxyphenyl)tetrahydrofuran

> <PUBCHEM_IUPAC_CAS_NAME>
(2S,3S,4S,5S)-3,4-dimethyl-2,5-bis(3,4,5-trimethoxyphenyl)oxolane

> <PUBCHEM_IUPAC_NAME>
(2S,3S,4S,5S)-3,4-dimethyl-2,5-bis(3,4,5-trimethoxyphenyl)oxolane

> <PUBCHEM_IUPAC_SYSTEMATIC_NAME>
(2S,3S,4S,5S)-3,4-dimethyl-2,5-bis(3,4,5-trimethoxyphenyl)oxolane

> <PUBCHEM_IUPAC_TRADITIONAL_NAME>
(2S,3S,4S,5S)-3,4-dimethyl-2,5-bis(3,4,5-trimethoxyphenyl)tetrahydrofuran

> <PUBCHEM_IUPAC_INCHI>
InChI=1S/C24H32O7/c1-13-14(2)22(16-11-19(27-5)24(30-8)20(12-16)28-6)31-21(13)15-9-17(25-3)23(29-7)18(10-15)26-4/h9-14,21-22H,1-8H3/t13-,14-,21-,22-/m0/s1

> <PUBCHEM_IUPAC_INCHIKEY>
ZPINJJOPURFFNV-WJWAULOUSA-N

> <PUBCHEM_XLOGP3_AA>
4.3

> <PUBCHEM_EXACT_MASS>
432.214803

> <PUBCHEM_MOLECULAR_FORMULA>
C24H32O7

> <PUBCHEM_MOLECULAR_WEIGHT>
432.50668

> <PUBCHEM_OPENEYE_CAN_SMILES>
CC1C(C(OC1C2=CC(=C(C(=C2)OC)OC)OC)C3=CC(=C(C(=C3)OC)OC)OC)C

> <PUBCHEM_OPENEYE_ISO_SMILES>
C[C@H]1[C@@H]([C@H](O[C@@H]1C2=CC(=C(C(=C2)OC)OC)OC)C3=CC(=C(C(=C3)OC)OC)OC)C

> <PUBCHEM_CACTVS_TPSA>
64.6

> <PUBCHEM_MONOISOTOPIC_WEIGHT>
432.214803

> <PUBCHEM_TOTAL_CHARGE>
0

> <PUBCHEM_HEAVY_ATOM_COUNT>
31

> <PUBCHEM_ATOM_DEF_STEREO_COUNT>
4

> <PUBCHEM_ATOM_UDEF_STEREO_COUNT>
0

> <PUBCHEM_BOND_DEF_STEREO_COUNT>
0

> <PUBCHEM_BOND_UDEF_STEREO_COUNT>
0

> <PUBCHEM_ISOTOPIC_ATOM_COUNT>
0

> <PUBCHEM_COMPONENT_COUNT>
1

> <PUBCHEM_CACTVS_TAUTO_COUNT>
1

> <PUBCHEM_COORDINATE_TYPE>
1
5
255

> <PUBCHEM_BONDANNOTATIONS>
10  14  5
11  15  6
14  16  8
14  17  8
15  18  8
15  19  8
16  21  8
17  20  8
18  23  8
19  22  8
20  24  8
21  24  8
22  25  8
23  25  8
8  12  6
9  13  5

$$$$

