46173716
  -OEChem-07051212462D

 45 46  0     1  0  0  0  0  0999 V2000
    5.0298   -1.7689    0.0000 O   0  0  0  0  0  0  0  0  0  0  0  0
    4.8086   -0.3721    0.0000 O   0  0  0  0  0  0  0  0  0  0  0  0
    5.5819    0.9202    0.0000 O   0  0  0  0  0  0  0  0  0  0  0  0
    6.9787   -0.4766    0.0000 O   0  0  0  0  0  0  0  0  0  0  0  0
    2.4608   -1.4599    0.0000 O   0  0  0  0  0  0  0  0  0  0  0  0
    8.1510    0.6112    0.0000 O   0  0  0  0  0  0  0  0  0  0  0  0
    3.1330   -3.5290    0.0000 O   0  0  0  0  0  0  0  0  0  0  0  0
    7.4787    2.6802    0.0000 O   0  0  0  0  0  0  0  0  0  0  0  0
    4.0398    0.5414    0.0000 O   0  0  0  0  0  0  0  0  0  0  0  0
    6.3031   -3.4244    0.0000 O   0  0  0  0  0  0  0  0  0  0  0  0
    5.7099    3.5938    0.0000 O   0  0  0  0  0  0  0  0  0  0  0  0
    4.2208   -1.1811    0.0000 C   0  0  1  0  0  0  0  0  0  0  0  0
    6.3909    0.3324    0.0000 C   0  0  3  0  0  0  0  0  0  0  0  0
    3.4118   -1.7689    0.0000 C   0  0  2  0  0  0  0  0  0  0  0  0
    7.1999    0.9202    0.0000 C   0  0  2  0  0  0  0  0  0  0  0  0
    3.7208   -2.7200    0.0000 C   0  0  1  0  0  0  0  0  0  0  0  0
    4.7208   -2.7200    0.0000 C   0  0  1  0  0  0  0  0  0  0  0  0
    6.8909    1.8712    0.0000 C   0  0  1  0  0  0  0  0  0  0  0  0
    5.8909    1.8712    0.0000 C   0  0  1  0  0  0  0  0  0  0  0  0
    5.8031   -0.4766    0.0000 C   0  0  0  0  0  0  0  0  0  0  0  0
    3.6330   -0.3721    0.0000 C   0  0  0  0  0  0  0  0  0  0  0  0
    5.3086   -3.5290    0.0000 C   0  0  0  0  0  0  0  0  0  0  0  0
    5.3031    2.6802    0.0000 C   0  0  0  0  0  0  0  0  0  0  0  0
    2.9734   -2.2073    0.0000 H   0  0  0  0  0  0  0  0  0  0  0  0
    7.2969    0.3078    0.0000 H   0  0  0  0  0  0  0  0  0  0  0  0
    3.1085   -2.6230    0.0000 H   0  0  0  0  0  0  0  0  0  0  0  0
    5.3332   -2.6230    0.0000 H   0  0  0  0  0  0  0  0  0  0  0  0
    7.5033    1.7742    0.0000 H   0  0  0  0  0  0  0  0  0  0  0  0
    5.2786    1.7742    0.0000 H   0  0  0  0  0  0  0  0  0  0  0  0
    5.6322   -1.0726    0.0000 H   0  0  0  0  0  0  0  0  0  0  0  0
    6.3604   -0.7484    0.0000 H   0  0  0  0  0  0  0  0  0  0  0  0
    3.1190   -0.0254    0.0000 H   0  0  0  0  0  0  0  0  0  0  0  0
    3.2024   -0.8181    0.0000 H   0  0  0  0  0  0  0  0  0  0  0  0
    4.7514   -3.8008    0.0000 H   0  0  0  0  0  0  0  0  0  0  0  0
    5.4795   -4.1250    0.0000 H   0  0  0  0  0  0  0  0  0  0  0  0
    4.7891    3.0269    0.0000 H   0  0  0  0  0  0  0  0  0  0  0  0
    4.8724    2.2342    0.0000 H   0  0  0  0  0  0  0  0  0  0  0  0
    7.5953   -0.4118    0.0000 H   0  0  0  0  0  0  0  0  0  0  0  0
    2.0000   -1.8748    0.0000 H   0  0  0  0  0  0  0  0  0  0  0  0
    8.6117    1.0260    0.0000 H   0  0  0  0  0  0  0  0  0  0  0  0
    3.3852   -4.0954    0.0000 H   0  0  0  0  0  0  0  0  0  0  0  0
    8.0953    2.6154    0.0000 H   0  0  0  0  0  0  0  0  0  0  0  0
    3.6754    1.0430    0.0000 H   0  0  0  0  0  0  0  0  0  0  0  0
    6.6676   -3.9260    0.0000 H   0  0  0  0  0  0  0  0  0  0  0  0
    5.3454    4.0954    0.0000 H   0  0  0  0  0  0  0  0  0  0  0  0
  1 12  1  0  0  0  0
  1 17  1  0  0  0  0
 12  2  1  6  0  0  0
  2 20  1  0  0  0  0
  3 13  1  0  0  0  0
  3 19  1  0  0  0  0
  4 13  1  0  0  0  0
  4 38  1  0  0  0  0
 14  5  1  6  0  0  0
  5 39  1  0  0  0  0
 15  6  1  6  0  0  0
  6 40  1  0  0  0  0
 16  7  1  1  0  0  0
  7 41  1  0  0  0  0
 18  8  1  1  0  0  0
  8 42  1  0  0  0  0
  9 21  1  0  0  0  0
  9 43  1  0  0  0  0
 10 22  1  0  0  0  0
 10 44  1  0  0  0  0
 11 23  1  0  0  0  0
 11 45  1  0  0  0  0
 12 14  1  0  0  0  0
 12 21  1  0  0  0  0
 13 15  1  0  0  0  0
 13 20  1  0  0  0  0
 14 16  1  0  0  0  0
 14 24  1  0  0  0  0
 15 18  1  0  0  0  0
 15 25  1  0  0  0  0
 16 17  1  0  0  0  0
 16 26  1  0  0  0  0
 17 22  1  6  0  0  0
 17 27  1  0  0  0  0
 18 19  1  0  0  0  0
 18 28  1  0  0  0  0
 19 23  1  6  0  0  0
 19 29  1  0  0  0  0
 20 30  1  0  0  0  0
 20 31  1  0  0  0  0
 21 32  1  0  0  0  0
 21 33  1  0  0  0  0
 22 34  1  0  0  0  0
 22 35  1  0  0  0  0
 23 36  1  0  0  0  0
 23 37  1  0  0  0  0
M  END
> <PUBCHEM_COMPOUND_CID>
46173716

> <PUBCHEM_COMPOUND_CANONICALIZED>
1

> <PUBCHEM_CACTVS_COMPLEXITY>
409

> <PUBCHEM_CACTVS_HBOND_ACCEPTOR>
11

> <PUBCHEM_CACTVS_HBOND_DONOR>
8

> <PUBCHEM_CACTVS_ROTATABLE_BOND>
6

> <PUBCHEM_CACTVS_SUBSKEYS>
AAADceBwPAAAAAAAAAAAAAAAAAAAASJAAAAAAAAAAAAAAAAAAAAAGgAACAAACBSggAIACAAABgAAAAAAAAAAAAAAAAAAAAAAAAAREAIAAAAiQAAFAAAHAAHAYAwAAAAAAAAAAAAAAAAAAAAAAAAAAAAAAA==

> <PUBCHEM_IUPAC_OPENEYE_NAME>
(3S,4S,5R)-2-[[(2R,3S,4S,5R)-3,4-dihydroxy-2,5-bis(hydroxymethyl)tetrahydrofuran-2-yl]oxymethyl]-5-(hydroxymethyl)tetrahydrofuran-2,3,4-triol

> <PUBCHEM_IUPAC_CAS_NAME>
(3S,4S,5R)-2-[[(2R,3S,4S,5R)-3,4-dihydroxy-2,5-bis(hydroxymethyl)-2-oxolanyl]oxymethyl]-5-(hydroxymethyl)oxolane-2,3,4-triol

> <PUBCHEM_IUPAC_NAME>
(3S,4S,5R)-2-[[(2R,3S,4S,5R)-3,4-dihydroxy-2,5-bis(hydroxymethyl)oxolan-2-yl]oxymethyl]-5-(hydroxymethyl)oxolane-2,3,4-triol

> <PUBCHEM_IUPAC_SYSTEMATIC_NAME>
(3S,4S,5R)-2-[[(2R,3S,4S,5R)-2,5-bis(hydroxymethyl)-3,4-bis(oxidanyl)oxolan-2-yl]oxymethyl]-5-(hydroxymethyl)oxolane-2,3,4-triol

> <PUBCHEM_IUPAC_TRADITIONAL_NAME>
(3S,4S,5R)-2-[[(2R,3S,4S,5R)-3,4-dihydroxy-2,5-dimethylol-tetrahydrofuran-2-yl]oxymethyl]-5-methylol-tetrahydrofuran-2,3,4-triol

> <PUBCHEM_IUPAC_INCHI>
InChI=1S/C12H22O11/c13-1-5-7(16)9(18)11(20,22-5)4-21-12(3-15)10(19)8(17)6(2-14)23-12/h5-10,13-20H,1-4H2/t5-,6-,7-,8-,9+,10+,11?,12-/m1/s1

> <PUBCHEM_IUPAC_INCHIKEY>
WOHYVFWWTVNXTP-QPEGTHMASA-N

> <PUBCHEM_XLOGP3_AA>
-4.1

> <PUBCHEM_EXACT_MASS>
342.116212

> <PUBCHEM_MOLECULAR_FORMULA>
C12H22O11

> <PUBCHEM_MOLECULAR_WEIGHT>
342.29648

> <PUBCHEM_OPENEYE_CAN_SMILES>
C(C1C(C(C(O1)(CO)OCC2(C(C(C(O2)CO)O)O)O)O)O)O

> <PUBCHEM_OPENEYE_ISO_SMILES>
C([C@@H]1[C@H]([C@@H]([C@](O1)(CO)OCC2([C@H]([C@@H]([C@H](O2)CO)O)O)O)O)O)O

> <PUBCHEM_CACTVS_TPSA>
190

> <PUBCHEM_MONOISOTOPIC_WEIGHT>
342.116212

> <PUBCHEM_TOTAL_CHARGE>
0

> <PUBCHEM_HEAVY_ATOM_COUNT>
23

> <PUBCHEM_ATOM_DEF_STEREO_COUNT>
7

> <PUBCHEM_ATOM_UDEF_STEREO_COUNT>
1

> <PUBCHEM_BOND_DEF_STEREO_COUNT>
0

> <PUBCHEM_BOND_UDEF_STEREO_COUNT>
0

> <PUBCHEM_ISOTOPIC_ATOM_COUNT>
0

> <PUBCHEM_COMPONENT_COUNT>
1

> <PUBCHEM_CACTVS_TAUTO_COUNT>
1

> <PUBCHEM_COORDINATE_TYPE>
1
5
255

> <PUBCHEM_BONDANNOTATIONS>
17  22  6
19  23  6
12  2  6
13  4  3
14  5  6
15  6  6
16  7  5
18  8  5

$$$$

