20055073
  -OEChem-07051213092D

 41 46  0     0  0  0  0  0  0999 V2000
    5.5740   -3.5326    0.0000 O   0  0  0  0  0  0  0  0  0  0  0  0
    4.0684   -4.4174    0.0000 O   0  0  0  0  0  0  0  0  0  0  0  0
    6.3358    3.5753    0.0000 O   0  0  0  0  0  0  0  0  0  0  0  0
    4.8839    4.4135    0.0000 O   0  0  0  0  0  0  0  0  0  0  0  0
    2.9180    0.3320    0.0000 N   0  3  0  0  0  0  0  0  0  0  0  0
    3.7841   -0.1680    0.0000 C   0  0  0  0  0  0  0  0  0  0  0  0
    2.0080   -0.1748    0.0000 C   0  0  0  0  0  0  0  0  0  0  0  0
    2.0000   -1.2164    0.0000 C   0  0  0  0  0  0  0  0  0  0  0  0
    3.8001   -1.2095    0.0000 C   0  0  0  0  0  0  0  0  0  0  0  0
    2.9021   -1.7372    0.0000 C   0  0  0  0  0  0  0  0  0  0  0  0
    4.6501    0.3320    0.0000 C   0  0  0  0  0  0  0  0  0  0  0  0
    4.6501    1.3320    0.0000 C   0  0  0  0  0  0  0  0  0  0  0  0
    3.7841    1.8320    0.0000 C   0  0  0  0  0  0  0  0  0  0  0  0
    2.9180    1.3320    0.0000 C   0  0  0  0  0  0  0  0  0  0  0  0
    4.7520   -1.7301    0.0000 C   0  0  0  0  0  0  0  0  0  0  0  0
    2.8937   -2.8222    0.0000 C   0  0  0  0  0  0  0  0  0  0  0  0
    4.7688   -2.8150    0.0000 C   0  0  0  0  0  0  0  0  0  0  0  0
    3.8334   -3.3647    0.0000 C   0  0  0  0  0  0  0  0  0  0  0  0
    5.5601    1.8388    0.0000 C   0  0  0  0  0  0  0  0  0  0  0  0
    5.5161   -0.1680    0.0000 C   0  0  0  0  0  0  0  0  0  0  0  0
    3.7680    2.8735    0.0000 C   0  0  0  0  0  0  0  0  0  0  0  0
    5.5681    2.8804    0.0000 C   0  0  0  0  0  0  0  0  0  0  0  0
    4.6660    3.4013    0.0000 C   0  0  0  0  0  0  0  0  0  0  0  0
    5.1420   -4.5209    0.0000 C   0  0  0  0  0  0  0  0  0  0  0  0
    5.9138    4.5209    0.0000 C   0  0  0  0  0  0  0  0  0  0  0  0
    1.8035    0.4104    0.0000 H   0  0  0  0  0  0  0  0  0  0  0  0
    1.3964   -0.2762    0.0000 H   0  0  0  0  0  0  0  0  0  0  0  0
    1.3900   -1.1056    0.0000 H   0  0  0  0  0  0  0  0  0  0  0  0
    1.7864   -1.7985    0.0000 H   0  0  0  0  0  0  0  0  0  0  0  0
    2.3811    1.6420    0.0000 H   0  0  0  0  0  0  0  0  0  0  0  0
    5.2829   -1.4098    0.0000 H   0  0  0  0  0  0  0  0  0  0  0  0
    2.3556   -3.1301    0.0000 H   0  0  0  0  0  0  0  0  0  0  0  0
    6.0934    1.5227    0.0000 H   0  0  0  0  0  0  0  0  0  0  0  0
    5.2061   -0.7049    0.0000 H   0  0  0  0  0  0  0  0  0  0  0  0
    6.0530   -0.4780    0.0000 H   0  0  0  0  0  0  0  0  0  0  0  0
    5.8261    0.3689    0.0000 H   0  0  0  0  0  0  0  0  0  0  0  0
    3.2275    3.1773    0.0000 H   0  0  0  0  0  0  0  0  0  0  0  0
    5.0180   -5.1284    0.0000 H   0  0  0  0  0  0  0  0  0  0  0  0
    5.7331   -4.7081    0.0000 H   0  0  0  0  0  0  0  0  0  0  0  0
    6.5034    4.7126    0.0000 H   0  0  0  0  0  0  0  0  0  0  0  0
    5.7851    5.1274    0.0000 H   0  0  0  0  0  0  0  0  0  0  0  0
  1 17  1  0  0  0  0
  1 24  1  0  0  0  0
  2 18  1  0  0  0  0
  2 24  1  0  0  0  0
  3 22  1  0  0  0  0
  3 25  1  0  0  0  0
  4 23  1  0  0  0  0
  4 25  1  0  0  0  0
  5  6  1  0  0  0  0
  5  7  1  0  0  0  0
  5 14  2  0  0  0  0
  6  9  1  0  0  0  0
  6 11  2  0  0  0  0
  7  8  1  0  0  0  0
  7 26  1  0  0  0  0
  7 27  1  0  0  0  0
  8 10  1  0  0  0  0
  8 28  1  0  0  0  0
  8 29  1  0  0  0  0
  9 10  1  0  0  0  0
  9 15  2  0  0  0  0
 10 16  2  0  0  0  0
 11 12  1  0  0  0  0
 11 20  1  0  0  0  0
 12 13  1  0  0  0  0
 12 19  2  0  0  0  0
 13 14  1  0  0  0  0
 13 21  2  0  0  0  0
 14 30  1  0  0  0  0
 15 17  1  0  0  0  0
 15 31  1  0  0  0  0
 16 18  1  0  0  0  0
 16 32  1  0  0  0  0
 17 18  2  0  0  0  0
 19 22  1  0  0  0  0
 19 33  1  0  0  0  0
 20 34  1  0  0  0  0
 20 35  1  0  0  0  0
 20 36  1  0  0  0  0
 21 23  1  0  0  0  0
 21 37  1  0  0  0  0
 22 23  2  0  0  0  0
 24 38  1  0  0  0  0
 24 39  1  0  0  0  0
 25 40  1  0  0  0  0
 25 41  1  0  0  0  0
M  CHG  1   5   1
M  END
> <PUBCHEM_COMPOUND_CID>
20055073

> <PUBCHEM_COMPOUND_CANONICALIZED>
1

> <PUBCHEM_CACTVS_COMPLEXITY>
530

> <PUBCHEM_CACTVS_HBOND_ACCEPTOR>
4

> <PUBCHEM_CACTVS_HBOND_DONOR>
0

> <PUBCHEM_CACTVS_ROTATABLE_BOND>
0

> <PUBCHEM_CACTVS_SUBSKEYS>
AAADceB6OAAAAAAAAAAAAAAAAAAAASJAAAA8eIEAAAAAAEix9AAAHgAAAAAADAzBngc+jtMMFACgAzRnRACCiCAxICAA2CAuzJgdJuLEsZukMCpkwBHO6Aew0PMOoAABAAAQQABAAAIAACCAAAAAAAAAAA==

> <PUBCHEM_IUPAC_INCHI>
InChI=1S/C20H16NO4/c1-11-14-6-18-17(23-10-24-18)5-13(14)8-21-3-2-12-4-16-19(25-9-22-16)7-15(12)20(11)21/h4-8H,2-3,9-10H2,1H3/q+1

> <PUBCHEM_IUPAC_INCHIKEY>
LCXREBMNASQAOC-UHFFFAOYSA-N

> <PUBCHEM_XLOGP3_AA>
3.9

> <PUBCHEM_EXACT_MASS>
334.107933

> <PUBCHEM_MOLECULAR_FORMULA>
C20H16NO4+

> <PUBCHEM_MOLECULAR_WEIGHT>
334.34534

> <PUBCHEM_OPENEYE_CAN_SMILES>
CC1=C2C3=CC4=C(C=C3CC[N+]2=CC5=CC6=C(C=C15)OCO6)OCO4

> <PUBCHEM_OPENEYE_ISO_SMILES>
CC1=C2C3=CC4=C(C=C3CC[N+]2=CC5=CC6=C(C=C15)OCO6)OCO4

> <PUBCHEM_CACTVS_TPSA>
40.8

> <PUBCHEM_MONOISOTOPIC_WEIGHT>
334.107933

> <PUBCHEM_TOTAL_CHARGE>
1

> <PUBCHEM_HEAVY_ATOM_COUNT>
25

> <PUBCHEM_ATOM_DEF_STEREO_COUNT>
0

> <PUBCHEM_ATOM_UDEF_STEREO_COUNT>
0

> <PUBCHEM_BOND_DEF_STEREO_COUNT>
0

> <PUBCHEM_BOND_UDEF_STEREO_COUNT>
0

> <PUBCHEM_ISOTOPIC_ATOM_COUNT>
0

> <PUBCHEM_COMPONENT_COUNT>
1

> <PUBCHEM_CACTVS_TAUTO_COUNT>
1

> <PUBCHEM_COORDINATE_TYPE>
1
5
255

> <PUBCHEM_BONDANNOTATIONS>
10  16  8
11  12  8
12  13  8
12  19  8
13  14  8
13  21  8
15  17  8
16  18  8
17  18  8
19  22  8
21  23  8
22  23  8
5  14  8
5  6  8
6  11  8
9  10  8
9  15  8

$$$$

