15818234
  -OEChem-07051213092D

 60 62  0     1  0  0  0  0  0999 V2000
    2.0000   -3.5981    0.0000 Cl  0  0  0  0  0  0  0  0  0  0  0  0
    4.0000   -1.8660    0.0000 O   0  0  0  0  0  0  0  0  0  0  0  0
    7.1660    0.4753    0.0000 O   0  0  0  0  0  0  0  0  0  0  0  0
    3.0000    2.8660    0.0000 N   0  3  0  0  0  0  0  0  0  0  0  0
    5.2484   -1.0346    0.0000 N   0  3  0  0  0  0  0  0  0  0  0  0
    4.3660    0.5000    0.0000 C   0  0  1  0  0  0  0  0  0  0  0  0
    3.5000    0.0000    0.0000 C   0  0  2  0  0  0  0  0  0  0  0  0
    4.3660    1.5000    0.0000 C   0  0  2  0  0  0  0  0  0  0  0  0
    3.5000    2.0000    0.0000 C   0  0  1  0  0  0  0  0  0  0  0  0
    3.5000   -1.0000    0.0000 C   0  0  2  0  0  0  0  0  0  0  0  0
    5.2600   -0.0347    0.0000 C   0  0  1  0  0  0  0  0  0  0  0  0
    2.6340    0.5000    0.0000 C   0  0  0  0  0  0  0  0  0  0  0  0
    5.2600    2.0347    0.0000 C   0  0  0  0  0  0  0  0  0  0  0  0
    2.6340    1.5000    0.0000 C   0  0  0  0  0  0  0  0  0  0  0  0
    6.1660    0.4792    0.0000 C   0  0  2  0  0  0  0  0  0  0  0  0
    6.1660    1.5208    0.0000 C   0  0  0  0  0  0  0  0  0  0  0  0
    2.5000   -1.0000    0.0000 C   0  0  0  0  0  0  0  0  0  0  0  0
    4.0000    2.8660    0.0000 C   0  0  0  0  0  0  0  0  0  0  0  0
    4.3660   -0.5000    0.0000 C   0  0  0  0  0  0  0  0  0  0  0  0
    3.5000   -2.7320    0.0000 C   0  0  0  0  0  0  0  0  0  0  0  0
    2.0000   -1.8660    0.0000 C   0  0  0  0  0  0  0  0  0  0  0  0
    6.6627   -0.3888    0.0000 C   0  0  0  0  0  0  0  0  0  0  0  0
    2.5000   -2.7320    0.0000 C   0  0  1  0  0  0  0  0  0  0  0  0
    3.5000   -3.7320    0.0000 C   0  0  0  0  0  0  0  0  0  0  0  0
    4.3660   -3.2320    0.0000 C   0  0  0  0  0  0  0  0  0  0  0  0
    2.5000    3.7320    0.0000 C   0  5  0  0  0  0  0  0  0  0  0  0
    5.2368   -2.0345    0.0000 C   0  5  0  0  0  0  0  0  0  0  0  0
    4.3595   -0.3500    0.0000 H   0  0  0  0  0  0  0  0  0  0  0  0
    2.7639   -0.4250    0.0000 H   0  0  0  0  0  0  0  0  0  0  0  0
    4.3595    2.3500    0.0000 H   0  0  0  0  0  0  0  0  0  0  0  0
    5.7939   -0.3498    0.0000 H   0  0  0  0  0  0  0  0  0  0  0  0
    2.0234    0.6077    0.0000 H   0  0  0  0  0  0  0  0  0  0  0  0
    2.4219   -0.0826    0.0000 H   0  0  0  0  0  0  0  0  0  0  0  0
    5.6536    2.5137    0.0000 H   0  0  0  0  0  0  0  0  0  0  0  0
    4.8554    2.5044    0.0000 H   0  0  0  0  0  0  0  0  0  0  0  0
    2.4219    2.0826    0.0000 H   0  0  0  0  0  0  0  0  0  0  0  0
    2.0234    1.3923    0.0000 H   0  0  0  0  0  0  0  0  0  0  0  0
    6.7769    1.4147    0.0000 H   0  0  0  0  0  0  0  0  0  0  0  0
    6.3751    2.1045    0.0000 H   0  0  0  0  0  0  0  0  0  0  0  0
    2.6077   -0.3894    0.0000 H   0  0  0  0  0  0  0  0  0  0  0  0
    1.9174   -0.7879    0.0000 H   0  0  0  0  0  0  0  0  0  0  0  0
    4.5369    2.5560    0.0000 H   0  0  0  0  0  0  0  0  0  0  0  0
    4.3100    3.4030    0.0000 H   0  0  0  0  0  0  0  0  0  0  0  0
    3.4631    3.1760    0.0000 H   0  0  0  0  0  0  0  0  0  0  0  0
    4.6760   -1.0369    0.0000 H   0  0  0  0  0  0  0  0  0  0  0  0
    4.9030   -0.1900    0.0000 H   0  0  0  0  0  0  0  0  0  0  0  0
    4.0560    0.0369    0.0000 H   0  0  0  0  0  0  0  0  0  0  0  0
    1.5250   -1.4675    0.0000 H   0  0  0  0  0  0  0  0  0  0  0  0
    1.5250   -2.2646    0.0000 H   0  0  0  0  0  0  0  0  0  0  0  0
    6.1246   -0.6967    0.0000 H   0  0  0  0  0  0  0  0  0  0  0  0
    6.9706   -0.9269    0.0000 H   0  0  0  0  0  0  0  0  0  0  0  0
    7.2008   -0.0808    0.0000 H   0  0  0  0  0  0  0  0  0  0  0  0
    2.8100   -3.2690    0.0000 H   0  0  0  0  0  0  0  0  0  0  0  0
    7.4781    1.0111    0.0000 H   0  0  0  0  0  0  0  0  0  0  0  0
    2.8800   -3.7320    0.0000 H   0  0  0  0  0  0  0  0  0  0  0  0
    3.5000   -4.3520    0.0000 H   0  0  0  0  0  0  0  0  0  0  0  0
    4.1200   -3.7320    0.0000 H   0  0  0  0  0  0  0  0  0  0  0  0
    4.0560   -3.7690    0.0000 H   0  0  0  0  0  0  0  0  0  0  0  0
    4.9030   -3.5420    0.0000 H   0  0  0  0  0  0  0  0  0  0  0  0
    4.6760   -2.6951    0.0000 H   0  0  0  0  0  0  0  0  0  0  0  0
 23  1  1  6  0  0  0
  2 10  1  0  0  0  0
  2 20  1  0  0  0  0
 15  3  1  6  0  0  0
  3 54  1  0  0  0  0
  9  4  1  1  0  0  0
  4 26  3  0  0  0  0
 11  5  1  1  0  0  0
  5 27  3  0  0  0  0
  6  7  1  0  0  0  0
  6  8  1  0  0  0  0
  6 11  1  0  0  0  0
  6 28  1  6  0  0  0
  7 10  1  0  0  0  0
  7 12  1  0  0  0  0
  7 29  1  1  0  0  0
  8  9  1  0  0  0  0
  8 13  1  0  0  0  0
  8 30  1  1  0  0  0
  9 14  1  0  0  0  0
  9 18  1  0  0  0  0
 10 17  1  0  0  0  0
 10 19  1  6  0  0  0
 11 15  1  0  0  0  0
 11 31  1  0  0  0  0
 12 14  1  0  0  0  0
 12 32  1  0  0  0  0
 12 33  1  0  0  0  0
 13 16  1  0  0  0  0
 13 34  1  0  0  0  0
 13 35  1  0  0  0  0
 14 36  1  0  0  0  0
 14 37  1  0  0  0  0
 15 16  1  0  0  0  0
 15 22  1  0  0  0  0
 16 38  1  0  0  0  0
 16 39  1  0  0  0  0
 17 21  1  0  0  0  0
 17 40  1  0  0  0  0
 17 41  1  0  0  0  0
 18 42  1  0  0  0  0
 18 43  1  0  0  0  0
 18 44  1  0  0  0  0
 19 45  1  0  0  0  0
 19 46  1  0  0  0  0
 19 47  1  0  0  0  0
 20 23  1  0  0  0  0
 20 24  1  0  0  0  0
 20 25  1  0  0  0  0
 21 23  1  0  0  0  0
 21 48  1  0  0  0  0
 21 49  1  0  0  0  0
 22 50  1  0  0  0  0
 22 51  1  0  0  0  0
 22 52  1  0  0  0  0
 23 53  1  0  0  0  0
 24 55  1  0  0  0  0
 24 56  1  0  0  0  0
 24 57  1  0  0  0  0
 25 58  1  0  0  0  0
 25 59  1  0  0  0  0
 25 60  1  0  0  0  0
M  CHG  4   4   1   5   1  26  -1  27  -1
M  END
> <PUBCHEM_COMPOUND_CID>
15818234

> <PUBCHEM_COMPOUND_CANONICALIZED>
1

> <PUBCHEM_CACTVS_COMPLEXITY>
706

> <PUBCHEM_CACTVS_HBOND_ACCEPTOR>
4

> <PUBCHEM_CACTVS_HBOND_DONOR>
1

> <PUBCHEM_CACTVS_ROTATABLE_BOND>
1

> <PUBCHEM_CACTVS_SUBSKEYS>
AAADcfB7MAAEAAAAAAAAAAAAAAAAAAAAAAA0YIAAAAAAAADAAAAAHgIACAAADe/BgEQCAAIABgAQAAAAAAAAAAAAAAAAAAAAAwACAAIBgAACQAAEAAAAAAGw8P0OgAAAAAAAAADQAAaAACQgAAAAAAAAAA==

> <PUBCHEM_IUPAC_OPENEYE_NAME>
(1S,2S,4aR,5R,8R,8aR)-8-[(2S,5R)-5-chloro-2,6,6-trimethyl-tetrahydropyran-2-yl]-1,5-diisocyano-2,5-dimethyl-decalin-2-ol

> <PUBCHEM_IUPAC_CAS_NAME>
(1S,2S,4aR,5R,8R,8aR)-8-[(2S,5R)-5-chloro-2,6,6-trimethyl-2-oxanyl]-1,5-diisocyano-2,5-dimethyl-1,3,4,4a,6,7,8,8a-octahydronaphthalen-2-ol

> <PUBCHEM_IUPAC_NAME>
(1S,2S,4aR,5R,8R,8aR)-8-[(2S,5R)-5-chloro-2,6,6-trimethyloxan-2-yl]-1,5-diisocyano-2,5-dimethyl-1,3,4,4a,6,7,8,8a-octahydronaphthalen-2-ol

> <PUBCHEM_IUPAC_SYSTEMATIC_NAME>
(1S,2S,4aR,5R,8R,8aR)-8-[(2S,5R)-5-chloranyl-2,6,6-trimethyl-oxan-2-yl]-1,5-diisocyano-2,5-dimethyl-1,3,4,4a,6,7,8,8a-octahydronaphthalen-2-ol

> <PUBCHEM_IUPAC_TRADITIONAL_NAME>
(1S,2S,4aR,5R,8R,8aR)-8-[(2S,5R)-5-chloro-2,6,6-trimethyl-tetrahydropyran-2-yl]-1,5-diisocyano-2,5-dimethyl-decalin-2-ol

> <PUBCHEM_IUPAC_INCHI>
InChI=1S/C22H33ClN2O2/c1-19(2)16(23)10-13-22(5,27-19)15-8-11-20(3,25-7)14-9-12-21(4,26)18(24-6)17(14)15/h14-18,26H,8-13H2,1-5H3/t14-,15-,16-,17-,18+,20-,21+,22+/m1/s1

> <PUBCHEM_IUPAC_INCHIKEY>
ULUHGZAAPMJKNO-CGYKTZFGSA-N

> <PUBCHEM_XLOGP3_AA>
3

> <PUBCHEM_EXACT_MASS>
392.223056

> <PUBCHEM_MOLECULAR_FORMULA>
C22H33ClN2O2

> <PUBCHEM_MOLECULAR_WEIGHT>
392.96262

> <PUBCHEM_OPENEYE_CAN_SMILES>
CC1(C(CCC(O1)(C)C2CCC(C3C2C(C(CC3)(C)O)[N+]#[C-])(C)[N+]#[C-])Cl)C

> <PUBCHEM_OPENEYE_ISO_SMILES>
C[C@]1(CC[C@H]([C@H]2[C@H]1CC[C@]([C@H]2[N+]#[C-])(C)O)[C@@]3(CC[C@H](C(O3)(C)C)Cl)C)[N+]#[C-]

> <PUBCHEM_CACTVS_TPSA>
38.2

> <PUBCHEM_MONOISOTOPIC_WEIGHT>
392.223056

> <PUBCHEM_TOTAL_CHARGE>
0

> <PUBCHEM_HEAVY_ATOM_COUNT>
27

> <PUBCHEM_ATOM_DEF_STEREO_COUNT>
8

> <PUBCHEM_ATOM_UDEF_STEREO_COUNT>
0

> <PUBCHEM_BOND_DEF_STEREO_COUNT>
0

> <PUBCHEM_BOND_UDEF_STEREO_COUNT>
0

> <PUBCHEM_ISOTOPIC_ATOM_COUNT>
0

> <PUBCHEM_COMPONENT_COUNT>
1

> <PUBCHEM_CACTVS_TAUTO_COUNT>
1

> <PUBCHEM_COORDINATE_TYPE>
1
5
255

> <PUBCHEM_BONDANNOTATIONS>
23  1  6
10  19  6
15  3  6
9  4  5
11  5  5
6  28  6
7  29  5
8  30  5

$$$$

