3697
  -OEChem-06251223352D

 40 42  0     1  0  0  0  0  0999 V2000
    8.8625    2.9270    0.0000 P   0  0  0  0  0  0  0  0  0  0  0  0
    4.8055    0.2640    0.0000 O   0  0  0  0  0  0  0  0  0  0  0  0
    6.0873    2.0218    0.0000 O   0  0  0  0  0  0  0  0  0  0  0  0
    8.0524    2.3407    0.0000 O   0  0  0  0  0  0  0  0  0  0  0  0
    4.2690   -4.3030    0.0000 O   0  0  0  0  0  0  0  0  0  0  0  0
    9.6725    3.5134    0.0000 O   0  0  0  0  0  0  0  0  0  0  0  0
    8.2761    3.7371    0.0000 O   0  0  0  0  0  0  0  0  0  0  0  0
    9.4489    2.1170    0.0000 O   0  0  0  0  0  0  0  0  0  0  0  0
    7.3435   -0.2404    0.0000 N   0  0  0  0  0  0  0  0  0  0  0  0
    6.0812   -3.1078    0.0000 N   0  0  0  0  0  0  0  0  0  0  0  0
    4.2690   -1.3030    0.0000 N   0  0  0  0  0  0  0  0  0  0  0  0
    3.4030   -2.8030    0.0000 N   0  0  0  0  0  0  0  0  0  0  0  0
    2.5369   -1.3030    0.0000 N   0  0  0  0  0  0  0  0  0  0  0  0
    6.3919   -0.5478    0.0000 C   0  0  3  0  0  0  0  0  0  0  0  0
    7.3452    0.7596    0.0000 C   0  0  3  0  0  0  0  0  0  0  0  0
    5.8055    0.2622    0.0000 C   0  0  3  0  0  0  0  0  0  0  0  0
    6.3947    1.0702    0.0000 C   0  0  3  0  0  0  0  0  0  0  0  0
    6.0812   -1.4983    0.0000 C   0  0  0  0  0  0  0  0  0  0  0  0
    8.1552    1.3460    0.0000 C   0  0  0  0  0  0  0  0  0  0  0  0
    5.1350   -1.8030    0.0000 C   0  0  0  0  0  0  0  0  0  0  0  0
    6.6648   -2.3030    0.0000 C   0  0  0  0  0  0  0  0  0  0  0  0
    5.1350   -2.8030    0.0000 C   0  0  0  0  0  0  0  0  0  0  0  0
    4.2690   -3.3030    0.0000 C   0  0  0  0  0  0  0  0  0  0  0  0
    3.4030   -1.8030    0.0000 C   0  0  0  0  0  0  0  0  0  0  0  0
    5.7794   -0.6437    0.0000 H   0  0  0  0  0  0  0  0  0  0  0  0
    7.8972    0.4771    0.0000 H   0  0  0  0  0  0  0  0  0  0  0  0
    5.5231   -0.2897    0.0000 H   0  0  0  0  0  0  0  0  0  0  0  0
    5.7825    1.1683    0.0000 H   0  0  0  0  0  0  0  0  0  0  0  0
    7.8444   -0.6057    0.0000 H   0  0  0  0  0  0  0  0  0  0  0  0
    8.4261    0.7882    0.0000 H   0  0  0  0  0  0  0  0  0  0  0  0
    8.7515    1.5158    0.0000 H   0  0  0  0  0  0  0  0  0  0  0  0
    7.2848   -2.3030    0.0000 H   0  0  0  0  0  0  0  0  0  0  0  0
    4.4964    0.8014    0.0000 H   0  0  0  0  0  0  0  0  0  0  0  0
    6.5030    2.4819    0.0000 H   0  0  0  0  0  0  0  0  0  0  0  0
    6.2738   -3.6971    0.0000 H   0  0  0  0  0  0  0  0  0  0  0  0
    4.2690   -0.6830    0.0000 H   0  0  0  0  0  0  0  0  0  0  0  0
    2.0000   -1.6130    0.0000 H   0  0  0  0  0  0  0  0  0  0  0  0
    2.5369   -0.6830    0.0000 H   0  0  0  0  0  0  0  0  0  0  0  0
    9.6088    4.1302    0.0000 H   0  0  0  0  0  0  0  0  0  0  0  0
    8.5292    4.3030    0.0000 H   0  0  0  0  0  0  0  0  0  0  0  0
  1  4  1  0  0  0  0
  1  6  1  0  0  0  0
  1  7  1  0  0  0  0
  1  8  2  0  0  0  0
  2 16  1  0  0  0  0
  2 33  1  0  0  0  0
  3 17  1  0  0  0  0
  3 34  1  0  0  0  0
  4 19  1  0  0  0  0
  5 23  2  0  0  0  0
  6 39  1  0  0  0  0
  7 40  1  0  0  0  0
  9 14  1  0  0  0  0
  9 15  1  0  0  0  0
  9 29  1  0  0  0  0
 10 21  1  0  0  0  0
 10 22  1  0  0  0  0
 10 35  1  0  0  0  0
 11 20  1  0  0  0  0
 11 24  1  0  0  0  0
 11 36  1  0  0  0  0
 12 23  1  0  0  0  0
 12 24  2  0  0  0  0
 13 24  1  0  0  0  0
 13 37  1  0  0  0  0
 13 38  1  0  0  0  0
 14 16  1  0  0  0  0
 14 18  1  0  0  0  0
 14 25  1  0  0  0  0
 15 17  1  0  0  0  0
 15 19  1  0  0  0  0
 15 26  1  0  0  0  0
 16 17  1  0  0  0  0
 16 27  1  0  0  0  0
 17 28  1  0  0  0  0
 18 20  1  0  0  0  0
 18 21  2  0  0  0  0
 19 30  1  0  0  0  0
 19 31  1  0  0  0  0
 20 22  2  0  0  0  0
 21 32  1  0  0  0  0
 22 23  1  0  0  0  0
M  END
> <PUBCHEM_COMPOUND_CID>
3697

> <PUBCHEM_COMPOUND_CANONICALIZED>
1

> <PUBCHEM_CACTVS_COMPLEXITY>
597

> <PUBCHEM_CACTVS_HBOND_ACCEPTOR>
8

> <PUBCHEM_CACTVS_HBOND_DONOR>
8

> <PUBCHEM_CACTVS_ROTATABLE_BOND>
4

> <PUBCHEM_CACTVS_SUBSKEYS>
AAADceBzuAIAAAAAAAAAAAAAAAAAAWLAAAAgAAAAAAAAAEABgAAAHgAQCCAADDzhngYtwJLJkxCoQxV3dICCgCE3ECAB2aGoVNiLcHrA3fGURYhn0APZyWf42eOeAAAAAAAAAAAAAAAAAAAAAAAAAAAAAA==

> <PUBCHEM_IUPAC_OPENEYE_NAME>
[5-(2-amino-4-oxo-1,5-dihydropyrrolo[3,2-d]pyrimidin-7-yl)-3,4-dihydroxy-pyrrolidin-2-yl]methyl dihydrogen phosphate

> <PUBCHEM_IUPAC_CAS_NAME>
[5-(2-amino-4-oxo-1,5-dihydropyrrolo[3,2-d]pyrimidin-7-yl)-3,4-dihydroxy-2-pyrrolidinyl]methyl dihydrogen phosphate

> <PUBCHEM_IUPAC_NAME>
[5-(2-amino-4-oxo-1,5-dihydropyrrolo[3,2-d]pyrimidin-7-yl)-3,4-dihydroxypyrrolidin-2-yl]methyl dihydrogen phosphate

> <PUBCHEM_IUPAC_SYSTEMATIC_NAME>
[5-(2-azanyl-4-oxidanylidene-1,5-dihydropyrrolo[3,2-d]pyrimidin-7-yl)-3,4-bis(oxidanyl)pyrrolidin-2-yl]methyl dihydrogen phosphate

> <PUBCHEM_IUPAC_TRADITIONAL_NAME>
[5-(2-amino-4-keto-1,5-dihydropyrrolo[3,2-d]pyrimidin-7-yl)-3,4-dihydroxy-pyrrolidin-2-yl]methyl dihydrogen phosphate

> <PUBCHEM_IUPAC_INCHI>
InChI=1S/C11H16N5O7P/c12-11-15-5-3(1-13-7(5)10(19)16-11)6-9(18)8(17)4(14-6)2-23-24(20,21)22/h1,4,6,8-9,13-14,17-18H,2H2,(H2,20,21,22)(H3,12,15,16,19)

> <PUBCHEM_IUPAC_INCHIKEY>
IQLBECLICFDTTF-UHFFFAOYSA-N

> <PUBCHEM_XLOGP3_AA>
-6.8

> <PUBCHEM_EXACT_MASS>
361.078735

> <PUBCHEM_MOLECULAR_FORMULA>
C11H16N5O7P

> <PUBCHEM_MOLECULAR_WEIGHT>
361.247802

> <PUBCHEM_OPENEYE_CAN_SMILES>
C1=C(C2=C(N1)C(=O)N=C(N2)N)C3C(C(C(N3)COP(=O)(O)O)O)O

> <PUBCHEM_OPENEYE_ISO_SMILES>
C1=C(C2=C(N1)C(=O)N=C(N2)N)C3C(C(C(N3)COP(=O)(O)O)O)O

> <PUBCHEM_CACTVS_TPSA>
203

> <PUBCHEM_MONOISOTOPIC_WEIGHT>
361.078735

> <PUBCHEM_TOTAL_CHARGE>
0

> <PUBCHEM_HEAVY_ATOM_COUNT>
24

> <PUBCHEM_ATOM_DEF_STEREO_COUNT>
0

> <PUBCHEM_ATOM_UDEF_STEREO_COUNT>
4

> <PUBCHEM_BOND_DEF_STEREO_COUNT>
0

> <PUBCHEM_BOND_UDEF_STEREO_COUNT>
0

> <PUBCHEM_ISOTOPIC_ATOM_COUNT>
0

> <PUBCHEM_COMPONENT_COUNT>
1

> <PUBCHEM_CACTVS_TAUTO_COUNT>
17

> <PUBCHEM_COORDINATE_TYPE>
1
5
255

> <PUBCHEM_BONDANNOTATIONS>
10  21  8
10  22  8
11  20  8
11  24  8
12  23  8
12  24  8
14  18  3
15  19  3
18  20  8
18  21  8
16  2  3
20  22  8
22  23  8
17  3  3

$$$$

