46173889
  -OEChem-07051213102D

 27 28  0     1  0  0  0  0  0999 V2000
    4.6650    0.2809    0.0000 O   0  0  0  0  0  0  0  0  0  0  0  0
    6.7528   -1.3942    0.0000 O   0  0  0  0  0  0  0  0  0  0  0  0
    2.0000   -1.7408    0.0000 O   0  0  0  0  0  0  0  0  0  0  0  0
    8.2528    1.2039    0.0000 O   0  0  0  0  0  0  0  0  0  0  0  0
    8.2528   -0.5281    0.0000 O   0  0  0  0  0  0  0  0  0  0  0  0
    3.7139   -1.0281    0.0000 N   0  0  0  0  0  0  0  0  0  0  0  0
    6.2528    1.2039    0.0000 N   0  0  0  0  0  0  0  0  0  0  0  0
    3.7139   -0.0281    0.0000 C   0  0  2  0  0  0  0  0  0  0  0  0
    5.2528   -0.5281    0.0000 C   0  0  2  0  0  0  0  0  0  0  0  0
    4.6650   -1.3372    0.0000 C   0  0  0  0  0  0  0  0  0  0  0  0
    2.7056   -0.0240    0.0000 C   0  0  0  0  0  0  0  0  0  0  0  0
    6.2528   -0.5281    0.0000 C   0  0  2  0  0  0  0  0  0  0  0  0
    2.7056   -1.0323    0.0000 C   0  0  0  0  0  0  0  0  0  0  0  0
    6.7528    0.3379    0.0000 C   0  0  1  0  0  0  0  0  0  0  0  0
    7.7528    0.3379    0.0000 C   0  0  0  0  0  0  0  0  0  0  0  0
    3.5827    0.8117    0.0000 H   0  0  0  0  0  0  0  0  0  0  0  0
    5.6387    0.2292    0.0000 H   0  0  0  0  0  0  0  0  0  0  0  0
    4.4128   -1.9036    0.0000 H   0  0  0  0  0  0  0  0  0  0  0  0
    5.2019   -1.6472    0.0000 H   0  0  0  0  0  0  0  0  0  0  0  0
    2.7074    0.5960    0.0000 H   0  0  0  0  0  0  0  0  0  0  0  0
    2.0856   -0.0231    0.0000 H   0  0  0  0  0  0  0  0  0  0  0  0
    6.8728   -0.5281    0.0000 H   0  0  0  0  0  0  0  0  0  0  0  0
    7.0628    0.8748    0.0000 H   0  0  0  0  0  0  0  0  0  0  0  0
    7.3728   -1.3942    0.0000 H   0  0  0  0  0  0  0  0  0  0  0  0
    6.5628    1.7408    0.0000 H   0  0  0  0  0  0  0  0  0  0  0  0
    5.6328    1.2039    0.0000 H   0  0  0  0  0  0  0  0  0  0  0  0
    8.8728    1.2039    0.0000 H   0  0  0  0  0  0  0  0  0  0  0  0
  1  8  1  0  0  0  0
  1  9  1  0  0  0  0
 12  2  1  6  0  0  0
  2 24  1  0  0  0  0
  3 13  2  0  0  0  0
  4 15  1  0  0  0  0
  4 27  1  0  0  0  0
  5 15  2  0  0  0  0
  6  8  1  0  0  0  0
  6 10  1  0  0  0  0
  6 13  1  0  0  0  0
 14  7  1  6  0  0  0
  7 25  1  0  0  0  0
  7 26  1  0  0  0  0
  8 11  1  0  0  0  0
  8 16  1  1  0  0  0
  9 10  1  0  0  0  0
  9 12  1  0  0  0  0
  9 17  1  6  0  0  0
 10 18  1  0  0  0  0
 10 19  1  0  0  0  0
 11 13  1  0  0  0  0
 11 20  1  0  0  0  0
 11 21  1  0  0  0  0
 12 14  1  0  0  0  0
 12 22  1  0  0  0  0
 14 15  1  0  0  0  0
 14 23  1  0  0  0  0
M  END
> <PUBCHEM_COMPOUND_CID>
46173889

> <PUBCHEM_COMPOUND_CANONICALIZED>
1

> <PUBCHEM_CACTVS_COMPLEXITY>
307

> <PUBCHEM_CACTVS_HBOND_ACCEPTOR>
6

> <PUBCHEM_CACTVS_HBOND_DONOR>
3

> <PUBCHEM_CACTVS_ROTATABLE_BOND>
3

> <PUBCHEM_CACTVS_SUBSKEYS>
AAADccBzOAAAAAAAAAAAAAAAAABYAWAAAAAAAAAABYAAAAAAAAAAHgAQCAAACDzhgAYACANABgAIAAGQGAAAAAAAAAAAAIGIAAADEB4AgAAPQAAHNgCTAADaEQIAAAAAAAAAAAAAAAAAAAAAAAAAAAAAAA==

> <PUBCHEM_IUPAC_OPENEYE_NAME>
(2S,3S)-2-amino-3-hydroxy-3-[(3R,5S)-7-oxo-4-oxa-1-azabicyclo[3.2.0]heptan-3-yl]propanoic acid

> <PUBCHEM_IUPAC_CAS_NAME>
(2S,3S)-2-amino-3-hydroxy-3-[(3R,5S)-7-oxo-4-oxa-1-azabicyclo[3.2.0]heptan-3-yl]propanoic acid

> <PUBCHEM_IUPAC_NAME>
(2S,3S)-2-amino-3-hydroxy-3-[(3R,5S)-7-oxo-4-oxa-1-azabicyclo[3.2.0]heptan-3-yl]propanoic acid

> <PUBCHEM_IUPAC_SYSTEMATIC_NAME>
(2S,3S)-2-azanyl-3-oxidanyl-3-[(3R,5S)-7-oxidanylidene-4-oxa-1-azabicyclo[3.2.0]heptan-3-yl]propanoic acid

> <PUBCHEM_IUPAC_TRADITIONAL_NAME>
(2S,3S)-2-amino-3-hydroxy-3-[(3R,5S)-7-keto-4-oxa-1-azabicyclo[3.2.0]heptan-3-yl]propionic acid

> <PUBCHEM_IUPAC_INCHI>
InChI=1S/C8H12N2O5/c9-6(8(13)14)7(12)3-2-10-4(11)1-5(10)15-3/h3,5-7,12H,1-2,9H2,(H,13,14)/t3-,5+,6+,7-/m1/s1

> <PUBCHEM_IUPAC_INCHIKEY>
QWBMUARUOXXBMI-RAZZTCBWSA-N

> <PUBCHEM_XLOGP3_AA>
-4.9

> <PUBCHEM_EXACT_MASS>
216.074621

> <PUBCHEM_MOLECULAR_FORMULA>
C8H12N2O5

> <PUBCHEM_MOLECULAR_WEIGHT>
216.19128

> <PUBCHEM_OPENEYE_CAN_SMILES>
C1C2N(C1=O)CC(O2)C(C(C(=O)O)N)O

> <PUBCHEM_OPENEYE_ISO_SMILES>
C1[C@H]2N(C1=O)C[C@@H](O2)[C@H]([C@@H](C(=O)O)N)O

> <PUBCHEM_CACTVS_TPSA>
113

> <PUBCHEM_MONOISOTOPIC_WEIGHT>
216.074621

> <PUBCHEM_TOTAL_CHARGE>
0

> <PUBCHEM_HEAVY_ATOM_COUNT>
15

> <PUBCHEM_ATOM_DEF_STEREO_COUNT>
4

> <PUBCHEM_ATOM_UDEF_STEREO_COUNT>
0

> <PUBCHEM_BOND_DEF_STEREO_COUNT>
0

> <PUBCHEM_BOND_UDEF_STEREO_COUNT>
0

> <PUBCHEM_ISOTOPIC_ATOM_COUNT>
0

> <PUBCHEM_COMPONENT_COUNT>
1

> <PUBCHEM_CACTVS_TAUTO_COUNT>
2

> <PUBCHEM_COORDINATE_TYPE>
1
5
255

> <PUBCHEM_BONDANNOTATIONS>
12  2  6
14  7  6
8  16  5
9  17  6

$$$$

