   Color/Form
        Colorless crystals
   from [1]HSDB

   Odor
        Odorless
   from [2]HSDB

   Melting Point
        160-161 deg C
   from [3]HSDB

   Density/Specific Gravity
        1.31 at 25 deg C
   from [4]HSDB

   Dissociation Constants
        pKa= 9.7 (decomp)
   from [5]HSDB

   Octanol/Water Partition Coefficient
        log Kow= 0.67 (pH 7); 0.59 (pH 5)
   from [6]HSDB

   Solubilities

     * Hexane: 1.85 g/l @ 20 deg C; toluene: 5.29 g/l @ 20 deg C;
       acetonitrile: 57 g/l @ 20 deg C; ethyl acetate: 28 g/l @ 20 deg C;
       n-octanol: 1.43 g/l @ 20 deg C; methanol: 22.9 g/l @ 20 deg C;
       acetone: 62.4 g/l @ 20 deg C; methylene chloride: 133.0 g/l @ 20
       deg C
     * In water, 890 mg/l @ 20 deg C

   from [7]HSDB

   Vapor Pressure
        1.1X10-6 mm Hg @ 20 deg C
   from [8]HSDB

   Computed Properties
   Molecular Weight                  198.1793 [g/mol]
   Molecular Formula                 C[7]H[10]N[4]O[3]
   XLogP3-AA                         0.7
   H-Bond Donor                      2
   H-Bond Acceptor                   5
   Rotatable Bond Count              3
   Tautomer Count                    5
   Exact Mass                        198.07529
   MonoIsotopic Mass                 198.07529
   Topological Polar Surface Area    104
   Heavy Atom Count                  14
   Formal Charge                     0
   Complexity                        301
   Isotope Atom Count                0
   Defined Atom Stereocenter Count   0
   Undefined Atom Stereocenter Count 0
   Defined Bond Stereocenter Count   1
   Undefined Bond Stereocenter Count 0
   Covalently-Bonded Unit Count      1
   Feature 3D Acceptor Count         4
   Feature 3D Donor Count            2
   Effective Rotor Count             6
   Conformer Sampling RMSD           0.6
   CID Conformer Count               [9]15

References

   1. http://toxnet.nlm.nih.gov/cgi-bin/sis/search/r?dbs+hsdb:@term+@rn+@rel+57966-95-7
   2. http://toxnet.nlm.nih.gov/cgi-bin/sis/search/r?dbs+hsdb:@term+@rn+@rel+57966-95-7
   3. http://toxnet.nlm.nih.gov/cgi-bin/sis/search/r?dbs+hsdb:@term+@rn+@rel+57966-95-7
   4. http://toxnet.nlm.nih.gov/cgi-bin/sis/search/r?dbs+hsdb:@term+@rn+@rel+57966-95-7
   5. http://toxnet.nlm.nih.gov/cgi-bin/sis/search/r?dbs+hsdb:@term+@rn+@rel+57966-95-7
   6. http://toxnet.nlm.nih.gov/cgi-bin/sis/search/r?dbs+hsdb:@term+@rn+@rel+57966-95-7
   7. http://toxnet.nlm.nih.gov/cgi-bin/sis/search/r?dbs+hsdb:@term+@rn+@rel+57966-95-7
   8. http://toxnet.nlm.nih.gov/cgi-bin/sis/search/r?dbs+hsdb:@term+@rn+@rel+57966-95-7
   9. http://pubchem.ncbi.nlm.nih.gov/vw3d/vw3d.cgi?cid=5364079
