   Chemical and Physical Properties References

   [1]USDA ARS - USDA chemical properties
   from [2]ChemIDplus

   Color/Form
        Brown crystals ... [Note: Technical product is a tan, waxy, isomer
   mixture].
   from [3]HSDB

   Odor

     * Similar to terpene.
     * ... Slight, sulfur dioxide odor ...

   from [4]HSDB

   Boiling Point
        106 deg C at 0.7 mm Hg (with partial decomposition)
   from [5]HSDB

   Melting Point
        106 deg C (pure)
   from [6]HSDB

   Corrosivity
        Corrosive to iron
   from [7]HSDB

   Density/Specific Gravity
        1.745 at 20 deg C
   from [8]HSDB

   Octanol/Water Partition Coefficient
        log Kow = 3.83 (alpha); log Kow = 3.62 (beta)
   from [9]HSDB

   pH
        pH 7.2 in tap water
   from [10]HSDB

   Solubilities

     * Sol in xylene, kerosene, chloroform, acetone, and alcohol
     * In ethyl acetate 200, dichloromethane 200, toluene 200, ethanol 65,
       hexane 24 (all in g/L, 20 deg C)
     * In water, alpha-form = 0.32:, beta-form = 0.33 mg/L at 22 deg C
     * In water, 0.53 mg/L at 25 deg C /alpha-endosulfan/; 0.28 mg/L at 25
       deg C /beta-endosulfan/

   from [11]HSDB

   Vapor Pressure
        1.73X10-7 at 25 deg C
   from [12]HSDB

   Other Chemical/Physical Properties

     * MP: 70-100 deg C; stable toward dil mineral acids; hydrolyzed
       rapidly by alkalies; commercial product is a mixture of
       alpha-isomer, MP: 108-110 deg C, and beta-isomer, MP: 208-210 deg C
       /Technical/
     * Decomp in presence of acids and alkalies to form sulfur dioxide;
       corrosive to iron; odor of hexachlorocyclopentadiene and may have
       slight sulfur dioxide odor, tan, semi-waxy solid /technical/
     * Hydrolyzes slowly on contact with water
     * Colorless crystals /alpha-isomer/
     * Solubility at 22 deg C and a pH 7.2 in tap water; alpha-Endosulfan:
       0.15 mg/l.
     * Solubility at 22 deg C and a pH 7.2 in tap water; beta-Endosulfan:
       0.06 mg/l.
     * VP: 6.2X10-6 mm Hg at 20 deg C
     * Henry's Law constant = 6.5X10-5 atm-cu m/mole at 20 deg C
     * Hydroxyl radical reaction rate constant = 8.2X10-12 cu cm/molec-sec
       at 25 deg C (est)

   from [13]HSDB

   Computed Properties
   Molecular Weight                  406.92514 [g/mol]
   Molecular Formula                 C[9]H[6]Cl[6]O[3]S
   XLogP3                            3.8
   H-Bond Donor                      0
   H-Bond Acceptor                   4
   Rotatable Bond Count              0
   Exact Mass                        405.813931
   MonoIsotopic Mass                 403.816881
   Topological Polar Surface Area    54.7
   Heavy Atom Count                  19
   Formal Charge                     0
   Complexity                        470
   Isotope Atom Count                0
   Defined Atom Stereocenter Count   0
   Undefined Atom Stereocenter Count 4
   Defined Bond Stereocenter Count   0
   Undefined Bond Stereocenter Count 0
   Covalently-Bonded Unit Count      1
   Feature 3D Acceptor Count         1
   Feature 3D Ring Count             2
   Effective Rotor Count             1
   Conformer Sampling RMSD           0.6
   CID Conformer Count               [14]6

References

   1. http://www.ars.usda.gov/SP2UserFiles/ad_hoc/12755100DatabaseFiles/PesticidePropertiesDatabase/IndividualPesticideFiles/ENDOSULFAN.TXT
   2. http://chem.sis.nlm.nih.gov/chemidplus/
   3. http://toxnet.nlm.nih.gov/cgi-bin/sis/search/r?dbs+hsdb:@term+@rn+@rel+115-29-7
   4. http://toxnet.nlm.nih.gov/cgi-bin/sis/search/r?dbs+hsdb:@term+@rn+@rel+115-29-7
   5. http://toxnet.nlm.nih.gov/cgi-bin/sis/search/r?dbs+hsdb:@term+@rn+@rel+115-29-7
   6. http://toxnet.nlm.nih.gov/cgi-bin/sis/search/r?dbs+hsdb:@term+@rn+@rel+115-29-7
   7. http://toxnet.nlm.nih.gov/cgi-bin/sis/search/r?dbs+hsdb:@term+@rn+@rel+115-29-7
   8. http://toxnet.nlm.nih.gov/cgi-bin/sis/search/r?dbs+hsdb:@term+@rn+@rel+115-29-7
   9. http://toxnet.nlm.nih.gov/cgi-bin/sis/search/r?dbs+hsdb:@term+@rn+@rel+115-29-7
  10. http://toxnet.nlm.nih.gov/cgi-bin/sis/search/r?dbs+hsdb:@term+@rn+@rel+115-29-7
  11. http://toxnet.nlm.nih.gov/cgi-bin/sis/search/r?dbs+hsdb:@term+@rn+@rel+115-29-7
  12. http://toxnet.nlm.nih.gov/cgi-bin/sis/search/r?dbs+hsdb:@term+@rn+@rel+115-29-7
  13. http://toxnet.nlm.nih.gov/cgi-bin/sis/search/r?dbs+hsdb:@term+@rn+@rel+115-29-7
  14. http://pubchem.ncbi.nlm.nih.gov/vw3d/vw3d.cgi?cid=3224
