   Color/Form

     * Crystals from dimethyl formamide/water
     * Colorless crystal needles

   from [1]HSDB

   Melting Point
        242.5 deg C
   from [2]HSDB

   Solubilities
        Soluble in water, dilute mineral acids and alkali hydroxide
   solutions. It is slightly soluble in methanol and ethanol and insoluble
   in petroleum ether and benzene.
   from [3]HSDB

   Other Chemical/Physical Properties

     * Domoic acid is an excitatory amino acid containing the structure of
       glutamic acid and resembling kainic acid. Three geometric isomers
       of domoic acid have been described; they are isodomoic acids D, E,
       and F. They have little biological activity compared to domoic
       acid.
     * MP: 217 deg C (dec). Specific optical rotation = -109.6 deg @ 12
       deg C/D. UV max 242 nm (log epsilon 4.24). pKa in water: 2.10,
       3.72, 4.93, 9.82. Soluble in water, acetic acid. Insoluble in
       methanol, ethanol, chloroform, acetone, benzene. /Dihydrate/

   from [4]HSDB

   Computed Properties
   Molecular Weight                  311.33034 [g/mol]
   Molecular Formula                 C[15]H[21]NO[6]
   XLogP3-AA                         -1.3
   H-Bond Donor                      4
   H-Bond Acceptor                   7
   Rotatable Bond Count              7
   Exact Mass                        311.136887
   MonoIsotopic Mass                 311.136887
   Topological Polar Surface Area    124
   Heavy Atom Count                  22
   Formal Charge                     0
   Complexity                        510
   Isotope Atom Count                0
   Defined Atom Stereocenter Count   4
   Undefined Atom Stereocenter Count 0
   Defined Bond Stereocenter Count   2
   Undefined Bond Stereocenter Count 0
   Covalently-Bonded Unit Count      1
   Feature 3D Acceptor Count         6
   Feature 3D Donor Count            1
   Feature 3D Anion Count            3
   Feature 3D Cation Count           1
   Feature 3D Hydrophobe Count       2
   Feature 3D Ring Count             1
   Effective Rotor Count             8
   Conformer Sampling RMSD           0.8
   CID Conformer Count               [5]59

References

   1. http://toxnet.nlm.nih.gov/cgi-bin/sis/search/r?dbs+hsdb:@term+@rn+@rel+14277-97-5
   2. http://toxnet.nlm.nih.gov/cgi-bin/sis/search/r?dbs+hsdb:@term+@rn+@rel+14277-97-5
   3. http://toxnet.nlm.nih.gov/cgi-bin/sis/search/r?dbs+hsdb:@term+@rn+@rel+14277-97-5
   4. http://toxnet.nlm.nih.gov/cgi-bin/sis/search/r?dbs+hsdb:@term+@rn+@rel+14277-97-5
   5. http://pubchem.ncbi.nlm.nih.gov/vw3d/vw3d.cgi?cid=5282253
