   Melting Point
        203 deg C (dec)
   from [1]HSDB

   Dissociation Constants
        pKa1 = 3.23 /carboxylic acid/; pKa2 = 7.73 /cyclic primary amine/;
   pKa3 = 11.0 /secondary amine/
   from [2]HSDB

   Octanol/Water Partition Coefficient
        log Kow = -5.75 (est)
   from [3]HSDB

   Solubilities
        In water, 1X10+6 mg/L at 25 deg C /Miscible/ (est)
   from [4]HSDB

   Vapor Pressure
        <1.3X10-4 mm Hg at 25 deg C [Watanabe T; Chemosphere 40: 79-90
   (2000)] [5]PubMed Abstract
   from [6]HSDB

   Other Chemical/Physical Properties

     * Hydroxyl radical reaction rate constant = 2.34X10-10 cu
       cm/molec-sec at 25 deg C (est)
     * Physicochemical properties of the technical grade compound
       (Kasugamycin hydrochloride hydrate).

       Parameter

   Value

   Molecular weight 433.8
   Melting point 202-230 deg C (dec)
   pH 4.35 at 24.5 deg C (1% wt/vol solution)
   Density 0.43 g/mL at 24.5 deg C
   Water solubility pH 5 - 20.7 g/100 ml; pH 7 - 22.8 g/100 ml; pH 9 -
   43.8 g/100 ml
   Solvent solubility Methanol 0.744 g/100 ml; hexane, acetonitrile,
   methylene chloride - &le; 1X10+5 g/100 ml
   pKa pKa1 = 3.23; pKa2 = 7.73; pKa3 = 11.0
   VP &le; 1.3X10-2 mPa at 25 deg C
   log Kow &le; 1.96 at 23 deg C and pH 5
   UV Not available

   from [7]HSDB

   Computed Properties
   Molecular Weight                  379.363 [g/mol]
   Molecular Formula                 C[14]H[25]N[3]O[9]
   XLogP3-AA                         -6.7
   H-Bond Donor                      8
   H-Bond Acceptor                   11
   Rotatable Bond Count              4
   Tautomer Count                    2
   Exact Mass                        379.159079
   MonoIsotopic Mass                 379.159079
   Topological Polar Surface Area    221
   Heavy Atom Count                  26
   Formal Charge                     0
   Complexity                        532
   Isotope Atom Count                0
   Defined Atom Stereocenter Count   8
   Undefined Atom Stereocenter Count 0
   Defined Bond Stereocenter Count   0
   Undefined Bond Stereocenter Count 0
   Covalently-Bonded Unit Count      1
   Feature 3D Acceptor Count         9
   Feature 3D Donor Count            7
   Feature 3D Anion Count            1
   Feature 3D Cation Count           2
   Feature 3D Ring Count             2
   Effective Rotor Count             6.4
   Conformer Sampling RMSD           0.8
   CID Conformer Count               [8]63

References

   1. http://toxnet.nlm.nih.gov/cgi-bin/sis/search/r?dbs+hsdb:@term+@rn+@rel+6980-18-3
   2. http://toxnet.nlm.nih.gov/cgi-bin/sis/search/r?dbs+hsdb:@term+@rn+@rel+6980-18-3
   3. http://toxnet.nlm.nih.gov/cgi-bin/sis/search/r?dbs+hsdb:@term+@rn+@rel+6980-18-3
   4. http://toxnet.nlm.nih.gov/cgi-bin/sis/search/r?dbs+hsdb:@term+@rn+@rel+6980-18-3
   5. http://www.ncbi.nlm.nih.gov/entrez/query.fcgi?cmd=Retrieve&db=pubmed&dopt=Abstract&list_uids=10665448
   6. http://toxnet.nlm.nih.gov/cgi-bin/sis/search/r?dbs+hsdb:@term+@rn+@rel+6980-18-3
   7. http://toxnet.nlm.nih.gov/cgi-bin/sis/search/r?dbs+hsdb:@term+@rn+@rel+6980-18-3
   8. http://pubchem.ncbi.nlm.nih.gov/vw3d/vw3d.cgi?cid=65174
