   Color/Form

     * White crystals from aqueous ethoxyethanol
     * Off-white prisms from 2-ethoxyethanol

   from [1]HSDB

   Melting Point
        214-217 deg C (7beta isomer, melts at 280 deg C)
   from [2]HSDB

   Octanol/Water Partition Coefficient
        log Kow = 2.80
   from [3]HSDB

   Solubilities
        In water, 110 mg/L at 25 deg C (est)
   from [4]HSDB

   Vapor Pressure
        3.26X10-12 mm Hg at 25 deg C (est)
   from [5]HSDB

   Other Chemical/Physical Properties

     * MP 266-267 deg C, (7beta-isomer hydrochloride, dec at 290 deg C )
       /Hydrochloride/
     * Acetorphne: Crystals from methanol, MP 195 deg C /3-Acetate/
     * MP 206 deg C /3-Acetate hydrochloride/
     * Henry's Law constant = 5.00X10-18 atm-cu cm/mol at 25 deg C (est)
     * Hydroxyl radical reaction rate constant = 3.15X10-10 cu
       cm/molec-sec at 25 deg C (est)

   from [6]HSDB

   Computed Properties
   Molecular Weight                  411.53382 [g/mol]
   Molecular Formula                 C[25]H[33]NO[4]
   XLogP3-AA                         3.1
   H-Bond Donor                      2
   H-Bond Acceptor                   5
   Rotatable Bond Count              4
   Tautomer Count                    2
   Exact Mass                        411.240959
   MonoIsotopic Mass                 411.240959
   Topological Polar Surface Area    62.2
   Heavy Atom Count                  30
   Formal Charge                     0
   Complexity                        772
   Isotope Atom Count                0
   Defined Atom Stereocenter Count   7
   Undefined Atom Stereocenter Count 0
   Defined Bond Stereocenter Count   0
   Undefined Bond Stereocenter Count 0
   Covalently-Bonded Unit Count      1
   Feature 3D Acceptor Count         3
   Feature 3D Donor Count            2
   Feature 3D Cation Count           1
   Feature 3D Hydrophobe Count       1
   Feature 3D Ring Count             5
   Effective Rotor Count             5.4
   Conformer Sampling RMSD           0.8
   CID Conformer Count               [7]3

References

   1. http://toxnet.nlm.nih.gov/cgi-bin/sis/search/r?dbs+hsdb:@term+@rn+@rel+14521-96-1
   2. http://toxnet.nlm.nih.gov/cgi-bin/sis/search/r?dbs+hsdb:@term+@rn+@rel+14521-96-1
   3. http://toxnet.nlm.nih.gov/cgi-bin/sis/search/r?dbs+hsdb:@term+@rn+@rel+14521-96-1
   4. http://toxnet.nlm.nih.gov/cgi-bin/sis/search/r?dbs+hsdb:@term+@rn+@rel+14521-96-1
   5. http://toxnet.nlm.nih.gov/cgi-bin/sis/search/r?dbs+hsdb:@term+@rn+@rel+14521-96-1
   6. http://toxnet.nlm.nih.gov/cgi-bin/sis/search/r?dbs+hsdb:@term+@rn+@rel+14521-96-1
   7. http://pubchem.ncbi.nlm.nih.gov/vw3d/vw3d.cgi?cid=443407
