9543351
  -OEChem-07051213112D

 36 39  0     0  0  0  0  0  0999 V2000
    5.4248    1.9080    0.0000 O   0  0  0  0  0  0  0  0  0  0  0  0
    4.5375    2.1622    0.0000 O   0  0  0  0  0  0  0  0  0  0  0  0
    2.2164    3.4321    0.0000 O   0  0  0  0  0  0  0  0  0  0  0  0
    3.8395    4.0365    0.0000 O   0  0  0  0  0  0  0  0  0  0  0  0
    5.1166   -1.0374    0.0000 C   0  0  0  0  0  0  0  0  0  0  0  0
    5.1166   -2.0374    0.0000 C   0  0  0  0  0  0  0  0  0  0  0  0
    4.2506   -0.5374    0.0000 C   0  0  0  0  0  0  0  0  0  0  0  0
    6.0105   -0.5027    0.0000 C   0  0  0  0  0  0  0  0  0  0  0  0
    4.2506   -2.5374    0.0000 C   0  0  0  0  0  0  0  0  0  0  0  0
    6.0105   -2.5720    0.0000 C   0  0  0  0  0  0  0  0  0  0  0  0
    4.2493    0.4543    0.0000 C   0  0  0  0  0  0  0  0  0  0  0  0
    3.3845   -1.0374    0.0000 C   0  0  0  0  0  0  0  0  0  0  0  0
    6.9166   -1.0166    0.0000 C   0  0  0  0  0  0  0  0  0  0  0  0
    3.3845   -2.0374    0.0000 C   0  0  0  0  0  0  0  0  0  0  0  0
    5.9727    0.4883    0.0000 C   0  0  0  0  0  0  0  0  0  0  0  0
    6.9166   -2.0582    0.0000 C   0  0  0  0  0  0  0  0  0  0  0  0
    5.1014    0.9618    0.0000 C   0  0  0  0  0  0  0  0  0  0  0  0
    4.2493   -3.5291    0.0000 C   0  0  0  0  0  0  0  0  0  0  0  0
    5.9727   -3.5630    0.0000 C   0  0  0  0  0  0  0  0  0  0  0  0
    5.1014   -4.0365    0.0000 C   0  0  0  0  0  0  0  0  0  0  0  0
    3.2633    0.6207    0.0000 C   0  0  0  0  0  0  0  0  0  0  0  0
    2.9143    1.5578    0.0000 C   0  0  0  0  0  0  0  0  0  0  0  0
    3.5514    2.3286    0.0000 C   0  0  0  0  0  0  0  0  0  0  0  0
    3.2024    3.2657    0.0000 C   0  0  0  0  0  0  0  0  0  0  0  0
    2.8476   -0.7274    0.0000 H   0  0  0  0  0  0  0  0  0  0  0  0
    7.4523   -0.7045    0.0000 H   0  0  0  0  0  0  0  0  0  0  0  0
    2.8476   -2.3474    0.0000 H   0  0  0  0  0  0  0  0  0  0  0  0
    6.4995    0.8153    0.0000 H   0  0  0  0  0  0  0  0  0  0  0  0
    7.4523   -2.3703    0.0000 H   0  0  0  0  0  0  0  0  0  0  0  0
    3.7101   -3.8351    0.0000 H   0  0  0  0  0  0  0  0  0  0  0  0
    6.4995   -3.8900    0.0000 H   0  0  0  0  0  0  0  0  0  0  0  0
    5.0892   -4.6564    0.0000 H   0  0  0  0  0  0  0  0  0  0  0  0
    2.8683    0.1428    0.0000 H   0  0  0  0  0  0  0  0  0  0  0  0
    6.0332    2.0277    0.0000 H   0  0  0  0  0  0  0  0  0  0  0  0
    2.3029    1.6610    0.0000 H   0  0  0  0  0  0  0  0  0  0  0  0
    2.0000    4.0131    0.0000 H   0  0  0  0  0  0  0  0  0  0  0  0
  1 17  1  0  0  0  0
  1 34  1  0  0  0  0
  2 23  2  0  0  0  0
  3 24  1  0  0  0  0
  3 36  1  0  0  0  0
  4 24  2  0  0  0  0
  5  6  1  0  0  0  0
  5  7  2  0  0  0  0
  5  8  1  0  0  0  0
  6  9  1  0  0  0  0
  6 10  2  0  0  0  0
  7 11  1  0  0  0  0
  7 12  1  0  0  0  0
  8 13  1  0  0  0  0
  8 15  2  0  0  0  0
  9 14  1  0  0  0  0
  9 18  2  0  0  0  0
 10 16  1  0  0  0  0
 10 19  1  0  0  0  0
 11 17  2  0  0  0  0
 11 21  1  0  0  0  0
 12 14  2  0  0  0  0
 12 25  1  0  0  0  0
 13 16  2  0  0  0  0
 13 26  1  0  0  0  0
 14 27  1  0  0  0  0
 15 17  1  0  0  0  0
 15 28  1  0  0  0  0
 16 29  1  0  0  0  0
 18 20  1  0  0  0  0
 18 30  1  0  0  0  0
 19 20  2  0  0  0  0
 19 31  1  0  0  0  0
 20 32  1  0  0  0  0
 21 22  2  0  0  0  0
 21 33  1  0  0  0  0
 22 23  1  0  0  0  0
 22 35  1  0  0  0  0
 23 24  1  0  0  0  0
M  END
> <PUBCHEM_COMPOUND_CID>
9543351

> <PUBCHEM_COMPOUND_CANONICALIZED>
1

> <PUBCHEM_CACTVS_COMPLEXITY>
554

> <PUBCHEM_CACTVS_HBOND_ACCEPTOR>
4

> <PUBCHEM_CACTVS_HBOND_DONOR>
2

> <PUBCHEM_CACTVS_ROTATABLE_BOND>
3

> <PUBCHEM_CACTVS_SUBSKEYS>
AAADccB4OAAAAAAAAAAAAAAAAAAAAAAAAAAwYMGAAAAAAADBVAAAGgAACAAADASAmAAwDsAAAgCIAqDSCAICAAAgIAAIiAFGCMgIJiKCERKAcAAkwBEImYeAwPAO4AADAAAYAADAAAYAADAAAAAAAAAAAA==

> <PUBCHEM_IUPAC_OPENEYE_NAME>
(Z)-4-(2-hydroxypyren-1-yl)-2-oxo-but-3-enoic acid

> <PUBCHEM_IUPAC_CAS_NAME>
(Z)-4-(2-hydroxy-1-pyrenyl)-2-oxo-3-butenoic acid

> <PUBCHEM_IUPAC_NAME>
(Z)-4-(2-hydroxypyren-1-yl)-2-oxobut-3-enoic acid

> <PUBCHEM_IUPAC_SYSTEMATIC_NAME>
(Z)-2-oxidanylidene-4-(2-oxidanylpyren-1-yl)but-3-enoic acid

> <PUBCHEM_IUPAC_TRADITIONAL_NAME>
(Z)-4-(2-hydroxypyren-1-yl)-2-keto-but-3-enoic acid

> <PUBCHEM_IUPAC_INCHI>
InChI=1S/C20H12O4/c21-16(20(23)24)9-8-14-15-7-6-12-3-1-2-11-4-5-13(10-17(14)22)19(15)18(11)12/h1-10,22H,(H,23,24)/b9-8-

> <PUBCHEM_IUPAC_INCHIKEY>
XDSTVDYTLSEQEM-HJWRWDBZSA-N

> <PUBCHEM_XLOGP3_AA>
4.5

> <PUBCHEM_EXACT_MASS>
316.073559

> <PUBCHEM_MOLECULAR_FORMULA>
C20H12O4

> <PUBCHEM_MOLECULAR_WEIGHT>
316.30688

> <PUBCHEM_OPENEYE_CAN_SMILES>
C1=CC2=C3C(=C1)C=CC4=C3C(=CC(=C4C=CC(=O)C(=O)O)O)C=C2

> <PUBCHEM_OPENEYE_ISO_SMILES>
C1=CC2=C3C(=C1)C=CC4=C3C(=CC(=C4/C=C\C(=O)C(=O)O)O)C=C2

> <PUBCHEM_CACTVS_TPSA>
74.6

> <PUBCHEM_MONOISOTOPIC_WEIGHT>
316.073559

> <PUBCHEM_TOTAL_CHARGE>
0

> <PUBCHEM_HEAVY_ATOM_COUNT>
24

> <PUBCHEM_ATOM_DEF_STEREO_COUNT>
0

> <PUBCHEM_ATOM_UDEF_STEREO_COUNT>
0

> <PUBCHEM_BOND_DEF_STEREO_COUNT>
1

> <PUBCHEM_BOND_UDEF_STEREO_COUNT>
0

> <PUBCHEM_ISOTOPIC_ATOM_COUNT>
0

> <PUBCHEM_COMPONENT_COUNT>
1

> <PUBCHEM_CACTVS_TAUTO_COUNT>
5

> <PUBCHEM_COORDINATE_TYPE>
1
5
255

> <PUBCHEM_BONDANNOTATIONS>
10  16  8
10  19  8
11  17  8
12  14  8
13  16  8
15  17  8
18  20  8
19  20  8
5  6  8
5  7  8
5  8  8
6  10  8
6  9  8
7  11  8
7  12  8
8  13  8
8  15  8
9  14  8
9  18  8

$$$$

