656853
  -OEChem-07051213042D

 94 99  0     1  0  0  0  0  0999 V2000
   10.9962    6.2152    0.0000 S   0  0  0  0  0  0  0  0  0  0  0  0
    1.5769    8.2601    0.0000 O   0  0  0  0  0  0  0  0  0  0  0  0
    0.9805    9.2715    0.0000 O   0  0  0  0  0  0  0  0  0  0  0  0
    4.0926    7.6933    0.0000 O   0  0  0  0  0  0  0  0  0  0  0  0
    3.7294   11.6047    0.0000 O   0  0  0  0  0  0  0  0  0  0  0  0
    1.9619    5.2310    0.0000 O   0  0  0  0  0  0  0  0  0  0  0  0
   11.8623    6.7152    0.0000 O   0  0  0  0  0  0  0  0  0  0  0  0
   10.4962    7.0813    0.0000 O   0  0  0  0  0  0  0  0  0  0  0  0
   11.4962    5.3492    0.0000 O   0  0  0  0  0  0  0  0  0  0  0  0
    2.9703    9.0702    0.0000 N   0  0  0  0  0  0  0  0  0  0  0  0
    2.1498   10.8941    0.0000 N   0  0  0  0  0  0  0  0  0  0  0  0
    2.8222    6.7344    0.0000 N   0  0  0  0  0  0  0  0  0  0  0  0
    5.4941    5.2308    0.0000 N   0  0  3  0  0  0  0  0  0  0  0  0
    6.4821    1.0406    0.0000 N   0  0  0  0  0  0  0  0  0  0  0  0
    1.5652   10.0828    0.0000 C   0  0  2  0  0  0  0  0  0  0  0  0
    1.9754    9.1708    0.0000 C   0  0  2  0  0  0  0  0  0  0  0  0
    3.5550    9.8814    0.0000 C   0  0  2  0  0  0  0  0  0  0  0  0
    2.3188    7.5984    0.0000 C   0  0  1  0  0  0  0  0  0  0  0  0
    0.6193   10.3888    0.0000 C   0  0  0  0  0  0  0  0  0  0  0  0
    1.5603   11.6945    0.0000 C   0  0  0  0  0  0  0  0  0  0  0  0
    3.1782    8.0980    0.0000 C   0  0  0  0  0  0  0  0  0  0  0  0
    0.6164   11.3829    0.0000 C   0  0  0  0  0  0  0  0  0  0  0  0
    3.1447   10.7934    0.0000 C   0  0  0  0  0  0  0  0  0  0  0  0
    4.5499    9.7807    0.0000 C   0  0  2  0  0  0  0  0  0  0  0  0
    4.6120    3.6893    0.0000 C   0  0  2  0  0  0  0  0  0  0  0  0
    5.4780    4.1893    0.0000 C   0  0  1  0  0  0  0  0  0  0  0  0
    1.6526    6.8528    0.0000 C   0  0  0  0  0  0  0  0  0  0  0  0
    3.6940    5.2377    0.0000 C   0  0  2  0  0  0  0  0  0  0  0  0
    3.7020    4.1961    0.0000 C   0  0  0  0  0  0  0  0  0  0  0  0
    4.5960    5.7585    0.0000 C   0  0  0  0  0  0  0  0  0  0  0  0
    6.3440    3.6893    0.0000 C   0  0  0  0  0  0  0  0  0  0  0  0
    2.8260    5.7344    0.0000 C   0  0  0  0  0  0  0  0  0  0  0  0
    4.6120    2.6893    0.0000 C   0  0  0  0  0  0  0  0  0  0  0  0
    5.1346   10.5920    0.0000 C   0  0  0  0  0  0  0  0  0  0  0  0
    5.4780    2.1893    0.0000 C   0  0  0  0  0  0  0  0  0  0  0  0
    6.3440    2.6893    0.0000 C   0  0  0  0  0  0  0  0  0  0  0  0
    4.9602    8.8688    0.0000 C   0  0  0  0  0  0  0  0  0  0  0  0
    0.6736    7.0569    0.0000 C   0  0  0  0  0  0  0  0  0  0  0  0
    1.9653    5.9028    0.0000 C   0  0  0  0  0  0  0  0  0  0  0  0
    6.3658    5.7207    0.0000 C   0  0  0  0  0  0  0  0  0  0  0  0
    5.4941    1.1478    0.0000 C   0  0  0  0  0  0  0  0  0  0  0  0
    3.7020    2.1824    0.0000 C   0  0  0  0  0  0  0  0  0  0  0  0
    6.1295   10.4913    0.0000 C   0  0  0  0  0  0  0  0  0  0  0  0
    6.9620    1.9109    0.0000 C   0  0  0  0  0  0  0  0  0  0  0  0
    4.5960    0.6200    0.0000 C   0  0  0  0  0  0  0  0  0  0  0  0
    3.6940    1.1408    0.0000 C   0  0  0  0  0  0  0  0  0  0  0  0
   10.1302    5.7152    0.0000 C   0  0  0  0  0  0  0  0  0  0  0  0
    0.9980    9.4497    0.0000 H   0  0  0  0  0  0  0  0  0  0  0  0
    4.0520   10.5710    0.0000 H   0  0  0  0  0  0  0  0  0  0  0  0
    0.0026   10.4521    0.0000 H   0  0  0  0  0  0  0  0  0  0  0  0
    0.4915    9.7821    0.0000 H   0  0  0  0  0  0  0  0  0  0  0  0
    2.0954   12.0077    0.0000 H   0  0  0  0  0  0  0  0  0  0  0  0
    1.3052   12.2596    0.0000 H   0  0  0  0  0  0  0  0  0  0  0  0
    0.4850   11.9888    0.0000 H   0  0  0  0  0  0  0  0  0  0  0  0
    0.0000   11.3159    0.0000 H   0  0  0  0  0  0  0  0  0  0  0  0
    5.1668    9.7183    0.0000 H   0  0  0  0  0  0  0  0  0  0  0  0
    3.8792    3.2586    0.0000 H   0  0  0  0  0  0  0  0  0  0  0  0
    6.2174    4.6086    0.0000 H   0  0  0  0  0  0  0  0  0  0  0  0
    1.4587    7.4417    0.0000 H   0  0  0  0  0  0  0  0  0  0  0  0
    3.1588    4.9246    0.0000 H   0  0  0  0  0  0  0  0  0  0  0  0
    3.0903    4.2975    0.0000 H   0  0  0  0  0  0  0  0  0  0  0  0
    3.4974    3.6108    0.0000 H   0  0  0  0  0  0  0  0  0  0  0  0
    3.3579    7.0464    0.0000 H   0  0  0  0  0  0  0  0  0  0  0  0
    4.9970    6.2314    0.0000 H   0  0  0  0  0  0  0  0  0  0  0  0
    4.1987    6.2345    0.0000 H   0  0  0  0  0  0  0  0  0  0  0  0
    6.9546    3.5816    0.0000 H   0  0  0  0  0  0  0  0  0  0  0  0
    6.5561    4.2719    0.0000 H   0  0  0  0  0  0  0  0  0  0  0  0
    0.6180    8.7686    0.0000 H   0  0  0  0  0  0  0  0  0  0  0  0
    5.3032   11.1886    0.0000 H   0  0  0  0  0  0  0  0  0  0  0  0
    4.5763   10.8616    0.0000 H   0  0  0  0  0  0  0  0  0  0  0  0
    4.3947    8.6144    0.0000 H   0  0  0  0  0  0  0  0  0  0  0  0
    5.2145    8.3033    0.0000 H   0  0  0  0  0  0  0  0  0  0  0  0
    5.5256    9.1231    0.0000 H   0  0  0  0  0  0  0  0  0  0  0  0
    0.8002    7.6639    0.0000 H   0  0  0  0  0  0  0  0  0  0  0  0
    0.0667    7.1835    0.0000 H   0  0  0  0  0  0  0  0  0  0  0  0
    0.5471    6.4500    0.0000 H   0  0  0  0  0  0  0  0  0  0  0  0
    1.3764    5.7090    0.0000 H   0  0  0  0  0  0  0  0  0  0  0  0
    2.1592    5.3139    0.0000 H   0  0  0  0  0  0  0  0  0  0  0  0
    2.5542    6.0967    0.0000 H   0  0  0  0  0  0  0  0  0  0  0  0
    6.6696    5.1802    0.0000 H   0  0  0  0  0  0  0  0  0  0  0  0
    6.9063    6.0245    0.0000 H   0  0  0  0  0  0  0  0  0  0  0  0
    6.0620    6.2612    0.0000 H   0  0  0  0  0  0  0  0  0  0  0  0
    3.1687    2.4986    0.0000 H   0  0  0  0  0  0  0  0  0  0  0  0
    7.5798    1.9626    0.0000 H   0  0  0  0  0  0  0  0  0  0  0  0
    6.0670    9.8745    0.0000 H   0  0  0  0  0  0  0  0  0  0  0  0
    6.7463   10.4289    0.0000 H   0  0  0  0  0  0  0  0  0  0  0  0
    6.1919   11.1082    0.0000 H   0  0  0  0  0  0  0  0  0  0  0  0
    6.7681    0.4905    0.0000 H   0  0  0  0  0  0  0  0  0  0  0  0
    4.5984    0.0000    0.0000 H   0  0  0  0  0  0  0  0  0  0  0  0
    3.1558    0.8329    0.0000 H   0  0  0  0  0  0  0  0  0  0  0  0
    9.8202    6.2522    0.0000 H   0  0  0  0  0  0  0  0  0  0  0  0
    9.5933    5.4052    0.0000 H   0  0  0  0  0  0  0  0  0  0  0  0
   10.4402    5.1783    0.0000 H   0  0  0  0  0  0  0  0  0  0  0  0
   12.3992    6.4052    0.0000 H   0  0  0  0  0  0  0  0  0  0  0  0
  1  7  1  0  0  0  0
  1  8  2  0  0  0  0
  1  9  2  0  0  0  0
  1 47  1  0  0  0  0
  2 16  1  0  0  0  0
  2 18  1  0  0  0  0
 16  3  1  6  0  0  0
  3 68  1  0  0  0  0
  4 21  2  0  0  0  0
  5 23  2  0  0  0  0
  6 32  2  0  0  0  0
  7 94  1  0  0  0  0
 10 16  1  0  0  0  0
 10 17  1  0  0  0  0
 10 21  1  0  0  0  0
 11 15  1  0  0  0  0
 11 20  1  0  0  0  0
 11 23  1  0  0  0  0
 18 12  1  6  0  0  0
 12 32  1  0  0  0  0
 12 63  1  0  0  0  0
 13 26  1  0  0  0  0
 13 30  1  0  0  0  0
 13 40  1  0  0  0  0
 14 41  1  0  0  0  0
 14 44  1  0  0  0  0
 14 88  1  0  0  0  0
 15 16  1  0  0  0  0
 15 19  1  0  0  0  0
 15 48  1  1  0  0  0
 17 23  1  0  0  0  0
 17 24  1  0  0  0  0
 17 49  1  1  0  0  0
 18 21  1  0  0  0  0
 18 27  1  0  0  0  0
 19 22  1  0  0  0  0
 19 50  1  0  0  0  0
 19 51  1  0  0  0  0
 20 22  1  0  0  0  0
 20 52  1  0  0  0  0
 20 53  1  0  0  0  0
 22 54  1  0  0  0  0
 22 55  1  0  0  0  0
 24 34  1  0  0  0  0
 24 37  1  6  0  0  0
 24 56  1  0  0  0  0
 25 26  1  0  0  0  0
 25 29  1  0  0  0  0
 25 33  1  0  0  0  0
 25 57  1  6  0  0  0
 26 31  1  0  0  0  0
 26 58  1  1  0  0  0
 27 38  1  0  0  0  0
 27 39  1  0  0  0  0
 27 59  1  0  0  0  0
 28 29  1  0  0  0  0
 28 30  1  0  0  0  0
 28 32  1  1  0  0  0
 28 60  1  0  0  0  0
 29 61  1  0  0  0  0
 29 62  1  0  0  0  0
 30 64  1  0  0  0  0
 30 65  1  0  0  0  0
 31 36  1  0  0  0  0
 31 66  1  0  0  0  0
 31 67  1  0  0  0  0
 33 35  2  0  0  0  0
 33 42  1  0  0  0  0
 34 43  1  0  0  0  0
 34 69  1  0  0  0  0
 34 70  1  0  0  0  0
 35 36  1  0  0  0  0
 35 41  1  0  0  0  0
 36 44  2  0  0  0  0
 37 71  1  0  0  0  0
 37 72  1  0  0  0  0
 37 73  1  0  0  0  0
 38 74  1  0  0  0  0
 38 75  1  0  0  0  0
 38 76  1  0  0  0  0
 39 77  1  0  0  0  0
 39 78  1  0  0  0  0
 39 79  1  0  0  0  0
 40 80  1  0  0  0  0
 40 81  1  0  0  0  0
 40 82  1  0  0  0  0
 41 45  2  0  0  0  0
 42 46  2  0  0  0  0
 42 83  1  0  0  0  0
 43 85  1  0  0  0  0
 43 86  1  0  0  0  0
 43 87  1  0  0  0  0
 44 84  1  0  0  0  0
 45 46  1  0  0  0  0
 45 89  1  0  0  0  0
 46 90  1  0  0  0  0
 47 91  1  0  0  0  0
 47 92  1  0  0  0  0
 47 93  1  0  0  0  0
M  END
> <PUBCHEM_COMPOUND_CID>
656853

> <PUBCHEM_COMPOUND_CANONICALIZED>
1

> <PUBCHEM_CACTVS_COMPLEXITY>
1230

> <PUBCHEM_CACTVS_HBOND_ACCEPTOR>
9

> <PUBCHEM_CACTVS_HBOND_DONOR>
4

> <PUBCHEM_CACTVS_ROTATABLE_BOND>
5

> <PUBCHEM_CACTVS_SUBSKEYS>
AAADcfB/vABAAAAAAAAAAAAAAAAAAWLFgAA8eIEAAAAAAFjx8AAAHgQQCAAADSzBngS+yPPJloKoAzV3VHKCgCAxAiAI2aH4ZJkaYPrA0bWfYAhklgDcyAeYmcKegAAAQAASAACQAASAACQAAAAAAAAAAA==

> <PUBCHEM_IUPAC_INCHI>
InChI=1S/C32H43N5O5.CH4O3S/c1-6-18(4)27-29(39)36-12-8-11-25(36)32(41)37(27)30(40)31(42-32,17(2)3)34-28(38)20-13-22-21-9-7-10-23-26(21)19(15-33-23)14-24(22)35(5)16-20;1-5(2,3)4/h7,9-10,15,17-18,20,22,24-25,27,33,41H,6,8,11-14,16H2,1-5H3,(H,34,38);1H3,(H,2,3,4)/t18-,20+,22+,24+,25-,27-,31+,32-;/m0./s1

> <PUBCHEM_IUPAC_INCHIKEY>
YKEUOHBRJUALFI-ILSKZLILSA-N

> <PUBCHEM_EXACT_MASS>
673.314534

> <PUBCHEM_MOLECULAR_FORMULA>
C33H47N5O8S

> <PUBCHEM_MOLECULAR_WEIGHT>
673.81998

> <PUBCHEM_OPENEYE_CAN_SMILES>
CCC(C)C1C(=O)N2CCCC2C3(N1C(=O)C(O3)(C(C)C)NC(=O)C4CC5C(CC6=CNC7=CC=CC5=C67)N(C4)C)O.CS(=O)(=O)O

> <PUBCHEM_OPENEYE_ISO_SMILES>
CC[C@H](C)[C@H]1C(=O)N2CCC[C@H]2[C@]3(N1C(=O)[C@](O3)(C(C)C)NC(=O)[C@@H]4C[C@H]5[C@@H](CC6=CNC7=CC=CC5=C67)N(C4)C)O.CS(=O)(=O)O

> <PUBCHEM_CACTVS_TPSA>
181

> <PUBCHEM_MONOISOTOPIC_WEIGHT>
673.314534

> <PUBCHEM_TOTAL_CHARGE>
0

> <PUBCHEM_HEAVY_ATOM_COUNT>
47

> <PUBCHEM_ATOM_DEF_STEREO_COUNT>
8

> <PUBCHEM_ATOM_UDEF_STEREO_COUNT>
0

> <PUBCHEM_BOND_DEF_STEREO_COUNT>
0

> <PUBCHEM_BOND_UDEF_STEREO_COUNT>
0

> <PUBCHEM_ISOTOPIC_ATOM_COUNT>
0

> <PUBCHEM_COMPONENT_COUNT>
2

> <PUBCHEM_CACTVS_TAUTO_COUNT>
4

> <PUBCHEM_COORDINATE_TYPE>
1
5
255

> <PUBCHEM_BONDANNOTATIONS>
18  12  6
14  41  8
14  44  8
15  48  5
17  49  5
24  37  6
25  57  6
26  58  5
28  32  5
16  3  6
33  35  8
33  42  8
35  36  8
35  41  8
36  44  8
41  45  8
42  46  8
45  46  8

$$$$

