   Color/Form

     * Crystals
     * WHITE, CRYSTALLINE POWDER

   from [1]HSDB

   Odor
        ESSENTIALLY ODORLESS
   from [2]HSDB

   Taste
        HAS BITTER TASTE
   from [3]HSDB

   Melting Point
        87.5-88.8 deg C
   from [4]HSDB

   Dissociation Constants
        pKa2 = 9.49 (est)
   from [5]HSDB

   Octanol/Water Partition Coefficient
        log Kow = -0.41 (est)
   from [6]HSDB

   Solubilities
        Soluble in chloroform, methylene chloride; less soluble in
   benzene; sparingly soluble in water
   from [7]HSDB

   Spectral Properties
        Specific optical rotation: +13.7 deg at 25 deg C/D ( c = 2 in
   water)
   from [8]HSDB

   Vapor Pressure
        1.82X10-6 mm Hg at 25 deg C (est)
   from [9]HSDB

   Other Chemical/Physical Properties

     * Henry's Law constant = 3.65X10-13 atm-cu m/mol at 25 deg C (est)
     * Hydroxyl radical reaction rate constant = 2.13X10-10 cu
       cm/molec-sec at 25 deg C (est)
     * MP: 198.5-200.3 deg C; also reported as mp 201.8-202.6 deg C.
       Specific optical rotation: +7.6 deg at 20 deg C/D ( c = 2 in
       water). Soluble in water, DMSO; sparingly soluble in ethanol;
       difficultly soluble in acetone, chloroform. /Dichloride/
     * White powder, crystalizes as needles, mp 121-122 deg C (dec).
       Soluble in water, methanol, N,N-dimethylformamide. Insoluble in
       ethanol, ethyl ether, chlorofor,. UV max: 265 nm. Specific optical
       rotation: +3 deg at 20 deg C/D ( c = 5% in water). /Mixture with
       isoniazid methane sulfonate/

   from [10]HSDB

   Computed Properties
   Molecular Weight                  204.30976 [g/mol]
   Molecular Formula                 C[10]H[24]N[2]O[2]
   XLogP3-AA                         -0.1
   H-Bond Donor                      4
   H-Bond Acceptor                   4
   Rotatable Bond Count              9
   Exact Mass                        204.183778
   MonoIsotopic Mass                 204.183778
   Topological Polar Surface Area    64.5
   Heavy Atom Count                  14
   Formal Charge                     0
   Complexity                        109
   Isotope Atom Count                0
   Defined Atom Stereocenter Count   2
   Undefined Atom Stereocenter Count 0
   Defined Bond Stereocenter Count   0
   Undefined Bond Stereocenter Count 0
   Covalently-Bonded Unit Count      1
   Feature 3D Acceptor Count         2
   Feature 3D Donor Count            4
   Feature 3D Cation Count           2
   Feature 3D Hydrophobe Count       2
   Effective Rotor Count             9
   Conformer Sampling RMSD           0.8
   CID Conformer Count               [11]98

References

   1. http://toxnet.nlm.nih.gov/cgi-bin/sis/search/r?dbs+hsdb:@term+@rn+@rel+74-55-5
   2. http://toxnet.nlm.nih.gov/cgi-bin/sis/search/r?dbs+hsdb:@term+@rn+@rel+74-55-5
   3. http://toxnet.nlm.nih.gov/cgi-bin/sis/search/r?dbs+hsdb:@term+@rn+@rel+74-55-5
   4. http://toxnet.nlm.nih.gov/cgi-bin/sis/search/r?dbs+hsdb:@term+@rn+@rel+74-55-5
   5. http://toxnet.nlm.nih.gov/cgi-bin/sis/search/r?dbs+hsdb:@term+@rn+@rel+74-55-5
   6. http://toxnet.nlm.nih.gov/cgi-bin/sis/search/r?dbs+hsdb:@term+@rn+@rel+74-55-5
   7. http://toxnet.nlm.nih.gov/cgi-bin/sis/search/r?dbs+hsdb:@term+@rn+@rel+74-55-5
   8. http://toxnet.nlm.nih.gov/cgi-bin/sis/search/r?dbs+hsdb:@term+@rn+@rel+74-55-5
   9. http://toxnet.nlm.nih.gov/cgi-bin/sis/search/r?dbs+hsdb:@term+@rn+@rel+74-55-5
  10. http://toxnet.nlm.nih.gov/cgi-bin/sis/search/r?dbs+hsdb:@term+@rn+@rel+74-55-5
  11. http://pubchem.ncbi.nlm.nih.gov/vw3d/vw3d.cgi?cid=14052
