582876
  -OEChem-06241222442D

140143  0     1  0  0  0  0  0999 V2000
    7.3892    1.9870    0.0000 Si  0  0  0  0  0  0  0  0  0  0  0  0
    9.1546   -4.0444    0.0000 Si  0  0  0  0  0  0  0  0  0  0  0  0
    2.8641   -2.5620    0.0000 Si  0  0  0  0  0  0  0  0  0  0  0  0
   11.3101    4.0938    0.0000 Si  0  0  0  0  0  0  0  0  0  0  0  0
   14.9600    1.3228    0.0000 Si  0  0  0  0  0  0  0  0  0  0  0  0
    8.2552    1.4870    0.0000 O   0  0  0  0  0  0  0  0  0  0  0  0
    9.1430   -3.0445    0.0000 O   0  0  0  0  0  0  0  0  0  0  0  0
    3.7282   -3.0653    0.0000 O   0  0  0  0  0  0  0  0  0  0  0  0
   10.9995    3.1433    0.0000 O   0  0  0  0  0  0  0  0  0  0  0  0
   13.9815    1.1166    0.0000 O   0  0  0  0  0  0  0  0  0  0  0  0
    9.1213   -0.0130    0.0000 C   0  0  3  0  0  0  0  0  0  0  0  0
    9.1213   -1.0130    0.0000 C   0  0  3  0  0  0  0  0  0  0  0  0
    8.2552   -1.5130    0.0000 C   0  0  3  0  0  0  0  0  0  0  0  0
    7.3892   -1.0130    0.0000 C   0  0  3  0  0  0  0  0  0  0  0  0
    6.4792   -1.5198    0.0000 C   0  0  3  0  0  0  0  0  0  0  0  0
   10.0675    0.2917    0.0000 C   0  0  3  0  0  0  0  0  0  0  0  0
    8.2552    0.4870    0.0000 C   0  0  3  0  0  0  0  0  0  0  0  0
    7.3892   -0.0130    0.0000 C   0  0  0  0  0  0  0  0  0  0  0  0
    6.4712   -2.5614    0.0000 C   0  0  3  0  0  0  0  0  0  0  0  0
    8.2713   -2.5545    0.0000 C   0  0  3  0  0  0  0  0  0  0  0  0
   10.0675   -1.3177    0.0000 C   0  0  0  0  0  0  0  0  0  0  0  0
   10.6511   -0.5130    0.0000 C   0  0  0  0  0  0  0  0  0  0  0  0
    7.3733   -3.0823    0.0000 C   0  0  0  0  0  0  0  0  0  0  0  0
    5.5524   -0.9558    0.0000 C   0  0  0  0  0  0  0  0  0  0  0  0
    9.1213    0.9870    0.0000 C   0  0  0  0  0  0  0  0  0  0  0  0
   10.3781    1.2422    0.0000 C   0  0  3  0  0  0  0  0  0  0  0  0
    5.5358   -3.1112    0.0000 C   0  0  0  0  0  0  0  0  0  0  0  0
    6.4869   -0.5199    0.0000 C   0  0  0  0  0  0  0  0  0  0  0  0
    4.6045   -1.4837    0.0000 C   0  0  0  0  0  0  0  0  0  0  0  0
    4.5961   -2.5687    0.0000 C   0  0  3  0  0  0  0  0  0  0  0  0
   11.3567    1.4485    0.0000 C   0  0  0  0  0  0  0  0  0  0  0  0
    9.7103    1.9866    0.0000 C   0  0  0  0  0  0  0  0  0  0  0  0
   11.6673    2.3990    0.0000 C   0  0  3  0  0  0  0  0  0  0  0  0
    6.5232    2.4870    0.0000 C   0  0  0  0  0  0  0  0  0  0  0  0
    7.8892    2.8530    0.0000 C   0  0  0  0  0  0  0  0  0  0  0  0
    6.8892    1.1210    0.0000 C   0  0  0  0  0  0  0  0  0  0  0  0
    9.1662   -5.0443    0.0000 C   0  0  0  0  0  0  0  0  0  0  0  0
   10.1545   -4.0328    0.0000 C   0  0  0  0  0  0  0  0  0  0  0  0
    8.1547   -4.0560    0.0000 C   0  0  0  0  0  0  0  0  0  0  0  0
   12.6458    2.6052    0.0000 C   0  0  0  0  0  0  0  0  0  0  0  0
   13.3137    1.8609    0.0000 C   0  0  0  0  0  0  0  0  0  0  0  0
    2.0000   -2.0587    0.0000 C   0  0  0  0  0  0  0  0  0  0  0  0
    2.3608   -3.4261    0.0000 C   0  0  0  0  0  0  0  0  0  0  0  0
    3.3674   -1.6979    0.0000 C   0  0  0  0  0  0  0  0  0  0  0  0
   14.0580    2.5288    0.0000 C   0  0  0  0  0  0  0  0  0  0  0  0
   12.5694    1.1931    0.0000 C   0  0  0  0  0  0  0  0  0  0  0  0
   11.6208    5.0443    0.0000 C   0  0  0  0  0  0  0  0  0  0  0  0
   10.3596    4.4045    0.0000 C   0  0  0  0  0  0  0  0  0  0  0  0
   12.2607    3.7832    0.0000 C   0  0  0  0  0  0  0  0  0  0  0  0
   15.9385    1.5290    0.0000 C   0  0  0  0  0  0  0  0  0  0  0  0
   15.1662    0.3443    0.0000 C   0  0  0  0  0  0  0  0  0  0  0  0
   14.7538    2.3013    0.0000 C   0  0  0  0  0  0  0  0  0  0  0  0
    9.1869   -1.6295    0.0000 H   0  0  0  0  0  0  0  0  0  0  0  0
    8.7945   -1.8189    0.0000 H   0  0  0  0  0  0  0  0  0  0  0  0
    7.9262   -0.7030    0.0000 H   0  0  0  0  0  0  0  0  0  0  0  0
   10.6800    0.3879    0.0000 H   0  0  0  0  0  0  0  0  0  0  0  0
    8.7922    0.7970    0.0000 H   0  0  0  0  0  0  0  0  0  0  0  0
    7.1772    0.5696    0.0000 H   0  0  0  0  0  0  0  0  0  0  0  0
    6.7786   -0.1207    0.0000 H   0  0  0  0  0  0  0  0  0  0  0  0
    6.4736   -3.1814    0.0000 H   0  0  0  0  0  0  0  0  0  0  0  0
    8.2773   -3.1745    0.0000 H   0  0  0  0  0  0  0  0  0  0  0  0
    9.8164   -1.8846    0.0000 H   0  0  0  0  0  0  0  0  0  0  0  0
   10.6049   -1.6270    0.0000 H   0  0  0  0  0  0  0  0  0  0  0  0
   11.1120   -0.9277    0.0000 H   0  0  0  0  0  0  0  0  0  0  0  0
   11.1120   -0.0983    0.0000 H   0  0  0  0  0  0  0  0  0  0  0  0
    6.9760   -3.5582    0.0000 H   0  0  0  0  0  0  0  0  0  0  0  0
    7.7742   -3.5552    0.0000 H   0  0  0  0  0  0  0  0  0  0  0  0
    5.9606   -0.4891    0.0000 H   0  0  0  0  0  0  0  0  0  0  0  0
    5.1625   -0.4737    0.0000 H   0  0  0  0  0  0  0  0  0  0  0  0
    9.7413    0.9870    0.0000 H   0  0  0  0  0  0  0  0  0  0  0  0
    9.1213    1.6070    0.0000 H   0  0  0  0  0  0  0  0  0  0  0  0
    8.5013    0.9870    0.0000 H   0  0  0  0  0  0  0  0  0  0  0  0
   10.5708    1.8316    0.0000 H   0  0  0  0  0  0  0  0  0  0  0  0
    5.1385   -3.5871    0.0000 H   0  0  0  0  0  0  0  0  0  0  0  0
    5.9367   -3.5841    0.0000 H   0  0  0  0  0  0  0  0  0  0  0  0
    7.1069   -0.5247    0.0000 H   0  0  0  0  0  0  0  0  0  0  0  0
    6.4917    0.1001    0.0000 H   0  0  0  0  0  0  0  0  0  0  0  0
    5.8669   -0.5151    0.0000 H   0  0  0  0  0  0  0  0  0  0  0  0
    4.3999   -0.8984    0.0000 H   0  0  0  0  0  0  0  0  0  0  0  0
    3.9928   -1.5851    0.0000 H   0  0  0  0  0  0  0  0  0  0  0  0
    4.5949   -3.1887    0.0000 H   0  0  0  0  0  0  0  0  0  0  0  0
   11.3772    0.8288    0.0000 H   0  0  0  0  0  0  0  0  0  0  0  0
   11.9705    1.3611    0.0000 H   0  0  0  0  0  0  0  0  0  0  0  0
   10.1718    2.4006    0.0000 H   0  0  0  0  0  0  0  0  0  0  0  0
    9.2962    2.4480    0.0000 H   0  0  0  0  0  0  0  0  0  0  0  0
    9.2488    1.5725    0.0000 H   0  0  0  0  0  0  0  0  0  0  0  0
   11.0606    2.2711    0.0000 H   0  0  0  0  0  0  0  0  0  0  0  0
    6.8332    3.0239    0.0000 H   0  0  0  0  0  0  0  0  0  0  0  0
    6.3523    1.4310    0.0000 H   0  0  0  0  0  0  0  0  0  0  0  0
    6.5792    0.5840    0.0000 H   0  0  0  0  0  0  0  0  0  0  0  0
    7.4262    0.8110    0.0000 H   0  0  0  0  0  0  0  0  0  0  0  0
    8.4262    2.5430    0.0000 H   0  0  0  0  0  0  0  0  0  0  0  0
    8.1992    3.3900    0.0000 H   0  0  0  0  0  0  0  0  0  0  0  0
    7.3523    3.1630    0.0000 H   0  0  0  0  0  0  0  0  0  0  0  0
    5.9863    2.7970    0.0000 H   0  0  0  0  0  0  0  0  0  0  0  0
    6.2132    1.9501    0.0000 H   0  0  0  0  0  0  0  0  0  0  0  0
    8.1475   -3.4360    0.0000 H   0  0  0  0  0  0  0  0  0  0  0  0
    7.5347   -4.0631    0.0000 H   0  0  0  0  0  0  0  0  0  0  0  0
    8.1618   -4.6759    0.0000 H   0  0  0  0  0  0  0  0  0  0  0  0
   10.1617   -4.6528    0.0000 H   0  0  0  0  0  0  0  0  0  0  0  0
   10.7745   -4.0257    0.0000 H   0  0  0  0  0  0  0  0  0  0  0  0
   10.1474   -3.4129    0.0000 H   0  0  0  0  0  0  0  0  0  0  0  0
    8.5462   -5.0515    0.0000 H   0  0  0  0  0  0  0  0  0  0  0  0
    9.1733   -5.6643    0.0000 H   0  0  0  0  0  0  0  0  0  0  0  0
    9.7861   -5.0372    0.0000 H   0  0  0  0  0  0  0  0  0  0  0  0
   13.1722    2.9328    0.0000 H   0  0  0  0  0  0  0  0  0  0  0  0
   12.4146    3.1805    0.0000 H   0  0  0  0  0  0  0  0  0  0  0  0
    2.3121   -1.5229    0.0000 H   0  0  0  0  0  0  0  0  0  0  0  0
    1.4643   -1.7466    0.0000 H   0  0  0  0  0  0  0  0  0  0  0  0
    1.6879   -2.5944    0.0000 H   0  0  0  0  0  0  0  0  0  0  0  0
    1.8250   -3.1140    0.0000 H   0  0  0  0  0  0  0  0  0  0  0  0
    2.0487   -3.9618    0.0000 H   0  0  0  0  0  0  0  0  0  0  0  0
    2.8965   -3.7382    0.0000 H   0  0  0  0  0  0  0  0  0  0  0  0
    3.9032   -2.0100    0.0000 H   0  0  0  0  0  0  0  0  0  0  0  0
    3.6795   -1.1622    0.0000 H   0  0  0  0  0  0  0  0  0  0  0  0
    2.8317   -1.3858    0.0000 H   0  0  0  0  0  0  0  0  0  0  0  0
   14.4720    2.0673    0.0000 H   0  0  0  0  0  0  0  0  0  0  0  0
   14.5194    2.9428    0.0000 H   0  0  0  0  0  0  0  0  0  0  0  0
   13.6439    2.9902    0.0000 H   0  0  0  0  0  0  0  0  0  0  0  0
   12.1553    1.6545    0.0000 H   0  0  0  0  0  0  0  0  0  0  0  0
   12.1079    0.7790    0.0000 H   0  0  0  0  0  0  0  0  0  0  0  0
   12.9834    0.7316    0.0000 H   0  0  0  0  0  0  0  0  0  0  0  0
   10.5522    4.9938    0.0000 H   0  0  0  0  0  0  0  0  0  0  0  0
   12.0680    3.1938    0.0000 H   0  0  0  0  0  0  0  0  0  0  0  0
   12.8500    3.5905    0.0000 H   0  0  0  0  0  0  0  0  0  0  0  0
   12.4533    4.3725    0.0000 H   0  0  0  0  0  0  0  0  0  0  0  0
    9.7703    4.5971    0.0000 H   0  0  0  0  0  0  0  0  0  0  0  0
   10.1670    3.8152    0.0000 H   0  0  0  0  0  0  0  0  0  0  0  0
   12.2101    4.8517    0.0000 H   0  0  0  0  0  0  0  0  0  0  0  0
   11.8134    5.6336    0.0000 H   0  0  0  0  0  0  0  0  0  0  0  0
   11.0315    5.2369    0.0000 H   0  0  0  0  0  0  0  0  0  0  0  0
   15.3605    2.4292    0.0000 H   0  0  0  0  0  0  0  0  0  0  0  0
   14.6259    2.9080    0.0000 H   0  0  0  0  0  0  0  0  0  0  0  0
   14.1471    2.1735    0.0000 H   0  0  0  0  0  0  0  0  0  0  0  0
   14.5596    0.2165    0.0000 H   0  0  0  0  0  0  0  0  0  0  0  0
   15.2941   -0.2624    0.0000 H   0  0  0  0  0  0  0  0  0  0  0  0
   15.7729    0.4722    0.0000 H   0  0  0  0  0  0  0  0  0  0  0  0
   16.0664    0.9224    0.0000 H   0  0  0  0  0  0  0  0  0  0  0  0
   16.5452    1.6569    0.0000 H   0  0  0  0  0  0  0  0  0  0  0  0
   15.8107    2.1357    0.0000 H   0  0  0  0  0  0  0  0  0  0  0  0
  1  6  1  0  0  0  0
  1 34  1  0  0  0  0
  1 35  1  0  0  0  0
  1 36  1  0  0  0  0
  2  7  1  0  0  0  0
  2 37  1  0  0  0  0
  2 38  1  0  0  0  0
  2 39  1  0  0  0  0
  3  8  1  0  0  0  0
  3 42  1  0  0  0  0
  3 43  1  0  0  0  0
  3 44  1  0  0  0  0
  4  9  1  0  0  0  0
  4 47  1  0  0  0  0
  4 48  1  0  0  0  0
  4 49  1  0  0  0  0
  5 10  1  0  0  0  0
  5 50  1  0  0  0  0
  5 51  1  0  0  0  0
  5 52  1  0  0  0  0
  6 17  1  0  0  0  0
  7 20  1  0  0  0  0
  8 30  1  0  0  0  0
  9 33  1  0  0  0  0
 10 41  1  0  0  0  0
 11 12  1  0  0  0  0
 11 16  1  0  0  0  0
 11 17  1  0  0  0  0
 11 25  1  0  0  0  0
 12 13  1  0  0  0  0
 12 21  1  0  0  0  0
 12 53  1  0  0  0  0
 13 14  1  0  0  0  0
 13 20  1  0  0  0  0
 13 54  1  0  0  0  0
 14 15  1  0  0  0  0
 14 18  1  0  0  0  0
 14 55  1  0  0  0  0
 15 19  1  0  0  0  0
 15 24  1  0  0  0  0
 15 28  1  0  0  0  0
 16 22  1  0  0  0  0
 16 26  1  0  0  0  0
 16 56  1  0  0  0  0
 17 18  1  0  0  0  0
 17 57  1  0  0  0  0
 18 58  1  0  0  0  0
 18 59  1  0  0  0  0
 19 23  1  0  0  0  0
 19 27  1  0  0  0  0
 19 60  1  0  0  0  0
 20 23  1  0  0  0  0
 20 61  1  0  0  0  0
 21 22  1  0  0  0  0
 21 62  1  0  0  0  0
 21 63  1  0  0  0  0
 22 64  1  0  0  0  0
 22 65  1  0  0  0  0
 23 66  1  0  0  0  0
 23 67  1  0  0  0  0
 24 29  1  0  0  0  0
 24 68  1  0  0  0  0
 24 69  1  0  0  0  0
 25 70  1  0  0  0  0
 25 71  1  0  0  0  0
 25 72  1  0  0  0  0
 26 31  1  0  0  0  0
 26 32  1  0  0  0  0
 26 73  1  0  0  0  0
 27 30  1  0  0  0  0
 27 74  1  0  0  0  0
 27 75  1  0  0  0  0
 28 76  1  0  0  0  0
 28 77  1  0  0  0  0
 28 78  1  0  0  0  0
 29 30  1  0  0  0  0
 29 79  1  0  0  0  0
 29 80  1  0  0  0  0
 30 81  1  0  0  0  0
 31 33  1  0  0  0  0
 31 82  1  0  0  0  0
 31 83  1  0  0  0  0
 32 84  1  0  0  0  0
 32 85  1  0  0  0  0
 32 86  1  0  0  0  0
 33 40  1  0  0  0  0
 33 87  1  0  0  0  0
 34 88  1  0  0  0  0
 34 95  1  0  0  0  0
 34 96  1  0  0  0  0
 35 92  1  0  0  0  0
 35 93  1  0  0  0  0
 35 94  1  0  0  0  0
 36 89  1  0  0  0  0
 36 90  1  0  0  0  0
 36 91  1  0  0  0  0
 37103  1  0  0  0  0
 37104  1  0  0  0  0
 37105  1  0  0  0  0
 38100  1  0  0  0  0
 38101  1  0  0  0  0
 38102  1  0  0  0  0
 39 97  1  0  0  0  0
 39 98  1  0  0  0  0
 39 99  1  0  0  0  0
 40 41  1  0  0  0  0
 40106  1  0  0  0  0
 40107  1  0  0  0  0
 41 45  1  0  0  0  0
 41 46  1  0  0  0  0
 42108  1  0  0  0  0
 42109  1  0  0  0  0
 42110  1  0  0  0  0
 43111  1  0  0  0  0
 43112  1  0  0  0  0
 43113  1  0  0  0  0
 44114  1  0  0  0  0
 44115  1  0  0  0  0
 44116  1  0  0  0  0
 45117  1  0  0  0  0
 45118  1  0  0  0  0
 45119  1  0  0  0  0
 46120  1  0  0  0  0
 46121  1  0  0  0  0
 46122  1  0  0  0  0
 47129  1  0  0  0  0
 47130  1  0  0  0  0
 47131  1  0  0  0  0
 48123  1  0  0  0  0
 48127  1  0  0  0  0
 48128  1  0  0  0  0
 49124  1  0  0  0  0
 49125  1  0  0  0  0
 49126  1  0  0  0  0
 50138  1  0  0  0  0
 50139  1  0  0  0  0
 50140  1  0  0  0  0
 51135  1  0  0  0  0
 51136  1  0  0  0  0
 51137  1  0  0  0  0
 52132  1  0  0  0  0
 52133  1  0  0  0  0
 52134  1  0  0  0  0
M  END
> <PUBCHEM_COMPOUND_CID>
582876

> <PUBCHEM_COMPOUND_CANONICALIZED>
1

> <PUBCHEM_CACTVS_COMPLEXITY>
1200

> <PUBCHEM_CACTVS_HBOND_ACCEPTOR>
5

> <PUBCHEM_CACTVS_HBOND_DONOR>
0

> <PUBCHEM_CACTVS_ROTATABLE_BOND>
15

> <PUBCHEM_CACTVS_SUBSKEYS>
AAADcfB8OAwAAAAAAAAAAAAAAAAAAYAAAAAwYMAAAAAAAGDAAAAAGhAAAEAAD1SggAJCAAAAAAEAAAAAAAAAAAAAAAAAAAAAAAAAAAIAAAAAAAAFAAAAAAGA4PQPgAAAAAAAAADAAAYAADAAAQAACAAAAA==

> <PUBCHEM_IUPAC_OPENEYE_NAME>
[17-[1,5-dimethyl-3,5-bis(trimethylsilyloxy)hexyl]-10,13-dimethyl-3,7-bis(trimethylsilyloxy)-2,3,4,5,6,7,8,9,11,12,14,15,16,17-tetradecahydro-1H-cyclopenta[a]phenanthren-12-yl]oxy-trimethyl-silane

> <PUBCHEM_IUPAC_CAS_NAME>
[10,13-dimethyl-17-[6-methyl-4,6-bis(trimethylsilyloxy)heptan-2-yl]-3,7-bis(trimethylsilyloxy)-2,3,4,5,6,7,8,9,11,12,14,15,16,17-tetradecahydro-1H-cyclopenta[a]phenanthren-12-yl]oxy-trimethylsilane

> <PUBCHEM_IUPAC_NAME>
[10,13-dimethyl-17-[6-methyl-4,6-bis(trimethylsilyloxy)heptan-2-yl]-3,7-bis(trimethylsilyloxy)-2,3,4,5,6,7,8,9,11,12,14,15,16,17-tetradecahydro-1H-cyclopenta[a]phenanthren-12-yl]oxy-trimethylsilane

> <PUBCHEM_IUPAC_SYSTEMATIC_NAME>
[10,13-dimethyl-17-[6-methyl-4,6-bis(trimethylsilyloxy)heptan-2-yl]-3,7-bis(trimethylsilyloxy)-2,3,4,5,6,7,8,9,11,12,14,15,16,17-tetradecahydro-1H-cyclopenta[a]phenanthren-12-yl]oxy-trimethyl-silane

> <PUBCHEM_IUPAC_TRADITIONAL_NAME>
[17-[1,5-dimethyl-3,5-bis(trimethylsilyloxy)hexyl]-10,13-dimethyl-3,7-bis(trimethylsilyloxy)-2,3,4,5,6,7,8,9,11,12,14,15,16,17-tetradecahydro-1H-cyclopenta[a]phenanthren-12-yl]oxy-trimethyl-silane

> <PUBCHEM_IUPAC_INCHI>
InChI=1S/C42H88O5Si5/c1-30(25-33(44-49(9,10)11)29-40(2,3)47-52(18,19)20)34-21-22-35-39-36(28-38(42(34,35)5)46-51(15,16)17)41(4)24-23-32(43-48(6,7)8)26-31(41)27-37(39)45-50(12,13)14/h30-39H,21-29H2,1-20H3

> <PUBCHEM_IUPAC_INCHIKEY>
MSOISQPVIKIZJX-UHFFFAOYSA-N

> <PUBCHEM_EXACT_MASS>
812.547809

> <PUBCHEM_MOLECULAR_FORMULA>
C42H88O5Si5

> <PUBCHEM_MOLECULAR_WEIGHT>
813.57262

> <PUBCHEM_OPENEYE_CAN_SMILES>
CC(CC(CC(C)(C)O[Si](C)(C)C)O[Si](C)(C)C)C1CCC2C1(C(CC3C2C(CC4C3(CCC(C4)O[Si](C)(C)C)C)O[Si](C)(C)C)O[Si](C)(C)C)C

> <PUBCHEM_OPENEYE_ISO_SMILES>
CC(CC(CC(C)(C)O[Si](C)(C)C)O[Si](C)(C)C)C1CCC2C1(C(CC3C2C(CC4C3(CCC(C4)O[Si](C)(C)C)C)O[Si](C)(C)C)O[Si](C)(C)C)C

> <PUBCHEM_CACTVS_TPSA>
46.2

> <PUBCHEM_MONOISOTOPIC_WEIGHT>
812.547809

> <PUBCHEM_TOTAL_CHARGE>
0

> <PUBCHEM_HEAVY_ATOM_COUNT>
52

> <PUBCHEM_ATOM_DEF_STEREO_COUNT>
0

> <PUBCHEM_ATOM_UDEF_STEREO_COUNT>
12

> <PUBCHEM_BOND_DEF_STEREO_COUNT>
0

> <PUBCHEM_BOND_UDEF_STEREO_COUNT>
0

> <PUBCHEM_ISOTOPIC_ATOM_COUNT>
0

> <PUBCHEM_COMPONENT_COUNT>
1

> <PUBCHEM_CACTVS_TAUTO_COUNT>
1

> <PUBCHEM_COORDINATE_TYPE>
1
5
255

> <PUBCHEM_BONDANNOTATIONS>
11  25  3
12  21  3
13  20  3
14  18  3
15  28  3
16  22  3
19  23  3
26  32  3
33  40  3
17  6  3
20  7  3
30  8  3

$$$$

