160665
  -OEChem-07051213092D

 80 83  0     1  0  0  0  0  0999 V2000
    7.0628    0.4632    0.0000 O   0  0  0  0  0  0  0  0  0  0  0  0
    7.9506   -4.0683    0.0000 O   0  0  0  0  0  0  0  0  0  0  0  0
    2.5357   -4.0891    0.0000 O   0  0  0  0  0  0  0  0  0  0  0  0
   13.0532    3.6887    0.0000 O   0  0  0  0  0  0  0  0  0  0  0  0
   11.4069    4.2268    0.0000 O   0  0  0  0  0  0  0  0  0  0  0  0
    7.9288   -1.0368    0.0000 C   0  0  1  0  0  0  0  0  0  0  0  0
    7.9288   -2.0368    0.0000 C   0  0  2  0  0  0  0  0  0  0  0  0
    7.0628   -2.5368    0.0000 C   0  0  1  0  0  0  0  0  0  0  0  0
    6.1968   -2.0368    0.0000 C   0  0  1  0  0  0  0  0  0  0  0  0
    5.2868   -2.5436    0.0000 C   0  0  2  0  0  0  0  0  0  0  0  0
    8.8750   -0.7321    0.0000 C   0  0  2  0  0  0  0  0  0  0  0  0
    7.0628   -0.5368    0.0000 C   0  0  2  0  0  0  0  0  0  0  0  0
    6.1968   -1.0368    0.0000 C   0  0  0  0  0  0  0  0  0  0  0  0
    5.2787   -3.5852    0.0000 C   0  0  1  0  0  0  0  0  0  0  0  0
    8.8750   -2.3415    0.0000 C   0  0  0  0  0  0  0  0  0  0  0  0
    7.0789   -3.5783    0.0000 C   0  0  1  0  0  0  0  0  0  0  0  0
    9.4586   -1.5368    0.0000 C   0  0  0  0  0  0  0  0  0  0  0  0
    6.1808   -4.1061    0.0000 C   0  0  0  0  0  0  0  0  0  0  0  0
    4.3599   -1.9796    0.0000 C   0  0  0  0  0  0  0  0  0  0  0  0
    7.9288   -0.0368    0.0000 C   0  0  0  0  0  0  0  0  0  0  0  0
    9.1857    0.2185    0.0000 C   0  0  1  0  0  0  0  0  0  0  0  0
    4.3433   -4.1350    0.0000 C   0  0  0  0  0  0  0  0  0  0  0  0
    5.2945   -1.5437    0.0000 C   0  0  0  0  0  0  0  0  0  0  0  0
    3.4120   -2.5075    0.0000 C   0  0  0  0  0  0  0  0  0  0  0  0
    3.4037   -3.5925    0.0000 C   0  0  1  0  0  0  0  0  0  0  0  0
   10.1642    0.4247    0.0000 C   0  0  0  0  0  0  0  0  0  0  0  0
    8.5179    0.9628    0.0000 C   0  0  0  0  0  0  0  0  0  0  0  0
   10.4749    1.3752    0.0000 C   0  0  0  0  0  0  0  0  0  0  0  0
   11.4534    1.5814    0.0000 C   0  0  0  0  0  0  0  0  0  0  0  0
   11.7640    2.5319    0.0000 C   0  0  0  0  0  0  0  0  0  0  0  0
   12.7425    2.7382    0.0000 C   0  0  0  0  0  0  0  0  0  0  0  0
   11.0962    3.2762    0.0000 C   0  0  0  0  0  0  0  0  0  0  0  0
    8.0188   -2.8820    0.0000 H   0  0  0  0  0  0  0  0  0  0  0  0
    7.8022   -2.9561    0.0000 H   0  0  0  0  0  0  0  0  0  0  0  0
    6.9329   -1.6118    0.0000 H   0  0  0  0  0  0  0  0  0  0  0  0
    9.7148   -0.6002    0.0000 H   0  0  0  0  0  0  0  0  0  0  0  0
    7.5997   -0.2268    0.0000 H   0  0  0  0  0  0  0  0  0  0  0  0
    5.9847   -0.4542    0.0000 H   0  0  0  0  0  0  0  0  0  0  0  0
    5.5862   -1.1445    0.0000 H   0  0  0  0  0  0  0  0  0  0  0  0
    5.2820   -4.4352    0.0000 H   0  0  0  0  0  0  0  0  0  0  0  0
    8.6240   -2.9084    0.0000 H   0  0  0  0  0  0  0  0  0  0  0  0
    9.4124   -2.6508    0.0000 H   0  0  0  0  0  0  0  0  0  0  0  0
    7.6116   -3.2611    0.0000 H   0  0  0  0  0  0  0  0  0  0  0  0
    9.9195   -1.9515    0.0000 H   0  0  0  0  0  0  0  0  0  0  0  0
    9.9195   -1.1221    0.0000 H   0  0  0  0  0  0  0  0  0  0  0  0
    5.7835   -4.5820    0.0000 H   0  0  0  0  0  0  0  0  0  0  0  0
    6.5818   -4.5790    0.0000 H   0  0  0  0  0  0  0  0  0  0  0  0
    4.7681   -1.5129    0.0000 H   0  0  0  0  0  0  0  0  0  0  0  0
    3.9700   -1.4975    0.0000 H   0  0  0  0  0  0  0  0  0  0  0  0
    8.5488   -0.0368    0.0000 H   0  0  0  0  0  0  0  0  0  0  0  0
    7.9288    0.5832    0.0000 H   0  0  0  0  0  0  0  0  0  0  0  0
    7.3088   -0.0368    0.0000 H   0  0  0  0  0  0  0  0  0  0  0  0
    9.3783    0.8078    0.0000 H   0  0  0  0  0  0  0  0  0  0  0  0
    3.9460   -4.6109    0.0000 H   0  0  0  0  0  0  0  0  0  0  0  0
    4.7443   -4.6079    0.0000 H   0  0  0  0  0  0  0  0  0  0  0  0
    5.9145   -1.5485    0.0000 H   0  0  0  0  0  0  0  0  0  0  0  0
    5.2993   -0.9237    0.0000 H   0  0  0  0  0  0  0  0  0  0  0  0
    4.6745   -1.5389    0.0000 H   0  0  0  0  0  0  0  0  0  0  0  0
    3.2075   -1.9222    0.0000 H   0  0  0  0  0  0  0  0  0  0  0  0
    2.8004   -2.6089    0.0000 H   0  0  0  0  0  0  0  0  0  0  0  0
    2.8686   -3.2794    0.0000 H   0  0  0  0  0  0  0  0  0  0  0  0
    6.5259    0.7732    0.0000 H   0  0  0  0  0  0  0  0  0  0  0  0
   10.1848   -0.1950    0.0000 H   0  0  0  0  0  0  0  0  0  0  0  0
   10.7780    0.3373    0.0000 H   0  0  0  0  0  0  0  0  0  0  0  0
    7.9578   -4.6882    0.0000 H   0  0  0  0  0  0  0  0  0  0  0  0
    8.9793    1.3768    0.0000 H   0  0  0  0  0  0  0  0  0  0  0  0
    8.1038    1.4242    0.0000 H   0  0  0  0  0  0  0  0  0  0  0  0
    8.0564    0.5487    0.0000 H   0  0  0  0  0  0  0  0  0  0  0  0
   10.4543    1.9948    0.0000 H   0  0  0  0  0  0  0  0  0  0  0  0
    9.8611    1.4625    0.0000 H   0  0  0  0  0  0  0  0  0  0  0  0
    2.0000   -3.7771    0.0000 H   0  0  0  0  0  0  0  0  0  0  0  0
   11.4739    0.9618    0.0000 H   0  0  0  0  0  0  0  0  0  0  0  0
   12.0672    1.4941    0.0000 H   0  0  0  0  0  0  0  0  0  0  0  0
   12.1781    2.0705    0.0000 H   0  0  0  0  0  0  0  0  0  0  0  0
   10.5493    3.5682    0.0000 H   0  0  0  0  0  0  0  0  0  0  0  0
   10.7136    2.7883    0.0000 H   0  0  0  0  0  0  0  0  0  0  0  0
   12.7631    2.1185    0.0000 H   0  0  0  0  0  0  0  0  0  0  0  0
   13.3564    2.6508    0.0000 H   0  0  0  0  0  0  0  0  0  0  0  0
   13.6599    3.8165    0.0000 H   0  0  0  0  0  0  0  0  0  0  0  0
   10.9928    4.6882    0.0000 H   0  0  0  0  0  0  0  0  0  0  0  0
 12  1  1  6  0  0  0
  1 62  1  0  0  0  0
 16  2  1  6  0  0  0
  2 65  1  0  0  0  0
 25  3  1  6  0  0  0
  3 71  1  0  0  0  0
  4 31  1  0  0  0  0
  4 79  1  0  0  0  0
  5 32  1  0  0  0  0
  5 80  1  0  0  0  0
  6  7  1  0  0  0  0
  6 11  1  0  0  0  0
  6 12  1  0  0  0  0
  6 20  1  1  0  0  0
  7  8  1  0  0  0  0
  7 15  1  0  0  0  0
  7 33  1  6  0  0  0
  8  9  1  0  0  0  0
  8 16  1  0  0  0  0
  8 34  1  1  0  0  0
  9 10  1  0  0  0  0
  9 13  1  0  0  0  0
  9 35  1  6  0  0  0
 10 14  1  0  0  0  0
 10 19  1  0  0  0  0
 10 23  1  1  0  0  0
 11 17  1  0  0  0  0
 11 21  1  0  0  0  0
 11 36  1  6  0  0  0
 12 13  1  0  0  0  0
 12 37  1  0  0  0  0
 13 38  1  0  0  0  0
 13 39  1  0  0  0  0
 14 18  1  0  0  0  0
 14 22  1  0  0  0  0
 14 40  1  6  0  0  0
 15 17  1  0  0  0  0
 15 41  1  0  0  0  0
 15 42  1  0  0  0  0
 16 18  1  0  0  0  0
 16 43  1  0  0  0  0
 17 44  1  0  0  0  0
 17 45  1  0  0  0  0
 18 46  1  0  0  0  0
 18 47  1  0  0  0  0
 19 24  1  0  0  0  0
 19 48  1  0  0  0  0
 19 49  1  0  0  0  0
 20 50  1  0  0  0  0
 20 51  1  0  0  0  0
 20 52  1  0  0  0  0
 21 26  1  0  0  0  0
 21 27  1  6  0  0  0
 21 53  1  0  0  0  0
 22 25  1  0  0  0  0
 22 54  1  0  0  0  0
 22 55  1  0  0  0  0
 23 56  1  0  0  0  0
 23 57  1  0  0  0  0
 23 58  1  0  0  0  0
 24 25  1  0  0  0  0
 24 59  1  0  0  0  0
 24 60  1  0  0  0  0
 25 61  1  0  0  0  0
 26 28  1  0  0  0  0
 26 63  1  0  0  0  0
 26 64  1  0  0  0  0
 27 66  1  0  0  0  0
 27 67  1  0  0  0  0
 27 68  1  0  0  0  0
 28 29  1  0  0  0  0
 28 69  1  0  0  0  0
 28 70  1  0  0  0  0
 29 30  1  0  0  0  0
 29 72  1  0  0  0  0
 29 73  1  0  0  0  0
 30 31  1  0  0  0  0
 30 32  1  0  0  0  0
 30 74  1  0  0  0  0
 31 77  1  0  0  0  0
 31 78  1  0  0  0  0
 32 75  1  0  0  0  0
 32 76  1  0  0  0  0
M  END
> <PUBCHEM_COMPOUND_CID>
160665

> <PUBCHEM_COMPOUND_CANONICALIZED>
1

> <PUBCHEM_CACTVS_COMPLEXITY>
638

> <PUBCHEM_CACTVS_HBOND_ACCEPTOR>
5

> <PUBCHEM_CACTVS_HBOND_DONOR>
5

> <PUBCHEM_CACTVS_ROTATABLE_BOND>
7

> <PUBCHEM_CACTVS_SUBSKEYS>
AAADcfB4OAAAAAAAAAAAAAAAAAAAAYAAAAAwYMAAAAAAAGDAAAAAGgAACAAADxSggAICAAAAAgAAAAAAAAAAAAAAAAAAAAAAAAAAEAIAAAAAQAAFAAAAAAGA4PQPgAAAAAAAAADAAAYAADAAAQAACAAAAA==

> <PUBCHEM_IUPAC_OPENEYE_NAME>
(3R,5R,7R,8R,9S,10S,12S,13R,14S,17R)-17-[(1R)-6-hydroxy-5-(hydroxymethyl)-1-methyl-hexyl]-10,13-dimethyl-2,3,4,5,6,7,8,9,11,12,14,15,16,17-tetradecahydro-1H-cyclopenta[a]phenanthrene-3,7,12-triol

> <PUBCHEM_IUPAC_CAS_NAME>
(3R,5R,7R,8R,9S,10S,12S,13R,14S,17R)-17-[(2R)-7-hydroxy-6-(hydroxymethyl)heptan-2-yl]-10,13-dimethyl-2,3,4,5,6,7,8,9,11,12,14,15,16,17-tetradecahydro-1H-cyclopenta[a]phenanthrene-3,7,12-triol

> <PUBCHEM_IUPAC_NAME>
(3R,5R,7R,8R,9S,10S,12S,13R,14S,17R)-17-[(2R)-7-hydroxy-6-(hydroxymethyl)heptan-2-yl]-10,13-dimethyl-2,3,4,5,6,7,8,9,11,12,14,15,16,17-tetradecahydro-1H-cyclopenta[a]phenanthrene-3,7,12-triol

> <PUBCHEM_IUPAC_SYSTEMATIC_NAME>
(3R,5R,7R,8R,9S,10S,12S,13R,14S,17R)-17-[(2R)-6-(hydroxymethyl)-7-oxidanyl-heptan-2-yl]-10,13-dimethyl-2,3,4,5,6,7,8,9,11,12,14,15,16,17-tetradecahydro-1H-cyclopenta[a]phenanthrene-3,7,12-triol

> <PUBCHEM_IUPAC_TRADITIONAL_NAME>
(3R,5R,7R,8R,9S,10S,12S,13R,14S,17R)-17-[(1R)-6-hydroxy-1-methyl-5-methylol-hexyl]-10,13-dimethyl-2,3,4,5,6,7,8,9,11,12,14,15,16,17-tetradecahydro-1H-cyclopenta[a]phenanthrene-3,7,12-triol

> <PUBCHEM_IUPAC_INCHI>
InChI=1S/C27H48O5/c1-16(5-4-6-17(14-28)15-29)20-7-8-21-25-22(13-24(32)27(20,21)3)26(2)10-9-19(30)11-18(26)12-23(25)31/h16-25,28-32H,4-15H2,1-3H3/t16-,18-,19-,20-,21+,22+,23-,24+,25+,26+,27-/m1/s1

> <PUBCHEM_IUPAC_INCHIKEY>
JNMALBXXJSWZQY-BBBUMGABSA-N

> <PUBCHEM_XLOGP3_AA>
4

> <PUBCHEM_EXACT_MASS>
452.350175

> <PUBCHEM_MOLECULAR_FORMULA>
C27H48O5

> <PUBCHEM_MOLECULAR_WEIGHT>
452.66702

> <PUBCHEM_OPENEYE_CAN_SMILES>
CC(CCCC(CO)CO)C1CCC2C1(C(CC3C2C(CC4C3(CCC(C4)O)C)O)O)C

> <PUBCHEM_OPENEYE_ISO_SMILES>
C[C@H](CCCC(CO)CO)[C@H]1CC[C@@H]2[C@@]1([C@H](C[C@H]3[C@H]2[C@@H](C[C@@H]4[C@@]3(CC[C@H](C4)O)C)O)O)C

> <PUBCHEM_CACTVS_TPSA>
101

> <PUBCHEM_MONOISOTOPIC_WEIGHT>
452.350175

> <PUBCHEM_TOTAL_CHARGE>
0

> <PUBCHEM_HEAVY_ATOM_COUNT>
32

> <PUBCHEM_ATOM_DEF_STEREO_COUNT>
11

> <PUBCHEM_ATOM_UDEF_STEREO_COUNT>
0

> <PUBCHEM_BOND_DEF_STEREO_COUNT>
0

> <PUBCHEM_BOND_UDEF_STEREO_COUNT>
0

> <PUBCHEM_ISOTOPIC_ATOM_COUNT>
0

> <PUBCHEM_COMPONENT_COUNT>
1

> <PUBCHEM_CACTVS_TAUTO_COUNT>
1

> <PUBCHEM_COORDINATE_TYPE>
1
5
255

> <PUBCHEM_BONDANNOTATIONS>
12  1  6
10  23  5
11  36  6
14  40  6
16  2  6
21  27  6
25  3  6
6  20  5
7  33  6
8  34  5
9  35  6

$$$$

