   Color/Form
        White or grayish-white, crystalline powder
   from [1]HSDB

   Odor
        Odorless or with slight aromatic or phenolic odor
   from [2]HSDB

   Melting Point
        188 deg C
   from [3]HSDB

   Density/Specific Gravity
        1.73 at 25 deg C/4 deg C
   from [4]HSDB

   Dissociation Constants
        pK1= 4.82; pK2= 10.50
   from [5]HSDB

   Octanol/Water Partition Coefficient
        log Kow = 5.91 (est)
   from [6]HSDB

   Solubilities

     * Sol in dil caustic soln. A 4% sodium hydroxide soln will dissolve
       16.2% bithionol. 15.0 g/100 ml acetone; 19.0 g/100 ml polysorbate
       80; 72.5 g/100 ml dimethylacetamide; 5.0 g/100 ml lanolin at 42 deg
       C; 4.0 g/100 ml pine oil; 1.0 g/100 ml corn oil; 0.5 g/100 ml
       propylene glycol; 0.3 g/100 ml 70% ethanol
     * Freely sol in ether; sol in chloroform and dilute soln of fixed
       alkali hydroxides
     * In water, 4 mg/L at 25 deg C

   from [7]HSDB

   Spectral Properties

     * UV absorption max = 307 nm [Bruzi M, Fregert S; Contact Dermatitis
       9: 33-39 (1983)] [8]PubMed Abstract
     * IR: 2273 (Coblentz Society Spectral Collection)

   from [9]HSDB

   Vapor Pressure
        1.1X10-9 mm Hg at 37 deg C
   from [10]HSDB

   Other Chemical/Physical Properties

     * Henry's Law constant = 1.0X10-13 atm-cu m/mol at 25 deg C (est)
     * Hydroxyl radical reaction rate constant = 8.8X10-12 cu cm/molec-sec
       at 25 deg C (est)
     * log Kow= 4.13 /Bithionol sulfoxide/

   from [11]HSDB

   Computed Properties
   Molecular Weight                  356.05184 [g/mol]
   Molecular Formula                 C[12]H[6]Cl[4]O[2]S
   XLogP3-AA                         5.8
   H-Bond Donor                      2
   H-Bond Acceptor                   3
   Rotatable Bond Count              2
   Tautomer Count                    5
   Exact Mass                        355.881311
   MonoIsotopic Mass                 353.884261
   Topological Polar Surface Area    65.8
   Heavy Atom Count                  19
   Formal Charge                     0
   Complexity                        282
   Isotope Atom Count                0
   Defined Atom Stereocenter Count   0
   Undefined Atom Stereocenter Count 0
   Defined Bond Stereocenter Count   0
   Undefined Bond Stereocenter Count 0
   Covalently-Bonded Unit Count      1
   Feature 3D Donor Count            2
   Feature 3D Ring Count             2
   Effective Rotor Count             2
   Conformer Sampling RMSD           0.6
   CID Conformer Count               [12]15

References

   1. http://toxnet.nlm.nih.gov/cgi-bin/sis/search/r?dbs+hsdb:@term+@rn+@rel+97-18-7
   2. http://toxnet.nlm.nih.gov/cgi-bin/sis/search/r?dbs+hsdb:@term+@rn+@rel+97-18-7
   3. http://toxnet.nlm.nih.gov/cgi-bin/sis/search/r?dbs+hsdb:@term+@rn+@rel+97-18-7
   4. http://toxnet.nlm.nih.gov/cgi-bin/sis/search/r?dbs+hsdb:@term+@rn+@rel+97-18-7
   5. http://toxnet.nlm.nih.gov/cgi-bin/sis/search/r?dbs+hsdb:@term+@rn+@rel+97-18-7
   6. http://toxnet.nlm.nih.gov/cgi-bin/sis/search/r?dbs+hsdb:@term+@rn+@rel+97-18-7
   7. http://toxnet.nlm.nih.gov/cgi-bin/sis/search/r?dbs+hsdb:@term+@rn+@rel+97-18-7
   8. http://www.ncbi.nlm.nih.gov/entrez/query.fcgi?cmd=Retrieve&db=pubmed&dopt=Abstract&list_uids=6839737
   9. http://toxnet.nlm.nih.gov/cgi-bin/sis/search/r?dbs+hsdb:@term+@rn+@rel+97-18-7
  10. http://toxnet.nlm.nih.gov/cgi-bin/sis/search/r?dbs+hsdb:@term+@rn+@rel+97-18-7
  11. http://toxnet.nlm.nih.gov/cgi-bin/sis/search/r?dbs+hsdb:@term+@rn+@rel+97-18-7
  12. http://pubchem.ncbi.nlm.nih.gov/vw3d/vw3d.cgi?cid=2406
