   Color/Form

     * Colorless liquid
     * Slightly yellow liquid

   from [1]HSDB

   Odor

     * Delicate flowery odor
     * Mild, oily
     * WEAK CITRUS-LIME ODOR

   from [2]HSDB

   Taste
        WEAK CITRUS-LIME TASTE
   from [3]HSDB

   Boiling Point
        110-113 deg C
   from [4]HSDB

   Density/Specific Gravity
        0.8871 at 20 deg C/4 deg C
   from [5]HSDB

   Octanol/Water Partition Coefficient
        log Kow = 5.77 (est)
   from [6]HSDB

   Solubilities

     * Soluble in three volumes of 70% alcohol
     * SOL IN ALCOHOL: 1:3 IN 70% ALCOHOL
     * Solubility in alcohol: 1 mL in 1 mL 95% ethanol
     * Insoluble in water
     * In water, 1.7 mg/L at 25 deg C (est)

   from [7]HSDB

   Spectral Properties
        Index of refraction: 1.4870 at 25 deg C/D
   from [8]HSDB

   Vapor Pressure
        3.94X10-5 mm Hg at 25 deg C (est)
   from [9]HSDB

   Other Chemical/Physical Properties

     * BP: 145-146 deg C at 3 mm Hg
     * MAX ABSORPTION (ALCOHOL): 215 NM (LOG E= 3.30); 235 NM (LOG E=
       2.65); 325 NM SHOULDER (LOG E= 0.45); SADTLER REF NUMBER: 17489
       (IR, PRISM) /TRANS,TRANS-FARNESOL/
     * Liquid. SP: 111 deg C at 0.35 mm Hg. Index of refraction: 1.4872 at
       25 deg C/D; UV max: 192-195 nm (epsilon 28,500)
       /trans,trans-Farnesol/
     * FROM PETITGRAIN: BP: 131-132 DEG C @ 3 MM HG; SPECIFIC GRAVITY:
       0.8880; INDEX OF REFRACTION: 1.4891
     * FROM TOLU BALSAM: BP: 124-125 DEG C @ 2.2 MM HG; SPCIFIC GRAVITY:
       0.8883 @ 20 DEG C; INDEX OF REFRACTION: 1.4892 @ 20 DEG C/D
     * FROM CABREUVA: BP: 118-120 DEG C @ 2 MM HG; SPECIFIC GRAVITY:
       0.8886; INDEX OF REFRACTION: 1.4894
     * FROM GERANYL ACETONE: BP: 118-120 DEG C @ 2 MM HG; SPECIFIC
       GRAVITY: 0.8886; INDEX OF REFRACTION: 1.48906
     * INDEX OF REFRACTION: 1.4877 @ 20 DEG C/D; INSOL IN WATER; SOL IN
       ETHER, ACETONE; SOL IN ORGANIC SOLVENTS /TRANS,TRANS-FARNESOL/
     * Sp gr: 0.884-0.891
     * Henry's Law constant = 2.52X10-4 atm-cu m/mol at 25 deg C (est)
     * Hydroxyl radical reaction rate constant = 2.69X10-10 cu
       cm/molec-sec at 25 deg C (est)
     * Oil; BP: 156 deg C at 12 mm Hg, 120 deg C at 0.3 mm Hg; density:
       0.8908 g/cu cm at 20 deg C; index of refraction: 1.4877 at 20 deg
       C/D. Very soluble in acetone, ether, ethanol /2-cis,
       6-trans-Farnesol/
     * Oil; BP: 160 deg C at 10 mm Hg, 137 deg C at 3 mm Hg; density:
       0.888 g/cu cm at 20 deg C; index of refraction: 1.4877 at 20 deg
       C/D. Insoluble in water. Very soluble in ethanol; soluble in
       acetone, ether /2-trans, 6-trans-Farnesol/

   from [10]HSDB

   Computed Properties
   Molecular Weight                  222.36634 [g/mol]
   Molecular Formula                 C[15]H[26]O
   XLogP3-AA                         4.8
   H-Bond Donor                      1
   H-Bond Acceptor                   1
   Rotatable Bond Count              7
   Exact Mass                        222.198365
   MonoIsotopic Mass                 222.198365
   Topological Polar Surface Area    20.2
   Heavy Atom Count                  16
   Formal Charge                     0
   Complexity                        265
   Isotope Atom Count                0
   Defined Atom Stereocenter Count   0
   Undefined Atom Stereocenter Count 0
   Defined Bond Stereocenter Count   2
   Undefined Bond Stereocenter Count 0
   Covalently-Bonded Unit Count      1
   Feature 3D Acceptor Count         1
   Feature 3D Donor Count            1
   Feature 3D Hydrophobe Count       5
   Effective Rotor Count             7
   Conformer Sampling RMSD           0.8
   CID Conformer Count               [11]321

References

   1. http://toxnet.nlm.nih.gov/cgi-bin/sis/search/r?dbs+hsdb:@term+@rn+@rel+4602-84-0
   2. http://toxnet.nlm.nih.gov/cgi-bin/sis/search/r?dbs+hsdb:@term+@rn+@rel+4602-84-0
   3. http://toxnet.nlm.nih.gov/cgi-bin/sis/search/r?dbs+hsdb:@term+@rn+@rel+4602-84-0
   4. http://toxnet.nlm.nih.gov/cgi-bin/sis/search/r?dbs+hsdb:@term+@rn+@rel+4602-84-0
   5. http://toxnet.nlm.nih.gov/cgi-bin/sis/search/r?dbs+hsdb:@term+@rn+@rel+4602-84-0
   6. http://toxnet.nlm.nih.gov/cgi-bin/sis/search/r?dbs+hsdb:@term+@rn+@rel+4602-84-0
   7. http://toxnet.nlm.nih.gov/cgi-bin/sis/search/r?dbs+hsdb:@term+@rn+@rel+4602-84-0
   8. http://toxnet.nlm.nih.gov/cgi-bin/sis/search/r?dbs+hsdb:@term+@rn+@rel+4602-84-0
   9. http://toxnet.nlm.nih.gov/cgi-bin/sis/search/r?dbs+hsdb:@term+@rn+@rel+4602-84-0
  10. http://toxnet.nlm.nih.gov/cgi-bin/sis/search/r?dbs+hsdb:@term+@rn+@rel+4602-84-0
  11. http://pubchem.ncbi.nlm.nih.gov/vw3d/vw3d.cgi?cid=445070
