4690
  -OEChem-06261200172D

 22 23  0     0  0  0  0  0  0999 V2000
    2.0000   -2.1739    0.0000 Cl  0  0  0  0  0  0  0  0  0  0  0  0
    3.7320   -3.1739    0.0000 Cl  0  0  0  0  0  0  0  0  0  0  0  0
    2.9230    1.4139    0.0000 O   0  0  0  0  0  0  0  0  0  0  0  0
    5.4921    1.1048    0.0000 O   0  0  0  0  0  0  0  0  0  0  0  0
    2.6443    3.1739    0.0000 O   0  0  0  0  0  0  0  0  0  0  0  0
    3.7320    0.8261    0.0000 N   0  0  0  0  0  0  0  0  0  0  0  0
    4.2320    2.3649    0.0000 N   0  0  0  0  0  0  0  0  0  0  0  0
    3.7320   -0.1739    0.0000 C   0  0  0  0  0  0  0  0  0  0  0  0
    4.5411    1.4139    0.0000 C   0  0  0  0  0  0  0  0  0  0  0  0
    3.2320    2.3649    0.0000 C   0  0  0  0  0  0  0  0  0  0  0  0
    2.8660   -0.6739    0.0000 C   0  0  0  0  0  0  0  0  0  0  0  0
    4.5981   -0.6739    0.0000 C   0  0  0  0  0  0  0  0  0  0  0  0
    4.8198    3.1739    0.0000 C   0  0  0  0  0  0  0  0  0  0  0  0
    2.8660   -1.6739    0.0000 C   0  0  0  0  0  0  0  0  0  0  0  0
    4.5981   -1.6739    0.0000 C   0  0  0  0  0  0  0  0  0  0  0  0
    3.7320   -2.1739    0.0000 C   0  0  0  0  0  0  0  0  0  0  0  0
    2.3291   -0.3639    0.0000 H   0  0  0  0  0  0  0  0  0  0  0  0
    5.1350   -0.3639    0.0000 H   0  0  0  0  0  0  0  0  0  0  0  0
    5.3214    2.8095    0.0000 H   0  0  0  0  0  0  0  0  0  0  0  0
    5.1843    3.6755    0.0000 H   0  0  0  0  0  0  0  0  0  0  0  0
    4.3182    3.5384    0.0000 H   0  0  0  0  0  0  0  0  0  0  0  0
    5.1350   -1.9839    0.0000 H   0  0  0  0  0  0  0  0  0  0  0  0
  1 14  1  0  0  0  0
  2 16  1  0  0  0  0
  3  6  1  0  0  0  0
  3 10  1  0  0  0  0
  4  9  2  0  0  0  0
  5 10  2  0  0  0  0
  6  8  1  0  0  0  0
  6  9  1  0  0  0  0
  7  9  1  0  0  0  0
  7 10  1  0  0  0  0
  7 13  1  0  0  0  0
  8 11  2  0  0  0  0
  8 12  1  0  0  0  0
 11 14  1  0  0  0  0
 11 17  1  0  0  0  0
 12 15  2  0  0  0  0
 12 18  1  0  0  0  0
 13 19  1  0  0  0  0
 13 20  1  0  0  0  0
 13 21  1  0  0  0  0
 14 16  2  0  0  0  0
 15 16  1  0  0  0  0
 15 22  1  0  0  0  0
M  END
> <PUBCHEM_COMPOUND_CID>
4690

> <PUBCHEM_COMPOUND_CANONICALIZED>
1

> <PUBCHEM_CACTVS_COMPLEXITY>
326

> <PUBCHEM_CACTVS_HBOND_ACCEPTOR>
3

> <PUBCHEM_CACTVS_HBOND_DONOR>
0

> <PUBCHEM_CACTVS_ROTATABLE_BOND>
1

> <PUBCHEM_CACTVS_SUBSKEYS>
AAADcYBzMAAGAAAAAAAAAAAAAAAAAWAAAAAwAAAAAAAAAAABAAAAHgIEAAAACAqBECQzyIMQAACIACRCWACCAAAhBwAoikAIZoiIICLBk5GEIAhohyJIyCcQAAAAAABAAAIAAAQAAIAABAAACAAAAAAAAA==

> <PUBCHEM_IUPAC_OPENEYE_NAME>
2-(3,4-dichlorophenyl)-4-methyl-1,2,4-oxadiazolidine-3,5-dione

> <PUBCHEM_IUPAC_CAS_NAME>
2-(3,4-dichlorophenyl)-4-methyl-1,2,4-oxadiazolidine-3,5-dione

> <PUBCHEM_IUPAC_NAME>
2-(3,4-dichlorophenyl)-4-methyl-1,2,4-oxadiazolidine-3,5-dione

> <PUBCHEM_IUPAC_SYSTEMATIC_NAME>
2-(3,4-dichlorophenyl)-4-methyl-1,2,4-oxadiazolidine-3,5-dione

> <PUBCHEM_IUPAC_TRADITIONAL_NAME>
2-(3,4-dichlorophenyl)-4-methyl-1,2,4-oxadiazolidine-3,5-quinone

> <PUBCHEM_IUPAC_INCHI>
InChI=1S/C9H6Cl2N2O3/c1-12-8(14)13(16-9(12)15)5-2-3-6(10)7(11)4-5/h2-4H,1H3

> <PUBCHEM_IUPAC_INCHIKEY>
LRUUNMYPIBZBQH-UHFFFAOYSA-N

> <PUBCHEM_XLOGP3_AA>
2.7

> <PUBCHEM_EXACT_MASS>
259.975547

> <PUBCHEM_MOLECULAR_FORMULA>
C9H6Cl2N2O3

> <PUBCHEM_MOLECULAR_WEIGHT>
261.06154

> <PUBCHEM_OPENEYE_CAN_SMILES>
CN1C(=O)N(OC1=O)C2=CC(=C(C=C2)Cl)Cl

> <PUBCHEM_OPENEYE_ISO_SMILES>
CN1C(=O)N(OC1=O)C2=CC(=C(C=C2)Cl)Cl

> <PUBCHEM_CACTVS_TPSA>
49.8

> <PUBCHEM_MONOISOTOPIC_WEIGHT>
259.975547

> <PUBCHEM_TOTAL_CHARGE>
0

> <PUBCHEM_HEAVY_ATOM_COUNT>
16

> <PUBCHEM_ATOM_DEF_STEREO_COUNT>
0

> <PUBCHEM_ATOM_UDEF_STEREO_COUNT>
0

> <PUBCHEM_BOND_DEF_STEREO_COUNT>
0

> <PUBCHEM_BOND_UDEF_STEREO_COUNT>
0

> <PUBCHEM_ISOTOPIC_ATOM_COUNT>
0

> <PUBCHEM_COMPONENT_COUNT>
1

> <PUBCHEM_CACTVS_TAUTO_COUNT>
1

> <PUBCHEM_COORDINATE_TYPE>
1
5
255

> <PUBCHEM_BONDANNOTATIONS>
11  14  8
12  15  8
14  16  8
15  16  8
3  10  8
3  6  8
6  9  8
7  10  8
7  9  8
8  11  8
8  12  8

$$$$

