5462434
  -OEChem-07051212572D

 79 88  0     1  0  0  0  0  0999 V2000
    5.0393    1.2485    0.0000 O   0  0  0  0  0  0  0  0  0  0  0  0
    5.4026    0.2264    0.0000 O   0  0  0  0  0  0  0  0  0  0  0  0
    2.8680    2.1683    0.0000 O   0  0  0  0  0  0  0  0  0  0  0  0
    8.0935   -2.5103    0.0000 O   0  0  0  0  0  0  0  0  0  0  0  0
    9.6628   -3.3209    0.0000 O   0  0  0  0  0  0  0  0  0  0  0  0
    7.1456   -4.1194    0.0000 O   0  0  0  0  0  0  0  0  0  0  0  0
    5.1175   -4.1460    0.0000 O   0  0  0  0  0  0  0  0  0  0  0  0
    7.9480    0.6918    0.0000 N   0  0  3  0  0  0  0  0  0  0  0  0
    6.8422    3.6833    0.0000 N   0  0  3  0  0  0  0  0  0  0  0  0
    6.3981    2.1924    0.0000 C   0  0  2  0  0  0  0  0  0  0  0  0
    7.2641    2.6924    0.0000 C   0  0  2  0  0  0  0  0  0  0  0  0
    6.0330    1.2681    0.0000 C   0  0  1  0  0  0  0  0  0  0  0  0
    7.0012    1.0137    0.0000 C   0  0  1  0  0  0  0  0  0  0  0  0
    7.6559    1.7711    0.0000 C   0  0  0  0  0  0  0  0  0  0  0  0
    7.2641    3.6924    0.0000 C   0  0  2  0  0  0  0  0  0  0  0  0
    6.1950    2.5623    0.0000 C   0  0  0  0  0  0  0  0  0  0  0  0
    5.5320    2.6924    0.0000 C   0  0  0  0  0  0  0  0  0  0  0  0
    6.3981    4.1924    0.0000 C   0  0  0  0  0  0  0  0  0  0  0  0
    6.1114    3.3580    0.0000 C   0  0  0  0  0  0  0  0  0  0  0  0
    5.5320    3.6924    0.0000 C   0  0  0  0  0  0  0  0  0  0  0  0
    4.6381    2.1578    0.0000 C   0  0  0  0  0  0  0  0  0  0  0  0
    6.4025    0.2128    0.0000 C   0  0  0  0  0  0  0  0  0  0  0  0
    7.9344   -0.3081    0.0000 C   0  0  0  0  0  0  0  0  0  0  0  0
    6.9792   -0.6042    0.0000 C   0  0  0  0  0  0  0  0  0  0  0  0
    8.8331    1.1228    0.0000 C   0  0  0  0  0  0  0  0  0  0  0  0
    7.0501    4.6615    0.0000 C   0  0  0  0  0  0  0  0  0  0  0  0
    4.6381    4.2271    0.0000 C   0  0  0  0  0  0  0  0  0  0  0  0
    3.7320    2.6716    0.0000 C   0  0  0  0  0  0  0  0  0  0  0  0
    8.7418   -0.8649    0.0000 C   0  0  0  0  0  0  0  0  0  0  0  0
    9.6556    0.5818    0.0000 C   0  0  0  0  0  0  0  0  0  0  0  0
    3.7320    3.7132    0.0000 C   0  0  0  0  0  0  0  0  0  0  0  0
    6.6283   -1.5200    0.0000 C   0  0  0  0  0  0  0  0  0  0  0  0
    9.6104   -0.4016    0.0000 C   0  0  0  0  0  0  0  0  0  0  0  0
    8.8125   -1.8432    0.0000 C   0  0  0  0  0  0  0  0  0  0  0  0
    7.1233   -2.3668    0.0000 C   0  0  0  0  0  0  0  0  0  0  0  0
   10.4612   -0.8598    0.0000 C   0  0  0  0  0  0  0  0  0  0  0  0
    5.6067   -1.5098    0.0000 C   0  0  0  0  0  0  0  0  0  0  0  0
    9.6525   -2.3209    0.0000 C   0  0  0  0  0  0  0  0  0  0  0  0
   10.4824   -1.8259    0.0000 C   0  0  0  0  0  0  0  0  0  0  0  0
    6.6310   -3.2620    0.0000 C   0  0  0  0  0  0  0  0  0  0  0  0
    2.0000    2.6649    0.0000 C   0  0  0  0  0  0  0  0  0  0  0  0
    5.0939   -2.3934    0.0000 C   0  0  0  0  0  0  0  0  0  0  0  0
    5.6095   -3.2753    0.0000 C   0  0  0  0  0  0  0  0  0  0  0  0
   10.5339   -3.8119    0.0000 C   0  0  0  0  0  0  0  0  0  0  0  0
    4.1176   -4.1552    0.0000 C   0  0  0  0  0  0  0  0  0  0  0  0
    8.0002    2.2674    0.0000 H   0  0  0  0  0  0  0  0  0  0  0  0
    5.9324    0.4241    0.0000 H   0  0  0  0  0  0  0  0  0  0  0  0
    8.0582    1.2994    0.0000 H   0  0  0  0  0  0  0  0  0  0  0  0
    8.1832    2.0974    0.0000 H   0  0  0  0  0  0  0  0  0  0  0  0
    7.6891    4.4285    0.0000 H   0  0  0  0  0  0  0  0  0  0  0  0
    5.6002    2.7375    0.0000 H   0  0  0  0  0  0  0  0  0  0  0  0
    6.7867    2.7476    0.0000 H   0  0  0  0  0  0  0  0  0  0  0  0
    6.7966    4.6674    0.0000 H   0  0  0  0  0  0  0  0  0  0  0  0
    5.9995    4.6674    0.0000 H   0  0  0  0  0  0  0  0  0  0  0  0
    5.9198    3.9476    0.0000 H   0  0  0  0  0  0  0  0  0  0  0  0
    5.5049    3.2290    0.0000 H   0  0  0  0  0  0  0  0  0  0  0  0
    9.2604    1.5720    0.0000 H   0  0  0  0  0  0  0  0  0  0  0  0
    8.4670    1.6231    0.0000 H   0  0  0  0  0  0  0  0  0  0  0  0
    4.6453    4.8470    0.0000 H   0  0  0  0  0  0  0  0  0  0  0  0
    7.6566    4.5326    0.0000 H   0  0  0  0  0  0  0  0  0  0  0  0
    7.1790    5.2679    0.0000 H   0  0  0  0  0  0  0  0  0  0  0  0
    6.4436    4.7904    0.0000 H   0  0  0  0  0  0  0  0  0  0  0  0
   10.2601    0.4437    0.0000 H   0  0  0  0  0  0  0  0  0  0  0  0
    9.8989    1.1521    0.0000 H   0  0  0  0  0  0  0  0  0  0  0  0
    3.1963    4.0253    0.0000 H   0  0  0  0  0  0  0  0  0  0  0  0
   10.9900   -0.5361    0.0000 H   0  0  0  0  0  0  0  0  0  0  0  0
    5.3001   -0.9710    0.0000 H   0  0  0  0  0  0  0  0  0  0  0  0
   11.0248   -2.1262    0.0000 H   0  0  0  0  0  0  0  0  0  0  0  0
    2.3079    3.2030    0.0000 H   0  0  0  0  0  0  0  0  0  0  0  0
    1.4619    2.9728    0.0000 H   0  0  0  0  0  0  0  0  0  0  0  0
    1.6921    2.1268    0.0000 H   0  0  0  0  0  0  0  0  0  0  0  0
    4.4739   -2.3943    0.0000 H   0  0  0  0  0  0  0  0  0  0  0  0
    6.8448   -4.6615    0.0000 H   0  0  0  0  0  0  0  0  0  0  0  0
   10.2295   -4.3520    0.0000 H   0  0  0  0  0  0  0  0  0  0  0  0
   11.0741   -4.1163    0.0000 H   0  0  0  0  0  0  0  0  0  0  0  0
   10.8384   -3.2718    0.0000 H   0  0  0  0  0  0  0  0  0  0  0  0
    4.1118   -3.5352    0.0000 H   0  0  0  0  0  0  0  0  0  0  0  0
    3.4976   -4.1610    0.0000 H   0  0  0  0  0  0  0  0  0  0  0  0
    4.1233   -4.7752    0.0000 H   0  0  0  0  0  0  0  0  0  0  0  0
  1 12  1  0  0  0  0
  1 21  1  0  0  0  0
  2 22  2  0  0  0  0
  3 28  1  0  0  0  0
  3 41  1  0  0  0  0
  4 34  1  0  0  0  0
  4 35  1  0  0  0  0
  5 38  1  0  0  0  0
  5 44  1  0  0  0  0
  6 40  1  0  0  0  0
  6 73  1  0  0  0  0
  7 43  1  0  0  0  0
  7 45  1  0  0  0  0
  8 13  1  0  0  0  0
  8 23  1  0  0  0  0
  8 25  1  0  0  0  0
  9 15  1  0  0  0  0
  9 19  1  0  0  0  0
  9 26  1  0  0  0  0
 10 11  1  0  0  0  0
 10 12  1  0  0  0  0
 10 16  1  6  0  0  0
 10 17  1  0  0  0  0
 11 14  1  0  0  0  0
 11 15  1  0  0  0  0
 11 46  1  6  0  0  0
 12 13  1  0  0  0  0
 12 47  1  6  0  0  0
 13 14  1  6  0  0  0
 13 22  1  0  0  0  0
 14 48  1  0  0  0  0
 14 49  1  0  0  0  0
 15 18  1  0  0  0  0
 15 50  1  6  0  0  0
 16 19  1  0  0  0  0
 16 51  1  0  0  0  0
 16 52  1  0  0  0  0
 17 20  2  0  0  0  0
 17 21  1  0  0  0  0
 18 20  1  0  0  0  0
 18 53  1  0  0  0  0
 18 54  1  0  0  0  0
 19 55  1  0  0  0  0
 19 56  1  0  0  0  0
 20 27  1  0  0  0  0
 21 28  2  0  0  0  0
 22 24  1  0  0  0  0
 23 24  2  0  0  0  0
 23 29  1  0  0  0  0
 24 32  1  0  0  0  0
 25 30  1  0  0  0  0
 25 57  1  0  0  0  0
 25 58  1  0  0  0  0
 26 60  1  0  0  0  0
 26 61  1  0  0  0  0
 26 62  1  0  0  0  0
 27 31  2  0  0  0  0
 27 59  1  0  0  0  0
 28 31  1  0  0  0  0
 29 33  2  0  0  0  0
 29 34  1  0  0  0  0
 30 33  1  0  0  0  0
 30 63  1  0  0  0  0
 30 64  1  0  0  0  0
 31 65  1  0  0  0  0
 32 35  2  0  0  0  0
 32 37  1  0  0  0  0
 33 36  1  0  0  0  0
 34 38  2  0  0  0  0
 35 40  1  0  0  0  0
 36 39  2  0  0  0  0
 36 66  1  0  0  0  0
 37 42  2  0  0  0  0
 37 67  1  0  0  0  0
 38 39  1  0  0  0  0
 39 68  1  0  0  0  0
 40 43  2  0  0  0  0
 41 69  1  0  0  0  0
 41 70  1  0  0  0  0
 41 71  1  0  0  0  0
 42 43  1  0  0  0  0
 42 72  1  0  0  0  0
 44 74  1  0  0  0  0
 44 75  1  0  0  0  0
 44 76  1  0  0  0  0
 45 77  1  0  0  0  0
 45 78  1  0  0  0  0
 45 79  1  0  0  0  0
M  END
> <PUBCHEM_COMPOUND_CID>
5462434

> <PUBCHEM_COMPOUND_CANONICALIZED>
1

> <PUBCHEM_CACTVS_COMPLEXITY>
1310

> <PUBCHEM_CACTVS_HBOND_ACCEPTOR>
9

> <PUBCHEM_CACTVS_HBOND_DONOR>
1

> <PUBCHEM_CACTVS_ROTATABLE_BOND>
3

> <PUBCHEM_CACTVS_SUBSKEYS>
AAADcfB/OAAAAAAAAAAAAAAAAAAAAaIEAAA8eMGCBAAWJFjxUAAAHgAACAAAD7zhmAYyBoMABgCIAqRSQACCCAAgIAAIiAGOjMgPJzaGtTuHeCvn4BWbuUe6/f/foAABCAAYQADQAAaQADSAAaAADAgAAA==

> <PUBCHEM_IUPAC_INCHI>
InChI=1S/C36H34N2O7/c1-37-14-12-35-20-16-36(34(35)45-32-24(43-4)9-6-18(27(32)35)15-21(20)37)33(40)26-19-7-10-22(41-2)29(39)30(19)44-31-23(42-3)8-5-17-11-13-38(36)28(26)25(17)31/h5-10,20-21,34,39H,11-16H2,1-4H3/t20-,21+,34+,35-,36+/m1/s1

> <PUBCHEM_IUPAC_INCHIKEY>
XWPPHGONALRWBY-SMUAMFJKSA-N

> <PUBCHEM_XLOGP3_AA>
4.8

> <PUBCHEM_EXACT_MASS>
606.236601

> <PUBCHEM_MOLECULAR_FORMULA>
C36H34N2O7

> <PUBCHEM_MOLECULAR_WEIGHT>
606.66436

> <PUBCHEM_OPENEYE_CAN_SMILES>
CN1CCC23C4C1CC5=C2C(=C(C=C5)OC)OC3C6(C4)C(=O)C7=C8N6CCC9=C8C(=C(C=C9)OC)OC1=C7C=CC(=C1O)OC

> <PUBCHEM_OPENEYE_ISO_SMILES>
CN1CC[C@@]23[C@H]4[C@@H]1CC5=C2C(=C(C=C5)OC)O[C@@H]3[C@]6(C4)C(=O)C7=C8N6CCC9=C8C(=C(C=C9)OC)OC1=C7C=CC(=C1O)OC

> <PUBCHEM_CACTVS_TPSA>
89.9

> <PUBCHEM_MONOISOTOPIC_WEIGHT>
606.236601

> <PUBCHEM_TOTAL_CHARGE>
0

> <PUBCHEM_HEAVY_ATOM_COUNT>
45

> <PUBCHEM_ATOM_DEF_STEREO_COUNT>
5

> <PUBCHEM_ATOM_UDEF_STEREO_COUNT>
0

> <PUBCHEM_BOND_DEF_STEREO_COUNT>
0

> <PUBCHEM_BOND_UDEF_STEREO_COUNT>
0

> <PUBCHEM_ISOTOPIC_ATOM_COUNT>
0

> <PUBCHEM_COMPONENT_COUNT>
1

> <PUBCHEM_CACTVS_TAUTO_COUNT>
21

> <PUBCHEM_COORDINATE_TYPE>
1
5
255

> <PUBCHEM_BONDANNOTATIONS>
10  16  6
11  46  6
12  47  6
13  14  6
15  50  6
17  20  8
17  21  8
20  27  8
21  28  8
27  31  8
28  31  8
29  33  8
29  34  8
32  35  8
32  37  8
33  36  8
34  38  8
35  40  8
36  39  8
37  42  8
38  39  8
40  43  8
42  43  8

$$$$

