267247
  -OEChem-07051212572D

 44 46  0     1  0  0  0  0  0999 V2000
    6.2196   -2.4730    0.0000 O   0  0  0  0  0  0  0  0  0  0  0  0
    3.6015   -0.6579    0.0000 O   0  0  0  0  0  0  0  0  0  0  0  0
    7.2286    2.5148    0.0000 O   0  0  0  0  0  0  0  0  0  0  0  0
    8.9684    2.8730    0.0000 O   0  0  0  0  0  0  0  0  0  0  0  0
    3.3720   -2.3747    0.0000 O   0  0  0  0  0  0  0  0  0  0  0  0
    6.1788   -0.5040    0.0000 C   0  0  2  0  0  0  0  0  0  0  0  0
    5.2778   -0.0701    0.0000 C   0  0  2  0  0  0  0  0  0  0  0  0
    6.0428   -1.4887    0.0000 C   0  0  1  0  0  0  0  0  0  0  0  0
    4.5927   -0.7904    0.0000 C   0  0  2  0  0  0  0  0  0  0  0  0
    5.0645   -1.6654    0.0000 C   0  0  0  0  0  0  0  0  0  0  0  0
    7.0798   -0.0701    0.0000 C   0  0  0  0  0  0  0  0  0  0  0  0
    7.3023    0.9048    0.0000 C   0  0  1  0  0  0  0  0  0  0  0  0
    5.0553    0.9048    0.0000 C   0  0  0  0  0  0  0  0  0  0  0  0
    6.6788    1.6866    0.0000 C   0  0  2  0  0  0  0  0  0  0  0  0
    7.0335   -1.6247    0.0000 C   0  0  0  0  0  0  0  0  0  0  0  0
    5.6788    1.6866    0.0000 C   0  0  0  0  0  0  0  0  0  0  0  0
    8.2321    1.2565    0.0000 C   0  0  0  0  0  0  0  0  0  0  0  0
    4.0804    1.1273    0.0000 C   0  0  0  0  0  0  0  0  0  0  0  0
    8.1866    2.2496    0.0000 C   0  0  0  0  0  0  0  0  0  0  0  0
    9.0676    0.7071    0.0000 C   0  0  0  0  0  0  0  0  0  0  0  0
    2.9912   -1.4500    0.0000 C   0  0  0  0  0  0  0  0  0  0  0  0
    2.0000   -1.3175    0.0000 C   0  0  0  0  0  0  0  0  0  0  0  0
    6.8658   -1.0045    0.0000 H   0  0  0  0  0  0  0  0  0  0  0  0
    4.4582    0.1549    0.0000 H   0  0  0  0  0  0  0  0  0  0  0  0
    4.3867   -0.2057    0.0000 H   0  0  0  0  0  0  0  0  0  0  0  0
    4.4909   -1.9007    0.0000 H   0  0  0  0  0  0  0  0  0  0  0  0
    5.2382   -2.2606    0.0000 H   0  0  0  0  0  0  0  0  0  0  0  0
    7.2177   -0.6746    0.0000 H   0  0  0  0  0  0  0  0  0  0  0  0
    7.6998   -0.0701    0.0000 H   0  0  0  0  0  0  0  0  0  0  0  0
    7.9431    0.3464    0.0000 H   0  0  0  0  0  0  0  0  0  0  0  0
    6.2770    2.4357    0.0000 H   0  0  0  0  0  0  0  0  0  0  0  0
    6.9492   -2.2389    0.0000 H   0  0  0  0  0  0  0  0  0  0  0  0
    7.6478   -1.7090    0.0000 H   0  0  0  0  0  0  0  0  0  0  0  0
    7.1178   -1.0104    0.0000 H   0  0  0  0  0  0  0  0  0  0  0  0
    5.4098    2.2452    0.0000 H   0  0  0  0  0  0  0  0  0  0  0  0
    5.7460   -2.8730    0.0000 H   0  0  0  0  0  0  0  0  0  0  0  0
    4.2183    1.7318    0.0000 H   0  0  0  0  0  0  0  0  0  0  0  0
    3.4759    1.2653    0.0000 H   0  0  0  0  0  0  0  0  0  0  0  0
    3.9424    0.5229    0.0000 H   0  0  0  0  0  0  0  0  0  0  0  0
    9.0316    0.0881    0.0000 H   0  0  0  0  0  0  0  0  0  0  0  0
    9.6216    0.9854    0.0000 H   0  0  0  0  0  0  0  0  0  0  0  0
    2.0822   -0.7030    0.0000 H   0  0  0  0  0  0  0  0  0  0  0  0
    1.3855   -1.2354    0.0000 H   0  0  0  0  0  0  0  0  0  0  0  0
    1.9178   -1.9320    0.0000 H   0  0  0  0  0  0  0  0  0  0  0  0
  8  1  1  6  0  0  0
  1 36  1  0  0  0  0
  9  2  1  6  0  0  0
  2 21  1  0  0  0  0
  3 14  1  0  0  0  0
  3 19  1  0  0  0  0
  4 19  2  0  0  0  0
  5 21  2  0  0  0  0
  6  7  1  0  0  0  0
  6  8  1  0  0  0  0
  6 11  1  0  0  0  0
  6 23  1  6  0  0  0
  7  9  1  0  0  0  0
  7 13  1  0  0  0  0
  7 24  1  1  0  0  0
  8 10  1  0  0  0  0
  8 15  1  0  0  0  0
  9 10  1  0  0  0  0
  9 25  1  0  0  0  0
 10 26  1  0  0  0  0
 10 27  1  0  0  0  0
 11 12  1  0  0  0  0
 11 28  1  0  0  0  0
 11 29  1  0  0  0  0
 12 14  1  0  0  0  0
 12 17  1  0  0  0  0
 12 30  1  6  0  0  0
 13 16  2  0  0  0  0
 13 18  1  0  0  0  0
 14 16  1  0  0  0  0
 14 31  1  1  0  0  0
 15 32  1  0  0  0  0
 15 33  1  0  0  0  0
 15 34  1  0  0  0  0
 16 35  1  0  0  0  0
 17 19  1  0  0  0  0
 17 20  2  0  0  0  0
 18 37  1  0  0  0  0
 18 38  1  0  0  0  0
 18 39  1  0  0  0  0
 20 40  1  0  0  0  0
 20 41  1  0  0  0  0
 21 22  1  0  0  0  0
 22 42  1  0  0  0  0
 22 43  1  0  0  0  0
 22 44  1  0  0  0  0
M  END
> <PUBCHEM_COMPOUND_CID>
267247

> <PUBCHEM_COMPOUND_CANONICALIZED>
1

> <PUBCHEM_CACTVS_COMPLEXITY>
578

> <PUBCHEM_CACTVS_HBOND_ACCEPTOR>
5

> <PUBCHEM_CACTVS_HBOND_DONOR>
1

> <PUBCHEM_CACTVS_ROTATABLE_BOND>
2

> <PUBCHEM_CACTVS_SUBSKEYS>
AAADceB4OAAAAAAAAAAAAAAAAAAAAaIAAAAAAAAABAAAAACAAAAAGgAACAAADVSggAICCAAABgCIAiDSCAAAAAAgAAAACAEAAEgABBIAIQACUAAFwAAIIIPK6PyOgAAAAAAAAAAAAAAAAAAAAYQADAAAAA==

> <PUBCHEM_IUPAC_OPENEYE_NAME>
[(3aS,5aS,6S,8R,8aR,9aR)-8-hydroxy-5,8-dimethyl-1-methylene-2-oxo-5a,6,7,8a,9,9a-hexahydro-3aH-azuleno[6,5-b]furan-6-yl] acetate

> <PUBCHEM_IUPAC_CAS_NAME>
acetic acid [(3aS,5aS,6S,8R,8aR,9aR)-8-hydroxy-5,8-dimethyl-1-methylene-2-oxo-5a,6,7,8a,9,9a-hexahydro-3aH-azuleno[6,5-b]furan-6-yl] ester

> <PUBCHEM_IUPAC_NAME>
[(3aS,5aS,6S,8R,8aR,9aR)-8-hydroxy-5,8-dimethyl-1-methylidene-2-oxo-5a,6,7,8a,9,9a-hexahydro-3aH-azuleno[6,5-b]furan-6-yl] acetate

> <PUBCHEM_IUPAC_SYSTEMATIC_NAME>
[(3aS,5aS,6S,8R,8aR,9aR)-5,8-dimethyl-1-methylidene-8-oxidanyl-2-oxidanylidene-5a,6,7,8a,9,9a-hexahydro-3aH-azuleno[6,5-b]furan-6-yl] ethanoate

> <PUBCHEM_IUPAC_TRADITIONAL_NAME>
acetic acid [(3aS,5aS,6S,8R,8aR,9aR)-8-hydroxy-2-keto-5,8-dimethyl-1-methylene-5a,6,7,8a,9,9a-hexahydro-3aH-azuleno[6,5-b]furan-6-yl] ester

> <PUBCHEM_IUPAC_INCHI>
InChI=1S/C17H22O5/c1-8-5-13-11(9(2)16(19)22-13)6-12-15(8)14(21-10(3)18)7-17(12,4)20/h5,11-15,20H,2,6-7H2,1,3-4H3/t11-,12-,13+,14+,15-,17-/m1/s1

> <PUBCHEM_IUPAC_INCHIKEY>
UTPGJEROJZHISI-DFGCRIRUSA-N

> <PUBCHEM_XLOGP3_AA>
1.2

> <PUBCHEM_EXACT_MASS>
306.146724

> <PUBCHEM_MOLECULAR_FORMULA>
C17H22O5

> <PUBCHEM_MOLECULAR_WEIGHT>
306.35358

> <PUBCHEM_OPENEYE_CAN_SMILES>
CC1=CC2C(CC3C1C(CC3(C)O)OC(=O)C)C(=C)C(=O)O2

> <PUBCHEM_OPENEYE_ISO_SMILES>
CC1=C[C@H]2[C@H](C[C@@H]3[C@@H]1[C@H](C[C@@]3(C)O)OC(=O)C)C(=C)C(=O)O2

> <PUBCHEM_CACTVS_TPSA>
72.8

> <PUBCHEM_MONOISOTOPIC_WEIGHT>
306.146724

> <PUBCHEM_TOTAL_CHARGE>
0

> <PUBCHEM_HEAVY_ATOM_COUNT>
22

> <PUBCHEM_ATOM_DEF_STEREO_COUNT>
6

> <PUBCHEM_ATOM_UDEF_STEREO_COUNT>
0

> <PUBCHEM_BOND_DEF_STEREO_COUNT>
0

> <PUBCHEM_BOND_UDEF_STEREO_COUNT>
0

> <PUBCHEM_ISOTOPIC_ATOM_COUNT>
0

> <PUBCHEM_COMPONENT_COUNT>
1

> <PUBCHEM_CACTVS_TAUTO_COUNT>
1

> <PUBCHEM_COORDINATE_TYPE>
1
5
255

> <PUBCHEM_BONDANNOTATIONS>
8  1  6
12  30  6
14  31  5
9  2  6
6  23  6
7  24  5

$$$$

