   Color/Form

     * CLEAR, COLORLESS TO YELLOWISH LIQUID
     * OILY LIQUID

   from [1]HSDB

   Odor
        PENETRATING
   from [2]HSDB

   Boiling Point
        220.8 DEG C AT 760 MM HG; 129 DEG C AT 60 MM HG; 105 DEG C AT 25
   MM HG
   from [3]HSDB

   Melting Point
        -5.0 DEG C
   from [4]HSDB

   Density/Specific Gravity
        1.3756 AT 20 DEG C/4 DEG C
   from [5]HSDB

   Heat of Combustion
        3684 kJ/mol @ constant pressure
   from [6]HSDB

   Heat of Vaporization
        12,168.6 G CAL/G MOLE
   from [7]HSDB

   Octanol/Water Partition Coefficient
        log Kow= 2.92
   from [8]HSDB

   Solubilities

     * ... Soluble in ... diethyl ether ... .
     * Water solubility = 53 mg/L at 5 deg C

   from [9]HSDB

   Spectral Properties

     * INDEX OF REFRACTION: 1.55789 AT 20 DEG C/D
     * MAX ABSORPTION (CYCLOHEXANE): 262 NM (LOG E= 2.6); 267 NM (LOG E=
       2.7); 274 NM (LOG E= 2.6)
     * IR: 227 (Sadtler Research Laboratories IR Grating Collection)
     * UV: 380 (Sadtler Research Laboratories Spectral Collection)
     * NMR: 90 (Sadtler Research Laboratories Spectral Collection)
     * MASS: 1081 (National Bureau of Standards EPA-NIH Mass Spectra Data
       Base, NSRDS-NBS-63)

   from [10]HSDB

   Surface Tension
        38.03 mN/m at 20 deg C
   from [11]HSDB

   Vapor Density
        6.77 (AIR= 1)
   from [12]HSDB

   Vapor Pressure
        Vapor pressure = 0.4137 mm Hg at 25 deg C
   from [13]HSDB

   Viscosity
        Dynamic viscosity = 2.40 mPa.s @ 20 deg C
   from [14]HSDB

   Other Chemical/Physical Properties

     * CONVERSION FACTOR: 1 PPM= 0.125 MG/CU M
     * Hydrolyzes in presence of moisture
     * Dielectric constant= 6.9 at 21 deg C; dipole moment= 2.17
       coulomb.meters at 20 deg C in benzene.
     * Vapor pressure = 1.35 mm Hg @ 50 deg C; 5.4 mm Hg @ 75 deg C
     * Fumes in air.
     * Liquid molar volume = 0.142809 cu m/kmol

   from [15]HSDB

   Computed Properties
   Molecular Weight                  195.4736 [g/mol]
   Molecular Formula                 C[7]H[5]Cl[3]
   XLogP3                            3.7
   H-Bond Donor                      0
   H-Bond Acceptor                   0
   Rotatable Bond Count              0
   Exact Mass                        193.945683
   MonoIsotopic Mass                 193.945683
   Topological Polar Surface Area    0
   Heavy Atom Count                  10
   Formal Charge                     0
   Complexity                        99.9
   Isotope Atom Count                0
   Defined Atom Stereocenter Count   0
   Undefined Atom Stereocenter Count 0
   Defined Bond Stereocenter Count   0
   Undefined Bond Stereocenter Count 0
   Covalently-Bonded Unit Count      1
   Feature 3D Ring Count             1
   Effective Rotor Count             1
   Conformer Sampling RMSD           0.4
   CID Conformer Count               [16]1

References

   1. http://toxnet.nlm.nih.gov/cgi-bin/sis/search/r?dbs+hsdb:@term+@rn+@rel+98-07-7
   2. http://toxnet.nlm.nih.gov/cgi-bin/sis/search/r?dbs+hsdb:@term+@rn+@rel+98-07-7
   3. http://toxnet.nlm.nih.gov/cgi-bin/sis/search/r?dbs+hsdb:@term+@rn+@rel+98-07-7
   4. http://toxnet.nlm.nih.gov/cgi-bin/sis/search/r?dbs+hsdb:@term+@rn+@rel+98-07-7
   5. http://toxnet.nlm.nih.gov/cgi-bin/sis/search/r?dbs+hsdb:@term+@rn+@rel+98-07-7
   6. http://toxnet.nlm.nih.gov/cgi-bin/sis/search/r?dbs+hsdb:@term+@rn+@rel+98-07-7
   7. http://toxnet.nlm.nih.gov/cgi-bin/sis/search/r?dbs+hsdb:@term+@rn+@rel+98-07-7
   8. http://toxnet.nlm.nih.gov/cgi-bin/sis/search/r?dbs+hsdb:@term+@rn+@rel+98-07-7
   9. http://toxnet.nlm.nih.gov/cgi-bin/sis/search/r?dbs+hsdb:@term+@rn+@rel+98-07-7
  10. http://toxnet.nlm.nih.gov/cgi-bin/sis/search/r?dbs+hsdb:@term+@rn+@rel+98-07-7
  11. http://toxnet.nlm.nih.gov/cgi-bin/sis/search/r?dbs+hsdb:@term+@rn+@rel+98-07-7
  12. http://toxnet.nlm.nih.gov/cgi-bin/sis/search/r?dbs+hsdb:@term+@rn+@rel+98-07-7
  13. http://toxnet.nlm.nih.gov/cgi-bin/sis/search/r?dbs+hsdb:@term+@rn+@rel+98-07-7
  14. http://toxnet.nlm.nih.gov/cgi-bin/sis/search/r?dbs+hsdb:@term+@rn+@rel+98-07-7
  15. http://toxnet.nlm.nih.gov/cgi-bin/sis/search/r?dbs+hsdb:@term+@rn+@rel+98-07-7
  16. http://pubchem.ncbi.nlm.nih.gov/vw3d/vw3d.cgi?cid=7367
