   Color/Form
        Colorless liquid
   from [1]HSDB

   Boiling Point
        173.5 deg C
   from [2]HSDB

   Melting Point
        -82.7 deg C
   from [3]HSDB

   Density/Specific Gravity
        0.8580 g/cu cm @ 25 deg C
   from [4]HSDB

   Heat of Vaporization
        47.98 kJ/mol @ 25 deg C
   from [5]HSDB

   Octanol/Water Partition Coefficient
        log Kow = 4.57
   from [6]HSDB

   Solubilities

     * In water, 17.6 mg/L @ 25 deg C
     * Miscible with alcohol, ether, benzene

   from [7]HSDB

   Spectral Properties
        Index of refraction = 1.48980 @ 20 deg C
   from [8]HSDB

   Surface Tension
        0.02852 N/m @ 20 deg C; 0.02803 N/m @ 25 deg C; 0.02754 N/m @ 30
   deg C
   from [9]HSDB

   Vapor Density
        4.62 (Air=1)
   from [10]HSDB

   Vapor Pressure
        1.75 mm Hg @ 25 deg C
   from [11]HSDB

   Other Chemical/Physical Properties

     * Relative permittivity = 2.357 @ 93.2 K
     * Freezing point: -75.68 deg C; wt/gal: 7.2 lb @ 20 deg C
     * Standard enthalpy of formation (liquid): -66.4 kJ/mol
     * Conversion factor: 5.49 mg/cu m = approximately 1 ppm @ 1 atm
     * Specific optical rotation at 25 deg C for the D (sodium) line:
       +26.6 deg /D-isomer/
     * Specific optical rotation at 25 deg C for the D (sodium) line:
       -27.3 deg /L-isomer/
     * Henry's Law constant = 0.018 atm-cu m/mol @ 25 deg C /Estimated/
     * Hydroxyl radical reaction rate constant = 8.5X10-12 cu
       cm/molecule-sec @ 25 deg C /Estimated/

   from [12]HSDB

   Computed Properties
   Molecular Weight                  134.21816 [g/mol]
   Molecular Formula                 C[10]H[14]
   XLogP3                            4.2
   H-Bond Donor                      0
   H-Bond Acceptor                   0
   Rotatable Bond Count              2
   Exact Mass                        134.10955
   MonoIsotopic Mass                 134.10955
   Topological Polar Surface Area    0
   Heavy Atom Count                  10
   Formal Charge                     0
   Complexity                        80
   Isotope Atom Count                0
   Defined Atom Stereocenter Count   0
   Undefined Atom Stereocenter Count 1
   Defined Bond Stereocenter Count   0
   Undefined Bond Stereocenter Count 0
   Covalently-Bonded Unit Count      1
   Feature 3D Hydrophobe Count       2
   Feature 3D Ring Count             1
   Effective Rotor Count             2
   Conformer Sampling RMSD           0.4
   CID Conformer Count               [13]7

References

   1. http://toxnet.nlm.nih.gov/cgi-bin/sis/search/r?dbs+hsdb:@term+@rn+@rel+135-98-8
   2. http://toxnet.nlm.nih.gov/cgi-bin/sis/search/r?dbs+hsdb:@term+@rn+@rel+135-98-8
   3. http://toxnet.nlm.nih.gov/cgi-bin/sis/search/r?dbs+hsdb:@term+@rn+@rel+135-98-8
   4. http://toxnet.nlm.nih.gov/cgi-bin/sis/search/r?dbs+hsdb:@term+@rn+@rel+135-98-8
   5. http://toxnet.nlm.nih.gov/cgi-bin/sis/search/r?dbs+hsdb:@term+@rn+@rel+135-98-8
   6. http://toxnet.nlm.nih.gov/cgi-bin/sis/search/r?dbs+hsdb:@term+@rn+@rel+135-98-8
   7. http://toxnet.nlm.nih.gov/cgi-bin/sis/search/r?dbs+hsdb:@term+@rn+@rel+135-98-8
   8. http://toxnet.nlm.nih.gov/cgi-bin/sis/search/r?dbs+hsdb:@term+@rn+@rel+135-98-8
   9. http://toxnet.nlm.nih.gov/cgi-bin/sis/search/r?dbs+hsdb:@term+@rn+@rel+135-98-8
  10. http://toxnet.nlm.nih.gov/cgi-bin/sis/search/r?dbs+hsdb:@term+@rn+@rel+135-98-8
  11. http://toxnet.nlm.nih.gov/cgi-bin/sis/search/r?dbs+hsdb:@term+@rn+@rel+135-98-8
  12. http://toxnet.nlm.nih.gov/cgi-bin/sis/search/r?dbs+hsdb:@term+@rn+@rel+135-98-8
  13. http://pubchem.ncbi.nlm.nih.gov/vw3d/vw3d.cgi?cid=8680
