   Color/Form
        Colorless, fine needles
   from [1]HSDB

   Melting Point
        234-235 deg C
   from [2]HSDB

   Octanol/Water Partition Coefficient
        log Kow = 1.57
   from [3]HSDB

   Solubilities

     * Insoluble in most common organic solvents; Soluble in
       dimethylformamide, dimethyl sulfoxide
     * In water, 0.00044 g/cu cm at 15 deg C
     * In water, 60 mg/L at 20 deg C

   from [4]HSDB

   Spectral Properties

     * MASS: 64730 (NIST/EPA/MSDC Mass Spectral Database 1990 version)
     * IR: 3:1285B (Aldermaston, Eight Peak Index of Mass Spectra, U.K.)

   from [5]HSDB

   Vapor Pressure
        2.373X10-6 mPa (1.79X10-11 mm Hg) at 20 deg C
   from [6]HSDB

   Other Chemical/Physical Properties

     * Off-white powder /Technical/
     * Henry's Law constant = 8.84X10-14 atm-cu m/mole at 20 deg C (est)
     * Hydroxyl radical reaction rate constant = 2.14X10-10 cu
       cm/molec-sec at 25 deg C (est)

   from [7]HSDB

   Computed Properties
   Molecular Weight                  225.24924 [g/mol]
   Molecular Formula                 C[12]H[11]N[5]
   XLogP3                            2.1
   H-Bond Donor                      2
   H-Bond Acceptor                   4
   Rotatable Bond Count              3
   Tautomer Count                    8
   Exact Mass                        225.101445
   MonoIsotopic Mass                 225.101445
   Topological Polar Surface Area    66.5
   Heavy Atom Count                  17
   Formal Charge                     0
   Complexity                        241
   Isotope Atom Count                0
   Defined Atom Stereocenter Count   0
   Undefined Atom Stereocenter Count 0
   Defined Bond Stereocenter Count   0
   Undefined Bond Stereocenter Count 0
   Covalently-Bonded Unit Count      1
   Feature 3D Donor Count            2
   Feature 3D Cation Count           3
   Feature 3D Ring Count             3
   Effective Rotor Count             3
   Conformer Sampling RMSD           0.6
   CID Conformer Count               [8]20

References

   1. http://toxnet.nlm.nih.gov/cgi-bin/sis/search/r?dbs+hsdb:@term+@rn+@rel+1214-39-7
   2. http://toxnet.nlm.nih.gov/cgi-bin/sis/search/r?dbs+hsdb:@term+@rn+@rel+1214-39-7
   3. http://toxnet.nlm.nih.gov/cgi-bin/sis/search/r?dbs+hsdb:@term+@rn+@rel+1214-39-7
   4. http://toxnet.nlm.nih.gov/cgi-bin/sis/search/r?dbs+hsdb:@term+@rn+@rel+1214-39-7
   5. http://toxnet.nlm.nih.gov/cgi-bin/sis/search/r?dbs+hsdb:@term+@rn+@rel+1214-39-7
   6. http://toxnet.nlm.nih.gov/cgi-bin/sis/search/r?dbs+hsdb:@term+@rn+@rel+1214-39-7
   7. http://toxnet.nlm.nih.gov/cgi-bin/sis/search/r?dbs+hsdb:@term+@rn+@rel+1214-39-7
   8. http://pubchem.ncbi.nlm.nih.gov/vw3d/vw3d.cgi?cid=62389
