11954105
  -OEChem-07051213062D

 48 51  0     1  0  0  0  0  0999 V2000
    3.1410   -3.4285    0.0000 O   0  0  0  0  0  0  0  0  0  0  0  0
    9.7937    1.7564    0.0000 O   0  0  0  0  0  0  0  0  0  0  0  0
    3.1292   -0.7800    0.0000 C   0  0  2  0  0  0  0  0  0  0  0  0
    3.6430   -1.6861    0.0000 C   0  0  2  0  0  0  0  0  0  0  0  0
    3.6639    0.1139    0.0000 C   0  0  1  0  0  0  0  0  0  0  0  0
    4.6639    0.1139    0.0000 C   0  0  2  0  0  0  0  0  0  0  0  0
    4.6847   -1.6861    0.0000 C   0  0  0  0  0  0  0  0  0  0  0  0
    2.1153   -0.9901    0.0000 C   0  0  0  0  0  0  0  0  0  0  0  0
    5.1985   -0.7800    0.0000 C   0  0  0  0  0  0  0  0  0  0  0  0
    2.9423   -2.4484    0.0000 C   0  0  0  0  0  0  0  0  0  0  0  0
    3.1639    0.9799    0.0000 C   0  0  0  0  0  0  0  0  0  0  0  0
    2.0000   -2.0192    0.0000 C   0  0  0  0  0  0  0  0  0  0  0  0
    4.1364   -2.5560    0.0000 C   0  0  0  0  0  0  0  0  0  0  0  0
    6.0299    1.4799    0.0000 C   0  0  0  0  0  0  0  0  0  0  0  0
    3.6639    1.8460    0.0000 C   0  0  0  0  0  0  0  0  0  0  0  0
    5.5521    3.4285    0.0000 C   0  0  0  0  0  0  0  0  0  0  0  0
    6.2887    2.4459    0.0000 C   0  0  0  0  0  0  0  0  0  0  0  0
    7.6030    0.2728    0.0000 C   0  0  0  0  0  0  0  0  0  0  0  0
    8.1207    2.2047    0.0000 C   0  0  0  0  0  0  0  0  0  0  0  0
    8.5689    0.5317    0.0000 C   0  0  0  0  0  0  0  0  0  0  0  0
    8.8278    1.4976    0.0000 C   0  0  0  0  0  0  0  0  0  0  0  0
   10.0525    2.7223    0.0000 C   0  0  0  0  0  0  0  0  0  0  0  0
    2.6367   -0.0873    0.0000 H   0  0  0  0  0  0  0  0  0  0  0  0
    2.8139    0.1139    0.0000 H   0  0  0  0  0  0  0  0  0  0  0  0
    5.5139    0.1139    0.0000 H   0  0  0  0  0  0  0  0  0  0  0  0
    4.5786   -2.2970    0.0000 H   0  0  0  0  0  0  0  0  0  0  0  0
    5.2684   -1.8952    0.0000 H   0  0  0  0  0  0  0  0  0  0  0  0
    2.0540   -0.3732    0.0000 H   0  0  0  0  0  0  0  0  0  0  0  0
    1.4953   -0.9862    0.0000 H   0  0  0  0  0  0  0  0  0  0  0  0
    5.6776   -1.1736    0.0000 H   0  0  0  0  0  0  0  0  0  0  0  0
    5.6683   -0.3754    0.0000 H   0  0  0  0  0  0  0  0  0  0  0  0
    2.6889    1.3785    0.0000 H   0  0  0  0  0  0  0  0  0  0  0  0
    2.6889    0.5814    0.0000 H   0  0  0  0  0  0  0  0  0  0  0  0
    1.3945   -1.8858    0.0000 H   0  0  0  0  0  0  0  0  0  0  0  0
    1.8037   -2.6073    0.0000 H   0  0  0  0  0  0  0  0  0  0  0  0
    3.5970   -2.8618    0.0000 H   0  0  0  0  0  0  0  0  0  0  0  0
    4.4422   -3.0953    0.0000 H   0  0  0  0  0  0  0  0  0  0  0  0
    4.6757   -2.2501    0.0000 H   0  0  0  0  0  0  0  0  0  0  0  0
    3.6792    2.4658    0.0000 H   0  0  0  0  0  0  0  0  0  0  0  0
    3.0670    2.0138    0.0000 H   0  0  0  0  0  0  0  0  0  0  0  0
    5.8699    3.9608    0.0000 H   0  0  0  0  0  0  0  0  0  0  0  0
    4.9390    3.5204    0.0000 H   0  0  0  0  0  0  0  0  0  0  0  0
    7.4821   -0.3353    0.0000 H   0  0  0  0  0  0  0  0  0  0  0  0
    8.3949    2.7607    0.0000 H   0  0  0  0  0  0  0  0  0  0  0  0
    9.0074    0.0932    0.0000 H   0  0  0  0  0  0  0  0  0  0  0  0
   10.6514    2.5619    0.0000 H   0  0  0  0  0  0  0  0  0  0  0  0
   10.2130    3.3212    0.0000 H   0  0  0  0  0  0  0  0  0  0  0  0
    9.4536    2.8828    0.0000 H   0  0  0  0  0  0  0  0  0  0  0  0
  1 10  2  0  0  0  0
  2 21  1  0  0  0  0
  2 22  1  0  0  0  0
  3  4  1  0  0  0  0
  3  5  1  0  0  0  0
  3  8  1  0  0  0  0
  3 23  1  6  0  0  0
  4  7  1  0  0  0  0
  4 10  1  0  0  0  0
  4 13  1  1  0  0  0
  5  6  1  0  0  0  0
  5 11  1  0  0  0  0
  5 24  1  1  0  0  0
  6  9  1  0  0  0  0
  6 14  1  0  0  0  0
  6 25  1  6  0  0  0
  7  9  1  0  0  0  0
  7 26  1  0  0  0  0
  7 27  1  0  0  0  0
  8 12  1  0  0  0  0
  8 28  1  0  0  0  0
  8 29  1  0  0  0  0
  9 30  1  0  0  0  0
  9 31  1  0  0  0  0
 10 12  1  0  0  0  0
 11 15  1  0  0  0  0
 11 32  1  0  0  0  0
 11 33  1  0  0  0  0
 12 34  1  0  0  0  0
 12 35  1  0  0  0  0
 13 36  1  0  0  0  0
 13 37  1  0  0  0  0
 13 38  1  0  0  0  0
 14 16  1  0  0  0  0
 14 18  2  0  0  0  0
 15 17  1  0  0  0  0
 15 39  1  0  0  0  0
 15 40  1  0  0  0  0
 16 17  1  0  0  0  0
 16 41  1  0  0  0  0
 16 42  1  0  0  0  0
 17 19  2  0  0  0  0
 18 20  1  0  0  0  0
 18 43  1  0  0  0  0
 19 21  1  0  0  0  0
 19 44  1  0  0  0  0
 20 21  2  0  0  0  0
 20 45  1  0  0  0  0
 22 46  1  0  0  0  0
 22 47  1  0  0  0  0
 22 48  1  0  0  0  0
M  END
> <PUBCHEM_COMPOUND_CID>
11954105

> <PUBCHEM_COMPOUND_CANONICALIZED>
1

> <PUBCHEM_CACTVS_COMPLEXITY>
595

> <PUBCHEM_CACTVS_HBOND_ACCEPTOR>
2

> <PUBCHEM_CACTVS_HBOND_DONOR>
0

> <PUBCHEM_CACTVS_ROTATABLE_BOND>
1

> <PUBCHEM_CACTVS_SUBSKEYS>
AAADceB4MAAAAAAAAAAAAAAAAAAAAYAAAAAwAAAABggAAGCAAAAAGgAAAAAADwSAgAICAAAABACIAqBSAAAACAAgIAAACAEAAAgIBBIAIQAAEAAAgAAIoAMIiMCPgAAAAAAAAACAAAQAACAAAAAACAAAAA==

> <PUBCHEM_IUPAC_INCHI>
InChI=1S/C20H26O2/c1-20-10-9-16-14-4-5-15(22-2)12-13(11-14)3-6-17(16)18(20)7-8-19(20)21/h4-5,12,16-18H,3,6-11H2,1-2H3/t16-,17-,18+,20+/m1/s1

> <PUBCHEM_IUPAC_INCHIKEY>
FBRCEPPRCFBOKU-XSYGEPLQSA-N

> <PUBCHEM_XLOGP3_AA>
3.5

> <PUBCHEM_EXACT_MASS>
298.19328

> <PUBCHEM_MOLECULAR_FORMULA>
C20H26O2

> <PUBCHEM_MOLECULAR_WEIGHT>
298.41924

> <PUBCHEM_OPENEYE_CAN_SMILES>
CC12CCC3C(C1CCC2=O)CCC4=CC(=CC=C3C4)OC

> <PUBCHEM_OPENEYE_ISO_SMILES>
C[C@]12CC[C@H]3[C@H]([C@@H]1CCC2=O)CCC4=CC(=CC=C3C4)OC

> <PUBCHEM_CACTVS_TPSA>
26.3

> <PUBCHEM_MONOISOTOPIC_WEIGHT>
298.19328

> <PUBCHEM_TOTAL_CHARGE>
0

> <PUBCHEM_HEAVY_ATOM_COUNT>
22

> <PUBCHEM_ATOM_DEF_STEREO_COUNT>
4

> <PUBCHEM_ATOM_UDEF_STEREO_COUNT>
0

> <PUBCHEM_BOND_DEF_STEREO_COUNT>
0

> <PUBCHEM_BOND_UDEF_STEREO_COUNT>
0

> <PUBCHEM_ISOTOPIC_ATOM_COUNT>
0

> <PUBCHEM_COMPONENT_COUNT>
1

> <PUBCHEM_CACTVS_TAUTO_COUNT>
2

> <PUBCHEM_COORDINATE_TYPE>
1
5
255

> <PUBCHEM_BONDANNOTATIONS>
3  23  6
4  13  5
5  24  5
6  25  6

$$$$

