   Color/Form

     * Colorless crystals when pure.
     * Crystals from water

   from [1]HSDB

   Melting Point
        Decomposes on heating without melting
   from [2]HSDB

   Corrosivity
        Aqueous soln is corrosive
   from [3]HSDB

   Density/Specific Gravity
        1.14 at 20 deg C (solid)
   from [4]HSDB

   Octanol/Water Partition Coefficient
        log Kow = -4.24 (est)
   from [5]HSDB

   Solubilities

     * Insoluble in common organic solvents.
     * Forms a continuous film on plant surfaces, which is said to become
       insoluble in water.
     * In water, 2X10+5 mg/L at room temperature

   from [6]HSDB

   Vapor Pressure
        Negligible
   from [7]HSDB

   Other Chemical/Physical Properties

     * Crystals from alcohol. Moderately soluble in water. Forms a
       continuous film on plant surfaces, which is said to become
       insoluble in water. /Nabam hexahydrate/
     * Colorless crystals /Hexahydrate/
     * NABAM FORMS ETHYLENETHIURAM DISULFIDE AND ETHYLENETHIURAM
       MONOSULFIDE, WHICH IS READILY CONVERTED TO AN ISOTHIOCYANATE; NABAM
       CAN ALSO BE CONVERTED UNDER MILDLY ACID CONDITIONS TO
       ETHYLENETHIOUREA AND HYDROGEN SULFIDE, AND UNDER MORE DRASTIC
       CONDITIONS TO ETHYLENEDIAMINE & CS2
     * VP: 9.48X10-13 mm Hg at 25 deg C (est)
     * Henry's Law constant = 1.6X10-18 atm-cu m/mol at 25 deg C (est)
     * Hydroxyl radical reaction rate constant = 1.47X10-10 cu
       cm/molec-sec at 25 deg C (est)

   from [8]HSDB

   Computed Properties
   Molecular Weight                  256.343379 [g/mol]
   Molecular Formula                 C[4]H[6]N[2]Na[2]S[4]
   H-Bond Donor                      2
   H-Bond Acceptor                   4
   Rotatable Bond Count              3
   Tautomer Count                    3
   Exact Mass                        255.920921
   MonoIsotopic Mass                 255.920921
   Topological Polar Surface Area    90.2
   Heavy Atom Count                  12
   Formal Charge                     0
   Complexity                        108
   Isotope Atom Count                0
   Defined Atom Stereocenter Count   0
   Undefined Atom Stereocenter Count 0
   Defined Bond Stereocenter Count   0
   Undefined Bond Stereocenter Count 0
   Covalently-Bonded Unit Count      3

References

   1. http://toxnet.nlm.nih.gov/cgi-bin/sis/search/r?dbs+hsdb:@term+@rn+@rel+142-59-6
   2. http://toxnet.nlm.nih.gov/cgi-bin/sis/search/r?dbs+hsdb:@term+@rn+@rel+142-59-6
   3. http://toxnet.nlm.nih.gov/cgi-bin/sis/search/r?dbs+hsdb:@term+@rn+@rel+142-59-6
   4. http://toxnet.nlm.nih.gov/cgi-bin/sis/search/r?dbs+hsdb:@term+@rn+@rel+142-59-6
   5. http://toxnet.nlm.nih.gov/cgi-bin/sis/search/r?dbs+hsdb:@term+@rn+@rel+142-59-6
   6. http://toxnet.nlm.nih.gov/cgi-bin/sis/search/r?dbs+hsdb:@term+@rn+@rel+142-59-6
   7. http://toxnet.nlm.nih.gov/cgi-bin/sis/search/r?dbs+hsdb:@term+@rn+@rel+142-59-6
   8. http://toxnet.nlm.nih.gov/cgi-bin/sis/search/r?dbs+hsdb:@term+@rn+@rel+142-59-6
