   Color/Form

     * Clear, colorless liquid
     * Colorless liquid or crystals (Note: Pure compound is a solid below
       62 degrees F). Often used in an aqueous solution).

   from [1]HSDB

   Odor

     * Pungent
     * Sour, vinegar-like odor.

   from [2]HSDB

   Taste
        Burning taste
   from [3]HSDB

   Boiling Point
        117.9 deg C
   from [4]HSDB

   Melting Point
        16.6 deg C
   from [5]HSDB

   Corrosivity

     * Corrosive organic acid
     * Glacial acetic acid (100%) is highly corrosive, and its ingestion
       has produced penetrating lesions of the esophagus and later
       strictures of the esophagus and pylorus in man.

   from [6]HSDB

   Critical Temperature and Pressure
        Critical temperature: 592.71 K (319.56 deg C); critical pressure:
   5.786 MPa (4.340X10+4 mm Hg)
   from [7]HSDB

   Density/Specific Gravity
        1.0446 g/cu cm @ 25 deg C
   from [8]HSDB

   Dissociation Constants
        pKa = 4.76 at 25 deg C
   from [9]HSDB

   Heat of Combustion
        874.2 kJ/mol
   from [10]HSDB

   Heat of Vaporization
        23.70 kJ/mol
   from [11]HSDB

   Octanol/Water Partition Coefficient
        log Kow = -0.17
   from [12]HSDB

   pH
        Aq soln 1.0 molar= 2.4; 0.1 molar= 2.9; 0.01 molar= 3.4
   from [13]HSDB

   Solubilities

     * Miscible with water, alcohol, glycerol, ether, carbon
       tetrachloride; practically insoluble in carbon disulfide
     * MISCIBLE WITH ACETONE, BENZENE; SOL IN ALCOHOL

   from [14]HSDB

   Spectral Properties

     * MAX ABSORPTION (ALCOHOL): 208 NM (LOG E= 1.5)
     * SADTLER REF NUMBER: 76 (IR, PRISM; V8 (NMR))
     * Index of refraction: 1.3720 @ deg C/D
     * IR: 4819 (Coblentz Society Spectral Collection)
     * UV: 4-3 (Organic Electronic Spectral Data, Phillips et al, John
       Wiley & Sons, New York)
     * RAMAN: 407 (Sadtler Research Laboratories Spectral Collection)
     * MASS: 34542 (NIST/EPA/MSDC Mass Spectral Database 1990 version)
     * 1H NMR: 8 (Varian Associates NMR spectra collection)
     * 13C NMR: 7 (Johnson and Jankowski, Carbon-13 NMR Spectra, John
       Wiley & Sons, New York)
     * Intense mass spectral peaks: 43 m/z, 60 m/z

   from [15]HSDB

   Surface Tension
        27.10 mN/m @ 25 deg C
   from [16]HSDB

   Vapor Density
        2.07 (Air= 1)
   from [17]HSDB

   Vapor Pressure
        15.7 mm Hg at 25 deg C /Extrapolated/
   from [18]HSDB

   Relative Evaporation Rate

     * Evaporation rate ... at 25 deg C and a wind speed of 4.5 m/sec
       (16.1 kg/hr) is 0.24 g/sq m/sec ... evaporation rates of 0.077 g/sq
       m/sec at 0 deg C and 0.42 g/sq m/sec at 30 deg C ... for wind speed
       of 4.5 m/sec.
     * Evaporation rate (butyl acetate= 1): 0.97

   from [19]HSDB

   Viscosity
        1.056 mPa-s @ 25 deg C
   from [20]HSDB

   Other Chemical/Physical Properties

     * Density: 1.266 @ 16.60 deg C (solid); 1.053 @ 16.67 deg C (liq);
       contracts slightly on freezing
     * Enthalpy of fusion: 11.73 kJ/mol
     * Burning rate: 1.6 mm/min
     * Weight/gallon: 8.64 lb
     * Latent heat of fusion: 11.5 kJ/mole (at melting point); Latent heat
       of sublimation: 53.2 kJ/mole (25 deg C) (est); Heat of formation:
       -484.3 kJ/mole (25 deg C); Ionization potential: 10.66 eV; Heat of
       solution: -1,506 J/mole (25 deg C); Coefficient of thermal
       expansion: 1.071x10-3/deg C (20 deg C); Thermal conductivity:
       1.8x10-3 J/sq cm deg C (25 deg C); Saturation concn: 38 g/cu m (20
       deg C); Diffusivity: 0.1064 sq cm/sec (0 deg C), 1.24x10-5 sq
       cm/sec (in water 25 deg C)
     * Sublimes between -35 to 10 deg C
     * Congeals about -14 deg C
     * Henry's Law constant = 1X10-7 atm-cu m/mol at 25 deg C, pH 4
       [Gaffney JS et al; Environ Sci Technol 21: 519-23 (1987)]
       [21]PubMed Abstract
     * Hydroxyl radical reaction rate constant: 7.4X10-13 cu cm/molecule-s
       @ 25 deg C
     * Hygroscopic; acetic acid normally exists as a dimer both in the
       vapor phase and in solution.
     * Relative permittivity: 6.20 @ 293.2 K
     * Enthalpy of formation: -484.3 kJ/mol; heat capacity: 123.3 J/mol K

   from [22]HSDB

   Computed Properties
   Molecular Weight                  60.05196 [g/mol]
   Molecular Formula                 C[2]H[4]O[2]
   XLogP3-AA                         -0.2
   H-Bond Donor                      1
   H-Bond Acceptor                   2
   Rotatable Bond Count              0
   Exact Mass                        60.021129
   MonoIsotopic Mass                 60.021129
   Topological Polar Surface Area    37.3
   Heavy Atom Count                  4
   Formal Charge                     0
   Complexity                        31
   Isotope Atom Count                0
   Defined Atom Stereocenter Count   0
   Undefined Atom Stereocenter Count 0
   Defined Bond Stereocenter Count   0
   Undefined Bond Stereocenter Count 0
   Covalently-Bonded Unit Count      1
   Feature 3D Acceptor Count         2
   Feature 3D Anion Count            1
   Effective Rotor Count             0
   Conformer Sampling RMSD           0.4
   CID Conformer Count               [23]1

References

   1. http://toxnet.nlm.nih.gov/cgi-bin/sis/search/r?dbs+hsdb:@term+@rn+@rel+64-19-7
   2. http://toxnet.nlm.nih.gov/cgi-bin/sis/search/r?dbs+hsdb:@term+@rn+@rel+64-19-7
   3. http://toxnet.nlm.nih.gov/cgi-bin/sis/search/r?dbs+hsdb:@term+@rn+@rel+64-19-7
   4. http://toxnet.nlm.nih.gov/cgi-bin/sis/search/r?dbs+hsdb:@term+@rn+@rel+64-19-7
   5. http://toxnet.nlm.nih.gov/cgi-bin/sis/search/r?dbs+hsdb:@term+@rn+@rel+64-19-7
   6. http://toxnet.nlm.nih.gov/cgi-bin/sis/search/r?dbs+hsdb:@term+@rn+@rel+64-19-7
   7. http://toxnet.nlm.nih.gov/cgi-bin/sis/search/r?dbs+hsdb:@term+@rn+@rel+64-19-7
   8. http://toxnet.nlm.nih.gov/cgi-bin/sis/search/r?dbs+hsdb:@term+@rn+@rel+64-19-7
   9. http://toxnet.nlm.nih.gov/cgi-bin/sis/search/r?dbs+hsdb:@term+@rn+@rel+64-19-7
  10. http://toxnet.nlm.nih.gov/cgi-bin/sis/search/r?dbs+hsdb:@term+@rn+@rel+64-19-7
  11. http://toxnet.nlm.nih.gov/cgi-bin/sis/search/r?dbs+hsdb:@term+@rn+@rel+64-19-7
  12. http://toxnet.nlm.nih.gov/cgi-bin/sis/search/r?dbs+hsdb:@term+@rn+@rel+64-19-7
  13. http://toxnet.nlm.nih.gov/cgi-bin/sis/search/r?dbs+hsdb:@term+@rn+@rel+64-19-7
  14. http://toxnet.nlm.nih.gov/cgi-bin/sis/search/r?dbs+hsdb:@term+@rn+@rel+64-19-7
  15. http://toxnet.nlm.nih.gov/cgi-bin/sis/search/r?dbs+hsdb:@term+@rn+@rel+64-19-7
  16. http://toxnet.nlm.nih.gov/cgi-bin/sis/search/r?dbs+hsdb:@term+@rn+@rel+64-19-7
  17. http://toxnet.nlm.nih.gov/cgi-bin/sis/search/r?dbs+hsdb:@term+@rn+@rel+64-19-7
  18. http://toxnet.nlm.nih.gov/cgi-bin/sis/search/r?dbs+hsdb:@term+@rn+@rel+64-19-7
  19. http://toxnet.nlm.nih.gov/cgi-bin/sis/search/r?dbs+hsdb:@term+@rn+@rel+64-19-7
  20. http://toxnet.nlm.nih.gov/cgi-bin/sis/search/r?dbs+hsdb:@term+@rn+@rel+64-19-7
  21. http://www.ncbi.nlm.nih.gov/entrez/query.fcgi?cmd=Retrieve&db=pubmed&dopt=Abstract&list_uids=19994967
  22. http://toxnet.nlm.nih.gov/cgi-bin/sis/search/r?dbs+hsdb:@term+@rn+@rel+64-19-7
  23. http://pubchem.ncbi.nlm.nih.gov/vw3d/vw3d.cgi?cid=176
