17396344
  -OEChem-06241222562D

 45 48  0     1  0  0  0  0  0999 V2000
    6.7870   -5.0534    0.0000 F   0  0  0  0  0  0  0  0  0  0  0  0
    4.5981    3.0534    0.0000 O   0  0  0  0  0  0  0  0  0  0  0  0
    3.7320    1.5534    0.0000 N   0  0  0  0  0  0  0  0  0  0  0  0
    5.5443   -1.2513    0.0000 N   0  0  0  0  0  0  0  0  0  0  0  0
    6.1279   -0.4466    0.0000 N   0  0  0  0  0  0  0  0  0  0  0  0
    2.8660    0.0534    0.0000 N   0  0  0  0  0  0  0  0  0  0  0  0
    3.7320   -1.4466    0.0000 N   0  0  0  0  0  0  0  0  0  0  0  0
    2.8660    2.0534    0.0000 C   0  0  3  0  0  0  0  0  0  0  0  0
    2.8660    3.0534    0.0000 C   0  0  0  0  0  0  0  0  0  0  0  0
    3.7320    0.5534    0.0000 C   0  0  0  0  0  0  0  0  0  0  0  0
    4.5981    0.0534    0.0000 C   0  0  0  0  0  0  0  0  0  0  0  0
    2.0000    1.5534    0.0000 C   0  0  0  0  0  0  0  0  0  0  0  0
    4.5981   -0.9466    0.0000 C   0  0  0  0  0  0  0  0  0  0  0  0
    3.7320    3.5534    0.0000 C   0  0  0  0  0  0  0  0  0  0  0  0
    2.0000    3.5534    0.0000 C   0  0  0  0  0  0  0  0  0  0  0  0
    5.5443    0.3581    0.0000 C   0  0  0  0  0  0  0  0  0  0  0  0
    5.8550   -2.2018    0.0000 C   0  0  0  0  0  0  0  0  0  0  0  0
    3.7320    4.5534    0.0000 C   0  0  0  0  0  0  0  0  0  0  0  0
    2.0000    4.5534    0.0000 C   0  0  0  0  0  0  0  0  0  0  0  0
    2.8660    5.0534    0.0000 C   0  0  0  0  0  0  0  0  0  0  0  0
    2.8660   -0.9466    0.0000 C   0  0  0  0  0  0  0  0  0  0  0  0
    6.8335   -2.4081    0.0000 C   0  0  0  0  0  0  0  0  0  0  0  0
    5.1871   -2.9462    0.0000 C   0  0  0  0  0  0  0  0  0  0  0  0
    7.1441   -3.3586    0.0000 C   0  0  0  0  0  0  0  0  0  0  0  0
    5.4978   -3.8967    0.0000 C   0  0  0  0  0  0  0  0  0  0  0  0
    6.4763   -4.1029    0.0000 C   0  0  0  0  0  0  0  0  0  0  0  0
    5.4641    3.5534    0.0000 C   0  0  0  0  0  0  0  0  0  0  0  0
    3.4030    2.3634    0.0000 H   0  0  0  0  0  0  0  0  0  0  0  0
    4.2690    1.8634    0.0000 H   0  0  0  0  0  0  0  0  0  0  0  0
    1.6900    2.0903    0.0000 H   0  0  0  0  0  0  0  0  0  0  0  0
    1.4631    1.2434    0.0000 H   0  0  0  0  0  0  0  0  0  0  0  0
    2.3100    1.0165    0.0000 H   0  0  0  0  0  0  0  0  0  0  0  0
    1.4631    3.2434    0.0000 H   0  0  0  0  0  0  0  0  0  0  0  0
    5.7369    0.9475    0.0000 H   0  0  0  0  0  0  0  0  0  0  0  0
    4.2690    4.8634    0.0000 H   0  0  0  0  0  0  0  0  0  0  0  0
    1.4631    4.8634    0.0000 H   0  0  0  0  0  0  0  0  0  0  0  0
    2.8660    5.6734    0.0000 H   0  0  0  0  0  0  0  0  0  0  0  0
    2.3291   -1.2566    0.0000 H   0  0  0  0  0  0  0  0  0  0  0  0
    7.2475   -1.9466    0.0000 H   0  0  0  0  0  0  0  0  0  0  0  0
    4.5804   -2.8183    0.0000 H   0  0  0  0  0  0  0  0  0  0  0  0
    7.7508   -3.4864    0.0000 H   0  0  0  0  0  0  0  0  0  0  0  0
    5.0837   -4.3581    0.0000 H   0  0  0  0  0  0  0  0  0  0  0  0
    5.7741    3.0165    0.0000 H   0  0  0  0  0  0  0  0  0  0  0  0
    6.0010    3.8634    0.0000 H   0  0  0  0  0  0  0  0  0  0  0  0
    5.1541    4.0903    0.0000 H   0  0  0  0  0  0  0  0  0  0  0  0
  1 26  1  0  0  0  0
  2 14  1  0  0  0  0
  2 27  1  0  0  0  0
  3  8  1  0  0  0  0
  3 10  1  0  0  0  0
  3 29  1  0  0  0  0
  4  5  1  0  0  0  0
  4 13  1  0  0  0  0
  4 17  1  0  0  0  0
  5 16  2  0  0  0  0
  6 10  1  0  0  0  0
  6 21  2  0  0  0  0
  7 13  2  0  0  0  0
  7 21  1  0  0  0  0
  8  9  1  0  0  0  0
  8 12  1  0  0  0  0
  8 28  1  0  0  0  0
  9 14  1  0  0  0  0
  9 15  2  0  0  0  0
 10 11  2  0  0  0  0
 11 13  1  0  0  0  0
 11 16  1  0  0  0  0
 12 30  1  0  0  0  0
 12 31  1  0  0  0  0
 12 32  1  0  0  0  0
 14 18  2  0  0  0  0
 15 19  1  0  0  0  0
 15 33  1  0  0  0  0
 16 34  1  0  0  0  0
 17 22  2  0  0  0  0
 17 23  1  0  0  0  0
 18 20  1  0  0  0  0
 18 35  1  0  0  0  0
 19 20  2  0  0  0  0
 19 36  1  0  0  0  0
 20 37  1  0  0  0  0
 21 38  1  0  0  0  0
 22 24  1  0  0  0  0
 22 39  1  0  0  0  0
 23 25  2  0  0  0  0
 23 40  1  0  0  0  0
 24 26  2  0  0  0  0
 24 41  1  0  0  0  0
 25 26  1  0  0  0  0
 25 42  1  0  0  0  0
 27 43  1  0  0  0  0
 27 44  1  0  0  0  0
 27 45  1  0  0  0  0
M  END
> <PUBCHEM_COMPOUND_CID>
17396344

> <PUBCHEM_COMPOUND_CANONICALIZED>
1

> <PUBCHEM_CACTVS_COMPLEXITY>
475

> <PUBCHEM_CACTVS_HBOND_ACCEPTOR>
6

> <PUBCHEM_CACTVS_HBOND_DONOR>
1

> <PUBCHEM_CACTVS_ROTATABLE_BOND>
5

> <PUBCHEM_CACTVS_SUBSKEYS>
AAADceB7oQAAAAAAAAAAAAAAAAAAAWAAAAA8YIAAAAAAAFgB/AAAHwAYAAAADCzBmw4/9t7IFACiAjZnZACSjCsxoqAd2KAubJiMLuLE+duEtChu2BPI6CeQwKAOAAAAAAAIAAAAAAAAABAAAAAAAAAAAA==

> <PUBCHEM_IUPAC_OPENEYE_NAME>
1-(4-fluorophenyl)-N-[1-(2-methoxyphenyl)ethyl]pyrazolo[3,4-d]pyrimidin-4-amine

> <PUBCHEM_IUPAC_CAS_NAME>
1-(4-fluorophenyl)-N-[1-(2-methoxyphenyl)ethyl]-4-pyrazolo[3,4-d]pyrimidinamine

> <PUBCHEM_IUPAC_NAME>
1-(4-fluorophenyl)-N-[1-(2-methoxyphenyl)ethyl]pyrazolo[3,4-d]pyrimidin-4-amine

> <PUBCHEM_IUPAC_SYSTEMATIC_NAME>
1-(4-fluorophenyl)-N-[1-(2-methoxyphenyl)ethyl]pyrazolo[3,4-d]pyrimidin-4-amine

> <PUBCHEM_IUPAC_TRADITIONAL_NAME>
[1-(4-fluorophenyl)pyrazolo[3,4-d]pyrimidin-4-yl]-[1-(2-methoxyphenyl)ethyl]amine

> <PUBCHEM_IUPAC_INCHI>
InChI=1S/C20H18FN5O/c1-13(16-5-3-4-6-18(16)27-2)25-19-17-11-24-26(20(17)23-12-22-19)15-9-7-14(21)8-10-15/h3-13H,1-2H3,(H,22,23,25)

> <PUBCHEM_IUPAC_INCHIKEY>
MZZDJRYXFUWLLA-UHFFFAOYSA-N

> <PUBCHEM_XLOGP3_AA>
4.1

> <PUBCHEM_EXACT_MASS>
363.149538

> <PUBCHEM_MOLECULAR_FORMULA>
C20H18FN5O

> <PUBCHEM_MOLECULAR_WEIGHT>
363.388223

> <PUBCHEM_OPENEYE_CAN_SMILES>
CC(C1=CC=CC=C1OC)NC2=NC=NC3=C2C=NN3C4=CC=C(C=C4)F

> <PUBCHEM_OPENEYE_ISO_SMILES>
CC(C1=CC=CC=C1OC)NC2=NC=NC3=C2C=NN3C4=CC=C(C=C4)F

> <PUBCHEM_CACTVS_TPSA>
64.9

> <PUBCHEM_MONOISOTOPIC_WEIGHT>
363.149538

> <PUBCHEM_TOTAL_CHARGE>
0

> <PUBCHEM_HEAVY_ATOM_COUNT>
27

> <PUBCHEM_ATOM_DEF_STEREO_COUNT>
0

> <PUBCHEM_ATOM_UDEF_STEREO_COUNT>
1

> <PUBCHEM_BOND_DEF_STEREO_COUNT>
0

> <PUBCHEM_BOND_UDEF_STEREO_COUNT>
0

> <PUBCHEM_ISOTOPIC_ATOM_COUNT>
0

> <PUBCHEM_COMPONENT_COUNT>
1

> <PUBCHEM_CACTVS_TAUTO_COUNT>
5

> <PUBCHEM_COORDINATE_TYPE>
1
5
255

> <PUBCHEM_BONDANNOTATIONS>
10  11  8
11  13  8
11  16  8
14  18  8
15  19  8
17  22  8
17  23  8
18  20  8
19  20  8
22  24  8
23  25  8
24  26  8
25  26  8
4  13  8
4  5  8
5  16  8
6  10  8
6  21  8
7  13  8
7  21  8
8  12  3
9  14  8
9  15  8

$$$$

