   Color/Form
        CRYSTALLINE SOLID POWDER, PURPLE
   from [1]HSDB

   Odor
        UNPLEASANT
   from [2]HSDB

   Melting Point
        203 DEG C
   from [3]HSDB

   Corrosivity
        NON-CORROSIVE
   from [4]HSDB

   Density/Specific Gravity
        1.40 @ 20 DEG C/4 DEG C
   from [5]HSDB

   Solubilities

     * INSOL IN HEXANE, XYLENE, BENZENE; PPM @ 25 DEG C: ACETONE 5,000;
       ISOPROPANOL 2,100; CARBON TETRACHLORIDE 100; WATER 200;
       DIMETHYLFORMAMIDE 39,400; DIMETHYL SULFOXIDE 43,100; METHYLETHYL
       KETONE 3,700
     * SLIGHTLY SOL IN ETHANOL
     * INSOL IN SOLVENT NAPHTHA
     * Sol in alkaline soln, but decomp above pH 9.5

   from [6]HSDB

   Spectral Properties

     * Intense mass spectral peaks: 143 m/z (100%), 76 m/z (68%), 104 m/z
       (61%), 115 m/z (60%)
     * IR: 8438 (Sadtler Research Laboratories IR Grating Collection)
     * UV: 1678 (Sadtler Research Laboratories Spectral Collection)
     * NMR: 3198 (Sadtler Research Laboratories Spectral Collection)
     * MASS: 4790 (National Bureau of Standards EPA-NIH Mass Spectra Data
       Base, NSRDS-NBS-63)

   from [7]HSDB

   Vapor Pressure
        Less than 133 Pascals at 20 deg C
   from [8]HSDB

   Other Chemical/Physical Properties
        MP: 175-180 DEG C /TECHNICAL/
   from [9]HSDB

   Computed Properties
   Molecular Weight                  291.30072 [g/mol]
   Molecular Formula                 C[18]H[13]NO[3]
   XLogP3-AA                         3.5
   H-Bond Donor                      2
   H-Bond Acceptor                   3
   Rotatable Bond Count              3
   Tautomer Count                    2
   Exact Mass                        291.089543
   MonoIsotopic Mass                 291.089543
   Topological Polar Surface Area    66.4
   Heavy Atom Count                  22
   Formal Charge                     0
   Complexity                        423
   Isotope Atom Count                0
   Defined Atom Stereocenter Count   0
   Undefined Atom Stereocenter Count 0
   Defined Bond Stereocenter Count   0
   Undefined Bond Stereocenter Count 0
   Covalently-Bonded Unit Count      1
   Feature 3D Acceptor Count         3
   Feature 3D Donor Count            1
   Feature 3D Anion Count            1
   Feature 3D Ring Count             3
   Effective Rotor Count             4
   Conformer Sampling RMSD           0.6
   CID Conformer Count               [10]21

References

   1. http://toxnet.nlm.nih.gov/cgi-bin/sis/search/r?dbs+hsdb:@term+@rn+@rel+132-66-1
   2. http://toxnet.nlm.nih.gov/cgi-bin/sis/search/r?dbs+hsdb:@term+@rn+@rel+132-66-1
   3. http://toxnet.nlm.nih.gov/cgi-bin/sis/search/r?dbs+hsdb:@term+@rn+@rel+132-66-1
   4. http://toxnet.nlm.nih.gov/cgi-bin/sis/search/r?dbs+hsdb:@term+@rn+@rel+132-66-1
   5. http://toxnet.nlm.nih.gov/cgi-bin/sis/search/r?dbs+hsdb:@term+@rn+@rel+132-66-1
   6. http://toxnet.nlm.nih.gov/cgi-bin/sis/search/r?dbs+hsdb:@term+@rn+@rel+132-66-1
   7. http://toxnet.nlm.nih.gov/cgi-bin/sis/search/r?dbs+hsdb:@term+@rn+@rel+132-66-1
   8. http://toxnet.nlm.nih.gov/cgi-bin/sis/search/r?dbs+hsdb:@term+@rn+@rel+132-66-1
   9. http://toxnet.nlm.nih.gov/cgi-bin/sis/search/r?dbs+hsdb:@term+@rn+@rel+132-66-1
  10. http://pubchem.ncbi.nlm.nih.gov/vw3d/vw3d.cgi?cid=8594
