   Color/Form
        Colorless crystals
   from [1]HSDB

   Boiling Point
        332.5 deg C
   from [2]HSDB

   Melting Point
        99.5 deg C
   from [3]HSDB

   Octanol/Water Partition Coefficient
        log Kow = 4.38
   from [4]HSDB

   Solubilities

     * Very soluble in ethanol and benzene. Soluble in chloroform, and
       methanol
     * In water, 1.47 mg/L water at 25 deg C

   from [5]HSDB

   Spectral Properties

     * MASS: 75462 (NIST/EPA/MSDC Mass Spectral Database, 1990 version)
     * IR: 15216 (Sadtler Research Laboratories Grating Collection)
     * NMR: 7501 (Sadtler Research Laboratories Spectral Collection)
     * UV: 640 (Sadtler Research Laboratories Spectral Collection)

   from [6]HSDB

   Vapor Pressure
        2.05X10-4 mm Hg at 25 deg C /extrapolated/
   from [7]HSDB

   Other Chemical/Physical Properties

     * Henry's Law constant = 3.4X10-5 atm-cu m/mole at 25 deg C (est)
     * Hydroxyl radical reaction rate constant = 8.1X10-12 cu cm/molec-sec
       at 25 deg C

   from [8]HSDB

   Computed Properties
   Molecular Weight                  184.25692 [g/mol]
   Molecular Formula                 C[12]H[8]S
   XLogP3                            4.4
   H-Bond Donor                      0
   H-Bond Acceptor                   1
   Rotatable Bond Count              0
   Exact Mass                        184.034671
   MonoIsotopic Mass                 184.034671
   Topological Polar Surface Area    28.2
   Heavy Atom Count                  13
   Formal Charge                     0
   Complexity                        170
   Isotope Atom Count                0
   Defined Atom Stereocenter Count   0
   Undefined Atom Stereocenter Count 0
   Defined Bond Stereocenter Count   0
   Undefined Bond Stereocenter Count 0
   Covalently-Bonded Unit Count      1
   Feature 3D Ring Count             3
   Effective Rotor Count             0
   Conformer Sampling RMSD           0.4
   CID Conformer Count               [9]1

References

   1. http://toxnet.nlm.nih.gov/cgi-bin/sis/search/r?dbs+hsdb:@term+@rn+@rel+132-65-0
   2. http://toxnet.nlm.nih.gov/cgi-bin/sis/search/r?dbs+hsdb:@term+@rn+@rel+132-65-0
   3. http://toxnet.nlm.nih.gov/cgi-bin/sis/search/r?dbs+hsdb:@term+@rn+@rel+132-65-0
   4. http://toxnet.nlm.nih.gov/cgi-bin/sis/search/r?dbs+hsdb:@term+@rn+@rel+132-65-0
   5. http://toxnet.nlm.nih.gov/cgi-bin/sis/search/r?dbs+hsdb:@term+@rn+@rel+132-65-0
   6. http://toxnet.nlm.nih.gov/cgi-bin/sis/search/r?dbs+hsdb:@term+@rn+@rel+132-65-0
   7. http://toxnet.nlm.nih.gov/cgi-bin/sis/search/r?dbs+hsdb:@term+@rn+@rel+132-65-0
   8. http://toxnet.nlm.nih.gov/cgi-bin/sis/search/r?dbs+hsdb:@term+@rn+@rel+132-65-0
   9. http://pubchem.ncbi.nlm.nih.gov/vw3d/vw3d.cgi?cid=3023
