9543340
  -OEChem-07051213112D

 36 39  0     0  0  0  0  0  0999 V2000
    2.6105   -1.4270    0.0000 O   0  0  0  0  0  0  0  0  0  0  0  0
    2.3098    0.2787    0.0000 O   0  0  0  0  0  0  0  0  0  0  0  0
    2.4875    2.8360    0.0000 O   0  0  0  0  0  0  0  0  0  0  0  0
    2.2196    1.1247    0.0000 O   0  0  0  0  0  0  0  0  0  0  0  0
    4.8034    0.1863    0.0000 C   0  0  0  0  0  0  0  0  0  0  0  0
    5.6695   -0.3137    0.0000 C   0  0  0  0  0  0  0  0  0  0  0  0
    4.7874    1.2278    0.0000 C   0  0  0  0  0  0  0  0  0  0  0  0
    5.6695   -1.3137    0.0000 C   0  0  0  0  0  0  0  0  0  0  0  0
    5.6854    1.7555    0.0000 C   0  0  0  0  0  0  0  0  0  0  0  0
    3.9374   -0.3137    0.0000 C   0  0  0  0  0  0  0  0  0  0  0  0
    4.8034   -1.8137    0.0000 C   0  0  0  0  0  0  0  0  0  0  0  0
    6.5795    0.1931    0.0000 C   0  0  0  0  0  0  0  0  0  0  0  0
    3.9374   -1.3137    0.0000 C   0  0  0  0  0  0  0  0  0  0  0  0
    3.8354    1.7484    0.0000 C   0  0  0  0  0  0  0  0  0  0  0  0
    6.5875    1.2347    0.0000 C   0  0  0  0  0  0  0  0  0  0  0  0
    6.5795   -1.8206    0.0000 C   0  0  0  0  0  0  0  0  0  0  0  0
    5.6938    2.8405    0.0000 C   0  0  0  0  0  0  0  0  0  0  0  0
    4.7874   -2.8552    0.0000 C   0  0  0  0  0  0  0  0  0  0  0  0
    3.8187    2.8333    0.0000 C   0  0  0  0  0  0  0  0  0  0  0  0
    4.7541    3.3830    0.0000 C   0  0  0  0  0  0  0  0  0  0  0  0
    2.9526   -0.4874    0.0000 C   0  0  0  0  0  0  0  0  0  0  0  0
    6.5875   -2.8622    0.0000 C   0  0  0  0  0  0  0  0  0  0  0  0
    5.6854   -3.3830    0.0000 C   0  0  0  0  0  0  0  0  0  0  0  0
    2.8475    1.9031    0.0000 C   0  0  0  0  0  0  0  0  0  0  0  0
    7.1128   -0.1231    0.0000 H   0  0  0  0  0  0  0  0  0  0  0  0
    3.4005   -1.6237    0.0000 H   0  0  0  0  0  0  0  0  0  0  0  0
    7.1256    1.5426    0.0000 H   0  0  0  0  0  0  0  0  0  0  0  0
    7.1128   -1.5044    0.0000 H   0  0  0  0  0  0  0  0  0  0  0  0
    6.2319    3.1484    0.0000 H   0  0  0  0  0  0  0  0  0  0  0  0
    4.2469   -3.1590    0.0000 H   0  0  0  0  0  0  0  0  0  0  0  0
    3.2782    3.1370    0.0000 H   0  0  0  0  0  0  0  0  0  0  0  0
    4.7518    4.0030    0.0000 H   0  0  0  0  0  0  0  0  0  0  0  0
    7.1256   -3.1701    0.0000 H   0  0  0  0  0  0  0  0  0  0  0  0
    5.6830   -4.0030    0.0000 H   0  0  0  0  0  0  0  0  0  0  0  0
    2.0000   -1.5347    0.0000 H   0  0  0  0  0  0  0  0  0  0  0  0
    2.8767    3.3185    0.0000 H   0  0  0  0  0  0  0  0  0  0  0  0
  1 21  1  0  0  0  0
  1 35  1  0  0  0  0
  2 21  2  0  0  0  0
  3 24  1  0  0  0  0
  3 36  1  0  0  0  0
  4 24  2  0  0  0  0
  5  6  2  0  0  0  0
  5  7  1  0  0  0  0
  5 10  1  0  0  0  0
  6  8  1  0  0  0  0
  6 12  1  0  0  0  0
  7  9  2  0  0  0  0
  7 14  1  0  0  0  0
  8 11  1  0  0  0  0
  8 16  2  0  0  0  0
  9 15  1  0  0  0  0
  9 17  1  0  0  0  0
 10 13  2  0  0  0  0
 10 21  1  0  0  0  0
 11 13  1  0  0  0  0
 11 18  2  0  0  0  0
 12 15  2  0  0  0  0
 12 25  1  0  0  0  0
 13 26  1  0  0  0  0
 14 19  2  0  0  0  0
 14 24  1  0  0  0  0
 15 27  1  0  0  0  0
 16 22  1  0  0  0  0
 16 28  1  0  0  0  0
 17 20  2  0  0  0  0
 17 29  1  0  0  0  0
 18 23  1  0  0  0  0
 18 30  1  0  0  0  0
 19 20  1  0  0  0  0
 19 31  1  0  0  0  0
 20 32  1  0  0  0  0
 22 23  2  0  0  0  0
 22 33  1  0  0  0  0
 23 34  1  0  0  0  0
M  END
> <PUBCHEM_COMPOUND_CID>
9543340

> <PUBCHEM_COMPOUND_CANONICALIZED>
1

> <PUBCHEM_CACTVS_COMPLEXITY>
516

> <PUBCHEM_CACTVS_HBOND_ACCEPTOR>
4

> <PUBCHEM_CACTVS_HBOND_DONOR>
2

> <PUBCHEM_CACTVS_ROTATABLE_BOND>
2

> <PUBCHEM_CACTVS_SUBSKEYS>
AAADccB4OAAAAAAAAAAAAAAAAAAAAAAAAAAwYMGAAAAAAADBVAAAGgAACAAADACAmAAwCMAAAgCIAiDSCAACAAAkAAAIiAEACMgIJjKAFRCAcQAkwAEImYeIyPCOwAACAAAQAACAAAQAACAAAAAAAAAAAA==

> <PUBCHEM_IUPAC_OPENEYE_NAME>
chrysene-4,5-dicarboxylic acid

> <PUBCHEM_IUPAC_CAS_NAME>
chrysene-4,5-dicarboxylic acid

> <PUBCHEM_IUPAC_NAME>
chrysene-4,5-dicarboxylic acid

> <PUBCHEM_IUPAC_SYSTEMATIC_NAME>
chrysene-4,5-dicarboxylic acid

> <PUBCHEM_IUPAC_TRADITIONAL_NAME>
chrysene-4,5-dicarboxylic acid

> <PUBCHEM_IUPAC_INCHI>
InChI=1S/C20H12O4/c21-19(22)15-7-3-5-11-8-9-14-13-6-2-1-4-12(13)10-16(20(23)24)18(14)17(11)15/h1-10H,(H,21,22)(H,23,24)

> <PUBCHEM_IUPAC_INCHIKEY>
QBOGQZZZDOFBTQ-UHFFFAOYSA-N

> <PUBCHEM_XLOGP3_AA>
4.7

> <PUBCHEM_EXACT_MASS>
316.073559

> <PUBCHEM_MOLECULAR_FORMULA>
C20H12O4

> <PUBCHEM_MOLECULAR_WEIGHT>
316.30688

> <PUBCHEM_OPENEYE_CAN_SMILES>
C1=CC=C2C3=C(C(=CC2=C1)C(=O)O)C4=C(C=CC=C4C(=O)O)C=C3

> <PUBCHEM_OPENEYE_ISO_SMILES>
C1=CC=C2C3=C(C(=CC2=C1)C(=O)O)C4=C(C=CC=C4C(=O)O)C=C3

> <PUBCHEM_CACTVS_TPSA>
74.6

> <PUBCHEM_MONOISOTOPIC_WEIGHT>
316.073559

> <PUBCHEM_TOTAL_CHARGE>
0

> <PUBCHEM_HEAVY_ATOM_COUNT>
24

> <PUBCHEM_ATOM_DEF_STEREO_COUNT>
0

> <PUBCHEM_ATOM_UDEF_STEREO_COUNT>
0

> <PUBCHEM_BOND_DEF_STEREO_COUNT>
0

> <PUBCHEM_BOND_UDEF_STEREO_COUNT>
0

> <PUBCHEM_ISOTOPIC_ATOM_COUNT>
0

> <PUBCHEM_COMPONENT_COUNT>
1

> <PUBCHEM_CACTVS_TAUTO_COUNT>
1

> <PUBCHEM_COORDINATE_TYPE>
1
5
255

> <PUBCHEM_BONDANNOTATIONS>
10  13  8
11  13  8
11  18  8
12  15  8
14  19  8
16  22  8
17  20  8
18  23  8
19  20  8
22  23  8
5  10  8
5  6  8
5  7  8
6  12  8
6  8  8
7  14  8
7  9  8
8  11  8
8  16  8
9  15  8
9  17  8

$$$$

