5281683
  -OEChem-07051212582D

 15 15  0     0  0  0  0  0  0999 V2000
    3.9030   -1.8294    0.0000 N   0  0  0  0  0  0  0  0  0  0  0  0
    4.2690    1.2094    0.0000 N   0  0  0  0  0  0  0  0  0  0  0  0
    2.5369    1.2094    0.0000 N   0  0  0  0  0  0  0  0  0  0  0  0
    3.4030   -0.2906    0.0000 C   0  0  0  0  0  0  0  0  0  0  0  0
    3.4030    0.7094    0.0000 C   0  0  0  0  0  0  0  0  0  0  0  0
    2.5939   -0.8784    0.0000 C   0  0  0  0  0  0  0  0  0  0  0  0
    4.2120   -0.8784    0.0000 C   0  0  0  0  0  0  0  0  0  0  0  0
    2.9030   -1.8294    0.0000 C   0  0  0  0  0  0  0  0  0  0  0  0
    2.0043   -0.6868    0.0000 H   0  0  0  0  0  0  0  0  0  0  0  0
    4.8016   -0.6868    0.0000 H   0  0  0  0  0  0  0  0  0  0  0  0
    2.5385   -2.3310    0.0000 H   0  0  0  0  0  0  0  0  0  0  0  0
    4.2690    1.8294    0.0000 H   0  0  0  0  0  0  0  0  0  0  0  0
    4.8059    0.8994    0.0000 H   0  0  0  0  0  0  0  0  0  0  0  0
    2.5369    1.8294    0.0000 H   0  0  0  0  0  0  0  0  0  0  0  0
    2.0000    0.8994    0.0000 H   0  0  0  0  0  0  0  0  0  0  0  0
  1  7  2  0  0  0  0
  1  8  1  0  0  0  0
  2  5  1  0  0  0  0
  2 12  1  0  0  0  0
  2 13  1  0  0  0  0
  3  5  1  0  0  0  0
  3 14  1  0  0  0  0
  3 15  1  0  0  0  0
  4  5  2  0  0  0  0
  4  6  1  0  0  0  0
  4  7  1  0  0  0  0
  6  8  2  0  0  0  0
  6  9  1  0  0  0  0
  7 10  1  0  0  0  0
  8 11  1  0  0  0  0
M  END
> <PUBCHEM_COMPOUND_CID>
5281683

> <PUBCHEM_COMPOUND_CANONICALIZED>
1

> <PUBCHEM_CACTVS_COMPLEXITY>
172

> <PUBCHEM_CACTVS_HBOND_ACCEPTOR>
3

> <PUBCHEM_CACTVS_HBOND_DONOR>
2

> <PUBCHEM_CACTVS_ROTATABLE_BOND>
0

> <PUBCHEM_CACTVS_SUBSKEYS>
AAADcYBjAAAAAAAAAAAAAAAAAAAAAQAAAAAAAAAAAAAAAAAAAAAAHAAQAAAADADBAAQBAAJAAACgAjBnRAAAAAAgAgAIAAAgABgIAAAAAAAAAAAAAAAAAAAAAAAAAAAAAAAAAAAAAAAAAAAAAAAAAAAAAA==

> <PUBCHEM_IUPAC_OPENEYE_NAME>
pyrrol-3-ylidenemethanediamine

> <PUBCHEM_IUPAC_CAS_NAME>
3-pyrrolylidenemethanediamine

> <PUBCHEM_IUPAC_NAME>
pyrrol-3-ylidenemethanediamine

> <PUBCHEM_IUPAC_SYSTEMATIC_NAME>
pyrrol-3-ylidenemethanediamine

> <PUBCHEM_IUPAC_TRADITIONAL_NAME>
[amino(pyrrol-3-ylidene)methyl]amine

> <PUBCHEM_IUPAC_INCHI>
InChI=1S/C5H7N3/c6-5(7)4-1-2-8-3-4/h1-3H,6-7H2

> <PUBCHEM_IUPAC_INCHIKEY>
QLILMARGWDFNHA-UHFFFAOYSA-N

> <PUBCHEM_XLOGP3_AA>
-1

> <PUBCHEM_EXACT_MASS>
109.063997

> <PUBCHEM_MOLECULAR_FORMULA>
C5H7N3

> <PUBCHEM_MOLECULAR_WEIGHT>
109.12918

> <PUBCHEM_OPENEYE_CAN_SMILES>
C1=CN=CC1=C(N)N

> <PUBCHEM_OPENEYE_ISO_SMILES>
C1=CN=CC1=C(N)N

> <PUBCHEM_CACTVS_TPSA>
64.4

> <PUBCHEM_MONOISOTOPIC_WEIGHT>
109.063997

> <PUBCHEM_TOTAL_CHARGE>
0

> <PUBCHEM_HEAVY_ATOM_COUNT>
8

> <PUBCHEM_ATOM_DEF_STEREO_COUNT>
0

> <PUBCHEM_ATOM_UDEF_STEREO_COUNT>
0

> <PUBCHEM_BOND_DEF_STEREO_COUNT>
0

> <PUBCHEM_BOND_UDEF_STEREO_COUNT>
0

> <PUBCHEM_ISOTOPIC_ATOM_COUNT>
0

> <PUBCHEM_COMPONENT_COUNT>
1

> <PUBCHEM_CACTVS_TAUTO_COUNT>
3

> <PUBCHEM_COORDINATE_TYPE>
1
5
255

$$$$

