17396043
  -OEChem-06241222542D

 58 62  0     1  0  0  0  0  0999 V2000
    8.0414    1.1352    0.0000 S   0  0  0  0  0  0  0  0  0  0  0  0
    7.4551    1.9452    0.0000 O   0  0  0  0  0  0  0  0  0  0  0  0
    8.6278    0.3252    0.0000 O   0  0  0  0  0  0  0  0  0  0  0  0
    4.3211   -1.1710    0.0000 O   0  0  0  0  0  0  0  0  0  0  0  0
    4.6783   -2.8658    0.0000 N   0  0  0  0  0  0  0  0  0  0  0  0
    8.8515    1.7216    0.0000 N   0  0  3  0  0  0  0  0  0  0  0  0
    6.2781   -0.7585    0.0000 N   0  0  0  0  0  0  0  0  0  0  0  0
    5.6917    0.0515    0.0000 N   0  0  0  0  0  0  0  0  0  0  0  0
    5.2619   -3.6705    0.0000 C   0  0  3  0  0  0  0  0  0  0  0  0
    4.6783   -4.4753    0.0000 C   0  0  0  0  0  0  0  0  0  0  0  0
    3.7320   -4.1705    0.0000 C   0  0  0  0  0  0  0  0  0  0  0  0
    3.7320   -3.1705    0.0000 C   0  0  0  0  0  0  0  0  0  0  0  0
    9.7961    1.4120    0.0000 C   0  0  0  0  0  0  0  0  0  0  0  0
   10.3839    2.2136    0.0000 C   0  0  0  0  0  0  0  0  0  0  0  0
    8.8524    2.7157    0.0000 C   0  0  0  0  0  0  0  0  0  0  0  0
    7.2314    0.5488    0.0000 C   0  0  0  0  0  0  0  0  0  0  0  0
    9.8045    3.0214    0.0000 C   0  0  0  0  0  0  0  0  0  0  0  0
    4.9889   -1.9153    0.0000 C   0  0  0  0  0  0  0  0  0  0  0  0
    5.9674   -1.7091    0.0000 C   0  0  0  0  0  0  0  0  0  0  0  0
    7.2297   -0.4512    0.0000 C   0  0  0  0  0  0  0  0  0  0  0  0
    6.2619   -3.6705    0.0000 C   0  0  0  0  0  0  0  0  0  0  0  0
    6.2809    0.8595    0.0000 C   0  0  0  0  0  0  0  0  0  0  0  0
    2.8660   -4.6705    0.0000 C   0  0  0  0  0  0  0  0  0  0  0  0
    2.8660   -2.6705    0.0000 C   0  0  0  0  0  0  0  0  0  0  0  0
    8.1115    3.3874    0.0000 C   0  0  0  0  0  0  0  0  0  0  0  0
   10.0158    3.9988    0.0000 C   0  0  0  0  0  0  0  0  0  0  0  0
    8.0377   -1.0404    0.0000 C   0  0  0  0  0  0  0  0  0  0  0  0
    2.0000   -4.1705    0.0000 C   0  0  0  0  0  0  0  0  0  0  0  0
    2.0000   -3.1705    0.0000 C   0  0  0  0  0  0  0  0  0  0  0  0
    5.9735    1.8111    0.0000 C   0  0  0  0  0  0  0  0  0  0  0  0
    8.3228    4.3648    0.0000 C   0  0  0  0  0  0  0  0  0  0  0  0
    9.2749    4.6705    0.0000 C   0  0  0  0  0  0  0  0  0  0  0  0
    5.5436   -3.1182    0.0000 H   0  0  0  0  0  0  0  0  0  0  0  0
    4.4272   -5.0422    0.0000 H   0  0  0  0  0  0  0  0  0  0  0  0
    5.2156   -4.7845    0.0000 H   0  0  0  0  0  0  0  0  0  0  0  0
    9.5421    0.8464    0.0000 H   0  0  0  0  0  0  0  0  0  0  0  0
   10.3319    1.1000    0.0000 H   0  0  0  0  0  0  0  0  0  0  0  0
   10.8426    1.7965    0.0000 H   0  0  0  0  0  0  0  0  0  0  0  0
   10.8469    2.6260    0.0000 H   0  0  0  0  0  0  0  0  0  0  0  0
    5.9880   -2.3287    0.0000 H   0  0  0  0  0  0  0  0  0  0  0  0
    6.5812   -1.7964    0.0000 H   0  0  0  0  0  0  0  0  0  0  0  0
    6.2619   -4.2905    0.0000 H   0  0  0  0  0  0  0  0  0  0  0  0
    6.8819   -3.6705    0.0000 H   0  0  0  0  0  0  0  0  0  0  0  0
    6.2619   -3.0505    0.0000 H   0  0  0  0  0  0  0  0  0  0  0  0
    2.8660   -5.2905    0.0000 H   0  0  0  0  0  0  0  0  0  0  0  0
    2.8660   -2.0505    0.0000 H   0  0  0  0  0  0  0  0  0  0  0  0
    7.5212    3.1978    0.0000 H   0  0  0  0  0  0  0  0  0  0  0  0
   10.6061    4.1884    0.0000 H   0  0  0  0  0  0  0  0  0  0  0  0
    7.6724   -1.5413    0.0000 H   0  0  0  0  0  0  0  0  0  0  0  0
    8.5386   -1.4056    0.0000 H   0  0  0  0  0  0  0  0  0  0  0  0
    8.4030   -0.5394    0.0000 H   0  0  0  0  0  0  0  0  0  0  0  0
    1.4631   -4.4805    0.0000 H   0  0  0  0  0  0  0  0  0  0  0  0
    1.4631   -2.8605    0.0000 H   0  0  0  0  0  0  0  0  0  0  0  0
    6.5635    2.0017    0.0000 H   0  0  0  0  0  0  0  0  0  0  0  0
    5.7830    2.4011    0.0000 H   0  0  0  0  0  0  0  0  0  0  0  0
    5.3835    1.6205    0.0000 H   0  0  0  0  0  0  0  0  0  0  0  0
    7.8635    4.7813    0.0000 H   0  0  0  0  0  0  0  0  0  0  0  0
    9.4059    5.2765    0.0000 H   0  0  0  0  0  0  0  0  0  0  0  0
  1  2  2  0  0  0  0
  1  3  2  0  0  0  0
  1  6  1  0  0  0  0
  1 16  1  0  0  0  0
  4 18  2  0  0  0  0
  5  9  1  0  0  0  0
  5 12  1  0  0  0  0
  5 18  1  0  0  0  0
  6 13  1  0  0  0  0
  6 15  1  0  0  0  0
  7  8  1  0  0  0  0
  7 19  1  0  0  0  0
  7 20  1  0  0  0  0
  8 22  2  0  0  0  0
  9 10  1  0  0  0  0
  9 21  1  0  0  0  0
  9 33  1  0  0  0  0
 10 11  1  0  0  0  0
 10 34  1  0  0  0  0
 10 35  1  0  0  0  0
 11 12  1  0  0  0  0
 11 23  2  0  0  0  0
 12 24  2  0  0  0  0
 13 14  1  0  0  0  0
 13 36  1  0  0  0  0
 13 37  1  0  0  0  0
 14 17  1  0  0  0  0
 14 38  1  0  0  0  0
 14 39  1  0  0  0  0
 15 17  1  0  0  0  0
 15 25  2  0  0  0  0
 16 20  2  0  0  0  0
 16 22  1  0  0  0  0
 17 26  2  0  0  0  0
 18 19  1  0  0  0  0
 19 40  1  0  0  0  0
 19 41  1  0  0  0  0
 20 27  1  0  0  0  0
 21 42  1  0  0  0  0
 21 43  1  0  0  0  0
 21 44  1  0  0  0  0
 22 30  1  0  0  0  0
 23 28  1  0  0  0  0
 23 45  1  0  0  0  0
 24 29  1  0  0  0  0
 24 46  1  0  0  0  0
 25 31  1  0  0  0  0
 25 47  1  0  0  0  0
 26 32  1  0  0  0  0
 26 48  1  0  0  0  0
 27 49  1  0  0  0  0
 27 50  1  0  0  0  0
 27 51  1  0  0  0  0
 28 29  2  0  0  0  0
 28 52  1  0  0  0  0
 29 53  1  0  0  0  0
 30 54  1  0  0  0  0
 30 55  1  0  0  0  0
 30 56  1  0  0  0  0
 31 32  2  0  0  0  0
 31 57  1  0  0  0  0
 32 58  1  0  0  0  0
M  END
> <PUBCHEM_COMPOUND_CID>
17396043

> <PUBCHEM_COMPOUND_CANONICALIZED>
1

> <PUBCHEM_CACTVS_COMPLEXITY>
815

> <PUBCHEM_CACTVS_HBOND_ACCEPTOR>
5

> <PUBCHEM_CACTVS_HBOND_DONOR>
0

> <PUBCHEM_CACTVS_ROTATABLE_BOND>
4

> <PUBCHEM_CACTVS_SUBSKEYS>
AAADceB7sABAAAAAAAAAAAAAAAAAAWLFgAAwYAAAAAAAAFgB0AAAHgQIQAAADCjB3gQywZMIAAKqAyVyVHDSBBAhggAY2DS4ZJgIYCLA0fGUpAhgjgDIyAcQgIAOAAAAAAACAAAAAAAAAAQAAAAAAAAAAA==

> <PUBCHEM_IUPAC_OPENEYE_NAME>
2-(4-indolin-1-ylsulfonyl-3,5-dimethyl-pyrazol-1-yl)-1-(2-methylindolin-1-yl)ethanone

> <PUBCHEM_IUPAC_CAS_NAME>
2-[4-(2,3-dihydroindol-1-ylsulfonyl)-3,5-dimethyl-1-pyrazolyl]-1-(2-methyl-2,3-dihydroindol-1-yl)ethanone

> <PUBCHEM_IUPAC_NAME>
2-[4-(2,3-dihydroindol-1-ylsulfonyl)-3,5-dimethylpyrazol-1-yl]-1-(2-methyl-2,3-dihydroindol-1-yl)ethanone

> <PUBCHEM_IUPAC_SYSTEMATIC_NAME>
2-[4-(2,3-dihydroindol-1-ylsulfonyl)-3,5-dimethyl-pyrazol-1-yl]-1-(2-methyl-2,3-dihydroindol-1-yl)ethanone

> <PUBCHEM_IUPAC_TRADITIONAL_NAME>
2-(4-indolin-1-ylsulfonyl-3,5-dimethyl-pyrazol-1-yl)-1-(2-methylindolin-1-yl)ethanone

> <PUBCHEM_IUPAC_INCHI>
InChI=1S/C24H26N4O3S/c1-16-14-20-9-5-7-11-22(20)28(16)23(29)15-26-18(3)24(17(2)25-26)32(30,31)27-13-12-19-8-4-6-10-21(19)27/h4-11,16H,12-15H2,1-3H3

> <PUBCHEM_IUPAC_INCHIKEY>
MPRVUJIMBVKVNC-UHFFFAOYSA-N

> <PUBCHEM_XLOGP3_AA>
3.4

> <PUBCHEM_EXACT_MASS>
450.172562

> <PUBCHEM_MOLECULAR_FORMULA>
C24H26N4O3S

> <PUBCHEM_MOLECULAR_WEIGHT>
450.55324

> <PUBCHEM_OPENEYE_CAN_SMILES>
CC1CC2=CC=CC=C2N1C(=O)CN3C(=C(C(=N3)C)S(=O)(=O)N4CCC5=CC=CC=C54)C

> <PUBCHEM_OPENEYE_ISO_SMILES>
CC1CC2=CC=CC=C2N1C(=O)CN3C(=C(C(=N3)C)S(=O)(=O)N4CCC5=CC=CC=C54)C

> <PUBCHEM_CACTVS_TPSA>
83.9

> <PUBCHEM_MONOISOTOPIC_WEIGHT>
450.172562

> <PUBCHEM_TOTAL_CHARGE>
0

> <PUBCHEM_HEAVY_ATOM_COUNT>
32

> <PUBCHEM_ATOM_DEF_STEREO_COUNT>
0

> <PUBCHEM_ATOM_UDEF_STEREO_COUNT>
1

> <PUBCHEM_BOND_DEF_STEREO_COUNT>
0

> <PUBCHEM_BOND_UDEF_STEREO_COUNT>
0

> <PUBCHEM_ISOTOPIC_ATOM_COUNT>
0

> <PUBCHEM_COMPONENT_COUNT>
1

> <PUBCHEM_CACTVS_TAUTO_COUNT>
1

> <PUBCHEM_COORDINATE_TYPE>
1
5
255

> <PUBCHEM_BONDANNOTATIONS>
11  12  8
11  23  8
12  24  8
15  17  8
15  25  8
16  20  8
16  22  8
17  26  8
23  28  8
24  29  8
25  31  8
26  32  8
28  29  8
31  32  8
7  20  8
7  8  8
8  22  8
9  21  3

$$$$

