   Color/Form
        Clear liquid
   from [1]HSDB

   Odor
        Mild odor
   from [2]HSDB

   Boiling Point
        250-257 deg C at 4 mm Hg
   from [3]HSDB

   Melting Point
        -50 deg C
   from [4]HSDB

   Corrosivity
        MAY ATTACK SOME FORMS OF PLASTICS
   from [5]HSDB

   Density/Specific Gravity
        0.966 at 20 deg C/20 deg C
   from [6]HSDB

   Heat of Combustion
        Estimated at -16,600 Btu/lb = -9,200 cal/g = -386X10+5 Joules/kg
   from [7]HSDB

   Octanol/Water Partition Coefficient
        log Kow = 10.36 (est)
   from [8]HSDB

   Solubilities

     * Insol in glycerol, glycols and some amines; sol in most organic
       solvents
     * More soluble in crude sweat than in water and increasing solubility
       with pH rise
     * In water, 0.28 mg/L at 25 deg C

   from [9]HSDB

   Spectral Properties

     * INDEX OF REFRACTION: 1.483 @ 25 DEG C/D
     * Diisodecyl phthalate has a UV adsorption band at 275 nm, the tail
       of which extends somewhat beyond 290 nm(1).

   from [10]HSDB

   Vapor Pressure
        5.28X10-7 mm Hg at 25 deg C
   from [11]HSDB

   Viscosity
        108 centipoises at 20 deg C
   from [12]HSDB

   Other Chemical/Physical Properties

     * Will hydrolyze under acidic and basic conditions.
     * Bulk density: 8 lb/gal
     * Phthalate esters would be expected to have UV maxima in the 230 nm
       and 270 nm regions. /Phthalate esters/
     * ... Resistance to migration from polymers, low temperature
       flexibility ... compatibility with polar polymers and additives
       over a wide range of compositions. /Phthalate esters/
     * Henry's Law constant = 1.11X10-6 atm-cu m/mol at 25 deg C (est)
     * Hydroxy radical reaction rate constant = 2.62X10-11 cu cm/molec-sec
       at 25 deg C (est)

   from [13]HSDB

   Computed Properties
   Molecular Weight                  446.66244 [g/mol]
   Molecular Formula                 C[28]H[46]O[4]
   XLogP3                            10.6
   H-Bond Donor                      0
   H-Bond Acceptor                   4
   Rotatable Bond Count              20
   Exact Mass                        446.33961
   MonoIsotopic Mass                 446.33961
   Topological Polar Surface Area    52.6
   Heavy Atom Count                  32
   Formal Charge                     0
   Complexity                        442
   Isotope Atom Count                0
   Defined Atom Stereocenter Count   0
   Undefined Atom Stereocenter Count 0
   Defined Bond Stereocenter Count   0
   Undefined Bond Stereocenter Count 0
   Covalently-Bonded Unit Count      1

References

   1. http://toxnet.nlm.nih.gov/cgi-bin/sis/search/r?dbs+hsdb:@term+@rn+@rel+26761-40-0
   2. http://toxnet.nlm.nih.gov/cgi-bin/sis/search/r?dbs+hsdb:@term+@rn+@rel+26761-40-0
   3. http://toxnet.nlm.nih.gov/cgi-bin/sis/search/r?dbs+hsdb:@term+@rn+@rel+26761-40-0
   4. http://toxnet.nlm.nih.gov/cgi-bin/sis/search/r?dbs+hsdb:@term+@rn+@rel+26761-40-0
   5. http://toxnet.nlm.nih.gov/cgi-bin/sis/search/r?dbs+hsdb:@term+@rn+@rel+26761-40-0
   6. http://toxnet.nlm.nih.gov/cgi-bin/sis/search/r?dbs+hsdb:@term+@rn+@rel+26761-40-0
   7. http://toxnet.nlm.nih.gov/cgi-bin/sis/search/r?dbs+hsdb:@term+@rn+@rel+26761-40-0
   8. http://toxnet.nlm.nih.gov/cgi-bin/sis/search/r?dbs+hsdb:@term+@rn+@rel+26761-40-0
   9. http://toxnet.nlm.nih.gov/cgi-bin/sis/search/r?dbs+hsdb:@term+@rn+@rel+26761-40-0
  10. http://toxnet.nlm.nih.gov/cgi-bin/sis/search/r?dbs+hsdb:@term+@rn+@rel+26761-40-0
  11. http://toxnet.nlm.nih.gov/cgi-bin/sis/search/r?dbs+hsdb:@term+@rn+@rel+26761-40-0
  12. http://toxnet.nlm.nih.gov/cgi-bin/sis/search/r?dbs+hsdb:@term+@rn+@rel+26761-40-0
  13. http://toxnet.nlm.nih.gov/cgi-bin/sis/search/r?dbs+hsdb:@term+@rn+@rel+26761-40-0
