10676
  -OEChem-07051213082D

 26 27  0     0  0  0  0  0  0999 V2000
    6.8834   -1.2922    0.0000 S   0  0  0  0  0  0  0  0  0  0  0  0
    3.4030    1.7424    0.0000 S   0  0  0  0  0  0  0  0  0  0  0  0
    6.8718   -2.2922    0.0000 O   0  0  0  0  0  0  0  0  0  0  0  0
    2.5369    2.2424    0.0000 O   0  0  0  0  0  0  0  0  0  0  0  0
    7.8834   -1.3038    0.0000 O   0  0  0  0  0  0  0  0  0  0  0  0
    5.8835   -1.2807    0.0000 O   0  0  0  0  0  0  0  0  0  0  0  0
    2.9030    0.8763    0.0000 O   0  0  0  0  0  0  0  0  0  0  0  0
    3.9030    2.6084    0.0000 O   0  0  0  0  0  0  0  0  0  0  0  0
    6.0010    0.2423    0.0000 C   0  0  0  0  0  0  0  0  0  0  0  0
    6.0010    1.2424    0.0000 C   0  0  0  0  0  0  0  0  0  0  0  0
    6.8950   -0.2923    0.0000 C   0  0  0  0  0  0  0  0  0  0  0  0
    4.2690    1.2424    0.0000 C   0  0  0  0  0  0  0  0  0  0  0  0
    5.1350    1.7424    0.0000 C   0  0  0  0  0  0  0  0  0  0  0  0
    5.1350   -0.2577    0.0000 C   0  0  0  0  0  0  0  0  0  0  0  0
    6.8950    1.7770    0.0000 C   0  0  0  0  0  0  0  0  0  0  0  0
    4.2690    0.2423    0.0000 C   0  0  0  0  0  0  0  0  0  0  0  0
    7.8010    0.2215    0.0000 C   0  0  0  0  0  0  0  0  0  0  0  0
    7.8010    1.2632    0.0000 C   0  0  0  0  0  0  0  0  0  0  0  0
    5.1350    2.3623    0.0000 H   0  0  0  0  0  0  0  0  0  0  0  0
    5.1350   -0.8777    0.0000 H   0  0  0  0  0  0  0  0  0  0  0  0
    6.8878    2.3970    0.0000 H   0  0  0  0  0  0  0  0  0  0  0  0
    3.7320   -0.0677    0.0000 H   0  0  0  0  0  0  0  0  0  0  0  0
    8.3368   -0.0905    0.0000 H   0  0  0  0  0  0  0  0  0  0  0  0
    8.3368    1.5752    0.0000 H   0  0  0  0  0  0  0  0  0  0  0  0
    7.4052   -2.6084    0.0000 H   0  0  0  0  0  0  0  0  0  0  0  0
    2.0000    1.9324    0.0000 H   0  0  0  0  0  0  0  0  0  0  0  0
  1  3  1  0  0  0  0
  1  5  2  0  0  0  0
  1  6  2  0  0  0  0
  1 11  1  0  0  0  0
  2  4  1  0  0  0  0
  2  7  2  0  0  0  0
  2  8  2  0  0  0  0
  2 12  1  0  0  0  0
  3 25  1  0  0  0  0
  4 26  1  0  0  0  0
  9 10  2  0  0  0  0
  9 11  1  0  0  0  0
  9 14  1  0  0  0  0
 10 13  1  0  0  0  0
 10 15  1  0  0  0  0
 11 17  2  0  0  0  0
 12 13  2  0  0  0  0
 12 16  1  0  0  0  0
 13 19  1  0  0  0  0
 14 16  2  0  0  0  0
 14 20  1  0  0  0  0
 15 18  2  0  0  0  0
 15 21  1  0  0  0  0
 16 22  1  0  0  0  0
 17 18  1  0  0  0  0
 17 23  1  0  0  0  0
 18 24  1  0  0  0  0
M  END
> <PUBCHEM_COMPOUND_CID>
10676

> <PUBCHEM_COMPOUND_CANONICALIZED>
1

> <PUBCHEM_CACTVS_COMPLEXITY>
498

> <PUBCHEM_CACTVS_HBOND_ACCEPTOR>
6

> <PUBCHEM_CACTVS_HBOND_DONOR>
2

> <PUBCHEM_CACTVS_ROTATABLE_BOND>
2

> <PUBCHEM_CACTVS_SUBSKEYS>
AAADccBwOABgAAAAAAAAAAAAAAAAAAAAAAAwYAAAAAAAAADBUAAAGAQACAAADACAWAAwAcAAAIKAAiBCAHBCAEAgAAAIiBgAAIgIICKAERCAIAAggAAIiAcAgIAOkAAAgAAUAAAgAAEAACgAAAAAAAAAAA==

> <PUBCHEM_IUPAC_OPENEYE_NAME>
naphthalene-1,6-disulfonic acid

> <PUBCHEM_IUPAC_CAS_NAME>
naphthalene-1,6-disulfonic acid

> <PUBCHEM_IUPAC_NAME>
naphthalene-1,6-disulfonic acid

> <PUBCHEM_IUPAC_SYSTEMATIC_NAME>
naphthalene-1,6-disulfonic acid

> <PUBCHEM_IUPAC_TRADITIONAL_NAME>
naphthalene-1,6-disulfonic acid

> <PUBCHEM_IUPAC_INCHI>
InChI=1S/C10H8O6S2/c11-17(12,13)8-4-5-9-7(6-8)2-1-3-10(9)18(14,15)16/h1-6H,(H,11,12,13)(H,14,15,16)

> <PUBCHEM_IUPAC_INCHIKEY>
HEWDOWUUTBCVJP-UHFFFAOYSA-N

> <PUBCHEM_XLOGP3_AA>
0.7

> <PUBCHEM_EXACT_MASS>
287.97623

> <PUBCHEM_MOLECULAR_FORMULA>
C10H8O6S2

> <PUBCHEM_MOLECULAR_WEIGHT>
288.29692

> <PUBCHEM_OPENEYE_CAN_SMILES>
C1=CC2=C(C=CC(=C2)S(=O)(=O)O)C(=C1)S(=O)(=O)O

> <PUBCHEM_OPENEYE_ISO_SMILES>
C1=CC2=C(C=CC(=C2)S(=O)(=O)O)C(=C1)S(=O)(=O)O

> <PUBCHEM_CACTVS_TPSA>
126

> <PUBCHEM_MONOISOTOPIC_WEIGHT>
287.97623

> <PUBCHEM_TOTAL_CHARGE>
0

> <PUBCHEM_HEAVY_ATOM_COUNT>
18

> <PUBCHEM_ATOM_DEF_STEREO_COUNT>
0

> <PUBCHEM_ATOM_UDEF_STEREO_COUNT>
0

> <PUBCHEM_BOND_DEF_STEREO_COUNT>
0

> <PUBCHEM_BOND_UDEF_STEREO_COUNT>
0

> <PUBCHEM_ISOTOPIC_ATOM_COUNT>
0

> <PUBCHEM_COMPONENT_COUNT>
1

> <PUBCHEM_CACTVS_TAUTO_COUNT>
1

> <PUBCHEM_COORDINATE_TYPE>
1
5
255

> <PUBCHEM_BONDANNOTATIONS>
10  13  8
10  15  8
11  17  8
12  13  8
12  16  8
14  16  8
15  18  8
17  18  8
9  10  8
9  11  8
9  14  8

$$$$

