443145
  -OEChem-07051213012D

 90 94  0     1  0  0  0  0  0999 V2000
    4.1923    1.2418    0.0000 O   0  0  0  0  0  0  0  0  0  0  0  0
    4.8602    0.4975    0.0000 O   0  0  0  0  0  0  0  0  0  0  0  0
    6.5530   -2.6859    0.0000 O   0  0  0  0  0  0  0  0  0  0  0  0
    8.8672   -3.9683    0.0000 O   0  0  0  0  0  0  0  0  0  0  0  0
    7.2209   -3.4302    0.0000 O   0  0  0  0  0  0  0  0  0  0  0  0
    3.8352    2.9366    0.0000 N   0  0  0  0  0  0  0  0  0  0  0  0
    5.4815    2.3986    0.0000 N   0  0  0  0  0  0  0  0  0  0  0  0
    6.5065   -0.0406    0.0000 N   0  0  0  0  0  0  0  0  0  0  0  0
    7.8422   -1.5292    0.0000 N   0  0  0  0  0  0  0  0  0  0  0  0
    4.9067   -3.7573    0.0000 N   0  0  0  0  0  0  0  0  0  0  0  0
   10.8059   -4.2841    0.0000 N   0  0  0  0  0  0  0  0  0  0  0  0
    2.0000    4.2332    0.0000 C   0  0  0  0  0  0  0  0  0  0  0  0
    2.7443    4.9011    0.0000 C   0  0  0  0  0  0  0  0  0  0  0  0
    3.7305    4.7355    0.0000 C   0  0  0  0  0  0  0  0  0  0  0  0
    2.0581    3.2349    0.0000 C   0  0  0  0  0  0  0  0  0  0  0  0
    4.2160    3.8613    0.0000 C   0  0  0  0  0  0  0  0  0  0  0  0
    2.8748    2.6579    0.0000 C   0  0  0  0  0  0  0  0  0  0  0  0
    6.1494    1.6543    0.0000 C   0  0  1  0  0  0  0  0  0  0  0  0
    7.1279    1.8605    0.0000 C   0  0  0  0  0  0  0  0  0  0  0  0
    7.4385    2.8110    0.0000 C   0  0  0  0  0  0  0  0  0  0  0  0
    4.5030    2.1923    0.0000 C   0  0  0  0  0  0  0  0  0  0  0  0
    6.1959   -0.9911    0.0000 C   0  0  2  0  0  0  0  0  0  0  0  0
    5.8387    0.7037    0.0000 C   0  0  0  0  0  0  0  0  0  0  0  0
    5.2174   -1.1973    0.0000 C   0  0  0  0  0  0  0  0  0  0  0  0
    4.9067   -2.1478    0.0000 C   0  0  0  0  0  0  0  0  0  0  0  0
    8.4170    3.0172    0.0000 C   0  0  0  0  0  0  0  0  0  0  0  0
    6.7707    3.5553    0.0000 C   0  0  0  0  0  0  0  0  0  0  0  0
    6.8637   -1.7354    0.0000 C   0  0  0  0  0  0  0  0  0  0  0  0
    8.5101   -2.2735    0.0000 C   0  0  2  0  0  0  0  0  0  0  0  0
    3.9605   -2.4526    0.0000 C   0  0  0  0  0  0  0  0  0  0  0  0
    9.4886   -2.0672    0.0000 C   0  0  0  0  0  0  0  0  0  0  0  0
    5.4903   -2.9526    0.0000 C   0  0  0  0  0  0  0  0  0  0  0  0
    3.9605   -3.4526    0.0000 C   0  0  0  0  0  0  0  0  0  0  0  0
   10.1564   -2.8116    0.0000 C   0  0  0  0  0  0  0  0  0  0  0  0
   11.1451   -2.7085    0.0000 C   0  0  0  0  0  0  0  0  0  0  0  0
    3.0945   -1.9526    0.0000 C   0  0  0  0  0  0  0  0  0  0  0  0
   11.5487   -3.6234    0.0000 C   0  0  0  0  0  0  0  0  0  0  0  0
    8.1994   -3.2240    0.0000 C   0  0  0  0  0  0  0  0  0  0  0  0
    9.9472   -3.7834    0.0000 C   0  0  0  0  0  0  0  0  0  0  0  0
    3.0945   -3.9526    0.0000 C   0  0  0  0  0  0  0  0  0  0  0  0
    2.2284   -2.4526    0.0000 C   0  0  0  0  0  0  0  0  0  0  0  0
   11.7357   -1.9015    0.0000 C   0  0  0  0  0  0  0  0  0  0  0  0
    2.2284   -3.4526    0.0000 C   0  0  0  0  0  0  0  0  0  0  0  0
   12.5429   -3.7314    0.0000 C   0  0  0  0  0  0  0  0  0  0  0  0
   12.7299   -2.0095    0.0000 C   0  0  0  0  0  0  0  0  0  0  0  0
   13.1334   -2.9244    0.0000 C   0  0  0  0  0  0  0  0  0  0  0  0
    1.6990    4.7752    0.0000 H   0  0  0  0  0  0  0  0  0  0  0  0
    2.9804    5.4743    0.0000 H   0  0  0  0  0  0  0  0  0  0  0  0
    2.2379    5.2588    0.0000 H   0  0  0  0  0  0  0  0  0  0  0  0
    1.4046    4.0604    0.0000 H   0  0  0  0  0  0  0  0  0  0  0  0
    1.4466    3.3375    0.0000 H   0  0  0  0  0  0  0  0  0  0  0  0
    1.8220    2.6616    0.0000 H   0  0  0  0  0  0  0  0  0  0  0  0
    4.3259    4.9084    0.0000 H   0  0  0  0  0  0  0  0  0  0  0  0
    3.6945    5.3545    0.0000 H   0  0  0  0  0  0  0  0  0  0  0  0
    2.4133    2.2438    0.0000 H   0  0  0  0  0  0  0  0  0  0  0  0
    3.1758    2.1158    0.0000 H   0  0  0  0  0  0  0  0  0  0  0  0
    4.7223    3.5035    0.0000 H   0  0  0  0  0  0  0  0  0  0  0  0
    4.6774    4.2754    0.0000 H   0  0  0  0  0  0  0  0  0  0  0  0
    6.3420    2.2436    0.0000 H   0  0  0  0  0  0  0  0  0  0  0  0
    7.1484    1.2408    0.0000 H   0  0  0  0  0  0  0  0  0  0  0  0
    7.7417    1.7731    0.0000 H   0  0  0  0  0  0  0  0  0  0  0  0
    6.8318    2.6831    0.0000 H   0  0  0  0  0  0  0  0  0  0  0  0
    5.6741    2.9879    0.0000 H   0  0  0  0  0  0  0  0  0  0  0  0
    6.8025   -0.8632    0.0000 H   0  0  0  0  0  0  0  0  0  0  0  0
    5.1968   -0.5776    0.0000 H   0  0  0  0  0  0  0  0  0  0  0  0
    4.6036   -1.1100    0.0000 H   0  0  0  0  0  0  0  0  0  0  0  0
    7.1132    0.0873    0.0000 H   0  0  0  0  0  0  0  0  0  0  0  0
    8.5449    2.4105    0.0000 H   0  0  0  0  0  0  0  0  0  0  0  0
    9.0237    3.1451    0.0000 H   0  0  0  0  0  0  0  0  0  0  0  0
    8.2892    3.6239    0.0000 H   0  0  0  0  0  0  0  0  0  0  0  0
    7.2321    3.9694    0.0000 H   0  0  0  0  0  0  0  0  0  0  0  0
    6.3566    4.0168    0.0000 H   0  0  0  0  0  0  0  0  0  0  0  0
    6.3092    3.1412    0.0000 H   0  0  0  0  0  0  0  0  0  0  0  0
    8.7027   -1.6842    0.0000 H   0  0  0  0  0  0  0  0  0  0  0  0
   10.0149   -1.7396    0.0000 H   0  0  0  0  0  0  0  0  0  0  0  0
    9.2573   -1.4920    0.0000 H   0  0  0  0  0  0  0  0  0  0  0  0
    8.0348   -0.9398    0.0000 H   0  0  0  0  0  0  0  0  0  0  0  0
    6.1103   -2.9526    0.0000 H   0  0  0  0  0  0  0  0  0  0  0  0
    5.0993   -4.3466    0.0000 H   0  0  0  0  0  0  0  0  0  0  0  0
    3.0945   -1.3326    0.0000 H   0  0  0  0  0  0  0  0  0  0  0  0
    9.3799   -4.0336    0.0000 H   0  0  0  0  0  0  0  0  0  0  0  0
    3.0945   -4.5726    0.0000 H   0  0  0  0  0  0  0  0  0  0  0  0
   10.8676   -4.9011    0.0000 H   0  0  0  0  0  0  0  0  0  0  0  0
    1.6915   -2.1426    0.0000 H   0  0  0  0  0  0  0  0  0  0  0  0
   11.4855   -1.3342    0.0000 H   0  0  0  0  0  0  0  0  0  0  0  0
    1.6915   -3.7626    0.0000 H   0  0  0  0  0  0  0  0  0  0  0  0
   12.7931   -4.2987    0.0000 H   0  0  0  0  0  0  0  0  0  0  0  0
   13.0960   -1.5092    0.0000 H   0  0  0  0  0  0  0  0  0  0  0  0
   13.7498   -2.9914    0.0000 H   0  0  0  0  0  0  0  0  0  0  0  0
    8.6746   -4.5576    0.0000 H   0  0  0  0  0  0  0  0  0  0  0  0
  1 21  2  0  0  0  0
  2 23  2  0  0  0  0
  3 28  2  0  0  0  0
  4 38  1  0  0  0  0
  4 90  1  0  0  0  0
  5 38  2  0  0  0  0
  6 16  1  0  0  0  0
  6 17  1  0  0  0  0
  6 21  1  0  0  0  0
 18  7  1  1  0  0  0
  7 21  1  0  0  0  0
  7 63  1  0  0  0  0
 22  8  1  1  0  0  0
  8 23  1  0  0  0  0
  8 67  1  0  0  0  0
  9 28  1  0  0  0  0
 29  9  1  6  0  0  0
  9 77  1  0  0  0  0
 10 32  1  0  0  0  0
 10 33  1  0  0  0  0
 10 79  1  0  0  0  0
 11 37  1  0  0  0  0
 11 39  1  0  0  0  0
 11 83  1  0  0  0  0
 12 13  1  0  0  0  0
 12 15  1  0  0  0  0
 12 47  1  0  0  0  0
 12 50  1  0  0  0  0
 13 14  1  0  0  0  0
 13 48  1  0  0  0  0
 13 49  1  0  0  0  0
 14 16  1  0  0  0  0
 14 53  1  0  0  0  0
 14 54  1  0  0  0  0
 15 17  1  0  0  0  0
 15 51  1  0  0  0  0
 15 52  1  0  0  0  0
 16 57  1  0  0  0  0
 16 58  1  0  0  0  0
 17 55  1  0  0  0  0
 17 56  1  0  0  0  0
 18 19  1  0  0  0  0
 18 23  1  0  0  0  0
 18 59  1  0  0  0  0
 19 20  1  0  0  0  0
 19 60  1  0  0  0  0
 19 61  1  0  0  0  0
 20 26  1  0  0  0  0
 20 27  1  0  0  0  0
 20 62  1  0  0  0  0
 22 24  1  0  0  0  0
 22 28  1  0  0  0  0
 22 64  1  0  0  0  0
 24 25  1  0  0  0  0
 24 65  1  0  0  0  0
 24 66  1  0  0  0  0
 25 30  1  0  0  0  0
 25 32  2  0  0  0  0
 26 68  1  0  0  0  0
 26 69  1  0  0  0  0
 26 70  1  0  0  0  0
 27 71  1  0  0  0  0
 27 72  1  0  0  0  0
 27 73  1  0  0  0  0
 29 31  1  0  0  0  0
 29 38  1  0  0  0  0
 29 74  1  0  0  0  0
 30 33  1  0  0  0  0
 30 36  2  0  0  0  0
 31 34  1  0  0  0  0
 31 75  1  0  0  0  0
 31 76  1  0  0  0  0
 32 78  1  0  0  0  0
 33 40  2  0  0  0  0
 34 35  1  0  0  0  0
 34 39  2  0  0  0  0
 35 37  1  0  0  0  0
 35 42  2  0  0  0  0
 36 41  1  0  0  0  0
 36 80  1  0  0  0  0
 37 44  2  0  0  0  0
 39 81  1  0  0  0  0
 40 43  1  0  0  0  0
 40 82  1  0  0  0  0
 41 43  2  0  0  0  0
 41 84  1  0  0  0  0
 42 45  1  0  0  0  0
 42 85  1  0  0  0  0
 43 86  1  0  0  0  0
 44 46  1  0  0  0  0
 44 87  1  0  0  0  0
 45 46  2  0  0  0  0
 45 88  1  0  0  0  0
 46 89  1  0  0  0  0
M  END
> <PUBCHEM_COMPOUND_CID>
443145

> <PUBCHEM_COMPOUND_CANONICALIZED>
1

> <PUBCHEM_CACTVS_COMPLEXITY>
1050

> <PUBCHEM_CACTVS_HBOND_ACCEPTOR>
5

> <PUBCHEM_CACTVS_HBOND_DONOR>
6

> <PUBCHEM_CACTVS_ROTATABLE_BOND>
12

> <PUBCHEM_CACTVS_SUBSKEYS>
AAADcfB/uAAAAAAAAAAAAAAAAAAAAWLAAAAwYAAABYAAAFgB/gAAHgAQCAAADSjBngQ/yPPJkgCoAzX3XACCgCAxAiAI2aG4ZJiKYPLAkbGUYAhslgLYyAeY2fKOgAAAAAACAAAAAAAAAAQAAAAAAAAAAA==

> <PUBCHEM_IUPAC_OPENEYE_NAME>
(2R)-2-[[(2R)-2-[[(2S)-2-(azepane-1-carbonylamino)-4-methyl-pentanoyl]amino]-3-(1H-indol-3-yl)propanoyl]amino]-3-(1H-indol-3-yl)propanoic acid

> <PUBCHEM_IUPAC_CAS_NAME>
(2R)-2-[[(2R)-2-[[(2S)-2-[[1-azepanyl(oxo)methyl]amino]-4-methyl-1-oxopentyl]amino]-3-(1H-indol-3-yl)-1-oxopropyl]amino]-3-(1H-indol-3-yl)propanoic acid

> <PUBCHEM_IUPAC_NAME>
(2R)-2-[[(2R)-2-[[(2S)-2-(azepane-1-carbonylamino)-4-methylpentanoyl]amino]-3-(1H-indol-3-yl)propanoyl]amino]-3-(1H-indol-3-yl)propanoic acid

> <PUBCHEM_IUPAC_SYSTEMATIC_NAME>
(2R)-2-[[(2R)-2-[[(2S)-2-(azepan-1-ylcarbonylamino)-4-methyl-pentanoyl]amino]-3-(1H-indol-3-yl)propanoyl]amino]-3-(1H-indol-3-yl)propanoic acid

> <PUBCHEM_IUPAC_TRADITIONAL_NAME>
(2R)-2-[[(2R)-2-[[(2S)-2-(azepane-1-carbonylamino)-4-methyl-pentanoyl]amino]-3-(1H-indol-3-yl)propanoyl]amino]-3-(1H-indol-3-yl)propionic acid

> <PUBCHEM_IUPAC_INCHI>
InChI=1S/C35H44N6O5/c1-22(2)17-29(40-35(46)41-15-9-3-4-10-16-41)32(42)38-30(18-23-20-36-27-13-7-5-11-25(23)27)33(43)39-31(34(44)45)19-24-21-37-28-14-8-6-12-26(24)28/h5-8,11-14,20-22,29-31,36-37H,3-4,9-10,15-19H2,1-2H3,(H,38,42)(H,39,43)(H,40,46)(H,44,45)/t29-,30+,31+/m0/s1

> <PUBCHEM_IUPAC_INCHIKEY>
ZBJNAHVLKNFOPP-OJDZSJEKSA-N

> <PUBCHEM_XLOGP3>
4.5

> <PUBCHEM_EXACT_MASS>
628.337319

> <PUBCHEM_MOLECULAR_FORMULA>
C35H44N6O5

> <PUBCHEM_MOLECULAR_WEIGHT>
628.76106

> <PUBCHEM_OPENEYE_CAN_SMILES>
CC(C)CC(C(=O)NC(CC1=CNC2=CC=CC=C21)C(=O)NC(CC3=CNC4=CC=CC=C43)C(=O)O)NC(=O)N5CCCCCC5

> <PUBCHEM_OPENEYE_ISO_SMILES>
CC(C)C[C@@H](C(=O)N[C@H](CC1=CNC2=CC=CC=C21)C(=O)N[C@H](CC3=CNC4=CC=CC=C43)C(=O)O)NC(=O)N5CCCCCC5

> <PUBCHEM_CACTVS_TPSA>
159

> <PUBCHEM_MONOISOTOPIC_WEIGHT>
628.337319

> <PUBCHEM_TOTAL_CHARGE>
0

> <PUBCHEM_HEAVY_ATOM_COUNT>
46

> <PUBCHEM_ATOM_DEF_STEREO_COUNT>
3

> <PUBCHEM_ATOM_UDEF_STEREO_COUNT>
0

> <PUBCHEM_BOND_DEF_STEREO_COUNT>
0

> <PUBCHEM_BOND_UDEF_STEREO_COUNT>
0

> <PUBCHEM_ISOTOPIC_ATOM_COUNT>
0

> <PUBCHEM_COMPONENT_COUNT>
1

> <PUBCHEM_CACTVS_TAUTO_COUNT>
8

> <PUBCHEM_COORDINATE_TYPE>
1
5
255

> <PUBCHEM_BONDANNOTATIONS>
10  32  8
10  33  8
11  37  8
11  39  8
25  30  8
25  32  8
30  33  8
30  36  8
33  40  8
34  35  8
34  39  8
35  37  8
35  42  8
36  41  8
37  44  8
40  43  8
41  43  8
42  45  8
44  46  8
45  46  8
18  7  5
22  8  5
29  9  6

$$$$

