395943
  -OEChem-07051213042D

 51 51  0     0  0  0  0  0  0999 V2000
    7.8916   -1.5032    0.0000 O   0  0  0  0  0  0  0  0  0  0  0  0
   16.4285    0.2160    0.0000 O   0  0  0  0  0  0  0  0  0  0  0  0
   15.2695    1.5032    0.0000 O   0  0  0  0  0  0  0  0  0  0  0  0
   11.3459   -0.8643    0.0000 C   0  0  0  0  0  0  0  0  0  0  0  0
   12.0890   -0.1952    0.0000 C   0  0  0  0  0  0  0  0  0  0  0  0
   10.3948   -0.5553    0.0000 C   0  0  0  0  0  0  0  0  0  0  0  0
   13.0401   -0.5042    0.0000 C   0  0  0  0  0  0  0  0  0  0  0  0
    9.6517   -1.2244    0.0000 C   0  0  0  0  0  0  0  0  0  0  0  0
    5.3884   -0.5553    0.0000 C   0  0  0  0  0  0  0  0  0  0  0  0
    4.4374   -0.8643    0.0000 C   0  0  0  0  0  0  0  0  0  0  0  0
    6.1316   -1.2244    0.0000 C   0  0  0  0  0  0  0  0  0  0  0  0
   13.7832    0.1649    0.0000 C   0  0  0  0  0  0  0  0  0  0  0  0
    8.7006   -0.9154    0.0000 C   0  0  0  0  0  0  0  0  0  0  0  0
    3.6942   -0.1952    0.0000 C   0  0  0  0  0  0  0  0  0  0  0  0
    7.0826   -0.9154    0.0000 C   0  0  0  0  0  0  0  0  0  0  0  0
    8.3916    0.0356    0.0000 C   0  0  0  0  0  0  0  0  0  0  0  0
    2.7431   -0.5042    0.0000 C   0  0  0  0  0  0  0  0  0  0  0  0
    7.3916    0.0356    0.0000 C   0  0  0  0  0  0  0  0  0  0  0  0
   14.7343   -0.1441    0.0000 C   0  0  0  0  0  0  0  0  0  0  0  0
    2.0000    0.1649    0.0000 C   0  0  0  0  0  0  0  0  0  0  0  0
   15.4774    0.5250    0.0000 C   0  0  0  0  0  0  0  0  0  0  0  0
   11.0548   -1.4117    0.0000 H   0  0  0  0  0  0  0  0  0  0  0  0
   11.8345   -1.2460    0.0000 H   0  0  0  0  0  0  0  0  0  0  0  0
   12.3801    0.3522    0.0000 H   0  0  0  0  0  0  0  0  0  0  0  0
   11.6005    0.1865    0.0000 H   0  0  0  0  0  0  0  0  0  0  0  0
   10.6859   -0.0079    0.0000 H   0  0  0  0  0  0  0  0  0  0  0  0
    9.9063   -0.1736    0.0000 H   0  0  0  0  0  0  0  0  0  0  0  0
   12.7490   -1.0516    0.0000 H   0  0  0  0  0  0  0  0  0  0  0  0
   13.5287   -0.8859    0.0000 H   0  0  0  0  0  0  0  0  0  0  0  0
    9.3606   -1.7718    0.0000 H   0  0  0  0  0  0  0  0  0  0  0  0
   10.1403   -1.6061    0.0000 H   0  0  0  0  0  0  0  0  0  0  0  0
    5.8770   -0.1736    0.0000 H   0  0  0  0  0  0  0  0  0  0  0  0
    5.0973   -0.0079    0.0000 H   0  0  0  0  0  0  0  0  0  0  0  0
    3.9488   -1.2460    0.0000 H   0  0  0  0  0  0  0  0  0  0  0  0
    4.7284   -1.4117    0.0000 H   0  0  0  0  0  0  0  0  0  0  0  0
    5.6430   -1.6061    0.0000 H   0  0  0  0  0  0  0  0  0  0  0  0
    6.4226   -1.7718    0.0000 H   0  0  0  0  0  0  0  0  0  0  0  0
   14.0743    0.7124    0.0000 H   0  0  0  0  0  0  0  0  0  0  0  0
   13.2947    0.5466    0.0000 H   0  0  0  0  0  0  0  0  0  0  0  0
    4.1828    0.1865    0.0000 H   0  0  0  0  0  0  0  0  0  0  0  0
    3.4031    0.3522    0.0000 H   0  0  0  0  0  0  0  0  0  0  0  0
    2.2546   -0.8859    0.0000 H   0  0  0  0  0  0  0  0  0  0  0  0
    3.0342   -1.0516    0.0000 H   0  0  0  0  0  0  0  0  0  0  0  0
    8.7560    0.5372    0.0000 H   0  0  0  0  0  0  0  0  0  0  0  0
    7.0272    0.5372    0.0000 H   0  0  0  0  0  0  0  0  0  0  0  0
   14.4432   -0.6915    0.0000 H   0  0  0  0  0  0  0  0  0  0  0  0
   15.2229   -0.5258    0.0000 H   0  0  0  0  0  0  0  0  0  0  0  0
    2.4149    0.6257    0.0000 H   0  0  0  0  0  0  0  0  0  0  0  0
    1.5392    0.5798    0.0000 H   0  0  0  0  0  0  0  0  0  0  0  0
    1.5851   -0.2958    0.0000 H   0  0  0  0  0  0  0  0  0  0  0  0
   16.8892    0.6309    0.0000 H   0  0  0  0  0  0  0  0  0  0  0  0
  1 13  1  0  0  0  0
  1 15  1  0  0  0  0
  2 21  1  0  0  0  0
  2 51  1  0  0  0  0
  3 21  2  0  0  0  0
  4  5  1  0  0  0  0
  4  6  1  0  0  0  0
  4 22  1  0  0  0  0
  4 23  1  0  0  0  0
  5  7  1  0  0  0  0
  5 24  1  0  0  0  0
  5 25  1  0  0  0  0
  6  8  1  0  0  0  0
  6 26  1  0  0  0  0
  6 27  1  0  0  0  0
  7 12  1  0  0  0  0
  7 28  1  0  0  0  0
  7 29  1  0  0  0  0
  8 13  1  0  0  0  0
  8 30  1  0  0  0  0
  8 31  1  0  0  0  0
  9 10  1  0  0  0  0
  9 11  1  0  0  0  0
  9 32  1  0  0  0  0
  9 33  1  0  0  0  0
 10 14  1  0  0  0  0
 10 34  1  0  0  0  0
 10 35  1  0  0  0  0
 11 15  1  0  0  0  0
 11 36  1  0  0  0  0
 11 37  1  0  0  0  0
 12 19  1  0  0  0  0
 12 38  1  0  0  0  0
 12 39  1  0  0  0  0
 13 16  2  0  0  0  0
 14 17  1  0  0  0  0
 14 40  1  0  0  0  0
 14 41  1  0  0  0  0
 15 18  2  0  0  0  0
 16 18  1  0  0  0  0
 16 44  1  0  0  0  0
 17 20  1  0  0  0  0
 17 42  1  0  0  0  0
 17 43  1  0  0  0  0
 18 45  1  0  0  0  0
 19 21  1  0  0  0  0
 19 46  1  0  0  0  0
 19 47  1  0  0  0  0
 20 48  1  0  0  0  0
 20 49  1  0  0  0  0
 20 50  1  0  0  0  0
M  END
> <PUBCHEM_COMPOUND_CID>
395943

> <PUBCHEM_COMPOUND_CANONICALIZED>
1

> <PUBCHEM_CACTVS_COMPLEXITY>
265

> <PUBCHEM_CACTVS_HBOND_ACCEPTOR>
3

> <PUBCHEM_CACTVS_HBOND_DONOR>
1

> <PUBCHEM_CACTVS_ROTATABLE_BOND>
13

> <PUBCHEM_CACTVS_SUBSKEYS>
AAADceB4MAAAAAAAAAAAAAAAAAAAASAAAAAAAAAAAAAAAAABgAAAGgAACAAACASAkAAyDIAABkCIAKDSCAACCAAkIAAIiAEGCMgMJjKENRqCWSCkwBEIqYeIyKCAAAAAAAAAAAAAAAAAAAAAAAAAAAAAAA==

> <PUBCHEM_IUPAC_OPENEYE_NAME>
8-(5-hexyl-2-furyl)octanoic acid

> <PUBCHEM_IUPAC_CAS_NAME>
8-(5-hexyl-2-furanyl)octanoic acid

> <PUBCHEM_IUPAC_NAME>
8-(5-hexylfuran-2-yl)octanoic acid

> <PUBCHEM_IUPAC_SYSTEMATIC_NAME>
8-(5-hexylfuran-2-yl)octanoic acid

> <PUBCHEM_IUPAC_TRADITIONAL_NAME>
8-(5-hexyl-2-furyl)caprylic acid

> <PUBCHEM_IUPAC_INCHI>
InChI=1S/C18H30O3/c1-2-3-4-8-11-16-14-15-17(21-16)12-9-6-5-7-10-13-18(19)20/h14-15H,2-13H2,1H3,(H,19,20)

> <PUBCHEM_IUPAC_INCHIKEY>
SZNVIDWMWMWUCY-UHFFFAOYSA-N

> <PUBCHEM_XLOGP3_AA>
5.9

> <PUBCHEM_EXACT_MASS>
294.219495

> <PUBCHEM_MOLECULAR_FORMULA>
C18H30O3

> <PUBCHEM_MOLECULAR_WEIGHT>
294.429

> <PUBCHEM_OPENEYE_CAN_SMILES>
CCCCCCC1=CC=C(O1)CCCCCCCC(=O)O

> <PUBCHEM_OPENEYE_ISO_SMILES>
CCCCCCC1=CC=C(O1)CCCCCCCC(=O)O

> <PUBCHEM_CACTVS_TPSA>
50.4

> <PUBCHEM_MONOISOTOPIC_WEIGHT>
294.219495

> <PUBCHEM_TOTAL_CHARGE>
0

> <PUBCHEM_HEAVY_ATOM_COUNT>
21

> <PUBCHEM_ATOM_DEF_STEREO_COUNT>
0

> <PUBCHEM_ATOM_UDEF_STEREO_COUNT>
0

> <PUBCHEM_BOND_DEF_STEREO_COUNT>
0

> <PUBCHEM_BOND_UDEF_STEREO_COUNT>
0

> <PUBCHEM_ISOTOPIC_ATOM_COUNT>
0

> <PUBCHEM_COMPONENT_COUNT>
1

> <PUBCHEM_CACTVS_TAUTO_COUNT>
1

> <PUBCHEM_COORDINATE_TYPE>
1
5
255

> <PUBCHEM_BONDANNOTATIONS>
1  13  8
1  15  8
13  16  8
15  18  8
16  18  8

$$$$

