5281503
  -OEChem-07051212572D

 75 77  0     1  0  0  0  0  0999 V2000
    8.5544   -2.4705    0.0000 O   0  0  0  0  0  0  0  0  0  0  0  0
   10.2203   -0.6180    0.0000 O   0  0  0  0  0  0  0  0  0  0  0  0
    7.9184    1.7048    0.0000 O   0  0  0  0  0  0  0  0  0  0  0  0
   10.3819    0.4656    0.0000 O   0  0  0  0  0  0  0  0  0  0  0  0
   10.8842   -2.2476    0.0000 O   0  0  0  0  0  0  0  0  0  0  0  0
    4.9397   -1.1274    0.0000 O   0  0  0  0  0  0  0  0  0  0  0  0
    9.9665   -3.5482    0.0000 O   0  0  0  0  0  0  0  0  0  0  0  0
    9.4422    1.9205    0.0000 O   0  0  0  0  0  0  0  0  0  0  0  0
    6.1863    1.7048    0.0000 O   0  0  0  0  0  0  0  0  0  0  0  0
    4.5543    0.5612    0.0000 O   0  0  0  0  0  0  0  0  0  0  0  0
    9.3193   -1.0519    0.0000 C   0  0  1  0  0  0  0  0  0  0  0  0
    7.2949   -0.0770    0.0000 C   0  0  2  0  0  0  0  0  0  0  0  0
    8.4184   -1.4858    0.0000 C   0  0  2  0  0  0  0  0  0  0  0  0
    7.9184    0.7048    0.0000 C   0  0  2  0  0  0  0  0  0  0  0  0
    7.5174   -1.0519    0.0000 C   0  0  0  0  0  0  0  0  0  0  0  0
    9.5418   -0.0770    0.0000 C   0  0  2  0  0  0  0  0  0  0  0  0
    8.9184    0.7048    0.0000 C   0  0  0  0  0  0  0  0  0  0  0  0
   10.0044   -1.7722    0.0000 C   0  0  1  0  0  0  0  0  0  0  0  0
    6.3046    0.0095    0.0000 C   0  0  0  0  0  0  0  0  0  0  0  0
    5.9147   -0.9049    0.0000 C   0  0  2  0  0  0  0  0  0  0  0  0
    6.6627   -1.5596    0.0000 C   0  0  0  0  0  0  0  0  0  0  0  0
    7.1365    1.3283    0.0000 C   0  0  0  0  0  0  0  0  0  0  0  0
    9.5326   -2.6472    0.0000 C   0  0  0  0  0  0  0  0  0  0  0  0
   10.7284   -1.0824    0.0000 C   0  0  0  0  0  0  0  0  0  0  0  0
    6.5713   -2.5554    0.0000 C   0  0  0  0  0  0  0  0  0  0  0  0
   10.3320    1.4643    0.0000 C   0  0  0  0  0  0  0  0  0  0  0  0
    7.0523    2.2048    0.0000 C   0  0  0  0  0  0  0  0  0  0  0  0
   11.1721    2.0069    0.0000 C   0  0  2  0  0  0  0  0  0  0  0  0
    4.2596   -0.3943    0.0000 C   0  0  0  0  0  0  0  0  0  0  0  0
    7.0523    3.2048    0.0000 C   0  0  0  0  0  0  0  0  0  0  0  0
   11.1222    3.0056    0.0000 C   0  0  0  0  0  0  0  0  0  0  0  0
   12.0619    1.5506    0.0000 C   0  0  0  0  0  0  0  0  0  0  0  0
    3.2846   -0.6169    0.0000 C   0  0  0  0  0  0  0  0  0  0  0  0
   11.9622    3.5482    0.0000 C   0  0  0  0  0  0  0  0  0  0  0  0
    2.9899   -1.5724    0.0000 C   0  0  0  0  0  0  0  0  0  0  0  0
    2.6045    0.1162    0.0000 C   0  0  0  0  0  0  0  0  0  0  0  0
    2.8992    1.0718    0.0000 C   0  0  0  0  0  0  0  0  0  0  0  0
    6.9598    0.7042    0.0000 H   0  0  0  0  0  0  0  0  0  0  0  0
    7.7313   -1.9863    0.0000 H   0  0  0  0  0  0  0  0  0  0  0  0
   10.0497   -0.4326    0.0000 H   0  0  0  0  0  0  0  0  0  0  0  0
    9.4770    0.9738    0.0000 H   0  0  0  0  0  0  0  0  0  0  0  0
    8.7804    1.3093    0.0000 H   0  0  0  0  0  0  0  0  0  0  0  0
    6.4232    0.6181    0.0000 H   0  0  0  0  0  0  0  0  0  0  0  0
    5.7118    0.1914    0.0000 H   0  0  0  0  0  0  0  0  0  0  0  0
    5.7629   -1.5060    0.0000 H   0  0  0  0  0  0  0  0  0  0  0  0
    7.5231    1.8131    0.0000 H   0  0  0  0  0  0  0  0  0  0  0  0
    6.6518    1.7149    0.0000 H   0  0  0  0  0  0  0  0  0  0  0  0
    6.7500    0.8436    0.0000 H   0  0  0  0  0  0  0  0  0  0  0  0
   11.1561   -1.5313    0.0000 H   0  0  0  0  0  0  0  0  0  0  0  0
   11.1773   -0.6547    0.0000 H   0  0  0  0  0  0  0  0  0  0  0  0
   10.3007   -0.6335    0.0000 H   0  0  0  0  0  0  0  0  0  0  0  0
   10.7237   -0.2561    0.0000 H   0  0  0  0  0  0  0  0  0  0  0  0
    5.9539   -2.4987    0.0000 H   0  0  0  0  0  0  0  0  0  0  0  0
    6.5147   -3.1728    0.0000 H   0  0  0  0  0  0  0  0  0  0  0  0
    7.1888   -2.6120    0.0000 H   0  0  0  0  0  0  0  0  0  0  0  0
   10.9017   -2.8674    0.0000 H   0  0  0  0  0  0  0  0  0  0  0  0
   11.2030    1.3876    0.0000 H   0  0  0  0  0  0  0  0  0  0  0  0
    7.6723    3.2048    0.0000 H   0  0  0  0  0  0  0  0  0  0  0  0
    7.0523    3.8248    0.0000 H   0  0  0  0  0  0  0  0  0  0  0  0
    6.4323    3.2048    0.0000 H   0  0  0  0  0  0  0  0  0  0  0  0
   10.8814    3.5769    0.0000 H   0  0  0  0  0  0  0  0  0  0  0  0
   10.5178    2.8676    0.0000 H   0  0  0  0  0  0  0  0  0  0  0  0
   11.7791    0.9989    0.0000 H   0  0  0  0  0  0  0  0  0  0  0  0
   12.6136    1.2678    0.0000 H   0  0  0  0  0  0  0  0  0  0  0  0
   12.3448    2.1024    0.0000 H   0  0  0  0  0  0  0  0  0  0  0  0
   12.2986    3.0273    0.0000 H   0  0  0  0  0  0  0  0  0  0  0  0
   12.4831    3.8845    0.0000 H   0  0  0  0  0  0  0  0  0  0  0  0
   11.6259    4.0690    0.0000 H   0  0  0  0  0  0  0  0  0  0  0  0
    2.3974   -1.3897    0.0000 H   0  0  0  0  0  0  0  0  0  0  0  0
    2.8071   -2.1649    0.0000 H   0  0  0  0  0  0  0  0  0  0  0  0
    3.5823   -1.7552    0.0000 H   0  0  0  0  0  0  0  0  0  0  0  0
    2.0000   -0.0218    0.0000 H   0  0  0  0  0  0  0  0  0  0  0  0
    3.4917    0.8890    0.0000 H   0  0  0  0  0  0  0  0  0  0  0  0
    3.0820    1.6642    0.0000 H   0  0  0  0  0  0  0  0  0  0  0  0
    2.3068    1.2545    0.0000 H   0  0  0  0  0  0  0  0  0  0  0  0
  1 13  1  0  0  0  0
  1 23  1  0  0  0  0
 11  2  1  1  0  0  0
  2 52  1  0  0  0  0
 14  3  1  1  0  0  0
  3 27  1  0  0  0  0
 16  4  1  6  0  0  0
  4 26  1  0  0  0  0
 18  5  1  6  0  0  0
  5 56  1  0  0  0  0
 20  6  1  6  0  0  0
  6 29  1  0  0  0  0
  7 23  2  0  0  0  0
  8 26  2  0  0  0  0
  9 27  2  0  0  0  0
 10 29  2  0  0  0  0
 11 13  1  0  0  0  0
 11 16  1  0  0  0  0
 11 18  1  0  0  0  0
 12 14  1  0  0  0  0
 12 15  1  0  0  0  0
 12 19  1  0  0  0  0
 12 38  1  1  0  0  0
 13 15  1  0  0  0  0
 13 39  1  6  0  0  0
 14 17  1  0  0  0  0
 14 22  1  0  0  0  0
 15 21  2  0  0  0  0
 16 17  1  0  0  0  0
 16 40  1  0  0  0  0
 17 41  1  0  0  0  0
 17 42  1  0  0  0  0
 18 23  1  0  0  0  0
 18 24  1  0  0  0  0
 19 20  1  0  0  0  0
 19 43  1  0  0  0  0
 19 44  1  0  0  0  0
 20 21  1  0  0  0  0
 20 45  1  0  0  0  0
 21 25  1  0  0  0  0
 22 46  1  0  0  0  0
 22 47  1  0  0  0  0
 22 48  1  0  0  0  0
 24 49  1  0  0  0  0
 24 50  1  0  0  0  0
 24 51  1  0  0  0  0
 25 53  1  0  0  0  0
 25 54  1  0  0  0  0
 25 55  1  0  0  0  0
 26 28  1  0  0  0  0
 27 30  1  0  0  0  0
 28 31  1  0  0  0  0
 28 32  1  6  0  0  0
 28 57  1  0  0  0  0
 29 33  1  0  0  0  0
 30 58  1  0  0  0  0
 30 59  1  0  0  0  0
 30 60  1  0  0  0  0
 31 34  1  0  0  0  0
 31 61  1  0  0  0  0
 31 62  1  0  0  0  0
 32 63  1  0  0  0  0
 32 64  1  0  0  0  0
 32 65  1  0  0  0  0
 33 35  1  0  0  0  0
 33 36  2  0  0  0  0
 34 66  1  0  0  0  0
 34 67  1  0  0  0  0
 34 68  1  0  0  0  0
 35 69  1  0  0  0  0
 35 70  1  0  0  0  0
 35 71  1  0  0  0  0
 36 37  1  0  0  0  0
 36 72  1  0  0  0  0
 37 73  1  0  0  0  0
 37 74  1  0  0  0  0
 37 75  1  0  0  0  0
M  END
> <PUBCHEM_COMPOUND_CID>
5281503

> <PUBCHEM_COMPOUND_CANONICALIZED>
1

> <PUBCHEM_CACTVS_COMPLEXITY>
1060

> <PUBCHEM_CACTVS_HBOND_ACCEPTOR>
10

> <PUBCHEM_CACTVS_HBOND_DONOR>
2

> <PUBCHEM_CACTVS_ROTATABLE_BOND>
9

> <PUBCHEM_CACTVS_SUBSKEYS>
AAADcfB4PAAAAAAAAAAAAAAAAAAAASIAAAAAAAAABgAAAACQAAAAGgAACAAADVSggAICCAAABgCIAiDSCAIAAAAgAAAACAFAAEgBBBYAIQACUAAF4AALIYPK6PyOgAAAAAAAAAAAAAAAAAAAAAAAAAAAAA==

> <PUBCHEM_IUPAC_OPENEYE_NAME>
[(3S,3aR,4S,6S,6aS,8R,9bS)-6-acetoxy-3,3a-dihydroxy-3,6,9-trimethyl-8-[(Z)-2-methylbut-2-enoyl]oxy-2-oxo-4,5,6a,7,8,9b-hexahydroazuleno[4,5-b]furan-4-yl] (2S)-2-methylbutanoate

> <PUBCHEM_IUPAC_CAS_NAME>
(2S)-2-methylbutanoic acid [(3S,3aR,4S,6S,6aS,8R,9bS)-6-acetyloxy-3,3a-dihydroxy-3,6,9-trimethyl-8-[(Z)-2-methyl-1-oxobut-2-enoxy]-2-oxo-4,5,6a,7,8,9b-hexahydroazuleno[4,5-b]furan-4-yl] ester

> <PUBCHEM_IUPAC_NAME>
[(3S,3aR,4S,6S,6aS,8R,9bS)-6-acetyloxy-3,3a-dihydroxy-3,6,9-trimethyl-8-[(Z)-2-methylbut-2-enoyl]oxy-2-oxo-4,5,6a,7,8,9b-hexahydroazuleno[4,5-b]furan-4-yl] (2S)-2-methylbutanoate

> <PUBCHEM_IUPAC_SYSTEMATIC_NAME>
[(3S,3aR,4S,6S,6aS,8R,9bS)-6-acetyloxy-3,6,9-trimethyl-8-[(Z)-2-methylbut-2-enoyl]oxy-3,3a-bis(oxidanyl)-2-oxidanylidene-4,5,6a,7,8,9b-hexahydroazuleno[4,5-b]furan-4-yl] (2S)-2-methylbutanoate

> <PUBCHEM_IUPAC_TRADITIONAL_NAME>
(2S)-2-methylbutyric acid [(3S,3aR,4S,6S,6aS,8R,9bS)-6-acetoxy-3,3a-dihydroxy-2-keto-3,6,9-trimethyl-8-[(Z)-2-methylbut-2-enoyl]oxy-4,5,6a,7,8,9b-hexahydroazuleno[4,5-b]furan-4-yl] ester

> <PUBCHEM_IUPAC_INCHI>
InChI=1S/C27H38O10/c1-9-13(3)22(29)34-18-11-17-20(15(18)5)21-27(33,26(8,32)24(31)36-21)19(35-23(30)14(4)10-2)12-25(17,7)37-16(6)28/h9,14,17-19,21,32-33H,10-12H2,1-8H3/b13-9-/t14-,17-,18+,19-,21-,25-,26+,27+/m0/s1

> <PUBCHEM_IUPAC_INCHIKEY>
FIAZIVNRHQWTPY-QAAPNFDWSA-N

> <PUBCHEM_XLOGP3_AA>
1.5

> <PUBCHEM_EXACT_MASS>
522.246497

> <PUBCHEM_MOLECULAR_FORMULA>
C27H38O10

> <PUBCHEM_MOLECULAR_WEIGHT>
522.58462

> <PUBCHEM_OPENEYE_CAN_SMILES>
CCC(C)C(=O)OC1CC(C2CC(C(=C2C3C1(C(C(=O)O3)(C)O)O)C)OC(=O)C(=CC)C)(C)OC(=O)C

> <PUBCHEM_OPENEYE_ISO_SMILES>
CC[C@H](C)C(=O)O[C@H]1C[C@]([C@H]2C[C@H](C(=C2[C@H]3[C@]1([C@](C(=O)O3)(C)O)O)C)OC(=O)/C(=C\C)/C)(C)OC(=O)C

> <PUBCHEM_CACTVS_TPSA>
146

> <PUBCHEM_MONOISOTOPIC_WEIGHT>
522.246497

> <PUBCHEM_TOTAL_CHARGE>
0

> <PUBCHEM_HEAVY_ATOM_COUNT>
37

> <PUBCHEM_ATOM_DEF_STEREO_COUNT>
8

> <PUBCHEM_ATOM_UDEF_STEREO_COUNT>
0

> <PUBCHEM_BOND_DEF_STEREO_COUNT>
1

> <PUBCHEM_BOND_UDEF_STEREO_COUNT>
0

> <PUBCHEM_ISOTOPIC_ATOM_COUNT>
0

> <PUBCHEM_COMPONENT_COUNT>
1

> <PUBCHEM_CACTVS_TAUTO_COUNT>
1

> <PUBCHEM_COORDINATE_TYPE>
1
5
255

> <PUBCHEM_BONDANNOTATIONS>
12  38  5
13  39  6
11  2  5
28  32  6
14  3  5
16  4  6
18  5  6
20  6  6

$$$$

