5359367
  -OEChem-07051213072D

  1  0  0     0  0  0  0  0  0999 V2000
    2.0000    0.0000    0.0000 Bi  0  0  0  0  0 15  0  0  0  0  0  0
M  END
> <PUBCHEM_COMPOUND_CID>
5359367

> <PUBCHEM_COMPOUND_CANONICALIZED>
1

> <PUBCHEM_CACTVS_COMPLEXITY>
0

> <PUBCHEM_CACTVS_HBOND_ACCEPTOR>
0

> <PUBCHEM_CACTVS_HBOND_DONOR>
0

> <PUBCHEM_CACTVS_ROTATABLE_BOND>
0

> <PUBCHEM_CACTVS_SUBSKEYS>
AAADcQAAAAAAAAAAAAAAACAAAAAAAAAAAAAAAAAAAAAAAAAAAAAAAAAAAAAAAAAAAAAAAAAAAAAAAAAAAAAAAAAAAAAAAAAAAAAAAAAAAAAAAAAAAAAAAAAAAAAAAAAAAAAAAAAAAAAAAAAAAAAAAAAAAA==

> <PUBCHEM_IUPAC_OPENEYE_NAME>
bismuth

> <PUBCHEM_IUPAC_CAS_NAME>
bismuth

> <PUBCHEM_IUPAC_NAME>
bismuth

> <PUBCHEM_IUPAC_SYSTEMATIC_NAME>
bismuth

> <PUBCHEM_IUPAC_TRADITIONAL_NAME>
bismuth

> <PUBCHEM_IUPAC_INCHI>
InChI=1S/Bi

> <PUBCHEM_IUPAC_INCHIKEY>
JCXGWMGPZLAOME-UHFFFAOYSA-N

> <PUBCHEM_EXACT_MASS>
208.980399

> <PUBCHEM_MOLECULAR_FORMULA>
Bi

> <PUBCHEM_MOLECULAR_WEIGHT>
208.9804

> <PUBCHEM_OPENEYE_CAN_SMILES>
[Bi]

> <PUBCHEM_OPENEYE_ISO_SMILES>
[Bi]

> <PUBCHEM_CACTVS_TPSA>
0

> <PUBCHEM_MONOISOTOPIC_WEIGHT>
208.980399

> <PUBCHEM_TOTAL_CHARGE>
0

> <PUBCHEM_HEAVY_ATOM_COUNT>
1

> <PUBCHEM_ATOM_DEF_STEREO_COUNT>
0

> <PUBCHEM_ATOM_UDEF_STEREO_COUNT>
0

> <PUBCHEM_BOND_DEF_STEREO_COUNT>
0

> <PUBCHEM_BOND_UDEF_STEREO_COUNT>
0

> <PUBCHEM_ISOTOPIC_ATOM_COUNT>
0

> <PUBCHEM_COMPONENT_COUNT>
1

> <PUBCHEM_CACTVS_TAUTO_COUNT>
1

> <PUBCHEM_COORDINATE_TYPE>
1
5
255

$$$$

