   Color/Form

     * WHITE POWDER
     * OFF-WHITE TO BUFF POWDER

   from [1]HSDB

   Odor
        ODORLESS
   from [2]HSDB

   Melting Point
        182-183 deg C (decomp)
   from [3]HSDB

   Octanol/Water Partition Coefficient
        log Kow = -0.52 (@ ph 7)
   from [4]HSDB

   Solubilities

     * SOL IN ETHANOL, PROPYLENE GLYCOL; PRACTICALLY INSOL IN WATER
     * SLIGHTLY SOL IN METHANOL
     * SOL IN 2% CARBOXYMETHYLCELLULOSE & IN DIL MINERAL ACID & ALKALI
       SOLN; INSOL IN CHLOROFORM & ETHER

   from [5]HSDB

   Spectral Properties

     * SPECIFIC OPTICAL ROTATION: -31.5 DEG @ 22 DEG C/D (C= 0.67 IN
       METHANOL); +7.5 DEG @ 25 DEG C/D (C= 1.33 IN 1.0 N HCL)
     * MAX ABSORPTION (AQ SOLN @ PH 7): 260 NM (E= 560, 1%, 1 CM)

   from [6]HSDB

   Other Chemical/Physical Properties
        NEEDLES FROM METHANOL
   from [7]HSDB

   Computed Properties
   Molecular Weight                  305.20022 [g/mol]
   Molecular Formula                 C[13]H[18]Cl[2]N[2]O[2]
   XLogP3                            -0.5
   H-Bond Donor                      2
   H-Bond Acceptor                   4
   Rotatable Bond Count              8
   Exact Mass                        304.074533
   MonoIsotopic Mass                 304.074533
   Topological Polar Surface Area    66.6
   Heavy Atom Count                  19
   Formal Charge                     0
   Complexity                        265
   Isotope Atom Count                0
   Defined Atom Stereocenter Count   0
   Undefined Atom Stereocenter Count 1
   Defined Bond Stereocenter Count   0
   Undefined Bond Stereocenter Count 0
   Covalently-Bonded Unit Count      1
   Feature 3D Acceptor Count         2
   Feature 3D Donor Count            1
   Feature 3D Anion Count            1
   Feature 3D Cation Count           2
   Feature 3D Ring Count             1
   Effective Rotor Count             8
   Conformer Sampling RMSD           0.8
   CID Conformer Count               [8]185

References

   1. http://toxnet.nlm.nih.gov/cgi-bin/sis/search/r?dbs+hsdb:@term+@rn+@rel+148-82-3
   2. http://toxnet.nlm.nih.gov/cgi-bin/sis/search/r?dbs+hsdb:@term+@rn+@rel+148-82-3
   3. http://toxnet.nlm.nih.gov/cgi-bin/sis/search/r?dbs+hsdb:@term+@rn+@rel+148-82-3
   4. http://toxnet.nlm.nih.gov/cgi-bin/sis/search/r?dbs+hsdb:@term+@rn+@rel+148-82-3
   5. http://toxnet.nlm.nih.gov/cgi-bin/sis/search/r?dbs+hsdb:@term+@rn+@rel+148-82-3
   6. http://toxnet.nlm.nih.gov/cgi-bin/sis/search/r?dbs+hsdb:@term+@rn+@rel+148-82-3
   7. http://toxnet.nlm.nih.gov/cgi-bin/sis/search/r?dbs+hsdb:@term+@rn+@rel+148-82-3
   8. http://pubchem.ncbi.nlm.nih.gov/vw3d/vw3d.cgi?cid=4053
