5280742
  -OEChem-07051212492D

 49 50  0     1  0  0  0  0  0999 V2000
    6.7210    5.0326    0.0000 O   0  0  0  0  0  0  0  0  0  0  0  0
    2.8660    2.2774    0.0000 O   0  0  0  0  0  0  0  0  0  0  0  0
    4.5981   -0.7226    0.0000 O   0  0  0  0  0  0  0  0  0  0  0  0
    2.8660   -3.7226    0.0000 O   0  0  0  0  0  0  0  0  0  0  0  0
    4.5981   -4.7226    0.0000 O   0  0  0  0  0  0  0  0  0  0  0  0
    5.4641   -3.2226    0.0000 O   0  0  0  0  0  0  0  0  0  0  0  0
    5.4641    3.7774    0.0000 C   0  0  2  0  0  0  0  0  0  0  0  0
    5.4641    2.7774    0.0000 C   0  0  2  0  0  0  0  0  0  0  0  0
    4.5981    2.2774    0.0000 C   0  0  1  0  0  0  0  0  0  0  0  0
    6.4103    2.4726    0.0000 C   0  0  0  0  0  0  0  0  0  0  0  0
    4.5981    4.2774    0.0000 C   0  0  0  0  0  0  0  0  0  0  0  0
    6.4103    4.0821    0.0000 C   0  0  0  0  0  0  0  0  0  0  0  0
    6.9939    3.2774    0.0000 C   0  0  0  0  0  0  0  0  0  0  0  0
    3.7320    3.7774    0.0000 C   0  0  0  0  0  0  0  0  0  0  0  0
    5.4641    4.7774    0.0000 C   0  0  0  0  0  0  0  0  0  0  0  0
    3.7320    2.7774    0.0000 C   0  0  0  0  0  0  0  0  0  0  0  0
    4.5981    1.2774    0.0000 C   0  0  0  0  0  0  0  0  0  0  0  0
    3.7320    0.7774    0.0000 C   0  0  0  0  0  0  0  0  0  0  0  0
    3.7320   -0.2226    0.0000 C   0  0  0  0  0  0  0  0  0  0  0  0
    2.8660   -0.7226    0.0000 C   0  0  0  0  0  0  0  0  0  0  0  0
    2.0000   -0.2226    0.0000 C   0  0  0  0  0  0  0  0  0  0  0  0
    2.8660   -1.7226    0.0000 C   0  0  0  0  0  0  0  0  0  0  0  0
    3.7320   -2.2226    0.0000 C   0  0  0  0  0  0  0  0  0  0  0  0
    3.7320   -3.2226    0.0000 C   0  0  0  0  0  0  0  0  0  0  0  0
    4.5981   -3.7226    0.0000 C   0  0  0  0  0  0  0  0  0  0  0  0
    5.5540    1.9322    0.0000 H   0  0  0  0  0  0  0  0  0  0  0  0
    5.1350    1.9674    0.0000 H   0  0  0  0  0  0  0  0  0  0  0  0
    6.1593    1.9057    0.0000 H   0  0  0  0  0  0  0  0  0  0  0  0
    6.9477    2.1634    0.0000 H   0  0  0  0  0  0  0  0  0  0  0  0
    4.9966    4.7523    0.0000 H   0  0  0  0  0  0  0  0  0  0  0  0
    4.1996    4.7523    0.0000 H   0  0  0  0  0  0  0  0  0  0  0  0
    7.4548    2.8626    0.0000 H   0  0  0  0  0  0  0  0  0  0  0  0
    7.4548    3.6921    0.0000 H   0  0  0  0  0  0  0  0  0  0  0  0
    3.5200    4.3600    0.0000 H   0  0  0  0  0  0  0  0  0  0  0  0
    3.1215    3.6697    0.0000 H   0  0  0  0  0  0  0  0  0  0  0  0
    6.0841    4.7774    0.0000 H   0  0  0  0  0  0  0  0  0  0  0  0
    5.4641    5.3974    0.0000 H   0  0  0  0  0  0  0  0  0  0  0  0
    4.8441    4.7774    0.0000 H   0  0  0  0  0  0  0  0  0  0  0  0
    4.8101    0.6948    0.0000 H   0  0  0  0  0  0  0  0  0  0  0  0
    5.2087    1.3850    0.0000 H   0  0  0  0  0  0  0  0  0  0  0  0
    3.5200    1.3600    0.0000 H   0  0  0  0  0  0  0  0  0  0  0  0
    3.1215    0.6697    0.0000 H   0  0  0  0  0  0  0  0  0  0  0  0
    2.3100    0.3143    0.0000 H   0  0  0  0  0  0  0  0  0  0  0  0
    1.4631    0.0874    0.0000 H   0  0  0  0  0  0  0  0  0  0  0  0
    1.6900   -0.7596    0.0000 H   0  0  0  0  0  0  0  0  0  0  0  0
    2.3291   -2.0326    0.0000 H   0  0  0  0  0  0  0  0  0  0  0  0
    4.2690   -1.9126    0.0000 H   0  0  0  0  0  0  0  0  0  0  0  0
    2.8660   -4.3426    0.0000 H   0  0  0  0  0  0  0  0  0  0  0  0
    5.1350   -5.0326    0.0000 H   0  0  0  0  0  0  0  0  0  0  0  0
  1 12  2  0  0  0  0
  2 16  2  0  0  0  0
  3 19  2  0  0  0  0
  4 24  1  0  0  0  0
  4 48  1  0  0  0  0
  5 25  1  0  0  0  0
  5 49  1  0  0  0  0
  6 25  2  0  0  0  0
  7  8  1  0  0  0  0
  7 11  1  0  0  0  0
  7 12  1  0  0  0  0
  7 15  1  1  0  0  0
  8  9  1  0  0  0  0
  8 10  1  0  0  0  0
  8 26  1  6  0  0  0
  9 16  1  0  0  0  0
  9 17  1  6  0  0  0
  9 27  1  0  0  0  0
 10 13  1  0  0  0  0
 10 28  1  0  0  0  0
 10 29  1  0  0  0  0
 11 14  1  0  0  0  0
 11 30  1  0  0  0  0
 11 31  1  0  0  0  0
 12 13  1  0  0  0  0
 13 32  1  0  0  0  0
 13 33  1  0  0  0  0
 14 16  1  0  0  0  0
 14 34  1  0  0  0  0
 14 35  1  0  0  0  0
 15 36  1  0  0  0  0
 15 37  1  0  0  0  0
 15 38  1  0  0  0  0
 17 18  1  0  0  0  0
 17 39  1  0  0  0  0
 17 40  1  0  0  0  0
 18 19  1  0  0  0  0
 18 41  1  0  0  0  0
 18 42  1  0  0  0  0
 19 20  1  0  0  0  0
 20 21  1  0  0  0  0
 20 22  2  0  0  0  0
 21 43  1  0  0  0  0
 21 44  1  0  0  0  0
 21 45  1  0  0  0  0
 22 23  1  0  0  0  0
 22 46  1  0  0  0  0
 23 24  2  0  0  0  0
 23 47  1  0  0  0  0
 24 25  1  0  0  0  0
M  END
> <PUBCHEM_COMPOUND_CID>
5280742

> <PUBCHEM_COMPOUND_CANONICALIZED>
1

> <PUBCHEM_CACTVS_COMPLEXITY>
671

> <PUBCHEM_CACTVS_HBOND_ACCEPTOR>
6

> <PUBCHEM_CACTVS_HBOND_DONOR>
2

> <PUBCHEM_CACTVS_ROTATABLE_BOND>
6

> <PUBCHEM_CACTVS_SUBSKEYS>
AAADceB4OAAAAAAAAAAAAAAAAAAAAYAAAAAwAAAAAAAAAGAAAAAAGgAACAAADwSAgAACCAAAAgCIAqDSCAIAAAAgIAAACAFAAEgJBBIAAQAAEAAAgAAJkYMIisCvgAAAAAAAAAAAAAQAACAAAAAACAAAAA==

> <PUBCHEM_IUPAC_OPENEYE_NAME>
(2Z,4Z)-8-[(3aS,4S,7aS)-7a-methyl-1,5-dioxo-2,3,3a,4,6,7-hexahydroinden-4-yl]-2-hydroxy-5-methyl-6-oxo-octa-2,4-dienoic acid

> <PUBCHEM_IUPAC_CAS_NAME>
(2Z,4Z)-8-[(3aS,4S,7aS)-7a-methyl-1,5-dioxo-2,3,3a,4,6,7-hexahydroinden-4-yl]-2-hydroxy-5-methyl-6-oxoocta-2,4-dienoic acid

> <PUBCHEM_IUPAC_NAME>
(2Z,4Z)-8-[(3aS,4S,7aS)-7a-methyl-1,5-dioxo-2,3,3a,4,6,7-hexahydroinden-4-yl]-2-hydroxy-5-methyl-6-oxoocta-2,4-dienoic acid

> <PUBCHEM_IUPAC_SYSTEMATIC_NAME>
(2Z,4Z)-8-[(3aS,4S,7aS)-7a-methyl-1,5-bis(oxidanylidene)-2,3,3a,4,6,7-hexahydroinden-4-yl]-5-methyl-2-oxidanyl-6-oxidanylidene-octa-2,4-dienoic acid

> <PUBCHEM_IUPAC_TRADITIONAL_NAME>
(2Z,4Z)-8-[(3aS,4S,7aS)-1,5-diketo-7a-methyl-2,3,3a,4,6,7-hexahydroinden-4-yl]-2-hydroxy-6-keto-5-methyl-octa-2,4-dienoic acid

> <PUBCHEM_IUPAC_INCHI>
InChI=1S/C19H24O6/c1-11(3-6-16(22)18(24)25)14(20)7-4-12-13-5-8-17(23)19(13,2)10-9-15(12)21/h3,6,12-13,22H,4-5,7-10H2,1-2H3,(H,24,25)/b11-3-,16-6-/t12-,13-,19-/m0/s1

> <PUBCHEM_IUPAC_INCHIKEY>
HRJXKKSJPNWKCP-OKISYMSLSA-N

> <PUBCHEM_XLOGP3_AA>
1.2

> <PUBCHEM_EXACT_MASS>
348.157288

> <PUBCHEM_MOLECULAR_FORMULA>
C19H24O6

> <PUBCHEM_MOLECULAR_WEIGHT>
348.39026

> <PUBCHEM_OPENEYE_CAN_SMILES>
CC(=CC=C(C(=O)O)O)C(=O)CCC1C2CCC(=O)C2(CCC1=O)C

> <PUBCHEM_OPENEYE_ISO_SMILES>
C/C(=C/C=C(/C(=O)O)\O)/C(=O)CC[C@H]1[C@@H]2CCC(=O)[C@]2(CCC1=O)C

> <PUBCHEM_CACTVS_TPSA>
109

> <PUBCHEM_MONOISOTOPIC_WEIGHT>
348.157288

> <PUBCHEM_TOTAL_CHARGE>
0

> <PUBCHEM_HEAVY_ATOM_COUNT>
25

> <PUBCHEM_ATOM_DEF_STEREO_COUNT>
3

> <PUBCHEM_ATOM_UDEF_STEREO_COUNT>
0

> <PUBCHEM_BOND_DEF_STEREO_COUNT>
2

> <PUBCHEM_BOND_UDEF_STEREO_COUNT>
0

> <PUBCHEM_ISOTOPIC_ATOM_COUNT>
0

> <PUBCHEM_COMPONENT_COUNT>
1

> <PUBCHEM_CACTVS_TAUTO_COUNT>
78

> <PUBCHEM_COORDINATE_TYPE>
1
5
255

> <PUBCHEM_BONDANNOTATIONS>
7  15  5
8  26  6
9  17  6

$$$$

