10100825
  -OEChem-07051213032D

 92 94  0     1  0  0  0  0  0999 V2000
    3.1784   -4.2007    0.0000 O   0  0  0  0  0  0  0  0  0  0  0  0
    3.1082   -1.1523    0.0000 O   0  0  0  0  0  0  0  0  0  0  0  0
    4.3980   -2.5468    0.0000 O   0  0  0  0  0  0  0  0  0  0  0  0
    4.5541   -0.0703    0.0000 O   0  0  0  0  0  0  0  0  0  0  0  0
    7.2518   -4.1490    0.0000 O   0  0  0  0  0  0  0  0  0  0  0  0
    6.2457   -0.0807    0.0000 O   0  0  0  0  0  0  0  0  0  0  0  0
    9.0014   -1.2319    0.0000 O   0  0  0  0  0  0  0  0  0  0  0  0
   10.7595    1.8405    0.0000 O   0  0  0  0  0  0  0  0  0  0  0  0
    6.3913    1.3373    0.0000 O   0  0  0  0  0  0  0  0  0  0  0  0
    9.8554    3.3373    0.0000 O   0  0  0  0  0  0  0  0  0  0  0  0
    5.5279    3.8510    0.0000 O   0  0  0  0  0  0  0  0  0  0  0  0
    7.2599    3.8419    0.0000 N   0  0  0  0  0  0  0  0  0  0  0  0
    3.3938   -2.6287    0.0000 C   0  0  1  0  0  0  0  0  0  0  0  0
    3.8892   -3.4973    0.0000 C   0  0  1  0  0  0  0  0  0  0  0  0
    3.8983   -1.7653    0.0000 C   0  0  1  0  0  0  0  0  0  0  0  0
    4.8892   -3.5026    0.0000 C   0  0  1  0  0  0  0  0  0  0  0  0
    4.8656   -1.5116    0.0000 C   0  0  1  0  0  0  0  0  0  0  0  0
    5.3937   -2.6392    0.0000 C   0  0  2  0  0  0  0  0  0  0  0  0
    5.3702   -0.6482    0.0000 C   0  0  2  0  0  0  0  0  0  0  0  0
    2.4292   -2.3647    0.0000 C   0  0  0  0  0  0  0  0  0  0  0  0
    6.3937   -2.6445    0.0000 C   0  0  1  0  0  0  0  0  0  0  0  0
    5.5925   -4.2134    0.0000 C   0  0  0  0  0  0  0  0  0  0  0  0
    6.3702   -0.6535    0.0000 C   0  0  1  0  0  0  0  0  0  0  0  0
    5.7502   -1.9780    0.0000 C   0  0  0  0  0  0  0  0  0  0  0  0
    7.2571   -3.1491    0.0000 C   0  0  0  0  0  0  0  0  0  0  0  0
    6.3990   -1.6445    0.0000 C   0  0  0  0  0  0  0  0  0  0  0  0
    6.9399   -1.6524    0.0000 C   0  0  0  0  0  0  0  0  0  0  0  0
    6.3754    0.3465    0.0000 C   0  0  0  0  0  0  0  0  0  0  0  0
    7.2676   -1.1491    0.0000 C   0  0  0  0  0  0  0  0  0  0  0  0
    5.5121    0.8511    0.0000 C   0  0  0  0  0  0  0  0  0  0  0  0
    7.2386   -0.1996    0.0000 C   0  0  0  0  0  0  0  0  0  0  0  0
    8.1600   -1.6004    0.0000 C   0  0  0  0  0  0  0  0  0  0  0  0
    8.1072    0.2958    0.0000 C   0  0  0  0  0  0  0  0  0  0  0  0
    5.5174    1.8511    0.0000 C   0  0  0  0  0  0  0  0  0  0  0  0
    8.1233    1.3373    0.0000 C   0  0  0  0  0  0  0  0  0  0  0  0
    9.0053   -0.2319    0.0000 C   0  0  0  0  0  0  0  0  0  0  0  0
    6.3860    2.3465    0.0000 C   0  0  0  0  0  0  0  0  0  0  0  0
    8.9893    1.8373    0.0000 C   0  0  0  0  0  0  0  0  0  0  0  0
    9.9074    0.2889    0.0000 C   0  0  0  0  0  0  0  0  0  0  0  0
    9.8993    1.3305    0.0000 C   0  0  0  0  0  0  0  0  0  0  0  0
    7.2573    1.8373    0.0000 C   0  0  0  0  0  0  0  0  0  0  0  0
    8.9893    2.8373    0.0000 C   0  0  0  0  0  0  0  0  0  0  0  0
    8.1233    3.3373    0.0000 C   0  0  0  0  0  0  0  0  0  0  0  0
    6.3913    3.3465    0.0000 C   0  0  0  0  0  0  0  0  0  0  0  0
    7.2573    2.8373    0.0000 C   0  0  0  0  0  0  0  0  0  0  0  0
    6.9040    2.0437    0.0000 C   0  0  0  0  0  0  0  0  0  0  0  0
   10.7753   -0.2078    0.0000 C   0  0  0  0  0  0  0  0  0  0  0  0
    2.8840   -2.9816    0.0000 H   0  0  0  0  0  0  0  0  0  0  0  0
    3.9400   -4.1152    0.0000 H   0  0  0  0  0  0  0  0  0  0  0  0
    3.7673   -1.1593    0.0000 H   0  0  0  0  0  0  0  0  0  0  0  0
    4.8318   -4.1199    0.0000 H   0  0  0  0  0  0  0  0  0  0  0  0
    4.4062   -1.9280    0.0000 H   0  0  0  0  0  0  0  0  0  0  0  0
    5.0408   -2.1295    0.0000 H   0  0  0  0  0  0  0  0  0  0  0  0
    5.2129   -0.0485    0.0000 H   0  0  0  0  0  0  0  0  0  0  0  0
    2.2656   -2.9628    0.0000 H   0  0  0  0  0  0  0  0  0  0  0  0
    1.8312   -2.2011    0.0000 H   0  0  0  0  0  0  0  0  0  0  0  0
    2.5928   -1.7667    0.0000 H   0  0  0  0  0  0  0  0  0  0  0  0
    6.3904   -3.2645    0.0000 H   0  0  0  0  0  0  0  0  0  0  0  0
    6.0332   -3.7773    0.0000 H   0  0  0  0  0  0  0  0  0  0  0  0
    6.0286   -4.6541    0.0000 H   0  0  0  0  0  0  0  0  0  0  0  0
    5.1518   -4.6495    0.0000 H   0  0  0  0  0  0  0  0  0  0  0  0
    6.9902   -0.6567    0.0000 H   0  0  0  0  0  0  0  0  0  0  0  0
    6.0394   -1.4296    0.0000 H   0  0  0  0  0  0  0  0  0  0  0  0
    6.2986   -2.2672    0.0000 H   0  0  0  0  0  0  0  0  0  0  0  0
    5.4610   -2.5264    0.0000 H   0  0  0  0  0  0  0  0  0  0  0  0
    2.5803   -4.0370    0.0000 H   0  0  0  0  0  0  0  0  0  0  0  0
    2.5342   -1.3866    0.0000 H   0  0  0  0  0  0  0  0  0  0  0  0
    7.4722   -2.5676    0.0000 H   0  0  0  0  0  0  0  0  0  0  0  0
    7.8671   -3.2600    0.0000 H   0  0  0  0  0  0  0  0  0  0  0  0
    5.8637   -1.3317    0.0000 H   0  0  0  0  0  0  0  0  0  0  0  0
    7.4785   -1.3453    0.0000 H   0  0  0  0  0  0  0  0  0  0  0  0
    7.2470   -2.1910    0.0000 H   0  0  0  0  0  0  0  0  0  0  0  0
    6.4013   -1.9596    0.0000 H   0  0  0  0  0  0  0  0  0  0  0  0
    4.3406   -3.1641    0.0000 H   0  0  0  0  0  0  0  0  0  0  0  0
    3.9908   -0.3294    0.0000 H   0  0  0  0  0  0  0  0  0  0  0  0
    6.9140    0.6537    0.0000 H   0  0  0  0  0  0  0  0  0  0  0  0
    4.9735    0.5439    0.0000 H   0  0  0  0  0  0  0  0  0  0  0  0
    7.7871   -4.4619    0.0000 H   0  0  0  0  0  0  0  0  0  0  0  0
    8.4398   -1.0472    0.0000 H   0  0  0  0  0  0  0  0  0  0  0  0
    8.7133   -1.8803    0.0000 H   0  0  0  0  0  0  0  0  0  0  0  0
    7.8802   -2.1537    0.0000 H   0  0  0  0  0  0  0  0  0  0  0  0
    4.9820    2.1639    0.0000 H   0  0  0  0  0  0  0  0  0  0  0  0
    6.7204    3.1473    0.0000 H   0  0  0  0  0  0  0  0  0  0  0  0
    7.2168    2.5790    0.0000 H   0  0  0  0  0  0  0  0  0  0  0  0
    7.4393    1.7309    0.0000 H   0  0  0  0  0  0  0  0  0  0  0  0
    6.5912    1.5084    0.0000 H   0  0  0  0  0  0  0  0  0  0  0  0
    7.2632    4.4619    0.0000 H   0  0  0  0  0  0  0  0  0  0  0  0
   11.0832    0.3303    0.0000 H   0  0  0  0  0  0  0  0  0  0  0  0
   11.3134   -0.5157    0.0000 H   0  0  0  0  0  0  0  0  0  0  0  0
   10.4674   -0.7459    0.0000 H   0  0  0  0  0  0  0  0  0  0  0  0
    9.5372   -1.5440    0.0000 H   0  0  0  0  0  0  0  0  0  0  0  0
   11.3000    1.5367    0.0000 H   0  0  0  0  0  0  0  0  0  0  0  0
 14  1  1  1  0  0  0
  1 66  1  0  0  0  0
 15  2  1  6  0  0  0
  2 67  1  0  0  0  0
 18  3  1  1  0  0  0
  3 74  1  0  0  0  0
 19  4  1  1  0  0  0
  4 75  1  0  0  0  0
  5 25  1  0  0  0  0
  5 78  1  0  0  0  0
  6 31  2  0  0  0  0
  7 36  1  0  0  0  0
  7 91  1  0  0  0  0
  8 40  1  0  0  0  0
  8 92  1  0  0  0  0
  9 41  2  0  0  0  0
 10 42  2  0  0  0  0
 11 44  2  0  0  0  0
 12 43  1  0  0  0  0
 12 44  1  0  0  0  0
 12 87  1  0  0  0  0
 13 14  1  0  0  0  0
 13 15  1  0  0  0  0
 13 20  1  6  0  0  0
 13 48  1  0  0  0  0
 14 16  1  0  0  0  0
 14 49  1  0  0  0  0
 15 17  1  0  0  0  0
 15 50  1  0  0  0  0
 16 18  1  0  0  0  0
 16 22  1  1  0  0  0
 16 51  1  0  0  0  0
 17 19  1  0  0  0  0
 17 24  1  1  0  0  0
 17 52  1  0  0  0  0
 18 21  1  0  0  0  0
 18 53  1  0  0  0  0
 19 23  1  0  0  0  0
 19 54  1  0  0  0  0
 20 55  1  0  0  0  0
 20 56  1  0  0  0  0
 20 57  1  0  0  0  0
 21 25  1  6  0  0  0
 21 26  1  0  0  0  0
 21 58  1  0  0  0  0
 22 59  1  0  0  0  0
 22 60  1  0  0  0  0
 22 61  1  0  0  0  0
 23 27  1  6  0  0  0
 23 28  1  0  0  0  0
 23 62  1  0  0  0  0
 24 63  1  0  0  0  0
 24 64  1  0  0  0  0
 24 65  1  0  0  0  0
 25 68  1  0  0  0  0
 25 69  1  0  0  0  0
 26 29  2  0  0  0  0
 26 70  1  0  0  0  0
 27 71  1  0  0  0  0
 27 72  1  0  0  0  0
 27 73  1  0  0  0  0
 28 30  2  0  0  0  0
 28 76  1  0  0  0  0
 29 31  1  0  0  0  0
 29 32  1  0  0  0  0
 30 34  1  0  0  0  0
 30 77  1  0  0  0  0
 31 33  1  0  0  0  0
 32 79  1  0  0  0  0
 32 80  1  0  0  0  0
 32 81  1  0  0  0  0
 33 35  2  0  0  0  0
 33 36  1  0  0  0  0
 34 37  2  0  0  0  0
 34 82  1  0  0  0  0
 35 38  1  0  0  0  0
 35 41  1  0  0  0  0
 36 39  2  0  0  0  0
 37 44  1  0  0  0  0
 37 46  1  0  0  0  0
 38 40  2  0  0  0  0
 38 42  1  0  0  0  0
 39 40  1  0  0  0  0
 39 47  1  0  0  0  0
 41 45  1  0  0  0  0
 42 43  1  0  0  0  0
 43 45  2  0  0  0  0
 45 83  1  0  0  0  0
 46 84  1  0  0  0  0
 46 85  1  0  0  0  0
 46 86  1  0  0  0  0
 47 88  1  0  0  0  0
 47 89  1  0  0  0  0
 47 90  1  0  0  0  0
M  END
> <PUBCHEM_COMPOUND_CID>
10100825

> <PUBCHEM_COMPOUND_CANONICALIZED>
1

> <PUBCHEM_CACTVS_COMPLEXITY>
1330

> <PUBCHEM_CACTVS_HBOND_ACCEPTOR>
11

> <PUBCHEM_CACTVS_HBOND_DONOR>
8

> <PUBCHEM_CACTVS_ROTATABLE_BOND>
1

> <PUBCHEM_CACTVS_SUBSKEYS>
AAADcfB+PAAAAAAAAAAAAAAAAAAAAAAAAAAwQAAAAAAAAAABAAAAHgAQCAAADRyhmAICBoLAAgCIAqVSUACCAAAkIgAIiAGECMgINzaClTOEcUAl5BWImce77/Tu4AADCAAYAADAAAYQADAAAAAAAAAAAA==

> <PUBCHEM_IUPAC_INCHI>
InChI=1S/C35H45NO11/c1-14-9-8-10-15(2)35(47)36-22-12-23(38)24-25(32(44)20(7)33(45)26(24)34(22)46)28(40)16(3)11-21(13-37)31(43)19(6)30(42)18(5)29(41)17(4)27(14)39/h8-12,14,17-19,21,27,29-31,37,39,41-45H,13H2,1-7H3,(H,36,47)/b9-8+,15-10-,16-11+/t14-,17+,18+,19-,21+,27-,29+,30-,31+/m0/s1

> <PUBCHEM_IUPAC_INCHIKEY>
PHKOJKSYBBXXED-OCENJLCRSA-N

> <PUBCHEM_XLOGP3_AA>
3.1

> <PUBCHEM_EXACT_MASS>
655.299261

> <PUBCHEM_MOLECULAR_FORMULA>
C35H45NO11

> <PUBCHEM_MOLECULAR_WEIGHT>
655.7319

> <PUBCHEM_OPENEYE_CAN_SMILES>
CC1C=CC=C(C(=O)NC2=CC(=O)C3=C(C(=C(C(=C3C2=O)O)C)O)C(=O)C(=CC(C(C(C(C(C(C(C1O)C)O)C)O)C)O)CO)C)C

> <PUBCHEM_OPENEYE_ISO_SMILES>
C[C@H]1/C=C/C=C(\C(=O)NC2=CC(=O)C3=C(C(=C(C(=C3C2=O)O)C)O)C(=O)/C(=C/[C@@H]([C@@H]([C@H]([C@H]([C@@H]([C@@H]([C@@H]([C@H]1O)C)O)C)O)C)O)CO)/C)/C

> <PUBCHEM_CACTVS_TPSA>
222

> <PUBCHEM_MONOISOTOPIC_WEIGHT>
655.299261

> <PUBCHEM_TOTAL_CHARGE>
0

> <PUBCHEM_HEAVY_ATOM_COUNT>
47

> <PUBCHEM_ATOM_DEF_STEREO_COUNT>
9

> <PUBCHEM_ATOM_UDEF_STEREO_COUNT>
0

> <PUBCHEM_BOND_DEF_STEREO_COUNT>
3

> <PUBCHEM_BOND_UDEF_STEREO_COUNT>
0

> <PUBCHEM_ISOTOPIC_ATOM_COUNT>
0

> <PUBCHEM_COMPONENT_COUNT>
1

> <PUBCHEM_CACTVS_TAUTO_COUNT>
1000

> <PUBCHEM_COORDINATE_TYPE>
1
5
255

> <PUBCHEM_BONDANNOTATIONS>
14  1  5
13  20  6
16  22  5
17  24  5
15  2  6
21  25  6
23  27  6
18  3  5
33  35  8
33  36  8
35  38  8
36  39  8
38  40  8
39  40  8
19  4  5

$$$$

