70813
  -OEChem-07051212552D

 22 23  0     0  0  0  0  0  0999 V2000
    6.4053   -0.4333    0.0000 S   0  0  0  0  0  0  0  0  0  0  0  0
    8.4744   -1.1056    0.0000 S   0  0  0  0  0  0  0  0  0  0  0  0
    7.2144    0.1545    0.0000 C   0  0  0  0  0  0  0  0  0  0  0  0
    8.1654   -0.1545    0.0000 C   0  0  0  0  0  0  0  0  0  0  0  0
    6.9053    1.1056    0.0000 C   0  0  0  0  0  0  0  0  0  0  0  0
    8.9744    0.4333    0.0000 C   0  0  0  0  0  0  0  0  0  0  0  0
    5.9053    1.1056    0.0000 C   0  0  0  0  0  0  0  0  0  0  0  0
    5.5963    0.1545    0.0000 C   0  0  0  0  0  0  0  0  0  0  0  0
    9.7834   -0.1545    0.0000 C   0  0  0  0  0  0  0  0  0  0  0  0
    9.4744   -1.1056    0.0000 C   0  0  0  0  0  0  0  0  0  0  0  0
    4.6453   -0.1545    0.0000 C   0  0  0  0  0  0  0  0  0  0  0  0
    3.6942   -0.4635    0.0000 C   0  0  0  0  0  0  0  0  0  0  0  0
    2.7431   -0.7725    0.0000 C   0  0  0  0  0  0  0  0  0  0  0  0
    2.0000   -0.1034    0.0000 C   0  0  0  0  0  0  0  0  0  0  0  0
    7.2698    1.6072    0.0000 H   0  0  0  0  0  0  0  0  0  0  0  0
    8.9744    1.0533    0.0000 H   0  0  0  0  0  0  0  0  0  0  0  0
    5.5409    1.6072    0.0000 H   0  0  0  0  0  0  0  0  0  0  0  0
   10.3731    0.0371    0.0000 H   0  0  0  0  0  0  0  0  0  0  0  0
    9.8389   -1.6072    0.0000 H   0  0  0  0  0  0  0  0  0  0  0  0
    2.6142   -1.3790    0.0000 H   0  0  0  0  0  0  0  0  0  0  0  0
    2.1289    0.5030    0.0000 H   0  0  0  0  0  0  0  0  0  0  0  0
    1.4103   -0.2950    0.0000 H   0  0  0  0  0  0  0  0  0  0  0  0
  1  3  1  0  0  0  0
  1  8  1  0  0  0  0
  2  4  1  0  0  0  0
  2 10  1  0  0  0  0
  3  4  1  0  0  0  0
  3  5  2  0  0  0  0
  4  6  2  0  0  0  0
  5  7  1  0  0  0  0
  5 15  1  0  0  0  0
  6  9  1  0  0  0  0
  6 16  1  0  0  0  0
  7  8  2  0  0  0  0
  7 17  1  0  0  0  0
  8 11  1  0  0  0  0
  9 10  2  0  0  0  0
  9 18  1  0  0  0  0
 10 19  1  0  0  0  0
 11 12  3  0  0  0  0
 12 13  1  0  0  0  0
 13 14  2  0  0  0  0
 13 20  1  0  0  0  0
 14 21  1  0  0  0  0
 14 22  1  0  0  0  0
M  END
> <PUBCHEM_COMPOUND_CID>
70813

> <PUBCHEM_COMPOUND_CANONICALIZED>
1

> <PUBCHEM_CACTVS_COMPLEXITY>
271

> <PUBCHEM_CACTVS_HBOND_ACCEPTOR>
2

> <PUBCHEM_CACTVS_HBOND_DONOR>
0

> <PUBCHEM_CACTVS_ROTATABLE_BOND>
2

> <PUBCHEM_CACTVS_SUBSKEYS>
AAADccBwAABgAAAAAAAAAAAAAAAAASJAAAAAAAAAAAAAAAAB4AAAGAQAAAAACACEUACwAYAAAAjEECBCAAgDAIAgCBBIiBgAAIgIICKgERCAIAAggAAoiAcAgIAAAAAAAAAAAAAAAAAAAAAAAAAAAAAAAA==

> <PUBCHEM_IUPAC_OPENEYE_NAME>
2-but-3-en-1-ynyl-5-(2-thienyl)thiophene

> <PUBCHEM_IUPAC_CAS_NAME>
2-but-3-en-1-ynyl-5-thiophen-2-ylthiophene

> <PUBCHEM_IUPAC_NAME>
2-but-3-en-1-ynyl-5-thiophen-2-ylthiophene

> <PUBCHEM_IUPAC_SYSTEMATIC_NAME>
2-but-3-en-1-ynyl-5-thiophen-2-yl-thiophene

> <PUBCHEM_IUPAC_TRADITIONAL_NAME>
2-but-3-en-1-ynyl-5-(2-thienyl)thiophene

> <PUBCHEM_IUPAC_INCHI>
InChI=1S/C12H8S2/c1-2-3-5-10-7-8-12(14-10)11-6-4-9-13-11/h2,4,6-9H,1H2

> <PUBCHEM_IUPAC_INCHIKEY>
GWAIEOFEEWQORO-UHFFFAOYSA-N

> <PUBCHEM_XLOGP3_AA>
4.2

> <PUBCHEM_EXACT_MASS>
216.006742

> <PUBCHEM_MOLECULAR_FORMULA>
C12H8S2

> <PUBCHEM_MOLECULAR_WEIGHT>
216.32192

> <PUBCHEM_OPENEYE_CAN_SMILES>
C=CC#CC1=CC=C(S1)C2=CC=CS2

> <PUBCHEM_OPENEYE_ISO_SMILES>
C=CC#CC1=CC=C(S1)C2=CC=CS2

> <PUBCHEM_CACTVS_TPSA>
56.5

> <PUBCHEM_MONOISOTOPIC_WEIGHT>
216.006742

> <PUBCHEM_TOTAL_CHARGE>
0

> <PUBCHEM_HEAVY_ATOM_COUNT>
14

> <PUBCHEM_ATOM_DEF_STEREO_COUNT>
0

> <PUBCHEM_ATOM_UDEF_STEREO_COUNT>
0

> <PUBCHEM_BOND_DEF_STEREO_COUNT>
0

> <PUBCHEM_BOND_UDEF_STEREO_COUNT>
0

> <PUBCHEM_ISOTOPIC_ATOM_COUNT>
0

> <PUBCHEM_COMPONENT_COUNT>
1

> <PUBCHEM_CACTVS_TAUTO_COUNT>
1

> <PUBCHEM_COORDINATE_TYPE>
1
5
255

> <PUBCHEM_BONDANNOTATIONS>
1  3  8
1  8  8
2  10  8
2  4  8
3  5  8
4  6  8
5  7  8
6  9  8
7  8  8
9  10  8

$$$$

