   Color/Form

     * ELONGATED PLATES FROM ETHANOL
     * NEEDLES FROM WATER CRYSTALLIZING WITH 1 MOLECULE OF WATER PER
       MOLECULE OF COMPD
     * WHITE NEEDLES

   from [1]HSDB

   Odor
        ODORLESS
   from [2]HSDB

   Melting Point
        190 DEG C, DECOMP
   from [3]HSDB

   Density/Specific Gravity
        1.467 @ -5 DEG C/4 DEG C
   from [4]HSDB

   Solubilities
        SOL IN 100 G WATER: 2.01 G @ 25 DEG C, 7 G @ 50 DEG C, 20 G @ 75
   DEG C, 53.5 G @ 105.5 DEG C; FREELY SOL IN ALCOHOL; VERY SLIGHTLY SOL
   IN ETHER
   from [5]HSDB

   Spectral Properties

     * MAX ABSORPTION (WATER, PH 13): 216 NM (LOG E= 3.75); SADTLER
       REFERENCE NUMBER: 12988 (IR, PRISM)
     * IR: 21313 (Sadtler Research Laboratories IR Grating Collection)
     * UV: 4-4 (Organic Electronic Spectral Data, Phillips et al, John
       Wiley & Sons, New York)

   from [6]HSDB

   Other Chemical/Physical Properties

     * HYGROSCOPIC; PYROLYSIS @ HIGH TEMP (GREATER THAN 193 DEG C) YIELDS
       MELAMINE
     * WHEN CRYSTALLIZED FROM WATER, 5C2-H5-N3-O2.4H20 IS FORMED, WHICH
       BECOMES ANHYDROUS @ 110 DEG C, DECOMP @ ABOUT 193 DEG C
     * AQ SOLN TREATED WITH CUPRIC SULFATE & SODIUM HYDROXIDE GIVE
       REDDISH-VIOLET COLOR

   from [7]HSDB

   Computed Properties
   Molecular Weight                  103.08 [g/mol]
   Molecular Formula                 C[2]H[5]N[3]O[2]
   XLogP3-AA                         -0.7
   H-Bond Donor                      3
   H-Bond Acceptor                   2
   Rotatable Bond Count              0
   Tautomer Count                    5
   Exact Mass                        103.038176
   MonoIsotopic Mass                 103.038176
   Topological Polar Surface Area    98.2
   Heavy Atom Count                  7
   Formal Charge                     0
   Complexity                        87.1
   Isotope Atom Count                0
   Defined Atom Stereocenter Count   0
   Undefined Atom Stereocenter Count 0
   Defined Bond Stereocenter Count   0
   Undefined Bond Stereocenter Count 0
   Covalently-Bonded Unit Count      1
   Feature 3D Acceptor Count         2
   Feature 3D Donor Count            3
   Effective Rotor Count             2
   Conformer Sampling RMSD           0.4
   CID Conformer Count               [8]2

References

   1. http://toxnet.nlm.nih.gov/cgi-bin/sis/search/r?dbs+hsdb:@term+@rn+@rel+108-19-0
   2. http://toxnet.nlm.nih.gov/cgi-bin/sis/search/r?dbs+hsdb:@term+@rn+@rel+108-19-0
   3. http://toxnet.nlm.nih.gov/cgi-bin/sis/search/r?dbs+hsdb:@term+@rn+@rel+108-19-0
   4. http://toxnet.nlm.nih.gov/cgi-bin/sis/search/r?dbs+hsdb:@term+@rn+@rel+108-19-0
   5. http://toxnet.nlm.nih.gov/cgi-bin/sis/search/r?dbs+hsdb:@term+@rn+@rel+108-19-0
   6. http://toxnet.nlm.nih.gov/cgi-bin/sis/search/r?dbs+hsdb:@term+@rn+@rel+108-19-0
   7. http://toxnet.nlm.nih.gov/cgi-bin/sis/search/r?dbs+hsdb:@term+@rn+@rel+108-19-0
   8. http://pubchem.ncbi.nlm.nih.gov/vw3d/vw3d.cgi?cid=7913
