   Color/Form

     * Colorless or pale yellow oil
     * Colorless liquid, prisms, or crystals

   from [1]HSDB

   Odor
        Sassafras odor
   from [2]HSDB

   Boiling Point
        234.5 deg C
   from [3]HSDB

   Melting Point
        11.2 deg C
   from [4]HSDB

   Density/Specific Gravity
        1.100 g/cu cm at 20 deg C
   from [5]HSDB

   Octanol/Water Partition Coefficient
        log Kow = 3.45/Estimated/
   from [6]HSDB

   Solubilities

     * Miscible with chloroform, ether
     * Soluble in alcohol; slightly soluble in propylene glycol; insoluble
       in water, glycerol
     * In water, 121 mg/L at 25 deg C /Estimated/

   from [7]HSDB

   Spectral Properties

     * Index of refraction: 1.5381 at 20 deg C/D
     * MAX ABSORPTION (ALCOHOL): 236 NM (LOG E= 3.62); 285 NM (LOG E=
       3.58); SADTLER REF NUMBER: 5990 (IR, PRISM)
     * IR: 21073 (Sadtler Research Laboratories Spectral Collection)
     * UV: 3-243 (Organic Electronic Spectral Data, Phillips et al, John
       Wiley & Sons, New York)
     * 1H NMR: 253 (Varian Associates NMR Spectra Catalogue)
     * MASS: 5908 (NIST/EPA/MSDC Mass Spectral Database 1990 version); 124
       (Aldermaston, Eight Peak Index of Mass Spectra, U.K.)

   from [8]HSDB

   Vapor Pressure
        0.0706 mm Hg at 25 deg C /Extrapolated/
   from [9]HSDB

   Other Chemical/Physical Properties

     * Vapor pressure range 1-760 mm Hg in the temperature range
       63.8-233.0 deg C
     * VP: 1 mm Hg at 63.8 deg C
     * Congealing point: 10.0-11.2 deg C
     * Henry's Law constant = 9.07X10-6 atm-cu m/mol at 25 deg C
       /Estimated/
     * Hydroxyl radical reaction rate constant = 7.56X10-11 cu cm/molecule
       sec at 25 deg C /Estimated/

   from [10]HSDB

   Computed Properties
   Molecular Weight                  162.1852 [g/mol]
   Molecular Formula                 C[10]H[10]O[2]
   XLogP3                            3
   H-Bond Donor                      0
   H-Bond Acceptor                   2
   Rotatable Bond Count              2
   Exact Mass                        162.06808
   MonoIsotopic Mass                 162.06808
   Topological Polar Surface Area    18.5
   Heavy Atom Count                  12
   Formal Charge                     0
   Complexity                        167
   Isotope Atom Count                0
   Defined Atom Stereocenter Count   0
   Undefined Atom Stereocenter Count 0
   Defined Bond Stereocenter Count   0
   Undefined Bond Stereocenter Count 0
   Covalently-Bonded Unit Count      1
   Feature 3D Acceptor Count         2
   Feature 3D Hydrophobe Count       1
   Feature 3D Ring Count             2
   Effective Rotor Count             2.6
   Conformer Sampling RMSD           0.6
   CID Conformer Count               [11]4

References

   1. http://toxnet.nlm.nih.gov/cgi-bin/sis/search/r?dbs+hsdb:@term+@rn+@rel+94-59-7
   2. http://toxnet.nlm.nih.gov/cgi-bin/sis/search/r?dbs+hsdb:@term+@rn+@rel+94-59-7
   3. http://toxnet.nlm.nih.gov/cgi-bin/sis/search/r?dbs+hsdb:@term+@rn+@rel+94-59-7
   4. http://toxnet.nlm.nih.gov/cgi-bin/sis/search/r?dbs+hsdb:@term+@rn+@rel+94-59-7
   5. http://toxnet.nlm.nih.gov/cgi-bin/sis/search/r?dbs+hsdb:@term+@rn+@rel+94-59-7
   6. http://toxnet.nlm.nih.gov/cgi-bin/sis/search/r?dbs+hsdb:@term+@rn+@rel+94-59-7
   7. http://toxnet.nlm.nih.gov/cgi-bin/sis/search/r?dbs+hsdb:@term+@rn+@rel+94-59-7
   8. http://toxnet.nlm.nih.gov/cgi-bin/sis/search/r?dbs+hsdb:@term+@rn+@rel+94-59-7
   9. http://toxnet.nlm.nih.gov/cgi-bin/sis/search/r?dbs+hsdb:@term+@rn+@rel+94-59-7
  10. http://toxnet.nlm.nih.gov/cgi-bin/sis/search/r?dbs+hsdb:@term+@rn+@rel+94-59-7
  11. http://pubchem.ncbi.nlm.nih.gov/vw3d/vw3d.cgi?cid=5144
