586274
  -OEChem-06241222462D

 56 58  0     1  0  0  0  0  0999 V2000
    7.0163   -1.1560    0.0000 O   0  0  0  0  0  0  0  0  0  0  0  0
    5.3442   -1.6078    0.0000 O   0  0  0  0  0  0  0  0  0  0  0  0
    2.7056   -1.8026    0.0000 O   0  0  0  0  0  0  0  0  0  0  0  0
    8.7303   -1.4433    0.0000 N   0  0  0  0  0  0  0  0  0  0  0  0
    8.7303   -0.4433    0.0000 C   0  0  3  0  0  0  0  0  0  0  0  0
    8.7303    0.5567    0.0000 C   0  0  3  0  0  0  0  0  0  0  0  0
    7.7220   -0.4475    0.0000 C   0  0  3  0  0  0  0  0  0  0  0  0
    7.7220    0.5608    0.0000 C   0  0  3  0  0  0  0  0  0  0  0  0
    9.6813   -0.7523    0.0000 C   0  0  0  0  0  0  0  0  0  0  0  0
    9.6813    0.8657    0.0000 C   0  0  0  0  0  0  0  0  0  0  0  0
   10.2691    0.0567    0.0000 C   0  0  0  0  0  0  0  0  0  0  0  0
    7.0163    1.2694    0.0000 C   0  0  0  0  0  0  0  0  0  0  0  0
    9.5963   -1.9433    0.0000 C   0  0  0  0  0  0  0  0  0  0  0  0
    7.8642   -1.9433    0.0000 C   0  0  0  0  0  0  0  0  0  0  0  0
    7.2771    2.2348    0.0000 C   0  0  0  0  0  0  0  0  0  0  0  0
    6.0499    1.0125    0.0000 C   0  0  0  0  0  0  0  0  0  0  0  0
    6.0499   -0.8992    0.0000 C   0  0  0  0  0  0  0  0  0  0  0  0
    9.5963   -2.9433    0.0000 C   0  0  0  0  0  0  0  0  0  0  0  0
    7.8642   -2.9433    0.0000 C   0  0  0  0  0  0  0  0  0  0  0  0
    6.5715    2.9433    0.0000 C   0  0  0  0  0  0  0  0  0  0  0  0
    5.3442    1.7211    0.0000 C   0  0  0  0  0  0  0  0  0  0  0  0
    5.6050    2.6865    0.0000 C   0  0  0  0  0  0  0  0  0  0  0  0
    4.3778   -1.3509    0.0000 C   0  0  0  0  0  0  0  0  0  0  0  0
    3.6721   -2.0595    0.0000 C   0  0  0  0  0  0  0  0  0  0  0  0
    2.0000   -2.5112    0.0000 C   0  0  0  0  0  0  0  0  0  0  0  0
    8.6345    1.1692    0.0000 H   0  0  0  0  0  0  0  0  0  0  0  0
    7.1489   -0.2108    0.0000 H   0  0  0  0  0  0  0  0  0  0  0  0
    7.1489    0.3241    0.0000 H   0  0  0  0  0  0  0  0  0  0  0  0
    9.4291   -1.3187    0.0000 H   0  0  0  0  0  0  0  0  0  0  0  0
   10.2182   -1.0623    0.0000 H   0  0  0  0  0  0  0  0  0  0  0  0
    9.8729    1.4554    0.0000 H   0  0  0  0  0  0  0  0  0  0  0  0
   10.8891    0.0567    0.0000 H   0  0  0  0  0  0  0  0  0  0  0  0
    7.6522   -1.3607    0.0000 H   0  0  0  0  0  0  0  0  0  0  0  0
    7.2536   -2.0510    0.0000 H   0  0  0  0  0  0  0  0  0  0  0  0
   10.2069   -2.0510    0.0000 H   0  0  0  0  0  0  0  0  0  0  0  0
    9.8083   -1.3607    0.0000 H   0  0  0  0  0  0  0  0  0  0  0  0
    7.8763    2.3940    0.0000 H   0  0  0  0  0  0  0  0  0  0  0  0
    5.8882    0.4140    0.0000 H   0  0  0  0  0  0  0  0  0  0  0  0
    6.3107   -0.3367    0.0000 H   0  0  0  0  0  0  0  0  0  0  0  0
    5.5413   -0.5446    0.0000 H   0  0  0  0  0  0  0  0  0  0  0  0
    8.9763   -2.9433    0.0000 H   0  0  0  0  0  0  0  0  0  0  0  0
    9.5963   -3.5633    0.0000 H   0  0  0  0  0  0  0  0  0  0  0  0
   10.2163   -2.9433    0.0000 H   0  0  0  0  0  0  0  0  0  0  0  0
    7.2442   -2.9433    0.0000 H   0  0  0  0  0  0  0  0  0  0  0  0
    7.8642   -3.5633    0.0000 H   0  0  0  0  0  0  0  0  0  0  0  0
    8.4842   -2.9433    0.0000 H   0  0  0  0  0  0  0  0  0  0  0  0
    6.7332    3.5419    0.0000 H   0  0  0  0  0  0  0  0  0  0  0  0
    4.7450    1.5619    0.0000 H   0  0  0  0  0  0  0  0  0  0  0  0
    5.1675    3.1258    0.0000 H   0  0  0  0  0  0  0  0  0  0  0  0
    4.6386   -0.7885    0.0000 H   0  0  0  0  0  0  0  0  0  0  0  0
    3.8692   -0.9963    0.0000 H   0  0  0  0  0  0  0  0  0  0  0  0
    3.4112   -2.6219    0.0000 H   0  0  0  0  0  0  0  0  0  0  0  0
    4.1807   -2.4140    0.0000 H   0  0  0  0  0  0  0  0  0  0  0  0
    1.5607   -2.0737    0.0000 H   0  0  0  0  0  0  0  0  0  0  0  0
    1.5625   -2.9505    0.0000 H   0  0  0  0  0  0  0  0  0  0  0  0
    2.4393   -2.9487    0.0000 H   0  0  0  0  0  0  0  0  0  0  0  0
  1  7  1  0  0  0  0
  1 17  1  0  0  0  0
  2 17  1  0  0  0  0
  2 23  1  0  0  0  0
  3 24  1  0  0  0  0
  3 25  1  0  0  0  0
  4  5  1  0  0  0  0
  4 13  1  0  0  0  0
  4 14  1  0  0  0  0
  5  6  1  0  0  0  0
  5  7  1  0  0  0  0
  5  9  1  0  0  0  0
  6  8  1  0  0  0  0
  6 10  1  0  0  0  0
  6 26  1  0  0  0  0
  7  8  1  0  0  0  0
  7 27  1  0  0  0  0
  8 12  1  0  0  0  0
  8 28  1  0  0  0  0
  9 11  1  0  0  0  0
  9 29  1  0  0  0  0
  9 30  1  0  0  0  0
 10 11  2  0  0  0  0
 10 31  1  0  0  0  0
 11 32  1  0  0  0  0
 12 15  2  0  0  0  0
 12 16  1  0  0  0  0
 13 18  1  0  0  0  0
 13 35  1  0  0  0  0
 13 36  1  0  0  0  0
 14 19  1  0  0  0  0
 14 33  1  0  0  0  0
 14 34  1  0  0  0  0
 15 20  1  0  0  0  0
 15 37  1  0  0  0  0
 16 21  2  0  0  0  0
 16 38  1  0  0  0  0
 17 39  1  0  0  0  0
 17 40  1  0  0  0  0
 18 41  1  0  0  0  0
 18 42  1  0  0  0  0
 18 43  1  0  0  0  0
 19 44  1  0  0  0  0
 19 45  1  0  0  0  0
 19 46  1  0  0  0  0
 20 22  2  0  0  0  0
 20 47  1  0  0  0  0
 21 22  1  0  0  0  0
 21 48  1  0  0  0  0
 22 49  1  0  0  0  0
 23 24  1  0  0  0  0
 23 50  1  0  0  0  0
 23 51  1  0  0  0  0
 24 52  1  0  0  0  0
 24 53  1  0  0  0  0
 25 54  1  0  0  0  0
 25 55  1  0  0  0  0
 25 56  1  0  0  0  0
M  END
> <PUBCHEM_COMPOUND_CID>
586274

> <PUBCHEM_COMPOUND_CANONICALIZED>
1

> <PUBCHEM_CACTVS_COMPLEXITY>
431

> <PUBCHEM_CACTVS_HBOND_ACCEPTOR>
4

> <PUBCHEM_CACTVS_HBOND_DONOR>
0

> <PUBCHEM_CACTVS_ROTATABLE_BOND>
10

> <PUBCHEM_CACTVS_SUBSKEYS>
AAADceB6MAAAAAAAAAAAAAAAAABgAQAAAAAwAAAABAAAAAABAAAAHgAAAAAADZzhmAcyCIMABACAAiBCAAACAAAgAAAIiAAIAIgbICKAkRClIAAkwAGeiAewwPAOgAAAAAAAAAAAAAAAAAAAAAAAAAAAAA==

> <PUBCHEM_IUPAC_OPENEYE_NAME>
N,N-diethyl-6-(2-methoxyethoxymethoxy)-7-phenyl-bicyclo[3.2.0]hept-2-en-5-amine

> <PUBCHEM_IUPAC_CAS_NAME>
N,N-diethyl-6-(2-methoxyethoxymethoxy)-7-phenyl-5-bicyclo[3.2.0]hept-2-enamine

> <PUBCHEM_IUPAC_NAME>
N,N-diethyl-6-(2-methoxyethoxymethoxy)-7-phenylbicyclo[3.2.0]hept-2-en-5-amine

> <PUBCHEM_IUPAC_SYSTEMATIC_NAME>
N,N-diethyl-6-(2-methoxyethoxymethoxy)-7-phenyl-bicyclo[3.2.0]hept-2-en-5-amine

> <PUBCHEM_IUPAC_TRADITIONAL_NAME>
diethyl-[6-(2-methoxyethoxymethoxy)-7-phenyl-5-bicyclo[3.2.0]hept-2-enyl]amine

> <PUBCHEM_IUPAC_INCHI>
InChI=1S/C21H31NO3/c1-4-22(5-2)21-13-9-12-18(21)19(17-10-7-6-8-11-17)20(21)25-16-24-15-14-23-3/h6-12,18-20H,4-5,13-16H2,1-3H3

> <PUBCHEM_IUPAC_INCHIKEY>
ZVFOFYIGFXMHFK-UHFFFAOYSA-N

> <PUBCHEM_XLOGP3_AA>
3.1

> <PUBCHEM_EXACT_MASS>
345.230394

> <PUBCHEM_MOLECULAR_FORMULA>
C21H31NO3

> <PUBCHEM_MOLECULAR_WEIGHT>
345.47574

> <PUBCHEM_OPENEYE_CAN_SMILES>
CCN(CC)C12CC=CC1C(C2OCOCCOC)C3=CC=CC=C3

> <PUBCHEM_OPENEYE_ISO_SMILES>
CCN(CC)C12CC=CC1C(C2OCOCCOC)C3=CC=CC=C3

> <PUBCHEM_CACTVS_TPSA>
30.9

> <PUBCHEM_MONOISOTOPIC_WEIGHT>
345.230394

> <PUBCHEM_TOTAL_CHARGE>
0

> <PUBCHEM_HEAVY_ATOM_COUNT>
25

> <PUBCHEM_ATOM_DEF_STEREO_COUNT>
0

> <PUBCHEM_ATOM_UDEF_STEREO_COUNT>
4

> <PUBCHEM_BOND_DEF_STEREO_COUNT>
0

> <PUBCHEM_BOND_UDEF_STEREO_COUNT>
0

> <PUBCHEM_ISOTOPIC_ATOM_COUNT>
0

> <PUBCHEM_COMPONENT_COUNT>
1

> <PUBCHEM_CACTVS_TAUTO_COUNT>
1

> <PUBCHEM_COORDINATE_TYPE>
1
5
255

> <PUBCHEM_BONDANNOTATIONS>
7  1  3
12  15  8
12  16  8
15  20  8
16  21  8
20  22  8
21  22  8
5  4  3
6  10  3
8  12  3

$$$$

