11954045
  -OEChem-07051213062D

 56 57  0     1  0  0  0  0  0999 V2000
    7.1962    0.8450    0.0000 S   0  0  0  0  0  0  0  0  0  0  0  0
    8.9282   -0.1550    0.0000 O   0  0  0  0  0  0  0  0  0  0  0  0
    3.7320    0.8450    0.0000 O   0  0  0  0  0  0  0  0  0  0  0  0
    3.7320   -0.1550    0.0000 O   0  0  0  0  0  0  0  0  0  0  0  0
    2.8660   -4.6550    0.0000 O   0  0  0  0  0  0  0  0  0  0  0  0
    2.0000   -3.1550    0.0000 O   0  0  0  0  0  0  0  0  0  0  0  0
    2.8660    4.3450    0.0000 O   0  0  0  0  0  0  0  0  0  0  0  0
    4.5981    4.3450    0.0000 O   0  0  0  0  0  0  0  0  0  0  0  0
    5.4641   -0.1550    0.0000 N   0  0  0  0  0  0  0  0  0  0  0  0
    4.5981    2.3450    0.0000 N   0  0  0  0  0  0  0  0  0  0  0  0
    4.5981   -3.6550    0.0000 N   0  0  0  0  0  0  0  0  0  0  0  0
    8.0622    1.3450    0.0000 C   0  0  2  0  0  0  0  0  0  0  0  0
    8.9282    0.8450    0.0000 C   0  0  2  0  0  0  0  0  0  0  0  0
    9.7942    1.3450    0.0000 C   0  0  0  0  0  0  0  0  0  0  0  0
    5.4641    0.8450    0.0000 C   0  0  1  0  0  0  0  0  0  0  0  0
    6.3301    1.3450    0.0000 C   0  0  0  0  0  0  0  0  0  0  0  0
    9.7942    2.3450    0.0000 C   0  0  0  0  0  0  0  0  0  0  0  0
    8.0622    2.3450    0.0000 C   0  0  0  0  0  0  0  0  0  0  0  0
    8.9282    2.8450    0.0000 C   0  0  0  0  0  0  0  0  0  0  0  0
   10.6882    0.8103    0.0000 C   0  0  0  0  0  0  0  0  0  0  0  0
   10.6882    2.8797    0.0000 C   0  0  0  0  0  0  0  0  0  0  0  0
    4.5981   -1.6550    0.0000 C   0  0  0  0  0  0  0  0  0  0  0  0
    3.7320   -2.1550    0.0000 C   0  0  0  0  0  0  0  0  0  0  0  0
    4.5981    1.3450    0.0000 C   0  0  0  0  0  0  0  0  0  0  0  0
    4.5981   -0.6550    0.0000 C   0  0  0  0  0  0  0  0  0  0  0  0
   11.5942    1.3242    0.0000 C   0  0  0  0  0  0  0  0  0  0  0  0
    3.7320   -3.1550    0.0000 C   0  0  1  0  0  0  0  0  0  0  0  0
   11.5942    2.3658    0.0000 C   0  0  0  0  0  0  0  0  0  0  0  0
    3.7320    2.8450    0.0000 C   0  0  0  0  0  0  0  0  0  0  0  0
    2.8660   -3.6550    0.0000 C   0  0  0  0  0  0  0  0  0  0  0  0
    3.7320    3.8450    0.0000 C   0  0  0  0  0  0  0  0  0  0  0  0
    8.0622    0.7250    0.0000 H   0  0  0  0  0  0  0  0  0  0  0  0
    9.4651    0.5350    0.0000 H   0  0  0  0  0  0  0  0  0  0  0  0
    6.0010    0.5350    0.0000 H   0  0  0  0  0  0  0  0  0  0  0  0
    6.7287    1.8200    0.0000 H   0  0  0  0  0  0  0  0  0  0  0  0
    5.9316    1.8200    0.0000 H   0  0  0  0  0  0  0  0  0  0  0  0
    7.5252    2.6550    0.0000 H   0  0  0  0  0  0  0  0  0  0  0  0
    8.9282    3.4650    0.0000 H   0  0  0  0  0  0  0  0  0  0  0  0
   10.6810    0.1904    0.0000 H   0  0  0  0  0  0  0  0  0  0  0  0
    6.0010   -0.4650    0.0000 H   0  0  0  0  0  0  0  0  0  0  0  0
    4.8101   -2.2376    0.0000 H   0  0  0  0  0  0  0  0  0  0  0  0
    5.2087   -1.5473    0.0000 H   0  0  0  0  0  0  0  0  0  0  0  0
   10.6810    3.4996    0.0000 H   0  0  0  0  0  0  0  0  0  0  0  0
    3.5200   -1.5724    0.0000 H   0  0  0  0  0  0  0  0  0  0  0  0
    3.1215   -2.2627    0.0000 H   0  0  0  0  0  0  0  0  0  0  0  0
    8.3913   -0.4650    0.0000 H   0  0  0  0  0  0  0  0  0  0  0  0
    3.7320   -3.7750    0.0000 H   0  0  0  0  0  0  0  0  0  0  0  0
   12.1300    1.0121    0.0000 H   0  0  0  0  0  0  0  0  0  0  0  0
   12.1300    2.6779    0.0000 H   0  0  0  0  0  0  0  0  0  0  0  0
    5.1350    2.6550    0.0000 H   0  0  0  0  0  0  0  0  0  0  0  0
    3.1215    2.9527    0.0000 H   0  0  0  0  0  0  0  0  0  0  0  0
    3.5200    2.2624    0.0000 H   0  0  0  0  0  0  0  0  0  0  0  0
    4.5981   -4.2750    0.0000 H   0  0  0  0  0  0  0  0  0  0  0  0
    5.1350   -3.3450    0.0000 H   0  0  0  0  0  0  0  0  0  0  0  0
    2.3291   -4.9650    0.0000 H   0  0  0  0  0  0  0  0  0  0  0  0
    2.8660    4.9650    0.0000 H   0  0  0  0  0  0  0  0  0  0  0  0
 12  1  1  1  0  0  0
  1 16  1  0  0  0  0
 13  2  1  6  0  0  0
  2 46  1  0  0  0  0
  3 24  2  0  0  0  0
  4 25  2  0  0  0  0
  5 30  1  0  0  0  0
  5 55  1  0  0  0  0
  6 30  2  0  0  0  0
  7 31  1  0  0  0  0
  7 56  1  0  0  0  0
  8 31  2  0  0  0  0
 15  9  1  6  0  0  0
  9 25  1  0  0  0  0
  9 40  1  0  0  0  0
 10 24  1  0  0  0  0
 10 29  1  0  0  0  0
 10 50  1  0  0  0  0
 27 11  1  6  0  0  0
 11 53  1  0  0  0  0
 11 54  1  0  0  0  0
 12 13  1  0  0  0  0
 12 18  1  0  0  0  0
 12 32  1  0  0  0  0
 13 14  1  0  0  0  0
 13 33  1  0  0  0  0
 14 17  1  0  0  0  0
 14 20  2  0  0  0  0
 15 16  1  0  0  0  0
 15 24  1  0  0  0  0
 15 34  1  0  0  0  0
 16 35  1  0  0  0  0
 16 36  1  0  0  0  0
 17 19  1  0  0  0  0
 17 21  2  0  0  0  0
 18 19  2  0  0  0  0
 18 37  1  0  0  0  0
 19 38  1  0  0  0  0
 20 26  1  0  0  0  0
 20 39  1  0  0  0  0
 21 28  1  0  0  0  0
 21 43  1  0  0  0  0
 22 23  1  0  0  0  0
 22 25  1  0  0  0  0
 22 41  1  0  0  0  0
 22 42  1  0  0  0  0
 23 27  1  0  0  0  0
 23 44  1  0  0  0  0
 23 45  1  0  0  0  0
 26 28  2  0  0  0  0
 26 48  1  0  0  0  0
 27 30  1  0  0  0  0
 27 47  1  0  0  0  0
 28 49  1  0  0  0  0
 29 31  1  0  0  0  0
 29 51  1  0  0  0  0
 29 52  1  0  0  0  0
M  END
> <PUBCHEM_COMPOUND_CID>
11954045

> <PUBCHEM_COMPOUND_CANONICALIZED>
1

> <PUBCHEM_CACTVS_COMPLEXITY>
702

> <PUBCHEM_CACTVS_HBOND_ACCEPTOR>
9

> <PUBCHEM_CACTVS_HBOND_DONOR>
6

> <PUBCHEM_CACTVS_ROTATABLE_BOND>
11

> <PUBCHEM_CACTVS_SUBSKEYS>
AAADceB7OABAAAAAAAAAAAAAAAAAAAAAAAAwQAAAAAAAAACBAAAAHgQQCAAADDzl2AawCILAAgiIAiHSGAACAAAgABAIiIGICIgKdjKgkTCUcAAk1gG4mAec16IOgAAAAAAQAAAAAAAAACAAAAAAAAAAAA==

> <PUBCHEM_IUPAC_OPENEYE_NAME>
(2S)-2-amino-5-[[(1R)-2-(carboxymethylamino)-1-[[(1S,2S)-1-hydroxy-1,2-dihydronaphthalen-2-yl]sulfanylmethyl]-2-oxo-ethyl]amino]-5-oxo-pentanoic acid

> <PUBCHEM_IUPAC_CAS_NAME>
(2S)-2-amino-5-[[(2R)-1-(carboxymethylamino)-3-[[(1S,2S)-1-hydroxy-1,2-dihydronaphthalen-2-yl]thio]-1-oxopropan-2-yl]amino]-5-oxopentanoic acid

> <PUBCHEM_IUPAC_NAME>
(2S)-2-amino-5-[[(2R)-1-(carboxymethylamino)-3-[[(1S,2S)-1-hydroxy-1,2-dihydronaphthalen-2-yl]sulfanyl]-1-oxopropan-2-yl]amino]-5-oxopentanoic acid

> <PUBCHEM_IUPAC_SYSTEMATIC_NAME>
(2S)-2-azanyl-5-[[(2R)-1-(2-hydroxy-2-oxoethylamino)-3-[[(1S,2S)-1-oxidanyl-1,2-dihydronaphthalen-2-yl]sulfanyl]-1-oxidanylidene-propan-2-yl]amino]-5-oxidanylidene-pentanoic acid

> <PUBCHEM_IUPAC_TRADITIONAL_NAME>
(2S)-2-amino-5-[[(1R)-2-(carboxymethylamino)-1-[[[(1S,2S)-1-hydroxy-1,2-dihydronaphthalen-2-yl]thio]methyl]-2-keto-ethyl]amino]-5-keto-valeric acid

> <PUBCHEM_IUPAC_INCHI>
InChI=1S/C20H25N3O7S/c21-13(20(29)30)6-8-16(24)23-14(19(28)22-9-17(25)26)10-31-15-7-5-11-3-1-2-4-12(11)18(15)27/h1-5,7,13-15,18,27H,6,8-10,21H2,(H,22,28)(H,23,24)(H,25,26)(H,29,30)/t13-,14-,15-,18-/m0/s1

> <PUBCHEM_IUPAC_INCHIKEY>
HBBDHJOSZGOTBV-XSWJXKHESA-N

> <PUBCHEM_XLOGP3_AA>
-2.9

> <PUBCHEM_EXACT_MASS>
451.141321

> <PUBCHEM_MOLECULAR_FORMULA>
C20H25N3O7S

> <PUBCHEM_MOLECULAR_WEIGHT>
451.4934

> <PUBCHEM_OPENEYE_CAN_SMILES>
C1=CC=C2C(C(C=CC2=C1)SCC(C(=O)NCC(=O)O)NC(=O)CCC(C(=O)O)N)O

> <PUBCHEM_OPENEYE_ISO_SMILES>
C1=CC=C2[C@@H]([C@H](C=CC2=C1)SC[C@@H](C(=O)NCC(=O)O)NC(=O)CC[C@@H](C(=O)O)N)O

> <PUBCHEM_CACTVS_TPSA>
204

> <PUBCHEM_MONOISOTOPIC_WEIGHT>
451.141321

> <PUBCHEM_TOTAL_CHARGE>
0

> <PUBCHEM_HEAVY_ATOM_COUNT>
31

> <PUBCHEM_ATOM_DEF_STEREO_COUNT>
4

> <PUBCHEM_ATOM_UDEF_STEREO_COUNT>
0

> <PUBCHEM_BOND_DEF_STEREO_COUNT>
0

> <PUBCHEM_BOND_UDEF_STEREO_COUNT>
0

> <PUBCHEM_ISOTOPIC_ATOM_COUNT>
0

> <PUBCHEM_COMPONENT_COUNT>
1

> <PUBCHEM_CACTVS_TAUTO_COUNT>
4

> <PUBCHEM_COORDINATE_TYPE>
1
5
255

> <PUBCHEM_BONDANNOTATIONS>
12  1  5
27  11  6
14  17  8
14  20  8
17  21  8
13  2  6
20  26  8
21  28  8
26  28  8
15  9  6

$$$$

