   Color/Form

     * White crystalline solid
     * Colorless crystals

   from [1]HSDB

   Odor

     * Odorless
     * Negligible odor

   from [2]HSDB

   Melting Point
        115-117 deg C
   from [3]HSDB

   Corrosivity
        Noncorrosive
   from [4]HSDB

   Density/Specific Gravity
        Specific gravity = 1.25
   from [5]HSDB

   Dissociation Constants
        pKa = 2.2 at 25 deg C (amine)
   from [6]HSDB

   Octanol/Water Partition Coefficient
        log Kow = 1.2 at pH 7
   from [7]HSDB

   Solubilities

     * At 25 deg C (g/kg): chloroform 3880, methanol 2650, benzene 940,
       dimethylformamide 836, acetone 792, toluene 386, hexane 3
     * In water, 3.3X10+4 mg/L at 25 deg C

   from [8]HSDB

   Vapor Pressure
        2.25X10-7 mm Hg at 25 deg (extrapolated)
   from [9]HSDB

   Other Chemical/Physical Properties

     * Stable in aqueous media between pH 5 and 9 and below 37 deg C.
       Decomposed by strong acids and strong bases. Stable to light.
       Decomposes on distillation
     * Henry's Law constant = 2.26X10-12 atm-cu m/mol at 25 deg C (est)
     * Hydroxy radical reaction rate constant = 9.02X10-11 cu cm/molec-sec
       at 25 deg (est)

   from [10]HSDB

   Computed Properties
   Molecular Weight                  252.3128 [g/mol]
   Molecular Formula                 C[12]H[20]N[4]O[2]
   XLogP3-AA                         1.3
   H-Bond Donor                      0
   H-Bond Acceptor                   2
   Rotatable Bond Count              2
   Exact Mass                        252.158626
   MonoIsotopic Mass                 252.158626
   Topological Polar Surface Area    56.2
   Heavy Atom Count                  18
   Formal Charge                     0
   Complexity                        386
   Isotope Atom Count                0
   Defined Atom Stereocenter Count   0
   Undefined Atom Stereocenter Count 0
   Defined Bond Stereocenter Count   0
   Undefined Bond Stereocenter Count 0
   Covalently-Bonded Unit Count      1
   Feature 3D Acceptor Count         2
   Feature 3D Donor Count            1
   Feature 3D Ring Count             2
   Effective Rotor Count             3.2
   Conformer Sampling RMSD           0.6
   CID Conformer Count               [11]2

References

   1. http://toxnet.nlm.nih.gov/cgi-bin/sis/search/r?dbs+hsdb:@term+@rn+@rel+51235-04-2
   2. http://toxnet.nlm.nih.gov/cgi-bin/sis/search/r?dbs+hsdb:@term+@rn+@rel+51235-04-2
   3. http://toxnet.nlm.nih.gov/cgi-bin/sis/search/r?dbs+hsdb:@term+@rn+@rel+51235-04-2
   4. http://toxnet.nlm.nih.gov/cgi-bin/sis/search/r?dbs+hsdb:@term+@rn+@rel+51235-04-2
   5. http://toxnet.nlm.nih.gov/cgi-bin/sis/search/r?dbs+hsdb:@term+@rn+@rel+51235-04-2
   6. http://toxnet.nlm.nih.gov/cgi-bin/sis/search/r?dbs+hsdb:@term+@rn+@rel+51235-04-2
   7. http://toxnet.nlm.nih.gov/cgi-bin/sis/search/r?dbs+hsdb:@term+@rn+@rel+51235-04-2
   8. http://toxnet.nlm.nih.gov/cgi-bin/sis/search/r?dbs+hsdb:@term+@rn+@rel+51235-04-2
   9. http://toxnet.nlm.nih.gov/cgi-bin/sis/search/r?dbs+hsdb:@term+@rn+@rel+51235-04-2
  10. http://toxnet.nlm.nih.gov/cgi-bin/sis/search/r?dbs+hsdb:@term+@rn+@rel+51235-04-2
  11. http://pubchem.ncbi.nlm.nih.gov/vw3d/vw3d.cgi?cid=39965
