   Color/Form
        MONOCLINIC LEAFLETS OR PRISMS
   from [1]HSDB

   Boiling Point
        140 DEG C @ 20 MM HG
   from [2]HSDB

   Melting Point
        106-107 DEG C /ANHYDROUS/
   from [3]HSDB

   Dissociation Constants
        -1.34
   from [4]HSDB

   Solubilities

     * ABOUT 67 G/100 ML WATER; SOL IN ALCOHOL, ETHER
     * VERY SOL IN WATER /SODIUM SALT/

   from [5]HSDB

   Spectral Properties

     * IR: 4398 (Coblentz Society Spectral Collection)
     * UV: 6540 (Sadtler Research Laboratories Spectral Collection)
     * MASS: 133 (Aldermaston, Eight Peak Index of Mass Spectra, UK)
     * MAX ABSORPTION (WATER): 222 NM (LOG E= 4.0); 261 NM (LOG E= 2.5); 2
       NM (LOG E= 2.2)
     * SADTLER REFERENCE NUMBER: 19785 (IR, PRISM); 6540 (UV) /HYDRATE/

   from [6]HSDB

   Other Chemical/Physical Properties

     * HYGROSCOPIC
     * REPORTED AS CRYSTALLIZING WITH ONE WATER OR FOUR WATER MOLECULES
     * MELTING POINT: 38 DEG C /METASTABLE FORM/
     * Boiling point = 38 deg C
     * Melting point = 106 deg C /monohydrate/; 93 deg C /trihydrate/

   from [7]HSDB

   Computed Properties
   Molecular Weight                  172.20162 [g/mol]
   Molecular Formula                 C[7]H[8]O[3]S
   XLogP3                            1.7
   H-Bond Donor                      1
   H-Bond Acceptor                   3
   Rotatable Bond Count              1
   Exact Mass                        172.019415
   MonoIsotopic Mass                 172.019415
   Topological Polar Surface Area    62.8
   Heavy Atom Count                  11
   Formal Charge                     0
   Complexity                        206
   Isotope Atom Count                0
   Defined Atom Stereocenter Count   0
   Undefined Atom Stereocenter Count 0
   Defined Bond Stereocenter Count   0
   Undefined Bond Stereocenter Count 0
   Covalently-Bonded Unit Count      1
   Feature 3D Acceptor Count         3
   Feature 3D Anion Count            1
   Feature 3D Ring Count             1
   Effective Rotor Count             1
   Conformer Sampling RMSD           0.4
   CID Conformer Count               [8]1

References

   1. http://toxnet.nlm.nih.gov/cgi-bin/sis/search/r?dbs+hsdb:@term+@rn+@rel+104-15-4
   2. http://toxnet.nlm.nih.gov/cgi-bin/sis/search/r?dbs+hsdb:@term+@rn+@rel+104-15-4
   3. http://toxnet.nlm.nih.gov/cgi-bin/sis/search/r?dbs+hsdb:@term+@rn+@rel+104-15-4
   4. http://toxnet.nlm.nih.gov/cgi-bin/sis/search/r?dbs+hsdb:@term+@rn+@rel+104-15-4
   5. http://toxnet.nlm.nih.gov/cgi-bin/sis/search/r?dbs+hsdb:@term+@rn+@rel+104-15-4
   6. http://toxnet.nlm.nih.gov/cgi-bin/sis/search/r?dbs+hsdb:@term+@rn+@rel+104-15-4
   7. http://toxnet.nlm.nih.gov/cgi-bin/sis/search/r?dbs+hsdb:@term+@rn+@rel+104-15-4
   8. http://pubchem.ncbi.nlm.nih.gov/vw3d/vw3d.cgi?cid=6101
