656780
  -OEChem-07051213042D

149148  0     1  0  0  0  0  0999 V2000
   20.1865    5.0000    0.0000 O   0  0  0  0  0  0  0  0  0  0  0  0
   17.5885    4.5000    0.0000 O   0  0  0  0  0  0  0  0  0  0  0  0
   18.4545    3.0000    0.0000 O   0  0  0  0  0  0  0  0  0  0  0  0
   21.0526    3.5000    0.0000 O   0  0  0  0  0  0  0  0  0  0  0  0
   16.7224    6.0000    0.0000 O   0  0  0  0  0  0  0  0  0  0  0  0
   19.3205    1.5000    0.0000 O   0  0  0  0  0  0  0  0  0  0  0  0
    9.7942    5.0000    0.0000 C   0  0  0  0  0  0  0  0  0  0  0  0
    8.9282    4.5000    0.0000 C   0  0  0  0  0  0  0  0  0  0  0  0
   10.6603    4.5000    0.0000 C   0  0  0  0  0  0  0  0  0  0  0  0
    8.0622    5.0000    0.0000 C   0  0  0  0  0  0  0  0  0  0  0  0
   11.5263    5.0000    0.0000 C   0  0  0  0  0  0  0  0  0  0  0  0
    7.1962    4.5000    0.0000 C   0  0  0  0  0  0  0  0  0  0  0  0
   12.3923    4.5000    0.0000 C   0  0  0  0  0  0  0  0  0  0  0  0
    6.3301    5.0000    0.0000 C   0  0  0  0  0  0  0  0  0  0  0  0
   27.1147    5.0000    0.0000 C   0  0  0  0  0  0  0  0  0  0  0  0
   27.9808    4.5000    0.0000 C   0  0  0  0  0  0  0  0  0  0  0  0
   26.2487    4.5000    0.0000 C   0  0  0  0  0  0  0  0  0  0  0  0
   28.8468    5.0000    0.0000 C   0  0  0  0  0  0  0  0  0  0  0  0
   25.3827    5.0000    0.0000 C   0  0  0  0  0  0  0  0  0  0  0  0
   29.7128    4.5000    0.0000 C   0  0  0  0  0  0  0  0  0  0  0  0
   13.2583    5.0000    0.0000 C   0  0  0  0  0  0  0  0  0  0  0  0
    5.4641    4.5000    0.0000 C   0  0  0  0  0  0  0  0  0  0  0  0
   24.5167    4.5000    0.0000 C   0  0  0  0  0  0  0  0  0  0  0  0
   30.5788    5.0000    0.0000 C   0  0  0  0  0  0  0  0  0  0  0  0
   14.1244    4.5000    0.0000 C   0  0  0  0  0  0  0  0  0  0  0  0
    4.5981    5.0000    0.0000 C   0  0  0  0  0  0  0  0  0  0  0  0
   23.6506    5.0000    0.0000 C   0  0  0  0  0  0  0  0  0  0  0  0
   31.4449    4.5000    0.0000 C   0  0  0  0  0  0  0  0  0  0  0  0
   14.9904    5.0000    0.0000 C   0  0  0  0  0  0  0  0  0  0  0  0
    3.7320    4.5000    0.0000 C   0  0  0  0  0  0  0  0  0  0  0  0
   22.7846    4.5000    0.0000 C   0  0  0  0  0  0  0  0  0  0  0  0
   32.3109    5.0000    0.0000 C   0  0  0  0  0  0  0  0  0  0  0  0
   15.8564   -1.5000    0.0000 C   0  0  0  0  0  0  0  0  0  0  0  0
   15.8564   -2.5000    0.0000 C   0  0  0  0  0  0  0  0  0  0  0  0
   16.7224   -1.0000    0.0000 C   0  0  0  0  0  0  0  0  0  0  0  0
   14.9904   -3.0000    0.0000 C   0  0  0  0  0  0  0  0  0  0  0  0
   16.7224    0.0000    0.0000 C   0  0  0  0  0  0  0  0  0  0  0  0
    2.8660    5.0000    0.0000 C   0  0  0  0  0  0  0  0  0  0  0  0
   14.9904   -4.0000    0.0000 C   0  0  0  0  0  0  0  0  0  0  0  0
   15.8564    4.5000    0.0000 C   0  0  0  0  0  0  0  0  0  0  0  0
   21.9186    5.0000    0.0000 C   0  0  0  0  0  0  0  0  0  0  0  0
   33.1769    4.5000    0.0000 C   0  0  0  0  0  0  0  0  0  0  0  0
   17.5885    0.5000    0.0000 C   0  0  0  0  0  0  0  0  0  0  0  0
   14.1244   -4.5000    0.0000 C   0  0  0  0  0  0  0  0  0  0  0  0
   17.5885    1.5000    0.0000 C   0  0  0  0  0  0  0  0  0  0  0  0
   19.3205    4.5000    0.0000 C   0  0  3  0  0  0  0  0  0  0  0  0
   14.1244   -5.5000    0.0000 C   0  0  0  0  0  0  0  0  0  0  0  0
    2.0000    4.5000    0.0000 C   0  0  0  0  0  0  0  0  0  0  0  0
   21.0526    4.5000    0.0000 C   0  0  0  0  0  0  0  0  0  0  0  0
   16.7224    5.0000    0.0000 C   0  0  0  0  0  0  0  0  0  0  0  0
   34.0429    5.0000    0.0000 C   0  0  0  0  0  0  0  0  0  0  0  0
   18.4545    5.0000    0.0000 C   0  0  0  0  0  0  0  0  0  0  0  0
   19.3205    3.5000    0.0000 C   0  0  0  0  0  0  0  0  0  0  0  0
   18.4545    2.0000    0.0000 C   0  0  0  0  0  0  0  0  0  0  0  0
   13.2583   -6.0000    0.0000 C   0  0  0  0  0  0  0  0  0  0  0  0
   10.1928    5.4750    0.0000 H   0  0  0  0  0  0  0  0  0  0  0  0
    9.3957    5.4750    0.0000 H   0  0  0  0  0  0  0  0  0  0  0  0
    8.5297    4.0250    0.0000 H   0  0  0  0  0  0  0  0  0  0  0  0
    9.3267    4.0250    0.0000 H   0  0  0  0  0  0  0  0  0  0  0  0
   10.2617    4.0250    0.0000 H   0  0  0  0  0  0  0  0  0  0  0  0
   11.0588    4.0250    0.0000 H   0  0  0  0  0  0  0  0  0  0  0  0
    8.4607    5.4750    0.0000 H   0  0  0  0  0  0  0  0  0  0  0  0
    7.6636    5.4750    0.0000 H   0  0  0  0  0  0  0  0  0  0  0  0
   11.9248    5.4750    0.0000 H   0  0  0  0  0  0  0  0  0  0  0  0
   11.1278    5.4750    0.0000 H   0  0  0  0  0  0  0  0  0  0  0  0
    6.7976    4.0250    0.0000 H   0  0  0  0  0  0  0  0  0  0  0  0
    7.5947    4.0250    0.0000 H   0  0  0  0  0  0  0  0  0  0  0  0
   11.9938    4.0250    0.0000 H   0  0  0  0  0  0  0  0  0  0  0  0
   12.7908    4.0250    0.0000 H   0  0  0  0  0  0  0  0  0  0  0  0
    6.7287    5.4750    0.0000 H   0  0  0  0  0  0  0  0  0  0  0  0
    5.9316    5.4750    0.0000 H   0  0  0  0  0  0  0  0  0  0  0  0
   27.5133    5.4750    0.0000 H   0  0  0  0  0  0  0  0  0  0  0  0
   26.7162    5.4750    0.0000 H   0  0  0  0  0  0  0  0  0  0  0  0
   27.5822    4.0250    0.0000 H   0  0  0  0  0  0  0  0  0  0  0  0
   28.3793    4.0250    0.0000 H   0  0  0  0  0  0  0  0  0  0  0  0
   25.8502    4.0250    0.0000 H   0  0  0  0  0  0  0  0  0  0  0  0
   26.6472    4.0250    0.0000 H   0  0  0  0  0  0  0  0  0  0  0  0
   29.2453    5.4750    0.0000 H   0  0  0  0  0  0  0  0  0  0  0  0
   28.4483    5.4750    0.0000 H   0  0  0  0  0  0  0  0  0  0  0  0
   25.7812    5.4750    0.0000 H   0  0  0  0  0  0  0  0  0  0  0  0
   24.9842    5.4750    0.0000 H   0  0  0  0  0  0  0  0  0  0  0  0
   29.3143    4.0250    0.0000 H   0  0  0  0  0  0  0  0  0  0  0  0
   30.1113    4.0250    0.0000 H   0  0  0  0  0  0  0  0  0  0  0  0
   13.6569    5.4750    0.0000 H   0  0  0  0  0  0  0  0  0  0  0  0
   12.8598    5.4750    0.0000 H   0  0  0  0  0  0  0  0  0  0  0  0
    5.0656    4.0250    0.0000 H   0  0  0  0  0  0  0  0  0  0  0  0
    5.8626    4.0250    0.0000 H   0  0  0  0  0  0  0  0  0  0  0  0
   24.1181    4.0250    0.0000 H   0  0  0  0  0  0  0  0  0  0  0  0
   24.9152    4.0250    0.0000 H   0  0  0  0  0  0  0  0  0  0  0  0
   30.9774    5.4750    0.0000 H   0  0  0  0  0  0  0  0  0  0  0  0
   30.1803    5.4750    0.0000 H   0  0  0  0  0  0  0  0  0  0  0  0
   13.7258    4.0250    0.0000 H   0  0  0  0  0  0  0  0  0  0  0  0
   14.5229    4.0250    0.0000 H   0  0  0  0  0  0  0  0  0  0  0  0
    4.9966    5.4750    0.0000 H   0  0  0  0  0  0  0  0  0  0  0  0
    4.1996    5.4750    0.0000 H   0  0  0  0  0  0  0  0  0  0  0  0
   24.0492    5.4750    0.0000 H   0  0  0  0  0  0  0  0  0  0  0  0
   23.2521    5.4750    0.0000 H   0  0  0  0  0  0  0  0  0  0  0  0
   31.0463    4.0250    0.0000 H   0  0  0  0  0  0  0  0  0  0  0  0
   31.8434    4.0250    0.0000 H   0  0  0  0  0  0  0  0  0  0  0  0
   15.3889    5.4750    0.0000 H   0  0  0  0  0  0  0  0  0  0  0  0
   14.5919    5.4750    0.0000 H   0  0  0  0  0  0  0  0  0  0  0  0
    3.3335    4.0250    0.0000 H   0  0  0  0  0  0  0  0  0  0  0  0
    4.1306    4.0250    0.0000 H   0  0  0  0  0  0  0  0  0  0  0  0
   22.3861    4.0250    0.0000 H   0  0  0  0  0  0  0  0  0  0  0  0
   23.1831    4.0250    0.0000 H   0  0  0  0  0  0  0  0  0  0  0  0
   32.7094    5.4750    0.0000 H   0  0  0  0  0  0  0  0  0  0  0  0
   31.9124    5.4750    0.0000 H   0  0  0  0  0  0  0  0  0  0  0  0
   15.6444   -0.9174    0.0000 H   0  0  0  0  0  0  0  0  0  0  0  0
   15.2458   -1.6077    0.0000 H   0  0  0  0  0  0  0  0  0  0  0  0
   16.0685   -3.0826    0.0000 H   0  0  0  0  0  0  0  0  0  0  0  0
   16.4670   -2.3923    0.0000 H   0  0  0  0  0  0  0  0  0  0  0  0
   16.9345   -1.5826    0.0000 H   0  0  0  0  0  0  0  0  0  0  0  0
   17.3330   -0.8923    0.0000 H   0  0  0  0  0  0  0  0  0  0  0  0
   14.7783   -2.4174    0.0000 H   0  0  0  0  0  0  0  0  0  0  0  0
   14.3798   -3.1077    0.0000 H   0  0  0  0  0  0  0  0  0  0  0  0
   16.5104    0.5826    0.0000 H   0  0  0  0  0  0  0  0  0  0  0  0
   16.1119   -0.1077    0.0000 H   0  0  0  0  0  0  0  0  0  0  0  0
   15.2024   -4.5826    0.0000 H   0  0  0  0  0  0  0  0  0  0  0  0
   15.6010   -3.8923    0.0000 H   0  0  0  0  0  0  0  0  0  0  0  0
    3.2646    5.4750    0.0000 H   0  0  0  0  0  0  0  0  0  0  0  0
    2.4675    5.4750    0.0000 H   0  0  0  0  0  0  0  0  0  0  0  0
   15.4579    4.0250    0.0000 H   0  0  0  0  0  0  0  0  0  0  0  0
   16.2549    4.0250    0.0000 H   0  0  0  0  0  0  0  0  0  0  0  0
   22.3171    5.4750    0.0000 H   0  0  0  0  0  0  0  0  0  0  0  0
   21.5201    5.4750    0.0000 H   0  0  0  0  0  0  0  0  0  0  0  0
   32.7784    4.0250    0.0000 H   0  0  0  0  0  0  0  0  0  0  0  0
   33.5754    4.0250    0.0000 H   0  0  0  0  0  0  0  0  0  0  0  0
   17.8005   -0.0826    0.0000 H   0  0  0  0  0  0  0  0  0  0  0  0
   18.1990    0.6077    0.0000 H   0  0  0  0  0  0  0  0  0  0  0  0
   13.9123   -3.9174    0.0000 H   0  0  0  0  0  0  0  0  0  0  0  0
   13.5138   -4.6077    0.0000 H   0  0  0  0  0  0  0  0  0  0  0  0
   17.3764    2.0826    0.0000 H   0  0  0  0  0  0  0  0  0  0  0  0
   16.9779    1.3923    0.0000 H   0  0  0  0  0  0  0  0  0  0  0  0
   20.0566    4.0750    0.0000 H   0  0  0  0  0  0  0  0  0  0  0  0
   14.3364   -6.0826    0.0000 H   0  0  0  0  0  0  0  0  0  0  0  0
   14.7349   -5.3923    0.0000 H   0  0  0  0  0  0  0  0  0  0  0  0
    1.6900    5.0369    0.0000 H   0  0  0  0  0  0  0  0  0  0  0  0
    1.4631    4.1900    0.0000 H   0  0  0  0  0  0  0  0  0  0  0  0
    2.3100    3.9631    0.0000 H   0  0  0  0  0  0  0  0  0  0  0  0
   34.3529    4.4631    0.0000 H   0  0  0  0  0  0  0  0  0  0  0  0
   34.5799    5.3100    0.0000 H   0  0  0  0  0  0  0  0  0  0  0  0
   33.7329    5.5369    0.0000 H   0  0  0  0  0  0  0  0  0  0  0  0
   18.8530    5.4750    0.0000 H   0  0  0  0  0  0  0  0  0  0  0  0
   18.0560    5.4750    0.0000 H   0  0  0  0  0  0  0  0  0  0  0  0
   19.5326    2.9174    0.0000 H   0  0  0  0  0  0  0  0  0  0  0  0
   19.9311    3.6077    0.0000 H   0  0  0  0  0  0  0  0  0  0  0  0
   12.9483   -5.4631    0.0000 H   0  0  0  0  0  0  0  0  0  0  0  0
   12.7214   -6.3100    0.0000 H   0  0  0  0  0  0  0  0  0  0  0  0
   13.5683   -6.5369    0.0000 H   0  0  0  0  0  0  0  0  0  0  0  0
  1 46  1  0  0  0  0
  1 49  1  0  0  0  0
  2 50  1  0  0  0  0
  2 52  1  0  0  0  0
  3 53  1  0  0  0  0
  3 54  1  0  0  0  0
  4 49  2  0  0  0  0
  5 50  2  0  0  0  0
  6 54  2  0  0  0  0
  7  8  1  0  0  0  0
  7  9  1  0  0  0  0
  7 56  1  0  0  0  0
  7 57  1  0  0  0  0
  8 10  1  0  0  0  0
  8 58  1  0  0  0  0
  8 59  1  0  0  0  0
  9 11  1  0  0  0  0
  9 60  1  0  0  0  0
  9 61  1  0  0  0  0
 10 12  1  0  0  0  0
 10 62  1  0  0  0  0
 10 63  1  0  0  0  0
 11 13  1  0  0  0  0
 11 64  1  0  0  0  0
 11 65  1  0  0  0  0
 12 14  1  0  0  0  0
 12 66  1  0  0  0  0
 12 67  1  0  0  0  0
 13 21  1  0  0  0  0
 13 68  1  0  0  0  0
 13 69  1  0  0  0  0
 14 22  1  0  0  0  0
 14 70  1  0  0  0  0
 14 71  1  0  0  0  0
 15 16  1  0  0  0  0
 15 17  1  0  0  0  0
 15 72  1  0  0  0  0
 15 73  1  0  0  0  0
 16 18  1  0  0  0  0
 16 74  1  0  0  0  0
 16 75  1  0  0  0  0
 17 19  1  0  0  0  0
 17 76  1  0  0  0  0
 17 77  1  0  0  0  0
 18 20  1  0  0  0  0
 18 78  1  0  0  0  0
 18 79  1  0  0  0  0
 19 23  1  0  0  0  0
 19 80  1  0  0  0  0
 19 81  1  0  0  0  0
 20 24  1  0  0  0  0
 20 82  1  0  0  0  0
 20 83  1  0  0  0  0
 21 25  1  0  0  0  0
 21 84  1  0  0  0  0
 21 85  1  0  0  0  0
 22 26  1  0  0  0  0
 22 86  1  0  0  0  0
 22 87  1  0  0  0  0
 23 27  1  0  0  0  0
 23 88  1  0  0  0  0
 23 89  1  0  0  0  0
 24 28  1  0  0  0  0
 24 90  1  0  0  0  0
 24 91  1  0  0  0  0
 25 29  1  0  0  0  0
 25 92  1  0  0  0  0
 25 93  1  0  0  0  0
 26 30  1  0  0  0  0
 26 94  1  0  0  0  0
 26 95  1  0  0  0  0
 27 31  1  0  0  0  0
 27 96  1  0  0  0  0
 27 97  1  0  0  0  0
 28 32  1  0  0  0  0
 28 98  1  0  0  0  0
 28 99  1  0  0  0  0
 29 40  1  0  0  0  0
 29100  1  0  0  0  0
 29101  1  0  0  0  0
 30 38  1  0  0  0  0
 30102  1  0  0  0  0
 30103  1  0  0  0  0
 31 41  1  0  0  0  0
 31104  1  0  0  0  0
 31105  1  0  0  0  0
 32 42  1  0  0  0  0
 32106  1  0  0  0  0
 32107  1  0  0  0  0
 33 34  1  0  0  0  0
 33 35  1  0  0  0  0
 33108  1  0  0  0  0
 33109  1  0  0  0  0
 34 36  1  0  0  0  0
 34110  1  0  0  0  0
 34111  1  0  0  0  0
 35 37  1  0  0  0  0
 35112  1  0  0  0  0
 35113  1  0  0  0  0
 36 39  1  0  0  0  0
 36114  1  0  0  0  0
 36115  1  0  0  0  0
 37 43  1  0  0  0  0
 37116  1  0  0  0  0
 37117  1  0  0  0  0
 38 48  1  0  0  0  0
 38120  1  0  0  0  0
 38121  1  0  0  0  0
 39 44  1  0  0  0  0
 39118  1  0  0  0  0
 39119  1  0  0  0  0
 40 50  1  0  0  0  0
 40122  1  0  0  0  0
 40123  1  0  0  0  0
 41 49  1  0  0  0  0
 41124  1  0  0  0  0
 41125  1  0  0  0  0
 42 51  1  0  0  0  0
 42126  1  0  0  0  0
 42127  1  0  0  0  0
 43 45  1  0  0  0  0
 43128  1  0  0  0  0
 43129  1  0  0  0  0
 44 47  1  0  0  0  0
 44130  1  0  0  0  0
 44131  1  0  0  0  0
 45 54  1  0  0  0  0
 45132  1  0  0  0  0
 45133  1  0  0  0  0
 46 52  1  0  0  0  0
 46 53  1  0  0  0  0
 46134  1  0  0  0  0
 47 55  1  0  0  0  0
 47135  1  0  0  0  0
 47136  1  0  0  0  0
 48137  1  0  0  0  0
 48138  1  0  0  0  0
 48139  1  0  0  0  0
 51140  1  0  0  0  0
 51141  1  0  0  0  0
 51142  1  0  0  0  0
 52143  1  0  0  0  0
 52144  1  0  0  0  0
 53145  1  0  0  0  0
 53146  1  0  0  0  0
 55147  1  0  0  0  0
 55148  1  0  0  0  0
 55149  1  0  0  0  0
M  END
> <PUBCHEM_COMPOUND_CID>
656780

> <PUBCHEM_COMPOUND_CANONICALIZED>
1

> <PUBCHEM_CACTVS_COMPLEXITY>
813

> <PUBCHEM_CACTVS_HBOND_ACCEPTOR>
6

> <PUBCHEM_CACTVS_HBOND_DONOR>
0

> <PUBCHEM_CACTVS_ROTATABLE_BOND>
48

> <PUBCHEM_CACTVS_SUBSKEYS>
AAADcfB8OAAAAAAAAAAAAAAAAAAAAAAAAAAAAAAAAAAAAAAAAAAAGgAAAAAACBSggAICCAAABAAIAACQCAAAAAAAAAAAAAEAAAABABIAAAACAAAFAAACAAGIyKCAAAAAAAAAAAAAAAAAAAAAAAAAAAAAAA==

> <PUBCHEM_IUPAC_OPENEYE_NAME>
(3-dodecanoyloxy-2-hexadecanoyloxy-propyl) octadecanoate

> <PUBCHEM_IUPAC_CAS_NAME>
octadecanoic acid [3-(1-oxododecoxy)-2-(1-oxohexadecoxy)propyl] ester

> <PUBCHEM_IUPAC_NAME>
(3-dodecanoyloxy-2-hexadecanoyloxypropyl) octadecanoate

> <PUBCHEM_IUPAC_SYSTEMATIC_NAME>
(3-dodecanoyloxy-2-hexadecanoyloxy-propyl) octadecanoate

> <PUBCHEM_IUPAC_TRADITIONAL_NAME>
stearic acid (2-hexadecanoyloxy-3-lauroyloxy-propyl) ester

> <PUBCHEM_IUPAC_INCHI>
InChI=1S/C49H94O6/c1-4-7-10-13-16-19-21-23-24-26-27-30-33-36-39-42-48(51)54-45-46(44-53-47(50)41-38-35-32-29-18-15-12-9-6-3)55-49(52)43-40-37-34-31-28-25-22-20-17-14-11-8-5-2/h46H,4-45H2,1-3H3

> <PUBCHEM_IUPAC_INCHIKEY>
HBNALZRPCNRSPZ-UHFFFAOYSA-N

> <PUBCHEM_XLOGP3_AA>
20.9

> <PUBCHEM_EXACT_MASS>
778.705041

> <PUBCHEM_MOLECULAR_FORMULA>
C49H94O6

> <PUBCHEM_MOLECULAR_WEIGHT>
779.26706

> <PUBCHEM_OPENEYE_CAN_SMILES>
CCCCCCCCCCCCCCCCCC(=O)OCC(COC(=O)CCCCCCCCCCC)OC(=O)CCCCCCCCCCCCCCC

> <PUBCHEM_OPENEYE_ISO_SMILES>
CCCCCCCCCCCCCCCCCC(=O)OCC(COC(=O)CCCCCCCCCCC)OC(=O)CCCCCCCCCCCCCCC

> <PUBCHEM_CACTVS_TPSA>
78.9

> <PUBCHEM_MONOISOTOPIC_WEIGHT>
778.705041

> <PUBCHEM_TOTAL_CHARGE>
0

> <PUBCHEM_HEAVY_ATOM_COUNT>
55

> <PUBCHEM_ATOM_DEF_STEREO_COUNT>
0

> <PUBCHEM_ATOM_UDEF_STEREO_COUNT>
1

> <PUBCHEM_BOND_DEF_STEREO_COUNT>
0

> <PUBCHEM_BOND_UDEF_STEREO_COUNT>
0

> <PUBCHEM_ISOTOPIC_ATOM_COUNT>
0

> <PUBCHEM_COMPONENT_COUNT>
1

> <PUBCHEM_CACTVS_TAUTO_COUNT>
1

> <PUBCHEM_COORDINATE_TYPE>
1
5
255

> <PUBCHEM_BONDANNOTATIONS>
46  134  3

$$$$

