441750
  -OEChem-07051212562D

101108  0     1  0  0  0  0  0999 V2000
    3.4817    0.9683    0.0000 O   0  0  0  0  0  0  0  0  0  0  0  0
    3.0404    1.8064    0.0000 O   0  0  0  0  0  0  0  0  0  0  0  0
    4.5580    0.6375    0.0000 O   0  0  0  0  0  0  0  0  0  0  0  0
    6.3806    4.3994    0.0000 O   0  0  0  0  0  0  0  0  0  0  0  0
    2.6642    4.1478    0.0000 O   0  0  0  0  0  0  0  0  0  0  0  0
    2.2630    4.8573    0.0000 O   0  0  0  0  0  0  0  0  0  0  0  0
    7.2466    0.1642    0.0000 O   0  0  0  0  0  0  0  0  0  0  0  0
    1.6672    2.7315    0.0000 O   0  0  0  0  0  0  0  0  0  0  0  0
    6.3806   -1.3358    0.0000 O   0  0  0  0  0  0  0  0  0  0  0  0
    9.3292   -4.1394    0.0000 O   0  0  0  0  0  0  0  0  0  0  0  0
    6.0214   -2.9354    0.0000 O   0  0  0  0  0  0  0  0  0  0  0  0
    7.5760    2.5703    0.0000 N   0  0  3  0  0  0  0  0  0  0  0  0
    7.7706   -3.2755    0.0000 N   0  0  0  0  0  0  0  0  0  0  0  0
    5.6293    2.9656    0.0000 C   0  0  2  0  0  0  0  0  0  0  0  0
    5.6293    2.0980    0.0000 C   0  0  2  0  0  0  0  0  0  0  0  0
    6.6312    2.8595    0.0000 C   0  0  3  0  0  0  0  0  0  0  0  0
    4.9510    3.5065    0.0000 C   0  0  1  0  0  0  0  0  0  0  0  0
    4.1052    1.7501    0.0000 C   0  0  2  0  0  0  0  0  0  0  0  0
    4.1052    3.3134    0.0000 C   0  0  1  0  0  0  0  0  0  0  0  0
    3.7287    2.5318    0.0000 C   0  0  1  0  0  0  0  0  0  0  0  0
    4.9510    1.5571    0.0000 C   0  0  1  0  0  0  0  0  0  0  0  0
    6.3806    1.6642    0.0000 C   0  0  2  0  0  0  0  0  0  0  0  0
    6.3806    3.3994    0.0000 C   0  0  2  0  0  0  0  0  0  0  0  0
    5.0287    4.3706    0.0000 C   0  0  0  0  0  0  0  0  0  0  0  0
    4.2310    4.7116    0.0000 C   0  0  1  0  0  0  0  0  0  0  0  0
    3.6602    4.0582    0.0000 C   0  0  2  0  0  0  0  0  0  0  0  0
    3.0838    2.8017    0.0000 C   0  0  0  0  0  0  0  0  0  0  0  0
    7.5760    1.8184    0.0000 C   0  0  0  0  0  0  0  0  0  0  0  0
    7.1320    2.0980    0.0000 C   0  0  0  0  0  0  0  0  0  0  0  0
    3.0838    4.2862    0.0000 C   0  0  2  0  0  0  0  0  0  0  0  0
    7.1320    2.9656    0.0000 C   0  0  0  0  0  0  0  0  0  0  0  0
    6.3806    0.6642    0.0000 C   0  0  0  0  0  0  0  0  0  0  0  0
    8.3799    3.1650    0.0000 C   0  0  0  0  0  0  0  0  0  0  0  0
    5.1578   -0.1626    0.0000 C   0  0  0  0  0  0  0  0  0  0  0  0
    9.2969    2.7661    0.0000 C   0  0  0  0  0  0  0  0  0  0  0  0
    7.2466    4.8994    0.0000 C   0  0  0  0  0  0  0  0  0  0  0  0
    1.7568    3.7275    0.0000 C   0  0  0  0  0  0  0  0  0  0  0  0
    2.3471    5.8538    0.0000 C   0  0  0  0  0  0  0  0  0  0  0  0
    7.2466   -0.8358    0.0000 C   0  0  0  0  0  0  0  0  0  0  0  0
    0.9391    4.3031    0.0000 C   0  0  0  0  0  0  0  0  0  0  0  0
    8.1127   -1.3358    0.0000 C   0  0  0  0  0  0  0  0  0  0  0  0
    8.1127   -2.3358    0.0000 C   0  0  0  0  0  0  0  0  0  0  0  0
    8.9787   -0.8358    0.0000 C   0  0  0  0  0  0  0  0  0  0  0  0
    8.9787   -2.8358    0.0000 C   0  0  0  0  0  0  0  0  0  0  0  0
    9.8447   -1.3358    0.0000 C   0  0  0  0  0  0  0  0  0  0  0  0
    9.8447   -2.3358    0.0000 C   0  0  0  0  0  0  0  0  0  0  0  0
    8.3298   -4.1045    0.0000 C   0  0  0  0  0  0  0  0  0  0  0  0
    6.8094   -3.5511    0.0000 C   0  0  0  0  0  0  0  0  0  0  0  0
    7.7142   -4.8925    0.0000 C   0  0  2  0  0  0  0  0  0  0  0  0
    6.7745   -4.5505    0.0000 C   0  0  0  0  0  0  0  0  0  0  0  0
    7.9898   -5.8538    0.0000 C   0  0  0  0  0  0  0  0  0  0  0  0
    5.6928    1.2504    0.0000 H   0  0  0  0  0  0  0  0  0  0  0  0
    6.7552    3.4670    0.0000 H   0  0  0  0  0  0  0  0  0  0  0  0
    5.7326    3.8406    0.0000 H   0  0  0  0  0  0  0  0  0  0  0  0
    3.2560    3.2753    0.0000 H   0  0  0  0  0  0  0  0  0  0  0  0
    5.1514    0.9704    0.0000 H   0  0  0  0  0  0  0  0  0  0  0  0
    5.8437    3.7094    0.0000 H   0  0  0  0  0  0  0  0  0  0  0  0
    5.2115    4.9630    0.0000 H   0  0  0  0  0  0  0  0  0  0  0  0
    5.6371    4.2508    0.0000 H   0  0  0  0  0  0  0  0  0  0  0  0
    4.2518    5.5613    0.0000 H   0  0  0  0  0  0  0  0  0  0  0  0
    3.4294    4.6336    0.0000 H   0  0  0  0  0  0  0  0  0  0  0  0
    2.9219    2.2032    0.0000 H   0  0  0  0  0  0  0  0  0  0  0  0
    2.4692    2.8834    0.0000 H   0  0  0  0  0  0  0  0  0  0  0  0
    8.1954    1.8450    0.0000 H   0  0  0  0  0  0  0  0  0  0  0  0
    7.6289    1.2007    0.0000 H   0  0  0  0  0  0  0  0  0  0  0  0
    7.7425    2.2057    0.0000 H   0  0  0  0  0  0  0  0  0  0  0  0
    7.3440    1.5154    0.0000 H   0  0  0  0  0  0  0  0  0  0  0  0
    3.1620    4.9013    0.0000 H   0  0  0  0  0  0  0  0  0  0  0  0
    7.3440    3.5482    0.0000 H   0  0  0  0  0  0  0  0  0  0  0  0
    7.7425    2.8579    0.0000 H   0  0  0  0  0  0  0  0  0  0  0  0
    6.1686    0.0816    0.0000 H   0  0  0  0  0  0  0  0  0  0  0  0
    5.7700    0.7719    0.0000 H   0  0  0  0  0  0  0  0  0  0  0  0
    3.7082    0.3912    0.0000 H   0  0  0  0  0  0  0  0  0  0  0  0
    2.4459    1.6303    0.0000 H   0  0  0  0  0  0  0  0  0  0  0  0
    7.9303    3.5919    0.0000 H   0  0  0  0  0  0  0  0  0  0  0  0
    8.7222    3.6820    0.0000 H   0  0  0  0  0  0  0  0  0  0  0  0
    5.6539    0.2093    0.0000 H   0  0  0  0  0  0  0  0  0  0  0  0
    5.5297   -0.6587    0.0000 H   0  0  0  0  0  0  0  0  0  0  0  0
    4.6617   -0.5345    0.0000 H   0  0  0  0  0  0  0  0  0  0  0  0
    9.5442    3.3346    0.0000 H   0  0  0  0  0  0  0  0  0  0  0  0
    9.8654    2.5188    0.0000 H   0  0  0  0  0  0  0  0  0  0  0  0
    9.0496    2.1976    0.0000 H   0  0  0  0  0  0  0  0  0  0  0  0
    6.9366    5.4363    0.0000 H   0  0  0  0  0  0  0  0  0  0  0  0
    7.7836    5.2094    0.0000 H   0  0  0  0  0  0  0  0  0  0  0  0
    7.5566    4.3624    0.0000 H   0  0  0  0  0  0  0  0  0  0  0  0
    1.7293    5.9060    0.0000 H   0  0  0  0  0  0  0  0  0  0  0  0
    2.3993    6.4716    0.0000 H   0  0  0  0  0  0  0  0  0  0  0  0
    2.9649    5.8016    0.0000 H   0  0  0  0  0  0  0  0  0  0  0  0
    0.5822    3.7961    0.0000 H   0  0  0  0  0  0  0  0  0  0  0  0
    0.4321    4.6600    0.0000 H   0  0  0  0  0  0  0  0  0  0  0  0
    1.2960    4.8101    0.0000 H   0  0  0  0  0  0  0  0  0  0  0  0
    8.9787   -0.2158    0.0000 H   0  0  0  0  0  0  0  0  0  0  0  0
    8.9787   -3.4558    0.0000 H   0  0  0  0  0  0  0  0  0  0  0  0
   10.3817   -1.0258    0.0000 H   0  0  0  0  0  0  0  0  0  0  0  0
   10.3817   -2.6458    0.0000 H   0  0  0  0  0  0  0  0  0  0  0  0
    7.2607   -5.3154    0.0000 H   0  0  0  0  0  0  0  0  0  0  0  0
    6.6245   -5.1521    0.0000 H   0  0  0  0  0  0  0  0  0  0  0  0
    6.1605   -4.4642    0.0000 H   0  0  0  0  0  0  0  0  0  0  0  0
    8.5858   -5.6829    0.0000 H   0  0  0  0  0  0  0  0  0  0  0  0
    8.1607   -6.4498    0.0000 H   0  0  0  0  0  0  0  0  0  0  0  0
    7.3938   -6.0247    0.0000 H   0  0  0  0  0  0  0  0  0  0  0  0
 18  1  1  1  0  0  0
  1 73  1  0  0  0  0
 20  2  1  6  0  0  0
  2 74  1  0  0  0  0
 21  3  1  6  0  0  0
  3 34  1  0  0  0  0
 23  4  1  1  0  0  0
  4 36  1  0  0  0  0
 26  5  1  1  0  0  0
  5 37  1  0  0  0  0
 30  6  1  6  0  0  0
  6 38  1  0  0  0  0
  7 32  1  0  0  0  0
  7 39  1  0  0  0  0
  8 37  2  0  0  0  0
  9 39  2  0  0  0  0
 10 47  2  0  0  0  0
 11 48  2  0  0  0  0
 12 16  1  0  0  0  0
 12 28  1  0  0  0  0
 12 33  1  0  0  0  0
 13 42  1  0  0  0  0
 13 47  1  0  0  0  0
 13 48  1  0  0  0  0
 14 15  1  0  0  0  0
 14 16  1  0  0  0  0
 14 17  1  0  0  0  0
 14 23  1  6  0  0  0
 15 21  1  0  0  0  0
 15 22  1  0  0  0  0
 15 52  1  6  0  0  0
 16 18  1  0  0  0  0
 16 53  1  0  0  0  0
 17 19  1  0  0  0  0
 17 24  1  0  0  0  0
 17 54  1  6  0  0  0
 18 20  1  0  0  0  0
 18 21  1  0  0  0  0
 19 20  1  0  0  0  0
 19 26  1  0  0  0  0
 19 55  1  6  0  0  0
 20 27  1  0  0  0  0
 21 56  1  0  0  0  0
 22 28  1  0  0  0  0
 22 29  1  0  0  0  0
 22 32  1  6  0  0  0
 23 31  1  0  0  0  0
 23 57  1  0  0  0  0
 24 25  1  0  0  0  0
 24 58  1  0  0  0  0
 24 59  1  0  0  0  0
 25 26  1  0  0  0  0
 25 30  1  0  0  0  0
 25 60  1  6  0  0  0
 26 61  1  0  0  0  0
 27 30  1  0  0  0  0
 27 62  1  0  0  0  0
 27 63  1  0  0  0  0
 28 64  1  0  0  0  0
 28 65  1  0  0  0  0
 29 31  1  0  0  0  0
 29 66  1  0  0  0  0
 29 67  1  0  0  0  0
 30 68  1  0  0  0  0
 31 69  1  0  0  0  0
 31 70  1  0  0  0  0
 32 71  1  0  0  0  0
 32 72  1  0  0  0  0
 33 35  1  0  0  0  0
 33 75  1  0  0  0  0
 33 76  1  0  0  0  0
 34 77  1  0  0  0  0
 34 78  1  0  0  0  0
 34 79  1  0  0  0  0
 35 80  1  0  0  0  0
 35 81  1  0  0  0  0
 35 82  1  0  0  0  0
 36 83  1  0  0  0  0
 36 84  1  0  0  0  0
 36 85  1  0  0  0  0
 37 40  1  0  0  0  0
 38 86  1  0  0  0  0
 38 87  1  0  0  0  0
 38 88  1  0  0  0  0
 39 41  1  0  0  0  0
 40 89  1  0  0  0  0
 40 90  1  0  0  0  0
 40 91  1  0  0  0  0
 41 42  1  0  0  0  0
 41 43  2  0  0  0  0
 42 44  2  0  0  0  0
 43 45  1  0  0  0  0
 43 92  1  0  0  0  0
 44 46  1  0  0  0  0
 44 93  1  0  0  0  0
 45 46  2  0  0  0  0
 45 94  1  0  0  0  0
 46 95  1  0  0  0  0
 47 49  1  0  0  0  0
 48 50  1  0  0  0  0
 49 50  1  0  0  0  0
 49 51  1  1  0  0  0
 49 96  1  0  0  0  0
 50 97  1  0  0  0  0
 50 98  1  0  0  0  0
 51 99  1  0  0  0  0
 51100  1  0  0  0  0
 51101  1  0  0  0  0
M  END
> <PUBCHEM_COMPOUND_CID>
441750

> <PUBCHEM_COMPOUND_CANONICALIZED>
1

> <PUBCHEM_CACTVS_COMPLEXITY>
1480

> <PUBCHEM_CACTVS_HBOND_ACCEPTOR>
12

> <PUBCHEM_CACTVS_HBOND_DONOR>
2

> <PUBCHEM_CACTVS_ROTATABLE_BOND>
11

> <PUBCHEM_CACTVS_SUBSKEYS>
AAADcfB/PAAAAAAAAAAAAAAAAAAAAeMEAAA8YMGCB4gWAGABAAAAHgAACAAAD3zhmAYyyIMABgCIAiXSWACCAAAlAgAIiAEIbMgLJjrAtZmGcYhnxCHb6cf9+P+PgAAAAAACAADQAAaUADSgAaEADSgAAA==

> <PUBCHEM_IUPAC_INCHI>
InChI=1S/C38H50N2O11/c1-7-39-17-35(18-50-33(44)21-10-8-9-11-24(21)40-27(42)14-19(2)32(40)43)13-12-26(48-5)37-23-15-22-25(47-4)16-36(45,28(23)29(22)51-20(3)41)38(46,34(37)39)31(49-6)30(35)37/h8-11,19,22-23,25-26,28-31,34,45-46H,7,12-18H2,1-6H3/t19-,22+,23+,25-,26-,28+,29-,30+,31-,34?,35-,36+,37-,38+/m0/s1

> <PUBCHEM_IUPAC_INCHIKEY>
IPWQJEONCUFCOR-RNNMQTRDSA-N

> <PUBCHEM_XLOGP3_AA>
1

> <PUBCHEM_EXACT_MASS>
710.34146

> <PUBCHEM_MOLECULAR_FORMULA>
C38H50N2O11

> <PUBCHEM_MOLECULAR_WEIGHT>
710.8104

> <PUBCHEM_OPENEYE_CAN_SMILES>
CCN1CC2(CCC(C34C2C(C(C31)(C5(CC(C6CC4C5C6OC(=O)C)OC)O)O)OC)OC)COC(=O)C7=CC=CC=C7N8C(=O)CC(C8=O)C

> <PUBCHEM_OPENEYE_ISO_SMILES>
CCN1C[C@@]2(CC[C@@H]([C@@]34[C@@H]2[C@@H]([C@@](C31)([C@]5(C[C@@H]([C@H]6C[C@@H]4[C@@H]5[C@H]6OC(=O)C)OC)O)O)OC)OC)COC(=O)C7=CC=CC=C7N8C(=O)C[C@@H](C8=O)C

> <PUBCHEM_CACTVS_TPSA>
161

> <PUBCHEM_MONOISOTOPIC_WEIGHT>
710.34146

> <PUBCHEM_TOTAL_CHARGE>
0

> <PUBCHEM_HEAVY_ATOM_COUNT>
51

> <PUBCHEM_ATOM_DEF_STEREO_COUNT>
13

> <PUBCHEM_ATOM_UDEF_STEREO_COUNT>
1

> <PUBCHEM_BOND_DEF_STEREO_COUNT>
0

> <PUBCHEM_BOND_UDEF_STEREO_COUNT>
0

> <PUBCHEM_ISOTOPIC_ATOM_COUNT>
0

> <PUBCHEM_COMPONENT_COUNT>
1

> <PUBCHEM_CACTVS_TAUTO_COUNT>
4

> <PUBCHEM_COORDINATE_TYPE>
1
5
255

> <PUBCHEM_BONDANNOTATIONS>
18  1  5
16  12  3
14  23  6
15  52  6
17  54  6
19  55  6
20  2  6
22  32  6
25  60  6
21  3  6
23  4  5
41  42  8
41  43  8
42  44  8
43  45  8
44  46  8
45  46  8
49  51  5
26  5  5
30  6  6

$$$$

