439849
  -OEChem-07051212472D

 28 30  0     0  0  0  0  0  0999 V2000
    5.4641    2.0427    0.0000 O   0  0  0  0  0  0  0  0  0  0  0  0
    5.4641   -0.9573    0.0000 O   0  0  0  0  0  0  0  0  0  0  0  0
    4.5981   -1.4573    0.0000 O   0  0  0  0  0  0  0  0  0  0  0  0
    4.5981    0.5427    0.0000 C   0  0  0  0  0  0  0  0  0  0  0  0
    6.3301    0.5427    0.0000 C   0  0  0  0  0  0  0  0  0  0  0  0
    3.7320    0.0427    0.0000 C   0  0  0  0  0  0  0  0  0  0  0  0
    5.4641    0.0427    0.0000 C   0  0  0  0  0  0  0  0  0  0  0  0
    6.3301    1.5427    0.0000 C   0  0  0  0  0  0  0  0  0  0  0  0
    4.5981    1.5427    0.0000 C   0  0  0  0  0  0  0  0  0  0  0  0
    7.2241    0.0080    0.0000 C   0  0  0  0  0  0  0  0  0  0  0  0
    3.7320   -0.9573    0.0000 C   0  0  0  0  0  0  0  0  0  0  0  0
    2.8660    0.5427    0.0000 C   0  0  0  0  0  0  0  0  0  0  0  0
    7.2241    2.0773    0.0000 C   0  0  0  0  0  0  0  0  0  0  0  0
    8.1301    0.5219    0.0000 C   0  0  0  0  0  0  0  0  0  0  0  0
    8.1301    1.5635    0.0000 C   0  0  0  0  0  0  0  0  0  0  0  0
    2.8660   -1.4573    0.0000 C   0  0  0  0  0  0  0  0  0  0  0  0
    2.0000    0.0427    0.0000 C   0  0  0  0  0  0  0  0  0  0  0  0
    2.0000   -0.9573    0.0000 C   0  0  0  0  0  0  0  0  0  0  0  0
    4.0611    1.8527    0.0000 H   0  0  0  0  0  0  0  0  0  0  0  0
    7.2169   -0.6120    0.0000 H   0  0  0  0  0  0  0  0  0  0  0  0
    2.8660    1.1627    0.0000 H   0  0  0  0  0  0  0  0  0  0  0  0
    7.2169    2.6973    0.0000 H   0  0  0  0  0  0  0  0  0  0  0  0
    8.6659    0.2098    0.0000 H   0  0  0  0  0  0  0  0  0  0  0  0
    8.6659    1.8756    0.0000 H   0  0  0  0  0  0  0  0  0  0  0  0
    2.8660   -2.0773    0.0000 H   0  0  0  0  0  0  0  0  0  0  0  0
    1.4631    0.3527    0.0000 H   0  0  0  0  0  0  0  0  0  0  0  0
    1.4631   -1.2673    0.0000 H   0  0  0  0  0  0  0  0  0  0  0  0
    4.5981   -2.0773    0.0000 H   0  0  0  0  0  0  0  0  0  0  0  0
  1  8  1  0  0  0  0
  1  9  1  0  0  0  0
  2  7  2  0  0  0  0
  3 11  1  0  0  0  0
  3 28  1  0  0  0  0
  4  6  1  0  0  0  0
  4  7  1  0  0  0  0
  4  9  2  0  0  0  0
  5  7  1  0  0  0  0
  5  8  1  0  0  0  0
  5 10  2  0  0  0  0
  6 11  1  0  0  0  0
  6 12  2  0  0  0  0
  8 13  2  0  0  0  0
  9 19  1  0  0  0  0
 10 14  1  0  0  0  0
 10 20  1  0  0  0  0
 11 16  2  0  0  0  0
 12 17  1  0  0  0  0
 12 21  1  0  0  0  0
 13 15  1  0  0  0  0
 13 22  1  0  0  0  0
 14 15  2  0  0  0  0
 14 23  1  0  0  0  0
 15 24  1  0  0  0  0
 16 18  1  0  0  0  0
 16 25  1  0  0  0  0
 17 18  2  0  0  0  0
 17 26  1  0  0  0  0
 18 27  1  0  0  0  0
M  END
> <PUBCHEM_COMPOUND_CID>
439849

> <PUBCHEM_COMPOUND_CANONICALIZED>
1

> <PUBCHEM_CACTVS_COMPLEXITY>
361

> <PUBCHEM_CACTVS_HBOND_ACCEPTOR>
3

> <PUBCHEM_CACTVS_HBOND_DONOR>
1

> <PUBCHEM_CACTVS_ROTATABLE_BOND>
1

> <PUBCHEM_CACTVS_SUBSKEYS>
AAADccBwMAAAAAAAAAAAAAAAAAAAAAAAAAAwYIAAAAAAAACBQAAAGgAACAAADASgmAIwBoAABgCIAqBSAAACCAAkIAAIiAEGCMgMJjaGNRqAcWAk4BEIuYeKyPCOAAAAAAAIAAAAAAAAABAAAAAAAAAAAA==

> <PUBCHEM_IUPAC_OPENEYE_NAME>
3-(2-hydroxyphenyl)chromen-4-one

> <PUBCHEM_IUPAC_CAS_NAME>
3-(2-hydroxyphenyl)-1-benzopyran-4-one

> <PUBCHEM_IUPAC_NAME>
3-(2-hydroxyphenyl)chromen-4-one

> <PUBCHEM_IUPAC_SYSTEMATIC_NAME>
3-(2-hydroxyphenyl)chromen-4-one

> <PUBCHEM_IUPAC_TRADITIONAL_NAME>
3-(2-hydroxyphenyl)chromone

> <PUBCHEM_IUPAC_INCHI>
InChI=1S/C15H10O3/c16-13-7-3-1-5-10(13)12-9-18-14-8-4-2-6-11(14)15(12)17/h1-9,16H

> <PUBCHEM_IUPAC_INCHIKEY>
SZYDLZMCCKYZBP-UHFFFAOYSA-N

> <PUBCHEM_XLOGP3_AA>
2.8

> <PUBCHEM_EXACT_MASS>
238.062994

> <PUBCHEM_MOLECULAR_FORMULA>
C15H10O3

> <PUBCHEM_MOLECULAR_WEIGHT>
238.2381

> <PUBCHEM_OPENEYE_CAN_SMILES>
C1=CC=C(C(=C1)C2=COC3=CC=CC=C3C2=O)O

> <PUBCHEM_OPENEYE_ISO_SMILES>
C1=CC=C(C(=C1)C2=COC3=CC=CC=C3C2=O)O

> <PUBCHEM_CACTVS_TPSA>
46.5

> <PUBCHEM_MONOISOTOPIC_WEIGHT>
238.062994

> <PUBCHEM_TOTAL_CHARGE>
0

> <PUBCHEM_HEAVY_ATOM_COUNT>
18

> <PUBCHEM_ATOM_DEF_STEREO_COUNT>
0

> <PUBCHEM_ATOM_UDEF_STEREO_COUNT>
0

> <PUBCHEM_BOND_DEF_STEREO_COUNT>
0

> <PUBCHEM_BOND_UDEF_STEREO_COUNT>
0

> <PUBCHEM_ISOTOPIC_ATOM_COUNT>
0

> <PUBCHEM_COMPONENT_COUNT>
1

> <PUBCHEM_CACTVS_TAUTO_COUNT>
3

> <PUBCHEM_COORDINATE_TYPE>
1
5
255

> <PUBCHEM_BONDANNOTATIONS>
1  8  8
1  9  8
10  14  8
11  16  8
12  17  8
13  15  8
14  15  8
16  18  8
17  18  8
4  7  8
4  9  8
5  10  8
5  7  8
5  8  8
6  11  8
6  12  8
8  13  8

$$$$

