5280975
  -OEChem-07051212522D

 30 30  0     0  0  0  0  0  0999 V2000
    3.7320   -4.8100    0.0000 Cl  0  0  0  0  0  0  0  0  0  0  0  0
    2.8660    0.6900    0.0000 Cl  0  0  0  0  0  0  0  0  0  0  0  0
    2.0000   -0.8100    0.0000 Cl  0  0  0  0  0  0  0  0  0  0  0  0
    4.5981    2.6900    0.0000 Cl  0  0  0  0  0  0  0  0  0  0  0  0
    5.4641   -0.8100    0.0000 O   0  0  0  0  0  0  0  0  0  0  0  0
    7.1962    2.1900    0.0000 O   0  0  0  0  0  0  0  0  0  0  0  0
    7.1962    4.1900    0.0000 O   0  0  0  0  0  0  0  0  0  0  0  0
    5.4641    4.1900    0.0000 O   0  0  0  0  0  0  0  0  0  0  0  0
    3.7320   -1.8100    0.0000 C   0  0  0  0  0  0  0  0  0  0  0  0
    3.7320   -0.8100    0.0000 C   0  0  0  0  0  0  0  0  0  0  0  0
    2.8660   -2.3100    0.0000 C   0  0  0  0  0  0  0  0  0  0  0  0
    4.5981   -2.3100    0.0000 C   0  0  0  0  0  0  0  0  0  0  0  0
    4.5981   -0.3100    0.0000 C   0  0  0  0  0  0  0  0  0  0  0  0
    2.8660   -3.3100    0.0000 C   0  0  0  0  0  0  0  0  0  0  0  0
    4.5981   -3.3100    0.0000 C   0  0  0  0  0  0  0  0  0  0  0  0
    3.7320   -3.8100    0.0000 C   0  0  0  0  0  0  0  0  0  0  0  0
    4.5981    0.6900    0.0000 C   0  0  0  0  0  0  0  0  0  0  0  0
    2.8660   -0.3100    0.0000 C   0  0  0  0  0  0  0  0  0  0  0  0
    5.4641    1.1900    0.0000 C   0  0  0  0  0  0  0  0  0  0  0  0
    5.4641    2.1900    0.0000 C   0  0  0  0  0  0  0  0  0  0  0  0
    6.3301    2.6900    0.0000 C   0  0  0  0  0  0  0  0  0  0  0  0
    6.3301    3.6900    0.0000 C   0  0  0  0  0  0  0  0  0  0  0  0
    2.3291   -2.0000    0.0000 H   0  0  0  0  0  0  0  0  0  0  0  0
    5.1350   -2.0000    0.0000 H   0  0  0  0  0  0  0  0  0  0  0  0
    2.3291   -3.6200    0.0000 H   0  0  0  0  0  0  0  0  0  0  0  0
    5.1350   -3.6200    0.0000 H   0  0  0  0  0  0  0  0  0  0  0  0
    4.0611    1.0000    0.0000 H   0  0  0  0  0  0  0  0  0  0  0  0
    6.0010    0.8800    0.0000 H   0  0  0  0  0  0  0  0  0  0  0  0
    7.7331    2.5000    0.0000 H   0  0  0  0  0  0  0  0  0  0  0  0
    7.1962    4.8100    0.0000 H   0  0  0  0  0  0  0  0  0  0  0  0
  1 16  1  0  0  0  0
  2 18  1  0  0  0  0
  3 18  1  0  0  0  0
  4 20  1  0  0  0  0
  5 13  2  0  0  0  0
  6 21  1  0  0  0  0
  6 29  1  0  0  0  0
  7 22  1  0  0  0  0
  7 30  1  0  0  0  0
  8 22  2  0  0  0  0
  9 10  1  0  0  0  0
  9 11  2  0  0  0  0
  9 12  1  0  0  0  0
 10 13  1  0  0  0  0
 10 18  2  0  0  0  0
 11 14  1  0  0  0  0
 11 23  1  0  0  0  0
 12 15  2  0  0  0  0
 12 24  1  0  0  0  0
 13 17  1  0  0  0  0
 14 16  2  0  0  0  0
 14 25  1  0  0  0  0
 15 16  1  0  0  0  0
 15 26  1  0  0  0  0
 17 19  2  0  0  0  0
 17 27  1  0  0  0  0
 19 20  1  0  0  0  0
 19 28  1  0  0  0  0
 20 21  2  0  0  0  0
 21 22  1  0  0  0  0
M  END
> <PUBCHEM_COMPOUND_CID>
5280975

> <PUBCHEM_COMPOUND_CANONICALIZED>
1

> <PUBCHEM_CACTVS_COMPLEXITY>
539

> <PUBCHEM_CACTVS_HBOND_ACCEPTOR>
4

> <PUBCHEM_CACTVS_HBOND_DONOR>
2

> <PUBCHEM_CACTVS_ROTATABLE_BOND>
5

> <PUBCHEM_CACTVS_SUBSKEYS>
AAADccBwOAAHAAAAAAAAAAAAAAAAAAAAAAAwAAAAAAAAAAABAAAAGgIACAAADAaAmKAwCIAAAgCIAqDSCAICAAAgJQAIiAFAAsgJJDKBFxCAMAAggAAJmYcIiICOBAAAAAAAAAAIAAAAAAAAAAAAAAAAAA==

> <PUBCHEM_IUPAC_OPENEYE_NAME>
(2E,4E)-3,8,8-trichloro-7-(4-chlorophenyl)-2-hydroxy-6-oxo-octa-2,4,7-trienoic acid

> <PUBCHEM_IUPAC_CAS_NAME>
(2E,4E)-3,8,8-trichloro-7-(4-chlorophenyl)-2-hydroxy-6-oxoocta-2,4,7-trienoic acid

> <PUBCHEM_IUPAC_NAME>
(2E,4E)-3,8,8-trichloro-7-(4-chlorophenyl)-2-hydroxy-6-oxoocta-2,4,7-trienoic acid

> <PUBCHEM_IUPAC_SYSTEMATIC_NAME>
(2E,4E)-3,8,8-tris(chloranyl)-7-(4-chlorophenyl)-2-oxidanyl-6-oxidanylidene-octa-2,4,7-trienoic acid

> <PUBCHEM_IUPAC_TRADITIONAL_NAME>
(2E,4E)-3,8,8-trichloro-7-(4-chlorophenyl)-2-hydroxy-6-keto-octa-2,4,7-trienoic acid

> <PUBCHEM_IUPAC_INCHI>
InChI=1S/C14H8Cl4O4/c15-8-3-1-7(2-4-8)11(13(17)18)10(19)6-5-9(16)12(20)14(21)22/h1-6,20H,(H,21,22)/b6-5+,12-9+

> <PUBCHEM_IUPAC_INCHIKEY>
UTGDEXKGRFRGPM-HFACTSAFSA-N

> <PUBCHEM_XLOGP3_AA>
4.6

> <PUBCHEM_EXACT_MASS>
381.914719

> <PUBCHEM_MOLECULAR_FORMULA>
C14H8Cl4O4

> <PUBCHEM_MOLECULAR_WEIGHT>
382.02292

> <PUBCHEM_OPENEYE_CAN_SMILES>
C1=CC(=CC=C1C(=C(Cl)Cl)C(=O)C=CC(=C(C(=O)O)O)Cl)Cl

> <PUBCHEM_OPENEYE_ISO_SMILES>
C1=CC(=CC=C1C(=C(Cl)Cl)C(=O)/C=C/C(=C(/C(=O)O)\O)/Cl)Cl

> <PUBCHEM_CACTVS_TPSA>
74.6

> <PUBCHEM_MONOISOTOPIC_WEIGHT>
379.917669

> <PUBCHEM_TOTAL_CHARGE>
0

> <PUBCHEM_HEAVY_ATOM_COUNT>
22

> <PUBCHEM_ATOM_DEF_STEREO_COUNT>
0

> <PUBCHEM_ATOM_UDEF_STEREO_COUNT>
0

> <PUBCHEM_BOND_DEF_STEREO_COUNT>
2

> <PUBCHEM_BOND_UDEF_STEREO_COUNT>
0

> <PUBCHEM_ISOTOPIC_ATOM_COUNT>
0

> <PUBCHEM_COMPONENT_COUNT>
1

> <PUBCHEM_CACTVS_TAUTO_COUNT>
4

> <PUBCHEM_COORDINATE_TYPE>
1
5
255

> <PUBCHEM_BONDANNOTATIONS>
11  14  8
12  15  8
14  16  8
15  16  8
9  11  8
9  12  8

$$$$

