   Color/Form

     * Monoclinic tablets, prisms from toluene
     * Colorless crystals, discolors to brown on exposure to air and
       light, especially when moist

   from [1]HSDB

   Odor

     * Faint characteristic odor
     * Phenolic odor

   from [2]HSDB

   Taste
        Sweet and bitter taste
   from [3]HSDB

   Boiling Point
        245.5 deg C at 760 mm Hg; sublimes
   from [4]HSDB

   Melting Point
        105 deg C
   from [5]HSDB

   Density/Specific Gravity
        1.344
   from [6]HSDB

   Dissociation Constants
        pKa = 9.48
   from [7]HSDB

   Octanol/Water Partition Coefficient
        log Kow = 0.88
   from [8]HSDB

   Solubilities

     * Sol in chloroform, ether; very sol in pyridine, ... aqueous
       alkalis.
     * Slightly sol in cold benzene; sol in carbon tetrachloride, and hot
       benzene.
     * Soluble in alcohol, ether, acetate
     * In water, 4.61X10+5 mg/L at 25 deg C

   from [9]HSDB

   Spectral Properties

     * MAX ABSORPTION (CYCLOHEXANE): 214 NM (LOG E= 3.83); 270 NM SH (LOG
       E= 3.34); 274 NM (LOG E= 3.40); 280 NM (LOG E= 3.35); SADTLER
       REFERENCE NUMBER: 268 (IR, PRISM)
     * Index of refraction: 1.604
     * IR: 29687 (Sadtler Research Laboratories IR Grating Collection)
     * UV: 108 (Sadtler Research Laboratories Spectral Collection)
     * NMR: 124 (Varian Associates NMR Spectra Catalogue)
     * MASS: 20155 (NIST/EPA/MSDC Mass Spectral Data Base 1990 Version);
       350 (Atlas of Mass Spectral Data, John Wiley & Sons, New York)

   from [10]HSDB

   Vapor Density
        3.79 (Air= 1)
   from [11]HSDB

   Vapor Pressure
        3X10-2 mm Hg at 20 deg C (est)
   from [12]HSDB

   Other Chemical/Physical Properties

     * EQUIVALENCIES: 1 MG/L= 222.3 PPM & 1 PPM= 0.00450 MG/L AT 25 DEG C,
       760 MM HG
     * REDUCES AMMONIACAL SILVER NITRATE & FEHLING'S SOLN; FORMS A
       DEFINITE COMPOUND WITH BORIC ACID
     * VP: 10 mmHg at 118.3 deg C
     * Henry's Law constant = 1.2X10-9 atm-cu m/mol at 25 deg C (est)
     * Hydroxyl radical reaction rate constant = 1.04X10-1 cu cm/molec-sec
       at 25 deg C

   from [13]HSDB

   Computed Properties
   Molecular Weight                  110.11064 [g/mol]
   Molecular Formula                 C[6]H[6]O[2]
   XLogP3                            0.9
   H-Bond Donor                      2
   H-Bond Acceptor                   2
   Rotatable Bond Count              0
   Tautomer Count                    6
   Exact Mass                        110.036779
   MonoIsotopic Mass                 110.036779
   Topological Polar Surface Area    40.5
   Heavy Atom Count                  8
   Formal Charge                     0
   Complexity                        62.9
   Isotope Atom Count                0
   Defined Atom Stereocenter Count   0
   Undefined Atom Stereocenter Count 0
   Defined Bond Stereocenter Count   0
   Undefined Bond Stereocenter Count 0
   Covalently-Bonded Unit Count      1
   Feature 3D Donor Count            2
   Feature 3D Ring Count             1
   Effective Rotor Count             0
   Conformer Sampling RMSD           0.4
   CID Conformer Count               [14]1

References

   1. http://toxnet.nlm.nih.gov/cgi-bin/sis/search/r?dbs+hsdb:@term+@rn+@rel+120-80-9
   2. http://toxnet.nlm.nih.gov/cgi-bin/sis/search/r?dbs+hsdb:@term+@rn+@rel+120-80-9
   3. http://toxnet.nlm.nih.gov/cgi-bin/sis/search/r?dbs+hsdb:@term+@rn+@rel+120-80-9
   4. http://toxnet.nlm.nih.gov/cgi-bin/sis/search/r?dbs+hsdb:@term+@rn+@rel+120-80-9
   5. http://toxnet.nlm.nih.gov/cgi-bin/sis/search/r?dbs+hsdb:@term+@rn+@rel+120-80-9
   6. http://toxnet.nlm.nih.gov/cgi-bin/sis/search/r?dbs+hsdb:@term+@rn+@rel+120-80-9
   7. http://toxnet.nlm.nih.gov/cgi-bin/sis/search/r?dbs+hsdb:@term+@rn+@rel+120-80-9
   8. http://toxnet.nlm.nih.gov/cgi-bin/sis/search/r?dbs+hsdb:@term+@rn+@rel+120-80-9
   9. http://toxnet.nlm.nih.gov/cgi-bin/sis/search/r?dbs+hsdb:@term+@rn+@rel+120-80-9
  10. http://toxnet.nlm.nih.gov/cgi-bin/sis/search/r?dbs+hsdb:@term+@rn+@rel+120-80-9
  11. http://toxnet.nlm.nih.gov/cgi-bin/sis/search/r?dbs+hsdb:@term+@rn+@rel+120-80-9
  12. http://toxnet.nlm.nih.gov/cgi-bin/sis/search/r?dbs+hsdb:@term+@rn+@rel+120-80-9
  13. http://toxnet.nlm.nih.gov/cgi-bin/sis/search/r?dbs+hsdb:@term+@rn+@rel+120-80-9
  14. http://pubchem.ncbi.nlm.nih.gov/vw3d/vw3d.cgi?cid=289
