9107
  -OEChem-06261203252D

 36 41  0     0  0  0  0  0  0999 V2000
    5.6098    0.9609    0.0000 N   0  0  0  0  0  0  0  0  0  0  0  0
    6.4758    0.4609    0.0000 N   0  0  0  0  0  0  0  0  0  0  0  0
    4.7438   -0.5391    0.0000 C   0  0  0  0  0  0  0  0  0  0  0  0
    5.6098   -1.0391    0.0000 C   0  0  0  0  0  0  0  0  0  0  0  0
    5.5938   -2.0806    0.0000 C   0  0  0  0  0  0  0  0  0  0  0  0
    3.8498   -1.0737    0.0000 C   0  0  0  0  0  0  0  0  0  0  0  0
    4.7438    0.4609    0.0000 C   0  0  0  0  0  0  0  0  0  0  0  0
    6.4758   -0.5391    0.0000 C   0  0  0  0  0  0  0  0  0  0  0  0
    7.3858   -1.0459    0.0000 C   0  0  0  0  0  0  0  0  0  0  0  0
    3.8498    0.9956    0.0000 C   0  0  0  0  0  0  0  0  0  0  0  0
    7.3939   -2.0875    0.0000 C   0  0  0  0  0  0  0  0  0  0  0  0
    2.9438    0.4818    0.0000 C   0  0  0  0  0  0  0  0  0  0  0  0
    6.4918   -2.6083    0.0000 C   0  0  0  0  0  0  0  0  0  0  0  0
    2.9438   -0.5599    0.0000 C   0  0  0  0  0  0  0  0  0  0  0  0
    4.7590   -2.5382    0.0000 C   0  0  0  0  0  0  0  0  0  0  0  0
    3.8877   -2.0647    0.0000 C   0  0  0  0  0  0  0  0  0  0  0  0
    8.3127   -0.4818    0.0000 C   0  0  0  0  0  0  0  0  0  0  0  0
    3.8749    2.0803    0.0000 C   0  0  0  0  0  0  0  0  0  0  0  0
    2.0000    1.0170    0.0000 C   0  0  0  0  0  0  0  0  0  0  0  0
    8.3293   -2.6372    0.0000 C   0  0  0  0  0  0  0  0  0  0  0  0
    2.9438    2.6372    0.0000 C   0  0  0  0  0  0  0  0  0  0  0  0
    9.2606   -1.0098    0.0000 C   0  0  0  0  0  0  0  0  0  0  0  0
    2.0000    2.1020    0.0000 C   0  0  0  0  0  0  0  0  0  0  0  0
    9.2689   -2.0947    0.0000 C   0  0  0  0  0  0  0  0  0  0  0  0
    6.4894   -3.2283    0.0000 H   0  0  0  0  0  0  0  0  0  0  0  0
    2.4080   -0.8719    0.0000 H   0  0  0  0  0  0  0  0  0  0  0  0
    4.7602   -3.1582    0.0000 H   0  0  0  0  0  0  0  0  0  0  0  0
    3.3609   -2.3917    0.0000 H   0  0  0  0  0  0  0  0  0  0  0  0
    8.3007    0.1381    0.0000 H   0  0  0  0  0  0  0  0  0  0  0  0
    4.4178    2.3799    0.0000 H   0  0  0  0  0  0  0  0  0  0  0  0
    8.3269   -3.2572    0.0000 H   0  0  0  0  0  0  0  0  0  0  0  0
    1.4643    0.7049    0.0000 H   0  0  0  0  0  0  0  0  0  0  0  0
    9.7939   -0.6936    0.0000 H   0  0  0  0  0  0  0  0  0  0  0  0
    2.9510    3.2572    0.0000 H   0  0  0  0  0  0  0  0  0  0  0  0
    9.8071   -2.4027    0.0000 H   0  0  0  0  0  0  0  0  0  0  0  0
    1.4643    2.4141    0.0000 H   0  0  0  0  0  0  0  0  0  0  0  0
  1  2  1  0  0  0  0
  1  7  2  0  0  0  0
  2  8  2  0  0  0  0
  3  4  2  0  0  0  0
  3  6  1  0  0  0  0
  3  7  1  0  0  0  0
  4  5  1  0  0  0  0
  4  8  1  0  0  0  0
  5 13  2  0  0  0  0
  5 15  1  0  0  0  0
  6 14  2  0  0  0  0
  6 16  1  0  0  0  0
  7 10  1  0  0  0  0
  8  9  1  0  0  0  0
  9 11  1  0  0  0  0
  9 17  2  0  0  0  0
 10 12  1  0  0  0  0
 10 18  2  0  0  0  0
 11 13  1  0  0  0  0
 11 20  2  0  0  0  0
 12 14  1  0  0  0  0
 12 19  2  0  0  0  0
 13 25  1  0  0  0  0
 14 26  1  0  0  0  0
 15 16  2  0  0  0  0
 15 27  1  0  0  0  0
 16 28  1  0  0  0  0
 17 22  1  0  0  0  0
 17 29  1  0  0  0  0
 18 21  1  0  0  0  0
 18 30  1  0  0  0  0
 19 23  1  0  0  0  0
 19 32  1  0  0  0  0
 20 24  1  0  0  0  0
 20 31  1  0  0  0  0
 21 23  2  0  0  0  0
 21 34  1  0  0  0  0
 22 24  2  0  0  0  0
 22 33  1  0  0  0  0
 23 36  1  0  0  0  0
 24 35  1  0  0  0  0
M  END
> <PUBCHEM_COMPOUND_CID>
9107

> <PUBCHEM_COMPOUND_CANONICALIZED>
1

> <PUBCHEM_CACTVS_COMPLEXITY>
446

> <PUBCHEM_CACTVS_HBOND_ACCEPTOR>
2

> <PUBCHEM_CACTVS_HBOND_DONOR>
0

> <PUBCHEM_CACTVS_ROTATABLE_BOND>
0

> <PUBCHEM_CACTVS_SUBSKEYS>
AAADccB7AAAAAAAAAAAAAAAAAAAAAAAAAAA8YMGDAAAAAADx/AAAHAAIAAAADAiBHgAwwPAAAACiAyRiQACSBAAgAAAYmCAgRJgIIKKAkZGAoABgiAAIyAcQgMAOwAACQAASAACAAASAACQAAAAAAAAAAA==

> <PUBCHEM_IUPAC_INCHI>
InChI=1S/C22H12N2/c1-3-7-17-13(5-1)11-15-9-10-16-12-14-6-2-4-8-18(14)22-20(16)19(15)21(17)23-24-22/h1-12H

> <PUBCHEM_IUPAC_INCHIKEY>
COEVWYGSNZUYPJ-UHFFFAOYSA-N

> <PUBCHEM_XLOGP3_AA>
5.6

> <PUBCHEM_EXACT_MASS>
304.100048

> <PUBCHEM_MOLECULAR_FORMULA>
C22H12N2

> <PUBCHEM_MOLECULAR_WEIGHT>
304.34408

> <PUBCHEM_OPENEYE_CAN_SMILES>
C1=CC=C2C(=C1)C=C3C=CC4=CC5=CC=CC=C5C6=NN=C2C3=C46

> <PUBCHEM_OPENEYE_ISO_SMILES>
C1=CC=C2C(=C1)C=C3C=CC4=CC5=CC=CC=C5C6=NN=C2C3=C46

> <PUBCHEM_CACTVS_TPSA>
25.8

> <PUBCHEM_MONOISOTOPIC_WEIGHT>
304.100048

> <PUBCHEM_TOTAL_CHARGE>
0

> <PUBCHEM_HEAVY_ATOM_COUNT>
24

> <PUBCHEM_ATOM_DEF_STEREO_COUNT>
0

> <PUBCHEM_ATOM_UDEF_STEREO_COUNT>
0

> <PUBCHEM_BOND_DEF_STEREO_COUNT>
0

> <PUBCHEM_BOND_UDEF_STEREO_COUNT>
0

> <PUBCHEM_ISOTOPIC_ATOM_COUNT>
0

> <PUBCHEM_COMPONENT_COUNT>
1

> <PUBCHEM_CACTVS_TAUTO_COUNT>
1

> <PUBCHEM_COORDINATE_TYPE>
1
5
255

> <PUBCHEM_BONDANNOTATIONS>
1  2  8
1  7  8
10  12  8
10  18  8
11  13  8
11  20  8
12  14  8
12  19  8
15  16  8
17  22  8
18  21  8
19  23  8
2  8  8
20  24  8
21  23  8
22  24  8
3  4  8
3  6  8
3  7  8
4  5  8
4  8  8
5  13  8
5  15  8
6  14  8
6  16  8
7  10  8
8  9  8
9  11  8
9  17  8

$$$$

