17396406
  -OEChem-06241222562D

 49 52  0     1  0  0  0  0  0999 V2000
    3.1590   -2.7661    0.0000 O   0  0  0  0  0  0  0  0  0  0  0  0
    7.5022    4.0532    0.0000 O   0  0  0  0  0  0  0  0  0  0  0  0
    4.9042    1.5532    0.0000 N   0  0  3  0  0  0  0  0  0  0  0  0
    7.5022    1.0532    0.0000 N   0  0  0  0  0  0  0  0  0  0  0  0
    6.6362    2.5532    0.0000 N   0  0  0  0  0  0  0  0  0  0  0  0
    3.9906    1.1465    0.0000 C   0  0  3  0  0  0  0  0  0  0  0  0
    3.3215    1.8896    0.0000 C   0  0  0  0  0  0  0  0  0  0  0  0
    3.8215    2.7557    0.0000 C   0  0  0  0  0  0  0  0  0  0  0  0
    4.7996    2.5478    0.0000 C   0  0  0  0  0  0  0  0  0  0  0  0
    5.7702    1.0532    0.0000 C   0  0  0  0  0  0  0  0  0  0  0  0
    3.7827    0.1684    0.0000 C   0  0  0  0  0  0  0  0  0  0  0  0
    6.6362    1.5532    0.0000 C   0  0  0  0  0  0  0  0  0  0  0  0
    2.8316   -0.1407    0.0000 C   0  0  0  0  0  0  0  0  0  0  0  0
    4.5258   -0.5008    0.0000 C   0  0  0  0  0  0  0  0  0  0  0  0
    2.6237   -1.1188    0.0000 C   0  0  0  0  0  0  0  0  0  0  0  0
    4.3179   -1.4789    0.0000 C   0  0  0  0  0  0  0  0  0  0  0  0
    3.3669   -1.7879    0.0000 C   0  0  0  0  0  0  0  0  0  0  0  0
    8.3683    1.5532    0.0000 C   0  0  0  0  0  0  0  0  0  0  0  0
    8.3683    2.5532    0.0000 C   0  0  0  0  0  0  0  0  0  0  0  0
    7.5022    3.0532    0.0000 C   0  0  0  0  0  0  0  0  0  0  0  0
    9.2622    1.0186    0.0000 C   0  0  0  0  0  0  0  0  0  0  0  0
    9.2622    3.0879    0.0000 C   0  0  0  0  0  0  0  0  0  0  0  0
   10.1683    1.5324    0.0000 C   0  0  0  0  0  0  0  0  0  0  0  0
   10.1683    2.5741    0.0000 C   0  0  0  0  0  0  0  0  0  0  0  0
    2.2079   -3.0751    0.0000 C   0  0  0  0  0  0  0  0  0  0  0  0
    2.0000   -4.0532    0.0000 C   0  0  0  0  0  0  0  0  0  0  0  0
    3.3917    0.9860    0.0000 H   0  0  0  0  0  0  0  0  0  0  0  0
    2.8199    2.2541    0.0000 H   0  0  0  0  0  0  0  0  0  0  0  0
    2.9066    1.4289    0.0000 H   0  0  0  0  0  0  0  0  0  0  0  0
    4.0131    3.3453    0.0000 H   0  0  0  0  0  0  0  0  0  0  0  0
    3.2551    3.0079    0.0000 H   0  0  0  0  0  0  0  0  0  0  0  0
    5.4196    2.5478    0.0000 H   0  0  0  0  0  0  0  0  0  0  0  0
    4.8644    3.1644    0.0000 H   0  0  0  0  0  0  0  0  0  0  0  0
    5.3717    0.5783    0.0000 H   0  0  0  0  0  0  0  0  0  0  0  0
    6.1687    0.5783    0.0000 H   0  0  0  0  0  0  0  0  0  0  0  0
    2.3709    0.2742    0.0000 H   0  0  0  0  0  0  0  0  0  0  0  0
    5.1155   -0.3092    0.0000 H   0  0  0  0  0  0  0  0  0  0  0  0
    7.5022    0.4332    0.0000 H   0  0  0  0  0  0  0  0  0  0  0  0
    2.0341   -1.3104    0.0000 H   0  0  0  0  0  0  0  0  0  0  0  0
    4.7787   -1.8938    0.0000 H   0  0  0  0  0  0  0  0  0  0  0  0
    9.2550    0.3986    0.0000 H   0  0  0  0  0  0  0  0  0  0  0  0
    9.2550    3.7079    0.0000 H   0  0  0  0  0  0  0  0  0  0  0  0
   10.7040    1.2204    0.0000 H   0  0  0  0  0  0  0  0  0  0  0  0
   10.7040    2.8861    0.0000 H   0  0  0  0  0  0  0  0  0  0  0  0
    2.1216   -2.4611    0.0000 H   0  0  0  0  0  0  0  0  0  0  0  0
    1.5883   -3.0535    0.0000 H   0  0  0  0  0  0  0  0  0  0  0  0
    1.3936   -3.9243    0.0000 H   0  0  0  0  0  0  0  0  0  0  0  0
    1.8711   -4.6597    0.0000 H   0  0  0  0  0  0  0  0  0  0  0  0
    2.6064   -4.1822    0.0000 H   0  0  0  0  0  0  0  0  0  0  0  0
  1 17  1  0  0  0  0
  1 25  1  0  0  0  0
  2 20  2  0  0  0  0
  3  6  1  0  0  0  0
  3  9  1  0  0  0  0
  3 10  1  0  0  0  0
  4 12  1  0  0  0  0
  4 18  1  0  0  0  0
  4 38  1  0  0  0  0
  5 12  2  0  0  0  0
  5 20  1  0  0  0  0
  6  7  1  0  0  0  0
  6 11  1  0  0  0  0
  6 27  1  0  0  0  0
  7  8  1  0  0  0  0
  7 28  1  0  0  0  0
  7 29  1  0  0  0  0
  8  9  1  0  0  0  0
  8 30  1  0  0  0  0
  8 31  1  0  0  0  0
  9 32  1  0  0  0  0
  9 33  1  0  0  0  0
 10 12  1  0  0  0  0
 10 34  1  0  0  0  0
 10 35  1  0  0  0  0
 11 13  2  0  0  0  0
 11 14  1  0  0  0  0
 13 15  1  0  0  0  0
 13 36  1  0  0  0  0
 14 16  2  0  0  0  0
 14 37  1  0  0  0  0
 15 17  2  0  0  0  0
 15 39  1  0  0  0  0
 16 17  1  0  0  0  0
 16 40  1  0  0  0  0
 18 19  1  0  0  0  0
 18 21  2  0  0  0  0
 19 20  1  0  0  0  0
 19 22  2  0  0  0  0
 21 23  1  0  0  0  0
 21 41  1  0  0  0  0
 22 24  1  0  0  0  0
 22 42  1  0  0  0  0
 23 24  2  0  0  0  0
 23 43  1  0  0  0  0
 24 44  1  0  0  0  0
 25 26  1  0  0  0  0
 25 45  1  0  0  0  0
 25 46  1  0  0  0  0
 26 47  1  0  0  0  0
 26 48  1  0  0  0  0
 26 49  1  0  0  0  0
M  END
> <PUBCHEM_COMPOUND_CID>
17396406

> <PUBCHEM_COMPOUND_CANONICALIZED>
1

> <PUBCHEM_CACTVS_COMPLEXITY>
527

> <PUBCHEM_CACTVS_HBOND_ACCEPTOR>
3

> <PUBCHEM_CACTVS_HBOND_DONOR>
1

> <PUBCHEM_CACTVS_ROTATABLE_BOND>
5

> <PUBCHEM_CACTVS_SUBSKEYS>
AAADceB7MAAAAAAAAAAAAAAAAAAAAWAAAAAwYIAAAAAAAACBQAAAHgAQAAAADCzhmAYzxoPABACoAidydACCCAElIgAJiAEebMgMZjrE/ZuWOajk0BHI6ceY2KOOIAAAAAACAABAAAAAAAQAAAAAAAAAAA==

> <PUBCHEM_IUPAC_OPENEYE_NAME>
2-[[2-(4-ethoxyphenyl)pyrrolidin-1-yl]methyl]-1H-quinazolin-4-one

> <PUBCHEM_IUPAC_CAS_NAME>
2-[[2-(4-ethoxyphenyl)-1-pyrrolidinyl]methyl]-1H-quinazolin-4-one

> <PUBCHEM_IUPAC_NAME>
2-[[2-(4-ethoxyphenyl)pyrrolidin-1-yl]methyl]-1H-quinazolin-4-one

> <PUBCHEM_IUPAC_SYSTEMATIC_NAME>
2-[[2-(4-ethoxyphenyl)pyrrolidin-1-yl]methyl]-1H-quinazolin-4-one

> <PUBCHEM_IUPAC_TRADITIONAL_NAME>
2-[(2-p-phenetylpyrrolidino)methyl]-1H-quinazolin-4-one

> <PUBCHEM_IUPAC_INCHI>
InChI=1S/C21H23N3O2/c1-2-26-16-11-9-15(10-12-16)19-8-5-13-24(19)14-20-22-18-7-4-3-6-17(18)21(25)23-20/h3-4,6-7,9-12,19H,2,5,8,13-14H2,1H3,(H,22,23,25)

> <PUBCHEM_IUPAC_INCHIKEY>
SKYJIPULMIDUBN-UHFFFAOYSA-N

> <PUBCHEM_XLOGP3_AA>
3.1

> <PUBCHEM_EXACT_MASS>
349.179027

> <PUBCHEM_MOLECULAR_FORMULA>
C21H23N3O2

> <PUBCHEM_MOLECULAR_WEIGHT>
349.42622

> <PUBCHEM_OPENEYE_CAN_SMILES>
CCOC1=CC=C(C=C1)C2CCCN2CC3=NC(=O)C4=CC=CC=C4N3

> <PUBCHEM_OPENEYE_ISO_SMILES>
CCOC1=CC=C(C=C1)C2CCCN2CC3=NC(=O)C4=CC=CC=C4N3

> <PUBCHEM_CACTVS_TPSA>
53.9

> <PUBCHEM_MONOISOTOPIC_WEIGHT>
349.179027

> <PUBCHEM_TOTAL_CHARGE>
0

> <PUBCHEM_HEAVY_ATOM_COUNT>
26

> <PUBCHEM_ATOM_DEF_STEREO_COUNT>
0

> <PUBCHEM_ATOM_UDEF_STEREO_COUNT>
1

> <PUBCHEM_BOND_DEF_STEREO_COUNT>
0

> <PUBCHEM_BOND_UDEF_STEREO_COUNT>
0

> <PUBCHEM_ISOTOPIC_ATOM_COUNT>
0

> <PUBCHEM_COMPONENT_COUNT>
1

> <PUBCHEM_CACTVS_TAUTO_COUNT>
10

> <PUBCHEM_COORDINATE_TYPE>
1
5
255

> <PUBCHEM_BONDANNOTATIONS>
11  13  8
11  14  8
13  15  8
14  16  8
15  17  8
16  17  8
18  19  8
18  21  8
19  20  8
19  22  8
21  23  8
22  24  8
23  24  8
4  12  8
4  18  8
5  12  8
5  20  8
6  11  3

$$$$

