   Color/Form

     * ORANGE-RED NEEDLES FROM ALC, ETHER, WATER
     * Red needles from alcohol

   from [1]HSDB

   Melting Point
        118 deg C
   from [2]HSDB

   Density/Specific Gravity
        1.2068 @ 156 DEG C
   from [3]HSDB

   Dissociation Constants
        pKa = 2.49
   from [4]HSDB

   Octanol/Water Partition Coefficient
        log Kow= 1.47
   from [5]HSDB

   Solubilities

     * Very sol in alcohol, acetone, benzene, acetic acid, ethyl acetate;
       soluble in ligroine
     * SLIGHTLY SOL IN PETROLEUM ETHER
     * In water, 115 mg/l @ 23 deg C

   from [6]HSDB

   Spectral Properties

     * MAX ABSORPTION (WATER, PH 7): 219 NM (LOG E= 3.90); 257 NM (LOG E=
       3.78); 310 NM SHOULDER (LOG E= 3.38); 400 NM (LOG E= 4.09)
     * IR: 3:826G (Aldrich Library of Infrared Spectra, Aldrich Chemical
       Co, Milwaukee, WI)
     * UV: 17651 (Sadtler Research Laboratories Spectral Collection)
     * NMR: 11061 (Sadtler Research Laboratories Spectral Collection)
     * MASS: 70828 (NIST/EPA/MSDC Mass Spectral Database, 1990 version)

   from [7]HSDB

   Computed Properties
   Molecular Weight                  168.15002 [g/mol]
   Molecular Formula                 C[7]H[8]N[2]O[3]
   XLogP3                            1.5
   H-Bond Donor                      1
   H-Bond Acceptor                   4
   Rotatable Bond Count              1
   Exact Mass                        168.053492
   MonoIsotopic Mass                 168.053492
   Topological Polar Surface Area    81.1
   Heavy Atom Count                  12
   Formal Charge                     0
   Complexity                        169
   Isotope Atom Count                0
   Defined Atom Stereocenter Count   0
   Undefined Atom Stereocenter Count 0
   Defined Bond Stereocenter Count   0
   Undefined Bond Stereocenter Count 0
   Covalently-Bonded Unit Count      1
   Feature 3D Acceptor Count         3
   Feature 3D Donor Count            1
   Feature 3D Anion Count            1
   Feature 3D Cation Count           1
   Feature 3D Ring Count             1
   Effective Rotor Count             2
   Conformer Sampling RMSD           0.6
   CID Conformer Count               [8]2

References

   1. http://toxnet.nlm.nih.gov/cgi-bin/sis/search/r?dbs+hsdb:@term+@rn+@rel+99-59-2
   2. http://toxnet.nlm.nih.gov/cgi-bin/sis/search/r?dbs+hsdb:@term+@rn+@rel+99-59-2
   3. http://toxnet.nlm.nih.gov/cgi-bin/sis/search/r?dbs+hsdb:@term+@rn+@rel+99-59-2
   4. http://toxnet.nlm.nih.gov/cgi-bin/sis/search/r?dbs+hsdb:@term+@rn+@rel+99-59-2
   5. http://toxnet.nlm.nih.gov/cgi-bin/sis/search/r?dbs+hsdb:@term+@rn+@rel+99-59-2
   6. http://toxnet.nlm.nih.gov/cgi-bin/sis/search/r?dbs+hsdb:@term+@rn+@rel+99-59-2
   7. http://toxnet.nlm.nih.gov/cgi-bin/sis/search/r?dbs+hsdb:@term+@rn+@rel+99-59-2
   8. http://pubchem.ncbi.nlm.nih.gov/vw3d/vw3d.cgi?cid=7447
