   Color/Form
        Colorless liquid
   from [1]HSDB

   Odor
        Pungent odor
   from [2]HSDB

   Boiling Point
        194 deg C at 760 mm Hg; 102 deg C at 20 mm Hg
   from [3]HSDB

   Melting Point
        Apparently occurs in two crystal forms, mp 9.7 deg C and -4 deg C
   from [4]HSDB

   Corrosivity
        Highly corrosive liquid that gives off acidic vapors.
   from [5]HSDB

   Density/Specific Gravity
        1.5634 at 20 deg C/4 deg C
   from [6]HSDB

   Dissociation Constants
        pKa = 1.26
   from [7]HSDB

   Octanol/Water Partition Coefficient
        log Kow = 0.92
   from [8]HSDB

   Solubilities

     * Miscible with ethanol, diethyl ether; soluble in acetone; slightly
       soluble in carbon tetrachloride
     * Miscible with water

   from [9]HSDB

   Spectral Properties

     * Index of refraction: 1.4658 at 20 deg C/D
     * MASS: 2775 (NIST/EPA/MSDC Mass Spectral Database, 1990 Version)
     * IR: 2806 (Sadtler Research Laboratories IR prism collection)
     * 1H NMR: 166 (Sadtler Research Laboratories spectral collection)

   from [10]HSDB

   Vapor Density
        4.45 (Air = 1)
   from [11]HSDB

   Vapor Pressure
        0.179 mm Hg at 25 deg C (extrapolated)
   from [12]HSDB

   Other Chemical/Physical Properties

     * Liquid molar volume = 0.083010 cu m/kmol; Heat of fusion at melting
       point = 1.2343X10+7 J/kmol
     * Will react with water or steam to produce toxic and corrosive
       fumes. When heated to decomposition it emits toxic fumes
     * Henry's Law constant = 8.38X10-9 atm-cu m/mole at 25 deg C
     * Hydroxyl radical reaction rate constant = 7.3X10-13 cu
       cm/molecule-sec at 25 deg C (est)

   from [13]HSDB

   Computed Properties
   Molecular Weight                  128.94208 [g/mol]
   Molecular Formula                 C[2]H[2]Cl[2]O[2]
   XLogP3                            0.9
   H-Bond Donor                      1
   H-Bond Acceptor                   2
   Rotatable Bond Count              1
   Exact Mass                        127.943185
   MonoIsotopic Mass                 127.943185
   Topological Polar Surface Area    37.3
   Heavy Atom Count                  6
   Formal Charge                     0
   Complexity                        60.6
   Isotope Atom Count                0
   Defined Atom Stereocenter Count   0
   Undefined Atom Stereocenter Count 0
   Defined Bond Stereocenter Count   0
   Undefined Bond Stereocenter Count 0
   Covalently-Bonded Unit Count      1
   Feature 3D Acceptor Count         2
   Feature 3D Anion Count            1
   Effective Rotor Count             1
   Conformer Sampling RMSD           0.4
   CID Conformer Count               [14]3

References

   1. http://toxnet.nlm.nih.gov/cgi-bin/sis/search/r?dbs+hsdb:@term+@rn+@rel+79-43-6
   2. http://toxnet.nlm.nih.gov/cgi-bin/sis/search/r?dbs+hsdb:@term+@rn+@rel+79-43-6
   3. http://toxnet.nlm.nih.gov/cgi-bin/sis/search/r?dbs+hsdb:@term+@rn+@rel+79-43-6
   4. http://toxnet.nlm.nih.gov/cgi-bin/sis/search/r?dbs+hsdb:@term+@rn+@rel+79-43-6
   5. http://toxnet.nlm.nih.gov/cgi-bin/sis/search/r?dbs+hsdb:@term+@rn+@rel+79-43-6
   6. http://toxnet.nlm.nih.gov/cgi-bin/sis/search/r?dbs+hsdb:@term+@rn+@rel+79-43-6
   7. http://toxnet.nlm.nih.gov/cgi-bin/sis/search/r?dbs+hsdb:@term+@rn+@rel+79-43-6
   8. http://toxnet.nlm.nih.gov/cgi-bin/sis/search/r?dbs+hsdb:@term+@rn+@rel+79-43-6
   9. http://toxnet.nlm.nih.gov/cgi-bin/sis/search/r?dbs+hsdb:@term+@rn+@rel+79-43-6
  10. http://toxnet.nlm.nih.gov/cgi-bin/sis/search/r?dbs+hsdb:@term+@rn+@rel+79-43-6
  11. http://toxnet.nlm.nih.gov/cgi-bin/sis/search/r?dbs+hsdb:@term+@rn+@rel+79-43-6
  12. http://toxnet.nlm.nih.gov/cgi-bin/sis/search/r?dbs+hsdb:@term+@rn+@rel+79-43-6
  13. http://toxnet.nlm.nih.gov/cgi-bin/sis/search/r?dbs+hsdb:@term+@rn+@rel+79-43-6
  14. http://pubchem.ncbi.nlm.nih.gov/vw3d/vw3d.cgi?cid=6597
