193592
  -OEChem-07051212512D

 52 53  0     1  0  0  0  0  0999 V2000
    8.0622    0.1550    0.0000 O   0  0  0  0  0  0  0  0  0  0  0  0
    8.9282   -1.3450    0.0000 O   0  0  0  0  0  0  0  0  0  0  0  0
    5.4641   -2.3450    0.0000 O   0  0  0  0  0  0  0  0  0  0  0  0
    5.4641    3.6550    0.0000 O   0  0  0  0  0  0  0  0  0  0  0  0
    4.5981   -3.8450    0.0000 O   0  0  0  0  0  0  0  0  0  0  0  0
    4.5981    5.1550    0.0000 O   0  0  0  0  0  0  0  0  0  0  0  0
    4.5981   -5.8450    0.0000 O   0  0  0  0  0  0  0  0  0  0  0  0
    2.8660    6.1550    0.0000 O   0  0  0  0  0  0  0  0  0  0  0  0
    7.1962   -2.3450    0.0000 N   0  0  0  0  0  0  0  0  0  0  0  0
    4.5981    2.1550    0.0000 N   0  0  0  0  0  0  0  0  0  0  0  0
    6.3301   -0.8450    0.0000 C   0  0  0  0  0  0  0  0  0  0  0  0
    6.3301    0.1550    0.0000 C   0  0  0  0  0  0  0  0  0  0  0  0
    7.1962   -1.3450    0.0000 C   0  0  1  0  0  0  0  0  0  0  0  0
    5.4641    0.6550    0.0000 C   0  0  0  0  0  0  0  0  0  0  0  0
    5.4641    1.6550    0.0000 C   0  0  0  0  0  0  0  0  0  0  0  0
    8.0622   -0.8450    0.0000 C   0  0  0  0  0  0  0  0  0  0  0  0
    6.3301   -2.8450    0.0000 C   0  0  0  0  0  0  0  0  0  0  0  0
    4.5981    3.1550    0.0000 C   0  0  0  0  0  0  0  0  0  0  0  0
    6.3301   -3.8450    0.0000 C   0  0  0  0  0  0  0  0  0  0  0  0
    3.7320    3.6550    0.0000 C   0  0  0  0  0  0  0  0  0  0  0  0
    5.4641   -4.3450    0.0000 C   0  0  0  0  0  0  0  0  0  0  0  0
    7.1962   -4.3450    0.0000 C   0  0  0  0  0  0  0  0  0  0  0  0
    3.7320    4.6550    0.0000 C   0  0  0  0  0  0  0  0  0  0  0  0
    2.8660    3.1550    0.0000 C   0  0  0  0  0  0  0  0  0  0  0  0
    5.4641   -5.3450    0.0000 C   0  0  0  0  0  0  0  0  0  0  0  0
    7.1962   -5.3450    0.0000 C   0  0  0  0  0  0  0  0  0  0  0  0
    6.3301   -5.8450    0.0000 C   0  0  0  0  0  0  0  0  0  0  0  0
    2.8660    5.1550    0.0000 C   0  0  0  0  0  0  0  0  0  0  0  0
    2.0000    3.6550    0.0000 C   0  0  0  0  0  0  0  0  0  0  0  0
    2.0000    4.6550    0.0000 C   0  0  0  0  0  0  0  0  0  0  0  0
    5.7196   -0.7373    0.0000 H   0  0  0  0  0  0  0  0  0  0  0  0
    6.1181   -1.4276    0.0000 H   0  0  0  0  0  0  0  0  0  0  0  0
    6.9407    0.0473    0.0000 H   0  0  0  0  0  0  0  0  0  0  0  0
    6.5422    0.7376    0.0000 H   0  0  0  0  0  0  0  0  0  0  0  0
    6.6592   -1.6550    0.0000 H   0  0  0  0  0  0  0  0  0  0  0  0
    4.8535    0.7627    0.0000 H   0  0  0  0  0  0  0  0  0  0  0  0
    5.2520    0.0724    0.0000 H   0  0  0  0  0  0  0  0  0  0  0  0
    6.0747    1.5473    0.0000 H   0  0  0  0  0  0  0  0  0  0  0  0
    5.6762    2.2376    0.0000 H   0  0  0  0  0  0  0  0  0  0  0  0
    7.7331   -2.6550    0.0000 H   0  0  0  0  0  0  0  0  0  0  0  0
    4.0611    1.8450    0.0000 H   0  0  0  0  0  0  0  0  0  0  0  0
    8.5991    0.4650    0.0000 H   0  0  0  0  0  0  0  0  0  0  0  0
    7.7331   -4.0350    0.0000 H   0  0  0  0  0  0  0  0  0  0  0  0
    2.8660    2.5350    0.0000 H   0  0  0  0  0  0  0  0  0  0  0  0
    7.7331   -5.6550    0.0000 H   0  0  0  0  0  0  0  0  0  0  0  0
    6.3301   -6.4650    0.0000 H   0  0  0  0  0  0  0  0  0  0  0  0
    1.4631    3.3450    0.0000 H   0  0  0  0  0  0  0  0  0  0  0  0
    1.4631    4.9650    0.0000 H   0  0  0  0  0  0  0  0  0  0  0  0
    4.0611   -4.1550    0.0000 H   0  0  0  0  0  0  0  0  0  0  0  0
    4.5981    5.7750    0.0000 H   0  0  0  0  0  0  0  0  0  0  0  0
    4.5981   -6.4650    0.0000 H   0  0  0  0  0  0  0  0  0  0  0  0
    2.3291    6.4650    0.0000 H   0  0  0  0  0  0  0  0  0  0  0  0
  1 16  1  0  0  0  0
  1 42  1  0  0  0  0
  2 16  2  0  0  0  0
  3 17  2  0  0  0  0
  4 18  2  0  0  0  0
  5 21  1  0  0  0  0
  5 49  1  0  0  0  0
  6 23  1  0  0  0  0
  6 50  1  0  0  0  0
  7 25  1  0  0  0  0
  7 51  1  0  0  0  0
  8 28  1  0  0  0  0
  8 52  1  0  0  0  0
 13  9  1  1  0  0  0
  9 17  1  0  0  0  0
  9 40  1  0  0  0  0
 10 15  1  0  0  0  0
 10 18  1  0  0  0  0
 10 41  1  0  0  0  0
 11 12  1  0  0  0  0
 11 13  1  0  0  0  0
 11 31  1  0  0  0  0
 11 32  1  0  0  0  0
 12 14  1  0  0  0  0
 12 33  1  0  0  0  0
 12 34  1  0  0  0  0
 13 16  1  0  0  0  0
 13 35  1  0  0  0  0
 14 15  1  0  0  0  0
 14 36  1  0  0  0  0
 14 37  1  0  0  0  0
 15 38  1  0  0  0  0
 15 39  1  0  0  0  0
 17 19  1  0  0  0  0
 18 20  1  0  0  0  0
 19 21  2  0  0  0  0
 19 22  1  0  0  0  0
 20 23  2  0  0  0  0
 20 24  1  0  0  0  0
 21 25  1  0  0  0  0
 22 26  2  0  0  0  0
 22 43  1  0  0  0  0
 23 28  1  0  0  0  0
 24 29  2  0  0  0  0
 24 44  1  0  0  0  0
 25 27  2  0  0  0  0
 26 27  1  0  0  0  0
 26 45  1  0  0  0  0
 27 46  1  0  0  0  0
 28 30  2  0  0  0  0
 29 30  1  0  0  0  0
 29 47  1  0  0  0  0
 30 48  1  0  0  0  0
M  END
> <PUBCHEM_COMPOUND_CID>
193592

> <PUBCHEM_COMPOUND_CANONICALIZED>
1

> <PUBCHEM_CACTVS_COMPLEXITY>
601

> <PUBCHEM_CACTVS_HBOND_ACCEPTOR>
8

> <PUBCHEM_CACTVS_HBOND_DONOR>
7

> <PUBCHEM_CACTVS_ROTATABLE_BOND>
9

> <PUBCHEM_CACTVS_SUBSKEYS>
AAADceB7PAAAAAAAAAAAAAAAAAAAAAAAAAAwYAAAAAAAAAABQAAAHgAQCAAADCzBmAQwDoLAAgCIAiHSGACCAAAkIAAIiIGOjMgLJjaClTOEcUlm9hGZmYe6yDCOAAABAAAIQAAAAAIAABCAAAAAAAAAAA==

> <PUBCHEM_IUPAC_OPENEYE_NAME>
(2S)-2,6-bis[(2,3-dihydroxybenzoyl)amino]hexanoic acid

> <PUBCHEM_IUPAC_CAS_NAME>
(2S)-2,6-bis[[(2,3-dihydroxyphenyl)-oxomethyl]amino]hexanoic acid

> <PUBCHEM_IUPAC_NAME>
(2S)-2,6-bis[(2,3-dihydroxybenzoyl)amino]hexanoic acid

> <PUBCHEM_IUPAC_SYSTEMATIC_NAME>
(2S)-2,6-bis[[2,3-bis(oxidanyl)phenyl]carbonylamino]hexanoic acid

> <PUBCHEM_IUPAC_TRADITIONAL_NAME>
(2S)-2,6-bis[(2,3-dihydroxybenzoyl)amino]hexanoic acid

> <PUBCHEM_IUPAC_INCHI>
InChI=1S/C20H22N2O8/c23-14-8-3-5-11(16(14)25)18(27)21-10-2-1-7-13(20(29)30)22-19(28)12-6-4-9-15(24)17(12)26/h3-6,8-9,13,23-26H,1-2,7,10H2,(H,21,27)(H,22,28)(H,29,30)/t13-/m0/s1

> <PUBCHEM_IUPAC_INCHIKEY>
KQPFLOCEYZIIRD-ZDUSSCGKSA-N

> <PUBCHEM_XLOGP3_AA>
2.6

> <PUBCHEM_EXACT_MASS>
418.137616

> <PUBCHEM_MOLECULAR_FORMULA>
C20H22N2O8

> <PUBCHEM_MOLECULAR_WEIGHT>
418.39728

> <PUBCHEM_OPENEYE_CAN_SMILES>
C1=CC(=C(C(=C1)O)O)C(=O)NCCCCC(C(=O)O)NC(=O)C2=C(C(=CC=C2)O)O

> <PUBCHEM_OPENEYE_ISO_SMILES>
C1=CC(=C(C(=C1)O)O)C(=O)NCCCC[C@@H](C(=O)O)NC(=O)C2=C(C(=CC=C2)O)O

> <PUBCHEM_CACTVS_TPSA>
176

> <PUBCHEM_MONOISOTOPIC_WEIGHT>
418.137616

> <PUBCHEM_TOTAL_CHARGE>
0

> <PUBCHEM_HEAVY_ATOM_COUNT>
30

> <PUBCHEM_ATOM_DEF_STEREO_COUNT>
1

> <PUBCHEM_ATOM_UDEF_STEREO_COUNT>
0

> <PUBCHEM_BOND_DEF_STEREO_COUNT>
0

> <PUBCHEM_BOND_UDEF_STEREO_COUNT>
0

> <PUBCHEM_ISOTOPIC_ATOM_COUNT>
0

> <PUBCHEM_COMPONENT_COUNT>
1

> <PUBCHEM_CACTVS_TAUTO_COUNT>
513

> <PUBCHEM_COORDINATE_TYPE>
1
5
255

> <PUBCHEM_BONDANNOTATIONS>
19  21  8
19  22  8
20  23  8
20  24  8
21  25  8
22  26  8
23  28  8
24  29  8
25  27  8
26  27  8
28  30  8
29  30  8
13  9  5

$$$$

