47499
  -OEChem-07051212532D

 56 59  0     1  0  0  0  0  0999 V2000
    4.4487    1.3624    0.0000 S   0  0  0  0  0  0  0  0  0  0  0  0
    7.0468   -0.1376    0.0000 O   0  0  0  0  0  0  0  0  0  0  0  0
    8.9190   -0.6418    0.0000 O   0  0  0  0  0  0  0  0  0  0  0  0
    9.6267    2.0751    0.0000 O   0  0  0  0  0  0  0  0  0  0  0  0
    6.1808    3.3624    0.0000 O   0  0  0  0  0  0  0  0  0  0  0  0
    9.9175   -1.3758    0.0000 O   0  0  0  0  0  0  0  0  0  0  0  0
    7.9128    3.3624    0.0000 O   0  0  0  0  0  0  0  0  0  0  0  0
   12.9211    0.3500    0.0000 O   0  0  0  0  0  0  0  0  0  0  0  0
   11.4229    1.2191    0.0000 O   0  0  0  0  0  0  0  0  0  0  0  0
   13.4122   -3.9811    0.0000 O   0  0  0  0  0  0  0  0  0  0  0  0
    7.9128    1.3624    0.0000 N   0  0  0  0  0  0  0  0  0  0  0  0
    9.9211    0.3562    0.0000 N   0  0  0  0  0  0  0  0  0  0  0  0
    2.6691    1.4557    0.0000 N   0  0  0  0  0  0  0  0  0  0  0  0
    3.4782    2.8569    0.0000 N   0  0  0  0  0  0  0  0  0  0  0  0
    2.0000    2.1988    0.0000 N   0  0  0  0  0  0  0  0  0  0  0  0
    2.5000    3.0648    0.0000 N   0  0  0  0  0  0  0  0  0  0  0  0
    8.9211    0.3582    0.0000 C   0  0  2  0  0  0  0  0  0  0  0  0
    7.9128    0.3624    0.0000 C   0  0  1  0  0  0  0  0  0  0  0  0
    8.9211    1.3665    0.0000 C   0  0  0  0  0  0  0  0  0  0  0  0
    7.0468    1.8624    0.0000 C   0  0  0  0  0  0  0  0  0  0  0  0
    6.1808    1.3624    0.0000 C   0  0  0  0  0  0  0  0  0  0  0  0
    6.1808    0.3624    0.0000 C   0  0  0  0  0  0  0  0  0  0  0  0
   10.4193   -0.5109    0.0000 C   0  0  0  0  0  0  0  0  0  0  0  0
    5.3147    1.8624    0.0000 C   0  0  0  0  0  0  0  0  0  0  0  0
    7.0468    2.8624    0.0000 C   0  0  0  0  0  0  0  0  0  0  0  0
    8.0520   -1.1400    0.0000 C   0  0  0  0  0  0  0  0  0  0  0  0
   11.4193   -0.5129    0.0000 C   0  0  3  0  0  0  0  0  0  0  0  0
   11.9175   -1.3800    0.0000 C   0  0  0  0  0  0  0  0  0  0  0  0
   11.9211    0.3521    0.0000 C   0  0  0  0  0  0  0  0  0  0  0  0
   11.4157   -2.2450    0.0000 C   0  0  0  0  0  0  0  0  0  0  0  0
   12.9175   -1.3820    0.0000 C   0  0  0  0  0  0  0  0  0  0  0  0
    3.5827    1.8624    0.0000 C   0  0  0  0  0  0  0  0  0  0  0  0
   11.9140   -3.1120    0.0000 C   0  0  0  0  0  0  0  0  0  0  0  0
   13.4157   -2.2491    0.0000 C   0  0  0  0  0  0  0  0  0  0  0  0
   12.9140   -3.1141    0.0000 C   0  0  0  0  0  0  0  0  0  0  0  0
    2.4612    0.4775    0.0000 C   0  0  0  0  0  0  0  0  0  0  0  0
    8.1311   -0.4591    0.0000 H   0  0  0  0  0  0  0  0  0  0  0  0
   10.2322    0.8925    0.0000 H   0  0  0  0  0  0  0  0  0  0  0  0
    5.5702    0.4701    0.0000 H   0  0  0  0  0  0  0  0  0  0  0  0
    5.9687   -0.2202    0.0000 H   0  0  0  0  0  0  0  0  0  0  0  0
    5.7133    2.3373    0.0000 H   0  0  0  0  0  0  0  0  0  0  0  0
    4.9162    2.3373    0.0000 H   0  0  0  0  0  0  0  0  0  0  0  0
   10.9928   -1.2482    0.0000 H   0  0  0  0  0  0  0  0  0  0  0  0
    7.7431   -0.6024    0.0000 H   0  0  0  0  0  0  0  0  0  0  0  0
    7.5144   -1.4489    0.0000 H   0  0  0  0  0  0  0  0  0  0  0  0
    8.3609   -1.6775    0.0000 H   0  0  0  0  0  0  0  0  0  0  0  0
    6.1808    3.9824    0.0000 H   0  0  0  0  0  0  0  0  0  0  0  0
   10.7957   -2.2437    0.0000 H   0  0  0  0  0  0  0  0  0  0  0  0
   13.2286   -0.8457    0.0000 H   0  0  0  0  0  0  0  0  0  0  0  0
   11.6029   -3.6483    0.0000 H   0  0  0  0  0  0  0  0  0  0  0  0
   14.0357   -2.2503    0.0000 H   0  0  0  0  0  0  0  0  0  0  0  0
   13.2322    0.8863    0.0000 H   0  0  0  0  0  0  0  0  0  0  0  0
    1.8548    0.6064    0.0000 H   0  0  0  0  0  0  0  0  0  0  0  0
    2.3323   -0.1289    0.0000 H   0  0  0  0  0  0  0  0  0  0  0  0
    3.0677    0.3486    0.0000 H   0  0  0  0  0  0  0  0  0  0  0  0
   14.0322   -3.9824    0.0000 H   0  0  0  0  0  0  0  0  0  0  0  0
  1 24  1  0  0  0  0
  1 32  1  0  0  0  0
  2 18  1  0  0  0  0
  2 22  1  0  0  0  0
 17  3  1  6  0  0  0
  3 26  1  0  0  0  0
  4 19  2  0  0  0  0
  5 25  1  0  0  0  0
  5 47  1  0  0  0  0
  6 23  2  0  0  0  0
  7 25  2  0  0  0  0
  8 29  1  0  0  0  0
  8 52  1  0  0  0  0
  9 29  2  0  0  0  0
 10 35  1  0  0  0  0
 10 56  1  0  0  0  0
 11 18  1  0  0  0  0
 11 19  1  0  0  0  0
 11 20  1  0  0  0  0
 12 17  1  0  0  0  0
 12 23  1  0  0  0  0
 12 38  1  0  0  0  0
 13 15  1  0  0  0  0
 13 32  1  0  0  0  0
 13 36  1  0  0  0  0
 14 16  1  0  0  0  0
 14 32  2  0  0  0  0
 15 16  2  0  0  0  0
 17 18  1  0  0  0  0
 17 19  1  0  0  0  0
 18 37  1  6  0  0  0
 20 21  2  0  0  0  0
 20 25  1  0  0  0  0
 21 22  1  0  0  0  0
 21 24  1  0  0  0  0
 22 39  1  0  0  0  0
 22 40  1  0  0  0  0
 23 27  1  0  0  0  0
 24 41  1  0  0  0  0
 24 42  1  0  0  0  0
 26 44  1  0  0  0  0
 26 45  1  0  0  0  0
 26 46  1  0  0  0  0
 27 28  1  0  0  0  0
 27 29  1  0  0  0  0
 27 43  1  0  0  0  0
 28 30  2  0  0  0  0
 28 31  1  0  0  0  0
 30 33  1  0  0  0  0
 30 48  1  0  0  0  0
 31 34  2  0  0  0  0
 31 49  1  0  0  0  0
 33 35  2  0  0  0  0
 33 50  1  0  0  0  0
 34 35  1  0  0  0  0
 34 51  1  0  0  0  0
 36 53  1  0  0  0  0
 36 54  1  0  0  0  0
 36 55  1  0  0  0  0
M  END
> <PUBCHEM_COMPOUND_CID>
47499

> <PUBCHEM_COMPOUND_CANONICALIZED>
1

> <PUBCHEM_CACTVS_COMPLEXITY>
958

> <PUBCHEM_CACTVS_HBOND_ACCEPTOR>
13

> <PUBCHEM_CACTVS_HBOND_DONOR>
4

> <PUBCHEM_CACTVS_ROTATABLE_BOND>
9

> <PUBCHEM_CACTVS_SUBSKEYS>
AAADceB7vABAAAAAAAAAAAAAAABYAWAAAAAwQAAAAAAQAAABwAAAHgQYCAAADQzl2AazHofIBgiqAiXSfAICEANgoJANyAHOCMmLZj6qtTefcAAm9hGauQeYyPCOoAAAAAAAAABAAAAAAAAAAAAAAAAAAA==

> <PUBCHEM_IUPAC_OPENEYE_NAME>
(6R,7R)-7-[[2-carboxy-2-(4-hydroxyphenyl)acetyl]amino]-7-methoxy-3-[(1-methyltetrazol-5-yl)sulfanylmethyl]-8-oxo-5-oxa-1-azabicyclo[4.2.0]oct-2-ene-2-carboxylic acid

> <PUBCHEM_IUPAC_CAS_NAME>
(6R,7R)-7-[[2-carboxy-2-(4-hydroxyphenyl)-1-oxoethyl]amino]-7-methoxy-3-[[(1-methyl-5-tetrazolyl)thio]methyl]-8-oxo-5-oxa-1-azabicyclo[4.2.0]oct-2-ene-2-carboxylic acid

> <PUBCHEM_IUPAC_NAME>
(6R,7R)-7-[[2-carboxy-2-(4-hydroxyphenyl)acetyl]amino]-7-methoxy-3-[(1-methyltetrazol-5-yl)sulfanylmethyl]-8-oxo-5-oxa-1-azabicyclo[4.2.0]oct-2-ene-2-carboxylic acid

> <PUBCHEM_IUPAC_SYSTEMATIC_NAME>
(6R,7R)-7-[[2-(4-hydroxyphenyl)-3-oxidanyl-3-oxidanylidene-propanoyl]amino]-7-methoxy-3-[(1-methyl-1,2,3,4-tetrazol-5-yl)sulfanylmethyl]-8-oxidanylidene-5-oxa-1-azabicyclo[4.2.0]oct-2-ene-2-carboxylic acid

> <PUBCHEM_IUPAC_TRADITIONAL_NAME>
(6R,7R)-7-[[2-carboxy-2-(4-hydroxyphenyl)acetyl]amino]-8-keto-7-methoxy-3-[[(1-methyltetrazol-5-yl)thio]methyl]-5-oxa-1-azabicyclo[4.2.0]oct-2-ene-2-carboxylic acid

> <PUBCHEM_IUPAC_INCHI>
InChI=1S/C20H20N6O9S/c1-25-19(22-23-24-25)36-8-10-7-35-18-20(34-2,17(33)26(18)13(10)16(31)32)21-14(28)12(15(29)30)9-3-5-11(27)6-4-9/h3-6,12,18,27H,7-8H2,1-2H3,(H,21,28)(H,29,30)(H,31,32)/t12?,18-,20+/m1/s1

> <PUBCHEM_IUPAC_INCHIKEY>
JWCSIUVGFCSJCK-CAVRMKNVSA-N

> <PUBCHEM_XLOGP3>
-0.6

> <PUBCHEM_EXACT_MASS>
520.101247

> <PUBCHEM_MOLECULAR_FORMULA>
C20H20N6O9S

> <PUBCHEM_MOLECULAR_WEIGHT>
520.4726

> <PUBCHEM_OPENEYE_CAN_SMILES>
CN1C(=NN=N1)SCC2=C(N3C(C(C3=O)(NC(=O)C(C4=CC=C(C=C4)O)C(=O)O)OC)OC2)C(=O)O

> <PUBCHEM_OPENEYE_ISO_SMILES>
CN1C(=NN=N1)SCC2=C(N3[C@@H]([C@@](C3=O)(NC(=O)C(C4=CC=C(C=C4)O)C(=O)O)OC)OC2)C(=O)O

> <PUBCHEM_CACTVS_TPSA>
232

> <PUBCHEM_MONOISOTOPIC_WEIGHT>
520.101247

> <PUBCHEM_TOTAL_CHARGE>
0

> <PUBCHEM_HEAVY_ATOM_COUNT>
36

> <PUBCHEM_ATOM_DEF_STEREO_COUNT>
2

> <PUBCHEM_ATOM_UDEF_STEREO_COUNT>
1

> <PUBCHEM_BOND_DEF_STEREO_COUNT>
0

> <PUBCHEM_BOND_UDEF_STEREO_COUNT>
0

> <PUBCHEM_ISOTOPIC_ATOM_COUNT>
0

> <PUBCHEM_COMPONENT_COUNT>
1

> <PUBCHEM_CACTVS_TAUTO_COUNT>
4

> <PUBCHEM_COORDINATE_TYPE>
1
5
255

> <PUBCHEM_BONDANNOTATIONS>
13  15  8
13  32  8
14  16  8
14  32  8
15  16  8
18  37  6
27  43  3
28  30  8
28  31  8
17  3  6
30  33  8
31  34  8
33  35  8
34  35  8

$$$$

