14017
  -OEChem-06241222412D

 12 11  0     0  0  0  0  0  0999 V2000
    3.4030   -0.2685    0.0000 P   0  0  0  0  0  0  0  0  0  0  0  0
    2.5369   -0.7685    0.0000 O   0  0  0  0  0  0  0  0  0  0  0  0
    2.9030    0.5976    0.0000 O   0  0  0  0  0  0  0  0  0  0  0  0
    3.9030   -1.1345    0.0000 O   0  0  0  0  0  0  0  0  0  0  0  0
    5.1350   -0.2685    0.0000 N   0  0  0  0  0  0  0  0  0  0  0  0
    4.2690    0.2315    0.0000 C   0  0  0  0  0  0  0  0  0  0  0  0
    4.6675    0.7065    0.0000 H   0  0  0  0  0  0  0  0  0  0  0  0
    3.8705    0.7065    0.0000 H   0  0  0  0  0  0  0  0  0  0  0  0
    5.6720    0.0415    0.0000 H   0  0  0  0  0  0  0  0  0  0  0  0
    5.1350   -0.8885    0.0000 H   0  0  0  0  0  0  0  0  0  0  0  0
    2.0000   -0.4585    0.0000 H   0  0  0  0  0  0  0  0  0  0  0  0
    3.2130    1.1345    0.0000 H   0  0  0  0  0  0  0  0  0  0  0  0
  1  2  1  0  0  0  0
  1  3  1  0  0  0  0
  1  4  2  0  0  0  0
  1  6  1  0  0  0  0
  2 11  1  0  0  0  0
  3 12  1  0  0  0  0
  5  6  1  0  0  0  0
  5  9  1  0  0  0  0
  5 10  1  0  0  0  0
  6  7  1  0  0  0  0
  6  8  1  0  0  0  0
M  END
> <PUBCHEM_COMPOUND_CID>
14017

> <PUBCHEM_COMPOUND_CANONICALIZED>
1

> <PUBCHEM_CACTVS_COMPLEXITY>
74.9

> <PUBCHEM_CACTVS_HBOND_ACCEPTOR>
4

> <PUBCHEM_CACTVS_HBOND_DONOR>
3

> <PUBCHEM_CACTVS_ROTATABLE_BOND>
1

> <PUBCHEM_CACTVS_SUBSKEYS>
AAADcYACMAIAAAAAAAAAAAAAAAAAAAAAAAAAAAAAAAAAAAAAAAAAFAgQCCAAAAAAAAQAAABAABAAQAAAAIAAAAAAAAAAAIAAAAAAAAAAAAAAAAAAAAAAAAAAAAAAAAAAAAAAAAAAAAAAAAAAAAAAAAAAAA==

> <PUBCHEM_IUPAC_OPENEYE_NAME>
aminomethylphosphonic acid

> <PUBCHEM_IUPAC_CAS_NAME>
aminomethylphosphonic acid

> <PUBCHEM_IUPAC_NAME>
aminomethylphosphonic acid

> <PUBCHEM_IUPAC_SYSTEMATIC_NAME>
aminomethylphosphonic acid

> <PUBCHEM_IUPAC_TRADITIONAL_NAME>
aminomethylphosphonic acid

> <PUBCHEM_IUPAC_INCHI>
InChI=1S/CH6NO3P/c2-1-6(3,4)5/h1-2H2,(H2,3,4,5)

> <PUBCHEM_IUPAC_INCHIKEY>
MGRVRXRGTBOSHW-UHFFFAOYSA-N

> <PUBCHEM_XLOGP3_AA>
-4.7

> <PUBCHEM_EXACT_MASS>
111.00853

> <PUBCHEM_MOLECULAR_FORMULA>
CH6NO3P

> <PUBCHEM_MOLECULAR_WEIGHT>
111.037002

> <PUBCHEM_OPENEYE_CAN_SMILES>
C(N)P(=O)(O)O

> <PUBCHEM_OPENEYE_ISO_SMILES>
C(N)P(=O)(O)O

> <PUBCHEM_CACTVS_TPSA>
83.6

> <PUBCHEM_MONOISOTOPIC_WEIGHT>
111.00853

> <PUBCHEM_TOTAL_CHARGE>
0

> <PUBCHEM_HEAVY_ATOM_COUNT>
6

> <PUBCHEM_ATOM_DEF_STEREO_COUNT>
0

> <PUBCHEM_ATOM_UDEF_STEREO_COUNT>
0

> <PUBCHEM_BOND_DEF_STEREO_COUNT>
0

> <PUBCHEM_BOND_UDEF_STEREO_COUNT>
0

> <PUBCHEM_ISOTOPIC_ATOM_COUNT>
0

> <PUBCHEM_COMPONENT_COUNT>
1

> <PUBCHEM_CACTVS_TAUTO_COUNT>
1

> <PUBCHEM_COORDINATE_TYPE>
1
5
255

$$$$

