   Color/Form

     * Orange red needles
     * Red-orange needles from ethyl alcohol
     * Orange-red to fine yellow crystals in ethanol

   from [1]HSDB

   Boiling Point
        Sublimes
   from [2]HSDB

   Melting Point
        193.8 deg C
   from [3]HSDB

   Octanol/Water Partition Coefficient
        log Kow = 3.52
   from [4]HSDB

   Solubilities

     * Soluble in ethanol, ethyl ether, and benzene.
     * Soluble in oxygenated solvents
     * Slightly soluble in liquid NH3
     * In water, 8.5 mg/L @ 25 deg C

   from [5]HSDB

   Spectral Properties

     * MASS: 90152 (NIST/EPA/MSDC Mass Spectral Database, 1990 version);
       183 (Aldermaston, Eight Peak Index of Mass Spectra, U.K.)
     * IR: 11414 (Sadtler Research Laboratories spectral collection)
     * UV: 4-484 (Phillip et al., Organic Electronic Spectral Data. John
       Wiley & Sons, New York)

   from [6]HSDB

   Vapor Pressure
        2.09X10-7 mm Hg @ 25 deg C
   from [7]HSDB

   Other Chemical/Physical Properties

     * Henry's Law constant = 7.2X10-9 atm-cu m/mole @ 25 deg C
       /Estimated/
     * Hydroxyl radical reaction rate constant = 1.4X10-11 cu
       cm/molecul-sec @ 25 deg C /Estimated/

   from [8]HSDB

   Computed Properties
   Molecular Weight                  224.21152 [g/mol]
   Molecular Formula                 C[14]H[8]O[3]
   XLogP3                            3.5
   H-Bond Donor                      1
   H-Bond Acceptor                   3
   Rotatable Bond Count              0
   Tautomer Count                    5
   Exact Mass                        224.047344
   MonoIsotopic Mass                 224.047344
   Topological Polar Surface Area    54.4
   Heavy Atom Count                  17
   Formal Charge                     0
   Complexity                        349
   Isotope Atom Count                0
   Defined Atom Stereocenter Count   0
   Undefined Atom Stereocenter Count 0
   Defined Bond Stereocenter Count   0
   Undefined Bond Stereocenter Count 0
   Covalently-Bonded Unit Count      1
   Feature 3D Acceptor Count         2
   Feature 3D Donor Count            1
   Feature 3D Ring Count             3
   Effective Rotor Count             0
   Conformer Sampling RMSD           0.4
   CID Conformer Count               [9]1

References

   1. http://toxnet.nlm.nih.gov/cgi-bin/sis/search/r?dbs+hsdb:@term+@rn+@rel+129-43-1
   2. http://toxnet.nlm.nih.gov/cgi-bin/sis/search/r?dbs+hsdb:@term+@rn+@rel+129-43-1
   3. http://toxnet.nlm.nih.gov/cgi-bin/sis/search/r?dbs+hsdb:@term+@rn+@rel+129-43-1
   4. http://toxnet.nlm.nih.gov/cgi-bin/sis/search/r?dbs+hsdb:@term+@rn+@rel+129-43-1
   5. http://toxnet.nlm.nih.gov/cgi-bin/sis/search/r?dbs+hsdb:@term+@rn+@rel+129-43-1
   6. http://toxnet.nlm.nih.gov/cgi-bin/sis/search/r?dbs+hsdb:@term+@rn+@rel+129-43-1
   7. http://toxnet.nlm.nih.gov/cgi-bin/sis/search/r?dbs+hsdb:@term+@rn+@rel+129-43-1
   8. http://toxnet.nlm.nih.gov/cgi-bin/sis/search/r?dbs+hsdb:@term+@rn+@rel+129-43-1
   9. http://pubchem.ncbi.nlm.nih.gov/vw3d/vw3d.cgi?cid=8512
