21669911
  -OEChem-07051213022D

 93 94  0     1  0  0  0  0  0999 V2000
    7.1962    1.0000    0.0000 O   0  0  0  0  0  0  0  0  0  0  0  0
    8.9282    1.0000    0.0000 O   0  0  0  0  0  0  0  0  0  0  0  0
    7.1962    3.0000    0.0000 O   0  0  0  0  0  0  0  0  0  0  0  0
   10.6603    3.0000    0.0000 O   0  0  0  0  0  0  0  0  0  0  0  0
    5.4641    1.0000    0.0000 O   0  0  0  0  0  0  0  0  0  0  0  0
    3.7320   -2.0000    0.0000 O   0  0  0  0  0  0  0  0  0  0  0  0
    9.7942   -3.5000    0.0000 O   0  0  0  0  0  0  0  0  0  0  0  0
    5.5981   -1.5000    0.0000 O   0  0  0  0  0  0  0  0  0  0  0  0
    8.9282    4.0000    0.0000 N   0  0  0  0  0  0  0  0  0  0  0  0
    7.1962    0.0000    0.0000 C   0  0  1  0  0  0  0  0  0  0  0  0
    8.0622   -0.5000    0.0000 C   0  0  2  0  0  0  0  0  0  0  0  0
    6.3301   -0.5000    0.0000 C   0  0  2  0  0  0  0  0  0  0  0  0
    8.9282    3.0000    0.0000 C   0  0  2  0  0  0  0  0  0  0  0  0
    8.0622    1.5000    0.0000 C   0  0  2  0  0  0  0  0  0  0  0  0
    8.0622    2.5000    0.0000 C   0  0  2  0  0  0  0  0  0  0  0  0
    9.7942    2.5000    0.0000 C   0  0  1  0  0  0  0  0  0  0  0  0
    8.0622   -1.5000    0.0000 C   0  0  0  0  0  0  0  0  0  0  0  0
    9.7942    1.5000    0.0000 C   0  0  1  0  0  0  0  0  0  0  0  0
    8.9282    0.0000    0.0000 C   0  0  0  0  0  0  0  0  0  0  0  0
    5.4641    0.0000    0.0000 C   0  0  1  0  0  0  0  0  0  0  0  0
    8.9282   -2.0000    0.0000 C   0  0  1  0  0  0  0  0  0  0  0  0
    6.3301   -1.5000    0.0000 C   0  0  0  0  0  0  0  0  0  0  0  0
    4.5981   -0.5000    0.0000 C   0  0  0  0  0  0  0  0  0  0  0  0
   10.6603    1.0000    0.0000 C   0  0  0  0  0  0  0  0  0  0  0  0
    9.7942   -0.5000    0.0000 C   0  0  0  0  0  0  0  0  0  0  0  0
    9.7942   -1.5000    0.0000 C   0  0  0  0  0  0  0  0  0  0  0  0
    9.7942    4.5000    0.0000 C   0  0  0  0  0  0  0  0  0  0  0  0
    8.0622    4.5000    0.0000 C   0  0  0  0  0  0  0  0  0  0  0  0
    8.9282   -3.0000    0.0000 C   0  0  0  0  0  0  0  0  0  0  0  0
    4.5981   -1.5000    0.0000 C   0  0  0  0  0  0  0  0  0  0  0  0
    8.0622   -3.5000    0.0000 C   0  0  0  0  0  0  0  0  0  0  0  0
    3.7320   -3.0000    0.0000 C   0  0  1  0  0  0  0  0  0  0  0  0
    4.5981   -3.5000    0.0000 C   0  0  2  0  0  0  0  0  0  0  0  0
    2.8660   -3.5000    0.0000 C   0  0  0  0  0  0  0  0  0  0  0  0
    7.1962   -3.0000    0.0000 C   0  0  0  0  0  0  0  0  0  0  0  0
    5.4641   -3.0000    0.0000 C   0  0  0  0  0  0  0  0  0  0  0  0
    6.3301   -3.5000    0.0000 C   0  0  0  0  0  0  0  0  0  0  0  0
    4.5981   -4.5000    0.0000 C   0  0  0  0  0  0  0  0  0  0  0  0
    2.0000   -3.0000    0.0000 C   0  0  0  0  0  0  0  0  0  0  0  0
    6.3301   -4.5000    0.0000 C   0  0  0  0  0  0  0  0  0  0  0  0
    6.6592    0.3100    0.0000 H   0  0  0  0  0  0  0  0  0  0  0  0
    8.0622    0.1200    0.0000 H   0  0  0  0  0  0  0  0  0  0  0  0
    6.8671   -0.8100    0.0000 H   0  0  0  0  0  0  0  0  0  0  0  0
    9.4651    3.3100    0.0000 H   0  0  0  0  0  0  0  0  0  0  0  0
    8.0622    0.8800    0.0000 H   0  0  0  0  0  0  0  0  0  0  0  0
    8.0622    3.1200    0.0000 H   0  0  0  0  0  0  0  0  0  0  0  0
    9.7942    3.1200    0.0000 H   0  0  0  0  0  0  0  0  0  0  0  0
    7.4516   -1.3923    0.0000 H   0  0  0  0  0  0  0  0  0  0  0  0
    7.8501   -2.0826    0.0000 H   0  0  0  0  0  0  0  0  0  0  0  0
    9.7942    0.8800    0.0000 H   0  0  0  0  0  0  0  0  0  0  0  0
    9.3267    0.4749    0.0000 H   0  0  0  0  0  0  0  0  0  0  0  0
    8.5297    0.4749    0.0000 H   0  0  0  0  0  0  0  0  0  0  0  0
    6.0010    0.3100    0.0000 H   0  0  0  0  0  0  0  0  0  0  0  0
    9.4651   -2.3100    0.0000 H   0  0  0  0  0  0  0  0  0  0  0  0
    5.7101   -1.5000    0.0000 H   0  0  0  0  0  0  0  0  0  0  0  0
    6.3301   -2.1200    0.0000 H   0  0  0  0  0  0  0  0  0  0  0  0
    6.9501   -1.5000    0.0000 H   0  0  0  0  0  0  0  0  0  0  0  0
    4.3860    0.0826    0.0000 H   0  0  0  0  0  0  0  0  0  0  0  0
    3.9875   -0.6077    0.0000 H   0  0  0  0  0  0  0  0  0  0  0  0
   10.3503    0.4631    0.0000 H   0  0  0  0  0  0  0  0  0  0  0  0
   11.1972    0.6900    0.0000 H   0  0  0  0  0  0  0  0  0  0  0  0
   10.9703    1.5369    0.0000 H   0  0  0  0  0  0  0  0  0  0  0  0
    9.4842   -1.0369    0.0000 H   0  0  0  0  0  0  0  0  0  0  0  0
   10.3312   -0.8100    0.0000 H   0  0  0  0  0  0  0  0  0  0  0  0
   10.1042    0.0369    0.0000 H   0  0  0  0  0  0  0  0  0  0  0  0
    6.6592    2.6900    0.0000 H   0  0  0  0  0  0  0  0  0  0  0  0
   11.1972    2.6900    0.0000 H   0  0  0  0  0  0  0  0  0  0  0  0
   10.1042   -2.0369    0.0000 H   0  0  0  0  0  0  0  0  0  0  0  0
   10.3312   -1.1900    0.0000 H   0  0  0  0  0  0  0  0  0  0  0  0
    9.4842   -0.9631    0.0000 H   0  0  0  0  0  0  0  0  0  0  0  0
    8.3722    5.0369    0.0000 H   0  0  0  0  0  0  0  0  0  0  0  0
    7.5252    4.8100    0.0000 H   0  0  0  0  0  0  0  0  0  0  0  0
    7.7522    3.9631    0.0000 H   0  0  0  0  0  0  0  0  0  0  0  0
   10.1042    3.9631    0.0000 H   0  0  0  0  0  0  0  0  0  0  0  0
   10.3312    4.8100    0.0000 H   0  0  0  0  0  0  0  0  0  0  0  0
    9.4842    5.0369    0.0000 H   0  0  0  0  0  0  0  0  0  0  0  0
    4.9272    1.3100    0.0000 H   0  0  0  0  0  0  0  0  0  0  0  0
    8.0622   -4.1200    0.0000 H   0  0  0  0  0  0  0  0  0  0  0  0
    3.1951   -2.6900    0.0000 H   0  0  0  0  0  0  0  0  0  0  0  0
    5.1350   -3.8100    0.0000 H   0  0  0  0  0  0  0  0  0  0  0  0
    2.4675   -3.9750    0.0000 H   0  0  0  0  0  0  0  0  0  0  0  0
    3.2646   -3.9750    0.0000 H   0  0  0  0  0  0  0  0  0  0  0  0
    7.1962   -2.3800    0.0000 H   0  0  0  0  0  0  0  0  0  0  0  0
    5.4641   -2.3800    0.0000 H   0  0  0  0  0  0  0  0  0  0  0  0
    3.9781   -4.5000    0.0000 H   0  0  0  0  0  0  0  0  0  0  0  0
    4.5981   -5.1200    0.0000 H   0  0  0  0  0  0  0  0  0  0  0  0
    5.2181   -4.5000    0.0000 H   0  0  0  0  0  0  0  0  0  0  0  0
    2.3100   -2.4631    0.0000 H   0  0  0  0  0  0  0  0  0  0  0  0
    1.4631   -2.6900    0.0000 H   0  0  0  0  0  0  0  0  0  0  0  0
    1.6900   -3.5369    0.0000 H   0  0  0  0  0  0  0  0  0  0  0  0
    5.7101   -4.5000    0.0000 H   0  0  0  0  0  0  0  0  0  0  0  0
    6.3301   -5.1200    0.0000 H   0  0  0  0  0  0  0  0  0  0  0  0
    6.9501   -4.5000    0.0000 H   0  0  0  0  0  0  0  0  0  0  0  0
 10  1  1  1  0  0  0
 14  1  1  1  0  0  0
  2 14  1  0  0  0  0
  2 18  1  0  0  0  0
 15  3  1  6  0  0  0
  3 66  1  0  0  0  0
 16  4  1  6  0  0  0
  4 67  1  0  0  0  0
 20  5  1  1  0  0  0
  5 77  1  0  0  0  0
  6 30  1  0  0  0  0
  6 32  1  0  0  0  0
  7 29  2  0  0  0  0
  8 30  2  0  0  0  0
 13  9  1  1  0  0  0
  9 27  1  0  0  0  0
  9 28  1  0  0  0  0
 10 11  1  0  0  0  0
 10 12  1  0  0  0  0
 10 41  1  0  0  0  0
 11 17  1  0  0  0  0
 11 19  1  1  0  0  0
 11 42  1  0  0  0  0
 12 20  1  0  0  0  0
 12 22  1  1  0  0  0
 12 43  1  0  0  0  0
 13 15  1  0  0  0  0
 13 16  1  0  0  0  0
 13 44  1  0  0  0  0
 14 15  1  0  0  0  0
 14 45  1  0  0  0  0
 15 46  1  0  0  0  0
 16 18  1  0  0  0  0
 16 47  1  0  0  0  0
 17 21  1  0  0  0  0
 17 48  1  0  0  0  0
 17 49  1  0  0  0  0
 18 24  1  1  0  0  0
 18 50  1  0  0  0  0
 19 25  1  0  0  0  0
 19 51  1  0  0  0  0
 19 52  1  0  0  0  0
 20 23  1  0  0  0  0
 20 53  1  0  0  0  0
 21 26  1  1  0  0  0
 21 29  1  0  0  0  0
 21 54  1  0  0  0  0
 22 55  1  0  0  0  0
 22 56  1  0  0  0  0
 22 57  1  0  0  0  0
 23 30  1  0  0  0  0
 23 58  1  0  0  0  0
 23 59  1  0  0  0  0
 24 60  1  0  0  0  0
 24 61  1  0  0  0  0
 24 62  1  0  0  0  0
 25 63  1  0  0  0  0
 25 64  1  0  0  0  0
 25 65  1  0  0  0  0
 26 68  1  0  0  0  0
 26 69  1  0  0  0  0
 26 70  1  0  0  0  0
 27 74  1  0  0  0  0
 27 75  1  0  0  0  0
 27 76  1  0  0  0  0
 28 71  1  0  0  0  0
 28 72  1  0  0  0  0
 28 73  1  0  0  0  0
 29 31  1  0  0  0  0
 31 35  2  0  0  0  0
 31 78  1  0  0  0  0
 32 33  1  0  0  0  0
 32 34  1  1  0  0  0
 32 79  1  0  0  0  0
 33 36  1  0  0  0  0
 33 38  1  6  0  0  0
 33 80  1  0  0  0  0
 34 39  1  0  0  0  0
 34 81  1  0  0  0  0
 34 82  1  0  0  0  0
 35 37  1  0  0  0  0
 35 83  1  0  0  0  0
 36 37  2  0  0  0  0
 36 84  1  0  0  0  0
 37 40  1  0  0  0  0
 38 85  1  0  0  0  0
 38 86  1  0  0  0  0
 38 87  1  0  0  0  0
 39 88  1  0  0  0  0
 39 89  1  0  0  0  0
 39 90  1  0  0  0  0
 40 91  1  0  0  0  0
 40 92  1  0  0  0  0
 40 93  1  0  0  0  0
M  END
> <PUBCHEM_COMPOUND_CID>
21669911

> <PUBCHEM_COMPOUND_CANONICALIZED>
1

> <PUBCHEM_CACTVS_COMPLEXITY>
889

> <PUBCHEM_CACTVS_HBOND_ACCEPTOR>
9

> <PUBCHEM_CACTVS_HBOND_DONOR>
3

> <PUBCHEM_CACTVS_ROTATABLE_BOND>
5

> <PUBCHEM_CACTVS_SUBSKEYS>
AAADcfB6PAAAAAAAAAAAAAAAAAAAAAAAAAAkAAAAAAAAAAAAAAAAHgAACAAADTzxgAcCCAMABgCIAqDSCAAAAAAgAAAICAEIAEgbEBYAgQAmQAAH4AAfgYPI7OzOAAAAAAAAAAAAAAAAAAAAAAAAAAAAAA==

> <PUBCHEM_IUPAC_OPENEYE_NAME>
(4R,5S,6S,7S,9R,11E,13E,15S,16R)-6-[(2R,3R,4S,5S,6R)-4-(dimethylamino)-3,5-dihydroxy-6-methyl-tetrahydropyran-2-yl]oxy-7,16-diethyl-4-hydroxy-5,9,13,15-tetramethyl-1-oxacyclohexadeca-11,13-diene-2,10-dione

> <PUBCHEM_IUPAC_CAS_NAME>
(4R,5S,6S,7S,9R,11E,13E,15S,16R)-6-[[(2R,3R,4S,5S,6R)-4-(dimethylamino)-3,5-dihydroxy-6-methyl-2-oxanyl]oxy]-7,16-diethyl-4-hydroxy-5,9,13,15-tetramethyl-1-oxacyclohexadeca-11,13-diene-2,10-dione

> <PUBCHEM_IUPAC_NAME>
(4R,5S,6S,7S,9R,11E,13E,15S,16R)-6-[(2R,3R,4S,5S,6R)-4-(dimethylamino)-3,5-dihydroxy-6-methyloxan-2-yl]oxy-7,16-diethyl-4-hydroxy-5,9,13,15-tetramethyl-1-oxacyclohexadeca-11,13-diene-2,10-dione

> <PUBCHEM_IUPAC_SYSTEMATIC_NAME>
(4R,5S,6S,7S,9R,11E,13E,15S,16R)-6-[(2R,3R,4S,5S,6R)-4-(dimethylamino)-6-methyl-3,5-bis(oxidanyl)oxan-2-yl]oxy-7,16-diethyl-5,9,13,15-tetramethyl-4-oxidanyl-1-oxacyclohexadeca-11,13-diene-2,10-dione

> <PUBCHEM_IUPAC_TRADITIONAL_NAME>
(4R,5S,6S,7S,9R,11E,13E,15S,16R)-6-[(2R,3R,4S,5S,6R)-4-(dimethylamino)-3,5-dihydroxy-6-methyl-tetrahydropyran-2-yl]oxy-7,16-diethyl-4-hydroxy-5,9,13,15-tetramethyl-1-oxacyclohexadeca-11,13-diene-2,10-quinone

> <PUBCHEM_IUPAC_INCHI>
InChI=1S/C31H53NO8/c1-10-22-15-18(4)23(33)13-12-17(3)14-19(5)25(11-2)39-26(35)16-24(34)20(6)30(22)40-31-29(37)27(32(8)9)28(36)21(7)38-31/h12-14,18-22,24-25,27-31,34,36-37H,10-11,15-16H2,1-9H3/b13-12+,17-14+/t18-,19+,20+,21-,22+,24-,25-,27+,28-,29-,30-,31+/m1/s1

> <PUBCHEM_IUPAC_INCHIKEY>
BMKVJAXXBOWJEE-BPFVPZITSA-N

> <PUBCHEM_XLOGP3_AA>
3.6

> <PUBCHEM_EXACT_MASS>
567.377118

> <PUBCHEM_MOLECULAR_FORMULA>
C31H53NO8

> <PUBCHEM_MOLECULAR_WEIGHT>
567.75442

> <PUBCHEM_OPENEYE_CAN_SMILES>
CCC1CC(C(=O)C=CC(=CC(C(OC(=O)CC(C(C1OC2C(C(C(C(O2)C)O)N(C)C)O)C)O)CC)C)C)C

> <PUBCHEM_OPENEYE_ISO_SMILES>
CC[C@H]1C[C@H](C(=O)/C=C/C(=C/[C@@H]([C@H](OC(=O)C[C@H]([C@@H]([C@H]1O[C@H]2[C@@H]([C@H]([C@@H]([C@H](O2)C)O)N(C)C)O)C)O)CC)C)/C)C

> <PUBCHEM_CACTVS_TPSA>
126

> <PUBCHEM_MONOISOTOPIC_WEIGHT>
567.377118

> <PUBCHEM_TOTAL_CHARGE>
0

> <PUBCHEM_HEAVY_ATOM_COUNT>
40

> <PUBCHEM_ATOM_DEF_STEREO_COUNT>
12

> <PUBCHEM_ATOM_UDEF_STEREO_COUNT>
0

> <PUBCHEM_BOND_DEF_STEREO_COUNT>
2

> <PUBCHEM_BOND_UDEF_STEREO_COUNT>
0

> <PUBCHEM_ISOTOPIC_ATOM_COUNT>
0

> <PUBCHEM_COMPONENT_COUNT>
1

> <PUBCHEM_CACTVS_TAUTO_COUNT>
14

> <PUBCHEM_COORDINATE_TYPE>
1
5
255

> <PUBCHEM_BONDANNOTATIONS>
10  1  5
14  1  5
11  19  5
12  22  5
18  24  5
21  26  5
15  3  6
32  34  5
33  38  6
16  4  6
20  5  5
13  9  5

$$$$

