442416
  -OEChem-07051212582D

 59 62  0     1  0  0  0  0  0999 V2000
    6.8671    0.2866    0.0000 O   0  0  0  0  0  0  0  0  0  0  0  0
    6.0010   -1.2134    0.0000 O   0  0  0  0  0  0  0  0  0  0  0  0
    5.1350    0.2866    0.0000 O   0  0  0  0  0  0  0  0  0  0  0  0
    8.9900   -3.4687    0.0000 O   0  0  0  0  0  0  0  0  0  0  0  0
    6.8671    2.2866    0.0000 O   0  0  0  0  0  0  0  0  0  0  0  0
    5.1350    3.2866    0.0000 O   0  0  0  0  0  0  0  0  0  0  0  0
    3.4030    2.2866    0.0000 O   0  0  0  0  0  0  0  0  0  0  0  0
    9.9685    0.2480    0.0000 O   0  0  0  0  0  0  0  0  0  0  0  0
    2.5369    0.7866    0.0000 O   0  0  0  0  0  0  0  0  0  0  0  0
    9.6113    1.9428    0.0000 O   0  0  0  0  0  0  0  0  0  0  0  0
   14.1932    2.0234    0.0000 O   0  0  0  0  0  0  0  0  0  0  0  0
    7.7331   -1.2134    0.0000 C   0  0  2  0  0  0  0  0  0  0  0  0
    7.7331   -2.2134    0.0000 C   0  0  2  0  0  0  0  0  0  0  0  0
    6.8671   -0.7134    0.0000 C   0  0  2  0  0  0  0  0  0  0  0  0
    8.6793   -2.5182    0.0000 C   0  0  1  0  0  0  0  0  0  0  0  0
    8.6793   -0.9087    0.0000 C   0  0  0  0  0  0  0  0  0  0  0  0
    9.2629   -1.7134    0.0000 C   0  0  0  0  0  0  0  0  0  0  0  0
    6.0010    0.7866    0.0000 C   0  0  2  0  0  0  0  0  0  0  0  0
    6.0010    1.7866    0.0000 C   0  0  1  0  0  0  0  0  0  0  0  0
    6.8671   -2.7134    0.0000 C   0  0  0  0  0  0  0  0  0  0  0  0
    5.1350    2.2866    0.0000 C   0  0  2  0  0  0  0  0  0  0  0  0
    4.2690    1.7866    0.0000 C   0  0  1  0  0  0  0  0  0  0  0  0
    4.2690    0.7866    0.0000 C   0  0  1  0  0  0  0  0  0  0  0  0
    8.9900    0.0418    0.0000 C   0  0  0  0  0  0  0  0  0  0  0  0
    6.0010   -2.2134    0.0000 C   0  0  0  0  0  0  0  0  0  0  0  0
    3.4030    0.2866    0.0000 C   0  0  0  0  0  0  0  0  0  0  0  0
   10.2791    1.1986    0.0000 C   0  0  0  0  0  0  0  0  0  0  0  0
   11.2576    1.4048    0.0000 C   0  0  0  0  0  0  0  0  0  0  0  0
   11.9255    0.6605    0.0000 C   0  0  0  0  0  0  0  0  0  0  0  0
   11.5683    2.3553    0.0000 C   0  0  0  0  0  0  0  0  0  0  0  0
   12.9040    0.8667    0.0000 C   0  0  0  0  0  0  0  0  0  0  0  0
   12.5468    2.5615    0.0000 C   0  0  0  0  0  0  0  0  0  0  0  0
   13.2147    1.8172    0.0000 C   0  0  0  0  0  0  0  0  0  0  0  0
    7.8230   -0.3682    0.0000 H   0  0  0  0  0  0  0  0  0  0  0  0
    7.8230   -3.0587    0.0000 H   0  0  0  0  0  0  0  0  0  0  0  0
    6.3301   -0.4034    0.0000 H   0  0  0  0  0  0  0  0  0  0  0  0
    8.2418   -2.9575    0.0000 H   0  0  0  0  0  0  0  0  0  0  0  0
    9.8829   -1.7134    0.0000 H   0  0  0  0  0  0  0  0  0  0  0  0
    6.5380    1.0966    0.0000 H   0  0  0  0  0  0  0  0  0  0  0  0
    6.5380    1.4766    0.0000 H   0  0  0  0  0  0  0  0  0  0  0  0
    6.8671   -3.3334    0.0000 H   0  0  0  0  0  0  0  0  0  0  0  0
    5.6720    2.5966    0.0000 H   0  0  0  0  0  0  0  0  0  0  0  0
    4.2690    2.4066    0.0000 H   0  0  0  0  0  0  0  0  0  0  0  0
    4.2690    0.1666    0.0000 H   0  0  0  0  0  0  0  0  0  0  0  0
    8.9694    0.6615    0.0000 H   0  0  0  0  0  0  0  0  0  0  0  0
    8.3762    0.1292    0.0000 H   0  0  0  0  0  0  0  0  0  0  0  0
    5.4641   -2.5234    0.0000 H   0  0  0  0  0  0  0  0  0  0  0  0
    9.5966   -3.5966    0.0000 H   0  0  0  0  0  0  0  0  0  0  0  0
    3.0044   -0.1884    0.0000 H   0  0  0  0  0  0  0  0  0  0  0  0
    3.8015   -0.1884    0.0000 H   0  0  0  0  0  0  0  0  0  0  0  0
    6.8671    2.9066    0.0000 H   0  0  0  0  0  0  0  0  0  0  0  0
    4.5981    3.5966    0.0000 H   0  0  0  0  0  0  0  0  0  0  0  0
    3.4030    2.9066    0.0000 H   0  0  0  0  0  0  0  0  0  0  0  0
    2.0000    0.4766    0.0000 H   0  0  0  0  0  0  0  0  0  0  0  0
   11.7329    0.0711    0.0000 H   0  0  0  0  0  0  0  0  0  0  0  0
   11.1542    2.8168    0.0000 H   0  0  0  0  0  0  0  0  0  0  0  0
   13.3181    0.4052    0.0000 H   0  0  0  0  0  0  0  0  0  0  0  0
   12.7394    3.1508    0.0000 H   0  0  0  0  0  0  0  0  0  0  0  0
   14.3858    2.6127    0.0000 H   0  0  0  0  0  0  0  0  0  0  0  0
 14  1  1  1  0  0  0
 18  1  1  6  0  0  0
  2 14  1  0  0  0  0
  2 25  1  0  0  0  0
  3 18  1  0  0  0  0
  3 23  1  0  0  0  0
 15  4  1  1  0  0  0
  4 48  1  0  0  0  0
 19  5  1  1  0  0  0
  5 51  1  0  0  0  0
 21  6  1  6  0  0  0
  6 52  1  0  0  0  0
 22  7  1  1  0  0  0
  7 53  1  0  0  0  0
  8 24  1  0  0  0  0
  8 27  1  0  0  0  0
  9 26  1  0  0  0  0
  9 54  1  0  0  0  0
 10 27  2  0  0  0  0
 11 33  1  0  0  0  0
 11 59  1  0  0  0  0
 12 13  1  0  0  0  0
 12 14  1  0  0  0  0
 12 16  1  0  0  0  0
 12 34  1  1  0  0  0
 13 15  1  0  0  0  0
 13 20  1  0  0  0  0
 13 35  1  1  0  0  0
 14 36  1  0  0  0  0
 15 17  1  0  0  0  0
 15 37  1  0  0  0  0
 16 17  2  0  0  0  0
 16 24  1  0  0  0  0
 17 38  1  0  0  0  0
 18 19  1  0  0  0  0
 18 39  1  0  0  0  0
 19 21  1  0  0  0  0
 19 40  1  0  0  0  0
 20 25  2  0  0  0  0
 20 41  1  0  0  0  0
 21 22  1  0  0  0  0
 21 42  1  0  0  0  0
 22 23  1  0  0  0  0
 22 43  1  0  0  0  0
 23 26  1  6  0  0  0
 23 44  1  0  0  0  0
 24 45  1  0  0  0  0
 24 46  1  0  0  0  0
 25 47  1  0  0  0  0
 26 49  1  0  0  0  0
 26 50  1  0  0  0  0
 27 28  1  0  0  0  0
 28 29  2  0  0  0  0
 28 30  1  0  0  0  0
 29 31  1  0  0  0  0
 29 55  1  0  0  0  0
 30 32  2  0  0  0  0
 30 56  1  0  0  0  0
 31 33  2  0  0  0  0
 31 57  1  0  0  0  0
 32 33  1  0  0  0  0
 32 58  1  0  0  0  0
M  END
> <PUBCHEM_COMPOUND_CID>
442416

> <PUBCHEM_COMPOUND_CANONICALIZED>
1

> <PUBCHEM_CACTVS_COMPLEXITY>
747

> <PUBCHEM_CACTVS_HBOND_ACCEPTOR>
11

> <PUBCHEM_CACTVS_HBOND_DONOR>
6

> <PUBCHEM_CACTVS_ROTATABLE_BOND>
7

> <PUBCHEM_CACTVS_SUBSKEYS>
AAADceB4PAAAAAAAAAAAAAAAAAAAAQAAAAA0QIAAAAAAAEABAAAAGgAACAAADRSwmAMwDoAABgCIAiDSCAACCAAkIAAIiAEGCMgZNjKCNRqicQAlwBEPuYfI7CzOoAAAAAAAAABAAAAAAAAAAAAAAAAAAA==

> <PUBCHEM_IUPAC_OPENEYE_NAME>
[(1S,4aR,5S,7aS)-5-hydroxy-1-[(2S,3R,4S,5S,6R)-3,4,5-trihydroxy-6-(hydroxymethyl)tetrahydropyran-2-yl]oxy-1,4a,5,7a-tetrahydrocyclopenta[c]pyran-7-yl]methyl 4-hydroxybenzoate

> <PUBCHEM_IUPAC_CAS_NAME>
4-hydroxybenzoic acid [(1S,4aR,5S,7aS)-5-hydroxy-1-[[(2S,3R,4S,5S,6R)-3,4,5-trihydroxy-6-(hydroxymethyl)-2-oxanyl]oxy]-1,4a,5,7a-tetrahydrocyclopenta[c]pyran-7-yl]methyl ester

> <PUBCHEM_IUPAC_NAME>
[(1S,4aR,5S,7aS)-5-hydroxy-1-[(2S,3R,4S,5S,6R)-3,4,5-trihydroxy-6-(hydroxymethyl)oxan-2-yl]oxy-1,4a,5,7a-tetrahydrocyclopenta[c]pyran-7-yl]methyl 4-hydroxybenzoate

> <PUBCHEM_IUPAC_SYSTEMATIC_NAME>
[(1S,4aR,5S,7aS)-1-[(2S,3R,4S,5S,6R)-6-(hydroxymethyl)-3,4,5-tris(oxidanyl)oxan-2-yl]oxy-5-oxidanyl-1,4a,5,7a-tetrahydrocyclopenta[c]pyran-7-yl]methyl 4-oxidanylbenzoate

> <PUBCHEM_IUPAC_TRADITIONAL_NAME>
4-hydroxybenzoic acid [(1S,4aR,5S,7aS)-5-hydroxy-1-[(2S,3R,4S,5S,6R)-3,4,5-trihydroxy-6-methylol-tetrahydropyran-2-yl]oxy-1,4a,5,7a-tetrahydrocyclopenta[c]pyran-7-yl]methyl ester

> <PUBCHEM_IUPAC_INCHI>
InChI=1S/C22H26O11/c23-8-15-17(26)18(27)19(28)22(32-15)33-21-16-11(7-14(25)13(16)5-6-30-21)9-31-20(29)10-1-3-12(24)4-2-10/h1-7,13-19,21-28H,8-9H2/t13-,14+,15+,16+,17+,18-,19+,21-,22-/m0/s1

> <PUBCHEM_IUPAC_INCHIKEY>
GLACGTLACKLUJX-QNAXTHAFSA-N

> <PUBCHEM_XLOGP3_AA>
-1.1

> <PUBCHEM_EXACT_MASS>
466.147512

> <PUBCHEM_MOLECULAR_FORMULA>
C22H26O11

> <PUBCHEM_MOLECULAR_WEIGHT>
466.43524

> <PUBCHEM_OPENEYE_CAN_SMILES>
C1=COC(C2C1C(C=C2COC(=O)C3=CC=C(C=C3)O)O)OC4C(C(C(C(O4)CO)O)O)O

> <PUBCHEM_OPENEYE_ISO_SMILES>
C1=CO[C@H]([C@H]2[C@@H]1[C@@H](C=C2COC(=O)C3=CC=C(C=C3)O)O)O[C@H]4[C@@H]([C@H]([C@@H]([C@H](O4)CO)O)O)O

> <PUBCHEM_CACTVS_TPSA>
175

> <PUBCHEM_MONOISOTOPIC_WEIGHT>
466.147512

> <PUBCHEM_TOTAL_CHARGE>
0

> <PUBCHEM_HEAVY_ATOM_COUNT>
33

> <PUBCHEM_ATOM_DEF_STEREO_COUNT>
9

> <PUBCHEM_ATOM_UDEF_STEREO_COUNT>
0

> <PUBCHEM_BOND_DEF_STEREO_COUNT>
0

> <PUBCHEM_BOND_UDEF_STEREO_COUNT>
0

> <PUBCHEM_ISOTOPIC_ATOM_COUNT>
0

> <PUBCHEM_COMPONENT_COUNT>
1

> <PUBCHEM_CACTVS_TAUTO_COUNT>
4

> <PUBCHEM_COORDINATE_TYPE>
1
5
255

> <PUBCHEM_BONDANNOTATIONS>
14  1  5
18  1  6
12  34  5
13  35  5
23  26  6
28  29  8
28  30  8
29  31  8
30  32  8
31  33  8
32  33  8
15  4  5
19  5  5
21  6  6
22  7  5

$$$$

