121885
  -OEChem-07051212502D

 46 47  0     1  0  0  0  0  0999 V2000
   11.2632    0.6409    0.0000 P   0  0  3  0  0  0  0  0  0  0  0  0
   12.9952    0.6476    0.0000 P   0  0  3  0  0  0  0  0  0  0  0  0
   14.7273    0.6542    0.0000 P   0  0  0  0  0  0  0  0  0  0  0  0
    7.7953    1.6275    0.0000 O   0  0  0  0  0  0  0  0  0  0  0  0
    8.6709   -0.8691    0.0000 O   0  0  0  0  0  0  0  0  0  0  0  0
   10.3991    0.1375    0.0000 O   0  0  0  0  0  0  0  0  0  0  0  0
   12.1273    1.1442    0.0000 O   0  0  0  0  0  0  0  0  0  0  0  0
   11.7665   -0.2232    0.0000 O   0  0  0  0  0  0  0  0  0  0  0  0
    4.2690    1.6034    0.0000 O   0  0  0  0  0  0  0  0  0  0  0  0
   10.7599    1.5050    0.0000 O   0  0  0  0  0  0  0  0  0  0  0  0
   13.8632    0.1509    0.0000 O   0  0  0  0  0  0  0  0  0  0  0  0
   13.4919    1.5155    0.0000 O   0  0  0  0  0  0  0  0  0  0  0  0
   12.4986   -0.2204    0.0000 O   0  0  0  0  0  0  0  0  0  0  0  0
   15.5914    1.1576    0.0000 O   0  0  0  0  0  0  0  0  0  0  0  0
   15.2306   -0.2099    0.0000 O   0  0  0  0  0  0  0  0  0  0  0  0
   14.2239    1.5183    0.0000 O   0  0  0  0  0  0  0  0  0  0  0  0
    6.0290   -1.4313    0.0000 N   0  0  0  0  0  0  0  0  0  0  0  0
    6.0290    0.6380    0.0000 N   0  0  0  0  0  0  0  0  0  0  0  0
    4.2690   -1.3966    0.0000 N   0  0  0  0  0  0  0  0  0  0  0  0
    3.4030    0.1034    0.0000 N   0  0  0  0  0  0  0  0  0  0  0  0
    2.5369   -1.3966    0.0000 N   0  0  0  0  0  0  0  0  0  0  0  0
    7.7991    0.6275    0.0000 C   0  0  2  0  0  0  0  0  0  0  0  0
    8.6671    0.1309    0.0000 C   0  0  1  0  0  0  0  0  0  0  0  0
    6.9350    0.1242    0.0000 C   0  0  0  0  0  0  0  0  0  0  0  0
    6.9350   -0.9174    0.0000 C   0  0  0  0  0  0  0  0  0  0  0  0
    9.5312    0.6342    0.0000 C   0  0  0  0  0  0  0  0  0  0  0  0
    5.1350   -0.8966    0.0000 C   0  0  0  0  0  0  0  0  0  0  0  0
    5.1350    0.1034    0.0000 C   0  0  0  0  0  0  0  0  0  0  0  0
    4.2690    0.6034    0.0000 C   0  0  0  0  0  0  0  0  0  0  0  0
    3.4030   -0.8966    0.0000 C   0  0  0  0  0  0  0  0  0  0  0  0
    7.2610    0.9355    0.0000 H   0  0  0  0  0  0  0  0  0  0  0  0
    8.1313   -0.1812    0.0000 H   0  0  0  0  0  0  0  0  0  0  0  0
    7.1441   -1.5011    0.0000 H   0  0  0  0  0  0  0  0  0  0  0  0
    7.5459   -0.8113    0.0000 H   0  0  0  0  0  0  0  0  0  0  0  0
    9.9278    1.1107    0.0000 H   0  0  0  0  0  0  0  0  0  0  0  0
    9.1308    1.1076    0.0000 H   0  0  0  0  0  0  0  0  0  0  0  0
    6.0218   -2.0512    0.0000 H   0  0  0  0  0  0  0  0  0  0  0  0
    8.3310    1.9396    0.0000 H   0  0  0  0  0  0  0  0  0  0  0  0
    9.2090   -1.1770    0.0000 H   0  0  0  0  0  0  0  0  0  0  0  0
    4.2690   -2.0166    0.0000 H   0  0  0  0  0  0  0  0  0  0  0  0
    2.0000   -1.0866    0.0000 H   0  0  0  0  0  0  0  0  0  0  0  0
    2.5369   -2.0166    0.0000 H   0  0  0  0  0  0  0  0  0  0  0  0
   11.4586   -0.7613    0.0000 H   0  0  0  0  0  0  0  0  0  0  0  0
   13.1798    2.0512    0.0000 H   0  0  0  0  0  0  0  0  0  0  0  0
   16.1295    0.8496    0.0000 H   0  0  0  0  0  0  0  0  0  0  0  0
   14.9227   -0.7480    0.0000 H   0  0  0  0  0  0  0  0  0  0  0  0
  1  6  1  0  0  0  0
  1  7  1  0  0  0  0
  1  8  1  0  0  0  0
  1 10  2  0  0  0  0
  2  7  1  0  0  0  0
  2 11  1  0  0  0  0
  2 12  1  0  0  0  0
  2 13  2  0  0  0  0
  3 11  1  0  0  0  0
  3 14  1  0  0  0  0
  3 15  1  0  0  0  0
  3 16  2  0  0  0  0
 22  4  1  6  0  0  0
  4 38  1  0  0  0  0
 23  5  1  1  0  0  0
  5 39  1  0  0  0  0
  6 26  1  0  0  0  0
  8 43  1  0  0  0  0
  9 29  2  0  0  0  0
 12 44  1  0  0  0  0
 14 45  1  0  0  0  0
 15 46  1  0  0  0  0
 17 25  1  0  0  0  0
 17 27  1  0  0  0  0
 17 37  1  0  0  0  0
 18 24  2  0  0  0  0
 18 28  1  0  0  0  0
 19 27  1  0  0  0  0
 19 30  1  0  0  0  0
 19 40  1  0  0  0  0
 20 29  1  0  0  0  0
 20 30  2  0  0  0  0
 21 30  1  0  0  0  0
 21 41  1  0  0  0  0
 21 42  1  0  0  0  0
 22 23  1  0  0  0  0
 22 24  1  0  0  0  0
 22 31  1  0  0  0  0
 23 26  1  0  0  0  0
 23 32  1  0  0  0  0
 24 25  1  0  0  0  0
 25 33  1  0  0  0  0
 25 34  1  0  0  0  0
 26 35  1  0  0  0  0
 26 36  1  0  0  0  0
 27 28  2  0  0  0  0
 28 29  1  0  0  0  0
M  END
> <PUBCHEM_COMPOUND_CID>
121885

> <PUBCHEM_COMPOUND_CANONICALIZED>
1

> <PUBCHEM_CACTVS_COMPLEXITY>
956

> <PUBCHEM_CACTVS_HBOND_ACCEPTOR>
15

> <PUBCHEM_CACTVS_HBOND_DONOR>
9

> <PUBCHEM_CACTVS_ROTATABLE_BOND>
9

> <PUBCHEM_CACTVS_SUBSKEYS>
AAADceBzvAMAAAAAAAAAAAAAAAAAAAAAAAAgQAAAAAAAAACAAAAAHgAQCCAACBzhgAYBAALAAxCoQQVwdISAAAEAAAABAIC4AECBUAIAgAAEQAAPAAIBAECwEAIAAAAAAAAAAAAAAAAAAAAAAAAAAAAAAA==

> <PUBCHEM_IUPAC_OPENEYE_NAME>
[[(2R,3S)-3-(2-amino-4-oxo-7,8-dihydro-1H-pteridin-6-yl)-2,3-dihydroxy-propoxy]-hydroxy-phosphoryl] phosphono hydrogen phosphate

> <PUBCHEM_IUPAC_CAS_NAME>
[[(2R,3S)-3-(2-amino-4-oxo-7,8-dihydro-1H-pteridin-6-yl)-2,3-dihydroxypropoxy]-hydroxyphosphoryl] phosphono hydrogen phosphate

> <PUBCHEM_IUPAC_NAME>
[[(2R,3S)-3-(2-amino-4-oxo-7,8-dihydro-1H-pteridin-6-yl)-2,3-dihydroxypropoxy]-hydroxyphosphoryl] phosphono hydrogen phosphate

> <PUBCHEM_IUPAC_SYSTEMATIC_NAME>
[[(2R,3S)-3-(2-azanyl-4-oxidanylidene-7,8-dihydro-1H-pteridin-6-yl)-2,3-bis(oxidanyl)propoxy]-oxidanyl-phosphoryl] phosphono hydrogen phosphate

> <PUBCHEM_IUPAC_TRADITIONAL_NAME>
[[(2R,3S)-3-(2-amino-4-keto-7,8-dihydro-1H-pteridin-6-yl)-2,3-dihydroxy-propoxy]-hydroxy-phosphoryl] phosphono hydrogen phosphate

> <PUBCHEM_IUPAC_INCHI>
InChI=1S/C9H16N5O13P3/c10-9-13-7-5(8(17)14-9)12-3(1-11-7)6(16)4(15)2-25-29(21,22)27-30(23,24)26-28(18,19)20/h4,6,15-16H,1-2H2,(H,21,22)(H,23,24)(H2,18,19,20)(H4,10,11,13,14,17)/t4-,6+/m1/s1

> <PUBCHEM_IUPAC_INCHIKEY>
DGGUVLXVLHAAGT-XINAWCOVSA-N

> <PUBCHEM_XLOGP3_AA>
-6.5

> <PUBCHEM_EXACT_MASS>
494.995745

> <PUBCHEM_MOLECULAR_FORMULA>
C9H16N5O13P3

> <PUBCHEM_MOLECULAR_WEIGHT>
495.170326

> <PUBCHEM_OPENEYE_CAN_SMILES>
C1C(=NC2=C(N1)NC(=NC2=O)N)C(C(COP(=O)(O)OP(=O)(O)OP(=O)(O)O)O)O

> <PUBCHEM_OPENEYE_ISO_SMILES>
C1C(=NC2=C(N1)NC(=NC2=O)N)[C@@H]([C@@H](COP(=O)(O)OP(=O)(O)OP(=O)(O)O)O)O

> <PUBCHEM_CACTVS_TPSA>
292

> <PUBCHEM_MONOISOTOPIC_WEIGHT>
494.995745

> <PUBCHEM_TOTAL_CHARGE>
0

> <PUBCHEM_HEAVY_ATOM_COUNT>
30

> <PUBCHEM_ATOM_DEF_STEREO_COUNT>
2

> <PUBCHEM_ATOM_UDEF_STEREO_COUNT>
0

> <PUBCHEM_BOND_DEF_STEREO_COUNT>
0

> <PUBCHEM_BOND_UDEF_STEREO_COUNT>
0

> <PUBCHEM_ISOTOPIC_ATOM_COUNT>
0

> <PUBCHEM_COMPONENT_COUNT>
1

> <PUBCHEM_CACTVS_TAUTO_COUNT>
128

> <PUBCHEM_COORDINATE_TYPE>
1
5
255

> <PUBCHEM_BONDANNOTATIONS>
19  27  8
19  30  8
20  29  8
20  30  8
27  28  8
28  29  8
22  4  6
23  5  5

$$$$

