9877911
  -OEChem-07051213082D

  1  0  0     0  0  0  0  0  0999 V2000
    2.0000    0.0000    0.0000 Ra  0  0  0  0  0 15  0  0  0  0  0  0
M  ISO  1   1 226
M  END
> <PUBCHEM_COMPOUND_CID>
9877911

> <PUBCHEM_COMPOUND_CANONICALIZED>
1

> <PUBCHEM_CACTVS_COMPLEXITY>
0

> <PUBCHEM_CACTVS_HBOND_ACCEPTOR>
0

> <PUBCHEM_CACTVS_HBOND_DONOR>
0

> <PUBCHEM_CACTVS_ROTATABLE_BOND>
0

> <PUBCHEM_CACTVS_SUBSKEYS>
AAADcQAAAAAAAAAAAAAAAAAAAAAAAAAAAAAAAAAAAAAAAAAAAAAAAAAAAAAAAAAAAAAAAAAAAAAAAAAAAAAAAAAAAAAAAAAAAAAAAAAAAAAAAAAAAAAAAAAAAAAAAAAAAAAAAAAAAAAAAAAAAAAAAAAAAA==

> <PUBCHEM_IUPAC_OPENEYE_NAME>
radium-226

> <PUBCHEM_IUPAC_CAS_NAME>
radium-226

> <PUBCHEM_IUPAC_NAME>
radium-226

> <PUBCHEM_IUPAC_SYSTEMATIC_NAME>
radium-226

> <PUBCHEM_IUPAC_TRADITIONAL_NAME>
radium-226

> <PUBCHEM_IUPAC_INCHI>
InChI=1S/Ra/i1+0

> <PUBCHEM_IUPAC_INCHIKEY>
HCWPIIXVSYCSAN-IGMARMGPSA-N

> <PUBCHEM_EXACT_MASS>
226.02541

> <PUBCHEM_MOLECULAR_FORMULA>
Ra

> <PUBCHEM_MOLECULAR_WEIGHT>
226.02541

> <PUBCHEM_OPENEYE_CAN_SMILES>
[Ra]

> <PUBCHEM_OPENEYE_ISO_SMILES>
[226Ra]

> <PUBCHEM_CACTVS_TPSA>
0

> <PUBCHEM_MONOISOTOPIC_WEIGHT>
226.02541

> <PUBCHEM_TOTAL_CHARGE>
0

> <PUBCHEM_HEAVY_ATOM_COUNT>
1

> <PUBCHEM_ATOM_DEF_STEREO_COUNT>
0

> <PUBCHEM_ATOM_UDEF_STEREO_COUNT>
0

> <PUBCHEM_BOND_DEF_STEREO_COUNT>
0

> <PUBCHEM_BOND_UDEF_STEREO_COUNT>
0

> <PUBCHEM_ISOTOPIC_ATOM_COUNT>
1

> <PUBCHEM_COMPONENT_COUNT>
1

> <PUBCHEM_CACTVS_TAUTO_COUNT>
1

> <PUBCHEM_COORDINATE_TYPE>
1
5
255

$$$$

