5281801
  -OEChem-07051212592D

 31 33  0     0  0  0  0  0  0999 V2000
    6.3301    1.7379    0.0000 O   0  0  0  0  0  0  0  0  0  0  0  0
    8.0785   -1.2967    0.0000 O   0  0  0  0  0  0  0  0  0  0  0  0
    6.3301   -1.2621    0.0000 O   0  0  0  0  0  0  0  0  0  0  0  0
    9.8602    1.7621    0.0000 O   0  0  0  0  0  0  0  0  0  0  0  0
    2.0000    0.2379    0.0000 O   0  0  0  0  0  0  0  0  0  0  0  0
    2.0000   -1.7621    0.0000 O   0  0  0  0  0  0  0  0  0  0  0  0
    7.1962    0.2379    0.0000 C   0  0  0  0  0  0  0  0  0  0  0  0
    5.4641    0.2379    0.0000 C   0  0  0  0  0  0  0  0  0  0  0  0
    7.1962    1.2379    0.0000 C   0  0  0  0  0  0  0  0  0  0  0  0
    6.3301   -0.2621    0.0000 C   0  0  0  0  0  0  0  0  0  0  0  0
    4.5981   -0.2621    0.0000 C   0  0  0  0  0  0  0  0  0  0  0  0
    8.0901   -0.2967    0.0000 C   0  0  0  0  0  0  0  0  0  0  0  0
    5.4641    1.2379    0.0000 C   0  0  0  0  0  0  0  0  0  0  0  0
    8.0901    1.7726    0.0000 C   0  0  0  0  0  0  0  0  0  0  0  0
    3.7320    0.2379    0.0000 C   0  0  0  0  0  0  0  0  0  0  0  0
    4.5981   -1.2621    0.0000 C   0  0  0  0  0  0  0  0  0  0  0  0
    8.9962    0.2171    0.0000 C   0  0  0  0  0  0  0  0  0  0  0  0
    8.9962    1.2587    0.0000 C   0  0  0  0  0  0  0  0  0  0  0  0
    2.8660   -0.2621    0.0000 C   0  0  0  0  0  0  0  0  0  0  0  0
    3.7320   -1.7621    0.0000 C   0  0  0  0  0  0  0  0  0  0  0  0
    2.8660   -1.2621    0.0000 C   0  0  0  0  0  0  0  0  0  0  0  0
    4.9272    1.5479    0.0000 H   0  0  0  0  0  0  0  0  0  0  0  0
    8.0829    2.3926    0.0000 H   0  0  0  0  0  0  0  0  0  0  0  0
    3.7320    0.8579    0.0000 H   0  0  0  0  0  0  0  0  0  0  0  0
    5.1350   -1.5721    0.0000 H   0  0  0  0  0  0  0  0  0  0  0  0
    9.5319   -0.0950    0.0000 H   0  0  0  0  0  0  0  0  0  0  0  0
    3.7320   -2.3821    0.0000 H   0  0  0  0  0  0  0  0  0  0  0  0
    8.6118   -1.6129    0.0000 H   0  0  0  0  0  0  0  0  0  0  0  0
    9.8579    2.3821    0.0000 H   0  0  0  0  0  0  0  0  0  0  0  0
    2.0000    0.8579    0.0000 H   0  0  0  0  0  0  0  0  0  0  0  0
    2.0000   -2.3821    0.0000 H   0  0  0  0  0  0  0  0  0  0  0  0
  1  9  1  0  0  0  0
  1 13  1  0  0  0  0
  2 12  1  0  0  0  0
  2 28  1  0  0  0  0
  3 10  2  0  0  0  0
  4 18  1  0  0  0  0
  4 29  1  0  0  0  0
  5 19  1  0  0  0  0
  5 30  1  0  0  0  0
  6 21  1  0  0  0  0
  6 31  1  0  0  0  0
  7  9  1  0  0  0  0
  7 10  1  0  0  0  0
  7 12  2  0  0  0  0
  8 10  1  0  0  0  0
  8 11  1  0  0  0  0
  8 13  2  0  0  0  0
  9 14  2  0  0  0  0
 11 15  2  0  0  0  0
 11 16  1  0  0  0  0
 12 17  1  0  0  0  0
 13 22  1  0  0  0  0
 14 18  1  0  0  0  0
 14 23  1  0  0  0  0
 15 19  1  0  0  0  0
 15 24  1  0  0  0  0
 16 20  2  0  0  0  0
 16 25  1  0  0  0  0
 17 18  2  0  0  0  0
 17 26  1  0  0  0  0
 19 21  2  0  0  0  0
 20 21  1  0  0  0  0
 20 27  1  0  0  0  0
M  END
> <PUBCHEM_COMPOUND_CID>
5281801

> <PUBCHEM_COMPOUND_CANONICALIZED>
1

> <PUBCHEM_CACTVS_COMPLEXITY>
447

> <PUBCHEM_CACTVS_HBOND_ACCEPTOR>
6

> <PUBCHEM_CACTVS_HBOND_DONOR>
4

> <PUBCHEM_CACTVS_ROTATABLE_BOND>
1

> <PUBCHEM_CACTVS_SUBSKEYS>
AAADccBwOAAAAAAAAAAAAAAAAAAAAAAAAAAwYIAAAAAAAACBQAAAGgAACAAADASgmAIwBoAABgCIAqBSAAACCAAkIAAIiAEGiMgNJzaGNRqAcWEl4BUJuYeI7PzOIAABCAAIQABAAAIQABCAAAAAAAAAAA==

> <PUBCHEM_IUPAC_OPENEYE_NAME>
3-(3,4-dihydroxyphenyl)-5,7-dihydroxy-chromen-4-one

> <PUBCHEM_IUPAC_CAS_NAME>
3-(3,4-dihydroxyphenyl)-5,7-dihydroxy-1-benzopyran-4-one

> <PUBCHEM_IUPAC_NAME>
3-(3,4-dihydroxyphenyl)-5,7-dihydroxychromen-4-one

> <PUBCHEM_IUPAC_SYSTEMATIC_NAME>
3-[3,4-bis(oxidanyl)phenyl]-5,7-bis(oxidanyl)chromen-4-one

> <PUBCHEM_IUPAC_TRADITIONAL_NAME>
3-(3,4-dihydroxyphenyl)-5,7-dihydroxy-chromone

> <PUBCHEM_IUPAC_INCHI>
InChI=1S/C15H10O6/c16-8-4-12(19)14-13(5-8)21-6-9(15(14)20)7-1-2-10(17)11(18)3-7/h1-6,16-19H

> <PUBCHEM_IUPAC_INCHIKEY>
IOYHCQBYQJQBSK-UHFFFAOYSA-N

> <PUBCHEM_XLOGP3_AA>
2.3

> <PUBCHEM_EXACT_MASS>
286.047738

> <PUBCHEM_MOLECULAR_FORMULA>
C15H10O6

> <PUBCHEM_MOLECULAR_WEIGHT>
286.2363

> <PUBCHEM_OPENEYE_CAN_SMILES>
C1=CC(=C(C=C1C2=COC3=CC(=CC(=C3C2=O)O)O)O)O

> <PUBCHEM_OPENEYE_ISO_SMILES>
C1=CC(=C(C=C1C2=COC3=CC(=CC(=C3C2=O)O)O)O)O

> <PUBCHEM_CACTVS_TPSA>
107

> <PUBCHEM_MONOISOTOPIC_WEIGHT>
286.047738

> <PUBCHEM_TOTAL_CHARGE>
0

> <PUBCHEM_HEAVY_ATOM_COUNT>
21

> <PUBCHEM_ATOM_DEF_STEREO_COUNT>
0

> <PUBCHEM_ATOM_UDEF_STEREO_COUNT>
0

> <PUBCHEM_BOND_DEF_STEREO_COUNT>
0

> <PUBCHEM_BOND_UDEF_STEREO_COUNT>
0

> <PUBCHEM_ISOTOPIC_ATOM_COUNT>
0

> <PUBCHEM_COMPONENT_COUNT>
1

> <PUBCHEM_CACTVS_TAUTO_COUNT>
120

> <PUBCHEM_COORDINATE_TYPE>
1
5
255

> <PUBCHEM_BONDANNOTATIONS>
1  13  8
1  9  8
11  15  8
11  16  8
12  17  8
14  18  8
15  19  8
16  20  8
17  18  8
19  21  8
20  21  8
7  10  8
7  12  8
7  9  8
8  10  8
8  13  8
9  14  8

$$$$

