68111
  -OEChem-07051212592D

 30 32  0     0  0  0  0  0  0999 V2000
    6.4144    1.3765    0.0000 O   0  0  0  0  0  0  0  0  0  0  0  0
    4.6660    1.3419    0.0000 O   0  0  0  0  0  0  0  0  0  0  0  0
    2.9176    1.3765    0.0000 O   0  0  0  0  0  0  0  0  0  0  0  0
    4.6660   -1.6581    0.0000 C   0  0  0  0  0  0  0  0  0  0  0  0
    5.5321   -1.1581    0.0000 C   0  0  0  0  0  0  0  0  0  0  0  0
    3.8000   -1.1581    0.0000 C   0  0  0  0  0  0  0  0  0  0  0  0
    5.5321   -0.1581    0.0000 C   0  0  0  0  0  0  0  0  0  0  0  0
    3.8000   -0.1581    0.0000 C   0  0  0  0  0  0  0  0  0  0  0  0
    4.6660    0.3419    0.0000 C   0  0  0  0  0  0  0  0  0  0  0  0
    6.4260   -1.6927    0.0000 C   0  0  0  0  0  0  0  0  0  0  0  0
    6.4260    0.3766    0.0000 C   0  0  0  0  0  0  0  0  0  0  0  0
    7.3321   -1.1789    0.0000 C   0  0  0  0  0  0  0  0  0  0  0  0
    2.9061   -1.6927    0.0000 C   0  0  0  0  0  0  0  0  0  0  0  0
    2.9061    0.3766    0.0000 C   0  0  0  0  0  0  0  0  0  0  0  0
    7.3321   -0.1372    0.0000 C   0  0  0  0  0  0  0  0  0  0  0  0
    2.0000   -1.1789    0.0000 C   0  0  0  0  0  0  0  0  0  0  0  0
    2.0000   -0.1372    0.0000 C   0  0  0  0  0  0  0  0  0  0  0  0
    8.1962   -1.6822    0.0000 C   0  0  0  0  0  0  0  0  0  0  0  0
    4.2675   -2.1330    0.0000 H   0  0  0  0  0  0  0  0  0  0  0  0
    5.0646   -2.1330    0.0000 H   0  0  0  0  0  0  0  0  0  0  0  0
    6.4188   -2.3127    0.0000 H   0  0  0  0  0  0  0  0  0  0  0  0
    2.9132   -2.3127    0.0000 H   0  0  0  0  0  0  0  0  0  0  0  0
    7.8678    0.1748    0.0000 H   0  0  0  0  0  0  0  0  0  0  0  0
    1.4643   -1.4909    0.0000 H   0  0  0  0  0  0  0  0  0  0  0  0
    1.4643    0.1748    0.0000 H   0  0  0  0  0  0  0  0  0  0  0  0
    7.8841   -2.2180    0.0000 H   0  0  0  0  0  0  0  0  0  0  0  0
    8.7319   -1.9943    0.0000 H   0  0  0  0  0  0  0  0  0  0  0  0
    8.5082   -1.1465    0.0000 H   0  0  0  0  0  0  0  0  0  0  0  0
    6.9478    1.6927    0.0000 H   0  0  0  0  0  0  0  0  0  0  0  0
    2.3843    1.6927    0.0000 H   0  0  0  0  0  0  0  0  0  0  0  0
  1 11  1  0  0  0  0
  1 29  1  0  0  0  0
  2  9  2  0  0  0  0
  3 14  1  0  0  0  0
  3 30  1  0  0  0  0
  4  5  1  0  0  0  0
  4  6  1  0  0  0  0
  4 19  1  0  0  0  0
  4 20  1  0  0  0  0
  5  7  2  0  0  0  0
  5 10  1  0  0  0  0
  6  8  2  0  0  0  0
  6 13  1  0  0  0  0
  7  9  1  0  0  0  0
  7 11  1  0  0  0  0
  8  9  1  0  0  0  0
  8 14  1  0  0  0  0
 10 12  2  0  0  0  0
 10 21  1  0  0  0  0
 11 15  2  0  0  0  0
 12 15  1  0  0  0  0
 12 18  1  0  0  0  0
 13 16  2  0  0  0  0
 13 22  1  0  0  0  0
 14 17  2  0  0  0  0
 15 23  1  0  0  0  0
 16 17  1  0  0  0  0
 16 24  1  0  0  0  0
 17 25  1  0  0  0  0
 18 26  1  0  0  0  0
 18 27  1  0  0  0  0
 18 28  1  0  0  0  0
M  END
> <PUBCHEM_COMPOUND_CID>
68111

> <PUBCHEM_COMPOUND_CANONICALIZED>
1

> <PUBCHEM_CACTVS_COMPLEXITY>
341

> <PUBCHEM_CACTVS_HBOND_ACCEPTOR>
3

> <PUBCHEM_CACTVS_HBOND_DONOR>
2

> <PUBCHEM_CACTVS_ROTATABLE_BOND>
0

> <PUBCHEM_CACTVS_SUBSKEYS>
AAADccBwMAAAAAAAAAAAAAAAAAAAAAAAAAAwYMAAAAAAAADBQAAAGgAACAAADASAmAAyBoAAAgCIAqBSAAACAAAkIAAIiAEGCMgIJjaCFRKAcUAk4BEImQeI6PSOwAADAAAYAACAAAYAADAAAAAAAAAAAA==

> <PUBCHEM_IUPAC_OPENEYE_NAME>
1,8-dihydroxy-3-methyl-10H-anthracen-9-one

> <PUBCHEM_IUPAC_CAS_NAME>
1,8-dihydroxy-3-methyl-10H-anthracen-9-one

> <PUBCHEM_IUPAC_NAME>
1,8-dihydroxy-3-methyl-10H-anthracen-9-one

> <PUBCHEM_IUPAC_SYSTEMATIC_NAME>
3-methyl-1,8-bis(oxidanyl)-10H-anthracen-9-one

> <PUBCHEM_IUPAC_TRADITIONAL_NAME>
1,8-dihydroxy-3-methyl-10H-anthracen-9-one

> <PUBCHEM_IUPAC_INCHI>
InChI=1S/C15H12O3/c1-8-5-10-7-9-3-2-4-11(16)13(9)15(18)14(10)12(17)6-8/h2-6,16-17H,7H2,1H3

> <PUBCHEM_IUPAC_INCHIKEY>
ZZBWSNKBZKPGAK-UHFFFAOYSA-N

> <PUBCHEM_XLOGP3_AA>
3.6

> <PUBCHEM_EXACT_MASS>
240.078644

> <PUBCHEM_MOLECULAR_FORMULA>
C15H12O3

> <PUBCHEM_MOLECULAR_WEIGHT>
240.25398

> <PUBCHEM_OPENEYE_CAN_SMILES>
CC1=CC(=C2C(=C1)CC3=C(C2=O)C(=CC=C3)O)O

> <PUBCHEM_OPENEYE_ISO_SMILES>
CC1=CC(=C2C(=C1)CC3=C(C2=O)C(=CC=C3)O)O

> <PUBCHEM_CACTVS_TPSA>
57.5

> <PUBCHEM_MONOISOTOPIC_WEIGHT>
240.078644

> <PUBCHEM_TOTAL_CHARGE>
0

> <PUBCHEM_HEAVY_ATOM_COUNT>
18

> <PUBCHEM_ATOM_DEF_STEREO_COUNT>
0

> <PUBCHEM_ATOM_UDEF_STEREO_COUNT>
0

> <PUBCHEM_BOND_DEF_STEREO_COUNT>
0

> <PUBCHEM_BOND_UDEF_STEREO_COUNT>
0

> <PUBCHEM_ISOTOPIC_ATOM_COUNT>
0

> <PUBCHEM_COMPONENT_COUNT>
1

> <PUBCHEM_CACTVS_TAUTO_COUNT>
189

> <PUBCHEM_COORDINATE_TYPE>
1
5
255

> <PUBCHEM_BONDANNOTATIONS>
10  12  8
11  15  8
12  15  8
13  16  8
14  17  8
16  17  8
5  10  8
5  7  8
6  13  8
6  8  8
7  11  8
8  14  8

$$$$

