4579
  -OEChem-06261200132D

 75 75  0     0  0  0  0  0  0999 V2000
    8.9282    7.0950    0.0000 O   0  0  0  0  0  0  0  0  0  0  0  0
   11.5263    9.5950    0.0000 O   0  0  0  0  0  0  0  0  0  0  0  0
   12.3923    8.0950    0.0000 O   0  0  0  0  0  0  0  0  0  0  0  0
    6.3301   -3.4050    0.0000 C   0  0  0  0  0  0  0  0  0  0  0  0
    6.3301   -2.4050    0.0000 C   0  0  0  0  0  0  0  0  0  0  0  0
    5.4641   -3.9050    0.0000 C   0  0  0  0  0  0  0  0  0  0  0  0
    7.1962   -1.9050    0.0000 C   0  0  0  0  0  0  0  0  0  0  0  0
    5.4641   -4.9050    0.0000 C   0  0  0  0  0  0  0  0  0  0  0  0
    7.1962   -0.9050    0.0000 C   0  0  0  0  0  0  0  0  0  0  0  0
    4.5981   -5.4050    0.0000 C   0  0  0  0  0  0  0  0  0  0  0  0
    8.0622   -0.4050    0.0000 C   0  0  0  0  0  0  0  0  0  0  0  0
    4.5981   -6.4050    0.0000 C   0  0  0  0  0  0  0  0  0  0  0  0
    8.0622    0.5950    0.0000 C   0  0  0  0  0  0  0  0  0  0  0  0
    3.7320   -6.9050    0.0000 C   0  0  0  0  0  0  0  0  0  0  0  0
    8.9282    1.0950    0.0000 C   0  0  0  0  0  0  0  0  0  0  0  0
    3.7320   -7.9050    0.0000 C   0  0  0  0  0  0  0  0  0  0  0  0
    8.9282    2.0950    0.0000 C   0  0  0  0  0  0  0  0  0  0  0  0
    2.8660   -8.4050    0.0000 C   0  0  0  0  0  0  0  0  0  0  0  0
    9.7942    2.5950    0.0000 C   0  0  0  0  0  0  0  0  0  0  0  0
    2.8660   -9.4050    0.0000 C   0  0  0  0  0  0  0  0  0  0  0  0
    9.7942    3.5950    0.0000 C   0  0  0  0  0  0  0  0  0  0  0  0
    2.0000   -9.9050    0.0000 C   0  0  0  0  0  0  0  0  0  0  0  0
   10.6603    4.0950    0.0000 C   0  0  0  0  0  0  0  0  0  0  0  0
    8.9282    4.0950    0.0000 C   0  0  0  0  0  0  0  0  0  0  0  0
   10.6603    5.0950    0.0000 C   0  0  0  0  0  0  0  0  0  0  0  0
    8.9282    5.0950    0.0000 C   0  0  0  0  0  0  0  0  0  0  0  0
    9.7942    5.5950    0.0000 C   0  0  0  0  0  0  0  0  0  0  0  0
    9.7942    6.5950    0.0000 C   0  0  0  0  0  0  0  0  0  0  0  0
   10.6603    7.0950    0.0000 C   0  0  0  0  0  0  0  0  0  0  0  0
   10.6603    8.0950    0.0000 C   0  0  0  0  0  0  0  0  0  0  0  0
   11.5263    8.5950    0.0000 C   0  0  0  0  0  0  0  0  0  0  0  0
    6.5422   -3.9876    0.0000 H   0  0  0  0  0  0  0  0  0  0  0  0
    6.9407   -3.2973    0.0000 H   0  0  0  0  0  0  0  0  0  0  0  0
    6.1181   -1.8224    0.0000 H   0  0  0  0  0  0  0  0  0  0  0  0
    5.7196   -2.5127    0.0000 H   0  0  0  0  0  0  0  0  0  0  0  0
    5.2520   -3.3224    0.0000 H   0  0  0  0  0  0  0  0  0  0  0  0
    4.8535   -4.0127    0.0000 H   0  0  0  0  0  0  0  0  0  0  0  0
    7.4082   -2.4876    0.0000 H   0  0  0  0  0  0  0  0  0  0  0  0
    7.8067   -1.7973    0.0000 H   0  0  0  0  0  0  0  0  0  0  0  0
    5.6762   -5.4876    0.0000 H   0  0  0  0  0  0  0  0  0  0  0  0
    6.0747   -4.7973    0.0000 H   0  0  0  0  0  0  0  0  0  0  0  0
    6.9841   -0.3224    0.0000 H   0  0  0  0  0  0  0  0  0  0  0  0
    6.5856   -1.0127    0.0000 H   0  0  0  0  0  0  0  0  0  0  0  0
    4.3860   -4.8224    0.0000 H   0  0  0  0  0  0  0  0  0  0  0  0
    3.9875   -5.5127    0.0000 H   0  0  0  0  0  0  0  0  0  0  0  0
    8.2742   -0.9876    0.0000 H   0  0  0  0  0  0  0  0  0  0  0  0
    8.6728   -0.2973    0.0000 H   0  0  0  0  0  0  0  0  0  0  0  0
    4.8101   -6.9876    0.0000 H   0  0  0  0  0  0  0  0  0  0  0  0
    5.2087   -6.2973    0.0000 H   0  0  0  0  0  0  0  0  0  0  0  0
    7.8501    1.1776    0.0000 H   0  0  0  0  0  0  0  0  0  0  0  0
    7.4516    0.4873    0.0000 H   0  0  0  0  0  0  0  0  0  0  0  0
    3.5200   -6.3224    0.0000 H   0  0  0  0  0  0  0  0  0  0  0  0
    3.1215   -7.0127    0.0000 H   0  0  0  0  0  0  0  0  0  0  0  0
    9.1403    0.5124    0.0000 H   0  0  0  0  0  0  0  0  0  0  0  0
    9.5388    1.2027    0.0000 H   0  0  0  0  0  0  0  0  0  0  0  0
    3.9441   -8.4876    0.0000 H   0  0  0  0  0  0  0  0  0  0  0  0
    4.3426   -7.7973    0.0000 H   0  0  0  0  0  0  0  0  0  0  0  0
    8.7162    2.6776    0.0000 H   0  0  0  0  0  0  0  0  0  0  0  0
    8.3176    1.9873    0.0000 H   0  0  0  0  0  0  0  0  0  0  0  0
    2.6540   -7.8224    0.0000 H   0  0  0  0  0  0  0  0  0  0  0  0
    2.2554   -8.5127    0.0000 H   0  0  0  0  0  0  0  0  0  0  0  0
   10.0063    2.0124    0.0000 H   0  0  0  0  0  0  0  0  0  0  0  0
   10.4048    2.7027    0.0000 H   0  0  0  0  0  0  0  0  0  0  0  0
    3.0781   -9.9876    0.0000 H   0  0  0  0  0  0  0  0  0  0  0  0
    3.4766   -9.2973    0.0000 H   0  0  0  0  0  0  0  0  0  0  0  0
    1.6900   -9.3681    0.0000 H   0  0  0  0  0  0  0  0  0  0  0  0
    1.4631  -10.2150    0.0000 H   0  0  0  0  0  0  0  0  0  0  0  0
    2.3100  -10.4419    0.0000 H   0  0  0  0  0  0  0  0  0  0  0  0
   11.1972    3.7850    0.0000 H   0  0  0  0  0  0  0  0  0  0  0  0
    8.3913    3.7850    0.0000 H   0  0  0  0  0  0  0  0  0  0  0  0
   11.1972    5.4050    0.0000 H   0  0  0  0  0  0  0  0  0  0  0  0
    8.3913    5.4050    0.0000 H   0  0  0  0  0  0  0  0  0  0  0  0
   11.1972    6.7850    0.0000 H   0  0  0  0  0  0  0  0  0  0  0  0
   10.1233    8.4050    0.0000 H   0  0  0  0  0  0  0  0  0  0  0  0
   12.0632    9.9050    0.0000 H   0  0  0  0  0  0  0  0  0  0  0  0
  1 28  2  0  0  0  0
  2 31  1  0  0  0  0
  2 75  1  0  0  0  0
  3 31  2  0  0  0  0
  4  5  1  0  0  0  0
  4  6  1  0  0  0  0
  4 32  1  0  0  0  0
  4 33  1  0  0  0  0
  5  7  1  0  0  0  0
  5 34  1  0  0  0  0
  5 35  1  0  0  0  0
  6  8  1  0  0  0  0
  6 36  1  0  0  0  0
  6 37  1  0  0  0  0
  7  9  1  0  0  0  0
  7 38  1  0  0  0  0
  7 39  1  0  0  0  0
  8 10  1  0  0  0  0
  8 40  1  0  0  0  0
  8 41  1  0  0  0  0
  9 11  1  0  0  0  0
  9 42  1  0  0  0  0
  9 43  1  0  0  0  0
 10 12  1  0  0  0  0
 10 44  1  0  0  0  0
 10 45  1  0  0  0  0
 11 13  1  0  0  0  0
 11 46  1  0  0  0  0
 11 47  1  0  0  0  0
 12 14  1  0  0  0  0
 12 48  1  0  0  0  0
 12 49  1  0  0  0  0
 13 15  1  0  0  0  0
 13 50  1  0  0  0  0
 13 51  1  0  0  0  0
 14 16  1  0  0  0  0
 14 52  1  0  0  0  0
 14 53  1  0  0  0  0
 15 17  1  0  0  0  0
 15 54  1  0  0  0  0
 15 55  1  0  0  0  0
 16 18  1  0  0  0  0
 16 56  1  0  0  0  0
 16 57  1  0  0  0  0
 17 19  1  0  0  0  0
 17 58  1  0  0  0  0
 17 59  1  0  0  0  0
 18 20  1  0  0  0  0
 18 60  1  0  0  0  0
 18 61  1  0  0  0  0
 19 21  1  0  0  0  0
 19 62  1  0  0  0  0
 19 63  1  0  0  0  0
 20 22  1  0  0  0  0
 20 64  1  0  0  0  0
 20 65  1  0  0  0  0
 21 23  2  0  0  0  0
 21 24  1  0  0  0  0
 22 66  1  0  0  0  0
 22 67  1  0  0  0  0
 22 68  1  0  0  0  0
 23 25  1  0  0  0  0
 23 69  1  0  0  0  0
 24 26  2  0  0  0  0
 24 70  1  0  0  0  0
 25 27  2  0  0  0  0
 25 71  1  0  0  0  0
 26 27  1  0  0  0  0
 26 72  1  0  0  0  0
 27 28  1  0  0  0  0
 28 29  1  0  0  0  0
 29 30  2  3  0  0  0
 29 73  1  0  0  0  0
 30 31  1  0  0  0  0
 30 74  1  0  0  0  0
M  END
> <PUBCHEM_COMPOUND_CID>
4579

> <PUBCHEM_COMPOUND_CANONICALIZED>
1

> <PUBCHEM_CACTVS_COMPLEXITY>
475

> <PUBCHEM_CACTVS_HBOND_ACCEPTOR>
3

> <PUBCHEM_CACTVS_HBOND_DONOR>
1

> <PUBCHEM_CACTVS_ROTATABLE_BOND>
20

> <PUBCHEM_CACTVS_SUBSKEYS>
AAADcfB4MAAAAAAAAAAAAAAAAAAAAAAAAAAwAAAAAAAAAAABAAAAGgAACAAADASAmAAyCIAAAgCIAqDSCAACAAAkAAAIiAEAAMgIJDKAFRCAMQAggAAImYcIiMCOQAAAAAAAAACAAAAAAAAAAAAAAAAAAA==

> <PUBCHEM_IUPAC_OPENEYE_NAME>
4-(4-octadecylphenyl)-4-oxo-but-2-enoic acid

> <PUBCHEM_IUPAC_CAS_NAME>
4-(4-octadecylphenyl)-4-oxo-2-butenoic acid

> <PUBCHEM_IUPAC_NAME>
4-(4-octadecylphenyl)-4-oxobut-2-enoic acid

> <PUBCHEM_IUPAC_SYSTEMATIC_NAME>
4-(4-octadecylphenyl)-4-oxidanylidene-but-2-enoic acid

> <PUBCHEM_IUPAC_TRADITIONAL_NAME>
4-keto-4-(4-stearylphenyl)but-2-enoic acid

> <PUBCHEM_IUPAC_INCHI>
InChI=1S/C28H44O3/c1-2-3-4-5-6-7-8-9-10-11-12-13-14-15-16-17-18-25-19-21-26(22-20-25)27(29)23-24-28(30)31/h19-24H,2-18H2,1H3,(H,30,31)

> <PUBCHEM_IUPAC_INCHIKEY>
ZBESASFHIWDSCJ-UHFFFAOYSA-N

> <PUBCHEM_XLOGP3_AA>
10.8

> <PUBCHEM_EXACT_MASS>
428.329045

> <PUBCHEM_MOLECULAR_FORMULA>
C28H44O3

> <PUBCHEM_MOLECULAR_WEIGHT>
428.64716

> <PUBCHEM_OPENEYE_CAN_SMILES>
CCCCCCCCCCCCCCCCCCC1=CC=C(C=C1)C(=O)C=CC(=O)O

> <PUBCHEM_OPENEYE_ISO_SMILES>
CCCCCCCCCCCCCCCCCCC1=CC=C(C=C1)C(=O)C=CC(=O)O

> <PUBCHEM_CACTVS_TPSA>
54.4

> <PUBCHEM_MONOISOTOPIC_WEIGHT>
428.329045

> <PUBCHEM_TOTAL_CHARGE>
0

> <PUBCHEM_HEAVY_ATOM_COUNT>
31

> <PUBCHEM_ATOM_DEF_STEREO_COUNT>
0

> <PUBCHEM_ATOM_UDEF_STEREO_COUNT>
0

> <PUBCHEM_BOND_DEF_STEREO_COUNT>
0

> <PUBCHEM_BOND_UDEF_STEREO_COUNT>
1

> <PUBCHEM_ISOTOPIC_ATOM_COUNT>
0

> <PUBCHEM_COMPONENT_COUNT>
1

> <PUBCHEM_CACTVS_TAUTO_COUNT>
4

> <PUBCHEM_COORDINATE_TYPE>
1
5
255

> <PUBCHEM_BONDANNOTATIONS>
21  23  8
21  24  8
23  25  8
24  26  8
25  27  8
26  27  8
29  30  1

$$$$

