8422
  -OEChem-07051213122D

 25 26  0     0  0  0  0  0  0999 V2000
    5.1350   -0.5173    0.0000 O   0  0  0  0  0  0  0  0  0  0  0  0
    2.5369   -0.0173    0.0000 O   0  0  0  0  0  0  0  0  0  0  0  0
    3.4030   -1.5173    0.0000 O   0  0  0  0  0  0  0  0  0  0  0  0
    7.7331   -0.0173    0.0000 C   0  0  0  0  0  0  0  0  0  0  0  0
    7.7331    0.9827    0.0000 C   0  0  0  0  0  0  0  0  0  0  0  0
    6.8671   -0.5173    0.0000 C   0  0  0  0  0  0  0  0  0  0  0  0
    6.0010   -0.0173    0.0000 C   0  0  0  0  0  0  0  0  0  0  0  0
    6.8671    1.4827    0.0000 C   0  0  0  0  0  0  0  0  0  0  0  0
    8.6270   -0.5520    0.0000 C   0  0  0  0  0  0  0  0  0  0  0  0
    6.0010    0.9827    0.0000 C   0  0  0  0  0  0  0  0  0  0  0  0
    8.6270    1.5173    0.0000 C   0  0  0  0  0  0  0  0  0  0  0  0
    9.5331   -0.0381    0.0000 C   0  0  0  0  0  0  0  0  0  0  0  0
    9.5331    1.0035    0.0000 C   0  0  0  0  0  0  0  0  0  0  0  0
    4.2690   -0.0173    0.0000 C   0  0  0  0  0  0  0  0  0  0  0  0
    3.4030   -0.5173    0.0000 C   0  0  0  0  0  0  0  0  0  0  0  0
    6.8671   -1.1373    0.0000 H   0  0  0  0  0  0  0  0  0  0  0  0
    6.8671    2.1027    0.0000 H   0  0  0  0  0  0  0  0  0  0  0  0
    5.4641    1.2927    0.0000 H   0  0  0  0  0  0  0  0  0  0  0  0
    8.6199   -1.1720    0.0000 H   0  0  0  0  0  0  0  0  0  0  0  0
    8.6199    2.1373    0.0000 H   0  0  0  0  0  0  0  0  0  0  0  0
   10.0688   -0.3502    0.0000 H   0  0  0  0  0  0  0  0  0  0  0  0
   10.0688    1.3156    0.0000 H   0  0  0  0  0  0  0  0  0  0  0  0
    4.6675    0.4576    0.0000 H   0  0  0  0  0  0  0  0  0  0  0  0
    3.8705    0.4576    0.0000 H   0  0  0  0  0  0  0  0  0  0  0  0
    2.0000   -0.3273    0.0000 H   0  0  0  0  0  0  0  0  0  0  0  0
  1  7  1  0  0  0  0
  1 14  1  0  0  0  0
  2 15  1  0  0  0  0
  2 25  1  0  0  0  0
  3 15  2  0  0  0  0
  4  5  1  0  0  0  0
  4  6  1  0  0  0  0
  4  9  2  0  0  0  0
  5  8  1  0  0  0  0
  5 11  2  0  0  0  0
  6  7  2  0  0  0  0
  6 16  1  0  0  0  0
  7 10  1  0  0  0  0
  8 10  2  0  0  0  0
  8 17  1  0  0  0  0
  9 12  1  0  0  0  0
  9 19  1  0  0  0  0
 10 18  1  0  0  0  0
 11 13  1  0  0  0  0
 11 20  1  0  0  0  0
 12 13  2  0  0  0  0
 12 21  1  0  0  0  0
 13 22  1  0  0  0  0
 14 15  1  0  0  0  0
 14 23  1  0  0  0  0
 14 24  1  0  0  0  0
M  END
> <PUBCHEM_COMPOUND_CID>
8422

> <PUBCHEM_COMPOUND_CANONICALIZED>
1

> <PUBCHEM_CACTVS_COMPLEXITY>
227

> <PUBCHEM_CACTVS_HBOND_ACCEPTOR>
3

> <PUBCHEM_CACTVS_HBOND_DONOR>
1

> <PUBCHEM_CACTVS_ROTATABLE_BOND>
3

> <PUBCHEM_CACTVS_SUBSKEYS>
AAADccBwMAAAAAAAAAAAAAAAAAAAAAAAAAAwYAAAAAAAAADBUAAAGgAACAAADASgmAIwDsAABgCIAiDSCAICCAAgIAAIiABGCIgNJiKEMR6COCCkwBELqAeAwLAOoAABAAAQAABAAAIAACAAAAAAAAAAAA==

> <PUBCHEM_IUPAC_OPENEYE_NAME>
2-(2-naphthyloxy)acetic acid

> <PUBCHEM_IUPAC_CAS_NAME>
2-(2-naphthalenyloxy)acetic acid

> <PUBCHEM_IUPAC_NAME>
2-naphthalen-2-yloxyacetic acid

> <PUBCHEM_IUPAC_SYSTEMATIC_NAME>
2-naphthalen-2-yloxyethanoic acid

> <PUBCHEM_IUPAC_TRADITIONAL_NAME>
2-(2-naphthoxy)acetic acid

> <PUBCHEM_IUPAC_INCHI>
InChI=1S/C12H10O3/c13-12(14)8-15-11-6-5-9-3-1-2-4-10(9)7-11/h1-7H,8H2,(H,13,14)

> <PUBCHEM_IUPAC_INCHIKEY>
RZCJYMOBWVJQGV-UHFFFAOYSA-N

> <PUBCHEM_XLOGP3>
2.5

> <PUBCHEM_EXACT_MASS>
202.062994

> <PUBCHEM_MOLECULAR_FORMULA>
C12H10O3

> <PUBCHEM_MOLECULAR_WEIGHT>
202.206

> <PUBCHEM_OPENEYE_CAN_SMILES>
C1=CC=C2C=C(C=CC2=C1)OCC(=O)O

> <PUBCHEM_OPENEYE_ISO_SMILES>
C1=CC=C2C=C(C=CC2=C1)OCC(=O)O

> <PUBCHEM_CACTVS_TPSA>
46.5

> <PUBCHEM_MONOISOTOPIC_WEIGHT>
202.062994

> <PUBCHEM_TOTAL_CHARGE>
0

> <PUBCHEM_HEAVY_ATOM_COUNT>
15

> <PUBCHEM_ATOM_DEF_STEREO_COUNT>
0

> <PUBCHEM_ATOM_UDEF_STEREO_COUNT>
0

> <PUBCHEM_BOND_DEF_STEREO_COUNT>
0

> <PUBCHEM_BOND_UDEF_STEREO_COUNT>
0

> <PUBCHEM_ISOTOPIC_ATOM_COUNT>
0

> <PUBCHEM_COMPONENT_COUNT>
1

> <PUBCHEM_CACTVS_TAUTO_COUNT>
1

> <PUBCHEM_COORDINATE_TYPE>
1
5
255

> <PUBCHEM_BONDANNOTATIONS>
11  13  8
12  13  8
4  5  8
4  6  8
4  9  8
5  11  8
5  8  8
6  7  8
7  10  8
8  10  8
9  12  8

$$$$

