4432
  -OEChem-06261200072D

 75 78  0     1  0  0  0  0  0999 V2000
    8.6500   -0.7151    0.0000 O   0  0  0  0  0  0  0  0  0  0  0  0
    2.0000   -5.0227    0.0000 O   0  0  0  0  0  0  0  0  0  0  0  0
   10.2963   -1.2532    0.0000 O   0  0  0  0  0  0  0  0  0  0  0  0
    7.3931   -2.9704    0.0000 C   0  0  3  0  0  0  0  0  0  0  0  0
    7.3931   -1.9704    0.0000 C   0  0  3  0  0  0  0  0  0  0  0  0
    6.5271   -3.4704    0.0000 C   0  0  3  0  0  0  0  0  0  0  0  0
    5.6610   -2.9704    0.0000 C   0  0  3  0  0  0  0  0  0  0  0  0
    6.5271   -1.4704    0.0000 C   0  0  0  0  0  0  0  0  0  0  0  0
    8.3393   -1.6657    0.0000 C   0  0  3  0  0  0  0  0  0  0  0  0
    8.3393   -3.2751    0.0000 C   0  0  0  0  0  0  0  0  0  0  0  0
    5.6610   -1.9704    0.0000 C   0  0  0  0  0  0  0  0  0  0  0  0
    4.7510   -3.4772    0.0000 C   0  0  3  0  0  0  0  0  0  0  0  0
    8.9229   -2.4704    0.0000 C   0  0  0  0  0  0  0  0  0  0  0  0
    6.5431   -4.5119    0.0000 C   0  0  0  0  0  0  0  0  0  0  0  0
    7.3931   -0.9704    0.0000 C   0  0  0  0  0  0  0  0  0  0  0  0
    5.6451   -5.0396    0.0000 C   0  0  0  0  0  0  0  0  0  0  0  0
    4.7430   -4.5188    0.0000 C   0  0  0  0  0  0  0  0  0  0  0  0
    3.8242   -2.9132    0.0000 C   0  0  0  0  0  0  0  0  0  0  0  0
    2.8763   -3.4411    0.0000 C   0  0  0  0  0  0  0  0  0  0  0  0
    3.8076   -5.0686    0.0000 C   0  0  0  0  0  0  0  0  0  0  0  0
    2.8680   -4.5261    0.0000 C   0  0  0  0  0  0  0  0  0  0  0  0
    9.6285   -0.5089    0.0000 C   0  0  0  0  0  0  0  0  0  0  0  0
    9.9391    0.4416    0.0000 C   0  0  0  0  0  0  0  0  0  0  0  0
   10.9176    0.6478    0.0000 C   0  0  0  0  0  0  0  0  0  0  0  0
   11.2283    1.5983    0.0000 C   0  0  0  0  0  0  0  0  0  0  0  0
   12.2068    1.8046    0.0000 C   0  0  0  0  0  0  0  0  0  0  0  0
   12.5175    2.7551    0.0000 C   0  0  0  0  0  0  0  0  0  0  0  0
   13.4960    2.9613    0.0000 C   0  0  0  0  0  0  0  0  0  0  0  0
   13.8066    3.9118    0.0000 C   0  0  0  0  0  0  0  0  0  0  0  0
   14.7851    4.1180    0.0000 C   0  0  0  0  0  0  0  0  0  0  0  0
   15.0958    5.0686    0.0000 C   0  0  0  0  0  0  0  0  0  0  0  0
    7.4830   -3.8156    0.0000 H   0  0  0  0  0  0  0  0  0  0  0  0
    7.2664   -3.8897    0.0000 H   0  0  0  0  0  0  0  0  0  0  0  0
    6.3972   -2.5454    0.0000 H   0  0  0  0  0  0  0  0  0  0  0  0
    6.9256   -0.9954    0.0000 H   0  0  0  0  0  0  0  0  0  0  0  0
    6.1285   -0.9954    0.0000 H   0  0  0  0  0  0  0  0  0  0  0  0
    7.7396   -1.0633    0.0000 H   0  0  0  0  0  0  0  0  0  0  0  0
    8.0883   -3.8420    0.0000 H   0  0  0  0  0  0  0  0  0  0  0  0
    8.8767   -3.5844    0.0000 H   0  0  0  0  0  0  0  0  0  0  0  0
    5.4490   -1.3878    0.0000 H   0  0  0  0  0  0  0  0  0  0  0  0
    5.0504   -2.0780    0.0000 H   0  0  0  0  0  0  0  0  0  0  0  0
    4.7674   -2.6274    0.0000 H   0  0  0  0  0  0  0  0  0  0  0  0
    9.3838   -2.8851    0.0000 H   0  0  0  0  0  0  0  0  0  0  0  0
    9.3838   -2.0557    0.0000 H   0  0  0  0  0  0  0  0  0  0  0  0
    6.7612   -5.0923    0.0000 H   0  0  0  0  0  0  0  0  0  0  0  0
    7.1523   -4.3964    0.0000 H   0  0  0  0  0  0  0  0  0  0  0  0
    8.0131   -0.9704    0.0000 H   0  0  0  0  0  0  0  0  0  0  0  0
    7.3931   -0.3504    0.0000 H   0  0  0  0  0  0  0  0  0  0  0  0
    6.7731   -0.9704    0.0000 H   0  0  0  0  0  0  0  0  0  0  0  0
    5.2478   -5.5156    0.0000 H   0  0  0  0  0  0  0  0  0  0  0  0
    6.0460   -5.5125    0.0000 H   0  0  0  0  0  0  0  0  0  0  0  0
    4.2324   -2.4465    0.0000 H   0  0  0  0  0  0  0  0  0  0  0  0
    3.4343   -2.4311    0.0000 H   0  0  0  0  0  0  0  0  0  0  0  0
    2.6718   -2.8558    0.0000 H   0  0  0  0  0  0  0  0  0  0  0  0
    2.2647   -3.5425    0.0000 H   0  0  0  0  0  0  0  0  0  0  0  0
    3.8100   -5.6886    0.0000 H   0  0  0  0  0  0  0  0  0  0  0  0
    9.9186    1.0613    0.0000 H   0  0  0  0  0  0  0  0  0  0  0  0
    9.3253    0.5290    0.0000 H   0  0  0  0  0  0  0  0  0  0  0  0
   10.9382    0.0282    0.0000 H   0  0  0  0  0  0  0  0  0  0  0  0
   11.5315    0.5605    0.0000 H   0  0  0  0  0  0  0  0  0  0  0  0
   11.2077    2.2180    0.0000 H   0  0  0  0  0  0  0  0  0  0  0  0
   10.6145    1.6857    0.0000 H   0  0  0  0  0  0  0  0  0  0  0  0
   12.2274    1.1849    0.0000 H   0  0  0  0  0  0  0  0  0  0  0  0
   12.8206    1.7172    0.0000 H   0  0  0  0  0  0  0  0  0  0  0  0
   12.4969    3.3747    0.0000 H   0  0  0  0  0  0  0  0  0  0  0  0
   11.9037    2.8424    0.0000 H   0  0  0  0  0  0  0  0  0  0  0  0
   13.5165    2.3416    0.0000 H   0  0  0  0  0  0  0  0  0  0  0  0
   14.1098    2.8739    0.0000 H   0  0  0  0  0  0  0  0  0  0  0  0
   13.7861    4.5315    0.0000 H   0  0  0  0  0  0  0  0  0  0  0  0
   13.1928    3.9992    0.0000 H   0  0  0  0  0  0  0  0  0  0  0  0
   14.8057    3.4984    0.0000 H   0  0  0  0  0  0  0  0  0  0  0  0
   15.3990    4.0307    0.0000 H   0  0  0  0  0  0  0  0  0  0  0  0
   15.6851    4.8759    0.0000 H   0  0  0  0  0  0  0  0  0  0  0  0
   15.2884    5.6579    0.0000 H   0  0  0  0  0  0  0  0  0  0  0  0
   14.5065    5.2612    0.0000 H   0  0  0  0  0  0  0  0  0  0  0  0
  1  9  1  0  0  0  0
  1 22  1  0  0  0  0
  2 21  2  0  0  0  0
  3 22  2  0  0  0  0
  4  5  1  0  0  0  0
  4  6  1  0  0  0  0
  4 10  1  0  0  0  0
  4 32  1  0  0  0  0
  5  8  1  0  0  0  0
  5  9  1  0  0  0  0
  5 15  1  0  0  0  0
  6  7  1  0  0  0  0
  6 14  1  0  0  0  0
  6 33  1  0  0  0  0
  7 11  1  0  0  0  0
  7 12  1  0  0  0  0
  7 34  1  0  0  0  0
  8 11  1  0  0  0  0
  8 35  1  0  0  0  0
  8 36  1  0  0  0  0
  9 13  1  0  0  0  0
  9 37  1  0  0  0  0
 10 13  1  0  0  0  0
 10 38  1  0  0  0  0
 10 39  1  0  0  0  0
 11 40  1  0  0  0  0
 11 41  1  0  0  0  0
 12 17  1  0  0  0  0
 12 18  1  0  0  0  0
 12 42  1  0  0  0  0
 13 43  1  0  0  0  0
 13 44  1  0  0  0  0
 14 16  1  0  0  0  0
 14 45  1  0  0  0  0
 14 46  1  0  0  0  0
 15 47  1  0  0  0  0
 15 48  1  0  0  0  0
 15 49  1  0  0  0  0
 16 17  1  0  0  0  0
 16 50  1  0  0  0  0
 16 51  1  0  0  0  0
 17 20  2  0  0  0  0
 18 19  1  0  0  0  0
 18 52  1  0  0  0  0
 18 53  1  0  0  0  0
 19 21  1  0  0  0  0
 19 54  1  0  0  0  0
 19 55  1  0  0  0  0
 20 21  1  0  0  0  0
 20 56  1  0  0  0  0
 22 23  1  0  0  0  0
 23 24  1  0  0  0  0
 23 57  1  0  0  0  0
 23 58  1  0  0  0  0
 24 25  1  0  0  0  0
 24 59  1  0  0  0  0
 24 60  1  0  0  0  0
 25 26  1  0  0  0  0
 25 61  1  0  0  0  0
 25 62  1  0  0  0  0
 26 27  1  0  0  0  0
 26 63  1  0  0  0  0
 26 64  1  0  0  0  0
 27 28  1  0  0  0  0
 27 65  1  0  0  0  0
 27 66  1  0  0  0  0
 28 29  1  0  0  0  0
 28 67  1  0  0  0  0
 28 68  1  0  0  0  0
 29 30  1  0  0  0  0
 29 69  1  0  0  0  0
 29 70  1  0  0  0  0
 30 31  1  0  0  0  0
 30 71  1  0  0  0  0
 30 72  1  0  0  0  0
 31 73  1  0  0  0  0
 31 74  1  0  0  0  0
 31 75  1  0  0  0  0
M  END
> <PUBCHEM_COMPOUND_CID>
4432

> <PUBCHEM_COMPOUND_CANONICALIZED>
1

> <PUBCHEM_CACTVS_COMPLEXITY>
680

> <PUBCHEM_CACTVS_HBOND_ACCEPTOR>
3

> <PUBCHEM_CACTVS_HBOND_DONOR>
0

> <PUBCHEM_CACTVS_ROTATABLE_BOND>
10

> <PUBCHEM_CACTVS_SUBSKEYS>
AAADcfB4MAAAAAAAAAAAAAAAAAAAAYAAAAAwYIAAAAAAAGDAAAAAGgAAAAAADxSggAICCAAABACIAqDSCAAAAAAgAAAACAEAAEgAABIAAQACAAAEgAAIAQOIyPCPgAAAAAAAAACAAAQAACAAAIAADAAAAA==

> <PUBCHEM_IUPAC_OPENEYE_NAME>
(13-methyl-3-oxo-2,6,7,8,9,10,11,12,14,15,16,17-dodecahydro-1H-cyclopenta[a]phenanthren-17-yl) decanoate

> <PUBCHEM_IUPAC_CAS_NAME>
decanoic acid (13-methyl-3-oxo-2,6,7,8,9,10,11,12,14,15,16,17-dodecahydro-1H-cyclopenta[a]phenanthren-17-yl) ester

> <PUBCHEM_IUPAC_NAME>
(13-methyl-3-oxo-2,6,7,8,9,10,11,12,14,15,16,17-dodecahydro-1H-cyclopenta[a]phenanthren-17-yl) decanoate

> <PUBCHEM_IUPAC_SYSTEMATIC_NAME>
(13-methyl-3-oxidanylidene-2,6,7,8,9,10,11,12,14,15,16,17-dodecahydro-1H-cyclopenta[a]phenanthren-17-yl) decanoate

> <PUBCHEM_IUPAC_TRADITIONAL_NAME>
capric acid (3-keto-13-methyl-2,6,7,8,9,10,11,12,14,15,16,17-dodecahydro-1H-cyclopenta[a]phenanthren-17-yl) ester

> <PUBCHEM_IUPAC_INCHI>
InChI=1S/C28H44O3/c1-3-4-5-6-7-8-9-10-27(30)31-26-16-15-25-24-13-11-20-19-21(29)12-14-22(20)23(24)17-18-28(25,26)2/h19,22-26H,3-18H2,1-2H3

> <PUBCHEM_IUPAC_INCHIKEY>
JKWKMORAXJQQSR-UHFFFAOYSA-N

> <PUBCHEM_XLOGP3>
7.3

> <PUBCHEM_EXACT_MASS>
428.329045

> <PUBCHEM_MOLECULAR_FORMULA>
C28H44O3

> <PUBCHEM_MOLECULAR_WEIGHT>
428.64716

> <PUBCHEM_OPENEYE_CAN_SMILES>
CCCCCCCCCC(=O)OC1CCC2C1(CCC3C2CCC4=CC(=O)CCC34)C

> <PUBCHEM_OPENEYE_ISO_SMILES>
CCCCCCCCCC(=O)OC1CCC2C1(CCC3C2CCC4=CC(=O)CCC34)C

> <PUBCHEM_CACTVS_TPSA>
43.4

> <PUBCHEM_MONOISOTOPIC_WEIGHT>
428.329045

> <PUBCHEM_TOTAL_CHARGE>
0

> <PUBCHEM_HEAVY_ATOM_COUNT>
31

> <PUBCHEM_ATOM_DEF_STEREO_COUNT>
0

> <PUBCHEM_ATOM_UDEF_STEREO_COUNT>
6

> <PUBCHEM_BOND_DEF_STEREO_COUNT>
0

> <PUBCHEM_BOND_UDEF_STEREO_COUNT>
0

> <PUBCHEM_ISOTOPIC_ATOM_COUNT>
0

> <PUBCHEM_COMPONENT_COUNT>
1

> <PUBCHEM_CACTVS_TAUTO_COUNT>
8

> <PUBCHEM_COORDINATE_TYPE>
1
5
255

> <PUBCHEM_BONDANNOTATIONS>
12  42  3
4  32  3
5  15  3
6  33  3
7  34  3
9  37  3

$$$$

