6812
  -OEChem-07051213082D

 22 23  0     0  0  0  0  0  0999 V2000
    3.0000   -0.8623    0.0000 S   0  0  0  0  0  0  0  0  0  0  0  0
    3.0000   -1.8623    0.0000 O   0  0  0  0  0  0  0  0  0  0  0  0
    2.0000   -0.8623    0.0000 O   0  0  0  0  0  0  0  0  0  0  0  0
    4.0000   -0.8623    0.0000 O   0  0  0  0  0  0  0  0  0  0  0  0
    3.8660    0.6377    0.0000 C   0  0  0  0  0  0  0  0  0  0  0  0
    3.0000    0.1377    0.0000 C   0  0  0  0  0  0  0  0  0  0  0  0
    3.8660    1.6377    0.0000 C   0  0  0  0  0  0  0  0  0  0  0  0
    2.1340    0.6377    0.0000 C   0  0  0  0  0  0  0  0  0  0  0  0
    4.7600    0.1030    0.0000 C   0  0  0  0  0  0  0  0  0  0  0  0
    3.0000    2.1377    0.0000 C   0  0  0  0  0  0  0  0  0  0  0  0
    4.7600    2.1723    0.0000 C   0  0  0  0  0  0  0  0  0  0  0  0
    2.1340    1.6377    0.0000 C   0  0  0  0  0  0  0  0  0  0  0  0
    5.6660    0.6169    0.0000 C   0  0  0  0  0  0  0  0  0  0  0  0
    5.6660    1.6585    0.0000 C   0  0  0  0  0  0  0  0  0  0  0  0
    1.5970    0.3277    0.0000 H   0  0  0  0  0  0  0  0  0  0  0  0
    4.7528   -0.5170    0.0000 H   0  0  0  0  0  0  0  0  0  0  0  0
    3.0000    2.7577    0.0000 H   0  0  0  0  0  0  0  0  0  0  0  0
    4.7528    2.7923    0.0000 H   0  0  0  0  0  0  0  0  0  0  0  0
    1.5970    1.9477    0.0000 H   0  0  0  0  0  0  0  0  0  0  0  0
    6.2018    0.3048    0.0000 H   0  0  0  0  0  0  0  0  0  0  0  0
    6.2018    1.9706    0.0000 H   0  0  0  0  0  0  0  0  0  0  0  0
    2.4631   -2.1723    0.0000 H   0  0  0  0  0  0  0  0  0  0  0  0
  1  2  1  0  0  0  0
  1  3  2  0  0  0  0
  1  4  2  0  0  0  0
  1  6  1  0  0  0  0
  2 22  1  0  0  0  0
  5  6  1  0  0  0  0
  5  7  1  0  0  0  0
  5  9  2  0  0  0  0
  6  8  2  0  0  0  0
  7 10  1  0  0  0  0
  7 11  2  0  0  0  0
  8 12  1  0  0  0  0
  8 15  1  0  0  0  0
  9 13  1  0  0  0  0
  9 16  1  0  0  0  0
 10 12  2  0  0  0  0
 10 17  1  0  0  0  0
 11 14  1  0  0  0  0
 11 18  1  0  0  0  0
 12 19  1  0  0  0  0
 13 14  2  0  0  0  0
 13 20  1  0  0  0  0
 14 21  1  0  0  0  0
M  END
> <PUBCHEM_COMPOUND_CID>
6812

> <PUBCHEM_COMPOUND_CANONICALIZED>
1

> <PUBCHEM_CACTVS_COMPLEXITY>
291

> <PUBCHEM_CACTVS_HBOND_ACCEPTOR>
3

> <PUBCHEM_CACTVS_HBOND_DONOR>
1

> <PUBCHEM_CACTVS_ROTATABLE_BOND>
1

> <PUBCHEM_CACTVS_SUBSKEYS>
AAADccBwMABAAAAAAAAAAAAAAAAAAAAAAAAwYAAAAAAAAADBUAAAGAQACAAADACAWAAwAcAAAIKAAiBCAHBCAEAgAAAIiBgAAIgIICKAERCAIAAggAAIiAcAgIAOgAAAgAAUAAAAAAEAACgAAAAAAAAAAA==

> <PUBCHEM_IUPAC_OPENEYE_NAME>
naphthalene-1-sulfonic acid

> <PUBCHEM_IUPAC_CAS_NAME>
1-naphthalenesulfonic acid

> <PUBCHEM_IUPAC_NAME>
naphthalene-1-sulfonic acid

> <PUBCHEM_IUPAC_SYSTEMATIC_NAME>
naphthalene-1-sulfonic acid

> <PUBCHEM_IUPAC_TRADITIONAL_NAME>
naphthalene-1-sulfonic acid

> <PUBCHEM_IUPAC_INCHI>
InChI=1S/C10H8O3S/c11-14(12,13)10-7-3-5-8-4-1-2-6-9(8)10/h1-7H,(H,11,12,13)

> <PUBCHEM_IUPAC_INCHIKEY>
PSZYNBSKGUBXEH-UHFFFAOYSA-N

> <PUBCHEM_XLOGP3_AA>
1.9

> <PUBCHEM_EXACT_MASS>
208.019415

> <PUBCHEM_MOLECULAR_FORMULA>
C10H8O3S

> <PUBCHEM_MOLECULAR_WEIGHT>
208.23372

> <PUBCHEM_OPENEYE_CAN_SMILES>
C1=CC=C2C(=C1)C=CC=C2S(=O)(=O)O

> <PUBCHEM_OPENEYE_ISO_SMILES>
C1=CC=C2C(=C1)C=CC=C2S(=O)(=O)O

> <PUBCHEM_CACTVS_TPSA>
62.8

> <PUBCHEM_MONOISOTOPIC_WEIGHT>
208.019415

> <PUBCHEM_TOTAL_CHARGE>
0

> <PUBCHEM_HEAVY_ATOM_COUNT>
14

> <PUBCHEM_ATOM_DEF_STEREO_COUNT>
0

> <PUBCHEM_ATOM_UDEF_STEREO_COUNT>
0

> <PUBCHEM_BOND_DEF_STEREO_COUNT>
0

> <PUBCHEM_BOND_UDEF_STEREO_COUNT>
0

> <PUBCHEM_ISOTOPIC_ATOM_COUNT>
0

> <PUBCHEM_COMPONENT_COUNT>
1

> <PUBCHEM_CACTVS_TAUTO_COUNT>
1

> <PUBCHEM_COORDINATE_TYPE>
1
5
255

> <PUBCHEM_BONDANNOTATIONS>
10  12  8
11  14  8
13  14  8
5  6  8
5  7  8
5  9  8
6  8  8
7  10  8
7  11  8
8  12  8
9  13  8

$$$$

