442881
  -OEChem-07051213002D

 47 50  0     1  0  0  0  0  0999 V2000
    6.1709   -1.2702    0.0000 O   0  0  0  0  0  0  0  0  0  0  0  0
    4.6660    2.4861    0.0000 O   0  0  0  0  0  0  0  0  0  0  0  0
    2.9176   -1.5485    0.0000 O   0  0  0  0  0  0  0  0  0  0  0  0
    5.5321    0.9861    0.0000 N   0  0  0  0  0  0  0  0  0  0  0  0
    4.6660   -0.5139    0.0000 N   0  0  0  0  0  0  0  0  0  0  0  0
    8.3040    0.4980    0.0000 N   0  0  0  0  0  0  0  0  0  0  0  0
    6.4783   -0.3186    0.0000 C   0  0  1  0  0  0  0  0  0  0  0  0
    7.0619    0.4861    0.0000 C   0  0  0  0  0  0  0  0  0  0  0  0
    6.4783    1.2908    0.0000 C   0  0  0  0  0  0  0  0  0  0  0  0
    5.5321   -0.0139    0.0000 C   0  0  0  0  0  0  0  0  0  0  0  0
    7.2883   -0.9050    0.0000 C   0  0  0  0  0  0  0  0  0  0  0  0
    4.6660    1.4861    0.0000 C   0  0  0  0  0  0  0  0  0  0  0  0
    8.2012   -0.4967    0.0000 C   0  0  0  0  0  0  0  0  0  0  0  0
    3.8000    0.9861    0.0000 C   0  0  0  0  0  0  0  0  0  0  0  0
    3.8000   -0.0139    0.0000 C   0  0  0  0  0  0  0  0  0  0  0  0
    7.1855   -1.8997    0.0000 C   0  0  0  0  0  0  0  0  0  0  0  0
    9.0112   -1.0831    0.0000 C   0  0  0  0  0  0  0  0  0  0  0  0
    7.9955   -2.4861    0.0000 C   0  0  0  0  0  0  0  0  0  0  0  0
    2.9061   -0.5486    0.0000 C   0  0  0  0  0  0  0  0  0  0  0  0
    2.9061    1.5208    0.0000 C   0  0  0  0  0  0  0  0  0  0  0  0
    8.9084   -2.0778    0.0000 C   0  0  0  0  0  0  0  0  0  0  0  0
    2.0000   -0.0347    0.0000 C   0  0  0  0  0  0  0  0  0  0  0  0
    2.0000    1.0069    0.0000 C   0  0  0  0  0  0  0  0  0  0  0  0
    9.2168    0.9063    0.0000 C   0  0  0  0  0  0  0  0  0  0  0  0
    7.4939    1.0844    0.0000 C   0  0  0  0  0  0  0  0  0  0  0  0
    2.0574   -2.0585    0.0000 C   0  0  0  0  0  0  0  0  0  0  0  0
    7.5228    0.0714    0.0000 H   0  0  0  0  0  0  0  0  0  0  0  0
    7.5228    0.9008    0.0000 H   0  0  0  0  0  0  0  0  0  0  0  0
    7.0157    1.6001    0.0000 H   0  0  0  0  0  0  0  0  0  0  0  0
    6.2272    1.8577    0.0000 H   0  0  0  0  0  0  0  0  0  0  0  0
    5.5647   -1.4002    0.0000 H   0  0  0  0  0  0  0  0  0  0  0  0
    6.6195   -2.1529    0.0000 H   0  0  0  0  0  0  0  0  0  0  0  0
    9.5772   -0.8299    0.0000 H   0  0  0  0  0  0  0  0  0  0  0  0
    7.9318   -3.1028    0.0000 H   0  0  0  0  0  0  0  0  0  0  0  0
    2.9132    2.1407    0.0000 H   0  0  0  0  0  0  0  0  0  0  0  0
    9.4106   -2.4413    0.0000 H   0  0  0  0  0  0  0  0  0  0  0  0
    1.4643   -0.3468    0.0000 H   0  0  0  0  0  0  0  0  0  0  0  0
    1.4643    1.3190    0.0000 H   0  0  0  0  0  0  0  0  0  0  0  0
    9.4700    0.3404    0.0000 H   0  0  0  0  0  0  0  0  0  0  0  0
    7.8575    1.5866    0.0000 H   0  0  0  0  0  0  0  0  0  0  0  0
    6.9917    1.4480    0.0000 H   0  0  0  0  0  0  0  0  0  0  0  0
    7.1304    0.5822    0.0000 H   0  0  0  0  0  0  0  0  0  0  0  0
    9.7828    1.1595    0.0000 H   0  0  0  0  0  0  0  0  0  0  0  0
    8.9636    1.4723    0.0000 H   0  0  0  0  0  0  0  0  0  0  0  0
    1.7413   -1.5252    0.0000 H   0  0  0  0  0  0  0  0  0  0  0  0
    1.5241   -2.3747    0.0000 H   0  0  0  0  0  0  0  0  0  0  0  0
    2.3736   -2.5918    0.0000 H   0  0  0  0  0  0  0  0  0  0  0  0
  7  1  1  6  0  0  0
  1 31  1  0  0  0  0
  2 12  2  0  0  0  0
  3 19  1  0  0  0  0
  3 26  1  0  0  0  0
  4  9  1  0  0  0  0
  4 10  1  0  0  0  0
  4 12  1  0  0  0  0
  5 10  2  0  0  0  0
  5 15  1  0  0  0  0
  6 13  1  0  0  0  0
  6 24  1  0  0  0  0
  6 25  1  0  0  0  0
  7  8  1  0  0  0  0
  7 10  1  0  0  0  0
  7 11  1  0  0  0  0
  8  9  1  0  0  0  0
  8 27  1  0  0  0  0
  8 28  1  0  0  0  0
  9 29  1  0  0  0  0
  9 30  1  0  0  0  0
 11 13  1  0  0  0  0
 11 16  2  0  0  0  0
 12 14  1  0  0  0  0
 13 17  2  0  0  0  0
 14 15  2  0  0  0  0
 14 20  1  0  0  0  0
 15 19  1  0  0  0  0
 16 18  1  0  0  0  0
 16 32  1  0  0  0  0
 17 21  1  0  0  0  0
 17 33  1  0  0  0  0
 18 21  2  0  0  0  0
 18 34  1  0  0  0  0
 19 22  2  0  0  0  0
 20 23  2  0  0  0  0
 20 35  1  0  0  0  0
 21 36  1  0  0  0  0
 22 23  1  0  0  0  0
 22 37  1  0  0  0  0
 23 38  1  0  0  0  0
 24 39  1  0  0  0  0
 24 43  1  0  0  0  0
 24 44  1  0  0  0  0
 25 40  1  0  0  0  0
 25 41  1  0  0  0  0
 25 42  1  0  0  0  0
 26 45  1  0  0  0  0
 26 46  1  0  0  0  0
 26 47  1  0  0  0  0
M  END
> <PUBCHEM_COMPOUND_CID>
442881

> <PUBCHEM_COMPOUND_CANONICALIZED>
1

> <PUBCHEM_CACTVS_COMPLEXITY>
593

> <PUBCHEM_CACTVS_HBOND_ACCEPTOR>
5

> <PUBCHEM_CACTVS_HBOND_DONOR>
1

> <PUBCHEM_CACTVS_ROTATABLE_BOND>
3

> <PUBCHEM_CACTVS_SUBSKEYS>
AAADceB7MAAAAAAAAAAAAAAAAAAAAWAAAAAwYIAAAAAAAECBQAAAHgAACAAADEzBmAYzxoMABgCoAidydASCCAElIgAJiAEvbMgOJjrE/ZuFcahmxhHY+ce6yPCOgAABAAACEAAAAAIAAAQgAAAAAAAAAA==

> <PUBCHEM_IUPAC_OPENEYE_NAME>
(3R)-3-[2-(dimethylamino)phenyl]-3-hydroxy-5-methoxy-1,2-dihydropyrrolo[2,1-b]quinazolin-9-one

> <PUBCHEM_IUPAC_CAS_NAME>
(3R)-3-[2-(dimethylamino)phenyl]-3-hydroxy-5-methoxy-1,2-dihydropyrrolo[2,1-b]quinazolin-9-one

> <PUBCHEM_IUPAC_NAME>
(3R)-3-[2-(dimethylamino)phenyl]-3-hydroxy-5-methoxy-1,2-dihydropyrrolo[2,1-b]quinazolin-9-one

> <PUBCHEM_IUPAC_SYSTEMATIC_NAME>
(3R)-3-[2-(dimethylamino)phenyl]-5-methoxy-3-oxidanyl-1,2-dihydropyrrolo[2,1-b]quinazolin-9-one

> <PUBCHEM_IUPAC_TRADITIONAL_NAME>
(3R)-3-[2-(dimethylamino)phenyl]-3-hydroxy-5-methoxy-1,2-dihydropyrrolo[2,1-b]quinazolin-9-one

> <PUBCHEM_IUPAC_INCHI>
InChI=1S/C20H21N3O3/c1-22(2)15-9-5-4-8-14(15)20(25)11-12-23-18(24)13-7-6-10-16(26-3)17(13)21-19(20)23/h4-10,25H,11-12H2,1-3H3/t20-/m1/s1

> <PUBCHEM_IUPAC_INCHIKEY>
HSGFCNFPJXZBFJ-HXUWFJFHSA-N

> <PUBCHEM_XLOGP3_AA>
2

> <PUBCHEM_EXACT_MASS>
351.158292

> <PUBCHEM_MOLECULAR_FORMULA>
C20H21N3O3

> <PUBCHEM_MOLECULAR_WEIGHT>
351.39904

> <PUBCHEM_OPENEYE_CAN_SMILES>
CN(C)C1=CC=CC=C1C2(CCN3C2=NC4=C(C3=O)C=CC=C4OC)O

> <PUBCHEM_OPENEYE_ISO_SMILES>
CN(C)C1=CC=CC=C1[C@@]2(CCN3C2=NC4=C(C3=O)C=CC=C4OC)O

> <PUBCHEM_CACTVS_TPSA>
65.4

> <PUBCHEM_MONOISOTOPIC_WEIGHT>
351.158292

> <PUBCHEM_TOTAL_CHARGE>
0

> <PUBCHEM_HEAVY_ATOM_COUNT>
26

> <PUBCHEM_ATOM_DEF_STEREO_COUNT>
1

> <PUBCHEM_ATOM_UDEF_STEREO_COUNT>
0

> <PUBCHEM_BOND_DEF_STEREO_COUNT>
0

> <PUBCHEM_BOND_UDEF_STEREO_COUNT>
0

> <PUBCHEM_ISOTOPIC_ATOM_COUNT>
0

> <PUBCHEM_COMPONENT_COUNT>
1

> <PUBCHEM_CACTVS_TAUTO_COUNT>
1

> <PUBCHEM_COORDINATE_TYPE>
1
5
255

> <PUBCHEM_BONDANNOTATIONS>
7  1  6
11  13  8
11  16  8
12  14  8
13  17  8
14  15  8
14  20  8
15  19  8
16  18  8
17  21  8
18  21  8
19  22  8
20  23  8
22  23  8
4  10  8
4  12  8
5  10  8
5  15  8

$$$$

