105153
  -OEChem-07051213092D

  1  0  0     0  0  0  0  0  0999 V2000
    2.0000    0.0000    0.0000 Rb  0  3  0  0  0  0  0  0  0  0  0  0
M  CHG  1   1   1
M  END
> <PUBCHEM_COMPOUND_CID>
105153

> <PUBCHEM_COMPOUND_CANONICALIZED>
1

> <PUBCHEM_CACTVS_COMPLEXITY>
0

> <PUBCHEM_CACTVS_HBOND_ACCEPTOR>
0

> <PUBCHEM_CACTVS_HBOND_DONOR>
0

> <PUBCHEM_CACTVS_ROTATABLE_BOND>
0

> <PUBCHEM_CACTVS_SUBSKEYS>
AAADcQAAAAAAAAAACAAAAAAAAAAAAAAAAAAAAAAAAAAAAAAAAAAAAAAAAAAAAAAAAAAAAAAAAAAAAAAAAAAAAAAAAAAAAAAAAAAAAAAAAAAAAAAAAAAAAAAAAAAAAAAAAAAAAAAAAAAAAAAAAAAAAAAAAA==

> <PUBCHEM_IUPAC_OPENEYE_NAME>
rubidium(1+)

> <PUBCHEM_IUPAC_CAS_NAME>
rubidium(1+)

> <PUBCHEM_IUPAC_NAME>
rubidium(1+)

> <PUBCHEM_IUPAC_SYSTEMATIC_NAME>
rubidium(1+)

> <PUBCHEM_IUPAC_TRADITIONAL_NAME>
rubidium(1+)

> <PUBCHEM_IUPAC_INCHI>
InChI=1S/Rb/q+1

> <PUBCHEM_IUPAC_INCHIKEY>
NCCSSGKUIKYAJD-UHFFFAOYSA-N

> <PUBCHEM_EXACT_MASS>
84.91179

> <PUBCHEM_MOLECULAR_FORMULA>
Rb+

> <PUBCHEM_MOLECULAR_WEIGHT>
85.4678

> <PUBCHEM_OPENEYE_CAN_SMILES>
[Rb+]

> <PUBCHEM_OPENEYE_ISO_SMILES>
[Rb+]

> <PUBCHEM_CACTVS_TPSA>
0

> <PUBCHEM_MONOISOTOPIC_WEIGHT>
84.91179

> <PUBCHEM_TOTAL_CHARGE>
1

> <PUBCHEM_HEAVY_ATOM_COUNT>
1

> <PUBCHEM_ATOM_DEF_STEREO_COUNT>
0

> <PUBCHEM_ATOM_UDEF_STEREO_COUNT>
0

> <PUBCHEM_BOND_DEF_STEREO_COUNT>
0

> <PUBCHEM_BOND_UDEF_STEREO_COUNT>
0

> <PUBCHEM_ISOTOPIC_ATOM_COUNT>
0

> <PUBCHEM_COMPONENT_COUNT>
1

> <PUBCHEM_CACTVS_TAUTO_COUNT>
1

> <PUBCHEM_COORDINATE_TYPE>
1
5
255

$$$$

