10825
  -OEChem-06261205002D

 33 34  0     0  0  0  0  0  0999 V2000
    3.7320    1.0600    0.0000 S   0  0  0  0  0  0  0  0  0  0  0  0
    3.2320    1.9260    0.0000 O   0  0  0  0  0  0  0  0  0  0  0  0
    4.2320    0.1940    0.0000 O   0  0  0  0  0  0  0  0  0  0  0  0
    2.0000   -3.9400    0.0000 O   0  0  0  0  0  0  0  0  0  0  0  0
    3.7320   -3.9400    0.0000 O   0  0  0  0  0  0  0  0  0  0  0  0
    2.8660    0.5600    0.0000 N   0  0  0  0  0  0  0  0  0  0  0  0
    4.5981    1.5600    0.0000 C   0  0  0  0  0  0  0  0  0  0  0  0
    4.5981    2.5600    0.0000 C   0  0  0  0  0  0  0  0  0  0  0  0
    2.8660   -0.4400    0.0000 C   0  0  0  0  0  0  0  0  0  0  0  0
    5.4641    3.0600    0.0000 C   0  0  0  0  0  0  0  0  0  0  0  0
    3.7320    3.0600    0.0000 C   0  0  0  0  0  0  0  0  0  0  0  0
    2.0000   -0.9400    0.0000 C   0  0  0  0  0  0  0  0  0  0  0  0
    3.7320   -0.9400    0.0000 C   0  0  0  0  0  0  0  0  0  0  0  0
    2.8660   -2.4400    0.0000 C   0  0  0  0  0  0  0  0  0  0  0  0
    2.0000   -1.9400    0.0000 C   0  0  0  0  0  0  0  0  0  0  0  0
    3.7320   -1.9400    0.0000 C   0  0  0  0  0  0  0  0  0  0  0  0
    5.4641    4.0600    0.0000 C   0  0  0  0  0  0  0  0  0  0  0  0
    3.7320    4.0600    0.0000 C   0  0  0  0  0  0  0  0  0  0  0  0
    4.5981    4.5600    0.0000 C   0  0  0  0  0  0  0  0  0  0  0  0
    2.8660   -3.4400    0.0000 C   0  0  0  0  0  0  0  0  0  0  0  0
    4.8101    0.9774    0.0000 H   0  0  0  0  0  0  0  0  0  0  0  0
    5.2087    1.6677    0.0000 H   0  0  0  0  0  0  0  0  0  0  0  0
    2.3291    0.8700    0.0000 H   0  0  0  0  0  0  0  0  0  0  0  0
    6.0010    2.7500    0.0000 H   0  0  0  0  0  0  0  0  0  0  0  0
    3.1951    2.7500    0.0000 H   0  0  0  0  0  0  0  0  0  0  0  0
    1.4631   -0.6300    0.0000 H   0  0  0  0  0  0  0  0  0  0  0  0
    4.2690   -0.6300    0.0000 H   0  0  0  0  0  0  0  0  0  0  0  0
    1.4631   -2.2500    0.0000 H   0  0  0  0  0  0  0  0  0  0  0  0
    4.2690   -2.2500    0.0000 H   0  0  0  0  0  0  0  0  0  0  0  0
    6.0010    4.3700    0.0000 H   0  0  0  0  0  0  0  0  0  0  0  0
    3.1951    4.3700    0.0000 H   0  0  0  0  0  0  0  0  0  0  0  0
    4.5981    5.1800    0.0000 H   0  0  0  0  0  0  0  0  0  0  0  0
    2.0000   -4.5600    0.0000 H   0  0  0  0  0  0  0  0  0  0  0  0
  1  2  2  0  0  0  0
  1  3  2  0  0  0  0
  1  6  1  0  0  0  0
  1  7  1  0  0  0  0
  4 20  1  0  0  0  0
  4 33  1  0  0  0  0
  5 20  2  0  0  0  0
  6  9  1  0  0  0  0
  6 23  1  0  0  0  0
  7  8  1  0  0  0  0
  7 21  1  0  0  0  0
  7 22  1  0  0  0  0
  8 10  2  0  0  0  0
  8 11  1  0  0  0  0
  9 12  2  0  0  0  0
  9 13  1  0  0  0  0
 10 17  1  0  0  0  0
 10 24  1  0  0  0  0
 11 18  2  0  0  0  0
 11 25  1  0  0  0  0
 12 15  1  0  0  0  0
 12 26  1  0  0  0  0
 13 16  2  0  0  0  0
 13 27  1  0  0  0  0
 14 15  2  0  0  0  0
 14 16  1  0  0  0  0
 14 20  1  0  0  0  0
 15 28  1  0  0  0  0
 16 29  1  0  0  0  0
 17 19  2  0  0  0  0
 17 30  1  0  0  0  0
 18 19  1  0  0  0  0
 18 31  1  0  0  0  0
 19 32  1  0  0  0  0
M  END
> <PUBCHEM_COMPOUND_CID>
10825

> <PUBCHEM_COMPOUND_CANONICALIZED>
1

> <PUBCHEM_CACTVS_COMPLEXITY>
415

> <PUBCHEM_CACTVS_HBOND_ACCEPTOR>
5

> <PUBCHEM_CACTVS_HBOND_DONOR>
2

> <PUBCHEM_CACTVS_ROTATABLE_BOND>
5

> <PUBCHEM_CACTVS_SUBSKEYS>
AAADccByOABAAAAAAAAAAAAAAAAAAAAAAAAwYAAAAAAAAAABQAAAHgQQSAAADAiF2ACwyIBAAgKIAiTSSHDCAAAkAgAIiAEAbMgIJjKAlZGAcQBk0AEI2YeY2SGeCAAAAAAAAAAQAAAAAAAAAAAAAAAAAA==

> <PUBCHEM_IUPAC_OPENEYE_NAME>
4-(benzylsulfonylamino)benzoic acid

> <PUBCHEM_IUPAC_CAS_NAME>
4-[(phenylmethyl)sulfonylamino]benzoic acid

> <PUBCHEM_IUPAC_NAME>
4-(benzylsulfonylamino)benzoic acid

> <PUBCHEM_IUPAC_SYSTEMATIC_NAME>
4-[(phenylmethyl)sulfonylamino]benzoic acid

> <PUBCHEM_IUPAC_TRADITIONAL_NAME>
4-(benzylsulfonylamino)benzoic acid

> <PUBCHEM_IUPAC_INCHI>
InChI=1S/C14H13NO4S/c16-14(17)12-6-8-13(9-7-12)15-20(18,19)10-11-4-2-1-3-5-11/h1-9,15H,10H2,(H,16,17)

> <PUBCHEM_IUPAC_INCHIKEY>
ZOFLWJXPXAHZLI-UHFFFAOYSA-N

> <PUBCHEM_XLOGP3_AA>
1.9

> <PUBCHEM_EXACT_MASS>
291.056529

> <PUBCHEM_MOLECULAR_FORMULA>
C14H13NO4S

> <PUBCHEM_MOLECULAR_WEIGHT>
291.32232

> <PUBCHEM_OPENEYE_CAN_SMILES>
C1=CC=C(C=C1)CS(=O)(=O)NC2=CC=C(C=C2)C(=O)O

> <PUBCHEM_OPENEYE_ISO_SMILES>
C1=CC=C(C=C1)CS(=O)(=O)NC2=CC=C(C=C2)C(=O)O

> <PUBCHEM_CACTVS_TPSA>
91.8

> <PUBCHEM_MONOISOTOPIC_WEIGHT>
291.056529

> <PUBCHEM_TOTAL_CHARGE>
0

> <PUBCHEM_HEAVY_ATOM_COUNT>
20

> <PUBCHEM_ATOM_DEF_STEREO_COUNT>
0

> <PUBCHEM_ATOM_UDEF_STEREO_COUNT>
0

> <PUBCHEM_BOND_DEF_STEREO_COUNT>
0

> <PUBCHEM_BOND_UDEF_STEREO_COUNT>
0

> <PUBCHEM_ISOTOPIC_ATOM_COUNT>
0

> <PUBCHEM_COMPONENT_COUNT>
1

> <PUBCHEM_CACTVS_TAUTO_COUNT>
3

> <PUBCHEM_COORDINATE_TYPE>
1
5
255

> <PUBCHEM_BONDANNOTATIONS>
10  17  8
11  18  8
12  15  8
13  16  8
14  15  8
14  16  8
17  19  8
18  19  8
8  10  8
8  11  8
9  12  8
9  13  8

$$$$

