   Color/Form

     * LARGE, MONOCLINIC PRISMS
     * COLORLESS CRYSTALS

   from [1]HSDB

   Boiling Point
        200 DEG C @ 20 MM HG
   from [2]HSDB

   Melting Point
        97.5-98 DEG C
   from [3]HSDB

   Density/Specific Gravity
        1.429 @ 15 DEG C/4 DEG C
   from [4]HSDB

   Dissociation Constants
        K1 @ 25 DEG: 4.60X10-5; K2: 6.0X10-6
   from [5]HSDB

   Solubilities

     * SOLUBILITY IN WATER (G/L): @ 0 DEG: 429; @ 20 DEG: 639; @ 50 DEG:
       957; @ 65 DEG: 1118; FREELY SOL IN ABSOLUTE ALCOHOL, ETHER; SOL IN
       BENZENE, CHLOROFORM; SLIGHTLY SOL IN PETROLEUM ETHER
     * SOL IN CONCENTRATED SULFURIC ACID

   from [6]HSDB

   Spectral Properties

     * INDEX OF REFRACTION: 1.41878 @ 106 DEG C/D
     * IR: 7386 (Sadtler Research Laboratories Prism Collection)
     * NMR: 4409 (Sadtler Research Laboratories Prism Collection)
     * NMR: 4409 (Sadtler Research Laboratories Spectral Collection)
     * MASS: 77 (Aldermaston, Eight Peak Index of Mass Spectra, UK)

   from [7]HSDB

   Other Chemical/Physical Properties
        VERY SLIGHT DECOMPOSITION AT 302-304 DEG C
   from [8]HSDB

   Computed Properties
   Molecular Weight                  132.11462 [g/mol]
   Molecular Formula                 C[5]H[8]O[4]
   XLogP3                            -0.3
   H-Bond Donor                      2
   H-Bond Acceptor                   4
   Rotatable Bond Count              4
   Exact Mass                        132.042259
   MonoIsotopic Mass                 132.042259
   Topological Polar Surface Area    74.6
   Heavy Atom Count                  9
   Formal Charge                     0
   Complexity                        104
   Isotope Atom Count                0
   Defined Atom Stereocenter Count   0
   Undefined Atom Stereocenter Count 0
   Defined Bond Stereocenter Count   0
   Undefined Bond Stereocenter Count 0
   Covalently-Bonded Unit Count      1
   Feature 3D Acceptor Count         4
   Feature 3D Anion Count            2
   Effective Rotor Count             4
   Conformer Sampling RMSD           0.6
   CID Conformer Count               [9]15

References

   1. http://toxnet.nlm.nih.gov/cgi-bin/sis/search/r?dbs+hsdb:@term+@rn+@rel+110-94-1
   2. http://toxnet.nlm.nih.gov/cgi-bin/sis/search/r?dbs+hsdb:@term+@rn+@rel+110-94-1
   3. http://toxnet.nlm.nih.gov/cgi-bin/sis/search/r?dbs+hsdb:@term+@rn+@rel+110-94-1
   4. http://toxnet.nlm.nih.gov/cgi-bin/sis/search/r?dbs+hsdb:@term+@rn+@rel+110-94-1
   5. http://toxnet.nlm.nih.gov/cgi-bin/sis/search/r?dbs+hsdb:@term+@rn+@rel+110-94-1
   6. http://toxnet.nlm.nih.gov/cgi-bin/sis/search/r?dbs+hsdb:@term+@rn+@rel+110-94-1
   7. http://toxnet.nlm.nih.gov/cgi-bin/sis/search/r?dbs+hsdb:@term+@rn+@rel+110-94-1
   8. http://toxnet.nlm.nih.gov/cgi-bin/sis/search/r?dbs+hsdb:@term+@rn+@rel+110-94-1
   9. http://pubchem.ncbi.nlm.nih.gov/vw3d/vw3d.cgi?cid=743
