441971
  -OEChem-07051212562D

 51 56  0     1  0  0  0  0  0999 V2000
    6.1914   -2.5020    0.0000 O   0  0  0  0  0  0  0  0  0  0  0  0
    5.4288    2.7315    0.0000 O   0  0  0  0  0  0  0  0  0  0  0  0
    5.8893   -1.9788    0.0000 N   0  0  3  0  0  0  0  0  0  0  0  0
    4.5654    1.2300    0.0000 N   0  0  0  0  0  0  0  0  0  0  0  0
    6.0985   -1.0070    0.0000 C   0  0  2  0  0  0  0  0  0  0  0  0
    5.2325   -0.5070    0.0000 C   0  0  2  0  0  0  0  0  0  0  0  0
    6.9646   -0.5070    0.0000 C   0  0  2  0  0  0  0  0  0  0  0  0
    5.2325    0.4930    0.0000 C   0  0  1  0  0  0  0  0  0  0  0  0
    4.4955   -1.1741    0.0000 C   0  0  0  0  0  0  0  0  0  0  0  0
    6.9646    0.4930    0.0000 C   0  0  0  0  0  0  0  0  0  0  0  0
    8.2128   -1.3349    0.0000 C   0  0  0  0  0  0  0  0  0  0  0  0
    7.7332   -1.1278    0.0000 C   0  0  0  0  0  0  0  0  0  0  0  0
    6.0985    0.9930    0.0000 C   0  0  0  0  0  0  0  0  0  0  0  0
    4.9006   -2.0819    0.0000 C   0  0  0  0  0  0  0  0  0  0  0  0
    4.2607   -0.2978    0.0000 C   0  0  0  0  0  0  0  0  0  0  0  0
    6.7144   -2.5224    0.0000 C   0  0  0  0  0  0  0  0  0  0  0  0
    7.6715   -2.7315    0.0000 C   0  0  0  0  0  0  0  0  0  0  0  0
    7.6115   -2.1083    0.0000 C   0  0  0  0  0  0  0  0  0  0  0  0
    3.9076    0.7579    0.0000 C   0  0  0  0  0  0  0  0  0  0  0  0
    3.5057   -1.1779    0.0000 C   0  0  0  0  0  0  0  0  0  0  0  0
    4.5637    2.2300    0.0000 C   0  0  0  0  0  0  0  0  0  0  0  0
    2.7751    1.0067    0.0000 C   0  0  0  0  0  0  0  0  0  0  0  0
    2.3678   -0.9553    0.0000 C   0  0  0  0  0  0  0  0  0  0  0  0
    2.0000    0.1444    0.0000 C   0  0  0  0  0  0  0  0  0  0  0  0
    3.6968    2.7285    0.0000 C   0  0  0  0  0  0  0  0  0  0  0  0
    5.3644    1.3327    0.0000 H   0  0  0  0  0  0  0  0  0  0  0  0
    4.1300   -0.6733    0.0000 H   0  0  0  0  0  0  0  0  0  0  0  0
    3.9590   -1.4849    0.0000 H   0  0  0  0  0  0  0  0  0  0  0  0
    7.5751    0.3853    0.0000 H   0  0  0  0  0  0  0  0  0  0  0  0
    7.1766    1.0756    0.0000 H   0  0  0  0  0  0  0  0  0  0  0  0
    8.7733   -1.5999    0.0000 H   0  0  0  0  0  0  0  0  0  0  0  0
    8.5174   -0.7949    0.0000 H   0  0  0  0  0  0  0  0  0  0  0  0
    8.3239   -1.3162    0.0000 H   0  0  0  0  0  0  0  0  0  0  0  0
    8.0272   -0.5820    0.0000 H   0  0  0  0  0  0  0  0  0  0  0  0
    6.4971    1.4679    0.0000 H   0  0  0  0  0  0  0  0  0  0  0  0
    5.7000    1.4679    0.0000 H   0  0  0  0  0  0  0  0  0  0  0  0
    4.3110   -2.2737    0.0000 H   0  0  0  0  0  0  0  0  0  0  0  0
    5.0293   -2.6884    0.0000 H   0  0  0  0  0  0  0  0  0  0  0  0
    6.2838   -2.9684    0.0000 H   0  0  0  0  0  0  0  0  0  0  0  0
    7.0735   -3.0278    0.0000 H   0  0  0  0  0  0  0  0  0  0  0  0
    7.5327   -3.3357    0.0000 H   0  0  0  0  0  0  0  0  0  0  0  0
    8.2642   -2.9134    0.0000 H   0  0  0  0  0  0  0  0  0  0  0  0
    7.7632   -2.7095    0.0000 H   0  0  0  0  0  0  0  0  0  0  0  0
    8.2303   -2.0700    0.0000 H   0  0  0  0  0  0  0  0  0  0  0  0
    3.7091   -1.7636    0.0000 H   0  0  0  0  0  0  0  0  0  0  0  0
    2.5853    1.5970    0.0000 H   0  0  0  0  0  0  0  0  0  0  0  0
    1.9586   -1.4212    0.0000 H   0  0  0  0  0  0  0  0  0  0  0  0
    1.3930    0.2704    0.0000 H   0  0  0  0  0  0  0  0  0  0  0  0
    4.0059    3.2660    0.0000 H   0  0  0  0  0  0  0  0  0  0  0  0
    3.1593    3.0376    0.0000 H   0  0  0  0  0  0  0  0  0  0  0  0
    3.3877    2.1910    0.0000 H   0  0  0  0  0  0  0  0  0  0  0  0
  5  1  1  6  0  0  0
  1 17  1  0  0  0  0
  2 21  2  0  0  0  0
  3  5  1  0  0  0  0
  3 14  1  0  0  0  0
  3 16  1  0  0  0  0
  4  8  1  0  0  0  0
  4 19  1  0  0  0  0
  4 21  1  0  0  0  0
  5  6  1  0  0  0  0
  5  7  1  0  0  0  0
  6  8  1  0  0  0  0
  6  9  1  1  0  0  0
  6 15  1  0  0  0  0
  7 10  1  1  0  0  0
  7 11  1  0  0  0  0
  7 12  1  0  0  0  0
  8 13  1  0  0  0  0
  8 26  1  1  0  0  0
  9 14  1  0  0  0  0
  9 27  1  0  0  0  0
  9 28  1  0  0  0  0
 10 13  1  0  0  0  0
 10 29  1  0  0  0  0
 10 30  1  0  0  0  0
 11 17  1  0  0  0  0
 11 31  1  0  0  0  0
 11 32  1  0  0  0  0
 12 18  1  0  0  0  0
 12 33  1  0  0  0  0
 12 34  1  0  0  0  0
 13 35  1  0  0  0  0
 13 36  1  0  0  0  0
 14 37  1  0  0  0  0
 14 38  1  0  0  0  0
 15 19  1  0  0  0  0
 15 20  2  0  0  0  0
 16 18  1  0  0  0  0
 16 39  1  0  0  0  0
 16 40  1  0  0  0  0
 17 41  1  0  0  0  0
 17 42  1  0  0  0  0
 18 43  1  0  0  0  0
 18 44  1  0  0  0  0
 19 22  2  0  0  0  0
 20 23  1  0  0  0  0
 20 45  1  0  0  0  0
 21 25  1  0  0  0  0
 22 24  1  0  0  0  0
 22 46  1  0  0  0  0
 23 24  2  0  0  0  0
 23 47  1  0  0  0  0
 24 48  1  0  0  0  0
 25 49  1  0  0  0  0
 25 50  1  0  0  0  0
 25 51  1  0  0  0  0
M  END
> <PUBCHEM_COMPOUND_CID>
441971

> <PUBCHEM_COMPOUND_CANONICALIZED>
1

> <PUBCHEM_CACTVS_COMPLEXITY>
623

> <PUBCHEM_CACTVS_HBOND_ACCEPTOR>
3

> <PUBCHEM_CACTVS_HBOND_DONOR>
0

> <PUBCHEM_CACTVS_ROTATABLE_BOND>
0

> <PUBCHEM_CACTVS_SUBSKEYS>
AAADceB7MAAAAAAAAAAAAAAAAAAAAWLEgAA8YIAAAAAAAFixAAAAHgAAAAAADizhmAYywIMABACIAiVSUACCAAAhAgAIiAAIZIgIICLA0ZGOIAhmxgHIyAew0PMPgAAAAAACAAAQAAQECBQAAAAAAAAAAA==

> <PUBCHEM_IUPAC_INCHI>
InChI=1S/C21H26N2O2/c1-15(24)23-17-6-3-2-5-16(17)20-10-13-22-12-4-8-19(9-7-18(20)23)11-14-25-21(19,20)22/h2-3,5-6,18H,4,7-14H2,1H3/t18-,19-,20-,21+/m1/s1

> <PUBCHEM_IUPAC_INCHIKEY>
APHMCINPFLAAQH-NCYKPQTJSA-N

> <PUBCHEM_XLOGP3_AA>
2.4

> <PUBCHEM_EXACT_MASS>
338.199428

> <PUBCHEM_MOLECULAR_FORMULA>
C21H26N2O2

> <PUBCHEM_MOLECULAR_WEIGHT>
338.44334

> <PUBCHEM_OPENEYE_CAN_SMILES>
CC(=O)N1C2CCC34CCCN5C3(C2(CC5)C6=CC=CC=C61)OCC4

> <PUBCHEM_OPENEYE_ISO_SMILES>
CC(=O)N1[C@@H]2CC[C@@]34CCCN5[C@]3([C@]2(CC5)C6=CC=CC=C61)OCC4

> <PUBCHEM_CACTVS_TPSA>
32.8

> <PUBCHEM_MONOISOTOPIC_WEIGHT>
338.199428

> <PUBCHEM_TOTAL_CHARGE>
0

> <PUBCHEM_HEAVY_ATOM_COUNT>
25

> <PUBCHEM_ATOM_DEF_STEREO_COUNT>
4

> <PUBCHEM_ATOM_UDEF_STEREO_COUNT>
0

> <PUBCHEM_BOND_DEF_STEREO_COUNT>
0

> <PUBCHEM_BOND_UDEF_STEREO_COUNT>
0

> <PUBCHEM_ISOTOPIC_ATOM_COUNT>
0

> <PUBCHEM_COMPONENT_COUNT>
1

> <PUBCHEM_CACTVS_TAUTO_COUNT>
1

> <PUBCHEM_COORDINATE_TYPE>
1
5
255

> <PUBCHEM_BONDANNOTATIONS>
5  1  6
15  19  8
15  20  8
19  22  8
20  23  8
22  24  8
23  24  8
6  9  5
7  10  5
8  26  5

$$$$

