16019959
  -OEChem-07051212482D

 23 22  0     1  0  0  0  0  0999 V2000
    6.8671   -1.4050    0.0000 S   0  0  3  0  0  0  0  0  0  0  0  0
    3.4030    1.5950    0.0000 P   0  0  0  0  0  0  0  0  0  0  0  0
    2.5369    1.0950    0.0000 O   0  0  0  0  0  0  0  0  0  0  0  0
    2.9030    2.4610    0.0000 O   0  0  0  0  0  0  0  0  0  0  0  0
    3.9030    0.7290    0.0000 O   0  0  0  0  0  0  0  0  0  0  0  0
    6.8671   -2.4050    0.0000 O   0  0  0  0  0  0  0  0  0  0  0  0
    7.7331   -0.9050    0.0000 O   0  0  0  0  0  0  0  0  0  0  0  0
    4.2690    2.0950    0.0000 N   0  0  0  0  0  0  0  0  0  0  0  0
    5.1350    0.5950    0.0000 N   0  0  0  0  0  0  0  0  0  0  0  0
    6.0010    2.0950    0.0000 N   0  0  0  0  0  0  0  0  0  0  0  0
    6.0010    0.0950    0.0000 C   0  0  0  0  0  0  0  0  0  0  0  0
    6.0010   -0.9050    0.0000 C   0  0  0  0  0  0  0  0  0  0  0  0
    5.1350    1.5950    0.0000 C   0  0  0  0  0  0  0  0  0  0  0  0
    6.6116   -0.0127    0.0000 H   0  0  0  0  0  0  0  0  0  0  0  0
    6.2131    0.6776    0.0000 H   0  0  0  0  0  0  0  0  0  0  0  0
    5.3905   -0.7973    0.0000 H   0  0  0  0  0  0  0  0  0  0  0  0
    5.7890   -1.4876    0.0000 H   0  0  0  0  0  0  0  0  0  0  0  0
    4.2690    2.7150    0.0000 H   0  0  0  0  0  0  0  0  0  0  0  0
    6.5380    1.7850    0.0000 H   0  0  0  0  0  0  0  0  0  0  0  0
    6.0010    2.7150    0.0000 H   0  0  0  0  0  0  0  0  0  0  0  0
    2.0000    1.4050    0.0000 H   0  0  0  0  0  0  0  0  0  0  0  0
    2.2830    2.4610    0.0000 H   0  0  0  0  0  0  0  0  0  0  0  0
    7.4040   -2.7150    0.0000 H   0  0  0  0  0  0  0  0  0  0  0  0
  1  6  1  0  0  0  0
  1  7  2  0  0  0  0
  1 12  1  0  0  0  0
  2  3  1  0  0  0  0
  2  4  1  0  0  0  0
  2  5  2  0  0  0  0
  2  8  1  0  0  0  0
  3 21  1  0  0  0  0
  4 22  1  0  0  0  0
  6 23  1  0  0  0  0
  8 13  1  0  0  0  0
  8 18  1  0  0  0  0
  9 11  1  0  0  0  0
  9 13  2  0  0  0  0
 10 13  1  0  0  0  0
 10 19  1  0  0  0  0
 10 20  1  0  0  0  0
 11 12  1  0  0  0  0
 11 14  1  0  0  0  0
 11 15  1  0  0  0  0
 12 16  1  0  0  0  0
 12 17  1  0  0  0  0
M  END
> <PUBCHEM_COMPOUND_CID>
16019959

> <PUBCHEM_COMPOUND_CANONICALIZED>
1

> <PUBCHEM_CACTVS_COMPLEXITY>
262

> <PUBCHEM_CACTVS_HBOND_ACCEPTOR>
7

> <PUBCHEM_CACTVS_HBOND_DONOR>
5

> <PUBCHEM_CACTVS_ROTATABLE_BOND>
5

> <PUBCHEM_CACTVS_SUBSKEYS>
AAADccBDOAJAAAAAAAAAAAAAAAAAAAAAAAAAAAAAAAAAAAAAAAAAHAQQiCAAAADFQASBAAJAAJIgQAAAJOBAAAEAAAAAAAAAAAAAAAAAAAAAAAAAAAAAAAAAAAAAAAAAAAAAAAAAAAAAAAAAAAAAAAAAAA==

> <PUBCHEM_IUPAC_OPENEYE_NAME>
2-[[amino-(phosphonoamino)methylene]amino]ethanesulfinic acid

> <PUBCHEM_IUPAC_CAS_NAME>
2-[[amino-(phosphonoamino)methylidene]amino]ethanesulfinic acid

> <PUBCHEM_IUPAC_NAME>
2-[[amino-(phosphonoamino)methylidene]amino]ethanesulfinic acid

> <PUBCHEM_IUPAC_SYSTEMATIC_NAME>
2-[[azanyl-(phosphonoamino)methylidene]amino]ethanesulfinic acid

> <PUBCHEM_IUPAC_TRADITIONAL_NAME>
2-[[amino-(phosphonoamino)methylene]amino]ethanesulfinic acid

> <PUBCHEM_IUPAC_INCHI>
InChI=1S/C3H10N3O5PS/c4-3(6-12(7,8)9)5-1-2-13(10)11/h1-2H2,(H,10,11)(H5,4,5,6,7,8,9)

> <PUBCHEM_IUPAC_INCHIKEY>
ZGZSALVJNJADDS-UHFFFAOYSA-N

> <PUBCHEM_XLOGP3_AA>
-3.4

> <PUBCHEM_EXACT_MASS>
231.007878

> <PUBCHEM_MOLECULAR_FORMULA>
C3H10N3O5PS

> <PUBCHEM_MOLECULAR_WEIGHT>
231.167362

> <PUBCHEM_OPENEYE_CAN_SMILES>
C(CS(=O)O)N=C(N)NP(=O)(O)O

> <PUBCHEM_OPENEYE_ISO_SMILES>
C(CS(=O)O)N=C(N)NP(=O)(O)O

> <PUBCHEM_CACTVS_TPSA>
164

> <PUBCHEM_MONOISOTOPIC_WEIGHT>
231.007878

> <PUBCHEM_TOTAL_CHARGE>
0

> <PUBCHEM_HEAVY_ATOM_COUNT>
13

> <PUBCHEM_ATOM_DEF_STEREO_COUNT>
0

> <PUBCHEM_ATOM_UDEF_STEREO_COUNT>
0

> <PUBCHEM_BOND_DEF_STEREO_COUNT>
0

> <PUBCHEM_BOND_UDEF_STEREO_COUNT>
0

> <PUBCHEM_ISOTOPIC_ATOM_COUNT>
0

> <PUBCHEM_COMPONENT_COUNT>
1

> <PUBCHEM_CACTVS_TAUTO_COUNT>
5

> <PUBCHEM_COORDINATE_TYPE>
1
5
255

$$$$

