10763
  -OEChem-06261204562D

109106  0     0  0  0  0  0  0999 V2000
    0.8660    6.4399    0.0000 S   0  0  0  0  0  0  0  0  0  0  0  0
    9.4651    3.5369    0.0000 O   0  0  0  0  0  0  0  0  0  0  0  0
    9.4651   10.9768    0.0000 O   0  0  0  0  0  0  0  0  0  0  0  0
    8.5991    5.0369    0.0000 O   0  0  0  0  0  0  0  0  0  0  0  0
    8.5991   12.4768    0.0000 O   0  0  0  0  0  0  0  0  0  0  0  0
    1.7320    6.9399    0.0000 O   0  5  0  0  0  0  0  0  0  0  0  0
    0.0000    5.9399    0.0000 O   0  5  0  0  0  0  0  0  0  0  0  0
    0.3660    7.3059    0.0000 O   0  0  0  0  0  0  0  0  0  0  0  0
    1.3660    5.5739    0.0000 O   0  0  0  0  0  0  0  0  0  0  0  0
   12.0632    4.0369    0.0000 N   0  3  0  0  0  0  0  0  0  0  0  0
   12.0632   11.4768    0.0000 N   0  3  0  0  0  0  0  0  0  0  0  0
    7.7331    3.5369    0.0000 N   0  0  0  0  0  0  0  0  0  0  0  0
    7.7331   10.9768    0.0000 N   0  0  0  0  0  0  0  0  0  0  0  0
   11.1972    3.5369    0.0000 C   0  0  0  0  0  0  0  0  0  0  0  0
   11.1972   10.9768    0.0000 C   0  0  0  0  0  0  0  0  0  0  0  0
   12.9292    4.5369    0.0000 C   0  0  0  0  0  0  0  0  0  0  0  0
   12.9292   11.9768    0.0000 C   0  0  0  0  0  0  0  0  0  0  0  0
   12.5632    3.1709    0.0000 C   0  0  0  0  0  0  0  0  0  0  0  0
   11.5632    4.9030    0.0000 C   0  0  0  0  0  0  0  0  0  0  0  0
   12.5632   10.6108    0.0000 C   0  0  0  0  0  0  0  0  0  0  0  0
   11.5632   12.3429    0.0000 C   0  0  0  0  0  0  0  0  0  0  0  0
   10.3312    4.0369    0.0000 C   0  0  0  0  0  0  0  0  0  0  0  0
   10.3312   11.4768    0.0000 C   0  0  0  0  0  0  0  0  0  0  0  0
   13.7953    4.0369    0.0000 C   0  0  0  0  0  0  0  0  0  0  0  0
   13.7953   11.4768    0.0000 C   0  0  0  0  0  0  0  0  0  0  0  0
    8.5991    4.0369    0.0000 C   0  0  0  0  0  0  0  0  0  0  0  0
    8.5991   11.4768    0.0000 C   0  0  0  0  0  0  0  0  0  0  0  0
    6.8671    4.0369    0.0000 C   0  0  0  0  0  0  0  0  0  0  0  0
    7.7331    2.5369    0.0000 C   0  0  0  0  0  0  0  0  0  0  0  0
    6.8671   11.4768    0.0000 C   0  0  0  0  0  0  0  0  0  0  0  0
    7.7331    9.9768    0.0000 C   0  0  0  0  0  0  0  0  0  0  0  0
    6.0010    3.5369    0.0000 C   0  0  0  0  0  0  0  0  0  0  0  0
    6.8671    2.0369    0.0000 C   0  0  0  0  0  0  0  0  0  0  0  0
    6.0010   10.9768    0.0000 C   0  0  0  0  0  0  0  0  0  0  0  0
    6.8671    9.4768    0.0000 C   0  0  0  0  0  0  0  0  0  0  0  0
    5.1350    4.0369    0.0000 C   0  0  0  0  0  0  0  0  0  0  0  0
    6.8671    1.0369    0.0000 C   0  0  0  0  0  0  0  0  0  0  0  0
    5.1350   11.4768    0.0000 C   0  0  0  0  0  0  0  0  0  0  0  0
    6.8671    8.4768    0.0000 C   0  0  0  0  0  0  0  0  0  0  0  0
    6.0010    0.5369    0.0000 C   0  0  0  0  0  0  0  0  0  0  0  0
    4.2690    3.5369    0.0000 C   0  0  0  0  0  0  0  0  0  0  0  0
    6.0010    7.9768    0.0000 C   0  0  0  0  0  0  0  0  0  0  0  0
    4.2690   10.9768    0.0000 C   0  0  0  0  0  0  0  0  0  0  0  0
   10.7987   10.5019    0.0000 H   0  0  0  0  0  0  0  0  0  0  0  0
   11.5957   10.5019    0.0000 H   0  0  0  0  0  0  0  0  0  0  0  0
   10.7987    3.0620    0.0000 H   0  0  0  0  0  0  0  0  0  0  0  0
   11.5957    3.0620    0.0000 H   0  0  0  0  0  0  0  0  0  0  0  0
   13.3278   12.4518    0.0000 H   0  0  0  0  0  0  0  0  0  0  0  0
   12.5307   12.4518    0.0000 H   0  0  0  0  0  0  0  0  0  0  0  0
   13.3278    5.0119    0.0000 H   0  0  0  0  0  0  0  0  0  0  0  0
   12.5307    5.0119    0.0000 H   0  0  0  0  0  0  0  0  0  0  0  0
   12.1002   12.6529    0.0000 H   0  0  0  0  0  0  0  0  0  0  0  0
   11.2532   12.8798    0.0000 H   0  0  0  0  0  0  0  0  0  0  0  0
   11.0263   12.0329    0.0000 H   0  0  0  0  0  0  0  0  0  0  0  0
   12.0263   10.3008    0.0000 H   0  0  0  0  0  0  0  0  0  0  0  0
   12.8732   10.0739    0.0000 H   0  0  0  0  0  0  0  0  0  0  0  0
   13.1002   10.9208    0.0000 H   0  0  0  0  0  0  0  0  0  0  0  0
   12.0263    2.8609    0.0000 H   0  0  0  0  0  0  0  0  0  0  0  0
   12.8732    2.6340    0.0000 H   0  0  0  0  0  0  0  0  0  0  0  0
   13.1002    3.4809    0.0000 H   0  0  0  0  0  0  0  0  0  0  0  0
   12.1002    5.2130    0.0000 H   0  0  0  0  0  0  0  0  0  0  0  0
   11.2532    5.4399    0.0000 H   0  0  0  0  0  0  0  0  0  0  0  0
   11.0263    4.5930    0.0000 H   0  0  0  0  0  0  0  0  0  0  0  0
   10.7297   11.9518    0.0000 H   0  0  0  0  0  0  0  0  0  0  0  0
    9.9326   11.9518    0.0000 H   0  0  0  0  0  0  0  0  0  0  0  0
   10.7297    4.5119    0.0000 H   0  0  0  0  0  0  0  0  0  0  0  0
    9.9326    4.5119    0.0000 H   0  0  0  0  0  0  0  0  0  0  0  0
   13.4853   10.9399    0.0000 H   0  0  0  0  0  0  0  0  0  0  0  0
   14.3322   11.1668    0.0000 H   0  0  0  0  0  0  0  0  0  0  0  0
   14.1053   12.0138    0.0000 H   0  0  0  0  0  0  0  0  0  0  0  0
   13.4853    3.5000    0.0000 H   0  0  0  0  0  0  0  0  0  0  0  0
   14.3322    3.7269    0.0000 H   0  0  0  0  0  0  0  0  0  0  0  0
   14.1053    4.5739    0.0000 H   0  0  0  0  0  0  0  0  0  0  0  0
    7.2656   11.9518    0.0000 H   0  0  0  0  0  0  0  0  0  0  0  0
    6.4685   11.9518    0.0000 H   0  0  0  0  0  0  0  0  0  0  0  0
    7.9451    1.9543    0.0000 H   0  0  0  0  0  0  0  0  0  0  0  0
    8.3437    2.6446    0.0000 H   0  0  0  0  0  0  0  0  0  0  0  0
    7.2656    4.5119    0.0000 H   0  0  0  0  0  0  0  0  0  0  0  0
    6.4685    4.5119    0.0000 H   0  0  0  0  0  0  0  0  0  0  0  0
    7.9451    9.3942    0.0000 H   0  0  0  0  0  0  0  0  0  0  0  0
    8.3437   10.0845    0.0000 H   0  0  0  0  0  0  0  0  0  0  0  0
    6.6550    2.6195    0.0000 H   0  0  0  0  0  0  0  0  0  0  0  0
    6.2565    1.9293    0.0000 H   0  0  0  0  0  0  0  0  0  0  0  0
    5.6025    3.0620    0.0000 H   0  0  0  0  0  0  0  0  0  0  0  0
    6.3996    3.0620    0.0000 H   0  0  0  0  0  0  0  0  0  0  0  0
    5.6025   10.5019    0.0000 H   0  0  0  0  0  0  0  0  0  0  0  0
    6.3996   10.5019    0.0000 H   0  0  0  0  0  0  0  0  0  0  0  0
    6.6550   10.0594    0.0000 H   0  0  0  0  0  0  0  0  0  0  0  0
    6.2565    9.3692    0.0000 H   0  0  0  0  0  0  0  0  0  0  0  0
    7.0791    7.8942    0.0000 H   0  0  0  0  0  0  0  0  0  0  0  0
    7.4776    8.5845    0.0000 H   0  0  0  0  0  0  0  0  0  0  0  0
    5.5335   11.9518    0.0000 H   0  0  0  0  0  0  0  0  0  0  0  0
    4.7365   11.9518    0.0000 H   0  0  0  0  0  0  0  0  0  0  0  0
    7.0791    0.4543    0.0000 H   0  0  0  0  0  0  0  0  0  0  0  0
    7.4776    1.1446    0.0000 H   0  0  0  0  0  0  0  0  0  0  0  0
    5.5335    4.5119    0.0000 H   0  0  0  0  0  0  0  0  0  0  0  0
    4.7365    4.5119    0.0000 H   0  0  0  0  0  0  0  0  0  0  0  0
    3.9590    4.0739    0.0000 H   0  0  0  0  0  0  0  0  0  0  0  0
    3.7320    3.2269    0.0000 H   0  0  0  0  0  0  0  0  0  0  0  0
    4.5790    3.0000    0.0000 H   0  0  0  0  0  0  0  0  0  0  0  0
    5.6910    1.0739    0.0000 H   0  0  0  0  0  0  0  0  0  0  0  0
    5.4641    0.2269    0.0000 H   0  0  0  0  0  0  0  0  0  0  0  0
    6.3110    0.0000    0.0000 H   0  0  0  0  0  0  0  0  0  0  0  0
    5.6910    8.5138    0.0000 H   0  0  0  0  0  0  0  0  0  0  0  0
    5.4641    7.6668    0.0000 H   0  0  0  0  0  0  0  0  0  0  0  0
    6.3110    7.4399    0.0000 H   0  0  0  0  0  0  0  0  0  0  0  0
    3.9590   11.5138    0.0000 H   0  0  0  0  0  0  0  0  0  0  0  0
    3.7320   10.6668    0.0000 H   0  0  0  0  0  0  0  0  0  0  0  0
    4.5790   10.4399    0.0000 H   0  0  0  0  0  0  0  0  0  0  0  0
  1  6  1  0  0  0  0
  1  7  1  0  0  0  0
  1  8  2  0  0  0  0
  1  9  2  0  0  0  0
  2 22  1  0  0  0  0
  2 26  1  0  0  0  0
  3 23  1  0  0  0  0
  3 27  1  0  0  0  0
  4 26  2  0  0  0  0
  5 27  2  0  0  0  0
 10 14  1  0  0  0  0
 10 16  1  0  0  0  0
 10 18  1  0  0  0  0
 10 19  1  0  0  0  0
 11 15  1  0  0  0  0
 11 17  1  0  0  0  0
 11 20  1  0  0  0  0
 11 21  1  0  0  0  0
 12 26  1  0  0  0  0
 12 28  1  0  0  0  0
 12 29  1  0  0  0  0
 13 27  1  0  0  0  0
 13 30  1  0  0  0  0
 13 31  1  0  0  0  0
 14 22  1  0  0  0  0
 14 46  1  0  0  0  0
 14 47  1  0  0  0  0
 15 23  1  0  0  0  0
 15 44  1  0  0  0  0
 15 45  1  0  0  0  0
 16 24  1  0  0  0  0
 16 50  1  0  0  0  0
 16 51  1  0  0  0  0
 17 25  1  0  0  0  0
 17 48  1  0  0  0  0
 17 49  1  0  0  0  0
 18 58  1  0  0  0  0
 18 59  1  0  0  0  0
 18 60  1  0  0  0  0
 19 61  1  0  0  0  0
 19 62  1  0  0  0  0
 19 63  1  0  0  0  0
 20 55  1  0  0  0  0
 20 56  1  0  0  0  0
 20 57  1  0  0  0  0
 21 52  1  0  0  0  0
 21 53  1  0  0  0  0
 21 54  1  0  0  0  0
 22 66  1  0  0  0  0
 22 67  1  0  0  0  0
 23 64  1  0  0  0  0
 23 65  1  0  0  0  0
 24 71  1  0  0  0  0
 24 72  1  0  0  0  0
 24 73  1  0  0  0  0
 25 68  1  0  0  0  0
 25 69  1  0  0  0  0
 25 70  1  0  0  0  0
 28 32  1  0  0  0  0
 28 78  1  0  0  0  0
 28 79  1  0  0  0  0
 29 33  1  0  0  0  0
 29 76  1  0  0  0  0
 29 77  1  0  0  0  0
 30 34  1  0  0  0  0
 30 74  1  0  0  0  0
 30 75  1  0  0  0  0
 31 35  1  0  0  0  0
 31 80  1  0  0  0  0
 31 81  1  0  0  0  0
 32 36  1  0  0  0  0
 32 84  1  0  0  0  0
 32 85  1  0  0  0  0
 33 37  1  0  0  0  0
 33 82  1  0  0  0  0
 33 83  1  0  0  0  0
 34 38  1  0  0  0  0
 34 86  1  0  0  0  0
 34 87  1  0  0  0  0
 35 39  1  0  0  0  0
 35 88  1  0  0  0  0
 35 89  1  0  0  0  0
 36 41  1  0  0  0  0
 36 96  1  0  0  0  0
 36 97  1  0  0  0  0
 37 40  1  0  0  0  0
 37 94  1  0  0  0  0
 37 95  1  0  0  0  0
 38 43  1  0  0  0  0
 38 92  1  0  0  0  0
 38 93  1  0  0  0  0
 39 42  1  0  0  0  0
 39 90  1  0  0  0  0
 39 91  1  0  0  0  0
 40101  1  0  0  0  0
 40102  1  0  0  0  0
 40103  1  0  0  0  0
 41 98  1  0  0  0  0
 41 99  1  0  0  0  0
 41100  1  0  0  0  0
 42104  1  0  0  0  0
 42105  1  0  0  0  0
 42106  1  0  0  0  0
 43107  1  0  0  0  0
 43108  1  0  0  0  0
 43109  1  0  0  0  0
M  CHG  4   6  -1   7  -1  10   1  11   1
M  END
> <PUBCHEM_COMPOUND_CID>
10763

> <PUBCHEM_COMPOUND_CANONICALIZED>
1

> <PUBCHEM_CACTVS_COMPLEXITY>
297

> <PUBCHEM_CACTVS_HBOND_ACCEPTOR>
8

> <PUBCHEM_CACTVS_HBOND_DONOR>
0

> <PUBCHEM_CACTVS_ROTATABLE_BOND>
22

> <PUBCHEM_CACTVS_SUBSKEYS>
AAADcfB7vABAAAAAAAAAAAAAAAAAAAAAAAAAAAAAAAAAAAAAAAAAHgAAAAAACADhgAYCCAMABAAIAAAAGDAAAAAAAAAAAAAIAAACAAAAgAANAAAABgCQAAAAAAAAAAAAAAAAAAAAAAAAAAAAAAAAAAAAAA==

> <PUBCHEM_IUPAC_OPENEYE_NAME>
2-(dibutylcarbamoyloxy)ethyl-ethyl-dimethyl-ammonium sulfate

> <PUBCHEM_IUPAC_CAS_NAME>
2-[(dibutylamino)-oxomethoxy]ethyl-ethyl-dimethylammonium sulfate

> <PUBCHEM_IUPAC_NAME>
2-(dibutylcarbamoyloxy)ethyl-ethyl-dimethylazanium sulfate

> <PUBCHEM_IUPAC_SYSTEMATIC_NAME>
2-(dibutylcarbamoyloxy)ethyl-ethyl-dimethyl-azanium sulfate

> <PUBCHEM_IUPAC_TRADITIONAL_NAME>
2-(dibutylcarbamoyloxy)ethyl-ethyl-dimethyl-ammonium sulfate

> <PUBCHEM_IUPAC_INCHI>
InChI=1S/2C15H33N2O2.H2O4S/c2*1-6-9-11-16(12-10-7-2)15(18)19-14-13-17(4,5)8-3;1-5(2,3)4/h2*6-14H2,1-5H3;(H2,1,2,3,4)/q2*+1;/p-2

> <PUBCHEM_IUPAC_INCHIKEY>
YRPPIMNBOSCROA-UHFFFAOYSA-L

> <PUBCHEM_EXACT_MASS>
642.460136

> <PUBCHEM_MOLECULAR_FORMULA>
C30H66N4O8S

> <PUBCHEM_MOLECULAR_WEIGHT>
642.93204

> <PUBCHEM_OPENEYE_CAN_SMILES>
CCCCN(CCCC)C(=O)OCC[N+](C)(C)CC.CCCCN(CCCC)C(=O)OCC[N+](C)(C)CC.[O-]S(=O)(=O)[O-]

> <PUBCHEM_OPENEYE_ISO_SMILES>
CCCCN(CCCC)C(=O)OCC[N+](C)(C)CC.CCCCN(CCCC)C(=O)OCC[N+](C)(C)CC.[O-]S(=O)(=O)[O-]

> <PUBCHEM_CACTVS_TPSA>
148

> <PUBCHEM_MONOISOTOPIC_WEIGHT>
642.460136

> <PUBCHEM_TOTAL_CHARGE>
0

> <PUBCHEM_HEAVY_ATOM_COUNT>
43

> <PUBCHEM_ATOM_DEF_STEREO_COUNT>
0

> <PUBCHEM_ATOM_UDEF_STEREO_COUNT>
0

> <PUBCHEM_BOND_DEF_STEREO_COUNT>
0

> <PUBCHEM_BOND_UDEF_STEREO_COUNT>
0

> <PUBCHEM_ISOTOPIC_ATOM_COUNT>
0

> <PUBCHEM_COMPONENT_COUNT>
3

> <PUBCHEM_CACTVS_TAUTO_COUNT>
1

> <PUBCHEM_COORDINATE_TYPE>
1
5
255

$$$$

