586134
  -OEChem-06241222452D

 41 43  0     1  0  0  0  0  0999 V2000
    2.0000   -4.5942    0.0000 Cl  0  0  0  0  0  0  0  0  0  0  0  0
    3.7320   -5.5942    0.0000 Cl  0  0  0  0  0  0  0  0  0  0  0  0
    3.5103    2.2536    0.0000 O   0  0  0  0  0  0  0  0  0  0  0  0
    5.4641   -1.5942    0.0000 O   0  0  0  0  0  0  0  0  0  0  0  0
    7.4492    4.6807    0.0000 O   0  0  0  0  0  0  0  0  0  0  0  0
    5.0981    1.4446    0.0000 N   0  0  0  0  0  0  0  0  0  0  0  0
    3.7320   -1.5942    0.0000 N   0  0  0  0  0  0  0  0  0  0  0  0
    4.5981   -0.0942    0.0000 C   0  0  3  0  0  0  0  0  0  0  0  0
    5.4071    0.4936    0.0000 C   0  0  0  0  0  0  0  0  0  0  0  0
    3.7891    0.4936    0.0000 C   0  0  0  0  0  0  0  0  0  0  0  0
    4.0981    1.4446    0.0000 C   0  0  0  0  0  0  0  0  0  0  0  0
    4.5981   -1.0942    0.0000 C   0  0  0  0  0  0  0  0  0  0  0  0
    5.6859    2.2536    0.0000 C   0  0  0  0  0  0  0  0  0  0  0  0
    5.2791    3.1672    0.0000 C   0  0  0  0  0  0  0  0  0  0  0  0
    6.6804    2.1491    0.0000 C   0  0  0  0  0  0  0  0  0  0  0  0
    3.7320   -2.5942    0.0000 C   0  0  0  0  0  0  0  0  0  0  0  0
    5.8669    3.9762    0.0000 C   0  0  0  0  0  0  0  0  0  0  0  0
    7.2682    2.9581    0.0000 C   0  0  0  0  0  0  0  0  0  0  0  0
    6.8614    3.8717    0.0000 C   0  0  0  0  0  0  0  0  0  0  0  0
    2.8660   -3.0942    0.0000 C   0  0  0  0  0  0  0  0  0  0  0  0
    4.5981   -3.0942    0.0000 C   0  0  0  0  0  0  0  0  0  0  0  0
    2.8660   -4.0942    0.0000 C   0  0  0  0  0  0  0  0  0  0  0  0
    4.5981   -4.0942    0.0000 C   0  0  0  0  0  0  0  0  0  0  0  0
    3.7320   -4.5942    0.0000 C   0  0  0  0  0  0  0  0  0  0  0  0
    7.0425    5.5942    0.0000 C   0  0  0  0  0  0  0  0  0  0  0  0
    5.1505   -0.3757    0.0000 H   0  0  0  0  0  0  0  0  0  0  0  0
    5.7171   -0.0434    0.0000 H   0  0  0  0  0  0  0  0  0  0  0  0
    5.9735    0.7457    0.0000 H   0  0  0  0  0  0  0  0  0  0  0  0
    3.2227    0.7457    0.0000 H   0  0  0  0  0  0  0  0  0  0  0  0
    3.4791   -0.0434    0.0000 H   0  0  0  0  0  0  0  0  0  0  0  0
    3.1951   -1.2842    0.0000 H   0  0  0  0  0  0  0  0  0  0  0  0
    4.6625    3.2320    0.0000 H   0  0  0  0  0  0  0  0  0  0  0  0
    6.9326    1.5827    0.0000 H   0  0  0  0  0  0  0  0  0  0  0  0
    5.6147    4.5426    0.0000 H   0  0  0  0  0  0  0  0  0  0  0  0
    7.8848    2.8933    0.0000 H   0  0  0  0  0  0  0  0  0  0  0  0
    2.3291   -2.7842    0.0000 H   0  0  0  0  0  0  0  0  0  0  0  0
    5.1350   -2.7842    0.0000 H   0  0  0  0  0  0  0  0  0  0  0  0
    5.1350   -4.4042    0.0000 H   0  0  0  0  0  0  0  0  0  0  0  0
    7.6089    5.8464    0.0000 H   0  0  0  0  0  0  0  0  0  0  0  0
    6.7903    6.1606    0.0000 H   0  0  0  0  0  0  0  0  0  0  0  0
    6.4761    5.3421    0.0000 H   0  0  0  0  0  0  0  0  0  0  0  0
  1 22  1  0  0  0  0
  2 24  1  0  0  0  0
  3 11  2  0  0  0  0
  4 12  2  0  0  0  0
  5 19  1  0  0  0  0
  5 25  1  0  0  0  0
  6  9  1  0  0  0  0
  6 11  1  0  0  0  0
  6 13  1  0  0  0  0
  7 12  1  0  0  0  0
  7 16  1  0  0  0  0
  7 31  1  0  0  0  0
  8  9  1  0  0  0  0
  8 10  1  0  0  0  0
  8 12  1  0  0  0  0
  8 26  1  0  0  0  0
  9 27  1  0  0  0  0
  9 28  1  0  0  0  0
 10 11  1  0  0  0  0
 10 29  1  0  0  0  0
 10 30  1  0  0  0  0
 13 14  2  0  0  0  0
 13 15  1  0  0  0  0
 14 17  1  0  0  0  0
 14 32  1  0  0  0  0
 15 18  2  0  0  0  0
 15 33  1  0  0  0  0
 16 20  2  0  0  0  0
 16 21  1  0  0  0  0
 17 19  2  0  0  0  0
 17 34  1  0  0  0  0
 18 19  1  0  0  0  0
 18 35  1  0  0  0  0
 20 22  1  0  0  0  0
 20 36  1  0  0  0  0
 21 23  2  0  0  0  0
 21 37  1  0  0  0  0
 22 24  2  0  0  0  0
 23 24  1  0  0  0  0
 23 38  1  0  0  0  0
 25 39  1  0  0  0  0
 25 40  1  0  0  0  0
 25 41  1  0  0  0  0
M  END
> <PUBCHEM_COMPOUND_CID>
586134

> <PUBCHEM_COMPOUND_CANONICALIZED>
1

> <PUBCHEM_CACTVS_COMPLEXITY>
497

> <PUBCHEM_CACTVS_HBOND_ACCEPTOR>
3

> <PUBCHEM_CACTVS_HBOND_DONOR>
1

> <PUBCHEM_CACTVS_ROTATABLE_BOND>
4

> <PUBCHEM_CACTVS_SUBSKEYS>
AAADceB7MAAGAAAAAAAAAAAAAAAAAWAAAAAwYAAAAAAAAAABQAAAHgIQAAAADQ7BkCYyxoPABACIACVSUACCCAAhJwAIikEObogMJjrF85uEMChk1hHI6Ae1QAAIAEBAAAIAAAQAgIAABAAACAAAAAAAAA==

> <PUBCHEM_IUPAC_OPENEYE_NAME>
N-(3,4-dichlorophenyl)-1-(4-methoxyphenyl)-5-oxo-pyrrolidine-3-carboxamide

> <PUBCHEM_IUPAC_CAS_NAME>
N-(3,4-dichlorophenyl)-1-(4-methoxyphenyl)-5-oxo-3-pyrrolidinecarboxamide

> <PUBCHEM_IUPAC_NAME>
N-(3,4-dichlorophenyl)-1-(4-methoxyphenyl)-5-oxopyrrolidine-3-carboxamide

> <PUBCHEM_IUPAC_SYSTEMATIC_NAME>
N-(3,4-dichlorophenyl)-1-(4-methoxyphenyl)-5-oxidanylidene-pyrrolidine-3-carboxamide

> <PUBCHEM_IUPAC_TRADITIONAL_NAME>
N-(3,4-dichlorophenyl)-5-keto-1-(4-methoxyphenyl)pyrrolidine-3-carboxamide

> <PUBCHEM_IUPAC_INCHI>
InChI=1S/C18H16Cl2N2O3/c1-25-14-5-3-13(4-6-14)22-10-11(8-17(22)23)18(24)21-12-2-7-15(19)16(20)9-12/h2-7,9,11H,8,10H2,1H3,(H,21,24)

> <PUBCHEM_IUPAC_INCHIKEY>
FQMRLYKANLYGCK-UHFFFAOYSA-N

> <PUBCHEM_XLOGP3_AA>
3.1

> <PUBCHEM_EXACT_MASS>
378.053798

> <PUBCHEM_MOLECULAR_FORMULA>
C18H16Cl2N2O3

> <PUBCHEM_MOLECULAR_WEIGHT>
379.23724

> <PUBCHEM_OPENEYE_CAN_SMILES>
COC1=CC=C(C=C1)N2CC(CC2=O)C(=O)NC3=CC(=C(C=C3)Cl)Cl

> <PUBCHEM_OPENEYE_ISO_SMILES>
COC1=CC=C(C=C1)N2CC(CC2=O)C(=O)NC3=CC(=C(C=C3)Cl)Cl

> <PUBCHEM_CACTVS_TPSA>
58.6

> <PUBCHEM_MONOISOTOPIC_WEIGHT>
378.053798

> <PUBCHEM_TOTAL_CHARGE>
0

> <PUBCHEM_HEAVY_ATOM_COUNT>
25

> <PUBCHEM_ATOM_DEF_STEREO_COUNT>
0

> <PUBCHEM_ATOM_UDEF_STEREO_COUNT>
1

> <PUBCHEM_BOND_DEF_STEREO_COUNT>
0

> <PUBCHEM_BOND_UDEF_STEREO_COUNT>
0

> <PUBCHEM_ISOTOPIC_ATOM_COUNT>
0

> <PUBCHEM_COMPONENT_COUNT>
1

> <PUBCHEM_CACTVS_TAUTO_COUNT>
6

> <PUBCHEM_COORDINATE_TYPE>
1
5
255

> <PUBCHEM_BONDANNOTATIONS>
13  14  8
13  15  8
14  17  8
15  18  8
16  20  8
16  21  8
17  19  8
18  19  8
20  22  8
21  23  8
22  24  8
23  24  8
8  12  3

$$$$

