440750
  -OEChem-07051212502D

 27 28  0     1  0  0  0  0  0999 V2000
    8.0382    0.0604    0.0000 O   0  0  0  0  0  0  0  0  0  0  0  0
    2.5369   -2.1567    0.0000 O   0  0  0  0  0  0  0  0  0  0  0  0
    8.6596    1.9615    0.0000 O   0  0  0  0  0  0  0  0  0  0  0  0
    7.0132    2.4996    0.0000 O   0  0  0  0  0  0  0  0  0  0  0  0
    6.0812   -1.9615    0.0000 N   0  0  0  0  0  0  0  0  0  0  0  0
    6.0812   -0.3520    0.0000 C   0  0  0  0  0  0  0  0  0  0  0  0
    5.1350   -0.6567    0.0000 C   0  0  0  0  0  0  0  0  0  0  0  0
    6.3919    0.5985    0.0000 C   0  0  0  0  0  0  0  0  0  0  0  0
    5.1350   -1.6567    0.0000 C   0  0  0  0  0  0  0  0  0  0  0  0
    7.3704    0.8047    0.0000 C   0  0  3  0  0  0  0  0  0  0  0  0
    6.6648   -1.1567    0.0000 C   0  0  0  0  0  0  0  0  0  0  0  0
    4.2690   -0.1567    0.0000 C   0  0  0  0  0  0  0  0  0  0  0  0
    4.2690   -2.1567    0.0000 C   0  0  0  0  0  0  0  0  0  0  0  0
    3.4030   -0.6567    0.0000 C   0  0  0  0  0  0  0  0  0  0  0  0
    3.4030   -1.6567    0.0000 C   0  0  0  0  0  0  0  0  0  0  0  0
    7.6811    1.7552    0.0000 C   0  0  0  0  0  0  0  0  0  0  0  0
    6.3713    1.2182    0.0000 H   0  0  0  0  0  0  0  0  0  0  0  0
    5.7781    0.6859    0.0000 H   0  0  0  0  0  0  0  0  0  0  0  0
    8.2021    0.9800    0.0000 H   0  0  0  0  0  0  0  0  0  0  0  0
    7.2848   -1.1567    0.0000 H   0  0  0  0  0  0  0  0  0  0  0  0
    6.2738   -2.5508    0.0000 H   0  0  0  0  0  0  0  0  0  0  0  0
    4.2690    0.4633    0.0000 H   0  0  0  0  0  0  0  0  0  0  0  0
    4.2690   -2.7767    0.0000 H   0  0  0  0  0  0  0  0  0  0  0  0
    2.8660   -0.3467    0.0000 H   0  0  0  0  0  0  0  0  0  0  0  0
    8.6449    0.1883    0.0000 H   0  0  0  0  0  0  0  0  0  0  0  0
    2.0000   -1.8467    0.0000 H   0  0  0  0  0  0  0  0  0  0  0  0
    8.8522    2.5508    0.0000 H   0  0  0  0  0  0  0  0  0  0  0  0
  1 10  1  0  0  0  0
  1 25  1  0  0  0  0
  2 15  1  0  0  0  0
  2 26  1  0  0  0  0
  3 16  1  0  0  0  0
  3 27  1  0  0  0  0
  4 16  2  0  0  0  0
  5  9  1  0  0  0  0
  5 11  1  0  0  0  0
  5 21  1  0  0  0  0
  6  7  1  0  0  0  0
  6  8  1  0  0  0  0
  6 11  2  0  0  0  0
  7  9  2  0  0  0  0
  7 12  1  0  0  0  0
  8 10  1  0  0  0  0
  8 17  1  0  0  0  0
  8 18  1  0  0  0  0
  9 13  1  0  0  0  0
 10 16  1  0  0  0  0
 10 19  1  0  0  0  0
 11 20  1  0  0  0  0
 12 14  2  0  0  0  0
 12 22  1  0  0  0  0
 13 15  2  0  0  0  0
 13 23  1  0  0  0  0
 14 15  1  0  0  0  0
 14 24  1  0  0  0  0
M  END
> <PUBCHEM_COMPOUND_CID>
440750

> <PUBCHEM_COMPOUND_CANONICALIZED>
1

> <PUBCHEM_CACTVS_COMPLEXITY>
271

> <PUBCHEM_CACTVS_HBOND_ACCEPTOR>
4

> <PUBCHEM_CACTVS_HBOND_DONOR>
4

> <PUBCHEM_CACTVS_ROTATABLE_BOND>
3

> <PUBCHEM_CACTVS_SUBSKEYS>
AAADccByOAAAAAAAAAAAAAAAAAAAAWAAAAAwAAAAAAAAAFgB8AAAHgAQCAAADBzhngY8zvLJkgCoAzT3TAKCgCAxIiAI2aF+bJgJNvLCkZOEcAhm0BnJ2Ae42fOOoAAAAgACAABAAAAEAAQAAAAAAAAAAA==

> <PUBCHEM_IUPAC_OPENEYE_NAME>
2-hydroxy-3-(6-hydroxy-1H-indol-3-yl)propanoic acid

> <PUBCHEM_IUPAC_CAS_NAME>
2-hydroxy-3-(6-hydroxy-1H-indol-3-yl)propanoic acid

> <PUBCHEM_IUPAC_NAME>
2-hydroxy-3-(6-hydroxy-1H-indol-3-yl)propanoic acid

> <PUBCHEM_IUPAC_SYSTEMATIC_NAME>
2-oxidanyl-3-(6-oxidanyl-1H-indol-3-yl)propanoic acid

> <PUBCHEM_IUPAC_TRADITIONAL_NAME>
2-hydroxy-3-(6-hydroxy-1H-indol-3-yl)propionic acid

> <PUBCHEM_IUPAC_INCHI>
InChI=1S/C11H11NO4/c13-7-1-2-8-6(3-10(14)11(15)16)5-12-9(8)4-7/h1-2,4-5,10,12-14H,3H2,(H,15,16)

> <PUBCHEM_IUPAC_INCHIKEY>
QVXYTCLWWRPFPW-UHFFFAOYSA-N

> <PUBCHEM_XLOGP3>
1.3

> <PUBCHEM_EXACT_MASS>
221.068808

> <PUBCHEM_MOLECULAR_FORMULA>
C11H11NO4

> <PUBCHEM_MOLECULAR_WEIGHT>
221.20934

> <PUBCHEM_OPENEYE_CAN_SMILES>
C1=CC2=C(C=C1O)NC=C2CC(C(=O)O)O

> <PUBCHEM_OPENEYE_ISO_SMILES>
C1=CC2=C(C=C1O)NC=C2CC(C(=O)O)O

> <PUBCHEM_CACTVS_TPSA>
93.6

> <PUBCHEM_MONOISOTOPIC_WEIGHT>
221.068808

> <PUBCHEM_TOTAL_CHARGE>
0

> <PUBCHEM_HEAVY_ATOM_COUNT>
16

> <PUBCHEM_ATOM_DEF_STEREO_COUNT>
0

> <PUBCHEM_ATOM_UDEF_STEREO_COUNT>
1

> <PUBCHEM_BOND_DEF_STEREO_COUNT>
0

> <PUBCHEM_BOND_UDEF_STEREO_COUNT>
0

> <PUBCHEM_ISOTOPIC_ATOM_COUNT>
0

> <PUBCHEM_COMPONENT_COUNT>
1

> <PUBCHEM_CACTVS_TAUTO_COUNT>
9

> <PUBCHEM_COORDINATE_TYPE>
1
5
255

> <PUBCHEM_BONDANNOTATIONS>
10  19  3
12  14  8
13  15  8
14  15  8
5  11  8
5  9  8
6  11  8
6  7  8
7  12  8
7  9  8
9  13  8

$$$$

