   Color/Form
        COLORLESS LIQUID
   from [1]HSDB

   Odor
        Floral odor
   from [2]HSDB

   Boiling Point
        204 deg C
   from [3]HSDB

   Melting Point
        -6 deg C
   from [4]HSDB

   Density/Specific Gravity
        1.0194 g/cu cm at 17 deg C
   from [5]HSDB

   Octanol/Water Partition Coefficient
        log Kow = 2.26 (est)
   from [6]HSDB

   Solubilities

     * Miscible with ethanol, ethyl ether, acetone; very soluble in
       chloroform
     * In water, 2.27X10+3 mg/L at 25 deg C

   from [7]HSDB

   Spectral Properties

     * SADTLER REF NUMBER: 21549 (IR, PRISM); INDEX OF REFRACTION: 1.5454
       AT 20 DEG C
     * MAX ABSORPTION (HEXANE): 251 NM (LOG E= 4.18); 257 NM (LOG E=
       4.10); 279 NM (LOG E= 3.08); 284 NM (LOG E= 3.00)
     * Index of refraction: 1.5454 at 20 deg C
     * IR: 6182 (Coblentz Society Spectral Collection)
     * UV: 15952 (Sadtler Research Laboratories Spectral Collection)
     * 1H NMR: 6900 (Sadtler Research Laboratories Spectral Collection)
     * MASS: 69763 (NIST/EPA/MSDC Mass Spectral Database, 1990 version);
       4815 (National Bureau of Standards)

   from [8]HSDB

   Vapor Pressure
        2.5X10-1 mm Hg at 25 deg C
   from [9]HSDB

   Other Chemical/Physical Properties

     * Liquid Molar Volume = 0.119047 cu m/kmol
     * BP: 106 deg C at 10 mm Hg
     * Henry's Law constant = 1.74X10-5 atm-cu m/mol at 25 deg C (est)
     * Hydroxyl radical reaction rate constant = 1./87X10-11 cu
       cm/molec-sec at 25 deg C (est)

   from [10]HSDB

   Computed Properties
   Molecular Weight                  120.14852 [g/mol]
   Molecular Formula                 C[8]H[8]O
   XLogP3                            2.1
   H-Bond Donor                      0
   H-Bond Acceptor                   1
   Rotatable Bond Count              1
   Tautomer Count                    4
   Exact Mass                        120.057515
   MonoIsotopic Mass                 120.057515
   Topological Polar Surface Area    17.1
   Heavy Atom Count                  9
   Formal Charge                     0
   Complexity                        90.7
   Isotope Atom Count                0
   Defined Atom Stereocenter Count   0
   Undefined Atom Stereocenter Count 0
   Defined Bond Stereocenter Count   0
   Undefined Bond Stereocenter Count 0
   Covalently-Bonded Unit Count      1
   Feature 3D Acceptor Count         1
   Feature 3D Ring Count             1
   Effective Rotor Count             1
   Conformer Sampling RMSD           0.4
   CID Conformer Count               [11]1

References

   1. http://toxnet.nlm.nih.gov/cgi-bin/sis/search/r?dbs+hsdb:@term+@rn+@rel+104-87-0
   2. http://toxnet.nlm.nih.gov/cgi-bin/sis/search/r?dbs+hsdb:@term+@rn+@rel+104-87-0
   3. http://toxnet.nlm.nih.gov/cgi-bin/sis/search/r?dbs+hsdb:@term+@rn+@rel+104-87-0
   4. http://toxnet.nlm.nih.gov/cgi-bin/sis/search/r?dbs+hsdb:@term+@rn+@rel+104-87-0
   5. http://toxnet.nlm.nih.gov/cgi-bin/sis/search/r?dbs+hsdb:@term+@rn+@rel+104-87-0
   6. http://toxnet.nlm.nih.gov/cgi-bin/sis/search/r?dbs+hsdb:@term+@rn+@rel+104-87-0
   7. http://toxnet.nlm.nih.gov/cgi-bin/sis/search/r?dbs+hsdb:@term+@rn+@rel+104-87-0
   8. http://toxnet.nlm.nih.gov/cgi-bin/sis/search/r?dbs+hsdb:@term+@rn+@rel+104-87-0
   9. http://toxnet.nlm.nih.gov/cgi-bin/sis/search/r?dbs+hsdb:@term+@rn+@rel+104-87-0
  10. http://toxnet.nlm.nih.gov/cgi-bin/sis/search/r?dbs+hsdb:@term+@rn+@rel+104-87-0
  11. http://pubchem.ncbi.nlm.nih.gov/vw3d/vw3d.cgi?cid=7725
