10716
  -OEChem-06261204522D

 20 19  0     0  0  0  0  0  0999 V2000
    3.6108    2.6200    0.0000 O   0  0  0  0  0  0  0  0  0  0  0  0
    6.2089    4.1200    0.0000 O   0  0  0  0  0  0  0  0  0  0  0  0
    4.4768    4.1200    0.0000 O   0  0  0  0  0  0  0  0  0  0  0  0
    0.5369    2.5250    0.0000 N   0  0  0  0  0  0  0  0  0  0  0  0
    5.3429    2.6200    0.0000 C   0  0  0  0  0  0  0  0  0  0  0  0
    4.4768    2.1200    0.0000 C   0  0  0  0  0  0  0  0  0  0  0  0
    6.2089    2.1200    0.0000 C   0  0  0  0  0  0  0  0  0  0  0  0
    4.4768    1.1200    0.0000 C   0  0  0  0  0  0  0  0  0  0  0  0
    6.2089    1.1200    0.0000 C   0  0  0  0  0  0  0  0  0  0  0  0
    5.3429    0.6200    0.0000 C   0  0  0  0  0  0  0  0  0  0  0  0
    5.3429    3.6200    0.0000 C   0  0  0  0  0  0  0  0  0  0  0  0
    6.7458    2.4300    0.0000 H   0  0  0  0  0  0  0  0  0  0  0  0
    3.9399    0.8100    0.0000 H   0  0  0  0  0  0  0  0  0  0  0  0
    6.7458    0.8100    0.0000 H   0  0  0  0  0  0  0  0  0  0  0  0
    5.3429    0.0000    0.0000 H   0  0  0  0  0  0  0  0  0  0  0  0
    3.0739    2.3100    0.0000 H   0  0  0  0  0  0  0  0  0  0  0  0
    6.2089    4.7400    0.0000 H   0  0  0  0  0  0  0  0  0  0  0  0
    1.0739    2.8350    0.0000 H   0  0  0  0  0  0  0  0  0  0  0  0
    0.0000    2.8350    0.0000 H   0  0  0  0  0  0  0  0  0  0  0  0
    0.5369    1.9050    0.0000 H   0  0  0  0  0  0  0  0  0  0  0  0
  1  6  1  0  0  0  0
  1 16  1  0  0  0  0
  2 11  1  0  0  0  0
  2 17  1  0  0  0  0
  3 11  2  0  0  0  0
  4 18  1  0  0  0  0
  4 19  1  0  0  0  0
  4 20  1  0  0  0  0
  5  6  1  0  0  0  0
  5  7  2  0  0  0  0
  5 11  1  0  0  0  0
  6  8  2  0  0  0  0
  7  9  1  0  0  0  0
  7 12  1  0  0  0  0
  8 10  1  0  0  0  0
  8 13  1  0  0  0  0
  9 10  2  0  0  0  0
  9 14  1  0  0  0  0
 10 15  1  0  0  0  0
M  END
> <PUBCHEM_COMPOUND_CID>
10716

> <PUBCHEM_COMPOUND_CANONICALIZED>
1

> <PUBCHEM_CACTVS_COMPLEXITY>
133

> <PUBCHEM_CACTVS_HBOND_ACCEPTOR>
4

> <PUBCHEM_CACTVS_HBOND_DONOR>
3

> <PUBCHEM_CACTVS_ROTATABLE_BOND>
1

> <PUBCHEM_CACTVS_SUBSKEYS>
AAADccBiMAAAAAAAAAAAAAAAAAAAAAAAAAAwAAAAAAAAAAABAAAAGgAQCAAADASAmAAwDoAAAgCIAiDSCAACAAAkIAAIiAEGCMgIJzaCFRKAcUAl4BEImYeIyCCOAAAAAAAIAAAAAAAAABAAAAAAAAAAAA==

> <PUBCHEM_IUPAC_OPENEYE_NAME>
ammonia; 2-hydroxybenzoic acid

> <PUBCHEM_IUPAC_CAS_NAME>
ammonia; 2-hydroxybenzoic acid

> <PUBCHEM_IUPAC_NAME>
azane; 2-hydroxybenzoic acid

> <PUBCHEM_IUPAC_SYSTEMATIC_NAME>
azane; 2-oxidanylbenzoic acid

> <PUBCHEM_IUPAC_TRADITIONAL_NAME>
ammonia; salicylic acid

> <PUBCHEM_IUPAC_INCHI>
InChI=1S/C7H6O3.H3N/c8-6-4-2-1-3-5(6)7(9)10;/h1-4,8H,(H,9,10);1H3

> <PUBCHEM_IUPAC_INCHIKEY>
BOFZOTMTKBQRAB-UHFFFAOYSA-N

> <PUBCHEM_EXACT_MASS>
155.058243

> <PUBCHEM_MOLECULAR_FORMULA>
C7H9NO3

> <PUBCHEM_MOLECULAR_WEIGHT>
155.15126

> <PUBCHEM_OPENEYE_CAN_SMILES>
C1=CC=C(C(=C1)C(=O)O)O.N

> <PUBCHEM_OPENEYE_ISO_SMILES>
C1=CC=C(C(=C1)C(=O)O)O.N

> <PUBCHEM_CACTVS_TPSA>
58.5

> <PUBCHEM_MONOISOTOPIC_WEIGHT>
155.058243

> <PUBCHEM_TOTAL_CHARGE>
0

> <PUBCHEM_HEAVY_ATOM_COUNT>
11

> <PUBCHEM_ATOM_DEF_STEREO_COUNT>
0

> <PUBCHEM_ATOM_UDEF_STEREO_COUNT>
0

> <PUBCHEM_BOND_DEF_STEREO_COUNT>
0

> <PUBCHEM_BOND_UDEF_STEREO_COUNT>
0

> <PUBCHEM_ISOTOPIC_ATOM_COUNT>
0

> <PUBCHEM_COMPONENT_COUNT>
2

> <PUBCHEM_CACTVS_TAUTO_COUNT>
4

> <PUBCHEM_COORDINATE_TYPE>
1
5
255

> <PUBCHEM_BONDANNOTATIONS>
5  6  8
5  7  8
6  8  8
7  9  8
8  10  8
9  10  8

$$$$

