   Color/Form

     * WHITE CRYSTALLINE SOLID
     * LIGHT BUFF TO CREAMY POWDER
     * Colorless solid
     * White to slightly yellow crystalline solid

   from [1]HSDB

   Odor
        ODORLESS WHEN PURE
   from [2]HSDB

   Melting Point
        194-195 deg C
   from [3]HSDB

   Corrosivity
        Non-corrosive
   from [4]HSDB

   Dissociation Constants
        PKa = 3.86
   from [5]HSDB

   Octanol/Water Partition Coefficient
        Log Kow= 2.8
   from [6]HSDB

   Solubilities

     * IN WATER 130 PPM (0.013%) WT/VOL @ 20-25 DEG C; IN ETHANOL 7%
       WT/VOL @ 20-25 DEG C; IN LIGHT PETROLEUM & XYLENE 1-2% WT/VOL @
       20-25 DEG C
     * IN DIMETHYLFORMAMIDE 61% WT/VOL @ 20-25 DEG C; IN BENZENE 1% WT/VOL
       @ 20-25 DEG C; IN METHANOL 9% WT/VOL @ 20-25 DEG C; IN ACETONE 17%
       WT/VOL AT 20-25 DEG C
     * Solubility in (g/l) at 25 deg C: acetone 170; tetrahydrofuran 410
     * In dimethylformamide 610, tetrahydrofuran 410, acetone,
       cyclohexanone 170, methanol 90, ethanol 70, mineral oils <20,
       benzene 10 (all in g/l, 25 deg C).
     * In water, 130 mg/l @ 25 deg C

   from [7]HSDB

   Spectral Properties

     * Intense mass spectral peaks: 88 m/z (100%), 62 m/z (49%), 61 m/z
       (45%), 53 m/z (35%)
     * MASS: 4734 (National Bureau of Standards EPA-NIH Mass Spectra Data
       Base, NSRDS-NBS-63)

   from [8]HSDB

   Vapor Pressure
        4.72X10-8 mm Hg @ 20 deg C
   from [9]HSDB

   Other Chemical/Physical Properties

     * SUBLIMES AT 135 DEG C & 0.15 MM HG
     * HYDROLYZED TO AMIDE BY CONCN SULFURIC ACID.
     * Slightly volatile in steam.
     * Waxy solid; mp 45-46 deg C; low volatility; sublimes at 90 deg C
       and 0.1 mm Hg; insol in water. /Bromoxynil octanoate ester/
     * Mp: 45-46 deg C; practically insoluble in water; solubility in
       xylene 700, ethanol 100, n-propanol 120, acetone 100, cyclohexanone
       550, ethyl acetate 620, dimethylformamide 700, chloroform 800,
       carbon tetrachloride 500 (all in g/l at 20-25 deg C) /Bromoxynil
       octanoate/
     * Mp: 360 deg C; solubility in water at 20-25 deg C, 42 g/l;
       solubility in acetone 80, 20% aqueous acetone 150,
       tetrahydrofurfuryl alcohol 430, methyl cellosolve 310 (all in g/l
       at 20-25 deg C) /Bromoxynil sodium salt/
     * Mp: approx 360 deg C; solubility in water at 20-25 deg C, 61 g/l;
       solubility in acetone 70, 20% aqueous acetone 240,
       tetrahydrofurfuryl alcohol 260, methyl cellosolve 130 (all in g/l
       at 20-25 deg C) /Bromoxynil potassium salt/
     * Clear, amber colored liquid, characteristic odor; vapor pressure
       0.1 mm/Hg (20 deg C); readily hydrolized to bromoxynil at pH>9
       /Bromoxynil octanoate/
     * MP: 188-192 deg C /Technical bromoxynil (approx 95% pure)/
     * Log partition coefficient: 0.49 in hexane

   from [10]HSDB

   Computed Properties
   Molecular Weight                  276.91282 [g/mol]
   Molecular Formula                 C[7]H[3]Br[2]NO
   XLogP3                            3.5
   H-Bond Donor                      1
   H-Bond Acceptor                   2
   Rotatable Bond Count              0
   Tautomer Count                    2
   Exact Mass                        276.856091
   MonoIsotopic Mass                 274.858138
   Topological Polar Surface Area    44
   Heavy Atom Count                  11
   Formal Charge                     0
   Complexity                        176
   Isotope Atom Count                0
   Defined Atom Stereocenter Count   0
   Undefined Atom Stereocenter Count 0
   Defined Bond Stereocenter Count   0
   Undefined Bond Stereocenter Count 0
   Covalently-Bonded Unit Count      1
   Feature 3D Acceptor Count         1
   Feature 3D Donor Count            1
   Feature 3D Hydrophobe Count       2
   Feature 3D Ring Count             1
   Effective Rotor Count             0
   Conformer Sampling RMSD           0.4
   CID Conformer Count               [11]1

References

   1. http://toxnet.nlm.nih.gov/cgi-bin/sis/search/r?dbs+hsdb:@term+@rn+@rel+1689-84-5
   2. http://toxnet.nlm.nih.gov/cgi-bin/sis/search/r?dbs+hsdb:@term+@rn+@rel+1689-84-5
   3. http://toxnet.nlm.nih.gov/cgi-bin/sis/search/r?dbs+hsdb:@term+@rn+@rel+1689-84-5
   4. http://toxnet.nlm.nih.gov/cgi-bin/sis/search/r?dbs+hsdb:@term+@rn+@rel+1689-84-5
   5. http://toxnet.nlm.nih.gov/cgi-bin/sis/search/r?dbs+hsdb:@term+@rn+@rel+1689-84-5
   6. http://toxnet.nlm.nih.gov/cgi-bin/sis/search/r?dbs+hsdb:@term+@rn+@rel+1689-84-5
   7. http://toxnet.nlm.nih.gov/cgi-bin/sis/search/r?dbs+hsdb:@term+@rn+@rel+1689-84-5
   8. http://toxnet.nlm.nih.gov/cgi-bin/sis/search/r?dbs+hsdb:@term+@rn+@rel+1689-84-5
   9. http://toxnet.nlm.nih.gov/cgi-bin/sis/search/r?dbs+hsdb:@term+@rn+@rel+1689-84-5
  10. http://toxnet.nlm.nih.gov/cgi-bin/sis/search/r?dbs+hsdb:@term+@rn+@rel+1689-84-5
  11. http://pubchem.ncbi.nlm.nih.gov/vw3d/vw3d.cgi?cid=15531
