   Color/Form
        COLORLESS TO LIGHT YELLOW LIQUID
   from [1]HSDB

   Odor

     * PRONOUNCED FATTY ODOR THAT DEVELOPS FLORAL CHARACTER ON DIL; STRONG
       ORANGE-ROSE ODOR
     * Citrus odor
     * Strong odor, reminiscent of orange peel, that changes to a fresh
       citrus odor when diluted.

   from [2]HSDB

   Taste
        SHARP, ORANGE FLAVOR
   from [3]HSDB

   Boiling Point
        208.5 DEG C
   from [4]HSDB

   Melting Point
        -5 DEG C
   from [5]HSDB

   Density/Specific Gravity
        0.830 @ 15 DEG C/4 DEG C
   from [6]HSDB

   Solubilities

     * INSOL IN WATER
     * SOL IN ETHANOL, ETHER, ACETONE
     * SOL IN MINERAL OILS, FIXED OILS, VOLATILE OILS
     * INSOL IN GLYCEROL
     * SOL IN MOST ORGANIC SOLVENTS
     * SOLUBILITY IN 80% ALCOHOL: 1:1
     * Soluble in 80% alcohol, fixed oils, volatile oils, mineral oil;
       insoluble in water and glycerol.

   from [7]HSDB

   Spectral Properties

     * MAX ABSORPTION (C10-H22): 222 NM (LOG E= 1.9); 293 NM (LOG E= 1.4);
       INDEX OF REFRACTION: 1.4287 @ 20 DEG C/D
     * IR: 15142 (Sadtler Research Laboratories IR Grating Collection)
     * UV: 1-365 (Organic Electronic Spectral Data, Phillips et al, John
       Wiley & Sons, New York)
     * NMR: 6693 (Sadtler Research Laboratories Spectral Collection)
     * MASS: 113 (Aldermaston, Eight Peak Index of Mass Spectra, UK)

   from [8]HSDB

   Vapor Pressure
        0.103 mm Hg at 25 deg C/ from experimentally derived coefficients
   from [9]HSDB

   Viscosity
        1.8 mPa sec
   from [10]HSDB

   Other Chemical/Physical Properties

     * ACID VALUE: NOT MORE THAN 10
     * Liquid Molar Volume = 0.190278 cu m/kmol; IG Heat of Formation =
       -3.2589X10+8 J/kmol; Heat Fusion at Melting Point = 3.45X10+7
       J/kmol
     * Henry's Law constant = 5.87X10-5 atm cu m/mol @ 25 deg C [Buttery
       RG et al; J Sci Food Agric 16:691-2 (1965)] [11]PubMed Abstract

   from [12]HSDB

   Computed Properties
   Molecular Weight                  156.2652 [g/mol]
   Molecular Formula                 C[10]H[20]O
   XLogP3-AA                         3.8
   H-Bond Donor                      0
   H-Bond Acceptor                   1
   Rotatable Bond Count              8
   Tautomer Count                    2
   Exact Mass                        156.151415
   MonoIsotopic Mass                 156.151415
   Topological Polar Surface Area    17.1
   Heavy Atom Count                  11
   Formal Charge                     0
   Complexity                        78.9
   Isotope Atom Count                0
   Defined Atom Stereocenter Count   0
   Undefined Atom Stereocenter Count 0
   Defined Bond Stereocenter Count   0
   Undefined Bond Stereocenter Count 0
   Covalently-Bonded Unit Count      1
   Feature 3D Acceptor Count         1
   Feature 3D Hydrophobe Count       1
   Effective Rotor Count             8
   Conformer Sampling RMSD           0.8
   CID Conformer Count               [13]177

References

   1. http://toxnet.nlm.nih.gov/cgi-bin/sis/search/r?dbs+hsdb:@term+@rn+@rel+112-31-2
   2. http://toxnet.nlm.nih.gov/cgi-bin/sis/search/r?dbs+hsdb:@term+@rn+@rel+112-31-2
   3. http://toxnet.nlm.nih.gov/cgi-bin/sis/search/r?dbs+hsdb:@term+@rn+@rel+112-31-2
   4. http://toxnet.nlm.nih.gov/cgi-bin/sis/search/r?dbs+hsdb:@term+@rn+@rel+112-31-2
   5. http://toxnet.nlm.nih.gov/cgi-bin/sis/search/r?dbs+hsdb:@term+@rn+@rel+112-31-2
   6. http://toxnet.nlm.nih.gov/cgi-bin/sis/search/r?dbs+hsdb:@term+@rn+@rel+112-31-2
   7. http://toxnet.nlm.nih.gov/cgi-bin/sis/search/r?dbs+hsdb:@term+@rn+@rel+112-31-2
   8. http://toxnet.nlm.nih.gov/cgi-bin/sis/search/r?dbs+hsdb:@term+@rn+@rel+112-31-2
   9. http://toxnet.nlm.nih.gov/cgi-bin/sis/search/r?dbs+hsdb:@term+@rn+@rel+112-31-2
  10. http://toxnet.nlm.nih.gov/cgi-bin/sis/search/r?dbs+hsdb:@term+@rn+@rel+112-31-2
  11. http://www.ncbi.nlm.nih.gov/entrez/query.fcgi?cmd=Retrieve&db=pubmed&dopt=Abstract&list_uids=5853347
  12. http://toxnet.nlm.nih.gov/cgi-bin/sis/search/r?dbs+hsdb:@term+@rn+@rel+112-31-2
  13. http://pubchem.ncbi.nlm.nih.gov/vw3d/vw3d.cgi?cid=8175
