5282035
  -OEChem-07051213022D

 57 57  0     1  0  0  0  0  0999 V2000
    3.0000   -3.4641    0.0000 O   0  0  0  0  0  0  0  0  0  0  0  0
    4.5000    0.8660    0.0000 O   0  0  0  0  0  0  0  0  0  0  0  0
    4.5000   -0.8660    0.0000 O   0  0  0  0  0  0  0  0  0  0  0  0
    7.5000   -0.8660    0.0000 O   0  0  0  0  0  0  0  0  0  0  0  0
    3.0000    1.7320    0.0000 O   0  0  0  0  0  0  0  0  0  0  0  0
    4.5000   -2.5981    0.0000 C   0  0  2  0  0  0  0  0  0  0  0  0
    3.5000   -2.5981    0.0000 C   0  0  1  0  0  0  0  0  0  0  0  0
    5.0000   -1.7320    0.0000 C   0  0  0  0  0  0  0  0  0  0  0  0
    3.0000   -1.7320    0.0000 C   0  0  2  0  0  0  0  0  0  0  0  0
    6.0000   -1.7320    0.0000 C   0  0  2  0  0  0  0  0  0  0  0  0
    5.0000   -3.4641    0.0000 C   0  0  0  0  0  0  0  0  0  0  0  0
    3.5000   -0.8660    0.0000 C   0  0  0  0  0  0  0  0  0  0  0  0
    3.0000    0.0000    0.0000 C   0  0  2  0  0  0  0  0  0  0  0  0
    2.0000   -1.7320    0.0000 C   0  0  0  0  0  0  0  0  0  0  0  0
    5.0000    1.7320    0.0000 C   0  0  1  0  0  0  0  0  0  0  0  0
    6.0000    1.7320    0.0000 C   0  0  1  0  0  0  0  0  0  0  0  0
    6.5000   -0.8660    0.0000 C   0  0  0  0  0  0  0  0  0  0  0  0
    6.5000   -2.5981    0.0000 C   0  0  0  0  0  0  0  0  0  0  0  0
    3.5000    0.8660    0.0000 C   0  0  0  0  0  0  0  0  0  0  0  0
    4.5000    2.5981    0.0000 C   0  0  0  0  0  0  0  0  0  0  0  0
    6.5000    0.8660    0.0000 C   0  0  0  0  0  0  0  0  0  0  0  0
    6.0000    0.0000    0.0000 C   0  0  0  0  0  0  0  0  0  0  0  0
    2.0000    0.0000    0.0000 C   0  0  0  0  0  0  0  0  0  0  0  0
    6.5000    2.5981    0.0000 C   0  0  0  0  0  0  0  0  0  0  0  0
    5.0000    3.4641    0.0000 C   0  0  0  0  0  0  0  0  0  0  0  0
    5.1200   -2.5981    0.0000 H   0  0  0  0  0  0  0  0  0  0  0  0
    2.8800   -2.5981    0.0000 H   0  0  0  0  0  0  0  0  0  0  0  0
    5.1077   -1.1215    0.0000 H   0  0  0  0  0  0  0  0  0  0  0  0
    4.4174   -1.5200    0.0000 H   0  0  0  0  0  0  0  0  0  0  0  0
    2.6900   -2.2690    0.0000 H   0  0  0  0  0  0  0  0  0  0  0  0
    5.6900   -2.2690    0.0000 H   0  0  0  0  0  0  0  0  0  0  0  0
    4.4631   -3.7741    0.0000 H   0  0  0  0  0  0  0  0  0  0  0  0
    5.3100   -4.0010    0.0000 H   0  0  0  0  0  0  0  0  0  0  0  0
    5.5369   -3.1541    0.0000 H   0  0  0  0  0  0  0  0  0  0  0  0
    2.6900   -0.5369    0.0000 H   0  0  0  0  0  0  0  0  0  0  0  0
    2.0000   -1.1120    0.0000 H   0  0  0  0  0  0  0  0  0  0  0  0
    1.3800   -1.7320    0.0000 H   0  0  0  0  0  0  0  0  0  0  0  0
    2.0000   -2.3521    0.0000 H   0  0  0  0  0  0  0  0  0  0  0  0
    4.3800    1.7320    0.0000 H   0  0  0  0  0  0  0  0  0  0  0  0
    5.6900    2.2690    0.0000 H   0  0  0  0  0  0  0  0  0  0  0  0
    5.9631   -2.9081    0.0000 H   0  0  0  0  0  0  0  0  0  0  0  0
    6.8100   -3.1350    0.0000 H   0  0  0  0  0  0  0  0  0  0  0  0
    7.0369   -2.2881    0.0000 H   0  0  0  0  0  0  0  0  0  0  0  0
    2.3800   -3.4641    0.0000 H   0  0  0  0  0  0  0  0  0  0  0  0
    4.0250    2.9966    0.0000 H   0  0  0  0  0  0  0  0  0  0  0  0
    4.0250    2.1996    0.0000 H   0  0  0  0  0  0  0  0  0  0  0  0
    7.1200    0.8660    0.0000 H   0  0  0  0  0  0  0  0  0  0  0  0
    5.3800    0.0000    0.0000 H   0  0  0  0  0  0  0  0  0  0  0  0
    2.0000    0.6200    0.0000 H   0  0  0  0  0  0  0  0  0  0  0  0
    1.3800    0.0000    0.0000 H   0  0  0  0  0  0  0  0  0  0  0  0
    2.0000   -0.6200    0.0000 H   0  0  0  0  0  0  0  0  0  0  0  0
    7.0369    2.2881    0.0000 H   0  0  0  0  0  0  0  0  0  0  0  0
    6.8100    3.1350    0.0000 H   0  0  0  0  0  0  0  0  0  0  0  0
    5.9631    2.9081    0.0000 H   0  0  0  0  0  0  0  0  0  0  0  0
    5.5369    3.1541    0.0000 H   0  0  0  0  0  0  0  0  0  0  0  0
    5.3100    4.0010    0.0000 H   0  0  0  0  0  0  0  0  0  0  0  0
    4.4631    3.7741    0.0000 H   0  0  0  0  0  0  0  0  0  0  0  0
  7  1  1  6  0  0  0
  1 44  1  0  0  0  0
  2 15  1  0  0  0  0
  2 19  1  0  0  0  0
  3 12  2  0  0  0  0
  4 17  2  0  0  0  0
  5 19  2  0  0  0  0
  6  7  1  0  0  0  0
  6  8  1  0  0  0  0
  6 11  1  6  0  0  0
  6 26  1  0  0  0  0
  7  9  1  0  0  0  0
  7 27  1  0  0  0  0
  8 10  1  0  0  0  0
  8 28  1  0  0  0  0
  8 29  1  0  0  0  0
  9 12  1  0  0  0  0
  9 14  1  1  0  0  0
  9 30  1  0  0  0  0
 10 17  1  0  0  0  0
 10 18  1  6  0  0  0
 10 31  1  0  0  0  0
 11 32  1  0  0  0  0
 11 33  1  0  0  0  0
 11 34  1  0  0  0  0
 12 13  1  0  0  0  0
 13 19  1  0  0  0  0
 13 23  1  1  0  0  0
 13 35  1  0  0  0  0
 14 36  1  0  0  0  0
 14 37  1  0  0  0  0
 14 38  1  0  0  0  0
 15 16  1  0  0  0  0
 15 20  1  6  0  0  0
 15 39  1  0  0  0  0
 16 21  1  0  0  0  0
 16 24  1  6  0  0  0
 16 40  1  0  0  0  0
 17 22  1  0  0  0  0
 18 41  1  0  0  0  0
 18 42  1  0  0  0  0
 18 43  1  0  0  0  0
 20 25  1  0  0  0  0
 20 45  1  0  0  0  0
 20 46  1  0  0  0  0
 21 22  2  0  0  0  0
 21 47  1  0  0  0  0
 22 48  1  0  0  0  0
 23 49  1  0  0  0  0
 23 50  1  0  0  0  0
 23 51  1  0  0  0  0
 24 52  1  0  0  0  0
 24 53  1  0  0  0  0
 24 54  1  0  0  0  0
 25 55  1  0  0  0  0
 25 56  1  0  0  0  0
 25 57  1  0  0  0  0
M  END
> <PUBCHEM_COMPOUND_CID>
5282035

> <PUBCHEM_COMPOUND_CANONICALIZED>
1

> <PUBCHEM_CACTVS_COMPLEXITY>
524

> <PUBCHEM_CACTVS_HBOND_ACCEPTOR>
5

> <PUBCHEM_CACTVS_HBOND_DONOR>
1

> <PUBCHEM_CACTVS_ROTATABLE_BOND>
1

> <PUBCHEM_CACTVS_SUBSKEYS>
AAADcfB4OAAAAAAAAAAAAAAAAAAAAAAAAAAAAAAAAAAAAAAAAAAAGgAACAAADRSggAICCAAABgCIAKDSCAAAAAAgAAAICAEAAEgAEBYIAQACQAAE4AAIAYOI7OzOAAAAAAAAAAAAAAAAAAAAAAAAAAAAAA==

> <PUBCHEM_IUPAC_OPENEYE_NAME>
(3R,5R,6S,7S,9R,11E,13R,14R)-14-ethyl-6-hydroxy-3,5,7,9,13-pentamethyl-1-oxacyclotetradec-11-ene-2,4,10-trione

> <PUBCHEM_IUPAC_CAS_NAME>
(3R,5R,6S,7S,9R,11E,13R,14R)-14-ethyl-6-hydroxy-3,5,7,9,13-pentamethyl-1-oxacyclotetradec-11-ene-2,4,10-trione

> <PUBCHEM_IUPAC_NAME>
(3R,5R,6S,7S,9R,11E,13R,14R)-14-ethyl-6-hydroxy-3,5,7,9,13-pentamethyl-1-oxacyclotetradec-11-ene-2,4,10-trione

> <PUBCHEM_IUPAC_SYSTEMATIC_NAME>
(3R,5R,6S,7S,9R,11E,13R,14R)-14-ethyl-3,5,7,9,13-pentamethyl-6-oxidanyl-1-oxacyclotetradec-11-ene-2,4,10-trione

> <PUBCHEM_IUPAC_TRADITIONAL_NAME>
(3R,5R,6S,7S,9R,11E,13R,14R)-14-ethyl-6-hydroxy-3,5,7,9,13-pentamethyl-1-oxacyclotetradec-11-ene-2,4,10-trione

> <PUBCHEM_IUPAC_INCHI>
InChI=1S/C20H32O5/c1-7-17-11(2)8-9-16(21)12(3)10-13(4)18(22)14(5)19(23)15(6)20(24)25-17/h8-9,11-15,17-18,22H,7,10H2,1-6H3/b9-8+/t11-,12-,13+,14-,15-,17-,18+/m1/s1

> <PUBCHEM_IUPAC_INCHIKEY>
YFFOFFWSBYZSOI-HQWJGCFGSA-N

> <PUBCHEM_XLOGP3_AA>
3.8

> <PUBCHEM_EXACT_MASS>
352.224974

> <PUBCHEM_MOLECULAR_FORMULA>
C20H32O5

> <PUBCHEM_MOLECULAR_WEIGHT>
352.46508

> <PUBCHEM_OPENEYE_CAN_SMILES>
CCC1C(C=CC(=O)C(CC(C(C(C(=O)C(C(=O)O1)C)C)O)C)C)C

> <PUBCHEM_OPENEYE_ISO_SMILES>
CC[C@@H]1[C@@H](/C=C/C(=O)[C@@H](C[C@@H]([C@@H]([C@H](C(=O)[C@H](C(=O)O1)C)C)O)C)C)C

> <PUBCHEM_CACTVS_TPSA>
80.7

> <PUBCHEM_MONOISOTOPIC_WEIGHT>
352.224974

> <PUBCHEM_TOTAL_CHARGE>
0

> <PUBCHEM_HEAVY_ATOM_COUNT>
25

> <PUBCHEM_ATOM_DEF_STEREO_COUNT>
7

> <PUBCHEM_ATOM_UDEF_STEREO_COUNT>
0

> <PUBCHEM_BOND_DEF_STEREO_COUNT>
1

> <PUBCHEM_BOND_UDEF_STEREO_COUNT>
0

> <PUBCHEM_ISOTOPIC_ATOM_COUNT>
0

> <PUBCHEM_COMPONENT_COUNT>
1

> <PUBCHEM_CACTVS_TAUTO_COUNT>
25

> <PUBCHEM_COORDINATE_TYPE>
1
5
255

> <PUBCHEM_BONDANNOTATIONS>
7  1  6
10  18  6
13  23  5
15  20  6
16  24  6
6  11  6
9  14  5

$$$$

