   Color/Form

     * Needles (from water +3/2)
     * Crystals from water
     * White crystalline powder

   from [1]HSDB

   Odor
        Odorless
   from [2]HSDB

   Taste
        Mild, saline, or bitter taste
   from [3]HSDB

   Melting Point
        235.5 deg C
   from [4]HSDB

   Dissociation Constants
        pKa1 = 3.6; pKa2 = 12.4
   from [5]HSDB

   Octanol/Water Partition Coefficient
        log Kow = -1.05
   from [6]HSDB

   pH
        pH = 4.5-7.5 (solution of 3 mg/mL adenosine and 9 mg/mL sodium
   chloride in water)
   from [7]HSDB

   Solubilities

     * Insoluble in ethanol
     * In water, 5.1 g/L at 25 deg C

   from [8]HSDB

   Spectral Properties

     * UV max: 260 nm (E = 15100)
     * Specific optical rotation: -61.7 deg at 11 deg C/D (c = 0.706 in
       water); -58.2 deg at 9 deg C/D (c = 0.658 in water)
     * MASS: 25383 (NIST/EPA/MSDC Mass Spectral Database 1990 version)
     * IR: 6798 (Coblentz Society Spectral Collection)
     * UV: 1497 (Sadtler Research Laboratories Spectral Collection)

   from [9]HSDB

   Vapor Pressure
        6.0X10-15 mm Hg at 25 deg C (est)
   from [10]HSDB

   Other Chemical/Physical Properties

     * Water solubility increases by warming and lowering the pH
     * Standard transformed Gibbs energies of formation: 324.93 kJ/mol
       (ionic strength: 0); 332.89 kJ/mol (ionic strength: 0.1M); 335.46
       kJ/mol (ionic strength: 0.25M)
     * Proton affinity: 989.9 kJ/mol
     * Henry's Law constant = 1.1X10-22 atm-cu m/mol at 25 deg C (est)
     * Hydroxyl radical reaction rate constant = 2.4X10-10 cu cm/molec-sec
       at 25 deg C (est)

   from [11]HSDB

   Computed Properties
   Molecular Weight                  267.24132 [g/mol]
   Molecular Formula                 C[10]H[13]N[5]O[4]
   XLogP3                            -1.1
   H-Bond Donor                      4
   H-Bond Acceptor                   8
   Rotatable Bond Count              2
   Tautomer Count                    3
   Exact Mass                        267.096754
   MonoIsotopic Mass                 267.096754
   Topological Polar Surface Area    140
   Heavy Atom Count                  19
   Formal Charge                     0
   Complexity                        335
   Isotope Atom Count                0
   Defined Atom Stereocenter Count   4
   Undefined Atom Stereocenter Count 0
   Defined Bond Stereocenter Count   0
   Undefined Bond Stereocenter Count 0
   Covalently-Bonded Unit Count      1
   Feature 3D Acceptor Count         4
   Feature 3D Donor Count            4
   Feature 3D Cation Count           4
   Feature 3D Ring Count             3
   Effective Rotor Count             3
   Conformer Sampling RMSD           0.6
   CID Conformer Count               [12]15

References

   1. http://toxnet.nlm.nih.gov/cgi-bin/sis/search/r?dbs+hsdb:@term+@rn+@rel+58-61-7
   2. http://toxnet.nlm.nih.gov/cgi-bin/sis/search/r?dbs+hsdb:@term+@rn+@rel+58-61-7
   3. http://toxnet.nlm.nih.gov/cgi-bin/sis/search/r?dbs+hsdb:@term+@rn+@rel+58-61-7
   4. http://toxnet.nlm.nih.gov/cgi-bin/sis/search/r?dbs+hsdb:@term+@rn+@rel+58-61-7
   5. http://toxnet.nlm.nih.gov/cgi-bin/sis/search/r?dbs+hsdb:@term+@rn+@rel+58-61-7
   6. http://toxnet.nlm.nih.gov/cgi-bin/sis/search/r?dbs+hsdb:@term+@rn+@rel+58-61-7
   7. http://toxnet.nlm.nih.gov/cgi-bin/sis/search/r?dbs+hsdb:@term+@rn+@rel+58-61-7
   8. http://toxnet.nlm.nih.gov/cgi-bin/sis/search/r?dbs+hsdb:@term+@rn+@rel+58-61-7
   9. http://toxnet.nlm.nih.gov/cgi-bin/sis/search/r?dbs+hsdb:@term+@rn+@rel+58-61-7
  10. http://toxnet.nlm.nih.gov/cgi-bin/sis/search/r?dbs+hsdb:@term+@rn+@rel+58-61-7
  11. http://toxnet.nlm.nih.gov/cgi-bin/sis/search/r?dbs+hsdb:@term+@rn+@rel+58-61-7
  12. http://pubchem.ncbi.nlm.nih.gov/vw3d/vw3d.cgi?cid=60961
