   Color/Form
        Large, pale yellow-green plates (recrystallized from xylene)
   from [1]HSDB

   Boiling Point
        550 DEG C AT 760 MM HG
   from [2]HSDB

   Melting Point
        277 DEG C
   from [3]HSDB

   Octanol/Water Partition Coefficient
        log Kow= 6.63
   from [4]HSDB

   Solubilities

     * In water, 0.00026 mg/l at 25 deg C.
     * Sol in 1,4-dioxane, dichloromethane, benzene, & acetone

   from [5]HSDB

   Spectral Properties

     * Maximum absorption (in cyclohexane): 222, 252, 275, 288, 299, 311,
       324, 328, 344 362, 383, 392 & 396 NM
     * Intense mass spectral peaks: 276 m/z (100%), 138 m/z (37%), 137 m/z
       (28%), 277 m/z (25%)

   from [6]HSDB

   Vapor Pressure
        1.0X10-10 mm Hg at 25 deg C
   from [7]HSDB

   Other Chemical/Physical Properties

     * Reaction with bromomaleic anhydride forms a
       dibromobenzo(ghi)perylene byproduct as well as
       coronene-dicarboxylic anhydride derivatives; reacts with nitrogen
       oxide & nitrogen dioxide to form nitro derivatives.
     * Henry's Law constant= 2.66X10-7 atm cu-m/mol at 20 deg C

   from [8]HSDB

   Computed Properties
   Molecular Weight                  276.33068 [g/mol]
   Molecular Formula                 C[22]H[12]
   XLogP3-AA                         6.6
   H-Bond Donor                      0
   H-Bond Acceptor                   0
   Rotatable Bond Count              0
   Exact Mass                        276.0939
   MonoIsotopic Mass                 276.0939
   Topological Polar Surface Area    0
   Heavy Atom Count                  22
   Formal Charge                     0
   Complexity                        411
   Isotope Atom Count                0
   Defined Atom Stereocenter Count   0
   Undefined Atom Stereocenter Count 0
   Defined Bond Stereocenter Count   0
   Undefined Bond Stereocenter Count 0
   Covalently-Bonded Unit Count      1
   Feature 3D Ring Count             6
   Effective Rotor Count             0
   Conformer Sampling RMSD           0.6
   CID Conformer Count               [9]1

References

   1. http://toxnet.nlm.nih.gov/cgi-bin/sis/search/r?dbs+hsdb:@term+@rn+@rel+191-24-2
   2. http://toxnet.nlm.nih.gov/cgi-bin/sis/search/r?dbs+hsdb:@term+@rn+@rel+191-24-2
   3. http://toxnet.nlm.nih.gov/cgi-bin/sis/search/r?dbs+hsdb:@term+@rn+@rel+191-24-2
   4. http://toxnet.nlm.nih.gov/cgi-bin/sis/search/r?dbs+hsdb:@term+@rn+@rel+191-24-2
   5. http://toxnet.nlm.nih.gov/cgi-bin/sis/search/r?dbs+hsdb:@term+@rn+@rel+191-24-2
   6. http://toxnet.nlm.nih.gov/cgi-bin/sis/search/r?dbs+hsdb:@term+@rn+@rel+191-24-2
   7. http://toxnet.nlm.nih.gov/cgi-bin/sis/search/r?dbs+hsdb:@term+@rn+@rel+191-24-2
   8. http://toxnet.nlm.nih.gov/cgi-bin/sis/search/r?dbs+hsdb:@term+@rn+@rel+191-24-2
   9. http://pubchem.ncbi.nlm.nih.gov/vw3d/vw3d.cgi?cid=9117
