   Color/Form

     * Orthorhombic bisphenoidal prisms from alcohol or ether
     * Rhombic prisms (stable form), monoclinic prisms (labile form),
       white crystals

   from [1]HSDB

   Odor

     * Geranium-like odor
     * Sweet, rose-like odor

   from [2]HSDB

   Boiling Point
        305.4 deg C
   from [3]HSDB

   Melting Point
        48.5 deg C
   from [4]HSDB

   Density/Specific Gravity
        1.111 at 18 deg C
   from [5]HSDB

   Heat of Vaporization
        23.86 cal/g= 99.83 J/g= 18,191 J/mol
   from [6]HSDB

   Octanol/Water Partition Coefficient
        log Kow = 3.18
   from [7]HSDB

   Solubilities

     * One gram dissolves in 7.5 ml alcohol and 6 ml ether; soluble in
       chloroform.
     * Very soluble in acetone, acetic acid, and carbon disulfide; soluble
       in benzene and methanol.
     * In water, 1.37X10+2 mg/L at 25 deg C

   from [8]HSDB

   Spectral Properties

     * Index of refraction = 1.6077 at 19 deg C
     * IR: 6051 (Coblentz Society Spectral Collection)
     * UV: 659 (Sadtler Research Laboratories Spectral Collection)
     * NMR: 153 (Sadtler Research Laboratories Spectral Collection)
     * MASS: 1239 (NIST/EPA/MSDC Mass Spectral Database, 1990 Version)

   from [9]HSDB

   Surface Tension
        45.1 dyne/cm at 20 deg C
   from [10]HSDB

   Vapor Pressure
        1.93X10-3 mm Hg at 25 deg C (est)
   from [11]HSDB

   Other Chemical/Physical Properties

     * Melting point: (alpha) 49 deg C, (beta) 26 deg C, (gamma) 47 deg C
       ... Density: (alpha) 1.0976 at 50 deg C/50 deg C, (beta) 1.108 at
       23 deg C/40 deg C
     * Henry's Law constant = 1.9X10-6 atm-cu m/mol at 25 deg C (est)
     * Hydroxyl radical reaction rate constant = 3.6X10-12 cu
       cm/molecule-sec at 25 deg C (est)
     * Crystals from ligroin, mp 143-144 deg C. Freely soluble in ether,
       acetone /Oxime/

   from [12]HSDB

   Computed Properties
   Molecular Weight                  182.2179 [g/mol]
   Molecular Formula                 C[13]H[10]O
   XLogP3                            3.4
   H-Bond Donor                      0
   H-Bond Acceptor                   1
   Rotatable Bond Count              2
   Exact Mass                        182.073165
   MonoIsotopic Mass                 182.073165
   Topological Polar Surface Area    17.1
   Heavy Atom Count                  14
   Formal Charge                     0
   Complexity                        165
   Isotope Atom Count                0
   Defined Atom Stereocenter Count   0
   Undefined Atom Stereocenter Count 0
   Defined Bond Stereocenter Count   0
   Undefined Bond Stereocenter Count 0
   Covalently-Bonded Unit Count      1
   Feature 3D Acceptor Count         1
   Feature 3D Ring Count             2
   Effective Rotor Count             2
   Conformer Sampling RMSD           0.6
   CID Conformer Count               [13]1

References

   1. http://toxnet.nlm.nih.gov/cgi-bin/sis/search/r?dbs+hsdb:@term+@rn+@rel+119-61-9
   2. http://toxnet.nlm.nih.gov/cgi-bin/sis/search/r?dbs+hsdb:@term+@rn+@rel+119-61-9
   3. http://toxnet.nlm.nih.gov/cgi-bin/sis/search/r?dbs+hsdb:@term+@rn+@rel+119-61-9
   4. http://toxnet.nlm.nih.gov/cgi-bin/sis/search/r?dbs+hsdb:@term+@rn+@rel+119-61-9
   5. http://toxnet.nlm.nih.gov/cgi-bin/sis/search/r?dbs+hsdb:@term+@rn+@rel+119-61-9
   6. http://toxnet.nlm.nih.gov/cgi-bin/sis/search/r?dbs+hsdb:@term+@rn+@rel+119-61-9
   7. http://toxnet.nlm.nih.gov/cgi-bin/sis/search/r?dbs+hsdb:@term+@rn+@rel+119-61-9
   8. http://toxnet.nlm.nih.gov/cgi-bin/sis/search/r?dbs+hsdb:@term+@rn+@rel+119-61-9
   9. http://toxnet.nlm.nih.gov/cgi-bin/sis/search/r?dbs+hsdb:@term+@rn+@rel+119-61-9
  10. http://toxnet.nlm.nih.gov/cgi-bin/sis/search/r?dbs+hsdb:@term+@rn+@rel+119-61-9
  11. http://toxnet.nlm.nih.gov/cgi-bin/sis/search/r?dbs+hsdb:@term+@rn+@rel+119-61-9
  12. http://toxnet.nlm.nih.gov/cgi-bin/sis/search/r?dbs+hsdb:@term+@rn+@rel+119-61-9
  13. http://pubchem.ncbi.nlm.nih.gov/vw3d/vw3d.cgi?cid=3102
