14316
  -OEChem-06241222432D

 20 21  0     0  0  0  0  0  0999 V2000
    4.6783   -1.5545    0.0000 S   0  0  0  0  0  0  0  0  0  0  0  0
    4.3211    1.7498    0.0000 O   0  0  0  0  0  0  0  0  0  0  0  0
    3.7320   -0.2498    0.0000 C   0  0  0  0  0  0  0  0  0  0  0  0
    4.6783    0.0550    0.0000 C   0  0  0  0  0  0  0  0  0  0  0  0
    3.7320   -1.2498    0.0000 C   0  0  0  0  0  0  0  0  0  0  0  0
    2.8660    0.2502    0.0000 C   0  0  0  0  0  0  0  0  0  0  0  0
    5.2619   -0.7498    0.0000 C   0  0  0  0  0  0  0  0  0  0  0  0
    2.8660   -1.7498    0.0000 C   0  0  0  0  0  0  0  0  0  0  0  0
    4.9889    1.0055    0.0000 C   0  0  0  0  0  0  0  0  0  0  0  0
    2.0000   -0.2498    0.0000 C   0  0  0  0  0  0  0  0  0  0  0  0
    2.0000   -1.2498    0.0000 C   0  0  0  0  0  0  0  0  0  0  0  0
    5.9674    1.2117    0.0000 C   0  0  0  0  0  0  0  0  0  0  0  0
    2.8660    0.8702    0.0000 H   0  0  0  0  0  0  0  0  0  0  0  0
    5.8819   -0.7498    0.0000 H   0  0  0  0  0  0  0  0  0  0  0  0
    2.8660   -2.3698    0.0000 H   0  0  0  0  0  0  0  0  0  0  0  0
    1.4631    0.0602    0.0000 H   0  0  0  0  0  0  0  0  0  0  0  0
    1.4631   -1.5598    0.0000 H   0  0  0  0  0  0  0  0  0  0  0  0
    6.0953    0.6050    0.0000 H   0  0  0  0  0  0  0  0  0  0  0  0
    6.5741    1.3396    0.0000 H   0  0  0  0  0  0  0  0  0  0  0  0
    5.8396    1.8184    0.0000 H   0  0  0  0  0  0  0  0  0  0  0  0
  1  5  1  0  0  0  0
  1  7  1  0  0  0  0
  2  9  2  0  0  0  0
  3  4  1  0  0  0  0
  3  5  1  0  0  0  0
  3  6  2  0  0  0  0
  4  7  2  0  0  0  0
  4  9  1  0  0  0  0
  5  8  2  0  0  0  0
  6 10  1  0  0  0  0
  6 13  1  0  0  0  0
  7 14  1  0  0  0  0
  8 11  1  0  0  0  0
  8 15  1  0  0  0  0
  9 12  1  0  0  0  0
 10 11  2  0  0  0  0
 10 16  1  0  0  0  0
 11 17  1  0  0  0  0
 12 18  1  0  0  0  0
 12 19  1  0  0  0  0
 12 20  1  0  0  0  0
M  END
> <PUBCHEM_COMPOUND_CID>
14316

> <PUBCHEM_COMPOUND_CANONICALIZED>
1

> <PUBCHEM_CACTVS_COMPLEXITY>
190

> <PUBCHEM_CACTVS_HBOND_ACCEPTOR>
2

> <PUBCHEM_CACTVS_HBOND_DONOR>
0

> <PUBCHEM_CACTVS_ROTATABLE_BOND>
1

> <PUBCHEM_CACTVS_SUBSKEYS>
AAADccBwIABAAAAAAAAAAAAAAAAAASAAAAAwAAAAAAAAAEgB8AAAGgQAAAAADASE2ACyAcAAAAiMAqBSAAADAIAkCBBIiBkAAMgIIDKgFRCAIQAggAAoiYcIiMCOgAAAAAAEAAAAAAAAAAgAAAAAAAAAAA==

> <PUBCHEM_IUPAC_OPENEYE_NAME>
1-(benzothiophen-3-yl)ethanone

> <PUBCHEM_IUPAC_CAS_NAME>
1-(1-benzothiophen-3-yl)ethanone

> <PUBCHEM_IUPAC_NAME>
1-(1-benzothiophen-3-yl)ethanone

> <PUBCHEM_IUPAC_SYSTEMATIC_NAME>
1-(1-benzothiophen-3-yl)ethanone

> <PUBCHEM_IUPAC_TRADITIONAL_NAME>
1-(benzothiophen-3-yl)ethanone

> <PUBCHEM_IUPAC_INCHI>
InChI=1S/C10H8OS/c1-7(11)9-6-12-10-5-3-2-4-8(9)10/h2-6H,1H3

> <PUBCHEM_IUPAC_INCHIKEY>
ZTTZKDDWXHQKSY-UHFFFAOYSA-N

> <PUBCHEM_XLOGP3>
2.8

> <PUBCHEM_EXACT_MASS>
176.029586

> <PUBCHEM_MOLECULAR_FORMULA>
C10H8OS

> <PUBCHEM_MOLECULAR_WEIGHT>
176.23492

> <PUBCHEM_OPENEYE_CAN_SMILES>
CC(=O)C1=CSC2=CC=CC=C21

> <PUBCHEM_OPENEYE_ISO_SMILES>
CC(=O)C1=CSC2=CC=CC=C21

> <PUBCHEM_CACTVS_TPSA>
45.3

> <PUBCHEM_MONOISOTOPIC_WEIGHT>
176.029586

> <PUBCHEM_TOTAL_CHARGE>
0

> <PUBCHEM_HEAVY_ATOM_COUNT>
12

> <PUBCHEM_ATOM_DEF_STEREO_COUNT>
0

> <PUBCHEM_ATOM_UDEF_STEREO_COUNT>
0

> <PUBCHEM_BOND_DEF_STEREO_COUNT>
0

> <PUBCHEM_BOND_UDEF_STEREO_COUNT>
0

> <PUBCHEM_ISOTOPIC_ATOM_COUNT>
0

> <PUBCHEM_COMPONENT_COUNT>
1

> <PUBCHEM_CACTVS_TAUTO_COUNT>
2

> <PUBCHEM_COORDINATE_TYPE>
1
5
255

> <PUBCHEM_BONDANNOTATIONS>
1  5  8
1  7  8
10  11  8
3  4  8
3  5  8
3  6  8
4  7  8
5  8  8
6  10  8
8  11  8

$$$$

