53297394
  -OEChem-07051213122D

 43 46  0     1  0  0  0  0  0999 V2000
    2.8921   -2.1193    0.0000 O   0  0  0  0  0  0  0  0  0  0  0  0
    5.1888   -4.1042    0.0000 O   0  0  0  0  0  0  0  0  0  0  0  0
    6.4604   -1.0889    0.0000 O   0  0  0  0  0  0  0  0  0  0  0  0
    2.0000    0.4598    0.0000 O   0  0  0  0  0  0  0  0  0  0  0  0
    2.9042    1.9566    0.0000 O   0  0  0  0  0  0  0  0  0  0  0  0
    3.7484    3.4881    0.0000 O   0  0  0  0  0  0  0  0  0  0  0  0
    3.7542   -1.6126    0.0000 C   0  0  2  0  0  0  0  0  0  0  0  0
    4.6523   -1.0849    0.0000 C   0  0  3  0  0  0  0  0  0  0  0  0
    3.7459   -2.6976    0.0000 C   0  0  0  0  0  0  0  0  0  0  0  0
    4.6855   -3.2401    0.0000 C   0  0  2  0  0  0  0  0  0  0  0  0
    2.8522   -1.0918    0.0000 C   0  0  0  0  0  0  0  0  0  0  0  0
    5.6209   -2.6904    0.0000 C   0  0  0  0  0  0  0  0  0  0  0  0
    5.6042   -1.6055    0.0000 C   0  0  0  0  0  0  0  0  0  0  0  0
    4.6362   -0.0434    0.0000 C   0  0  0  0  0  0  0  0  0  0  0  0
    3.7702    0.4566    0.0000 C   0  0  0  0  0  0  0  0  0  0  0  0
    2.8602   -0.0502    0.0000 C   0  0  0  0  0  0  0  0  0  0  0  0
    4.1889   -4.1080    0.0000 C   0  0  0  0  0  0  0  0  0  0  0  0
    5.5022    0.4566    0.0000 C   0  0  0  0  0  0  0  0  0  0  0  0
    3.7702    1.4566    0.0000 C   0  0  0  0  0  0  0  0  0  0  0  0
    5.5022    1.4566    0.0000 C   0  0  0  0  0  0  0  0  0  0  0  0
    4.6362    1.9566    0.0000 C   0  0  0  0  0  0  0  0  0  0  0  0
    6.4122    1.9635    0.0000 C   0  0  0  0  0  0  0  0  0  0  0  0
    4.6202    2.9981    0.0000 C   0  0  0  0  0  0  0  0  0  0  0  0
    6.4203    3.0051    0.0000 C   0  0  0  0  0  0  0  0  0  0  0  0
    5.5182    3.5259    0.0000 C   0  0  0  0  0  0  0  0  0  0  0  0
    5.1831   -0.7646    0.0000 H   0  0  0  0  0  0  0  0  0  0  0  0
    3.1358   -2.5868    0.0000 H   0  0  0  0  0  0  0  0  0  0  0  0
    3.5323   -3.2797    0.0000 H   0  0  0  0  0  0  0  0  0  0  0  0
    2.2421   -0.9810    0.0000 H   0  0  0  0  0  0  0  0  0  0  0  0
    2.6386   -1.6739    0.0000 H   0  0  0  0  0  0  0  0  0  0  0  0
    5.8390   -3.2708    0.0000 H   0  0  0  0  0  0  0  0  0  0  0  0
    6.2301   -2.5749    0.0000 H   0  0  0  0  0  0  0  0  0  0  0  0
    3.6507   -3.8001    0.0000 H   0  0  0  0  0  0  0  0  0  0  0  0
    3.8809   -4.6462    0.0000 H   0  0  0  0  0  0  0  0  0  0  0  0
    4.7270   -4.4160    0.0000 H   0  0  0  0  0  0  0  0  0  0  0  0
    2.3528   -1.8134    0.0000 H   0  0  0  0  0  0  0  0  0  0  0  0
    6.0392    0.1466    0.0000 H   0  0  0  0  0  0  0  0  0  0  0  0
    5.8088   -4.1018    0.0000 H   0  0  0  0  0  0  0  0  0  0  0  0
    6.9456    1.6473    0.0000 H   0  0  0  0  0  0  0  0  0  0  0  0
    2.9042    2.5766    0.0000 H   0  0  0  0  0  0  0  0  0  0  0  0
    6.9584    3.3130    0.0000 H   0  0  0  0  0  0  0  0  0  0  0  0
    5.5158    4.1459    0.0000 H   0  0  0  0  0  0  0  0  0  0  0  0
    3.7412    4.1080    0.0000 H   0  0  0  0  0  0  0  0  0  0  0  0
  7  1  1  6  0  0  0
  1 36  1  0  0  0  0
 10  2  1  6  0  0  0
  2 38  1  0  0  0  0
  3 13  2  0  0  0  0
  4 16  2  0  0  0  0
  5 19  1  0  0  0  0
  5 40  1  0  0  0  0
  6 23  1  0  0  0  0
  6 43  1  0  0  0  0
  7  8  1  0  0  0  0
  7  9  1  0  0  0  0
  7 11  1  0  0  0  0
  8 13  1  0  0  0  0
  8 14  1  0  0  0  0
  8 26  1  0  0  0  0
  9 10  1  0  0  0  0
  9 27  1  0  0  0  0
  9 28  1  0  0  0  0
 10 12  1  0  0  0  0
 10 17  1  0  0  0  0
 11 16  1  0  0  0  0
 11 29  1  0  0  0  0
 11 30  1  0  0  0  0
 12 13  1  0  0  0  0
 12 31  1  0  0  0  0
 12 32  1  0  0  0  0
 14 15  2  0  0  0  0
 14 18  1  0  0  0  0
 15 16  1  0  0  0  0
 15 19  1  0  0  0  0
 17 33  1  0  0  0  0
 17 34  1  0  0  0  0
 17 35  1  0  0  0  0
 18 20  2  0  0  0  0
 18 37  1  0  0  0  0
 19 21  2  0  0  0  0
 20 21  1  0  0  0  0
 20 22  1  0  0  0  0
 21 23  1  0  0  0  0
 22 24  2  0  0  0  0
 22 39  1  0  0  0  0
 23 25  2  0  0  0  0
 24 25  1  0  0  0  0
 24 41  1  0  0  0  0
 25 42  1  0  0  0  0
M  END
> <PUBCHEM_COMPOUND_CID>
53297394

> <PUBCHEM_COMPOUND_CANONICALIZED>
1

> <PUBCHEM_CACTVS_COMPLEXITY>
605

> <PUBCHEM_CACTVS_HBOND_ACCEPTOR>
6

> <PUBCHEM_CACTVS_HBOND_DONOR>
4

> <PUBCHEM_CACTVS_ROTATABLE_BOND>
0

> <PUBCHEM_CACTVS_SUBSKEYS>
AAADceB4OAAAAAAAAAAAAAAAAAAAAAAAAAAwYMGAAAAAAADBUAAAGgAACAAADUSAmAAyBsAAAgCIAqBSAAACAAAkIAAIiAEGCMgIJzaCFRKAcUAl4BUImQeI7vTuwAADAAAYAADAAAYQADAAAAAAAAAAAA==

> <PUBCHEM_IUPAC_OPENEYE_NAME>
(3R,4aR)-3,4a,7,8-tetrahydroxy-3-methyl-2,4,5,12b-tetrahydrobenzo[a]anthracene-1,6-dione

> <PUBCHEM_IUPAC_CAS_NAME>
(3R,4aR)-3,4a,7,8-tetrahydroxy-3-methyl-2,4,5,12b-tetrahydrobenzo[a]anthracene-1,6-dione

> <PUBCHEM_IUPAC_NAME>
(3R,4aR)-3,4a,7,8-tetrahydroxy-3-methyl-2,4,5,12b-tetrahydrobenzo[a]anthracene-1,6-dione

> <PUBCHEM_IUPAC_SYSTEMATIC_NAME>
(3R,4aR)-3-methyl-3,4a,7,8-tetrakis(oxidanyl)-2,4,5,12b-tetrahydrobenzo[a]anthracene-1,6-dione

> <PUBCHEM_IUPAC_TRADITIONAL_NAME>
(3R,4aR)-3,4a,7,8-tetrahydroxy-3-methyl-2,4,5,12b-tetrahydrobenz[a]anthracene-1,6-quinone

> <PUBCHEM_IUPAC_INCHI>
InChI=1S/C19H18O6/c1-18(24)6-13(22)16-10-5-9-3-2-4-11(20)14(9)17(23)15(10)12(21)7-19(16,25)8-18/h2-5,16,20,23-25H,6-8H2,1H3/t16?,18-,19-/m0/s1

> <PUBCHEM_IUPAC_INCHIKEY>
NNTVQEYUUGBASA-MSYFUGIWSA-N

> <PUBCHEM_XLOGP3_AA>
1.1

> <PUBCHEM_EXACT_MASS>
342.110338

> <PUBCHEM_MOLECULAR_FORMULA>
C19H18O6

> <PUBCHEM_MOLECULAR_WEIGHT>
342.34262

> <PUBCHEM_OPENEYE_CAN_SMILES>
CC1(CC(=O)C2C3=C(C(=O)CC2(C1)O)C(=C4C(=C3)C=CC=C4O)O)O

> <PUBCHEM_OPENEYE_ISO_SMILES>
C[C@@]1(CC(=O)C2C3=C(C(=O)C[C@@]2(C1)O)C(=C4C(=C3)C=CC=C4O)O)O

> <PUBCHEM_CACTVS_TPSA>
115

> <PUBCHEM_MONOISOTOPIC_WEIGHT>
342.110338

> <PUBCHEM_TOTAL_CHARGE>
0

> <PUBCHEM_HEAVY_ATOM_COUNT>
25

> <PUBCHEM_ATOM_DEF_STEREO_COUNT>
2

> <PUBCHEM_ATOM_UDEF_STEREO_COUNT>
1

> <PUBCHEM_BOND_DEF_STEREO_COUNT>
0

> <PUBCHEM_BOND_UDEF_STEREO_COUNT>
0

> <PUBCHEM_ISOTOPIC_ATOM_COUNT>
0

> <PUBCHEM_COMPONENT_COUNT>
1

> <PUBCHEM_CACTVS_TAUTO_COUNT>
243

> <PUBCHEM_COORDINATE_TYPE>
1
5
255

> <PUBCHEM_BONDANNOTATIONS>
7  1  6
14  15  8
14  18  8
15  19  8
18  20  8
19  21  8
10  2  6
20  21  8
20  22  8
21  23  8
22  24  8
23  25  8
24  25  8
8  13  3

$$$$

