   Color/Form
        Colorless liquid
   from [1]HSDB

   Odor
        Fishy odor
   from [2]HSDB

   Boiling Point
        85 deg C at 15 mm Hg; 67 deg C at 4.0 mm Hg
   from [3]HSDB

   Corrosivity
        Corrosive to metals
   from [4]HSDB

   Density/Specific Gravity
        1.1151 at 20 deg C/4 deg C
   from [5]HSDB

   Octanol/Water Partition Coefficient
        log Kow = -0.43 /Estimated/
   from [6]HSDB

   Solubilities

     * Miscible with most organic solvents
     * Miscible with water at 20 deg C.

   from [7]HSDB

   Spectral Properties
        Index of refraction: 1.4257 at 20 deg C/D
   from [8]HSDB

   Vapor Pressure
        0.14 mbar (0.11 mm Hg) at 20 deg C
   from [9]HSDB

   Other Chemical/Physical Properties

     * Vapor pressure = 48,000 mPa (0.36 mm Hg) at 25 deg C; log P= 1.2
       (chloroform/water partition coefficient); resistant to hydrolysis
       by alkali but is hydrolyzed by acids; slowly oxidized by vigorous
       oxidizing agents, rapidly by chlorine
     * Resistant to hydrolysis with half-life over ten years at pH 7.
     * Henry's Law constant = 2.2X10-8 atm cu m/mol at 20 deg C
       /Estimated/
     * Hydroxyl radical reaction rate constant = 6.40X10-11 cu
       cm/molec-sec at 25 deg C

   from [10]HSDB

   Computed Properties
   Molecular Weight                  154.123045 [g/mol]
   Molecular Formula                 C[4]H[12]FN[2]OP
   XLogP3                            -0.1
   H-Bond Donor                      0
   H-Bond Acceptor                   4
   Rotatable Bond Count              2
   Exact Mass                        154.067128
   MonoIsotopic Mass                 154.067128
   Topological Polar Surface Area    23.6
   Heavy Atom Count                  9
   Formal Charge                     0
   Complexity                        125
   Isotope Atom Count                0
   Defined Atom Stereocenter Count   0
   Undefined Atom Stereocenter Count 0
   Defined Bond Stereocenter Count   0
   Undefined Bond Stereocenter Count 0
   Covalently-Bonded Unit Count      1
   Feature 3D Acceptor Count         1
   Effective Rotor Count             2
   Conformer Sampling RMSD           0.4
   CID Conformer Count               [11]7

References

   1. http://toxnet.nlm.nih.gov/cgi-bin/sis/search/r?dbs+hsdb:@term+@rn+@rel+115-26-4
   2. http://toxnet.nlm.nih.gov/cgi-bin/sis/search/r?dbs+hsdb:@term+@rn+@rel+115-26-4
   3. http://toxnet.nlm.nih.gov/cgi-bin/sis/search/r?dbs+hsdb:@term+@rn+@rel+115-26-4
   4. http://toxnet.nlm.nih.gov/cgi-bin/sis/search/r?dbs+hsdb:@term+@rn+@rel+115-26-4
   5. http://toxnet.nlm.nih.gov/cgi-bin/sis/search/r?dbs+hsdb:@term+@rn+@rel+115-26-4
   6. http://toxnet.nlm.nih.gov/cgi-bin/sis/search/r?dbs+hsdb:@term+@rn+@rel+115-26-4
   7. http://toxnet.nlm.nih.gov/cgi-bin/sis/search/r?dbs+hsdb:@term+@rn+@rel+115-26-4
   8. http://toxnet.nlm.nih.gov/cgi-bin/sis/search/r?dbs+hsdb:@term+@rn+@rel+115-26-4
   9. http://toxnet.nlm.nih.gov/cgi-bin/sis/search/r?dbs+hsdb:@term+@rn+@rel+115-26-4
  10. http://toxnet.nlm.nih.gov/cgi-bin/sis/search/r?dbs+hsdb:@term+@rn+@rel+115-26-4
  11. http://pubchem.ncbi.nlm.nih.gov/vw3d/vw3d.cgi?cid=8264
