5461066
  -OEChem-07051213112D

 54 58  0     1  0  0  0  0  0999 V2000
    6.2296    1.2399    0.0000 O   0  0  0  0  0  0  0  0  0  0  0  0
    7.7346    2.0162    0.0000 O   0  0  0  0  0  0  0  0  0  0  0  0
    8.9506    2.0489    0.0000 O   0  0  0  0  0  0  0  0  0  0  0  0
   10.9403    1.8463    0.0000 O   0  0  0  0  0  0  0  0  0  0  0  0
    2.0000   -2.4923    0.0000 O   0  0  0  0  0  0  0  0  0  0  0  0
    7.7811    0.3234    0.0000 C   0  0  2  0  0  0  0  0  0  0  0  0
    7.4768   -0.6292    0.0000 C   0  0  2  0  0  0  0  0  0  0  0  0
    6.5423   -0.9852    0.0000 C   0  0  1  0  0  0  0  0  0  0  0  0
    5.6813   -0.4766    0.0000 C   0  0  2  0  0  0  0  0  0  0  0  0
    5.5422    0.5136    0.0000 C   0  0  2  0  0  0  0  0  0  0  0  0
    6.6306    0.0538    0.0000 C   0  0  0  0  0  0  0  0  0  0  0  0
    8.7751    0.3258    0.0000 C   0  0  2  0  0  0  0  0  0  0  0  0
    4.7663   -0.9744    0.0000 C   0  0  2  0  0  0  0  0  0  0  0  0
    8.2854   -1.2074    0.0000 C   0  0  0  0  0  0  0  0  0  0  0  0
    7.2260    1.1552    0.0000 C   0  0  3  0  0  0  0  0  0  0  0  0
    9.0862   -0.6184    0.0000 C   0  0  0  0  0  0  0  0  0  0  0  0
    6.5480   -2.0268    0.0000 C   0  0  0  0  0  0  0  0  0  0  0  0
    4.7479   -2.0158    0.0000 C   0  0  0  0  0  0  0  0  0  0  0  0
    5.6447   -2.5456    0.0000 C   0  0  0  0  0  0  0  0  0  0  0  0
    3.8451   -0.4011    0.0000 C   0  0  0  0  0  0  0  0  0  0  0  0
    4.4410   -0.0288    0.0000 C   0  0  0  0  0  0  0  0  0  0  0  0
    9.3603    1.1367    0.0000 C   0  0  0  0  0  0  0  0  0  0  0  0
    2.8920   -0.9195    0.0000 C   0  0  0  0  0  0  0  0  0  0  0  0
    3.8070   -2.5562    0.0000 C   0  0  0  0  0  0  0  0  0  0  0  0
    2.8729   -2.0044    0.0000 C   0  0  0  0  0  0  0  0  0  0  0  0
   10.3551    1.0354    0.0000 C   0  0  0  0  0  0  0  0  0  0  0  0
    7.5108   -1.4785    0.0000 H   0  0  0  0  0  0  0  0  0  0  0  0
    7.0822   -1.6418    0.0000 H   0  0  0  0  0  0  0  0  0  0  0  0
    4.9495   -0.0443    0.0000 H   0  0  0  0  0  0  0  0  0  0  0  0
    4.6952    0.5856    0.0000 H   0  0  0  0  0  0  0  0  0  0  0  0
    6.2249   -0.4150    0.0000 H   0  0  0  0  0  0  0  0  0  0  0  0
    6.9514   -0.4768    0.0000 H   0  0  0  0  0  0  0  0  0  0  0  0
    8.4921    0.8774    0.0000 H   0  0  0  0  0  0  0  0  0  0  0  0
    7.8738   -1.6710    0.0000 H   0  0  0  0  0  0  0  0  0  0  0  0
    8.7032   -1.6655    0.0000 H   0  0  0  0  0  0  0  0  0  0  0  0
    6.8363    1.9106    0.0000 H   0  0  0  0  0  0  0  0  0  0  0  0
    9.3990   -1.1537    0.0000 H   0  0  0  0  0  0  0  0  0  0  0  0
    9.6514   -0.3635    0.0000 H   0  0  0  0  0  0  0  0  0  0  0  0
    6.7602   -2.6094    0.0000 H   0  0  0  0  0  0  0  0  0  0  0  0
    7.1583   -1.9174    0.0000 H   0  0  0  0  0  0  0  0  0  0  0  0
    5.2427   -3.0176    0.0000 H   0  0  0  0  0  0  0  0  0  0  0  0
    6.0410   -3.0225    0.0000 H   0  0  0  0  0  0  0  0  0  0  0  0
    4.2580    0.0615    0.0000 H   0  0  0  0  0  0  0  0  0  0  0  0
    3.4600    0.0848    0.0000 H   0  0  0  0  0  0  0  0  0  0  0  0
    5.0272    0.1729    0.0000 H   0  0  0  0  0  0  0  0  0  0  0  0
    4.2392    0.5575    0.0000 H   0  0  0  0  0  0  0  0  0  0  0  0
    3.8547   -0.2305    0.0000 H   0  0  0  0  0  0  0  0  0  0  0  0
    7.4300    2.5562    0.0000 H   0  0  0  0  0  0  0  0  0  0  0  0
    2.6933   -0.3322    0.0000 H   0  0  0  0  0  0  0  0  0  0  0  0
    2.2794   -1.0148    0.0000 H   0  0  0  0  0  0  0  0  0  0  0  0
    3.8032   -3.1762    0.0000 H   0  0  0  0  0  0  0  0  0  0  0  0
   10.1862    0.4389    0.0000 H   0  0  0  0  0  0  0  0  0  0  0  0
   10.9133    0.7654    0.0000 H   0  0  0  0  0  0  0  0  0  0  0  0
   11.5571    1.7835    0.0000 H   0  0  0  0  0  0  0  0  0  0  0  0
  1 10  1  0  0  0  0
  1 15  1  0  0  0  0
  2 15  1  0  0  0  0
  2 48  1  0  0  0  0
  3 22  2  0  0  0  0
  4 26  1  0  0  0  0
  4 54  1  0  0  0  0
  5 25  2  0  0  0  0
  6  7  1  0  0  0  0
  6 11  1  6  0  0  0
  6 12  1  0  0  0  0
  6 15  1  0  0  0  0
  7  8  1  0  0  0  0
  7 14  1  0  0  0  0
  7 27  1  6  0  0  0
  8  9  1  0  0  0  0
  8 17  1  0  0  0  0
  8 28  1  1  0  0  0
  9 10  1  0  0  0  0
  9 13  1  0  0  0  0
  9 29  1  6  0  0  0
 10 11  1  0  0  0  0
 10 30  1  6  0  0  0
 11 31  1  0  0  0  0
 11 32  1  0  0  0  0
 12 16  1  0  0  0  0
 12 22  1  1  0  0  0
 12 33  1  0  0  0  0
 13 18  1  0  0  0  0
 13 20  1  0  0  0  0
 13 21  1  1  0  0  0
 14 16  1  0  0  0  0
 14 34  1  0  0  0  0
 14 35  1  0  0  0  0
 15 36  1  0  0  0  0
 16 37  1  0  0  0  0
 16 38  1  0  0  0  0
 17 19  1  0  0  0  0
 17 39  1  0  0  0  0
 17 40  1  0  0  0  0
 18 19  1  0  0  0  0
 18 24  2  0  0  0  0
 19 41  1  0  0  0  0
 19 42  1  0  0  0  0
 20 23  1  0  0  0  0
 20 43  1  0  0  0  0
 20 44  1  0  0  0  0
 21 45  1  0  0  0  0
 21 46  1  0  0  0  0
 21 47  1  0  0  0  0
 22 26  1  0  0  0  0
 23 25  1  0  0  0  0
 23 49  1  0  0  0  0
 23 50  1  0  0  0  0
 24 25  1  0  0  0  0
 24 51  1  0  0  0  0
 26 52  1  0  0  0  0
 26 53  1  0  0  0  0
M  END
> <PUBCHEM_COMPOUND_CID>
5461066

> <PUBCHEM_COMPOUND_CANONICALIZED>
1

> <PUBCHEM_CACTVS_COMPLEXITY>
699

> <PUBCHEM_CACTVS_HBOND_ACCEPTOR>
5

> <PUBCHEM_CACTVS_HBOND_DONOR>
2

> <PUBCHEM_CACTVS_ROTATABLE_BOND>
2

> <PUBCHEM_CACTVS_SUBSKEYS>
AAADceB4OAAAAAAAAAAAAAAAAAAAAaIAAAAwYIAABIAAAGDQAAAAGgAACAAADxSwgAMCCAAABgCIAqBSAAIAAAAgAAAACAFAAEgQEBIAAQACQAAEgAAMAQPK7PjPgAAAAAAAAADAAAYAADAAAQAACAAAAA==

> <PUBCHEM_IUPAC_INCHI>
InChI=1S/C21H28O5/c1-20-7-6-12(23)8-11(20)2-3-13-14-4-5-15(16(24)10-22)21(14)9-17(18(13)20)26-19(21)25/h8,13-15,17-19,22,25H,2-7,9-10H2,1H3/t13-,14-,15+,17-,18+,19?,20-,21+/m0/s1

> <PUBCHEM_IUPAC_INCHIKEY>
QUQBHBRVKLEOEI-UBWIUKTRSA-N

> <PUBCHEM_XLOGP3_AA>
1.3

> <PUBCHEM_EXACT_MASS>
360.193674

> <PUBCHEM_MOLECULAR_FORMULA>
C21H28O5

> <PUBCHEM_MOLECULAR_WEIGHT>
360.44402

> <PUBCHEM_OPENEYE_CAN_SMILES>
CC12CCC(=O)C=C1CCC3C2C4CC5(C3CCC5C(=O)CO)C(O4)O

> <PUBCHEM_OPENEYE_ISO_SMILES>
C[C@]12CCC(=O)C=C1CC[C@@H]3[C@@H]2[C@@H]4C[C@]5([C@H]3CC[C@@H]5C(=O)CO)C(O4)O

> <PUBCHEM_CACTVS_TPSA>
83.8

> <PUBCHEM_MONOISOTOPIC_WEIGHT>
360.193674

> <PUBCHEM_TOTAL_CHARGE>
0

> <PUBCHEM_HEAVY_ATOM_COUNT>
26

> <PUBCHEM_ATOM_DEF_STEREO_COUNT>
7

> <PUBCHEM_ATOM_UDEF_STEREO_COUNT>
1

> <PUBCHEM_BOND_DEF_STEREO_COUNT>
0

> <PUBCHEM_BOND_UDEF_STEREO_COUNT>
0

> <PUBCHEM_ISOTOPIC_ATOM_COUNT>
0

> <PUBCHEM_COMPONENT_COUNT>
1

> <PUBCHEM_CACTVS_TAUTO_COUNT>
20

> <PUBCHEM_COORDINATE_TYPE>
1
5
255

> <PUBCHEM_BONDANNOTATIONS>
10  30  6
12  22  5
13  21  5
15  36  3
6  11  6
7  27  6
8  28  5
9  29  6

$$$$

