   Color/Form

     * Colorless to pale yellow liquid
     * Clear, colorless, heavy liquid

   from [1]HSDB

   Boiling Point
        121.3 - 121.8 deg C; also reported as 123-125 deg C
   from [2]HSDB

   Melting Point
        -20 deg C
   from [3]HSDB

   Density/Specific Gravity
        Specific Gravity = 2.38
   from [4]HSDB

   Octanol/Water Partition Coefficient
        log Kow = 2.16
   from [5]HSDB

   Solubilities

     * > 10% in acetone; > 10% in benzene; > 10% in ethyl ether; > 10% in
       ethanol
     * Soluble in ethanol, ethyl ether, benzene, carbon tetrachloride,
       organic solvents, and acetone
     * Miscible in organic solvents.
     * In water, 2.70X10+3 mg/L at 20 deg C [Heikes DL; J Assoc Off Anal
       Chem 70: 215-226 (1987)] [6]PubMed Abstract

   from [7]HSDB

   Spectral Properties

     * Index of refraction = 1.5482 at 20 deg C/D
     * IR: 284 (Sadtler Research Laboratories IR Grating Collection)
     * NMR: 6708 (Sadtler Research Laboratories Spectral Collection)
     * MASS: 9474 (NIST/EPA/MSDC Mass Spectral Database, 1990 version)
     * Raman: 1167 (Sadtler Research Laboratories spectral collection)
     * 1H NMR: 6708 (Sadtler Research Laboratories spectral collection)
     * 13C NMR: 130 (Stothers, Carbon-13 NMR Spectroscopy, Academic Pres,
       NY)

   from [8]HSDB

   Vapor Pressure
        5.54 mm Hg at 25 deg C (est)
   from [9]HSDB

   Other Chemical/Physical Properties

     * Enthalpy of formation at 25 deg C: -5.0 kcal/mole (gas); Gibbs
       (free) energy of formation at 25 deg C: -4.50 kcal/mole (gas);
       entropy at 25 deg C: 78.31 cal/deg.mole (gas)
     * Henry's Law constant = 7.83X10-4 atm-cu m/mol at 20 deg C
     * Hydroxyl radical reaction rate constant = 5.8X10-14 cu
       cm/molecule-sec at 25 deg C (est)

   from [10]HSDB

   Computed Properties
   Molecular Weight                  208.27964 [g/mol]
   Molecular Formula                 CHBr[2]Cl
   XLogP3-AA                         2.6
   H-Bond Donor                      0
   H-Bond Acceptor                   0
   Rotatable Bond Count              0
   Exact Mass                        207.811305
   MonoIsotopic Mass                 205.813352
   Topological Polar Surface Area    0
   Heavy Atom Count                  4
   Formal Charge                     0
   Complexity                        13.5
   Isotope Atom Count                0
   Defined Atom Stereocenter Count   0
   Undefined Atom Stereocenter Count 0
   Defined Bond Stereocenter Count   0
   Undefined Bond Stereocenter Count 0
   Covalently-Bonded Unit Count      1
   Feature 3D Hydrophobe Count       3
   Effective Rotor Count             0
   Conformer Sampling RMSD           0.4
   CID Conformer Count               [11]1

References

   1. http://toxnet.nlm.nih.gov/cgi-bin/sis/search/r?dbs+hsdb:@term+@rn+@rel+124-48-1
   2. http://toxnet.nlm.nih.gov/cgi-bin/sis/search/r?dbs+hsdb:@term+@rn+@rel+124-48-1
   3. http://toxnet.nlm.nih.gov/cgi-bin/sis/search/r?dbs+hsdb:@term+@rn+@rel+124-48-1
   4. http://toxnet.nlm.nih.gov/cgi-bin/sis/search/r?dbs+hsdb:@term+@rn+@rel+124-48-1
   5. http://toxnet.nlm.nih.gov/cgi-bin/sis/search/r?dbs+hsdb:@term+@rn+@rel+124-48-1
   6. http://www.ncbi.nlm.nih.gov/entrez/query.fcgi?cmd=Retrieve&db=pubmed&dopt=Abstract&list_uids=3571114
   7. http://toxnet.nlm.nih.gov/cgi-bin/sis/search/r?dbs+hsdb:@term+@rn+@rel+124-48-1
   8. http://toxnet.nlm.nih.gov/cgi-bin/sis/search/r?dbs+hsdb:@term+@rn+@rel+124-48-1
   9. http://toxnet.nlm.nih.gov/cgi-bin/sis/search/r?dbs+hsdb:@term+@rn+@rel+124-48-1
  10. http://toxnet.nlm.nih.gov/cgi-bin/sis/search/r?dbs+hsdb:@term+@rn+@rel+124-48-1
  11. http://pubchem.ncbi.nlm.nih.gov/vw3d/vw3d.cgi?cid=31296
