15517793
  -OEChem-07051212522D

 21 22  0     1  0  0  0  0  0999 V2000
    4.6650    1.6540    0.0000 O   0  0  0  0  0  0  0  0  0  0  0  0
    2.0000   -0.3677    0.0000 O   0  0  0  0  0  0  0  0  0  0  0  0
    4.3049   -1.6583    0.0000 O   0  0  0  0  0  0  0  0  0  0  0  0
    5.9521   -1.1230    0.0000 O   0  0  0  0  0  0  0  0  0  0  0  0
    7.7528    1.7110    0.0000 O   0  0  0  0  0  0  0  0  0  0  0  0
    3.7139    0.3450    0.0000 N   0  0  0  0  0  0  0  0  0  0  0  0
    3.7139    1.3450    0.0000 C   0  0  1  0  0  0  0  0  0  0  0  0
    2.7056    1.3491    0.0000 C   0  0  0  0  0  0  0  0  0  0  0  0
    4.6650    0.0359    0.0000 C   0  0  2  0  0  0  0  0  0  0  0  0
    2.7056    0.3408    0.0000 C   0  0  0  0  0  0  0  0  0  0  0  0
    5.2528    0.8450    0.0000 C   0  0  0  0  0  0  0  0  0  0  0  0
    4.9740   -0.9151    0.0000 C   0  0  0  0  0  0  0  0  0  0  0  0
    6.2528    0.8450    0.0000 C   0  0  0  0  0  0  0  0  0  0  0  0
    6.7528    1.7110    0.0000 C   0  0  0  0  0  0  0  0  0  0  0  0
    3.5827    2.1848    0.0000 H   0  0  0  0  0  0  0  0  0  0  0  0
    2.7074    1.9691    0.0000 H   0  0  0  0  0  0  0  0  0  0  0  0
    2.0856    1.3500    0.0000 H   0  0  0  0  0  0  0  0  0  0  0  0
    4.2266   -0.4025    0.0000 H   0  0  0  0  0  0  0  0  0  0  0  0
    6.5628    0.3080    0.0000 H   0  0  0  0  0  0  0  0  0  0  0  0
    4.4965   -2.2479    0.0000 H   0  0  0  0  0  0  0  0  0  0  0  0
    6.4428    2.2479    0.0000 H   0  0  0  0  0  0  0  0  0  0  0  0
  1  7  1  0  0  0  0
  1 11  1  0  0  0  0
  2 10  2  0  0  0  0
  3 12  1  0  0  0  0
  3 20  1  0  0  0  0
  4 12  2  0  0  0  0
  5 14  2  0  0  0  0
  6  7  1  0  0  0  0
  6  9  1  0  0  0  0
  6 10  1  0  0  0  0
  7  8  1  0  0  0  0
  7 15  1  6  0  0  0
  8 10  1  0  0  0  0
  8 16  1  0  0  0  0
  8 17  1  0  0  0  0
  9 11  1  0  0  0  0
  9 12  1  6  0  0  0
  9 18  1  0  0  0  0
 11 13  2  0  0  0  0
 13 14  1  0  0  0  0
 13 19  1  0  0  0  0
 14 21  1  0  0  0  0
M  END
> <PUBCHEM_COMPOUND_CID>
15517793

> <PUBCHEM_COMPOUND_CANONICALIZED>
1

> <PUBCHEM_CACTVS_COMPLEXITY>
348

> <PUBCHEM_CACTVS_HBOND_ACCEPTOR>
5

> <PUBCHEM_CACTVS_HBOND_DONOR>
1

> <PUBCHEM_CACTVS_ROTATABLE_BOND>
2

> <PUBCHEM_CACTVS_SUBSKEYS>
AAADcYByOAAAAAAAAAAAAAAAAABYAWAAAAAAAAAABYAAAAAAAAAAHgAACAAACCzhgAYACAMABgCIACnSmACACAAgIAAACAGIAEgCAAwAASAPQAADZgCYAQIAAAAAAAAAAAAAAAAAAAAAAAAAAAAAAAAAAA==

> <PUBCHEM_IUPAC_OPENEYE_NAME>
(2R,3Z,5R)-7-oxo-3-(2-oxoethylidene)-4-oxa-1-azabicyclo[3.2.0]heptane-2-carboxylic acid

> <PUBCHEM_IUPAC_CAS_NAME>
(2R,3Z,5R)-7-oxo-3-(2-oxoethylidene)-4-oxa-1-azabicyclo[3.2.0]heptane-2-carboxylic acid

> <PUBCHEM_IUPAC_NAME>
(2R,3Z,5R)-7-oxo-3-(2-oxoethylidene)-4-oxa-1-azabicyclo[3.2.0]heptane-2-carboxylic acid

> <PUBCHEM_IUPAC_SYSTEMATIC_NAME>
(2R,3Z,5R)-7-oxidanylidene-3-(2-oxidanylideneethylidene)-4-oxa-1-azabicyclo[3.2.0]heptane-2-carboxylic acid

> <PUBCHEM_IUPAC_TRADITIONAL_NAME>
(2R,3Z,5R)-7-keto-3-(2-ketoethylidene)-4-oxa-1-azabicyclo[3.2.0]heptane-2-carboxylic acid

> <PUBCHEM_IUPAC_INCHI>
InChI=1S/C8H7NO5/c10-2-1-4-7(8(12)13)9-5(11)3-6(9)14-4/h1-2,6-7H,3H2,(H,12,13)/b4-1-/t6-,7-/m1/s1

> <PUBCHEM_IUPAC_INCHIKEY>
NABDJFSYSZIMMH-PBFISZAISA-N

> <PUBCHEM_XLOGP3>
-1.1

> <PUBCHEM_EXACT_MASS>
197.032422

> <PUBCHEM_MOLECULAR_FORMULA>
C8H7NO5

> <PUBCHEM_MOLECULAR_WEIGHT>
197.14488

> <PUBCHEM_OPENEYE_CAN_SMILES>
C1C2N(C1=O)C(C(=CC=O)O2)C(=O)O

> <PUBCHEM_OPENEYE_ISO_SMILES>
C1[C@@H]2N(C1=O)[C@H](/C(=C/C=O)/O2)C(=O)O

> <PUBCHEM_CACTVS_TPSA>
83.9

> <PUBCHEM_MONOISOTOPIC_WEIGHT>
197.032422

> <PUBCHEM_TOTAL_CHARGE>
0

> <PUBCHEM_HEAVY_ATOM_COUNT>
14

> <PUBCHEM_ATOM_DEF_STEREO_COUNT>
2

> <PUBCHEM_ATOM_UDEF_STEREO_COUNT>
0

> <PUBCHEM_BOND_DEF_STEREO_COUNT>
1

> <PUBCHEM_BOND_UDEF_STEREO_COUNT>
0

> <PUBCHEM_ISOTOPIC_ATOM_COUNT>
0

> <PUBCHEM_COMPONENT_COUNT>
1

> <PUBCHEM_CACTVS_TAUTO_COUNT>
2

> <PUBCHEM_COORDINATE_TYPE>
1
5
255

> <PUBCHEM_BONDANNOTATIONS>
7  15  6
9  12  6

$$$$

