3430
  -OEChem-06251223242D

 67 69  0     1  0  0  0  0  0999 V2000
    5.5981   -4.7430    0.0000 O   0  0  0  0  0  0  0  0  0  0  0  0
    6.3301   -4.7430    0.0000 O   0  0  0  0  0  0  0  0  0  0  0  0
    5.0981   -1.8770    0.0000 O   0  0  0  0  0  0  0  0  0  0  0  0
    6.8301   -0.8770    0.0000 O   0  0  0  0  0  0  0  0  0  0  0  0
    8.5622   -0.8770    0.0000 O   0  0  0  0  0  0  0  0  0  0  0  0
   12.0263    7.1230    0.0000 O   0  0  0  0  0  0  0  0  0  0  0  0
   10.2942    7.1230    0.0000 O   0  0  0  0  0  0  0  0  0  0  0  0
    5.9641   -3.3770    0.0000 C   0  0  3  0  0  0  0  0  0  0  0  0
    6.8301   -3.8770    0.0000 C   0  0  3  0  0  0  0  0  0  0  0  0
    5.0981   -3.8770    0.0000 C   0  0  3  0  0  0  0  0  0  0  0  0
    4.5981   -4.7430    0.0000 C   0  0  3  0  0  0  0  0  0  0  0  0
    5.9641   -2.3770    0.0000 C   0  0  3  0  0  0  0  0  0  0  0  0
    7.3301   -4.7430    0.0000 C   0  0  0  0  0  0  0  0  0  0  0  0
    7.6962   -3.3770    0.0000 C   0  0  0  0  0  0  0  0  0  0  0  0
    6.8301   -1.8770    0.0000 C   0  0  3  0  0  0  0  0  0  0  0  0
    7.6962   -2.3770    0.0000 C   0  0  0  0  0  0  0  0  0  0  0  0
    4.2320   -3.3770    0.0000 C   0  0  0  0  0  0  0  0  0  0  0  0
    3.7320   -5.2430    0.0000 C   0  0  0  0  0  0  0  0  0  0  0  0
    3.7320   -6.2430    0.0000 C   0  0  0  0  0  0  0  0  0  0  0  0
    5.0981   -0.8770    0.0000 C   0  0  0  0  0  0  0  0  0  0  0  0
    7.6962   -0.3770    0.0000 C   0  0  0  0  0  0  0  0  0  0  0  0
    2.8660   -6.7430    0.0000 C   0  0  0  0  0  0  0  0  0  0  0  0
    2.8660   -7.7430    0.0000 C   0  0  0  0  0  0  0  0  0  0  0  0
    2.0000   -6.2430    0.0000 C   0  0  0  0  0  0  0  0  0  0  0  0
    7.6962    0.6230    0.0000 C   0  0  0  0  0  0  0  0  0  0  0  0
    8.5622    1.1230    0.0000 C   0  0  0  0  0  0  0  0  0  0  0  0
    8.5622    2.1230    0.0000 C   0  0  0  0  0  0  0  0  0  0  0  0
    9.4282    2.6230    0.0000 C   0  0  0  0  0  0  0  0  0  0  0  0
    9.4282    3.6230    0.0000 C   0  0  0  0  0  0  0  0  0  0  0  0
   10.2942    4.1230    0.0000 C   0  0  0  0  0  0  0  0  0  0  0  0
   10.2942    5.1230    0.0000 C   0  0  0  0  0  0  0  0  0  0  0  0
   11.1603    5.6230    0.0000 C   0  0  0  0  0  0  0  0  0  0  0  0
   11.1603    6.6230    0.0000 C   0  0  0  0  0  0  0  0  0  0  0  0
    5.2280   -2.9520    0.0000 H   0  0  0  0  0  0  0  0  0  0  0  0
    4.8181   -5.5640    0.0000 H   0  0  0  0  0  0  0  0  0  0  0  0
    5.9641   -1.5270    0.0000 H   0  0  0  0  0  0  0  0  0  0  0  0
    7.4378   -5.3536    0.0000 H   0  0  0  0  0  0  0  0  0  0  0  0
    7.9127   -4.5310    0.0000 H   0  0  0  0  0  0  0  0  0  0  0  0
    7.9082   -3.9596    0.0000 H   0  0  0  0  0  0  0  0  0  0  0  0
    8.3067   -3.2693    0.0000 H   0  0  0  0  0  0  0  0  0  0  0  0
    7.5662   -1.4520    0.0000 H   0  0  0  0  0  0  0  0  0  0  0  0
    8.3067   -2.4846    0.0000 H   0  0  0  0  0  0  0  0  0  0  0  0
    7.9082   -1.7944    0.0000 H   0  0  0  0  0  0  0  0  0  0  0  0
    4.5420   -2.8401    0.0000 H   0  0  0  0  0  0  0  0  0  0  0  0
    3.6951   -3.0670    0.0000 H   0  0  0  0  0  0  0  0  0  0  0  0
    3.9220   -3.9139    0.0000 H   0  0  0  0  0  0  0  0  0  0  0  0
    3.5200   -4.6604    0.0000 H   0  0  0  0  0  0  0  0  0  0  0  0
    3.1215   -5.3507    0.0000 H   0  0  0  0  0  0  0  0  0  0  0  0
    4.2690   -6.5530    0.0000 H   0  0  0  0  0  0  0  0  0  0  0  0
    5.7181   -0.8770    0.0000 H   0  0  0  0  0  0  0  0  0  0  0  0
    5.0981   -0.2570    0.0000 H   0  0  0  0  0  0  0  0  0  0  0  0
    4.4781   -0.8770    0.0000 H   0  0  0  0  0  0  0  0  0  0  0  0
    2.3100   -5.7061    0.0000 H   0  0  0  0  0  0  0  0  0  0  0  0
    2.2460   -7.7430    0.0000 H   0  0  0  0  0  0  0  0  0  0  0  0
    2.8660   -8.3630    0.0000 H   0  0  0  0  0  0  0  0  0  0  0  0
    3.4860   -7.7430    0.0000 H   0  0  0  0  0  0  0  0  0  0  0  0
    1.4631   -5.9330    0.0000 H   0  0  0  0  0  0  0  0  0  0  0  0
    1.6900   -6.7800    0.0000 H   0  0  0  0  0  0  0  0  0  0  0  0
    7.1592    0.9330    0.0000 H   0  0  0  0  0  0  0  0  0  0  0  0
    9.0991    0.8130    0.0000 H   0  0  0  0  0  0  0  0  0  0  0  0
    8.0252    2.4330    0.0000 H   0  0  0  0  0  0  0  0  0  0  0  0
    9.9651    2.3130    0.0000 H   0  0  0  0  0  0  0  0  0  0  0  0
    8.8913    3.9330    0.0000 H   0  0  0  0  0  0  0  0  0  0  0  0
   10.8312    3.8130    0.0000 H   0  0  0  0  0  0  0  0  0  0  0  0
    9.7573    5.4330    0.0000 H   0  0  0  0  0  0  0  0  0  0  0  0
   11.6972    5.3130    0.0000 H   0  0  0  0  0  0  0  0  0  0  0  0
   12.0263    7.7430    0.0000 H   0  0  0  0  0  0  0  0  0  0  0  0
  1 10  1  0  0  0  0
  1 11  1  0  0  0  0
  2  9  1  0  0  0  0
  2 13  1  0  0  0  0
  3 12  1  0  0  0  0
  3 20  1  0  0  0  0
  4 15  1  0  0  0  0
  4 21  1  0  0  0  0
  5 21  2  0  0  0  0
  6 33  1  0  0  0  0
  6 67  1  0  0  0  0
  7 33  2  0  0  0  0
  8  9  1  0  0  0  0
  8 10  1  0  0  0  0
  8 12  1  0  0  0  0
  8 34  1  0  0  0  0
  9 13  1  0  0  0  0
  9 14  1  0  0  0  0
 10 11  1  0  0  0  0
 10 17  1  0  0  0  0
 11 18  1  0  0  0  0
 11 35  1  0  0  0  0
 12 15  1  0  0  0  0
 12 36  1  0  0  0  0
 13 37  1  0  0  0  0
 13 38  1  0  0  0  0
 14 16  1  0  0  0  0
 14 39  1  0  0  0  0
 14 40  1  0  0  0  0
 15 16  1  0  0  0  0
 15 41  1  0  0  0  0
 16 42  1  0  0  0  0
 16 43  1  0  0  0  0
 17 44  1  0  0  0  0
 17 45  1  0  0  0  0
 17 46  1  0  0  0  0
 18 19  1  0  0  0  0
 18 47  1  0  0  0  0
 18 48  1  0  0  0  0
 19 22  2  0  0  0  0
 19 49  1  0  0  0  0
 20 50  1  0  0  0  0
 20 51  1  0  0  0  0
 20 52  1  0  0  0  0
 21 25  1  0  0  0  0
 22 23  1  0  0  0  0
 22 24  1  0  0  0  0
 23 54  1  0  0  0  0
 23 55  1  0  0  0  0
 23 56  1  0  0  0  0
 24 53  1  0  0  0  0
 24 57  1  0  0  0  0
 24 58  1  0  0  0  0
 25 26  2  3  0  0  0
 25 59  1  0  0  0  0
 26 27  1  0  0  0  0
 26 60  1  0  0  0  0
 27 28  2  3  0  0  0
 27 61  1  0  0  0  0
 28 29  1  0  0  0  0
 28 62  1  0  0  0  0
 29 30  2  3  0  0  0
 29 63  1  0  0  0  0
 30 31  1  0  0  0  0
 30 64  1  0  0  0  0
 31 32  2  3  0  0  0
 31 65  1  0  0  0  0
 32 33  1  0  0  0  0
 32 66  1  0  0  0  0
M  END
> <PUBCHEM_COMPOUND_CID>
3430

> <PUBCHEM_COMPOUND_CANONICALIZED>
1

> <PUBCHEM_CACTVS_COMPLEXITY>
879

> <PUBCHEM_CACTVS_HBOND_ACCEPTOR>
7

> <PUBCHEM_CACTVS_HBOND_DONOR>
1

> <PUBCHEM_CACTVS_ROTATABLE_BOND>
11

> <PUBCHEM_CACTVS_SUBSKEYS>
AAADcfB4OAAAAAAAAAAAAAAAEiQAAAAAAAAwAAAAAAAAAAAAAAAAGgAACAAADVSggAICCAAABgCIAiDSCAAAAAAgAAAICAAAAEgJBAIAIQACEAAFwAAKsYPA4PwOgAAAAAAAAABCAAIQADCAAAAAAAAAAA==

> <PUBCHEM_IUPAC_OPENEYE_NAME>
10-[[9-methoxy-10-[2-methyl-3-(3-methylbut-2-enyl)oxiran-2-yl]-1-oxaspiro[2.5]octan-8-yl]oxy]-10-oxo-deca-2,4,6,8-tetraenoic acid

> <PUBCHEM_IUPAC_CAS_NAME>
10-[[9-methoxy-10-[2-methyl-3-(3-methylbut-2-enyl)-2-oxiranyl]-1-oxaspiro[2.5]octan-8-yl]oxy]-10-oxodeca-2,4,6,8-tetraenoic acid

> <PUBCHEM_IUPAC_NAME>
10-[[9-methoxy-10-[2-methyl-3-(3-methylbut-2-enyl)oxiran-2-yl]-1-oxaspiro[2.5]octan-8-yl]oxy]-10-oxodeca-2,4,6,8-tetraenoic acid

> <PUBCHEM_IUPAC_SYSTEMATIC_NAME>
10-[[9-methoxy-10-[2-methyl-3-(3-methylbut-2-enyl)oxiran-2-yl]-1-oxaspiro[2.5]octan-8-yl]oxy]-10-oxidanylidene-deca-2,4,6,8-tetraenoic acid

> <PUBCHEM_IUPAC_TRADITIONAL_NAME>
10-keto-10-[[9-methoxy-10-[2-methyl-3-(3-methylbut-2-enyl)oxiran-2-yl]-1-oxaspiro[2.5]octan-8-yl]oxy]deca-2,4,6,8-tetraenoic acid

> <PUBCHEM_IUPAC_INCHI>
InChI=1S/C26H34O7/c1-18(2)13-14-20-25(3,33-20)24-23(30-4)19(15-16-26(24)17-31-26)32-22(29)12-10-8-6-5-7-9-11-21(27)28/h5-13,19-20,23-24H,14-17H2,1-4H3,(H,27,28)

> <PUBCHEM_IUPAC_INCHIKEY>
NGGMYCMLYOUNGM-UHFFFAOYSA-N

> <PUBCHEM_XLOGP3_AA>
4

> <PUBCHEM_EXACT_MASS>
458.230453

> <PUBCHEM_MOLECULAR_FORMULA>
C26H34O7

> <PUBCHEM_MOLECULAR_WEIGHT>
458.54396

> <PUBCHEM_OPENEYE_CAN_SMILES>
CC(=CCC1C(O1)(C)C2C(C(CCC23CO3)OC(=O)C=CC=CC=CC=CC(=O)O)OC)C

> <PUBCHEM_OPENEYE_ISO_SMILES>
CC(=CCC1C(O1)(C)C2C(C(CCC23CO3)OC(=O)C=CC=CC=CC=CC(=O)O)OC)C

> <PUBCHEM_CACTVS_TPSA>
97.9

> <PUBCHEM_MONOISOTOPIC_WEIGHT>
458.230453

> <PUBCHEM_TOTAL_CHARGE>
0

> <PUBCHEM_HEAVY_ATOM_COUNT>
33

> <PUBCHEM_ATOM_DEF_STEREO_COUNT>
0

> <PUBCHEM_ATOM_UDEF_STEREO_COUNT>
6

> <PUBCHEM_BOND_DEF_STEREO_COUNT>
0

> <PUBCHEM_BOND_UDEF_STEREO_COUNT>
4

> <PUBCHEM_ISOTOPIC_ATOM_COUNT>
0

> <PUBCHEM_COMPONENT_COUNT>
1

> <PUBCHEM_CACTVS_TAUTO_COUNT>
1

> <PUBCHEM_COORDINATE_TYPE>
1
5
255

> <PUBCHEM_BONDANNOTATIONS>
10  17  3
11  35  3
12  36  3
15  41  3
25  26  1
27  28  1
29  30  1
31  32  1
8  34  3
9  13  3

$$$$

