441257
  -OEChem-07051212532D

 70 73  0     1  0  0  0  0  0999 V2000
    8.4602   -0.7084    0.0000 O   0  0  0  0  0  0  0  0  0  0  0  0
    9.9501   -1.5917    0.0000 O   0  0  0  0  0  0  0  0  0  0  0  0
    6.9503   -1.5570    0.0000 O   0  0  0  0  0  0  0  0  0  0  0  0
    7.4403   -2.4288    0.0000 O   0  0  0  0  0  0  0  0  0  0  0  0
    8.4202   -4.1723    0.0000 O   0  0  0  0  0  0  0  0  0  0  0  0
   10.4200   -4.1954    0.0000 O   0  0  0  0  0  0  0  0  0  0  0  0
   11.9500   -1.6149    0.0000 O   0  0  0  0  0  0  0  0  0  0  0  0
    3.9506   -1.5224    0.0000 O   0  0  0  0  0  0  0  0  0  0  0  0
    3.9706    0.2095    0.0000 O   0  0  0  0  0  0  0  0  0  0  0  0
    2.0000    2.0928    0.0000 O   0  0  0  0  0  0  0  0  0  0  0  0
    2.0000    4.0928    0.0000 O   0  0  0  0  0  0  0  0  0  0  0  0
    6.3981    2.5720    0.0000 N   0  0  0  0  0  0  0  0  0  0  0  0
    5.9704    0.1864    0.0000 C   0  0  2  0  0  0  0  0  0  0  0  0
    6.9703    0.1749    0.0000 C   0  0  2  0  0  0  0  0  0  0  0  0
    5.4804    1.0582    0.0000 C   0  0  0  0  0  0  0  0  0  0  0  0
    5.4920    2.0581    0.0000 C   0  0  1  0  0  0  0  0  0  0  0  0
    7.4603   -0.6969    0.0000 C   0  0  2  0  0  0  0  0  0  0  0  0
    8.9502   -1.5802    0.0000 C   0  0  2  0  0  0  0  0  0  0  0  0
    8.4402   -2.4404    0.0000 C   0  0  1  0  0  0  0  0  0  0  0  0
    5.4604   -0.6737    0.0000 C   0  0  0  0  0  0  0  0  0  0  0  0
    8.9302   -3.3121    0.0000 C   0  0  2  0  0  0  0  0  0  0  0  0
    4.5981    2.5928    0.0000 C   0  0  0  0  0  0  0  0  0  0  0  0
    9.9301   -3.3237    0.0000 C   0  0  1  0  0  0  0  0  0  0  0  0
   10.4401   -2.4635    0.0000 C   0  0  1  0  0  0  0  0  0  0  0  0
    6.3981    3.6136    0.0000 C   0  0  0  0  0  0  0  0  0  0  0  0
    4.5981    3.5928    0.0000 C   0  0  0  0  0  0  0  0  0  0  0  0
    7.4803    1.0351    0.0000 C   0  0  0  0  0  0  0  0  0  0  0  0
    5.4920    4.1274    0.0000 C   0  0  0  0  0  0  0  0  0  0  0  0
    5.9504   -1.5455    0.0000 C   0  0  0  0  0  0  0  0  0  0  0  0
   11.4400   -2.4751    0.0000 C   0  0  0  0  0  0  0  0  0  0  0  0
    3.7320    2.0928    0.0000 C   0  0  0  0  0  0  0  0  0  0  0  0
    4.4606   -0.6622    0.0000 C   0  0  0  0  0  0  0  0  0  0  0  0
    3.7320    4.0928    0.0000 C   0  0  0  0  0  0  0  0  0  0  0  0
    2.8660    2.5928    0.0000 C   0  0  0  0  0  0  0  0  0  0  0  0
    8.4802    1.0235    0.0000 C   0  0  0  0  0  0  0  0  0  0  0  0
    2.8660    3.5928    0.0000 C   0  0  0  0  0  0  0  0  0  0  0  0
    2.9506   -1.5108    0.0000 C   0  0  0  0  0  0  0  0  0  0  0  0
    6.2866    0.7198    0.0000 H   0  0  0  0  0  0  0  0  0  0  0  0
    6.6666    0.7154    0.0000 H   0  0  0  0  0  0  0  0  0  0  0  0
    4.9003    1.2770    0.0000 H   0  0  0  0  0  0  0  0  0  0  0  0
    6.0811    1.2117    0.0000 H   0  0  0  0  0  0  0  0  0  0  0  0
    6.0259    1.7430    0.0000 H   0  0  0  0  0  0  0  0  0  0  0  0
    7.7765   -0.1636    0.0000 H   0  0  0  0  0  0  0  0  0  0  0  0
    8.3302   -1.5730    0.0000 H   0  0  0  0  0  0  0  0  0  0  0  0
    8.1240   -2.9737    0.0000 H   0  0  0  0  0  0  0  0  0  0  0  0
    8.3102   -3.3050    0.0000 H   0  0  0  0  0  0  0  0  0  0  0  0
    9.6139   -3.8570    0.0000 H   0  0  0  0  0  0  0  0  0  0  0  0
   10.7563   -1.9302    0.0000 H   0  0  0  0  0  0  0  0  0  0  0  0
    6.9338    2.2599    0.0000 H   0  0  0  0  0  0  0  0  0  0  0  0
    7.0089    3.5075    0.0000 H   0  0  0  0  0  0  0  0  0  0  0  0
    6.6071    4.1973    0.0000 H   0  0  0  0  0  0  0  0  0  0  0  0
    7.1766    1.5756    0.0000 H   0  0  0  0  0  0  0  0  0  0  0  0
    5.8856    4.6065    0.0000 H   0  0  0  0  0  0  0  0  0  0  0  0
    5.0874    4.5972    0.0000 H   0  0  0  0  0  0  0  0  0  0  0  0
    5.6342   -2.0788    0.0000 H   0  0  0  0  0  0  0  0  0  0  0  0
   11.3253   -3.0844    0.0000 H   0  0  0  0  0  0  0  0  0  0  0  0
   12.0201   -2.6938    0.0000 H   0  0  0  0  0  0  0  0  0  0  0  0
    3.7320    1.4728    0.0000 H   0  0  0  0  0  0  0  0  0  0  0  0
    3.7320    4.7128    0.0000 H   0  0  0  0  0  0  0  0  0  0  0  0
    7.1241   -2.9621    0.0000 H   0  0  0  0  0  0  0  0  0  0  0  0
    8.7239   -4.7128    0.0000 H   0  0  0  0  0  0  0  0  0  0  0  0
   11.0400   -4.2026    0.0000 H   0  0  0  0  0  0  0  0  0  0  0  0
    8.7840    0.4830    0.0000 H   0  0  0  0  0  0  0  0  0  0  0  0
    8.7964    1.5568    0.0000 H   0  0  0  0  0  0  0  0  0  0  0  0
   12.5699   -1.6220    0.0000 H   0  0  0  0  0  0  0  0  0  0  0  0
    2.0000    1.4728    0.0000 H   0  0  0  0  0  0  0  0  0  0  0  0
    2.0000    4.7128    0.0000 H   0  0  0  0  0  0  0  0  0  0  0  0
    2.9578   -0.8909    0.0000 H   0  0  0  0  0  0  0  0  0  0  0  0
    2.3307   -1.5037    0.0000 H   0  0  0  0  0  0  0  0  0  0  0  0
    2.9435   -2.1308    0.0000 H   0  0  0  0  0  0  0  0  0  0  0  0
 17  1  1  6  0  0  0
 18  1  1  6  0  0  0
  2 18  1  0  0  0  0
  2 24  1  0  0  0  0
  3 17  1  0  0  0  0
  3 29  1  0  0  0  0
 19  4  1  1  0  0  0
  4 60  1  0  0  0  0
 21  5  1  6  0  0  0
  5 61  1  0  0  0  0
 23  6  1  1  0  0  0
  6 62  1  0  0  0  0
  7 30  1  0  0  0  0
  7 65  1  0  0  0  0
  8 32  1  0  0  0  0
  8 37  1  0  0  0  0
  9 32  2  0  0  0  0
 10 34  1  0  0  0  0
 10 66  1  0  0  0  0
 11 36  1  0  0  0  0
 11 67  1  0  0  0  0
 12 16  1  0  0  0  0
 12 25  1  0  0  0  0
 12 49  1  0  0  0  0
 13 14  1  0  0  0  0
 13 15  1  1  0  0  0
 13 20  1  0  0  0  0
 13 38  1  0  0  0  0
 14 17  1  0  0  0  0
 14 27  1  1  0  0  0
 14 39  1  0  0  0  0
 16 15  1  1  0  0  0
 15 40  1  0  0  0  0
 15 41  1  0  0  0  0
 16 22  1  0  0  0  0
 16 42  1  0  0  0  0
 17 43  1  0  0  0  0
 18 19  1  0  0  0  0
 18 44  1  0  0  0  0
 19 21  1  0  0  0  0
 19 45  1  0  0  0  0
 20 29  2  0  0  0  0
 20 32  1  0  0  0  0
 21 23  1  0  0  0  0
 21 46  1  0  0  0  0
 22 26  1  0  0  0  0
 22 31  2  0  0  0  0
 23 24  1  0  0  0  0
 23 47  1  0  0  0  0
 24 30  1  6  0  0  0
 24 48  1  0  0  0  0
 25 28  1  0  0  0  0
 25 50  1  0  0  0  0
 25 51  1  0  0  0  0
 26 28  1  0  0  0  0
 26 33  2  0  0  0  0
 27 35  2  0  0  0  0
 27 52  1  0  0  0  0
 28 53  1  0  0  0  0
 28 54  1  0  0  0  0
 29 55  1  0  0  0  0
 30 56  1  0  0  0  0
 30 57  1  0  0  0  0
 31 34  1  0  0  0  0
 31 58  1  0  0  0  0
 33 36  1  0  0  0  0
 33 59  1  0  0  0  0
 34 36  2  0  0  0  0
 35 63  1  0  0  0  0
 35 64  1  0  0  0  0
 37 68  1  0  0  0  0
 37 69  1  0  0  0  0
 37 70  1  0  0  0  0
M  END
> <PUBCHEM_COMPOUND_CID>
441257

> <PUBCHEM_COMPOUND_CANONICALIZED>
1

> <PUBCHEM_CACTVS_COMPLEXITY>
840

> <PUBCHEM_CACTVS_HBOND_ACCEPTOR>
12

> <PUBCHEM_CACTVS_HBOND_DONOR>
7

> <PUBCHEM_CACTVS_ROTATABLE_BOND>
8

> <PUBCHEM_CACTVS_SUBSKEYS>
AAADcfB6PAAAAAAAAAAAAAAAAAAAAAAAAAA8SIEAAAAAAACxAAAAHgAQCAAADTzxmAcyDoLABgCIAiDSCACCCAAgIAAIiIEOjMgZNjKCsROmcAll0BGPuIf4/f+eoAABAAAQQABAAAIAACCAAAAAAAAAAA==

> <PUBCHEM_IUPAC_OPENEYE_NAME>
methyl (2S,3R,4S)-4-[[(1S)-6,7-dihydroxy-1,2,3,4-tetrahydroisoquinolin-1-yl]methyl]-2-[(2S,3R,4S,5S,6R)-3,4,5-trihydroxy-6-(hydroxymethyl)tetrahydropyran-2-yl]oxy-3-vinyl-3,4-dihydro-2H-pyran-5-carboxylate

> <PUBCHEM_IUPAC_CAS_NAME>
(2S,3R,4S)-4-[[(1S)-6,7-dihydroxy-1,2,3,4-tetrahydroisoquinolin-1-yl]methyl]-3-ethenyl-2-[[(2S,3R,4S,5S,6R)-3,4,5-trihydroxy-6-(hydroxymethyl)-2-oxanyl]oxy]-3,4-dihydro-2H-pyran-5-carboxylic acid methyl ester

> <PUBCHEM_IUPAC_NAME>
methyl (2S,3R,4S)-4-[[(1S)-6,7-dihydroxy-1,2,3,4-tetrahydroisoquinolin-1-yl]methyl]-3-ethenyl-2-[(2S,3R,4S,5S,6R)-3,4,5-trihydroxy-6-(hydroxymethyl)oxan-2-yl]oxy-3,4-dihydro-2H-pyran-5-carboxylate

> <PUBCHEM_IUPAC_SYSTEMATIC_NAME>
methyl (2S,3R,4S)-4-[[(1S)-6,7-bis(oxidanyl)-1,2,3,4-tetrahydroisoquinolin-1-yl]methyl]-3-ethenyl-2-[(2S,3R,4S,5S,6R)-6-(hydroxymethyl)-3,4,5-tris(oxidanyl)oxan-2-yl]oxy-3,4-dihydro-2H-pyran-5-carboxylate

> <PUBCHEM_IUPAC_TRADITIONAL_NAME>
(2S,3R,4S)-4-[[(1S)-6,7-dihydroxy-1,2,3,4-tetrahydroisoquinolin-1-yl]methyl]-2-[(2S,3R,4S,5S,6R)-3,4,5-trihydroxy-6-methylol-tetrahydropyran-2-yl]oxy-3-vinyl-3,4-dihydro-2H-pyran-5-carboxylic acid methyl ester

> <PUBCHEM_IUPAC_INCHI>
InChI=1S/C25H33NO11/c1-3-12-14(7-16-13-8-18(29)17(28)6-11(13)4-5-26-16)15(23(33)34-2)10-35-24(12)37-25-22(32)21(31)20(30)19(9-27)36-25/h3,6,8,10,12,14,16,19-22,24-32H,1,4-5,7,9H2,2H3/t12-,14+,16+,19-,20-,21+,22-,24+,25+/m1/s1

> <PUBCHEM_IUPAC_INCHIKEY>
MTAVTRZTGFLKSC-ONGZBVEHSA-N

> <PUBCHEM_XLOGP3_AA>
-0.3

> <PUBCHEM_EXACT_MASS>
523.205361

> <PUBCHEM_MOLECULAR_FORMULA>
C25H33NO11

> <PUBCHEM_MOLECULAR_WEIGHT>
523.52962

> <PUBCHEM_OPENEYE_CAN_SMILES>
COC(=O)C1=COC(C(C1CC2C3=CC(=C(C=C3CCN2)O)O)C=C)OC4C(C(C(C(O4)CO)O)O)O

> <PUBCHEM_OPENEYE_ISO_SMILES>
COC(=O)C1=CO[C@H]([C@@H]([C@@H]1C[C@H]2C3=CC(=C(C=C3CCN2)O)O)C=C)O[C@H]4[C@@H]([C@H]([C@@H]([C@H](O4)CO)O)O)O

> <PUBCHEM_CACTVS_TPSA>
187

> <PUBCHEM_MONOISOTOPIC_WEIGHT>
523.205361

> <PUBCHEM_TOTAL_CHARGE>
0

> <PUBCHEM_HEAVY_ATOM_COUNT>
37

> <PUBCHEM_ATOM_DEF_STEREO_COUNT>
9

> <PUBCHEM_ATOM_UDEF_STEREO_COUNT>
0

> <PUBCHEM_BOND_DEF_STEREO_COUNT>
0

> <PUBCHEM_BOND_UDEF_STEREO_COUNT>
0

> <PUBCHEM_ISOTOPIC_ATOM_COUNT>
0

> <PUBCHEM_COMPONENT_COUNT>
1

> <PUBCHEM_CACTVS_TAUTO_COUNT>
18

> <PUBCHEM_COORDINATE_TYPE>
1
5
255

> <PUBCHEM_BONDANNOTATIONS>
17  1  6
18  1  6
13  15  5
14  27  5
16  15  5
22  26  8
22  31  8
24  30  6
26  33  8
31  34  8
33  36  8
34  36  8
19  4  5
21  5  6
23  6  5

$$$$

