46174017
  -OEChem-07051213112D

 55 56  0     1  0  0  0  0  0999 V2000
    4.2690    0.5000    0.0000 O   0  0  0  0  0  0  0  0  0  0  0  0
    6.0010    0.5000    0.0000 O   0  0  0  0  0  0  0  0  0  0  0  0
    6.0010   -0.5000    0.0000 O   0  0  0  0  0  0  0  0  0  0  0  0
    2.5369   -2.5000    0.0000 O   0  0  0  0  0  0  0  0  0  0  0  0
    4.2690   -3.5000    0.0000 O   0  0  0  0  0  0  0  0  0  0  0  0
    6.0010    3.5000    0.0000 O   0  0  0  0  0  0  0  0  0  0  0  0
    7.7331    2.5000    0.0000 O   0  0  0  0  0  0  0  0  0  0  0  0
    6.0010   -2.5000    0.0000 N   0  0  0  0  0  0  0  0  0  0  0  0
    2.5369   -0.5000    0.0000 N   0  0  0  0  0  0  0  0  0  0  0  0
    4.2690    2.5000    0.0000 N   0  0  0  0  0  0  0  0  0  0  0  0
    7.7331   -0.5000    0.0000 N   0  0  0  0  0  0  0  0  0  0  0  0
    4.2690   -0.5000    0.0000 C   0  0  2  0  0  0  0  0  0  0  0  0
    3.4030   -1.0000    0.0000 C   0  0  2  0  0  0  0  0  0  0  0  0
    5.1350   -1.0000    0.0000 C   0  0  1  0  0  0  0  0  0  0  0  0
    5.1350   -2.0000    0.0000 C   0  0  2  0  0  0  0  0  0  0  0  0
    3.4030   -2.0000    0.0000 C   0  0  1  0  0  0  0  0  0  0  0  0
    4.2690   -2.5000    0.0000 C   0  0  1  0  0  0  0  0  0  0  0  0
    5.1350    1.0000    0.0000 C   0  0  1  0  0  0  0  0  0  0  0  0
    5.1350    2.0000    0.0000 C   0  0  1  0  0  0  0  0  0  0  0  0
    6.0010    2.5000    0.0000 C   0  0  2  0  0  0  0  0  0  0  0  0
    6.8671    1.0000    0.0000 C   0  0  1  0  0  0  0  0  0  0  0  0
    6.8671    2.0000    0.0000 C   0  0  1  0  0  0  0  0  0  0  0  0
    7.7331    0.5000    0.0000 C   0  0  2  0  0  0  0  0  0  0  0  0
    6.0010   -3.5000    0.0000 C   0  0  0  0  0  0  0  0  0  0  0  0
    8.5991    1.0000    0.0000 C   0  0  0  0  0  0  0  0  0  0  0  0
    4.8059   -0.1900    0.0000 H   0  0  0  0  0  0  0  0  0  0  0  0
    3.4030   -0.3800    0.0000 H   0  0  0  0  0  0  0  0  0  0  0  0
    5.1350   -0.3800    0.0000 H   0  0  0  0  0  0  0  0  0  0  0  0
    5.1350   -2.6200    0.0000 H   0  0  0  0  0  0  0  0  0  0  0  0
    3.4030   -2.6200    0.0000 H   0  0  0  0  0  0  0  0  0  0  0  0
    4.8059   -2.8100    0.0000 H   0  0  0  0  0  0  0  0  0  0  0  0
    5.1350    0.3800    0.0000 H   0  0  0  0  0  0  0  0  0  0  0  0
    5.1350    2.6200    0.0000 H   0  0  0  0  0  0  0  0  0  0  0  0
    6.5380    2.8100    0.0000 H   0  0  0  0  0  0  0  0  0  0  0  0
    6.8671    0.1500    0.0000 H   0  0  0  0  0  0  0  0  0  0  0  0
    7.4040    1.6900    0.0000 H   0  0  0  0  0  0  0  0  0  0  0  0
    6.5380   -2.1900    0.0000 H   0  0  0  0  0  0  0  0  0  0  0  0
    8.2700    0.1900    0.0000 H   0  0  0  0  0  0  0  0  0  0  0  0
    2.0000   -0.8100    0.0000 H   0  0  0  0  0  0  0  0  0  0  0  0
    2.5369    0.1200    0.0000 H   0  0  0  0  0  0  0  0  0  0  0  0
    6.5380   -0.8100    0.0000 H   0  0  0  0  0  0  0  0  0  0  0  0
    2.5369   -3.1200    0.0000 H   0  0  0  0  0  0  0  0  0  0  0  0
    3.7320   -3.8100    0.0000 H   0  0  0  0  0  0  0  0  0  0  0  0
    4.2690    3.1200    0.0000 H   0  0  0  0  0  0  0  0  0  0  0  0
    3.7320    2.1900    0.0000 H   0  0  0  0  0  0  0  0  0  0  0  0
    5.3810   -3.5000    0.0000 H   0  0  0  0  0  0  0  0  0  0  0  0
    6.0010   -4.1200    0.0000 H   0  0  0  0  0  0  0  0  0  0  0  0
    6.6210   -3.5000    0.0000 H   0  0  0  0  0  0  0  0  0  0  0  0
    6.5380    3.8100    0.0000 H   0  0  0  0  0  0  0  0  0  0  0  0
    8.9091    0.4631    0.0000 H   0  0  0  0  0  0  0  0  0  0  0  0
    9.1360    1.3100    0.0000 H   0  0  0  0  0  0  0  0  0  0  0  0
    8.2891    1.5369    0.0000 H   0  0  0  0  0  0  0  0  0  0  0  0
    7.7331    3.1200    0.0000 H   0  0  0  0  0  0  0  0  0  0  0  0
    8.2700   -0.8100    0.0000 H   0  0  0  0  0  0  0  0  0  0  0  0
    7.1962   -0.8100    0.0000 H   0  0  0  0  0  0  0  0  0  0  0  0
 12  1  1  1  0  0  0
 18  1  1  6  0  0  0
  2 18  1  0  0  0  0
  2 21  1  0  0  0  0
 14  3  1  6  0  0  0
  3 41  1  0  0  0  0
 16  4  1  1  0  0  0
  4 42  1  0  0  0  0
 17  5  1  6  0  0  0
  5 43  1  0  0  0  0
 20  6  1  1  0  0  0
  6 49  1  0  0  0  0
 22  7  1  6  0  0  0
  7 53  1  0  0  0  0
 15  8  1  1  0  0  0
  8 24  1  0  0  0  0
  8 37  1  0  0  0  0
 13  9  1  6  0  0  0
  9 39  1  0  0  0  0
  9 40  1  0  0  0  0
 19 10  1  6  0  0  0
 10 44  1  0  0  0  0
 10 45  1  0  0  0  0
 23 11  1  6  0  0  0
 11 54  1  0  0  0  0
 11 55  1  0  0  0  0
 12 13  1  0  0  0  0
 12 14  1  0  0  0  0
 12 26  1  0  0  0  0
 13 16  1  0  0  0  0
 13 27  1  0  0  0  0
 14 15  1  0  0  0  0
 14 28  1  0  0  0  0
 15 17  1  0  0  0  0
 15 29  1  0  0  0  0
 16 17  1  0  0  0  0
 16 30  1  0  0  0  0
 17 31  1  0  0  0  0
 18 19  1  0  0  0  0
 18 32  1  0  0  0  0
 19 20  1  0  0  0  0
 19 33  1  0  0  0  0
 20 22  1  0  0  0  0
 20 34  1  0  0  0  0
 21 22  1  0  0  0  0
 21 23  1  0  0  0  0
 21 35  1  6  0  0  0
 22 36  1  0  0  0  0
 23 25  1  0  0  0  0
 23 38  1  0  0  0  0
 24 46  1  0  0  0  0
 24 47  1  0  0  0  0
 24 48  1  0  0  0  0
 25 50  1  0  0  0  0
 25 51  1  0  0  0  0
 25 52  1  0  0  0  0
M  END
> <PUBCHEM_COMPOUND_CID>
46174017

> <PUBCHEM_COMPOUND_CANONICALIZED>
1

> <PUBCHEM_CACTVS_COMPLEXITY>
447

> <PUBCHEM_CACTVS_HBOND_ACCEPTOR>
11

> <PUBCHEM_CACTVS_HBOND_DONOR>
9

> <PUBCHEM_CACTVS_ROTATABLE_BOND>
4

> <PUBCHEM_CACTVS_SUBSKEYS>
AAADceBzuAAAAAAAAAAAAAAAAAAAAAAAAAA0QAAAAAAAAAAAAAAAHgAQCAAACDzxgAcCCALABgAAAAAAAAAAAAAAAAAAAIAIAAATEAIAgAAnQAAHEAAXAAHw8C8AAAAAAAAAAAACAQAUAACgAAAAAAAAAA==

> <PUBCHEM_IUPAC_OPENEYE_NAME>
(1S,2S,3S,4R,5R,6S)-6-amino-5-[(2S,3R,4R,5S,6R)-3-amino-6-[(1S)-1-aminoethyl]-4,5-dihydroxy-tetrahydropyran-2-yl]oxy-3-(methylamino)cyclohexane-1,2,4-triol

> <PUBCHEM_IUPAC_CAS_NAME>
(1S,2S,3S,4R,5R,6S)-6-amino-5-[[(2S,3R,4R,5S,6R)-3-amino-6-[(1S)-1-aminoethyl]-4,5-dihydroxy-2-oxanyl]oxy]-3-(methylamino)cyclohexane-1,2,4-triol

> <PUBCHEM_IUPAC_NAME>
(1S,2S,3S,4R,5R,6S)-6-amino-5-[(2S,3R,4R,5S,6R)-3-amino-6-[(1S)-1-aminoethyl]-4,5-dihydroxyoxan-2-yl]oxy-3-(methylamino)cyclohexane-1,2,4-triol

> <PUBCHEM_IUPAC_SYSTEMATIC_NAME>
(1S,2S,3S,4R,5R,6S)-6-azanyl-5-[(2S,3R,4R,5S,6R)-3-azanyl-6-[(1S)-1-azanylethyl]-4,5-bis(oxidanyl)oxan-2-yl]oxy-3-(methylamino)cyclohexane-1,2,4-triol

> <PUBCHEM_IUPAC_TRADITIONAL_NAME>
(1S,2S,3S,4R,5R,6S)-6-amino-5-[(2S,3R,4R,5S,6R)-3-amino-6-[(1S)-1-aminoethyl]-4,5-dihydroxy-tetrahydropyran-2-yl]oxy-3-(methylamino)cyclohexane-1,2,4-triol

> <PUBCHEM_IUPAC_INCHI>
InChI=1S/C14H30N4O7/c1-3(15)12-11(23)8(20)5(17)14(24-12)25-13-4(16)7(19)9(21)6(18-2)10(13)22/h3-14,18-23H,15-17H2,1-2H3/t3-,4-,5+,6-,7-,8+,9-,10+,11-,12+,13+,14+/m0/s1

> <PUBCHEM_IUPAC_INCHIKEY>
WVUDHRISQRHHPW-NHJHCJIZSA-N

> <PUBCHEM_XLOGP3_AA>
-5.4

> <PUBCHEM_EXACT_MASS>
366.211449

> <PUBCHEM_MOLECULAR_FORMULA>
C14H30N4O7

> <PUBCHEM_MOLECULAR_WEIGHT>
366.4106

> <PUBCHEM_OPENEYE_CAN_SMILES>
CC(C1C(C(C(C(O1)OC2C(C(C(C(C2O)NC)O)O)N)N)O)O)N

> <PUBCHEM_OPENEYE_ISO_SMILES>
C[C@@H]([C@@H]1[C@H]([C@@H]([C@H]([C@H](O1)O[C@@H]2[C@H]([C@@H]([C@H]([C@@H]([C@H]2O)NC)O)O)N)N)O)O)N

> <PUBCHEM_CACTVS_TPSA>
210

> <PUBCHEM_MONOISOTOPIC_WEIGHT>
366.211449

> <PUBCHEM_TOTAL_CHARGE>
0

> <PUBCHEM_HEAVY_ATOM_COUNT>
25

> <PUBCHEM_ATOM_DEF_STEREO_COUNT>
12

> <PUBCHEM_ATOM_UDEF_STEREO_COUNT>
0

> <PUBCHEM_BOND_DEF_STEREO_COUNT>
0

> <PUBCHEM_BOND_UDEF_STEREO_COUNT>
0

> <PUBCHEM_ISOTOPIC_ATOM_COUNT>
0

> <PUBCHEM_COMPONENT_COUNT>
1

> <PUBCHEM_CACTVS_TAUTO_COUNT>
1

> <PUBCHEM_COORDINATE_TYPE>
1
5
255

> <PUBCHEM_BONDANNOTATIONS>
12  1  5
18  1  6
19  10  6
23  11  6
21  35  6
14  3  6
16  4  5
17  5  6
20  6  5
22  7  6
15  8  5
13  9  6

$$$$

