7230
  -OEChem-06261201552D

 29 30  0     0  0  0  0  0  0999 V2000
    6.2619    0.4330    0.0000 S   0  0  0  0  0  0  0  0  0  0  0  0
    4.6783    1.2377    0.0000 S   0  0  0  0  0  0  0  0  0  0  0  0
    6.7619   -0.4330    0.0000 N   0  0  0  0  0  0  0  0  0  0  0  0
    4.6783   -0.3717    0.0000 N   0  0  0  0  0  0  0  0  0  0  0  0
    7.7619   -0.4330    0.0000 C   0  0  0  0  0  0  0  0  0  0  0  0
    8.7619   -0.4330    0.0000 C   0  0  0  0  0  0  0  0  0  0  0  0
    7.7619   -1.4330    0.0000 C   0  0  0  0  0  0  0  0  0  0  0  0
    7.7619    0.5670    0.0000 C   0  0  0  0  0  0  0  0  0  0  0  0
    5.2619    0.4330    0.0000 C   0  0  0  0  0  0  0  0  0  0  0  0
    3.7320    0.9330    0.0000 C   0  0  0  0  0  0  0  0  0  0  0  0
    3.7320   -0.0670    0.0000 C   0  0  0  0  0  0  0  0  0  0  0  0
    2.8660    1.4330    0.0000 C   0  0  0  0  0  0  0  0  0  0  0  0
    2.8660   -0.5670    0.0000 C   0  0  0  0  0  0  0  0  0  0  0  0
    2.0000    0.9330    0.0000 C   0  0  0  0  0  0  0  0  0  0  0  0
    2.0000   -0.0670    0.0000 C   0  0  0  0  0  0  0  0  0  0  0  0
    8.3819    0.5670    0.0000 H   0  0  0  0  0  0  0  0  0  0  0  0
    7.7619    1.1870    0.0000 H   0  0  0  0  0  0  0  0  0  0  0  0
    7.1419   -1.4330    0.0000 H   0  0  0  0  0  0  0  0  0  0  0  0
    7.7619   -2.0530    0.0000 H   0  0  0  0  0  0  0  0  0  0  0  0
    8.3819   -1.4330    0.0000 H   0  0  0  0  0  0  0  0  0  0  0  0
    8.7619   -1.0530    0.0000 H   0  0  0  0  0  0  0  0  0  0  0  0
    9.3819   -0.4330    0.0000 H   0  0  0  0  0  0  0  0  0  0  0  0
    8.7619    0.1870    0.0000 H   0  0  0  0  0  0  0  0  0  0  0  0
    7.1419    0.5670    0.0000 H   0  0  0  0  0  0  0  0  0  0  0  0
    6.4519   -0.9699    0.0000 H   0  0  0  0  0  0  0  0  0  0  0  0
    2.8660    2.0530    0.0000 H   0  0  0  0  0  0  0  0  0  0  0  0
    2.8660   -1.1870    0.0000 H   0  0  0  0  0  0  0  0  0  0  0  0
    1.4631    1.2430    0.0000 H   0  0  0  0  0  0  0  0  0  0  0  0
    1.4631   -0.3770    0.0000 H   0  0  0  0  0  0  0  0  0  0  0  0
  1  3  1  0  0  0  0
  1  9  1  0  0  0  0
  2  9  1  0  0  0  0
  2 10  1  0  0  0  0
  3  5  1  0  0  0  0
  3 25  1  0  0  0  0
  4  9  2  0  0  0  0
  4 11  1  0  0  0  0
  5  6  1  0  0  0  0
  5  7  1  0  0  0  0
  5  8  1  0  0  0  0
  6 21  1  0  0  0  0
  6 22  1  0  0  0  0
  6 23  1  0  0  0  0
  7 18  1  0  0  0  0
  7 19  1  0  0  0  0
  7 20  1  0  0  0  0
  8 16  1  0  0  0  0
  8 17  1  0  0  0  0
  8 24  1  0  0  0  0
 10 11  1  0  0  0  0
 10 12  2  0  0  0  0
 11 13  2  0  0  0  0
 12 14  1  0  0  0  0
 12 26  1  0  0  0  0
 13 15  1  0  0  0  0
 13 27  1  0  0  0  0
 14 15  2  0  0  0  0
 14 28  1  0  0  0  0
 15 29  1  0  0  0  0
M  END
> <PUBCHEM_COMPOUND_CID>
7230

> <PUBCHEM_COMPOUND_CANONICALIZED>
1

> <PUBCHEM_CACTVS_COMPLEXITY>
215

> <PUBCHEM_CACTVS_HBOND_ACCEPTOR>
4

> <PUBCHEM_CACTVS_HBOND_DONOR>
1

> <PUBCHEM_CACTVS_ROTATABLE_BOND>
3

> <PUBCHEM_CACTVS_SUBSKEYS>
AAADccBzAABgAAAAAAAAAAAAAAAAAWAAAAAwAAAAAAAAAFgB8AAAHAQQQAAADIiBVgAywbJIEAikASRiRACD8aBhCjhImDwwZJgIIKLgkZGEIAhgkABIyAcQAAAAAAAAAAAAAQAAAAAAAAACAAAAAAAAAA==

> <PUBCHEM_IUPAC_OPENEYE_NAME>
N-(1,3-benzothiazol-2-ylsulfanyl)-2-methyl-propan-2-amine

> <PUBCHEM_IUPAC_CAS_NAME>
N-tert-butyl-1,3-benzothiazole-2-sulfenamide

> <PUBCHEM_IUPAC_NAME>
N-(1,3-benzothiazol-2-ylsulfanyl)-2-methylpropan-2-amine

> <PUBCHEM_IUPAC_SYSTEMATIC_NAME>
N-(1,3-benzothiazol-2-ylsulfanyl)-2-methyl-propan-2-amine

> <PUBCHEM_IUPAC_TRADITIONAL_NAME>
(1,3-benzothiazol-2-ylthio)-tert-butyl-amine

> <PUBCHEM_IUPAC_INCHI>
InChI=1S/C11H14N2S2/c1-11(2,3)13-15-10-12-8-6-4-5-7-9(8)14-10/h4-7,13H,1-3H3

> <PUBCHEM_IUPAC_INCHIKEY>
IUJLOAKJZQBENM-UHFFFAOYSA-N

> <PUBCHEM_XLOGP3>
3.4

> <PUBCHEM_EXACT_MASS>
238.05984

> <PUBCHEM_MOLECULAR_FORMULA>
C11H14N2S2

> <PUBCHEM_MOLECULAR_WEIGHT>
238.37226

> <PUBCHEM_OPENEYE_CAN_SMILES>
CC(C)(C)NSC1=NC2=CC=CC=C2S1

> <PUBCHEM_OPENEYE_ISO_SMILES>
CC(C)(C)NSC1=NC2=CC=CC=C2S1

> <PUBCHEM_CACTVS_TPSA>
78.5

> <PUBCHEM_MONOISOTOPIC_WEIGHT>
238.05984

> <PUBCHEM_TOTAL_CHARGE>
0

> <PUBCHEM_HEAVY_ATOM_COUNT>
15

> <PUBCHEM_ATOM_DEF_STEREO_COUNT>
0

> <PUBCHEM_ATOM_UDEF_STEREO_COUNT>
0

> <PUBCHEM_BOND_DEF_STEREO_COUNT>
0

> <PUBCHEM_BOND_UDEF_STEREO_COUNT>
0

> <PUBCHEM_ISOTOPIC_ATOM_COUNT>
0

> <PUBCHEM_COMPONENT_COUNT>
1

> <PUBCHEM_CACTVS_TAUTO_COUNT>
1

> <PUBCHEM_COORDINATE_TYPE>
1
5
255

> <PUBCHEM_BONDANNOTATIONS>
10  11  8
10  12  8
11  13  8
12  14  8
13  15  8
14  15  8
2  10  8
2  9  8
4  11  8
4  9  8

$$$$

