   Color/Form

     * GOLDEN-YELLOW PLATELETS FROM ACETIC ACID OR ACETONE; MONOCLINIC
       PRISMS FROM BENZENE OR TOLUENE OR BY SUBLIMATION IN VACUO
     * YELLOW LEAFLETS OR PRISMS

   from [1]HSDB

   Boiling Point
        Sublimes
   from [2]HSDB

   Melting Point
        292 DEG C (SEALED TUBE)
   from [3]HSDB

   Corrosivity
        Non-corrosive
   from [4]HSDB

   Density/Specific Gravity
        1.97
   from [5]HSDB

   Solubilities

     * ALMOST INSOL IN COLD PETROLEUM ETHER, COLD ALCOHOL; SPARINGLY SOL
       IN CHLOROFORM, CARBON DISULFIDE, CARBON TETRACHLORIDE; SOLUBLE IN
       ETHER. INSOLUBLE IN WATER.
     * g/100 g: in acetone 33, ether 16, dimethylformamide 5.4, solvent
       naphtha 5.4, benzene 1.3, methanol about 0.1, carbon tetrachloride
       about 0.1, dibutyl phthalate about 0.1
     * ALMOST INSOL IN WATER (1:4000)
     * In water, 250 mg/l at room temperature

   from [6]HSDB

   Spectral Properties

     * SADTLER REF NUMBER: 6634 (IR, PRISM); 530 (IR, GRATING)
     * Intense mass spectral peaks: 87 m/z (100%), 246 m/z (53%), 244 m/z
       (41%), 209 m/z (37%)
     * IR: 5793 (Coblentz Society Spectral Collection)
     * UV: 1832 (Sadtler Research Laboratories Spectral Collection)
     * MASS: 4619 (National Bureau of Standards EPA-NIH Mass Spectra Data
       Base, NSRDS-NBS-63)

   from [7]HSDB

   Vapor Pressure
        5.1X10-6 MM HG @ 25 DEG C
   from [8]HSDB

   Other Chemical/Physical Properties

     * SUBLIMES AT BOILING POINT
     * REACTS WITH ALKALIES TO FORM SALTS OF CHLOROANILIC ACID
     * MASS: 4619 (National Bureau of Standards EPA-NIH Mass Spectra Data
       Base, NSRDS-NBS-63) /o-Chloranil/
     * Stable in closed containers. Decomposed by alkalies. Slowly
       decomposed by sunlight. Stable in acidic media.

   from [9]HSDB

   Computed Properties
   Molecular Weight                  245.875 [g/mol]
   Molecular Formula                 C[6]Cl[4]O[2]
   XLogP3-AA                         3.4
   H-Bond Donor                      0
   H-Bond Acceptor                   2
   Rotatable Bond Count              0
   Exact Mass                        245.86229
   MonoIsotopic Mass                 243.86524
   Topological Polar Surface Area    34.1
   Heavy Atom Count                  12
   Formal Charge                     0
   Complexity                        278
   Isotope Atom Count                0
   Defined Atom Stereocenter Count   0
   Undefined Atom Stereocenter Count 0
   Defined Bond Stereocenter Count   0
   Undefined Bond Stereocenter Count 0
   Covalently-Bonded Unit Count      1
   Feature 3D Acceptor Count         2
   Feature 3D Ring Count             1
   Effective Rotor Count             0
   Conformer Sampling RMSD           0.4
   CID Conformer Count               [10]1

References

   1. http://toxnet.nlm.nih.gov/cgi-bin/sis/search/r?dbs+hsdb:@term+@rn+@rel+118-75-2
   2. http://toxnet.nlm.nih.gov/cgi-bin/sis/search/r?dbs+hsdb:@term+@rn+@rel+118-75-2
   3. http://toxnet.nlm.nih.gov/cgi-bin/sis/search/r?dbs+hsdb:@term+@rn+@rel+118-75-2
   4. http://toxnet.nlm.nih.gov/cgi-bin/sis/search/r?dbs+hsdb:@term+@rn+@rel+118-75-2
   5. http://toxnet.nlm.nih.gov/cgi-bin/sis/search/r?dbs+hsdb:@term+@rn+@rel+118-75-2
   6. http://toxnet.nlm.nih.gov/cgi-bin/sis/search/r?dbs+hsdb:@term+@rn+@rel+118-75-2
   7. http://toxnet.nlm.nih.gov/cgi-bin/sis/search/r?dbs+hsdb:@term+@rn+@rel+118-75-2
   8. http://toxnet.nlm.nih.gov/cgi-bin/sis/search/r?dbs+hsdb:@term+@rn+@rel+118-75-2
   9. http://toxnet.nlm.nih.gov/cgi-bin/sis/search/r?dbs+hsdb:@term+@rn+@rel+118-75-2
  10. http://pubchem.ncbi.nlm.nih.gov/vw3d/vw3d.cgi?cid=8371
