   Color/Form

     * Crystalline mass
     * WHITE, CRYSTALLINE POWDER

   from [1]HSDB

   Odor
        SLIGHT, CHARACTERISTIC ODOR
   from [2]HSDB

   Taste
        FAINT, SWEET, SOAPY TASTE
   from [3]HSDB

   Boiling Point
        219-220 deg C at 10 mm Hg
   from [4]HSDB

   Melting Point
        171-172 deg C
   from [5]HSDB

   Dissociation Constants
        pKa = 8.07
   from [6]HSDB

   Octanol/Water Partition Coefficient
        log Kow = -1.56 (est)
   from [7]HSDB

   pH
        pH of 0.1 molar aq soln = 10.4
   from [8]HSDB

   Solubilities

     * 79.1 mg/mL in ethylene glycol; 26 mg/mL in methanol; 14.6 mg/mL in
       anhyd ethanol; 22 mg/mL in 95% ethanol; 14 mg/mL in dimethyl
       formamide; 20 mg/mL in acetone; 0.5 mg/mL in ethyl acetate; 0.4
       mg/mL in olive oil; 0.1 mg/mL in cyclohexane; 0.05 mg/mL in
       chloroform; less than 0.05 mg/mL in carbon tetrachloride
     * In water, 5.50X10+5 mg/L at 25 deg C

   from [9]HSDB

   Spectral Properties

     * MASS: 69526 (NIST/EPA/MSDC Mass SPectral database, 1990 version)
     * NMR: 6342 (Sadtler Research Laboratories Spectral Collection)
     * IR: 5998 (Coblentz Society Spectral Collection)

   from [10]HSDB

   Vapor Pressure
        2.2X10-5 mm Hg at 25 deg C (est)
   from [11]HSDB

   Other Chemical/Physical Properties

     * Weak, monoacidic base; aq soln do not absorb CO2 from air
     * REACTS WITH PROTON DONORS
     * Henry's Law constant = 8.7X10-13 atm-cu m/mol at 25 deg C (est)
     * Hydroxyl radical reaction rate constant = 3.4X10-11 cu
       cm/molecule-sec at 25 deg C (est)

   from [12]HSDB

   Computed Properties
   Molecular Weight                  121.13504 [g/mol]
   Molecular Formula                 C[4]H[11]NO[3]
   XLogP3-AA                         -2.9
   H-Bond Donor                      4
   H-Bond Acceptor                   4
   Rotatable Bond Count              3
   Exact Mass                        121.073893
   MonoIsotopic Mass                 121.073893
   Topological Polar Surface Area    86.7
   Heavy Atom Count                  8
   Formal Charge                     0
   Complexity                        54
   Isotope Atom Count                0
   Defined Atom Stereocenter Count   0
   Undefined Atom Stereocenter Count 0
   Defined Bond Stereocenter Count   0
   Undefined Bond Stereocenter Count 0
   Covalently-Bonded Unit Count      1
   Feature 3D Acceptor Count         3
   Feature 3D Donor Count            4
   Feature 3D Cation Count           1
   Effective Rotor Count             3
   Conformer Sampling RMSD           0.6
   CID Conformer Count               [13]9

References

   1. http://toxnet.nlm.nih.gov/cgi-bin/sis/search/r?dbs+hsdb:@term+@rn+@rel+77-86-1
   2. http://toxnet.nlm.nih.gov/cgi-bin/sis/search/r?dbs+hsdb:@term+@rn+@rel+77-86-1
   3. http://toxnet.nlm.nih.gov/cgi-bin/sis/search/r?dbs+hsdb:@term+@rn+@rel+77-86-1
   4. http://toxnet.nlm.nih.gov/cgi-bin/sis/search/r?dbs+hsdb:@term+@rn+@rel+77-86-1
   5. http://toxnet.nlm.nih.gov/cgi-bin/sis/search/r?dbs+hsdb:@term+@rn+@rel+77-86-1
   6. http://toxnet.nlm.nih.gov/cgi-bin/sis/search/r?dbs+hsdb:@term+@rn+@rel+77-86-1
   7. http://toxnet.nlm.nih.gov/cgi-bin/sis/search/r?dbs+hsdb:@term+@rn+@rel+77-86-1
   8. http://toxnet.nlm.nih.gov/cgi-bin/sis/search/r?dbs+hsdb:@term+@rn+@rel+77-86-1
   9. http://toxnet.nlm.nih.gov/cgi-bin/sis/search/r?dbs+hsdb:@term+@rn+@rel+77-86-1
  10. http://toxnet.nlm.nih.gov/cgi-bin/sis/search/r?dbs+hsdb:@term+@rn+@rel+77-86-1
  11. http://toxnet.nlm.nih.gov/cgi-bin/sis/search/r?dbs+hsdb:@term+@rn+@rel+77-86-1
  12. http://toxnet.nlm.nih.gov/cgi-bin/sis/search/r?dbs+hsdb:@term+@rn+@rel+77-86-1
  13. http://pubchem.ncbi.nlm.nih.gov/vw3d/vw3d.cgi?cid=6503
