   Color/Form

     * LIGHT-YELLOW, CRYSTALLINE SOLID
     * NEEDLES FROM HOT WATER

   from [1]HSDB

   Boiling Point
        194 DEG C @ 1 MM HG
   from [2]HSDB

   Melting Point
        142 DEG C
   from [3]HSDB

   Density/Specific Gravity
        5.8 LB/GALLON @ 20 DEG C
   from [4]HSDB

   Solubilities

     * INSOL IN WATER; SOL IN ETHYL ALC, METHYL ALCOHOL, METHYL ETHYL
       KETONE, ETHYL ACETATE
     * EASILY SOL IN GLACIAL ACETIC ACID; SCARCELY SOL IN COLD BENZENE

   from [5]HSDB

   Spectral Properties

     * MAX ABSORPTION (METHANOL): 242 NM (LOG E= 3.94), 290 NM (LOG E=
       3.96), 338 NM (LOG E= 4.12); SADTLER REF NUMBER: 19552 (IR, PRISM)
     * IR: 10220 (Sadtler Research Laboratories IR Grating Collection)
     * UV: 6420 (Sadtler Research Laboratories Spectral Collection)
     * NMR: 2199 (Sadtler Research Laboratories Spectral Collection)
     * MASS: 175 (Aldermaston, Eight Peak Index of Mass Spectra, UK)
     * IR: 3:888E (Aldrich Library of Infrared Spectra, Aldrich Chemical
       Co, Milwaukee, WI)
     * NMR: 6:54D (Aldrich Library of Mass Spectra, Aldrich Chemical Co,
       Milwaukee, WI)
     * MASS: 1366 (National Bureau of Standards EPA-NIH Mass Spectra Data
       Base, NSRDS-NBS-63)

   from [6]HSDB

   Other Chemical/Physical Properties

     * IR: 3165 (Coblentz Society Spectral Collection) /Benzophenone,
       2,4'-dihydroxy/
     * MASS: 175 (Aldermaston, Eight Peak Index of Mass Spectra, UK)
       /Benzophenone, 2,4'-dihydroxy/
     * UV: 1119 (Absorption Spectra in the UV and visible Regions,
       Academic Press, New York) /Benzophenone, 2,5-dihydroxy/
     * IR: 1066 (Coblentz Society Spectral Collection) /Benzophenone,
       4,4'-dihydroxy/
     * UV: 6-450 (Organic Electronic Spectral Data, Phillips et al, John
       Wiley & Sons, New York) /Benzophenone, 4,4'-dihydroxy/

   from [7]HSDB

   Computed Properties
   Molecular Weight                  214.2167 [g/mol]
   Molecular Formula                 C[13]H[10]O[3]
   XLogP3                            3.2
   H-Bond Donor                      2
   H-Bond Acceptor                   3
   Rotatable Bond Count              2
   Tautomer Count                    12
   Exact Mass                        214.062994
   MonoIsotopic Mass                 214.062994
   Topological Polar Surface Area    57.5
   Heavy Atom Count                  16
   Formal Charge                     0
   Complexity                        246
   Isotope Atom Count                0
   Defined Atom Stereocenter Count   0
   Undefined Atom Stereocenter Count 0
   Defined Bond Stereocenter Count   0
   Undefined Bond Stereocenter Count 0
   Covalently-Bonded Unit Count      1
   Feature 3D Acceptor Count         1
   Feature 3D Donor Count            2
   Feature 3D Ring Count             2
   Effective Rotor Count             2
   Conformer Sampling RMSD           0.6
   CID Conformer Count               [8]2

References

   1. http://toxnet.nlm.nih.gov/cgi-bin/sis/search/r?dbs+hsdb:@term+@rn+@rel+131-56-6
   2. http://toxnet.nlm.nih.gov/cgi-bin/sis/search/r?dbs+hsdb:@term+@rn+@rel+131-56-6
   3. http://toxnet.nlm.nih.gov/cgi-bin/sis/search/r?dbs+hsdb:@term+@rn+@rel+131-56-6
   4. http://toxnet.nlm.nih.gov/cgi-bin/sis/search/r?dbs+hsdb:@term+@rn+@rel+131-56-6
   5. http://toxnet.nlm.nih.gov/cgi-bin/sis/search/r?dbs+hsdb:@term+@rn+@rel+131-56-6
   6. http://toxnet.nlm.nih.gov/cgi-bin/sis/search/r?dbs+hsdb:@term+@rn+@rel+131-56-6
   7. http://toxnet.nlm.nih.gov/cgi-bin/sis/search/r?dbs+hsdb:@term+@rn+@rel+131-56-6
   8. http://pubchem.ncbi.nlm.nih.gov/vw3d/vw3d.cgi?cid=8572
