41462
  -OEChem-07051213132D

 33 34  0     1  0  0  0  0  0999 V2000
    4.5691   -0.6833    0.0000 S   0  0  0  0  0  0  0  0  0  0  0  0
    5.5202    1.1833    0.0000 O   0  0  0  0  0  0  0  0  0  0  0  0
    2.0000    1.1833    0.0000 O   0  0  0  0  0  0  0  0  0  0  0  0
    3.7601    0.9045    0.0000 N   0  0  0  0  0  0  0  0  0  0  0  0
    3.2601    2.4434    0.0000 N   0  0  0  0  0  0  0  0  0  0  0  0
    3.2601   -1.6343    0.0000 N   0  0  0  0  0  0  0  0  0  0  0  0
    2.9511   -0.6833    0.0000 N   0  0  0  0  0  0  0  0  0  0  0  0
    4.5691    1.4923    0.0000 C   0  0  3  0  0  0  0  0  0  0  0  0
    4.8479   -2.4434    0.0000 C   0  0  0  0  0  0  0  0  0  0  0  0
    4.2601    2.4434    0.0000 C   0  0  0  0  0  0  0  0  0  0  0  0
    2.9511    1.4923    0.0000 C   0  0  0  0  0  0  0  0  0  0  0  0
    4.2601   -1.6343    0.0000 C   0  0  0  0  0  0  0  0  0  0  0  0
    3.7601   -0.0955    0.0000 C   0  0  0  0  0  0  0  0  0  0  0  0
    5.4356   -3.2524    0.0000 C   0  0  0  0  0  0  0  0  0  0  0  0
    4.0388   -3.0311    0.0000 C   0  0  0  0  0  0  0  0  0  0  0  0
    5.6569   -1.8556    0.0000 C   0  0  0  0  0  0  0  0  0  0  0  0
    2.6723    3.2524    0.0000 C   0  0  0  0  0  0  0  0  0  0  0  0
    4.7021    0.6528    0.0000 H   0  0  0  0  0  0  0  0  0  0  0  0
    4.8665    2.5723    0.0000 H   0  0  0  0  0  0  0  0  0  0  0  0
    4.1953    3.0600    0.0000 H   0  0  0  0  0  0  0  0  0  0  0  0
    6.0213   -2.3572    0.0000 H   0  0  0  0  0  0  0  0  0  0  0  0
    6.1585   -1.4911    0.0000 H   0  0  0  0  0  0  0  0  0  0  0  0
    5.2924   -1.3540    0.0000 H   0  0  0  0  0  0  0  0  0  0  0  0
    3.6744   -2.5296    0.0000 H   0  0  0  0  0  0  0  0  0  0  0  0
    3.5372   -3.3956    0.0000 H   0  0  0  0  0  0  0  0  0  0  0  0
    4.4033   -3.5327    0.0000 H   0  0  0  0  0  0  0  0  0  0  0  0
    4.9340   -3.6168    0.0000 H   0  0  0  0  0  0  0  0  0  0  0  0
    5.8001   -3.7540    0.0000 H   0  0  0  0  0  0  0  0  0  0  0  0
    5.9372   -2.8879    0.0000 H   0  0  0  0  0  0  0  0  0  0  0  0
    3.1739    3.6168    0.0000 H   0  0  0  0  0  0  0  0  0  0  0  0
    2.3079    3.7540    0.0000 H   0  0  0  0  0  0  0  0  0  0  0  0
    2.1707    2.8879    0.0000 H   0  0  0  0  0  0  0  0  0  0  0  0
    5.9809    1.5981    0.0000 H   0  0  0  0  0  0  0  0  0  0  0  0
  1 12  1  0  0  0  0
  1 13  1  0  0  0  0
  2  8  1  0  0  0  0
  2 33  1  0  0  0  0
  3 11  2  0  0  0  0
  4  8  1  0  0  0  0
  4 11  1  0  0  0  0
  4 13  1  0  0  0  0
  5 10  1  0  0  0  0
  5 11  1  0  0  0  0
  5 17  1  0  0  0  0
  6  7  1  0  0  0  0
  6 12  2  0  0  0  0
  7 13  2  0  0  0  0
  8 10  1  0  0  0  0
  8 18  1  0  0  0  0
  9 12  1  0  0  0  0
  9 14  1  0  0  0  0
  9 15  1  0  0  0  0
  9 16  1  0  0  0  0
 10 19  1  0  0  0  0
 10 20  1  0  0  0  0
 14 27  1  0  0  0  0
 14 28  1  0  0  0  0
 14 29  1  0  0  0  0
 15 24  1  0  0  0  0
 15 25  1  0  0  0  0
 15 26  1  0  0  0  0
 16 21  1  0  0  0  0
 16 22  1  0  0  0  0
 16 23  1  0  0  0  0
 17 30  1  0  0  0  0
 17 31  1  0  0  0  0
 17 32  1  0  0  0  0
M  END
> <PUBCHEM_COMPOUND_CID>
41462

> <PUBCHEM_COMPOUND_CANONICALIZED>
1

> <PUBCHEM_CACTVS_COMPLEXITY>
320

> <PUBCHEM_CACTVS_HBOND_ACCEPTOR>
5

> <PUBCHEM_CACTVS_HBOND_DONOR>
1

> <PUBCHEM_CACTVS_ROTATABLE_BOND>
2

> <PUBCHEM_CACTVS_SUBSKEYS>
AAADceBzsABAAAAAAAAAAAAAAAAAAWLAAAAAAAAAAAAAAAABgAAAHgQICAAADgDhwgYDEAMAAgguAAAgMAAQAIJAABgVAAAoAACCUAAgCAAQAAAIDwIQAAAAAAAAAAAAAAAAAAAAAAAAAAAAAAAAAAAAAA==

> <PUBCHEM_IUPAC_OPENEYE_NAME>
3-(5-tert-butyl-1,3,4-thiadiazol-2-yl)-4-hydroxy-1-methyl-imidazolidin-2-one

> <PUBCHEM_IUPAC_CAS_NAME>
3-(5-tert-butyl-1,3,4-thiadiazol-2-yl)-4-hydroxy-1-methyl-2-imidazolidinone

> <PUBCHEM_IUPAC_NAME>
3-(5-tert-butyl-1,3,4-thiadiazol-2-yl)-4-hydroxy-1-methylimidazolidin-2-one

> <PUBCHEM_IUPAC_SYSTEMATIC_NAME>
3-(5-tert-butyl-1,3,4-thiadiazol-2-yl)-1-methyl-4-oxidanyl-imidazolidin-2-one

> <PUBCHEM_IUPAC_TRADITIONAL_NAME>
3-(5-tert-butyl-1,3,4-thiadiazol-2-yl)-4-hydroxy-1-methyl-2-imidazolidinone

> <PUBCHEM_IUPAC_INCHI>
InChI=1S/C10H16N4O2S/c1-10(2,3)7-11-12-8(17-7)14-6(15)5-13(4)9(14)16/h6,15H,5H2,1-4H3

> <PUBCHEM_IUPAC_INCHIKEY>
SWMGXKSQWDSBKV-UHFFFAOYSA-N

> <PUBCHEM_XLOGP3_AA>
1

> <PUBCHEM_EXACT_MASS>
256.099397

> <PUBCHEM_MOLECULAR_FORMULA>
C10H16N4O2S

> <PUBCHEM_MOLECULAR_WEIGHT>
256.32464

> <PUBCHEM_OPENEYE_CAN_SMILES>
CC(C)(C)C1=NN=C(S1)N2C(CN(C2=O)C)O

> <PUBCHEM_OPENEYE_ISO_SMILES>
CC(C)(C)C1=NN=C(S1)N2C(CN(C2=O)C)O

> <PUBCHEM_CACTVS_TPSA>
97.8

> <PUBCHEM_MONOISOTOPIC_WEIGHT>
256.099397

> <PUBCHEM_TOTAL_CHARGE>
0

> <PUBCHEM_HEAVY_ATOM_COUNT>
17

> <PUBCHEM_ATOM_DEF_STEREO_COUNT>
0

> <PUBCHEM_ATOM_UDEF_STEREO_COUNT>
1

> <PUBCHEM_BOND_DEF_STEREO_COUNT>
0

> <PUBCHEM_BOND_UDEF_STEREO_COUNT>
0

> <PUBCHEM_ISOTOPIC_ATOM_COUNT>
0

> <PUBCHEM_COMPONENT_COUNT>
1

> <PUBCHEM_CACTVS_TAUTO_COUNT>
1

> <PUBCHEM_COORDINATE_TYPE>
1
5
255

> <PUBCHEM_BONDANNOTATIONS>
1  12  8
1  13  8
6  12  8
6  7  8
7  13  8
8  18  3

$$$$

