8
  -OEChem-07051212492D

 22 21  0     1  0  0  0  0  0999 V2000
    2.6340   -0.9050    0.0000 O   0  0  0  0  0  0  0  0  0  0  0  0
    4.3660    1.0950    0.0000 O   0  0  0  0  0  0  0  0  0  0  0  0
    6.0981    0.0950    0.0000 O   0  0  0  0  0  0  0  0  0  0  0  0
    5.2320   -1.4050    0.0000 O   0  0  0  0  0  0  0  0  0  0  0  0
    3.5000   -0.4050    0.0000 C   0  0  3  0  0  0  0  0  0  0  0  0
    3.0000    0.4610    0.0000 C   0  0  0  0  0  0  0  0  0  0  0  0
    4.3660    0.0950    0.0000 C   0  0  3  0  0  0  0  0  0  0  0  0
    4.0000   -1.2710    0.0000 C   0  0  0  0  0  0  0  0  0  0  0  0
    2.0000    0.4610    0.0000 C   0  0  0  0  0  0  0  0  0  0  0  0
    5.2320   -0.4050    0.0000 C   0  0  0  0  0  0  0  0  0  0  0  0
    3.5826    0.6731    0.0000 H   0  0  0  0  0  0  0  0  0  0  0  0
    2.8923    1.0716    0.0000 H   0  0  0  0  0  0  0  0  0  0  0  0
    4.9030    0.4050    0.0000 H   0  0  0  0  0  0  0  0  0  0  0  0
    3.4631   -1.5810    0.0000 H   0  0  0  0  0  0  0  0  0  0  0  0
    4.3100   -1.8080    0.0000 H   0  0  0  0  0  0  0  0  0  0  0  0
    4.5369   -0.9610    0.0000 H   0  0  0  0  0  0  0  0  0  0  0  0
    2.0000    1.0810    0.0000 H   0  0  0  0  0  0  0  0  0  0  0  0
    1.3800    0.4610    0.0000 H   0  0  0  0  0  0  0  0  0  0  0  0
    2.0000   -0.1590    0.0000 H   0  0  0  0  0  0  0  0  0  0  0  0
    2.0970   -0.5950    0.0000 H   0  0  0  0  0  0  0  0  0  0  0  0
    4.9030    1.4050    0.0000 H   0  0  0  0  0  0  0  0  0  0  0  0
    6.6350   -0.2150    0.0000 H   0  0  0  0  0  0  0  0  0  0  0  0
  1  5  1  0  0  0  0
  1 20  1  0  0  0  0
  2  7  1  0  0  0  0
  2 21  1  0  0  0  0
  3 10  1  0  0  0  0
  3 22  1  0  0  0  0
  4 10  2  0  0  0  0
  5  6  1  0  0  0  0
  5  7  1  0  0  0  0
  5  8  1  0  0  0  0
  6  9  1  0  0  0  0
  6 11  1  0  0  0  0
  6 12  1  0  0  0  0
  7 10  1  0  0  0  0
  7 13  1  0  0  0  0
  8 14  1  0  0  0  0
  8 15  1  0  0  0  0
  8 16  1  0  0  0  0
  9 17  1  0  0  0  0
  9 18  1  0  0  0  0
  9 19  1  0  0  0  0
M  END
> <PUBCHEM_COMPOUND_CID>
8

> <PUBCHEM_COMPOUND_CANONICALIZED>
1

> <PUBCHEM_CACTVS_COMPLEXITY>
134

> <PUBCHEM_CACTVS_HBOND_ACCEPTOR>
4

> <PUBCHEM_CACTVS_HBOND_DONOR>
3

> <PUBCHEM_CACTVS_ROTATABLE_BOND>
3

> <PUBCHEM_CACTVS_SUBSKEYS>
AAADccBgOAAAAAAAAAAAAAAAAAAAAAAAAAAAAAAAAAAAAAAAAAAAGgAACAAADFSggAICCAAAAgAIAACQCAIAAAAAAAAAAAFAAAABEBYAAAAAQAAFIAABAACIAAAKAAAAAAAAAAAAAAAAAAAAAAAAAAAAAA==

> <PUBCHEM_IUPAC_OPENEYE_NAME>
2,3-dihydroxy-3-methyl-pentanoic acid

> <PUBCHEM_IUPAC_CAS_NAME>
2,3-dihydroxy-3-methylpentanoic acid

> <PUBCHEM_IUPAC_NAME>
2,3-dihydroxy-3-methylpentanoic acid

> <PUBCHEM_IUPAC_SYSTEMATIC_NAME>
3-methyl-2,3-bis(oxidanyl)pentanoic acid

> <PUBCHEM_IUPAC_TRADITIONAL_NAME>
2,3-dihydroxy-3-methyl-valeric acid

> <PUBCHEM_IUPAC_INCHI>
InChI=1S/C6H12O4/c1-3-6(2,10)4(7)5(8)9/h4,7,10H,3H2,1-2H3,(H,8,9)

> <PUBCHEM_IUPAC_INCHIKEY>
PDGXJDXVGMHUIR-UHFFFAOYSA-N

> <PUBCHEM_XLOGP3_AA>
-0.4

> <PUBCHEM_EXACT_MASS>
148.073559

> <PUBCHEM_MOLECULAR_FORMULA>
C6H12O4

> <PUBCHEM_MOLECULAR_WEIGHT>
148.15708

> <PUBCHEM_OPENEYE_CAN_SMILES>
CCC(C)(C(C(=O)O)O)O

> <PUBCHEM_OPENEYE_ISO_SMILES>
CCC(C)(C(C(=O)O)O)O

> <PUBCHEM_CACTVS_TPSA>
77.8

> <PUBCHEM_MONOISOTOPIC_WEIGHT>
148.073559

> <PUBCHEM_TOTAL_CHARGE>
0

> <PUBCHEM_HEAVY_ATOM_COUNT>
10

> <PUBCHEM_ATOM_DEF_STEREO_COUNT>
0

> <PUBCHEM_ATOM_UDEF_STEREO_COUNT>
2

> <PUBCHEM_BOND_DEF_STEREO_COUNT>
0

> <PUBCHEM_BOND_UDEF_STEREO_COUNT>
0

> <PUBCHEM_ISOTOPIC_ATOM_COUNT>
0

> <PUBCHEM_COMPONENT_COUNT>
1

> <PUBCHEM_CACTVS_TAUTO_COUNT>
1

> <PUBCHEM_COORDINATE_TYPE>
1
5
255

> <PUBCHEM_BONDANNOTATIONS>
5  1  3
7  2  3

$$$$

