888
  -OEChem-07051212442D

  1  0  0     0  0  0  0  0  0999 V2000
    2.0000    0.0000    0.0000 Mg  0  2  0  0  0  0  0  0  0  0  0  0
M  CHG  1   1   2
M  END
> <PUBCHEM_COMPOUND_CID>
888

> <PUBCHEM_COMPOUND_CANONICALIZED>
1

> <PUBCHEM_CACTVS_COMPLEXITY>
0

> <PUBCHEM_CACTVS_HBOND_ACCEPTOR>
0

> <PUBCHEM_CACTVS_HBOND_DONOR>
0

> <PUBCHEM_CACTVS_ROTATABLE_BOND>
0

> <PUBCHEM_CACTVS_SUBSKEYS>
AAADcQAAAAAAACAAAAAAAAAAAAAAAAAAAAAAAAAAAAAAAAAAAAAAAAAAAAAAAAAAAAAAAAAAAAAAAAAAAAAAAAAAAAAAAAAAAAAAAAAAAAAAAAAAAAAAAAAAAAAAAAAAAAAAAAAAAAAAAAAAAAAAAAAAAA==

> <PUBCHEM_IUPAC_OPENEYE_NAME>
magnesium(2+)

> <PUBCHEM_IUPAC_CAS_NAME>
magnesium(2+)

> <PUBCHEM_IUPAC_NAME>
magnesium(2+)

> <PUBCHEM_IUPAC_SYSTEMATIC_NAME>
magnesium(2+)

> <PUBCHEM_IUPAC_TRADITIONAL_NAME>
magnesium(2+)

> <PUBCHEM_IUPAC_INCHI>
InChI=1S/Mg/q+2

> <PUBCHEM_IUPAC_INCHIKEY>
JLVVSXFLKOJNIY-UHFFFAOYSA-N

> <PUBCHEM_EXACT_MASS>
23.985042

> <PUBCHEM_MOLECULAR_FORMULA>
Mg+2

> <PUBCHEM_MOLECULAR_WEIGHT>
24.305

> <PUBCHEM_OPENEYE_CAN_SMILES>
[Mg+2]

> <PUBCHEM_OPENEYE_ISO_SMILES>
[Mg+2]

> <PUBCHEM_CACTVS_TPSA>
0

> <PUBCHEM_MONOISOTOPIC_WEIGHT>
23.985042

> <PUBCHEM_TOTAL_CHARGE>
2

> <PUBCHEM_HEAVY_ATOM_COUNT>
1

> <PUBCHEM_ATOM_DEF_STEREO_COUNT>
0

> <PUBCHEM_ATOM_UDEF_STEREO_COUNT>
0

> <PUBCHEM_BOND_DEF_STEREO_COUNT>
0

> <PUBCHEM_BOND_UDEF_STEREO_COUNT>
0

> <PUBCHEM_ISOTOPIC_ATOM_COUNT>
0

> <PUBCHEM_COMPONENT_COUNT>
1

> <PUBCHEM_CACTVS_TAUTO_COUNT>
1

> <PUBCHEM_COORDINATE_TYPE>
1
5
255

$$$$

