15376
  -OEChem-07051212572D

 52 56  0     1  0  0  0  0  0999 V2000
    6.4814    0.4724    0.0000 O   0  0  0  0  0  0  0  0  0  0  0  0
    5.4814    2.2045    0.0000 O   0  0  0  0  0  0  0  0  0  0  0  0
    6.9814    1.3384    0.0000 O   0  0  0  0  0  0  0  0  0  0  0  0
    2.8393   -1.0344    0.0000 N   0  0  3  0  0  0  0  0  0  0  0  0
    5.4814   -0.5276    0.0000 N   0  0  0  0  0  0  0  0  0  0  0  0
    3.7493    0.4724    0.0000 C   0  0  2  0  0  0  0  0  0  0  0  0
    3.7493   -0.5276    0.0000 C   0  0  1  0  0  0  0  0  0  0  0  0
    4.6153    0.9724    0.0000 C   0  0  0  0  0  0  0  0  0  0  0  0
    4.6153   -1.0276    0.0000 C   0  0  0  0  0  0  0  0  0  0  0  0
    2.8911    0.9694    0.0000 C   0  0  0  0  0  0  0  0  0  0  0  0
    5.4814    0.4724    0.0000 C   0  0  1  0  0  0  0  0  0  0  0  0
    3.7493    1.4724    0.0000 C   0  0  0  0  0  0  0  0  0  0  0  0
    2.0256    0.4852    0.0000 C   0  0  0  0  0  0  0  0  0  0  0  0
    2.0000   -0.5062    0.0000 C   0  0  0  0  0  0  0  0  0  0  0  0
    4.6314   -2.0691    0.0000 C   0  0  0  0  0  0  0  0  0  0  0  0
    2.8313   -2.0760    0.0000 C   0  0  0  0  0  0  0  0  0  0  0  0
    3.7334   -2.5968    0.0000 C   0  0  0  0  0  0  0  0  0  0  0  0
    6.0993   -1.3059    0.0000 C   0  0  0  0  0  0  0  0  0  0  0  0
    5.6194   -2.1762    0.0000 C   0  0  0  0  0  0  0  0  0  0  0  0
    2.8833    1.9724    0.0000 C   0  0  0  0  0  0  0  0  0  0  0  0
    5.9814    1.3384    0.0000 C   0  0  0  0  0  0  0  0  0  0  0  0
    7.1338   -1.2696    0.0000 C   0  0  0  0  0  0  0  0  0  0  0  0
    6.1408   -3.0705    0.0000 C   0  0  0  0  0  0  0  0  0  0  0  0
    7.6758   -2.1516    0.0000 C   0  0  0  0  0  0  0  0  0  0  0  0
    7.1760   -3.0581    0.0000 C   0  0  0  0  0  0  0  0  0  0  0  0
    5.9814    3.0705    0.0000 C   0  0  0  0  0  0  0  0  0  0  0  0
    3.7493   -1.3776    0.0000 H   0  0  0  0  0  0  0  0  0  0  0  0
    5.0139    1.4474    0.0000 H   0  0  0  0  0  0  0  0  0  0  0  0
    4.2168    1.4474    0.0000 H   0  0  0  0  0  0  0  0  0  0  0  0
    3.2922    1.4422    0.0000 H   0  0  0  0  0  0  0  0  0  0  0  0
    2.4971    1.4480    0.0000 H   0  0  0  0  0  0  0  0  0  0  0  0
    4.3599    1.3648    0.0000 H   0  0  0  0  0  0  0  0  0  0  0  0
    3.9614    2.0550    0.0000 H   0  0  0  0  0  0  0  0  0  0  0  0
    1.8239    1.0714    0.0000 H   0  0  0  0  0  0  0  0  0  0  0  0
    1.4128    0.3908    0.0000 H   0  0  0  0  0  0  0  0  0  0  0  0
    1.3929   -0.3803    0.0000 H   0  0  0  0  0  0  0  0  0  0  0  0
    1.7682   -1.0812    0.0000 H   0  0  0  0  0  0  0  0  0  0  0  0
    2.2213   -1.9652    0.0000 H   0  0  0  0  0  0  0  0  0  0  0  0
    2.6177   -2.6581    0.0000 H   0  0  0  0  0  0  0  0  0  0  0  0
    3.3361   -3.0728    0.0000 H   0  0  0  0  0  0  0  0  0  0  0  0
    4.1343   -3.0697    0.0000 H   0  0  0  0  0  0  0  0  0  0  0  0
    3.1933    2.5094    0.0000 H   0  0  0  0  0  0  0  0  0  0  0  0
    2.3464    2.2824    0.0000 H   0  0  0  0  0  0  0  0  0  0  0  0
    2.5733    1.4355    0.0000 H   0  0  0  0  0  0  0  0  0  0  0  0
    6.7914   -0.0645    0.0000 H   0  0  0  0  0  0  0  0  0  0  0  0
    7.4269   -0.7232    0.0000 H   0  0  0  0  0  0  0  0  0  0  0  0
    5.8352   -3.6099    0.0000 H   0  0  0  0  0  0  0  0  0  0  0  0
    8.2956   -2.1370    0.0000 H   0  0  0  0  0  0  0  0  0  0  0  0
    7.4944   -3.5901    0.0000 H   0  0  0  0  0  0  0  0  0  0  0  0
    6.5183    2.7605    0.0000 H   0  0  0  0  0  0  0  0  0  0  0  0
    6.2914    3.6074    0.0000 H   0  0  0  0  0  0  0  0  0  0  0  0
    5.4444    3.3805    0.0000 H   0  0  0  0  0  0  0  0  0  0  0  0
 11  1  1  1  0  0  0
  1 45  1  0  0  0  0
  2 21  1  0  0  0  0
  2 26  1  0  0  0  0
  3 21  2  0  0  0  0
  4  7  1  0  0  0  0
  4 14  1  0  0  0  0
  4 16  1  0  0  0  0
  5  9  1  0  0  0  0
  5 11  1  0  0  0  0
  5 18  1  0  0  0  0
  6  7  1  0  0  0  0
  6  8  1  0  0  0  0
  6 10  1  0  0  0  0
  6 12  1  6  0  0  0
  7  9  1  0  0  0  0
  7 27  1  6  0  0  0
  8 11  1  0  0  0  0
  8 28  1  0  0  0  0
  8 29  1  0  0  0  0
  9 15  2  0  0  0  0
 10 13  1  0  0  0  0
 10 30  1  0  0  0  0
 10 31  1  0  0  0  0
 11 21  1  0  0  0  0
 12 20  1  0  0  0  0
 12 32  1  0  0  0  0
 12 33  1  0  0  0  0
 13 14  1  0  0  0  0
 13 34  1  0  0  0  0
 13 35  1  0  0  0  0
 14 36  1  0  0  0  0
 14 37  1  0  0  0  0
 15 17  1  0  0  0  0
 15 19  1  0  0  0  0
 16 17  1  0  0  0  0
 16 38  1  0  0  0  0
 16 39  1  0  0  0  0
 17 40  1  0  0  0  0
 17 41  1  0  0  0  0
 18 19  1  0  0  0  0
 18 22  2  0  0  0  0
 19 23  2  0  0  0  0
 20 42  1  0  0  0  0
 20 43  1  0  0  0  0
 20 44  1  0  0  0  0
 22 24  1  0  0  0  0
 22 46  1  0  0  0  0
 23 25  1  0  0  0  0
 23 47  1  0  0  0  0
 24 25  2  0  0  0  0
 24 48  1  0  0  0  0
 25 49  1  0  0  0  0
 26 50  1  0  0  0  0
 26 51  1  0  0  0  0
 26 52  1  0  0  0  0
M  END
> <PUBCHEM_COMPOUND_CID>
15376

> <PUBCHEM_COMPOUND_CANONICALIZED>
1

> <PUBCHEM_CACTVS_COMPLEXITY>
598

> <PUBCHEM_CACTVS_HBOND_ACCEPTOR>
4

> <PUBCHEM_CACTVS_HBOND_DONOR>
1

> <PUBCHEM_CACTVS_ROTATABLE_BOND>
3

> <PUBCHEM_CACTVS_SUBSKEYS>
AAADceB7MAAAAAAAAAAAAAAAAAAAAWAAAAA8WLEAAAAAAFix8AAAHgAACAAADizBngYyyPMMFgCoAyTyTAKCgCAhAiAImCH4ZJgLYPLAkbGVYAhkgADbyAe42eOfgAAAAAACAAAAAAAAAAQAAAAAAAAAAA==

> <PUBCHEM_IUPAC_INCHI>
InChI=1S/C21H26N2O3/c1-3-20-10-6-11-22-12-9-15-14-7-4-5-8-16(14)23(17(15)18(20)22)21(25,13-20)19(24)26-2/h4-5,7-8,18,25H,3,6,9-13H2,1-2H3/t18-,20+,21+/m1/s1

> <PUBCHEM_IUPAC_INCHIKEY>
RXPRRQLKFXBCSJ-GIVPXCGWSA-N

> <PUBCHEM_XLOGP3_AA>
2.9

> <PUBCHEM_EXACT_MASS>
354.194343

> <PUBCHEM_MOLECULAR_FORMULA>
C21H26N2O3

> <PUBCHEM_MOLECULAR_WEIGHT>
354.44274

> <PUBCHEM_OPENEYE_CAN_SMILES>
CCC12CCCN3C1C4=C(CC3)C5=CC=CC=C5N4C(C2)(C(=O)OC)O

> <PUBCHEM_OPENEYE_ISO_SMILES>
CC[C@@]12CCCN3[C@@H]1C4=C(CC3)C5=CC=CC=C5N4[C@](C2)(C(=O)OC)O

> <PUBCHEM_CACTVS_TPSA>
54.7

> <PUBCHEM_MONOISOTOPIC_WEIGHT>
354.194343

> <PUBCHEM_TOTAL_CHARGE>
0

> <PUBCHEM_HEAVY_ATOM_COUNT>
26

> <PUBCHEM_ATOM_DEF_STEREO_COUNT>
3

> <PUBCHEM_ATOM_UDEF_STEREO_COUNT>
0

> <PUBCHEM_BOND_DEF_STEREO_COUNT>
0

> <PUBCHEM_BOND_UDEF_STEREO_COUNT>
0

> <PUBCHEM_ISOTOPIC_ATOM_COUNT>
0

> <PUBCHEM_COMPONENT_COUNT>
1

> <PUBCHEM_CACTVS_TAUTO_COUNT>
1

> <PUBCHEM_COORDINATE_TYPE>
1
5
255

> <PUBCHEM_BONDANNOTATIONS>
11  1  5
15  19  8
18  19  8
18  22  8
19  23  8
22  24  8
23  25  8
24  25  8
5  18  8
5  9  8
6  12  6
7  27  6
9  15  8

$$$$

