95075
  -OEChem-07051213112D

 30 32  0     0  0  0  0  0  0999 V2000
    5.8643    2.1026    0.0000 O   0  0  0  0  0  0  0  0  0  0  0  0
    2.2188   -0.0022    0.0000 O   0  0  0  0  0  0  0  0  0  0  0  0
    3.5584    1.0957    0.0000 O   0  0  0  0  0  0  0  0  0  0  0  0
    4.2438    1.4915    0.0000 O   0  0  0  0  0  0  0  0  0  0  0  0
    4.7334   -1.1480    0.0000 C   0  0  0  0  0  0  0  0  0  0  0  0
    5.5994   -0.6480    0.0000 C   0  0  0  0  0  0  0  0  0  0  0  0
    4.7334   -2.1480    0.0000 C   0  0  0  0  0  0  0  0  0  0  0  0
    6.4654   -1.1480    0.0000 C   0  0  0  0  0  0  0  0  0  0  0  0
    3.8394   -0.6134    0.0000 C   0  0  0  0  0  0  0  0  0  0  0  0
    5.5833    0.3935    0.0000 C   0  0  0  0  0  0  0  0  0  0  0  0
    5.5994   -2.6480    0.0000 C   0  0  0  0  0  0  0  0  0  0  0  0
    6.4654   -2.1480    0.0000 C   0  0  0  0  0  0  0  0  0  0  0  0
    3.8394   -2.6827    0.0000 C   0  0  0  0  0  0  0  0  0  0  0  0
    7.3754   -0.6412    0.0000 C   0  0  0  0  0  0  0  0  0  0  0  0
    2.9333   -1.1272    0.0000 C   0  0  0  0  0  0  0  0  0  0  0  0
    6.4814    0.9212    0.0000 C   0  0  0  0  0  0  0  0  0  0  0  0
    7.3834    0.4004    0.0000 C   0  0  0  0  0  0  0  0  0  0  0  0
    2.9333   -2.1688    0.0000 C   0  0  0  0  0  0  0  0  0  0  0  0
    3.2055    0.1601    0.0000 C   0  0  0  0  0  0  0  0  0  0  0  0
    5.2305    1.3292    0.0000 C   0  0  0  0  0  0  0  0  0  0  0  0
    5.5994   -3.2680    0.0000 H   0  0  0  0  0  0  0  0  0  0  0  0
    7.0023   -2.4580    0.0000 H   0  0  0  0  0  0  0  0  0  0  0  0
    3.8466   -3.3026    0.0000 H   0  0  0  0  0  0  0  0  0  0  0  0
    7.9087   -0.9574    0.0000 H   0  0  0  0  0  0  0  0  0  0  0  0
    2.3976   -0.8152    0.0000 H   0  0  0  0  0  0  0  0  0  0  0  0
    6.4790    1.5412    0.0000 H   0  0  0  0  0  0  0  0  0  0  0  0
    2.3976   -2.4809    0.0000 H   0  0  0  0  0  0  0  0  0  0  0  0
    7.9216    0.7083    0.0000 H   0  0  0  0  0  0  0  0  0  0  0  0
    2.0000   -0.5823    0.0000 H   0  0  0  0  0  0  0  0  0  0  0  0
    5.6456    2.6827    0.0000 H   0  0  0  0  0  0  0  0  0  0  0  0
  1 20  1  0  0  0  0
  1 30  1  0  0  0  0
  2 19  1  0  0  0  0
  2 29  1  0  0  0  0
  3 19  2  0  0  0  0
  4 20  2  0  0  0  0
  5  6  1  0  0  0  0
  5  7  2  0  0  0  0
  5  9  1  0  0  0  0
  6  8  2  0  0  0  0
  6 10  1  0  0  0  0
  7 11  1  0  0  0  0
  7 13  1  0  0  0  0
  8 12  1  0  0  0  0
  8 14  1  0  0  0  0
  9 15  2  0  0  0  0
  9 19  1  0  0  0  0
 10 16  2  0  0  0  0
 10 20  1  0  0  0  0
 11 12  2  0  0  0  0
 11 21  1  0  0  0  0
 12 22  1  0  0  0  0
 13 18  2  0  0  0  0
 13 23  1  0  0  0  0
 14 17  2  0  0  0  0
 14 24  1  0  0  0  0
 15 18  1  0  0  0  0
 15 25  1  0  0  0  0
 16 17  1  0  0  0  0
 16 26  1  0  0  0  0
 17 28  1  0  0  0  0
 18 27  1  0  0  0  0
M  END
> <PUBCHEM_COMPOUND_CID>
95075

> <PUBCHEM_COMPOUND_CANONICALIZED>
1

> <PUBCHEM_CACTVS_COMPLEXITY>
367

> <PUBCHEM_CACTVS_HBOND_ACCEPTOR>
4

> <PUBCHEM_CACTVS_HBOND_DONOR>
2

> <PUBCHEM_CACTVS_ROTATABLE_BOND>
2

> <PUBCHEM_CACTVS_SUBSKEYS>
AAADccB4OAAAAAAAAAAAAAAAAAAAAAAAAAAwYMAAAAAAAADBVAAAGgAACAAADACAmAAwCMAAAgCIAiDSCAACAAAkAAAIiAEACMgIJjKAFRCAcQAkwAEImYeIyPCOwAACAAAQAACAAAQAACAAAAAAAAAAAA==

> <PUBCHEM_IUPAC_OPENEYE_NAME>
phenanthrene-4,5-dicarboxylic acid

> <PUBCHEM_IUPAC_CAS_NAME>
phenanthrene-4,5-dicarboxylic acid

> <PUBCHEM_IUPAC_NAME>
phenanthrene-4,5-dicarboxylic acid

> <PUBCHEM_IUPAC_SYSTEMATIC_NAME>
phenanthrene-4,5-dicarboxylic acid

> <PUBCHEM_IUPAC_TRADITIONAL_NAME>
phenanthrene-4,5-dicarboxylic acid

> <PUBCHEM_IUPAC_INCHI>
InChI=1S/C16H10O4/c17-15(18)11-5-1-3-9-7-8-10-4-2-6-12(16(19)20)14(10)13(9)11/h1-8H,(H,17,18)(H,19,20)

> <PUBCHEM_IUPAC_INCHIKEY>
RAGXPRCIICFJIK-UHFFFAOYSA-N

> <PUBCHEM_XLOGP3>
3.2

> <PUBCHEM_EXACT_MASS>
266.057909

> <PUBCHEM_MOLECULAR_FORMULA>
C16H10O4

> <PUBCHEM_MOLECULAR_WEIGHT>
266.2482

> <PUBCHEM_OPENEYE_CAN_SMILES>
C1=CC2=C(C(=C1)C(=O)O)C3=C(C=CC=C3C(=O)O)C=C2

> <PUBCHEM_OPENEYE_ISO_SMILES>
C1=CC2=C(C(=C1)C(=O)O)C3=C(C=CC=C3C(=O)O)C=C2

> <PUBCHEM_CACTVS_TPSA>
74.6

> <PUBCHEM_MONOISOTOPIC_WEIGHT>
266.057909

> <PUBCHEM_TOTAL_CHARGE>
0

> <PUBCHEM_HEAVY_ATOM_COUNT>
20

> <PUBCHEM_ATOM_DEF_STEREO_COUNT>
0

> <PUBCHEM_ATOM_UDEF_STEREO_COUNT>
0

> <PUBCHEM_BOND_DEF_STEREO_COUNT>
0

> <PUBCHEM_BOND_UDEF_STEREO_COUNT>
0

> <PUBCHEM_ISOTOPIC_ATOM_COUNT>
0

> <PUBCHEM_COMPONENT_COUNT>
1

> <PUBCHEM_CACTVS_TAUTO_COUNT>
1

> <PUBCHEM_COORDINATE_TYPE>
1
5
255

> <PUBCHEM_BONDANNOTATIONS>
10  16  8
11  12  8
13  18  8
14  17  8
15  18  8
16  17  8
5  6  8
5  7  8
5  9  8
6  10  8
6  8  8
7  11  8
7  13  8
8  12  8
8  14  8
9  15  8

$$$$

