5848
  -OEChem-06261200552D

 35 36  0     1  0  0  0  0  0999 V2000
    4.0984   -2.4403    0.0000 S   0  0  0  0  0  0  0  0  0  0  0  0
    2.9749    1.9685    0.0000 Si  0  0  0  0  0  0  0  0  0  0  0  0
    5.8305    0.5597    0.0000 O   0  0  0  0  0  0  0  0  0  0  0  0
    2.3664    0.5597    0.0000 O   0  0  0  0  0  0  0  0  0  0  0  0
    4.9644   -0.9403    0.0000 N   0  0  0  0  0  0  0  0  0  0  0  0
    3.2324   -0.9403    0.0000 N   0  0  0  0  0  0  0  0  0  0  0  0
    4.0984    0.5597    0.0000 C   0  0  3  0  0  0  0  0  0  0  0  0
    3.1974    0.9936    0.0000 C   0  0  0  0  0  0  0  0  0  0  0  0
    3.5984    2.7503    0.0000 C   0  0  0  0  0  0  0  0  0  0  0  0
    4.9994    0.9936    0.0000 C   0  0  0  0  0  0  0  0  0  0  0  0
    4.5984    2.7503    0.0000 C   0  0  0  0  0  0  0  0  0  0  0  0
    5.2219    1.9685    0.0000 C   0  0  0  0  0  0  0  0  0  0  0  0
    2.1931    2.5920    0.0000 C   0  0  0  0  0  0  0  0  0  0  0  0
    2.0000    1.7460    0.0000 C   0  0  0  0  0  0  0  0  0  0  0  0
    4.9644    0.0597    0.0000 C   0  0  0  0  0  0  0  0  0  0  0  0
    3.2324    0.0597    0.0000 C   0  0  0  0  0  0  0  0  0  0  0  0
    4.0984   -1.4403    0.0000 C   0  0  0  0  0  0  0  0  0  0  0  0
    2.5774    0.9936    0.0000 H   0  0  0  0  0  0  0  0  0  0  0  0
    3.0595    0.3891    0.0000 H   0  0  0  0  0  0  0  0  0  0  0  0
    3.7364    3.3548    0.0000 H   0  0  0  0  0  0  0  0  0  0  0  0
    3.0398    3.0193    0.0000 H   0  0  0  0  0  0  0  0  0  0  0  0
    5.1373    0.3891    0.0000 H   0  0  0  0  0  0  0  0  0  0  0  0
    5.6194    0.9936    0.0000 H   0  0  0  0  0  0  0  0  0  0  0  0
    5.1570    3.0193    0.0000 H   0  0  0  0  0  0  0  0  0  0  0  0
    4.4605    3.3548    0.0000 H   0  0  0  0  0  0  0  0  0  0  0  0
    5.7805    1.6995    0.0000 H   0  0  0  0  0  0  0  0  0  0  0  0
    5.6085    2.4532    0.0000 H   0  0  0  0  0  0  0  0  0  0  0  0
    2.5797    3.0767    0.0000 H   0  0  0  0  0  0  0  0  0  0  0  0
    1.7084    2.9785    0.0000 H   0  0  0  0  0  0  0  0  0  0  0  0
    1.8065    2.1072    0.0000 H   0  0  0  0  0  0  0  0  0  0  0  0
    1.8620    2.3504    0.0000 H   0  0  0  0  0  0  0  0  0  0  0  0
    1.3955    1.6080    0.0000 H   0  0  0  0  0  0  0  0  0  0  0  0
    2.1380    1.1415    0.0000 H   0  0  0  0  0  0  0  0  0  0  0  0
    5.5014   -1.2503    0.0000 H   0  0  0  0  0  0  0  0  0  0  0  0
    3.5615   -2.7503    0.0000 H   0  0  0  0  0  0  0  0  0  0  0  0
  1 17  1  0  0  0  0
  1 35  1  0  0  0  0
  2  8  1  0  0  0  0
  2  9  1  0  0  0  0
  2 13  1  0  0  0  0
  2 14  1  0  0  0  0
  3 15  2  0  0  0  0
  4 16  2  0  0  0  0
  5 15  1  0  0  0  0
  5 17  1  0  0  0  0
  5 34  1  0  0  0  0
  6 16  1  0  0  0  0
  6 17  2  0  0  0  0
  7  8  1  0  0  0  0
  7 10  1  0  0  0  0
  7 15  1  0  0  0  0
  7 16  1  0  0  0  0
  8 18  1  0  0  0  0
  8 19  1  0  0  0  0
  9 11  1  0  0  0  0
  9 20  1  0  0  0  0
  9 21  1  0  0  0  0
 10 12  1  0  0  0  0
 10 22  1  0  0  0  0
 10 23  1  0  0  0  0
 11 12  1  0  0  0  0
 11 24  1  0  0  0  0
 11 25  1  0  0  0  0
 12 26  1  0  0  0  0
 12 27  1  0  0  0  0
 13 28  1  0  0  0  0
 13 29  1  0  0  0  0
 13 30  1  0  0  0  0
 14 31  1  0  0  0  0
 14 32  1  0  0  0  0
 14 33  1  0  0  0  0
M  END
> <PUBCHEM_COMPOUND_CID>
5848

> <PUBCHEM_COMPOUND_CANONICALIZED>
1

> <PUBCHEM_CACTVS_COMPLEXITY>
408

> <PUBCHEM_CACTVS_HBOND_ACCEPTOR>
3

> <PUBCHEM_CACTVS_HBOND_DONOR>
2

> <PUBCHEM_CACTVS_ROTATABLE_BOND>
0

> <PUBCHEM_CACTVS_SUBSKEYS>
AAADceBzMAhAAAAAAAAAAAAAAAAAAAAAAAAgAAAABIAAAAAAAAAAHhQQAAAADgCBoABDAALAAAUoAAEQNAAAEAEAAAABAAEAAAAAABoIyAAEAAAAAAAAAAEYCAANAAAAAAAAAAAAAAAAAAAAAAAAAAAAAA==

> <PUBCHEM_IUPAC_OPENEYE_NAME>
8,8-dimethyl-3-sulfanyl-2,4-diaza-8-silaspiro[5.6]dodec-3-ene-1,5-dione

> <PUBCHEM_IUPAC_CAS_NAME>
3-mercapto-8,8-dimethyl-2,4-diaza-8-silaspiro[5.6]dodec-3-ene-1,5-dione

> <PUBCHEM_IUPAC_NAME>
8,8-dimethyl-3-sulfanyl-2,4-diaza-8-silaspiro[5.6]dodec-3-ene-1,5-dione

> <PUBCHEM_IUPAC_SYSTEMATIC_NAME>
8,8-dimethyl-3-sulfanyl-2,4-diaza-8-silaspiro[5.6]dodec-3-ene-1,5-dione

> <PUBCHEM_IUPAC_TRADITIONAL_NAME>
3-mercapto-8,8-dimethyl-2,4-diaza-8-silaspiro[5.6]dodec-3-ene-1,5-quinone

> <PUBCHEM_IUPAC_INCHI>
InChI=1S/C11H18N2O2SSi/c1-17(2)6-4-3-5-11(7-17)8(14)12-10(16)13-9(11)15/h3-7H2,1-2H3,(H2,12,13,14,15,16)

> <PUBCHEM_IUPAC_INCHIKEY>
FPLBWHGAJGKHKN-UHFFFAOYSA-N

> <PUBCHEM_EXACT_MASS>
270.085825

> <PUBCHEM_MOLECULAR_FORMULA>
C11H18N2O2SSi

> <PUBCHEM_MOLECULAR_WEIGHT>
270.42332

> <PUBCHEM_OPENEYE_CAN_SMILES>
C[Si]1(CCCCC2(C1)C(=O)NC(=NC2=O)S)C

> <PUBCHEM_OPENEYE_ISO_SMILES>
C[Si]1(CCCCC2(C1)C(=O)NC(=NC2=O)S)C

> <PUBCHEM_CACTVS_TPSA>
59.5

> <PUBCHEM_MONOISOTOPIC_WEIGHT>
270.085825

> <PUBCHEM_TOTAL_CHARGE>
0

> <PUBCHEM_HEAVY_ATOM_COUNT>
17

> <PUBCHEM_ATOM_DEF_STEREO_COUNT>
0

> <PUBCHEM_ATOM_UDEF_STEREO_COUNT>
1

> <PUBCHEM_BOND_DEF_STEREO_COUNT>
0

> <PUBCHEM_BOND_UDEF_STEREO_COUNT>
0

> <PUBCHEM_ISOTOPIC_ATOM_COUNT>
0

> <PUBCHEM_COMPONENT_COUNT>
1

> <PUBCHEM_CACTVS_TAUTO_COUNT>
5

> <PUBCHEM_COORDINATE_TYPE>
1
5
255

> <PUBCHEM_BONDANNOTATIONS>
7  8  3

$$$$

