   Color/Form

     * White to slightly yellowish solid
     * White solid

   from [1]HSDB

   Melting Point
        261-263 deg C
   from [2]HSDB

   Octanol/Water Partition Coefficient
        log Kow = 8.42 (est)
   from [3]HSDB

   Solubilities

     * Practically insoluble in water and in the pH range of 3 to 9,
       sparingly soluble in strong acid (except insoluble in hydrochloric
       acid) and soluble in strong base.
     * In water, 2.8X10-6 mgL at 25 deg C (est)

   from [4]HSDB

   Vapor Pressure
        9.33X10-20 mm Hg at 25 deg C (est)
   from [5]HSDB

   Other Chemical/Physical Properties

     * Henry's Law constant = 2.33X10-16 atm-cu m/mol at 25 deg C (est)
     * Hydroxyl radical reaction rate constant = 1.97X10-10 cu
       cm/molec-sec at 25 deg C (est)

   from [6]HSDB

   Computed Properties
   Molecular Weight                  514.6169 [g/mol]
   Molecular Formula                 C[33]H[30]N[4]O[2]
   XLogP3-AA                         6.9
   H-Bond Donor                      1
   H-Bond Acceptor                   4
   Rotatable Bond Count              7
   Tautomer Count                    4
   Exact Mass                        514.236876
   MonoIsotopic Mass                 514.236876
   Topological Polar Surface Area    72.9
   Heavy Atom Count                  39
   Formal Charge                     0
   Complexity                        831
   Isotope Atom Count                0
   Defined Atom Stereocenter Count   0
   Undefined Atom Stereocenter Count 0
   Defined Bond Stereocenter Count   0
   Undefined Bond Stereocenter Count 0
   Covalently-Bonded Unit Count      1
   Feature 3D Acceptor Count         2
   Feature 3D Anion Count            1
   Feature 3D Cation Count           2
   Feature 3D Hydrophobe Count       1
   Feature 3D Ring Count             6
   Effective Rotor Count             7
   Conformer Sampling RMSD           1
   CID Conformer Count               [7]62

References

   1. http://toxnet.nlm.nih.gov/cgi-bin/sis/search/r?dbs+hsdb:@term+@rn+@rel+144701-48-4
   2. http://toxnet.nlm.nih.gov/cgi-bin/sis/search/r?dbs+hsdb:@term+@rn+@rel+144701-48-4
   3. http://toxnet.nlm.nih.gov/cgi-bin/sis/search/r?dbs+hsdb:@term+@rn+@rel+144701-48-4
   4. http://toxnet.nlm.nih.gov/cgi-bin/sis/search/r?dbs+hsdb:@term+@rn+@rel+144701-48-4
   5. http://toxnet.nlm.nih.gov/cgi-bin/sis/search/r?dbs+hsdb:@term+@rn+@rel+144701-48-4
   6. http://toxnet.nlm.nih.gov/cgi-bin/sis/search/r?dbs+hsdb:@term+@rn+@rel+144701-48-4
   7. http://pubchem.ncbi.nlm.nih.gov/vw3d/vw3d.cgi?cid=65999
