   Color/Form

     * Colorless gas
     * Colorless gas [Note: Shipped as a liquefied compressed gas].

   from [1]HSDB

   Odor

     * Nearly odorless
     * Faint, ethereal

   from [2]HSDB

   Boiling Point
        -85.7 deg C
   from [3]HSDB

   Melting Point
        -144 deg C at 1 atm /freezing point/
   from [4]HSDB

   Critical Temperature and Pressure
        Critical temperature = 29.75 deg C; Critical pressure = 4.46 MPa
   from [5]HSDB

   Density/Specific Gravity
        0.617 g/cc at 24 deg C (liquid)
   from [6]HSDB

   Heat of Combustion
        -6.92X10+08 J/kmol
   from [7]HSDB

   Heat of Vaporization
        1.7712X10+07 J/kmol at melting point
   from [8]HSDB

   Octanol/Water Partition Coefficient
        log Kow = 1.24
   from [9]HSDB

   Solubilities

     * Slightly sol in water; sol in alcohol and ether
     * Water solubility = 6.3 cu cm/100 g at 25 deg C and 10 kPa
     * Water solubility = 0.018 g/100 g at 25 deg C and 760 mm Hg
     * Water solubility = 165 ppm at 25 deg C
     * In water, 164.9 mg/L at 25 deg C

   from [10]HSDB

   Spectral Properties
        MASS: 46 (Atlas of Mass Spectral Data, John Wiley and Sons, New
   York)
   from [11]HSDB

   Surface Tension
        0.039942 newtons/meter at melting point
   from [12]HSDB

   Vapor Density
        2.2 (AIR= 1)
   from [13]HSDB

   Vapor Pressure
        3.0X10+4 mm Hg at 25 deg C
   from [14]HSDB

   Viscosity
        7.7574 pascal-seconds (liquid) at boiling point
   from [15]HSDB

   Other Chemical/Physical Properties

     * Conversion factors: 1 mg/L is equivalent to 382 ppm and 1 ppm is
       equivalent to 2.62 mg/cu m at 25 deg C, 760 mm Hg
     * Critical density = 417 kg/cu m; Heat of formation = -345.2 kJ/mol
       at 25 deg C; Heat of polymerization = -474.21 kJ/mol at 25 deg C;
       explosive limits = 5.8-20.3 vol % in air
     * Critical molar volume: 154 cu cm/mol
     * Dipole moment = 1.3893
     * Explosive limits in air 5.5-21%
     * Heat of evaporation = 13189 J/mol at -40 deg C
     * Liquid molar volume = 0.055194 cu m/kmol; Vapor pressure = 3X10+4
       mm Hg at 25 C (calculated from experimentally derived coefficients)
     * Sensitive to heat or stabilizers; alkyl boron and alkyl hyponitrite
       compounds, among others, initiate polymerization
     * Henry's Law constant = 3.79X10-1 atm-cu m/mol at 25 deg C (est)
     * Hydroxy radical reaction rate constant = 2.10X10-12 cu cm/molec-sec
       at 23 deg C

   from [16]HSDB

   Computed Properties
   Molecular Weight                  64.034086 [g/mol]
   Molecular Formula                 C[2]H[2]F[2]
   XLogP3-AA                         1.3
   H-Bond Donor                      0
   H-Bond Acceptor                   2
   Rotatable Bond Count              0
   Exact Mass                        64.012457
   MonoIsotopic Mass                 64.012457
   Topological Polar Surface Area    0
   Heavy Atom Count                  4
   Formal Charge                     0
   Complexity                        27
   Isotope Atom Count                0
   Defined Atom Stereocenter Count   0
   Undefined Atom Stereocenter Count 0
   Defined Bond Stereocenter Count   0
   Undefined Bond Stereocenter Count 0
   Covalently-Bonded Unit Count      1
   Effective Rotor Count             0
   Conformer Sampling RMSD           0.4
   CID Conformer Count               [17]1

References

   1. http://toxnet.nlm.nih.gov/cgi-bin/sis/search/r?dbs+hsdb:@term+@rn+@rel+75-38-7
   2. http://toxnet.nlm.nih.gov/cgi-bin/sis/search/r?dbs+hsdb:@term+@rn+@rel+75-38-7
   3. http://toxnet.nlm.nih.gov/cgi-bin/sis/search/r?dbs+hsdb:@term+@rn+@rel+75-38-7
   4. http://toxnet.nlm.nih.gov/cgi-bin/sis/search/r?dbs+hsdb:@term+@rn+@rel+75-38-7
   5. http://toxnet.nlm.nih.gov/cgi-bin/sis/search/r?dbs+hsdb:@term+@rn+@rel+75-38-7
   6. http://toxnet.nlm.nih.gov/cgi-bin/sis/search/r?dbs+hsdb:@term+@rn+@rel+75-38-7
   7. http://toxnet.nlm.nih.gov/cgi-bin/sis/search/r?dbs+hsdb:@term+@rn+@rel+75-38-7
   8. http://toxnet.nlm.nih.gov/cgi-bin/sis/search/r?dbs+hsdb:@term+@rn+@rel+75-38-7
   9. http://toxnet.nlm.nih.gov/cgi-bin/sis/search/r?dbs+hsdb:@term+@rn+@rel+75-38-7
  10. http://toxnet.nlm.nih.gov/cgi-bin/sis/search/r?dbs+hsdb:@term+@rn+@rel+75-38-7
  11. http://toxnet.nlm.nih.gov/cgi-bin/sis/search/r?dbs+hsdb:@term+@rn+@rel+75-38-7
  12. http://toxnet.nlm.nih.gov/cgi-bin/sis/search/r?dbs+hsdb:@term+@rn+@rel+75-38-7
  13. http://toxnet.nlm.nih.gov/cgi-bin/sis/search/r?dbs+hsdb:@term+@rn+@rel+75-38-7
  14. http://toxnet.nlm.nih.gov/cgi-bin/sis/search/r?dbs+hsdb:@term+@rn+@rel+75-38-7
  15. http://toxnet.nlm.nih.gov/cgi-bin/sis/search/r?dbs+hsdb:@term+@rn+@rel+75-38-7
  16. http://toxnet.nlm.nih.gov/cgi-bin/sis/search/r?dbs+hsdb:@term+@rn+@rel+75-38-7
  17. http://pubchem.ncbi.nlm.nih.gov/vw3d/vw3d.cgi?cid=6369
