   Color/Form

     * Colorless, columnar crystals or white, granular powder
     * Prisms from benzene and toluene

   from [1]HSDB

   Odor
        Almost odorless
   from [2]HSDB

   Taste
        Cooling, saline, bitter taste
   from [3]HSDB

   Boiling Point
        185 deg C
   from [4]HSDB

   Melting Point
        49 deg C
   from [5]HSDB

   Density/Specific Gravity
        0.9813
   from [6]HSDB

   Heat of Combustion
        397.2 kcal/g mol wt at 25 deg C
   from [7]HSDB

   Heat of Vaporization
        13,078.6 gcal/gmole
   from [8]HSDB

   Octanol/Water Partition Coefficient
        log Kow = -0.15
   from [9]HSDB

   pH
        Aqueous solution is neutral
   from [10]HSDB

   Solubilities

     * Soluble in benzene
     * 1g dissolves in 0.8 mL alcohol; 1.5 mL ether; 0.9 mL chloroform;
       2.5 mL glycerol; 32 mL olive oil
     * In water, 4.8X10+5 mg/L at 15 deg C

   from [11]HSDB

   Spectral Properties

     * Index of refraction: 1.4144 at 51 deg C/D
     * IR: 5961 (Coblentz Society Spectral Collection)
     * NMR: 245 (Sadtler Research Laboratories Spectral Collection)
     * C13NMR: 37 (Johnson and Jankowski carbon 13 NMR Spectra. John Wiley
       and Sons, New York.)
     * MASS: 707 (NIST/EPA/MSDC Mass Spectral Database. 1990 version)

   from [12]HSDB

   Vapor Density
        3.07 (Air = 1)
   from [13]HSDB

   Vapor Pressure
        0.262 mm Hg at 25 deg C
   from [14]HSDB

   Other Chemical/Physical Properties

     * Sublimes readily at 103 deg C and 54 mm pressure
     * Heat of fusion: 40.85 cal/g
     * Volatile at room temperature.
     * Henry's Law constant = 6.4X10-8 atm-cu m/mole at 25 deg C
       /Estimated/
     * Hydroxyl radical reaction rate constant: 7.4X10-12 cu cm/molec-sec
       at 25 deg C /Estimated/

   from [15]HSDB

   Computed Properties
   Molecular Weight                  89.09318 [g/mol]
   Molecular Formula                 C[3]H[7]NO[2]
   XLogP3                            -0.2
   H-Bond Donor                      1
   H-Bond Acceptor                   2
   Rotatable Bond Count              2
   Tautomer Count                    2
   Exact Mass                        89.047678
   MonoIsotopic Mass                 89.047678
   Topological Polar Surface Area    52.3
   Heavy Atom Count                  6
   Formal Charge                     0
   Complexity                        52.8
   Isotope Atom Count                0
   Defined Atom Stereocenter Count   0
   Undefined Atom Stereocenter Count 0
   Defined Bond Stereocenter Count   0
   Undefined Bond Stereocenter Count 0
   Covalently-Bonded Unit Count      1
   Feature 3D Acceptor Count         1
   Feature 3D Donor Count            1
   Effective Rotor Count             2
   Conformer Sampling RMSD           0.4
   CID Conformer Count               [16]9

References

   1. http://toxnet.nlm.nih.gov/cgi-bin/sis/search/r?dbs+hsdb:@term+@rn+@rel+51-79-6
   2. http://toxnet.nlm.nih.gov/cgi-bin/sis/search/r?dbs+hsdb:@term+@rn+@rel+51-79-6
   3. http://toxnet.nlm.nih.gov/cgi-bin/sis/search/r?dbs+hsdb:@term+@rn+@rel+51-79-6
   4. http://toxnet.nlm.nih.gov/cgi-bin/sis/search/r?dbs+hsdb:@term+@rn+@rel+51-79-6
   5. http://toxnet.nlm.nih.gov/cgi-bin/sis/search/r?dbs+hsdb:@term+@rn+@rel+51-79-6
   6. http://toxnet.nlm.nih.gov/cgi-bin/sis/search/r?dbs+hsdb:@term+@rn+@rel+51-79-6
   7. http://toxnet.nlm.nih.gov/cgi-bin/sis/search/r?dbs+hsdb:@term+@rn+@rel+51-79-6
   8. http://toxnet.nlm.nih.gov/cgi-bin/sis/search/r?dbs+hsdb:@term+@rn+@rel+51-79-6
   9. http://toxnet.nlm.nih.gov/cgi-bin/sis/search/r?dbs+hsdb:@term+@rn+@rel+51-79-6
  10. http://toxnet.nlm.nih.gov/cgi-bin/sis/search/r?dbs+hsdb:@term+@rn+@rel+51-79-6
  11. http://toxnet.nlm.nih.gov/cgi-bin/sis/search/r?dbs+hsdb:@term+@rn+@rel+51-79-6
  12. http://toxnet.nlm.nih.gov/cgi-bin/sis/search/r?dbs+hsdb:@term+@rn+@rel+51-79-6
  13. http://toxnet.nlm.nih.gov/cgi-bin/sis/search/r?dbs+hsdb:@term+@rn+@rel+51-79-6
  14. http://toxnet.nlm.nih.gov/cgi-bin/sis/search/r?dbs+hsdb:@term+@rn+@rel+51-79-6
  15. http://toxnet.nlm.nih.gov/cgi-bin/sis/search/r?dbs+hsdb:@term+@rn+@rel+51-79-6
  16. http://pubchem.ncbi.nlm.nih.gov/vw3d/vw3d.cgi?cid=5641
