167551
  -OEChem-07051213002D

 61 61  0     0  0  0  0  0  0999 V2000
   17.5885   -0.0600    0.0000 O   0  0  0  0  0  0  0  0  0  0  0  0
   16.7224    1.4400    0.0000 O   0  0  0  0  0  0  0  0  0  0  0  0
   14.9904    1.4400    0.0000 O   0  0  0  0  0  0  0  0  0  0  0  0
    8.9282   -0.0600    0.0000 C   0  0  0  0  0  0  0  0  0  0  0  0
    8.0622   -0.5600    0.0000 C   0  0  0  0  0  0  0  0  0  0  0  0
    9.7942   -0.5600    0.0000 C   0  0  0  0  0  0  0  0  0  0  0  0
    7.1962   -0.0600    0.0000 C   0  0  0  0  0  0  0  0  0  0  0  0
   10.6603   -0.0600    0.0000 C   0  0  0  0  0  0  0  0  0  0  0  0
    6.3301   -0.5600    0.0000 C   0  0  0  0  0  0  0  0  0  0  0  0
   11.5263   -0.5600    0.0000 C   0  0  0  0  0  0  0  0  0  0  0  0
    5.4641   -0.0600    0.0000 C   0  0  0  0  0  0  0  0  0  0  0  0
   12.3923   -0.0600    0.0000 C   0  0  0  0  0  0  0  0  0  0  0  0
    4.5981   -0.5600    0.0000 C   0  0  0  0  0  0  0  0  0  0  0  0
   13.2583   -0.5600    0.0000 C   0  0  0  0  0  0  0  0  0  0  0  0
    3.7320   -0.0600    0.0000 C   0  0  0  0  0  0  0  0  0  0  0  0
   14.1244   -0.0600    0.0000 C   0  0  0  0  0  0  0  0  0  0  0  0
    2.8660   -0.5600    0.0000 C   0  0  0  0  0  0  0  0  0  0  0  0
   14.9904   -0.5600    0.0000 C   0  0  0  0  0  0  0  0  0  0  0  0
    2.0000   -0.0600    0.0000 C   0  0  0  0  0  0  0  0  0  0  0  0
   15.8564   -0.0600    0.0000 C   0  0  0  0  0  0  0  0  0  0  0  0
   14.9904   -1.5600    0.0000 C   0  0  0  0  0  0  0  0  0  0  0  0
   16.7224   -0.5600    0.0000 C   0  0  0  0  0  0  0  0  0  0  0  0
   15.8564   -2.0600    0.0000 C   0  0  0  0  0  0  0  0  0  0  0  0
   16.7224   -1.5600    0.0000 C   0  0  0  0  0  0  0  0  0  0  0  0
   15.8564    0.9400    0.0000 C   0  0  0  0  0  0  0  0  0  0  0  0
    9.3267    0.4149    0.0000 H   0  0  0  0  0  0  0  0  0  0  0  0
    8.5297    0.4149    0.0000 H   0  0  0  0  0  0  0  0  0  0  0  0
    7.6636   -1.0350    0.0000 H   0  0  0  0  0  0  0  0  0  0  0  0
    8.4607   -1.0350    0.0000 H   0  0  0  0  0  0  0  0  0  0  0  0
    9.3957   -1.0350    0.0000 H   0  0  0  0  0  0  0  0  0  0  0  0
   10.1928   -1.0350    0.0000 H   0  0  0  0  0  0  0  0  0  0  0  0
    7.5947    0.4149    0.0000 H   0  0  0  0  0  0  0  0  0  0  0  0
    6.7976    0.4149    0.0000 H   0  0  0  0  0  0  0  0  0  0  0  0
   11.0588    0.4149    0.0000 H   0  0  0  0  0  0  0  0  0  0  0  0
   10.2617    0.4149    0.0000 H   0  0  0  0  0  0  0  0  0  0  0  0
    5.9316   -1.0350    0.0000 H   0  0  0  0  0  0  0  0  0  0  0  0
    6.7287   -1.0350    0.0000 H   0  0  0  0  0  0  0  0  0  0  0  0
   11.1278   -1.0350    0.0000 H   0  0  0  0  0  0  0  0  0  0  0  0
   11.9248   -1.0350    0.0000 H   0  0  0  0  0  0  0  0  0  0  0  0
    5.8626    0.4149    0.0000 H   0  0  0  0  0  0  0  0  0  0  0  0
    5.0656    0.4149    0.0000 H   0  0  0  0  0  0  0  0  0  0  0  0
   12.7908    0.4149    0.0000 H   0  0  0  0  0  0  0  0  0  0  0  0
   11.9938    0.4149    0.0000 H   0  0  0  0  0  0  0  0  0  0  0  0
    4.1996   -1.0350    0.0000 H   0  0  0  0  0  0  0  0  0  0  0  0
    4.9966   -1.0350    0.0000 H   0  0  0  0  0  0  0  0  0  0  0  0
   12.8598   -1.0350    0.0000 H   0  0  0  0  0  0  0  0  0  0  0  0
   13.6569   -1.0350    0.0000 H   0  0  0  0  0  0  0  0  0  0  0  0
    4.1306    0.4149    0.0000 H   0  0  0  0  0  0  0  0  0  0  0  0
    3.3335    0.4149    0.0000 H   0  0  0  0  0  0  0  0  0  0  0  0
   14.5229    0.4149    0.0000 H   0  0  0  0  0  0  0  0  0  0  0  0
   13.7258    0.4149    0.0000 H   0  0  0  0  0  0  0  0  0  0  0  0
    2.4675   -1.0350    0.0000 H   0  0  0  0  0  0  0  0  0  0  0  0
    3.2646   -1.0350    0.0000 H   0  0  0  0  0  0  0  0  0  0  0  0
    2.3100    0.4769    0.0000 H   0  0  0  0  0  0  0  0  0  0  0  0
    1.4631    0.2500    0.0000 H   0  0  0  0  0  0  0  0  0  0  0  0
    1.6900   -0.5969    0.0000 H   0  0  0  0  0  0  0  0  0  0  0  0
   14.4534   -1.8700    0.0000 H   0  0  0  0  0  0  0  0  0  0  0  0
   15.8564   -2.6800    0.0000 H   0  0  0  0  0  0  0  0  0  0  0  0
   17.2594   -1.8700    0.0000 H   0  0  0  0  0  0  0  0  0  0  0  0
   18.1254   -0.3700    0.0000 H   0  0  0  0  0  0  0  0  0  0  0  0
   16.7224    2.0600    0.0000 H   0  0  0  0  0  0  0  0  0  0  0  0
  1 22  1  0  0  0  0
  1 60  1  0  0  0  0
  2 25  1  0  0  0  0
  2 61  1  0  0  0  0
  3 25  2  0  0  0  0
  4  5  1  0  0  0  0
  4  6  1  0  0  0  0
  4 26  1  0  0  0  0
  4 27  1  0  0  0  0
  5  7  1  0  0  0  0
  5 28  1  0  0  0  0
  5 29  1  0  0  0  0
  6  8  1  0  0  0  0
  6 30  1  0  0  0  0
  6 31  1  0  0  0  0
  7  9  1  0  0  0  0
  7 32  1  0  0  0  0
  7 33  1  0  0  0  0
  8 10  1  0  0  0  0
  8 34  1  0  0  0  0
  8 35  1  0  0  0  0
  9 11  1  0  0  0  0
  9 36  1  0  0  0  0
  9 37  1  0  0  0  0
 10 12  1  0  0  0  0
 10 38  1  0  0  0  0
 10 39  1  0  0  0  0
 11 13  1  0  0  0  0
 11 40  1  0  0  0  0
 11 41  1  0  0  0  0
 12 14  1  0  0  0  0
 12 42  1  0  0  0  0
 12 43  1  0  0  0  0
 13 15  1  0  0  0  0
 13 44  1  0  0  0  0
 13 45  1  0  0  0  0
 14 16  1  0  0  0  0
 14 46  1  0  0  0  0
 14 47  1  0  0  0  0
 15 17  1  0  0  0  0
 15 48  1  0  0  0  0
 15 49  1  0  0  0  0
 16 18  1  0  0  0  0
 16 50  1  0  0  0  0
 16 51  1  0  0  0  0
 17 19  1  0  0  0  0
 17 52  1  0  0  0  0
 17 53  1  0  0  0  0
 18 20  2  0  0  0  0
 18 21  1  0  0  0  0
 19 54  1  0  0  0  0
 19 55  1  0  0  0  0
 19 56  1  0  0  0  0
 20 22  1  0  0  0  0
 20 25  1  0  0  0  0
 21 23  2  0  0  0  0
 21 57  1  0  0  0  0
 22 24  2  0  0  0  0
 23 24  1  0  0  0  0
 23 58  1  0  0  0  0
 24 59  1  0  0  0  0
M  END
> <PUBCHEM_COMPOUND_CID>
167551

> <PUBCHEM_COMPOUND_CANONICALIZED>
1

> <PUBCHEM_CACTVS_COMPLEXITY>
329

> <PUBCHEM_CACTVS_HBOND_ACCEPTOR>
3

> <PUBCHEM_CACTVS_HBOND_DONOR>
2

> <PUBCHEM_CACTVS_ROTATABLE_BOND>
15

> <PUBCHEM_CACTVS_SUBSKEYS>
AAADcfB4MAAAAAAAAAAAAAAAAAAAAAAAAAAwAAAAAAAAAAABAAAAGgAACAAADASAmAAyDoAAAgCIAiDSCAACAAAkIAAIiAEGCMgIJzaCFRKAcUAl4BEImQeIyPCOgAABAAAYAAAAAAIAADAAAAAAAAAAAA==

> <PUBCHEM_IUPAC_OPENEYE_NAME>
2-hydroxy-6-pentadecyl-benzoic acid

> <PUBCHEM_IUPAC_CAS_NAME>
2-hydroxy-6-pentadecylbenzoic acid

> <PUBCHEM_IUPAC_NAME>
2-hydroxy-6-pentadecylbenzoic acid

> <PUBCHEM_IUPAC_SYSTEMATIC_NAME>
2-oxidanyl-6-pentadecyl-benzoic acid

> <PUBCHEM_IUPAC_TRADITIONAL_NAME>
2-hydroxy-6-pentadecyl-benzoic acid

> <PUBCHEM_IUPAC_INCHI>
InChI=1S/C22H36O3/c1-2-3-4-5-6-7-8-9-10-11-12-13-14-16-19-17-15-18-20(23)21(19)22(24)25/h15,17-18,23H,2-14,16H2,1H3,(H,24,25)

> <PUBCHEM_IUPAC_INCHIKEY>
ADFWQBGTDJIESE-UHFFFAOYSA-N

> <PUBCHEM_XLOGP3_AA>
9.5

> <PUBCHEM_EXACT_MASS>
348.266445

> <PUBCHEM_MOLECULAR_FORMULA>
C22H36O3

> <PUBCHEM_MOLECULAR_WEIGHT>
348.51944

> <PUBCHEM_OPENEYE_CAN_SMILES>
CCCCCCCCCCCCCCCC1=C(C(=CC=C1)O)C(=O)O

> <PUBCHEM_OPENEYE_ISO_SMILES>
CCCCCCCCCCCCCCCC1=C(C(=CC=C1)O)C(=O)O

> <PUBCHEM_CACTVS_TPSA>
57.5

> <PUBCHEM_MONOISOTOPIC_WEIGHT>
348.266445

> <PUBCHEM_TOTAL_CHARGE>
0

> <PUBCHEM_HEAVY_ATOM_COUNT>
25

> <PUBCHEM_ATOM_DEF_STEREO_COUNT>
0

> <PUBCHEM_ATOM_UDEF_STEREO_COUNT>
0

> <PUBCHEM_BOND_DEF_STEREO_COUNT>
0

> <PUBCHEM_BOND_UDEF_STEREO_COUNT>
0

> <PUBCHEM_ISOTOPIC_ATOM_COUNT>
0

> <PUBCHEM_COMPONENT_COUNT>
1

> <PUBCHEM_CACTVS_TAUTO_COUNT>
13

> <PUBCHEM_COORDINATE_TYPE>
1
5
255

> <PUBCHEM_BONDANNOTATIONS>
18  20  8
18  21  8
20  22  8
21  23  8
22  24  8
23  24  8

$$$$

