74688
  -OEChem-07051212502D

 22 23  0     0  0  0  0  0  0999 V2000
    2.5369    0.2410    0.0000 O   0  0  0  0  0  0  0  0  0  0  0  0
    7.6811    2.1530    0.0000 O   0  0  0  0  0  0  0  0  0  0  0  0
    6.0812   -1.5637    0.0000 N   0  0  0  0  0  0  0  0  0  0  0  0
    5.1350   -0.2590    0.0000 C   0  0  0  0  0  0  0  0  0  0  0  0
    6.0812    0.0458    0.0000 C   0  0  0  0  0  0  0  0  0  0  0  0
    5.1350   -1.2590    0.0000 C   0  0  0  0  0  0  0  0  0  0  0  0
    6.6648   -0.7590    0.0000 C   0  0  0  0  0  0  0  0  0  0  0  0
    6.3919    0.9963    0.0000 C   0  0  0  0  0  0  0  0  0  0  0  0
    4.2690    0.2410    0.0000 C   0  0  0  0  0  0  0  0  0  0  0  0
    4.2690   -1.7590    0.0000 C   0  0  0  0  0  0  0  0  0  0  0  0
    3.4030   -0.2590    0.0000 C   0  0  0  0  0  0  0  0  0  0  0  0
    3.4030   -1.2590    0.0000 C   0  0  0  0  0  0  0  0  0  0  0  0
    7.3704    1.2025    0.0000 C   0  0  0  0  0  0  0  0  0  0  0  0
    7.2848   -0.7590    0.0000 H   0  0  0  0  0  0  0  0  0  0  0  0
    6.2738   -2.1530    0.0000 H   0  0  0  0  0  0  0  0  0  0  0  0
    6.3713    1.6159    0.0000 H   0  0  0  0  0  0  0  0  0  0  0  0
    5.7781    1.0836    0.0000 H   0  0  0  0  0  0  0  0  0  0  0  0
    4.2690    0.8610    0.0000 H   0  0  0  0  0  0  0  0  0  0  0  0
    4.2690   -2.3790    0.0000 H   0  0  0  0  0  0  0  0  0  0  0  0
    2.8660   -1.5690    0.0000 H   0  0  0  0  0  0  0  0  0  0  0  0
    7.7845    0.7410    0.0000 H   0  0  0  0  0  0  0  0  0  0  0  0
    2.0000   -0.0690    0.0000 H   0  0  0  0  0  0  0  0  0  0  0  0
  1 11  1  0  0  0  0
  1 22  1  0  0  0  0
  2 13  2  0  0  0  0
  3  6  1  0  0  0  0
  3  7  1  0  0  0  0
  3 15  1  0  0  0  0
  4  5  1  0  0  0  0
  4  6  2  0  0  0  0
  4  9  1  0  0  0  0
  5  7  2  0  0  0  0
  5  8  1  0  0  0  0
  6 10  1  0  0  0  0
  7 14  1  0  0  0  0
  8 13  1  0  0  0  0
  8 16  1  0  0  0  0
  8 17  1  0  0  0  0
  9 11  2  0  0  0  0
  9 18  1  0  0  0  0
 10 12  2  0  0  0  0
 10 19  1  0  0  0  0
 11 12  1  0  0  0  0
 12 20  1  0  0  0  0
 13 21  1  0  0  0  0
M  END
> <PUBCHEM_COMPOUND_CID>
74688

> <PUBCHEM_COMPOUND_CANONICALIZED>
1

> <PUBCHEM_CACTVS_COMPLEXITY>
195

> <PUBCHEM_CACTVS_HBOND_ACCEPTOR>
2

> <PUBCHEM_CACTVS_HBOND_DONOR>
2

> <PUBCHEM_CACTVS_ROTATABLE_BOND>
2

> <PUBCHEM_CACTVS_SUBSKEYS>
AAADccByMAAAAAAAAAAAAAAAAAAAAWAAAAAwAAAAAAAAAFgB8AAAHgAQCAAADAzhngY8xvLJkgCoAzx3xACCgCAxIiAI2aE+bJgIJvLClZOEcAhk0BHI2Ae82fKegEABAAACAAAAgAIAAAQAAAAAAAAAAA==

> <PUBCHEM_IUPAC_OPENEYE_NAME>
2-(5-hydroxy-1H-indol-3-yl)acetaldehyde

> <PUBCHEM_IUPAC_CAS_NAME>
2-(5-hydroxy-1H-indol-3-yl)acetaldehyde

> <PUBCHEM_IUPAC_NAME>
2-(5-hydroxy-1H-indol-3-yl)acetaldehyde

> <PUBCHEM_IUPAC_SYSTEMATIC_NAME>
2-(5-oxidanyl-1H-indol-3-yl)ethanal

> <PUBCHEM_IUPAC_TRADITIONAL_NAME>
2-(5-hydroxy-1H-indol-3-yl)acetaldehyde

> <PUBCHEM_IUPAC_INCHI>
InChI=1S/C10H9NO2/c12-4-3-7-6-11-10-2-1-8(13)5-9(7)10/h1-2,4-6,11,13H,3H2

> <PUBCHEM_IUPAC_INCHIKEY>
OBFAPCIUSYHFIE-UHFFFAOYSA-N

> <PUBCHEM_XLOGP3>
0.3

> <PUBCHEM_EXACT_MASS>
175.063329

> <PUBCHEM_MOLECULAR_FORMULA>
C10H9NO2

> <PUBCHEM_MOLECULAR_WEIGHT>
175.18396

> <PUBCHEM_OPENEYE_CAN_SMILES>
C1=CC2=C(C=C1O)C(=CN2)CC=O

> <PUBCHEM_OPENEYE_ISO_SMILES>
C1=CC2=C(C=C1O)C(=CN2)CC=O

> <PUBCHEM_CACTVS_TPSA>
53.1

> <PUBCHEM_MONOISOTOPIC_WEIGHT>
175.063329

> <PUBCHEM_TOTAL_CHARGE>
0

> <PUBCHEM_HEAVY_ATOM_COUNT>
13

> <PUBCHEM_ATOM_DEF_STEREO_COUNT>
0

> <PUBCHEM_ATOM_UDEF_STEREO_COUNT>
0

> <PUBCHEM_BOND_DEF_STEREO_COUNT>
0

> <PUBCHEM_BOND_UDEF_STEREO_COUNT>
0

> <PUBCHEM_ISOTOPIC_ATOM_COUNT>
0

> <PUBCHEM_COMPONENT_COUNT>
1

> <PUBCHEM_CACTVS_TAUTO_COUNT>
24

> <PUBCHEM_COORDINATE_TYPE>
1
5
255

> <PUBCHEM_BONDANNOTATIONS>
10  12  8
11  12  8
3  6  8
3  7  8
4  5  8
4  6  8
4  9  8
5  7  8
6  10  8
9  11  8

$$$$

