10905426
  -OEChem-07051213122D

 62 63  0     0  0  0  0  0  0999 V2000
    5.4641   -0.7321    0.0000 O   0  0  0  0  0  0  0  0  0  0  0  0
    2.0000   -0.7321    0.0000 O   0  0  0  0  0  0  0  0  0  0  0  0
    7.2320    2.1340    0.0000 O   0  0  0  0  0  0  0  0  0  0  0  0
    2.8660   -3.2320    0.0000 O   0  0  0  0  0  0  0  0  0  0  0  0
    2.8660   -2.2320    0.0000 N   0  0  0  0  0  0  0  0  0  0  0  0
    3.7320    1.2680    0.0000 C   0  0  0  0  0  0  0  0  0  0  0  0
    4.2320    2.1340    0.0000 C   0  0  0  0  0  0  0  0  0  0  0  0
    2.8660    0.7679    0.0000 C   0  0  0  0  0  0  0  0  0  0  0  0
    4.5981    0.7679    0.0000 C   0  0  0  0  0  0  0  0  0  0  0  0
    5.2320    2.1340    0.0000 C   0  0  0  0  0  0  0  0  0  0  0  0
    3.7320    3.0000    0.0000 C   0  0  0  0  0  0  0  0  0  0  0  0
    4.5981   -0.2321    0.0000 C   0  0  0  0  0  0  0  0  0  0  0  0
    2.8660   -0.2321    0.0000 C   0  0  0  0  0  0  0  0  0  0  0  0
    3.7320   -0.7321    0.0000 C   0  0  0  0  0  0  0  0  0  0  0  0
    5.7320    3.0000    0.0000 C   0  0  0  0  0  0  0  0  0  0  0  0
    5.2320    3.8660    0.0000 C   0  0  0  0  0  0  0  0  0  0  0  0
    4.2320    3.8660    0.0000 C   0  0  0  0  0  0  0  0  0  0  0  0
    5.7320    1.2680    0.0000 C   0  0  0  0  0  0  0  0  0  0  0  0
    3.7320   -1.7320    0.0000 C   0  0  0  0  0  0  0  0  0  0  0  0
    2.7320    3.0000    0.0000 C   0  0  0  0  0  0  0  0  0  0  0  0
    6.7320    3.0000    0.0000 C   0  0  0  0  0  0  0  0  0  0  0  0
    5.7320    4.7320    0.0000 C   0  0  0  0  0  0  0  0  0  0  0  0
    4.5981   -2.2320    0.0000 C   0  0  0  0  0  0  0  0  0  0  0  0
    7.2320    3.8660    0.0000 C   0  0  0  0  0  0  0  0  0  0  0  0
    8.2320    3.8660    0.0000 C   0  0  0  0  0  0  0  0  0  0  0  0
    4.5981   -3.2320    0.0000 C   0  0  0  0  0  0  0  0  0  0  0  0
    8.7320    4.7320    0.0000 C   0  0  0  0  0  0  0  0  0  0  0  0
    2.0000   -3.7320    0.0000 C   0  0  0  0  0  0  0  0  0  0  0  0
    2.0000   -4.7320    0.0000 C   0  0  0  0  0  0  0  0  0  0  0  0
    3.4220    1.8049    0.0000 H   0  0  0  0  0  0  0  0  0  0  0  0
    2.6540    1.3506    0.0000 H   0  0  0  0  0  0  0  0  0  0  0  0
    2.2554    0.6603    0.0000 H   0  0  0  0  0  0  0  0  0  0  0  0
    5.2087    0.6603    0.0000 H   0  0  0  0  0  0  0  0  0  0  0  0
    4.8101    1.3506    0.0000 H   0  0  0  0  0  0  0  0  0  0  0  0
    3.9220    4.4030    0.0000 H   0  0  0  0  0  0  0  0  0  0  0  0
    5.1951    0.9579    0.0000 H   0  0  0  0  0  0  0  0  0  0  0  0
    6.0420    0.7310    0.0000 H   0  0  0  0  0  0  0  0  0  0  0  0
    6.2690    1.5780    0.0000 H   0  0  0  0  0  0  0  0  0  0  0  0
    2.7320    3.6200    0.0000 H   0  0  0  0  0  0  0  0  0  0  0  0
    2.1120    3.0000    0.0000 H   0  0  0  0  0  0  0  0  0  0  0  0
    2.7320    2.3800    0.0000 H   0  0  0  0  0  0  0  0  0  0  0  0
    6.2690    4.4220    0.0000 H   0  0  0  0  0  0  0  0  0  0  0  0
    6.0420    5.2690    0.0000 H   0  0  0  0  0  0  0  0  0  0  0  0
    5.1951    5.0420    0.0000 H   0  0  0  0  0  0  0  0  0  0  0  0
    5.2087   -2.3397    0.0000 H   0  0  0  0  0  0  0  0  0  0  0  0
    4.8101   -1.6494    0.0000 H   0  0  0  0  0  0  0  0  0  0  0  0
    7.3397    4.4766    0.0000 H   0  0  0  0  0  0  0  0  0  0  0  0
    6.6494    4.0781    0.0000 H   0  0  0  0  0  0  0  0  0  0  0  0
    2.3291   -1.9220    0.0000 H   0  0  0  0  0  0  0  0  0  0  0  0
    8.1244    3.2554    0.0000 H   0  0  0  0  0  0  0  0  0  0  0  0
    8.8147    3.6540    0.0000 H   0  0  0  0  0  0  0  0  0  0  0  0
    3.9781   -3.2320    0.0000 H   0  0  0  0  0  0  0  0  0  0  0  0
    4.5981   -3.8520    0.0000 H   0  0  0  0  0  0  0  0  0  0  0  0
    5.2181   -3.2320    0.0000 H   0  0  0  0  0  0  0  0  0  0  0  0
    9.2690    4.4220    0.0000 H   0  0  0  0  0  0  0  0  0  0  0  0
    9.0420    5.2690    0.0000 H   0  0  0  0  0  0  0  0  0  0  0  0
    8.1951    5.0420    0.0000 H   0  0  0  0  0  0  0  0  0  0  0  0
    1.7880   -3.1494    0.0000 H   0  0  0  0  0  0  0  0  0  0  0  0
    1.3894   -3.8397    0.0000 H   0  0  0  0  0  0  0  0  0  0  0  0
    1.3800   -4.7320    0.0000 H   0  0  0  0  0  0  0  0  0  0  0  0
    2.0000   -5.3520    0.0000 H   0  0  0  0  0  0  0  0  0  0  0  0
    2.6200   -4.7320    0.0000 H   0  0  0  0  0  0  0  0  0  0  0  0
  1 12  2  0  0  0  0
  2 13  2  0  0  0  0
  3 21  2  0  0  0  0
  4  5  1  0  0  0  0
  4 28  1  0  0  0  0
  5 19  1  0  0  0  0
  5 49  1  0  0  0  0
  6  7  1  0  0  0  0
  6  8  1  0  0  0  0
  6  9  1  0  0  0  0
  6 30  1  0  0  0  0
  7 10  2  0  0  0  0
  7 11  1  0  0  0  0
  8 13  1  0  0  0  0
  8 31  1  0  0  0  0
  8 32  1  0  0  0  0
  9 12  1  0  0  0  0
  9 33  1  0  0  0  0
  9 34  1  0  0  0  0
 10 15  1  0  0  0  0
 10 18  1  0  0  0  0
 11 17  2  0  0  0  0
 11 20  1  0  0  0  0
 12 14  1  0  0  0  0
 13 14  1  0  0  0  0
 14 19  2  0  0  0  0
 15 16  2  0  0  0  0
 15 21  1  0  0  0  0
 16 17  1  0  0  0  0
 16 22  1  0  0  0  0
 17 35  1  0  0  0  0
 18 36  1  0  0  0  0
 18 37  1  0  0  0  0
 18 38  1  0  0  0  0
 19 23  1  0  0  0  0
 20 39  1  0  0  0  0
 20 40  1  0  0  0  0
 20 41  1  0  0  0  0
 21 24  1  0  0  0  0
 22 42  1  0  0  0  0
 22 43  1  0  0  0  0
 22 44  1  0  0  0  0
 23 26  1  0  0  0  0
 23 45  1  0  0  0  0
 23 46  1  0  0  0  0
 24 25  1  0  0  0  0
 24 47  1  0  0  0  0
 24 48  1  0  0  0  0
 25 27  1  0  0  0  0
 25 50  1  0  0  0  0
 25 51  1  0  0  0  0
 26 52  1  0  0  0  0
 26 53  1  0  0  0  0
 26 54  1  0  0  0  0
 27 55  1  0  0  0  0
 27 56  1  0  0  0  0
 27 57  1  0  0  0  0
 28 29  1  0  0  0  0
 28 58  1  0  0  0  0
 28 59  1  0  0  0  0
 29 60  1  0  0  0  0
 29 61  1  0  0  0  0
 29 62  1  0  0  0  0
M  END
> <PUBCHEM_COMPOUND_CID>
10905426

> <PUBCHEM_COMPOUND_CANONICALIZED>
1

> <PUBCHEM_CACTVS_COMPLEXITY>
633

> <PUBCHEM_CACTVS_HBOND_ACCEPTOR>
5

> <PUBCHEM_CACTVS_HBOND_DONOR>
1

> <PUBCHEM_CACTVS_ROTATABLE_BOND>
8

> <PUBCHEM_CACTVS_SUBSKEYS>
AAADcfB6OAAAAAAAAAAAAAAAAAAAAAAAAAAwYAAAAAAAAAABAAAAHgAUAAAADQyhmAIyAIBQAACIAqRSQAACAAAkAAAgiAEAAMgIIDKIFRCAIQAgkAAIiUcIisCuwAACAAAQAACAAAQAACAAAAAAAAAAAA==

> <PUBCHEM_IUPAC_OPENEYE_NAME>
5-(3-butanoyl-2,4,6-trimethyl-phenyl)-2-[1-(ethoxyamino)propylidene]cyclohexane-1,3-dione

> <PUBCHEM_IUPAC_CAS_NAME>
2-[1-(ethoxyamino)propylidene]-5-[2,4,6-trimethyl-3-(1-oxobutyl)phenyl]cyclohexane-1,3-dione

> <PUBCHEM_IUPAC_NAME>
5-(3-butanoyl-2,4,6-trimethylphenyl)-2-[1-(ethoxyamino)propylidene]cyclohexane-1,3-dione

> <PUBCHEM_IUPAC_SYSTEMATIC_NAME>
5-(3-butanoyl-2,4,6-trimethyl-phenyl)-2-[1-(ethoxyamino)propylidene]cyclohexane-1,3-dione

> <PUBCHEM_IUPAC_TRADITIONAL_NAME>
5-(3-butyryl-2,4,6-trimethyl-phenyl)-2-[1-(ethoxyamino)propylidene]cyclohexane-1,3-quinone

> <PUBCHEM_IUPAC_INCHI>
InChI=1S/C24H33NO4/c1-7-10-19(26)23-15(5)11-14(4)22(16(23)6)17-12-20(27)24(21(28)13-17)18(8-2)25-29-9-3/h11,17,25H,7-10,12-13H2,1-6H3

> <PUBCHEM_IUPAC_INCHIKEY>
LQNKITCRDAZSGT-UHFFFAOYSA-N

> <PUBCHEM_XLOGP3_AA>
5

> <PUBCHEM_EXACT_MASS>
399.240959

> <PUBCHEM_MOLECULAR_FORMULA>
C24H33NO4

> <PUBCHEM_MOLECULAR_WEIGHT>
399.52312

> <PUBCHEM_OPENEYE_CAN_SMILES>
CCCC(=O)C1=C(C(=C(C=C1C)C)C2CC(=O)C(=C(CC)NOCC)C(=O)C2)C

> <PUBCHEM_OPENEYE_ISO_SMILES>
CCCC(=O)C1=C(C(=C(C=C1C)C)C2CC(=O)C(=C(CC)NOCC)C(=O)C2)C

> <PUBCHEM_CACTVS_TPSA>
72.5

> <PUBCHEM_MONOISOTOPIC_WEIGHT>
399.240959

> <PUBCHEM_TOTAL_CHARGE>
0

> <PUBCHEM_HEAVY_ATOM_COUNT>
29

> <PUBCHEM_ATOM_DEF_STEREO_COUNT>
0

> <PUBCHEM_ATOM_UDEF_STEREO_COUNT>
0

> <PUBCHEM_BOND_DEF_STEREO_COUNT>
0

> <PUBCHEM_BOND_UDEF_STEREO_COUNT>
0

> <PUBCHEM_ISOTOPIC_ATOM_COUNT>
0

> <PUBCHEM_COMPONENT_COUNT>
1

> <PUBCHEM_CACTVS_TAUTO_COUNT>
546

> <PUBCHEM_COORDINATE_TYPE>
1
5
255

> <PUBCHEM_BONDANNOTATIONS>
10  15  8
11  17  8
15  16  8
16  17  8
7  10  8
7  11  8

$$$$

