442869
  -OEChem-07051213002D

 39 41  0     1  0  0  0  0  0999 V2000
    5.3517    2.1206    0.0000 O   0  0  0  0  0  0  0  0  0  0  0  0
    2.5369    0.9182    0.0000 O   0  0  0  0  0  0  0  0  0  0  0  0
    3.6304    2.5818    0.0000 O   0  0  0  0  0  0  0  0  0  0  0  0
    6.6505   -1.7268    0.0000 N   0  0  0  0  0  0  0  0  0  0  0  0
    7.9595   -0.7757    0.0000 N   0  0  0  0  0  0  0  0  0  0  0  0
    5.1825    0.5114    0.0000 C   0  0  1  0  0  0  0  0  0  0  0  0
    4.2690    0.9182    0.0000 C   0  0  2  0  0  0  0  0  0  0  0  0
    5.3904   -0.4667    0.0000 C   0  0  0  0  0  0  0  0  0  0  0  0
    5.8517    1.2546    0.0000 C   0  0  0  0  0  0  0  0  0  0  0  0
    3.4030    0.4182    0.0000 C   0  0  2  0  0  0  0  0  0  0  0  0
    4.3735    1.9127    0.0000 C   0  0  0  0  0  0  0  0  0  0  0  0
    6.3415   -0.7757    0.0000 C   0  0  0  0  0  0  0  0  0  0  0  0
    3.4030   -0.5818    0.0000 C   0  0  0  0  0  0  0  0  0  0  0  0
    7.1505   -0.1879    0.0000 C   0  0  0  0  0  0  0  0  0  0  0  0
    2.5369   -1.0818    0.0000 C   0  0  0  0  0  0  0  0  0  0  0  0
    4.2690   -1.0818    0.0000 C   0  0  0  0  0  0  0  0  0  0  0  0
    7.6505   -1.7268    0.0000 C   0  0  0  0  0  0  0  0  0  0  0  0
    6.0627   -2.5358    0.0000 C   0  0  0  0  0  0  0  0  0  0  0  0
    2.5369   -2.0818    0.0000 C   0  0  0  0  0  0  0  0  0  0  0  0
    4.2690   -2.0818    0.0000 C   0  0  0  0  0  0  0  0  0  0  0  0
    3.4030   -2.5818    0.0000 C   0  0  0  0  0  0  0  0  0  0  0  0
    4.7007    0.1213    0.0000 H   0  0  0  0  0  0  0  0  0  0  0  0
    3.5561    1.3811    0.0000 H   0  0  0  0  0  0  0  0  0  0  0  0
    4.7708   -0.4883    0.0000 H   0  0  0  0  0  0  0  0  0  0  0  0
    5.3042   -1.0807    0.0000 H   0  0  0  0  0  0  0  0  0  0  0  0
    6.2665    0.7938    0.0000 H   0  0  0  0  0  0  0  0  0  0  0  0
    6.3532    1.6190    0.0000 H   0  0  0  0  0  0  0  0  0  0  0  0
    3.4030    1.0382    0.0000 H   0  0  0  0  0  0  0  0  0  0  0  0
    2.0000    0.6082    0.0000 H   0  0  0  0  0  0  0  0  0  0  0  0
    7.1505    0.4321    0.0000 H   0  0  0  0  0  0  0  0  0  0  0  0
    2.0000   -0.7718    0.0000 H   0  0  0  0  0  0  0  0  0  0  0  0
    4.8059   -0.7718    0.0000 H   0  0  0  0  0  0  0  0  0  0  0  0
    8.0149   -2.2284    0.0000 H   0  0  0  0  0  0  0  0  0  0  0  0
    5.5611   -2.1714    0.0000 H   0  0  0  0  0  0  0  0  0  0  0  0
    5.6983   -3.0374    0.0000 H   0  0  0  0  0  0  0  0  0  0  0  0
    6.5643   -2.9002    0.0000 H   0  0  0  0  0  0  0  0  0  0  0  0
    2.0000   -2.3918    0.0000 H   0  0  0  0  0  0  0  0  0  0  0  0
    4.8059   -2.3918    0.0000 H   0  0  0  0  0  0  0  0  0  0  0  0
    3.4030   -3.2018    0.0000 H   0  0  0  0  0  0  0  0  0  0  0  0
  1  9  1  0  0  0  0
  1 11  1  0  0  0  0
 10  2  1  6  0  0  0
  2 29  1  0  0  0  0
  3 11  2  0  0  0  0
  4 12  1  0  0  0  0
  4 17  1  0  0  0  0
  4 18  1  0  0  0  0
  5 14  1  0  0  0  0
  5 17  2  0  0  0  0
  6  7  1  0  0  0  0
  6  8  1  6  0  0  0
  6  9  1  0  0  0  0
  6 22  1  0  0  0  0
  7 10  1  0  0  0  0
  7 11  1  0  0  0  0
  7 23  1  1  0  0  0
  8 12  1  0  0  0  0
  8 24  1  0  0  0  0
  8 25  1  0  0  0  0
  9 26  1  0  0  0  0
  9 27  1  0  0  0  0
 10 13  1  0  0  0  0
 10 28  1  0  0  0  0
 12 14  2  0  0  0  0
 13 15  2  0  0  0  0
 13 16  1  0  0  0  0
 14 30  1  0  0  0  0
 15 19  1  0  0  0  0
 15 31  1  0  0  0  0
 16 20  2  0  0  0  0
 16 32  1  0  0  0  0
 17 33  1  0  0  0  0
 18 34  1  0  0  0  0
 18 35  1  0  0  0  0
 18 36  1  0  0  0  0
 19 21  2  0  0  0  0
 19 37  1  0  0  0  0
 20 21  1  0  0  0  0
 20 38  1  0  0  0  0
 21 39  1  0  0  0  0
M  END
> <PUBCHEM_COMPOUND_CID>
442869

> <PUBCHEM_COMPOUND_CANONICALIZED>
1

> <PUBCHEM_CACTVS_COMPLEXITY>
371

> <PUBCHEM_CACTVS_HBOND_ACCEPTOR>
4

> <PUBCHEM_CACTVS_HBOND_DONOR>
1

> <PUBCHEM_CACTVS_ROTATABLE_BOND>
4

> <PUBCHEM_CACTVS_SUBSKEYS>
AAADceB7MAAAAAAAAAAAAAAAAAAAAWJAAAAwAAAAAAAAAAABwAAAHgAACAAADRzhngY/mJcMFgCoAzT3bAACgC0xEqAJ2AE4eIiIfjbAmRCWcAAt4ANI2Cf62fOegAAAAAAAAAAAAAAAAAAAAAAAAAAAAA==

> <PUBCHEM_IUPAC_OPENEYE_NAME>
(3R,4R)-3-[(R)-hydroxy(phenyl)methyl]-4-[(3-methylimidazol-4-yl)methyl]tetrahydrofuran-2-one

> <PUBCHEM_IUPAC_CAS_NAME>
(3R,4R)-3-[(R)-hydroxy(phenyl)methyl]-4-[(3-methyl-4-imidazolyl)methyl]-2-oxolanone

> <PUBCHEM_IUPAC_NAME>
(3R,4R)-3-[(R)-hydroxy(phenyl)methyl]-4-[(3-methylimidazol-4-yl)methyl]oxolan-2-one

> <PUBCHEM_IUPAC_SYSTEMATIC_NAME>
(3R,4R)-4-[(3-methylimidazol-4-yl)methyl]-3-[(R)-oxidanyl(phenyl)methyl]oxolan-2-one

> <PUBCHEM_IUPAC_TRADITIONAL_NAME>
(3R,4R)-3-[(R)-hydroxy(phenyl)methyl]-4-[(3-methylimidazol-4-yl)methyl]tetrahydrofuran-2-one

> <PUBCHEM_IUPAC_INCHI>
InChI=1S/C16H18N2O3/c1-18-10-17-8-13(18)7-12-9-21-16(20)14(12)15(19)11-5-3-2-4-6-11/h2-6,8,10,12,14-15,19H,7,9H2,1H3/t12-,14+,15-/m0/s1

> <PUBCHEM_IUPAC_INCHIKEY>
DZOVBAVEJYPSLL-CFVMTHIKSA-N

> <PUBCHEM_XLOGP3_AA>
1.6

> <PUBCHEM_EXACT_MASS>
286.131742

> <PUBCHEM_MOLECULAR_FORMULA>
C16H18N2O3

> <PUBCHEM_MOLECULAR_WEIGHT>
286.32572

> <PUBCHEM_OPENEYE_CAN_SMILES>
CN1C=NC=C1CC2COC(=O)C2C(C3=CC=CC=C3)O

> <PUBCHEM_OPENEYE_ISO_SMILES>
CN1C=NC=C1C[C@H]2COC(=O)[C@H]2[C@H](C3=CC=CC=C3)O

> <PUBCHEM_CACTVS_TPSA>
64.4

> <PUBCHEM_MONOISOTOPIC_WEIGHT>
286.131742

> <PUBCHEM_TOTAL_CHARGE>
0

> <PUBCHEM_HEAVY_ATOM_COUNT>
21

> <PUBCHEM_ATOM_DEF_STEREO_COUNT>
3

> <PUBCHEM_ATOM_UDEF_STEREO_COUNT>
0

> <PUBCHEM_BOND_DEF_STEREO_COUNT>
0

> <PUBCHEM_BOND_UDEF_STEREO_COUNT>
0

> <PUBCHEM_ISOTOPIC_ATOM_COUNT>
0

> <PUBCHEM_COMPONENT_COUNT>
1

> <PUBCHEM_CACTVS_TAUTO_COUNT>
2

> <PUBCHEM_COORDINATE_TYPE>
1
5
255

> <PUBCHEM_BONDANNOTATIONS>
12  14  8
13  15  8
13  16  8
15  19  8
16  20  8
19  21  8
10  2  6
20  21  8
4  12  8
4  17  8
5  14  8
5  17  8
6  8  6
7  23  5

$$$$

