45359883
  -OEChem-07051213102D

 73 77  0     1  0  0  0  0  0999 V2000
    8.0622    0.8450    0.0000 O   0  0  0  0  0  0  0  0  0  0  0  0
    7.1962    2.3450    0.0000 O   0  0  0  0  0  0  0  0  0  0  0  0
    8.9282    2.3450    0.0000 O   0  0  0  0  0  0  0  0  0  0  0  0
   10.6603    0.3450    0.0000 O   0  0  0  0  0  0  0  0  0  0  0  0
    6.3301   -0.1550    0.0000 O   0  0  0  0  0  0  0  0  0  0  0  0
   12.4603    2.3658    0.0000 O   0  0  0  0  0  0  0  0  0  0  0  0
    4.5981    0.8450    0.0000 O   0  0  0  0  0  0  0  0  0  0  0  0
    4.5981    2.8450    0.0000 O   0  0  0  0  0  0  0  0  0  0  0  0
    5.4641    4.3450    0.0000 O   0  0  0  0  0  0  0  0  0  0  0  0
   11.5426    3.8796    0.0000 O   0  0  0  0  0  0  0  0  0  0  0  0
    4.5981   -0.1550    0.0000 O   0  0  0  0  0  0  0  0  0  0  0  0
    7.1962   -1.6550    0.0000 O   0  0  0  0  0  0  0  0  0  0  0  0
    5.4641   -4.6550    0.0000 O   0  0  0  0  0  0  0  0  0  0  0  0
    2.8660    0.8450    0.0000 O   0  0  0  0  0  0  0  0  0  0  0  0
   10.6603    1.3450    0.0000 C   0  0  1  0  0  0  0  0  0  0  0  0
    9.7942    0.8450    0.0000 C   0  0  2  0  0  0  0  0  0  0  0  0
    8.9282    1.3450    0.0000 C   0  0  2  0  0  0  0  0  0  0  0  0
    7.1962    1.3450    0.0000 C   0  0  2  0  0  0  0  0  0  0  0  0
    6.3301    0.8450    0.0000 C   0  0  1  0  0  0  0  0  0  0  0  0
    5.4641    1.3450    0.0000 C   0  0  2  0  0  0  0  0  0  0  0  0
   11.5542    0.8103    0.0000 C   0  0  0  0  0  0  0  0  0  0  0  0
    5.4641    2.3450    0.0000 C   0  0  1  0  0  0  0  0  0  0  0  0
    6.3301    2.8450    0.0000 C   0  0  1  0  0  0  0  0  0  0  0  0
   10.6603    2.3450    0.0000 C   0  0  0  0  0  0  0  0  0  0  0  0
   12.4603    1.3242    0.0000 C   0  0  0  0  0  0  0  0  0  0  0  0
    9.7942   -0.1550    0.0000 C   0  0  0  0  0  0  0  0  0  0  0  0
    9.7942    2.8450    0.0000 C   0  0  0  0  0  0  0  0  0  0  0  0
    6.3301    3.8450    0.0000 C   0  0  0  0  0  0  0  0  0  0  0  0
   11.5542    2.8797    0.0000 C   0  0  0  0  0  0  0  0  0  0  0  0
    8.9282   -0.6550    0.0000 C   0  0  0  0  0  0  0  0  0  0  0  0
    5.4641   -0.6550    0.0000 C   0  0  0  0  0  0  0  0  0  0  0  0
    5.4641   -1.6550    0.0000 C   0  0  0  0  0  0  0  0  0  0  0  0
    4.5981   -2.1550    0.0000 C   0  0  0  0  0  0  0  0  0  0  0  0
    6.3301   -2.1550    0.0000 C   0  0  0  0  0  0  0  0  0  0  0  0
    4.5981   -3.1550    0.0000 C   0  0  0  0  0  0  0  0  0  0  0  0
    3.7320   -1.6550    0.0000 C   0  0  0  0  0  0  0  0  0  0  0  0
    6.3301   -3.1550    0.0000 C   0  0  0  0  0  0  0  0  0  0  0  0
    5.4641   -3.6550    0.0000 C   0  0  0  0  0  0  0  0  0  0  0  0
    3.7320   -0.6550    0.0000 C   0  0  0  0  0  0  0  0  0  0  0  0
    2.8660   -2.1550    0.0000 C   0  0  0  0  0  0  0  0  0  0  0  0
    2.8660   -0.1550    0.0000 C   0  0  0  0  0  0  0  0  0  0  0  0
    2.0000   -1.6550    0.0000 C   0  0  0  0  0  0  0  0  0  0  0  0
    2.0000   -0.6550    0.0000 C   0  0  0  0  0  0  0  0  0  0  0  0
    9.2573    0.5350    0.0000 H   0  0  0  0  0  0  0  0  0  0  0  0
    8.9282    0.7250    0.0000 H   0  0  0  0  0  0  0  0  0  0  0  0
    6.8671    0.5350    0.0000 H   0  0  0  0  0  0  0  0  0  0  0  0
    7.1962    0.7250    0.0000 H   0  0  0  0  0  0  0  0  0  0  0  0
    5.4641    0.7250    0.0000 H   0  0  0  0  0  0  0  0  0  0  0  0
   11.1496    0.3406    0.0000 H   0  0  0  0  0  0  0  0  0  0  0  0
   11.9478    0.3313    0.0000 H   0  0  0  0  0  0  0  0  0  0  0  0
    5.4641    2.9650    0.0000 H   0  0  0  0  0  0  0  0  0  0  0  0
    6.8671    3.1550    0.0000 H   0  0  0  0  0  0  0  0  0  0  0  0
   12.6693    0.7405    0.0000 H   0  0  0  0  0  0  0  0  0  0  0  0
   13.0711    1.4303    0.0000 H   0  0  0  0  0  0  0  0  0  0  0  0
   10.3312   -0.4650    0.0000 H   0  0  0  0  0  0  0  0  0  0  0  0
    9.7942    3.4650    0.0000 H   0  0  0  0  0  0  0  0  0  0  0  0
    6.9407    3.7373    0.0000 H   0  0  0  0  0  0  0  0  0  0  0  0
    6.5422    4.4276    0.0000 H   0  0  0  0  0  0  0  0  0  0  0  0
   11.1972    0.0350    0.0000 H   0  0  0  0  0  0  0  0  0  0  0  0
    4.0611    1.1550    0.0000 H   0  0  0  0  0  0  0  0  0  0  0  0
    4.0611    2.5350    0.0000 H   0  0  0  0  0  0  0  0  0  0  0  0
    8.3913   -0.3450    0.0000 H   0  0  0  0  0  0  0  0  0  0  0  0
    8.9282   -1.2750    0.0000 H   0  0  0  0  0  0  0  0  0  0  0  0
    5.4641    4.9650    0.0000 H   0  0  0  0  0  0  0  0  0  0  0  0
    4.0611   -3.4650    0.0000 H   0  0  0  0  0  0  0  0  0  0  0  0
    6.8671   -3.4650    0.0000 H   0  0  0  0  0  0  0  0  0  0  0  0
    4.2690   -0.3450    0.0000 H   0  0  0  0  0  0  0  0  0  0  0  0
    2.8660   -2.7750    0.0000 H   0  0  0  0  0  0  0  0  0  0  0  0
    7.7331   -1.9650    0.0000 H   0  0  0  0  0  0  0  0  0  0  0  0
    1.4631   -1.9650    0.0000 H   0  0  0  0  0  0  0  0  0  0  0  0
    4.9272   -4.9650    0.0000 H   0  0  0  0  0  0  0  0  0  0  0  0
    1.4631   -0.3450    0.0000 H   0  0  0  0  0  0  0  0  0  0  0  0
    2.3291    1.1550    0.0000 H   0  0  0  0  0  0  0  0  0  0  0  0
 17  1  1  6  0  0  0
 18  1  1  1  0  0  0
  2 18  1  0  0  0  0
  2 23  1  0  0  0  0
  3 17  1  0  0  0  0
  3 27  1  0  0  0  0
 15  4  1  6  0  0  0
  4 59  1  0  0  0  0
 19  5  1  6  0  0  0
  5 31  1  0  0  0  0
  6 25  1  0  0  0  0
  6 29  1  0  0  0  0
 20  7  1  1  0  0  0
  7 60  1  0  0  0  0
 22  8  1  6  0  0  0
  8 61  1  0  0  0  0
  9 28  1  0  0  0  0
  9 64  1  0  0  0  0
 10 29  2  0  0  0  0
 11 31  2  0  0  0  0
 12 34  1  0  0  0  0
 12 69  1  0  0  0  0
 13 38  1  0  0  0  0
 13 71  1  0  0  0  0
 14 41  1  0  0  0  0
 14 73  1  0  0  0  0
 15 16  1  0  0  0  0
 15 21  1  0  0  0  0
 15 24  1  0  0  0  0
 16 17  1  0  0  0  0
 16 26  1  1  0  0  0
 16 44  1  0  0  0  0
 17 45  1  0  0  0  0
 18 19  1  0  0  0  0
 18 47  1  0  0  0  0
 19 20  1  0  0  0  0
 19 46  1  0  0  0  0
 20 22  1  0  0  0  0
 20 48  1  0  0  0  0
 21 25  1  0  0  0  0
 21 49  1  0  0  0  0
 21 50  1  0  0  0  0
 22 23  1  0  0  0  0
 22 51  1  0  0  0  0
 23 28  1  1  0  0  0
 23 52  1  0  0  0  0
 24 27  2  0  0  0  0
 24 29  1  0  0  0  0
 25 53  1  0  0  0  0
 25 54  1  0  0  0  0
 26 30  2  0  0  0  0
 26 55  1  0  0  0  0
 27 56  1  0  0  0  0
 28 57  1  0  0  0  0
 28 58  1  0  0  0  0
 30 62  1  0  0  0  0
 30 63  1  0  0  0  0
 31 32  1  0  0  0  0
 32 33  2  0  0  0  0
 32 34  1  0  0  0  0
 33 35  1  0  0  0  0
 33 36  1  0  0  0  0
 34 37  2  0  0  0  0
 35 38  2  0  0  0  0
 35 65  1  0  0  0  0
 36 39  2  0  0  0  0
 36 40  1  0  0  0  0
 37 38  1  0  0  0  0
 37 66  1  0  0  0  0
 39 41  1  0  0  0  0
 39 67  1  0  0  0  0
 40 42  2  0  0  0  0
 40 68  1  0  0  0  0
 41 43  2  0  0  0  0
 42 43  1  0  0  0  0
 42 70  1  0  0  0  0
 43 72  1  0  0  0  0
M  END
> <PUBCHEM_COMPOUND_CID>
45359883

> <PUBCHEM_COMPOUND_CANONICALIZED>
1

> <PUBCHEM_CACTVS_COMPLEXITY>
1070

> <PUBCHEM_CACTVS_HBOND_ACCEPTOR>
14

> <PUBCHEM_CACTVS_HBOND_DONOR>
7

> <PUBCHEM_CACTVS_ROTATABLE_BOND>
8

> <PUBCHEM_CACTVS_SUBSKEYS>
AAADceB4PAAAAAAAAAAAAAAAAAAAAAAAAAA0aIECAAAAAACBQAAAGgAACAAADVSwmAMwDoAABgCIAiDSCAACCAAkIAAIiAEGCMgZNzaCNRqicUAl4BUPuYfI7PzOoAABCAAYAABAAAIQADAAAAAAAAAAAA==

> <PUBCHEM_IUPAC_OPENEYE_NAME>
[(2S,3R,4S,5S,6R)-2-[[(3S,4R,4aR)-4a-hydroxy-8-oxo-4-vinyl-3,4,5,6-tetrahydropyrano[3,4-c]pyran-3-yl]oxy]-4,5-dihydroxy-6-(hydroxymethyl)tetrahydropyran-3-yl] 2,4-dihydroxy-6-(3-hydroxyphenyl)benzoate

> <PUBCHEM_IUPAC_CAS_NAME>
2,4-dihydroxy-6-(3-hydroxyphenyl)benzoic acid [(2S,3R,4S,5S,6R)-2-[[(3S,4R,4aR)-4-ethenyl-4a-hydroxy-8-oxo-3,4,5,6-tetrahydropyrano[3,4-c]pyran-3-yl]oxy]-4,5-dihydroxy-6-(hydroxymethyl)-3-oxanyl] ester

> <PUBCHEM_IUPAC_NAME>
[(2S,3R,4S,5S,6R)-2-[[(3S,4R,4aR)-4-ethenyl-4a-hydroxy-8-oxo-3,4,5,6-tetrahydropyrano[3,4-c]pyran-3-yl]oxy]-4,5-dihydroxy-6-(hydroxymethyl)oxan-3-yl] 2,4-dihydroxy-6-(3-hydroxyphenyl)benzoate

> <PUBCHEM_IUPAC_SYSTEMATIC_NAME>
[(2S,3R,4S,5S,6R)-2-[[(3S,4R,4aR)-4-ethenyl-4a-oxidanyl-8-oxidanylidene-3,4,5,6-tetrahydropyrano[3,4-c]pyran-3-yl]oxy]-6-(hydroxymethyl)-4,5-bis(oxidanyl)oxan-3-yl] 2-(3-hydroxyphenyl)-4,6-bis(oxidanyl)benzoate

> <PUBCHEM_IUPAC_TRADITIONAL_NAME>
2,4-dihydroxy-6-(3-hydroxyphenyl)benzoic acid [(2S,3R,4S,5S,6R)-2-[[(3S,4R,4aR)-4a-hydroxy-8-keto-4-vinyl-3,4,5,6-tetrahydropyrano[3,4-c]pyran-3-yl]oxy]-4,5-dihydroxy-6-methylol-tetrahydropyran-3-yl] ester

> <PUBCHEM_IUPAC_INCHI>
InChI=1S/C29H30O14/c1-2-17-27(40-12-18-25(36)39-7-6-29(17,18)38)43-28-24(23(35)22(34)20(11-30)41-28)42-26(37)21-16(9-15(32)10-19(21)33)13-4-3-5-14(31)8-13/h2-5,8-10,12,17,20,22-24,27-28,30-35,38H,1,6-7,11H2/t17-,20+,22+,23-,24+,27-,28-,29+/m0/s1

> <PUBCHEM_IUPAC_INCHIKEY>
UZYZCCWBBBCDAD-WCYQFIIKSA-N

> <PUBCHEM_XLOGP3_AA>
1.3

> <PUBCHEM_EXACT_MASS>
602.163556

> <PUBCHEM_MOLECULAR_FORMULA>
C29H30O14

> <PUBCHEM_MOLECULAR_WEIGHT>
602.5401

> <PUBCHEM_OPENEYE_CAN_SMILES>
C=CC1C(OC=C2C1(CCOC2=O)O)OC3C(C(C(C(O3)CO)O)O)OC(=O)C4=C(C=C(C=C4C5=CC(=CC=C5)O)O)O

> <PUBCHEM_OPENEYE_ISO_SMILES>
C=C[C@H]1[C@@H](OC=C2[C@]1(CCOC2=O)O)O[C@H]3[C@@H]([C@H]([C@@H]([C@H](O3)CO)O)O)OC(=O)C4=C(C=C(C=C4C5=CC(=CC=C5)O)O)O

> <PUBCHEM_CACTVS_TPSA>
222

> <PUBCHEM_MONOISOTOPIC_WEIGHT>
602.163556

> <PUBCHEM_TOTAL_CHARGE>
0

> <PUBCHEM_HEAVY_ATOM_COUNT>
43

> <PUBCHEM_ATOM_DEF_STEREO_COUNT>
8

> <PUBCHEM_ATOM_UDEF_STEREO_COUNT>
0

> <PUBCHEM_BOND_DEF_STEREO_COUNT>
0

> <PUBCHEM_BOND_UDEF_STEREO_COUNT>
0

> <PUBCHEM_ISOTOPIC_ATOM_COUNT>
0

> <PUBCHEM_COMPONENT_COUNT>
1

> <PUBCHEM_CACTVS_TAUTO_COUNT>
36

> <PUBCHEM_COORDINATE_TYPE>
1
5
255

> <PUBCHEM_BONDANNOTATIONS>
17  1  6
18  1  5
16  26  5
23  28  5
32  33  8
32  34  8
33  35  8
34  37  8
35  38  8
36  39  8
36  40  8
37  38  8
39  41  8
15  4  6
40  42  8
41  43  8
42  43  8
19  5  6
20  7  5
22  8  6

$$$$

