   Color/Form
        Light-yellow crystalline soild
   from [1]HSDB

   Melting Point
        63 deg C
   from [2]HSDB

   Dissociation Constants
        pKa = 3.79 (amino) (est)
   from [3]HSDB

   Octanol/Water Partition Coefficient
        log Kow = 0.00 (est)
   from [4]HSDB

   Solubilities

     * Soluble in water and organic solvents
     * In water, 1.03X10+5 mg/L at 25 deg C (est)

   from [5]HSDB

   Vapor Pressure
        6.8X10-5 mm Hg at 25 deg C (est)
   from [6]HSDB

   Other Chemical/Physical Properties

     * Can be reduced to the secondary alcohol, probably also present in
       tobacco
     * Henry's Law constant = 8.29X10-14 atm-cu m/mol at 25 deg C (est)
     * Hydroxyl radical reaction rate constant = 1.76X10-11 cu
       cm/molec-sec at 25 deg C (est)

   from [7]HSDB

   Computed Properties
   Molecular Weight                  207.22912 [g/mol]
   Molecular Formula                 C[10]H[13]N[3]O[2]
   XLogP3-AA                         0.8
   H-Bond Donor                      0
   H-Bond Acceptor                   5
   Rotatable Bond Count              5
   Tautomer Count                    2
   Exact Mass                        207.100777
   MonoIsotopic Mass                 207.100777
   Topological Polar Surface Area    62.6
   Heavy Atom Count                  15
   Formal Charge                     0
   Complexity                        221
   Isotope Atom Count                0
   Defined Atom Stereocenter Count   0
   Undefined Atom Stereocenter Count 0
   Defined Bond Stereocenter Count   0
   Undefined Bond Stereocenter Count 0
   Covalently-Bonded Unit Count      1
   Feature 3D Acceptor Count         2
   Feature 3D Ring Count             1
   Effective Rotor Count             6
   Conformer Sampling RMSD           0.8
   CID Conformer Count               [8]233

References

   1. http://toxnet.nlm.nih.gov/cgi-bin/sis/search/r?dbs+hsdb:@term+@rn+@rel+64091-91-4
   2. http://toxnet.nlm.nih.gov/cgi-bin/sis/search/r?dbs+hsdb:@term+@rn+@rel+64091-91-4
   3. http://toxnet.nlm.nih.gov/cgi-bin/sis/search/r?dbs+hsdb:@term+@rn+@rel+64091-91-4
   4. http://toxnet.nlm.nih.gov/cgi-bin/sis/search/r?dbs+hsdb:@term+@rn+@rel+64091-91-4
   5. http://toxnet.nlm.nih.gov/cgi-bin/sis/search/r?dbs+hsdb:@term+@rn+@rel+64091-91-4
   6. http://toxnet.nlm.nih.gov/cgi-bin/sis/search/r?dbs+hsdb:@term+@rn+@rel+64091-91-4
   7. http://toxnet.nlm.nih.gov/cgi-bin/sis/search/r?dbs+hsdb:@term+@rn+@rel+64091-91-4
   8. http://pubchem.ncbi.nlm.nih.gov/vw3d/vw3d.cgi?cid=47289
