   Color/Form

     * MONOCLINIC PRISMS FROM WATER
     * WHITE POWDER OR CRYSTALS

   from [1]HSDB

   Boiling Point
        191 DEG C @ 17 MM HG; 287 DEG C @ 105 MM HG
   from [2]HSDB

   Melting Point
        127 DEG C
   from [3]HSDB

   Solubilities
        SOL IN HOT WATER & HOT ALCOHOL; SLIGHTLY SOL IN BENZENE; INSOL IN
   PETROLEUM ETHER
   from [4]HSDB

   Spectral Properties

     * MAX ABSORPTION (ALCOHOL): 280 NM SHOULDER (LOG E= 3.6) INDEX OF
       REFRACTION: 1.637; MAX ABSORPTION (ALCOHOL): 245 NM (LOG E= 1.1)
     * IR: 15451 (Sadtler Research Laboratories IR Grating Collection)
     * UV: 985 (Sadtler Research Laboratories Spectral Collection)
     * MASS: 136 (Aldermaston, Eight Peak Index of Mass Spectra, UK)

   from [5]HSDB

   Vapor Pressure
        LESS THAN 0.01 MM @ 20 DEG C
   from [6]HSDB

   Other Chemical/Physical Properties
        MASS: 820 (National Bureau of Standards EPA-NIH Mass Spectra Data
   Base, NSRDS-NBS-63) /2-Pyrazoline-5-one, 1-methyl-3-phenyl/
   from [7]HSDB

   Computed Properties
   Molecular Weight                  174.1992 [g/mol]
   Molecular Formula                 C[10]H[10]N[2]O
   XLogP3-AA                         1.3
   H-Bond Donor                      0
   H-Bond Acceptor                   2
   Rotatable Bond Count              1
   Tautomer Count                    3
   Exact Mass                        174.079313
   MonoIsotopic Mass                 174.079313
   Topological Polar Surface Area    32.7
   Heavy Atom Count                  13
   Formal Charge                     0
   Complexity                        241
   Isotope Atom Count                0
   Defined Atom Stereocenter Count   0
   Undefined Atom Stereocenter Count 0
   Defined Bond Stereocenter Count   0
   Undefined Bond Stereocenter Count 0
   Covalently-Bonded Unit Count      1
   Feature 3D Acceptor Count         2
   Feature 3D Ring Count             2
   Effective Rotor Count             1.4
   Conformer Sampling RMSD           0.4
   CID Conformer Count               [8]3

References

   1. http://toxnet.nlm.nih.gov/cgi-bin/sis/search/r?dbs+hsdb:@term+@rn+@rel+89-25-8
   2. http://toxnet.nlm.nih.gov/cgi-bin/sis/search/r?dbs+hsdb:@term+@rn+@rel+89-25-8
   3. http://toxnet.nlm.nih.gov/cgi-bin/sis/search/r?dbs+hsdb:@term+@rn+@rel+89-25-8
   4. http://toxnet.nlm.nih.gov/cgi-bin/sis/search/r?dbs+hsdb:@term+@rn+@rel+89-25-8
   5. http://toxnet.nlm.nih.gov/cgi-bin/sis/search/r?dbs+hsdb:@term+@rn+@rel+89-25-8
   6. http://toxnet.nlm.nih.gov/cgi-bin/sis/search/r?dbs+hsdb:@term+@rn+@rel+89-25-8
   7. http://toxnet.nlm.nih.gov/cgi-bin/sis/search/r?dbs+hsdb:@term+@rn+@rel+89-25-8
   8. http://pubchem.ncbi.nlm.nih.gov/vw3d/vw3d.cgi?cid=4021
