   Boiling Point
        230 DEG C @ 2 MM HG
   from [1]HSDB

   Spectral Properties

     * MAX ABSORPTION (ACID): 230 NM (A= 400, 1%, 1 CM); OTHER PEAKS AT
       265 & 272 NM
     * Intense mass spectral peaks: 105 m/z, 189 m/z, 285 m/z, 390 m/z

   from [2]HSDB

   Other Chemical/Physical Properties

     * HAS SLIGHT ODOR; TASTELESS; MELTS BETWEEN 217 & 224 DEG C
       /MECLIZINE HYDROCHLORIDE/
     * FREELY SOL IN CHLOROFORM, PYRIDINE; SLIGHLY SOL IN DIL ACIDS,
       ALCOHOL; PRACTICALLY INSOL IN WATER, ETHER /MECLIZINE
       DIHYDROCHLORIDE/
     * FREELY SOL IN METHYLACETAMIDE, PYRIDINE, CHLOROFORM,
       ACID-ALCOHOL-WATER MIXT /MECLIZINE HYDOCHLORIDE/
     * WHITE OR SLIGHTLY YELLOWISH, CRYSTALLINE POWDER /MECLIZINE
       HYDROCHLORIDE/

   from [3]HSDB

   Computed Properties
   Molecular Weight                  390.94828 [g/mol]
   Molecular Formula                 C[25]H[27]ClN[2]
   XLogP3-AA                         5.8
   H-Bond Donor                      0
   H-Bond Acceptor                   2
   Rotatable Bond Count              5
   Exact Mass                        390.186277
   MonoIsotopic Mass                 390.186277
   Topological Polar Surface Area    6.5
   Heavy Atom Count                  28
   Formal Charge                     0
   Complexity                        448
   Isotope Atom Count                0
   Defined Atom Stereocenter Count   0
   Undefined Atom Stereocenter Count 1
   Defined Bond Stereocenter Count   0
   Undefined Bond Stereocenter Count 0
   Covalently-Bonded Unit Count      1
   Feature 3D Cation Count           2
   Feature 3D Ring Count             4
   Effective Rotor Count             6.2
   Conformer Sampling RMSD           0.8
   CID Conformer Count               [4]91

References

   1. http://toxnet.nlm.nih.gov/cgi-bin/sis/search/r?dbs+hsdb:@term+@rn+@rel+569-65-3
   2. http://toxnet.nlm.nih.gov/cgi-bin/sis/search/r?dbs+hsdb:@term+@rn+@rel+569-65-3
   3. http://toxnet.nlm.nih.gov/cgi-bin/sis/search/r?dbs+hsdb:@term+@rn+@rel+569-65-3
   4. http://pubchem.ncbi.nlm.nih.gov/vw3d/vw3d.cgi?cid=4034
