55717
  -OEChem-07051212512D

 51 53  0     0  0  0  0  0  0999 V2000
    6.5519    1.4045    0.0000 O   0  0  0  0  0  0  0  0  0  0  0  0
    3.8968   -5.1833    0.0000 O   0  0  0  0  0  0  0  0  0  0  0  0
    7.3609    5.9923    0.0000 O   0  0  0  0  0  0  0  0  0  0  0  0
    3.5878   -6.1343    0.0000 N   0  0  0  0  0  0  0  0  0  0  0  0
    5.7429    5.9923    0.0000 N   0  0  0  0  0  0  0  0  0  0  0  0
    4.8198   -1.5955    0.0000 C   0  0  0  0  0  0  0  0  0  0  0  0
    3.9538   -2.0955    0.0000 C   0  0  0  0  0  0  0  0  0  0  0  0
    4.8198   -0.5955    0.0000 C   0  0  0  0  0  0  0  0  0  0  0  0
    3.9538   -3.0955    0.0000 C   0  0  0  0  0  0  0  0  0  0  0  0
    5.6859   -0.0955    0.0000 C   0  0  0  0  0  0  0  0  0  0  0  0
    3.0878   -3.5955    0.0000 C   0  0  0  0  0  0  0  0  0  0  0  0
    5.6859    0.9045    0.0000 C   0  0  0  0  0  0  0  0  0  0  0  0
    3.0878   -4.5955    0.0000 C   0  0  0  0  0  0  0  0  0  0  0  0
    2.2788   -5.1833    0.0000 C   0  0  0  0  0  0  0  0  0  0  0  0
    6.5519    2.4045    0.0000 C   0  0  0  0  0  0  0  0  0  0  0  0
    2.5878   -6.1343    0.0000 C   0  0  0  0  0  0  0  0  0  0  0  0
    6.5519    4.4045    0.0000 C   0  0  0  0  0  0  0  0  0  0  0  0
    7.4179    2.9045    0.0000 C   0  0  0  0  0  0  0  0  0  0  0  0
    5.6859    2.9045    0.0000 C   0  0  0  0  0  0  0  0  0  0  0  0
    6.5519    5.4045    0.0000 C   0  0  0  0  0  0  0  0  0  0  0  0
    7.4179    3.9045    0.0000 C   0  0  0  0  0  0  0  0  0  0  0  0
    5.6859    3.9045    0.0000 C   0  0  0  0  0  0  0  0  0  0  0  0
    7.0519    6.9434    0.0000 C   0  0  0  0  0  0  0  0  0  0  0  0
    6.0519    6.9434    0.0000 C   0  0  0  0  0  0  0  0  0  0  0  0
    2.0000   -6.9434    0.0000 C   0  0  0  0  0  0  0  0  0  0  0  0
    5.0319   -2.1781    0.0000 H   0  0  0  0  0  0  0  0  0  0  0  0
    5.4304   -1.4878    0.0000 H   0  0  0  0  0  0  0  0  0  0  0  0
    3.7418   -1.5129    0.0000 H   0  0  0  0  0  0  0  0  0  0  0  0
    3.3432   -2.2032    0.0000 H   0  0  0  0  0  0  0  0  0  0  0  0
    4.6078   -0.0129    0.0000 H   0  0  0  0  0  0  0  0  0  0  0  0
    4.2093   -0.7032    0.0000 H   0  0  0  0  0  0  0  0  0  0  0  0
    4.1659   -3.6781    0.0000 H   0  0  0  0  0  0  0  0  0  0  0  0
    4.5644   -2.9878    0.0000 H   0  0  0  0  0  0  0  0  0  0  0  0
    5.8979   -0.6781    0.0000 H   0  0  0  0  0  0  0  0  0  0  0  0
    6.2964    0.0122    0.0000 H   0  0  0  0  0  0  0  0  0  0  0  0
    2.8757   -3.0129    0.0000 H   0  0  0  0  0  0  0  0  0  0  0  0
    2.4772   -3.7032    0.0000 H   0  0  0  0  0  0  0  0  0  0  0  0
    5.4738    1.4871    0.0000 H   0  0  0  0  0  0  0  0  0  0  0  0
    5.0753    0.7968    0.0000 H   0  0  0  0  0  0  0  0  0  0  0  0
    1.6891   -4.9917    0.0000 H   0  0  0  0  0  0  0  0  0  0  0  0
    7.9548    2.5945    0.0000 H   0  0  0  0  0  0  0  0  0  0  0  0
    5.1489    2.5945    0.0000 H   0  0  0  0  0  0  0  0  0  0  0  0
    7.9548    4.2145    0.0000 H   0  0  0  0  0  0  0  0  0  0  0  0
    5.1489    4.2145    0.0000 H   0  0  0  0  0  0  0  0  0  0  0  0
    7.6583    7.0723    0.0000 H   0  0  0  0  0  0  0  0  0  0  0  0
    6.9871    7.5600    0.0000 H   0  0  0  0  0  0  0  0  0  0  0  0
    6.1167    7.5600    0.0000 H   0  0  0  0  0  0  0  0  0  0  0  0
    5.4454    7.0723    0.0000 H   0  0  0  0  0  0  0  0  0  0  0  0
    1.4984   -6.5789    0.0000 H   0  0  0  0  0  0  0  0  0  0  0  0
    1.6356   -7.4449    0.0000 H   0  0  0  0  0  0  0  0  0  0  0  0
    2.5016   -7.3078    0.0000 H   0  0  0  0  0  0  0  0  0  0  0  0
  1 12  1  0  0  0  0
  1 15  1  0  0  0  0
  2  4  1  0  0  0  0
  2 13  1  0  0  0  0
  3 20  1  0  0  0  0
  3 23  1  0  0  0  0
  4 16  2  0  0  0  0
  5 20  2  0  0  0  0
  5 24  1  0  0  0  0
  6  7  1  0  0  0  0
  6  8  1  0  0  0  0
  6 26  1  0  0  0  0
  6 27  1  0  0  0  0
  7  9  1  0  0  0  0
  7 28  1  0  0  0  0
  7 29  1  0  0  0  0
  8 10  1  0  0  0  0
  8 30  1  0  0  0  0
  8 31  1  0  0  0  0
  9 11  1  0  0  0  0
  9 32  1  0  0  0  0
  9 33  1  0  0  0  0
 10 12  1  0  0  0  0
 10 34  1  0  0  0  0
 10 35  1  0  0  0  0
 11 13  1  0  0  0  0
 11 36  1  0  0  0  0
 11 37  1  0  0  0  0
 12 38  1  0  0  0  0
 12 39  1  0  0  0  0
 13 14  2  0  0  0  0
 14 16  1  0  0  0  0
 14 40  1  0  0  0  0
 15 18  2  0  0  0  0
 15 19  1  0  0  0  0
 16 25  1  0  0  0  0
 17 20  1  0  0  0  0
 17 21  2  0  0  0  0
 17 22  1  0  0  0  0
 18 21  1  0  0  0  0
 18 41  1  0  0  0  0
 19 22  2  0  0  0  0
 19 42  1  0  0  0  0
 21 43  1  0  0  0  0
 22 44  1  0  0  0  0
 23 24  1  0  0  0  0
 23 45  1  0  0  0  0
 23 46  1  0  0  0  0
 24 47  1  0  0  0  0
 24 48  1  0  0  0  0
 25 49  1  0  0  0  0
 25 50  1  0  0  0  0
 25 51  1  0  0  0  0
M  END
> <PUBCHEM_COMPOUND_CID>
55717

> <PUBCHEM_COMPOUND_CANONICALIZED>
1

> <PUBCHEM_CACTVS_COMPLEXITY>
408

> <PUBCHEM_CACTVS_HBOND_ACCEPTOR>
5

> <PUBCHEM_CACTVS_HBOND_DONOR>
0

> <PUBCHEM_CACTVS_ROTATABLE_BOND>
10

> <PUBCHEM_CACTVS_SUBSKEYS>
AAADceB7MAAAAAAAAAAAAAAAAAAAAWIAAAAwAAAAAAAAAAABwAAAHgAEAAAADAzhngYyhpIQBACpA6RyRgCCCAAkIgAomCE2bNoOJrqEsZqDOaDmwBkI6UeY6KyOIAAAAAAAAABAAAAAAAAAAAAAAAAAAA==

> <PUBCHEM_IUPAC_OPENEYE_NAME>
5-[7-[4-(4,5-dihydrooxazol-2-yl)phenoxy]heptyl]-3-methyl-isoxazole

> <PUBCHEM_IUPAC_CAS_NAME>
5-[7-[4-(4,5-dihydrooxazol-2-yl)phenoxy]heptyl]-3-methylisoxazole

> <PUBCHEM_IUPAC_NAME>
5-[7-[4-(4,5-dihydro-1,3-oxazol-2-yl)phenoxy]heptyl]-3-methyl-1,2-oxazole

> <PUBCHEM_IUPAC_SYSTEMATIC_NAME>
5-[7-[4-(4,5-dihydro-1,3-oxazol-2-yl)phenoxy]heptyl]-3-methyl-1,2-oxazole

> <PUBCHEM_IUPAC_TRADITIONAL_NAME>
3-methyl-5-[7-[4-(2-oxazolin-2-yl)phenoxy]heptyl]isoxazole

> <PUBCHEM_IUPAC_INCHI>
InChI=1S/C20H26N2O3/c1-16-15-19(25-22-16)7-5-3-2-4-6-13-23-18-10-8-17(9-11-18)20-21-12-14-24-20/h8-11,15H,2-7,12-14H2,1H3

> <PUBCHEM_IUPAC_INCHIKEY>
FKLJPTJMIBLJAV-UHFFFAOYSA-N

> <PUBCHEM_XLOGP3_AA>
4.4

> <PUBCHEM_EXACT_MASS>
342.194343

> <PUBCHEM_MOLECULAR_FORMULA>
C20H26N2O3

> <PUBCHEM_MOLECULAR_WEIGHT>
342.43204

> <PUBCHEM_OPENEYE_CAN_SMILES>
CC1=NOC(=C1)CCCCCCCOC2=CC=C(C=C2)C3=NCCO3

> <PUBCHEM_OPENEYE_ISO_SMILES>
CC1=NOC(=C1)CCCCCCCOC2=CC=C(C=C2)C3=NCCO3

> <PUBCHEM_CACTVS_TPSA>
56.8

> <PUBCHEM_MONOISOTOPIC_WEIGHT>
342.194343

> <PUBCHEM_TOTAL_CHARGE>
0

> <PUBCHEM_HEAVY_ATOM_COUNT>
25

> <PUBCHEM_ATOM_DEF_STEREO_COUNT>
0

> <PUBCHEM_ATOM_UDEF_STEREO_COUNT>
0

> <PUBCHEM_BOND_DEF_STEREO_COUNT>
0

> <PUBCHEM_BOND_UDEF_STEREO_COUNT>
0

> <PUBCHEM_ISOTOPIC_ATOM_COUNT>
0

> <PUBCHEM_COMPONENT_COUNT>
1

> <PUBCHEM_CACTVS_TAUTO_COUNT>
1

> <PUBCHEM_COORDINATE_TYPE>
1
5
255

> <PUBCHEM_BONDANNOTATIONS>
13  14  8
14  16  8
15  18  8
15  19  8
17  21  8
17  22  8
18  21  8
19  22  8
2  13  8
2  4  8
4  16  8

$$$$

