   Color/Form
        Yellow crystals
   from [1]HSDB

   Melting Point
        98.0-99.0 deg C
   from [2]HSDB

   Corrosivity
        Non-corrosive, except to polyvinyl plastic tubing.
   from [3]HSDB

   Density/Specific Gravity
        1.5 g/cc at 25 deg C
   from [4]HSDB

   Dissociation Constants
        pKa = -7.18 (est)
   from [5]HSDB

   Octanol/Water Partition Coefficient
        log Kow = 4.30
   from [6]HSDB

   Solubilities

     * In acetone 1040, chloroform 670, benzene 473, xylene 227, ethanol
       107, hexane 14 (all in g/L at 20 deg C).
     * In water, 1.1 mg/L at 25 deg C

   from [7]HSDB

   Spectral Properties
        UV absorption band of 355-365 nm (in methanol)
   from [8]HSDB

   Vapor Pressure
        3.6X10-6 mm Hg at 25 deg C
   from [9]HSDB

   Other Chemical/Physical Properties

     * Henry's Law constant = 1.39X10-6 atm-cu m/mol at 25 deg C (est)
     * Hydroxyl radical reaction rate constant = 1.77X10-11 cu
       cm/molec-sec at 25 deg C (est)

   from [10]HSDB

   Computed Properties
   Molecular Weight                  322.24053 [g/mol]
   Molecular Formula                 C[11]H[13]F[3]N[4]O[4]
   XLogP3-AA                         3.2
   H-Bond Donor                      1
   H-Bond Acceptor                   9
   Rotatable Bond Count              3
   Exact Mass                        322.08889
   MonoIsotopic Mass                 322.08889
   Topological Polar Surface Area    121
   Heavy Atom Count                  22
   Formal Charge                     0
   Complexity                        419
   Isotope Atom Count                0
   Defined Atom Stereocenter Count   0
   Undefined Atom Stereocenter Count 0
   Defined Bond Stereocenter Count   0
   Undefined Bond Stereocenter Count 0
   Covalently-Bonded Unit Count      1
   Feature 3D Acceptor Count         4
   Feature 3D Donor Count            1
   Feature 3D Anion Count            2
   Feature 3D Cation Count           2
   Feature 3D Ring Count             1
   Effective Rotor Count             6
   Conformer Sampling RMSD           0.8
   CID Conformer Count               [11]1

References

   1. http://toxnet.nlm.nih.gov/cgi-bin/sis/search/r?dbs+hsdb:@term+@rn+@rel+29091-05-2
   2. http://toxnet.nlm.nih.gov/cgi-bin/sis/search/r?dbs+hsdb:@term+@rn+@rel+29091-05-2
   3. http://toxnet.nlm.nih.gov/cgi-bin/sis/search/r?dbs+hsdb:@term+@rn+@rel+29091-05-2
   4. http://toxnet.nlm.nih.gov/cgi-bin/sis/search/r?dbs+hsdb:@term+@rn+@rel+29091-05-2
   5. http://toxnet.nlm.nih.gov/cgi-bin/sis/search/r?dbs+hsdb:@term+@rn+@rel+29091-05-2
   6. http://toxnet.nlm.nih.gov/cgi-bin/sis/search/r?dbs+hsdb:@term+@rn+@rel+29091-05-2
   7. http://toxnet.nlm.nih.gov/cgi-bin/sis/search/r?dbs+hsdb:@term+@rn+@rel+29091-05-2
   8. http://toxnet.nlm.nih.gov/cgi-bin/sis/search/r?dbs+hsdb:@term+@rn+@rel+29091-05-2
   9. http://toxnet.nlm.nih.gov/cgi-bin/sis/search/r?dbs+hsdb:@term+@rn+@rel+29091-05-2
  10. http://toxnet.nlm.nih.gov/cgi-bin/sis/search/r?dbs+hsdb:@term+@rn+@rel+29091-05-2
  11. http://pubchem.ncbi.nlm.nih.gov/vw3d/vw3d.cgi?cid=34468
