441108
  -OEChem-07051212522D

 88 89  0     1  0  0  0  0  0999 V2000
    7.0000   -1.6051    0.0000 O   0  0  0  0  0  0  0  0  0  0  0  0
    8.5000   -0.7390    0.0000 O   0  0  0  0  0  0  0  0  0  0  0  0
    5.7340    1.6359    0.0000 O   0  0  0  0  0  0  0  0  0  0  0  0
    7.7071    2.5661    0.0000 O   0  0  0  0  0  0  0  0  0  0  0  0
    4.0000   -1.6051    0.0000 O   0  0  0  0  0  0  0  0  0  0  0  0
   10.3660   -2.9711    0.0000 O   0  0  0  0  0  0  0  0  0  0  0  0
   11.0000   -1.6051    0.0000 O   0  0  0  0  0  0  0  0  0  0  0  0
    2.5000    0.9930    0.0000 O   0  0  0  0  0  0  0  0  0  0  0  0
    5.5000    0.9930    0.0000 O   0  0  0  0  0  0  0  0  0  0  0  0
    5.5000   -2.4711    0.0000 O   0  0  0  0  0  0  0  0  0  0  0  0
    7.0000    0.1270    0.0000 C   0  0  2  0  0  0  0  0  0  0  0  0
    6.5000    0.9930    0.0000 C   0  0  2  0  0  0  0  0  0  0  0  0
    6.5000   -0.7390    0.0000 C   0  0  1  0  0  0  0  0  0  0  0  0
    7.0000    1.8590    0.0000 C   0  0  1  0  0  0  0  0  0  0  0  0
    6.5000    2.7251    0.0000 C   0  0  0  0  0  0  0  0  0  0  0  0
    5.5000   -0.7390    0.0000 C   0  0  2  0  0  0  0  0  0  0  0  0
    9.5000   -2.4711    0.0000 C   0  0  2  0  0  0  0  0  0  0  0  0
    8.0000   -1.6051    0.0000 C   0  0  2  0  0  0  0  0  0  0  0  0
    5.5000    2.7251    0.0000 C   0  0  2  0  0  0  0  0  0  0  0  0
    8.5000   -2.4711    0.0000 C   0  0  0  0  0  0  0  0  0  0  0  0
   10.0000   -1.6051    0.0000 C   0  0  2  0  0  0  0  0  0  0  0  0
    9.5000   -0.7390    0.0000 C   0  0  2  0  0  0  0  0  0  0  0  0
    8.0000    0.1270    0.0000 C   0  0  0  0  0  0  0  0  0  0  0  0
    4.0000    1.8590    0.0000 C   0  0  2  0  0  0  0  0  0  0  0  0
    4.0000    0.1270    0.0000 C   0  0  2  0  0  0  0  0  0  0  0  0
    3.5000    0.9930    0.0000 C   0  0  2  0  0  0  0  0  0  0  0  0
    7.9659    1.6002    0.0000 C   0  0  0  0  0  0  0  0  0  0  0  0
    5.0000    1.8590    0.0000 C   0  0  0  0  0  0  0  0  0  0  0  0
    3.5000   -0.7390    0.0000 C   0  0  1  0  0  0  0  0  0  0  0  0
    5.0000   -1.6051    0.0000 C   0  0  0  0  0  0  0  0  0  0  0  0
    5.0000    0.1270    0.0000 C   0  0  0  0  0  0  0  0  0  0  0  0
    9.5000   -3.4711    0.0000 C   0  0  0  0  0  0  0  0  0  0  0  0
    5.0000    3.5911    0.0000 C   0  0  0  0  0  0  0  0  0  0  0  0
   10.0000    0.1270    0.0000 C   0  0  0  0  0  0  0  0  0  0  0  0
    2.5000   -0.7390    0.0000 C   0  0  0  0  0  0  0  0  0  0  0  0
    3.5000    2.7251    0.0000 C   0  0  0  0  0  0  0  0  0  0  0  0
    4.5000   -0.7390    0.0000 C   0  0  0  0  0  0  0  0  0  0  0  0
    2.0000   -1.6051    0.0000 C   0  0  0  0  0  0  0  0  0  0  0  0
    7.3100   -0.4099    0.0000 H   0  0  0  0  0  0  0  0  0  0  0  0
    6.0250    0.5945    0.0000 H   0  0  0  0  0  0  0  0  0  0  0  0
    7.1200   -0.7390    0.0000 H   0  0  0  0  0  0  0  0  0  0  0  0
    7.0826    2.9371    0.0000 H   0  0  0  0  0  0  0  0  0  0  0  0
    6.3923    3.3356    0.0000 H   0  0  0  0  0  0  0  0  0  0  0  0
    4.8800   -0.7390    0.0000 H   0  0  0  0  0  0  0  0  0  0  0  0
    7.6900   -2.1420    0.0000 H   0  0  0  0  0  0  0  0  0  0  0  0
    4.8800    2.7251    0.0000 H   0  0  0  0  0  0  0  0  0  0  0  0
    7.9174   -2.6831    0.0000 H   0  0  0  0  0  0  0  0  0  0  0  0
    8.6077   -3.0817    0.0000 H   0  0  0  0  0  0  0  0  0  0  0  0
   10.3100   -2.1420    0.0000 H   0  0  0  0  0  0  0  0  0  0  0  0
    9.1900   -0.2021    0.0000 H   0  0  0  0  0  0  0  0  0  0  0  0
    8.0000   -0.4930    0.0000 H   0  0  0  0  0  0  0  0  0  0  0  0
    8.6200    0.1270    0.0000 H   0  0  0  0  0  0  0  0  0  0  0  0
    8.0000    0.7470    0.0000 H   0  0  0  0  0  0  0  0  0  0  0  0
    3.3800    1.8590    0.0000 H   0  0  0  0  0  0  0  0  0  0  0  0
    4.5369    0.4370    0.0000 H   0  0  0  0  0  0  0  0  0  0  0  0
    3.1900    1.5300    0.0000 H   0  0  0  0  0  0  0  0  0  0  0  0
    7.8055    1.0014    0.0000 H   0  0  0  0  0  0  0  0  0  0  0  0
    8.5648    1.4398    0.0000 H   0  0  0  0  0  0  0  0  0  0  0  0
    8.1264    2.1991    0.0000 H   0  0  0  0  0  0  0  0  0  0  0  0
    3.1900   -1.2760    0.0000 H   0  0  0  0  0  0  0  0  0  0  0  0
    5.5369    0.4370    0.0000 H   0  0  0  0  0  0  0  0  0  0  0  0
    4.6900    0.6639    0.0000 H   0  0  0  0  0  0  0  0  0  0  0  0
    4.4631   -0.1830    0.0000 H   0  0  0  0  0  0  0  0  0  0  0  0
    8.8800   -3.4711    0.0000 H   0  0  0  0  0  0  0  0  0  0  0  0
    9.5000   -4.0911    0.0000 H   0  0  0  0  0  0  0  0  0  0  0  0
   10.1200   -3.4711    0.0000 H   0  0  0  0  0  0  0  0  0  0  0  0
    5.5369    3.9011    0.0000 H   0  0  0  0  0  0  0  0  0  0  0  0
    4.6900    4.1280    0.0000 H   0  0  0  0  0  0  0  0  0  0  0  0
    4.4631    3.2811    0.0000 H   0  0  0  0  0  0  0  0  0  0  0  0
    6.1325    2.1108    0.0000 H   0  0  0  0  0  0  0  0  0  0  0  0
    7.5466    3.1650    0.0000 H   0  0  0  0  0  0  0  0  0  0  0  0
   10.5369   -0.1830    0.0000 H   0  0  0  0  0  0  0  0  0  0  0  0
   10.3100    0.6639    0.0000 H   0  0  0  0  0  0  0  0  0  0  0  0
    9.4631    0.4370    0.0000 H   0  0  0  0  0  0  0  0  0  0  0  0
    2.6077   -0.1285    0.0000 H   0  0  0  0  0  0  0  0  0  0  0  0
    1.9174   -0.5270    0.0000 H   0  0  0  0  0  0  0  0  0  0  0  0
    4.0369    3.0351    0.0000 H   0  0  0  0  0  0  0  0  0  0  0  0
    3.1900    3.2620    0.0000 H   0  0  0  0  0  0  0  0  0  0  0  0
    2.9631    2.4151    0.0000 H   0  0  0  0  0  0  0  0  0  0  0  0
    3.9631   -1.0490    0.0000 H   0  0  0  0  0  0  0  0  0  0  0  0
    4.8100   -1.2760    0.0000 H   0  0  0  0  0  0  0  0  0  0  0  0
    5.0369   -0.4290    0.0000 H   0  0  0  0  0  0  0  0  0  0  0  0
   10.3660   -3.5911    0.0000 H   0  0  0  0  0  0  0  0  0  0  0  0
   11.3100   -1.0681    0.0000 H   0  0  0  0  0  0  0  0  0  0  0  0
    2.1900    1.5300    0.0000 H   0  0  0  0  0  0  0  0  0  0  0  0
    1.4631   -1.2951    0.0000 H   0  0  0  0  0  0  0  0  0  0  0  0
    1.6900   -2.1420    0.0000 H   0  0  0  0  0  0  0  0  0  0  0  0
    2.5369   -1.9151    0.0000 H   0  0  0  0  0  0  0  0  0  0  0  0
 13  1  1  6  0  0  0
 18  1  1  6  0  0  0
  2 18  1  0  0  0  0
  2 22  1  0  0  0  0
 12  3  1  1  0  0  0
  3 70  1  0  0  0  0
 14  4  1  1  0  0  0
  4 71  1  0  0  0  0
  5 29  1  0  0  0  0
  5 30  1  0  0  0  0
 17  6  1  6  0  0  0
  6 83  1  0  0  0  0
 21  7  1  6  0  0  0
  7 84  1  0  0  0  0
 26  8  1  6  0  0  0
  8 85  1  0  0  0  0
  9 28  2  0  0  0  0
 10 30  2  0  0  0  0
 11 12  1  0  0  0  0
 11 13  1  0  0  0  0
 11 23  1  1  0  0  0
 11 39  1  0  0  0  0
 12 14  1  0  0  0  0
 12 40  1  0  0  0  0
 13 16  1  0  0  0  0
 13 41  1  0  0  0  0
 14 15  1  0  0  0  0
 14 27  1  0  0  0  0
 15 19  1  0  0  0  0
 15 42  1  0  0  0  0
 15 43  1  0  0  0  0
 16 30  1  0  0  0  0
 16 31  1  6  0  0  0
 16 44  1  0  0  0  0
 17 20  1  0  0  0  0
 17 21  1  0  0  0  0
 17 32  1  0  0  0  0
 18 20  1  0  0  0  0
 18 45  1  0  0  0  0
 19 28  1  0  0  0  0
 19 33  1  6  0  0  0
 19 46  1  0  0  0  0
 20 47  1  0  0  0  0
 20 48  1  0  0  0  0
 21 22  1  0  0  0  0
 21 49  1  0  0  0  0
 22 34  1  1  0  0  0
 22 50  1  0  0  0  0
 23 51  1  0  0  0  0
 23 52  1  0  0  0  0
 23 53  1  0  0  0  0
 24 26  1  0  0  0  0
 24 28  1  0  0  0  0
 24 36  1  1  0  0  0
 24 54  1  0  0  0  0
 25 26  1  0  0  0  0
 25 29  1  0  0  0  0
 25 37  1  1  0  0  0
 25 55  1  0  0  0  0
 26 56  1  0  0  0  0
 27 57  1  0  0  0  0
 27 58  1  0  0  0  0
 27 59  1  0  0  0  0
 29 35  1  6  0  0  0
 29 60  1  0  0  0  0
 31 61  1  0  0  0  0
 31 62  1  0  0  0  0
 31 63  1  0  0  0  0
 32 64  1  0  0  0  0
 32 65  1  0  0  0  0
 32 66  1  0  0  0  0
 33 67  1  0  0  0  0
 33 68  1  0  0  0  0
 33 69  1  0  0  0  0
 34 72  1  0  0  0  0
 34 73  1  0  0  0  0
 34 74  1  0  0  0  0
 35 38  1  0  0  0  0
 35 75  1  0  0  0  0
 35 76  1  0  0  0  0
 36 77  1  0  0  0  0
 36 78  1  0  0  0  0
 36 79  1  0  0  0  0
 37 80  1  0  0  0  0
 37 81  1  0  0  0  0
 37 82  1  0  0  0  0
 38 86  1  0  0  0  0
 38 87  1  0  0  0  0
 38 88  1  0  0  0  0
M  END
> <PUBCHEM_COMPOUND_CID>
441108

> <PUBCHEM_COMPOUND_CANONICALIZED>
1

> <PUBCHEM_CACTVS_COMPLEXITY>
822

> <PUBCHEM_CACTVS_HBOND_ACCEPTOR>
10

> <PUBCHEM_CACTVS_HBOND_DONOR>
5

> <PUBCHEM_CACTVS_ROTATABLE_BOND>
3

> <PUBCHEM_CACTVS_SUBSKEYS>
AAADcfB4PAAAAAAAAAAAAAAAAAAAAAAAAAAkAAAAAAAAAAAAAAAAGgAACAAADVSwgAMCCAAABgAIAICQCAAAAAAAAAAAAAEAAAAREBYAAAAiQAAFIAAHAAHK7PzOAAAAAAAAAAAAAAAAAAAAAAAAAAAAAA==

> <PUBCHEM_IUPAC_OPENEYE_NAME>
(3R,4S,5R,6R,7R,9R,11R,12S,13R,14R)-4-[(2R,4R,5S,6S)-4,5-dihydroxy-4,6-dimethyl-tetrahydropyran-2-yl]oxy-14-ethyl-6,7,12-trihydroxy-3,5,7,9,11,13-hexamethyl-oxacyclotetradecane-2,10-dione

> <PUBCHEM_IUPAC_CAS_NAME>
(3R,4S,5R,6R,7R,9R,11R,12S,13R,14R)-4-[[(2R,4R,5S,6S)-4,5-dihydroxy-4,6-dimethyl-2-oxanyl]oxy]-14-ethyl-6,7,12-trihydroxy-3,5,7,9,11,13-hexamethyl-oxacyclotetradecane-2,10-dione

> <PUBCHEM_IUPAC_NAME>
(3R,4S,5R,6R,7R,9R,11R,12S,13R,14R)-4-[(2R,4R,5S,6S)-4,5-dihydroxy-4,6-dimethyloxan-2-yl]oxy-14-ethyl-6,7,12-trihydroxy-3,5,7,9,11,13-hexamethyl-oxacyclotetradecane-2,10-dione

> <PUBCHEM_IUPAC_SYSTEMATIC_NAME>
(3R,4S,5R,6R,7R,9R,11R,12S,13R,14R)-4-[(2R,4R,5S,6S)-4,6-dimethyl-4,5-bis(oxidanyl)oxan-2-yl]oxy-14-ethyl-3,5,7,9,11,13-hexamethyl-6,7,12-tris(oxidanyl)-1-oxacyclotetradecane-2,10-dione

> <PUBCHEM_IUPAC_TRADITIONAL_NAME>
(3R,4S,5R,6R,7R,9R,11R,12S,13R,14R)-4-[(2R,4R,5S,6S)-4,5-dihydroxy-4,6-dimethyl-tetrahydropyran-2-yl]oxy-14-ethyl-6,7,12-trihydroxy-3,5,7,9,11,13-hexamethyl-oxacyclotetradecane-2,10-quinone

> <PUBCHEM_IUPAC_INCHI>
InChI=1S/C28H50O10/c1-10-19-14(3)22(30)15(4)21(29)13(2)11-27(8,34)24(31)16(5)23(17(6)26(33)37-19)38-20-12-28(9,35)25(32)18(7)36-20/h13-20,22-25,30-32,34-35H,10-12H2,1-9H3/t13-,14+,15+,16+,17-,18+,19-,20+,22+,23+,24-,25+,27-,28-/m1/s1

> <PUBCHEM_IUPAC_INCHIKEY>
WWWXDCNRNMZGEN-UPOWUTDQSA-N

> <PUBCHEM_XLOGP3_AA>
1.9

> <PUBCHEM_EXACT_MASS>
546.340398

> <PUBCHEM_MOLECULAR_FORMULA>
C28H50O10

> <PUBCHEM_MOLECULAR_WEIGHT>
546.6906

> <PUBCHEM_OPENEYE_CAN_SMILES>
CCC1C(C(C(C(=O)C(CC(C(C(C(C(C(=O)O1)C)OC2CC(C(C(O2)C)O)(C)O)C)O)(C)O)C)C)O)C

> <PUBCHEM_OPENEYE_ISO_SMILES>
CC[C@@H]1[C@@H]([C@@H]([C@H](C(=O)[C@@H](C[C@@]([C@@H]([C@H]([C@@H]([C@H](C(=O)O1)C)O[C@H]2C[C@@]([C@H]([C@@H](O2)C)O)(C)O)C)O)(C)O)C)C)O)C

> <PUBCHEM_CACTVS_TPSA>
163

> <PUBCHEM_MONOISOTOPIC_WEIGHT>
546.340398

> <PUBCHEM_TOTAL_CHARGE>
0

> <PUBCHEM_HEAVY_ATOM_COUNT>
38

> <PUBCHEM_ATOM_DEF_STEREO_COUNT>
14

> <PUBCHEM_ATOM_UDEF_STEREO_COUNT>
0

> <PUBCHEM_BOND_DEF_STEREO_COUNT>
0

> <PUBCHEM_BOND_UDEF_STEREO_COUNT>
0

> <PUBCHEM_ISOTOPIC_ATOM_COUNT>
0

> <PUBCHEM_COMPONENT_COUNT>
1

> <PUBCHEM_CACTVS_TAUTO_COUNT>
6

> <PUBCHEM_COORDINATE_TYPE>
1
5
255

> <PUBCHEM_BONDANNOTATIONS>
13  1  6
18  1  6
11  23  5
16  31  6
19  33  6
22  34  5
24  36  5
25  37  5
29  35  6
12  3  5
14  4  5
17  6  6
21  7  6
26  8  6

$$$$

