5633
  -OEChem-06261200472D

 92 97  0     1  0  0  0  0  0999 V2000
    7.1090   -3.3242    0.0000 S   0  0  0  0  0  0  0  0  0  0  0  0
    5.1703    2.4259    0.0000 S   0  0  0  0  0  0  0  0  0  0  0  0
    5.5525   -0.8814    0.0000 S   0  0  0  0  0  0  0  0  0  0  0  0
    6.2216   -0.1383    0.0000 S   0  0  0  0  0  0  0  0  0  0  0  0
    9.0091    1.9935    0.0000 O   0  0  0  0  0  0  0  0  0  0  0  0
    3.0772   -1.3030    0.0000 O   0  0  0  0  0  0  0  0  0  0  0  0
    7.1648    4.5918    0.0000 O   0  0  0  0  0  0  0  0  0  0  0  0
    2.8734   -3.7220    0.0000 O   0  0  0  0  0  0  0  0  0  0  0  0
    9.0418   -2.0713    0.0000 O   0  0  0  0  0  0  0  0  0  0  0  0
    2.0000    1.6444    0.0000 O   0  0  0  0  0  0  0  0  0  0  0  0
    4.7136   -3.8894    0.0000 N   0  0  0  0  0  0  0  0  0  0  0  0
    6.0058    3.3046    0.0000 N   0  0  0  0  0  0  0  0  0  0  0  0
    3.7585   -1.6939    0.0000 N   0  0  0  0  0  0  0  0  0  0  0  0
    7.3910    1.9935    0.0000 N   0  0  0  0  0  0  0  0  0  0  0  0
    8.5266   -0.4177    0.0000 N   0  0  0  0  0  0  0  0  0  0  0  0
    3.2872    0.4854    0.0000 N   0  0  0  0  0  0  0  0  0  0  0  0
    3.5949    3.1783    0.0000 N   0  0  0  0  0  0  0  0  0  0  0  0
    7.1323   -2.6662    0.0000 N   0  0  0  0  0  0  0  0  0  0  0  0
    4.2929   -2.5391    0.0000 C   0  0  3  0  0  0  0  0  0  0  0  0
    7.7000    2.9445    0.0000 C   0  0  3  0  0  0  0  0  0  0  0  0
    5.7128   -3.8491    0.0000 C   0  0  3  0  0  0  0  0  0  0  0  0
    5.2627    3.9738    0.0000 C   0  0  3  0  0  0  0  0  0  0  0  0
    3.3250   -2.2752    0.0000 C   0  0  3  0  0  0  0  0  0  0  0  0
    8.7000    2.9445    0.0000 C   0  0  3  0  0  0  0  0  0  0  0  0
    6.2472   -4.6944    0.0000 C   0  0  0  0  0  0  0  0  0  0  0  0
    5.2104    4.9724    0.0000 C   0  0  0  0  0  0  0  0  0  0  0  0
    4.3194    5.4264    0.0000 C   0  0  0  0  0  0  0  0  0  0  0  0
    5.7824   -5.5798    0.0000 C   0  0  0  0  0  0  0  0  0  0  0  0
    4.2653    0.2775    0.0000 C   0  0  3  0  0  0  0  0  0  0  0  0
    7.9921    0.4275    0.0000 C   0  0  3  0  0  0  0  0  0  0  0  0
    3.8005   -0.6079    0.0000 C   0  0  0  0  0  0  0  0  0  0  0  0
    8.2000    1.4057    0.0000 C   0  0  0  0  0  0  0  0  0  0  0  0
    6.9569    3.6136    0.0000 C   0  0  0  0  0  0  0  0  0  0  0  0
    3.8282   -3.4246    0.0000 C   0  0  0  0  0  0  0  0  0  0  0  0
    6.1776   -2.9637    0.0000 C   0  0  0  0  0  0  0  0  0  0  0  0
    4.5936    3.2306    0.0000 C   0  0  0  0  0  0  0  0  0  0  0  0
    9.2878    3.7535    0.0000 C   0  0  0  0  0  0  0  0  0  0  0  0
    2.6121   -2.9764    0.0000 C   0  0  0  0  0  0  0  0  0  0  0  0
    7.1998   -0.3462    0.0000 C   0  0  0  0  0  0  0  0  0  0  0  0
    4.5743   -0.6735    0.0000 C   0  0  0  0  0  0  0  0  0  0  0  0
    4.2670    6.4250    0.0000 C   0  0  0  0  0  0  0  0  0  0  0  0
    3.4807    4.8817    0.0000 C   0  0  0  0  0  0  0  0  0  0  0  0
    6.3169   -6.4250    0.0000 C   0  0  0  0  0  0  0  0  0  0  0  0
    4.7832   -5.6200    0.0000 C   0  0  0  0  0  0  0  0  0  0  0  0
    7.3521   -1.6907    0.0000 C   0  0  0  0  0  0  0  0  0  0  0  0
    3.6473    2.1796    0.0000 C   0  0  0  0  0  0  0  0  0  0  0  0
    2.9782    1.4365    0.0000 C   0  0  0  0  0  0  0  0  0  0  0  0
    8.3068   -1.3933    0.0000 C   0  0  0  0  0  0  0  0  0  0  0  0
    7.7862   -2.5902    0.0000 C   0  0  0  0  0  0  0  0  0  0  0  0
    4.5079    1.6902    0.0000 C   0  0  0  0  0  0  0  0  0  0  0  0
    4.9124   -2.5142    0.0000 H   0  0  0  0  0  0  0  0  0  0  0  0
    7.9222    3.5233    0.0000 H   0  0  0  0  0  0  0  0  0  0  0  0
    5.4246   -4.3981    0.0000 H   0  0  0  0  0  0  0  0  0  0  0  0
    5.8223    4.2407    0.0000 H   0  0  0  0  0  0  0  0  0  0  0  0
    9.3124    2.8475    0.0000 H   0  0  0  0  0  0  0  0  0  0  0  0
    2.7278   -2.1086    0.0000 H   0  0  0  0  0  0  0  0  0  0  0  0
    5.8258    4.8968    0.0000 H   0  0  0  0  0  0  0  0  0  0  0  0
    5.3916    5.5653    0.0000 H   0  0  0  0  0  0  0  0  0  0  0  0
    6.7378   -5.0735    0.0000 H   0  0  0  0  0  0  0  0  0  0  0  0
    6.7057   -4.2770    0.0000 H   0  0  0  0  0  0  0  0  0  0  0  0
    3.7669    5.7078    0.0000 H   0  0  0  0  0  0  0  0  0  0  0  0
    6.4019   -5.5549    0.0000 H   0  0  0  0  0  0  0  0  0  0  0  0
    8.6024    0.5368    0.0000 H   0  0  0  0  0  0  0  0  0  0  0  0
    4.6802    0.7383    0.0000 H   0  0  0  0  0  0  0  0  0  0  0  0
    4.5773   -4.4942    0.0000 H   0  0  0  0  0  0  0  0  0  0  0  0
    5.8769    2.6982    0.0000 H   0  0  0  0  0  0  0  0  0  0  0  0
    9.7894    3.3891    0.0000 H   0  0  0  0  0  0  0  0  0  0  0  0
    9.6523    4.2551    0.0000 H   0  0  0  0  0  0  0  0  0  0  0  0
    8.7862    4.1180    0.0000 H   0  0  0  0  0  0  0  0  0  0  0  0
    2.1774   -2.5344    0.0000 H   0  0  0  0  0  0  0  0  0  0  0  0
    2.1701   -3.4111    0.0000 H   0  0  0  0  0  0  0  0  0  0  0  0
    3.0468   -3.4184    0.0000 H   0  0  0  0  0  0  0  0  0  0  0  0
    6.9552   -0.9159    0.0000 H   0  0  0  0  0  0  0  0  0  0  0  0
    7.7110   -0.6970    0.0000 H   0  0  0  0  0  0  0  0  0  0  0  0
    3.9604   -0.7598    0.0000 H   0  0  0  0  0  0  0  0  0  0  0  0
    4.5527   -1.2932    0.0000 H   0  0  0  0  0  0  0  0  0  0  0  0
    4.7583   -5.0005    0.0000 H   0  0  0  0  0  0  0  0  0  0  0  0
    4.1637   -5.6449    0.0000 H   0  0  0  0  0  0  0  0  0  0  0  0
    4.8082   -6.2395    0.0000 H   0  0  0  0  0  0  0  0  0  0  0  0
    5.7928   -6.7564    0.0000 H   0  0  0  0  0  0  0  0  0  0  0  0
    6.6482   -6.9490    0.0000 H   0  0  0  0  0  0  0  0  0  0  0  0
    6.8409   -6.0937    0.0000 H   0  0  0  0  0  0  0  0  0  0  0  0
    3.1430    5.4017    0.0000 H   0  0  0  0  0  0  0  0  0  0  0  0
    2.9607    4.5441    0.0000 H   0  0  0  0  0  0  0  0  0  0  0  0
    3.8184    4.3618    0.0000 H   0  0  0  0  0  0  0  0  0  0  0  0
    4.8862    6.4574    0.0000 H   0  0  0  0  0  0  0  0  0  0  0  0
    4.2346    7.0442    0.0000 H   0  0  0  0  0  0  0  0  0  0  0  0
    3.6479    6.3926    0.0000 H   0  0  0  0  0  0  0  0  0  0  0  0
    2.8723    0.0247    0.0000 H   0  0  0  0  0  0  0  0  0  0  0  0
    9.1375   -0.3121    0.0000 H   0  0  0  0  0  0  0  0  0  0  0  0
    8.3995   -2.6814    0.0000 H   0  0  0  0  0  0  0  0  0  0  0  0
    4.6068    1.0781    0.0000 H   0  0  0  0  0  0  0  0  0  0  0  0
  1 35  1  0  0  0  0
  1 49  1  0  0  0  0
  2 36  1  0  0  0  0
  2 50  1  0  0  0  0
  3  4  1  0  0  0  0
  3 40  1  0  0  0  0
  4 39  1  0  0  0  0
  5 24  1  0  0  0  0
  5 32  1  0  0  0  0
  6 23  1  0  0  0  0
  6 31  1  0  0  0  0
  7 33  2  0  0  0  0
  8 34  2  0  0  0  0
  9 48  2  0  0  0  0
 10 47  2  0  0  0  0
 11 21  1  0  0  0  0
 11 34  1  0  0  0  0
 11 65  1  0  0  0  0
 12 22  1  0  0  0  0
 12 33  1  0  0  0  0
 12 66  1  0  0  0  0
 13 19  1  0  0  0  0
 13 31  2  0  0  0  0
 14 20  1  0  0  0  0
 14 32  2  0  0  0  0
 15 30  1  0  0  0  0
 15 48  1  0  0  0  0
 15 90  1  0  0  0  0
 16 29  1  0  0  0  0
 16 47  1  0  0  0  0
 16 89  1  0  0  0  0
 17 36  2  0  0  0  0
 17 46  1  0  0  0  0
 18 35  2  0  0  0  0
 18 45  1  0  0  0  0
 19 23  1  0  0  0  0
 19 34  1  0  0  0  0
 19 51  1  0  0  0  0
 20 24  1  0  0  0  0
 20 33  1  0  0  0  0
 20 52  1  0  0  0  0
 21 25  1  0  0  0  0
 21 35  1  0  0  0  0
 21 53  1  0  0  0  0
 22 26  1  0  0  0  0
 22 36  1  0  0  0  0
 22 54  1  0  0  0  0
 23 38  1  0  0  0  0
 23 56  1  0  0  0  0
 24 37  1  0  0  0  0
 24 55  1  0  0  0  0
 25 28  1  0  0  0  0
 25 59  1  0  0  0  0
 25 60  1  0  0  0  0
 26 27  1  0  0  0  0
 26 57  1  0  0  0  0
 26 58  1  0  0  0  0
 27 41  1  0  0  0  0
 27 42  1  0  0  0  0
 27 61  1  0  0  0  0
 28 43  1  0  0  0  0
 28 44  1  0  0  0  0
 28 62  1  0  0  0  0
 29 31  1  0  0  0  0
 29 40  1  0  0  0  0
 29 64  1  0  0  0  0
 30 32  1  0  0  0  0
 30 39  1  0  0  0  0
 30 63  1  0  0  0  0
 37 67  1  0  0  0  0
 37 68  1  0  0  0  0
 37 69  1  0  0  0  0
 38 70  1  0  0  0  0
 38 71  1  0  0  0  0
 38 72  1  0  0  0  0
 39 73  1  0  0  0  0
 39 74  1  0  0  0  0
 40 75  1  0  0  0  0
 40 76  1  0  0  0  0
 41 86  1  0  0  0  0
 41 87  1  0  0  0  0
 41 88  1  0  0  0  0
 42 83  1  0  0  0  0
 42 84  1  0  0  0  0
 42 85  1  0  0  0  0
 43 80  1  0  0  0  0
 43 81  1  0  0  0  0
 43 82  1  0  0  0  0
 44 77  1  0  0  0  0
 44 78  1  0  0  0  0
 44 79  1  0  0  0  0
 45 48  1  0  0  0  0
 45 49  2  0  0  0  0
 46 47  1  0  0  0  0
 46 50  2  0  0  0  0
 49 91  1  0  0  0  0
 50 92  1  0  0  0  0
M  END
> <PUBCHEM_COMPOUND_CID>
5633

> <PUBCHEM_COMPOUND_CANONICALIZED>
1

> <PUBCHEM_CACTVS_COMPLEXITY>
1270

> <PUBCHEM_CACTVS_HBOND_ACCEPTOR>
14

> <PUBCHEM_CACTVS_HBOND_DONOR>
4

> <PUBCHEM_CACTVS_ROTATABLE_BOND>
4

> <PUBCHEM_CACTVS_SUBSKEYS>
AAADcfB/+ABwAAAAAAAAAAAAAAAAAWLECAAAAAAAAAAAAAAB4AAAHgQQAAAADTzl1gaigRLIFAisAQVyVACA8KBHCjgAAJW4JEACQBYggCAXAAgCNgCwAIAQAAAMAAAAAAAAAAAAAAAAAAAAAAAAAAAAAA==

> <PUBCHEM_IUPAC_INCHI>
InChI=1S/C32H42N8O6S4/c1-13(2)7-17-31-37-19(9-47-31)25(41)35-22-12-50-49-11-21(29-39-23(15(5)45-29)27(43)33-17)36-26(42)20-10-48-32(38-20)18(8-14(3)4)34-28(44)24-16(6)46-30(22)40-24/h9-10,13-18,21-24H,7-8,11-12H2,1-6H3,(H,33,43)(H,34,44)(H,35,41)(H,36,42)

> <PUBCHEM_IUPAC_INCHIKEY>
FSUFGKVPTHSJKC-UHFFFAOYSA-N

> <PUBCHEM_XLOGP3_AA>
3.5

> <PUBCHEM_EXACT_MASS>
762.211015

> <PUBCHEM_MOLECULAR_FORMULA>
C32H42N8O6S4

> <PUBCHEM_MOLECULAR_WEIGHT>
762.98588

> <PUBCHEM_OPENEYE_CAN_SMILES>
CC1C2C(=O)NC(C3=NC(=CS3)C(=O)NC4CSSCC(C(=N2)O1)NC(=O)C5=CSC(=N5)C(NC(=O)C6C(OC4=N6)C)CC(C)C)CC(C)C

> <PUBCHEM_OPENEYE_ISO_SMILES>
CC1C2C(=O)NC(C3=NC(=CS3)C(=O)NC4CSSCC(C(=N2)O1)NC(=O)C5=CSC(=N5)C(NC(=O)C6C(OC4=N6)C)CC(C)C)CC(C)C

> <PUBCHEM_CACTVS_TPSA>
292

> <PUBCHEM_MONOISOTOPIC_WEIGHT>
762.211015

> <PUBCHEM_TOTAL_CHARGE>
0

> <PUBCHEM_HEAVY_ATOM_COUNT>
50

> <PUBCHEM_ATOM_DEF_STEREO_COUNT>
0

> <PUBCHEM_ATOM_UDEF_STEREO_COUNT>
8

> <PUBCHEM_BOND_DEF_STEREO_COUNT>
0

> <PUBCHEM_BOND_UDEF_STEREO_COUNT>
0

> <PUBCHEM_ISOTOPIC_ATOM_COUNT>
0

> <PUBCHEM_COMPONENT_COUNT>
1

> <PUBCHEM_CACTVS_TAUTO_COUNT>
10

> <PUBCHEM_COORDINATE_TYPE>
1
5
255

> <PUBCHEM_BONDANNOTATIONS>
1  35  8
1  49  8
17  36  8
17  46  8
18  35  8
18  45  8
19  34  3
2  36  8
2  50  8
20  33  3
21  25  3
22  26  3
23  38  3
24  37  3
29  40  3
30  39  3
45  49  8
46  50  8

$$$$

