47205741
  -OEChem-06241223002D

 33 35  0     0  0  0  0  0  0999 V2000
    2.0000   -0.4265    0.0000 F   0  0  0  0  0  0  0  0  0  0  0  0
    7.6279    1.4395    0.0000 O   0  0  0  0  0  0  0  0  0  0  0  0
    5.5443    1.3782    0.0000 N   0  0  0  0  0  0  0  0  0  0  0  0
    7.6279   -0.2925    0.0000 N   0  0  0  0  0  0  0  0  0  0  0  0
   10.1279   -1.1585    0.0000 N   0  0  0  0  0  0  0  0  0  0  0  0
   11.6667   -1.6585    0.0000 N   0  0  0  0  0  0  0  0  0  0  0  0
    8.6279   -0.2925    0.0000 C   0  0  0  0  0  0  0  0  0  0  0  0
    9.1279   -1.1585    0.0000 C   0  0  0  0  0  0  0  0  0  0  0  0
    6.1279    0.5735    0.0000 C   0  0  0  0  0  0  0  0  0  0  0  0
    4.5981    0.0735    0.0000 C   0  0  0  0  0  0  0  0  0  0  0  0
    4.5981    1.0735    0.0000 C   0  0  0  0  0  0  0  0  0  0  0  0
    5.5443   -0.2312    0.0000 C   0  0  0  0  0  0  0  0  0  0  0  0
    7.1279    0.5735    0.0000 C   0  0  0  0  0  0  0  0  0  0  0  0
    3.7320   -0.4265    0.0000 C   0  0  0  0  0  0  0  0  0  0  0  0
    3.7320    1.5735    0.0000 C   0  0  0  0  0  0  0  0  0  0  0  0
   10.7157   -0.3495    0.0000 C   0  0  0  0  0  0  0  0  0  0  0  0
    2.8660    0.0735    0.0000 C   0  0  0  0  0  0  0  0  0  0  0  0
    2.8660    1.0735    0.0000 C   0  0  0  0  0  0  0  0  0  0  0  0
   10.7157   -1.9676    0.0000 C   0  0  0  0  0  0  0  0  0  0  0  0
   11.6667   -0.6585    0.0000 C   0  0  0  0  0  0  0  0  0  0  0  0
    8.5453   -1.3706    0.0000 H   0  0  0  0  0  0  0  0  0  0  0  0
    9.2356   -1.7691    0.0000 H   0  0  0  0  0  0  0  0  0  0  0  0
    9.2105   -0.0805    0.0000 H   0  0  0  0  0  0  0  0  0  0  0  0
    8.5202    0.3181    0.0000 H   0  0  0  0  0  0  0  0  0  0  0  0
    5.7369   -0.8205    0.0000 H   0  0  0  0  0  0  0  0  0  0  0  0
    5.7369    1.9676    0.0000 H   0  0  0  0  0  0  0  0  0  0  0  0
    7.3179   -0.8295    0.0000 H   0  0  0  0  0  0  0  0  0  0  0  0
    3.7320   -1.0465    0.0000 H   0  0  0  0  0  0  0  0  0  0  0  0
    3.7320    2.1935    0.0000 H   0  0  0  0  0  0  0  0  0  0  0  0
   10.5241    0.2401    0.0000 H   0  0  0  0  0  0  0  0  0  0  0  0
    2.3291    1.3835    0.0000 H   0  0  0  0  0  0  0  0  0  0  0  0
   10.5241   -2.5572    0.0000 H   0  0  0  0  0  0  0  0  0  0  0  0
   12.1683   -0.2941    0.0000 H   0  0  0  0  0  0  0  0  0  0  0  0
  1 17  1  0  0  0  0
  2 13  2  0  0  0  0
  3  9  1  0  0  0  0
  3 11  1  0  0  0  0
  3 26  1  0  0  0  0
  4  7  1  0  0  0  0
  4 13  1  0  0  0  0
  4 27  1  0  0  0  0
  5  8  1  0  0  0  0
  5 16  1  0  0  0  0
  5 19  1  0  0  0  0
  6 19  2  0  0  0  0
  6 20  1  0  0  0  0
  7  8  1  0  0  0  0
  7 23  1  0  0  0  0
  7 24  1  0  0  0  0
  8 21  1  0  0  0  0
  8 22  1  0  0  0  0
  9 12  2  0  0  0  0
  9 13  1  0  0  0  0
 10 11  2  0  0  0  0
 10 12  1  0  0  0  0
 10 14  1  0  0  0  0
 11 15  1  0  0  0  0
 12 25  1  0  0  0  0
 14 17  2  0  0  0  0
 14 28  1  0  0  0  0
 15 18  2  0  0  0  0
 15 29  1  0  0  0  0
 16 20  2  0  0  0  0
 16 30  1  0  0  0  0
 17 18  1  0  0  0  0
 18 31  1  0  0  0  0
 19 32  1  0  0  0  0
 20 33  1  0  0  0  0
M  END
> <PUBCHEM_COMPOUND_CID>
47205741

> <PUBCHEM_COMPOUND_CANONICALIZED>
1

> <PUBCHEM_CACTVS_COMPLEXITY>
354

> <PUBCHEM_CACTVS_HBOND_ACCEPTOR>
3

> <PUBCHEM_CACTVS_HBOND_DONOR>
2

> <PUBCHEM_CACTVS_ROTATABLE_BOND>
4

> <PUBCHEM_CACTVS_SUBSKEYS>
AAADccBzoQAAAAAAAAAAAAAAAAAAAWLAAAAwAAAAAAAAAFgB/AAAHwAQAAAADAjBngw90PfNkACoAzV3dACCgC03EqAJ2aG4dNiIaPLAnbGUIQholgLIyacYiYCeAAAAAAACAAAAAAAAAAQAAAAAAAAAAA==

> <PUBCHEM_IUPAC_OPENEYE_NAME>
5-fluoro-N-(2-imidazol-1-ylethyl)-1H-indole-2-carboxamide

> <PUBCHEM_IUPAC_CAS_NAME>
5-fluoro-N-[2-(1-imidazolyl)ethyl]-1H-indole-2-carboxamide

> <PUBCHEM_IUPAC_NAME>
5-fluoro-N-(2-imidazol-1-ylethyl)-1H-indole-2-carboxamide

> <PUBCHEM_IUPAC_SYSTEMATIC_NAME>
5-fluoranyl-N-(2-imidazol-1-ylethyl)-1H-indole-2-carboxamide

> <PUBCHEM_IUPAC_TRADITIONAL_NAME>
5-fluoro-N-(2-imidazol-1-ylethyl)-1H-indole-2-carboxamide

> <PUBCHEM_IUPAC_INCHI>
InChI=1S/C14H13FN4O/c15-11-1-2-12-10(7-11)8-13(18-12)14(20)17-4-6-19-5-3-16-9-19/h1-3,5,7-9,18H,4,6H2,(H,17,20)

> <PUBCHEM_IUPAC_INCHIKEY>
QWJQQCQAYNEDGH-UHFFFAOYSA-N

> <PUBCHEM_XLOGP3_AA>
1.5

> <PUBCHEM_EXACT_MASS>
272.107339

> <PUBCHEM_MOLECULAR_FORMULA>
C14H13FN4O

> <PUBCHEM_MOLECULAR_WEIGHT>
272.277623

> <PUBCHEM_OPENEYE_CAN_SMILES>
C1=CC2=C(C=C1F)C=C(N2)C(=O)NCCN3C=CN=C3

> <PUBCHEM_OPENEYE_ISO_SMILES>
C1=CC2=C(C=C1F)C=C(N2)C(=O)NCCN3C=CN=C3

> <PUBCHEM_CACTVS_TPSA>
62.7

> <PUBCHEM_MONOISOTOPIC_WEIGHT>
272.107339

> <PUBCHEM_TOTAL_CHARGE>
0

> <PUBCHEM_HEAVY_ATOM_COUNT>
20

> <PUBCHEM_ATOM_DEF_STEREO_COUNT>
0

> <PUBCHEM_ATOM_UDEF_STEREO_COUNT>
0

> <PUBCHEM_BOND_DEF_STEREO_COUNT>
0

> <PUBCHEM_BOND_UDEF_STEREO_COUNT>
0

> <PUBCHEM_ISOTOPIC_ATOM_COUNT>
0

> <PUBCHEM_COMPONENT_COUNT>
1

> <PUBCHEM_CACTVS_TAUTO_COUNT>
9

> <PUBCHEM_COORDINATE_TYPE>
1
5
255

> <PUBCHEM_BONDANNOTATIONS>
10  11  8
10  12  8
10  14  8
11  15  8
14  17  8
15  18  8
16  20  8
17  18  8
3  11  8
3  9  8
5  16  8
5  19  8
6  19  8
6  20  8
9  12  8

$$$$

