439695
  -OEChem-07051212472D

 64 67  0     1  0  0  0  0  0999 V2000
    9.8781    0.8460    0.0000 P   0  0  3  0  0  0  0  0  0  0  0  0
   11.6010    1.0241    0.0000 P   0  0  3  0  0  0  0  0  0  0  0  0
    7.3435   -0.9184    0.0000 O   0  0  0  0  0  0  0  0  0  0  0  0
   13.2211    2.1969    0.0000 O   0  0  0  0  0  0  0  0  0  0  0  0
    4.8055   -0.4140    0.0000 O   0  0  0  0  0  0  0  0  0  0  0  0
    6.0873    1.3438    0.0000 O   0  0  0  0  0  0  0  0  0  0  0  0
    9.0681    0.2596    0.0000 O   0  0  0  0  0  0  0  0  0  0  0  0
   12.5138    0.6158    0.0000 O   0  0  0  0  0  0  0  0  0  0  0  0
   15.9596    0.9719    0.0000 O   0  0  0  0  0  0  0  0  0  0  0  0
   15.7540    2.9613    0.0000 O   0  0  0  0  0  0  0  0  0  0  0  0
   14.3395   -0.2009    0.0000 O   0  0  0  0  0  0  0  0  0  0  0  0
   10.6882    1.4324    0.0000 O   0  0  0  0  0  0  0  0  0  0  0  0
   14.7383    4.3643    0.0000 O   0  0  0  0  0  0  0  0  0  0  0  0
   10.4645    0.0360    0.0000 O   0  0  0  0  0  0  0  0  0  0  0  0
   12.0093    1.9369    0.0000 O   0  0  0  0  0  0  0  0  0  0  0  0
    9.2917    1.6561    0.0000 O   0  0  0  0  0  0  0  0  0  0  0  0
   11.1927    0.1113    0.0000 O   0  0  0  0  0  0  0  0  0  0  0  0
    4.2690   -4.9810    0.0000 O   0  0  0  0  0  0  0  0  0  0  0  0
    6.0812   -2.1763    0.0000 N   0  0  0  0  0  0  0  0  0  0  0  0
    4.2690   -1.9810    0.0000 N   0  0  0  0  0  0  0  0  0  0  0  0
    6.0812   -3.7858    0.0000 N   0  0  0  0  0  0  0  0  0  0  0  0
    3.4030   -3.4810    0.0000 N   0  0  0  0  0  0  0  0  0  0  0  0
    2.5369   -1.9810    0.0000 N   0  0  0  0  0  0  0  0  0  0  0  0
    5.8055   -0.4158    0.0000 C   0  0  2  0  0  0  0  0  0  0  0  0
    6.3947    0.3922    0.0000 C   0  0  1  0  0  0  0  0  0  0  0  0
    6.3919   -1.2258    0.0000 C   0  0  1  0  0  0  0  0  0  0  0  0
    7.3452    0.0816    0.0000 C   0  0  1  0  0  0  0  0  0  0  0  0
   15.0467    1.3802    0.0000 C   0  0  2  0  0  0  0  0  0  0  0  0
   14.9439    2.3749    0.0000 C   0  0  1  0  0  0  0  0  0  0  0  0
   14.2367    0.7938    0.0000 C   0  0  1  0  0  0  0  0  0  0  0  0
   14.0311    2.7832    0.0000 C   0  0  2  0  0  0  0  0  0  0  0  0
    8.1552    0.6680    0.0000 C   0  0  0  0  0  0  0  0  0  0  0  0
   13.3239    1.2022    0.0000 C   0  0  2  0  0  0  0  0  0  0  0  0
    5.1350   -2.4811    0.0000 C   0  0  0  0  0  0  0  0  0  0  0  0
   13.9283    3.7780    0.0000 C   0  0  0  0  0  0  0  0  0  0  0  0
    6.6648   -2.9811    0.0000 C   0  0  0  0  0  0  0  0  0  0  0  0
    5.1350   -3.4810    0.0000 C   0  0  0  0  0  0  0  0  0  0  0  0
    4.2690   -3.9810    0.0000 C   0  0  0  0  0  0  0  0  0  0  0  0
    3.4030   -2.4811    0.0000 C   0  0  0  0  0  0  0  0  0  0  0  0
    5.5250    0.1371    0.0000 H   0  0  0  0  0  0  0  0  0  0  0  0
    5.7825    0.4903    0.0000 H   0  0  0  0  0  0  0  0  0  0  0  0
    5.7794   -1.3217    0.0000 H   0  0  0  0  0  0  0  0  0  0  0  0
    7.8972   -0.2009    0.0000 H   0  0  0  0  0  0  0  0  0  0  0  0
   15.1105    0.7635    0.0000 H   0  0  0  0  0  0  0  0  0  0  0  0
   15.5099    2.1218    0.0000 H   0  0  0  0  0  0  0  0  0  0  0  0
   13.7345    0.4303    0.0000 H   0  0  0  0  0  0  0  0  0  0  0  0
   13.4651    3.0364    0.0000 H   0  0  0  0  0  0  0  0  0  0  0  0
    8.5028    1.1814    0.0000 H   0  0  0  0  0  0  0  0  0  0  0  0
    7.7100    1.0994    0.0000 H   0  0  0  0  0  0  0  0  0  0  0  0
   12.7579    1.4553    0.0000 H   0  0  0  0  0  0  0  0  0  0  0  0
   13.6575    4.3357    0.0000 H   0  0  0  0  0  0  0  0  0  0  0  0
   13.3320    3.6081    0.0000 H   0  0  0  0  0  0  0  0  0  0  0  0
    4.4964    0.1234    0.0000 H   0  0  0  0  0  0  0  0  0  0  0  0
    6.5030    1.8039    0.0000 H   0  0  0  0  0  0  0  0  0  0  0  0
    7.2848   -2.9811    0.0000 H   0  0  0  0  0  0  0  0  0  0  0  0
   16.4618    1.3355    0.0000 H   0  0  0  0  0  0  0  0  0  0  0  0
   16.3199    2.7082    0.0000 H   0  0  0  0  0  0  0  0  0  0  0  0
   14.9055   -0.4540    0.0000 H   0  0  0  0  0  0  0  0  0  0  0  0
    4.2690   -1.3611    0.0000 H   0  0  0  0  0  0  0  0  0  0  0  0
   14.6746    4.9810    0.0000 H   0  0  0  0  0  0  0  0  0  0  0  0
   10.2113   -0.5300    0.0000 H   0  0  0  0  0  0  0  0  0  0  0  0
   11.6458    2.4392    0.0000 H   0  0  0  0  0  0  0  0  0  0  0  0
    2.0000   -2.2910    0.0000 H   0  0  0  0  0  0  0  0  0  0  0  0
    2.5369   -1.3611    0.0000 H   0  0  0  0  0  0  0  0  0  0  0  0
  1  7  1  0  0  0  0
  1 12  1  0  0  0  0
  1 14  1  0  0  0  0
  1 16  2  0  0  0  0
  2  8  1  0  0  0  0
  2 12  1  0  0  0  0
  2 15  1  0  0  0  0
  2 17  2  0  0  0  0
  3 26  1  0  0  0  0
  3 27  1  0  0  0  0
  4 31  1  0  0  0  0
  4 33  1  0  0  0  0
 24  5  1  6  0  0  0
  5 53  1  0  0  0  0
 25  6  1  6  0  0  0
  6 54  1  0  0  0  0
  7 32  1  0  0  0  0
 33  8  1  1  0  0  0
 28  9  1  1  0  0  0
  9 56  1  0  0  0  0
 29 10  1  1  0  0  0
 10 57  1  0  0  0  0
 30 11  1  6  0  0  0
 11 58  1  0  0  0  0
 13 35  1  0  0  0  0
 13 60  1  0  0  0  0
 14 61  1  0  0  0  0
 15 62  1  0  0  0  0
 18 38  2  0  0  0  0
 26 19  1  1  0  0  0
 19 34  1  0  0  0  0
 19 36  1  0  0  0  0
 20 34  1  0  0  0  0
 20 39  1  0  0  0  0
 20 59  1  0  0  0  0
 21 36  2  0  0  0  0
 21 37  1  0  0  0  0
 22 38  1  0  0  0  0
 22 39  2  0  0  0  0
 23 39  1  0  0  0  0
 23 63  1  0  0  0  0
 23 64  1  0  0  0  0
 24 25  1  0  0  0  0
 24 26  1  0  0  0  0
 24 40  1  0  0  0  0
 25 27  1  0  0  0  0
 25 41  1  0  0  0  0
 26 42  1  0  0  0  0
 27 32  1  1  0  0  0
 27 43  1  0  0  0  0
 28 29  1  0  0  0  0
 28 30  1  0  0  0  0
 28 44  1  0  0  0  0
 29 31  1  0  0  0  0
 29 45  1  0  0  0  0
 30 33  1  0  0  0  0
 30 46  1  0  0  0  0
 31 35  1  1  0  0  0
 31 47  1  0  0  0  0
 32 48  1  0  0  0  0
 32 49  1  0  0  0  0
 33 50  1  0  0  0  0
 34 37  2  0  0  0  0
 35 51  1  0  0  0  0
 35 52  1  0  0  0  0
 36 55  1  0  0  0  0
 37 38  1  0  0  0  0
M  END
> <PUBCHEM_COMPOUND_CID>
439695

> <PUBCHEM_COMPOUND_CANONICALIZED>
1

> <PUBCHEM_CACTVS_COMPLEXITY>
1050

> <PUBCHEM_CACTVS_HBOND_ACCEPTOR>
17

> <PUBCHEM_CACTVS_HBOND_DONOR>
10

> <PUBCHEM_CACTVS_ROTATABLE_BOND>
9

> <PUBCHEM_CACTVS_SUBSKEYS>
AAADceB7vgMAAAAAAAAAAAAAAAAAAWJAAAAkQAAAAAAAAEABgAAAHgAQCCAACBzxlgcFuBfMFxCoQQdxdICAgC0XEKABUAGoVECTWApAyCAeQIAPAALXAGHwcAYAAAAAAAAAAAAAAAAAAAAAAAAAAAAAAA==

> <PUBCHEM_IUPAC_OPENEYE_NAME>
[[(2R,3S,4R,5R)-5-(2-amino-6-oxo-3H-purin-9-yl)-3,4-dihydroxy-tetrahydrofuran-2-yl]methoxy-hydroxy-phosphoryl] [(2R,3S,4R,5S,6S)-3,4,5-trihydroxy-6-(hydroxymethyl)tetrahydropyran-2-yl] hydrogen phosphate

> <PUBCHEM_IUPAC_CAS_NAME>
[[(2R,3S,4R,5R)-5-(2-amino-6-oxo-3H-purin-9-yl)-3,4-dihydroxy-2-oxolanyl]methoxy-hydroxyphosphoryl] [(2R,3S,4R,5S,6S)-3,4,5-trihydroxy-6-(hydroxymethyl)-2-oxanyl] hydrogen phosphate

> <PUBCHEM_IUPAC_NAME>
[[(2R,3S,4R,5R)-5-(2-amino-6-oxo-3H-purin-9-yl)-3,4-dihydroxyoxolan-2-yl]methoxy-hydroxyphosphoryl] [(2R,3S,4R,5S,6S)-3,4,5-trihydroxy-6-(hydroxymethyl)oxan-2-yl] hydrogen phosphate

> <PUBCHEM_IUPAC_SYSTEMATIC_NAME>
[[(2R,3S,4R,5R)-5-(2-azanyl-6-oxidanylidene-3H-purin-9-yl)-3,4-bis(oxidanyl)oxolan-2-yl]methoxy-oxidanyl-phosphoryl] [(2R,3S,4R,5S,6S)-6-(hydroxymethyl)-3,4,5-tris(oxidanyl)oxan-2-yl] hydrogen phosphate

> <PUBCHEM_IUPAC_TRADITIONAL_NAME>
[[(2R,3S,4R,5R)-5-(2-amino-6-keto-3H-purin-9-yl)-3,4-dihydroxy-tetrahydrofuran-2-yl]methoxy-hydroxy-phosphoryl] [(2R,3S,4R,5S,6S)-3,4,5-trihydroxy-6-methylol-tetrahydropyran-2-yl] hydrogen phosphate

> <PUBCHEM_IUPAC_INCHI>
InChI=1S/C16H25N5O16P2/c17-16-19-12-6(13(28)20-16)18-3-21(12)14-10(26)8(24)5(34-14)2-33-38(29,30)37-39(31,32)36-15-11(27)9(25)7(23)4(1-22)35-15/h3-5,7-11,14-15,22-27H,1-2H2,(H,29,30)(H,31,32)(H3,17,19,20,28)/t4-,5+,7+,8+,9+,10+,11-,14+,15+/m0/s1

> <PUBCHEM_IUPAC_INCHIKEY>
MVMSCBBUIHUTGJ-JGQUBWHWSA-N

> <PUBCHEM_XLOGP3_AA>
-7.1

> <PUBCHEM_EXACT_MASS>
605.077153

> <PUBCHEM_MOLECULAR_FORMULA>
C16H25N5O16P2

> <PUBCHEM_MOLECULAR_WEIGHT>
605.341124

> <PUBCHEM_OPENEYE_CAN_SMILES>
C1=NC2=C(N1C3C(C(C(O3)COP(=O)(O)OP(=O)(O)OC4C(C(C(C(O4)CO)O)O)O)O)O)NC(=NC2=O)N

> <PUBCHEM_OPENEYE_ISO_SMILES>
C1=NC2=C(N1[C@H]3[C@@H]([C@@H]([C@H](O3)COP(=O)(O)OP(=O)(O)O[C@@H]4[C@H]([C@@H]([C@@H]([C@@H](O4)CO)O)O)O)O)O)NC(=NC2=O)N

> <PUBCHEM_CACTVS_TPSA>
327

> <PUBCHEM_MONOISOTOPIC_WEIGHT>
605.077153

> <PUBCHEM_TOTAL_CHARGE>
0

> <PUBCHEM_HEAVY_ATOM_COUNT>
39

> <PUBCHEM_ATOM_DEF_STEREO_COUNT>
9

> <PUBCHEM_ATOM_UDEF_STEREO_COUNT>
0

> <PUBCHEM_BOND_DEF_STEREO_COUNT>
0

> <PUBCHEM_BOND_UDEF_STEREO_COUNT>
0

> <PUBCHEM_ISOTOPIC_ATOM_COUNT>
0

> <PUBCHEM_COMPONENT_COUNT>
1

> <PUBCHEM_CACTVS_TAUTO_COUNT>
9

> <PUBCHEM_COORDINATE_TYPE>
1
5
255

> <PUBCHEM_BONDANNOTATIONS>
29  10  5
30  11  6
26  19  5
19  34  8
19  36  8
20  34  8
20  39  8
21  36  8
21  37  8
22  38  8
22  39  8
27  32  5
31  35  5
34  37  8
37  38  8
24  5  6
25  6  6
33  8  5
28  9  5

$$$$

