5282277
  -OEChem-07051213042D

 53 53  0     1  0  0  0  0  0999 V2000
    6.5010    3.2430    0.0000 O   0  0  0  0  0  0  0  0  0  0  0  0
   10.3312   -1.1230    0.0000 O   0  0  0  0  0  0  0  0  0  0  0  0
    9.4651    0.3770    0.0000 O   0  0  0  0  0  0  0  0  0  0  0  0
    7.0010    2.3770    0.0000 C   0  0  2  0  0  0  0  0  0  0  0  0
    6.0010    2.3770    0.0000 C   0  0  1  0  0  0  0  0  0  0  0  0
    7.8671    1.8770    0.0000 C   0  0  0  0  0  0  0  0  0  0  0  0
    5.1350    1.8770    0.0000 C   0  0  0  0  0  0  0  0  0  0  0  0
    8.7331    2.3770    0.0000 C   0  0  0  0  0  0  0  0  0  0  0  0
    4.2690    2.3770    0.0000 C   0  0  0  0  0  0  0  0  0  0  0  0
    3.4030    1.8770    0.0000 C   0  0  0  0  0  0  0  0  0  0  0  0
    3.4030    0.8770    0.0000 C   0  0  0  0  0  0  0  0  0  0  0  0
    2.5369    0.3770    0.0000 C   0  0  0  0  0  0  0  0  0  0  0  0
    2.5369   -0.6230    0.0000 C   0  0  0  0  0  0  0  0  0  0  0  0
    7.7331   -0.6230    0.0000 C   0  0  0  0  0  0  0  0  0  0  0  0
    6.8671   -1.1230    0.0000 C   0  0  0  0  0  0  0  0  0  0  0  0
    3.4030   -1.1230    0.0000 C   0  0  0  0  0  0  0  0  0  0  0  0
    8.5991   -1.1230    0.0000 C   0  0  0  0  0  0  0  0  0  0  0  0
    6.8671   -2.1230    0.0000 C   0  0  0  0  0  0  0  0  0  0  0  0
    5.1350   -2.1230    0.0000 C   0  0  0  0  0  0  0  0  0  0  0  0
    3.4030   -2.1230    0.0000 C   0  0  0  0  0  0  0  0  0  0  0  0
    6.0010   -2.6230    0.0000 C   0  0  0  0  0  0  0  0  0  0  0  0
    4.2690   -2.6230    0.0000 C   0  0  0  0  0  0  0  0  0  0  0  0
    9.4651   -0.6230    0.0000 C   0  0  0  0  0  0  0  0  0  0  0  0
    7.4394    2.8154    0.0000 H   0  0  0  0  0  0  0  0  0  0  0  0
    5.5626    2.8154    0.0000 H   0  0  0  0  0  0  0  0  0  0  0  0
    7.4685    1.4020    0.0000 H   0  0  0  0  0  0  0  0  0  0  0  0
    8.2656    1.4020    0.0000 H   0  0  0  0  0  0  0  0  0  0  0  0
    4.7365    1.4020    0.0000 H   0  0  0  0  0  0  0  0  0  0  0  0
    5.5335    1.4020    0.0000 H   0  0  0  0  0  0  0  0  0  0  0  0
    9.0431    1.8400    0.0000 H   0  0  0  0  0  0  0  0  0  0  0  0
    9.2700    2.6870    0.0000 H   0  0  0  0  0  0  0  0  0  0  0  0
    8.4231    2.9139    0.0000 H   0  0  0  0  0  0  0  0  0  0  0  0
    4.2690    2.9970    0.0000 H   0  0  0  0  0  0  0  0  0  0  0  0
    2.8660    2.1870    0.0000 H   0  0  0  0  0  0  0  0  0  0  0  0
    3.6150    0.2944    0.0000 H   0  0  0  0  0  0  0  0  0  0  0  0
    4.0135    0.9846    0.0000 H   0  0  0  0  0  0  0  0  0  0  0  0
    2.0000    0.6870    0.0000 H   0  0  0  0  0  0  0  0  0  0  0  0
    2.0000   -0.9330    0.0000 H   0  0  0  0  0  0  0  0  0  0  0  0
    8.1316   -0.1481    0.0000 H   0  0  0  0  0  0  0  0  0  0  0  0
    7.3346   -0.1481    0.0000 H   0  0  0  0  0  0  0  0  0  0  0  0
    6.6550   -0.5404    0.0000 H   0  0  0  0  0  0  0  0  0  0  0  0
    6.2565   -1.2307    0.0000 H   0  0  0  0  0  0  0  0  0  0  0  0
    4.0135   -1.2307    0.0000 H   0  0  0  0  0  0  0  0  0  0  0  0
    3.6150   -0.5404    0.0000 H   0  0  0  0  0  0  0  0  0  0  0  0
    8.2006   -1.5980    0.0000 H   0  0  0  0  0  0  0  0  0  0  0  0
    8.9976   -1.5980    0.0000 H   0  0  0  0  0  0  0  0  0  0  0  0
    7.4040   -2.4330    0.0000 H   0  0  0  0  0  0  0  0  0  0  0  0
    5.5335   -1.6481    0.0000 H   0  0  0  0  0  0  0  0  0  0  0  0
    4.7365   -1.6481    0.0000 H   0  0  0  0  0  0  0  0  0  0  0  0
    2.8660   -2.4330    0.0000 H   0  0  0  0  0  0  0  0  0  0  0  0
    6.0010   -3.2430    0.0000 H   0  0  0  0  0  0  0  0  0  0  0  0
    4.2690   -3.2430    0.0000 H   0  0  0  0  0  0  0  0  0  0  0  0
   10.8681   -0.8130    0.0000 H   0  0  0  0  0  0  0  0  0  0  0  0
  1  4  1  0  0  0  0
  1  5  1  0  0  0  0
  2 23  1  0  0  0  0
  2 53  1  0  0  0  0
  3 23  2  0  0  0  0
  4  5  1  0  0  0  0
  4  6  1  1  0  0  0
  4 24  1  0  0  0  0
  5  7  1  1  0  0  0
  5 25  1  0  0  0  0
  6  8  1  0  0  0  0
  6 26  1  0  0  0  0
  6 27  1  0  0  0  0
  7  9  1  0  0  0  0
  7 28  1  0  0  0  0
  7 29  1  0  0  0  0
  8 30  1  0  0  0  0
  8 31  1  0  0  0  0
  8 32  1  0  0  0  0
  9 10  2  0  0  0  0
  9 33  1  0  0  0  0
 10 11  1  0  0  0  0
 10 34  1  0  0  0  0
 11 12  1  0  0  0  0
 11 35  1  0  0  0  0
 11 36  1  0  0  0  0
 12 13  2  0  0  0  0
 12 37  1  0  0  0  0
 13 16  1  0  0  0  0
 13 38  1  0  0  0  0
 14 15  1  0  0  0  0
 14 17  1  0  0  0  0
 14 39  1  0  0  0  0
 14 40  1  0  0  0  0
 15 18  1  0  0  0  0
 15 41  1  0  0  0  0
 15 42  1  0  0  0  0
 16 20  1  0  0  0  0
 16 43  1  0  0  0  0
 16 44  1  0  0  0  0
 17 23  1  0  0  0  0
 17 45  1  0  0  0  0
 17 46  1  0  0  0  0
 18 21  2  0  0  0  0
 18 47  1  0  0  0  0
 19 21  1  0  0  0  0
 19 22  1  0  0  0  0
 19 48  1  0  0  0  0
 19 49  1  0  0  0  0
 20 22  2  0  0  0  0
 20 50  1  0  0  0  0
 21 51  1  0  0  0  0
 22 52  1  0  0  0  0
M  END
> <PUBCHEM_COMPOUND_CID>
5282277

> <PUBCHEM_COMPOUND_CANONICALIZED>
1

> <PUBCHEM_CACTVS_COMPLEXITY>
432

> <PUBCHEM_CACTVS_HBOND_ACCEPTOR>
3

> <PUBCHEM_CACTVS_HBOND_DONOR>
1

> <PUBCHEM_CACTVS_ROTATABLE_BOND>
13

> <PUBCHEM_CACTVS_SUBSKEYS>
AAADceB4MAAAAAAAAAAAAAAAEgAAAAAAAAAAAAAAAAAAAAAAAAAAGgAACAAACBSggAICCAAABgCIACDSCAAAAAAgAAAICAEAAAgAABIAAQACQAAEwAAIAAOIAAAAAAAAAAAAAAAAAAAAAAAAAAAAAAAAAA==

> <PUBCHEM_IUPAC_OPENEYE_NAME>
(5Z,8Z,11Z,14Z)-16-[(2R,3S)-3-ethyloxiran-2-yl]hexadeca-5,8,11,14-tetraenoic acid

> <PUBCHEM_IUPAC_CAS_NAME>
(5Z,8Z,11Z,14Z)-16-[(2R,3S)-3-ethyl-2-oxiranyl]hexadeca-5,8,11,14-tetraenoic acid

> <PUBCHEM_IUPAC_NAME>
(5Z,8Z,11Z,14Z)-16-[(2R,3S)-3-ethyloxiran-2-yl]hexadeca-5,8,11,14-tetraenoic acid

> <PUBCHEM_IUPAC_SYSTEMATIC_NAME>
(5Z,8Z,11Z,14Z)-16-[(2R,3S)-3-ethyloxiran-2-yl]hexadeca-5,8,11,14-tetraenoic acid

> <PUBCHEM_IUPAC_TRADITIONAL_NAME>
(5Z,8Z,11Z,14Z)-16-[(2R,3S)-3-ethyloxiran-2-yl]hexadeca-5,8,11,14-tetraenoic acid

> <PUBCHEM_IUPAC_INCHI>
InChI=1S/C20H30O3/c1-2-18-19(23-18)16-14-12-10-8-6-4-3-5-7-9-11-13-15-17-20(21)22/h3,5-6,8-9,11-12,14,18-19H,2,4,7,10,13,15-17H2,1H3,(H,21,22)/b5-3-,8-6-,11-9-,14-12-/t18-,19+/m0/s1

> <PUBCHEM_IUPAC_INCHIKEY>
GPQVVJQEBXAKBJ-VDTDYMMTSA-N

> <PUBCHEM_XLOGP3_AA>
4.8

> <PUBCHEM_EXACT_MASS>
318.219495

> <PUBCHEM_MOLECULAR_FORMULA>
C20H30O3

> <PUBCHEM_MOLECULAR_WEIGHT>
318.4504

> <PUBCHEM_OPENEYE_CAN_SMILES>
CCC1C(O1)CC=CCC=CCC=CCC=CCCCC(=O)O

> <PUBCHEM_OPENEYE_ISO_SMILES>
CC[C@H]1[C@H](O1)C/C=C\C/C=C\C/C=C\C/C=C\CCCC(=O)O

> <PUBCHEM_CACTVS_TPSA>
49.8

> <PUBCHEM_MONOISOTOPIC_WEIGHT>
318.219495

> <PUBCHEM_TOTAL_CHARGE>
0

> <PUBCHEM_HEAVY_ATOM_COUNT>
23

> <PUBCHEM_ATOM_DEF_STEREO_COUNT>
2

> <PUBCHEM_ATOM_UDEF_STEREO_COUNT>
0

> <PUBCHEM_BOND_DEF_STEREO_COUNT>
4

> <PUBCHEM_BOND_UDEF_STEREO_COUNT>
0

> <PUBCHEM_ISOTOPIC_ATOM_COUNT>
0

> <PUBCHEM_COMPONENT_COUNT>
1

> <PUBCHEM_CACTVS_TAUTO_COUNT>
1

> <PUBCHEM_COORDINATE_TYPE>
1
5
255

> <PUBCHEM_BONDANNOTATIONS>
4  6  5
5  7  5

$$$$

