5281204
  -OEChem-07051212552D

 55 56  0     1  0  0  0  0  0999 V2000
    4.2690   -0.6768    0.0000 O   0  0  0  0  0  0  0  0  0  0  0  0
    6.0010   -0.6768    0.0000 O   0  0  0  0  0  0  0  0  0  0  0  0
    8.8265    3.9868    0.0000 O   0  0  0  0  0  0  0  0  0  0  0  0
    4.2690   -3.6768    0.0000 O   0  0  0  0  0  0  0  0  0  0  0  0
    2.5369   -2.6768    0.0000 O   0  0  0  0  0  0  0  0  0  0  0  0
    6.0010   -2.6768    0.0000 O   0  0  0  0  0  0  0  0  0  0  0  0
    2.5369    0.3232    0.0000 O   0  0  0  0  0  0  0  0  0  0  0  0
   11.7456   -0.3489    0.0000 O   0  0  0  0  0  0  0  0  0  0  0  0
   12.2808    1.2984    0.0000 O   0  0  0  0  0  0  0  0  0  0  0  0
   10.3787    1.9164    0.0000 C   0  0  2  0  0  0  0  0  0  0  0  0
    9.4651    2.3232    0.0000 C   0  0  2  0  0  0  0  0  0  0  0  0
   11.0478    2.6596    0.0000 C   0  0  0  0  0  0  0  0  0  0  0  0
   10.5478    3.5256    0.0000 C   0  0  0  0  0  0  0  0  0  0  0  0
    9.5697    3.3177    0.0000 C   0  0  0  0  0  0  0  0  0  0  0  0
    8.5991    1.8232    0.0000 C   0  0  0  0  0  0  0  0  0  0  0  0
   10.5866    0.9383    0.0000 C   0  0  0  0  0  0  0  0  0  0  0  0
    4.2690   -2.6768    0.0000 C   0  0  1  0  0  0  0  0  0  0  0  0
    3.4030   -2.1768    0.0000 C   0  0  1  0  0  0  0  0  0  0  0  0
    5.1350   -2.1768    0.0000 C   0  0  2  0  0  0  0  0  0  0  0  0
    3.4030   -1.1768    0.0000 C   0  0  1  0  0  0  0  0  0  0  0  0
    5.1350   -1.1768    0.0000 C   0  0  1  0  0  0  0  0  0  0  0  0
    7.7331    2.3232    0.0000 C   0  0  0  0  0  0  0  0  0  0  0  0
    2.5369   -0.6768    0.0000 C   0  0  0  0  0  0  0  0  0  0  0  0
   11.5377    0.6293    0.0000 C   0  0  0  0  0  0  0  0  0  0  0  0
    6.0010    0.3232    0.0000 C   0  0  0  0  0  0  0  0  0  0  0  0
    6.8671    1.8232    0.0000 C   0  0  0  0  0  0  0  0  0  0  0  0
    6.8671    0.8232    0.0000 C   0  0  0  0  0  0  0  0  0  0  0  0
    9.8968    1.5263    0.0000 H   0  0  0  0  0  0  0  0  0  0  0  0
    9.4976    1.7040    0.0000 H   0  0  0  0  0  0  0  0  0  0  0  0
   11.4627    2.1988    0.0000 H   0  0  0  0  0  0  0  0  0  0  0  0
   11.5494    3.0240    0.0000 H   0  0  0  0  0  0  0  0  0  0  0  0
   11.1142    3.7778    0.0000 H   0  0  0  0  0  0  0  0  0  0  0  0
   10.3562    4.1153    0.0000 H   0  0  0  0  0  0  0  0  0  0  0  0
    8.2006    1.3482    0.0000 H   0  0  0  0  0  0  0  0  0  0  0  0
    8.9976    1.3482    0.0000 H   0  0  0  0  0  0  0  0  0  0  0  0
    9.9670    0.9167    0.0000 H   0  0  0  0  0  0  0  0  0  0  0  0
   10.5003    0.3243    0.0000 H   0  0  0  0  0  0  0  0  0  0  0  0
    4.8059   -2.9868    0.0000 H   0  0  0  0  0  0  0  0  0  0  0  0
    3.4030   -2.7968    0.0000 H   0  0  0  0  0  0  0  0  0  0  0  0
    5.1350   -2.7968    0.0000 H   0  0  0  0  0  0  0  0  0  0  0  0
    3.4030   -0.5568    0.0000 H   0  0  0  0  0  0  0  0  0  0  0  0
    5.1350   -0.5568    0.0000 H   0  0  0  0  0  0  0  0  0  0  0  0
    7.7331    2.9432    0.0000 H   0  0  0  0  0  0  0  0  0  0  0  0
    1.9264   -0.5692    0.0000 H   0  0  0  0  0  0  0  0  0  0  0  0
    2.3249   -1.2594    0.0000 H   0  0  0  0  0  0  0  0  0  0  0  0
    5.7890    0.9058    0.0000 H   0  0  0  0  0  0  0  0  0  0  0  0
    5.3905    0.2155    0.0000 H   0  0  0  0  0  0  0  0  0  0  0  0
    6.3301    2.1332    0.0000 H   0  0  0  0  0  0  0  0  0  0  0  0
    7.0791    0.2406    0.0000 H   0  0  0  0  0  0  0  0  0  0  0  0
    7.4776    0.9308    0.0000 H   0  0  0  0  0  0  0  0  0  0  0  0
    3.7320   -3.9868    0.0000 H   0  0  0  0  0  0  0  0  0  0  0  0
    2.0000   -2.3668    0.0000 H   0  0  0  0  0  0  0  0  0  0  0  0
    6.5380   -2.3668    0.0000 H   0  0  0  0  0  0  0  0  0  0  0  0
    2.0000    0.6332    0.0000 H   0  0  0  0  0  0  0  0  0  0  0  0
   12.3352   -0.5405    0.0000 H   0  0  0  0  0  0  0  0  0  0  0  0
  1 20  1  0  0  0  0
  1 21  1  0  0  0  0
 21  2  1  1  0  0  0
  2 25  1  0  0  0  0
  3 14  2  0  0  0  0
 17  4  1  1  0  0  0
  4 51  1  0  0  0  0
 18  5  1  6  0  0  0
  5 52  1  0  0  0  0
 19  6  1  6  0  0  0
  6 53  1  0  0  0  0
  7 23  1  0  0  0  0
  7 54  1  0  0  0  0
  8 24  1  0  0  0  0
  8 55  1  0  0  0  0
  9 24  2  0  0  0  0
 10 11  1  0  0  0  0
 10 12  1  0  0  0  0
 10 16  1  6  0  0  0
 10 28  1  0  0  0  0
 11 14  1  0  0  0  0
 11 15  1  1  0  0  0
 11 29  1  0  0  0  0
 12 13  1  0  0  0  0
 12 30  1  0  0  0  0
 12 31  1  0  0  0  0
 13 14  1  0  0  0  0
 13 32  1  0  0  0  0
 13 33  1  0  0  0  0
 15 22  1  0  0  0  0
 15 34  1  0  0  0  0
 15 35  1  0  0  0  0
 16 24  1  0  0  0  0
 16 36  1  0  0  0  0
 16 37  1  0  0  0  0
 17 18  1  0  0  0  0
 17 19  1  0  0  0  0
 17 38  1  0  0  0  0
 18 20  1  0  0  0  0
 18 39  1  0  0  0  0
 19 21  1  0  0  0  0
 19 40  1  0  0  0  0
 20 23  1  1  0  0  0
 20 41  1  0  0  0  0
 21 42  1  0  0  0  0
 22 26  2  0  0  0  0
 22 43  1  0  0  0  0
 23 44  1  0  0  0  0
 23 45  1  0  0  0  0
 25 27  1  0  0  0  0
 25 46  1  0  0  0  0
 25 47  1  0  0  0  0
 26 27  1  0  0  0  0
 26 48  1  0  0  0  0
 27 49  1  0  0  0  0
 27 50  1  0  0  0  0
M  END
> <PUBCHEM_COMPOUND_CID>
5281204

> <PUBCHEM_COMPOUND_CANONICALIZED>
1

> <PUBCHEM_CACTVS_COMPLEXITY>
535

> <PUBCHEM_CACTVS_HBOND_ACCEPTOR>
9

> <PUBCHEM_CACTVS_HBOND_DONOR>
5

> <PUBCHEM_CACTVS_ROTATABLE_BOND>
9

> <PUBCHEM_CACTVS_SUBSKEYS>
AAADceB4PAAAAAAAAAAAAAAAAAAAAYAAAAAkAAAAAAAAAAAAAAAAGgAACAAADRSwgAMACAAABgCIAKDSCAAAAAAgAAAICAEAAAgREBIAAQAiQAAFwAAPAAPI7qyugAAAAAAAAAAAAAAAAAAAAAAACAAAAA==

> <PUBCHEM_IUPAC_OPENEYE_NAME>
2-[(1R,2R)-3-oxo-2-[(Z)-5-[(2R,3R,4S,5S,6R)-3,4,5-trihydroxy-6-(hydroxymethyl)tetrahydropyran-2-yl]oxypent-2-enyl]cyclopentyl]acetic acid

> <PUBCHEM_IUPAC_CAS_NAME>
2-[(1R,2R)-3-oxo-2-[(Z)-5-[[(2R,3R,4S,5S,6R)-3,4,5-trihydroxy-6-(hydroxymethyl)-2-oxanyl]oxy]pent-2-enyl]cyclopentyl]acetic acid

> <PUBCHEM_IUPAC_NAME>
2-[(1R,2R)-3-oxo-2-[(Z)-5-[(2R,3R,4S,5S,6R)-3,4,5-trihydroxy-6-(hydroxymethyl)oxan-2-yl]oxypent-2-enyl]cyclopentyl]acetic acid

> <PUBCHEM_IUPAC_SYSTEMATIC_NAME>
2-[(1R,2R)-2-[(Z)-5-[(2R,3R,4S,5S,6R)-6-(hydroxymethyl)-3,4,5-tris(oxidanyl)oxan-2-yl]oxypent-2-enyl]-3-oxidanylidene-cyclopentyl]ethanoic acid

> <PUBCHEM_IUPAC_TRADITIONAL_NAME>
2-[(1R,2R)-3-keto-2-[(Z)-5-[(2R,3R,4S,5S,6R)-3,4,5-trihydroxy-6-methylol-tetrahydropyran-2-yl]oxypent-2-enyl]cyclopentyl]acetic acid

> <PUBCHEM_IUPAC_INCHI>
InChI=1S/C18H28O9/c19-9-13-15(23)16(24)17(25)18(27-13)26-7-3-1-2-4-11-10(8-14(21)22)5-6-12(11)20/h1-2,10-11,13,15-19,23-25H,3-9H2,(H,21,22)/b2-1-/t10-,11-,13-,15-,16+,17-,18-/m1/s1

> <PUBCHEM_IUPAC_INCHIKEY>
JFDNMLUPLXZXGV-RKAGECJXSA-N

> <PUBCHEM_XLOGP3_AA>
-1.2

> <PUBCHEM_EXACT_MASS>
388.173332

> <PUBCHEM_MOLECULAR_FORMULA>
C18H28O9

> <PUBCHEM_MOLECULAR_WEIGHT>
388.40952

> <PUBCHEM_OPENEYE_CAN_SMILES>
C1CC(=O)C(C1CC(=O)O)CC=CCCOC2C(C(C(C(O2)CO)O)O)O

> <PUBCHEM_OPENEYE_ISO_SMILES>
C1CC(=O)[C@@H]([C@H]1CC(=O)O)C/C=C\CCO[C@H]2[C@@H]([C@H]([C@@H]([C@H](O2)CO)O)O)O

> <PUBCHEM_CACTVS_TPSA>
154

> <PUBCHEM_MONOISOTOPIC_WEIGHT>
388.173332

> <PUBCHEM_TOTAL_CHARGE>
0

> <PUBCHEM_HEAVY_ATOM_COUNT>
27

> <PUBCHEM_ATOM_DEF_STEREO_COUNT>
7

> <PUBCHEM_ATOM_UDEF_STEREO_COUNT>
0

> <PUBCHEM_BOND_DEF_STEREO_COUNT>
1

> <PUBCHEM_BOND_UDEF_STEREO_COUNT>
0

> <PUBCHEM_ISOTOPIC_ATOM_COUNT>
0

> <PUBCHEM_COMPONENT_COUNT>
1

> <PUBCHEM_CACTVS_TAUTO_COUNT>
3

> <PUBCHEM_COORDINATE_TYPE>
1
5
255

> <PUBCHEM_BONDANNOTATIONS>
10  16  6
11  15  5
21  2  5
20  23  5
17  4  5
18  5  6
19  6  6

$$$$

