   Color/Form

     * Slightly viscous, colorless liquid
     * Oily liquid

   from [1]HSDB

   Odor

     * Faint ammonia odor
     * Odorless

   from [2]HSDB

   Boiling Point
        210.5 deg C @ 760 mm Hg
   from [3]HSDB

   Melting Point
        2.55 deg C
   from [4]HSDB

   Corrosivity
        Copper, brass and even lead are attacked.
   from [5]HSDB

   Density/Specific Gravity
        1.1334 @ 20 deg C/4 deg C
   from [6]HSDB

   Dissociation Constants
        pKa = - 0.48 @ 20 deg C
   from [7]HSDB

   Heat of Combustion
        -568.2 kJ/mole
   from [8]HSDB

   Heat of Vaporization
        64.98 kJ/mole
   from [9]HSDB

   Octanol/Water Partition Coefficient
        log Kow= -1.51
   from [10]HSDB

   pH
        7.1 (0.5 molar aqueous soln)
   from [11]HSDB

   Solubilities

     * Sol in alcohol and acetone
     * Miscible with methanol, phenol, dioxane, acetic acid, ethylene
       glycol, USP glycerol.
     * Insoluble in ethanol; very soluble in ethyl ether; miscible in
       chloroform, petroleum ether.
     * In water, 1.0X10+6 mg/l @ 25 deg C.

   from [12]HSDB

   Spectral Properties

     * Index of refraction: 1.44911 @ 15 deg C/D; 1.4170 @ 110 deg C/D;
       1.4095 @ 130 deg C/D; 1.44754 @ 20 deg C/D
     * SADTLER REFERENCE NUMBER: 2232 (IR, PRISM); MAX ABSORPTION
       (UNDILUTED): 205 NM (LOG E= 2.20) SHOULDER
     * IR: 5670 (Coblentz Society Spectral Collection)
     * NMR: 7220 (Sadtler Research Laboratories Spectral Collection)
     * MASS: NIST 18879 (NIST/EPA/MCDC Mass Spectral Database 1990
       version)

   from [13]HSDB

   Surface Tension
        58.35 dyne/cm @ 20 deg C
   from [14]HSDB

   Vapor Density
        1.56 (Air = 1)
   from [15]HSDB

   Vapor Pressure
        6.10X10-2 mm Hg @ 25 deg C
   from [16]HSDB

   Viscosity
        nX10+5 @ 20 deg C= 4320; @ 30 deg C= 2926
   from [17]HSDB

   Other Chemical/Physical Properties

     * Dissolves casein, glucose, zein, tannins, starch, lignin, polyvinyl
       alcohol, cellulose acetate, nylon, chlorides of copper, lead, zinc,
       tin, iron, cobalt, aluminum, nickel, the acetates of the alkali
       metals, some inorganic sulfates and nitrates.
     * Dielectric constant: epsilon= 84; industrial grades may have odor
       of ammonia
     * Hygroscopic
     * Hydrolyzes very slowly at room temperature, hydrolysis is
       accelerated by acids and bases at elevated temperatures.
     * Saturated concentration in air: < 0.24 g/cu m @ 30 deg C
     * 1 mg/cu m= 0.53 ppm, 1 ppm= 1.87 mg/cu m
     * Dielectric constant: 109 +/- 15 @ 20 deg C
     * Dipole moment: 1.12X10-29 C-m @ 30 deg C
     * BP: 200-212 deg C with partial decomposition beginning
       approximately 180 deg C

   from [18]HSDB

   Computed Properties
   Molecular Weight                  45.04062 [g/mol]
   Molecular Formula                 CH[3]NO
   XLogP3-AA                         -0.8
   H-Bond Donor                      1
   H-Bond Acceptor                   1
   Rotatable Bond Count              0
   Tautomer Count                    2
   Exact Mass                        45.021464
   MonoIsotopic Mass                 45.021464
   Topological Polar Surface Area    43.1
   Heavy Atom Count                  3
   Formal Charge                     0
   Complexity                        12.3
   Isotope Atom Count                0
   Defined Atom Stereocenter Count   0
   Undefined Atom Stereocenter Count 0
   Defined Bond Stereocenter Count   0
   Undefined Bond Stereocenter Count 0
   Covalently-Bonded Unit Count      1
   Feature 3D Acceptor Count         1
   Feature 3D Donor Count            1
   Effective Rotor Count             0
   Conformer Sampling RMSD           0.4
   CID Conformer Count               [19]1

References

   1. http://toxnet.nlm.nih.gov/cgi-bin/sis/search/r?dbs+hsdb:@term+@rn+@rel+75-12-7
   2. http://toxnet.nlm.nih.gov/cgi-bin/sis/search/r?dbs+hsdb:@term+@rn+@rel+75-12-7
   3. http://toxnet.nlm.nih.gov/cgi-bin/sis/search/r?dbs+hsdb:@term+@rn+@rel+75-12-7
   4. http://toxnet.nlm.nih.gov/cgi-bin/sis/search/r?dbs+hsdb:@term+@rn+@rel+75-12-7
   5. http://toxnet.nlm.nih.gov/cgi-bin/sis/search/r?dbs+hsdb:@term+@rn+@rel+75-12-7
   6. http://toxnet.nlm.nih.gov/cgi-bin/sis/search/r?dbs+hsdb:@term+@rn+@rel+75-12-7
   7. http://toxnet.nlm.nih.gov/cgi-bin/sis/search/r?dbs+hsdb:@term+@rn+@rel+75-12-7
   8. http://toxnet.nlm.nih.gov/cgi-bin/sis/search/r?dbs+hsdb:@term+@rn+@rel+75-12-7
   9. http://toxnet.nlm.nih.gov/cgi-bin/sis/search/r?dbs+hsdb:@term+@rn+@rel+75-12-7
  10. http://toxnet.nlm.nih.gov/cgi-bin/sis/search/r?dbs+hsdb:@term+@rn+@rel+75-12-7
  11. http://toxnet.nlm.nih.gov/cgi-bin/sis/search/r?dbs+hsdb:@term+@rn+@rel+75-12-7
  12. http://toxnet.nlm.nih.gov/cgi-bin/sis/search/r?dbs+hsdb:@term+@rn+@rel+75-12-7
  13. http://toxnet.nlm.nih.gov/cgi-bin/sis/search/r?dbs+hsdb:@term+@rn+@rel+75-12-7
  14. http://toxnet.nlm.nih.gov/cgi-bin/sis/search/r?dbs+hsdb:@term+@rn+@rel+75-12-7
  15. http://toxnet.nlm.nih.gov/cgi-bin/sis/search/r?dbs+hsdb:@term+@rn+@rel+75-12-7
  16. http://toxnet.nlm.nih.gov/cgi-bin/sis/search/r?dbs+hsdb:@term+@rn+@rel+75-12-7
  17. http://toxnet.nlm.nih.gov/cgi-bin/sis/search/r?dbs+hsdb:@term+@rn+@rel+75-12-7
  18. http://toxnet.nlm.nih.gov/cgi-bin/sis/search/r?dbs+hsdb:@term+@rn+@rel+75-12-7
  19. http://pubchem.ncbi.nlm.nih.gov/vw3d/vw3d.cgi?cid=713
