442085
  -OEChem-07051212562D

 52 56  0     1  0  0  0  0  0999 V2000
    5.6328   -1.5397    0.0000 O   0  0  0  0  0  0  0  0  0  0  0  0
    2.6642   -1.7506    0.0000 O   0  0  0  0  0  0  0  0  0  0  0  0
    4.2966    1.7224    0.0000 O   0  0  0  0  0  0  0  0  0  0  0  0
    4.3580   -2.2859    0.0000 O   0  0  0  0  0  0  0  0  0  0  0  0
    8.0778   -0.0985    0.0000 O   0  0  0  0  0  0  0  0  0  0  0  0
    7.3948   -1.3697    0.0000 O   0  0  0  0  0  0  0  0  0  0  0  0
    4.6245   -0.0484    0.0000 C   0  0  1  0  0  0  0  0  0  0  0  0
    5.4941    0.5250    0.0000 C   0  0  1  0  0  0  0  0  0  0  0  0
    3.7918   -0.6022    0.0000 C   0  0  1  0  0  0  0  0  0  0  0  0
    6.3950    0.0911    0.0000 C   0  0  1  0  0  0  0  0  0  0  0  0
    2.8959   -0.1579    0.0000 C   0  0  1  0  0  0  0  0  0  0  0  0
    4.5613    0.9496    0.0000 C   0  0  0  0  0  0  0  0  0  0  0  0
    5.2715    1.4999    0.0000 C   0  0  1  0  0  0  0  0  0  0  0  0
    6.2882    1.2679    0.0000 C   0  0  0  0  0  0  0  0  0  0  0  0
    4.6943   -1.0877    0.0000 C   0  0  0  0  0  0  0  0  0  0  0  0
    6.8950    2.2817    0.0000 C   0  0  1  0  0  0  0  0  0  0  0  0
    2.8327    0.8401    0.0000 C   0  0  0  0  0  0  0  0  0  0  0  0
    3.6444   -1.5853    0.0000 C   0  0  2  0  0  0  0  0  0  0  0  0
    3.6654    1.3938    0.0000 C   0  0  0  0  0  0  0  0  0  0  0  0
    5.8950    2.2817    0.0000 C   0  0  0  0  0  0  0  0  0  0  0  0
    2.2025   -0.8702    0.0000 C   0  0  0  0  0  0  0  0  0  0  0  0
    7.2960    0.5250    0.0000 C   0  0  0  0  0  0  0  0  0  0  0  0
    6.4889   -0.9463    0.0000 C   0  0  0  0  0  0  0  0  0  0  0  0
    7.5185    1.4999    0.0000 C   0  0  0  0  0  0  0  0  0  0  0  0
    2.0000    0.2864    0.0000 C   0  0  0  0  0  0  0  0  0  0  0  0
    8.4934    1.7224    0.0000 C   0  0  0  0  0  0  0  0  0  0  0  0
    4.6464    0.4615    0.0000 H   0  0  0  0  0  0  0  0  0  0  0  0
    4.5090   -1.0583    0.0000 H   0  0  0  0  0  0  0  0  0  0  0  0
    5.1774    0.8807    0.0000 H   0  0  0  0  0  0  0  0  0  0  0  0
    4.7361    1.5444    0.0000 H   0  0  0  0  0  0  0  0  0  0  0  0
    4.8331    1.0615    0.0000 H   0  0  0  0  0  0  0  0  0  0  0  0
    5.8804    1.7349    0.0000 H   0  0  0  0  0  0  0  0  0  0  0  0
    5.7181    1.0240    0.0000 H   0  0  0  0  0  0  0  0  0  0  0  0
    4.0777   -1.0228    0.0000 H   0  0  0  0  0  0  0  0  0  0  0  0
    4.5249   -1.6841    0.0000 H   0  0  0  0  0  0  0  0  0  0  0  0
    7.0842    3.1104    0.0000 H   0  0  0  0  0  0  0  0  0  0  0  0
    2.5842    1.4081    0.0000 H   0  0  0  0  0  0  0  0  0  0  0  0
    2.2301    0.6941    0.0000 H   0  0  0  0  0  0  0  0  0  0  0  0
    4.2324   -1.3886    0.0000 H   0  0  0  0  0  0  0  0  0  0  0  0
    4.0331    1.8930    0.0000 H   0  0  0  0  0  0  0  0  0  0  0  0
    3.2376    1.8426    0.0000 H   0  0  0  0  0  0  0  0  0  0  0  0
    6.0330    2.8862    0.0000 H   0  0  0  0  0  0  0  0  0  0  0  0
    5.3364    2.5508    0.0000 H   0  0  0  0  0  0  0  0  0  0  0  0
    1.8062   -0.3935    0.0000 H   0  0  0  0  0  0  0  0  0  0  0  0
    1.6867   -1.2143    0.0000 H   0  0  0  0  0  0  0  0  0  0  0  0
    2.2755    0.8418    0.0000 H   0  0  0  0  0  0  0  0  0  0  0  0
    1.4446    0.5618    0.0000 H   0  0  0  0  0  0  0  0  0  0  0  0
    1.7246   -0.2691    0.0000 H   0  0  0  0  0  0  0  0  0  0  0  0
    4.1139    2.3149    0.0000 H   0  0  0  0  0  0  0  0  0  0  0  0
    4.2030   -2.8862    0.0000 H   0  0  0  0  0  0  0  0  0  0  0  0
    8.9152    1.2679    0.0000 H   0  0  0  0  0  0  0  0  0  0  0  0
    8.6762    2.3149    0.0000 H   0  0  0  0  0  0  0  0  0  0  0  0
  1 15  1  0  0  0  0
  1 23  1  0  0  0  0
  2 18  1  0  0  0  0
  2 21  1  0  0  0  0
 13  3  1  6  0  0  0
  3 49  1  0  0  0  0
 18  4  1  1  0  0  0
  4 50  1  0  0  0  0
  5 22  2  0  0  0  0
  6 23  2  0  0  0  0
  7  8  1  0  0  0  0
  7  9  1  0  0  0  0
  7 12  1  6  0  0  0
  7 15  1  0  0  0  0
  8 10  1  0  0  0  0
  8 13  1  0  0  0  0
  8 27  1  1  0  0  0
  9 11  1  0  0  0  0
  9 18  1  0  0  0  0
  9 28  1  1  0  0  0
 10 14  1  0  0  0  0
 10 22  1  0  0  0  0
 10 23  1  6  0  0  0
 11 17  1  0  0  0  0
 11 21  1  0  0  0  0
 11 25  1  1  0  0  0
 12 19  1  0  0  0  0
 12 29  1  0  0  0  0
 12 30  1  0  0  0  0
 13 20  1  0  0  0  0
 13 31  1  0  0  0  0
 14 16  1  0  0  0  0
 14 32  1  0  0  0  0
 14 33  1  0  0  0  0
 15 34  1  0  0  0  0
 15 35  1  0  0  0  0
 16 20  1  0  0  0  0
 16 24  1  0  0  0  0
 16 36  1  6  0  0  0
 17 19  1  0  0  0  0
 17 37  1  0  0  0  0
 17 38  1  0  0  0  0
 18 39  1  0  0  0  0
 19 40  1  0  0  0  0
 19 41  1  0  0  0  0
 20 42  1  0  0  0  0
 20 43  1  0  0  0  0
 21 44  1  0  0  0  0
 21 45  1  0  0  0  0
 22 24  1  0  0  0  0
 24 26  2  0  0  0  0
 25 46  1  0  0  0  0
 25 47  1  0  0  0  0
 25 48  1  0  0  0  0
 26 51  1  0  0  0  0
 26 52  1  0  0  0  0
M  END
> <PUBCHEM_COMPOUND_CID>
442085

> <PUBCHEM_COMPOUND_CANONICALIZED>
1

> <PUBCHEM_CACTVS_COMPLEXITY>
717

> <PUBCHEM_CACTVS_HBOND_ACCEPTOR>
6

> <PUBCHEM_CACTVS_HBOND_DONOR>
2

> <PUBCHEM_CACTVS_ROTATABLE_BOND>
0

> <PUBCHEM_CACTVS_SUBSKEYS>
AAADceB4OAAAAAAAAAAAAAAAAAAAAaIAAAA0YIAABgAAAEiQAAAAGgAACAAADxSwgAMCCAAABgCIAoDSCAAAAAAgAAAAAAEAAEgQEBYIAQACQAAEoAAEAIHK7PzPgAAAAAAAAACAAAYAADAAAQAAAAAAAA==

> <PUBCHEM_IUPAC_INCHI>
InChI=1S/C20H26O6/c1-10-11-6-12(21)13-19(9-26-17(24)20(13,7-11)15(10)22)5-3-4-18(2)8-25-16(23)14(18)19/h11-14,16,21,23H,1,3-9H2,2H3/t11-,12-,13+,14-,16+,18+,19-,20+/m1/s1

> <PUBCHEM_IUPAC_INCHIKEY>
BTRYMTRPHJVMRG-KTSQQWMFSA-N

> <PUBCHEM_XLOGP3_AA>
1.4

> <PUBCHEM_EXACT_MASS>
362.172939

> <PUBCHEM_MOLECULAR_FORMULA>
C20H26O6

> <PUBCHEM_MOLECULAR_WEIGHT>
362.41684

> <PUBCHEM_OPENEYE_CAN_SMILES>
CC12CCCC3(C1C(OC2)O)COC(=O)C45C3C(CC(C4)C(=C)C5=O)O

> <PUBCHEM_OPENEYE_ISO_SMILES>
C[C@@]12CCC[C@@]3([C@@H]1[C@H](OC2)O)COC(=O)[C@]45[C@H]3[C@@H](C[C@H](C4)C(=C)C5=O)O

> <PUBCHEM_CACTVS_TPSA>
93.1

> <PUBCHEM_MONOISOTOPIC_WEIGHT>
362.172939

> <PUBCHEM_TOTAL_CHARGE>
0

> <PUBCHEM_HEAVY_ATOM_COUNT>
26

> <PUBCHEM_ATOM_DEF_STEREO_COUNT>
8

> <PUBCHEM_ATOM_UDEF_STEREO_COUNT>
0

> <PUBCHEM_BOND_DEF_STEREO_COUNT>
0

> <PUBCHEM_BOND_UDEF_STEREO_COUNT>
0

> <PUBCHEM_ISOTOPIC_ATOM_COUNT>
0

> <PUBCHEM_COMPONENT_COUNT>
1

> <PUBCHEM_CACTVS_TAUTO_COUNT>
1

> <PUBCHEM_COORDINATE_TYPE>
1
5
255

> <PUBCHEM_BONDANNOTATIONS>
10  23  6
11  25  5
16  36  6
13  3  6
18  4  5
7  12  6
8  27  5
9  28  5

$$$$

