11953932
  -OEChem-07051212572D

 57 58  0     1  0  0  0  0  0999 V2000
    5.3340   -2.6420    0.0000 O   0  0  0  0  0  0  0  0  0  0  0  0
    4.2690    0.0950    0.0000 O   0  0  0  0  0  0  0  0  0  0  0  0
    8.5991   -3.4050    0.0000 O   0  0  0  0  0  0  0  0  0  0  0  0
    3.5000   -3.0890    0.0000 O   0  0  0  0  0  0  0  0  0  0  0  0
    5.1350    1.5950    0.0000 O   0  0  0  0  0  0  0  0  0  0  0  0
    9.4651   -1.9050    0.0000 O   0  0  0  0  0  0  0  0  0  0  0  0
    2.5369    4.0950    0.0000 O   0  0  0  0  0  0  0  0  0  0  0  0
    5.1350   -1.4050    0.0000 C   0  0  2  0  0  0  0  0  0  0  0  0
    5.1350   -0.4050    0.0000 C   0  0  1  0  0  0  0  0  0  0  0  0
    6.0010   -1.9050    0.0000 C   0  0  1  0  0  0  0  0  0  0  0  0
    6.0010    0.0950    0.0000 C   0  0  0  0  0  0  0  0  0  0  0  0
    4.1632   -1.6142    0.0000 C   0  0  0  0  0  0  0  0  0  0  0  0
    6.0010   -2.9050    0.0000 C   0  0  0  0  0  0  0  0  0  0  0  0
    6.8671   -0.4050    0.0000 C   0  0  0  0  0  0  0  0  0  0  0  0
    6.8671   -3.4050    0.0000 C   0  0  0  0  0  0  0  0  0  0  0  0
    4.2432   -2.4199    0.0000 C   0  0  0  0  0  0  0  0  0  0  0  0
    7.7331   -2.9050    0.0000 C   0  0  2  0  0  0  0  0  0  0  0  0
    7.7331   -1.9050    0.0000 C   0  0  0  0  0  0  0  0  0  0  0  0
    6.8671   -1.4050    0.0000 C   0  0  0  0  0  0  0  0  0  0  0  0
    3.2963   -1.1157    0.0000 C   0  0  0  0  0  0  0  0  0  0  0  0
    7.7331    0.0950    0.0000 C   0  0  0  0  0  0  0  0  0  0  0  0
    6.8671   -4.4050    0.0000 C   0  0  0  0  0  0  0  0  0  0  0  0
    4.2690    1.0950    0.0000 C   0  0  0  0  0  0  0  0  0  0  0  0
    3.4030    1.5950    0.0000 C   0  0  0  0  0  0  0  0  0  0  0  0
    9.4651   -2.9050    0.0000 C   0  0  0  0  0  0  0  0  0  0  0  0
    2.5369    1.0950    0.0000 C   0  0  0  0  0  0  0  0  0  0  0  0
    3.4030    2.5950    0.0000 C   0  0  0  0  0  0  0  0  0  0  0  0
   10.3312   -3.4050    0.0000 C   0  0  0  0  0  0  0  0  0  0  0  0
    2.5369    3.0950    0.0000 C   0  0  0  0  0  0  0  0  0  0  0  0
    4.4737   -0.8709    0.0000 H   0  0  0  0  0  0  0  0  0  0  0  0
    5.1350    0.2150    0.0000 H   0  0  0  0  0  0  0  0  0  0  0  0
    6.7372   -1.4800    0.0000 H   0  0  0  0  0  0  0  0  0  0  0  0
    6.3996    0.5699    0.0000 H   0  0  0  0  0  0  0  0  0  0  0  0
    5.6025    0.5699    0.0000 H   0  0  0  0  0  0  0  0  0  0  0  0
    5.5261   -3.3035    0.0000 H   0  0  0  0  0  0  0  0  0  0  0  0
    7.7331   -3.5250    0.0000 H   0  0  0  0  0  0  0  0  0  0  0  0
    8.3437   -2.0127    0.0000 H   0  0  0  0  0  0  0  0  0  0  0  0
    7.9451   -1.3224    0.0000 H   0  0  0  0  0  0  0  0  0  0  0  0
    6.2565   -1.2972    0.0000 H   0  0  0  0  0  0  0  0  0  0  0  0
    3.2952   -0.4957    0.0000 H   0  0  0  0  0  0  0  0  0  0  0  0
    2.7599   -1.4266    0.0000 H   0  0  0  0  0  0  0  0  0  0  0  0
    8.0431   -0.4419    0.0000 H   0  0  0  0  0  0  0  0  0  0  0  0
    8.2700    0.4050    0.0000 H   0  0  0  0  0  0  0  0  0  0  0  0
    7.4231    0.6319    0.0000 H   0  0  0  0  0  0  0  0  0  0  0  0
    6.2471   -4.4050    0.0000 H   0  0  0  0  0  0  0  0  0  0  0  0
    6.8671   -5.0250    0.0000 H   0  0  0  0  0  0  0  0  0  0  0  0
    7.4871   -4.4050    0.0000 H   0  0  0  0  0  0  0  0  0  0  0  0
    2.2269    1.6319    0.0000 H   0  0  0  0  0  0  0  0  0  0  0  0
    2.0000    0.7850    0.0000 H   0  0  0  0  0  0  0  0  0  0  0  0
    2.8469    0.5581    0.0000 H   0  0  0  0  0  0  0  0  0  0  0  0
    3.9399    2.9050    0.0000 H   0  0  0  0  0  0  0  0  0  0  0  0
   10.0212   -3.9419    0.0000 H   0  0  0  0  0  0  0  0  0  0  0  0
   10.8681   -3.7150    0.0000 H   0  0  0  0  0  0  0  0  0  0  0  0
   10.6412   -2.8681    0.0000 H   0  0  0  0  0  0  0  0  0  0  0  0
    1.9264    3.2027    0.0000 H   0  0  0  0  0  0  0  0  0  0  0  0
    2.3249    2.5124    0.0000 H   0  0  0  0  0  0  0  0  0  0  0  0
    2.0000    4.4050    0.0000 H   0  0  0  0  0  0  0  0  0  0  0  0
  1 10  1  0  0  0  0
  1 16  1  0  0  0  0
  9  2  1  6  0  0  0
  2 23  1  0  0  0  0
 17  3  1  6  0  0  0
  3 25  1  0  0  0  0
  4 16  2  0  0  0  0
  5 23  2  0  0  0  0
  6 25  2  0  0  0  0
  7 29  1  0  0  0  0
  7 57  1  0  0  0  0
  8  9  1  0  0  0  0
  8 10  1  0  0  0  0
  8 12  1  0  0  0  0
  8 30  1  1  0  0  0
  9 11  1  0  0  0  0
  9 31  1  0  0  0  0
 10 13  1  0  0  0  0
 10 32  1  6  0  0  0
 11 14  1  0  0  0  0
 11 33  1  0  0  0  0
 11 34  1  0  0  0  0
 12 16  1  0  0  0  0
 12 20  2  0  0  0  0
 13 15  2  0  0  0  0
 13 35  1  0  0  0  0
 14 19  2  0  0  0  0
 14 21  1  0  0  0  0
 15 17  1  0  0  0  0
 15 22  1  0  0  0  0
 17 18  1  0  0  0  0
 17 36  1  0  0  0  0
 18 19  1  0  0  0  0
 18 37  1  0  0  0  0
 18 38  1  0  0  0  0
 19 39  1  0  0  0  0
 20 40  1  0  0  0  0
 20 41  1  0  0  0  0
 21 42  1  0  0  0  0
 21 43  1  0  0  0  0
 21 44  1  0  0  0  0
 22 45  1  0  0  0  0
 22 46  1  0  0  0  0
 22 47  1  0  0  0  0
 23 24  1  0  0  0  0
 24 26  1  0  0  0  0
 24 27  2  0  0  0  0
 25 28  1  0  0  0  0
 26 48  1  0  0  0  0
 26 49  1  0  0  0  0
 26 50  1  0  0  0  0
 27 29  1  0  0  0  0
 27 51  1  0  0  0  0
 28 52  1  0  0  0  0
 28 53  1  0  0  0  0
 28 54  1  0  0  0  0
 29 55  1  0  0  0  0
 29 56  1  0  0  0  0
M  END
> <PUBCHEM_COMPOUND_CID>
11953932

> <PUBCHEM_COMPOUND_CANONICALIZED>
1

> <PUBCHEM_CACTVS_COMPLEXITY>
787

> <PUBCHEM_CACTVS_HBOND_ACCEPTOR>
7

> <PUBCHEM_CACTVS_HBOND_DONOR>
1

> <PUBCHEM_CACTVS_ROTATABLE_BOND>
6

> <PUBCHEM_CACTVS_SUBSKEYS>
AAADceB4OAAAAAAAAAAAAAAAAAAAASAAAAAAAAAAAAAAAACAAAAAGgAACAAADRSggAICCAAABgCIAiDSCAAAAAAgAAAACAEAAEgAFBIAIQACEAAFwAAIMYPKyCCOAAAAAAAAAAAAAAAAAAAAAAAAAAAAAA==

> <PUBCHEM_IUPAC_OPENEYE_NAME>
[(3aR,4R,6E,9S,10Z,11aR)-9-acetoxy-6,10-dimethyl-3-methylene-2-oxo-3a,4,5,8,9,11a-hexahydrocyclodeca[b]furan-4-yl] (E)-4-hydroxy-2-methyl-but-2-enoate

> <PUBCHEM_IUPAC_CAS_NAME>
(E)-4-hydroxy-2-methyl-2-butenoic acid [(3aR,4R,6E,9S,10Z,11aR)-9-acetyloxy-6,10-dimethyl-3-methylene-2-oxo-3a,4,5,8,9,11a-hexahydrocyclodeca[b]furan-4-yl] ester

> <PUBCHEM_IUPAC_NAME>
[(3aR,4R,6E,9S,10Z,11aR)-9-acetyloxy-6,10-dimethyl-3-methylidene-2-oxo-3a,4,5,8,9,11a-hexahydrocyclodeca[b]furan-4-yl] (E)-4-hydroxy-2-methylbut-2-enoate

> <PUBCHEM_IUPAC_SYSTEMATIC_NAME>
[(3aR,4R,6E,9S,10Z,11aR)-9-acetyloxy-6,10-dimethyl-3-methylidene-2-oxidanylidene-3a,4,5,8,9,11a-hexahydrocyclodeca[b]furan-4-yl] (E)-2-methyl-4-oxidanyl-but-2-enoate

> <PUBCHEM_IUPAC_TRADITIONAL_NAME>
(E)-4-hydroxy-2-methyl-but-2-enoic acid [(3aR,4R,6E,9S,10Z,11aR)-9-acetoxy-2-keto-6,10-dimethyl-3-methylene-3a,4,5,8,9,11a-hexahydrocyclodeca[b]furan-4-yl] ester

> <PUBCHEM_IUPAC_INCHI>
InChI=1S/C22H28O7/c1-12-6-7-17(27-16(5)24)14(3)11-19-20(15(4)22(26)29-19)18(10-12)28-21(25)13(2)8-9-23/h6,8,11,17-20,23H,4,7,9-10H2,1-3,5H3/b12-6+,13-8+,14-11-/t17-,18+,19+,20+/m0/s1

> <PUBCHEM_IUPAC_INCHIKEY>
FOCCASNSHDSZLN-CGZYOCHMSA-N

> <PUBCHEM_XLOGP3_AA>
1.8

> <PUBCHEM_EXACT_MASS>
404.183503

> <PUBCHEM_MOLECULAR_FORMULA>
C22H28O7

> <PUBCHEM_MOLECULAR_WEIGHT>
404.45352

> <PUBCHEM_OPENEYE_CAN_SMILES>
CC1=CCC(C(=CC2C(C(C1)OC(=O)C(=CCO)C)C(=C)C(=O)O2)C)OC(=O)C

> <PUBCHEM_OPENEYE_ISO_SMILES>
C/C/1=C\C[C@@H](/C(=C\[C@@H]2[C@@H]([C@@H](C1)OC(=O)/C(=C/CO)/C)C(=C)C(=O)O2)/C)OC(=O)C

> <PUBCHEM_CACTVS_TPSA>
99.1

> <PUBCHEM_MONOISOTOPIC_WEIGHT>
404.183503

> <PUBCHEM_TOTAL_CHARGE>
0

> <PUBCHEM_HEAVY_ATOM_COUNT>
29

> <PUBCHEM_ATOM_DEF_STEREO_COUNT>
4

> <PUBCHEM_ATOM_UDEF_STEREO_COUNT>
0

> <PUBCHEM_BOND_DEF_STEREO_COUNT>
3

> <PUBCHEM_BOND_UDEF_STEREO_COUNT>
0

> <PUBCHEM_ISOTOPIC_ATOM_COUNT>
0

> <PUBCHEM_COMPONENT_COUNT>
1

> <PUBCHEM_CACTVS_TAUTO_COUNT>
1

> <PUBCHEM_COORDINATE_TYPE>
1
5
255

> <PUBCHEM_BONDANNOTATIONS>
10  32  6
9  2  6
17  3  6
8  30  5

$$$$

