11109567
  -OEChem-07051212562D

 56 56  0     1  0  0  0  0  0999 V2000
    2.4384    0.6918    0.0000 O   0  0  0  0  0  0  0  0  0  0  0  0
    2.9043   -2.1651    0.0000 O   0  0  0  0  0  0  0  0  0  0  0  0
    5.9043    1.2990    0.0000 C   0  0  2  0  0  0  0  0  0  0  0  0
    6.4043    2.1651    0.0000 C   0  0  0  0  0  0  0  0  0  0  0  0
    6.4043    0.4330    0.0000 C   0  0  0  0  0  0  0  0  0  0  0  0
    3.4043    0.4330    0.0000 C   0  0  1  0  0  0  0  0  0  0  0  0
    4.9043    1.2990    0.0000 C   0  0  0  0  0  0  0  0  0  0  0  0
    7.4043    0.4330    0.0000 C   0  0  0  0  0  0  0  0  0  0  0  0
    2.9043   -0.4330    0.0000 C   0  0  0  0  0  0  0  0  0  0  0  0
    4.4043    0.4330    0.0000 C   0  0  0  0  0  0  0  0  0  0  0  0
    5.9043    3.0311    0.0000 C   0  0  0  0  0  0  0  0  0  0  0  0
    7.4043    2.1651    0.0000 C   0  0  0  0  0  0  0  0  0  0  0  0
    3.4043   -1.2990    0.0000 C   0  0  2  0  0  0  0  0  0  0  0  0
    7.9043   -0.4330    0.0000 C   0  0  0  0  0  0  0  0  0  0  0  0
    3.1455    1.3989    0.0000 C   0  0  0  0  0  0  0  0  0  0  0  0
    4.4043   -1.2990    0.0000 C   0  0  0  0  0  0  0  0  0  0  0  0
    6.4043   -1.2990    0.0000 C   0  0  0  0  0  0  0  0  0  0  0  0
    7.4043   -1.2990    0.0000 C   0  0  0  0  0  0  0  0  0  0  0  0
    5.9043   -2.1651    0.0000 C   0  0  0  0  0  0  0  0  0  0  0  0
    4.9043   -2.1651    0.0000 C   0  0  0  0  0  0  0  0  0  0  0  0
    8.9043   -0.4330    0.0000 C   0  0  0  0  0  0  0  0  0  0  0  0
    4.4043   -3.0311    0.0000 C   0  0  0  0  0  0  0  0  0  0  0  0
    6.5243    1.2990    0.0000 H   0  0  0  0  0  0  0  0  0  0  0  0
    6.7143    2.7020    0.0000 H   0  0  0  0  0  0  0  0  0  0  0  0
    5.8217    0.2210    0.0000 H   0  0  0  0  0  0  0  0  0  0  0  0
    6.5120   -0.1776    0.0000 H   0  0  0  0  0  0  0  0  0  0  0  0
    4.5943    1.8360    0.0000 H   0  0  0  0  0  0  0  0  0  0  0  0
    7.9869    0.6451    0.0000 H   0  0  0  0  0  0  0  0  0  0  0  0
    7.2967    1.0436    0.0000 H   0  0  0  0  0  0  0  0  0  0  0  0
    2.4294   -0.0345    0.0000 H   0  0  0  0  0  0  0  0  0  0  0  0
    2.4294   -0.8315    0.0000 H   0  0  0  0  0  0  0  0  0  0  0  0
    4.7143   -0.1039    0.0000 H   0  0  0  0  0  0  0  0  0  0  0  0
    6.4413    3.3411    0.0000 H   0  0  0  0  0  0  0  0  0  0  0  0
    5.5943    3.5680    0.0000 H   0  0  0  0  0  0  0  0  0  0  0  0
    5.3674    2.7211    0.0000 H   0  0  0  0  0  0  0  0  0  0  0  0
    7.4043    1.5451    0.0000 H   0  0  0  0  0  0  0  0  0  0  0  0
    8.0243    2.1651    0.0000 H   0  0  0  0  0  0  0  0  0  0  0  0
    7.4043    2.7851    0.0000 H   0  0  0  0  0  0  0  0  0  0  0  0
    2.7843   -1.2990    0.0000 H   0  0  0  0  0  0  0  0  0  0  0  0
    3.7444    1.5594    0.0000 H   0  0  0  0  0  0  0  0  0  0  0  0
    2.9851    1.9978    0.0000 H   0  0  0  0  0  0  0  0  0  0  0  0
    2.5466    1.2385    0.0000 H   0  0  0  0  0  0  0  0  0  0  0  0
    4.7143   -0.7621    0.0000 H   0  0  0  0  0  0  0  0  0  0  0  0
    6.5120   -0.6885    0.0000 H   0  0  0  0  0  0  0  0  0  0  0  0
    5.8217   -1.0870    0.0000 H   0  0  0  0  0  0  0  0  0  0  0  0
    7.7143   -1.8360    0.0000 H   0  0  0  0  0  0  0  0  0  0  0  0
    5.7967   -2.7756    0.0000 H   0  0  0  0  0  0  0  0  0  0  0  0
    6.4869   -2.3771    0.0000 H   0  0  0  0  0  0  0  0  0  0  0  0
    2.0000    0.2534    0.0000 H   0  0  0  0  0  0  0  0  0  0  0  0
    8.9043   -1.0530    0.0000 H   0  0  0  0  0  0  0  0  0  0  0  0
    9.5243   -0.4330    0.0000 H   0  0  0  0  0  0  0  0  0  0  0  0
    8.9043    0.1870    0.0000 H   0  0  0  0  0  0  0  0  0  0  0  0
    2.2843   -2.1651    0.0000 H   0  0  0  0  0  0  0  0  0  0  0  0
    3.8674   -2.7211    0.0000 H   0  0  0  0  0  0  0  0  0  0  0  0
    4.0943   -3.5680    0.0000 H   0  0  0  0  0  0  0  0  0  0  0  0
    4.9413   -3.3411    0.0000 H   0  0  0  0  0  0  0  0  0  0  0  0
  6  1  1  6  0  0  0
  1 49  1  0  0  0  0
 13  2  1  6  0  0  0
  2 53  1  0  0  0  0
  3  4  1  6  0  0  0
  3  5  1  0  0  0  0
  3  7  1  0  0  0  0
  3 23  1  0  0  0  0
  4 11  1  0  0  0  0
  4 12  1  0  0  0  0
  4 24  1  0  0  0  0
  5  8  1  0  0  0  0
  5 25  1  0  0  0  0
  5 26  1  0  0  0  0
  6  9  1  0  0  0  0
  6 10  1  0  0  0  0
  6 15  1  0  0  0  0
  7 10  2  0  0  0  0
  7 27  1  0  0  0  0
  8 14  1  0  0  0  0
  8 28  1  0  0  0  0
  8 29  1  0  0  0  0
  9 13  1  0  0  0  0
  9 30  1  0  0  0  0
  9 31  1  0  0  0  0
 10 32  1  0  0  0  0
 11 33  1  0  0  0  0
 11 34  1  0  0  0  0
 11 35  1  0  0  0  0
 12 36  1  0  0  0  0
 12 37  1  0  0  0  0
 12 38  1  0  0  0  0
 13 16  1  0  0  0  0
 13 39  1  0  0  0  0
 14 18  2  0  0  0  0
 14 21  1  0  0  0  0
 15 40  1  0  0  0  0
 15 41  1  0  0  0  0
 15 42  1  0  0  0  0
 16 20  2  0  0  0  0
 16 43  1  0  0  0  0
 17 18  1  0  0  0  0
 17 19  1  0  0  0  0
 17 44  1  0  0  0  0
 17 45  1  0  0  0  0
 18 46  1  0  0  0  0
 19 20  1  0  0  0  0
 19 47  1  0  0  0  0
 19 48  1  0  0  0  0
 20 22  1  0  0  0  0
 21 50  1  0  0  0  0
 21 51  1  0  0  0  0
 21 52  1  0  0  0  0
 22 54  1  0  0  0  0
 22 55  1  0  0  0  0
 22 56  1  0  0  0  0
M  END
> <PUBCHEM_COMPOUND_CID>
11109567

> <PUBCHEM_COMPOUND_CANONICALIZED>
1

> <PUBCHEM_CACTVS_COMPLEXITY>
431

> <PUBCHEM_CACTVS_HBOND_ACCEPTOR>
2

> <PUBCHEM_CACTVS_HBOND_DONOR>
2

> <PUBCHEM_CACTVS_ROTATABLE_BOND>
1

> <PUBCHEM_CACTVS_SUBSKEYS>
AAADcfB4MAAAAAAAAAAAAAAAAAAAAAAAAAAAAAAAAAAAAAAAAAAAGgAACAAADVSggAICAAAAAgCAAiBCAAAAAAAgAAAICAAAAAgAFAIAAQAAUAAFgAAIEAMAgEAOgAAAAAAAAAAAAAAAAAAAAAAAAAAAAA==

> <PUBCHEM_IUPAC_OPENEYE_NAME>
(1S,3R,4E,8E,12S,13E)-12-isopropyl-1,5,9-trimethyl-cyclotetradeca-4,8,13-triene-1,3-diol

> <PUBCHEM_IUPAC_CAS_NAME>
(1S,3R,4E,8E,12S,13E)-1,5,9-trimethyl-12-propan-2-ylcyclotetradeca-4,8,13-triene-1,3-diol

> <PUBCHEM_IUPAC_NAME>
(1S,3R,4E,8E,12S,13E)-1,5,9-trimethyl-12-propan-2-ylcyclotetradeca-4,8,13-triene-1,3-diol

> <PUBCHEM_IUPAC_SYSTEMATIC_NAME>
(1S,3R,4E,8E,12S,13E)-1,5,9-trimethyl-12-propan-2-yl-cyclotetradeca-4,8,13-triene-1,3-diol

> <PUBCHEM_IUPAC_TRADITIONAL_NAME>
(1S,3R,4E,8E,12S,13E)-12-isopropyl-1,5,9-trimethyl-cyclotetradeca-4,8,13-triene-1,3-diol

> <PUBCHEM_IUPAC_INCHI>
InChI=1S/C20H34O2/c1-15(2)18-10-9-16(3)7-6-8-17(4)13-19(21)14-20(5,22)12-11-18/h7,11-13,15,18-19,21-22H,6,8-10,14H2,1-5H3/b12-11+,16-7+,17-13+/t18-,19+,20-/m1/s1

> <PUBCHEM_IUPAC_INCHIKEY>
RIVKDDXPCFBMOV-PTDQARIVSA-N

> <PUBCHEM_XLOGP3_AA>
4

> <PUBCHEM_EXACT_MASS>
306.25588

> <PUBCHEM_MOLECULAR_FORMULA>
C20H34O2

> <PUBCHEM_MOLECULAR_WEIGHT>
306.48276

> <PUBCHEM_OPENEYE_CAN_SMILES>
CC1=CCCC(=CC(CC(C=CC(CC1)C(C)C)(C)O)O)C

> <PUBCHEM_OPENEYE_ISO_SMILES>
C/C/1=C\CC/C(=C/[C@@H](C[C@](/C=C/[C@@H](CC1)C(C)C)(C)O)O)/C

> <PUBCHEM_CACTVS_TPSA>
40.5

> <PUBCHEM_MONOISOTOPIC_WEIGHT>
306.25588

> <PUBCHEM_TOTAL_CHARGE>
0

> <PUBCHEM_HEAVY_ATOM_COUNT>
22

> <PUBCHEM_ATOM_DEF_STEREO_COUNT>
3

> <PUBCHEM_ATOM_UDEF_STEREO_COUNT>
0

> <PUBCHEM_BOND_DEF_STEREO_COUNT>
3

> <PUBCHEM_BOND_UDEF_STEREO_COUNT>
0

> <PUBCHEM_ISOTOPIC_ATOM_COUNT>
0

> <PUBCHEM_COMPONENT_COUNT>
1

> <PUBCHEM_CACTVS_TAUTO_COUNT>
1

> <PUBCHEM_COORDINATE_TYPE>
1
5
255

> <PUBCHEM_BONDANNOTATIONS>
6  1  6
13  2  6
3  4  6

$$$$

