582959
  -OEChem-06241222442D

 28 28  0     1  0  0  0  0  0999 V2000
    5.4641    1.9400    0.0000 O   0  0  0  0  0  0  0  0  0  0  0  0
    2.8660    2.4400    0.0000 O   0  0  0  0  0  0  0  0  0  0  0  0
    5.4641    3.9400    0.0000 O   0  0  0  0  0  0  0  0  0  0  0  0
    2.8660    0.4400    0.0000 N   0  0  0  0  0  0  0  0  0  0  0  0
    2.8660   -4.5600    0.0000 N   0  0  0  0  0  0  0  0  0  0  0  0
    4.5981    2.4400    0.0000 C   0  0  3  0  0  0  0  0  0  0  0  0
    3.7320    0.9400    0.0000 C   0  0  0  0  0  0  0  0  0  0  0  0
    3.7320    1.9400    0.0000 C   0  0  0  0  0  0  0  0  0  0  0  0
    2.8660   -0.5600    0.0000 C   0  0  0  0  0  0  0  0  0  0  0  0
    4.5981    3.4400    0.0000 C   0  0  0  0  0  0  0  0  0  0  0  0
    2.0000   -1.0600    0.0000 C   0  0  0  0  0  0  0  0  0  0  0  0
    3.7320   -1.0600    0.0000 C   0  0  0  0  0  0  0  0  0  0  0  0
    2.0000   -2.0600    0.0000 C   0  0  0  0  0  0  0  0  0  0  0  0
    3.7320   -2.0600    0.0000 C   0  0  0  0  0  0  0  0  0  0  0  0
    2.8660   -2.5600    0.0000 C   0  0  0  0  0  0  0  0  0  0  0  0
    2.8660   -3.5600    0.0000 C   0  0  0  0  0  0  0  0  0  0  0  0
    4.5981    1.5900    0.0000 H   0  0  0  0  0  0  0  0  0  0  0  0
    3.9441    0.3574    0.0000 H   0  0  0  0  0  0  0  0  0  0  0  0
    4.3426    1.0477    0.0000 H   0  0  0  0  0  0  0  0  0  0  0  0
    2.3291    0.7500    0.0000 H   0  0  0  0  0  0  0  0  0  0  0  0
    4.3860    4.0226    0.0000 H   0  0  0  0  0  0  0  0  0  0  0  0
    3.9875    3.3323    0.0000 H   0  0  0  0  0  0  0  0  0  0  0  0
    1.4631   -0.7500    0.0000 H   0  0  0  0  0  0  0  0  0  0  0  0
    4.2690   -0.7500    0.0000 H   0  0  0  0  0  0  0  0  0  0  0  0
    1.4631   -2.3700    0.0000 H   0  0  0  0  0  0  0  0  0  0  0  0
    4.2690   -2.3700    0.0000 H   0  0  0  0  0  0  0  0  0  0  0  0
    6.0010    2.2500    0.0000 H   0  0  0  0  0  0  0  0  0  0  0  0
    5.4641    4.5600    0.0000 H   0  0  0  0  0  0  0  0  0  0  0  0
  1  6  1  0  0  0  0
  1 27  1  0  0  0  0
  2  8  2  0  0  0  0
  3 10  1  0  0  0  0
  3 28  1  0  0  0  0
  4  7  1  0  0  0  0
  4  9  1  0  0  0  0
  4 20  1  0  0  0  0
  5 16  3  0  0  0  0
  6  8  1  0  0  0  0
  6 10  1  0  0  0  0
  6 17  1  0  0  0  0
  7  8  1  0  0  0  0
  7 18  1  0  0  0  0
  7 19  1  0  0  0  0
  9 11  2  0  0  0  0
  9 12  1  0  0  0  0
 10 21  1  0  0  0  0
 10 22  1  0  0  0  0
 11 13  1  0  0  0  0
 11 23  1  0  0  0  0
 12 14  2  0  0  0  0
 12 24  1  0  0  0  0
 13 15  2  0  0  0  0
 13 25  1  0  0  0  0
 14 15  1  0  0  0  0
 14 26  1  0  0  0  0
 15 16  1  0  0  0  0
M  END
> <PUBCHEM_COMPOUND_CID>
582959

> <PUBCHEM_COMPOUND_CANONICALIZED>
1

> <PUBCHEM_CACTVS_COMPLEXITY>
276

> <PUBCHEM_CACTVS_HBOND_ACCEPTOR>
5

> <PUBCHEM_CACTVS_HBOND_DONOR>
3

> <PUBCHEM_CACTVS_ROTATABLE_BOND>
5

> <PUBCHEM_CACTVS_SUBSKEYS>
AAADccBzMAAAAAAAAAAAAAAAAAAAAAAAAAAwAAAAAAAAAAABAAAAHgAQCAAADBzhmAYwwILAAgCYBqRSQAKiAAAhAgAIiIHIZIgJsCbAkbGEYAhmsADJyA8wgAAOCAAAAAAAAAAQAAAAAAAAAAAAAAAAAA==

> <PUBCHEM_IUPAC_OPENEYE_NAME>
4-[(3,4-dihydroxy-2-oxo-butyl)amino]benzonitrile

> <PUBCHEM_IUPAC_CAS_NAME>
4-[(3,4-dihydroxy-2-oxobutyl)amino]benzonitrile

> <PUBCHEM_IUPAC_NAME>
4-[(3,4-dihydroxy-2-oxobutyl)amino]benzonitrile

> <PUBCHEM_IUPAC_SYSTEMATIC_NAME>
4-[[3,4-bis(oxidanyl)-2-oxidanylidene-butyl]amino]benzenecarbonitrile

> <PUBCHEM_IUPAC_TRADITIONAL_NAME>
4-[(3,4-dihydroxy-2-keto-butyl)amino]benzonitrile

> <PUBCHEM_IUPAC_INCHI>
InChI=1S/C11H12N2O3/c12-5-8-1-3-9(4-2-8)13-6-10(15)11(16)7-14/h1-4,11,13-14,16H,6-7H2

> <PUBCHEM_IUPAC_INCHIKEY>
KXYMGYWTHOHAHZ-UHFFFAOYSA-N

> <PUBCHEM_XLOGP3_AA>
0.6

> <PUBCHEM_EXACT_MASS>
220.084792

> <PUBCHEM_MOLECULAR_FORMULA>
C11H12N2O3

> <PUBCHEM_MOLECULAR_WEIGHT>
220.22458

> <PUBCHEM_OPENEYE_CAN_SMILES>
C1=CC(=CC=C1C#N)NCC(=O)C(CO)O

> <PUBCHEM_OPENEYE_ISO_SMILES>
C1=CC(=CC=C1C#N)NCC(=O)C(CO)O

> <PUBCHEM_CACTVS_TPSA>
93.4

> <PUBCHEM_MONOISOTOPIC_WEIGHT>
220.084792

> <PUBCHEM_TOTAL_CHARGE>
0

> <PUBCHEM_HEAVY_ATOM_COUNT>
16

> <PUBCHEM_ATOM_DEF_STEREO_COUNT>
0

> <PUBCHEM_ATOM_UDEF_STEREO_COUNT>
1

> <PUBCHEM_BOND_DEF_STEREO_COUNT>
0

> <PUBCHEM_BOND_UDEF_STEREO_COUNT>
0

> <PUBCHEM_ISOTOPIC_ATOM_COUNT>
0

> <PUBCHEM_COMPONENT_COUNT>
1

> <PUBCHEM_CACTVS_TAUTO_COUNT>
7

> <PUBCHEM_COORDINATE_TYPE>
1
5
255

> <PUBCHEM_BONDANNOTATIONS>
11  13  8
12  14  8
13  15  8
14  15  8
6  17  3
9  11  8
9  12  8

$$$$

