64696
  -OEChem-07051213002D

 41 43  0     1  0  0  0  0  0999 V2000
    5.1350    0.3391    0.0000 O   0  0  0  0  0  0  0  0  0  0  0  0
    6.0010   -1.1609    0.0000 O   0  0  0  0  0  0  0  0  0  0  0  0
    2.5369   -1.1609    0.0000 O   0  0  0  0  0  0  0  0  0  0  0  0
    7.9719    3.6240    0.0000 N   0  0  0  0  0  0  0  0  0  0  0  0
    8.7086    2.6414    0.0000 C   0  0  3  0  0  0  0  0  0  0  0  0
    8.4497    1.6755    0.0000 C   0  0  3  0  0  0  0  0  0  0  0  0
   10.5405    1.8826    0.0000 C   0  0  0  0  0  0  0  0  0  0  0  0
   10.2817    0.9166    0.0000 C   0  0  0  0  0  0  0  0  0  0  0  0
    6.1056    1.8336    0.0000 C   0  0  0  0  0  0  0  0  0  0  0  0
    6.9146    0.4323    0.0000 C   0  0  0  0  0  0  0  0  0  0  0  0
    6.0010    0.8391    0.0000 C   0  0  0  0  0  0  0  0  0  0  0  0
    5.1350   -0.6609    0.0000 C   0  0  0  0  0  0  0  0  0  0  0  0
    4.2690   -1.1609    0.0000 C   0  0  1  0  0  0  0  0  0  0  0  0
    4.2690   -2.1609    0.0000 C   0  0  0  0  0  0  0  0  0  0  0  0
    3.4030   -0.6609    0.0000 C   0  0  0  0  0  0  0  0  0  0  0  0
    3.4030   -2.6609    0.0000 C   0  0  0  0  0  0  0  0  0  0  0  0
    5.1350   -2.6609    0.0000 C   0  0  0  0  0  0  0  0  0  0  0  0
    3.4030   -3.6609    0.0000 C   0  0  0  0  0  0  0  0  0  0  0  0
    5.1350   -3.6609    0.0000 C   0  0  0  0  0  0  0  0  0  0  0  0
    4.2690   -4.1609    0.0000 C   0  0  0  0  0  0  0  0  0  0  0  0
    8.6801    2.0220    0.0000 H   0  0  0  0  0  0  0  0  0  0  0  0
    8.5387    1.0619    0.0000 H   0  0  0  0  0  0  0  0  0  0  0  0
   11.1318    1.6961    0.0000 H   0  0  0  0  0  0  0  0  0  0  0  0
   10.0696    0.3340    0.0000 H   0  0  0  0  0  0  0  0  0  0  0  0
   10.8730    0.7302    0.0000 H   0  0  0  0  0  0  0  0  0  0  0  0
   10.7526    2.4652    0.0000 H   0  0  0  0  0  0  0  0  0  0  0  0
    6.0033    2.4451    0.0000 H   0  0  0  0  0  0  0  0  0  0  0  0
    5.4858    1.8147    0.0000 H   0  0  0  0  0  0  0  0  0  0  0  0
    6.5769   -0.0877    0.0000 H   0  0  0  0  0  0  0  0  0  0  0  0
    7.3753    0.0175    0.0000 H   0  0  0  0  0  0  0  0  0  0  0  0
    5.4811    1.1767    0.0000 H   0  0  0  0  0  0  0  0  0  0  0  0
    7.6619    4.1609    0.0000 H   0  0  0  0  0  0  0  0  0  0  0  0
    4.2690   -0.5409    0.0000 H   0  0  0  0  0  0  0  0  0  0  0  0
    3.8015   -0.1860    0.0000 H   0  0  0  0  0  0  0  0  0  0  0  0
    3.0044   -0.1860    0.0000 H   0  0  0  0  0  0  0  0  0  0  0  0
    2.8660   -2.3509    0.0000 H   0  0  0  0  0  0  0  0  0  0  0  0
    5.6720   -2.3509    0.0000 H   0  0  0  0  0  0  0  0  0  0  0  0
    2.0000   -0.8509    0.0000 H   0  0  0  0  0  0  0  0  0  0  0  0
    2.8660   -3.9709    0.0000 H   0  0  0  0  0  0  0  0  0  0  0  0
    5.6720   -3.9709    0.0000 H   0  0  0  0  0  0  0  0  0  0  0  0
    4.2690   -4.7809    0.0000 H   0  0  0  0  0  0  0  0  0  0  0  0
  1 11  1  0  0  0  0
  1 12  1  0  0  0  0
  2 12  2  0  0  0  0
  3 15  1  0  0  0  0
  3 38  1  0  0  0  0
  4  5  1  0  0  0  0
  4  6  1  0  0  0  0
  4 32  1  0  0  0  0
  5  7  1  0  0  0  0
  5  9  1  0  0  0  0
  5 21  1  0  0  0  0
  6  8  1  0  0  0  0
  6 10  1  0  0  0  0
  6 22  1  0  0  0  0
  7  8  1  0  0  0  0
  7 23  1  0  0  0  0
  7 26  1  0  0  0  0
  8 24  1  0  0  0  0
  8 25  1  0  0  0  0
  9 11  1  0  0  0  0
  9 27  1  0  0  0  0
  9 28  1  0  0  0  0
 10 11  1  0  0  0  0
 10 29  1  0  0  0  0
 10 30  1  0  0  0  0
 11 31  1  0  0  0  0
 12 13  1  0  0  0  0
 13 14  1  0  0  0  0
 13 15  1  1  0  0  0
 13 33  1  0  0  0  0
 14 16  2  0  0  0  0
 14 17  1  0  0  0  0
 15 34  1  0  0  0  0
 15 35  1  0  0  0  0
 16 18  1  0  0  0  0
 16 36  1  0  0  0  0
 17 19  2  0  0  0  0
 17 37  1  0  0  0  0
 18 20  2  0  0  0  0
 18 39  1  0  0  0  0
 19 20  1  0  0  0  0
 19 40  1  0  0  0  0
 20 41  1  0  0  0  0
M  END
> <PUBCHEM_COMPOUND_CID>
64696

> <PUBCHEM_COMPOUND_CANONICALIZED>
1

> <PUBCHEM_CACTVS_COMPLEXITY>
329

> <PUBCHEM_CACTVS_HBOND_ACCEPTOR>
4

> <PUBCHEM_CACTVS_HBOND_DONOR>
2

> <PUBCHEM_CACTVS_ROTATABLE_BOND>
5

> <PUBCHEM_CACTVS_SUBSKEYS>
AAADceB6MAAAAAAAAAAAAAAAAAAAAWAAAAA8QAAABgAAAAABAAAAHgAQCAAADTzhmAYwCILABgCIAiDSCAACAAAgAAAIiIEIAIgIMDaAlRCGYAAn8AGIiAeYyOCOgAAAAAAAAAAAAAAAAAAAAAAAAAAAAA==

> <PUBCHEM_IUPAC_OPENEYE_NAME>
8-azabicyclo[3.2.1]octan-3-yl (2S)-3-hydroxy-2-phenyl-propanoate

> <PUBCHEM_IUPAC_CAS_NAME>
(2S)-3-hydroxy-2-phenylpropanoic acid 8-azabicyclo[3.2.1]octan-3-yl ester

> <PUBCHEM_IUPAC_NAME>
8-azabicyclo[3.2.1]octan-3-yl (2S)-3-hydroxy-2-phenylpropanoate

> <PUBCHEM_IUPAC_SYSTEMATIC_NAME>
8-azabicyclo[3.2.1]octan-3-yl (2S)-3-oxidanyl-2-phenyl-propanoate

> <PUBCHEM_IUPAC_TRADITIONAL_NAME>
(2S)-3-hydroxy-2-phenyl-propionic acid 8-azabicyclo[3.2.1]octan-3-yl ester

> <PUBCHEM_IUPAC_INCHI>
InChI=1S/C16H21NO3/c18-10-15(11-4-2-1-3-5-11)16(19)20-14-8-12-6-7-13(9-14)17-12/h1-5,12-15,17-18H,6-10H2/t12?,13?,14?,15-/m1/s1

> <PUBCHEM_IUPAC_INCHIKEY>
ATKYNAZQGVYHIB-MLGYPOCJSA-N

> <PUBCHEM_XLOGP3>
1.4

> <PUBCHEM_EXACT_MASS>
275.152144

> <PUBCHEM_MOLECULAR_FORMULA>
C16H21NO3

> <PUBCHEM_MOLECULAR_WEIGHT>
275.34284

> <PUBCHEM_OPENEYE_CAN_SMILES>
C1CC2CC(CC1N2)OC(=O)C(CO)C3=CC=CC=C3

> <PUBCHEM_OPENEYE_ISO_SMILES>
C1CC2CC(CC1N2)OC(=O)[C@H](CO)C3=CC=CC=C3

> <PUBCHEM_CACTVS_TPSA>
58.6

> <PUBCHEM_MONOISOTOPIC_WEIGHT>
275.152144

> <PUBCHEM_TOTAL_CHARGE>
0

> <PUBCHEM_HEAVY_ATOM_COUNT>
20

> <PUBCHEM_ATOM_DEF_STEREO_COUNT>
1

> <PUBCHEM_ATOM_UDEF_STEREO_COUNT>
2

> <PUBCHEM_BOND_DEF_STEREO_COUNT>
0

> <PUBCHEM_BOND_UDEF_STEREO_COUNT>
0

> <PUBCHEM_ISOTOPIC_ATOM_COUNT>
0

> <PUBCHEM_COMPONENT_COUNT>
1

> <PUBCHEM_CACTVS_TAUTO_COUNT>
1

> <PUBCHEM_COORDINATE_TYPE>
1
5
255

> <PUBCHEM_BONDANNOTATIONS>
13  15  5
14  16  8
14  17  8
16  18  8
17  19  8
18  20  8
19  20  8
5  7  3
6  8  3

$$$$

