41322
  -OEChem-07051213062D

 37 42  0     1  0  0  0  0  0999 V2000
    2.0000    1.6309    0.0000 O   0  0  0  0  0  0  0  0  0  0  0  0
    3.8045    3.6795    0.0000 O   0  0  0  0  0  0  0  0  0  0  0  0
    5.5704    2.6417    0.0000 O   0  0  0  0  0  0  0  0  0  0  0  0
    2.8986    2.1587    0.0000 C   0  0  3  0  0  0  0  0  0  0  0  0
    2.9066    1.1171    0.0000 C   0  0  3  0  0  0  0  0  0  0  0  0
    3.8006    2.6795    0.0000 C   0  0  3  0  0  0  0  0  0  0  0  0
    3.8166    0.6103    0.0000 C   0  0  0  0  0  0  0  0  0  0  0  0
    4.6987    2.1518    0.0000 C   0  0  3  0  0  0  0  0  0  0  0  0
    4.6826    1.1102    0.0000 C   0  0  0  0  0  0  0  0  0  0  0  0
    3.8166   -0.3897    0.0000 C   0  0  0  0  0  0  0  0  0  0  0  0
    4.6826   -0.8897    0.0000 C   0  0  0  0  0  0  0  0  0  0  0  0
    5.5486    0.6103    0.0000 C   0  0  0  0  0  0  0  0  0  0  0  0
    5.5486   -0.3897    0.0000 C   0  0  0  0  0  0  0  0  0  0  0  0
    4.6987   -1.9312    0.0000 C   0  0  0  0  0  0  0  0  0  0  0  0
    2.9066   -0.8966    0.0000 C   0  0  0  0  0  0  0  0  0  0  0  0
    3.8006   -2.4590    0.0000 C   0  0  0  0  0  0  0  0  0  0  0  0
    5.5758   -2.3940    0.0000 C   0  0  0  0  0  0  0  0  0  0  0  0
    6.4081   -0.8845    0.0000 C   0  0  0  0  0  0  0  0  0  0  0  0
    2.8986   -1.9382    0.0000 C   0  0  0  0  0  0  0  0  0  0  0  0
    6.4216   -1.8761    0.0000 C   0  0  0  0  0  0  0  0  0  0  0  0
    3.8267   -3.5005    0.0000 C   0  0  0  0  0  0  0  0  0  0  0  0
    5.6260   -3.4346    0.0000 C   0  0  0  0  0  0  0  0  0  0  0  0
    4.7455   -3.9916    0.0000 C   0  0  0  0  0  0  0  0  0  0  0  0
    2.5866    2.6945    0.0000 H   0  0  0  0  0  0  0  0  0  0  0  0
    2.6029    0.5766    0.0000 H   0  0  0  0  0  0  0  0  0  0  0  0
    4.3394    2.9864    0.0000 H   0  0  0  0  0  0  0  0  0  0  0  0
    4.7047    2.7717    0.0000 H   0  0  0  0  0  0  0  0  0  0  0  0
    6.0856    0.9203    0.0000 H   0  0  0  0  0  0  0  0  0  0  0  0
    3.2688    3.9916    0.0000 H   0  0  0  0  0  0  0  0  0  0  0  0
    2.3733   -0.5804    0.0000 H   0  0  0  0  0  0  0  0  0  0  0  0
    5.5776    3.2617    0.0000 H   0  0  0  0  0  0  0  0  0  0  0  0
    6.9427   -0.5706    0.0000 H   0  0  0  0  0  0  0  0  0  0  0  0
    2.3604   -2.2461    0.0000 H   0  0  0  0  0  0  0  0  0  0  0  0
    6.9645   -2.1755    0.0000 H   0  0  0  0  0  0  0  0  0  0  0  0
    3.2990   -3.8259    0.0000 H   0  0  0  0  0  0  0  0  0  0  0  0
    6.1761   -3.7205    0.0000 H   0  0  0  0  0  0  0  0  0  0  0  0
    4.7682   -4.6112    0.0000 H   0  0  0  0  0  0  0  0  0  0  0  0
  1  4  1  0  0  0  0
  1  5  1  0  0  0  0
  2  6  1  0  0  0  0
  2 29  1  0  0  0  0
  3  8  1  0  0  0  0
  3 31  1  0  0  0  0
  4  5  1  0  0  0  0
  4  6  1  0  0  0  0
  4 24  1  0  0  0  0
  5  7  1  0  0  0  0
  5 25  1  0  0  0  0
  6  8  1  0  0  0  0
  6 26  1  0  0  0  0
  7  9  2  0  0  0  0
  7 10  1  0  0  0  0
  8  9  1  0  0  0  0
  8 27  1  0  0  0  0
  9 12  1  0  0  0  0
 10 11  2  0  0  0  0
 10 15  1  0  0  0  0
 11 13  1  0  0  0  0
 11 14  1  0  0  0  0
 12 13  2  0  0  0  0
 12 28  1  0  0  0  0
 13 18  1  0  0  0  0
 14 16  1  0  0  0  0
 14 17  2  0  0  0  0
 15 19  2  0  0  0  0
 15 30  1  0  0  0  0
 16 19  1  0  0  0  0
 16 21  2  0  0  0  0
 17 20  1  0  0  0  0
 17 22  1  0  0  0  0
 18 20  2  0  0  0  0
 18 32  1  0  0  0  0
 19 33  1  0  0  0  0
 20 34  1  0  0  0  0
 21 23  1  0  0  0  0
 21 35  1  0  0  0  0
 22 23  2  0  0  0  0
 22 36  1  0  0  0  0
 23 37  1  0  0  0  0
M  END
> <PUBCHEM_COMPOUND_CID>
41322

> <PUBCHEM_COMPOUND_CANONICALIZED>
1

> <PUBCHEM_CACTVS_COMPLEXITY>
507

> <PUBCHEM_CACTVS_HBOND_ACCEPTOR>
3

> <PUBCHEM_CACTVS_HBOND_DONOR>
2

> <PUBCHEM_CACTVS_ROTATABLE_BOND>
0

> <PUBCHEM_CACTVS_SUBSKEYS>
AAADccB4MAAAAAAAAAAAAAAAEgAAAAAAAAAwYMGDBIAAAADBVAAAGgAACAAADBSgmAIwAMAABgCAAiBCAAACAAAgAAAIiAAACIgJNiKAMRiCcAAlwAELuAfA4PwOwAACAAAQAADCAAYQADCAAAAAAAAAAA==

> <PUBCHEM_IUPAC_INCHI>
InChI=1S/C20H14O3/c21-17-13-8-11-5-4-9-2-1-3-10-6-7-12(15(11)14(9)10)16(13)19-20(23-19)18(17)22/h1-8,17-22H

> <PUBCHEM_IUPAC_INCHIKEY>
DQEPMTIXHXSFOR-UHFFFAOYSA-N

> <PUBCHEM_XLOGP3_AA>
2.9

> <PUBCHEM_EXACT_MASS>
302.094294

> <PUBCHEM_MOLECULAR_FORMULA>
C20H14O3

> <PUBCHEM_MOLECULAR_WEIGHT>
302.32336

> <PUBCHEM_OPENEYE_CAN_SMILES>
C1=CC2=C3C(=C1)C=CC4=C3C(=CC5=C4C6C(O6)C(C5O)O)C=C2

> <PUBCHEM_OPENEYE_ISO_SMILES>
C1=CC2=C3C(=C1)C=CC4=C3C(=CC5=C4C6C(O6)C(C5O)O)C=C2

> <PUBCHEM_CACTVS_TPSA>
53

> <PUBCHEM_MONOISOTOPIC_WEIGHT>
302.094294

> <PUBCHEM_TOTAL_CHARGE>
0

> <PUBCHEM_HEAVY_ATOM_COUNT>
23

> <PUBCHEM_ATOM_DEF_STEREO_COUNT>
0

> <PUBCHEM_ATOM_UDEF_STEREO_COUNT>
4

> <PUBCHEM_BOND_DEF_STEREO_COUNT>
0

> <PUBCHEM_BOND_UDEF_STEREO_COUNT>
0

> <PUBCHEM_ISOTOPIC_ATOM_COUNT>
0

> <PUBCHEM_COMPONENT_COUNT>
1

> <PUBCHEM_CACTVS_TAUTO_COUNT>
1

> <PUBCHEM_COORDINATE_TYPE>
1
5
255

> <PUBCHEM_BONDANNOTATIONS>
4  1  3
5  1  3
10  11  8
10  15  8
11  13  8
11  14  8
12  13  8
13  18  8
14  16  8
14  17  8
15  19  8
16  19  8
16  21  8
17  20  8
17  22  8
18  20  8
6  2  3
21  23  8
22  23  8
8  3  3
7  10  8
7  9  8
9  12  8

$$$$

