   Color/Form
        YELLOW NEEDLES FROM DIL ACETONE, GREENISH-YELLOW PLATES FROM
   ALCOHOL.
   from [1]HSDB

   Odor
        Musty odor
   from [2]HSDB

   Boiling Point
        56.7 DEG C
   from [3]HSDB

   Melting Point
        187.5-188 DEG C
   from [4]HSDB

   Density/Specific Gravity
        1.615 g/ml @ 14 DEG C
   from [5]HSDB

   Dissociation Constants
        pKa: 18.46
   from [6]HSDB

   Octanol/Water Partition Coefficient
        log Kow= 1.84 (est)
   from [7]HSDB

   Solubilities

     * SOL IN HOT HYDROCHLORIC ACID
     * PRACTICALLY INSOL IN COLD WATER; VERY SPARINGLY SOL IN BOILING
       WATER; 5.8 PARTS SOL IN 100 PARTS 88% ALCOHOL @ 18 DEG C; 1 PART
       SOL IN 132.6 PARTS OF 95% ALCOHOL @ 21 DEG C

   from [8]HSDB

   Spectral Properties

     * MAX ABSORPTION (ACETIC ACID): 257 NM (LOG E= 3.79); 335 NM (LOG E=
       2.94); SADTLER REF NUMBER: 1287 (IR, PRISM); 231 (IR, GRATING)
     * IR: 6260 (Coblentz Society Spectral Collection)
     * UV: 387 (Sadtler Research Laboratories Spectral Collection)
     * NMR: 3290 (Sadtler Research Laboratories Spectral Collection)
     * MASS: 953 (National Bureau of Standards EPA-NIH Mass Spectra Data
       Base, NSRDS-NBS-63)

   from [9]HSDB

   Vapor Density
        6.31 (AIR= 1)
   from [10]HSDB

   Vapor Pressure
        5.94X10-7 mm Hg at 25 deg C (est)
   from [11]HSDB

   Other Chemical/Physical Properties

     * IR: 11388 (Sadtler Research Laboratories Prism Collection)
       /2,3-Dinitroaniline/
     * UV: 3120 (Sadtler Research Laboratories Spectral Collection)
       /2,3-Dinitroaniline/
     * IR: 17483 (Sadtler Research Laboratories Prism Collection)
       /2,6-Dinitroaniline/
     * UV: 5551 (Sadtler Research Laboratories Spectral Collection)
       /2,6-Dinitroaniline/
     * MASS: 953 (National Bureau of Standards EPA-NIH Mass Spectra Data
       Base, NSRDS-NBS-63) /2,6-Dinitroaniline/
     * IR: 778 (Sadtler Research Laboratories IR Grating Collection)
       /3,5-Dinitroaniline/
     * UV: 9712 (Sadtler Research Laboratories Spectral Collection)
       /3,5-Dinitroaniline/
     * NMR: 1836 (Sadtler Research Laboratories Spectral Collection)
       /3,5-Dinitroaniline/

   from [12]HSDB

   Computed Properties
   Molecular Weight                  183.1216 [g/mol]
   Molecular Formula                 C[6]H[5]N[3]O[4]
   XLogP3                            1
   H-Bond Donor                      1
   H-Bond Acceptor                   5
   Rotatable Bond Count              0
   Exact Mass                        183.028006
   MonoIsotopic Mass                 183.028006
   Topological Polar Surface Area    118
   Heavy Atom Count                  13
   Formal Charge                     0
   Complexity                        221
   Isotope Atom Count                0
   Defined Atom Stereocenter Count   0
   Undefined Atom Stereocenter Count 0
   Defined Bond Stereocenter Count   0
   Undefined Bond Stereocenter Count 0
   Covalently-Bonded Unit Count      1
   Feature 3D Acceptor Count         4
   Feature 3D Donor Count            1
   Feature 3D Anion Count            2
   Feature 3D Cation Count           1
   Feature 3D Ring Count             1
   Effective Rotor Count             2
   Conformer Sampling RMSD           0.6
   CID Conformer Count               [13]1

References

   1. http://toxnet.nlm.nih.gov/cgi-bin/sis/search/r?dbs+hsdb:@term+@rn+@rel+97-02-9
   2. http://toxnet.nlm.nih.gov/cgi-bin/sis/search/r?dbs+hsdb:@term+@rn+@rel+97-02-9
   3. http://toxnet.nlm.nih.gov/cgi-bin/sis/search/r?dbs+hsdb:@term+@rn+@rel+97-02-9
   4. http://toxnet.nlm.nih.gov/cgi-bin/sis/search/r?dbs+hsdb:@term+@rn+@rel+97-02-9
   5. http://toxnet.nlm.nih.gov/cgi-bin/sis/search/r?dbs+hsdb:@term+@rn+@rel+97-02-9
   6. http://toxnet.nlm.nih.gov/cgi-bin/sis/search/r?dbs+hsdb:@term+@rn+@rel+97-02-9
   7. http://toxnet.nlm.nih.gov/cgi-bin/sis/search/r?dbs+hsdb:@term+@rn+@rel+97-02-9
   8. http://toxnet.nlm.nih.gov/cgi-bin/sis/search/r?dbs+hsdb:@term+@rn+@rel+97-02-9
   9. http://toxnet.nlm.nih.gov/cgi-bin/sis/search/r?dbs+hsdb:@term+@rn+@rel+97-02-9
  10. http://toxnet.nlm.nih.gov/cgi-bin/sis/search/r?dbs+hsdb:@term+@rn+@rel+97-02-9
  11. http://toxnet.nlm.nih.gov/cgi-bin/sis/search/r?dbs+hsdb:@term+@rn+@rel+97-02-9
  12. http://toxnet.nlm.nih.gov/cgi-bin/sis/search/r?dbs+hsdb:@term+@rn+@rel+97-02-9
  13. http://pubchem.ncbi.nlm.nih.gov/vw3d/vw3d.cgi?cid=7321
