17396060
  -OEChem-06241222542D

 54 58  0     1  0  0  0  0  0999 V2000
    6.1822   -1.0796    0.0000 O   0  0  0  0  0  0  0  0  0  0  0  0
    4.9575   -2.3044    0.0000 O   0  0  0  0  0  0  0  0  0  0  0  0
    5.4050    1.8170    0.0000 O   0  0  0  0  0  0  0  0  0  0  0  0
    8.2136   -0.5943    0.0000 O   0  0  0  0  0  0  0  0  0  0  0  0
    3.6730    1.8170    0.0000 N   0  0  0  0  0  0  0  0  0  0  0  0
    8.6324   -2.1572    0.0000 N   0  0  0  0  0  0  0  0  0  0  0  0
    9.2122   -0.6466    0.0000 N   0  0  0  0  0  0  0  0  0  0  0  0
    3.6730    0.8170    0.0000 C   0  0  0  0  0  0  0  0  0  0  0  0
    4.5092   -0.6314    0.0000 C   0  0  0  0  0  0  0  0  0  0  0  0
    2.9819   -1.0665    0.0000 C   0  0  3  0  0  0  0  0  0  0  0  0
    2.8368   -0.6314    0.0000 C   0  0  3  0  0  0  0  0  0  0  0  0
    4.5092    0.3342    0.0000 C   0  0  0  0  0  0  0  0  0  0  0  0
    2.9819   -0.0212    0.0000 C   0  0  0  0  0  0  0  0  0  0  0  0
    2.8368    0.3342    0.0000 C   0  0  0  0  0  0  0  0  0  0  0  0
    3.6730   -0.9341    0.0000 C   0  0  0  0  0  0  0  0  0  0  0  0
    3.8876   -1.5433    0.0000 C   0  0  0  0  0  0  0  0  0  0  0  0
    2.0000   -1.1141    0.0000 C   0  0  0  0  0  0  0  0  0  0  0  0
    5.2163   -1.3385    0.0000 C   0  0  0  0  0  0  0  0  0  0  0  0
    4.5390    2.3170    0.0000 C   0  0  0  0  0  0  0  0  0  0  0  0
    4.5390    3.3170    0.0000 C   0  0  0  0  0  0  0  0  0  0  0  0
    6.8893   -1.7867    0.0000 C   0  0  0  0  0  0  0  0  0  0  0  0
    7.8553   -1.5279    0.0000 C   0  0  0  0  0  0  0  0  0  0  0  0
    9.4711   -1.6126    0.0000 C   0  0  0  0  0  0  0  0  0  0  0  0
   10.4047   -1.9709    0.0000 C   0  0  0  0  0  0  0  0  0  0  0  0
   11.1818   -1.3416    0.0000 C   0  0  0  0  0  0  0  0  0  0  0  0
   10.5611   -2.9586    0.0000 C   0  0  0  0  0  0  0  0  0  0  0  0
   12.1154   -1.6999    0.0000 C   0  0  0  0  0  0  0  0  0  0  0  0
   11.4947   -3.3170    0.0000 C   0  0  0  0  0  0  0  0  0  0  0  0
   12.2718   -2.6876    0.0000 C   0  0  0  0  0  0  0  0  0  0  0  0
    2.8912   -1.2490    0.0000 H   0  0  0  0  0  0  0  0  0  0  0  0
    2.8478   -1.6718    0.0000 H   0  0  0  0  0  0  0  0  0  0  0  0
    5.1198    0.2265    0.0000 H   0  0  0  0  0  0  0  0  0  0  0  0
    4.7212    0.9168    0.0000 H   0  0  0  0  0  0  0  0  0  0  0  0
    2.6247    0.9168    0.0000 H   0  0  0  0  0  0  0  0  0  0  0  0
    2.2262    0.2265    0.0000 H   0  0  0  0  0  0  0  0  0  0  0  0
    2.6383    0.4949    0.0000 H   0  0  0  0  0  0  0  0  0  0  0  0
    2.3885   -0.2007    0.0000 H   0  0  0  0  0  0  0  0  0  0  0  0
    3.3030   -1.4317    0.0000 H   0  0  0  0  0  0  0  0  0  0  0  0
    4.0430   -1.4317    0.0000 H   0  0  0  0  0  0  0  0  0  0  0  0
    3.5782   -2.0805    0.0000 H   0  0  0  0  0  0  0  0  0  0  0  0
    4.4127   -1.8728    0.0000 H   0  0  0  0  0  0  0  0  0  0  0  0
    1.5188   -0.7232    0.0000 H   0  0  0  0  0  0  0  0  0  0  0  0
    1.8068   -1.7033    0.0000 H   0  0  0  0  0  0  0  0  0  0  0  0
    3.1361    2.1270    0.0000 H   0  0  0  0  0  0  0  0  0  0  0  0
    5.1590    3.3170    0.0000 H   0  0  0  0  0  0  0  0  0  0  0  0
    4.5390    3.9370    0.0000 H   0  0  0  0  0  0  0  0  0  0  0  0
    3.9190    3.3170    0.0000 H   0  0  0  0  0  0  0  0  0  0  0  0
    6.3815   -2.1424    0.0000 H   0  0  0  0  0  0  0  0  0  0  0  0
    7.1514   -2.3486    0.0000 H   0  0  0  0  0  0  0  0  0  0  0  0
   11.0848   -0.7292    0.0000 H   0  0  0  0  0  0  0  0  0  0  0  0
   10.0793   -3.3488    0.0000 H   0  0  0  0  0  0  0  0  0  0  0  0
   12.5972   -1.3098    0.0000 H   0  0  0  0  0  0  0  0  0  0  0  0
   11.5917   -3.9293    0.0000 H   0  0  0  0  0  0  0  0  0  0  0  0
   12.8507   -2.9098    0.0000 H   0  0  0  0  0  0  0  0  0  0  0  0
  1 18  1  0  0  0  0
  1 21  1  0  0  0  0
  2 18  2  0  0  0  0
  3 19  2  0  0  0  0
  4  7  1  0  0  0  0
  4 22  1  0  0  0  0
  5  8  1  0  0  0  0
  5 19  1  0  0  0  0
  5 44  1  0  0  0  0
  6 22  2  0  0  0  0
  6 23  1  0  0  0  0
  7 23  2  0  0  0  0
  8 12  1  0  0  0  0
  8 13  1  0  0  0  0
  8 14  1  0  0  0  0
  9 12  1  0  0  0  0
  9 15  1  0  0  0  0
  9 16  1  0  0  0  0
  9 18  1  0  0  0  0
 10 13  1  0  0  0  0
 10 16  1  0  0  0  0
 10 17  1  0  0  0  0
 10 31  1  0  0  0  0
 11 14  1  0  0  0  0
 11 15  1  0  0  0  0
 11 17  1  0  0  0  0
 11 30  1  0  0  0  0
 12 32  1  0  0  0  0
 12 33  1  0  0  0  0
 13 36  1  0  0  0  0
 13 37  1  0  0  0  0
 14 34  1  0  0  0  0
 14 35  1  0  0  0  0
 15 38  1  0  0  0  0
 15 39  1  0  0  0  0
 16 40  1  0  0  0  0
 16 41  1  0  0  0  0
 17 42  1  0  0  0  0
 17 43  1  0  0  0  0
 19 20  1  0  0  0  0
 20 45  1  0  0  0  0
 20 46  1  0  0  0  0
 20 47  1  0  0  0  0
 21 22  1  0  0  0  0
 21 48  1  0  0  0  0
 21 49  1  0  0  0  0
 23 24  1  0  0  0  0
 24 25  2  0  0  0  0
 24 26  1  0  0  0  0
 25 27  1  0  0  0  0
 25 50  1  0  0  0  0
 26 28  2  0  0  0  0
 26 51  1  0  0  0  0
 27 29  2  0  0  0  0
 27 52  1  0  0  0  0
 28 29  1  0  0  0  0
 28 53  1  0  0  0  0
 29 54  1  0  0  0  0
M  END
> <PUBCHEM_COMPOUND_CID>
17396060

> <PUBCHEM_COMPOUND_CANONICALIZED>
1

> <PUBCHEM_CACTVS_COMPLEXITY>
648

> <PUBCHEM_CACTVS_HBOND_ACCEPTOR>
6

> <PUBCHEM_CACTVS_HBOND_DONOR>
1

> <PUBCHEM_CACTVS_ROTATABLE_BOND>
6

> <PUBCHEM_CACTVS_SUBSKEYS>
AAADceB7OAAAAAAAAAAAAAAAAAAAAWAAAAAwYMGDAAAAAAABwAAAHgAUAAAAD4ihmwIzGIbYFACpAiPyPgaCgAkgAKApiCFwBJiLKLKAmRWHIAhklQKaiAe8yOCPAAAAAAAAAAAAAASAAAAAAAAAAAAAAA==

> <PUBCHEM_IUPAC_OPENEYE_NAME>
(3-phenyl-1,2,4-oxadiazol-5-yl)methyl 3-acetamidoadamantane-1-carboxylate

> <PUBCHEM_IUPAC_CAS_NAME>
3-acetamido-1-adamantanecarboxylic acid (3-phenyl-1,2,4-oxadiazol-5-yl)methyl ester

> <PUBCHEM_IUPAC_NAME>
(3-phenyl-1,2,4-oxadiazol-5-yl)methyl 3-acetamidoadamantane-1-carboxylate

> <PUBCHEM_IUPAC_SYSTEMATIC_NAME>
(3-phenyl-1,2,4-oxadiazol-5-yl)methyl 3-acetamidoadamantane-1-carboxylate

> <PUBCHEM_IUPAC_TRADITIONAL_NAME>
3-acetamidoadamantane-1-carboxylic acid (3-phenyl-1,2,4-oxadiazol-5-yl)methyl ester

> <PUBCHEM_IUPAC_INCHI>
InChI=1S/C22H25N3O4/c1-14(26)24-22-10-15-7-16(11-22)9-21(8-15,13-22)20(27)28-12-18-23-19(25-29-18)17-5-3-2-4-6-17/h2-6,15-16H,7-13H2,1H3,(H,24,26)

> <PUBCHEM_IUPAC_INCHIKEY>
NZBVFKSAQYFFSJ-UHFFFAOYSA-N

> <PUBCHEM_XLOGP3_AA>
2.7

> <PUBCHEM_EXACT_MASS>
395.184506

> <PUBCHEM_MOLECULAR_FORMULA>
C22H25N3O4

> <PUBCHEM_MOLECULAR_WEIGHT>
395.4516

> <PUBCHEM_OPENEYE_CAN_SMILES>
CC(=O)NC12CC3CC(C1)CC(C3)(C2)C(=O)OCC4=NC(=NO4)C5=CC=CC=C5

> <PUBCHEM_OPENEYE_ISO_SMILES>
CC(=O)NC12CC3CC(C1)CC(C3)(C2)C(=O)OCC4=NC(=NO4)C5=CC=CC=C5

> <PUBCHEM_CACTVS_TPSA>
94.3

> <PUBCHEM_MONOISOTOPIC_WEIGHT>
395.184506

> <PUBCHEM_TOTAL_CHARGE>
0

> <PUBCHEM_HEAVY_ATOM_COUNT>
29

> <PUBCHEM_ATOM_DEF_STEREO_COUNT>
0

> <PUBCHEM_ATOM_UDEF_STEREO_COUNT>
2

> <PUBCHEM_BOND_DEF_STEREO_COUNT>
0

> <PUBCHEM_BOND_UDEF_STEREO_COUNT>
0

> <PUBCHEM_ISOTOPIC_ATOM_COUNT>
0

> <PUBCHEM_COMPONENT_COUNT>
1

> <PUBCHEM_CACTVS_TAUTO_COUNT>
2

> <PUBCHEM_COORDINATE_TYPE>
1
5
255

> <PUBCHEM_BONDANNOTATIONS>
10  17  3
11  17  3
24  25  8
24  26  8
25  27  8
26  28  8
27  29  8
28  29  8
4  22  8
4  7  8
6  22  8
6  23  8
7  23  8

$$$$

