   Chemical and Physical Properties References

   [1]USDA ARS - USDA chemical properties
   from [2]ChemIDplus

   Color/Form

     * WHITE CRYSTALLINE SOLID OR POWDER
     * CRYSTALS FROM COLD METHANOL
     * White to tan, crystalline solid or powder [Note: The commercial
       product in xylene is a tan liquid].
     * Colorless crystals
     * Light brown liquid

   from [3]HSDB

   Odor

     * Pungent, garlic-like odor.
     * Odorless
     * Organophosphate odor

   from [4]HSDB

   Boiling Point
        154 deg C at 136 Pa
   from [5]HSDB

   Melting Point
        35 to 36 deg C
   from [6]HSDB

   Density/Specific Gravity
        1.358 AT 20 DEG C/4 DEG C
   from [7]HSDB

   Octanol/Water Partition Coefficient
        log Kow= 2.86
   from [8]HSDB

   Solubilities

     * SOL IN ETHANOL, CHLOROFORM, ALIPHATIC SOLVENTS
     * In water, 55 mg/l at 20 deg C.
     * Readily soluble in common organic solvents, e.g. dichloromethane,
       toluene >200, hexane 10 to 20 (all in g/l at 20 deg C). Sparingly
       soluble in petroleum ether and some types of mineral oil.
     * Readily soluble in 2-propanol.

   from [9]HSDB

   Spectral Properties

     * INDEX OF REFRACTION: 1.5367 AT 25 DEG C/D
     * Intense mass spectral peaks: 263 m/z (100%), 125 m/z (99%), 109 m/z
       (99%), 79 m/z (39%)
     * Intense mass spectral peaks: 233 m/z

   from [10]HSDB

   Vapor Pressure
        0.2 mPa at 20 deg C.
   from [11]HSDB

   Other Chemical/Physical Properties

     * VOLATILITY: 0.14 MG/CU M AT 20 DEG C
     * Characteristic odor, Like rotten eggs or garlic /Technical grade/
     * HYDROLYZES & ISOMERIZES EASILY
     * Light to dark tan-colored liquid; melting point approx. 29 deg C;
       density = 1.2 to 1.22 /Technical grade/.
     * Henry's Law constant = 8.57X10-3 Pa/cu m mol
     * Hydrolyzes in alkaline and acidic media (approx. 5 times more
       rapidly than parathion); half- life is 68 days at pH 5, 40 days at
       pH 7, 33 days at pH 9 (all at 25 deg C). Isomerizes on heating, to
       the O,S-dimethyl analogue. Photodegrades in water.
     * Compatible with most other pesticides except alkaline materials.

   from [12]HSDB

   Computed Properties
   Molecular Weight                  263.207462 [g/mol]
   Molecular Formula                 C[8]H[10]NO[5]PS
   XLogP3                            2.9
   H-Bond Donor                      0
   H-Bond Acceptor                   6
   Rotatable Bond Count              4
   Exact Mass                        263.00173
   MonoIsotopic Mass                 263.00173
   Topological Polar Surface Area    106
   Heavy Atom Count                  16
   Formal Charge                     0
   Complexity                        279
   Isotope Atom Count                0
   Defined Atom Stereocenter Count   0
   Undefined Atom Stereocenter Count 0
   Defined Bond Stereocenter Count   0
   Undefined Bond Stereocenter Count 0
   Covalently-Bonded Unit Count      1
   Feature 3D Acceptor Count         2
   Feature 3D Anion Count            1
   Feature 3D Ring Count             1
   Effective Rotor Count             5
   Conformer Sampling RMSD           0.6
   CID Conformer Count               [13]18

References

   1. http://www.ars.usda.gov/SP2UserFiles/ad_hoc/12755100DatabaseFiles/PesticidePropertiesDatabase/IndividualPesticideFiles/METHYL_PARATHION.TXT
   2. http://chem.sis.nlm.nih.gov/chemidplus/
   3. http://toxnet.nlm.nih.gov/cgi-bin/sis/search/r?dbs+hsdb:@term+@rn+@rel+298-00-0
   4. http://toxnet.nlm.nih.gov/cgi-bin/sis/search/r?dbs+hsdb:@term+@rn+@rel+298-00-0
   5. http://toxnet.nlm.nih.gov/cgi-bin/sis/search/r?dbs+hsdb:@term+@rn+@rel+298-00-0
   6. http://toxnet.nlm.nih.gov/cgi-bin/sis/search/r?dbs+hsdb:@term+@rn+@rel+298-00-0
   7. http://toxnet.nlm.nih.gov/cgi-bin/sis/search/r?dbs+hsdb:@term+@rn+@rel+298-00-0
   8. http://toxnet.nlm.nih.gov/cgi-bin/sis/search/r?dbs+hsdb:@term+@rn+@rel+298-00-0
   9. http://toxnet.nlm.nih.gov/cgi-bin/sis/search/r?dbs+hsdb:@term+@rn+@rel+298-00-0
  10. http://toxnet.nlm.nih.gov/cgi-bin/sis/search/r?dbs+hsdb:@term+@rn+@rel+298-00-0
  11. http://toxnet.nlm.nih.gov/cgi-bin/sis/search/r?dbs+hsdb:@term+@rn+@rel+298-00-0
  12. http://toxnet.nlm.nih.gov/cgi-bin/sis/search/r?dbs+hsdb:@term+@rn+@rel+298-00-0
  13. http://pubchem.ncbi.nlm.nih.gov/vw3d/vw3d.cgi?cid=4130
