23724653
  -OEChem-07051213082D

 20 20  0     1  0  0  0  0  0999 V2000
    5.4641   -1.0000    0.0000 Cl  0  0  0  0  0  0  0  0  0  0  0  0
    2.0000   -1.0000    0.0000 Cl  0  0  0  0  0  0  0  0  0  0  0  0
    5.4641    1.0000    0.0000 Cl  0  0  0  0  0  0  0  0  0  0  0  0
    2.0000    1.0000    0.0000 Cl  0  0  0  0  0  0  0  0  0  0  0  0
    3.7320   -2.0000    0.0000 O   0  0  0  0  0  0  0  0  0  0  0  0
    3.7320    2.0000    0.0000 O   0  0  0  0  0  0  0  0  0  0  0  0
    3.7320   -1.0000    0.0000 C   0  0  0  0  0  0  0  0  0  0  0  0
    3.7320    1.0000    0.0000 C   0  0  0  0  0  0  0  0  0  0  0  0
    2.8660   -0.5000    0.0000 C   0  0  2  0  0  0  0  0  0  0  0  0
    4.5981   -0.5000    0.0000 C   0  0  1  0  0  0  0  0  0  0  0  0
    2.8660    0.5000    0.0000 C   0  0  2  0  0  0  0  0  0  0  0  0
    4.5981    0.5000    0.0000 C   0  0  1  0  0  0  0  0  0  0  0  0
    4.2690   -1.3100    0.0000 H   0  0  0  0  0  0  0  0  0  0  0  0
    4.2690    1.3100    0.0000 H   0  0  0  0  0  0  0  0  0  0  0  0
    4.5981   -1.1200    0.0000 H   0  0  0  0  0  0  0  0  0  0  0  0
    2.8660   -1.1200    0.0000 H   0  0  0  0  0  0  0  0  0  0  0  0
    4.5981    1.1200    0.0000 H   0  0  0  0  0  0  0  0  0  0  0  0
    2.8660    1.1200    0.0000 H   0  0  0  0  0  0  0  0  0  0  0  0
    3.1951   -2.3100    0.0000 H   0  0  0  0  0  0  0  0  0  0  0  0
    4.2690    2.3100    0.0000 H   0  0  0  0  0  0  0  0  0  0  0  0
 10  1  1  1  0  0  0
  9  2  1  1  0  0  0
 12  3  1  6  0  0  0
 11  4  1  6  0  0  0
  5  7  1  0  0  0  0
  5 19  1  0  0  0  0
  6  8  1  0  0  0  0
  6 20  1  0  0  0  0
  7  9  1  0  0  0  0
  7 10  1  0  0  0  0
  7 13  1  0  0  0  0
  8 11  1  0  0  0  0
  8 12  1  0  0  0  0
  8 14  1  0  0  0  0
  9 11  1  0  0  0  0
  9 16  1  0  0  0  0
 10 12  1  0  0  0  0
 10 15  1  0  0  0  0
 11 18  1  0  0  0  0
 12 17  1  0  0  0  0
M  END
> <PUBCHEM_COMPOUND_CID>
23724653

> <PUBCHEM_COMPOUND_CANONICALIZED>
1

> <PUBCHEM_CACTVS_COMPLEXITY>
134

> <PUBCHEM_CACTVS_HBOND_ACCEPTOR>
2

> <PUBCHEM_CACTVS_HBOND_DONOR>
2

> <PUBCHEM_CACTVS_ROTATABLE_BOND>
0

> <PUBCHEM_CACTVS_SUBSKEYS>
AAADccBgMAAHAAAAAAAAAAAAAAAAAAAAAAAwAAAAAAAAAAAAAAAAGgIACAAACBeggEIAAAAAAgAAAAAAAAAAAAAAAAAAAEAAAwAAEAIBAAAAQAAEAAAAAAHAQAAAAAAAAAAAAAACACACAQAQCAAAAAAAAA==

> <PUBCHEM_IUPAC_OPENEYE_NAME>
(2R,3R,5S,6S)-2,3,5,6-tetrachlorocyclohexane-1,4-diol

> <PUBCHEM_IUPAC_CAS_NAME>
(2R,3R,5S,6S)-2,3,5,6-tetrachlorocyclohexane-1,4-diol

> <PUBCHEM_IUPAC_NAME>
(2R,3R,5S,6S)-2,3,5,6-tetrachlorocyclohexane-1,4-diol

> <PUBCHEM_IUPAC_SYSTEMATIC_NAME>
(2R,3R,5S,6S)-2,3,5,6-tetrakis(chloranyl)cyclohexane-1,4-diol

> <PUBCHEM_IUPAC_TRADITIONAL_NAME>
(2R,3R,5S,6S)-2,3,5,6-tetrachlorocyclohexane-1,4-diol

> <PUBCHEM_IUPAC_INCHI>
InChI=1S/C6H8Cl4O2/c7-1-2(8)6(12)4(10)3(9)5(1)11/h1-6,11-12H/t1-,2-,3+,4+,5?,6?

> <PUBCHEM_IUPAC_INCHIKEY>
HEKABVPXDRPMAT-FYRFQUNGSA-N

> <PUBCHEM_XLOGP3>
1.3

> <PUBCHEM_EXACT_MASS>
253.92489

> <PUBCHEM_MOLECULAR_FORMULA>
C6H8Cl4O2

> <PUBCHEM_MOLECULAR_WEIGHT>
253.93852

> <PUBCHEM_OPENEYE_CAN_SMILES>
C1(C(C(C(C(C1Cl)Cl)O)Cl)Cl)O

> <PUBCHEM_OPENEYE_ISO_SMILES>
[C@H]1([C@H](C([C@H]([C@@H](C1O)Cl)Cl)O)Cl)Cl

> <PUBCHEM_CACTVS_TPSA>
40.5

> <PUBCHEM_MONOISOTOPIC_WEIGHT>
251.92784

> <PUBCHEM_TOTAL_CHARGE>
0

> <PUBCHEM_HEAVY_ATOM_COUNT>
12

> <PUBCHEM_ATOM_DEF_STEREO_COUNT>
4

> <PUBCHEM_ATOM_UDEF_STEREO_COUNT>
0

> <PUBCHEM_BOND_DEF_STEREO_COUNT>
0

> <PUBCHEM_BOND_UDEF_STEREO_COUNT>
0

> <PUBCHEM_ISOTOPIC_ATOM_COUNT>
0

> <PUBCHEM_COMPONENT_COUNT>
1

> <PUBCHEM_CACTVS_TAUTO_COUNT>
1

> <PUBCHEM_COORDINATE_TYPE>
1
5
255

> <PUBCHEM_BONDANNOTATIONS>
10  1  5
9  2  5
12  3  6
11  4  6

$$$$

