   Color/Form
        Green crystals with metallic luster
   from [1]HSDB

   Octanol/Water Partition Coefficient
        log Kow = 0.62
   from [2]HSDB

   pH
        1% sol in water has a pH of 1.4
   from [3]HSDB

   Solubilities

     * Sol in alcohol, methanol, amyl alcohol
     * Sol 1 /part/ in 15 /parts/ of water and 1 /part/ in 15 /parts/ of
       alcohol.
     * Very soluble in ethanol
     * In water, 4.0X10+4 mg/L at 25 deg C

   from [4]HSDB

   Spectral Properties

     * Max absorption: 616.9 nm
     * MASS: 7774 (NIST/EPA/MSDC Mass Spectra Database, 1990 version)

   from [5]HSDB

   Vapor Pressure
        2.4X10-13 mm Hg at 25 deg C /Estimated/
   from [6]HSDB

   Other Chemical/Physical Properties
        Water soln are blue-green; yellow below pH 2; as acid-base
   indicator; ph: 0.0 yellow; 2.0 green; 11.6 blue-green; 14 colorless.
   from [7]HSDB

   Computed Properties
   Molecular Weight                  364.911 [g/mol]
   Molecular Formula                 C[23]H[25]ClN[2]
   H-Bond Donor                      0
   H-Bond Acceptor                   2
   Rotatable Bond Count              3
   Exact Mass                        364.170626
   MonoIsotopic Mass                 364.170626
   Topological Polar Surface Area    6.2
   Heavy Atom Count                  26
   Formal Charge                     0
   Complexity                        516
   Isotope Atom Count                0
   Defined Atom Stereocenter Count   0
   Undefined Atom Stereocenter Count 0
   Defined Bond Stereocenter Count   0
   Undefined Bond Stereocenter Count 0
   Covalently-Bonded Unit Count      2

References

   1. http://toxnet.nlm.nih.gov/cgi-bin/sis/search/r?dbs+hsdb:@term+@rn+@rel+569-64-2
   2. http://toxnet.nlm.nih.gov/cgi-bin/sis/search/r?dbs+hsdb:@term+@rn+@rel+569-64-2
   3. http://toxnet.nlm.nih.gov/cgi-bin/sis/search/r?dbs+hsdb:@term+@rn+@rel+569-64-2
   4. http://toxnet.nlm.nih.gov/cgi-bin/sis/search/r?dbs+hsdb:@term+@rn+@rel+569-64-2
   5. http://toxnet.nlm.nih.gov/cgi-bin/sis/search/r?dbs+hsdb:@term+@rn+@rel+569-64-2
   6. http://toxnet.nlm.nih.gov/cgi-bin/sis/search/r?dbs+hsdb:@term+@rn+@rel+569-64-2
   7. http://toxnet.nlm.nih.gov/cgi-bin/sis/search/r?dbs+hsdb:@term+@rn+@rel+569-64-2
