220
  -OEChem-07051212512D

 32 32  0     0  0  0  0  0  0999 V2000
    4.5000    0.5390    0.0000 S   0  0  0  0  0  0  0  0  0  0  0  0
    4.0000    1.4050    0.0000 P   0  0  0  0  0  0  0  0  0  0  0  0
    3.1340    0.9050    0.0000 O   0  0  0  0  0  0  0  0  0  0  0  0
    4.8660    1.9050    0.0000 O   0  0  0  0  0  0  0  0  0  0  0  0
    3.5000    2.2710    0.0000 O   0  0  0  0  0  0  0  0  0  0  0  0
    3.1340   -3.0950    0.0000 N   0  0  0  0  0  0  0  0  0  0  0  0
    3.1340   -0.0950    0.0000 C   0  0  0  0  0  0  0  0  0  0  0  0
    4.8660    2.9050    0.0000 C   0  0  0  0  0  0  0  0  0  0  0  0
    2.5000    2.2710    0.0000 C   0  0  0  0  0  0  0  0  0  0  0  0
    2.2680   -0.5950    0.0000 C   0  0  0  0  0  0  0  0  0  0  0  0
    4.0000   -0.5950    0.0000 C   0  0  0  0  0  0  0  0  0  0  0  0
    3.1340   -2.0950    0.0000 C   0  0  0  0  0  0  0  0  0  0  0  0
    2.2680   -1.5950    0.0000 C   0  0  0  0  0  0  0  0  0  0  0  0
    4.0000   -1.5950    0.0000 C   0  0  0  0  0  0  0  0  0  0  0  0
    5.7320    3.4050    0.0000 C   0  0  0  0  0  0  0  0  0  0  0  0
    2.0000    3.1370    0.0000 C   0  0  0  0  0  0  0  0  0  0  0  0
    4.6540    3.4876    0.0000 H   0  0  0  0  0  0  0  0  0  0  0  0
    4.2554    2.7973    0.0000 H   0  0  0  0  0  0  0  0  0  0  0  0
    1.9174    2.0590    0.0000 H   0  0  0  0  0  0  0  0  0  0  0  0
    2.6077    1.6604    0.0000 H   0  0  0  0  0  0  0  0  0  0  0  0
    1.7310   -0.2850    0.0000 H   0  0  0  0  0  0  0  0  0  0  0  0
    4.5369   -0.2850    0.0000 H   0  0  0  0  0  0  0  0  0  0  0  0
    1.7310   -1.9050    0.0000 H   0  0  0  0  0  0  0  0  0  0  0  0
    4.5369   -1.9050    0.0000 H   0  0  0  0  0  0  0  0  0  0  0  0
    6.0420    2.8681    0.0000 H   0  0  0  0  0  0  0  0  0  0  0  0
    6.2690    3.7150    0.0000 H   0  0  0  0  0  0  0  0  0  0  0  0
    5.4220    3.9419    0.0000 H   0  0  0  0  0  0  0  0  0  0  0  0
    2.5369    3.4470    0.0000 H   0  0  0  0  0  0  0  0  0  0  0  0
    1.6900    3.6740    0.0000 H   0  0  0  0  0  0  0  0  0  0  0  0
    1.4631    2.8270    0.0000 H   0  0  0  0  0  0  0  0  0  0  0  0
    2.5970   -3.4050    0.0000 H   0  0  0  0  0  0  0  0  0  0  0  0
    3.6709   -3.4050    0.0000 H   0  0  0  0  0  0  0  0  0  0  0  0
  1  2  2  0  0  0  0
  2  3  1  0  0  0  0
  2  4  1  0  0  0  0
  2  5  1  0  0  0  0
  3  7  1  0  0  0  0
  4  8  1  0  0  0  0
  5  9  1  0  0  0  0
  6 12  1  0  0  0  0
  6 31  1  0  0  0  0
  6 32  1  0  0  0  0
  7 10  2  0  0  0  0
  7 11  1  0  0  0  0
  8 15  1  0  0  0  0
  8 17  1  0  0  0  0
  8 18  1  0  0  0  0
  9 16  1  0  0  0  0
  9 19  1  0  0  0  0
  9 20  1  0  0  0  0
 10 13  1  0  0  0  0
 10 21  1  0  0  0  0
 11 14  2  0  0  0  0
 11 22  1  0  0  0  0
 12 13  2  0  0  0  0
 12 14  1  0  0  0  0
 13 23  1  0  0  0  0
 14 24  1  0  0  0  0
 15 25  1  0  0  0  0
 15 26  1  0  0  0  0
 15 27  1  0  0  0  0
 16 28  1  0  0  0  0
 16 29  1  0  0  0  0
 16 30  1  0  0  0  0
M  END
> <PUBCHEM_COMPOUND_CID>
220

> <PUBCHEM_COMPOUND_CANONICALIZED>
1

> <PUBCHEM_CACTVS_COMPLEXITY>
234

> <PUBCHEM_CACTVS_HBOND_ACCEPTOR>
5

> <PUBCHEM_CACTVS_HBOND_DONOR>
1

> <PUBCHEM_CACTVS_ROTATABLE_BOND>
6

> <PUBCHEM_CACTVS_SUBSKEYS>
AAADceByMAJAAAAAAAAAAAAAAAAAAAAAAAAwAAAAAAAAAAABAAAAHgAQACAACAyhkAIyxoBAARCAACRCQACCAAAgIgAIiAAGbIgIJiKAkZOAMABk0BEIyAewQAAAAEAAAAAAAAAAgAAAAAAAAAAAAAAAAA==

> <PUBCHEM_IUPAC_OPENEYE_NAME>
4-diethoxyphosphinothioyloxyaniline

> <PUBCHEM_IUPAC_CAS_NAME>
4-diethoxyphosphinothioyloxyaniline

> <PUBCHEM_IUPAC_NAME>
4-diethoxyphosphinothioyloxyaniline

> <PUBCHEM_IUPAC_SYSTEMATIC_NAME>
4-diethoxyphosphinothioyloxyaniline

> <PUBCHEM_IUPAC_TRADITIONAL_NAME>
(4-diethoxythiophosphoryloxyphenyl)amine

> <PUBCHEM_IUPAC_INCHI>
InChI=1S/C10H16NO3PS/c1-3-12-15(16,13-4-2)14-10-7-5-9(11)6-8-10/h5-8H,3-4,11H2,1-2H3

> <PUBCHEM_IUPAC_INCHIKEY>
XIZOTXGJXSTQDI-UHFFFAOYSA-N

> <PUBCHEM_XLOGP3>
2.6

> <PUBCHEM_EXACT_MASS>
261.058851

> <PUBCHEM_MOLECULAR_FORMULA>
C10H16NO3PS

> <PUBCHEM_MOLECULAR_WEIGHT>
261.277702

> <PUBCHEM_OPENEYE_CAN_SMILES>
CCOP(=S)(OCC)OC1=CC=C(C=C1)N

> <PUBCHEM_OPENEYE_ISO_SMILES>
CCOP(=S)(OCC)OC1=CC=C(C=C1)N

> <PUBCHEM_CACTVS_TPSA>
85.8

> <PUBCHEM_MONOISOTOPIC_WEIGHT>
261.058851

> <PUBCHEM_TOTAL_CHARGE>
0

> <PUBCHEM_HEAVY_ATOM_COUNT>
16

> <PUBCHEM_ATOM_DEF_STEREO_COUNT>
0

> <PUBCHEM_ATOM_UDEF_STEREO_COUNT>
0

> <PUBCHEM_BOND_DEF_STEREO_COUNT>
0

> <PUBCHEM_BOND_UDEF_STEREO_COUNT>
0

> <PUBCHEM_ISOTOPIC_ATOM_COUNT>
0

> <PUBCHEM_COMPONENT_COUNT>
1

> <PUBCHEM_CACTVS_TAUTO_COUNT>
1

> <PUBCHEM_COORDINATE_TYPE>
1
5
255

> <PUBCHEM_BONDANNOTATIONS>
10  13  8
11  14  8
12  13  8
12  14  8
7  10  8
7  11  8

$$$$

