   Color/Form

     * White to off white crystalline solid
     * Colorless granular solid from ethanol/benzene

   from [1]HSDB

   Melting Point
        165-166 deg C
   from [2]HSDB

   Octanol/Water Partition Coefficient
        log Kow = -0.72 at 37 deg C
   from [3]HSDB

   Solubilities

     * 30 mg/mL in propylene glycol at 23 deg C
     * In water, 83 mg/mL at 23 deg C

   from [4]HSDB

   Spectral Properties
        UV max = 266 nm
   from [5]HSDB

   Vapor Pressure
        9.5X10-12 mm Hg at 25 deg C /Estimated/
   from [6]HSDB

   Other Chemical/Physical Properties

     * Henry's Law constant = 2.3X10-15 atm-cu m/mole at 25 deg C
       /Estimated/
     * Hydroxyl radical reaction rate constant = 1.21X10-10 cu
       cm/molec-sec at 25 deg C /Estimated/
     * Ozone reaction rate constant = 2.1X10-16 cu cm/molec-sec at 25 deg
       C /Estimated/

   from [7]HSDB

   Computed Properties
   Molecular Weight                  224.21328 [g/mol]
   Molecular Formula                 C[10]H[12]N[2]O[4]
   XLogP3                            -0.8
   H-Bond Donor                      2
   H-Bond Acceptor                   4
   Rotatable Bond Count              2
   Tautomer Count                    3
   Exact Mass                        224.079707
   MonoIsotopic Mass                 224.079707
   Topological Polar Surface Area    78.9
   Heavy Atom Count                  16
   Formal Charge                     0
   Complexity                        388
   Isotope Atom Count                0
   Defined Atom Stereocenter Count   2
   Undefined Atom Stereocenter Count 0
   Defined Bond Stereocenter Count   0
   Undefined Bond Stereocenter Count 0
   Covalently-Bonded Unit Count      1
   Feature 3D Acceptor Count         4
   Feature 3D Donor Count            2
   Feature 3D Ring Count             2
   Effective Rotor Count             2.6
   Conformer Sampling RMSD           0.6
   CID Conformer Count               [8]8

References

   1. http://toxnet.nlm.nih.gov/cgi-bin/sis/search/r?dbs+hsdb:@term+@rn+@rel+3056-17-5
   2. http://toxnet.nlm.nih.gov/cgi-bin/sis/search/r?dbs+hsdb:@term+@rn+@rel+3056-17-5
   3. http://toxnet.nlm.nih.gov/cgi-bin/sis/search/r?dbs+hsdb:@term+@rn+@rel+3056-17-5
   4. http://toxnet.nlm.nih.gov/cgi-bin/sis/search/r?dbs+hsdb:@term+@rn+@rel+3056-17-5
   5. http://toxnet.nlm.nih.gov/cgi-bin/sis/search/r?dbs+hsdb:@term+@rn+@rel+3056-17-5
   6. http://toxnet.nlm.nih.gov/cgi-bin/sis/search/r?dbs+hsdb:@term+@rn+@rel+3056-17-5
   7. http://toxnet.nlm.nih.gov/cgi-bin/sis/search/r?dbs+hsdb:@term+@rn+@rel+3056-17-5
   8. http://pubchem.ncbi.nlm.nih.gov/vw3d/vw3d.cgi?cid=18283
