   Color/Form

     * White crystals
     * Colorless or white crystalline solid ...

   from [1]HSDB

   Odor

     * Distinctive aromatic odor becomes very strong at concn between 30 &
       60 ppm
     * Penetrating odor
     * ... Mothball-like odor

   from [2]HSDB

   Boiling Point
        174 deg C at 760 mm Hg
   from [3]HSDB

   Melting Point
        53.09 deg C
   from [4]HSDB

   Corrosivity
        Non-corrosive
   from [5]HSDB

   Critical Temperature and Pressure
        Crticial temperature: 407.5 deg C; Critical pressure: 4109 kPa
   from [6]HSDB

   Density/Specific Gravity
        1.2475 g/mL at 20 deg C/4 deg C
   from [7]HSDB

   Heat of Vaporization
        297.4 J/g
   from [8]HSDB

   Octanol/Water Partition Coefficient
        log Kow = 3.44
   from [9]HSDB

   Solubilities

     * Sol in chloroform, carbon disulfide, benzene, ether, alcohol.
     * Very soluble in ethanol and acetone; soluble in ether.
     * In water, 79 mg/L at 25 dec C

   from [10]HSDB

   Spectral Properties

     * Intense mass spectral peaks: 146 m/z (100%), 148 m/z (64%), 111 m/z
       (35%), 75 m/z (22%)
     * IR: 4279 (Coblentz Society Spectral Collection)
     * UV: 55 (Sadtler Research Laboratories Spectral Collection)
     * NMR: 715 (Sadtler Research Laboratories Spectral Collection)
     * MASS: 818 (Atlas of Mass Spectral Data, John Wiley & Sons, New
       York)

   from [11]HSDB

   Surface Tension
        31.4 dynes/cm
   from [12]HSDB

   Vapor Density
        5.08 (Air = 1)
   from [13]HSDB

   Vapor Pressure
        1.74 mm Hg at 25 deg C
   from [14]HSDB

   Viscosity
        0.839 mPa.s at 55 deg C; 0.668 mPa.s at 79 deg C
   from [15]HSDB

   Other Chemical/Physical Properties

     * Non-staining
     * Conversion factors: 1 mg/l = 166.3 ppm, 1 ppm = 6.01 mg/cu m at 25
       dec C, 760 mm Hg
     * PERCENT IN SATURATED AIR: 0.2 (25 DEG C)
     * Heat of fusion = 123.8 J/g
     * Liquid thermal conductivity= 0.105 W/m.K
     * Dielectric constant = 2.3943 at 328.2 K
     * Dipole moment: 0
     * Heat Capacity of Liquid= 1.188 J/g
     * Heat of Formation of Liquid= -284.6 J/g
     * Heat of Fusion= 123.8 J/g
     * Crystals sublime at ordinary temperatures
     * Henry's Law constant = 2.7X10-3 atm-cum/mol at 20 deg C
     * Hydroxyl radical reaction rate constant = 3.2X10-13 cu cm/molc-sec
       at 25 deg C

   from [16]HSDB

   Computed Properties
   Molecular Weight                  147.00196 [g/mol]
   Molecular Formula                 C[6]H[4]Cl[2]
   XLogP3                            3.4
   H-Bond Donor                      0
   H-Bond Acceptor                   0
   Rotatable Bond Count              0
   Exact Mass                        145.969005
   MonoIsotopic Mass                 145.969005
   Topological Polar Surface Area    0
   Heavy Atom Count                  8
   Formal Charge                     0
   Complexity                        54.9
   Isotope Atom Count                0
   Defined Atom Stereocenter Count   0
   Undefined Atom Stereocenter Count 0
   Defined Bond Stereocenter Count   0
   Undefined Bond Stereocenter Count 0
   Covalently-Bonded Unit Count      1
   Feature 3D Ring Count             1
   Effective Rotor Count             0
   Conformer Sampling RMSD           0.4
   CID Conformer Count               [17]1

References

   1. http://toxnet.nlm.nih.gov/cgi-bin/sis/search/r?dbs+hsdb:@term+@rn+@rel+106-46-7
   2. http://toxnet.nlm.nih.gov/cgi-bin/sis/search/r?dbs+hsdb:@term+@rn+@rel+106-46-7
   3. http://toxnet.nlm.nih.gov/cgi-bin/sis/search/r?dbs+hsdb:@term+@rn+@rel+106-46-7
   4. http://toxnet.nlm.nih.gov/cgi-bin/sis/search/r?dbs+hsdb:@term+@rn+@rel+106-46-7
   5. http://toxnet.nlm.nih.gov/cgi-bin/sis/search/r?dbs+hsdb:@term+@rn+@rel+106-46-7
   6. http://toxnet.nlm.nih.gov/cgi-bin/sis/search/r?dbs+hsdb:@term+@rn+@rel+106-46-7
   7. http://toxnet.nlm.nih.gov/cgi-bin/sis/search/r?dbs+hsdb:@term+@rn+@rel+106-46-7
   8. http://toxnet.nlm.nih.gov/cgi-bin/sis/search/r?dbs+hsdb:@term+@rn+@rel+106-46-7
   9. http://toxnet.nlm.nih.gov/cgi-bin/sis/search/r?dbs+hsdb:@term+@rn+@rel+106-46-7
  10. http://toxnet.nlm.nih.gov/cgi-bin/sis/search/r?dbs+hsdb:@term+@rn+@rel+106-46-7
  11. http://toxnet.nlm.nih.gov/cgi-bin/sis/search/r?dbs+hsdb:@term+@rn+@rel+106-46-7
  12. http://toxnet.nlm.nih.gov/cgi-bin/sis/search/r?dbs+hsdb:@term+@rn+@rel+106-46-7
  13. http://toxnet.nlm.nih.gov/cgi-bin/sis/search/r?dbs+hsdb:@term+@rn+@rel+106-46-7
  14. http://toxnet.nlm.nih.gov/cgi-bin/sis/search/r?dbs+hsdb:@term+@rn+@rel+106-46-7
  15. http://toxnet.nlm.nih.gov/cgi-bin/sis/search/r?dbs+hsdb:@term+@rn+@rel+106-46-7
  16. http://toxnet.nlm.nih.gov/cgi-bin/sis/search/r?dbs+hsdb:@term+@rn+@rel+106-46-7
  17. http://pubchem.ncbi.nlm.nih.gov/vw3d/vw3d.cgi?cid=4685
