40973
  -OEChem-07051212542D

 53 56  0     1  0  0  0  0  0999 V2000
    7.1640    1.8849    0.0000 O   0  0  0  0  0  0  0  0  0  0  0  0
    6.5251    0.6286    0.0000 C   0  0  1  0  0  0  0  0  0  0  0  0
    6.5251   -0.3714    0.0000 C   0  0  2  0  0  0  0  0  0  0  0  0
    5.6591   -0.8714    0.0000 C   0  0  1  0  0  0  0  0  0  0  0  0
    4.7931   -0.3714    0.0000 C   0  0  1  0  0  0  0  0  0  0  0  0
    7.4714    0.9333    0.0000 C   0  0  2  0  0  0  0  0  0  0  0  0
    7.4714   -0.6762    0.0000 C   0  0  0  0  0  0  0  0  0  0  0  0
    5.6591    1.1286    0.0000 C   0  0  0  0  0  0  0  0  0  0  0  0
    8.0550    0.1286    0.0000 C   0  0  0  0  0  0  0  0  0  0  0  0
    3.8831   -0.8783    0.0000 C   0  0  2  0  0  0  0  0  0  0  0  0
    5.6752   -1.9130    0.0000 C   0  0  0  0  0  0  0  0  0  0  0  0
    4.7931    0.6286    0.0000 C   0  0  0  0  0  0  0  0  0  0  0  0
    6.5251    1.6286    0.0000 C   0  0  0  0  0  0  0  0  0  0  0  0
    4.7771   -2.4407    0.0000 C   0  0  0  0  0  0  0  0  0  0  0  0
    3.8751   -1.9199    0.0000 C   0  0  0  0  0  0  0  0  0  0  0  0
    2.9562   -0.3142    0.0000 C   0  0  0  0  0  0  0  0  0  0  0  0
    5.6591    2.1286    0.0000 C   0  0  0  0  0  0  0  0  0  0  0  0
    8.2814    1.5197    0.0000 C   0  0  0  0  0  0  0  0  0  0  0  0
    2.0084   -0.8422    0.0000 C   0  0  0  0  0  0  0  0  0  0  0  0
    2.9396   -2.4696    0.0000 C   0  0  0  0  0  0  0  0  0  0  0  0
    3.9271    1.1286    0.0000 C   0  0  0  0  0  0  0  0  0  0  0  0
    2.0000   -1.9271    0.0000 C   0  0  0  0  0  0  0  0  0  0  0  0
    9.0914    2.1061    0.0000 C   0  0  0  0  0  0  0  0  0  0  0  0
    6.6151   -1.2167    0.0000 H   0  0  0  0  0  0  0  0  0  0  0  0
    6.3985   -1.2908    0.0000 H   0  0  0  0  0  0  0  0  0  0  0  0
    5.5292    0.0536    0.0000 H   0  0  0  0  0  0  0  0  0  0  0  0
    7.2203   -1.2431    0.0000 H   0  0  0  0  0  0  0  0  0  0  0  0
    8.0087   -0.9854    0.0000 H   0  0  0  0  0  0  0  0  0  0  0  0
    6.0576    1.6035    0.0000 H   0  0  0  0  0  0  0  0  0  0  0  0
    5.2606    1.6035    0.0000 H   0  0  0  0  0  0  0  0  0  0  0  0
    3.8995   -0.0284    0.0000 H   0  0  0  0  0  0  0  0  0  0  0  0
    8.5158   -0.2862    0.0000 H   0  0  0  0  0  0  0  0  0  0  0  0
    8.5158    0.5433    0.0000 H   0  0  0  0  0  0  0  0  0  0  0  0
    5.8932   -2.4934    0.0000 H   0  0  0  0  0  0  0  0  0  0  0  0
    6.2843   -1.7974    0.0000 H   0  0  0  0  0  0  0  0  0  0  0  0
    7.1357    1.5209    0.0000 H   0  0  0  0  0  0  0  0  0  0  0  0
    6.7372    2.2112    0.0000 H   0  0  0  0  0  0  0  0  0  0  0  0
    4.3798   -2.9167    0.0000 H   0  0  0  0  0  0  0  0  0  0  0  0
    5.1781   -2.9136    0.0000 H   0  0  0  0  0  0  0  0  0  0  0  0
    3.3645    0.1524    0.0000 H   0  0  0  0  0  0  0  0  0  0  0  0
    2.5663    0.1678    0.0000 H   0  0  0  0  0  0  0  0  0  0  0  0
    5.9691    2.6655    0.0000 H   0  0  0  0  0  0  0  0  0  0  0  0
    5.1222    2.4386    0.0000 H   0  0  0  0  0  0  0  0  0  0  0  0
    5.3491    1.5916    0.0000 H   0  0  0  0  0  0  0  0  0  0  0  0
    7.5796    2.3449    0.0000 H   0  0  0  0  0  0  0  0  0  0  0  0
    1.8038   -0.2569    0.0000 H   0  0  0  0  0  0  0  0  0  0  0  0
    1.3967   -0.9435    0.0000 H   0  0  0  0  0  0  0  0  0  0  0  0
    2.9420   -3.0896    0.0000 H   0  0  0  0  0  0  0  0  0  0  0  0
    3.9271    1.7486    0.0000 H   0  0  0  0  0  0  0  0  0  0  0  0
    3.3901    0.8186    0.0000 H   0  0  0  0  0  0  0  0  0  0  0  0
    1.3900   -1.8163    0.0000 H   0  0  0  0  0  0  0  0  0  0  0  0
    1.7864   -2.5092    0.0000 H   0  0  0  0  0  0  0  0  0  0  0  0
    9.5936    2.4696    0.0000 H   0  0  0  0  0  0  0  0  0  0  0  0
  6  1  1  1  0  0  0
  1 45  1  0  0  0  0
  2  3  1  0  0  0  0
  2  6  1  0  0  0  0
  2  8  1  0  0  0  0
  2 13  1  1  0  0  0
  3  4  1  0  0  0  0
  3  7  1  0  0  0  0
  3 24  1  6  0  0  0
  4  5  1  0  0  0  0
  4 11  1  0  0  0  0
  4 25  1  1  0  0  0
  5 10  1  0  0  0  0
  5 12  1  0  0  0  0
  5 26  1  6  0  0  0
  6  9  1  0  0  0  0
  6 18  1  0  0  0  0
  7  9  1  0  0  0  0
  7 27  1  0  0  0  0
  7 28  1  0  0  0  0
  8 12  1  0  0  0  0
  8 29  1  0  0  0  0
  8 30  1  0  0  0  0
  9 32  1  0  0  0  0
  9 33  1  0  0  0  0
 10 15  1  0  0  0  0
 10 16  1  0  0  0  0
 10 31  1  1  0  0  0
 11 14  1  0  0  0  0
 11 34  1  0  0  0  0
 11 35  1  0  0  0  0
 12 21  2  0  0  0  0
 13 17  1  0  0  0  0
 13 36  1  0  0  0  0
 13 37  1  0  0  0  0
 14 15  1  0  0  0  0
 14 38  1  0  0  0  0
 14 39  1  0  0  0  0
 15 20  2  0  0  0  0
 16 19  1  0  0  0  0
 16 40  1  0  0  0  0
 16 41  1  0  0  0  0
 17 42  1  0  0  0  0
 17 43  1  0  0  0  0
 17 44  1  0  0  0  0
 18 23  3  0  0  0  0
 19 22  1  0  0  0  0
 19 46  1  0  0  0  0
 19 47  1  0  0  0  0
 20 22  1  0  0  0  0
 20 48  1  0  0  0  0
 21 49  1  0  0  0  0
 21 50  1  0  0  0  0
 22 51  1  0  0  0  0
 22 52  1  0  0  0  0
 23 53  1  0  0  0  0
M  END
> <PUBCHEM_COMPOUND_CID>
40973

> <PUBCHEM_COMPOUND_CANONICALIZED>
1

> <PUBCHEM_CACTVS_COMPLEXITY>
605

> <PUBCHEM_CACTVS_HBOND_ACCEPTOR>
1

> <PUBCHEM_CACTVS_HBOND_DONOR>
1

> <PUBCHEM_CACTVS_ROTATABLE_BOND>
2

> <PUBCHEM_CACTVS_SUBSKEYS>
AAADceB4IAAAAAAAAAAAAAAAAAAAAYAAAAAwYIAAAAAAAGDAAAAAGgAACAAAD0SAgAACAAAAAgDAGiBCAAgAAAAgAAAACAAAAAgAAAIAAQAAQAAEgAAIAAOAwPAPgAAAAAAAAACAAAQAACAAAYAADAAAAA==

> <PUBCHEM_IUPAC_OPENEYE_NAME>
(8S,9S,10R,13S,14S,17R)-13-ethyl-17-ethynyl-11-methylene-1,2,3,6,7,8,9,10,12,14,15,16-dodecahydrocyclopenta[a]phenanthren-17-ol

> <PUBCHEM_IUPAC_CAS_NAME>
(8S,9S,10R,13S,14S,17R)-13-ethyl-17-ethynyl-11-methylene-1,2,3,6,7,8,9,10,12,14,15,16-dodecahydrocyclopenta[a]phenanthren-17-ol

> <PUBCHEM_IUPAC_NAME>
(8S,9S,10R,13S,14S,17R)-13-ethyl-17-ethynyl-11-methylidene-1,2,3,6,7,8,9,10,12,14,15,16-dodecahydrocyclopenta[a]phenanthren-17-ol

> <PUBCHEM_IUPAC_SYSTEMATIC_NAME>
(8S,9S,10R,13S,14S,17R)-13-ethyl-17-ethynyl-11-methylidene-1,2,3,6,7,8,9,10,12,14,15,16-dodecahydrocyclopenta[a]phenanthren-17-ol

> <PUBCHEM_IUPAC_TRADITIONAL_NAME>
(8S,9S,10R,13S,14S,17R)-13-ethyl-17-ethynyl-11-methylene-1,2,3,6,7,8,9,10,12,14,15,16-dodecahydrocyclopenta[a]phenanthren-17-ol

> <PUBCHEM_IUPAC_INCHI>
InChI=1S/C22H30O/c1-4-21-14-15(3)20-17-9-7-6-8-16(17)10-11-18(20)19(21)12-13-22(21,23)5-2/h2,8,17-20,23H,3-4,6-7,9-14H2,1H3/t17-,18-,19-,20+,21-,22-/m0/s1

> <PUBCHEM_IUPAC_INCHIKEY>
RPLCPCMSCLEKRS-BPIQYHPVSA-N

> <PUBCHEM_XLOGP3>
4.9

> <PUBCHEM_EXACT_MASS>
310.229666

> <PUBCHEM_MOLECULAR_FORMULA>
C22H30O

> <PUBCHEM_MOLECULAR_WEIGHT>
310.473

> <PUBCHEM_OPENEYE_CAN_SMILES>
CCC12CC(=C)C3C(C1CCC2(C#C)O)CCC4=CCCCC34

> <PUBCHEM_OPENEYE_ISO_SMILES>
CC[C@]12CC(=C)[C@H]3[C@H]([C@@H]1CC[C@]2(C#C)O)CCC4=CCCC[C@H]34

> <PUBCHEM_CACTVS_TPSA>
20.2

> <PUBCHEM_MONOISOTOPIC_WEIGHT>
310.229666

> <PUBCHEM_TOTAL_CHARGE>
0

> <PUBCHEM_HEAVY_ATOM_COUNT>
23

> <PUBCHEM_ATOM_DEF_STEREO_COUNT>
6

> <PUBCHEM_ATOM_UDEF_STEREO_COUNT>
0

> <PUBCHEM_BOND_DEF_STEREO_COUNT>
0

> <PUBCHEM_BOND_UDEF_STEREO_COUNT>
0

> <PUBCHEM_ISOTOPIC_ATOM_COUNT>
0

> <PUBCHEM_COMPONENT_COUNT>
1

> <PUBCHEM_CACTVS_TAUTO_COUNT>
1

> <PUBCHEM_COORDINATE_TYPE>
1
5
255

> <PUBCHEM_BONDANNOTATIONS>
6  1  5
10  31  5
2  13  5
3  24  6
4  25  5
5  26  6

$$$$

