11615303
  -OEChem-07051213122D

 22 20  0     0  0  0  0  0  0999 V2000
    1.4030    1.0000    0.0000 P   0  0  0  0  0  0  0  0  0  0  0  0
    0.5369    0.5000    0.0000 O   0  0  0  0  0  0  0  0  0  0  0  0
    0.9030    1.8660    0.0000 O   0  0  0  0  0  0  0  0  0  0  0  0
    1.9030    0.1340    0.0000 O   0  0  0  0  0  0  0  0  0  0  0  0
    5.7331    1.5000    0.0000 O   0  0  0  0  0  0  0  0  0  0  0  0
    4.8671    0.0000    0.0000 O   0  0  0  0  0  0  0  0  0  0  0  0
    3.1350    1.0000    0.0000 N   0  0  0  0  0  0  0  0  0  0  0  0
    3.1350    5.0230    0.0000 N   0  0  0  0  0  0  0  0  0  0  0  0
    2.2690    1.5000    0.0000 C   0  0  0  0  0  0  0  0  0  0  0  0
    4.0010    1.5000    0.0000 C   0  0  0  0  0  0  0  0  0  0  0  0
    4.8671    1.0000    0.0000 C   0  0  0  0  0  0  0  0  0  0  0  0
    2.6675    1.9750    0.0000 H   0  0  0  0  0  0  0  0  0  0  0  0
    1.8705    1.9750    0.0000 H   0  0  0  0  0  0  0  0  0  0  0  0
    3.1350    0.3800    0.0000 H   0  0  0  0  0  0  0  0  0  0  0  0
    4.3996    1.9750    0.0000 H   0  0  0  0  0  0  0  0  0  0  0  0
    3.6025    1.9750    0.0000 H   0  0  0  0  0  0  0  0  0  0  0  0
    1.2130    2.4030    0.0000 H   0  0  0  0  0  0  0  0  0  0  0  0
    0.0000    0.8100    0.0000 H   0  0  0  0  0  0  0  0  0  0  0  0
    6.2700    1.1900    0.0000 H   0  0  0  0  0  0  0  0  0  0  0  0
    3.6720    5.3330    0.0000 H   0  0  0  0  0  0  0  0  0  0  0  0
    2.5981    5.3330    0.0000 H   0  0  0  0  0  0  0  0  0  0  0  0
    3.1350    4.4030    0.0000 H   0  0  0  0  0  0  0  0  0  0  0  0
  1  2  1  0  0  0  0
  1  3  1  0  0  0  0
  1  4  2  0  0  0  0
  1  9  1  0  0  0  0
  2 18  1  0  0  0  0
  3 17  1  0  0  0  0
  5 11  1  0  0  0  0
  5 19  1  0  0  0  0
  6 11  2  0  0  0  0
  7  9  1  0  0  0  0
  7 10  1  0  0  0  0
  7 14  1  0  0  0  0
  8 20  1  0  0  0  0
  8 21  1  0  0  0  0
  8 22  1  0  0  0  0
  9 12  1  0  0  0  0
  9 13  1  0  0  0  0
 10 11  1  0  0  0  0
 10 15  1  0  0  0  0
 10 16  1  0  0  0  0
M  END
> <PUBCHEM_COMPOUND_CID>
11615303

> <PUBCHEM_COMPOUND_CANONICALIZED>
1

> <PUBCHEM_CACTVS_COMPLEXITY>
162

> <PUBCHEM_CACTVS_HBOND_ACCEPTOR>
7

> <PUBCHEM_CACTVS_HBOND_DONOR>
5

> <PUBCHEM_CACTVS_ROTATABLE_BOND>
4

> <PUBCHEM_CACTVS_SUBSKEYS>
AAADccBDOAIAAAAAAAAAAAAAAAAAAAAAAAAAAAAAAAAAAAAAAAAAHggQCCAAAADBgAQACALAAhAIQACQCIAAAAAAAAAAAICIAAACAAAAACAAAAAAAAAQAAAAAAAAAAAAAAAAAAAAAAAAAAAAAAAAAAAAAA==

> <PUBCHEM_IUPAC_OPENEYE_NAME>
ammonia; 2-(phosphonomethylamino)acetic acid

> <PUBCHEM_IUPAC_CAS_NAME>
ammonia; 2-(phosphonomethylamino)acetic acid

> <PUBCHEM_IUPAC_NAME>
azane; 2-(phosphonomethylamino)acetic acid

> <PUBCHEM_IUPAC_SYSTEMATIC_NAME>
azane; 2-(phosphonomethylamino)ethanoic acid

> <PUBCHEM_IUPAC_TRADITIONAL_NAME>
ammonia; 2-(phosphonomethylamino)acetic acid

> <PUBCHEM_IUPAC_INCHI>
InChI=1S/C3H8NO5P.H3N/c5-3(6)1-4-2-10(7,8)9;/h4H,1-2H2,(H,5,6)(H2,7,8,9);1H3

> <PUBCHEM_IUPAC_INCHIKEY>
PDYXIVPKOMYDOK-UHFFFAOYSA-N

> <PUBCHEM_EXACT_MASS>
186.040558

> <PUBCHEM_MOLECULAR_FORMULA>
C3H11N2O5P

> <PUBCHEM_MOLECULAR_WEIGHT>
186.103602

> <PUBCHEM_OPENEYE_CAN_SMILES>
C(C(=O)O)NCP(=O)(O)O.N

> <PUBCHEM_OPENEYE_ISO_SMILES>
C(C(=O)O)NCP(=O)(O)O.N

> <PUBCHEM_CACTVS_TPSA>
108

> <PUBCHEM_MONOISOTOPIC_WEIGHT>
186.040558

> <PUBCHEM_TOTAL_CHARGE>
0

> <PUBCHEM_HEAVY_ATOM_COUNT>
11

> <PUBCHEM_ATOM_DEF_STEREO_COUNT>
0

> <PUBCHEM_ATOM_UDEF_STEREO_COUNT>
0

> <PUBCHEM_BOND_DEF_STEREO_COUNT>
0

> <PUBCHEM_BOND_UDEF_STEREO_COUNT>
0

> <PUBCHEM_ISOTOPIC_ATOM_COUNT>
0

> <PUBCHEM_COMPONENT_COUNT>
2

> <PUBCHEM_CACTVS_TAUTO_COUNT>
1

> <PUBCHEM_COORDINATE_TYPE>
1
5
255

$$$$

