442541
  -OEChem-07051212582D

 64 65  0     0  0  0  0  0  0999 V2000
    4.3117   -3.5623    0.0000 O   0  0  0  0  0  0  0  0  0  0  0  0
    4.9132   -0.1507    0.0000 O   0  0  0  0  0  0  0  0  0  0  0  0
    7.5668   -2.3774    0.0000 O   0  0  0  0  0  0  0  0  0  0  0  0
    6.8828    1.5019    0.0000 O   0  0  0  0  0  0  0  0  0  0  0  0
    9.2577   -1.2640    0.0000 O   0  0  0  0  0  0  0  0  0  0  0  0
   10.3469    1.5019    0.0000 O   0  0  0  0  0  0  0  0  0  0  0  0
    7.7488    3.0019    0.0000 O   0  0  0  0  0  0  0  0  0  0  0  0
    3.2856   -0.7432    0.0000 O   0  0  0  0  0  0  0  0  0  0  0  0
   11.2129    0.0019    0.0000 O   0  0  0  0  0  0  0  0  0  0  0  0
    6.8828   -0.4981    0.0000 C   0  0  0  0  0  0  0  0  0  0  0  0
    6.2401   -1.2642    0.0000 C   0  0  0  0  0  0  0  0  0  0  0  0
    7.7488    0.0019    0.0000 C   0  0  0  0  0  0  0  0  0  0  0  0
    4.6124   -1.8566    0.0000 C   0  0  0  0  0  0  0  0  0  0  0  0
    9.4808    4.0019    0.0000 C   0  0  0  0  0  0  0  0  0  0  0  0
    5.2552   -1.0905    0.0000 C   0  0  0  0  0  0  0  0  0  0  0  0
    9.4808    3.0019    0.0000 C   0  0  0  0  0  0  0  0  0  0  0  0
    8.6148    1.5019    0.0000 C   0  0  0  0  0  0  0  0  0  0  0  0
    6.5820   -2.2038    0.0000 C   0  0  0  0  0  0  0  0  0  0  0  0
    7.7488    1.0019    0.0000 C   0  0  0  0  0  0  0  0  0  0  0  0
    5.9392   -2.9698    0.0000 C   0  0  0  0  0  0  0  0  0  0  0  0
    4.9545   -2.7963    0.0000 C   0  0  0  0  0  0  0  0  0  0  0  0
    8.6148   -0.4981    0.0000 C   0  0  0  0  0  0  0  0  0  0  0  0
    8.6148    2.5019    0.0000 C   0  0  0  0  0  0  0  0  0  0  0  0
    2.9848   -2.4490    0.0000 C   0  0  0  0  0  0  0  0  0  0  0  0
    3.6276   -1.6829    0.0000 C   0  0  0  0  0  0  0  0  0  0  0  0
    9.4808    1.0019    0.0000 C   0  0  0  0  0  0  0  0  0  0  0  0
    9.4808    0.0019    0.0000 C   0  0  0  0  0  0  0  0  0  0  0  0
   10.3469    4.5019    0.0000 C   0  0  0  0  0  0  0  0  0  0  0  0
    8.6148    4.5019    0.0000 C   0  0  0  0  0  0  0  0  0  0  0  0
    6.2812   -3.9095    0.0000 C   0  0  0  0  0  0  0  0  0  0  0  0
    2.0000   -2.2753    0.0000 C   0  0  0  0  0  0  0  0  0  0  0  0
    3.3269   -3.3887    0.0000 C   0  0  0  0  0  0  0  0  0  0  0  0
   10.3469   -0.4981    0.0000 C   0  0  0  0  0  0  0  0  0  0  0  0
    4.6536   -4.5019    0.0000 C   0  0  0  0  0  0  0  0  0  0  0  0
    6.8108    0.1177    0.0000 H   0  0  0  0  0  0  0  0  0  0  0  0
    7.2813   -0.9730    0.0000 H   0  0  0  0  0  0  0  0  0  0  0  0
   10.0178    3.6919    0.0000 H   0  0  0  0  0  0  0  0  0  0  0  0
    9.6929    2.4193    0.0000 H   0  0  0  0  0  0  0  0  0  0  0  0
   10.0914    3.1096    0.0000 H   0  0  0  0  0  0  0  0  0  0  0  0
    2.5863   -2.9239    0.0000 H   0  0  0  0  0  0  0  0  0  0  0  0
    8.9248    5.0389    0.0000 H   0  0  0  0  0  0  0  0  0  0  0  0
    8.0779    4.8119    0.0000 H   0  0  0  0  0  0  0  0  0  0  0  0
   10.6569    3.9650    0.0000 H   0  0  0  0  0  0  0  0  0  0  0  0
   10.8838    4.8119    0.0000 H   0  0  0  0  0  0  0  0  0  0  0  0
   10.0369    5.0389    0.0000 H   0  0  0  0  0  0  0  0  0  0  0  0
    8.3048    3.9650    0.0000 H   0  0  0  0  0  0  0  0  0  0  0  0
    5.6986   -4.1216    0.0000 H   0  0  0  0  0  0  0  0  0  0  0  0
    6.4933   -4.4922    0.0000 H   0  0  0  0  0  0  0  0  0  0  0  0
    6.8638   -3.6975    0.0000 H   0  0  0  0  0  0  0  0  0  0  0  0
    2.1077   -1.6647    0.0000 H   0  0  0  0  0  0  0  0  0  0  0  0
    1.3894   -2.1676    0.0000 H   0  0  0  0  0  0  0  0  0  0  0  0
    1.8923   -2.8859    0.0000 H   0  0  0  0  0  0  0  0  0  0  0  0
    2.7443   -3.6007    0.0000 H   0  0  0  0  0  0  0  0  0  0  0  0
    3.5389   -3.9713    0.0000 H   0  0  0  0  0  0  0  0  0  0  0  0
    3.9095   -3.1766    0.0000 H   0  0  0  0  0  0  0  0  0  0  0  0
    4.3026   -0.0431    0.0000 H   0  0  0  0  0  0  0  0  0  0  0  0
    7.7789   -2.9601    0.0000 H   0  0  0  0  0  0  0  0  0  0  0  0
    6.3458    1.1919    0.0000 H   0  0  0  0  0  0  0  0  0  0  0  0
   10.3469   -1.1181    0.0000 H   0  0  0  0  0  0  0  0  0  0  0  0
    9.0456   -1.8467    0.0000 H   0  0  0  0  0  0  0  0  0  0  0  0
   10.8838    1.1919    0.0000 H   0  0  0  0  0  0  0  0  0  0  0  0
    4.0710   -4.7140    0.0000 H   0  0  0  0  0  0  0  0  0  0  0  0
    4.8657   -5.0846    0.0000 H   0  0  0  0  0  0  0  0  0  0  0  0
    5.2363   -4.2899    0.0000 H   0  0  0  0  0  0  0  0  0  0  0  0
  1 21  1  0  0  0  0
  1 34  1  0  0  0  0
  2 15  1  0  0  0  0
  2 56  1  0  0  0  0
  3 18  1  0  0  0  0
  3 57  1  0  0  0  0
  4 19  1  0  0  0  0
  4 58  1  0  0  0  0
  5 22  1  0  0  0  0
  5 60  1  0  0  0  0
  6 26  1  0  0  0  0
  6 61  1  0  0  0  0
  7 23  2  0  0  0  0
  8 25  2  0  0  0  0
  9 33  2  0  0  0  0
 10 11  1  0  0  0  0
 10 12  1  0  0  0  0
 10 35  1  0  0  0  0
 10 36  1  0  0  0  0
 11 15  2  0  0  0  0
 11 18  1  0  0  0  0
 12 19  1  0  0  0  0
 12 22  2  0  0  0  0
 13 15  1  0  0  0  0
 13 21  2  0  0  0  0
 13 25  1  0  0  0  0
 14 16  1  0  0  0  0
 14 28  1  0  0  0  0
 14 29  1  0  0  0  0
 14 37  1  0  0  0  0
 16 23  1  0  0  0  0
 16 38  1  0  0  0  0
 16 39  1  0  0  0  0
 17 19  2  0  0  0  0
 17 23  1  0  0  0  0
 17 26  1  0  0  0  0
 18 20  2  0  0  0  0
 20 21  1  0  0  0  0
 20 30  1  0  0  0  0
 22 27  1  0  0  0  0
 24 25  1  0  0  0  0
 24 31  1  0  0  0  0
 24 32  1  0  0  0  0
 24 40  1  0  0  0  0
 26 27  2  0  0  0  0
 27 33  1  0  0  0  0
 28 43  1  0  0  0  0
 28 44  1  0  0  0  0
 28 45  1  0  0  0  0
 29 41  1  0  0  0  0
 29 42  1  0  0  0  0
 29 46  1  0  0  0  0
 30 47  1  0  0  0  0
 30 48  1  0  0  0  0
 30 49  1  0  0  0  0
 31 50  1  0  0  0  0
 31 51  1  0  0  0  0
 31 52  1  0  0  0  0
 32 53  1  0  0  0  0
 32 54  1  0  0  0  0
 32 55  1  0  0  0  0
 33 59  1  0  0  0  0
 34 62  1  0  0  0  0
 34 63  1  0  0  0  0
 34 64  1  0  0  0  0
M  END
> <PUBCHEM_COMPOUND_CID>
442541

> <PUBCHEM_COMPOUND_CANONICALIZED>
1

> <PUBCHEM_CACTVS_COMPLEXITY>
723

> <PUBCHEM_CACTVS_HBOND_ACCEPTOR>
9

> <PUBCHEM_CACTVS_HBOND_DONOR>
5

> <PUBCHEM_CACTVS_ROTATABLE_BOND>
9

> <PUBCHEM_CACTVS_SUBSKEYS>
AAADceB4PAAAAAAAAAAAAAAAAAAAAAAAAAAwYAAAAAAAAAABQAAAGgAACAAADQSgmAICBoAABgCIAohQgAACCAAkIAAAiAEECMgMJzaGNBqAcWAl4BUIuQeI7vzuIAACCAAIAABAAAQQABAAAAAAAAAAAA==

> <PUBCHEM_IUPAC_OPENEYE_NAME>
3-[[2,6-dihydroxy-4-methoxy-3-methyl-5-(2-methylpropanoyl)phenyl]methyl]-2,4,6-trihydroxy-5-(3-methylbutanoyl)benzaldehyde

> <PUBCHEM_IUPAC_CAS_NAME>
3-[[2,6-dihydroxy-4-methoxy-3-methyl-5-(2-methyl-1-oxopropyl)phenyl]methyl]-2,4,6-trihydroxy-5-(3-methyl-1-oxobutyl)benzaldehyde

> <PUBCHEM_IUPAC_NAME>
3-[[2,6-dihydroxy-4-methoxy-3-methyl-5-(2-methylpropanoyl)phenyl]methyl]-2,4,6-trihydroxy-5-(3-methylbutanoyl)benzaldehyde

> <PUBCHEM_IUPAC_SYSTEMATIC_NAME>
3-[[4-methoxy-3-methyl-5-(2-methylpropanoyl)-2,6-bis(oxidanyl)phenyl]methyl]-5-(3-methylbutanoyl)-2,4,6-tris(oxidanyl)benzaldehyde

> <PUBCHEM_IUPAC_TRADITIONAL_NAME>
3-(2,6-dihydroxy-3-isobutyryl-4-methoxy-5-methyl-benzyl)-2,4,6-trihydroxy-5-isovaleryl-benzaldehyde

> <PUBCHEM_IUPAC_INCHI>
InChI=1S/C25H30O9/c1-10(2)7-16(27)17-22(31)14(21(30)15(9-26)24(17)33)8-13-20(29)12(5)25(34-6)18(23(13)32)19(28)11(3)4/h9-11,29-33H,7-8H2,1-6H3

> <PUBCHEM_IUPAC_INCHIKEY>
VQIUVVRPDIFIPV-UHFFFAOYSA-N

> <PUBCHEM_XLOGP3_AA>
5.2

> <PUBCHEM_EXACT_MASS>
474.188983

> <PUBCHEM_MOLECULAR_FORMULA>
C25H30O9

> <PUBCHEM_MOLECULAR_WEIGHT>
474.5003

> <PUBCHEM_OPENEYE_CAN_SMILES>
CC1=C(C(=C(C(=C1OC)C(=O)C(C)C)O)CC2=C(C(=C(C(=C2O)C(=O)CC(C)C)O)C=O)O)O

> <PUBCHEM_OPENEYE_ISO_SMILES>
CC1=C(C(=C(C(=C1OC)C(=O)C(C)C)O)CC2=C(C(=C(C(=C2O)C(=O)CC(C)C)O)C=O)O)O

> <PUBCHEM_CACTVS_TPSA>
162

> <PUBCHEM_MONOISOTOPIC_WEIGHT>
474.188983

> <PUBCHEM_TOTAL_CHARGE>
0

> <PUBCHEM_HEAVY_ATOM_COUNT>
34

> <PUBCHEM_ATOM_DEF_STEREO_COUNT>
0

> <PUBCHEM_ATOM_UDEF_STEREO_COUNT>
0

> <PUBCHEM_BOND_DEF_STEREO_COUNT>
0

> <PUBCHEM_BOND_UDEF_STEREO_COUNT>
0

> <PUBCHEM_ISOTOPIC_ATOM_COUNT>
0

> <PUBCHEM_COMPONENT_COUNT>
1

> <PUBCHEM_CACTVS_TAUTO_COUNT>
998

> <PUBCHEM_COORDINATE_TYPE>
1
5
255

> <PUBCHEM_BONDANNOTATIONS>
11  15  8
11  18  8
12  19  8
12  22  8
13  15  8
13  21  8
17  19  8
17  26  8
18  20  8
20  21  8
22  27  8
26  27  8

$$$$

