   Color/Form

     * COLORLESS LIQUID
     * Colorless liquid.

   from [1]HSDB

   Boiling Point
        227 DEG C @ 760 MM HG
   from [2]HSDB

   Melting Point
        LESS THAN -55 DEG C
   from [3]HSDB

   Density/Specific Gravity
        1.0986 @ 20 DEG C/20 DEG C
   from [4]HSDB

   Solubilities
        SOL IN WATER
   from [5]HSDB

   Spectral Properties

     * INDEX OF REFRACTION: 1.4787 @ 20 DEG C
     * INFRA-RED EPOXIDE BAND @ 1250 (CM-1)
     * IR: 1455 (National Bureau of Standards Spectral Collection)

   from [6]HSDB

   Vapor Pressure
        LESS THAN 0.1 MM HG @ 20 DEG C
   from [7]HSDB

   Viscosity
        7.77 CP @ 20 DEG C
   from [8]HSDB

   Other Chemical/Physical Properties

     * SETS TO GLASS @ -55 DEG C
     * 1 PPM APPROX= 5.73 MG/CU M @ 25 DEG C, 760 MM HG & 1 MG/L APPROX=
       174 PPM @ 25 DEG C, 760 MM HG
     * REACTS WITH ACTIVE HYDROGEN COMPD (EG, ALCOHOLS, AMINES)

   from [9]HSDB

   Computed Properties
   Molecular Weight                  140.17968 [g/mol]
   Molecular Formula                 C[8]H[12]O[2]
   XLogP3-AA                         0.8
   H-Bond Donor                      0
   H-Bond Acceptor                   2
   Rotatable Bond Count              1
   Exact Mass                        140.08373
   MonoIsotopic Mass                 140.08373
   Topological Polar Surface Area    25.1
   Heavy Atom Count                  10
   Formal Charge                     0
   Complexity                        157
   Isotope Atom Count                0
   Defined Atom Stereocenter Count   0
   Undefined Atom Stereocenter Count 4
   Defined Bond Stereocenter Count   0
   Undefined Bond Stereocenter Count 0
   Covalently-Bonded Unit Count      1
   Feature 3D Acceptor Count         2
   Feature 3D Ring Count             1
   Effective Rotor Count             2.6
   Conformer Sampling RMSD           0.6
   CID Conformer Count               [10]33

References

   1. http://toxnet.nlm.nih.gov/cgi-bin/sis/search/r?dbs+hsdb:@term+@rn+@rel+106-87-6
   2. http://toxnet.nlm.nih.gov/cgi-bin/sis/search/r?dbs+hsdb:@term+@rn+@rel+106-87-6
   3. http://toxnet.nlm.nih.gov/cgi-bin/sis/search/r?dbs+hsdb:@term+@rn+@rel+106-87-6
   4. http://toxnet.nlm.nih.gov/cgi-bin/sis/search/r?dbs+hsdb:@term+@rn+@rel+106-87-6
   5. http://toxnet.nlm.nih.gov/cgi-bin/sis/search/r?dbs+hsdb:@term+@rn+@rel+106-87-6
   6. http://toxnet.nlm.nih.gov/cgi-bin/sis/search/r?dbs+hsdb:@term+@rn+@rel+106-87-6
   7. http://toxnet.nlm.nih.gov/cgi-bin/sis/search/r?dbs+hsdb:@term+@rn+@rel+106-87-6
   8. http://toxnet.nlm.nih.gov/cgi-bin/sis/search/r?dbs+hsdb:@term+@rn+@rel+106-87-6
   9. http://toxnet.nlm.nih.gov/cgi-bin/sis/search/r?dbs+hsdb:@term+@rn+@rel+106-87-6
  10. http://pubchem.ncbi.nlm.nih.gov/vw3d/vw3d.cgi?cid=7833
