   Color/Form

     * LIQUID
     * Amber-colored liquid
     * Colorless liquid or solid (below 61 degrees F).

   from [1]HSDB

   Boiling Point
        224-237 DEG C
   from [2]HSDB

   Melting Point
        14 deg C
   from [3]HSDB

   Density/Specific Gravity
        0.9804 kg/l @ 25 deg C
   from [4]HSDB

   Octanol/Water Partition Coefficient
        log Kow = 3.27
   from [5]HSDB

   Solubilities

     * INSOL IN WATER; SOL IN ALCOHOL, ETHER & ALKALIES
     * Insoluble in water, slightly soluble in alcohol, ether, and
       alkalies.

   from [6]HSDB

   Spectral Properties

     * IR: 859 (Sadtler Research Laboratories IR Grating Collection)
     * UV: 8499 (Sadtler Research Laboratories Spectral Collection)
     * MASS: 897 (Atlas of Mass Spectral Data, John Wiley & Sons, New
       York)
     * Index of refraction = 1.5182 @ 21 deg C

   from [7]HSDB

   Other Chemical/Physical Properties
        Flash pt = 225 deg F; a slightly volatile liquid
   from [8]HSDB

   Computed Properties
   Molecular Weight                  150.21756 [g/mol]
   Molecular Formula                 C[10]H[14]O
   XLogP3                            3.4
   H-Bond Donor                      1
   H-Bond Acceptor                   1
   Rotatable Bond Count              2
   Tautomer Count                    3
   Exact Mass                        150.104465
   MonoIsotopic Mass                 150.104465
   Topological Polar Surface Area    20.2
   Heavy Atom Count                  11
   Formal Charge                     0
   Complexity                        111
   Isotope Atom Count                0
   Defined Atom Stereocenter Count   0
   Undefined Atom Stereocenter Count 1
   Defined Bond Stereocenter Count   0
   Undefined Bond Stereocenter Count 0
   Covalently-Bonded Unit Count      1
   Feature 3D Donor Count            1
   Feature 3D Hydrophobe Count       2
   Feature 3D Ring Count             1
   Effective Rotor Count             2
   Conformer Sampling RMSD           0.4
   CID Conformer Count               [9]17

References

   1. http://toxnet.nlm.nih.gov/cgi-bin/sis/search/r?dbs+hsdb:@term+@rn+@rel+89-72-5
   2. http://toxnet.nlm.nih.gov/cgi-bin/sis/search/r?dbs+hsdb:@term+@rn+@rel+89-72-5
   3. http://toxnet.nlm.nih.gov/cgi-bin/sis/search/r?dbs+hsdb:@term+@rn+@rel+89-72-5
   4. http://toxnet.nlm.nih.gov/cgi-bin/sis/search/r?dbs+hsdb:@term+@rn+@rel+89-72-5
   5. http://toxnet.nlm.nih.gov/cgi-bin/sis/search/r?dbs+hsdb:@term+@rn+@rel+89-72-5
   6. http://toxnet.nlm.nih.gov/cgi-bin/sis/search/r?dbs+hsdb:@term+@rn+@rel+89-72-5
   7. http://toxnet.nlm.nih.gov/cgi-bin/sis/search/r?dbs+hsdb:@term+@rn+@rel+89-72-5
   8. http://toxnet.nlm.nih.gov/cgi-bin/sis/search/r?dbs+hsdb:@term+@rn+@rel+89-72-5
   9. http://pubchem.ncbi.nlm.nih.gov/vw3d/vw3d.cgi?cid=6984
