   Chemical and Physical Properties References

   [1]USDA ARS - USDA chemical properties
   from [2]ChemIDplus

   Color/Form

     * Crystals from water
     * COLORLESS CRYSTALLINE SOLID

   from [3]HSDB

   Odor
        Odorless
   from [4]HSDB

   Melting Point
        298-300 deg C
   from [5]HSDB

   Corrosivity
        Liquid formulated products are corrosive to brass nozzles if
   sprayed undiluted.
   from [6]HSDB

   Density/Specific Gravity
        1.60 at 25 deg C
   from [7]HSDB

   Dissociation Constants
        pKa = 5.62 at 20 deg C
   from [8]HSDB

   Heat of Combustion
        -8,200 BTU/LB= -4,500 CAL/G= -190X10+5 J/KG (EST)
   from [9]HSDB

   Octanol/Water Partition Coefficient
        log Kow= -0.68 pH = 5; -1.96 at pH = 7; -2.41 at pH = 9
   from [10]HSDB

   Solubilities

     * Slightly sol in hot alcohol, more sol in hot water
     * SOL IN AQ ALKALI & CERTAIN ORG BASES
     * Sol @ 25 deg C in acetone, 1000 ppm; water, 6000 ppm;
       dimethylformamide, 20400 ppm; dimethyl sulfoxide, 90000 ppm; xylene
       <1000 ppm
     * In water, 4,507 mg/L at 25 deg C

   from [11]HSDB

   Spectral Properties

     * MAX ABSORPTION (WATER, PH 8): 215 NM (LOG EPSILON= 4.2), 340 NM
       (LOG EPSILON= 3.4)
     * IR: 543 (Sadtler Spectral Library)
     * UV: 2047 (Sadtler Spectral Library)
     * Raman: 526 (Sadtler Spectral Library)
     * NMR: 2800 (Sadtler Spectral Library)
     * MASS: 52382 (NIST/EPA/MSDC Mass Spectral database, 1990 version)

   from [12]HSDB

   Vapor Pressure
        7.5X10-8 mm Hg at 25 deg C
   from [13]HSDB

   Other Chemical/Physical Properties

     * Decomposes @ 260 deg C
     * Solubility at 25 deg C: water 0.6%, ethanol 0.1%, DMF 2.4%
       /Technical maleic hydrazide/
     * Forms water-soluble alkali-metal and amine salts, but, in hard
       water, the calcium salt is precipitated.
     * Solubility in water at 25 deg C, 300,000 mg/L at 20 deg C and
       340,000 mg/L at 25 deg C /Maleic hydrazide potassium salt/
     * Solubility in water at 25 deg C, 200 g/kg /Maleic hydrazide sodium
       salt/
     * Henry's Law constant = 8.1X10-9 atm-cu m/mol at 25 deg C and pH 7
     * Hydroxyl radical reaction rate constant 1.3X10-11 cu cm/molec-sec
       at 25 deg C /Estimated/

   from [14]HSDB

   Computed Properties
   Molecular Weight                  112.08676 [g/mol]
   Molecular Formula                 C[4]H[4]N[2]O[2]
   XLogP3                            -0.8
   H-Bond Donor                      2
   H-Bond Acceptor                   2
   Rotatable Bond Count              0
   Tautomer Count                    3
   Exact Mass                        112.027277
   MonoIsotopic Mass                 112.027277
   Topological Polar Surface Area    58.2
   Heavy Atom Count                  8
   Formal Charge                     0
   Complexity                        143
   Isotope Atom Count                0
   Defined Atom Stereocenter Count   0
   Undefined Atom Stereocenter Count 0
   Defined Bond Stereocenter Count   0
   Undefined Bond Stereocenter Count 0
   Covalently-Bonded Unit Count      1
   Feature 3D Acceptor Count         2
   Feature 3D Donor Count            2
   Feature 3D Ring Count             1
   Effective Rotor Count             0
   Conformer Sampling RMSD           0.4
   CID Conformer Count               [15]1

References

   1. http://www.ars.usda.gov/SP2UserFiles/ad_hoc/12755100DatabaseFiles/PesticidePropertiesDatabase/IndividualPesticideFiles/MALEIC_HYDRAZIDE_ACID.TXT
   2. http://chem.sis.nlm.nih.gov/chemidplus/
   3. http://toxnet.nlm.nih.gov/cgi-bin/sis/search/r?dbs+hsdb:@term+@rn+@rel+123-33-1
   4. http://toxnet.nlm.nih.gov/cgi-bin/sis/search/r?dbs+hsdb:@term+@rn+@rel+123-33-1
   5. http://toxnet.nlm.nih.gov/cgi-bin/sis/search/r?dbs+hsdb:@term+@rn+@rel+123-33-1
   6. http://toxnet.nlm.nih.gov/cgi-bin/sis/search/r?dbs+hsdb:@term+@rn+@rel+123-33-1
   7. http://toxnet.nlm.nih.gov/cgi-bin/sis/search/r?dbs+hsdb:@term+@rn+@rel+123-33-1
   8. http://toxnet.nlm.nih.gov/cgi-bin/sis/search/r?dbs+hsdb:@term+@rn+@rel+123-33-1
   9. http://toxnet.nlm.nih.gov/cgi-bin/sis/search/r?dbs+hsdb:@term+@rn+@rel+123-33-1
  10. http://toxnet.nlm.nih.gov/cgi-bin/sis/search/r?dbs+hsdb:@term+@rn+@rel+123-33-1
  11. http://toxnet.nlm.nih.gov/cgi-bin/sis/search/r?dbs+hsdb:@term+@rn+@rel+123-33-1
  12. http://toxnet.nlm.nih.gov/cgi-bin/sis/search/r?dbs+hsdb:@term+@rn+@rel+123-33-1
  13. http://toxnet.nlm.nih.gov/cgi-bin/sis/search/r?dbs+hsdb:@term+@rn+@rel+123-33-1
  14. http://toxnet.nlm.nih.gov/cgi-bin/sis/search/r?dbs+hsdb:@term+@rn+@rel+123-33-1
  15. http://pubchem.ncbi.nlm.nih.gov/vw3d/vw3d.cgi?cid=21954
