442346
  -OEChem-07051212572D

 38 39  0     1  0  0  0  0  0999 V2000
    4.7717   -1.6361    0.0000 O   0  0  0  0  0  0  0  0  0  0  0  0
    4.5981   -2.3833    0.0000 O   0  0  0  0  0  0  0  0  0  0  0  0
    2.0000   -0.1513    0.0000 O   0  0  0  0  0  0  0  0  0  0  0  0
    5.4641   -0.1513    0.0000 C   0  0  2  0  0  0  0  0  0  0  0  0
    5.4641    0.8487    0.0000 C   0  0  2  0  0  0  0  0  0  0  0  0
    6.3580   -0.6859    0.0000 C   0  0  0  0  0  0  0  0  0  0  0  0
    4.5981   -0.6513    0.0000 C   0  0  1  0  0  0  0  0  0  0  0  0
    7.2641   -0.1721    0.0000 C   0  0  0  0  0  0  0  0  0  0  0  0
    7.2641    0.8695    0.0000 C   0  0  1  0  0  0  0  0  0  0  0  0
    6.3580    1.3834    0.0000 C   0  0  0  0  0  0  0  0  0  0  0  0
    4.5981    1.3487    0.0000 C   0  0  0  0  0  0  0  0  0  0  0  0
    5.8062   -1.0909    0.0000 C   0  0  0  0  0  0  0  0  0  0  0  0
    3.7320   -0.1513    0.0000 C   0  0  0  0  0  0  0  0  0  0  0  0
    3.7320    0.8487    0.0000 C   0  0  0  0  0  0  0  0  0  0  0  0
    8.1282    1.3729    0.0000 C   0  0  0  0  0  0  0  0  0  0  0  0
    4.0981   -1.5173    0.0000 C   0  0  0  0  0  0  0  0  0  0  0  0
    6.3465    2.3833    0.0000 C   0  0  0  0  0  0  0  0  0  0  0  0
    2.8660   -0.6513    0.0000 C   0  0  0  0  0  0  0  0  0  0  0  0
    5.4576    1.6987    0.0000 H   0  0  0  0  0  0  0  0  0  0  0  0
    5.9534   -1.1557    0.0000 H   0  0  0  0  0  0  0  0  0  0  0  0
    6.7517   -1.1650    0.0000 H   0  0  0  0  0  0  0  0  0  0  0  0
    7.4732   -0.7558    0.0000 H   0  0  0  0  0  0  0  0  0  0  0  0
    7.8750   -0.0660    0.0000 H   0  0  0  0  0  0  0  0  0  0  0  0
    7.2605    1.4895    0.0000 H   0  0  0  0  0  0  0  0  0  0  0  0
    4.9966    1.8237    0.0000 H   0  0  0  0  0  0  0  0  0  0  0  0
    4.1996    1.8237    0.0000 H   0  0  0  0  0  0  0  0  0  0  0  0
    5.2236   -1.3030    0.0000 H   0  0  0  0  0  0  0  0  0  0  0  0
    6.0183   -1.6735    0.0000 H   0  0  0  0  0  0  0  0  0  0  0  0
    6.3888   -0.8788    0.0000 H   0  0  0  0  0  0  0  0  0  0  0  0
    3.1951    1.1587    0.0000 H   0  0  0  0  0  0  0  0  0  0  0  0
    8.4403    0.8371    0.0000 H   0  0  0  0  0  0  0  0  0  0  0  0
    8.6639    1.6850    0.0000 H   0  0  0  0  0  0  0  0  0  0  0  0
    7.8161    1.9086    0.0000 H   0  0  0  0  0  0  0  0  0  0  0  0
    3.4781   -1.5173    0.0000 H   0  0  0  0  0  0  0  0  0  0  0  0
    5.3543   -1.8481    0.0000 H   0  0  0  0  0  0  0  0  0  0  0  0
    6.8798    2.6995    0.0000 H   0  0  0  0  0  0  0  0  0  0  0  0
    5.8060    2.6871    0.0000 H   0  0  0  0  0  0  0  0  0  0  0  0
    2.8660   -1.2713    0.0000 H   0  0  0  0  0  0  0  0  0  0  0  0
  7  1  1  6  0  0  0
  1 35  1  0  0  0  0
  2 16  2  0  0  0  0
  3 18  2  0  0  0  0
  4  5  1  0  0  0  0
  4  6  1  0  0  0  0
  4  7  1  0  0  0  0
  4 12  1  1  0  0  0
  5 10  1  0  0  0  0
  5 11  1  0  0  0  0
  5 19  1  6  0  0  0
  6  8  1  0  0  0  0
  6 20  1  0  0  0  0
  6 21  1  0  0  0  0
  7 13  1  0  0  0  0
  7 16  1  0  0  0  0
  8  9  1  0  0  0  0
  8 22  1  0  0  0  0
  8 23  1  0  0  0  0
  9 10  1  0  0  0  0
  9 15  1  1  0  0  0
  9 24  1  0  0  0  0
 10 17  2  0  0  0  0
 11 14  1  0  0  0  0
 11 25  1  0  0  0  0
 11 26  1  0  0  0  0
 12 27  1  0  0  0  0
 12 28  1  0  0  0  0
 12 29  1  0  0  0  0
 13 14  2  0  0  0  0
 13 18  1  0  0  0  0
 14 30  1  0  0  0  0
 15 31  1  0  0  0  0
 15 32  1  0  0  0  0
 15 33  1  0  0  0  0
 16 34  1  0  0  0  0
 17 36  1  0  0  0  0
 17 37  1  0  0  0  0
 18 38  1  0  0  0  0
M  END
> <PUBCHEM_COMPOUND_CID>
442346

> <PUBCHEM_COMPOUND_CANONICALIZED>
1

> <PUBCHEM_CACTVS_COMPLEXITY>
437

> <PUBCHEM_CACTVS_HBOND_ACCEPTOR>
3

> <PUBCHEM_CACTVS_HBOND_DONOR>
1

> <PUBCHEM_CACTVS_ROTATABLE_BOND>
2

> <PUBCHEM_CACTVS_SUBSKEYS>
AAADceBwMAAAAAAAAAAAAAAAAAAAAAAAAAAwQAAAAAAAAACAAAAAGgAACAAAD0SggAICAAAAAgCIAihSgAIAAAAgAAAACAFAAEgABBYAAQAAUAAEoAAIEYOJyPCPgAAAAAAAAACAAAQAACAAAAAAAAAAAA==

> <PUBCHEM_IUPAC_OPENEYE_NAME>
(1S,4aS,6S,8aS)-1-hydroxy-6,8a-dimethyl-5-methylene-4a,6,7,8-tetrahydro-4H-naphthalene-1,2-dicarbaldehyde

> <PUBCHEM_IUPAC_CAS_NAME>
(1S,4aS,6S,8aS)-1-hydroxy-6,8a-dimethyl-5-methylene-4a,6,7,8-tetrahydro-4H-naphthalene-1,2-dicarboxaldehyde

> <PUBCHEM_IUPAC_NAME>
(1S,4aS,6S,8aS)-1-hydroxy-6,8a-dimethyl-5-methylidene-4a,6,7,8-tetrahydro-4H-naphthalene-1,2-dicarbaldehyde

> <PUBCHEM_IUPAC_SYSTEMATIC_NAME>
(1S,4aS,6S,8aS)-6,8a-dimethyl-5-methylidene-1-oxidanyl-4a,6,7,8-tetrahydro-4H-naphthalene-1,2-dicarbaldehyde

> <PUBCHEM_IUPAC_TRADITIONAL_NAME>
(1S,4aS,6S,8aS)-1-hydroxy-6,8a-dimethyl-5-methylene-4a,6,7,8-tetrahydro-4H-naphthalene-1,2-dicarbaldehyde

> <PUBCHEM_IUPAC_INCHI>
InChI=1S/C15H20O3/c1-10-6-7-14(3)13(11(10)2)5-4-12(8-16)15(14,18)9-17/h4,8-10,13,18H,2,5-7H2,1,3H3/t10-,13-,14-,15+/m0/s1

> <PUBCHEM_IUPAC_INCHIKEY>
LDAIOVKPAKFZHM-FBUXBERBSA-N

> <PUBCHEM_XLOGP3_AA>
2

> <PUBCHEM_EXACT_MASS>
248.141245

> <PUBCHEM_MOLECULAR_FORMULA>
C15H20O3

> <PUBCHEM_MOLECULAR_WEIGHT>
248.3175

> <PUBCHEM_OPENEYE_CAN_SMILES>
CC1CCC2(C(C1=C)CC=C(C2(C=O)O)C=O)C

> <PUBCHEM_OPENEYE_ISO_SMILES>
C[C@H]1CC[C@]2([C@H](C1=C)CC=C([C@@]2(C=O)O)C=O)C

> <PUBCHEM_CACTVS_TPSA>
54.4

> <PUBCHEM_MONOISOTOPIC_WEIGHT>
248.141245

> <PUBCHEM_TOTAL_CHARGE>
0

> <PUBCHEM_HEAVY_ATOM_COUNT>
18

> <PUBCHEM_ATOM_DEF_STEREO_COUNT>
4

> <PUBCHEM_ATOM_UDEF_STEREO_COUNT>
0

> <PUBCHEM_BOND_DEF_STEREO_COUNT>
0

> <PUBCHEM_BOND_UDEF_STEREO_COUNT>
0

> <PUBCHEM_ISOTOPIC_ATOM_COUNT>
0

> <PUBCHEM_COMPONENT_COUNT>
1

> <PUBCHEM_CACTVS_TAUTO_COUNT>
1

> <PUBCHEM_COORDINATE_TYPE>
1
5
255

> <PUBCHEM_BONDANNOTATIONS>
7  1  6
4  12  5
5  19  6
9  15  5

$$$$

