   Color/Form

     * Clear liquid
     * White to tan liquid

   from [1]HSDB

   Odor
        Odorless
   from [2]HSDB

   Boiling Point
        100 deg C @ 0.001 mm Hg
   from [3]HSDB

   Melting Point
        -62.1 deg C
   from [4]HSDB

   Corrosivity
        Noncorrosive
   from [5]HSDB

   Density/Specific Gravity
        1.12 g/cu cm (20 deg C)
   from [6]HSDB

   Octanol/Water Partition Coefficient
        log Kow= 3.13
   from [7]HSDB

   Solubilities

     * Miscible with benzene, toluene, xylene, dimethylformamide, ethylene
       dichloride, cyclohexanone, methanol, and dichloromethane. Insoluble
       in ethylene glycol, propylene glycol, and petroleum ether.
     * Soluble in most organic solvents.
     * Miscible with organic solvents
     * In water, 530 mg/l @ 20 deg C [Wauchope RD et al; Rev Environ
       Contam Toxicol 123: 1-155 (1992)] [8]PubMed Abstract

   from [9]HSDB

   Spectral Properties
        Index of refraction: 1.5301 at 20 deg C/D
   from [10]HSDB

   Vapor Pressure
        3.14X10-5 mm Hg @ 25 deg C [Wauchope RD et al; Rev Environ Contam
   Toxicol 123: 1-155 (1992)] [11]PubMed Abstract
   from [12]HSDB

   Other Chemical/Physical Properties
        Henry's Law constant= 9.0X10-9 atm-cu m/mole @ 20 deg C
   from [13]HSDB

   Computed Properties
   Molecular Weight                  283.79368 [g/mol]
   Molecular Formula                 C[15]H[22]ClNO[2]
   XLogP3                            3.1
   H-Bond Donor                      0
   H-Bond Acceptor                   2
   Rotatable Bond Count              6
   Exact Mass                        283.133907
   MonoIsotopic Mass                 283.133907
   Topological Polar Surface Area    29.5
   Heavy Atom Count                  19
   Formal Charge                     0
   Complexity                        285
   Isotope Atom Count                0
   Defined Atom Stereocenter Count   0
   Undefined Atom Stereocenter Count 1
   Defined Bond Stereocenter Count   0
   Undefined Bond Stereocenter Count 0
   Covalently-Bonded Unit Count      1
   Feature 3D Acceptor Count         2
   Feature 3D Hydrophobe Count       1
   Feature 3D Ring Count             1
   Effective Rotor Count             7
   Conformer Sampling RMSD           0.8
   CID Conformer Count               [14]74

References

   1. http://toxnet.nlm.nih.gov/cgi-bin/sis/search/r?dbs+hsdb:@term+@rn+@rel+51218-45-2
   2. http://toxnet.nlm.nih.gov/cgi-bin/sis/search/r?dbs+hsdb:@term+@rn+@rel+51218-45-2
   3. http://toxnet.nlm.nih.gov/cgi-bin/sis/search/r?dbs+hsdb:@term+@rn+@rel+51218-45-2
   4. http://toxnet.nlm.nih.gov/cgi-bin/sis/search/r?dbs+hsdb:@term+@rn+@rel+51218-45-2
   5. http://toxnet.nlm.nih.gov/cgi-bin/sis/search/r?dbs+hsdb:@term+@rn+@rel+51218-45-2
   6. http://toxnet.nlm.nih.gov/cgi-bin/sis/search/r?dbs+hsdb:@term+@rn+@rel+51218-45-2
   7. http://toxnet.nlm.nih.gov/cgi-bin/sis/search/r?dbs+hsdb:@term+@rn+@rel+51218-45-2
   8. http://www.ncbi.nlm.nih.gov/entrez/query.fcgi?cmd=Retrieve&db=pubmed&dopt=Abstract&list_uids=1732992
   9. http://toxnet.nlm.nih.gov/cgi-bin/sis/search/r?dbs+hsdb:@term+@rn+@rel+51218-45-2
  10. http://toxnet.nlm.nih.gov/cgi-bin/sis/search/r?dbs+hsdb:@term+@rn+@rel+51218-45-2
  11. http://www.ncbi.nlm.nih.gov/entrez/query.fcgi?cmd=Retrieve&db=pubmed&dopt=Abstract&list_uids=1732992
  12. http://toxnet.nlm.nih.gov/cgi-bin/sis/search/r?dbs+hsdb:@term+@rn+@rel+51218-45-2
  13. http://toxnet.nlm.nih.gov/cgi-bin/sis/search/r?dbs+hsdb:@term+@rn+@rel+51218-45-2
  14. http://pubchem.ncbi.nlm.nih.gov/vw3d/vw3d.cgi?cid=4169
