   Color/Form

     * White crystalline powder
     * Colorless crystals

   from [1]HSDB

   Odor
        Odorless
   from [2]HSDB

   Melting Point
        175-177 deg C
   from [3]HSDB

   Corrosivity
        Noncorrosive
   from [4]HSDB

   Density/Specific Gravity
        1.34 @ 25 deg C/25 deg C
   from [5]HSDB

   Dissociation Constants
        pKa = 9.00
   from [6]HSDB

   Octanol/Water Partition Coefficient
        log Kow= 1.89
   from [7]HSDB

   Solubilities

     * Sol in dimethylformamide: 337 g/kg at 25 deg C. Sol in
       cyclohexanone: 220 g/kg at 25 deg C. Sol in methyl isobutyl ketone:
       121 g/kg at 25 deg C. Sol in butyl acetate: 88 g/kg at 25 deg C.
       Sol in xylene: 65 g/kg at 25 deg C.
     * Sparingly soluble in mineral oils and aliphatic hydrocarbons;
       readily soluble in strong aqueous alkalis
     * In water, 710 mg/l @ 25 deg C

   from [8]HSDB

   Spectral Properties
        Intense mass spectral peaks: 161 m/z (100%), 160 m/z (72%), 41 m/z
   (63%), 56 m/z (55%)
   from [9]HSDB

   Vapor Pressure
        4.7X10-7 mm Hg @ 29.5 deg C
   from [10]HSDB

   Other Chemical/Physical Properties

     * Very stable, even at temperatures up to the melting point; stable
       in aqueous alkaline media at room temperature.
     * Stable to hydrolysis in water.

   from [11]HSDB

   Computed Properties
   Molecular Weight                  216.66472 [g/mol]
   Molecular Formula                 C[9]H[13]ClN[2]O[2]
   XLogP3                            1.9
   H-Bond Donor                      1
   H-Bond Acceptor                   2
   Rotatable Bond Count              1
   Tautomer Count                    4
   Exact Mass                        216.066555
   MonoIsotopic Mass                 216.066555
   Topological Polar Surface Area    49.4
   Heavy Atom Count                  14
   Formal Charge                     0
   Complexity                        328
   Isotope Atom Count                0
   Defined Atom Stereocenter Count   0
   Undefined Atom Stereocenter Count 0
   Defined Bond Stereocenter Count   0
   Undefined Bond Stereocenter Count 0
   Covalently-Bonded Unit Count      1
   Feature 3D Acceptor Count         2
   Feature 3D Donor Count            1
   Feature 3D Hydrophobe Count       1
   Feature 3D Ring Count             1
   Effective Rotor Count             1
   Conformer Sampling RMSD           0.4
   CID Conformer Count               [12]2

References

   1. http://toxnet.nlm.nih.gov/cgi-bin/sis/search/r?dbs+hsdb:@term+@rn+@rel+5902-51-2
   2. http://toxnet.nlm.nih.gov/cgi-bin/sis/search/r?dbs+hsdb:@term+@rn+@rel+5902-51-2
   3. http://toxnet.nlm.nih.gov/cgi-bin/sis/search/r?dbs+hsdb:@term+@rn+@rel+5902-51-2
   4. http://toxnet.nlm.nih.gov/cgi-bin/sis/search/r?dbs+hsdb:@term+@rn+@rel+5902-51-2
   5. http://toxnet.nlm.nih.gov/cgi-bin/sis/search/r?dbs+hsdb:@term+@rn+@rel+5902-51-2
   6. http://toxnet.nlm.nih.gov/cgi-bin/sis/search/r?dbs+hsdb:@term+@rn+@rel+5902-51-2
   7. http://toxnet.nlm.nih.gov/cgi-bin/sis/search/r?dbs+hsdb:@term+@rn+@rel+5902-51-2
   8. http://toxnet.nlm.nih.gov/cgi-bin/sis/search/r?dbs+hsdb:@term+@rn+@rel+5902-51-2
   9. http://toxnet.nlm.nih.gov/cgi-bin/sis/search/r?dbs+hsdb:@term+@rn+@rel+5902-51-2
  10. http://toxnet.nlm.nih.gov/cgi-bin/sis/search/r?dbs+hsdb:@term+@rn+@rel+5902-51-2
  11. http://toxnet.nlm.nih.gov/cgi-bin/sis/search/r?dbs+hsdb:@term+@rn+@rel+5902-51-2
  12. http://pubchem.ncbi.nlm.nih.gov/vw3d/vw3d.cgi?cid=22188
