   Color/Form

     * White crystalline solid
     * Colorless crystals
     * Clear viscous liquid at 23 deg C [Adelsbach TL, Tjeerdema RS; Rev
       Environ Contam Toxicol 176: 137-154 (2003)] [1]PubMed Abstract

   from [2]HSDB

   Boiling Point
        151-167 deg C
   from [3]HSDB

   Melting Point
        59-60.2 deg C
   from [4]HSDB

   Density/Specific Gravity
        1.26 (4-26 deg C)
   from [5]HSDB

   Octanol/Water Partition Coefficient
        log Kow = 6.22
   from [6]HSDB

   Solubilities

     * In xylene, acetone, chloroform, ethyl acetate, dimethylformamide,
       dimethyl sulfoxide >600, hexane 10-50, methanol 70-100 (all in
       g/kg, 25 deg C)
     * Solubility (1%): acetonitrile >60, chloroform >60, DMF >60, DMSO
       >60, ethyl acetate >60, acetone >60, ethyl cellosolve 40-50,
       n-hexane 1-5, kerosene <1, methanol 7-10, alpha-methylnaphthalene
       50-60, xylene >60.
     * In acetone, chloroform, methanol >450, hexane 77 (all in g/L at 20
       deg C; distilled water <20 ug/L (all at 20 deg C) [Adelsbach TL,
       Tjeerdema RS; Rev Environ Contam Toxicol 176: 137-154 (2003)]
       [7]PubMed Abstract
     * In water, 2.0X10-3 mg/L at 25 deg C

   from [8]HSDB

   Spectral Properties
        Specific optical rotation: -15.0 deg at 25 deg C/D (concentration
   by volume= 2.0 g in 100 ml methanol)
   from [9]HSDB

   Vapor Pressure
        1.5X10-9 mm Hg at 25 deg C
   from [10]HSDB

   Other Chemical/Physical Properties

     * Yellow-brown viscous liquid or solid at 23 deg C /Technical/
     * Compatible with other herbicides and other insecticides.
     * Henry's Law constant = 4.14X10-7 atm/cu m/mol at 25 deg C (est)
     * Hydroxyl radical reaction rate constant = 3.76X10-11 cu
       cm/molec-sec at 25 deg C

   from [11]HSDB

   Computed Properties
   Molecular Weight                  419.90008 [g/mol]
   Molecular Formula                 C[25]H[22]ClNO[3]
   XLogP3                            6.2
   H-Bond Donor                      0
   H-Bond Acceptor                   4
   Rotatable Bond Count              8
   Exact Mass                        419.128821
   MonoIsotopic Mass                 419.128821
   Topological Polar Surface Area    59.3
   Heavy Atom Count                  30
   Formal Charge                     0
   Complexity                        586
   Isotope Atom Count                0
   Defined Atom Stereocenter Count   2
   Undefined Atom Stereocenter Count 0
   Defined Bond Stereocenter Count   0
   Undefined Bond Stereocenter Count 0
   Covalently-Bonded Unit Count      1
   Feature 3D Acceptor Count         3
   Feature 3D Hydrophobe Count       1
   Feature 3D Ring Count             3
   Effective Rotor Count             8
   Conformer Sampling RMSD           1.2
   CID Conformer Count               [12]155

References

   1. http://www.ncbi.nlm.nih.gov/entrez/query.fcgi?cmd=Retrieve&db=pubmed&dopt=Abstract&list_uids=12442505
   2. http://toxnet.nlm.nih.gov/cgi-bin/sis/search/r?dbs+hsdb:@term+@rn+@rel+66230-04-4
   3. http://toxnet.nlm.nih.gov/cgi-bin/sis/search/r?dbs+hsdb:@term+@rn+@rel+66230-04-4
   4. http://toxnet.nlm.nih.gov/cgi-bin/sis/search/r?dbs+hsdb:@term+@rn+@rel+66230-04-4
   5. http://toxnet.nlm.nih.gov/cgi-bin/sis/search/r?dbs+hsdb:@term+@rn+@rel+66230-04-4
   6. http://toxnet.nlm.nih.gov/cgi-bin/sis/search/r?dbs+hsdb:@term+@rn+@rel+66230-04-4
   7. http://www.ncbi.nlm.nih.gov/entrez/query.fcgi?cmd=Retrieve&db=pubmed&dopt=Abstract&list_uids=12442505
   8. http://toxnet.nlm.nih.gov/cgi-bin/sis/search/r?dbs+hsdb:@term+@rn+@rel+66230-04-4
   9. http://toxnet.nlm.nih.gov/cgi-bin/sis/search/r?dbs+hsdb:@term+@rn+@rel+66230-04-4
  10. http://toxnet.nlm.nih.gov/cgi-bin/sis/search/r?dbs+hsdb:@term+@rn+@rel+66230-04-4
  11. http://toxnet.nlm.nih.gov/cgi-bin/sis/search/r?dbs+hsdb:@term+@rn+@rel+66230-04-4
  12. http://pubchem.ncbi.nlm.nih.gov/vw3d/vw3d.cgi?cid=10342051
