15241070
  -OEChem-07051213112D

 83 85  0     0  0  0  0  0  0999 V2000
    4.2690   -0.9050    0.0000 O   0  0  0  0  0  0  0  0  0  0  0  0
   11.1972    0.0950    0.0000 O   0  0  0  0  0  0  0  0  0  0  0  0
    6.8671    3.5950    0.0000 O   0  0  0  0  0  0  0  0  0  0  0  0
    2.5369   -5.9050    0.0000 O   0  0  0  0  0  0  0  0  0  0  0  0
    4.2690   -6.9050    0.0000 O   0  0  0  0  0  0  0  0  0  0  0  0
   14.6613   -3.9050    0.0000 O   0  0  0  0  0  0  0  0  0  0  0  0
   12.0632    4.5950    0.0000 O   0  0  0  0  0  0  0  0  0  0  0  0
   16.3933   -2.9050    0.0000 O   0  0  0  0  0  0  0  0  0  0  0  0
   12.0632    6.5950    0.0000 O   0  0  0  0  0  0  0  0  0  0  0  0
    6.0010   -0.9050    0.0000 N   0  0  0  0  0  0  0  0  0  0  0  0
   10.3312   -1.4050    0.0000 N   0  0  0  0  0  0  0  0  0  0  0  0
    7.7331    2.0950    0.0000 N   0  0  0  0  0  0  0  0  0  0  0  0
    6.8671   -1.4050    0.0000 C   0  0  0  0  0  0  0  0  0  0  0  0
    7.7331   -0.9050    0.0000 C   0  0  0  0  0  0  0  0  0  0  0  0
    6.0010    0.0950    0.0000 C   0  0  0  0  0  0  0  0  0  0  0  0
    8.5991   -1.4050    0.0000 C   0  0  0  0  0  0  0  0  0  0  0  0
    6.8671    0.5950    0.0000 C   0  0  0  0  0  0  0  0  0  0  0  0
    9.4651   -0.9050    0.0000 C   0  0  0  0  0  0  0  0  0  0  0  0
    6.8671    1.5950    0.0000 C   0  0  0  0  0  0  0  0  0  0  0  0
    5.1350   -1.4050    0.0000 C   0  0  0  0  0  0  0  0  0  0  0  0
    5.1350   -2.4050    0.0000 C   0  0  0  0  0  0  0  0  0  0  0  0
   11.1972   -0.9050    0.0000 C   0  0  0  0  0  0  0  0  0  0  0  0
    4.2690   -2.9050    0.0000 C   0  0  0  0  0  0  0  0  0  0  0  0
    7.7331    3.0950    0.0000 C   0  0  0  0  0  0  0  0  0  0  0  0
    4.2690   -3.9050    0.0000 C   0  0  0  0  0  0  0  0  0  0  0  0
   12.0632   -1.4050    0.0000 C   0  0  0  0  0  0  0  0  0  0  0  0
    8.5991    3.5950    0.0000 C   0  0  0  0  0  0  0  0  0  0  0  0
    3.4030   -4.4050    0.0000 C   0  0  0  0  0  0  0  0  0  0  0  0
    5.1350   -4.4050    0.0000 C   0  0  0  0  0  0  0  0  0  0  0  0
   12.9292   -0.9050    0.0000 C   0  0  0  0  0  0  0  0  0  0  0  0
    8.5991    4.5950    0.0000 C   0  0  0  0  0  0  0  0  0  0  0  0
    3.4030   -5.4050    0.0000 C   0  0  0  0  0  0  0  0  0  0  0  0
    5.1350   -5.4050    0.0000 C   0  0  0  0  0  0  0  0  0  0  0  0
   13.7953   -1.4050    0.0000 C   0  0  0  0  0  0  0  0  0  0  0  0
    4.2690   -5.9050    0.0000 C   0  0  0  0  0  0  0  0  0  0  0  0
    9.4651    5.0950    0.0000 C   0  0  0  0  0  0  0  0  0  0  0  0
   13.7953   -2.4050    0.0000 C   0  0  0  0  0  0  0  0  0  0  0  0
   14.6613   -0.9050    0.0000 C   0  0  0  0  0  0  0  0  0  0  0  0
   10.3312    4.5950    0.0000 C   0  0  0  0  0  0  0  0  0  0  0  0
    9.4651    6.0950    0.0000 C   0  0  0  0  0  0  0  0  0  0  0  0
   14.6613   -2.9050    0.0000 C   0  0  0  0  0  0  0  0  0  0  0  0
   11.1972    5.0950    0.0000 C   0  0  0  0  0  0  0  0  0  0  0  0
   15.5273   -1.4050    0.0000 C   0  0  0  0  0  0  0  0  0  0  0  0
   10.3312    6.5950    0.0000 C   0  0  0  0  0  0  0  0  0  0  0  0
   15.5273   -2.4050    0.0000 C   0  0  0  0  0  0  0  0  0  0  0  0
   11.1972    6.0950    0.0000 C   0  0  0  0  0  0  0  0  0  0  0  0
    6.4685   -1.8800    0.0000 H   0  0  0  0  0  0  0  0  0  0  0  0
    7.2656   -1.8800    0.0000 H   0  0  0  0  0  0  0  0  0  0  0  0
    8.1316   -0.4301    0.0000 H   0  0  0  0  0  0  0  0  0  0  0  0
    7.3346   -0.4301    0.0000 H   0  0  0  0  0  0  0  0  0  0  0  0
    5.7890    0.6776    0.0000 H   0  0  0  0  0  0  0  0  0  0  0  0
    5.3905   -0.0127    0.0000 H   0  0  0  0  0  0  0  0  0  0  0  0
    8.2006   -1.8800    0.0000 H   0  0  0  0  0  0  0  0  0  0  0  0
    8.9976   -1.8800    0.0000 H   0  0  0  0  0  0  0  0  0  0  0  0
    7.0791    0.0124    0.0000 H   0  0  0  0  0  0  0  0  0  0  0  0
    7.4776    0.7027    0.0000 H   0  0  0  0  0  0  0  0  0  0  0  0
    9.8637   -0.4301    0.0000 H   0  0  0  0  0  0  0  0  0  0  0  0
    9.0666   -0.4301    0.0000 H   0  0  0  0  0  0  0  0  0  0  0  0
    6.6550    2.1776    0.0000 H   0  0  0  0  0  0  0  0  0  0  0  0
    6.2565    1.4873    0.0000 H   0  0  0  0  0  0  0  0  0  0  0  0
   10.3312   -2.0250    0.0000 H   0  0  0  0  0  0  0  0  0  0  0  0
    8.2700    1.7850    0.0000 H   0  0  0  0  0  0  0  0  0  0  0  0
    5.6720   -2.7150    0.0000 H   0  0  0  0  0  0  0  0  0  0  0  0
    3.7320   -2.5950    0.0000 H   0  0  0  0  0  0  0  0  0  0  0  0
   12.0632   -2.0250    0.0000 H   0  0  0  0  0  0  0  0  0  0  0  0
    9.1360    3.2850    0.0000 H   0  0  0  0  0  0  0  0  0  0  0  0
    2.8660   -4.0950    0.0000 H   0  0  0  0  0  0  0  0  0  0  0  0
    5.6720   -4.0950    0.0000 H   0  0  0  0  0  0  0  0  0  0  0  0
   12.9292   -0.2850    0.0000 H   0  0  0  0  0  0  0  0  0  0  0  0
    8.0622    4.9050    0.0000 H   0  0  0  0  0  0  0  0  0  0  0  0
    5.6720   -5.7150    0.0000 H   0  0  0  0  0  0  0  0  0  0  0  0
   13.2583   -2.7150    0.0000 H   0  0  0  0  0  0  0  0  0  0  0  0
   14.6613   -0.2850    0.0000 H   0  0  0  0  0  0  0  0  0  0  0  0
   10.3312    3.9750    0.0000 H   0  0  0  0  0  0  0  0  0  0  0  0
    8.9282    6.4050    0.0000 H   0  0  0  0  0  0  0  0  0  0  0  0
   16.0643   -1.0950    0.0000 H   0  0  0  0  0  0  0  0  0  0  0  0
   10.3312    7.2150    0.0000 H   0  0  0  0  0  0  0  0  0  0  0  0
    2.0000   -5.5950    0.0000 H   0  0  0  0  0  0  0  0  0  0  0  0
    4.8059   -7.2150    0.0000 H   0  0  0  0  0  0  0  0  0  0  0  0
   15.1982   -4.2150    0.0000 H   0  0  0  0  0  0  0  0  0  0  0  0
   12.6002    4.9050    0.0000 H   0  0  0  0  0  0  0  0  0  0  0  0
   16.9303   -2.5950    0.0000 H   0  0  0  0  0  0  0  0  0  0  0  0
   12.0632    7.2150    0.0000 H   0  0  0  0  0  0  0  0  0  0  0  0
  1 20  2  0  0  0  0
  2 22  2  0  0  0  0
  3 24  2  0  0  0  0
  4 32  1  0  0  0  0
  4 78  1  0  0  0  0
  5 35  1  0  0  0  0
  5 79  1  0  0  0  0
  6 41  1  0  0  0  0
  6 80  1  0  0  0  0
  7 42  1  0  0  0  0
  7 81  1  0  0  0  0
  8 45  1  0  0  0  0
  8 82  1  0  0  0  0
  9 46  1  0  0  0  0
  9 83  1  0  0  0  0
 10 13  1  0  0  0  0
 10 15  1  0  0  0  0
 10 20  1  0  0  0  0
 11 18  1  0  0  0  0
 11 22  1  0  0  0  0
 11 61  1  0  0  0  0
 12 19  1  0  0  0  0
 12 24  1  0  0  0  0
 12 62  1  0  0  0  0
 13 14  1  0  0  0  0
 13 47  1  0  0  0  0
 13 48  1  0  0  0  0
 14 16  1  0  0  0  0
 14 49  1  0  0  0  0
 14 50  1  0  0  0  0
 15 17  1  0  0  0  0
 15 51  1  0  0  0  0
 15 52  1  0  0  0  0
 16 18  1  0  0  0  0
 16 53  1  0  0  0  0
 16 54  1  0  0  0  0
 17 19  1  0  0  0  0
 17 55  1  0  0  0  0
 17 56  1  0  0  0  0
 18 57  1  0  0  0  0
 18 58  1  0  0  0  0
 19 59  1  0  0  0  0
 19 60  1  0  0  0  0
 20 21  1  0  0  0  0
 21 23  2  0  0  0  0
 21 63  1  0  0  0  0
 22 26  1  0  0  0  0
 23 25  1  0  0  0  0
 23 64  1  0  0  0  0
 24 27  1  0  0  0  0
 25 28  2  0  0  0  0
 25 29  1  0  0  0  0
 26 30  2  0  0  0  0
 26 65  1  0  0  0  0
 27 31  2  0  0  0  0
 27 66  1  0  0  0  0
 28 32  1  0  0  0  0
 28 67  1  0  0  0  0
 29 33  2  0  0  0  0
 29 68  1  0  0  0  0
 30 34  1  0  0  0  0
 30 69  1  0  0  0  0
 31 36  1  0  0  0  0
 31 70  1  0  0  0  0
 32 35  2  0  0  0  0
 33 35  1  0  0  0  0
 33 71  1  0  0  0  0
 34 37  2  0  0  0  0
 34 38  1  0  0  0  0
 36 39  2  0  0  0  0
 36 40  1  0  0  0  0
 37 41  1  0  0  0  0
 37 72  1  0  0  0  0
 38 43  2  0  0  0  0
 38 73  1  0  0  0  0
 39 42  1  0  0  0  0
 39 74  1  0  0  0  0
 40 44  2  0  0  0  0
 40 75  1  0  0  0  0
 41 45  2  0  0  0  0
 42 46  2  0  0  0  0
 43 45  1  0  0  0  0
 43 76  1  0  0  0  0
 44 46  1  0  0  0  0
 44 77  1  0  0  0  0
M  END
> <PUBCHEM_COMPOUND_CID>
15241070

> <PUBCHEM_COMPOUND_CANONICALIZED>
1

> <PUBCHEM_CACTVS_COMPLEXITY>
1050

> <PUBCHEM_CACTVS_HBOND_ACCEPTOR>
9

> <PUBCHEM_CACTVS_HBOND_DONOR>
8

> <PUBCHEM_CACTVS_ROTATABLE_BOND>
15

> <PUBCHEM_CACTVS_SUBSKEYS>
AAADcfB/PAAAAAAAAAAAAAAAAAAAAAAAAAAwYMAAAAAAAAABUAAAHgAQCAAADATBmAQwBoPAAgCIAiFSEACCAAAgIAAIiIAOiMgJJiKC0RKEcAEk1hGJmYeAwBAOIAABAAAAQABAAAIAAACAAAAAAAAAAA==

> <PUBCHEM_IUPAC_OPENEYE_NAME>
(E)-3-(3,4-dihydroxyphenyl)-N-[4-[[(E)-3-(3,4-dihydroxyphenyl)prop-2-enoyl]-[3-[[(E)-3-(3,4-dihydroxyphenyl)prop-2-enoyl]amino]propyl]amino]butyl]prop-2-enamide

> <PUBCHEM_IUPAC_CAS_NAME>
(E)-3-(3,4-dihydroxyphenyl)-N-[4-[[(E)-3-(3,4-dihydroxyphenyl)-1-oxoprop-2-enyl]-[3-[[(E)-3-(3,4-dihydroxyphenyl)-1-oxoprop-2-enyl]amino]propyl]amino]butyl]-2-propenamide

> <PUBCHEM_IUPAC_NAME>
(E)-3-(3,4-dihydroxyphenyl)-N-[4-[[(E)-3-(3,4-dihydroxyphenyl)prop-2-enoyl]-[3-[[(E)-3-(3,4-dihydroxyphenyl)prop-2-enoyl]amino]propyl]amino]butyl]prop-2-enamide

> <PUBCHEM_IUPAC_SYSTEMATIC_NAME>
(E)-3-[3,4-bis(oxidanyl)phenyl]-N-[4-[[(E)-3-[3,4-bis(oxidanyl)phenyl]prop-2-enoyl]-[3-[[(E)-3-[3,4-bis(oxidanyl)phenyl]prop-2-enoyl]amino]propyl]amino]butyl]prop-2-enamide

> <PUBCHEM_IUPAC_TRADITIONAL_NAME>
(E)-3-(3,4-dihydroxyphenyl)-N-[4-[[(E)-3-(3,4-dihydroxyphenyl)acryloyl]-[3-[[(E)-3-(3,4-dihydroxyphenyl)acryloyl]amino]propyl]amino]butyl]acrylamide

> <PUBCHEM_IUPAC_INCHI>
InChI=1S/C34H37N3O9/c38-26-10-4-23(20-29(26)41)7-13-32(44)35-16-1-2-18-37(34(46)15-9-25-6-12-28(40)31(43)22-25)19-3-17-36-33(45)14-8-24-5-11-27(39)30(42)21-24/h4-15,20-22,38-43H,1-3,16-19H2,(H,35,44)(H,36,45)/b13-7+,14-8+,15-9+

> <PUBCHEM_IUPAC_INCHIKEY>
ZKNHGZHOGBDPIA-ZOWBABNGSA-N

> <PUBCHEM_XLOGP3_AA>
3.5

> <PUBCHEM_EXACT_MASS>
631.25298

> <PUBCHEM_MOLECULAR_FORMULA>
C34H37N3O9

> <PUBCHEM_MOLECULAR_WEIGHT>
631.67228

> <PUBCHEM_OPENEYE_CAN_SMILES>
C1=CC(=C(C=C1C=CC(=O)NCCCCN(CCCNC(=O)C=CC2=CC(=C(C=C2)O)O)C(=O)C=CC3=CC(=C(C=C3)O)O)O)O

> <PUBCHEM_OPENEYE_ISO_SMILES>
C1=CC(=C(C=C1/C=C/C(=O)NCCCCN(CCCNC(=O)/C=C/C2=CC(=C(C=C2)O)O)C(=O)/C=C/C3=CC(=C(C=C3)O)O)O)O

> <PUBCHEM_CACTVS_TPSA>
200

> <PUBCHEM_MONOISOTOPIC_WEIGHT>
631.25298

> <PUBCHEM_TOTAL_CHARGE>
0

> <PUBCHEM_HEAVY_ATOM_COUNT>
46

> <PUBCHEM_ATOM_DEF_STEREO_COUNT>
0

> <PUBCHEM_ATOM_UDEF_STEREO_COUNT>
0

> <PUBCHEM_BOND_DEF_STEREO_COUNT>
3

> <PUBCHEM_BOND_UDEF_STEREO_COUNT>
0

> <PUBCHEM_ISOTOPIC_ATOM_COUNT>
0

> <PUBCHEM_COMPONENT_COUNT>
1

> <PUBCHEM_CACTVS_TAUTO_COUNT>
994

> <PUBCHEM_COORDINATE_TYPE>
1
5
255

> <PUBCHEM_BONDANNOTATIONS>
25  28  8
25  29  8
28  32  8
29  33  8
32  35  8
33  35  8
34  37  8
34  38  8
36  39  8
36  40  8
37  41  8
38  43  8
39  42  8
40  44  8
41  45  8
42  46  8
43  45  8
44  46  8

$$$$

