9543346
  -OEChem-07051213112D

 36 39  0     0  0  0  0  0  0999 V2000
    2.5346    1.2099    0.0000 O   0  0  0  0  0  0  0  0  0  0  0  0
    5.9881    1.2579    0.0000 O   0  0  0  0  0  0  0  0  0  0  0  0
    7.7001    2.2918    0.0000 O   0  0  0  0  0  0  0  0  0  0  0  0
    6.8047    3.7745    0.0000 O   0  0  0  0  0  0  0  0  0  0  0  0
    4.2716   -0.7753    0.0000 C   0  0  0  0  0  0  0  0  0  0  0  0
    4.2716   -1.7753    0.0000 C   0  0  0  0  0  0  0  0  0  0  0  0
    3.4056   -0.2753    0.0000 C   0  0  0  0  0  0  0  0  0  0  0  0
    5.1655   -0.2407    0.0000 C   0  0  0  0  0  0  0  0  0  0  0  0
    3.4056   -2.2753    0.0000 C   0  0  0  0  0  0  0  0  0  0  0  0
    5.1655   -2.3100    0.0000 C   0  0  0  0  0  0  0  0  0  0  0  0
    3.4043    0.7164    0.0000 C   0  0  0  0  0  0  0  0  0  0  0  0
    2.5396   -0.7753    0.0000 C   0  0  0  0  0  0  0  0  0  0  0  0
    5.1277    0.7503    0.0000 C   0  0  0  0  0  0  0  0  0  0  0  0
    6.0716   -0.7545    0.0000 C   0  0  0  0  0  0  0  0  0  0  0  0
    4.2564    1.2238    0.0000 C   0  0  0  0  0  0  0  0  0  0  0  0
    2.5396   -1.7753    0.0000 C   0  0  0  0  0  0  0  0  0  0  0  0
    6.0716   -1.7962    0.0000 C   0  0  0  0  0  0  0  0  0  0  0  0
    3.4043   -3.2670    0.0000 C   0  0  0  0  0  0  0  0  0  0  0  0
    5.1277   -3.3010    0.0000 C   0  0  0  0  0  0  0  0  0  0  0  0
    4.2564   -3.7745    0.0000 C   0  0  0  0  0  0  0  0  0  0  0  0
    4.2367    2.2236    0.0000 C   0  0  0  0  0  0  0  0  0  0  0  0
    5.0927    2.7406    0.0000 C   0  0  0  0  0  0  0  0  0  0  0  0
    5.9684    2.2577    0.0000 C   0  0  0  0  0  0  0  0  0  0  0  0
    6.8244    2.7747    0.0000 C   0  0  0  0  0  0  0  0  0  0  0  0
    2.0026   -0.4653    0.0000 H   0  0  0  0  0  0  0  0  0  0  0  0
    5.6545    1.0773    0.0000 H   0  0  0  0  0  0  0  0  0  0  0  0
    6.6074   -0.4425    0.0000 H   0  0  0  0  0  0  0  0  0  0  0  0
    2.0026   -2.0853    0.0000 H   0  0  0  0  0  0  0  0  0  0  0  0
    6.6074   -2.1082    0.0000 H   0  0  0  0  0  0  0  0  0  0  0  0
    2.8651   -3.5731    0.0000 H   0  0  0  0  0  0  0  0  0  0  0  0
    5.6545   -3.6280    0.0000 H   0  0  0  0  0  0  0  0  0  0  0  0
    4.2442   -4.3944    0.0000 H   0  0  0  0  0  0  0  0  0  0  0  0
    3.6938    2.5230    0.0000 H   0  0  0  0  0  0  0  0  0  0  0  0
    2.0000    0.8960    0.0000 H   0  0  0  0  0  0  0  0  0  0  0  0
    5.0805    3.3604    0.0000 H   0  0  0  0  0  0  0  0  0  0  0  0
    8.2308    2.6123    0.0000 H   0  0  0  0  0  0  0  0  0  0  0  0
  1 11  1  0  0  0  0
  1 34  1  0  0  0  0
  2 23  2  0  0  0  0
  3 24  1  0  0  0  0
  3 36  1  0  0  0  0
  4 24  2  0  0  0  0
  5  6  1  0  0  0  0
  5  7  2  0  0  0  0
  5  8  1  0  0  0  0
  6  9  1  0  0  0  0
  6 10  2  0  0  0  0
  7 11  1  0  0  0  0
  7 12  1  0  0  0  0
  8 13  2  0  0  0  0
  8 14  1  0  0  0  0
  9 16  1  0  0  0  0
  9 18  2  0  0  0  0
 10 17  1  0  0  0  0
 10 19  1  0  0  0  0
 11 15  2  0  0  0  0
 12 16  2  0  0  0  0
 12 25  1  0  0  0  0
 13 15  1  0  0  0  0
 13 26  1  0  0  0  0
 14 17  2  0  0  0  0
 14 27  1  0  0  0  0
 15 21  1  0  0  0  0
 16 28  1  0  0  0  0
 17 29  1  0  0  0  0
 18 20  1  0  0  0  0
 18 30  1  0  0  0  0
 19 20  2  0  0  0  0
 19 31  1  0  0  0  0
 20 32  1  0  0  0  0
 21 22  2  0  0  0  0
 21 33  1  0  0  0  0
 22 23  1  0  0  0  0
 22 35  1  0  0  0  0
 23 24  1  0  0  0  0
M  END
> <PUBCHEM_COMPOUND_CID>
9543346

> <PUBCHEM_COMPOUND_CANONICALIZED>
1

> <PUBCHEM_CACTVS_COMPLEXITY>
554

> <PUBCHEM_CACTVS_HBOND_ACCEPTOR>
4

> <PUBCHEM_CACTVS_HBOND_DONOR>
2

> <PUBCHEM_CACTVS_ROTATABLE_BOND>
3

> <PUBCHEM_CACTVS_SUBSKEYS>
AAADccB4OAAAAAAAAAAAAAAAAAAAAAAAAAAwYMGAAAAAAADBVAAAGgAACAAADASAmAAwDsAAAgCIAqDSCAICAAAgIAAIiAFECMgIJiKCERKAcAAkwBEImYeAwPAO4AADAAAYAADAAAYAADAAAAAAAAAAAA==

> <PUBCHEM_IUPAC_OPENEYE_NAME>
(Z)-4-(1-hydroxypyren-2-yl)-2-oxo-but-3-enoic acid

> <PUBCHEM_IUPAC_CAS_NAME>
(Z)-4-(1-hydroxy-2-pyrenyl)-2-oxo-3-butenoic acid

> <PUBCHEM_IUPAC_NAME>
(Z)-4-(1-hydroxypyren-2-yl)-2-oxobut-3-enoic acid

> <PUBCHEM_IUPAC_SYSTEMATIC_NAME>
(Z)-2-oxidanylidene-4-(1-oxidanylpyren-2-yl)but-3-enoic acid

> <PUBCHEM_IUPAC_TRADITIONAL_NAME>
(Z)-4-(1-hydroxypyren-2-yl)-2-keto-but-3-enoic acid

> <PUBCHEM_IUPAC_INCHI>
InChI=1S/C20H12O4/c21-16(20(23)24)9-7-14-10-13-5-4-11-2-1-3-12-6-8-15(19(14)22)18(13)17(11)12/h1-10,22H,(H,23,24)/b9-7-

> <PUBCHEM_IUPAC_INCHIKEY>
VGEQGUNFRLONKV-CLFYSBASSA-N

> <PUBCHEM_XLOGP3_AA>
4.5

> <PUBCHEM_EXACT_MASS>
316.073559

> <PUBCHEM_MOLECULAR_FORMULA>
C20H12O4

> <PUBCHEM_MOLECULAR_WEIGHT>
316.30688

> <PUBCHEM_OPENEYE_CAN_SMILES>
C1=CC2=C3C(=C1)C=CC4=C3C(=CC(=C4O)C=CC(=O)C(=O)O)C=C2

> <PUBCHEM_OPENEYE_ISO_SMILES>
C1=CC2=C3C(=C1)C=CC4=C3C(=CC(=C4O)/C=C\C(=O)C(=O)O)C=C2

> <PUBCHEM_CACTVS_TPSA>
74.6

> <PUBCHEM_MONOISOTOPIC_WEIGHT>
316.073559

> <PUBCHEM_TOTAL_CHARGE>
0

> <PUBCHEM_HEAVY_ATOM_COUNT>
24

> <PUBCHEM_ATOM_DEF_STEREO_COUNT>
0

> <PUBCHEM_ATOM_UDEF_STEREO_COUNT>
0

> <PUBCHEM_BOND_DEF_STEREO_COUNT>
1

> <PUBCHEM_BOND_UDEF_STEREO_COUNT>
0

> <PUBCHEM_ISOTOPIC_ATOM_COUNT>
0

> <PUBCHEM_COMPONENT_COUNT>
1

> <PUBCHEM_CACTVS_TAUTO_COUNT>
5

> <PUBCHEM_COORDINATE_TYPE>
1
5
255

> <PUBCHEM_BONDANNOTATIONS>
10  17  8
10  19  8
11  15  8
12  16  8
13  15  8
14  17  8
18  20  8
19  20  8
5  6  8
5  7  8
5  8  8
6  10  8
6  9  8
7  11  8
7  12  8
8  13  8
8  14  8
9  16  8
9  18  8

$$$$

