   Color/Form

     * YELLOW OIL
     * Pale yellow

   from [1]HSDB

   Boiling Point
        219 deg C
   from [2]HSDB

   Density/Specific Gravity
        1.0631 @ 18.5 DEG C/4 DEG C
   from [3]HSDB

   Octanol/Water Partition Coefficient
        log Kow= 0.36
   from [4]HSDB

   Solubilities

     * SOL IN WATER (7.7%) & IN ORGANIC SOLVENTS & LIPIDS
     * SOL IN HYDROCHLORIC ACID
     * in water, 7.65X10+4 mg/l at 24 deg C. [Mirvish SS et al; J Natl
       Cancer Inst 56: 1125-9 (1976)] [5]PubMed Abstract

   from [6]HSDB

   Spectral Properties

     * MAX ABSORPTION: 354 NM (LOG E= 1.91); 366 NM (LOG E= 2.04); 377 NM
       (LOG E= 2.00)
     * INDEX OF REFRACTION: 1.4933 @ 18 DEG C/D
     * Max absorption in water 235 and 337 nm (E=837 and 6.4).

   from [7]HSDB

   Other Chemical/Physical Properties
        RELATIVELY RESISTANT TO HYDROLYSIS BUT CAN BE SPLIT BY HYDROGEN
   BROMIDE IN ACETIC ACID; STRONG OXIDANTS (PERACIDS) OXIDIZE IT TO
   CORRESPONDING NITRAMINE; CAN BE REDUCED TO CORRESPONDING HYDRAZINE &/OR
   AMINE
   from [8]HSDB

   Computed Properties
   Molecular Weight                  114.1457 [g/mol]
   Molecular Formula                 C[5]H[10]N[2]O
   XLogP3                            0.4
   H-Bond Donor                      0
   H-Bond Acceptor                   3
   Rotatable Bond Count              0
   Exact Mass                        114.079313
   MonoIsotopic Mass                 114.079313
   Topological Polar Surface Area    32.7
   Heavy Atom Count                  8
   Formal Charge                     0
   Complexity                        78.5
   Isotope Atom Count                0
   Defined Atom Stereocenter Count   0
   Undefined Atom Stereocenter Count 0
   Defined Bond Stereocenter Count   0
   Undefined Bond Stereocenter Count 0
   Covalently-Bonded Unit Count      1
   Feature 3D Ring Count             1
   Effective Rotor Count             2.2
   Conformer Sampling RMSD           0.4
   CID Conformer Count               [9]12

References

   1. http://toxnet.nlm.nih.gov/cgi-bin/sis/search/r?dbs+hsdb:@term+@rn+@rel+100-75-4
   2. http://toxnet.nlm.nih.gov/cgi-bin/sis/search/r?dbs+hsdb:@term+@rn+@rel+100-75-4
   3. http://toxnet.nlm.nih.gov/cgi-bin/sis/search/r?dbs+hsdb:@term+@rn+@rel+100-75-4
   4. http://toxnet.nlm.nih.gov/cgi-bin/sis/search/r?dbs+hsdb:@term+@rn+@rel+100-75-4
   5. http://www.ncbi.nlm.nih.gov/entrez/query.fcgi?cmd=Retrieve&db=pubmed&dopt=Abstract&list_uids=994213
   6. http://toxnet.nlm.nih.gov/cgi-bin/sis/search/r?dbs+hsdb:@term+@rn+@rel+100-75-4
   7. http://toxnet.nlm.nih.gov/cgi-bin/sis/search/r?dbs+hsdb:@term+@rn+@rel+100-75-4
   8. http://toxnet.nlm.nih.gov/cgi-bin/sis/search/r?dbs+hsdb:@term+@rn+@rel+100-75-4
   9. http://pubchem.ncbi.nlm.nih.gov/vw3d/vw3d.cgi?cid=7526
