89644
  -OEChem-07051212592D

 40 42  0     1  0  0  0  0  0999 V2000
   10.0641    0.5247    0.0000 O   0  0  0  0  0  0  0  0  0  0  0  0
    9.9282   -1.0241    0.0000 O   0  0  0  0  0  0  0  0  0  0  0  0
    8.1465    2.0346    0.0000 O   0  0  0  0  0  0  0  0  0  0  0  0
    8.1465   -2.0346    0.0000 O   0  0  0  0  0  0  0  0  0  0  0  0
    6.3981    2.0000    0.0000 O   0  0  0  0  0  0  0  0  0  0  0  0
    6.3981   -2.0000    0.0000 O   0  0  0  0  0  0  0  0  0  0  0  0
    4.6497   -2.0346    0.0000 O   0  0  0  0  0  0  0  0  0  0  0  0
    2.8680    1.0241    0.0000 O   0  0  0  0  0  0  0  0  0  0  0  0
    9.0641    0.5208    0.0000 C   0  0  2  0  0  0  0  0  0  0  0  0
    9.0641   -0.5208    0.0000 C   0  0  1  0  0  0  0  0  0  0  0  0
    8.1580    1.0347    0.0000 C   0  0  1  0  0  0  0  0  0  0  0  0
    8.1580   -1.0347    0.0000 C   0  0  2  0  0  0  0  0  0  0  0  0
    7.2641    0.5000    0.0000 C   0  0  0  0  0  0  0  0  0  0  0  0
    7.2641   -0.5000    0.0000 C   0  0  0  0  0  0  0  0  0  0  0  0
    9.5608    1.3888    0.0000 C   0  0  0  0  0  0  0  0  0  0  0  0
    6.3981    1.0000    0.0000 C   0  0  0  0  0  0  0  0  0  0  0  0
    6.3981   -1.0000    0.0000 C   0  0  0  0  0  0  0  0  0  0  0  0
    5.5320    0.5000    0.0000 C   0  0  0  0  0  0  0  0  0  0  0  0
    5.5320   -0.5000    0.0000 C   0  0  0  0  0  0  0  0  0  0  0  0
    4.6381   -1.0347    0.0000 C   0  0  0  0  0  0  0  0  0  0  0  0
    4.6381    1.0347    0.0000 C   0  0  0  0  0  0  0  0  0  0  0  0
    3.7320    0.5208    0.0000 C   0  0  0  0  0  0  0  0  0  0  0  0
    3.7320   -0.5208    0.0000 C   0  0  0  0  0  0  0  0  0  0  0  0
    2.0000    0.5275    0.0000 C   0  0  0  0  0  0  0  0  0  0  0  0
    9.0605   -1.1408    0.0000 H   0  0  0  0  0  0  0  0  0  0  0  0
    7.6170    1.3374    0.0000 H   0  0  0  0  0  0  0  0  0  0  0  0
    7.6170   -1.3374    0.0000 H   0  0  0  0  0  0  0  0  0  0  0  0
   10.0989    1.0808    0.0000 H   0  0  0  0  0  0  0  0  0  0  0  0
    9.8687    1.9269    0.0000 H   0  0  0  0  0  0  0  0  0  0  0  0
    9.0226    1.6967    0.0000 H   0  0  0  0  0  0  0  0  0  0  0  0
   10.3720    1.0628    0.0000 H   0  0  0  0  0  0  0  0  0  0  0  0
    9.9258   -1.6442    0.0000 H   0  0  0  0  0  0  0  0  0  0  0  0
    8.6798    2.3508    0.0000 H   0  0  0  0  0  0  0  0  0  0  0  0
    8.6798   -2.3508    0.0000 H   0  0  0  0  0  0  0  0  0  0  0  0
    4.6453    1.6546    0.0000 H   0  0  0  0  0  0  0  0  0  0  0  0
    3.1963   -0.8329    0.0000 H   0  0  0  0  0  0  0  0  0  0  0  0
    4.1164   -2.3508    0.0000 H   0  0  0  0  0  0  0  0  0  0  0  0
    1.6921    1.0656    0.0000 H   0  0  0  0  0  0  0  0  0  0  0  0
    1.4619    0.2196    0.0000 H   0  0  0  0  0  0  0  0  0  0  0  0
    2.3079   -0.0106    0.0000 H   0  0  0  0  0  0  0  0  0  0  0  0
  9  1  1  6  0  0  0
  1 31  1  0  0  0  0
 10  2  1  6  0  0  0
  2 32  1  0  0  0  0
 11  3  1  1  0  0  0
  3 33  1  0  0  0  0
 12  4  1  1  0  0  0
  4 34  1  0  0  0  0
  5 16  2  0  0  0  0
  6 17  2  0  0  0  0
  7 20  1  0  0  0  0
  7 37  1  0  0  0  0
  8 22  1  0  0  0  0
  8 24  1  0  0  0  0
  9 10  1  0  0  0  0
  9 11  1  0  0  0  0
  9 15  1  0  0  0  0
 10 12  1  0  0  0  0
 10 25  1  0  0  0  0
 11 13  1  0  0  0  0
 11 26  1  0  0  0  0
 12 14  1  0  0  0  0
 12 27  1  0  0  0  0
 13 14  2  0  0  0  0
 13 16  1  0  0  0  0
 14 17  1  0  0  0  0
 15 28  1  0  0  0  0
 15 29  1  0  0  0  0
 15 30  1  0  0  0  0
 16 18  1  0  0  0  0
 17 19  1  0  0  0  0
 18 19  1  0  0  0  0
 18 21  2  0  0  0  0
 19 20  2  0  0  0  0
 20 23  1  0  0  0  0
 21 22  1  0  0  0  0
 21 35  1  0  0  0  0
 22 23  2  0  0  0  0
 23 36  1  0  0  0  0
 24 38  1  0  0  0  0
 24 39  1  0  0  0  0
 24 40  1  0  0  0  0
M  END
> <PUBCHEM_COMPOUND_CID>
89644

> <PUBCHEM_COMPOUND_CANONICALIZED>
1

> <PUBCHEM_CACTVS_COMPLEXITY>
613

> <PUBCHEM_CACTVS_HBOND_ACCEPTOR>
8

> <PUBCHEM_CACTVS_HBOND_DONOR>
5

> <PUBCHEM_CACTVS_ROTATABLE_BOND>
1

> <PUBCHEM_CACTVS_SUBSKEYS>
AAADceB4PAAAAAAAAAAAAAAAAAAAAAAAAAAwQIAAAAAAAADBAAAAGgAACAAADFSgmAIyBoAABgCIAqBSAAACCAAkIAAAiAEGCMgNNzaGNRqAcWAl4BUJuYfL7PzOoAABCAAYAABAAAIQADAAAAAAAAAAAA==

> <PUBCHEM_IUPAC_OPENEYE_NAME>
(1S,2R,3S,4R)-1,2,3,4,8-pentahydroxy-6-methoxy-3-methyl-2,4-dihydro-1H-anthracene-9,10-dione

> <PUBCHEM_IUPAC_CAS_NAME>
(1S,2R,3S,4R)-1,2,3,4,8-pentahydroxy-6-methoxy-3-methyl-2,4-dihydro-1H-anthracene-9,10-dione

> <PUBCHEM_IUPAC_NAME>
(1S,2R,3S,4R)-1,2,3,4,8-pentahydroxy-6-methoxy-3-methyl-2,4-dihydro-1H-anthracene-9,10-dione

> <PUBCHEM_IUPAC_SYSTEMATIC_NAME>
(1S,2R,3S,4R)-6-methoxy-3-methyl-1,2,3,4,8-pentakis(oxidanyl)-2,4-dihydro-1H-anthracene-9,10-dione

> <PUBCHEM_IUPAC_TRADITIONAL_NAME>
(1S,2R,3S,4R)-1,2,3,4,8-pentahydroxy-6-methoxy-3-methyl-2,4-dihydro-1H-anthracene-9,10-quinone

> <PUBCHEM_IUPAC_INCHI>
InChI=1S/C16H16O8/c1-16(23)14(21)10-9(13(20)15(16)22)12(19)8-6(11(10)18)3-5(24-2)4-7(8)17/h3-4,13-15,17,20-23H,1-2H3/t13-,14+,15+,16-/m0/s1

> <PUBCHEM_IUPAC_INCHIKEY>
VSMBLBOUQJNJIL-JJXSEGSLSA-N

> <PUBCHEM_XLOGP3_AA>
-1.3

> <PUBCHEM_EXACT_MASS>
336.084517

> <PUBCHEM_MOLECULAR_FORMULA>
C16H16O8

> <PUBCHEM_MOLECULAR_WEIGHT>
336.29344

> <PUBCHEM_OPENEYE_CAN_SMILES>
CC1(C(C(C2=C(C1O)C(=O)C3=CC(=CC(=C3C2=O)O)OC)O)O)O

> <PUBCHEM_OPENEYE_ISO_SMILES>
C[C@]1([C@@H]([C@H](C2=C([C@H]1O)C(=O)C3=CC(=CC(=C3C2=O)O)OC)O)O)O

> <PUBCHEM_CACTVS_TPSA>
145

> <PUBCHEM_MONOISOTOPIC_WEIGHT>
336.084517

> <PUBCHEM_TOTAL_CHARGE>
0

> <PUBCHEM_HEAVY_ATOM_COUNT>
24

> <PUBCHEM_ATOM_DEF_STEREO_COUNT>
4

> <PUBCHEM_ATOM_UDEF_STEREO_COUNT>
0

> <PUBCHEM_BOND_DEF_STEREO_COUNT>
0

> <PUBCHEM_BOND_UDEF_STEREO_COUNT>
0

> <PUBCHEM_ISOTOPIC_ATOM_COUNT>
0

> <PUBCHEM_COMPONENT_COUNT>
1

> <PUBCHEM_CACTVS_TAUTO_COUNT>
5

> <PUBCHEM_COORDINATE_TYPE>
1
5
255

> <PUBCHEM_BONDANNOTATIONS>
9  1  6
18  19  8
18  21  8
19  20  8
10  2  6
20  23  8
21  22  8
22  23  8
11  3  5
12  4  5

$$$$

