150885
  -OEChem-07051212512D

 28 29  0     0  0  0  0  0  0999 V2000
    2.5369    0.0103    0.0000 O   0  0  0  0  0  0  0  0  0  0  0  0
    6.0812   -1.7944    0.0000 N   0  0  0  0  0  0  0  0  0  0  0  0
    7.6811    1.9223    0.0000 N   0  0  0  0  0  0  0  0  0  0  0  0
    6.0812   -0.1850    0.0000 C   0  0  0  0  0  0  0  0  0  0  0  0
    6.3919    0.7656    0.0000 C   0  0  0  0  0  0  0  0  0  0  0  0
    5.1350   -0.4897    0.0000 C   0  0  0  0  0  0  0  0  0  0  0  0
    5.1350   -1.4897    0.0000 C   0  0  0  0  0  0  0  0  0  0  0  0
    7.3704    0.9718    0.0000 C   0  0  0  0  0  0  0  0  0  0  0  0
    6.6648   -0.9897    0.0000 C   0  0  0  0  0  0  0  0  0  0  0  0
    4.2690    0.0103    0.0000 C   0  0  0  0  0  0  0  0  0  0  0  0
    4.2690   -1.9897    0.0000 C   0  0  0  0  0  0  0  0  0  0  0  0
    3.4030   -0.4897    0.0000 C   0  0  0  0  0  0  0  0  0  0  0  0
    3.4030   -1.4897    0.0000 C   0  0  0  0  0  0  0  0  0  0  0  0
    8.6596    2.1285    0.0000 C   0  0  0  0  0  0  0  0  0  0  0  0
    6.3713    1.3852    0.0000 H   0  0  0  0  0  0  0  0  0  0  0  0
    5.7781    0.8529    0.0000 H   0  0  0  0  0  0  0  0  0  0  0  0
    7.3910    0.3521    0.0000 H   0  0  0  0  0  0  0  0  0  0  0  0
    7.9842    0.8844    0.0000 H   0  0  0  0  0  0  0  0  0  0  0  0
    7.2848   -0.9897    0.0000 H   0  0  0  0  0  0  0  0  0  0  0  0
    6.2738   -2.3838    0.0000 H   0  0  0  0  0  0  0  0  0  0  0  0
    4.2690    0.6303    0.0000 H   0  0  0  0  0  0  0  0  0  0  0  0
    4.2690   -2.6097    0.0000 H   0  0  0  0  0  0  0  0  0  0  0  0
    7.2670    2.3838    0.0000 H   0  0  0  0  0  0  0  0  0  0  0  0
    2.8660   -1.7997    0.0000 H   0  0  0  0  0  0  0  0  0  0  0  0
    8.7874    1.5218    0.0000 H   0  0  0  0  0  0  0  0  0  0  0  0
    9.2662    2.2564    0.0000 H   0  0  0  0  0  0  0  0  0  0  0  0
    8.5317    2.7352    0.0000 H   0  0  0  0  0  0  0  0  0  0  0  0
    2.0000   -0.2997    0.0000 H   0  0  0  0  0  0  0  0  0  0  0  0
  1 12  1  0  0  0  0
  1 28  1  0  0  0  0
  2  7  1  0  0  0  0
  2  9  1  0  0  0  0
  2 20  1  0  0  0  0
  3  8  1  0  0  0  0
  3 14  1  0  0  0  0
  3 23  1  0  0  0  0
  4  5  1  0  0  0  0
  4  6  1  0  0  0  0
  4  9  2  0  0  0  0
  5  8  1  0  0  0  0
  5 15  1  0  0  0  0
  5 16  1  0  0  0  0
  6  7  2  0  0  0  0
  6 10  1  0  0  0  0
  7 11  1  0  0  0  0
  8 17  1  0  0  0  0
  8 18  1  0  0  0  0
  9 19  1  0  0  0  0
 10 12  2  0  0  0  0
 10 21  1  0  0  0  0
 11 13  2  0  0  0  0
 11 22  1  0  0  0  0
 12 13  1  0  0  0  0
 13 24  1  0  0  0  0
 14 25  1  0  0  0  0
 14 26  1  0  0  0  0
 14 27  1  0  0  0  0
M  END
> <PUBCHEM_COMPOUND_CID>
150885

> <PUBCHEM_COMPOUND_CANONICALIZED>
1

> <PUBCHEM_CACTVS_COMPLEXITY>
186

> <PUBCHEM_CACTVS_HBOND_ACCEPTOR>
2

> <PUBCHEM_CACTVS_HBOND_DONOR>
3

> <PUBCHEM_CACTVS_ROTATABLE_BOND>
3

> <PUBCHEM_CACTVS_SUBSKEYS>
AAADccBzIAAAAAAAAAAAAAAAAAAAAWAAAAAwAAAAAAAAAFgB8AAAHgAQCAAADAzBngQ+xvLJkgCgAzRnRACCgCAxIiAI2aA+bJgIJuLCkZOEcAhk0BHI2Aew0PIOgEABAAACAAAAgAIAAAQAAAAAAAAAAA==

> <PUBCHEM_IUPAC_OPENEYE_NAME>
3-[2-(methylamino)ethyl]-1H-indol-5-ol

> <PUBCHEM_IUPAC_CAS_NAME>
3-[2-(methylamino)ethyl]-1H-indol-5-ol

> <PUBCHEM_IUPAC_NAME>
3-[2-(methylamino)ethyl]-1H-indol-5-ol

> <PUBCHEM_IUPAC_SYSTEMATIC_NAME>
3-[2-(methylamino)ethyl]-1H-indol-5-ol

> <PUBCHEM_IUPAC_TRADITIONAL_NAME>
3-[2-(methylamino)ethyl]-1H-indol-5-ol

> <PUBCHEM_IUPAC_INCHI>
InChI=1S/C11H14N2O/c1-12-5-4-8-7-13-11-3-2-9(14)6-10(8)11/h2-3,6-7,12-14H,4-5H2,1H3

> <PUBCHEM_IUPAC_INCHIKEY>
ASUSBMNYRHGZIG-UHFFFAOYSA-N

> <PUBCHEM_XLOGP3>
0.7

> <PUBCHEM_EXACT_MASS>
190.110613

> <PUBCHEM_MOLECULAR_FORMULA>
C11H14N2O

> <PUBCHEM_MOLECULAR_WEIGHT>
190.24166

> <PUBCHEM_OPENEYE_CAN_SMILES>
CNCCC1=CNC2=C1C=C(C=C2)O

> <PUBCHEM_OPENEYE_ISO_SMILES>
CNCCC1=CNC2=C1C=C(C=C2)O

> <PUBCHEM_CACTVS_TPSA>
48

> <PUBCHEM_MONOISOTOPIC_WEIGHT>
190.110613

> <PUBCHEM_TOTAL_CHARGE>
0

> <PUBCHEM_HEAVY_ATOM_COUNT>
14

> <PUBCHEM_ATOM_DEF_STEREO_COUNT>
0

> <PUBCHEM_ATOM_UDEF_STEREO_COUNT>
0

> <PUBCHEM_BOND_DEF_STEREO_COUNT>
0

> <PUBCHEM_BOND_UDEF_STEREO_COUNT>
0

> <PUBCHEM_ISOTOPIC_ATOM_COUNT>
0

> <PUBCHEM_COMPONENT_COUNT>
1

> <PUBCHEM_CACTVS_TAUTO_COUNT>
9

> <PUBCHEM_COORDINATE_TYPE>
1
5
255

> <PUBCHEM_BONDANNOTATIONS>
10  12  8
11  13  8
12  13  8
2  7  8
2  9  8
4  6  8
4  9  8
6  10  8
6  7  8
7  11  8

$$$$

