   Color/Form

     * LEAF OR NEEDLES FROM ALCOHOL
     * WHITE CRYSTALS
     * Crystalline solid

   from [1]HSDB

   Odor
        Weak, characteristic odor
   from [2]HSDB

   Boiling Point
        287 deg C @ 760 mm Hg
   from [3]HSDB

   Melting Point
        86.5 deg C
   from [4]HSDB

   Critical Temperature and Pressure
        Critical temperature = 824 K; critial pressure = 3.64 MPa
   from [5]HSDB

   Density/Specific Gravity
        1.0886 @ 99 deg C
   from [6]HSDB

   Heat of Combustion
        -5.68X10+9 J/kmol at 25 deg C
   from [7]HSDB

   Heat of Vaporization
        66.4 kcal/mol at 130-140 deg C
   from [8]HSDB

   Octanol/Water Partition Coefficient
        log Kow= 4.12
   from [9]HSDB

   Solubilities

     * Sol in alcohol and acetone; very soluble in ether
     * Readily soluble in benzene and acetic acid
     * In water, 3.1 mg/l @ 25 deg C [Lu PY et al; Environ Health Perspect
       24:201-8 (1978)] [10]PubMed Abstract

   from [11]HSDB

   Spectral Properties

     * MAX ABSORPTION (ALCOHOL): 217 NM (LOG E= 4.5); 245 NM (LOG E= 4.0);
       250 NM (LOG E= 4.3); 280 NM (LOG E= 4.2); 295 NM (LOG E= 4.0); 300
       NM (SHOULDER) (LOG E= 4.2); 285 NM (LOG E= 4.2)
     * SADTLER REFERENCE NUMBER: 5986 (IR, PRISM)
     * Index of refraction: 1.6079 @ 99 deg C/D
     * IR: 6050 (Coblentz Society Spectral Collection)
     * UV: 15737 (Sadtler Research Laboratories Spectral Collection)
     * NMR: 589 (Varian Associates NMR Spectra Catalogue)
     * MASS: 62174 (NIST/EPA/MSDC Mass Spectral Database, 1990 version)

   from [12]HSDB

   Vapor Density
        5.8 (Air= 1)
   from [13]HSDB

   Vapor Pressure
        0.00248 mm Hg @ 25 deg C
   from [14]HSDB

   Other Chemical/Physical Properties

     * Sublimeable, volatile in steam; dielectric constant = 3.0 at 100
       deg C
     * Enthalphy of sublimation = 84.42 kJ/mol
     * Heat of fusion = 2.27X10+7 J/kmol
     * Vapor pressure = 0.3310 Pa (2.48X10-3 mm Hg) at 25 deg C
       /Sublimation vapor pressure/
     * Hydroxyl radical reaction rate constant = 3.90X10-12 cu
       cm/molecule-sec @ 25 deg C

   from [15]HSDB

   Computed Properties
   Molecular Weight                  168.19132 [g/mol]
   Molecular Formula                 C[12]H[8]O
   XLogP3                            4.1
   H-Bond Donor                      0
   H-Bond Acceptor                   1
   Rotatable Bond Count              0
   Exact Mass                        168.057515
   MonoIsotopic Mass                 168.057515
   Topological Polar Surface Area    13.1
   Heavy Atom Count                  13
   Formal Charge                     0
   Complexity                        170
   Isotope Atom Count                0
   Defined Atom Stereocenter Count   0
   Undefined Atom Stereocenter Count 0
   Defined Bond Stereocenter Count   0
   Undefined Bond Stereocenter Count 0
   Covalently-Bonded Unit Count      1
   Feature 3D Acceptor Count         1
   Feature 3D Ring Count             3
   Effective Rotor Count             0
   Conformer Sampling RMSD           0.4
   CID Conformer Count               [16]1

References

   1. http://toxnet.nlm.nih.gov/cgi-bin/sis/search/r?dbs+hsdb:@term+@rn+@rel+132-64-9
   2. http://toxnet.nlm.nih.gov/cgi-bin/sis/search/r?dbs+hsdb:@term+@rn+@rel+132-64-9
   3. http://toxnet.nlm.nih.gov/cgi-bin/sis/search/r?dbs+hsdb:@term+@rn+@rel+132-64-9
   4. http://toxnet.nlm.nih.gov/cgi-bin/sis/search/r?dbs+hsdb:@term+@rn+@rel+132-64-9
   5. http://toxnet.nlm.nih.gov/cgi-bin/sis/search/r?dbs+hsdb:@term+@rn+@rel+132-64-9
   6. http://toxnet.nlm.nih.gov/cgi-bin/sis/search/r?dbs+hsdb:@term+@rn+@rel+132-64-9
   7. http://toxnet.nlm.nih.gov/cgi-bin/sis/search/r?dbs+hsdb:@term+@rn+@rel+132-64-9
   8. http://toxnet.nlm.nih.gov/cgi-bin/sis/search/r?dbs+hsdb:@term+@rn+@rel+132-64-9
   9. http://toxnet.nlm.nih.gov/cgi-bin/sis/search/r?dbs+hsdb:@term+@rn+@rel+132-64-9
  10. http://www.ncbi.nlm.nih.gov/entrez/query.fcgi?cmd=Retrieve&db=pubmed&dopt=Abstract&list_uids=17539148
  11. http://toxnet.nlm.nih.gov/cgi-bin/sis/search/r?dbs+hsdb:@term+@rn+@rel+132-64-9
  12. http://toxnet.nlm.nih.gov/cgi-bin/sis/search/r?dbs+hsdb:@term+@rn+@rel+132-64-9
  13. http://toxnet.nlm.nih.gov/cgi-bin/sis/search/r?dbs+hsdb:@term+@rn+@rel+132-64-9
  14. http://toxnet.nlm.nih.gov/cgi-bin/sis/search/r?dbs+hsdb:@term+@rn+@rel+132-64-9
  15. http://toxnet.nlm.nih.gov/cgi-bin/sis/search/r?dbs+hsdb:@term+@rn+@rel+132-64-9
  16. http://pubchem.ncbi.nlm.nih.gov/vw3d/vw3d.cgi?cid=568
