   Color/Form
        Colorless liquid ... [Note: A gas above 94 degrees F.]
   from [1]HSDB

   Odor

     * ODOR IS SWEET, ALCOHOLIC, & LIKE ETHER OR BENZENE
     * In foods, propylene oxide has no residual odor.
     * Ethereal odor
     * ... Benzene-like odor ...

   from [2]HSDB

   Taste
        In foods, propylene oxide has no residual taste.
   from [3]HSDB

   Boiling Point
        34.23 deg C
   from [4]HSDB

   Melting Point
        -112.13 deg C
   from [5]HSDB

   Corrosivity
        NONCORROSIVE TO METALS
   from [6]HSDB

   Critical Temperature and Pressure
        Critical temperature: 209.1 deg C at 48.6 atm
   from [7]HSDB

   Density/Specific Gravity
        0.8304 @ 20/20 deg C
   from [8]HSDB

   Heat of Combustion
        -13,000 BTU/LB = -7,221 CAL/G = -302.3X10+5 JOULES/KG
   from [9]HSDB

   Heat of Vaporization
        LATENT HEAT OF VAPORIZATION: 205 BTU/LB+ 114 CAL/G+ 4.77X10+5
   JOULES/KG
   from [10]HSDB

   Octanol/Water Partition Coefficient
        log Kow= 0.03.
   from [11]HSDB

   Solubilities

     * 40.5 wt% water @ 20 deg C
     * MISCIBLE WITH ACETONE, BENZENE, CARBON TETRACHLORIDE, METHANOL, &
       ETHER
     * Soluble in alcohol and ether.
     * In water, 590,000 mg/l @ 25 deg C

   from [12]HSDB

   Spectral Properties

     * IR: 15270 (Sadtler Research Laboratories IR Grating Collection)
     * NMR: 32 (Varian Associates NMR Spectra Catalogue)
     * MASS: 31 (Atlas of Mass Spectral Data, John Wiley & Sons, New York)
     * MASS: 3980 (National Bureau of Standards EPA-NIH Mass Spectra Data
       Base, NSRDS-NBS-63)
     * Index of refraction: 1.3670 @ 20 degrees C/D

   from [13]HSDB

   Surface Tension
        24.5 dynes/cm
   from [14]HSDB

   Vapor Density
        2.0 (Air= 1)
   from [15]HSDB

   Vapor Pressure
        538 mm Hg @ 25 deg C
   from [16]HSDB

   Viscosity
        0.28 centipoise at 25 deg C
   from [17]HSDB

   Other Chemical/Physical Properties

     * Solubility of water in propylene oxide is 12.8% by wt at 20 deg C.
     * LIQ SURFACE TENSION: 24.5 DYNES/CM= 0.0245 NEWTON/M @ 15 DEG C;
       HEAT OF SOLN (EST): -19 BTU/LB= -11 CAL/G= -0.45X10+5 JOULES/KG
     * Ratio of Specific Heats of Vapor (gas): 1.113
     * SADTLER REFERENCE NUMBER: 387, 2211, 2212 (IR, PRISM) INDEX OF
       REFRACTION: 1.3607 AT 20 DEG C/D /DL-FORM/
     * Hydroxyl radical reaction rate constant= 5.20X10-13 cu
       cm/molecule-sec @ 25 deg C

   from [18]HSDB

   Computed Properties
   Molecular Weight                  58.07914 [g/mol]
   Molecular Formula                 C[3]H[6]O
   XLogP3                            0
   H-Bond Donor                      0
   H-Bond Acceptor                   1
   Rotatable Bond Count              0
   Exact Mass                        58.041865
   MonoIsotopic Mass                 58.041865
   Topological Polar Surface Area    12.5
   Heavy Atom Count                  4
   Formal Charge                     0
   Complexity                        26.5
   Isotope Atom Count                0
   Defined Atom Stereocenter Count   0
   Undefined Atom Stereocenter Count 1
   Defined Bond Stereocenter Count   0
   Undefined Bond Stereocenter Count 0
   Covalently-Bonded Unit Count      1
   Feature 3D Acceptor Count         1
   Effective Rotor Count             0.6
   Conformer Sampling RMSD           0.4
   CID Conformer Count               [19]2

References

   1. http://toxnet.nlm.nih.gov/cgi-bin/sis/search/r?dbs+hsdb:@term+@rn+@rel+75-56-9
   2. http://toxnet.nlm.nih.gov/cgi-bin/sis/search/r?dbs+hsdb:@term+@rn+@rel+75-56-9
   3. http://toxnet.nlm.nih.gov/cgi-bin/sis/search/r?dbs+hsdb:@term+@rn+@rel+75-56-9
   4. http://toxnet.nlm.nih.gov/cgi-bin/sis/search/r?dbs+hsdb:@term+@rn+@rel+75-56-9
   5. http://toxnet.nlm.nih.gov/cgi-bin/sis/search/r?dbs+hsdb:@term+@rn+@rel+75-56-9
   6. http://toxnet.nlm.nih.gov/cgi-bin/sis/search/r?dbs+hsdb:@term+@rn+@rel+75-56-9
   7. http://toxnet.nlm.nih.gov/cgi-bin/sis/search/r?dbs+hsdb:@term+@rn+@rel+75-56-9
   8. http://toxnet.nlm.nih.gov/cgi-bin/sis/search/r?dbs+hsdb:@term+@rn+@rel+75-56-9
   9. http://toxnet.nlm.nih.gov/cgi-bin/sis/search/r?dbs+hsdb:@term+@rn+@rel+75-56-9
  10. http://toxnet.nlm.nih.gov/cgi-bin/sis/search/r?dbs+hsdb:@term+@rn+@rel+75-56-9
  11. http://toxnet.nlm.nih.gov/cgi-bin/sis/search/r?dbs+hsdb:@term+@rn+@rel+75-56-9
  12. http://toxnet.nlm.nih.gov/cgi-bin/sis/search/r?dbs+hsdb:@term+@rn+@rel+75-56-9
  13. http://toxnet.nlm.nih.gov/cgi-bin/sis/search/r?dbs+hsdb:@term+@rn+@rel+75-56-9
  14. http://toxnet.nlm.nih.gov/cgi-bin/sis/search/r?dbs+hsdb:@term+@rn+@rel+75-56-9
  15. http://toxnet.nlm.nih.gov/cgi-bin/sis/search/r?dbs+hsdb:@term+@rn+@rel+75-56-9
  16. http://toxnet.nlm.nih.gov/cgi-bin/sis/search/r?dbs+hsdb:@term+@rn+@rel+75-56-9
  17. http://toxnet.nlm.nih.gov/cgi-bin/sis/search/r?dbs+hsdb:@term+@rn+@rel+75-56-9
  18. http://toxnet.nlm.nih.gov/cgi-bin/sis/search/r?dbs+hsdb:@term+@rn+@rel+75-56-9
  19. http://pubchem.ncbi.nlm.nih.gov/vw3d/vw3d.cgi?cid=6378
