14253336
  -OEChem-07051212482D

 58 57  0     1  0  0  0  0  0999 V2000
    6.8671    1.4050    0.0000 S   0  0  0  0  0  0  0  0  0  0  0  0
    6.8671    2.4050    0.0000 S   0  0  0  0  0  0  0  0  0  0  0  0
    6.0010   -2.0950    0.0000 O   0  0  0  0  0  0  0  0  0  0  0  0
    9.4651    2.9050    0.0000 O   0  0  0  0  0  0  0  0  0  0  0  0
    6.8671   -1.5950    0.0000 O   0  0  0  0  0  0  0  0  0  0  0  0
    6.0010    3.9050    0.0000 O   0  0  0  0  0  0  0  0  0  0  0  0
    2.5369   -5.0950    0.0000 O   0  0  0  0  0  0  0  0  0  0  0  0
   13.7953    4.4050    0.0000 O   0  0  0  0  0  0  0  0  0  0  0  0
    7.7331   -0.0950    0.0000 O   0  0  0  0  0  0  0  0  0  0  0  0
    6.8671    5.4050    0.0000 O   0  0  0  0  0  0  0  0  0  0  0  0
    4.2690   -5.0950    0.0000 O   0  0  0  0  0  0  0  0  0  0  0  0
   12.9292    2.9050    0.0000 O   0  0  0  0  0  0  0  0  0  0  0  0
    5.1350   -0.5950    0.0000 N   0  0  0  0  0  0  0  0  0  0  0  0
    8.5991    4.4050    0.0000 N   0  0  0  0  0  0  0  0  0  0  0  0
    2.5369   -3.0950    0.0000 N   0  0  0  0  0  0  0  0  0  0  0  0
   12.0632    5.4050    0.0000 N   0  0  0  0  0  0  0  0  0  0  0  0
    4.2690   -3.0950    0.0000 C   0  0  0  0  0  0  0  0  0  0  0  0
   11.1972    3.9050    0.0000 C   0  0  0  0  0  0  0  0  0  0  0  0
    4.2690   -2.0950    0.0000 C   0  0  0  0  0  0  0  0  0  0  0  0
   10.3312    4.4050    0.0000 C   0  0  0  0  0  0  0  0  0  0  0  0
    3.4030   -3.5950    0.0000 C   0  0  1  0  0  0  0  0  0  0  0  0
    6.0010   -0.0950    0.0000 C   0  0  1  0  0  0  0  0  0  0  0  0
    7.7331    3.9050    0.0000 C   0  0  1  0  0  0  0  0  0  0  0  0
   12.0632    4.4050    0.0000 C   0  0  1  0  0  0  0  0  0  0  0  0
    5.1350   -1.5950    0.0000 C   0  0  0  0  0  0  0  0  0  0  0  0
    9.4651    3.9050    0.0000 C   0  0  0  0  0  0  0  0  0  0  0  0
    6.0010    0.9050    0.0000 C   0  0  0  0  0  0  0  0  0  0  0  0
    7.7331    2.9050    0.0000 C   0  0  0  0  0  0  0  0  0  0  0  0
    6.8671   -0.5950    0.0000 C   0  0  0  0  0  0  0  0  0  0  0  0
    3.4030   -4.5950    0.0000 C   0  0  0  0  0  0  0  0  0  0  0  0
    6.8671    4.4050    0.0000 C   0  0  0  0  0  0  0  0  0  0  0  0
   12.9292    3.9050    0.0000 C   0  0  0  0  0  0  0  0  0  0  0  0
    4.4810   -3.6776    0.0000 H   0  0  0  0  0  0  0  0  0  0  0  0
    4.8796   -2.9873    0.0000 H   0  0  0  0  0  0  0  0  0  0  0  0
   10.7987    3.4300    0.0000 H   0  0  0  0  0  0  0  0  0  0  0  0
   11.5957    3.4300    0.0000 H   0  0  0  0  0  0  0  0  0  0  0  0
    4.0569   -1.5124    0.0000 H   0  0  0  0  0  0  0  0  0  0  0  0
    3.6584   -2.2027    0.0000 H   0  0  0  0  0  0  0  0  0  0  0  0
   10.7297    4.8800    0.0000 H   0  0  0  0  0  0  0  0  0  0  0  0
    9.9326    4.8800    0.0000 H   0  0  0  0  0  0  0  0  0  0  0  0
    5.4641    0.2150    0.0000 H   0  0  0  0  0  0  0  0  0  0  0  0
    3.4030   -2.9750    0.0000 H   0  0  0  0  0  0  0  0  0  0  0  0
    8.2700    3.5950    0.0000 H   0  0  0  0  0  0  0  0  0  0  0  0
   12.6002    4.7150    0.0000 H   0  0  0  0  0  0  0  0  0  0  0  0
    4.5981   -0.2850    0.0000 H   0  0  0  0  0  0  0  0  0  0  0  0
    8.5991    5.0250    0.0000 H   0  0  0  0  0  0  0  0  0  0  0  0
    5.7890    1.4876    0.0000 H   0  0  0  0  0  0  0  0  0  0  0  0
    5.3905    0.7973    0.0000 H   0  0  0  0  0  0  0  0  0  0  0  0
    7.9451    2.3224    0.0000 H   0  0  0  0  0  0  0  0  0  0  0  0
    8.3437    3.0127    0.0000 H   0  0  0  0  0  0  0  0  0  0  0  0
    2.0000   -3.4050    0.0000 H   0  0  0  0  0  0  0  0  0  0  0  0
    2.5369   -2.4750    0.0000 H   0  0  0  0  0  0  0  0  0  0  0  0
   12.6002    5.7150    0.0000 H   0  0  0  0  0  0  0  0  0  0  0  0
   11.5263    5.7150    0.0000 H   0  0  0  0  0  0  0  0  0  0  0  0
    7.4040   -1.9050    0.0000 H   0  0  0  0  0  0  0  0  0  0  0  0
    5.4641    4.2150    0.0000 H   0  0  0  0  0  0  0  0  0  0  0  0
    2.5369   -5.7150    0.0000 H   0  0  0  0  0  0  0  0  0  0  0  0
   14.3322    4.0950    0.0000 H   0  0  0  0  0  0  0  0  0  0  0  0
  1  2  1  0  0  0  0
  1 27  1  0  0  0  0
  2 28  1  0  0  0  0
  3 25  2  0  0  0  0
  4 26  2  0  0  0  0
  5 29  1  0  0  0  0
  5 55  1  0  0  0  0
  6 31  1  0  0  0  0
  6 56  1  0  0  0  0
  7 30  1  0  0  0  0
  7 57  1  0  0  0  0
  8 32  1  0  0  0  0
  8 58  1  0  0  0  0
  9 29  2  0  0  0  0
 10 31  2  0  0  0  0
 11 30  2  0  0  0  0
 12 32  2  0  0  0  0
 22 13  1  1  0  0  0
 13 25  1  0  0  0  0
 13 45  1  0  0  0  0
 23 14  1  1  0  0  0
 14 26  1  0  0  0  0
 14 46  1  0  0  0  0
 21 15  1  1  0  0  0
 15 51  1  0  0  0  0
 15 52  1  0  0  0  0
 24 16  1  6  0  0  0
 16 53  1  0  0  0  0
 16 54  1  0  0  0  0
 17 19  1  0  0  0  0
 17 21  1  0  0  0  0
 17 33  1  0  0  0  0
 17 34  1  0  0  0  0
 18 20  1  0  0  0  0
 18 24  1  0  0  0  0
 18 35  1  0  0  0  0
 18 36  1  0  0  0  0
 19 25  1  0  0  0  0
 19 37  1  0  0  0  0
 19 38  1  0  0  0  0
 20 26  1  0  0  0  0
 20 39  1  0  0  0  0
 20 40  1  0  0  0  0
 21 30  1  0  0  0  0
 21 42  1  0  0  0  0
 22 27  1  0  0  0  0
 22 29  1  0  0  0  0
 22 41  1  0  0  0  0
 23 28  1  0  0  0  0
 23 31  1  0  0  0  0
 23 43  1  0  0  0  0
 24 32  1  0  0  0  0
 24 44  1  0  0  0  0
 27 47  1  0  0  0  0
 27 48  1  0  0  0  0
 28 49  1  0  0  0  0
 28 50  1  0  0  0  0
M  END
> <PUBCHEM_COMPOUND_CID>
14253336

> <PUBCHEM_COMPOUND_CANONICALIZED>
1

> <PUBCHEM_CACTVS_COMPLEXITY>
650

> <PUBCHEM_CACTVS_HBOND_ACCEPTOR>
14

> <PUBCHEM_CACTVS_HBOND_DONOR>
8

> <PUBCHEM_CACTVS_ROTATABLE_BOND>
17

> <PUBCHEM_CACTVS_SUBSKEYS>
AAADceB7vABgAAAAAAAAAAAAAAAAAAAAAAAAAAAAAAAAAAAAAAAAHgQQCAAACCjFwASACALAAgAIAAGQGAAAAAAAAAAAAIGIAAACABIAgCAEQAAEFgCQAACcFwIAAAAAAAAAAAAAAAAAAAAAAAAAAAAAAA==

> <PUBCHEM_IUPAC_OPENEYE_NAME>
(2S)-2-amino-5-[[(1R)-2-[[(2R)-2-[[(4S)-4-amino-4-carboxy-butanoyl]amino]-2-carboxy-ethyl]disulfanyl]-1-carboxy-ethyl]amino]-5-oxo-pentanoic acid

> <PUBCHEM_IUPAC_CAS_NAME>
(2S)-2-amino-5-[[(1R)-2-[[(2R)-2-[[(4S)-4-amino-4-carboxy-1-oxobutyl]amino]-2-carboxyethyl]disulfanyl]-1-carboxyethyl]amino]-5-oxopentanoic acid

> <PUBCHEM_IUPAC_NAME>
(2S)-2-amino-5-[[(1R)-2-[[(2R)-2-[[(4S)-4-amino-4-carboxybutanoyl]amino]-2-carboxyethyl]disulfanyl]-1-carboxyethyl]amino]-5-oxopentanoic acid

> <PUBCHEM_IUPAC_SYSTEMATIC_NAME>
(2S)-2-azanyl-5-[[(2R)-3-[[(2R)-2-[[(4S)-4-azanyl-5-oxidanyl-5-oxidanylidene-pentanoyl]amino]-3-oxidanyl-3-oxidanylidene-propyl]disulfanyl]-1-oxidanyl-1-oxidanylidene-propan-2-yl]amino]-5-oxidanylidene-pentanoic acid

> <PUBCHEM_IUPAC_TRADITIONAL_NAME>
(2S)-2-amino-5-[[(1R)-2-[[(2R)-2-[[(4S)-4-amino-4-carboxy-butanoyl]amino]-2-carboxy-ethyl]disulfanyl]-1-carboxy-ethyl]amino]-5-keto-valeric acid

> <PUBCHEM_IUPAC_INCHI>
InChI=1S/C16H26N4O10S2/c17-7(13(23)24)1-3-11(21)19-9(15(27)28)5-31-32-6-10(16(29)30)20-12(22)4-2-8(18)14(25)26/h7-10H,1-6,17-18H2,(H,19,21)(H,20,22)(H,23,24)(H,25,26)(H,27,28)(H,29,30)/t7-,8-,9-,10-/m0/s1

> <PUBCHEM_IUPAC_INCHIKEY>
GOZJYXJJQVGDOJ-XKNYDFJKSA-N

> <PUBCHEM_XLOGP3_AA>
-7.8

> <PUBCHEM_EXACT_MASS>
498.109035

> <PUBCHEM_MOLECULAR_FORMULA>
C16H26N4O10S2

> <PUBCHEM_MOLECULAR_WEIGHT>
498.52844

> <PUBCHEM_OPENEYE_CAN_SMILES>
C(CC(=O)NC(CSSCC(C(=O)O)NC(=O)CCC(C(=O)O)N)C(=O)O)C(C(=O)O)N

> <PUBCHEM_OPENEYE_ISO_SMILES>
C(CC(=O)N[C@@H](CSSC[C@@H](C(=O)O)NC(=O)CC[C@@H](C(=O)O)N)C(=O)O)[C@@H](C(=O)O)N

> <PUBCHEM_CACTVS_TPSA>
310

> <PUBCHEM_MONOISOTOPIC_WEIGHT>
498.109035

> <PUBCHEM_TOTAL_CHARGE>
0

> <PUBCHEM_HEAVY_ATOM_COUNT>
32

> <PUBCHEM_ATOM_DEF_STEREO_COUNT>
4

> <PUBCHEM_ATOM_UDEF_STEREO_COUNT>
0

> <PUBCHEM_BOND_DEF_STEREO_COUNT>
0

> <PUBCHEM_BOND_UDEF_STEREO_COUNT>
0

> <PUBCHEM_ISOTOPIC_ATOM_COUNT>
0

> <PUBCHEM_COMPONENT_COUNT>
1

> <PUBCHEM_CACTVS_TAUTO_COUNT>
3

> <PUBCHEM_COORDINATE_TYPE>
1
5
255

> <PUBCHEM_BONDANNOTATIONS>
22  13  5
23  14  5
21  15  5
24  16  6

$$$$

