   Chemical and Physical Properties References

   [1]USDA ARS - USDA chemical properties
   from [2]ChemIDplus

   Color/Form

     * Colorless crystals
     * White crystals
     * Off-white powder
     * White to practically white powder
     * White to tan crystals

   from [3]HSDB

   Odor
        Odorless
   from [4]HSDB

   Taste
        Tasteless
   from [5]HSDB

   Melting Point
        304-305 deg C
   from [6]HSDB

   Dissociation Constants
        pKa = 4.64
   from [7]HSDB

   Octanol/Water Partition Coefficient
        log Kow = 2.47 [Nielsen LS et al; Acta Pharm Nord 4: 43-9 (1992)]
   [8]PubMed Abstract
   from [9]HSDB

   Solubilities

     * Max solubility in water at pH 2.2: 3.84%; slightly sol in alcohols,
       esters, chlorinated hydrocarbons
     * In n-heptane <0.1, xylene 0.13, methanol 8.28, 1,2-dichloroethane
       0.81, acetone 2.43, ethyl acetate 1.49, n-octanol 3.91, all in g/L
       at 25 deg C
     * Slightly soluble in ethanol
     * In water, 50 mg/L at 25 deg C

   from [10]HSDB

   Spectral Properties

     * UV Max absorption (methanol): 298 nm (extinction coefficient:
       23,330); fluorescence max in acid soln: 370 nm (310 nm excitation)
     * Intense mass spectral peaks: 201 m/z (100%), 174 m/z (69%), 202 m/z
       (15%), 175 m/z (9%)

   from [11]HSDB

   Vapor Pressure
        4X10-9 mm Hg at 25 deg C
   from [12]HSDB

   Other Chemical/Physical Properties

     * Nonhygroscopic
     * Sublimes when heated strongly to 310 deg C
     * Amber liquid; density: 1.103 at 25 deg C /Thiabendazole
       hypophosphite/
     * Henry's Law constant = 2.12X10-11 atm-cu m/mol at 25 deg C (est)
     * Hydroxyl radical reaction rate constant = 6.5X10-11 cu
       cm/molec-sesc at 25 deg C (est)

   from [13]HSDB

   Computed Properties
   Molecular Weight                  201.24768 [g/mol]
   Molecular Formula                 C[10]H[7]N[3]S
   XLogP3                            2.5
   H-Bond Donor                      1
   H-Bond Acceptor                   3
   Rotatable Bond Count              1
   Exact Mass                        201.036068
   MonoIsotopic Mass                 201.036068
   Topological Polar Surface Area    69.8
   Heavy Atom Count                  14
   Formal Charge                     0
   Complexity                        212
   Isotope Atom Count                0
   Defined Atom Stereocenter Count   0
   Undefined Atom Stereocenter Count 0
   Defined Bond Stereocenter Count   0
   Undefined Bond Stereocenter Count 0
   Covalently-Bonded Unit Count      1
   Feature 3D Acceptor Count         1
   Feature 3D Donor Count            1
   Feature 3D Cation Count           1
   Feature 3D Ring Count             3
   Effective Rotor Count             1
   Conformer Sampling RMSD           0.4
   CID Conformer Count               [14]2

References

   1. http://www.ars.usda.gov/SP2UserFiles/ad_hoc/12755100DatabaseFiles/PesticidePropertiesDatabase/IndividualPesticideFiles/THIABENDAZOLE.TXT
   2. http://chem.sis.nlm.nih.gov/chemidplus/
   3. http://toxnet.nlm.nih.gov/cgi-bin/sis/search/r?dbs+hsdb:@term+@rn+@rel+148-79-8
   4. http://toxnet.nlm.nih.gov/cgi-bin/sis/search/r?dbs+hsdb:@term+@rn+@rel+148-79-8
   5. http://toxnet.nlm.nih.gov/cgi-bin/sis/search/r?dbs+hsdb:@term+@rn+@rel+148-79-8
   6. http://toxnet.nlm.nih.gov/cgi-bin/sis/search/r?dbs+hsdb:@term+@rn+@rel+148-79-8
   7. http://toxnet.nlm.nih.gov/cgi-bin/sis/search/r?dbs+hsdb:@term+@rn+@rel+148-79-8
   8. http://www.ncbi.nlm.nih.gov/entrez/query.fcgi?cmd=Retrieve&db=pubmed&dopt=Abstract&list_uids=1515051
   9. http://toxnet.nlm.nih.gov/cgi-bin/sis/search/r?dbs+hsdb:@term+@rn+@rel+148-79-8
  10. http://toxnet.nlm.nih.gov/cgi-bin/sis/search/r?dbs+hsdb:@term+@rn+@rel+148-79-8
  11. http://toxnet.nlm.nih.gov/cgi-bin/sis/search/r?dbs+hsdb:@term+@rn+@rel+148-79-8
  12. http://toxnet.nlm.nih.gov/cgi-bin/sis/search/r?dbs+hsdb:@term+@rn+@rel+148-79-8
  13. http://toxnet.nlm.nih.gov/cgi-bin/sis/search/r?dbs+hsdb:@term+@rn+@rel+148-79-8
  14. http://pubchem.ncbi.nlm.nih.gov/vw3d/vw3d.cgi?cid=5430
