582958
  -OEChem-06241222442D

 36 37  0     1  0  0  0  0  0999 V2000
    7.6751    0.3216    0.0000 S   0  0  0  0  0  0  0  0  0  0  0  0
    7.0028    2.3907    0.0000 O   0  0  0  0  0  0  0  0  0  0  0  0
    4.8272    2.3907    0.0000 O   0  0  0  0  0  0  0  0  0  0  0  0
    7.9841    1.2727    0.0000 O   0  0  0  0  0  0  0  0  0  0  0  0
    7.3661   -0.6294    0.0000 O   0  0  0  0  0  0  0  0  0  0  0  0
    5.1060    0.6307    0.0000 N   0  0  0  0  0  0  0  0  0  0  0  0
    2.4608    0.6818    0.0000 N   0  0  0  0  0  0  0  0  0  0  0  0
    5.9150    0.0429    0.0000 C   0  0  3  0  0  0  0  0  0  0  0  0
    6.7240    0.6307    0.0000 C   0  0  0  0  0  0  0  0  0  0  0  0
    5.9150   -0.9571    0.0000 C   0  0  0  0  0  0  0  0  0  0  0  0
    4.1550    0.3216    0.0000 C   0  0  0  0  0  0  0  0  0  0  0  0
    6.4150    1.5817    0.0000 C   0  0  0  0  0  0  0  0  0  0  0  0
    5.4150    1.5817    0.0000 C   0  0  0  0  0  0  0  0  0  0  0  0
    3.4118    0.9908    0.0000 C   0  0  0  0  0  0  0  0  0  0  0  0
    5.0490   -1.4571    0.0000 C   0  0  0  0  0  0  0  0  0  0  0  0
    6.7810   -1.4571    0.0000 C   0  0  0  0  0  0  0  0  0  0  0  0
    8.6262    0.0126    0.0000 C   0  0  0  0  0  0  0  0  0  0  0  0
    5.0490   -2.4571    0.0000 C   0  0  0  0  0  0  0  0  0  0  0  0
    6.7810   -2.4571    0.0000 C   0  0  0  0  0  0  0  0  0  0  0  0
    5.9150   -2.9571    0.0000 C   0  0  0  0  0  0  0  0  0  0  0  0
    6.4675   -0.2386    0.0000 H   0  0  0  0  0  0  0  0  0  0  0  0
    3.6664   -0.0601    0.0000 H   0  0  0  0  0  0  0  0  0  0  0  0
    4.4460   -0.2258    0.0000 H   0  0  0  0  0  0  0  0  0  0  0  0
    3.9004    1.3725    0.0000 H   0  0  0  0  0  0  0  0  0  0  0  0
    3.1207    1.5382    0.0000 H   0  0  0  0  0  0  0  0  0  0  0  0
    4.5121   -1.1471    0.0000 H   0  0  0  0  0  0  0  0  0  0  0  0
    7.3180   -1.1471    0.0000 H   0  0  0  0  0  0  0  0  0  0  0  0
    8.4346   -0.5770    0.0000 H   0  0  0  0  0  0  0  0  0  0  0  0
    9.2158   -0.1790    0.0000 H   0  0  0  0  0  0  0  0  0  0  0  0
    8.8178    0.6023    0.0000 H   0  0  0  0  0  0  0  0  0  0  0  0
    6.7506    2.9571    0.0000 H   0  0  0  0  0  0  0  0  0  0  0  0
    4.5121   -2.7671    0.0000 H   0  0  0  0  0  0  0  0  0  0  0  0
    7.3180   -2.7671    0.0000 H   0  0  0  0  0  0  0  0  0  0  0  0
    2.0000    1.0966    0.0000 H   0  0  0  0  0  0  0  0  0  0  0  0
    2.3318    0.0753    0.0000 H   0  0  0  0  0  0  0  0  0  0  0  0
    5.9150   -3.5771    0.0000 H   0  0  0  0  0  0  0  0  0  0  0  0
  1  4  2  0  0  0  0
  1  5  2  0  0  0  0
  1  9  1  0  0  0  0
  1 17  1  0  0  0  0
  2 12  1  0  0  0  0
  2 31  1  0  0  0  0
  3 13  2  0  0  0  0
  6  8  1  0  0  0  0
  6 11  1  0  0  0  0
  6 13  1  0  0  0  0
  7 14  1  0  0  0  0
  7 34  1  0  0  0  0
  7 35  1  0  0  0  0
  8  9  1  0  0  0  0
  8 10  1  0  0  0  0
  8 21  1  0  0  0  0
  9 12  2  0  0  0  0
 10 15  2  0  0  0  0
 10 16  1  0  0  0  0
 11 14  1  0  0  0  0
 11 22  1  0  0  0  0
 11 23  1  0  0  0  0
 12 13  1  0  0  0  0
 14 24  1  0  0  0  0
 14 25  1  0  0  0  0
 15 18  1  0  0  0  0
 15 26  1  0  0  0  0
 16 19  2  0  0  0  0
 16 27  1  0  0  0  0
 17 28  1  0  0  0  0
 17 29  1  0  0  0  0
 17 30  1  0  0  0  0
 18 20  2  0  0  0  0
 18 32  1  0  0  0  0
 19 20  1  0  0  0  0
 19 33  1  0  0  0  0
 20 36  1  0  0  0  0
M  END
> <PUBCHEM_COMPOUND_CID>
582958

> <PUBCHEM_COMPOUND_CANONICALIZED>
1

> <PUBCHEM_CACTVS_COMPLEXITY>
515

> <PUBCHEM_CACTVS_HBOND_ACCEPTOR>
5

> <PUBCHEM_CACTVS_HBOND_DONOR>
2

> <PUBCHEM_CACTVS_ROTATABLE_BOND>
4

> <PUBCHEM_CACTVS_SUBSKEYS>
AAADceBzOABAAAAAAAAAAAAAAAAAAQAAAAAwAAAAAAAAAAABAAAAHgQQCAAADCzB2ASyAINAAgqIAiFSEHLCAAAgIBAIiIBIBMgKYCKgkRGUIAhglgCYiQcQgIAOAAAAAAAAAAAAAAAAAAAAAAAAAAAAAA==

> <PUBCHEM_IUPAC_OPENEYE_NAME>
1-(2-aminoethyl)-4-hydroxy-3-methylsulfonyl-2-phenyl-2H-pyrrol-5-one

> <PUBCHEM_IUPAC_CAS_NAME>
1-(2-aminoethyl)-4-hydroxy-3-methylsulfonyl-2-phenyl-2H-pyrrol-5-one

> <PUBCHEM_IUPAC_NAME>
1-(2-aminoethyl)-4-hydroxy-3-methylsulfonyl-2-phenyl-2H-pyrrol-5-one

> <PUBCHEM_IUPAC_SYSTEMATIC_NAME>
1-(2-azanylethyl)-3-methylsulfonyl-4-oxidanyl-2-phenyl-2H-pyrrol-5-one

> <PUBCHEM_IUPAC_TRADITIONAL_NAME>
1-(2-aminoethyl)-3-hydroxy-4-mesyl-5-phenyl-3-pyrrolin-2-one

> <PUBCHEM_IUPAC_INCHI>
InChI=1S/C13H16N2O4S/c1-20(18,19)12-10(9-5-3-2-4-6-9)15(8-7-14)13(17)11(12)16/h2-6,10,16H,7-8,14H2,1H3

> <PUBCHEM_IUPAC_INCHIKEY>
PVLFOQYGJCBBPV-UHFFFAOYSA-N

> <PUBCHEM_XLOGP3_AA>
-0.1

> <PUBCHEM_EXACT_MASS>
296.083078

> <PUBCHEM_MOLECULAR_FORMULA>
C13H16N2O4S

> <PUBCHEM_MOLECULAR_WEIGHT>
296.34214

> <PUBCHEM_OPENEYE_CAN_SMILES>
CS(=O)(=O)C1=C(C(=O)N(C1C2=CC=CC=C2)CCN)O

> <PUBCHEM_OPENEYE_ISO_SMILES>
CS(=O)(=O)C1=C(C(=O)N(C1C2=CC=CC=C2)CCN)O

> <PUBCHEM_CACTVS_TPSA>
109

> <PUBCHEM_MONOISOTOPIC_WEIGHT>
296.083078

> <PUBCHEM_TOTAL_CHARGE>
0

> <PUBCHEM_HEAVY_ATOM_COUNT>
20

> <PUBCHEM_ATOM_DEF_STEREO_COUNT>
0

> <PUBCHEM_ATOM_UDEF_STEREO_COUNT>
1

> <PUBCHEM_BOND_DEF_STEREO_COUNT>
0

> <PUBCHEM_BOND_UDEF_STEREO_COUNT>
0

> <PUBCHEM_ISOTOPIC_ATOM_COUNT>
0

> <PUBCHEM_COMPONENT_COUNT>
1

> <PUBCHEM_CACTVS_TAUTO_COUNT>
2

> <PUBCHEM_COORDINATE_TYPE>
1
5
255

> <PUBCHEM_BONDANNOTATIONS>
10  15  8
10  16  8
15  18  8
16  19  8
18  20  8
19  20  8
8  10  3

$$$$

