5281833
  -OEChem-07051213002D

 75 81  0     1  0  0  0  0  0999 V2000
   12.9532   -1.9627    0.0000 O   0  0  0  0  0  0  0  0  0  0  0  0
   10.8213   -0.3965    0.0000 O   0  0  0  0  0  0  0  0  0  0  0  0
   11.2732   -5.2188    0.0000 O   0  0  0  0  0  0  0  0  0  0  0  0
    7.7764   -1.1496    0.0000 O   0  0  0  0  0  0  0  0  0  0  0  0
    9.5248   -5.1842    0.0000 O   0  0  0  0  0  0  0  0  0  0  0  0
    7.7922    0.8986    0.0000 O   0  0  0  0  0  0  0  0  0  0  0  0
    3.4167    0.4629    0.0000 O   0  0  0  0  0  0  0  0  0  0  0  0
    2.5357    1.9735    0.0000 O   0  0  0  0  0  0  0  0  0  0  0  0
    4.3410    5.0184    0.0000 O   0  0  0  0  0  0  0  0  0  0  0  0
    9.5248   -2.1842    0.0000 N   0  0  0  0  0  0  0  0  0  0  0  0
    6.0376    1.9226    0.0000 N   0  0  0  0  0  0  0  0  0  0  0  0
   12.5239   -1.0204    0.0000 C   0  0  1  0  0  0  0  0  0  0  0  0
   11.4949   -1.1356    0.0000 C   0  0  2  0  0  0  0  0  0  0  0  0
   11.2848   -2.1496    0.0000 C   0  0  0  0  0  0  0  0  0  0  0  0
   13.0172   -0.1505    0.0000 C   0  0  0  0  0  0  0  0  0  0  0  0
   10.3909   -2.6842    0.0000 C   0  0  0  0  0  0  0  0  0  0  0  0
   12.1909   -2.6634    0.0000 C   0  0  0  0  0  0  0  0  0  0  0  0
   10.3909   -3.6842    0.0000 C   0  0  0  0  0  0  0  0  0  0  0  0
   14.0172   -0.1428    0.0000 C   0  0  0  0  0  0  0  0  0  0  0  0
   12.5106    0.7116    0.0000 C   0  0  0  0  0  0  0  0  0  0  0  0
   12.1909   -3.7050    0.0000 C   0  0  0  0  0  0  0  0  0  0  0  0
   11.2848   -4.2189    0.0000 C   0  0  0  0  0  0  0  0  0  0  0  0
    8.6588   -2.6842    0.0000 C   0  0  0  0  0  0  0  0  0  0  0  0
    9.5248   -4.1842    0.0000 C   0  0  0  0  0  0  0  0  0  0  0  0
    8.6588   -3.6842    0.0000 C   0  0  0  0  0  0  0  0  0  0  0  0
    9.5248   -1.1842    0.0000 C   0  0  0  0  0  0  0  0  0  0  0  0
    7.7649   -2.1496    0.0000 C   0  0  0  0  0  0  0  0  0  0  0  0
    7.7649   -4.2189    0.0000 C   0  0  0  0  0  0  0  0  0  0  0  0
    6.8588   -2.6634    0.0000 C   0  0  0  0  0  0  0  0  0  0  0  0
    6.8588   -3.7050    0.0000 C   0  0  0  0  0  0  0  0  0  0  0  0
    6.9162   -0.6397    0.0000 C   0  0  0  0  0  0  0  0  0  0  0  0
    6.0222    0.9228    0.0000 C   0  0  0  0  0  0  0  0  0  0  0  0
    5.1486    0.4362    0.0000 C   0  0  0  0  0  0  0  0  0  0  0  0
    6.9243    0.4019    0.0000 C   0  0  0  0  0  0  0  0  0  0  0  0
    5.1794    2.4359    0.0000 C   0  0  0  0  0  0  0  0  0  0  0  0
    4.3058    1.9493    0.0000 C   0  0  0  0  0  0  0  0  0  0  0  0
    6.0062   -1.1465    0.0000 C   0  0  0  0  0  0  0  0  0  0  0  0
    4.2903    0.9495    0.0000 C   0  0  0  0  0  0  0  0  0  0  0  0
    5.1164   -0.6050    0.0000 C   0  0  0  0  0  0  0  0  0  0  0  0
    6.9112    2.4092    0.0000 C   0  0  0  0  0  0  0  0  0  0  0  0
    5.2115    3.4771    0.0000 C   0  0  0  0  0  0  0  0  0  0  0  0
    3.4037    2.4702    0.0000 C   0  0  0  0  0  0  0  0  0  0  0  0
    4.3217    4.0186    0.0000 C   0  0  0  0  0  0  0  0  0  0  0  0
    3.4117    3.5118    0.0000 C   0  0  0  0  0  0  0  0  0  0  0  0
    3.4848    5.5350    0.0000 C   0  0  0  0  0  0  0  0  0  0  0  0
   13.1433   -1.0478    0.0000 H   0  0  0  0  0  0  0  0  0  0  0  0
   11.7134   -0.5554    0.0000 H   0  0  0  0  0  0  0  0  0  0  0  0
   13.3231    0.3888    0.0000 H   0  0  0  0  0  0  0  0  0  0  0  0
   14.0220   -0.7628    0.0000 H   0  0  0  0  0  0  0  0  0  0  0  0
   13.0451    1.0258    0.0000 H   0  0  0  0  0  0  0  0  0  0  0  0
   12.1964    1.2462    0.0000 H   0  0  0  0  0  0  0  0  0  0  0  0
   11.9760    0.3975    0.0000 H   0  0  0  0  0  0  0  0  0  0  0  0
   14.6372   -0.1380    0.0000 H   0  0  0  0  0  0  0  0  0  0  0  0
   14.0124    0.4772    0.0000 H   0  0  0  0  0  0  0  0  0  0  0  0
   12.7266   -4.0171    0.0000 H   0  0  0  0  0  0  0  0  0  0  0  0
   11.0094    0.1943    0.0000 H   0  0  0  0  0  0  0  0  0  0  0  0
   10.1448   -1.1842    0.0000 H   0  0  0  0  0  0  0  0  0  0  0  0
    9.5248   -0.5642    0.0000 H   0  0  0  0  0  0  0  0  0  0  0  0
    8.9048   -1.1842    0.0000 H   0  0  0  0  0  0  0  0  0  0  0  0
    7.7720   -4.8388    0.0000 H   0  0  0  0  0  0  0  0  0  0  0  0
    6.3231   -2.3514    0.0000 H   0  0  0  0  0  0  0  0  0  0  0  0
    6.3231   -4.0171    0.0000 H   0  0  0  0  0  0  0  0  0  0  0  0
   11.8065   -5.5350    0.0000 H   0  0  0  0  0  0  0  0  0  0  0  0
    5.9943   -1.7664    0.0000 H   0  0  0  0  0  0  0  0  0  0  0  0
    4.5713   -0.9004    0.0000 H   0  0  0  0  0  0  0  0  0  0  0  0
    7.2129    1.8676    0.0000 H   0  0  0  0  0  0  0  0  0  0  0  0
    7.4529    2.7109    0.0000 H   0  0  0  0  0  0  0  0  0  0  0  0
    6.6096    2.9509    0.0000 H   0  0  0  0  0  0  0  0  0  0  0  0
    5.7566    3.7725    0.0000 H   0  0  0  0  0  0  0  0  0  0  0  0
    2.8784    3.8280    0.0000 H   0  0  0  0  0  0  0  0  0  0  0  0
    7.7946    1.5186    0.0000 H   0  0  0  0  0  0  0  0  0  0  0  0
    2.0000    2.2856    0.0000 H   0  0  0  0  0  0  0  0  0  0  0  0
    3.8050    6.0659    0.0000 H   0  0  0  0  0  0  0  0  0  0  0  0
    2.9539    5.8553    0.0000 H   0  0  0  0  0  0  0  0  0  0  0  0
    3.1645    5.0042    0.0000 H   0  0  0  0  0  0  0  0  0  0  0  0
  1 12  1  0  0  0  0
  1 17  1  0  0  0  0
 13  2  1  6  0  0  0
  2 56  1  0  0  0  0
  3 22  1  0  0  0  0
  3 63  1  0  0  0  0
  4 27  1  0  0  0  0
  4 31  1  0  0  0  0
  5 24  2  0  0  0  0
  6 34  1  0  0  0  0
  6 71  1  0  0  0  0
  7 38  2  0  0  0  0
  8 42  1  0  0  0  0
  8 72  1  0  0  0  0
  9 43  1  0  0  0  0
  9 45  1  0  0  0  0
 10 16  1  0  0  0  0
 10 23  1  0  0  0  0
 10 26  1  0  0  0  0
 11 32  1  0  0  0  0
 11 35  1  0  0  0  0
 11 40  1  0  0  0  0
 12 13  1  0  0  0  0
 12 15  1  1  0  0  0
 12 46  1  0  0  0  0
 13 14  1  0  0  0  0
 13 47  1  0  0  0  0
 14 16  1  0  0  0  0
 14 17  2  0  0  0  0
 15 19  1  0  0  0  0
 15 20  1  0  0  0  0
 15 48  1  0  0  0  0
 16 18  2  0  0  0  0
 17 21  1  0  0  0  0
 18 22  1  0  0  0  0
 18 24  1  0  0  0  0
 19 49  1  0  0  0  0
 19 53  1  0  0  0  0
 19 54  1  0  0  0  0
 20 50  1  0  0  0  0
 20 51  1  0  0  0  0
 20 52  1  0  0  0  0
 21 22  2  0  0  0  0
 21 55  1  0  0  0  0
 23 25  2  0  0  0  0
 23 27  1  0  0  0  0
 24 25  1  0  0  0  0
 25 28  1  0  0  0  0
 26 57  1  0  0  0  0
 26 58  1  0  0  0  0
 26 59  1  0  0  0  0
 27 29  2  0  0  0  0
 28 30  2  0  0  0  0
 28 60  1  0  0  0  0
 29 30  1  0  0  0  0
 29 61  1  0  0  0  0
 30 62  1  0  0  0  0
 31 34  2  0  0  0  0
 31 37  1  0  0  0  0
 32 33  2  0  0  0  0
 32 34  1  0  0  0  0
 33 38  1  0  0  0  0
 33 39  1  0  0  0  0
 35 36  2  0  0  0  0
 35 41  1  0  0  0  0
 36 38  1  0  0  0  0
 36 42  1  0  0  0  0
 37 39  2  0  0  0  0
 37 64  1  0  0  0  0
 39 65  1  0  0  0  0
 40 66  1  0  0  0  0
 40 67  1  0  0  0  0
 40 68  1  0  0  0  0
 41 43  2  0  0  0  0
 41 69  1  0  0  0  0
 42 44  2  0  0  0  0
 43 44  1  0  0  0  0
 44 70  1  0  0  0  0
 45 73  1  0  0  0  0
 45 74  1  0  0  0  0
 45 75  1  0  0  0  0
M  END
> <PUBCHEM_COMPOUND_CID>
5281833

> <PUBCHEM_COMPOUND_CANONICALIZED>
1

> <PUBCHEM_CACTVS_COMPLEXITY>
1140

> <PUBCHEM_CACTVS_HBOND_ACCEPTOR>
11

> <PUBCHEM_CACTVS_HBOND_DONOR>
4

> <PUBCHEM_CACTVS_ROTATABLE_BOND>
4

> <PUBCHEM_CACTVS_SUBSKEYS>
AAADceB/PAAAAAAAAAAAAAAAAAAAASAAAAA8eMGCAAAAAEixVAAAHgAACAAADRyhmAYyxoMABgCIAqRSQACCCAAlIgAIiAEP7MgPN37WtZuHeevn4B3b+ce6/P/OIAADCgAKUABAAAYUABSgAAAAAAAAAA==

> <PUBCHEM_IUPAC_OPENEYE_NAME>
(1S,2R)-10-(4,8-dihydroxy-6-methoxy-10-methyl-9-oxo-acridin-3-yl)oxy-1,5-dihydroxy-2-isopropyl-11-methyl-1,2-dihydrofuro[2,3-c]acridin-6-one

> <PUBCHEM_IUPAC_CAS_NAME>
(1S,2R)-10-[(4,8-dihydroxy-6-methoxy-10-methyl-9-oxo-3-acridinyl)oxy]-1,5-dihydroxy-11-methyl-2-propan-2-yl-1,2-dihydrofuro[2,3-c]acridin-6-one

> <PUBCHEM_IUPAC_NAME>
(1S,2R)-10-(4,8-dihydroxy-6-methoxy-10-methyl-9-oxoacridin-3-yl)oxy-1,5-dihydroxy-11-methyl-2-propan-2-yl-1,2-dihydrofuro[2,3-c]acridin-6-one

> <PUBCHEM_IUPAC_SYSTEMATIC_NAME>
(1S,2R)-10-[6-methoxy-10-methyl-4,8-bis(oxidanyl)-9-oxidanylidene-acridin-3-yl]oxy-11-methyl-1,5-bis(oxidanyl)-2-propan-2-yl-1,2-dihydrofuro[2,3-c]acridin-6-one

> <PUBCHEM_IUPAC_TRADITIONAL_NAME>
(1S,2R)-10-(4,8-dihydroxy-9-keto-6-methoxy-10-methyl-acridin-3-yl)oxy-1,5-dihydroxy-2-isopropyl-11-methyl-1,2-dihydrofur[2,3-c]acridin-6-one

> <PUBCHEM_IUPAC_INCHI>
InChI=1S/C34H30N2O9/c1-14(2)34-33(42)26-23(45-34)13-20(38)25-29(26)36(4)27-16(31(25)40)7-6-8-21(27)44-22-10-9-17-28(32(22)41)35(3)18-11-15(43-5)12-19(37)24(18)30(17)39/h6-14,33-34,37-38,41-42H,1-5H3/t33-,34+/m0/s1

> <PUBCHEM_IUPAC_INCHIKEY>
PLAXYWZLYBHIDB-SZAHLOSFSA-N

> <PUBCHEM_XLOGP3_AA>
6.1

> <PUBCHEM_EXACT_MASS>
610.195131

> <PUBCHEM_MOLECULAR_FORMULA>
C34H30N2O9

> <PUBCHEM_MOLECULAR_WEIGHT>
610.61

> <PUBCHEM_OPENEYE_CAN_SMILES>
CC(C)C1C(C2=C3C(=C(C=C2O1)O)C(=O)C4=C(N3C)C(=CC=C4)OC5=C(C6=C(C=C5)C(=O)C7=C(C=C(C=C7N6C)OC)O)O)O

> <PUBCHEM_OPENEYE_ISO_SMILES>
CC(C)[C@@H]1[C@H](C2=C3C(=C(C=C2O1)O)C(=O)C4=C(N3C)C(=CC=C4)OC5=C(C6=C(C=C5)C(=O)C7=C(C=C(C=C7N6C)OC)O)O)O

> <PUBCHEM_CACTVS_TPSA>
149

> <PUBCHEM_MONOISOTOPIC_WEIGHT>
610.195131

> <PUBCHEM_TOTAL_CHARGE>
0

> <PUBCHEM_HEAVY_ATOM_COUNT>
45

> <PUBCHEM_ATOM_DEF_STEREO_COUNT>
2

> <PUBCHEM_ATOM_UDEF_STEREO_COUNT>
0

> <PUBCHEM_BOND_DEF_STEREO_COUNT>
0

> <PUBCHEM_BOND_UDEF_STEREO_COUNT>
0

> <PUBCHEM_ISOTOPIC_ATOM_COUNT>
0

> <PUBCHEM_COMPONENT_COUNT>
1

> <PUBCHEM_CACTVS_TAUTO_COUNT>
50

> <PUBCHEM_COORDINATE_TYPE>
1
5
255

> <PUBCHEM_BONDANNOTATIONS>
10  16  8
10  23  8
11  32  8
11  35  8
12  15  5
14  16  8
14  17  8
16  18  8
17  21  8
18  22  8
18  24  8
13  2  6
21  22  8
23  25  8
23  27  8
24  25  8
25  28  8
27  29  8
28  30  8
29  30  8
31  34  8
31  37  8
32  33  8
32  34  8
33  38  8
33  39  8
35  36  8
35  41  8
36  38  8
36  42  8
37  39  8
41  43  8
42  44  8
43  44  8

$$$$

