11954024
  -OEChem-07051213042D

 43 43  0     1  0  0  0  0  0999 V2000
    4.2306    5.7014    0.0000 S   0  0  0  0  0  0  0  0  0  0  0  0
    1.8265    7.0705    0.0000 O   0  0  0  0  0  0  0  0  0  0  0  0
    1.5657    3.6797    0.0000 O   0  0  0  0  0  0  0  0  0  0  0  0
    6.3184    5.7584    0.0000 O   0  0  0  0  0  0  0  0  0  0  0  0
    5.5178    2.9244    0.0000 O   0  0  0  0  0  0  0  0  0  0  0  0
    3.8705    2.3892    0.0000 O   0  0  0  0  0  0  0  0  0  0  0  0
    6.8050    1.7654    0.0000 O   0  0  0  0  0  0  0  0  0  0  0  0
    7.8184    4.8924    0.0000 O   0  0  0  0  0  0  0  0  0  0  0  0
    6.4449    0.0712    0.0000 O   0  0  0  0  0  0  0  0  0  0  0  0
    4.3493    9.5118    0.0000 O   0  0  0  0  0  0  0  0  0  0  0  0
    3.2796    4.3924    0.0000 N   0  0  0  0  0  0  0  0  0  0  0  0
    7.8184    6.6244    0.0000 N   0  0  0  0  0  0  0  0  0  0  0  0
    2.2713    5.3965    0.0000 C   0  0  1  0  0  0  0  0  0  0  0  0
    3.2796    5.3924    0.0000 C   0  0  1  0  0  0  0  0  0  0  0  0
    2.2713    4.3882    0.0000 C   0  0  0  0  0  0  0  0  0  0  0  0
    1.5657    6.1051    0.0000 C   0  0  1  0  0  0  0  0  0  0  0  0
    4.2306    4.0834    0.0000 C   0  0  0  0  0  0  0  0  0  0  0  0
    4.8184    4.8924    0.0000 C   0  0  0  0  0  0  0  0  0  0  0  0
    0.5992    5.8482    0.0000 C   0  0  0  0  0  0  0  0  0  0  0  0
    5.8184    4.8924    0.0000 C   0  0  0  0  0  0  0  0  0  0  0  0
    4.5397    3.1323    0.0000 C   0  0  0  0  0  0  0  0  0  0  0  0
    5.8268    1.9733    0.0000 C   0  0  0  0  0  0  0  0  0  0  0  0
    7.3184    5.7584    0.0000 C   0  0  0  0  0  0  0  0  0  0  0  0
    7.1140    0.8144    0.0000 C   0  0  0  0  0  0  0  0  0  0  0  0
    8.0921    0.6065    0.0000 C   0  0  0  0  0  0  0  0  0  0  0  0
    1.4857    5.0720    0.0000 H   0  0  0  0  0  0  0  0  0  0  0  0
    3.1484    6.2322    0.0000 H   0  0  0  0  0  0  0  0  0  0  0  0
    2.1649    6.2643    0.0000 H   0  0  0  0  0  0  0  0  0  0  0  0
    0.4400    6.4474    0.0000 H   0  0  0  0  0  0  0  0  0  0  0  0
    0.0000    5.6890    0.0000 H   0  0  0  0  0  0  0  0  0  0  0  0
    0.7584    5.2490    0.0000 H   0  0  0  0  0  0  0  0  0  0  0  0
    5.7108    4.2818    0.0000 H   0  0  0  0  0  0  0  0  0  0  0  0
    6.4010    4.6803    0.0000 H   0  0  0  0  0  0  0  0  0  0  0  0
    1.3890    7.5098    0.0000 H   0  0  0  0  0  0  0  0  0  0  0  0
    5.2129    1.8870    0.0000 H   0  0  0  0  0  0  0  0  0  0  0  0
    5.8052    1.3537    0.0000 H   0  0  0  0  0  0  0  0  0  0  0  0
    8.4384    6.6244    0.0000 H   0  0  0  0  0  0  0  0  0  0  0  0
    7.5084    7.1614    0.0000 H   0  0  0  0  0  0  0  0  0  0  0  0
    7.9632    0.0000    0.0000 H   0  0  0  0  0  0  0  0  0  0  0  0
    8.6986    0.4775    0.0000 H   0  0  0  0  0  0  0  0  0  0  0  0
    8.2210    1.2129    0.0000 H   0  0  0  0  0  0  0  0  0  0  0  0
    4.8862    9.8218    0.0000 H   0  0  0  0  0  0  0  0  0  0  0  0
    3.8124    9.8218    0.0000 H   0  0  0  0  0  0  0  0  0  0  0  0
  1 14  1  0  0  0  0
  1 18  1  0  0  0  0
 16  2  1  1  0  0  0
  2 34  1  0  0  0  0
  3 15  2  0  0  0  0
  4 20  1  0  0  0  0
  4 23  1  0  0  0  0
  5 21  1  0  0  0  0
  5 22  1  0  0  0  0
  6 21  2  0  0  0  0
  7 22  1  0  0  0  0
  7 24  1  0  0  0  0
  8 23  2  0  0  0  0
  9 24  2  0  0  0  0
 10 42  1  0  0  0  0
 10 43  1  0  0  0  0
 11 14  1  0  0  0  0
 11 15  1  0  0  0  0
 11 17  1  0  0  0  0
 12 23  1  0  0  0  0
 12 37  1  0  0  0  0
 12 38  1  0  0  0  0
 13 14  1  0  0  0  0
 13 15  1  0  0  0  0
 13 16  1  0  0  0  0
 13 26  1  6  0  0  0
 14 27  1  6  0  0  0
 16 19  1  0  0  0  0
 16 28  1  0  0  0  0
 17 18  2  0  0  0  0
 17 21  1  0  0  0  0
 18 20  1  0  0  0  0
 19 29  1  0  0  0  0
 19 30  1  0  0  0  0
 19 31  1  0  0  0  0
 20 32  1  0  0  0  0
 20 33  1  0  0  0  0
 22 35  1  0  0  0  0
 22 36  1  0  0  0  0
 24 25  1  0  0  0  0
 25 39  1  0  0  0  0
 25 40  1  0  0  0  0
 25 41  1  0  0  0  0
M  END
> <PUBCHEM_COMPOUND_CID>
11954024

> <PUBCHEM_COMPOUND_CANONICALIZED>
1

> <PUBCHEM_CACTVS_COMPLEXITY>
619

> <PUBCHEM_CACTVS_HBOND_ACCEPTOR>
10

> <PUBCHEM_CACTVS_HBOND_DONOR>
3

> <PUBCHEM_CACTVS_ROTATABLE_BOND>
9

> <PUBCHEM_CACTVS_SUBSKEYS>
AAADceBzPABAAAAAAAAAAAAAAABYAQAAAAAAAAAABAAAAAAAAAAAHgQQCAAADRzlwAeCCANABgiIAAXQWAAAAABAABAACAGIAEESFBwgoCAtUAACJgC0IQAAAAAIAAAAAAAAAAAAAAAAAAAAAAAAAAAAAA==

> <PUBCHEM_IUPAC_OPENEYE_NAME>
acetoxymethyl (5R,6R)-3-(carbamoyloxymethyl)-6-[(1R)-1-hydroxyethyl]-7-oxo-4-thia-1-azabicyclo[3.2.0]hept-2-ene-2-carboxylate hydrate

> <PUBCHEM_IUPAC_CAS_NAME>
(5R,6R)-3-(carbamoyloxymethyl)-6-[(1R)-1-hydroxyethyl]-7-oxo-4-thia-1-azabicyclo[3.2.0]hept-2-ene-2-carboxylic acid acetyloxymethyl ester hydrate

> <PUBCHEM_IUPAC_NAME>
acetyloxymethyl (5R,6R)-3-(carbamoyloxymethyl)-6-[(1R)-1-hydroxyethyl]-7-oxo-4-thia-1-azabicyclo[3.2.0]hept-2-ene-2-carboxylate hydrate

> <PUBCHEM_IUPAC_SYSTEMATIC_NAME>
acetyloxymethyl (5R,6R)-3-(aminocarbonyloxymethyl)-6-[(1R)-1-oxidanylethyl]-7-oxidanylidene-4-thia-1-azabicyclo[3.2.0]hept-2-ene-2-carboxylate hydrate

> <PUBCHEM_IUPAC_TRADITIONAL_NAME>
(5R,6R)-3-(carbamoyloxymethyl)-6-[(1R)-1-hydroxyethyl]-7-keto-4-thia-1-azabicyclo[3.2.0]hept-2-ene-2-carboxylic acid acetoxymethyl ester hydrate

> <PUBCHEM_IUPAC_INCHI>
InChI=1S/C13H16N2O8S.H2O/c1-5(16)8-10(18)15-9(12(19)23-4-22-6(2)17)7(24-11(8)15)3-21-13(14)20;/h5,8,11,16H,3-4H2,1-2H3,(H2,14,20);1H2/t5-,8-,11-;/m1./s1

> <PUBCHEM_IUPAC_INCHIKEY>
ZZFMPSZLBDWBLH-XQWQGFCISA-N

> <PUBCHEM_EXACT_MASS>
378.073301

> <PUBCHEM_MOLECULAR_FORMULA>
C13H18N2O9S

> <PUBCHEM_MOLECULAR_WEIGHT>
378.35502

> <PUBCHEM_OPENEYE_CAN_SMILES>
CC(C1C2N(C1=O)C(=C(S2)COC(=O)N)C(=O)OCOC(=O)C)O.O

> <PUBCHEM_OPENEYE_ISO_SMILES>
C[C@H]([C@H]1[C@@H]2N(C1=O)C(=C(S2)COC(=O)N)C(=O)OCOC(=O)C)O.O

> <PUBCHEM_CACTVS_TPSA>
172

> <PUBCHEM_MONOISOTOPIC_WEIGHT>
378.073301

> <PUBCHEM_TOTAL_CHARGE>
0

> <PUBCHEM_HEAVY_ATOM_COUNT>
25

> <PUBCHEM_ATOM_DEF_STEREO_COUNT>
3

> <PUBCHEM_ATOM_UDEF_STEREO_COUNT>
0

> <PUBCHEM_BOND_DEF_STEREO_COUNT>
0

> <PUBCHEM_BOND_UDEF_STEREO_COUNT>
0

> <PUBCHEM_ISOTOPIC_ATOM_COUNT>
0

> <PUBCHEM_COMPONENT_COUNT>
2

> <PUBCHEM_CACTVS_TAUTO_COUNT>
4

> <PUBCHEM_COORDINATE_TYPE>
1
5
255

> <PUBCHEM_BONDANNOTATIONS>
13  26  6
14  27  6
16  2  5

$$$$

