11953935
  -OEChem-07051212572D

 46 48  0     1  0  0  0  0  0999 V2000
    7.3985    0.7364    0.0000 O   0  0  0  0  0  0  0  0  0  0  0  0
    5.5028   -2.0346    0.0000 O   0  0  0  0  0  0  0  0  0  0  0  0
    4.4065    1.5680    0.0000 O   0  0  0  0  0  0  0  0  0  0  0  0
    6.6413   -3.3872    0.0000 O   0  0  0  0  0  0  0  0  0  0  0  0
    7.6773    2.4965    0.0000 O   0  0  0  0  0  0  0  0  0  0  0  0
    2.7979   -2.1790    0.0000 O   0  0  0  0  0  0  0  0  0  0  0  0
    2.8311    0.8483    0.0000 O   0  0  0  0  0  0  0  0  0  0  0  0
    6.5895    0.1486    0.0000 C   0  0  2  0  0  0  0  0  0  0  0  0
    5.7805    0.7364    0.0000 C   0  0  2  0  0  0  0  0  0  0  0  0
    6.8116   -0.7870    0.0000 C   0  0  0  0  0  0  0  0  0  0  0  0
    6.3831   -1.6478    0.0000 C   0  0  2  0  0  0  0  0  0  0  0  0
    4.8221    0.6585    0.0000 C   0  0  1  0  0  0  0  0  0  0  0  0
    6.0895    1.6874    0.0000 C   0  0  0  0  0  0  0  0  0  0  0  0
    6.0408   -2.5875    0.0000 C   0  0  0  0  0  0  0  0  0  0  0  0
    7.2986   -1.2455    0.0000 C   0  0  0  0  0  0  0  0  0  0  0  0
    4.1358   -0.0150    0.0000 C   0  0  0  0  0  0  0  0  0  0  0  0
    4.5789   -1.7681    0.0000 C   0  0  0  0  0  0  0  0  0  0  0  0
    7.0895    1.6874    0.0000 C   0  0  0  0  0  0  0  0  0  0  0  0
    4.0399   -0.9718    0.0000 C   0  0  0  0  0  0  0  0  0  0  0  0
    5.0429   -2.6541    0.0000 C   0  0  0  0  0  0  0  0  0  0  0  0
    5.5017    2.4965    0.0000 C   0  0  0  0  0  0  0  0  0  0  0  0
    3.0704   -1.2168    0.0000 C   0  0  0  0  0  0  0  0  0  0  0  0
    3.4110    1.6630    0.0000 C   0  0  0  0  0  0  0  0  0  0  0  0
    2.9955    2.5725    0.0000 C   0  0  0  0  0  0  0  0  0  0  0  0
    2.0000    2.6674    0.0000 C   0  0  0  0  0  0  0  0  0  0  0  0
    3.5754    3.3872    0.0000 C   0  0  0  0  0  0  0  0  0  0  0  0
    7.2772   -0.3510    0.0000 H   0  0  0  0  0  0  0  0  0  0  0  0
    5.2534    1.4032    0.0000 H   0  0  0  0  0  0  0  0  0  0  0  0
    7.2636   -1.2113    0.0000 H   0  0  0  0  0  0  0  0  0  0  0  0
    7.3481   -0.4762    0.0000 H   0  0  0  0  0  0  0  0  0  0  0  0
    4.2124    0.7714    0.0000 H   0  0  0  0  0  0  0  0  0  0  0  0
    7.5480   -1.8131    0.0000 H   0  0  0  0  0  0  0  0  0  0  0  0
    7.8662   -0.9960    0.0000 H   0  0  0  0  0  0  0  0  0  0  0  0
    7.0492   -0.6779    0.0000 H   0  0  0  0  0  0  0  0  0  0  0  0
    3.5768    0.2532    0.0000 H   0  0  0  0  0  0  0  0  0  0  0  0
    4.7398   -3.1949    0.0000 H   0  0  0  0  0  0  0  0  0  0  0  0
    5.7539    3.0629    0.0000 H   0  0  0  0  0  0  0  0  0  0  0  0
    4.8851    2.4316    0.0000 H   0  0  0  0  0  0  0  0  0  0  0  0
    3.0252   -0.5985    0.0000 H   0  0  0  0  0  0  0  0  0  0  0  0
    2.4536   -1.1540    0.0000 H   0  0  0  0  0  0  0  0  0  0  0  0
    2.1968   -2.3309    0.0000 H   0  0  0  0  0  0  0  0  0  0  0  0
    2.0588    3.2846    0.0000 H   0  0  0  0  0  0  0  0  0  0  0  0
    1.3828    2.7263    0.0000 H   0  0  0  0  0  0  0  0  0  0  0  0
    1.9412    2.0502    0.0000 H   0  0  0  0  0  0  0  0  0  0  0  0
    4.1926    3.3284    0.0000 H   0  0  0  0  0  0  0  0  0  0  0  0
    3.3178    3.9511    0.0000 H   0  0  0  0  0  0  0  0  0  0  0  0
  1  8  1  0  0  0  0
  1 18  1  0  0  0  0
  2 11  1  0  0  0  0
  2 17  1  0  0  0  0
 12  3  1  1  0  0  0
  3 23  1  0  0  0  0
  4 14  2  0  0  0  0
  5 18  2  0  0  0  0
  6 22  1  0  0  0  0
  6 41  1  0  0  0  0
  7 23  2  0  0  0  0
  8  9  1  0  0  0  0
  8 10  1  0  0  0  0
  8 27  1  6  0  0  0
  9 12  1  0  0  0  0
  9 13  1  0  0  0  0
  9 28  1  1  0  0  0
 10 11  1  0  0  0  0
 10 29  1  0  0  0  0
 10 30  1  0  0  0  0
 11 14  1  0  0  0  0
 11 15  1  1  0  0  0
 12 16  1  0  0  0  0
 12 31  1  0  0  0  0
 13 18  1  0  0  0  0
 13 21  2  0  0  0  0
 14 20  1  0  0  0  0
 15 32  1  0  0  0  0
 15 33  1  0  0  0  0
 15 34  1  0  0  0  0
 16 19  2  0  0  0  0
 16 35  1  0  0  0  0
 17 19  1  0  0  0  0
 17 20  2  0  0  0  0
 19 22  1  0  0  0  0
 20 36  1  0  0  0  0
 21 37  1  0  0  0  0
 21 38  1  0  0  0  0
 22 39  1  0  0  0  0
 22 40  1  0  0  0  0
 23 24  1  0  0  0  0
 24 25  1  0  0  0  0
 24 26  2  0  0  0  0
 25 42  1  0  0  0  0
 25 43  1  0  0  0  0
 25 44  1  0  0  0  0
 26 45  1  0  0  0  0
 26 46  1  0  0  0  0
M  END
> <PUBCHEM_COMPOUND_CID>
11953935

> <PUBCHEM_COMPOUND_CANONICALIZED>
1

> <PUBCHEM_CACTVS_COMPLEXITY>
788

> <PUBCHEM_CACTVS_HBOND_ACCEPTOR>
7

> <PUBCHEM_CACTVS_HBOND_DONOR>
1

> <PUBCHEM_CACTVS_ROTATABLE_BOND>
4

> <PUBCHEM_CACTVS_SUBSKEYS>
AAADceB4OAAAAAAAAAAAAAAAAAAAASIAAAAAAAAAAAAAAECAAAAAGgAACAAADVSggAICCAAABgCIAqDSCAIACAAgIAAACAFAAEgIFBIAIQQCUAAFwAAIsYPK6PyOAAAAAAAAAAAAAAAAAAAAAAAAAAAAAA==

> <PUBCHEM_IUPAC_INCHI>
InChI=1S/C19H20O7/c1-9(2)17(22)24-13-5-11(8-20)12-6-15(21)19(4,26-12)7-14-16(13)10(3)18(23)25-14/h5-6,13-14,16,20H,1,3,7-8H2,2,4H3/b11-5-/t13-,14+,16+,19-/m1/s1

> <PUBCHEM_IUPAC_INCHIKEY>
OTGBKMRHZRRKBB-OKMRAYSCSA-N

> <PUBCHEM_XLOGP3_AA>
0.9

> <PUBCHEM_EXACT_MASS>
360.120903

> <PUBCHEM_MOLECULAR_FORMULA>
C19H20O7

> <PUBCHEM_MOLECULAR_WEIGHT>
360.3579

> <PUBCHEM_OPENEYE_CAN_SMILES>
CC(=C)C(=O)OC1C=C(C2=CC(=O)C(O2)(CC3C1C(=C)C(=O)O3)C)CO

> <PUBCHEM_OPENEYE_ISO_SMILES>
CC(=C)C(=O)O[C@@H]1/C=C(\C2=CC(=O)[C@](O2)(C[C@H]3[C@H]1C(=C)C(=O)O3)C)/CO

> <PUBCHEM_CACTVS_TPSA>
99.1

> <PUBCHEM_MONOISOTOPIC_WEIGHT>
360.120903

> <PUBCHEM_TOTAL_CHARGE>
0

> <PUBCHEM_HEAVY_ATOM_COUNT>
26

> <PUBCHEM_ATOM_DEF_STEREO_COUNT>
4

> <PUBCHEM_ATOM_UDEF_STEREO_COUNT>
0

> <PUBCHEM_BOND_DEF_STEREO_COUNT>
1

> <PUBCHEM_BOND_UDEF_STEREO_COUNT>
0

> <PUBCHEM_ISOTOPIC_ATOM_COUNT>
0

> <PUBCHEM_COMPONENT_COUNT>
1

> <PUBCHEM_CACTVS_TAUTO_COUNT>
1

> <PUBCHEM_COORDINATE_TYPE>
1
5
255

> <PUBCHEM_BONDANNOTATIONS>
11  15  5
12  3  5
8  27  6
9  28  5

$$$$

