   Color/Form
        Yellowish oil
   from [1]HSDB

   Boiling Point
        Decomposes on distillation
   from [2]HSDB

   Melting Point
        2-5 deg C
   from [3]HSDB

   Density/Specific Gravity
        1.247 at 20 deg C/4 deg C
   from [4]HSDB

   Octanol/Water Partition Coefficient
        Log Kow = 3.55
   from [5]HSDB

   Solubilities

     * Readily soluble in most organic solvents
     * 39 mg/l in water @ 23 deg C
     * 0.7 g/100 ml in n-hexane at 20 deg C
     * 24.7 mg/L in water at 20 deg C
     * In water, 30-40 mg/L (20 deg C); In ethyl acetate, acetone > 1000;
       ethanol, toluene > 330; Hexane 9 (all in g/kg at 20 deg C)

   from [6]HSDB

   Vapor Pressure
        2.9X10-6 mm Hg at 30 deg C
   from [7]HSDB

   Other Chemical/Physical Properties

     * Hydrolyzed by aqueous acids and alkalis.
     * Stable to light
     * Vapor pressure = 13 mPa @ 55 deg C

   from [8]HSDB

   Computed Properties
   Molecular Weight                  313.312502 [g/mol]
   Molecular Formula                 C[12]H[16]N[3]O[3]PS
   XLogP3                            3.5
   H-Bond Donor                      0
   H-Bond Acceptor                   6
   Rotatable Bond Count              7
   Exact Mass                        313.064999
   MonoIsotopic Mass                 313.064999
   Topological Polar Surface Area    90.5
   Heavy Atom Count                  20
   Formal Charge                     0
   Complexity                        332
   Isotope Atom Count                0
   Defined Atom Stereocenter Count   0
   Undefined Atom Stereocenter Count 0
   Defined Bond Stereocenter Count   0
   Undefined Bond Stereocenter Count 0
   Covalently-Bonded Unit Count      1
   Feature 3D Cation Count           2
   Feature 3D Ring Count             2
   Effective Rotor Count             7
   Conformer Sampling RMSD           0.8
   CID Conformer Count               [9]64

References

   1. http://toxnet.nlm.nih.gov/cgi-bin/sis/search/r?dbs+hsdb:@term+@rn+@rel+24017-47-8
   2. http://toxnet.nlm.nih.gov/cgi-bin/sis/search/r?dbs+hsdb:@term+@rn+@rel+24017-47-8
   3. http://toxnet.nlm.nih.gov/cgi-bin/sis/search/r?dbs+hsdb:@term+@rn+@rel+24017-47-8
   4. http://toxnet.nlm.nih.gov/cgi-bin/sis/search/r?dbs+hsdb:@term+@rn+@rel+24017-47-8
   5. http://toxnet.nlm.nih.gov/cgi-bin/sis/search/r?dbs+hsdb:@term+@rn+@rel+24017-47-8
   6. http://toxnet.nlm.nih.gov/cgi-bin/sis/search/r?dbs+hsdb:@term+@rn+@rel+24017-47-8
   7. http://toxnet.nlm.nih.gov/cgi-bin/sis/search/r?dbs+hsdb:@term+@rn+@rel+24017-47-8
   8. http://toxnet.nlm.nih.gov/cgi-bin/sis/search/r?dbs+hsdb:@term+@rn+@rel+24017-47-8
   9. http://pubchem.ncbi.nlm.nih.gov/vw3d/vw3d.cgi?cid=32184
