   Color/Form
        Needles from aqueous acetone
   from [1]HSDB

   Melting Point
        198-200 deg C (decomposes)
   from [2]HSDB

   Dissociation Constants
        pKa = 3.6 (carboxylic acid) (est)
   from [3]HSDB

   Octanol/Water Partition Coefficient
        log Kow = -0.58
   from [4]HSDB

   Solubilities

     * Easily sol in DMF, pyridine; sol in aq acetone, aq dioxane, aq
       ethanol; slightly sol in methanol. Practically insol in chloroform,
       benzene, ether.
     * In water, 2.1X10+2 mg/L at 25 deg C (est)

   from [5]HSDB

   Spectral Properties
        UV max (buffer pH 6.4): 272 nm (epsilon 13150)
   from [6]HSDB

   Vapor Pressure
        1.5X10-18 mm Hg at 25 deg C (est)
   from [7]HSDB

   Other Chemical/Physical Properties

     * Mol wt 476.50. White to yellowish-white, odorless crystalline
       powder with a bitter, salty taste. Crystallizes in alpha, beta, and
       gamma forms (Kariyone). Easily sol in water, slightly sol in
       methanol, ethanol. Practically insol in benzene, acetone,
       chloroform /Sodium salt/
     * Henry's Law constant = 2.0X10-23 atm-cu m/mol at 25 deg C (est)

   from [8]HSDB

   Computed Properties
   Molecular Weight                  454.50716 [g/mol]
   Molecular Formula                 C[14]H[14]N[8]O[4]S[3]
   XLogP3                            -0.4
   H-Bond Donor                      2
   H-Bond Acceptor                   12
   Rotatable Bond Count              7
   Tautomer Count                    4
   Exact Mass                        454.030014
   MonoIsotopic Mass                 454.030014
   Topological Polar Surface Area    235
   Heavy Atom Count                  29
   Formal Charge                     0
   Complexity                        740
   Isotope Atom Count                0
   Defined Atom Stereocenter Count   2
   Undefined Atom Stereocenter Count 0
   Defined Bond Stereocenter Count   0
   Undefined Bond Stereocenter Count 0
   Covalently-Bonded Unit Count      1
   Feature 3D Acceptor Count         6
   Feature 3D Donor Count            1
   Feature 3D Anion Count            1
   Feature 3D Cation Count           1
   Feature 3D Ring Count             4
   Effective Rotor Count             8.6
   Conformer Sampling RMSD           1
   CID Conformer Count               [9]115

References

   1. http://toxnet.nlm.nih.gov/cgi-bin/sis/search/r?dbs+hsdb:@term+@rn+@rel+25953-19-9
   2. http://toxnet.nlm.nih.gov/cgi-bin/sis/search/r?dbs+hsdb:@term+@rn+@rel+25953-19-9
   3. http://toxnet.nlm.nih.gov/cgi-bin/sis/search/r?dbs+hsdb:@term+@rn+@rel+25953-19-9
   4. http://toxnet.nlm.nih.gov/cgi-bin/sis/search/r?dbs+hsdb:@term+@rn+@rel+25953-19-9
   5. http://toxnet.nlm.nih.gov/cgi-bin/sis/search/r?dbs+hsdb:@term+@rn+@rel+25953-19-9
   6. http://toxnet.nlm.nih.gov/cgi-bin/sis/search/r?dbs+hsdb:@term+@rn+@rel+25953-19-9
   7. http://toxnet.nlm.nih.gov/cgi-bin/sis/search/r?dbs+hsdb:@term+@rn+@rel+25953-19-9
   8. http://toxnet.nlm.nih.gov/cgi-bin/sis/search/r?dbs+hsdb:@term+@rn+@rel+25953-19-9
   9. http://pubchem.ncbi.nlm.nih.gov/vw3d/vw3d.cgi?cid=33255
