50909794
  -OEChem-07051212492D

 87 90  0     1  0  0  0  0  0999 V2000
    7.7331   -0.5950    0.0000 O   0  0  0  0  0  0  0  0  0  0  0  0
    9.4651   -0.5950    0.0000 O   0  0  0  0  0  0  0  0  0  0  0  0
    9.4651    2.4050    0.0000 O   0  0  0  0  0  0  0  0  0  0  0  0
    6.8671   -3.0950    0.0000 O   0  0  0  0  0  0  0  0  0  0  0  0
    6.0010   -1.5950    0.0000 O   0  0  0  0  0  0  0  0  0  0  0  0
   11.1972    2.4050    0.0000 O   0  0  0  0  0  0  0  0  0  0  0  0
    7.7331    1.4050    0.0000 O   0  0  0  0  0  0  0  0  0  0  0  0
    4.2690   -3.5950    0.0000 O   0  0  0  0  0  0  0  0  0  0  0  0
    9.4651   -1.5950    0.0000 O   0  0  0  0  0  0  0  0  0  0  0  0
   11.1972    1.4050    0.0000 O   0  0  0  0  0  0  0  0  0  0  0  0
    9.4651   -3.5950    0.0000 O   0  0  0  0  0  0  0  0  0  0  0  0
    4.2690   -0.5950    0.0000 O   0  0  0  0  0  0  0  0  0  0  0  0
    9.4651    4.4050    0.0000 O   0  0  0  0  0  0  0  0  0  0  0  0
   11.1972    5.4050    0.0000 O   0  0  0  0  0  0  0  0  0  0  0  0
    2.5369   -1.5950    0.0000 O   0  0  0  0  0  0  0  0  0  0  0  0
   12.9292    4.4050    0.0000 O   0  0  0  0  0  0  0  0  0  0  0  0
    6.0010   -3.5950    0.0000 O   0  0  0  0  0  0  0  0  0  0  0  0
   11.1972   -1.5950    0.0000 O   0  0  0  0  0  0  0  0  0  0  0  0
    6.8671   -5.0950    0.0000 O   0  0  0  0  0  0  0  0  0  0  0  0
   12.9292    1.4050    0.0000 O   0  0  0  0  0  0  0  0  0  0  0  0
    2.5369   -4.5950    0.0000 O   0  0  0  0  0  0  0  0  0  0  0  0
    7.7331   -1.5950    0.0000 C   0  0  1  0  0  0  0  0  0  0  0  0
    9.4651    1.4050    0.0000 C   0  0  2  0  0  0  0  0  0  0  0  0
    8.5991    0.9050    0.0000 C   0  0  1  0  0  0  0  0  0  0  0  0
    8.5991   -0.0950    0.0000 C   0  0  1  0  0  0  0  0  0  0  0  0
    8.5991   -2.0950    0.0000 C   0  0  2  0  0  0  0  0  0  0  0  0
    6.8671   -2.0950    0.0000 C   0  0  2  0  0  0  0  0  0  0  0  0
   10.3312    0.9050    0.0000 C   0  0  1  0  0  0  0  0  0  0  0  0
    8.5991   -3.0950    0.0000 C   0  0  1  0  0  0  0  0  0  0  0  0
   10.3312   -0.0950    0.0000 C   0  0  1  0  0  0  0  0  0  0  0  0
    7.7331   -3.5950    0.0000 C   0  0  1  0  0  0  0  0  0  0  0  0
    5.1350   -2.0950    0.0000 C   0  0  1  0  0  0  0  0  0  0  0  0
   10.3312    2.9050    0.0000 C   0  0  1  0  0  0  0  0  0  0  0  0
    4.2690   -1.5950    0.0000 C   0  0  2  0  0  0  0  0  0  0  0  0
   10.3312    3.9050    0.0000 C   0  0  2  0  0  0  0  0  0  0  0  0
   11.1972    4.4050    0.0000 C   0  0  2  0  0  0  0  0  0  0  0  0
    3.4030   -2.0950    0.0000 C   0  0  1  0  0  0  0  0  0  0  0  0
   12.0632    3.9050    0.0000 C   0  0  1  0  0  0  0  0  0  0  0  0
    5.1350   -3.0950    0.0000 C   0  0  3  0  0  0  0  0  0  0  0  0
   12.0632    2.9050    0.0000 C   0  0  1  0  0  0  0  0  0  0  0  0
    3.4030   -3.0950    0.0000 C   0  0  1  0  0  0  0  0  0  0  0  0
   11.1972   -0.5950    0.0000 C   0  0  0  0  0  0  0  0  0  0  0  0
    7.7331   -4.5950    0.0000 C   0  0  0  0  0  0  0  0  0  0  0  0
   12.9292    2.4050    0.0000 C   0  0  0  0  0  0  0  0  0  0  0  0
    2.5369   -3.5950    0.0000 C   0  0  0  0  0  0  0  0  0  0  0  0
    8.2700   -1.2850    0.0000 H   0  0  0  0  0  0  0  0  0  0  0  0
   10.0021    1.7150    0.0000 H   0  0  0  0  0  0  0  0  0  0  0  0
    8.5991    1.5250    0.0000 H   0  0  0  0  0  0  0  0  0  0  0  0
    8.5991   -0.7150    0.0000 H   0  0  0  0  0  0  0  0  0  0  0  0
    8.5991   -1.4750    0.0000 H   0  0  0  0  0  0  0  0  0  0  0  0
    6.3301   -2.4050    0.0000 H   0  0  0  0  0  0  0  0  0  0  0  0
   10.8681    0.5950    0.0000 H   0  0  0  0  0  0  0  0  0  0  0  0
    8.5991   -3.7150    0.0000 H   0  0  0  0  0  0  0  0  0  0  0  0
   10.3312   -0.7150    0.0000 H   0  0  0  0  0  0  0  0  0  0  0  0
    7.1962   -3.9050    0.0000 H   0  0  0  0  0  0  0  0  0  0  0  0
    5.1350   -1.4750    0.0000 H   0  0  0  0  0  0  0  0  0  0  0  0
    9.7942    3.2150    0.0000 H   0  0  0  0  0  0  0  0  0  0  0  0
    4.8059   -1.2850    0.0000 H   0  0  0  0  0  0  0  0  0  0  0  0
    9.7942    3.5950    0.0000 H   0  0  0  0  0  0  0  0  0  0  0  0
   10.6603    4.7150    0.0000 H   0  0  0  0  0  0  0  0  0  0  0  0
    3.4030   -1.4750    0.0000 H   0  0  0  0  0  0  0  0  0  0  0  0
   12.6002    3.5950    0.0000 H   0  0  0  0  0  0  0  0  0  0  0  0
    5.1350   -3.7150    0.0000 H   0  0  0  0  0  0  0  0  0  0  0  0
   12.0632    2.2850    0.0000 H   0  0  0  0  0  0  0  0  0  0  0  0
    3.4030   -3.7150    0.0000 H   0  0  0  0  0  0  0  0  0  0  0  0
   11.8078   -0.7027    0.0000 H   0  0  0  0  0  0  0  0  0  0  0  0
   11.4092   -0.0124    0.0000 H   0  0  0  0  0  0  0  0  0  0  0  0
    7.9451   -5.1776    0.0000 H   0  0  0  0  0  0  0  0  0  0  0  0
    8.3437   -4.4873    0.0000 H   0  0  0  0  0  0  0  0  0  0  0  0
    7.7331    2.0250    0.0000 H   0  0  0  0  0  0  0  0  0  0  0  0
   10.0021   -1.9050    0.0000 H   0  0  0  0  0  0  0  0  0  0  0  0
   11.7341    1.0950    0.0000 H   0  0  0  0  0  0  0  0  0  0  0  0
    9.4651   -4.2150    0.0000 H   0  0  0  0  0  0  0  0  0  0  0  0
   13.5398    2.2973    0.0000 H   0  0  0  0  0  0  0  0  0  0  0  0
   13.1413    2.9876    0.0000 H   0  0  0  0  0  0  0  0  0  0  0  0
    2.3249   -3.0124    0.0000 H   0  0  0  0  0  0  0  0  0  0  0  0
    1.9264   -3.7027    0.0000 H   0  0  0  0  0  0  0  0  0  0  0  0
    3.7320   -0.2850    0.0000 H   0  0  0  0  0  0  0  0  0  0  0  0
    9.4651    5.0250    0.0000 H   0  0  0  0  0  0  0  0  0  0  0  0
   11.7341    5.7150    0.0000 H   0  0  0  0  0  0  0  0  0  0  0  0
    2.0000   -1.9050    0.0000 H   0  0  0  0  0  0  0  0  0  0  0  0
   13.4662    4.0950    0.0000 H   0  0  0  0  0  0  0  0  0  0  0  0
    6.0010   -4.2150    0.0000 H   0  0  0  0  0  0  0  0  0  0  0  0
   11.7341   -1.9050    0.0000 H   0  0  0  0  0  0  0  0  0  0  0  0
    6.8671   -5.7150    0.0000 H   0  0  0  0  0  0  0  0  0  0  0  0
   13.4662    1.0950    0.0000 H   0  0  0  0  0  0  0  0  0  0  0  0
    2.0000   -4.9050    0.0000 H   0  0  0  0  0  0  0  0  0  0  0  0
 22  1  1  1  0  0  0
 25  1  1  6  0  0  0
  2 25  1  0  0  0  0
  2 30  1  0  0  0  0
 23  3  1  1  0  0  0
 33  3  1  6  0  0  0
  4 27  1  0  0  0  0
  4 31  1  0  0  0  0
 27  5  1  6  0  0  0
 32  5  1  6  0  0  0
  6 33  1  0  0  0  0
  6 40  1  0  0  0  0
 24  7  1  1  0  0  0
  7 70  1  0  0  0  0
  8 39  1  0  0  0  0
  8 41  1  0  0  0  0
 26  9  1  1  0  0  0
  9 71  1  0  0  0  0
 28 10  1  6  0  0  0
 10 72  1  0  0  0  0
 29 11  1  6  0  0  0
 11 73  1  0  0  0  0
 34 12  1  6  0  0  0
 12 78  1  0  0  0  0
 35 13  1  1  0  0  0
 13 79  1  0  0  0  0
 36 14  1  1  0  0  0
 14 80  1  0  0  0  0
 37 15  1  1  0  0  0
 15 81  1  0  0  0  0
 38 16  1  6  0  0  0
 16 82  1  0  0  0  0
 17 39  1  0  0  0  0
 17 83  1  0  0  0  0
 18 42  1  0  0  0  0
 18 84  1  0  0  0  0
 19 43  1  0  0  0  0
 19 85  1  0  0  0  0
 20 44  1  0  0  0  0
 20 86  1  0  0  0  0
 21 45  1  0  0  0  0
 21 87  1  0  0  0  0
 22 26  1  0  0  0  0
 22 27  1  0  0  0  0
 22 46  1  0  0  0  0
 23 24  1  0  0  0  0
 23 28  1  0  0  0  0
 23 47  1  0  0  0  0
 24 25  1  0  0  0  0
 24 48  1  0  0  0  0
 25 49  1  0  0  0  0
 26 29  1  0  0  0  0
 26 50  1  0  0  0  0
 27 51  1  0  0  0  0
 28 30  1  0  0  0  0
 28 52  1  0  0  0  0
 29 31  1  0  0  0  0
 29 53  1  0  0  0  0
 30 42  1  1  0  0  0
 30 54  1  0  0  0  0
 31 43  1  1  0  0  0
 31 55  1  0  0  0  0
 32 34  1  0  0  0  0
 32 39  1  0  0  0  0
 32 56  1  0  0  0  0
 33 35  1  0  0  0  0
 33 57  1  0  0  0  0
 34 37  1  0  0  0  0
 34 58  1  0  0  0  0
 35 36  1  0  0  0  0
 35 59  1  0  0  0  0
 36 38  1  0  0  0  0
 36 60  1  0  0  0  0
 37 41  1  0  0  0  0
 37 61  1  0  0  0  0
 38 40  1  0  0  0  0
 38 62  1  0  0  0  0
 39 63  1  0  0  0  0
 40 44  1  1  0  0  0
 40 64  1  0  0  0  0
 41 45  1  6  0  0  0
 41 65  1  0  0  0  0
 42 66  1  0  0  0  0
 42 67  1  0  0  0  0
 43 68  1  0  0  0  0
 43 69  1  0  0  0  0
 44 74  1  0  0  0  0
 44 75  1  0  0  0  0
 45 76  1  0  0  0  0
 45 77  1  0  0  0  0
M  END
> <PUBCHEM_COMPOUND_CID>
50909794

> <PUBCHEM_COMPOUND_CANONICALIZED>
1

> <PUBCHEM_CACTVS_COMPLEXITY>
918

> <PUBCHEM_CACTVS_HBOND_ACCEPTOR>
21

> <PUBCHEM_CACTVS_HBOND_DONOR>
14

> <PUBCHEM_CACTVS_ROTATABLE_BOND>
10

> <PUBCHEM_CACTVS_SUBSKEYS>
AAADcfB4PgAAAAAAAAAAAAAAAAAAAAAAAAAkSJEgAAAAAAAAAAAAGgAACAAACBSwgAMACAAABgAAAAAAAAAAAAAAAAAAAAAAAAAREAIAAAAiQAAFAAAHAAHAYAwAAAAAAAAAAAAAAAAAAAAAAAAAAAAAAA==

> <PUBCHEM_IUPAC_OPENEYE_NAME>
(3S,4S,5S,6R)-3-[(2R,3S,4S,5S,6R)-3-[(2R,3S,4S,5R,6R)-3,5-dihydroxy-6-(hydroxymethyl)-4-[(2R,3S,4S,5S,6R)-3,4,5-trihydroxy-6-(hydroxymethyl)tetrahydropyran-2-yl]oxy-tetrahydropyran-2-yl]oxy-4,5-dihydroxy-6-(hydroxymethyl)tetrahydropyran-2-yl]oxy-6-(hydroxymethyl)tetrahydropyran-2,4,5-triol

> <PUBCHEM_IUPAC_CAS_NAME>
(3S,4S,5S,6R)-3-[[(2R,3S,4S,5S,6R)-3-[[(2R,3S,4S,5R,6R)-3,5-dihydroxy-6-(hydroxymethyl)-4-[[(2R,3S,4S,5S,6R)-3,4,5-trihydroxy-6-(hydroxymethyl)-2-oxanyl]oxy]-2-oxanyl]oxy]-4,5-dihydroxy-6-(hydroxymethyl)-2-oxanyl]oxy]-6-(hydroxymethyl)oxane-2,4,5-triol

> <PUBCHEM_IUPAC_NAME>
(3S,4S,5S,6R)-3-[(2R,3S,4S,5S,6R)-3-[(2R,3S,4S,5R,6R)-3,5-dihydroxy-6-(hydroxymethyl)-4-[(2R,3S,4S,5S,6R)-3,4,5-trihydroxy-6-(hydroxymethyl)oxan-2-yl]oxyoxan-2-yl]oxy-4,5-dihydroxy-6-(hydroxymethyl)oxan-2-yl]oxy-6-(hydroxymethyl)oxane-2,4,5-triol

> <PUBCHEM_IUPAC_SYSTEMATIC_NAME>
(3S,4S,5S,6R)-6-(hydroxymethyl)-3-[(2R,3S,4S,5S,6R)-6-(hydroxymethyl)-3-[(2R,3S,4S,5R,6R)-6-(hydroxymethyl)-4-[(2R,3S,4S,5S,6R)-6-(hydroxymethyl)-3,4,5-tris(oxidanyl)oxan-2-yl]oxy-3,5-bis(oxidanyl)oxan-2-yl]oxy-4,5-bis(oxidanyl)oxan-2-yl]oxy-oxane-2,4,5-triol

> <PUBCHEM_IUPAC_TRADITIONAL_NAME>
(3S,4S,5S,6R)-3-[(2R,3S,4S,5S,6R)-3-[(2R,3S,4S,5R,6R)-3,5-dihydroxy-6-methylol-4-[(2R,3S,4S,5S,6R)-3,4,5-trihydroxy-6-methylol-tetrahydropyran-2-yl]oxy-tetrahydropyran-2-yl]oxy-4,5-dihydroxy-6-methylol-tetrahydropyran-2-yl]oxy-6-methylol-tetrahydropyran-2,4,5-triol

> <PUBCHEM_IUPAC_INCHI>
InChI=1S/C24H42O21/c25-1-5-10(30)14(34)19(21(38)39-5)44-24-20(15(35)11(31)7(3-27)42-24)45-23-17(37)18(12(32)8(4-28)41-23)43-22-16(36)13(33)9(29)6(2-26)40-22/h5-38H,1-4H2/t5-,6-,7-,8-,9-,10-,11-,12-,13+,14+,15+,16+,17+,18+,19+,20+,21?,22-,23-,24-/m1/s1

> <PUBCHEM_IUPAC_INCHIKEY>
NXPDEZAEUSDDQF-SHOVVSDRSA-N

> <PUBCHEM_XLOGP3_AA>
-7.4

> <PUBCHEM_EXACT_MASS>
666.221858

> <PUBCHEM_MOLECULAR_FORMULA>
C24H42O21

> <PUBCHEM_MOLECULAR_WEIGHT>
666.57768

> <PUBCHEM_OPENEYE_CAN_SMILES>
C(C1C(C(C(C(O1)O)OC2C(C(C(C(O2)CO)O)O)OC3C(C(C(C(O3)CO)O)OC4C(C(C(C(O4)CO)O)O)O)O)O)O)O

> <PUBCHEM_OPENEYE_ISO_SMILES>
C([C@@H]1[C@H]([C@@H]([C@@H]([C@H](O1)O[C@H]2[C@@H]([C@H](O[C@@H]([C@H]2O)O[C@H]3[C@H]([C@@H]([C@H](O[C@@H]3O[C@H]4[C@H]([C@@H]([C@H](OC4O)CO)O)O)CO)O)O)CO)O)O)O)O)O

> <PUBCHEM_CACTVS_TPSA>
348

> <PUBCHEM_MONOISOTOPIC_WEIGHT>
666.221858

> <PUBCHEM_TOTAL_CHARGE>
0

> <PUBCHEM_HEAVY_ATOM_COUNT>
45

> <PUBCHEM_ATOM_DEF_STEREO_COUNT>
19

> <PUBCHEM_ATOM_UDEF_STEREO_COUNT>
1

> <PUBCHEM_BOND_DEF_STEREO_COUNT>
0

> <PUBCHEM_BOND_UDEF_STEREO_COUNT>
0

> <PUBCHEM_ISOTOPIC_ATOM_COUNT>
0

> <PUBCHEM_COMPONENT_COUNT>
1

> <PUBCHEM_CACTVS_TAUTO_COUNT>
1

> <PUBCHEM_COORDINATE_TYPE>
1
5
255

> <PUBCHEM_BONDANNOTATIONS>
22  1  5
25  1  6
28  10  6
29  11  6
34  12  6
35  13  5
36  14  5
37  15  5
38  16  6
39  17  3
23  3  5
33  3  6
30  42  5
31  43  5
40  44  5
41  45  6
27  5  6
32  5  6
24  7  5
26  9  5

$$$$

