8227
  -OEChem-07051213122D

 45 47  0     1  0  0  0  0  0999 V2000
    6.5549    0.7082    0.0000 O   0  0  0  0  0  0  0  0  0  0  0  0
    8.3102   -2.3320    0.0000 O   0  0  0  0  0  0  0  0  0  0  0  0
    7.1962   -0.9484    0.0000 N   0  0  0  0  0  0  0  0  0  0  0  0
    8.2710    0.2495    0.0000 C   0  0  3  0  0  0  0  0  0  0  0  0
    8.7710   -0.6165    0.0000 C   0  0  3  0  0  0  0  0  0  0  0  0
   10.5031    0.3835    0.0000 C   0  0  3  0  0  0  0  0  0  0  0  0
   10.7619    1.3494    0.0000 C   0  0  3  0  0  0  0  0  0  0  0  0
   10.0253    2.3320    0.0000 C   0  0  0  0  0  0  0  0  0  0  0  0
   12.3350   -0.3753    0.0000 C   0  0  0  0  0  0  0  0  0  0  0  0
   12.5938    0.5906    0.0000 C   0  0  0  0  0  0  0  0  0  0  0  0
    7.2992    0.0403    0.0000 C   0  0  0  0  0  0  0  0  0  0  0  0
    8.1039   -1.3535    0.0000 C   0  0  0  0  0  0  0  0  0  0  0  0
    6.3301   -1.4484    0.0000 C   0  0  0  0  0  0  0  0  0  0  0  0
    5.4641   -0.9484    0.0000 C   0  0  3  0  0  0  0  0  0  0  0  0
    4.5981   -1.4484    0.0000 C   0  0  0  0  0  0  0  0  0  0  0  0
    5.4641    0.0516    0.0000 C   0  0  0  0  0  0  0  0  0  0  0  0
    3.7320   -0.9484    0.0000 C   0  0  0  0  0  0  0  0  0  0  0  0
    4.5981    0.5516    0.0000 C   0  0  0  0  0  0  0  0  0  0  0  0
    2.8660   -1.4484    0.0000 C   0  0  0  0  0  0  0  0  0  0  0  0
    2.0000   -0.9484    0.0000 C   0  0  0  0  0  0  0  0  0  0  0  0
    9.1606   -1.0989    0.0000 H   0  0  0  0  0  0  0  0  0  0  0  0
    8.0796    0.8392    0.0000 H   0  0  0  0  0  0  0  0  0  0  0  0
   10.9735    0.7873    0.0000 H   0  0  0  0  0  0  0  0  0  0  0  0
   11.1421    1.8392    0.0000 H   0  0  0  0  0  0  0  0  0  0  0  0
   10.3431    2.8644    0.0000 H   0  0  0  0  0  0  0  0  0  0  0  0
    9.4121    2.4240    0.0000 H   0  0  0  0  0  0  0  0  0  0  0  0
   13.1499    0.8648    0.0000 H   0  0  0  0  0  0  0  0  0  0  0  0
   12.6092   -0.9314    0.0000 H   0  0  0  0  0  0  0  0  0  0  0  0
    5.9316   -1.9234    0.0000 H   0  0  0  0  0  0  0  0  0  0  0  0
    6.7287   -1.9234    0.0000 H   0  0  0  0  0  0  0  0  0  0  0  0
    5.4641   -1.5684    0.0000 H   0  0  0  0  0  0  0  0  0  0  0  0
    4.1996   -1.9234    0.0000 H   0  0  0  0  0  0  0  0  0  0  0  0
    4.9966   -1.9234    0.0000 H   0  0  0  0  0  0  0  0  0  0  0  0
    6.0747   -0.0561    0.0000 H   0  0  0  0  0  0  0  0  0  0  0  0
    5.6762    0.6342    0.0000 H   0  0  0  0  0  0  0  0  0  0  0  0
    4.1306   -0.4735    0.0000 H   0  0  0  0  0  0  0  0  0  0  0  0
    3.3335   -0.4735    0.0000 H   0  0  0  0  0  0  0  0  0  0  0  0
    4.9081    1.0885    0.0000 H   0  0  0  0  0  0  0  0  0  0  0  0
    4.0611    0.8616    0.0000 H   0  0  0  0  0  0  0  0  0  0  0  0
    4.2881    0.0147    0.0000 H   0  0  0  0  0  0  0  0  0  0  0  0
    2.4675   -1.9234    0.0000 H   0  0  0  0  0  0  0  0  0  0  0  0
    3.2646   -1.9234    0.0000 H   0  0  0  0  0  0  0  0  0  0  0  0
    2.3100   -0.4115    0.0000 H   0  0  0  0  0  0  0  0  0  0  0  0
    1.4631   -0.6384    0.0000 H   0  0  0  0  0  0  0  0  0  0  0  0
    1.6900   -1.4854    0.0000 H   0  0  0  0  0  0  0  0  0  0  0  0
  1 11  2  0  0  0  0
  2 12  2  0  0  0  0
  3 11  1  0  0  0  0
  3 12  1  0  0  0  0
  3 13  1  0  0  0  0
  4  5  1  0  0  0  0
  4  7  1  0  0  0  0
  4 11  1  0  0  0  0
  4 22  1  0  0  0  0
  5  6  1  0  0  0  0
  5 12  1  0  0  0  0
  5 21  1  0  0  0  0
  6  8  1  0  0  0  0
  6  9  1  0  0  0  0
  6 23  1  0  0  0  0
  7  8  1  0  0  0  0
  7 10  1  0  0  0  0
  7 24  1  0  0  0  0
  8 25  1  0  0  0  0
  8 26  1  0  0  0  0
  9 10  2  0  0  0  0
  9 28  1  0  0  0  0
 10 27  1  0  0  0  0
 13 14  1  0  0  0  0
 13 29  1  0  0  0  0
 13 30  1  0  0  0  0
 14 15  1  0  0  0  0
 14 16  1  0  0  0  0
 14 31  1  0  0  0  0
 15 17  1  0  0  0  0
 15 32  1  0  0  0  0
 15 33  1  0  0  0  0
 16 18  1  0  0  0  0
 16 34  1  0  0  0  0
 16 35  1  0  0  0  0
 17 19  1  0  0  0  0
 17 36  1  0  0  0  0
 17 37  1  0  0  0  0
 18 38  1  0  0  0  0
 18 39  1  0  0  0  0
 18 40  1  0  0  0  0
 19 20  1  0  0  0  0
 19 41  1  0  0  0  0
 19 42  1  0  0  0  0
 20 43  1  0  0  0  0
 20 44  1  0  0  0  0
 20 45  1  0  0  0  0
M  END
> <PUBCHEM_COMPOUND_CID>
8227

> <PUBCHEM_COMPOUND_CANONICALIZED>
1

> <PUBCHEM_CACTVS_COMPLEXITY>
412

> <PUBCHEM_CACTVS_HBOND_ACCEPTOR>
2

> <PUBCHEM_CACTVS_HBOND_DONOR>
0

> <PUBCHEM_CACTVS_ROTATABLE_BOND>
6

> <PUBCHEM_CACTVS_SUBSKEYS>
AAADceB6MAAAAAAAAAAAAAAAAAAAAeIEAAAgAAAAAAAWAAAAAAAAHgAAAAAADQDBgAQCAAMAAACIACFSEAAAAAAgAAAICAEIAAgAABIAgQAEAAAAhiCIAAMdiACOgAAAAAAAAAAAAAAAAAAAAQAACAAAAA==

> <PUBCHEM_IUPAC_INCHI>
InChI=1S/C17H25NO2/c1-3-5-6-11(4-2)10-18-16(19)14-12-7-8-13(9-12)15(14)17(18)20/h7-8,11-15H,3-6,9-10H2,1-2H3

> <PUBCHEM_IUPAC_INCHIKEY>
WLLGXSLBOPFWQV-UHFFFAOYSA-N

> <PUBCHEM_XLOGP3_AA>
3.4

> <PUBCHEM_EXACT_MASS>
275.188529

> <PUBCHEM_MOLECULAR_FORMULA>
C17H25NO2

> <PUBCHEM_MOLECULAR_WEIGHT>
275.3859

> <PUBCHEM_OPENEYE_CAN_SMILES>
CCCCC(CC)CN1C(=O)C2C3CC(C2C1=O)C=C3

> <PUBCHEM_OPENEYE_ISO_SMILES>
CCCCC(CC)CN1C(=O)C2C3CC(C2C1=O)C=C3

> <PUBCHEM_CACTVS_TPSA>
37.4

> <PUBCHEM_MONOISOTOPIC_WEIGHT>
275.188529

> <PUBCHEM_TOTAL_CHARGE>
0

> <PUBCHEM_HEAVY_ATOM_COUNT>
20

> <PUBCHEM_ATOM_DEF_STEREO_COUNT>
0

> <PUBCHEM_ATOM_UDEF_STEREO_COUNT>
5

> <PUBCHEM_BOND_DEF_STEREO_COUNT>
0

> <PUBCHEM_BOND_UDEF_STEREO_COUNT>
0

> <PUBCHEM_ISOTOPIC_ATOM_COUNT>
0

> <PUBCHEM_COMPONENT_COUNT>
1

> <PUBCHEM_CACTVS_TAUTO_COUNT>
1

> <PUBCHEM_COORDINATE_TYPE>
1
5
255

> <PUBCHEM_BONDANNOTATIONS>
14  13  3
4  11  3
5  12  3
6  8  3
7  8  3

$$$$

