155008
  -OEChem-07051212562D

 65 70  0     0  0  0  0  0  0999 V2000
    3.7702   -1.8558    0.0000 O   0  0  0  0  0  0  0  0  0  0  0  0
    7.3000   -0.8595    0.0000 O   0  0  0  0  0  0  0  0  0  0  0  0
    3.7602   -0.8595    0.0000 O   0  0  0  0  0  0  0  0  0  0  0  0
    6.4138    3.7169    0.0000 O   0  0  0  0  0  0  0  0  0  0  0  0
    5.5301   -4.8905    0.0000 O   0  0  0  0  0  0  0  0  0  0  0  0
    8.1502    0.6687    0.0000 O   0  0  0  0  0  0  0  0  0  0  0  0
    7.2785   -4.9250    0.0000 O   0  0  0  0  0  0  0  0  0  0  0  0
    9.0602   -1.8663    0.0000 O   0  0  0  0  0  0  0  0  0  0  0  0
    3.7817   -4.9250    0.0000 O   0  0  0  0  0  0  0  0  0  0  0  0
    9.0601    2.1621    0.0000 O   0  0  0  0  0  0  0  0  0  0  0  0
    5.5301   -1.8904    0.0000 C   0  0  0  0  0  0  0  0  0  0  0  0
    5.5301   -0.8905    0.0000 C   0  0  0  0  0  0  0  0  0  0  0  0
    6.3961   -2.3904    0.0000 C   0  0  0  0  0  0  0  0  0  0  0  0
    4.6641   -2.3904    0.0000 C   0  0  0  0  0  0  0  0  0  0  0  0
    6.4182    0.6754    0.0000 C   0  0  0  0  0  0  0  0  0  0  0  0
    6.4302   -0.3662    0.0000 C   0  0  0  0  0  0  0  0  0  0  0  0
    6.3961   -3.3904    0.0000 C   0  0  0  0  0  0  0  0  0  0  0  0
    5.5540    1.1787    0.0000 C   0  0  0  0  0  0  0  0  0  0  0  0
    4.6641   -3.3904    0.0000 C   0  0  0  0  0  0  0  0  0  0  0  0
    4.6301   -0.3662    0.0000 C   0  0  0  0  0  0  0  0  0  0  0  0
    5.5301   -3.8904    0.0000 C   0  0  0  0  0  0  0  0  0  0  0  0
    4.6421    0.6754    0.0000 C   0  0  0  0  0  0  0  0  0  0  0  0
    7.2861    1.1721    0.0000 C   0  0  0  0  0  0  0  0  0  0  0  0
    7.2901   -1.8558    0.0000 C   0  0  0  0  0  0  0  0  0  0  0  0
    7.2900    2.1720    0.0000 C   0  0  0  0  0  0  0  0  0  0  0  0
    5.5579    2.1787    0.0000 C   0  0  0  0  0  0  0  0  0  0  0  0
    7.2901   -3.9251    0.0000 C   0  0  0  0  0  0  0  0  0  0  0  0
    6.4258    2.6754    0.0000 C   0  0  0  0  0  0  0  0  0  0  0  0
    3.7702   -3.9251    0.0000 C   0  0  0  0  0  0  0  0  0  0  0  0
    8.1962   -2.3696    0.0000 C   0  0  0  0  0  0  0  0  0  0  0  0
    8.1962   -3.4113    0.0000 C   0  0  0  0  0  0  0  0  0  0  0  0
    2.8641   -2.3696    0.0000 C   0  0  0  0  0  0  0  0  0  0  0  0
    2.8641   -3.4113    0.0000 C   0  0  0  0  0  0  0  0  0  0  0  0
    8.2019    2.6754    0.0000 C   0  0  0  0  0  0  0  0  0  0  0  0
    7.3139    4.2412    0.0000 C   0  0  0  0  0  0  0  0  0  0  0  0
    8.2139    3.7169    0.0000 C   0  0  0  0  0  0  0  0  0  0  0  0
    2.0000   -1.8663    0.0000 C   0  0  0  0  0  0  0  0  0  0  0  0
    8.1622   -0.3528    0.0000 C   0  0  0  0  0  0  0  0  0  0  0  0
    2.8981   -0.3528    0.0000 C   0  0  0  0  0  0  0  0  0  0  0  0
    7.3139    5.2412    0.0000 C   0  0  0  0  0  0  0  0  0  0  0  0
    9.9282   -2.3630    0.0000 C   0  0  0  0  0  0  0  0  0  0  0  0
    4.1100    0.9936    0.0000 H   0  0  0  0  0  0  0  0  0  0  0  0
    7.2829   -1.2358    0.0000 H   0  0  0  0  0  0  0  0  0  0  0  0
    5.0222    2.4908    0.0000 H   0  0  0  0  0  0  0  0  0  0  0  0
    8.7319   -3.7233    0.0000 H   0  0  0  0  0  0  0  0  0  0  0  0
    2.3284   -3.7233    0.0000 H   0  0  0  0  0  0  0  0  0  0  0  0
    8.7532    4.0228    0.0000 H   0  0  0  0  0  0  0  0  0  0  0  0
    4.9932   -5.2004    0.0000 H   0  0  0  0  0  0  0  0  0  0  0  0
    2.3121   -1.3306    0.0000 H   0  0  0  0  0  0  0  0  0  0  0  0
    1.4643   -1.5542    0.0000 H   0  0  0  0  0  0  0  0  0  0  0  0
    1.6879   -2.4020    0.0000 H   0  0  0  0  0  0  0  0  0  0  0  0
    8.6883    0.9767    0.0000 H   0  0  0  0  0  0  0  0  0  0  0  0
    8.4763   -0.8873    0.0000 H   0  0  0  0  0  0  0  0  0  0  0  0
    8.6967   -0.0387    0.0000 H   0  0  0  0  0  0  0  0  0  0  0  0
    7.8481    0.1817    0.0000 H   0  0  0  0  0  0  0  0  0  0  0  0
    7.8118   -5.2412    0.0000 H   0  0  0  0  0  0  0  0  0  0  0  0
    3.2122    0.1817    0.0000 H   0  0  0  0  0  0  0  0  0  0  0  0
    2.3635   -0.0387    0.0000 H   0  0  0  0  0  0  0  0  0  0  0  0
    2.5839   -0.8873    0.0000 H   0  0  0  0  0  0  0  0  0  0  0  0
    7.9339    5.2412    0.0000 H   0  0  0  0  0  0  0  0  0  0  0  0
    7.3139    5.8612    0.0000 H   0  0  0  0  0  0  0  0  0  0  0  0
    6.6939    5.2412    0.0000 H   0  0  0  0  0  0  0  0  0  0  0  0
    9.6203   -2.9011    0.0000 H   0  0  0  0  0  0  0  0  0  0  0  0
   10.4663   -2.6709    0.0000 H   0  0  0  0  0  0  0  0  0  0  0  0
   10.2361   -1.8248    0.0000 H   0  0  0  0  0  0  0  0  0  0  0  0
  1 14  1  0  0  0  0
  1 32  1  0  0  0  0
  2 16  1  0  0  0  0
  2 38  1  0  0  0  0
  3 20  1  0  0  0  0
  3 39  1  0  0  0  0
  4 28  1  0  0  0  0
  4 35  1  0  0  0  0
  5 21  1  0  0  0  0
  5 48  1  0  0  0  0
  6 23  1  0  0  0  0
  6 52  1  0  0  0  0
  7 27  1  0  0  0  0
  7 56  1  0  0  0  0
  8 30  1  0  0  0  0
  8 41  1  0  0  0  0
  9 29  2  0  0  0  0
 10 34  2  0  0  0  0
 11 12  1  0  0  0  0
 11 13  1  0  0  0  0
 11 14  2  0  0  0  0
 12 16  2  0  0  0  0
 12 20  1  0  0  0  0
 13 17  2  0  0  0  0
 13 24  1  0  0  0  0
 14 19  1  0  0  0  0
 15 16  1  0  0  0  0
 15 18  1  0  0  0  0
 15 23  2  0  0  0  0
 17 21  1  0  0  0  0
 17 27  1  0  0  0  0
 18 22  1  0  0  0  0
 18 26  2  0  0  0  0
 19 21  2  0  0  0  0
 19 29  1  0  0  0  0
 20 22  2  0  0  0  0
 22 42  1  0  0  0  0
 23 25  1  0  0  0  0
 24 30  2  0  0  0  0
 24 43  1  0  0  0  0
 25 28  2  0  0  0  0
 25 34  1  0  0  0  0
 26 28  1  0  0  0  0
 26 44  1  0  0  0  0
 27 31  2  0  0  0  0
 29 33  1  0  0  0  0
 30 31  1  0  0  0  0
 31 45  1  0  0  0  0
 32 33  2  0  0  0  0
 32 37  1  0  0  0  0
 33 46  1  0  0  0  0
 34 36  1  0  0  0  0
 35 36  2  0  0  0  0
 35 40  1  0  0  0  0
 36 47  1  0  0  0  0
 37 49  1  0  0  0  0
 37 50  1  0  0  0  0
 37 51  1  0  0  0  0
 38 53  1  0  0  0  0
 38 54  1  0  0  0  0
 38 55  1  0  0  0  0
 39 57  1  0  0  0  0
 39 58  1  0  0  0  0
 39 59  1  0  0  0  0
 40 60  1  0  0  0  0
 40 61  1  0  0  0  0
 40 62  1  0  0  0  0
 41 63  1  0  0  0  0
 41 64  1  0  0  0  0
 41 65  1  0  0  0  0
M  END
> <PUBCHEM_COMPOUND_CID>
155008

> <PUBCHEM_COMPOUND_CANONICALIZED>
1

> <PUBCHEM_CACTVS_COMPLEXITY>
1100

> <PUBCHEM_CACTVS_HBOND_ACCEPTOR>
10

> <PUBCHEM_CACTVS_HBOND_DONOR>
3

> <PUBCHEM_CACTVS_ROTATABLE_BOND>
4

> <PUBCHEM_CACTVS_SUBSKEYS>
AAADceB4PAAAAAAAAAAAAAAAAAAAAAAAAAAwYMGCAAAAAADBVAAAGgAACAAADASAmAIyBsAABgCIAqBSAAACCAAkIAAAiAEGCMgMJzaGNRqCeWCl4BUIuQfI7PzO4AADCAAYAADAAAYQADAAAAAAAAAAAA==

> <PUBCHEM_IUPAC_OPENEYE_NAME>
7-(5,6-dihydroxy-8-methoxy-2-methyl-4-oxo-benzo[g]chromen-10-yl)-5-hydroxy-6,8-dimethoxy-2-methyl-benzo[g]chromen-4-one

> <PUBCHEM_IUPAC_CAS_NAME>
7-(5,6-dihydroxy-8-methoxy-2-methyl-4-oxo-10-benzo[g][1]benzopyranyl)-5-hydroxy-6,8-dimethoxy-2-methyl-4-benzo[g][1]benzopyranone

> <PUBCHEM_IUPAC_NAME>
7-(5,6-dihydroxy-8-methoxy-2-methyl-4-oxobenzo[g]chromen-10-yl)-5-hydroxy-6,8-dimethoxy-2-methylbenzo[g]chromen-4-one

> <PUBCHEM_IUPAC_SYSTEMATIC_NAME>
6,8-dimethoxy-7-[8-methoxy-2-methyl-5,6-bis(oxidanyl)-4-oxidanylidene-benzo[g]chromen-10-yl]-2-methyl-5-oxidanyl-benzo[g]chromen-4-one

> <PUBCHEM_IUPAC_TRADITIONAL_NAME>
7-(5,6-dihydroxy-4-keto-8-methoxy-2-methyl-benzo[g]chromen-10-yl)-5-hydroxy-6,8-dimethoxy-2-methyl-benzo[g]chromen-4-one

> <PUBCHEM_IUPAC_INCHI>
InChI=1S/C31H24O10/c1-12-6-17(32)25-21(40-12)9-14-8-20(38-4)27(30(39-5)22(14)28(25)35)24-16-10-15(37-3)11-19(34)23(16)29(36)26-18(33)7-13(2)41-31(24)26/h6-11,34-36H,1-5H3

> <PUBCHEM_IUPAC_INCHIKEY>
DVSATZLPJVYIRI-UHFFFAOYSA-N

> <PUBCHEM_XLOGP3_AA>
6

> <PUBCHEM_EXACT_MASS>
556.136947

> <PUBCHEM_MOLECULAR_FORMULA>
C31H24O10

> <PUBCHEM_MOLECULAR_WEIGHT>
556.51626

> <PUBCHEM_OPENEYE_CAN_SMILES>
CC1=CC(=O)C2=C(O1)C=C3C=C(C(=C(C3=C2O)OC)C4=C5C(=C(C6=C(C=C(C=C64)OC)O)O)C(=O)C=C(O5)C)OC

> <PUBCHEM_OPENEYE_ISO_SMILES>
CC1=CC(=O)C2=C(O1)C=C3C=C(C(=C(C3=C2O)OC)C4=C5C(=C(C6=C(C=C(C=C64)OC)O)O)C(=O)C=C(O5)C)OC

> <PUBCHEM_CACTVS_TPSA>
141

> <PUBCHEM_MONOISOTOPIC_WEIGHT>
556.136947

> <PUBCHEM_TOTAL_CHARGE>
0

> <PUBCHEM_HEAVY_ATOM_COUNT>
41

> <PUBCHEM_ATOM_DEF_STEREO_COUNT>
0

> <PUBCHEM_ATOM_UDEF_STEREO_COUNT>
0

> <PUBCHEM_BOND_DEF_STEREO_COUNT>
0

> <PUBCHEM_BOND_UDEF_STEREO_COUNT>
0

> <PUBCHEM_ISOTOPIC_ATOM_COUNT>
0

> <PUBCHEM_COMPONENT_COUNT>
1

> <PUBCHEM_CACTVS_TAUTO_COUNT>
809

> <PUBCHEM_COORDINATE_TYPE>
1
5
255

> <PUBCHEM_BONDANNOTATIONS>
1  14  8
1  32  8
11  13  8
11  14  8
12  16  8
12  20  8
13  17  8
13  24  8
14  19  8
15  16  8
15  18  8
15  23  8
17  21  8
17  27  8
18  22  8
18  26  8
19  21  8
19  29  8
20  22  8
23  25  8
24  30  8
25  28  8
25  34  8
26  28  8
27  31  8
29  33  8
30  31  8
32  33  8
34  36  8
35  36  8
4  28  8
4  35  8

$$$$

