442408
  -OEChem-07051212582D

 41 44  0     1  0  0  0  0  0999 V2000
    1.8385   -0.8627    0.0000 O   0  0  0  0  0  0  0  0  0  0  0  0
    6.7217    0.2437    0.0000 O   0  0  0  0  0  0  0  0  0  0  0  0
    4.2305    3.3661    0.0000 O   0  0  0  0  0  0  0  0  0  0  0  0
    4.8697   -2.5878    0.0000 O   0  0  0  0  0  0  0  0  0  0  0  0
    4.0046   -1.4598    0.0000 O   0  0  0  0  0  0  0  0  0  0  0  0
    6.5174   -3.8045    0.0000 O   0  0  0  0  0  0  0  0  0  0  0  0
    4.3775    0.0856    0.0000 C   0  0  1  0  0  0  0  0  0  0  0  0
    2.5456   -0.1556    0.0000 C   0  0  1  0  0  0  0  0  0  0  0  0
    5.9127   -1.1575    0.0000 C   0  0  2  0  0  0  0  0  0  0  0  0
    4.1187    1.0515    0.0000 C   0  0  1  0  0  0  0  0  0  0  0  0
    5.3553    1.9002    0.0000 C   0  0  0  0  0  0  0  0  0  0  0  0
    1.5797    0.1032    0.0000 C   0  0  0  0  0  0  0  0  0  0  0  0
    4.4893    2.4002    0.0000 C   0  0  1  0  0  0  0  0  0  0  0  0
    6.8262   -0.7508    0.0000 C   0  0  1  0  0  0  0  0  0  0  0  0
    4.6364   -0.8803    0.0000 C   0  0  0  0  0  0  0  0  0  0  0  0
    5.7878   -2.1917    0.0000 C   0  0  1  0  0  0  0  0  0  0  0  0
    4.9991   -1.5643    0.0000 C   0  0  0  0  0  0  0  0  0  0  0  0
    7.6783   -1.3500    0.0000 C   0  0  0  0  0  0  0  0  0  0  0  0
    6.6258   -2.8104    0.0000 C   0  0  0  0  0  0  0  0  0  0  0  0
    7.5774   -2.3867    0.0000 C   0  0  0  0  0  0  0  0  0  0  0  0
    8.3887   -2.9714    0.0000 C   0  0  0  0  0  0  0  0  0  0  0  0
    3.8987    1.8726    0.0000 H   0  0  0  0  0  0  0  0  0  0  0  0
    5.6601    2.4401    0.0000 H   0  0  0  0  0  0  0  0  0  0  0  0
    5.8982    1.6007    0.0000 H   0  0  0  0  0  0  0  0  0  0  0  0
    0.9620    0.0492    0.0000 H   0  0  0  0  0  0  0  0  0  0  0  0
    1.6337    0.7209    0.0000 H   0  0  0  0  0  0  0  0  0  0  0  0
    3.8693    2.4021    0.0000 H   0  0  0  0  0  0  0  0  0  0  0  0
    7.6028   -0.4051    0.0000 H   0  0  0  0  0  0  0  0  0  0  0  0
    5.2352   -0.7198    0.0000 H   0  0  0  0  0  0  0  0  0  0  0  0
    4.7968   -1.4792    0.0000 H   0  0  0  0  0  0  0  0  0  0  0  0
    4.0375   -1.0408    0.0000 H   0  0  0  0  0  0  0  0  0  0  0  0
    5.7171   -2.8076    0.0000 H   0  0  0  0  0  0  0  0  0  0  0  0
    5.4298   -2.0103    0.0000 H   0  0  0  0  0  0  0  0  0  0  0  0
    4.9022   -0.9519    0.0000 H   0  0  0  0  0  0  0  0  0  0  0  0
    8.2417   -1.0913    0.0000 H   0  0  0  0  0  0  0  0  0  0  0  0
    4.6689    3.8045    0.0000 H   0  0  0  0  0  0  0  0  0  0  0  0
    4.7977   -3.2036    0.0000 H   0  0  0  0  0  0  0  0  0  0  0  0
    3.6402   -1.9613    0.0000 H   0  0  0  0  0  0  0  0  0  0  0  0
    8.7512   -2.4684    0.0000 H   0  0  0  0  0  0  0  0  0  0  0  0
    8.8916   -3.3339    0.0000 H   0  0  0  0  0  0  0  0  0  0  0  0
    8.0262   -3.4744    0.0000 H   0  0  0  0  0  0  0  0  0  0  0  0
  8  1  1  6  0  0  0
  1 12  1  0  0  0  0
  2 10  1  0  0  0  0
  2 14  1  0  0  0  0
 13  3  1  6  0  0  0
  3 36  1  0  0  0  0
 16  4  1  1  0  0  0
  4 37  1  0  0  0  0
  5 17  1  0  0  0  0
  5 38  1  0  0  0  0
  6 19  2  0  0  0  0
  7  8  1  0  0  0  0
  7  9  1  0  0  0  0
  7 11  1  0  0  0  0
  7 15  1  1  0  0  0
  8 10  1  0  0  0  0
  8 12  1  0  0  0  0
  9 14  1  0  0  0  0
  9 16  1  0  0  0  0
  9 17  1  1  0  0  0
 10 13  1  0  0  0  0
 10 22  1  6  0  0  0
 11 13  1  0  0  0  0
 11 23  1  0  0  0  0
 11 24  1  0  0  0  0
 12 25  1  0  0  0  0
 12 26  1  0  0  0  0
 13 27  1  0  0  0  0
 14 18  1  0  0  0  0
 14 28  1  1  0  0  0
 15 29  1  0  0  0  0
 15 30  1  0  0  0  0
 15 31  1  0  0  0  0
 16 19  1  0  0  0  0
 16 32  1  0  0  0  0
 17 33  1  0  0  0  0
 17 34  1  0  0  0  0
 18 20  2  0  0  0  0
 18 35  1  0  0  0  0
 19 20  1  0  0  0  0
 20 21  1  0  0  0  0
 21 39  1  0  0  0  0
 21 40  1  0  0  0  0
 21 41  1  0  0  0  0
M  END
> <PUBCHEM_COMPOUND_CID>
442408

> <PUBCHEM_COMPOUND_CANONICALIZED>
1

> <PUBCHEM_CACTVS_COMPLEXITY>
558

> <PUBCHEM_CACTVS_HBOND_ACCEPTOR>
6

> <PUBCHEM_CACTVS_HBOND_DONOR>
3

> <PUBCHEM_CACTVS_ROTATABLE_BOND>
1

> <PUBCHEM_CACTVS_SUBSKEYS>
AAADceBwOAAAAAAAAAAAAAAAEgAAAYAAAAAkQAAABIAAAACAAAAAGgAACAAADlSggAICAAAABgCIAqBSAAIAAAAgAAAACAFAAEgBFBIAIQACUAAFwAALIYPK7PzPgAAAAAAAAAAAAAAAAAAAAIQADCAAAA==

> <PUBCHEM_IUPAC_INCHI>
InChI=1S/C15H20O6/c1-7-3-9-14(5-16,11(19)10(7)18)13(2)4-8(17)12(21-9)15(13)6-20-15/h3,8-9,11-12,16-17,19H,4-6H2,1-2H3/t8-,9-,11-,12-,13-,14-,15-/m1/s1

> <PUBCHEM_IUPAC_INCHIKEY>
LINOMUASTDIRTM-LZTLOYDTSA-N

> <PUBCHEM_XLOGP3_AA>
-0.7

> <PUBCHEM_EXACT_MASS>
296.125988

> <PUBCHEM_MOLECULAR_FORMULA>
C15H20O6

> <PUBCHEM_MOLECULAR_WEIGHT>
296.3157

> <PUBCHEM_OPENEYE_CAN_SMILES>
CC1=CC2C(C(C1=O)O)(C3(CC(C(C34CO4)O2)O)C)CO

> <PUBCHEM_OPENEYE_ISO_SMILES>
CC1=C[C@@H]2[C@]([C@@H](C1=O)O)([C@]3(C[C@H]([C@H]([C@]34CO4)O2)O)C)CO

> <PUBCHEM_CACTVS_TPSA>
99.5

> <PUBCHEM_MONOISOTOPIC_WEIGHT>
296.125988

> <PUBCHEM_TOTAL_CHARGE>
0

> <PUBCHEM_HEAVY_ATOM_COUNT>
21

> <PUBCHEM_ATOM_DEF_STEREO_COUNT>
7

> <PUBCHEM_ATOM_UDEF_STEREO_COUNT>
0

> <PUBCHEM_BOND_DEF_STEREO_COUNT>
0

> <PUBCHEM_BOND_UDEF_STEREO_COUNT>
0

> <PUBCHEM_ISOTOPIC_ATOM_COUNT>
0

> <PUBCHEM_COMPONENT_COUNT>
1

> <PUBCHEM_CACTVS_TAUTO_COUNT>
8

> <PUBCHEM_COORDINATE_TYPE>
1
5
255

> <PUBCHEM_BONDANNOTATIONS>
8  1  6
10  22  6
14  28  5
13  3  6
16  4  5
7  15  5
9  17  5

$$$$

