17396537
  -OEChem-06241222572D

 41 41  0     1  0  0  0  0  0999 V2000
    6.6381   -0.5387    0.0000 O   0  0  0  0  0  0  0  0  0  0  0  0
    2.5878    2.4040    0.0000 O   0  0  0  0  0  0  0  0  0  0  0  0
    7.1733    1.1086    0.0000 O   0  0  0  0  0  0  0  0  0  0  0  0
    3.9890    3.4221    0.0000 O   0  0  0  0  0  0  0  0  0  0  0  0
    7.0539   -2.4950    0.0000 O   0  0  0  0  0  0  0  0  0  0  0  0
    4.6701    0.1607    0.0000 N   0  0  0  0  0  0  0  0  0  0  0  0
    8.7481   -2.1349    0.0000 N   0  0  0  0  0  0  0  0  0  0  0  0
    5.1701    1.6995    0.0000 C   0  0  0  0  0  0  0  0  0  0  0  0
    5.4791    0.7484    0.0000 C   0  0  0  0  0  0  0  0  0  0  0  0
    4.1701    1.6995    0.0000 C   0  0  0  0  0  0  0  0  0  0  0  0
    3.8611    0.7484    0.0000 C   0  0  0  0  0  0  0  0  0  0  0  0
    7.5891   -0.8477    0.0000 C   0  0  3  0  0  0  0  0  0  0  0  0
    5.7579    2.5085    0.0000 C   0  0  0  0  0  0  0  0  0  0  0  0
    6.4302    0.4394    0.0000 C   0  0  0  0  0  0  0  0  0  0  0  0
    2.9100    0.4394    0.0000 C   0  0  0  0  0  0  0  0  0  0  0  0
    3.5823    2.5085    0.0000 C   0  0  0  0  0  0  0  0  0  0  0  0
    7.7970   -1.8259    0.0000 C   0  0  0  0  0  0  0  0  0  0  0  0
    8.3323   -0.1786    0.0000 C   0  0  0  0  0  0  0  0  0  0  0  0
    8.9560   -3.1130    0.0000 C   0  0  0  0  0  0  0  0  0  0  0  0
    9.9071   -3.4221    0.0000 C   0  0  0  0  0  0  0  0  0  0  0  0
    2.0000    3.2130    0.0000 C   0  0  0  0  0  0  0  0  0  0  0  0
    4.6701   -0.4593    0.0000 H   0  0  0  0  0  0  0  0  0  0  0  0
    7.4602   -0.2413    0.0000 H   0  0  0  0  0  0  0  0  0  0  0  0
    6.2595    2.1441    0.0000 H   0  0  0  0  0  0  0  0  0  0  0  0
    6.1223    3.0101    0.0000 H   0  0  0  0  0  0  0  0  0  0  0  0
    5.2563    2.8730    0.0000 H   0  0  0  0  0  0  0  0  0  0  0  0
    2.7184    1.0291    0.0000 H   0  0  0  0  0  0  0  0  0  0  0  0
    2.3204    0.2478    0.0000 H   0  0  0  0  0  0  0  0  0  0  0  0
    3.1016   -0.1502    0.0000 H   0  0  0  0  0  0  0  0  0  0  0  0
    8.7471   -0.6394    0.0000 H   0  0  0  0  0  0  0  0  0  0  0  0
    8.7930    0.2363    0.0000 H   0  0  0  0  0  0  0  0  0  0  0  0
    7.9174    0.2821    0.0000 H   0  0  0  0  0  0  0  0  0  0  0  0
    9.2088   -1.7200    0.0000 H   0  0  0  0  0  0  0  0  0  0  0  0
    8.3364   -3.1347    0.0000 H   0  0  0  0  0  0  0  0  0  0  0  0
    8.8697   -3.7270    0.0000 H   0  0  0  0  0  0  0  0  0  0  0  0
    9.7155   -4.0117    0.0000 H   0  0  0  0  0  0  0  0  0  0  0  0
   10.4967   -3.6137    0.0000 H   0  0  0  0  0  0  0  0  0  0  0  0
   10.0987   -2.8324    0.0000 H   0  0  0  0  0  0  0  0  0  0  0  0
    2.5016    3.5774    0.0000 H   0  0  0  0  0  0  0  0  0  0  0  0
    1.6356    3.7146    0.0000 H   0  0  0  0  0  0  0  0  0  0  0  0
    1.4984    2.8486    0.0000 H   0  0  0  0  0  0  0  0  0  0  0  0
  1 12  1  0  0  0  0
  1 14  1  0  0  0  0
  2 16  1  0  0  0  0
  2 21  1  0  0  0  0
  3 14  2  0  0  0  0
  4 16  2  0  0  0  0
  5 17  2  0  0  0  0
  6  9  1  0  0  0  0
  6 11  1  0  0  0  0
  6 22  1  0  0  0  0
  7 17  1  0  0  0  0
  7 19  1  0  0  0  0
  7 33  1  0  0  0  0
  8  9  2  0  0  0  0
  8 10  1  0  0  0  0
  8 13  1  0  0  0  0
  9 14  1  0  0  0  0
 10 11  2  0  0  0  0
 10 16  1  0  0  0  0
 11 15  1  0  0  0  0
 12 17  1  0  0  0  0
 12 18  1  0  0  0  0
 12 23  1  0  0  0  0
 13 24  1  0  0  0  0
 13 25  1  0  0  0  0
 13 26  1  0  0  0  0
 15 27  1  0  0  0  0
 15 28  1  0  0  0  0
 15 29  1  0  0  0  0
 18 30  1  0  0  0  0
 18 31  1  0  0  0  0
 18 32  1  0  0  0  0
 19 20  1  0  0  0  0
 19 34  1  0  0  0  0
 19 35  1  0  0  0  0
 20 36  1  0  0  0  0
 20 37  1  0  0  0  0
 20 38  1  0  0  0  0
 21 39  1  0  0  0  0
 21 40  1  0  0  0  0
 21 41  1  0  0  0  0
M  END
> <PUBCHEM_COMPOUND_CID>
17396537

> <PUBCHEM_COMPOUND_CANONICALIZED>
1

> <PUBCHEM_CACTVS_COMPLEXITY>
412

> <PUBCHEM_CACTVS_HBOND_ACCEPTOR>
5

> <PUBCHEM_CACTVS_HBOND_DONOR>
2

> <PUBCHEM_CACTVS_ROTATABLE_BOND>
7

> <PUBCHEM_CACTVS_SUBSKEYS>
AAADceBzOAAAAAAAAAAAAAAAAAAAAWAAAAAAAAAAAAAAAAABgAAAHgAQAAAADBzhngYCiJLJlACoAwXwXAaCgCAnACAAmaH4TNgKJnrAtL2HEYhm1gHY6Ue8fwkegAAAAAAAAAAAAAAAAAAAAAAAAAAAAA==

> <PUBCHEM_IUPAC_OPENEYE_NAME>
O2-[2-(ethylamino)-1-methyl-2-oxo-ethyl] O4-methyl 3,5-dimethyl-1H-pyrrole-2,4-dicarboxylate

> <PUBCHEM_IUPAC_CAS_NAME>
3,5-dimethyl-1H-pyrrole-2,4-dicarboxylic acid O2-[1-(ethylamino)-1-oxopropan-2-yl] ester O4-methyl ester

> <PUBCHEM_IUPAC_NAME>
2-O-[1-(ethylamino)-1-oxopropan-2-yl] 4-O-methyl 3,5-dimethyl-1H-pyrrole-2,4-dicarboxylate

> <PUBCHEM_IUPAC_SYSTEMATIC_NAME>
O2-[1-(ethylamino)-1-oxidanylidene-propan-2-yl] O4-methyl 3,5-dimethyl-1H-pyrrole-2,4-dicarboxylate

> <PUBCHEM_IUPAC_TRADITIONAL_NAME>
3,5-dimethyl-1H-pyrrole-2,4-dicarboxylic acid O2-[2-(ethylamino)-2-keto-1-methyl-ethyl] ester O4-methyl ester

> <PUBCHEM_IUPAC_INCHI>
InChI=1S/C14H20N2O5/c1-6-15-12(17)9(4)21-14(19)11-7(2)10(8(3)16-11)13(18)20-5/h9,16H,6H2,1-5H3,(H,15,17)

> <PUBCHEM_IUPAC_INCHIKEY>
QXIWPLILPAVCCK-UHFFFAOYSA-N

> <PUBCHEM_XLOGP3_AA>
1.6

> <PUBCHEM_EXACT_MASS>
296.137222

> <PUBCHEM_MOLECULAR_FORMULA>
C14H20N2O5

> <PUBCHEM_MOLECULAR_WEIGHT>
296.319

> <PUBCHEM_OPENEYE_CAN_SMILES>
CCNC(=O)C(C)OC(=O)C1=C(C(=C(N1)C)C(=O)OC)C

> <PUBCHEM_OPENEYE_ISO_SMILES>
CCNC(=O)C(C)OC(=O)C1=C(C(=C(N1)C)C(=O)OC)C

> <PUBCHEM_CACTVS_TPSA>
97.5

> <PUBCHEM_MONOISOTOPIC_WEIGHT>
296.137222

> <PUBCHEM_TOTAL_CHARGE>
0

> <PUBCHEM_HEAVY_ATOM_COUNT>
21

> <PUBCHEM_ATOM_DEF_STEREO_COUNT>
0

> <PUBCHEM_ATOM_UDEF_STEREO_COUNT>
1

> <PUBCHEM_BOND_DEF_STEREO_COUNT>
0

> <PUBCHEM_BOND_UDEF_STEREO_COUNT>
0

> <PUBCHEM_ISOTOPIC_ATOM_COUNT>
0

> <PUBCHEM_COMPONENT_COUNT>
1

> <PUBCHEM_CACTVS_TAUTO_COUNT>
20

> <PUBCHEM_COORDINATE_TYPE>
1
5
255

> <PUBCHEM_BONDANNOTATIONS>
10  11  8
12  18  3
6  11  8
6  9  8
8  10  8
8  9  8

$$$$

