5284271
  -OEChem-07051212502D

 76 79  0     1  0  0  0  0  0999 V2000
    6.5271    1.1692    0.0000 O   0  0  0  0  0  0  0  0  0  0  0  0
    7.4149   -3.3623    0.0000 O   0  0  0  0  0  0  0  0  0  0  0  0
    2.0000   -3.3831    0.0000 O   0  0  0  0  0  0  0  0  0  0  0  0
    7.3931   -0.3308    0.0000 C   0  0  1  0  0  0  0  0  0  0  0  0
    7.3931   -1.3308    0.0000 C   0  0  2  0  0  0  0  0  0  0  0  0
    6.5271   -1.8308    0.0000 C   0  0  1  0  0  0  0  0  0  0  0  0
    5.6610   -1.3308    0.0000 C   0  0  1  0  0  0  0  0  0  0  0  0
    4.7510   -1.8376    0.0000 C   0  0  2  0  0  0  0  0  0  0  0  0
    8.3393   -0.0261    0.0000 C   0  0  2  0  0  0  0  0  0  0  0  0
    6.5271    0.1692    0.0000 C   0  0  2  0  0  0  0  0  0  0  0  0
    5.6610   -0.3308    0.0000 C   0  0  0  0  0  0  0  0  0  0  0  0
    8.3393   -1.6355    0.0000 C   0  0  0  0  0  0  0  0  0  0  0  0
    4.7430   -2.8792    0.0000 C   0  0  2  0  0  0  0  0  0  0  0  0
    6.5431   -2.8723    0.0000 C   0  0  1  0  0  0  0  0  0  0  0  0
    8.9229   -0.8308    0.0000 C   0  0  0  0  0  0  0  0  0  0  0  0
    5.6451   -3.4001    0.0000 C   0  0  0  0  0  0  0  0  0  0  0  0
    7.3931    0.6692    0.0000 C   0  0  0  0  0  0  0  0  0  0  0  0
    3.8242   -1.2736    0.0000 C   0  0  0  0  0  0  0  0  0  0  0  0
    8.6500    0.9244    0.0000 C   0  0  1  0  0  0  0  0  0  0  0  0
    4.7587   -0.8377    0.0000 C   0  0  0  0  0  0  0  0  0  0  0  0
    3.8076   -3.4290    0.0000 C   0  0  0  0  0  0  0  0  0  0  0  0
    2.8763   -1.8015    0.0000 C   0  0  0  0  0  0  0  0  0  0  0  0
    2.8680   -2.8865    0.0000 C   0  0  0  0  0  0  0  0  0  0  0  0
    9.6285    1.1307    0.0000 C   0  0  0  0  0  0  0  0  0  0  0  0
    7.9821    1.6688    0.0000 C   0  0  0  0  0  0  0  0  0  0  0  0
    9.9391    2.0812    0.0000 C   0  0  0  0  0  0  0  0  0  0  0  0
   10.9176    2.2874    0.0000 C   0  0  0  0  0  0  0  0  0  0  0  0
   11.2283    3.2379    0.0000 C   0  0  0  0  0  0  0  0  0  0  0  0
   12.2068    3.4441    0.0000 C   0  0  0  0  0  0  0  0  0  0  0  0
   10.5605    3.9822    0.0000 C   0  0  0  0  0  0  0  0  0  0  0  0
    7.4830   -2.1760    0.0000 H   0  0  0  0  0  0  0  0  0  0  0  0
    7.2664   -2.2501    0.0000 H   0  0  0  0  0  0  0  0  0  0  0  0
    6.3972   -0.9058    0.0000 H   0  0  0  0  0  0  0  0  0  0  0  0
    9.1790    0.1058    0.0000 H   0  0  0  0  0  0  0  0  0  0  0  0
    7.0640    0.4792    0.0000 H   0  0  0  0  0  0  0  0  0  0  0  0
    5.4490    0.2518    0.0000 H   0  0  0  0  0  0  0  0  0  0  0  0
    5.0504   -0.4385    0.0000 H   0  0  0  0  0  0  0  0  0  0  0  0
    8.0883   -2.2024    0.0000 H   0  0  0  0  0  0  0  0  0  0  0  0
    8.8767   -1.9448    0.0000 H   0  0  0  0  0  0  0  0  0  0  0  0
    4.7463   -3.7292    0.0000 H   0  0  0  0  0  0  0  0  0  0  0  0
    6.5491   -3.4923    0.0000 H   0  0  0  0  0  0  0  0  0  0  0  0
    9.3838   -1.2455    0.0000 H   0  0  0  0  0  0  0  0  0  0  0  0
    9.3838   -0.4161    0.0000 H   0  0  0  0  0  0  0  0  0  0  0  0
    5.2478   -3.8760    0.0000 H   0  0  0  0  0  0  0  0  0  0  0  0
    6.0460   -3.8730    0.0000 H   0  0  0  0  0  0  0  0  0  0  0  0
    8.0131    0.6692    0.0000 H   0  0  0  0  0  0  0  0  0  0  0  0
    7.3931    1.2892    0.0000 H   0  0  0  0  0  0  0  0  0  0  0  0
    6.7731    0.6692    0.0000 H   0  0  0  0  0  0  0  0  0  0  0  0
    4.2324   -0.8069    0.0000 H   0  0  0  0  0  0  0  0  0  0  0  0
    3.4343   -0.7915    0.0000 H   0  0  0  0  0  0  0  0  0  0  0  0
    8.0433    0.7966    0.0000 H   0  0  0  0  0  0  0  0  0  0  0  0
    5.3787   -0.8425    0.0000 H   0  0  0  0  0  0  0  0  0  0  0  0
    4.7635   -0.2177    0.0000 H   0  0  0  0  0  0  0  0  0  0  0  0
    4.1388   -0.8329    0.0000 H   0  0  0  0  0  0  0  0  0  0  0  0
    3.4103   -3.9050    0.0000 H   0  0  0  0  0  0  0  0  0  0  0  0
    4.2085   -3.9019    0.0000 H   0  0  0  0  0  0  0  0  0  0  0  0
    2.6718   -1.2162    0.0000 H   0  0  0  0  0  0  0  0  0  0  0  0
    2.2647   -1.9029    0.0000 H   0  0  0  0  0  0  0  0  0  0  0  0
    5.9901    1.4792    0.0000 H   0  0  0  0  0  0  0  0  0  0  0  0
    9.6490    0.5110    0.0000 H   0  0  0  0  0  0  0  0  0  0  0  0
   10.2423    1.0433    0.0000 H   0  0  0  0  0  0  0  0  0  0  0  0
    7.4220   -3.9822    0.0000 H   0  0  0  0  0  0  0  0  0  0  0  0
    8.4436    2.0828    0.0000 H   0  0  0  0  0  0  0  0  0  0  0  0
    7.5681    2.1302    0.0000 H   0  0  0  0  0  0  0  0  0  0  0  0
    7.5207    1.2547    0.0000 H   0  0  0  0  0  0  0  0  0  0  0  0
    9.9186    2.7008    0.0000 H   0  0  0  0  0  0  0  0  0  0  0  0
    9.3253    2.1685    0.0000 H   0  0  0  0  0  0  0  0  0  0  0  0
   10.9382    1.6677    0.0000 H   0  0  0  0  0  0  0  0  0  0  0  0
   11.5315    2.2000    0.0000 H   0  0  0  0  0  0  0  0  0  0  0  0
   11.4209    3.8272    0.0000 H   0  0  0  0  0  0  0  0  0  0  0  0
   12.3347    2.8375    0.0000 H   0  0  0  0  0  0  0  0  0  0  0  0
   11.0219    4.3963    0.0000 H   0  0  0  0  0  0  0  0  0  0  0  0
   12.8135    3.5720    0.0000 H   0  0  0  0  0  0  0  0  0  0  0  0
   12.0790    4.0508    0.0000 H   0  0  0  0  0  0  0  0  0  0  0  0
   10.1464    4.4437    0.0000 H   0  0  0  0  0  0  0  0  0  0  0  0
   10.0990    3.5682    0.0000 H   0  0  0  0  0  0  0  0  0  0  0  0
 10  1  1  6  0  0  0
  1 59  1  0  0  0  0
 14  2  1  6  0  0  0
  2 62  1  0  0  0  0
  3 23  2  0  0  0  0
  4  5  1  0  0  0  0
  4  9  1  0  0  0  0
  4 10  1  0  0  0  0
  4 17  1  1  0  0  0
  5  6  1  0  0  0  0
  5 12  1  0  0  0  0
  5 31  1  6  0  0  0
  6  7  1  0  0  0  0
  6 14  1  0  0  0  0
  6 32  1  1  0  0  0
  7  8  1  0  0  0  0
  7 11  1  0  0  0  0
  7 33  1  6  0  0  0
  8 13  1  0  0  0  0
  8 18  1  0  0  0  0
  8 20  1  1  0  0  0
  9 15  1  0  0  0  0
  9 19  1  0  0  0  0
  9 34  1  6  0  0  0
 10 11  1  0  0  0  0
 10 35  1  0  0  0  0
 11 36  1  0  0  0  0
 11 37  1  0  0  0  0
 12 15  1  0  0  0  0
 12 38  1  0  0  0  0
 12 39  1  0  0  0  0
 13 16  1  0  0  0  0
 13 21  1  0  0  0  0
 13 40  1  1  0  0  0
 14 16  1  0  0  0  0
 14 41  1  0  0  0  0
 15 42  1  0  0  0  0
 15 43  1  0  0  0  0
 16 44  1  0  0  0  0
 16 45  1  0  0  0  0
 17 46  1  0  0  0  0
 17 47  1  0  0  0  0
 17 48  1  0  0  0  0
 18 22  1  0  0  0  0
 18 49  1  0  0  0  0
 18 50  1  0  0  0  0
 19 24  1  0  0  0  0
 19 25  1  6  0  0  0
 19 51  1  0  0  0  0
 20 52  1  0  0  0  0
 20 53  1  0  0  0  0
 20 54  1  0  0  0  0
 21 23  1  0  0  0  0
 21 55  1  0  0  0  0
 21 56  1  0  0  0  0
 22 23  1  0  0  0  0
 22 57  1  0  0  0  0
 22 58  1  0  0  0  0
 24 26  1  0  0  0  0
 24 60  1  0  0  0  0
 24 61  1  0  0  0  0
 25 63  1  0  0  0  0
 25 64  1  0  0  0  0
 25 65  1  0  0  0  0
 26 27  1  0  0  0  0
 26 66  1  0  0  0  0
 26 67  1  0  0  0  0
 27 28  1  0  0  0  0
 27 68  1  0  0  0  0
 27 69  1  0  0  0  0
 28 29  1  0  0  0  0
 28 30  1  0  0  0  0
 28 70  1  0  0  0  0
 29 71  1  0  0  0  0
 29 73  1  0  0  0  0
 29 74  1  0  0  0  0
 30 72  1  0  0  0  0
 30 75  1  0  0  0  0
 30 76  1  0  0  0  0
M  END
> <PUBCHEM_COMPOUND_CID>
5284271

> <PUBCHEM_COMPOUND_CANONICALIZED>
1

> <PUBCHEM_CACTVS_COMPLEXITY>
644

> <PUBCHEM_CACTVS_HBOND_ACCEPTOR>
3

> <PUBCHEM_CACTVS_HBOND_DONOR>
2

> <PUBCHEM_CACTVS_ROTATABLE_BOND>
5

> <PUBCHEM_CACTVS_SUBSKEYS>
AAADcfB4MAAAAAAAAAAAAAAAAAAAAYAAAAAwYMAAAAAAAGDAAAAAGgAACAAADxSggAICAAAAAgAIAIAQAAAAAAAAAAAAAAEAAAAAEBIAAAAAQAAEAAAAAAGI7PTPgAAAAAAAAADAAAYAADAAAQAACAAAAA==

> <PUBCHEM_IUPAC_OPENEYE_NAME>
(5R,7R,8R,9S,10S,12S,13R,14S,17R)-17-[(1R)-1,5-dimethylhexyl]-7,12-dihydroxy-10,13-dimethyl-1,2,4,5,6,7,8,9,11,12,14,15,16,17-tetradecahydrocyclopenta[a]phenanthren-3-one

> <PUBCHEM_IUPAC_CAS_NAME>
(5R,7R,8R,9S,10S,12S,13R,14S,17R)-7,12-dihydroxy-10,13-dimethyl-17-[(2R)-6-methylheptan-2-yl]-1,2,4,5,6,7,8,9,11,12,14,15,16,17-tetradecahydrocyclopenta[a]phenanthren-3-one

> <PUBCHEM_IUPAC_NAME>
(5R,7R,8R,9S,10S,12S,13R,14S,17R)-7,12-dihydroxy-10,13-dimethyl-17-[(2R)-6-methylheptan-2-yl]-1,2,4,5,6,7,8,9,11,12,14,15,16,17-tetradecahydrocyclopenta[a]phenanthren-3-one

> <PUBCHEM_IUPAC_SYSTEMATIC_NAME>
(5R,7R,8R,9S,10S,12S,13R,14S,17R)-10,13-dimethyl-17-[(2R)-6-methylheptan-2-yl]-7,12-bis(oxidanyl)-1,2,4,5,6,7,8,9,11,12,14,15,16,17-tetradecahydrocyclopenta[a]phenanthren-3-one

> <PUBCHEM_IUPAC_TRADITIONAL_NAME>
(5R,7R,8R,9S,10S,12S,13R,14S,17R)-17-[(1R)-1,5-dimethylhexyl]-7,12-dihydroxy-10,13-dimethyl-1,2,4,5,6,7,8,9,11,12,14,15,16,17-tetradecahydrocyclopenta[a]phenanthren-3-one

> <PUBCHEM_IUPAC_INCHI>
InChI=1S/C27H46O3/c1-16(2)7-6-8-17(3)20-9-10-21-25-22(15-24(30)27(20,21)5)26(4)12-11-19(28)13-18(26)14-23(25)29/h16-18,20-25,29-30H,6-15H2,1-5H3/t17-,18+,20-,21+,22+,23-,24+,25+,26+,27-/m1/s1

> <PUBCHEM_IUPAC_INCHIKEY>
HHVQPBXBALLUDF-QORHGLQKSA-N

> <PUBCHEM_XLOGP3_AA>
6.3

> <PUBCHEM_EXACT_MASS>
418.344695

> <PUBCHEM_MOLECULAR_FORMULA>
C27H46O3

> <PUBCHEM_MOLECULAR_WEIGHT>
418.65234

> <PUBCHEM_OPENEYE_CAN_SMILES>
CC(C)CCCC(C)C1CCC2C1(C(CC3C2C(CC4C3(CCC(=O)C4)C)O)O)C

> <PUBCHEM_OPENEYE_ISO_SMILES>
C[C@H](CCCC(C)C)[C@H]1CC[C@@H]2[C@@]1([C@H](C[C@H]3[C@H]2[C@@H](C[C@H]4[C@@]3(CCC(=O)C4)C)O)O)C

> <PUBCHEM_CACTVS_TPSA>
57.5

> <PUBCHEM_MONOISOTOPIC_WEIGHT>
418.344695

> <PUBCHEM_TOTAL_CHARGE>
0

> <PUBCHEM_HEAVY_ATOM_COUNT>
30

> <PUBCHEM_ATOM_DEF_STEREO_COUNT>
10

> <PUBCHEM_ATOM_UDEF_STEREO_COUNT>
0

> <PUBCHEM_BOND_DEF_STEREO_COUNT>
0

> <PUBCHEM_BOND_UDEF_STEREO_COUNT>
0

> <PUBCHEM_ISOTOPIC_ATOM_COUNT>
0

> <PUBCHEM_COMPONENT_COUNT>
1

> <PUBCHEM_CACTVS_TAUTO_COUNT>
3

> <PUBCHEM_COORDINATE_TYPE>
1
5
255

> <PUBCHEM_BONDANNOTATIONS>
10  1  6
13  40  5
19  25  6
14  2  6
4  17  5
5  31  6
6  32  5
7  33  6
8  20  5
9  34  6

$$$$

