17396321
  -OEChem-06241222552D

 33 35  0     0  0  0  0  0  0999 V2000
    4.3968   -0.3666    0.0000 S   0  0  0  0  0  0  0  0  0  0  0  0
    3.6180   -4.6656    0.0000 S   0  0  0  0  0  0  0  0  0  0  0  0
    4.3968    4.6334    0.0000 O   0  0  0  0  0  0  0  0  0  0  0  0
    4.8968   -2.9055    0.0000 N   0  0  0  0  0  0  0  0  0  0  0  0
    3.5878   -1.9544    0.0000 N   0  0  0  0  0  0  0  0  0  0  0  0
    5.2058   -1.9544    0.0000 N   0  0  0  0  0  0  0  0  0  0  0  0
    6.1288    4.6334    0.0000 N   0  0  0  0  0  0  0  0  0  0  0  0
    5.2628    1.1334    0.0000 C   0  0  0  0  0  0  0  0  0  0  0  0
    5.2628    0.1334    0.0000 C   0  0  0  0  0  0  0  0  0  0  0  0
    6.1288    1.6334    0.0000 C   0  0  0  0  0  0  0  0  0  0  0  0
    4.3968    1.6334    0.0000 C   0  0  0  0  0  0  0  0  0  0  0  0
    5.2628    3.1334    0.0000 C   0  0  0  0  0  0  0  0  0  0  0  0
    6.1288    2.6334    0.0000 C   0  0  0  0  0  0  0  0  0  0  0  0
    4.3968    2.6334    0.0000 C   0  0  0  0  0  0  0  0  0  0  0  0
    3.8968   -2.9055    0.0000 C   0  0  0  0  0  0  0  0  0  0  0  0
    3.3090   -3.7145    0.0000 C   0  0  0  0  0  0  0  0  0  0  0  0
    4.3968   -1.3666    0.0000 C   0  0  0  0  0  0  0  0  0  0  0  0
    2.3090   -3.7145    0.0000 C   0  0  0  0  0  0  0  0  0  0  0  0
    5.2628    4.1334    0.0000 C   0  0  0  0  0  0  0  0  0  0  0  0
    2.0000   -4.6656    0.0000 C   0  0  0  0  0  0  0  0  0  0  0  0
    2.8090   -5.2534    0.0000 C   0  0  0  0  0  0  0  0  0  0  0  0
    5.4749   -0.4493    0.0000 H   0  0  0  0  0  0  0  0  0  0  0  0
    5.8734    0.2410    0.0000 H   0  0  0  0  0  0  0  0  0  0  0  0
    6.6658    1.3234    0.0000 H   0  0  0  0  0  0  0  0  0  0  0  0
    3.8599    1.3234    0.0000 H   0  0  0  0  0  0  0  0  0  0  0  0
    6.6658    2.9434    0.0000 H   0  0  0  0  0  0  0  0  0  0  0  0
    3.8599    2.9434    0.0000 H   0  0  0  0  0  0  0  0  0  0  0  0
    5.2612   -3.4071    0.0000 H   0  0  0  0  0  0  0  0  0  0  0  0
    1.9446   -3.2129    0.0000 H   0  0  0  0  0  0  0  0  0  0  0  0
    1.4103   -4.8572    0.0000 H   0  0  0  0  0  0  0  0  0  0  0  0
    2.8090   -5.8734    0.0000 H   0  0  0  0  0  0  0  0  0  0  0  0
    6.1288    5.2534    0.0000 H   0  0  0  0  0  0  0  0  0  0  0  0
    6.6658    4.3233    0.0000 H   0  0  0  0  0  0  0  0  0  0  0  0
  1  9  1  0  0  0  0
  1 17  1  0  0  0  0
  2 16  1  0  0  0  0
  2 21  1  0  0  0  0
  3 19  2  0  0  0  0
  4  6  1  0  0  0  0
  4 15  1  0  0  0  0
  4 28  1  0  0  0  0
  5 15  2  0  0  0  0
  5 17  1  0  0  0  0
  6 17  2  0  0  0  0
  7 19  1  0  0  0  0
  7 32  1  0  0  0  0
  7 33  1  0  0  0  0
  8  9  1  0  0  0  0
  8 10  2  0  0  0  0
  8 11  1  0  0  0  0
  9 22  1  0  0  0  0
  9 23  1  0  0  0  0
 10 13  1  0  0  0  0
 10 24  1  0  0  0  0
 11 14  2  0  0  0  0
 11 25  1  0  0  0  0
 12 13  2  0  0  0  0
 12 14  1  0  0  0  0
 12 19  1  0  0  0  0
 13 26  1  0  0  0  0
 14 27  1  0  0  0  0
 15 16  1  0  0  0  0
 16 18  2  0  0  0  0
 18 20  1  0  0  0  0
 18 29  1  0  0  0  0
 20 21  2  0  0  0  0
 20 30  1  0  0  0  0
 21 31  1  0  0  0  0
M  END
> <PUBCHEM_COMPOUND_CID>
17396321

> <PUBCHEM_COMPOUND_CANONICALIZED>
1

> <PUBCHEM_CACTVS_COMPLEXITY>
363

> <PUBCHEM_CACTVS_HBOND_ACCEPTOR>
5

> <PUBCHEM_CACTVS_HBOND_DONOR>
2

> <PUBCHEM_CACTVS_ROTATABLE_BOND>
5

> <PUBCHEM_CACTVS_SUBSKEYS>
AAADccBzoABgAAAAAAAAAAAAAAAAAWJAAAAwAAAAAAAAAAAB8AAAHgQYAAAADACF2wCxEYZrEAiuAiNyNACT0IvkCLBdqDkgBNiIKLKgnRGEIQhgiAIoiYcYiACOQAAAAAAAAACAAAAAAAAAAAAAAAAAAA==

> <PUBCHEM_IUPAC_OPENEYE_NAME>
4-[[5-(2-thienyl)-1H-1,2,4-triazol-3-yl]sulfanylmethyl]benzamide

> <PUBCHEM_IUPAC_CAS_NAME>
4-[[(5-thiophen-2-yl-1H-1,2,4-triazol-3-yl)thio]methyl]benzamide

> <PUBCHEM_IUPAC_NAME>
4-[(5-thiophen-2-yl-1H-1,2,4-triazol-3-yl)sulfanylmethyl]benzamide

> <PUBCHEM_IUPAC_SYSTEMATIC_NAME>
4-[(5-thiophen-2-yl-1H-1,2,4-triazol-3-yl)sulfanylmethyl]benzamide

> <PUBCHEM_IUPAC_TRADITIONAL_NAME>
4-[[[5-(2-thienyl)-1H-1,2,4-triazol-3-yl]thio]methyl]benzamide

> <PUBCHEM_IUPAC_INCHI>
InChI=1S/C14H12N4OS2/c15-12(19)10-5-3-9(4-6-10)8-21-14-16-13(17-18-14)11-2-1-7-20-11/h1-7H,8H2,(H2,15,19)(H,16,17,18)

> <PUBCHEM_IUPAC_INCHIKEY>
JCGXDLNXWBQSRL-UHFFFAOYSA-N

> <PUBCHEM_XLOGP3_AA>
2.6

> <PUBCHEM_EXACT_MASS>
316.045253

> <PUBCHEM_MOLECULAR_FORMULA>
C14H12N4OS2

> <PUBCHEM_MOLECULAR_WEIGHT>
316.40128

> <PUBCHEM_OPENEYE_CAN_SMILES>
C1=CSC(=C1)C2=NC(=NN2)SCC3=CC=C(C=C3)C(=O)N

> <PUBCHEM_OPENEYE_ISO_SMILES>
C1=CSC(=C1)C2=NC(=NN2)SCC3=CC=C(C=C3)C(=O)N

> <PUBCHEM_CACTVS_TPSA>
138

> <PUBCHEM_MONOISOTOPIC_WEIGHT>
316.045253

> <PUBCHEM_TOTAL_CHARGE>
0

> <PUBCHEM_HEAVY_ATOM_COUNT>
21

> <PUBCHEM_ATOM_DEF_STEREO_COUNT>
0

> <PUBCHEM_ATOM_UDEF_STEREO_COUNT>
0

> <PUBCHEM_BOND_DEF_STEREO_COUNT>
0

> <PUBCHEM_BOND_UDEF_STEREO_COUNT>
0

> <PUBCHEM_ISOTOPIC_ATOM_COUNT>
0

> <PUBCHEM_COMPONENT_COUNT>
1

> <PUBCHEM_CACTVS_TAUTO_COUNT>
6

> <PUBCHEM_COORDINATE_TYPE>
1
5
255

> <PUBCHEM_BONDANNOTATIONS>
10  13  8
11  14  8
12  13  8
12  14  8
16  18  8
18  20  8
2  16  8
2  21  8
20  21  8
4  15  8
4  6  8
5  15  8
5  17  8
6  17  8
8  10  8
8  11  8

$$$$

