3402
  -OEChem-06251223232D

 58 61  0     1  0  0  0  0  0999 V2000
    9.4236    4.8894    0.0000 F   0  0  0  0  0  0  0  0  0  0  0  0
    5.4641   -0.7913    0.0000 O   0  0  0  0  0  0  0  0  0  0  0  0
    6.3301   -2.2913    0.0000 O   0  0  0  0  0  0  0  0  0  0  0  0
    4.0981   -1.4253    0.0000 O   0  0  0  0  0  0  0  0  0  0  0  0
    8.3010    2.4936    0.0000 N   0  3  0  0  0  0  0  0  0  0  0  0
    9.0376    1.5110    0.0000 C   0  0  3  0  0  0  0  0  0  0  0  0
    8.7788    0.5451    0.0000 C   0  0  3  0  0  0  0  0  0  0  0  0
   10.6108   -0.2137    0.0000 C   0  0  0  0  0  0  0  0  0  0  0  0
   10.8696    0.7522    0.0000 C   0  0  0  0  0  0  0  0  0  0  0  0
    7.2437   -0.6981    0.0000 C   0  0  0  0  0  0  0  0  0  0  0  0
    6.4347    0.7032    0.0000 C   0  0  0  0  0  0  0  0  0  0  0  0
    6.3301   -0.2913    0.0000 C   0  0  0  0  0  0  0  0  0  0  0  0
    8.4056    3.4881    0.0000 C   0  0  0  0  0  0  0  0  0  0  0  0
    7.3875    2.9004    0.0000 C   0  0  0  0  0  0  0  0  0  0  0  0
    9.3191    3.8949    0.0000 C   0  0  0  0  0  0  0  0  0  0  0  0
    5.4641   -1.7913    0.0000 C   0  0  0  0  0  0  0  0  0  0  0  0
    4.5981   -2.2913    0.0000 C   0  0  0  0  0  0  0  0  0  0  0  0
    3.7320   -2.7913    0.0000 C   0  0  0  0  0  0  0  0  0  0  0  0
    5.0981   -3.1574    0.0000 C   0  0  0  0  0  0  0  0  0  0  0  0
    2.8660   -2.2913    0.0000 C   0  0  0  0  0  0  0  0  0  0  0  0
    4.5981   -4.0234    0.0000 C   0  0  0  0  0  0  0  0  0  0  0  0
    6.0981   -3.1574    0.0000 C   0  0  0  0  0  0  0  0  0  0  0  0
    3.7320   -3.7913    0.0000 C   0  0  0  0  0  0  0  0  0  0  0  0
    5.0981   -4.8894    0.0000 C   0  0  0  0  0  0  0  0  0  0  0  0
    2.0000   -2.7913    0.0000 C   0  0  0  0  0  0  0  0  0  0  0  0
    6.5981   -4.0234    0.0000 C   0  0  0  0  0  0  0  0  0  0  0  0
    2.8660   -4.2913    0.0000 C   0  0  0  0  0  0  0  0  0  0  0  0
    6.0981   -4.8894    0.0000 C   0  0  0  0  0  0  0  0  0  0  0  0
    2.0000   -3.7913    0.0000 C   0  0  0  0  0  0  0  0  0  0  0  0
    9.0092    0.8917    0.0000 H   0  0  0  0  0  0  0  0  0  0  0  0
    8.8678   -0.0685    0.0000 H   0  0  0  0  0  0  0  0  0  0  0  0
   11.4609    0.5658    0.0000 H   0  0  0  0  0  0  0  0  0  0  0  0
   11.0817    1.3348    0.0000 H   0  0  0  0  0  0  0  0  0  0  0  0
   10.3987   -0.7963    0.0000 H   0  0  0  0  0  0  0  0  0  0  0  0
   11.2021   -0.4002    0.0000 H   0  0  0  0  0  0  0  0  0  0  0  0
    6.3324    1.3147    0.0000 H   0  0  0  0  0  0  0  0  0  0  0  0
    5.8149    0.6843    0.0000 H   0  0  0  0  0  0  0  0  0  0  0  0
    6.9060   -1.2180    0.0000 H   0  0  0  0  0  0  0  0  0  0  0  0
    7.7044   -1.1129    0.0000 H   0  0  0  0  0  0  0  0  0  0  0  0
    5.8102    0.0464    0.0000 H   0  0  0  0  0  0  0  0  0  0  0  0
    8.2556    4.0897    0.0000 H   0  0  0  0  0  0  0  0  0  0  0  0
    7.7871    3.4449    0.0000 H   0  0  0  0  0  0  0  0  0  0  0  0
    7.6397    3.4668    0.0000 H   0  0  0  0  0  0  0  0  0  0  0  0
    6.8211    3.1525    0.0000 H   0  0  0  0  0  0  0  0  0  0  0  0
    7.1353    2.3340    0.0000 H   0  0  0  0  0  0  0  0  0  0  0  0
    9.4691    3.2933    0.0000 H   0  0  0  0  0  0  0  0  0  0  0  0
    9.9376    3.9381    0.0000 H   0  0  0  0  0  0  0  0  0  0  0  0
    3.4781   -1.4253    0.0000 H   0  0  0  0  0  0  0  0  0  0  0  0
    3.9781   -4.0234    0.0000 H   0  0  0  0  0  0  0  0  0  0  0  0
    2.8660   -1.6713    0.0000 H   0  0  0  0  0  0  0  0  0  0  0  0
    6.4081   -2.6204    0.0000 H   0  0  0  0  0  0  0  0  0  0  0  0
    4.2690   -4.1013    0.0000 H   0  0  0  0  0  0  0  0  0  0  0  0
    1.4631   -2.4813    0.0000 H   0  0  0  0  0  0  0  0  0  0  0  0
    4.7881   -5.4263    0.0000 H   0  0  0  0  0  0  0  0  0  0  0  0
    7.2181   -4.0234    0.0000 H   0  0  0  0  0  0  0  0  0  0  0  0
    2.8660   -4.9113    0.0000 H   0  0  0  0  0  0  0  0  0  0  0  0
    6.4081   -5.4263    0.0000 H   0  0  0  0  0  0  0  0  0  0  0  0
    1.4631   -4.1013    0.0000 H   0  0  0  0  0  0  0  0  0  0  0  0
  1 15  1  0  0  0  0
  2 12  1  0  0  0  0
  2 16  1  0  0  0  0
  3 16  2  0  0  0  0
  4 17  1  0  0  0  0
  4 48  1  0  0  0  0
  5  6  1  0  0  0  0
  5  7  1  0  0  0  0
  5 13  1  0  0  0  0
  5 14  1  0  0  0  0
  6  9  1  0  0  0  0
  6 11  1  0  0  0  0
  6 30  1  0  0  0  0
  7  8  1  0  0  0  0
  7 10  1  0  0  0  0
  7 31  1  0  0  0  0
  8  9  1  0  0  0  0
  8 34  1  0  0  0  0
  8 35  1  0  0  0  0
  9 32  1  0  0  0  0
  9 33  1  0  0  0  0
 10 12  1  0  0  0  0
 10 38  1  0  0  0  0
 10 39  1  0  0  0  0
 11 12  1  0  0  0  0
 11 36  1  0  0  0  0
 11 37  1  0  0  0  0
 12 40  1  0  0  0  0
 13 15  1  0  0  0  0
 13 41  1  0  0  0  0
 13 42  1  0  0  0  0
 14 43  1  0  0  0  0
 14 44  1  0  0  0  0
 14 45  1  0  0  0  0
 15 46  1  0  0  0  0
 15 47  1  0  0  0  0
 16 17  1  0  0  0  0
 17 18  1  0  0  0  0
 17 19  1  0  0  0  0
 18 20  2  0  0  0  0
 18 23  1  0  0  0  0
 19 21  2  0  0  0  0
 19 22  1  0  0  0  0
 20 25  1  0  0  0  0
 20 50  1  0  0  0  0
 21 24  1  0  0  0  0
 21 49  1  0  0  0  0
 22 26  2  0  0  0  0
 22 51  1  0  0  0  0
 23 27  2  0  0  0  0
 23 52  1  0  0  0  0
 24 28  2  0  0  0  0
 24 54  1  0  0  0  0
 25 29  2  0  0  0  0
 25 53  1  0  0  0  0
 26 28  1  0  0  0  0
 26 55  1  0  0  0  0
 27 29  1  0  0  0  0
 27 56  1  0  0  0  0
 28 57  1  0  0  0  0
 29 58  1  0  0  0  0
M  CHG  1   5   1
M  END
> <PUBCHEM_COMPOUND_CID>
3402

> <PUBCHEM_COMPOUND_CANONICALIZED>
1

> <PUBCHEM_CACTVS_COMPLEXITY>
539

> <PUBCHEM_CACTVS_HBOND_ACCEPTOR>
4

> <PUBCHEM_CACTVS_HBOND_DONOR>
1

> <PUBCHEM_CACTVS_ROTATABLE_BOND>
7

> <PUBCHEM_CACTVS_SUBSKEYS>
AAADceB6MQAAAAAAAAAAAAAAAAAAAWAAAAA8YIAABgAAAAABQAAAHwAACAAADHzhmAYyCIMABgCIAiDSCAICAAAgAAAIiAFICIgJJjKAlRCGcAAmwAGLmAeYyOCOgAAAAAAAAAAAAAAAAAAAAAAAAAAAAA==

> <PUBCHEM_IUPAC_OPENEYE_NAME>
[8-(2-fluoroethyl)-8-methyl-8-azoniabicyclo[3.2.1]octan-3-yl] 2-hydroxy-2,2-diphenyl-acetate

> <PUBCHEM_IUPAC_CAS_NAME>
2-hydroxy-2,2-diphenylacetic acid [8-(2-fluoroethyl)-8-methyl-8-azoniabicyclo[3.2.1]octan-3-yl] ester

> <PUBCHEM_IUPAC_NAME>
[8-(2-fluoroethyl)-8-methyl-8-azoniabicyclo[3.2.1]octan-3-yl] 2-hydroxy-2,2-diphenylacetate

> <PUBCHEM_IUPAC_SYSTEMATIC_NAME>
[8-(2-fluoranylethyl)-8-methyl-8-azoniabicyclo[3.2.1]octan-3-yl] 2-oxidanyl-2,2-diphenyl-ethanoate

> <PUBCHEM_IUPAC_TRADITIONAL_NAME>
2-hydroxy-2,2-diphenyl-acetic acid [8-(2-fluoroethyl)-8-methyl-8-azoniabicyclo[3.2.1]octan-3-yl] ester

> <PUBCHEM_IUPAC_INCHI>
InChI=1S/C24H29FNO3/c1-26(15-14-25)20-12-13-21(26)17-22(16-20)29-23(27)24(28,18-8-4-2-5-9-18)19-10-6-3-7-11-19/h2-11,20-22,28H,12-17H2,1H3/q+1

> <PUBCHEM_IUPAC_INCHIKEY>
OATDVDIMNNZTEY-UHFFFAOYSA-N

> <PUBCHEM_XLOGP3_AA>
4.2

> <PUBCHEM_EXACT_MASS>
398.213147

> <PUBCHEM_MOLECULAR_FORMULA>
C24H29FNO3+

> <PUBCHEM_MOLECULAR_WEIGHT>
398.490363

> <PUBCHEM_OPENEYE_CAN_SMILES>
C[N+]1(C2CCC1CC(C2)OC(=O)C(C3=CC=CC=C3)(C4=CC=CC=C4)O)CCF

> <PUBCHEM_OPENEYE_ISO_SMILES>
C[N+]1(C2CCC1CC(C2)OC(=O)C(C3=CC=CC=C3)(C4=CC=CC=C4)O)CCF

> <PUBCHEM_CACTVS_TPSA>
46.5

> <PUBCHEM_MONOISOTOPIC_WEIGHT>
398.213147

> <PUBCHEM_TOTAL_CHARGE>
1

> <PUBCHEM_HEAVY_ATOM_COUNT>
29

> <PUBCHEM_ATOM_DEF_STEREO_COUNT>
0

> <PUBCHEM_ATOM_UDEF_STEREO_COUNT>
2

> <PUBCHEM_BOND_DEF_STEREO_COUNT>
0

> <PUBCHEM_BOND_UDEF_STEREO_COUNT>
0

> <PUBCHEM_ISOTOPIC_ATOM_COUNT>
0

> <PUBCHEM_COMPONENT_COUNT>
1

> <PUBCHEM_CACTVS_TAUTO_COUNT>
1

> <PUBCHEM_COORDINATE_TYPE>
1
5
255

> <PUBCHEM_BONDANNOTATIONS>
18  20  8
18  23  8
19  21  8
19  22  8
20  25  8
21  24  8
22  26  8
23  27  8
24  28  8
25  29  8
26  28  8
27  29  8
6  9  3
7  8  3

$$$$

