   Color/Form
        Dark red needles from dilute alcohol
   from [1]HSDB

   Melting Point
        199.5 deg C
   from [2]HSDB

   Dissociation Constants
        pKa = 2.61
   from [3]HSDB

   Octanol/Water Partition Coefficient
        log Kow = 0.88
   from [4]HSDB

   Solubilities

     * Soluble in acid
     * Sparingly sol in water; sol in aq soln of hydrochloric acid
     * In water, 1.30X10+4 mg/L at 25 deg C (est)

   from [5]HSDB

   Spectral Properties

     * MAX ABSORPTION (20% SULFURIC ACID): 380 NM (LOG E= 4.08); SADTLER
       REFERENCE NUMBER: 5862 (IR, PRISM); 1641 (UV)
     * MASS: 80728 (NIST/EPA/MSDC Mass Spectral Database, 1990 version)
     * IR: 18897 (Sadtler Research Laboratories IR prism collection)
     * 1H NMR: 18708 (Sadtler Research Laboratories Spectral Collection)
     * UV: HBCP 380

   from [6]HSDB

   Vapor Pressure
        1.09X10-4 mm Hg at 25 deg C (est)
   from [7]HSDB

   Other Chemical/Physical Properties

     * Henry's Law constant = 7.39X10-12 atm-cu m/mol at 25 deg C (est)
     * Hydroxyl radical reaction rate constant = 2.20X10-11 cu
       cm/molec-sec at 25 deg C (est)

   from [8]HSDB

   Computed Properties
   Molecular Weight                  153.13868 [g/mol]
   Molecular Formula                 C[6]H[7]N[3]O[2]
   XLogP3                            0.9
   H-Bond Donor                      2
   H-Bond Acceptor                   4
   Rotatable Bond Count              0
   Exact Mass                        153.053826
   MonoIsotopic Mass                 153.053826
   Topological Polar Surface Area    97.9
   Heavy Atom Count                  11
   Formal Charge                     0
   Complexity                        156
   Isotope Atom Count                0
   Defined Atom Stereocenter Count   0
   Undefined Atom Stereocenter Count 0
   Defined Bond Stereocenter Count   0
   Undefined Bond Stereocenter Count 0
   Covalently-Bonded Unit Count      1
   Feature 3D Acceptor Count         2
   Feature 3D Donor Count            2
   Feature 3D Anion Count            1
   Feature 3D Cation Count           2
   Feature 3D Ring Count             1
   Effective Rotor Count             1
   Conformer Sampling RMSD           0.4
   CID Conformer Count               [9]1

References

   1. http://toxnet.nlm.nih.gov/cgi-bin/sis/search/r?dbs+hsdb:@term+@rn+@rel+99-56-9
   2. http://toxnet.nlm.nih.gov/cgi-bin/sis/search/r?dbs+hsdb:@term+@rn+@rel+99-56-9
   3. http://toxnet.nlm.nih.gov/cgi-bin/sis/search/r?dbs+hsdb:@term+@rn+@rel+99-56-9
   4. http://toxnet.nlm.nih.gov/cgi-bin/sis/search/r?dbs+hsdb:@term+@rn+@rel+99-56-9
   5. http://toxnet.nlm.nih.gov/cgi-bin/sis/search/r?dbs+hsdb:@term+@rn+@rel+99-56-9
   6. http://toxnet.nlm.nih.gov/cgi-bin/sis/search/r?dbs+hsdb:@term+@rn+@rel+99-56-9
   7. http://toxnet.nlm.nih.gov/cgi-bin/sis/search/r?dbs+hsdb:@term+@rn+@rel+99-56-9
   8. http://toxnet.nlm.nih.gov/cgi-bin/sis/search/r?dbs+hsdb:@term+@rn+@rel+99-56-9
   9. http://pubchem.ncbi.nlm.nih.gov/vw3d/vw3d.cgi?cid=5111791
