   Color/Form

     * COLORLESS LIQUID
     * MOBILE LIQUID
     * Colorless liquid [Note: A solid below 23 degrees F].

   from [1]HSDB

   Odor

     * CHARACTERISTIC AMINE
     * PENETRATING
     * Weak, ammonia- or fish-like odor.

   from [2]HSDB

   Boiling Point
        128.9 DEG C @ 760 MM HG
   from [3]HSDB

   Melting Point
        -4.9 DEG C
   from [4]HSDB

   Corrosivity
        Corrosive to metals.
   from [5]HSDB

   Critical Temperature and Pressure
        Critical temperature = 344 deg C; Critical pressure = 5.302 MPa.
   from [6]HSDB

   Density/Specific Gravity
        1.0007 @ 20 DEG C/4 DEG C
   from [7]HSDB

   Dissociation Constants
        pKa = 8.492 at 25 deg C
   from [8]HSDB

   Heat of Vaporization
        505 J/g at 25 deg C; 425 J/g at 128 deg C
   from [9]HSDB

   Octanol/Water Partition Coefficient
        log Kow = -0.86
   from [10]HSDB

   pH
        25% AQ SOLUTION APPROX PH 11
   from [11]HSDB

   Solubilities

     * SOL IN ORGANIC SOLVENTS
     * IMMISCIBLE WITH CONCN SODIUM HYDROXIDE SOLN; MISCIBLE WITH ACETONE,
       BENZENE, ETHER, CASTOR OIL, METHANOL, ETHANOL, ETHYLENE GLYCOL,
       2-HEXANONE, LINSEED OIL, TURPENTINE, PINE OIL; MISCIBLE WITH WATER
       WITH EVOLUTION OF SOME HEAT

   from [12]HSDB

   Spectral Properties

     * INDEX OF REFRACTION: 1.4540 @ 20 DEG C/D
     * SADTLER REFERENCE NUMBER: 100 (IR, PRISM)
     * IR: 10962 (Sadtler Research Laboratories IR Grating Collection)
     * NMR: 83 (Varian Associates NMR Spectra Catalogue)
     * MASS: 151 (Atlas of Mass Spectral Data, John Wiley & Sons, New
       York)

   from [13]HSDB

   Surface Tension
        37.5 DYNES/CM @ 20 DEG C
   from [14]HSDB

   Vapor Density
        3 (AIR= 1)
   from [15]HSDB

   Vapor Pressure
        6 MM HG @ 20 DEG C
   from [16]HSDB

   Viscosity
        2.23 CENTIPOISES @ 20 DEG C
   from [17]HSDB

   Other Chemical/Physical Properties

     * DIPOLE MOMENT: 1.58; PKB 5.6; STRONG BASE; DISSOLVES 109%
       DIMETHYLAMINE; MORE THAN 5% NAPHTHA; 34% TRIMETHYLAMINE; 33%
       METHYLAMINE; DISSOLVES LESS THAN 1% PARAFFIN OIL, 5% SULFUR DOES
       NOT FORM AN AZEOTROPE WITH WATER, HYGROSCOPIC
     * DECOMP @ 175-176 DEG C; CRYSTALS; SOL IN WATER /HYDROCHLORIDE/
     * MP: 145-147 DEG C; PRISMS FROM ALC; SPARINGLY SOL IN WATER
       /PICRATE/
     * 1 MG/L= 281 PPM, 1 PPM= 35.6 MG/CU M
     * SOL IN WATER, METHANOL, ETHANOL, ACETONE, ETHYL ACETATE, BENZENE,
       CHLOROFORM; PRACTICALLY INSOL IN TOLUENE, XYLENE, ETHER, PETROLEUM
       ETHER, CARBON TETRACHLORIDE; MP: 110-111 DEG C; CRYSTALS FROM
       ETHANOL /SALICYLATE/
     * Vapor pressure = 10.08 mm Hg @ 25 DEG C
     * pKa = 8.33 at 25 deg C

   from [18]HSDB

   Computed Properties
   Molecular Weight                  87.12036 [g/mol]
   Molecular Formula                 C[4]H[9]NO
   XLogP3                            -0.9
   H-Bond Donor                      1
   H-Bond Acceptor                   2
   Rotatable Bond Count              0
   Exact Mass                        87.068414
   MonoIsotopic Mass                 87.068414
   Topological Polar Surface Area    21.3
   Heavy Atom Count                  6
   Formal Charge                     0
   Complexity                        34.5
   Isotope Atom Count                0
   Defined Atom Stereocenter Count   0
   Undefined Atom Stereocenter Count 0
   Defined Bond Stereocenter Count   0
   Undefined Bond Stereocenter Count 0
   Covalently-Bonded Unit Count      1
   Feature 3D Acceptor Count         1
   Feature 3D Donor Count            1
   Feature 3D Cation Count           1
   Feature 3D Ring Count             1
   Effective Rotor Count             1.2
   Conformer Sampling RMSD           0.4
   CID Conformer Count               [19]1

References

   1. http://toxnet.nlm.nih.gov/cgi-bin/sis/search/r?dbs+hsdb:@term+@rn+@rel+110-91-8
   2. http://toxnet.nlm.nih.gov/cgi-bin/sis/search/r?dbs+hsdb:@term+@rn+@rel+110-91-8
   3. http://toxnet.nlm.nih.gov/cgi-bin/sis/search/r?dbs+hsdb:@term+@rn+@rel+110-91-8
   4. http://toxnet.nlm.nih.gov/cgi-bin/sis/search/r?dbs+hsdb:@term+@rn+@rel+110-91-8
   5. http://toxnet.nlm.nih.gov/cgi-bin/sis/search/r?dbs+hsdb:@term+@rn+@rel+110-91-8
   6. http://toxnet.nlm.nih.gov/cgi-bin/sis/search/r?dbs+hsdb:@term+@rn+@rel+110-91-8
   7. http://toxnet.nlm.nih.gov/cgi-bin/sis/search/r?dbs+hsdb:@term+@rn+@rel+110-91-8
   8. http://toxnet.nlm.nih.gov/cgi-bin/sis/search/r?dbs+hsdb:@term+@rn+@rel+110-91-8
   9. http://toxnet.nlm.nih.gov/cgi-bin/sis/search/r?dbs+hsdb:@term+@rn+@rel+110-91-8
  10. http://toxnet.nlm.nih.gov/cgi-bin/sis/search/r?dbs+hsdb:@term+@rn+@rel+110-91-8
  11. http://toxnet.nlm.nih.gov/cgi-bin/sis/search/r?dbs+hsdb:@term+@rn+@rel+110-91-8
  12. http://toxnet.nlm.nih.gov/cgi-bin/sis/search/r?dbs+hsdb:@term+@rn+@rel+110-91-8
  13. http://toxnet.nlm.nih.gov/cgi-bin/sis/search/r?dbs+hsdb:@term+@rn+@rel+110-91-8
  14. http://toxnet.nlm.nih.gov/cgi-bin/sis/search/r?dbs+hsdb:@term+@rn+@rel+110-91-8
  15. http://toxnet.nlm.nih.gov/cgi-bin/sis/search/r?dbs+hsdb:@term+@rn+@rel+110-91-8
  16. http://toxnet.nlm.nih.gov/cgi-bin/sis/search/r?dbs+hsdb:@term+@rn+@rel+110-91-8
  17. http://toxnet.nlm.nih.gov/cgi-bin/sis/search/r?dbs+hsdb:@term+@rn+@rel+110-91-8
  18. http://toxnet.nlm.nih.gov/cgi-bin/sis/search/r?dbs+hsdb:@term+@rn+@rel+110-91-8
  19. http://pubchem.ncbi.nlm.nih.gov/vw3d/vw3d.cgi?cid=8083
