14951695
  -OEChem-07051213112D

 14 14  0     0  0  0  0  0  0999 V2000
    3.9602   -1.9814    0.0000 Cl  0  0  0  0  0  0  0  0  0  0  0  0
    6.1357   -1.9814    0.0000 Cl  0  0  0  0  0  0  0  0  0  0  0  0
    2.5447   -0.5814    0.0000 Cl  0  0  0  0  0  0  0  0  0  0  0  0
    5.0480    0.3665    0.0000 O   0  0  0  0  0  0  0  0  0  0  0  0
    6.8080    0.0877    0.0000 O   0  0  0  0  0  0  0  0  0  0  0  0
    2.1289    1.3749    0.0000 O   0  0  0  0  0  0  0  0  0  0  0  0
    3.8231    1.7350    0.0000 O   0  0  0  0  0  0  0  0  0  0  0  0
    4.2389   -0.2213    0.0000 C   0  0  0  0  0  0  0  0  0  0  0  0
    4.5480   -1.1723    0.0000 C   0  0  0  0  0  0  0  0  0  0  0  0
    5.5480   -1.1723    0.0000 C   0  0  0  0  0  0  0  0  0  0  0  0
    5.8570   -0.2213    0.0000 C   0  0  0  0  0  0  0  0  0  0  0  0
    3.2879    0.0877    0.0000 C   0  0  0  0  0  0  0  0  0  0  0  0
    3.0800    1.0659    0.0000 C   0  0  0  0  0  0  0  0  0  0  0  0
    2.0000    1.9814    0.0000 H   0  0  0  0  0  0  0  0  0  0  0  0
  1  9  1  0  0  0  0
  2 10  1  0  0  0  0
  3 12  1  0  0  0  0
  4  8  1  0  0  0  0
  4 11  1  0  0  0  0
  5 11  2  0  0  0  0
  6 13  1  0  0  0  0
  6 14  1  0  0  0  0
  7 13  2  0  0  0  0
  8  9  1  0  0  0  0
  8 12  2  0  0  0  0
  9 10  2  0  0  0  0
 10 11  1  0  0  0  0
 12 13  1  0  0  0  0
M  END
> <PUBCHEM_COMPOUND_CID>
14951695

> <PUBCHEM_COMPOUND_CANONICALIZED>
1

> <PUBCHEM_CACTVS_COMPLEXITY>
355

> <PUBCHEM_CACTVS_HBOND_ACCEPTOR>
4

> <PUBCHEM_CACTVS_HBOND_DONOR>
1

> <PUBCHEM_CACTVS_ROTATABLE_BOND>
1

> <PUBCHEM_CACTVS_SUBSKEYS>
AAADcQBgOAAGAAAAAAAAAAAAAAAAAQAAAAAAAAAAAAAAAAAAAAAACgIACAAACAYAgAAACAAABgCIAADQCAAACAAAIAAACAAAAUBIBAAAIAACEAAAAAAAsQAAAAAAAAAAAAAAAAAAAAAAAAAAAAAAAAAAAA==

> <PUBCHEM_IUPAC_OPENEYE_NAME>
(2E)-2-chloro-2-(3,4-dichloro-5-oxo-2-furylidene)acetic acid

> <PUBCHEM_IUPAC_CAS_NAME>
(2E)-2-chloro-2-(3,4-dichloro-5-oxo-2-furanylidene)acetic acid

> <PUBCHEM_IUPAC_NAME>
(2E)-2-chloro-2-(3,4-dichloro-5-oxofuran-2-ylidene)acetic acid

> <PUBCHEM_IUPAC_SYSTEMATIC_NAME>
(2E)-2-[3,4-bis(chloranyl)-5-oxidanylidene-furan-2-ylidene]-2-chloranyl-ethanoic acid

> <PUBCHEM_IUPAC_TRADITIONAL_NAME>
(2E)-2-chloro-2-(3,4-dichloro-5-keto-2-furylidene)acetic acid

> <PUBCHEM_IUPAC_INCHI>
InChI=1S/C6HCl3O4/c7-1-2(8)6(12)13-4(1)3(9)5(10)11/h(H,10,11)/b4-3+

> <PUBCHEM_IUPAC_INCHIKEY>
DDHLNXMDAUDTBS-ONEGZZNKSA-N

> <PUBCHEM_XLOGP3_AA>
2

> <PUBCHEM_EXACT_MASS>
241.894042

> <PUBCHEM_MOLECULAR_FORMULA>
C6HCl3O4

> <PUBCHEM_MOLECULAR_WEIGHT>
243.42874

> <PUBCHEM_OPENEYE_CAN_SMILES>
C1(=C(C(=O)OC1=C(C(=O)O)Cl)Cl)Cl

> <PUBCHEM_OPENEYE_ISO_SMILES>
C\1(=C(C(=O)O/C1=C(\C(=O)O)/Cl)Cl)Cl

> <PUBCHEM_CACTVS_TPSA>
63.6

> <PUBCHEM_MONOISOTOPIC_WEIGHT>
241.894042

> <PUBCHEM_TOTAL_CHARGE>
0

> <PUBCHEM_HEAVY_ATOM_COUNT>
13

> <PUBCHEM_ATOM_DEF_STEREO_COUNT>
0

> <PUBCHEM_ATOM_UDEF_STEREO_COUNT>
0

> <PUBCHEM_BOND_DEF_STEREO_COUNT>
1

> <PUBCHEM_BOND_UDEF_STEREO_COUNT>
0

> <PUBCHEM_ISOTOPIC_ATOM_COUNT>
0

> <PUBCHEM_COMPONENT_COUNT>
1

> <PUBCHEM_CACTVS_TAUTO_COUNT>
1

> <PUBCHEM_COORDINATE_TYPE>
1
5
255

$$$$

