   Color/Form

     * Colorless or pale yellow liquid
     * Heavy liquid

   from [1]HSDB

   Taste
        SWEETISH TASTE
   from [2]HSDB

   Boiling Point
        213 deg C (decomposes)
   from [3]HSDB

   Density/Specific Gravity
        1.3218 @ 20 DEG C/4 DEG C
   from [4]HSDB

   Solubilities

     * SOL IN WATER, ALCOHOL, & ETHER
     * Immiscible with oils
     * Soluble in oxygenated solvents
     * Miscible in water

   from [5]HSDB

   Spectral Properties

     * INDEX OF REFRACTION: 1.4831 @ 20 DEG C/D; BP: 213 DEG C WITH DECOMP
     * IR: 15761 (Sadtler Research Laboratories IR Grating Collection)
     * NMR: 7733 (Sadtler Research Laboratories Spectral Collection)
     * MASS: 348 (Atlas of Mass Spectral Data, John Wiley & Sons, New
       York)

   from [6]HSDB

   Vapor Pressure
        0.2 mm Hg at 20 deg C
   from [7]HSDB

   Viscosity
        2.388 poise at 20 deg C
   from [8]HSDB

   Other Chemical/Physical Properties

     * Tendency to turn straw color
     * Unstable; hygroscopic; BP = 213 (decomposes); wt/gal 11.102 lb.
     * 114-120 deg C @ 14 mm Hg

   from [9]HSDB

   Computed Properties
   Molecular Weight                  110.53948 [g/mol]
   Molecular Formula                 C[3]H[7]ClO[2]
   XLogP3-AA                         -0.5
   H-Bond Donor                      2
   H-Bond Acceptor                   2
   Rotatable Bond Count              2
   Exact Mass                        110.013457
   MonoIsotopic Mass                 110.013457
   Topological Polar Surface Area    40.5
   Heavy Atom Count                  6
   Formal Charge                     0
   Complexity                        32
   Isotope Atom Count                0
   Defined Atom Stereocenter Count   0
   Undefined Atom Stereocenter Count 1
   Defined Bond Stereocenter Count   0
   Undefined Bond Stereocenter Count 0
   Covalently-Bonded Unit Count      1
   Feature 3D Acceptor Count         2
   Feature 3D Donor Count            2
   Effective Rotor Count             2
   Conformer Sampling RMSD           0.4
   CID Conformer Count               [10]17

References

   1. http://toxnet.nlm.nih.gov/cgi-bin/sis/search/r?dbs+hsdb:@term+@rn+@rel+96-24-2
   2. http://toxnet.nlm.nih.gov/cgi-bin/sis/search/r?dbs+hsdb:@term+@rn+@rel+96-24-2
   3. http://toxnet.nlm.nih.gov/cgi-bin/sis/search/r?dbs+hsdb:@term+@rn+@rel+96-24-2
   4. http://toxnet.nlm.nih.gov/cgi-bin/sis/search/r?dbs+hsdb:@term+@rn+@rel+96-24-2
   5. http://toxnet.nlm.nih.gov/cgi-bin/sis/search/r?dbs+hsdb:@term+@rn+@rel+96-24-2
   6. http://toxnet.nlm.nih.gov/cgi-bin/sis/search/r?dbs+hsdb:@term+@rn+@rel+96-24-2
   7. http://toxnet.nlm.nih.gov/cgi-bin/sis/search/r?dbs+hsdb:@term+@rn+@rel+96-24-2
   8. http://toxnet.nlm.nih.gov/cgi-bin/sis/search/r?dbs+hsdb:@term+@rn+@rel+96-24-2
   9. http://toxnet.nlm.nih.gov/cgi-bin/sis/search/r?dbs+hsdb:@term+@rn+@rel+96-24-2
  10. http://pubchem.ncbi.nlm.nih.gov/vw3d/vw3d.cgi?cid=7290
