   Color/Form

     * Colorless heavy liquid
     * Colorless to yellow liquid [Note: A solid below 47 degrees F].

   from [1]HSDB

   Odor
        Similar to chloroform
   from [2]HSDB

   Taste
        Sweetish taste
   from [3]HSDB

   Boiling Point
        149.1 deg C
   from [4]HSDB

   Melting Point
        8.69 deg C
   from [5]HSDB

   Corrosivity
        ... Liquid bromoform will attack some forms of plastics, rubber,
   and coatings.
   from [6]HSDB

   Density/Specific Gravity
        2.8788 g/cu cm at 25 deg C
   from [7]HSDB

   Heat of Vaporization
        39.66 kJ/mol at 149.1 deg C; 46.05 kJ/mol at 25 deg C
   from [8]HSDB

   Octanol/Water Partition Coefficient
        log Kow = 2.40
   from [9]HSDB

   Solubilities

     * Miscible with ethanol, ether; soluble in benzene, ligroin,
       chloroform
     * Sol in about 800 parts water; miscible with acetone, petroleum
       ether, oils
     * Sol in solvent naphtha; fixed and volatile oils
     * 0.3 g/100 ml water at 30 deg C
     * 0.1 g/100 g water at 20 deg C
     * In water, 3,100 mg/L at 25 deg C

   from [10]HSDB

   Spectral Properties

     * MAX ABSORPTION (TERTIARY BUTYL ALCOHOL): 224 NM; SADTLER REFERENCE
       NUMBER: 10 (IR, PRISM)
     * Index of refraction: 1.5948 at 25 deg C/D
     * MASS: 12196 (NIST/EPA/MSDC Mass Spectral database, 1990 version)
     * IR: 8 (Sadtler Research Laboratories IR Grating Collection)
     * UV: 5-1 (Organic Electronic Spectral Data, Phillips et al, John
       Wiley & Sons, New York)
     * Raman: 336 (Sadtler Research Laboratories Spectral Collection)
     * 1H NMR: 6375 (Sadtler Research Laboratories Spectral Collection)
     * 13C NMR: 128 (Stothers, Carbon-13 NMR Spectroscopy, Academic Press,
       New York)

   from [11]HSDB

   Surface Tension
        41.53 dynes/cm at 20 deg C
   from [12]HSDB

   Vapor Density
        8.7 (Air= 1)
   from [13]HSDB

   Vapor Pressure
        5.4 mm Hg at 25 deg C /extrapolated/
   from [14]HSDB

   Other Chemical/Physical Properties

     * Solidifies @ +7.5 deg C
     * Conversion factors: 1 mg/l is equiv to 97 ppm; 1 ppm is equiv to
       10.34 mg/cu m @ 25 deg C, 760 mm Hg; % in saturated air: 0.7 @ 25
       deg C
     * Percent in saturated air: 0.7 @ 25 deg C
     * Dielectric constant: 4.5 at 20 deg C
     * Weight: 23.72 lb/gal at 25 deg C.
     * Hexane/water partition coefficient 1.76 (log)
     * Pentane/water partition coefficient 2.09 (log)
     * Air/water partition coefficient -1.56 (log)
     * Undecane/water partition coefficient 2.10 (log)
     * Henry's Law constant = 5.35X10-4 atm-cu m/mol at 25 deg C
     * Hydroxyl radical reaction rate constant = 4.26X10-14 cu
       cm/molec-sec at 25 deg C (est)

   from [15]HSDB

   Computed Properties
   Molecular Weight                  252.73064 [g/mol]
   Molecular Formula                 CHBr[3]
   XLogP3-AA                         2.8
   H-Bond Donor                      0
   H-Bond Acceptor                   0
   Rotatable Bond Count              0
   Exact Mass                        251.76079
   MonoIsotopic Mass                 249.762836
   Topological Polar Surface Area    0
   Heavy Atom Count                  4
   Formal Charge                     0
   Complexity                        8
   Isotope Atom Count                0
   Defined Atom Stereocenter Count   0
   Undefined Atom Stereocenter Count 0
   Defined Bond Stereocenter Count   0
   Undefined Bond Stereocenter Count 0
   Covalently-Bonded Unit Count      1
   Feature 3D Hydrophobe Count       4
   Effective Rotor Count             0
   Conformer Sampling RMSD           0.4
   CID Conformer Count               [16]1

References

   1. http://toxnet.nlm.nih.gov/cgi-bin/sis/search/r?dbs+hsdb:@term+@rn+@rel+75-25-2
   2. http://toxnet.nlm.nih.gov/cgi-bin/sis/search/r?dbs+hsdb:@term+@rn+@rel+75-25-2
   3. http://toxnet.nlm.nih.gov/cgi-bin/sis/search/r?dbs+hsdb:@term+@rn+@rel+75-25-2
   4. http://toxnet.nlm.nih.gov/cgi-bin/sis/search/r?dbs+hsdb:@term+@rn+@rel+75-25-2
   5. http://toxnet.nlm.nih.gov/cgi-bin/sis/search/r?dbs+hsdb:@term+@rn+@rel+75-25-2
   6. http://toxnet.nlm.nih.gov/cgi-bin/sis/search/r?dbs+hsdb:@term+@rn+@rel+75-25-2
   7. http://toxnet.nlm.nih.gov/cgi-bin/sis/search/r?dbs+hsdb:@term+@rn+@rel+75-25-2
   8. http://toxnet.nlm.nih.gov/cgi-bin/sis/search/r?dbs+hsdb:@term+@rn+@rel+75-25-2
   9. http://toxnet.nlm.nih.gov/cgi-bin/sis/search/r?dbs+hsdb:@term+@rn+@rel+75-25-2
  10. http://toxnet.nlm.nih.gov/cgi-bin/sis/search/r?dbs+hsdb:@term+@rn+@rel+75-25-2
  11. http://toxnet.nlm.nih.gov/cgi-bin/sis/search/r?dbs+hsdb:@term+@rn+@rel+75-25-2
  12. http://toxnet.nlm.nih.gov/cgi-bin/sis/search/r?dbs+hsdb:@term+@rn+@rel+75-25-2
  13. http://toxnet.nlm.nih.gov/cgi-bin/sis/search/r?dbs+hsdb:@term+@rn+@rel+75-25-2
  14. http://toxnet.nlm.nih.gov/cgi-bin/sis/search/r?dbs+hsdb:@term+@rn+@rel+75-25-2
  15. http://toxnet.nlm.nih.gov/cgi-bin/sis/search/r?dbs+hsdb:@term+@rn+@rel+75-25-2
  16. http://pubchem.ncbi.nlm.nih.gov/vw3d/vw3d.cgi?cid=5558
