5281789
  -OEChem-07051212592D

 44 46  0     0  0  0  0  0  0999 V2000
    8.9282    1.7379    0.0000 O   0  0  0  0  0  0  0  0  0  0  0  0
    6.3301    1.2379    0.0000 O   0  0  0  0  0  0  0  0  0  0  0  0
    4.5981   -1.7621    0.0000 O   0  0  0  0  0  0  0  0  0  0  0  0
    8.9282   -1.2621    0.0000 O   0  0  0  0  0  0  0  0  0  0  0  0
   10.6766   -1.2967    0.0000 O   0  0  0  0  0  0  0  0  0  0  0  0
   12.4583    1.7621    0.0000 O   0  0  0  0  0  0  0  0  0  0  0  0
    7.1962   -0.2621    0.0000 C   0  0  0  0  0  0  0  0  0  0  0  0
    5.4641   -0.2621    0.0000 C   0  0  0  0  0  0  0  0  0  0  0  0
    8.0622    0.2379    0.0000 C   0  0  0  0  0  0  0  0  0  0  0  0
    6.3301    0.2379    0.0000 C   0  0  0  0  0  0  0  0  0  0  0  0
    4.5981    0.2379    0.0000 C   0  0  0  0  0  0  0  0  0  0  0  0
    9.7942    0.2379    0.0000 C   0  0  0  0  0  0  0  0  0  0  0  0
    8.9282   -0.2621    0.0000 C   0  0  0  0  0  0  0  0  0  0  0  0
    5.4641   -1.2621    0.0000 C   0  0  0  0  0  0  0  0  0  0  0  0
    7.1962   -1.2621    0.0000 C   0  0  0  0  0  0  0  0  0  0  0  0
    9.7942    1.2379    0.0000 C   0  0  0  0  0  0  0  0  0  0  0  0
    6.3301   -1.7621    0.0000 C   0  0  0  0  0  0  0  0  0  0  0  0
    8.0622    1.2379    0.0000 C   0  0  0  0  0  0  0  0  0  0  0  0
    3.7320   -0.2621    0.0000 C   0  0  0  0  0  0  0  0  0  0  0  0
   10.6882   -0.2967    0.0000 C   0  0  0  0  0  0  0  0  0  0  0  0
   10.6882    1.7726    0.0000 C   0  0  0  0  0  0  0  0  0  0  0  0
    2.8660    0.2379    0.0000 C   0  0  0  0  0  0  0  0  0  0  0  0
   11.5942    0.2171    0.0000 C   0  0  0  0  0  0  0  0  0  0  0  0
   11.5942    1.2587    0.0000 C   0  0  0  0  0  0  0  0  0  0  0  0
    2.0000   -0.2621    0.0000 C   0  0  0  0  0  0  0  0  0  0  0  0
    2.8660    1.2379    0.0000 C   0  0  0  0  0  0  0  0  0  0  0  0
    4.9966    0.7129    0.0000 H   0  0  0  0  0  0  0  0  0  0  0  0
    4.1996    0.7129    0.0000 H   0  0  0  0  0  0  0  0  0  0  0  0
    7.7331   -1.5721    0.0000 H   0  0  0  0  0  0  0  0  0  0  0  0
    6.3301   -2.3821    0.0000 H   0  0  0  0  0  0  0  0  0  0  0  0
    7.5252    1.5479    0.0000 H   0  0  0  0  0  0  0  0  0  0  0  0
    3.7320   -0.8821    0.0000 H   0  0  0  0  0  0  0  0  0  0  0  0
   10.6810    2.3926    0.0000 H   0  0  0  0  0  0  0  0  0  0  0  0
   12.1300   -0.0950    0.0000 H   0  0  0  0  0  0  0  0  0  0  0  0
    5.7932    1.5479    0.0000 H   0  0  0  0  0  0  0  0  0  0  0  0
    1.6900    0.2749    0.0000 H   0  0  0  0  0  0  0  0  0  0  0  0
    3.4860    1.2379    0.0000 H   0  0  0  0  0  0  0  0  0  0  0  0
    2.8660    1.8579    0.0000 H   0  0  0  0  0  0  0  0  0  0  0  0
    2.2460    1.2379    0.0000 H   0  0  0  0  0  0  0  0  0  0  0  0
    1.4631   -0.5721    0.0000 H   0  0  0  0  0  0  0  0  0  0  0  0
    2.3100   -0.7990    0.0000 H   0  0  0  0  0  0  0  0  0  0  0  0
    4.5981   -2.3821    0.0000 H   0  0  0  0  0  0  0  0  0  0  0  0
   11.2099   -1.6129    0.0000 H   0  0  0  0  0  0  0  0  0  0  0  0
   12.4559    2.3821    0.0000 H   0  0  0  0  0  0  0  0  0  0  0  0
  1 16  1  0  0  0  0
  1 18  1  0  0  0  0
  2 10  1  0  0  0  0
  2 35  1  0  0  0  0
  3 14  1  0  0  0  0
  3 42  1  0  0  0  0
  4 13  2  0  0  0  0
  5 20  1  0  0  0  0
  5 43  1  0  0  0  0
  6 24  1  0  0  0  0
  6 44  1  0  0  0  0
  7  9  1  0  0  0  0
  7 10  2  0  0  0  0
  7 15  1  0  0  0  0
  8 10  1  0  0  0  0
  8 11  1  0  0  0  0
  8 14  2  0  0  0  0
  9 13  1  0  0  0  0
  9 18  2  0  0  0  0
 11 19  1  0  0  0  0
 11 27  1  0  0  0  0
 11 28  1  0  0  0  0
 12 13  1  0  0  0  0
 12 16  1  0  0  0  0
 12 20  2  0  0  0  0
 14 17  1  0  0  0  0
 15 17  2  0  0  0  0
 15 29  1  0  0  0  0
 16 21  2  0  0  0  0
 17 30  1  0  0  0  0
 18 31  1  0  0  0  0
 19 22  2  0  0  0  0
 19 32  1  0  0  0  0
 20 23  1  0  0  0  0
 21 24  1  0  0  0  0
 21 33  1  0  0  0  0
 22 25  1  0  0  0  0
 22 26  1  0  0  0  0
 23 24  2  0  0  0  0
 23 34  1  0  0  0  0
 25 36  1  0  0  0  0
 25 40  1  0  0  0  0
 25 41  1  0  0  0  0
 26 37  1  0  0  0  0
 26 38  1  0  0  0  0
 26 39  1  0  0  0  0
M  END
> <PUBCHEM_COMPOUND_CID>
5281789

> <PUBCHEM_COMPOUND_CANONICALIZED>
1

> <PUBCHEM_CACTVS_COMPLEXITY>
593

> <PUBCHEM_CACTVS_HBOND_ACCEPTOR>
6

> <PUBCHEM_CACTVS_HBOND_DONOR>
4

> <PUBCHEM_CACTVS_ROTATABLE_BOND>
3

> <PUBCHEM_CACTVS_SUBSKEYS>
AAADceB4OAAAAAAAAAAAAAAAAAAAAAAAAAAwYIAAAAAAAACBQAAAGgAACAAADASgmAIyBoAABgCIAqBSAAACCAAkIAAIiAEGCMgMJzaGNRqAcWAl4BUIuYeK7PzOIAACCAAIAABAAAQQABAAAAAAAAAAAA==

> <PUBCHEM_IUPAC_OPENEYE_NAME>
3-[2,4-dihydroxy-3-(3-methylbut-2-enyl)phenyl]-5,7-dihydroxy-chromen-4-one

> <PUBCHEM_IUPAC_CAS_NAME>
3-[2,4-dihydroxy-3-(3-methylbut-2-enyl)phenyl]-5,7-dihydroxy-1-benzopyran-4-one

> <PUBCHEM_IUPAC_NAME>
3-[2,4-dihydroxy-3-(3-methylbut-2-enyl)phenyl]-5,7-dihydroxychromen-4-one

> <PUBCHEM_IUPAC_SYSTEMATIC_NAME>
3-[3-(3-methylbut-2-enyl)-2,4-bis(oxidanyl)phenyl]-5,7-bis(oxidanyl)chromen-4-one

> <PUBCHEM_IUPAC_TRADITIONAL_NAME>
3-[2,4-dihydroxy-3-(3-methylbut-2-enyl)phenyl]-5,7-dihydroxy-chromone

> <PUBCHEM_IUPAC_INCHI>
InChI=1S/C20H18O6/c1-10(2)3-4-13-15(22)6-5-12(19(13)24)14-9-26-17-8-11(21)7-16(23)18(17)20(14)25/h3,5-9,21-24H,4H2,1-2H3

> <PUBCHEM_IUPAC_INCHIKEY>
KCUZCRLRQVRBBV-UHFFFAOYSA-N

> <PUBCHEM_XLOGP3_AA>
4.2

> <PUBCHEM_EXACT_MASS>
354.110338

> <PUBCHEM_MOLECULAR_FORMULA>
C20H18O6

> <PUBCHEM_MOLECULAR_WEIGHT>
354.35332

> <PUBCHEM_OPENEYE_CAN_SMILES>
CC(=CCC1=C(C=CC(=C1O)C2=COC3=CC(=CC(=C3C2=O)O)O)O)C

> <PUBCHEM_OPENEYE_ISO_SMILES>
CC(=CCC1=C(C=CC(=C1O)C2=COC3=CC(=CC(=C3C2=O)O)O)O)C

> <PUBCHEM_CACTVS_TPSA>
107

> <PUBCHEM_MONOISOTOPIC_WEIGHT>
354.110338

> <PUBCHEM_TOTAL_CHARGE>
0

> <PUBCHEM_HEAVY_ATOM_COUNT>
26

> <PUBCHEM_ATOM_DEF_STEREO_COUNT>
0

> <PUBCHEM_ATOM_UDEF_STEREO_COUNT>
0

> <PUBCHEM_BOND_DEF_STEREO_COUNT>
0

> <PUBCHEM_BOND_UDEF_STEREO_COUNT>
0

> <PUBCHEM_ISOTOPIC_ATOM_COUNT>
0

> <PUBCHEM_COMPONENT_COUNT>
1

> <PUBCHEM_CACTVS_TAUTO_COUNT>
108

> <PUBCHEM_COORDINATE_TYPE>
1
5
255

> <PUBCHEM_BONDANNOTATIONS>
1  16  8
1  18  8
12  13  8
12  16  8
12  20  8
14  17  8
15  17  8
16  21  8
20  23  8
21  24  8
23  24  8
7  10  8
7  15  8
8  10  8
8  14  8
9  13  8
9  18  8

$$$$

