441597
  -OEChem-07051212552D

 38 41  0     1  0  0  0  0  0999 V2000
    6.4604   -0.3306    0.0000 O   0  0  0  0  0  0  0  0  0  0  0  0
    2.8779   -2.4360    0.0000 O   0  0  0  0  0  0  0  0  0  0  0  0
    6.4927   -2.4221    0.0000 O   0  0  0  0  0  0  0  0  0  0  0  0
    4.6894   -3.4818    0.0000 O   0  0  0  0  0  0  0  0  0  0  0  0
    2.0000    1.2180    0.0000 O   0  0  0  0  0  0  0  0  0  0  0  0
    6.2392    2.8820    0.0000 O   0  0  0  0  0  0  0  0  0  0  0  0
    4.8454    3.6867    0.0000 O   0  0  0  0  0  0  0  0  0  0  0  0
    2.9042    2.7149    0.0000 O   0  0  0  0  0  0  0  0  0  0  0  0
    2.8522   -0.3336    0.0000 N   0  0  0  0  0  0  0  0  0  0  0  0
    4.6523   -0.3266    0.0000 C   0  0  2  0  0  0  0  0  0  0  0  0
    3.7542   -0.8544    0.0000 C   0  0  2  0  0  0  0  0  0  0  0  0
    5.6042   -0.8472    0.0000 C   0  0  2  0  0  0  0  0  0  0  0  0
    3.7459   -1.9393    0.0000 C   0  0  1  0  0  0  0  0  0  0  0  0
    5.6209   -1.9321    0.0000 C   0  0  1  0  0  0  0  0  0  0  0  0
    4.6855   -2.4818    0.0000 C   0  0  1  0  0  0  0  0  0  0  0  0
    4.6362    0.7149    0.0000 C   0  0  0  0  0  0  0  0  0  0  0  0
    3.7702    1.2149    0.0000 C   0  0  0  0  0  0  0  0  0  0  0  0
    2.8602    0.7080    0.0000 C   0  0  0  0  0  0  0  0  0  0  0  0
    5.5022    1.2149    0.0000 C   0  0  0  0  0  0  0  0  0  0  0  0
    3.7702    2.2149    0.0000 C   0  0  0  0  0  0  0  0  0  0  0  0
    5.5022    2.2149    0.0000 C   0  0  0  0  0  0  0  0  0  0  0  0
    4.6362    2.7149    0.0000 C   0  0  0  0  0  0  0  0  0  0  0  0
    5.8341    3.7898    0.0000 C   0  0  0  0  0  0  0  0  0  0  0  0
    5.3801    0.1125    0.0000 H   0  0  0  0  0  0  0  0  0  0  0  0
    3.0165   -1.2765    0.0000 H   0  0  0  0  0  0  0  0  0  0  0  0
    5.5911   -0.2274    0.0000 H   0  0  0  0  0  0  0  0  0  0  0  0
    3.2107   -1.6262    0.0000 H   0  0  0  0  0  0  0  0  0  0  0  0
    6.1536   -1.6149    0.0000 H   0  0  0  0  0  0  0  0  0  0  0  0
    4.1492   -2.7929    0.0000 H   0  0  0  0  0  0  0  0  0  0  0  0
    2.3140   -0.6415    0.0000 H   0  0  0  0  0  0  0  0  0  0  0  0
    6.0392    0.9049    0.0000 H   0  0  0  0  0  0  0  0  0  0  0  0
    7.0032   -0.6302    0.0000 H   0  0  0  0  0  0  0  0  0  0  0  0
    2.8755   -3.0560    0.0000 H   0  0  0  0  0  0  0  0  0  0  0  0
    6.4998   -3.0420    0.0000 H   0  0  0  0  0  0  0  0  0  0  0  0
    5.2275   -3.7898    0.0000 H   0  0  0  0  0  0  0  0  0  0  0  0
    6.4237    3.9815    0.0000 H   0  0  0  0  0  0  0  0  0  0  0  0
    5.7054    4.3962    0.0000 H   0  0  0  0  0  0  0  0  0  0  0  0
    2.9042    3.3349    0.0000 H   0  0  0  0  0  0  0  0  0  0  0  0
 12  1  1  1  0  0  0
  1 32  1  0  0  0  0
 13  2  1  1  0  0  0
  2 33  1  0  0  0  0
 14  3  1  6  0  0  0
  3 34  1  0  0  0  0
 15  4  1  1  0  0  0
  4 35  1  0  0  0  0
  5 18  2  0  0  0  0
  6 21  1  0  0  0  0
  6 23  1  0  0  0  0
  7 22  1  0  0  0  0
  7 23  1  0  0  0  0
  8 20  1  0  0  0  0
  8 38  1  0  0  0  0
  9 11  1  0  0  0  0
  9 18  1  0  0  0  0
  9 30  1  0  0  0  0
 10 11  1  0  0  0  0
 10 12  1  0  0  0  0
 10 16  1  0  0  0  0
 10 24  1  6  0  0  0
 11 13  1  0  0  0  0
 11 25  1  1  0  0  0
 12 14  1  0  0  0  0
 12 26  1  0  0  0  0
 13 15  1  0  0  0  0
 13 27  1  0  0  0  0
 14 15  1  0  0  0  0
 14 28  1  0  0  0  0
 15 29  1  0  0  0  0
 16 17  1  0  0  0  0
 16 19  2  0  0  0  0
 17 18  1  0  0  0  0
 17 20  2  0  0  0  0
 19 21  1  0  0  0  0
 19 31  1  0  0  0  0
 20 22  1  0  0  0  0
 21 22  2  0  0  0  0
 23 36  1  0  0  0  0
 23 37  1  0  0  0  0
M  END
> <PUBCHEM_COMPOUND_CID>
441597

> <PUBCHEM_COMPOUND_CANONICALIZED>
1

> <PUBCHEM_CACTVS_COMPLEXITY>
503

> <PUBCHEM_CACTVS_HBOND_ACCEPTOR>
8

> <PUBCHEM_CACTVS_HBOND_DONOR>
6

> <PUBCHEM_CACTVS_ROTATABLE_BOND>
0

> <PUBCHEM_CACTVS_SUBSKEYS>
AAADccByPAAAAAAAAAAAAAAAAAAAASAAAAA8YIAAAAAAAEixAAAAHgAQCAAADTzhmAcwDoLABgCIAiFSEACCCAAkIAAAiIEOjMgfNzaGtRukcWtn9hWfuQf6/f/eoAABCAAYQABCgAIUADSgAAAAAAAAAA==

> <PUBCHEM_IUPAC_OPENEYE_NAME>
(1R,2S,3S,4S,4aR,11bR)-1,2,3,4,7-pentahydroxy-2,3,4,4a,5,11b-hexahydro-1H-[1,3]dioxolo[4,5-j]phenanthridin-6-one

> <PUBCHEM_IUPAC_CAS_NAME>
(1R,2S,3S,4S,4aR,11bR)-1,2,3,4,7-pentahydroxy-2,3,4,4a,5,11b-hexahydro-1H-[1,3]dioxolo[4,5-j]phenanthridin-6-one

> <PUBCHEM_IUPAC_NAME>
(1R,2S,3S,4S,4aR,11bR)-1,2,3,4,7-pentahydroxy-2,3,4,4a,5,11b-hexahydro-1H-[1,3]dioxolo[4,5-j]phenanthridin-6-one

> <PUBCHEM_IUPAC_SYSTEMATIC_NAME>
(1R,2S,3S,4S,4aR,11bR)-1,2,3,4,7-pentakis(oxidanyl)-2,3,4,4a,5,11b-hexahydro-1H-[1,3]dioxolo[4,5-j]phenanthridin-6-one

> <PUBCHEM_IUPAC_TRADITIONAL_NAME>
(1R,2S,3S,4S,4aR,11bR)-1,2,3,4,7-pentahydroxy-2,3,4,4a,5,11b-hexahydro-1H-[1,3]dioxolo[4,5-j]phenanthridin-6-one

> <PUBCHEM_IUPAC_INCHI>
InChI=1S/C14H15NO8/c16-8-5-3-1-4-13(23-2-22-4)9(17)6(3)14(21)15-7(5)10(18)12(20)11(8)19/h1,5,7-8,10-12,16-20H,2H2,(H,15,21)/t5-,7-,8-,10+,11+,12+/m1/s1

> <PUBCHEM_IUPAC_INCHIKEY>
VREZDOWOLGNDPW-ALTGWBOUSA-N

> <PUBCHEM_XLOGP3_AA>
-1.6

> <PUBCHEM_EXACT_MASS>
325.079766

> <PUBCHEM_MOLECULAR_FORMULA>
C14H15NO8

> <PUBCHEM_MOLECULAR_WEIGHT>
325.2708

> <PUBCHEM_OPENEYE_CAN_SMILES>
C1OC2=C(O1)C(=C3C(=C2)C4C(C(C(C(C4O)O)O)O)NC3=O)O

> <PUBCHEM_OPENEYE_ISO_SMILES>
C1OC2=C(O1)C(=C3C(=C2)[C@@H]4[C@H]([C@@H]([C@@H]([C@H]([C@@H]4O)O)O)O)NC3=O)O

> <PUBCHEM_CACTVS_TPSA>
149

> <PUBCHEM_MONOISOTOPIC_WEIGHT>
325.079766

> <PUBCHEM_TOTAL_CHARGE>
0

> <PUBCHEM_HEAVY_ATOM_COUNT>
23

> <PUBCHEM_ATOM_DEF_STEREO_COUNT>
6

> <PUBCHEM_ATOM_UDEF_STEREO_COUNT>
0

> <PUBCHEM_BOND_DEF_STEREO_COUNT>
0

> <PUBCHEM_BOND_UDEF_STEREO_COUNT>
0

> <PUBCHEM_ISOTOPIC_ATOM_COUNT>
0

> <PUBCHEM_COMPONENT_COUNT>
1

> <PUBCHEM_CACTVS_TAUTO_COUNT>
22

> <PUBCHEM_COORDINATE_TYPE>
1
5
255

> <PUBCHEM_BONDANNOTATIONS>
12  1  5
10  24  6
11  25  5
16  17  8
16  19  8
17  20  8
19  21  8
13  2  5
20  22  8
21  22  8
14  3  6
15  4  5

$$$$

