   Color/Form

     * Colorless crystals
     * Needles

   from [1]HSDB

   Boiling Point
        111 deg C @ 0.001 mm Hg
   from [2]HSDB

   Melting Point
        53 deg C
   from [3]HSDB

   Corrosivity
        Non-corrosive
   from [4]HSDB

   Density/Specific Gravity
        1.284 @ 20 deg C/4 deg C
   from [5]HSDB

   Octanol/Water Partition Coefficient
        log Kow = 3.40
   from [6]HSDB

   Solubilities

     * SOL IN ORG SOLVENTS EXCEPT PETROLEUM ETHER AND ALIPHATIC
       HYDROCARBONS
     * At 20 deg C: n-hexane, 2-5 g/liter; isopropanol, 20-50 g/liter;
       dichloromethane, >1,000 g/liter; toluene, >1,000 g/liter.
     * Soluble in 2-propanol.
     * In water, 10.5 mg/liter @ 20 deg C [Bowman BT, Sans WW; J Environ
       Sci Health B18: 221-7 (1983)] [7]PubMed Abstract

   from [8]HSDB

   Spectral Properties

     * Index of refraction: 1.5928 @ 53 deg C
     * Index of Refraction: 1.284 @ 20 deg C
     * Intense mass spectral peaks: 77 m/z, 132 m/z, 160 m/z, 186 m/z, 345
       m/z

   from [9]HSDB

   Vapor Pressure
        2.4X10-6 mm Hg @ 20 deg C
   from [10]HSDB

   Other Chemical/Physical Properties

     * Henry's Law constant= 9.95X10-8 atm-cu m/mol @ 20 deg C /Estimated/
     * VOLATILITY 0.042 MG/CU M @ 20 DEG C
     * Hydroxyl radical reaction rate constant = 1.85X10-10 cu cm/molec
       sec @ 25 deg C /Estimated/

   from [11]HSDB

   Computed Properties
   Molecular Weight                  345.377502 [g/mol]
   Molecular Formula                 C[12]H[16]N[3]O[3]PS[2]
   XLogP3                            3.4
   H-Bond Donor                      0
   H-Bond Acceptor                   7
   Rotatable Bond Count              7
   Exact Mass                        345.03707
   MonoIsotopic Mass                 345.03707
   Topological Polar Surface Area    121
   Heavy Atom Count                  21
   Formal Charge                     0
   Complexity                        440
   Isotope Atom Count                0
   Defined Atom Stereocenter Count   0
   Undefined Atom Stereocenter Count 0
   Defined Bond Stereocenter Count   0
   Undefined Bond Stereocenter Count 0
   Covalently-Bonded Unit Count      1
   Feature 3D Acceptor Count         1
   Feature 3D Ring Count             2
   Effective Rotor Count             7
   Conformer Sampling RMSD           0.8
   CID Conformer Count               [12]48

References

   1. http://toxnet.nlm.nih.gov/cgi-bin/sis/search/r?dbs+hsdb:@term+@rn+@rel+2642-71-9
   2. http://toxnet.nlm.nih.gov/cgi-bin/sis/search/r?dbs+hsdb:@term+@rn+@rel+2642-71-9
   3. http://toxnet.nlm.nih.gov/cgi-bin/sis/search/r?dbs+hsdb:@term+@rn+@rel+2642-71-9
   4. http://toxnet.nlm.nih.gov/cgi-bin/sis/search/r?dbs+hsdb:@term+@rn+@rel+2642-71-9
   5. http://toxnet.nlm.nih.gov/cgi-bin/sis/search/r?dbs+hsdb:@term+@rn+@rel+2642-71-9
   6. http://toxnet.nlm.nih.gov/cgi-bin/sis/search/r?dbs+hsdb:@term+@rn+@rel+2642-71-9
   7. http://www.ncbi.nlm.nih.gov/entrez/query.fcgi?cmd=Retrieve&db=pubmed&dopt=Abstract&list_uids=6853964
   8. http://toxnet.nlm.nih.gov/cgi-bin/sis/search/r?dbs+hsdb:@term+@rn+@rel+2642-71-9
   9. http://toxnet.nlm.nih.gov/cgi-bin/sis/search/r?dbs+hsdb:@term+@rn+@rel+2642-71-9
  10. http://toxnet.nlm.nih.gov/cgi-bin/sis/search/r?dbs+hsdb:@term+@rn+@rel+2642-71-9
  11. http://toxnet.nlm.nih.gov/cgi-bin/sis/search/r?dbs+hsdb:@term+@rn+@rel+2642-71-9
  12. http://pubchem.ncbi.nlm.nih.gov/vw3d/vw3d.cgi?cid=17531
