   Color/Form
        White crystalline
   from [1]HSDB

   Odor
        Odorless
   from [2]HSDB

   Melting Point
        142.8 to 143.8 deg C
   from [3]HSDB

   Density/Specific Gravity
        1.381 at 20 deg C
   from [4]HSDB

   Dissociation Constants
        Does not dissociate
   from [5]HSDB

   Octanol/Water Partition Coefficient
        log Kow = 2.96
   from [6]HSDB

   pH
        pH = 5.5 at 23 deg C (1% solution)
   from [7]HSDB

   Solubilities

     * Solubility in n-heptane, <10 g/L, 20 deg C
     * In acetone, 16-20 g/100 mL; acetonitrile, 4-5 g/100 mL; methanol,
       4-5 g/100 mL; ethylacetate, 6.7-9 g/100mL; dichloromethane, 20-25
       g/100 mL; toluene, 2-2.5 g/100 mL; 1-octanol, <1 g/100 mL, all at
       20 deg C
     * In water, 4.6 mg/L at 20 deg C

   from [8]HSDB

   Vapor Pressure
        5.4X10-9 mm Hg at 20 deg C
   from [9]HSDB

   Other Chemical/Physical Properties

     * White powder; faintly smoky odor; mp: 143.3 to 143.6 deg C;
       density: 1.394 g/cu cm /Technical grade/
     * Henry's Law constant = 5.11X10-10 atm-cu m/mol at 25 deg C
     * Hydroxyl radical reaction rate constant = 9.04X10-12 cu
       cm/molec-sec at 25 deg C (est)

   from [10]HSDB

   Computed Properties
   Molecular Weight                  343.20668 [g/mol]
   Molecular Formula                 C[18]H[12]Cl[2]N[2]O
   XLogP3-AA                         4.9
   H-Bond Donor                      1
   H-Bond Acceptor                   2
   Rotatable Bond Count              3
   Tautomer Count                    2
   Exact Mass                        342.032668
   MonoIsotopic Mass                 342.032668
   Topological Polar Surface Area    42
   Heavy Atom Count                  23
   Formal Charge                     0
   Complexity                        399
   Isotope Atom Count                0
   Defined Atom Stereocenter Count   0
   Undefined Atom Stereocenter Count 0
   Defined Bond Stereocenter Count   0
   Undefined Bond Stereocenter Count 0
   Covalently-Bonded Unit Count      1
   Feature 3D Acceptor Count         2
   Feature 3D Donor Count            1
   Feature 3D Ring Count             3
   Effective Rotor Count             4
   Conformer Sampling RMSD           0.6
   CID Conformer Count               [11]18

References

   1. http://toxnet.nlm.nih.gov/cgi-bin/sis/search/r?dbs+hsdb:@term+@rn+@rel+188425-85-6
   2. http://toxnet.nlm.nih.gov/cgi-bin/sis/search/r?dbs+hsdb:@term+@rn+@rel+188425-85-6
   3. http://toxnet.nlm.nih.gov/cgi-bin/sis/search/r?dbs+hsdb:@term+@rn+@rel+188425-85-6
   4. http://toxnet.nlm.nih.gov/cgi-bin/sis/search/r?dbs+hsdb:@term+@rn+@rel+188425-85-6
   5. http://toxnet.nlm.nih.gov/cgi-bin/sis/search/r?dbs+hsdb:@term+@rn+@rel+188425-85-6
   6. http://toxnet.nlm.nih.gov/cgi-bin/sis/search/r?dbs+hsdb:@term+@rn+@rel+188425-85-6
   7. http://toxnet.nlm.nih.gov/cgi-bin/sis/search/r?dbs+hsdb:@term+@rn+@rel+188425-85-6
   8. http://toxnet.nlm.nih.gov/cgi-bin/sis/search/r?dbs+hsdb:@term+@rn+@rel+188425-85-6
   9. http://toxnet.nlm.nih.gov/cgi-bin/sis/search/r?dbs+hsdb:@term+@rn+@rel+188425-85-6
  10. http://toxnet.nlm.nih.gov/cgi-bin/sis/search/r?dbs+hsdb:@term+@rn+@rel+188425-85-6
  11. http://pubchem.ncbi.nlm.nih.gov/vw3d/vw3d.cgi?cid=213013
