13008
  -OEChem-06261207382D

 20 20  0     0  0  0  0  0  0999 V2000
    3.8660   -0.8170    0.0000 O   0  0  0  0  0  0  0  0  0  0  0  0
    4.7320    0.6830    0.0000 O   0  0  0  0  0  0  0  0  0  0  0  0
    3.0000   -0.3170    0.0000 C   0  0  0  0  0  0  0  0  0  0  0  0
    3.0000    0.6830    0.0000 C   0  0  0  0  0  0  0  0  0  0  0  0
    3.8660    1.1830    0.0000 C   0  0  0  0  0  0  0  0  0  0  0  0
    2.0000   -0.3170    0.0000 C   0  0  0  0  0  0  0  0  0  0  0  0
    2.5000   -1.1830    0.0000 C   0  0  0  0  0  0  0  0  0  0  0  0
    4.7320   -0.3170    0.0000 C   0  0  0  0  0  0  0  0  0  0  0  0
    2.7880    1.2656    0.0000 H   0  0  0  0  0  0  0  0  0  0  0  0
    2.3894    0.5754    0.0000 H   0  0  0  0  0  0  0  0  0  0  0  0
    4.2646    1.6580    0.0000 H   0  0  0  0  0  0  0  0  0  0  0  0
    3.4675    1.6580    0.0000 H   0  0  0  0  0  0  0  0  0  0  0  0
    1.9631   -0.8730    0.0000 H   0  0  0  0  0  0  0  0  0  0  0  0
    2.1900   -1.7200    0.0000 H   0  0  0  0  0  0  0  0  0  0  0  0
    2.0000    0.3030    0.0000 H   0  0  0  0  0  0  0  0  0  0  0  0
    1.3800   -0.3170    0.0000 H   0  0  0  0  0  0  0  0  0  0  0  0
    2.0000   -0.9370    0.0000 H   0  0  0  0  0  0  0  0  0  0  0  0
    3.0369   -1.4930    0.0000 H   0  0  0  0  0  0  0  0  0  0  0  0
    4.9441   -0.8996    0.0000 H   0  0  0  0  0  0  0  0  0  0  0  0
    5.3426   -0.2093    0.0000 H   0  0  0  0  0  0  0  0  0  0  0  0
  1  3  1  0  0  0  0
  1  8  1  0  0  0  0
  2  5  1  0  0  0  0
  2  8  1  0  0  0  0
  3  4  1  0  0  0  0
  3  6  1  0  0  0  0
  3  7  1  0  0  0  0
  4  5  1  0  0  0  0
  4  9  1  0  0  0  0
  4 10  1  0  0  0  0
  5 11  1  0  0  0  0
  5 12  1  0  0  0  0
  6 15  1  0  0  0  0
  6 16  1  0  0  0  0
  6 17  1  0  0  0  0
  7 13  1  0  0  0  0
  7 14  1  0  0  0  0
  7 18  1  0  0  0  0
  8 19  1  0  0  0  0
  8 20  1  0  0  0  0
M  END
> <PUBCHEM_COMPOUND_CID>
13008

> <PUBCHEM_COMPOUND_CANONICALIZED>
1

> <PUBCHEM_CACTVS_COMPLEXITY>
78.6

> <PUBCHEM_CACTVS_HBOND_ACCEPTOR>
2

> <PUBCHEM_CACTVS_HBOND_DONOR>
0

> <PUBCHEM_CACTVS_ROTATABLE_BOND>
0

> <PUBCHEM_CACTVS_SUBSKEYS>
AAADccBgMAAAAAAAAAAAAAAAAAAAAAAAAAAkAAAAAAAAAAAAAAAAGgAAAAAADESggAMCCAAABAAAAAAAAAAAAAAAAAAAAAAAAAAQAAAAAAAgAAAFAAAEAAAAAAAIAAAAAAAAAAAAAAAAAAAAAAAAAAAAAA==

> <PUBCHEM_IUPAC_OPENEYE_NAME>
4,4-dimethyl-1,3-dioxane

> <PUBCHEM_IUPAC_CAS_NAME>
4,4-dimethyl-1,3-dioxane

> <PUBCHEM_IUPAC_NAME>
4,4-dimethyl-1,3-dioxane

> <PUBCHEM_IUPAC_SYSTEMATIC_NAME>
4,4-dimethyl-1,3-dioxane

> <PUBCHEM_IUPAC_TRADITIONAL_NAME>
4,4-dimethyl-1,3-dioxane

> <PUBCHEM_IUPAC_INCHI>
InChI=1S/C6H12O2/c1-6(2)3-4-7-5-8-6/h3-5H2,1-2H3

> <PUBCHEM_IUPAC_INCHIKEY>
GDKSTFXHMBGCPG-UHFFFAOYSA-N

> <PUBCHEM_XLOGP3_AA>
0.8

> <PUBCHEM_EXACT_MASS>
116.08373

> <PUBCHEM_MOLECULAR_FORMULA>
C6H12O2

> <PUBCHEM_MOLECULAR_WEIGHT>
116.15828

> <PUBCHEM_OPENEYE_CAN_SMILES>
CC1(CCOCO1)C

> <PUBCHEM_OPENEYE_ISO_SMILES>
CC1(CCOCO1)C

> <PUBCHEM_CACTVS_TPSA>
18.5

> <PUBCHEM_MONOISOTOPIC_WEIGHT>
116.08373

> <PUBCHEM_TOTAL_CHARGE>
0

> <PUBCHEM_HEAVY_ATOM_COUNT>
8

> <PUBCHEM_ATOM_DEF_STEREO_COUNT>
0

> <PUBCHEM_ATOM_UDEF_STEREO_COUNT>
0

> <PUBCHEM_BOND_DEF_STEREO_COUNT>
0

> <PUBCHEM_BOND_UDEF_STEREO_COUNT>
0

> <PUBCHEM_ISOTOPIC_ATOM_COUNT>
0

> <PUBCHEM_COMPONENT_COUNT>
1

> <PUBCHEM_CACTVS_TAUTO_COUNT>
1

> <PUBCHEM_COORDINATE_TYPE>
1
5
255

$$$$

