   Color/Form

     * Practically colorless liquid
     * Crystals

   from [1]HSDB

   Odor

     * SLIGHTLY SULFUROUS ODOR
     * Distinctive garlic or oyster-like odor.

   from [2]HSDB

   Taste
        Slightly bitter taste with sweet after-taste.
   from [3]HSDB

   Boiling Point
        189 deg C
   from [4]HSDB

   Melting Point
        18.45 deg C
   from [5]HSDB

   Density/Specific Gravity
        1.100 at 20 deg C/4 deg C
   from [6]HSDB

   Heat of Combustion
        -10,890 Btu/lb = -6050 Cal/g
   from [7]HSDB

   Heat of Vaporization
        259 Btu/lb = 144 Cal/g
   from [8]HSDB

   Octanol/Water Partition Coefficient
        log Kow = -1.35
   from [9]HSDB

   Solubilities

     * Sol in ethanol, acetone, ether, benzene, chloroform
     * In water, miscible

   from [10]HSDB

   Spectral Properties

     * Index of refraction: 1.4795 at 20 deg C/D; 1.4787 at 21 deg C/D
     * Index refraction: 1.4770 at 20 deg C/D
     * SADTLER REF NUMBER: 7031 (IR, PRISM); 536 (IR, GRATING)
     * IR: 4358 (Coblentz Society Spectral Collection)
     * UV: 6-5 (Organic Electronic Spectral Data, Phillips et al, John
       Wiley & Sons, New York)
     * NMR: 535 (Sadtler Research Laboratories Spectral Collection)
     * 13C NMR: 158 (Stothers Carbon13 NMR Spectroscopy Academic Press,
       NY)
     * MASS: 19238 (NIST/EPA/MSDC Mass Spectral database, 1990 version)
     * Raman 28: (Dollish Characteristic Raman Frequencies of Organic
       Compounds John Wiley and Sons, New York)
     * Intense mass spectral peaks: 45 m/z, 63 m/z, 78 m/z

   from [11]HSDB

   Vapor Density
        2.71 (Air = 1)
   from [12]HSDB

   Vapor Pressure
        6.1X10-1 mm Hg at 25 deg C /Extrapolated/
   from [13]HSDB

   Viscosity
        2.47cP at 20 deg C
   from [14]HSDB

   Other Chemical/Physical Properties

     * PKa: 35.1; PkBH+ (aqueous sulfuric acid): -2.7
     * Very hygroscopic; dielectric constant: 45. Specific heat 0.7
       calorie/g (liquid); forms stable coordination complexes with metals
     * Heat of solution: -97 Btu/lb = -54 Cal/g
     * Heat of fusion: 13.5 KJ/mol; dipole moment= 1.4X10-29
     * VP: 0.42 mm at 20 deg C
     * Henry's Law constant = 1.51X10-9 atm-cu m/mol at 25 deg C
     * Hydroxyl radical reaction rate constant = 6.2X10-11 cu
       cm/molecules-sec at 25 deg C

   from [15]HSDB

   Computed Properties
   Molecular Weight                  78.13344 [g/mol]
   Molecular Formula                 C[2]H[6]OS
   XLogP3-AA                         -0.6
   H-Bond Donor                      0
   H-Bond Acceptor                   2
   Rotatable Bond Count              0
   Exact Mass                        78.013936
   MonoIsotopic Mass                 78.013936
   Topological Polar Surface Area    36.3
   Heavy Atom Count                  4
   Formal Charge                     0
   Complexity                        29
   Isotope Atom Count                0
   Defined Atom Stereocenter Count   0
   Undefined Atom Stereocenter Count 0
   Defined Bond Stereocenter Count   0
   Undefined Bond Stereocenter Count 0
   Covalently-Bonded Unit Count      1
   Feature 3D Acceptor Count         1
   Effective Rotor Count             0
   Conformer Sampling RMSD           0.4
   CID Conformer Count               [16]1

References

   1. http://toxnet.nlm.nih.gov/cgi-bin/sis/search/r?dbs+hsdb:@term+@rn+@rel+67-68-5
   2. http://toxnet.nlm.nih.gov/cgi-bin/sis/search/r?dbs+hsdb:@term+@rn+@rel+67-68-5
   3. http://toxnet.nlm.nih.gov/cgi-bin/sis/search/r?dbs+hsdb:@term+@rn+@rel+67-68-5
   4. http://toxnet.nlm.nih.gov/cgi-bin/sis/search/r?dbs+hsdb:@term+@rn+@rel+67-68-5
   5. http://toxnet.nlm.nih.gov/cgi-bin/sis/search/r?dbs+hsdb:@term+@rn+@rel+67-68-5
   6. http://toxnet.nlm.nih.gov/cgi-bin/sis/search/r?dbs+hsdb:@term+@rn+@rel+67-68-5
   7. http://toxnet.nlm.nih.gov/cgi-bin/sis/search/r?dbs+hsdb:@term+@rn+@rel+67-68-5
   8. http://toxnet.nlm.nih.gov/cgi-bin/sis/search/r?dbs+hsdb:@term+@rn+@rel+67-68-5
   9. http://toxnet.nlm.nih.gov/cgi-bin/sis/search/r?dbs+hsdb:@term+@rn+@rel+67-68-5
  10. http://toxnet.nlm.nih.gov/cgi-bin/sis/search/r?dbs+hsdb:@term+@rn+@rel+67-68-5
  11. http://toxnet.nlm.nih.gov/cgi-bin/sis/search/r?dbs+hsdb:@term+@rn+@rel+67-68-5
  12. http://toxnet.nlm.nih.gov/cgi-bin/sis/search/r?dbs+hsdb:@term+@rn+@rel+67-68-5
  13. http://toxnet.nlm.nih.gov/cgi-bin/sis/search/r?dbs+hsdb:@term+@rn+@rel+67-68-5
  14. http://toxnet.nlm.nih.gov/cgi-bin/sis/search/r?dbs+hsdb:@term+@rn+@rel+67-68-5
  15. http://toxnet.nlm.nih.gov/cgi-bin/sis/search/r?dbs+hsdb:@term+@rn+@rel+67-68-5
  16. http://pubchem.ncbi.nlm.nih.gov/vw3d/vw3d.cgi?cid=679
