46173881
  -OEChem-07051213102D

 64 64  0     1  0  0  0  0  0999 V2000
    7.1962   -2.8450    0.0000 S   0  0  0  0  0  0  0  0  0  0  0  0
    2.8660    5.6550    0.0000 S   0  0  3  0  0  0  0  0  0  0  0  0
    8.9282    0.1550    0.0000 S   0  0  0  0  0  0  0  0  0  0  0  0
    5.4641   -2.8450    0.0000 O   0  0  0  0  0  0  0  0  0  0  0  0
    5.4641   -5.8450    0.0000 O   0  0  0  0  0  0  0  0  0  0  0  0
    3.7320   -4.8450    0.0000 O   0  0  0  0  0  0  0  0  0  0  0  0
    7.1962   -4.8450    0.0000 O   0  0  0  0  0  0  0  0  0  0  0  0
    3.7320   -1.8450    0.0000 O   0  0  0  0  0  0  0  0  0  0  0  0
    8.0622   -0.3450    0.0000 O   0  0  0  0  0  0  0  0  0  0  0  0
    3.7320    6.1550    0.0000 O   0  0  0  0  0  0  0  0  0  0  0  0
    9.7942    0.6550    0.0000 O   0  0  0  0  0  0  0  0  0  0  0  0
    8.4282    1.0210    0.0000 O   0  0  0  0  0  0  0  0  0  0  0  0
    9.4282   -0.7110    0.0000 O   0  0  0  0  0  0  0  0  0  0  0  0
    8.0622   -1.3450    0.0000 N   0  0  0  0  0  0  0  0  0  0  0  0
    5.4641   -4.8450    0.0000 C   0  0  1  0  0  0  0  0  0  0  0  0
    4.5981   -4.3450    0.0000 C   0  0  1  0  0  0  0  0  0  0  0  0
    6.3301   -4.3450    0.0000 C   0  0  2  0  0  0  0  0  0  0  0  0
    4.5981   -3.3450    0.0000 C   0  0  1  0  0  0  0  0  0  0  0  0
    6.3301   -3.3450    0.0000 C   0  0  2  0  0  0  0  0  0  0  0  0
    3.7320   -2.8450    0.0000 C   0  0  0  0  0  0  0  0  0  0  0  0
    5.4641    0.1550    0.0000 C   0  0  0  0  0  0  0  0  0  0  0  0
    5.4641    1.1550    0.0000 C   0  0  0  0  0  0  0  0  0  0  0  0
    6.3301   -0.3450    0.0000 C   0  0  0  0  0  0  0  0  0  0  0  0
    4.5981    1.6550    0.0000 C   0  0  0  0  0  0  0  0  0  0  0  0
    6.3301   -1.3450    0.0000 C   0  0  0  0  0  0  0  0  0  0  0  0
    7.1962   -1.8450    0.0000 C   0  0  0  0  0  0  0  0  0  0  0  0
    4.5981    2.6550    0.0000 C   0  0  0  0  0  0  0  0  0  0  0  0
    3.7320    3.1550    0.0000 C   0  0  0  0  0  0  0  0  0  0  0  0
    3.7320    4.1550    0.0000 C   0  0  0  0  0  0  0  0  0  0  0  0
    2.8660    4.6550    0.0000 C   0  0  0  0  0  0  0  0  0  0  0  0
    2.0000    6.1550    0.0000 C   0  0  0  0  0  0  0  0  0  0  0  0
    6.0010   -5.1550    0.0000 H   0  0  0  0  0  0  0  0  0  0  0  0
    4.5981   -4.9650    0.0000 H   0  0  0  0  0  0  0  0  0  0  0  0
    6.8671   -4.0350    0.0000 H   0  0  0  0  0  0  0  0  0  0  0  0
    4.5981   -2.7250    0.0000 H   0  0  0  0  0  0  0  0  0  0  0  0
    6.8671   -3.6550    0.0000 H   0  0  0  0  0  0  0  0  0  0  0  0
    3.1215   -2.7373    0.0000 H   0  0  0  0  0  0  0  0  0  0  0  0
    3.5200   -3.4276    0.0000 H   0  0  0  0  0  0  0  0  0  0  0  0
    4.9272   -6.1550    0.0000 H   0  0  0  0  0  0  0  0  0  0  0  0
    3.1951   -4.5350    0.0000 H   0  0  0  0  0  0  0  0  0  0  0  0
    4.8535    0.2627    0.0000 H   0  0  0  0  0  0  0  0  0  0  0  0
    5.2520   -0.4276    0.0000 H   0  0  0  0  0  0  0  0  0  0  0  0
    6.0747    1.0473    0.0000 H   0  0  0  0  0  0  0  0  0  0  0  0
    5.6762    1.7376    0.0000 H   0  0  0  0  0  0  0  0  0  0  0  0
    7.7331   -4.5350    0.0000 H   0  0  0  0  0  0  0  0  0  0  0  0
    6.9407   -0.4527    0.0000 H   0  0  0  0  0  0  0  0  0  0  0  0
    6.5422    0.2376    0.0000 H   0  0  0  0  0  0  0  0  0  0  0  0
    3.9875    1.7627    0.0000 H   0  0  0  0  0  0  0  0  0  0  0  0
    4.3860    1.0724    0.0000 H   0  0  0  0  0  0  0  0  0  0  0  0
    5.7196   -1.2373    0.0000 H   0  0  0  0  0  0  0  0  0  0  0  0
    6.1181   -1.9276    0.0000 H   0  0  0  0  0  0  0  0  0  0  0  0
    5.2087    2.5473    0.0000 H   0  0  0  0  0  0  0  0  0  0  0  0
    4.8101    3.2376    0.0000 H   0  0  0  0  0  0  0  0  0  0  0  0
    3.1215    3.2627    0.0000 H   0  0  0  0  0  0  0  0  0  0  0  0
    3.5200    2.5724    0.0000 H   0  0  0  0  0  0  0  0  0  0  0  0
    4.3426    4.0473    0.0000 H   0  0  0  0  0  0  0  0  0  0  0  0
    3.9441    4.7376    0.0000 H   0  0  0  0  0  0  0  0  0  0  0  0
    3.1951   -1.5350    0.0000 H   0  0  0  0  0  0  0  0  0  0  0  0
    2.2554    4.7627    0.0000 H   0  0  0  0  0  0  0  0  0  0  0  0
    2.6540    4.0724    0.0000 H   0  0  0  0  0  0  0  0  0  0  0  0
    2.3100    6.6919    0.0000 H   0  0  0  0  0  0  0  0  0  0  0  0
    1.4631    6.4650    0.0000 H   0  0  0  0  0  0  0  0  0  0  0  0
    1.6900    5.6181    0.0000 H   0  0  0  0  0  0  0  0  0  0  0  0
    9.7942    1.2750    0.0000 H   0  0  0  0  0  0  0  0  0  0  0  0
 19  1  1  1  0  0  0
  1 26  1  0  0  0  0
  2 10  2  0  0  0  0
  2 30  1  0  0  0  0
  2 31  1  0  0  0  0
  3  9  1  0  0  0  0
  3 11  1  0  0  0  0
  3 12  2  0  0  0  0
  3 13  2  0  0  0  0
  4 18  1  0  0  0  0
  4 19  1  0  0  0  0
 15  5  1  1  0  0  0
  5 39  1  0  0  0  0
 16  6  1  6  0  0  0
  6 40  1  0  0  0  0
 17  7  1  6  0  0  0
  7 45  1  0  0  0  0
  8 20  1  0  0  0  0
  8 58  1  0  0  0  0
  9 14  1  0  0  0  0
 11 64  1  0  0  0  0
 14 26  2  3  0  0  0
 15 16  1  0  0  0  0
 15 17  1  0  0  0  0
 15 32  1  0  0  0  0
 16 18  1  0  0  0  0
 16 33  1  0  0  0  0
 17 19  1  0  0  0  0
 17 34  1  0  0  0  0
 18 20  1  1  0  0  0
 18 35  1  0  0  0  0
 19 36  1  0  0  0  0
 20 37  1  0  0  0  0
 20 38  1  0  0  0  0
 21 22  1  0  0  0  0
 21 23  1  0  0  0  0
 21 41  1  0  0  0  0
 21 42  1  0  0  0  0
 22 24  1  0  0  0  0
 22 43  1  0  0  0  0
 22 44  1  0  0  0  0
 23 25  1  0  0  0  0
 23 46  1  0  0  0  0
 23 47  1  0  0  0  0
 24 27  1  0  0  0  0
 24 48  1  0  0  0  0
 24 49  1  0  0  0  0
 25 26  1  0  0  0  0
 25 50  1  0  0  0  0
 25 51  1  0  0  0  0
 27 28  1  0  0  0  0
 27 52  1  0  0  0  0
 27 53  1  0  0  0  0
 28 29  1  0  0  0  0
 28 54  1  0  0  0  0
 28 55  1  0  0  0  0
 29 30  1  0  0  0  0
 29 56  1  0  0  0  0
 29 57  1  0  0  0  0
 30 59  1  0  0  0  0
 30 60  1  0  0  0  0
 31 61  1  0  0  0  0
 31 62  1  0  0  0  0
 31 63  1  0  0  0  0
M  END
> <PUBCHEM_COMPOUND_CID>
46173881

> <PUBCHEM_COMPOUND_CANONICALIZED>
1

> <PUBCHEM_CACTVS_COMPLEXITY>
670

> <PUBCHEM_CACTVS_HBOND_ACCEPTOR>
13

> <PUBCHEM_CACTVS_HBOND_DONOR>
5

> <PUBCHEM_CACTVS_ROTATABLE_BOND>
15

> <PUBCHEM_CACTVS_SUBSKEYS>
AAADcfB6PABgAAAAAAAAAAAAAAAAAAAAAAAkAAAAAAAAAAAAAAAAHgQECAAACBSlwAKCAAAQBoogAAAgAHBAAAAAABAAAAAwAAABEAIgAAACQAAFAAAjAAHA4IQAAAAAAAAAAAAAAAAAAAAAAAAAAAAAAA==

> <PUBCHEM_IUPAC_OPENEYE_NAME>
[(2S,3R,4S,5S,6R)-3,4,5-trihydroxy-6-(hydroxymethyl)tetrahydropyran-2-yl] 10-methylsulfinyl-N-sulfooxy-decanimidothioate

> <PUBCHEM_IUPAC_CAS_NAME>
10-methylsulfinyl-N-sulfooxydecanimidothioic acid [(2S,3R,4S,5S,6R)-3,4,5-trihydroxy-6-(hydroxymethyl)-2-oxanyl] ester

> <PUBCHEM_IUPAC_NAME>
[(2S,3R,4S,5S,6R)-3,4,5-trihydroxy-6-(hydroxymethyl)oxan-2-yl] 10-methylsulfinyl-N-sulfooxydecanimidothioate

> <PUBCHEM_IUPAC_SYSTEMATIC_NAME>
[(2S,3R,4S,5S,6R)-6-(hydroxymethyl)-3,4,5-tris(oxidanyl)oxan-2-yl] 10-methylsulfinyl-N-sulfooxy-decanimidothioate

> <PUBCHEM_IUPAC_TRADITIONAL_NAME>
10-methylsulfinyl-N-sulfoxy-thiocaprimidic acid [(2S,3R,4S,5S,6R)-3,4,5-trihydroxy-6-methylol-tetrahydropyran-2-yl] ester

> <PUBCHEM_IUPAC_INCHI>
InChI=1S/C17H33NO10S3/c1-30(23)10-8-6-4-2-3-5-7-9-13(18-28-31(24,25)26)29-17-16(22)15(21)14(20)12(11-19)27-17/h12,14-17,19-22H,2-11H2,1H3,(H,24,25,26)/t12-,14-,15+,16-,17+,30?/m1/s1

> <PUBCHEM_IUPAC_INCHIKEY>
UZAVCHRZWLGWMH-MMGVBZNLSA-N

> <PUBCHEM_XLOGP3_AA>
0.5

> <PUBCHEM_EXACT_MASS>
507.126659

> <PUBCHEM_MOLECULAR_FORMULA>
C17H33NO10S3

> <PUBCHEM_MOLECULAR_WEIGHT>
507.63962

> <PUBCHEM_OPENEYE_CAN_SMILES>
CS(=O)CCCCCCCCCC(=NOS(=O)(=O)O)SC1C(C(C(C(O1)CO)O)O)O

> <PUBCHEM_OPENEYE_ISO_SMILES>
CS(=O)CCCCCCCCCC(=NOS(=O)(=O)O)S[C@H]1[C@@H]([C@H]([C@@H]([C@H](O1)CO)O)O)O

> <PUBCHEM_CACTVS_TPSA>
236

> <PUBCHEM_MONOISOTOPIC_WEIGHT>
507.126659

> <PUBCHEM_TOTAL_CHARGE>
0

> <PUBCHEM_HEAVY_ATOM_COUNT>
31

> <PUBCHEM_ATOM_DEF_STEREO_COUNT>
5

> <PUBCHEM_ATOM_UDEF_STEREO_COUNT>
1

> <PUBCHEM_BOND_DEF_STEREO_COUNT>
0

> <PUBCHEM_BOND_UDEF_STEREO_COUNT>
1

> <PUBCHEM_ISOTOPIC_ATOM_COUNT>
0

> <PUBCHEM_COMPONENT_COUNT>
1

> <PUBCHEM_CACTVS_TAUTO_COUNT>
2

> <PUBCHEM_COORDINATE_TYPE>
1
5
255

> <PUBCHEM_BONDANNOTATIONS>
19  1  5
14  26  1
18  20  5
2  31  3
15  5  5
16  6  6
17  7  6

$$$$

