447145
  -OEChem-07051212482D

 49 51  0     1  0  0  0  0  0999 V2000
    8.1824    4.6134    0.0000 P   0  0  0  0  0  0  0  0  0  0  0  0
    7.5376    1.1602    0.0000 O   0  0  0  0  0  0  0  0  0  0  0  0
    9.8835    0.0684    0.0000 O   0  0  0  0  0  0  0  0  0  0  0  0
    9.8873    2.2440    0.0000 O   0  0  0  0  0  0  0  0  0  0  0  0
    8.4898    3.6618    0.0000 O   0  0  0  0  0  0  0  0  0  0  0  0
    7.8750    5.5650    0.0000 O   0  0  0  0  0  0  0  0  0  0  0  0
    9.1340    4.9208    0.0000 O   0  0  0  0  0  0  0  0  0  0  0  0
    7.2308    4.3060    0.0000 O   0  0  0  0  0  0  0  0  0  0  0  0
    4.2690   -5.4050    0.0000 O   0  0  0  0  0  0  0  0  0  0  0  0
    6.0010   -5.4050    0.0000 O   0  0  0  0  0  0  0  0  0  0  0  0
    2.5369   -3.4050    0.0000 O   0  0  0  0  0  0  0  0  0  0  0  0
    3.4030   -4.9050    0.0000 O   0  0  0  0  0  0  0  0  0  0  0  0
    7.8133   -0.6003    0.0000 N   0  0  0  0  0  0  0  0  0  0  0  0
    7.8133   -2.2098    0.0000 N   0  0  0  0  0  0  0  0  0  0  0  0
    6.0010   -0.4050    0.0000 N   0  0  0  0  0  0  0  0  0  0  0  0
    6.0010   -3.4050    0.0000 N   0  0  0  0  0  0  0  0  0  0  0  0
    5.1350   -1.9050    0.0000 N   0  0  0  0  0  0  0  0  0  0  0  0
    9.0755    0.6576    0.0000 C   0  0  2  0  0  0  0  0  0  0  0  0
    9.0773    1.6576    0.0000 C   0  0  1  0  0  0  0  0  0  0  0  0
    8.1240    0.3502    0.0000 C   0  0  1  0  0  0  0  0  0  0  0  0
    8.1268    1.9682    0.0000 C   0  0  1  0  0  0  0  0  0  0  0  0
    7.8194    2.9198    0.0000 C   0  0  0  0  0  0  0  0  0  0  0  0
    6.8671   -0.9050    0.0000 C   0  0  0  0  0  0  0  0  0  0  0  0
    8.3969   -1.4050    0.0000 C   0  0  0  0  0  0  0  0  0  0  0  0
    6.8671   -1.9050    0.0000 C   0  0  0  0  0  0  0  0  0  0  0  0
    6.0010   -2.4050    0.0000 C   0  0  0  0  0  0  0  0  0  0  0  0
    5.1350   -3.9050    0.0000 C   0  0  1  0  0  0  0  0  0  0  0  0
    5.1350   -0.9050    0.0000 C   0  0  0  0  0  0  0  0  0  0  0  0
    4.2690   -3.4050    0.0000 C   0  0  0  0  0  0  0  0  0  0  0  0
    5.1350   -4.9050    0.0000 C   0  0  0  0  0  0  0  0  0  0  0  0
    3.4030   -3.9050    0.0000 C   0  0  0  0  0  0  0  0  0  0  0  0
    9.6284    0.9381    0.0000 H   0  0  0  0  0  0  0  0  0  0  0  0
    8.9813    2.2701    0.0000 H   0  0  0  0  0  0  0  0  0  0  0  0
    8.5616   -0.0889    0.0000 H   0  0  0  0  0  0  0  0  0  0  0  0
    7.5146    2.0663    0.0000 H   0  0  0  0  0  0  0  0  0  0  0  0
    7.4385    3.4091    0.0000 H   0  0  0  0  0  0  0  0  0  0  0  0
    7.2714    2.6297    0.0000 H   0  0  0  0  0  0  0  0  0  0  0  0
   10.4504    0.3196    0.0000 H   0  0  0  0  0  0  0  0  0  0  0  0
   10.4533    1.9908    0.0000 H   0  0  0  0  0  0  0  0  0  0  0  0
    9.0169   -1.4050    0.0000 H   0  0  0  0  0  0  0  0  0  0  0  0
    6.5380   -3.7150    0.0000 H   0  0  0  0  0  0  0  0  0  0  0  0
    5.1350   -3.2850    0.0000 H   0  0  0  0  0  0  0  0  0  0  0  0
    4.5981   -0.5950    0.0000 H   0  0  0  0  0  0  0  0  0  0  0  0
    4.6675   -2.9301    0.0000 H   0  0  0  0  0  0  0  0  0  0  0  0
    3.8705   -2.9301    0.0000 H   0  0  0  0  0  0  0  0  0  0  0  0
    8.2907    6.0250    0.0000 H   0  0  0  0  0  0  0  0  0  0  0  0
    9.2640    5.5270    0.0000 H   0  0  0  0  0  0  0  0  0  0  0  0
    4.2690   -6.0250    0.0000 H   0  0  0  0  0  0  0  0  0  0  0  0
    2.0000   -3.7150    0.0000 H   0  0  0  0  0  0  0  0  0  0  0  0
  1  5  1  0  0  0  0
  1  6  1  0  0  0  0
  1  7  1  0  0  0  0
  1  8  2  0  0  0  0
  2 20  1  0  0  0  0
  2 21  1  0  0  0  0
 18  3  1  1  0  0  0
  3 38  1  0  0  0  0
 19  4  1  1  0  0  0
  4 39  1  0  0  0  0
  5 22  1  0  0  0  0
  6 46  1  0  0  0  0
  7 47  1  0  0  0  0
  9 30  1  0  0  0  0
  9 48  1  0  0  0  0
 10 30  2  0  0  0  0
 11 31  1  0  0  0  0
 11 49  1  0  0  0  0
 12 31  2  0  0  0  0
 20 13  1  6  0  0  0
 13 23  1  0  0  0  0
 13 24  1  0  0  0  0
 14 24  2  0  0  0  0
 14 25  1  0  0  0  0
 15 23  1  0  0  0  0
 15 28  2  0  0  0  0
 16 26  1  0  0  0  0
 27 16  1  6  0  0  0
 16 41  1  0  0  0  0
 17 26  2  0  0  0  0
 17 28  1  0  0  0  0
 18 19  1  0  0  0  0
 18 20  1  0  0  0  0
 18 32  1  0  0  0  0
 19 21  1  0  0  0  0
 19 33  1  0  0  0  0
 20 34  1  0  0  0  0
 21 22  1  6  0  0  0
 21 35  1  0  0  0  0
 22 36  1  0  0  0  0
 22 37  1  0  0  0  0
 23 25  2  0  0  0  0
 24 40  1  0  0  0  0
 25 26  1  0  0  0  0
 27 29  1  0  0  0  0
 27 30  1  0  0  0  0
 27 42  1  0  0  0  0
 28 43  1  0  0  0  0
 29 31  1  0  0  0  0
 29 44  1  0  0  0  0
 29 45  1  0  0  0  0
M  END
> <PUBCHEM_COMPOUND_CID>
447145

> <PUBCHEM_COMPOUND_CANONICALIZED>
1

> <PUBCHEM_CACTVS_COMPLEXITY>
725

> <PUBCHEM_CACTVS_HBOND_ACCEPTOR>
15

> <PUBCHEM_CACTVS_HBOND_DONOR>
7

> <PUBCHEM_CACTVS_ROTATABLE_BOND>
9

> <PUBCHEM_CACTVS_SUBSKEYS>
AAADceBzvAIAAAAAAAAAAAAAAAAAAWJAAAAsAAAAAAAAAFgB+AAAHgAQCCAACDzhlwYF+L/MFxCoQQbxbICAgC0REKABUKGoVBCDWBpAyGAeRAgPEALTACDzMAIAAAAAAAAAAAAAAAAAAAAAAAAAAAAAAA==

> <PUBCHEM_IUPAC_OPENEYE_NAME>
(2S)-2-[[9-[(2R,3R,4S,5R)-3,4-dihydroxy-5-(phosphonooxymethyl)tetrahydrofuran-2-yl]purin-6-yl]amino]butanedioic acid

> <PUBCHEM_IUPAC_CAS_NAME>
(2S)-2-[[9-[(2R,3R,4S,5R)-3,4-dihydroxy-5-(phosphonooxymethyl)-2-oxolanyl]-6-purinyl]amino]butanedioic acid

> <PUBCHEM_IUPAC_NAME>
(2S)-2-[[9-[(2R,3R,4S,5R)-3,4-dihydroxy-5-(phosphonooxymethyl)oxolan-2-yl]purin-6-yl]amino]butanedioic acid

> <PUBCHEM_IUPAC_SYSTEMATIC_NAME>
(2S)-2-[[9-[(2R,3R,4S,5R)-3,4-bis(oxidanyl)-5-(phosphonooxymethyl)oxolan-2-yl]purin-6-yl]amino]butanedioic acid

> <PUBCHEM_IUPAC_TRADITIONAL_NAME>
(2S)-2-[[9-[(2R,3R,4S,5R)-3,4-dihydroxy-5-(phosphonooxymethyl)tetrahydrofuran-2-yl]purin-6-yl]amino]succinic acid

> <PUBCHEM_IUPAC_INCHI>
InChI=1S/C14H18N5O11P/c20-7(21)1-5(14(24)25)18-11-8-12(16-3-15-11)19(4-17-8)13-10(23)9(22)6(30-13)2-29-31(26,27)28/h3-6,9-10,13,22-23H,1-2H2,(H,20,21)(H,24,25)(H,15,16,18)(H2,26,27,28)/t5-,6+,9+,10+,13+/m0/s1

> <PUBCHEM_IUPAC_INCHIKEY>
OFBHPPMPBOJXRT-VWJPMABRSA-N

> <PUBCHEM_XLOGP3>
-3.2

> <PUBCHEM_EXACT_MASS>
463.074043

> <PUBCHEM_MOLECULAR_FORMULA>
C14H18N5O11P

> <PUBCHEM_MOLECULAR_WEIGHT>
463.293382

> <PUBCHEM_OPENEYE_CAN_SMILES>
C1=NC2=C(C(=N1)NC(CC(=O)O)C(=O)O)N=CN2C3C(C(C(O3)COP(=O)(O)O)O)O

> <PUBCHEM_OPENEYE_ISO_SMILES>
C1=NC2=C(C(=N1)N[C@@H](CC(=O)O)C(=O)O)N=CN2[C@H]3[C@@H]([C@@H]([C@H](O3)COP(=O)(O)O)O)O

> <PUBCHEM_CACTVS_TPSA>
247

> <PUBCHEM_MONOISOTOPIC_WEIGHT>
463.074043

> <PUBCHEM_TOTAL_CHARGE>
0

> <PUBCHEM_HEAVY_ATOM_COUNT>
31

> <PUBCHEM_ATOM_DEF_STEREO_COUNT>
5

> <PUBCHEM_ATOM_UDEF_STEREO_COUNT>
0

> <PUBCHEM_BOND_DEF_STEREO_COUNT>
0

> <PUBCHEM_BOND_UDEF_STEREO_COUNT>
0

> <PUBCHEM_ISOTOPIC_ATOM_COUNT>
0

> <PUBCHEM_COMPONENT_COUNT>
1

> <PUBCHEM_CACTVS_TAUTO_COUNT>
3

> <PUBCHEM_COORDINATE_TYPE>
1
5
255

> <PUBCHEM_BONDANNOTATIONS>
20  13  6
13  23  8
13  24  8
14  24  8
14  25  8
15  23  8
15  28  8
27  16  6
17  26  8
17  28  8
21  22  6
23  25  8
25  26  8
18  3  5
19  4  5

$$$$

