   Color/Form

     * White to greyish brown, crystalline powder
     * Crystals from alcohol

   from [1]HSDB

   Odor
        Odorless
   from [2]HSDB

   Melting Point
        184 deg C
   from [3]HSDB

   Corrosivity
        Non-corrosive
   from [4]HSDB

   Dissociation Constants
        No dissociation in range of pH 1 to 12 (25 deg C)
   from [5]HSDB

   Octanol/Water Partition Coefficient
        log Kow = 2.30
   from [6]HSDB

   Solubilities

     * Sparingly soluble in hydrocarbons.
     * Solubility at 25 deg C: acetone 50 g/L; ethanol 142 g/L; xylene 2.5
       g/L
     * In water, 33.7 mg/L at 25 deg C

   from [7]HSDB

   Vapor Pressure
        2.89X10-8 mm Hg at 25 deg C
   from [8]HSDB

   Other Chemical/Physical Properties

     * MP: 177 deg C. VP: 2X10-9 torr at 20 deg C
     * Henry's Law constant = 3.43X10-10 atm-cu m/mol at 25 deg C (est)
     * Hydroxyl radical reaction rate constant = 9.93X10-12 cu
       cm/molec-sec at 25 deg C (est)
     * Ozone reaction rate constant = 1.6X10-16 cu cm/molec-sec at 25 deg
       C (est)

   from [9]HSDB

   Computed Properties
   Molecular Weight                  303.66757 [g/mol]
   Molecular Formula                 C[12]H[9]ClF[3]N[3]O
   XLogP3                            2.3
   H-Bond Donor                      1
   H-Bond Acceptor                   6
   Rotatable Bond Count              2
   Tautomer Count                    3
   Exact Mass                        303.038624
   MonoIsotopic Mass                 303.038624
   Topological Polar Surface Area    44.7
   Heavy Atom Count                  20
   Formal Charge                     0
   Complexity                        461
   Isotope Atom Count                0
   Defined Atom Stereocenter Count   0
   Undefined Atom Stereocenter Count 0
   Defined Bond Stereocenter Count   0
   Undefined Bond Stereocenter Count 0
   Covalently-Bonded Unit Count      1
   Feature 3D Acceptor Count         2
   Feature 3D Donor Count            1
   Feature 3D Cation Count           1
   Feature 3D Ring Count             2
   Effective Rotor Count             3
   Conformer Sampling RMSD           0.6
   CID Conformer Count               [10]7

References

   1. http://toxnet.nlm.nih.gov/cgi-bin/sis/search/r?dbs+hsdb:@term+@rn+@rel+27314-13-2
   2. http://toxnet.nlm.nih.gov/cgi-bin/sis/search/r?dbs+hsdb:@term+@rn+@rel+27314-13-2
   3. http://toxnet.nlm.nih.gov/cgi-bin/sis/search/r?dbs+hsdb:@term+@rn+@rel+27314-13-2
   4. http://toxnet.nlm.nih.gov/cgi-bin/sis/search/r?dbs+hsdb:@term+@rn+@rel+27314-13-2
   5. http://toxnet.nlm.nih.gov/cgi-bin/sis/search/r?dbs+hsdb:@term+@rn+@rel+27314-13-2
   6. http://toxnet.nlm.nih.gov/cgi-bin/sis/search/r?dbs+hsdb:@term+@rn+@rel+27314-13-2
   7. http://toxnet.nlm.nih.gov/cgi-bin/sis/search/r?dbs+hsdb:@term+@rn+@rel+27314-13-2
   8. http://toxnet.nlm.nih.gov/cgi-bin/sis/search/r?dbs+hsdb:@term+@rn+@rel+27314-13-2
   9. http://toxnet.nlm.nih.gov/cgi-bin/sis/search/r?dbs+hsdb:@term+@rn+@rel+27314-13-2
  10. http://pubchem.ncbi.nlm.nih.gov/vw3d/vw3d.cgi?cid=33775
