443057
  -OEChem-07051213012D

 83 86  0     1  0  0  0  0  0999 V2000
    8.6320    3.8552    0.0000 O   0  0  0  0  0  0  0  0  0  0  0  0
   12.5136    0.9946    0.0000 O   0  0  0  0  0  0  0  0  0  0  0  0
    4.5442   -0.4398    0.0000 O   0  0  0  0  0  0  0  0  0  0  0  0
   12.9694    2.9916    0.0000 O   0  0  0  0  0  0  0  0  0  0  0  0
   10.0659    4.7562    0.0000 O   0  0  0  0  0  0  0  0  0  0  0  0
    5.7304   -2.8047    0.0000 O   0  0  0  0  0  0  0  0  0  0  0  0
    2.5967   -4.5879    0.0000 O   0  0  0  0  0  0  0  0  0  0  0  0
    7.4312    0.4857    0.0000 C   0  0  1  0  0  0  0  0  0  0  0  0
    7.3614    1.5250    0.0000 C   0  0  2  0  0  0  0  0  0  0  0  0
    8.2310    2.0985    0.0000 C   0  0  1  0  0  0  0  0  0  0  0  0
    9.1320    1.6646    0.0000 C   0  0  1  0  0  0  0  0  0  0  0  0
    6.4691    0.1030    0.0000 C   0  0  2  0  0  0  0  0  0  0  0  0
   10.0329    2.0985    0.0000 C   0  0  2  0  0  0  0  0  0  0  0  0
    8.3697    0.0338    0.0000 C   0  0  0  0  0  0  0  0  0  0  0  0
    6.3567    1.7756    0.0000 C   0  0  0  0  0  0  0  0  0  0  0  0
    9.2258    0.6272    0.0000 C   0  0  0  0  0  0  0  0  0  0  0  0
    5.8064    0.8985    0.0000 C   0  0  0  0  0  0  0  0  0  0  0  0
    6.2229   -0.8663    0.0000 C   0  0  1  0  0  0  0  0  0  0  0  0
   10.2555    3.0734    0.0000 C   0  0  2  0  0  0  0  0  0  0  0  0
    7.4983   -0.5120    0.0000 C   0  0  0  0  0  0  0  0  0  0  0  0
    8.0085    3.0734    0.0000 C   0  0  0  0  0  0  0  0  0  0  0  0
   10.7855    1.3783    0.0000 C   0  0  0  0  0  0  0  0  0  0  0  0
    9.8104    1.1235    0.0000 C   0  0  0  0  0  0  0  0  0  0  0  0
   11.2460    3.3957    0.0000 C   0  0  0  0  0  0  0  0  0  0  0  0
   11.7832    1.6776    0.0000 C   0  0  2  0  0  0  0  0  0  0  0  0
    5.2604   -1.1376    0.0000 C   0  0  2  0  0  0  0  0  0  0  0  0
   12.0150    2.6931    0.0000 C   0  0  1  0  0  0  0  0  0  0  0  0
    9.6320    3.8552    0.0000 C   0  0  0  0  0  0  0  0  0  0  0  0
    6.9391   -1.5641    0.0000 C   0  0  0  0  0  0  0  0  0  0  0  0
    5.0142   -2.1068    0.0000 C   0  0  1  0  0  0  0  0  0  0  0  0
    4.0517   -2.3782    0.0000 C   0  0  1  0  0  0  0  0  0  0  0  0
    3.8055   -3.3474    0.0000 C   0  0  3  0  0  0  0  0  0  0  0  0
    3.3355   -1.6803    0.0000 C   0  0  0  0  0  0  0  0  0  0  0  0
    2.8430   -3.6187    0.0000 C   0  0  0  0  0  0  0  0  0  0  0  0
    4.5217   -4.0452    0.0000 C   0  0  0  0  0  0  0  0  0  0  0  0
    7.2182    2.3629    0.0000 H   0  0  0  0  0  0  0  0  0  0  0  0
    8.8956    2.6284    0.0000 H   0  0  0  0  0  0  0  0  0  0  0  0
    9.8713    1.2453    0.0000 H   0  0  0  0  0  0  0  0  0  0  0  0
    5.6402   -0.0849    0.0000 H   0  0  0  0  0  0  0  0  0  0  0  0
    8.0091   -0.4705    0.0000 H   0  0  0  0  0  0  0  0  0  0  0  0
    8.8049   -0.4078    0.0000 H   0  0  0  0  0  0  0  0  0  0  0  0
    6.5692    2.3581    0.0000 H   0  0  0  0  0  0  0  0  0  0  0  0
    5.7998    2.0482    0.0000 H   0  0  0  0  0  0  0  0  0  0  0  0
    9.4866    0.0647    0.0000 H   0  0  0  0  0  0  0  0  0  0  0  0
    9.8246    0.7879    0.0000 H   0  0  0  0  0  0  0  0  0  0  0  0
    5.3188    1.2814    0.0000 H   0  0  0  0  0  0  0  0  0  0  0  0
    5.3744    0.4539    0.0000 H   0  0  0  0  0  0  0  0  0  0  0  0
    6.0702   -1.4672    0.0000 H   0  0  0  0  0  0  0  0  0  0  0  0
   10.4997    3.8875    0.0000 H   0  0  0  0  0  0  0  0  0  0  0  0
    6.8797   -0.5536    0.0000 H   0  0  0  0  0  0  0  0  0  0  0  0
    7.5399   -1.1306    0.0000 H   0  0  0  0  0  0  0  0  0  0  0  0
    8.1169   -0.4704    0.0000 H   0  0  0  0  0  0  0  0  0  0  0  0
    7.6219    3.5581    0.0000 H   0  0  0  0  0  0  0  0  0  0  0  0
    7.4499    2.8044    0.0000 H   0  0  0  0  0  0  0  0  0  0  0  0
   10.2865    1.0103    0.0000 H   0  0  0  0  0  0  0  0  0  0  0  0
   11.0627    0.8237    0.0000 H   0  0  0  0  0  0  0  0  0  0  0  0
    9.2060    1.2615    0.0000 H   0  0  0  0  0  0  0  0  0  0  0  0
    9.6724    0.5191    0.0000 H   0  0  0  0  0  0  0  0  0  0  0  0
   10.4149    0.9856    0.0000 H   0  0  0  0  0  0  0  0  0  0  0  0
   11.7363    3.7751    0.0000 H   0  0  0  0  0  0  0  0  0  0  0  0
   10.9560    3.9438    0.0000 H   0  0  0  0  0  0  0  0  0  0  0  0
   11.6417    1.0740    0.0000 H   0  0  0  0  0  0  0  0  0  0  0  0
    5.4131   -0.5367    0.0000 H   0  0  0  0  0  0  0  0  0  0  0  0
   12.4703    2.2723    0.0000 H   0  0  0  0  0  0  0  0  0  0  0  0
    6.5065   -2.0082    0.0000 H   0  0  0  0  0  0  0  0  0  0  0  0
    7.3832   -1.9968    0.0000 H   0  0  0  0  0  0  0  0  0  0  0  0
    7.3718   -1.1200    0.0000 H   0  0  0  0  0  0  0  0  0  0  0  0
    5.6109   -1.9386    0.0000 H   0  0  0  0  0  0  0  0  0  0  0  0
   13.1068    1.1751    0.0000 H   0  0  0  0  0  0  0  0  0  0  0  0
    3.4550   -2.5464    0.0000 H   0  0  0  0  0  0  0  0  0  0  0  0
    3.9474   -0.6080    0.0000 H   0  0  0  0  0  0  0  0  0  0  0  0
   13.1050    3.5966    0.0000 H   0  0  0  0  0  0  0  0  0  0  0  0
    3.5962   -4.1712    0.0000 H   0  0  0  0  0  0  0  0  0  0  0  0
    5.5778   -3.4056    0.0000 H   0  0  0  0  0  0  0  0  0  0  0  0
    3.7681   -1.2362    0.0000 H   0  0  0  0  0  0  0  0  0  0  0  0
    2.8914   -1.2476    0.0000 H   0  0  0  0  0  0  0  0  0  0  0  0
    2.9028   -2.1244    0.0000 H   0  0  0  0  0  0  0  0  0  0  0  0
    2.7809   -3.0018    0.0000 H   0  0  0  0  0  0  0  0  0  0  0  0
    2.2247   -3.5727    0.0000 H   0  0  0  0  0  0  0  0  0  0  0  0
    4.0890   -4.4893    0.0000 H   0  0  0  0  0  0  0  0  0  0  0  0
    4.9658   -4.4779    0.0000 H   0  0  0  0  0  0  0  0  0  0  0  0
    4.9544   -3.6012    0.0000 H   0  0  0  0  0  0  0  0  0  0  0  0
    2.0000   -4.7562    0.0000 H   0  0  0  0  0  0  0  0  0  0  0  0
  1 21  1  0  0  0  0
  1 28  1  0  0  0  0
 25  2  1  6  0  0  0
  2 69  1  0  0  0  0
 26  3  1  6  0  0  0
  3 71  1  0  0  0  0
 27  4  1  6  0  0  0
  4 72  1  0  0  0  0
  5 28  2  0  0  0  0
 30  6  1  6  0  0  0
  6 74  1  0  0  0  0
  7 34  1  0  0  0  0
  7 83  1  0  0  0  0
  8  9  1  0  0  0  0
  8 12  1  0  0  0  0
  8 14  1  0  0  0  0
  8 20  1  1  0  0  0
  9 10  1  0  0  0  0
  9 15  1  0  0  0  0
  9 36  1  6  0  0  0
 10 11  1  0  0  0  0
 10 21  1  0  0  0  0
 10 37  1  1  0  0  0
 11 13  1  0  0  0  0
 11 16  1  0  0  0  0
 11 38  1  6  0  0  0
 12 17  1  0  0  0  0
 12 18  1  0  0  0  0
 12 39  1  6  0  0  0
 13 19  1  0  0  0  0
 13 22  1  0  0  0  0
 13 23  1  1  0  0  0
 14 16  1  0  0  0  0
 14 40  1  0  0  0  0
 14 41  1  0  0  0  0
 15 17  1  0  0  0  0
 15 42  1  0  0  0  0
 15 43  1  0  0  0  0
 16 44  1  0  0  0  0
 16 45  1  0  0  0  0
 17 46  1  0  0  0  0
 17 47  1  0  0  0  0
 18 26  1  0  0  0  0
 18 29  1  6  0  0  0
 18 48  1  0  0  0  0
 19 24  1  0  0  0  0
 19 28  1  0  0  0  0
 19 49  1  6  0  0  0
 20 50  1  0  0  0  0
 20 51  1  0  0  0  0
 20 52  1  0  0  0  0
 21 53  1  0  0  0  0
 21 54  1  0  0  0  0
 22 25  1  0  0  0  0
 22 55  1  0  0  0  0
 22 56  1  0  0  0  0
 23 57  1  0  0  0  0
 23 58  1  0  0  0  0
 23 59  1  0  0  0  0
 24 27  1  0  0  0  0
 24 60  1  0  0  0  0
 24 61  1  0  0  0  0
 25 27  1  0  0  0  0
 25 62  1  0  0  0  0
 26 30  1  0  0  0  0
 26 63  1  0  0  0  0
 27 64  1  0  0  0  0
 29 65  1  0  0  0  0
 29 66  1  0  0  0  0
 29 67  1  0  0  0  0
 30 31  1  0  0  0  0
 30 68  1  0  0  0  0
 31 32  1  0  0  0  0
 31 33  1  1  0  0  0
 31 70  1  0  0  0  0
 32 34  1  0  0  0  0
 32 35  1  0  0  0  0
 32 73  1  0  0  0  0
 33 75  1  0  0  0  0
 33 76  1  0  0  0  0
 33 77  1  0  0  0  0
 34 78  1  0  0  0  0
 34 79  1  0  0  0  0
 35 80  1  0  0  0  0
 35 81  1  0  0  0  0
 35 82  1  0  0  0  0
M  END
> <PUBCHEM_COMPOUND_CID>
443057

> <PUBCHEM_COMPOUND_CANONICALIZED>
1

> <PUBCHEM_CACTVS_COMPLEXITY>
774

> <PUBCHEM_CACTVS_HBOND_ACCEPTOR>
7

> <PUBCHEM_CACTVS_HBOND_DONOR>
5

> <PUBCHEM_CACTVS_ROTATABLE_BOND>
6

> <PUBCHEM_CACTVS_SUBSKEYS>
AAADcfB4OAAAAAAAAAAAAAAAAAAAAYAAAAAwYAAABIAAAGAAAAAAGgAACAAADxSggAICCAAABgAIAACQCAAAAAAAAAAAAAEAAAABEBIAAAACQAAEAAABAAHK7PzPgAAAAAAAAADAAAYAACCAAQAACAAAAA==

> <PUBCHEM_IUPAC_INCHI>
InChI=1S/C28H48O7/c1-14(12-29)15(2)24(32)25(33)16(3)18-6-7-19-17-13-35-26(34)21-10-22(30)23(31)11-28(21,5)20(17)8-9-27(18,19)4/h14-25,29-33H,6-13H2,1-5H3/t14?,15-,16+,17+,18-,19+,20+,21-,22+,23-,24-,25-,27-,28-/m1/s1

> <PUBCHEM_IUPAC_INCHIKEY>
WPKOZIBAIWHRJZ-SMYQFUGUSA-N

> <PUBCHEM_XLOGP3_AA>
3.6

> <PUBCHEM_EXACT_MASS>
496.340004

> <PUBCHEM_MOLECULAR_FORMULA>
C28H48O7

> <PUBCHEM_MOLECULAR_WEIGHT>
496.67652

> <PUBCHEM_OPENEYE_CAN_SMILES>
CC(CO)C(C)C(C(C(C)C1CCC2C1(CCC3C2COC(=O)C4C3(CC(C(C4)O)O)C)C)O)O

> <PUBCHEM_OPENEYE_ISO_SMILES>
C[C@@H]([C@H]1CC[C@@H]2[C@@]1(CC[C@H]3[C@H]2COC(=O)[C@@H]4[C@@]3(C[C@H]([C@H](C4)O)O)C)C)[C@H]([C@@H]([C@H](C)C(C)CO)O)O

> <PUBCHEM_CACTVS_TPSA>
127

> <PUBCHEM_MONOISOTOPIC_WEIGHT>
496.340004

> <PUBCHEM_TOTAL_CHARGE>
0

> <PUBCHEM_HEAVY_ATOM_COUNT>
35

> <PUBCHEM_ATOM_DEF_STEREO_COUNT>
13

> <PUBCHEM_ATOM_UDEF_STEREO_COUNT>
1

> <PUBCHEM_BOND_DEF_STEREO_COUNT>
0

> <PUBCHEM_BOND_UDEF_STEREO_COUNT>
0

> <PUBCHEM_ISOTOPIC_ATOM_COUNT>
0

> <PUBCHEM_COMPONENT_COUNT>
1

> <PUBCHEM_CACTVS_TAUTO_COUNT>
2

> <PUBCHEM_COORDINATE_TYPE>
1
5
255

> <PUBCHEM_BONDANNOTATIONS>
10  37  5
11  38  6
12  39  6
13  23  5
18  29  6
19  49  6
25  2  6
26  3  6
31  33  5
32  73  3
27  4  6
30  6  6
8  20  5
9  36  6

$$$$

