56928063
  -OEChem-07051212482D

 78 81  0     1  0  0  0  0  0999 V2000
    3.3100   -4.8042    0.0000 P   0  0  0  0  0  0  0  0  0  0  0  0
    6.7171    0.2836    0.0000 O   0  0  0  0  0  0  0  0  0  0  0  0
    5.0991    0.2836    0.0000 O   0  0  0  0  0  0  0  0  0  0  0  0
    5.0420   -0.8042    0.0000 O   0  0  0  0  0  0  0  0  0  0  0  0
    6.4289    3.0346    0.0000 O   0  0  0  0  0  0  0  0  0  0  0  0
    7.9427    2.1170    0.0000 O   0  0  0  0  0  0  0  0  0  0  0  0
    3.8735    2.1170    0.0000 O   0  0  0  0  0  0  0  0  0  0  0  0
    7.6401   -0.3042    0.0000 O   0  0  0  0  0  0  0  0  0  0  0  0
    7.6401   -2.3042    0.0000 O   0  0  0  0  0  0  0  0  0  0  0  0
    5.9081   -3.3042    0.0000 O   0  0  0  0  0  0  0  0  0  0  0  0
    9.9425    2.0939    0.0000 O   0  0  0  0  0  0  0  0  0  0  0  0
    6.9628    3.8605    0.0000 O   0  0  0  0  0  0  0  0  0  0  0  0
    5.3806    4.7667    0.0000 O   0  0  0  0  0  0  0  0  0  0  0  0
    3.3100   -3.8042    0.0000 O   0  0  0  0  0  0  0  0  0  0  0  0
    3.3100   -5.8042    0.0000 O   0  0  0  0  0  0  0  0  0  0  0  0
    2.3100   -4.8042    0.0000 O   0  0  0  0  0  0  0  0  0  0  0  0
    4.3100   -4.8042    0.0000 O   0  0  0  0  0  0  0  0  0  0  0  0
   10.9625    3.8143    0.0000 N   0  0  0  0  0  0  0  0  0  0  0  0
    7.9827    5.5809    0.0000 N   0  0  0  0  0  0  0  0  0  0  0  0
    3.3100   -1.8042    0.0000 N   0  0  0  0  0  0  0  0  0  0  0  0
    6.4081    1.2346    0.0000 C   0  0  1  0  0  0  0  0  0  0  0  0
    5.4081    1.2346    0.0000 C   0  0  2  0  0  0  0  0  0  0  0  0
    5.9081   -0.3042    0.0000 C   0  0  3  0  0  0  0  0  0  0  0  0
    6.9427    2.1286    0.0000 C   0  0  1  0  0  0  0  0  0  0  0  0
    4.8734    2.1286    0.0000 C   0  0  2  0  0  0  0  0  0  0  0  0
    6.7741   -0.8042    0.0000 C   0  0  1  0  0  0  0  0  0  0  0  0
    5.3873    3.0346    0.0000 C   0  0  1  0  0  0  0  0  0  0  0  0
    8.4526    2.9772    0.0000 C   0  0  1  0  0  0  0  0  0  0  0  0
    6.7741   -1.8042    0.0000 C   0  0  2  0  0  0  0  0  0  0  0  0
    5.0420   -1.8042    0.0000 C   0  0  1  0  0  0  0  0  0  0  0  0
    5.9081   -2.3042    0.0000 C   0  0  2  0  0  0  0  0  0  0  0  0
    9.4526    2.9656    0.0000 C   0  0  1  0  0  0  0  0  0  0  0  0
    7.9627    3.8490    0.0000 C   0  0  2  0  0  0  0  0  0  0  0  0
    9.9626    3.8258    0.0000 C   0  0  2  0  0  0  0  0  0  0  0  0
    8.4727    4.7091    0.0000 C   0  0  1  0  0  0  0  0  0  0  0  0
    9.4726    4.6976    0.0000 C   0  0  0  0  0  0  0  0  0  0  0  0
    4.1760   -2.3042    0.0000 C   0  0  2  0  0  0  0  0  0  0  0  0
    4.8839    3.8987    0.0000 C   0  0  0  0  0  0  0  0  0  0  0  0
    4.1760   -3.3042    0.0000 C   0  0  0  0  0  0  0  0  0  0  0  0
   11.4725    4.6744    0.0000 C   0  0  0  0  0  0  0  0  0  0  0  0
    7.2527    1.1393    0.0000 H   0  0  0  0  0  0  0  0  0  0  0  0
    4.5634    1.1393    0.0000 H   0  0  0  0  0  0  0  0  0  0  0  0
    7.2455    1.5875    0.0000 H   0  0  0  0  0  0  0  0  0  0  0  0
    4.5583    2.6625    0.0000 H   0  0  0  0  0  0  0  0  0  0  0  0
    6.7741   -0.1842    0.0000 H   0  0  0  0  0  0  0  0  0  0  0  0
    5.6962    3.5722    0.0000 H   0  0  0  0  0  0  0  0  0  0  0  0
    7.8327    2.9844    0.0000 H   0  0  0  0  0  0  0  0  0  0  0  0
    6.7741   -2.4242    0.0000 H   0  0  0  0  0  0  0  0  0  0  0  0
    4.3059   -1.3792    0.0000 H   0  0  0  0  0  0  0  0  0  0  0  0
    6.4450   -2.6142    0.0000 H   0  0  0  0  0  0  0  0  0  0  0  0
    9.1364    2.4323    0.0000 H   0  0  0  0  0  0  0  0  0  0  0  0
    7.6465    3.3156    0.0000 H   0  0  0  0  0  0  0  0  0  0  0  0
   10.2788    4.3591    0.0000 H   0  0  0  0  0  0  0  0  0  0  0  0
    7.8527    4.7163    0.0000 H   0  0  0  0  0  0  0  0  0  0  0  0
   10.0576    4.9029    0.0000 H   0  0  0  0  0  0  0  0  0  0  0  0
    9.3720    5.3094    0.0000 H   0  0  0  0  0  0  0  0  0  0  0  0
    4.1760   -1.6842    0.0000 H   0  0  0  0  0  0  0  0  0  0  0  0
    4.4074    4.2954    0.0000 H   0  0  0  0  0  0  0  0  0  0  0  0
    4.4105    3.4984    0.0000 H   0  0  0  0  0  0  0  0  0  0  0  0
    3.5573    2.6503    0.0000 H   0  0  0  0  0  0  0  0  0  0  0  0
    8.1771   -0.6142    0.0000 H   0  0  0  0  0  0  0  0  0  0  0  0
   11.2663    3.2738    0.0000 H   0  0  0  0  0  0  0  0  0  0  0  0
    4.3881   -3.8868    0.0000 H   0  0  0  0  0  0  0  0  0  0  0  0
    4.7866   -3.1965    0.0000 H   0  0  0  0  0  0  0  0  0  0  0  0
    7.6401   -2.9242    0.0000 H   0  0  0  0  0  0  0  0  0  0  0  0
    6.4450   -3.6142    0.0000 H   0  0  0  0  0  0  0  0  0  0  0  0
    8.2989    6.1142    0.0000 H   0  0  0  0  0  0  0  0  0  0  0  0
    7.3628    5.5881    0.0000 H   0  0  0  0  0  0  0  0  0  0  0  0
   10.5625    2.0867    0.0000 H   0  0  0  0  0  0  0  0  0  0  0  0
    6.6590    4.4010    0.0000 H   0  0  0  0  0  0  0  0  0  0  0  0
    2.7731   -2.1142    0.0000 H   0  0  0  0  0  0  0  0  0  0  0  0
    3.3100   -1.1842    0.0000 H   0  0  0  0  0  0  0  0  0  0  0  0
   12.0058    4.3583    0.0000 H   0  0  0  0  0  0  0  0  0  0  0  0
   11.7887    5.2078    0.0000 H   0  0  0  0  0  0  0  0  0  0  0  0
   10.9392    4.9906    0.0000 H   0  0  0  0  0  0  0  0  0  0  0  0
    5.0685    5.3024    0.0000 H   0  0  0  0  0  0  0  0  0  0  0  0
    2.0000   -5.3411    0.0000 H   0  0  0  0  0  0  0  0  0  0  0  0
    2.7731   -6.1142    0.0000 H   0  0  0  0  0  0  0  0  0  0  0  0
  1 14  1  0  0  0  0
  1 15  1  0  0  0  0
  1 16  1  0  0  0  0
  1 17  2  0  0  0  0
  2 21  1  0  0  0  0
  2 23  1  0  0  0  0
  3 22  1  0  0  0  0
  3 23  1  0  0  0  0
  4 23  1  0  0  0  0
  4 30  1  0  0  0  0
  5 24  1  0  0  0  0
  5 27  1  0  0  0  0
 24  6  1  1  0  0  0
 28  6  1  6  0  0  0
 25  7  1  1  0  0  0
  7 60  1  0  0  0  0
 26  8  1  6  0  0  0
  8 61  1  0  0  0  0
 29  9  1  1  0  0  0
  9 65  1  0  0  0  0
 31 10  1  1  0  0  0
 10 66  1  0  0  0  0
 32 11  1  1  0  0  0
 11 69  1  0  0  0  0
 33 12  1  1  0  0  0
 12 70  1  0  0  0  0
 13 38  1  0  0  0  0
 13 76  1  0  0  0  0
 14 39  1  0  0  0  0
 15 78  1  0  0  0  0
 16 77  1  0  0  0  0
 34 18  1  6  0  0  0
 18 40  1  0  0  0  0
 18 62  1  0  0  0  0
 35 19  1  6  0  0  0
 19 67  1  0  0  0  0
 19 68  1  0  0  0  0
 37 20  1  6  0  0  0
 20 71  1  0  0  0  0
 20 72  1  0  0  0  0
 21 22  1  0  0  0  0
 21 24  1  0  0  0  0
 21 41  1  6  0  0  0
 22 25  1  0  0  0  0
 22 42  1  6  0  0  0
 23 26  1  0  0  0  0
 24 43  1  0  0  0  0
 25 27  1  0  0  0  0
 25 44  1  0  0  0  0
 26 29  1  0  0  0  0
 26 45  1  0  0  0  0
 27 38  1  1  0  0  0
 27 46  1  0  0  0  0
 28 32  1  0  0  0  0
 28 33  1  0  0  0  0
 28 47  1  0  0  0  0
 29 31  1  0  0  0  0
 29 48  1  0  0  0  0
 30 31  1  0  0  0  0
 30 37  1  0  0  0  0
 30 49  1  6  0  0  0
 31 50  1  0  0  0  0
 32 34  1  0  0  0  0
 32 51  1  0  0  0  0
 33 35  1  0  0  0  0
 33 52  1  0  0  0  0
 34 36  1  0  0  0  0
 34 53  1  0  0  0  0
 35 36  1  0  0  0  0
 35 54  1  0  0  0  0
 36 55  1  0  0  0  0
 36 56  1  0  0  0  0
 37 39  1  0  0  0  0
 37 57  1  0  0  0  0
 38 58  1  0  0  0  0
 38 59  1  0  0  0  0
 39 63  1  0  0  0  0
 39 64  1  0  0  0  0
 40 73  1  0  0  0  0
 40 74  1  0  0  0  0
 40 75  1  0  0  0  0
M  END
> <PUBCHEM_COMPOUND_CID>
56928063

> <PUBCHEM_COMPOUND_CANONICALIZED>
1

> <PUBCHEM_CACTVS_COMPLEXITY>
919

> <PUBCHEM_CACTVS_HBOND_ACCEPTOR>
19

> <PUBCHEM_CACTVS_HBOND_DONOR>
12

> <PUBCHEM_CACTVS_ROTATABLE_BOND>
8

> <PUBCHEM_CACTVS_SUBSKEYS>
AAADcfB7PgIAAAAAAAAAAAAAAAAAASAAAAA0SIAAAAAAAEgAAAAAHgAQCCAACDzxgAcCCALABxAAQAAAAIAAAAAAAAAAAIAIAAATEAIAwAAnQAAHEAAXAAHw8C8AAAAAAAAAAAAAgAAUCACgAAAAAAAAAA==

> <PUBCHEM_IUPAC_OPENEYE_NAME>
[(2S)-2-[(2'R,3'R,3aS,4S,4'S,5'R,6R,7S,7aS)-4-[(1R,2S,3R,5S,6R)-3-amino-2,6-dihydroxy-5-(methylamino)cyclohexoxy]-3',4',5',7-tetrahydroxy-6-(hydroxymethyl)spiro[4,6,7,7a-tetrahydro-3aH-[1,3]dioxolo[4,5-c]pyran-2,6'-tetrahydropyran]-2'-yl]-2-amino-ethyl] dihydrogen phosphate

> <PUBCHEM_IUPAC_CAS_NAME>
[(2S)-2-[(2'R,3'R,3aS,4S,4'S,5'R,6R,7S,7aS)-4-[(1R,2S,3R,5S,6R)-3-amino-2,6-dihydroxy-5-(methylamino)cyclohexyl]oxy-3',4',5',7-tetrahydroxy-6-(hydroxymethyl)-2'-spiro[4,6,7,7a-tetrahydro-3aH-[1,3]dioxolo[4,5-c]pyran-2,6'-oxane]yl]-2-aminoethyl] dihydrogen phosphate

> <PUBCHEM_IUPAC_NAME>
[(2S)-2-[(2'R,3'R,3aS,4S,4'S,5'R,6R,7S,7aS)-4-[(1R,2S,3R,5S,6R)-3-amino-2,6-dihydroxy-5-(methylamino)cyclohexyl]oxy-3',4',5',7-tetrahydroxy-6-(hydroxymethyl)spiro[4,6,7,7a-tetrahydro-3aH-[1,3]dioxolo[4,5-c]pyran-2,6'-oxane]-2'-yl]-2-aminoethyl] dihydrogen phosphate

> <PUBCHEM_IUPAC_SYSTEMATIC_NAME>
[(2S)-2-[(2'R,3'R,3aS,4S,4'S,5'R,6R,7S,7aS)-4-[(1R,2S,3R,5S,6R)-3-azanyl-5-(methylamino)-2,6-bis(oxidanyl)cyclohexyl]oxy-6-(hydroxymethyl)-3',4',5',7-tetrakis(oxidanyl)spiro[4,6,7,7a-tetrahydro-3aH-[1,3]dioxolo[4,5-c]pyran-2,6'-oxane]-2'-yl]-2-azanyl-ethyl] dihydrogen phosphate

> <PUBCHEM_IUPAC_TRADITIONAL_NAME>
[(2S)-2-[(2'R,3'R,3aS,4S,4'S,5'R,6R,7S,7aS)-4-[(1R,2S,3R,5S,6R)-3-amino-2,6-dihydroxy-5-(methylamino)cyclohexoxy]-3',4',5',7-tetrahydroxy-6-methylol-spiro[4,6,7,7a-tetrahydro-3aH-[1,3]dioxolo[4,5-c]pyran-2,6'-tetrahydropyran]-2'-yl]-2-amino-ethyl] dihydrogen phosphate

> <PUBCHEM_IUPAC_INCHI>
InChI=1S/C20H38N3O16P/c1-23-7-2-5(21)9(25)15(10(7)26)36-19-17-16(11(27)8(3-24)35-19)38-20(39-17)18(30)13(29)12(28)14(37-20)6(22)4-34-40(31,32)33/h5-19,23-30H,2-4,21-22H2,1H3,(H2,31,32,33)/t5-,6+,7+,8-,9+,10-,11+,12-,13+,14-,15-,16+,17+,18-,19+,20?/m1/s1

> <PUBCHEM_IUPAC_INCHIKEY>
DDJWTKQJOKVHBW-HUCHGKBZSA-N

> <PUBCHEM_XLOGP3_AA>
-9.9

> <PUBCHEM_EXACT_MASS>
607.198969

> <PUBCHEM_MOLECULAR_FORMULA>
C20H38N3O16P

> <PUBCHEM_MOLECULAR_WEIGHT>
607.499982

> <PUBCHEM_OPENEYE_CAN_SMILES>
CNC1CC(C(C(C1O)OC2C3C(C(C(O2)CO)O)OC4(O3)C(C(C(C(O4)C(COP(=O)(O)O)N)O)O)O)O)N

> <PUBCHEM_OPENEYE_ISO_SMILES>
CN[C@H]1C[C@H]([C@@H]([C@H]([C@@H]1O)O[C@H]2[C@@H]3[C@H]([C@H]([C@H](O2)CO)O)OC4(O3)[C@@H]([C@H]([C@H]([C@H](O4)[C@H](COP(=O)(O)O)N)O)O)O)O)N

> <PUBCHEM_CACTVS_TPSA>
319

> <PUBCHEM_MONOISOTOPIC_WEIGHT>
607.198969

> <PUBCHEM_TOTAL_CHARGE>
0

> <PUBCHEM_HEAVY_ATOM_COUNT>
40

> <PUBCHEM_ATOM_DEF_STEREO_COUNT>
15

> <PUBCHEM_ATOM_UDEF_STEREO_COUNT>
1

> <PUBCHEM_BOND_DEF_STEREO_COUNT>
0

> <PUBCHEM_BOND_UDEF_STEREO_COUNT>
0

> <PUBCHEM_ISOTOPIC_ATOM_COUNT>
0

> <PUBCHEM_COMPONENT_COUNT>
1

> <PUBCHEM_CACTVS_TAUTO_COUNT>
1

> <PUBCHEM_COORDINATE_TYPE>
1
5
255

> <PUBCHEM_BONDANNOTATIONS>
31  10  5
32  11  5
33  12  5
34  18  6
35  19  6
37  20  6
21  41  6
22  42  6
27  38  5
23  3  3
30  49  6
24  6  5
28  6  6
25  7  5
26  8  6
29  9  5

$$$$

