252378
  -OEChem-07051213062D

 48 52  0     1  0  0  0  0  0999 V2000
    7.1055    0.4991    0.0000 O   0  0  0  0  0  0  0  0  0  0  0  0
    2.4105    1.2256    0.0000 O   0  0  0  0  0  0  0  0  0  0  0  0
    9.4709   -2.3424    0.0000 O   0  0  0  0  0  0  0  0  0  0  0  0
    5.9529    0.7027    0.0000 C   0  0  2  0  0  0  0  0  0  0  0  0
    5.9529   -0.2973    0.0000 C   0  0  1  0  0  0  0  0  0  0  0  0
    5.0590    1.2374    0.0000 C   0  0  1  0  0  0  0  0  0  0  0  0
    4.1529    0.7235    0.0000 C   0  0  2  0  0  0  0  0  0  0  0  0
    6.8189   -0.7973    0.0000 C   0  0  1  0  0  0  0  0  0  0  0  0
    5.0590   -0.8320    0.0000 C   0  0  0  0  0  0  0  0  0  0  0  0
    4.1529   -0.3181    0.0000 C   0  0  0  0  0  0  0  0  0  0  0  0
    6.8189    1.2027    0.0000 C   0  0  0  0  0  0  0  0  0  0  0  0
    4.8488    2.2513    0.0000 C   0  0  0  0  0  0  0  0  0  0  0  0
    7.6849    0.7027    0.0000 C   0  0  2  0  0  0  0  0  0  0  0  0
    3.3906    1.4243    0.0000 C   0  0  2  0  0  0  0  0  0  0  0  0
    7.6849   -0.2973    0.0000 C   0  0  0  0  0  0  0  0  0  0  0  0
    3.8198    2.3666    0.0000 C   0  0  0  0  0  0  0  0  0  0  0  0
    6.7055   -0.1937    0.0000 C   0  0  0  0  0  0  0  0  0  0  0  0
    6.8028   -1.8388    0.0000 C   0  0  0  0  0  0  0  0  0  0  0  0
    3.2830    0.2302    0.0000 C   0  0  0  0  0  0  0  0  0  0  0  0
    7.7009   -2.3666    0.0000 C   0  0  0  0  0  0  0  0  0  0  0  0
    8.5949   -0.8041    0.0000 C   0  0  0  0  0  0  0  0  0  0  0  0
    8.6030   -1.8458    0.0000 C   0  0  0  0  0  0  0  0  0  0  0  0
    5.9529    1.5527    0.0000 H   0  0  0  0  0  0  0  0  0  0  0  0
    5.9529   -1.1473    0.0000 H   0  0  0  0  0  0  0  0  0  0  0  0
    5.7517    1.7299    0.0000 H   0  0  0  0  0  0  0  0  0  0  0  0
    4.6653   -1.3110    0.0000 H   0  0  0  0  0  0  0  0  0  0  0  0
    5.4635   -1.3018    0.0000 H   0  0  0  0  0  0  0  0  0  0  0  0
    3.5420   -0.2120    0.0000 H   0  0  0  0  0  0  0  0  0  0  0  0
    3.9438   -0.9018    0.0000 H   0  0  0  0  0  0  0  0  0  0  0  0
    7.2174    1.6776    0.0000 H   0  0  0  0  0  0  0  0  0  0  0  0
    6.4204    1.6776    0.0000 H   0  0  0  0  0  0  0  0  0  0  0  0
    5.4658    2.3126    0.0000 H   0  0  0  0  0  0  0  0  0  0  0  0
    4.8527    2.8713    0.0000 H   0  0  0  0  0  0  0  0  0  0  0  0
    8.1099    1.4388    0.0000 H   0  0  0  0  0  0  0  0  0  0  0  0
    3.0047    1.9096    0.0000 H   0  0  0  0  0  0  0  0  0  0  0  0
    3.9532    2.9720    0.0000 H   0  0  0  0  0  0  0  0  0  0  0  0
    3.2317    2.5629    0.0000 H   0  0  0  0  0  0  0  0  0  0  0  0
    6.2784    0.2557    0.0000 H   0  0  0  0  0  0  0  0  0  0  0  0
    6.1536   -0.4761    0.0000 H   0  0  0  0  0  0  0  0  0  0  0  0
    6.1937   -1.7233    0.0000 H   0  0  0  0  0  0  0  0  0  0  0  0
    6.5848   -2.4192    0.0000 H   0  0  0  0  0  0  0  0  0  0  0  0
    2.9772    0.7695    0.0000 H   0  0  0  0  0  0  0  0  0  0  0  0
    2.7437   -0.0756    0.0000 H   0  0  0  0  0  0  0  0  0  0  0  0
    3.5889   -0.3091    0.0000 H   0  0  0  0  0  0  0  0  0  0  0  0
    7.2999   -2.8395    0.0000 H   0  0  0  0  0  0  0  0  0  0  0  0
    8.0982   -2.8425    0.0000 H   0  0  0  0  0  0  0  0  0  0  0  0
    9.1282   -0.4880    0.0000 H   0  0  0  0  0  0  0  0  0  0  0  0
    2.0000    1.6902    0.0000 H   0  0  0  0  0  0  0  0  0  0  0  0
  1 13  1  0  0  0  0
  1 17  1  0  0  0  0
 14  2  1  1  0  0  0
  2 48  1  0  0  0  0
  3 22  2  0  0  0  0
  4  5  1  0  0  0  0
  4  6  1  0  0  0  0
  4 11  1  0  0  0  0
  4 23  1  1  0  0  0
  5  8  1  0  0  0  0
  5  9  1  0  0  0  0
  5 24  1  6  0  0  0
  6  7  1  0  0  0  0
  6 12  1  0  0  0  0
  6 25  1  6  0  0  0
  7 10  1  0  0  0  0
  7 14  1  0  0  0  0
  7 19  1  1  0  0  0
  8 15  1  0  0  0  0
  8 17  1  0  0  0  0
  8 18  1  1  0  0  0
  9 10  1  0  0  0  0
  9 26  1  0  0  0  0
  9 27  1  0  0  0  0
 10 28  1  0  0  0  0
 10 29  1  0  0  0  0
 11 13  1  0  0  0  0
 11 30  1  0  0  0  0
 11 31  1  0  0  0  0
 12 16  1  0  0  0  0
 12 32  1  0  0  0  0
 12 33  1  0  0  0  0
 13 15  1  0  0  0  0
 13 34  1  1  0  0  0
 14 16  1  0  0  0  0
 14 35  1  0  0  0  0
 15 21  2  0  0  0  0
 16 36  1  0  0  0  0
 16 37  1  0  0  0  0
 17 38  1  0  0  0  0
 17 39  1  0  0  0  0
 18 20  1  0  0  0  0
 18 40  1  0  0  0  0
 18 41  1  0  0  0  0
 19 42  1  0  0  0  0
 19 43  1  0  0  0  0
 19 44  1  0  0  0  0
 20 22  1  0  0  0  0
 20 45  1  0  0  0  0
 20 46  1  0  0  0  0
 21 22  1  0  0  0  0
 21 47  1  0  0  0  0
M  END
> <PUBCHEM_COMPOUND_CID>
252378

> <PUBCHEM_COMPOUND_CANONICALIZED>
1

> <PUBCHEM_CACTVS_COMPLEXITY>
567

> <PUBCHEM_CACTVS_HBOND_ACCEPTOR>
3

> <PUBCHEM_CACTVS_HBOND_DONOR>
1

> <PUBCHEM_CACTVS_ROTATABLE_BOND>
0

> <PUBCHEM_CACTVS_SUBSKEYS>
AAADceB4MAAAAAAAAAAAAAAAAAAAAaIAAAAwYIAABIAAAGDAAAAAGgAACAAADxSggAICAAAABgCIAqBSAAAAAAAgAAAACAEAAEgAFBIAIQACUAAEwAAIIQOIzPCPgAAAAAAAAADAAAYAACAAAIAADAAAAA==

> <PUBCHEM_IUPAC_INCHI>
InChI=1S/C19H26O3/c1-18-6-5-14-12(13(18)2-3-17(18)21)9-16-15-8-11(20)4-7-19(14,15)10-22-16/h8,12-14,16-17,21H,2-7,9-10H2,1H3/t12-,13-,14-,16+,17-,18-,19-/m0/s1

> <PUBCHEM_IUPAC_INCHIKEY>
JGXKJMMMNKXSBZ-DTQPDNRZSA-N

> <PUBCHEM_XLOGP3_AA>
1.8

> <PUBCHEM_EXACT_MASS>
302.188195

> <PUBCHEM_MOLECULAR_FORMULA>
C19H26O3

> <PUBCHEM_MOLECULAR_WEIGHT>
302.40794

> <PUBCHEM_OPENEYE_CAN_SMILES>
CC12CCC3C(C1CCC2O)CC4C5=CC(=O)CCC35CO4

> <PUBCHEM_OPENEYE_ISO_SMILES>
C[C@]12CC[C@H]3[C@H]([C@@H]1CC[C@@H]2O)C[C@@H]4C5=CC(=O)CC[C@]35CO4

> <PUBCHEM_CACTVS_TPSA>
46.5

> <PUBCHEM_MONOISOTOPIC_WEIGHT>
302.188195

> <PUBCHEM_TOTAL_CHARGE>
0

> <PUBCHEM_HEAVY_ATOM_COUNT>
22

> <PUBCHEM_ATOM_DEF_STEREO_COUNT>
7

> <PUBCHEM_ATOM_UDEF_STEREO_COUNT>
0

> <PUBCHEM_BOND_DEF_STEREO_COUNT>
0

> <PUBCHEM_BOND_UDEF_STEREO_COUNT>
0

> <PUBCHEM_ISOTOPIC_ATOM_COUNT>
0

> <PUBCHEM_COMPONENT_COUNT>
1

> <PUBCHEM_CACTVS_TAUTO_COUNT>
2

> <PUBCHEM_COORDINATE_TYPE>
1
5
255

> <PUBCHEM_BONDANNOTATIONS>
13  34  5
14  2  5
4  23  5
5  24  6
6  25  6
7  19  5
8  18  5

$$$$

