2581
  -OEChem-07051213112D

 31 33  0     1  0  0  0  0  0999 V2000
    2.0000   -1.7403    0.0000 Cl  0  0  0  0  0  0  0  0  0  0  0  0
   10.0258   -0.3211    0.0000 O   0  0  0  0  0  0  0  0  0  0  0  0
    8.7431   -1.4850    0.0000 O   0  0  0  0  0  0  0  0  0  0  0  0
    4.8717    1.1203    0.0000 N   0  0  0  0  0  0  0  0  0  0  0  0
    5.3717   -0.4185    0.0000 C   0  0  0  0  0  0  0  0  0  0  0  0
    5.6808    0.5325    0.0000 C   0  0  0  0  0  0  0  0  0  0  0  0
    4.3717   -0.4185    0.0000 C   0  0  0  0  0  0  0  0  0  0  0  0
    7.3991   -0.0039    0.0000 C   0  0  0  0  0  0  0  0  0  0  0  0
    4.0627    0.5325    0.0000 C   0  0  0  0  0  0  0  0  0  0  0  0
    8.3764    0.2078    0.0000 C   0  0  3  0  0  0  0  0  0  0  0  0
    6.6962    0.7648    0.0000 C   0  0  0  0  0  0  0  0  0  0  0  0
    6.0567   -1.2033    0.0000 C   0  0  0  0  0  0  0  0  0  0  0  0
    7.0772   -0.9946    0.0000 C   0  0  0  0  0  0  0  0  0  0  0  0
    3.6868   -1.2033    0.0000 C   0  0  0  0  0  0  0  0  0  0  0  0
    3.0473    0.7648    0.0000 C   0  0  0  0  0  0  0  0  0  0  0  0
    8.6818    1.1600    0.0000 C   0  0  0  0  0  0  0  0  0  0  0  0
    2.6663   -0.9946    0.0000 C   0  0  0  0  0  0  0  0  0  0  0  0
    9.0484   -0.5328    0.0000 C   0  0  0  0  0  0  0  0  0  0  0  0
    2.3444   -0.0039    0.0000 C   0  0  0  0  0  0  0  0  0  0  0  0
    7.9598    0.6669    0.0000 H   0  0  0  0  0  0  0  0  0  0  0  0
    6.8809    1.3566    0.0000 H   0  0  0  0  0  0  0  0  0  0  0  0
    4.8717    1.7403    0.0000 H   0  0  0  0  0  0  0  0  0  0  0  0
    5.8583   -1.7907    0.0000 H   0  0  0  0  0  0  0  0  0  0  0  0
    7.4903   -1.4569    0.0000 H   0  0  0  0  0  0  0  0  0  0  0  0
    3.8852   -1.7907    0.0000 H   0  0  0  0  0  0  0  0  0  0  0  0
    2.8626    1.3566    0.0000 H   0  0  0  0  0  0  0  0  0  0  0  0
    9.2722    0.9707    0.0000 H   0  0  0  0  0  0  0  0  0  0  0  0
    8.8711    1.7504    0.0000 H   0  0  0  0  0  0  0  0  0  0  0  0
    8.0914    1.3493    0.0000 H   0  0  0  0  0  0  0  0  0  0  0  0
    1.7384    0.1273    0.0000 H   0  0  0  0  0  0  0  0  0  0  0  0
   10.4424   -0.7803    0.0000 H   0  0  0  0  0  0  0  0  0  0  0  0
  1 17  1  0  0  0  0
  2 18  1  0  0  0  0
  2 31  1  0  0  0  0
  3 18  2  0  0  0  0
  4  6  1  0  0  0  0
  4  9  1  0  0  0  0
  4 22  1  0  0  0  0
  5  6  2  0  0  0  0
  5  7  1  0  0  0  0
  5 12  1  0  0  0  0
  6 11  1  0  0  0  0
  7  9  2  0  0  0  0
  7 14  1  0  0  0  0
  8 10  1  0  0  0  0
  8 11  2  0  0  0  0
  8 13  1  0  0  0  0
  9 15  1  0  0  0  0
 10 16  1  0  0  0  0
 10 18  1  0  0  0  0
 10 20  1  0  0  0  0
 11 21  1  0  0  0  0
 12 13  2  0  0  0  0
 12 23  1  0  0  0  0
 13 24  1  0  0  0  0
 14 17  2  0  0  0  0
 14 25  1  0  0  0  0
 15 19  2  0  0  0  0
 15 26  1  0  0  0  0
 16 27  1  0  0  0  0
 16 28  1  0  0  0  0
 16 29  1  0  0  0  0
 17 19  1  0  0  0  0
 19 30  1  0  0  0  0
M  END
> <PUBCHEM_COMPOUND_CID>
2581

> <PUBCHEM_COMPOUND_CANONICALIZED>
1

> <PUBCHEM_CACTVS_COMPLEXITY>
362

> <PUBCHEM_CACTVS_HBOND_ACCEPTOR>
2

> <PUBCHEM_CACTVS_HBOND_DONOR>
2

> <PUBCHEM_CACTVS_ROTATABLE_BOND>
2

> <PUBCHEM_CACTVS_SUBSKEYS>
AAADccByMAAEAAAAAAAAAAAAAAAAAWAAAAAwYAAAAAAAAFgB/AAAHgIQCAAADQqBniAyyPLJkgCoAyTyTACCgCAhByAImSEwZpgIIPLBl5GEYAhk0AHIyAeY2eOewABAYAACAACAAIDAAAQAAAAAAAAAAA==

> <PUBCHEM_IUPAC_OPENEYE_NAME>
2-(6-chloro-9H-carbazol-2-yl)propanoic acid

> <PUBCHEM_IUPAC_CAS_NAME>
2-(6-chloro-9H-carbazol-2-yl)propanoic acid

> <PUBCHEM_IUPAC_NAME>
2-(6-chloro-9H-carbazol-2-yl)propanoic acid

> <PUBCHEM_IUPAC_SYSTEMATIC_NAME>
2-(6-chloranyl-9H-carbazol-2-yl)propanoic acid

> <PUBCHEM_IUPAC_TRADITIONAL_NAME>
2-(6-chloro-9H-carbazol-2-yl)propionic acid

> <PUBCHEM_IUPAC_INCHI>
InChI=1S/C15H12ClNO2/c1-8(15(18)19)9-2-4-11-12-7-10(16)3-5-13(12)17-14(11)6-9/h2-8,17H,1H3,(H,18,19)

> <PUBCHEM_IUPAC_INCHIKEY>
PUXBGTOOZJQSKH-UHFFFAOYSA-N

> <PUBCHEM_XLOGP3_AA>
4

> <PUBCHEM_EXACT_MASS>
273.055656

> <PUBCHEM_MOLECULAR_FORMULA>
C15H12ClNO2

> <PUBCHEM_MOLECULAR_WEIGHT>
273.71428

> <PUBCHEM_OPENEYE_CAN_SMILES>
CC(C1=CC2=C(C=C1)C3=C(N2)C=CC(=C3)Cl)C(=O)O

> <PUBCHEM_OPENEYE_ISO_SMILES>
CC(C1=CC2=C(C=C1)C3=C(N2)C=CC(=C3)Cl)C(=O)O

> <PUBCHEM_CACTVS_TPSA>
53.1

> <PUBCHEM_MONOISOTOPIC_WEIGHT>
273.055656

> <PUBCHEM_TOTAL_CHARGE>
0

> <PUBCHEM_HEAVY_ATOM_COUNT>
19

> <PUBCHEM_ATOM_DEF_STEREO_COUNT>
0

> <PUBCHEM_ATOM_UDEF_STEREO_COUNT>
1

> <PUBCHEM_BOND_DEF_STEREO_COUNT>
0

> <PUBCHEM_BOND_UDEF_STEREO_COUNT>
0

> <PUBCHEM_ISOTOPIC_ATOM_COUNT>
0

> <PUBCHEM_COMPONENT_COUNT>
1

> <PUBCHEM_CACTVS_TAUTO_COUNT>
1

> <PUBCHEM_COORDINATE_TYPE>
1
5
255

> <PUBCHEM_BONDANNOTATIONS>
10  16  3
12  13  8
14  17  8
15  19  8
17  19  8
4  6  8
4  9  8
5  12  8
5  6  8
5  7  8
6  11  8
7  14  8
7  9  8
8  11  8
8  13  8
9  15  8

$$$$

