17396388
  -OEChem-06241222562D

 59 62  0     1  0  0  0  0  0999 V2000
    8.0622    4.4182    0.0000 S   0  0  0  0  0  0  0  0  0  0  0  0
    7.5622    5.2842    0.0000 O   0  0  0  0  0  0  0  0  0  0  0  0
    8.5622    3.5522    0.0000 O   0  0  0  0  0  0  0  0  0  0  0  0
    2.8660    1.4182    0.0000 O   0  0  0  0  0  0  0  0  0  0  0  0
    8.9282    4.9182    0.0000 N   0  0  0  0  0  0  0  0  0  0  0  0
    3.7320   -0.0818    0.0000 N   0  0  0  0  0  0  0  0  0  0  0  0
    2.8660   -4.5818    0.0000 N   0  0  0  0  0  0  0  0  0  0  0  0
    3.6750   -5.1696    0.0000 N   0  0  0  0  0  0  0  0  0  0  0  0
    2.3660   -6.1206    0.0000 N   0  0  0  0  0  0  0  0  0  0  0  0
    9.8418    4.5115    0.0000 C   0  0  0  0  0  0  0  0  0  0  0  0
    9.0327    5.9127    0.0000 C   0  0  0  0  0  0  0  0  0  0  0  0
   10.0109    6.1206    0.0000 C   0  0  0  0  0  0  0  0  0  0  0  0
   10.5109    5.2546    0.0000 C   0  0  0  0  0  0  0  0  0  0  0  0
    7.1962    3.9182    0.0000 C   0  0  0  0  0  0  0  0  0  0  0  0
    6.3301    4.4182    0.0000 C   0  0  0  0  0  0  0  0  0  0  0  0
    7.1962    2.9182    0.0000 C   0  0  0  0  0  0  0  0  0  0  0  0
    5.4641    2.9182    0.0000 C   0  0  0  0  0  0  0  0  0  0  0  0
    5.4641    3.9182    0.0000 C   0  0  0  0  0  0  0  0  0  0  0  0
    6.3301    2.4182    0.0000 C   0  0  0  0  0  0  0  0  0  0  0  0
    4.5981    2.4182    0.0000 C   0  0  0  0  0  0  0  0  0  0  0  0
    4.5981    1.4182    0.0000 C   0  0  0  0  0  0  0  0  0  0  0  0
    2.8660   -0.5818    0.0000 C   0  0  3  0  0  0  0  0  0  0  0  0
    3.7320    0.9182    0.0000 C   0  0  0  0  0  0  0  0  0  0  0  0
    2.8660   -1.5818    0.0000 C   0  0  0  0  0  0  0  0  0  0  0  0
    2.0000   -0.0818    0.0000 C   0  0  0  0  0  0  0  0  0  0  0  0
    2.0000   -2.0818    0.0000 C   0  0  0  0  0  0  0  0  0  0  0  0
    3.7320   -2.0818    0.0000 C   0  0  0  0  0  0  0  0  0  0  0  0
    2.8660   -3.5818    0.0000 C   0  0  0  0  0  0  0  0  0  0  0  0
    2.0000   -3.0818    0.0000 C   0  0  0  0  0  0  0  0  0  0  0  0
    3.7320   -3.0818    0.0000 C   0  0  0  0  0  0  0  0  0  0  0  0
    2.0570   -5.1696    0.0000 C   0  0  0  0  0  0  0  0  0  0  0  0
    3.3660   -6.1206    0.0000 C   0  0  0  0  0  0  0  0  0  0  0  0
    8.9679    6.5293    0.0000 H   0  0  0  0  0  0  0  0  0  0  0  0
    8.4127    5.9127    0.0000 H   0  0  0  0  0  0  0  0  0  0  0  0
    9.5318    3.9745    0.0000 H   0  0  0  0  0  0  0  0  0  0  0  0
   10.3433    4.1470    0.0000 H   0  0  0  0  0  0  0  0  0  0  0  0
   10.9257    4.7939    0.0000 H   0  0  0  0  0  0  0  0  0  0  0  0
   11.0125    5.6190    0.0000 H   0  0  0  0  0  0  0  0  0  0  0  0
   10.5773    6.3728    0.0000 H   0  0  0  0  0  0  0  0  0  0  0  0
    9.8193    6.7103    0.0000 H   0  0  0  0  0  0  0  0  0  0  0  0
    6.3301    5.0382    0.0000 H   0  0  0  0  0  0  0  0  0  0  0  0
    7.7331    2.6082    0.0000 H   0  0  0  0  0  0  0  0  0  0  0  0
    4.3860    3.0008    0.0000 H   0  0  0  0  0  0  0  0  0  0  0  0
    3.9875    2.3105    0.0000 H   0  0  0  0  0  0  0  0  0  0  0  0
    4.9272    4.2282    0.0000 H   0  0  0  0  0  0  0  0  0  0  0  0
    6.3301    1.7982    0.0000 H   0  0  0  0  0  0  0  0  0  0  0  0
    4.8101    0.8356    0.0000 H   0  0  0  0  0  0  0  0  0  0  0  0
    5.2087    1.5259    0.0000 H   0  0  0  0  0  0  0  0  0  0  0  0
    2.8660    0.0382    0.0000 H   0  0  0  0  0  0  0  0  0  0  0  0
    4.2690   -0.3918    0.0000 H   0  0  0  0  0  0  0  0  0  0  0  0
    2.3100    0.4551    0.0000 H   0  0  0  0  0  0  0  0  0  0  0  0
    1.4631    0.2282    0.0000 H   0  0  0  0  0  0  0  0  0  0  0  0
    1.6900   -0.6187    0.0000 H   0  0  0  0  0  0  0  0  0  0  0  0
    1.4631   -1.7718    0.0000 H   0  0  0  0  0  0  0  0  0  0  0  0
    4.2690   -1.7718    0.0000 H   0  0  0  0  0  0  0  0  0  0  0  0
    1.4631   -3.3918    0.0000 H   0  0  0  0  0  0  0  0  0  0  0  0
    4.2690   -3.3918    0.0000 H   0  0  0  0  0  0  0  0  0  0  0  0
    1.4674   -4.9780    0.0000 H   0  0  0  0  0  0  0  0  0  0  0  0
    3.7304   -6.6222    0.0000 H   0  0  0  0  0  0  0  0  0  0  0  0
  1  2  2  0  0  0  0
  1  3  2  0  0  0  0
  1  5  1  0  0  0  0
  1 14  1  0  0  0  0
  4 23  2  0  0  0  0
  5 10  1  0  0  0  0
  5 11  1  0  0  0  0
  6 22  1  0  0  0  0
  6 23  1  0  0  0  0
  6 50  1  0  0  0  0
  7  8  1  0  0  0  0
  7 28  1  0  0  0  0
  7 31  1  0  0  0  0
  8 32  2  0  0  0  0
  9 31  2  0  0  0  0
  9 32  1  0  0  0  0
 10 13  1  0  0  0  0
 10 35  1  0  0  0  0
 10 36  1  0  0  0  0
 11 12  1  0  0  0  0
 11 33  1  0  0  0  0
 11 34  1  0  0  0  0
 12 13  1  0  0  0  0
 12 39  1  0  0  0  0
 12 40  1  0  0  0  0
 13 37  1  0  0  0  0
 13 38  1  0  0  0  0
 14 15  2  0  0  0  0
 14 16  1  0  0  0  0
 15 18  1  0  0  0  0
 15 41  1  0  0  0  0
 16 19  2  0  0  0  0
 16 42  1  0  0  0  0
 17 18  2  0  0  0  0
 17 19  1  0  0  0  0
 17 20  1  0  0  0  0
 18 45  1  0  0  0  0
 19 46  1  0  0  0  0
 20 21  1  0  0  0  0
 20 43  1  0  0  0  0
 20 44  1  0  0  0  0
 21 23  1  0  0  0  0
 21 47  1  0  0  0  0
 21 48  1  0  0  0  0
 22 24  1  0  0  0  0
 22 25  1  0  0  0  0
 22 49  1  0  0  0  0
 24 26  2  0  0  0  0
 24 27  1  0  0  0  0
 25 51  1  0  0  0  0
 25 52  1  0  0  0  0
 25 53  1  0  0  0  0
 26 29  1  0  0  0  0
 26 54  1  0  0  0  0
 27 30  2  0  0  0  0
 27 55  1  0  0  0  0
 28 29  2  0  0  0  0
 28 30  1  0  0  0  0
 29 56  1  0  0  0  0
 30 57  1  0  0  0  0
 31 58  1  0  0  0  0
 32 59  1  0  0  0  0
M  END
> <PUBCHEM_COMPOUND_CID>
17396388

> <PUBCHEM_COMPOUND_CANONICALIZED>
1

> <PUBCHEM_CACTVS_COMPLEXITY>
706

> <PUBCHEM_CACTVS_HBOND_ACCEPTOR>
6

> <PUBCHEM_CACTVS_HBOND_DONOR>
1

> <PUBCHEM_CACTVS_ROTATABLE_BOND>
8

> <PUBCHEM_CACTVS_SUBSKEYS>
AAADceB7sABAAAAAAAAAAAAAAAAAAWLAAAAwYAAAAAAAAAAB0AAAHgQYQAAADCjB2AQ30YbIEAKqAiVTdHDSBDsxgoAdyJkIZIiIKDLAmZGEIAholgLIyCcYiICOGAAAAAAAAAAwAAAAAAAAAAAAAAAAAA==

> <PUBCHEM_IUPAC_OPENEYE_NAME>
3-(4-pyrrolidin-1-ylsulfonylphenyl)-N-[1-[4-(1,2,4-triazol-1-yl)phenyl]ethyl]propanamide

> <PUBCHEM_IUPAC_CAS_NAME>
3-[4-(1-pyrrolidinylsulfonyl)phenyl]-N-[1-[4-(1,2,4-triazol-1-yl)phenyl]ethyl]propanamide

> <PUBCHEM_IUPAC_NAME>
3-(4-pyrrolidin-1-ylsulfonylphenyl)-N-[1-[4-(1,2,4-triazol-1-yl)phenyl]ethyl]propanamide

> <PUBCHEM_IUPAC_SYSTEMATIC_NAME>
3-(4-pyrrolidin-1-ylsulfonylphenyl)-N-[1-[4-(1,2,4-triazol-1-yl)phenyl]ethyl]propanamide

> <PUBCHEM_IUPAC_TRADITIONAL_NAME>
3-(4-pyrrolidinosulfonylphenyl)-N-[1-[4-(1,2,4-triazol-1-yl)phenyl]ethyl]propionamide

> <PUBCHEM_IUPAC_INCHI>
InChI=1S/C23H27N5O3S/c1-18(20-7-9-21(10-8-20)28-17-24-16-25-28)26-23(29)13-6-19-4-11-22(12-5-19)32(30,31)27-14-2-3-15-27/h4-5,7-12,16-18H,2-3,6,13-15H2,1H3,(H,26,29)

> <PUBCHEM_IUPAC_INCHIKEY>
KFLFHALTYGSIMP-UHFFFAOYSA-N

> <PUBCHEM_XLOGP3_AA>
2.7

> <PUBCHEM_EXACT_MASS>
453.183461

> <PUBCHEM_MOLECULAR_FORMULA>
C23H27N5O3S

> <PUBCHEM_MOLECULAR_WEIGHT>
453.55718

> <PUBCHEM_OPENEYE_CAN_SMILES>
CC(C1=CC=C(C=C1)N2C=NC=N2)NC(=O)CCC3=CC=C(C=C3)S(=O)(=O)N4CCCC4

> <PUBCHEM_OPENEYE_ISO_SMILES>
CC(C1=CC=C(C=C1)N2C=NC=N2)NC(=O)CCC3=CC=C(C=C3)S(=O)(=O)N4CCCC4

> <PUBCHEM_CACTVS_TPSA>
106

> <PUBCHEM_MONOISOTOPIC_WEIGHT>
453.183461

> <PUBCHEM_TOTAL_CHARGE>
0

> <PUBCHEM_HEAVY_ATOM_COUNT>
32

> <PUBCHEM_ATOM_DEF_STEREO_COUNT>
0

> <PUBCHEM_ATOM_UDEF_STEREO_COUNT>
1

> <PUBCHEM_BOND_DEF_STEREO_COUNT>
0

> <PUBCHEM_BOND_UDEF_STEREO_COUNT>
0

> <PUBCHEM_ISOTOPIC_ATOM_COUNT>
0

> <PUBCHEM_COMPONENT_COUNT>
1

> <PUBCHEM_CACTVS_TAUTO_COUNT>
2

> <PUBCHEM_COORDINATE_TYPE>
1
5
255

> <PUBCHEM_BONDANNOTATIONS>
14  15  8
14  16  8
15  18  8
16  19  8
17  18  8
17  19  8
22  25  3
24  26  8
24  27  8
26  29  8
27  30  8
28  29  8
28  30  8
7  31  8
7  8  8
8  32  8
9  31  8
9  32  8

$$$$

