21742
  -OEChem-07051212592D

 33 34  0     0  0  0  0  0  0999 V2000
    3.7320   -2.2550    0.0000 O   0  0  0  0  0  0  0  0  0  0  0  0
    2.0000   -1.2550    0.0000 O   0  0  0  0  0  0  0  0  0  0  0  0
    5.4804    1.7796    0.0000 C   0  0  0  0  0  0  0  0  0  0  0  0
    5.4920    0.7797    0.0000 C   0  0  0  0  0  0  0  0  0  0  0  0
    4.5981    0.2450    0.0000 C   0  0  0  0  0  0  0  0  0  0  0  0
    4.5981   -0.7550    0.0000 C   0  0  0  0  0  0  0  0  0  0  0  0
    5.4920   -1.2896    0.0000 C   0  0  0  0  0  0  0  0  0  0  0  0
    6.3981    0.2658    0.0000 C   0  0  0  0  0  0  0  0  0  0  0  0
    3.7320    0.7450    0.0000 C   0  0  0  0  0  0  0  0  0  0  0  0
    6.3406    2.2896    0.0000 C   0  0  0  0  0  0  0  0  0  0  0  0
    4.6087    2.2696    0.0000 C   0  0  0  0  0  0  0  0  0  0  0  0
    6.3981   -0.7758    0.0000 C   0  0  0  0  0  0  0  0  0  0  0  0
    3.7320   -1.2550    0.0000 C   0  0  0  0  0  0  0  0  0  0  0  0
    2.8660    0.2450    0.0000 C   0  0  0  0  0  0  0  0  0  0  0  0
    2.8660   -0.7550    0.0000 C   0  0  0  0  0  0  0  0  0  0  0  0
    5.4804   -2.2896    0.0000 C   0  0  0  0  0  0  0  0  0  0  0  0
    2.0000    0.7450    0.0000 C   0  0  0  0  0  0  0  0  0  0  0  0
    6.0209    1.4758    0.0000 H   0  0  0  0  0  0  0  0  0  0  0  0
    6.9338    0.5779    0.0000 H   0  0  0  0  0  0  0  0  0  0  0  0
    3.7320    1.3650    0.0000 H   0  0  0  0  0  0  0  0  0  0  0  0
    6.6568    1.7563    0.0000 H   0  0  0  0  0  0  0  0  0  0  0  0
    6.8740    2.6058    0.0000 H   0  0  0  0  0  0  0  0  0  0  0  0
    6.0244    2.8229    0.0000 H   0  0  0  0  0  0  0  0  0  0  0  0
    4.9125    2.8100    0.0000 H   0  0  0  0  0  0  0  0  0  0  0  0
    4.0682    2.5733    0.0000 H   0  0  0  0  0  0  0  0  0  0  0  0
    4.3049    1.7291    0.0000 H   0  0  0  0  0  0  0  0  0  0  0  0
    6.9338   -1.0879    0.0000 H   0  0  0  0  0  0  0  0  0  0  0  0
    4.8605   -2.2824    0.0000 H   0  0  0  0  0  0  0  0  0  0  0  0
    5.4733   -2.9095    0.0000 H   0  0  0  0  0  0  0  0  0  0  0  0
    6.1004   -2.2968    0.0000 H   0  0  0  0  0  0  0  0  0  0  0  0
    2.3100    1.2820    0.0000 H   0  0  0  0  0  0  0  0  0  0  0  0
    1.4631    1.0550    0.0000 H   0  0  0  0  0  0  0  0  0  0  0  0
    1.6900    0.2081    0.0000 H   0  0  0  0  0  0  0  0  0  0  0  0
  1 13  2  0  0  0  0
  2 15  2  0  0  0  0
  3  4  1  0  0  0  0
  3 10  1  0  0  0  0
  3 11  1  0  0  0  0
  3 18  1  0  0  0  0
  4  5  2  0  0  0  0
  4  8  1  0  0  0  0
  5  6  1  0  0  0  0
  5  9  1  0  0  0  0
  6  7  2  0  0  0  0
  6 13  1  0  0  0  0
  7 12  1  0  0  0  0
  7 16  1  0  0  0  0
  8 12  2  0  0  0  0
  8 19  1  0  0  0  0
  9 14  2  0  0  0  0
  9 20  1  0  0  0  0
 10 21  1  0  0  0  0
 10 22  1  0  0  0  0
 10 23  1  0  0  0  0
 11 24  1  0  0  0  0
 11 25  1  0  0  0  0
 11 26  1  0  0  0  0
 12 27  1  0  0  0  0
 13 15  1  0  0  0  0
 14 15  1  0  0  0  0
 14 17  1  0  0  0  0
 16 28  1  0  0  0  0
 16 29  1  0  0  0  0
 16 30  1  0  0  0  0
 17 31  1  0  0  0  0
 17 32  1  0  0  0  0
 17 33  1  0  0  0  0
M  END
> <PUBCHEM_COMPOUND_CID>
21742

> <PUBCHEM_COMPOUND_CANONICALIZED>
1

> <PUBCHEM_CACTVS_COMPLEXITY>
378

> <PUBCHEM_CACTVS_HBOND_ACCEPTOR>
2

> <PUBCHEM_CACTVS_HBOND_DONOR>
0

> <PUBCHEM_CACTVS_ROTATABLE_BOND>
1

> <PUBCHEM_CACTVS_SUBSKEYS>
AAADceBwMAAAAAAAAAAAAAAAAAAAAAAAAAAwQAAAAAAAAACBAAAAGgAAAAAADQSAmAAyAIAAAACIAqBSAAACAAAkAAAIiAEAAMgIIDKAFRCAIQAggAAIiYcIiMCOwAACAAAQAACAAAQAACAAAAAAAAAAAA==

> <PUBCHEM_IUPAC_OPENEYE_NAME>
5-isopropyl-3,8-dimethyl-naphthalene-1,2-dione

> <PUBCHEM_IUPAC_CAS_NAME>
3,8-dimethyl-5-propan-2-ylnaphthalene-1,2-dione

> <PUBCHEM_IUPAC_NAME>
3,8-dimethyl-5-propan-2-ylnaphthalene-1,2-dione

> <PUBCHEM_IUPAC_SYSTEMATIC_NAME>
3,8-dimethyl-5-propan-2-yl-naphthalene-1,2-dione

> <PUBCHEM_IUPAC_TRADITIONAL_NAME>
5-isopropyl-3,8-dimethyl-1,2-naphthoquinone

> <PUBCHEM_IUPAC_INCHI>
InChI=1S/C15H16O2/c1-8(2)11-6-5-9(3)13-12(11)7-10(4)14(16)15(13)17/h5-8H,1-4H3

> <PUBCHEM_IUPAC_INCHIKEY>
GREWJSSEUGRGIT-UHFFFAOYSA-N

> <PUBCHEM_XLOGP3_AA>
3.4

> <PUBCHEM_EXACT_MASS>
228.11503

> <PUBCHEM_MOLECULAR_FORMULA>
C15H16O2

> <PUBCHEM_MOLECULAR_WEIGHT>
228.28634

> <PUBCHEM_OPENEYE_CAN_SMILES>
CC1=C2C(=C(C=C1)C(C)C)C=C(C(=O)C2=O)C

> <PUBCHEM_OPENEYE_ISO_SMILES>
CC1=C2C(=C(C=C1)C(C)C)C=C(C(=O)C2=O)C

> <PUBCHEM_CACTVS_TPSA>
34.1

> <PUBCHEM_MONOISOTOPIC_WEIGHT>
228.11503

> <PUBCHEM_TOTAL_CHARGE>
0

> <PUBCHEM_HEAVY_ATOM_COUNT>
17

> <PUBCHEM_ATOM_DEF_STEREO_COUNT>
0

> <PUBCHEM_ATOM_UDEF_STEREO_COUNT>
0

> <PUBCHEM_BOND_DEF_STEREO_COUNT>
0

> <PUBCHEM_BOND_UDEF_STEREO_COUNT>
0

> <PUBCHEM_ISOTOPIC_ATOM_COUNT>
0

> <PUBCHEM_COMPONENT_COUNT>
1

> <PUBCHEM_CACTVS_TAUTO_COUNT>
169

> <PUBCHEM_COORDINATE_TYPE>
1
5
255

> <PUBCHEM_BONDANNOTATIONS>
4  5  8
4  8  8
5  6  8
6  7  8
7  12  8
8  12  8

$$$$

