442884
  -OEChem-07051213002D

 45 48  0     1  0  0  0  0  0999 V2000
    4.6660    3.9446    0.0000 O   0  0  0  0  0  0  0  0  0  0  0  0
    6.0746   -3.2003    0.0000 O   0  0  0  0  0  0  0  0  0  0  0  0
    4.7854   -2.0436    0.0000 O   0  0  0  0  0  0  0  0  0  0  0  0
    5.5321    2.4446    0.0000 N   0  0  0  0  0  0  0  0  0  0  0  0
    4.6660    0.9446    0.0000 N   0  0  0  0  0  0  0  0  0  0  0  0
    7.7209   -2.6622    0.0000 N   0  0  0  0  0  0  0  0  0  0  0  0
    6.4783    1.1399    0.0000 C   0  0  3  0  0  0  0  0  0  0  0  0
    7.0619    1.9446    0.0000 C   0  0  0  0  0  0  0  0  0  0  0  0
    6.4783    2.7493    0.0000 C   0  0  0  0  0  0  0  0  0  0  0  0
    5.5321    1.4446    0.0000 C   0  0  0  0  0  0  0  0  0  0  0  0
    6.7889    0.1893    0.0000 C   0  0  0  0  0  0  0  0  0  0  0  0
    4.6660    2.9446    0.0000 C   0  0  0  0  0  0  0  0  0  0  0  0
    3.8000    2.4446    0.0000 C   0  0  0  0  0  0  0  0  0  0  0  0
    3.8000    1.4446    0.0000 C   0  0  0  0  0  0  0  0  0  0  0  0
    6.1211   -0.5550    0.0000 C   0  0  0  0  0  0  0  0  0  0  0  0
    7.7674   -0.0169    0.0000 C   0  0  0  0  0  0  0  0  0  0  0  0
    6.4318   -1.5055    0.0000 C   0  0  0  0  0  0  0  0  0  0  0  0
    8.0781   -0.9674    0.0000 C   0  0  0  0  0  0  0  0  0  0  0  0
    7.4103   -1.7117    0.0000 C   0  0  0  0  0  0  0  0  0  0  0  0
    2.9061    2.9793    0.0000 C   0  0  0  0  0  0  0  0  0  0  0  0
    2.9061    0.9099    0.0000 C   0  0  0  0  0  0  0  0  0  0  0  0
    2.0000    2.4654    0.0000 C   0  0  0  0  0  0  0  0  0  0  0  0
    2.0000    1.4238    0.0000 C   0  0  0  0  0  0  0  0  0  0  0  0
    5.7639   -2.2498    0.0000 C   0  0  0  0  0  0  0  0  0  0  0  0
    8.6994   -2.8684    0.0000 C   0  0  0  0  0  0  0  0  0  0  0  0
    5.4067   -3.9446    0.0000 C   0  0  0  0  0  0  0  0  0  0  0  0
    7.0908    1.0437    0.0000 H   0  0  0  0  0  0  0  0  0  0  0  0
    7.5228    1.5299    0.0000 H   0  0  0  0  0  0  0  0  0  0  0  0
    7.5228    2.3593    0.0000 H   0  0  0  0  0  0  0  0  0  0  0  0
    7.0157    3.0586    0.0000 H   0  0  0  0  0  0  0  0  0  0  0  0
    6.2272    3.3162    0.0000 H   0  0  0  0  0  0  0  0  0  0  0  0
    5.5144   -0.4271    0.0000 H   0  0  0  0  0  0  0  0  0  0  0  0
    8.1815    0.4446    0.0000 H   0  0  0  0  0  0  0  0  0  0  0  0
    8.6848   -1.0952    0.0000 H   0  0  0  0  0  0  0  0  0  0  0  0
    2.9132    3.5992    0.0000 H   0  0  0  0  0  0  0  0  0  0  0  0
    2.9132    0.2900    0.0000 H   0  0  0  0  0  0  0  0  0  0  0  0
    1.4643    2.7775    0.0000 H   0  0  0  0  0  0  0  0  0  0  0  0
    1.4643    1.1117    0.0000 H   0  0  0  0  0  0  0  0  0  0  0  0
    7.3069   -3.1237    0.0000 H   0  0  0  0  0  0  0  0  0  0  0  0
    8.5716   -3.4751    0.0000 H   0  0  0  0  0  0  0  0  0  0  0  0
    9.3061   -2.9963    0.0000 H   0  0  0  0  0  0  0  0  0  0  0  0
    8.8273   -2.2618    0.0000 H   0  0  0  0  0  0  0  0  0  0  0  0
    4.9453   -3.5305    0.0000 H   0  0  0  0  0  0  0  0  0  0  0  0
    4.9927   -4.4061    0.0000 H   0  0  0  0  0  0  0  0  0  0  0  0
    5.8682   -4.3587    0.0000 H   0  0  0  0  0  0  0  0  0  0  0  0
  1 12  2  0  0  0  0
  2 24  1  0  0  0  0
  2 26  1  0  0  0  0
  3 24  2  0  0  0  0
  4  9  1  0  0  0  0
  4 10  1  0  0  0  0
  4 12  1  0  0  0  0
  5 10  2  0  0  0  0
  5 14  1  0  0  0  0
  6 19  1  0  0  0  0
  6 25  1  0  0  0  0
  6 39  1  0  0  0  0
  7  8  1  0  0  0  0
  7 10  1  0  0  0  0
  7 11  1  0  0  0  0
  7 27  1  0  0  0  0
  8  9  1  0  0  0  0
  8 28  1  0  0  0  0
  8 29  1  0  0  0  0
  9 30  1  0  0  0  0
  9 31  1  0  0  0  0
 11 15  2  0  0  0  0
 11 16  1  0  0  0  0
 12 13  1  0  0  0  0
 13 14  1  0  0  0  0
 13 20  2  0  0  0  0
 14 21  2  0  0  0  0
 15 17  1  0  0  0  0
 15 32  1  0  0  0  0
 16 18  2  0  0  0  0
 16 33  1  0  0  0  0
 17 19  2  0  0  0  0
 17 24  1  0  0  0  0
 18 19  1  0  0  0  0
 18 34  1  0  0  0  0
 20 22  1  0  0  0  0
 20 35  1  0  0  0  0
 21 23  1  0  0  0  0
 21 36  1  0  0  0  0
 22 23  2  0  0  0  0
 22 37  1  0  0  0  0
 23 38  1  0  0  0  0
 25 40  1  0  0  0  0
 25 41  1  0  0  0  0
 25 42  1  0  0  0  0
 26 43  1  0  0  0  0
 26 44  1  0  0  0  0
 26 45  1  0  0  0  0
M  END
> <PUBCHEM_COMPOUND_CID>
442884

> <PUBCHEM_COMPOUND_CANONICALIZED>
1

> <PUBCHEM_CACTVS_COMPLEXITY>
605

> <PUBCHEM_CACTVS_HBOND_ACCEPTOR>
5

> <PUBCHEM_CACTVS_HBOND_DONOR>
1

> <PUBCHEM_CACTVS_ROTATABLE_BOND>
4

> <PUBCHEM_CACTVS_SUBSKEYS>
AAADceB7MAAAAAAAAAAAAAAAAAAAAWAAAAAwYIAAAAAAAECBQAAAHgAQAAAADQjBmAYzyIPABACoAifyfACCAAElAgAJiIE4bMgIJjrA/ZmEMYhm1gHI6ceYyPCOiAACAAACAAAQAAQAAAQAAAAAAAAAAA==

> <PUBCHEM_IUPAC_OPENEYE_NAME>
methyl 2-(methylamino)-5-(9-oxo-2,3-dihydro-1H-pyrrolo[2,1-b]quinazolin-3-yl)benzoate

> <PUBCHEM_IUPAC_CAS_NAME>
2-(methylamino)-5-(9-oxo-2,3-dihydro-1H-pyrrolo[2,1-b]quinazolin-3-yl)benzoic acid methyl ester

> <PUBCHEM_IUPAC_NAME>
methyl 2-(methylamino)-5-(9-oxo-2,3-dihydro-1H-pyrrolo[2,1-b]quinazolin-3-yl)benzoate

> <PUBCHEM_IUPAC_SYSTEMATIC_NAME>
methyl 2-(methylamino)-5-(9-oxidanylidene-2,3-dihydro-1H-pyrrolo[2,1-b]quinazolin-3-yl)benzoate

> <PUBCHEM_IUPAC_TRADITIONAL_NAME>
5-(9-keto-2,3-dihydro-1H-pyrrolo[2,1-b]quinazolin-3-yl)-2-(methylamino)benzoic acid methyl ester

> <PUBCHEM_IUPAC_INCHI>
InChI=1S/C20H19N3O3/c1-21-16-8-7-12(11-15(16)20(25)26-2)13-9-10-23-18(13)22-17-6-4-3-5-14(17)19(23)24/h3-8,11,13,21H,9-10H2,1-2H3

> <PUBCHEM_IUPAC_INCHIKEY>
FZKRWTVMKFSFSG-UHFFFAOYSA-N

> <PUBCHEM_XLOGP3_AA>
3

> <PUBCHEM_EXACT_MASS>
349.142641

> <PUBCHEM_MOLECULAR_FORMULA>
C20H19N3O3

> <PUBCHEM_MOLECULAR_WEIGHT>
349.38316

> <PUBCHEM_OPENEYE_CAN_SMILES>
CNC1=C(C=C(C=C1)C2CCN3C2=NC4=CC=CC=C4C3=O)C(=O)OC

> <PUBCHEM_OPENEYE_ISO_SMILES>
CNC1=C(C=C(C=C1)C2CCN3C2=NC4=CC=CC=C4C3=O)C(=O)OC

> <PUBCHEM_CACTVS_TPSA>
71

> <PUBCHEM_MONOISOTOPIC_WEIGHT>
349.142641

> <PUBCHEM_TOTAL_CHARGE>
0

> <PUBCHEM_HEAVY_ATOM_COUNT>
26

> <PUBCHEM_ATOM_DEF_STEREO_COUNT>
0

> <PUBCHEM_ATOM_UDEF_STEREO_COUNT>
1

> <PUBCHEM_BOND_DEF_STEREO_COUNT>
0

> <PUBCHEM_BOND_UDEF_STEREO_COUNT>
0

> <PUBCHEM_ISOTOPIC_ATOM_COUNT>
0

> <PUBCHEM_COMPONENT_COUNT>
1

> <PUBCHEM_CACTVS_TAUTO_COUNT>
20

> <PUBCHEM_COORDINATE_TYPE>
1
5
255

> <PUBCHEM_BONDANNOTATIONS>
11  15  8
11  16  8
12  13  8
13  14  8
13  20  8
14  21  8
15  17  8
16  18  8
17  19  8
18  19  8
20  22  8
21  23  8
22  23  8
4  10  8
4  12  8
5  10  8
5  14  8
7  11  3

$$$$

