5375
  -OEChem-06261200392D

 52 54  0     1  0  0  0  0  0999 V2000
    4.2268   -0.0725    0.0000 O   0  0  0  0  0  0  0  0  0  0  0  0
    3.1249    0.7281    0.0000 O   0  0  0  0  0  0  0  0  0  0  0  0
    7.6910   -1.0725    0.0000 O   0  0  0  0  0  0  0  0  0  0  0  0
    9.4230    2.9275    0.0000 O   0  0  0  0  0  0  0  0  0  0  0  0
   11.1551   -0.0725    0.0000 O   0  0  0  0  0  0  0  0  0  0  0  0
    5.0929    1.4275    0.0000 N   0  0  0  0  0  0  0  0  0  0  0  0
    6.8249    0.4275    0.0000 N   0  0  0  0  0  0  0  0  0  0  0  0
    2.5896    2.3754    0.0000 N   0  0  0  0  0  0  0  0  0  0  0  0
    9.4230   -0.0725    0.0000 N   0  0  0  0  0  0  0  0  0  0  0  0
   10.2890    1.4275    0.0000 N   0  0  0  0  0  0  0  0  0  0  0  0
    4.9883   -2.5670    0.0000 N   0  0  0  0  0  0  0  0  0  0  0  0
    3.5102   -1.9089    0.0000 N   0  0  0  0  0  0  0  0  0  0  0  0
    4.2839    2.0153    0.0000 C   0  0  3  0  0  0  0  0  0  0  0  0
    4.5929    2.9664    0.0000 C   0  0  0  0  0  0  0  0  0  0  0  0
    5.9019    2.0153    0.0000 C   0  0  0  0  0  0  0  0  0  0  0  0
    5.5929    2.9664    0.0000 C   0  0  0  0  0  0  0  0  0  0  0  0
    5.0929    0.4275    0.0000 C   0  0  0  0  0  0  0  0  0  0  0  0
    5.9589   -0.0725    0.0000 C   0  0  3  0  0  0  0  0  0  0  0  0
    3.3328    1.7063    0.0000 C   0  0  0  0  0  0  0  0  0  0  0  0
    5.9589   -1.0725    0.0000 C   0  0  0  0  0  0  0  0  0  0  0  0
    8.5570    0.4275    0.0000 C   0  0  3  0  0  0  0  0  0  0  0  0
    7.6910   -0.0725    0.0000 C   0  0  0  0  0  0  0  0  0  0  0  0
    8.5570    1.4275    0.0000 C   0  0  0  0  0  0  0  0  0  0  0  0
    5.0929   -1.5725    0.0000 C   0  0  0  0  0  0  0  0  0  0  0  0
    9.4230    1.9275    0.0000 C   0  0  0  0  0  0  0  0  0  0  0  0
   10.2890    0.4275    0.0000 C   0  0  0  0  0  0  0  0  0  0  0  0
    4.1793   -1.1658    0.0000 C   0  0  0  0  0  0  0  0  0  0  0  0
   11.1551    1.9275    0.0000 C   0  0  0  0  0  0  0  0  0  0  0  0
    4.0102   -2.7749    0.0000 C   0  0  0  0  0  0  0  0  0  0  0  0
    4.1869    1.4029    0.0000 H   0  0  0  0  0  0  0  0  0  0  0  0
    4.6577    3.5830    0.0000 H   0  0  0  0  0  0  0  0  0  0  0  0
    3.9864    3.0953    0.0000 H   0  0  0  0  0  0  0  0  0  0  0  0
    6.2119    1.4784    0.0000 H   0  0  0  0  0  0  0  0  0  0  0  0
    6.4683    2.2675    0.0000 H   0  0  0  0  0  0  0  0  0  0  0  0
    6.1993    3.0953    0.0000 H   0  0  0  0  0  0  0  0  0  0  0  0
    5.5281    3.5830    0.0000 H   0  0  0  0  0  0  0  0  0  0  0  0
    6.4958   -0.3825    0.0000 H   0  0  0  0  0  0  0  0  0  0  0  0
    6.1710   -1.6551    0.0000 H   0  0  0  0  0  0  0  0  0  0  0  0
    6.5695   -0.9648    0.0000 H   0  0  0  0  0  0  0  0  0  0  0  0
    6.8249    1.0475    0.0000 H   0  0  0  0  0  0  0  0  0  0  0  0
    8.5570   -0.1925    0.0000 H   0  0  0  0  0  0  0  0  0  0  0  0
    8.3449    2.0101    0.0000 H   0  0  0  0  0  0  0  0  0  0  0  0
    7.9464    1.3198    0.0000 H   0  0  0  0  0  0  0  0  0  0  0  0
    9.4230   -0.6925    0.0000 H   0  0  0  0  0  0  0  0  0  0  0  0
    2.0000    2.1838    0.0000 H   0  0  0  0  0  0  0  0  0  0  0  0
    2.7186    2.9819    0.0000 H   0  0  0  0  0  0  0  0  0  0  0  0
    5.4491   -2.9819    0.0000 H   0  0  0  0  0  0  0  0  0  0  0  0
    4.0504   -0.5593    0.0000 H   0  0  0  0  0  0  0  0  0  0  0  0
   11.4651    1.3906    0.0000 H   0  0  0  0  0  0  0  0  0  0  0  0
   11.6920    2.2375    0.0000 H   0  0  0  0  0  0  0  0  0  0  0  0
   10.8451    2.4644    0.0000 H   0  0  0  0  0  0  0  0  0  0  0  0
    3.7580   -3.3413    0.0000 H   0  0  0  0  0  0  0  0  0  0  0  0
  1 17  2  0  0  0  0
  2 19  2  0  0  0  0
  3 22  2  0  0  0  0
  4 25  2  0  0  0  0
  5 26  2  0  0  0  0
  6 13  1  0  0  0  0
  6 15  1  0  0  0  0
  6 17  1  0  0  0  0
  7 18  1  0  0  0  0
  7 22  1  0  0  0  0
  7 40  1  0  0  0  0
  8 19  1  0  0  0  0
  8 45  1  0  0  0  0
  8 46  1  0  0  0  0
  9 21  1  0  0  0  0
  9 26  1  0  0  0  0
  9 44  1  0  0  0  0
 10 25  1  0  0  0  0
 10 26  1  0  0  0  0
 10 28  1  0  0  0  0
 11 24  1  0  0  0  0
 11 29  1  0  0  0  0
 11 47  1  0  0  0  0
 12 27  1  0  0  0  0
 12 29  2  0  0  0  0
 13 14  1  0  0  0  0
 13 19  1  0  0  0  0
 13 30  1  0  0  0  0
 14 16  1  0  0  0  0
 14 31  1  0  0  0  0
 14 32  1  0  0  0  0
 15 16  1  0  0  0  0
 15 33  1  0  0  0  0
 15 34  1  0  0  0  0
 16 35  1  0  0  0  0
 16 36  1  0  0  0  0
 17 18  1  0  0  0  0
 18 20  1  0  0  0  0
 18 37  1  0  0  0  0
 20 24  1  0  0  0  0
 20 38  1  0  0  0  0
 20 39  1  0  0  0  0
 21 22  1  0  0  0  0
 21 23  1  0  0  0  0
 21 41  1  0  0  0  0
 23 25  1  0  0  0  0
 23 42  1  0  0  0  0
 23 43  1  0  0  0  0
 24 27  2  0  0  0  0
 27 48  1  0  0  0  0
 28 49  1  0  0  0  0
 28 50  1  0  0  0  0
 28 51  1  0  0  0  0
 29 52  1  0  0  0  0
M  END
> <PUBCHEM_COMPOUND_CID>
5375

> <PUBCHEM_COMPOUND_CANONICALIZED>
1

> <PUBCHEM_CACTVS_COMPLEXITY>
714

> <PUBCHEM_CACTVS_HBOND_ACCEPTOR>
6

> <PUBCHEM_CACTVS_HBOND_DONOR>
4

> <PUBCHEM_CACTVS_ROTATABLE_BOND>
6

> <PUBCHEM_CACTVS_SUBSKEYS>
AAADceB7uAAAAAAAAAAAAAAAAAAAAWLAAAAsAAAAAAAAAAABgAAAHgAQAAAACCjBlgQvkBfJkACoARV3dAAAgC2xEqABUYG4cAiAaBpA2SGUAAAIlyLAQCAdAQAAAAAAAAAAAAAAAAAAAAAAAAAAAAAAAA==

> <PUBCHEM_IUPAC_OPENEYE_NAME>
N-[2-(2-carbamoylpyrrolidin-1-yl)-1-(1H-imidazol-5-ylmethyl)-2-oxo-ethyl]-1-methyl-2,6-dioxo-hexahydropyrimidine-4-carboxamide

> <PUBCHEM_IUPAC_CAS_NAME>
N-[1-(2-carbamoyl-1-pyrrolidinyl)-3-(1H-imidazol-5-yl)-1-oxopropan-2-yl]-1-methyl-2,6-dioxo-1,3-diazinane-4-carboxamide

> <PUBCHEM_IUPAC_NAME>
N-[1-(2-carbamoylpyrrolidin-1-yl)-3-(1H-imidazol-5-yl)-1-oxopropan-2-yl]-1-methyl-2,6-dioxo-1,3-diazinane-4-carboxamide

> <PUBCHEM_IUPAC_SYSTEMATIC_NAME>
N-[1-(2-aminocarbonylpyrrolidin-1-yl)-3-(1H-imidazol-5-yl)-1-oxidanylidene-propan-2-yl]-1-methyl-2,6-bis(oxidanylidene)-1,3-diazinane-4-carboxamide

> <PUBCHEM_IUPAC_TRADITIONAL_NAME>
N-[2-(2-carbamoylpyrrolidino)-1-(1H-imidazol-5-ylmethyl)-2-keto-ethyl]-2,6-diketo-1-methyl-hexahydropyrimidine-4-carboxamide

> <PUBCHEM_IUPAC_INCHI>
InChI=1S/C17H23N7O5/c1-23-13(25)6-10(22-17(23)29)15(27)21-11(5-9-7-19-8-20-9)16(28)24-4-2-3-12(24)14(18)26/h7-8,10-12H,2-6H2,1H3,(H2,18,26)(H,19,20)(H,21,27)(H,22,29)

> <PUBCHEM_IUPAC_INCHIKEY>
LQZAIAZUDWIVPM-UHFFFAOYSA-N

> <PUBCHEM_XLOGP3>
-3

> <PUBCHEM_EXACT_MASS>
405.176067

> <PUBCHEM_MOLECULAR_FORMULA>
C17H23N7O5

> <PUBCHEM_MOLECULAR_WEIGHT>
405.40842

> <PUBCHEM_OPENEYE_CAN_SMILES>
CN1C(=O)CC(NC1=O)C(=O)NC(CC2=CN=CN2)C(=O)N3CCCC3C(=O)N

> <PUBCHEM_OPENEYE_ISO_SMILES>
CN1C(=O)CC(NC1=O)C(=O)NC(CC2=CN=CN2)C(=O)N3CCCC3C(=O)N

> <PUBCHEM_CACTVS_TPSA>
171

> <PUBCHEM_MONOISOTOPIC_WEIGHT>
405.176067

> <PUBCHEM_TOTAL_CHARGE>
0

> <PUBCHEM_HEAVY_ATOM_COUNT>
29

> <PUBCHEM_ATOM_DEF_STEREO_COUNT>
0

> <PUBCHEM_ATOM_UDEF_STEREO_COUNT>
3

> <PUBCHEM_BOND_DEF_STEREO_COUNT>
0

> <PUBCHEM_BOND_UDEF_STEREO_COUNT>
0

> <PUBCHEM_ISOTOPIC_ATOM_COUNT>
0

> <PUBCHEM_COMPONENT_COUNT>
1

> <PUBCHEM_CACTVS_TAUTO_COUNT>
48

> <PUBCHEM_COORDINATE_TYPE>
1
5
255

> <PUBCHEM_BONDANNOTATIONS>
11  24  8
11  29  8
12  27  8
12  29  8
13  19  3
18  20  3
21  22  3
24  27  8

$$$$

