443629
  -OEChem-07051213022D

 69 71  0     1  0  0  0  0  0999 V2000
    6.0010   -2.4050    0.0000 O   0  0  0  0  0  0  0  0  0  0  0  0
    4.2690    0.5950    0.0000 O   0  0  0  0  0  0  0  0  0  0  0  0
    4.2690   -1.4050    0.0000 O   0  0  0  0  0  0  0  0  0  0  0  0
    4.2690   -2.4050    0.0000 O   0  0  0  0  0  0  0  0  0  0  0  0
    8.5991   -0.9050    0.0000 O   0  0  0  0  0  0  0  0  0  0  0  0
    7.7331    0.5950    0.0000 O   0  0  0  0  0  0  0  0  0  0  0  0
    6.0010   -4.4050    0.0000 O   0  0  0  0  0  0  0  0  0  0  0  0
    9.4651    1.5950    0.0000 O   0  0  0  0  0  0  0  0  0  0  0  0
    4.2690   -5.4050    0.0000 O   0  0  0  0  0  0  0  0  0  0  0  0
    2.5369   -4.4050    0.0000 O   0  0  0  0  0  0  0  0  0  0  0  0
    9.4651    3.5950    0.0000 O   0  0  0  0  0  0  0  0  0  0  0  0
    2.5369   -1.4050    0.0000 O   0  0  0  0  0  0  0  0  0  0  0  0
    6.8671    5.0950    0.0000 O   0  0  0  0  0  0  0  0  0  0  0  0
    6.0010    1.5950    0.0000 N   0  0  0  0  0  0  0  0  0  0  0  0
    6.0010    0.5950    0.0000 C   0  0  1  0  0  0  0  0  0  0  0  0
    6.8671   -0.9050    0.0000 C   0  0  2  0  0  0  0  0  0  0  0  0
    6.0010   -1.4050    0.0000 C   0  0  2  0  0  0  0  0  0  0  0  0
    6.8671    0.0950    0.0000 C   0  0  0  0  0  0  0  0  0  0  0  0
    5.1350    0.0950    0.0000 C   0  0  1  0  0  0  0  0  0  0  0  0
    5.1350   -0.9050    0.0000 C   0  0  1  0  0  0  0  0  0  0  0  0
    6.8671    2.0950    0.0000 C   0  0  2  0  0  0  0  0  0  0  0  0
    7.7331   -1.4050    0.0000 C   0  0  0  0  0  0  0  0  0  0  0  0
    5.1350   -2.9050    0.0000 C   0  0  2  0  0  0  0  0  0  0  0  0
    7.7331    1.5950    0.0000 C   0  0  1  0  0  0  0  0  0  0  0  0
    5.1350   -3.9050    0.0000 C   0  0  1  0  0  0  0  0  0  0  0  0
    8.5991    2.0950    0.0000 C   0  0  2  0  0  0  0  0  0  0  0  0
    4.2690   -4.4050    0.0000 C   0  0  2  0  0  0  0  0  0  0  0  0
    6.8671    3.0950    0.0000 C   0  0  0  0  0  0  0  0  0  0  0  0
    3.4030   -3.9050    0.0000 C   0  0  1  0  0  0  0  0  0  0  0  0
    8.5991    3.0950    0.0000 C   0  0  1  0  0  0  0  0  0  0  0  0
    3.4030   -2.9050    0.0000 C   0  0  1  0  0  0  0  0  0  0  0  0
    7.7331    3.5950    0.0000 C   0  0  0  0  0  0  0  0  0  0  0  0
    2.5369   -2.4050    0.0000 C   0  0  0  0  0  0  0  0  0  0  0  0
    7.7331    4.5950    0.0000 C   0  0  0  0  0  0  0  0  0  0  0  0
    6.5380    0.9050    0.0000 H   0  0  0  0  0  0  0  0  0  0  0  0
    7.4040   -0.5950    0.0000 H   0  0  0  0  0  0  0  0  0  0  0  0
    6.5380   -1.7150    0.0000 H   0  0  0  0  0  0  0  0  0  0  0  0
    7.4776   -0.0127    0.0000 H   0  0  0  0  0  0  0  0  0  0  0  0
    7.0791    0.6776    0.0000 H   0  0  0  0  0  0  0  0  0  0  0  0
    5.1350    0.7150    0.0000 H   0  0  0  0  0  0  0  0  0  0  0  0
    5.1350   -1.5250    0.0000 H   0  0  0  0  0  0  0  0  0  0  0  0
    5.4641    1.9050    0.0000 H   0  0  0  0  0  0  0  0  0  0  0  0
    6.3301    2.4050    0.0000 H   0  0  0  0  0  0  0  0  0  0  0  0
    7.3346   -1.8800    0.0000 H   0  0  0  0  0  0  0  0  0  0  0  0
    8.1316   -1.8800    0.0000 H   0  0  0  0  0  0  0  0  0  0  0  0
    5.1350   -2.2850    0.0000 H   0  0  0  0  0  0  0  0  0  0  0  0
    8.2700    1.2850    0.0000 H   0  0  0  0  0  0  0  0  0  0  0  0
    5.6720   -3.5950    0.0000 H   0  0  0  0  0  0  0  0  0  0  0  0
    8.5991    1.4750    0.0000 H   0  0  0  0  0  0  0  0  0  0  0  0
    4.8059   -4.7150    0.0000 H   0  0  0  0  0  0  0  0  0  0  0  0
    6.3301    3.4050    0.0000 H   0  0  0  0  0  0  0  0  0  0  0  0
    3.7320    0.2850    0.0000 H   0  0  0  0  0  0  0  0  0  0  0  0
    3.7320   -1.0950    0.0000 H   0  0  0  0  0  0  0  0  0  0  0  0
    2.8660   -3.5950    0.0000 H   0  0  0  0  0  0  0  0  0  0  0  0
    3.4030   -2.2850    0.0000 H   0  0  0  0  0  0  0  0  0  0  0  0
    8.5991    3.7150    0.0000 H   0  0  0  0  0  0  0  0  0  0  0  0
    9.1360   -1.2150    0.0000 H   0  0  0  0  0  0  0  0  0  0  0  0
    1.9264   -2.2973    0.0000 H   0  0  0  0  0  0  0  0  0  0  0  0
    2.3249   -2.9876    0.0000 H   0  0  0  0  0  0  0  0  0  0  0  0
    8.2700    0.2850    0.0000 H   0  0  0  0  0  0  0  0  0  0  0  0
    8.3437    4.4873    0.0000 H   0  0  0  0  0  0  0  0  0  0  0  0
    7.9451    5.1776    0.0000 H   0  0  0  0  0  0  0  0  0  0  0  0
    6.0010   -5.0250    0.0000 H   0  0  0  0  0  0  0  0  0  0  0  0
   10.0021    1.9050    0.0000 H   0  0  0  0  0  0  0  0  0  0  0  0
    3.7320   -5.7150    0.0000 H   0  0  0  0  0  0  0  0  0  0  0  0
    2.0000   -4.0950    0.0000 H   0  0  0  0  0  0  0  0  0  0  0  0
    9.4651    4.2150    0.0000 H   0  0  0  0  0  0  0  0  0  0  0  0
    2.0000   -1.0950    0.0000 H   0  0  0  0  0  0  0  0  0  0  0  0
    6.8671    5.7150    0.0000 H   0  0  0  0  0  0  0  0  0  0  0  0
 17  1  1  1  0  0  0
 23  1  1  1  0  0  0
 19  2  1  1  0  0  0
  2 52  1  0  0  0  0
 20  3  1  6  0  0  0
  3 53  1  0  0  0  0
  4 23  1  0  0  0  0
  4 31  1  0  0  0  0
  5 22  1  0  0  0  0
  5 57  1  0  0  0  0
 24  6  1  1  0  0  0
  6 60  1  0  0  0  0
 25  7  1  6  0  0  0
  7 63  1  0  0  0  0
 26  8  1  6  0  0  0
  8 64  1  0  0  0  0
 27  9  1  1  0  0  0
  9 65  1  0  0  0  0
 29 10  1  6  0  0  0
 10 66  1  0  0  0  0
 30 11  1  1  0  0  0
 11 67  1  0  0  0  0
 12 33  1  0  0  0  0
 12 68  1  0  0  0  0
 13 34  1  0  0  0  0
 13 69  1  0  0  0  0
 15 14  1  1  0  0  0
 21 14  1  1  0  0  0
 14 42  1  0  0  0  0
 15 18  1  0  0  0  0
 15 19  1  0  0  0  0
 15 35  1  0  0  0  0
 16 17  1  0  0  0  0
 16 18  1  0  0  0  0
 16 22  1  6  0  0  0
 16 36  1  0  0  0  0
 17 20  1  0  0  0  0
 17 37  1  0  0  0  0
 18 38  1  0  0  0  0
 18 39  1  0  0  0  0
 19 20  1  0  0  0  0
 19 40  1  0  0  0  0
 20 41  1  0  0  0  0
 21 24  1  0  0  0  0
 21 28  1  0  0  0  0
 21 43  1  0  0  0  0
 22 44  1  0  0  0  0
 22 45  1  0  0  0  0
 23 25  1  0  0  0  0
 23 46  1  0  0  0  0
 24 26  1  0  0  0  0
 24 47  1  0  0  0  0
 25 27  1  0  0  0  0
 25 48  1  0  0  0  0
 26 30  1  0  0  0  0
 26 49  1  0  0  0  0
 27 29  1  0  0  0  0
 27 50  1  0  0  0  0
 28 32  2  0  0  0  0
 28 51  1  0  0  0  0
 29 31  1  0  0  0  0
 29 54  1  0  0  0  0
 30 32  1  0  0  0  0
 30 56  1  0  0  0  0
 31 33  1  1  0  0  0
 31 55  1  0  0  0  0
 32 34  1  0  0  0  0
 33 58  1  0  0  0  0
 33 59  1  0  0  0  0
 34 61  1  0  0  0  0
 34 62  1  0  0  0  0
M  END
> <PUBCHEM_COMPOUND_CID>
443629

> <PUBCHEM_COMPOUND_CANONICALIZED>
1

> <PUBCHEM_CACTVS_COMPLEXITY>
697

> <PUBCHEM_CACTVS_HBOND_ACCEPTOR>
14

> <PUBCHEM_CACTVS_HBOND_DONOR>
12

> <PUBCHEM_CACTVS_ROTATABLE_BOND>
7

> <PUBCHEM_CACTVS_SUBSKEYS>
AAADcfB6PAAAAAAAAAAAAAAAAAAAAAAAAAA0QIAAAAAAAAAAAAAAHgAQCAAADTzxgAcACALABgCAAiBCAACAAAAgAAAACIAIAAgTFAIAgQAmUAAH0ACfEAPw8D8OAAAAAAAAAABAgAKUABCgAAAAAAAAAA==

> <PUBCHEM_IUPAC_OPENEYE_NAME>
(2R,3R,4S,5S,6R)-2-[(1R,2R,3S,4S,6R)-2,3-dihydroxy-6-(hydroxymethyl)-4-[[(1S,4R,5S,6S)-4,5,6-trihydroxy-3-(hydroxymethyl)cyclohex-2-en-1-yl]amino]cyclohexoxy]-6-(hydroxymethyl)tetrahydropyran-3,4,5-triol

> <PUBCHEM_IUPAC_CAS_NAME>
(2R,3R,4S,5S,6R)-2-[(1R,2R,3S,4S,6R)-2,3-dihydroxy-6-(hydroxymethyl)-4-[[(1S,4R,5S,6S)-4,5,6-trihydroxy-3-(hydroxymethyl)-1-cyclohex-2-enyl]amino]cyclohexyl]oxy-6-(hydroxymethyl)oxane-3,4,5-triol

> <PUBCHEM_IUPAC_NAME>
(2R,3R,4S,5S,6R)-2-[(1R,2R,3S,4S,6R)-2,3-dihydroxy-6-(hydroxymethyl)-4-[[(1S,4R,5S,6S)-4,5,6-trihydroxy-3-(hydroxymethyl)cyclohex-2-en-1-yl]amino]cyclohexyl]oxy-6-(hydroxymethyl)oxane-3,4,5-triol

> <PUBCHEM_IUPAC_SYSTEMATIC_NAME>
(2R,3S,4S,5R,6R)-2-(hydroxymethyl)-6-[(1R,2R,3S,4S,6R)-6-(hydroxymethyl)-4-[[(1S,4R,5S,6S)-3-(hydroxymethyl)-4,5,6-tris(oxidanyl)cyclohex-2-en-1-yl]amino]-2,3-bis(oxidanyl)cyclohexyl]oxy-oxane-3,4,5-triol

> <PUBCHEM_IUPAC_TRADITIONAL_NAME>
(2R,3R,4S,5S,6R)-2-[(1R,2R,3S,4S,6R)-2,3-dihydroxy-6-methylol-4-[[(1S,4R,5S,6S)-4,5,6-trihydroxy-3-methylol-cyclohex-2-en-1-yl]amino]cyclohexoxy]-6-methylol-tetrahydropyran-3,4,5-triol

> <PUBCHEM_IUPAC_INCHI>
InChI=1S/C20H35NO13/c22-3-6-1-8(12(26)15(29)11(6)25)21-9-2-7(4-23)19(17(31)13(9)27)34-20-18(32)16(30)14(28)10(5-24)33-20/h1,7-32H,2-5H2/t7-,8+,9+,10-,11-,12+,13+,14-,15+,16+,17-,18-,19-,20+/m1/s1

> <PUBCHEM_IUPAC_INCHIKEY>
JARYYMUOCXVXNK-CSLFJTBJSA-N

> <PUBCHEM_XLOGP3_AA>
-6.3

> <PUBCHEM_EXACT_MASS>
497.21084

> <PUBCHEM_MOLECULAR_FORMULA>
C20H35NO13

> <PUBCHEM_MOLECULAR_WEIGHT>
497.4908

> <PUBCHEM_OPENEYE_CAN_SMILES>
C1C(C(C(C(C1NC2C=C(C(C(C2O)O)O)CO)O)O)OC3C(C(C(C(O3)CO)O)O)O)CO

> <PUBCHEM_OPENEYE_ISO_SMILES>
C1[C@@H]([C@H]([C@@H]([C@H]([C@H]1N[C@H]2C=C([C@H]([C@@H]([C@H]2O)O)O)CO)O)O)O[C@H]3[C@@H]([C@H]([C@@H]([C@H](O3)CO)O)O)O)CO

> <PUBCHEM_CACTVS_TPSA>
253

> <PUBCHEM_MONOISOTOPIC_WEIGHT>
497.21084

> <PUBCHEM_TOTAL_CHARGE>
0

> <PUBCHEM_HEAVY_ATOM_COUNT>
34

> <PUBCHEM_ATOM_DEF_STEREO_COUNT>
14

> <PUBCHEM_ATOM_UDEF_STEREO_COUNT>
0

> <PUBCHEM_BOND_DEF_STEREO_COUNT>
0

> <PUBCHEM_BOND_UDEF_STEREO_COUNT>
0

> <PUBCHEM_ISOTOPIC_ATOM_COUNT>
0

> <PUBCHEM_COMPONENT_COUNT>
1

> <PUBCHEM_CACTVS_TAUTO_COUNT>
1

> <PUBCHEM_COORDINATE_TYPE>
1
5
255

> <PUBCHEM_BONDANNOTATIONS>
17  1  5
23  1  5
29  10  6
30  11  5
15  14  5
21  14  5
16  22  6
19  2  5
20  3  6
31  33  5
24  6  5
25  7  6
26  8  6
27  9  5

$$$$

