9735
  -OEChem-06261204002D

 20 18  0     0  0  0  0  0  0999 V2000
    0.0000    1.0000    0.0000 Na  0  3  0  0  0  0  0  0  0  0  0  0
    6.9282    1.0000    0.0000 F   0  0  0  0  0  0  0  0  0  0  0  0
    0.8660    1.5000    0.0000 O   0  5  0  0  0  0  0  0  0  0  0  0
    1.7321    0.0000    0.0000 O   0  0  0  0  0  0  0  0  0  0  0  0
    4.3301    1.5000    0.0000 C   0  0  0  0  0  0  0  0  0  0  0  0
    3.4641    1.0000    0.0000 C   0  0  0  0  0  0  0  0  0  0  0  0
    5.1962    1.0000    0.0000 C   0  0  0  0  0  0  0  0  0  0  0  0
    2.5981    1.5000    0.0000 C   0  0  0  0  0  0  0  0  0  0  0  0
    6.0622    1.5000    0.0000 C   0  0  0  0  0  0  0  0  0  0  0  0
    1.7321    1.0000    0.0000 C   0  0  0  0  0  0  0  0  0  0  0  0
    4.7287    1.9749    0.0000 H   0  0  0  0  0  0  0  0  0  0  0  0
    3.9316    1.9749    0.0000 H   0  0  0  0  0  0  0  0  0  0  0  0
    3.0656    0.5251    0.0000 H   0  0  0  0  0  0  0  0  0  0  0  0
    3.8626    0.5251    0.0000 H   0  0  0  0  0  0  0  0  0  0  0  0
    4.7976    0.5251    0.0000 H   0  0  0  0  0  0  0  0  0  0  0  0
    5.5947    0.5251    0.0000 H   0  0  0  0  0  0  0  0  0  0  0  0
    2.9966    1.9749    0.0000 H   0  0  0  0  0  0  0  0  0  0  0  0
    2.1995    1.9749    0.0000 H   0  0  0  0  0  0  0  0  0  0  0  0
    5.6636    1.9749    0.0000 H   0  0  0  0  0  0  0  0  0  0  0  0
    6.4607    1.9749    0.0000 H   0  0  0  0  0  0  0  0  0  0  0  0
  2  9  1  0  0  0  0
  3 10  1  0  0  0  0
  4 10  2  0  0  0  0
  5  6  1  0  0  0  0
  5  7  1  0  0  0  0
  5 11  1  0  0  0  0
  5 12  1  0  0  0  0
  6  8  1  0  0  0  0
  6 13  1  0  0  0  0
  6 14  1  0  0  0  0
  7  9  1  0  0  0  0
  7 15  1  0  0  0  0
  7 16  1  0  0  0  0
  8 10  1  0  0  0  0
  8 17  1  0  0  0  0
  8 18  1  0  0  0  0
  9 19  1  0  0  0  0
  9 20  1  0  0  0  0
M  CHG  2   1   1   3  -1
M  END
> <PUBCHEM_COMPOUND_CID>
9735

> <PUBCHEM_COMPOUND_CANONICALIZED>
1

> <PUBCHEM_CACTVS_COMPLEXITY>
77.6

> <PUBCHEM_CACTVS_HBOND_ACCEPTOR>
3

> <PUBCHEM_CACTVS_HBOND_DONOR>
0

> <PUBCHEM_CACTVS_ROTATABLE_BOND>
4

> <PUBCHEM_CACTVS_SUBSKEYS>
AAADccBgMSAAAAAAAAAAAAAAAAAAAAAAAAAAAAAAAAAAAAAAAAAAGwAAAAAACACAgAAACAAAAAAIAACQCAAAAAAAAAAAAAEAAAAAABIAAAAAAAAEAAAAAAGISAAAAAAAAAAAAAAAAAAAAAAAAAAAAAAAAA==

> <PUBCHEM_IUPAC_OPENEYE_NAME>
sodium 6-fluorohexanoate

> <PUBCHEM_IUPAC_CAS_NAME>
sodium 6-fluorohexanoate

> <PUBCHEM_IUPAC_NAME>
sodium 6-fluorohexanoate

> <PUBCHEM_IUPAC_SYSTEMATIC_NAME>
sodium 6-fluoranylhexanoate

> <PUBCHEM_IUPAC_TRADITIONAL_NAME>
sodium 6-fluorohexanoate

> <PUBCHEM_IUPAC_INCHI>
InChI=1S/C6H11FO2.Na/c7-5-3-1-2-4-6(8)9;/h1-5H2,(H,8,9);/q;+1/p-1

> <PUBCHEM_IUPAC_INCHIKEY>
IBHLFLUASNVUED-UHFFFAOYSA-M

> <PUBCHEM_EXACT_MASS>
156.056252

> <PUBCHEM_MOLECULAR_FORMULA>
C6H10FNaO2

> <PUBCHEM_MOLECULAR_WEIGHT>
156.130572

> <PUBCHEM_OPENEYE_CAN_SMILES>
C(CCC(=O)[O-])CCF.[Na+]

> <PUBCHEM_OPENEYE_ISO_SMILES>
C(CCC(=O)[O-])CCF.[Na+]

> <PUBCHEM_CACTVS_TPSA>
40.1

> <PUBCHEM_MONOISOTOPIC_WEIGHT>
156.056252

> <PUBCHEM_TOTAL_CHARGE>
0

> <PUBCHEM_HEAVY_ATOM_COUNT>
10

> <PUBCHEM_ATOM_DEF_STEREO_COUNT>
0

> <PUBCHEM_ATOM_UDEF_STEREO_COUNT>
0

> <PUBCHEM_BOND_DEF_STEREO_COUNT>
0

> <PUBCHEM_BOND_UDEF_STEREO_COUNT>
0

> <PUBCHEM_ISOTOPIC_ATOM_COUNT>
0

> <PUBCHEM_COMPONENT_COUNT>
2

> <PUBCHEM_CACTVS_TAUTO_COUNT>
1

> <PUBCHEM_COORDINATE_TYPE>
1
5
255

$$$$

