6440480
  -OEChem-07051213152D

 47 48  0     1  0  0  0  0  0999 V2000
    4.9641   -3.4330    0.0000 O   0  0  0  0  0  0  0  0  0  0  0  0
    6.3301   -1.0670    0.0000 N   0  0  3  0  0  0  0  0  0  0  0  0
    6.3301   -2.0670    0.0000 C   0  0  2  0  0  0  0  0  0  0  0  0
    5.4641   -2.5670    0.0000 C   0  0  2  0  0  0  0  0  0  0  0  0
    7.2764   -2.3717    0.0000 C   0  0  0  0  0  0  0  0  0  0  0  0
    7.2764   -0.7623    0.0000 C   0  0  0  0  0  0  0  0  0  0  0  0
    4.5981   -2.0670    0.0000 C   0  0  0  0  0  0  0  0  0  0  0  0
    7.8600   -1.5670    0.0000 C   0  0  0  0  0  0  0  0  0  0  0  0
    5.4641   -0.5670    0.0000 C   0  0  0  0  0  0  0  0  0  0  0  0
    4.5981   -1.0670    0.0000 C   0  0  0  0  0  0  0  0  0  0  0  0
    5.9641   -3.4330    0.0000 C   0  0  0  0  0  0  0  0  0  0  0  0
    3.7320   -0.5670    0.0000 C   0  0  0  0  0  0  0  0  0  0  0  0
    3.7320    0.4330    0.0000 C   0  0  1  0  0  0  0  0  0  0  0  0
    2.8660    0.9330    0.0000 C   0  0  0  0  0  0  0  0  0  0  0  0
    4.5981    0.9330    0.0000 C   0  0  0  0  0  0  0  0  0  0  0  0
    2.8660    1.9330    0.0000 C   0  0  0  0  0  0  0  0  0  0  0  0
    2.0000    2.4330    0.0000 C   0  0  0  0  0  0  0  0  0  0  0  0
    2.0000    3.4330    0.0000 C   0  0  0  0  0  0  0  0  0  0  0  0
    6.4201   -2.9122    0.0000 H   0  0  0  0  0  0  0  0  0  0  0  0
    7.0253   -2.9386    0.0000 H   0  0  0  0  0  0  0  0  0  0  0  0
    7.8137   -2.6809    0.0000 H   0  0  0  0  0  0  0  0  0  0  0  0
    7.8137   -0.4530    0.0000 H   0  0  0  0  0  0  0  0  0  0  0  0
    7.0253   -0.1953    0.0000 H   0  0  0  0  0  0  0  0  0  0  0  0
    3.9875   -1.9593    0.0000 H   0  0  0  0  0  0  0  0  0  0  0  0
    4.3860   -2.6496    0.0000 H   0  0  0  0  0  0  0  0  0  0  0  0
    8.3208   -1.9817    0.0000 H   0  0  0  0  0  0  0  0  0  0  0  0
    8.3208   -1.1523    0.0000 H   0  0  0  0  0  0  0  0  0  0  0  0
    5.8626   -0.0920    0.0000 H   0  0  0  0  0  0  0  0  0  0  0  0
    5.0656   -0.0920    0.0000 H   0  0  0  0  0  0  0  0  0  0  0  0
    5.4272   -3.7430    0.0000 H   0  0  0  0  0  0  0  0  0  0  0  0
    6.2741   -3.9700    0.0000 H   0  0  0  0  0  0  0  0  0  0  0  0
    6.5010   -3.1230    0.0000 H   0  0  0  0  0  0  0  0  0  0  0  0
    3.1951   -0.8770    0.0000 H   0  0  0  0  0  0  0  0  0  0  0  0
    4.3441   -3.4330    0.0000 H   0  0  0  0  0  0  0  0  0  0  0  0
    3.7320    1.0530    0.0000 H   0  0  0  0  0  0  0  0  0  0  0  0
    2.2554    1.0407    0.0000 H   0  0  0  0  0  0  0  0  0  0  0  0
    2.6540    0.3504    0.0000 H   0  0  0  0  0  0  0  0  0  0  0  0
    4.9081    0.3961    0.0000 H   0  0  0  0  0  0  0  0  0  0  0  0
    5.1350    1.2430    0.0000 H   0  0  0  0  0  0  0  0  0  0  0  0
    4.2881    1.4700    0.0000 H   0  0  0  0  0  0  0  0  0  0  0  0
    3.4766    1.8254    0.0000 H   0  0  0  0  0  0  0  0  0  0  0  0
    3.0781    2.5156    0.0000 H   0  0  0  0  0  0  0  0  0  0  0  0
    1.3894    2.5407    0.0000 H   0  0  0  0  0  0  0  0  0  0  0  0
    1.7880    1.8504    0.0000 H   0  0  0  0  0  0  0  0  0  0  0  0
    2.6200    3.4330    0.0000 H   0  0  0  0  0  0  0  0  0  0  0  0
    2.0000    4.0530    0.0000 H   0  0  0  0  0  0  0  0  0  0  0  0
    1.3800    3.4330    0.0000 H   0  0  0  0  0  0  0  0  0  0  0  0
  4  1  1  1  0  0  0
  1 34  1  0  0  0  0
  2  3  1  0  0  0  0
  2  6  1  0  0  0  0
  2  9  1  0  0  0  0
  3  4  1  0  0  0  0
  3  5  1  0  0  0  0
  3 19  1  6  0  0  0
  4  7  1  0  0  0  0
  4 11  1  0  0  0  0
  5  8  1  0  0  0  0
  5 20  1  0  0  0  0
  5 21  1  0  0  0  0
  6  8  1  0  0  0  0
  6 22  1  0  0  0  0
  6 23  1  0  0  0  0
  7 10  1  0  0  0  0
  7 24  1  0  0  0  0
  7 25  1  0  0  0  0
  8 26  1  0  0  0  0
  8 27  1  0  0  0  0
  9 10  1  0  0  0  0
  9 28  1  0  0  0  0
  9 29  1  0  0  0  0
 10 12  2  0  0  0  0
 11 30  1  0  0  0  0
 11 31  1  0  0  0  0
 11 32  1  0  0  0  0
 12 13  1  0  0  0  0
 12 33  1  0  0  0  0
 13 14  1  0  0  0  0
 13 15  1  1  0  0  0
 13 35  1  0  0  0  0
 14 16  1  0  0  0  0
 14 36  1  0  0  0  0
 14 37  1  0  0  0  0
 15 38  1  0  0  0  0
 15 39  1  0  0  0  0
 15 40  1  0  0  0  0
 16 17  1  0  0  0  0
 16 41  1  0  0  0  0
 16 42  1  0  0  0  0
 17 18  1  0  0  0  0
 17 43  1  0  0  0  0
 17 44  1  0  0  0  0
 18 45  1  0  0  0  0
 18 46  1  0  0  0  0
 18 47  1  0  0  0  0
M  END
> <PUBCHEM_COMPOUND_CID>
6440480

> <PUBCHEM_COMPOUND_CANONICALIZED>
1

> <PUBCHEM_CACTVS_COMPLEXITY>
312

> <PUBCHEM_CACTVS_HBOND_ACCEPTOR>
2

> <PUBCHEM_CACTVS_HBOND_DONOR>
1

> <PUBCHEM_CACTVS_ROTATABLE_BOND>
4

> <PUBCHEM_CACTVS_SUBSKEYS>
AAADceB6IAAAAAAAAAAAAAAAAAAAAWAAAAAsAAAAAAAAAFgAAAAAHgAACAAADWzBgAQCAAMAAgCAAiBCAACAAAAgAAAACAAIAAgCAAIAgQAEQAAEwACYAAOwkIIOAAAAAAAAAAAAAAAAAAAAAAAAAAAAAA==

> <PUBCHEM_IUPAC_OPENEYE_NAME>
(6Z,8S,8aS)-8-methyl-6-[(2R)-2-methylhexylidene]-1,2,3,5,7,8a-hexahydroindolizin-8-ol

> <PUBCHEM_IUPAC_CAS_NAME>
(6Z,8S,8aS)-8-methyl-6-[(2R)-2-methylhexylidene]-1,2,3,5,7,8a-hexahydroindolizin-8-ol

> <PUBCHEM_IUPAC_NAME>
(6Z,8S,8aS)-8-methyl-6-[(2R)-2-methylhexylidene]-1,2,3,5,7,8a-hexahydroindolizin-8-ol

> <PUBCHEM_IUPAC_SYSTEMATIC_NAME>
(6Z,8S,8aS)-8-methyl-6-[(2R)-2-methylhexylidene]-1,2,3,5,7,8a-hexahydroindolizin-8-ol

> <PUBCHEM_IUPAC_TRADITIONAL_NAME>
(6Z,8S,8aS)-8-methyl-6-[(2R)-2-methylhexylidene]indolizidin-8-ol

> <PUBCHEM_IUPAC_INCHI>
InChI=1S/C16H29NO/c1-4-5-7-13(2)10-14-11-16(3,18)15-8-6-9-17(15)12-14/h10,13,15,18H,4-9,11-12H2,1-3H3/b14-10-/t13-,15+,16+/m1/s1

> <PUBCHEM_IUPAC_INCHIKEY>
OKTQTXDNHCOLHT-AJKPHIATSA-N

> <PUBCHEM_XLOGP3_AA>
3.3

> <PUBCHEM_EXACT_MASS>
251.224915

> <PUBCHEM_MOLECULAR_FORMULA>
C16H29NO

> <PUBCHEM_MOLECULAR_WEIGHT>
251.40756

> <PUBCHEM_OPENEYE_CAN_SMILES>
CCCCC(C)C=C1CC(C2CCCN2C1)(C)O

> <PUBCHEM_OPENEYE_ISO_SMILES>
CCCC[C@@H](C)/C=C\1/C[C@]([C@@H]2CCCN2C1)(C)O

> <PUBCHEM_CACTVS_TPSA>
23.5

> <PUBCHEM_MONOISOTOPIC_WEIGHT>
251.224915

> <PUBCHEM_TOTAL_CHARGE>
0

> <PUBCHEM_HEAVY_ATOM_COUNT>
18

> <PUBCHEM_ATOM_DEF_STEREO_COUNT>
3

> <PUBCHEM_ATOM_UDEF_STEREO_COUNT>
0

> <PUBCHEM_BOND_DEF_STEREO_COUNT>
1

> <PUBCHEM_BOND_UDEF_STEREO_COUNT>
0

> <PUBCHEM_ISOTOPIC_ATOM_COUNT>
0

> <PUBCHEM_COMPONENT_COUNT>
1

> <PUBCHEM_CACTVS_TAUTO_COUNT>
1

> <PUBCHEM_COORDINATE_TYPE>
1
5
255

> <PUBCHEM_BONDANNOTATIONS>
4  1  5
13  15  5
3  19  6

$$$$

