442414
  -OEChem-07051212582D

 59 61  0     1  0  0  0  0  0999 V2000
    6.8671    0.5000    0.0000 O   0  0  0  0  0  0  0  0  0  0  0  0
    2.5369    1.0000    0.0000 O   0  0  0  0  0  0  0  0  0  0  0  0
    2.5369   -1.0000    0.0000 O   0  0  0  0  0  0  0  0  0  0  0  0
   10.3972    0.4758    0.0000 O   0  0  0  0  0  0  0  0  0  0  0  0
    6.0010    1.0000    0.0000 C   0  0  1  0  0  0  0  0  0  0  0  0
    6.0010    2.0000    0.0000 C   0  0  0  0  0  0  0  0  0  0  0  0
    5.1350    0.5000    0.0000 C   0  0  0  0  0  0  0  0  0  0  0  0
    6.8671    2.5000    0.0000 C   0  0  0  0  0  0  0  0  0  0  0  0
    7.7331    2.0000    0.0000 C   0  0  0  0  0  0  0  0  0  0  0  0
    4.2690    1.0000    0.0000 C   0  0  0  0  0  0  0  0  0  0  0  0
    7.7331    1.0000    0.0000 C   0  0  0  0  0  0  0  0  0  0  0  0
    5.1350   -0.5000    0.0000 C   0  0  0  0  0  0  0  0  0  0  0  0
    4.2690   -1.0000    0.0000 C   0  0  0  0  0  0  0  0  0  0  0  0
    4.2690    2.0000    0.0000 C   0  0  0  0  0  0  0  0  0  0  0  0
    3.4030    0.5000    0.0000 C   0  0  0  0  0  0  0  0  0  0  0  0
    3.4030   -0.5000    0.0000 C   0  0  0  0  0  0  0  0  0  0  0  0
    8.6270    2.5347    0.0000 C   0  0  0  0  0  0  0  0  0  0  0  0
    8.6270    0.4653    0.0000 C   0  0  0  0  0  0  0  0  0  0  0  0
    4.2690   -2.0000    0.0000 C   0  0  0  0  0  0  0  0  0  0  0  0
    9.5331    2.0208    0.0000 C   0  0  0  0  0  0  0  0  0  0  0  0
    9.5331    0.9792    0.0000 C   0  0  0  0  0  0  0  0  0  0  0  0
    3.4030    2.5000    0.0000 C   0  0  0  0  0  0  0  0  0  0  0  0
    5.1350   -2.5000    0.0000 C   0  0  0  0  0  0  0  0  0  0  0  0
    3.4030    3.5000    0.0000 C   0  0  0  0  0  0  0  0  0  0  0  0
    5.1350   -3.5000    0.0000 C   0  0  0  0  0  0  0  0  0  0  0  0
    2.5369    4.0000    0.0000 C   0  0  0  0  0  0  0  0  0  0  0  0
    4.2690    4.0000    0.0000 C   0  0  0  0  0  0  0  0  0  0  0  0
    6.0010   -4.0000    0.0000 C   0  0  0  0  0  0  0  0  0  0  0  0
    4.2690   -4.0000    0.0000 C   0  0  0  0  0  0  0  0  0  0  0  0
    5.2649    1.4250    0.0000 H   0  0  0  0  0  0  0  0  0  0  0  0
    5.7890    2.5826    0.0000 H   0  0  0  0  0  0  0  0  0  0  0  0
    5.3905    1.8923    0.0000 H   0  0  0  0  0  0  0  0  0  0  0  0
    7.2656    2.9750    0.0000 H   0  0  0  0  0  0  0  0  0  0  0  0
    6.4685    2.9750    0.0000 H   0  0  0  0  0  0  0  0  0  0  0  0
    5.6720   -0.8100    0.0000 H   0  0  0  0  0  0  0  0  0  0  0  0
    4.8796    1.8923    0.0000 H   0  0  0  0  0  0  0  0  0  0  0  0
    4.4810    2.5826    0.0000 H   0  0  0  0  0  0  0  0  0  0  0  0
    8.6199    3.1546    0.0000 H   0  0  0  0  0  0  0  0  0  0  0  0
    8.6199   -0.1546    0.0000 H   0  0  0  0  0  0  0  0  0  0  0  0
    3.6584   -1.8923    0.0000 H   0  0  0  0  0  0  0  0  0  0  0  0
    4.0569   -2.5826    0.0000 H   0  0  0  0  0  0  0  0  0  0  0  0
   10.0688    2.3329    0.0000 H   0  0  0  0  0  0  0  0  0  0  0  0
    2.8660    2.1900    0.0000 H   0  0  0  0  0  0  0  0  0  0  0  0
    5.6720   -2.1900    0.0000 H   0  0  0  0  0  0  0  0  0  0  0  0
    2.0000    0.6900    0.0000 H   0  0  0  0  0  0  0  0  0  0  0  0
    2.5369   -1.6200    0.0000 H   0  0  0  0  0  0  0  0  0  0  0  0
    2.8469    4.5369    0.0000 H   0  0  0  0  0  0  0  0  0  0  0  0
    2.0000    4.3100    0.0000 H   0  0  0  0  0  0  0  0  0  0  0  0
    2.2269    3.4631    0.0000 H   0  0  0  0  0  0  0  0  0  0  0  0
    4.5790    3.4631    0.0000 H   0  0  0  0  0  0  0  0  0  0  0  0
    4.8059    4.3100    0.0000 H   0  0  0  0  0  0  0  0  0  0  0  0
    3.9590    4.5369    0.0000 H   0  0  0  0  0  0  0  0  0  0  0  0
   10.9353    0.7838    0.0000 H   0  0  0  0  0  0  0  0  0  0  0  0
    3.9590   -3.4631    0.0000 H   0  0  0  0  0  0  0  0  0  0  0  0
    3.7320   -4.3100    0.0000 H   0  0  0  0  0  0  0  0  0  0  0  0
    4.5790   -4.5369    0.0000 H   0  0  0  0  0  0  0  0  0  0  0  0
    5.6910   -4.5369    0.0000 H   0  0  0  0  0  0  0  0  0  0  0  0
    6.5380   -4.3100    0.0000 H   0  0  0  0  0  0  0  0  0  0  0  0
    6.3110   -3.4631    0.0000 H   0  0  0  0  0  0  0  0  0  0  0  0
  1  5  1  0  0  0  0
  1 11  1  0  0  0  0
  2 15  1  0  0  0  0
  2 45  1  0  0  0  0
  3 16  1  0  0  0  0
  3 46  1  0  0  0  0
  4 21  1  0  0  0  0
  4 53  1  0  0  0  0
  5  6  1  0  0  0  0
  5  7  1  0  0  0  0
  5 30  1  1  0  0  0
  6  8  1  0  0  0  0
  6 31  1  0  0  0  0
  6 32  1  0  0  0  0
  7 10  1  0  0  0  0
  7 12  2  0  0  0  0
  8  9  1  0  0  0  0
  8 33  1  0  0  0  0
  8 34  1  0  0  0  0
  9 11  2  0  0  0  0
  9 17  1  0  0  0  0
 10 14  1  0  0  0  0
 10 15  2  0  0  0  0
 11 18  1  0  0  0  0
 12 13  1  0  0  0  0
 12 35  1  0  0  0  0
 13 16  2  0  0  0  0
 13 19  1  0  0  0  0
 14 22  1  0  0  0  0
 14 36  1  0  0  0  0
 14 37  1  0  0  0  0
 15 16  1  0  0  0  0
 17 20  2  0  0  0  0
 17 38  1  0  0  0  0
 18 21  2  0  0  0  0
 18 39  1  0  0  0  0
 19 23  1  0  0  0  0
 19 40  1  0  0  0  0
 19 41  1  0  0  0  0
 20 21  1  0  0  0  0
 20 42  1  0  0  0  0
 22 24  2  0  0  0  0
 22 43  1  0  0  0  0
 23 25  2  0  0  0  0
 23 44  1  0  0  0  0
 24 26  1  0  0  0  0
 24 27  1  0  0  0  0
 25 28  1  0  0  0  0
 25 29  1  0  0  0  0
 26 47  1  0  0  0  0
 26 48  1  0  0  0  0
 26 49  1  0  0  0  0
 27 50  1  0  0  0  0
 27 51  1  0  0  0  0
 27 52  1  0  0  0  0
 28 57  1  0  0  0  0
 28 58  1  0  0  0  0
 28 59  1  0  0  0  0
 29 54  1  0  0  0  0
 29 55  1  0  0  0  0
 29 56  1  0  0  0  0
M  END
> <PUBCHEM_COMPOUND_CID>
442414

> <PUBCHEM_COMPOUND_CANONICALIZED>
1

> <PUBCHEM_CACTVS_COMPLEXITY>
590

> <PUBCHEM_CACTVS_HBOND_ACCEPTOR>
4

> <PUBCHEM_CACTVS_HBOND_DONOR>
3

> <PUBCHEM_CACTVS_ROTATABLE_BOND>
5

> <PUBCHEM_CACTVS_SUBSKEYS>
AAADceB4OAAAAAAAAAAAAAAAAAAAAAAAAAA0YIAAAAAAAACRQAAAGgAACAAADBSgmAIyBoAABgCAAiBCAAACCAAgIAAIiAAGiIgNJyKGMRqCeCGlwBUJuAfA4PwO4AADCAAYQADAAAYQADCAAAAAAAAAAA==

> <PUBCHEM_IUPAC_OPENEYE_NAME>
4-[(2S)-7-hydroxychroman-2-yl]-3,6-bis(3-methylbut-2-enyl)benzene-1,2-diol

> <PUBCHEM_IUPAC_CAS_NAME>
4-[(2S)-7-hydroxy-3,4-dihydro-2H-1-benzopyran-2-yl]-3,6-bis(3-methylbut-2-enyl)benzene-1,2-diol

> <PUBCHEM_IUPAC_NAME>
4-[(2S)-7-hydroxy-3,4-dihydro-2H-chromen-2-yl]-3,6-bis(3-methylbut-2-enyl)benzene-1,2-diol

> <PUBCHEM_IUPAC_SYSTEMATIC_NAME>
3,6-bis(3-methylbut-2-enyl)-4-[(2S)-7-oxidanyl-3,4-dihydro-2H-chromen-2-yl]benzene-1,2-diol

> <PUBCHEM_IUPAC_TRADITIONAL_NAME>
4-[(2S)-7-hydroxychroman-2-yl]-3,6-bis(3-methylbut-2-enyl)pyrocatechol

> <PUBCHEM_IUPAC_INCHI>
InChI=1S/C25H30O4/c1-15(2)5-7-18-13-21(20(11-6-16(3)4)25(28)24(18)27)22-12-9-17-8-10-19(26)14-23(17)29-22/h5-6,8,10,13-14,22,26-28H,7,9,11-12H2,1-4H3/t22-/m0/s1

> <PUBCHEM_IUPAC_INCHIKEY>
QXHVECWDOBLWPW-QFIPXVFZSA-N

> <PUBCHEM_XLOGP3_AA>
6.6

> <PUBCHEM_EXACT_MASS>
394.214409

> <PUBCHEM_MOLECULAR_FORMULA>
C25H30O4

> <PUBCHEM_MOLECULAR_WEIGHT>
394.5033

> <PUBCHEM_OPENEYE_CAN_SMILES>
CC(=CCC1=C(C(=C(C(=C1)C2CCC3=C(O2)C=C(C=C3)O)CC=C(C)C)O)O)C

> <PUBCHEM_OPENEYE_ISO_SMILES>
CC(=CCC1=C(C(=C(C(=C1)[C@@H]2CCC3=C(O2)C=C(C=C3)O)CC=C(C)C)O)O)C

> <PUBCHEM_CACTVS_TPSA>
69.9

> <PUBCHEM_MONOISOTOPIC_WEIGHT>
394.214409

> <PUBCHEM_TOTAL_CHARGE>
0

> <PUBCHEM_HEAVY_ATOM_COUNT>
29

> <PUBCHEM_ATOM_DEF_STEREO_COUNT>
1

> <PUBCHEM_ATOM_UDEF_STEREO_COUNT>
0

> <PUBCHEM_BOND_DEF_STEREO_COUNT>
0

> <PUBCHEM_BOND_UDEF_STEREO_COUNT>
0

> <PUBCHEM_ISOTOPIC_ATOM_COUNT>
0

> <PUBCHEM_COMPONENT_COUNT>
1

> <PUBCHEM_CACTVS_TAUTO_COUNT>
998

> <PUBCHEM_COORDINATE_TYPE>
1
5
255

> <PUBCHEM_BONDANNOTATIONS>
10  15  8
11  18  8
12  13  8
13  16  8
15  16  8
17  20  8
18  21  8
20  21  8
5  30  5
7  10  8
7  12  8
9  11  8
9  17  8

$$$$

