   Color/Form

     * Colorless solid (pure)
     * Viscous liquid. The commercial product /was/ yellow.
     * Brownish liquid, approx. 90% pure. Pale yellow solid. Technical/
     * Yellowish viscous oil

   from [1]HSDB

   Boiling Point
        146-148 deg C at 0.04 mm Hg
   from [2]HSDB

   Melting Point
        36 to 37.5 deg C
   from [3]HSDB

   Density/Specific Gravity
        (technical 90%) 12,816 at 20/4 deg C
   from [4]HSDB

   Octanol/Water Partition Coefficient
        log Kow = 4.74
   from [5]HSDB

   Solubilities

     * Solubility at 20 deg C: 1 g/kg acetone, dichloromethane, and
       methanol; 1000 g/kg toluene; 600 g/kg hexane; 700 g/kg 1-octanol
     * Soluble in most organic solvents
     * Soluble in most organic solvents, including petroleum oils
       /Technical/
     * Soluble to more than 40% in deodorized kerosene, benzene, and
       methyl alcohol.
     * In water, 13 mg/L at 20 deg C

   from [6]HSDB

   Spectral Properties

     * Index of refraction 1.5727 at 20 deg C/D
     * Intensity of mass spectral peaks: 251 M/z (100%), 139 M/z (97%),
       253 M/z (65%), 111 M/z (35%)

   from [7]HSDB

   Vapor Pressure
        2.2X10-6 mm Hg at 20 deg C
   from [8]HSDB

   Other Chemical/Physical Properties

     * Technical product is brownish liquid; density, 1.2816 at 20 deg C/d
       (about 93% pure) /Technical grade/
     * Chlorobenzilate is hydrolyzed by alkali and by strong acids to the
       inactive p,p'-dichlorobenzilic acid and ethanol
     * Incompatible with lime
     * Henry's Law constant = 7.2X10-8 atm-cu m/mol at 25 deg C (est)
     * Hydroxyl radical reaction rate constant = 5.1X10-12 cu cm/molec-sec
       at 25 deg C (est)

   from [9]HSDB

   Computed Properties
   Molecular Weight                  325.18656 [g/mol]
   Molecular Formula                 C[16]H[14]Cl[2]O[3]
   XLogP3-AA                         4.3
   H-Bond Donor                      1
   H-Bond Acceptor                   3
   Rotatable Bond Count              5
   Exact Mass                        324.032
   MonoIsotopic Mass                 324.032
   Topological Polar Surface Area    46.5
   Heavy Atom Count                  21
   Formal Charge                     0
   Complexity                        323
   Isotope Atom Count                0
   Defined Atom Stereocenter Count   0
   Undefined Atom Stereocenter Count 0
   Defined Bond Stereocenter Count   0
   Undefined Bond Stereocenter Count 0
   Covalently-Bonded Unit Count      1
   Feature 3D Acceptor Count         2
   Feature 3D Donor Count            1
   Feature 3D Ring Count             2
   Effective Rotor Count             5
   Conformer Sampling RMSD           0.8
   CID Conformer Count               [10]13

References

   1. http://toxnet.nlm.nih.gov/cgi-bin/sis/search/r?dbs+hsdb:@term+@rn+@rel+510-15-6
   2. http://toxnet.nlm.nih.gov/cgi-bin/sis/search/r?dbs+hsdb:@term+@rn+@rel+510-15-6
   3. http://toxnet.nlm.nih.gov/cgi-bin/sis/search/r?dbs+hsdb:@term+@rn+@rel+510-15-6
   4. http://toxnet.nlm.nih.gov/cgi-bin/sis/search/r?dbs+hsdb:@term+@rn+@rel+510-15-6
   5. http://toxnet.nlm.nih.gov/cgi-bin/sis/search/r?dbs+hsdb:@term+@rn+@rel+510-15-6
   6. http://toxnet.nlm.nih.gov/cgi-bin/sis/search/r?dbs+hsdb:@term+@rn+@rel+510-15-6
   7. http://toxnet.nlm.nih.gov/cgi-bin/sis/search/r?dbs+hsdb:@term+@rn+@rel+510-15-6
   8. http://toxnet.nlm.nih.gov/cgi-bin/sis/search/r?dbs+hsdb:@term+@rn+@rel+510-15-6
   9. http://toxnet.nlm.nih.gov/cgi-bin/sis/search/r?dbs+hsdb:@term+@rn+@rel+510-15-6
  10. http://pubchem.ncbi.nlm.nih.gov/vw3d/vw3d.cgi?cid=10522
