46173971
  -OEChem-07051213102D

 57 61  0     1  0  0  0  0  0999 V2000
    2.9785   -0.9577    0.0000 O   0  0  0  0  0  0  0  0  0  0  0  0
    3.8155   -1.4334    0.0000 O   0  0  0  0  0  0  0  0  0  0  0  0
    5.4476    1.7094    0.0000 O   0  0  0  0  0  0  0  0  0  0  0  0
    2.8836   -2.7315    0.0000 O   0  0  0  0  0  0  0  0  0  0  0  0
    2.8836    3.1503    0.0000 O   0  0  0  0  0  0  0  0  0  0  0  0
    4.5816   -0.7906    0.0000 C   0  0  2  0  0  0  0  0  0  0  0  0
    4.3723   -1.7625    0.0000 C   0  0  1  0  0  0  0  0  0  0  0  0
    5.4476   -0.2906    0.0000 C   0  0  2  0  0  0  0  0  0  0  0  0
    5.4476    0.7094    0.0000 C   0  0  3  0  0  0  0  0  0  0  0  0
    3.7155   -0.2906    0.0000 C   0  0  1  0  0  0  0  0  0  0  0  0
    4.5816    1.2094    0.0000 C   0  0  1  0  0  0  0  0  0  0  0  0
    3.3836   -1.8655    0.0000 C   0  0  3  0  0  0  0  0  0  0  0  0
    3.7155    0.7094    0.0000 C   0  0  1  0  0  0  0  0  0  0  0  0
    5.3573   -1.9776    0.0000 C   0  0  1  0  0  0  0  0  0  0  0  0
    5.1589   -1.1739    0.0000 C   0  0  0  0  0  0  0  0  0  0  0  0
    5.9520   -1.1635    0.0000 C   0  0  0  0  0  0  0  0  0  0  0  0
    2.9785    1.3764    0.0000 C   0  0  1  0  0  0  0  0  0  0  0  0
    4.3723    2.1812    0.0000 C   0  0  0  0  0  0  0  0  0  0  0  0
    5.0402   -2.5068    0.0000 C   0  0  0  0  0  0  0  0  0  0  0  0
    6.3794    1.0724    0.0000 C   0  0  0  0  0  0  0  0  0  0  0  0
    3.3836    2.2842    0.0000 C   0  0  2  0  0  0  0  0  0  0  0  0
    5.7118   -2.9126    0.0000 C   0  0  0  0  0  0  0  0  0  0  0  0
    2.0000    1.1702    0.0000 C   0  0  0  0  0  0  0  0  0  0  0  0
    6.6988   -3.0731    0.0000 C   0  0  0  0  0  0  0  0  0  0  0  0
    5.0793   -3.6872    0.0000 C   0  0  0  0  0  0  0  0  0  0  0  0
    6.1837    0.1344    0.0000 H   0  0  0  0  0  0  0  0  0  0  0  0
    2.8784   -0.1430    0.0000 H   0  0  0  0  0  0  0  0  0  0  0  0
    2.8784    0.5618    0.0000 H   0  0  0  0  0  0  0  0  0  0  0  0
    5.9717   -2.0606    0.0000 H   0  0  0  0  0  0  0  0  0  0  0  0
    5.2802   -1.7819    0.0000 H   0  0  0  0  0  0  0  0  0  0  0  0
    5.7787   -1.1600    0.0000 H   0  0  0  0  0  0  0  0  0  0  0  0
    6.3973   -1.5949    0.0000 H   0  0  0  0  0  0  0  0  0  0  0  0
    6.4408   -0.7821    0.0000 H   0  0  0  0  0  0  0  0  0  0  0  0
    2.5890    1.8588    0.0000 H   0  0  0  0  0  0  0  0  0  0  0  0
    4.9888    2.2472    0.0000 H   0  0  0  0  0  0  0  0  0  0  0  0
    4.3714    2.8012    0.0000 H   0  0  0  0  0  0  0  0  0  0  0  0
    4.5787   -2.9208    0.0000 H   0  0  0  0  0  0  0  0  0  0  0  0
    5.4542   -2.9682    0.0000 H   0  0  0  0  0  0  0  0  0  0  0  0
    5.5016   -2.0927    0.0000 H   0  0  0  0  0  0  0  0  0  0  0  0
    6.6044    0.4947    0.0000 H   0  0  0  0  0  0  0  0  0  0  0  0
    6.9571    1.2974    0.0000 H   0  0  0  0  0  0  0  0  0  0  0  0
    6.1543    1.6501    0.0000 H   0  0  0  0  0  0  0  0  0  0  0  0
    2.7645    2.2520    0.0000 H   0  0  0  0  0  0  0  0  0  0  0  0
    5.0998   -2.8131    0.0000 H   0  0  0  0  0  0  0  0  0  0  0  0
    3.9232   -2.0440    0.0000 H   0  0  0  0  0  0  0  0  0  0  0  0
    5.4476    2.3294    0.0000 H   0  0  0  0  0  0  0  0  0  0  0  0
    2.2636   -2.7315    0.0000 H   0  0  0  0  0  0  0  0  0  0  0  0
    1.8721    1.7769    0.0000 H   0  0  0  0  0  0  0  0  0  0  0  0
    1.3933    1.0424    0.0000 H   0  0  0  0  0  0  0  0  0  0  0  0
    2.1279    0.5635    0.0000 H   0  0  0  0  0  0  0  0  0  0  0  0
    6.5993   -3.6851    0.0000 H   0  0  0  0  0  0  0  0  0  0  0  0
    7.3108   -3.1726    0.0000 H   0  0  0  0  0  0  0  0  0  0  0  0
    6.7983   -2.4612    0.0000 H   0  0  0  0  0  0  0  0  0  0  0  0
    4.5991   -3.2950    0.0000 H   0  0  0  0  0  0  0  0  0  0  0  0
    4.6871   -4.1674    0.0000 H   0  0  0  0  0  0  0  0  0  0  0  0
    5.5595   -4.0793    0.0000 H   0  0  0  0  0  0  0  0  0  0  0  0
    3.1936    3.6872    0.0000 H   0  0  0  0  0  0  0  0  0  0  0  0
  1 10  1  0  0  0  0
  1 12  1  0  0  0  0
  6  2  1  1  0  0  0
  2 45  1  0  0  0  0
 11  3  1  1  0  0  0
  3 46  1  0  0  0  0
  4 12  1  0  0  0  0
  4 47  1  0  0  0  0
 21  5  1  1  0  0  0
  5 57  1  0  0  0  0
  6  7  1  0  0  0  0
  6  8  1  0  0  0  0
  6 10  1  0  0  0  0
  7 12  1  0  0  0  0
  7 14  1  0  0  0  0
  7 19  1  1  0  0  0
  8  9  1  0  0  0  0
  8 16  1  0  0  0  0
  8 26  1  1  0  0  0
  9 11  1  0  0  0  0
  9 15  1  0  0  0  0
  9 20  1  0  0  0  0
 10 13  1  0  0  0  0
 10 27  1  1  0  0  0
 11 13  1  0  0  0  0
 11 18  1  0  0  0  0
 12 15  1  0  0  0  0
 13 17  1  0  0  0  0
 13 28  1  1  0  0  0
 14 16  1  0  0  0  0
 14 22  1  1  0  0  0
 14 29  1  0  0  0  0
 15 30  1  0  0  0  0
 15 31  1  0  0  0  0
 16 32  1  0  0  0  0
 16 33  1  0  0  0  0
 17 21  1  0  0  0  0
 17 23  1  6  0  0  0
 17 34  1  0  0  0  0
 18 21  1  0  0  0  0
 18 35  1  0  0  0  0
 18 36  1  0  0  0  0
 19 37  1  0  0  0  0
 19 38  1  0  0  0  0
 19 39  1  0  0  0  0
 20 40  1  0  0  0  0
 20 41  1  0  0  0  0
 20 42  1  0  0  0  0
 21 43  1  0  0  0  0
 22 24  1  0  0  0  0
 22 25  1  0  0  0  0
 22 44  1  0  0  0  0
 23 48  1  0  0  0  0
 23 49  1  0  0  0  0
 23 50  1  0  0  0  0
 24 51  1  0  0  0  0
 24 52  1  0  0  0  0
 24 53  1  0  0  0  0
 25 54  1  0  0  0  0
 25 55  1  0  0  0  0
 25 56  1  0  0  0  0
M  END
> <PUBCHEM_COMPOUND_CID>
46173971

> <PUBCHEM_COMPOUND_CANONICALIZED>
1

> <PUBCHEM_CACTVS_COMPLEXITY>
652

> <PUBCHEM_CACTVS_HBOND_ACCEPTOR>
5

> <PUBCHEM_CACTVS_HBOND_DONOR>
4

> <PUBCHEM_CACTVS_ROTATABLE_BOND>
1

> <PUBCHEM_CACTVS_SUBSKEYS>
AAADcfB4OAAAAAAAAAAAAAAAAAAAAaMEAAAwYAAABogAAGAAAAAAGgAACAAAD1SggAICCAAABgAAAAAAAAAAAAAAAAAAAAAAAAAREAIAAAACQAAFAAAHAAHA4PwPgAAAAAAAAADCAAYQADCAAYQADAAAAA==

> <PUBCHEM_IUPAC_INCHI>
InChI=1S/C20H32O5/c1-9(2)11-6-13-16(4)8-19(23)17(11,5)20(13,24)15(25-19)14-10(3)12(21)7-18(14,16)22/h9-15,21-24H,6-8H2,1-5H3/t10-,11+,12+,13+,14+,15-,16?,17-,18-,19?,20-/m1/s1

> <PUBCHEM_IUPAC_INCHIKEY>
HYKMWLWHCAPOKZ-GNUHJVPASA-N

> <PUBCHEM_XLOGP3_AA>
1.4

> <PUBCHEM_EXACT_MASS>
352.224974

> <PUBCHEM_MOLECULAR_FORMULA>
C20H32O5

> <PUBCHEM_MOLECULAR_WEIGHT>
352.46508

> <PUBCHEM_OPENEYE_CAN_SMILES>
CC1C(CC2(C1C3C4(C5C2(CC(C4(C(C5)C(C)C)C)(O3)O)C)O)O)O

> <PUBCHEM_OPENEYE_ISO_SMILES>
C[C@@H]1[C@H](C[C@]2([C@@H]1[C@@H]3[C@@]4([C@@H]5C2(CC([C@]4([C@@H](C5)C(C)C)C)(O3)O)C)O)O)O

> <PUBCHEM_CACTVS_TPSA>
90.2

> <PUBCHEM_MONOISOTOPIC_WEIGHT>
352.224974

> <PUBCHEM_TOTAL_CHARGE>
0

> <PUBCHEM_HEAVY_ATOM_COUNT>
25

> <PUBCHEM_ATOM_DEF_STEREO_COUNT>
9

> <PUBCHEM_ATOM_UDEF_STEREO_COUNT>
2

> <PUBCHEM_BOND_DEF_STEREO_COUNT>
0

> <PUBCHEM_BOND_UDEF_STEREO_COUNT>
0

> <PUBCHEM_ISOTOPIC_ATOM_COUNT>
0

> <PUBCHEM_COMPONENT_COUNT>
1

> <PUBCHEM_CACTVS_TAUTO_COUNT>
1

> <PUBCHEM_COORDINATE_TYPE>
1
5
255

> <PUBCHEM_BONDANNOTATIONS>
10  27  5
13  28  5
14  22  5
17  23  6
6  2  5
11  3  5
12  4  3
21  5  5
7  19  5
8  26  5
9  20  3

$$$$

