11954188
  -OEChem-07051213072D

 39 39  0     1  0  0  0  0  0999 V2000
    3.4483   -5.1164    0.0000 O   0  0  0  0  0  0  0  0  0  0  0  0
    4.6730   -3.8916    0.0000 O   0  0  0  0  0  0  0  0  0  0  0  0
    5.8284    0.3851    0.0000 O   0  0  0  0  0  0  0  0  0  0  0  0
    5.3801   -1.2879    0.0000 O   0  0  0  0  0  0  0  0  0  0  0  0
    6.0179    3.0240    0.0000 O   0  0  0  0  0  0  0  0  0  0  0  0
    5.5003    4.9559    0.0000 O   0  0  0  0  0  0  0  0  0  0  0  0
    3.8272    4.5076    0.0000 O   0  0  0  0  0  0  0  0  0  0  0  0
    3.0000   -2.4433    0.0000 N   0  0  3  0  0  0  0  0  0  0  0  0
    3.8966    0.9027    0.0000 N   0  0  0  0  0  0  0  0  0  0  0  0
    3.0000   -3.4433    0.0000 C   0  0  1  0  0  0  0  0  0  0  0  0
    2.0000   -3.4433    0.0000 C   0  0  0  0  0  0  0  0  0  0  0  0
    2.0000   -2.4433    0.0000 C   0  0  0  0  0  0  0  0  0  0  0  0
    3.7071   -1.7362    0.0000 C   0  0  0  0  0  0  0  0  0  0  0  0
    3.4483   -0.7703    0.0000 C   0  0  0  0  0  0  0  0  0  0  0  0
    4.1554   -0.0632    0.0000 C   0  0  1  0  0  0  0  0  0  0  0  0
    3.7071   -4.1504    0.0000 C   0  0  0  0  0  0  0  0  0  0  0  0
    5.1213   -0.3220    0.0000 C   0  0  0  0  0  0  0  0  0  0  0  0
    4.6037    1.6098    0.0000 C   0  0  0  0  0  0  0  0  0  0  0  0
    4.3449    2.5758    0.0000 C   0  0  0  0  0  0  0  0  0  0  0  0
    5.0520    3.2829    0.0000 C   0  0  0  0  0  0  0  0  0  0  0  0
    4.7932    4.2488    0.0000 C   0  0  0  0  0  0  0  0  0  0  0  0
    3.5728   -3.2061    0.0000 H   0  0  0  0  0  0  0  0  0  0  0  0
    1.3800   -3.4433    0.0000 H   0  0  0  0  0  0  0  0  0  0  0  0
    2.0000   -4.0633    0.0000 H   0  0  0  0  0  0  0  0  0  0  0  0
    2.0000   -1.8233    0.0000 H   0  0  0  0  0  0  0  0  0  0  0  0
    1.3800   -2.4433    0.0000 H   0  0  0  0  0  0  0  0  0  0  0  0
    4.0627   -2.2441    0.0000 H   0  0  0  0  0  0  0  0  0  0  0  0
    4.2690   -1.4742    0.0000 H   0  0  0  0  0  0  0  0  0  0  0  0
    3.0927   -0.2624    0.0000 H   0  0  0  0  0  0  0  0  0  0  0  0
    2.8864   -1.0323    0.0000 H   0  0  0  0  0  0  0  0  0  0  0  0
    4.5938    0.3752    0.0000 H   0  0  0  0  0  0  0  0  0  0  0  0
    3.2977    1.0632    0.0000 H   0  0  0  0  0  0  0  0  0  0  0  0
    4.9593    1.1020    0.0000 H   0  0  0  0  0  0  0  0  0  0  0  0
    5.1656    1.8719    0.0000 H   0  0  0  0  0  0  0  0  0  0  0  0
    3.8867   -5.5548    0.0000 H   0  0  0  0  0  0  0  0  0  0  0  0
    3.9892    3.0836    0.0000 H   0  0  0  0  0  0  0  0  0  0  0  0
    3.7830    2.3137    0.0000 H   0  0  0  0  0  0  0  0  0  0  0  0
    6.4273    0.2246    0.0000 H   0  0  0  0  0  0  0  0  0  0  0  0
    5.3398    5.5548    0.0000 H   0  0  0  0  0  0  0  0  0  0  0  0
  1 16  1  0  0  0  0
  1 35  1  0  0  0  0
  2 16  2  0  0  0  0
  3 17  1  0  0  0  0
  3 38  1  0  0  0  0
  4 17  2  0  0  0  0
  5 20  2  0  0  0  0
  6 21  1  0  0  0  0
  6 39  1  0  0  0  0
  7 21  2  0  0  0  0
  8 10  1  0  0  0  0
  8 12  1  0  0  0  0
  8 13  1  0  0  0  0
 15  9  1  6  0  0  0
  9 18  1  0  0  0  0
  9 32  1  0  0  0  0
 10 11  1  0  0  0  0
 10 16  1  6  0  0  0
 10 22  1  0  0  0  0
 11 12  1  0  0  0  0
 11 23  1  0  0  0  0
 11 24  1  0  0  0  0
 12 25  1  0  0  0  0
 12 26  1  0  0  0  0
 13 14  1  0  0  0  0
 13 27  1  0  0  0  0
 13 28  1  0  0  0  0
 14 15  1  0  0  0  0
 14 29  1  0  0  0  0
 14 30  1  0  0  0  0
 15 17  1  0  0  0  0
 15 31  1  0  0  0  0
 18 19  1  0  0  0  0
 18 33  1  0  0  0  0
 18 34  1  0  0  0  0
 19 20  1  0  0  0  0
 19 36  1  0  0  0  0
 19 37  1  0  0  0  0
 20 21  1  0  0  0  0
M  END
> <PUBCHEM_COMPOUND_CID>
11954188

> <PUBCHEM_COMPOUND_CANONICALIZED>
1

> <PUBCHEM_CACTVS_COMPLEXITY>
437

> <PUBCHEM_CACTVS_HBOND_ACCEPTOR>
9

> <PUBCHEM_CACTVS_HBOND_DONOR>
4

> <PUBCHEM_CACTVS_ROTATABLE_BOND>
10

> <PUBCHEM_CACTVS_SUBSKEYS>
AAADceBzOAAAAAAAAAAAAAAAAABYAAAAAAAAAAAAAAAAAAAAAAAAHgAQCAAACCzBgAQACAPAAgAIAICQCAIAAAAAAAAAAIHIAAACABgAwCAEQAAEEACQAAAkAAAAAAAAAAAAAAAAAAAAAAAAAAAAAAAAAA==

> <PUBCHEM_IUPAC_OPENEYE_NAME>
(2S)-1-[(3S)-3-carboxy-3-[(3-carboxy-3-oxo-propyl)amino]propyl]azetidine-2-carboxylic acid

> <PUBCHEM_IUPAC_CAS_NAME>
(2S)-1-[(3S)-3-carboxy-3-[(3-carboxy-3-oxopropyl)amino]propyl]-2-azetidinecarboxylic acid

> <PUBCHEM_IUPAC_NAME>
(2S)-1-[(3S)-3-carboxy-3-[(3-carboxy-3-oxopropyl)amino]propyl]azetidine-2-carboxylic acid

> <PUBCHEM_IUPAC_SYSTEMATIC_NAME>
(2S)-1-[(3S)-4-oxidanyl-3-[[4-oxidanyl-3,4-bis(oxidanylidene)butyl]amino]-4-oxidanylidene-butyl]azetidine-2-carboxylic acid

> <PUBCHEM_IUPAC_TRADITIONAL_NAME>
(2S)-1-[(3S)-3-carboxy-3-[(3-carboxy-3-keto-propyl)amino]propyl]azetidine-2-carboxylic acid

> <PUBCHEM_IUPAC_INCHI>
InChI=1S/C12H18N2O7/c15-9(12(20)21)1-4-13-7(10(16)17)2-5-14-6-3-8(14)11(18)19/h7-8,13H,1-6H2,(H,16,17)(H,18,19)(H,20,21)/t7-,8-/m0/s1

> <PUBCHEM_IUPAC_INCHIKEY>
PSBHIGYNXQIUQY-YUMQZZPRSA-N

> <PUBCHEM_XLOGP3_AA>
-5.6

> <PUBCHEM_EXACT_MASS>
302.111401

> <PUBCHEM_MOLECULAR_FORMULA>
C12H18N2O7

> <PUBCHEM_MOLECULAR_WEIGHT>
302.28052

> <PUBCHEM_OPENEYE_CAN_SMILES>
C1CN(C1C(=O)O)CCC(C(=O)O)NCCC(=O)C(=O)O

> <PUBCHEM_OPENEYE_ISO_SMILES>
C1CN([C@@H]1C(=O)O)CC[C@@H](C(=O)O)NCCC(=O)C(=O)O

> <PUBCHEM_CACTVS_TPSA>
144

> <PUBCHEM_MONOISOTOPIC_WEIGHT>
302.111401

> <PUBCHEM_TOTAL_CHARGE>
0

> <PUBCHEM_HEAVY_ATOM_COUNT>
21

> <PUBCHEM_ATOM_DEF_STEREO_COUNT>
2

> <PUBCHEM_ATOM_UDEF_STEREO_COUNT>
0

> <PUBCHEM_BOND_DEF_STEREO_COUNT>
0

> <PUBCHEM_BOND_UDEF_STEREO_COUNT>
0

> <PUBCHEM_ISOTOPIC_ATOM_COUNT>
0

> <PUBCHEM_COMPONENT_COUNT>
1

> <PUBCHEM_CACTVS_TAUTO_COUNT>
2

> <PUBCHEM_COORDINATE_TYPE>
1
5
255

> <PUBCHEM_BONDANNOTATIONS>
10  16  6
15  9  6

$$$$

