443187
  -OEChem-07051213012D

 28 28  0     1  0  0  0  0  0999 V2000
    4.0984   -1.1986    0.0000 O   0  0  0  0  0  0  0  0  0  0  0  0
    2.4156   -1.3883    0.0000 O   0  0  0  0  0  0  0  0  0  0  0  0
    5.2219    0.2102    0.0000 C   0  0  1  0  0  0  0  0  0  0  0  0
    4.5984    0.9920    0.0000 C   0  0  0  0  0  0  0  0  0  0  0  0
    3.5984    0.9920    0.0000 C   0  0  0  0  0  0  0  0  0  0  0  0
    2.9749    0.2102    0.0000 C   0  0  1  0  0  0  0  0  0  0  0  0
    4.9994   -0.7648    0.0000 C   0  0  0  0  0  0  0  0  0  0  0  0
    6.1968    0.4327    0.0000 C   0  0  0  0  0  0  0  0  0  0  0  0
    3.1974   -0.7648    0.0000 C   0  0  0  0  0  0  0  0  0  0  0  0
    2.0000    0.4327    0.0000 C   0  0  0  0  0  0  0  0  0  0  0  0
    6.8770   -0.3004    0.0000 C   0  0  0  0  0  0  0  0  0  0  0  0
    6.4916    1.3883    0.0000 C   0  0  0  0  0  0  0  0  0  0  0  0
    5.4267    0.7954    0.0000 H   0  0  0  0  0  0  0  0  0  0  0  0
    5.1570    1.2610    0.0000 H   0  0  0  0  0  0  0  0  0  0  0  0
    4.4604    1.5964    0.0000 H   0  0  0  0  0  0  0  0  0  0  0  0
    3.7364    1.5964    0.0000 H   0  0  0  0  0  0  0  0  0  0  0  0
    3.0398    1.2610    0.0000 H   0  0  0  0  0  0  0  0  0  0  0  0
    2.7702    0.7954    0.0000 H   0  0  0  0  0  0  0  0  0  0  0  0
    5.1374   -1.3692    0.0000 H   0  0  0  0  0  0  0  0  0  0  0  0
    5.6194   -0.7648    0.0000 H   0  0  0  0  0  0  0  0  0  0  0  0
    2.1380    1.0371    0.0000 H   0  0  0  0  0  0  0  0  0  0  0  0
    1.3955    0.5706    0.0000 H   0  0  0  0  0  0  0  0  0  0  0  0
    1.8620   -0.1718    0.0000 H   0  0  0  0  0  0  0  0  0  0  0  0
    6.4225   -0.7221    0.0000 H   0  0  0  0  0  0  0  0  0  0  0  0
    7.2987   -0.7549    0.0000 H   0  0  0  0  0  0  0  0  0  0  0  0
    7.3315    0.1213    0.0000 H   0  0  0  0  0  0  0  0  0  0  0  0
    7.0960    1.5262    0.0000 H   0  0  0  0  0  0  0  0  0  0  0  0
    6.0699    1.8428    0.0000 H   0  0  0  0  0  0  0  0  0  0  0  0
  1  7  1  0  0  0  0
  1  9  1  0  0  0  0
  2  9  2  0  0  0  0
  3  4  1  0  0  0  0
  3  7  1  0  0  0  0
  3  8  1  6  0  0  0
  3 13  1  0  0  0  0
  4  5  1  0  0  0  0
  4 14  1  0  0  0  0
  4 15  1  0  0  0  0
  5  6  1  0  0  0  0
  5 16  1  0  0  0  0
  5 17  1  0  0  0  0
  6  9  1  0  0  0  0
  6 10  1  1  0  0  0
  6 18  1  0  0  0  0
  7 19  1  0  0  0  0
  7 20  1  0  0  0  0
  8 11  1  0  0  0  0
  8 12  2  0  0  0  0
 10 21  1  0  0  0  0
 10 22  1  0  0  0  0
 10 23  1  0  0  0  0
 11 24  1  0  0  0  0
 11 25  1  0  0  0  0
 11 26  1  0  0  0  0
 12 27  1  0  0  0  0
 12 28  1  0  0  0  0
M  END
> <PUBCHEM_COMPOUND_CID>
443187

> <PUBCHEM_COMPOUND_CANONICALIZED>
1

> <PUBCHEM_CACTVS_COMPLEXITY>
196

> <PUBCHEM_CACTVS_HBOND_ACCEPTOR>
2

> <PUBCHEM_CACTVS_HBOND_DONOR>
0

> <PUBCHEM_CACTVS_ROTATABLE_BOND>
1

> <PUBCHEM_CACTVS_SUBSKEYS>
AAADceBwMAAAAAAAAAAAAAAAAAAAAAAAAAAAAAAABIAAAAAAAAAAGgAAAAAADQCggAICCAAABACIAgDSCAAAAAAgAAAAAAEAAAgAABIAAQACAAAEwAAAAAGIyHCOAAAAAAAAAAAAAAAAAAAAAAAAAAAAAA==

> <PUBCHEM_IUPAC_OPENEYE_NAME>
(3S,6R)-6-isopropenyl-3-methyl-oxepan-2-one

> <PUBCHEM_IUPAC_CAS_NAME>
(3S,6R)-3-methyl-6-(1-methylethenyl)-2-oxepanone

> <PUBCHEM_IUPAC_NAME>
(3S,6R)-3-methyl-6-prop-1-en-2-yloxepan-2-one

> <PUBCHEM_IUPAC_SYSTEMATIC_NAME>
(3S,6R)-3-methyl-6-prop-1-en-2-yl-oxepan-2-one

> <PUBCHEM_IUPAC_TRADITIONAL_NAME>
(3S,6R)-6-isopropenyl-3-methyl-oxepan-2-one

> <PUBCHEM_IUPAC_INCHI>
InChI=1S/C10H16O2/c1-7(2)9-5-4-8(3)10(11)12-6-9/h8-9H,1,4-6H2,2-3H3/t8-,9-/m0/s1

> <PUBCHEM_IUPAC_INCHIKEY>
BBKYOZJVRPOMGL-IUCAKERBSA-N

> <PUBCHEM_XLOGP3_AA>
2.6

> <PUBCHEM_EXACT_MASS>
168.11503

> <PUBCHEM_MOLECULAR_FORMULA>
C10H16O2

> <PUBCHEM_MOLECULAR_WEIGHT>
168.23284

> <PUBCHEM_OPENEYE_CAN_SMILES>
CC1CCC(COC1=O)C(=C)C

> <PUBCHEM_OPENEYE_ISO_SMILES>
C[C@H]1CC[C@@H](COC1=O)C(=C)C

> <PUBCHEM_CACTVS_TPSA>
26.3

> <PUBCHEM_MONOISOTOPIC_WEIGHT>
168.11503

> <PUBCHEM_TOTAL_CHARGE>
0

> <PUBCHEM_HEAVY_ATOM_COUNT>
12

> <PUBCHEM_ATOM_DEF_STEREO_COUNT>
2

> <PUBCHEM_ATOM_UDEF_STEREO_COUNT>
0

> <PUBCHEM_BOND_DEF_STEREO_COUNT>
0

> <PUBCHEM_BOND_UDEF_STEREO_COUNT>
0

> <PUBCHEM_ISOTOPIC_ATOM_COUNT>
0

> <PUBCHEM_COMPONENT_COUNT>
1

> <PUBCHEM_CACTVS_TAUTO_COUNT>
2

> <PUBCHEM_COORDINATE_TYPE>
1
5
255

> <PUBCHEM_BONDANNOTATIONS>
3  8  6
6  10  5

$$$$

