11954190
  -OEChem-07051213072D

 42 42  0     1  0  0  0  0  0999 V2000
    2.5989   -4.1504    0.0000 O   0  0  0  0  0  0  0  0  0  0  0  0
    4.7543   -5.1164    0.0000 O   0  0  0  0  0  0  0  0  0  0  0  0
    5.9790   -3.8916    0.0000 O   0  0  0  0  0  0  0  0  0  0  0  0
    7.1344    0.3851    0.0000 O   0  0  0  0  0  0  0  0  0  0  0  0
    6.6861   -1.2879    0.0000 O   0  0  0  0  0  0  0  0  0  0  0  0
    7.3239    3.0240    0.0000 O   0  0  0  0  0  0  0  0  0  0  0  0
    6.8062    4.9559    0.0000 O   0  0  0  0  0  0  0  0  0  0  0  0
    5.1332    4.5076    0.0000 O   0  0  0  0  0  0  0  0  0  0  0  0
    4.3060   -2.4433    0.0000 N   0  0  3  0  0  0  0  0  0  0  0  0
    5.2026    0.9027    0.0000 N   0  0  0  0  0  0  0  0  0  0  0  0
    4.3060   -3.4433    0.0000 C   0  0  1  0  0  0  0  0  0  0  0  0
    3.3060   -3.4433    0.0000 C   0  0  2  0  0  0  0  0  0  0  0  0
    3.3060   -2.4433    0.0000 C   0  0  0  0  0  0  0  0  0  0  0  0
    5.0131   -1.7362    0.0000 C   0  0  0  0  0  0  0  0  0  0  0  0
    4.7543   -0.7703    0.0000 C   0  0  0  0  0  0  0  0  0  0  0  0
    5.4614   -0.0632    0.0000 C   0  0  1  0  0  0  0  0  0  0  0  0
    5.0131   -4.1504    0.0000 C   0  0  0  0  0  0  0  0  0  0  0  0
    5.9097    1.6098    0.0000 C   0  0  0  0  0  0  0  0  0  0  0  0
    6.4273   -0.3220    0.0000 C   0  0  0  0  0  0  0  0  0  0  0  0
    5.6508    2.5758    0.0000 C   0  0  0  0  0  0  0  0  0  0  0  0
    6.3580    3.2829    0.0000 C   0  0  1  0  0  0  0  0  0  0  0  0
    6.0991    4.2488    0.0000 C   0  0  0  0  0  0  0  0  0  0  0  0
    4.8788   -3.2061    0.0000 H   0  0  0  0  0  0  0  0  0  0  0  0
    2.7332   -3.2061    0.0000 H   0  0  0  0  0  0  0  0  0  0  0  0
    3.3060   -1.8233    0.0000 H   0  0  0  0  0  0  0  0  0  0  0  0
    2.6860   -2.4433    0.0000 H   0  0  0  0  0  0  0  0  0  0  0  0
    5.3687   -2.2441    0.0000 H   0  0  0  0  0  0  0  0  0  0  0  0
    5.5750   -1.4742    0.0000 H   0  0  0  0  0  0  0  0  0  0  0  0
    4.3986   -0.2624    0.0000 H   0  0  0  0  0  0  0  0  0  0  0  0
    4.1924   -1.0323    0.0000 H   0  0  0  0  0  0  0  0  0  0  0  0
    4.8625    0.0973    0.0000 H   0  0  0  0  0  0  0  0  0  0  0  0
    2.0000   -3.9900    0.0000 H   0  0  0  0  0  0  0  0  0  0  0  0
    4.6037    1.0632    0.0000 H   0  0  0  0  0  0  0  0  0  0  0  0
    6.2653    1.1020    0.0000 H   0  0  0  0  0  0  0  0  0  0  0  0
    6.4716    1.8719    0.0000 H   0  0  0  0  0  0  0  0  0  0  0  0
    5.2952    3.0836    0.0000 H   0  0  0  0  0  0  0  0  0  0  0  0
    5.0889    2.3137    0.0000 H   0  0  0  0  0  0  0  0  0  0  0  0
    5.1927   -5.5548    0.0000 H   0  0  0  0  0  0  0  0  0  0  0  0
    6.7964    3.7213    0.0000 H   0  0  0  0  0  0  0  0  0  0  0  0
    7.7333    0.2246    0.0000 H   0  0  0  0  0  0  0  0  0  0  0  0
    7.7623    3.4625    0.0000 H   0  0  0  0  0  0  0  0  0  0  0  0
    6.6458    5.5548    0.0000 H   0  0  0  0  0  0  0  0  0  0  0  0
 12  1  1  1  0  0  0
  1 32  1  0  0  0  0
  2 17  1  0  0  0  0
  2 38  1  0  0  0  0
  3 17  2  0  0  0  0
  4 19  1  0  0  0  0
  4 40  1  0  0  0  0
  5 19  2  0  0  0  0
 21  6  1  1  0  0  0
  6 41  1  0  0  0  0
  7 22  1  0  0  0  0
  7 42  1  0  0  0  0
  8 22  2  0  0  0  0
  9 11  1  0  0  0  0
  9 13  1  0  0  0  0
  9 14  1  0  0  0  0
 16 10  1  6  0  0  0
 10 18  1  0  0  0  0
 10 33  1  0  0  0  0
 11 12  1  0  0  0  0
 11 17  1  6  0  0  0
 11 23  1  0  0  0  0
 12 13  1  0  0  0  0
 12 24  1  0  0  0  0
 13 25  1  0  0  0  0
 13 26  1  0  0  0  0
 14 15  1  0  0  0  0
 14 27  1  0  0  0  0
 14 28  1  0  0  0  0
 15 16  1  0  0  0  0
 15 29  1  0  0  0  0
 15 30  1  0  0  0  0
 16 19  1  0  0  0  0
 16 31  1  0  0  0  0
 18 20  1  0  0  0  0
 18 34  1  0  0  0  0
 18 35  1  0  0  0  0
 20 21  1  0  0  0  0
 20 36  1  0  0  0  0
 20 37  1  0  0  0  0
 21 22  1  0  0  0  0
 21 39  1  0  0  0  0
M  END
> <PUBCHEM_COMPOUND_CID>
11954190

> <PUBCHEM_COMPOUND_CANONICALIZED>
1

> <PUBCHEM_CACTVS_COMPLEXITY>
429

> <PUBCHEM_CACTVS_HBOND_ACCEPTOR>
10

> <PUBCHEM_CACTVS_HBOND_DONOR>
6

> <PUBCHEM_CACTVS_ROTATABLE_BOND>
10

> <PUBCHEM_CACTVS_SUBSKEYS>
AAADceBzPAAAAAAAAAAAAAAAAABYAAAAAAAAAAAAAAAAAAAAAAAAHgAQCAAACDzhgAYACAPAAgAIAACQCAIAAAAAAAAAAIHIAAADEBQAwCAEQAAHMACRAAAkAAAAAAAAAAAAAAAAAAAAAAAAAAAAAAAAAA==

> <PUBCHEM_IUPAC_OPENEYE_NAME>
(2S,3S)-1-[(3S)-3-carboxy-3-[[(3S)-3-carboxy-3-hydroxy-propyl]amino]propyl]-3-hydroxy-azetidine-2-carboxylic acid

> <PUBCHEM_IUPAC_CAS_NAME>
(2S,3S)-1-[(3S)-3-carboxy-3-[[(3S)-3-carboxy-3-hydroxypropyl]amino]propyl]-3-hydroxy-2-azetidinecarboxylic acid

> <PUBCHEM_IUPAC_NAME>
(2S,3S)-1-[(3S)-3-carboxy-3-[[(3S)-3-carboxy-3-hydroxypropyl]amino]propyl]-3-hydroxyazetidine-2-carboxylic acid

> <PUBCHEM_IUPAC_SYSTEMATIC_NAME>
(2S,3S)-1-[(3S)-3-[[(3S)-3,4-bis(oxidanyl)-4-oxidanylidene-butyl]amino]-4-oxidanyl-4-oxidanylidene-butyl]-3-oxidanyl-azetidine-2-carboxylic acid

> <PUBCHEM_IUPAC_TRADITIONAL_NAME>
(2S,3S)-1-[(3S)-3-carboxy-3-[[(3S)-3-carboxy-3-hydroxy-propyl]amino]propyl]-3-hydroxy-azetidine-2-carboxylic acid

> <PUBCHEM_IUPAC_INCHI>
InChI=1S/C12H20N2O8/c15-7(11(19)20)1-3-13-6(10(17)18)2-4-14-5-8(16)9(14)12(21)22/h6-9,13,15-16H,1-5H2,(H,17,18)(H,19,20)(H,21,22)/t6-,7-,8-,9-/m0/s1

> <PUBCHEM_IUPAC_INCHIKEY>
UQYFTKWTXJZWBK-JBDRJPRFSA-N

> <PUBCHEM_XLOGP3_AA>
-6.1

> <PUBCHEM_EXACT_MASS>
320.121966

> <PUBCHEM_MOLECULAR_FORMULA>
C12H20N2O8

> <PUBCHEM_MOLECULAR_WEIGHT>
320.2958

> <PUBCHEM_OPENEYE_CAN_SMILES>
C1C(C(N1CCC(C(=O)O)NCCC(C(=O)O)O)C(=O)O)O

> <PUBCHEM_OPENEYE_ISO_SMILES>
C1[C@@H]([C@H](N1CC[C@@H](C(=O)O)NCC[C@@H](C(=O)O)O)C(=O)O)O

> <PUBCHEM_CACTVS_TPSA>
168

> <PUBCHEM_MONOISOTOPIC_WEIGHT>
320.121966

> <PUBCHEM_TOTAL_CHARGE>
0

> <PUBCHEM_HEAVY_ATOM_COUNT>
22

> <PUBCHEM_ATOM_DEF_STEREO_COUNT>
4

> <PUBCHEM_ATOM_UDEF_STEREO_COUNT>
0

> <PUBCHEM_BOND_DEF_STEREO_COUNT>
0

> <PUBCHEM_BOND_UDEF_STEREO_COUNT>
0

> <PUBCHEM_ISOTOPIC_ATOM_COUNT>
0

> <PUBCHEM_COMPONENT_COUNT>
1

> <PUBCHEM_CACTVS_TAUTO_COUNT>
1

> <PUBCHEM_COORDINATE_TYPE>
1
5
255

> <PUBCHEM_BONDANNOTATIONS>
12  1  5
16  10  6
11  17  6
21  6  5

$$$$

