4546
  -OEChem-06261200122D

 80 83  0     1  0  0  0  0  0999 V2000
   13.0010   -1.1061    0.0000 O   0  0  0  0  0  0  0  0  0  0  0  0
   15.6010   -0.6161    0.0000 O   0  0  0  0  0  0  0  0  0  0  0  0
   15.5933   -2.6161    0.0000 O   0  0  0  0  0  0  0  0  0  0  0  0
   12.1292   -2.6027    0.0000 O   0  0  0  0  0  0  0  0  0  0  0  0
   13.8574   -3.6094    0.0000 O   0  0  0  0  0  0  0  0  0  0  0  0
   16.4651   -1.1194    0.0000 O   0  0  0  0  0  0  0  0  0  0  0  0
    8.5991   -2.5786    0.0000 O   0  0  0  0  0  0  0  0  0  0  0  0
    8.5991    0.4214    0.0000 O   0  0  0  0  0  0  0  0  0  0  0  0
    6.8671   -2.5786    0.0000 O   0  0  0  0  0  0  0  0  0  0  0  0
    6.0010   -2.0786    0.0000 O   0  0  0  0  0  0  0  0  0  0  0  0
    2.5369    0.9214    0.0000 O   0  0  0  0  0  0  0  0  0  0  0  0
   17.3254   -2.6227    0.0000 N   0  0  0  0  0  0  0  0  0  0  0  0
    6.8671   -0.5786    0.0000 N   0  0  0  0  0  0  0  0  0  0  0  0
   13.8690   -0.6094    0.0000 C   0  0  0  0  0  0  0  0  0  0  0  0
   14.7331   -1.1127    0.0000 C   0  0  3  0  0  0  0  0  0  0  0  0
   14.7292   -2.1127    0.0000 C   0  0  3  0  0  0  0  0  0  0  0  0
   13.8613   -2.6094    0.0000 C   0  0  3  0  0  0  0  0  0  0  0  0
   12.9972   -2.1061    0.0000 C   0  0  3  0  0  0  0  0  0  0  0  0
   14.3723    0.2547    0.0000 C   0  0  0  0  0  0  0  0  0  0  0  0
   13.3723    0.2585    0.0000 C   0  0  0  0  0  0  0  0  0  0  0  0
   15.6049    0.3839    0.0000 C   0  0  0  0  0  0  0  0  0  0  0  0
   11.2651   -2.0994    0.0000 C   0  0  0  0  0  0  0  0  0  0  0  0
   16.4613   -2.1194    0.0000 C   0  0  0  0  0  0  0  0  0  0  0  0
   10.3591   -2.6132    0.0000 C   0  0  0  0  0  0  0  0  0  0  0  0
   11.2651   -1.0577    0.0000 C   0  0  0  0  0  0  0  0  0  0  0  0
    9.4651   -2.0786    0.0000 C   0  0  0  0  0  0  0  0  0  0  0  0
    9.4651   -1.0786    0.0000 C   0  0  0  0  0  0  0  0  0  0  0  0
   10.3591   -0.5439    0.0000 C   0  0  0  0  0  0  0  0  0  0  0  0
   10.3475   -3.6132    0.0000 C   0  0  0  0  0  0  0  0  0  0  0  0
    8.5991   -0.5786    0.0000 C   0  0  0  0  0  0  0  0  0  0  0  0
    7.7331   -1.0786    0.0000 C   0  0  0  0  0  0  0  0  0  0  0  0
    7.7331   -2.0786    0.0000 C   0  0  0  0  0  0  0  0  0  0  0  0
    6.0010   -1.0786    0.0000 C   0  0  0  0  0  0  0  0  0  0  0  0
    5.1350   -0.5786    0.0000 C   0  0  0  0  0  0  0  0  0  0  0  0
    4.2690    0.9214    0.0000 C   0  0  0  0  0  0  0  0  0  0  0  0
    5.1350    0.4214    0.0000 C   0  0  0  0  0  0  0  0  0  0  0  0
    4.2690   -1.0786    0.0000 C   0  0  0  0  0  0  0  0  0  0  0  0
    4.2690    1.9214    0.0000 C   0  0  0  0  0  0  0  0  0  0  0  0
    3.4030    0.4214    0.0000 C   0  0  0  0  0  0  0  0  0  0  0  0
    3.4030   -0.5786    0.0000 C   0  0  0  0  0  0  0  0  0  0  0  0
    3.4030    2.4214    0.0000 C   0  0  0  0  0  0  0  0  0  0  0  0
    3.4030    3.4214    0.0000 C   0  0  0  0  0  0  0  0  0  0  0  0
    2.5369    3.9214    0.0000 C   0  0  0  0  0  0  0  0  0  0  0  0
    4.2690    3.9214    0.0000 C   0  0  0  0  0  0  0  0  0  0  0  0
   14.7355   -0.4927    0.0000 H   0  0  0  0  0  0  0  0  0  0  0  0
   15.2674   -1.8048    0.0000 H   0  0  0  0  0  0  0  0  0  0  0  0
   14.3970   -2.9214    0.0000 H   0  0  0  0  0  0  0  0  0  0  0  0
   12.4614   -1.7940    0.0000 H   0  0  0  0  0  0  0  0  0  0  0  0
   14.9081   -0.0574    0.0000 H   0  0  0  0  0  0  0  0  0  0  0  0
   14.6844    0.7904    0.0000 H   0  0  0  0  0  0  0  0  0  0  0  0
   13.8366    0.5668    0.0000 H   0  0  0  0  0  0  0  0  0  0  0  0
   13.9105    0.5665    0.0000 H   0  0  0  0  0  0  0  0  0  0  0  0
   13.0644    0.7967    0.0000 H   0  0  0  0  0  0  0  0  0  0  0  0
   12.8342   -0.0494    0.0000 H   0  0  0  0  0  0  0  0  0  0  0  0
   14.3932   -3.9214    0.0000 H   0  0  0  0  0  0  0  0  0  0  0  0
   16.2249    0.3815    0.0000 H   0  0  0  0  0  0  0  0  0  0  0  0
   15.6073    1.0039    0.0000 H   0  0  0  0  0  0  0  0  0  0  0  0
   14.9849    0.3863    0.0000 H   0  0  0  0  0  0  0  0  0  0  0  0
   11.8009   -0.7457    0.0000 H   0  0  0  0  0  0  0  0  0  0  0  0
   10.3519    0.0761    0.0000 H   0  0  0  0  0  0  0  0  0  0  0  0
   17.8635   -2.3148    0.0000 H   0  0  0  0  0  0  0  0  0  0  0  0
   17.3230   -3.2427    0.0000 H   0  0  0  0  0  0  0  0  0  0  0  0
    9.7276   -3.6060    0.0000 H   0  0  0  0  0  0  0  0  0  0  0  0
   10.3403   -4.2331    0.0000 H   0  0  0  0  0  0  0  0  0  0  0  0
   10.9675   -3.6203    0.0000 H   0  0  0  0  0  0  0  0  0  0  0  0
    6.8671    0.0414    0.0000 H   0  0  0  0  0  0  0  0  0  0  0  0
    6.8671   -3.1986    0.0000 H   0  0  0  0  0  0  0  0  0  0  0  0
    5.6720    0.7314    0.0000 H   0  0  0  0  0  0  0  0  0  0  0  0
    4.8796    1.8138    0.0000 H   0  0  0  0  0  0  0  0  0  0  0  0
    4.4810    2.5040    0.0000 H   0  0  0  0  0  0  0  0  0  0  0  0
    4.2690   -1.6986    0.0000 H   0  0  0  0  0  0  0  0  0  0  0  0
    2.8660   -0.8886    0.0000 H   0  0  0  0  0  0  0  0  0  0  0  0
    2.8660    2.1114    0.0000 H   0  0  0  0  0  0  0  0  0  0  0  0
    2.0000    0.6114    0.0000 H   0  0  0  0  0  0  0  0  0  0  0  0
    2.8469    4.4584    0.0000 H   0  0  0  0  0  0  0  0  0  0  0  0
    2.0000    4.2314    0.0000 H   0  0  0  0  0  0  0  0  0  0  0  0
    2.2269    3.3845    0.0000 H   0  0  0  0  0  0  0  0  0  0  0  0
    4.5790    3.3845    0.0000 H   0  0  0  0  0  0  0  0  0  0  0  0
    4.8059    4.2314    0.0000 H   0  0  0  0  0  0  0  0  0  0  0  0
    3.9590    4.4584    0.0000 H   0  0  0  0  0  0  0  0  0  0  0  0
  1 14  1  0  0  0  0
  1 18  1  0  0  0  0
  2 15  1  0  0  0  0
  2 21  1  0  0  0  0
  3 16  1  0  0  0  0
  3 23  1  0  0  0  0
  4 18  1  0  0  0  0
  4 22  1  0  0  0  0
  5 17  1  0  0  0  0
  5 55  1  0  0  0  0
  6 23  2  0  0  0  0
  7 26  1  0  0  0  0
  7 32  1  0  0  0  0
  8 30  2  0  0  0  0
  9 32  1  0  0  0  0
  9 67  1  0  0  0  0
 10 33  2  0  0  0  0
 11 39  1  0  0  0  0
 11 74  1  0  0  0  0
 12 23  1  0  0  0  0
 12 61  1  0  0  0  0
 12 62  1  0  0  0  0
 13 31  1  0  0  0  0
 13 33  1  0  0  0  0
 13 66  1  0  0  0  0
 14 15  1  0  0  0  0
 14 19  1  0  0  0  0
 14 20  1  0  0  0  0
 15 16  1  0  0  0  0
 15 45  1  0  0  0  0
 16 17  1  0  0  0  0
 16 46  1  0  0  0  0
 17 18  1  0  0  0  0
 17 47  1  0  0  0  0
 18 48  1  0  0  0  0
 19 49  1  0  0  0  0
 19 50  1  0  0  0  0
 19 51  1  0  0  0  0
 20 52  1  0  0  0  0
 20 53  1  0  0  0  0
 20 54  1  0  0  0  0
 21 56  1  0  0  0  0
 21 57  1  0  0  0  0
 21 58  1  0  0  0  0
 22 24  2  0  0  0  0
 22 25  1  0  0  0  0
 24 26  1  0  0  0  0
 24 29  1  0  0  0  0
 25 28  2  0  0  0  0
 25 59  1  0  0  0  0
 26 27  2  0  0  0  0
 27 28  1  0  0  0  0
 27 30  1  0  0  0  0
 28 60  1  0  0  0  0
 29 63  1  0  0  0  0
 29 64  1  0  0  0  0
 29 65  1  0  0  0  0
 30 31  1  0  0  0  0
 31 32  2  0  0  0  0
 33 34  1  0  0  0  0
 34 36  2  0  0  0  0
 34 37  1  0  0  0  0
 35 36  1  0  0  0  0
 35 38  1  0  0  0  0
 35 39  2  0  0  0  0
 36 68  1  0  0  0  0
 37 40  2  0  0  0  0
 37 71  1  0  0  0  0
 38 41  1  0  0  0  0
 38 69  1  0  0  0  0
 38 70  1  0  0  0  0
 39 40  1  0  0  0  0
 40 72  1  0  0  0  0
 41 42  2  0  0  0  0
 41 73  1  0  0  0  0
 42 43  1  0  0  0  0
 42 44  1  0  0  0  0
 43 75  1  0  0  0  0
 43 76  1  0  0  0  0
 43 77  1  0  0  0  0
 44 78  1  0  0  0  0
 44 79  1  0  0  0  0
 44 80  1  0  0  0  0
M  END
> <PUBCHEM_COMPOUND_CID>
4546

> <PUBCHEM_COMPOUND_CANONICALIZED>
1

> <PUBCHEM_CACTVS_COMPLEXITY>
1150

> <PUBCHEM_CACTVS_HBOND_ACCEPTOR>
11

> <PUBCHEM_CACTVS_HBOND_DONOR>
5

> <PUBCHEM_CACTVS_ROTATABLE_BOND>
9

> <PUBCHEM_CACTVS_SUBSKEYS>
AAADcfB7PAAAAAAAAAAAAAAAAAAAAAAAAAA0YIEAAAAAAACBQAAAHgAQCAAADFyxmAMyDoLABgCIAqVSWACCCAAkIAAIiAGGDMkdNzaGtTuueWjl5BWPuYf4/P7OIAACCAAIAABAAAQQABAAAAAAAAAAAA==

> <PUBCHEM_IUPAC_OPENEYE_NAME>
[5-hydroxy-6-[2-hydroxy-3-[[4-hydroxy-3-(3-methylbut-2-enyl)benzoyl]amino]-8-methyl-4-oxo-chromen-7-yl]oxy-3-methoxy-2,2-dimethyl-tetrahydropyran-4-yl] carbamate

> <PUBCHEM_IUPAC_CAS_NAME>
carbamic acid [5-hydroxy-6-[[2-hydroxy-3-[[[4-hydroxy-3-(3-methylbut-2-enyl)phenyl]-oxomethyl]amino]-8-methyl-4-oxo-1-benzopyran-7-yl]oxy]-3-methoxy-2,2-dimethyl-4-oxanyl] ester

> <PUBCHEM_IUPAC_NAME>
[5-hydroxy-6-[2-hydroxy-3-[[4-hydroxy-3-(3-methylbut-2-enyl)benzoyl]amino]-8-methyl-4-oxochromen-7-yl]oxy-3-methoxy-2,2-dimethyloxan-4-yl] carbamate

> <PUBCHEM_IUPAC_SYSTEMATIC_NAME>
[3-methoxy-2,2-dimethyl-6-[8-methyl-3-[[3-(3-methylbut-2-enyl)-4-oxidanyl-phenyl]carbonylamino]-2-oxidanyl-4-oxidanylidene-chromen-7-yl]oxy-5-oxidanyl-oxan-4-yl] carbamate

> <PUBCHEM_IUPAC_TRADITIONAL_NAME>
carbamic acid [5-hydroxy-6-[2-hydroxy-3-[[4-hydroxy-3-(3-methylbut-2-enyl)benzoyl]amino]-4-keto-8-methyl-chromen-7-yl]oxy-3-methoxy-2,2-dimethyl-tetrahydropyran-4-yl] ester

> <PUBCHEM_IUPAC_INCHI>
InChI=1S/C31H36N2O11/c1-14(2)7-8-16-13-17(9-11-19(16)34)27(37)33-21-22(35)18-10-12-20(15(3)24(18)42-28(21)38)41-29-23(36)25(43-30(32)39)26(40-6)31(4,5)44-29/h7,9-13,23,25-26,29,34,36,38H,8H2,1-6H3,(H2,32,39)(H,33,37)

> <PUBCHEM_IUPAC_INCHIKEY>
DYYIUCVAQGRACE-UHFFFAOYSA-N

> <PUBCHEM_XLOGP3_AA>
3.4

> <PUBCHEM_EXACT_MASS>
612.23191

> <PUBCHEM_MOLECULAR_FORMULA>
C31H36N2O11

> <PUBCHEM_MOLECULAR_WEIGHT>
612.62434

> <PUBCHEM_OPENEYE_CAN_SMILES>
CC1=C(C=CC2=C1OC(=C(C2=O)NC(=O)C3=CC(=C(C=C3)O)CC=C(C)C)O)OC4C(C(C(C(O4)(C)C)OC)OC(=O)N)O

> <PUBCHEM_OPENEYE_ISO_SMILES>
CC1=C(C=CC2=C1OC(=C(C2=O)NC(=O)C3=CC(=C(C=C3)O)CC=C(C)C)O)OC4C(C(C(C(O4)(C)C)OC)OC(=O)N)O

> <PUBCHEM_CACTVS_TPSA>
196

> <PUBCHEM_MONOISOTOPIC_WEIGHT>
612.23191

> <PUBCHEM_TOTAL_CHARGE>
0

> <PUBCHEM_HEAVY_ATOM_COUNT>
44

> <PUBCHEM_ATOM_DEF_STEREO_COUNT>
0

> <PUBCHEM_ATOM_UDEF_STEREO_COUNT>
4

> <PUBCHEM_BOND_DEF_STEREO_COUNT>
0

> <PUBCHEM_BOND_UDEF_STEREO_COUNT>
0

> <PUBCHEM_ISOTOPIC_ATOM_COUNT>
0

> <PUBCHEM_COMPONENT_COUNT>
1

> <PUBCHEM_CACTVS_TAUTO_COUNT>
82

> <PUBCHEM_COORDINATE_TYPE>
1
5
255

> <PUBCHEM_BONDANNOTATIONS>
15  2  3
22  24  8
22  25  8
24  26  8
25  28  8
26  27  8
27  28  8
27  30  8
16  3  3
30  31  8
31  32  8
34  36  8
34  37  8
35  36  8
35  39  8
37  40  8
39  40  8
18  4  3
17  5  3
7  26  8
7  32  8

$$$$

