129695
  -OEChem-07051213042D

 61 62  0     0  0  0  0  0  0999 V2000
    7.7331    4.2927    0.0000 O   0  0  0  0  0  0  0  0  0  0  0  0
    6.8671   -0.2073    0.0000 N   0  0  0  0  0  0  0  0  0  0  0  0
    4.2690   -3.7073    0.0000 N   0  0  0  0  0  0  0  0  0  0  0  0
    8.5991    2.7927    0.0000 N   0  0  0  0  0  0  0  0  0  0  0  0
    2.5369   -6.7073    0.0000 N   0  0  0  0  0  0  0  0  0  0  0  0
    6.0010   -1.7073    0.0000 C   0  0  0  0  0  0  0  0  0  0  0  0
    5.1350   -2.2073    0.0000 C   0  0  0  0  0  0  0  0  0  0  0  0
    6.0010   -0.7073    0.0000 C   0  0  0  0  0  0  0  0  0  0  0  0
    5.1350   -3.2073    0.0000 C   0  0  0  0  0  0  0  0  0  0  0  0
    6.8671    0.7927    0.0000 C   0  0  0  0  0  0  0  0  0  0  0  0
    7.7331    1.2927    0.0000 C   0  0  0  0  0  0  0  0  0  0  0  0
    7.7331    2.2927    0.0000 C   0  0  0  0  0  0  0  0  0  0  0  0
    4.2690   -4.7073    0.0000 C   0  0  0  0  0  0  0  0  0  0  0  0
    3.4030   -5.2073    0.0000 C   0  0  0  0  0  0  0  0  0  0  0  0
    9.4651    4.2927    0.0000 C   0  0  0  0  0  0  0  0  0  0  0  0
    9.4651    5.2927    0.0000 C   0  0  0  0  0  0  0  0  0  0  0  0
   10.3312    5.7927    0.0000 C   0  0  0  0  0  0  0  0  0  0  0  0
    8.5991    3.7927    0.0000 C   0  0  0  0  0  0  0  0  0  0  0  0
    3.4030   -6.2073    0.0000 C   0  0  0  0  0  0  0  0  0  0  0  0
   10.3312    6.7927    0.0000 C   0  0  0  0  0  0  0  0  0  0  0  0
    8.5991    5.7927    0.0000 C   0  0  0  0  0  0  0  0  0  0  0  0
   11.2251    5.2580    0.0000 C   0  0  0  0  0  0  0  0  0  0  0  0
    9.4651    7.2927    0.0000 C   0  0  0  0  0  0  0  0  0  0  0  0
    8.5991    6.7927    0.0000 C   0  0  0  0  0  0  0  0  0  0  0  0
   11.2251    7.3273    0.0000 C   0  0  0  0  0  0  0  0  0  0  0  0
   12.1312    5.7718    0.0000 C   0  0  0  0  0  0  0  0  0  0  0  0
   12.1312    6.8135    0.0000 C   0  0  0  0  0  0  0  0  0  0  0  0
    6.2131   -2.2899    0.0000 H   0  0  0  0  0  0  0  0  0  0  0  0
    6.6116   -1.5997    0.0000 H   0  0  0  0  0  0  0  0  0  0  0  0
    4.9230   -1.6247    0.0000 H   0  0  0  0  0  0  0  0  0  0  0  0
    4.5244   -2.3150    0.0000 H   0  0  0  0  0  0  0  0  0  0  0  0
    5.7890   -0.1247    0.0000 H   0  0  0  0  0  0  0  0  0  0  0  0
    5.3905   -0.8150    0.0000 H   0  0  0  0  0  0  0  0  0  0  0  0
    5.3471   -3.7899    0.0000 H   0  0  0  0  0  0  0  0  0  0  0  0
    5.7456   -3.0997    0.0000 H   0  0  0  0  0  0  0  0  0  0  0  0
    6.6550    1.3753    0.0000 H   0  0  0  0  0  0  0  0  0  0  0  0
    6.2565    0.6850    0.0000 H   0  0  0  0  0  0  0  0  0  0  0  0
    7.9451    0.7101    0.0000 H   0  0  0  0  0  0  0  0  0  0  0  0
    8.3437    1.4003    0.0000 H   0  0  0  0  0  0  0  0  0  0  0  0
    7.4040   -0.5173    0.0000 H   0  0  0  0  0  0  0  0  0  0  0  0
    3.7320   -3.3973    0.0000 H   0  0  0  0  0  0  0  0  0  0  0  0
    7.5210    2.8753    0.0000 H   0  0  0  0  0  0  0  0  0  0  0  0
    7.1225    2.1850    0.0000 H   0  0  0  0  0  0  0  0  0  0  0  0
    4.4810   -5.2899    0.0000 H   0  0  0  0  0  0  0  0  0  0  0  0
    4.8796   -4.5997    0.0000 H   0  0  0  0  0  0  0  0  0  0  0  0
    3.1909   -4.6247    0.0000 H   0  0  0  0  0  0  0  0  0  0  0  0
    2.7924   -5.3150    0.0000 H   0  0  0  0  0  0  0  0  0  0  0  0
    9.6772    3.7101    0.0000 H   0  0  0  0  0  0  0  0  0  0  0  0
   10.0757    4.4003    0.0000 H   0  0  0  0  0  0  0  0  0  0  0  0
    9.1360    2.4827    0.0000 H   0  0  0  0  0  0  0  0  0  0  0  0
    3.6150   -6.7899    0.0000 H   0  0  0  0  0  0  0  0  0  0  0  0
    4.0135   -6.0997    0.0000 H   0  0  0  0  0  0  0  0  0  0  0  0
    8.0622    5.4827    0.0000 H   0  0  0  0  0  0  0  0  0  0  0  0
   11.2179    4.6380    0.0000 H   0  0  0  0  0  0  0  0  0  0  0  0
    9.4651    7.9127    0.0000 H   0  0  0  0  0  0  0  0  0  0  0  0
    8.0622    7.1027    0.0000 H   0  0  0  0  0  0  0  0  0  0  0  0
   11.2179    7.9473    0.0000 H   0  0  0  0  0  0  0  0  0  0  0  0
   12.6669    5.4598    0.0000 H   0  0  0  0  0  0  0  0  0  0  0  0
   12.6669    7.1256    0.0000 H   0  0  0  0  0  0  0  0  0  0  0  0
    2.5369   -7.3273    0.0000 H   0  0  0  0  0  0  0  0  0  0  0  0
    2.0000   -6.3973    0.0000 H   0  0  0  0  0  0  0  0  0  0  0  0
  1 18  2  0  0  0  0
  2  8  1  0  0  0  0
  2 10  1  0  0  0  0
  2 40  1  0  0  0  0
  3  9  1  0  0  0  0
  3 13  1  0  0  0  0
  3 41  1  0  0  0  0
  4 12  1  0  0  0  0
  4 18  1  0  0  0  0
  4 50  1  0  0  0  0
  5 19  1  0  0  0  0
  5 60  1  0  0  0  0
  5 61  1  0  0  0  0
  6  7  1  0  0  0  0
  6  8  1  0  0  0  0
  6 28  1  0  0  0  0
  6 29  1  0  0  0  0
  7  9  1  0  0  0  0
  7 30  1  0  0  0  0
  7 31  1  0  0  0  0
  8 32  1  0  0  0  0
  8 33  1  0  0  0  0
  9 34  1  0  0  0  0
  9 35  1  0  0  0  0
 10 11  1  0  0  0  0
 10 36  1  0  0  0  0
 10 37  1  0  0  0  0
 11 12  1  0  0  0  0
 11 38  1  0  0  0  0
 11 39  1  0  0  0  0
 12 42  1  0  0  0  0
 12 43  1  0  0  0  0
 13 14  1  0  0  0  0
 13 44  1  0  0  0  0
 13 45  1  0  0  0  0
 14 19  1  0  0  0  0
 14 46  1  0  0  0  0
 14 47  1  0  0  0  0
 15 16  1  0  0  0  0
 15 18  1  0  0  0  0
 15 48  1  0  0  0  0
 15 49  1  0  0  0  0
 16 17  1  0  0  0  0
 16 21  2  0  0  0  0
 17 20  1  0  0  0  0
 17 22  2  0  0  0  0
 19 51  1  0  0  0  0
 19 52  1  0  0  0  0
 20 23  1  0  0  0  0
 20 25  2  0  0  0  0
 21 24  1  0  0  0  0
 21 53  1  0  0  0  0
 22 26  1  0  0  0  0
 22 54  1  0  0  0  0
 23 24  2  0  0  0  0
 23 55  1  0  0  0  0
 24 56  1  0  0  0  0
 25 27  1  0  0  0  0
 25 57  1  0  0  0  0
 26 27  2  0  0  0  0
 26 58  1  0  0  0  0
 27 59  1  0  0  0  0
M  END
> <PUBCHEM_COMPOUND_CID>
129695

> <PUBCHEM_COMPOUND_CANONICALIZED>
1

> <PUBCHEM_CACTVS_COMPLEXITY>
391

> <PUBCHEM_CACTVS_HBOND_ACCEPTOR>
4

> <PUBCHEM_CACTVS_HBOND_DONOR>
4

> <PUBCHEM_CACTVS_ROTATABLE_BOND>
14

> <PUBCHEM_CACTVS_SUBSKEYS>
AAADcfB7oAAAAAAAAAAAAAAAAAAAAAAAAAAwYAAAAAAAAADBUAAAHgAQAAAADADBmAQwAMLAAACIAiFSEAACAAAgAAAIiIEIAIgIIDKA1RGEIAAglgCIiAcYiMCOgAACAAAQAAAAAAQAACAAAAAAAAAAAA==

> <PUBCHEM_IUPAC_OPENEYE_NAME>
N-[3-[4-(3-aminopropylamino)butylamino]propyl]-2-(1-naphthyl)acetamide

> <PUBCHEM_IUPAC_CAS_NAME>
N-[3-[4-(3-aminopropylamino)butylamino]propyl]-2-(1-naphthalenyl)acetamide

> <PUBCHEM_IUPAC_NAME>
N-[3-[4-(3-aminopropylamino)butylamino]propyl]-2-naphthalen-1-ylacetamide

> <PUBCHEM_IUPAC_SYSTEMATIC_NAME>
N-[3-[4-(3-azanylpropylamino)butylamino]propyl]-2-naphthalen-1-yl-ethanamide

> <PUBCHEM_IUPAC_TRADITIONAL_NAME>
N-[3-[4-(3-aminopropylamino)butylamino]propyl]-2-(1-naphthyl)acetamide

> <PUBCHEM_IUPAC_INCHI>
InChI=1S/C22H34N4O/c23-12-6-15-24-13-3-4-14-25-16-7-17-26-22(27)18-20-10-5-9-19-8-1-2-11-21(19)20/h1-2,5,8-11,24-25H,3-4,6-7,12-18,23H2,(H,26,27)

> <PUBCHEM_IUPAC_INCHIKEY>
ZUINPPQIQARTKX-UHFFFAOYSA-N

> <PUBCHEM_XLOGP3_AA>
2

> <PUBCHEM_EXACT_MASS>
370.273262

> <PUBCHEM_MOLECULAR_FORMULA>
C22H34N4O

> <PUBCHEM_MOLECULAR_WEIGHT>
370.53156

> <PUBCHEM_OPENEYE_CAN_SMILES>
C1=CC=C2C(=C1)C=CC=C2CC(=O)NCCCNCCCCNCCCN

> <PUBCHEM_OPENEYE_ISO_SMILES>
C1=CC=C2C(=C1)C=CC=C2CC(=O)NCCCNCCCCNCCCN

> <PUBCHEM_CACTVS_TPSA>
79.2

> <PUBCHEM_MONOISOTOPIC_WEIGHT>
370.273262

> <PUBCHEM_TOTAL_CHARGE>
0

> <PUBCHEM_HEAVY_ATOM_COUNT>
27

> <PUBCHEM_ATOM_DEF_STEREO_COUNT>
0

> <PUBCHEM_ATOM_UDEF_STEREO_COUNT>
0

> <PUBCHEM_BOND_DEF_STEREO_COUNT>
0

> <PUBCHEM_BOND_UDEF_STEREO_COUNT>
0

> <PUBCHEM_ISOTOPIC_ATOM_COUNT>
0

> <PUBCHEM_COMPONENT_COUNT>
1

> <PUBCHEM_CACTVS_TAUTO_COUNT>
2

> <PUBCHEM_COORDINATE_TYPE>
1
5
255

> <PUBCHEM_BONDANNOTATIONS>
16  17  8
16  21  8
17  20  8
17  22  8
20  23  8
20  25  8
21  24  8
22  26  8
23  24  8
25  27  8
26  27  8

$$$$

