240982
  -OEChem-07051213062D

 52 55  0     1  0  0  0  0  0999 V2000
    5.5480    0.8239    0.0000 S   0  0  0  0  0  0  0  0  0  0  0  0
    5.6668    2.1502    0.0000 O   0  0  0  0  0  0  0  0  0  0  0  0
    9.5218    2.9055    0.0000 O   0  0  0  0  0  0  0  0  0  0  0  0
    2.8718   -1.4021    0.0000 O   0  0  0  0  0  0  0  0  0  0  0  0
    3.7320   -2.9055    0.0000 O   0  0  0  0  0  0  0  0  0  0  0  0
    8.2649    0.6502    0.0000 C   0  0  1  0  0  0  0  0  0  0  0  0
    7.3989    0.1502    0.0000 C   0  0  1  0  0  0  0  0  0  0  0  0
    6.5328    0.6502    0.0000 C   0  0  2  0  0  0  0  0  0  0  0  0
    8.2649    1.6502    0.0000 C   0  0  2  0  0  0  0  0  0  0  0  0
    5.6228    0.1434    0.0000 C   0  0  2  0  0  0  0  0  0  0  0  0
    7.3989    2.1502    0.0000 C   0  0  0  0  0  0  0  0  0  0  0  0
    9.2111    0.3455    0.0000 C   0  0  0  0  0  0  0  0  0  0  0  0
    7.4149   -0.8913    0.0000 C   0  0  0  0  0  0  0  0  0  0  0  0
    6.5328    1.6502    0.0000 C   0  0  0  0  0  0  0  0  0  0  0  0
    9.2111    1.9549    0.0000 C   0  0  0  0  0  0  0  0  0  0  0  0
    9.7947    1.1502    0.0000 C   0  0  0  0  0  0  0  0  0  0  0  0
    5.6148   -0.8982    0.0000 C   0  0  0  0  0  0  0  0  0  0  0  0
    4.6960    0.7074    0.0000 C   0  0  0  0  0  0  0  0  0  0  0  0
    8.2649    2.6502    0.0000 C   0  0  0  0  0  0  0  0  0  0  0  0
    6.5169   -1.4191    0.0000 C   0  0  0  0  0  0  0  0  0  0  0  0
    6.2055    1.1348    0.0000 C   0  0  0  0  0  0  0  0  0  0  0  0
    3.7481    0.1795    0.0000 C   0  0  0  0  0  0  0  0  0  0  0  0
    4.6794   -1.4480    0.0000 C   0  0  0  0  0  0  0  0  0  0  0  0
    3.7398   -0.9055    0.0000 C   0  0  0  0  0  0  0  0  0  0  0  0
    2.8680   -2.4021    0.0000 C   0  0  0  0  0  0  0  0  0  0  0  0
    2.0000   -2.8988    0.0000 C   0  0  0  0  0  0  0  0  0  0  0  0
    8.3548   -0.1950    0.0000 H   0  0  0  0  0  0  0  0  0  0  0  0
    8.1382   -0.2691    0.0000 H   0  0  0  0  0  0  0  0  0  0  0  0
    7.7974    2.6252    0.0000 H   0  0  0  0  0  0  0  0  0  0  0  0
    7.0003    2.6252    0.0000 H   0  0  0  0  0  0  0  0  0  0  0  0
    8.9601   -0.2214    0.0000 H   0  0  0  0  0  0  0  0  0  0  0  0
    9.7485    0.0362    0.0000 H   0  0  0  0  0  0  0  0  0  0  0  0
    7.6330   -1.4717    0.0000 H   0  0  0  0  0  0  0  0  0  0  0  0
    8.0241   -0.7758    0.0000 H   0  0  0  0  0  0  0  0  0  0  0  0
   10.2556    0.7355    0.0000 H   0  0  0  0  0  0  0  0  0  0  0  0
   10.2556    1.5649    0.0000 H   0  0  0  0  0  0  0  0  0  0  0  0
    5.1042    1.1741    0.0000 H   0  0  0  0  0  0  0  0  0  0  0  0
    4.3061    1.1895    0.0000 H   0  0  0  0  0  0  0  0  0  0  0  0
    8.8849    2.6502    0.0000 H   0  0  0  0  0  0  0  0  0  0  0  0
    8.2649    3.2702    0.0000 H   0  0  0  0  0  0  0  0  0  0  0  0
    7.6449    2.6502    0.0000 H   0  0  0  0  0  0  0  0  0  0  0  0
    6.5193   -2.0390    0.0000 H   0  0  0  0  0  0  0  0  0  0  0  0
    6.7400    0.8207    0.0000 H   0  0  0  0  0  0  0  0  0  0  0  0
    6.5196    1.6694    0.0000 H   0  0  0  0  0  0  0  0  0  0  0  0
    5.6710    1.4490    0.0000 H   0  0  0  0  0  0  0  0  0  0  0  0
    5.3360    1.4065    0.0000 H   0  0  0  0  0  0  0  0  0  0  0  0
    3.5436    0.7648    0.0000 H   0  0  0  0  0  0  0  0  0  0  0  0
    3.1365    0.0781    0.0000 H   0  0  0  0  0  0  0  0  0  0  0  0
    4.6818   -2.0680    0.0000 H   0  0  0  0  0  0  0  0  0  0  0  0
    1.6921   -2.3606    0.0000 H   0  0  0  0  0  0  0  0  0  0  0  0
    1.4619   -3.2067    0.0000 H   0  0  0  0  0  0  0  0  0  0  0  0
    2.3079   -3.4369    0.0000 H   0  0  0  0  0  0  0  0  0  0  0  0
  8  1  1  6  0  0  0
  1 46  1  0  0  0  0
  2 14  2  0  0  0  0
  3 15  2  0  0  0  0
  4 24  1  0  0  0  0
  4 25  1  0  0  0  0
  5 25  2  0  0  0  0
  6  7  1  0  0  0  0
  6  9  1  0  0  0  0
  6 12  1  0  0  0  0
  6 27  1  6  0  0  0
  7  8  1  0  0  0  0
  7 13  1  0  0  0  0
  7 28  1  1  0  0  0
  8 10  1  0  0  0  0
  8 14  1  0  0  0  0
  9 11  1  0  0  0  0
  9 15  1  0  0  0  0
  9 19  1  1  0  0  0
 10 17  1  0  0  0  0
 10 18  1  0  0  0  0
 10 21  1  1  0  0  0
 11 14  1  0  0  0  0
 11 29  1  0  0  0  0
 11 30  1  0  0  0  0
 12 16  1  0  0  0  0
 12 31  1  0  0  0  0
 12 32  1  0  0  0  0
 13 20  1  0  0  0  0
 13 33  1  0  0  0  0
 13 34  1  0  0  0  0
 15 16  1  0  0  0  0
 16 35  1  0  0  0  0
 16 36  1  0  0  0  0
 17 20  2  0  0  0  0
 17 23  1  0  0  0  0
 18 22  1  0  0  0  0
 18 37  1  0  0  0  0
 18 38  1  0  0  0  0
 19 39  1  0  0  0  0
 19 40  1  0  0  0  0
 19 41  1  0  0  0  0
 20 42  1  0  0  0  0
 21 43  1  0  0  0  0
 21 44  1  0  0  0  0
 21 45  1  0  0  0  0
 22 24  1  0  0  0  0
 22 47  1  0  0  0  0
 22 48  1  0  0  0  0
 23 24  2  0  0  0  0
 23 49  1  0  0  0  0
 25 26  1  0  0  0  0
 26 50  1  0  0  0  0
 26 51  1  0  0  0  0
 26 52  1  0  0  0  0
M  END
> <PUBCHEM_COMPOUND_CID>
240982

> <PUBCHEM_COMPOUND_CANONICALIZED>
1

> <PUBCHEM_CACTVS_COMPLEXITY>
781

> <PUBCHEM_CACTVS_HBOND_ACCEPTOR>
5

> <PUBCHEM_CACTVS_HBOND_DONOR>
1

> <PUBCHEM_CACTVS_ROTATABLE_BOND>
2

> <PUBCHEM_CACTVS_SUBSKEYS>
AAADceB4OABAAAAAAAAAAAAAAAAAAYAAAAAwQIAAAAAAAGCAAAAAGgQAAAAADwSAwAACCAAABASIAqDSCAAACAAgIAAACAEAAAgIABIAAQACAAAEgAAIgAOJyPCPgAAAAAAAAACgAAUAACgAAAAACAAAAA==

> <PUBCHEM_IUPAC_OPENEYE_NAME>
[(8S,9R,10S,13S,14S)-10,13-dimethyl-11,17-dioxo-9-sulfanyl-1,2,7,8,12,14,15,16-octahydrocyclopenta[a]phenanthren-3-yl] acetate

> <PUBCHEM_IUPAC_CAS_NAME>
acetic acid [(8S,9R,10S,13S,14S)-9-mercapto-10,13-dimethyl-11,17-dioxo-1,2,7,8,12,14,15,16-octahydrocyclopenta[a]phenanthren-3-yl] ester

> <PUBCHEM_IUPAC_NAME>
[(8S,9R,10S,13S,14S)-10,13-dimethyl-11,17-dioxo-9-sulfanyl-1,2,7,8,12,14,15,16-octahydrocyclopenta[a]phenanthren-3-yl] acetate

> <PUBCHEM_IUPAC_SYSTEMATIC_NAME>
[(8S,9R,10S,13S,14S)-10,13-dimethyl-11,17-bis(oxidanylidene)-9-sulfanyl-1,2,7,8,12,14,15,16-octahydrocyclopenta[a]phenanthren-3-yl] ethanoate

> <PUBCHEM_IUPAC_TRADITIONAL_NAME>
acetic acid [(8S,9R,10S,13S,14S)-11,17-diketo-9-mercapto-10,13-dimethyl-1,2,7,8,12,14,15,16-octahydrocyclopenta[a]phenanthren-3-yl] ester

> <PUBCHEM_IUPAC_INCHI>
InChI=1S/C21H26O4S/c1-12(22)25-14-8-9-20(3)13(10-14)4-5-16-15-6-7-17(23)19(15,2)11-18(24)21(16,20)26/h4,10,15-16,26H,5-9,11H2,1-3H3/t15-,16-,19-,20-,21-/m0/s1

> <PUBCHEM_IUPAC_INCHIKEY>
AQIYOMKPFQCODB-NHUSPQTBSA-N

> <PUBCHEM_XLOGP3_AA>
2.3

> <PUBCHEM_EXACT_MASS>
374.15518

> <PUBCHEM_MOLECULAR_FORMULA>
C21H26O4S

> <PUBCHEM_MOLECULAR_WEIGHT>
374.49374

> <PUBCHEM_OPENEYE_CAN_SMILES>
CC(=O)OC1=CC2=CCC3C4CCC(=O)C4(CC(=O)C3(C2(CC1)C)S)C

> <PUBCHEM_OPENEYE_ISO_SMILES>
CC(=O)OC1=CC2=CC[C@H]3[C@@H]4CCC(=O)[C@]4(CC(=O)[C@@]3([C@]2(CC1)C)S)C

> <PUBCHEM_CACTVS_TPSA>
61.4

> <PUBCHEM_MONOISOTOPIC_WEIGHT>
374.15518

> <PUBCHEM_TOTAL_CHARGE>
0

> <PUBCHEM_HEAVY_ATOM_COUNT>
26

> <PUBCHEM_ATOM_DEF_STEREO_COUNT>
5

> <PUBCHEM_ATOM_UDEF_STEREO_COUNT>
0

> <PUBCHEM_BOND_DEF_STEREO_COUNT>
0

> <PUBCHEM_BOND_UDEF_STEREO_COUNT>
0

> <PUBCHEM_ISOTOPIC_ATOM_COUNT>
0

> <PUBCHEM_COMPONENT_COUNT>
1

> <PUBCHEM_CACTVS_TAUTO_COUNT>
4

> <PUBCHEM_COORDINATE_TYPE>
1
5
255

> <PUBCHEM_BONDANNOTATIONS>
8  1  6
10  21  5
6  27  6
7  28  5
9  19  5

$$$$

