17395300
  -OEChem-06241222492D

 61 64  0     1  0  0  0  0  0999 V2000
    4.5274   -1.3947    0.0000 O   0  0  0  0  0  0  0  0  0  0  0  0
    7.3991   -4.2553    0.0000 O   0  0  0  0  0  0  0  0  0  0  0  0
    7.6654   -0.6144    0.0000 O   0  0  0  0  0  0  0  0  0  0  0  0
   10.2308    1.7134    0.0000 O   0  0  0  0  0  0  0  0  0  0  0  0
   13.1015    4.9935    0.0000 O   0  0  0  0  0  0  0  0  0  0  0  0
    9.6201   -0.1911    0.0000 N   0  0  3  0  0  0  0  0  0  0  0  0
    8.0321   -2.3072    0.0000 N   0  0  0  0  0  0  0  0  0  0  0  0
   11.8801    1.1845    0.0000 N   0  0  0  0  0  0  0  0  0  0  0  0
    9.3148   -1.1433    0.0000 C   0  0  3  0  0  0  0  0  0  0  0  0
    5.0274   -2.9336    0.0000 C   0  0  0  0  0  0  0  0  0  0  0  0
    5.3364   -1.9825    0.0000 C   0  0  0  0  0  0  0  0  0  0  0  0
    7.0547   -2.5189    0.0000 C   0  0  0  0  0  0  0  0  0  0  0  0
    4.0274   -2.9336    0.0000 C   0  0  0  0  0  0  0  0  0  0  0  0
    8.3374   -1.3550    0.0000 C   0  0  0  0  0  0  0  0  0  0  0  0
   10.5974    0.0206    0.0000 C   0  0  0  0  0  0  0  0  0  0  0  0
    9.9867   -1.8839    0.0000 C   0  0  0  0  0  0  0  0  0  0  0  0
    6.3518   -1.7502    0.0000 C   0  0  0  0  0  0  0  0  0  0  0  0
    3.7183   -1.9825    0.0000 C   0  0  0  0  0  0  0  0  0  0  0  0
    6.7328   -3.5096    0.0000 C   0  0  0  0  0  0  0  0  0  0  0  0
    5.7123   -3.7183    0.0000 C   0  0  0  0  0  0  0  0  0  0  0  0
    8.9481    0.5495    0.0000 C   0  0  0  0  0  0  0  0  0  0  0  0
    3.3424   -3.7183    0.0000 C   0  0  0  0  0  0  0  0  0  0  0  0
   10.9028    0.9728    0.0000 C   0  0  0  0  0  0  0  0  0  0  0  0
    2.7029   -1.7502    0.0000 C   0  0  0  0  0  0  0  0  0  0  0  0
    2.3219   -3.5096    0.0000 C   0  0  0  0  0  0  0  0  0  0  0  0
    2.0000   -2.5189    0.0000 C   0  0  0  0  0  0  0  0  0  0  0  0
   12.1855    2.1368    0.0000 C   0  0  0  0  0  0  0  0  0  0  0  0
    7.0864   -5.2052    0.0000 C   0  0  0  0  0  0  0  0  0  0  0  0
   13.1628    2.3484    0.0000 C   0  0  0  0  0  0  0  0  0  0  0  0
   11.5135    2.8773    0.0000 C   0  0  0  0  0  0  0  0  0  0  0  0
   13.4682    3.3007    0.0000 C   0  0  0  0  0  0  0  0  0  0  0  0
   11.8188    3.8296    0.0000 C   0  0  0  0  0  0  0  0  0  0  0  0
   12.7962    4.0412    0.0000 C   0  0  0  0  0  0  0  0  0  0  0  0
   14.0789    5.2052    0.0000 C   0  0  0  0  0  0  0  0  0  0  0  0
    9.9207   -1.0121    0.0000 H   0  0  0  0  0  0  0  0  0  0  0  0
   10.6215   -0.5989    0.0000 H   0  0  0  0  0  0  0  0  0  0  0  0
   11.2117   -0.0633    0.0000 H   0  0  0  0  0  0  0  0  0  0  0  0
    9.5276   -2.3005    0.0000 H   0  0  0  0  0  0  0  0  0  0  0  0
   10.4034   -2.3430    0.0000 H   0  0  0  0  0  0  0  0  0  0  0  0
   10.4459   -1.4672    0.0000 H   0  0  0  0  0  0  0  0  0  0  0  0
    6.5365   -1.1584    0.0000 H   0  0  0  0  0  0  0  0  0  0  0  0
    8.4487   -2.7664    0.0000 H   0  0  0  0  0  0  0  0  0  0  0  0
    5.5139   -4.3057    0.0000 H   0  0  0  0  0  0  0  0  0  0  0  0
    9.4072    0.9661    0.0000 H   0  0  0  0  0  0  0  0  0  0  0  0
    8.5315    1.0086    0.0000 H   0  0  0  0  0  0  0  0  0  0  0  0
    8.4890    0.1328    0.0000 H   0  0  0  0  0  0  0  0  0  0  0  0
    3.5408   -4.3057    0.0000 H   0  0  0  0  0  0  0  0  0  0  0  0
    2.5182   -1.1584    0.0000 H   0  0  0  0  0  0  0  0  0  0  0  0
    1.9088   -3.9719    0.0000 H   0  0  0  0  0  0  0  0  0  0  0  0
    1.3940   -2.3877    0.0000 H   0  0  0  0  0  0  0  0  0  0  0  0
   12.2968    0.7254    0.0000 H   0  0  0  0  0  0  0  0  0  0  0  0
    6.4975   -5.0113    0.0000 H   0  0  0  0  0  0  0  0  0  0  0  0
    6.8926   -5.7941    0.0000 H   0  0  0  0  0  0  0  0  0  0  0  0
    7.6753   -5.3990    0.0000 H   0  0  0  0  0  0  0  0  0  0  0  0
   13.5794    1.8893    0.0000 H   0  0  0  0  0  0  0  0  0  0  0  0
   10.9075    2.7461    0.0000 H   0  0  0  0  0  0  0  0  0  0  0  0
   14.0741    3.4319    0.0000 H   0  0  0  0  0  0  0  0  0  0  0  0
   11.4022    4.2887    0.0000 H   0  0  0  0  0  0  0  0  0  0  0  0
   14.2101    4.5992    0.0000 H   0  0  0  0  0  0  0  0  0  0  0  0
   14.6848    5.3364    0.0000 H   0  0  0  0  0  0  0  0  0  0  0  0
   13.9476    5.8111    0.0000 H   0  0  0  0  0  0  0  0  0  0  0  0
  1 11  1  0  0  0  0
  1 18  1  0  0  0  0
  2 19  1  0  0  0  0
  2 28  1  0  0  0  0
  3 14  2  0  0  0  0
  4 23  2  0  0  0  0
  5 33  1  0  0  0  0
  5 34  1  0  0  0  0
  6  9  1  0  0  0  0
  6 15  1  0  0  0  0
  6 21  1  0  0  0  0
  7 12  1  0  0  0  0
  7 14  1  0  0  0  0
  7 42  1  0  0  0  0
  8 23  1  0  0  0  0
  8 27  1  0  0  0  0
  8 51  1  0  0  0  0
  9 14  1  0  0  0  0
  9 16  1  0  0  0  0
  9 35  1  0  0  0  0
 10 11  1  0  0  0  0
 10 13  1  0  0  0  0
 10 20  2  0  0  0  0
 11 17  2  0  0  0  0
 12 17  1  0  0  0  0
 12 19  2  0  0  0  0
 13 18  1  0  0  0  0
 13 22  2  0  0  0  0
 15 23  1  0  0  0  0
 15 36  1  0  0  0  0
 15 37  1  0  0  0  0
 16 38  1  0  0  0  0
 16 39  1  0  0  0  0
 16 40  1  0  0  0  0
 17 41  1  0  0  0  0
 18 24  2  0  0  0  0
 19 20  1  0  0  0  0
 20 43  1  0  0  0  0
 21 44  1  0  0  0  0
 21 45  1  0  0  0  0
 21 46  1  0  0  0  0
 22 25  1  0  0  0  0
 22 47  1  0  0  0  0
 24 26  1  0  0  0  0
 24 48  1  0  0  0  0
 25 26  2  0  0  0  0
 25 49  1  0  0  0  0
 26 50  1  0  0  0  0
 27 29  2  0  0  0  0
 27 30  1  0  0  0  0
 28 52  1  0  0  0  0
 28 53  1  0  0  0  0
 28 54  1  0  0  0  0
 29 31  1  0  0  0  0
 29 55  1  0  0  0  0
 30 32  2  0  0  0  0
 30 56  1  0  0  0  0
 31 33  2  0  0  0  0
 31 57  1  0  0  0  0
 32 33  1  0  0  0  0
 32 58  1  0  0  0  0
 34 59  1  0  0  0  0
 34 60  1  0  0  0  0
 34 61  1  0  0  0  0
M  END
> <PUBCHEM_COMPOUND_CID>
17395300

> <PUBCHEM_COMPOUND_CANONICALIZED>
1

> <PUBCHEM_CACTVS_COMPLEXITY>
698

> <PUBCHEM_CACTVS_HBOND_ACCEPTOR>
6

> <PUBCHEM_CACTVS_HBOND_DONOR>
2

> <PUBCHEM_CACTVS_ROTATABLE_BOND>
8

> <PUBCHEM_CACTVS_SUBSKEYS>
AAADceB7OAAAAAAAAAAAAAAAAAAAASAAAAAwYMAAAAAAAEgB/AAAHgAQAAAADCzBmAYyxsPABECIAqVSUACCCAAlIgAIiAGPbMgOZjrEtbuXOajm1BnY6cf6/f/eiUABAgAIEAASgAIEABAgAAAAAAAAAA==

> <PUBCHEM_IUPAC_OPENEYE_NAME>
2-[[2-(4-methoxyanilino)-2-oxo-ethyl]-methyl-amino]-N-(2-methoxydibenzofuran-3-yl)propanamide

> <PUBCHEM_IUPAC_CAS_NAME>
2-[[2-(4-methoxyanilino)-2-oxoethyl]-methylamino]-N-(2-methoxy-3-dibenzofuranyl)propanamide

> <PUBCHEM_IUPAC_NAME>
2-[[2-(4-methoxyanilino)-2-oxoethyl]-methylamino]-N-(2-methoxydibenzofuran-3-yl)propanamide

> <PUBCHEM_IUPAC_SYSTEMATIC_NAME>
N-(2-methoxydibenzofuran-3-yl)-2-[[2-[(4-methoxyphenyl)amino]-2-oxidanylidene-ethyl]-methyl-amino]propanamide

> <PUBCHEM_IUPAC_TRADITIONAL_NAME>
2-[[2-keto-2-(p-anisidino)ethyl]-methyl-amino]-N-(2-methoxydibenzofuran-3-yl)propionamide

> <PUBCHEM_IUPAC_INCHI>
InChI=1S/C26H27N3O5/c1-16(29(2)15-25(30)27-17-9-11-18(32-3)12-10-17)26(31)28-21-14-23-20(13-24(21)33-4)19-7-5-6-8-22(19)34-23/h5-14,16H,15H2,1-4H3,(H,27,30)(H,28,31)

> <PUBCHEM_IUPAC_INCHIKEY>
LSXIFHMVLCFVJY-UHFFFAOYSA-N

> <PUBCHEM_XLOGP3_AA>
4.2

> <PUBCHEM_EXACT_MASS>
461.195071

> <PUBCHEM_MOLECULAR_FORMULA>
C26H27N3O5

> <PUBCHEM_MOLECULAR_WEIGHT>
461.50968

> <PUBCHEM_OPENEYE_CAN_SMILES>
CC(C(=O)NC1=C(C=C2C3=CC=CC=C3OC2=C1)OC)N(C)CC(=O)NC4=CC=C(C=C4)OC

> <PUBCHEM_OPENEYE_ISO_SMILES>
CC(C(=O)NC1=C(C=C2C3=CC=CC=C3OC2=C1)OC)N(C)CC(=O)NC4=CC=C(C=C4)OC

> <PUBCHEM_CACTVS_TPSA>
93

> <PUBCHEM_MONOISOTOPIC_WEIGHT>
461.195071

> <PUBCHEM_TOTAL_CHARGE>
0

> <PUBCHEM_HEAVY_ATOM_COUNT>
34

> <PUBCHEM_ATOM_DEF_STEREO_COUNT>
0

> <PUBCHEM_ATOM_UDEF_STEREO_COUNT>
1

> <PUBCHEM_BOND_DEF_STEREO_COUNT>
0

> <PUBCHEM_BOND_UDEF_STEREO_COUNT>
0

> <PUBCHEM_ISOTOPIC_ATOM_COUNT>
0

> <PUBCHEM_COMPONENT_COUNT>
1

> <PUBCHEM_CACTVS_TAUTO_COUNT>
9

> <PUBCHEM_COORDINATE_TYPE>
1
5
255

> <PUBCHEM_BONDANNOTATIONS>
1  11  8
1  18  8
10  11  8
10  13  8
10  20  8
11  17  8
12  17  8
12  19  8
13  18  8
13  22  8
18  24  8
19  20  8
22  25  8
24  26  8
25  26  8
27  29  8
27  30  8
29  31  8
30  32  8
31  33  8
32  33  8
9  16  3

$$$$

