5281669
  -OEChem-07051212582D

 60 63  0     1  0  0  0  0  0999 V2000
   11.2690    0.6621    0.0000 O   0  0  0  0  0  0  0  0  0  0  0  0
   10.3972    2.1587    0.0000 O   0  0  0  0  0  0  0  0  0  0  0  0
   13.8690    0.1721    0.0000 O   0  0  0  0  0  0  0  0  0  0  0  0
   13.8613    2.1721    0.0000 O   0  0  0  0  0  0  0  0  0  0  0  0
   12.1254    3.1654    0.0000 O   0  0  0  0  0  0  0  0  0  0  0  0
   13.0087   -1.3313    0.0000 O   0  0  0  0  0  0  0  0  0  0  0  0
    6.8671    2.1346    0.0000 O   0  0  0  0  0  0  0  0  0  0  0  0
    8.6155   -0.9000    0.0000 O   0  0  0  0  0  0  0  0  0  0  0  0
   12.1485   -2.8346    0.0000 O   0  0  0  0  0  0  0  0  0  0  0  0
    6.8671   -0.8654    0.0000 O   0  0  0  0  0  0  0  0  0  0  0  0
   14.7523   -4.3246    0.0000 O   0  0  0  0  0  0  0  0  0  0  0  0
   13.0203   -4.3312    0.0000 O   0  0  0  0  0  0  0  0  0  0  0  0
    4.2690    4.6346    0.0000 O   0  0  0  0  0  0  0  0  0  0  0  0
    2.5369    3.6346    0.0000 O   0  0  0  0  0  0  0  0  0  0  0  0
   13.0010    0.6687    0.0000 C   0  0  1  0  0  0  0  0  0  0  0  0
   12.9972    1.6687    0.0000 C   0  0  1  0  0  0  0  0  0  0  0  0
   12.1369    0.1654    0.0000 C   0  0  1  0  0  0  0  0  0  0  0  0
   12.1292    2.1654    0.0000 C   0  0  2  0  0  0  0  0  0  0  0  0
   11.2651    1.6620    0.0000 C   0  0  1  0  0  0  0  0  0  0  0  0
   12.1408   -0.8346    0.0000 C   0  0  0  0  0  0  0  0  0  0  0  0
    9.5331    1.6554    0.0000 C   0  0  0  0  0  0  0  0  0  0  0  0
    8.6270    2.1692    0.0000 C   0  0  0  0  0  0  0  0  0  0  0  0
    9.5331    0.6137    0.0000 C   0  0  0  0  0  0  0  0  0  0  0  0
   13.0126   -2.3312    0.0000 C   0  0  0  0  0  0  0  0  0  0  0  0
    7.7331    1.6346    0.0000 C   0  0  0  0  0  0  0  0  0  0  0  0
    7.7331    0.6346    0.0000 C   0  0  0  0  0  0  0  0  0  0  0  0
    8.6270    0.0999    0.0000 C   0  0  0  0  0  0  0  0  0  0  0  0
   13.8805   -2.8279    0.0000 C   0  0  0  0  0  0  0  0  0  0  0  0
    6.8671    0.1346    0.0000 C   0  0  0  0  0  0  0  0  0  0  0  0
    6.0010    1.6346    0.0000 C   0  0  0  0  0  0  0  0  0  0  0  0
    6.0010    0.6346    0.0000 C   0  0  0  0  0  0  0  0  0  0  0  0
    5.1350    2.1346    0.0000 C   0  0  0  0  0  0  0  0  0  0  0  0
   13.8844   -3.8279    0.0000 C   0  0  0  0  0  0  0  0  0  0  0  0
    5.1350    3.1346    0.0000 C   0  0  0  0  0  0  0  0  0  0  0  0
    4.2690    1.6346    0.0000 C   0  0  0  0  0  0  0  0  0  0  0  0
    4.2690    3.6346    0.0000 C   0  0  0  0  0  0  0  0  0  0  0  0
    3.4030    2.1346    0.0000 C   0  0  0  0  0  0  0  0  0  0  0  0
    3.4030    3.1346    0.0000 C   0  0  0  0  0  0  0  0  0  0  0  0
   13.0034    0.0487    0.0000 H   0  0  0  0  0  0  0  0  0  0  0  0
   13.5353    1.3608    0.0000 H   0  0  0  0  0  0  0  0  0  0  0  0
   11.6012   -0.1467    0.0000 H   0  0  0  0  0  0  0  0  0  0  0  0
   12.6650    2.4774    0.0000 H   0  0  0  0  0  0  0  0  0  0  0  0
   10.7294    1.3500    0.0000 H   0  0  0  0  0  0  0  0  0  0  0  0
   11.5298   -0.7293    0.0000 H   0  0  0  0  0  0  0  0  0  0  0  0
   11.9310   -1.4180    0.0000 H   0  0  0  0  0  0  0  0  0  0  0  0
   14.4047    0.4841    0.0000 H   0  0  0  0  0  0  0  0  0  0  0  0
   14.3994    1.8641    0.0000 H   0  0  0  0  0  0  0  0  0  0  0  0
   12.6611    3.4774    0.0000 H   0  0  0  0  0  0  0  0  0  0  0  0
    8.6199    2.7892    0.0000 H   0  0  0  0  0  0  0  0  0  0  0  0
   10.0688    0.3017    0.0000 H   0  0  0  0  0  0  0  0  0  0  0  0
   14.4915   -2.9332    0.0000 H   0  0  0  0  0  0  0  0  0  0  0  0
   14.0903   -2.2445    0.0000 H   0  0  0  0  0  0  0  0  0  0  0  0
    5.4641    0.3246    0.0000 H   0  0  0  0  0  0  0  0  0  0  0  0
    9.1488   -1.2162    0.0000 H   0  0  0  0  0  0  0  0  0  0  0  0
    5.6720    3.4446    0.0000 H   0  0  0  0  0  0  0  0  0  0  0  0
    4.2690    1.0146    0.0000 H   0  0  0  0  0  0  0  0  0  0  0  0
    2.8660    1.8246    0.0000 H   0  0  0  0  0  0  0  0  0  0  0  0
   14.7547   -4.9445    0.0000 H   0  0  0  0  0  0  0  0  0  0  0  0
    3.7320    4.9445    0.0000 H   0  0  0  0  0  0  0  0  0  0  0  0
    2.0000    3.3246    0.0000 H   0  0  0  0  0  0  0  0  0  0  0  0
  1 17  1  0  0  0  0
  1 19  1  0  0  0  0
 19  2  1  1  0  0  0
  2 21  1  0  0  0  0
 15  3  1  6  0  0  0
  3 46  1  0  0  0  0
 16  4  1  1  0  0  0
  4 47  1  0  0  0  0
 18  5  1  6  0  0  0
  5 48  1  0  0  0  0
  6 20  1  0  0  0  0
  6 24  1  0  0  0  0
  7 25  1  0  0  0  0
  7 30  1  0  0  0  0
  8 27  1  0  0  0  0
  8 54  1  0  0  0  0
  9 24  2  0  0  0  0
 10 29  2  0  0  0  0
 11 33  1  0  0  0  0
 11 58  1  0  0  0  0
 12 33  2  0  0  0  0
 13 36  1  0  0  0  0
 13 59  1  0  0  0  0
 14 38  1  0  0  0  0
 14 60  1  0  0  0  0
 15 16  1  0  0  0  0
 15 17  1  0  0  0  0
 15 39  1  0  0  0  0
 16 18  1  0  0  0  0
 16 40  1  0  0  0  0
 17 20  1  1  0  0  0
 17 41  1  0  0  0  0
 18 19  1  0  0  0  0
 18 42  1  0  0  0  0
 19 43  1  0  0  0  0
 20 44  1  0  0  0  0
 20 45  1  0  0  0  0
 21 22  1  0  0  0  0
 21 23  2  0  0  0  0
 22 25  2  0  0  0  0
 22 49  1  0  0  0  0
 23 27  1  0  0  0  0
 23 50  1  0  0  0  0
 24 28  1  0  0  0  0
 25 26  1  0  0  0  0
 26 27  2  0  0  0  0
 26 29  1  0  0  0  0
 28 33  1  0  0  0  0
 28 51  1  0  0  0  0
 28 52  1  0  0  0  0
 29 31  1  0  0  0  0
 30 31  2  0  0  0  0
 30 32  1  0  0  0  0
 31 53  1  0  0  0  0
 32 34  2  0  0  0  0
 32 35  1  0  0  0  0
 34 36  1  0  0  0  0
 34 55  1  0  0  0  0
 35 37  2  0  0  0  0
 35 56  1  0  0  0  0
 36 38  2  0  0  0  0
 37 38  1  0  0  0  0
 37 57  1  0  0  0  0
M  END
> <PUBCHEM_COMPOUND_CID>
5281669

> <PUBCHEM_COMPOUND_CANONICALIZED>
1

> <PUBCHEM_CACTVS_COMPLEXITY>
922

> <PUBCHEM_CACTVS_HBOND_ACCEPTOR>
14

> <PUBCHEM_CACTVS_HBOND_DONOR>
7

> <PUBCHEM_CACTVS_ROTATABLE_BOND>
8

> <PUBCHEM_CACTVS_SUBSKEYS>
AAADceB4PAAAAAAAAAAAAAAAAAAAAAAAAAA0YIEAAAAAAACBQAAAGgAACAAADBSwmAMwDoAABgCIAqDSCAACCAAkIAAIiAEGiMgdNzaONRqieWGl4BUPuQfI7LzOIAABCAAIQABAAAIQABCAAAAAAAAAAA==

> <PUBCHEM_IUPAC_OPENEYE_NAME>
3-[[(2R,3S,4S,5R,6S)-6-[2-(3,4-dihydroxyphenyl)-5-hydroxy-4-oxo-chromen-7-yl]oxy-3,4,5-trihydroxy-tetrahydropyran-2-yl]methoxy]-3-oxo-propanoic acid

> <PUBCHEM_IUPAC_CAS_NAME>
3-[[(2R,3S,4S,5R,6S)-6-[[2-(3,4-dihydroxyphenyl)-5-hydroxy-4-oxo-1-benzopyran-7-yl]oxy]-3,4,5-trihydroxy-2-oxanyl]methoxy]-3-oxopropanoic acid

> <PUBCHEM_IUPAC_NAME>
3-[[(2R,3S,4S,5R,6S)-6-[2-(3,4-dihydroxyphenyl)-5-hydroxy-4-oxochromen-7-yl]oxy-3,4,5-trihydroxyoxan-2-yl]methoxy]-3-oxopropanoic acid

> <PUBCHEM_IUPAC_SYSTEMATIC_NAME>
3-[[(2R,3S,4S,5R,6S)-6-[2-[3,4-bis(oxidanyl)phenyl]-5-oxidanyl-4-oxidanylidene-chromen-7-yl]oxy-3,4,5-tris(oxidanyl)oxan-2-yl]methoxy]-3-oxidanylidene-propanoic acid

> <PUBCHEM_IUPAC_TRADITIONAL_NAME>
3-[[(2R,3S,4S,5R,6S)-6-[2-(3,4-dihydroxyphenyl)-5-hydroxy-4-keto-chromen-7-yl]oxy-3,4,5-trihydroxy-tetrahydropyran-2-yl]methoxy]-3-keto-propionic acid

> <PUBCHEM_IUPAC_INCHI>
InChI=1S/C24H22O14/c25-11-2-1-9(3-12(11)26)15-6-14(28)20-13(27)4-10(5-16(20)37-15)36-24-23(34)22(33)21(32)17(38-24)8-35-19(31)7-18(29)30/h1-6,17,21-27,32-34H,7-8H2,(H,29,30)/t17-,21-,22+,23-,24-/m1/s1

> <PUBCHEM_IUPAC_INCHIKEY>
RNDGJCZQVKFBPI-ASDZUOGYSA-N

> <PUBCHEM_XLOGP3_AA>
0.2

> <PUBCHEM_EXACT_MASS>
534.100955

> <PUBCHEM_MOLECULAR_FORMULA>
C24H22O14

> <PUBCHEM_MOLECULAR_WEIGHT>
534.42308

> <PUBCHEM_OPENEYE_CAN_SMILES>
C1=CC(=C(C=C1C2=CC(=O)C3=C(C=C(C=C3O2)OC4C(C(C(C(O4)COC(=O)CC(=O)O)O)O)O)O)O)O

> <PUBCHEM_OPENEYE_ISO_SMILES>
C1=CC(=C(C=C1C2=CC(=O)C3=C(C=C(C=C3O2)O[C@H]4[C@@H]([C@H]([C@@H]([C@H](O4)COC(=O)CC(=O)O)O)O)O)O)O)O

> <PUBCHEM_CACTVS_TPSA>
230

> <PUBCHEM_MONOISOTOPIC_WEIGHT>
534.100955

> <PUBCHEM_TOTAL_CHARGE>
0

> <PUBCHEM_HEAVY_ATOM_COUNT>
38

> <PUBCHEM_ATOM_DEF_STEREO_COUNT>
5

> <PUBCHEM_ATOM_UDEF_STEREO_COUNT>
0

> <PUBCHEM_BOND_DEF_STEREO_COUNT>
0

> <PUBCHEM_BOND_UDEF_STEREO_COUNT>
0

> <PUBCHEM_ISOTOPIC_ATOM_COUNT>
0

> <PUBCHEM_COMPONENT_COUNT>
1

> <PUBCHEM_CACTVS_TAUTO_COUNT>
68

> <PUBCHEM_COORDINATE_TYPE>
1
5
255

> <PUBCHEM_BONDANNOTATIONS>
17  20  5
19  2  5
21  22  8
21  23  8
22  25  8
23  27  8
25  26  8
26  27  8
26  29  8
29  31  8
15  3  6
30  31  8
32  34  8
32  35  8
34  36  8
35  37  8
36  38  8
37  38  8
16  4  5
18  5  6
7  25  8
7  30  8

$$$$

