439394
  -OEChem-07051212452D

 29 29  0     1  0  0  0  0  0999 V2000
    6.3909    1.8094    0.0000 P   0  0  0  0  0  0  0  0  0  0  0  0
    5.0298   -0.2919    0.0000 O   0  0  0  0  0  0  0  0  0  0  0  0
    3.6330    1.1049    0.0000 O   0  0  0  0  0  0  0  0  0  0  0  0
    2.4608    0.0171    0.0000 O   0  0  0  0  0  0  0  0  0  0  0  0
    3.1330   -2.0520    0.0000 O   0  0  0  0  0  0  0  0  0  0  0  0
    5.8031    1.0004    0.0000 O   0  0  0  0  0  0  0  0  0  0  0  0
    6.3031   -1.9475    0.0000 O   0  0  0  0  0  0  0  0  0  0  0  0
    6.9787    2.6184    0.0000 O   0  0  0  0  0  0  0  0  0  0  0  0
    7.1999    1.2216    0.0000 O   0  0  0  0  0  0  0  0  0  0  0  0
    5.5819    2.3972    0.0000 O   0  0  0  0  0  0  0  0  0  0  0  0
    4.2208    0.2959    0.0000 C   0  0  3  0  0  0  0  0  0  0  0  0
    3.4118   -0.2919    0.0000 C   0  0  2  0  0  0  0  0  0  0  0  0
    3.7208   -1.2430    0.0000 C   0  0  1  0  0  0  0  0  0  0  0  0
    4.7208   -1.2430    0.0000 C   0  0  1  0  0  0  0  0  0  0  0  0
    4.8086    1.1049    0.0000 C   0  0  0  0  0  0  0  0  0  0  0  0
    5.3086   -2.0520    0.0000 C   0  0  0  0  0  0  0  0  0  0  0  0
    2.9734   -0.7303    0.0000 H   0  0  0  0  0  0  0  0  0  0  0  0
    4.0023   -1.7954    0.0000 H   0  0  0  0  0  0  0  0  0  0  0  0
    5.3332   -1.1460    0.0000 H   0  0  0  0  0  0  0  0  0  0  0  0
    4.9795    1.7009    0.0000 H   0  0  0  0  0  0  0  0  0  0  0  0
    4.2514    1.3767    0.0000 H   0  0  0  0  0  0  0  0  0  0  0  0
    4.7514   -2.3238    0.0000 H   0  0  0  0  0  0  0  0  0  0  0  0
    5.4795   -2.6480    0.0000 H   0  0  0  0  0  0  0  0  0  0  0  0
    3.8852    1.6713    0.0000 H   0  0  0  0  0  0  0  0  0  0  0  0
    2.0000   -0.3978    0.0000 H   0  0  0  0  0  0  0  0  0  0  0  0
    3.3852   -2.6184    0.0000 H   0  0  0  0  0  0  0  0  0  0  0  0
    6.6676   -2.4490    0.0000 H   0  0  0  0  0  0  0  0  0  0  0  0
    7.5953    2.5536    0.0000 H   0  0  0  0  0  0  0  0  0  0  0  0
    7.7663    1.4738    0.0000 H   0  0  0  0  0  0  0  0  0  0  0  0
  1  6  1  0  0  0  0
  1  8  1  0  0  0  0
  1  9  1  0  0  0  0
  1 10  2  0  0  0  0
  2 11  1  0  0  0  0
  2 14  1  0  0  0  0
  3 11  1  0  0  0  0
  3 24  1  0  0  0  0
 12  4  1  6  0  0  0
  4 25  1  0  0  0  0
 13  5  1  1  0  0  0
  5 26  1  0  0  0  0
  6 15  1  0  0  0  0
  7 16  1  0  0  0  0
  7 27  1  0  0  0  0
  8 28  1  0  0  0  0
  9 29  1  0  0  0  0
 11 12  1  0  0  0  0
 11 15  1  0  0  0  0
 12 13  1  0  0  0  0
 12 17  1  0  0  0  0
 13 14  1  0  0  0  0
 13 18  1  0  0  0  0
 14 16  1  6  0  0  0
 14 19  1  0  0  0  0
 15 20  1  0  0  0  0
 15 21  1  0  0  0  0
 16 22  1  0  0  0  0
 16 23  1  0  0  0  0
M  END
> <PUBCHEM_COMPOUND_CID>
439394

> <PUBCHEM_COMPOUND_CANONICALIZED>
1

> <PUBCHEM_CACTVS_COMPLEXITY>
290

> <PUBCHEM_CACTVS_HBOND_ACCEPTOR>
9

> <PUBCHEM_CACTVS_HBOND_DONOR>
6

> <PUBCHEM_CACTVS_ROTATABLE_BOND>
4

> <PUBCHEM_CACTVS_SUBSKEYS>
AAADccBgPAIAAAAAAAAAAAAAAAAAASAAAAAAAAAAAAAAAAAAAAAAGgAACCAACBSggAIACAAABxAAQAAAAIAAAAAAAAAAAAAAAAAREAIAAAACQAAFAAAHAAHAYAQAAAAAAAAAAAAAAAAAAAAAAAAAAAAAAA==

> <PUBCHEM_IUPAC_OPENEYE_NAME>
[(3S,4S,5R)-2,3,4-trihydroxy-5-(hydroxymethyl)tetrahydrofuran-2-yl]methyl dihydrogen phosphate

> <PUBCHEM_IUPAC_CAS_NAME>
[(3S,4S,5R)-2,3,4-trihydroxy-5-(hydroxymethyl)-2-oxolanyl]methyl dihydrogen phosphate

> <PUBCHEM_IUPAC_NAME>
[(3S,4S,5R)-2,3,4-trihydroxy-5-(hydroxymethyl)oxolan-2-yl]methyl dihydrogen phosphate

> <PUBCHEM_IUPAC_SYSTEMATIC_NAME>
[(3S,4S,5R)-5-(hydroxymethyl)-2,3,4-tris(oxidanyl)oxolan-2-yl]methyl dihydrogen phosphate

> <PUBCHEM_IUPAC_TRADITIONAL_NAME>
[(3S,4S,5R)-2,3,4-trihydroxy-5-methylol-tetrahydrofuran-2-yl]methyl dihydrogen phosphate

> <PUBCHEM_IUPAC_INCHI>
InChI=1S/C6H13O9P/c7-1-3-4(8)5(9)6(10,15-3)2-14-16(11,12)13/h3-5,7-10H,1-2H2,(H2,11,12,13)/t3-,4-,5+,6?/m1/s1

> <PUBCHEM_IUPAC_INCHIKEY>
RHKKZBWRNHGJEZ-VRPWFDPXSA-N

> <PUBCHEM_XLOGP3_AA>
-3.9

> <PUBCHEM_EXACT_MASS>
260.029719

> <PUBCHEM_MOLECULAR_FORMULA>
C6H13O9P

> <PUBCHEM_MOLECULAR_WEIGHT>
260.135782

> <PUBCHEM_OPENEYE_CAN_SMILES>
C(C1C(C(C(O1)(COP(=O)(O)O)O)O)O)O

> <PUBCHEM_OPENEYE_ISO_SMILES>
C([C@@H]1[C@H]([C@@H](C(O1)(COP(=O)(O)O)O)O)O)O

> <PUBCHEM_CACTVS_TPSA>
157

> <PUBCHEM_MONOISOTOPIC_WEIGHT>
260.029719

> <PUBCHEM_TOTAL_CHARGE>
0

> <PUBCHEM_HEAVY_ATOM_COUNT>
16

> <PUBCHEM_ATOM_DEF_STEREO_COUNT>
3

> <PUBCHEM_ATOM_UDEF_STEREO_COUNT>
1

> <PUBCHEM_BOND_DEF_STEREO_COUNT>
0

> <PUBCHEM_BOND_UDEF_STEREO_COUNT>
0

> <PUBCHEM_ISOTOPIC_ATOM_COUNT>
0

> <PUBCHEM_COMPONENT_COUNT>
1

> <PUBCHEM_CACTVS_TAUTO_COUNT>
1

> <PUBCHEM_COORDINATE_TYPE>
1
5
255

> <PUBCHEM_BONDANNOTATIONS>
11  15  3
14  16  6
12  4  6
13  5  5

$$$$

