93306
  -OEChem-07051212582D

 39 41  0     1  0  0  0  0  0999 V2000
    6.9345   -1.0355    0.0000 O   0  0  0  0  0  0  0  0  0  0  0  0
    2.5381   -0.5592    0.0000 O   0  0  0  0  0  0  0  0  0  0  0  0
    7.2763    1.9046    0.0000 O   0  0  0  0  0  0  0  0  0  0  0  0
    9.2459   -1.3220    0.0000 O   0  0  0  0  0  0  0  0  0  0  0  0
    5.2022   -0.0350    0.0000 C   0  0  2  0  0  0  0  0  0  0  0  0
    6.0682   -0.5350    0.0000 C   0  0  2  0  0  0  0  0  0  0  0  0
    6.9343   -0.0350    0.0000 C   0  0  2  0  0  0  0  0  0  0  0  0
    4.3083   -0.5697    0.0000 C   0  0  2  0  0  0  0  0  0  0  0  0
    5.2022    0.9650    0.0000 C   0  0  0  0  0  0  0  0  0  0  0  0
    3.4022   -0.0559    0.0000 C   0  0  1  0  0  0  0  0  0  0  0  0
    5.2022   -1.0350    0.0000 C   0  0  0  0  0  0  0  0  0  0  0  0
    6.9343    0.9650    0.0000 C   0  0  0  0  0  0  0  0  0  0  0  0
    4.3083    1.4996    0.0000 C   0  0  0  0  0  0  0  0  0  0  0  0
    3.4022    0.9858    0.0000 C   0  0  0  0  0  0  0  0  0  0  0  0
    6.0682    1.4650    0.0000 C   0  0  0  0  0  0  0  0  0  0  0  0
    7.9191   -0.2087    0.0000 C   0  0  0  0  0  0  0  0  0  0  0  0
    4.3198   -1.5696    0.0000 C   0  0  0  0  0  0  0  0  0  0  0  0
    8.2611   -1.1484    0.0000 C   0  0  0  0  0  0  0  0  0  0  0  0
    8.5619    0.5573    0.0000 C   0  0  0  0  0  0  0  0  0  0  0  0
    5.6432   -1.2711    0.0000 H   0  0  0  0  0  0  0  0  0  0  0  0
    3.7744   -0.8849    0.0000 H   0  0  0  0  0  0  0  0  0  0  0  0
    2.8647    0.2531    0.0000 H   0  0  0  0  0  0  0  0  0  0  0  0
    4.5822   -1.0350    0.0000 H   0  0  0  0  0  0  0  0  0  0  0  0
    5.2022   -1.6550    0.0000 H   0  0  0  0  0  0  0  0  0  0  0  0
    5.8222   -1.0350    0.0000 H   0  0  0  0  0  0  0  0  0  0  0  0
    4.7129    1.9694    0.0000 H   0  0  0  0  0  0  0  0  0  0  0  0
    3.9147    1.9786    0.0000 H   0  0  0  0  0  0  0  0  0  0  0  0
    3.1932    1.5695    0.0000 H   0  0  0  0  0  0  0  0  0  0  0  0
    2.7914    0.8797    0.0000 H   0  0  0  0  0  0  0  0  0  0  0  0
    6.0682    2.0850    0.0000 H   0  0  0  0  0  0  0  0  0  0  0  0
    3.6999   -1.5768    0.0000 H   0  0  0  0  0  0  0  0  0  0  0  0
    4.3270   -2.1896    0.0000 H   0  0  0  0  0  0  0  0  0  0  0  0
    4.9398   -1.5625    0.0000 H   0  0  0  0  0  0  0  0  0  0  0  0
    7.6505   -1.2561    0.0000 H   0  0  0  0  0  0  0  0  0  0  0  0
    8.2611   -1.7684    0.0000 H   0  0  0  0  0  0  0  0  0  0  0  0
    2.0000   -0.2513    0.0000 H   0  0  0  0  0  0  0  0  0  0  0  0
    9.1724    0.4497    0.0000 H   0  0  0  0  0  0  0  0  0  0  0  0
    8.3498    1.1400    0.0000 H   0  0  0  0  0  0  0  0  0  0  0  0
    9.4580   -1.9046    0.0000 H   0  0  0  0  0  0  0  0  0  0  0  0
  1  6  1  0  0  0  0
  1  7  1  0  0  0  0
 10  2  1  6  0  0  0
  2 36  1  0  0  0  0
  3 12  2  0  0  0  0
  4 18  1  0  0  0  0
  4 39  1  0  0  0  0
  5  6  1  0  0  0  0
  5  8  1  0  0  0  0
  5  9  1  0  0  0  0
  5 11  1  1  0  0  0
  6  7  1  0  0  0  0
  6 20  1  1  0  0  0
  7 12  1  0  0  0  0
  7 16  1  1  0  0  0
  8 10  1  0  0  0  0
  8 17  1  1  0  0  0
  8 21  1  0  0  0  0
  9 13  1  0  0  0  0
  9 15  2  0  0  0  0
 10 14  1  0  0  0  0
 10 22  1  0  0  0  0
 11 23  1  0  0  0  0
 11 24  1  0  0  0  0
 11 25  1  0  0  0  0
 12 15  1  0  0  0  0
 13 14  1  0  0  0  0
 13 26  1  0  0  0  0
 13 27  1  0  0  0  0
 14 28  1  0  0  0  0
 14 29  1  0  0  0  0
 15 30  1  0  0  0  0
 16 18  1  0  0  0  0
 16 19  2  0  0  0  0
 17 31  1  0  0  0  0
 17 32  1  0  0  0  0
 17 33  1  0  0  0  0
 18 34  1  0  0  0  0
 18 35  1  0  0  0  0
 19 37  1  0  0  0  0
 19 38  1  0  0  0  0
M  END
> <PUBCHEM_COMPOUND_CID>
93306

> <PUBCHEM_COMPOUND_CANONICALIZED>
1

> <PUBCHEM_CACTVS_COMPLEXITY>
494

> <PUBCHEM_CACTVS_HBOND_ACCEPTOR>
4

> <PUBCHEM_CACTVS_HBOND_DONOR>
2

> <PUBCHEM_CACTVS_ROTATABLE_BOND>
2

> <PUBCHEM_CACTVS_SUBSKEYS>
AAADceBwOAAAAAAAAAAAAAAAEgAAAAAAAAAwQAAABAAAAACAAAAAGgAACAAAD1SggAICAAAABgCIAqBSAAIAAAAgAAAACAFAAEgAFBYAIQQCQAAF4AAIMQPK6PSPgAAAAAAAAAAAAAIAADAAAAAAAAAAAA==

> <PUBCHEM_IUPAC_OPENEYE_NAME>
(1aR,6R,7R,7aR,7bR)-6-hydroxy-1a-[1-(hydroxymethyl)vinyl]-7,7a-dimethyl-5,6,7,7b-tetrahydro-4H-naphtho[1,2-b]oxiren-2-one

> <PUBCHEM_IUPAC_CAS_NAME>
(1aR,6R,7R,7aR,7bR)-6-hydroxy-1a-(3-hydroxyprop-1-en-2-yl)-7,7a-dimethyl-5,6,7,7b-tetrahydro-4H-naphtho[1,2-b]oxiren-2-one

> <PUBCHEM_IUPAC_NAME>
(1aR,6R,7R,7aR,7bR)-6-hydroxy-1a-(3-hydroxyprop-1-en-2-yl)-7,7a-dimethyl-5,6,7,7b-tetrahydro-4H-naphtho[1,2-b]oxiren-2-one

> <PUBCHEM_IUPAC_SYSTEMATIC_NAME>
(1aR,6R,7R,7aR,7bR)-7,7a-dimethyl-6-oxidanyl-1a-(3-oxidanylprop-1-en-2-yl)-5,6,7,7b-tetrahydro-4H-naphtho[1,2-b]oxiren-2-one

> <PUBCHEM_IUPAC_TRADITIONAL_NAME>
(1aR,6R,7R,7aR,7bR)-6-hydroxy-7,7a-dimethyl-1a-(1-methylolvinyl)-5,6,7,7b-tetrahydro-4H-naphtho[1,2-b]oxiren-2-one

> <PUBCHEM_IUPAC_INCHI>
InChI=1S/C15H20O4/c1-8(7-16)15-12(18)6-10-4-5-11(17)9(2)14(10,3)13(15)19-15/h6,9,11,13,16-17H,1,4-5,7H2,2-3H3/t9-,11+,13+,14+,15-/m0/s1

> <PUBCHEM_IUPAC_INCHIKEY>
WKZMDQXEUJZALS-OANMRLRGSA-N

> <PUBCHEM_XLOGP3_AA>
0.8

> <PUBCHEM_EXACT_MASS>
264.136159

> <PUBCHEM_MOLECULAR_FORMULA>
C15H20O4

> <PUBCHEM_MOLECULAR_WEIGHT>
264.3169

> <PUBCHEM_OPENEYE_CAN_SMILES>
CC1C(CCC2=CC(=O)C3(C(C12C)O3)C(=C)CO)O

> <PUBCHEM_OPENEYE_ISO_SMILES>
C[C@H]1[C@@H](CCC2=CC(=O)[C@]3([C@@H]([C@]12C)O3)C(=C)CO)O

> <PUBCHEM_CACTVS_TPSA>
70.1

> <PUBCHEM_MONOISOTOPIC_WEIGHT>
264.136159

> <PUBCHEM_TOTAL_CHARGE>
0

> <PUBCHEM_HEAVY_ATOM_COUNT>
19

> <PUBCHEM_ATOM_DEF_STEREO_COUNT>
5

> <PUBCHEM_ATOM_UDEF_STEREO_COUNT>
0

> <PUBCHEM_BOND_DEF_STEREO_COUNT>
0

> <PUBCHEM_BOND_UDEF_STEREO_COUNT>
0

> <PUBCHEM_ISOTOPIC_ATOM_COUNT>
0

> <PUBCHEM_COMPONENT_COUNT>
1

> <PUBCHEM_CACTVS_TAUTO_COUNT>
3

> <PUBCHEM_COORDINATE_TYPE>
1
5
255

> <PUBCHEM_BONDANNOTATIONS>
10  2  6
5  11  5
6  20  5
7  16  5
8  17  5

$$$$

