222043
  -OEChem-07051213062D

 55 58  0     1  0  0  0  0  0999 V2000
    2.0000   -2.7092    0.0000 O   0  0  0  0  0  0  0  0  0  0  0  0
   10.2963    1.0603    0.0000 O   0  0  0  0  0  0  0  0  0  0  0  0
    8.6500    1.5983    0.0000 N   0  0  0  0  0  0  0  0  0  0  0  0
    7.3931   -0.6569    0.0000 C   0  0  2  0  0  0  0  0  0  0  0  0
    7.3931    0.3431    0.0000 C   0  0  2  0  0  0  0  0  0  0  0  0
    6.5271   -1.1569    0.0000 C   0  0  1  0  0  0  0  0  0  0  0  0
    5.6610   -0.6569    0.0000 C   0  0  1  0  0  0  0  0  0  0  0  0
    4.7510   -1.1638    0.0000 C   0  0  2  0  0  0  0  0  0  0  0  0
    6.5271    0.8431    0.0000 C   0  0  0  0  0  0  0  0  0  0  0  0
    8.3393    0.6478    0.0000 C   0  0  2  0  0  0  0  0  0  0  0  0
    5.6610    0.3431    0.0000 C   0  0  0  0  0  0  0  0  0  0  0  0
    8.3393   -0.9616    0.0000 C   0  0  0  0  0  0  0  0  0  0  0  0
    6.5431   -2.1984    0.0000 C   0  0  0  0  0  0  0  0  0  0  0  0
    8.9229   -0.1569    0.0000 C   0  0  0  0  0  0  0  0  0  0  0  0
    4.7430   -2.2054    0.0000 C   0  0  0  0  0  0  0  0  0  0  0  0
    7.3931    1.3431    0.0000 C   0  0  0  0  0  0  0  0  0  0  0  0
    5.6451   -2.7262    0.0000 C   0  0  0  0  0  0  0  0  0  0  0  0
    3.8242   -0.5997    0.0000 C   0  0  0  0  0  0  0  0  0  0  0  0
    4.7587   -0.1638    0.0000 C   0  0  0  0  0  0  0  0  0  0  0  0
    2.8763   -1.1276    0.0000 C   0  0  0  0  0  0  0  0  0  0  0  0
    3.8076   -2.7551    0.0000 C   0  0  0  0  0  0  0  0  0  0  0  0
    2.8680   -2.2126    0.0000 C   0  0  0  0  0  0  0  0  0  0  0  0
    9.6285    1.8046    0.0000 C   0  0  0  0  0  0  0  0  0  0  0  0
    9.9391    2.7551    0.0000 C   0  0  0  0  0  0  0  0  0  0  0  0
    7.4830   -1.5021    0.0000 H   0  0  0  0  0  0  0  0  0  0  0  0
    7.2664   -1.5762    0.0000 H   0  0  0  0  0  0  0  0  0  0  0  0
    6.3972   -0.2319    0.0000 H   0  0  0  0  0  0  0  0  0  0  0  0
    6.9256    1.3180    0.0000 H   0  0  0  0  0  0  0  0  0  0  0  0
    6.1285    1.3180    0.0000 H   0  0  0  0  0  0  0  0  0  0  0  0
    7.9018    1.0872    0.0000 H   0  0  0  0  0  0  0  0  0  0  0  0
    5.4490    0.9257    0.0000 H   0  0  0  0  0  0  0  0  0  0  0  0
    5.0504    0.2354    0.0000 H   0  0  0  0  0  0  0  0  0  0  0  0
    8.0883   -1.5286    0.0000 H   0  0  0  0  0  0  0  0  0  0  0  0
    8.8767   -1.2709    0.0000 H   0  0  0  0  0  0  0  0  0  0  0  0
    6.7612   -2.7788    0.0000 H   0  0  0  0  0  0  0  0  0  0  0  0
    7.1523   -2.0829    0.0000 H   0  0  0  0  0  0  0  0  0  0  0  0
    9.3838   -0.5716    0.0000 H   0  0  0  0  0  0  0  0  0  0  0  0
    9.3838    0.2578    0.0000 H   0  0  0  0  0  0  0  0  0  0  0  0
    8.0131    1.3431    0.0000 H   0  0  0  0  0  0  0  0  0  0  0  0
    7.3931    1.9631    0.0000 H   0  0  0  0  0  0  0  0  0  0  0  0
    6.7731    1.3431    0.0000 H   0  0  0  0  0  0  0  0  0  0  0  0
    5.2478   -3.2021    0.0000 H   0  0  0  0  0  0  0  0  0  0  0  0
    6.0460   -3.1991    0.0000 H   0  0  0  0  0  0  0  0  0  0  0  0
    4.2324   -0.1330    0.0000 H   0  0  0  0  0  0  0  0  0  0  0  0
    3.4343   -0.1176    0.0000 H   0  0  0  0  0  0  0  0  0  0  0  0
    5.3787   -0.1686    0.0000 H   0  0  0  0  0  0  0  0  0  0  0  0
    4.7635    0.4562    0.0000 H   0  0  0  0  0  0  0  0  0  0  0  0
    4.1388   -0.1590    0.0000 H   0  0  0  0  0  0  0  0  0  0  0  0
    8.2359    2.0598    0.0000 H   0  0  0  0  0  0  0  0  0  0  0  0
    2.6718   -0.5423    0.0000 H   0  0  0  0  0  0  0  0  0  0  0  0
    2.2647   -1.2290    0.0000 H   0  0  0  0  0  0  0  0  0  0  0  0
    3.8100   -3.3751    0.0000 H   0  0  0  0  0  0  0  0  0  0  0  0
   10.5285    2.5625    0.0000 H   0  0  0  0  0  0  0  0  0  0  0  0
   10.1317    3.3444    0.0000 H   0  0  0  0  0  0  0  0  0  0  0  0
    9.3498    2.9477    0.0000 H   0  0  0  0  0  0  0  0  0  0  0  0
  1 22  2  0  0  0  0
  2 23  2  0  0  0  0
 10  3  1  1  0  0  0
  3 23  1  0  0  0  0
  3 49  1  0  0  0  0
  4  5  1  0  0  0  0
  4  6  1  0  0  0  0
  4 12  1  0  0  0  0
  4 25  1  6  0  0  0
  5  9  1  0  0  0  0
  5 10  1  0  0  0  0
  5 16  1  1  0  0  0
  6  7  1  0  0  0  0
  6 13  1  0  0  0  0
  6 26  1  1  0  0  0
  7  8  1  0  0  0  0
  7 11  1  0  0  0  0
  7 27  1  6  0  0  0
  8 15  1  0  0  0  0
  8 18  1  0  0  0  0
  8 19  1  1  0  0  0
  9 11  1  0  0  0  0
  9 28  1  0  0  0  0
  9 29  1  0  0  0  0
 10 14  1  0  0  0  0
 10 30  1  0  0  0  0
 11 31  1  0  0  0  0
 11 32  1  0  0  0  0
 12 14  1  0  0  0  0
 12 33  1  0  0  0  0
 12 34  1  0  0  0  0
 13 17  1  0  0  0  0
 13 35  1  0  0  0  0
 13 36  1  0  0  0  0
 14 37  1  0  0  0  0
 14 38  1  0  0  0  0
 15 17  1  0  0  0  0
 15 21  2  0  0  0  0
 16 39  1  0  0  0  0
 16 40  1  0  0  0  0
 16 41  1  0  0  0  0
 17 42  1  0  0  0  0
 17 43  1  0  0  0  0
 18 20  1  0  0  0  0
 18 44  1  0  0  0  0
 18 45  1  0  0  0  0
 19 46  1  0  0  0  0
 19 47  1  0  0  0  0
 19 48  1  0  0  0  0
 20 22  1  0  0  0  0
 20 50  1  0  0  0  0
 20 51  1  0  0  0  0
 21 22  1  0  0  0  0
 21 52  1  0  0  0  0
 23 24  1  0  0  0  0
 24 53  1  0  0  0  0
 24 54  1  0  0  0  0
 24 55  1  0  0  0  0
M  END
> <PUBCHEM_COMPOUND_CID>
222043

> <PUBCHEM_COMPOUND_CANONICALIZED>
1

> <PUBCHEM_CACTVS_COMPLEXITY>
609

> <PUBCHEM_CACTVS_HBOND_ACCEPTOR>
2

> <PUBCHEM_CACTVS_HBOND_DONOR>
1

> <PUBCHEM_CACTVS_ROTATABLE_BOND>
1

> <PUBCHEM_CACTVS_SUBSKEYS>
AAADceB6MAAAAAAAAAAAAAAAAAAAAYAAAAAwYIAAAAAAAGDAAAAAHgAQAAAADyzBgAQCAALAAACIAqFSEAAAAAAgAAAACIEIAEgAABIAgQAEAAAAlgCIAQMYiMCPgAAAAAAAAACAAAQAACAAACAACQAAAA==

> <PUBCHEM_IUPAC_OPENEYE_NAME>
N-[(8R,9S,10R,13S,14S,17S)-10,13-dimethyl-3-oxo-1,2,6,7,8,9,11,12,14,15,16,17-dodecahydrocyclopenta[a]phenanthren-17-yl]acetamide

> <PUBCHEM_IUPAC_CAS_NAME>
N-[(8R,9S,10R,13S,14S,17S)-10,13-dimethyl-3-oxo-1,2,6,7,8,9,11,12,14,15,16,17-dodecahydrocyclopenta[a]phenanthren-17-yl]acetamide

> <PUBCHEM_IUPAC_NAME>
N-[(8R,9S,10R,13S,14S,17S)-10,13-dimethyl-3-oxo-1,2,6,7,8,9,11,12,14,15,16,17-dodecahydrocyclopenta[a]phenanthren-17-yl]acetamide

> <PUBCHEM_IUPAC_SYSTEMATIC_NAME>
N-[(8R,9S,10R,13S,14S,17S)-10,13-dimethyl-3-oxidanylidene-1,2,6,7,8,9,11,12,14,15,16,17-dodecahydrocyclopenta[a]phenanthren-17-yl]ethanamide

> <PUBCHEM_IUPAC_TRADITIONAL_NAME>
N-[(8R,9S,10R,13S,14S,17S)-3-keto-10,13-dimethyl-1,2,6,7,8,9,11,12,14,15,16,17-dodecahydrocyclopenta[a]phenanthren-17-yl]acetamide

> <PUBCHEM_IUPAC_INCHI>
InChI=1S/C21H31NO2/c1-13(23)22-19-7-6-17-16-5-4-14-12-15(24)8-10-20(14,2)18(16)9-11-21(17,19)3/h12,16-19H,4-11H2,1-3H3,(H,22,23)/t16-,17-,18-,19-,20-,21-/m0/s1

> <PUBCHEM_IUPAC_INCHIKEY>
SDLZQPJEYFVSOQ-PXQJOHHUSA-N

> <PUBCHEM_XLOGP3>
3.3

> <PUBCHEM_EXACT_MASS>
329.235479

> <PUBCHEM_MOLECULAR_FORMULA>
C21H31NO2

> <PUBCHEM_MOLECULAR_WEIGHT>
329.47634

> <PUBCHEM_OPENEYE_CAN_SMILES>
CC(=O)NC1CCC2C1(CCC3C2CCC4=CC(=O)CCC34C)C

> <PUBCHEM_OPENEYE_ISO_SMILES>
CC(=O)N[C@H]1CC[C@@H]2[C@@]1(CC[C@H]3[C@H]2CCC4=CC(=O)CC[C@]34C)C

> <PUBCHEM_CACTVS_TPSA>
46.2

> <PUBCHEM_MONOISOTOPIC_WEIGHT>
329.235479

> <PUBCHEM_TOTAL_CHARGE>
0

> <PUBCHEM_HEAVY_ATOM_COUNT>
24

> <PUBCHEM_ATOM_DEF_STEREO_COUNT>
6

> <PUBCHEM_ATOM_UDEF_STEREO_COUNT>
0

> <PUBCHEM_BOND_DEF_STEREO_COUNT>
0

> <PUBCHEM_BOND_UDEF_STEREO_COUNT>
0

> <PUBCHEM_ISOTOPIC_ATOM_COUNT>
0

> <PUBCHEM_COMPONENT_COUNT>
1

> <PUBCHEM_CACTVS_TAUTO_COUNT>
10

> <PUBCHEM_COORDINATE_TYPE>
1
5
255

> <PUBCHEM_BONDANNOTATIONS>
10  3  5
4  25  6
5  16  5
6  26  5
7  27  6
8  19  5

$$$$

