24883454
  -OEChem-07051213082D

 39 39  0     1  0  0  0  0  0999 V2000
    3.7320    1.3450    0.0000 O   0  0  0  0  0  0  0  0  0  0  0  0
    3.7320   -0.6550    0.0000 O   0  0  0  0  0  0  0  0  0  0  0  0
    4.5981    2.8450    0.0000 O   0  0  0  0  0  0  0  0  0  0  0  0
    7.1962    2.3450    0.0000 O   0  0  0  0  0  0  0  0  0  0  0  0
    6.3301    2.8450    0.0000 O   0  0  0  0  0  0  0  0  0  0  0  0
   10.6603    1.3450    0.0000 O   0  0  0  0  0  0  0  0  0  0  0  0
    9.7942   -0.1550    0.0000 O   0  0  0  0  0  0  0  0  0  0  0  0
    2.8660   -3.1550    0.0000 O   0  0  0  0  0  0  0  0  0  0  0  0
    2.0000   -1.6550    0.0000 O   0  0  0  0  0  0  0  0  0  0  0  0
    5.4641    1.3450    0.0000 C   0  0  2  0  0  0  0  0  0  0  0  0
    6.3301    0.8450    0.0000 C   0  0  2  0  0  0  0  0  0  0  0  0
    4.5981    0.8450    0.0000 C   0  0  1  0  0  0  0  0  0  0  0  0
    4.5981   -0.1550    0.0000 C   0  0  2  0  0  0  0  0  0  0  0  0
    6.3301   -0.1550    0.0000 C   0  0  0  0  0  0  0  0  0  0  0  0
    5.4641   -0.6550    0.0000 C   0  0  0  0  0  0  0  0  0  0  0  0
    7.1962    1.3450    0.0000 C   0  0  0  0  0  0  0  0  0  0  0  0
    5.4641    2.3450    0.0000 C   0  0  0  0  0  0  0  0  0  0  0  0
    8.0622    0.8450    0.0000 C   0  0  0  0  0  0  0  0  0  0  0  0
    8.9282    1.3450    0.0000 C   0  0  0  0  0  0  0  0  0  0  0  0
    3.7320   -1.6550    0.0000 C   0  0  0  0  0  0  0  0  0  0  0  0
    9.7942    0.8450    0.0000 C   0  0  0  0  0  0  0  0  0  0  0  0
    2.8660   -2.1550    0.0000 C   0  0  0  0  0  0  0  0  0  0  0  0
    4.5981   -2.1550    0.0000 C   0  0  0  0  0  0  0  0  0  0  0  0
    6.0010    1.6550    0.0000 H   0  0  0  0  0  0  0  0  0  0  0  0
    6.8671    0.5350    0.0000 H   0  0  0  0  0  0  0  0  0  0  0  0
    4.5981    1.4650    0.0000 H   0  0  0  0  0  0  0  0  0  0  0  0
    4.5981   -0.7750    0.0000 H   0  0  0  0  0  0  0  0  0  0  0  0
    6.8671   -0.4650    0.0000 H   0  0  0  0  0  0  0  0  0  0  0  0
    5.4641   -1.2750    0.0000 H   0  0  0  0  0  0  0  0  0  0  0  0
    7.6636    0.3701    0.0000 H   0  0  0  0  0  0  0  0  0  0  0  0
    8.4607    0.3701    0.0000 H   0  0  0  0  0  0  0  0  0  0  0  0
    3.1951    1.0350    0.0000 H   0  0  0  0  0  0  0  0  0  0  0  0
    9.3267    1.8200    0.0000 H   0  0  0  0  0  0  0  0  0  0  0  0
    8.5297    1.8200    0.0000 H   0  0  0  0  0  0  0  0  0  0  0  0
    4.5981    3.4650    0.0000 H   0  0  0  0  0  0  0  0  0  0  0  0
    4.5981   -2.7750    0.0000 H   0  0  0  0  0  0  0  0  0  0  0  0
    5.1350   -1.8450    0.0000 H   0  0  0  0  0  0  0  0  0  0  0  0
   11.1972    1.0350    0.0000 H   0  0  0  0  0  0  0  0  0  0  0  0
    2.3291   -3.4650    0.0000 H   0  0  0  0  0  0  0  0  0  0  0  0
 12  1  1  1  0  0  0
  1 32  1  0  0  0  0
 13  2  1  6  0  0  0
  2 20  1  0  0  0  0
  3 17  1  0  0  0  0
  3 35  1  0  0  0  0
  4 16  2  0  0  0  0
  5 17  2  0  0  0  0
  6 21  1  0  0  0  0
  6 38  1  0  0  0  0
  7 21  2  0  0  0  0
  8 22  1  0  0  0  0
  8 39  1  0  0  0  0
  9 22  2  0  0  0  0
 10 11  1  0  0  0  0
 10 12  1  0  0  0  0
 10 17  1  6  0  0  0
 10 24  1  0  0  0  0
 11 14  1  0  0  0  0
 11 16  1  1  0  0  0
 11 25  1  0  0  0  0
 12 13  1  0  0  0  0
 12 26  1  0  0  0  0
 13 15  1  0  0  0  0
 13 27  1  0  0  0  0
 14 15  2  0  0  0  0
 14 28  1  0  0  0  0
 15 29  1  0  0  0  0
 16 18  1  0  0  0  0
 18 19  1  0  0  0  0
 18 30  1  0  0  0  0
 18 31  1  0  0  0  0
 19 21  1  0  0  0  0
 19 33  1  0  0  0  0
 19 34  1  0  0  0  0
 20 22  1  0  0  0  0
 20 23  2  0  0  0  0
 23 36  1  0  0  0  0
 23 37  1  0  0  0  0
M  END
> <PUBCHEM_COMPOUND_CID>
24883454

> <PUBCHEM_COMPOUND_CANONICALIZED>
1

> <PUBCHEM_CACTVS_COMPLEXITY>
563

> <PUBCHEM_CACTVS_HBOND_ACCEPTOR>
9

> <PUBCHEM_CACTVS_HBOND_DONOR>
4

> <PUBCHEM_CACTVS_ROTATABLE_BOND>
8

> <PUBCHEM_CACTVS_SUBSKEYS>
AAADceBwPAAAAAAAAAAAAAAAAAAAAAAAAAAgAAAAAAAAAAAAAAAAGgAACAAADRSggAIACAAABgCIAKDSCAIACAAgAAAICAFAAEgBFBYAIQQCUAAF4AALMIPLzPDOgAAAAAAAAAAAAAAAAAAAAAAAAAAAAA==

> <PUBCHEM_IUPAC_OPENEYE_NAME>
(1R,2S,5S,6S)-2-(3-carboxypropanoyl)-5-(1-carboxyvinyloxy)-6-hydroxy-cyclohex-3-ene-1-carboxylic acid

> <PUBCHEM_IUPAC_CAS_NAME>
(1R,2S,5S,6S)-5-(1-carboxyethenoxy)-2-(3-carboxy-1-oxopropyl)-6-hydroxy-1-cyclohex-3-enecarboxylic acid

> <PUBCHEM_IUPAC_NAME>
(1R,2S,5S,6S)-5-(1-carboxyethenoxy)-2-(3-carboxypropanoyl)-6-hydroxycyclohex-3-ene-1-carboxylic acid

> <PUBCHEM_IUPAC_SYSTEMATIC_NAME>
(1R,2S,5S,6S)-6-oxidanyl-2-(4-oxidanyl-4-oxidanylidene-butanoyl)-5-(3-oxidanyl-3-oxidanylidene-prop-1-en-2-yl)oxy-cyclohex-3-ene-1-carboxylic acid

> <PUBCHEM_IUPAC_TRADITIONAL_NAME>
(1R,2S,5S,6S)-2-(3-carboxypropanoyl)-5-(1-carboxyvinyloxy)-6-hydroxy-cyclohex-3-ene-1-carboxylic acid

> <PUBCHEM_IUPAC_INCHI>
InChI=1S/C14H16O9/c1-6(13(19)20)23-9-4-2-7(8(15)3-5-10(16)17)11(12(9)18)14(21)22/h2,4,7,9,11-12,18H,1,3,5H2,(H,16,17)(H,19,20)(H,21,22)/t7-,9+,11-,12-/m1/s1

> <PUBCHEM_IUPAC_INCHIKEY>
XYCATPIYKOARSZ-OAIFWDMCSA-N

> <PUBCHEM_XLOGP3_AA>
-0.4

> <PUBCHEM_EXACT_MASS>
328.079432

> <PUBCHEM_MOLECULAR_FORMULA>
C14H16O9

> <PUBCHEM_MOLECULAR_WEIGHT>
328.27144

> <PUBCHEM_OPENEYE_CAN_SMILES>
C=C(C(=O)O)OC1C=CC(C(C1O)C(=O)O)C(=O)CCC(=O)O

> <PUBCHEM_OPENEYE_ISO_SMILES>
C=C(C(=O)O)O[C@H]1C=C[C@@H]([C@H]([C@@H]1O)C(=O)O)C(=O)CCC(=O)O

> <PUBCHEM_CACTVS_TPSA>
158

> <PUBCHEM_MONOISOTOPIC_WEIGHT>
328.079432

> <PUBCHEM_TOTAL_CHARGE>
0

> <PUBCHEM_HEAVY_ATOM_COUNT>
23

> <PUBCHEM_ATOM_DEF_STEREO_COUNT>
4

> <PUBCHEM_ATOM_UDEF_STEREO_COUNT>
0

> <PUBCHEM_BOND_DEF_STEREO_COUNT>
0

> <PUBCHEM_BOND_UDEF_STEREO_COUNT>
0

> <PUBCHEM_ISOTOPIC_ATOM_COUNT>
0

> <PUBCHEM_COMPONENT_COUNT>
1

> <PUBCHEM_CACTVS_TAUTO_COUNT>
5

> <PUBCHEM_COORDINATE_TYPE>
1
5
255

> <PUBCHEM_BONDANNOTATIONS>
12  1  5
10  17  6
11  16  5
13  2  6

$$$$

