13916413
  -OEChem-07051212502D

 77 80  0     1  0  0  0  0  0999 V2000
    3.8674   -3.5163    0.0000 O   0  0  0  0  0  0  0  0  0  0  0  0
    4.7810   -4.0372    0.0000 O   0  0  0  0  0  0  0  0  0  0  0  0
    6.5251   -0.9679    0.0000 C   0  0  2  0  0  0  0  0  0  0  0  0
    6.5251    0.0321    0.0000 C   0  0  1  0  0  0  0  0  0  0  0  0
    5.6591   -1.4679    0.0000 C   0  0  1  0  0  0  0  0  0  0  0  0
    4.7931   -0.9679    0.0000 C   0  0  1  0  0  0  0  0  0  0  0  0
    3.8831   -1.4748    0.0000 C   0  0  2  0  0  0  0  0  0  0  0  0
    7.4714    0.3368    0.0000 C   0  0  2  0  0  0  0  0  0  0  0  0
    3.8751   -2.5164    0.0000 C   0  0  2  0  0  0  0  0  0  0  0  0
    5.6591    0.5321    0.0000 C   0  0  0  0  0  0  0  0  0  0  0  0
    4.7931    0.0321    0.0000 C   0  0  0  0  0  0  0  0  0  0  0  0
    7.4714   -1.2727    0.0000 C   0  0  0  0  0  0  0  0  0  0  0  0
    5.6752   -2.5094    0.0000 C   0  0  0  0  0  0  0  0  0  0  0  0
    4.7771   -3.0372    0.0000 C   0  0  1  0  0  0  0  0  0  0  0  0
    8.0550   -0.4679    0.0000 C   0  0  0  0  0  0  0  0  0  0  0  0
    2.9562   -0.9107    0.0000 C   0  0  0  0  0  0  0  0  0  0  0  0
    6.5251    1.0321    0.0000 C   0  0  0  0  0  0  0  0  0  0  0  0
    2.9396   -3.0661    0.0000 C   0  0  0  0  0  0  0  0  0  0  0  0
    7.7820    1.2873    0.0000 C   0  0  1  0  0  0  0  0  0  0  0  0
    3.8908   -0.4748    0.0000 C   0  0  0  0  0  0  0  0  0  0  0  0
    2.0084   -1.4386    0.0000 C   0  0  0  0  0  0  0  0  0  0  0  0
    2.0000   -2.5236    0.0000 C   0  0  0  0  0  0  0  0  0  0  0  0
    8.7605    1.4936    0.0000 C   0  0  0  0  0  0  0  0  0  0  0  0
    7.1142    2.0316    0.0000 C   0  0  0  0  0  0  0  0  0  0  0  0
    9.0712    2.4441    0.0000 C   0  0  0  0  0  0  0  0  0  0  0  0
   10.0497    2.6503    0.0000 C   0  0  0  0  0  0  0  0  0  0  0  0
   10.3604    3.6008    0.0000 C   0  0  0  0  0  0  0  0  0  0  0  0
   11.3389    3.8070    0.0000 C   0  0  0  0  0  0  0  0  0  0  0  0
    9.6925    4.3451    0.0000 C   0  0  0  0  0  0  0  0  0  0  0  0
    6.6151   -1.8132    0.0000 H   0  0  0  0  0  0  0  0  0  0  0  0
    6.3985   -1.8872    0.0000 H   0  0  0  0  0  0  0  0  0  0  0  0
    5.5292   -0.5429    0.0000 H   0  0  0  0  0  0  0  0  0  0  0  0
    8.3111    0.4687    0.0000 H   0  0  0  0  0  0  0  0  0  0  0  0
    6.0576    1.0070    0.0000 H   0  0  0  0  0  0  0  0  0  0  0  0
    5.2606    1.0070    0.0000 H   0  0  0  0  0  0  0  0  0  0  0  0
    4.5810    0.6147    0.0000 H   0  0  0  0  0  0  0  0  0  0  0  0
    4.1825   -0.0756    0.0000 H   0  0  0  0  0  0  0  0  0  0  0  0
    7.2203   -1.8396    0.0000 H   0  0  0  0  0  0  0  0  0  0  0  0
    8.0087   -1.5819    0.0000 H   0  0  0  0  0  0  0  0  0  0  0  0
    5.8932   -3.0898    0.0000 H   0  0  0  0  0  0  0  0  0  0  0  0
    6.2843   -2.3939    0.0000 H   0  0  0  0  0  0  0  0  0  0  0  0
    5.3158   -3.3441    0.0000 H   0  0  0  0  0  0  0  0  0  0  0  0
    8.5158   -0.8827    0.0000 H   0  0  0  0  0  0  0  0  0  0  0  0
    8.5158   -0.0532    0.0000 H   0  0  0  0  0  0  0  0  0  0  0  0
    3.3645   -0.4440    0.0000 H   0  0  0  0  0  0  0  0  0  0  0  0
    2.5663   -0.4287    0.0000 H   0  0  0  0  0  0  0  0  0  0  0  0
    7.1451    1.0321    0.0000 H   0  0  0  0  0  0  0  0  0  0  0  0
    6.5251    1.6521    0.0000 H   0  0  0  0  0  0  0  0  0  0  0  0
    5.9051    1.0321    0.0000 H   0  0  0  0  0  0  0  0  0  0  0  0
    2.5423   -3.5421    0.0000 H   0  0  0  0  0  0  0  0  0  0  0  0
    3.3406   -3.5390    0.0000 H   0  0  0  0  0  0  0  0  0  0  0  0
    7.9746    1.8766    0.0000 H   0  0  0  0  0  0  0  0  0  0  0  0
    4.5108   -0.4796    0.0000 H   0  0  0  0  0  0  0  0  0  0  0  0
    3.8956    0.1452    0.0000 H   0  0  0  0  0  0  0  0  0  0  0  0
    3.2708   -0.4700    0.0000 H   0  0  0  0  0  0  0  0  0  0  0  0
    1.8038   -0.8534    0.0000 H   0  0  0  0  0  0  0  0  0  0  0  0
    1.3967   -1.5400    0.0000 H   0  0  0  0  0  0  0  0  0  0  0  0
    1.3900   -2.4128    0.0000 H   0  0  0  0  0  0  0  0  0  0  0  0
    1.7864   -3.1057    0.0000 H   0  0  0  0  0  0  0  0  0  0  0  0
    3.3280   -3.8222    0.0000 H   0  0  0  0  0  0  0  0  0  0  0  0
    8.7811    0.8739    0.0000 H   0  0  0  0  0  0  0  0  0  0  0  0
    9.3743    1.4062    0.0000 H   0  0  0  0  0  0  0  0  0  0  0  0
    7.5756    2.4457    0.0000 H   0  0  0  0  0  0  0  0  0  0  0  0
    6.7001    2.4931    0.0000 H   0  0  0  0  0  0  0  0  0  0  0  0
    6.6527    1.6176    0.0000 H   0  0  0  0  0  0  0  0  0  0  0  0
    5.3191   -4.3451    0.0000 H   0  0  0  0  0  0  0  0  0  0  0  0
    9.0506    3.0637    0.0000 H   0  0  0  0  0  0  0  0  0  0  0  0
    8.4574    2.5314    0.0000 H   0  0  0  0  0  0  0  0  0  0  0  0
   10.0703    2.0306    0.0000 H   0  0  0  0  0  0  0  0  0  0  0  0
   10.6635    2.5629    0.0000 H   0  0  0  0  0  0  0  0  0  0  0  0
   10.5530    4.1901    0.0000 H   0  0  0  0  0  0  0  0  0  0  0  0
   10.1540    4.7592    0.0000 H   0  0  0  0  0  0  0  0  0  0  0  0
   11.4667    3.2003    0.0000 H   0  0  0  0  0  0  0  0  0  0  0  0
    9.2784    4.8066    0.0000 H   0  0  0  0  0  0  0  0  0  0  0  0
    9.2310    3.9310    0.0000 H   0  0  0  0  0  0  0  0  0  0  0  0
   11.9455    3.9349    0.0000 H   0  0  0  0  0  0  0  0  0  0  0  0
   11.2110    4.4137    0.0000 H   0  0  0  0  0  0  0  0  0  0  0  0
  9  1  1  6  0  0  0
  1 60  1  0  0  0  0
 14  2  1  1  0  0  0
  2 66  1  0  0  0  0
  3  4  1  0  0  0  0
  3  5  1  0  0  0  0
  3 12  1  0  0  0  0
  3 30  1  6  0  0  0
  4  8  1  0  0  0  0
  4 10  1  0  0  0  0
  4 17  1  1  0  0  0
  5  6  1  0  0  0  0
  5 13  1  0  0  0  0
  5 31  1  1  0  0  0
  6  7  1  0  0  0  0
  6 11  1  0  0  0  0
  6 32  1  6  0  0  0
  7  9  1  0  0  0  0
  7 16  1  0  0  0  0
  7 20  1  1  0  0  0
  8 15  1  0  0  0  0
  8 19  1  0  0  0  0
  8 33  1  6  0  0  0
  9 14  1  0  0  0  0
  9 18  1  0  0  0  0
 10 11  1  0  0  0  0
 10 34  1  0  0  0  0
 10 35  1  0  0  0  0
 11 36  1  0  0  0  0
 11 37  1  0  0  0  0
 12 15  1  0  0  0  0
 12 38  1  0  0  0  0
 12 39  1  0  0  0  0
 13 14  1  0  0  0  0
 13 40  1  0  0  0  0
 13 41  1  0  0  0  0
 14 42  1  0  0  0  0
 15 43  1  0  0  0  0
 15 44  1  0  0  0  0
 16 21  1  0  0  0  0
 16 45  1  0  0  0  0
 16 46  1  0  0  0  0
 17 47  1  0  0  0  0
 17 48  1  0  0  0  0
 17 49  1  0  0  0  0
 18 22  1  0  0  0  0
 18 50  1  0  0  0  0
 18 51  1  0  0  0  0
 19 23  1  0  0  0  0
 19 24  1  6  0  0  0
 19 52  1  0  0  0  0
 20 53  1  0  0  0  0
 20 54  1  0  0  0  0
 20 55  1  0  0  0  0
 21 22  1  0  0  0  0
 21 56  1  0  0  0  0
 21 57  1  0  0  0  0
 22 58  1  0  0  0  0
 22 59  1  0  0  0  0
 23 25  1  0  0  0  0
 23 61  1  0  0  0  0
 23 62  1  0  0  0  0
 24 63  1  0  0  0  0
 24 64  1  0  0  0  0
 24 65  1  0  0  0  0
 25 26  1  0  0  0  0
 25 67  1  0  0  0  0
 25 68  1  0  0  0  0
 26 27  1  0  0  0  0
 26 69  1  0  0  0  0
 26 70  1  0  0  0  0
 27 28  1  0  0  0  0
 27 29  1  0  0  0  0
 27 71  1  0  0  0  0
 28 73  1  0  0  0  0
 28 76  1  0  0  0  0
 28 77  1  0  0  0  0
 29 72  1  0  0  0  0
 29 74  1  0  0  0  0
 29 75  1  0  0  0  0
M  END
> <PUBCHEM_COMPOUND_CID>
13916413

> <PUBCHEM_COMPOUND_CANONICALIZED>
1

> <PUBCHEM_CACTVS_COMPLEXITY>
587

> <PUBCHEM_CACTVS_HBOND_ACCEPTOR>
2

> <PUBCHEM_CACTVS_HBOND_DONOR>
2

> <PUBCHEM_CACTVS_ROTATABLE_BOND>
5

> <PUBCHEM_CACTVS_SUBSKEYS>
AAADcfB4MAAAAAAAAAAAAAAAAAAAAYAAAAAwYMAAAAAAAGDAAAAAGgAACAAAD1SggAICAAAAAgAAAAAAAAAAAAAAAAAAAAAAAAABEAIAAAAAQAAEAAABAAGAwPAPgAAAAAAAAADAAAYAADCAAQAACAAAAA==

> <PUBCHEM_IUPAC_OPENEYE_NAME>
(5R,6R,8S,9S,10R,13R,14S,17R)-17-[(1R)-1,5-dimethylhexyl]-10,13-dimethyl-1,2,3,4,6,7,8,9,11,12,14,15,16,17-tetradecahydrocyclopenta[a]phenanthrene-5,6-diol

> <PUBCHEM_IUPAC_CAS_NAME>
(5R,6R,8S,9S,10R,13R,14S,17R)-10,13-dimethyl-17-[(2R)-6-methylheptan-2-yl]-1,2,3,4,6,7,8,9,11,12,14,15,16,17-tetradecahydrocyclopenta[a]phenanthrene-5,6-diol

> <PUBCHEM_IUPAC_NAME>
(5R,6R,8S,9S,10R,13R,14S,17R)-10,13-dimethyl-17-[(2R)-6-methylheptan-2-yl]-1,2,3,4,6,7,8,9,11,12,14,15,16,17-tetradecahydrocyclopenta[a]phenanthrene-5,6-diol

> <PUBCHEM_IUPAC_SYSTEMATIC_NAME>
(5R,6R,8S,9S,10R,13R,14S,17R)-10,13-dimethyl-17-[(2R)-6-methylheptan-2-yl]-1,2,3,4,6,7,8,9,11,12,14,15,16,17-tetradecahydrocyclopenta[a]phenanthrene-5,6-diol

> <PUBCHEM_IUPAC_TRADITIONAL_NAME>
(5R,6R,8S,9S,10R,13R,14S,17R)-17-[(1R)-1,5-dimethylhexyl]-10,13-dimethyl-1,2,3,4,6,7,8,9,11,12,14,15,16,17-tetradecahydrocyclopenta[a]phenanthrene-5,6-diol

> <PUBCHEM_IUPAC_INCHI>
InChI=1S/C27H48O2/c1-18(2)9-8-10-19(3)21-11-12-22-20-17-24(28)27(29)15-7-6-14-26(27,5)23(20)13-16-25(21,22)4/h18-24,28-29H,6-17H2,1-5H3/t19-,20+,21-,22+,23+,24-,25-,26-,27+/m1/s1

> <PUBCHEM_IUPAC_INCHIKEY>
HKHHYUSFWJROEJ-MYMLUCEJSA-N

> <PUBCHEM_XLOGP3_AA>
8.1

> <PUBCHEM_EXACT_MASS>
404.365431

> <PUBCHEM_MOLECULAR_FORMULA>
C27H48O2

> <PUBCHEM_MOLECULAR_WEIGHT>
404.66882

> <PUBCHEM_OPENEYE_CAN_SMILES>
CC(C)CCCC(C)C1CCC2C1(CCC3C2CC(C4(C3(CCCC4)C)O)O)C

> <PUBCHEM_OPENEYE_ISO_SMILES>
C[C@H](CCCC(C)C)[C@H]1CC[C@@H]2[C@@]1(CC[C@H]3[C@H]2C[C@H]([C@@]4([C@@]3(CCCC4)C)O)O)C

> <PUBCHEM_CACTVS_TPSA>
40.5

> <PUBCHEM_MONOISOTOPIC_WEIGHT>
404.365431

> <PUBCHEM_TOTAL_CHARGE>
0

> <PUBCHEM_HEAVY_ATOM_COUNT>
29

> <PUBCHEM_ATOM_DEF_STEREO_COUNT>
9

> <PUBCHEM_ATOM_UDEF_STEREO_COUNT>
0

> <PUBCHEM_BOND_DEF_STEREO_COUNT>
0

> <PUBCHEM_BOND_UDEF_STEREO_COUNT>
0

> <PUBCHEM_ISOTOPIC_ATOM_COUNT>
0

> <PUBCHEM_COMPONENT_COUNT>
1

> <PUBCHEM_CACTVS_TAUTO_COUNT>
1

> <PUBCHEM_COORDINATE_TYPE>
1
5
255

> <PUBCHEM_BONDANNOTATIONS>
9  1  6
19  24  6
14  2  5
3  30  6
4  17  5
5  31  5
6  32  6
7  20  5
8  33  6

$$$$

