582693
  -OEChem-06241222432D

 39 42  0     1  0  0  0  0  0999 V2000
    4.9889   -0.9743    0.0000 O   0  0  0  0  0  0  0  0  0  0  0  0
    4.9889    2.5362    0.0000 O   0  0  0  0  0  0  0  0  0  0  0  0
    5.2619    0.7809    0.0000 N   0  0  0  0  0  0  0  0  0  0  0  0
    9.2917    0.4149    0.0000 N   0  0  0  0  0  0  0  0  0  0  0  0
    6.2619    0.7809    0.0000 C   0  0  3  0  0  0  0  0  0  0  0  0
    6.7619   -0.0851    0.0000 C   0  0  0  0  0  0  0  0  0  0  0  0
    7.7619   -0.0851    0.0000 C   0  0  0  0  0  0  0  0  0  0  0  0
    6.7619    1.6470    0.0000 C   0  0  0  0  0  0  0  0  0  0  0  0
    8.3455   -0.8898    0.0000 C   0  0  0  0  0  0  0  0  0  0  0  0
    4.6783   -0.0238    0.0000 C   0  0  0  0  0  0  0  0  0  0  0  0
    4.6783    1.5857    0.0000 C   0  0  0  0  0  0  0  0  0  0  0  0
    3.7320    1.2809    0.0000 C   0  0  0  0  0  0  0  0  0  0  0  0
    3.7320    0.2809    0.0000 C   0  0  0  0  0  0  0  0  0  0  0  0
    9.2960   -0.5792    0.0000 C   0  0  0  0  0  0  0  0  0  0  0  0
    8.3455    0.7196    0.0000 C   0  0  0  0  0  0  0  0  0  0  0  0
    8.1393   -1.8683    0.0000 C   0  0  0  0  0  0  0  0  0  0  0  0
    2.8660   -0.2191    0.0000 C   0  0  0  0  0  0  0  0  0  0  0  0
    2.8660    1.7809    0.0000 C   0  0  0  0  0  0  0  0  0  0  0  0
   10.0403   -1.2470    0.0000 C   0  0  0  0  0  0  0  0  0  0  0  0
    8.8836   -2.5362    0.0000 C   0  0  0  0  0  0  0  0  0  0  0  0
    2.0000    0.2809    0.0000 C   0  0  0  0  0  0  0  0  0  0  0  0
    2.0000    1.2809    0.0000 C   0  0  0  0  0  0  0  0  0  0  0  0
    9.8341   -2.2255    0.0000 C   0  0  0  0  0  0  0  0  0  0  0  0
    5.9519    1.3179    0.0000 H   0  0  0  0  0  0  0  0  0  0  0  0
    6.1793   -0.2972    0.0000 H   0  0  0  0  0  0  0  0  0  0  0  0
    6.8695   -0.6957    0.0000 H   0  0  0  0  0  0  0  0  0  0  0  0
    7.2988    1.3370    0.0000 H   0  0  0  0  0  0  0  0  0  0  0  0
    7.0719    2.1839    0.0000 H   0  0  0  0  0  0  0  0  0  0  0  0
    6.2249    1.9570    0.0000 H   0  0  0  0  0  0  0  0  0  0  0  0
    8.1529    1.3090    0.0000 H   0  0  0  0  0  0  0  0  0  0  0  0
    9.7920    0.7811    0.0000 H   0  0  0  0  0  0  0  0  0  0  0  0
    7.5500   -2.0610    0.0000 H   0  0  0  0  0  0  0  0  0  0  0  0
    2.8660    2.4009    0.0000 H   0  0  0  0  0  0  0  0  0  0  0  0
    2.8660   -0.8391    0.0000 H   0  0  0  0  0  0  0  0  0  0  0  0
   10.6296   -1.0544    0.0000 H   0  0  0  0  0  0  0  0  0  0  0  0
    8.7557   -3.1428    0.0000 H   0  0  0  0  0  0  0  0  0  0  0  0
    1.4631    1.5909    0.0000 H   0  0  0  0  0  0  0  0  0  0  0  0
    1.4631   -0.0291    0.0000 H   0  0  0  0  0  0  0  0  0  0  0  0
   10.2956   -2.6396    0.0000 H   0  0  0  0  0  0  0  0  0  0  0  0
  1 10  2  0  0  0  0
  2 11  2  0  0  0  0
  3  5  1  0  0  0  0
  3 10  1  0  0  0  0
  3 11  1  0  0  0  0
  4 14  1  0  0  0  0
  4 15  1  0  0  0  0
  4 31  1  0  0  0  0
  5  6  1  0  0  0  0
  5  8  1  0  0  0  0
  5 24  1  0  0  0  0
  6  7  1  0  0  0  0
  6 25  1  0  0  0  0
  6 26  1  0  0  0  0
  7  9  1  0  0  0  0
  7 15  2  0  0  0  0
  8 27  1  0  0  0  0
  8 28  1  0  0  0  0
  8 29  1  0  0  0  0
  9 14  1  0  0  0  0
  9 16  2  0  0  0  0
 10 13  1  0  0  0  0
 11 12  1  0  0  0  0
 12 13  1  0  0  0  0
 12 18  2  0  0  0  0
 13 17  2  0  0  0  0
 14 19  2  0  0  0  0
 15 30  1  0  0  0  0
 16 20  1  0  0  0  0
 16 32  1  0  0  0  0
 17 21  1  0  0  0  0
 17 34  1  0  0  0  0
 18 22  1  0  0  0  0
 18 33  1  0  0  0  0
 19 23  1  0  0  0  0
 19 35  1  0  0  0  0
 20 23  2  0  0  0  0
 20 36  1  0  0  0  0
 21 22  2  0  0  0  0
 21 38  1  0  0  0  0
 22 37  1  0  0  0  0
 23 39  1  0  0  0  0
M  END
> <PUBCHEM_COMPOUND_CID>
582693

> <PUBCHEM_COMPOUND_CANONICALIZED>
1

> <PUBCHEM_CACTVS_COMPLEXITY>
468

> <PUBCHEM_CACTVS_HBOND_ACCEPTOR>
2

> <PUBCHEM_CACTVS_HBOND_DONOR>
1

> <PUBCHEM_CACTVS_ROTATABLE_BOND>
3

> <PUBCHEM_CACTVS_SUBSKEYS>
AAADceB7MAAAAAAAAAAAAAAAAAAAAWLAAAAwYAAAAAAAAFgB9AAAHgAQAAAADCjBngQ+wPPJkACoAzV3VACCgCA1AiAI2aE4ZNgIIPLAlZGEIQhgliDIyYcdiMCOgAAAAAASAAAAAAAAACQAAAAAAAAAAA==

> <PUBCHEM_IUPAC_OPENEYE_NAME>
2-[2-(1H-indol-3-yl)-1-methyl-ethyl]isoindoline-1,3-dione

> <PUBCHEM_IUPAC_CAS_NAME>
2-[1-(1H-indol-3-yl)propan-2-yl]isoindole-1,3-dione

> <PUBCHEM_IUPAC_NAME>
2-[1-(1H-indol-3-yl)propan-2-yl]isoindole-1,3-dione

> <PUBCHEM_IUPAC_SYSTEMATIC_NAME>
2-[1-(1H-indol-3-yl)propan-2-yl]isoindole-1,3-dione

> <PUBCHEM_IUPAC_TRADITIONAL_NAME>
2-[2-(1H-indol-3-yl)-1-methyl-ethyl]isoindoline-1,3-quinone

> <PUBCHEM_IUPAC_INCHI>
InChI=1S/C19H16N2O2/c1-12(10-13-11-20-17-9-5-4-6-14(13)17)21-18(22)15-7-2-3-8-16(15)19(21)23/h2-9,11-12,20H,10H2,1H3

> <PUBCHEM_IUPAC_INCHIKEY>
DGSGMCIOMJQOKI-UHFFFAOYSA-N

> <PUBCHEM_XLOGP3_AA>
3.4

> <PUBCHEM_EXACT_MASS>
304.121178

> <PUBCHEM_MOLECULAR_FORMULA>
C19H16N2O2

> <PUBCHEM_MOLECULAR_WEIGHT>
304.34254

> <PUBCHEM_OPENEYE_CAN_SMILES>
CC(CC1=CNC2=CC=CC=C21)N3C(=O)C4=CC=CC=C4C3=O

> <PUBCHEM_OPENEYE_ISO_SMILES>
CC(CC1=CNC2=CC=CC=C21)N3C(=O)C4=CC=CC=C4C3=O

> <PUBCHEM_CACTVS_TPSA>
53.2

> <PUBCHEM_MONOISOTOPIC_WEIGHT>
304.121178

> <PUBCHEM_TOTAL_CHARGE>
0

> <PUBCHEM_HEAVY_ATOM_COUNT>
23

> <PUBCHEM_ATOM_DEF_STEREO_COUNT>
0

> <PUBCHEM_ATOM_UDEF_STEREO_COUNT>
1

> <PUBCHEM_BOND_DEF_STEREO_COUNT>
0

> <PUBCHEM_BOND_UDEF_STEREO_COUNT>
0

> <PUBCHEM_ISOTOPIC_ATOM_COUNT>
0

> <PUBCHEM_COMPONENT_COUNT>
1

> <PUBCHEM_CACTVS_TAUTO_COUNT>
1

> <PUBCHEM_COORDINATE_TYPE>
1
5
255

> <PUBCHEM_BONDANNOTATIONS>
12  13  8
12  18  8
13  17  8
14  19  8
16  20  8
17  21  8
18  22  8
19  23  8
20  23  8
21  22  8
4  14  8
4  15  8
5  8  3
7  15  8
7  9  8
9  14  8
9  16  8

$$$$

