235498
  -OEChem-07051213062D

 54 57  0     1  0  0  0  0  0999 V2000
    9.1493    2.3120    0.0000 O   0  0  0  0  0  0  0  0  0  0  0  0
    2.0000   -1.6314    0.0000 O   0  0  0  0  0  0  0  0  0  0  0  0
    3.8076   -1.6772    0.0000 N   0  0  0  0  0  0  0  0  0  0  0  0
    7.3931    1.4209    0.0000 C   0  0  1  0  0  0  0  0  0  0  0  0
    7.3931    0.4209    0.0000 C   0  0  2  0  0  0  0  0  0  0  0  0
    6.5271   -0.0791    0.0000 C   0  0  1  0  0  0  0  0  0  0  0  0
    5.6610    0.4209    0.0000 C   0  0  1  0  0  0  0  0  0  0  0  0
    8.3393    1.7256    0.0000 C   0  0  2  0  0  0  0  0  0  0  0  0
    6.5271    1.9209    0.0000 C   0  0  0  0  0  0  0  0  0  0  0  0
    4.7510   -0.0859    0.0000 C   0  0  2  0  0  0  0  0  0  0  0  0
    8.3393    0.1162    0.0000 C   0  0  0  0  0  0  0  0  0  0  0  0
    5.6610    1.4209    0.0000 C   0  0  0  0  0  0  0  0  0  0  0  0
    8.9229    0.9209    0.0000 C   0  0  0  0  0  0  0  0  0  0  0  0
    6.5431   -1.1206    0.0000 C   0  0  0  0  0  0  0  0  0  0  0  0
    7.3931    2.4209    0.0000 C   0  0  0  0  0  0  0  0  0  0  0  0
    4.7430   -1.1275    0.0000 C   0  0  0  0  0  0  0  0  0  0  0  0
    3.8242    0.4782    0.0000 C   0  0  0  0  0  0  0  0  0  0  0  0
    8.0319    2.6772    0.0000 C   0  0  0  0  0  0  0  0  0  0  0  0
    5.6451   -1.6483    0.0000 C   0  0  0  0  0  0  0  0  0  0  0  0
    4.7587    0.9140    0.0000 C   0  0  0  0  0  0  0  0  0  0  0  0
    2.8763   -0.0498    0.0000 C   0  0  0  0  0  0  0  0  0  0  0  0
    2.8680   -1.1348    0.0000 C   0  0  0  0  0  0  0  0  0  0  0  0
    3.8114   -2.6772    0.0000 C   0  0  0  0  0  0  0  0  0  0  0  0
    7.4830   -0.4243    0.0000 H   0  0  0  0  0  0  0  0  0  0  0  0
    7.2664   -0.4984    0.0000 H   0  0  0  0  0  0  0  0  0  0  0  0
    6.3972    0.8459    0.0000 H   0  0  0  0  0  0  0  0  0  0  0  0
    6.9256    2.3959    0.0000 H   0  0  0  0  0  0  0  0  0  0  0  0
    6.1285    2.3959    0.0000 H   0  0  0  0  0  0  0  0  0  0  0  0
    8.0883   -0.4507    0.0000 H   0  0  0  0  0  0  0  0  0  0  0  0
    8.8767   -0.1930    0.0000 H   0  0  0  0  0  0  0  0  0  0  0  0
    5.4490    2.0035    0.0000 H   0  0  0  0  0  0  0  0  0  0  0  0
    5.0504    1.3133    0.0000 H   0  0  0  0  0  0  0  0  0  0  0  0
    9.3838    0.5062    0.0000 H   0  0  0  0  0  0  0  0  0  0  0  0
    9.3838    1.3356    0.0000 H   0  0  0  0  0  0  0  0  0  0  0  0
    6.7612   -1.7010    0.0000 H   0  0  0  0  0  0  0  0  0  0  0  0
    7.1523   -1.0051    0.0000 H   0  0  0  0  0  0  0  0  0  0  0  0
    8.0131    2.4209    0.0000 H   0  0  0  0  0  0  0  0  0  0  0  0
    7.3931    3.0409    0.0000 H   0  0  0  0  0  0  0  0  0  0  0  0
    6.7731    2.4209    0.0000 H   0  0  0  0  0  0  0  0  0  0  0  0
    4.2324    0.9448    0.0000 H   0  0  0  0  0  0  0  0  0  0  0  0
    3.4343    0.9602    0.0000 H   0  0  0  0  0  0  0  0  0  0  0  0
    8.6219    2.8678    0.0000 H   0  0  0  0  0  0  0  0  0  0  0  0
    7.8414    3.2672    0.0000 H   0  0  0  0  0  0  0  0  0  0  0  0
    7.4420    2.4867    0.0000 H   0  0  0  0  0  0  0  0  0  0  0  0
    5.6475   -2.2683    0.0000 H   0  0  0  0  0  0  0  0  0  0  0  0
    5.3787    0.9093    0.0000 H   0  0  0  0  0  0  0  0  0  0  0  0
    4.7635    1.5340    0.0000 H   0  0  0  0  0  0  0  0  0  0  0  0
    4.1388    0.9188    0.0000 H   0  0  0  0  0  0  0  0  0  0  0  0
    9.7153    2.0589    0.0000 H   0  0  0  0  0  0  0  0  0  0  0  0
    2.6718    0.5355    0.0000 H   0  0  0  0  0  0  0  0  0  0  0  0
    2.2647   -0.1512    0.0000 H   0  0  0  0  0  0  0  0  0  0  0  0
    3.1914   -2.6796    0.0000 H   0  0  0  0  0  0  0  0  0  0  0  0
    3.8138   -3.2972    0.0000 H   0  0  0  0  0  0  0  0  0  0  0  0
    4.4314   -2.6748    0.0000 H   0  0  0  0  0  0  0  0  0  0  0  0
  8  1  1  1  0  0  0
  1 49  1  0  0  0  0
  2 22  2  0  0  0  0
  3 16  1  0  0  0  0
  3 22  1  0  0  0  0
  3 23  1  0  0  0  0
  4  5  1  0  0  0  0
  4  8  1  0  0  0  0
  4  9  1  0  0  0  0
  4 15  1  1  0  0  0
  5  6  1  0  0  0  0
  5 11  1  0  0  0  0
  5 24  1  6  0  0  0
  6  7  1  0  0  0  0
  6 14  1  0  0  0  0
  6 25  1  1  0  0  0
  7 10  1  0  0  0  0
  7 12  1  0  0  0  0
  7 26  1  6  0  0  0
  8 13  1  0  0  0  0
  8 18  1  0  0  0  0
  9 12  1  0  0  0  0
  9 27  1  0  0  0  0
  9 28  1  0  0  0  0
 10 16  1  0  0  0  0
 10 17  1  0  0  0  0
 10 20  1  1  0  0  0
 11 13  1  0  0  0  0
 11 29  1  0  0  0  0
 11 30  1  0  0  0  0
 12 31  1  0  0  0  0
 12 32  1  0  0  0  0
 13 33  1  0  0  0  0
 13 34  1  0  0  0  0
 14 19  1  0  0  0  0
 14 35  1  0  0  0  0
 14 36  1  0  0  0  0
 15 37  1  0  0  0  0
 15 38  1  0  0  0  0
 15 39  1  0  0  0  0
 16 19  2  0  0  0  0
 17 21  1  0  0  0  0
 17 40  1  0  0  0  0
 17 41  1  0  0  0  0
 18 42  1  0  0  0  0
 18 43  1  0  0  0  0
 18 44  1  0  0  0  0
 19 45  1  0  0  0  0
 20 46  1  0  0  0  0
 20 47  1  0  0  0  0
 20 48  1  0  0  0  0
 21 22  1  0  0  0  0
 21 50  1  0  0  0  0
 21 51  1  0  0  0  0
 23 52  1  0  0  0  0
 23 53  1  0  0  0  0
 23 54  1  0  0  0  0
M  END
> <PUBCHEM_COMPOUND_CID>
235498

> <PUBCHEM_COMPOUND_CANONICALIZED>
1

> <PUBCHEM_CACTVS_COMPLEXITY>
584

> <PUBCHEM_CACTVS_HBOND_ACCEPTOR>
2

> <PUBCHEM_CACTVS_HBOND_DONOR>
1

> <PUBCHEM_CACTVS_ROTATABLE_BOND>
0

> <PUBCHEM_CACTVS_SUBSKEYS>
AAADceB6MAAAAAAAAAAAAAAAAAAAAYAAAAA8QIAAAAAAAGCAAAAAHgAACAAAD0yBgAQCAAMAAgCIACVSUAAAAAAgAgAACAEIAAgAABIAgAAEQAAEhgCIAAOYyfCPgAAAAAAAAACAAAQAACAAAYAADAAAAA==

> <PUBCHEM_IUPAC_OPENEYE_NAME>
(1S,3aS,3bR,9aR,9bS,11aS)-1-hydroxy-1,6,9a,11a-tetramethyl-2,3,3a,3b,4,8,9,9b,10,11-decahydroindeno[5,4-f]quinolin-7-one

> <PUBCHEM_IUPAC_CAS_NAME>
(1S,3aS,3bR,9aR,9bS,11aS)-1-hydroxy-1,6,9a,11a-tetramethyl-2,3,3a,3b,4,8,9,9b,10,11-decahydroindeno[5,4-f]quinolin-7-one

> <PUBCHEM_IUPAC_NAME>
(1S,3aS,3bR,9aR,9bS,11aS)-1-hydroxy-1,6,9a,11a-tetramethyl-2,3,3a,3b,4,8,9,9b,10,11-decahydroindeno[5,4-f]quinolin-7-one

> <PUBCHEM_IUPAC_SYSTEMATIC_NAME>
(1S,3aS,3bR,9aR,9bS,11aS)-1,6,9a,11a-tetramethyl-1-oxidanyl-2,3,3a,3b,4,8,9,9b,10,11-decahydroindeno[5,4-f]quinolin-7-one

> <PUBCHEM_IUPAC_TRADITIONAL_NAME>
(1S,3aS,3bR,9aR,9bS,11aS)-1-hydroxy-1,6,9a,11a-tetramethyl-2,3,3a,3b,4,8,9,9b,10,11-decahydroindeno[5,4-f]quinolin-7-one

> <PUBCHEM_IUPAC_INCHI>
InChI=1S/C20H31NO2/c1-18-10-9-17(22)21(4)16(18)6-5-13-14(18)7-11-19(2)15(13)8-12-20(19,3)23/h6,13-15,23H,5,7-12H2,1-4H3/t13-,14+,15+,18-,19+,20+/m1/s1

> <PUBCHEM_IUPAC_INCHIKEY>
PWVLZAWWMIOCEB-BAUWWDCUSA-N

> <PUBCHEM_XLOGP3_AA>
3

> <PUBCHEM_EXACT_MASS>
317.235479

> <PUBCHEM_MOLECULAR_FORMULA>
C20H31NO2

> <PUBCHEM_MOLECULAR_WEIGHT>
317.46564

> <PUBCHEM_OPENEYE_CAN_SMILES>
CC12CCC(=O)N(C1=CCC3C2CCC4(C3CCC4(C)O)C)C

> <PUBCHEM_OPENEYE_ISO_SMILES>
C[C@]12CCC(=O)N(C1=CC[C@@H]3[C@@H]2CC[C@]4([C@H]3CC[C@]4(C)O)C)C

> <PUBCHEM_CACTVS_TPSA>
40.5

> <PUBCHEM_MONOISOTOPIC_WEIGHT>
317.235479

> <PUBCHEM_TOTAL_CHARGE>
0

> <PUBCHEM_HEAVY_ATOM_COUNT>
23

> <PUBCHEM_ATOM_DEF_STEREO_COUNT>
6

> <PUBCHEM_ATOM_UDEF_STEREO_COUNT>
0

> <PUBCHEM_BOND_DEF_STEREO_COUNT>
0

> <PUBCHEM_BOND_UDEF_STEREO_COUNT>
0

> <PUBCHEM_ISOTOPIC_ATOM_COUNT>
0

> <PUBCHEM_COMPONENT_COUNT>
1

> <PUBCHEM_CACTVS_TAUTO_COUNT>
2

> <PUBCHEM_COORDINATE_TYPE>
1
5
255

> <PUBCHEM_BONDANNOTATIONS>
8  1  5
10  20  5
4  15  5
5  24  6
6  25  5
7  26  6

$$$$

