185071
  -OEChem-07051212592D

 31 32  0     1  0  0  0  0  0999 V2000
    2.0000    1.7127    0.0000 O   0  0  0  0  0  0  0  0  0  0  0  0
    3.7569   -1.3783    0.0000 O   0  0  0  0  0  0  0  0  0  0  0  0
    2.1096   -0.8430    0.0000 O   0  0  0  0  0  0  0  0  0  0  0  0
    4.3479    1.6249    0.0000 N   0  0  3  0  0  0  0  0  0  0  0  0
    4.3479    0.6249    0.0000 C   0  0  2  0  0  0  0  0  0  0  0  0
    3.3968    0.3159    0.0000 C   0  0  1  0  0  0  0  0  0  0  0  0
    2.8090    1.1249    0.0000 C   0  0  1  0  0  0  0  0  0  0  0  0
    3.3968    1.9340    0.0000 C   0  0  0  0  0  0  0  0  0  0  0  0
    5.2941    0.3202    0.0000 C   0  0  0  0  0  0  0  0  0  0  0  0
    5.2941    1.9297    0.0000 C   0  0  0  0  0  0  0  0  0  0  0  0
    5.8777    1.1249    0.0000 C   0  0  0  0  0  0  0  0  0  0  0  0
    2.0000    0.5372    0.0000 C   0  0  0  0  0  0  0  0  0  0  0  0
    3.0878   -0.6351    0.0000 C   0  0  0  0  0  0  0  0  0  0  0  0
    3.4479   -2.3293    0.0000 C   0  0  0  0  0  0  0  0  0  0  0  0
    4.3490   -0.2251    0.0000 H   0  0  0  0  0  0  0  0  0  0  0  0
    2.7844    0.2189    0.0000 H   0  0  0  0  0  0  0  0  0  0  0  0
    3.6490    2.5004    0.0000 H   0  0  0  0  0  0  0  0  0  0  0  0
    2.8599    2.2440    0.0000 H   0  0  0  0  0  0  0  0  0  0  0  0
    5.0430   -0.2467    0.0000 H   0  0  0  0  0  0  0  0  0  0  0  0
    5.8315    0.0110    0.0000 H   0  0  0  0  0  0  0  0  0  0  0  0
    5.8315    2.2389    0.0000 H   0  0  0  0  0  0  0  0  0  0  0  0
    5.0430    2.4966    0.0000 H   0  0  0  0  0  0  0  0  0  0  0  0
    6.3386    0.7102    0.0000 H   0  0  0  0  0  0  0  0  0  0  0  0
    6.3386    1.5397    0.0000 H   0  0  0  0  0  0  0  0  0  0  0  0
    1.6356    1.0388    0.0000 H   0  0  0  0  0  0  0  0  0  0  0  0
    1.4984    0.1727    0.0000 H   0  0  0  0  0  0  0  0  0  0  0  0
    2.3644    0.0356    0.0000 H   0  0  0  0  0  0  0  0  0  0  0  0
    2.0648    2.3293    0.0000 H   0  0  0  0  0  0  0  0  0  0  0  0
    2.8582   -2.1377    0.0000 H   0  0  0  0  0  0  0  0  0  0  0  0
    3.2563   -2.9190    0.0000 H   0  0  0  0  0  0  0  0  0  0  0  0
    4.0376   -2.5209    0.0000 H   0  0  0  0  0  0  0  0  0  0  0  0
  7  1  1  6  0  0  0
  1 28  1  0  0  0  0
  2 13  1  0  0  0  0
  2 14  1  0  0  0  0
  3 13  2  0  0  0  0
  4  5  1  0  0  0  0
  4  8  1  0  0  0  0
  4 10  1  0  0  0  0
  5  6  1  0  0  0  0
  5  9  1  0  0  0  0
  5 15  1  6  0  0  0
  6  7  1  0  0  0  0
  6 13  1  6  0  0  0
  6 16  1  0  0  0  0
  7  8  1  0  0  0  0
  7 12  1  0  0  0  0
  8 17  1  0  0  0  0
  8 18  1  0  0  0  0
  9 11  1  0  0  0  0
  9 19  1  0  0  0  0
  9 20  1  0  0  0  0
 10 11  1  0  0  0  0
 10 21  1  0  0  0  0
 10 22  1  0  0  0  0
 11 23  1  0  0  0  0
 11 24  1  0  0  0  0
 12 25  1  0  0  0  0
 12 26  1  0  0  0  0
 12 27  1  0  0  0  0
 14 29  1  0  0  0  0
 14 30  1  0  0  0  0
 14 31  1  0  0  0  0
M  END
> <PUBCHEM_COMPOUND_CID>
185071

> <PUBCHEM_COMPOUND_CANONICALIZED>
1

> <PUBCHEM_CACTVS_COMPLEXITY>
256

> <PUBCHEM_CACTVS_HBOND_ACCEPTOR>
4

> <PUBCHEM_CACTVS_HBOND_DONOR>
1

> <PUBCHEM_CACTVS_ROTATABLE_BOND>
2

> <PUBCHEM_CACTVS_SUBSKEYS>
AAADceByMAAAAAAAAAAAAAAAAAAAAWLAAAAAAAAAAAAWAAAAAAAAHgAACAAADWzBgAYCCAMABgAIAACQCAAAAAAAAAAAAAEIAAACAB4AgAAEQAAHIACQAAG8yEAOgAAAAAAAAAAAAAAAAAAAAAAAAAAAAA==

> <PUBCHEM_IUPAC_OPENEYE_NAME>
methyl (1S,2S,8S)-2-hydroxy-2-methyl-1,3,5,6,7,8-hexahydropyrrolizine-1-carboxylate

> <PUBCHEM_IUPAC_CAS_NAME>
(1S,2S,8S)-2-hydroxy-2-methyl-1,3,5,6,7,8-hexahydropyrrolizine-1-carboxylic acid methyl ester

> <PUBCHEM_IUPAC_NAME>
methyl (1S,2S,8S)-2-hydroxy-2-methyl-1,3,5,6,7,8-hexahydropyrrolizine-1-carboxylate

> <PUBCHEM_IUPAC_SYSTEMATIC_NAME>
methyl (1S,2S,8S)-2-methyl-2-oxidanyl-1,3,5,6,7,8-hexahydropyrrolizine-1-carboxylate

> <PUBCHEM_IUPAC_TRADITIONAL_NAME>
(1S,2S,8S)-2-hydroxy-2-methyl-pyrrolizidine-1-carboxylic acid methyl ester

> <PUBCHEM_IUPAC_INCHI>
InChI=1S/C10H17NO3/c1-10(13)6-11-5-3-4-7(11)8(10)9(12)14-2/h7-8,13H,3-6H2,1-2H3/t7-,8+,10+/m0/s1

> <PUBCHEM_IUPAC_INCHIKEY>
LADVYSUMGRTFSZ-QXFUBDJGSA-N

> <PUBCHEM_XLOGP3_AA>
0.6

> <PUBCHEM_EXACT_MASS>
199.120843

> <PUBCHEM_MOLECULAR_FORMULA>
C10H17NO3

> <PUBCHEM_MOLECULAR_WEIGHT>
199.24688

> <PUBCHEM_OPENEYE_CAN_SMILES>
CC1(CN2CCCC2C1C(=O)OC)O

> <PUBCHEM_OPENEYE_ISO_SMILES>
C[C@]1(CN2CCC[C@H]2[C@@H]1C(=O)OC)O

> <PUBCHEM_CACTVS_TPSA>
49.8

> <PUBCHEM_MONOISOTOPIC_WEIGHT>
199.120843

> <PUBCHEM_TOTAL_CHARGE>
0

> <PUBCHEM_HEAVY_ATOM_COUNT>
14

> <PUBCHEM_ATOM_DEF_STEREO_COUNT>
3

> <PUBCHEM_ATOM_UDEF_STEREO_COUNT>
0

> <PUBCHEM_BOND_DEF_STEREO_COUNT>
0

> <PUBCHEM_BOND_UDEF_STEREO_COUNT>
0

> <PUBCHEM_ISOTOPIC_ATOM_COUNT>
0

> <PUBCHEM_COMPONENT_COUNT>
1

> <PUBCHEM_CACTVS_TAUTO_COUNT>
1

> <PUBCHEM_COORDINATE_TYPE>
1
5
255

> <PUBCHEM_BONDANNOTATIONS>
7  1  6
5  15  6
6  13  6

$$$$

