17396001
  -OEChem-06241222532D

 38 40  0     0  0  0  0  0  0999 V2000
    3.6636    0.3194    0.0000 S   0  0  0  0  0  0  0  0  0  0  0  0
   13.3035   -1.2981    0.0000 O   0  0  0  0  0  0  0  0  0  0  0  0
    6.3092    0.7261    0.0000 O   0  0  0  0  0  0  0  0  0  0  0  0
    8.0413    1.7261    0.0000 O   0  0  0  0  0  0  0  0  0  0  0  0
    5.4432   -0.7739    0.0000 O   0  0  0  0  0  0  0  0  0  0  0  0
   11.5333   -1.3086    0.0000 N   0  0  0  0  0  0  0  0  0  0  0  0
   11.5333    0.7608    0.0000 C   0  0  0  0  0  0  0  0  0  0  0  0
   10.6394    0.2261    0.0000 C   0  0  0  0  0  0  0  0  0  0  0  0
   12.4394    0.2469    0.0000 C   0  0  0  0  0  0  0  0  0  0  0  0
   10.6394   -0.7739    0.0000 C   0  0  0  0  0  0  0  0  0  0  0  0
    9.7734    0.7261    0.0000 C   0  0  0  0  0  0  0  0  0  0  0  0
   12.4394   -0.7947    0.0000 C   0  0  0  0  0  0  0  0  0  0  0  0
    8.9073    0.2261    0.0000 C   0  0  0  0  0  0  0  0  0  0  0  0
    9.7734   -1.2739    0.0000 C   0  0  0  0  0  0  0  0  0  0  0  0
    8.9073   -0.7739    0.0000 C   0  0  0  0  0  0  0  0  0  0  0  0
    8.0413    0.7261    0.0000 C   0  0  0  0  0  0  0  0  0  0  0  0
    7.1753    0.2261    0.0000 C   0  0  0  0  0  0  0  0  0  0  0  0
    4.5772    0.7261    0.0000 C   0  0  0  0  0  0  0  0  0  0  0  0
    5.4432    0.2261    0.0000 C   0  0  0  0  0  0  0  0  0  0  0  0
    2.9945    1.0625    0.0000 C   0  0  0  0  0  0  0  0  0  0  0  0
    4.4727    1.7206    0.0000 C   0  0  0  0  0  0  0  0  0  0  0  0
    3.4945    1.9285    0.0000 C   0  0  0  0  0  0  0  0  0  0  0  0
    2.0000    0.9580    0.0000 C   0  0  0  0  0  0  0  0  0  0  0  0
   11.9269    1.2398    0.0000 H   0  0  0  0  0  0  0  0  0  0  0  0
   11.1287    1.2305    0.0000 H   0  0  0  0  0  0  0  0  0  0  0  0
   13.0502    0.1408    0.0000 H   0  0  0  0  0  0  0  0  0  0  0  0
   12.6484    0.8306    0.0000 H   0  0  0  0  0  0  0  0  0  0  0  0
    9.7734    1.3461    0.0000 H   0  0  0  0  0  0  0  0  0  0  0  0
   11.5261   -1.9285    0.0000 H   0  0  0  0  0  0  0  0  0  0  0  0
    9.7734   -1.8939    0.0000 H   0  0  0  0  0  0  0  0  0  0  0  0
    8.3704   -1.0839    0.0000 H   0  0  0  0  0  0  0  0  0  0  0  0
    6.7768   -0.2489    0.0000 H   0  0  0  0  0  0  0  0  0  0  0  0
    7.5738   -0.2489    0.0000 H   0  0  0  0  0  0  0  0  0  0  0  0
    4.9334    2.1355    0.0000 H   0  0  0  0  0  0  0  0  0  0  0  0
    3.2424    2.4949    0.0000 H   0  0  0  0  0  0  0  0  0  0  0  0
    1.9352    1.5746    0.0000 H   0  0  0  0  0  0  0  0  0  0  0  0
    1.3834    0.8932    0.0000 H   0  0  0  0  0  0  0  0  0  0  0  0
    2.0648    0.3414    0.0000 H   0  0  0  0  0  0  0  0  0  0  0  0
  1 18  1  0  0  0  0
  1 20  1  0  0  0  0
  2 12  2  0  0  0  0
  3 17  1  0  0  0  0
  3 19  1  0  0  0  0
  4 16  2  0  0  0  0
  5 19  2  0  0  0  0
  6 10  1  0  0  0  0
  6 12  1  0  0  0  0
  6 29  1  0  0  0  0
  7  8  1  0  0  0  0
  7  9  1  0  0  0  0
  7 24  1  0  0  0  0
  7 25  1  0  0  0  0
  8 10  2  0  0  0  0
  8 11  1  0  0  0  0
  9 12  1  0  0  0  0
  9 26  1  0  0  0  0
  9 27  1  0  0  0  0
 10 14  1  0  0  0  0
 11 13  2  0  0  0  0
 11 28  1  0  0  0  0
 13 15  1  0  0  0  0
 13 16  1  0  0  0  0
 14 15  2  0  0  0  0
 14 30  1  0  0  0  0
 15 31  1  0  0  0  0
 16 17  1  0  0  0  0
 17 32  1  0  0  0  0
 17 33  1  0  0  0  0
 18 19  1  0  0  0  0
 18 21  2  0  0  0  0
 20 22  2  0  0  0  0
 20 23  1  0  0  0  0
 21 22  1  0  0  0  0
 21 34  1  0  0  0  0
 22 35  1  0  0  0  0
 23 36  1  0  0  0  0
 23 37  1  0  0  0  0
 23 38  1  0  0  0  0
M  END
> <PUBCHEM_COMPOUND_CID>
17396001

> <PUBCHEM_COMPOUND_CANONICALIZED>
1

> <PUBCHEM_CACTVS_COMPLEXITY>
495

> <PUBCHEM_CACTVS_HBOND_ACCEPTOR>
5

> <PUBCHEM_CACTVS_HBOND_DONOR>
1

> <PUBCHEM_CACTVS_ROTATABLE_BOND>
5

> <PUBCHEM_CACTVS_SUBSKEYS>
AAADccB6OABAAAAAAAAAAAAAAAAAASAAAAA8QAAAAAAAAACxwAAAHgQQAAAADAyh2AIyyYLABAiMAqXSWAKDAIAlChBIiBlAbMgIJjLgtZ2GMQhk1AHo6YeYyfCeCAACAAACAAAQAAQAAAQAAAAAAAAAAA==

> <PUBCHEM_IUPAC_OPENEYE_NAME>
[2-oxo-2-(2-oxo-3,4-dihydro-1H-quinolin-6-yl)ethyl] 5-methylthiophene-2-carboxylate

> <PUBCHEM_IUPAC_CAS_NAME>
5-methyl-2-thiophenecarboxylic acid [2-oxo-2-(2-oxo-3,4-dihydro-1H-quinolin-6-yl)ethyl] ester

> <PUBCHEM_IUPAC_NAME>
[2-oxo-2-(2-oxo-3,4-dihydro-1H-quinolin-6-yl)ethyl] 5-methylthiophene-2-carboxylate

> <PUBCHEM_IUPAC_SYSTEMATIC_NAME>
[2-oxidanylidene-2-(2-oxidanylidene-3,4-dihydro-1H-quinolin-6-yl)ethyl] 5-methylthiophene-2-carboxylate

> <PUBCHEM_IUPAC_TRADITIONAL_NAME>
5-methylthiophene-2-carboxylic acid [2-keto-2-(2-keto-3,4-dihydro-1H-quinolin-6-yl)ethyl] ester

> <PUBCHEM_IUPAC_INCHI>
InChI=1S/C17H15NO4S/c1-10-2-6-15(23-10)17(21)22-9-14(19)12-3-5-13-11(8-12)4-7-16(20)18-13/h2-3,5-6,8H,4,7,9H2,1H3,(H,18,20)

> <PUBCHEM_IUPAC_INCHIKEY>
HLFWOPDOPJZWLX-UHFFFAOYSA-N

> <PUBCHEM_XLOGP3_AA>
2.7

> <PUBCHEM_EXACT_MASS>
329.072179

> <PUBCHEM_MOLECULAR_FORMULA>
C17H15NO4S

> <PUBCHEM_MOLECULAR_WEIGHT>
329.3703

> <PUBCHEM_OPENEYE_CAN_SMILES>
CC1=CC=C(S1)C(=O)OCC(=O)C2=CC3=C(C=C2)NC(=O)CC3

> <PUBCHEM_OPENEYE_ISO_SMILES>
CC1=CC=C(S1)C(=O)OCC(=O)C2=CC3=C(C=C2)NC(=O)CC3

> <PUBCHEM_CACTVS_TPSA>
101

> <PUBCHEM_MONOISOTOPIC_WEIGHT>
329.072179

> <PUBCHEM_TOTAL_CHARGE>
0

> <PUBCHEM_HEAVY_ATOM_COUNT>
23

> <PUBCHEM_ATOM_DEF_STEREO_COUNT>
0

> <PUBCHEM_ATOM_UDEF_STEREO_COUNT>
0

> <PUBCHEM_BOND_DEF_STEREO_COUNT>
0

> <PUBCHEM_BOND_UDEF_STEREO_COUNT>
0

> <PUBCHEM_ISOTOPIC_ATOM_COUNT>
0

> <PUBCHEM_COMPONENT_COUNT>
1

> <PUBCHEM_CACTVS_TAUTO_COUNT>
60

> <PUBCHEM_COORDINATE_TYPE>
1
5
255

> <PUBCHEM_BONDANNOTATIONS>
1  18  8
1  20  8
10  14  8
11  13  8
13  15  8
14  15  8
18  21  8
20  22  8
21  22  8
8  10  8
8  11  8

$$$$

