168199
  -OEChem-07051212562D

 52 56  0     1  0  0  0  0  0999 V2000
    5.4751   -0.9424    0.0000 O   0  0  0  0  0  0  0  0  0  0  0  0
    4.3009    2.5697    0.0000 O   0  0  0  0  0  0  0  0  0  0  0  0
    2.7696    3.4323    0.0000 O   0  0  0  0  0  0  0  0  0  0  0  0
    5.6660   -3.4323    0.0000 O   0  0  0  0  0  0  0  0  0  0  0  0
    3.8000    0.1453    0.0000 C   0  0  1  0  0  0  0  0  0  0  0  0
    3.8000    1.1453    0.0000 C   0  0  2  0  0  0  0  0  0  0  0  0
    4.6660   -0.3547    0.0000 C   0  0  1  0  0  0  0  0  0  0  0  0
    2.9061    1.6800    0.0000 C   0  0  2  0  0  0  0  0  0  0  0  0
    4.6660    1.6453    0.0000 C   0  0  1  0  0  0  0  0  0  0  0  0
    5.5321    0.1453    0.0000 C   0  0  1  0  0  0  0  0  0  0  0  0
    2.9061   -0.3893    0.0000 C   0  0  0  0  0  0  0  0  0  0  0  0
    5.5321    1.1453    0.0000 C   0  0  0  0  0  0  0  0  0  0  0  0
    3.8570   -0.9424    0.0000 C   0  0  0  0  0  0  0  0  0  0  0  0
    2.0000    1.1662    0.0000 C   0  0  0  0  0  0  0  0  0  0  0  0
    2.0000    0.1245    0.0000 C   0  0  0  0  0  0  0  0  0  0  0  0
    3.3002   -0.7208    0.0000 C   0  0  0  0  0  0  0  0  0  0  0  0
    5.1660   -1.8935    0.0000 C   0  0  1  0  0  0  0  0  0  0  0  0
    4.1660   -1.8935    0.0000 C   0  0  0  0  0  0  0  0  0  0  0  0
    3.3073    2.5892    0.0000 C   0  0  0  0  0  0  0  0  0  0  0  0
    2.4161    2.5518    0.0000 C   0  0  0  0  0  0  0  0  0  0  0  0
    6.3981   -0.3547    0.0000 C   0  0  0  0  0  0  0  0  0  0  0  0
    4.8570   -2.8446    0.0000 C   0  0  0  0  0  0  0  0  0  0  0  0
    6.1660   -1.8935    0.0000 C   0  0  0  0  0  0  0  0  0  0  0  0
    6.4751   -2.8446    0.0000 C   0  0  0  0  0  0  0  0  0  0  0  0
    3.0639    0.7203    0.0000 H   0  0  0  0  0  0  0  0  0  0  0  0
    5.3097    2.2005    0.0000 H   0  0  0  0  0  0  0  0  0  0  0  0
    5.5321   -0.4747    0.0000 H   0  0  0  0  0  0  0  0  0  0  0  0
    2.5124   -0.8683    0.0000 H   0  0  0  0  0  0  0  0  0  0  0  0
    3.3107   -0.8591    0.0000 H   0  0  0  0  0  0  0  0  0  0  0  0
    6.1426    1.0377    0.0000 H   0  0  0  0  0  0  0  0  0  0  0  0
    5.7441    1.7280    0.0000 H   0  0  0  0  0  0  0  0  0  0  0  0
    3.5470   -0.4055    0.0000 H   0  0  0  0  0  0  0  0  0  0  0  0
    3.2906   -1.1946    0.0000 H   0  0  0  0  0  0  0  0  0  0  0  0
    1.7909    1.7498    0.0000 H   0  0  0  0  0  0  0  0  0  0  0  0
    1.3891    1.0601    0.0000 H   0  0  0  0  0  0  0  0  0  0  0  0
    1.3891    0.2306    0.0000 H   0  0  0  0  0  0  0  0  0  0  0  0
    1.7909   -0.4592    0.0000 H   0  0  0  0  0  0  0  0  0  0  0  0
    2.7632   -0.4108    0.0000 H   0  0  0  0  0  0  0  0  0  0  0  0
    2.9902   -1.2578    0.0000 H   0  0  0  0  0  0  0  0  0  0  0  0
    3.8371   -1.0307    0.0000 H   0  0  0  0  0  0  0  0  0  0  0  0
    3.5596   -2.0224    0.0000 H   0  0  0  0  0  0  0  0  0  0  0  0
    4.2308   -2.5101    0.0000 H   0  0  0  0  0  0  0  0  0  0  0  0
    2.9566    2.8555    0.0000 H   0  0  0  0  0  0  0  0  0  0  0  0
    2.1123    3.0922    0.0000 H   0  0  0  0  0  0  0  0  0  0  0  0
    1.8756    2.2480    0.0000 H   0  0  0  0  0  0  0  0  0  0  0  0
    6.0881   -0.8916    0.0000 H   0  0  0  0  0  0  0  0  0  0  0  0
    6.9350   -0.6647    0.0000 H   0  0  0  0  0  0  0  0  0  0  0  0
    6.7081    0.1823    0.0000 H   0  0  0  0  0  0  0  0  0  0  0  0
    4.2906   -2.5924    0.0000 H   0  0  0  0  0  0  0  0  0  0  0  0
    4.5470   -3.3815    0.0000 H   0  0  0  0  0  0  0  0  0  0  0  0
    6.5305   -1.3919    0.0000 H   0  0  0  0  0  0  0  0  0  0  0  0
    7.0647   -3.0361    0.0000 H   0  0  0  0  0  0  0  0  0  0  0  0
  7  1  1  1  0  0  0
 17  1  1  6  0  0  0
  2  9  1  0  0  0  0
  2 19  1  0  0  0  0
  3 19  2  0  0  0  0
  4 22  1  0  0  0  0
  4 24  1  0  0  0  0
  5  6  1  0  0  0  0
  5  7  1  0  0  0  0
  5 11  1  0  0  0  0
  5 16  1  6  0  0  0
  6  8  1  0  0  0  0
  6  9  1  0  0  0  0
  6 25  1  1  0  0  0
  7 10  1  0  0  0  0
  7 13  1  0  0  0  0
  8 14  1  0  0  0  0
  8 19  1  0  0  0  0
  8 20  1  1  0  0  0
  9 12  1  0  0  0  0
  9 26  1  1  0  0  0
 10 12  1  0  0  0  0
 10 21  1  1  0  0  0
 10 27  1  0  0  0  0
 11 15  1  0  0  0  0
 11 28  1  0  0  0  0
 11 29  1  0  0  0  0
 12 30  1  0  0  0  0
 12 31  1  0  0  0  0
 13 18  1  0  0  0  0
 13 32  1  0  0  0  0
 13 33  1  0  0  0  0
 14 15  1  0  0  0  0
 14 34  1  0  0  0  0
 14 35  1  0  0  0  0
 15 36  1  0  0  0  0
 15 37  1  0  0  0  0
 16 38  1  0  0  0  0
 16 39  1  0  0  0  0
 16 40  1  0  0  0  0
 17 18  1  0  0  0  0
 17 22  1  0  0  0  0
 17 23  1  0  0  0  0
 18 41  1  0  0  0  0
 18 42  1  0  0  0  0
 20 43  1  0  0  0  0
 20 44  1  0  0  0  0
 20 45  1  0  0  0  0
 21 46  1  0  0  0  0
 21 47  1  0  0  0  0
 21 48  1  0  0  0  0
 22 49  1  0  0  0  0
 22 50  1  0  0  0  0
 23 24  2  0  0  0  0
 23 51  1  0  0  0  0
 24 52  1  0  0  0  0
M  END
> <PUBCHEM_COMPOUND_CID>
168199

> <PUBCHEM_COMPOUND_CANONICALIZED>
1

> <PUBCHEM_CACTVS_COMPLEXITY>
629

> <PUBCHEM_CACTVS_HBOND_ACCEPTOR>
4

> <PUBCHEM_CACTVS_HBOND_DONOR>
0

> <PUBCHEM_CACTVS_ROTATABLE_BOND>
0

> <PUBCHEM_CACTVS_SUBSKEYS>
AAADceB4OAAAAAAAAAAAAAAAAAAAASJEAAAwYAAAAAAAAEjAAAAAGgAAAAAAD1SggAICCAAABACIACDSCAAACAAgIAAIAAEAAAgBBBIAIAACAAAEwAACIAHK7PzPgAAAAAAAAADCAAYAADAAAAAAAAAAAA==

> <PUBCHEM_IUPAC_INCHI>
InChI=1S/C20H28O4/c1-13-11-14-15-17(2,16(21)23-14)5-4-6-18(15,3)20(13)8-7-19(24-20)9-10-22-12-19/h9-10,13-15H,4-8,11-12H2,1-3H3/t13-,14-,15+,17+,18+,19-,20-/m1/s1

> <PUBCHEM_IUPAC_INCHIKEY>
OQLCWZJEAYGVQE-TXWGWWACSA-N

> <PUBCHEM_XLOGP3_AA>
3.3

> <PUBCHEM_EXACT_MASS>
332.198759

> <PUBCHEM_MOLECULAR_FORMULA>
C20H28O4

> <PUBCHEM_MOLECULAR_WEIGHT>
332.43392

> <PUBCHEM_OPENEYE_CAN_SMILES>
CC1CC2C3C(CCCC3(C14CCC5(O4)COC=C5)C)(C(=O)O2)C

> <PUBCHEM_OPENEYE_ISO_SMILES>
C[C@@H]1C[C@@H]2[C@H]3[C@](CCC[C@@]3([C@@]14CC[C@]5(O4)COC=C5)C)(C(=O)O2)C

> <PUBCHEM_CACTVS_TPSA>
44.8

> <PUBCHEM_MONOISOTOPIC_WEIGHT>
332.198759

> <PUBCHEM_TOTAL_CHARGE>
0

> <PUBCHEM_HEAVY_ATOM_COUNT>
24

> <PUBCHEM_ATOM_DEF_STEREO_COUNT>
7

> <PUBCHEM_ATOM_UDEF_STEREO_COUNT>
0

> <PUBCHEM_BOND_DEF_STEREO_COUNT>
0

> <PUBCHEM_BOND_UDEF_STEREO_COUNT>
0

> <PUBCHEM_ISOTOPIC_ATOM_COUNT>
0

> <PUBCHEM_COMPONENT_COUNT>
1

> <PUBCHEM_CACTVS_TAUTO_COUNT>
1

> <PUBCHEM_COORDINATE_TYPE>
1
5
255

> <PUBCHEM_BONDANNOTATIONS>
17  1  6
7  1  5
10  21  5
5  16  6
6  25  5
8  20  5
9  26  5

$$$$

