47205709
  -OEChem-06241223002D

 31 32  0     0  0  0  0  0  0999 V2000
    2.0000   -3.2702    0.0000 F   0  0  0  0  0  0  0  0  0  0  0  0
    3.7320   -4.2702    0.0000 O   0  0  0  0  0  0  0  0  0  0  0  0
    3.7320    1.7298    0.0000 O   0  0  0  0  0  0  0  0  0  0  0  0
    5.4641    1.7298    0.0000 N   0  0  0  0  0  0  0  0  0  0  0  0
    4.9641    4.2686    0.0000 N   0  0  0  0  0  0  0  0  0  0  0  0
    5.9641    4.2686    0.0000 N   0  0  0  0  0  0  0  0  0  0  0  0
    3.7320   -1.2702    0.0000 C   0  0  0  0  0  0  0  0  0  0  0  0
    2.8660   -1.7702    0.0000 C   0  0  0  0  0  0  0  0  0  0  0  0
    4.5981   -1.7702    0.0000 C   0  0  0  0  0  0  0  0  0  0  0  0
    3.7320   -3.2702    0.0000 C   0  0  0  0  0  0  0  0  0  0  0  0
    3.7320   -0.2702    0.0000 C   0  0  0  0  0  0  0  0  0  0  0  0
    2.8660   -2.7702    0.0000 C   0  0  0  0  0  0  0  0  0  0  0  0
    4.5981   -2.7702    0.0000 C   0  0  0  0  0  0  0  0  0  0  0  0
    5.4641    2.7298    0.0000 C   0  0  0  0  0  0  0  0  0  0  0  0
    4.5981    0.2298    0.0000 C   0  0  0  0  0  0  0  0  0  0  0  0
    4.5981    1.2298    0.0000 C   0  0  0  0  0  0  0  0  0  0  0  0
    4.6551    3.3176    0.0000 C   0  0  0  0  0  0  0  0  0  0  0  0
    6.2731    3.3176    0.0000 C   0  0  0  0  0  0  0  0  0  0  0  0
    4.5981   -4.7702    0.0000 C   0  0  0  0  0  0  0  0  0  0  0  0
    2.3291   -1.4602    0.0000 H   0  0  0  0  0  0  0  0  0  0  0  0
    5.1350   -1.4602    0.0000 H   0  0  0  0  0  0  0  0  0  0  0  0
    3.1951    0.0398    0.0000 H   0  0  0  0  0  0  0  0  0  0  0  0
    5.1350   -3.0802    0.0000 H   0  0  0  0  0  0  0  0  0  0  0  0
    5.1350   -0.0802    0.0000 H   0  0  0  0  0  0  0  0  0  0  0  0
    6.0010    1.4198    0.0000 H   0  0  0  0  0  0  0  0  0  0  0  0
    4.0654    3.1260    0.0000 H   0  0  0  0  0  0  0  0  0  0  0  0
    6.8628    3.1260    0.0000 H   0  0  0  0  0  0  0  0  0  0  0  0
    4.5997    4.7702    0.0000 H   0  0  0  0  0  0  0  0  0  0  0  0
    4.2881   -5.3072    0.0000 H   0  0  0  0  0  0  0  0  0  0  0  0
    5.1350   -5.0802    0.0000 H   0  0  0  0  0  0  0  0  0  0  0  0
    4.9081   -4.2333    0.0000 H   0  0  0  0  0  0  0  0  0  0  0  0
  1 12  1  0  0  0  0
  2 10  1  0  0  0  0
  2 19  1  0  0  0  0
  3 16  2  0  0  0  0
  4 14  1  0  0  0  0
  4 16  1  0  0  0  0
  4 25  1  0  0  0  0
  5  6  1  0  0  0  0
  5 17  1  0  0  0  0
  5 28  1  0  0  0  0
  6 18  2  0  0  0  0
  7  8  2  0  0  0  0
  7  9  1  0  0  0  0
  7 11  1  0  0  0  0
  8 12  1  0  0  0  0
  8 20  1  0  0  0  0
  9 13  2  0  0  0  0
  9 21  1  0  0  0  0
 10 12  2  0  0  0  0
 10 13  1  0  0  0  0
 11 15  2  3  0  0  0
 11 22  1  0  0  0  0
 13 23  1  0  0  0  0
 14 17  2  0  0  0  0
 14 18  1  0  0  0  0
 15 16  1  0  0  0  0
 15 24  1  0  0  0  0
 17 26  1  0  0  0  0
 18 27  1  0  0  0  0
 19 29  1  0  0  0  0
 19 30  1  0  0  0  0
 19 31  1  0  0  0  0
M  END
> <PUBCHEM_COMPOUND_CID>
47205709

> <PUBCHEM_COMPOUND_CANONICALIZED>
1

> <PUBCHEM_CACTVS_COMPLEXITY>
338

> <PUBCHEM_CACTVS_HBOND_ACCEPTOR>
4

> <PUBCHEM_CACTVS_HBOND_DONOR>
2

> <PUBCHEM_CACTVS_ROTATABLE_BOND>
4

> <PUBCHEM_CACTVS_SUBSKEYS>
AAADccBzMQAAAAAAAAAAAAAAAAAAAWAAAAAwAAAAAAAAAAABwAAAHwAYAAAADAzBmg4+xpLjBACqAjV3UACSDAAhsgAYuaAmfNgMZqKEcVqQtCAk3BGIqYeAwAAOIAAAAAAAAABAAAAAAAAAAAAAAAAAAA==

> <PUBCHEM_IUPAC_OPENEYE_NAME>
3-(3-fluoro-4-methoxy-phenyl)-N-(1H-pyrazol-4-yl)prop-2-enamide

> <PUBCHEM_IUPAC_CAS_NAME>
3-(3-fluoro-4-methoxyphenyl)-N-(1H-pyrazol-4-yl)-2-propenamide

> <PUBCHEM_IUPAC_NAME>
3-(3-fluoro-4-methoxyphenyl)-N-(1H-pyrazol-4-yl)prop-2-enamide

> <PUBCHEM_IUPAC_SYSTEMATIC_NAME>
3-(3-fluoranyl-4-methoxy-phenyl)-N-(1H-pyrazol-4-yl)prop-2-enamide

> <PUBCHEM_IUPAC_TRADITIONAL_NAME>
3-(3-fluoro-4-methoxy-phenyl)-N-(1H-pyrazol-4-yl)acrylamide

> <PUBCHEM_IUPAC_INCHI>
InChI=1S/C13H12FN3O2/c1-19-12-4-2-9(6-11(12)14)3-5-13(18)17-10-7-15-16-8-10/h2-8H,1H3,(H,15,16)(H,17,18)

> <PUBCHEM_IUPAC_INCHIKEY>
BHGKDQZYTQPFCC-UHFFFAOYSA-N

> <PUBCHEM_XLOGP3_AA>
1.5

> <PUBCHEM_EXACT_MASS>
261.091355

> <PUBCHEM_MOLECULAR_FORMULA>
C13H12FN3O2

> <PUBCHEM_MOLECULAR_WEIGHT>
261.251683

> <PUBCHEM_OPENEYE_CAN_SMILES>
COC1=C(C=C(C=C1)C=CC(=O)NC2=CNN=C2)F

> <PUBCHEM_OPENEYE_ISO_SMILES>
COC1=C(C=C(C=C1)C=CC(=O)NC2=CNN=C2)F

> <PUBCHEM_CACTVS_TPSA>
67

> <PUBCHEM_MONOISOTOPIC_WEIGHT>
261.091355

> <PUBCHEM_TOTAL_CHARGE>
0

> <PUBCHEM_HEAVY_ATOM_COUNT>
19

> <PUBCHEM_ATOM_DEF_STEREO_COUNT>
0

> <PUBCHEM_ATOM_UDEF_STEREO_COUNT>
0

> <PUBCHEM_BOND_DEF_STEREO_COUNT>
0

> <PUBCHEM_BOND_UDEF_STEREO_COUNT>
1

> <PUBCHEM_ISOTOPIC_ATOM_COUNT>
0

> <PUBCHEM_COMPONENT_COUNT>
1

> <PUBCHEM_CACTVS_TAUTO_COUNT>
4

> <PUBCHEM_COORDINATE_TYPE>
1
5
255

> <PUBCHEM_BONDANNOTATIONS>
10  12  8
10  13  8
11  15  1
14  17  8
14  18  8
5  17  8
5  6  8
6  18  8
7  8  8
7  9  8
8  12  8
9  13  8

$$$$

