   Color/Form
        POWDER
   from [1]HSDB

   Odor
        FAINTLY AROMATIC
   from [2]HSDB

   Taste
        TASTELESS
   from [3]HSDB

   Melting Point
        MELTS WITH DECOMP BETWEEN 152 DEG & 158 DEG C
   from [4]HSDB

   Solubilities
        INSOL IN WATER; SOL IN CHLOROFORM & ETHER; SOL IN SOLN OF ALKALI
   HYDROXIDES & CARBONATES
   from [5]HSDB

   Other Chemical/Physical Properties

     * CRYSTALS; SPECIFIC OPTICAL ROTATION (ETHANOL, 2%): -5.2 +/- 0.1 DEG
       @ 20 DEG C/D; MP: 162-163 DEG C /L-ISOMER/
     * CRYSTALS; SPECIFIC OPTICAL ROTATION (ETHANOL, 2%): +5.1 +/- 0.1 DEG
       @ 20 DEG C/D; MP: 162 DEG C /D-ISOMER/
     * CREAM-COLORED SOLID; SOL IN DIL ALKALI, 95% ALC, OTHER ORG SOLVENTS
       /DL-ISOMER/

   from [6]HSDB

   Computed Properties
   Molecular Weight                  570.93189 [g/mol]
   Molecular Formula                 C[11]H[12]I[3]NO[2]
   XLogP3-AA                         3.9
   H-Bond Donor                      2
   H-Bond Acceptor                   3
   Rotatable Bond Count              4
   Exact Mass                        570.800223
   MonoIsotopic Mass                 570.800223
   Topological Polar Surface Area    63.3
   Heavy Atom Count                  17
   Formal Charge                     0
   Complexity                        277
   Isotope Atom Count                0
   Defined Atom Stereocenter Count   0
   Undefined Atom Stereocenter Count 1
   Defined Bond Stereocenter Count   0
   Undefined Bond Stereocenter Count 0
   Covalently-Bonded Unit Count      1
   Feature 3D Acceptor Count         2
   Feature 3D Donor Count            1
   Feature 3D Anion Count            1
   Feature 3D Cation Count           1
   Feature 3D Hydrophobe Count       4
   Feature 3D Ring Count             1
   Effective Rotor Count             4
   Conformer Sampling RMSD           0.6
   CID Conformer Count               [7]28

References

   1. http://toxnet.nlm.nih.gov/cgi-bin/sis/search/r?dbs+hsdb:@term+@rn+@rel+96-83-3
   2. http://toxnet.nlm.nih.gov/cgi-bin/sis/search/r?dbs+hsdb:@term+@rn+@rel+96-83-3
   3. http://toxnet.nlm.nih.gov/cgi-bin/sis/search/r?dbs+hsdb:@term+@rn+@rel+96-83-3
   4. http://toxnet.nlm.nih.gov/cgi-bin/sis/search/r?dbs+hsdb:@term+@rn+@rel+96-83-3
   5. http://toxnet.nlm.nih.gov/cgi-bin/sis/search/r?dbs+hsdb:@term+@rn+@rel+96-83-3
   6. http://toxnet.nlm.nih.gov/cgi-bin/sis/search/r?dbs+hsdb:@term+@rn+@rel+96-83-3
   7. http://pubchem.ncbi.nlm.nih.gov/vw3d/vw3d.cgi?cid=3735
