5281412
  -OEChem-07051212572D

 60 67  0     1  0  0  0  0  0999 V2000
    7.3684    1.7552    0.0000 O   0  0  0  0  0  0  0  0  0  0  0  0
    8.9143   -1.7552    0.0000 O   0  0  0  0  0  0  0  0  0  0  0  0
    4.3795    2.5000    0.0000 O   0  0  0  0  0  0  0  0  0  0  0  0
   11.9032   -2.5000    0.0000 O   0  0  0  0  0  0  0  0  0  0  0  0
    6.1115    2.5000    0.0000 O   0  0  0  0  0  0  0  0  0  0  0  0
   10.1712   -2.5000    0.0000 O   0  0  0  0  0  0  0  0  0  0  0  0
    6.1115    0.5000    0.0000 N   0  0  0  0  0  0  0  0  0  0  0  0
   10.1712   -0.5000    0.0000 N   0  0  0  0  0  0  0  0  0  0  0  0
    5.0363   -1.9718    0.0000 N   0  0  0  0  0  0  0  0  0  0  0  0
   11.2464    1.9718    0.0000 N   0  0  0  0  0  0  0  0  0  0  0  0
    5.2455    1.0000    0.0000 C   0  0  1  0  0  0  0  0  0  0  0  0
   11.0372   -1.0000    0.0000 C   0  0  1  0  0  0  0  0  0  0  0  0
   10.1712    0.5000    0.0000 C   0  0  0  0  0  0  0  0  0  0  0  0
    6.1115   -0.5000    0.0000 C   0  0  0  0  0  0  0  0  0  0  0  0
   11.9032   -0.5000    0.0000 C   0  0  0  0  0  0  0  0  0  0  0  0
    4.3795    0.5000    0.0000 C   0  0  0  0  0  0  0  0  0  0  0  0
    4.3795   -0.5000    0.0000 C   0  0  0  0  0  0  0  0  0  0  0  0
   11.9032    0.5000    0.0000 C   0  0  0  0  0  0  0  0  0  0  0  0
    5.2455   -1.0000    0.0000 C   0  0  0  0  0  0  0  0  0  0  0  0
   11.0372    1.0000    0.0000 C   0  0  0  0  0  0  0  0  0  0  0  0
    7.6414    0.0000    0.0000 C   0  0  0  0  0  0  0  0  0  0  0  0
    8.6413    0.0000    0.0000 C   0  0  0  0  0  0  0  0  0  0  0  0
    7.0577    0.8047    0.0000 C   0  0  0  0  0  0  0  0  0  0  0  0
    9.2250   -0.8047    0.0000 C   0  0  0  0  0  0  0  0  0  0  0  0
    9.2250    0.8047    0.0000 C   0  0  0  0  0  0  0  0  0  0  0  0
    7.0577   -0.8047    0.0000 C   0  0  0  0  0  0  0  0  0  0  0  0
   12.6402    1.1671    0.0000 C   0  0  0  0  0  0  0  0  0  0  0  0
    3.6425   -1.1671    0.0000 C   0  0  0  0  0  0  0  0  0  0  0  0
    4.0476   -2.0749    0.0000 C   0  0  0  0  0  0  0  0  0  0  0  0
   12.2351    2.0749    0.0000 C   0  0  0  0  0  0  0  0  0  0  0  0
    5.2455    2.0000    0.0000 C   0  0  0  0  0  0  0  0  0  0  0  0
   11.0372   -2.0000    0.0000 C   0  0  0  0  0  0  0  0  0  0  0  0
    2.6144   -1.0439    0.0000 C   0  0  0  0  0  0  0  0  0  0  0  0
   13.6684    1.0439    0.0000 C   0  0  0  0  0  0  0  0  0  0  0  0
    3.4527   -2.9224    0.0000 C   0  0  0  0  0  0  0  0  0  0  0  0
   12.8300    2.9224    0.0000 C   0  0  0  0  0  0  0  0  0  0  0  0
    2.0000   -1.8774    0.0000 C   0  0  0  0  0  0  0  0  0  0  0  0
   14.2827    1.8774    0.0000 C   0  0  0  0  0  0  0  0  0  0  0  0
    2.4220   -2.8230    0.0000 C   0  0  0  0  0  0  0  0  0  0  0  0
   13.8607    2.8230    0.0000 C   0  0  0  0  0  0  0  0  0  0  0  0
   10.5003   -1.3100    0.0000 H   0  0  0  0  0  0  0  0  0  0  0  0
    5.7824    1.3100    0.0000 H   0  0  0  0  0  0  0  0  0  0  0  0
   12.1153   -1.0826    0.0000 H   0  0  0  0  0  0  0  0  0  0  0  0
   12.5138   -0.3923    0.0000 H   0  0  0  0  0  0  0  0  0  0  0  0
    4.1674    1.0826    0.0000 H   0  0  0  0  0  0  0  0  0  0  0  0
    3.7689    0.3923    0.0000 H   0  0  0  0  0  0  0  0  0  0  0  0
    9.0323    1.3941    0.0000 H   0  0  0  0  0  0  0  0  0  0  0  0
    7.2504   -1.3940    0.0000 H   0  0  0  0  0  0  0  0  0  0  0  0
    5.4504   -2.4333    0.0000 H   0  0  0  0  0  0  0  0  0  0  0  0
   10.8323    2.4333    0.0000 H   0  0  0  0  0  0  0  0  0  0  0  0
   13.9145    0.4748    0.0000 H   0  0  0  0  0  0  0  0  0  0  0  0
    2.3683   -0.4748    0.0000 H   0  0  0  0  0  0  0  0  0  0  0  0
   12.5708    3.4856    0.0000 H   0  0  0  0  0  0  0  0  0  0  0  0
    3.7119   -3.4856    0.0000 H   0  0  0  0  0  0  0  0  0  0  0  0
    1.3836   -1.8108    0.0000 H   0  0  0  0  0  0  0  0  0  0  0  0
   14.8991    1.8108    0.0000 H   0  0  0  0  0  0  0  0  0  0  0  0
    2.0599   -3.3263    0.0000 H   0  0  0  0  0  0  0  0  0  0  0  0
   14.2228    3.3263    0.0000 H   0  0  0  0  0  0  0  0  0  0  0  0
    4.3795    3.1200    0.0000 H   0  0  0  0  0  0  0  0  0  0  0  0
   11.9032   -3.1200    0.0000 H   0  0  0  0  0  0  0  0  0  0  0  0
  1 23  2  0  0  0  0
  2 24  2  0  0  0  0
  3 31  1  0  0  0  0
  3 59  1  0  0  0  0
  4 32  1  0  0  0  0
  4 60  1  0  0  0  0
  5 31  2  0  0  0  0
  6 32  2  0  0  0  0
  7 11  1  0  0  0  0
  7 14  1  0  0  0  0
  7 23  1  0  0  0  0
  8 12  1  0  0  0  0
  8 13  1  0  0  0  0
  8 24  1  0  0  0  0
  9 19  1  0  0  0  0
  9 29  1  0  0  0  0
  9 49  1  0  0  0  0
 10 20  1  0  0  0  0
 10 30  1  0  0  0  0
 10 50  1  0  0  0  0
 11 16  1  0  0  0  0
 11 31  1  1  0  0  0
 11 42  1  0  0  0  0
 12 15  1  0  0  0  0
 12 32  1  1  0  0  0
 12 41  1  0  0  0  0
 13 20  1  0  0  0  0
 13 25  2  0  0  0  0
 14 19  1  0  0  0  0
 14 26  2  0  0  0  0
 15 18  1  0  0  0  0
 15 43  1  0  0  0  0
 15 44  1  0  0  0  0
 16 17  1  0  0  0  0
 16 45  1  0  0  0  0
 16 46  1  0  0  0  0
 17 19  2  0  0  0  0
 17 28  1  0  0  0  0
 18 20  2  0  0  0  0
 18 27  1  0  0  0  0
 21 22  2  0  0  0  0
 21 23  1  0  0  0  0
 21 26  1  0  0  0  0
 22 24  1  0  0  0  0
 22 25  1  0  0  0  0
 25 47  1  0  0  0  0
 26 48  1  0  0  0  0
 27 30  1  0  0  0  0
 27 34  2  0  0  0  0
 28 29  1  0  0  0  0
 28 33  2  0  0  0  0
 29 35  2  0  0  0  0
 30 36  2  0  0  0  0
 33 37  1  0  0  0  0
 33 52  1  0  0  0  0
 34 38  1  0  0  0  0
 34 51  1  0  0  0  0
 35 39  1  0  0  0  0
 35 54  1  0  0  0  0
 36 40  1  0  0  0  0
 36 53  1  0  0  0  0
 37 39  2  0  0  0  0
 37 55  1  0  0  0  0
 38 40  2  0  0  0  0
 38 56  1  0  0  0  0
 39 57  1  0  0  0  0
 40 58  1  0  0  0  0
M  END
> <PUBCHEM_COMPOUND_CID>
5281412

> <PUBCHEM_COMPOUND_CANONICALIZED>
1

> <PUBCHEM_CACTVS_COMPLEXITY>
1220

> <PUBCHEM_CACTVS_HBOND_ACCEPTOR>
6

> <PUBCHEM_CACTVS_HBOND_DONOR>
4

> <PUBCHEM_CACTVS_ROTATABLE_BOND>
2

> <PUBCHEM_CACTVS_SUBSKEYS>
AAADceB7uAAAAAAAAAAAAAAAAAAAAWLECAA8eIEAAAAAAFgB/gAAHgAQCAAADCjBngQwyPPJkgCoAyXyXACCgCAhAiAImSG4ZNgKYPLAkbGUYAhklgDYyQeY2fOegAAAAAACAAAAAAAAAAQAAAAAAAAAAA==

> <PUBCHEM_IUPAC_OPENEYE_NAME>
(2E,5S)-2-[(5S)-5-carboxy-3-oxo-6,11-dihydro-5H-indolizino[8,7-b]indol-2-ylidene]-3-oxo-6,11-dihydro-5H-indolizino[8,7-b]indole-5-carboxylic acid

> <PUBCHEM_IUPAC_CAS_NAME>
(2E,5S)-2-[(5S)-5-carboxy-3-oxo-6,11-dihydro-5H-indolizino[8,7-b]indol-2-ylidene]-3-oxo-6,11-dihydro-5H-indolizino[8,7-b]indole-5-carboxylic acid

> <PUBCHEM_IUPAC_NAME>
(2E,5S)-2-[(5S)-5-carboxy-3-oxo-6,11-dihydro-5H-indolizino[8,7-b]indol-2-ylidene]-3-oxo-6,11-dihydro-5H-indolizino[8,7-b]indole-5-carboxylic acid

> <PUBCHEM_IUPAC_SYSTEMATIC_NAME>
(2E,5S)-2-[(5S)-5-carboxy-3-oxidanylidene-6,11-dihydro-5H-indolizino[8,7-b]indol-2-ylidene]-3-oxidanylidene-6,11-dihydro-5H-indolizino[8,7-b]indole-5-carboxylic acid

> <PUBCHEM_IUPAC_TRADITIONAL_NAME>
(2E,5S)-2-[(5S)-5-carboxy-3-keto-6,11-dihydro-5H-pyrrolo[2,1-a]$b-carbolin-2-ylidene]-3-keto-6,11-dihydro-5H-pyrrolo[2,1-a]$b-carboline-5-carboxylic acid

> <PUBCHEM_IUPAC_INCHI>
InChI=1S/C30H20N4O6/c35-27-17(11-21-25-15(9-23(29(37)38)33(21)27)13-5-1-3-7-19(13)31-25)18-12-22-26-16(14-6-2-4-8-20(14)32-26)10-24(30(39)40)34(22)28(18)36/h1-8,11-12,23-24,31-32H,9-10H2,(H,37,38)(H,39,40)/b18-17+/t23-,24-/m0/s1

> <PUBCHEM_IUPAC_INCHIKEY>
LOHPAPKRMNSIDN-GKIAHDCUSA-N

> <PUBCHEM_XLOGP3_AA>
2.6

> <PUBCHEM_EXACT_MASS>
532.138284

> <PUBCHEM_MOLECULAR_FORMULA>
C30H20N4O6

> <PUBCHEM_MOLECULAR_WEIGHT>
532.503

> <PUBCHEM_OPENEYE_CAN_SMILES>
C1C(N2C(=CC(=C3C=C4C5=C(CC(N4C3=O)C(=O)O)C6=CC=CC=C6N5)C2=O)C7=C1C8=CC=CC=C8N7)C(=O)O

> <PUBCHEM_OPENEYE_ISO_SMILES>
C1[C@H](N2C(=C/C(=C\3/C=C4C5=C(C[C@H](N4C3=O)C(=O)O)C6=CC=CC=C6N5)/C2=O)C7=C1C8=CC=CC=C8N7)C(=O)O

> <PUBCHEM_CACTVS_TPSA>
147

> <PUBCHEM_MONOISOTOPIC_WEIGHT>
532.138284

> <PUBCHEM_TOTAL_CHARGE>
0

> <PUBCHEM_HEAVY_ATOM_COUNT>
40

> <PUBCHEM_ATOM_DEF_STEREO_COUNT>
2

> <PUBCHEM_ATOM_UDEF_STEREO_COUNT>
0

> <PUBCHEM_BOND_DEF_STEREO_COUNT>
1

> <PUBCHEM_BOND_UDEF_STEREO_COUNT>
0

> <PUBCHEM_ISOTOPIC_ATOM_COUNT>
0

> <PUBCHEM_COMPONENT_COUNT>
1

> <PUBCHEM_CACTVS_TAUTO_COUNT>
4

> <PUBCHEM_COORDINATE_TYPE>
1
5
255

> <PUBCHEM_BONDANNOTATIONS>
10  20  8
10  30  8
11  31  5
12  32  5
17  19  8
17  28  8
18  20  8
18  27  8
27  30  8
27  34  8
28  29  8
28  33  8
29  35  8
30  36  8
33  37  8
34  38  8
35  39  8
36  40  8
37  39  8
38  40  8
9  19  8
9  29  8

$$$$

