446378
  -OEChem-07051212572D

 96 98  0     1  0  0  0  0  0999 V2000
    8.1689   -4.1482    0.0000 O   0  0  0  0  0  0  0  0  0  0  0  0
    9.8349   -2.2957    0.0000 O   0  0  0  0  0  0  0  0  0  0  0  0
    7.5329    0.0272    0.0000 O   0  0  0  0  0  0  0  0  0  0  0  0
    9.9965   -1.2121    0.0000 O   0  0  0  0  0  0  0  0  0  0  0  0
    5.4048   -0.8105    0.0000 O   0  0  0  0  0  0  0  0  0  0  0  0
   10.4988   -3.9252    0.0000 O   0  0  0  0  0  0  0  0  0  0  0  0
    4.5543   -2.8050    0.0000 O   0  0  0  0  0  0  0  0  0  0  0  0
    9.5811   -5.2258    0.0000 O   0  0  0  0  0  0  0  0  0  0  0  0
    5.8009    0.0272    0.0000 O   0  0  0  0  0  0  0  0  0  0  0  0
    9.0567    0.2429    0.0000 O   0  0  0  0  0  0  0  0  0  0  0  0
    3.9194   -1.7015    0.0000 O   0  0  0  0  0  0  0  0  0  0  0  0
    4.9397   -4.4936    0.0000 O   0  0  0  0  0  0  0  0  0  0  0  0
    6.9094   -1.7546    0.0000 C   0  0  2  0  0  0  0  0  0  0  0  0
    8.9339   -2.7295    0.0000 C   0  0  1  0  0  0  0  0  0  0  0  0
    8.0329   -3.1634    0.0000 C   0  0  2  0  0  0  0  0  0  0  0  0
    7.5329   -0.9728    0.0000 C   0  0  2  0  0  0  0  0  0  0  0  0
    7.1320   -2.7295    0.0000 C   0  0  0  0  0  0  0  0  0  0  0  0
    9.1564   -1.7546    0.0000 C   0  0  2  0  0  0  0  0  0  0  0  0
    8.5329   -0.9728    0.0000 C   0  0  0  0  0  0  0  0  0  0  0  0
    5.9192   -1.6681    0.0000 C   0  0  1  0  0  0  0  0  0  0  0  0
    9.6190   -3.4498    0.0000 C   0  0  1  0  0  0  0  0  0  0  0  0
    5.5292   -2.5825    0.0000 C   0  0  2  0  0  0  0  0  0  0  0  0
    6.2773   -3.2372    0.0000 C   0  0  0  0  0  0  0  0  0  0  0  0
    6.7511   -0.3493    0.0000 C   0  0  0  0  0  0  0  0  0  0  0  0
    9.1472   -4.3248    0.0000 C   0  0  0  0  0  0  0  0  0  0  0  0
   10.3430   -2.7600    0.0000 C   0  0  0  0  0  0  0  0  0  0  0  0
    6.1859   -4.2330    0.0000 C   0  0  0  0  0  0  0  0  0  0  0  0
    6.6669    0.5272    0.0000 C   0  0  0  0  0  0  0  0  0  0  0  0
    9.9466   -0.2133    0.0000 C   0  0  0  0  0  0  0  0  0  0  0  0
    4.4049   -0.8272    0.0000 C   0  0  0  0  0  0  0  0  0  0  0  0
    4.2596   -3.7606    0.0000 C   0  0  0  0  0  0  0  0  0  0  0  0
   10.7866    0.3292    0.0000 C   0  0  0  0  0  0  0  0  0  0  0  0
    3.8905    0.0304    0.0000 C   0  0  0  0  0  0  0  0  0  0  0  0
    6.6669    1.5272    0.0000 C   0  0  0  0  0  0  0  0  0  0  0  0
    3.2846   -3.9831    0.0000 C   0  0  0  0  0  0  0  0  0  0  0  0
    4.3760    0.9046    0.0000 C   0  0  0  0  0  0  0  0  0  0  0  0
   10.7368    1.3280    0.0000 C   0  0  0  0  0  0  0  0  0  0  0  0
    3.8616    1.7622    0.0000 C   0  0  0  0  0  0  0  0  0  0  0  0
    2.9899   -4.9387    0.0000 C   0  0  0  0  0  0  0  0  0  0  0  0
    2.6045   -3.2501    0.0000 C   0  0  0  0  0  0  0  0  0  0  0  0
   11.5768    1.8705    0.0000 C   0  0  0  0  0  0  0  0  0  0  0  0
    4.3471    2.6364    0.0000 C   0  0  0  0  0  0  0  0  0  0  0  0
    2.8992   -2.2945    0.0000 C   0  0  0  0  0  0  0  0  0  0  0  0
    3.8327    3.4940    0.0000 C   0  0  0  0  0  0  0  0  0  0  0  0
    4.3182    4.3682    0.0000 C   0  0  0  0  0  0  0  0  0  0  0  0
    3.8038    5.2258    0.0000 C   0  0  0  0  0  0  0  0  0  0  0  0
    6.5744   -0.9735    0.0000 H   0  0  0  0  0  0  0  0  0  0  0  0
    7.3459   -3.6639    0.0000 H   0  0  0  0  0  0  0  0  0  0  0  0
    9.6643   -2.1102    0.0000 H   0  0  0  0  0  0  0  0  0  0  0  0
    9.0915   -0.7038    0.0000 H   0  0  0  0  0  0  0  0  0  0  0  0
    8.3950   -0.3683    0.0000 H   0  0  0  0  0  0  0  0  0  0  0  0
    6.2479   -1.1424    0.0000 H   0  0  0  0  0  0  0  0  0  0  0  0
    5.1317   -2.1067    0.0000 H   0  0  0  0  0  0  0  0  0  0  0  0
    7.1377    0.1354    0.0000 H   0  0  0  0  0  0  0  0  0  0  0  0
    6.2664    0.0373    0.0000 H   0  0  0  0  0  0  0  0  0  0  0  0
    6.3646   -0.8340    0.0000 H   0  0  0  0  0  0  0  0  0  0  0  0
   10.7707   -3.2089    0.0000 H   0  0  0  0  0  0  0  0  0  0  0  0
   10.7919   -2.3324    0.0000 H   0  0  0  0  0  0  0  0  0  0  0  0
    9.9153   -2.3112    0.0000 H   0  0  0  0  0  0  0  0  0  0  0  0
   10.3383   -1.9337    0.0000 H   0  0  0  0  0  0  0  0  0  0  0  0
    5.5685   -4.1764    0.0000 H   0  0  0  0  0  0  0  0  0  0  0  0
    6.1293   -4.8504    0.0000 H   0  0  0  0  0  0  0  0  0  0  0  0
    6.8033   -4.2896    0.0000 H   0  0  0  0  0  0  0  0  0  0  0  0
   10.5163   -4.5450    0.0000 H   0  0  0  0  0  0  0  0  0  0  0  0
   11.0275   -0.2421    0.0000 H   0  0  0  0  0  0  0  0  0  0  0  0
   11.3911    0.4672    0.0000 H   0  0  0  0  0  0  0  0  0  0  0  0
    3.4090    0.4209    0.0000 H   0  0  0  0  0  0  0  0  0  0  0  0
    3.4223   -0.3760    0.0000 H   0  0  0  0  0  0  0  0  0  0  0  0
    7.2869    1.5272    0.0000 H   0  0  0  0  0  0  0  0  0  0  0  0
    6.6669    2.1472    0.0000 H   0  0  0  0  0  0  0  0  0  0  0  0
    6.0469    1.5272    0.0000 H   0  0  0  0  0  0  0  0  0  0  0  0
    4.8575    0.5141    0.0000 H   0  0  0  0  0  0  0  0  0  0  0  0
    4.8442    1.3110    0.0000 H   0  0  0  0  0  0  0  0  0  0  0  0
   10.4960    1.8993    0.0000 H   0  0  0  0  0  0  0  0  0  0  0  0
   10.1323    1.1900    0.0000 H   0  0  0  0  0  0  0  0  0  0  0  0
    3.3801    2.1527    0.0000 H   0  0  0  0  0  0  0  0  0  0  0  0
    3.3934    1.3558    0.0000 H   0  0  0  0  0  0  0  0  0  0  0  0
    2.3974   -4.7559    0.0000 H   0  0  0  0  0  0  0  0  0  0  0  0
    2.8071   -5.5311    0.0000 H   0  0  0  0  0  0  0  0  0  0  0  0
    3.5823   -5.1214    0.0000 H   0  0  0  0  0  0  0  0  0  0  0  0
    2.0000   -3.3880    0.0000 H   0  0  0  0  0  0  0  0  0  0  0  0
   11.9132    1.3497    0.0000 H   0  0  0  0  0  0  0  0  0  0  0  0
   12.0976    2.2069    0.0000 H   0  0  0  0  0  0  0  0  0  0  0  0
   11.2404    2.3914    0.0000 H   0  0  0  0  0  0  0  0  0  0  0  0
    4.8286    2.2459    0.0000 H   0  0  0  0  0  0  0  0  0  0  0  0
    4.8153    3.0428    0.0000 H   0  0  0  0  0  0  0  0  0  0  0  0
    3.4917   -2.4772    0.0000 H   0  0  0  0  0  0  0  0  0  0  0  0
    3.0820   -1.7020    0.0000 H   0  0  0  0  0  0  0  0  0  0  0  0
    2.3068   -2.1117    0.0000 H   0  0  0  0  0  0  0  0  0  0  0  0
    3.3512    3.8845    0.0000 H   0  0  0  0  0  0  0  0  0  0  0  0
    3.3645    3.0876    0.0000 H   0  0  0  0  0  0  0  0  0  0  0  0
    4.7997    3.9777    0.0000 H   0  0  0  0  0  0  0  0  0  0  0  0
    4.7864    4.7746    0.0000 H   0  0  0  0  0  0  0  0  0  0  0  0
    4.3355    5.5447    0.0000 H   0  0  0  0  0  0  0  0  0  0  0  0
    3.4849    5.7575    0.0000 H   0  0  0  0  0  0  0  0  0  0  0  0
    3.2721    4.9069    0.0000 H   0  0  0  0  0  0  0  0  0  0  0  0
  1 15  1  0  0  0  0
  1 25  1  0  0  0  0
 14  2  1  1  0  0  0
  2 60  1  0  0  0  0
 16  3  1  1  0  0  0
  3 28  1  0  0  0  0
 18  4  1  6  0  0  0
  4 29  1  0  0  0  0
 20  5  1  1  0  0  0
  5 30  1  0  0  0  0
 21  6  1  6  0  0  0
  6 64  1  0  0  0  0
 22  7  1  6  0  0  0
  7 31  1  0  0  0  0
  8 25  2  0  0  0  0
  9 28  2  0  0  0  0
 10 29  2  0  0  0  0
 11 30  2  0  0  0  0
 12 31  2  0  0  0  0
 13 16  1  0  0  0  0
 13 17  1  0  0  0  0
 13 20  1  0  0  0  0
 13 47  1  1  0  0  0
 14 15  1  0  0  0  0
 14 18  1  0  0  0  0
 14 21  1  0  0  0  0
 15 17  1  0  0  0  0
 15 48  1  6  0  0  0
 16 19  1  0  0  0  0
 16 24  1  0  0  0  0
 17 23  2  0  0  0  0
 18 19  1  0  0  0  0
 18 49  1  0  0  0  0
 19 50  1  0  0  0  0
 19 51  1  0  0  0  0
 20 22  1  0  0  0  0
 20 52  1  0  0  0  0
 21 25  1  0  0  0  0
 21 26  1  0  0  0  0
 22 23  1  0  0  0  0
 22 53  1  0  0  0  0
 23 27  1  0  0  0  0
 24 54  1  0  0  0  0
 24 55  1  0  0  0  0
 24 56  1  0  0  0  0
 26 57  1  0  0  0  0
 26 58  1  0  0  0  0
 26 59  1  0  0  0  0
 27 61  1  0  0  0  0
 27 62  1  0  0  0  0
 27 63  1  0  0  0  0
 28 34  1  0  0  0  0
 29 32  1  0  0  0  0
 30 33  1  0  0  0  0
 31 35  1  0  0  0  0
 32 37  1  0  0  0  0
 32 65  1  0  0  0  0
 32 66  1  0  0  0  0
 33 36  1  0  0  0  0
 33 67  1  0  0  0  0
 33 68  1  0  0  0  0
 34 69  1  0  0  0  0
 34 70  1  0  0  0  0
 34 71  1  0  0  0  0
 35 39  1  0  0  0  0
 35 40  2  0  0  0  0
 36 38  1  0  0  0  0
 36 72  1  0  0  0  0
 36 73  1  0  0  0  0
 37 41  1  0  0  0  0
 37 74  1  0  0  0  0
 37 75  1  0  0  0  0
 38 42  1  0  0  0  0
 38 76  1  0  0  0  0
 38 77  1  0  0  0  0
 39 78  1  0  0  0  0
 39 79  1  0  0  0  0
 39 80  1  0  0  0  0
 40 43  1  0  0  0  0
 40 81  1  0  0  0  0
 41 82  1  0  0  0  0
 41 83  1  0  0  0  0
 41 84  1  0  0  0  0
 42 44  1  0  0  0  0
 42 85  1  0  0  0  0
 42 86  1  0  0  0  0
 43 87  1  0  0  0  0
 43 88  1  0  0  0  0
 43 89  1  0  0  0  0
 44 45  1  0  0  0  0
 44 90  1  0  0  0  0
 44 91  1  0  0  0  0
 45 46  1  0  0  0  0
 45 92  1  0  0  0  0
 45 93  1  0  0  0  0
 46 94  1  0  0  0  0
 46 95  1  0  0  0  0
 46 96  1  0  0  0  0
M  END
> <PUBCHEM_COMPOUND_CID>
446378

> <PUBCHEM_COMPOUND_CANONICALIZED>
1

> <PUBCHEM_CACTVS_COMPLEXITY>
1270

> <PUBCHEM_CACTVS_HBOND_ACCEPTOR>
12

> <PUBCHEM_CACTVS_HBOND_DONOR>
2

> <PUBCHEM_CACTVS_ROTATABLE_BOND>
17

> <PUBCHEM_CACTVS_SUBSKEYS>
AAADcfB8PAAAAAAAAAAAAAAAAAAAASIAAAAAAAAABgAAAACQAAAAGgAACAAADVSggAICCAAABgCIAiDSCAIAAAAgAAAACAFAAEgBBBYAIQACUAAF4AALIYPK6PyOgAAAAAAAAAAAAAAAAAAAAAAAAAAAAA==

> <PUBCHEM_IUPAC_OPENEYE_NAME>
[(3S,3aR,4S,6S,6aR,7S,8S,9bS)-6-acetoxy-4-butanoyloxy-3,3a-dihydroxy-3,6,9-trimethyl-8-[(Z)-2-methylbut-2-enoyl]oxy-2-oxo-4,5,6a,7,8,9b-hexahydroazuleno[4,5-b]furan-7-yl] octanoate

> <PUBCHEM_IUPAC_CAS_NAME>
octanoic acid [(3S,3aR,4S,6S,6aR,7S,8S,9bS)-6-acetyloxy-3,3a-dihydroxy-3,6,9-trimethyl-8-[(Z)-2-methyl-1-oxobut-2-enoxy]-2-oxo-4-(1-oxobutoxy)-4,5,6a,7,8,9b-hexahydroazuleno[4,5-b]furan-7-yl] ester

> <PUBCHEM_IUPAC_NAME>
[(3S,3aR,4S,6S,6aR,7S,8S,9bS)-6-acetyloxy-4-butanoyloxy-3,3a-dihydroxy-3,6,9-trimethyl-8-[(Z)-2-methylbut-2-enoyl]oxy-2-oxo-4,5,6a,7,8,9b-hexahydroazuleno[4,5-b]furan-7-yl] octanoate

> <PUBCHEM_IUPAC_SYSTEMATIC_NAME>
[(3S,3aR,4S,6S,6aR,7S,8S,9bS)-6-acetyloxy-4-butanoyloxy-3,6,9-trimethyl-8-[(Z)-2-methylbut-2-enoyl]oxy-3,3a-bis(oxidanyl)-2-oxidanylidene-4,5,6a,7,8,9b-hexahydroazuleno[4,5-b]furan-7-yl] octanoate

> <PUBCHEM_IUPAC_TRADITIONAL_NAME>
caprylic acid [(3S,3aR,4S,6S,6aR,7S,8S,9bS)-6-acetoxy-4-butyryloxy-3,3a-dihydroxy-2-keto-3,6,9-trimethyl-8-[(Z)-2-methylbut-2-enoyl]oxy-4,5,6a,7,8,9b-hexahydroazuleno[4,5-b]furan-7-yl] ester

> <PUBCHEM_IUPAC_INCHI>
InChI=1S/C34H50O12/c1-9-12-13-14-15-17-24(37)43-28-26-25(20(5)27(28)44-30(38)19(4)11-3)29-34(41,33(8,40)31(39)45-29)22(42-23(36)16-10-2)18-32(26,7)46-21(6)35/h11,22,26-29,40-41H,9-10,12-18H2,1-8H3/b19-11-/t22-,26+,27-,28-,29-,32-,33+,34+/m0/s1

> <PUBCHEM_IUPAC_INCHIKEY>
IXFPJGBNCFXKPI-FSIHEZPISA-N

> <PUBCHEM_XLOGP3_AA>
3.6

> <PUBCHEM_EXACT_MASS>
650.330227

> <PUBCHEM_MOLECULAR_FORMULA>
C34H50O12

> <PUBCHEM_MOLECULAR_WEIGHT>
650.7536

> <PUBCHEM_OPENEYE_CAN_SMILES>
CCCCCCCC(=O)OC1C2C(=C(C1OC(=O)C(=CC)C)C)C3C(C(CC2(C)OC(=O)C)OC(=O)CCC)(C(C(=O)O3)(C)O)O

> <PUBCHEM_OPENEYE_ISO_SMILES>
CCCCCCCC(=O)O[C@H]1[C@H]2C(=C([C@@H]1OC(=O)/C(=C\C)/C)C)[C@H]3[C@]([C@H](C[C@]2(C)OC(=O)C)OC(=O)CCC)([C@](C(=O)O3)(C)O)O

> <PUBCHEM_CACTVS_TPSA>
172

> <PUBCHEM_MONOISOTOPIC_WEIGHT>
650.330227

> <PUBCHEM_TOTAL_CHARGE>
0

> <PUBCHEM_HEAVY_ATOM_COUNT>
46

> <PUBCHEM_ATOM_DEF_STEREO_COUNT>
8

> <PUBCHEM_ATOM_UDEF_STEREO_COUNT>
0

> <PUBCHEM_BOND_DEF_STEREO_COUNT>
1

> <PUBCHEM_BOND_UDEF_STEREO_COUNT>
0

> <PUBCHEM_ISOTOPIC_ATOM_COUNT>
0

> <PUBCHEM_COMPONENT_COUNT>
1

> <PUBCHEM_CACTVS_TAUTO_COUNT>
1

> <PUBCHEM_COORDINATE_TYPE>
1
5
255

> <PUBCHEM_BONDANNOTATIONS>
13  47  5
15  48  6
14  2  5
16  3  5
18  4  6
20  5  5
21  6  6
22  7  6

$$$$

