96215
  -OEChem-07051212472D

 15 15  0     0  0  0  0  0  0999 V2000
    6.2633   -0.0141    0.0000 O   0  0  0  0  0  0  0  0  0  0  0  0
    5.1043    1.2730    0.0000 O   0  0  0  0  0  0  0  0  0  0  0  0
    2.8090   -0.6530    0.0000 N   0  0  0  0  0  0  0  0  0  0  0  0
    2.3090    0.8858    0.0000 N   0  0  0  0  0  0  0  0  0  0  0  0
    3.6180   -0.0652    0.0000 C   0  0  0  0  0  0  0  0  0  0  0  0
    4.5691   -0.3743    0.0000 C   0  0  0  0  0  0  0  0  0  0  0  0
    3.3090    0.8858    0.0000 C   0  0  0  0  0  0  0  0  0  0  0  0
    2.0000   -0.0652    0.0000 C   0  0  0  0  0  0  0  0  0  0  0  0
    5.3122    0.2949    0.0000 C   0  0  0  0  0  0  0  0  0  0  0  0
    4.2780   -0.9217    0.0000 H   0  0  0  0  0  0  0  0  0  0  0  0
    5.0577   -0.7560    0.0000 H   0  0  0  0  0  0  0  0  0  0  0  0
    2.8090   -1.2730    0.0000 H   0  0  0  0  0  0  0  0  0  0  0  0
    3.6734    1.3874    0.0000 H   0  0  0  0  0  0  0  0  0  0  0  0
    1.4103   -0.2568    0.0000 H   0  0  0  0  0  0  0  0  0  0  0  0
    6.7240    0.4007    0.0000 H   0  0  0  0  0  0  0  0  0  0  0  0
  1  9  1  0  0  0  0
  1 15  1  0  0  0  0
  2  9  2  0  0  0  0
  3  5  1  0  0  0  0
  3  8  1  0  0  0  0
  3 12  1  0  0  0  0
  4  7  1  0  0  0  0
  4  8  2  0  0  0  0
  5  6  1  0  0  0  0
  5  7  2  0  0  0  0
  6  9  1  0  0  0  0
  6 10  1  0  0  0  0
  6 11  1  0  0  0  0
  7 13  1  0  0  0  0
  8 14  1  0  0  0  0
M  END
> <PUBCHEM_COMPOUND_CID>
96215

> <PUBCHEM_COMPOUND_CANONICALIZED>
1

> <PUBCHEM_CACTVS_COMPLEXITY>
116

> <PUBCHEM_CACTVS_HBOND_ACCEPTOR>
3

> <PUBCHEM_CACTVS_HBOND_DONOR>
2

> <PUBCHEM_CACTVS_ROTATABLE_BOND>
2

> <PUBCHEM_CACTVS_SUBSKEYS>
AAADcYBjMAAAAAAAAAAAAAAAAAAAAWAAAAAAAAAAAAAAAAABgAAAHgAQCAAACAjBlgQtmBbJkgCoART3bAAAgC2xEqABUYE4cAiAaBhAjQAUQAAOUANAQCAkAAAAAAAAAAAAAAAAAAAAAAAAAAAAAAAAAA==

> <PUBCHEM_IUPAC_OPENEYE_NAME>
2-(1H-imidazol-5-yl)acetic acid

> <PUBCHEM_IUPAC_CAS_NAME>
2-(1H-imidazol-5-yl)acetic acid

> <PUBCHEM_IUPAC_NAME>
2-(1H-imidazol-5-yl)acetic acid

> <PUBCHEM_IUPAC_SYSTEMATIC_NAME>
2-(1H-imidazol-5-yl)ethanoic acid

> <PUBCHEM_IUPAC_TRADITIONAL_NAME>
2-(1H-imidazol-5-yl)acetic acid

> <PUBCHEM_IUPAC_INCHI>
InChI=1S/C5H6N2O2/c8-5(9)1-4-2-6-3-7-4/h2-3H,1H2,(H,6,7)(H,8,9)

> <PUBCHEM_IUPAC_INCHIKEY>
PRJKNHOMHKJCEJ-UHFFFAOYSA-N

> <PUBCHEM_XLOGP3_AA>
-0.4

> <PUBCHEM_EXACT_MASS>
126.042927

> <PUBCHEM_MOLECULAR_FORMULA>
C5H6N2O2

> <PUBCHEM_MOLECULAR_WEIGHT>
126.11334

> <PUBCHEM_OPENEYE_CAN_SMILES>
C1=C(NC=N1)CC(=O)O

> <PUBCHEM_OPENEYE_ISO_SMILES>
C1=C(NC=N1)CC(=O)O

> <PUBCHEM_CACTVS_TPSA>
66

> <PUBCHEM_MONOISOTOPIC_WEIGHT>
126.042927

> <PUBCHEM_TOTAL_CHARGE>
0

> <PUBCHEM_HEAVY_ATOM_COUNT>
9

> <PUBCHEM_ATOM_DEF_STEREO_COUNT>
0

> <PUBCHEM_ATOM_UDEF_STEREO_COUNT>
0

> <PUBCHEM_BOND_DEF_STEREO_COUNT>
0

> <PUBCHEM_BOND_UDEF_STEREO_COUNT>
0

> <PUBCHEM_ISOTOPIC_ATOM_COUNT>
0

> <PUBCHEM_COMPONENT_COUNT>
1

> <PUBCHEM_CACTVS_TAUTO_COUNT>
2

> <PUBCHEM_COORDINATE_TYPE>
1
5
255

> <PUBCHEM_BONDANNOTATIONS>
3  5  8
3  8  8
4  7  8
4  8  8
5  7  8

$$$$

