442897
  -OEChem-07051213002D

 37 39  0     1  0  0  0  0  0999 V2000
    6.4783   -1.3997    0.0000 O   0  0  0  0  0  0  0  0  0  0  0  0
    8.0619   -1.5950    0.0000 O   0  0  0  0  0  0  0  0  0  0  0  0
    9.5619   -1.4610    0.0000 O   0  0  0  0  0  0  0  0  0  0  0  0
    4.6660    1.4050    0.0000 O   0  0  0  0  0  0  0  0  0  0  0  0
    4.6660   -1.5950    0.0000 N   0  0  0  0  0  0  0  0  0  0  0  0
    7.0619   -0.5950    0.0000 C   0  0  3  0  0  0  0  0  0  0  0  0
    8.0619   -0.5950    0.0000 C   0  0  3  0  0  0  0  0  0  0  0  0
    6.4783    0.2097    0.0000 C   0  0  0  0  0  0  0  0  0  0  0  0
    5.5321   -0.0950    0.0000 C   0  0  0  0  0  0  0  0  0  0  0  0
    5.5321   -1.0950    0.0000 C   0  0  0  0  0  0  0  0  0  0  0  0
    9.0619   -0.5950    0.0000 C   0  0  0  0  0  0  0  0  0  0  0  0
    8.0619    0.4050    0.0000 C   0  0  0  0  0  0  0  0  0  0  0  0
    4.6660    0.4050    0.0000 C   0  0  0  0  0  0  0  0  0  0  0  0
    3.8000   -0.0950    0.0000 C   0  0  0  0  0  0  0  0  0  0  0  0
    3.8000   -1.0950    0.0000 C   0  0  0  0  0  0  0  0  0  0  0  0
    2.9061    0.4397    0.0000 C   0  0  0  0  0  0  0  0  0  0  0  0
    2.9061   -1.6297    0.0000 C   0  0  0  0  0  0  0  0  0  0  0  0
    2.0000   -0.0742    0.0000 C   0  0  0  0  0  0  0  0  0  0  0  0
    2.0000   -1.1158    0.0000 C   0  0  0  0  0  0  0  0  0  0  0  0
    3.8000    1.9050    0.0000 C   0  0  0  0  0  0  0  0  0  0  0  0
    7.3436   -1.1473    0.0000 H   0  0  0  0  0  0  0  0  0  0  0  0
    7.0157    0.5190    0.0000 H   0  0  0  0  0  0  0  0  0  0  0  0
    6.2272    0.7766    0.0000 H   0  0  0  0  0  0  0  0  0  0  0  0
    9.6445   -0.3829    0.0000 H   0  0  0  0  0  0  0  0  0  0  0  0
    8.9542    0.0156    0.0000 H   0  0  0  0  0  0  0  0  0  0  0  0
    8.6819    0.4050    0.0000 H   0  0  0  0  0  0  0  0  0  0  0  0
    8.0619    1.0250    0.0000 H   0  0  0  0  0  0  0  0  0  0  0  0
    7.4419    0.4050    0.0000 H   0  0  0  0  0  0  0  0  0  0  0  0
    8.5988   -1.9050    0.0000 H   0  0  0  0  0  0  0  0  0  0  0  0
    2.9132    1.0596    0.0000 H   0  0  0  0  0  0  0  0  0  0  0  0
   10.1819   -1.4610    0.0000 H   0  0  0  0  0  0  0  0  0  0  0  0
    2.9132   -2.2496    0.0000 H   0  0  0  0  0  0  0  0  0  0  0  0
    1.4643    0.2379    0.0000 H   0  0  0  0  0  0  0  0  0  0  0  0
    1.4643   -1.4279    0.0000 H   0  0  0  0  0  0  0  0  0  0  0  0
    4.1100    2.4419    0.0000 H   0  0  0  0  0  0  0  0  0  0  0  0
    3.2631    2.2150    0.0000 H   0  0  0  0  0  0  0  0  0  0  0  0
    3.4900    1.3681    0.0000 H   0  0  0  0  0  0  0  0  0  0  0  0
  1  6  1  0  0  0  0
  1 10  1  0  0  0  0
  2  7  1  0  0  0  0
  2 29  1  0  0  0  0
  3 11  1  0  0  0  0
  3 31  1  0  0  0  0
  4 13  1  0  0  0  0
  4 20  1  0  0  0  0
  5 10  2  0  0  0  0
  5 15  1  0  0  0  0
  6  7  1  0  0  0  0
  6  8  1  0  0  0  0
  6 21  1  0  0  0  0
  7 11  1  0  0  0  0
  7 12  1  0  0  0  0
  8  9  1  0  0  0  0
  8 22  1  0  0  0  0
  8 23  1  0  0  0  0
  9 10  1  0  0  0  0
  9 13  2  0  0  0  0
 11 24  1  0  0  0  0
 11 25  1  0  0  0  0
 12 26  1  0  0  0  0
 12 27  1  0  0  0  0
 12 28  1  0  0  0  0
 13 14  1  0  0  0  0
 14 15  1  0  0  0  0
 14 16  2  0  0  0  0
 15 17  2  0  0  0  0
 16 18  1  0  0  0  0
 16 30  1  0  0  0  0
 17 19  1  0  0  0  0
 17 32  1  0  0  0  0
 18 19  2  0  0  0  0
 18 33  1  0  0  0  0
 19 34  1  0  0  0  0
 20 35  1  0  0  0  0
 20 36  1  0  0  0  0
 20 37  1  0  0  0  0
M  END
> <PUBCHEM_COMPOUND_CID>
442897

> <PUBCHEM_COMPOUND_CANONICALIZED>
1

> <PUBCHEM_CACTVS_COMPLEXITY>
353

> <PUBCHEM_CACTVS_HBOND_ACCEPTOR>
5

> <PUBCHEM_CACTVS_HBOND_DONOR>
2

> <PUBCHEM_CACTVS_ROTATABLE_BOND>
3

> <PUBCHEM_CACTVS_SUBSKEYS>
AAADceByOAAAAAAAAAAAAAAAAAAAASAAAAA8QAAAAAAAAFix8AAAHgAACAAADFyhngIyxvIIFgCgAyRiRACCiCAhIiAImCA0bJgNN+LEsZuOeCjnwB3L6Afw8P8OAAAAAAACAAAAAAAAAAQAAAAAAAAAAA==

> <PUBCHEM_IUPAC_OPENEYE_NAME>
2-(4-methoxy-2,3-dihydrofuro[2,3-b]quinolin-2-yl)propane-1,2-diol

> <PUBCHEM_IUPAC_CAS_NAME>
2-(4-methoxy-2,3-dihydrofuro[2,3-b]quinolin-2-yl)propane-1,2-diol

> <PUBCHEM_IUPAC_NAME>
2-(4-methoxy-2,3-dihydrofuro[2,3-b]quinolin-2-yl)propane-1,2-diol

> <PUBCHEM_IUPAC_SYSTEMATIC_NAME>
2-(4-methoxy-2,3-dihydrofuro[2,3-b]quinolin-2-yl)propane-1,2-diol

> <PUBCHEM_IUPAC_TRADITIONAL_NAME>
2-(4-methoxy-2,3-dihydrofuro[2,3-b]quinolin-2-yl)propane-1,2-diol

> <PUBCHEM_IUPAC_INCHI>
InChI=1S/C15H17NO4/c1-15(18,8-17)12-7-10-13(19-2)9-5-3-4-6-11(9)16-14(10)20-12/h3-6,12,17-18H,7-8H2,1-2H3

> <PUBCHEM_IUPAC_INCHIKEY>
NETGEQWGGLFVRL-UHFFFAOYSA-N

> <PUBCHEM_XLOGP3_AA>
1.4

> <PUBCHEM_EXACT_MASS>
275.115758

> <PUBCHEM_MOLECULAR_FORMULA>
C15H17NO4

> <PUBCHEM_MOLECULAR_WEIGHT>
275.29978

> <PUBCHEM_OPENEYE_CAN_SMILES>
CC(CO)(C1CC2=C(C3=CC=CC=C3N=C2O1)OC)O

> <PUBCHEM_OPENEYE_ISO_SMILES>
CC(CO)(C1CC2=C(C3=CC=CC=C3N=C2O1)OC)O

> <PUBCHEM_CACTVS_TPSA>
71.8

> <PUBCHEM_MONOISOTOPIC_WEIGHT>
275.115758

> <PUBCHEM_TOTAL_CHARGE>
0

> <PUBCHEM_HEAVY_ATOM_COUNT>
20

> <PUBCHEM_ATOM_DEF_STEREO_COUNT>
0

> <PUBCHEM_ATOM_UDEF_STEREO_COUNT>
2

> <PUBCHEM_BOND_DEF_STEREO_COUNT>
0

> <PUBCHEM_BOND_UDEF_STEREO_COUNT>
0

> <PUBCHEM_ISOTOPIC_ATOM_COUNT>
0

> <PUBCHEM_COMPONENT_COUNT>
1

> <PUBCHEM_CACTVS_TAUTO_COUNT>
1

> <PUBCHEM_COORDINATE_TYPE>
1
5
255

> <PUBCHEM_BONDANNOTATIONS>
13  14  8
14  15  8
14  16  8
15  17  8
16  18  8
17  19  8
18  19  8
7  2  3
5  10  8
5  15  8
6  8  3
9  10  8
9  13  8

$$$$

