   Color/Form
        CRYSTALS FROM ALC
   from [1]HSDB

   Melting Point
        176-178 DEG C
   from [2]HSDB

   Dissociation Constants
        pK= 6.58
   from [3]HSDB

   Octanol/Water Partition Coefficient
        log Kow = 3.50 [Roda A et al; J Lipid Res 31:1433-43 (1990)]
   [4]PubMed Abstract
   from [5]HSDB

   Solubilities

     * @ 15 DEG C: 0.24 G/L IN WATER, 220.7 G/L IN ALC, IN ETHER: 1.16
       G/L, IN CHLOROFORM: 2.94 G/L, IN BENZENE: 0.12 G/L, IN ACETONE:
       10.46 G/L, IN GLACIAL ACETIC ACID: 9.06 G/L; SOL IN SOLN OF ALKALI
       HYDROXIDES OR CARBONATES
     * water solubility = 43.6 mg/l @ 20 deg C

   from [6]HSDB

   Spectral Properties

     * SPECIFIC OPTICAL ROTATION: +55 DEG (ALCOHOL) @ 20 DEG C/D
     * MAX ABSORPTION (65% SULFURIC ACID): 310 NM (LOG E= 3.79); 380 NM
       (LOG E= 3.29); SADTLER REFERENCE NUMBER: 7175 (IR, PRISM)
     * IR: 2:1282B (Aldrich Library of Infrared Spectra, Aldrich Chemical
       Co, Milwaukee, WI)
     * NMR: 10:108B (Aldrich Library of Mass Spectra, Aldrich Chemical Co,
       Milwaukee, WI)
     * MASS: 3053 (National Bureau of Standards EPA-NIH Mass Spectra Data
       Base, NSRDS-NBS-63)

   from [7]HSDB

   Other Chemical/Physical Properties
        SOLUBILITY IN WATER: GREATER THAN 333 G/L @ 15 DEG C /NA SALT/
   from [8]HSDB

   Computed Properties
   Molecular Weight                  392.572 [g/mol]
   Molecular Formula                 C[24]H[40]O[4]
   XLogP3-AA                         4.9
   H-Bond Donor                      3
   H-Bond Acceptor                   4
   Rotatable Bond Count              4
   Exact Mass                        392.29266
   MonoIsotopic Mass                 392.29266
   Topological Polar Surface Area    77.8
   Heavy Atom Count                  28
   Formal Charge                     0
   Complexity                        605
   Isotope Atom Count                0
   Defined Atom Stereocenter Count   10
   Undefined Atom Stereocenter Count 0
   Defined Bond Stereocenter Count   0
   Undefined Bond Stereocenter Count 0
   Covalently-Bonded Unit Count      1
   Feature 3D Acceptor Count         4
   Feature 3D Donor Count            2
   Feature 3D Anion Count            1
   Feature 3D Hydrophobe Count       1
   Feature 3D Ring Count             4
   Effective Rotor Count             6.2
   Conformer Sampling RMSD           0.8
   CID Conformer Count               [9]5

References

   1. http://toxnet.nlm.nih.gov/cgi-bin/sis/search/r?dbs+hsdb:@term+@rn+@rel+83-44-3
   2. http://toxnet.nlm.nih.gov/cgi-bin/sis/search/r?dbs+hsdb:@term+@rn+@rel+83-44-3
   3. http://toxnet.nlm.nih.gov/cgi-bin/sis/search/r?dbs+hsdb:@term+@rn+@rel+83-44-3
   4. http://www.ncbi.nlm.nih.gov/entrez/query.fcgi?cmd=Retrieve&db=pubmed&dopt=Abstract&list_uids=2280184
   5. http://toxnet.nlm.nih.gov/cgi-bin/sis/search/r?dbs+hsdb:@term+@rn+@rel+83-44-3
   6. http://toxnet.nlm.nih.gov/cgi-bin/sis/search/r?dbs+hsdb:@term+@rn+@rel+83-44-3
   7. http://toxnet.nlm.nih.gov/cgi-bin/sis/search/r?dbs+hsdb:@term+@rn+@rel+83-44-3
   8. http://toxnet.nlm.nih.gov/cgi-bin/sis/search/r?dbs+hsdb:@term+@rn+@rel+83-44-3
   9. http://pubchem.ncbi.nlm.nih.gov/vw3d/vw3d.cgi?cid=222528
