8813
  -OEChem-06261203082D

 75 74  0     0  0  0  0  0  0999 V2000
    1.4030    8.3310    0.0000 S   0  0  0  0  0  0  0  0  0  0  0  0
   10.1060    0.8660    0.0000 S   0  0  0  0  0  0  0  0  0  0  0  0
   11.4050    7.1510    0.0000 O   0  0  0  0  0  0  0  0  0  0  0  0
   14.0031   11.6510    0.0000 O   0  0  0  0  0  0  0  0  0  0  0  0
    0.5369    7.8310    0.0000 O   0  0  0  0  0  0  0  0  0  0  0  0
    9.2400    0.3660    0.0000 O   0  0  0  0  0  0  0  0  0  0  0  0
    4.0010    8.8310    0.0000 O   0  0  0  0  0  0  0  0  0  0  0  0
   12.7041    1.3660    0.0000 O   0  0  0  0  0  0  0  0  0  0  0  0
    9.6060    1.7320    0.0000 O   0  0  0  0  0  0  0  0  0  0  0  0
   10.6060    0.0000    0.0000 O   0  0  0  0  0  0  0  0  0  0  0  0
    0.9030    9.1971    0.0000 O   0  0  0  0  0  0  0  0  0  0  0  0
    1.9030    7.4650    0.0000 O   0  0  0  0  0  0  0  0  0  0  0  0
    7.9409    4.1510    0.0000 N   0  0  0  0  0  0  0  0  0  0  0  0
   14.8691   16.1510    0.0000 N   0  0  0  0  0  0  0  0  0  0  0  0
    7.0749    5.6510    0.0000 N   0  0  0  0  0  0  0  0  0  0  0  0
   13.1371   16.1510    0.0000 N   0  0  0  0  0  0  0  0  0  0  0  0
   12.2711    9.6510    0.0000 C   0  0  0  0  0  0  0  0  0  0  0  0
   12.2711    8.6510    0.0000 C   0  0  0  0  0  0  0  0  0  0  0  0
   13.1371   10.1510    0.0000 C   0  0  0  0  0  0  0  0  0  0  0  0
   11.4050    8.1510    0.0000 C   0  0  0  0  0  0  0  0  0  0  0  0
   13.1371   11.1510    0.0000 C   0  0  0  0  0  0  0  0  0  0  0  0
   14.0031   12.6510    0.0000 C   0  0  0  0  0  0  0  0  0  0  0  0
   10.5390    6.6510    0.0000 C   0  0  0  0  0  0  0  0  0  0  0  0
    9.6730    7.1510    0.0000 C   0  0  0  0  0  0  0  0  0  0  0  0
   14.8691   13.1510    0.0000 C   0  0  0  0  0  0  0  0  0  0  0  0
   10.5390    5.6510    0.0000 C   0  0  0  0  0  0  0  0  0  0  0  0
   13.1371   13.1510    0.0000 C   0  0  0  0  0  0  0  0  0  0  0  0
    8.8070    5.6510    0.0000 C   0  0  0  0  0  0  0  0  0  0  0  0
   14.0031   14.6510    0.0000 C   0  0  0  0  0  0  0  0  0  0  0  0
    8.8070    6.6510    0.0000 C   0  0  0  0  0  0  0  0  0  0  0  0
   14.8691   14.1510    0.0000 C   0  0  0  0  0  0  0  0  0  0  0  0
    9.6730    5.1510    0.0000 C   0  0  0  0  0  0  0  0  0  0  0  0
   13.1371   14.1510    0.0000 C   0  0  0  0  0  0  0  0  0  0  0  0
    7.9409    5.1510    0.0000 C   0  0  0  0  0  0  0  0  0  0  0  0
   14.0031   15.6510    0.0000 C   0  0  0  0  0  0  0  0  0  0  0  0
    2.2690    8.8310    0.0000 C   0  0  0  0  0  0  0  0  0  0  0  0
   10.9720    1.3660    0.0000 C   0  0  0  0  0  0  0  0  0  0  0  0
   11.8380    0.8660    0.0000 C   0  0  0  0  0  0  0  0  0  0  0  0
    3.1350    8.3310    0.0000 C   0  0  0  0  0  0  0  0  0  0  0  0
   12.0590   10.2336    0.0000 H   0  0  0  0  0  0  0  0  0  0  0  0
   11.6605    9.5433    0.0000 H   0  0  0  0  0  0  0  0  0  0  0  0
   12.4831    8.0684    0.0000 H   0  0  0  0  0  0  0  0  0  0  0  0
   12.8816    8.7586    0.0000 H   0  0  0  0  0  0  0  0  0  0  0  0
   13.3491    9.5684    0.0000 H   0  0  0  0  0  0  0  0  0  0  0  0
   13.7477   10.2586    0.0000 H   0  0  0  0  0  0  0  0  0  0  0  0
   11.1930    8.7336    0.0000 H   0  0  0  0  0  0  0  0  0  0  0  0
   10.7945    8.0433    0.0000 H   0  0  0  0  0  0  0  0  0  0  0  0
   12.9250   11.7336    0.0000 H   0  0  0  0  0  0  0  0  0  0  0  0
   12.5265   11.0433    0.0000 H   0  0  0  0  0  0  0  0  0  0  0  0
    9.6730    7.7710    0.0000 H   0  0  0  0  0  0  0  0  0  0  0  0
   15.4061   12.8410    0.0000 H   0  0  0  0  0  0  0  0  0  0  0  0
   11.0759    5.3410    0.0000 H   0  0  0  0  0  0  0  0  0  0  0  0
   12.6002   12.8410    0.0000 H   0  0  0  0  0  0  0  0  0  0  0  0
    8.2700    6.9610    0.0000 H   0  0  0  0  0  0  0  0  0  0  0  0
   15.4061   14.4610    0.0000 H   0  0  0  0  0  0  0  0  0  0  0  0
    9.6730    4.5310    0.0000 H   0  0  0  0  0  0  0  0  0  0  0  0
   12.6002   14.4610    0.0000 H   0  0  0  0  0  0  0  0  0  0  0  0
   14.8691   16.7710    0.0000 H   0  0  0  0  0  0  0  0  0  0  0  0
   15.4061   15.8410    0.0000 H   0  0  0  0  0  0  0  0  0  0  0  0
    7.4040    3.8410    0.0000 H   0  0  0  0  0  0  0  0  0  0  0  0
    8.4779    3.8410    0.0000 H   0  0  0  0  0  0  0  0  0  0  0  0
    2.6675    9.3060    0.0000 H   0  0  0  0  0  0  0  0  0  0  0  0
    1.8705    9.3060    0.0000 H   0  0  0  0  0  0  0  0  0  0  0  0
   11.3706    1.8410    0.0000 H   0  0  0  0  0  0  0  0  0  0  0  0
   10.5735    1.8410    0.0000 H   0  0  0  0  0  0  0  0  0  0  0  0
    6.5380    5.3410    0.0000 H   0  0  0  0  0  0  0  0  0  0  0  0
   13.1371   16.7710    0.0000 H   0  0  0  0  0  0  0  0  0  0  0  0
   11.4395    0.3911    0.0000 H   0  0  0  0  0  0  0  0  0  0  0  0
   12.2366    0.3911    0.0000 H   0  0  0  0  0  0  0  0  0  0  0  0
    2.7365    7.8561    0.0000 H   0  0  0  0  0  0  0  0  0  0  0  0
    3.5335    7.8561    0.0000 H   0  0  0  0  0  0  0  0  0  0  0  0
    0.0000    8.1410    0.0000 H   0  0  0  0  0  0  0  0  0  0  0  0
    8.7030    0.6760    0.0000 H   0  0  0  0  0  0  0  0  0  0  0  0
    4.5380    8.5210    0.0000 H   0  0  0  0  0  0  0  0  0  0  0  0
   13.2410    1.0560    0.0000 H   0  0  0  0  0  0  0  0  0  0  0  0
  1  5  1  0  0  0  0
  1 11  2  0  0  0  0
  1 12  2  0  0  0  0
  1 36  1  0  0  0  0
  2  6  1  0  0  0  0
  2  9  2  0  0  0  0
  2 10  2  0  0  0  0
  2 37  1  0  0  0  0
  3 20  1  0  0  0  0
  3 23  1  0  0  0  0
  4 21  1  0  0  0  0
  4 22  1  0  0  0  0
  5 72  1  0  0  0  0
  6 73  1  0  0  0  0
  7 39  1  0  0  0  0
  7 74  1  0  0  0  0
  8 38  1  0  0  0  0
  8 75  1  0  0  0  0
 13 34  1  0  0  0  0
 13 60  1  0  0  0  0
 13 61  1  0  0  0  0
 14 35  1  0  0  0  0
 14 58  1  0  0  0  0
 14 59  1  0  0  0  0
 15 34  2  0  0  0  0
 15 66  1  0  0  0  0
 16 35  2  0  0  0  0
 16 67  1  0  0  0  0
 17 18  1  0  0  0  0
 17 19  1  0  0  0  0
 17 40  1  0  0  0  0
 17 41  1  0  0  0  0
 18 20  1  0  0  0  0
 18 42  1  0  0  0  0
 18 43  1  0  0  0  0
 19 21  1  0  0  0  0
 19 44  1  0  0  0  0
 19 45  1  0  0  0  0
 20 46  1  0  0  0  0
 20 47  1  0  0  0  0
 21 48  1  0  0  0  0
 21 49  1  0  0  0  0
 22 25  2  0  0  0  0
 22 27  1  0  0  0  0
 23 24  2  0  0  0  0
 23 26  1  0  0  0  0
 24 30  1  0  0  0  0
 24 50  1  0  0  0  0
 25 31  1  0  0  0  0
 25 51  1  0  0  0  0
 26 32  2  0  0  0  0
 26 52  1  0  0  0  0
 27 33  2  0  0  0  0
 27 53  1  0  0  0  0
 28 30  2  0  0  0  0
 28 32  1  0  0  0  0
 28 34  1  0  0  0  0
 29 31  2  0  0  0  0
 29 33  1  0  0  0  0
 29 35  1  0  0  0  0
 30 54  1  0  0  0  0
 31 55  1  0  0  0  0
 32 56  1  0  0  0  0
 33 57  1  0  0  0  0
 36 39  1  0  0  0  0
 36 62  1  0  0  0  0
 36 63  1  0  0  0  0
 37 38  1  0  0  0  0
 37 64  1  0  0  0  0
 37 65  1  0  0  0  0
 38 68  1  0  0  0  0
 38 69  1  0  0  0  0
 39 70  1  0  0  0  0
 39 71  1  0  0  0  0
M  END
> <PUBCHEM_COMPOUND_CID>
8813

> <PUBCHEM_COMPOUND_CANONICALIZED>
1

> <PUBCHEM_CACTVS_COMPLEXITY>
493

> <PUBCHEM_CACTVS_HBOND_ACCEPTOR>
12

> <PUBCHEM_CACTVS_HBOND_DONOR>
8

> <PUBCHEM_CACTVS_ROTATABLE_BOND>
14

> <PUBCHEM_CACTVS_SUBSKEYS>
AAADcfB7vABgAAAAAAAAAAAAAAAAAAAAAAAwYAAAAAAAAAABQAAAHgQQCAAADASl2AKxBoBABoKgAiJiIHDCCACgIAAIiAAmDJgMNqKEsRuCOCDkwBEIqAeQ8AgOIAAAAAAAAABAAAAAAAAAAAAAAAAAAA==

> <PUBCHEM_IUPAC_OPENEYE_NAME>
4-[5-(4-carbamimidoylphenoxy)pentoxy]benzamidine; 2-hydroxyethanesulfonic acid

> <PUBCHEM_IUPAC_CAS_NAME>
4-[5-(4-carbamimidoylphenoxy)pentoxy]benzenecarboximidamide; 2-hydroxyethanesulfonic acid

> <PUBCHEM_IUPAC_NAME>
4-[5-(4-carbamimidoylphenoxy)pentoxy]benzenecarboximidamide; 2-hydroxyethanesulfonic acid

> <PUBCHEM_IUPAC_SYSTEMATIC_NAME>
4-[5-(4-carbamimidoylphenoxy)pentoxy]benzenecarboximidamide; 2-oxidanylethanesulfonic acid

> <PUBCHEM_IUPAC_TRADITIONAL_NAME>
4-[5-(4-amidinophenoxy)pentoxy]benzamidine; 2-hydroxyethanesulfonic acid

> <PUBCHEM_IUPAC_INCHI>
InChI=1S/C19H24N4O2.2C2H6O4S/c20-18(21)14-4-8-16(9-5-14)24-12-2-1-3-13-25-17-10-6-15(7-11-17)19(22)23;2*3-1-2-7(4,5)6/h4-11H,1-3,12-13H2,(H3,20,21)(H3,22,23);2*3H,1-2H2,(H,4,5,6)

> <PUBCHEM_IUPAC_INCHIKEY>
YBVNFKZSMZGRAD-UHFFFAOYSA-N

> <PUBCHEM_EXACT_MASS>
592.187285

> <PUBCHEM_MOLECULAR_FORMULA>
C23H36N4O10S2

> <PUBCHEM_MOLECULAR_WEIGHT>
592.68274

> <PUBCHEM_OPENEYE_CAN_SMILES>
C1=CC(=CC=C1C(=N)N)OCCCCCOC2=CC=C(C=C2)C(=N)N.C(CS(=O)(=O)O)O.C(CS(=O)(=O)O)O

> <PUBCHEM_OPENEYE_ISO_SMILES>
C1=CC(=CC=C1C(=N)N)OCCCCCOC2=CC=C(C=C2)C(=N)N.C(CS(=O)(=O)O)O.C(CS(=O)(=O)O)O

> <PUBCHEM_CACTVS_TPSA>
284

> <PUBCHEM_MONOISOTOPIC_WEIGHT>
592.187285

> <PUBCHEM_TOTAL_CHARGE>
0

> <PUBCHEM_HEAVY_ATOM_COUNT>
39

> <PUBCHEM_ATOM_DEF_STEREO_COUNT>
0

> <PUBCHEM_ATOM_UDEF_STEREO_COUNT>
0

> <PUBCHEM_BOND_DEF_STEREO_COUNT>
0

> <PUBCHEM_BOND_UDEF_STEREO_COUNT>
0

> <PUBCHEM_ISOTOPIC_ATOM_COUNT>
0

> <PUBCHEM_COMPONENT_COUNT>
3

> <PUBCHEM_CACTVS_TAUTO_COUNT>
1

> <PUBCHEM_COORDINATE_TYPE>
1
5
255

> <PUBCHEM_BONDANNOTATIONS>
22  25  8
22  27  8
23  24  8
23  26  8
24  30  8
25  31  8
26  32  8
27  33  8
28  30  8
28  32  8
29  31  8
29  33  8

$$$$

