246873
  -OEChem-07051212502D

 62 65  0     1  0  0  0  0  0999 V2000
    8.5677    1.6807    0.0000 O   0  0  0  0  0  0  0  0  0  0  0  0
    5.3307    0.9244    0.0000 O   0  0  0  0  0  0  0  0  0  0  0  0
    9.5823    2.3102    0.0000 O   0  0  0  0  0  0  0  0  0  0  0  0
    2.5357   -2.6279    0.0000 O   0  0  0  0  0  0  0  0  0  0  0  0
   11.4079    1.4936    0.0000 O   0  0  0  0  0  0  0  0  0  0  0  0
    7.9288    0.4244    0.0000 C   0  0  1  0  0  0  0  0  0  0  0  0
    7.9288   -0.5756    0.0000 C   0  0  2  0  0  0  0  0  0  0  0  0
    7.0628   -1.0756    0.0000 C   0  0  1  0  0  0  0  0  0  0  0  0
    6.1968   -0.5756    0.0000 C   0  0  1  0  0  0  0  0  0  0  0  0
    5.2868   -1.0824    0.0000 C   0  0  2  0  0  0  0  0  0  0  0  0
    8.8750    0.7291    0.0000 C   0  0  1  0  0  0  0  0  0  0  0  0
    6.1968    0.4244    0.0000 C   0  0  2  0  0  0  0  0  0  0  0  0
    7.0628    0.9244    0.0000 C   0  0  0  0  0  0  0  0  0  0  0  0
    5.2787   -2.1240    0.0000 C   0  0  2  0  0  0  0  0  0  0  0  0
    8.8750   -0.8803    0.0000 C   0  0  0  0  0  0  0  0  0  0  0  0
    7.0789   -2.1171    0.0000 C   0  0  0  0  0  0  0  0  0  0  0  0
    9.4586   -0.0756    0.0000 C   0  0  0  0  0  0  0  0  0  0  0  0
    6.1808   -2.6449    0.0000 C   0  0  0  0  0  0  0  0  0  0  0  0
    4.3599   -0.5184    0.0000 C   0  0  0  0  0  0  0  0  0  0  0  0
    7.9288    1.4244    0.0000 C   0  0  0  0  0  0  0  0  0  0  0  0
    4.3433   -2.6738    0.0000 C   0  0  0  0  0  0  0  0  0  0  0  0
    5.2945   -0.0825    0.0000 C   0  0  0  0  0  0  0  0  0  0  0  0
    9.6851    1.3155    0.0000 C   0  0  2  0  0  0  0  0  0  0  0  0
    3.4120   -1.0463    0.0000 C   0  0  0  0  0  0  0  0  0  0  0  0
    3.4037   -2.1313    0.0000 C   0  0  1  0  0  0  0  0  0  0  0  0
   10.5979    0.9072    0.0000 C   0  0  0  0  0  0  0  0  0  0  0  0
    8.0188   -1.4208    0.0000 H   0  0  0  0  0  0  0  0  0  0  0  0
    7.8022   -1.4949    0.0000 H   0  0  0  0  0  0  0  0  0  0  0  0
    6.9329   -0.1506    0.0000 H   0  0  0  0  0  0  0  0  0  0  0  0
    6.1968    1.0444    0.0000 H   0  0  0  0  0  0  0  0  0  0  0  0
    7.4613    1.3993    0.0000 H   0  0  0  0  0  0  0  0  0  0  0  0
    6.6643    1.3993    0.0000 H   0  0  0  0  0  0  0  0  0  0  0  0
    5.2820   -2.9740    0.0000 H   0  0  0  0  0  0  0  0  0  0  0  0
    8.6240   -1.4472    0.0000 H   0  0  0  0  0  0  0  0  0  0  0  0
    9.4124   -1.1896    0.0000 H   0  0  0  0  0  0  0  0  0  0  0  0
    7.2969   -2.6975    0.0000 H   0  0  0  0  0  0  0  0  0  0  0  0
    7.6880   -2.0016    0.0000 H   0  0  0  0  0  0  0  0  0  0  0  0
    9.9195   -0.4903    0.0000 H   0  0  0  0  0  0  0  0  0  0  0  0
    9.9195    0.3391    0.0000 H   0  0  0  0  0  0  0  0  0  0  0  0
    5.7835   -3.1208    0.0000 H   0  0  0  0  0  0  0  0  0  0  0  0
    6.5818   -3.1178    0.0000 H   0  0  0  0  0  0  0  0  0  0  0  0
    4.7681   -0.0517    0.0000 H   0  0  0  0  0  0  0  0  0  0  0  0
    3.9700   -0.0363    0.0000 H   0  0  0  0  0  0  0  0  0  0  0  0
    8.5488    1.4244    0.0000 H   0  0  0  0  0  0  0  0  0  0  0  0
    7.9288    2.0444    0.0000 H   0  0  0  0  0  0  0  0  0  0  0  0
    7.3088    1.4244    0.0000 H   0  0  0  0  0  0  0  0  0  0  0  0
    3.9460   -3.1497    0.0000 H   0  0  0  0  0  0  0  0  0  0  0  0
    4.7443   -3.1467    0.0000 H   0  0  0  0  0  0  0  0  0  0  0  0
    5.9145   -0.0873    0.0000 H   0  0  0  0  0  0  0  0  0  0  0  0
    5.2993    0.5375    0.0000 H   0  0  0  0  0  0  0  0  0  0  0  0
    4.6745   -0.0777    0.0000 H   0  0  0  0  0  0  0  0  0  0  0  0
    9.1191    1.5687    0.0000 H   0  0  0  0  0  0  0  0  0  0  0  0
    3.2075   -0.4610    0.0000 H   0  0  0  0  0  0  0  0  0  0  0  0
    2.8004   -1.1477    0.0000 H   0  0  0  0  0  0  0  0  0  0  0  0
    3.4025   -2.7513    0.0000 H   0  0  0  0  0  0  0  0  0  0  0  0
    8.9833    2.1408    0.0000 H   0  0  0  0  0  0  0  0  0  0  0  0
    5.3307    1.5444    0.0000 H   0  0  0  0  0  0  0  0  0  0  0  0
   10.2503    0.3938    0.0000 H   0  0  0  0  0  0  0  0  0  0  0  0
   11.0432    0.4757    0.0000 H   0  0  0  0  0  0  0  0  0  0  0  0
   10.0845    2.6738    0.0000 H   0  0  0  0  0  0  0  0  0  0  0  0
    2.0000   -2.3159    0.0000 H   0  0  0  0  0  0  0  0  0  0  0  0
   11.9739    1.2404    0.0000 H   0  0  0  0  0  0  0  0  0  0  0  0
 11  1  1  6  0  0  0
  1 56  1  0  0  0  0
 12  2  1  1  0  0  0
  2 57  1  0  0  0  0
 23  3  1  1  0  0  0
  3 60  1  0  0  0  0
 25  4  1  6  0  0  0
  4 61  1  0  0  0  0
  5 26  1  0  0  0  0
  5 62  1  0  0  0  0
  6  7  1  0  0  0  0
  6 11  1  0  0  0  0
  6 13  1  0  0  0  0
  6 20  1  1  0  0  0
  7  8  1  0  0  0  0
  7 15  1  0  0  0  0
  7 27  1  6  0  0  0
  8  9  1  0  0  0  0
  8 16  1  0  0  0  0
  8 28  1  1  0  0  0
  9 10  1  0  0  0  0
  9 12  1  0  0  0  0
  9 29  1  6  0  0  0
 10 14  1  0  0  0  0
 10 19  1  0  0  0  0
 10 22  1  1  0  0  0
 11 17  1  0  0  0  0
 11 23  1  0  0  0  0
 12 13  1  0  0  0  0
 12 30  1  0  0  0  0
 13 31  1  0  0  0  0
 13 32  1  0  0  0  0
 14 18  1  0  0  0  0
 14 21  1  0  0  0  0
 14 33  1  1  0  0  0
 15 17  1  0  0  0  0
 15 34  1  0  0  0  0
 15 35  1  0  0  0  0
 16 18  1  0  0  0  0
 16 36  1  0  0  0  0
 16 37  1  0  0  0  0
 17 38  1  0  0  0  0
 17 39  1  0  0  0  0
 18 40  1  0  0  0  0
 18 41  1  0  0  0  0
 19 24  1  0  0  0  0
 19 42  1  0  0  0  0
 19 43  1  0  0  0  0
 20 44  1  0  0  0  0
 20 45  1  0  0  0  0
 20 46  1  0  0  0  0
 21 25  1  0  0  0  0
 21 47  1  0  0  0  0
 21 48  1  0  0  0  0
 22 49  1  0  0  0  0
 22 50  1  0  0  0  0
 22 51  1  0  0  0  0
 23 26  1  0  0  0  0
 23 52  1  0  0  0  0
 24 25  1  0  0  0  0
 24 53  1  0  0  0  0
 24 54  1  0  0  0  0
 25 55  1  0  0  0  0
 26 58  1  0  0  0  0
 26 59  1  0  0  0  0
M  END
> <PUBCHEM_COMPOUND_CID>
246873

> <PUBCHEM_COMPOUND_CANONICALIZED>
1

> <PUBCHEM_CACTVS_COMPLEXITY>
555

> <PUBCHEM_CACTVS_HBOND_ACCEPTOR>
5

> <PUBCHEM_CACTVS_HBOND_DONOR>
5

> <PUBCHEM_CACTVS_ROTATABLE_BOND>
2

> <PUBCHEM_CACTVS_SUBSKEYS>
AAADcfB4OAAAAAAAAAAAAAAAAAAAAYAAAAAwYMAAAAAAAGDAAAAAGgAACAAAD1SggAICAAAAAgAAAAAAAAAAAAAAAAAAAAAAAAABEAIAAAAAQAAFAAABAAHA4PQPgAAAAAAAAADAAAYAADAAAYAADAAAAA==

> <PUBCHEM_IUPAC_OPENEYE_NAME>
(3R,5R,8S,9S,10S,11S,13S,14S,17R)-17-[(1S)-1,2-dihydroxyethyl]-10,13-dimethyl-1,2,3,4,5,6,7,8,9,11,12,14,15,16-tetradecahydrocyclopenta[a]phenanthrene-3,11,17-triol

> <PUBCHEM_IUPAC_CAS_NAME>
(3R,5R,8S,9S,10S,11S,13S,14S,17R)-17-[(1S)-1,2-dihydroxyethyl]-10,13-dimethyl-1,2,3,4,5,6,7,8,9,11,12,14,15,16-tetradecahydrocyclopenta[a]phenanthrene-3,11,17-triol

> <PUBCHEM_IUPAC_NAME>
(3R,5R,8S,9S,10S,11S,13S,14S,17R)-17-[(1S)-1,2-dihydroxyethyl]-10,13-dimethyl-1,2,3,4,5,6,7,8,9,11,12,14,15,16-tetradecahydrocyclopenta[a]phenanthrene-3,11,17-triol

> <PUBCHEM_IUPAC_SYSTEMATIC_NAME>
(3R,5R,8S,9S,10S,11S,13S,14S,17R)-17-[(1S)-1,2-bis(oxidanyl)ethyl]-10,13-dimethyl-1,2,3,4,5,6,7,8,9,11,12,14,15,16-tetradecahydrocyclopenta[a]phenanthrene-3,11,17-triol

> <PUBCHEM_IUPAC_TRADITIONAL_NAME>
(3R,5R,8S,9S,10S,11S,13S,14S,17R)-17-[(1S)-1,2-dihydroxyethyl]-10,13-dimethyl-1,2,3,4,5,6,7,8,9,11,12,14,15,16-tetradecahydrocyclopenta[a]phenanthrene-3,11,17-triol

> <PUBCHEM_IUPAC_INCHI>
InChI=1S/C21H36O5/c1-19-7-5-13(23)9-12(19)3-4-14-15-6-8-21(26,17(25)11-22)20(15,2)10-16(24)18(14)19/h12-18,22-26H,3-11H2,1-2H3/t12-,13-,14+,15+,16+,17+,18-,19+,20+,21+/m1/s1

> <PUBCHEM_IUPAC_INCHIKEY>
FFPUNPBUZDTHJI-XPOJVAQCSA-N

> <PUBCHEM_XLOGP3_AA>
2.1

> <PUBCHEM_EXACT_MASS>
368.256274

> <PUBCHEM_MOLECULAR_FORMULA>
C21H36O5

> <PUBCHEM_MOLECULAR_WEIGHT>
368.50754

> <PUBCHEM_OPENEYE_CAN_SMILES>
CC12CCC(CC1CCC3C2C(CC4(C3CCC4(C(CO)O)O)C)O)O

> <PUBCHEM_OPENEYE_ISO_SMILES>
C[C@]12CC[C@H](C[C@H]1CC[C@@H]3[C@@H]2[C@H](C[C@]4([C@H]3CC[C@@]4([C@H](CO)O)O)C)O)O

> <PUBCHEM_CACTVS_TPSA>
101

> <PUBCHEM_MONOISOTOPIC_WEIGHT>
368.256274

> <PUBCHEM_TOTAL_CHARGE>
0

> <PUBCHEM_HEAVY_ATOM_COUNT>
26

> <PUBCHEM_ATOM_DEF_STEREO_COUNT>
10

> <PUBCHEM_ATOM_UDEF_STEREO_COUNT>
0

> <PUBCHEM_BOND_DEF_STEREO_COUNT>
0

> <PUBCHEM_BOND_UDEF_STEREO_COUNT>
0

> <PUBCHEM_ISOTOPIC_ATOM_COUNT>
0

> <PUBCHEM_COMPONENT_COUNT>
1

> <PUBCHEM_CACTVS_TAUTO_COUNT>
1

> <PUBCHEM_COORDINATE_TYPE>
1
5
255

> <PUBCHEM_BONDANNOTATIONS>
11  1  6
10  22  5
14  33  5
12  2  5
23  3  5
25  4  6
6  20  5
7  27  6
8  28  5
9  29  6

$$$$

