   Color/Form
        COLORLESS LIQUID
   from [1]HSDB

   Odor

     * ODOR RESEMBLING MIXTURE OF BENZENE & MENTHOL
     * MOLDY, TURPENTINE ODOR
     * Pungent odor

   from [2]HSDB

   Boiling Point
        207.6 DEG C @ 760 MM HG
   from [3]HSDB

   Melting Point
        -35.8 DEG C
   from [4]HSDB

   Density/Specific Gravity
        0.9702 G/ML @ 20 DEG C/4 DEG C
   from [5]HSDB

   Heat of Combustion
        -10,200 CAL/G
   from [6]HSDB

   Heat of Vaporization
        76.5 CAL/G
   from [7]HSDB

   pH
        ACIDITY NEUTRAL
   from [8]HSDB

   Solubilities

     * MISCIBLE WITH ETHANOL, BUTANOL, ACETONE, BENZENE, PETROLEUM ETHER,
       CHLOROFORM, &PETROLEUM ETHER, DECALIN; SOL IN METHANOL: 50.6%
       WT/WT; INSOL IN WATER.
     * SOL IN ANILINE
     * SOL IN ETHER

   from [9]HSDB

   Spectral Properties

     * INDEX OF REFRACTION: 1.54135 @ 20 DEG C/D; 1.53919 @ 25 DEG C/D
     * MAX ABSORPTION (ALCOHOL): 259 NM (LOG E= 2.69); 266 NM (LOG E=
       2.84); 274 NM (LOG E= 2.90); 286 NM (LOG E= 2.28)
     * Intense mass spectral peaks: 104 m/z (100%), 132 m/z (53%), 91 m/z
       (43%), 51 m/z (17%)
     * IR: 4776 (Coblentz Society Spectral Collection)
     * UV: 3-250 (Organic Electronic Spectral Data, Phillips et al, John
       Wiley & Sons, New York)
     * NMR: 557 (Varian Associates NMR Spectra Catalogue)
     * MASS: 631 (Atlas of Mass Spectral Data, John Wiley & Sons, New
       York)
     * MASS: 288 (National Bureau of Standards EPA-NIH Mass Spectra Data
       Base, NSRDS-NBS-63)

   from [10]HSDB

   Surface Tension
        35.5 DYNES/CM @ 20 DEG C
   from [11]HSDB

   Vapor Density
        4.6 (AIR= 1)
   from [12]HSDB

   Vapor Pressure
        0.368 mm Hg at 25 deg C, from experimentally derived coefficients
   from [13]HSDB

   Viscosity
        2.012 cP @ 25 deg C
   from [14]HSDB

   Other Chemical/Physical Properties

     * MOISTURE CONTENT NONE; RESIDUE ON EVAPORATION NONE; BULK DENSITY 8
       LB/GAL
     * Heat capacity at 25 deg C: 217.5 J/mol K
     * Henry's Law constant= 1.7X10-3 atm-cu m/mol at 25 deg C

   from [15]HSDB

   Computed Properties
   Molecular Weight                  132.20228 [g/mol]
   Molecular Formula                 C[10]H[12]
   XLogP3                            3.5
   H-Bond Donor                      0
   H-Bond Acceptor                   0
   Rotatable Bond Count              0
   Exact Mass                        132.0939
   MonoIsotopic Mass                 132.0939
   Topological Polar Surface Area    0
   Heavy Atom Count                  10
   Formal Charge                     0
   Complexity                        92.6
   Isotope Atom Count                0
   Defined Atom Stereocenter Count   0
   Undefined Atom Stereocenter Count 0
   Defined Bond Stereocenter Count   0
   Undefined Bond Stereocenter Count 0
   Covalently-Bonded Unit Count      1
   Feature 3D Ring Count             2
   Effective Rotor Count             0.8
   Conformer Sampling RMSD           0.4
   CID Conformer Count               [16]1

References

   1. http://toxnet.nlm.nih.gov/cgi-bin/sis/search/r?dbs+hsdb:@term+@rn+@rel+119-64-2
   2. http://toxnet.nlm.nih.gov/cgi-bin/sis/search/r?dbs+hsdb:@term+@rn+@rel+119-64-2
   3. http://toxnet.nlm.nih.gov/cgi-bin/sis/search/r?dbs+hsdb:@term+@rn+@rel+119-64-2
   4. http://toxnet.nlm.nih.gov/cgi-bin/sis/search/r?dbs+hsdb:@term+@rn+@rel+119-64-2
   5. http://toxnet.nlm.nih.gov/cgi-bin/sis/search/r?dbs+hsdb:@term+@rn+@rel+119-64-2
   6. http://toxnet.nlm.nih.gov/cgi-bin/sis/search/r?dbs+hsdb:@term+@rn+@rel+119-64-2
   7. http://toxnet.nlm.nih.gov/cgi-bin/sis/search/r?dbs+hsdb:@term+@rn+@rel+119-64-2
   8. http://toxnet.nlm.nih.gov/cgi-bin/sis/search/r?dbs+hsdb:@term+@rn+@rel+119-64-2
   9. http://toxnet.nlm.nih.gov/cgi-bin/sis/search/r?dbs+hsdb:@term+@rn+@rel+119-64-2
  10. http://toxnet.nlm.nih.gov/cgi-bin/sis/search/r?dbs+hsdb:@term+@rn+@rel+119-64-2
  11. http://toxnet.nlm.nih.gov/cgi-bin/sis/search/r?dbs+hsdb:@term+@rn+@rel+119-64-2
  12. http://toxnet.nlm.nih.gov/cgi-bin/sis/search/r?dbs+hsdb:@term+@rn+@rel+119-64-2
  13. http://toxnet.nlm.nih.gov/cgi-bin/sis/search/r?dbs+hsdb:@term+@rn+@rel+119-64-2
  14. http://toxnet.nlm.nih.gov/cgi-bin/sis/search/r?dbs+hsdb:@term+@rn+@rel+119-64-2
  15. http://toxnet.nlm.nih.gov/cgi-bin/sis/search/r?dbs+hsdb:@term+@rn+@rel+119-64-2
  16. http://pubchem.ncbi.nlm.nih.gov/vw3d/vw3d.cgi?cid=8404
