4723
  -OEChem-06261200182D

 21 22  0     1  0  0  0  0  0999 V2000
    2.8954    0.6307    0.0000 O   0  0  0  0  0  0  0  0  0  0  0  0
    5.4645    0.3216    0.0000 O   0  0  0  0  0  0  0  0  0  0  0  0
    4.2044    1.5817    0.0000 N   0  0  0  0  0  0  0  0  0  0  0  0
    2.6166    2.3907    0.0000 N   0  0  0  0  0  0  0  0  0  0  0  0
    3.7044    0.0429    0.0000 C   0  0  3  0  0  0  0  0  0  0  0  0
    3.7044   -0.9571    0.0000 C   0  0  0  0  0  0  0  0  0  0  0  0
    4.5134    0.6307    0.0000 C   0  0  0  0  0  0  0  0  0  0  0  0
    2.8384   -1.4571    0.0000 C   0  0  0  0  0  0  0  0  0  0  0  0
    4.5704   -1.4571    0.0000 C   0  0  0  0  0  0  0  0  0  0  0  0
    3.2044    1.5817    0.0000 C   0  0  0  0  0  0  0  0  0  0  0  0
    2.8384   -2.4571    0.0000 C   0  0  0  0  0  0  0  0  0  0  0  0
    4.5704   -2.4571    0.0000 C   0  0  0  0  0  0  0  0  0  0  0  0
    3.7044   -2.9571    0.0000 C   0  0  0  0  0  0  0  0  0  0  0  0
    4.2568   -0.2386    0.0000 H   0  0  0  0  0  0  0  0  0  0  0  0
    2.3014   -1.1471    0.0000 H   0  0  0  0  0  0  0  0  0  0  0  0
    5.1074   -1.1471    0.0000 H   0  0  0  0  0  0  0  0  0  0  0  0
    2.3014   -2.7671    0.0000 H   0  0  0  0  0  0  0  0  0  0  0  0
    5.1074   -2.7671    0.0000 H   0  0  0  0  0  0  0  0  0  0  0  0
    3.7044   -3.5771    0.0000 H   0  0  0  0  0  0  0  0  0  0  0  0
    2.8688    2.9571    0.0000 H   0  0  0  0  0  0  0  0  0  0  0  0
    2.0000    2.3259    0.0000 H   0  0  0  0  0  0  0  0  0  0  0  0
  1  5  1  0  0  0  0
  1 10  1  0  0  0  0
  2  7  2  0  0  0  0
  3  7  1  0  0  0  0
  3 10  2  0  0  0  0
  4 10  1  0  0  0  0
  4 20  1  0  0  0  0
  4 21  1  0  0  0  0
  5  6  1  0  0  0  0
  5  7  1  0  0  0  0
  5 14  1  0  0  0  0
  6  8  2  0  0  0  0
  6  9  1  0  0  0  0
  8 11  1  0  0  0  0
  8 15  1  0  0  0  0
  9 12  2  0  0  0  0
  9 16  1  0  0  0  0
 11 13  2  0  0  0  0
 11 17  1  0  0  0  0
 12 13  1  0  0  0  0
 12 18  1  0  0  0  0
 13 19  1  0  0  0  0
M  END
> <PUBCHEM_COMPOUND_CID>
4723

> <PUBCHEM_COMPOUND_CANONICALIZED>
1

> <PUBCHEM_CACTVS_COMPLEXITY>
244

> <PUBCHEM_CACTVS_HBOND_ACCEPTOR>
2

> <PUBCHEM_CACTVS_HBOND_DONOR>
1

> <PUBCHEM_CACTVS_ROTATABLE_BOND>
1

> <PUBCHEM_CACTVS_SUBSKEYS>
AAADccBzMAAAAAAAAAAAAAAAAAAAAQAAAAAwAAAAAAAAAAABAAAAHgAQAAAADBShmAIxAIJABACoAiFSNAICAAEgAAAIiAFACIkKJjKAtR2JMAAkwAEIqAeYyKCOAAAAAAAAAAAAAAAAAAAAAAAAAAAAAA==

> <PUBCHEM_IUPAC_OPENEYE_NAME>
2-amino-5-phenyl-oxazol-4-one

> <PUBCHEM_IUPAC_CAS_NAME>
2-amino-5-phenyl-4-oxazolone

> <PUBCHEM_IUPAC_NAME>
2-amino-5-phenyl-1,3-oxazol-4-one

> <PUBCHEM_IUPAC_SYSTEMATIC_NAME>
2-azanyl-5-phenyl-1,3-oxazol-4-one

> <PUBCHEM_IUPAC_TRADITIONAL_NAME>
2-amino-5-phenyl-2-oxazolin-4-one

> <PUBCHEM_IUPAC_INCHI>
InChI=1S/C9H8N2O2/c10-9-11-8(12)7(13-9)6-4-2-1-3-5-6/h1-5,7H,(H2,10,11,12)

> <PUBCHEM_IUPAC_INCHIKEY>
NRNCYVBFPDDJNE-UHFFFAOYSA-N

> <PUBCHEM_XLOGP3_AA>
0.9

> <PUBCHEM_EXACT_MASS>
176.058578

> <PUBCHEM_MOLECULAR_FORMULA>
C9H8N2O2

> <PUBCHEM_MOLECULAR_WEIGHT>
176.17202

> <PUBCHEM_OPENEYE_CAN_SMILES>
C1=CC=C(C=C1)C2C(=O)N=C(O2)N

> <PUBCHEM_OPENEYE_ISO_SMILES>
C1=CC=C(C=C1)C2C(=O)N=C(O2)N

> <PUBCHEM_CACTVS_TPSA>
64.7

> <PUBCHEM_MONOISOTOPIC_WEIGHT>
176.058578

> <PUBCHEM_TOTAL_CHARGE>
0

> <PUBCHEM_HEAVY_ATOM_COUNT>
13

> <PUBCHEM_ATOM_DEF_STEREO_COUNT>
0

> <PUBCHEM_ATOM_UDEF_STEREO_COUNT>
1

> <PUBCHEM_BOND_DEF_STEREO_COUNT>
0

> <PUBCHEM_BOND_UDEF_STEREO_COUNT>
0

> <PUBCHEM_ISOTOPIC_ATOM_COUNT>
0

> <PUBCHEM_COMPONENT_COUNT>
1

> <PUBCHEM_CACTVS_TAUTO_COUNT>
5

> <PUBCHEM_COORDINATE_TYPE>
1
5
255

> <PUBCHEM_BONDANNOTATIONS>
11  13  8
12  13  8
5  6  3
6  8  8
6  9  8
8  11  8
9  12  8

$$$$

