53266
  -OEChem-07051213092D

 47 49  0     1  0  0  0  0  0999 V2000
    7.3962    2.3221    0.0000 O   0  0  0  0  0  0  0  0  0  0  0  0
    7.3962    0.2738    0.0000 O   0  0  0  0  0  0  0  0  0  0  0  0
    7.3301   -2.7021    0.0000 O   0  0  0  0  0  0  0  0  0  0  0  0
    3.0000    0.7979    0.0000 N   0  3  0  0  0  0  0  0  0  0  0  0
    3.8660    0.2979    0.0000 C   0  0  1  0  0  0  0  0  0  0  0  0
    3.0000    1.7979    0.0000 C   0  0  0  0  0  0  0  0  0  0  0  0
    4.7320    0.7979    0.0000 C   0  0  0  0  0  0  0  0  0  0  0  0
    3.8660    2.2979    0.0000 C   0  0  0  0  0  0  0  0  0  0  0  0
    3.8660   -0.7021    0.0000 C   0  0  0  0  0  0  0  0  0  0  0  0
    4.7320    1.7979    0.0000 C   0  0  0  0  0  0  0  0  0  0  0  0
    2.0000    0.7979    0.0000 C   0  0  0  0  0  0  0  0  0  0  0  0
    2.5000   -0.0681    0.0000 C   0  0  0  0  0  0  0  0  0  0  0  0
    5.6260    0.2633    0.0000 C   0  0  0  0  0  0  0  0  0  0  0  0
    4.7320   -1.2021    0.0000 C   0  0  0  0  0  0  0  0  0  0  0  0
    5.6260    2.3326    0.0000 C   0  0  0  0  0  0  0  0  0  0  0  0
    6.5321    0.7771    0.0000 C   0  0  0  0  0  0  0  0  0  0  0  0
    6.5321    1.8187    0.0000 C   0  0  0  0  0  0  0  0  0  0  0  0
    4.7320   -2.2021    0.0000 C   0  0  0  0  0  0  0  0  0  0  0  0
    5.5981   -0.7021    0.0000 C   0  0  0  0  0  0  0  0  0  0  0  0
    5.5981   -2.7021    0.0000 C   0  0  0  0  0  0  0  0  0  0  0  0
    6.4641   -1.2021    0.0000 C   0  0  0  0  0  0  0  0  0  0  0  0
    6.4641   -2.2021    0.0000 C   0  0  0  0  0  0  0  0  0  0  0  0
    7.3923    3.3221    0.0000 C   0  0  0  0  0  0  0  0  0  0  0  0
    3.3291   -0.0121    0.0000 H   0  0  0  0  0  0  0  0  0  0  0  0
    2.7880    2.3805    0.0000 H   0  0  0  0  0  0  0  0  0  0  0  0
    2.3894    1.6903    0.0000 H   0  0  0  0  0  0  0  0  0  0  0  0
    4.2646    2.7729    0.0000 H   0  0  0  0  0  0  0  0  0  0  0  0
    3.4675    2.7729    0.0000 H   0  0  0  0  0  0  0  0  0  0  0  0
    3.2554   -0.5944    0.0000 H   0  0  0  0  0  0  0  0  0  0  0  0
    3.6540   -1.2847    0.0000 H   0  0  0  0  0  0  0  0  0  0  0  0
    2.0000    1.4179    0.0000 H   0  0  0  0  0  0  0  0  0  0  0  0
    1.9631    0.2419    0.0000 H   0  0  0  0  0  0  0  0  0  0  0  0
    2.1900   -0.6050    0.0000 H   0  0  0  0  0  0  0  0  0  0  0  0
    3.0369   -0.3781    0.0000 H   0  0  0  0  0  0  0  0  0  0  0  0
    1.3800    0.7979    0.0000 H   0  0  0  0  0  0  0  0  0  0  0  0
    2.0000    0.1779    0.0000 H   0  0  0  0  0  0  0  0  0  0  0  0
    5.6188   -0.3567    0.0000 H   0  0  0  0  0  0  0  0  0  0  0  0
    5.6188    2.9526    0.0000 H   0  0  0  0  0  0  0  0  0  0  0  0
    4.1951   -2.5121    0.0000 H   0  0  0  0  0  0  0  0  0  0  0  0
    5.5981   -0.0821    0.0000 H   0  0  0  0  0  0  0  0  0  0  0  0
    5.5981   -3.3221    0.0000 H   0  0  0  0  0  0  0  0  0  0  0  0
    7.0010   -0.8921    0.0000 H   0  0  0  0  0  0  0  0  0  0  0  0
    7.9343    0.5817    0.0000 H   0  0  0  0  0  0  0  0  0  0  0  0
    8.0123    3.3245    0.0000 H   0  0  0  0  0  0  0  0  0  0  0  0
    7.3899    3.9421    0.0000 H   0  0  0  0  0  0  0  0  0  0  0  0
    6.7723    3.3197    0.0000 H   0  0  0  0  0  0  0  0  0  0  0  0
    7.3301   -3.3221    0.0000 H   0  0  0  0  0  0  0  0  0  0  0  0
  1 17  1  0  0  0  0
  1 23  1  0  0  0  0
  2 16  1  0  0  0  0
  2 43  1  0  0  0  0
  3 22  1  0  0  0  0
  3 47  1  0  0  0  0
  4  5  1  0  0  0  0
  4  6  1  0  0  0  0
  4 11  1  0  0  0  0
  4 12  1  0  0  0  0
  5  7  1  0  0  0  0
  5  9  1  1  0  0  0
  5 24  1  0  0  0  0
  6  8  1  0  0  0  0
  6 25  1  0  0  0  0
  6 26  1  0  0  0  0
  7 10  1  0  0  0  0
  7 13  2  0  0  0  0
  8 10  1  0  0  0  0
  8 27  1  0  0  0  0
  8 28  1  0  0  0  0
  9 14  1  0  0  0  0
  9 29  1  0  0  0  0
  9 30  1  0  0  0  0
 10 15  2  0  0  0  0
 11 31  1  0  0  0  0
 11 35  1  0  0  0  0
 11 36  1  0  0  0  0
 12 32  1  0  0  0  0
 12 33  1  0  0  0  0
 12 34  1  0  0  0  0
 13 16  1  0  0  0  0
 13 37  1  0  0  0  0
 14 18  2  0  0  0  0
 14 19  1  0  0  0  0
 15 17  1  0  0  0  0
 15 38  1  0  0  0  0
 16 17  2  0  0  0  0
 18 20  1  0  0  0  0
 18 39  1  0  0  0  0
 19 21  2  0  0  0  0
 19 40  1  0  0  0  0
 20 22  2  0  0  0  0
 20 41  1  0  0  0  0
 21 22  1  0  0  0  0
 21 42  1  0  0  0  0
 23 44  1  0  0  0  0
 23 45  1  0  0  0  0
 23 46  1  0  0  0  0
M  CHG  1   4   1
M  END
> <PUBCHEM_COMPOUND_CID>
53266

> <PUBCHEM_COMPOUND_CANONICALIZED>
1

> <PUBCHEM_CACTVS_COMPLEXITY>
392

> <PUBCHEM_CACTVS_HBOND_ACCEPTOR>
3

> <PUBCHEM_CACTVS_HBOND_DONOR>
2

> <PUBCHEM_CACTVS_ROTATABLE_BOND>
3

> <PUBCHEM_CACTVS_SUBSKEYS>
AAADceB6MAAAAAAAAAAAAAAAAAAAAAAAAAA8YIAAAAAAAACxQAAAHgAACAAADCzBmAYyBoMABgCAAiBCAACCCAAgIAAIiAAOjIgNJiKGsRuEcCtkwBGLuAew0PMOoAABAAAQQABAAAIAACCAAAAAAAAAAA==

> <PUBCHEM_IUPAC_OPENEYE_NAME>
(1R)-1-[(4-hydroxyphenyl)methyl]-6-methoxy-2,2-dimethyl-3,4-dihydro-1H-isoquinolin-2-ium-7-ol

> <PUBCHEM_IUPAC_CAS_NAME>
(1R)-1-[(4-hydroxyphenyl)methyl]-6-methoxy-2,2-dimethyl-3,4-dihydro-1H-isoquinolin-2-ium-7-ol

> <PUBCHEM_IUPAC_NAME>
(1R)-1-[(4-hydroxyphenyl)methyl]-6-methoxy-2,2-dimethyl-3,4-dihydro-1H-isoquinolin-2-ium-7-ol

> <PUBCHEM_IUPAC_SYSTEMATIC_NAME>
(1R)-1-[(4-hydroxyphenyl)methyl]-6-methoxy-2,2-dimethyl-3,4-dihydro-1H-isoquinolin-2-ium-7-ol

> <PUBCHEM_IUPAC_TRADITIONAL_NAME>
(1R)-1-(4-hydroxybenzyl)-6-methoxy-2,2-dimethyl-3,4-dihydro-1H-isoquinolin-2-ium-7-ol

> <PUBCHEM_IUPAC_INCHI>
InChI=1S/C19H23NO3/c1-20(2)9-8-14-11-19(23-3)18(22)12-16(14)17(20)10-13-4-6-15(21)7-5-13/h4-7,11-12,17H,8-10H2,1-3H3,(H-,21,22)/p+1/t17-/m1/s1

> <PUBCHEM_IUPAC_INCHIKEY>
CLWOXNLVWMXBRD-QGZVFWFLSA-O

> <PUBCHEM_XLOGP3_AA>
3.1

> <PUBCHEM_EXACT_MASS>
314.175619

> <PUBCHEM_MOLECULAR_FORMULA>
C19H24NO3+

> <PUBCHEM_MOLECULAR_WEIGHT>
314.39876

> <PUBCHEM_OPENEYE_CAN_SMILES>
C[N+]1(CCC2=CC(=C(C=C2C1CC3=CC=C(C=C3)O)O)OC)C

> <PUBCHEM_OPENEYE_ISO_SMILES>
C[N+]1(CCC2=CC(=C(C=C2[C@H]1CC3=CC=C(C=C3)O)O)OC)C

> <PUBCHEM_CACTVS_TPSA>
49.7

> <PUBCHEM_MONOISOTOPIC_WEIGHT>
314.175619

> <PUBCHEM_TOTAL_CHARGE>
1

> <PUBCHEM_HEAVY_ATOM_COUNT>
23

> <PUBCHEM_ATOM_DEF_STEREO_COUNT>
1

> <PUBCHEM_ATOM_UDEF_STEREO_COUNT>
0

> <PUBCHEM_BOND_DEF_STEREO_COUNT>
0

> <PUBCHEM_BOND_UDEF_STEREO_COUNT>
0

> <PUBCHEM_ISOTOPIC_ATOM_COUNT>
0

> <PUBCHEM_COMPONENT_COUNT>
1

> <PUBCHEM_CACTVS_TAUTO_COUNT>
6

> <PUBCHEM_COORDINATE_TYPE>
1
5
255

> <PUBCHEM_BONDANNOTATIONS>
10  15  8
13  16  8
14  18  8
14  19  8
15  17  8
16  17  8
18  20  8
19  21  8
20  22  8
21  22  8
5  9  5
7  10  8
7  13  8

$$$$

