51090867
  -OEChem-06241223002D

 40 42  0     0  0  0  0  0  0999 V2000
    5.3147   -2.6307    0.0000 O   0  0  0  0  0  0  0  0  0  0  0  0
    8.4128    1.4081    0.0000 N   0  0  0  0  0  0  0  0  0  0  0  0
    7.1038    0.4571    0.0000 N   0  0  0  0  0  0  0  0  0  0  0  0
    8.7218    0.4571    0.0000 N   0  0  0  0  0  0  0  0  0  0  0  0
    6.1808   -1.1307    0.0000 N   0  0  0  0  0  0  0  0  0  0  0  0
    3.5827   -1.6307    0.0000 N   0  0  0  0  0  0  0  0  0  0  0  0
    2.6691   -1.2240    0.0000 N   0  0  0  0  0  0  0  0  0  0  0  0
    2.5000   -2.8331    0.0000 N   0  0  0  0  0  0  0  0  0  0  0  0
    6.8250    2.2172    0.0000 C   0  0  0  0  0  0  0  0  0  0  0  0
    7.4128    1.4081    0.0000 C   0  0  0  0  0  0  0  0  0  0  0  0
    7.9128   -1.1307    0.0000 C   0  0  0  0  0  0  0  0  0  0  0  0
    7.9128   -0.1307    0.0000 C   0  0  0  0  0  0  0  0  0  0  0  0
    7.2318    3.1307    0.0000 C   0  0  0  0  0  0  0  0  0  0  0  0
    5.8305    2.1126    0.0000 C   0  0  0  0  0  0  0  0  0  0  0  0
    7.0468   -1.6307    0.0000 C   0  0  0  0  0  0  0  0  0  0  0  0
    8.7788   -1.6307    0.0000 C   0  0  0  0  0  0  0  0  0  0  0  0
    7.0468   -2.6307    0.0000 C   0  0  0  0  0  0  0  0  0  0  0  0
    4.4487   -1.1307    0.0000 C   0  0  0  0  0  0  0  0  0  0  0  0
    5.3147   -1.6307    0.0000 C   0  0  0  0  0  0  0  0  0  0  0  0
    8.7788   -2.6307    0.0000 C   0  0  0  0  0  0  0  0  0  0  0  0
    7.9128   -3.1307    0.0000 C   0  0  0  0  0  0  0  0  0  0  0  0
    3.4782   -2.6252    0.0000 C   0  0  0  0  0  0  0  0  0  0  0  0
    2.0000   -1.9671    0.0000 C   0  0  0  0  0  0  0  0  0  0  0  0
    7.4416    2.2820    0.0000 H   0  0  0  0  0  0  0  0  0  0  0  0
    5.7657    2.7292    0.0000 H   0  0  0  0  0  0  0  0  0  0  0  0
    5.2139    2.0478    0.0000 H   0  0  0  0  0  0  0  0  0  0  0  0
    7.7982    2.8785    0.0000 H   0  0  0  0  0  0  0  0  0  0  0  0
    7.4839    3.6971    0.0000 H   0  0  0  0  0  0  0  0  0  0  0  0
    6.6654    3.3829    0.0000 H   0  0  0  0  0  0  0  0  0  0  0  0
    5.8953    1.4960    0.0000 H   0  0  0  0  0  0  0  0  0  0  0  0
    8.7772    1.9097    0.0000 H   0  0  0  0  0  0  0  0  0  0  0  0
    9.3158   -1.3207    0.0000 H   0  0  0  0  0  0  0  0  0  0  0  0
    6.1808   -0.5107    0.0000 H   0  0  0  0  0  0  0  0  0  0  0  0
    6.5098   -2.9407    0.0000 H   0  0  0  0  0  0  0  0  0  0  0  0
    4.8472   -0.6558    0.0000 H   0  0  0  0  0  0  0  0  0  0  0  0
    4.0502   -0.6558    0.0000 H   0  0  0  0  0  0  0  0  0  0  0  0
    9.3158   -2.9407    0.0000 H   0  0  0  0  0  0  0  0  0  0  0  0
    7.9128   -3.7507    0.0000 H   0  0  0  0  0  0  0  0  0  0  0  0
    3.9389   -3.0401    0.0000 H   0  0  0  0  0  0  0  0  0  0  0  0
    1.3834   -1.9023    0.0000 H   0  0  0  0  0  0  0  0  0  0  0  0
  1 19  2  0  0  0  0
  2  4  1  0  0  0  0
  2 10  1  0  0  0  0
  2 31  1  0  0  0  0
  3 10  2  0  0  0  0
  3 12  1  0  0  0  0
  4 12  2  0  0  0  0
  5 15  1  0  0  0  0
  5 19  1  0  0  0  0
  5 33  1  0  0  0  0
  6  7  1  0  0  0  0
  6 18  1  0  0  0  0
  6 22  1  0  0  0  0
  7 23  2  0  0  0  0
  8 22  2  0  0  0  0
  8 23  1  0  0  0  0
  9 10  1  0  0  0  0
  9 13  1  0  0  0  0
  9 14  1  0  0  0  0
  9 24  1  0  0  0  0
 11 12  1  0  0  0  0
 11 15  1  0  0  0  0
 11 16  2  0  0  0  0
 13 27  1  0  0  0  0
 13 28  1  0  0  0  0
 13 29  1  0  0  0  0
 14 25  1  0  0  0  0
 14 26  1  0  0  0  0
 14 30  1  0  0  0  0
 15 17  2  0  0  0  0
 16 20  1  0  0  0  0
 16 32  1  0  0  0  0
 17 21  1  0  0  0  0
 17 34  1  0  0  0  0
 18 19  1  0  0  0  0
 18 35  1  0  0  0  0
 18 36  1  0  0  0  0
 20 21  2  0  0  0  0
 20 37  1  0  0  0  0
 21 38  1  0  0  0  0
 22 39  1  0  0  0  0
 23 40  1  0  0  0  0
M  END
> <PUBCHEM_COMPOUND_CID>
51090867

> <PUBCHEM_COMPOUND_CANONICALIZED>
1

> <PUBCHEM_CACTVS_COMPLEXITY>
405

> <PUBCHEM_CACTVS_HBOND_ACCEPTOR>
5

> <PUBCHEM_CACTVS_HBOND_DONOR>
2

> <PUBCHEM_CACTVS_ROTATABLE_BOND>
5

> <PUBCHEM_CACTVS_SUBSKEYS>
AAADceBzoAAAAAAAAAAAAAAAAAAAAWLAAAAwAAAAAAAAAAAB8AAAHgAYAAAADQjBmwQ30IbrEACqAidzdACSgAuxgqAd6CC4ZJiIaKLA2bGUIAhonALIyAcQgAAOAAAAAAACAAAAAAAAAAQAAAAAAAAAAA==

> <PUBCHEM_IUPAC_OPENEYE_NAME>
N-[2-(5-isopropyl-1H-1,2,4-triazol-3-yl)phenyl]-2-(1,2,4-triazol-1-yl)acetamide

> <PUBCHEM_IUPAC_CAS_NAME>
N-[2-(5-propan-2-yl-1H-1,2,4-triazol-3-yl)phenyl]-2-(1,2,4-triazol-1-yl)acetamide

> <PUBCHEM_IUPAC_NAME>
N-[2-(5-propan-2-yl-1H-1,2,4-triazol-3-yl)phenyl]-2-(1,2,4-triazol-1-yl)acetamide

> <PUBCHEM_IUPAC_SYSTEMATIC_NAME>
N-[2-(5-propan-2-yl-1H-1,2,4-triazol-3-yl)phenyl]-2-(1,2,4-triazol-1-yl)ethanamide

> <PUBCHEM_IUPAC_TRADITIONAL_NAME>
N-[2-(5-isopropyl-1H-1,2,4-triazol-3-yl)phenyl]-2-(1,2,4-triazol-1-yl)acetamide

> <PUBCHEM_IUPAC_INCHI>
InChI=1S/C15H17N7O/c1-10(2)14-19-15(21-20-14)11-5-3-4-6-12(11)18-13(23)7-22-9-16-8-17-22/h3-6,8-10H,7H2,1-2H3,(H,18,23)(H,19,20,21)

> <PUBCHEM_IUPAC_INCHIKEY>
RLKSCLNDOHSIOQ-UHFFFAOYSA-N

> <PUBCHEM_XLOGP3_AA>
1.9

> <PUBCHEM_EXACT_MASS>
311.149458

> <PUBCHEM_MOLECULAR_FORMULA>
C15H17N7O

> <PUBCHEM_MOLECULAR_WEIGHT>
311.34178

> <PUBCHEM_OPENEYE_CAN_SMILES>
CC(C)C1=NC(=NN1)C2=CC=CC=C2NC(=O)CN3C=NC=N3

> <PUBCHEM_OPENEYE_ISO_SMILES>
CC(C)C1=NC(=NN1)C2=CC=CC=C2NC(=O)CN3C=NC=N3

> <PUBCHEM_CACTVS_TPSA>
101

> <PUBCHEM_MONOISOTOPIC_WEIGHT>
311.149458

> <PUBCHEM_TOTAL_CHARGE>
0

> <PUBCHEM_HEAVY_ATOM_COUNT>
23

> <PUBCHEM_ATOM_DEF_STEREO_COUNT>
0

> <PUBCHEM_ATOM_UDEF_STEREO_COUNT>
0

> <PUBCHEM_BOND_DEF_STEREO_COUNT>
0

> <PUBCHEM_BOND_UDEF_STEREO_COUNT>
0

> <PUBCHEM_ISOTOPIC_ATOM_COUNT>
0

> <PUBCHEM_COMPONENT_COUNT>
1

> <PUBCHEM_CACTVS_TAUTO_COUNT>
77

> <PUBCHEM_COORDINATE_TYPE>
1
5
255

> <PUBCHEM_BONDANNOTATIONS>
11  15  8
11  16  8
15  17  8
16  20  8
17  21  8
2  10  8
2  4  8
20  21  8
3  10  8
3  12  8
4  12  8
6  22  8
6  7  8
7  23  8
8  22  8
8  23  8

$$$$

