5281581
  -OEChem-07051212582D

 85 88  0     1  0  0  0  0  0999 V2000
    2.8660    0.3483    0.0000 O   0  0  0  0  0  0  0  0  0  0  0  0
    3.7226   -0.1683    0.0000 O   0  0  0  0  0  0  0  0  0  0  0  0
    6.9641   -0.0177    0.0000 O   0  0  0  0  0  0  0  0  0  0  0  0
    3.7118   -3.1148    0.0000 O   0  0  0  0  0  0  0  0  0  0  0  0
    5.4641    0.8484    0.0000 N   0  0  0  0  0  0  0  0  0  0  0  0
    5.4641   -1.1516    0.0000 N   0  0  0  0  0  0  0  0  0  0  0  0
    6.4641    2.5804    0.0000 N   0  0  0  0  0  0  0  0  0  0  0  0
    4.5981   -3.6516    0.0000 N   0  0  0  0  0  0  0  0  0  0  0  0
    8.7960    4.1553    0.0000 N   0  0  0  0  0  0  0  0  0  0  0  0
    3.7320    0.8483    0.0000 C   0  0  2  0  0  0  0  0  0  0  0  0
    4.5981    0.3483    0.0000 C   0  0  1  0  0  0  0  0  0  0  0  0
    3.7320    1.8484    0.0000 C   0  0  0  0  0  0  0  0  0  0  0  0
    5.4641   -2.1516    0.0000 C   0  0  1  0  0  0  0  0  0  0  0  0
    6.3301   -2.6516    0.0000 C   0  0  2  0  0  0  0  0  0  0  0  0
    4.5981   -0.6517    0.0000 C   0  0  0  0  0  0  0  0  0  0  0  0
    6.9641    1.7144    0.0000 C   0  0  2  0  0  0  0  0  0  0  0  0
    6.4641    0.8484    0.0000 C   0  0  0  0  0  0  0  0  0  0  0  0
    7.9641    1.7144    0.0000 C   0  0  0  0  0  0  0  0  0  0  0  0
    2.8660    2.3484    0.0000 C   0  0  0  0  0  0  0  0  0  0  0  0
    4.5981    2.3484    0.0000 C   0  0  0  0  0  0  0  0  0  0  0  0
    7.1962   -2.1516    0.0000 C   0  0  0  0  0  0  0  0  0  0  0  0
    6.3301   -3.6516    0.0000 C   0  0  0  0  0  0  0  0  0  0  0  0
    8.4641    2.5804    0.0000 C   0  0  0  0  0  0  0  0  0  0  0  0
    4.5981   -2.6516    0.0000 C   0  0  0  0  0  0  0  0  0  0  0  0
    9.4528    2.6835    0.0000 C   0  0  0  0  0  0  0  0  0  0  0  0
    2.8660   -0.6517    0.0000 C   0  0  0  0  0  0  0  0  0  0  0  0
    8.0622   -2.6516    0.0000 C   0  0  0  0  0  0  0  0  0  0  0  0
    8.0590    3.4882    0.0000 C   0  0  0  0  0  0  0  0  0  0  0  0
    9.6590    3.6620    0.0000 C   0  0  0  0  0  0  0  0  0  0  0  0
    6.9641    3.4464    0.0000 C   0  0  0  0  0  0  0  0  0  0  0  0
    5.4641    2.5804    0.0000 C   0  0  0  0  0  0  0  0  0  0  0  0
    3.7320   -1.1516    0.0000 C   0  0  0  0  0  0  0  0  0  0  0  0
    2.0000   -1.1516    0.0000 C   0  0  0  0  0  0  0  0  0  0  0  0
   10.1971    2.0156    0.0000 C   0  0  0  0  0  0  0  0  0  0  0  0
   10.6096    3.9726    0.0000 C   0  0  0  0  0  0  0  0  0  0  0  0
    2.8660   -2.6516    0.0000 C   0  0  0  0  0  0  0  0  0  0  0  0
    3.7320   -4.1516    0.0000 C   0  0  0  0  0  0  0  0  0  0  0  0
    3.7320   -2.1516    0.0000 C   0  0  0  0  0  0  0  0  0  0  0  0
    2.0000   -2.1516    0.0000 C   0  0  0  0  0  0  0  0  0  0  0  0
   11.1476    2.3263    0.0000 C   0  0  0  0  0  0  0  0  0  0  0  0
    2.8660   -3.6516    0.0000 C   0  0  0  0  0  0  0  0  0  0  0  0
   11.3539    3.3048    0.0000 C   0  0  0  0  0  0  0  0  0  0  0  0
    3.1951    1.1584    0.0000 H   0  0  0  0  0  0  0  0  0  0  0  0
    5.1350    0.0383    0.0000 H   0  0  0  0  0  0  0  0  0  0  0  0
    4.2690    1.5384    0.0000 H   0  0  0  0  0  0  0  0  0  0  0  0
    6.2002   -1.7266    0.0000 H   0  0  0  0  0  0  0  0  0  0  0  0
    6.8671   -2.9616    0.0000 H   0  0  0  0  0  0  0  0  0  0  0  0
    6.3441    1.7144    0.0000 H   0  0  0  0  0  0  0  0  0  0  0  0
    5.4641    1.4684    0.0000 H   0  0  0  0  0  0  0  0  0  0  0  0
    6.0841   -1.1516    0.0000 H   0  0  0  0  0  0  0  0  0  0  0  0
    7.8564    1.1038    0.0000 H   0  0  0  0  0  0  0  0  0  0  0  0
    8.5467    1.5023    0.0000 H   0  0  0  0  0  0  0  0  0  0  0  0
    4.9081    1.8114    0.0000 H   0  0  0  0  0  0  0  0  0  0  0  0
    5.1350    2.6584    0.0000 H   0  0  0  0  0  0  0  0  0  0  0  0
    4.2881    2.8853    0.0000 H   0  0  0  0  0  0  0  0  0  0  0  0
    3.1760    2.8853    0.0000 H   0  0  0  0  0  0  0  0  0  0  0  0
    2.3291    2.6583    0.0000 H   0  0  0  0  0  0  0  0  0  0  0  0
    2.5560    1.8114    0.0000 H   0  0  0  0  0  0  0  0  0  0  0  0
    7.5947   -1.6767    0.0000 H   0  0  0  0  0  0  0  0  0  0  0  0
    6.7976   -1.6767    0.0000 H   0  0  0  0  0  0  0  0  0  0  0  0
    5.7101   -3.6516    0.0000 H   0  0  0  0  0  0  0  0  0  0  0  0
    6.3301   -4.2716    0.0000 H   0  0  0  0  0  0  0  0  0  0  0  0
    6.9501   -3.6516    0.0000 H   0  0  0  0  0  0  0  0  0  0  0  0
    7.7522   -3.1886    0.0000 H   0  0  0  0  0  0  0  0  0  0  0  0
    8.5991   -2.9616    0.0000 H   0  0  0  0  0  0  0  0  0  0  0  0
    8.3722   -2.1147    0.0000 H   0  0  0  0  0  0  0  0  0  0  0  0
    7.4523    3.6160    0.0000 H   0  0  0  0  0  0  0  0  0  0  0  0
    5.4641    3.2004    0.0000 H   0  0  0  0  0  0  0  0  0  0  0  0
    4.8441    2.5804    0.0000 H   0  0  0  0  0  0  0  0  0  0  0  0
    5.4641    1.9604    0.0000 H   0  0  0  0  0  0  0  0  0  0  0  0
    7.5010    3.1364    0.0000 H   0  0  0  0  0  0  0  0  0  0  0  0
    7.2741    3.9834    0.0000 H   0  0  0  0  0  0  0  0  0  0  0  0
    6.4272    3.7564    0.0000 H   0  0  0  0  0  0  0  0  0  0  0  0
    5.1350   -3.9616    0.0000 H   0  0  0  0  0  0  0  0  0  0  0  0
    8.7291    4.7716    0.0000 H   0  0  0  0  0  0  0  0  0  0  0  0
    4.2690   -0.8416    0.0000 H   0  0  0  0  0  0  0  0  0  0  0  0
    1.4631   -0.8417    0.0000 H   0  0  0  0  0  0  0  0  0  0  0  0
   10.0693    1.4089    0.0000 H   0  0  0  0  0  0  0  0  0  0  0  0
   10.7374    4.5793    0.0000 H   0  0  0  0  0  0  0  0  0  0  0  0
    3.7320   -4.7716    0.0000 H   0  0  0  0  0  0  0  0  0  0  0  0
    4.2690   -2.4616    0.0000 H   0  0  0  0  0  0  0  0  0  0  0  0
    1.4631   -2.4616    0.0000 H   0  0  0  0  0  0  0  0  0  0  0  0
   11.6091    1.9122    0.0000 H   0  0  0  0  0  0  0  0  0  0  0  0
    2.3291   -3.9616    0.0000 H   0  0  0  0  0  0  0  0  0  0  0  0
   11.9432    3.4974    0.0000 H   0  0  0  0  0  0  0  0  0  0  0  0
  1 10  1  0  0  0  0
  1 26  1  0  0  0  0
  2 15  2  0  0  0  0
  3 17  2  0  0  0  0
  4 24  2  0  0  0  0
 11  5  1  6  0  0  0
  5 17  1  0  0  0  0
  5 49  1  0  0  0  0
  6 13  1  0  0  0  0
  6 15  1  0  0  0  0
  6 50  1  0  0  0  0
 16  7  1  1  0  0  0
  7 30  1  0  0  0  0
  7 31  1  0  0  0  0
  8 24  1  0  0  0  0
  8 37  1  0  0  0  0
  8 74  1  0  0  0  0
  9 28  1  0  0  0  0
  9 29  1  0  0  0  0
  9 75  1  0  0  0  0
 10 11  1  0  0  0  0
 10 12  1  1  0  0  0
 10 43  1  0  0  0  0
 11 15  1  0  0  0  0
 11 44  1  0  0  0  0
 12 19  1  0  0  0  0
 12 20  1  0  0  0  0
 12 45  1  0  0  0  0
 13 14  1  0  0  0  0
 13 24  1  0  0  0  0
 13 46  1  6  0  0  0
 14 21  1  0  0  0  0
 14 22  1  6  0  0  0
 14 47  1  0  0  0  0
 16 17  1  0  0  0  0
 16 18  1  0  0  0  0
 16 48  1  0  0  0  0
 18 23  1  0  0  0  0
 18 51  1  0  0  0  0
 18 52  1  0  0  0  0
 19 56  1  0  0  0  0
 19 57  1  0  0  0  0
 19 58  1  0  0  0  0
 20 53  1  0  0  0  0
 20 54  1  0  0  0  0
 20 55  1  0  0  0  0
 21 27  1  0  0  0  0
 21 59  1  0  0  0  0
 21 60  1  0  0  0  0
 22 61  1  0  0  0  0
 22 62  1  0  0  0  0
 22 63  1  0  0  0  0
 23 25  1  0  0  0  0
 23 28  2  0  0  0  0
 25 29  1  0  0  0  0
 25 34  2  0  0  0  0
 26 32  2  0  0  0  0
 26 33  1  0  0  0  0
 27 64  1  0  0  0  0
 27 65  1  0  0  0  0
 27 66  1  0  0  0  0
 28 67  1  0  0  0  0
 29 35  2  0  0  0  0
 30 71  1  0  0  0  0
 30 72  1  0  0  0  0
 30 73  1  0  0  0  0
 31 68  1  0  0  0  0
 31 69  1  0  0  0  0
 31 70  1  0  0  0  0
 32 38  1  0  0  0  0
 32 76  1  0  0  0  0
 33 39  2  0  0  0  0
 33 77  1  0  0  0  0
 34 40  1  0  0  0  0
 34 78  1  0  0  0  0
 35 42  1  0  0  0  0
 35 79  1  0  0  0  0
 36 38  2  0  0  0  0
 36 39  1  0  0  0  0
 36 41  1  0  0  0  0
 37 41  2  0  0  0  0
 37 80  1  0  0  0  0
 38 81  1  0  0  0  0
 39 82  1  0  0  0  0
 40 42  2  0  0  0  0
 40 83  1  0  0  0  0
 41 84  1  0  0  0  0
 42 85  1  0  0  0  0
M  END
> <PUBCHEM_COMPOUND_CID>
5281581

> <PUBCHEM_COMPOUND_CANONICALIZED>
1

> <PUBCHEM_CACTVS_COMPLEXITY>
947

> <PUBCHEM_CACTVS_HBOND_ACCEPTOR>
5

> <PUBCHEM_CACTVS_HBOND_DONOR>
4

> <PUBCHEM_CACTVS_ROTATABLE_BOND>
8

> <PUBCHEM_CACTVS_SUBSKEYS>
AAADcfB/uAAAAAAAAAAAAAAAAAAAAWAAAAAwYAAAAAAAAFgB9AAAHgAQAAAADTzhngY+xvPJlACoAzV3VACCiCAxIiAI2aG+bJgOZvbEsbuXOCjm9hHY6AeYycCOoAAAAAACAABAAAAAAAQAAAAAAAAAAA==

> <PUBCHEM_IUPAC_OPENEYE_NAME>
(2S)-2-(dimethylamino)-3-(1H-indol-3-yl)-N-[(2Z,6S,9S,10S)-10-isopropyl-6-[(1S)-1-methylpropyl]-5,8-dioxo-11-oxa-4,7-diazabicyclo[10.2.2]hexadeca-1(14),2,12,15-tetraen-9-yl]propanamide

> <PUBCHEM_IUPAC_CAS_NAME>
(2S)-N-[(2Z,6S,9S,10S)-6-[(2S)-butan-2-yl]-5,8-dioxo-10-propan-2-yl-11-oxa-4,7-diazabicyclo[10.2.2]hexadeca-1(14),2,12,15-tetraen-9-yl]-2-(dimethylamino)-3-(1H-indol-3-yl)propanamide

> <PUBCHEM_IUPAC_NAME>
(2S)-N-[(2Z,6S,9S,10S)-6-[(2S)-butan-2-yl]-5,8-dioxo-10-propan-2-yl-11-oxa-4,7-diazabicyclo[10.2.2]hexadeca-1(14),2,12,15-tetraen-9-yl]-2-(dimethylamino)-3-(1H-indol-3-yl)propanamide

> <PUBCHEM_IUPAC_SYSTEMATIC_NAME>
(2S)-N-[(2Z,6S,9S,10S)-6-[(2S)-butan-2-yl]-5,8-bis(oxidanylidene)-10-propan-2-yl-11-oxa-4,7-diazabicyclo[10.2.2]hexadeca-1(14),2,12,15-tetraen-9-yl]-2-(dimethylamino)-3-(1H-indol-3-yl)propanamide

> <PUBCHEM_IUPAC_TRADITIONAL_NAME>
(2S)-2-(dimethylamino)-3-(1H-indol-3-yl)-N-[(2Z,6S,9S,10S)-10-isopropyl-5,8-diketo-6-[(1S)-1-methylpropyl]-11-oxa-4,7-diazabicyclo[10.2.2]hexadeca-1(14),2,12,15-tetraen-9-yl]propionamide

> <PUBCHEM_IUPAC_INCHI>
InChI=1S/C33H43N5O4/c1-7-21(4)28-32(40)34-17-16-22-12-14-24(15-13-22)42-30(20(2)3)29(33(41)36-28)37-31(39)27(38(5)6)18-23-19-35-26-11-9-8-10-25(23)26/h8-17,19-21,27-30,35H,7,18H2,1-6H3,(H,34,40)(H,36,41)(H,37,39)/b17-16-/t21-,27-,28-,29-,30-/m0/s1

> <PUBCHEM_IUPAC_INCHIKEY>
ZNUMAFXIQXNMMH-UZFRKIFNSA-N

> <PUBCHEM_XLOGP3_AA>
5.4

> <PUBCHEM_EXACT_MASS>
573.331505

> <PUBCHEM_MOLECULAR_FORMULA>
C33H43N5O4

> <PUBCHEM_MOLECULAR_WEIGHT>
573.72562

> <PUBCHEM_OPENEYE_CAN_SMILES>
CCC(C)C1C(=O)NC=CC2=CC=C(C=C2)OC(C(C(=O)N1)NC(=O)C(CC3=CNC4=CC=CC=C43)N(C)C)C(C)C

> <PUBCHEM_OPENEYE_ISO_SMILES>
CC[C@H](C)[C@H]1C(=O)N/C=C\C2=CC=C(C=C2)O[C@H]([C@@H](C(=O)N1)NC(=O)[C@H](CC3=CNC4=CC=CC=C43)N(C)C)C(C)C

> <PUBCHEM_CACTVS_TPSA>
116

> <PUBCHEM_MONOISOTOPIC_WEIGHT>
573.331505

> <PUBCHEM_TOTAL_CHARGE>
0

> <PUBCHEM_HEAVY_ATOM_COUNT>
42

> <PUBCHEM_ATOM_DEF_STEREO_COUNT>
5

> <PUBCHEM_ATOM_UDEF_STEREO_COUNT>
0

> <PUBCHEM_BOND_DEF_STEREO_COUNT>
1

> <PUBCHEM_BOND_UDEF_STEREO_COUNT>
0

> <PUBCHEM_ISOTOPIC_ATOM_COUNT>
0

> <PUBCHEM_COMPONENT_COUNT>
1

> <PUBCHEM_CACTVS_TAUTO_COUNT>
18

> <PUBCHEM_COORDINATE_TYPE>
1
5
255

> <PUBCHEM_BONDANNOTATIONS>
10  12  5
13  46  6
14  22  6
23  25  8
23  28  8
25  29  8
25  34  8
26  32  8
26  33  8
29  35  8
32  38  8
33  39  8
34  40  8
35  42  8
36  38  8
36  39  8
40  42  8
11  5  6
16  7  5
9  28  8
9  29  8

$$$$

