5528
  -OEChem-06261200432D

 26 27  0     1  0  0  0  0  0999 V2000
    6.5640   -2.4873    0.0000 O   0  0  0  0  0  0  0  0  0  0  0  0
    4.7723    2.4873    0.0000 O   0  0  0  0  0  0  0  0  0  0  0  0
    4.2320   -0.8625    0.0000 C   0  0  3  0  0  0  0  0  0  0  0  0
    3.7543    1.0861    0.0000 C   0  0  3  0  0  0  0  0  0  0  0  0
    4.4909    0.1034    0.0000 C   0  0  3  0  0  0  0  0  0  0  0  0
    2.5000   -1.8625    0.0000 C   0  0  0  0  0  0  0  0  0  0  0  0
    2.0000   -0.9965    0.0000 C   0  0  0  0  0  0  0  0  0  0  0  0
    6.3228   -0.6554    0.0000 C   0  0  0  0  0  0  0  0  0  0  0  0
    6.0640   -1.6213    0.0000 C   0  0  0  0  0  0  0  0  0  0  0  0
    3.9732   -1.8284    0.0000 C   0  0  0  0  0  0  0  0  0  0  0  0
    2.8407    1.4928    0.0000 C   0  0  0  0  0  0  0  0  0  0  0  0
    3.8588    2.0806    0.0000 C   0  0  0  0  0  0  0  0  0  0  0  0
    4.4980   -0.5165    0.0000 H   0  0  0  0  0  0  0  0  0  0  0  0
    1.9631   -2.1725    0.0000 H   0  0  0  0  0  0  0  0  0  0  0  0
    2.8100   -2.3994    0.0000 H   0  0  0  0  0  0  0  0  0  0  0  0
    1.7294   -0.4386    0.0000 H   0  0  0  0  0  0  0  0  0  0  0  0
    1.4523   -1.2870    0.0000 H   0  0  0  0  0  0  0  0  0  0  0  0
    6.9141   -0.8418    0.0000 H   0  0  0  0  0  0  0  0  0  0  0  0
    6.5349   -0.0728    0.0000 H   0  0  0  0  0  0  0  0  0  0  0  0
    3.3744   -1.6679    0.0000 H   0  0  0  0  0  0  0  0  0  0  0  0
    3.8128   -2.4273    0.0000 H   0  0  0  0  0  0  0  0  0  0  0  0
    4.5721   -1.9889    0.0000 H   0  0  0  0  0  0  0  0  0  0  0  0
    3.0929    2.0592    0.0000 H   0  0  0  0  0  0  0  0  0  0  0  0
    2.2743    1.7450    0.0000 H   0  0  0  0  0  0  0  0  0  0  0  0
    2.5885    0.9264    0.0000 H   0  0  0  0  0  0  0  0  0  0  0  0
    3.3572    2.4450    0.0000 H   0  0  0  0  0  0  0  0  0  0  0  0
  1  9  2  0  0  0  0
  2 12  2  0  0  0  0
  3  4  1  0  0  0  0
  3  6  1  0  0  0  0
  3  9  1  0  0  0  0
  3 10  1  0  0  0  0
  4  5  1  0  0  0  0
  4 11  1  0  0  0  0
  4 12  1  0  0  0  0
  5  7  1  0  0  0  0
  5  8  1  0  0  0  0
  5 13  1  0  0  0  0
  6  7  1  0  0  0  0
  6 14  1  0  0  0  0
  6 15  1  0  0  0  0
  7 16  1  0  0  0  0
  7 17  1  0  0  0  0
  8  9  1  0  0  0  0
  8 18  1  0  0  0  0
  8 19  1  0  0  0  0
 10 20  1  0  0  0  0
 10 21  1  0  0  0  0
 10 22  1  0  0  0  0
 11 23  1  0  0  0  0
 11 24  1  0  0  0  0
 11 25  1  0  0  0  0
 12 26  1  0  0  0  0
M  END
> <PUBCHEM_COMPOUND_CID>
5528

> <PUBCHEM_COMPOUND_CANONICALIZED>
1

> <PUBCHEM_CACTVS_COMPLEXITY>
259

> <PUBCHEM_CACTVS_HBOND_ACCEPTOR>
2

> <PUBCHEM_CACTVS_HBOND_DONOR>
0

> <PUBCHEM_CACTVS_ROTATABLE_BOND>
1

> <PUBCHEM_CACTVS_SUBSKEYS>
AAADccBwMAAAAAAAAAAAAAAAAAAAAYMAAAAwAAAAAAAAAAAAAAAAGgAAAAAADwSggAICAAAAAAAIAIgQgAAAAAAAAAAAAAEAAAAAABIAAAAAAAAAAAAAAAEJisCvgAAAAAAAAACAAAAAAAAAAQAACAAAAA==

> <PUBCHEM_IUPAC_OPENEYE_NAME>
1,7-dimethyl-2-oxo-norbornane-7-carbaldehyde

> <PUBCHEM_IUPAC_CAS_NAME>
4,7-dimethyl-3-oxo-7-bicyclo[2.2.1]heptanecarboxaldehyde

> <PUBCHEM_IUPAC_NAME>
4,7-dimethyl-3-oxobicyclo[2.2.1]heptane-7-carbaldehyde

> <PUBCHEM_IUPAC_SYSTEMATIC_NAME>
4,7-dimethyl-3-oxidanylidene-bicyclo[2.2.1]heptane-7-carbaldehyde

> <PUBCHEM_IUPAC_TRADITIONAL_NAME>
2-keto-1,7-dimethyl-norbornane-7-carbaldehyde

> <PUBCHEM_IUPAC_INCHI>
InChI=1S/C10H14O2/c1-9-4-3-7(5-8(9)12)10(9,2)6-11/h6-7H,3-5H2,1-2H3

> <PUBCHEM_IUPAC_INCHIKEY>
BZFVGPPELIFTQP-UHFFFAOYSA-N

> <PUBCHEM_XLOGP3_AA>
0.8

> <PUBCHEM_EXACT_MASS>
166.09938

> <PUBCHEM_MOLECULAR_FORMULA>
C10H14O2

> <PUBCHEM_MOLECULAR_WEIGHT>
166.21696

> <PUBCHEM_OPENEYE_CAN_SMILES>
CC12CCC(C1(C)C=O)CC2=O

> <PUBCHEM_OPENEYE_ISO_SMILES>
CC12CCC(C1(C)C=O)CC2=O

> <PUBCHEM_CACTVS_TPSA>
34.1

> <PUBCHEM_MONOISOTOPIC_WEIGHT>
166.09938

> <PUBCHEM_TOTAL_CHARGE>
0

> <PUBCHEM_HEAVY_ATOM_COUNT>
12

> <PUBCHEM_ATOM_DEF_STEREO_COUNT>
0

> <PUBCHEM_ATOM_UDEF_STEREO_COUNT>
3

> <PUBCHEM_BOND_DEF_STEREO_COUNT>
0

> <PUBCHEM_BOND_UDEF_STEREO_COUNT>
0

> <PUBCHEM_ISOTOPIC_ATOM_COUNT>
0

> <PUBCHEM_COMPONENT_COUNT>
1

> <PUBCHEM_CACTVS_TAUTO_COUNT>
2

> <PUBCHEM_COORDINATE_TYPE>
1
5
255

> <PUBCHEM_BONDANNOTATIONS>
3  10  3
4  11  3
5  7  3

$$$$

