440490
  -OEChem-07051212492D

 47 48  0     1  0  0  0  0  0999 V2000
    6.8909   -5.2257    0.0000 P   0  0  0  0  0  0  0  0  0  0  0  0
    5.0298   -2.7612    0.0000 O   0  0  0  0  0  0  0  0  0  0  0  0
    2.4608   -2.4522    0.0000 O   0  0  0  0  0  0  0  0  0  0  0  0
    3.1330   -4.5212    0.0000 O   0  0  0  0  0  0  0  0  0  0  0  0
    6.3031   -4.4167    0.0000 O   0  0  0  0  0  0  0  0  0  0  0  0
    7.4787   -6.0347    0.0000 O   0  0  0  0  0  0  0  0  0  0  0  0
    7.6999   -4.6379    0.0000 O   0  0  0  0  0  0  0  0  0  0  0  0
    6.0819   -5.8135    0.0000 O   0  0  0  0  0  0  0  0  0  0  0  0
    3.9074    2.1926    0.0000 O   0  0  0  0  0  0  0  0  0  0  0  0
    6.6652    4.5151    0.0000 O   0  0  0  0  0  0  0  0  0  0  0  0
    4.2208   -1.1734    0.0000 N   0  0  0  0  0  0  0  0  0  0  0  0
    3.7208    0.3655    0.0000 N   0  0  0  0  0  0  0  0  0  0  0  0
    5.9809   -0.8946    0.0000 N   0  0  0  0  0  0  0  0  0  0  0  0
    5.3086    1.1745    0.0000 N   0  0  0  0  0  0  0  0  0  0  0  0
    5.2640    5.5332    0.0000 N   0  0  0  0  0  0  0  0  0  0  0  0
    3.4118   -2.7612    0.0000 C   0  0  2  0  0  0  0  0  0  0  0  0
    3.7208   -3.7122    0.0000 C   0  0  1  0  0  0  0  0  0  0  0  0
    4.2208   -2.1734    0.0000 C   0  0  1  0  0  0  0  0  0  0  0  0
    4.7208   -3.7122    0.0000 C   0  0  1  0  0  0  0  0  0  0  0  0
    5.3086   -4.5212    0.0000 C   0  0  0  0  0  0  0  0  0  0  0  0
    5.0298   -0.5856    0.0000 C   0  0  0  0  0  0  0  0  0  0  0  0
    3.4118   -0.5856    0.0000 C   0  0  0  0  0  0  0  0  0  0  0  0
    4.7208    0.3655    0.0000 C   0  0  0  0  0  0  0  0  0  0  0  0
    4.9019    2.0880    0.0000 C   0  0  0  0  0  0  0  0  0  0  0  0
    5.4897    2.8970    0.0000 C   0  0  0  0  0  0  0  0  0  0  0  0
    5.0829    3.8106    0.0000 C   0  0  0  0  0  0  0  0  0  0  0  0
    5.6707    4.6196    0.0000 C   0  0  0  0  0  0  0  0  0  0  0  0
    3.3148   -2.1488    0.0000 H   0  0  0  0  0  0  0  0  0  0  0  0
    4.0023   -4.2646    0.0000 H   0  0  0  0  0  0  0  0  0  0  0  0
    3.6684   -1.8919    0.0000 H   0  0  0  0  0  0  0  0  0  0  0  0
    5.3332   -3.6152    0.0000 H   0  0  0  0  0  0  0  0  0  0  0  0
    4.7514   -4.7930    0.0000 H   0  0  0  0  0  0  0  0  0  0  0  0
    5.4795   -5.1172    0.0000 H   0  0  0  0  0  0  0  0  0  0  0  0
    2.0000   -2.8670    0.0000 H   0  0  0  0  0  0  0  0  0  0  0  0
    3.3852   -5.0876    0.0000 H   0  0  0  0  0  0  0  0  0  0  0  0
    2.8222   -0.7772    0.0000 H   0  0  0  0  0  0  0  0  0  0  0  0
    6.4416   -0.4797    0.0000 H   0  0  0  0  0  0  0  0  0  0  0  0
    6.1098   -1.5011    0.0000 H   0  0  0  0  0  0  0  0  0  0  0  0
    5.9252    1.1097    0.0000 H   0  0  0  0  0  0  0  0  0  0  0  0
    5.9204    2.4510    0.0000 H   0  0  0  0  0  0  0  0  0  0  0  0
    6.0037    3.2437    0.0000 H   0  0  0  0  0  0  0  0  0  0  0  0
    8.0953   -5.9699    0.0000 H   0  0  0  0  0  0  0  0  0  0  0  0
    8.2663   -4.8901    0.0000 H   0  0  0  0  0  0  0  0  0  0  0  0
    4.6522    4.2566    0.0000 H   0  0  0  0  0  0  0  0  0  0  0  0
    4.5689    3.4639    0.0000 H   0  0  0  0  0  0  0  0  0  0  0  0
    5.6284    6.0347    0.0000 H   0  0  0  0  0  0  0  0  0  0  0  0
    4.6474    5.5980    0.0000 H   0  0  0  0  0  0  0  0  0  0  0  0
  1  5  1  0  0  0  0
  1  6  1  0  0  0  0
  1  7  1  0  0  0  0
  1  8  2  0  0  0  0
  2 18  1  0  0  0  0
  2 19  1  0  0  0  0
 16  3  1  1  0  0  0
  3 34  1  0  0  0  0
 17  4  1  1  0  0  0
  4 35  1  0  0  0  0
  5 20  1  0  0  0  0
  6 42  1  0  0  0  0
  7 43  1  0  0  0  0
  9 24  2  0  0  0  0
 10 27  2  0  0  0  0
 18 11  1  6  0  0  0
 11 21  1  0  0  0  0
 11 22  1  0  0  0  0
 12 22  2  0  0  0  0
 12 23  1  0  0  0  0
 13 21  1  0  0  0  0
 13 37  1  0  0  0  0
 13 38  1  0  0  0  0
 14 23  1  0  0  0  0
 14 24  1  0  0  0  0
 14 39  1  0  0  0  0
 15 27  1  0  0  0  0
 15 46  1  0  0  0  0
 15 47  1  0  0  0  0
 16 17  1  0  0  0  0
 16 18  1  0  0  0  0
 16 28  1  0  0  0  0
 17 19  1  0  0  0  0
 17 29  1  0  0  0  0
 18 30  1  0  0  0  0
 19 20  1  6  0  0  0
 19 31  1  0  0  0  0
 20 32  1  0  0  0  0
 20 33  1  0  0  0  0
 21 23  2  0  0  0  0
 22 36  1  0  0  0  0
 24 25  1  0  0  0  0
 25 26  1  0  0  0  0
 25 40  1  0  0  0  0
 25 41  1  0  0  0  0
 26 27  1  0  0  0  0
 26 44  1  0  0  0  0
 26 45  1  0  0  0  0
M  END
> <PUBCHEM_COMPOUND_CID>
440490

> <PUBCHEM_COMPOUND_CANONICALIZED>
1

> <PUBCHEM_CACTVS_COMPLEXITY>
604

> <PUBCHEM_CACTVS_HBOND_ACCEPTOR>
11

> <PUBCHEM_CACTVS_HBOND_DONOR>
7

> <PUBCHEM_CACTVS_ROTATABLE_BOND>
8

> <PUBCHEM_CACTVS_SUBSKEYS>
AAADceBzvAIAAAAAAAAAAAAAAAAAAWJAAAAAAAAAAAAAAAABgAAAHgAQCCAACBThggYFsBfMFxCoQAMxdIAAgC0REKABQAEIEACDWBIAiAAeQAAPFQKTACD1MAIAAAAAAAAAAAAAAAAAAAAAAAAAAAAAAA==

> <PUBCHEM_IUPAC_OPENEYE_NAME>
[(2R,3S,4R,5R)-5-[5-amino-4-[(4-amino-4-oxo-butanoyl)amino]imidazol-1-yl]-3,4-dihydroxy-tetrahydrofuran-2-yl]methyl dihydrogen phosphate

> <PUBCHEM_IUPAC_CAS_NAME>
[(2R,3S,4R,5R)-5-[5-amino-4-[(4-amino-1,4-dioxobutyl)amino]-1-imidazolyl]-3,4-dihydroxy-2-oxolanyl]methyl dihydrogen phosphate

> <PUBCHEM_IUPAC_NAME>
[(2R,3S,4R,5R)-5-[5-amino-4-[(4-amino-4-oxobutanoyl)amino]imidazol-1-yl]-3,4-dihydroxyoxolan-2-yl]methyl dihydrogen phosphate

> <PUBCHEM_IUPAC_SYSTEMATIC_NAME>
[(2R,3S,4R,5R)-5-[5-azanyl-4-[(4-azanyl-4-oxidanylidene-butanoyl)amino]imidazol-1-yl]-3,4-bis(oxidanyl)oxolan-2-yl]methyl dihydrogen phosphate

> <PUBCHEM_IUPAC_TRADITIONAL_NAME>
[(2R,3S,4R,5R)-5-[5-amino-4-[(4-amino-4-keto-butanoyl)amino]imidazol-1-yl]-3,4-dihydroxy-tetrahydrofuran-2-yl]methyl dihydrogen phosphate

> <PUBCHEM_IUPAC_INCHI>
InChI=1S/C12H20N5O9P/c13-6(18)1-2-7(19)16-11-10(14)17(4-15-11)12-9(21)8(20)5(26-12)3-25-27(22,23)24/h4-5,8-9,12,20-21H,1-3,14H2,(H2,13,18)(H,16,19)(H2,22,23,24)/t5-,8-,9-,12-/m1/s1

> <PUBCHEM_IUPAC_INCHIKEY>
VDSCQGGPSPZSLA-JJNLEZRASA-N

> <PUBCHEM_XLOGP3_AA>
-5.3

> <PUBCHEM_EXACT_MASS>
409.099864

> <PUBCHEM_MOLECULAR_FORMULA>
C12H20N5O9P

> <PUBCHEM_MOLECULAR_WEIGHT>
409.289062

> <PUBCHEM_OPENEYE_CAN_SMILES>
C1=NC(=C(N1C2C(C(C(O2)COP(=O)(O)O)O)O)N)NC(=O)CCC(=O)N

> <PUBCHEM_OPENEYE_ISO_SMILES>
C1=NC(=C(N1[C@H]2[C@@H]([C@@H]([C@H](O2)COP(=O)(O)O)O)O)N)NC(=O)CCC(=O)N

> <PUBCHEM_CACTVS_TPSA>
233

> <PUBCHEM_MONOISOTOPIC_WEIGHT>
409.099864

> <PUBCHEM_TOTAL_CHARGE>
0

> <PUBCHEM_HEAVY_ATOM_COUNT>
27

> <PUBCHEM_ATOM_DEF_STEREO_COUNT>
4

> <PUBCHEM_ATOM_UDEF_STEREO_COUNT>
0

> <PUBCHEM_BOND_DEF_STEREO_COUNT>
0

> <PUBCHEM_BOND_UDEF_STEREO_COUNT>
0

> <PUBCHEM_ISOTOPIC_ATOM_COUNT>
0

> <PUBCHEM_COMPONENT_COUNT>
1

> <PUBCHEM_CACTVS_TAUTO_COUNT>
9

> <PUBCHEM_COORDINATE_TYPE>
1
5
255

> <PUBCHEM_BONDANNOTATIONS>
18  11  6
11  21  8
11  22  8
12  22  8
12  23  8
19  20  6
21  23  8
16  3  5
17  4  5

$$$$

