   Color/Form

     * LIQUID
     * CLEAR YELLOW TO LIGHT AMBER LIQUID

   from [1]HSDB

   Odor
        MUSTARD-LIKE ODOR
   from [2]HSDB

   Boiling Point
        74-75 deg C @ 6 mm Hg
   from [3]HSDB

   Melting Point
        FP: LESS THAN 25 DEG C
   from [4]HSDB

   Density/Specific Gravity
        1.0655 @ 20 DEG C/4 DEG
   from [5]HSDB

   Solubilities
        MISCIBLE WITH WATER, MANY ORG SOLVENTS
   from [6]HSDB

   Spectral Properties

     * INDEX OF REFRACTION: 1.430 @ 20 DEG C/D
     * Intense mass spectral peaks: 43 m/z (100%), 45 m/z (33%), 42 m/z
       (22%), 71 m/z (19%)

   from [7]HSDB

   Computed Properties
   Molecular Weight                  174.19436 [g/mol]
   Molecular Formula                 C[8]H[14]O[4]
   XLogP3-AA                         1.1
   H-Bond Donor                      0
   H-Bond Acceptor                   4
   Rotatable Bond Count              2
   Exact Mass                        174.089209
   MonoIsotopic Mass                 174.089209
   Topological Polar Surface Area    44.8
   Heavy Atom Count                  12
   Formal Charge                     0
   Complexity                        168
   Isotope Atom Count                0
   Defined Atom Stereocenter Count   0
   Undefined Atom Stereocenter Count 3
   Defined Bond Stereocenter Count   0
   Undefined Bond Stereocenter Count 0
   Covalently-Bonded Unit Count      1
   Feature 3D Acceptor Count         3
   Feature 3D Ring Count             1
   Effective Rotor Count             3.2
   Conformer Sampling RMSD           0.6
   CID Conformer Count               [8]49

References

   1. http://toxnet.nlm.nih.gov/cgi-bin/sis/search/r?dbs+hsdb:@term+@rn+@rel+828-00-2
   2. http://toxnet.nlm.nih.gov/cgi-bin/sis/search/r?dbs+hsdb:@term+@rn+@rel+828-00-2
   3. http://toxnet.nlm.nih.gov/cgi-bin/sis/search/r?dbs+hsdb:@term+@rn+@rel+828-00-2
   4. http://toxnet.nlm.nih.gov/cgi-bin/sis/search/r?dbs+hsdb:@term+@rn+@rel+828-00-2
   5. http://toxnet.nlm.nih.gov/cgi-bin/sis/search/r?dbs+hsdb:@term+@rn+@rel+828-00-2
   6. http://toxnet.nlm.nih.gov/cgi-bin/sis/search/r?dbs+hsdb:@term+@rn+@rel+828-00-2
   7. http://toxnet.nlm.nih.gov/cgi-bin/sis/search/r?dbs+hsdb:@term+@rn+@rel+828-00-2
   8. http://pubchem.ncbi.nlm.nih.gov/vw3d/vw3d.cgi?cid=13232
