102342
  -OEChem-07051213052D

 56 59  0     1  0  0  0  0  0999 V2000
    2.5357   -2.2340    0.0000 O   0  0  0  0  0  0  0  0  0  0  0  0
    7.9288    0.8184    0.0000 C   0  0  1  0  0  0  0  0  0  0  0  0
    7.9288   -0.1816    0.0000 C   0  0  2  0  0  0  0  0  0  0  0  0
    7.0628   -0.6816    0.0000 C   0  0  1  0  0  0  0  0  0  0  0  0
    6.1968   -0.1816    0.0000 C   0  0  1  0  0  0  0  0  0  0  0  0
    8.8750    1.1231    0.0000 C   0  0  2  0  0  0  0  0  0  0  0  0
    5.2868   -0.6885    0.0000 C   0  0  2  0  0  0  0  0  0  0  0  0
    7.0628    1.3184    0.0000 C   0  0  0  0  0  0  0  0  0  0  0  0
    6.1968    0.8184    0.0000 C   0  0  0  0  0  0  0  0  0  0  0  0
    8.8750   -0.4864    0.0000 C   0  0  0  0  0  0  0  0  0  0  0  0
    9.4586    0.3184    0.0000 C   0  0  0  0  0  0  0  0  0  0  0  0
    7.0789   -1.7232    0.0000 C   0  0  0  0  0  0  0  0  0  0  0  0
    7.9288    1.8184    0.0000 C   0  0  0  0  0  0  0  0  0  0  0  0
    5.2787   -1.7301    0.0000 C   0  0  0  0  0  0  0  0  0  0  0  0
    4.3599   -0.1244    0.0000 C   0  0  0  0  0  0  0  0  0  0  0  0
    9.1857    2.0736    0.0000 C   0  0  0  0  0  0  0  0  0  0  0  0
    6.1808   -2.2509    0.0000 C   0  0  0  0  0  0  0  0  0  0  0  0
    5.2945    0.3115    0.0000 C   0  0  0  0  0  0  0  0  0  0  0  0
    4.3433   -2.2798    0.0000 C   0  0  0  0  0  0  0  0  0  0  0  0
    3.4120   -0.6524    0.0000 C   0  0  0  0  0  0  0  0  0  0  0  0
    3.4037   -1.7373    0.0000 C   0  0  2  0  0  0  0  0  0  0  0  0
   10.1642    2.2798    0.0000 C   0  0  0  0  0  0  0  0  0  0  0  0
    8.0188   -1.0269    0.0000 H   0  0  0  0  0  0  0  0  0  0  0  0
    7.8022   -1.1010    0.0000 H   0  0  0  0  0  0  0  0  0  0  0  0
    6.9329    0.2434    0.0000 H   0  0  0  0  0  0  0  0  0  0  0  0
    9.4875    1.2193    0.0000 H   0  0  0  0  0  0  0  0  0  0  0  0
    7.4613    1.7933    0.0000 H   0  0  0  0  0  0  0  0  0  0  0  0
    6.6643    1.7933    0.0000 H   0  0  0  0  0  0  0  0  0  0  0  0
    5.9847    1.4010    0.0000 H   0  0  0  0  0  0  0  0  0  0  0  0
    5.5862    0.7107    0.0000 H   0  0  0  0  0  0  0  0  0  0  0  0
    8.6240   -1.0533    0.0000 H   0  0  0  0  0  0  0  0  0  0  0  0
    9.4124   -0.7956    0.0000 H   0  0  0  0  0  0  0  0  0  0  0  0
    9.9195   -0.0964    0.0000 H   0  0  0  0  0  0  0  0  0  0  0  0
    9.9195    0.7331    0.0000 H   0  0  0  0  0  0  0  0  0  0  0  0
    7.2969   -2.3036    0.0000 H   0  0  0  0  0  0  0  0  0  0  0  0
    7.6880   -1.6077    0.0000 H   0  0  0  0  0  0  0  0  0  0  0  0
    8.5488    1.8184    0.0000 H   0  0  0  0  0  0  0  0  0  0  0  0
    7.9288    2.4383    0.0000 H   0  0  0  0  0  0  0  0  0  0  0  0
    7.3088    1.8184    0.0000 H   0  0  0  0  0  0  0  0  0  0  0  0
    4.7681    0.3422    0.0000 H   0  0  0  0  0  0  0  0  0  0  0  0
    3.9700    0.3576    0.0000 H   0  0  0  0  0  0  0  0  0  0  0  0
    9.1651    2.6933    0.0000 H   0  0  0  0  0  0  0  0  0  0  0  0
    8.5719    2.1610    0.0000 H   0  0  0  0  0  0  0  0  0  0  0  0
    6.1832   -2.8709    0.0000 H   0  0  0  0  0  0  0  0  0  0  0  0
    5.9145    0.3067    0.0000 H   0  0  0  0  0  0  0  0  0  0  0  0
    5.2993    0.9315    0.0000 H   0  0  0  0  0  0  0  0  0  0  0  0
    4.6745    0.3163    0.0000 H   0  0  0  0  0  0  0  0  0  0  0  0
    3.9460   -2.7558    0.0000 H   0  0  0  0  0  0  0  0  0  0  0  0
    4.7443   -2.7527    0.0000 H   0  0  0  0  0  0  0  0  0  0  0  0
    3.2075   -0.0671    0.0000 H   0  0  0  0  0  0  0  0  0  0  0  0
    2.8004   -0.7537    0.0000 H   0  0  0  0  0  0  0  0  0  0  0  0
    2.8686   -1.4242    0.0000 H   0  0  0  0  0  0  0  0  0  0  0  0
   10.2921    1.6732    0.0000 H   0  0  0  0  0  0  0  0  0  0  0  0
   10.7709    2.4077    0.0000 H   0  0  0  0  0  0  0  0  0  0  0  0
   10.0364    2.8865    0.0000 H   0  0  0  0  0  0  0  0  0  0  0  0
    2.0000   -1.9219    0.0000 H   0  0  0  0  0  0  0  0  0  0  0  0
 21  1  1  1  0  0  0
  1 56  1  0  0  0  0
  2  3  1  0  0  0  0
  2  6  1  0  0  0  0
  2  8  1  0  0  0  0
  2 13  1  1  0  0  0
  3  4  1  0  0  0  0
  3 10  1  0  0  0  0
  3 23  1  6  0  0  0
  4  5  1  0  0  0  0
  4 12  1  0  0  0  0
  4 24  1  1  0  0  0
  5  7  1  0  0  0  0
  5  9  1  0  0  0  0
  5 25  1  6  0  0  0
  6 11  1  0  0  0  0
  6 16  1  1  0  0  0
  6 26  1  0  0  0  0
  7 14  1  0  0  0  0
  7 15  1  0  0  0  0
  7 18  1  1  0  0  0
  8  9  1  0  0  0  0
  8 27  1  0  0  0  0
  8 28  1  0  0  0  0
  9 29  1  0  0  0  0
  9 30  1  0  0  0  0
 10 11  1  0  0  0  0
 10 31  1  0  0  0  0
 10 32  1  0  0  0  0
 11 33  1  0  0  0  0
 11 34  1  0  0  0  0
 12 17  1  0  0  0  0
 12 35  1  0  0  0  0
 12 36  1  0  0  0  0
 13 37  1  0  0  0  0
 13 38  1  0  0  0  0
 13 39  1  0  0  0  0
 14 17  2  0  0  0  0
 14 19  1  0  0  0  0
 15 20  1  0  0  0  0
 15 40  1  0  0  0  0
 15 41  1  0  0  0  0
 16 22  1  0  0  0  0
 16 42  1  0  0  0  0
 16 43  1  0  0  0  0
 17 44  1  0  0  0  0
 18 45  1  0  0  0  0
 18 46  1  0  0  0  0
 18 47  1  0  0  0  0
 19 21  1  0  0  0  0
 19 48  1  0  0  0  0
 19 49  1  0  0  0  0
 20 21  1  0  0  0  0
 20 50  1  0  0  0  0
 20 51  1  0  0  0  0
 21 52  1  0  0  0  0
 22 53  1  0  0  0  0
 22 54  1  0  0  0  0
 22 55  1  0  0  0  0
M  END
> <PUBCHEM_COMPOUND_CID>
102342

> <PUBCHEM_COMPOUND_CANONICALIZED>
1

> <PUBCHEM_CACTVS_COMPLEXITY>
480

> <PUBCHEM_CACTVS_HBOND_ACCEPTOR>
1

> <PUBCHEM_CACTVS_HBOND_DONOR>
1

> <PUBCHEM_CACTVS_ROTATABLE_BOND>
1

> <PUBCHEM_CACTVS_SUBSKEYS>
AAADcfB4IAAAAAAAAAAAAAAAAAAAAYAAAAAwYIAAAAAAAGCAAAAAGgAACAAADxSggAICAAAAAgCAAiBCAAAAAAAgAAAACAAAAAgAEAIAAQAAQAAEwAAIAAOAwPAPgAAAAAAAAADAAAQAACAAAQAACAAAAA==

> <PUBCHEM_IUPAC_OPENEYE_NAME>
(3S,8S,9S,10R,13R,14S,17S)-17-ethyl-10,13-dimethyl-2,3,4,7,8,9,11,12,14,15,16,17-dodecahydro-1H-cyclopenta[a]phenanthren-3-ol

> <PUBCHEM_IUPAC_CAS_NAME>
(3S,8S,9S,10R,13R,14S,17S)-17-ethyl-10,13-dimethyl-2,3,4,7,8,9,11,12,14,15,16,17-dodecahydro-1H-cyclopenta[a]phenanthren-3-ol

> <PUBCHEM_IUPAC_NAME>
(3S,8S,9S,10R,13R,14S,17S)-17-ethyl-10,13-dimethyl-2,3,4,7,8,9,11,12,14,15,16,17-dodecahydro-1H-cyclopenta[a]phenanthren-3-ol

> <PUBCHEM_IUPAC_SYSTEMATIC_NAME>
(3S,8S,9S,10R,13R,14S,17S)-17-ethyl-10,13-dimethyl-2,3,4,7,8,9,11,12,14,15,16,17-dodecahydro-1H-cyclopenta[a]phenanthren-3-ol

> <PUBCHEM_IUPAC_TRADITIONAL_NAME>
(3S,8S,9S,10R,13R,14S,17S)-17-ethyl-10,13-dimethyl-2,3,4,7,8,9,11,12,14,15,16,17-dodecahydro-1H-cyclopenta[a]phenanthren-3-ol

> <PUBCHEM_IUPAC_INCHI>
InChI=1S/C21H34O/c1-4-14-6-8-18-17-7-5-15-13-16(22)9-11-21(15,3)19(17)10-12-20(14,18)2/h5,14,16-19,22H,4,6-13H2,1-3H3/t14-,16-,17-,18-,19-,20+,21-/m0/s1

> <PUBCHEM_IUPAC_INCHIKEY>
QWUGXTUSOZVHEM-UZCUGSDUSA-N

> <PUBCHEM_XLOGP3>
6.1

> <PUBCHEM_EXACT_MASS>
302.260966

> <PUBCHEM_MOLECULAR_FORMULA>
C21H34O

> <PUBCHEM_MOLECULAR_WEIGHT>
302.49406

> <PUBCHEM_OPENEYE_CAN_SMILES>
CCC1CCC2C1(CCC3C2CC=C4C3(CCC(C4)O)C)C

> <PUBCHEM_OPENEYE_ISO_SMILES>
CC[C@H]1CC[C@@H]2[C@@]1(CC[C@H]3[C@H]2CC=C4[C@@]3(CC[C@@H](C4)O)C)C

> <PUBCHEM_CACTVS_TPSA>
20.2

> <PUBCHEM_MONOISOTOPIC_WEIGHT>
302.260966

> <PUBCHEM_TOTAL_CHARGE>
0

> <PUBCHEM_HEAVY_ATOM_COUNT>
22

> <PUBCHEM_ATOM_DEF_STEREO_COUNT>
7

> <PUBCHEM_ATOM_UDEF_STEREO_COUNT>
0

> <PUBCHEM_BOND_DEF_STEREO_COUNT>
0

> <PUBCHEM_BOND_UDEF_STEREO_COUNT>
0

> <PUBCHEM_ISOTOPIC_ATOM_COUNT>
0

> <PUBCHEM_COMPONENT_COUNT>
1

> <PUBCHEM_CACTVS_TAUTO_COUNT>
1

> <PUBCHEM_COORDINATE_TYPE>
1
5
255

> <PUBCHEM_BONDANNOTATIONS>
21  1  5
2  13  5
3  23  6
4  24  5
5  25  6
6  16  5
7  18  5

$$$$

