   Color/Form
        Colorless crystals from ethyl acetate
   from [1]HSDB

   Melting Point
        114-115 deg C
   from [2]HSDB

   Octanol/Water Partition Coefficient
        log Kow = 4.19
   from [3]HSDB

   Solubilities

     * Freely soluble in dimethylsulfoxide; soluble in methylene chloride,
       methanol; sparingly soluble in ethanol, isopropanol; slightly
       soluble in ethyl ether; practically insoluble in water
     * Practically insoluble in simulated gastric and intestinal fluid at
       pH 1.1 and 7.5, respectively

   from [4]HSDB

   Computed Properties
   Molecular Weight                  406.47424 [g/mol]
   Molecular Formula                 C[24]H[26]N[2]O[4]
   XLogP3                            4.2
   H-Bond Donor                      3
   H-Bond Acceptor                   5
   Rotatable Bond Count              10
   Exact Mass                        406.189257
   MonoIsotopic Mass                 406.189257
   Topological Polar Surface Area    75.7
   Heavy Atom Count                  30
   Formal Charge                     0
   Complexity                        508
   Isotope Atom Count                0
   Defined Atom Stereocenter Count   0
   Undefined Atom Stereocenter Count 1
   Defined Bond Stereocenter Count   0
   Undefined Bond Stereocenter Count 0
   Covalently-Bonded Unit Count      1
   Feature 3D Acceptor Count         4
   Feature 3D Donor Count            3
   Feature 3D Cation Count           2
   Feature 3D Ring Count             4
   Effective Rotor Count             10
   Conformer Sampling RMSD           1.2
   CID Conformer Count               [5]225

References

   1. http://toxnet.nlm.nih.gov/cgi-bin/sis/search/r?dbs+hsdb:@term+@rn+@rel+72956-09-3
   2. http://toxnet.nlm.nih.gov/cgi-bin/sis/search/r?dbs+hsdb:@term+@rn+@rel+72956-09-3
   3. http://toxnet.nlm.nih.gov/cgi-bin/sis/search/r?dbs+hsdb:@term+@rn+@rel+72956-09-3
   4. http://toxnet.nlm.nih.gov/cgi-bin/sis/search/r?dbs+hsdb:@term+@rn+@rel+72956-09-3
   5. http://pubchem.ncbi.nlm.nih.gov/vw3d/vw3d.cgi?cid=2585
