10511
  -OEChem-06261204382D

 76 81  0     1  0  0  0  0  0999 V2000
    8.2565   -0.7929    0.0000 O   0  0  0  0  0  0  0  0  0  0  0  0
    6.1234   -2.0171    0.0000 O   0  0  0  0  0  0  0  0  0  0  0  0
    4.9163    1.8001    0.0000 O   0  0  0  0  0  0  0  0  0  0  0  0
    7.0415    3.1120    0.0000 O   0  0  0  0  0  0  0  0  0  0  0  0
    8.6331    1.3743    0.0000 O   0  0  0  0  0  0  0  0  0  0  0  0
    9.0456   -0.3516    0.0000 O   0  0  0  0  0  0  0  0  0  0  0  0
    9.0340    2.2581    0.0000 O   0  0  0  0  0  0  0  0  0  0  0  0
    3.1654   -0.4700    0.0000 O   0  0  0  0  0  0  0  0  0  0  0  0
    4.0503   -2.4350    0.0000 O   0  0  0  0  0  0  0  0  0  0  0  0
    3.7210   -0.0289    0.0000 N   0  0  3  0  0  0  0  0  0  0  0  0
    5.6676    0.3663    0.0000 C   0  0  3  0  0  0  0  0  0  0  0  0
    5.6676   -0.5013    0.0000 C   0  0  2  0  0  0  0  0  0  0  0  0
    6.3459    0.9073    0.0000 C   0  0  1  0  0  0  0  0  0  0  0  0
    4.6656    0.2603    0.0000 C   0  0  1  0  0  0  0  0  0  0  0  0
    7.1918   -0.8491    0.0000 C   0  0  3  0  0  0  0  0  0  0  0  0
    7.1918    0.7142    0.0000 C   0  0  1  0  0  0  0  0  0  0  0  0
    7.5682   -0.0675    0.0000 C   0  0  1  0  0  0  0  0  0  0  0  0
    6.3459   -1.0422    0.0000 C   0  0  3  0  0  0  0  0  0  0  0  0
    4.9163   -0.9350    0.0000 C   0  0  3  0  0  0  0  0  0  0  0  0
    4.9163    0.8001    0.0000 C   0  0  3  0  0  0  0  0  0  0  0  0
    6.2682    1.7713    0.0000 C   0  0  0  0  0  0  0  0  0  0  0  0
    7.0659    2.1123    0.0000 C   0  0  2  0  0  0  0  0  0  0  0  0
    7.6367    1.4590    0.0000 C   0  0  3  0  0  0  0  0  0  0  0  0
    8.2131    0.2025    0.0000 C   0  0  3  0  0  0  0  0  0  0  0  0
    3.7210   -0.7808    0.0000 C   0  0  0  0  0  0  0  0  0  0  0  0
    4.1649   -0.5013    0.0000 C   0  0  3  0  0  0  0  0  0  0  0  0
    8.2131    1.6870    0.0000 C   0  0  3  0  0  0  0  0  0  0  0  0
    4.1649    0.3663    0.0000 C   0  0  0  0  0  0  0  0  0  0  0  0
    4.9163   -1.9350    0.0000 C   0  0  0  0  0  0  0  0  0  0  0  0
    2.9170    0.5658    0.0000 C   0  0  0  0  0  0  0  0  0  0  0  0
    6.8564   -2.6973    0.0000 C   0  0  0  0  0  0  0  0  0  0  0  0
    2.0000    0.1669    0.0000 C   0  0  0  0  0  0  0  0  0  0  0  0
    4.0502    2.3001    0.0000 C   0  0  0  0  0  0  0  0  0  0  0  0
    8.9498    3.2545    0.0000 C   0  0  0  0  0  0  0  0  0  0  0  0
    4.0503   -3.4350    0.0000 C   0  0  0  0  0  0  0  0  0  0  0  0
    5.6041   -1.3489    0.0000 H   0  0  0  0  0  0  0  0  0  0  0  0
    5.5643    1.2413    0.0000 H   0  0  0  0  0  0  0  0  0  0  0  0
    4.3537    1.0510    0.0000 H   0  0  0  0  0  0  0  0  0  0  0  0
    7.7217   -1.5137    0.0000 H   0  0  0  0  0  0  0  0  0  0  0  0
    8.0409    0.6761    0.0000 H   0  0  0  0  0  0  0  0  0  0  0  0
    5.5436   -1.3229    0.0000 H   0  0  0  0  0  0  0  0  0  0  0  0
    5.6524    1.2251    0.0000 H   0  0  0  0  0  0  0  0  0  0  0  0
    6.0854    2.3638    0.0000 H   0  0  0  0  0  0  0  0  0  0  0  0
    5.6598    1.6515    0.0000 H   0  0  0  0  0  0  0  0  0  0  0  0
    8.0207    2.2173    0.0000 H   0  0  0  0  0  0  0  0  0  0  0  0
    8.9623    0.6038    0.0000 H   0  0  0  0  0  0  0  0  0  0  0  0
    3.1015   -0.7543    0.0000 H   0  0  0  0  0  0  0  0  0  0  0  0
    3.6680   -1.3985    0.0000 H   0  0  0  0  0  0  0  0  0  0  0  0
    3.9322   -1.3188    0.0000 H   0  0  0  0  0  0  0  0  0  0  0  0
    8.1059    2.5302    0.0000 H   0  0  0  0  0  0  0  0  0  0  0  0
    3.9529    0.9489    0.0000 H   0  0  0  0  0  0  0  0  0  0  0  0
    3.5544    0.2587    0.0000 H   0  0  0  0  0  0  0  0  0  0  0  0
    5.1283   -2.5176    0.0000 H   0  0  0  0  0  0  0  0  0  0  0  0
    5.5269   -1.8274    0.0000 H   0  0  0  0  0  0  0  0  0  0  0  0
    8.0804   -1.3873    0.0000 H   0  0  0  0  0  0  0  0  0  0  0  0
    3.3666    0.9926    0.0000 H   0  0  0  0  0  0  0  0  0  0  0  0
    2.5747    1.0827    0.0000 H   0  0  0  0  0  0  0  0  0  0  0  0
    7.5707    3.4350    0.0000 H   0  0  0  0  0  0  0  0  0  0  0  0
    8.8966    0.8130    0.0000 H   0  0  0  0  0  0  0  0  0  0  0  0
    9.6011   -0.0763    0.0000 H   0  0  0  0  0  0  0  0  0  0  0  0
    2.8388   -0.9970    0.0000 H   0  0  0  0  0  0  0  0  0  0  0  0
    6.4348   -3.1518    0.0000 H   0  0  0  0  0  0  0  0  0  0  0  0
    7.3110   -3.1190    0.0000 H   0  0  0  0  0  0  0  0  0  0  0  0
    7.2782   -2.2428    0.0000 H   0  0  0  0  0  0  0  0  0  0  0  0
    1.7527    0.7354    0.0000 H   0  0  0  0  0  0  0  0  0  0  0  0
    1.4315   -0.0805    0.0000 H   0  0  0  0  0  0  0  0  0  0  0  0
    2.2473   -0.4017    0.0000 H   0  0  0  0  0  0  0  0  0  0  0  0
    4.3602    2.8370    0.0000 H   0  0  0  0  0  0  0  0  0  0  0  0
    3.5133    2.6101    0.0000 H   0  0  0  0  0  0  0  0  0  0  0  0
    3.7402    1.7632    0.0000 H   0  0  0  0  0  0  0  0  0  0  0  0
    9.5676    3.3067    0.0000 H   0  0  0  0  0  0  0  0  0  0  0  0
    8.8976    3.8723    0.0000 H   0  0  0  0  0  0  0  0  0  0  0  0
    8.3320    3.2024    0.0000 H   0  0  0  0  0  0  0  0  0  0  0  0
    3.4303   -3.4350    0.0000 H   0  0  0  0  0  0  0  0  0  0  0  0
    4.0503   -4.0550    0.0000 H   0  0  0  0  0  0  0  0  0  0  0  0
    4.6703   -3.4350    0.0000 H   0  0  0  0  0  0  0  0  0  0  0  0
 17  1  1  1  0  0  0
  1 55  1  0  0  0  0
  2 18  1  0  0  0  0
  2 31  1  0  0  0  0
  3 20  1  0  0  0  0
  3 33  1  0  0  0  0
 22  4  1  1  0  0  0
  4 58  1  0  0  0  0
  5 23  1  0  0  0  0
  5 59  1  0  0  0  0
  6 24  1  0  0  0  0
  6 60  1  0  0  0  0
  7 27  1  0  0  0  0
  7 34  1  0  0  0  0
  8 26  1  0  0  0  0
  8 61  1  0  0  0  0
  9 29  1  0  0  0  0
  9 35  1  0  0  0  0
 10 14  1  0  0  0  0
 10 25  1  0  0  0  0
 10 30  1  0  0  0  0
 11 12  1  0  0  0  0
 11 13  1  0  0  0  0
 11 14  1  0  0  0  0
 11 20  1  0  0  0  0
 12 18  1  0  0  0  0
 12 19  1  0  0  0  0
 12 36  1  1  0  0  0
 13 16  1  0  0  0  0
 13 21  1  0  0  0  0
 13 37  1  1  0  0  0
 14 15  1  0  0  0  0
 14 38  1  6  0  0  0
 15 17  1  0  0  0  0
 15 18  1  0  0  0  0
 15 39  1  0  0  0  0
 16 17  1  0  0  0  0
 16 23  1  0  0  0  0
 16 40  1  1  0  0  0
 17 24  1  0  0  0  0
 18 41  1  0  0  0  0
 19 25  1  0  0  0  0
 19 26  1  0  0  0  0
 19 29  1  0  0  0  0
 20 28  1  0  0  0  0
 20 42  1  0  0  0  0
 21 22  1  0  0  0  0
 21 43  1  0  0  0  0
 21 44  1  0  0  0  0
 22 23  1  0  0  0  0
 22 27  1  0  0  0  0
 23 45  1  0  0  0  0
 24 27  1  0  0  0  0
 24 46  1  0  0  0  0
 25 47  1  0  0  0  0
 25 48  1  0  0  0  0
 26 28  1  0  0  0  0
 26 49  1  0  0  0  0
 27 50  1  0  0  0  0
 28 51  1  0  0  0  0
 28 52  1  0  0  0  0
 29 53  1  0  0  0  0
 29 54  1  0  0  0  0
 30 32  1  0  0  0  0
 30 56  1  0  0  0  0
 30 57  1  0  0  0  0
 31 62  1  0  0  0  0
 31 63  1  0  0  0  0
 31 64  1  0  0  0  0
 32 65  1  0  0  0  0
 32 66  1  0  0  0  0
 32 67  1  0  0  0  0
 33 68  1  0  0  0  0
 33 69  1  0  0  0  0
 33 70  1  0  0  0  0
 34 71  1  0  0  0  0
 34 72  1  0  0  0  0
 34 73  1  0  0  0  0
 35 74  1  0  0  0  0
 35 75  1  0  0  0  0
 35 76  1  0  0  0  0
M  END
> <PUBCHEM_COMPOUND_CID>
10511

> <PUBCHEM_COMPOUND_CANONICALIZED>
1

> <PUBCHEM_CACTVS_COMPLEXITY>
878

> <PUBCHEM_CACTVS_HBOND_ACCEPTOR>
10

> <PUBCHEM_CACTVS_HBOND_DONOR>
5

> <PUBCHEM_CACTVS_ROTATABLE_BOND>
6

> <PUBCHEM_CACTVS_SUBSKEYS>
AAADcfB6PAAAAAAAAAAAAAAAAAAAAYMAAAA8YMEAB4gWAGAAAAAAHgAACAAAD3zhgAYCAAMABgAAAAAAAAAAAAAAAAAAAAAIAAABEAIAgAAEQAAHAACDAAHw8P8PgAAAAAAAAADSAAaUADSAAaEADSAAAA==

> <PUBCHEM_IUPAC_INCHI>
InChI=1S/C25H41NO9/c1-6-26-9-22(10-32-2)12(27)7-13(33-3)24-11-8-23(30)19(28)14(11)25(31,20(29)21(23)35-5)15(18(24)26)16(34-4)17(22)24/h11-21,27-31H,6-10H2,1-5H3/t11-,12?,13?,14-,15?,16?,17-,18-,19?,20?,21?,22?,23-,24?,25-/m1/s1

> <PUBCHEM_IUPAC_INCHIKEY>
SQMGCPHFHQGPIF-RCXDTZIBSA-N

> <PUBCHEM_XLOGP3_AA>
-2.5

> <PUBCHEM_EXACT_MASS>
499.278132

> <PUBCHEM_MOLECULAR_FORMULA>
C25H41NO9

> <PUBCHEM_MOLECULAR_WEIGHT>
499.59434

> <PUBCHEM_OPENEYE_CAN_SMILES>
CCN1CC2(C(CC(C34C2C(C(C31)C5(C6C4CC(C6O)(C(C5O)OC)O)O)OC)OC)O)COC

> <PUBCHEM_OPENEYE_ISO_SMILES>
CCN1CC2([C@H]3C(C4[C@@H]1C3([C@@H]5C[C@]6(C([C@@H]5[C@@]4(C(C6OC)O)O)O)O)C(CC2O)OC)OC)COC

> <PUBCHEM_CACTVS_TPSA>
141

> <PUBCHEM_MONOISOTOPIC_WEIGHT>
499.278132

> <PUBCHEM_TOTAL_CHARGE>
0

> <PUBCHEM_HEAVY_ATOM_COUNT>
35

> <PUBCHEM_ATOM_DEF_STEREO_COUNT>
6

> <PUBCHEM_ATOM_UDEF_STEREO_COUNT>
9

> <PUBCHEM_BOND_DEF_STEREO_COUNT>
0

> <PUBCHEM_BOND_UDEF_STEREO_COUNT>
0

> <PUBCHEM_ISOTOPIC_ATOM_COUNT>
0

> <PUBCHEM_COMPONENT_COUNT>
1

> <PUBCHEM_CACTVS_TAUTO_COUNT>
1

> <PUBCHEM_COORDINATE_TYPE>
1
5
255

> <PUBCHEM_BONDANNOTATIONS>
17  1  5
11  20  3
12  36  5
13  37  5
14  38  6
15  39  3
16  40  5
18  41  3
19  29  3
20  42  3
23  45  3
24  46  3
26  49  3
27  50  3
22  4  5

$$$$

