4983
  -OEChem-06261200272D

 35 36  0     0  0  0  0  0  0999 V2000
    5.5202    0.5093    0.0000 O   0  0  0  0  0  0  0  0  0  0  0  0
    2.0000    0.5093    0.0000 O   0  5  0  0  0  0  0  0  0  0  0  0
    4.5691    0.8184    0.0000 N   0  0  0  0  0  0  0  0  0  0  0  0
    2.9511    0.8184    0.0000 N   0  3  0  0  0  0  0  0  0  0  0  0
    4.2601    1.7694    0.0000 C   0  0  0  0  0  0  0  0  0  0  0  0
    3.2601    1.7694    0.0000 C   0  0  0  0  0  0  0  0  0  0  0  0
    3.7601    0.2306    0.0000 C   0  0  0  0  0  0  0  0  0  0  0  0
    4.2601    2.7694    0.0000 C   0  0  0  0  0  0  0  0  0  0  0  0
    5.2111    2.0784    0.0000 C   0  0  0  0  0  0  0  0  0  0  0  0
    2.3090    2.0784    0.0000 C   0  0  0  0  0  0  0  0  0  0  0  0
    3.2601    2.7694    0.0000 C   0  0  0  0  0  0  0  0  0  0  0  0
    3.7601   -0.7694    0.0000 C   0  0  0  0  0  0  0  0  0  0  0  0
    2.8940   -1.2694    0.0000 C   0  0  0  0  0  0  0  0  0  0  0  0
    4.6261   -1.2694    0.0000 C   0  0  0  0  0  0  0  0  0  0  0  0
    2.8940   -2.2694    0.0000 C   0  0  0  0  0  0  0  0  0  0  0  0
    4.6261   -2.2694    0.0000 C   0  0  0  0  0  0  0  0  0  0  0  0
    3.7601   -2.7694    0.0000 C   0  0  0  0  0  0  0  0  0  0  0  0
    4.8801    2.7694    0.0000 H   0  0  0  0  0  0  0  0  0  0  0  0
    5.4027    1.4888    0.0000 H   0  0  0  0  0  0  0  0  0  0  0  0
    5.8008    2.2700    0.0000 H   0  0  0  0  0  0  0  0  0  0  0  0
    5.0195    2.6681    0.0000 H   0  0  0  0  0  0  0  0  0  0  0  0
    4.2601    3.3894    0.0000 H   0  0  0  0  0  0  0  0  0  0  0  0
    3.6401    2.7694    0.0000 H   0  0  0  0  0  0  0  0  0  0  0  0
    3.8801    2.7694    0.0000 H   0  0  0  0  0  0  0  0  0  0  0  0
    3.2601    3.3894    0.0000 H   0  0  0  0  0  0  0  0  0  0  0  0
    2.6401    2.7694    0.0000 H   0  0  0  0  0  0  0  0  0  0  0  0
    2.5006    2.6681    0.0000 H   0  0  0  0  0  0  0  0  0  0  0  0
    1.7194    2.2700    0.0000 H   0  0  0  0  0  0  0  0  0  0  0  0
    2.1174    1.4888    0.0000 H   0  0  0  0  0  0  0  0  0  0  0  0
    5.9809    0.9242    0.0000 H   0  0  0  0  0  0  0  0  0  0  0  0
    2.3571   -0.9594    0.0000 H   0  0  0  0  0  0  0  0  0  0  0  0
    5.1630   -0.9594    0.0000 H   0  0  0  0  0  0  0  0  0  0  0  0
    2.3571   -2.5794    0.0000 H   0  0  0  0  0  0  0  0  0  0  0  0
    5.1630   -2.5794    0.0000 H   0  0  0  0  0  0  0  0  0  0  0  0
    3.7601   -3.3894    0.0000 H   0  0  0  0  0  0  0  0  0  0  0  0
  1  3  1  0  0  0  0
  1 30  1  0  0  0  0
  2  4  1  0  0  0  0
  3  5  1  0  0  0  0
  3  7  1  0  0  0  0
  4  6  1  0  0  0  0
  4  7  2  0  0  0  0
  5  6  1  0  0  0  0
  5  8  1  0  0  0  0
  5  9  1  0  0  0  0
  6 10  1  0  0  0  0
  6 11  1  0  0  0  0
  7 12  1  0  0  0  0
  8 18  1  0  0  0  0
  8 22  1  0  0  0  0
  8 23  1  0  0  0  0
  9 19  1  0  0  0  0
  9 20  1  0  0  0  0
  9 21  1  0  0  0  0
 10 27  1  0  0  0  0
 10 28  1  0  0  0  0
 10 29  1  0  0  0  0
 11 24  1  0  0  0  0
 11 25  1  0  0  0  0
 11 26  1  0  0  0  0
 12 13  2  0  0  0  0
 12 14  1  0  0  0  0
 13 15  1  0  0  0  0
 13 31  1  0  0  0  0
 14 16  2  0  0  0  0
 14 32  1  0  0  0  0
 15 17  2  0  0  0  0
 15 33  1  0  0  0  0
 16 17  1  0  0  0  0
 16 34  1  0  0  0  0
 17 35  1  0  0  0  0
M  CHG  2   2  -1   4   1
M  END
> <PUBCHEM_COMPOUND_CID>
4983

> <PUBCHEM_COMPOUND_CANONICALIZED>
1

> <PUBCHEM_CACTVS_COMPLEXITY>
341

> <PUBCHEM_CACTVS_HBOND_ACCEPTOR>
2

> <PUBCHEM_CACTVS_HBOND_DONOR>
1

> <PUBCHEM_CACTVS_ROTATABLE_BOND>
1

> <PUBCHEM_CACTVS_SUBSKEYS>
AAADceBzMAAAAAAAAAAAAAAAAAAAAQAAAAAwAAAAAAAAAAABAAAAHAAECAAADIiBGAAzAIIQAACgAiJiJACCAAEgAAApiAAgBJgIYKKAmRGUIAhggACIiAcQgAAOgAAAAAAAAAAAAAAAAAAAAAAAAAAAAA==

> <PUBCHEM_IUPAC_OPENEYE_NAME>
1-hydroxy-4,4,5,5-tetramethyl-3-oxido-2-phenyl-imidazol-3-ium

> <PUBCHEM_IUPAC_CAS_NAME>
1-hydroxy-4,4,5,5-tetramethyl-3-oxido-2-phenylimidazol-3-ium

> <PUBCHEM_IUPAC_NAME>
1-hydroxy-4,4,5,5-tetramethyl-3-oxido-2-phenylimidazol-3-ium

> <PUBCHEM_IUPAC_SYSTEMATIC_NAME>
4,4,5,5-tetramethyl-1-oxidanidyl-3-oxidanyl-2-phenyl-imidazol-1-ium

> <PUBCHEM_IUPAC_TRADITIONAL_NAME>
1-hydroxy-4,4,5,5-tetramethyl-3-oxido-2-phenyl-2-imidazolin-3-ium

> <PUBCHEM_IUPAC_INCHI>
InChI=1S/C13H18N2O2/c1-12(2)13(3,4)15(17)11(14(12)16)10-8-6-5-7-9-10/h5-9,16H,1-4H3

> <PUBCHEM_IUPAC_INCHIKEY>
MOKUQZKKYGQOCZ-UHFFFAOYSA-N

> <PUBCHEM_XLOGP3_AA>
1.2

> <PUBCHEM_EXACT_MASS>
234.136828

> <PUBCHEM_MOLECULAR_FORMULA>
C13H18N2O2

> <PUBCHEM_MOLECULAR_WEIGHT>
234.29422

> <PUBCHEM_OPENEYE_CAN_SMILES>
CC1(C([N+](=C(N1O)C2=CC=CC=C2)[O-])(C)C)C

> <PUBCHEM_OPENEYE_ISO_SMILES>
CC1(C([N+](=C(N1O)C2=CC=CC=C2)[O-])(C)C)C

> <PUBCHEM_CACTVS_TPSA>
52.2

> <PUBCHEM_MONOISOTOPIC_WEIGHT>
234.136828

> <PUBCHEM_TOTAL_CHARGE>
0

> <PUBCHEM_HEAVY_ATOM_COUNT>
17

> <PUBCHEM_ATOM_DEF_STEREO_COUNT>
0

> <PUBCHEM_ATOM_UDEF_STEREO_COUNT>
0

> <PUBCHEM_BOND_DEF_STEREO_COUNT>
0

> <PUBCHEM_BOND_UDEF_STEREO_COUNT>
0

> <PUBCHEM_ISOTOPIC_ATOM_COUNT>
0

> <PUBCHEM_COMPONENT_COUNT>
1

> <PUBCHEM_CACTVS_TAUTO_COUNT>
1

> <PUBCHEM_COORDINATE_TYPE>
1
5
255

> <PUBCHEM_BONDANNOTATIONS>
12  13  8
12  14  8
13  15  8
14  16  8
15  17  8
16  17  8

$$$$

