46173918
  -OEChem-07051213102D

 45 42  0     1  0  0  0  0  0999 V2000
    8.9282   -0.2500    0.0000 Ca  0  2  0  0  0  0  0  0  0  0  0  0
   12.3923   -1.2500    0.0000 O   0  0  0  0  0  0  0  0  0  0  0  0
    5.4641   -1.2500    0.0000 O   0  0  0  0  0  0  0  0  0  0  0  0
    4.5981    1.2500    0.0000 O   0  0  0  0  0  0  0  0  0  0  0  0
   13.2583    1.2500    0.0000 O   0  0  0  0  0  0  0  0  0  0  0  0
   11.5263    1.2500    0.0000 O   0  0  0  0  0  0  0  0  0  0  0  0
    6.3301    1.2500    0.0000 O   0  0  0  0  0  0  0  0  0  0  0  0
    3.7320   -1.2500    0.0000 O   0  0  0  0  0  0  0  0  0  0  0  0
   14.1244   -1.2500    0.0000 O   0  0  0  0  0  0  0  0  0  0  0  0
    9.7942    0.2500    0.0000 O   0  5  0  0  0  0  0  0  0  0  0  0
    8.0622    0.2500    0.0000 O   0  5  0  0  0  0  0  0  0  0  0  0
   10.6603   -1.2500    0.0000 O   0  0  0  0  0  0  0  0  0  0  0  0
    7.1962   -1.2500    0.0000 O   0  0  0  0  0  0  0  0  0  0  0  0
    2.0000   -0.2500    0.0000 O   0  0  0  0  0  0  0  0  0  0  0  0
   15.8564   -0.2500    0.0000 O   0  0  0  0  0  0  0  0  0  0  0  0
   12.3923   -0.2500    0.0000 C   0  0  2  0  0  0  0  0  0  0  0  0
    5.4641   -0.2500    0.0000 C   0  0  2  0  0  0  0  0  0  0  0  0
    4.5981    0.2500    0.0000 C   0  0  1  0  0  0  0  0  0  0  0  0
   13.2583    0.2500    0.0000 C   0  0  1  0  0  0  0  0  0  0  0  0
   11.5263    0.2500    0.0000 C   0  0  1  0  0  0  0  0  0  0  0  0
    6.3301    0.2500    0.0000 C   0  0  1  0  0  0  0  0  0  0  0  0
    3.7320   -0.2500    0.0000 C   0  0  2  0  0  0  0  0  0  0  0  0
   14.1244   -0.2500    0.0000 C   0  0  2  0  0  0  0  0  0  0  0  0
   10.6603   -0.2500    0.0000 C   0  0  0  0  0  0  0  0  0  0  0  0
    7.1962   -0.2500    0.0000 C   0  0  0  0  0  0  0  0  0  0  0  0
    2.8660    0.2500    0.0000 C   0  0  0  0  0  0  0  0  0  0  0  0
   14.9904    0.2500    0.0000 C   0  0  0  0  0  0  0  0  0  0  0  0
   11.8554   -0.5600    0.0000 H   0  0  0  0  0  0  0  0  0  0  0  0
    6.0010   -0.5600    0.0000 H   0  0  0  0  0  0  0  0  0  0  0  0
    5.1350    0.5600    0.0000 H   0  0  0  0  0  0  0  0  0  0  0  0
   13.7953    0.5600    0.0000 H   0  0  0  0  0  0  0  0  0  0  0  0
   12.0632    0.5600    0.0000 H   0  0  0  0  0  0  0  0  0  0  0  0
    6.8671    0.5600    0.0000 H   0  0  0  0  0  0  0  0  0  0  0  0
    4.2690   -0.5600    0.0000 H   0  0  0  0  0  0  0  0  0  0  0  0
   13.5874   -0.5600    0.0000 H   0  0  0  0  0  0  0  0  0  0  0  0
   11.8554   -1.5600    0.0000 H   0  0  0  0  0  0  0  0  0  0  0  0
    4.9272   -1.5600    0.0000 H   0  0  0  0  0  0  0  0  0  0  0  0
    4.0611    1.5600    0.0000 H   0  0  0  0  0  0  0  0  0  0  0  0
   13.7953    1.5600    0.0000 H   0  0  0  0  0  0  0  0  0  0  0  0
    2.8660    0.8700    0.0000 H   0  0  0  0  0  0  0  0  0  0  0  0
   14.9904    0.8700    0.0000 H   0  0  0  0  0  0  0  0  0  0  0  0
   10.9893    1.5600    0.0000 H   0  0  0  0  0  0  0  0  0  0  0  0
    5.7932    1.5600    0.0000 H   0  0  0  0  0  0  0  0  0  0  0  0
    3.1951   -1.5600    0.0000 H   0  0  0  0  0  0  0  0  0  0  0  0
   14.6613   -1.5600    0.0000 H   0  0  0  0  0  0  0  0  0  0  0  0
 16  2  1  1  0  0  0
  2 36  1  0  0  0  0
 17  3  1  6  0  0  0
  3 37  1  0  0  0  0
 18  4  1  1  0  0  0
  4 38  1  0  0  0  0
 19  5  1  6  0  0  0
  5 39  1  0  0  0  0
 20  6  1  1  0  0  0
  6 42  1  0  0  0  0
 21  7  1  6  0  0  0
  7 43  1  0  0  0  0
 22  8  1  1  0  0  0
  8 44  1  0  0  0  0
 23  9  1  6  0  0  0
  9 45  1  0  0  0  0
 10 24  1  0  0  0  0
 11 25  1  0  0  0  0
 12 24  2  0  0  0  0
 13 25  2  0  0  0  0
 14 26  2  0  0  0  0
 15 27  2  0  0  0  0
 16 19  1  0  0  0  0
 16 20  1  0  0  0  0
 16 28  1  0  0  0  0
 17 18  1  0  0  0  0
 17 21  1  0  0  0  0
 17 29  1  0  0  0  0
 18 22  1  0  0  0  0
 18 30  1  0  0  0  0
 19 23  1  0  0  0  0
 19 31  1  0  0  0  0
 20 24  1  0  0  0  0
 20 32  1  0  0  0  0
 21 25  1  0  0  0  0
 21 33  1  0  0  0  0
 22 26  1  0  0  0  0
 22 34  1  0  0  0  0
 23 27  1  0  0  0  0
 23 35  1  0  0  0  0
 26 40  1  0  0  0  0
 27 41  1  0  0  0  0
M  CHG  3   1   2  10  -1  11  -1
M  END
> <PUBCHEM_COMPOUND_CID>
46173918

> <PUBCHEM_COMPOUND_CANONICALIZED>
1

> <PUBCHEM_CACTVS_COMPLEXITY>
431

> <PUBCHEM_CACTVS_HBOND_ACCEPTOR>
14

> <PUBCHEM_CACTVS_HBOND_DONOR>
8

> <PUBCHEM_CACTVS_ROTATABLE_BOND>
12

> <PUBCHEM_CACTVS_SUBSKEYS>
AAADceBwPAAAAAgAAAAAAAAAAAAAAAAAAAAAAAAAAAAAAAAAAAAAGgAACAAACBSggAIACAAAAgAIAAiQiAIAAAAAAAAAAAFAAAABEBYAAAAAQAAFIAABAAHKbARAAAAAAAAAAAAAAAAAAAAAAAAAAAAAAA==

> <PUBCHEM_IUPAC_OPENEYE_NAME>
calcium (2S,3R,4S,5R)-2,3,4,5-tetrahydroxy-6-oxo-hexanoate

> <PUBCHEM_IUPAC_CAS_NAME>
calcium (2S,3R,4S,5R)-2,3,4,5-tetrahydroxy-6-oxohexanoate

> <PUBCHEM_IUPAC_NAME>
calcium (2S,3R,4S,5R)-2,3,4,5-tetrahydroxy-6-oxohexanoate

> <PUBCHEM_IUPAC_SYSTEMATIC_NAME>
calcium (2S,3R,4S,5R)-2,3,4,5-tetrakis(oxidanyl)-6-oxidanylidene-hexanoate

> <PUBCHEM_IUPAC_TRADITIONAL_NAME>
calcium (2S,3R,4S,5R)-2,3,4,5-tetrahydroxy-6-keto-hexanoate

> <PUBCHEM_IUPAC_INCHI>
InChI=1S/2C6H10O7.Ca/c2*7-1-2(8)3(9)4(10)5(11)6(12)13;/h2*1-5,8-11H,(H,12,13);/q;;+2/p-2/t2*2-,3+,4+,5-;/m00./s1

> <PUBCHEM_IUPAC_INCHIKEY>
ILJIJWPWFKABMW-PDCYBDDKSA-L

> <PUBCHEM_EXACT_MASS>
426.032246

> <PUBCHEM_MOLECULAR_FORMULA>
C12H18CaO14

> <PUBCHEM_MOLECULAR_WEIGHT>
426.34092

> <PUBCHEM_OPENEYE_CAN_SMILES>
C(=O)C(C(C(C(C(=O)[O-])O)O)O)O.C(=O)C(C(C(C(C(=O)[O-])O)O)O)O.[Ca+2]

> <PUBCHEM_OPENEYE_ISO_SMILES>
C(=O)[C@@H]([C@H]([C@H]([C@@H](C(=O)[O-])O)O)O)O.C(=O)[C@@H]([C@H]([C@H]([C@@H](C(=O)[O-])O)O)O)O.[Ca+2]

> <PUBCHEM_CACTVS_TPSA>
276

> <PUBCHEM_MONOISOTOPIC_WEIGHT>
426.032246

> <PUBCHEM_TOTAL_CHARGE>
0

> <PUBCHEM_HEAVY_ATOM_COUNT>
27

> <PUBCHEM_ATOM_DEF_STEREO_COUNT>
8

> <PUBCHEM_ATOM_UDEF_STEREO_COUNT>
0

> <PUBCHEM_BOND_DEF_STEREO_COUNT>
0

> <PUBCHEM_BOND_UDEF_STEREO_COUNT>
0

> <PUBCHEM_ISOTOPIC_ATOM_COUNT>
0

> <PUBCHEM_COMPONENT_COUNT>
3

> <PUBCHEM_CACTVS_TAUTO_COUNT>
861

> <PUBCHEM_NONSTANDARDBOND>
1  10  7
1  11  7

> <PUBCHEM_COORDINATE_TYPE>
1
5
255

> <PUBCHEM_BONDANNOTATIONS>
16  2  5
17  3  6
18  4  5
19  5  6
20  6  5
21  7  6
22  8  5
23  9  6

$$$$

