409725
  -OEChem-07051213072D

 22 22  0     1  0  0  0  0  0999 V2000
    2.8660   -0.5000    0.0000 Hg  0  0  0  0  0  0  0  0  0  0  0  0
    8.0622    0.5000    0.0000 Hg  0  0  0  0  0  0  0  0  0  0  0  0
    2.0000   -1.0000    0.0000 I   0  0  0  0  0  0  0  0  0  0  0  0
    8.9282    1.0000    0.0000 I   0  0  0  0  0  0  0  0  0  0  0  0
    5.4641   -1.0000    0.0000 O   0  0  0  0  0  0  0  0  0  0  0  0
    5.4641    1.0000    0.0000 O   0  0  0  0  0  0  0  0  0  0  0  0
    4.5981   -0.5000    0.0000 C   0  0  3  0  0  0  0  0  0  0  0  0
    6.3301    0.5000    0.0000 C   0  0  3  0  0  0  0  0  0  0  0  0
    6.3301   -0.5000    0.0000 C   0  0  0  0  0  0  0  0  0  0  0  0
    4.5981    0.5000    0.0000 C   0  0  0  0  0  0  0  0  0  0  0  0
    3.7320   -1.0000    0.0000 C   0  0  0  0  0  0  0  0  0  0  0  0
    7.1962    1.0000    0.0000 C   0  0  0  0  0  0  0  0  0  0  0  0
    6.3301    1.1200    0.0000 H   0  0  0  0  0  0  0  0  0  0  0  0
    4.5981   -1.1200    0.0000 H   0  0  0  0  0  0  0  0  0  0  0  0
    6.5422   -1.0826    0.0000 H   0  0  0  0  0  0  0  0  0  0  0  0
    6.9407   -0.3923    0.0000 H   0  0  0  0  0  0  0  0  0  0  0  0
    4.3860    1.0826    0.0000 H   0  0  0  0  0  0  0  0  0  0  0  0
    3.9875    0.3923    0.0000 H   0  0  0  0  0  0  0  0  0  0  0  0
    7.5947    1.4750    0.0000 H   0  0  0  0  0  0  0  0  0  0  0  0
    6.7976    1.4750    0.0000 H   0  0  0  0  0  0  0  0  0  0  0  0
    3.3335   -1.4750    0.0000 H   0  0  0  0  0  0  0  0  0  0  0  0
    4.1306   -1.4750    0.0000 H   0  0  0  0  0  0  0  0  0  0  0  0
  1  3  1  0  0  0  0
  1 11  1  0  0  0  0
  2  4  1  0  0  0  0
  2 12  1  0  0  0  0
  5  7  1  0  0  0  0
  5  9  1  0  0  0  0
  6  8  1  0  0  0  0
  6 10  1  0  0  0  0
  7 10  1  0  0  0  0
  7 11  1  0  0  0  0
  7 14  1  0  0  0  0
  8  9  1  0  0  0  0
  8 12  1  0  0  0  0
  8 13  1  0  0  0  0
  9 15  1  0  0  0  0
  9 16  1  0  0  0  0
 10 17  1  0  0  0  0
 10 18  1  0  0  0  0
 11 21  1  0  0  0  0
 11 22  1  0  0  0  0
 12 19  1  0  0  0  0
 12 20  1  0  0  0  0
M  END
> <PUBCHEM_COMPOUND_CID>
409725

> <PUBCHEM_COMPOUND_CANONICALIZED>
1

> <PUBCHEM_CACTVS_COMPLEXITY>
114

> <PUBCHEM_CACTVS_HBOND_ACCEPTOR>
2

> <PUBCHEM_CACTVS_HBOND_DONOR>
0

> <PUBCHEM_CACTVS_ROTATABLE_BOND>
2

> <PUBCHEM_CACTVS_SUBSKEYS>
AAADccBgMAAAAwAAAAAAAQAAAAAAAAAAAAAkAAAAAAAAAAAAAAAAGgAAAAAACBSggAIAAAAABAAAAAAAAAAAAAAAAAAAAAAAAAABAAAAAAACAAAAAAACAAAAAAAAAAAAAAAAAAAAAAAAAAAAAAAAAAAAAA==

> <PUBCHEM_IUPAC_OPENEYE_NAME>
iodo-[[5-(iodomercuriomethyl)-1,4-dioxan-2-yl]methyl]mercury

> <PUBCHEM_IUPAC_CAS_NAME>
iodo-[[5-(iodomercuriomethyl)-1,4-dioxan-2-yl]methyl]mercury

> <PUBCHEM_IUPAC_NAME>
iodo-[[5-(iodomercuriomethyl)-1,4-dioxan-2-yl]methyl]mercury

> <PUBCHEM_IUPAC_SYSTEMATIC_NAME>
iodanyl-[[5-(iodanylmercuriomethyl)-1,4-dioxan-2-yl]methyl]mercury

> <PUBCHEM_IUPAC_TRADITIONAL_NAME>
iodo-[[5-(iodomercuriomethyl)-1,4-dioxan-2-yl]methyl]mercury

> <PUBCHEM_IUPAC_INCHI>
InChI=1S/C6H10O2.2Hg.2HI/c1-5-3-8-6(2)4-7-5;;;;/h5-6H,1-4H2;;;2*1H/q;2*+1;;/p-2

> <PUBCHEM_IUPAC_INCHIKEY>
NZOHALCQLXDJDI-UHFFFAOYSA-L

> <PUBCHEM_EXACT_MASS>
769.815995

> <PUBCHEM_MOLECULAR_FORMULA>
C6H10Hg2I2O2

> <PUBCHEM_MOLECULAR_WEIGHT>
769.13134

> <PUBCHEM_OPENEYE_CAN_SMILES>
C1C(OCC(O1)C[Hg]I)C[Hg]I

> <PUBCHEM_OPENEYE_ISO_SMILES>
C1C(OCC(O1)C[Hg]I)C[Hg]I

> <PUBCHEM_CACTVS_TPSA>
18.5

> <PUBCHEM_MONOISOTOPIC_WEIGHT>
771.818312

> <PUBCHEM_TOTAL_CHARGE>
0

> <PUBCHEM_HEAVY_ATOM_COUNT>
12

> <PUBCHEM_ATOM_DEF_STEREO_COUNT>
0

> <PUBCHEM_ATOM_UDEF_STEREO_COUNT>
2

> <PUBCHEM_BOND_DEF_STEREO_COUNT>
0

> <PUBCHEM_BOND_UDEF_STEREO_COUNT>
0

> <PUBCHEM_ISOTOPIC_ATOM_COUNT>
0

> <PUBCHEM_COMPONENT_COUNT>
1

> <PUBCHEM_CACTVS_TAUTO_COUNT>
1

> <PUBCHEM_COORDINATE_TYPE>
1
5
255

> <PUBCHEM_BONDANNOTATIONS>
7  11  3
8  12  3

$$$$

