12315228
  -OEChem-07051213152D

 51 55  0     1  0  0  0  0  0999 V2000
    3.3413    4.2875    0.0000 O   0  0  0  0  0  0  0  0  0  0  0  0
    5.5930   -4.2875    0.0000 O   0  0  0  0  0  0  0  0  0  0  0  0
    0.7727    2.5461    0.0000 N   0  0  0  0  0  0  0  0  0  0  0  0
    4.3987    1.0958    0.0000 C   0  0  2  0  0  0  0  0  0  0  0  0
    4.2738    0.0617    0.0000 C   0  0  2  0  0  0  0  0  0  0  0  0
    5.1118   -0.5570    0.0000 C   0  0  2  0  0  0  0  0  0  0  0  0
    5.0067   -1.6369    0.0000 C   0  0  1  0  0  0  0  0  0  0  0  0
    5.3122    1.5026    0.0000 C   0  0  2  0  0  0  0  0  0  0  0  0
    4.0155   -2.0782    0.0000 C   0  0  2  0  0  0  0  0  0  0  0  0
    3.2727   -0.3566    0.0000 C   0  0  0  0  0  0  0  0  0  0  0  0
    2.8635    2.3390    0.0000 C   0  0  2  0  0  0  0  0  0  0  0  0
    6.0634   -0.1334    0.0000 C   0  0  0  0  0  0  0  0  0  0  0  0
    6.1642    0.9034    0.0000 C   0  0  0  0  0  0  0  0  0  0  0  0
    3.1427   -1.4338    0.0000 C   0  0  0  0  0  0  0  0  0  0  0  0
    5.2077    2.4971    0.0000 C   0  0  0  0  0  0  0  0  0  0  0  0
    5.7263   -2.4404    0.0000 C   0  0  0  0  0  0  0  0  0  0  0  0
    4.1310   -3.1506    0.0000 C   0  0  0  0  0  0  0  0  0  0  0  0
    3.4851    0.6891    0.0000 C   0  0  0  0  0  0  0  0  0  0  0  0
    2.6047    3.3049    0.0000 C   0  0  2  0  0  0  0  0  0  0  0  0
    1.0316    1.5801    0.0000 C   0  0  0  0  0  0  0  0  0  0  0  0
    3.1020   -2.4850    0.0000 C   0  0  0  0  0  0  0  0  0  0  0  0
    5.1862   -3.3740    0.0000 C   0  0  0  0  0  0  0  0  0  0  0  0
    3.5959    0.5745    0.0000 H   0  0  0  0  0  0  0  0  0  0  0  0
    5.8014   -1.0540    0.0000 H   0  0  0  0  0  0  0  0  0  0  0  0
    5.8144   -1.3722    0.0000 H   0  0  0  0  0  0  0  0  0  0  0  0
    6.0887    1.8483    0.0000 H   0  0  0  0  0  0  0  0  0  0  0  0
    2.6535   -0.3887    0.0000 H   0  0  0  0  0  0  0  0  0  0  0  0
    3.1351    0.2480    0.0000 H   0  0  0  0  0  0  0  0  0  0  0  0
    3.0835    1.5179    0.0000 H   0  0  0  0  0  0  0  0  0  0  0  0
    6.6816   -0.0870    0.0000 H   0  0  0  0  0  0  0  0  0  0  0  0
    6.2149   -0.7346    0.0000 H   0  0  0  0  0  0  0  0  0  0  0  0
    6.4289    1.4640    0.0000 H   0  0  0  0  0  0  0  0  0  0  0  0
    6.7620    0.7386    0.0000 H   0  0  0  0  0  0  0  0  0  0  0  0
    2.8652   -1.9882    0.0000 H   0  0  0  0  0  0  0  0  0  0  0  0
    2.5489   -1.2552    0.0000 H   0  0  0  0  0  0  0  0  0  0  0  0
    5.3100    3.1086    0.0000 H   0  0  0  0  0  0  0  0  0  0  0  0
    5.8274    2.4782    0.0000 H   0  0  0  0  0  0  0  0  0  0  0  0
    6.1421   -1.9804    0.0000 H   0  0  0  0  0  0  0  0  0  0  0  0
    6.2274   -2.8055    0.0000 H   0  0  0  0  0  0  0  0  0  0  0  0
    4.0671   -3.7673    0.0000 H   0  0  0  0  0  0  0  0  0  0  0  0
    3.5110   -3.1519    0.0000 H   0  0  0  0  0  0  0  0  0  0  0  0
    3.7373    0.1227    0.0000 H   0  0  0  0  0  0  0  0  0  0  0  0
    2.9187    0.4369    0.0000 H   0  0  0  0  0  0  0  0  0  0  0  0
    3.2330    1.2555    0.0000 H   0  0  0  0  0  0  0  0  0  0  0  0
    2.3847    4.1259    0.0000 H   0  0  0  0  0  0  0  0  0  0  0  0
    1.2436    0.9975    0.0000 H   0  0  0  0  0  0  0  0  0  0  0  0
    0.4403    1.3937    0.0000 H   0  0  0  0  0  0  0  0  0  0  0  0
    3.3541   -3.0514    0.0000 H   0  0  0  0  0  0  0  0  0  0  0  0
    2.5356   -2.7372    0.0000 H   0  0  0  0  0  0  0  0  0  0  0  0
    2.8498   -1.9186    0.0000 H   0  0  0  0  0  0  0  0  0  0  0  0
    0.2358    2.8561    0.0000 H   0  0  0  0  0  0  0  0  0  0  0  0
  1 11  1  0  0  0  0
  1 19  1  0  0  0  0
  2 22  2  0  0  0  0
  3 19  1  0  0  0  0
  3 20  1  0  0  0  0
  3 51  1  0  0  0  0
  4  5  1  0  0  0  0
  4  8  1  0  0  0  0
  4 11  1  0  0  0  0
  4 18  1  6  0  0  0
  5  6  1  0  0  0  0
  5 10  1  0  0  0  0
  5 23  1  1  0  0  0
  6  7  1  0  0  0  0
  6 12  1  0  0  0  0
  6 24  1  6  0  0  0
  7  9  1  0  0  0  0
  7 16  1  0  0  0  0
  7 25  1  1  0  0  0
  8 13  1  0  0  0  0
  8 15  1  0  0  0  0
  8 26  1  6  0  0  0
  9 14  1  0  0  0  0
  9 17  1  0  0  0  0
  9 21  1  6  0  0  0
 10 14  1  0  0  0  0
 10 27  1  0  0  0  0
 10 28  1  0  0  0  0
 11 20  1  0  0  0  0
 11 29  1  1  0  0  0
 12 13  1  0  0  0  0
 12 30  1  0  0  0  0
 12 31  1  0  0  0  0
 13 32  1  0  0  0  0
 13 33  1  0  0  0  0
 14 34  1  0  0  0  0
 14 35  1  0  0  0  0
 15 19  1  0  0  0  0
 15 36  1  0  0  0  0
 15 37  1  0  0  0  0
 16 22  1  0  0  0  0
 16 38  1  0  0  0  0
 16 39  1  0  0  0  0
 17 22  1  0  0  0  0
 17 40  1  0  0  0  0
 17 41  1  0  0  0  0
 18 42  1  0  0  0  0
 18 43  1  0  0  0  0
 18 44  1  0  0  0  0
 19 45  1  6  0  0  0
 20 46  1  0  0  0  0
 20 47  1  0  0  0  0
 21 48  1  0  0  0  0
 21 49  1  0  0  0  0
 21 50  1  0  0  0  0
M  END
> <PUBCHEM_COMPOUND_CID>
12315228

> <PUBCHEM_COMPOUND_CANONICALIZED>
1

> <PUBCHEM_CACTVS_COMPLEXITY>
520

> <PUBCHEM_CACTVS_HBOND_ACCEPTOR>
3

> <PUBCHEM_CACTVS_HBOND_DONOR>
1

> <PUBCHEM_CACTVS_ROTATABLE_BOND>
0

> <PUBCHEM_CACTVS_SUBSKEYS>
AAADceB6MAAAAAAAAAAAAAAAAAAAAeIAAAA0YIAABYAAAGDQAAAAHgAQAAAADxThgAYCAALABAAIAIAQAAAAAAAAAAAAAIEIAAECABIAgAAPAAAEEACQAAGY2PKPgAAAAAAAAACAAAQAACAAAAAACAAAAA==

> <PUBCHEM_IUPAC_INCHI>
InChI=1S/C19H29NO2/c1-18-6-5-14-13(15(18)8-12(21)9-18)4-3-11-7-17-20-10-16(22-17)19(11,14)2/h11,13-17,20H,3-10H2,1-2H3/t11-,13-,14+,15+,16+,17+,18-,19+/m1/s1

> <PUBCHEM_IUPAC_INCHIKEY>
XWTQFFNBWQHSFL-ZZOJTZHCSA-N

> <PUBCHEM_XLOGP3_AA>
3.3

> <PUBCHEM_EXACT_MASS>
303.219829

> <PUBCHEM_MOLECULAR_FORMULA>
C19H29NO2

> <PUBCHEM_MOLECULAR_WEIGHT>
303.43906

> <PUBCHEM_OPENEYE_CAN_SMILES>
CC12CCC3C(C1CC(=O)C2)CCC4C3(C5CNC(C4)O5)C

> <PUBCHEM_OPENEYE_ISO_SMILES>
C[C@]12CC[C@H]3[C@H]([C@@H]1CC(=O)C2)CC[C@H]4[C@@]3([C@@H]5CN[C@H](C4)O5)C

> <PUBCHEM_CACTVS_TPSA>
38.3

> <PUBCHEM_MONOISOTOPIC_WEIGHT>
303.219829

> <PUBCHEM_TOTAL_CHARGE>
0

> <PUBCHEM_HEAVY_ATOM_COUNT>
22

> <PUBCHEM_ATOM_DEF_STEREO_COUNT>
8

> <PUBCHEM_ATOM_UDEF_STEREO_COUNT>
0

> <PUBCHEM_BOND_DEF_STEREO_COUNT>
0

> <PUBCHEM_BOND_UDEF_STEREO_COUNT>
0

> <PUBCHEM_ISOTOPIC_ATOM_COUNT>
0

> <PUBCHEM_COMPONENT_COUNT>
1

> <PUBCHEM_CACTVS_TAUTO_COUNT>
3

> <PUBCHEM_COORDINATE_TYPE>
1
5
255

> <PUBCHEM_BONDANNOTATIONS>
11  29  5
19  45  6
4  18  6
5  23  5
6  24  6
7  25  5
8  26  6
9  21  6

$$$$

