439485
  -OEChem-07051212452D

 63 66  0     1  0  0  0  0  0999 V2000
   11.2007    2.4175    0.0000 S   0  0  0  0  0  0  0  0  0  0  0  0
    9.2806    1.8916    0.0000 O   0  0  0  0  0  0  0  0  0  0  0  0
    7.6050    0.8166    0.0000 O   0  0  0  0  0  0  0  0  0  0  0  0
   14.3143   -0.4196    0.0000 O   0  0  0  0  0  0  0  0  0  0  0  0
   14.3143   -2.0291    0.0000 O   0  0  0  0  0  0  0  0  0  0  0  0
    5.3903   -2.0286    0.0000 O   0  0  0  0  0  0  0  0  0  0  0  0
   12.8949    2.7776    0.0000 O   0  0  0  0  0  0  0  0  0  0  0  0
    6.9726   -2.7331    0.0000 O   0  0  0  0  0  0  0  0  0  0  0  0
    9.6873    0.9781    0.0000 N   0  0  3  0  0  0  0  0  0  0  0  0
    7.7861   -0.9060    0.0000 N   0  0  0  0  0  0  0  0  0  0  0  0
   10.7700   -0.2243    0.0000 C   0  0  3  0  0  0  0  0  0  0  0  0
   10.6655    0.7702    0.0000 C   0  0  3  0  0  0  0  0  0  0  0  0
    9.8565   -0.6311    0.0000 C   0  0  0  0  0  0  0  0  0  0  0  0
    9.1873    0.1121    0.0000 C   0  0  1  0  0  0  0  0  0  0  0  0
   11.6360   -0.7243    0.0000 C   0  0  0  0  0  0  0  0  0  0  0  0
   11.4086    1.4393    0.0000 C   0  0  0  0  0  0  0  0  0  0  0  0
    8.1928    0.0075    0.0000 C   0  0  0  0  0  0  0  0  0  0  0  0
   12.5021   -0.2243    0.0000 C   0  0  0  0  0  0  0  0  0  0  0  0
   11.6360   -1.7243    0.0000 C   0  0  0  0  0  0  0  0  0  0  0  0
   13.3681   -0.7243    0.0000 C   0  0  0  0  0  0  0  0  0  0  0  0
   12.5021   -2.2243    0.0000 C   0  0  0  0  0  0  0  0  0  0  0  0
   13.3681   -1.7243    0.0000 C   0  0  0  0  0  0  0  0  0  0  0  0
    6.7916   -1.0105    0.0000 C   0  0  1  0  0  0  0  0  0  0  0  0
   11.9439    3.0866    0.0000 C   0  0  0  0  0  0  0  0  0  0  0  0
    6.2038   -0.2015    0.0000 C   0  0  0  0  0  0  0  0  0  0  0  0
   14.8979   -1.2243    0.0000 C   0  0  0  0  0  0  0  0  0  0  0  0
    6.3848   -1.9241    0.0000 C   0  0  0  0  0  0  0  0  0  0  0  0
   11.7360    4.0648    0.0000 C   0  0  0  0  0  0  0  0  0  0  0  0
    4.9836   -2.9421    0.0000 C   0  0  0  0  0  0  0  0  0  0  0  0
    3.9890   -3.0467    0.0000 C   0  0  0  0  0  0  0  0  0  0  0  0
    3.4013   -2.2377    0.0000 C   0  0  0  0  0  0  0  0  0  0  0  0
    3.5823   -3.9602    0.0000 C   0  0  0  0  0  0  0  0  0  0  0  0
    2.4067   -2.3422    0.0000 C   0  0  0  0  0  0  0  0  0  0  0  0
    2.5878   -4.0648    0.0000 C   0  0  0  0  0  0  0  0  0  0  0  0
    2.0000   -3.2557    0.0000 C   0  0  0  0  0  0  0  0  0  0  0  0
   11.4829    0.2386    0.0000 H   0  0  0  0  0  0  0  0  0  0  0  0
   10.4455    1.5912    0.0000 H   0  0  0  0  0  0  0  0  0  0  0  0
    9.3549   -0.9955    0.0000 H   0  0  0  0  0  0  0  0  0  0  0  0
   10.1665   -1.1680    0.0000 H   0  0  0  0  0  0  0  0  0  0  0  0
    8.8497    0.6321    0.0000 H   0  0  0  0  0  0  0  0  0  0  0  0
   11.7372    0.9135    0.0000 H   0  0  0  0  0  0  0  0  0  0  0  0
   11.9835    1.6716    0.0000 H   0  0  0  0  0  0  0  0  0  0  0  0
   12.5021    0.3957    0.0000 H   0  0  0  0  0  0  0  0  0  0  0  0
   11.0991   -2.0343    0.0000 H   0  0  0  0  0  0  0  0  0  0  0  0
    8.6640    1.9565    0.0000 H   0  0  0  0  0  0  0  0  0  0  0  0
    8.1505   -1.4076    0.0000 H   0  0  0  0  0  0  0  0  0  0  0  0
   12.5021   -2.8443    0.0000 H   0  0  0  0  0  0  0  0  0  0  0  0
    7.0437   -0.4441    0.0000 H   0  0  0  0  0  0  0  0  0  0  0  0
    6.7054    0.1629    0.0000 H   0  0  0  0  0  0  0  0  0  0  0  0
    5.8393    0.3001    0.0000 H   0  0  0  0  0  0  0  0  0  0  0  0
    5.7022   -0.5659    0.0000 H   0  0  0  0  0  0  0  0  0  0  0  0
   15.3588   -1.6391    0.0000 H   0  0  0  0  0  0  0  0  0  0  0  0
   15.3588   -0.8096    0.0000 H   0  0  0  0  0  0  0  0  0  0  0  0
   12.3424    4.1936    0.0000 H   0  0  0  0  0  0  0  0  0  0  0  0
   11.6070    4.6712    0.0000 H   0  0  0  0  0  0  0  0  0  0  0  0
   11.1295    3.9358    0.0000 H   0  0  0  0  0  0  0  0  0  0  0  0
    4.9403   -3.5606    0.0000 H   0  0  0  0  0  0  0  0  0  0  0  0
    5.5851   -3.0921    0.0000 H   0  0  0  0  0  0  0  0  0  0  0  0
    3.6534   -1.6713    0.0000 H   0  0  0  0  0  0  0  0  0  0  0  0
    3.9467   -4.4618    0.0000 H   0  0  0  0  0  0  0  0  0  0  0  0
    2.0423   -1.8406    0.0000 H   0  0  0  0  0  0  0  0  0  0  0  0
    2.3356   -4.6312    0.0000 H   0  0  0  0  0  0  0  0  0  0  0  0
    1.3834   -3.3205    0.0000 H   0  0  0  0  0  0  0  0  0  0  0  0
  1 16  1  0  0  0  0
  1 24  1  0  0  0  0
  2  9  1  0  0  0  0
  2 45  1  0  0  0  0
  3 17  2  0  0  0  0
  4 20  1  0  0  0  0
  4 26  1  0  0  0  0
  5 22  1  0  0  0  0
  5 26  1  0  0  0  0
  6 27  1  0  0  0  0
  6 29  1  0  0  0  0
  7 24  2  0  0  0  0
  8 27  2  0  0  0  0
  9 12  1  0  0  0  0
  9 14  1  0  0  0  0
 10 17  1  0  0  0  0
 23 10  1  6  0  0  0
 10 46  1  0  0  0  0
 11 12  1  0  0  0  0
 11 13  1  0  0  0  0
 11 15  1  0  0  0  0
 11 36  1  0  0  0  0
 12 16  1  0  0  0  0
 12 37  1  0  0  0  0
 13 14  1  0  0  0  0
 13 38  1  0  0  0  0
 13 39  1  0  0  0  0
 14 17  1  1  0  0  0
 14 40  1  0  0  0  0
 15 18  2  0  0  0  0
 15 19  1  0  0  0  0
 16 41  1  0  0  0  0
 16 42  1  0  0  0  0
 18 20  1  0  0  0  0
 18 43  1  0  0  0  0
 19 21  2  0  0  0  0
 19 44  1  0  0  0  0
 20 22  2  0  0  0  0
 21 22  1  0  0  0  0
 21 47  1  0  0  0  0
 23 25  1  0  0  0  0
 23 27  1  0  0  0  0
 23 48  1  0  0  0  0
 24 28  1  0  0  0  0
 25 49  1  0  0  0  0
 25 50  1  0  0  0  0
 25 51  1  0  0  0  0
 26 52  1  0  0  0  0
 26 53  1  0  0  0  0
 28 54  1  0  0  0  0
 28 55  1  0  0  0  0
 28 56  1  0  0  0  0
 29 30  1  0  0  0  0
 29 57  1  0  0  0  0
 29 58  1  0  0  0  0
 30 31  2  0  0  0  0
 30 32  1  0  0  0  0
 31 33  1  0  0  0  0
 31 59  1  0  0  0  0
 32 34  2  0  0  0  0
 32 60  1  0  0  0  0
 33 35  2  0  0  0  0
 33 61  1  0  0  0  0
 34 35  1  0  0  0  0
 34 62  1  0  0  0  0
 35 63  1  0  0  0  0
M  END
> <PUBCHEM_COMPOUND_CID>
439485

> <PUBCHEM_COMPOUND_CANONICALIZED>
1

> <PUBCHEM_CACTVS_COMPLEXITY>
762

> <PUBCHEM_CACTVS_HBOND_ACCEPTOR>
9

> <PUBCHEM_CACTVS_HBOND_DONOR>
2

> <PUBCHEM_CACTVS_ROTATABLE_BOND>
10

> <PUBCHEM_CACTVS_SUBSKEYS>
AAADceB7OABAAAAAAAAAAAAAAAAAAWJAAAAwYAAAAAAAAEgBQAAAHgQUCAAADSzl2AeyDoLQBAiIAiHSGAACCAAgIBAoiIGOiIgfZjKksTu3MCIk1hG+qAeY2fOeoAABAAAAQABAAAIAAACAAAAAAAAAAA==

> <PUBCHEM_IUPAC_OPENEYE_NAME>
benzyl (2S)-2-[[(2S)-5-(acetylsulfanylmethyl)-4-(1,3-benzodioxol-5-yl)-1-hydroxy-pyrrolidine-2-carbonyl]amino]propanoate

> <PUBCHEM_IUPAC_CAS_NAME>
(2S)-2-[[[(2S)-5-[(acetylthio)methyl]-4-(1,3-benzodioxol-5-yl)-1-hydroxy-2-pyrrolidinyl]-oxomethyl]amino]propanoic acid (phenylmethyl) ester

> <PUBCHEM_IUPAC_NAME>
benzyl (2S)-2-[[(2S)-5-(acetylsulfanylmethyl)-4-(1,3-benzodioxol-5-yl)-1-hydroxypyrrolidine-2-carbonyl]amino]propanoate

> <PUBCHEM_IUPAC_SYSTEMATIC_NAME>
(phenylmethyl) (2S)-2-[[(2S)-4-(1,3-benzodioxol-5-yl)-5-(ethanoylsulfanylmethyl)-1-oxidanyl-pyrrolidin-2-yl]carbonylamino]propanoate

> <PUBCHEM_IUPAC_TRADITIONAL_NAME>
(2S)-2-[[(2S)-5-[(acetylthio)methyl]-4-(1,3-benzodioxol-5-yl)-1-hydroxy-prolyl]amino]propionic acid benzyl ester

> <PUBCHEM_IUPAC_INCHI>
InChI=1S/C25H28N2O7S/c1-15(25(30)32-12-17-6-4-3-5-7-17)26-24(29)20-11-19(21(27(20)31)13-35-16(2)28)18-8-9-22-23(10-18)34-14-33-22/h3-10,15,19-21,31H,11-14H2,1-2H3,(H,26,29)/t15-,19?,20-,21?/m0/s1

> <PUBCHEM_IUPAC_INCHIKEY>
VTZRKUFAIWPNRI-QOLSWGAYSA-N

> <PUBCHEM_XLOGP3_AA>
3.7

> <PUBCHEM_EXACT_MASS>
500.161722

> <PUBCHEM_MOLECULAR_FORMULA>
C25H28N2O7S

> <PUBCHEM_MOLECULAR_WEIGHT>
500.56402

> <PUBCHEM_OPENEYE_CAN_SMILES>
CC(C(=O)OCC1=CC=CC=C1)NC(=O)C2CC(C(N2O)CSC(=O)C)C3=CC4=C(C=C3)OCO4

> <PUBCHEM_OPENEYE_ISO_SMILES>
C[C@@H](C(=O)OCC1=CC=CC=C1)NC(=O)[C@@H]2CC(C(N2O)CSC(=O)C)C3=CC4=C(C=C3)OCO4

> <PUBCHEM_CACTVS_TPSA>
140

> <PUBCHEM_MONOISOTOPIC_WEIGHT>
500.161722

> <PUBCHEM_TOTAL_CHARGE>
0

> <PUBCHEM_HEAVY_ATOM_COUNT>
35

> <PUBCHEM_ATOM_DEF_STEREO_COUNT>
2

> <PUBCHEM_ATOM_UDEF_STEREO_COUNT>
2

> <PUBCHEM_BOND_DEF_STEREO_COUNT>
0

> <PUBCHEM_BOND_UDEF_STEREO_COUNT>
0

> <PUBCHEM_ISOTOPIC_ATOM_COUNT>
0

> <PUBCHEM_COMPONENT_COUNT>
1

> <PUBCHEM_CACTVS_TAUTO_COUNT>
2

> <PUBCHEM_COORDINATE_TYPE>
1
5
255

> <PUBCHEM_BONDANNOTATIONS>
23  10  6
11  36  3
12  37  3
14  17  5
15  18  8
15  19  8
18  20  8
19  21  8
20  22  8
21  22  8
30  31  8
30  32  8
31  33  8
32  34  8
33  35  8
34  35  8

$$$$

