19009
  -OEChem-07051212502D

 48 51  0     0  0  0  0  0  0999 V2000
    3.8372   -4.3830    0.0000 O   0  0  0  0  0  0  0  0  0  0  0  0
    5.6405   -3.3232    0.0000 O   0  0  0  0  0  0  0  0  0  0  0  0
    2.8963    3.3452    0.0000 O   0  0  0  0  0  0  0  0  0  0  0  0
    4.6622    4.3830    0.0000 O   0  0  0  0  0  0  0  0  0  0  0  0
    2.9180    0.3137    0.0000 N   0  3  0  0  0  0  0  0  0  0  0  0
    2.0080   -0.1931    0.0000 C   0  0  0  0  0  0  0  0  0  0  0  0
    2.0000   -1.2347    0.0000 C   0  0  0  0  0  0  0  0  0  0  0  0
    3.7841   -0.1863    0.0000 C   0  0  0  0  0  0  0  0  0  0  0  0
    2.9021   -1.7555    0.0000 C   0  0  0  0  0  0  0  0  0  0  0  0
    3.8001   -1.2278    0.0000 C   0  0  0  0  0  0  0  0  0  0  0  0
    2.9180    1.3137    0.0000 C   0  0  0  0  0  0  0  0  0  0  0  0
    4.6501    0.3137    0.0000 C   0  0  0  0  0  0  0  0  0  0  0  0
    3.7841    1.8137    0.0000 C   0  0  0  0  0  0  0  0  0  0  0  0
    4.6501    1.3137    0.0000 C   0  0  0  0  0  0  0  0  0  0  0  0
    2.8937   -2.8405    0.0000 C   0  0  0  0  0  0  0  0  0  0  0  0
    4.7520   -1.7484    0.0000 C   0  0  0  0  0  0  0  0  0  0  0  0
    3.8334   -3.3830    0.0000 C   0  0  0  0  0  0  0  0  0  0  0  0
    4.7688   -2.8333    0.0000 C   0  0  0  0  0  0  0  0  0  0  0  0
    3.7680    2.8552    0.0000 C   0  0  0  0  0  0  0  0  0  0  0  0
    5.5601    1.8206    0.0000 C   0  0  0  0  0  0  0  0  0  0  0  0
    4.6660    3.3830    0.0000 C   0  0  0  0  0  0  0  0  0  0  0  0
    5.5681    2.8622    0.0000 C   0  0  0  0  0  0  0  0  0  0  0  0
    2.8847    4.3451    0.0000 C   0  0  0  0  0  0  0  0  0  0  0  0
    5.6521   -4.3232    0.0000 C   0  0  0  0  0  0  0  0  0  0  0  0
    2.9731   -4.8863    0.0000 C   0  0  0  0  0  0  0  0  0  0  0  0
    5.5263    4.8863    0.0000 C   0  0  0  0  0  0  0  0  0  0  0  0
    1.8035    0.3922    0.0000 H   0  0  0  0  0  0  0  0  0  0  0  0
    1.3964   -0.2945    0.0000 H   0  0  0  0  0  0  0  0  0  0  0  0
    1.3900   -1.1239    0.0000 H   0  0  0  0  0  0  0  0  0  0  0  0
    1.7864   -1.8168    0.0000 H   0  0  0  0  0  0  0  0  0  0  0  0
    2.3811    1.6237    0.0000 H   0  0  0  0  0  0  0  0  0  0  0  0
    5.1870    0.0037    0.0000 H   0  0  0  0  0  0  0  0  0  0  0  0
    2.3556   -3.1484    0.0000 H   0  0  0  0  0  0  0  0  0  0  0  0
    5.2829   -1.4281    0.0000 H   0  0  0  0  0  0  0  0  0  0  0  0
    6.0934    1.5044    0.0000 H   0  0  0  0  0  0  0  0  0  0  0  0
    6.1062    3.1701    0.0000 H   0  0  0  0  0  0  0  0  0  0  0  0
    3.5046    4.3523    0.0000 H   0  0  0  0  0  0  0  0  0  0  0  0
    2.8775    4.9651    0.0000 H   0  0  0  0  0  0  0  0  0  0  0  0
    2.2647    4.3380    0.0000 H   0  0  0  0  0  0  0  0  0  0  0  0
    5.0321   -4.3303    0.0000 H   0  0  0  0  0  0  0  0  0  0  0  0
    5.6592   -4.9431    0.0000 H   0  0  0  0  0  0  0  0  0  0  0  0
    6.2720   -4.3160    0.0000 H   0  0  0  0  0  0  0  0  0  0  0  0
    2.6610   -4.3506    0.0000 H   0  0  0  0  0  0  0  0  0  0  0  0
    2.4374   -5.1984    0.0000 H   0  0  0  0  0  0  0  0  0  0  0  0
    3.2852   -5.4221    0.0000 H   0  0  0  0  0  0  0  0  0  0  0  0
    5.8383    4.3506    0.0000 H   0  0  0  0  0  0  0  0  0  0  0  0
    6.0620    5.1984    0.0000 H   0  0  0  0  0  0  0  0  0  0  0  0
    5.2142    5.4220    0.0000 H   0  0  0  0  0  0  0  0  0  0  0  0
  1 17  1  0  0  0  0
  1 25  1  0  0  0  0
  2 18  1  0  0  0  0
  2 24  1  0  0  0  0
  3 19  1  0  0  0  0
  3 23  1  0  0  0  0
  4 21  1  0  0  0  0
  4 26  1  0  0  0  0
  5  6  1  0  0  0  0
  5  8  2  0  0  0  0
  5 11  1  0  0  0  0
  6  7  1  0  0  0  0
  6 27  1  0  0  0  0
  6 28  1  0  0  0  0
  7  9  1  0  0  0  0
  7 29  1  0  0  0  0
  7 30  1  0  0  0  0
  8 10  1  0  0  0  0
  8 12  1  0  0  0  0
  9 10  1  0  0  0  0
  9 15  2  0  0  0  0
 10 16  2  0  0  0  0
 11 13  2  0  0  0  0
 11 31  1  0  0  0  0
 12 14  2  0  0  0  0
 12 32  1  0  0  0  0
 13 14  1  0  0  0  0
 13 19  1  0  0  0  0
 14 20  1  0  0  0  0
 15 17  1  0  0  0  0
 15 33  1  0  0  0  0
 16 18  1  0  0  0  0
 16 34  1  0  0  0  0
 17 18  2  0  0  0  0
 19 21  2  0  0  0  0
 20 22  2  0  0  0  0
 20 35  1  0  0  0  0
 21 22  1  0  0  0  0
 22 36  1  0  0  0  0
 23 37  1  0  0  0  0
 23 38  1  0  0  0  0
 23 39  1  0  0  0  0
 24 40  1  0  0  0  0
 24 41  1  0  0  0  0
 24 42  1  0  0  0  0
 25 43  1  0  0  0  0
 25 44  1  0  0  0  0
 25 45  1  0  0  0  0
 26 46  1  0  0  0  0
 26 47  1  0  0  0  0
 26 48  1  0  0  0  0
M  CHG  1   5   1
M  END
> <PUBCHEM_COMPOUND_CID>
19009

> <PUBCHEM_COMPOUND_CANONICALIZED>
1

> <PUBCHEM_CACTVS_COMPLEXITY>
475

> <PUBCHEM_CACTVS_HBOND_ACCEPTOR>
4

> <PUBCHEM_CACTVS_HBOND_DONOR>
0

> <PUBCHEM_CACTVS_ROTATABLE_BOND>
4

> <PUBCHEM_CACTVS_SUBSKEYS>
AAADceB6OAAAAAAAAAAAAAAAAAAAAAAAAAA8eIEAAAAAAACx9AAAHgAAAAAADAzBngY+htMMFACgAzRnRACCiCAxIiAI2CA+7JgNJuLEsZuEMCpmwBnK6Aew0PMOoAABAAAYQABAAAIAADCAAAAAAAAAAA==

> <PUBCHEM_IUPAC_OPENEYE_NAME>
2,3,9,10-tetramethoxy-5,6-dihydroisoquinolino[2,1-b]isoquinolin-7-ium

> <PUBCHEM_IUPAC_CAS_NAME>
2,3,9,10-tetramethoxy-5,6-dihydroisoquinolino[2,1-b]isoquinolin-7-ium

> <PUBCHEM_IUPAC_NAME>
2,3,9,10-tetramethoxy-5,6-dihydroisoquinolino[2,1-b]isoquinolin-7-ium

> <PUBCHEM_IUPAC_SYSTEMATIC_NAME>
2,3,9,10-tetramethoxy-5,6-dihydroisoquinolino[2,1-b]isoquinolin-7-ium

> <PUBCHEM_IUPAC_TRADITIONAL_NAME>
2,3,9,10-tetramethoxy-5,6-dihydroisoquinolin[2,1-b]isoquinolin-7-ium

> <PUBCHEM_IUPAC_INCHI>
InChI=1S/C21H22NO4/c1-23-18-6-5-13-9-17-15-11-20(25-3)19(24-2)10-14(15)7-8-22(17)12-16(13)21(18)26-4/h5-6,9-12H,7-8H2,1-4H3/q+1

> <PUBCHEM_IUPAC_INCHIKEY>
QUCQEUCGKKTEBI-UHFFFAOYSA-N

> <PUBCHEM_XLOGP3_AA>
3.7

> <PUBCHEM_EXACT_MASS>
352.154883

> <PUBCHEM_MOLECULAR_FORMULA>
C21H22NO4+

> <PUBCHEM_MOLECULAR_WEIGHT>
352.40368

> <PUBCHEM_OPENEYE_CAN_SMILES>
COC1=C(C2=C[N+]3=C(C=C2C=C1)C4=CC(=C(C=C4CC3)OC)OC)OC

> <PUBCHEM_OPENEYE_ISO_SMILES>
COC1=C(C2=C[N+]3=C(C=C2C=C1)C4=CC(=C(C=C4CC3)OC)OC)OC

> <PUBCHEM_CACTVS_TPSA>
40.8

> <PUBCHEM_MONOISOTOPIC_WEIGHT>
352.154883

> <PUBCHEM_TOTAL_CHARGE>
1

> <PUBCHEM_HEAVY_ATOM_COUNT>
26

> <PUBCHEM_ATOM_DEF_STEREO_COUNT>
0

> <PUBCHEM_ATOM_UDEF_STEREO_COUNT>
0

> <PUBCHEM_BOND_DEF_STEREO_COUNT>
0

> <PUBCHEM_BOND_UDEF_STEREO_COUNT>
0

> <PUBCHEM_ISOTOPIC_ATOM_COUNT>
0

> <PUBCHEM_COMPONENT_COUNT>
1

> <PUBCHEM_CACTVS_TAUTO_COUNT>
1

> <PUBCHEM_COORDINATE_TYPE>
1
5
255

> <PUBCHEM_BONDANNOTATIONS>
10  16  8
11  13  8
12  14  8
13  14  8
13  19  8
14  20  8
15  17  8
16  18  8
17  18  8
19  21  8
20  22  8
21  22  8
5  11  8
5  8  8
8  12  8
9  10  8
9  15  8

$$$$

