11954030
  -OEChem-07051213052D

 37 39  0     1  0  0  0  0  0999 V2000
    9.2619   -0.3722    0.0000 O   0  0  0  0  0  0  0  0  0  0  0  0
    4.6783   -1.1769    0.0000 C   0  0  1  0  0  0  0  0  0  0  0  0
    5.2619   -0.3722    0.0000 C   0  0  0  0  0  0  0  0  0  0  0  0
    3.7320   -0.8722    0.0000 C   0  0  0  0  0  0  0  0  0  0  0  0
    4.6783    0.4326    0.0000 C   0  0  0  0  0  0  0  0  0  0  0  0
    3.7320    0.1278    0.0000 C   0  0  0  0  0  0  0  0  0  0  0  0
    4.9889    1.3831    0.0000 C   0  0  0  0  0  0  0  0  0  0  0  0
    4.9889   -2.1274    0.0000 C   0  0  0  0  0  0  0  0  0  0  0  0
    6.2619   -0.3722    0.0000 C   0  0  0  0  0  0  0  0  0  0  0  0
    2.8660   -1.3722    0.0000 C   0  0  0  0  0  0  0  0  0  0  0  0
    2.8660    0.6278    0.0000 C   0  0  0  0  0  0  0  0  0  0  0  0
    4.3211    2.1274    0.0000 C   0  0  0  0  0  0  0  0  0  0  0  0
    2.0000   -0.8722    0.0000 C   0  0  0  0  0  0  0  0  0  0  0  0
    2.0000    0.1278    0.0000 C   0  0  0  0  0  0  0  0  0  0  0  0
    6.7619   -1.2382    0.0000 C   0  0  0  0  0  0  0  0  0  0  0  0
    6.7619    0.4939    0.0000 C   0  0  0  0  0  0  0  0  0  0  0  0
    7.7619   -1.2382    0.0000 C   0  0  0  0  0  0  0  0  0  0  0  0
    7.7619    0.4939    0.0000 C   0  0  0  0  0  0  0  0  0  0  0  0
    8.2619   -0.3722    0.0000 C   0  0  0  0  0  0  0  0  0  0  0  0
    5.2908   -1.2731    0.0000 H   0  0  0  0  0  0  0  0  0  0  0  0
    5.5359    1.0911    0.0000 H   0  0  0  0  0  0  0  0  0  0  0  0
    5.3715    1.8710    0.0000 H   0  0  0  0  0  0  0  0  0  0  0  0
    4.3996   -2.3200    0.0000 H   0  0  0  0  0  0  0  0  0  0  0  0
    5.1815   -2.7167    0.0000 H   0  0  0  0  0  0  0  0  0  0  0  0
    5.5783   -1.9348    0.0000 H   0  0  0  0  0  0  0  0  0  0  0  0
    2.8660   -1.9922    0.0000 H   0  0  0  0  0  0  0  0  0  0  0  0
    2.8660    1.2478    0.0000 H   0  0  0  0  0  0  0  0  0  0  0  0
    4.7826    2.5415    0.0000 H   0  0  0  0  0  0  0  0  0  0  0  0
    3.9070    2.5889    0.0000 H   0  0  0  0  0  0  0  0  0  0  0  0
    3.8596    1.7133    0.0000 H   0  0  0  0  0  0  0  0  0  0  0  0
    1.4631   -1.1822    0.0000 H   0  0  0  0  0  0  0  0  0  0  0  0
    1.4631    0.4378    0.0000 H   0  0  0  0  0  0  0  0  0  0  0  0
    6.4519   -1.7751    0.0000 H   0  0  0  0  0  0  0  0  0  0  0  0
    6.4519    1.0308    0.0000 H   0  0  0  0  0  0  0  0  0  0  0  0
    8.0719   -1.7751    0.0000 H   0  0  0  0  0  0  0  0  0  0  0  0
    8.0719    1.0308    0.0000 H   0  0  0  0  0  0  0  0  0  0  0  0
    9.5719   -0.9091    0.0000 H   0  0  0  0  0  0  0  0  0  0  0  0
  1 19  1  0  0  0  0
  1 37  1  0  0  0  0
  2  3  1  0  0  0  0
  2  4  1  0  0  0  0
  2  8  1  6  0  0  0
  2 20  1  0  0  0  0
  3  5  2  0  0  0  0
  3  9  1  0  0  0  0
  4  6  1  0  0  0  0
  4 10  2  0  0  0  0
  5  6  1  0  0  0  0
  5  7  1  0  0  0  0
  6 11  2  0  0  0  0
  7 12  1  0  0  0  0
  7 21  1  0  0  0  0
  7 22  1  0  0  0  0
  8 23  1  0  0  0  0
  8 24  1  0  0  0  0
  8 25  1  0  0  0  0
  9 15  2  0  0  0  0
  9 16  1  0  0  0  0
 10 13  1  0  0  0  0
 10 26  1  0  0  0  0
 11 14  1  0  0  0  0
 11 27  1  0  0  0  0
 12 28  1  0  0  0  0
 12 29  1  0  0  0  0
 12 30  1  0  0  0  0
 13 14  2  0  0  0  0
 13 31  1  0  0  0  0
 14 32  1  0  0  0  0
 15 17  1  0  0  0  0
 15 33  1  0  0  0  0
 16 18  2  0  0  0  0
 16 34  1  0  0  0  0
 17 19  2  0  0  0  0
 17 35  1  0  0  0  0
 18 19  1  0  0  0  0
 18 36  1  0  0  0  0
M  END
> <PUBCHEM_COMPOUND_CID>
11954030

> <PUBCHEM_COMPOUND_CANONICALIZED>
1

> <PUBCHEM_CACTVS_COMPLEXITY>
349

> <PUBCHEM_CACTVS_HBOND_ACCEPTOR>
1

> <PUBCHEM_CACTVS_HBOND_DONOR>
1

> <PUBCHEM_CACTVS_ROTATABLE_BOND>
2

> <PUBCHEM_CACTVS_SUBSKEYS>
AAADceB4IAAAAAAAAAAAAAAAAAAAAQAAAAAwYAAAAAAAAEABQAAAGgAACAAADQSAmAAyBoAAAgCAAiBCAAACAAAgIAAIiAAGCIgIJiKCERKAcAAkwBEImAeAwOAOoAAAAAAQAABAAAAAACAAAAAAAAAAAA==

> <PUBCHEM_IUPAC_OPENEYE_NAME>
4-[(1R)-3-ethyl-1-methyl-1H-inden-2-yl]phenol

> <PUBCHEM_IUPAC_CAS_NAME>
4-[(1R)-3-ethyl-1-methyl-1H-inden-2-yl]phenol

> <PUBCHEM_IUPAC_NAME>
4-[(1R)-3-ethyl-1-methyl-1H-inden-2-yl]phenol

> <PUBCHEM_IUPAC_SYSTEMATIC_NAME>
4-[(1R)-3-ethyl-1-methyl-1H-inden-2-yl]phenol

> <PUBCHEM_IUPAC_TRADITIONAL_NAME>
4-[(1R)-3-ethyl-1-methyl-1H-inden-2-yl]phenol

> <PUBCHEM_IUPAC_INCHI>
InChI=1S/C18H18O/c1-3-15-17-7-5-4-6-16(17)12(2)18(15)13-8-10-14(19)11-9-13/h4-12,19H,3H2,1-2H3/t12-/m1/s1

> <PUBCHEM_IUPAC_INCHIKEY>
CFWDRXXJJXLZOZ-GFCCVEGCSA-N

> <PUBCHEM_XLOGP3_AA>
4.2

> <PUBCHEM_EXACT_MASS>
250.135765

> <PUBCHEM_MOLECULAR_FORMULA>
C18H18O

> <PUBCHEM_MOLECULAR_WEIGHT>
250.33492

> <PUBCHEM_OPENEYE_CAN_SMILES>
CCC1=C(C(C2=CC=CC=C21)C)C3=CC=C(C=C3)O

> <PUBCHEM_OPENEYE_ISO_SMILES>
CCC1=C([C@@H](C2=CC=CC=C21)C)C3=CC=C(C=C3)O

> <PUBCHEM_CACTVS_TPSA>
20.2

> <PUBCHEM_MONOISOTOPIC_WEIGHT>
250.135765

> <PUBCHEM_TOTAL_CHARGE>
0

> <PUBCHEM_HEAVY_ATOM_COUNT>
19

> <PUBCHEM_ATOM_DEF_STEREO_COUNT>
1

> <PUBCHEM_ATOM_UDEF_STEREO_COUNT>
0

> <PUBCHEM_BOND_DEF_STEREO_COUNT>
0

> <PUBCHEM_BOND_UDEF_STEREO_COUNT>
0

> <PUBCHEM_ISOTOPIC_ATOM_COUNT>
0

> <PUBCHEM_COMPONENT_COUNT>
1

> <PUBCHEM_CACTVS_TAUTO_COUNT>
5

> <PUBCHEM_COORDINATE_TYPE>
1
5
255

> <PUBCHEM_BONDANNOTATIONS>
10  13  8
11  14  8
13  14  8
15  17  8
16  18  8
17  19  8
18  19  8
2  8  6
4  10  8
4  6  8
6  11  8
9  15  8
9  16  8

$$$$

