5282104
  -OEChem-07051213032D

 26 27  0     0  0  0  0  0  0999 V2000
    6.4103    0.2097    0.0000 O   0  0  0  0  0  0  0  0  0  0  0  0
    6.4103   -1.3997    0.0000 O   0  0  0  0  0  0  0  0  0  0  0  0
    2.8660   -2.5950    0.0000 O   0  0  0  0  0  0  0  0  0  0  0  0
    2.0000    1.9050    0.0000 O   0  0  0  0  0  0  0  0  0  0  0  0
    2.0000   -1.0950    0.0000 O   0  0  0  0  0  0  0  0  0  0  0  0
    5.4641   -0.0950    0.0000 C   0  0  0  0  0  0  0  0  0  0  0  0
    5.4641   -1.0950    0.0000 C   0  0  0  0  0  0  0  0  0  0  0  0
    3.7320   -0.0950    0.0000 C   0  0  0  0  0  0  0  0  0  0  0  0
    3.7320   -1.0950    0.0000 C   0  0  0  0  0  0  0  0  0  0  0  0
    4.5981    0.4050    0.0000 C   0  0  0  0  0  0  0  0  0  0  0  0
    4.5981   -1.5950    0.0000 C   0  0  0  0  0  0  0  0  0  0  0  0
    6.9939   -0.5950    0.0000 C   0  0  0  0  0  0  0  0  0  0  0  0
    2.8660    0.4050    0.0000 C   0  0  0  0  0  0  0  0  0  0  0  0
    2.8660   -1.5950    0.0000 C   0  0  0  0  0  0  0  0  0  0  0  0
    2.8660    1.4050    0.0000 C   0  0  0  0  0  0  0  0  0  0  0  0
    2.0000    2.9050    0.0000 C   0  0  0  0  0  0  0  0  0  0  0  0
    4.5981    1.0250    0.0000 H   0  0  0  0  0  0  0  0  0  0  0  0
    4.5981   -2.2150    0.0000 H   0  0  0  0  0  0  0  0  0  0  0  0
    7.4548   -1.0097    0.0000 H   0  0  0  0  0  0  0  0  0  0  0  0
    7.4548   -0.1803    0.0000 H   0  0  0  0  0  0  0  0  0  0  0  0
    2.3291    0.0950    0.0000 H   0  0  0  0  0  0  0  0  0  0  0  0
    3.4030    1.7150    0.0000 H   0  0  0  0  0  0  0  0  0  0  0  0
    2.3291   -2.9050    0.0000 H   0  0  0  0  0  0  0  0  0  0  0  0
    2.6200    2.9050    0.0000 H   0  0  0  0  0  0  0  0  0  0  0  0
    2.0000    3.5250    0.0000 H   0  0  0  0  0  0  0  0  0  0  0  0
    1.3800    2.9050    0.0000 H   0  0  0  0  0  0  0  0  0  0  0  0
  1  6  1  0  0  0  0
  1 12  1  0  0  0  0
  2  7  1  0  0  0  0
  2 12  1  0  0  0  0
  3 14  1  0  0  0  0
  3 23  1  0  0  0  0
  4 15  1  0  0  0  0
  4 16  1  0  0  0  0
  5 14  2  0  0  0  0
  6  7  2  0  0  0  0
  6 10  1  0  0  0  0
  7 11  1  0  0  0  0
  8  9  1  0  0  0  0
  8 10  2  0  0  0  0
  8 13  1  0  0  0  0
  9 11  2  0  0  0  0
  9 14  1  0  0  0  0
 10 17  1  0  0  0  0
 11 18  1  0  0  0  0
 12 19  1  0  0  0  0
 12 20  1  0  0  0  0
 13 15  2  0  0  0  0
 13 21  1  0  0  0  0
 15 22  1  0  0  0  0
 16 24  1  0  0  0  0
 16 25  1  0  0  0  0
 16 26  1  0  0  0  0
M  END
> <PUBCHEM_COMPOUND_CID>
5282104

> <PUBCHEM_COMPOUND_CANONICALIZED>
1

> <PUBCHEM_CACTVS_COMPLEXITY>
288

> <PUBCHEM_CACTVS_HBOND_ACCEPTOR>
5

> <PUBCHEM_CACTVS_HBOND_DONOR>
1

> <PUBCHEM_CACTVS_ROTATABLE_BOND>
3

> <PUBCHEM_CACTVS_SUBSKEYS>
AAADccBwOAAAAAAAAAAAAAAAAAAAASAAAAAwAAAAAAAAAEgBAAAAGgAACAAADASgmAMyDoAABgCIAiDSCAACCAAkIAAIiAEGiMgdJjKENRqgcSIkwBEOuYfK7LzOoAABAAAQQABAAAIAACCAAAAAAAAAAA==

> <PUBCHEM_IUPAC_OPENEYE_NAME>
6-[(E)-2-methoxyvinyl]-1,3-benzodioxole-5-carboxylic acid

> <PUBCHEM_IUPAC_CAS_NAME>
6-[(E)-2-methoxyethenyl]-1,3-benzodioxole-5-carboxylic acid

> <PUBCHEM_IUPAC_NAME>
6-[(E)-2-methoxyethenyl]-1,3-benzodioxole-5-carboxylic acid

> <PUBCHEM_IUPAC_SYSTEMATIC_NAME>
6-[(E)-2-methoxyethenyl]-1,3-benzodioxole-5-carboxylic acid

> <PUBCHEM_IUPAC_TRADITIONAL_NAME>
6-[(E)-2-methoxyvinyl]-piperonylic acid

> <PUBCHEM_IUPAC_INCHI>
InChI=1S/C11H10O5/c1-14-3-2-7-4-9-10(16-6-15-9)5-8(7)11(12)13/h2-5H,6H2,1H3,(H,12,13)/b3-2+

> <PUBCHEM_IUPAC_INCHIKEY>
VMSMVFCULXKAAA-NSCUHMNNSA-N

> <PUBCHEM_XLOGP3_AA>
1.7

> <PUBCHEM_EXACT_MASS>
222.052823

> <PUBCHEM_MOLECULAR_FORMULA>
C11H10O5

> <PUBCHEM_MOLECULAR_WEIGHT>
222.1941

> <PUBCHEM_OPENEYE_CAN_SMILES>
COC=CC1=CC2=C(C=C1C(=O)O)OCO2

> <PUBCHEM_OPENEYE_ISO_SMILES>
CO/C=C/C1=CC2=C(C=C1C(=O)O)OCO2

> <PUBCHEM_CACTVS_TPSA>
65

> <PUBCHEM_MONOISOTOPIC_WEIGHT>
222.052823

> <PUBCHEM_TOTAL_CHARGE>
0

> <PUBCHEM_HEAVY_ATOM_COUNT>
16

> <PUBCHEM_ATOM_DEF_STEREO_COUNT>
0

> <PUBCHEM_ATOM_UDEF_STEREO_COUNT>
0

> <PUBCHEM_BOND_DEF_STEREO_COUNT>
1

> <PUBCHEM_BOND_UDEF_STEREO_COUNT>
0

> <PUBCHEM_ISOTOPIC_ATOM_COUNT>
0

> <PUBCHEM_COMPONENT_COUNT>
1

> <PUBCHEM_CACTVS_TAUTO_COUNT>
1

> <PUBCHEM_COORDINATE_TYPE>
1
5
255

> <PUBCHEM_BONDANNOTATIONS>
6  10  8
6  7  8
7  11  8
8  10  8
8  9  8
9  11  8

$$$$

