   Color/Form

     * Crystals from water
     * A white powder or crystals from ethyl acetate/benzene
     * Colorless crystals

   from [1]HSDB

   Melting Point
        129 deg C
   from [2]HSDB

   Corrosivity
        Corrosive
   from [3]HSDB

   Solubilities

     * Very soluble in ethanol, soluble in benzene
     * In water, 4X10+5 mg/l @ 25 deg

   from [4]HSDB

   Spectral Properties

     * SADTLER REFERENCE NUMBER: 6092 (IR, PRISM); 514 (IR, GRATING); 1554
       (NMR)
     * MASS: 42456 (NIST/EPA/MSDC Mass Spectral Database, 1990 Version)
     * IR: 514 (Sadtler Research Laboratories IR grating collection)
     * 1H NMR: 6440 (Sadtler Research Laboratories spectral collection)

   from [5]HSDB

   Computed Properties
   Molecular Weight                  150.15304 [g/mol]
   Molecular Formula                 C[4]H[6]O[4]S
   XLogP3-AA                         0.1
   H-Bond Donor                      2
   H-Bond Acceptor                   5
   Rotatable Bond Count              4
   Exact Mass                        149.99868
   MonoIsotopic Mass                 149.99868
   Topological Polar Surface Area    99.9
   Heavy Atom Count                  9
   Formal Charge                     0
   Complexity                        108
   Isotope Atom Count                0
   Defined Atom Stereocenter Count   0
   Undefined Atom Stereocenter Count 0
   Defined Bond Stereocenter Count   0
   Undefined Bond Stereocenter Count 0
   Covalently-Bonded Unit Count      1
   Feature 3D Acceptor Count         4
   Feature 3D Anion Count            2
   Effective Rotor Count             4
   Conformer Sampling RMSD           0.6
   CID Conformer Count               [6]16

References

   1. http://toxnet.nlm.nih.gov/cgi-bin/sis/search/r?dbs+hsdb:@term+@rn+@rel+123-93-3
   2. http://toxnet.nlm.nih.gov/cgi-bin/sis/search/r?dbs+hsdb:@term+@rn+@rel+123-93-3
   3. http://toxnet.nlm.nih.gov/cgi-bin/sis/search/r?dbs+hsdb:@term+@rn+@rel+123-93-3
   4. http://toxnet.nlm.nih.gov/cgi-bin/sis/search/r?dbs+hsdb:@term+@rn+@rel+123-93-3
   5. http://toxnet.nlm.nih.gov/cgi-bin/sis/search/r?dbs+hsdb:@term+@rn+@rel+123-93-3
   6. http://pubchem.ncbi.nlm.nih.gov/vw3d/vw3d.cgi?cid=31277
