159171
  -OEChem-07051213092D

103102  0     1  0  0  0  0  0999 V2000
   20.1865   -0.5950    0.0000 O   0  0  0  0  0  0  0  0  0  0  0  0
   13.2583   -0.5950    0.0000 O   0  0  0  0  0  0  0  0  0  0  0  0
   27.1147   -0.5950    0.0000 O   0  0  0  0  0  0  0  0  0  0  0  0
    6.3301   -0.5950    0.0000 O   0  0  0  0  0  0  0  0  0  0  0  0
   21.9186   -0.5950    0.0000 O   0  0  0  0  0  0  0  0  0  0  0  0
   14.9904   -0.5950    0.0000 O   0  0  0  0  0  0  0  0  0  0  0  0
   29.7128    0.9050    0.0000 O   0  0  0  0  0  0  0  0  0  0  0  0
    8.0622   -0.5950    0.0000 O   0  0  0  0  0  0  0  0  0  0  0  0
   19.3205    0.9050    0.0000 C   0  0  0  0  0  0  0  0  0  0  0  0
   18.4545    0.4050    0.0000 C   0  0  0  0  0  0  0  0  0  0  0  0
   20.1865    0.4050    0.0000 C   0  0  2  0  0  0  0  0  0  0  0  0
   17.5885    0.9050    0.0000 C   0  0  0  0  0  0  0  0  0  0  0  0
   12.3923    0.9050    0.0000 C   0  0  0  0  0  0  0  0  0  0  0  0
   25.3827    0.4050    0.0000 C   0  0  0  0  0  0  0  0  0  0  0  0
   11.5263    0.4050    0.0000 C   0  0  0  0  0  0  0  0  0  0  0  0
   13.2583    0.4050    0.0000 C   0  0  2  0  0  0  0  0  0  0  0  0
   24.5167    0.9050    0.0000 C   0  0  0  0  0  0  0  0  0  0  0  0
   26.2487    0.9050    0.0000 C   0  0  0  0  0  0  0  0  0  0  0  0
   16.7224    0.4050    0.0000 C   0  0  0  0  0  0  0  0  0  0  0  0
   10.6603    0.9050    0.0000 C   0  0  0  0  0  0  0  0  0  0  0  0
   23.6506    0.4050    0.0000 C   0  0  0  0  0  0  0  0  0  0  0  0
   27.1147    0.4050    0.0000 C   0  0  2  0  0  0  0  0  0  0  0  0
   21.0526    0.9050    0.0000 C   0  0  0  0  0  0  0  0  0  0  0  0
   14.1244    0.9050    0.0000 C   0  0  0  0  0  0  0  0  0  0  0  0
    9.7942    0.4050    0.0000 C   0  0  0  0  0  0  0  0  0  0  0  0
   15.8564    0.9050    0.0000 C   0  0  0  0  0  0  0  0  0  0  0  0
   22.7846    0.9050    0.0000 C   0  0  0  0  0  0  0  0  0  0  0  0
   27.9808    0.9050    0.0000 C   0  0  0  0  0  0  0  0  0  0  0  0
    8.9282    0.9050    0.0000 C   0  0  0  0  0  0  0  0  0  0  0  0
   21.9186    0.4050    0.0000 C   0  0  0  0  0  0  0  0  0  0  0  0
   14.9904    0.4050    0.0000 C   0  0  0  0  0  0  0  0  0  0  0  0
    6.3301    0.4050    0.0000 C   0  0  1  0  0  0  0  0  0  0  0  0
    7.1962    0.9050    0.0000 C   0  0  0  0  0  0  0  0  0  0  0  0
    5.4641    0.9050    0.0000 C   0  0  0  0  0  0  0  0  0  0  0  0
    8.0622    0.4050    0.0000 C   0  0  0  0  0  0  0  0  0  0  0  0
   28.8468    0.4050    0.0000 C   0  0  2  0  0  0  0  0  0  0  0  0
    4.5981    0.4050    0.0000 C   0  0  0  0  0  0  0  0  0  0  0  0
    3.7320    0.9050    0.0000 C   0  0  0  0  0  0  0  0  0  0  0  0
    2.8660    0.4050    0.0000 C   0  0  0  0  0  0  0  0  0  0  0  0
   28.8468   -0.5950    0.0000 C   0  0  0  0  0  0  0  0  0  0  0  0
    2.0000    0.9050    0.0000 C   0  0  0  0  0  0  0  0  0  0  0  0
   19.7190    1.3800    0.0000 H   0  0  0  0  0  0  0  0  0  0  0  0
   18.9220    1.3800    0.0000 H   0  0  0  0  0  0  0  0  0  0  0  0
   18.0560   -0.0699    0.0000 H   0  0  0  0  0  0  0  0  0  0  0  0
   18.8530   -0.0699    0.0000 H   0  0  0  0  0  0  0  0  0  0  0  0
   19.6496    0.0950    0.0000 H   0  0  0  0  0  0  0  0  0  0  0  0
   17.9870    1.3800    0.0000 H   0  0  0  0  0  0  0  0  0  0  0  0
   17.1899    1.3800    0.0000 H   0  0  0  0  0  0  0  0  0  0  0  0
   12.7908    1.3800    0.0000 H   0  0  0  0  0  0  0  0  0  0  0  0
   11.9938    1.3800    0.0000 H   0  0  0  0  0  0  0  0  0  0  0  0
   24.9842   -0.0699    0.0000 H   0  0  0  0  0  0  0  0  0  0  0  0
   25.7812   -0.0699    0.0000 H   0  0  0  0  0  0  0  0  0  0  0  0
   11.1278   -0.0699    0.0000 H   0  0  0  0  0  0  0  0  0  0  0  0
   11.9248   -0.0699    0.0000 H   0  0  0  0  0  0  0  0  0  0  0  0
   13.7953    0.0950    0.0000 H   0  0  0  0  0  0  0  0  0  0  0  0
   24.9152    1.3800    0.0000 H   0  0  0  0  0  0  0  0  0  0  0  0
   24.1181    1.3800    0.0000 H   0  0  0  0  0  0  0  0  0  0  0  0
   26.6472    1.3800    0.0000 H   0  0  0  0  0  0  0  0  0  0  0  0
   25.8502    1.3800    0.0000 H   0  0  0  0  0  0  0  0  0  0  0  0
   16.3239   -0.0699    0.0000 H   0  0  0  0  0  0  0  0  0  0  0  0
   17.1210   -0.0699    0.0000 H   0  0  0  0  0  0  0  0  0  0  0  0
   11.0588    1.3800    0.0000 H   0  0  0  0  0  0  0  0  0  0  0  0
   10.2617    1.3800    0.0000 H   0  0  0  0  0  0  0  0  0  0  0  0
   23.2521   -0.0699    0.0000 H   0  0  0  0  0  0  0  0  0  0  0  0
   24.0492   -0.0699    0.0000 H   0  0  0  0  0  0  0  0  0  0  0  0
   26.5778    0.0950    0.0000 H   0  0  0  0  0  0  0  0  0  0  0  0
   21.4511    1.3800    0.0000 H   0  0  0  0  0  0  0  0  0  0  0  0
   20.6540    1.3800    0.0000 H   0  0  0  0  0  0  0  0  0  0  0  0
   14.5229    1.3800    0.0000 H   0  0  0  0  0  0  0  0  0  0  0  0
   13.7258    1.3800    0.0000 H   0  0  0  0  0  0  0  0  0  0  0  0
    9.3957   -0.0699    0.0000 H   0  0  0  0  0  0  0  0  0  0  0  0
   10.1928   -0.0699    0.0000 H   0  0  0  0  0  0  0  0  0  0  0  0
   16.2549    1.3800    0.0000 H   0  0  0  0  0  0  0  0  0  0  0  0
   15.4579    1.3800    0.0000 H   0  0  0  0  0  0  0  0  0  0  0  0
   23.1831    1.3800    0.0000 H   0  0  0  0  0  0  0  0  0  0  0  0
   22.3861    1.3800    0.0000 H   0  0  0  0  0  0  0  0  0  0  0  0
   28.3793    1.3800    0.0000 H   0  0  0  0  0  0  0  0  0  0  0  0
   27.5822    1.3800    0.0000 H   0  0  0  0  0  0  0  0  0  0  0  0
    9.3267    1.3800    0.0000 H   0  0  0  0  0  0  0  0  0  0  0  0
    8.5297    1.3800    0.0000 H   0  0  0  0  0  0  0  0  0  0  0  0
    6.8671    0.0950    0.0000 H   0  0  0  0  0  0  0  0  0  0  0  0
    7.5947    1.3800    0.0000 H   0  0  0  0  0  0  0  0  0  0  0  0
    6.7976    1.3800    0.0000 H   0  0  0  0  0  0  0  0  0  0  0  0
    5.8626    1.3800    0.0000 H   0  0  0  0  0  0  0  0  0  0  0  0
    5.0656    1.3800    0.0000 H   0  0  0  0  0  0  0  0  0  0  0  0
   29.3837    0.0950    0.0000 H   0  0  0  0  0  0  0  0  0  0  0  0
    4.1996   -0.0699    0.0000 H   0  0  0  0  0  0  0  0  0  0  0  0
    4.9966   -0.0699    0.0000 H   0  0  0  0  0  0  0  0  0  0  0  0
    4.1306    1.3800    0.0000 H   0  0  0  0  0  0  0  0  0  0  0  0
    3.3335    1.3800    0.0000 H   0  0  0  0  0  0  0  0  0  0  0  0
   19.6496   -0.9050    0.0000 H   0  0  0  0  0  0  0  0  0  0  0  0
   12.7214   -0.9050    0.0000 H   0  0  0  0  0  0  0  0  0  0  0  0
   27.6517   -0.9050    0.0000 H   0  0  0  0  0  0  0  0  0  0  0  0
    2.4675   -0.0699    0.0000 H   0  0  0  0  0  0  0  0  0  0  0  0
    3.2646   -0.0699    0.0000 H   0  0  0  0  0  0  0  0  0  0  0  0
   28.2268   -0.5950    0.0000 H   0  0  0  0  0  0  0  0  0  0  0  0
   28.8468   -1.2150    0.0000 H   0  0  0  0  0  0  0  0  0  0  0  0
   29.4668   -0.5950    0.0000 H   0  0  0  0  0  0  0  0  0  0  0  0
    5.7932   -0.9050    0.0000 H   0  0  0  0  0  0  0  0  0  0  0  0
   30.2497    0.5950    0.0000 H   0  0  0  0  0  0  0  0  0  0  0  0
    2.3100    1.4419    0.0000 H   0  0  0  0  0  0  0  0  0  0  0  0
    1.4631    1.2150    0.0000 H   0  0  0  0  0  0  0  0  0  0  0  0
    1.6900    0.3681    0.0000 H   0  0  0  0  0  0  0  0  0  0  0  0
 11  1  1  6  0  0  0
  1 91  1  0  0  0  0
 16  2  1  6  0  0  0
  2 92  1  0  0  0  0
 22  3  1  6  0  0  0
  3 93  1  0  0  0  0
 32  4  1  6  0  0  0
  4 99  1  0  0  0  0
  5 30  2  0  0  0  0
  6 31  2  0  0  0  0
 36  7  1  1  0  0  0
  7100  1  0  0  0  0
  8 35  2  0  0  0  0
  9 10  1  0  0  0  0
  9 11  1  0  0  0  0
  9 42  1  0  0  0  0
  9 43  1  0  0  0  0
 10 12  1  0  0  0  0
 10 44  1  0  0  0  0
 10 45  1  0  0  0  0
 11 23  1  0  0  0  0
 11 46  1  0  0  0  0
 12 19  1  0  0  0  0
 12 47  1  0  0  0  0
 12 48  1  0  0  0  0
 13 15  1  0  0  0  0
 13 16  1  0  0  0  0
 13 49  1  0  0  0  0
 13 50  1  0  0  0  0
 14 17  1  0  0  0  0
 14 18  1  0  0  0  0
 14 51  1  0  0  0  0
 14 52  1  0  0  0  0
 15 20  1  0  0  0  0
 15 53  1  0  0  0  0
 15 54  1  0  0  0  0
 16 24  1  0  0  0  0
 16 55  1  0  0  0  0
 17 21  1  0  0  0  0
 17 56  1  0  0  0  0
 17 57  1  0  0  0  0
 18 22  1  0  0  0  0
 18 58  1  0  0  0  0
 18 59  1  0  0  0  0
 19 26  1  0  0  0  0
 19 60  1  0  0  0  0
 19 61  1  0  0  0  0
 20 25  1  0  0  0  0
 20 62  1  0  0  0  0
 20 63  1  0  0  0  0
 21 27  1  0  0  0  0
 21 64  1  0  0  0  0
 21 65  1  0  0  0  0
 22 28  1  0  0  0  0
 22 66  1  0  0  0  0
 23 30  1  0  0  0  0
 23 67  1  0  0  0  0
 23 68  1  0  0  0  0
 24 31  1  0  0  0  0
 24 69  1  0  0  0  0
 24 70  1  0  0  0  0
 25 29  1  0  0  0  0
 25 71  1  0  0  0  0
 25 72  1  0  0  0  0
 26 31  1  0  0  0  0
 26 73  1  0  0  0  0
 26 74  1  0  0  0  0
 27 30  1  0  0  0  0
 27 75  1  0  0  0  0
 27 76  1  0  0  0  0
 28 36  1  0  0  0  0
 28 77  1  0  0  0  0
 28 78  1  0  0  0  0
 29 35  1  0  0  0  0
 29 79  1  0  0  0  0
 29 80  1  0  0  0  0
 32 33  1  0  0  0  0
 32 34  1  0  0  0  0
 32 81  1  0  0  0  0
 33 35  1  0  0  0  0
 33 82  1  0  0  0  0
 33 83  1  0  0  0  0
 34 37  1  0  0  0  0
 34 84  1  0  0  0  0
 34 85  1  0  0  0  0
 36 40  1  0  0  0  0
 36 86  1  0  0  0  0
 37 38  1  0  0  0  0
 37 87  1  0  0  0  0
 37 88  1  0  0  0  0
 38 39  1  0  0  0  0
 38 89  1  0  0  0  0
 38 90  1  0  0  0  0
 39 41  1  0  0  0  0
 39 94  1  0  0  0  0
 39 95  1  0  0  0  0
 40 96  1  0  0  0  0
 40 97  1  0  0  0  0
 40 98  1  0  0  0  0
 41101  1  0  0  0  0
 41102  1  0  0  0  0
 41103  1  0  0  0  0
M  END
> <PUBCHEM_COMPOUND_CID>
159171

> <PUBCHEM_COMPOUND_CANONICALIZED>
1

> <PUBCHEM_CACTVS_COMPLEXITY>
668

> <PUBCHEM_CACTVS_HBOND_ACCEPTOR>
8

> <PUBCHEM_CACTVS_HBOND_DONOR>
5

> <PUBCHEM_CACTVS_ROTATABLE_BOND>
30

> <PUBCHEM_CACTVS_SUBSKEYS>
AAADcfB8PAAAAAAAAAAAAAAAAAAAAAAAAAAAAAAAAAAAAAAAAAAAGgAACAAACBSggAICAAAAAgAIAIAQAAAAAAAAAAAAAAEAAAAAEBYAAAAAQAAFIAAAAAGIyKCAAAAAAAAAAAAAAAAAAAAAAAAAAAAAAA==

> <PUBCHEM_IUPAC_OPENEYE_NAME>
(6R,14R,22R,30R,32S)-6,14,22,30,32-pentahydroxytritriacontane-8,16,24-trione

> <PUBCHEM_IUPAC_CAS_NAME>
(6R,14R,22R,30R,32S)-6,14,22,30,32-pentahydroxytritriacontane-8,16,24-trione

> <PUBCHEM_IUPAC_NAME>
(6R,14R,22R,30R,32S)-6,14,22,30,32-pentahydroxytritriacontane-8,16,24-trione

> <PUBCHEM_IUPAC_SYSTEMATIC_NAME>
(6R,14R,22R,30R,32S)-6,14,22,30,32-pentakis(oxidanyl)tritriacontane-8,16,24-trione

> <PUBCHEM_IUPAC_TRADITIONAL_NAME>
(6R,14R,22R,30R,32S)-6,14,22,30,32-pentahydroxytritriacontane-8,16,24-trione

> <PUBCHEM_IUPAC_INCHI>
InChI=1S/C33H62O8/c1-3-4-8-15-28(36)23-29(37)18-11-6-12-19-32(40)25-33(41)21-14-7-13-20-31(39)24-30(38)17-10-5-9-16-27(35)22-26(2)34/h26-28,31-32,34-36,39-40H,3-25H2,1-2H3/t26-,27+,28+,31+,32+/m0/s1

> <PUBCHEM_IUPAC_INCHIKEY>
ISDLLJGHFWSQQK-ZHTCHCOESA-N

> <PUBCHEM_XLOGP3_AA>
3.8

> <PUBCHEM_EXACT_MASS>
586.444469

> <PUBCHEM_MOLECULAR_FORMULA>
C33H62O8

> <PUBCHEM_MOLECULAR_WEIGHT>
586.84058

> <PUBCHEM_OPENEYE_CAN_SMILES>
CCCCCC(CC(=O)CCCCCC(CC(=O)CCCCCC(CC(=O)CCCCCC(CC(C)O)O)O)O)O

> <PUBCHEM_OPENEYE_ISO_SMILES>
CCCCC[C@H](CC(=O)CCCCC[C@H](CC(=O)CCCCC[C@H](CC(=O)CCCCC[C@H](C[C@H](C)O)O)O)O)O

> <PUBCHEM_CACTVS_TPSA>
152

> <PUBCHEM_MONOISOTOPIC_WEIGHT>
586.444469

> <PUBCHEM_TOTAL_CHARGE>
0

> <PUBCHEM_HEAVY_ATOM_COUNT>
41

> <PUBCHEM_ATOM_DEF_STEREO_COUNT>
5

> <PUBCHEM_ATOM_UDEF_STEREO_COUNT>
0

> <PUBCHEM_BOND_DEF_STEREO_COUNT>
0

> <PUBCHEM_BOND_UDEF_STEREO_COUNT>
0

> <PUBCHEM_ISOTOPIC_ATOM_COUNT>
0

> <PUBCHEM_COMPONENT_COUNT>
1

> <PUBCHEM_CACTVS_TAUTO_COUNT>
27

> <PUBCHEM_COORDINATE_TYPE>
1
5
255

> <PUBCHEM_BONDANNOTATIONS>
11  1  6
16  2  6
22  3  6
32  4  6
36  7  5

$$$$

