442980
  -OEChem-07051213002D

 58 62  0     1  0  0  0  0  0999 V2000
    9.0503    2.6557    0.0000 O   0  0  0  0  0  0  0  0  0  0  0  0
    7.2093    2.3131    0.0000 O   0  0  0  0  0  0  0  0  0  0  0  0
    2.8641   -2.0357    0.0000 N   0  0  0  0  0  0  0  0  0  0  0  0
    8.2572    1.0166    0.0000 C   0  0  1  0  0  0  0  0  0  0  0  0
    8.2572    0.0166    0.0000 C   0  0  2  0  0  0  0  0  0  0  0  0
    7.3912   -0.4834    0.0000 C   0  0  1  0  0  0  0  0  0  0  0  0
    6.5251    0.0166    0.0000 C   0  0  1  0  0  0  0  0  0  0  0  0
    9.2034    1.3214    0.0000 C   0  0  2  0  0  0  0  0  0  0  0  0
    7.3912    1.5166    0.0000 C   0  0  0  0  0  0  0  0  0  0  0  0
    5.6151   -0.4902    0.0000 C   0  0  2  0  0  0  0  0  0  0  0  0
    9.2034   -0.2881    0.0000 C   0  0  0  0  0  0  0  0  0  0  0  0
    6.5251    1.0166    0.0000 C   0  0  0  0  0  0  0  0  0  0  0  0
    9.7870    0.5166    0.0000 C   0  0  0  0  0  0  0  0  0  0  0  0
    7.4072   -1.5249    0.0000 C   0  0  0  0  0  0  0  0  0  0  0  0
    9.6975    2.1772    0.0000 C   0  0  2  0  0  0  0  0  0  0  0  0
    8.1590    1.9999    0.0000 C   0  0  0  0  0  0  0  0  0  0  0  0
    5.6071   -1.5318    0.0000 C   0  0  0  0  0  0  0  0  0  0  0  0
    4.6883    0.0739    0.0000 C   0  0  0  0  0  0  0  0  0  0  0  0
    6.5092   -2.0526    0.0000 C   0  0  0  0  0  0  0  0  0  0  0  0
    5.6228    0.5097    0.0000 C   0  0  0  0  0  0  0  0  0  0  0  0
    4.6717   -2.0816    0.0000 C   0  0  0  0  0  0  0  0  0  0  0  0
    3.7404   -0.4541    0.0000 C   0  0  0  0  0  0  0  0  0  0  0  0
    3.7320   -1.5390    0.0000 C   0  0  2  0  0  0  0  0  0  0  0  0
   10.6488    2.4854    0.0000 C   0  0  0  0  0  0  0  0  0  0  0  0
    2.0000   -1.5324    0.0000 C   0  0  0  0  0  0  0  0  0  0  0  0
    8.3471   -0.8286    0.0000 H   0  0  0  0  0  0  0  0  0  0  0  0
    8.1305   -0.9027    0.0000 H   0  0  0  0  0  0  0  0  0  0  0  0
    7.2612    0.4416    0.0000 H   0  0  0  0  0  0  0  0  0  0  0  0
   10.0522    1.3655    0.0000 H   0  0  0  0  0  0  0  0  0  0  0  0
    7.7897    1.9916    0.0000 H   0  0  0  0  0  0  0  0  0  0  0  0
    6.9926    1.9916    0.0000 H   0  0  0  0  0  0  0  0  0  0  0  0
    8.9524   -0.8550    0.0000 H   0  0  0  0  0  0  0  0  0  0  0  0
    9.7408   -0.5973    0.0000 H   0  0  0  0  0  0  0  0  0  0  0  0
    6.3131    1.5992    0.0000 H   0  0  0  0  0  0  0  0  0  0  0  0
    5.9145    0.9090    0.0000 H   0  0  0  0  0  0  0  0  0  0  0  0
   10.2479    0.1019    0.0000 H   0  0  0  0  0  0  0  0  0  0  0  0
   10.2479    0.9314    0.0000 H   0  0  0  0  0  0  0  0  0  0  0  0
    7.6252   -2.1053    0.0000 H   0  0  0  0  0  0  0  0  0  0  0  0
    8.0164   -1.4094    0.0000 H   0  0  0  0  0  0  0  0  0  0  0  0
    9.7973    2.7891    0.0000 H   0  0  0  0  0  0  0  0  0  0  0  0
    5.0965    0.5405    0.0000 H   0  0  0  0  0  0  0  0  0  0  0  0
    4.2984    0.5559    0.0000 H   0  0  0  0  0  0  0  0  0  0  0  0
    6.5116   -2.6726    0.0000 H   0  0  0  0  0  0  0  0  0  0  0  0
    6.2428    0.5050    0.0000 H   0  0  0  0  0  0  0  0  0  0  0  0
    5.6276    1.1297    0.0000 H   0  0  0  0  0  0  0  0  0  0  0  0
    5.0028    0.5145    0.0000 H   0  0  0  0  0  0  0  0  0  0  0  0
    4.2744   -2.5575    0.0000 H   0  0  0  0  0  0  0  0  0  0  0  0
    5.0726   -2.5544    0.0000 H   0  0  0  0  0  0  0  0  0  0  0  0
    3.5358    0.1312    0.0000 H   0  0  0  0  0  0  0  0  0  0  0  0
    3.1288   -0.5555    0.0000 H   0  0  0  0  0  0  0  0  0  0  0  0
    3.7308   -2.1590    0.0000 H   0  0  0  0  0  0  0  0  0  0  0  0
   10.8399    1.8955    0.0000 H   0  0  0  0  0  0  0  0  0  0  0  0
   11.2386    2.6764    0.0000 H   0  0  0  0  0  0  0  0  0  0  0  0
   10.4577    3.0752    0.0000 H   0  0  0  0  0  0  0  0  0  0  0  0
    2.8617   -2.6557    0.0000 H   0  0  0  0  0  0  0  0  0  0  0  0
    2.3121   -0.9966    0.0000 H   0  0  0  0  0  0  0  0  0  0  0  0
    1.4643   -1.2203    0.0000 H   0  0  0  0  0  0  0  0  0  0  0  0
    1.6879   -2.0681    0.0000 H   0  0  0  0  0  0  0  0  0  0  0  0
  1 15  1  0  0  0  0
  1 16  1  0  0  0  0
  2 16  2  0  0  0  0
 23  3  1  1  0  0  0
  3 25  1  0  0  0  0
  3 55  1  0  0  0  0
  4  5  1  0  0  0  0
  4  8  1  0  0  0  0
  4  9  1  6  0  0  0
  4 16  1  0  0  0  0
  5  6  1  0  0  0  0
  5 11  1  0  0  0  0
  5 26  1  6  0  0  0
  6  7  1  0  0  0  0
  6 14  1  0  0  0  0
  6 27  1  1  0  0  0
  7 10  1  0  0  0  0
  7 12  1  0  0  0  0
  7 28  1  6  0  0  0
  8 13  1  0  0  0  0
  8 15  1  0  0  0  0
  8 29  1  6  0  0  0
  9 12  1  0  0  0  0
  9 30  1  0  0  0  0
  9 31  1  0  0  0  0
 10 17  1  0  0  0  0
 10 18  1  0  0  0  0
 10 20  1  1  0  0  0
 11 13  1  0  0  0  0
 11 32  1  0  0  0  0
 11 33  1  0  0  0  0
 12 34  1  0  0  0  0
 12 35  1  0  0  0  0
 13 36  1  0  0  0  0
 13 37  1  0  0  0  0
 14 19  1  0  0  0  0
 14 38  1  0  0  0  0
 14 39  1  0  0  0  0
 15 24  1  1  0  0  0
 15 40  1  0  0  0  0
 17 19  2  0  0  0  0
 17 21  1  0  0  0  0
 18 22  1  0  0  0  0
 18 41  1  0  0  0  0
 18 42  1  0  0  0  0
 19 43  1  0  0  0  0
 20 44  1  0  0  0  0
 20 45  1  0  0  0  0
 20 46  1  0  0  0  0
 21 23  1  0  0  0  0
 21 47  1  0  0  0  0
 21 48  1  0  0  0  0
 22 23  1  0  0  0  0
 22 49  1  0  0  0  0
 22 50  1  0  0  0  0
 23 51  1  0  0  0  0
 24 52  1  0  0  0  0
 24 53  1  0  0  0  0
 24 54  1  0  0  0  0
 25 56  1  0  0  0  0
 25 57  1  0  0  0  0
 25 58  1  0  0  0  0
M  END
> <PUBCHEM_COMPOUND_CID>
442980

> <PUBCHEM_COMPOUND_CANONICALIZED>
1

> <PUBCHEM_CACTVS_COMPLEXITY>
628

> <PUBCHEM_CACTVS_HBOND_ACCEPTOR>
3

> <PUBCHEM_CACTVS_HBOND_DONOR>
1

> <PUBCHEM_CACTVS_ROTATABLE_BOND>
1

> <PUBCHEM_CACTVS_SUBSKEYS>
AAADcfB6MAAAAAAAAAAAAAAAAAAAAaIAAAAwYIAAAAASAGCAAAAAHgAQAAAADzzhgAYCCALABACIAiDSCAAAAAAgAAAACIEIAAgAABIAgQAGAAAEkAAIAAOayPCPgAAAAAAAAACQAAQAACAAAQAACAAAAA==

> <PUBCHEM_IUPAC_INCHI>
InChI=1S/C22H33NO2/c1-13-17-6-7-19-16-5-4-14-12-15(23-3)8-10-21(14,2)18(16)9-11-22(17,19)20(24)25-13/h4,13,15-19,23H,5-12H2,1-3H3/t13-,15-,16+,17+,18-,19-,21-,22-/m0/s1

> <PUBCHEM_IUPAC_INCHIKEY>
RSFPISDAJMWREU-CDFICMNGSA-N

> <PUBCHEM_XLOGP3_AA>
3.9

> <PUBCHEM_EXACT_MASS>
343.251129

> <PUBCHEM_MOLECULAR_FORMULA>
C22H33NO2

> <PUBCHEM_MOLECULAR_WEIGHT>
343.50292

> <PUBCHEM_OPENEYE_CAN_SMILES>
CC1C2CCC3C2(CCC4C3CC=C5C4(CCC(C5)NC)C)C(=O)O1

> <PUBCHEM_OPENEYE_ISO_SMILES>
C[C@H]1[C@H]2CC[C@@H]3[C@@]2(CC[C@H]4[C@H]3CC=C5[C@@]4(CC[C@@H](C5)NC)C)C(=O)O1

> <PUBCHEM_CACTVS_TPSA>
38.3

> <PUBCHEM_MONOISOTOPIC_WEIGHT>
343.251129

> <PUBCHEM_TOTAL_CHARGE>
0

> <PUBCHEM_HEAVY_ATOM_COUNT>
25

> <PUBCHEM_ATOM_DEF_STEREO_COUNT>
8

> <PUBCHEM_ATOM_UDEF_STEREO_COUNT>
0

> <PUBCHEM_BOND_DEF_STEREO_COUNT>
0

> <PUBCHEM_BOND_UDEF_STEREO_COUNT>
0

> <PUBCHEM_ISOTOPIC_ATOM_COUNT>
0

> <PUBCHEM_COMPONENT_COUNT>
1

> <PUBCHEM_CACTVS_TAUTO_COUNT>
1

> <PUBCHEM_COORDINATE_TYPE>
1
5
255

> <PUBCHEM_BONDANNOTATIONS>
10  20  5
15  24  5
23  3  5
4  9  6
5  26  6
6  27  5
7  28  6
8  29  6

$$$$

