   Color/Form
        White granular crystalline powder consisting of monoclinic prisms
   from [1]HSDB

   Melting Point
        214.5 deg C
   from [2]HSDB

   Density/Specific Gravity
        1.46 g/cu cm @ 25 deg C
   from [3]HSDB

   Dissociation Constants

     * pKa = 4.54
     * K1=3.3X10-5; K2=4.8X10-10 at 19 deg C

   from [4]HSDB

   Octanol/Water Partition Coefficient
        log Kow=1.58
   from [5]HSDB

   Solubilities

     * Solubility (in 100 g of solution): 99% ethanol 38.75 g (67 deg C);
       n-butanol 19.5 g (32.5 deg C)
     * Soluble in about 125 parts water, freely in alcohol, slightly in
       chloroform; soluble in ether, acetone. Practically insoluble in
       carbon disulfide.
     * In water, 5000 mg/L at 25 deg C

   from [6]HSDB

   Spectral Properties

     * MASS: 65111 (NIST/EPA/MSDC Mass Spectral Database, 1990 Version)
     * IR: 2237 (Coblentz Society spectral collection)
     * UV: 3277 (Sadtler Research Laboratories spectral collection
     * 1H NMR: 3160 (Sadtler Research Laboratories spectral collection)

   from [7]HSDB

   Vapor Pressure
        1.9X10-7 mm Hg at 25 deg C /Extrapolated/
   from [8]HSDB

   Other Chemical/Physical Properties

     * Henry's Law constant= 7.2X10-12 atm-cu m/mole at 25 deg C
       /Estimated/
     * Hydroxyl radical reaction rate constant= 1.3X10-11 cu
       cm/molecule-sec at 25 deg C /Estimated/

   from [9]HSDB

   Computed Properties
   Molecular Weight                  138.12074 [g/mol]
   Molecular Formula                 C[7]H[6]O[3]
   XLogP3                            1.6
   H-Bond Donor                      2
   H-Bond Acceptor                   3
   Rotatable Bond Count              1
   Tautomer Count                    4
   Exact Mass                        138.031694
   MonoIsotopic Mass                 138.031694
   Topological Polar Surface Area    57.5
   Heavy Atom Count                  10
   Formal Charge                     0
   Complexity                        125
   Isotope Atom Count                0
   Defined Atom Stereocenter Count   0
   Undefined Atom Stereocenter Count 0
   Defined Bond Stereocenter Count   0
   Undefined Bond Stereocenter Count 0
   Covalently-Bonded Unit Count      1
   Feature 3D Acceptor Count         2
   Feature 3D Donor Count            1
   Feature 3D Anion Count            1
   Feature 3D Ring Count             1
   Effective Rotor Count             1
   Conformer Sampling RMSD           0.4
   CID Conformer Count               [10]2

References

   1. http://toxnet.nlm.nih.gov/cgi-bin/sis/search/r?dbs+hsdb:@term+@rn+@rel+99-96-7
   2. http://toxnet.nlm.nih.gov/cgi-bin/sis/search/r?dbs+hsdb:@term+@rn+@rel+99-96-7
   3. http://toxnet.nlm.nih.gov/cgi-bin/sis/search/r?dbs+hsdb:@term+@rn+@rel+99-96-7
   4. http://toxnet.nlm.nih.gov/cgi-bin/sis/search/r?dbs+hsdb:@term+@rn+@rel+99-96-7
   5. http://toxnet.nlm.nih.gov/cgi-bin/sis/search/r?dbs+hsdb:@term+@rn+@rel+99-96-7
   6. http://toxnet.nlm.nih.gov/cgi-bin/sis/search/r?dbs+hsdb:@term+@rn+@rel+99-96-7
   7. http://toxnet.nlm.nih.gov/cgi-bin/sis/search/r?dbs+hsdb:@term+@rn+@rel+99-96-7
   8. http://toxnet.nlm.nih.gov/cgi-bin/sis/search/r?dbs+hsdb:@term+@rn+@rel+99-96-7
   9. http://toxnet.nlm.nih.gov/cgi-bin/sis/search/r?dbs+hsdb:@term+@rn+@rel+99-96-7
  10. http://pubchem.ncbi.nlm.nih.gov/vw3d/vw3d.cgi?cid=135
