23724684
  -OEChem-07051213082D

 16 15  0     0  0  0  0  0  0999 V2000
    5.1350   -1.2500    0.0000 Cl  0  0  0  0  0  0  0  0  0  0  0  0
    4.2690    1.2500    0.0000 O   0  0  0  0  0  0  0  0  0  0  0  0
    2.5369    0.2500    0.0000 O   0  0  0  0  0  0  0  0  0  0  0  0
    8.5991   -0.2500    0.0000 O   0  0  0  0  0  0  0  0  0  0  0  0
    3.4030   -1.2500    0.0000 O   0  0  0  0  0  0  0  0  0  0  0  0
    5.1350   -0.2500    0.0000 C   0  0  0  0  0  0  0  0  0  0  0  0
    6.0010    0.2500    0.0000 C   0  0  0  0  0  0  0  0  0  0  0  0
    4.2690    0.2500    0.0000 C   0  0  0  0  0  0  0  0  0  0  0  0
    6.8671   -0.2500    0.0000 C   0  0  0  0  0  0  0  0  0  0  0  0
    3.4030   -0.2500    0.0000 C   0  0  0  0  0  0  0  0  0  0  0  0
    7.7331    0.2500    0.0000 C   0  0  0  0  0  0  0  0  0  0  0  0
    6.0010    0.8700    0.0000 H   0  0  0  0  0  0  0  0  0  0  0  0
    6.8671   -0.8700    0.0000 H   0  0  0  0  0  0  0  0  0  0  0  0
    7.7331    0.8700    0.0000 H   0  0  0  0  0  0  0  0  0  0  0  0
    2.0000   -0.0600    0.0000 H   0  0  0  0  0  0  0  0  0  0  0  0
    9.1360    0.0600    0.0000 H   0  0  0  0  0  0  0  0  0  0  0  0
  1  6  1  0  0  0  0
  2  8  2  0  0  0  0
  3 10  1  0  0  0  0
  3 15  1  0  0  0  0
  4 11  1  0  0  0  0
  4 16  1  0  0  0  0
  5 10  2  0  0  0  0
  6  7  2  0  0  0  0
  6  8  1  0  0  0  0
  7  9  1  0  0  0  0
  7 12  1  0  0  0  0
  8 10  1  0  0  0  0
  9 11  2  0  0  0  0
  9 13  1  0  0  0  0
 11 14  1  0  0  0  0
M  END
> <PUBCHEM_COMPOUND_CID>
23724684

> <PUBCHEM_COMPOUND_CANONICALIZED>
1

> <PUBCHEM_CACTVS_COMPLEXITY>
229

> <PUBCHEM_CACTVS_HBOND_ACCEPTOR>
4

> <PUBCHEM_CACTVS_HBOND_DONOR>
2

> <PUBCHEM_CACTVS_ROTATABLE_BOND>
3

> <PUBCHEM_CACTVS_SUBSKEYS>
AAADcYBgOAAEAAAAAAAAAAAAAAAAAAAAAAAAAAAAAAAAAAAAAAAAGgIACAAACAaggAIACAAAAgCIAKDSCAIAAAAgIAAICAFAAkhIEAAAAQAAQAAAQAAIgYIAAAAAAAAAAAAAAAAAAAAAAAAAAAAAAAAAAA==

> <PUBCHEM_IUPAC_OPENEYE_NAME>
(3Z,5E)-3-chloro-6-hydroxy-2-oxo-hexa-3,5-dienoic acid

> <PUBCHEM_IUPAC_CAS_NAME>
(3Z,5E)-3-chloro-6-hydroxy-2-oxohexa-3,5-dienoic acid

> <PUBCHEM_IUPAC_NAME>
(3Z,5E)-3-chloro-6-hydroxy-2-oxohexa-3,5-dienoic acid

> <PUBCHEM_IUPAC_SYSTEMATIC_NAME>
(3Z,5E)-3-chloranyl-6-oxidanyl-2-oxidanylidene-hexa-3,5-dienoic acid

> <PUBCHEM_IUPAC_TRADITIONAL_NAME>
(3Z,5E)-3-chloro-6-hydroxy-2-keto-hexa-3,5-dienoic acid

> <PUBCHEM_IUPAC_INCHI>
InChI=1S/C6H5ClO4/c7-4(2-1-3-8)5(9)6(10)11/h1-3,8H,(H,10,11)/b3-1+,4-2-

> <PUBCHEM_IUPAC_INCHIKEY>
ARNPHMFDLAFXDI-TZFCGSKZSA-N

> <PUBCHEM_XLOGP3_AA>
1

> <PUBCHEM_EXACT_MASS>
175.987636

> <PUBCHEM_MOLECULAR_FORMULA>
C6H5ClO4

> <PUBCHEM_MOLECULAR_WEIGHT>
176.5545

> <PUBCHEM_OPENEYE_CAN_SMILES>
C(=CO)C=C(C(=O)C(=O)O)Cl

> <PUBCHEM_OPENEYE_ISO_SMILES>
C(=C/O)\C=C(\C(=O)C(=O)O)/Cl

> <PUBCHEM_CACTVS_TPSA>
74.6

> <PUBCHEM_MONOISOTOPIC_WEIGHT>
175.987636

> <PUBCHEM_TOTAL_CHARGE>
0

> <PUBCHEM_HEAVY_ATOM_COUNT>
11

> <PUBCHEM_ATOM_DEF_STEREO_COUNT>
0

> <PUBCHEM_ATOM_UDEF_STEREO_COUNT>
0

> <PUBCHEM_BOND_DEF_STEREO_COUNT>
2

> <PUBCHEM_BOND_UDEF_STEREO_COUNT>
0

> <PUBCHEM_ISOTOPIC_ATOM_COUNT>
0

> <PUBCHEM_COMPONENT_COUNT>
1

> <PUBCHEM_CACTVS_TAUTO_COUNT>
4

> <PUBCHEM_COORDINATE_TYPE>
1
5
255

$$$$

