   Color/Form

     * PALE YELLOW CRYSTALS (LONG BLADES) FROM GLACIAL ACETIC ACID OR
       WATER
     * LIGHT YELLOW PRISMS FROM ALCOHOL

   from [1]HSDB

   Melting Point
        168.5 DEG C (CAPILLARY); 170.5-171 DEG C (HOT STAGE)
   from [2]HSDB

   Density/Specific Gravity
        0.868
   from [3]HSDB

   Dissociation Constants
        K AT 25 DEG C: 3X10-6
   from [4]HSDB

   Solubilities

     * FREELY SOL IN BOILING WATER, IN METHANOL, ETHANOL,
       DIMETHYLFORMAMIDE, ETHER, ALKALIES, AMMONIA, HOT ACETIC ACID
     * SLIGHTLY SOL IN WATER; INSOL IN PETROLEUM ETHER

   from [5]HSDB

   Spectral Properties

     * MAX ABSORPTION (ALCOHOL): 250.5 NM (LOG E= 4.12); 294 NM (LOG E=
       4.24); SADTLER REF NUMBER: 255 (IR, PRISM); 88 (IR, GRATING); 10901
       (IR, PRISM); 88 (IR, GRATING)
     * IR: 2366 (Coblentz Society Spectral Collection)
     * UV: 2964 (Sadtler Research Laboratories Spectral Collection)
     * NMR: 10214 (Sadtler Research Laboratories Spectral Collection)
     * MASS: 4079 (National Bureau of Standards EPA-NIH Mass Spectra Data
       Base, NSRDS-NBS-63)

   from [6]HSDB

   Other Chemical/Physical Properties
        BULK DENSITY 0.617
   from [7]HSDB

   Computed Properties
   Molecular Weight                  133.19202 [g/mol]
   Molecular Formula                 C[3]H[3]NOS[2]
   XLogP3-AA                         0.7
   H-Bond Donor                      1
   H-Bond Acceptor                   3
   Rotatable Bond Count              0
   Tautomer Count                    5
   Exact Mass                        132.965606
   MonoIsotopic Mass                 132.965606
   Topological Polar Surface Area    86.5
   Heavy Atom Count                  7
   Formal Charge                     0
   Complexity                        122
   Isotope Atom Count                0
   Defined Atom Stereocenter Count   0
   Undefined Atom Stereocenter Count 0
   Defined Bond Stereocenter Count   0
   Undefined Bond Stereocenter Count 0
   Covalently-Bonded Unit Count      1
   Feature 3D Acceptor Count         2
   Feature 3D Donor Count            1
   Feature 3D Ring Count             1
   Effective Rotor Count             0.6
   Conformer Sampling RMSD           0.4
   CID Conformer Count               [8]1

References

   1. http://toxnet.nlm.nih.gov/cgi-bin/sis/search/r?dbs+hsdb:@term+@rn+@rel+141-84-4
   2. http://toxnet.nlm.nih.gov/cgi-bin/sis/search/r?dbs+hsdb:@term+@rn+@rel+141-84-4
   3. http://toxnet.nlm.nih.gov/cgi-bin/sis/search/r?dbs+hsdb:@term+@rn+@rel+141-84-4
   4. http://toxnet.nlm.nih.gov/cgi-bin/sis/search/r?dbs+hsdb:@term+@rn+@rel+141-84-4
   5. http://toxnet.nlm.nih.gov/cgi-bin/sis/search/r?dbs+hsdb:@term+@rn+@rel+141-84-4
   6. http://toxnet.nlm.nih.gov/cgi-bin/sis/search/r?dbs+hsdb:@term+@rn+@rel+141-84-4
   7. http://toxnet.nlm.nih.gov/cgi-bin/sis/search/r?dbs+hsdb:@term+@rn+@rel+141-84-4
   8. http://pubchem.ncbi.nlm.nih.gov/vw3d/vw3d.cgi?cid=1201546
