86422
  -OEChem-07051213122D

 39 41  0     0  0  0  0  0  0999 V2000
   10.9939    0.0490    0.0000 Cl  0  0  0  0  0  0  0  0  0  0  0  0
    7.9939   -1.6830    0.0000 Cl  0  0  0  0  0  0  0  0  0  0  0  0
    7.9939    0.0490    0.0000 S   0  0  0  0  0  0  0  0  0  0  0  0
    4.5981    2.0490    0.0000 O   0  0  0  0  0  0  0  0  0  0  0  0
    7.9939   -0.9510    0.0000 O   0  0  0  0  0  0  0  0  0  0  0  0
    7.9939    1.0490    0.0000 O   0  0  0  0  0  0  0  0  0  0  0  0
    2.8660   -0.9510    0.0000 O   0  0  0  0  0  0  0  0  0  0  0  0
    5.4641    0.5490    0.0000 N   0  0  0  0  0  0  0  0  0  0  0  0
    8.9939    0.0490    0.0000 N   0  0  0  0  0  0  0  0  0  0  0  0
    6.4103    0.8538    0.0000 N   0  0  0  0  0  0  0  0  0  0  0  0
    6.4103   -0.7557    0.0000 N   0  0  0  0  0  0  0  0  0  0  0  0
    4.5981   -0.9510    0.0000 N   0  0  0  0  0  0  0  0  0  0  0  0
    6.9939    0.0490    0.0000 C   0  0  0  0  0  0  0  0  0  0  0  0
    9.4939   -0.8170    0.0000 C   0  0  0  0  0  0  0  0  0  0  0  0
    5.4641   -0.4510    0.0000 C   0  0  0  0  0  0  0  0  0  0  0  0
    4.5981    1.0490    0.0000 C   0  0  0  0  0  0  0  0  0  0  0  0
   10.4939   -0.8170    0.0000 C   0  0  0  0  0  0  0  0  0  0  0  0
   10.9939   -1.6830    0.0000 C   0  0  0  0  0  0  0  0  0  0  0  0
    8.9939   -1.6830    0.0000 C   0  0  0  0  0  0  0  0  0  0  0  0
    3.7320    0.5490    0.0000 C   0  0  0  0  0  0  0  0  0  0  0  0
   10.4939   -2.5490    0.0000 C   0  0  0  0  0  0  0  0  0  0  0  0
    3.7320   -0.4510    0.0000 C   0  0  0  0  0  0  0  0  0  0  0  0
    9.4939   -2.5490    0.0000 C   0  0  0  0  0  0  0  0  0  0  0  0
   11.9939   -1.6830    0.0000 C   0  0  0  0  0  0  0  0  0  0  0  0
    3.7320    2.5490    0.0000 C   0  0  0  0  0  0  0  0  0  0  0  0
    2.0000   -0.4510    0.0000 C   0  0  0  0  0  0  0  0  0  0  0  0
    9.3039    0.5860    0.0000 H   0  0  0  0  0  0  0  0  0  0  0  0
    3.1951    0.8590    0.0000 H   0  0  0  0  0  0  0  0  0  0  0  0
   10.8039   -3.0860    0.0000 H   0  0  0  0  0  0  0  0  0  0  0  0
    9.1839   -3.0860    0.0000 H   0  0  0  0  0  0  0  0  0  0  0  0
   11.9939   -2.3030    0.0000 H   0  0  0  0  0  0  0  0  0  0  0  0
   12.6139   -1.6830    0.0000 H   0  0  0  0  0  0  0  0  0  0  0  0
   11.9939   -1.0630    0.0000 H   0  0  0  0  0  0  0  0  0  0  0  0
    4.0420    3.0860    0.0000 H   0  0  0  0  0  0  0  0  0  0  0  0
    3.1951    2.8590    0.0000 H   0  0  0  0  0  0  0  0  0  0  0  0
    3.4220    2.0121    0.0000 H   0  0  0  0  0  0  0  0  0  0  0  0
    2.3100    0.0860    0.0000 H   0  0  0  0  0  0  0  0  0  0  0  0
    1.4631   -0.1410    0.0000 H   0  0  0  0  0  0  0  0  0  0  0  0
    1.6900   -0.9879    0.0000 H   0  0  0  0  0  0  0  0  0  0  0  0
  1 17  1  0  0  0  0
  2 19  1  0  0  0  0
  3  5  2  0  0  0  0
  3  6  2  0  0  0  0
  3  9  1  0  0  0  0
  3 13  1  0  0  0  0
  4 16  1  0  0  0  0
  4 25  1  0  0  0  0
  7 22  1  0  0  0  0
  7 26  1  0  0  0  0
  8 10  1  0  0  0  0
  8 15  1  0  0  0  0
  8 16  1  0  0  0  0
  9 14  1  0  0  0  0
  9 27  1  0  0  0  0
 10 13  2  0  0  0  0
 11 13  1  0  0  0  0
 11 15  2  0  0  0  0
 12 15  1  0  0  0  0
 12 22  2  0  0  0  0
 14 17  1  0  0  0  0
 14 19  2  0  0  0  0
 16 20  2  0  0  0  0
 17 18  2  0  0  0  0
 18 21  1  0  0  0  0
 18 24  1  0  0  0  0
 19 23  1  0  0  0  0
 20 22  1  0  0  0  0
 20 28  1  0  0  0  0
 21 23  2  0  0  0  0
 21 29  1  0  0  0  0
 23 30  1  0  0  0  0
 24 31  1  0  0  0  0
 24 32  1  0  0  0  0
 24 33  1  0  0  0  0
 25 34  1  0  0  0  0
 25 35  1  0  0  0  0
 25 36  1  0  0  0  0
 26 37  1  0  0  0  0
 26 38  1  0  0  0  0
 26 39  1  0  0  0  0
M  END
> <PUBCHEM_COMPOUND_CID>
86422

> <PUBCHEM_COMPOUND_CANONICALIZED>
1

> <PUBCHEM_CACTVS_COMPLEXITY>
594

> <PUBCHEM_CACTVS_HBOND_ACCEPTOR>
8

> <PUBCHEM_CACTVS_HBOND_DONOR>
1

> <PUBCHEM_CACTVS_ROTATABLE_BOND>
5

> <PUBCHEM_CACTVS_SUBSKEYS>
AAADccBzuABGAAAAAAAAAAAAAAAAAWAAAAA8QAAAAAAAAFgB8AAAHgYYQAAADAqBmiIz1JZIFAKiAiRiZHCa3CshJ6AdmCA2bpiMLSLF+9mEpChriA5I6CcQgAAOBAAAQACBABAIAACAAQIAIAAAAAAAAA==

> <PUBCHEM_IUPAC_OPENEYE_NAME>
N-(2,6-dichloro-3-methyl-phenyl)-5,7-dimethoxy-[1,2,4]triazolo[1,5-a]pyrimidine-2-sulfonamide

> <PUBCHEM_IUPAC_CAS_NAME>
N-(2,6-dichloro-3-methylphenyl)-5,7-dimethoxy-[1,2,4]triazolo[1,5-a]pyrimidine-2-sulfonamide

> <PUBCHEM_IUPAC_NAME>
N-(2,6-dichloro-3-methylphenyl)-5,7-dimethoxy-[1,2,4]triazolo[1,5-a]pyrimidine-2-sulfonamide

> <PUBCHEM_IUPAC_SYSTEMATIC_NAME>
N-[2,6-bis(chloranyl)-3-methyl-phenyl]-5,7-dimethoxy-[1,2,4]triazolo[1,5-a]pyrimidine-2-sulfonamide

> <PUBCHEM_IUPAC_TRADITIONAL_NAME>
N-(2,6-dichloro-3-methyl-phenyl)-5,7-dimethoxy-[1,2,4]triazolo[1,5-a]pyrimidine-2-sulfonamide

> <PUBCHEM_IUPAC_INCHI>
InChI=1S/C14H13Cl2N5O4S/c1-7-4-5-8(15)12(11(7)16)20-26(22,23)14-18-13-17-9(24-2)6-10(25-3)21(13)19-14/h4-6,20H,1-3H3

> <PUBCHEM_IUPAC_INCHIKEY>
VGHPMIFEKOFHHQ-UHFFFAOYSA-N

> <PUBCHEM_XLOGP3_AA>
3.2

> <PUBCHEM_EXACT_MASS>
417.00653

> <PUBCHEM_MOLECULAR_FORMULA>
C14H13Cl2N5O4S

> <PUBCHEM_MOLECULAR_WEIGHT>
418.25512

> <PUBCHEM_OPENEYE_CAN_SMILES>
CC1=C(C(=C(C=C1)Cl)NS(=O)(=O)C2=NN3C(=CC(=NC3=N2)OC)OC)Cl

> <PUBCHEM_OPENEYE_ISO_SMILES>
CC1=C(C(=C(C=C1)Cl)NS(=O)(=O)C2=NN3C(=CC(=NC3=N2)OC)OC)Cl

> <PUBCHEM_CACTVS_TPSA>
116

> <PUBCHEM_MONOISOTOPIC_WEIGHT>
417.00653

> <PUBCHEM_TOTAL_CHARGE>
0

> <PUBCHEM_HEAVY_ATOM_COUNT>
26

> <PUBCHEM_ATOM_DEF_STEREO_COUNT>
0

> <PUBCHEM_ATOM_UDEF_STEREO_COUNT>
0

> <PUBCHEM_BOND_DEF_STEREO_COUNT>
0

> <PUBCHEM_BOND_UDEF_STEREO_COUNT>
0

> <PUBCHEM_ISOTOPIC_ATOM_COUNT>
0

> <PUBCHEM_COMPONENT_COUNT>
1

> <PUBCHEM_CACTVS_TAUTO_COUNT>
1

> <PUBCHEM_COORDINATE_TYPE>
1
5
255

> <PUBCHEM_BONDANNOTATIONS>
10  13  8
11  13  8
11  15  8
12  15  8
12  22  8
14  17  8
14  19  8
16  20  8
17  18  8
18  21  8
19  23  8
20  22  8
21  23  8
8  10  8
8  15  8
8  16  8

$$$$

