   Chemical and Physical Properties References

   [1]USDA ARS - USDA chemical properties
   from [2]ChemIDplus

   Color/Form
        Water white to pale yellow; colorless crystals to a viscous liquid
   from [3]HSDB

   Boiling Point
        200 deg C at 0.1 mmHg; >290 deg C at 760 mmHg
   from [4]HSDB

   Melting Point
        34-35 deg C
   from [5]HSDB

   Corrosivity
        Does not corrode aluminum
   from [6]HSDB

   Density/Specific Gravity
        1.19 - 1.27 @ 20 deg C
   from [7]HSDB

   Octanol/Water Partition Coefficient
        log Kow= 6.50
   from [8]HSDB

   Solubilities

     * In xylene and hexane >1000, methanol 258 (all in g/kg at 25 deg C)
     * Soluble in most organic solvents except ethylene glycol.
     * In water, 6.00X10-3 mg/ml @ 20 deg C.

   from [9]HSDB

   Vapor Pressure
        2.18X10-8 mm Hg @ 25 deg C
   from [10]HSDB

   Other Chemical/Physical Properties

     * Vapor pressure (pure): 2.5 mPa (cis), 1.5 mPa (trans)
     * Mixture of approx 60% trans- and 40% cis-isomers; colorless
       crystals to a pale yellow viscous liquid; mp: ca 35 deg C; bp: 220
       deg C at 0.05 mm Hg; sp gr: 1.190-1.272 at 20 deg C/4 deg C; vapor
       pressure: < 1X10-6 mm Hg at 50 deg C; solubility in water: < 1 ppm;
       sol or miscible with organic solvents except ethylene glycol.
       /Technical permethrin/
     * MP: cis-isomers, 63-65 deg C; trans-isomers, 44-47 deg C
     * Stable to heat (> 2 yrs at 50 deg C), more stable in acid than
       alkaline media with optimum stability ca. pH 4.

   from [11]HSDB

   Computed Properties
   Molecular Weight                  391.2877 [g/mol]
   Molecular Formula                 C[21]H[20]Cl[2]O[3]
   XLogP3                            6.5
   H-Bond Donor                      0
   H-Bond Acceptor                   3
   Rotatable Bond Count              7
   Exact Mass                        390.07895
   MonoIsotopic Mass                 390.07895
   Topological Polar Surface Area    35.5
   Heavy Atom Count                  26
   Formal Charge                     0
   Complexity                        521
   Isotope Atom Count                0
   Defined Atom Stereocenter Count   0
   Undefined Atom Stereocenter Count 2
   Defined Bond Stereocenter Count   0
   Undefined Bond Stereocenter Count 0
   Covalently-Bonded Unit Count      1
   Feature 3D Acceptor Count         2
   Feature 3D Hydrophobe Count       1
   Feature 3D Ring Count             2
   Effective Rotor Count             7.6
   Conformer Sampling RMSD           1.2
   CID Conformer Count               [12]379

References

   1. http://www.ars.usda.gov/SP2UserFiles/ad_hoc/12755100DatabaseFiles/PesticidePropertiesDatabase/IndividualPesticideFiles/PERMETHRIN.TXT
   2. http://chem.sis.nlm.nih.gov/chemidplus/
   3. http://toxnet.nlm.nih.gov/cgi-bin/sis/search/r?dbs+hsdb:@term+@rn+@rel+52645-53-1
   4. http://toxnet.nlm.nih.gov/cgi-bin/sis/search/r?dbs+hsdb:@term+@rn+@rel+52645-53-1
   5. http://toxnet.nlm.nih.gov/cgi-bin/sis/search/r?dbs+hsdb:@term+@rn+@rel+52645-53-1
   6. http://toxnet.nlm.nih.gov/cgi-bin/sis/search/r?dbs+hsdb:@term+@rn+@rel+52645-53-1
   7. http://toxnet.nlm.nih.gov/cgi-bin/sis/search/r?dbs+hsdb:@term+@rn+@rel+52645-53-1
   8. http://toxnet.nlm.nih.gov/cgi-bin/sis/search/r?dbs+hsdb:@term+@rn+@rel+52645-53-1
   9. http://toxnet.nlm.nih.gov/cgi-bin/sis/search/r?dbs+hsdb:@term+@rn+@rel+52645-53-1
  10. http://toxnet.nlm.nih.gov/cgi-bin/sis/search/r?dbs+hsdb:@term+@rn+@rel+52645-53-1
  11. http://toxnet.nlm.nih.gov/cgi-bin/sis/search/r?dbs+hsdb:@term+@rn+@rel+52645-53-1
  12. http://pubchem.ncbi.nlm.nih.gov/vw3d/vw3d.cgi?cid=40326
