   Color/Form

     * COLORLESS CRYSTALS
     * WHITE CRYSTALLINE POWDER
     * WHITE TO LIGHT TAN CRYSTALLINE SOLID
     * Powder or granules
     * White to light tan, crystalline solid [Note: A liquid above 106
       degrees F].

   from [1]HSDB

   Odor
        Mercaptan odor
   from [2]HSDB

   Boiling Point
        97 Deg C @ 0.013 mbar
   from [3]HSDB

   Melting Point
        41 DEG C
   from [4]HSDB

   Density/Specific Gravity
        1.485 @ 25 DEG C/4 DEG C
   from [5]HSDB

   Heat of Vaporization
        log Kow= 4.88
   from [6]HSDB

   Octanol/Water Partition Coefficient
        log Kow= 5.07
   from [7]HSDB

   Solubilities

     * IN WATER: 0.004 G/100 ML @ 25 DEG C; FREELY SOL IN CARBON
       TETRACHLORIDE, ETHER, METHYLENE CHLORIDE
     * Readily sol in most organic solvents: in acetone 908, chloroform
       347, toluene 592, xylene 503, methanol 25, kerosene 37 (all in
       g/100 ml)
     * water solubility = 1 mg/l @ 20 deg C

   from [8]HSDB

   Spectral Properties

     * INDEX OF REFRACTION: 1.5537 @ 50 DEG C/D
     * Intense mass spectral peaks: 125 m/z (100%), 285 m/z (97%), 287 m/z
       (64%), 109 m/z (43%)

   from [9]HSDB

   Vapor Pressure
        8X10-4 MM HG @ 25 DEG C
   from [10]HSDB

   Other Chemical/Physical Properties

     * Henry's Law constant for = 3.2X10-5 atm-cu m/mole (est).
     * BP: decomposes.
     * vapor pressure = 7.5X10-5 mm HG @ 20 deg C

   from [11]HSDB

   Computed Properties
   Molecular Weight                  321.545082 [g/mol]
   Molecular Formula                 C[8]H[8]Cl[3]O[3]PS
   XLogP3                            5.1
   H-Bond Donor                      0
   H-Bond Acceptor                   4
   Rotatable Bond Count              4
   Exact Mass                        319.899735
   MonoIsotopic Mass                 319.899735
   Topological Polar Surface Area    59.8
   Heavy Atom Count                  16
   Formal Charge                     0
   Complexity                        273
   Isotope Atom Count                0
   Defined Atom Stereocenter Count   0
   Undefined Atom Stereocenter Count 0
   Defined Bond Stereocenter Count   0
   Undefined Bond Stereocenter Count 0
   Covalently-Bonded Unit Count      1
   Feature 3D Ring Count             1
   Effective Rotor Count             4
   Conformer Sampling RMSD           0.6
   CID Conformer Count               [12]29

References

   1. http://toxnet.nlm.nih.gov/cgi-bin/sis/search/r?dbs+hsdb:@term+@rn+@rel+299-84-3
   2. http://toxnet.nlm.nih.gov/cgi-bin/sis/search/r?dbs+hsdb:@term+@rn+@rel+299-84-3
   3. http://toxnet.nlm.nih.gov/cgi-bin/sis/search/r?dbs+hsdb:@term+@rn+@rel+299-84-3
   4. http://toxnet.nlm.nih.gov/cgi-bin/sis/search/r?dbs+hsdb:@term+@rn+@rel+299-84-3
   5. http://toxnet.nlm.nih.gov/cgi-bin/sis/search/r?dbs+hsdb:@term+@rn+@rel+299-84-3
   6. http://toxnet.nlm.nih.gov/cgi-bin/sis/search/r?dbs+hsdb:@term+@rn+@rel+299-84-3
   7. http://toxnet.nlm.nih.gov/cgi-bin/sis/search/r?dbs+hsdb:@term+@rn+@rel+299-84-3
   8. http://toxnet.nlm.nih.gov/cgi-bin/sis/search/r?dbs+hsdb:@term+@rn+@rel+299-84-3
   9. http://toxnet.nlm.nih.gov/cgi-bin/sis/search/r?dbs+hsdb:@term+@rn+@rel+299-84-3
  10. http://toxnet.nlm.nih.gov/cgi-bin/sis/search/r?dbs+hsdb:@term+@rn+@rel+299-84-3
  11. http://toxnet.nlm.nih.gov/cgi-bin/sis/search/r?dbs+hsdb:@term+@rn+@rel+299-84-3
  12. http://pubchem.ncbi.nlm.nih.gov/vw3d/vw3d.cgi?cid=9298
