   Color/Form

     * Crystals from water or benzene
     * Tan flakes, lumps, or pearly leaflets from benzene
     * Plates or needles (water); plates (benzene)
     * Light-brown crystals
     * Light tan to white crystalline solid

   from [1]HSDB

   Odor
        Faint, amine-like odor
   from [2]HSDB

   Boiling Point
        398 deg C
   from [3]HSDB

   Melting Point
        92.5 deg C
   from [4]HSDB

   Density/Specific Gravity
        1.070 g/mL at 103 deg C
   from [5]HSDB

   Heat of Vaporization
        95.4 kJ/mol
   from [6]HSDB

   Octanol/Water Partition Coefficient
        log Kow = 1.59
   from [7]HSDB

   pH
        Weak base
   from [8]HSDB

   Solubilities

     * Slightly sol in cold water. Very sol in alcohol, benzene, ether
     * Solubility (g/100mL solvent at 25 deg C): 273.0 in acetone; 9.0 in
       benzene; 0.7 in carbon tetrachloride; 9.5 in ethyl ether; 143.0 in
       methanol; 0.1 in water
     * In water, 1.00X10+3 mg/L at 25 deg C

   from [9]HSDB

   Spectral Properties

     * SADTLER REFERENCE NUMBER: 7846 (IR, PRISM)
     * Intense mass spectral peaks: 198 m/z (100%), 106 m/z (33%), 182 m/z
       (19%), 199 m/z (14%)
     * MASS: 29855 (NIST/EPA/MSDC Mass Spectral Database 1990 version)
     * IR: 6249 (Coblentz Society Spectral Collection)
     * UV: 18317 (Sadtler Research Laboratories Spectral Collection)
     * 1H NMR: 11592 (Sadtler Research Laboratories Spectral Collection)

   from [10]HSDB

   Vapor Density
        6.8 (Air = 1)
   from [11]HSDB

   Vapor Pressure
        2.03X10-7 mm Hg at 25 deg C
   from [12]HSDB

   Viscosity
        8.3 cP at 100 deg C
   from [13]HSDB

   Other Chemical/Physical Properties

     * Molar heat capacity: 270.9 J/mol-K
     * BP: 257 deg C at 18 mm Hg; 249-253 deg C at 15 mm Hg; 232 deg C at
       9 mm Hg
     * Reacts similarly to other aromatic amines. Heat of fusion: 19.6
       kJ/mol. Specific heat: 2.1 J/g-deg C
     * Henry's Law constant = 5.3X10-11 atm-cu m/mol at 25 deg C (est)
     * Hydroxyl radical reaction rate constant = 3.00X10-11 cu
       cm/molec-sec at 25 deg C

   from [14]HSDB

   Computed Properties
   Molecular Weight                  198.26366 [g/mol]
   Molecular Formula                 C[13]H[14]N[2]
   XLogP3                            1.6
   H-Bond Donor                      2
   H-Bond Acceptor                   2
   Rotatable Bond Count              2
   Exact Mass                        198.115698
   MonoIsotopic Mass                 198.115698
   Topological Polar Surface Area    52
   Heavy Atom Count                  15
   Formal Charge                     0
   Complexity                        157
   Isotope Atom Count                0
   Defined Atom Stereocenter Count   0
   Undefined Atom Stereocenter Count 0
   Defined Bond Stereocenter Count   0
   Undefined Bond Stereocenter Count 0
   Covalently-Bonded Unit Count      1
   Feature 3D Donor Count            2
   Feature 3D Cation Count           2
   Feature 3D Ring Count             2
   Effective Rotor Count             2
   Conformer Sampling RMSD           0.6
   CID Conformer Count               [15]3

References

   1. http://toxnet.nlm.nih.gov/cgi-bin/sis/search/r?dbs+hsdb:@term+@rn+@rel+101-77-9
   2. http://toxnet.nlm.nih.gov/cgi-bin/sis/search/r?dbs+hsdb:@term+@rn+@rel+101-77-9
   3. http://toxnet.nlm.nih.gov/cgi-bin/sis/search/r?dbs+hsdb:@term+@rn+@rel+101-77-9
   4. http://toxnet.nlm.nih.gov/cgi-bin/sis/search/r?dbs+hsdb:@term+@rn+@rel+101-77-9
   5. http://toxnet.nlm.nih.gov/cgi-bin/sis/search/r?dbs+hsdb:@term+@rn+@rel+101-77-9
   6. http://toxnet.nlm.nih.gov/cgi-bin/sis/search/r?dbs+hsdb:@term+@rn+@rel+101-77-9
   7. http://toxnet.nlm.nih.gov/cgi-bin/sis/search/r?dbs+hsdb:@term+@rn+@rel+101-77-9
   8. http://toxnet.nlm.nih.gov/cgi-bin/sis/search/r?dbs+hsdb:@term+@rn+@rel+101-77-9
   9. http://toxnet.nlm.nih.gov/cgi-bin/sis/search/r?dbs+hsdb:@term+@rn+@rel+101-77-9
  10. http://toxnet.nlm.nih.gov/cgi-bin/sis/search/r?dbs+hsdb:@term+@rn+@rel+101-77-9
  11. http://toxnet.nlm.nih.gov/cgi-bin/sis/search/r?dbs+hsdb:@term+@rn+@rel+101-77-9
  12. http://toxnet.nlm.nih.gov/cgi-bin/sis/search/r?dbs+hsdb:@term+@rn+@rel+101-77-9
  13. http://toxnet.nlm.nih.gov/cgi-bin/sis/search/r?dbs+hsdb:@term+@rn+@rel+101-77-9
  14. http://toxnet.nlm.nih.gov/cgi-bin/sis/search/r?dbs+hsdb:@term+@rn+@rel+101-77-9
  15. http://pubchem.ncbi.nlm.nih.gov/vw3d/vw3d.cgi?cid=7577
