234498
  -OEChem-07051213072D

 54 57  0     1  0  0  0  0  0999 V2000
   10.7870    0.5491    0.0000 O   0  0  0  0  0  0  0  0  0  0  0  0
    2.8641   -2.0032    0.0000 O   0  0  0  0  0  0  0  0  0  0  0  0
    8.2572    0.0491    0.0000 C   0  0  2  0  0  0  0  0  0  0  0  0
    8.2572    1.0491    0.0000 C   0  0  2  0  0  0  0  0  0  0  0  0
    7.3912   -0.4509    0.0000 C   0  0  1  0  0  0  0  0  0  0  0  0
    6.5251    0.0491    0.0000 C   0  0  1  0  0  0  0  0  0  0  0  0
    5.6151   -0.4578    0.0000 C   0  0  2  0  0  0  0  0  0  0  0  0
    7.3912    1.5491    0.0000 C   0  0  0  0  0  0  0  0  0  0  0  0
    6.5251    1.0491    0.0000 C   0  0  0  0  0  0  0  0  0  0  0  0
    9.2034   -0.2556    0.0000 C   0  0  0  0  0  0  0  0  0  0  0  0
    9.2034    1.3538    0.0000 C   0  0  0  0  0  0  0  0  0  0  0  0
    9.7870    0.5491    0.0000 C   0  0  1  0  0  0  0  0  0  0  0  0
    7.4072   -1.4924    0.0000 C   0  0  0  0  0  0  0  0  0  0  0  0
    5.6071   -1.4994    0.0000 C   0  0  0  0  0  0  0  0  0  0  0  0
    4.6883    0.1063    0.0000 C   0  0  0  0  0  0  0  0  0  0  0  0
    8.2572    2.0491    0.0000 C   0  0  0  0  0  0  0  0  0  0  0  0
    6.5092   -2.0202    0.0000 C   0  0  0  0  0  0  0  0  0  0  0  0
    5.6228    0.5422    0.0000 C   0  0  0  0  0  0  0  0  0  0  0  0
    4.6717   -2.0491    0.0000 C   0  0  0  0  0  0  0  0  0  0  0  0
    3.7404   -0.4216    0.0000 C   0  0  0  0  0  0  0  0  0  0  0  0
    3.7320   -1.5066    0.0000 C   0  0  2  0  0  0  0  0  0  0  0  0
    2.0000   -1.4999    0.0000 C   0  0  0  0  0  0  0  0  0  0  0  0
    8.3471   -0.7961    0.0000 H   0  0  0  0  0  0  0  0  0  0  0  0
    8.1305   -0.8702    0.0000 H   0  0  0  0  0  0  0  0  0  0  0  0
    7.2612    0.4741    0.0000 H   0  0  0  0  0  0  0  0  0  0  0  0
    7.7897    2.0240    0.0000 H   0  0  0  0  0  0  0  0  0  0  0  0
    6.9926    2.0240    0.0000 H   0  0  0  0  0  0  0  0  0  0  0  0
    6.3131    1.6317    0.0000 H   0  0  0  0  0  0  0  0  0  0  0  0
    5.9145    0.9414    0.0000 H   0  0  0  0  0  0  0  0  0  0  0  0
    8.9524   -0.8226    0.0000 H   0  0  0  0  0  0  0  0  0  0  0  0
    9.7408   -0.5649    0.0000 H   0  0  0  0  0  0  0  0  0  0  0  0
    9.7408    1.6630    0.0000 H   0  0  0  0  0  0  0  0  0  0  0  0
    8.9524    1.9207    0.0000 H   0  0  0  0  0  0  0  0  0  0  0  0
    7.6252   -2.0728    0.0000 H   0  0  0  0  0  0  0  0  0  0  0  0
    8.0164   -1.3769    0.0000 H   0  0  0  0  0  0  0  0  0  0  0  0
   10.0687   -0.0032    0.0000 H   0  0  0  0  0  0  0  0  0  0  0  0
    5.0965    0.5730    0.0000 H   0  0  0  0  0  0  0  0  0  0  0  0
    4.2984    0.5884    0.0000 H   0  0  0  0  0  0  0  0  0  0  0  0
    8.8772    2.0491    0.0000 H   0  0  0  0  0  0  0  0  0  0  0  0
    8.2572    2.6691    0.0000 H   0  0  0  0  0  0  0  0  0  0  0  0
    7.6372    2.0491    0.0000 H   0  0  0  0  0  0  0  0  0  0  0  0
    6.5116   -2.6402    0.0000 H   0  0  0  0  0  0  0  0  0  0  0  0
    6.2428    0.5374    0.0000 H   0  0  0  0  0  0  0  0  0  0  0  0
    5.6276    1.1622    0.0000 H   0  0  0  0  0  0  0  0  0  0  0  0
    5.0028    0.5470    0.0000 H   0  0  0  0  0  0  0  0  0  0  0  0
    4.2744   -2.5251    0.0000 H   0  0  0  0  0  0  0  0  0  0  0  0
    5.0726   -2.5220    0.0000 H   0  0  0  0  0  0  0  0  0  0  0  0
    3.5358    0.1637    0.0000 H   0  0  0  0  0  0  0  0  0  0  0  0
    3.1288   -0.5230    0.0000 H   0  0  0  0  0  0  0  0  0  0  0  0
    3.1969   -1.1935    0.0000 H   0  0  0  0  0  0  0  0  0  0  0  0
   11.0970    1.0860    0.0000 H   0  0  0  0  0  0  0  0  0  0  0  0
    2.3121   -0.9642    0.0000 H   0  0  0  0  0  0  0  0  0  0  0  0
    1.4643   -1.1878    0.0000 H   0  0  0  0  0  0  0  0  0  0  0  0
    1.6879   -2.0356    0.0000 H   0  0  0  0  0  0  0  0  0  0  0  0
 12  1  1  1  0  0  0
  1 51  1  0  0  0  0
 21  2  1  1  0  0  0
  2 22  1  0  0  0  0
  3  4  1  0  0  0  0
  3  5  1  0  0  0  0
  3 10  1  0  0  0  0
  3 23  1  6  0  0  0
  4  8  1  0  0  0  0
  4 11  1  0  0  0  0
  4 16  1  1  0  0  0
  5  6  1  0  0  0  0
  5 13  1  0  0  0  0
  5 24  1  1  0  0  0
  6  7  1  0  0  0  0
  6  9  1  0  0  0  0
  6 25  1  6  0  0  0
  7 14  1  0  0  0  0
  7 15  1  0  0  0  0
  7 18  1  1  0  0  0
  8  9  1  0  0  0  0
  8 26  1  0  0  0  0
  8 27  1  0  0  0  0
  9 28  1  0  0  0  0
  9 29  1  0  0  0  0
 10 12  1  0  0  0  0
 10 30  1  0  0  0  0
 10 31  1  0  0  0  0
 11 12  1  0  0  0  0
 11 32  1  0  0  0  0
 11 33  1  0  0  0  0
 12 36  1  0  0  0  0
 13 17  1  0  0  0  0
 13 34  1  0  0  0  0
 13 35  1  0  0  0  0
 14 17  2  0  0  0  0
 14 19  1  0  0  0  0
 15 20  1  0  0  0  0
 15 37  1  0  0  0  0
 15 38  1  0  0  0  0
 16 39  1  0  0  0  0
 16 40  1  0  0  0  0
 16 41  1  0  0  0  0
 17 42  1  0  0  0  0
 18 43  1  0  0  0  0
 18 44  1  0  0  0  0
 18 45  1  0  0  0  0
 19 21  1  0  0  0  0
 19 46  1  0  0  0  0
 19 47  1  0  0  0  0
 20 21  1  0  0  0  0
 20 48  1  0  0  0  0
 20 49  1  0  0  0  0
 21 50  1  0  0  0  0
 22 52  1  0  0  0  0
 22 53  1  0  0  0  0
 22 54  1  0  0  0  0
M  END
> <PUBCHEM_COMPOUND_CID>
234498

> <PUBCHEM_COMPOUND_CANONICALIZED>
1

> <PUBCHEM_CACTVS_COMPLEXITY>
484

> <PUBCHEM_CACTVS_HBOND_ACCEPTOR>
2

> <PUBCHEM_CACTVS_HBOND_DONOR>
1

> <PUBCHEM_CACTVS_ROTATABLE_BOND>
1

> <PUBCHEM_CACTVS_SUBSKEYS>
AAADcfB4MAAAAAAAAAAAAAAAAAAAAYAAAAAwYIAAAAAAAGCAAAAAGgAACAAADxSggAICAAAABgCAAiBCAAAAAAAgAAAACAAAAAgAEAIAAQAAQAAEwAAIAAOAwPAPgAAAAAAAAADAAAQAACAAAIAACAAAAA==

> <PUBCHEM_IUPAC_OPENEYE_NAME>
(3S,8S,9S,10R,13R,14S,16S)-3-methoxy-10,13-dimethyl-2,3,4,7,8,9,11,12,14,15,16,17-dodecahydro-1H-cyclopenta[a]phenanthren-16-ol

> <PUBCHEM_IUPAC_CAS_NAME>
(3S,8S,9S,10R,13R,14S,16S)-3-methoxy-10,13-dimethyl-2,3,4,7,8,9,11,12,14,15,16,17-dodecahydro-1H-cyclopenta[a]phenanthren-16-ol

> <PUBCHEM_IUPAC_NAME>
(3S,8S,9S,10R,13R,14S,16S)-3-methoxy-10,13-dimethyl-2,3,4,7,8,9,11,12,14,15,16,17-dodecahydro-1H-cyclopenta[a]phenanthren-16-ol

> <PUBCHEM_IUPAC_SYSTEMATIC_NAME>
(3S,8S,9S,10R,13R,14S,16S)-3-methoxy-10,13-dimethyl-2,3,4,7,8,9,11,12,14,15,16,17-dodecahydro-1H-cyclopenta[a]phenanthren-16-ol

> <PUBCHEM_IUPAC_TRADITIONAL_NAME>
(3S,8S,9S,10R,13R,14S,16S)-3-methoxy-10,13-dimethyl-2,3,4,7,8,9,11,12,14,15,16,17-dodecahydro-1H-cyclopenta[a]phenanthren-16-ol

> <PUBCHEM_IUPAC_INCHI>
InChI=1S/C20H32O2/c1-19-8-7-17-16(18(19)11-14(21)12-19)5-4-13-10-15(22-3)6-9-20(13,17)2/h4,14-18,21H,5-12H2,1-3H3/t14-,15-,16+,17-,18-,19+,20-/m0/s1

> <PUBCHEM_IUPAC_INCHIKEY>
OUMKTFKBXXEGOM-ZPNXQJJCSA-N

> <PUBCHEM_XLOGP3_AA>
4.1

> <PUBCHEM_EXACT_MASS>
304.24023

> <PUBCHEM_MOLECULAR_FORMULA>
C20H32O2

> <PUBCHEM_MOLECULAR_WEIGHT>
304.46688

> <PUBCHEM_OPENEYE_CAN_SMILES>
CC12CCC3C(C1CC(C2)O)CC=C4C3(CCC(C4)OC)C

> <PUBCHEM_OPENEYE_ISO_SMILES>
C[C@]12CC[C@H]3[C@H]([C@@H]1C[C@@H](C2)O)CC=C4[C@@]3(CC[C@@H](C4)OC)C

> <PUBCHEM_CACTVS_TPSA>
29.5

> <PUBCHEM_MONOISOTOPIC_WEIGHT>
304.24023

> <PUBCHEM_TOTAL_CHARGE>
0

> <PUBCHEM_HEAVY_ATOM_COUNT>
22

> <PUBCHEM_ATOM_DEF_STEREO_COUNT>
7

> <PUBCHEM_ATOM_UDEF_STEREO_COUNT>
0

> <PUBCHEM_BOND_DEF_STEREO_COUNT>
0

> <PUBCHEM_BOND_UDEF_STEREO_COUNT>
0

> <PUBCHEM_ISOTOPIC_ATOM_COUNT>
0

> <PUBCHEM_COMPONENT_COUNT>
1

> <PUBCHEM_CACTVS_TAUTO_COUNT>
1

> <PUBCHEM_COORDINATE_TYPE>
1
5
255

> <PUBCHEM_BONDANNOTATIONS>
12  1  5
21  2  5
3  23  6
4  16  5
5  24  5
6  25  6
7  18  5

$$$$

