5281413
  -OEChem-07051212572D

 61 67  0     1  0  0  0  0  0999 V2000
    6.9654    3.4144    0.0000 N   0  0  3  0  0  0  0  0  0  0  0  0
    4.5124    2.2970    0.0000 N   0  0  0  0  0  0  0  0  0  0  0  0
    6.2345   -0.0249    0.0000 N   0  0  0  0  0  0  0  0  0  0  0  0
    8.4842   -1.6342    0.0000 N   0  0  0  0  0  0  0  0  0  0  0  0
    6.2962    2.6713    0.0000 C   0  0  1  0  0  0  0  0  0  0  0  0
    6.6028    1.6758    0.0000 C   0  0  0  0  0  0  0  0  0  0  0  0
    7.6200    1.4514    0.0000 C   0  0  1  0  0  0  0  0  0  0  0  0
    5.3181    2.8792    0.0000 C   0  0  0  0  0  0  0  0  0  0  0  0
    7.9875    3.2136    0.0000 C   0  0  0  0  0  0  0  0  0  0  0  0
    6.6564    4.3655    0.0000 C   0  0  0  0  0  0  0  0  0  0  0  0
    8.3170    2.2255    0.0000 C   0  0  0  0  0  0  0  0  0  0  0  0
    5.0091    3.8302    0.0000 C   0  0  0  0  0  0  0  0  0  0  0  0
    5.6782    4.5734    0.0000 C   0  0  0  0  0  0  0  0  0  0  0  0
    7.9253    0.4991    0.0000 C   0  0  0  0  0  0  0  0  0  0  0  0
    4.0150    3.8277    0.0000 C   0  0  0  0  0  0  0  0  0  0  0  0
    3.7086    2.8820    0.0000 C   0  0  0  0  0  0  0  0  0  0  0  0
    9.2959    2.0213    0.0000 C   0  0  0  0  0  0  0  0  0  0  0  0
    7.2533   -0.2414    0.0000 C   0  0  0  0  0  0  0  0  0  0  0  0
    3.3334    4.6072    0.0000 C   0  0  0  0  0  0  0  0  0  0  0  0
    7.5676   -1.2345    0.0000 C   0  0  0  0  0  0  0  0  0  0  0  0
    2.6994    2.6502    0.0000 C   0  0  0  0  0  0  0  0  0  0  0  0
    9.6086    1.0715    0.0000 C   0  0  0  0  0  0  0  0  0  0  0  0
    6.9042   -1.9828    0.0000 C   0  0  0  0  0  0  0  0  0  0  0  0
    2.3191    4.3988    0.0000 C   0  0  0  0  0  0  0  0  0  0  0  0
    2.0000    3.4138    0.0000 C   0  0  0  0  0  0  0  0  0  0  0  0
    7.4108   -2.8450    0.0000 C   0  0  0  0  0  0  0  0  0  0  0  0
    8.3874   -2.6295    0.0000 C   0  0  0  0  0  0  0  0  0  0  0  0
    5.8806   -1.7899    0.0000 C   0  0  0  0  0  0  0  0  0  0  0  0
    5.5435   -0.8043    0.0000 C   0  0  0  0  0  0  0  0  0  0  0  0
    7.0813   -3.8331    0.0000 C   0  0  0  0  0  0  0  0  0  0  0  0
    9.1021   -3.3873    0.0000 C   0  0  0  0  0  0  0  0  0  0  0  0
    7.7783   -4.6072    0.0000 C   0  0  0  0  0  0  0  0  0  0  0  0
    8.7955   -4.3828    0.0000 C   0  0  0  0  0  0  0  0  0  0  0  0
    5.7226    2.0440    0.0000 H   0  0  0  0  0  0  0  0  0  0  0  0
    5.9878    1.5974    0.0000 H   0  0  0  0  0  0  0  0  0  0  0  0
    6.5748    1.0564    0.0000 H   0  0  0  0  0  0  0  0  0  0  0  0
    8.2262    1.3213    0.0000 H   0  0  0  0  0  0  0  0  0  0  0  0
    8.6005    3.3062    0.0000 H   0  0  0  0  0  0  0  0  0  0  0  0
    8.0011    3.8334    0.0000 H   0  0  0  0  0  0  0  0  0  0  0  0
    7.2703    4.4518    0.0000 H   0  0  0  0  0  0  0  0  0  0  0  0
    6.6780    4.9851    0.0000 H   0  0  0  0  0  0  0  0  0  0  0  0
    5.9105    5.1482    0.0000 H   0  0  0  0  0  0  0  0  0  0  0  0
    5.1524    4.9020    0.0000 H   0  0  0  0  0  0  0  0  0  0  0  0
    8.3052    0.0091    0.0000 H   0  0  0  0  0  0  0  0  0  0  0  0
    8.4739    0.7881    0.0000 H   0  0  0  0  0  0  0  0  0  0  0  0
    4.5113    1.6770    0.0000 H   0  0  0  0  0  0  0  0  0  0  0  0
    9.7090    2.4837    0.0000 H   0  0  0  0  0  0  0  0  0  0  0  0
    3.5313    5.1948    0.0000 H   0  0  0  0  0  0  0  0  0  0  0  0
    2.5152    2.0582    0.0000 H   0  0  0  0  0  0  0  0  0  0  0  0
    9.0197    0.8776    0.0000 H   0  0  0  0  0  0  0  0  0  0  0  0
    9.8024    0.4825    0.0000 H   0  0  0  0  0  0  0  0  0  0  0  0
   10.1975    1.2653    0.0000 H   0  0  0  0  0  0  0  0  0  0  0  0
    1.9056    4.8608    0.0000 H   0  0  0  0  0  0  0  0  0  0  0  0
    1.3942    3.2820    0.0000 H   0  0  0  0  0  0  0  0  0  0  0  0
    9.0188   -1.3201    0.0000 H   0  0  0  0  0  0  0  0  0  0  0  0
    5.4747   -2.2585    0.0000 H   0  0  0  0  0  0  0  0  0  0  0  0
    4.9356   -0.6824    0.0000 H   0  0  0  0  0  0  0  0  0  0  0  0
    6.4744   -3.9597    0.0000 H   0  0  0  0  0  0  0  0  0  0  0  0
    9.7059   -3.2467    0.0000 H   0  0  0  0  0  0  0  0  0  0  0  0
    7.5890   -5.1976    0.0000 H   0  0  0  0  0  0  0  0  0  0  0  0
    9.2157   -4.8387    0.0000 H   0  0  0  0  0  0  0  0  0  0  0  0
  1  5  1  0  0  0  0
  1  9  1  0  0  0  0
  1 10  1  0  0  0  0
  2  8  1  0  0  0  0
  2 16  1  0  0  0  0
  2 46  1  0  0  0  0
  3 18  2  0  0  0  0
  3 29  1  0  0  0  0
  4 20  1  0  0  0  0
  4 27  1  0  0  0  0
  4 55  1  0  0  0  0
  5  6  1  0  0  0  0
  5  8  1  0  0  0  0
  5 34  1  6  0  0  0
  6  7  1  0  0  0  0
  6 35  1  0  0  0  0
  6 36  1  0  0  0  0
  7 11  1  0  0  0  0
  7 14  1  1  0  0  0
  7 37  1  0  0  0  0
  8 12  2  0  0  0  0
  9 11  1  0  0  0  0
  9 38  1  0  0  0  0
  9 39  1  0  0  0  0
 10 13  1  0  0  0  0
 10 40  1  0  0  0  0
 10 41  1  0  0  0  0
 11 17  2  0  0  0  0
 12 13  1  0  0  0  0
 12 15  1  0  0  0  0
 13 42  1  0  0  0  0
 13 43  1  0  0  0  0
 14 18  1  0  0  0  0
 14 44  1  0  0  0  0
 14 45  1  0  0  0  0
 15 16  1  0  0  0  0
 15 19  2  0  0  0  0
 16 21  2  0  0  0  0
 17 22  1  0  0  0  0
 17 47  1  0  0  0  0
 18 20  1  0  0  0  0
 19 24  1  0  0  0  0
 19 48  1  0  0  0  0
 20 23  2  0  0  0  0
 21 25  1  0  0  0  0
 21 49  1  0  0  0  0
 22 50  1  0  0  0  0
 22 51  1  0  0  0  0
 22 52  1  0  0  0  0
 23 26  1  0  0  0  0
 23 28  1  0  0  0  0
 24 25  2  0  0  0  0
 24 53  1  0  0  0  0
 25 54  1  0  0  0  0
 26 27  1  0  0  0  0
 26 30  2  0  0  0  0
 27 31  2  0  0  0  0
 28 29  2  0  0  0  0
 28 56  1  0  0  0  0
 29 57  1  0  0  0  0
 30 32  1  0  0  0  0
 30 58  1  0  0  0  0
 31 33  1  0  0  0  0
 31 59  1  0  0  0  0
 32 33  2  0  0  0  0
 32 60  1  0  0  0  0
 33 61  1  0  0  0  0
M  END
> <PUBCHEM_COMPOUND_CID>
5281413

> <PUBCHEM_COMPOUND_CANONICALIZED>
1

> <PUBCHEM_CACTVS_COMPLEXITY>
750

> <PUBCHEM_CACTVS_HBOND_ACCEPTOR>
2

> <PUBCHEM_CACTVS_HBOND_DONOR>
2

> <PUBCHEM_CACTVS_ROTATABLE_BOND>
2

> <PUBCHEM_CACTVS_SUBSKEYS>
AAADceB7gAAAAAAAAAAAAAAAAAAAAWLAAAA8eLECAAAAAFix/gAAHAAQAAAADSjBHgQ+wPPJkACgAzRnRACCgCQxEiAI2SA4dJgIYOLAkZGUIAhgkADIyAcQgMAOgAAAAAACAAAAAAAAAAQAAAAAAAAAAA==

> <PUBCHEM_IUPAC_OPENEYE_NAME>
(2R,3E,12bS)-3-ethylidene-2-(9H-pyrido[3,4-b]indol-1-ylmethyl)-2,4,6,7,12,12b-hexahydro-1H-indolo[2,3-a]quinolizine

> <PUBCHEM_IUPAC_CAS_NAME>
(2R,3E,12bS)-3-ethylidene-2-(9H-pyrido[3,4-b]indol-1-ylmethyl)-2,4,6,7,12,12b-hexahydro-1H-indolo[2,3-a]quinolizine

> <PUBCHEM_IUPAC_NAME>
(2R,3E,12bS)-3-ethylidene-2-(9H-pyrido[3,4-b]indol-1-ylmethyl)-2,4,6,7,12,12b-hexahydro-1H-indolo[2,3-a]quinolizine

> <PUBCHEM_IUPAC_SYSTEMATIC_NAME>
(2R,3E,12bS)-3-ethylidene-2-(9H-pyrido[3,4-b]indol-1-ylmethyl)-2,4,6,7,12,12b-hexahydro-1H-indolo[2,3-a]quinolizine

> <PUBCHEM_IUPAC_TRADITIONAL_NAME>
(2R,3E,12bS)-2-(9H-$b-carbolin-1-ylmethyl)-3-ethylidene-2,4,6,7,12,12b-hexahydro-1H-pyrido[2,1-a]$b-carboline

> <PUBCHEM_IUPAC_INCHI>
InChI=1S/C29H28N4/c1-2-18-17-33-14-12-23-21-8-4-6-10-25(21)32-29(23)27(33)16-19(18)15-26-28-22(11-13-30-26)20-7-3-5-9-24(20)31-28/h2-11,13,19,27,31-32H,12,14-17H2,1H3/b18-2-/t19-,27-/m0/s1

> <PUBCHEM_IUPAC_INCHIKEY>
VUMZOPMHFVDIMF-NLLHOBBWSA-N

> <PUBCHEM_XLOGP3_AA>
5.1

> <PUBCHEM_EXACT_MASS>
432.231397

> <PUBCHEM_MOLECULAR_FORMULA>
C29H28N4

> <PUBCHEM_MOLECULAR_WEIGHT>
432.55942

> <PUBCHEM_OPENEYE_CAN_SMILES>
CC=C1CN2CCC3=C(C2CC1CC4=NC=CC5=C4NC6=CC=CC=C56)NC7=CC=CC=C37

> <PUBCHEM_OPENEYE_ISO_SMILES>
C/C=C\1/CN2CCC3=C([C@@H]2C[C@@H]1CC4=NC=CC5=C4NC6=CC=CC=C56)NC7=CC=CC=C37

> <PUBCHEM_CACTVS_TPSA>
47.7

> <PUBCHEM_MONOISOTOPIC_WEIGHT>
432.231397

> <PUBCHEM_TOTAL_CHARGE>
0

> <PUBCHEM_HEAVY_ATOM_COUNT>
33

> <PUBCHEM_ATOM_DEF_STEREO_COUNT>
2

> <PUBCHEM_ATOM_UDEF_STEREO_COUNT>
0

> <PUBCHEM_BOND_DEF_STEREO_COUNT>
1

> <PUBCHEM_BOND_UDEF_STEREO_COUNT>
0

> <PUBCHEM_ISOTOPIC_ATOM_COUNT>
0

> <PUBCHEM_COMPONENT_COUNT>
1

> <PUBCHEM_CACTVS_TAUTO_COUNT>
3

> <PUBCHEM_COORDINATE_TYPE>
1
5
255

> <PUBCHEM_BONDANNOTATIONS>
12  15  8
15  16  8
15  19  8
16  21  8
18  20  8
19  24  8
2  16  8
2  8  8
20  23  8
21  25  8
23  26  8
23  28  8
24  25  8
26  27  8
26  30  8
27  31  8
28  29  8
3  18  8
3  29  8
30  32  8
31  33  8
32  33  8
4  20  8
4  27  8
5  34  6
7  14  5
8  12  8

$$$$

