6066
  -OEChem-06261201052D

 54 54  0     1  0  0  0  0  0999 V2000
    3.4678    0.0000    0.0000 Br  0  5  0  0  0  0  0  0  0  0  0  0
    2.2077    4.6812    0.0000 S   0  0  0  0  0  0  0  0  0  0  0  0
    0.3987    6.2690    0.0000 O   0  0  0  0  0  0  0  0  0  0  0  0
    2.8987    5.4030    0.0000 O   0  0  0  0  0  0  0  0  0  0  0  0
    2.8987    7.1350    0.0000 O   0  0  0  0  0  0  0  0  0  0  0  0
    5.3987    4.5369    0.0000 N   0  3  0  0  0  0  0  0  0  0  0  0
    1.3987    7.2690    0.0000 C   0  0  0  0  0  0  0  0  0  0  0  0
    2.2077    7.8568    0.0000 C   0  0  0  0  0  0  0  0  0  0  0  0
    0.5897    7.8568    0.0000 C   0  0  0  0  0  0  0  0  0  0  0  0
    1.3987    6.2690    0.0000 C   0  0  3  0  0  0  0  0  0  0  0  0
    1.8987    8.8078    0.0000 C   0  0  0  0  0  0  0  0  0  0  0  0
    0.8987    8.8078    0.0000 C   0  0  0  0  0  0  0  0  0  0  0  0
    4.3987    4.5369    0.0000 C   0  0  0  0  0  0  0  0  0  0  0  0
    1.3987    5.2690    0.0000 C   0  0  0  0  0  0  0  0  0  0  0  0
    2.3987    6.2690    0.0000 C   0  0  0  0  0  0  0  0  0  0  0  0
    6.3987    4.5369    0.0000 C   0  0  0  0  0  0  0  0  0  0  0  0
    5.3987    3.5369    0.0000 C   0  0  0  0  0  0  0  0  0  0  0  0
    3.8987    5.4030    0.0000 C   0  0  0  0  0  0  0  0  0  0  0  0
    5.3987    5.5369    0.0000 C   0  0  0  0  0  0  0  0  0  0  0  0
    0.5897    4.6812    0.0000 C   0  0  0  0  0  0  0  0  0  0  0  0
    4.5326    3.0369    0.0000 C   0  0  0  0  0  0  0  0  0  0  0  0
    6.8987    3.6709    0.0000 C   0  0  0  0  0  0  0  0  0  0  0  0
    0.8987    3.7302    0.0000 C   0  0  0  0  0  0  0  0  0  0  0  0
    1.8987    3.7302    0.0000 C   0  0  0  0  0  0  0  0  0  0  0  0
    0.8462    6.9875    0.0000 H   0  0  0  0  0  0  0  0  0  0  0  0
    2.5177    7.3198    0.0000 H   0  0  0  0  0  0  0  0  0  0  0  0
    2.7741    8.1090    0.0000 H   0  0  0  0  0  0  0  0  0  0  0  0
    0.0233    8.1090    0.0000 H   0  0  0  0  0  0  0  0  0  0  0  0
    0.2797    7.3198    0.0000 H   0  0  0  0  0  0  0  0  0  0  0  0
    2.5051    8.9367    0.0000 H   0  0  0  0  0  0  0  0  0  0  0  0
    1.8339    9.4244    0.0000 H   0  0  0  0  0  0  0  0  0  0  0  0
    0.9635    9.4244    0.0000 H   0  0  0  0  0  0  0  0  0  0  0  0
    0.2922    8.9367    0.0000 H   0  0  0  0  0  0  0  0  0  0  0  0
    3.8161    4.3249    0.0000 H   0  0  0  0  0  0  0  0  0  0  0  0
    4.5063    3.9264    0.0000 H   0  0  0  0  0  0  0  0  0  0  0  0
    6.9813    4.7490    0.0000 H   0  0  0  0  0  0  0  0  0  0  0  0
    6.2910    5.1475    0.0000 H   0  0  0  0  0  0  0  0  0  0  0  0
    5.6107    2.9543    0.0000 H   0  0  0  0  0  0  0  0  0  0  0  0
    6.0092    3.6446    0.0000 H   0  0  0  0  0  0  0  0  0  0  0  0
    4.4813    5.6150    0.0000 H   0  0  0  0  0  0  0  0  0  0  0  0
    3.7910    6.0135    0.0000 H   0  0  0  0  0  0  0  0  0  0  0  0
    6.0187    5.5369    0.0000 H   0  0  0  0  0  0  0  0  0  0  0  0
    5.3987    6.1569    0.0000 H   0  0  0  0  0  0  0  0  0  0  0  0
    4.7787    5.5369    0.0000 H   0  0  0  0  0  0  0  0  0  0  0  0
    0.0887    6.8059    0.0000 H   0  0  0  0  0  0  0  0  0  0  0  0
    0.0000    4.8728    0.0000 H   0  0  0  0  0  0  0  0  0  0  0  0
    4.2226    3.5739    0.0000 H   0  0  0  0  0  0  0  0  0  0  0  0
    3.9957    2.7269    0.0000 H   0  0  0  0  0  0  0  0  0  0  0  0
    4.8426    2.5000    0.0000 H   0  0  0  0  0  0  0  0  0  0  0  0
    6.3617    3.3609    0.0000 H   0  0  0  0  0  0  0  0  0  0  0  0
    7.2087    3.1340    0.0000 H   0  0  0  0  0  0  0  0  0  0  0  0
    7.4356    3.9809    0.0000 H   0  0  0  0  0  0  0  0  0  0  0  0
    0.5342    3.2285    0.0000 H   0  0  0  0  0  0  0  0  0  0  0  0
    2.2631    3.2285    0.0000 H   0  0  0  0  0  0  0  0  0  0  0  0
  2 14  1  0  0  0  0
  2 24  1  0  0  0  0
  3 10  1  0  0  0  0
  3 45  1  0  0  0  0
  4 15  1  0  0  0  0
  4 18  1  0  0  0  0
  5 15  2  0  0  0  0
  6 13  1  0  0  0  0
  6 16  1  0  0  0  0
  6 17  1  0  0  0  0
  6 19  1  0  0  0  0
  7  8  1  0  0  0  0
  7  9  1  0  0  0  0
  7 10  1  0  0  0  0
  7 25  1  0  0  0  0
  8 11  1  0  0  0  0
  8 26  1  0  0  0  0
  8 27  1  0  0  0  0
  9 12  1  0  0  0  0
  9 28  1  0  0  0  0
  9 29  1  0  0  0  0
 10 14  1  0  0  0  0
 10 15  1  0  0  0  0
 11 12  1  0  0  0  0
 11 30  1  0  0  0  0
 11 31  1  0  0  0  0
 12 32  1  0  0  0  0
 12 33  1  0  0  0  0
 13 18  1  0  0  0  0
 13 34  1  0  0  0  0
 13 35  1  0  0  0  0
 14 20  2  0  0  0  0
 16 22  1  0  0  0  0
 16 36  1  0  0  0  0
 16 37  1  0  0  0  0
 17 21  1  0  0  0  0
 17 38  1  0  0  0  0
 17 39  1  0  0  0  0
 18 40  1  0  0  0  0
 18 41  1  0  0  0  0
 19 42  1  0  0  0  0
 19 43  1  0  0  0  0
 19 44  1  0  0  0  0
 20 23  1  0  0  0  0
 20 46  1  0  0  0  0
 21 47  1  0  0  0  0
 21 48  1  0  0  0  0
 21 49  1  0  0  0  0
 22 50  1  0  0  0  0
 22 51  1  0  0  0  0
 22 52  1  0  0  0  0
 23 24  2  0  0  0  0
 23 53  1  0  0  0  0
 24 54  1  0  0  0  0
M  CHG  2   1  -1   6   1
M  END
> <PUBCHEM_COMPOUND_CID>
6066

> <PUBCHEM_COMPOUND_CANONICALIZED>
1

> <PUBCHEM_CACTVS_COMPLEXITY>
394

> <PUBCHEM_CACTVS_HBOND_ACCEPTOR>
5

> <PUBCHEM_CACTVS_HBOND_DONOR>
1

> <PUBCHEM_CACTVS_ROTATABLE_BOND>
9

> <PUBCHEM_CACTVS_SUBSKEYS>
AAADceB6MABAEAAAAAAAAAAAAAAAAaIAAAAAAAAAAAAAAAABgAAAHgQACAAADUTl0AayCYMABgiMACDSCAIDAIAgCBBIiBlICIgLJjKgFRCDUAAkwAG7mAeIyOCOgAAAAAAAAAAAAAAAAAAAAAAAAAAAAA==

> <PUBCHEM_IUPAC_OPENEYE_NAME>
2-[2-cyclopentyl-2-hydroxy-2-(2-thienyl)acetyl]oxyethyl-diethyl-methyl-ammonium bromide

> <PUBCHEM_IUPAC_CAS_NAME>
2-(2-cyclopentyl-2-hydroxy-1-oxo-2-thiophen-2-ylethoxy)ethyl-diethyl-methylammonium bromide

> <PUBCHEM_IUPAC_NAME>
2-(2-cyclopentyl-2-hydroxy-2-thiophen-2-ylacetyl)oxyethyl-diethyl-methylazanium bromide

> <PUBCHEM_IUPAC_SYSTEMATIC_NAME>
2-(2-cyclopentyl-2-oxidanyl-2-thiophen-2-yl-ethanoyl)oxyethyl-diethyl-methyl-azanium bromide

> <PUBCHEM_IUPAC_TRADITIONAL_NAME>
2-[2-cyclopentyl-2-hydroxy-2-(2-thienyl)acetyl]oxyethyl-diethyl-methyl-ammonium bromide

> <PUBCHEM_IUPAC_INCHI>
InChI=1S/C18H30NO3S.BrH/c1-4-19(3,5-2)12-13-22-17(20)18(21,15-9-6-7-10-15)16-11-8-14-23-16;/h8,11,14-15,21H,4-7,9-10,12-13H2,1-3H3;1H/q+1;/p-1

> <PUBCHEM_IUPAC_INCHIKEY>
VWGJUXTWIWCQGL-UHFFFAOYSA-M

> <PUBCHEM_EXACT_MASS>
419.112977

> <PUBCHEM_MOLECULAR_FORMULA>
C18H30BrNO3S

> <PUBCHEM_MOLECULAR_WEIGHT>
420.4047

> <PUBCHEM_OPENEYE_CAN_SMILES>
CC[N+](C)(CC)CCOC(=O)C(C1CCCC1)(C2=CC=CS2)O.[Br-]

> <PUBCHEM_OPENEYE_ISO_SMILES>
CC[N+](C)(CC)CCOC(=O)C(C1CCCC1)(C2=CC=CS2)O.[Br-]

> <PUBCHEM_CACTVS_TPSA>
74.8

> <PUBCHEM_MONOISOTOPIC_WEIGHT>
419.112977

> <PUBCHEM_TOTAL_CHARGE>
0

> <PUBCHEM_HEAVY_ATOM_COUNT>
24

> <PUBCHEM_ATOM_DEF_STEREO_COUNT>
0

> <PUBCHEM_ATOM_UDEF_STEREO_COUNT>
1

> <PUBCHEM_BOND_DEF_STEREO_COUNT>
0

> <PUBCHEM_BOND_UDEF_STEREO_COUNT>
0

> <PUBCHEM_ISOTOPIC_ATOM_COUNT>
0

> <PUBCHEM_COMPONENT_COUNT>
2

> <PUBCHEM_CACTVS_TAUTO_COUNT>
1

> <PUBCHEM_COORDINATE_TYPE>
1
5
255

> <PUBCHEM_BONDANNOTATIONS>
10  15  3
14  20  8
2  14  8
2  24  8
20  23  8
23  24  8

$$$$

