14993
  -OEChem-07051213132D

 48 51  0     0  0  0  0  0  0999 V2000
    5.0000    3.0000    0.0000 O   0  0  0  0  0  0  0  0  0  0  0  0
    5.0000    1.0000    0.0000 N   0  0  0  0  0  0  0  0  0  0  0  0
    5.0000    0.0000    0.0000 C   0  0  0  0  0  0  0  0  0  0  0  0
    5.8660    1.5000    0.0000 C   0  0  0  0  0  0  0  0  0  0  0  0
    4.1340    1.5000    0.0000 C   0  0  0  0  0  0  0  0  0  0  0  0
    5.0000   -1.0000    0.0000 C   0  0  0  0  0  0  0  0  0  0  0  0
    4.0000    0.0000    0.0000 C   0  0  0  0  0  0  0  0  0  0  0  0
    6.0000    0.0000    0.0000 C   0  0  0  0  0  0  0  0  0  0  0  0
    5.8660    2.5000    0.0000 C   0  0  0  0  0  0  0  0  0  0  0  0
    4.1340    2.5000    0.0000 C   0  0  0  0  0  0  0  0  0  0  0  0
    3.5000    0.8660    0.0000 C   0  0  0  0  0  0  0  0  0  0  0  0
    4.1340   -1.5000    0.0000 C   0  0  0  0  0  0  0  0  0  0  0  0
    6.5000   -0.8660    0.0000 C   0  0  0  0  0  0  0  0  0  0  0  0
    6.5000    0.8660    0.0000 C   0  0  0  0  0  0  0  0  0  0  0  0
    3.5000   -0.8660    0.0000 C   0  0  0  0  0  0  0  0  0  0  0  0
    5.8660   -1.5000    0.0000 C   0  0  0  0  0  0  0  0  0  0  0  0
    4.1340   -2.5000    0.0000 C   0  0  0  0  0  0  0  0  0  0  0  0
    2.5000    0.8660    0.0000 C   0  0  0  0  0  0  0  0  0  0  0  0
    7.5000   -0.8660    0.0000 C   0  0  0  0  0  0  0  0  0  0  0  0
    5.8660   -2.5000    0.0000 C   0  0  0  0  0  0  0  0  0  0  0  0
    2.5000   -0.8660    0.0000 C   0  0  0  0  0  0  0  0  0  0  0  0
    7.5000    0.8660    0.0000 C   0  0  0  0  0  0  0  0  0  0  0  0
    5.0000   -3.0000    0.0000 C   0  0  0  0  0  0  0  0  0  0  0  0
    2.0000    0.0000    0.0000 C   0  0  0  0  0  0  0  0  0  0  0  0
    8.0000    0.0000    0.0000 C   0  0  0  0  0  0  0  0  0  0  0  0
    6.0781    0.9174    0.0000 H   0  0  0  0  0  0  0  0  0  0  0  0
    6.4766    1.6077    0.0000 H   0  0  0  0  0  0  0  0  0  0  0  0
    3.5234    1.6077    0.0000 H   0  0  0  0  0  0  0  0  0  0  0  0
    3.9219    0.9174    0.0000 H   0  0  0  0  0  0  0  0  0  0  0  0
    6.4766    2.3923    0.0000 H   0  0  0  0  0  0  0  0  0  0  0  0
    6.0781    3.0826    0.0000 H   0  0  0  0  0  0  0  0  0  0  0  0
    3.9219    3.0826    0.0000 H   0  0  0  0  0  0  0  0  0  0  0  0
    3.5234    2.3923    0.0000 H   0  0  0  0  0  0  0  0  0  0  0  0
    6.1900   -1.4030    0.0000 H   0  0  0  0  0  0  0  0  0  0  0  0
    3.8100    1.4030    0.0000 H   0  0  0  0  0  0  0  0  0  0  0  0
    3.5970   -1.1900    0.0000 H   0  0  0  0  0  0  0  0  0  0  0  0
    6.1900    1.4030    0.0000 H   0  0  0  0  0  0  0  0  0  0  0  0
    3.8100   -1.4030    0.0000 H   0  0  0  0  0  0  0  0  0  0  0  0
    6.4030   -1.1900    0.0000 H   0  0  0  0  0  0  0  0  0  0  0  0
    7.8100   -1.4030    0.0000 H   0  0  0  0  0  0  0  0  0  0  0  0
    3.5970   -2.8100    0.0000 H   0  0  0  0  0  0  0  0  0  0  0  0
    2.1900    1.4030    0.0000 H   0  0  0  0  0  0  0  0  0  0  0  0
    6.4030   -2.8100    0.0000 H   0  0  0  0  0  0  0  0  0  0  0  0
    2.1900   -1.4030    0.0000 H   0  0  0  0  0  0  0  0  0  0  0  0
    7.8100    1.4030    0.0000 H   0  0  0  0  0  0  0  0  0  0  0  0
    5.0000   -3.6200    0.0000 H   0  0  0  0  0  0  0  0  0  0  0  0
    1.3800    0.0000    0.0000 H   0  0  0  0  0  0  0  0  0  0  0  0
    8.6200    0.0000    0.0000 H   0  0  0  0  0  0  0  0  0  0  0  0
  1  9  1  0  0  0  0
  1 10  1  0  0  0  0
  2  3  1  0  0  0  0
  2  4  1  0  0  0  0
  2  5  1  0  0  0  0
  3  6  1  0  0  0  0
  3  7  1  0  0  0  0
  3  8  1  0  0  0  0
  4  9  1  0  0  0  0
  4 26  1  0  0  0  0
  4 27  1  0  0  0  0
  5 10  1  0  0  0  0
  5 28  1  0  0  0  0
  5 29  1  0  0  0  0
  6 12  2  0  0  0  0
  6 16  1  0  0  0  0
  7 11  2  0  0  0  0
  7 15  1  0  0  0  0
  8 13  2  0  0  0  0
  8 14  1  0  0  0  0
  9 30  1  0  0  0  0
  9 31  1  0  0  0  0
 10 32  1  0  0  0  0
 10 33  1  0  0  0  0
 11 18  1  0  0  0  0
 11 35  1  0  0  0  0
 12 17  1  0  0  0  0
 12 36  1  0  0  0  0
 13 19  1  0  0  0  0
 13 34  1  0  0  0  0
 14 22  2  0  0  0  0
 14 37  1  0  0  0  0
 15 21  2  0  0  0  0
 15 38  1  0  0  0  0
 16 20  2  0  0  0  0
 16 39  1  0  0  0  0
 17 23  2  0  0  0  0
 17 41  1  0  0  0  0
 18 24  2  0  0  0  0
 18 42  1  0  0  0  0
 19 25  2  0  0  0  0
 19 40  1  0  0  0  0
 20 23  1  0  0  0  0
 20 43  1  0  0  0  0
 21 24  1  0  0  0  0
 21 44  1  0  0  0  0
 22 25  1  0  0  0  0
 22 45  1  0  0  0  0
 23 46  1  0  0  0  0
 24 47  1  0  0  0  0
 25 48  1  0  0  0  0
M  END
> <PUBCHEM_COMPOUND_CID>
14993

> <PUBCHEM_COMPOUND_CANONICALIZED>
1

> <PUBCHEM_CACTVS_COMPLEXITY>
339

> <PUBCHEM_CACTVS_HBOND_ACCEPTOR>
2

> <PUBCHEM_CACTVS_HBOND_DONOR>
0

> <PUBCHEM_CACTVS_ROTATABLE_BOND>
4

> <PUBCHEM_CACTVS_SUBSKEYS>
AAADceB6IAAAAAAAAAAAAAAAAAAAAAAAAAA8YMEAAAAAAAABUAAAHgAAAAAADIjhmAYwAIMABACAAiBCAACCAAAgAAAIiAAIBIgKICKAkRGHIAhggACYiAcQgMAOgAAAAAAAAAAAAAAAAAAAAAAAAAAAAA==

> <PUBCHEM_IUPAC_OPENEYE_NAME>
4-tritylmorpholine

> <PUBCHEM_IUPAC_CAS_NAME>
4-(triphenylmethyl)morpholine

> <PUBCHEM_IUPAC_NAME>
4-tritylmorpholine

> <PUBCHEM_IUPAC_SYSTEMATIC_NAME>
4-(triphenylmethyl)morpholine

> <PUBCHEM_IUPAC_TRADITIONAL_NAME>
4-tritylmorpholine

> <PUBCHEM_IUPAC_INCHI>
InChI=1S/C23H23NO/c1-4-10-20(11-5-1)23(21-12-6-2-7-13-21,22-14-8-3-9-15-22)24-16-18-25-19-17-24/h1-15H,16-19H2

> <PUBCHEM_IUPAC_INCHIKEY>
ZJMLMBICUVVJDX-UHFFFAOYSA-N

> <PUBCHEM_XLOGP3_AA>
4.6

> <PUBCHEM_EXACT_MASS>
329.177964

> <PUBCHEM_MOLECULAR_FORMULA>
C23H23NO

> <PUBCHEM_MOLECULAR_WEIGHT>
329.43482

> <PUBCHEM_OPENEYE_CAN_SMILES>
C1COCCN1C(C2=CC=CC=C2)(C3=CC=CC=C3)C4=CC=CC=C4

> <PUBCHEM_OPENEYE_ISO_SMILES>
C1COCCN1C(C2=CC=CC=C2)(C3=CC=CC=C3)C4=CC=CC=C4

> <PUBCHEM_CACTVS_TPSA>
12.5

> <PUBCHEM_MONOISOTOPIC_WEIGHT>
329.177964

> <PUBCHEM_TOTAL_CHARGE>
0

> <PUBCHEM_HEAVY_ATOM_COUNT>
25

> <PUBCHEM_ATOM_DEF_STEREO_COUNT>
0

> <PUBCHEM_ATOM_UDEF_STEREO_COUNT>
0

> <PUBCHEM_BOND_DEF_STEREO_COUNT>
0

> <PUBCHEM_BOND_UDEF_STEREO_COUNT>
0

> <PUBCHEM_ISOTOPIC_ATOM_COUNT>
0

> <PUBCHEM_COMPONENT_COUNT>
1

> <PUBCHEM_CACTVS_TAUTO_COUNT>
1

> <PUBCHEM_COORDINATE_TYPE>
1
5
255

> <PUBCHEM_BONDANNOTATIONS>
11  18  8
12  17  8
13  19  8
14  22  8
15  21  8
16  20  8
17  23  8
18  24  8
19  25  8
20  23  8
21  24  8
22  25  8
6  12  8
6  16  8
7  11  8
7  15  8
8  13  8
8  14  8

$$$$

