443699
  -OEChem-07051213022D

 32 35  0     1  0  0  0  0  0999 V2000
    3.8372   -3.3875    0.0000 O   0  0  0  0  0  0  0  0  0  0  0  0
    5.3871    2.9763    0.0000 O   0  0  0  0  0  0  0  0  0  0  0  0
    3.9933    3.7811    0.0000 O   0  0  0  0  0  0  0  0  0  0  0  0
    2.0000   -0.2392    0.0000 N   0  0  0  0  0  0  0  0  0  0  0  0
    2.8937   -1.8450    0.0000 C   0  0  0  0  0  0  0  0  0  0  0  0
    3.8001   -0.2323    0.0000 C   0  0  0  0  0  0  0  0  0  0  0  0
    3.8334   -2.3875    0.0000 C   0  0  3  0  0  0  0  0  0  0  0  0
    2.9021   -0.7600    0.0000 C   0  0  0  0  0  0  0  0  0  0  0  0
    3.7841    0.8093    0.0000 C   0  0  0  0  0  0  0  0  0  0  0  0
    2.9180    1.3092    0.0000 C   0  0  0  0  0  0  0  0  0  0  0  0
    4.7520   -0.7529    0.0000 C   0  0  0  0  0  0  0  0  0  0  0  0
    4.7688   -1.8378    0.0000 C   0  0  0  0  0  0  0  0  0  0  0  0
    4.6501    1.3092    0.0000 C   0  0  0  0  0  0  0  0  0  0  0  0
    4.6501    2.3092    0.0000 C   0  0  0  0  0  0  0  0  0  0  0  0
    2.9180    2.3092    0.0000 C   0  0  0  0  0  0  0  0  0  0  0  0
    3.7841    2.8092    0.0000 C   0  0  0  0  0  0  0  0  0  0  0  0
    2.0080    0.8024    0.0000 C   0  0  0  0  0  0  0  0  0  0  0  0
    4.9820    3.8841    0.0000 C   0  0  0  0  0  0  0  0  0  0  0  0
    4.7052   -3.8841    0.0000 C   0  0  0  0  0  0  0  0  0  0  0  0
    2.2837   -1.7342    0.0000 H   0  0  0  0  0  0  0  0  0  0  0  0
    2.6802   -2.4270    0.0000 H   0  0  0  0  0  0  0  0  0  0  0  0
    3.2970   -2.6985    0.0000 H   0  0  0  0  0  0  0  0  0  0  0  0
    5.2829   -0.4326    0.0000 H   0  0  0  0  0  0  0  0  0  0  0  0
    5.3093   -2.1415    0.0000 H   0  0  0  0  0  0  0  0  0  0  0  0
    5.1870    0.9993    0.0000 H   0  0  0  0  0  0  0  0  0  0  0  0
    2.3811    2.6192    0.0000 H   0  0  0  0  0  0  0  0  0  0  0  0
    1.4747    1.1186    0.0000 H   0  0  0  0  0  0  0  0  0  0  0  0
    5.5716    4.0759    0.0000 H   0  0  0  0  0  0  0  0  0  0  0  0
    4.8532    4.4906    0.0000 H   0  0  0  0  0  0  0  0  0  0  0  0
    4.3972   -4.4222    0.0000 H   0  0  0  0  0  0  0  0  0  0  0  0
    5.2433   -4.1920    0.0000 H   0  0  0  0  0  0  0  0  0  0  0  0
    5.0131   -3.3460    0.0000 H   0  0  0  0  0  0  0  0  0  0  0  0
  1  7  1  0  0  0  0
  1 19  1  0  0  0  0
  2 14  1  0  0  0  0
  2 18  1  0  0  0  0
  3 16  1  0  0  0  0
  3 18  1  0  0  0  0
  4  8  1  0  0  0  0
  4 17  2  0  0  0  0
  5  7  1  0  0  0  0
  5  8  1  0  0  0  0
  5 20  1  0  0  0  0
  5 21  1  0  0  0  0
  6  8  2  0  0  0  0
  6  9  1  0  0  0  0
  6 11  1  0  0  0  0
  7 12  1  0  0  0  0
  7 22  1  0  0  0  0
  9 10  1  0  0  0  0
  9 13  2  0  0  0  0
 10 15  2  0  0  0  0
 10 17  1  0  0  0  0
 11 12  2  0  0  0  0
 11 23  1  0  0  0  0
 12 24  1  0  0  0  0
 13 14  1  0  0  0  0
 13 25  1  0  0  0  0
 14 16  2  0  0  0  0
 15 16  1  0  0  0  0
 15 26  1  0  0  0  0
 17 27  1  0  0  0  0
 18 28  1  0  0  0  0
 18 29  1  0  0  0  0
 19 30  1  0  0  0  0
 19 31  1  0  0  0  0
 19 32  1  0  0  0  0
M  END
> <PUBCHEM_COMPOUND_CID>
443699

> <PUBCHEM_COMPOUND_CANONICALIZED>
1

> <PUBCHEM_CACTVS_COMPLEXITY>
372

> <PUBCHEM_CACTVS_HBOND_ACCEPTOR>
4

> <PUBCHEM_CACTVS_HBOND_DONOR>
0

> <PUBCHEM_CACTVS_ROTATABLE_BOND>
1

> <PUBCHEM_CACTVS_SUBSKEYS>
AAADccByMAAAAAAAAAAAAAAAAAAAASAAAAA8QIAAAAAAAEix8AAAHgAAAAAADBzhngc+jtIIFACgAzRnRACCiCAxICAI2CA+zJgdJuLEsZukMCpmwBHO6Aew0PMOoAABAAAQQABAAAIAACCAAAAAAAAAAA==

> <PUBCHEM_IUPAC_OPENEYE_NAME>
3-methoxy-3,4-dihydro-[1,3]dioxolo[4,5-j]phenanthridine

> <PUBCHEM_IUPAC_CAS_NAME>
3-methoxy-3,4-dihydro-[1,3]dioxolo[4,5-j]phenanthridine

> <PUBCHEM_IUPAC_NAME>
3-methoxy-3,4-dihydro-[1,3]dioxolo[4,5-j]phenanthridine

> <PUBCHEM_IUPAC_SYSTEMATIC_NAME>
3-methoxy-3,4-dihydro-[1,3]dioxolo[4,5-j]phenanthridine

> <PUBCHEM_IUPAC_TRADITIONAL_NAME>
3-methoxy-3,4-dihydro-[1,3]dioxolo[4,5-j]phenanthridine

> <PUBCHEM_IUPAC_INCHI>
InChI=1S/C15H13NO3/c1-17-10-2-3-11-12-6-15-14(18-8-19-15)4-9(12)7-16-13(11)5-10/h2-4,6-7,10H,5,8H2,1H3

> <PUBCHEM_IUPAC_INCHIKEY>
OIOVDHXEPUXTQZ-UHFFFAOYSA-N

> <PUBCHEM_XLOGP3_AA>
2.5

> <PUBCHEM_EXACT_MASS>
255.089543

> <PUBCHEM_MOLECULAR_FORMULA>
C15H13NO3

> <PUBCHEM_MOLECULAR_WEIGHT>
255.26862

> <PUBCHEM_OPENEYE_CAN_SMILES>
COC1CC2=C(C=C1)C3=CC4=C(C=C3C=N2)OCO4

> <PUBCHEM_OPENEYE_ISO_SMILES>
COC1CC2=C(C=C1)C3=CC4=C(C=C3C=N2)OCO4

> <PUBCHEM_CACTVS_TPSA>
40.6

> <PUBCHEM_MONOISOTOPIC_WEIGHT>
255.089543

> <PUBCHEM_TOTAL_CHARGE>
0

> <PUBCHEM_HEAVY_ATOM_COUNT>
19

> <PUBCHEM_ATOM_DEF_STEREO_COUNT>
0

> <PUBCHEM_ATOM_UDEF_STEREO_COUNT>
1

> <PUBCHEM_BOND_DEF_STEREO_COUNT>
0

> <PUBCHEM_BOND_UDEF_STEREO_COUNT>
0

> <PUBCHEM_ISOTOPIC_ATOM_COUNT>
0

> <PUBCHEM_COMPONENT_COUNT>
1

> <PUBCHEM_CACTVS_TAUTO_COUNT>
1

> <PUBCHEM_COORDINATE_TYPE>
1
5
255

> <PUBCHEM_BONDANNOTATIONS>
7  1  3
10  15  8
10  17  8
13  14  8
14  16  8
15  16  8
4  17  8
4  8  8
6  8  8
6  9  8
9  10  8
9  13  8

$$$$

