   Color/Form

     * Crystals from butyl chloride
     * White solid
     * Colorless crystals

   from [1]HSDB

   Melting Point
        181 deg C
   from [2]HSDB

   Density/Specific Gravity
        1.51 at 25 deg C
   from [3]HSDB

   Dissociation Constants
        pKa = 4.20
   from [4]HSDB

   Octanol/Water Partition Coefficient
        log Kow = 2.50
   from [5]HSDB

   Solubilities

     * Low solubility in organic solvents.
     * Solubility (ppm): acetone 71,000; acetonitrile 31,000, benzene
       8000, methylene chloride 153,000, water (pH 7) 1200, (pH 6.5) 450,
       (pH 5) 11.
     * In water, 1.20X10+3 mg/L at 25 deg C, pH 7

   from [6]HSDB

   Vapor Pressure
        4.0X10-12 mm Hg at 25 deg C
   from [7]HSDB

   Other Chemical/Physical Properties

     * Henry's Law constant = 1.82X10-15 atm-cu m/mol at 25 deg C, pH 7
       (est)
     * Hydroxyl radical reaction rate constant = 4.27X10-11 cu
       cm/molec-sec at 25 deg C (est)

   from [8]HSDB

   Computed Properties
   Molecular Weight                  414.8208 [g/mol]
   Molecular Formula                 C[15]H[15]ClN[4]O[6]S
   XLogP3-AA                         2.7
   H-Bond Donor                      2
   H-Bond Acceptor                   8
   Rotatable Bond Count              7
   Tautomer Count                    7
   Exact Mass                        414.040083
   MonoIsotopic Mass                 414.040083
   Topological Polar Surface Area    145
   Heavy Atom Count                  27
   Formal Charge                     0
   Complexity                        628
   Isotope Atom Count                0
   Defined Atom Stereocenter Count   0
   Undefined Atom Stereocenter Count 0
   Defined Bond Stereocenter Count   0
   Undefined Bond Stereocenter Count 0
   Covalently-Bonded Unit Count      1
   Feature 3D Acceptor Count         6
   Feature 3D Donor Count            2
   Feature 3D Ring Count             2
   Effective Rotor Count             9
   Conformer Sampling RMSD           1
   CID Conformer Count               [9]127

References

   1. http://toxnet.nlm.nih.gov/cgi-bin/sis/search/r?dbs+hsdb:@term+@rn+@rel+90982-32-4
   2. http://toxnet.nlm.nih.gov/cgi-bin/sis/search/r?dbs+hsdb:@term+@rn+@rel+90982-32-4
   3. http://toxnet.nlm.nih.gov/cgi-bin/sis/search/r?dbs+hsdb:@term+@rn+@rel+90982-32-4
   4. http://toxnet.nlm.nih.gov/cgi-bin/sis/search/r?dbs+hsdb:@term+@rn+@rel+90982-32-4
   5. http://toxnet.nlm.nih.gov/cgi-bin/sis/search/r?dbs+hsdb:@term+@rn+@rel+90982-32-4
   6. http://toxnet.nlm.nih.gov/cgi-bin/sis/search/r?dbs+hsdb:@term+@rn+@rel+90982-32-4
   7. http://toxnet.nlm.nih.gov/cgi-bin/sis/search/r?dbs+hsdb:@term+@rn+@rel+90982-32-4
   8. http://toxnet.nlm.nih.gov/cgi-bin/sis/search/r?dbs+hsdb:@term+@rn+@rel+90982-32-4
   9. http://pubchem.ncbi.nlm.nih.gov/vw3d/vw3d.cgi?cid=56160
