250817
  -OEChem-07051213062D

 38 41  0     0  0  0  0  0  0999 V2000
    7.1393   -0.6281    0.0000 O   0  0  0  0  0  0  0  0  0  0  0  0
    9.2833    1.4404    0.0000 O   0  0  0  0  0  0  0  0  0  0  0  0
    3.6498    0.2761    0.0000 O   0  0  0  0  0  0  0  0  0  0  0  0
    7.9961    2.5994    0.0000 O   0  0  0  0  0  0  0  0  0  0  0  0
   11.9228   -0.9038    0.0000 O   0  0  0  0  0  0  0  0  0  0  0  0
    3.2817    1.9686    0.0000 O   0  0  0  0  0  0  0  0  0  0  0  0
   11.5693   -2.5994    0.0000 O   0  0  0  0  0  0  0  0  0  0  0  0
    7.6360    0.9052    0.0000 C   0  0  0  0  0  0  0  0  0  0  0  0
    7.9450   -0.0459    0.0000 C   0  0  0  0  0  0  0  0  0  0  0  0
    6.6419    0.9026    0.0000 C   0  0  0  0  0  0  0  0  0  0  0  0
    8.9232   -0.2538    0.0000 C   0  0  0  0  0  0  0  0  0  0  0  0
    6.3356   -0.0431    0.0000 C   0  0  0  0  0  0  0  0  0  0  0  0
    9.5923    0.4893    0.0000 C   0  0  0  0  0  0  0  0  0  0  0  0
    8.3052    1.6483    0.0000 C   0  0  0  0  0  0  0  0  0  0  0  0
    5.9604    1.6821    0.0000 C   0  0  0  0  0  0  0  0  0  0  0  0
    5.3264   -0.2749    0.0000 C   0  0  0  0  0  0  0  0  0  0  0  0
    9.2297   -1.2493    0.0000 C   0  0  0  0  0  0  0  0  0  0  0  0
   10.6144    0.2885    0.0000 C   0  0  0  0  0  0  0  0  0  0  0  0
    4.6269    0.4887    0.0000 C   0  0  0  0  0  0  0  0  0  0  0  0
    4.9461    1.4737    0.0000 C   0  0  0  0  0  0  0  0  0  0  0  0
   10.9439   -0.6996    0.0000 C   0  0  0  0  0  0  0  0  0  0  0  0
   10.2469   -1.4737    0.0000 C   0  0  0  0  0  0  0  0  0  0  0  0
    2.9772    1.0161    0.0000 C   0  0  0  0  0  0  0  0  0  0  0  0
   12.2355   -1.8536    0.0000 C   0  0  0  0  0  0  0  0  0  0  0  0
    2.0000    0.8036    0.0000 C   0  0  0  0  0  0  0  0  0  0  0  0
   13.2145   -2.0578    0.0000 C   0  0  0  0  0  0  0  0  0  0  0  0
    6.1582    2.2696    0.0000 H   0  0  0  0  0  0  0  0  0  0  0  0
    5.1421   -0.8669    0.0000 H   0  0  0  0  0  0  0  0  0  0  0  0
    8.8096   -1.7052    0.0000 H   0  0  0  0  0  0  0  0  0  0  0  0
   11.0239    0.7540    0.0000 H   0  0  0  0  0  0  0  0  0  0  0  0
    4.5326    1.9357    0.0000 H   0  0  0  0  0  0  0  0  0  0  0  0
   10.4362   -2.0641    0.0000 H   0  0  0  0  0  0  0  0  0  0  0  0
    1.8682    1.4094    0.0000 H   0  0  0  0  0  0  0  0  0  0  0  0
    1.3942    0.6718    0.0000 H   0  0  0  0  0  0  0  0  0  0  0  0
    2.1318    0.1978    0.0000 H   0  0  0  0  0  0  0  0  0  0  0  0
   13.0879   -2.6647    0.0000 H   0  0  0  0  0  0  0  0  0  0  0  0
   13.8214   -2.1843    0.0000 H   0  0  0  0  0  0  0  0  0  0  0  0
   13.3410   -1.4508    0.0000 H   0  0  0  0  0  0  0  0  0  0  0  0
  1  9  1  0  0  0  0
  1 12  1  0  0  0  0
  2 13  1  0  0  0  0
  2 14  1  0  0  0  0
  3 19  1  0  0  0  0
  3 23  1  0  0  0  0
  4 14  2  0  0  0  0
  5 21  1  0  0  0  0
  5 24  1  0  0  0  0
  6 23  2  0  0  0  0
  7 24  2  0  0  0  0
  8  9  2  0  0  0  0
  8 10  1  0  0  0  0
  8 14  1  0  0  0  0
  9 11  1  0  0  0  0
 10 12  2  0  0  0  0
 10 15  1  0  0  0  0
 11 13  2  0  0  0  0
 11 17  1  0  0  0  0
 12 16  1  0  0  0  0
 13 18  1  0  0  0  0
 15 20  2  0  0  0  0
 15 27  1  0  0  0  0
 16 19  2  0  0  0  0
 16 28  1  0  0  0  0
 17 22  2  0  0  0  0
 17 29  1  0  0  0  0
 18 21  2  0  0  0  0
 18 30  1  0  0  0  0
 19 20  1  0  0  0  0
 20 31  1  0  0  0  0
 21 22  1  0  0  0  0
 22 32  1  0  0  0  0
 23 25  1  0  0  0  0
 24 26  1  0  0  0  0
 25 33  1  0  0  0  0
 25 34  1  0  0  0  0
 25 35  1  0  0  0  0
 26 36  1  0  0  0  0
 26 37  1  0  0  0  0
 26 38  1  0  0  0  0
M  END
> <PUBCHEM_COMPOUND_CID>
250817

> <PUBCHEM_COMPOUND_CANONICALIZED>
1

> <PUBCHEM_CACTVS_COMPLEXITY>
603

> <PUBCHEM_CACTVS_HBOND_ACCEPTOR>
7

> <PUBCHEM_CACTVS_HBOND_DONOR>
0

> <PUBCHEM_CACTVS_ROTATABLE_BOND>
4

> <PUBCHEM_CACTVS_SUBSKEYS>
AAADccB4OAAAAAAAAAAAAAAAAAAAASAAAAA0YIAAAAAAAEiR9AAAGgAAAAAADASAmAAyDsAABECIAqDSCAACCAAkIAAIiAEGCMgMJzaMNRqCO2Cl4BUIqYfL7PzOoAAACAAIAABAAAAQABAAAAAAAAAAAA==

> <PUBCHEM_IUPAC_OPENEYE_NAME>
(3-acetoxy-6-oxo-benzofuro[3,2-c]chromen-9-yl) acetate

> <PUBCHEM_IUPAC_CAS_NAME>
acetic acid (3-acetyloxy-6-oxo-9-benzofuro[3,2-c][1]benzopyranyl) ester

> <PUBCHEM_IUPAC_NAME>
(3-acetyloxy-6-oxo-[1]benzofuro[3,2-c]chromen-9-yl) acetate

> <PUBCHEM_IUPAC_SYSTEMATIC_NAME>
(3-acetyloxy-6-oxidanylidene-[1]benzofuro[3,2-c]chromen-9-yl) ethanoate

> <PUBCHEM_IUPAC_TRADITIONAL_NAME>
acetic acid (3-acetoxy-6-keto-benzofuro[3,2-c]chromen-9-yl) ester

> <PUBCHEM_IUPAC_INCHI>
InChI=1S/C19H12O7/c1-9(20)23-11-3-5-13-15(7-11)25-18-14-6-4-12(24-10(2)21)8-16(14)26-19(22)17(13)18/h3-8H,1-2H3

> <PUBCHEM_IUPAC_INCHIKEY>
AHOLUZZXIVWXQQ-UHFFFAOYSA-N

> <PUBCHEM_XLOGP3_AA>
3

> <PUBCHEM_EXACT_MASS>
352.058303

> <PUBCHEM_MOLECULAR_FORMULA>
C19H12O7

> <PUBCHEM_MOLECULAR_WEIGHT>
352.29438

> <PUBCHEM_OPENEYE_CAN_SMILES>
CC(=O)OC1=CC2=C(C=C1)C3=C(O2)C4=C(C=C(C=C4)OC(=O)C)OC3=O

> <PUBCHEM_OPENEYE_ISO_SMILES>
CC(=O)OC1=CC2=C(C=C1)C3=C(O2)C4=C(C=C(C=C4)OC(=O)C)OC3=O

> <PUBCHEM_CACTVS_TPSA>
92

> <PUBCHEM_MONOISOTOPIC_WEIGHT>
352.058303

> <PUBCHEM_TOTAL_CHARGE>
0

> <PUBCHEM_HEAVY_ATOM_COUNT>
26

> <PUBCHEM_ATOM_DEF_STEREO_COUNT>
0

> <PUBCHEM_ATOM_UDEF_STEREO_COUNT>
0

> <PUBCHEM_BOND_DEF_STEREO_COUNT>
0

> <PUBCHEM_BOND_UDEF_STEREO_COUNT>
0

> <PUBCHEM_ISOTOPIC_ATOM_COUNT>
0

> <PUBCHEM_COMPONENT_COUNT>
1

> <PUBCHEM_CACTVS_TAUTO_COUNT>
1

> <PUBCHEM_COORDINATE_TYPE>
1
5
255

> <PUBCHEM_BONDANNOTATIONS>
1  12  8
1  9  8
10  12  8
10  15  8
11  13  8
11  17  8
12  16  8
13  18  8
15  20  8
16  19  8
17  22  8
18  21  8
19  20  8
2  13  8
2  14  8
21  22  8
8  10  8
8  14  8
8  9  8
9  11  8

$$$$

