   Color/Form
        Crystals from hexane
   from [1]HSDB

   Boiling Point
        159 deg C at 0.02 mm Hg
   from [2]HSDB

   Melting Point
        62 deg C
   from [3]HSDB

   Dissociation Constants
        pKa = 4.5 (carboxylic acid) (est)
   from [4]HSDB

   Octanol/Water Partition Coefficient
        log Kow = 4.77 (est)
   from [5]HSDB

   Solubilities
        In water, 11 mg/L at 25 deg C (est)
   from [6]HSDB

   Vapor Pressure
        3.1X10-5 mm Hg at 25 deg C (est)
   from [7]HSDB

   Other Chemical/Physical Properties

     * Henry's Law constant = 1.2X10-8 atm-cu m/mol at 25 def C (est)
     * Hydroxyl radical reaction rate constant = 8.2X10-11 cu cm/molec-sec
       at 25 deg C (est)

   from [8]HSDB

   Computed Properties
   Molecular Weight                  250.33338 [g/mol]
   Molecular Formula                 C[15]H[22]O[3]
   XLogP3-AA                         3.8
   H-Bond Donor                      1
   H-Bond Acceptor                   3
   Rotatable Bond Count              6
   Exact Mass                        250.156895
   MonoIsotopic Mass                 250.156895
   Topological Polar Surface Area    46.5
   Heavy Atom Count                  18
   Formal Charge                     0
   Complexity                        273
   Isotope Atom Count                0
   Defined Atom Stereocenter Count   0
   Undefined Atom Stereocenter Count 0
   Defined Bond Stereocenter Count   0
   Undefined Bond Stereocenter Count 0
   Covalently-Bonded Unit Count      1
   Feature 3D Acceptor Count         3
   Feature 3D Anion Count            1
   Feature 3D Hydrophobe Count       1
   Feature 3D Ring Count             1
   Effective Rotor Count             6
   Conformer Sampling RMSD           0.8
   CID Conformer Count               [9]75

References

   1. http://toxnet.nlm.nih.gov/cgi-bin/sis/search/r?dbs+hsdb:@term+@rn+@rel+25812-30-0
   2. http://toxnet.nlm.nih.gov/cgi-bin/sis/search/r?dbs+hsdb:@term+@rn+@rel+25812-30-0
   3. http://toxnet.nlm.nih.gov/cgi-bin/sis/search/r?dbs+hsdb:@term+@rn+@rel+25812-30-0
   4. http://toxnet.nlm.nih.gov/cgi-bin/sis/search/r?dbs+hsdb:@term+@rn+@rel+25812-30-0
   5. http://toxnet.nlm.nih.gov/cgi-bin/sis/search/r?dbs+hsdb:@term+@rn+@rel+25812-30-0
   6. http://toxnet.nlm.nih.gov/cgi-bin/sis/search/r?dbs+hsdb:@term+@rn+@rel+25812-30-0
   7. http://toxnet.nlm.nih.gov/cgi-bin/sis/search/r?dbs+hsdb:@term+@rn+@rel+25812-30-0
   8. http://toxnet.nlm.nih.gov/cgi-bin/sis/search/r?dbs+hsdb:@term+@rn+@rel+25812-30-0
   9. http://pubchem.ncbi.nlm.nih.gov/vw3d/vw3d.cgi?cid=3463
