   Chemical and Physical Properties References

   [1]USDA ARS - USDA chemical properties
   from [2]ChemIDplus

   Color/Form

     * White crystalline powder
     * Colorless to yellow, crystalline solid. (Note: commercial pesticide
       product may be dyed blue.)

   from [3]HSDB

   Odor
        Characteristic odor
   from [4]HSDB

   Boiling Point
        129 deg C at 20 mm Hg
   from [5]HSDB

   Melting Point
        155-156 deg C
   from [6]HSDB

   Corrosivity
        Non-corrosive in the dry state.
   from [7]HSDB

   Density/Specific Gravity
        1.3 g/cu cm
   from [8]HSDB

   Octanol/Water Partition Coefficient
        log Kow = 1.73
   from [9]HSDB

   Solubilities

     * Solubility in alcohol and in ether less than 0.2%; solubility in
       acetone 1.2%; in benzene 2.5%.
     * Sol in carbon disulfide
     * Solubility in ethanol <10 g/L at 25 deg C, acetone 80 g/L at 25 deg
       C, chloroform 230 g/L at 25 deg C, hexane 0.04 g/L at 20 deg C;
       dichloromethane 170 g/L at 20 deg C, toluene 18 g/L at 20 deg C,
       isopropanol 0.7 g/L at 20 deg C.
     * In water, 30 mg/L at 25 deg C

   from [10]HSDB

   Spectral Properties

     * MAX ABSORPTION (CHLOROFORM): 243 NM (LOG E= 4.1), 282 NM (LOG E=
       4.06)
     * IR: 21299 (Sadtler Research Laboratories IR Grating Collection)
     * NMR: 6403 (Sadtler Research Laboratories Spectral Collection)
     * MASS: 11630 (NIST/EPA/MSDC Mass Spectral Database, 1990 Version)
     * Raman: 117 (Sadtler Research Laboratories Spectral Collection)
     * Intense mass spectral peaks: 88 m/z (100%), 120 m/z (24%), 44 m/z
       (16%), 240 m/z (14%)

   from [11]HSDB

   Vapor Pressure
        1.72X10-5 mm Hg at 25 deg C
   from [12]HSDB

   Other Chemical/Physical Properties

     * MP: 146 deg C /Commercial grade/
     * Henry's Law constant = 3.26X10-7 atm-cu m/mol at 25 deg C
     * Hydroxyl radical reaction rate constant = 5.62X10-10 cu cm/molecule
       sec at 25 deg C (est)

   from [13]HSDB

   Computed Properties
   Molecular Weight                  240.43288 [g/mol]
   Molecular Formula                 C[6]H[12]N[2]S[4]
   XLogP3-AA                         1.7
   H-Bond Donor                      0
   H-Bond Acceptor                   4
   Rotatable Bond Count              3
   Exact Mass                        239.988332
   MonoIsotopic Mass                 239.988332
   Topological Polar Surface Area    121
   Heavy Atom Count                  12
   Formal Charge                     0
   Complexity                        158
   Isotope Atom Count                0
   Defined Atom Stereocenter Count   0
   Undefined Atom Stereocenter Count 0
   Defined Bond Stereocenter Count   0
   Undefined Bond Stereocenter Count 0
   Covalently-Bonded Unit Count      1
   Feature 3D Acceptor Count         2
   Effective Rotor Count             5
   Conformer Sampling RMSD           0.6
   CID Conformer Count               [14]147

References

   1. http://www.ars.usda.gov/SP2UserFiles/ad_hoc/12755100DatabaseFiles/PesticidePropertiesDatabase/IndividualPesticideFiles/THIRAM.TXT
   2. http://chem.sis.nlm.nih.gov/chemidplus/
   3. http://toxnet.nlm.nih.gov/cgi-bin/sis/search/r?dbs+hsdb:@term+@rn+@rel+137-26-8
   4. http://toxnet.nlm.nih.gov/cgi-bin/sis/search/r?dbs+hsdb:@term+@rn+@rel+137-26-8
   5. http://toxnet.nlm.nih.gov/cgi-bin/sis/search/r?dbs+hsdb:@term+@rn+@rel+137-26-8
   6. http://toxnet.nlm.nih.gov/cgi-bin/sis/search/r?dbs+hsdb:@term+@rn+@rel+137-26-8
   7. http://toxnet.nlm.nih.gov/cgi-bin/sis/search/r?dbs+hsdb:@term+@rn+@rel+137-26-8
   8. http://toxnet.nlm.nih.gov/cgi-bin/sis/search/r?dbs+hsdb:@term+@rn+@rel+137-26-8
   9. http://toxnet.nlm.nih.gov/cgi-bin/sis/search/r?dbs+hsdb:@term+@rn+@rel+137-26-8
  10. http://toxnet.nlm.nih.gov/cgi-bin/sis/search/r?dbs+hsdb:@term+@rn+@rel+137-26-8
  11. http://toxnet.nlm.nih.gov/cgi-bin/sis/search/r?dbs+hsdb:@term+@rn+@rel+137-26-8
  12. http://toxnet.nlm.nih.gov/cgi-bin/sis/search/r?dbs+hsdb:@term+@rn+@rel+137-26-8
  13. http://toxnet.nlm.nih.gov/cgi-bin/sis/search/r?dbs+hsdb:@term+@rn+@rel+137-26-8
  14. http://pubchem.ncbi.nlm.nih.gov/vw3d/vw3d.cgi?cid=5455
