73401
  -OEChem-07051212562D

 52 55  0     1  0  0  0  0  0999 V2000
    4.3009    3.1212    0.0000 O   0  0  0  0  0  0  0  0  0  0  0  0
    4.4924   -0.7879    0.0000 O   0  0  0  0  0  0  0  0  0  0  0  0
    2.7696    3.9839    0.0000 O   0  0  0  0  0  0  0  0  0  0  0  0
    6.3685   -3.4839    0.0000 O   0  0  0  0  0  0  0  0  0  0  0  0
    3.8000    0.6969    0.0000 C   0  0  1  0  0  0  0  0  0  0  0  0
    3.8000    1.6969    0.0000 C   0  0  2  0  0  0  0  0  0  0  0  0
    4.6660    0.1969    0.0000 C   0  0  1  0  0  0  0  0  0  0  0  0
    2.9061    2.2315    0.0000 C   0  0  2  0  0  0  0  0  0  0  0  0
    4.6660    2.1969    0.0000 C   0  0  1  0  0  0  0  0  0  0  0  0
    5.5321    0.6969    0.0000 C   0  0  1  0  0  0  0  0  0  0  0  0
    2.9061    0.1622    0.0000 C   0  0  0  0  0  0  0  0  0  0  0  0
    5.5321    1.6969    0.0000 C   0  0  0  0  0  0  0  0  0  0  0  0
    2.0000    1.7177    0.0000 C   0  0  0  0  0  0  0  0  0  0  0  0
    2.0000    0.6761    0.0000 C   0  0  0  0  0  0  0  0  0  0  0  0
    3.4581   -0.2428    0.0000 C   0  0  0  0  0  0  0  0  0  0  0  0
    5.1660   -0.6691    0.0000 C   0  0  0  0  0  0  0  0  0  0  0  0
    3.3073    3.1408    0.0000 C   0  0  0  0  0  0  0  0  0  0  0  0
    2.4161    3.1033    0.0000 C   0  0  0  0  0  0  0  0  0  0  0  0
    6.3981    0.1969    0.0000 C   0  0  0  0  0  0  0  0  0  0  0  0
    4.6660   -1.5352    0.0000 C   0  0  0  0  0  0  0  0  0  0  0  0
    5.1660   -2.4012    0.0000 C   0  0  0  0  0  0  0  0  0  0  0  0
    4.7593   -3.3147    0.0000 C   0  0  0  0  0  0  0  0  0  0  0  0
    6.1606   -2.5057    0.0000 C   0  0  0  0  0  0  0  0  0  0  0  0
    5.5024   -3.9839    0.0000 C   0  0  0  0  0  0  0  0  0  0  0  0
    3.0639    1.2719    0.0000 H   0  0  0  0  0  0  0  0  0  0  0  0
    5.3097    2.7520    0.0000 H   0  0  0  0  0  0  0  0  0  0  0  0
    5.5321    0.0769    0.0000 H   0  0  0  0  0  0  0  0  0  0  0  0
    2.5124   -0.3168    0.0000 H   0  0  0  0  0  0  0  0  0  0  0  0
    3.3107   -0.3076    0.0000 H   0  0  0  0  0  0  0  0  0  0  0  0
    6.1426    1.5892    0.0000 H   0  0  0  0  0  0  0  0  0  0  0  0
    5.7441    2.2795    0.0000 H   0  0  0  0  0  0  0  0  0  0  0  0
    1.7909    2.3014    0.0000 H   0  0  0  0  0  0  0  0  0  0  0  0
    1.3891    1.6116    0.0000 H   0  0  0  0  0  0  0  0  0  0  0  0
    1.3891    0.7822    0.0000 H   0  0  0  0  0  0  0  0  0  0  0  0
    1.7909    0.0924    0.0000 H   0  0  0  0  0  0  0  0  0  0  0  0
    2.8754   -0.0309    0.0000 H   0  0  0  0  0  0  0  0  0  0  0  0
    3.2461   -0.8255    0.0000 H   0  0  0  0  0  0  0  0  0  0  0  0
    4.0407   -0.4548    0.0000 H   0  0  0  0  0  0  0  0  0  0  0  0
    5.6410   -1.0677    0.0000 H   0  0  0  0  0  0  0  0  0  0  0  0
    5.6410   -0.2706    0.0000 H   0  0  0  0  0  0  0  0  0  0  0  0
    2.9566    3.4071    0.0000 H   0  0  0  0  0  0  0  0  0  0  0  0
    2.1123    3.6438    0.0000 H   0  0  0  0  0  0  0  0  0  0  0  0
    1.8756    2.7995    0.0000 H   0  0  0  0  0  0  0  0  0  0  0  0
    6.0881   -0.3401    0.0000 H   0  0  0  0  0  0  0  0  0  0  0  0
    6.9350   -0.1131    0.0000 H   0  0  0  0  0  0  0  0  0  0  0  0
    6.7081    0.7338    0.0000 H   0  0  0  0  0  0  0  0  0  0  0  0
    3.9098   -1.0000    0.0000 H   0  0  0  0  0  0  0  0  0  0  0  0
    4.1911   -1.1366    0.0000 H   0  0  0  0  0  0  0  0  0  0  0  0
    4.1911   -1.9337    0.0000 H   0  0  0  0  0  0  0  0  0  0  0  0
    4.1528   -3.4436    0.0000 H   0  0  0  0  0  0  0  0  0  0  0  0
    6.5754   -2.0450    0.0000 H   0  0  0  0  0  0  0  0  0  0  0  0
    5.4376   -4.6005    0.0000 H   0  0  0  0  0  0  0  0  0  0  0  0
  1  9  1  0  0  0  0
  1 17  1  0  0  0  0
  7  2  1  1  0  0  0
  2 47  1  0  0  0  0
  3 17  2  0  0  0  0
  4 23  1  0  0  0  0
  4 24  1  0  0  0  0
  5  6  1  0  0  0  0
  5  7  1  0  0  0  0
  5 11  1  0  0  0  0
  5 15  1  6  0  0  0
  6  8  1  0  0  0  0
  6  9  1  0  0  0  0
  6 25  1  1  0  0  0
  7 10  1  0  0  0  0
  7 16  1  0  0  0  0
  8 13  1  0  0  0  0
  8 17  1  0  0  0  0
  8 18  1  1  0  0  0
  9 12  1  0  0  0  0
  9 26  1  1  0  0  0
 10 12  1  0  0  0  0
 10 19  1  1  0  0  0
 10 27  1  0  0  0  0
 11 14  1  0  0  0  0
 11 28  1  0  0  0  0
 11 29  1  0  0  0  0
 12 30  1  0  0  0  0
 12 31  1  0  0  0  0
 13 14  1  0  0  0  0
 13 32  1  0  0  0  0
 13 33  1  0  0  0  0
 14 34  1  0  0  0  0
 14 35  1  0  0  0  0
 15 36  1  0  0  0  0
 15 37  1  0  0  0  0
 15 38  1  0  0  0  0
 16 20  1  0  0  0  0
 16 39  1  0  0  0  0
 16 40  1  0  0  0  0
 18 41  1  0  0  0  0
 18 42  1  0  0  0  0
 18 43  1  0  0  0  0
 19 44  1  0  0  0  0
 19 45  1  0  0  0  0
 19 46  1  0  0  0  0
 20 21  1  0  0  0  0
 20 48  1  0  0  0  0
 20 49  1  0  0  0  0
 21 22  1  0  0  0  0
 21 23  2  0  0  0  0
 22 24  2  0  0  0  0
 22 50  1  0  0  0  0
 23 51  1  0  0  0  0
 24 52  1  0  0  0  0
M  END
> <PUBCHEM_COMPOUND_CID>
73401

> <PUBCHEM_COMPOUND_CANONICALIZED>
1

> <PUBCHEM_CACTVS_COMPLEXITY>
534

> <PUBCHEM_CACTVS_HBOND_ACCEPTOR>
4

> <PUBCHEM_CACTVS_HBOND_DONOR>
1

> <PUBCHEM_CACTVS_ROTATABLE_BOND>
3

> <PUBCHEM_CACTVS_SUBSKEYS>
AAADceB4OAAAAAAAAAAAAAAAAAAAASJAAAAwYAAAAAAAAEjBgAAAGgAACAAAD1SgmAIyDIAABkCIAijSiAACCAAkIAAIiAEGCMgMJhIENQqCWSCkwBEIKYPK7PzPgAAAAAAAAADCAAYAADAAAAAAAAAAAA==

> <PUBCHEM_IUPAC_INCHI>
InChI=1S/C20H28O4/c1-13-11-15-16-18(2,17(21)24-15)7-4-8-19(16,3)20(13,22)9-5-14-6-10-23-12-14/h6,10,12-13,15-16,22H,4-5,7-9,11H2,1-3H3/t13-,15-,16+,18+,19+,20-/m1/s1

> <PUBCHEM_IUPAC_INCHIKEY>
HQLLRHCTVDVUJB-OBHOOXMTSA-N

> <PUBCHEM_XLOGP3_AA>
3.7

> <PUBCHEM_EXACT_MASS>
332.198759

> <PUBCHEM_MOLECULAR_FORMULA>
C20H28O4

> <PUBCHEM_MOLECULAR_WEIGHT>
332.43392

> <PUBCHEM_OPENEYE_CAN_SMILES>
CC1CC2C3C(CCCC3(C1(CCC4=COC=C4)O)C)(C(=O)O2)C

> <PUBCHEM_OPENEYE_ISO_SMILES>
C[C@@H]1C[C@@H]2[C@H]3[C@](CCC[C@@]3([C@]1(CCC4=COC=C4)O)C)(C(=O)O2)C

> <PUBCHEM_CACTVS_TPSA>
59.7

> <PUBCHEM_MONOISOTOPIC_WEIGHT>
332.198759

> <PUBCHEM_TOTAL_CHARGE>
0

> <PUBCHEM_HEAVY_ATOM_COUNT>
24

> <PUBCHEM_ATOM_DEF_STEREO_COUNT>
6

> <PUBCHEM_ATOM_UDEF_STEREO_COUNT>
0

> <PUBCHEM_BOND_DEF_STEREO_COUNT>
0

> <PUBCHEM_BOND_UDEF_STEREO_COUNT>
0

> <PUBCHEM_ISOTOPIC_ATOM_COUNT>
0

> <PUBCHEM_COMPONENT_COUNT>
1

> <PUBCHEM_CACTVS_TAUTO_COUNT>
1

> <PUBCHEM_COORDINATE_TYPE>
1
5
255

> <PUBCHEM_BONDANNOTATIONS>
10  19  5
7  2  5
21  22  8
21  23  8
22  24  8
4  23  8
4  24  8
5  15  6
6  25  5
8  18  5
9  26  5

$$$$

