164933
  -OEChem-07051212502D

 33 35  0     1  0  0  0  0  0999 V2000
    3.6377    1.1307    0.0000 O   0  0  0  0  0  0  0  0  0  0  0  0
    6.2068    0.8216    0.0000 O   0  0  0  0  0  0  0  0  0  0  0  0
    5.5345    2.8907    0.0000 O   0  0  0  0  0  0  0  0  0  0  0  0
    2.3644    2.7862    0.0000 O   0  0  0  0  0  0  0  0  0  0  0  0
    2.7147   -0.4571    0.0000 O   0  0  0  0  0  0  0  0  0  0  0  0
    4.4467   -3.4571    0.0000 O   0  0  0  0  0  0  0  0  0  0  0  0
    7.8426   -1.4571    0.0000 O   0  0  0  0  0  0  0  0  0  0  0  0
    4.4467   -0.4571    0.0000 N   0  0  0  0  0  0  0  0  0  0  0  0
    6.2590   -0.6524    0.0000 N   0  0  0  0  0  0  0  0  0  0  0  0
    3.5807   -1.9571    0.0000 N   0  0  0  0  0  0  0  0  0  0  0  0
    6.2590   -2.2619    0.0000 N   0  0  0  0  0  0  0  0  0  0  0  0
    4.4467    0.5429    0.0000 C   0  0  1  0  0  0  0  0  0  0  0  0
    5.2558    1.1307    0.0000 C   0  0  1  0  0  0  0  0  0  0  0  0
    4.9467    2.0817    0.0000 C   0  0  1  0  0  0  0  0  0  0  0  0
    3.9467    2.0817    0.0000 C   0  0  1  0  0  0  0  0  0  0  0  0
    3.3590    2.8907    0.0000 C   0  0  0  0  0  0  0  0  0  0  0  0
    5.3128   -0.9571    0.0000 C   0  0  0  0  0  0  0  0  0  0  0  0
    3.5807   -0.9571    0.0000 C   0  0  0  0  0  0  0  0  0  0  0  0
    5.3128   -1.9571    0.0000 C   0  0  0  0  0  0  0  0  0  0  0  0
    4.4467   -2.4571    0.0000 C   0  0  0  0  0  0  0  0  0  0  0  0
    6.8426   -1.4571    0.0000 C   0  0  0  0  0  0  0  0  0  0  0  0
    3.8943    0.2614    0.0000 H   0  0  0  0  0  0  0  0  0  0  0  0
    5.6942    1.5691    0.0000 H   0  0  0  0  0  0  0  0  0  0  0  0
    5.5591    1.9847    0.0000 H   0  0  0  0  0  0  0  0  0  0  0  0
    3.3344    1.9847    0.0000 H   0  0  0  0  0  0  0  0  0  0  0  0
    3.9162    3.1625    0.0000 H   0  0  0  0  0  0  0  0  0  0  0  0
    3.1880    3.4867    0.0000 H   0  0  0  0  0  0  0  0  0  0  0  0
    6.6676    1.2365    0.0000 H   0  0  0  0  0  0  0  0  0  0  0  0
    5.2823    3.4571    0.0000 H   0  0  0  0  0  0  0  0  0  0  0  0
    6.4516   -0.0631    0.0000 H   0  0  0  0  0  0  0  0  0  0  0  0
    3.0438   -2.2671    0.0000 H   0  0  0  0  0  0  0  0  0  0  0  0
    6.4516   -2.8512    0.0000 H   0  0  0  0  0  0  0  0  0  0  0  0
    2.0000    3.2878    0.0000 H   0  0  0  0  0  0  0  0  0  0  0  0
  1 12  1  0  0  0  0
  1 15  1  0  0  0  0
 13  2  1  1  0  0  0
  2 28  1  0  0  0  0
 14  3  1  1  0  0  0
  3 29  1  0  0  0  0
  4 16  1  0  0  0  0
  4 33  1  0  0  0  0
  5 18  2  0  0  0  0
  6 20  2  0  0  0  0
  7 21  2  0  0  0  0
 12  8  1  6  0  0  0
  8 17  1  0  0  0  0
  8 18  1  0  0  0  0
  9 17  1  0  0  0  0
  9 21  1  0  0  0  0
  9 30  1  0  0  0  0
 10 18  1  0  0  0  0
 10 20  1  0  0  0  0
 10 31  1  0  0  0  0
 11 19  1  0  0  0  0
 11 21  1  0  0  0  0
 11 32  1  0  0  0  0
 12 13  1  0  0  0  0
 12 22  1  0  0  0  0
 13 14  1  0  0  0  0
 13 23  1  0  0  0  0
 14 15  1  0  0  0  0
 14 24  1  0  0  0  0
 15 16  1  6  0  0  0
 15 25  1  0  0  0  0
 16 26  1  0  0  0  0
 16 27  1  0  0  0  0
 17 19  2  0  0  0  0
 19 20  1  0  0  0  0
M  END
> <PUBCHEM_COMPOUND_CID>
164933

> <PUBCHEM_COMPOUND_CANONICALIZED>
1

> <PUBCHEM_CACTVS_COMPLEXITY>
562

> <PUBCHEM_CACTVS_HBOND_ACCEPTOR>
7

> <PUBCHEM_CACTVS_HBOND_DONOR>
6

> <PUBCHEM_CACTVS_ROTATABLE_BOND>
2

> <PUBCHEM_CACTVS_SUBSKEYS>
AAADccBzuAAAAAAAAAAAAAAAAAAAASIAAAAgAAAAAAAAAFgAAAAAHgAQCAAACBzhgAYBAAPABgCIAAVQUACAAAAAAAAAAACIAECDUAIAgCAeQAAPByITAEDwMAIAAAAAAAAAAAAAAAAAAAAAAAAAAAAAAA==

> <PUBCHEM_IUPAC_OPENEYE_NAME>
3-[(2R,3R,4S,5R)-3,4-dihydroxy-5-(hydroxymethyl)tetrahydrofuran-2-yl]-7,9-dihydropurine-2,6,8-trione

> <PUBCHEM_IUPAC_CAS_NAME>
3-[(2R,3R,4S,5R)-3,4-dihydroxy-5-(hydroxymethyl)-2-oxolanyl]-7,9-dihydropurine-2,6,8-trione

> <PUBCHEM_IUPAC_NAME>
3-[(2R,3R,4S,5R)-3,4-dihydroxy-5-(hydroxymethyl)oxolan-2-yl]-7,9-dihydropurine-2,6,8-trione

> <PUBCHEM_IUPAC_SYSTEMATIC_NAME>
3-[(2R,3R,4S,5R)-5-(hydroxymethyl)-3,4-bis(oxidanyl)oxolan-2-yl]-7,9-dihydropurine-2,6,8-trione

> <PUBCHEM_IUPAC_TRADITIONAL_NAME>
3-[(2R,3R,4S,5R)-3,4-dihydroxy-5-methylol-tetrahydrofuran-2-yl]uric acid

> <PUBCHEM_IUPAC_INCHI>
InChI=1S/C10H12N4O7/c15-1-2-4(16)5(17)8(21-2)14-6-3(11-9(19)12-6)7(18)13-10(14)20/h2,4-5,8,15-17H,1H2,(H2,11,12,19)(H,13,18,20)/t2-,4-,5-,8-/m1/s1

> <PUBCHEM_IUPAC_INCHIKEY>
MFGPUMDDJCTHOI-UMMCILCDSA-N

> <PUBCHEM_XLOGP3_AA>
-3.2

> <PUBCHEM_EXACT_MASS>
300.070599

> <PUBCHEM_MOLECULAR_FORMULA>
C10H12N4O7

> <PUBCHEM_MOLECULAR_WEIGHT>
300.22488

> <PUBCHEM_OPENEYE_CAN_SMILES>
C(C1C(C(C(O1)N2C3=C(C(=O)NC2=O)NC(=O)N3)O)O)O

> <PUBCHEM_OPENEYE_ISO_SMILES>
C([C@@H]1[C@H]([C@H]([C@@H](O1)N2C3=C(C(=O)NC2=O)NC(=O)N3)O)O)O

> <PUBCHEM_CACTVS_TPSA>
161

> <PUBCHEM_MONOISOTOPIC_WEIGHT>
300.070599

> <PUBCHEM_TOTAL_CHARGE>
0

> <PUBCHEM_HEAVY_ATOM_COUNT>
21

> <PUBCHEM_ATOM_DEF_STEREO_COUNT>
4

> <PUBCHEM_ATOM_UDEF_STEREO_COUNT>
0

> <PUBCHEM_BOND_DEF_STEREO_COUNT>
0

> <PUBCHEM_BOND_UDEF_STEREO_COUNT>
0

> <PUBCHEM_ISOTOPIC_ATOM_COUNT>
0

> <PUBCHEM_COMPONENT_COUNT>
1

> <PUBCHEM_CACTVS_TAUTO_COUNT>
19

> <PUBCHEM_COORDINATE_TYPE>
1
5
255

> <PUBCHEM_BONDANNOTATIONS>
10  18  8
10  20  8
11  19  8
11  21  8
15  16  6
17  19  8
19  20  8
13  2  5
14  3  5
12  8  6
8  17  8
8  18  8
9  17  8
9  21  8

$$$$

