17395927
  -OEChem-06241222532D

 35 38  0     0  0  0  0  0  0999 V2000
    6.2619   -2.7844    0.0000 O   0  0  0  0  0  0  0  0  0  0  0  0
    4.6783   -3.5892    0.0000 N   0  0  0  0  0  0  0  0  0  0  0  0
    3.6655    1.1944    0.0000 N   0  0  0  0  0  0  0  0  0  0  0  0
    2.9212    0.5266    0.0000 N   0  0  0  0  0  0  0  0  0  0  0  0
    3.7320   -2.2844    0.0000 C   0  0  0  0  0  0  0  0  0  0  0  0
    4.6783   -1.9797    0.0000 C   0  0  0  0  0  0  0  0  0  0  0  0
    3.7320   -3.2844    0.0000 C   0  0  0  0  0  0  0  0  0  0  0  0
    4.9889   -1.0292    0.0000 C   0  0  0  0  0  0  0  0  0  0  0  0
    5.2619   -2.7844    0.0000 C   0  0  0  0  0  0  0  0  0  0  0  0
    4.3211   -0.2849    0.0000 C   0  0  0  0  0  0  0  0  0  0  0  0
    2.8660   -1.7844    0.0000 C   0  0  0  0  0  0  0  0  0  0  0  0
    2.8660   -3.7844    0.0000 C   0  0  0  0  0  0  0  0  0  0  0  0
    4.5307    0.6929    0.0000 C   0  0  0  0  0  0  0  0  0  0  0  0
    3.5627    2.1891    0.0000 C   0  0  0  0  0  0  0  0  0  0  0  0
    2.0000   -2.2844    0.0000 C   0  0  0  0  0  0  0  0  0  0  0  0
    3.3264   -0.3877    0.0000 C   0  0  0  0  0  0  0  0  0  0  0  0
    2.0000   -3.2844    0.0000 C   0  0  0  0  0  0  0  0  0  0  0  0
    4.3728    2.7755    0.0000 C   0  0  0  0  0  0  0  0  0  0  0  0
    2.6499    2.5974    0.0000 C   0  0  0  0  0  0  0  0  0  0  0  0
    4.2700    3.7702    0.0000 C   0  0  0  0  0  0  0  0  0  0  0  0
    2.5471    3.5921    0.0000 C   0  0  0  0  0  0  0  0  0  0  0  0
    3.3571    4.1785    0.0000 C   0  0  0  0  0  0  0  0  0  0  0  0
    5.5956   -0.9013    0.0000 H   0  0  0  0  0  0  0  0  0  0  0  0
    4.8709   -4.1785    0.0000 H   0  0  0  0  0  0  0  0  0  0  0  0
    2.8660   -1.1644    0.0000 H   0  0  0  0  0  0  0  0  0  0  0  0
    2.8660   -4.4044    0.0000 H   0  0  0  0  0  0  0  0  0  0  0  0
    5.0975    0.9441    0.0000 H   0  0  0  0  0  0  0  0  0  0  0  0
    3.0155   -0.9241    0.0000 H   0  0  0  0  0  0  0  0  0  0  0  0
    1.4631   -1.9744    0.0000 H   0  0  0  0  0  0  0  0  0  0  0  0
    1.4631   -3.5944    0.0000 H   0  0  0  0  0  0  0  0  0  0  0  0
    4.9387    2.5223    0.0000 H   0  0  0  0  0  0  0  0  0  0  0  0
    2.1477    2.2338    0.0000 H   0  0  0  0  0  0  0  0  0  0  0  0
    4.7722    4.1337    0.0000 H   0  0  0  0  0  0  0  0  0  0  0  0
    1.9811    3.8453    0.0000 H   0  0  0  0  0  0  0  0  0  0  0  0
    3.2934    4.7952    0.0000 H   0  0  0  0  0  0  0  0  0  0  0  0
  1  9  2  0  0  0  0
  2  7  1  0  0  0  0
  2  9  1  0  0  0  0
  2 24  1  0  0  0  0
  3  4  1  0  0  0  0
  3 13  1  0  0  0  0
  3 14  1  0  0  0  0
  4 16  2  0  0  0  0
  5  6  1  0  0  0  0
  5  7  1  0  0  0  0
  5 11  2  0  0  0  0
  6  8  2  0  0  0  0
  6  9  1  0  0  0  0
  7 12  2  0  0  0  0
  8 10  1  0  0  0  0
  8 23  1  0  0  0  0
 10 13  2  0  0  0  0
 10 16  1  0  0  0  0
 11 15  1  0  0  0  0
 11 25  1  0  0  0  0
 12 17  1  0  0  0  0
 12 26  1  0  0  0  0
 13 27  1  0  0  0  0
 14 18  2  0  0  0  0
 14 19  1  0  0  0  0
 15 17  2  0  0  0  0
 15 29  1  0  0  0  0
 16 28  1  0  0  0  0
 17 30  1  0  0  0  0
 18 20  1  0  0  0  0
 18 31  1  0  0  0  0
 19 21  2  0  0  0  0
 19 32  1  0  0  0  0
 20 22  2  0  0  0  0
 20 33  1  0  0  0  0
 21 22  1  0  0  0  0
 21 34  1  0  0  0  0
 22 35  1  0  0  0  0
M  END
> <PUBCHEM_COMPOUND_CID>
17395927

> <PUBCHEM_COMPOUND_CANONICALIZED>
1

> <PUBCHEM_CACTVS_COMPLEXITY>
455

> <PUBCHEM_CACTVS_HBOND_ACCEPTOR>
2

> <PUBCHEM_CACTVS_HBOND_DONOR>
1

> <PUBCHEM_CACTVS_ROTATABLE_BOND>
2

> <PUBCHEM_CACTVS_SUBSKEYS>
AAADccB7IAAAAAAAAAAAAAAAAAAAAWLAAAAwYAAAAAAAAFgB0AAAHgAYAAAADAjBmgQ8wJLIAACqAjV3VACSBCAxggAYmCEoZNgIIPLA1dGEpAhgnADIyYcciICOAAAAAAACAAAAAAAAAAQAAAAAAAAAAA==

> <PUBCHEM_IUPAC_OPENEYE_NAME>
(3E)-3-[(1-phenylpyrazol-4-yl)methylene]indolin-2-one

> <PUBCHEM_IUPAC_CAS_NAME>
(3E)-3-[(1-phenyl-4-pyrazolyl)methylidene]-1H-indol-2-one

> <PUBCHEM_IUPAC_NAME>
(3E)-3-[(1-phenylpyrazol-4-yl)methylidene]-1H-indol-2-one

> <PUBCHEM_IUPAC_SYSTEMATIC_NAME>
(3E)-3-[(1-phenylpyrazol-4-yl)methylidene]-1H-indol-2-one

> <PUBCHEM_IUPAC_TRADITIONAL_NAME>
(3E)-3-[(1-phenylpyrazol-4-yl)methylene]oxindole

> <PUBCHEM_IUPAC_INCHI>
InChI=1S/C18H13N3O/c22-18-16(15-8-4-5-9-17(15)20-18)10-13-11-19-21(12-13)14-6-2-1-3-7-14/h1-12H,(H,20,22)/b16-10+

> <PUBCHEM_IUPAC_INCHIKEY>
FOZPKLGGQRWFQM-MHWRWJLKSA-N

> <PUBCHEM_XLOGP3_AA>
2.9

> <PUBCHEM_EXACT_MASS>
287.105862

> <PUBCHEM_MOLECULAR_FORMULA>
C18H13N3O

> <PUBCHEM_MOLECULAR_WEIGHT>
287.31532

> <PUBCHEM_OPENEYE_CAN_SMILES>
C1=CC=C(C=C1)N2C=C(C=N2)C=C3C4=CC=CC=C4NC3=O

> <PUBCHEM_OPENEYE_ISO_SMILES>
C1=CC=C(C=C1)N2C=C(C=N2)/C=C/3\C4=CC=CC=C4NC3=O

> <PUBCHEM_CACTVS_TPSA>
46.9

> <PUBCHEM_MONOISOTOPIC_WEIGHT>
287.105862

> <PUBCHEM_TOTAL_CHARGE>
0

> <PUBCHEM_HEAVY_ATOM_COUNT>
22

> <PUBCHEM_ATOM_DEF_STEREO_COUNT>
0

> <PUBCHEM_ATOM_UDEF_STEREO_COUNT>
0

> <PUBCHEM_BOND_DEF_STEREO_COUNT>
1

> <PUBCHEM_BOND_UDEF_STEREO_COUNT>
0

> <PUBCHEM_ISOTOPIC_ATOM_COUNT>
0

> <PUBCHEM_COMPONENT_COUNT>
1

> <PUBCHEM_CACTVS_TAUTO_COUNT>
2

> <PUBCHEM_COORDINATE_TYPE>
1
5
255

> <PUBCHEM_BONDANNOTATIONS>
10  13  8
10  16  8
11  15  8
12  17  8
14  18  8
14  19  8
15  17  8
18  20  8
19  21  8
20  22  8
21  22  8
3  13  8
3  4  8
4  16  8
5  11  8
5  7  8
7  12  8

$$$$

