   Color/Form

     * Colorless liquid.
     * Water-white

   from [1]HSDB

   Odor

     * Sweet, pleasant, ether-like odor.
     * Mild, agreeable odor

   from [2]HSDB

   Taste
        SLIGHTLY BITTER
   from [3]HSDB

   Boiling Point
        135.6 deg C
   from [4]HSDB

   Melting Point
        -70 deg C (pour point)
   from [5]HSDB

   Density/Specific Gravity
        Sp Gr: 0.931 @ 20 deg C/20 deg C
   from [6]HSDB

   Dissociation Constants
        pKa = 14.8
   from [7]HSDB

   Heat of Vaporization
        40.53 kJ/mol @ 101.3 kPa
   from [8]HSDB

   Octanol/Water Partition Coefficient
        log Kow= -0.32
   from [9]HSDB

   Solubilities
        Miscible in all proportions of acetone, benzene, carbon
   tetrachloride, ethyl ether, methanol, and water.
   from [10]HSDB

   Spectral Properties

     * SADTLER REFERENCE NUMBER: 5291 (IR, PRISM); 10992 (IR, GRATING)
     * Index of refraction: 1.4080 @ 20 deg C/D
     * Index of refraction: 1.406 @ 25 deg C/D
     * MASS: 720 (NIST/EPA/MSDC Mass Spectral Database, 1990 version); 627
       (Atlas of Mass Spectral Data, John Wiley & Sons, New York
     * IR: COB 2226
     * Raman: SAD 1012
     * 13C NMR: JJ92

   from [11]HSDB

   Surface Tension
        28.2 dynes/cm @ 25 deg C
   from [12]HSDB

   Vapor Pressure
        5.31 mm Hg @ 25 deg C
   from [13]HSDB

   Viscosity
        1.84 centipoise @ 25 deg C
   from [14]HSDB

   Other Chemical/Physical Properties

     * Wt/gal: 7.74 lb @ 20 deg C; pour point: less than 37.7 deg C
     * Percent in saturated air @ 25 deg C: 0.76; 1 ppm= 3.68 mg/cu m @ 25
       deg C, 760 mm Hg; 1 mg/L= 272 ppm @ 25 deg C, 760 mm Hg
     * RATIO OF SPECIFIC HEATS OF VAPOR (GAS): 1.064; HEAT OF SOLUTION:
       (EST) -5 CAL/G
     * Surface tension: 28.2 mN/m (=dyn/cm) @ 25 deg C; Blush resistance
       (@ 27 deg C) 59% rh; Coefficient of expansion: 0.00097 cu cm
     * Specific heat = 0.53 cal/deg C (average), freezing range = -59 deg
       C, and acidity (as acetic acid) = 0.01 wt% (max)
     * Henry's Law constant = 4.7X10-7 atm-cu m/mol @ 25 deg C
     * Hydroxyl radical reaction rate constant = 1.54X10-11 cu
       cm/molec-sec @ 25 deg C

   from [15]HSDB

   Computed Properties
   Molecular Weight                  90.121 [g/mol]
   Molecular Formula                 C[4]H[10]O[2]
   XLogP3                            -0.3
   H-Bond Donor                      1
   H-Bond Acceptor                   2
   Rotatable Bond Count              3
   Exact Mass                        90.06808
   MonoIsotopic Mass                 90.06808
   Topological Polar Surface Area    29.5
   Heavy Atom Count                  6
   Formal Charge                     0
   Complexity                        21.5
   Isotope Atom Count                0
   Defined Atom Stereocenter Count   0
   Undefined Atom Stereocenter Count 0
   Defined Bond Stereocenter Count   0
   Undefined Bond Stereocenter Count 0
   Covalently-Bonded Unit Count      1
   Feature 3D Acceptor Count         2
   Feature 3D Donor Count            1
   Effective Rotor Count             3
   Conformer Sampling RMSD           0.4
   CID Conformer Count               [16]17

References

   1. http://toxnet.nlm.nih.gov/cgi-bin/sis/search/r?dbs+hsdb:@term+@rn+@rel+110-80-5
   2. http://toxnet.nlm.nih.gov/cgi-bin/sis/search/r?dbs+hsdb:@term+@rn+@rel+110-80-5
   3. http://toxnet.nlm.nih.gov/cgi-bin/sis/search/r?dbs+hsdb:@term+@rn+@rel+110-80-5
   4. http://toxnet.nlm.nih.gov/cgi-bin/sis/search/r?dbs+hsdb:@term+@rn+@rel+110-80-5
   5. http://toxnet.nlm.nih.gov/cgi-bin/sis/search/r?dbs+hsdb:@term+@rn+@rel+110-80-5
   6. http://toxnet.nlm.nih.gov/cgi-bin/sis/search/r?dbs+hsdb:@term+@rn+@rel+110-80-5
   7. http://toxnet.nlm.nih.gov/cgi-bin/sis/search/r?dbs+hsdb:@term+@rn+@rel+110-80-5
   8. http://toxnet.nlm.nih.gov/cgi-bin/sis/search/r?dbs+hsdb:@term+@rn+@rel+110-80-5
   9. http://toxnet.nlm.nih.gov/cgi-bin/sis/search/r?dbs+hsdb:@term+@rn+@rel+110-80-5
  10. http://toxnet.nlm.nih.gov/cgi-bin/sis/search/r?dbs+hsdb:@term+@rn+@rel+110-80-5
  11. http://toxnet.nlm.nih.gov/cgi-bin/sis/search/r?dbs+hsdb:@term+@rn+@rel+110-80-5
  12. http://toxnet.nlm.nih.gov/cgi-bin/sis/search/r?dbs+hsdb:@term+@rn+@rel+110-80-5
  13. http://toxnet.nlm.nih.gov/cgi-bin/sis/search/r?dbs+hsdb:@term+@rn+@rel+110-80-5
  14. http://toxnet.nlm.nih.gov/cgi-bin/sis/search/r?dbs+hsdb:@term+@rn+@rel+110-80-5
  15. http://toxnet.nlm.nih.gov/cgi-bin/sis/search/r?dbs+hsdb:@term+@rn+@rel+110-80-5
  16. http://pubchem.ncbi.nlm.nih.gov/vw3d/vw3d.cgi?cid=8076
