   Color/Form
        IVORY-COLORED POWDER
   from [1]HSDB

   Melting Point
        76 DEG C
   from [2]HSDB

   Density/Specific Gravity
        0.94
   from [3]HSDB

   Solubilities
        INSOL IN WATER; SOL IN ETHER, HOT ALCOHOL
   from [4]HSDB

   Spectral Properties
        MASS: 1858 (Atlas of Mass Spectral Data, John Wiley & Sons, New
   York)
   from [5]HSDB

   Computed Properties
   Molecular Weight                  281.4766 [g/mol]
   Molecular Formula                 C[18]H[35]NO
   XLogP3-AA                         6.6
   H-Bond Donor                      1
   H-Bond Acceptor                   1
   Rotatable Bond Count              15
   Tautomer Count                    3
   Exact Mass                        281.271865
   MonoIsotopic Mass                 281.271865
   Topological Polar Surface Area    43.1
   Heavy Atom Count                  20
   Formal Charge                     0
   Complexity                        236
   Isotope Atom Count                0
   Defined Atom Stereocenter Count   0
   Undefined Atom Stereocenter Count 0
   Defined Bond Stereocenter Count   1
   Undefined Bond Stereocenter Count 0
   Covalently-Bonded Unit Count      1
   Feature 3D Acceptor Count         1
   Feature 3D Donor Count            1
   Feature 3D Hydrophobe Count       1
   Effective Rotor Count             15
   Conformer Sampling RMSD           1.4
   CID Conformer Count               [6]106

References

   1. http://toxnet.nlm.nih.gov/cgi-bin/sis/search/r?dbs+hsdb:@term+@rn+@rel+301-02-0
   2. http://toxnet.nlm.nih.gov/cgi-bin/sis/search/r?dbs+hsdb:@term+@rn+@rel+301-02-0
   3. http://toxnet.nlm.nih.gov/cgi-bin/sis/search/r?dbs+hsdb:@term+@rn+@rel+301-02-0
   4. http://toxnet.nlm.nih.gov/cgi-bin/sis/search/r?dbs+hsdb:@term+@rn+@rel+301-02-0
   5. http://toxnet.nlm.nih.gov/cgi-bin/sis/search/r?dbs+hsdb:@term+@rn+@rel+301-02-0
   6. http://pubchem.ncbi.nlm.nih.gov/vw3d/vw3d.cgi?cid=5283387
