   Color/Form

     * Colorless gas
     * CUBIC SOLID

   from [1]HSDB

   Odor
        Odorless
   from [2]HSDB

   Taste
        Tasteless
   from [3]HSDB

   Boiling Point
        -252.77 deg C
   from [4]HSDB

   Melting Point
        -259.2 deg C @ 54 mm Hg
   from [5]HSDB

   Corrosivity
        Noncorrosive
   from [6]HSDB

   Critical Temperature and Pressure
        Critical temperature: -239.9 deg C; Critical pressure: 12.8 atm
   from [7]HSDB

   Density/Specific Gravity
        0.069 (gas) (Air= 1); 0.0700 @ BP (liq); 0.0763 @ 13 K (solid)
   from [8]HSDB

   Heat of Vaporization
        0.90 kJ/mol at -252.87 deg C
   from [9]HSDB

   Solubilities
        1.62 mg/L at 21 deg C
   from [10]HSDB

   Vapor Pressure
        1.24X10+6 mm Hg at 25 deg C
   from [11]HSDB

   Other Chemical/Physical Properties

     * Atomic number 1; valence 1; elemental state: H2; isotopes: (1)H
       (protium 99.9844%), (2)H (deuterium 0.0156%), (3)H (tritium, traces
       only); ionization potential of H atom is 13.59 electron volts;
       accelerated protons bring about extremely varied nuclear reactions;
       1 l of gas @ 0 deg C weighs 0.08987 g
     * ... ionizes to form protons, deuterons (D) or tritons (T)
     * Lightest of all gases; lifting power of 1 cu ft hydrogen gas is
       about 0.076 lb @ 0 deg C, 760 mm Hg
     * MP and BP of para-hydrogen are about 0.1 deg C lower than those of
       normal hydrogen
     * ortho-Hydrogen molecules have a parallel spin; para, an
       antiparallel spin /para-Hydrogen/
     * BURNS WITH PALE BLUE FLAME IN PRESENCE OF OXYGEN
     * TRIPLE POINT TEMP: 13.8 DEG K; TRIPLE POINT PRESSURE: 0.069 ATM;
       HEAT OF FUSION: 13.9 CAL/G; CRITICAL TEMP: 33 K; CRITICAL PRESSURE:
       12.4 ATM; HEAT OF VAPORIZATION: 106.5 CAL/G /P-HYDROGEN/
     * TRIPLE POINT TEMP: 13.9 K; TRIPLE POINT PRESSURE: 0.071 ATM
       /N-HYDROGEN/
     * Specific volume: 193 cu ft/lb @ 21.1 deg C; diatomic gas
     * Forms cmpd with almost every other element
     * Compressibility factor @ 0 deg C: 1.00042; adiabatic
       compressibility @ 300 K: 7.03 MPa; coefficient of volume expansion
       @ 300 K: 0.00333/K; critical volume @ 0 deg C: 20.30 J/mol.K;
       enthalpy @ 0 deg C: 7749.2 J/mol; internal energy @ 0 deg C: 5477.1
       J/mol; entropy @ 0 deg C: 139.59 J/mol.K; velocity of sound @ 0 deg
       C: 1246 m/sec; thermal conductivity @ 0 deg C: 1.739 mW/cm.K;
       dielectric constant @ 0 deg C: 1.000271; isothermal compressibility
       @ 300 K: -9.86 MPa; self diffusion coefficient @ 0 deg C: 1.285 sq
       cm/sec; gas diffusivity in water @ 25 deg C: 4.8X10-5 sq cm/sec;
       Lennard-Jones parameters: collision diameter, 2.928X10+10 m,
       interaction parameter, 37.00 K; heat of dissociation @ 298.16 K:
       435.881 kJ/mol /Gaseous normal hydrogen/
     * Mp: 13.947 K; bp: 20.380 K; critical temp: 33.18 K; critical
       pressure: 1315 kPa; Critical volume: 66.949 cu cm/mol; density @
       bp: 0.03520 mol/cu cm; density @ mp: 0.03830 mol/cu cm;
       compressibility factor @ mp: 0.0011621, @ bp: 0.01698; @ critical
       point: 0.3191; adiabatic compressibility @ triple point: 0.00813
       MPa, @ bp: 0.0119 MPa; coefficient of volume expansion @ triple
       point: 0.0102 K, @ bp: 0.0164 K; heat of vaporization @ triple
       point: 911.3 J/mol, @ bp: 899.1 J/mol; critical pressure @ triple
       point: 13.23 J/mol.K, @ bp: 19.70 J/mol.K; critical volume @ triple
       point: 9.53 J/mol.K, @ bp: 11.60 J/mol.K; enthalpy @ triple point:
       438.7 J/mol, @ bp: 548.3 J/mol; internal energy @ triple point:
       435.0 J/mol, @ bp: 545.7 J/mol; entropy @ triple point: 28.7
       J/mol.K, @ bp: 34.92 J/mol.K; velocity of sound @ triple point:
       1282 m/sec, @ bp: 1101 m/sec; viscosity @ triple point: 0.0256 cP,
       @ bp: 0.0133 cP; thermal conductivity @ triple point: 0.74 mW/cm.K,
       @ bp: 1.00 mW/cm.K; dielectric constant @ triple point: 1.253, @
       bp: 1.231; surface tension @ triple point: 3.00 mN/m, @ bp: 1.94
       mN/m; isothermal compressibility @ triple point: -0.0110 MPa, @ bp:
       -0.0199 MPa /Liquid normal hydrogen/
     * Mp: 13.947 K; vapor pressure @ mp: 7.20 kPa; vapor pressure @ 10 K:
       0.231 kPa; density @ mp: 43.01X10+3 mol/cu cm; heat of fusion @ mp:
       117.2 J/mol; heat of sublimation @ mp: 1028.4 J/mol; critical
       pressure @ 10 K: 20.79 J/mol.K; enthalpy @ mp: 321.6 J/mol;
       internal energy @ mp: 317.9 J/mol; entropy @ mp: 20.3 J/mol.K;
       thermal conductivity @ mp: 9.0 mW/cm.K; dielectric constant @ mp:
       1.287; heat of dissociation @ 0 K: 430.889 kJ/mol /Solid normal
       hydrogen/
     * Dipole moment: 0
     * Heat of fusion: 0.12 kJ/mol @ -259.3 deg C

   from [12]HSDB

   Computed Properties
   Molecular Weight                  2.01588 [g/mol]
   Molecular Formula                 H[2]
   XLogP3-AA                         0
   H-Bond Donor                      0
   H-Bond Acceptor                   0
   Rotatable Bond Count              0
   Exact Mass                        2.01565
   MonoIsotopic Mass                 2.01565
   Topological Polar Surface Area    0
   Heavy Atom Count                  0
   Formal Charge                     0
   Complexity                        0
   Isotope Atom Count                0
   Defined Atom Stereocenter Count   0
   Undefined Atom Stereocenter Count 0
   Defined Bond Stereocenter Count   0
   Undefined Bond Stereocenter Count 0
   Covalently-Bonded Unit Count      1

References

   1. http://toxnet.nlm.nih.gov/cgi-bin/sis/search/r?dbs+hsdb:@term+@rn+@rel+1333-74-0
   2. http://toxnet.nlm.nih.gov/cgi-bin/sis/search/r?dbs+hsdb:@term+@rn+@rel+1333-74-0
   3. http://toxnet.nlm.nih.gov/cgi-bin/sis/search/r?dbs+hsdb:@term+@rn+@rel+1333-74-0
   4. http://toxnet.nlm.nih.gov/cgi-bin/sis/search/r?dbs+hsdb:@term+@rn+@rel+1333-74-0
   5. http://toxnet.nlm.nih.gov/cgi-bin/sis/search/r?dbs+hsdb:@term+@rn+@rel+1333-74-0
   6. http://toxnet.nlm.nih.gov/cgi-bin/sis/search/r?dbs+hsdb:@term+@rn+@rel+1333-74-0
   7. http://toxnet.nlm.nih.gov/cgi-bin/sis/search/r?dbs+hsdb:@term+@rn+@rel+1333-74-0
   8. http://toxnet.nlm.nih.gov/cgi-bin/sis/search/r?dbs+hsdb:@term+@rn+@rel+1333-74-0
   9. http://toxnet.nlm.nih.gov/cgi-bin/sis/search/r?dbs+hsdb:@term+@rn+@rel+1333-74-0
  10. http://toxnet.nlm.nih.gov/cgi-bin/sis/search/r?dbs+hsdb:@term+@rn+@rel+1333-74-0
  11. http://toxnet.nlm.nih.gov/cgi-bin/sis/search/r?dbs+hsdb:@term+@rn+@rel+1333-74-0
  12. http://toxnet.nlm.nih.gov/cgi-bin/sis/search/r?dbs+hsdb:@term+@rn+@rel+1333-74-0
