6539
  -OEChem-06261201222D

 43 42  0     0  0  0  0  0  0999 V2000
    6.3301   -1.2990    0.0000 P   0  0  0  0  0  0  0  0  0  0  0  0
    7.1962   -0.7990    0.0000 O   0  0  0  0  0  0  0  0  0  0  0  0
    5.4641   -1.7990    0.0000 O   0  0  0  0  0  0  0  0  0  0  0  0
    6.8301   -2.1651    0.0000 O   0  0  0  0  0  0  0  0  0  0  0  0
    5.8301   -0.4330    0.0000 C   0  0  0  0  0  0  0  0  0  0  0  0
    6.3301    0.4330    0.0000 C   0  0  0  0  0  0  0  0  0  0  0  0
    5.8301    1.2990    0.0000 C   0  0  0  0  0  0  0  0  0  0  0  0
    4.5981   -1.2990    0.0000 C   0  0  0  0  0  0  0  0  0  0  0  0
    8.0622   -1.2990    0.0000 C   0  0  0  0  0  0  0  0  0  0  0  0
    3.7320   -1.7990    0.0000 C   0  0  0  0  0  0  0  0  0  0  0  0
    8.9282   -0.7990    0.0000 C   0  0  0  0  0  0  0  0  0  0  0  0
    2.8660   -1.2990    0.0000 C   0  0  0  0  0  0  0  0  0  0  0  0
    9.7942   -1.2990    0.0000 C   0  0  0  0  0  0  0  0  0  0  0  0
    6.3301    2.1651    0.0000 C   0  0  0  0  0  0  0  0  0  0  0  0
    2.0000   -1.7990    0.0000 C   0  0  0  0  0  0  0  0  0  0  0  0
   10.6603   -0.7990    0.0000 C   0  0  0  0  0  0  0  0  0  0  0  0
    5.3552   -0.0345    0.0000 H   0  0  0  0  0  0  0  0  0  0  0  0
    5.3552   -0.8315    0.0000 H   0  0  0  0  0  0  0  0  0  0  0  0
    6.8051    0.0345    0.0000 H   0  0  0  0  0  0  0  0  0  0  0  0
    6.8051    0.8315    0.0000 H   0  0  0  0  0  0  0  0  0  0  0  0
    5.3552    1.6976    0.0000 H   0  0  0  0  0  0  0  0  0  0  0  0
    5.3552    0.9005    0.0000 H   0  0  0  0  0  0  0  0  0  0  0  0
    4.9966   -0.8241    0.0000 H   0  0  0  0  0  0  0  0  0  0  0  0
    4.1996   -0.8241    0.0000 H   0  0  0  0  0  0  0  0  0  0  0  0
    7.6636   -1.7740    0.0000 H   0  0  0  0  0  0  0  0  0  0  0  0
    8.4607   -1.7740    0.0000 H   0  0  0  0  0  0  0  0  0  0  0  0
    9.3267   -0.3241    0.0000 H   0  0  0  0  0  0  0  0  0  0  0  0
    8.5297   -0.3241    0.0000 H   0  0  0  0  0  0  0  0  0  0  0  0
    3.3335   -2.2740    0.0000 H   0  0  0  0  0  0  0  0  0  0  0  0
    4.1306   -2.2740    0.0000 H   0  0  0  0  0  0  0  0  0  0  0  0
    3.2646   -0.8241    0.0000 H   0  0  0  0  0  0  0  0  0  0  0  0
    2.4675   -0.8241    0.0000 H   0  0  0  0  0  0  0  0  0  0  0  0
    9.3957   -1.7740    0.0000 H   0  0  0  0  0  0  0  0  0  0  0  0
   10.1928   -1.7740    0.0000 H   0  0  0  0  0  0  0  0  0  0  0  0
    6.8671    1.8551    0.0000 H   0  0  0  0  0  0  0  0  0  0  0  0
    6.6401    2.7020    0.0000 H   0  0  0  0  0  0  0  0  0  0  0  0
    5.7932    2.4751    0.0000 H   0  0  0  0  0  0  0  0  0  0  0  0
   10.9703   -1.3360    0.0000 H   0  0  0  0  0  0  0  0  0  0  0  0
   11.1972   -0.4890    0.0000 H   0  0  0  0  0  0  0  0  0  0  0  0
   10.3503   -0.2621    0.0000 H   0  0  0  0  0  0  0  0  0  0  0  0
    1.6900   -1.2621    0.0000 H   0  0  0  0  0  0  0  0  0  0  0  0
    1.4631   -2.1090    0.0000 H   0  0  0  0  0  0  0  0  0  0  0  0
    2.3100   -2.3360    0.0000 H   0  0  0  0  0  0  0  0  0  0  0  0
  1  2  1  0  0  0  0
  1  3  1  0  0  0  0
  1  4  2  0  0  0  0
  1  5  1  0  0  0  0
  2  9  1  0  0  0  0
  3  8  1  0  0  0  0
  5  6  1  0  0  0  0
  5 17  1  0  0  0  0
  5 18  1  0  0  0  0
  6  7  1  0  0  0  0
  6 19  1  0  0  0  0
  6 20  1  0  0  0  0
  7 14  1  0  0  0  0
  7 21  1  0  0  0  0
  7 22  1  0  0  0  0
  8 10  1  0  0  0  0
  8 23  1  0  0  0  0
  8 24  1  0  0  0  0
  9 11  1  0  0  0  0
  9 25  1  0  0  0  0
  9 26  1  0  0  0  0
 10 12  1  0  0  0  0
 10 29  1  0  0  0  0
 10 30  1  0  0  0  0
 11 13  1  0  0  0  0
 11 27  1  0  0  0  0
 11 28  1  0  0  0  0
 12 15  1  0  0  0  0
 12 31  1  0  0  0  0
 12 32  1  0  0  0  0
 13 16  1  0  0  0  0
 13 33  1  0  0  0  0
 13 34  1  0  0  0  0
 14 35  1  0  0  0  0
 14 36  1  0  0  0  0
 14 37  1  0  0  0  0
 15 41  1  0  0  0  0
 15 42  1  0  0  0  0
 15 43  1  0  0  0  0
 16 38  1  0  0  0  0
 16 39  1  0  0  0  0
 16 40  1  0  0  0  0
M  END
> <PUBCHEM_COMPOUND_CID>
6539

> <PUBCHEM_COMPOUND_CANONICALIZED>
1

> <PUBCHEM_CACTVS_COMPLEXITY>
181

> <PUBCHEM_CACTVS_HBOND_ACCEPTOR>
3

> <PUBCHEM_CACTVS_HBOND_DONOR>
0

> <PUBCHEM_CACTVS_ROTATABLE_BOND>
11

> <PUBCHEM_CACTVS_SUBSKEYS>
AAADceBwMAIAAAAAAAAAAAAAAAAAAAAAAAAAAAAAAAAAAAAAAAAAGggAACAACACogAICAAAAARAAQAAAAIAAAAAAAAAAAAAAAAAAAAAAAAAAAAAEAAAAAAAAAAAAAAAAAAAAAAAAAAAAAAAAAAAAAAAAAA==

> <PUBCHEM_IUPAC_OPENEYE_NAME>
1-[butoxy(butyl)phosphoryl]oxybutane

> <PUBCHEM_IUPAC_CAS_NAME>
1-[butoxy(butyl)phosphoryl]oxybutane

> <PUBCHEM_IUPAC_NAME>
1-[butoxy(butyl)phosphoryl]oxybutane

> <PUBCHEM_IUPAC_SYSTEMATIC_NAME>
1-[butoxy(butyl)phosphoryl]oxybutane

> <PUBCHEM_IUPAC_TRADITIONAL_NAME>
1-[butoxy(butyl)phosphoryl]oxybutane

> <PUBCHEM_IUPAC_INCHI>
InChI=1S/C12H27O3P/c1-4-7-10-14-16(13,12-9-6-3)15-11-8-5-2/h4-12H2,1-3H3

> <PUBCHEM_IUPAC_INCHIKEY>
JPGXOMADPRULAC-UHFFFAOYSA-N

> <PUBCHEM_XLOGP3_AA>
3.2

> <PUBCHEM_EXACT_MASS>
250.169781

> <PUBCHEM_MOLECULAR_FORMULA>
C12H27O3P

> <PUBCHEM_MOLECULAR_WEIGHT>
250.314742

> <PUBCHEM_OPENEYE_CAN_SMILES>
CCCCOP(=O)(CCCC)OCCCC

> <PUBCHEM_OPENEYE_ISO_SMILES>
CCCCOP(=O)(CCCC)OCCCC

> <PUBCHEM_CACTVS_TPSA>
35.5

> <PUBCHEM_MONOISOTOPIC_WEIGHT>
250.169781

> <PUBCHEM_TOTAL_CHARGE>
0

> <PUBCHEM_HEAVY_ATOM_COUNT>
16

> <PUBCHEM_ATOM_DEF_STEREO_COUNT>
0

> <PUBCHEM_ATOM_UDEF_STEREO_COUNT>
0

> <PUBCHEM_BOND_DEF_STEREO_COUNT>
0

> <PUBCHEM_BOND_UDEF_STEREO_COUNT>
0

> <PUBCHEM_ISOTOPIC_ATOM_COUNT>
0

> <PUBCHEM_COMPONENT_COUNT>
1

> <PUBCHEM_CACTVS_TAUTO_COUNT>
1

> <PUBCHEM_COORDINATE_TYPE>
1
5
255

$$$$

