   Color/Form
        Colorless crystals
   from [1]HSDB

   Odor
        Odorless
   from [2]HSDB

   Melting Point
        111-112 deg C
   from [3]HSDB

   Density/Specific Gravity
        1.2 @ 20 deg C
   from [4]HSDB

   Octanol/Water Partition Coefficient
        log Kow = 6.37 @ 23 deg C, distilled water
   from [5]HSDB

   Solubilities

     * In organic solvents (g/l @ 20 deg C): acetone 460, ethanol 57,
       hexane 10, benzene 110, xylene 390, cyclohexane 320, n-octanol 63.
     * In methyl cellulose 110 g/L @ 20 deg C; corn oil 42 g/L @ 20 deg C
     * In water, 0.012 mg/l @ 24 deg C

   from [6]HSDB

   Vapor Pressure
        1.18X10-6 mm Hg @ 20 deg C
   from [7]HSDB

   Computed Properties
   Molecular Weight                  364.9326 [g/mol]
   Molecular Formula                 C[19]H[25]ClN[2]OS
   XLogP3-AA                         5.2
   H-Bond Donor                      0
   H-Bond Acceptor                   3
   Rotatable Bond Count              5
   Exact Mass                        364.137612
   MonoIsotopic Mass                 364.137612
   Topological Polar Surface Area    58
   Heavy Atom Count                  24
   Formal Charge                     0
   Complexity                        535
   Isotope Atom Count                0
   Defined Atom Stereocenter Count   0
   Undefined Atom Stereocenter Count 0
   Defined Bond Stereocenter Count   0
   Undefined Bond Stereocenter Count 0
   Covalently-Bonded Unit Count      1
   Feature 3D Acceptor Count         2
   Feature 3D Hydrophobe Count       2
   Feature 3D Ring Count             2
   Effective Rotor Count             5
   Conformer Sampling RMSD           0.8
   CID Conformer Count               [8]11

References

   1. http://toxnet.nlm.nih.gov/cgi-bin/sis/search/r?dbs+hsdb:@term+@rn+@rel+96489-71-3
   2. http://toxnet.nlm.nih.gov/cgi-bin/sis/search/r?dbs+hsdb:@term+@rn+@rel+96489-71-3
   3. http://toxnet.nlm.nih.gov/cgi-bin/sis/search/r?dbs+hsdb:@term+@rn+@rel+96489-71-3
   4. http://toxnet.nlm.nih.gov/cgi-bin/sis/search/r?dbs+hsdb:@term+@rn+@rel+96489-71-3
   5. http://toxnet.nlm.nih.gov/cgi-bin/sis/search/r?dbs+hsdb:@term+@rn+@rel+96489-71-3
   6. http://toxnet.nlm.nih.gov/cgi-bin/sis/search/r?dbs+hsdb:@term+@rn+@rel+96489-71-3
   7. http://toxnet.nlm.nih.gov/cgi-bin/sis/search/r?dbs+hsdb:@term+@rn+@rel+96489-71-3
   8. http://pubchem.ncbi.nlm.nih.gov/vw3d/vw3d.cgi?cid=91754
