442125
  -OEChem-07051212572D

 74 78  0     1  0  0  0  0  0999 V2000
   11.4260    1.4832    0.0000 O   0  0  0  0  0  0  0  0  0  0  0  0
   11.9260   -1.1149    0.0000 O   0  0  0  0  0  0  0  0  0  0  0  0
    9.9260    2.3492    0.0000 O   0  0  0  0  0  0  0  0  0  0  0  0
   13.4260   -0.2489    0.0000 O   0  0  0  0  0  0  0  0  0  0  0  0
    7.3424    3.1540    0.0000 O   0  0  0  0  0  0  0  0  0  0  0  0
    9.9260   -1.1149    0.0000 O   0  0  0  0  0  0  0  0  0  0  0  0
    8.9260    0.6172    0.0000 O   0  0  0  0  0  0  0  0  0  0  0  0
   12.9260   -2.8469    0.0000 O   0  0  0  0  0  0  0  0  0  0  0  0
   14.9260   -2.8469    0.0000 O   0  0  0  0  0  0  0  0  0  0  0  0
   15.9260   -1.1149    0.0000 O   0  0  0  0  0  0  0  0  0  0  0  0
   13.4260    1.4832    0.0000 O   0  0  0  0  0  0  0  0  0  0  0  0
   14.4260    1.4832    0.0000 O   0  0  0  0  0  0  0  0  0  0  0  0
    3.7702    3.3839    0.0000 O   0  0  0  0  0  0  0  0  0  0  0  0
    2.0000    3.3734    0.0000 O   0  0  0  0  0  0  0  0  0  0  0  0
   11.4260   -0.2489    0.0000 C   0  0  1  0  0  0  0  0  0  0  0  0
   10.4260   -0.2489    0.0000 C   0  0  1  0  0  0  0  0  0  0  0  0
    9.9260    0.6172    0.0000 C   0  0  2  0  0  0  0  0  0  0  0  0
   11.9260    0.6172    0.0000 C   0  0  1  0  0  0  0  0  0  0  0  0
   10.4260    1.4832    0.0000 C   0  0  1  0  0  0  0  0  0  0  0  0
    8.9260    2.3492    0.0000 C   0  0  0  0  0  0  0  0  0  0  0  0
   12.9260   -1.1149    0.0000 C   0  0  1  0  0  0  0  0  0  0  0  0
    7.9260    2.3492    0.0000 C   0  0  1  0  0  0  0  0  0  0  0  0
   13.4260   -1.9809    0.0000 C   0  0  1  0  0  0  0  0  0  0  0  0
   14.4260   -1.9809    0.0000 C   0  0  2  0  0  0  0  0  0  0  0  0
   14.9260   -1.1149    0.0000 C   0  0  1  0  0  0  0  0  0  0  0  0
   14.4260   -0.2489    0.0000 C   0  0  1  0  0  0  0  0  0  0  0  0
    7.3424    1.5445    0.0000 C   0  0  0  0  0  0  0  0  0  0  0  0
   12.9260    0.6172    0.0000 C   0  0  0  0  0  0  0  0  0  0  0  0
    8.9260    1.3492    0.0000 C   0  0  0  0  0  0  0  0  0  0  0  0
    8.9260    3.3492    0.0000 C   0  0  0  0  0  0  0  0  0  0  0  0
    6.3961    1.8492    0.0000 C   0  0  0  0  0  0  0  0  0  0  0  0
    6.3961    2.8492    0.0000 C   0  0  0  0  0  0  0  0  0  0  0  0
   14.9260    0.6172    0.0000 C   0  0  0  0  0  0  0  0  0  0  0  0
    5.5301    1.3492    0.0000 C   0  0  0  0  0  0  0  0  0  0  0  0
    5.5301    3.3492    0.0000 C   0  0  0  0  0  0  0  0  0  0  0  0
    4.6641    1.8492    0.0000 C   0  0  0  0  0  0  0  0  0  0  0  0
    4.6641    2.8492    0.0000 C   0  0  0  0  0  0  0  0  0  0  0  0
    3.7702    1.3146    0.0000 C   0  0  0  0  0  0  0  0  0  0  0  0
    2.8641    1.8284    0.0000 C   0  0  0  0  0  0  0  0  0  0  0  0
    2.8641    2.8700    0.0000 C   0  0  0  0  0  0  0  0  0  0  0  0
   12.0460   -0.2489    0.0000 H   0  0  0  0  0  0  0  0  0  0  0  0
    9.8060   -0.2489    0.0000 H   0  0  0  0  0  0  0  0  0  0  0  0
    9.6160    0.0802    0.0000 H   0  0  0  0  0  0  0  0  0  0  0  0
   12.2360    1.1541    0.0000 H   0  0  0  0  0  0  0  0  0  0  0  0
   10.7360    2.0201    0.0000 H   0  0  0  0  0  0  0  0  0  0  0  0
   12.6160   -1.6518    0.0000 H   0  0  0  0  0  0  0  0  0  0  0  0
    8.3122    3.1064    0.0000 H   0  0  0  0  0  0  0  0  0  0  0  0
   12.8060   -1.9809    0.0000 H   0  0  0  0  0  0  0  0  0  0  0  0
   15.0460   -1.9809    0.0000 H   0  0  0  0  0  0  0  0  0  0  0  0
   15.2360   -1.6518    0.0000 H   0  0  0  0  0  0  0  0  0  0  0  0
   14.1160    0.2881    0.0000 H   0  0  0  0  0  0  0  0  0  0  0  0
    7.0913    0.9776    0.0000 H   0  0  0  0  0  0  0  0  0  0  0  0
    7.8798    1.2353    0.0000 H   0  0  0  0  0  0  0  0  0  0  0  0
   12.8183    0.0066    0.0000 H   0  0  0  0  0  0  0  0  0  0  0  0
   13.5086    0.4051    0.0000 H   0  0  0  0  0  0  0  0  0  0  0  0
    8.3060    1.3492    0.0000 H   0  0  0  0  0  0  0  0  0  0  0  0
    8.9260    0.7292    0.0000 H   0  0  0  0  0  0  0  0  0  0  0  0
    9.5460    1.3492    0.0000 H   0  0  0  0  0  0  0  0  0  0  0  0
    9.5460    3.3492    0.0000 H   0  0  0  0  0  0  0  0  0  0  0  0
    8.9260    3.9692    0.0000 H   0  0  0  0  0  0  0  0  0  0  0  0
    8.3060    3.3492    0.0000 H   0  0  0  0  0  0  0  0  0  0  0  0
    9.3060   -1.1149    0.0000 H   0  0  0  0  0  0  0  0  0  0  0  0
    8.6160    0.0802    0.0000 H   0  0  0  0  0  0  0  0  0  0  0  0
   15.4009    0.2186    0.0000 H   0  0  0  0  0  0  0  0  0  0  0  0
   15.4009    1.0157    0.0000 H   0  0  0  0  0  0  0  0  0  0  0  0
   13.2360   -3.3839    0.0000 H   0  0  0  0  0  0  0  0  0  0  0  0
   15.5460   -2.8469    0.0000 H   0  0  0  0  0  0  0  0  0  0  0  0
    5.5301    0.7292    0.0000 H   0  0  0  0  0  0  0  0  0  0  0  0
   16.2360   -0.5780    0.0000 H   0  0  0  0  0  0  0  0  0  0  0  0
    5.5301    3.9692    0.0000 H   0  0  0  0  0  0  0  0  0  0  0  0
   13.1160    2.0201    0.0000 H   0  0  0  0  0  0  0  0  0  0  0  0
   14.7360    2.0201    0.0000 H   0  0  0  0  0  0  0  0  0  0  0  0
    3.7773    0.6946    0.0000 H   0  0  0  0  0  0  0  0  0  0  0  0
    2.3284    1.5163    0.0000 H   0  0  0  0  0  0  0  0  0  0  0  0
  1 18  1  0  0  0  0
  1 19  1  0  0  0  0
 15  2  1  1  0  0  0
 21  2  1  1  0  0  0
 19  3  1  6  0  0  0
  3 20  1  0  0  0  0
  4 21  1  0  0  0  0
  4 26  1  0  0  0  0
  5 22  1  0  0  0  0
  5 32  1  0  0  0  0
 16  6  1  6  0  0  0
  6 62  1  0  0  0  0
 17  7  1  1  0  0  0
  7 63  1  0  0  0  0
 23  8  1  1  0  0  0
  8 66  1  0  0  0  0
 24  9  1  6  0  0  0
  9 67  1  0  0  0  0
 25 10  1  1  0  0  0
 10 69  1  0  0  0  0
 11 28  1  0  0  0  0
 11 71  1  0  0  0  0
 12 33  1  0  0  0  0
 12 72  1  0  0  0  0
 13 37  1  0  0  0  0
 13 40  1  0  0  0  0
 14 40  2  0  0  0  0
 15 16  1  0  0  0  0
 15 18  1  0  0  0  0
 15 41  1  0  0  0  0
 16 17  1  0  0  0  0
 16 42  1  0  0  0  0
 17 19  1  0  0  0  0
 17 43  1  0  0  0  0
 18 28  1  6  0  0  0
 18 44  1  0  0  0  0
 19 45  1  0  0  0  0
 20 22  1  0  0  0  0
 20 29  1  0  0  0  0
 20 30  1  0  0  0  0
 21 23  1  0  0  0  0
 21 46  1  0  0  0  0
 22 27  1  0  0  0  0
 22 47  1  6  0  0  0
 23 24  1  0  0  0  0
 23 48  1  0  0  0  0
 24 25  1  0  0  0  0
 24 49  1  0  0  0  0
 25 26  1  0  0  0  0
 25 50  1  0  0  0  0
 26 33  1  6  0  0  0
 26 51  1  0  0  0  0
 27 31  1  0  0  0  0
 27 52  1  0  0  0  0
 27 53  1  0  0  0  0
 28 54  1  0  0  0  0
 28 55  1  0  0  0  0
 29 56  1  0  0  0  0
 29 57  1  0  0  0  0
 29 58  1  0  0  0  0
 30 59  1  0  0  0  0
 30 60  1  0  0  0  0
 30 61  1  0  0  0  0
 31 32  2  0  0  0  0
 31 34  1  0  0  0  0
 32 35  1  0  0  0  0
 33 64  1  0  0  0  0
 33 65  1  0  0  0  0
 34 36  2  0  0  0  0
 34 68  1  0  0  0  0
 35 37  2  0  0  0  0
 35 70  1  0  0  0  0
 36 37  1  0  0  0  0
 36 38  1  0  0  0  0
 38 39  2  0  0  0  0
 38 73  1  0  0  0  0
 39 40  1  0  0  0  0
 39 74  1  0  0  0  0
M  END
> <PUBCHEM_COMPOUND_CID>
442125

> <PUBCHEM_COMPOUND_CANONICALIZED>
1

> <PUBCHEM_CACTVS_COMPLEXITY>
929

> <PUBCHEM_CACTVS_HBOND_ACCEPTOR>
14

> <PUBCHEM_CACTVS_HBOND_DONOR>
7

> <PUBCHEM_CACTVS_ROTATABLE_BOND>
7

> <PUBCHEM_CACTVS_SUBSKEYS>
AAADcfB4PAAAAAAAAAAAAAAAAAAAASAAAAA0SIEAAAAAAEiBAAAAGgAACAAADFSwmAMyDoAABgCIAiDSCAACCAAgIAAIiAAGCMgdNyKEMRqieiClwBUPqYfA4PwOIAACCAAIAABAAAQQABAAAAAAAAAAAA==

> <PUBCHEM_IUPAC_OPENEYE_NAME>
(2R)-2-[1-[(2S,3R,4R,5S,6R)-3,4-dihydroxy-6-(hydroxymethyl)-5-[(2R,3R,4S,5S,6R)-3,4,5-trihydroxy-6-(hydroxymethyl)tetrahydropyran-2-yl]oxy-tetrahydropyran-2-yl]oxy-1-methyl-ethyl]-2,3-dihydrofuro[3,2-g]chromen-7-one

> <PUBCHEM_IUPAC_CAS_NAME>
(2R)-2-[2-[[(2S,3R,4R,5S,6R)-3,4-dihydroxy-6-(hydroxymethyl)-5-[[(2R,3R,4S,5S,6R)-3,4,5-trihydroxy-6-(hydroxymethyl)-2-oxanyl]oxy]-2-oxanyl]oxy]propan-2-yl]-2,3-dihydrofuro[3,2-g][1]benzopyran-7-one

> <PUBCHEM_IUPAC_NAME>
(2R)-2-[2-[(2S,3R,4R,5S,6R)-3,4-dihydroxy-6-(hydroxymethyl)-5-[(2R,3R,4S,5S,6R)-3,4,5-trihydroxy-6-(hydroxymethyl)oxan-2-yl]oxyoxan-2-yl]oxypropan-2-yl]-2,3-dihydrofuro[3,2-g]chromen-7-one

> <PUBCHEM_IUPAC_SYSTEMATIC_NAME>
(2R)-2-[2-[(2S,3R,4R,5S,6R)-6-(hydroxymethyl)-5-[(2R,3R,4S,5S,6R)-6-(hydroxymethyl)-3,4,5-tris(oxidanyl)oxan-2-yl]oxy-3,4-bis(oxidanyl)oxan-2-yl]oxypropan-2-yl]-2,3-dihydrofuro[3,2-g]chromen-7-one

> <PUBCHEM_IUPAC_TRADITIONAL_NAME>
(2R)-2-[1-[(2S,3R,4R,5S,6R)-3,4-dihydroxy-6-methylol-5-[(2R,3R,4S,5S,6R)-3,4,5-trihydroxy-6-methylol-tetrahydropyran-2-yl]oxy-tetrahydropyran-2-yl]oxy-1-methyl-ethyl]-2,3-dihydrofuro[3,2-g]chromen-7-one

> <PUBCHEM_IUPAC_INCHI>
InChI=1S/C26H34O14/c1-26(2,16-6-11-5-10-3-4-17(29)36-12(10)7-13(11)35-16)40-25-22(34)20(32)23(15(9-28)38-25)39-24-21(33)19(31)18(30)14(8-27)37-24/h3-5,7,14-16,18-25,27-28,30-34H,6,8-9H2,1-2H3/t14-,15-,16-,18-,19+,20-,21-,22-,23-,24-,25+/m1/s1

> <PUBCHEM_IUPAC_INCHIKEY>
FBXYOMVTZDVTHK-LDVHROGYSA-N

> <PUBCHEM_XLOGP3_AA>
-1.8

> <PUBCHEM_EXACT_MASS>
570.194856

> <PUBCHEM_MOLECULAR_FORMULA>
C26H34O14

> <PUBCHEM_MOLECULAR_WEIGHT>
570.53976

> <PUBCHEM_OPENEYE_CAN_SMILES>
CC(C)(C1CC2=C(O1)C=C3C(=C2)C=CC(=O)O3)OC4C(C(C(C(O4)CO)OC5C(C(C(C(O5)CO)O)O)O)O)O

> <PUBCHEM_OPENEYE_ISO_SMILES>
CC(C)([C@H]1CC2=C(O1)C=C3C(=C2)C=CC(=O)O3)O[C@H]4[C@@H]([C@H]([C@@H]([C@H](O4)CO)O[C@@H]5[C@@H]([C@H]([C@@H]([C@H](O5)CO)O)O)O)O)O

> <PUBCHEM_CACTVS_TPSA>
214

> <PUBCHEM_MONOISOTOPIC_WEIGHT>
570.194856

> <PUBCHEM_TOTAL_CHARGE>
0

> <PUBCHEM_HEAVY_ATOM_COUNT>
40

> <PUBCHEM_ATOM_DEF_STEREO_COUNT>
11

> <PUBCHEM_ATOM_UDEF_STEREO_COUNT>
0

> <PUBCHEM_BOND_DEF_STEREO_COUNT>
0

> <PUBCHEM_BOND_UDEF_STEREO_COUNT>
0

> <PUBCHEM_ISOTOPIC_ATOM_COUNT>
0

> <PUBCHEM_COMPONENT_COUNT>
1

> <PUBCHEM_CACTVS_TAUTO_COUNT>
1

> <PUBCHEM_COORDINATE_TYPE>
1
5
255

> <PUBCHEM_BONDANNOTATIONS>
25  10  5
13  37  8
13  40  8
18  28  6
15  2  5
21  2  5
22  47  6
26  33  6
19  3  6
31  32  8
31  34  8
32  35  8
34  36  8
35  37  8
36  37  8
36  38  8
38  39  8
39  40  8
16  6  6
17  7  5
23  8  5
24  9  6

$$$$

