   Color/Form

     * LIGHT STRAW-COLORED LIQ
     * Clear liquid

   from [1]HSDB

   Odor
        Mild ester
   from [2]HSDB

   Boiling Point
        135 DEG C @ 0.03 MM HG
   from [3]HSDB

   Corrosivity
        Slightly corrosive to copper, lead, mild steel, tin and zinc, but
   will not attack fiberglass, reinforced polyester, rigid PVC, or the
   usual lacquers used for lining drums. Incompatible with most mineral
   carriers, except synthetic silicas such as 'Colloidal Silica K320' and
   'Hisil 233'.
   from [4]HSDB

   Density/Specific Gravity
        1.19 @ 25 DEG C
   from [5]HSDB

   Solubilities

     * 0.1%; SLIGHTLY SOL IN KEROSENE, SATURATED HYDROCARBONS; SOL IN
       ACETONE, CHLOROFORM, ETHANOL, HIGHLY CHLORINATED HYDROCARBONS
     * 0.1% in water at room temperature
     * SOL IN PROPAN-2-OL, XYLENE

   from [6]HSDB

   Spectral Properties

     * INDEX OF REFRACTION: 1.4988 @ 25 DEG C/D
     * Intense mass spectral peaks: 127 m/z (100%), 105 m/z (80%), 104 m/z
       (37%), 193 m/z (31%)
     * INDEX OF REFRACTION: 1.5505 @ 25 DEG C/D

   from [7]HSDB

   Vapor Pressure
        1.4X10-5 mm Hg @ 20 deg C
   from [8]HSDB

   Other Chemical/Physical Properties

     * DENSITY: 1.2 @ 15 DEG C/15 DEG C
     * In aqueous solution at 38 deg C, 50% is hydrolyzed in 87 hr at pH 1
       and 35 hr at pH 9.

   from [9]HSDB

   Computed Properties
   Molecular Weight                  314.270822 [g/mol]
   Molecular Formula                 C[14]H[19]O[6]P
   XLogP3                            3.3
   H-Bond Donor                      0
   H-Bond Acceptor                   6
   Rotatable Bond Count              8
   Exact Mass                        314.091925
   MonoIsotopic Mass                 314.091925
   Topological Polar Surface Area    71.1
   Heavy Atom Count                  21
   Formal Charge                     0
   Complexity                        406
   Isotope Atom Count                0
   Defined Atom Stereocenter Count   0
   Undefined Atom Stereocenter Count 1
   Defined Bond Stereocenter Count   1
   Undefined Bond Stereocenter Count 0
   Covalently-Bonded Unit Count      1
   Feature 3D Acceptor Count         2
   Feature 3D Ring Count             1
   Effective Rotor Count             8
   Conformer Sampling RMSD           1
   CID Conformer Count               [10]244

References

   1. http://toxnet.nlm.nih.gov/cgi-bin/sis/search/r?dbs+hsdb:@term+@rn+@rel+7700-17-6
   2. http://toxnet.nlm.nih.gov/cgi-bin/sis/search/r?dbs+hsdb:@term+@rn+@rel+7700-17-6
   3. http://toxnet.nlm.nih.gov/cgi-bin/sis/search/r?dbs+hsdb:@term+@rn+@rel+7700-17-6
   4. http://toxnet.nlm.nih.gov/cgi-bin/sis/search/r?dbs+hsdb:@term+@rn+@rel+7700-17-6
   5. http://toxnet.nlm.nih.gov/cgi-bin/sis/search/r?dbs+hsdb:@term+@rn+@rel+7700-17-6
   6. http://toxnet.nlm.nih.gov/cgi-bin/sis/search/r?dbs+hsdb:@term+@rn+@rel+7700-17-6
   7. http://toxnet.nlm.nih.gov/cgi-bin/sis/search/r?dbs+hsdb:@term+@rn+@rel+7700-17-6
   8. http://toxnet.nlm.nih.gov/cgi-bin/sis/search/r?dbs+hsdb:@term+@rn+@rel+7700-17-6
   9. http://toxnet.nlm.nih.gov/cgi-bin/sis/search/r?dbs+hsdb:@term+@rn+@rel+7700-17-6
  10. http://pubchem.ncbi.nlm.nih.gov/vw3d/vw3d.cgi?cid=5371578
