442317
  -OEChem-07051212572D

 38 43  0     1  0  0  0  0  0999 V2000
    2.5405    0.3400    0.0000 O   0  0  0  0  0  0  0  0  0  0  0  0
    5.4611   -4.4125    0.0000 O   0  0  0  0  0  0  0  0  0  0  0  0
    6.9666   -3.5278    0.0000 O   0  0  0  0  0  0  0  0  0  0  0  0
    5.9658    3.5673    0.0000 O   0  0  0  0  0  0  0  0  0  0  0  0
    4.5204    4.4167    0.0000 O   0  0  0  0  0  0  0  0  0  0  0  0
    6.0427    0.3368    0.0000 N   0  0  0  0  0  0  0  0  0  0  0  0
    3.4007   -0.1700    0.0000 C   0  0  1  0  0  0  0  0  0  0  0  0
    4.3107    0.3368    0.0000 C   0  0  0  0  0  0  0  0  0  0  0  0
    3.3926   -1.2116    0.0000 C   0  0  0  0  0  0  0  0  0  0  0  0
    4.2947   -1.7324    0.0000 C   0  0  0  0  0  0  0  0  0  0  0  0
    5.1767   -0.1632    0.0000 C   0  0  0  0  0  0  0  0  0  0  0  0
    5.1928   -1.2047    0.0000 C   0  0  0  0  0  0  0  0  0  0  0  0
    4.3107    1.3368    0.0000 C   0  0  0  0  0  0  0  0  0  0  0  0
    5.1767    1.8368    0.0000 C   0  0  0  0  0  0  0  0  0  0  0  0
    4.2864   -2.8174    0.0000 C   0  0  0  0  0  0  0  0  0  0  0  0
    6.1447   -1.7253    0.0000 C   0  0  0  0  0  0  0  0  0  0  0  0
    5.2260   -3.3599    0.0000 C   0  0  0  0  0  0  0  0  0  0  0  0
    5.1928    2.8783    0.0000 C   0  0  0  0  0  0  0  0  0  0  0  0
    6.1614   -2.8102    0.0000 C   0  0  0  0  0  0  0  0  0  0  0  0
    3.4007    1.8437    0.0000 C   0  0  0  0  0  0  0  0  0  0  0  0
    6.0427    1.3368    0.0000 C   0  0  0  0  0  0  0  0  0  0  0  0
    4.2947    3.4061    0.0000 C   0  0  0  0  0  0  0  0  0  0  0  0
    3.3926    2.8853    0.0000 C   0  0  0  0  0  0  0  0  0  0  0  0
    6.5347   -4.5161    0.0000 C   0  0  0  0  0  0  0  0  0  0  0  0
    5.5511    4.5161    0.0000 C   0  0  0  0  0  0  0  0  0  0  0  0
    2.8608   -0.4748    0.0000 H   0  0  0  0  0  0  0  0  0  0  0  0
    2.7826   -1.1008    0.0000 H   0  0  0  0  0  0  0  0  0  0  0  0
    3.1791   -1.7937    0.0000 H   0  0  0  0  0  0  0  0  0  0  0  0
    3.7482   -3.1253    0.0000 H   0  0  0  0  0  0  0  0  0  0  0  0
    6.6756   -1.4050    0.0000 H   0  0  0  0  0  0  0  0  0  0  0  0
    2.8674    1.5275    0.0000 H   0  0  0  0  0  0  0  0  0  0  0  0
    6.5797    1.6468    0.0000 H   0  0  0  0  0  0  0  0  0  0  0  0
    2.0000    0.0362    0.0000 H   0  0  0  0  0  0  0  0  0  0  0  0
    2.8545    3.1932    0.0000 H   0  0  0  0  0  0  0  0  0  0  0  0
    6.4106   -5.1235    0.0000 H   0  0  0  0  0  0  0  0  0  0  0  0
    7.1258   -4.7033    0.0000 H   0  0  0  0  0  0  0  0  0  0  0  0
    6.1422    4.7033    0.0000 H   0  0  0  0  0  0  0  0  0  0  0  0
    5.4271    5.1235    0.0000 H   0  0  0  0  0  0  0  0  0  0  0  0
  7  1  1  1  0  0  0
  1 33  1  0  0  0  0
  2 17  1  0  0  0  0
  2 24  1  0  0  0  0
  3 19  1  0  0  0  0
  3 24  1  0  0  0  0
  4 18  1  0  0  0  0
  4 25  1  0  0  0  0
  5 22  1  0  0  0  0
  5 25  1  0  0  0  0
  6 11  2  0  0  0  0
  6 21  1  0  0  0  0
  7  8  1  0  0  0  0
  7  9  1  0  0  0  0
  7 26  1  0  0  0  0
  8 11  1  0  0  0  0
  8 13  2  0  0  0  0
  9 10  1  0  0  0  0
  9 27  1  0  0  0  0
  9 28  1  0  0  0  0
 10 12  1  0  0  0  0
 10 15  2  0  0  0  0
 11 12  1  0  0  0  0
 12 16  2  0  0  0  0
 13 14  1  0  0  0  0
 13 20  1  0  0  0  0
 14 18  1  0  0  0  0
 14 21  2  0  0  0  0
 15 17  1  0  0  0  0
 15 29  1  0  0  0  0
 16 19  1  0  0  0  0
 16 30  1  0  0  0  0
 17 19  2  0  0  0  0
 18 22  2  0  0  0  0
 20 23  2  0  0  0  0
 20 31  1  0  0  0  0
 21 32  1  0  0  0  0
 22 23  1  0  0  0  0
 23 34  1  0  0  0  0
 24 35  1  0  0  0  0
 24 36  1  0  0  0  0
 25 37  1  0  0  0  0
 25 38  1  0  0  0  0
M  END
> <PUBCHEM_COMPOUND_CID>
442317

> <PUBCHEM_COMPOUND_CANONICALIZED>
1

> <PUBCHEM_CACTVS_COMPLEXITY>
532

> <PUBCHEM_CACTVS_HBOND_ACCEPTOR>
6

> <PUBCHEM_CACTVS_HBOND_DONOR>
1

> <PUBCHEM_CACTVS_ROTATABLE_BOND>
0

> <PUBCHEM_CACTVS_SUBSKEYS>
AAADccB6OAAAAAAAAAAAAAAAAAAAASJAAAA8YMEAAAAAAEjx9AAAHgAACAAADBzhngc8jtIIFgCgAzRnRACCiCAxICAI2CAuzJgdNuLEsZukcCpmwBnO+Aew8P8OoAABAAAYQADAAAaEADSAAAAAAAAAAA==

> <PUBCHEM_IUPAC_INCHI>
InChI=1S/C19H13NO5/c21-13-3-9-4-15-16(24-7-23-15)5-11(9)18-17(13)10-1-2-14-19(25-8-22-14)12(10)6-20-18/h1-2,4-6,13,21H,3,7-8H2/t13-/m1/s1

> <PUBCHEM_IUPAC_INCHIKEY>
PKAFVNJHLLUZFP-CYBMUJFWSA-N

> <PUBCHEM_XLOGP3_AA>
2.6

> <PUBCHEM_EXACT_MASS>
335.079373

> <PUBCHEM_MOLECULAR_FORMULA>
C19H13NO5

> <PUBCHEM_MOLECULAR_WEIGHT>
335.31022

> <PUBCHEM_OPENEYE_CAN_SMILES>
C1C(C2=C3C=CC4=C(C3=CN=C2C5=CC6=C(C=C51)OCO6)OCO4)O

> <PUBCHEM_OPENEYE_ISO_SMILES>
C1[C@H](C2=C3C=CC4=C(C3=CN=C2C5=CC6=C(C=C51)OCO6)OCO4)O

> <PUBCHEM_CACTVS_TPSA>
70

> <PUBCHEM_MONOISOTOPIC_WEIGHT>
335.079373

> <PUBCHEM_TOTAL_CHARGE>
0

> <PUBCHEM_HEAVY_ATOM_COUNT>
25

> <PUBCHEM_ATOM_DEF_STEREO_COUNT>
1

> <PUBCHEM_ATOM_UDEF_STEREO_COUNT>
0

> <PUBCHEM_BOND_DEF_STEREO_COUNT>
0

> <PUBCHEM_BOND_UDEF_STEREO_COUNT>
0

> <PUBCHEM_ISOTOPIC_ATOM_COUNT>
0

> <PUBCHEM_COMPONENT_COUNT>
1

> <PUBCHEM_CACTVS_TAUTO_COUNT>
1

> <PUBCHEM_COORDINATE_TYPE>
1
5
255

> <PUBCHEM_BONDANNOTATIONS>
7  1  5
10  12  8
10  15  8
12  16  8
13  14  8
13  20  8
14  18  8
14  21  8
15  17  8
16  19  8
17  19  8
18  22  8
20  23  8
22  23  8
6  11  8
6  21  8
8  11  8
8  13  8

$$$$

