   Color/Form
        Brownish yellow solid
   from [1]HSDB

   Odor
        Odorless
   from [2]HSDB

   Melting Point
        180 deg C
   from [3]HSDB

   Octanol/Water Partition Coefficient
        log Kow = 1.3 /Estimated/
   from [4]HSDB

   Solubilities

     * Slightly soluble in acetone, methanol. Anhydrous ethanol,
       -petroleum ether and kerosene
     * Insoluble in water
     * PRACTICALLY INSOL IN MOST ORG SOLVENTS

   from [5]HSDB

   Spectral Properties
        Intense mass spectral peaks: 160 m/z (100%), 236 m/z (77%), 102
   m/z (41%), 75 m/z (14%)
   from [6]HSDB

   Vapor Pressure
        1X10-7 mm Hg at 20 deg C
   from [7]HSDB

   Other Chemical/Physical Properties

     * Begins to melt at 165 deg c but does not decompose until temp
       exceeds 200 deg C /Technical/
     * Henry's Law constant: 7.8X10-8 atm cu m/mole at 25 deg C (est)
     * Hydroxyl radical reaction rate constant: 7.9X10-12 cu cm/molec-sec
       at 25 deg C (est)

   from [8]HSDB

   Computed Properties
   Molecular Weight                  236.33646 [g/mol]
   Molecular Formula                 C[9]H[4]N[2]S[3]
   XLogP3-AA                         3.3
   H-Bond Donor                      0
   H-Bond Acceptor                   5
   Rotatable Bond Count              0
   Exact Mass                        235.953661
   MonoIsotopic Mass                 235.953661
   Topological Polar Surface Area    109
   Heavy Atom Count                  14
   Formal Charge                     0
   Complexity                        234
   Isotope Atom Count                0
   Defined Atom Stereocenter Count   0
   Undefined Atom Stereocenter Count 0
   Defined Bond Stereocenter Count   0
   Undefined Bond Stereocenter Count 0
   Covalently-Bonded Unit Count      1
   Feature 3D Acceptor Count         3
   Feature 3D Ring Count             3
   Effective Rotor Count             0
   Conformer Sampling RMSD           0.4
   CID Conformer Count               [9]1

References

   1. http://toxnet.nlm.nih.gov/cgi-bin/sis/search/r?dbs+hsdb:@term+@rn+@rel+93-75-4
   2. http://toxnet.nlm.nih.gov/cgi-bin/sis/search/r?dbs+hsdb:@term+@rn+@rel+93-75-4
   3. http://toxnet.nlm.nih.gov/cgi-bin/sis/search/r?dbs+hsdb:@term+@rn+@rel+93-75-4
   4. http://toxnet.nlm.nih.gov/cgi-bin/sis/search/r?dbs+hsdb:@term+@rn+@rel+93-75-4
   5. http://toxnet.nlm.nih.gov/cgi-bin/sis/search/r?dbs+hsdb:@term+@rn+@rel+93-75-4
   6. http://toxnet.nlm.nih.gov/cgi-bin/sis/search/r?dbs+hsdb:@term+@rn+@rel+93-75-4
   7. http://toxnet.nlm.nih.gov/cgi-bin/sis/search/r?dbs+hsdb:@term+@rn+@rel+93-75-4
   8. http://toxnet.nlm.nih.gov/cgi-bin/sis/search/r?dbs+hsdb:@term+@rn+@rel+93-75-4
   9. http://pubchem.ncbi.nlm.nih.gov/vw3d/vw3d.cgi?cid=7159
