   Color/Form
        Colorless crystalline solid [Note: A liquid above 90 degrees F]
   from [1]HSDB

   Odor

     * IT HAS AN ODOR WHICH IS NOT DISTINGUISHABLE FROM THE ODOR OF OTHER
       HYDROCARBONS WITH CLOSELY RELATED CHEMICAL STRUCTURE, SUCH AS
       TERPENES
     * DISAGREEABLE ODOR
     * Sweet, sharp odor, unpleasant
     * Disagreeable camphor-like odor

   from [2]HSDB

   Boiling Point
        170 deg C (dec); 65 deg C at 14 mm Hg
   from [3]HSDB

   Melting Point
        33.6 deg C
   from [4]HSDB

   Corrosivity
        Non-corrosive
   from [5]HSDB

   Density/Specific Gravity
        0.9302 at 35 deg C/4 deg C
   from [6]HSDB

   Heat of Combustion
        -18,800 BTU/lb= -10,400 cal/g= -437X10+5 J/kg
   from [7]HSDB

   Heat of Vaporization
        9.2 kJ/mol
   from [8]HSDB

   Octanol/Water Partition Coefficient
        log Kow = 3.16 (est)
   from [9]HSDB

   Solubilities

     * Very soluble in ethyl ether, ethanol
     * Readily sol in acetone, dichloromethane, ethyl acetate, n-hexane,
       and toluene.
     * 0.020 lb/100 lb water at 68.02 deg F
     * In water, 26.5 mg/L at 25 deg C (est)

   from [10]HSDB

   Spectral Properties

     * MAX ABSORPTION (ISOOCTANE): 217 NM (LOG E= 1.4); SADTLER REF
       NUMBER: 1143 (IR, PRISM)
     * Iindex of refraction = 1.505 at 35 deg C
     * IR: 1262 (Coblentz Society Spectral Collection)
     * NMR: 6494 (Sadtler Research Laboratories Spectral Collection)
     * MASS: 628 (Atlas of Mass Spectral Data, John Wiley & Sons, New
       York)

   from [11]HSDB

   Vapor Density
        4.55 (Air = 1)
   from [12]HSDB

   Vapor Pressure
        2.29 mm Hg at 25 deg C (est)
   from [13]HSDB

   Viscosity
        0.736 cP (est) at 70 deg F
   from [14]HSDB

   Other Chemical/Physical Properties

     * Bulk density = 8.2 lb/gal at 60 deg F
     * Saturated liquid density= 60.980 lb/cu ft @ 70 deg F
     * Liquid heat capacity= 0.478 Btu/lb-F @ 70 deg F
     * Liquid thermal conductivity= 1.040 Btu-in/hr-sq ft-F at 70 deg C
     * Heat of cracking: 102.9 kJ/mol
     * Heat of fusion: 2.1 kJ/mol
     * Specific heat: 0.411 kJ/kg deg K
     * Colors of commercial dicyclopentadiene resins may run from about
       Gardner 10 to Gardner 18 and darker. /Commercial dicyclopentadiene/
     * Dicyclopentadiene reacts with alcohols and phenols to form ether
       derivatives; with halogen acids, with thiocyanic acid, and with
       various carboxylic acids to form esters.
     * 1 mg/cu m= 0.18 ppm, 1 ppm= 5.49 mg/cu m
     * Henry's Law constant = 6.25X10-2 atm-cum/mol at 25 deg C (est)
     * Hydroxyl radical reaction rate constant = 1.19X10-10 cu
       cm/molec-sec at 25 deg C (est)

   from [15]HSDB

   Computed Properties
   Molecular Weight                  132.20228 [g/mol]
   Molecular Formula                 C[10]H[12]
   XLogP3-AA                         2.5
   H-Bond Donor                      0
   H-Bond Acceptor                   0
   Rotatable Bond Count              0
   Exact Mass                        132.0939
   MonoIsotopic Mass                 132.0939
   Topological Polar Surface Area    0
   Heavy Atom Count                  10
   Formal Charge                     0
   Complexity                        212
   Isotope Atom Count                0
   Defined Atom Stereocenter Count   0
   Undefined Atom Stereocenter Count 4
   Defined Bond Stereocenter Count   0
   Undefined Bond Stereocenter Count 0
   Covalently-Bonded Unit Count      1
   Feature 3D Ring Count             2
   Effective Rotor Count             0.4
   Conformer Sampling RMSD           0.4
   CID Conformer Count               [16]3

References

   1. http://toxnet.nlm.nih.gov/cgi-bin/sis/search/r?dbs+hsdb:@term+@rn+@rel+77-73-6
   2. http://toxnet.nlm.nih.gov/cgi-bin/sis/search/r?dbs+hsdb:@term+@rn+@rel+77-73-6
   3. http://toxnet.nlm.nih.gov/cgi-bin/sis/search/r?dbs+hsdb:@term+@rn+@rel+77-73-6
   4. http://toxnet.nlm.nih.gov/cgi-bin/sis/search/r?dbs+hsdb:@term+@rn+@rel+77-73-6
   5. http://toxnet.nlm.nih.gov/cgi-bin/sis/search/r?dbs+hsdb:@term+@rn+@rel+77-73-6
   6. http://toxnet.nlm.nih.gov/cgi-bin/sis/search/r?dbs+hsdb:@term+@rn+@rel+77-73-6
   7. http://toxnet.nlm.nih.gov/cgi-bin/sis/search/r?dbs+hsdb:@term+@rn+@rel+77-73-6
   8. http://toxnet.nlm.nih.gov/cgi-bin/sis/search/r?dbs+hsdb:@term+@rn+@rel+77-73-6
   9. http://toxnet.nlm.nih.gov/cgi-bin/sis/search/r?dbs+hsdb:@term+@rn+@rel+77-73-6
  10. http://toxnet.nlm.nih.gov/cgi-bin/sis/search/r?dbs+hsdb:@term+@rn+@rel+77-73-6
  11. http://toxnet.nlm.nih.gov/cgi-bin/sis/search/r?dbs+hsdb:@term+@rn+@rel+77-73-6
  12. http://toxnet.nlm.nih.gov/cgi-bin/sis/search/r?dbs+hsdb:@term+@rn+@rel+77-73-6
  13. http://toxnet.nlm.nih.gov/cgi-bin/sis/search/r?dbs+hsdb:@term+@rn+@rel+77-73-6
  14. http://toxnet.nlm.nih.gov/cgi-bin/sis/search/r?dbs+hsdb:@term+@rn+@rel+77-73-6
  15. http://toxnet.nlm.nih.gov/cgi-bin/sis/search/r?dbs+hsdb:@term+@rn+@rel+77-73-6
  16. http://pubchem.ncbi.nlm.nih.gov/vw3d/vw3d.cgi?cid=6492
