200238
  -OEChem-07051213002D

 21 21  0     1  0  0  0  0  0999 V2000
    4.0984   -1.0005    0.0000 O   0  0  0  0  0  0  0  0  0  0  0  0
    2.4156   -1.1901    0.0000 O   0  0  0  0  0  0  0  0  0  0  0  0
    3.5984    1.1901    0.0000 C   0  0  0  0  0  0  0  0  0  0  0  0
    2.9749    0.4083    0.0000 C   0  0  3  0  0  0  0  0  0  0  0  0
    4.5984    1.1901    0.0000 C   0  0  0  0  0  0  0  0  0  0  0  0
    5.2219    0.4083    0.0000 C   0  0  0  0  0  0  0  0  0  0  0  0
    4.9994   -0.5666    0.0000 C   0  0  0  0  0  0  0  0  0  0  0  0
    3.1974   -0.5666    0.0000 C   0  0  0  0  0  0  0  0  0  0  0  0
    2.0000    0.6308    0.0000 C   0  0  0  0  0  0  0  0  0  0  0  0
    3.7364    1.7946    0.0000 H   0  0  0  0  0  0  0  0  0  0  0  0
    3.0398    1.4591    0.0000 H   0  0  0  0  0  0  0  0  0  0  0  0
    2.6942    1.2106    0.0000 H   0  0  0  0  0  0  0  0  0  0  0  0
    5.1570    1.4591    0.0000 H   0  0  0  0  0  0  0  0  0  0  0  0
    4.4604    1.7946    0.0000 H   0  0  0  0  0  0  0  0  0  0  0  0
    5.7805    0.1393    0.0000 H   0  0  0  0  0  0  0  0  0  0  0  0
    5.6085    0.8930    0.0000 H   0  0  0  0  0  0  0  0  0  0  0  0
    5.1374   -1.1711    0.0000 H   0  0  0  0  0  0  0  0  0  0  0  0
    5.6194   -0.5666    0.0000 H   0  0  0  0  0  0  0  0  0  0  0  0
    2.1380    1.2353    0.0000 H   0  0  0  0  0  0  0  0  0  0  0  0
    1.3955    0.7688    0.0000 H   0  0  0  0  0  0  0  0  0  0  0  0
    1.8620    0.0264    0.0000 H   0  0  0  0  0  0  0  0  0  0  0  0
  1  7  1  0  0  0  0
  1  8  1  0  0  0  0
  2  8  2  0  0  0  0
  3  4  1  0  0  0  0
  3  5  1  0  0  0  0
  3 10  1  0  0  0  0
  3 11  1  0  0  0  0
  4  8  1  0  0  0  0
  4  9  1  0  0  0  0
  4 12  1  0  0  0  0
  5  6  1  0  0  0  0
  5 13  1  0  0  0  0
  5 14  1  0  0  0  0
  6  7  1  0  0  0  0
  6 15  1  0  0  0  0
  6 16  1  0  0  0  0
  7 17  1  0  0  0  0
  7 18  1  0  0  0  0
  9 19  1  0  0  0  0
  9 20  1  0  0  0  0
  9 21  1  0  0  0  0
M  END
> <PUBCHEM_COMPOUND_CID>
200238

> <PUBCHEM_COMPOUND_CANONICALIZED>
1

> <PUBCHEM_CACTVS_COMPLEXITY>
110

> <PUBCHEM_CACTVS_HBOND_ACCEPTOR>
2

> <PUBCHEM_CACTVS_HBOND_DONOR>
0

> <PUBCHEM_CACTVS_ROTATABLE_BOND>
0

> <PUBCHEM_CACTVS_SUBSKEYS>
AAADccBgMAAAAAAAAAAAAAAAAAAAAAAAAAAAAAAABIAAAAAAAAAAGgAAAAAADQCggAICCAAABAAIAACQCAAAAAAAAAAAAAEAAAAAABIAAAACAAAEAAAAAAGISBAMAAAAAAAAAAAAAAAAAAAAAAAAAAAAAA==

> <PUBCHEM_IUPAC_OPENEYE_NAME>
3-methyloxepan-2-one

> <PUBCHEM_IUPAC_CAS_NAME>
3-methyl-2-oxepanone

> <PUBCHEM_IUPAC_NAME>
3-methyloxepan-2-one

> <PUBCHEM_IUPAC_SYSTEMATIC_NAME>
3-methyloxepan-2-one

> <PUBCHEM_IUPAC_TRADITIONAL_NAME>
3-methyloxepan-2-one

> <PUBCHEM_IUPAC_INCHI>
InChI=1S/C7H12O2/c1-6-4-2-3-5-9-7(6)8/h6H,2-5H2,1H3

> <PUBCHEM_IUPAC_INCHIKEY>
IYBOGQYZTIIPNI-UHFFFAOYSA-N

> <PUBCHEM_XLOGP3_AA>
1.5

> <PUBCHEM_EXACT_MASS>
128.08373

> <PUBCHEM_MOLECULAR_FORMULA>
C7H12O2

> <PUBCHEM_MOLECULAR_WEIGHT>
128.16898

> <PUBCHEM_OPENEYE_CAN_SMILES>
CC1CCCCOC1=O

> <PUBCHEM_OPENEYE_ISO_SMILES>
CC1CCCCOC1=O

> <PUBCHEM_CACTVS_TPSA>
26.3

> <PUBCHEM_MONOISOTOPIC_WEIGHT>
128.08373

> <PUBCHEM_TOTAL_CHARGE>
0

> <PUBCHEM_HEAVY_ATOM_COUNT>
9

> <PUBCHEM_ATOM_DEF_STEREO_COUNT>
0

> <PUBCHEM_ATOM_UDEF_STEREO_COUNT>
1

> <PUBCHEM_BOND_DEF_STEREO_COUNT>
0

> <PUBCHEM_BOND_UDEF_STEREO_COUNT>
0

> <PUBCHEM_ISOTOPIC_ATOM_COUNT>
0

> <PUBCHEM_COMPONENT_COUNT>
1

> <PUBCHEM_CACTVS_TAUTO_COUNT>
2

> <PUBCHEM_COORDINATE_TYPE>
1
5
255

> <PUBCHEM_BONDANNOTATIONS>
4  12  3

$$$$

