17395427
  -OEChem-06241222502D

 48 50  0     0  0  0  0  0  0999 V2000
   10.6673   -1.2472    0.0000 O   0  0  0  0  0  0  0  0  0  0  0  0
   10.6673    0.8222    0.0000 O   0  0  0  0  0  0  0  0  0  0  0  0
    5.4432   -2.2125    0.0000 O   0  0  0  0  0  0  0  0  0  0  0  0
    3.4945    0.4899    0.0000 N   0  0  0  0  0  0  0  0  0  0  0  0
    6.3092   -0.7125    0.0000 N   0  0  0  0  0  0  0  0  0  0  0  0
    3.0878    1.4035    0.0000 C   0  0  0  0  0  0  0  0  0  0  0  0
    4.4727    0.2820    0.0000 C   0  0  0  0  0  0  0  0  0  0  0  0
    2.9945   -0.3761    0.0000 C   0  0  0  0  0  0  0  0  0  0  0  0
    4.5772   -0.7125    0.0000 C   0  0  0  0  0  0  0  0  0  0  0  0
    3.6636   -1.1192    0.0000 C   0  0  0  0  0  0  0  0  0  0  0  0
    2.0933    1.5080    0.0000 C   0  0  0  0  0  0  0  0  0  0  0  0
    3.6756    2.2125    0.0000 C   0  0  0  0  0  0  0  0  0  0  0  0
    5.2158    0.9512    0.0000 C   0  0  0  0  0  0  0  0  0  0  0  0
    2.0000   -0.4806    0.0000 C   0  0  0  0  0  0  0  0  0  0  0  0
    5.4432   -1.2125    0.0000 C   0  0  0  0  0  0  0  0  0  0  0  0
    7.1753   -1.2125    0.0000 C   0  0  0  0  0  0  0  0  0  0  0  0
    8.0413   -0.7125    0.0000 C   0  0  0  0  0  0  0  0  0  0  0  0
    9.7734   -0.7125    0.0000 C   0  0  0  0  0  0  0  0  0  0  0  0
    8.9073   -1.2125    0.0000 C   0  0  0  0  0  0  0  0  0  0  0  0
    9.7734    0.2875    0.0000 C   0  0  0  0  0  0  0  0  0  0  0  0
    8.0413    0.2875    0.0000 C   0  0  0  0  0  0  0  0  0  0  0  0
    8.9073    0.7875    0.0000 C   0  0  0  0  0  0  0  0  0  0  0  0
   11.5734   -0.7333    0.0000 C   0  0  0  0  0  0  0  0  0  0  0  0
   11.5734    0.3083    0.0000 C   0  0  0  0  0  0  0  0  0  0  0  0
    2.8356    1.9699    0.0000 H   0  0  0  0  0  0  0  0  0  0  0  0
    3.5348   -1.7257    0.0000 H   0  0  0  0  0  0  0  0  0  0  0  0
    2.1581    2.1246    0.0000 H   0  0  0  0  0  0  0  0  0  0  0  0
    1.4767    1.5728    0.0000 H   0  0  0  0  0  0  0  0  0  0  0  0
    2.0285    0.8914    0.0000 H   0  0  0  0  0  0  0  0  0  0  0  0
    4.1772    1.8481    0.0000 H   0  0  0  0  0  0  0  0  0  0  0  0
    4.0400    2.7141    0.0000 H   0  0  0  0  0  0  0  0  0  0  0  0
    3.1740    2.5769    0.0000 H   0  0  0  0  0  0  0  0  0  0  0  0
    5.6307    0.4904    0.0000 H   0  0  0  0  0  0  0  0  0  0  0  0
    5.6766    1.3660    0.0000 H   0  0  0  0  0  0  0  0  0  0  0  0
    4.8010    1.4119    0.0000 H   0  0  0  0  0  0  0  0  0  0  0  0
    1.9352    0.1360    0.0000 H   0  0  0  0  0  0  0  0  0  0  0  0
    1.3834   -0.5454    0.0000 H   0  0  0  0  0  0  0  0  0  0  0  0
    2.0648   -1.0972    0.0000 H   0  0  0  0  0  0  0  0  0  0  0  0
    6.7768   -1.6874    0.0000 H   0  0  0  0  0  0  0  0  0  0  0  0
    7.5738   -1.6874    0.0000 H   0  0  0  0  0  0  0  0  0  0  0  0
    6.3092   -0.0925    0.0000 H   0  0  0  0  0  0  0  0  0  0  0  0
    8.9073   -1.8325    0.0000 H   0  0  0  0  0  0  0  0  0  0  0  0
    7.5044    0.5975    0.0000 H   0  0  0  0  0  0  0  0  0  0  0  0
    8.9073    1.4075    0.0000 H   0  0  0  0  0  0  0  0  0  0  0  0
   11.7824   -1.3170    0.0000 H   0  0  0  0  0  0  0  0  0  0  0  0
   12.1842   -0.6272    0.0000 H   0  0  0  0  0  0  0  0  0  0  0  0
   12.1842    0.2022    0.0000 H   0  0  0  0  0  0  0  0  0  0  0  0
   11.7824    0.8920    0.0000 H   0  0  0  0  0  0  0  0  0  0  0  0
  1 18  1  0  0  0  0
  1 23  1  0  0  0  0
  2 20  1  0  0  0  0
  2 24  1  0  0  0  0
  3 15  2  0  0  0  0
  4  6  1  0  0  0  0
  4  7  1  0  0  0  0
  4  8  1  0  0  0  0
  5 15  1  0  0  0  0
  5 16  1  0  0  0  0
  5 41  1  0  0  0  0
  6 11  1  0  0  0  0
  6 12  1  0  0  0  0
  6 25  1  0  0  0  0
  7  9  2  0  0  0  0
  7 13  1  0  0  0  0
  8 10  2  0  0  0  0
  8 14  1  0  0  0  0
  9 10  1  0  0  0  0
  9 15  1  0  0  0  0
 10 26  1  0  0  0  0
 11 27  1  0  0  0  0
 11 28  1  0  0  0  0
 11 29  1  0  0  0  0
 12 30  1  0  0  0  0
 12 31  1  0  0  0  0
 12 32  1  0  0  0  0
 13 33  1  0  0  0  0
 13 34  1  0  0  0  0
 13 35  1  0  0  0  0
 14 36  1  0  0  0  0
 14 37  1  0  0  0  0
 14 38  1  0  0  0  0
 16 17  1  0  0  0  0
 16 39  1  0  0  0  0
 16 40  1  0  0  0  0
 17 19  2  0  0  0  0
 17 21  1  0  0  0  0
 18 19  1  0  0  0  0
 18 20  2  0  0  0  0
 19 42  1  0  0  0  0
 20 22  1  0  0  0  0
 21 22  2  0  0  0  0
 21 43  1  0  0  0  0
 22 44  1  0  0  0  0
 23 24  1  0  0  0  0
 23 45  1  0  0  0  0
 23 46  1  0  0  0  0
 24 47  1  0  0  0  0
 24 48  1  0  0  0  0
M  END
> <PUBCHEM_COMPOUND_CID>
17395427

> <PUBCHEM_COMPOUND_CANONICALIZED>
1

> <PUBCHEM_CACTVS_COMPLEXITY>
442

> <PUBCHEM_CACTVS_HBOND_ACCEPTOR>
3

> <PUBCHEM_CACTVS_HBOND_DONOR>
1

> <PUBCHEM_CACTVS_ROTATABLE_BOND>
4

> <PUBCHEM_CACTVS_SUBSKEYS>
AAADceB7MAAAAAAAAAAAAAAAAAAAAWAAAAA0QAAAAAAAAACRwAAAHgAQAAAADCzhngYyhpPMFACoAyVyVACCiCAlIiAI2KE+7NgNJvrE9ZuGOarkxhHK6ce80BIOIAABAAAAQABAAAIAAACAAAAAAAAAAA==

> <PUBCHEM_IUPAC_OPENEYE_NAME>
N-(2,3-dihydro-1,4-benzodioxin-6-ylmethyl)-1-isopropyl-2,5-dimethyl-pyrrole-3-carboxamide

> <PUBCHEM_IUPAC_CAS_NAME>
N-(2,3-dihydro-1,4-benzodioxin-6-ylmethyl)-2,5-dimethyl-1-propan-2-yl-3-pyrrolecarboxamide

> <PUBCHEM_IUPAC_NAME>
N-(2,3-dihydro-1,4-benzodioxin-6-ylmethyl)-2,5-dimethyl-1-propan-2-ylpyrrole-3-carboxamide

> <PUBCHEM_IUPAC_SYSTEMATIC_NAME>
N-(2,3-dihydro-1,4-benzodioxin-6-ylmethyl)-2,5-dimethyl-1-propan-2-yl-pyrrole-3-carboxamide

> <PUBCHEM_IUPAC_TRADITIONAL_NAME>
N-(2,3-dihydro-1,4-benzodioxin-6-ylmethyl)-1-isopropyl-2,5-dimethyl-pyrrole-3-carboxamide

> <PUBCHEM_IUPAC_INCHI>
InChI=1S/C19H24N2O3/c1-12(2)21-13(3)9-16(14(21)4)19(22)20-11-15-5-6-17-18(10-15)24-8-7-23-17/h5-6,9-10,12H,7-8,11H2,1-4H3,(H,20,22)

> <PUBCHEM_IUPAC_INCHIKEY>
ZLUJLDUHEFTIPM-UHFFFAOYSA-N

> <PUBCHEM_XLOGP3_AA>
2.7

> <PUBCHEM_EXACT_MASS>
328.178693

> <PUBCHEM_MOLECULAR_FORMULA>
C19H24N2O3

> <PUBCHEM_MOLECULAR_WEIGHT>
328.40546

> <PUBCHEM_OPENEYE_CAN_SMILES>
CC1=CC(=C(N1C(C)C)C)C(=O)NCC2=CC3=C(C=C2)OCCO3

> <PUBCHEM_OPENEYE_ISO_SMILES>
CC1=CC(=C(N1C(C)C)C)C(=O)NCC2=CC3=C(C=C2)OCCO3

> <PUBCHEM_CACTVS_TPSA>
52.5

> <PUBCHEM_MONOISOTOPIC_WEIGHT>
328.178693

> <PUBCHEM_TOTAL_CHARGE>
0

> <PUBCHEM_HEAVY_ATOM_COUNT>
24

> <PUBCHEM_ATOM_DEF_STEREO_COUNT>
0

> <PUBCHEM_ATOM_UDEF_STEREO_COUNT>
0

> <PUBCHEM_BOND_DEF_STEREO_COUNT>
0

> <PUBCHEM_BOND_UDEF_STEREO_COUNT>
0

> <PUBCHEM_ISOTOPIC_ATOM_COUNT>
0

> <PUBCHEM_COMPONENT_COUNT>
1

> <PUBCHEM_CACTVS_TAUTO_COUNT>
2

> <PUBCHEM_COORDINATE_TYPE>
1
5
255

> <PUBCHEM_BONDANNOTATIONS>
17  19  8
17  21  8
18  19  8
18  20  8
20  22  8
21  22  8
4  7  8
4  8  8
7  9  8
8  10  8
9  10  8

$$$$

