   Color/Form

     * Colorless to very slightly yellow liquid
     * Water-white liquid

   from [1]HSDB

   Odor

     * Fishy odor
     * Faint, amine-like odor.

   from [2]HSDB

   Boiling Point
        153 deg C @ 760 mm Hg
   from [3]HSDB

   Melting Point
        -61 deg C
   from [4]HSDB

   Corrosivity
        Pure dimethylformamide is essentially noncorrosive to metals.
   However, copper, tin and their alloys should be avoided.
   from [5]HSDB

   Critical Temperature and Pressure
        Critical temperature: 374 deg C; critical pressure: 4.48 MPa
   from [6]HSDB

   Density/Specific Gravity
        0.9445 @ 25 deg C/4 deg C
   from [7]HSDB

   Dissociation Constants
        pKa = -0.01 @ 20 deg C
   from [8]HSDB

   Heat of Combustion
        1921 kJ/mole @ 25 deg C
   from [9]HSDB

   Heat of Vaporization
        47.6 kJ/mole @ 25 deg C
   from [10]HSDB

   Octanol/Water Partition Coefficient
        log Kow = -1.01
   from [11]HSDB

   pH
        pH = 6.7 (0.5 molar soln in water)
   from [12]HSDB

   Solubilities

     * Miscible with water and most common organic solvents
     * Soluble in alcohol, ether, acetone
     * Soluble in benzene and chloroform

   from [13]HSDB

   Spectral Properties

     * MAX ABSORPTION (GAS): 162 NM (LOG E= 3.84); 197.4 NM (LOG E= 3.94)
     * Index of refraction: 1.42083 @ 25 deg C/D
     * IR: 156 (Sadtler Research Laboratories Prism Collection)
     * NMR: 39 (Varian Associates NMR Spectra Catalogue)
     * MASS: NIST 62666 (NIST/EPA/MCDC Mass Spectral Database 1990
       version)
     * NMR: JJ 34 (Johnson and Janlowski, Carbon-13 NMR Spectra, John
       Wiley and Sons, NY, NY)

   from [14]HSDB

   Surface Tension
        36.42 dyne/cm @ 25 deg C
   from [15]HSDB

   Vapor Density
        2.51 (Air= 1)
   from [16]HSDB

   Vapor Pressure
        3.87 mm Hg @ 25 deg C
   from [17]HSDB

   Viscosity
        0.802 cP @ 25 deg C
   from [18]HSDB

   Other Chemical/Physical Properties

     * N,N-Dimethylformamide is a dipolar aprotic solvent.
     * Saturated concentration in air: 12 g/cu m @ 20 deg C
     * Hygroscopic liquid that forms azeotropes with ortho, meta and
       para-xylenes, formic acid and tetrachloroethylene.
     * Gases such as acetylene, butadiene, isoprene, sulfur dioxide and
       hydrochloric acid are soluble in DMF; ammonia, carbon monoxide and
       dioxide, oxygen and hydrogen are only sparingly soluble.
     * Dipole moment: 12.7X10-30
     * Henry's Law constant = 7.39X10-8 atm-cu m/mole @ 25 deg C

   from [19]HSDB

   Computed Properties
   Molecular Weight                  73.09378 [g/mol]
   Molecular Formula                 C[3]H[7]NO
   XLogP3                            -1
   H-Bond Donor                      0
   H-Bond Acceptor                   1
   Rotatable Bond Count              0
   Exact Mass                        73.052764
   MonoIsotopic Mass                 73.052764
   Topological Polar Surface Area    20.3
   Heavy Atom Count                  5
   Formal Charge                     0
   Complexity                        33.9
   Isotope Atom Count                0
   Defined Atom Stereocenter Count   0
   Undefined Atom Stereocenter Count 0
   Defined Bond Stereocenter Count   0
   Undefined Bond Stereocenter Count 0
   Covalently-Bonded Unit Count      1
   Feature 3D Acceptor Count         1
   Effective Rotor Count             1
   Conformer Sampling RMSD           0.4
   CID Conformer Count               [20]1

References

   1. http://toxnet.nlm.nih.gov/cgi-bin/sis/search/r?dbs+hsdb:@term+@rn+@rel+68-12-2
   2. http://toxnet.nlm.nih.gov/cgi-bin/sis/search/r?dbs+hsdb:@term+@rn+@rel+68-12-2
   3. http://toxnet.nlm.nih.gov/cgi-bin/sis/search/r?dbs+hsdb:@term+@rn+@rel+68-12-2
   4. http://toxnet.nlm.nih.gov/cgi-bin/sis/search/r?dbs+hsdb:@term+@rn+@rel+68-12-2
   5. http://toxnet.nlm.nih.gov/cgi-bin/sis/search/r?dbs+hsdb:@term+@rn+@rel+68-12-2
   6. http://toxnet.nlm.nih.gov/cgi-bin/sis/search/r?dbs+hsdb:@term+@rn+@rel+68-12-2
   7. http://toxnet.nlm.nih.gov/cgi-bin/sis/search/r?dbs+hsdb:@term+@rn+@rel+68-12-2
   8. http://toxnet.nlm.nih.gov/cgi-bin/sis/search/r?dbs+hsdb:@term+@rn+@rel+68-12-2
   9. http://toxnet.nlm.nih.gov/cgi-bin/sis/search/r?dbs+hsdb:@term+@rn+@rel+68-12-2
  10. http://toxnet.nlm.nih.gov/cgi-bin/sis/search/r?dbs+hsdb:@term+@rn+@rel+68-12-2
  11. http://toxnet.nlm.nih.gov/cgi-bin/sis/search/r?dbs+hsdb:@term+@rn+@rel+68-12-2
  12. http://toxnet.nlm.nih.gov/cgi-bin/sis/search/r?dbs+hsdb:@term+@rn+@rel+68-12-2
  13. http://toxnet.nlm.nih.gov/cgi-bin/sis/search/r?dbs+hsdb:@term+@rn+@rel+68-12-2
  14. http://toxnet.nlm.nih.gov/cgi-bin/sis/search/r?dbs+hsdb:@term+@rn+@rel+68-12-2
  15. http://toxnet.nlm.nih.gov/cgi-bin/sis/search/r?dbs+hsdb:@term+@rn+@rel+68-12-2
  16. http://toxnet.nlm.nih.gov/cgi-bin/sis/search/r?dbs+hsdb:@term+@rn+@rel+68-12-2
  17. http://toxnet.nlm.nih.gov/cgi-bin/sis/search/r?dbs+hsdb:@term+@rn+@rel+68-12-2
  18. http://toxnet.nlm.nih.gov/cgi-bin/sis/search/r?dbs+hsdb:@term+@rn+@rel+68-12-2
  19. http://toxnet.nlm.nih.gov/cgi-bin/sis/search/r?dbs+hsdb:@term+@rn+@rel+68-12-2
  20. http://pubchem.ncbi.nlm.nih.gov/vw3d/vw3d.cgi?cid=6228
