   Chemical and Physical Properties References

   [1]USDA ARS - USDA chemical properties
   from [2]ChemIDplus

   Color/Form
        Transparent to off white crystalline powder
   from [3]HSDB

   Odor
        Odorless when pure.
   from [4]HSDB

   Taste
        Bitter taste
   from [5]HSDB

   Melting Point
        159 deg C
   from [6]HSDB

   Corrosivity
        MILDLY CORROSIVE TO IRON, ALUMINUM, COPPER, & COPPER ALLOYS.
   from [7]HSDB

   Density/Specific Gravity
        1.138 at 20 deg C
   from [8]HSDB

   Dissociation Constants
        pKa1 = 4.2; pKa2 = 10.7
   from [9]HSDB

   Octanol/Water Partition Coefficient
        log Kow= -0.97
   from [10]HSDB

   pH
        FORMS NEUTRAL AQ SOLN BUT ACTS AS WEAK BASE WITH KB OF 1X10-10
   from [11]HSDB

   Solubilities

     * 2.6X10+5 mg/L in ethanol at 75 deg C. Slightly soluble in
       chloroform, acetonitrile, and ethyl acetate; and insoluble in
       acetone, ether, hydrocarbons
     * In water, 2.8X10+5 mg/L at 25 deg C

   from [12]HSDB

   Spectral Properties

     * IR: 21258 (Sadtler Research Laboratories IR Grating Collection)
     * NMR: 9499 (Sadtler Research Laboratories Spectral Collection)
     * MASS: 59429 (NIST/EPA/MSDC Mass Spectral Database, 1990 version)

   from [13]HSDB

   Vapor Pressure
        4.4X10-7 mm Hg at 25 deg C
   from [14]HSDB

   Other Chemical/Physical Properties

     * It will diazotize & couple with several dyes.
     * Sublimes undecomposed under reduced pressure; it forms chelates
       with metals such as iron & copper; primary amino group reacts with
       acylating agents to give mono & diacyl deriv; yields aldimines or
       ketimines with aldehydes.
     * MP: 150-153 DEG C. /TECHNICAL GRADE/
     * MP: 153-159 DEG C. /TECHNICAL GRADE/
     * 1 MG/L= 291 PPM; 1 PPM= 3.44 MG/CU M
     * Henry's Law constant = 2.2X10-13 atm-cu m/mole at 25 deg C (est)
     * Hydroxyl radical reaction rate constant = 8.1X10-12 cu cm/molec-sec
       at 25 deg C (est)

   from [15]HSDB

   Computed Properties
   Molecular Weight                  84.07996 [g/mol]
   Molecular Formula                 C[2]H[4]N[4]
   XLogP3-AA                         -0.4
   H-Bond Donor                      2
   H-Bond Acceptor                   3
   Rotatable Bond Count              0
   Tautomer Count                    5
   Exact Mass                        84.043596
   MonoIsotopic Mass                 84.043596
   Topological Polar Surface Area    67.6
   Heavy Atom Count                  6
   Formal Charge                     0
   Complexity                        44.8
   Isotope Atom Count                0
   Defined Atom Stereocenter Count   0
   Undefined Atom Stereocenter Count 0
   Defined Bond Stereocenter Count   0
   Undefined Bond Stereocenter Count 0
   Covalently-Bonded Unit Count      1
   Feature 3D Donor Count            2
   Feature 3D Cation Count           1
   Feature 3D Ring Count             1
   Effective Rotor Count             0
   Conformer Sampling RMSD           0.4
   CID Conformer Count               [16]1

References

   1. http://www.ars.usda.gov/SP2UserFiles/ad_hoc/12755100DatabaseFiles/PesticidePropertiesDatabase/IndividualPesticideFiles/AMITROLE.TXT
   2. http://chem.sis.nlm.nih.gov/chemidplus/
   3. http://toxnet.nlm.nih.gov/cgi-bin/sis/search/r?dbs+hsdb:@term+@rn+@rel+61-82-5
   4. http://toxnet.nlm.nih.gov/cgi-bin/sis/search/r?dbs+hsdb:@term+@rn+@rel+61-82-5
   5. http://toxnet.nlm.nih.gov/cgi-bin/sis/search/r?dbs+hsdb:@term+@rn+@rel+61-82-5
   6. http://toxnet.nlm.nih.gov/cgi-bin/sis/search/r?dbs+hsdb:@term+@rn+@rel+61-82-5
   7. http://toxnet.nlm.nih.gov/cgi-bin/sis/search/r?dbs+hsdb:@term+@rn+@rel+61-82-5
   8. http://toxnet.nlm.nih.gov/cgi-bin/sis/search/r?dbs+hsdb:@term+@rn+@rel+61-82-5
   9. http://toxnet.nlm.nih.gov/cgi-bin/sis/search/r?dbs+hsdb:@term+@rn+@rel+61-82-5
  10. http://toxnet.nlm.nih.gov/cgi-bin/sis/search/r?dbs+hsdb:@term+@rn+@rel+61-82-5
  11. http://toxnet.nlm.nih.gov/cgi-bin/sis/search/r?dbs+hsdb:@term+@rn+@rel+61-82-5
  12. http://toxnet.nlm.nih.gov/cgi-bin/sis/search/r?dbs+hsdb:@term+@rn+@rel+61-82-5
  13. http://toxnet.nlm.nih.gov/cgi-bin/sis/search/r?dbs+hsdb:@term+@rn+@rel+61-82-5
  14. http://toxnet.nlm.nih.gov/cgi-bin/sis/search/r?dbs+hsdb:@term+@rn+@rel+61-82-5
  15. http://toxnet.nlm.nih.gov/cgi-bin/sis/search/r?dbs+hsdb:@term+@rn+@rel+61-82-5
  16. http://pubchem.ncbi.nlm.nih.gov/vw3d/vw3d.cgi?cid=1639
