5086
  -OEChem-06261200302D

 30 31  0     0  0  0  0  0  0999 V2000
    2.9230    1.3106    0.0000 S   0  0  0  0  0  0  0  0  0  0  0  0
    2.0000   -2.2772    0.0000 F   0  0  0  0  0  0  0  0  0  0  0  0
    5.7000    0.0234    0.0000 O   0  0  0  0  0  0  0  0  0  0  0  0
    6.2353    1.6707    0.0000 N   0  0  0  0  0  0  0  0  0  0  0  0
    4.2320    2.2617    0.0000 N   0  0  0  0  0  0  0  0  0  0  0  0
    8.8805    1.7218    0.0000 N   0  0  0  0  0  0  0  0  0  0  0  0
    3.7320    0.7228    0.0000 C   0  0  0  0  0  0  0  0  0  0  0  0
    4.5411    1.3106    0.0000 C   0  0  0  0  0  0  0  0  0  0  0  0
    3.7320   -0.2772    0.0000 C   0  0  0  0  0  0  0  0  0  0  0  0
    7.1863    1.3617    0.0000 C   0  0  0  0  0  0  0  0  0  0  0  0
    5.4921    1.0016    0.0000 C   0  0  0  0  0  0  0  0  0  0  0  0
    7.9295    2.0308    0.0000 C   0  0  0  0  0  0  0  0  0  0  0  0
    2.8660   -0.7772    0.0000 C   0  0  0  0  0  0  0  0  0  0  0  0
    4.5981   -0.7772    0.0000 C   0  0  0  0  0  0  0  0  0  0  0  0
    2.8660   -1.7772    0.0000 C   0  0  0  0  0  0  0  0  0  0  0  0
    4.5981   -1.7772    0.0000 C   0  0  0  0  0  0  0  0  0  0  0  0
    3.2320    2.2617    0.0000 C   0  0  0  0  0  0  0  0  0  0  0  0
    3.7320   -2.2772    0.0000 C   0  0  0  0  0  0  0  0  0  0  0  0
    6.8952    0.8143    0.0000 H   0  0  0  0  0  0  0  0  0  0  0  0
    7.6749    0.9800    0.0000 H   0  0  0  0  0  0  0  0  0  0  0  0
    6.1064    2.2772    0.0000 H   0  0  0  0  0  0  0  0  0  0  0  0
    8.2205    2.5783    0.0000 H   0  0  0  0  0  0  0  0  0  0  0  0
    7.4409    2.4126    0.0000 H   0  0  0  0  0  0  0  0  0  0  0  0
    2.3291   -0.4672    0.0000 H   0  0  0  0  0  0  0  0  0  0  0  0
    5.1350   -0.4672    0.0000 H   0  0  0  0  0  0  0  0  0  0  0  0
    5.1350   -2.0872    0.0000 H   0  0  0  0  0  0  0  0  0  0  0  0
    2.8676    2.7633    0.0000 H   0  0  0  0  0  0  0  0  0  0  0  0
    3.7320   -2.8972    0.0000 H   0  0  0  0  0  0  0  0  0  0  0  0
    9.3413    2.1367    0.0000 H   0  0  0  0  0  0  0  0  0  0  0  0
    9.0094    1.1154    0.0000 H   0  0  0  0  0  0  0  0  0  0  0  0
  1  7  1  0  0  0  0
  1 17  1  0  0  0  0
  2 15  1  0  0  0  0
  3 11  2  0  0  0  0
  4 10  1  0  0  0  0
  4 11  1  0  0  0  0
  4 21  1  0  0  0  0
  5  8  1  0  0  0  0
  5 17  2  0  0  0  0
  6 12  1  0  0  0  0
  6 29  1  0  0  0  0
  6 30  1  0  0  0  0
  7  8  2  0  0  0  0
  7  9  1  0  0  0  0
  8 11  1  0  0  0  0
  9 13  2  0  0  0  0
  9 14  1  0  0  0  0
 10 12  1  0  0  0  0
 10 19  1  0  0  0  0
 10 20  1  0  0  0  0
 12 22  1  0  0  0  0
 12 23  1  0  0  0  0
 13 15  1  0  0  0  0
 13 24  1  0  0  0  0
 14 16  2  0  0  0  0
 14 25  1  0  0  0  0
 15 18  2  0  0  0  0
 16 18  1  0  0  0  0
 16 26  1  0  0  0  0
 17 27  1  0  0  0  0
 18 28  1  0  0  0  0
M  END
> <PUBCHEM_COMPOUND_CID>
5086

> <PUBCHEM_COMPOUND_CANONICALIZED>
1

> <PUBCHEM_CACTVS_COMPLEXITY>
293

> <PUBCHEM_CACTVS_HBOND_ACCEPTOR>
5

> <PUBCHEM_CACTVS_HBOND_DONOR>
2

> <PUBCHEM_CACTVS_ROTATABLE_BOND>
4

> <PUBCHEM_CACTVS_SUBSKEYS>
AAADccBzIQBAAAAAAAAAAAAAAAAAAWAAAAAwAAAAAAAAAAABwAAAHwQQAAAADAjB3gy0gZLIEAisAyVzVACC8KB3CDgI2JWoRMgIYDLgkTGUIQhglgDIyQcYiICOAAAAAAAAAAAAAAAAAAAAAAAAAAAAAA==

> <PUBCHEM_IUPAC_OPENEYE_NAME>
N-(2-aminoethyl)-5-(3-fluorophenyl)thiazole-4-carboxamide

> <PUBCHEM_IUPAC_CAS_NAME>
N-(2-aminoethyl)-5-(3-fluorophenyl)-4-thiazolecarboxamide

> <PUBCHEM_IUPAC_NAME>
N-(2-aminoethyl)-5-(3-fluorophenyl)-1,3-thiazole-4-carboxamide

> <PUBCHEM_IUPAC_SYSTEMATIC_NAME>
N-(2-azanylethyl)-5-(3-fluorophenyl)-1,3-thiazole-4-carboxamide

> <PUBCHEM_IUPAC_TRADITIONAL_NAME>
N-(2-aminoethyl)-5-(3-fluorophenyl)thiazole-4-carboxamide

> <PUBCHEM_IUPAC_INCHI>
InChI=1S/C12H12FN3OS/c13-9-3-1-2-8(6-9)11-10(16-7-18-11)12(17)15-5-4-14/h1-3,6-7H,4-5,14H2,(H,15,17)

> <PUBCHEM_IUPAC_INCHIKEY>
SCKBPXUWGMKLDM-UHFFFAOYSA-N

> <PUBCHEM_XLOGP3_AA>
1.4

> <PUBCHEM_EXACT_MASS>
265.068511

> <PUBCHEM_MOLECULAR_FORMULA>
C12H12FN3OS

> <PUBCHEM_MOLECULAR_WEIGHT>
265.306583

> <PUBCHEM_OPENEYE_CAN_SMILES>
C1=CC(=CC(=C1)F)C2=C(N=CS2)C(=O)NCCN

> <PUBCHEM_OPENEYE_ISO_SMILES>
C1=CC(=CC(=C1)F)C2=C(N=CS2)C(=O)NCCN

> <PUBCHEM_CACTVS_TPSA>
96.2

> <PUBCHEM_MONOISOTOPIC_WEIGHT>
265.068511

> <PUBCHEM_TOTAL_CHARGE>
0

> <PUBCHEM_HEAVY_ATOM_COUNT>
18

> <PUBCHEM_ATOM_DEF_STEREO_COUNT>
0

> <PUBCHEM_ATOM_UDEF_STEREO_COUNT>
0

> <PUBCHEM_BOND_DEF_STEREO_COUNT>
0

> <PUBCHEM_BOND_UDEF_STEREO_COUNT>
0

> <PUBCHEM_ISOTOPIC_ATOM_COUNT>
0

> <PUBCHEM_COMPONENT_COUNT>
1

> <PUBCHEM_CACTVS_TAUTO_COUNT>
2

> <PUBCHEM_COORDINATE_TYPE>
1
5
255

> <PUBCHEM_BONDANNOTATIONS>
1  17  8
1  7  8
13  15  8
14  16  8
15  18  8
16  18  8
5  17  8
5  8  8
7  8  8
9  13  8
9  14  8

$$$$

