   Chemical and Physical Properties References

   [1]USDA ARS - USDA chemical properties
   from [2]ChemIDplus

   Color/Form

     * Colorless to light tan crystals
     * White or gray ... solid.

   from [3]HSDB

   Odor
        ... Odorless ...
   from [4]HSDB

   Boiling Point
        Decomposes
   from [5]HSDB

   Melting Point
        145 deg C
   from [6]HSDB

   Corrosivity
        Non-corrosive to metals, packaging materials, and application
   equipment
   from [7]HSDB

   Density/Specific Gravity
        1.228 g/cu cm at 25 deg C
   from [8]HSDB

   Octanol/Water Partition Coefficient
        log Kow = 2.36
   from [9]HSDB

   Solubilities

     * Soluble in most polar organic solvents; dimethylformamide 400-450,
       dimethyl sulfoxide 400-450, acetone 200-300, cyclohexanone 200-250,
       isopropanol 100, xylene 100 (all in g/kg at 25 deg C)
     * In water, 110 mg/L at 22 deg C

   from [10]HSDB

   Spectral Properties

     * Intense mass spectral peaks: 144 M/z (100%), 115 M/z (44%), 116 M/z
       (37%), 145 M/z (14%)
     * MASS: 22497 (NIST/EPA/MSDC Mass Spectral Database 1990 version)

   from [11]HSDB

   Vapor Pressure
        1.36X10-6 mm Hg at 25 deg C [Ferreira GAL, Seiber JN; J Agric Food
   Chem 29: 93-9 (1981)] [12]PubMed Abstract
   from [13]HSDB

   Other Chemical/Physical Properties

     * Vapor pressure: 0.002 mm Hg at 40 deg C
     * Henry's Law constant = 2.8X10-9 atm-cu m/mol at 25 deg C
     * Hydroxyl radical reaction rate constant = 2.60X10-11 cu
       cm/molec-sec at 25 deg C (est)

   from [14]HSDB

   Computed Properties
   Molecular Weight                  201.22124 [g/mol]
   Molecular Formula                 C[12]H[11]NO[2]
   XLogP3                            2.4
   H-Bond Donor                      1
   H-Bond Acceptor                   2
   Rotatable Bond Count              2
   Tautomer Count                    2
   Exact Mass                        201.078979
   MonoIsotopic Mass                 201.078979
   Topological Polar Surface Area    38.3
   Heavy Atom Count                  15
   Formal Charge                     0
   Complexity                        230
   Isotope Atom Count                0
   Defined Atom Stereocenter Count   0
   Undefined Atom Stereocenter Count 0
   Defined Bond Stereocenter Count   0
   Undefined Bond Stereocenter Count 0
   Covalently-Bonded Unit Count      1
   Feature 3D Acceptor Count         1
   Feature 3D Donor Count            1
   Feature 3D Ring Count             2
   Effective Rotor Count             3
   Conformer Sampling RMSD           0.6
   CID Conformer Count               [15]20

References

   1. http://www.ars.usda.gov/SP2UserFiles/ad_hoc/12755100DatabaseFiles/PesticidePropertiesDatabase/IndividualPesticideFiles/CARBARYL.TXT
   2. http://chem.sis.nlm.nih.gov/chemidplus/
   3. http://toxnet.nlm.nih.gov/cgi-bin/sis/search/r?dbs+hsdb:@term+@rn+@rel+63-25-2
   4. http://toxnet.nlm.nih.gov/cgi-bin/sis/search/r?dbs+hsdb:@term+@rn+@rel+63-25-2
   5. http://toxnet.nlm.nih.gov/cgi-bin/sis/search/r?dbs+hsdb:@term+@rn+@rel+63-25-2
   6. http://toxnet.nlm.nih.gov/cgi-bin/sis/search/r?dbs+hsdb:@term+@rn+@rel+63-25-2
   7. http://toxnet.nlm.nih.gov/cgi-bin/sis/search/r?dbs+hsdb:@term+@rn+@rel+63-25-2
   8. http://toxnet.nlm.nih.gov/cgi-bin/sis/search/r?dbs+hsdb:@term+@rn+@rel+63-25-2
   9. http://toxnet.nlm.nih.gov/cgi-bin/sis/search/r?dbs+hsdb:@term+@rn+@rel+63-25-2
  10. http://toxnet.nlm.nih.gov/cgi-bin/sis/search/r?dbs+hsdb:@term+@rn+@rel+63-25-2
  11. http://toxnet.nlm.nih.gov/cgi-bin/sis/search/r?dbs+hsdb:@term+@rn+@rel+63-25-2
  12. http://www.ncbi.nlm.nih.gov/entrez/query.fcgi?cmd=Retrieve&db=pubmed&dopt=Abstract&list_uids=7204764
  13. http://toxnet.nlm.nih.gov/cgi-bin/sis/search/r?dbs+hsdb:@term+@rn+@rel+63-25-2
  14. http://toxnet.nlm.nih.gov/cgi-bin/sis/search/r?dbs+hsdb:@term+@rn+@rel+63-25-2
  15. http://pubchem.ncbi.nlm.nih.gov/vw3d/vw3d.cgi?cid=6129
