   Color/Form

     * CLEAR, COLORLESS LIQUID
     * Colorless liquid [Note: Typically found as a 40% aqueous solution].

   from [1]HSDB

   Odor

     * ACRID, PENETRATING ODOR
     * Acrid, penetrating odor.

   from [2]HSDB

   Boiling Point
        85-86 DEG C AT 760 MM HG
   from [3]HSDB

   Melting Point
        -16.3 deg C
   from [4]HSDB

   Density/Specific Gravity
        1.19
   from [5]HSDB

   Solubilities

     * SOL IN ETHER
     * Sol in water, acetone and methanol

   from [6]HSDB

   Spectral Properties

     * MAX ABSORPTION (CYCLOHEXANE): 279.5 NM (LOG E= 1.54)
     * MASS: 26 (National Bureau of Standards EPA-NIH Mass Spectra Data
       Base, NSRDS-NBS-63)

   from [7]HSDB

   Vapor Pressure
        100 torr at 20 deg C
   from [8]HSDB

   Other Chemical/Physical Properties

     * CONVERSION FACTORS: 1 MG/L EQUALS 309 PPM; 1 PPM EQUALS 3.2 MG/CU M
     * PLATELETS FROM WATER; BP: 85.5 DEG C WITH DECOMP INTO WATER &
       CHLORALDEHYDE; MP 43-50 DEG C /CHLOROACETALDEHYDE HEMIHYDRATE/
     * WT/GAL 9.9 LB AT 25 DEG C; AT CONCN ABOVE 50% IN WATER IT FORMS
       INSOL HEMIHYDRATE
     * Miscible in all proportions with water

   from [9]HSDB

   Computed Properties
   Molecular Weight                  78.49762 [g/mol]
   Molecular Formula                 C[2]H[3]ClO
   XLogP3-AA                         0.3
   H-Bond Donor                      0
   H-Bond Acceptor                   1
   Rotatable Bond Count              1
   Tautomer Count                    2
   Exact Mass                        77.987242
   MonoIsotopic Mass                 77.987242
   Topological Polar Surface Area    17.1
   Heavy Atom Count                  4
   Formal Charge                     0
   Complexity                        20
   Isotope Atom Count                0
   Defined Atom Stereocenter Count   0
   Undefined Atom Stereocenter Count 0
   Defined Bond Stereocenter Count   0
   Undefined Bond Stereocenter Count 0
   Covalently-Bonded Unit Count      1
   Feature 3D Acceptor Count         1
   Effective Rotor Count             1
   Conformer Sampling RMSD           0.4
   CID Conformer Count               [10]3

References

   1. http://toxnet.nlm.nih.gov/cgi-bin/sis/search/r?dbs+hsdb:@term+@rn+@rel+107-20-0
   2. http://toxnet.nlm.nih.gov/cgi-bin/sis/search/r?dbs+hsdb:@term+@rn+@rel+107-20-0
   3. http://toxnet.nlm.nih.gov/cgi-bin/sis/search/r?dbs+hsdb:@term+@rn+@rel+107-20-0
   4. http://toxnet.nlm.nih.gov/cgi-bin/sis/search/r?dbs+hsdb:@term+@rn+@rel+107-20-0
   5. http://toxnet.nlm.nih.gov/cgi-bin/sis/search/r?dbs+hsdb:@term+@rn+@rel+107-20-0
   6. http://toxnet.nlm.nih.gov/cgi-bin/sis/search/r?dbs+hsdb:@term+@rn+@rel+107-20-0
   7. http://toxnet.nlm.nih.gov/cgi-bin/sis/search/r?dbs+hsdb:@term+@rn+@rel+107-20-0
   8. http://toxnet.nlm.nih.gov/cgi-bin/sis/search/r?dbs+hsdb:@term+@rn+@rel+107-20-0
   9. http://toxnet.nlm.nih.gov/cgi-bin/sis/search/r?dbs+hsdb:@term+@rn+@rel+107-20-0
  10. http://pubchem.ncbi.nlm.nih.gov/vw3d/vw3d.cgi?cid=33
