443051
  -OEChem-07051213002D

 43 44  0     1  0  0  0  0  0999 V2000
    6.4021   -2.6495    0.0000 P   0  0  3  0  0  0  0  0  0  0  0  0
    7.9844   -3.3539    0.0000 P   0  0  0  0  0  0  0  0  0  0  0  0
    4.5411   -0.1849    0.0000 O   0  0  0  0  0  0  0  0  0  0  0  0
    2.6443   -1.9450    0.0000 O   0  0  0  0  0  0  0  0  0  0  0  0
    5.8144   -1.8404    0.0000 O   0  0  0  0  0  0  0  0  0  0  0  0
    2.0000    1.4029    0.0000 O   0  0  0  0  0  0  0  0  0  0  0  0
    6.9899   -3.4585    0.0000 O   0  0  0  0  0  0  0  0  0  0  0  0
    7.2112   -2.0617    0.0000 O   0  0  0  0  0  0  0  0  0  0  0  0
    5.5931   -3.2372    0.0000 O   0  0  0  0  0  0  0  0  0  0  0  0
    6.3301    2.9029    0.0000 O   0  0  0  0  0  0  0  0  0  0  0  0
    8.9790   -3.2494    0.0000 O   0  0  0  0  0  0  0  0  0  0  0  0
    8.0890   -4.3485    0.0000 O   0  0  0  0  0  0  0  0  0  0  0  0
    7.8799   -2.3594    0.0000 O   0  0  0  0  0  0  0  0  0  0  0  0
    3.7320    1.4029    0.0000 N   0  0  0  0  0  0  0  0  0  0  0  0
    2.8660    2.9029    0.0000 N   0  0  0  0  0  0  0  0  0  0  0  0
    3.7320    4.4029    0.0000 N   0  0  0  0  0  0  0  0  0  0  0  0
    3.2320   -1.1360    0.0000 C   0  0  2  0  0  0  0  0  0  0  0  0
    4.2320   -1.1360    0.0000 C   0  0  1  0  0  0  0  0  0  0  0  0
    2.9230   -0.1849    0.0000 C   0  0  0  0  0  0  0  0  0  0  0  0
    3.7320    0.4029    0.0000 C   0  0  1  0  0  0  0  0  0  0  0  0
    4.8198   -1.9450    0.0000 C   0  0  0  0  0  0  0  0  0  0  0  0
    4.5981    1.9029    0.0000 C   0  0  0  0  0  0  0  0  0  0  0  0
    2.8660    1.9029    0.0000 C   0  0  0  0  0  0  0  0  0  0  0  0
    4.5981    2.9029    0.0000 C   0  0  0  0  0  0  0  0  0  0  0  0
    3.7320    3.4029    0.0000 C   0  0  0  0  0  0  0  0  0  0  0  0
    5.4641    3.4029    0.0000 C   0  0  0  0  0  0  0  0  0  0  0  0
    3.5135   -1.6884    0.0000 H   0  0  0  0  0  0  0  0  0  0  0  0
    4.8444   -1.0390    0.0000 H   0  0  0  0  0  0  0  0  0  0  0  0
    2.6130    0.3520    0.0000 H   0  0  0  0  0  0  0  0  0  0  0  0
    2.3566   -0.4371    0.0000 H   0  0  0  0  0  0  0  0  0  0  0  0
    4.2845    0.6844    0.0000 H   0  0  0  0  0  0  0  0  0  0  0  0
    4.2626   -2.2168    0.0000 H   0  0  0  0  0  0  0  0  0  0  0  0
    4.9907   -2.5410    0.0000 H   0  0  0  0  0  0  0  0  0  0  0  0
    2.0277   -1.8802    0.0000 H   0  0  0  0  0  0  0  0  0  0  0  0
    5.1350    1.5929    0.0000 H   0  0  0  0  0  0  0  0  0  0  0  0
    5.8626    3.8778    0.0000 H   0  0  0  0  0  0  0  0  0  0  0  0
    5.0656    3.8778    0.0000 H   0  0  0  0  0  0  0  0  0  0  0  0
    3.1951    4.7129    0.0000 H   0  0  0  0  0  0  0  0  0  0  0  0
    4.2690    4.7129    0.0000 H   0  0  0  0  0  0  0  0  0  0  0  0
    7.1464   -1.4451    0.0000 H   0  0  0  0  0  0  0  0  0  0  0  0
    6.8671    3.2129    0.0000 H   0  0  0  0  0  0  0  0  0  0  0  0
    9.3434   -3.7510    0.0000 H   0  0  0  0  0  0  0  0  0  0  0  0
    7.5874   -4.7129    0.0000 H   0  0  0  0  0  0  0  0  0  0  0  0
  1  5  1  0  0  0  0
  1  7  1  0  0  0  0
  1  8  1  0  0  0  0
  1  9  2  0  0  0  0
  2  7  1  0  0  0  0
  2 11  1  0  0  0  0
  2 12  1  0  0  0  0
  2 13  2  0  0  0  0
  3 18  1  0  0  0  0
  3 20  1  0  0  0  0
 17  4  1  1  0  0  0
  4 34  1  0  0  0  0
  5 21  1  0  0  0  0
  6 23  2  0  0  0  0
  8 40  1  0  0  0  0
 10 26  1  0  0  0  0
 10 41  1  0  0  0  0
 11 42  1  0  0  0  0
 12 43  1  0  0  0  0
 20 14  1  6  0  0  0
 14 22  1  0  0  0  0
 14 23  1  0  0  0  0
 15 23  1  0  0  0  0
 15 25  2  0  0  0  0
 16 25  1  0  0  0  0
 16 38  1  0  0  0  0
 16 39  1  0  0  0  0
 17 18  1  0  0  0  0
 17 19  1  0  0  0  0
 17 27  1  0  0  0  0
 18 21  1  6  0  0  0
 18 28  1  0  0  0  0
 19 20  1  0  0  0  0
 19 29  1  0  0  0  0
 19 30  1  0  0  0  0
 20 31  1  0  0  0  0
 21 32  1  0  0  0  0
 21 33  1  0  0  0  0
 22 24  2  0  0  0  0
 22 35  1  0  0  0  0
 24 25  1  0  0  0  0
 24 26  1  0  0  0  0
 26 36  1  0  0  0  0
 26 37  1  0  0  0  0
M  END
> <PUBCHEM_COMPOUND_CID>
443051

> <PUBCHEM_COMPOUND_CANONICALIZED>
1

> <PUBCHEM_CACTVS_COMPLEXITY>
719

> <PUBCHEM_CACTVS_HBOND_ACCEPTOR>
11

> <PUBCHEM_CACTVS_HBOND_DONOR>
6

> <PUBCHEM_CACTVS_ROTATABLE_BOND>
7

> <PUBCHEM_CACTVS_SUBSKEYS>
AAADceBzPAMAAAAAAAAAAAAAAAAAASAAAAAgAAAAAAAAAAAAAAAAHgAQCCAADBThgAYBAANABxCoQgJmdICAAAEAAAAAAAAoABCBFAIAgQAOQAAHBgIDEACwMAIAAAAAAAAAAAAAAAAAAAAAAAAAAAAAAA==

> <PUBCHEM_IUPAC_OPENEYE_NAME>
[(2R,3S,5R)-5-[4-amino-5-(hydroxymethyl)-2-oxo-pyrimidin-1-yl]-3-hydroxy-tetrahydrofuran-2-yl]methyl phosphono hydrogen phosphate

> <PUBCHEM_IUPAC_CAS_NAME>
[(2R,3S,5R)-5-[4-amino-5-(hydroxymethyl)-2-oxo-1-pyrimidinyl]-3-hydroxy-2-oxolanyl]methyl phosphono hydrogen phosphate

> <PUBCHEM_IUPAC_NAME>
[(2R,3S,5R)-5-[4-amino-5-(hydroxymethyl)-2-oxopyrimidin-1-yl]-3-hydroxyoxolan-2-yl]methyl phosphono hydrogen phosphate

> <PUBCHEM_IUPAC_SYSTEMATIC_NAME>
[(2R,3S,5R)-5-[4-azanyl-5-(hydroxymethyl)-2-oxidanylidene-pyrimidin-1-yl]-3-oxidanyl-oxolan-2-yl]methyl phosphono hydrogen phosphate

> <PUBCHEM_IUPAC_TRADITIONAL_NAME>
[(2R,3S,5R)-5-(4-amino-2-keto-5-methylol-pyrimidin-1-yl)-3-hydroxy-tetrahydrofuran-2-yl]methyl phosphono hydrogen phosphate

> <PUBCHEM_IUPAC_INCHI>
InChI=1S/C10H17N3O11P2/c11-9-5(3-14)2-13(10(16)12-9)8-1-6(15)7(23-8)4-22-26(20,21)24-25(17,18)19/h2,6-8,14-15H,1,3-4H2,(H,20,21)(H2,11,12,16)(H2,17,18,19)/t6-,7+,8+/m0/s1

> <PUBCHEM_IUPAC_INCHIKEY>
RQKDPSTWKKMBPM-XLPZGREQSA-N

> <PUBCHEM_XLOGP3_AA>
-4.7

> <PUBCHEM_EXACT_MASS>
417.033832

> <PUBCHEM_MOLECULAR_FORMULA>
C10H17N3O11P2

> <PUBCHEM_MOLECULAR_WEIGHT>
417.203004

> <PUBCHEM_OPENEYE_CAN_SMILES>
C1C(C(OC1N2C=C(C(=NC2=O)N)CO)COP(=O)(O)OP(=O)(O)O)O

> <PUBCHEM_OPENEYE_ISO_SMILES>
C1[C@@H]([C@H](O[C@H]1N2C=C(C(=NC2=O)N)CO)COP(=O)(O)OP(=O)(O)O)O

> <PUBCHEM_CACTVS_TPSA>
222

> <PUBCHEM_MONOISOTOPIC_WEIGHT>
417.033832

> <PUBCHEM_TOTAL_CHARGE>
0

> <PUBCHEM_HEAVY_ATOM_COUNT>
26

> <PUBCHEM_ATOM_DEF_STEREO_COUNT>
3

> <PUBCHEM_ATOM_UDEF_STEREO_COUNT>
0

> <PUBCHEM_BOND_DEF_STEREO_COUNT>
0

> <PUBCHEM_BOND_UDEF_STEREO_COUNT>
0

> <PUBCHEM_ISOTOPIC_ATOM_COUNT>
0

> <PUBCHEM_COMPONENT_COUNT>
1

> <PUBCHEM_CACTVS_TAUTO_COUNT>
3

> <PUBCHEM_COORDINATE_TYPE>
1
5
255

> <PUBCHEM_BONDANNOTATIONS>
20  14  6
14  22  8
14  23  8
15  23  8
15  25  8
18  21  6
22  24  8
24  25  8
17  4  5

$$$$

