13512
  -OEChem-06241222392D

 16 15  0     0  0  0  0  0  0999 V2000
    2.8660   -0.2220    0.0000 C   0  0  0  0  0  0  0  0  0  0  0  0
    2.0000   -0.7220    0.0000 C   0  0  0  0  0  0  0  0  0  0  0  0
    2.3660    0.6440    0.0000 C   0  0  0  0  0  0  0  0  0  0  0  0
    3.3660   -1.0880    0.0000 C   0  0  0  0  0  0  0  0  0  0  0  0
    3.7320    0.2780    0.0000 C   0  0  0  0  0  0  0  0  0  0  0  0
    4.5981    0.7780    0.0000 C   0  0  0  0  0  0  0  0  0  0  0  0
    1.6900   -0.1851    0.0000 H   0  0  0  0  0  0  0  0  0  0  0  0
    1.4631   -1.0320    0.0000 H   0  0  0  0  0  0  0  0  0  0  0  0
    2.3100   -1.2589    0.0000 H   0  0  0  0  0  0  0  0  0  0  0  0
    2.9030    0.9540    0.0000 H   0  0  0  0  0  0  0  0  0  0  0  0
    2.0560    1.1810    0.0000 H   0  0  0  0  0  0  0  0  0  0  0  0
    1.8291    0.3340    0.0000 H   0  0  0  0  0  0  0  0  0  0  0  0
    2.8291   -1.3980    0.0000 H   0  0  0  0  0  0  0  0  0  0  0  0
    3.6760   -1.6249    0.0000 H   0  0  0  0  0  0  0  0  0  0  0  0
    3.9030   -0.7780    0.0000 H   0  0  0  0  0  0  0  0  0  0  0  0
    5.1350    1.0880    0.0000 H   0  0  0  0  0  0  0  0  0  0  0  0
  1  2  1  0  0  0  0
  1  3  1  0  0  0  0
  1  4  1  0  0  0  0
  1  5  1  0  0  0  0
  2  7  1  0  0  0  0
  2  8  1  0  0  0  0
  2  9  1  0  0  0  0
  3 10  1  0  0  0  0
  3 11  1  0  0  0  0
  3 12  1  0  0  0  0
  4 13  1  0  0  0  0
  4 14  1  0  0  0  0
  4 15  1  0  0  0  0
  5  6  3  0  0  0  0
  6 16  1  0  0  0  0
M  END
> <PUBCHEM_COMPOUND_CID>
13512

> <PUBCHEM_COMPOUND_CANONICALIZED>
1

> <PUBCHEM_CACTVS_COMPLEXITY>
73.9

> <PUBCHEM_CACTVS_HBOND_ACCEPTOR>
0

> <PUBCHEM_CACTVS_HBOND_DONOR>
0

> <PUBCHEM_CACTVS_ROTATABLE_BOND>
1

> <PUBCHEM_CACTVS_SUBSKEYS>
AAADccBgAAAAAAAAAAAAAAAAAAAAAAAAAAAAAAAAAAAAAAAAAAAAGAAAAAAADgCAAAACAAAAAABAGAAAAAgAAAAAAAAAAAAAAAAAAAAAAAAAAAAAAAAAAAAAAAAAAAAAAAAAAAAAAAAAAAAAAAAAAAAAAA==

> <PUBCHEM_IUPAC_OPENEYE_NAME>
3,3-dimethylbut-1-yne

> <PUBCHEM_IUPAC_CAS_NAME>
3,3-dimethyl-1-butyne

> <PUBCHEM_IUPAC_NAME>
3,3-dimethylbut-1-yne

> <PUBCHEM_IUPAC_SYSTEMATIC_NAME>
3,3-dimethylbut-1-yne

> <PUBCHEM_IUPAC_TRADITIONAL_NAME>
3,3-dimethylbut-1-yne

> <PUBCHEM_IUPAC_INCHI>
InChI=1S/C6H10/c1-5-6(2,3)4/h1H,2-4H3

> <PUBCHEM_IUPAC_INCHIKEY>
PPWNCLVNXGCGAF-UHFFFAOYSA-N

> <PUBCHEM_XLOGP3_AA>
2.2

> <PUBCHEM_EXACT_MASS>
82.07825

> <PUBCHEM_MOLECULAR_FORMULA>
C6H10

> <PUBCHEM_MOLECULAR_WEIGHT>
82.1436

> <PUBCHEM_OPENEYE_CAN_SMILES>
CC(C)(C)C#C

> <PUBCHEM_OPENEYE_ISO_SMILES>
CC(C)(C)C#C

> <PUBCHEM_CACTVS_TPSA>
0

> <PUBCHEM_MONOISOTOPIC_WEIGHT>
82.07825

> <PUBCHEM_TOTAL_CHARGE>
0

> <PUBCHEM_HEAVY_ATOM_COUNT>
6

> <PUBCHEM_ATOM_DEF_STEREO_COUNT>
0

> <PUBCHEM_ATOM_UDEF_STEREO_COUNT>
0

> <PUBCHEM_BOND_DEF_STEREO_COUNT>
0

> <PUBCHEM_BOND_UDEF_STEREO_COUNT>
0

> <PUBCHEM_ISOTOPIC_ATOM_COUNT>
0

> <PUBCHEM_COMPONENT_COUNT>
1

> <PUBCHEM_CACTVS_TAUTO_COUNT>
1

> <PUBCHEM_COORDINATE_TYPE>
1
5
255

$$$$

