442205
  -OEChem-07051212572D

 49 52  0     1  0  0  0  0  0999 V2000
    6.2621   -3.2320    0.0000 O   0  0  0  0  0  0  0  0  0  0  0  0
    3.5836   -2.5363    0.0000 O   0  0  0  0  0  0  0  0  0  0  0  0
    8.6152   -1.4495    0.0000 O   0  0  0  0  0  0  0  0  0  0  0  0
    5.3958    0.2685    0.0000 O   0  0  0  0  0  0  0  0  0  0  0  0
    2.0000   -1.7315    0.0000 O   0  0  0  0  0  0  0  0  0  0  0  0
    8.5505    0.3160    0.0000 O   0  0  0  0  0  0  0  0  0  0  0  0
    7.1279    0.2685    0.0000 O   0  0  0  0  0  0  0  0  0  0  0  0
    6.2619   -2.2315    0.0000 C   0  0  1  0  0  0  0  0  0  0  0  0
    5.3958   -2.7315    0.0000 C   0  0  1  0  0  0  0  0  0  0  0  0
    4.5298   -2.2315    0.0000 C   0  0  2  0  0  0  0  0  0  0  0  0
    7.1279   -2.7315    0.0000 C   0  0  0  0  0  0  0  0  0  0  0  0
    4.5298   -1.2315    0.0000 C   0  0  1  0  0  0  0  0  0  0  0  0
    7.1279   -1.7315    0.0000 C   0  0  0  0  0  0  0  0  0  0  0  0
    5.3958   -0.7315    0.0000 C   0  0  2  0  0  0  0  0  0  0  0  0
    7.9939   -2.2315    0.0000 C   0  0  2  0  0  0  0  0  0  0  0  0
    3.5836   -0.9268    0.0000 C   0  0  0  0  0  0  0  0  0  0  0  0
    6.2619   -1.2315    0.0000 C   0  0  0  0  0  0  0  0  0  0  0  0
    7.9939   -1.2315    0.0000 C   0  0  0  0  0  0  0  0  0  0  0  0
    7.1279   -0.7315    0.0000 C   0  0  0  0  0  0  0  0  0  0  0  0
    3.0000   -1.7315    0.0000 C   0  0  0  0  0  0  0  0  0  0  0  0
    8.1158   -0.5846    0.0000 C   0  0  0  0  0  0  0  0  0  0  0  0
    3.2729    0.0237    0.0000 C   0  0  0  0  0  0  0  0  0  0  0  0
    6.2619    0.7685    0.0000 C   0  0  0  0  0  0  0  0  0  0  0  0
    6.2619    1.7685    0.0000 C   0  0  0  0  0  0  0  0  0  0  0  0
    7.1279    2.2685    0.0000 C   0  0  0  0  0  0  0  0  0  0  0  0
    7.1279    3.2685    0.0000 C   0  0  0  0  0  0  0  0  0  0  0  0
    7.9939    1.7685    0.0000 C   0  0  0  0  0  0  0  0  0  0  0  0
    4.9708   -3.4676    0.0000 H   0  0  0  0  0  0  0  0  0  0  0  0
    4.1050   -2.9677    0.0000 H   0  0  0  0  0  0  0  0  0  0  0  0
    6.7294   -3.2065    0.0000 H   0  0  0  0  0  0  0  0  0  0  0  0
    7.5264   -3.2065    0.0000 H   0  0  0  0  0  0  0  0  0  0  0  0
    4.5298   -0.3815    0.0000 H   0  0  0  0  0  0  0  0  0  0  0  0
    7.4379   -2.2685    0.0000 H   0  0  0  0  0  0  0  0  0  0  0  0
    7.6648   -1.4215    0.0000 H   0  0  0  0  0  0  0  0  0  0  0  0
    6.8179   -1.1946    0.0000 H   0  0  0  0  0  0  0  0  0  0  0  0
    5.9328   -0.4215    0.0000 H   0  0  0  0  0  0  0  0  0  0  0  0
    8.5490   -2.8753    0.0000 H   0  0  0  0  0  0  0  0  0  0  0  0
    5.8633   -1.7065    0.0000 H   0  0  0  0  0  0  0  0  0  0  0  0
    6.6604   -1.7065    0.0000 H   0  0  0  0  0  0  0  0  0  0  0  0
    8.5309   -0.9215    0.0000 H   0  0  0  0  0  0  0  0  0  0  0  0
    3.6870    0.4852    0.0000 H   0  0  0  0  0  0  0  0  0  0  0  0
    2.6663    0.1516    0.0000 H   0  0  0  0  0  0  0  0  0  0  0  0
    5.7249    2.0785    0.0000 H   0  0  0  0  0  0  0  0  0  0  0  0
    7.7479    3.2685    0.0000 H   0  0  0  0  0  0  0  0  0  0  0  0
    7.1279    3.8885    0.0000 H   0  0  0  0  0  0  0  0  0  0  0  0
    6.5079    3.2685    0.0000 H   0  0  0  0  0  0  0  0  0  0  0  0
    7.6839    1.2315    0.0000 H   0  0  0  0  0  0  0  0  0  0  0  0
    8.5309    1.4585    0.0000 H   0  0  0  0  0  0  0  0  0  0  0  0
    8.3039    2.3054    0.0000 H   0  0  0  0  0  0  0  0  0  0  0  0
  1  8  1  0  0  0  0
  1  9  1  0  0  0  0
  2 10  1  0  0  0  0
  2 20  1  0  0  0  0
  3 15  1  0  0  0  0
  3 21  1  0  0  0  0
 14  4  1  1  0  0  0
  4 23  1  0  0  0  0
  5 20  2  0  0  0  0
  6 21  2  0  0  0  0
  7 23  2  0  0  0  0
  8  9  1  0  0  0  0
  8 11  1  0  0  0  0
  8 13  1  6  0  0  0
  9 10  1  0  0  0  0
  9 28  1  1  0  0  0
 10 12  1  0  0  0  0
 10 29  1  6  0  0  0
 11 15  1  0  0  0  0
 11 30  1  0  0  0  0
 11 31  1  0  0  0  0
 12 14  1  0  0  0  0
 12 16  1  0  0  0  0
 12 32  1  1  0  0  0
 13 33  1  0  0  0  0
 13 34  1  0  0  0  0
 13 35  1  0  0  0  0
 14 17  1  0  0  0  0
 14 36  1  0  0  0  0
 15 18  1  0  0  0  0
 15 37  1  1  0  0  0
 16 20  1  0  0  0  0
 16 22  2  0  0  0  0
 17 19  1  0  0  0  0
 17 38  1  0  0  0  0
 17 39  1  0  0  0  0
 18 19  2  0  0  0  0
 18 40  1  0  0  0  0
 19 21  1  0  0  0  0
 22 41  1  0  0  0  0
 22 42  1  0  0  0  0
 23 24  1  0  0  0  0
 24 25  2  0  0  0  0
 24 43  1  0  0  0  0
 25 26  1  0  0  0  0
 25 27  1  0  0  0  0
 26 44  1  0  0  0  0
 26 45  1  0  0  0  0
 26 46  1  0  0  0  0
 27 47  1  0  0  0  0
 27 48  1  0  0  0  0
 27 49  1  0  0  0  0
M  END
> <PUBCHEM_COMPOUND_CID>
442205

> <PUBCHEM_COMPOUND_CANONICALIZED>
1

> <PUBCHEM_CACTVS_COMPLEXITY>
803

> <PUBCHEM_CACTVS_HBOND_ACCEPTOR>
7

> <PUBCHEM_CACTVS_HBOND_DONOR>
0

> <PUBCHEM_CACTVS_ROTATABLE_BOND>
3

> <PUBCHEM_CACTVS_SUBSKEYS>
AAADceB4OAAAAAAAAAAAAAAAEgAAASIAAAAAAAAAAAAAAACAAAAAGgAAAAAADVSggAICCAAABACIAiDSCAAAAAAgAAAACAEAAEgBBBIAIQACEAAFwAAKIYPK7PzOAAAAAAAAAAAAAAAAAAAAAAAAAAAAAA==

> <PUBCHEM_IUPAC_INCHI>
InChI=1S/C20H22O7/c1-9(2)5-14(21)25-13-7-11-6-12(24-19(11)23)8-20(4)17(27-20)16-15(13)10(3)18(22)26-16/h5-6,12-13,15-17H,3,7-8H2,1-2,4H3/t12-,13-,15+,16-,17+,20+/m0/s1

> <PUBCHEM_IUPAC_INCHIKEY>
HSTUUCOYVIWGLJ-DXUAHVLSSA-N

> <PUBCHEM_XLOGP3>
1

> <PUBCHEM_EXACT_MASS>
374.136553

> <PUBCHEM_MOLECULAR_FORMULA>
C20H22O7

> <PUBCHEM_MOLECULAR_WEIGHT>
374.38448

> <PUBCHEM_OPENEYE_CAN_SMILES>
CC(=CC(=O)OC1CC2=CC(CC3(C(O3)C4C1C(=C)C(=O)O4)C)OC2=O)C

> <PUBCHEM_OPENEYE_ISO_SMILES>
CC(=CC(=O)O[C@H]1CC2=C[C@@H](C[C@@]3([C@H](O3)[C@@H]4[C@@H]1C(=C)C(=O)O4)C)OC2=O)C

> <PUBCHEM_CACTVS_TPSA>
91.4

> <PUBCHEM_MONOISOTOPIC_WEIGHT>
374.136553

> <PUBCHEM_TOTAL_CHARGE>
0

> <PUBCHEM_HEAVY_ATOM_COUNT>
27

> <PUBCHEM_ATOM_DEF_STEREO_COUNT>
6

> <PUBCHEM_ATOM_UDEF_STEREO_COUNT>
0

> <PUBCHEM_BOND_DEF_STEREO_COUNT>
0

> <PUBCHEM_BOND_UDEF_STEREO_COUNT>
0

> <PUBCHEM_ISOTOPIC_ATOM_COUNT>
0

> <PUBCHEM_COMPONENT_COUNT>
1

> <PUBCHEM_CACTVS_TAUTO_COUNT>
1

> <PUBCHEM_COORDINATE_TYPE>
1
5
255

> <PUBCHEM_BONDANNOTATIONS>
10  29  6
12  32  5
15  37  5
14  4  5
8  13  6
9  28  5

$$$$

