   Color/Form
        Colorless, viscous liquid
   from [1]HSDB

   Boiling Point
        Decomposes at 240 deg C without boiling
   from [2]HSDB

   Melting Point
        Pour point 6 deg C
   from [3]HSDB

   Density/Specific Gravity
        1.432 at 20 deg C
   from [4]HSDB

   Octanol/Water Partition Coefficient
        log Kow = 3.56
   from [5]HSDB

   Solubilities

     * Readily soluble in 1,2-dichloroethane, acetone, and methanol
     * In water, 150 mg/L at 20 deg C

   from [6]HSDB

   Vapor Pressure
        1.35X10-6 mm Hg at 20 deg C
   from [7]HSDB

   Other Chemical/Physical Properties

     * Yellow to yellowish-brown liquid /Technical/
     * Henry's Law constant = 4.23X10-9 atm-cu m/mol at 25 deg C (est)
     * Hydroxyl radical reaction rate constant = 1.09X10-11 cu
       cm/molec-sec at 25 deg C (est)

   from [8]HSDB

   Computed Properties
   Molecular Weight                  372.145553 [g/mol]
   Molecular Formula                 C[13]H[11]Cl[2]F[4]N[3]O
   XLogP3-AA                         4.4
   H-Bond Donor                      0
   H-Bond Acceptor                   7
   Rotatable Bond Count              7
   Exact Mass                        371.02153
   MonoIsotopic Mass                 371.02153
   Topological Polar Surface Area    39.9
   Heavy Atom Count                  23
   Formal Charge                     0
   Complexity                        381
   Isotope Atom Count                0
   Defined Atom Stereocenter Count   0
   Undefined Atom Stereocenter Count 1
   Defined Bond Stereocenter Count   0
   Undefined Bond Stereocenter Count 0
   Covalently-Bonded Unit Count      1
   Feature 3D Acceptor Count         1
   Feature 3D Cation Count           2
   Feature 3D Ring Count             2
   Effective Rotor Count             7
   Conformer Sampling RMSD           0.8
   CID Conformer Count               [9]155

References

   1. http://toxnet.nlm.nih.gov/cgi-bin/sis/search/r?dbs+hsdb:@term+@rn+@rel+112281-77-3
   2. http://toxnet.nlm.nih.gov/cgi-bin/sis/search/r?dbs+hsdb:@term+@rn+@rel+112281-77-3
   3. http://toxnet.nlm.nih.gov/cgi-bin/sis/search/r?dbs+hsdb:@term+@rn+@rel+112281-77-3
   4. http://toxnet.nlm.nih.gov/cgi-bin/sis/search/r?dbs+hsdb:@term+@rn+@rel+112281-77-3
   5. http://toxnet.nlm.nih.gov/cgi-bin/sis/search/r?dbs+hsdb:@term+@rn+@rel+112281-77-3
   6. http://toxnet.nlm.nih.gov/cgi-bin/sis/search/r?dbs+hsdb:@term+@rn+@rel+112281-77-3
   7. http://toxnet.nlm.nih.gov/cgi-bin/sis/search/r?dbs+hsdb:@term+@rn+@rel+112281-77-3
   8. http://toxnet.nlm.nih.gov/cgi-bin/sis/search/r?dbs+hsdb:@term+@rn+@rel+112281-77-3
   9. http://pubchem.ncbi.nlm.nih.gov/vw3d/vw3d.cgi?cid=80277
