46173722
  -OEChem-07051212482D

 43 45  0     1  0  0  0  0  0999 V2000
    6.2781    0.9078    0.0000 O   0  0  0  0  0  0  0  0  0  0  0  0
    6.8994    2.8089    0.0000 O   0  0  0  0  0  0  0  0  0  0  0  0
    7.6138   -0.5808    0.0000 O   0  0  0  0  0  0  0  0  0  0  0  0
    8.8564    3.2213    0.0000 O   0  0  0  0  0  0  0  0  0  0  0  0
    9.5708   -0.1683    0.0000 O   0  0  0  0  0  0  0  0  0  0  0  0
   10.1921    1.7327    0.0000 O   0  0  0  0  0  0  0  0  0  0  0  0
    6.6353   -0.7870    0.0000 O   0  0  0  0  0  0  0  0  0  0  0  0
    4.6783   -2.8089    0.0000 N   0  0  0  0  0  0  0  0  0  0  0  0
    7.2566    1.1141    0.0000 C   0  0  0  0  0  0  0  0  0  0  0  0
    7.9244    0.3698    0.0000 C   0  0  1  0  0  0  0  0  0  0  0  0
    7.5673    2.0646    0.0000 C   0  0  2  0  0  0  0  0  0  0  0  0
    8.9030    0.5760    0.0000 C   0  0  2  0  0  0  0  0  0  0  0  0
    8.5458    2.2708    0.0000 C   0  0  1  0  0  0  0  0  0  0  0  0
    9.2136    1.5265    0.0000 C   0  0  0  0  0  0  0  0  0  0  0  0
    5.9674   -0.0427    0.0000 C   0  0  0  0  0  0  0  0  0  0  0  0
    4.9889   -0.2489    0.0000 C   0  0  0  0  0  0  0  0  0  0  0  0
    4.6783   -1.1994    0.0000 C   0  0  0  0  0  0  0  0  0  0  0  0
    3.7320   -1.5042    0.0000 C   0  0  0  0  0  0  0  0  0  0  0  0
    3.7320   -2.5042    0.0000 C   0  0  0  0  0  0  0  0  0  0  0  0
    5.2619   -2.0042    0.0000 C   0  0  0  0  0  0  0  0  0  0  0  0
    2.8660   -1.0042    0.0000 C   0  0  0  0  0  0  0  0  0  0  0  0
    2.8660   -3.0042    0.0000 C   0  0  0  0  0  0  0  0  0  0  0  0
    2.0000   -1.5042    0.0000 C   0  0  0  0  0  0  0  0  0  0  0  0
    2.0000   -2.5042    0.0000 C   0  0  0  0  0  0  0  0  0  0  0  0
    7.0640    0.5247    0.0000 H   0  0  0  0  0  0  0  0  0  0  0  0
    8.3385   -0.0917    0.0000 H   0  0  0  0  0  0  0  0  0  0  0  0
    6.9606    1.9367    0.0000 H   0  0  0  0  0  0  0  0  0  0  0  0
    9.5096    0.7038    0.0000 H   0  0  0  0  0  0  0  0  0  0  0  0
    9.1524    2.3987    0.0000 H   0  0  0  0  0  0  0  0  0  0  0  0
    9.6277    1.0650    0.0000 H   0  0  0  0  0  0  0  0  0  0  0  0
    7.0920    3.3982    0.0000 H   0  0  0  0  0  0  0  0  0  0  0  0
    8.0279   -1.0422    0.0000 H   0  0  0  0  0  0  0  0  0  0  0  0
    9.4631    3.3492    0.0000 H   0  0  0  0  0  0  0  0  0  0  0  0
   10.1775   -0.0405    0.0000 H   0  0  0  0  0  0  0  0  0  0  0  0
   10.3847    2.3220    0.0000 H   0  0  0  0  0  0  0  0  0  0  0  0
    4.9684    0.3708    0.0000 H   0  0  0  0  0  0  0  0  0  0  0  0
    4.3751   -0.1615    0.0000 H   0  0  0  0  0  0  0  0  0  0  0  0
    5.8819   -2.0042    0.0000 H   0  0  0  0  0  0  0  0  0  0  0  0
    4.8709   -3.3982    0.0000 H   0  0  0  0  0  0  0  0  0  0  0  0
    2.8660   -0.3842    0.0000 H   0  0  0  0  0  0  0  0  0  0  0  0
    2.8660   -3.6242    0.0000 H   0  0  0  0  0  0  0  0  0  0  0  0
    1.4631   -1.1942    0.0000 H   0  0  0  0  0  0  0  0  0  0  0  0
    1.4631   -2.8142    0.0000 H   0  0  0  0  0  0  0  0  0  0  0  0
  1  9  1  0  0  0  0
  1 15  1  0  0  0  0
 11  2  1  1  0  0  0
  2 31  1  0  0  0  0
 10  3  1  1  0  0  0
  3 32  1  0  0  0  0
 13  4  1  6  0  0  0
  4 33  1  0  0  0  0
 12  5  1  6  0  0  0
  5 34  1  0  0  0  0
  6 14  1  0  0  0  0
  6 35  1  0  0  0  0
  7 15  2  0  0  0  0
  8 19  1  0  0  0  0
  8 20  1  0  0  0  0
  8 39  1  0  0  0  0
  9 10  1  0  0  0  0
  9 11  1  0  0  0  0
  9 25  1  0  0  0  0
 10 12  1  0  0  0  0
 10 26  1  0  0  0  0
 11 13  1  0  0  0  0
 11 27  1  0  0  0  0
 12 14  1  0  0  0  0
 12 28  1  0  0  0  0
 13 14  1  0  0  0  0
 13 29  1  0  0  0  0
 14 30  1  0  0  0  0
 15 16  1  0  0  0  0
 16 17  1  0  0  0  0
 16 36  1  0  0  0  0
 16 37  1  0  0  0  0
 17 18  1  0  0  0  0
 17 20  2  0  0  0  0
 18 19  1  0  0  0  0
 18 21  2  0  0  0  0
 19 22  2  0  0  0  0
 20 38  1  0  0  0  0
 21 23  1  0  0  0  0
 21 40  1  0  0  0  0
 22 24  1  0  0  0  0
 22 41  1  0  0  0  0
 23 24  2  0  0  0  0
 23 42  1  0  0  0  0
 24 43  1  0  0  0  0
M  END
> <PUBCHEM_COMPOUND_CID>
46173722

> <PUBCHEM_COMPOUND_CANONICALIZED>
1

> <PUBCHEM_CACTVS_COMPLEXITY>
446

> <PUBCHEM_CACTVS_HBOND_ACCEPTOR>
7

> <PUBCHEM_CACTVS_HBOND_DONOR>
6

> <PUBCHEM_CACTVS_ROTATABLE_BOND>
4

> <PUBCHEM_CACTVS_SUBSKEYS>
AAADceB6OAAAAAAAAAAAAAAAAAAAAWAAAAAwYAAAAAAAAFgB8AAAHgAQCAAADBzhngY8yPLJlgCoAzT3TACCgCAxAiAI2aE4ZJgJMPLAlZGGYAhl0AHLyAf8+e+egAAAAAACAAACAAAQAASAAAAAAAAAAA==

> <PUBCHEM_IUPAC_OPENEYE_NAME>
[(2R,3S,5R,6S)-2,3,4,5,6-pentahydroxycyclohexyl] 2-(1H-indol-3-yl)acetate

> <PUBCHEM_IUPAC_CAS_NAME>
2-(1H-indol-3-yl)acetic acid [(2R,3S,5R,6S)-2,3,4,5,6-pentahydroxycyclohexyl] ester

> <PUBCHEM_IUPAC_NAME>
[(2R,3S,5R,6S)-2,3,4,5,6-pentahydroxycyclohexyl] 2-(1H-indol-3-yl)acetate

> <PUBCHEM_IUPAC_SYSTEMATIC_NAME>
[(2R,3S,5R,6S)-2,3,4,5,6-pentakis(oxidanyl)cyclohexyl] 2-(1H-indol-3-yl)ethanoate

> <PUBCHEM_IUPAC_TRADITIONAL_NAME>
2-(1H-indol-3-yl)acetic acid [(2R,3S,5R,6S)-2,3,4,5,6-pentahydroxycyclohexyl] ester

> <PUBCHEM_IUPAC_INCHI>
InChI=1S/C16H19NO7/c18-10(5-7-6-17-9-4-2-1-3-8(7)9)24-16-14(22)12(20)11(19)13(21)15(16)23/h1-4,6,11-17,19-23H,5H2/t11?,12-,13+,14+,15-,16?

> <PUBCHEM_IUPAC_INCHIKEY>
XUACNUJFOIKYPQ-GRPLBRPNSA-N

> <PUBCHEM_XLOGP3>
-1.5

> <PUBCHEM_EXACT_MASS>
337.116152

> <PUBCHEM_MOLECULAR_FORMULA>
C16H19NO7

> <PUBCHEM_MOLECULAR_WEIGHT>
337.32456

> <PUBCHEM_OPENEYE_CAN_SMILES>
C1=CC=C2C(=C1)C(=CN2)CC(=O)OC3C(C(C(C(C3O)O)O)O)O

> <PUBCHEM_OPENEYE_ISO_SMILES>
C1=CC=C2C(=C1)C(=CN2)CC(=O)OC3[C@@H]([C@H](C([C@H]([C@@H]3O)O)O)O)O

> <PUBCHEM_CACTVS_TPSA>
143

> <PUBCHEM_MONOISOTOPIC_WEIGHT>
337.116152

> <PUBCHEM_TOTAL_CHARGE>
0

> <PUBCHEM_HEAVY_ATOM_COUNT>
24

> <PUBCHEM_ATOM_DEF_STEREO_COUNT>
4

> <PUBCHEM_ATOM_UDEF_STEREO_COUNT>
0

> <PUBCHEM_BOND_DEF_STEREO_COUNT>
0

> <PUBCHEM_BOND_UDEF_STEREO_COUNT>
0

> <PUBCHEM_ISOTOPIC_ATOM_COUNT>
0

> <PUBCHEM_COMPONENT_COUNT>
1

> <PUBCHEM_CACTVS_TAUTO_COUNT>
1

> <PUBCHEM_COORDINATE_TYPE>
1
5
255

> <PUBCHEM_BONDANNOTATIONS>
17  18  8
17  20  8
18  19  8
18  21  8
19  22  8
11  2  5
21  23  8
22  24  8
23  24  8
10  3  5
13  4  6
12  5  6
8  19  8
8  20  8

$$$$

