216272
  -OEChem-07051212572D

 42 44  0     1  0  0  0  0  0999 V2000
    2.0000   -2.6224    0.0000 O   0  0  0  0  0  0  0  0  0  0  0  0
    6.3301    1.8776    0.0000 O   0  0  0  0  0  0  0  0  0  0  0  0
    4.5981    2.8776    0.0000 O   0  0  0  0  0  0  0  0  0  0  0  0
    5.5443   -2.4271    0.0000 N   0  0  3  0  0  0  0  0  0  0  0  0
    4.5981   -1.1224    0.0000 C   0  0  1  0  0  0  0  0  0  0  0  0
    4.5981   -2.1224    0.0000 C   0  0  2  0  0  0  0  0  0  0  0  0
    5.5443   -0.8176    0.0000 C   0  0  0  0  0  0  0  0  0  0  0  0
    6.1279   -1.6224    0.0000 C   0  0  0  0  0  0  0  0  0  0  0  0
    3.7320   -2.6224    0.0000 C   0  0  0  0  0  0  0  0  0  0  0  0
    4.5981   -0.1224    0.0000 C   0  0  0  0  0  0  0  0  0  0  0  0
    3.7320   -0.6224    0.0000 C   0  0  0  0  0  0  0  0  0  0  0  0
    2.8660   -2.1224    0.0000 C   0  0  0  0  0  0  0  0  0  0  0  0
    5.8550   -3.3776    0.0000 C   0  0  0  0  0  0  0  0  0  0  0  0
    2.8660   -1.1224    0.0000 C   0  0  0  0  0  0  0  0  0  0  0  0
    5.4641    0.3776    0.0000 C   0  0  0  0  0  0  0  0  0  0  0  0
    3.7320    0.3776    0.0000 C   0  0  0  0  0  0  0  0  0  0  0  0
    5.4641    1.3776    0.0000 C   0  0  0  0  0  0  0  0  0  0  0  0
    3.7320    1.3776    0.0000 C   0  0  0  0  0  0  0  0  0  0  0  0
    4.5981    1.8776    0.0000 C   0  0  0  0  0  0  0  0  0  0  0  0
    6.3301    2.8776    0.0000 C   0  0  0  0  0  0  0  0  0  0  0  0
    3.7320    3.3776    0.0000 C   0  0  0  0  0  0  0  0  0  0  0  0
    4.6880   -2.9676    0.0000 H   0  0  0  0  0  0  0  0  0  0  0  0
    6.0817   -0.5084    0.0000 H   0  0  0  0  0  0  0  0  0  0  0  0
    5.2933   -0.2507    0.0000 H   0  0  0  0  0  0  0  0  0  0  0  0
    6.5888   -2.0371    0.0000 H   0  0  0  0  0  0  0  0  0  0  0  0
    6.5888   -1.2076    0.0000 H   0  0  0  0  0  0  0  0  0  0  0  0
    3.3335   -3.0973    0.0000 H   0  0  0  0  0  0  0  0  0  0  0  0
    4.1306   -3.0973    0.0000 H   0  0  0  0  0  0  0  0  0  0  0  0
    3.7320   -0.0024    0.0000 H   0  0  0  0  0  0  0  0  0  0  0  0
    5.2656   -3.5702    0.0000 H   0  0  0  0  0  0  0  0  0  0  0  0
    6.0476   -3.9670    0.0000 H   0  0  0  0  0  0  0  0  0  0  0  0
    6.4443   -3.1850    0.0000 H   0  0  0  0  0  0  0  0  0  0  0  0
    2.3291   -0.8124    0.0000 H   0  0  0  0  0  0  0  0  0  0  0  0
    6.0010    0.0676    0.0000 H   0  0  0  0  0  0  0  0  0  0  0  0
    3.1951    0.0676    0.0000 H   0  0  0  0  0  0  0  0  0  0  0  0
    3.1951    1.6876    0.0000 H   0  0  0  0  0  0  0  0  0  0  0  0
    6.9501    2.8776    0.0000 H   0  0  0  0  0  0  0  0  0  0  0  0
    6.3301    3.4976    0.0000 H   0  0  0  0  0  0  0  0  0  0  0  0
    5.7101    2.8776    0.0000 H   0  0  0  0  0  0  0  0  0  0  0  0
    4.0420    3.9146    0.0000 H   0  0  0  0  0  0  0  0  0  0  0  0
    3.1951    3.6876    0.0000 H   0  0  0  0  0  0  0  0  0  0  0  0
    3.4220    2.8407    0.0000 H   0  0  0  0  0  0  0  0  0  0  0  0
  1 12  2  0  0  0  0
  2 17  1  0  0  0  0
  2 20  1  0  0  0  0
  3 19  1  0  0  0  0
  3 21  1  0  0  0  0
  4  6  1  0  0  0  0
  4  8  1  0  0  0  0
  4 13  1  0  0  0  0
  5  6  1  0  0  0  0
  5  7  1  0  0  0  0
  5 10  1  6  0  0  0
  5 11  1  0  0  0  0
  6  9  1  0  0  0  0
  6 22  1  6  0  0  0
  7  8  1  0  0  0  0
  7 23  1  0  0  0  0
  7 24  1  0  0  0  0
  8 25  1  0  0  0  0
  8 26  1  0  0  0  0
  9 12  1  0  0  0  0
  9 27  1  0  0  0  0
  9 28  1  0  0  0  0
 10 15  2  0  0  0  0
 10 16  1  0  0  0  0
 11 14  2  0  0  0  0
 11 29  1  0  0  0  0
 12 14  1  0  0  0  0
 13 30  1  0  0  0  0
 13 31  1  0  0  0  0
 13 32  1  0  0  0  0
 14 33  1  0  0  0  0
 15 17  1  0  0  0  0
 15 34  1  0  0  0  0
 16 18  2  0  0  0  0
 16 35  1  0  0  0  0
 17 19  2  0  0  0  0
 18 19  1  0  0  0  0
 18 36  1  0  0  0  0
 20 37  1  0  0  0  0
 20 38  1  0  0  0  0
 20 39  1  0  0  0  0
 21 40  1  0  0  0  0
 21 41  1  0  0  0  0
 21 42  1  0  0  0  0
M  END
> <PUBCHEM_COMPOUND_CID>
216272

> <PUBCHEM_COMPOUND_CANONICALIZED>
1

> <PUBCHEM_CACTVS_COMPLEXITY>
436

> <PUBCHEM_CACTVS_HBOND_ACCEPTOR>
4

> <PUBCHEM_CACTVS_HBOND_DONOR>
0

> <PUBCHEM_CACTVS_ROTATABLE_BOND>
3

> <PUBCHEM_CACTVS_SUBSKEYS>
AAADceB6MAAAAAAAAAAAAAAAAAAAAWAAAAAwQAAAAAAAAEABAAAAHgAAAAAADizBmAYyBoMABACIAqBSAAACCAAgIAAIiAEOiMgNJjqEsRuEMCIkwBGKqYeY2POPoAABAAAAQABAAAIAAACAAAAAAAAAAA==

> <PUBCHEM_IUPAC_OPENEYE_NAME>
(3aR,7aS)-3a-(3,4-dimethoxyphenyl)-1-methyl-2,3,7,7a-tetrahydroindol-6-one

> <PUBCHEM_IUPAC_CAS_NAME>
(3aR,7aS)-3a-(3,4-dimethoxyphenyl)-1-methyl-2,3,7,7a-tetrahydroindol-6-one

> <PUBCHEM_IUPAC_NAME>
(3aR,7aS)-3a-(3,4-dimethoxyphenyl)-1-methyl-2,3,7,7a-tetrahydroindol-6-one

> <PUBCHEM_IUPAC_SYSTEMATIC_NAME>
(3aR,7aS)-3a-(3,4-dimethoxyphenyl)-1-methyl-2,3,7,7a-tetrahydroindol-6-one

> <PUBCHEM_IUPAC_TRADITIONAL_NAME>
(3aR,7aS)-3a-(3,4-dimethoxyphenyl)-1-methyl-2,3,7,7a-tetrahydroindol-6-one

> <PUBCHEM_IUPAC_INCHI>
InChI=1S/C17H21NO3/c1-18-9-8-17(7-6-13(19)11-16(17)18)12-4-5-14(20-2)15(10-12)21-3/h4-7,10,16H,8-9,11H2,1-3H3/t16-,17-/m0/s1

> <PUBCHEM_IUPAC_INCHIKEY>
HDNHBCSWFYFPAN-IRXDYDNUSA-N

> <PUBCHEM_XLOGP3_AA>
2.2

> <PUBCHEM_EXACT_MASS>
287.152144

> <PUBCHEM_MOLECULAR_FORMULA>
C17H21NO3

> <PUBCHEM_MOLECULAR_WEIGHT>
287.35354

> <PUBCHEM_OPENEYE_CAN_SMILES>
CN1CCC2(C1CC(=O)C=C2)C3=CC(=C(C=C3)OC)OC

> <PUBCHEM_OPENEYE_ISO_SMILES>
CN1CC[C@]2([C@@H]1CC(=O)C=C2)C3=CC(=C(C=C3)OC)OC

> <PUBCHEM_CACTVS_TPSA>
38.8

> <PUBCHEM_MONOISOTOPIC_WEIGHT>
287.152144

> <PUBCHEM_TOTAL_CHARGE>
0

> <PUBCHEM_HEAVY_ATOM_COUNT>
21

> <PUBCHEM_ATOM_DEF_STEREO_COUNT>
2

> <PUBCHEM_ATOM_UDEF_STEREO_COUNT>
0

> <PUBCHEM_BOND_DEF_STEREO_COUNT>
0

> <PUBCHEM_BOND_UDEF_STEREO_COUNT>
0

> <PUBCHEM_ISOTOPIC_ATOM_COUNT>
0

> <PUBCHEM_COMPONENT_COUNT>
1

> <PUBCHEM_CACTVS_TAUTO_COUNT>
2

> <PUBCHEM_COORDINATE_TYPE>
1
5
255

> <PUBCHEM_BONDANNOTATIONS>
10  15  8
10  16  8
15  17  8
16  18  8
17  19  8
18  19  8
5  10  6
6  22  6

$$$$

