11954127
  -OEChem-07051213072D

 22 24  0     0  0  0  0  0  0999 V2000
    6.8498    1.3934    0.0000 Cl  0  0  0  0  0  0  0  0  0  0  0  0
    8.2320   -0.1182    0.0000 Cl  0  0  0  0  0  0  0  0  0  0  0  0
    4.7273    0.7943    0.0000 O   0  0  0  0  0  0  0  0  0  0  0  0
    2.6049    1.3934    0.0000 O   0  0  0  0  0  0  0  0  0  0  0  0
    5.2273   -0.7445    0.0000 C   0  0  0  0  0  0  0  0  0  0  0  0
    4.2273   -0.7445    0.0000 C   0  0  0  0  0  0  0  0  0  0  0  0
    3.9183    0.2065    0.0000 C   0  0  0  0  0  0  0  0  0  0  0  0
    5.5364    0.2065    0.0000 C   0  0  0  0  0  0  0  0  0  0  0  0
    5.9123   -1.5293    0.0000 C   0  0  0  0  0  0  0  0  0  0  0  0
    3.5424   -1.5293    0.0000 C   0  0  0  0  0  0  0  0  0  0  0  0
    2.9029    0.4388    0.0000 C   0  0  0  0  0  0  0  0  0  0  0  0
    6.5518    0.4388    0.0000 C   0  0  0  0  0  0  0  0  0  0  0  0
    6.9328   -1.3205    0.0000 C   0  0  0  0  0  0  0  0  0  0  0  0
    2.5219   -1.3205    0.0000 C   0  0  0  0  0  0  0  0  0  0  0  0
    7.2547   -0.3299    0.0000 C   0  0  0  0  0  0  0  0  0  0  0  0
    2.2000   -0.3299    0.0000 C   0  0  0  0  0  0  0  0  0  0  0  0
    5.7139   -2.1167    0.0000 H   0  0  0  0  0  0  0  0  0  0  0  0
    3.7408   -2.1167    0.0000 H   0  0  0  0  0  0  0  0  0  0  0  0
    7.3459   -1.7829    0.0000 H   0  0  0  0  0  0  0  0  0  0  0  0
    2.1088   -1.7829    0.0000 H   0  0  0  0  0  0  0  0  0  0  0  0
    1.5940   -0.1987    0.0000 H   0  0  0  0  0  0  0  0  0  0  0  0
    2.0000    1.5293    0.0000 H   0  0  0  0  0  0  0  0  0  0  0  0
  1 12  1  0  0  0  0
  2 15  1  0  0  0  0
  3  7  1  0  0  0  0
  3  8  1  0  0  0  0
  4 11  1  0  0  0  0
  4 22  1  0  0  0  0
  5  6  1  0  0  0  0
  5  8  2  0  0  0  0
  5  9  1  0  0  0  0
  6  7  2  0  0  0  0
  6 10  1  0  0  0  0
  7 11  1  0  0  0  0
  8 12  1  0  0  0  0
  9 13  2  0  0  0  0
  9 17  1  0  0  0  0
 10 14  2  0  0  0  0
 10 18  1  0  0  0  0
 11 16  2  0  0  0  0
 12 15  2  0  0  0  0
 13 15  1  0  0  0  0
 13 19  1  0  0  0  0
 14 16  1  0  0  0  0
 14 20  1  0  0  0  0
 16 21  1  0  0  0  0
M  END
> <PUBCHEM_COMPOUND_CID>
11954127

> <PUBCHEM_COMPOUND_CANONICALIZED>
1

> <PUBCHEM_CACTVS_COMPLEXITY>
274

> <PUBCHEM_CACTVS_HBOND_ACCEPTOR>
2

> <PUBCHEM_CACTVS_HBOND_DONOR>
1

> <PUBCHEM_CACTVS_ROTATABLE_BOND>
0

> <PUBCHEM_CACTVS_SUBSKEYS>
AAADcYBwMAAGAAAAAAAAAAAAAAAAASAAAAAwYAAAAAAAAEgB/AAAGgIACAAADAaAmCAwBsAABkCIAqBSAAICCAAkJUAIikFGi8hNJjOHNxqCeSOkwBELvYeI7PTOhAABIQAISAQIAAJCABCQCAAAAAAAAA==

> <PUBCHEM_IUPAC_OPENEYE_NAME>
6,7-dichlorodibenzofuran-4-ol

> <PUBCHEM_IUPAC_CAS_NAME>
6,7-dichloro-4-dibenzofuranol

> <PUBCHEM_IUPAC_NAME>
6,7-dichlorodibenzofuran-4-ol

> <PUBCHEM_IUPAC_SYSTEMATIC_NAME>
6,7-bis(chloranyl)dibenzofuran-4-ol

> <PUBCHEM_IUPAC_TRADITIONAL_NAME>
6,7-dichlorodibenzofuran-4-ol

> <PUBCHEM_IUPAC_INCHI>
InChI=1S/C12H6Cl2O2/c13-8-5-4-7-6-2-1-3-9(15)11(6)16-12(7)10(8)14/h1-5,15H

> <PUBCHEM_IUPAC_INCHIKEY>
DJNLKKVISQXLCZ-UHFFFAOYSA-N

> <PUBCHEM_XLOGP3>
4.6

> <PUBCHEM_EXACT_MASS>
251.974485

> <PUBCHEM_MOLECULAR_FORMULA>
C12H6Cl2O2

> <PUBCHEM_MOLECULAR_WEIGHT>
253.08084

> <PUBCHEM_OPENEYE_CAN_SMILES>
C1=CC2=C(C(=C1)O)OC3=C2C=CC(=C3Cl)Cl

> <PUBCHEM_OPENEYE_ISO_SMILES>
C1=CC2=C(C(=C1)O)OC3=C2C=CC(=C3Cl)Cl

> <PUBCHEM_CACTVS_TPSA>
33.4

> <PUBCHEM_MONOISOTOPIC_WEIGHT>
251.974485

> <PUBCHEM_TOTAL_CHARGE>
0

> <PUBCHEM_HEAVY_ATOM_COUNT>
16

> <PUBCHEM_ATOM_DEF_STEREO_COUNT>
0

> <PUBCHEM_ATOM_UDEF_STEREO_COUNT>
0

> <PUBCHEM_BOND_DEF_STEREO_COUNT>
0

> <PUBCHEM_BOND_UDEF_STEREO_COUNT>
0

> <PUBCHEM_ISOTOPIC_ATOM_COUNT>
0

> <PUBCHEM_COMPONENT_COUNT>
1

> <PUBCHEM_CACTVS_TAUTO_COUNT>
2

> <PUBCHEM_COORDINATE_TYPE>
1
5
255

> <PUBCHEM_BONDANNOTATIONS>
10  14  8
11  16  8
12  15  8
13  15  8
14  16  8
3  7  8
3  8  8
5  6  8
5  8  8
5  9  8
6  10  8
6  7  8
7  11  8
8  12  8
9  13  8

$$$$

