   Color/Form

     * Fine needles from ethyl acetate + petroleum ether
     * Crystals from methanol (aq)

   from [1]HSDB

   Melting Point
        151-153 deg C
   from [2]HSDB

   Octanol/Water Partition Coefficient
        log Kow = -0.71 /Estimated/
   from [3]HSDB

   Solubilities
        In water, 5.5X10+4 mg/L @ 25 deg C /Estimated/
   from [4]HSDB

   Spectral Properties

     * Specific optical rotation = +6.35 deg @ 25 deg C/D ( c= 0.07 in
       ethanol).
     * UV max (ethanol): 218 nm (epsilon 4500)

   from [5]HSDB

   Vapor Pressure
        6.8X10-11 mm Hg @ 25 deg C /Estimated/
   from [6]HSDB

   Other Chemical/Physical Properties

     * Henry's Law constant = 2.01X10-14 atm-cu m/mole @ 25 deg C
       /Estimated/
     * Hydroxyl radical reaction rate constant = 1.4X10-10 cu
       cm/molecule-sec @ 25 deg C /Estimated/
     * Colorless, mostly crystalline solids that have been well
       characterized by physical and spectroscopic techniques. ... require
       higher polarity solvents, such as aqueous methanol or aqueous
       acetonitrile. /Trichothecenes/
     * The trichothecenes are generally stable; for example,
       deoxynivalenol (DON) can be stored in organic solvents, such as
       ethyl acetate, for a long time without any significant. They remain
       unaffected when refluxed with various organic solvents and also
       under mildly acidic conditions. /Trichothecenes/

   from [7]HSDB

   Computed Properties
   Molecular Weight                  296.3157 [g/mol]
   Molecular Formula                 C[15]H[20]O[6]
   XLogP3-AA                         -0.7
   H-Bond Donor                      3
   H-Bond Acceptor                   6
   Rotatable Bond Count              1
   Tautomer Count                    8
   Exact Mass                        296.125988
   MonoIsotopic Mass                 296.125988
   Topological Polar Surface Area    99.5
   Heavy Atom Count                  21
   Formal Charge                     0
   Complexity                        558
   Isotope Atom Count                0
   Defined Atom Stereocenter Count   7
   Undefined Atom Stereocenter Count 0
   Defined Bond Stereocenter Count   0
   Undefined Bond Stereocenter Count 0
   Covalently-Bonded Unit Count      1
   Feature 3D Acceptor Count         6
   Feature 3D Donor Count            3
   Feature 3D Ring Count             2
   Effective Rotor Count             2.2
   Conformer Sampling RMSD           0.6
   CID Conformer Count               [8]1

References

   1. http://toxnet.nlm.nih.gov/cgi-bin/sis/search/r?dbs+hsdb:@term+@rn+@rel+51481-10-8
   2. http://toxnet.nlm.nih.gov/cgi-bin/sis/search/r?dbs+hsdb:@term+@rn+@rel+51481-10-8
   3. http://toxnet.nlm.nih.gov/cgi-bin/sis/search/r?dbs+hsdb:@term+@rn+@rel+51481-10-8
   4. http://toxnet.nlm.nih.gov/cgi-bin/sis/search/r?dbs+hsdb:@term+@rn+@rel+51481-10-8
   5. http://toxnet.nlm.nih.gov/cgi-bin/sis/search/r?dbs+hsdb:@term+@rn+@rel+51481-10-8
   6. http://toxnet.nlm.nih.gov/cgi-bin/sis/search/r?dbs+hsdb:@term+@rn+@rel+51481-10-8
   7. http://toxnet.nlm.nih.gov/cgi-bin/sis/search/r?dbs+hsdb:@term+@rn+@rel+51481-10-8
   8. http://pubchem.ncbi.nlm.nih.gov/vw3d/vw3d.cgi?cid=442408
