13123
  -OEChem-06261207472D

 58 58  0     1  0  0  0  0  0999 V2000
    7.4040    3.1200    0.0000 F   0  0  0  0  0  0  0  0  0  0  0  0
    7.7700    1.7540    0.0000 F   0  0  0  0  0  0  0  0  0  0  0  0
    8.7700    3.4860    0.0000 F   0  0  0  0  0  0  0  0  0  0  0  0
    9.1360    4.1200    0.0000 O   0  0  0  0  0  0  0  0  0  0  0  0
    8.2700    6.6200    0.0000 O   0  0  0  0  0  0  0  0  0  0  0  0
    0.5369    5.2615    0.0000 O   0  0  0  0  0  0  0  0  0  0  0  0
    1.4030    3.7615    0.0000 O   0  0  0  0  0  0  0  0  0  0  0  0
    3.1350    4.7615    0.0000 O   0  5  0  0  0  0  0  0  0  0  0  0
    2.2690    6.2615    0.0000 O   0  0  0  0  0  0  0  0  0  0  0  0
    6.5380    8.6200    0.0000 N   0  3  0  0  0  0  0  0  0  0  0  0
    7.4040    8.1200    0.0000 C   0  0  0  0  0  0  0  0  0  0  0  0
   10.0021    3.6200    0.0000 C   0  0  3  0  0  0  0  0  0  0  0  0
   10.0021    2.6200    0.0000 C   0  0  0  0  0  0  0  0  0  0  0  0
    7.4040    7.1200    0.0000 C   0  0  0  0  0  0  0  0  0  0  0  0
   10.8681    4.1200    0.0000 C   0  0  0  0  0  0  0  0  0  0  0  0
    5.6720    9.1200    0.0000 C   0  0  0  0  0  0  0  0  0  0  0  0
    7.0380    9.4860    0.0000 C   0  0  0  0  0  0  0  0  0  0  0  0
    9.1360    5.1200    0.0000 C   0  0  0  0  0  0  0  0  0  0  0  0
    8.2700    5.6200    0.0000 C   0  0  0  0  0  0  0  0  0  0  0  0
    9.1360    2.1200    0.0000 C   0  0  0  0  0  0  0  0  0  0  0  0
   10.8681    2.1200    0.0000 C   0  0  0  0  0  0  0  0  0  0  0  0
   11.7341    3.6200    0.0000 C   0  0  0  0  0  0  0  0  0  0  0  0
   10.8681    5.1200    0.0000 C   0  0  0  0  0  0  0  0  0  0  0  0
    9.1360    1.1200    0.0000 C   0  0  0  0  0  0  0  0  0  0  0  0
    8.2700    2.6200    0.0000 C   0  0  0  0  0  0  0  0  0  0  0  0
   10.8681    1.1200    0.0000 C   0  0  0  0  0  0  0  0  0  0  0  0
   10.0021    0.6200    0.0000 C   0  0  0  0  0  0  0  0  0  0  0  0
   12.6002    4.1200    0.0000 C   0  0  0  0  0  0  0  0  0  0  0  0
   11.7341    5.6200    0.0000 C   0  0  0  0  0  0  0  0  0  0  0  0
   12.6002    5.1200    0.0000 C   0  0  0  0  0  0  0  0  0  0  0  0
    1.4030    4.7615    0.0000 C   0  0  0  0  0  0  0  0  0  0  0  0
    2.2690    5.2615    0.0000 C   0  0  0  0  0  0  0  0  0  0  0  0
    6.2280    8.0831    0.0000 H   0  0  0  0  0  0  0  0  0  0  0  0
    8.0146    8.0123    0.0000 H   0  0  0  0  0  0  0  0  0  0  0  0
    7.6160    8.7026    0.0000 H   0  0  0  0  0  0  0  0  0  0  0  0
    9.4651    3.3100    0.0000 H   0  0  0  0  0  0  0  0  0  0  0  0
    6.7934    7.2277    0.0000 H   0  0  0  0  0  0  0  0  0  0  0  0
    7.1920    6.5374    0.0000 H   0  0  0  0  0  0  0  0  0  0  0  0
    5.9820    9.6569    0.0000 H   0  0  0  0  0  0  0  0  0  0  0  0
    7.5749    9.1760    0.0000 H   0  0  0  0  0  0  0  0  0  0  0  0
    7.3480   10.0230    0.0000 H   0  0  0  0  0  0  0  0  0  0  0  0
    6.5010    9.7960    0.0000 H   0  0  0  0  0  0  0  0  0  0  0  0
    5.1350    9.4300    0.0000 H   0  0  0  0  0  0  0  0  0  0  0  0
    5.3620    8.5831    0.0000 H   0  0  0  0  0  0  0  0  0  0  0  0
    9.7466    5.0123    0.0000 H   0  0  0  0  0  0  0  0  0  0  0  0
    9.3481    5.7026    0.0000 H   0  0  0  0  0  0  0  0  0  0  0  0
    7.6594    5.7277    0.0000 H   0  0  0  0  0  0  0  0  0  0  0  0
    8.0580    5.0374    0.0000 H   0  0  0  0  0  0  0  0  0  0  0  0
   11.4050    2.4300    0.0000 H   0  0  0  0  0  0  0  0  0  0  0  0
   11.7341    3.0000    0.0000 H   0  0  0  0  0  0  0  0  0  0  0  0
   10.3312    5.4300    0.0000 H   0  0  0  0  0  0  0  0  0  0  0  0
    8.5991    0.8100    0.0000 H   0  0  0  0  0  0  0  0  0  0  0  0
   11.4050    0.8100    0.0000 H   0  0  0  0  0  0  0  0  0  0  0  0
   10.0021    0.0000    0.0000 H   0  0  0  0  0  0  0  0  0  0  0  0
   13.1371    3.8100    0.0000 H   0  0  0  0  0  0  0  0  0  0  0  0
   11.7341    6.2400    0.0000 H   0  0  0  0  0  0  0  0  0  0  0  0
   13.1371    5.4300    0.0000 H   0  0  0  0  0  0  0  0  0  0  0  0
    0.0000    4.9515    0.0000 H   0  0  0  0  0  0  0  0  0  0  0  0
  1 25  1  0  0  0  0
  2 25  1  0  0  0  0
  3 25  1  0  0  0  0
  4 12  1  0  0  0  0
  4 18  1  0  0  0  0
  5 14  1  0  0  0  0
  5 19  1  0  0  0  0
  6 31  1  0  0  0  0
  6 58  1  0  0  0  0
  7 31  2  0  0  0  0
  8 32  1  0  0  0  0
  9 32  2  0  0  0  0
 10 11  1  0  0  0  0
 10 16  1  0  0  0  0
 10 17  1  0  0  0  0
 10 33  1  0  0  0  0
 11 14  1  0  0  0  0
 11 34  1  0  0  0  0
 11 35  1  0  0  0  0
 12 13  1  0  0  0  0
 12 15  1  0  0  0  0
 12 36  1  0  0  0  0
 13 20  1  0  0  0  0
 13 21  2  0  0  0  0
 14 37  1  0  0  0  0
 14 38  1  0  0  0  0
 15 22  2  0  0  0  0
 15 23  1  0  0  0  0
 16 39  1  0  0  0  0
 16 43  1  0  0  0  0
 16 44  1  0  0  0  0
 17 40  1  0  0  0  0
 17 41  1  0  0  0  0
 17 42  1  0  0  0  0
 18 19  1  0  0  0  0
 18 45  1  0  0  0  0
 18 46  1  0  0  0  0
 19 47  1  0  0  0  0
 19 48  1  0  0  0  0
 20 24  2  0  0  0  0
 20 25  1  0  0  0  0
 21 26  1  0  0  0  0
 21 49  1  0  0  0  0
 22 28  1  0  0  0  0
 22 50  1  0  0  0  0
 23 29  2  0  0  0  0
 23 51  1  0  0  0  0
 24 27  1  0  0  0  0
 24 52  1  0  0  0  0
 26 27  2  0  0  0  0
 26 53  1  0  0  0  0
 27 54  1  0  0  0  0
 28 30  2  0  0  0  0
 28 55  1  0  0  0  0
 29 30  1  0  0  0  0
 29 56  1  0  0  0  0
 30 57  1  0  0  0  0
 31 32  1  0  0  0  0
M  CHG  2   8  -1  10   1
M  END
> <PUBCHEM_COMPOUND_CID>
13123

> <PUBCHEM_COMPOUND_CANONICALIZED>
1

> <PUBCHEM_CACTVS_COMPLEXITY>
462

> <PUBCHEM_CACTVS_HBOND_ACCEPTOR>
9

> <PUBCHEM_CACTVS_HBOND_DONOR>
2

> <PUBCHEM_CACTVS_ROTATABLE_BOND>
9

> <PUBCHEM_CACTVS_SUBSKEYS>
AAADceB6OYAAAAAAAAAAAAAAAAAAAAAAAAAwYAAAAAAAAAABQAAAHwAQCAAADBThmBYyCIPABgCIAiDSCAICAAAgAAAIiIBICIgLJiKAMRiDMAAk0AEbqAeAwOAOgAAAAAAQAAAAAAAAACAAAAAAAAAAAA==

> <PUBCHEM_IUPAC_OPENEYE_NAME>
dimethyl-[2-[2-[phenyl-[2-(trifluoromethyl)phenyl]methoxy]ethoxy]ethyl]ammonium; 2-hydroxy-2-oxo-acetate

> <PUBCHEM_IUPAC_CAS_NAME>
dimethyl-[2-[2-[phenyl-[2-(trifluoromethyl)phenyl]methoxy]ethoxy]ethyl]ammonium; 2-hydroxy-2-oxoacetate

> <PUBCHEM_IUPAC_NAME>
dimethyl-[2-[2-[phenyl-[2-(trifluoromethyl)phenyl]methoxy]ethoxy]ethyl]azanium; 2-hydroxy-2-oxoacetate

> <PUBCHEM_IUPAC_SYSTEMATIC_NAME>
dimethyl-[2-[2-[phenyl-[2-(trifluoromethyl)phenyl]methoxy]ethoxy]ethyl]azanium; 2-oxidanyl-2-oxidanylidene-ethanoate

> <PUBCHEM_IUPAC_TRADITIONAL_NAME>
dimethyl-[2-[2-[phenyl-[2-(trifluoromethyl)phenyl]methoxy]ethoxy]ethyl]ammonium binoxalate

> <PUBCHEM_IUPAC_INCHI>
InChI=1S/C20H24F3NO2.C2H2O4/c1-24(2)12-13-25-14-15-26-19(16-8-4-3-5-9-16)17-10-6-7-11-18(17)20(21,22)23;3-1(4)2(5)6/h3-11,19H,12-15H2,1-2H3;(H,3,4)(H,5,6)

> <PUBCHEM_IUPAC_INCHIKEY>
CSDQSEVMIRYODQ-UHFFFAOYSA-N

> <PUBCHEM_EXACT_MASS>
457.171222

> <PUBCHEM_MOLECULAR_FORMULA>
C22H26F3NO6

> <PUBCHEM_MOLECULAR_WEIGHT>
457.44015

> <PUBCHEM_OPENEYE_CAN_SMILES>
C[NH+](C)CCOCCOC(C1=CC=CC=C1)C2=CC=CC=C2C(F)(F)F.C(=O)(C(=O)[O-])O

> <PUBCHEM_OPENEYE_ISO_SMILES>
C[NH+](C)CCOCCOC(C1=CC=CC=C1)C2=CC=CC=C2C(F)(F)F.C(=O)(C(=O)[O-])O

> <PUBCHEM_CACTVS_TPSA>
100

> <PUBCHEM_MONOISOTOPIC_WEIGHT>
457.171222

> <PUBCHEM_TOTAL_CHARGE>
0

> <PUBCHEM_HEAVY_ATOM_COUNT>
32

> <PUBCHEM_ATOM_DEF_STEREO_COUNT>
0

> <PUBCHEM_ATOM_UDEF_STEREO_COUNT>
1

> <PUBCHEM_BOND_DEF_STEREO_COUNT>
0

> <PUBCHEM_BOND_UDEF_STEREO_COUNT>
0

> <PUBCHEM_ISOTOPIC_ATOM_COUNT>
0

> <PUBCHEM_COMPONENT_COUNT>
2

> <PUBCHEM_CACTVS_TAUTO_COUNT>
1

> <PUBCHEM_COORDINATE_TYPE>
1
5
255

> <PUBCHEM_BONDANNOTATIONS>
13  20  8
13  21  8
15  22  8
15  23  8
20  24  8
21  26  8
22  28  8
23  29  8
24  27  8
26  27  8
28  30  8
29  30  8
12  4  3

$$$$

