   Color/Form

     * SILKY, TETRAGONAL NEEDLES FROM EVAPORATING ALCOHOL
     * WHITE CRYSTALLINE POWDER

   from [1]HSDB

   Melting Point
        108.5 DEG C
   from [2]HSDB

   Dissociation Constants
        K= 1.9X10-12 AT 19 DEG C
   from [3]HSDB

   Solubilities
        1 G DISSOLVES IN 281 ML OF WATER (PH 9.5), 69 ML OF ETHER, 150 ML
   OF BENZENE, 1 ML OF CHLOROFORM; FREELY SOL IN ALCOHOL, DIL ACIDS
   from [4]HSDB

   Spectral Properties

     * MAX ABSORPTION (METHANOL): 252 NM (LOG E= 2.24), 258 NM (LOG E=
       2.30), 264 NM (LOG E= 2.20)
     * SPECIFIC OPTICAL ROTATION (ALCOHOL): -21.0 DEG AT 20 DEG C/D
     * IR: 5665 (Documentation of Molecular Spectroscopy Collection)
     * MASS: 2139 (National Bureau of Standards EPA-NIH Mass Spectra Data
       Base, NSRDS-NBS-63)
     * Intense mass spectral peaks: 83 m/z, 94 m/z, 124 m/z, 140 m/z, 289
       m/z

   from [5]HSDB

   Other Chemical/Physical Properties

     * EASILY RACEMIZED
     * IR: 5666 (Documentation of Molecular Spectroscopy Collection)
       /Hyoscyamine, hydrobromide (l)/
     * MASS: 2139 (National Bureau of Standards EPA-NIH Mass Spectra Data
       Base, NSRDS-NBS-63) /Hyoscyamine, hydrobromide (l)/
     * IR: 7533 (Sadtler Research Laboratories Prism Collection)
       /Hyoscyamine, hydrochloride (l)/
     * MASS: 2139 (National Bureau of Standards EPA-NIH Mass Spectra Data
       Base, NSRDS-NBS-63) /Hyoscyamine, hydrochloride (l)/

   from [6]HSDB

   Computed Properties
   Molecular Weight                  289.36942 [g/mol]
   Molecular Formula                 C[17]H[23]NO[3]
   XLogP3                            1.8
   H-Bond Donor                      1
   H-Bond Acceptor                   4
   Rotatable Bond Count              5
   Exact Mass                        289.167794
   MonoIsotopic Mass                 289.167794
   Topological Polar Surface Area    49.8
   Heavy Atom Count                  21
   Formal Charge                     0
   Complexity                        353
   Isotope Atom Count                0
   Defined Atom Stereocenter Count   3
   Undefined Atom Stereocenter Count 0
   Defined Bond Stereocenter Count   0
   Undefined Bond Stereocenter Count 0
   Covalently-Bonded Unit Count      1
   Feature 3D Acceptor Count         2
   Feature 3D Donor Count            1
   Feature 3D Cation Count           1
   Feature 3D Ring Count             2
   Effective Rotor Count             6.2
   Conformer Sampling RMSD           0.8
   CID Conformer Count               [7]71

References

   1. http://toxnet.nlm.nih.gov/cgi-bin/sis/search/r?dbs+hsdb:@term+@rn+@rel+101-31-5
   2. http://toxnet.nlm.nih.gov/cgi-bin/sis/search/r?dbs+hsdb:@term+@rn+@rel+101-31-5
   3. http://toxnet.nlm.nih.gov/cgi-bin/sis/search/r?dbs+hsdb:@term+@rn+@rel+101-31-5
   4. http://toxnet.nlm.nih.gov/cgi-bin/sis/search/r?dbs+hsdb:@term+@rn+@rel+101-31-5
   5. http://toxnet.nlm.nih.gov/cgi-bin/sis/search/r?dbs+hsdb:@term+@rn+@rel+101-31-5
   6. http://toxnet.nlm.nih.gov/cgi-bin/sis/search/r?dbs+hsdb:@term+@rn+@rel+101-31-5
   7. http://pubchem.ncbi.nlm.nih.gov/vw3d/vw3d.cgi?cid=154417
