49787033
  -OEChem-07051213112D

 73 73  0     1  0  0  0  0  0999 V2000
    8.9562   -6.2694    0.0000 Cl  0  0  0  0  0  0  0  0  0  0  0  0
    2.0280    3.7306    0.0000 O   0  0  0  0  0  0  0  0  0  0  0  0
    2.0000    7.0094    0.0000 O   0  0  0  0  0  0  0  0  0  0  0  0
    3.7601    0.7306    0.0000 O   0  0  0  0  0  0  0  0  0  0  0  0
    4.6261    5.2306    0.0000 O   0  0  0  0  0  0  0  0  0  0  0  0
    3.7601    6.7306    0.0000 N   0  0  0  0  0  0  0  0  0  0  0  0
    4.6261    2.2306    0.0000 N   0  0  0  0  0  0  0  0  0  0  0  0
    7.2242   -2.2694    0.0000 C   0  0  3  0  0  0  0  0  0  0  0  0
    7.2242   -3.2694    0.0000 C   0  0  0  0  0  0  0  0  0  0  0  0
    8.0902   -3.7694    0.0000 C   0  0  0  0  0  0  0  0  0  0  0  0
    8.0902   -4.7694    0.0000 C   0  0  0  0  0  0  0  0  0  0  0  0
    7.2242   -5.2694    0.0000 C   0  0  0  0  0  0  0  0  0  0  0  0
    8.0902   -1.7694    0.0000 C   0  0  0  0  0  0  0  0  0  0  0  0
    6.3582   -1.7694    0.0000 C   0  0  0  0  0  0  0  0  0  0  0  0
    7.2242   -6.2694    0.0000 C   0  0  0  0  0  0  0  0  0  0  0  0
    6.3582   -0.7694    0.0000 C   0  0  0  0  0  0  0  0  0  0  0  0
    5.4921   -0.2694    0.0000 C   0  0  0  0  0  0  0  0  0  0  0  0
    4.5691    7.3184    0.0000 C   0  0  2  0  0  0  0  0  0  0  0  0
    6.3582   -6.7694    0.0000 C   0  0  0  0  0  0  0  0  0  0  0  0
    8.9562   -5.2694    0.0000 C   0  0  0  0  0  0  0  0  0  0  0  0
    5.4921    0.7306    0.0000 C   0  0  0  0  0  0  0  0  0  0  0  0
    4.2601    8.2694    0.0000 C   0  0  0  0  0  0  0  0  0  0  0  0
    5.5202    7.0094    0.0000 C   0  0  0  0  0  0  0  0  0  0  0  0
    2.9511    7.3184    0.0000 C   0  0  0  0  0  0  0  0  0  0  0  0
    4.6261    1.2306    0.0000 C   0  0  0  0  0  0  0  0  0  0  0  0
    3.7601    2.7306    0.0000 C   0  0  0  0  0  0  0  0  0  0  0  0
    3.7601    3.7306    0.0000 C   0  0  0  0  0  0  0  0  0  0  0  0
    3.2601    8.2694    0.0000 C   0  0  0  0  0  0  0  0  0  0  0  0
    3.7601    5.7306    0.0000 C   0  0  0  0  0  0  0  0  0  0  0  0
    6.3582   -7.7694    0.0000 C   0  0  0  0  0  0  0  0  0  0  0  0
    2.8940    4.2306    0.0000 C   0  0  0  0  0  0  0  0  0  0  0  0
    2.8940    5.2306    0.0000 C   0  0  0  0  0  0  0  0  0  0  0  0
    5.4921   -8.2694    0.0000 C   0  0  0  0  0  0  0  0  0  0  0  0
    2.0280    2.7306    0.0000 C   0  0  0  0  0  0  0  0  0  0  0  0
    7.2242   -1.6494    0.0000 H   0  0  0  0  0  0  0  0  0  0  0  0
    6.6136   -3.1618    0.0000 H   0  0  0  0  0  0  0  0  0  0  0  0
    7.0121   -3.8520    0.0000 H   0  0  0  0  0  0  0  0  0  0  0  0
    8.7008   -3.8771    0.0000 H   0  0  0  0  0  0  0  0  0  0  0  0
    8.3023   -3.1868    0.0000 H   0  0  0  0  0  0  0  0  0  0  0  0
    7.0121   -4.6868    0.0000 H   0  0  0  0  0  0  0  0  0  0  0  0
    6.6136   -5.3771    0.0000 H   0  0  0  0  0  0  0  0  0  0  0  0
    8.4002   -2.3064    0.0000 H   0  0  0  0  0  0  0  0  0  0  0  0
    8.6271   -1.4594    0.0000 H   0  0  0  0  0  0  0  0  0  0  0  0
    7.7802   -1.2325    0.0000 H   0  0  0  0  0  0  0  0  0  0  0  0
    5.8212   -2.0794    0.0000 H   0  0  0  0  0  0  0  0  0  0  0  0
    7.4362   -6.8520    0.0000 H   0  0  0  0  0  0  0  0  0  0  0  0
    7.8348   -6.1618    0.0000 H   0  0  0  0  0  0  0  0  0  0  0  0
    6.8951   -0.4594    0.0000 H   0  0  0  0  0  0  0  0  0  0  0  0
    4.8815   -0.1618    0.0000 H   0  0  0  0  0  0  0  0  0  0  0  0
    5.2801   -0.8520    0.0000 H   0  0  0  0  0  0  0  0  0  0  0  0
    4.6661    6.7060    0.0000 H   0  0  0  0  0  0  0  0  0  0  0  0
    6.1461   -6.1868    0.0000 H   0  0  0  0  0  0  0  0  0  0  0  0
    5.7476   -6.8771    0.0000 H   0  0  0  0  0  0  0  0  0  0  0  0
    9.4932   -4.9594    0.0000 H   0  0  0  0  0  0  0  0  0  0  0  0
    6.1027    0.6229    0.0000 H   0  0  0  0  0  0  0  0  0  0  0  0
    5.7042    1.3132    0.0000 H   0  0  0  0  0  0  0  0  0  0  0  0
    4.6245    8.7710    0.0000 H   0  0  0  0  0  0  0  0  0  0  0  0
    5.3286    6.4197    0.0000 H   0  0  0  0  0  0  0  0  0  0  0  0
    6.1098    6.8178    0.0000 H   0  0  0  0  0  0  0  0  0  0  0  0
    5.7117    7.5990    0.0000 H   0  0  0  0  0  0  0  0  0  0  0  0
    3.1495    2.8382    0.0000 H   0  0  0  0  0  0  0  0  0  0  0  0
    3.5480    2.1480    0.0000 H   0  0  0  0  0  0  0  0  0  0  0  0
    4.3707    3.6229    0.0000 H   0  0  0  0  0  0  0  0  0  0  0  0
    3.9721    4.3132    0.0000 H   0  0  0  0  0  0  0  0  0  0  0  0
    2.8956    8.7710    0.0000 H   0  0  0  0  0  0  0  0  0  0  0  0
    6.8951   -8.0794    0.0000 H   0  0  0  0  0  0  0  0  0  0  0  0
    5.1630    2.5406    0.0000 H   0  0  0  0  0  0  0  0  0  0  0  0
    2.3571    5.5406    0.0000 H   0  0  0  0  0  0  0  0  0  0  0  0
    4.9552   -7.9594    0.0000 H   0  0  0  0  0  0  0  0  0  0  0  0
    5.4921   -8.8894    0.0000 H   0  0  0  0  0  0  0  0  0  0  0  0
    1.4080    2.7306    0.0000 H   0  0  0  0  0  0  0  0  0  0  0  0
    2.0280    2.1106    0.0000 H   0  0  0  0  0  0  0  0  0  0  0  0
    2.6480    2.7306    0.0000 H   0  0  0  0  0  0  0  0  0  0  0  0
  1 20  1  0  0  0  0
  2 31  1  0  0  0  0
  2 34  1  0  0  0  0
  3 24  2  0  0  0  0
  4 25  2  0  0  0  0
  5 29  2  0  0  0  0
  6 18  1  0  0  0  0
  6 24  1  0  0  0  0
  6 29  1  0  0  0  0
  7 25  1  0  0  0  0
  7 26  1  0  0  0  0
  7 67  1  0  0  0  0
  8  9  1  0  0  0  0
  8 13  1  0  0  0  0
  8 14  1  0  0  0  0
  8 35  1  0  0  0  0
  9 10  1  0  0  0  0
  9 36  1  0  0  0  0
  9 37  1  0  0  0  0
 10 11  1  0  0  0  0
 10 38  1  0  0  0  0
 10 39  1  0  0  0  0
 11 12  1  0  0  0  0
 11 20  2  0  0  0  0
 12 15  1  0  0  0  0
 12 40  1  0  0  0  0
 12 41  1  0  0  0  0
 13 42  1  0  0  0  0
 13 43  1  0  0  0  0
 13 44  1  0  0  0  0
 14 16  2  0  0  0  0
 14 45  1  0  0  0  0
 15 19  1  0  0  0  0
 15 46  1  0  0  0  0
 15 47  1  0  0  0  0
 16 17  1  0  0  0  0
 16 48  1  0  0  0  0
 17 21  1  0  0  0  0
 17 49  1  0  0  0  0
 17 50  1  0  0  0  0
 18 22  1  0  0  0  0
 18 23  1  6  0  0  0
 18 51  1  0  0  0  0
 19 30  1  0  0  0  0
 19 52  1  0  0  0  0
 19 53  1  0  0  0  0
 20 54  1  0  0  0  0
 21 25  1  0  0  0  0
 21 55  1  0  0  0  0
 21 56  1  0  0  0  0
 22 28  2  0  0  0  0
 22 57  1  0  0  0  0
 23 58  1  0  0  0  0
 23 59  1  0  0  0  0
 23 60  1  0  0  0  0
 24 28  1  0  0  0  0
 26 27  1  0  0  0  0
 26 61  1  0  0  0  0
 26 62  1  0  0  0  0
 27 31  1  0  0  0  0
 27 63  1  0  0  0  0
 27 64  1  0  0  0  0
 28 65  1  0  0  0  0
 29 32  1  0  0  0  0
 30 33  2  0  0  0  0
 30 66  1  0  0  0  0
 31 32  2  0  0  0  0
 32 68  1  0  0  0  0
 33 69  1  0  0  0  0
 33 70  1  0  0  0  0
 34 71  1  0  0  0  0
 34 72  1  0  0  0  0
 34 73  1  0  0  0  0
M  END
> <PUBCHEM_COMPOUND_CID>
49787033

> <PUBCHEM_COMPOUND_CANONICALIZED>
1

> <PUBCHEM_CACTVS_COMPLEXITY>
813

> <PUBCHEM_CACTVS_HBOND_ACCEPTOR>
4

> <PUBCHEM_CACTVS_HBOND_DONOR>
1

> <PUBCHEM_CACTVS_ROTATABLE_BOND>
16

> <PUBCHEM_CACTVS_SUBSKEYS>
AAADcfB7OAAEAAAAAAAAAAAAAAAAAQAAAAAAAAAAAAAAAAAAAAAAHgIQAAAADS/BgEYCAAPABACIAiFSEACACAAgIAAICIEIAEgAABIAgQAEAAACliCIAYMAgMAMAAAAAAAAAAAAAAAAAAAAAAAAAAAAAA==

> <PUBCHEM_IUPAC_OPENEYE_NAME>
(4E,9E)-9-(chloromethylene)-N-[(E)-3-methoxy-5-[(2S)-2-methyl-5-oxo-2H-pyrrol-1-yl]-5-oxo-pent-3-enyl]-6-methyl-tetradeca-4,13-dienamide

> <PUBCHEM_IUPAC_CAS_NAME>
(4E,9E)-9-(chloromethylidene)-N-[(E)-3-methoxy-5-[(2S)-2-methyl-5-oxo-2H-pyrrol-1-yl]-5-oxopent-3-enyl]-6-methyltetradeca-4,13-dienamide

> <PUBCHEM_IUPAC_NAME>
(4E,9E)-9-(chloromethylidene)-N-[(E)-3-methoxy-5-[(2S)-2-methyl-5-oxo-2H-pyrrol-1-yl]-5-oxopent-3-enyl]-6-methyltetradeca-4,13-dienamide

> <PUBCHEM_IUPAC_SYSTEMATIC_NAME>
(4E,9E)-9-(chloranylmethylidene)-N-[(E)-3-methoxy-5-[(2S)-2-methyl-5-oxidanylidene-2H-pyrrol-1-yl]-5-oxidanylidene-pent-3-enyl]-6-methyl-tetradeca-4,13-dienamide

> <PUBCHEM_IUPAC_TRADITIONAL_NAME>
(4E,9E)-9-(chloromethylene)-N-[(E)-5-keto-5-[(5S)-2-keto-5-methyl-3-pyrrolin-1-yl]-3-methoxy-pent-3-enyl]-6-methyl-tetradeca-4,13-dienamide

> <PUBCHEM_IUPAC_INCHI>
InChI=1S/C27H39ClN2O4/c1-5-6-7-11-23(20-28)15-13-21(2)10-8-9-12-25(31)29-18-17-24(34-4)19-27(33)30-22(3)14-16-26(30)32/h5,8,10,14,16,19-22H,1,6-7,9,11-13,15,17-18H2,2-4H3,(H,29,31)/b10-8+,23-20+,24-19+/t21?,22-/m0/s1

> <PUBCHEM_IUPAC_INCHIKEY>
PRVBXXHHHXSICY-YIEYWENTSA-N

> <PUBCHEM_XLOGP3_AA>
5.4

> <PUBCHEM_EXACT_MASS>
490.259835

> <PUBCHEM_MOLECULAR_FORMULA>
C27H39ClN2O4

> <PUBCHEM_MOLECULAR_WEIGHT>
491.06256

> <PUBCHEM_OPENEYE_CAN_SMILES>
CC1C=CC(=O)N1C(=O)C=C(CCNC(=O)CCC=CC(C)CCC(=CCl)CCCC=C)OC

> <PUBCHEM_OPENEYE_ISO_SMILES>
C[C@H]1C=CC(=O)N1C(=O)/C=C(\CCNC(=O)CC/C=C/C(C)CC/C(=C/Cl)/CCCC=C)/OC

> <PUBCHEM_CACTVS_TPSA>
75.7

> <PUBCHEM_MONOISOTOPIC_WEIGHT>
490.259835

> <PUBCHEM_TOTAL_CHARGE>
0

> <PUBCHEM_HEAVY_ATOM_COUNT>
34

> <PUBCHEM_ATOM_DEF_STEREO_COUNT>
1

> <PUBCHEM_ATOM_UDEF_STEREO_COUNT>
1

> <PUBCHEM_BOND_DEF_STEREO_COUNT>
3

> <PUBCHEM_BOND_UDEF_STEREO_COUNT>
0

> <PUBCHEM_ISOTOPIC_ATOM_COUNT>
0

> <PUBCHEM_COMPONENT_COUNT>
1

> <PUBCHEM_CACTVS_TAUTO_COUNT>
2

> <PUBCHEM_COORDINATE_TYPE>
1
5
255

> <PUBCHEM_BONDANNOTATIONS>
18  23  6
8  13  3

$$$$

