   Color/Form

     * NEEDLES FROM PETROLEUM ETHER
     * LIGHT BROWN CRYSTALS /DICHLOROANILINES/

   from [1]HSDB

   Boiling Point
        272 deg C
   from [2]HSDB

   Melting Point
        71-72 deg C
   from [3]HSDB

   Critical Temperature and Pressure
        Critical temperature: 800 K; Critical pressure: 4.11X10+6 Pa
   from [4]HSDB

   Density/Specific Gravity
        1.33
   from [5]HSDB

   Heat of Vaporization
        6.6908X10+7 J/kmol @ 344.65 K
   from [6]HSDB

   Octanol/Water Partition Coefficient
        log Kow= 2.69
   from [7]HSDB

   Solubilities

     * Very sol in alcohol, ether; slightly sol in benzene.
     * Sol in most org solvents
     * Water solubility of 92 mg/l at 20 deg C

   from [8]HSDB

   Spectral Properties

     * IR: 6459 (Sadtler Research Laboratories Prism Collection)
     * UV: 1794 (Sadtler Research Laboratories Spectral Collection)
     * MASS: 1025 (Atlas of Mass Spectral Data, John Wiley & Sons, New
       York)
     * NMR: 271 (Sadtler Research Laboratories Spectral Collection)

   from [9]HSDB

   Surface Tension
        4.3741X10-2 N.m @ 344.65 K
   from [10]HSDB

   Vapor Pressure
        6.32X10-3 mm Hg @ 25 deg C
   from [11]HSDB

   Viscosity
        6.6173 Pa.s @ 344.65 K
   from [12]HSDB

   Computed Properties
   Molecular Weight                  162.0166 [g/mol]
   Molecular Formula                 C[6]H[5]Cl[2]N
   XLogP3                            2.7
   H-Bond Donor                      1
   H-Bond Acceptor                   1
   Rotatable Bond Count              0
   Exact Mass                        160.979905
   MonoIsotopic Mass                 160.979905
   Topological Polar Surface Area    26
   Heavy Atom Count                  9
   Formal Charge                     0
   Complexity                        97.1
   Isotope Atom Count                0
   Defined Atom Stereocenter Count   0
   Undefined Atom Stereocenter Count 0
   Defined Bond Stereocenter Count   0
   Undefined Bond Stereocenter Count 0
   Covalently-Bonded Unit Count      1
   Feature 3D Donor Count            1
   Feature 3D Cation Count           1
   Feature 3D Ring Count             1
   Effective Rotor Count             0
   Conformer Sampling RMSD           0.4
   CID Conformer Count               [13]1

References

   1. http://toxnet.nlm.nih.gov/cgi-bin/sis/search/r?dbs+hsdb:@term+@rn+@rel+95-76-1
   2. http://toxnet.nlm.nih.gov/cgi-bin/sis/search/r?dbs+hsdb:@term+@rn+@rel+95-76-1
   3. http://toxnet.nlm.nih.gov/cgi-bin/sis/search/r?dbs+hsdb:@term+@rn+@rel+95-76-1
   4. http://toxnet.nlm.nih.gov/cgi-bin/sis/search/r?dbs+hsdb:@term+@rn+@rel+95-76-1
   5. http://toxnet.nlm.nih.gov/cgi-bin/sis/search/r?dbs+hsdb:@term+@rn+@rel+95-76-1
   6. http://toxnet.nlm.nih.gov/cgi-bin/sis/search/r?dbs+hsdb:@term+@rn+@rel+95-76-1
   7. http://toxnet.nlm.nih.gov/cgi-bin/sis/search/r?dbs+hsdb:@term+@rn+@rel+95-76-1
   8. http://toxnet.nlm.nih.gov/cgi-bin/sis/search/r?dbs+hsdb:@term+@rn+@rel+95-76-1
   9. http://toxnet.nlm.nih.gov/cgi-bin/sis/search/r?dbs+hsdb:@term+@rn+@rel+95-76-1
  10. http://toxnet.nlm.nih.gov/cgi-bin/sis/search/r?dbs+hsdb:@term+@rn+@rel+95-76-1
  11. http://toxnet.nlm.nih.gov/cgi-bin/sis/search/r?dbs+hsdb:@term+@rn+@rel+95-76-1
  12. http://toxnet.nlm.nih.gov/cgi-bin/sis/search/r?dbs+hsdb:@term+@rn+@rel+95-76-1
  13. http://pubchem.ncbi.nlm.nih.gov/vw3d/vw3d.cgi?cid=7257
