5280570
  -OEChem-07051212482D

 79 79  0     1  0  0  0  0  0999 V2000
    4.2690   -5.0950    0.0000 O   0  0  0  0  0  0  0  0  0  0  0  0
    6.0010   -5.0950    0.0000 O   0  0  0  0  0  0  0  0  0  0  0  0
    4.2690   -8.0950    0.0000 O   0  0  0  0  0  0  0  0  0  0  0  0
    2.5369   -7.0950    0.0000 O   0  0  0  0  0  0  0  0  0  0  0  0
    6.0010   -7.0950    0.0000 O   0  0  0  0  0  0  0  0  0  0  0  0
    2.5369   -4.0950    0.0000 O   0  0  0  0  0  0  0  0  0  0  0  0
    6.0010   -2.0950    0.0000 O   0  0  0  0  0  0  0  0  0  0  0  0
    7.7331   -4.0950    0.0000 N   0  0  0  0  0  0  0  0  0  0  0  0
    4.2690   -7.0950    0.0000 C   0  0  1  0  0  0  0  0  0  0  0  0
    3.4030   -6.5950    0.0000 C   0  0  1  0  0  0  0  0  0  0  0  0
    5.1350   -6.5950    0.0000 C   0  0  2  0  0  0  0  0  0  0  0  0
    3.4030   -5.5950    0.0000 C   0  0  1  0  0  0  0  0  0  0  0  0
    5.1350   -5.5950    0.0000 C   0  0  1  0  0  0  0  0  0  0  0  0
    2.5369   -5.0950    0.0000 C   0  0  0  0  0  0  0  0  0  0  0  0
    6.0010   -4.0950    0.0000 C   0  0  0  0  0  0  0  0  0  0  0  0
    6.8671   -3.5950    0.0000 C   0  0  1  0  0  0  0  0  0  0  0  0
   10.3312    3.4050    0.0000 C   0  0  0  0  0  0  0  0  0  0  0  0
   10.3312    2.4050    0.0000 C   0  0  0  0  0  0  0  0  0  0  0  0
   11.1972    3.9050    0.0000 C   0  0  0  0  0  0  0  0  0  0  0  0
    9.4651    1.9050    0.0000 C   0  0  0  0  0  0  0  0  0  0  0  0
    6.8671   -2.5950    0.0000 C   0  0  1  0  0  0  0  0  0  0  0  0
   11.1972    4.9050    0.0000 C   0  0  0  0  0  0  0  0  0  0  0  0
    9.4651    0.9050    0.0000 C   0  0  0  0  0  0  0  0  0  0  0  0
   12.0632    5.4050    0.0000 C   0  0  0  0  0  0  0  0  0  0  0  0
    8.5991    0.4050    0.0000 C   0  0  0  0  0  0  0  0  0  0  0  0
   12.0632    6.4050    0.0000 C   0  0  0  0  0  0  0  0  0  0  0  0
    8.5991   -0.5950    0.0000 C   0  0  0  0  0  0  0  0  0  0  0  0
    7.7331   -2.0950    0.0000 C   0  0  0  0  0  0  0  0  0  0  0  0
   12.9292    6.9050    0.0000 C   0  0  0  0  0  0  0  0  0  0  0  0
    7.7331   -1.0950    0.0000 C   0  0  0  0  0  0  0  0  0  0  0  0
   12.9292    7.9050    0.0000 C   0  0  0  0  0  0  0  0  0  0  0  0
   13.7953    8.4050    0.0000 C   0  0  0  0  0  0  0  0  0  0  0  0
    4.8059   -7.4050    0.0000 H   0  0  0  0  0  0  0  0  0  0  0  0
    3.4030   -7.2150    0.0000 H   0  0  0  0  0  0  0  0  0  0  0  0
    5.1350   -7.2150    0.0000 H   0  0  0  0  0  0  0  0  0  0  0  0
    3.4030   -4.9750    0.0000 H   0  0  0  0  0  0  0  0  0  0  0  0
    5.1350   -4.9750    0.0000 H   0  0  0  0  0  0  0  0  0  0  0  0
    1.9264   -4.9873    0.0000 H   0  0  0  0  0  0  0  0  0  0  0  0
    2.3249   -5.6776    0.0000 H   0  0  0  0  0  0  0  0  0  0  0  0
    5.7890   -3.5124    0.0000 H   0  0  0  0  0  0  0  0  0  0  0  0
    5.3905   -4.2027    0.0000 H   0  0  0  0  0  0  0  0  0  0  0  0
    6.8671   -4.2150    0.0000 H   0  0  0  0  0  0  0  0  0  0  0  0
    3.7320   -8.4050    0.0000 H   0  0  0  0  0  0  0  0  0  0  0  0
    2.0000   -6.7850    0.0000 H   0  0  0  0  0  0  0  0  0  0  0  0
    6.5380   -6.7850    0.0000 H   0  0  0  0  0  0  0  0  0  0  0  0
   10.1191    3.9876    0.0000 H   0  0  0  0  0  0  0  0  0  0  0  0
    9.7206    3.2973    0.0000 H   0  0  0  0  0  0  0  0  0  0  0  0
   10.5432    1.8224    0.0000 H   0  0  0  0  0  0  0  0  0  0  0  0
   10.9417    2.5127    0.0000 H   0  0  0  0  0  0  0  0  0  0  0  0
   11.4092    3.3224    0.0000 H   0  0  0  0  0  0  0  0  0  0  0  0
   11.8078    4.0127    0.0000 H   0  0  0  0  0  0  0  0  0  0  0  0
    9.2531    2.4876    0.0000 H   0  0  0  0  0  0  0  0  0  0  0  0
    8.8546    1.7973    0.0000 H   0  0  0  0  0  0  0  0  0  0  0  0
    6.3301   -2.9050    0.0000 H   0  0  0  0  0  0  0  0  0  0  0  0
   10.9851    5.4876    0.0000 H   0  0  0  0  0  0  0  0  0  0  0  0
   10.5866    4.7973    0.0000 H   0  0  0  0  0  0  0  0  0  0  0  0
    9.6772    0.3224    0.0000 H   0  0  0  0  0  0  0  0  0  0  0  0
   10.0757    1.0127    0.0000 H   0  0  0  0  0  0  0  0  0  0  0  0
   12.2753    4.8224    0.0000 H   0  0  0  0  0  0  0  0  0  0  0  0
   12.6738    5.5127    0.0000 H   0  0  0  0  0  0  0  0  0  0  0  0
    8.3871    0.9876    0.0000 H   0  0  0  0  0  0  0  0  0  0  0  0
    7.9885    0.2973    0.0000 H   0  0  0  0  0  0  0  0  0  0  0  0
   11.8512    6.9876    0.0000 H   0  0  0  0  0  0  0  0  0  0  0  0
   11.4526    6.2973    0.0000 H   0  0  0  0  0  0  0  0  0  0  0  0
    2.0000   -3.7850    0.0000 H   0  0  0  0  0  0  0  0  0  0  0  0
    8.8112   -1.1776    0.0000 H   0  0  0  0  0  0  0  0  0  0  0  0
    9.2097   -0.4873    0.0000 H   0  0  0  0  0  0  0  0  0  0  0  0
    8.2700   -2.4050    0.0000 H   0  0  0  0  0  0  0  0  0  0  0  0
   13.1413    6.3224    0.0000 H   0  0  0  0  0  0  0  0  0  0  0  0
   13.5398    7.0127    0.0000 H   0  0  0  0  0  0  0  0  0  0  0  0
    8.2700   -3.7850    0.0000 H   0  0  0  0  0  0  0  0  0  0  0  0
    7.7331   -4.7150    0.0000 H   0  0  0  0  0  0  0  0  0  0  0  0
    7.1962   -0.7850    0.0000 H   0  0  0  0  0  0  0  0  0  0  0  0
   12.7172    8.4876    0.0000 H   0  0  0  0  0  0  0  0  0  0  0  0
   12.3187    7.7973    0.0000 H   0  0  0  0  0  0  0  0  0  0  0  0
    6.0010   -1.4750    0.0000 H   0  0  0  0  0  0  0  0  0  0  0  0
   14.1053    7.8681    0.0000 H   0  0  0  0  0  0  0  0  0  0  0  0
   14.3322    8.7150    0.0000 H   0  0  0  0  0  0  0  0  0  0  0  0
   13.4853    8.9419    0.0000 H   0  0  0  0  0  0  0  0  0  0  0  0
  1 12  1  0  0  0  0
  1 13  1  0  0  0  0
 13  2  1  1  0  0  0
  2 15  1  0  0  0  0
  9  3  1  1  0  0  0
  3 43  1  0  0  0  0
 10  4  1  6  0  0  0
  4 44  1  0  0  0  0
 11  5  1  6  0  0  0
  5 45  1  0  0  0  0
  6 14  1  0  0  0  0
  6 65  1  0  0  0  0
 21  7  1  6  0  0  0
  7 76  1  0  0  0  0
 16  8  1  1  0  0  0
  8 71  1  0  0  0  0
  8 72  1  0  0  0  0
  9 10  1  0  0  0  0
  9 11  1  0  0  0  0
  9 33  1  0  0  0  0
 10 12  1  0  0  0  0
 10 34  1  0  0  0  0
 11 13  1  0  0  0  0
 11 35  1  0  0  0  0
 12 14  1  1  0  0  0
 12 36  1  0  0  0  0
 13 37  1  0  0  0  0
 14 38  1  0  0  0  0
 14 39  1  0  0  0  0
 15 16  1  0  0  0  0
 15 40  1  0  0  0  0
 15 41  1  0  0  0  0
 16 21  1  0  0  0  0
 16 42  1  0  0  0  0
 17 18  1  0  0  0  0
 17 19  1  0  0  0  0
 17 46  1  0  0  0  0
 17 47  1  0  0  0  0
 18 20  1  0  0  0  0
 18 48  1  0  0  0  0
 18 49  1  0  0  0  0
 19 22  1  0  0  0  0
 19 50  1  0  0  0  0
 19 51  1  0  0  0  0
 20 23  1  0  0  0  0
 20 52  1  0  0  0  0
 20 53  1  0  0  0  0
 21 28  1  0  0  0  0
 21 54  1  0  0  0  0
 22 24  1  0  0  0  0
 22 55  1  0  0  0  0
 22 56  1  0  0  0  0
 23 25  1  0  0  0  0
 23 57  1  0  0  0  0
 23 58  1  0  0  0  0
 24 26  1  0  0  0  0
 24 59  1  0  0  0  0
 24 60  1  0  0  0  0
 25 27  1  0  0  0  0
 25 61  1  0  0  0  0
 25 62  1  0  0  0  0
 26 29  1  0  0  0  0
 26 63  1  0  0  0  0
 26 64  1  0  0  0  0
 27 30  1  0  0  0  0
 27 66  1  0  0  0  0
 27 67  1  0  0  0  0
 28 30  2  0  0  0  0
 28 68  1  0  0  0  0
 29 31  1  0  0  0  0
 29 69  1  0  0  0  0
 29 70  1  0  0  0  0
 30 73  1  0  0  0  0
 31 32  1  0  0  0  0
 31 74  1  0  0  0  0
 31 75  1  0  0  0  0
 32 77  1  0  0  0  0
 32 78  1  0  0  0  0
 32 79  1  0  0  0  0
M  END
> <PUBCHEM_COMPOUND_CID>
5280570

> <PUBCHEM_COMPOUND_CANONICALIZED>
1

> <PUBCHEM_CACTVS_COMPLEXITY>
479

> <PUBCHEM_CACTVS_HBOND_ACCEPTOR>
8

> <PUBCHEM_CACTVS_HBOND_DONOR>
6

> <PUBCHEM_CACTVS_ROTATABLE_BOND>
18

> <PUBCHEM_CACTVS_SUBSKEYS>
AAADcfB6OAAAAAAAAAAAAAAAAAAAAAAAAAAkAAAAAAAAAAAAAAAAHgAQCAAACDzxgAcCCABABgCAACBCAAAAAAAgAAAICIAAAAgTFAIAAQAjUAAFkAAPEAPA4IwAAAAAAAAAAAAAAAAAAAAAAAAAAAAAAA==

> <PUBCHEM_IUPAC_OPENEYE_NAME>
(2R,3R,4S,5S,6R)-2-[(E,2S,3R)-2-amino-3-hydroxy-octadec-4-enoxy]-6-(hydroxymethyl)tetrahydropyran-3,4,5-triol

> <PUBCHEM_IUPAC_CAS_NAME>
(2R,3R,4S,5S,6R)-2-[(E,2S,3R)-2-amino-3-hydroxyoctadec-4-enoxy]-6-(hydroxymethyl)oxane-3,4,5-triol

> <PUBCHEM_IUPAC_NAME>
(2R,3R,4S,5S,6R)-2-[(E,2S,3R)-2-amino-3-hydroxyoctadec-4-enoxy]-6-(hydroxymethyl)oxane-3,4,5-triol

> <PUBCHEM_IUPAC_SYSTEMATIC_NAME>
(2R,3R,4S,5S,6R)-2-[(E,2S,3R)-2-azanyl-3-oxidanyl-octadec-4-enoxy]-6-(hydroxymethyl)oxane-3,4,5-triol

> <PUBCHEM_IUPAC_TRADITIONAL_NAME>
(2R,3R,4S,5S,6R)-2-[(E,2S,3R)-2-amino-3-hydroxy-octadec-4-enoxy]-6-methylol-tetrahydropyran-3,4,5-triol

> <PUBCHEM_IUPAC_INCHI>
InChI=1S/C24H47NO7/c1-2-3-4-5-6-7-8-9-10-11-12-13-14-15-19(27)18(25)17-31-24-23(30)22(29)21(28)20(16-26)32-24/h14-15,18-24,26-30H,2-13,16-17,25H2,1H3/b15-14+/t18-,19+,20+,21+,22-,23+,24+/m0/s1

> <PUBCHEM_IUPAC_INCHIKEY>
HHJTWTPUPVQKNA-JIAPQYILSA-N

> <PUBCHEM_XLOGP3_AA>
3.7

> <PUBCHEM_EXACT_MASS>
461.335253

> <PUBCHEM_MOLECULAR_FORMULA>
C24H47NO7

> <PUBCHEM_MOLECULAR_WEIGHT>
461.63248

> <PUBCHEM_OPENEYE_CAN_SMILES>
CCCCCCCCCCCCCC=CC(C(COC1C(C(C(C(O1)CO)O)O)O)N)O

> <PUBCHEM_OPENEYE_ISO_SMILES>
CCCCCCCCCCCCC/C=C/[C@H]([C@H](CO[C@H]1[C@@H]([C@H]([C@@H]([C@H](O1)CO)O)O)O)N)O

> <PUBCHEM_CACTVS_TPSA>
146

> <PUBCHEM_MONOISOTOPIC_WEIGHT>
461.335253

> <PUBCHEM_TOTAL_CHARGE>
0

> <PUBCHEM_HEAVY_ATOM_COUNT>
32

> <PUBCHEM_ATOM_DEF_STEREO_COUNT>
7

> <PUBCHEM_ATOM_UDEF_STEREO_COUNT>
0

> <PUBCHEM_BOND_DEF_STEREO_COUNT>
1

> <PUBCHEM_BOND_UDEF_STEREO_COUNT>
0

> <PUBCHEM_ISOTOPIC_ATOM_COUNT>
0

> <PUBCHEM_COMPONENT_COUNT>
1

> <PUBCHEM_CACTVS_TAUTO_COUNT>
1

> <PUBCHEM_COORDINATE_TYPE>
1
5
255

> <PUBCHEM_BONDANNOTATIONS>
12  14  5
13  2  5
9  3  5
10  4  6
11  5  6
21  7  6
16  8  5

$$$$

