   Color/Form
        White to off-white crystalline powder
   from [1]HSDB

   Odor
        Slight, faintly aromatic odor
   from [2]HSDB

   Boiling Point
        280 to 290 deg C (decomposes)
   from [3]HSDB

   Melting Point
        54 to 57.3 deg C
   from [4]HSDB

   Dissociation Constants
        pka = 7.9
   from [5]HSDB

   Octanol/Water Partition Coefficient
        log Kow = 4.76
   from [6]HSDB

   Solubilities

     * Readily soluble in alkaline solutions and many organic solvents.
     * Readily soluble in organic solvents.
     * In water, 10 mg/L @ 20 deg C

   from [7]HSDB

   Vapor Pressure
        4X10-6 mm Hg @ 20 deg C
   from [8]HSDB

   Other Chemical/Physical Properties

     * Henry's Law constant = 1.5X10-7 atm-cm m/mole @ 25 deg C
       /Estimated/
     * Hydroxyl radical reaction rate constant = 1.6X10-11 cu
       cm/molecule-sec @ 25 deg C /Estimated/

   from [9]HSDB

   Computed Properties
   Molecular Weight                  289.54178 [g/mol]
   Molecular Formula                 C[12]H[7]Cl[3]O[2]
   XLogP3-AA                         5
   H-Bond Donor                      1
   H-Bond Acceptor                   2
   Rotatable Bond Count              2
   Tautomer Count                    3
   Exact Mass                        287.951163
   MonoIsotopic Mass                 287.951163
   Topological Polar Surface Area    29.5
   Heavy Atom Count                  17
   Formal Charge                     0
   Complexity                        252
   Isotope Atom Count                0
   Defined Atom Stereocenter Count   0
   Undefined Atom Stereocenter Count 0
   Defined Bond Stereocenter Count   0
   Undefined Bond Stereocenter Count 0
   Covalently-Bonded Unit Count      1
   Feature 3D Acceptor Count         1
   Feature 3D Donor Count            1
   Feature 3D Ring Count             2
   Effective Rotor Count             2
   Conformer Sampling RMSD           0.6
   CID Conformer Count               [10]12

References

   1. http://toxnet.nlm.nih.gov/cgi-bin/sis/search/r?dbs+hsdb:@term+@rn+@rel+3380-34-5
   2. http://toxnet.nlm.nih.gov/cgi-bin/sis/search/r?dbs+hsdb:@term+@rn+@rel+3380-34-5
   3. http://toxnet.nlm.nih.gov/cgi-bin/sis/search/r?dbs+hsdb:@term+@rn+@rel+3380-34-5
   4. http://toxnet.nlm.nih.gov/cgi-bin/sis/search/r?dbs+hsdb:@term+@rn+@rel+3380-34-5
   5. http://toxnet.nlm.nih.gov/cgi-bin/sis/search/r?dbs+hsdb:@term+@rn+@rel+3380-34-5
   6. http://toxnet.nlm.nih.gov/cgi-bin/sis/search/r?dbs+hsdb:@term+@rn+@rel+3380-34-5
   7. http://toxnet.nlm.nih.gov/cgi-bin/sis/search/r?dbs+hsdb:@term+@rn+@rel+3380-34-5
   8. http://toxnet.nlm.nih.gov/cgi-bin/sis/search/r?dbs+hsdb:@term+@rn+@rel+3380-34-5
   9. http://toxnet.nlm.nih.gov/cgi-bin/sis/search/r?dbs+hsdb:@term+@rn+@rel+3380-34-5
  10. http://pubchem.ncbi.nlm.nih.gov/vw3d/vw3d.cgi?cid=5564
