   Color/Form
        White to yellowish crystalline powder
   from [1]HSDB

   Odor
        Practically odorless
   from [2]HSDB

   Melting Point
        181-183 deg C
   from [3]HSDB

   Octanol/Water Partition Coefficient
        log Kow = 2.22 (est)
   from [4]HSDB

   Solubilities

     * Freely soluble in dichloromethane; slightly soluble in ethanol;
       practically insoluble in water
     * In water, 102 mg/L at 25 deg C (est)

   from [5]HSDB

   Vapor Pressure
        6.8X10-9 mm Hg at 25 deg C (est)
   from [6]HSDB

   Other Chemical/Physical Properties

     * Henry's Law constant = 1.98X10-11 atm-cu m/mol at 25 deg C (est)
     * Hydroxyl radical reaction rate constant = 3.67X10-12 cu
       cm/molec-sec at 25 deg C (est)

   from [7]HSDB

   Computed Properties
   Molecular Weight                  285.30274 [g/mol]
   Molecular Formula                 C[17]H[11]N[5]
   XLogP3-AA                         2.7
   H-Bond Donor                      0
   H-Bond Acceptor                   4
   Rotatable Bond Count              3
   Exact Mass                        285.101445
   MonoIsotopic Mass                 285.101445
   Topological Polar Surface Area    78.3
   Heavy Atom Count                  22
   Formal Charge                     0
   Complexity                        420
   Isotope Atom Count                0
   Defined Atom Stereocenter Count   0
   Undefined Atom Stereocenter Count 0
   Defined Bond Stereocenter Count   0
   Undefined Bond Stereocenter Count 0
   Covalently-Bonded Unit Count      1
   Feature 3D Acceptor Count         2
   Feature 3D Cation Count           2
   Feature 3D Ring Count             3
   Effective Rotor Count             3
   Conformer Sampling RMSD           0.6
   CID Conformer Count               [8]14

References

   1. http://toxnet.nlm.nih.gov/cgi-bin/sis/search/r?dbs+hsdb:@term+@rn+@rel+112809-51-5
   2. http://toxnet.nlm.nih.gov/cgi-bin/sis/search/r?dbs+hsdb:@term+@rn+@rel+112809-51-5
   3. http://toxnet.nlm.nih.gov/cgi-bin/sis/search/r?dbs+hsdb:@term+@rn+@rel+112809-51-5
   4. http://toxnet.nlm.nih.gov/cgi-bin/sis/search/r?dbs+hsdb:@term+@rn+@rel+112809-51-5
   5. http://toxnet.nlm.nih.gov/cgi-bin/sis/search/r?dbs+hsdb:@term+@rn+@rel+112809-51-5
   6. http://toxnet.nlm.nih.gov/cgi-bin/sis/search/r?dbs+hsdb:@term+@rn+@rel+112809-51-5
   7. http://toxnet.nlm.nih.gov/cgi-bin/sis/search/r?dbs+hsdb:@term+@rn+@rel+112809-51-5
   8. http://pubchem.ncbi.nlm.nih.gov/vw3d/vw3d.cgi?cid=3902
