   Color/Form

     * Not solid @ -18 deg C; oil
     * Colorless, oily liquid

   from [1]HSDB

   Odor
        Aromatic odor
   from [2]HSDB

   Boiling Point
        174 deg C @ 760 mm Hg
   from [3]HSDB

   Melting Point
        Less than -18 deg C
   from [4]HSDB

   Density/Specific Gravity
        1.0913 @ 25 deg C
   from [5]HSDB

   Octanol/Water Partition Coefficient
        log Kow= 2.67
   from [6]HSDB

   Solubilities

     * Insol in water and aq alkaline solns; miscible with benzene,
       petroleum ether, absolute alcohol, ether.
     * Soluble in ethanol.

   from [7]HSDB

   Spectral Properties

     * Index of refraction: 1.56897 @ 16.93 deg C/D; 1.565 @ 22.7 deg C/D
     * MAX ABSORPTION (ALCOHOL): 245 NM (LOG E= 4.0); 278 NM (LOG E= 3.3);
       285 NM (LOG E= 3.3)
     * IR: 6787 (Coblentz Society Spectral Collection)
     * UV: 6-152 (Organic Electronic Spectral Data, Phillips et al, John
       Wiley & Sons, New York)
     * NMR: 19610 (Sadtler Research Laboratories Spectral Collection)
     * MASS: 34988 (NIST/EPA/MSDC Mass Spectral Database, 1990 version);
       1491 (Atlas of Mass Spectral Data, John Wiley and Sons, New York)

   from [8]HSDB

   Vapor Pressure
        0.44 mm Hg at 25 deg C
   from [9]HSDB

   Other Chemical/Physical Properties

     * BP: 62-63 DEG C @ 15 MM HG
     * Volatile with steam
     * Polymerizes slowly to polybenzofuran at ambient temperatures, more
       rapidly with heat and in the presence of acidic catalyst. Resistant
       to aqueous alkali.
     * Hydroxyl radical reaction rate constant = 3.73X10-11 cu
       cm/molecule-sec @ 25 deg C

   from [10]HSDB

   Computed Properties
   Molecular Weight                  118.13264 [g/mol]
   Molecular Formula                 C[8]H[6]O
   XLogP3                            2.7
   H-Bond Donor                      0
   H-Bond Acceptor                   1
   Rotatable Bond Count              0
   Exact Mass                        118.041865
   MonoIsotopic Mass                 118.041865
   Topological Polar Surface Area    13.1
   Heavy Atom Count                  9
   Formal Charge                     0
   Complexity                        101
   Isotope Atom Count                0
   Defined Atom Stereocenter Count   0
   Undefined Atom Stereocenter Count 0
   Defined Bond Stereocenter Count   0
   Undefined Bond Stereocenter Count 0
   Covalently-Bonded Unit Count      1
   Feature 3D Acceptor Count         1
   Feature 3D Ring Count             2
   Effective Rotor Count             0
   Conformer Sampling RMSD           0.4
   CID Conformer Count               [11]1

References

   1. http://toxnet.nlm.nih.gov/cgi-bin/sis/search/r?dbs+hsdb:@term+@rn+@rel+271-89-6
   2. http://toxnet.nlm.nih.gov/cgi-bin/sis/search/r?dbs+hsdb:@term+@rn+@rel+271-89-6
   3. http://toxnet.nlm.nih.gov/cgi-bin/sis/search/r?dbs+hsdb:@term+@rn+@rel+271-89-6
   4. http://toxnet.nlm.nih.gov/cgi-bin/sis/search/r?dbs+hsdb:@term+@rn+@rel+271-89-6
   5. http://toxnet.nlm.nih.gov/cgi-bin/sis/search/r?dbs+hsdb:@term+@rn+@rel+271-89-6
   6. http://toxnet.nlm.nih.gov/cgi-bin/sis/search/r?dbs+hsdb:@term+@rn+@rel+271-89-6
   7. http://toxnet.nlm.nih.gov/cgi-bin/sis/search/r?dbs+hsdb:@term+@rn+@rel+271-89-6
   8. http://toxnet.nlm.nih.gov/cgi-bin/sis/search/r?dbs+hsdb:@term+@rn+@rel+271-89-6
   9. http://toxnet.nlm.nih.gov/cgi-bin/sis/search/r?dbs+hsdb:@term+@rn+@rel+271-89-6
  10. http://toxnet.nlm.nih.gov/cgi-bin/sis/search/r?dbs+hsdb:@term+@rn+@rel+271-89-6
  11. http://pubchem.ncbi.nlm.nih.gov/vw3d/vw3d.cgi?cid=9223
