11953913
  -OEChem-07051212562D

 55 61  0     1  0  0  0  0  0999 V2000
    4.0726    1.6681    0.0000 O   0  0  0  0  0  0  0  0  0  0  0  0
    2.9053   -1.7048    0.0000 O   0  0  0  0  0  0  0  0  0  0  0  0
    3.0054    2.0064    0.0000 O   0  0  0  0  0  0  0  0  0  0  0  0
    4.6496   -0.9510    0.0000 N   0  0  3  0  0  0  0  0  0  0  0  0
    4.1076   -0.2908    0.0000 C   0  0  1  0  0  0  0  0  0  0  0  0
    4.5064    0.7671    0.0000 C   0  0  2  0  0  0  0  0  0  0  0  0
    5.3971    1.3262    0.0000 C   0  0  2  0  0  0  0  0  0  0  0  0
    5.0280   -0.2908    0.0000 C   0  0  1  0  0  0  0  0  0  0  0  0
    5.6019    0.4288    0.0000 C   0  0  3  0  0  0  0  0  0  0  0  0
    3.5337    0.4288    0.0000 C   0  0  1  0  0  0  0  0  0  0  0  0
    2.6235    0.2917    0.0000 C   0  0  2  0  0  0  0  0  0  0  0  0
    6.3883    1.1149    0.0000 C   0  0  0  0  0  0  0  0  0  0  0  0
    3.7713   -1.1476    0.0000 C   0  0  0  0  0  0  0  0  0  0  0  0
    6.4815    0.1575    0.0000 C   0  0  0  0  0  0  0  0  0  0  0  0
    7.1562    0.7836    0.0000 C   0  0  2  0  0  0  0  0  0  0  0  0
    4.5678    1.7256    0.0000 C   0  0  0  0  0  0  0  0  0  0  0  0
    3.1564   -0.7260    0.0000 C   0  0  3  0  0  0  0  0  0  0  0  0
    3.7385    1.3262    0.0000 C   0  0  0  0  0  0  0  0  0  0  0  0
    6.0719    1.9523    0.0000 C   0  0  0  0  0  0  0  0  0  0  0  0
    2.2872   -0.5652    0.0000 C   0  0  0  0  0  0  0  0  0  0  0  0
    2.8611   -1.2848    0.0000 C   0  0  0  0  0  0  0  0  0  0  0  0
    6.9514    1.6810    0.0000 C   0  0  0  0  0  0  0  0  0  0  0  0
    4.6011   -1.9603    0.0000 C   0  0  0  0  0  0  0  0  0  0  0  0
    2.0000    1.0735    0.0000 C   0  0  0  0  0  0  0  0  0  0  0  0
    3.6736   -2.3612    0.0000 C   0  0  0  0  0  0  0  0  0  0  0  0
    7.6845    2.3612    0.0000 C   0  0  0  0  0  0  0  0  0  0  0  0
    5.7311   -0.7685    0.0000 H   0  0  0  0  0  0  0  0  0  0  0  0
    5.8525   -0.3834    0.0000 H   0  0  0  0  0  0  0  0  0  0  0  0
    2.9555    1.0519    0.0000 H   0  0  0  0  0  0  0  0  0  0  0  0
    6.8037    1.5751    0.0000 H   0  0  0  0  0  0  0  0  0  0  0  0
    6.3188    0.4988    0.0000 H   0  0  0  0  0  0  0  0  0  0  0  0
    3.7558   -1.7674    0.0000 H   0  0  0  0  0  0  0  0  0  0  0  0
    4.3790   -1.2705    0.0000 H   0  0  0  0  0  0  0  0  0  0  0  0
    6.1986   -0.3942    0.0000 H   0  0  0  0  0  0  0  0  0  0  0  0
    6.9757   -0.2168    0.0000 H   0  0  0  0  0  0  0  0  0  0  0  0
    7.9685    0.5331    0.0000 H   0  0  0  0  0  0  0  0  0  0  0  0
    4.9544    2.2103    0.0000 H   0  0  0  0  0  0  0  0  0  0  0  0
    4.1812    2.2103    0.0000 H   0  0  0  0  0  0  0  0  0  0  0  0
    2.3121   -0.8241    0.0000 H   0  0  0  0  0  0  0  0  0  0  0  0
    5.9339    2.5568    0.0000 H   0  0  0  0  0  0  0  0  0  0  0  0
    1.7582   -0.2419    0.0000 H   0  0  0  0  0  0  0  0  0  0  0  0
    1.8770   -1.0300    0.0000 H   0  0  0  0  0  0  0  0  0  0  0  0
    2.3166   -1.5814    0.0000 H   0  0  0  0  0  0  0  0  0  0  0  0
    3.0586   -1.8725    0.0000 H   0  0  0  0  0  0  0  0  0  0  0  0
    4.1189    2.2864    0.0000 H   0  0  0  0  0  0  0  0  0  0  0  0
    4.7581   -2.5601    0.0000 H   0  0  0  0  0  0  0  0  0  0  0  0
    5.2178   -1.8960    0.0000 H   0  0  0  0  0  0  0  0  0  0  0  0
    2.4847    1.4600    0.0000 H   0  0  0  0  0  0  0  0  0  0  0  0
    1.6134    1.5582    0.0000 H   0  0  0  0  0  0  0  0  0  0  0  0
    1.5153    0.6869    0.0000 H   0  0  0  0  0  0  0  0  0  0  0  0
    3.2041   -2.7662    0.0000 H   0  0  0  0  0  0  0  0  0  0  0  0
    4.0028   -2.8865    0.0000 H   0  0  0  0  0  0  0  0  0  0  0  0
    8.1062    1.9067    0.0000 H   0  0  0  0  0  0  0  0  0  0  0  0
    8.1390    2.7829    0.0000 H   0  0  0  0  0  0  0  0  0  0  0  0
    7.2628    2.8157    0.0000 H   0  0  0  0  0  0  0  0  0  0  0  0
  6  1  1  6  0  0  0
  1 45  1  0  0  0  0
  2 17  1  0  0  0  0
  2 25  1  0  0  0  0
  3 18  2  0  0  0  0
  4  8  1  0  0  0  0
  4 17  1  0  0  0  0
  4 23  1  0  0  0  0
  5  6  1  0  0  0  0
  5  8  1  0  0  0  0
  5 10  1  0  0  0  0
  5 13  1  6  0  0  0
  6  7  1  0  0  0  0
  6 12  1  0  0  0  0
  7  9  1  0  0  0  0
  7 16  1  1  0  0  0
  7 19  1  0  0  0  0
  8  9  1  0  0  0  0
  8 27  1  6  0  0  0
  9 14  1  0  0  0  0
  9 28  1  0  0  0  0
 10 11  1  0  0  0  0
 10 18  1  0  0  0  0
 10 29  1  6  0  0  0
 11 17  1  0  0  0  0
 11 20  1  0  0  0  0
 11 24  1  1  0  0  0
 12 15  1  0  0  0  0
 12 30  1  0  0  0  0
 12 31  1  0  0  0  0
 13 21  1  0  0  0  0
 13 32  1  0  0  0  0
 13 33  1  0  0  0  0
 14 15  1  0  0  0  0
 14 34  1  0  0  0  0
 14 35  1  0  0  0  0
 15 22  1  0  0  0  0
 15 36  1  6  0  0  0
 16 18  1  0  0  0  0
 16 37  1  0  0  0  0
 16 38  1  0  0  0  0
 17 39  1  0  0  0  0
 19 22  2  0  0  0  0
 19 40  1  0  0  0  0
 20 21  1  0  0  0  0
 20 41  1  0  0  0  0
 20 42  1  0  0  0  0
 21 43  1  0  0  0  0
 21 44  1  0  0  0  0
 22 26  1  0  0  0  0
 23 25  1  0  0  0  0
 23 46  1  0  0  0  0
 23 47  1  0  0  0  0
 24 48  1  0  0  0  0
 24 49  1  0  0  0  0
 24 50  1  0  0  0  0
 25 51  1  0  0  0  0
 25 52  1  0  0  0  0
 26 53  1  0  0  0  0
 26 54  1  0  0  0  0
 26 55  1  0  0  0  0
M  END
> <PUBCHEM_COMPOUND_CID>
11953913

> <PUBCHEM_COMPOUND_CANONICALIZED>
1

> <PUBCHEM_CACTVS_COMPLEXITY>
792

> <PUBCHEM_CACTVS_HBOND_ACCEPTOR>
4

> <PUBCHEM_CACTVS_HBOND_DONOR>
1

> <PUBCHEM_CACTVS_ROTATABLE_BOND>
0

> <PUBCHEM_CACTVS_SUBSKEYS>
AAADceB6MAAAAAAAAAAAAAAAAAAAAeIAAAA8YMECBgAWAFjAAAAAHgAACAAAD2zhgAYCAAMABgCIAqBSAAAAAAAgAAAACAEIAAgCABIAgQAPQAAGwACYAAO++f+fgAAAAAAAAACAAAYAADAAAaEADQAAAA==

> <PUBCHEM_IUPAC_INCHI>
InChI=1S/C22H29NO3/c1-12-9-20-11-15(24)16-19(2)4-3-5-21(16)17(23-6-7-26-18(19)23)14(20)8-13(12)10-22(20,21)25/h9,13-14,16-18,25H,3-8,10-11H2,1-2H3/t13-,14?,16+,17+,18?,19+,20-,21+,22-/m0/s1

> <PUBCHEM_IUPAC_INCHIKEY>
BDYVYNKEWLPLCY-SRCHUMBQSA-N

> <PUBCHEM_XLOGP3_AA>
1.6

> <PUBCHEM_EXACT_MASS>
355.214744

> <PUBCHEM_MOLECULAR_FORMULA>
C22H29NO3

> <PUBCHEM_MOLECULAR_WEIGHT>
355.47056

> <PUBCHEM_OPENEYE_CAN_SMILES>
CC1=CC23CC(=O)C4C5(CCCC46C2(CC1CC3C6N7C5OCC7)O)C

> <PUBCHEM_OPENEYE_ISO_SMILES>
CC1=C[C@@]23CC(=O)[C@@H]4[C@]5(CCC[C@@]46[C@@]2(C[C@@H]1CC3[C@H]6N7C5OCC7)O)C

> <PUBCHEM_CACTVS_TPSA>
49.8

> <PUBCHEM_MONOISOTOPIC_WEIGHT>
355.214744

> <PUBCHEM_TOTAL_CHARGE>
0

> <PUBCHEM_HEAVY_ATOM_COUNT>
26

> <PUBCHEM_ATOM_DEF_STEREO_COUNT>
7

> <PUBCHEM_ATOM_UDEF_STEREO_COUNT>
2

> <PUBCHEM_BOND_DEF_STEREO_COUNT>
0

> <PUBCHEM_BOND_UDEF_STEREO_COUNT>
0

> <PUBCHEM_ISOTOPIC_ATOM_COUNT>
0

> <PUBCHEM_COMPONENT_COUNT>
1

> <PUBCHEM_CACTVS_TAUTO_COUNT>
2

> <PUBCHEM_COORDINATE_TYPE>
1
5
255

> <PUBCHEM_BONDANNOTATIONS>
6  1  6
10  29  6
11  24  5
15  36  6
17  39  3
5  13  6
7  16  5
8  27  6
9  28  3

$$$$

