   Color/Form

     * WHITE GRANULAR POWDER
     * White, hexagonal crystals.
     * White, crystalline powder.
     * White, free-flowing powder.

   from [1]HSDB

   Odor
        Odorless
   from [2]HSDB

   Taste
        Tasteless.
   from [3]HSDB

   Melting Point
        Melts at red heat with decomposition.
   from [4]HSDB

   Density/Specific Gravity
        2.7 g/cu cm.
   from [5]HSDB

   pH
        SOLN IN COLD WATER IS NEUTRAL
   from [6]HSDB

   Solubilities

     * SOL IN 150 PARTS COLD, 40 PARTS BOILING WATER; INSOL IN ALCOHOL
     * Insoluble in ethanol.
     * In water, 0.64 g/100 g at 20 deg C, 0.76 g/100 g at 25 deg C, 1.27
       g/100 g at 50 deg C, 2.45 g/100 g at 100 deg C.

   from [7]HSDB

   Spectral Properties
        INDEX OF REFRACTION: 1.312, 1.309
   from [8]HSDB

   Other Chemical/Physical Properties
        Solutions of fluosilicates are sensitive to hydrolysis in alkaline
   medium. In the presence of acid, fluosilicate solutions release silicon
   tetrafluoride. The thermal decomposition of fluosilicates takes place
   with release of gaseous silicon tetrfluoride and formation of the solid
   fluoride. /Fluosilicates/
   from [9]HSDB

   Computed Properties
   Molecular Weight                  188.055458 [g/mol]
   Molecular Formula                 F[6]Na[2]Si
   H-Bond Donor                      0
   H-Bond Acceptor                   7
   Rotatable Bond Count              0
   Exact Mass                        187.946884
   MonoIsotopic Mass                 187.946884
   Topological Polar Surface Area    0
   Heavy Atom Count                  9
   Formal Charge                     0
   Complexity                        62.7
   Isotope Atom Count                0
   Defined Atom Stereocenter Count   0
   Undefined Atom Stereocenter Count 0
   Defined Bond Stereocenter Count   0
   Undefined Bond Stereocenter Count 0
   Covalently-Bonded Unit Count      3

References

   1. http://toxnet.nlm.nih.gov/cgi-bin/sis/search/r?dbs+hsdb:@term+@rn+@rel+16893-85-9
   2. http://toxnet.nlm.nih.gov/cgi-bin/sis/search/r?dbs+hsdb:@term+@rn+@rel+16893-85-9
   3. http://toxnet.nlm.nih.gov/cgi-bin/sis/search/r?dbs+hsdb:@term+@rn+@rel+16893-85-9
   4. http://toxnet.nlm.nih.gov/cgi-bin/sis/search/r?dbs+hsdb:@term+@rn+@rel+16893-85-9
   5. http://toxnet.nlm.nih.gov/cgi-bin/sis/search/r?dbs+hsdb:@term+@rn+@rel+16893-85-9
   6. http://toxnet.nlm.nih.gov/cgi-bin/sis/search/r?dbs+hsdb:@term+@rn+@rel+16893-85-9
   7. http://toxnet.nlm.nih.gov/cgi-bin/sis/search/r?dbs+hsdb:@term+@rn+@rel+16893-85-9
   8. http://toxnet.nlm.nih.gov/cgi-bin/sis/search/r?dbs+hsdb:@term+@rn+@rel+16893-85-9
   9. http://toxnet.nlm.nih.gov/cgi-bin/sis/search/r?dbs+hsdb:@term+@rn+@rel+16893-85-9
