   Color/Form

     * YELLOW MONOCLINIC PRISMS FROM WATER OR PETROLEUM ETHER
     * Greenish-yellowish solid
     * Pale-yellow solid.

   from [1]HSDB

   Odor

     * PENETRATING ODOR RESEMBLING THAT OF CHLORINE
     * Acrid, chlorine-like odor.

   from [2]HSDB

   Melting Point
        115.7 DEG C
   from [3]HSDB

   Density/Specific Gravity
        1.318 AT 20 DEG C/4 DEG C
   from [4]HSDB

   Heat of Combustion
        656.6 Kcal/g mol @ 25 deg C
   from [5]HSDB

   Octanol/Water Partition Coefficient
        Log Kow = 0.20
   from [6]HSDB

   Solubilities

     * SOL IN ALKALIES, HOT PETROLEUM ETHER
     * > 10% in ether
     * > 10% in ethanol
     * Water solubility = 1.113X10+4 mg/l @ 18 deg C

   from [7]HSDB

   Spectral Properties

     * MAX ABSORPTION (ALC): 242 NM (LOG E= 4.26), 285 NM SHOULDER (LOG E=
       2.6), 434 NM (LOG E= 1.26), 454 NM (LOG E= 1.22)
     * IR: 21019 (Sadtler Research Laboratories IR Grating Collection)
     * UV: 248 (Sadtler Research Laboratories Spectral Collection)
     * MASS: 333 (Atlas of Mass Spectral Data, John Wiley & Sons, New
       York)
     * NMR: 10391 (Sadtler Research Laboratories Spectral Collection)

   from [8]HSDB

   Surface Tension
        3.2585X10-2 N/m @ melting point
   from [9]HSDB

   Vapor Density
        3.7 (Air= 1)
   from [10]HSDB

   Vapor Pressure
        0.1 MM HG AT 25 DEG C
   from [11]HSDB

   Other Chemical/Physical Properties

     * SUBLIMES; DIPOLE MOMENT: 0.67
     * CONVERSION FACTORS: 1 MG/L IS EQUIVALENT TO 226.4 PPM & 1 PPM IS
       EQUIVALENT TO 0.00442 MG/L AT 25 DEG C, 760 MM HG
     * Ionization potential: 9.67 eV
     * Heat of fusion: 40.97 cal/g
     * Heat of sublimation: 15.00 kcal/mol @ 298 deg K
     * IR: 1300 (Documentation of Molecular Spectroscopy Collection)
       /1,2-Benzoquinone/
     * UV: 3-56 (Organic Electronic Spectral Data, Phillips et al, John
       Wiley & Sons, New York) /1,2-Benzoquinone/
     * MASS: 333 (Atlas of Mass Spectral Data, John Wiley & Sons, New
       York) /1,2-Benzoquinone/
     * Liquid molar volume = 0.099191 cu m/kmol (determined at triple
       point)
     * IG Heat of Formation = -1.2290X10+8 J/kmol
     * Heat of fusion at melting point = 1.845X10+7 J/kmol

   from [12]HSDB

   Computed Properties
   Molecular Weight                  108.09476 [g/mol]
   Molecular Formula                 C[6]H[4]O[2]
   XLogP3                            0.2
   H-Bond Donor                      0
   H-Bond Acceptor                   2
   Rotatable Bond Count              0
   Exact Mass                        108.021129
   MonoIsotopic Mass                 108.021129
   Topological Polar Surface Area    34.1
   Heavy Atom Count                  8
   Formal Charge                     0
   Complexity                        149
   Isotope Atom Count                0
   Defined Atom Stereocenter Count   0
   Undefined Atom Stereocenter Count 0
   Defined Bond Stereocenter Count   0
   Undefined Bond Stereocenter Count 0
   Covalently-Bonded Unit Count      1
   Feature 3D Acceptor Count         2
   Feature 3D Ring Count             1
   Effective Rotor Count             0
   Conformer Sampling RMSD           0.4
   CID Conformer Count               [13]1

References

   1. http://toxnet.nlm.nih.gov/cgi-bin/sis/search/r?dbs+hsdb:@term+@rn+@rel+106-51-4
   2. http://toxnet.nlm.nih.gov/cgi-bin/sis/search/r?dbs+hsdb:@term+@rn+@rel+106-51-4
   3. http://toxnet.nlm.nih.gov/cgi-bin/sis/search/r?dbs+hsdb:@term+@rn+@rel+106-51-4
   4. http://toxnet.nlm.nih.gov/cgi-bin/sis/search/r?dbs+hsdb:@term+@rn+@rel+106-51-4
   5. http://toxnet.nlm.nih.gov/cgi-bin/sis/search/r?dbs+hsdb:@term+@rn+@rel+106-51-4
   6. http://toxnet.nlm.nih.gov/cgi-bin/sis/search/r?dbs+hsdb:@term+@rn+@rel+106-51-4
   7. http://toxnet.nlm.nih.gov/cgi-bin/sis/search/r?dbs+hsdb:@term+@rn+@rel+106-51-4
   8. http://toxnet.nlm.nih.gov/cgi-bin/sis/search/r?dbs+hsdb:@term+@rn+@rel+106-51-4
   9. http://toxnet.nlm.nih.gov/cgi-bin/sis/search/r?dbs+hsdb:@term+@rn+@rel+106-51-4
  10. http://toxnet.nlm.nih.gov/cgi-bin/sis/search/r?dbs+hsdb:@term+@rn+@rel+106-51-4
  11. http://toxnet.nlm.nih.gov/cgi-bin/sis/search/r?dbs+hsdb:@term+@rn+@rel+106-51-4
  12. http://toxnet.nlm.nih.gov/cgi-bin/sis/search/r?dbs+hsdb:@term+@rn+@rel+106-51-4
  13. http://pubchem.ncbi.nlm.nih.gov/vw3d/vw3d.cgi?cid=4650
