   Color/Form
        Colorless crystalline solid /Technical grade, 97% pure/
   from [1]HSDB

   Melting Point
        99 deg C
   from [2]HSDB

   Corrosivity
        Non-corrosive
   from [3]HSDB

   Density/Specific Gravity
        0.54
   from [4]HSDB

   Octanol/Water Partition Coefficient
        log Kow= 2.23
   from [5]HSDB

   Solubilities

     * Practically insoluble in water; soluble in most organic solvents
       including benzene, cyclohexanone, 3,5,5-trimethylcyclohex-2-enone.
     * In water at 20 deg C, 0.47 g/l. In acetone 5.74, benzene 2.04,
       ethanol 3.52, ethyl acetate 2.77 (all in g/l at 20 deg C).

   from [6]HSDB

   Other Chemical/Physical Properties
        Henry's Law constant= 3.91X10-8 atm-cu m/mole (est)
   from [7]HSDB

   Computed Properties
   Molecular Weight                  179.21572 [g/mol]
   Molecular Formula                 C[10]H[13]NO[2]
   XLogP3                            2.2
   H-Bond Donor                      1
   H-Bond Acceptor                   2
   Rotatable Bond Count              2
   Tautomer Count                    2
   Exact Mass                        179.094629
   MonoIsotopic Mass                 179.094629
   Topological Polar Surface Area    38.3
   Heavy Atom Count                  13
   Formal Charge                     0
   Complexity                        172
   Isotope Atom Count                0
   Defined Atom Stereocenter Count   0
   Undefined Atom Stereocenter Count 0
   Defined Bond Stereocenter Count   0
   Undefined Bond Stereocenter Count 0
   Covalently-Bonded Unit Count      1
   Feature 3D Acceptor Count         1
   Feature 3D Donor Count            1
   Feature 3D Ring Count             1
   Effective Rotor Count             3
   Conformer Sampling RMSD           0.6
   CID Conformer Count               [8]15

References

   1. http://toxnet.nlm.nih.gov/cgi-bin/sis/search/r?dbs+hsdb:@term+@rn+@rel+2655-14-3
   2. http://toxnet.nlm.nih.gov/cgi-bin/sis/search/r?dbs+hsdb:@term+@rn+@rel+2655-14-3
   3. http://toxnet.nlm.nih.gov/cgi-bin/sis/search/r?dbs+hsdb:@term+@rn+@rel+2655-14-3
   4. http://toxnet.nlm.nih.gov/cgi-bin/sis/search/r?dbs+hsdb:@term+@rn+@rel+2655-14-3
   5. http://toxnet.nlm.nih.gov/cgi-bin/sis/search/r?dbs+hsdb:@term+@rn+@rel+2655-14-3
   6. http://toxnet.nlm.nih.gov/cgi-bin/sis/search/r?dbs+hsdb:@term+@rn+@rel+2655-14-3
   7. http://toxnet.nlm.nih.gov/cgi-bin/sis/search/r?dbs+hsdb:@term+@rn+@rel+2655-14-3
   8. http://pubchem.ncbi.nlm.nih.gov/vw3d/vw3d.cgi?cid=17563
