442106
  -OEChem-07051212572D

 36 37  0     1  0  0  0  0  0999 V2000
    7.6138    0.1892    0.0000 O   0  5  0  0  0  0  0  0  0  0  0  0
    6.3246   -0.9676    0.0000 O   0  0  0  0  0  0  0  0  0  0  0  0
    6.2781    1.6778    0.0000 N   0  3  0  0  0  0  0  0  0  0  0  0
    4.6783   -2.0390    0.0000 N   0  0  0  0  0  0  0  0  0  0  0  0
    5.9674    0.7272    0.0000 C   0  0  1  0  0  0  0  0  0  0  0  0
    4.9889    0.5210    0.0000 C   0  0  0  0  0  0  0  0  0  0  0  0
    6.5888    2.6283    0.0000 C   0  0  0  0  0  0  0  0  0  0  0  0
    7.2286    1.3671    0.0000 C   0  0  0  0  0  0  0  0  0  0  0  0
    5.3276    1.9884    0.0000 C   0  0  0  0  0  0  0  0  0  0  0  0
    4.6783   -0.4295    0.0000 C   0  0  0  0  0  0  0  0  0  0  0  0
    6.6353   -0.0171    0.0000 C   0  0  0  0  0  0  0  0  0  0  0  0
    3.7320   -0.7342    0.0000 C   0  0  0  0  0  0  0  0  0  0  0  0
    5.2619   -1.2342    0.0000 C   0  0  0  0  0  0  0  0  0  0  0  0
    3.7320   -1.7342    0.0000 C   0  0  0  0  0  0  0  0  0  0  0  0
    2.8660   -0.2342    0.0000 C   0  0  0  0  0  0  0  0  0  0  0  0
    2.8660   -2.2342    0.0000 C   0  0  0  0  0  0  0  0  0  0  0  0
    2.0000   -0.7342    0.0000 C   0  0  0  0  0  0  0  0  0  0  0  0
    2.0000   -1.7342    0.0000 C   0  0  0  0  0  0  0  0  0  0  0  0
    6.5741    0.8551    0.0000 H   0  0  0  0  0  0  0  0  0  0  0  0
    4.9684    1.1407    0.0000 H   0  0  0  0  0  0  0  0  0  0  0  0
    4.3751    0.6084    0.0000 H   0  0  0  0  0  0  0  0  0  0  0  0
    7.1781    2.4357    0.0000 H   0  0  0  0  0  0  0  0  0  0  0  0
    5.5202    2.5778    0.0000 H   0  0  0  0  0  0  0  0  0  0  0  0
    4.7383    2.1810    0.0000 H   0  0  0  0  0  0  0  0  0  0  0  0
    5.1350    1.3991    0.0000 H   0  0  0  0  0  0  0  0  0  0  0  0
    7.0360    0.7778    0.0000 H   0  0  0  0  0  0  0  0  0  0  0  0
    7.8179    1.1745    0.0000 H   0  0  0  0  0  0  0  0  0  0  0  0
    7.4212    1.9564    0.0000 H   0  0  0  0  0  0  0  0  0  0  0  0
    6.7814    3.2176    0.0000 H   0  0  0  0  0  0  0  0  0  0  0  0
    5.9994    2.8209    0.0000 H   0  0  0  0  0  0  0  0  0  0  0  0
    5.8819   -1.2342    0.0000 H   0  0  0  0  0  0  0  0  0  0  0  0
    4.8709   -2.6283    0.0000 H   0  0  0  0  0  0  0  0  0  0  0  0
    2.8660    0.3858    0.0000 H   0  0  0  0  0  0  0  0  0  0  0  0
    2.8660   -2.8542    0.0000 H   0  0  0  0  0  0  0  0  0  0  0  0
    1.4631   -0.4242    0.0000 H   0  0  0  0  0  0  0  0  0  0  0  0
    1.4631   -2.0442    0.0000 H   0  0  0  0  0  0  0  0  0  0  0  0
  1 11  1  0  0  0  0
  2 11  2  0  0  0  0
  3  5  1  0  0  0  0
  3  7  1  0  0  0  0
  3  8  1  0  0  0  0
  3  9  1  0  0  0  0
  4 13  1  0  0  0  0
  4 14  1  0  0  0  0
  4 32  1  0  0  0  0
  5  6  1  0  0  0  0
  5 11  1  6  0  0  0
  5 19  1  0  0  0  0
  6 10  1  0  0  0  0
  6 20  1  0  0  0  0
  6 21  1  0  0  0  0
  7 22  1  0  0  0  0
  7 29  1  0  0  0  0
  7 30  1  0  0  0  0
  8 26  1  0  0  0  0
  8 27  1  0  0  0  0
  8 28  1  0  0  0  0
  9 23  1  0  0  0  0
  9 24  1  0  0  0  0
  9 25  1  0  0  0  0
 10 12  1  0  0  0  0
 10 13  2  0  0  0  0
 12 14  1  0  0  0  0
 12 15  2  0  0  0  0
 13 31  1  0  0  0  0
 14 16  2  0  0  0  0
 15 17  1  0  0  0  0
 15 33  1  0  0  0  0
 16 18  1  0  0  0  0
 16 34  1  0  0  0  0
 17 18  2  0  0  0  0
 17 35  1  0  0  0  0
 18 36  1  0  0  0  0
M  CHG  2   1  -1   3   1
M  END
> <PUBCHEM_COMPOUND_CID>
442106

> <PUBCHEM_COMPOUND_CANONICALIZED>
1

> <PUBCHEM_CACTVS_COMPLEXITY>
306

> <PUBCHEM_CACTVS_HBOND_ACCEPTOR>
2

> <PUBCHEM_CACTVS_HBOND_DONOR>
1

> <PUBCHEM_CACTVS_ROTATABLE_BOND>
3

> <PUBCHEM_CACTVS_SUBSKEYS>
AAADceBzMAAAAAAAAAAAAAAAAAAAAWAAAAAwAAAAAAAAAFgB8AAAHgAQAAAADCjBngQ+yPPJkACoAzT3TACCgCAxAiAI2aG4ZJgKIPLAkbGEIAhkkADYyAeY2fKOgAAAAAACAAAAAAAAAAQAAAAAAAAAAA==

> <PUBCHEM_IUPAC_OPENEYE_NAME>
(2S)-3-(1H-indol-3-yl)-2-(trimethylammonio)propanoate

> <PUBCHEM_IUPAC_CAS_NAME>
(2S)-3-(1H-indol-3-yl)-2-(trimethylammonio)propanoate

> <PUBCHEM_IUPAC_NAME>
(2S)-3-(1H-indol-3-yl)-2-(trimethylazaniumyl)propanoate

> <PUBCHEM_IUPAC_SYSTEMATIC_NAME>
(2S)-3-(1H-indol-3-yl)-2-(trimethylazaniumyl)propanoate

> <PUBCHEM_IUPAC_TRADITIONAL_NAME>
(2S)-3-(1H-indol-3-yl)-2-(trimethylammonio)propionate

> <PUBCHEM_IUPAC_INCHI>
InChI=1S/C14H18N2O2/c1-16(2,3)13(14(17)18)8-10-9-15-12-7-5-4-6-11(10)12/h4-7,9,13,15H,8H2,1-3H3/t13-/m0/s1

> <PUBCHEM_IUPAC_INCHIKEY>
AOHCBEAZXHZMOR-ZDUSSCGKSA-N

> <PUBCHEM_XLOGP3>
2.9

> <PUBCHEM_EXACT_MASS>
246.136828

> <PUBCHEM_MOLECULAR_FORMULA>
C14H18N2O2

> <PUBCHEM_MOLECULAR_WEIGHT>
246.30492

> <PUBCHEM_OPENEYE_CAN_SMILES>
C[N+](C)(C)C(CC1=CNC2=CC=CC=C21)C(=O)[O-]

> <PUBCHEM_OPENEYE_ISO_SMILES>
C[N+](C)(C)[C@@H](CC1=CNC2=CC=CC=C21)C(=O)[O-]

> <PUBCHEM_CACTVS_TPSA>
55.9

> <PUBCHEM_MONOISOTOPIC_WEIGHT>
246.136828

> <PUBCHEM_TOTAL_CHARGE>
0

> <PUBCHEM_HEAVY_ATOM_COUNT>
18

> <PUBCHEM_ATOM_DEF_STEREO_COUNT>
1

> <PUBCHEM_ATOM_UDEF_STEREO_COUNT>
0

> <PUBCHEM_BOND_DEF_STEREO_COUNT>
0

> <PUBCHEM_BOND_UDEF_STEREO_COUNT>
0

> <PUBCHEM_ISOTOPIC_ATOM_COUNT>
0

> <PUBCHEM_COMPONENT_COUNT>
1

> <PUBCHEM_CACTVS_TAUTO_COUNT>
1

> <PUBCHEM_COORDINATE_TYPE>
1
5
255

> <PUBCHEM_BONDANNOTATIONS>
10  12  8
10  13  8
12  14  8
12  15  8
14  16  8
15  17  8
16  18  8
17  18  8
4  13  8
4  14  8
5  11  6

$$$$

