12610
  -OEChem-06261207092D

 19 18  0     0  0  0  0  0  0999 V2000
    3.9030    4.6200    0.0000 S   0  0  0  0  0  0  0  0  0  0  0  0
    4.7690    6.1200    0.0000 Na  0  3  0  0  0  0  0  0  0  0  0  0
    3.9030    5.6200    0.0000 O   0  5  0  0  0  0  0  0  0  0  0  0
    2.9030    4.6200    0.0000 O   0  0  0  0  0  0  0  0  0  0  0  0
    4.9030    4.6200    0.0000 O   0  0  0  0  0  0  0  0  0  0  0  0
    3.9030    3.6200    0.0000 C   0  0  0  0  0  0  0  0  0  0  0  0
    3.9030    1.6200    0.0000 C   0  0  0  0  0  0  0  0  0  0  0  0
    3.0369    3.1200    0.0000 C   0  0  0  0  0  0  0  0  0  0  0  0
    4.7690    3.1200    0.0000 C   0  0  0  0  0  0  0  0  0  0  0  0
    3.0369    2.1200    0.0000 C   0  0  0  0  0  0  0  0  0  0  0  0
    4.7690    2.1200    0.0000 C   0  0  0  0  0  0  0  0  0  0  0  0
    3.9030    0.6200    0.0000 C   0  0  0  0  0  0  0  0  0  0  0  0
    2.5000    3.4300    0.0000 H   0  0  0  0  0  0  0  0  0  0  0  0
    5.3059    3.4300    0.0000 H   0  0  0  0  0  0  0  0  0  0  0  0
    2.5000    1.8100    0.0000 H   0  0  0  0  0  0  0  0  0  0  0  0
    5.3059    1.8100    0.0000 H   0  0  0  0  0  0  0  0  0  0  0  0
    3.2830    0.6200    0.0000 H   0  0  0  0  0  0  0  0  0  0  0  0
    3.9030    0.0000    0.0000 H   0  0  0  0  0  0  0  0  0  0  0  0
    4.5230    0.6200    0.0000 H   0  0  0  0  0  0  0  0  0  0  0  0
  1  3  1  0  0  0  0
  1  4  2  0  0  0  0
  1  5  2  0  0  0  0
  1  6  1  0  0  0  0
  6  8  2  0  0  0  0
  6  9  1  0  0  0  0
  7 10  2  0  0  0  0
  7 11  1  0  0  0  0
  7 12  1  0  0  0  0
  8 10  1  0  0  0  0
  8 13  1  0  0  0  0
  9 11  2  0  0  0  0
  9 14  1  0  0  0  0
 10 15  1  0  0  0  0
 11 16  1  0  0  0  0
 12 17  1  0  0  0  0
 12 18  1  0  0  0  0
 12 19  1  0  0  0  0
M  CHG  2   2   1   3  -1
M  END
> <PUBCHEM_COMPOUND_CID>
12610

> <PUBCHEM_COMPOUND_CANONICALIZED>
1

> <PUBCHEM_CACTVS_COMPLEXITY>
193

> <PUBCHEM_CACTVS_HBOND_ACCEPTOR>
3

> <PUBCHEM_CACTVS_HBOND_DONOR>
0

> <PUBCHEM_CACTVS_ROTATABLE_BOND>
0

> <PUBCHEM_CACTVS_SUBSKEYS>
AAADcYBgMCBAAAAAAAAAAAAAAAAAAAAAAAAwAAAAAAAAAAABAAAAGAQAAAAADACAWAAyAYAAAAKAAiBCAHBCAEAgAAAIiBgAAIgIICKAERCAIAAggAAIiAcAgAAOEAAAAAAAAAAgAAAAAAAAAAAAAAAAAA==

> <PUBCHEM_IUPAC_OPENEYE_NAME>
sodium 4-methylbenzenesulfonate

> <PUBCHEM_IUPAC_CAS_NAME>
sodium 4-methylbenzenesulfonate

> <PUBCHEM_IUPAC_NAME>
sodium 4-methylbenzenesulfonate

> <PUBCHEM_IUPAC_SYSTEMATIC_NAME>
sodium 4-methylbenzenesulfonate

> <PUBCHEM_IUPAC_TRADITIONAL_NAME>
sodium tosylate

> <PUBCHEM_IUPAC_INCHI>
InChI=1S/C7H8O3S.Na/c1-6-2-4-7(5-3-6)11(8,9)10;/h2-5H,1H3,(H,8,9,10);/q;+1/p-1

> <PUBCHEM_IUPAC_INCHIKEY>
KVCGISUBCHHTDD-UHFFFAOYSA-M

> <PUBCHEM_EXACT_MASS>
194.001359

> <PUBCHEM_MOLECULAR_FORMULA>
C7H7NaO3S

> <PUBCHEM_MOLECULAR_WEIGHT>
194.183449

> <PUBCHEM_OPENEYE_CAN_SMILES>
CC1=CC=C(C=C1)S(=O)(=O)[O-].[Na+]

> <PUBCHEM_OPENEYE_ISO_SMILES>
CC1=CC=C(C=C1)S(=O)(=O)[O-].[Na+]

> <PUBCHEM_CACTVS_TPSA>
65.6

> <PUBCHEM_MONOISOTOPIC_WEIGHT>
194.001359

> <PUBCHEM_TOTAL_CHARGE>
0

> <PUBCHEM_HEAVY_ATOM_COUNT>
12

> <PUBCHEM_ATOM_DEF_STEREO_COUNT>
0

> <PUBCHEM_ATOM_UDEF_STEREO_COUNT>
0

> <PUBCHEM_BOND_DEF_STEREO_COUNT>
0

> <PUBCHEM_BOND_UDEF_STEREO_COUNT>
0

> <PUBCHEM_ISOTOPIC_ATOM_COUNT>
0

> <PUBCHEM_COMPONENT_COUNT>
2

> <PUBCHEM_CACTVS_TAUTO_COUNT>
1

> <PUBCHEM_COORDINATE_TYPE>
1
5
255

> <PUBCHEM_BONDANNOTATIONS>
6  8  8
6  9  8
7  10  8
7  11  8
8  10  8
9  11  8

$$$$

