   Color/Form

     * Crystals from aqueous ethanol
     * Yellow powder
     * FINE, WHITE TO SLIGHTLY YELLOW, CRYSTALLINE POWDER

   from [1]HSDB

   Odor
        Odorless
   from [2]HSDB

   Taste
        PRACTICALLY TASTELESS
   from [3]HSDB

   Melting Point
        206 deg C
   from [4]HSDB

   Dissociation Constants
        pKa1= 3.8; pKa2= 7.5
   from [5]HSDB

   Octanol/Water Partition Coefficient
        log Kow = 2.03
   from [6]HSDB

   Solubilities

     * Slightly soluble in chloroform, ether. Soluble in acetone,
       methanol, DMF, aqueous solutions above pH 8.0. Less soluble in
       ethanol.
     * Slightly soluble in polyethylene glycol; insoluble in alcohol, and
       diethyl carbonate.
     * Soluble in dilute NaOH.
     * Freely sol in alkali hydroxide.
     * In water, 73.1 mg/l @ 30 deg C

   from [7]HSDB

   Spectral Properties
        UV Max (95% ethanol): 288, 276, 336 nm (E(1%)(1 cm): 945, 588,
   144); (0.1N NaOH): 226, 273, 336 (E(1%)(1 cm): 1147, 557, 133).
   from [8]HSDB

   Other Chemical/Physical Properties

     * MELTS BETWEEN 203-205 DEG WITH DECOMP
     * A free carboxyl group gives it a strong hydrophilic character
     * The sodium salt can be recrystallized from water; the solubility of
       the salt in water at room temperature is 6%. /Sodium salt/

   from [9]HSDB

   Computed Properties
   Molecular Weight                  330.74414 [g/mol]
   Molecular Formula                 C[12]H[11]ClN[2]O[5]S
   XLogP3                            2
   H-Bond Donor                      3
   H-Bond Acceptor                   7
   Rotatable Bond Count              5
   Tautomer Count                    4
   Exact Mass                        330.00772
   MonoIsotopic Mass                 330.00772
   Topological Polar Surface Area    131
   Heavy Atom Count                  21
   Formal Charge                     0
   Complexity                        481
   Isotope Atom Count                0
   Defined Atom Stereocenter Count   0
   Undefined Atom Stereocenter Count 0
   Defined Bond Stereocenter Count   0
   Undefined Bond Stereocenter Count 0
   Covalently-Bonded Unit Count      1
   Feature 3D Acceptor Count         5
   Feature 3D Donor Count            2
   Feature 3D Anion Count            1
   Feature 3D Cation Count           1
   Feature 3D Ring Count             2
   Effective Rotor Count             5
   Conformer Sampling RMSD           0.8
   CID Conformer Count               [10]21

References

   1. http://toxnet.nlm.nih.gov/cgi-bin/sis/search/r?dbs+hsdb:@term+@rn+@rel+54-31-9
   2. http://toxnet.nlm.nih.gov/cgi-bin/sis/search/r?dbs+hsdb:@term+@rn+@rel+54-31-9
   3. http://toxnet.nlm.nih.gov/cgi-bin/sis/search/r?dbs+hsdb:@term+@rn+@rel+54-31-9
   4. http://toxnet.nlm.nih.gov/cgi-bin/sis/search/r?dbs+hsdb:@term+@rn+@rel+54-31-9
   5. http://toxnet.nlm.nih.gov/cgi-bin/sis/search/r?dbs+hsdb:@term+@rn+@rel+54-31-9
   6. http://toxnet.nlm.nih.gov/cgi-bin/sis/search/r?dbs+hsdb:@term+@rn+@rel+54-31-9
   7. http://toxnet.nlm.nih.gov/cgi-bin/sis/search/r?dbs+hsdb:@term+@rn+@rel+54-31-9
   8. http://toxnet.nlm.nih.gov/cgi-bin/sis/search/r?dbs+hsdb:@term+@rn+@rel+54-31-9
   9. http://toxnet.nlm.nih.gov/cgi-bin/sis/search/r?dbs+hsdb:@term+@rn+@rel+54-31-9
  10. http://pubchem.ncbi.nlm.nih.gov/vw3d/vw3d.cgi?cid=3440
