9543125
  -OEChem-07051213082D

 26 27  0     1  0  0  0  0  0999 V2000
    3.5827   -1.2912    0.0000 O   0  0  0  0  0  0  0  0  0  0  0  0
    7.0468   -1.2912    0.0000 O   0  0  0  0  0  0  0  0  0  0  0  0
    2.6691    0.3020    0.0000 N   0  0  3  0  0  0  0  0  0  0  0  0
    5.3147   -1.2912    0.0000 N   0  0  0  0  0  0  0  0  0  0  0  0
    2.0000    1.0452    0.0000 C   0  0  0  0  0  0  0  0  0  0  0  0
    2.5000    1.9112    0.0000 C   0  0  0  0  0  0  0  0  0  0  0  0
    3.5827    0.7088    0.0000 C   0  0  0  0  0  0  0  0  0  0  0  0
    3.4782    1.7033    0.0000 C   0  0  0  0  0  0  0  0  0  0  0  0
    4.4487    0.2088    0.0000 C   0  0  0  0  0  0  0  0  0  0  0  0
    2.4612   -0.6761    0.0000 C   0  0  0  0  0  0  0  0  0  0  0  0
    4.4487   -0.7912    0.0000 C   0  0  0  0  0  0  0  0  0  0  0  0
    5.3147    0.7088    0.0000 C   0  0  0  0  0  0  0  0  0  0  0  0
    6.1808    0.2088    0.0000 C   0  0  0  0  0  0  0  0  0  0  0  0
    6.1808   -0.7912    0.0000 C   0  0  0  0  0  0  0  0  0  0  0  0
    1.4984    1.4096    0.0000 H   0  0  0  0  0  0  0  0  0  0  0  0
    1.5851    0.5844    0.0000 H   0  0  0  0  0  0  0  0  0  0  0  0
    2.6916    2.5009    0.0000 H   0  0  0  0  0  0  0  0  0  0  0  0
    1.9336    2.1634    0.0000 H   0  0  0  0  0  0  0  0  0  0  0  0
    3.9389    2.1182    0.0000 H   0  0  0  0  0  0  0  0  0  0  0  0
    1.8548   -0.5472    0.0000 H   0  0  0  0  0  0  0  0  0  0  0  0
    2.3323   -1.2826    0.0000 H   0  0  0  0  0  0  0  0  0  0  0  0
    3.0677   -0.8050    0.0000 H   0  0  0  0  0  0  0  0  0  0  0  0
    5.3147    1.3288    0.0000 H   0  0  0  0  0  0  0  0  0  0  0  0
    5.3147   -1.9112    0.0000 H   0  0  0  0  0  0  0  0  0  0  0  0
    6.7177    0.5188    0.0000 H   0  0  0  0  0  0  0  0  0  0  0  0
    3.5827   -1.9112    0.0000 H   0  0  0  0  0  0  0  0  0  0  0  0
  1 11  1  0  0  0  0
  1 26  1  0  0  0  0
  2 14  2  0  0  0  0
  3  5  1  0  0  0  0
  3  7  1  0  0  0  0
  3 10  1  0  0  0  0
  4 11  1  0  0  0  0
  4 14  1  0  0  0  0
  4 24  1  0  0  0  0
  5  6  1  0  0  0  0
  5 15  1  0  0  0  0
  5 16  1  0  0  0  0
  6  8  1  0  0  0  0
  6 17  1  0  0  0  0
  6 18  1  0  0  0  0
  7  8  2  0  0  0  0
  7  9  1  0  0  0  0
  8 19  1  0  0  0  0
  9 11  2  0  0  0  0
  9 12  1  0  0  0  0
 10 20  1  0  0  0  0
 10 21  1  0  0  0  0
 10 22  1  0  0  0  0
 12 13  2  0  0  0  0
 12 23  1  0  0  0  0
 13 14  1  0  0  0  0
 13 25  1  0  0  0  0
M  END
> <PUBCHEM_COMPOUND_CID>
9543125

> <PUBCHEM_COMPOUND_CANONICALIZED>
1

> <PUBCHEM_CACTVS_COMPLEXITY>
366

> <PUBCHEM_CACTVS_HBOND_ACCEPTOR>
3

> <PUBCHEM_CACTVS_HBOND_DONOR>
2

> <PUBCHEM_CACTVS_ROTATABLE_BOND>
1

> <PUBCHEM_CACTVS_SUBSKEYS>
AAADccBzMAAAAAAAAAAAAAAAAAAAAQAAAAAgAAAAAAAAAAAAAAAAHgAQCAAADAjBgAQCAAPAAgCIAiVSUACAAAAgIgAICAAIAEkIAAAAAAAEAAAAEACIgYIAAAAAAAAAAAAAAAAAAAAAAAAAAAAAAAAAAA==

> <PUBCHEM_IUPAC_OPENEYE_NAME>
6-hydroxy-5-(1-methyl-2,3-dihydropyrrol-5-yl)-1H-pyridin-2-one

> <PUBCHEM_IUPAC_CAS_NAME>
6-hydroxy-5-(1-methyl-2,3-dihydropyrrol-5-yl)-1H-pyridin-2-one

> <PUBCHEM_IUPAC_NAME>
6-hydroxy-5-(1-methyl-2,3-dihydropyrrol-5-yl)-1H-pyridin-2-one

> <PUBCHEM_IUPAC_SYSTEMATIC_NAME>
5-(1-methyl-2,3-dihydropyrrol-5-yl)-6-oxidanyl-1H-pyridin-2-one

> <PUBCHEM_IUPAC_TRADITIONAL_NAME>
6-hydroxy-5-(1-methyl-2-pyrrolin-2-yl)-2-pyridone

> <PUBCHEM_IUPAC_INCHI>
InChI=1S/C10H12N2O2/c1-12-6-2-3-8(12)7-4-5-9(13)11-10(7)14/h3-5H,2,6H2,1H3,(H2,11,13,14)

> <PUBCHEM_IUPAC_INCHIKEY>
HYVACOFBTBHJLM-UHFFFAOYSA-N

> <PUBCHEM_XLOGP3_AA>
0.3

> <PUBCHEM_EXACT_MASS>
192.089878

> <PUBCHEM_MOLECULAR_FORMULA>
C10H12N2O2

> <PUBCHEM_MOLECULAR_WEIGHT>
192.21448

> <PUBCHEM_OPENEYE_CAN_SMILES>
CN1CCC=C1C2=C(NC(=O)C=C2)O

> <PUBCHEM_OPENEYE_ISO_SMILES>
CN1CCC=C1C2=C(NC(=O)C=C2)O

> <PUBCHEM_CACTVS_TPSA>
52.6

> <PUBCHEM_MONOISOTOPIC_WEIGHT>
192.089878

> <PUBCHEM_TOTAL_CHARGE>
0

> <PUBCHEM_HEAVY_ATOM_COUNT>
14

> <PUBCHEM_ATOM_DEF_STEREO_COUNT>
0

> <PUBCHEM_ATOM_UDEF_STEREO_COUNT>
0

> <PUBCHEM_BOND_DEF_STEREO_COUNT>
0

> <PUBCHEM_BOND_UDEF_STEREO_COUNT>
0

> <PUBCHEM_ISOTOPIC_ATOM_COUNT>
0

> <PUBCHEM_COMPONENT_COUNT>
1

> <PUBCHEM_CACTVS_TAUTO_COUNT>
12

> <PUBCHEM_COORDINATE_TYPE>
1
5
255

> <PUBCHEM_BONDANNOTATIONS>
12  13  8
13  14  8
4  11  8
4  14  8
9  11  8
9  12  8

$$$$

