   Color/Form

     * Colorless needles from water
     * Off-white crystalline powder

   from [1]HSDB

   Odor
        Odorless
   from [2]HSDB

   Taste
        Intensely sweet
   from [3]HSDB

   Melting Point
        246-247 deg C
   from [4]HSDB

   pH
        0.8% Solution in water has a pH of about 5.3.
   from [5]HSDB

   Solubilities

     * SOLUBILITY IN WATER IN MG/ML @ 25 DEG C: 18.2 @ PH 3.72, 16.1 @ PH
       4.00, 15.2 @ PH 4.05, 14.5 @ PH 4.27, 13.8 @ PH 4.78, 13.5 @ PH
       5.30, 13.7 @ PH 5.70, 14.2 @ PH 6.00; 10.20 @ PH 7.00 IN DISTILLED
       WATER
     * More soluble in acidic solutions and hot water; slightly soluble in
       alcohol; very slightly soluble in chloroform; practically insoluble
       in oils.

   from [6]HSDB

   Spectral Properties
        Specific optical rotation: -2.3 deg @ 22 deg C/D (1 N HCl)
   from [7]HSDB

   Other Chemical/Physical Properties

     * Dipeptide ester about 160 times sweeter than sucrose in aq soln
     * DOUBLE MP: ABOUT 190 AND 245 DEG C
     * In the presence of moisture it hydrolyzes to form
       aspartylphenylalanine and a diketopiperazine derivative, with a
       resulting loss of sweetness.

   from [8]HSDB

   Computed Properties
   Molecular Weight                  294.30312 [g/mol]
   Molecular Formula                 C[14]H[18]N[2]O[5]
   XLogP3                            -2.7
   H-Bond Donor                      3
   H-Bond Acceptor                   6
   Rotatable Bond Count              8
   Tautomer Count                    2
   Exact Mass                        294.121572
   MonoIsotopic Mass                 294.121572
   Topological Polar Surface Area    119
   Heavy Atom Count                  21
   Formal Charge                     0
   Complexity                        380
   Isotope Atom Count                0
   Defined Atom Stereocenter Count   0
   Undefined Atom Stereocenter Count 2
   Defined Bond Stereocenter Count   0
   Undefined Bond Stereocenter Count 0
   Covalently-Bonded Unit Count      1
   Feature 3D Acceptor Count         4
   Feature 3D Donor Count            2
   Feature 3D Anion Count            1
   Feature 3D Cation Count           1
   Feature 3D Ring Count             1
   Effective Rotor Count             9
   Conformer Sampling RMSD           1
   CID Conformer Count               [9]182

References

   1. http://toxnet.nlm.nih.gov/cgi-bin/sis/search/r?dbs+hsdb:@term+@rn+@rel+22839-47-0
   2. http://toxnet.nlm.nih.gov/cgi-bin/sis/search/r?dbs+hsdb:@term+@rn+@rel+22839-47-0
   3. http://toxnet.nlm.nih.gov/cgi-bin/sis/search/r?dbs+hsdb:@term+@rn+@rel+22839-47-0
   4. http://toxnet.nlm.nih.gov/cgi-bin/sis/search/r?dbs+hsdb:@term+@rn+@rel+22839-47-0
   5. http://toxnet.nlm.nih.gov/cgi-bin/sis/search/r?dbs+hsdb:@term+@rn+@rel+22839-47-0
   6. http://toxnet.nlm.nih.gov/cgi-bin/sis/search/r?dbs+hsdb:@term+@rn+@rel+22839-47-0
   7. http://toxnet.nlm.nih.gov/cgi-bin/sis/search/r?dbs+hsdb:@term+@rn+@rel+22839-47-0
   8. http://toxnet.nlm.nih.gov/cgi-bin/sis/search/r?dbs+hsdb:@term+@rn+@rel+22839-47-0
   9. http://pubchem.ncbi.nlm.nih.gov/vw3d/vw3d.cgi?cid=2242
