442961
  -OEChem-07051213002D

 58 62  0     1  0  0  0  0  0999 V2000
    3.7923   -0.5383    0.0000 N   0  0  3  0  0  0  0  0  0  0  0  0
    8.0928   -1.7778    0.0000 N   0  0  0  0  0  0  0  0  0  0  0  0
    6.0903   -1.4274    0.0000 N   0  0  0  0  0  0  0  0  0  0  0  0
    6.2410    0.2981    0.0000 C   0  0  1  0  0  0  0  0  0  0  0  0
    7.9457   -0.7466    0.0000 C   0  0  2  0  0  0  0  0  0  0  0  0
    6.4998    1.2640    0.0000 C   0  0  1  0  0  0  0  0  0  0  0  0
    5.7632    2.2466    0.0000 C   0  0  0  0  0  0  0  0  0  0  0  0
    8.7229   -0.1172    0.0000 C   0  0  1  0  0  0  0  0  0  0  0  0
    3.8968    0.4562    0.0000 C   0  0  1  0  0  0  0  0  0  0  0  0
    4.7059   -0.9451    0.0000 C   0  0  0  0  0  0  0  0  0  0  0  0
    8.3645    0.8163    0.0000 C   0  0  0  0  0  0  0  0  0  0  0  0
    5.6675   -0.5211    0.0000 C   0  0  2  0  0  0  0  0  0  0  0  0
    9.7010   -0.4755    0.0000 C   0  0  0  0  0  0  0  0  0  0  0  0
    3.0637    1.0814    0.0000 C   0  0  0  0  0  0  0  0  0  0  0  0
    4.6714   -0.4341    0.0000 C   0  0  0  0  0  0  0  0  0  0  0  0
    2.8474   -0.9766    0.0000 C   0  0  0  0  0  0  0  0  0  0  0  0
    9.8718   -1.5030    0.0000 C   0  0  0  0  0  0  0  0  0  0  0  0
    9.0623   -2.1585    0.0000 C   0  0  0  0  0  0  0  0  0  0  0  0
    2.1089    0.6651    0.0000 C   0  0  0  0  0  0  0  0  0  0  0  0
    2.0000   -0.3709    0.0000 C   0  0  0  0  0  0  0  0  0  0  0  0
    4.0979   -1.2534    0.0000 C   0  0  0  0  0  0  0  0  0  0  0  0
    5.5168   -2.2466    0.0000 C   0  0  0  0  0  0  0  0  0  0  0  0
    4.5206   -2.1596    0.0000 C   0  0  0  0  0  0  0  0  0  0  0  0
    7.2852   -1.2815    0.0000 H   0  0  0  0  0  0  0  0  0  0  0  0
    6.7198    2.0850    0.0000 H   0  0  0  0  0  0  0  0  0  0  0  0
    6.0810    2.7790    0.0000 H   0  0  0  0  0  0  0  0  0  0  0  0
    5.1501    2.3386    0.0000 H   0  0  0  0  0  0  0  0  0  0  0  0
    9.3834    0.4177    0.0000 H   0  0  0  0  0  0  0  0  0  0  0  0
    3.9857    1.3015    0.0000 H   0  0  0  0  0  0  0  0  0  0  0  0
    4.3682   -1.4650    0.0000 H   0  0  0  0  0  0  0  0  0  0  0  0
    5.1666   -1.3599    0.0000 H   0  0  0  0  0  0  0  0  0  0  0  0
    8.9760    0.9187    0.0000 H   0  0  0  0  0  0  0  0  0  0  0  0
    8.3861    1.4360    0.0000 H   0  0  0  0  0  0  0  0  0  0  0  0
    6.5143   -0.5951    0.0000 H   0  0  0  0  0  0  0  0  0  0  0  0
   10.3209   -0.4799    0.0000 H   0  0  0  0  0  0  0  0  0  0  0  0
    9.8114    0.1346    0.0000 H   0  0  0  0  0  0  0  0  0  0  0  0
    3.5152    1.5063    0.0000 H   0  0  0  0  0  0  0  0  0  0  0  0
    2.7223    1.5989    0.0000 H   0  0  0  0  0  0  0  0  0  0  0  0
    7.6065   -2.1623    0.0000 H   0  0  0  0  0  0  0  0  0  0  0  0
    4.8317    0.1648    0.0000 H   0  0  0  0  0  0  0  0  0  0  0  0
    4.1094   -0.1722    0.0000 H   0  0  0  0  0  0  0  0  0  0  0  0
    2.4058   -1.4119    0.0000 H   0  0  0  0  0  0  0  0  0  0  0  0
    3.2007   -1.4861    0.0000 H   0  0  0  0  0  0  0  0  0  0  0  0
   10.1738   -2.0445    0.0000 H   0  0  0  0  0  0  0  0  0  0  0  0
   10.4570   -1.2981    0.0000 H   0  0  0  0  0  0  0  0  0  0  0  0
    8.7403   -2.6883    0.0000 H   0  0  0  0  0  0  0  0  0  0  0  0
    9.5292   -2.5665    0.0000 H   0  0  0  0  0  0  0  0  0  0  0  0
    6.7080   -1.4813    0.0000 H   0  0  0  0  0  0  0  0  0  0  0  0
    1.9620    1.2674    0.0000 H   0  0  0  0  0  0  0  0  0  0  0  0
    1.4903    0.6234    0.0000 H   0  0  0  0  0  0  0  0  0  0  0  0
    1.4036   -0.2015    0.0000 H   0  0  0  0  0  0  0  0  0  0  0  0
    1.7311   -0.9295    0.0000 H   0  0  0  0  0  0  0  0  0  0  0  0
    3.6594   -0.8150    0.0000 H   0  0  0  0  0  0  0  0  0  0  0  0
    3.5901   -1.6091    0.0000 H   0  0  0  0  0  0  0  0  0  0  0  0
    5.3564   -2.8455    0.0000 H   0  0  0  0  0  0  0  0  0  0  0  0
    6.0788   -2.5086    0.0000 H   0  0  0  0  0  0  0  0  0  0  0  0
    3.9217   -2.3201    0.0000 H   0  0  0  0  0  0  0  0  0  0  0  0
    4.5747   -2.7772    0.0000 H   0  0  0  0  0  0  0  0  0  0  0  0
  1  9  1  0  0  0  0
  1 10  1  0  0  0  0
  1 16  1  0  0  0  0
  2  5  1  0  0  0  0
  2 18  1  0  0  0  0
  2 39  1  0  0  0  0
  3 12  1  0  0  0  0
  3 22  1  0  0  0  0
  3 48  1  0  0  0  0
  4  5  1  0  0  0  0
  4  7  1  1  0  0  0
  4 10  1  0  0  0  0
  4 12  1  0  0  0  0
  5  8  1  0  0  0  0
  5 24  1  1  0  0  0
  6  7  1  0  0  0  0
  6  9  1  0  0  0  0
  6 11  1  0  0  0  0
  6 25  1  1  0  0  0
  7 26  1  0  0  0  0
  7 27  1  0  0  0  0
  8 11  1  0  0  0  0
  8 13  1  0  0  0  0
  8 28  1  6  0  0  0
  9 14  1  0  0  0  0
  9 29  1  1  0  0  0
 10 30  1  0  0  0  0
 10 31  1  0  0  0  0
 11 32  1  0  0  0  0
 11 33  1  0  0  0  0
 12 15  1  0  0  0  0
 12 34  1  6  0  0  0
 13 17  1  0  0  0  0
 13 35  1  0  0  0  0
 13 36  1  0  0  0  0
 14 19  1  0  0  0  0
 14 37  1  0  0  0  0
 14 38  1  0  0  0  0
 15 21  1  0  0  0  0
 15 40  1  0  0  0  0
 15 41  1  0  0  0  0
 16 20  1  0  0  0  0
 16 42  1  0  0  0  0
 16 43  1  0  0  0  0
 17 18  1  0  0  0  0
 17 44  1  0  0  0  0
 17 45  1  0  0  0  0
 18 46  1  0  0  0  0
 18 47  1  0  0  0  0
 19 20  1  0  0  0  0
 19 49  1  0  0  0  0
 19 50  1  0  0  0  0
 20 51  1  0  0  0  0
 20 52  1  0  0  0  0
 21 23  1  0  0  0  0
 21 53  1  0  0  0  0
 21 54  1  0  0  0  0
 22 23  1  0  0  0  0
 22 55  1  0  0  0  0
 22 56  1  0  0  0  0
 23 57  1  0  0  0  0
 23 58  1  0  0  0  0
M  END
> <PUBCHEM_COMPOUND_CID>
442961

> <PUBCHEM_COMPOUND_CANONICALIZED>
1

> <PUBCHEM_CACTVS_COMPLEXITY>
439

> <PUBCHEM_CACTVS_HBOND_ACCEPTOR>
3

> <PUBCHEM_CACTVS_HBOND_DONOR>
2

> <PUBCHEM_CACTVS_ROTATABLE_BOND>
1

> <PUBCHEM_CACTVS_SUBSKEYS>
AAADcfB7AAAAAAAAAAAAAAAAAAAAAAAAAAA8WLFiAAAWAACwAAAAHAAQAAAADyjBAAQAAAPAAAAAAAAAAAAAAAAAAAAAAIAIAAAAAAIAwAAEAAAAEACAAAEQgMAPAAAAAAAAAAAQAAQAAAQAAAAAAAAAAA==

> <PUBCHEM_IUPAC_INCHI>
InChI=1S/C20H35N3/c1-3-9-21-18(8-1)20-13-16(12-15-6-5-10-22-19(15)20)17-7-2-4-11-23(17)14-20/h15-19,21-22H,1-14H2/t15-,16+,17-,18+,19+,20+/m1/s1

> <PUBCHEM_IUPAC_INCHIKEY>
YUKCLPPRYNXRAF-XUFBONQXSA-N

> <PUBCHEM_XLOGP3_AA>
2.7

> <PUBCHEM_EXACT_MASS>
317.283098

> <PUBCHEM_MOLECULAR_FORMULA>
C20H35N3

> <PUBCHEM_MOLECULAR_WEIGHT>
317.512

> <PUBCHEM_OPENEYE_CAN_SMILES>
C1CCNC(C1)C23CC(CC4C2NCCC4)C5CCCCN5C3

> <PUBCHEM_OPENEYE_ISO_SMILES>
C1CCN[C@@H](C1)[C@@]23C[C@H](C[C@@H]4[C@@H]2NCCC4)[C@H]5CCCCN5C3

> <PUBCHEM_CACTVS_TPSA>
27.3

> <PUBCHEM_MONOISOTOPIC_WEIGHT>
317.283098

> <PUBCHEM_TOTAL_CHARGE>
0

> <PUBCHEM_HEAVY_ATOM_COUNT>
23

> <PUBCHEM_ATOM_DEF_STEREO_COUNT>
6

> <PUBCHEM_ATOM_UDEF_STEREO_COUNT>
0

> <PUBCHEM_BOND_DEF_STEREO_COUNT>
0

> <PUBCHEM_BOND_UDEF_STEREO_COUNT>
0

> <PUBCHEM_ISOTOPIC_ATOM_COUNT>
0

> <PUBCHEM_COMPONENT_COUNT>
1

> <PUBCHEM_CACTVS_TAUTO_COUNT>
1

> <PUBCHEM_COORDINATE_TYPE>
1
5
255

> <PUBCHEM_BONDANNOTATIONS>
12  34  6
4  7  5
5  24  5
6  25  5
8  28  6
9  29  5

$$$$

