8551
  -OEChem-06261202532D

 29 30  0     0  0  0  0  0  0999 V2000
    6.7319    3.0242    0.0000 S   0  0  0  0  0  0  0  0  0  0  0  0
    3.8123    6.0378    0.0000 Na  0  3  0  0  0  0  0  0  0  0  0  0
    3.2018    4.0000    0.0000 O   0  0  0  0  0  0  0  0  0  0  0  0
    3.2018    0.0000    0.0000 O   0  0  0  0  0  0  0  0  0  0  0  0
    7.5960    3.5275    0.0000 O   0  0  0  0  0  0  0  0  0  0  0  0
    7.2352    2.1601    0.0000 O   0  0  0  0  0  0  0  0  0  0  0  0
    6.2286    3.8882    0.0000 O   0  0  0  0  0  0  0  0  0  0  0  0
    4.0678    2.5000    0.0000 C   0  0  0  0  0  0  0  0  0  0  0  0
    4.0678    1.5000    0.0000 C   0  0  0  0  0  0  0  0  0  0  0  0
    2.3358    2.5000    0.0000 C   0  0  0  0  0  0  0  0  0  0  0  0
    2.3358    1.5000    0.0000 C   0  0  0  0  0  0  0  0  0  0  0  0
    3.2018    3.0000    0.0000 C   0  0  0  0  0  0  0  0  0  0  0  0
    3.2018    1.0000    0.0000 C   0  0  0  0  0  0  0  0  0  0  0  0
    4.9617    3.0347    0.0000 C   0  0  0  0  0  0  0  0  0  0  0  0
    5.8678    2.5208    0.0000 C   0  0  0  0  0  0  0  0  0  0  0  0
    4.9617    0.9653    0.0000 C   0  0  0  0  0  0  0  0  0  0  0  0
    5.8678    1.4792    0.0000 C   0  0  0  0  0  0  0  0  0  0  0  0
    1.4418    3.0347    0.0000 C   0  0  0  0  0  0  0  0  0  0  0  0
    1.4418    0.9653    0.0000 C   0  0  0  0  0  0  0  0  0  0  0  0
    0.5357    2.5208    0.0000 C   0  0  0  0  0  0  0  0  0  0  0  0
    0.5357    1.4792    0.0000 C   0  0  0  0  0  0  0  0  0  0  0  0
    4.9546    3.6546    0.0000 H   0  0  0  0  0  0  0  0  0  0  0  0
    4.9546    0.3454    0.0000 H   0  0  0  0  0  0  0  0  0  0  0  0
    6.4035    1.1671    0.0000 H   0  0  0  0  0  0  0  0  0  0  0  0
    1.4490    3.6546    0.0000 H   0  0  0  0  0  0  0  0  0  0  0  0
    1.4490    0.3454    0.0000 H   0  0  0  0  0  0  0  0  0  0  0  0
    0.0000    2.8329    0.0000 H   0  0  0  0  0  0  0  0  0  0  0  0
    0.0000    1.1671    0.0000 H   0  0  0  0  0  0  0  0  0  0  0  0
    8.1341    3.2196    0.0000 H   0  0  0  0  0  0  0  0  0  0  0  0
  1  5  1  0  0  0  0
  1  6  2  0  0  0  0
  1  7  2  0  0  0  0
  1 15  1  0  0  0  0
  3 12  2  0  0  0  0
  4 13  2  0  0  0  0
  5 29  1  0  0  0  0
  8  9  2  0  0  0  0
  8 12  1  0  0  0  0
  8 14  1  0  0  0  0
  9 13  1  0  0  0  0
  9 16  1  0  0  0  0
 10 11  1  0  0  0  0
 10 12  1  0  0  0  0
 10 18  2  0  0  0  0
 11 13  1  0  0  0  0
 11 19  2  0  0  0  0
 14 15  2  0  0  0  0
 14 22  1  0  0  0  0
 15 17  1  0  0  0  0
 16 17  2  0  0  0  0
 16 23  1  0  0  0  0
 17 24  1  0  0  0  0
 18 20  1  0  0  0  0
 18 25  1  0  0  0  0
 19 21  1  0  0  0  0
 19 26  1  0  0  0  0
 20 21  2  0  0  0  0
 20 27  1  0  0  0  0
 21 28  1  0  0  0  0
M  CHG  1   2   1
M  END
> <PUBCHEM_COMPOUND_CID>
8551

> <PUBCHEM_COMPOUND_CANONICALIZED>
1

> <PUBCHEM_CACTVS_COMPLEXITY>
532

> <PUBCHEM_CACTVS_HBOND_ACCEPTOR>
5

> <PUBCHEM_CACTVS_HBOND_DONOR>
1

> <PUBCHEM_CACTVS_ROTATABLE_BOND>
1

> <PUBCHEM_CACTVS_SUBSKEYS>
AAADccBwOCBAAAAAAAAAAAAAAAAAAAAAAAAwYMAAAAAAAADBQAAAGgQACAAADASA2AAwAYAAAIKIAqBSAHBCAEAkAAAIiBkAAMgIIDKAFRCAIQAggAAIiYcJiMCOkAAAgAAQAACgAAUAACAAAAAAAAAAAA==

> <PUBCHEM_IUPAC_OPENEYE_NAME>
sodium 9,10-dioxoanthracene-2-sulfonic acid

> <PUBCHEM_IUPAC_CAS_NAME>
sodium 9,10-dioxo-2-anthracenesulfonic acid

> <PUBCHEM_IUPAC_NAME>
sodium 9,10-dioxoanthracene-2-sulfonic acid

> <PUBCHEM_IUPAC_SYSTEMATIC_NAME>
sodium 9,10-bis(oxidanylidene)anthracene-2-sulfonic acid

> <PUBCHEM_IUPAC_TRADITIONAL_NAME>
sodium 9,10-diketoanthracene-2-sulfonic acid

> <PUBCHEM_IUPAC_INCHI>
InChI=1S/C14H8O5S.Na/c15-13-9-3-1-2-4-10(9)14(16)12-7-8(20(17,18)19)5-6-11(12)13;/h1-7H,(H,17,18,19);/q;+1

> <PUBCHEM_IUPAC_INCHIKEY>
GGCZERPQGJTIQP-UHFFFAOYSA-N

> <PUBCHEM_EXACT_MASS>
310.999014

> <PUBCHEM_MOLECULAR_FORMULA>
C14H8NaO5S+

> <PUBCHEM_MOLECULAR_WEIGHT>
311.265089

> <PUBCHEM_OPENEYE_CAN_SMILES>
C1=CC=C2C(=C1)C(=O)C3=C(C2=O)C=C(C=C3)S(=O)(=O)O.[Na+]

> <PUBCHEM_OPENEYE_ISO_SMILES>
C1=CC=C2C(=C1)C(=O)C3=C(C2=O)C=C(C=C3)S(=O)(=O)O.[Na+]

> <PUBCHEM_CACTVS_TPSA>
96.9

> <PUBCHEM_MONOISOTOPIC_WEIGHT>
310.999014

> <PUBCHEM_TOTAL_CHARGE>
1

> <PUBCHEM_HEAVY_ATOM_COUNT>
21

> <PUBCHEM_ATOM_DEF_STEREO_COUNT>
0

> <PUBCHEM_ATOM_UDEF_STEREO_COUNT>
0

> <PUBCHEM_BOND_DEF_STEREO_COUNT>
0

> <PUBCHEM_BOND_UDEF_STEREO_COUNT>
0

> <PUBCHEM_ISOTOPIC_ATOM_COUNT>
0

> <PUBCHEM_COMPONENT_COUNT>
2

> <PUBCHEM_CACTVS_TAUTO_COUNT>
1

> <PUBCHEM_COORDINATE_TYPE>
1
5
255

> <PUBCHEM_BONDANNOTATIONS>
10  11  8
10  18  8
11  19  8
14  15  8
15  17  8
16  17  8
18  20  8
19  21  8
20  21  8
8  14  8
8  9  8
9  16  8

$$$$

