259027
  -OEChem-07051213062D

 51 54  0     1  0  0  0  0  0999 V2000
    8.8462    3.2827    0.0000 O   0  0  0  0  0  0  0  0  0  0  0  0
    6.5130   -2.7861    0.0000 O   0  0  0  0  0  0  0  0  0  0  0  0
    2.8641   -1.7692    0.0000 O   0  0  0  0  0  0  0  0  0  0  0  0
    8.2572    1.2832    0.0000 C   0  0  1  0  0  0  0  0  0  0  0  0
    8.2572    0.2832    0.0000 C   0  0  1  0  0  0  0  0  0  0  0  0
    9.2034    1.5879    0.0000 C   0  0  2  0  0  0  0  0  0  0  0  0
    9.2034   -0.0216    0.0000 C   0  0  0  0  0  0  0  0  0  0  0  0
    7.3912    1.7832    0.0000 C   0  0  0  0  0  0  0  0  0  0  0  0
    9.7870    0.7832    0.0000 C   0  0  0  0  0  0  0  0  0  0  0  0
    7.3912   -0.2168    0.0000 C   0  0  0  0  0  0  0  0  0  0  0  0
    8.2572    2.2832    0.0000 C   0  0  0  0  0  0  0  0  0  0  0  0
    6.5251    1.2832    0.0000 C   0  0  0  0  0  0  0  0  0  0  0  0
    6.5251    0.2832    0.0000 C   0  0  0  0  0  0  0  0  0  0  0  0
    9.5141    2.5384    0.0000 C   0  0  0  0  0  0  0  0  0  0  0  0
    7.4072   -1.2583    0.0000 C   0  0  0  0  0  0  0  0  0  0  0  0
    5.6151   -0.2237    0.0000 C   0  0  0  0  0  0  0  0  0  0  0  0
   10.4926    2.7446    0.0000 C   0  0  0  0  0  0  0  0  0  0  0  0
    5.6071   -1.2653    0.0000 C   0  0  0  0  0  0  0  0  0  0  0  0
    6.5092   -1.7861    0.0000 C   0  0  0  0  0  0  0  0  0  0  0  0
    4.6883    0.3404    0.0000 C   0  0  0  0  0  0  0  0  0  0  0  0
    4.6717   -1.8150    0.0000 C   0  0  0  0  0  0  0  0  0  0  0  0
    3.7404   -0.1875    0.0000 C   0  0  0  0  0  0  0  0  0  0  0  0
    3.7320   -1.2725    0.0000 C   0  0  0  0  0  0  0  0  0  0  0  0
    7.3810   -3.2827    0.0000 C   0  0  0  0  0  0  0  0  0  0  0  0
    2.0000   -1.2658    0.0000 C   0  0  0  0  0  0  0  0  0  0  0  0
    8.3471   -0.5620    0.0000 H   0  0  0  0  0  0  0  0  0  0  0  0
    9.8159    1.6841    0.0000 H   0  0  0  0  0  0  0  0  0  0  0  0
    8.9524   -0.5885    0.0000 H   0  0  0  0  0  0  0  0  0  0  0  0
    9.7408   -0.3308    0.0000 H   0  0  0  0  0  0  0  0  0  0  0  0
    7.7897    2.2581    0.0000 H   0  0  0  0  0  0  0  0  0  0  0  0
    6.9926    2.2581    0.0000 H   0  0  0  0  0  0  0  0  0  0  0  0
   10.2479    0.3685    0.0000 H   0  0  0  0  0  0  0  0  0  0  0  0
   10.2479    1.1979    0.0000 H   0  0  0  0  0  0  0  0  0  0  0  0
    8.8772    2.2832    0.0000 H   0  0  0  0  0  0  0  0  0  0  0  0
    8.2572    2.9032    0.0000 H   0  0  0  0  0  0  0  0  0  0  0  0
    7.6372    2.2832    0.0000 H   0  0  0  0  0  0  0  0  0  0  0  0
    6.3131    1.8658    0.0000 H   0  0  0  0  0  0  0  0  0  0  0  0
    5.9145    1.1755    0.0000 H   0  0  0  0  0  0  0  0  0  0  0  0
    7.9477   -1.5621    0.0000 H   0  0  0  0  0  0  0  0  0  0  0  0
   10.6204    2.1380    0.0000 H   0  0  0  0  0  0  0  0  0  0  0  0
   11.0992    2.8725    0.0000 H   0  0  0  0  0  0  0  0  0  0  0  0
   10.3647    3.3513    0.0000 H   0  0  0  0  0  0  0  0  0  0  0  0
    4.7002    0.9603    0.0000 H   0  0  0  0  0  0  0  0  0  0  0  0
    4.6741   -2.4350    0.0000 H   0  0  0  0  0  0  0  0  0  0  0  0
    3.2071    0.1287    0.0000 H   0  0  0  0  0  0  0  0  0  0  0  0
    7.0730   -3.8209    0.0000 H   0  0  0  0  0  0  0  0  0  0  0  0
    7.9191   -3.5907    0.0000 H   0  0  0  0  0  0  0  0  0  0  0  0
    7.6889   -2.7446    0.0000 H   0  0  0  0  0  0  0  0  0  0  0  0
    2.3121   -0.7301    0.0000 H   0  0  0  0  0  0  0  0  0  0  0  0
    1.4643   -0.9538    0.0000 H   0  0  0  0  0  0  0  0  0  0  0  0
    1.6879   -1.8016    0.0000 H   0  0  0  0  0  0  0  0  0  0  0  0
  1 14  2  0  0  0  0
  2 19  1  0  0  0  0
  2 24  1  0  0  0  0
  3 23  1  0  0  0  0
  3 25  1  0  0  0  0
  4  5  1  0  0  0  0
  4  6  1  0  0  0  0
  4  8  1  0  0  0  0
  4 11  1  1  0  0  0
  5  7  1  0  0  0  0
  5 10  1  0  0  0  0
  5 26  1  6  0  0  0
  6  9  1  0  0  0  0
  6 14  1  1  0  0  0
  6 27  1  0  0  0  0
  7  9  1  0  0  0  0
  7 28  1  0  0  0  0
  7 29  1  0  0  0  0
  8 12  1  0  0  0  0
  8 30  1  0  0  0  0
  8 31  1  0  0  0  0
  9 32  1  0  0  0  0
  9 33  1  0  0  0  0
 10 13  1  0  0  0  0
 10 15  2  0  0  0  0
 11 34  1  0  0  0  0
 11 35  1  0  0  0  0
 11 36  1  0  0  0  0
 12 13  1  0  0  0  0
 12 37  1  0  0  0  0
 12 38  1  0  0  0  0
 13 16  2  0  0  0  0
 14 17  1  0  0  0  0
 15 19  1  0  0  0  0
 15 39  1  0  0  0  0
 16 18  1  0  0  0  0
 16 20  1  0  0  0  0
 17 40  1  0  0  0  0
 17 41  1  0  0  0  0
 17 42  1  0  0  0  0
 18 19  2  0  0  0  0
 18 21  1  0  0  0  0
 20 22  2  0  0  0  0
 20 43  1  0  0  0  0
 21 23  2  0  0  0  0
 21 44  1  0  0  0  0
 22 23  1  0  0  0  0
 22 45  1  0  0  0  0
 24 46  1  0  0  0  0
 24 47  1  0  0  0  0
 24 48  1  0  0  0  0
 25 49  1  0  0  0  0
 25 50  1  0  0  0  0
 25 51  1  0  0  0  0
M  END
> <PUBCHEM_COMPOUND_CID>
259027

> <PUBCHEM_COMPOUND_CANONICALIZED>
1

> <PUBCHEM_CACTVS_COMPLEXITY>
517

> <PUBCHEM_CACTVS_HBOND_ACCEPTOR>
3

> <PUBCHEM_CACTVS_HBOND_DONOR>
0

> <PUBCHEM_CACTVS_ROTATABLE_BOND>
3

> <PUBCHEM_CACTVS_SUBSKEYS>
AAADceB4MAAAAAAAAAAAAAAAAAAAAYAAAAAwYMAAAAAAAGDBUAAAGgAAAAAADwSAmAIyBsAABACIAqBSAAACCAAgIAAIiAEGCIgMJjKEMRqAMCAkwBEIqAfIyPCP4AADAAAYAADAAAYAADAAAQAACAAAAA==

> <PUBCHEM_IUPAC_OPENEYE_NAME>
1-[(13S,14R,17S)-3,6-dimethoxy-13-methyl-11,12,14,15,16,17-hexahydrocyclopenta[a]phenanthren-17-yl]ethanone

> <PUBCHEM_IUPAC_CAS_NAME>
1-[(13S,14R,17S)-3,6-dimethoxy-13-methyl-11,12,14,15,16,17-hexahydrocyclopenta[a]phenanthren-17-yl]ethanone

> <PUBCHEM_IUPAC_NAME>
1-[(13S,14R,17S)-3,6-dimethoxy-13-methyl-11,12,14,15,16,17-hexahydrocyclopenta[a]phenanthren-17-yl]ethanone

> <PUBCHEM_IUPAC_SYSTEMATIC_NAME>
1-[(13S,14R,17S)-3,6-dimethoxy-13-methyl-11,12,14,15,16,17-hexahydrocyclopenta[a]phenanthren-17-yl]ethanone

> <PUBCHEM_IUPAC_TRADITIONAL_NAME>
1-[(13S,14R,17S)-3,6-dimethoxy-13-methyl-11,12,14,15,16,17-hexahydrocyclopenta[a]phenanthren-17-yl]ethanone

> <PUBCHEM_IUPAC_INCHI>
InChI=1S/C22H26O3/c1-13(23)19-7-8-20-17-12-21(25-4)18-11-14(24-3)5-6-15(18)16(17)9-10-22(19,20)2/h5-6,11-12,19-20H,7-10H2,1-4H3/t19-,20+,22-/m1/s1

> <PUBCHEM_IUPAC_INCHIKEY>
JAAOEGCBXVGVLL-RZUBCFFCSA-N

> <PUBCHEM_XLOGP3_AA>
4.8

> <PUBCHEM_EXACT_MASS>
338.188195

> <PUBCHEM_MOLECULAR_FORMULA>
C22H26O3

> <PUBCHEM_MOLECULAR_WEIGHT>
338.44004

> <PUBCHEM_OPENEYE_CAN_SMILES>
CC(=O)C1CCC2C1(CCC3=C4C=CC(=CC4=C(C=C23)OC)OC)C

> <PUBCHEM_OPENEYE_ISO_SMILES>
CC(=O)[C@H]1CC[C@@H]2[C@@]1(CCC3=C4C=CC(=CC4=C(C=C23)OC)OC)C

> <PUBCHEM_CACTVS_TPSA>
35.5

> <PUBCHEM_MONOISOTOPIC_WEIGHT>
338.188195

> <PUBCHEM_TOTAL_CHARGE>
0

> <PUBCHEM_HEAVY_ATOM_COUNT>
25

> <PUBCHEM_ATOM_DEF_STEREO_COUNT>
3

> <PUBCHEM_ATOM_UDEF_STEREO_COUNT>
0

> <PUBCHEM_BOND_DEF_STEREO_COUNT>
0

> <PUBCHEM_BOND_UDEF_STEREO_COUNT>
0

> <PUBCHEM_ISOTOPIC_ATOM_COUNT>
0

> <PUBCHEM_COMPONENT_COUNT>
1

> <PUBCHEM_CACTVS_TAUTO_COUNT>
3

> <PUBCHEM_COORDINATE_TYPE>
1
5
255

> <PUBCHEM_BONDANNOTATIONS>
10  13  8
10  15  8
13  16  8
15  19  8
16  18  8
16  20  8
18  19  8
18  21  8
20  22  8
21  23  8
22  23  8
4  11  5
5  26  6
6  14  5

$$$$

