17395404
  -OEChem-06241222502D

 47 48  0     0  0  0  0  0  0999 V2000
    3.0000   -1.4330    0.0000 S   0  0  0  0  0  0  0  0  0  0  0  0
    3.8660    4.0670    0.0000 S   0  0  0  0  0  0  0  0  0  0  0  0
    3.0000   -5.4330    0.0000 F   0  0  0  0  0  0  0  0  0  0  0  0
    2.0000   -1.4330    0.0000 O   0  0  0  0  0  0  0  0  0  0  0  0
    4.0000   -1.4330    0.0000 O   0  0  0  0  0  0  0  0  0  0  0  0
    2.1340    3.0670    0.0000 O   0  0  0  0  0  0  0  0  0  0  0  0
    3.0000   -0.4330    0.0000 N   0  0  0  0  0  0  0  0  0  0  0  0
    3.0000    1.5670    0.0000 N   0  0  0  0  0  0  0  0  0  0  0  0
    2.1340    0.0670    0.0000 C   0  0  0  0  0  0  0  0  0  0  0  0
    3.8660    0.0670    0.0000 C   0  0  0  0  0  0  0  0  0  0  0  0
    2.1340    1.0670    0.0000 C   0  0  0  0  0  0  0  0  0  0  0  0
    3.8660    1.0670    0.0000 C   0  0  0  0  0  0  0  0  0  0  0  0
    3.0000    2.5670    0.0000 C   0  0  0  0  0  0  0  0  0  0  0  0
    3.0000   -2.4330    0.0000 C   0  0  0  0  0  0  0  0  0  0  0  0
    3.8660    3.0670    0.0000 C   0  0  0  0  0  0  0  0  0  0  0  0
    4.7320    4.5670    0.0000 C   0  0  0  0  0  0  0  0  0  0  0  0
    5.5981    5.0670    0.0000 C   0  0  0  0  0  0  0  0  0  0  0  0
    4.2320    5.4330    0.0000 C   0  0  0  0  0  0  0  0  0  0  0  0
    5.2320    3.7010    0.0000 C   0  0  0  0  0  0  0  0  0  0  0  0
    2.1340   -2.9330    0.0000 C   0  0  0  0  0  0  0  0  0  0  0  0
    3.8660   -2.9330    0.0000 C   0  0  0  0  0  0  0  0  0  0  0  0
    2.1340   -3.9330    0.0000 C   0  0  0  0  0  0  0  0  0  0  0  0
    3.8660   -3.9330    0.0000 C   0  0  0  0  0  0  0  0  0  0  0  0
    3.0000   -4.4330    0.0000 C   0  0  0  0  0  0  0  0  0  0  0  0
    4.0781   -0.5156    0.0000 H   0  0  0  0  0  0  0  0  0  0  0  0
    4.4766    0.1746    0.0000 H   0  0  0  0  0  0  0  0  0  0  0  0
    1.5234    0.1746    0.0000 H   0  0  0  0  0  0  0  0  0  0  0  0
    1.9219   -0.5156    0.0000 H   0  0  0  0  0  0  0  0  0  0  0  0
    4.4766    0.9593    0.0000 H   0  0  0  0  0  0  0  0  0  0  0  0
    4.0781    1.6496    0.0000 H   0  0  0  0  0  0  0  0  0  0  0  0
    1.9219    1.6496    0.0000 H   0  0  0  0  0  0  0  0  0  0  0  0
    1.5234    0.9593    0.0000 H   0  0  0  0  0  0  0  0  0  0  0  0
    4.0781    2.4844    0.0000 H   0  0  0  0  0  0  0  0  0  0  0  0
    4.4766    3.1747    0.0000 H   0  0  0  0  0  0  0  0  0  0  0  0
    4.6951    3.3910    0.0000 H   0  0  0  0  0  0  0  0  0  0  0  0
    5.5420    3.1640    0.0000 H   0  0  0  0  0  0  0  0  0  0  0  0
    5.9081    4.5300    0.0000 H   0  0  0  0  0  0  0  0  0  0  0  0
    6.1350    5.3770    0.0000 H   0  0  0  0  0  0  0  0  0  0  0  0
    5.7690    4.0110    0.0000 H   0  0  0  0  0  0  0  0  0  0  0  0
    4.7690    5.7430    0.0000 H   0  0  0  0  0  0  0  0  0  0  0  0
    3.9220    5.9700    0.0000 H   0  0  0  0  0  0  0  0  0  0  0  0
    3.6951    5.1230    0.0000 H   0  0  0  0  0  0  0  0  0  0  0  0
    5.2881    5.6039    0.0000 H   0  0  0  0  0  0  0  0  0  0  0  0
    1.5970   -2.6230    0.0000 H   0  0  0  0  0  0  0  0  0  0  0  0
    4.4030   -2.6230    0.0000 H   0  0  0  0  0  0  0  0  0  0  0  0
    1.5970   -4.2430    0.0000 H   0  0  0  0  0  0  0  0  0  0  0  0
    4.4030   -4.2430    0.0000 H   0  0  0  0  0  0  0  0  0  0  0  0
  1  4  2  0  0  0  0
  1  5  2  0  0  0  0
  1  7  1  0  0  0  0
  1 14  1  0  0  0  0
  2 15  1  0  0  0  0
  2 16  1  0  0  0  0
  3 24  1  0  0  0  0
  6 13  2  0  0  0  0
  7  9  1  0  0  0  0
  7 10  1  0  0  0  0
  8 11  1  0  0  0  0
  8 12  1  0  0  0  0
  8 13  1  0  0  0  0
  9 11  1  0  0  0  0
  9 27  1  0  0  0  0
  9 28  1  0  0  0  0
 10 12  1  0  0  0  0
 10 25  1  0  0  0  0
 10 26  1  0  0  0  0
 11 31  1  0  0  0  0
 11 32  1  0  0  0  0
 12 29  1  0  0  0  0
 12 30  1  0  0  0  0
 13 15  1  0  0  0  0
 14 20  2  0  0  0  0
 14 21  1  0  0  0  0
 15 33  1  0  0  0  0
 15 34  1  0  0  0  0
 16 17  1  0  0  0  0
 16 18  1  0  0  0  0
 16 19  1  0  0  0  0
 17 37  1  0  0  0  0
 17 38  1  0  0  0  0
 17 43  1  0  0  0  0
 18 40  1  0  0  0  0
 18 41  1  0  0  0  0
 18 42  1  0  0  0  0
 19 35  1  0  0  0  0
 19 36  1  0  0  0  0
 19 39  1  0  0  0  0
 20 22  1  0  0  0  0
 20 44  1  0  0  0  0
 21 23  2  0  0  0  0
 21 45  1  0  0  0  0
 22 24  2  0  0  0  0
 22 46  1  0  0  0  0
 23 24  1  0  0  0  0
 23 47  1  0  0  0  0
M  END
> <PUBCHEM_COMPOUND_CID>
17395404

> <PUBCHEM_COMPOUND_CANONICALIZED>
1

> <PUBCHEM_CACTVS_COMPLEXITY>
527

> <PUBCHEM_CACTVS_HBOND_ACCEPTOR>
6

> <PUBCHEM_CACTVS_HBOND_DONOR>
0

> <PUBCHEM_CACTVS_ROTATABLE_BOND>
5

> <PUBCHEM_CACTVS_SUBSKEYS>
AAADceB7MQBgAAAAAAAAAAAAAAAAAAAAAAA8QAAAAAAAAAABAAAAHwQAQAAADADF0AyyAYMAAAqIACFSEHBCABAgABAIiBgIAIgIYCKAERCQIAAghgCoiAcAAAAAAAAAAAAAAAAAAAAAAAAAAAAAAAAAAA==

> <PUBCHEM_IUPAC_OPENEYE_NAME>
2-tert-butylsulfanyl-1-[4-(4-fluorophenyl)sulfonylpiperazin-1-yl]ethanone

> <PUBCHEM_IUPAC_CAS_NAME>
2-(tert-butylthio)-1-[4-(4-fluorophenyl)sulfonyl-1-piperazinyl]ethanone

> <PUBCHEM_IUPAC_NAME>
2-tert-butylsulfanyl-1-[4-(4-fluorophenyl)sulfonylpiperazin-1-yl]ethanone

> <PUBCHEM_IUPAC_SYSTEMATIC_NAME>
2-tert-butylsulfanyl-1-[4-(4-fluorophenyl)sulfonylpiperazin-1-yl]ethanone

> <PUBCHEM_IUPAC_TRADITIONAL_NAME>
2-(tert-butylthio)-1-[4-(4-fluorophenyl)sulfonylpiperazino]ethanone

> <PUBCHEM_IUPAC_INCHI>
InChI=1S/C16H23FN2O3S2/c1-16(2,3)23-12-15(20)18-8-10-19(11-9-18)24(21,22)14-6-4-13(17)5-7-14/h4-7H,8-12H2,1-3H3

> <PUBCHEM_IUPAC_INCHIKEY>
WIRAHHJLRYVKQA-UHFFFAOYSA-N

> <PUBCHEM_XLOGP3_AA>
2.1

> <PUBCHEM_EXACT_MASS>
374.113413

> <PUBCHEM_MOLECULAR_FORMULA>
C16H23FN2O3S2

> <PUBCHEM_MOLECULAR_WEIGHT>
374.493823

> <PUBCHEM_OPENEYE_CAN_SMILES>
CC(C)(C)SCC(=O)N1CCN(CC1)S(=O)(=O)C2=CC=C(C=C2)F

> <PUBCHEM_OPENEYE_ISO_SMILES>
CC(C)(C)SCC(=O)N1CCN(CC1)S(=O)(=O)C2=CC=C(C=C2)F

> <PUBCHEM_CACTVS_TPSA>
91.4

> <PUBCHEM_MONOISOTOPIC_WEIGHT>
374.113413

> <PUBCHEM_TOTAL_CHARGE>
0

> <PUBCHEM_HEAVY_ATOM_COUNT>
24

> <PUBCHEM_ATOM_DEF_STEREO_COUNT>
0

> <PUBCHEM_ATOM_UDEF_STEREO_COUNT>
0

> <PUBCHEM_BOND_DEF_STEREO_COUNT>
0

> <PUBCHEM_BOND_UDEF_STEREO_COUNT>
0

> <PUBCHEM_ISOTOPIC_ATOM_COUNT>
0

> <PUBCHEM_COMPONENT_COUNT>
1

> <PUBCHEM_CACTVS_TAUTO_COUNT>
1

> <PUBCHEM_COORDINATE_TYPE>
1
5
255

> <PUBCHEM_BONDANNOTATIONS>
14  20  8
14  21  8
20  22  8
21  23  8
22  24  8
23  24  8

$$$$

