442369
  -OEChem-07051212572D

 79 86  0     1  0  0  0  0  0999 V2000
    5.5440    1.2751    0.0000 O   0  0  0  0  0  0  0  0  0  0  0  0
    5.5440    3.3444    0.0000 O   0  0  0  0  0  0  0  0  0  0  0  0
    3.7841    4.3098    0.0000 O   0  0  0  0  0  0  0  0  0  0  0  0
    6.6080   -3.9052    0.0000 O   0  0  0  0  0  0  0  0  0  0  0  0
    8.0095   -3.6293    0.0000 O   0  0  0  0  0  0  0  0  0  0  0  0
    2.9021   -0.2595    0.0000 N   0  0  3  0  0  0  0  0  0  0  0  0
    9.9133    1.7999    0.0000 N   0  0  3  0  0  0  0  0  0  0  0  0
    3.8001    0.2683    0.0000 C   0  0  2  0  0  0  0  0  0  0  0  0
    9.0264    1.2969    0.0000 C   0  0  2  0  0  0  0  0  0  0  0  0
    3.7841    1.3098    0.0000 C   0  0  0  0  0  0  0  0  0  0  0  0
    8.1513    1.8203    0.0000 C   0  0  0  0  0  0  0  0  0  0  0  0
    2.9180    1.8098    0.0000 C   0  0  0  0  0  0  0  0  0  0  0  0
    2.0000    0.2613    0.0000 C   0  0  0  0  0  0  0  0  0  0  0  0
    2.0080    1.3029    0.0000 C   0  0  0  0  0  0  0  0  0  0  0  0
    4.0624   -0.6961    0.0000 C   0  0  0  0  0  0  0  0  0  0  0  0
    8.1513    2.7992    0.0000 C   0  0  0  0  0  0  0  0  0  0  0  0
    9.9133    2.8196    0.0000 C   0  0  0  0  0  0  0  0  0  0  0  0
    9.0264    3.3226    0.0000 C   0  0  0  0  0  0  0  0  0  0  0  0
    4.6501    1.8098    0.0000 C   0  0  0  0  0  0  0  0  0  0  0  0
    9.1492    0.3051    0.0000 C   0  0  0  0  0  0  0  0  0  0  0  0
    7.3096    1.3205    0.0000 C   0  0  0  0  0  0  0  0  0  0  0  0
    4.6501    2.8098    0.0000 C   0  0  0  0  0  0  0  0  0  0  0  0
    6.4501    1.7890    0.0000 C   0  0  0  0  0  0  0  0  0  0  0  0
    6.4501    2.8306    0.0000 C   0  0  0  0  0  0  0  0  0  0  0  0
    7.3096    3.2990    0.0000 C   0  0  0  0  0  0  0  0  0  0  0  0
    2.9180    2.8098    0.0000 C   0  0  0  0  0  0  0  0  0  0  0  0
    4.6595   -1.4974    0.0000 C   0  0  0  0  0  0  0  0  0  0  0  0
    2.9059   -1.2595    0.0000 C   0  0  0  0  0  0  0  0  0  0  0  0
    3.7841    3.3098    0.0000 C   0  0  0  0  0  0  0  0  0  0  0  0
    8.9002   -0.6628    0.0000 C   0  0  0  0  0  0  0  0  0  0  0  0
   10.7774    1.2966    0.0000 C   0  0  0  0  0  0  0  0  0  0  0  0
    5.5087   -2.0245    0.0000 C   0  0  0  0  0  0  0  0  0  0  0  0
    8.3142   -1.4723    0.0000 C   0  0  0  0  0  0  0  0  0  0  0  0
    6.4918   -2.2039    0.0000 C   0  0  0  0  0  0  0  0  0  0  0  0
    7.4724   -2.0109    0.0000 C   0  0  0  0  0  0  0  0  0  0  0  0
    4.4054   -2.4543    0.0000 C   0  0  0  0  0  0  0  0  0  0  0  0
    9.4980   -1.4520    0.0000 C   0  0  0  0  0  0  0  0  0  0  0  0
    6.0377   -3.0837    0.0000 C   0  0  0  0  0  0  0  0  0  0  0  0
    5.0548   -3.2017    0.0000 C   0  0  0  0  0  0  0  0  0  0  0  0
    8.2260   -2.6530    0.0000 C   0  0  0  0  0  0  0  0  0  0  0  0
    9.1804   -2.3896    0.0000 C   0  0  0  0  0  0  0  0  0  0  0  0
    2.9180    4.8098    0.0000 C   0  0  0  0  0  0  0  0  0  0  0  0
    6.1818   -4.8098    0.0000 C   0  0  0  0  0  0  0  0  0  0  0  0
    4.5329    0.6989    0.0000 H   0  0  0  0  0  0  0  0  0  0  0  0
    9.7858    0.9151    0.0000 H   0  0  0  0  0  0  0  0  0  0  0  0
    1.3900    0.3721    0.0000 H   0  0  0  0  0  0  0  0  0  0  0  0
    1.7864   -0.3207    0.0000 H   0  0  0  0  0  0  0  0  0  0  0  0
    1.8035    1.8882    0.0000 H   0  0  0  0  0  0  0  0  0  0  0  0
    1.3964    1.2015    0.0000 H   0  0  0  0  0  0  0  0  0  0  0  0
    3.4478   -0.6138    0.0000 H   0  0  0  0  0  0  0  0  0  0  0  0
    4.6198   -0.4248    0.0000 H   0  0  0  0  0  0  0  0  0  0  0  0
   10.5242    2.7135    0.0000 H   0  0  0  0  0  0  0  0  0  0  0  0
   10.1224    3.4033    0.0000 H   0  0  0  0  0  0  0  0  0  0  0  0
    9.4200    3.8016    0.0000 H   0  0  0  0  0  0  0  0  0  0  0  0
    8.6218    3.7924    0.0000 H   0  0  0  0  0  0  0  0  0  0  0  0
    9.6426   -0.0703    0.0000 H   0  0  0  0  0  0  0  0  0  0  0  0
    8.5304    0.3450    0.0000 H   0  0  0  0  0  0  0  0  0  0  0  0
    7.3210    0.7006    0.0000 H   0  0  0  0  0  0  0  0  0  0  0  0
    7.3210    3.9189    0.0000 H   0  0  0  0  0  0  0  0  0  0  0  0
    2.3811    3.1198    0.0000 H   0  0  0  0  0  0  0  0  0  0  0  0
    2.2859   -1.2619    0.0000 H   0  0  0  0  0  0  0  0  0  0  0  0
    2.9083   -1.8795    0.0000 H   0  0  0  0  0  0  0  0  0  0  0  0
    3.5259   -1.2571    0.0000 H   0  0  0  0  0  0  0  0  0  0  0  0
   10.4653    0.7609    0.0000 H   0  0  0  0  0  0  0  0  0  0  0  0
   11.3131    0.9845    0.0000 H   0  0  0  0  0  0  0  0  0  0  0  0
   11.0895    1.8324    0.0000 H   0  0  0  0  0  0  0  0  0  0  0  0
    5.2856   -2.6030    0.0000 H   0  0  0  0  0  0  0  0  0  0  0  0
    8.7398   -1.9231    0.0000 H   0  0  0  0  0  0  0  0  0  0  0  0
    3.8014   -2.5944    0.0000 H   0  0  0  0  0  0  0  0  0  0  0  0
   10.1100   -1.3527    0.0000 H   0  0  0  0  0  0  0  0  0  0  0  0
    4.8317   -3.7802    0.0000 H   0  0  0  0  0  0  0  0  0  0  0  0
    9.6060   -2.8404    0.0000 H   0  0  0  0  0  0  0  0  0  0  0  0
    3.2280    5.3467    0.0000 H   0  0  0  0  0  0  0  0  0  0  0  0
    2.3811    5.1198    0.0000 H   0  0  0  0  0  0  0  0  0  0  0  0
    2.6080    4.2728    0.0000 H   0  0  0  0  0  0  0  0  0  0  0  0
    8.4666   -4.0482    0.0000 H   0  0  0  0  0  0  0  0  0  0  0  0
    5.6210   -4.5455    0.0000 H   0  0  0  0  0  0  0  0  0  0  0  0
    5.9176   -5.3706    0.0000 H   0  0  0  0  0  0  0  0  0  0  0  0
    6.7427   -5.0740    0.0000 H   0  0  0  0  0  0  0  0  0  0  0  0
  1 19  1  0  0  0  0
  1 23  1  0  0  0  0
  2 22  1  0  0  0  0
  2 24  1  0  0  0  0
  3 29  1  0  0  0  0
  3 42  1  0  0  0  0
  4 38  1  0  0  0  0
  4 43  1  0  0  0  0
  5 40  1  0  0  0  0
  5 76  1  0  0  0  0
  6  8  1  0  0  0  0
  6 13  1  0  0  0  0
  6 28  1  0  0  0  0
  7  9  1  0  0  0  0
  7 17  1  0  0  0  0
  7 31  1  0  0  0  0
  8 10  1  0  0  0  0
  8 15  1  0  0  0  0
  8 44  1  1  0  0  0
  9 11  1  0  0  0  0
  9 20  1  0  0  0  0
  9 45  1  6  0  0  0
 10 12  1  0  0  0  0
 10 19  2  0  0  0  0
 11 16  1  0  0  0  0
 11 21  2  0  0  0  0
 12 14  1  0  0  0  0
 12 26  2  0  0  0  0
 13 14  1  0  0  0  0
 13 46  1  0  0  0  0
 13 47  1  0  0  0  0
 14 48  1  0  0  0  0
 14 49  1  0  0  0  0
 15 27  1  0  0  0  0
 15 50  1  0  0  0  0
 15 51  1  0  0  0  0
 16 18  1  0  0  0  0
 16 25  2  0  0  0  0
 17 18  1  0  0  0  0
 17 52  1  0  0  0  0
 17 53  1  0  0  0  0
 18 54  1  0  0  0  0
 18 55  1  0  0  0  0
 19 22  1  0  0  0  0
 20 30  1  0  0  0  0
 20 56  1  0  0  0  0
 20 57  1  0  0  0  0
 21 23  1  0  0  0  0
 21 58  1  0  0  0  0
 22 29  2  0  0  0  0
 23 24  2  0  0  0  0
 24 25  1  0  0  0  0
 25 59  1  0  0  0  0
 26 29  1  0  0  0  0
 26 60  1  0  0  0  0
 27 32  2  0  0  0  0
 27 36  1  0  0  0  0
 28 61  1  0  0  0  0
 28 62  1  0  0  0  0
 28 63  1  0  0  0  0
 30 33  2  0  0  0  0
 30 37  1  0  0  0  0
 31 64  1  0  0  0  0
 31 65  1  0  0  0  0
 31 66  1  0  0  0  0
 32 34  1  0  0  0  0
 32 67  1  0  0  0  0
 33 35  1  0  0  0  0
 33 68  1  0  0  0  0
 34 35  1  0  0  0  0
 34 38  2  0  0  0  0
 35 40  2  0  0  0  0
 36 39  2  0  0  0  0
 36 69  1  0  0  0  0
 37 41  2  0  0  0  0
 37 70  1  0  0  0  0
 38 39  1  0  0  0  0
 39 71  1  0  0  0  0
 40 41  1  0  0  0  0
 41 72  1  0  0  0  0
 42 73  1  0  0  0  0
 42 74  1  0  0  0  0
 42 75  1  0  0  0  0
 43 77  1  0  0  0  0
 43 78  1  0  0  0  0
 43 79  1  0  0  0  0
M  END
> <PUBCHEM_COMPOUND_CID>
442369

> <PUBCHEM_COMPOUND_CANONICALIZED>
1

> <PUBCHEM_CACTVS_COMPLEXITY>
983

> <PUBCHEM_CACTVS_HBOND_ACCEPTOR>
7

> <PUBCHEM_CACTVS_HBOND_DONOR>
1

> <PUBCHEM_CACTVS_ROTATABLE_BOND>
2

> <PUBCHEM_CACTVS_SUBSKEYS>
AAADcfB/OAAAAAAAAAAAAAAAAAAAAAAAAAA8eNGCAAAAAACxVAAAHgAACAAADCzBmAYyBoMABgCAAiBCAACCCAAgIAAIiAAOjIgNJyKGsRuGeCrnwBWKuAfw8P8OoAADCAAYQABAAAYQADCAAAAAAAAAAA==

> <PUBCHEM_IUPAC_INCHI>
InChI=1S/C36H36N2O5/c1-37-11-9-22-17-31-32-19-24(22)27(37)15-20-5-7-29(39)25(13-20)26-14-21(6-8-30(26)40-3)16-28-34-23(10-12-38(28)2)18-33(41-4)35(42-31)36(34)43-32/h5-8,13-14,17-19,27-28,39H,9-12,15-16H2,1-4H3/t27-,28-/m0/s1

> <PUBCHEM_IUPAC_INCHIKEY>
DQIJJKSVYLLDQW-NSOVKSMOSA-N

> <PUBCHEM_XLOGP3_AA>
6.1

> <PUBCHEM_EXACT_MASS>
576.262422

> <PUBCHEM_MOLECULAR_FORMULA>
C36H36N2O5

> <PUBCHEM_MOLECULAR_WEIGHT>
576.68144

> <PUBCHEM_OPENEYE_CAN_SMILES>
CN1CCC2=CC3=C4C=C2C1CC5=CC(=C(C=C5)O)C6=C(C=CC(=C6)CC7C8=C(O4)C(=C(C=C8CCN7C)OC)O3)OC

> <PUBCHEM_OPENEYE_ISO_SMILES>
CN1CCC2=CC3=C4C=C2[C@@H]1CC5=CC(=C(C=C5)O)C6=C(C=CC(=C6)C[C@H]7C8=C(O4)C(=C(C=C8CCN7C)OC)O3)OC

> <PUBCHEM_CACTVS_TPSA>
63.6

> <PUBCHEM_MONOISOTOPIC_WEIGHT>
576.262422

> <PUBCHEM_TOTAL_CHARGE>
0

> <PUBCHEM_HEAVY_ATOM_COUNT>
43

> <PUBCHEM_ATOM_DEF_STEREO_COUNT>
2

> <PUBCHEM_ATOM_UDEF_STEREO_COUNT>
0

> <PUBCHEM_BOND_DEF_STEREO_COUNT>
0

> <PUBCHEM_BOND_UDEF_STEREO_COUNT>
0

> <PUBCHEM_ISOTOPIC_ATOM_COUNT>
0

> <PUBCHEM_COMPONENT_COUNT>
1

> <PUBCHEM_CACTVS_TAUTO_COUNT>
1

> <PUBCHEM_COORDINATE_TYPE>
1
5
255

> <PUBCHEM_BONDANNOTATIONS>
10  12  8
10  19  8
11  16  8
11  21  8
12  26  8
16  25  8
19  22  8
21  23  8
22  29  8
23  24  8
24  25  8
26  29  8
27  32  8
27  36  8
30  33  8
30  37  8
32  34  8
33  35  8
34  38  8
35  40  8
36  39  8
37  41  8
38  39  8
40  41  8
8  44  5
9  45  6

$$$$

