25246329
  -OEChem-07051213152D

 44 48  0     0  0  0  0  0  0999 V2000
    9.8590   -1.2448    0.0000 Cl  0  0  0  0  0  0  0  0  0  0  0  0
    2.8660   -3.5036    0.0000 Cl  0  0  0  0  0  0  0  0  0  0  0  0
    6.6495    3.1401    0.0000 O   0  0  0  0  0  0  0  0  0  0  0  0
    2.9040    1.9303    0.0000 O   0  0  0  0  0  0  0  0  0  0  0  0
    7.6651    1.7371    0.0000 O   0  0  0  0  0  0  0  0  0  0  0  0
    2.9010    0.1982    0.0000 O   0  0  0  0  0  0  0  0  0  0  0  0
    4.9917    1.8696    0.0000 N   0  0  0  0  0  0  0  0  0  0  0  0
    4.6783   -2.3084    0.0000 N   0  0  0  0  0  0  0  0  0  0  0  0
    7.6900   -1.3355    0.0000 N   0  0  0  0  0  0  0  0  0  0  0  0
    4.9889    0.2516    0.0000 C   0  0  0  0  0  0  0  0  0  0  0  0
    5.9405    0.5590    0.0000 C   0  0  0  0  0  0  0  0  0  0  0  0
    4.6783   -0.6989    0.0000 C   0  0  0  0  0  0  0  0  0  0  0  0
    6.7485   -0.0302    0.0000 C   0  0  0  0  0  0  0  0  0  0  0  0
    4.4026    1.0616    0.0000 C   0  0  0  0  0  0  0  0  0  0  0  0
    5.9422    1.5590    0.0000 C   0  0  0  0  0  0  0  0  0  0  0  0
    3.7320   -1.0036    0.0000 C   0  0  0  0  0  0  0  0  0  0  0  0
    7.6942    0.2762    0.0000 C   0  0  0  0  0  0  0  0  0  0  0  0
    3.7320   -2.0036    0.0000 C   0  0  0  0  0  0  0  0  0  0  0  0
    8.2792   -0.5349    0.0000 C   0  0  0  0  0  0  0  0  0  0  0  0
    6.7459   -1.0243    0.0000 C   0  0  0  0  0  0  0  0  0  0  0  0
    5.2619   -1.5036    0.0000 C   0  0  0  0  0  0  0  0  0  0  0  0
    8.1041    1.1883    0.0000 C   0  0  0  0  0  0  0  0  0  0  0  0
    2.8660   -0.5036    0.0000 C   0  0  0  0  0  0  0  0  0  0  0  0
    2.8660   -2.5036    0.0000 C   0  0  0  0  0  0  0  0  0  0  0  0
    9.2741   -0.4338    0.0000 C   0  0  0  0  0  0  0  0  0  0  0  0
    3.4026    1.0634    0.0000 C   0  0  0  0  0  0  0  0  0  0  0  0
    6.7523    2.1454    0.0000 C   0  0  0  0  0  0  0  0  0  0  0  0
    9.0990    1.2894    0.0000 C   0  0  0  0  0  0  0  0  0  0  0  0
    2.0000   -1.0036    0.0000 C   0  0  0  0  0  0  0  0  0  0  0  0
    9.6840    0.4783    0.0000 C   0  0  0  0  0  0  0  0  0  0  0  0
    2.0000   -2.0036    0.0000 C   0  0  0  0  0  0  0  0  0  0  0  0
    4.8012    2.4596    0.0000 H   0  0  0  0  0  0  0  0  0  0  0  0
    5.8819   -1.5036    0.0000 H   0  0  0  0  0  0  0  0  0  0  0  0
    6.2431   -1.3870    0.0000 H   0  0  0  0  0  0  0  0  0  0  0  0
    4.8709   -2.8977    0.0000 H   0  0  0  0  0  0  0  0  0  0  0  0
    7.8786   -1.9262    0.0000 H   0  0  0  0  0  0  0  0  0  0  0  0
    2.8660    0.1164    0.0000 H   0  0  0  0  0  0  0  0  0  0  0  0
    7.7414    1.6912    0.0000 H   0  0  0  0  0  0  0  0  0  0  0  0
    1.4631   -0.6936    0.0000 H   0  0  0  0  0  0  0  0  0  0  0  0
    9.3531    1.8549    0.0000 H   0  0  0  0  0  0  0  0  0  0  0  0
    1.4631   -2.3136    0.0000 H   0  0  0  0  0  0  0  0  0  0  0  0
   10.3008    0.5410    0.0000 H   0  0  0  0  0  0  0  0  0  0  0  0
    2.2840    1.9314    0.0000 H   0  0  0  0  0  0  0  0  0  0  0  0
    7.1517    3.5036    0.0000 H   0  0  0  0  0  0  0  0  0  0  0  0
  1 25  1  0  0  0  0
  2 24  1  0  0  0  0
  3 27  1  0  0  0  0
  3 44  1  0  0  0  0
  4 26  1  0  0  0  0
  4 43  1  0  0  0  0
  5 27  2  0  0  0  0
  6 26  2  0  0  0  0
  7 14  1  0  0  0  0
  7 15  1  0  0  0  0
  7 32  1  0  0  0  0
  8 18  1  0  0  0  0
  8 21  1  0  0  0  0
  8 35  1  0  0  0  0
  9 19  1  0  0  0  0
  9 20  1  0  0  0  0
  9 36  1  0  0  0  0
 10 11  1  0  0  0  0
 10 12  1  0  0  0  0
 10 14  2  0  0  0  0
 11 13  1  0  0  0  0
 11 15  2  0  0  0  0
 12 16  1  0  0  0  0
 12 21  2  0  0  0  0
 13 17  1  0  0  0  0
 13 20  2  0  0  0  0
 14 26  1  0  0  0  0
 15 27  1  0  0  0  0
 16 18  2  0  0  0  0
 16 23  1  0  0  0  0
 17 19  2  0  0  0  0
 17 22  1  0  0  0  0
 18 24  1  0  0  0  0
 19 25  1  0  0  0  0
 20 34  1  0  0  0  0
 21 33  1  0  0  0  0
 22 28  2  0  0  0  0
 22 38  1  0  0  0  0
 23 29  2  0  0  0  0
 23 37  1  0  0  0  0
 24 31  2  0  0  0  0
 25 30  2  0  0  0  0
 28 30  1  0  0  0  0
 28 40  1  0  0  0  0
 29 31  1  0  0  0  0
 29 39  1  0  0  0  0
 30 42  1  0  0  0  0
 31 41  1  0  0  0  0
M  END
> <PUBCHEM_COMPOUND_CID>
25246329

> <PUBCHEM_COMPOUND_CANONICALIZED>
1

> <PUBCHEM_CACTVS_COMPLEXITY>
669

> <PUBCHEM_CACTVS_HBOND_ACCEPTOR>
4

> <PUBCHEM_CACTVS_HBOND_DONOR>
5

> <PUBCHEM_CACTVS_ROTATABLE_BOND>
4

> <PUBCHEM_CACTVS_SUBSKEYS>
AAADccB7OAAGAAAAAAAAAAAAAAAAAWLFgAAwYAAAAAAAAFgB/gAAHgIQCAAADArBniQ8yPLJkgCoAzT3TASCgCA3BSAI2aGoTtgKJvLBl7HEcQhkwAHY2QeY2fOegAAAIAACABAAAABAAAQAIAAAAAAAAA==

> <PUBCHEM_IUPAC_OPENEYE_NAME>
3,4-bis(7-chloro-1H-indol-3-yl)-1H-pyrrole-2,5-dicarboxylic acid

> <PUBCHEM_IUPAC_CAS_NAME>
3,4-bis(7-chloro-1H-indol-3-yl)-1H-pyrrole-2,5-dicarboxylic acid

> <PUBCHEM_IUPAC_NAME>
3,4-bis(7-chloro-1H-indol-3-yl)-1H-pyrrole-2,5-dicarboxylic acid

> <PUBCHEM_IUPAC_SYSTEMATIC_NAME>
3,4-bis(7-chloranyl-1H-indol-3-yl)-1H-pyrrole-2,5-dicarboxylic acid

> <PUBCHEM_IUPAC_TRADITIONAL_NAME>
3,4-bis(7-chloro-1H-indol-3-yl)-1H-pyrrole-2,5-dicarboxylic acid

> <PUBCHEM_IUPAC_INCHI>
InChI=1S/C22H13Cl2N3O4/c23-13-5-1-3-9-11(7-25-17(9)13)15-16(20(22(30)31)27-19(15)21(28)29)12-8-26-18-10(12)4-2-6-14(18)24/h1-8,25-27H,(H,28,29)(H,30,31)

> <PUBCHEM_IUPAC_INCHIKEY>
OAMCCJASDLMTOO-UHFFFAOYSA-N

> <PUBCHEM_XLOGP3_AA>
5.2

> <PUBCHEM_EXACT_MASS>
453.028311

> <PUBCHEM_MOLECULAR_FORMULA>
C22H13Cl2N3O4

> <PUBCHEM_MOLECULAR_WEIGHT>
454.26232

> <PUBCHEM_OPENEYE_CAN_SMILES>
C1=CC2=C(C(=C1)Cl)NC=C2C3=C(NC(=C3C4=CNC5=C4C=CC=C5Cl)C(=O)O)C(=O)O

> <PUBCHEM_OPENEYE_ISO_SMILES>
C1=CC2=C(C(=C1)Cl)NC=C2C3=C(NC(=C3C4=CNC5=C4C=CC=C5Cl)C(=O)O)C(=O)O

> <PUBCHEM_CACTVS_TPSA>
122

> <PUBCHEM_MONOISOTOPIC_WEIGHT>
453.028311

> <PUBCHEM_TOTAL_CHARGE>
0

> <PUBCHEM_HEAVY_ATOM_COUNT>
31

> <PUBCHEM_ATOM_DEF_STEREO_COUNT>
0

> <PUBCHEM_ATOM_UDEF_STEREO_COUNT>
0

> <PUBCHEM_BOND_DEF_STEREO_COUNT>
0

> <PUBCHEM_BOND_UDEF_STEREO_COUNT>
0

> <PUBCHEM_ISOTOPIC_ATOM_COUNT>
0

> <PUBCHEM_COMPONENT_COUNT>
1

> <PUBCHEM_CACTVS_TAUTO_COUNT>
30

> <PUBCHEM_COORDINATE_TYPE>
1
5
255

> <PUBCHEM_BONDANNOTATIONS>
10  11  8
10  14  8
11  15  8
12  16  8
12  21  8
13  17  8
13  20  8
16  18  8
16  23  8
17  19  8
17  22  8
18  24  8
19  25  8
22  28  8
23  29  8
24  31  8
25  30  8
28  30  8
29  31  8
7  14  8
7  15  8
8  18  8
8  21  8
9  19  8
9  20  8

$$$$

