442831
  -OEChem-07051212592D

 54 57  0     1  0  0  0  0  0999 V2000
    3.2547   -0.0018    0.0000 O   0  0  0  0  0  0  0  0  0  0  0  0
    6.3234   -0.0018    0.0000 O   0  0  0  0  0  0  0  0  0  0  0  0
    4.7936    1.4982    0.0000 O   0  0  0  0  0  0  0  0  0  0  0  0
    6.5256    1.4982    0.0000 O   0  0  0  0  0  0  0  0  0  0  0  0
    4.5628    4.1956    0.0000 O   0  0  0  0  0  0  0  0  0  0  0  0
    5.0254   -4.1962    0.0000 O   0  0  0  0  0  0  0  0  0  0  0  0
    2.6064    4.6114    0.0000 O   0  0  0  0  0  0  0  0  0  0  0  0
    6.9824   -4.6086    0.0000 O   0  0  0  0  0  0  0  0  0  0  0  0
    4.7936    0.4982    0.0000 C   0  0  2  0  0  0  0  0  0  0  0  0
    4.7936   -0.5018    0.0000 C   0  0  1  0  0  0  0  0  0  0  0  0
    3.8425    0.8072    0.0000 C   0  0  1  0  0  0  0  0  0  0  0  0
    5.7398   -0.8065    0.0000 C   0  0  1  0  0  0  0  0  0  0  0  0
    5.7398    0.8029    0.0000 C   0  0  0  0  0  0  0  0  0  0  0  0
    3.8425   -0.8108    0.0000 C   0  0  0  0  0  0  0  0  0  0  0  0
    3.5335    1.7583    0.0000 C   0  0  0  0  0  0  0  0  0  0  0  0
    6.0505   -1.7570    0.0000 C   0  0  0  0  0  0  0  0  0  0  0  0
    4.2026    2.5014    0.0000 C   0  0  0  0  0  0  0  0  0  0  0  0
    2.5553    1.9662    0.0000 C   0  0  0  0  0  0  0  0  0  0  0  0
    5.3826   -2.5013    0.0000 C   0  0  0  0  0  0  0  0  0  0  0  0
    7.0290   -1.9633    0.0000 C   0  0  0  0  0  0  0  0  0  0  0  0
    5.6596    1.9982    0.0000 C   0  0  0  0  0  0  0  0  0  0  0  0
    3.8936    3.4525    0.0000 C   0  0  0  0  0  0  0  0  0  0  0  0
    5.6933   -3.4519    0.0000 C   0  0  0  0  0  0  0  0  0  0  0  0
    2.2463    2.9172    0.0000 C   0  0  0  0  0  0  0  0  0  0  0  0
    7.3396   -2.9138    0.0000 C   0  0  0  0  0  0  0  0  0  0  0  0
    5.6596    2.9982    0.0000 C   0  0  0  0  0  0  0  0  0  0  0  0
    2.9155    3.6604    0.0000 C   0  0  0  0  0  0  0  0  0  0  0  0
    6.6718   -3.6581    0.0000 C   0  0  0  0  0  0  0  0  0  0  0  0
    4.2537    5.1467    0.0000 C   0  0  0  0  0  0  0  0  0  0  0  0
    5.3361   -5.1467    0.0000 C   0  0  0  0  0  0  0  0  0  0  0  0
    4.7947   -1.3518    0.0000 H   0  0  0  0  0  0  0  0  0  0  0  0
    3.2302    0.9042    0.0000 H   0  0  0  0  0  0  0  0  0  0  0  0
    6.3523   -0.9027    0.0000 H   0  0  0  0  0  0  0  0  0  0  0  0
    6.2772    1.1122    0.0000 H   0  0  0  0  0  0  0  0  0  0  0  0
    5.4888    1.3698    0.0000 H   0  0  0  0  0  0  0  0  0  0  0  0
    3.3056   -1.1208    0.0000 H   0  0  0  0  0  0  0  0  0  0  0  0
    4.0947   -1.3772    0.0000 H   0  0  0  0  0  0  0  0  0  0  0  0
    4.8091    2.3725    0.0000 H   0  0  0  0  0  0  0  0  0  0  0  0
    2.1405    1.5054    0.0000 H   0  0  0  0  0  0  0  0  0  0  0  0
    4.7759   -2.3735    0.0000 H   0  0  0  0  0  0  0  0  0  0  0  0
    7.4430   -1.5018    0.0000 H   0  0  0  0  0  0  0  0  0  0  0  0
    1.6399    3.0462    0.0000 H   0  0  0  0  0  0  0  0  0  0  0  0
    7.9463   -3.0416    0.0000 H   0  0  0  0  0  0  0  0  0  0  0  0
    6.2796    2.9982    0.0000 H   0  0  0  0  0  0  0  0  0  0  0  0
    5.6596    3.6182    0.0000 H   0  0  0  0  0  0  0  0  0  0  0  0
    5.0396    2.9982    0.0000 H   0  0  0  0  0  0  0  0  0  0  0  0
    2.0000    4.7404    0.0000 H   0  0  0  0  0  0  0  0  0  0  0  0
    7.5891   -4.7365    0.0000 H   0  0  0  0  0  0  0  0  0  0  0  0
    4.8434    5.3383    0.0000 H   0  0  0  0  0  0  0  0  0  0  0  0
    4.0621    5.7363    0.0000 H   0  0  0  0  0  0  0  0  0  0  0  0
    3.6641    4.9551    0.0000 H   0  0  0  0  0  0  0  0  0  0  0  0
    4.7468   -5.3393    0.0000 H   0  0  0  0  0  0  0  0  0  0  0  0
    5.5287   -5.7360    0.0000 H   0  0  0  0  0  0  0  0  0  0  0  0
    5.9254   -4.9541    0.0000 H   0  0  0  0  0  0  0  0  0  0  0  0
  1 11  1  0  0  0  0
  1 14  1  0  0  0  0
  2 12  1  0  0  0  0
  2 13  1  0  0  0  0
  9  3  1  6  0  0  0
  3 21  1  0  0  0  0
  4 21  2  0  0  0  0
  5 22  1  0  0  0  0
  5 29  1  0  0  0  0
  6 23  1  0  0  0  0
  6 30  1  0  0  0  0
  7 27  1  0  0  0  0
  7 47  1  0  0  0  0
  8 28  1  0  0  0  0
  8 48  1  0  0  0  0
  9 10  1  0  0  0  0
  9 11  1  0  0  0  0
  9 13  1  0  0  0  0
 10 12  1  0  0  0  0
 10 14  1  0  0  0  0
 10 31  1  6  0  0  0
 11 15  1  6  0  0  0
 11 32  1  0  0  0  0
 12 16  1  6  0  0  0
 12 33  1  0  0  0  0
 13 34  1  0  0  0  0
 13 35  1  0  0  0  0
 14 36  1  0  0  0  0
 14 37  1  0  0  0  0
 15 17  2  0  0  0  0
 15 18  1  0  0  0  0
 16 19  2  0  0  0  0
 16 20  1  0  0  0  0
 17 22  1  0  0  0  0
 17 38  1  0  0  0  0
 18 24  2  0  0  0  0
 18 39  1  0  0  0  0
 19 23  1  0  0  0  0
 19 40  1  0  0  0  0
 20 25  2  0  0  0  0
 20 41  1  0  0  0  0
 21 26  1  0  0  0  0
 22 27  2  0  0  0  0
 23 28  2  0  0  0  0
 24 27  1  0  0  0  0
 24 42  1  0  0  0  0
 25 28  1  0  0  0  0
 25 43  1  0  0  0  0
 26 44  1  0  0  0  0
 26 45  1  0  0  0  0
 26 46  1  0  0  0  0
 29 49  1  0  0  0  0
 29 50  1  0  0  0  0
 29 51  1  0  0  0  0
 30 52  1  0  0  0  0
 30 53  1  0  0  0  0
 30 54  1  0  0  0  0
M  END
> <PUBCHEM_COMPOUND_CID>
442831

> <PUBCHEM_COMPOUND_CANONICALIZED>
1

> <PUBCHEM_CACTVS_COMPLEXITY>
614

> <PUBCHEM_CACTVS_HBOND_ACCEPTOR>
8

> <PUBCHEM_CACTVS_HBOND_DONOR>
2

> <PUBCHEM_CACTVS_ROTATABLE_BOND>
6

> <PUBCHEM_CACTVS_SUBSKEYS>
AAADceB4PAAAAAAAAAAAAAAAAAAAASJAAAAwYAAAAAASAAABQAAAGgAACAAADVSgmAIyDoAABgCIAiDSCAACCAAgIAAIiAAGiIgNJiKGMRqCcCMlwBELuAfA4PwOoAABAAAAQABAAAIAAACAAAAAAAAAAA==

> <PUBCHEM_IUPAC_OPENEYE_NAME>
[(3R,3aS,6S,6aR)-3,6-bis(4-hydroxy-3-methoxy-phenyl)-3,4,6,6a-tetrahydro-1H-furo[3,4-c]furan-3a-yl] acetate

> <PUBCHEM_IUPAC_CAS_NAME>
acetic acid [(3R,3aS,6S,6aR)-3,6-bis(4-hydroxy-3-methoxyphenyl)-3,4,6,6a-tetrahydro-1H-furo[3,4-c]furan-3a-yl] ester

> <PUBCHEM_IUPAC_NAME>
[(3R,3aS,6S,6aR)-3,6-bis(4-hydroxy-3-methoxyphenyl)-3,4,6,6a-tetrahydro-1H-furo[3,4-c]furan-3a-yl] acetate

> <PUBCHEM_IUPAC_SYSTEMATIC_NAME>
[(3R,3aS,6S,6aR)-3,6-bis(3-methoxy-4-oxidanyl-phenyl)-3,4,6,6a-tetrahydro-1H-furo[3,4-c]furan-3a-yl] ethanoate

> <PUBCHEM_IUPAC_TRADITIONAL_NAME>
acetic acid [(3R,3aS,6S,6aR)-3,6-bis(4-hydroxy-3-methoxy-phenyl)-3,4,6,6a-tetrahydro-1H-furo[3,4-c]furan-3a-yl] ester

> <PUBCHEM_IUPAC_INCHI>
InChI=1S/C22H24O8/c1-12(23)30-22-11-29-20(13-4-6-16(24)18(8-13)26-2)15(22)10-28-21(22)14-5-7-17(25)19(9-14)27-3/h4-9,15,20-21,24-25H,10-11H2,1-3H3/t15-,20-,21-,22-/m1/s1

> <PUBCHEM_IUPAC_INCHIKEY>
NATDFORNCKZPCI-FPHUIIFBSA-N

> <PUBCHEM_XLOGP3_AA>
1.8

> <PUBCHEM_EXACT_MASS>
416.147118

> <PUBCHEM_MOLECULAR_FORMULA>
C22H24O8

> <PUBCHEM_MOLECULAR_WEIGHT>
416.42116

> <PUBCHEM_OPENEYE_CAN_SMILES>
CC(=O)OC12COC(C1COC2C3=CC(=C(C=C3)O)OC)C4=CC(=C(C=C4)O)OC

> <PUBCHEM_OPENEYE_ISO_SMILES>
CC(=O)O[C@]12CO[C@@H]([C@H]1CO[C@@H]2C3=CC(=C(C=C3)O)OC)C4=CC(=C(C=C4)O)OC

> <PUBCHEM_CACTVS_TPSA>
104

> <PUBCHEM_MONOISOTOPIC_WEIGHT>
416.147118

> <PUBCHEM_TOTAL_CHARGE>
0

> <PUBCHEM_HEAVY_ATOM_COUNT>
30

> <PUBCHEM_ATOM_DEF_STEREO_COUNT>
4

> <PUBCHEM_ATOM_UDEF_STEREO_COUNT>
0

> <PUBCHEM_BOND_DEF_STEREO_COUNT>
0

> <PUBCHEM_BOND_UDEF_STEREO_COUNT>
0

> <PUBCHEM_ISOTOPIC_ATOM_COUNT>
0

> <PUBCHEM_COMPONENT_COUNT>
1

> <PUBCHEM_CACTVS_TAUTO_COUNT>
8

> <PUBCHEM_COORDINATE_TYPE>
1
5
255

> <PUBCHEM_BONDANNOTATIONS>
10  31  6
11  15  6
12  16  6
15  17  8
15  18  8
16  19  8
16  20  8
17  22  8
18  24  8
19  23  8
20  25  8
22  27  8
23  28  8
24  27  8
25  28  8
9  3  6

$$$$

