62432
  -OEChem-07051213142D

 30 32  0     0  0  0  0  0  0999 V2000
    4.8660   -0.5670    0.0000 S   0  0  0  0  0  0  0  0  0  0  0  0
    3.8660   -0.5670    0.0000 P   0  0  0  0  0  0  0  0  0  0  0  0
    3.8660    2.4330    0.0000 O   0  0  0  0  0  0  0  0  0  0  0  0
    3.8660   -1.5670    0.0000 N   0  0  0  0  0  0  0  0  0  0  0  0
    2.8660   -0.5670    0.0000 N   0  0  0  0  0  0  0  0  0  0  0  0
    3.8660    0.4330    0.0000 N   0  0  0  0  0  0  0  0  0  0  0  0
    3.3660   -2.4330    0.0000 C   0  0  0  0  0  0  0  0  0  0  0  0
    4.3660   -2.4330    0.0000 C   0  0  0  0  0  0  0  0  0  0  0  0
    2.0000   -0.0670    0.0000 C   0  0  0  0  0  0  0  0  0  0  0  0
    2.0000   -1.0670    0.0000 C   0  0  0  0  0  0  0  0  0  0  0  0
    4.7320    0.9330    0.0000 C   0  0  0  0  0  0  0  0  0  0  0  0
    3.0000    0.9330    0.0000 C   0  0  0  0  0  0  0  0  0  0  0  0
    4.7320    1.9330    0.0000 C   0  0  0  0  0  0  0  0  0  0  0  0
    3.0000    1.9330    0.0000 C   0  0  0  0  0  0  0  0  0  0  0  0
    4.4737   -3.0436    0.0000 H   0  0  0  0  0  0  0  0  0  0  0  0
    4.9486   -2.2210    0.0000 H   0  0  0  0  0  0  0  0  0  0  0  0
    2.7834   -2.2210    0.0000 H   0  0  0  0  0  0  0  0  0  0  0  0
    3.2584   -3.0436    0.0000 H   0  0  0  0  0  0  0  0  0  0  0  0
    2.2120    0.5156    0.0000 H   0  0  0  0  0  0  0  0  0  0  0  0
    1.3894    0.0407    0.0000 H   0  0  0  0  0  0  0  0  0  0  0  0
    1.3894   -1.1746    0.0000 H   0  0  0  0  0  0  0  0  0  0  0  0
    2.2120   -1.6496    0.0000 H   0  0  0  0  0  0  0  0  0  0  0  0
    2.3894    1.0407    0.0000 H   0  0  0  0  0  0  0  0  0  0  0  0
    2.7880    0.3504    0.0000 H   0  0  0  0  0  0  0  0  0  0  0  0
    4.9441    0.3504    0.0000 H   0  0  0  0  0  0  0  0  0  0  0  0
    5.3426    1.0407    0.0000 H   0  0  0  0  0  0  0  0  0  0  0  0
    5.3426    1.8254    0.0000 H   0  0  0  0  0  0  0  0  0  0  0  0
    4.9441    2.5156    0.0000 H   0  0  0  0  0  0  0  0  0  0  0  0
    2.7880    2.5156    0.0000 H   0  0  0  0  0  0  0  0  0  0  0  0
    2.3894    1.8254    0.0000 H   0  0  0  0  0  0  0  0  0  0  0  0
  1  2  2  0  0  0  0
  2  4  1  0  0  0  0
  2  5  1  0  0  0  0
  2  6  1  0  0  0  0
  3 13  1  0  0  0  0
  3 14  1  0  0  0  0
  4  7  1  0  0  0  0
  4  8  1  0  0  0  0
  5  9  1  0  0  0  0
  5 10  1  0  0  0  0
  6 11  1  0  0  0  0
  6 12  1  0  0  0  0
  7  8  1  0  0  0  0
  7 17  1  0  0  0  0
  7 18  1  0  0  0  0
  8 15  1  0  0  0  0
  8 16  1  0  0  0  0
  9 10  1  0  0  0  0
  9 19  1  0  0  0  0
  9 20  1  0  0  0  0
 10 21  1  0  0  0  0
 10 22  1  0  0  0  0
 11 13  1  0  0  0  0
 11 25  1  0  0  0  0
 11 26  1  0  0  0  0
 12 14  1  0  0  0  0
 12 23  1  0  0  0  0
 12 24  1  0  0  0  0
 13 27  1  0  0  0  0
 13 28  1  0  0  0  0
 14 29  1  0  0  0  0
 14 30  1  0  0  0  0
M  END
> <PUBCHEM_COMPOUND_CID>
62432

> <PUBCHEM_COMPOUND_CANONICALIZED>
1

> <PUBCHEM_CACTVS_COMPLEXITY>
258

> <PUBCHEM_CACTVS_HBOND_ACCEPTOR>
5

> <PUBCHEM_CACTVS_HBOND_DONOR>
0

> <PUBCHEM_CACTVS_ROTATABLE_BOND>
3

> <PUBCHEM_CACTVS_SUBSKEYS>
AAADceBzIAJAAAAAAAAAAAAAFiwAAAAAAAAsAAAAAAAAAAAAAAAAHgAAgAAAAADhgAYAAAIABAAAAAAAAAAAAAAAAAAAAAAIAAACAAAAAAADAAAAAACQAAAAAAAAAAAAAAAAAAAAAAAAAAAAAAAAAAAAAA==

> <PUBCHEM_IUPAC_OPENEYE_NAME>
bis(aziridin-1-yl)-morpholino-thioxo-$l^{5}-phosphane

> <PUBCHEM_IUPAC_CAS_NAME>
bis(1-aziridinyl)-(4-morpholinyl)-sulfanylidenephosphorane

> <PUBCHEM_IUPAC_NAME>
bis(aziridin-1-yl)-morpholin-4-yl-sulfanylidene-$l^{5}-phosphane

> <PUBCHEM_IUPAC_SYSTEMATIC_NAME>
bis(aziridin-1-yl)-morpholin-4-yl-sulfanylidene-$l^{5}-phosphane

> <PUBCHEM_IUPAC_TRADITIONAL_NAME>
diethylenimino-morpholino-thioxo-phosphorane

> <PUBCHEM_IUPAC_INCHI>
InChI=1S/C8H16N3OPS/c14-13(9-1-2-9,10-3-4-10)11-5-7-12-8-6-11/h1-8H2

> <PUBCHEM_IUPAC_INCHIKEY>
RQOLZRKNRJWASP-UHFFFAOYSA-N

> <PUBCHEM_XLOGP3>
0.4

> <PUBCHEM_EXACT_MASS>
233.07517

> <PUBCHEM_MOLECULAR_FORMULA>
C8H16N3OPS

> <PUBCHEM_MOLECULAR_WEIGHT>
233.270902

> <PUBCHEM_OPENEYE_CAN_SMILES>
C1CN1P(=S)(N2CC2)N3CCOCC3

> <PUBCHEM_OPENEYE_ISO_SMILES>
C1CN1P(=S)(N2CC2)N3CCOCC3

> <PUBCHEM_CACTVS_TPSA>
50.6

> <PUBCHEM_MONOISOTOPIC_WEIGHT>
233.07517

> <PUBCHEM_TOTAL_CHARGE>
0

> <PUBCHEM_HEAVY_ATOM_COUNT>
14

> <PUBCHEM_ATOM_DEF_STEREO_COUNT>
0

> <PUBCHEM_ATOM_UDEF_STEREO_COUNT>
0

> <PUBCHEM_BOND_DEF_STEREO_COUNT>
0

> <PUBCHEM_BOND_UDEF_STEREO_COUNT>
0

> <PUBCHEM_ISOTOPIC_ATOM_COUNT>
0

> <PUBCHEM_COMPONENT_COUNT>
1

> <PUBCHEM_CACTVS_TAUTO_COUNT>
1

> <PUBCHEM_COORDINATE_TYPE>
1
5
255

$$$$

