5282034
  -OEChem-07051213022D

 76 77  0     1  0  0  0  0  0999 V2000
    5.4641    1.0632    0.0000 O   0  0  0  0  0  0  0  0  0  0  0  0
    3.7320    1.0632    0.0000 O   0  0  0  0  0  0  0  0  0  0  0  0
    5.4641    3.0632    0.0000 O   0  0  0  0  0  0  0  0  0  0  0  0
    3.7320   -1.9368    0.0000 O   0  0  0  0  0  0  0  0  0  0  0  0
    5.5981   -1.4368    0.0000 O   0  0  0  0  0  0  0  0  0  0  0  0
    4.3393   -4.4027    0.0000 O   0  0  0  0  0  0  0  0  0  0  0  0
    8.0622   -3.4368    0.0000 O   0  0  0  0  0  0  0  0  0  0  0  0
    3.7320    4.0632    0.0000 N   0  0  0  0  0  0  0  0  0  0  0  0
    3.7320    3.0632    0.0000 C   0  0  2  0  0  0  0  0  0  0  0  0
    5.4641    0.0632    0.0000 C   0  0  1  0  0  0  0  0  0  0  0  0
    4.5981    2.5632    0.0000 C   0  0  2  0  0  0  0  0  0  0  0  0
    4.5981    1.5632    0.0000 C   0  0  2  0  0  0  0  0  0  0  0  0
    6.3301   -0.4368    0.0000 C   0  0  2  0  0  0  0  0  0  0  0  0
    2.8660    2.5632    0.0000 C   0  0  0  0  0  0  0  0  0  0  0  0
    2.8660    1.5632    0.0000 C   0  0  1  0  0  0  0  0  0  0  0  0
    4.5981   -0.4368    0.0000 C   0  0  1  0  0  0  0  0  0  0  0  0
    6.3301   -1.4368    0.0000 C   0  0  0  0  0  0  0  0  0  0  0  0
    7.1962   -1.9368    0.0000 C   0  0  1  0  0  0  0  0  0  0  0  0
    7.1962    0.0632    0.0000 C   0  0  0  0  0  0  0  0  0  0  0  0
    2.0000    1.0632    0.0000 C   0  0  0  0  0  0  0  0  0  0  0  0
    3.7320    0.0632    0.0000 C   0  0  0  0  0  0  0  0  0  0  0  0
    4.5981   -1.4368    0.0000 C   0  0  0  0  0  0  0  0  0  0  0  0
    3.7320   -2.9368    0.0000 C   0  0  1  0  0  0  0  0  0  0  0  0
    2.8660    4.5632    0.0000 C   0  0  0  0  0  0  0  0  0  0  0  0
    4.5981    4.5632    0.0000 C   0  0  0  0  0  0  0  0  0  0  0  0
    4.5981   -3.4368    0.0000 C   0  0  2  0  0  0  0  0  0  0  0  0
    8.0622   -1.4368    0.0000 C   0  0  0  0  0  0  0  0  0  0  0  0
    7.1962   -2.9368    0.0000 C   0  0  0  0  0  0  0  0  0  0  0  0
    2.8660   -3.4368    0.0000 C   0  0  0  0  0  0  0  0  0  0  0  0
    5.4641   -2.9368    0.0000 C   0  0  0  0  0  0  0  0  0  0  0  0
    6.3301   -3.4368    0.0000 C   0  0  0  0  0  0  0  0  0  0  0  0
    5.1716   -4.2560    0.0000 C   0  0  0  0  0  0  0  0  0  0  0  0
    2.0000   -2.9368    0.0000 C   0  0  0  0  0  0  0  0  0  0  0  0
    4.2690    3.3732    0.0000 H   0  0  0  0  0  0  0  0  0  0  0  0
    6.0010    0.3732    0.0000 H   0  0  0  0  0  0  0  0  0  0  0  0
    4.5981    3.1832    0.0000 H   0  0  0  0  0  0  0  0  0  0  0  0
    4.5981    0.9432    0.0000 H   0  0  0  0  0  0  0  0  0  0  0  0
    6.8671   -0.7468    0.0000 H   0  0  0  0  0  0  0  0  0  0  0  0
    2.6540    3.1458    0.0000 H   0  0  0  0  0  0  0  0  0  0  0  0
    2.2554    2.4555    0.0000 H   0  0  0  0  0  0  0  0  0  0  0  0
    2.8660    0.9432    0.0000 H   0  0  0  0  0  0  0  0  0  0  0  0
    4.5981    0.1832    0.0000 H   0  0  0  0  0  0  0  0  0  0  0  0
    5.7196   -1.3291    0.0000 H   0  0  0  0  0  0  0  0  0  0  0  0
    6.1181   -2.0194    0.0000 H   0  0  0  0  0  0  0  0  0  0  0  0
    7.7331   -2.2468    0.0000 H   0  0  0  0  0  0  0  0  0  0  0  0
    7.5062   -0.4737    0.0000 H   0  0  0  0  0  0  0  0  0  0  0  0
    7.7331    0.3732    0.0000 H   0  0  0  0  0  0  0  0  0  0  0  0
    6.8862    0.6001    0.0000 H   0  0  0  0  0  0  0  0  0  0  0  0
    1.6900    1.6001    0.0000 H   0  0  0  0  0  0  0  0  0  0  0  0
    1.4631    0.7532    0.0000 H   0  0  0  0  0  0  0  0  0  0  0  0
    2.3100    0.5263    0.0000 H   0  0  0  0  0  0  0  0  0  0  0  0
    4.0420    0.6001    0.0000 H   0  0  0  0  0  0  0  0  0  0  0  0
    3.1951    0.3732    0.0000 H   0  0  0  0  0  0  0  0  0  0  0  0
    3.4220   -0.4737    0.0000 H   0  0  0  0  0  0  0  0  0  0  0  0
    6.0010    2.7532    0.0000 H   0  0  0  0  0  0  0  0  0  0  0  0
    3.1951   -2.6268    0.0000 H   0  0  0  0  0  0  0  0  0  0  0  0
    3.1760    5.1001    0.0000 H   0  0  0  0  0  0  0  0  0  0  0  0
    2.3291    4.8732    0.0000 H   0  0  0  0  0  0  0  0  0  0  0  0
    2.5560    4.0263    0.0000 H   0  0  0  0  0  0  0  0  0  0  0  0
    4.9081    4.0263    0.0000 H   0  0  0  0  0  0  0  0  0  0  0  0
    5.1350    4.8732    0.0000 H   0  0  0  0  0  0  0  0  0  0  0  0
    4.2881    5.1001    0.0000 H   0  0  0  0  0  0  0  0  0  0  0  0
    8.3722   -1.9737    0.0000 H   0  0  0  0  0  0  0  0  0  0  0  0
    8.5991   -1.1268    0.0000 H   0  0  0  0  0  0  0  0  0  0  0  0
    7.7522   -0.8999    0.0000 H   0  0  0  0  0  0  0  0  0  0  0  0
    2.4675   -3.9118    0.0000 H   0  0  0  0  0  0  0  0  0  0  0  0
    3.2646   -3.9118    0.0000 H   0  0  0  0  0  0  0  0  0  0  0  0
    5.7741   -2.3999    0.0000 H   0  0  0  0  0  0  0  0  0  0  0  0
    6.3301   -4.0568    0.0000 H   0  0  0  0  0  0  0  0  0  0  0  0
    4.6638   -4.6116    0.0000 H   0  0  0  0  0  0  0  0  0  0  0  0
    5.5273   -4.7638    0.0000 H   0  0  0  0  0  0  0  0  0  0  0  0
    5.6795   -3.9003    0.0000 H   0  0  0  0  0  0  0  0  0  0  0  0
    2.3100   -2.3999    0.0000 H   0  0  0  0  0  0  0  0  0  0  0  0
    1.4631   -2.6268    0.0000 H   0  0  0  0  0  0  0  0  0  0  0  0
    1.6900   -3.4737    0.0000 H   0  0  0  0  0  0  0  0  0  0  0  0
    3.7404   -4.5632    0.0000 H   0  0  0  0  0  0  0  0  0  0  0  0
 10  1  1  1  0  0  0
 12  1  1  6  0  0  0
  2 12  1  0  0  0  0
  2 15  1  0  0  0  0
 11  3  1  1  0  0  0
  3 55  1  0  0  0  0
  4 22  1  0  0  0  0
  4 23  1  0  0  0  0
  5 22  2  0  0  0  0
 26  6  1  6  0  0  0
  6 76  1  0  0  0  0
  7 28  2  0  0  0  0
  9  8  1  6  0  0  0
  8 24  1  0  0  0  0
  8 25  1  0  0  0  0
  9 11  1  0  0  0  0
  9 14  1  0  0  0  0
  9 34  1  0  0  0  0
 10 13  1  0  0  0  0
 10 16  1  0  0  0  0
 10 35  1  0  0  0  0
 11 12  1  0  0  0  0
 11 36  1  0  0  0  0
 12 37  1  0  0  0  0
 13 17  1  0  0  0  0
 13 19  1  1  0  0  0
 13 38  1  0  0  0  0
 14 15  1  0  0  0  0
 14 39  1  0  0  0  0
 14 40  1  0  0  0  0
 15 20  1  6  0  0  0
 15 41  1  0  0  0  0
 16 21  1  6  0  0  0
 16 22  1  0  0  0  0
 16 42  1  0  0  0  0
 17 18  1  0  0  0  0
 17 43  1  0  0  0  0
 17 44  1  0  0  0  0
 18 27  1  1  0  0  0
 18 28  1  0  0  0  0
 18 45  1  0  0  0  0
 19 46  1  0  0  0  0
 19 47  1  0  0  0  0
 19 48  1  0  0  0  0
 20 49  1  0  0  0  0
 20 50  1  0  0  0  0
 20 51  1  0  0  0  0
 21 52  1  0  0  0  0
 21 53  1  0  0  0  0
 21 54  1  0  0  0  0
 23 26  1  0  0  0  0
 23 29  1  1  0  0  0
 23 56  1  0  0  0  0
 24 57  1  0  0  0  0
 24 58  1  0  0  0  0
 24 59  1  0  0  0  0
 25 60  1  0  0  0  0
 25 61  1  0  0  0  0
 25 62  1  0  0  0  0
 26 30  1  0  0  0  0
 26 32  1  0  0  0  0
 27 63  1  0  0  0  0
 27 64  1  0  0  0  0
 27 65  1  0  0  0  0
 28 31  1  0  0  0  0
 29 33  1  0  0  0  0
 29 66  1  0  0  0  0
 29 67  1  0  0  0  0
 30 31  2  0  0  0  0
 30 68  1  0  0  0  0
 31 69  1  0  0  0  0
 32 70  1  0  0  0  0
 32 71  1  0  0  0  0
 32 72  1  0  0  0  0
 33 73  1  0  0  0  0
 33 74  1  0  0  0  0
 33 75  1  0  0  0  0
M  END
> <PUBCHEM_COMPOUND_CID>
5282034

> <PUBCHEM_COMPOUND_CANONICALIZED>
1

> <PUBCHEM_CACTVS_COMPLEXITY>
711

> <PUBCHEM_CACTVS_HBOND_ACCEPTOR>
8

> <PUBCHEM_CACTVS_HBOND_DONOR>
2

> <PUBCHEM_CACTVS_ROTATABLE_BOND>
4

> <PUBCHEM_CACTVS_SUBSKEYS>
AAADcfB6OAAAAAAAAAAAAAAAAAAAAAAAAAAkAAAAAAAAAAAAAAAAHgAACAAADXzxgAcCCAMABgCIAKDSCAAAAAAgAAAICAEIAEgTFBYAgAAmUAAH4AAfEYPI7OzOAAAAAAAAAAAAAAAAAAAAAAAAAAAAAA==

> <PUBCHEM_IUPAC_OPENEYE_NAME>
(3R,4S,5S,7R,9E,11S,12R)-4-[(2S,3R,4S,6R)-4-(dimethylamino)-3-hydroxy-6-methyl-tetrahydropyran-2-yl]oxy-12-ethyl-11-hydroxy-3,5,7,11-tetramethyl-1-oxacyclododec-9-ene-2,8-dione

> <PUBCHEM_IUPAC_CAS_NAME>
(3R,4S,5S,7R,9E,11S,12R)-4-[[(2S,3R,4S,6R)-4-(dimethylamino)-3-hydroxy-6-methyl-2-oxanyl]oxy]-12-ethyl-11-hydroxy-3,5,7,11-tetramethyl-1-oxacyclododec-9-ene-2,8-dione

> <PUBCHEM_IUPAC_NAME>
(3R,4S,5S,7R,9E,11S,12R)-4-[(2S,3R,4S,6R)-4-(dimethylamino)-3-hydroxy-6-methyloxan-2-yl]oxy-12-ethyl-11-hydroxy-3,5,7,11-tetramethyl-1-oxacyclododec-9-ene-2,8-dione

> <PUBCHEM_IUPAC_SYSTEMATIC_NAME>
(3R,4S,5S,7R,9E,11S,12R)-4-[(2S,3R,4S,6R)-4-(dimethylamino)-6-methyl-3-oxidanyl-oxan-2-yl]oxy-12-ethyl-3,5,7,11-tetramethyl-11-oxidanyl-1-oxacyclododec-9-ene-2,8-dione

> <PUBCHEM_IUPAC_TRADITIONAL_NAME>
(3R,4S,5S,7R,9E,11S,12R)-4-[(2S,3R,4S,6R)-4-(dimethylamino)-3-hydroxy-6-methyl-tetrahydropyran-2-yl]oxy-12-ethyl-11-hydroxy-3,5,7,11-tetramethyl-1-oxacyclododec-9-ene-2,8-quinone

> <PUBCHEM_IUPAC_INCHI>
InChI=1S/C25H43NO7/c1-9-20-25(6,30)11-10-19(27)14(2)12-15(3)22(17(5)23(29)32-20)33-24-21(28)18(26(7)8)13-16(4)31-24/h10-11,14-18,20-22,24,28,30H,9,12-13H2,1-8H3/b11-10+/t14-,15+,16-,17-,18+,20-,21-,22+,24+,25+/m1/s1

> <PUBCHEM_IUPAC_INCHIKEY>
HUKYPYXOBINMND-HYUJHOPRSA-N

> <PUBCHEM_XLOGP3_AA>
2.7

> <PUBCHEM_EXACT_MASS>
469.303953

> <PUBCHEM_MOLECULAR_FORMULA>
C25H43NO7

> <PUBCHEM_MOLECULAR_WEIGHT>
469.61142

> <PUBCHEM_OPENEYE_CAN_SMILES>
CCC1C(C=CC(=O)C(CC(C(C(C(=O)O1)C)OC2C(C(CC(O2)C)N(C)C)O)C)C)(C)O

> <PUBCHEM_OPENEYE_ISO_SMILES>
CC[C@@H]1[C@@](/C=C/C(=O)[C@@H](C[C@@H]([C@@H]([C@H](C(=O)O1)C)O[C@H]2[C@@H]([C@H](C[C@H](O2)C)N(C)C)O)C)C)(C)O

> <PUBCHEM_CACTVS_TPSA>
106

> <PUBCHEM_MONOISOTOPIC_WEIGHT>
469.303953

> <PUBCHEM_TOTAL_CHARGE>
0

> <PUBCHEM_HEAVY_ATOM_COUNT>
33

> <PUBCHEM_ATOM_DEF_STEREO_COUNT>
10

> <PUBCHEM_ATOM_UDEF_STEREO_COUNT>
0

> <PUBCHEM_BOND_DEF_STEREO_COUNT>
1

> <PUBCHEM_BOND_UDEF_STEREO_COUNT>
0

> <PUBCHEM_ISOTOPIC_ATOM_COUNT>
0

> <PUBCHEM_COMPONENT_COUNT>
1

> <PUBCHEM_CACTVS_TAUTO_COUNT>
4

> <PUBCHEM_COORDINATE_TYPE>
1
5
255

> <PUBCHEM_BONDANNOTATIONS>
10  1  5
12  1  6
13  19  5
15  20  6
16  21  6
18  27  5
23  29  5
11  3  5
26  6  6
9  8  6

$$$$

