18172
  -OEChem-07051213062D

 54 55  0     1  0  0  0  0  0999 V2000
    9.5622    0.6160    0.0000 O   0  0  0  0  0  0  0  0  0  0  0  0
    6.8301    0.6160    0.0000 O   0  0  0  0  0  0  0  0  0  0  0  0
   17.8564   -0.7500    0.0000 O   0  0  0  0  0  0  0  0  0  0  0  0
   16.9904    0.7500    0.0000 O   0  0  0  0  0  0  0  0  0  0  0  0
    9.0622   -0.2500    0.0000 C   0  0  3  0  0  0  0  0  0  0  0  0
    7.3301   -0.2500    0.0000 C   0  0  3  0  0  0  0  0  0  0  0  0
    8.1962   -0.7500    0.0000 C   0  0  0  0  0  0  0  0  0  0  0  0
   10.0622   -0.2500    0.0000 C   0  0  3  0  0  0  0  0  0  0  0  0
    6.3301   -0.2500    0.0000 C   0  0  3  0  0  0  0  0  0  0  0  0
   10.9282   -0.7500    0.0000 C   0  0  0  0  0  0  0  0  0  0  0  0
    5.4641   -0.7500    0.0000 C   0  0  0  0  0  0  0  0  0  0  0  0
   11.7942   -0.2500    0.0000 C   0  0  0  0  0  0  0  0  0  0  0  0
    4.5981   -0.2500    0.0000 C   0  0  0  0  0  0  0  0  0  0  0  0
   12.6603   -0.7500    0.0000 C   0  0  0  0  0  0  0  0  0  0  0  0
    3.7320   -0.7500    0.0000 C   0  0  0  0  0  0  0  0  0  0  0  0
   13.5263   -0.2500    0.0000 C   0  0  0  0  0  0  0  0  0  0  0  0
    2.8660   -0.2500    0.0000 C   0  0  0  0  0  0  0  0  0  0  0  0
   14.3923   -0.7500    0.0000 C   0  0  0  0  0  0  0  0  0  0  0  0
   15.2583   -0.2500    0.0000 C   0  0  0  0  0  0  0  0  0  0  0  0
    2.0000   -0.7500    0.0000 C   0  0  0  0  0  0  0  0  0  0  0  0
   16.1244   -0.7500    0.0000 C   0  0  0  0  0  0  0  0  0  0  0  0
   16.9904   -0.2500    0.0000 C   0  0  0  0  0  0  0  0  0  0  0  0
    8.4611    0.3510    0.0000 H   0  0  0  0  0  0  0  0  0  0  0  0
    7.9312    0.3510    0.0000 H   0  0  0  0  0  0  0  0  0  0  0  0
    7.7976   -1.2250    0.0000 H   0  0  0  0  0  0  0  0  0  0  0  0
    8.5947   -1.2250    0.0000 H   0  0  0  0  0  0  0  0  0  0  0  0
   10.6632    0.3510    0.0000 H   0  0  0  0  0  0  0  0  0  0  0  0
    5.7291    0.3510    0.0000 H   0  0  0  0  0  0  0  0  0  0  0  0
   10.5297   -1.2250    0.0000 H   0  0  0  0  0  0  0  0  0  0  0  0
   11.3267   -1.2250    0.0000 H   0  0  0  0  0  0  0  0  0  0  0  0
    5.0656   -1.2250    0.0000 H   0  0  0  0  0  0  0  0  0  0  0  0
    5.8626   -1.2250    0.0000 H   0  0  0  0  0  0  0  0  0  0  0  0
   12.1928    0.2249    0.0000 H   0  0  0  0  0  0  0  0  0  0  0  0
   11.3957    0.2249    0.0000 H   0  0  0  0  0  0  0  0  0  0  0  0
    4.9966    0.2249    0.0000 H   0  0  0  0  0  0  0  0  0  0  0  0
    4.1996    0.2249    0.0000 H   0  0  0  0  0  0  0  0  0  0  0  0
   12.2617   -1.2250    0.0000 H   0  0  0  0  0  0  0  0  0  0  0  0
   13.0588   -1.2250    0.0000 H   0  0  0  0  0  0  0  0  0  0  0  0
    3.3335   -1.2250    0.0000 H   0  0  0  0  0  0  0  0  0  0  0  0
    4.1306   -1.2250    0.0000 H   0  0  0  0  0  0  0  0  0  0  0  0
   13.9248    0.2249    0.0000 H   0  0  0  0  0  0  0  0  0  0  0  0
   13.1278    0.2249    0.0000 H   0  0  0  0  0  0  0  0  0  0  0  0
    3.2646    0.2249    0.0000 H   0  0  0  0  0  0  0  0  0  0  0  0
    2.4675    0.2249    0.0000 H   0  0  0  0  0  0  0  0  0  0  0  0
   13.9938   -1.2250    0.0000 H   0  0  0  0  0  0  0  0  0  0  0  0
   14.7908   -1.2250    0.0000 H   0  0  0  0  0  0  0  0  0  0  0  0
   15.6569    0.2249    0.0000 H   0  0  0  0  0  0  0  0  0  0  0  0
   14.8598    0.2249    0.0000 H   0  0  0  0  0  0  0  0  0  0  0  0
    1.6900   -0.2131    0.0000 H   0  0  0  0  0  0  0  0  0  0  0  0
    1.4631   -1.0600    0.0000 H   0  0  0  0  0  0  0  0  0  0  0  0
    2.3100   -1.2869    0.0000 H   0  0  0  0  0  0  0  0  0  0  0  0
   15.7258   -1.2250    0.0000 H   0  0  0  0  0  0  0  0  0  0  0  0
   16.5229   -1.2250    0.0000 H   0  0  0  0  0  0  0  0  0  0  0  0
   18.3933   -0.4400    0.0000 H   0  0  0  0  0  0  0  0  0  0  0  0
  1  5  1  0  0  0  0
  1  8  1  0  0  0  0
  2  6  1  0  0  0  0
  2  9  1  0  0  0  0
  3 22  1  0  0  0  0
  3 54  1  0  0  0  0
  4 22  2  0  0  0  0
  5  7  1  0  0  0  0
  5  8  1  0  0  0  0
  5 23  1  0  0  0  0
  6  7  1  0  0  0  0
  6  9  1  0  0  0  0
  6 24  1  0  0  0  0
  7 25  1  0  0  0  0
  7 26  1  0  0  0  0
  8 10  1  0  0  0  0
  8 27  1  0  0  0  0
  9 11  1  0  0  0  0
  9 28  1  0  0  0  0
 10 12  1  0  0  0  0
 10 29  1  0  0  0  0
 10 30  1  0  0  0  0
 11 13  1  0  0  0  0
 11 31  1  0  0  0  0
 11 32  1  0  0  0  0
 12 14  1  0  0  0  0
 12 33  1  0  0  0  0
 12 34  1  0  0  0  0
 13 15  1  0  0  0  0
 13 35  1  0  0  0  0
 13 36  1  0  0  0  0
 14 16  1  0  0  0  0
 14 37  1  0  0  0  0
 14 38  1  0  0  0  0
 15 17  1  0  0  0  0
 15 39  1  0  0  0  0
 15 40  1  0  0  0  0
 16 18  1  0  0  0  0
 16 41  1  0  0  0  0
 16 42  1  0  0  0  0
 17 20  1  0  0  0  0
 17 43  1  0  0  0  0
 17 44  1  0  0  0  0
 18 19  1  0  0  0  0
 18 45  1  0  0  0  0
 18 46  1  0  0  0  0
 19 21  1  0  0  0  0
 19 47  1  0  0  0  0
 19 48  1  0  0  0  0
 20 49  1  0  0  0  0
 20 50  1  0  0  0  0
 20 51  1  0  0  0  0
 21 22  1  0  0  0  0
 21 52  1  0  0  0  0
 21 53  1  0  0  0  0
M  END
> <PUBCHEM_COMPOUND_CID>
18172

> <PUBCHEM_COMPOUND_CANONICALIZED>
1

> <PUBCHEM_CACTVS_COMPLEXITY>
331

> <PUBCHEM_CACTVS_HBOND_ACCEPTOR>
4

> <PUBCHEM_CACTVS_HBOND_DONOR>
1

> <PUBCHEM_CACTVS_ROTATABLE_BOND>
14

> <PUBCHEM_CACTVS_SUBSKEYS>
AAADcfB4OAAAAAAAAAAAAAAAEiQAAAAAAAAAAAAAAAAAAAAAAAAAGgAACAAACBSggAICCAAABgAIAACQCAAAAAAAAAAAAAEAAAAAABIAAAACQAAFAAAAAAHI6KSAAAAAAAAAAAAAAAAAAAAAAAAAAAAAAA==

> <PUBCHEM_IUPAC_OPENEYE_NAME>
8-[3-[(3-pentyloxiran-2-yl)methyl]oxiran-2-yl]octanoic acid

> <PUBCHEM_IUPAC_CAS_NAME>
8-[3-[(3-pentyl-2-oxiranyl)methyl]-2-oxiranyl]octanoic acid

> <PUBCHEM_IUPAC_NAME>
8-[3-[(3-pentyloxiran-2-yl)methyl]oxiran-2-yl]octanoic acid

> <PUBCHEM_IUPAC_SYSTEMATIC_NAME>
8-[3-[(3-pentyloxiran-2-yl)methyl]oxiran-2-yl]octanoic acid

> <PUBCHEM_IUPAC_TRADITIONAL_NAME>
8-[3-[(3-amyloxiran-2-yl)methyl]oxiran-2-yl]caprylic acid

> <PUBCHEM_IUPAC_INCHI>
InChI=1S/C18H32O4/c1-2-3-7-10-14-16(21-14)13-17-15(22-17)11-8-5-4-6-9-12-18(19)20/h14-17H,2-13H2,1H3,(H,19,20)

> <PUBCHEM_IUPAC_INCHIKEY>
LAIUZQCFIABNDP-UHFFFAOYSA-N

> <PUBCHEM_XLOGP3_AA>
4.6

> <PUBCHEM_EXACT_MASS>
312.23006

> <PUBCHEM_MOLECULAR_FORMULA>
C18H32O4

> <PUBCHEM_MOLECULAR_WEIGHT>
312.44428

> <PUBCHEM_OPENEYE_CAN_SMILES>
CCCCCC1C(O1)CC2C(O2)CCCCCCCC(=O)O

> <PUBCHEM_OPENEYE_ISO_SMILES>
CCCCCC1C(O1)CC2C(O2)CCCCCCCC(=O)O

> <PUBCHEM_CACTVS_TPSA>
62.4

> <PUBCHEM_MONOISOTOPIC_WEIGHT>
312.23006

> <PUBCHEM_TOTAL_CHARGE>
0

> <PUBCHEM_HEAVY_ATOM_COUNT>
22

> <PUBCHEM_ATOM_DEF_STEREO_COUNT>
0

> <PUBCHEM_ATOM_UDEF_STEREO_COUNT>
4

> <PUBCHEM_BOND_DEF_STEREO_COUNT>
0

> <PUBCHEM_BOND_UDEF_STEREO_COUNT>
0

> <PUBCHEM_ISOTOPIC_ATOM_COUNT>
0

> <PUBCHEM_COMPONENT_COUNT>
1

> <PUBCHEM_CACTVS_TAUTO_COUNT>
1

> <PUBCHEM_COORDINATE_TYPE>
1
5
255

> <PUBCHEM_BONDANNOTATIONS>
5  23  3
6  24  3
8  27  3
9  28  3

$$$$

