9543287
  -OEChem-07051213112D

 28 32  0     1  0  0  0  0  0999 V2000
    2.9178    3.0629    0.0000 O   0  0  0  0  0  0  0  0  0  0  0  0
    5.6147   -2.4435    0.0000 O   0  0  0  0  0  0  0  0  0  0  0  0
    2.9180    2.0625    0.0000 C   0  0  3  0  0  0  0  0  0  0  0  0
    3.7841    2.5625    0.0000 C   0  0  3  0  0  0  0  0  0  0  0  0
    2.9180    1.0625    0.0000 C   0  0  0  0  0  0  0  0  0  0  0  0
    3.7841    0.5625    0.0000 C   0  0  0  0  0  0  0  0  0  0  0  0
    4.6501    2.0625    0.0000 C   0  0  0  0  0  0  0  0  0  0  0  0
    4.6501    1.0625    0.0000 C   0  0  0  0  0  0  0  0  0  0  0  0
    3.8001   -0.4790    0.0000 C   0  0  0  0  0  0  0  0  0  0  0  0
    2.0080    0.5556    0.0000 C   0  0  0  0  0  0  0  0  0  0  0  0
    2.9021   -1.0068    0.0000 C   0  0  0  0  0  0  0  0  0  0  0  0
    4.6772   -0.9418    0.0000 C   0  0  0  0  0  0  0  0  0  0  0  0
    5.5095    0.5677    0.0000 C   0  0  0  0  0  0  0  0  0  0  0  0
    2.0000   -0.4860    0.0000 C   0  0  0  0  0  0  0  0  0  0  0  0
    5.5230   -0.4239    0.0000 C   0  0  0  0  0  0  0  0  0  0  0  0
    4.7274   -1.9824    0.0000 C   0  0  0  0  0  0  0  0  0  0  0  0
    2.9282   -2.0483    0.0000 C   0  0  0  0  0  0  0  0  0  0  0  0
    3.8470   -2.5394    0.0000 C   0  0  0  0  0  0  0  0  0  0  0  0
    2.2980    2.0624    0.0000 H   0  0  0  0  0  0  0  0  0  0  0  0
    4.0941    3.0994    0.0000 H   0  0  0  0  0  0  0  0  0  0  0  0
    5.1870    2.3725    0.0000 H   0  0  0  0  0  0  0  0  0  0  0  0
    1.4747    0.8718    0.0000 H   0  0  0  0  0  0  0  0  0  0  0  0
    6.0442    0.8817    0.0000 H   0  0  0  0  0  0  0  0  0  0  0  0
    1.4619   -0.7939    0.0000 H   0  0  0  0  0  0  0  0  0  0  0  0
    6.0659   -0.7233    0.0000 H   0  0  0  0  0  0  0  0  0  0  0  0
    2.4004   -2.3736    0.0000 H   0  0  0  0  0  0  0  0  0  0  0  0
    3.8696   -3.1589    0.0000 H   0  0  0  0  0  0  0  0  0  0  0  0
    5.6422   -3.0629    0.0000 H   0  0  0  0  0  0  0  0  0  0  0  0
  1  3  1  0  0  0  0
  1  4  1  0  0  0  0
  2 16  1  0  0  0  0
  2 28  1  0  0  0  0
  3  4  1  0  0  0  0
  3  5  1  0  0  0  0
  3 19  1  0  0  0  0
  4  7  1  0  0  0  0
  4 20  1  0  0  0  0
  5  6  2  0  0  0  0
  5 10  1  0  0  0  0
  6  8  1  0  0  0  0
  6  9  1  0  0  0  0
  7  8  2  0  0  0  0
  7 21  1  0  0  0  0
  8 13  1  0  0  0  0
  9 11  2  0  0  0  0
  9 12  1  0  0  0  0
 10 14  2  0  0  0  0
 10 22  1  0  0  0  0
 11 14  1  0  0  0  0
 11 17  1  0  0  0  0
 12 15  1  0  0  0  0
 12 16  2  0  0  0  0
 13 15  2  0  0  0  0
 13 23  1  0  0  0  0
 14 24  1  0  0  0  0
 15 25  1  0  0  0  0
 16 18  1  0  0  0  0
 17 18  2  0  0  0  0
 17 26  1  0  0  0  0
 18 27  1  0  0  0  0
M  END
> <PUBCHEM_COMPOUND_CID>
9543287

> <PUBCHEM_COMPOUND_CANONICALIZED>
1

> <PUBCHEM_CACTVS_COMPLEXITY>
452

> <PUBCHEM_CACTVS_HBOND_ACCEPTOR>
2

> <PUBCHEM_CACTVS_HBOND_DONOR>
1

> <PUBCHEM_CACTVS_ROTATABLE_BOND>
0

> <PUBCHEM_CACTVS_SUBSKEYS>
AAADccB4MAAAAAAAAAAAAAAAEgAAAAAAAAAwYIEABAAAAADBUAAAGgAACAAADBSgmAIwBsAABgCAAiBCAAACAAAgIAAIiAAGCIgIJiKCMRqCcAAkwBEIuAeAwPAO4AADAAAYAADAAAYAADAAAAAAAAAAAA==

> <PUBCHEM_IUPAC_INCHI>
InChI=1S/C16H10O2/c17-12-6-3-8-1-5-11-15-9(7-13-16(11)18-13)2-4-10(12)14(8)15/h1-7,13,16-17H

> <PUBCHEM_IUPAC_INCHIKEY>
ICDHGNQFNWCXKM-UHFFFAOYSA-N

> <PUBCHEM_XLOGP3_AA>
2.7

> <PUBCHEM_EXACT_MASS>
234.06808

> <PUBCHEM_MOLECULAR_FORMULA>
C16H10O2

> <PUBCHEM_MOLECULAR_WEIGHT>
234.2494

> <PUBCHEM_OPENEYE_CAN_SMILES>
C1=CC2=C3C(=CC4C2O4)C=CC5=C(C=CC1=C53)O

> <PUBCHEM_OPENEYE_ISO_SMILES>
C1=CC2=C3C(=CC4C2O4)C=CC5=C(C=CC1=C53)O

> <PUBCHEM_CACTVS_TPSA>
32.8

> <PUBCHEM_MONOISOTOPIC_WEIGHT>
234.06808

> <PUBCHEM_TOTAL_CHARGE>
0

> <PUBCHEM_HEAVY_ATOM_COUNT>
18

> <PUBCHEM_ATOM_DEF_STEREO_COUNT>
0

> <PUBCHEM_ATOM_UDEF_STEREO_COUNT>
2

> <PUBCHEM_BOND_DEF_STEREO_COUNT>
0

> <PUBCHEM_BOND_UDEF_STEREO_COUNT>
0

> <PUBCHEM_ISOTOPIC_ATOM_COUNT>
0

> <PUBCHEM_COMPONENT_COUNT>
1

> <PUBCHEM_CACTVS_TAUTO_COUNT>
3

> <PUBCHEM_COORDINATE_TYPE>
1
5
255

> <PUBCHEM_BONDANNOTATIONS>
3  1  3
10  14  8
11  14  8
11  17  8
12  15  8
12  16  8
13  15  8
16  18  8
17  18  8
4  7  3
5  10  8
5  6  8
6  8  8
6  9  8
8  13  8
9  11  8
9  12  8

$$$$

