135906
  -OEChem-07051212592D

 44 45  0     1  0  0  0  0  0999 V2000
    4.5981   -2.2723    0.0000 O   0  0  0  0  0  0  0  0  0  0  0  0
    4.5981    1.7277    0.0000 O   0  0  0  0  0  0  0  0  0  0  0  0
    2.8660   -1.2723    0.0000 O   0  0  0  0  0  0  0  0  0  0  0  0
    2.8660    0.7277    0.0000 O   0  0  0  0  0  0  0  0  0  0  0  0
    6.3580   -1.3070    0.0000 C   0  0  3  0  0  0  0  0  0  0  0  0
    7.2641   -0.7931    0.0000 C   0  0  0  0  0  0  0  0  0  0  0  0
    6.3580    0.7624    0.0000 C   0  0  3  0  0  0  0  0  0  0  0  0
    7.2641    0.2485    0.0000 C   0  0  0  0  0  0  0  0  0  0  0  0
    5.4641   -0.7723    0.0000 C   0  0  0  0  0  0  0  0  0  0  0  0
    5.4641    0.2277    0.0000 C   0  0  0  0  0  0  0  0  0  0  0  0
    5.8481   -2.1671    0.0000 C   0  0  0  0  0  0  0  0  0  0  0  0
    6.8480   -2.1787    0.0000 C   0  0  0  0  0  0  0  0  0  0  0  0
    6.3465    1.7623    0.0000 C   0  0  0  0  0  0  0  0  0  0  0  0
    4.5981   -1.2723    0.0000 C   0  0  0  0  0  0  0  0  0  0  0  0
    4.5981    0.7277    0.0000 C   0  0  0  0  0  0  0  0  0  0  0  0
    3.7320   -0.7723    0.0000 C   0  0  0  0  0  0  0  0  0  0  0  0
    3.7320    0.2277    0.0000 C   0  0  0  0  0  0  0  0  0  0  0  0
    7.2067    2.2723    0.0000 C   0  0  0  0  0  0  0  0  0  0  0  0
    7.8479   -2.1903    0.0000 C   0  0  0  0  0  0  0  0  0  0  0  0
    5.4747    2.2523    0.0000 C   0  0  0  0  0  0  0  0  0  0  0  0
    2.0000   -0.7723    0.0000 C   0  0  0  0  0  0  0  0  0  0  0  0
    2.8660    1.7277    0.0000 C   0  0  0  0  0  0  0  0  0  0  0  0
    7.4732   -1.3768    0.0000 H   0  0  0  0  0  0  0  0  0  0  0  0
    7.8750   -0.6870    0.0000 H   0  0  0  0  0  0  0  0  0  0  0  0
    7.0900    1.1944    0.0000 H   0  0  0  0  0  0  0  0  0  0  0  0
    7.8750    0.1424    0.0000 H   0  0  0  0  0  0  0  0  0  0  0  0
    7.4732    0.8322    0.0000 H   0  0  0  0  0  0  0  0  0  0  0  0
    5.3148   -1.8510    0.0000 H   0  0  0  0  0  0  0  0  0  0  0  0
    5.5319   -2.7004    0.0000 H   0  0  0  0  0  0  0  0  0  0  0  0
    6.3814   -2.4833    0.0000 H   0  0  0  0  0  0  0  0  0  0  0  0
    6.5318   -2.7120    0.0000 H   0  0  0  0  0  0  0  0  0  0  0  0
    7.5228    1.7390    0.0000 H   0  0  0  0  0  0  0  0  0  0  0  0
    7.7400    2.5885    0.0000 H   0  0  0  0  0  0  0  0  0  0  0  0
    6.8905    2.8056    0.0000 H   0  0  0  0  0  0  0  0  0  0  0  0
    8.1517   -2.7308    0.0000 H   0  0  0  0  0  0  0  0  0  0  0  0
    8.1641   -1.6570    0.0000 H   0  0  0  0  0  0  0  0  0  0  0  0
    5.4676    2.8722    0.0000 H   0  0  0  0  0  0  0  0  0  0  0  0
    4.9414    1.9361    0.0000 H   0  0  0  0  0  0  0  0  0  0  0  0
    2.3100   -0.2354    0.0000 H   0  0  0  0  0  0  0  0  0  0  0  0
    1.4631   -0.4623    0.0000 H   0  0  0  0  0  0  0  0  0  0  0  0
    1.6900   -1.3092    0.0000 H   0  0  0  0  0  0  0  0  0  0  0  0
    3.4860    1.7277    0.0000 H   0  0  0  0  0  0  0  0  0  0  0  0
    2.8660    2.3477    0.0000 H   0  0  0  0  0  0  0  0  0  0  0  0
    2.2460    1.7277    0.0000 H   0  0  0  0  0  0  0  0  0  0  0  0
  1 14  2  0  0  0  0
  2 15  2  0  0  0  0
  3 16  1  0  0  0  0
  3 21  1  0  0  0  0
  4 17  1  0  0  0  0
  4 22  1  0  0  0  0
  5  6  1  0  0  0  0
  5  9  1  0  0  0  0
  5 11  1  0  0  0  0
  5 12  1  0  0  0  0
  6  8  1  0  0  0  0
  6 23  1  0  0  0  0
  6 24  1  0  0  0  0
  7  8  1  0  0  0  0
  7 10  1  0  0  0  0
  7 13  1  0  0  0  0
  7 25  1  0  0  0  0
  8 26  1  0  0  0  0
  8 27  1  0  0  0  0
  9 10  2  0  0  0  0
  9 14  1  0  0  0  0
 10 15  1  0  0  0  0
 11 28  1  0  0  0  0
 11 29  1  0  0  0  0
 11 30  1  0  0  0  0
 12 19  2  0  0  0  0
 12 31  1  0  0  0  0
 13 18  1  0  0  0  0
 13 20  2  0  0  0  0
 14 16  1  0  0  0  0
 15 17  1  0  0  0  0
 16 17  2  0  0  0  0
 18 32  1  0  0  0  0
 18 33  1  0  0  0  0
 18 34  1  0  0  0  0
 19 35  1  0  0  0  0
 19 36  1  0  0  0  0
 20 37  1  0  0  0  0
 20 38  1  0  0  0  0
 21 39  1  0  0  0  0
 21 40  1  0  0  0  0
 21 41  1  0  0  0  0
 22 42  1  0  0  0  0
 22 43  1  0  0  0  0
 22 44  1  0  0  0  0
M  END
> <PUBCHEM_COMPOUND_CID>
135906

> <PUBCHEM_COMPOUND_CANONICALIZED>
1

> <PUBCHEM_CACTVS_COMPLEXITY>
636

> <PUBCHEM_CACTVS_HBOND_ACCEPTOR>
4

> <PUBCHEM_CACTVS_HBOND_DONOR>
0

> <PUBCHEM_CACTVS_ROTATABLE_BOND>
4

> <PUBCHEM_CACTVS_SUBSKEYS>
AAADceB4OAAAAAAAAAAAAAAAAAAAAAAAAAAgQAAAAAAAAACAAAAAGgAAAAAADwSAgAICAAAABACIAqBSAAIACAAgIAAICAFAAEgAABIAAQQAAAAEwAAIAQOIyOCPAAAAAAAAAAAAAAAAAAAAAAAAAAAAAA==

> <PUBCHEM_IUPAC_OPENEYE_NAME>
5-isopropenyl-2,3-dimethoxy-8-methyl-8-vinyl-6,7-dihydro-5H-naphthalene-1,4-dione

> <PUBCHEM_IUPAC_CAS_NAME>
8-ethenyl-2,3-dimethoxy-8-methyl-5-(1-methylethenyl)-6,7-dihydro-5H-naphthalene-1,4-dione

> <PUBCHEM_IUPAC_NAME>
8-ethenyl-2,3-dimethoxy-8-methyl-5-prop-1-en-2-yl-6,7-dihydro-5H-naphthalene-1,4-dione

> <PUBCHEM_IUPAC_SYSTEMATIC_NAME>
8-ethenyl-2,3-dimethoxy-8-methyl-5-prop-1-en-2-yl-6,7-dihydro-5H-naphthalene-1,4-dione

> <PUBCHEM_IUPAC_TRADITIONAL_NAME>
5-isopropenyl-2,3-dimethoxy-8-methyl-8-vinyl-6,7-dihydro-5H-naphthalene-1,4-quinone

> <PUBCHEM_IUPAC_INCHI>
InChI=1S/C18H22O4/c1-7-18(4)9-8-11(10(2)3)12-13(18)15(20)17(22-6)16(21-5)14(12)19/h7,11H,1-2,8-9H2,3-6H3

> <PUBCHEM_IUPAC_INCHIKEY>
OXNJGMNJOVOFOW-UHFFFAOYSA-N

> <PUBCHEM_XLOGP3_AA>
4.2

> <PUBCHEM_EXACT_MASS>
302.151809

> <PUBCHEM_MOLECULAR_FORMULA>
C18H22O4

> <PUBCHEM_MOLECULAR_WEIGHT>
302.36488

> <PUBCHEM_OPENEYE_CAN_SMILES>
CC(=C)C1CCC(C2=C1C(=O)C(=C(C2=O)OC)OC)(C)C=C

> <PUBCHEM_OPENEYE_ISO_SMILES>
CC(=C)C1CCC(C2=C1C(=O)C(=C(C2=O)OC)OC)(C)C=C

> <PUBCHEM_CACTVS_TPSA>
52.6

> <PUBCHEM_MONOISOTOPIC_WEIGHT>
302.151809

> <PUBCHEM_TOTAL_CHARGE>
0

> <PUBCHEM_HEAVY_ATOM_COUNT>
22

> <PUBCHEM_ATOM_DEF_STEREO_COUNT>
0

> <PUBCHEM_ATOM_UDEF_STEREO_COUNT>
2

> <PUBCHEM_BOND_DEF_STEREO_COUNT>
0

> <PUBCHEM_BOND_UDEF_STEREO_COUNT>
0

> <PUBCHEM_ISOTOPIC_ATOM_COUNT>
0

> <PUBCHEM_COMPONENT_COUNT>
1

> <PUBCHEM_CACTVS_TAUTO_COUNT>
8

> <PUBCHEM_COORDINATE_TYPE>
1
5
255

> <PUBCHEM_BONDANNOTATIONS>
5  11  3
7  25  3

$$$$

