54675755
  -OEChem-07051212462D

 60 62  0     0  0  0  0  0  0999 V2000
    5.8301   -0.0117    0.0000 O   0  0  0  0  0  0  0  0  0  0  0  0
    8.0902   -1.2717    0.0000 O   0  0  0  0  0  0  0  0  0  0  0  0
    6.3301   -5.5505    0.0000 O   0  0  0  0  0  0  0  0  0  0  0  0
    5.7910    4.4515    0.0000 O   0  0  0  0  0  0  0  0  0  0  0  0
    4.5700   -1.2717    0.0000 O   0  0  0  0  0  0  0  0  0  0  0  0
    6.3301   -2.5505    0.0000 C   0  0  0  0  0  0  0  0  0  0  0  0
    6.3301   -1.5505    0.0000 C   0  0  0  0  0  0  0  0  0  0  0  0
    5.4641   -4.0505    0.0000 C   0  0  0  0  0  0  0  0  0  0  0  0
    5.4641   -3.0505    0.0000 C   0  0  0  0  0  0  0  0  0  0  0  0
    4.5981   -4.5505    0.0000 C   0  0  0  0  0  0  0  0  0  0  0  0
    7.1391   -0.9627    0.0000 C   0  0  0  0  0  0  0  0  0  0  0  0
    6.8301   -0.0117    0.0000 C   0  0  0  0  0  0  0  0  0  0  0  0
    7.1922    3.4335    0.0000 C   0  0  0  0  0  0  0  0  0  0  0  0
    7.0112    1.7109    0.0000 C   0  0  0  0  0  0  0  0  0  0  0  0
    6.3301   -4.5505    0.0000 C   0  0  0  0  0  0  0  0  0  0  0  0
    7.1962   -3.0505    0.0000 C   0  0  0  0  0  0  0  0  0  0  0  0
    7.7800    4.2425    0.0000 C   0  0  0  0  0  0  0  0  0  0  0  0
    7.4179    0.7974    0.0000 C   0  0  0  0  0  0  0  0  0  0  0  0
    7.5990    2.5199    0.0000 C   0  0  0  0  0  0  0  0  0  0  0  0
    5.5211   -0.9627    0.0000 C   0  0  0  0  0  0  0  0  0  0  0  0
    7.1962   -4.0505    0.0000 C   0  0  0  0  0  0  0  0  0  0  0  0
    6.1977    3.5380    0.0000 C   0  0  0  0  0  0  0  0  0  0  0  0
    3.7320   -4.0505    0.0000 C   0  0  0  0  0  0  0  0  0  0  0  0
    6.0166    1.8154    0.0000 C   0  0  0  0  0  0  0  0  0  0  0  0
    5.6099    2.7290    0.0000 C   0  0  0  0  0  0  0  0  0  0  0  0
    8.7745    4.1380    0.0000 C   0  0  0  0  0  0  0  0  0  0  0  0
    2.8660   -4.5505    0.0000 C   0  0  0  0  0  0  0  0  0  0  0  0
    9.3623    4.9470    0.0000 C   0  0  0  0  0  0  0  0  0  0  0  0
    2.0000   -4.0505    0.0000 C   0  0  0  0  0  0  0  0  0  0  0  0
    2.8660   -5.5505    0.0000 C   0  0  0  0  0  0  0  0  0  0  0  0
   10.3568    4.8424    0.0000 C   0  0  0  0  0  0  0  0  0  0  0  0
    8.9556    5.8605    0.0000 C   0  0  0  0  0  0  0  0  0  0  0  0
    4.9272   -2.7405    0.0000 H   0  0  0  0  0  0  0  0  0  0  0  0
    4.1996   -5.0255    0.0000 H   0  0  0  0  0  0  0  0  0  0  0  0
    4.9966   -5.0255    0.0000 H   0  0  0  0  0  0  0  0  0  0  0  0
    7.7331   -2.7405    0.0000 H   0  0  0  0  0  0  0  0  0  0  0  0
    7.9509    4.8385    0.0000 H   0  0  0  0  0  0  0  0  0  0  0  0
    7.2228    4.5143    0.0000 H   0  0  0  0  0  0  0  0  0  0  0  0
    8.0345    0.7325    0.0000 H   0  0  0  0  0  0  0  0  0  0  0  0
    8.2156    2.4551    0.0000 H   0  0  0  0  0  0  0  0  0  0  0  0
    7.7331   -4.3605    0.0000 H   0  0  0  0  0  0  0  0  0  0  0  0
    3.7320   -3.4305    0.0000 H   0  0  0  0  0  0  0  0  0  0  0  0
    5.6522    1.3138    0.0000 H   0  0  0  0  0  0  0  0  0  0  0  0
    4.9933    2.7938    0.0000 H   0  0  0  0  0  0  0  0  0  0  0  0
    9.0267    3.5716    0.0000 H   0  0  0  0  0  0  0  0  0  0  0  0
    8.5510   -0.8569    0.0000 H   0  0  0  0  0  0  0  0  0  0  0  0
    2.2460   -5.5505    0.0000 H   0  0  0  0  0  0  0  0  0  0  0  0
    2.8660   -6.1705    0.0000 H   0  0  0  0  0  0  0  0  0  0  0  0
    2.3100   -3.5136    0.0000 H   0  0  0  0  0  0  0  0  0  0  0  0
    1.4631   -3.7405    0.0000 H   0  0  0  0  0  0  0  0  0  0  0  0
    1.6900   -4.5874    0.0000 H   0  0  0  0  0  0  0  0  0  0  0  0
    3.4860   -5.5505    0.0000 H   0  0  0  0  0  0  0  0  0  0  0  0
    6.8671   -5.8605    0.0000 H   0  0  0  0  0  0  0  0  0  0  0  0
   10.2920    4.2258    0.0000 H   0  0  0  0  0  0  0  0  0  0  0  0
   10.9734    4.7776    0.0000 H   0  0  0  0  0  0  0  0  0  0  0  0
   10.4216    5.4590    0.0000 H   0  0  0  0  0  0  0  0  0  0  0  0
    9.5220    6.1127    0.0000 H   0  0  0  0  0  0  0  0  0  0  0  0
    8.7034    6.4269    0.0000 H   0  0  0  0  0  0  0  0  0  0  0  0
    8.3892    5.6083    0.0000 H   0  0  0  0  0  0  0  0  0  0  0  0
    5.1744    4.5163    0.0000 H   0  0  0  0  0  0  0  0  0  0  0  0
  1 12  1  0  0  0  0
  1 20  1  0  0  0  0
  2 11  1  0  0  0  0
  2 46  1  0  0  0  0
  3 15  1  0  0  0  0
  3 53  1  0  0  0  0
  4 22  1  0  0  0  0
  4 60  1  0  0  0  0
  5 20  2  0  0  0  0
  6  7  1  0  0  0  0
  6  9  2  0  0  0  0
  6 16  1  0  0  0  0
  7 11  2  0  0  0  0
  7 20  1  0  0  0  0
  8  9  1  0  0  0  0
  8 10  1  0  0  0  0
  8 15  2  0  0  0  0
  9 33  1  0  0  0  0
 10 23  1  0  0  0  0
 10 34  1  0  0  0  0
 10 35  1  0  0  0  0
 11 12  1  0  0  0  0
 12 18  2  0  0  0  0
 13 17  1  0  0  0  0
 13 19  1  0  0  0  0
 13 22  2  0  0  0  0
 14 18  1  0  0  0  0
 14 19  2  0  0  0  0
 14 24  1  0  0  0  0
 15 21  1  0  0  0  0
 16 21  2  0  0  0  0
 16 36  1  0  0  0  0
 17 26  1  0  0  0  0
 17 37  1  0  0  0  0
 17 38  1  0  0  0  0
 18 39  1  0  0  0  0
 19 40  1  0  0  0  0
 21 41  1  0  0  0  0
 22 25  1  0  0  0  0
 23 27  2  0  0  0  0
 23 42  1  0  0  0  0
 24 25  2  0  0  0  0
 24 43  1  0  0  0  0
 25 44  1  0  0  0  0
 26 28  2  0  0  0  0
 26 45  1  0  0  0  0
 27 29  1  0  0  0  0
 27 30  1  0  0  0  0
 28 31  1  0  0  0  0
 28 32  1  0  0  0  0
 29 49  1  0  0  0  0
 29 50  1  0  0  0  0
 29 51  1  0  0  0  0
 30 47  1  0  0  0  0
 30 48  1  0  0  0  0
 30 52  1  0  0  0  0
 31 54  1  0  0  0  0
 31 55  1  0  0  0  0
 31 56  1  0  0  0  0
 32 57  1  0  0  0  0
 32 58  1  0  0  0  0
 32 59  1  0  0  0  0
M  END
> <PUBCHEM_COMPOUND_CID>
54675755

> <PUBCHEM_COMPOUND_CANONICALIZED>
1

> <PUBCHEM_CACTVS_COMPLEXITY>
810

> <PUBCHEM_CACTVS_HBOND_ACCEPTOR>
5

> <PUBCHEM_CACTVS_HBOND_DONOR>
3

> <PUBCHEM_CACTVS_ROTATABLE_BOND>
6

> <PUBCHEM_CACTVS_SUBSKEYS>
AAADceB4OAAAAAAAAAAAAAAAAAAAAQAAAAAwYAAAAAAAAAABQAAAGgAACAAADASAmAAyDoAABgCIAiDSCAACCAAgIAAIiAEGCMgJJjKCNRKCcAAkwBELuQeIyPCOIAACAAAIAABAAAQAABAAAAAAAAAAAA==

> <PUBCHEM_IUPAC_OPENEYE_NAME>
(5Z)-4-hydroxy-3-[4-hydroxy-3-(3-methylbut-2-enyl)phenyl]-5-[[4-hydroxy-3-(3-methylbut-2-enyl)phenyl]methylene]furan-2-one

> <PUBCHEM_IUPAC_CAS_NAME>
(5Z)-4-hydroxy-3-[4-hydroxy-3-(3-methylbut-2-enyl)phenyl]-5-[[4-hydroxy-3-(3-methylbut-2-enyl)phenyl]methylidene]-2-furanone

> <PUBCHEM_IUPAC_NAME>
(5Z)-4-hydroxy-3-[4-hydroxy-3-(3-methylbut-2-enyl)phenyl]-5-[[4-hydroxy-3-(3-methylbut-2-enyl)phenyl]methylidene]furan-2-one

> <PUBCHEM_IUPAC_SYSTEMATIC_NAME>
(5Z)-3-[3-(3-methylbut-2-enyl)-4-oxidanyl-phenyl]-5-[[3-(3-methylbut-2-enyl)-4-oxidanyl-phenyl]methylidene]-4-oxidanyl-furan-2-one

> <PUBCHEM_IUPAC_TRADITIONAL_NAME>
(5Z)-4-hydroxy-5-[4-hydroxy-3-(3-methylbut-2-enyl)benzylidene]-3-[4-hydroxy-3-(3-methylbut-2-enyl)phenyl]furan-2-one

> <PUBCHEM_IUPAC_INCHI>
InChI=1S/C27H28O5/c1-16(2)5-8-19-13-18(7-11-22(19)28)14-24-26(30)25(27(31)32-24)21-10-12-23(29)20(15-21)9-6-17(3)4/h5-7,10-15,28-30H,8-9H2,1-4H3/b24-14-

> <PUBCHEM_IUPAC_INCHIKEY>
LFDYHAWYVIBCDT-OYKKKHCWSA-N

> <PUBCHEM_XLOGP3_AA>
6.5

> <PUBCHEM_EXACT_MASS>
432.193674

> <PUBCHEM_MOLECULAR_FORMULA>
C27H28O5

> <PUBCHEM_MOLECULAR_WEIGHT>
432.50822

> <PUBCHEM_OPENEYE_CAN_SMILES>
CC(=CCC1=C(C=CC(=C1)C=C2C(=C(C(=O)O2)C3=CC(=C(C=C3)O)CC=C(C)C)O)O)C

> <PUBCHEM_OPENEYE_ISO_SMILES>
CC(=CCC1=C(C=CC(=C1)/C=C\2/C(=C(C(=O)O2)C3=CC(=C(C=C3)O)CC=C(C)C)O)O)C

> <PUBCHEM_CACTVS_TPSA>
87

> <PUBCHEM_MONOISOTOPIC_WEIGHT>
432.193674

> <PUBCHEM_TOTAL_CHARGE>
0

> <PUBCHEM_HEAVY_ATOM_COUNT>
32

> <PUBCHEM_ATOM_DEF_STEREO_COUNT>
0

> <PUBCHEM_ATOM_UDEF_STEREO_COUNT>
0

> <PUBCHEM_BOND_DEF_STEREO_COUNT>
1

> <PUBCHEM_BOND_UDEF_STEREO_COUNT>
0

> <PUBCHEM_ISOTOPIC_ATOM_COUNT>
0

> <PUBCHEM_COMPONENT_COUNT>
1

> <PUBCHEM_CACTVS_TAUTO_COUNT>
532

> <PUBCHEM_COORDINATE_TYPE>
1
5
255

> <PUBCHEM_BONDANNOTATIONS>
13  19  8
13  22  8
14  19  8
14  24  8
15  21  8
16  21  8
22  25  8
24  25  8
6  16  8
6  9  8
8  15  8
8  9  8

$$$$

