17395620
  -OEChem-06241222512D

 53 56  0     0  0  0  0  0  0999 V2000
    4.6701    1.5158    0.0000 O   0  0  0  0  0  0  0  0  0  0  0  0
    4.1701   -3.0230    0.0000 N   0  0  0  0  0  0  0  0  0  0  0  0
    5.5361    0.0158    0.0000 N   0  0  0  0  0  0  0  0  0  0  0  0
    5.1701   -3.0230    0.0000 N   0  0  0  0  0  0  0  0  0  0  0  0
    7.2682    4.0158    0.0000 N   0  0  0  0  0  0  0  0  0  0  0  0
    4.6701   -1.4842    0.0000 C   0  0  0  0  0  0  0  0  0  0  0  0
    4.6701   -0.4842    0.0000 C   0  0  0  0  0  0  0  0  0  0  0  0
    3.8611   -2.0720    0.0000 C   0  0  0  0  0  0  0  0  0  0  0  0
    5.4791   -2.0720    0.0000 C   0  0  0  0  0  0  0  0  0  0  0  0
    2.9100   -1.7630    0.0000 C   0  0  0  0  0  0  0  0  0  0  0  0
    3.5823   -3.8321    0.0000 C   0  0  0  0  0  0  0  0  0  0  0  0
    5.5361    1.0158    0.0000 C   0  0  0  0  0  0  0  0  0  0  0  0
    6.4302   -1.7630    0.0000 C   0  0  0  0  0  0  0  0  0  0  0  0
    6.4021   -0.4842    0.0000 C   0  0  0  0  0  0  0  0  0  0  0  0
    6.4021    1.5158    0.0000 C   0  0  0  0  0  0  0  0  0  0  0  0
    6.4021    2.5158    0.0000 C   0  0  0  0  0  0  0  0  0  0  0  0
    7.2682    3.0158    0.0000 C   0  0  0  0  0  0  0  0  0  0  0  0
    2.5878   -3.7275    0.0000 C   0  0  0  0  0  0  0  0  0  0  0  0
    3.9890   -4.7456    0.0000 C   0  0  0  0  0  0  0  0  0  0  0  0
    7.2682    1.0158    0.0000 C   0  0  0  0  0  0  0  0  0  0  0  0
    8.1342    2.5158    0.0000 C   0  0  0  0  0  0  0  0  0  0  0  0
    8.1342    1.5158    0.0000 C   0  0  0  0  0  0  0  0  0  0  0  0
    2.0000   -4.5366    0.0000 C   0  0  0  0  0  0  0  0  0  0  0  0
    3.4013   -5.5546    0.0000 C   0  0  0  0  0  0  0  0  0  0  0  0
    2.4067   -5.4501    0.0000 C   0  0  0  0  0  0  0  0  0  0  0  0
    8.0772    4.6036    0.0000 C   0  0  0  0  0  0  0  0  0  0  0  0
    6.4592    4.6036    0.0000 C   0  0  0  0  0  0  0  0  0  0  0  0
    7.7682    5.5546    0.0000 C   0  0  0  0  0  0  0  0  0  0  0  0
    6.7682    5.5546    0.0000 C   0  0  0  0  0  0  0  0  0  0  0  0
    4.4580    0.0984    0.0000 H   0  0  0  0  0  0  0  0  0  0  0  0
    4.0595   -0.5919    0.0000 H   0  0  0  0  0  0  0  0  0  0  0  0
    3.1016   -1.1733    0.0000 H   0  0  0  0  0  0  0  0  0  0  0  0
    2.3204   -1.5714    0.0000 H   0  0  0  0  0  0  0  0  0  0  0  0
    2.7184   -2.3526    0.0000 H   0  0  0  0  0  0  0  0  0  0  0  0
    6.6218   -2.3526    0.0000 H   0  0  0  0  0  0  0  0  0  0  0  0
    7.0198   -1.5714    0.0000 H   0  0  0  0  0  0  0  0  0  0  0  0
    6.2386   -1.1733    0.0000 H   0  0  0  0  0  0  0  0  0  0  0  0
    6.0921   -1.0212    0.0000 H   0  0  0  0  0  0  0  0  0  0  0  0
    6.9391   -0.7942    0.0000 H   0  0  0  0  0  0  0  0  0  0  0  0
    6.7121    0.0527    0.0000 H   0  0  0  0  0  0  0  0  0  0  0  0
    5.8652    2.8258    0.0000 H   0  0  0  0  0  0  0  0  0  0  0  0
    2.3356   -3.1611    0.0000 H   0  0  0  0  0  0  0  0  0  0  0  0
    4.6056   -4.8104    0.0000 H   0  0  0  0  0  0  0  0  0  0  0  0
    7.2682    0.3958    0.0000 H   0  0  0  0  0  0  0  0  0  0  0  0
    8.6711    2.8258    0.0000 H   0  0  0  0  0  0  0  0  0  0  0  0
    8.6711    1.2058    0.0000 H   0  0  0  0  0  0  0  0  0  0  0  0
    1.3834   -4.4718    0.0000 H   0  0  0  0  0  0  0  0  0  0  0  0
    3.6534   -6.1210    0.0000 H   0  0  0  0  0  0  0  0  0  0  0  0
    2.0423   -5.9517    0.0000 H   0  0  0  0  0  0  0  0  0  0  0  0
    8.6668    4.4120    0.0000 H   0  0  0  0  0  0  0  0  0  0  0  0
    5.8695    4.4120    0.0000 H   0  0  0  0  0  0  0  0  0  0  0  0
    8.1326    6.0562    0.0000 H   0  0  0  0  0  0  0  0  0  0  0  0
    6.4037    6.0562    0.0000 H   0  0  0  0  0  0  0  0  0  0  0  0
  1 12  2  0  0  0  0
  2  4  1  0  0  0  0
  2  8  1  0  0  0  0
  2 11  1  0  0  0  0
  3  7  1  0  0  0  0
  3 12  1  0  0  0  0
  3 14  1  0  0  0  0
  4  9  2  0  0  0  0
  5 17  1  0  0  0  0
  5 26  1  0  0  0  0
  5 27  1  0  0  0  0
  6  7  1  0  0  0  0
  6  8  2  0  0  0  0
  6  9  1  0  0  0  0
  7 30  1  0  0  0  0
  7 31  1  0  0  0  0
  8 10  1  0  0  0  0
  9 13  1  0  0  0  0
 10 32  1  0  0  0  0
 10 33  1  0  0  0  0
 10 34  1  0  0  0  0
 11 18  2  0  0  0  0
 11 19  1  0  0  0  0
 12 15  1  0  0  0  0
 13 35  1  0  0  0  0
 13 36  1  0  0  0  0
 13 37  1  0  0  0  0
 14 38  1  0  0  0  0
 14 39  1  0  0  0  0
 14 40  1  0  0  0  0
 15 16  2  0  0  0  0
 15 20  1  0  0  0  0
 16 17  1  0  0  0  0
 16 41  1  0  0  0  0
 17 21  2  0  0  0  0
 18 23  1  0  0  0  0
 18 42  1  0  0  0  0
 19 24  2  0  0  0  0
 19 43  1  0  0  0  0
 20 22  2  0  0  0  0
 20 44  1  0  0  0  0
 21 22  1  0  0  0  0
 21 45  1  0  0  0  0
 22 46  1  0  0  0  0
 23 25  2  0  0  0  0
 23 47  1  0  0  0  0
 24 25  1  0  0  0  0
 24 48  1  0  0  0  0
 25 49  1  0  0  0  0
 26 28  2  0  0  0  0
 26 50  1  0  0  0  0
 27 29  2  0  0  0  0
 27 51  1  0  0  0  0
 28 29  1  0  0  0  0
 28 52  1  0  0  0  0
 29 53  1  0  0  0  0
M  END
> <PUBCHEM_COMPOUND_CID>
17395620

> <PUBCHEM_COMPOUND_CANONICALIZED>
1

> <PUBCHEM_CACTVS_COMPLEXITY>
543

> <PUBCHEM_CACTVS_HBOND_ACCEPTOR>
2

> <PUBCHEM_CACTVS_HBOND_DONOR>
0

> <PUBCHEM_CACTVS_ROTATABLE_BOND>
5

> <PUBCHEM_CACTVS_SUBSKEYS>
AAADceB7oAAAAAAAAAAAAAAAAAAAAWLAAAAwYAAAAAAAAAAB9AAAHgAIAAAADAjBngQ+wJMMEACqAzV3VACShCA1AiAY2CE4ZNgIIPLA1dGEpQhgjgDIyYcciACOAAAAQAAAAAAAAACAAAAAAAAAAAAAAA==

> <PUBCHEM_IUPAC_OPENEYE_NAME>
N-[(3,5-dimethyl-1-phenyl-pyrazol-4-yl)methyl]-N-methyl-3-pyrrol-1-yl-benzamide

> <PUBCHEM_IUPAC_CAS_NAME>
N-[(3,5-dimethyl-1-phenyl-4-pyrazolyl)methyl]-N-methyl-3-(1-pyrrolyl)benzamide

> <PUBCHEM_IUPAC_NAME>
N-[(3,5-dimethyl-1-phenylpyrazol-4-yl)methyl]-N-methyl-3-pyrrol-1-ylbenzamide

> <PUBCHEM_IUPAC_SYSTEMATIC_NAME>
N-[(3,5-dimethyl-1-phenyl-pyrazol-4-yl)methyl]-N-methyl-3-pyrrol-1-yl-benzamide

> <PUBCHEM_IUPAC_TRADITIONAL_NAME>
N-[(3,5-dimethyl-1-phenyl-pyrazol-4-yl)methyl]-N-methyl-3-pyrrol-1-yl-benzamide

> <PUBCHEM_IUPAC_INCHI>
InChI=1S/C24H24N4O/c1-18-23(19(2)28(25-18)21-11-5-4-6-12-21)17-26(3)24(29)20-10-9-13-22(16-20)27-14-7-8-15-27/h4-16H,17H2,1-3H3

> <PUBCHEM_IUPAC_INCHIKEY>
SLYFUPRIMDXZNB-UHFFFAOYSA-N

> <PUBCHEM_XLOGP3_AA>
4

> <PUBCHEM_EXACT_MASS>
384.195011

> <PUBCHEM_MOLECULAR_FORMULA>
C24H24N4O

> <PUBCHEM_MOLECULAR_WEIGHT>
384.47356

> <PUBCHEM_OPENEYE_CAN_SMILES>
CC1=C(C(=NN1C2=CC=CC=C2)C)CN(C)C(=O)C3=CC(=CC=C3)N4C=CC=C4

> <PUBCHEM_OPENEYE_ISO_SMILES>
CC1=C(C(=NN1C2=CC=CC=C2)C)CN(C)C(=O)C3=CC(=CC=C3)N4C=CC=C4

> <PUBCHEM_CACTVS_TPSA>
43.1

> <PUBCHEM_MONOISOTOPIC_WEIGHT>
384.195011

> <PUBCHEM_TOTAL_CHARGE>
0

> <PUBCHEM_HEAVY_ATOM_COUNT>
29

> <PUBCHEM_ATOM_DEF_STEREO_COUNT>
0

> <PUBCHEM_ATOM_UDEF_STEREO_COUNT>
0

> <PUBCHEM_BOND_DEF_STEREO_COUNT>
0

> <PUBCHEM_BOND_UDEF_STEREO_COUNT>
0

> <PUBCHEM_ISOTOPIC_ATOM_COUNT>
0

> <PUBCHEM_COMPONENT_COUNT>
1

> <PUBCHEM_CACTVS_TAUTO_COUNT>
1

> <PUBCHEM_COORDINATE_TYPE>
1
5
255

> <PUBCHEM_BONDANNOTATIONS>
11  18  8
11  19  8
15  16  8
15  20  8
16  17  8
17  21  8
18  23  8
19  24  8
2  4  8
2  8  8
20  22  8
21  22  8
23  25  8
24  25  8
26  28  8
27  29  8
28  29  8
4  9  8
5  26  8
5  27  8
6  8  8
6  9  8

$$$$

