   Color/Form

     * White, crystalline powder
     * White crystalline powder or as white, needle-like crystals

   from [1]HSDB

   Odor
        Odorless or has a faint odor characteristic of the penicillins
   from [2]HSDB

   Melting Point
        202 deg C, with decomposition
   from [3]HSDB

   Dissociation Constants
        pKa = 2.5, 7.3 at 23 deg C
   from [4]HSDB

   Solubilities

     * 1 Gm dissolves in about 90 ml of water, 20 ml of methanol, 250 ml
       of absolute ethanol, 13 ml of dimethylacetamide, and less than 10
       ml of dimethylsulfoxide; practically insoluble in ether, ethyl
       acetate, petroleum ether, benzene, and chloroform.
     * In water, 10.1X10+3 mg/l at 21 deg C

   from [5]HSDB

   Spectral Properties
        Optical rotation = +287.9 deg at 20 deg C (C=1 in H2O)
   from [6]HSDB

   Other Chemical/Physical Properties

     * SOL IN WATER, DIMETHYL SULFOXIDE; DECOMP @ 199-202 DEG C; SPECIFIC
       ROTATION: +287.9 DEG @ 23 DEG C/D (WATER) /ANHYDROUS FORM/
     * CRYSTALS FROM WATER; SPARINGLY SOL IN WATER @ ROOM TEMPERATURE;
       DECOMP @ 202 DEG C; SPECIFIC ROTATION: +281 DEG @ 21 DEG C/D
       (WATER) /MONOHYDRATE/
     * DECOMP @ 199-202 DEG C; SPECIFIC ROTATION: +283.1 DEG @ 20 DEG C/D
       (WATER) /SESQUIHYDRATE/
     * CRYSTALS; DECOMP ABOUT 205 DEG C; SPECIFIC ROTATION: +209 DEG @ 20
       DEG C/D (C= 0.2 IN WATER) /L(+)-FORM, SODIUM SALT/
     * It is not stable in aqueous solutions of alkali hydroxides and
       carbonates, and is decomposed by dilute solutions of mineral acids.
     * pH of 10 g/ml aqueous solution is 3.5-6.0

   from [7]HSDB

   Computed Properties
   Molecular Weight                  349.40476 [g/mol]
   Molecular Formula                 C[16]H[19]N[3]O[4]S
   XLogP3                            -1.1
   H-Bond Donor                      3
   H-Bond Acceptor                   6
   Rotatable Bond Count              4
   Tautomer Count                    4
   Exact Mass                        349.109627
   MonoIsotopic Mass                 349.109627
   Topological Polar Surface Area    138
   Heavy Atom Count                  24
   Formal Charge                     0
   Complexity                        562
   Isotope Atom Count                0
   Defined Atom Stereocenter Count   4
   Undefined Atom Stereocenter Count 0
   Defined Bond Stereocenter Count   0
   Undefined Bond Stereocenter Count 0
   Covalently-Bonded Unit Count      1
   Feature 3D Acceptor Count         4
   Feature 3D Donor Count            2
   Feature 3D Anion Count            1
   Feature 3D Cation Count           1
   Feature 3D Hydrophobe Count       1
   Feature 3D Ring Count             2
   Effective Rotor Count             5.8
   Conformer Sampling RMSD           0.8
   CID Conformer Count               [8]30

References

   1. http://toxnet.nlm.nih.gov/cgi-bin/sis/search/r?dbs+hsdb:@term+@rn+@rel+69-53-4
   2. http://toxnet.nlm.nih.gov/cgi-bin/sis/search/r?dbs+hsdb:@term+@rn+@rel+69-53-4
   3. http://toxnet.nlm.nih.gov/cgi-bin/sis/search/r?dbs+hsdb:@term+@rn+@rel+69-53-4
   4. http://toxnet.nlm.nih.gov/cgi-bin/sis/search/r?dbs+hsdb:@term+@rn+@rel+69-53-4
   5. http://toxnet.nlm.nih.gov/cgi-bin/sis/search/r?dbs+hsdb:@term+@rn+@rel+69-53-4
   6. http://toxnet.nlm.nih.gov/cgi-bin/sis/search/r?dbs+hsdb:@term+@rn+@rel+69-53-4
   7. http://toxnet.nlm.nih.gov/cgi-bin/sis/search/r?dbs+hsdb:@term+@rn+@rel+69-53-4
   8. http://pubchem.ncbi.nlm.nih.gov/vw3d/vw3d.cgi?cid=6249
