3037043
  -OEChem-07051212502D

 31 31  0     1  0  0  0  0  0999 V2000
    2.0000   -1.0120    0.0000 S   0  0  0  0  0  0  0  0  0  0  0  0
    6.7985    1.3044    0.0000 O   0  0  0  0  0  0  0  0  0  0  0  0
    5.1043    0.9442    0.0000 O   0  0  0  0  0  0  0  0  0  0  0  0
    7.2144   -0.6519    0.0000 N   0  3  0  0  0  0  0  0  0  0  0  0
    3.7601   -1.2908    0.0000 N   0  0  0  0  0  0  0  0  0  0  0  0
    3.2601    0.2480    0.0000 N   0  0  0  0  0  0  0  0  0  0  0  0
    6.2633   -0.3429    0.0000 C   0  0  1  0  0  0  0  0  0  0  0  0
    5.5202   -1.0120    0.0000 C   0  0  0  0  0  0  0  0  0  0  0  0
    8.1654   -0.9609    0.0000 C   0  0  0  0  0  0  0  0  0  0  0  0
    7.5234    0.2991    0.0000 C   0  0  0  0  0  0  0  0  0  0  0  0
    6.9053   -1.6030    0.0000 C   0  0  0  0  0  0  0  0  0  0  0  0
    4.5691   -0.7030    0.0000 C   0  0  0  0  0  0  0  0  0  0  0  0
    6.0554    0.6352    0.0000 C   0  0  0  0  0  0  0  0  0  0  0  0
    4.2601    0.2480    0.0000 C   0  0  0  0  0  0  0  0  0  0  0  0
    2.9511   -0.7030    0.0000 C   0  0  0  0  0  0  0  0  0  0  0  0
    6.7240    0.0719    0.0000 H   0  0  0  0  0  0  0  0  0  0  0  0
    5.2291   -1.5595    0.0000 H   0  0  0  0  0  0  0  0  0  0  0  0
    6.0087   -1.3938    0.0000 H   0  0  0  0  0  0  0  0  0  0  0  0
    7.9738   -1.5506    0.0000 H   0  0  0  0  0  0  0  0  0  0  0  0
    8.7551   -1.1525    0.0000 H   0  0  0  0  0  0  0  0  0  0  0  0
    8.3570   -0.3713    0.0000 H   0  0  0  0  0  0  0  0  0  0  0  0
    8.1130    0.1075    0.0000 H   0  0  0  0  0  0  0  0  0  0  0  0
    7.7150    0.8888    0.0000 H   0  0  0  0  0  0  0  0  0  0  0  0
    6.9337    0.4907    0.0000 H   0  0  0  0  0  0  0  0  0  0  0  0
    6.3157   -1.4114    0.0000 H   0  0  0  0  0  0  0  0  0  0  0  0
    6.7137   -2.1926    0.0000 H   0  0  0  0  0  0  0  0  0  0  0  0
    7.4950   -1.7946    0.0000 H   0  0  0  0  0  0  0  0  0  0  0  0
    3.7601   -1.9108    0.0000 H   0  0  0  0  0  0  0  0  0  0  0  0
    4.6245    0.7496    0.0000 H   0  0  0  0  0  0  0  0  0  0  0  0
    2.8956    0.7496    0.0000 H   0  0  0  0  0  0  0  0  0  0  0  0
    6.6696    1.9108    0.0000 H   0  0  0  0  0  0  0  0  0  0  0  0
  1 15  2  0  0  0  0
  2 13  1  0  0  0  0
  2 31  1  0  0  0  0
  3 13  2  0  0  0  0
  4  7  1  0  0  0  0
  4  9  1  0  0  0  0
  4 10  1  0  0  0  0
  4 11  1  0  0  0  0
  5 12  1  0  0  0  0
  5 15  1  0  0  0  0
  5 28  1  0  0  0  0
  6 14  1  0  0  0  0
  6 15  1  0  0  0  0
  6 30  1  0  0  0  0
  7  8  1  0  0  0  0
  7 13  1  1  0  0  0
  7 16  1  0  0  0  0
  8 12  1  0  0  0  0
  8 17  1  0  0  0  0
  8 18  1  0  0  0  0
  9 19  1  0  0  0  0
  9 20  1  0  0  0  0
  9 21  1  0  0  0  0
 10 22  1  0  0  0  0
 10 23  1  0  0  0  0
 10 24  1  0  0  0  0
 11 25  1  0  0  0  0
 11 26  1  0  0  0  0
 11 27  1  0  0  0  0
 12 14  2  0  0  0  0
 14 29  1  0  0  0  0
M  CHG  1   4   1
M  END
> <PUBCHEM_COMPOUND_CID>
3037043

> <PUBCHEM_COMPOUND_CANONICALIZED>
1

> <PUBCHEM_CACTVS_COMPLEXITY>
320

> <PUBCHEM_CACTVS_HBOND_ACCEPTOR>
3

> <PUBCHEM_CACTVS_HBOND_DONOR>
3

> <PUBCHEM_CACTVS_ROTATABLE_BOND>
4

> <PUBCHEM_CACTVS_SUBSKEYS>
AAADceBzMABAAAAAAAAAAAAAAAAAAQAAAAAAAAAAAAAAAAAAAAAAHgQQCAAACCjBgAQDCAPAAgCMAATWSAAAAAAgAgkAAIGIAAiCABAAwSAEQAAMkAIQAAAkAAAAAAAAAAAAAAAAAAAAAAAAAAAAAAAAAA==

> <PUBCHEM_IUPAC_OPENEYE_NAME>
[(1S)-1-carboxy-2-(2-thioxo-1,3-dihydroimidazol-4-yl)ethyl]-trimethyl-ammonium

> <PUBCHEM_IUPAC_CAS_NAME>
[(1S)-1-carboxy-2-(2-sulfanylidene-1,3-dihydroimidazol-4-yl)ethyl]-trimethylammonium

> <PUBCHEM_IUPAC_NAME>
[(1S)-1-carboxy-2-(2-sulfanylidene-1,3-dihydroimidazol-4-yl)ethyl]-trimethylazanium

> <PUBCHEM_IUPAC_SYSTEMATIC_NAME>
trimethyl-[(2S)-1-oxidanyl-1-oxidanylidene-3-(2-sulfanylidene-1,3-dihydroimidazol-4-yl)propan-2-yl]azanium

> <PUBCHEM_IUPAC_TRADITIONAL_NAME>
[(1S)-1-carboxy-2-(2-thioxo-4-imidazolin-4-yl)ethyl]-trimethyl-ammonium

> <PUBCHEM_IUPAC_INCHI>
InChI=1S/C9H15N3O2S/c1-12(2,3)7(8(13)14)4-6-5-10-9(15)11-6/h5,7H,4H2,1-3H3,(H2-,10,11,13,14,15)/p+1/t7-/m0/s1

> <PUBCHEM_IUPAC_INCHIKEY>
SSISHJJTAXXQAX-ZETCQYMHSA-O

> <PUBCHEM_XLOGP3_AA>
-0.3

> <PUBCHEM_EXACT_MASS>
230.096323

> <PUBCHEM_MOLECULAR_FORMULA>
C9H16N3O2S+

> <PUBCHEM_MOLECULAR_WEIGHT>
230.30724

> <PUBCHEM_OPENEYE_CAN_SMILES>
C[N+](C)(C)C(CC1=CNC(=S)N1)C(=O)O

> <PUBCHEM_OPENEYE_ISO_SMILES>
C[N+](C)(C)[C@@H](CC1=CNC(=S)N1)C(=O)O

> <PUBCHEM_CACTVS_TPSA>
93.4

> <PUBCHEM_MONOISOTOPIC_WEIGHT>
230.096323

> <PUBCHEM_TOTAL_CHARGE>
1

> <PUBCHEM_HEAVY_ATOM_COUNT>
15

> <PUBCHEM_ATOM_DEF_STEREO_COUNT>
1

> <PUBCHEM_ATOM_UDEF_STEREO_COUNT>
0

> <PUBCHEM_BOND_DEF_STEREO_COUNT>
0

> <PUBCHEM_BOND_UDEF_STEREO_COUNT>
0

> <PUBCHEM_ISOTOPIC_ATOM_COUNT>
0

> <PUBCHEM_COMPONENT_COUNT>
1

> <PUBCHEM_CACTVS_TAUTO_COUNT>
3

> <PUBCHEM_COORDINATE_TYPE>
1
5
255

> <PUBCHEM_BONDANNOTATIONS>
12  14  8
5  12  8
5  15  8
6  14  8
6  15  8
7  13  5

$$$$

