74769
  -OEChem-07051213062D

 40 42  0     0  0  0  0  0  0999 V2000
    7.5673    3.3334    0.0000 I   0  0  0  0  0  0  0  0  0  0  0  0
    8.2816   -0.0562    0.0000 I   0  0  0  0  0  0  0  0  0  0  0  0
    4.6783   -1.5401    0.0000 O   0  0  0  0  0  0  0  0  0  0  0  0
    4.3211    1.7642    0.0000 O   0  0  0  0  0  0  0  0  0  0  0  0
    8.9030    1.8448    0.0000 O   0  0  0  0  0  0  0  0  0  0  0  0
    6.2619   -0.7353    0.0000 C   0  0  0  0  0  0  0  0  0  0  0  0
    5.2619   -0.7353    0.0000 C   0  0  0  0  0  0  0  0  0  0  0  0
    4.6783    0.0694    0.0000 C   0  0  0  0  0  0  0  0  0  0  0  0
    6.7619   -1.6014    0.0000 C   0  0  0  0  0  0  0  0  0  0  0  0
    3.7320   -0.2353    0.0000 C   0  0  0  0  0  0  0  0  0  0  0  0
    3.7320   -1.2353    0.0000 C   0  0  0  0  0  0  0  0  0  0  0  0
    6.2619   -2.4674    0.0000 C   0  0  0  0  0  0  0  0  0  0  0  0
    4.9889    1.0199    0.0000 C   0  0  0  0  0  0  0  0  0  0  0  0
    2.8660    0.2647    0.0000 C   0  0  0  0  0  0  0  0  0  0  0  0
    2.8660   -1.7353    0.0000 C   0  0  0  0  0  0  0  0  0  0  0  0
    5.9674    1.2261    0.0000 C   0  0  0  0  0  0  0  0  0  0  0  0
    6.7619   -3.3334    0.0000 C   0  0  0  0  0  0  0  0  0  0  0  0
    2.0000   -0.2353    0.0000 C   0  0  0  0  0  0  0  0  0  0  0  0
    2.0000   -1.2353    0.0000 C   0  0  0  0  0  0  0  0  0  0  0  0
    6.6353    0.4818    0.0000 C   0  0  0  0  0  0  0  0  0  0  0  0
    6.2781    2.1767    0.0000 C   0  0  0  0  0  0  0  0  0  0  0  0
    7.2566    2.3829    0.0000 C   0  0  0  0  0  0  0  0  0  0  0  0
    7.6138    0.6881    0.0000 C   0  0  0  0  0  0  0  0  0  0  0  0
    7.9244    1.6386    0.0000 C   0  0  0  0  0  0  0  0  0  0  0  0
    6.8445   -0.5233    0.0000 H   0  0  0  0  0  0  0  0  0  0  0  0
    6.1542   -0.1247    0.0000 H   0  0  0  0  0  0  0  0  0  0  0  0
    7.2368   -1.9999    0.0000 H   0  0  0  0  0  0  0  0  0  0  0  0
    7.2368   -1.2028    0.0000 H   0  0  0  0  0  0  0  0  0  0  0  0
    5.7869   -2.0688    0.0000 H   0  0  0  0  0  0  0  0  0  0  0  0
    5.7869   -2.8659    0.0000 H   0  0  0  0  0  0  0  0  0  0  0  0
    2.8660    0.8847    0.0000 H   0  0  0  0  0  0  0  0  0  0  0  0
    2.8660   -2.3553    0.0000 H   0  0  0  0  0  0  0  0  0  0  0  0
    6.2249   -3.6434    0.0000 H   0  0  0  0  0  0  0  0  0  0  0  0
    7.0719   -3.8703    0.0000 H   0  0  0  0  0  0  0  0  0  0  0  0
    7.2988   -3.0234    0.0000 H   0  0  0  0  0  0  0  0  0  0  0  0
    1.4631    0.0747    0.0000 H   0  0  0  0  0  0  0  0  0  0  0  0
    1.4631   -1.5453    0.0000 H   0  0  0  0  0  0  0  0  0  0  0  0
    6.4427   -0.1075    0.0000 H   0  0  0  0  0  0  0  0  0  0  0  0
    5.8640    2.6381    0.0000 H   0  0  0  0  0  0  0  0  0  0  0  0
    9.0956    2.4341    0.0000 H   0  0  0  0  0  0  0  0  0  0  0  0
  1 22  1  0  0  0  0
  2 23  1  0  0  0  0
  3  7  1  0  0  0  0
  3 11  1  0  0  0  0
  4 13  2  0  0  0  0
  5 24  1  0  0  0  0
  5 40  1  0  0  0  0
  6  7  1  0  0  0  0
  6  9  1  0  0  0  0
  6 25  1  0  0  0  0
  6 26  1  0  0  0  0
  7  8  2  0  0  0  0
  8 10  1  0  0  0  0
  8 13  1  0  0  0  0
  9 12  1  0  0  0  0
  9 27  1  0  0  0  0
  9 28  1  0  0  0  0
 10 11  1  0  0  0  0
 10 14  2  0  0  0  0
 11 15  2  0  0  0  0
 12 17  1  0  0  0  0
 12 29  1  0  0  0  0
 12 30  1  0  0  0  0
 13 16  1  0  0  0  0
 14 18  1  0  0  0  0
 14 31  1  0  0  0  0
 15 19  1  0  0  0  0
 15 32  1  0  0  0  0
 16 20  2  0  0  0  0
 16 21  1  0  0  0  0
 17 33  1  0  0  0  0
 17 34  1  0  0  0  0
 17 35  1  0  0  0  0
 18 19  2  0  0  0  0
 18 36  1  0  0  0  0
 19 37  1  0  0  0  0
 20 23  1  0  0  0  0
 20 38  1  0  0  0  0
 21 22  2  0  0  0  0
 21 39  1  0  0  0  0
 22 24  1  0  0  0  0
 23 24  2  0  0  0  0
M  END
> <PUBCHEM_COMPOUND_CID>
74769

> <PUBCHEM_COMPOUND_CANONICALIZED>
1

> <PUBCHEM_CACTVS_COMPLEXITY>
432

> <PUBCHEM_CACTVS_HBOND_ACCEPTOR>
3

> <PUBCHEM_CACTVS_HBOND_DONOR>
1

> <PUBCHEM_CACTVS_ROTATABLE_BOND>
5

> <PUBCHEM_CACTVS_SUBSKEYS>
AAADceB4MAAAAwAAAAAAAAAAAAAAASAAAAAwYAAAAAAAAEgB9AAAGgAgCAAADASCmAAyBsAABkCIAqBSAAACCAAkIAAIiAEGCMgMJjaONRqCeWCk4BEIuYeLzPDOoAAAAAAIAABAAAAAABAAAAAAAAAAAA==

> <PUBCHEM_IUPAC_OPENEYE_NAME>
(2-butylbenzofuran-3-yl)-(4-hydroxy-3,5-diiodo-phenyl)methanone

> <PUBCHEM_IUPAC_CAS_NAME>
(2-butyl-3-benzofuranyl)-(4-hydroxy-3,5-diiodophenyl)methanone

> <PUBCHEM_IUPAC_NAME>
(2-butyl-1-benzofuran-3-yl)-(4-hydroxy-3,5-diiodophenyl)methanone

> <PUBCHEM_IUPAC_SYSTEMATIC_NAME>
[3,5-bis(iodanyl)-4-oxidanyl-phenyl]-(2-butyl-1-benzofuran-3-yl)methanone

> <PUBCHEM_IUPAC_TRADITIONAL_NAME>
(2-butylbenzofuran-3-yl)-(4-hydroxy-3,5-diiodo-phenyl)methanone

> <PUBCHEM_IUPAC_INCHI>
InChI=1S/C19H16I2O3/c1-2-3-7-16-17(12-6-4-5-8-15(12)24-16)18(22)11-9-13(20)19(23)14(21)10-11/h4-6,8-10,23H,2-3,7H2,1H3

> <PUBCHEM_IUPAC_INCHIKEY>
PNFMEGSMKIHDFZ-UHFFFAOYSA-N

> <PUBCHEM_XLOGP3>
6.5

> <PUBCHEM_EXACT_MASS>
545.91889

> <PUBCHEM_MOLECULAR_FORMULA>
C19H16I2O3

> <PUBCHEM_MOLECULAR_WEIGHT>
546.13748

> <PUBCHEM_OPENEYE_CAN_SMILES>
CCCCC1=C(C2=CC=CC=C2O1)C(=O)C3=CC(=C(C(=C3)I)O)I

> <PUBCHEM_OPENEYE_ISO_SMILES>
CCCCC1=C(C2=CC=CC=C2O1)C(=O)C3=CC(=C(C(=C3)I)O)I

> <PUBCHEM_CACTVS_TPSA>
50.4

> <PUBCHEM_MONOISOTOPIC_WEIGHT>
545.91889

> <PUBCHEM_TOTAL_CHARGE>
0

> <PUBCHEM_HEAVY_ATOM_COUNT>
24

> <PUBCHEM_ATOM_DEF_STEREO_COUNT>
0

> <PUBCHEM_ATOM_UDEF_STEREO_COUNT>
0

> <PUBCHEM_BOND_DEF_STEREO_COUNT>
0

> <PUBCHEM_BOND_UDEF_STEREO_COUNT>
0

> <PUBCHEM_ISOTOPIC_ATOM_COUNT>
0

> <PUBCHEM_COMPONENT_COUNT>
1

> <PUBCHEM_CACTVS_TAUTO_COUNT>
4

> <PUBCHEM_COORDINATE_TYPE>
1
5
255

> <PUBCHEM_BONDANNOTATIONS>
10  11  8
10  14  8
11  15  8
14  18  8
15  19  8
16  20  8
16  21  8
18  19  8
20  23  8
21  22  8
22  24  8
23  24  8
3  11  8
3  7  8
7  8  8
8  10  8

$$$$

