   Color/Form

     * Monoclinic tablets, plates, leaflets
     * White scales or needle crystals

   from [1]HSDB

   Odor

     * Odorless or with a slight benzaldehyde odor
     * FAINT, PLEASANT ODOR

   from [2]HSDB

   Taste

     * ALMOST TASTELESS /BENZOIC ACID USP/
     * BITTER TASTE
     * Taste detection 8.5X10+1 ppm /Media and purity not specified/

   from [3]HSDB

   Boiling Point
        249.2 deg C at 760 mm Hg
   from [4]HSDB

   Melting Point
        122.4 deg C
   from [5]HSDB

   Critical Temperature and Pressure
        Critical temperature: 479 deg C; critical pressure: 45 atm
   from [6]HSDB

   Density/Specific Gravity
        1.2659 at 15 deg C/4 deg C
   from [7]HSDB

   Dissociation Constants
        pKa=4.19, Ka =6.339X10-5 at 25 deg C
   from [8]HSDB

   Heat of Combustion
        3227 kJ/mole
   from [9]HSDB

   Heat of Vaporization
        534 KJ/mol at 140 deg C, 425 Kj/mol at 249 deg C
   from [10]HSDB

   Octanol/Water Partition Coefficient
        log Kow = 1.87
   from [11]HSDB

   pH
        pH = 2.8 (Saturated soln at 25 deg C)
   from [12]HSDB

   Solubilities

     * 1 G/300 ML WATER; 1 G/3 ML ETHER
     * 1 g/23 mL oil of turpentine; 1 g/2.3 mL alcohol (cold); 1 g/30 mL
       carbon disulfide; 1 g/1.5 ml alcohol (boiling); 1 g/10 ml benzene;
       1 g/30 ml carbon tetrachloride. Sol in volatile and fixed oils;
       slightly sol in petroleum ether.
     * 0.29 g/L of benzoic acid in water at 20 deg C
     * Acetone 55.6 g/L, benzene 12.2 g/L, carbone tetrachloride 4.1g/L,
       chloroform 15g/L, ethanol 58.4 g/L, ethyl ether 40.8 g/L, hexane
       0.9 g/L methanol 71.5 g/L, toluene 10.6 g/L.
     * In water, 3.5X10+3 mg/L at 25 deg C

   from [13]HSDB

   Spectral Properties

     * MAX ABSORPTION (ALCOHOL): 227 NM (LOG E= 4.06); SADTLER REF NUMBER:
       779 (IR, PRISM); 162 (IR, GRATING)
     * IR: 6994 (Coblentz Society Spectral Collection)
     * UV: 252 (Sadtler Research Laboratories Spectral Collection)
     * 1H NMR: 57 (Sadtler Research Laboratories Spectral Collection)
     * 13C NMR: 230(Johnson and Jankowski, Carbon13 NMR Spectra, John
       wiley and Sons, New York)
     * Raman: 6 (Sadtler Research Laboratories Spectral Collection)
     * MASS: 61193 (NIST/EPA/MSDC Mass Spectral Database 1990 Version)
     * Intense mass spectral peaks: 77 m/z, 105 m/z, 122 m/z
     * Index of refraction = 1.504 at 132 deg C/D

   from [14]HSDB

   Surface Tension
        31 mN/m at 130 deg C
   from [15]HSDB

   Vapor Density
        4.21 (Air= 1)
   from [16]HSDB

   Vapor Pressure
        7.0X10-4 mm Hg at 25 deg C
   from [17]HSDB

   Viscosity
        1.26 mPa s at 130 deg C
   from [18]HSDB

   Other Chemical/Physical Properties

     * Sublimes at 100 deg C
     * Mixtures of excess benzoic acid & water form 2 liquid phases
       beginning at 89.7 deg C; the two phases unite at critical solution
       temperature of 117.2 deg C; solubility in water increased by
       alkaline substances.
     * Heat of fusion: 33.89 cal/g
     * Monomer & dimer models for solubility of benzoic acid in simple
       binary and ternary solvents are reported. [Acree WE, Bertrand GL; J
       Pharm Sci 70 (9): 1033-6 (1981)] [19]PubMed Abstract
     * Congeals between 121-123 deg C
     * Specific heat 1.1966 cal/g solid (20-122.4 deg C), and 1.774 cal/g
       liquid (122.4-322 deg C); Heat of formation at 26.16 deg C, abs
       kJ/mol, solid= -38.19
     * Pressure coefficient of freezing temp, -0.039 deg C/101.3 kPa (=
       deg C/atm)
     * White chips or solid /USP or technical grade/
     * Light tan chips or solid /Industrial grade/
     * Volatile with steam
     * Volatile at warm temperatures.
     * Henry's Law constant = 3.3X10-8 atm cu m/mole at 25 deg C
       /Estimated/
     * Hydroxyl radical reaction rate constant 1.2X10-12 cu cm/molec-sec
       /Estimated/

   from [20]HSDB

   Computed Properties
   Molecular Weight                  122.12134 [g/mol]
   Molecular Formula                 C[7]H[6]O[2]
   XLogP3                            1.9
   H-Bond Donor                      1
   H-Bond Acceptor                   2
   Rotatable Bond Count              1
   Exact Mass                        122.036779
   MonoIsotopic Mass                 122.036779
   Topological Polar Surface Area    37.3
   Heavy Atom Count                  9
   Formal Charge                     0
   Complexity                        104
   Isotope Atom Count                0
   Defined Atom Stereocenter Count   0
   Undefined Atom Stereocenter Count 0
   Defined Bond Stereocenter Count   0
   Undefined Bond Stereocenter Count 0
   Covalently-Bonded Unit Count      1
   Feature 3D Acceptor Count         2
   Feature 3D Anion Count            1
   Feature 3D Ring Count             1
   Effective Rotor Count             1
   Conformer Sampling RMSD           0.4
   CID Conformer Count               [21]2

References

   1. http://toxnet.nlm.nih.gov/cgi-bin/sis/search/r?dbs+hsdb:@term+@rn+@rel+65-85-0
   2. http://toxnet.nlm.nih.gov/cgi-bin/sis/search/r?dbs+hsdb:@term+@rn+@rel+65-85-0
   3. http://toxnet.nlm.nih.gov/cgi-bin/sis/search/r?dbs+hsdb:@term+@rn+@rel+65-85-0
   4. http://toxnet.nlm.nih.gov/cgi-bin/sis/search/r?dbs+hsdb:@term+@rn+@rel+65-85-0
   5. http://toxnet.nlm.nih.gov/cgi-bin/sis/search/r?dbs+hsdb:@term+@rn+@rel+65-85-0
   6. http://toxnet.nlm.nih.gov/cgi-bin/sis/search/r?dbs+hsdb:@term+@rn+@rel+65-85-0
   7. http://toxnet.nlm.nih.gov/cgi-bin/sis/search/r?dbs+hsdb:@term+@rn+@rel+65-85-0
   8. http://toxnet.nlm.nih.gov/cgi-bin/sis/search/r?dbs+hsdb:@term+@rn+@rel+65-85-0
   9. http://toxnet.nlm.nih.gov/cgi-bin/sis/search/r?dbs+hsdb:@term+@rn+@rel+65-85-0
  10. http://toxnet.nlm.nih.gov/cgi-bin/sis/search/r?dbs+hsdb:@term+@rn+@rel+65-85-0
  11. http://toxnet.nlm.nih.gov/cgi-bin/sis/search/r?dbs+hsdb:@term+@rn+@rel+65-85-0
  12. http://toxnet.nlm.nih.gov/cgi-bin/sis/search/r?dbs+hsdb:@term+@rn+@rel+65-85-0
  13. http://toxnet.nlm.nih.gov/cgi-bin/sis/search/r?dbs+hsdb:@term+@rn+@rel+65-85-0
  14. http://toxnet.nlm.nih.gov/cgi-bin/sis/search/r?dbs+hsdb:@term+@rn+@rel+65-85-0
  15. http://toxnet.nlm.nih.gov/cgi-bin/sis/search/r?dbs+hsdb:@term+@rn+@rel+65-85-0
  16. http://toxnet.nlm.nih.gov/cgi-bin/sis/search/r?dbs+hsdb:@term+@rn+@rel+65-85-0
  17. http://toxnet.nlm.nih.gov/cgi-bin/sis/search/r?dbs+hsdb:@term+@rn+@rel+65-85-0
  18. http://toxnet.nlm.nih.gov/cgi-bin/sis/search/r?dbs+hsdb:@term+@rn+@rel+65-85-0
  19. http://www.ncbi.nlm.nih.gov/entrez/query.fcgi?cmd=Retrieve&db=pubmed&dopt=Abstract&list_uids=6101149
  20. http://toxnet.nlm.nih.gov/cgi-bin/sis/search/r?dbs+hsdb:@term+@rn+@rel+65-85-0
  21. http://pubchem.ncbi.nlm.nih.gov/vw3d/vw3d.cgi?cid=243
