   Color/Form
        Yellow liquid
   from [1]HSDB

   Boiling Point
        235.5 deg C
   from [2]HSDB

   Melting Point
        3.5 deg C
   from [3]HSDB

   Critical Temperature and Pressure
        Critical temperature: 405 deg C; critical pressure: 3.12X10+3 kPa
   from [4]HSDB

   Density/Specific Gravity
        0.96 kg/l @ 20 deg C
   from [5]HSDB

   Heat of Vaporization
        8.29X10+7 J/kmol @ 3.5 deg C
   from [6]HSDB

   Octanol/Water Partition Coefficient
        log Kow= 0.95
   from [7]HSDB

   Solubilities

     * Soluble in oxygenated solvents
     * In water, 670 mg/l @ 26.7 deg C.

   from [8]HSDB

   Spectral Properties

     * IR: 2:641B (Aldrich Library of Infrared Spectra, Aldrich Chemical
       Co, Milwaukee, WI)
     * NMR: 5:61B (Aldrich Library of Mass Spectra, Aldrich Chemical Co,
       Milwaukee, WI)
     * Refractive index: 1.5456 at 20 deg C

   from [9]HSDB

   Surface Tension
        3.27X10-2 N/m @ 3.5 deg C
   from [10]HSDB

   Vapor Pressure
        3.83X10-3 mm Hg @ 25 deg C
   from [11]HSDB

   Viscosity
        9.97X10-3 Pa.s @ 3.5 deg C
   from [12]HSDB

   Other Chemical/Physical Properties

     * BP: 114 deg C
     * MP: 3-4 deg C
     * Specific gravity: 0.906

   from [13]HSDB

   Computed Properties
   Molecular Weight                  149.2328 [g/mol]
   Molecular Formula                 C[10]H[15]N
   XLogP3                            2.7
   H-Bond Donor                      1
   H-Bond Acceptor                   1
   Rotatable Bond Count              2
   Exact Mass                        149.120449
   MonoIsotopic Mass                 149.120449
   Topological Polar Surface Area    26
   Heavy Atom Count                  11
   Formal Charge                     0
   Complexity                        99.4
   Isotope Atom Count                0
   Defined Atom Stereocenter Count   0
   Undefined Atom Stereocenter Count 0
   Defined Bond Stereocenter Count   0
   Undefined Bond Stereocenter Count 0
   Covalently-Bonded Unit Count      1
   Feature 3D Donor Count            1
   Feature 3D Cation Count           1
   Feature 3D Hydrophobe Count       2
   Feature 3D Ring Count             1
   Effective Rotor Count             2
   Conformer Sampling RMSD           0.4
   CID Conformer Count               [14]6

References

   1. http://toxnet.nlm.nih.gov/cgi-bin/sis/search/r?dbs+hsdb:@term+@rn+@rel+579-66-8
   2. http://toxnet.nlm.nih.gov/cgi-bin/sis/search/r?dbs+hsdb:@term+@rn+@rel+579-66-8
   3. http://toxnet.nlm.nih.gov/cgi-bin/sis/search/r?dbs+hsdb:@term+@rn+@rel+579-66-8
   4. http://toxnet.nlm.nih.gov/cgi-bin/sis/search/r?dbs+hsdb:@term+@rn+@rel+579-66-8
   5. http://toxnet.nlm.nih.gov/cgi-bin/sis/search/r?dbs+hsdb:@term+@rn+@rel+579-66-8
   6. http://toxnet.nlm.nih.gov/cgi-bin/sis/search/r?dbs+hsdb:@term+@rn+@rel+579-66-8
   7. http://toxnet.nlm.nih.gov/cgi-bin/sis/search/r?dbs+hsdb:@term+@rn+@rel+579-66-8
   8. http://toxnet.nlm.nih.gov/cgi-bin/sis/search/r?dbs+hsdb:@term+@rn+@rel+579-66-8
   9. http://toxnet.nlm.nih.gov/cgi-bin/sis/search/r?dbs+hsdb:@term+@rn+@rel+579-66-8
  10. http://toxnet.nlm.nih.gov/cgi-bin/sis/search/r?dbs+hsdb:@term+@rn+@rel+579-66-8
  11. http://toxnet.nlm.nih.gov/cgi-bin/sis/search/r?dbs+hsdb:@term+@rn+@rel+579-66-8
  12. http://toxnet.nlm.nih.gov/cgi-bin/sis/search/r?dbs+hsdb:@term+@rn+@rel+579-66-8
  13. http://toxnet.nlm.nih.gov/cgi-bin/sis/search/r?dbs+hsdb:@term+@rn+@rel+579-66-8
  14. http://pubchem.ncbi.nlm.nih.gov/vw3d/vw3d.cgi?cid=11369
