441807
  -OEChem-07051212562D

 42 46  0     1  0  0  0  0  0999 V2000
    5.5689   -2.0308    0.0000 O   0  0  0  0  0  0  0  0  0  0  0  0
    2.9594   -2.0280    0.0000 O   0  0  0  0  0  0  0  0  0  0  0  0
    3.1065   -0.5080    0.0000 O   0  0  0  0  0  0  0  0  0  0  0  0
    3.3368    0.5081    0.0000 O   0  0  0  0  0  0  0  0  0  0  0  0
    2.4358   -0.5245    0.0000 O   0  0  0  0  0  0  0  0  0  0  0  0
    7.6504    1.4690    0.0000 O   0  0  0  0  0  0  0  0  0  0  0  0
    5.0689   -0.4919    0.0000 C   0  0  1  0  0  0  0  0  0  0  0  0
    5.9349    0.0081    0.0000 C   0  0  2  0  0  0  0  0  0  0  0  0
    4.2599   -1.0797    0.0000 C   0  0  2  0  0  0  0  0  0  0  0  0
    4.5689   -2.0308    0.0000 C   0  0  1  0  0  0  0  0  0  0  0  0
    3.7632   -2.6130    0.0000 C   0  0  2  0  0  0  0  0  0  0  0  0
    4.0924   -0.6755    0.0000 C   0  0  2  0  0  0  0  0  0  0  0  0
    5.9349    1.0081    0.0000 C   0  0  2  0  0  0  0  0  0  0  0  0
    5.8779   -1.0797    0.0000 C   0  0  0  0  0  0  0  0  0  0  0  0
    4.2029    0.0081    0.0000 C   0  0  0  0  0  0  0  0  0  0  0  0
    3.2658   -1.0823    0.0000 C   0  0  0  0  0  0  0  0  0  0  0  0
    5.0689    1.5081    0.0000 C   0  0  0  0  0  0  0  0  0  0  0  0
    4.8779   -2.9818    0.0000 C   0  0  0  0  0  0  0  0  0  0  0  0
    4.2029    1.0081    0.0000 C   0  0  0  0  0  0  0  0  0  0  0  0
    6.6719    1.6752    0.0000 C   0  0  0  0  0  0  0  0  0  0  0  0
    6.8009    0.5081    0.0000 C   0  0  0  0  0  0  0  0  0  0  0  0
    5.2781    2.4799    0.0000 C   0  0  0  0  0  0  0  0  0  0  0  0
    6.2668    2.5830    0.0000 C   0  0  0  0  0  0  0  0  0  0  0  0
    4.6102    3.2242    0.0000 C   0  0  0  0  0  0  0  0  0  0  0  0
    6.6710   -0.4169    0.0000 H   0  0  0  0  0  0  0  0  0  0  0  0
    5.0913   -1.2564    0.0000 H   0  0  0  0  0  0  0  0  0  0  0  0
    3.6208   -3.4510    0.0000 H   0  0  0  0  0  0  0  0  0  0  0  0
    3.6909   -0.2030    0.0000 H   0  0  0  0  0  0  0  0  0  0  0  0
    6.1879   -0.5428    0.0000 H   0  0  0  0  0  0  0  0  0  0  0  0
    6.4443   -1.3319    0.0000 H   0  0  0  0  0  0  0  0  0  0  0  0
    5.4676   -2.7902    0.0000 H   0  0  0  0  0  0  0  0  0  0  0  0
    5.0695   -3.5715    0.0000 H   0  0  0  0  0  0  0  0  0  0  0  0
    4.2882   -3.1734    0.0000 H   0  0  0  0  0  0  0  0  0  0  0  0
    3.6659    1.3181    0.0000 H   0  0  0  0  0  0  0  0  0  0  0  0
    7.1109    1.0450    0.0000 H   0  0  0  0  0  0  0  0  0  0  0  0
    7.3379    0.1981    0.0000 H   0  0  0  0  0  0  0  0  0  0  0  0
    6.4909   -0.0288    0.0000 H   0  0  0  0  0  0  0  0  0  0  0  0
    2.8909    0.0733    0.0000 H   0  0  0  0  0  0  0  0  0  0  0  0
    6.5768    3.1199    0.0000 H   0  0  0  0  0  0  0  0  0  0  0  0
    4.1488    2.8101    0.0000 H   0  0  0  0  0  0  0  0  0  0  0  0
    4.1962    3.6857    0.0000 H   0  0  0  0  0  0  0  0  0  0  0  0
    5.0717    3.6383    0.0000 H   0  0  0  0  0  0  0  0  0  0  0  0
  1 10  1  0  0  0  0
  1 14  1  0  0  0  0
  2 11  1  0  0  0  0
  2 16  1  0  0  0  0
 12  3  1  6  0  0  0
  3 38  1  0  0  0  0
  4 15  2  0  0  0  0
  5 16  2  0  0  0  0
  6 20  2  0  0  0  0
  7  8  1  0  0  0  0
  7  9  1  0  0  0  0
  7 14  1  0  0  0  0
  7 15  1  1  0  0  0
  8 12  1  0  0  0  0
  8 13  1  0  0  0  0
  8 25  1  1  0  0  0
  9 10  1  0  0  0  0
  9 16  1  0  0  0  0
  9 26  1  1  0  0  0
 10 11  1  0  0  0  0
 10 18  1  1  0  0  0
 11 12  1  0  0  0  0
 11 27  1  6  0  0  0
 12 28  1  0  0  0  0
 13 17  1  0  0  0  0
 13 20  1  0  0  0  0
 13 21  1  1  0  0  0
 14 29  1  0  0  0  0
 14 30  1  0  0  0  0
 15 19  1  0  0  0  0
 17 19  2  0  0  0  0
 17 22  1  0  0  0  0
 18 31  1  0  0  0  0
 18 32  1  0  0  0  0
 18 33  1  0  0  0  0
 19 34  1  0  0  0  0
 20 23  1  0  0  0  0
 21 35  1  0  0  0  0
 21 36  1  0  0  0  0
 21 37  1  0  0  0  0
 22 23  2  0  0  0  0
 22 24  1  0  0  0  0
 23 39  1  0  0  0  0
 24 40  1  0  0  0  0
 24 41  1  0  0  0  0
 24 42  1  0  0  0  0
M  END
> <PUBCHEM_COMPOUND_CID>
441807

> <PUBCHEM_COMPOUND_CANONICALIZED>
1

> <PUBCHEM_CACTVS_COMPLEXITY>
808

> <PUBCHEM_CACTVS_HBOND_ACCEPTOR>
6

> <PUBCHEM_CACTVS_HBOND_DONOR>
1

> <PUBCHEM_CACTVS_ROTATABLE_BOND>
0

> <PUBCHEM_CACTVS_SUBSKEYS>
AAADceB4OAAAAAAAAAAAAAAAAAAAASJEAAAwQAAABIkAAECAAAAAGgAACAAAD1SggAICCAAABgCIAqDSCAAAAAAgAAAACAEAAEgJEBYAAQACQAAFoAALgQPL7vzvgAAAAAAAAADAAAYQADCAAAAAAAAAAA==

> <PUBCHEM_IUPAC_INCHI>
InChI=1S/C18H18O6/c1-7-4-9(19)16(2)8(7)5-10(20)18-6-23-17(3)13(18)15(22)24-14(17)11(21)12(16)18/h4-5,11-14,21H,6H2,1-3H3/t11-,12-,13+,14+,16-,17+,18-/m1/s1

> <PUBCHEM_IUPAC_INCHIKEY>
BHRGGWSNTHQGED-QNHMRRABSA-N

> <PUBCHEM_XLOGP3_AA>
-1.1

> <PUBCHEM_EXACT_MASS>
330.110338

> <PUBCHEM_MOLECULAR_FORMULA>
C18H18O6

> <PUBCHEM_MOLECULAR_WEIGHT>
330.33192

> <PUBCHEM_OPENEYE_CAN_SMILES>
CC1=CC(=O)C2(C1=CC(=O)C34C2C(C5C(C3C(=O)O5)(OC4)C)O)C

> <PUBCHEM_OPENEYE_ISO_SMILES>
CC1=CC(=O)[C@]2(C1=CC(=O)[C@]34[C@@H]2[C@H]([C@H]5[C@]([C@@H]3C(=O)O5)(OC4)C)O)C

> <PUBCHEM_CACTVS_TPSA>
89.9

> <PUBCHEM_MONOISOTOPIC_WEIGHT>
330.110338

> <PUBCHEM_TOTAL_CHARGE>
0

> <PUBCHEM_HEAVY_ATOM_COUNT>
24

> <PUBCHEM_ATOM_DEF_STEREO_COUNT>
7

> <PUBCHEM_ATOM_UDEF_STEREO_COUNT>
0

> <PUBCHEM_BOND_DEF_STEREO_COUNT>
0

> <PUBCHEM_BOND_UDEF_STEREO_COUNT>
0

> <PUBCHEM_ISOTOPIC_ATOM_COUNT>
0

> <PUBCHEM_COMPONENT_COUNT>
1

> <PUBCHEM_CACTVS_TAUTO_COUNT>
3

> <PUBCHEM_COORDINATE_TYPE>
1
5
255

> <PUBCHEM_BONDANNOTATIONS>
10  18  5
11  27  6
13  21  5
12  3  6
7  15  5
8  25  5
9  26  5

$$$$

