5462453
  -OEChem-07051213002D

 79 85  0     1  0  0  0  0  0999 V2000
    4.2864   -1.8985    0.0000 O   0  0  0  0  0  0  0  0  0  0  0  0
    6.9181    0.3371    0.0000 O   0  0  0  0  0  0  0  0  0  0  0  0
    6.8896   -2.7144    0.0000 O   0  0  0  0  0  0  0  0  0  0  0  0
    2.5405    1.2589    0.0000 O   0  0  0  0  0  0  0  0  0  0  0  0
    3.4446    2.7558    0.0000 O   0  0  0  0  0  0  0  0  0  0  0  0
    8.2679   -3.7907    0.0000 O   0  0  0  0  0  0  0  0  0  0  0  0
    6.0427    1.2558    0.0000 N   0  0  0  0  0  0  0  0  0  0  0  0
   10.1606   -1.4631    0.0000 N   0  0  0  0  0  0  0  0  0  0  0  0
    6.1447   -0.8064    0.0000 C   0  0  3  0  0  0  0  0  0  0  0  0
    6.1614   -1.8912    0.0000 C   0  0  0  0  0  0  0  0  0  0  0  0
    5.2260   -2.4410    0.0000 C   0  0  0  0  0  0  0  0  0  0  0  0
    5.1928   -0.2858    0.0000 C   0  0  0  0  0  0  0  0  0  0  0  0
    7.1326   -0.9610    0.0000 C   0  0  0  0  0  0  0  0  0  0  0  0
    4.2947   -0.8135    0.0000 C   0  0  0  0  0  0  0  0  0  0  0  0
    5.1767    0.7558    0.0000 C   0  0  0  0  0  0  0  0  0  0  0  0
    4.7293   -3.3089    0.0000 C   0  0  0  0  0  0  0  0  0  0  0  0
    5.7293   -3.3051    0.0000 C   0  0  0  0  0  0  0  0  0  0  0  0
    7.7898   -0.1528    0.0000 C   0  0  0  0  0  0  0  0  0  0  0  0
    7.5114   -1.9313    0.0000 C   0  0  0  0  0  0  0  0  0  0  0  0
    4.3107    1.2558    0.0000 C   0  0  0  0  0  0  0  0  0  0  0  0
    8.8170   -0.3258    0.0000 C   0  0  0  0  0  0  0  0  0  0  0  0
    8.5424   -2.0805    0.0000 C   0  0  0  0  0  0  0  0  0  0  0  0
    3.3926   -0.2927    0.0000 C   0  0  0  0  0  0  0  0  0  0  0  0
    9.1732   -1.3046    0.0000 C   0  0  0  0  0  0  0  0  0  0  0  0
    3.4007    0.7489    0.0000 C   0  0  0  0  0  0  0  0  0  0  0  0
    4.3107    2.2558    0.0000 C   0  0  0  0  0  0  0  0  0  0  0  0
    9.4568    0.4427    0.0000 C   0  0  0  0  0  0  0  0  0  0  0  0
    6.0427    2.2558    0.0000 C   0  0  0  0  0  0  0  0  0  0  0  0
    8.8988   -3.0148    0.0000 C   0  0  0  0  0  0  0  0  0  0  0  0
    5.1767    2.7558    0.0000 C   0  0  0  0  0  0  0  0  0  0  0  0
   10.5171   -2.3974    0.0000 C   0  0  0  0  0  0  0  0  0  0  0  0
    9.8862   -3.1732    0.0000 C   0  0  0  0  0  0  0  0  0  0  0  0
   10.7915   -0.6872    0.0000 C   0  0  0  0  0  0  0  0  0  0  0  0
   10.4423    0.2729    0.0000 C   0  0  0  0  0  0  0  0  0  0  0  0
    6.9527    2.7626    0.0000 C   0  0  0  0  0  0  0  0  0  0  0  0
    5.1606    3.7973    0.0000 C   0  0  0  0  0  0  0  0  0  0  0  0
   11.5480   -2.5465    0.0000 C   0  0  0  0  0  0  0  0  0  0  0  0
   10.2424   -4.1520    0.0000 C   0  0  0  0  0  0  0  0  0  0  0  0
    6.9608    3.8042    0.0000 C   0  0  0  0  0  0  0  0  0  0  0  0
    6.0587    4.3250    0.0000 C   0  0  0  0  0  0  0  0  0  0  0  0
   11.9268   -3.5168    0.0000 C   0  0  0  0  0  0  0  0  0  0  0  0
   11.2696   -4.3250    0.0000 C   0  0  0  0  0  0  0  0  0  0  0  0
   11.0821    1.0414    0.0000 C   0  0  0  0  0  0  0  0  0  0  0  0
   12.0676    0.8715    0.0000 C   0  0  0  0  0  0  0  0  0  0  0  0
   10.7365    1.9797    0.0000 C   0  0  0  0  0  0  0  0  0  0  0  0
    6.5514   -1.2743    0.0000 H   0  0  0  0  0  0  0  0  0  0  0  0
    6.3794   -2.4716    0.0000 H   0  0  0  0  0  0  0  0  0  0  0  0
    6.7706   -1.7757    0.0000 H   0  0  0  0  0  0  0  0  0  0  0  0
    4.1912   -3.0010    0.0000 H   0  0  0  0  0  0  0  0  0  0  0  0
    4.4214   -3.8470    0.0000 H   0  0  0  0  0  0  0  0  0  0  0  0
    5.2675   -3.6168    0.0000 H   0  0  0  0  0  0  0  0  0  0  0  0
    5.1936   -3.6171    0.0000 H   0  0  0  0  0  0  0  0  0  0  0  0
    6.0414   -3.8408    0.0000 H   0  0  0  0  0  0  0  0  0  0  0  0
    6.2651   -2.9930    0.0000 H   0  0  0  0  0  0  0  0  0  0  0  0
    2.8545   -0.6006    0.0000 H   0  0  0  0  0  0  0  0  0  0  0  0
    6.5797    0.9458    0.0000 H   0  0  0  0  0  0  0  0  0  0  0  0
    9.6666    1.0261    0.0000 H   0  0  0  0  0  0  0  0  0  0  0  0
    8.9187    0.7506    0.0000 H   0  0  0  0  0  0  0  0  0  0  0  0
    6.3848    0.0209    0.0000 H   0  0  0  0  0  0  0  0  0  0  0  0
    7.1173   -3.2911    0.0000 H   0  0  0  0  0  0  0  0  0  0  0  0
   11.2726   -1.0784    0.0000 H   0  0  0  0  0  0  0  0  0  0  0  0
   11.1827   -0.2062    0.0000 H   0  0  0  0  0  0  0  0  0  0  0  0
   10.3105   -0.2960    0.0000 H   0  0  0  0  0  0  0  0  0  0  0  0
   10.6566   -0.3089    0.0000 H   0  0  0  0  0  0  0  0  0  0  0  0
    7.4860    2.4464    0.0000 H   0  0  0  0  0  0  0  0  0  0  0  0
    4.6202    4.1010    0.0000 H   0  0  0  0  0  0  0  0  0  0  0  0
    2.0000    0.9551    0.0000 H   0  0  0  0  0  0  0  0  0  0  0  0
   11.9335   -2.0610    0.0000 H   0  0  0  0  0  0  0  0  0  0  0  0
    9.8458   -4.6285    0.0000 H   0  0  0  0  0  0  0  0  0  0  0  0
    7.4989    4.1121    0.0000 H   0  0  0  0  0  0  0  0  0  0  0  0
    6.0563    4.9450    0.0000 H   0  0  0  0  0  0  0  0  0  0  0  0
   12.5393   -3.6127    0.0000 H   0  0  0  0  0  0  0  0  0  0  0  0
   11.4884   -4.9051    0.0000 H   0  0  0  0  0  0  0  0  0  0  0  0
   11.9623    0.2605    0.0000 H   0  0  0  0  0  0  0  0  0  0  0  0
   12.6786    0.7662    0.0000 H   0  0  0  0  0  0  0  0  0  0  0  0
   12.1729    1.4825    0.0000 H   0  0  0  0  0  0  0  0  0  0  0  0
   11.3183    2.1940    0.0000 H   0  0  0  0  0  0  0  0  0  0  0  0
   10.5222    2.5615    0.0000 H   0  0  0  0  0  0  0  0  0  0  0  0
   10.1547    1.7654    0.0000 H   0  0  0  0  0  0  0  0  0  0  0  0
  1 11  1  0  0  0  0
  1 14  1  0  0  0  0
  2 18  1  0  0  0  0
  2 59  1  0  0  0  0
  3 19  1  0  0  0  0
  3 60  1  0  0  0  0
  4 25  1  0  0  0  0
  4 67  1  0  0  0  0
  5 26  2  0  0  0  0
  6 29  2  0  0  0  0
  7 15  1  0  0  0  0
  7 28  1  0  0  0  0
  7 56  1  0  0  0  0
  8 24  1  0  0  0  0
  8 31  1  0  0  0  0
  8 33  1  0  0  0  0
  9 10  1  0  0  0  0
  9 12  1  0  0  0  0
  9 13  1  0  0  0  0
  9 46  1  0  0  0  0
 10 11  1  0  0  0  0
 10 47  1  0  0  0  0
 10 48  1  0  0  0  0
 11 16  1  0  0  0  0
 11 17  1  0  0  0  0
 12 14  2  0  0  0  0
 12 15  1  0  0  0  0
 13 18  2  0  0  0  0
 13 19  1  0  0  0  0
 14 23  1  0  0  0  0
 15 20  2  0  0  0  0
 16 49  1  0  0  0  0
 16 50  1  0  0  0  0
 16 51  1  0  0  0  0
 17 52  1  0  0  0  0
 17 53  1  0  0  0  0
 17 54  1  0  0  0  0
 18 21  1  0  0  0  0
 19 22  2  0  0  0  0
 20 25  1  0  0  0  0
 20 26  1  0  0  0  0
 21 24  2  0  0  0  0
 21 27  1  0  0  0  0
 22 24  1  0  0  0  0
 22 29  1  0  0  0  0
 23 25  2  0  0  0  0
 23 55  1  0  0  0  0
 26 30  1  0  0  0  0
 27 34  1  0  0  0  0
 27 57  1  0  0  0  0
 27 58  1  0  0  0  0
 28 30  1  0  0  0  0
 28 35  2  0  0  0  0
 29 32  1  0  0  0  0
 30 36  2  0  0  0  0
 31 32  1  0  0  0  0
 31 37  2  0  0  0  0
 32 38  2  0  0  0  0
 33 61  1  0  0  0  0
 33 62  1  0  0  0  0
 33 63  1  0  0  0  0
 34 43  2  0  0  0  0
 34 64  1  0  0  0  0
 35 39  1  0  0  0  0
 35 65  1  0  0  0  0
 36 40  1  0  0  0  0
 36 66  1  0  0  0  0
 37 41  1  0  0  0  0
 37 68  1  0  0  0  0
 38 42  1  0  0  0  0
 38 69  1  0  0  0  0
 39 40  2  0  0  0  0
 39 70  1  0  0  0  0
 40 71  1  0  0  0  0
 41 42  2  0  0  0  0
 41 72  1  0  0  0  0
 42 73  1  0  0  0  0
 43 44  1  0  0  0  0
 43 45  1  0  0  0  0
 44 74  1  0  0  0  0
 44 75  1  0  0  0  0
 44 76  1  0  0  0  0
 45 77  1  0  0  0  0
 45 78  1  0  0  0  0
 45 79  1  0  0  0  0
M  END
> <PUBCHEM_COMPOUND_CID>
5462453

> <PUBCHEM_COMPOUND_CANONICALIZED>
1

> <PUBCHEM_CACTVS_COMPLEXITY>
1180

> <PUBCHEM_CACTVS_HBOND_ACCEPTOR>
8

> <PUBCHEM_CACTVS_HBOND_DONOR>
4

> <PUBCHEM_CACTVS_ROTATABLE_BOND>
3

> <PUBCHEM_CACTVS_SUBSKEYS>
AAADcfB/OAAAAAAAAAAAAAAAAAAAAAAAAAA8eNGCAAAAAACxVAAAHgAQCAAADUyBmAQyxoPABgCIAqRSQACCCAAlIgAIiAEObMgMJ37GtZuGeejn8B3I+ceY/P/OqAACCgAKAABQAAQUABQAAAAAAAAAAA==

> <PUBCHEM_IUPAC_OPENEYE_NAME>
1-[1,3-dihydroxy-10-methyl-4-(3-methylbut-2-enyl)-9-oxo-acridin-2-yl]-6-hydroxy-3,3-dimethyl-2,12-dihydro-1H-pyrano[2,3-c]acridin-7-one

> <PUBCHEM_IUPAC_CAS_NAME>
1-[1,3-dihydroxy-10-methyl-4-(3-methylbut-2-enyl)-9-oxo-2-acridinyl]-6-hydroxy-3,3-dimethyl-2,12-dihydro-1H-pyrano[2,3-c]acridin-7-one

> <PUBCHEM_IUPAC_NAME>
1-[1,3-dihydroxy-10-methyl-4-(3-methylbut-2-enyl)-9-oxoacridin-2-yl]-6-hydroxy-3,3-dimethyl-2,12-dihydro-1H-pyrano[2,3-c]acridin-7-one

> <PUBCHEM_IUPAC_SYSTEMATIC_NAME>
3,3-dimethyl-1-[10-methyl-4-(3-methylbut-2-enyl)-1,3-bis(oxidanyl)-9-oxidanylidene-acridin-2-yl]-6-oxidanyl-2,12-dihydro-1H-pyrano[2,3-c]acridin-7-one

> <PUBCHEM_IUPAC_TRADITIONAL_NAME>
1-[1,3-dihydroxy-9-keto-10-methyl-4-(3-methylbut-2-enyl)acridin-2-yl]-6-hydroxy-3,3-dimethyl-2,12-dihydro-1H-pyran[2,3-c]acridin-7-one

> <PUBCHEM_IUPAC_INCHI>
InChI=1S/C37H34N2O6/c1-18(2)14-15-21-32-30(34(42)20-11-7-9-13-24(20)39(32)5)36(44)28(35(21)43)22-17-37(3,4)45-26-16-25(40)29-31(27(22)26)38-23-12-8-6-10-19(23)33(29)41/h6-14,16,22,40,43-44H,15,17H2,1-5H3,(H,38,41)

> <PUBCHEM_IUPAC_INCHIKEY>
MFWOOIANDMHWSJ-UHFFFAOYSA-N

> <PUBCHEM_XLOGP3_AA>
8.6

> <PUBCHEM_EXACT_MASS>
602.241687

> <PUBCHEM_MOLECULAR_FORMULA>
C37H34N2O6

> <PUBCHEM_MOLECULAR_WEIGHT>
602.67566

> <PUBCHEM_OPENEYE_CAN_SMILES>
CC(=CCC1=C(C(=C(C2=C1N(C3=CC=CC=C3C2=O)C)O)C4CC(OC5=CC(=C6C(=C45)NC7=CC=CC=C7C6=O)O)(C)C)O)C

> <PUBCHEM_OPENEYE_ISO_SMILES>
CC(=CCC1=C(C(=C(C2=C1N(C3=CC=CC=C3C2=O)C)O)C4CC(OC5=CC(=C6C(=C45)NC7=CC=CC=C7C6=O)O)(C)C)O)C

> <PUBCHEM_CACTVS_TPSA>
119

> <PUBCHEM_MONOISOTOPIC_WEIGHT>
602.241687

> <PUBCHEM_TOTAL_CHARGE>
0

> <PUBCHEM_HEAVY_ATOM_COUNT>
45

> <PUBCHEM_ATOM_DEF_STEREO_COUNT>
0

> <PUBCHEM_ATOM_UDEF_STEREO_COUNT>
1

> <PUBCHEM_BOND_DEF_STEREO_COUNT>
0

> <PUBCHEM_BOND_UDEF_STEREO_COUNT>
0

> <PUBCHEM_ISOTOPIC_ATOM_COUNT>
0

> <PUBCHEM_COMPONENT_COUNT>
1

> <PUBCHEM_CACTVS_TAUTO_COUNT>
348

> <PUBCHEM_COORDINATE_TYPE>
1
5
255

> <PUBCHEM_BONDANNOTATIONS>
12  14  8
12  15  8
13  18  8
13  19  8
14  23  8
15  20  8
18  21  8
19  22  8
20  25  8
20  26  8
21  24  8
22  24  8
22  29  8
23  25  8
26  30  8
28  30  8
28  35  8
29  32  8
30  36  8
31  32  8
31  37  8
32  38  8
35  39  8
36  40  8
37  41  8
38  42  8
39  40  8
41  42  8
7  15  8
7  28  8
8  24  8
8  31  8
9  13  3

$$$$

