443302
  -OEChem-07051213012D

 72 72  0     1  0  0  0  0  0999 V2000
    2.5369    1.4050    0.0000 Cl  0  0  0  0  0  0  0  0  0  0  0  0
    6.0010    1.4050    0.0000 S   0  0  0  0  0  0  0  0  0  0  0  0
    8.5991    3.9050    0.0000 O   0  0  0  0  0  0  0  0  0  0  0  0
    7.7331    4.4050    0.0000 O   0  0  0  0  0  0  0  0  0  0  0  0
   12.9292    2.4050    0.0000 O   0  0  0  0  0  0  0  0  0  0  0  0
    2.5369   -6.5950    0.0000 O   0  0  0  0  0  0  0  0  0  0  0  0
   12.0632    3.9050    0.0000 O   0  0  0  0  0  0  0  0  0  0  0  0
    4.2690   -6.5950    0.0000 O   0  0  0  0  0  0  0  0  0  0  0  0
    5.1350    6.9050    0.0000 O   0  0  0  0  0  0  0  0  0  0  0  0
    4.2690    5.4050    0.0000 O   0  0  0  0  0  0  0  0  0  0  0  0
    4.2690   -0.5950    0.0000 N   0  0  3  0  0  0  0  0  0  0  0  0
    7.7331    2.4050    0.0000 N   0  0  0  0  0  0  0  0  0  0  0  0
    6.0010    4.4050    0.0000 N   0  0  0  0  0  0  0  0  0  0  0  0
   11.1972    1.4050    0.0000 N   0  0  0  0  0  0  0  0  0  0  0  0
    2.5369   -4.5950    0.0000 N   0  0  0  0  0  0  0  0  0  0  0  0
    5.1350   -0.0950    0.0000 C   0  0  0  0  0  0  0  0  0  0  0  0
    6.8671    2.9050    0.0000 C   0  0  1  0  0  0  0  0  0  0  0  0
    4.2690   -1.5950    0.0000 C   0  0  0  0  0  0  0  0  0  0  0  0
    5.1350    0.9050    0.0000 C   0  0  0  0  0  0  0  0  0  0  0  0
    6.0010    2.4050    0.0000 C   0  0  0  0  0  0  0  0  0  0  0  0
    3.4030   -0.0950    0.0000 C   0  0  0  0  0  0  0  0  0  0  0  0
    4.2690   -3.5950    0.0000 C   0  0  0  0  0  0  0  0  0  0  0  0
    4.2690   -4.5950    0.0000 C   0  0  0  0  0  0  0  0  0  0  0  0
    9.4651    2.4050    0.0000 C   0  0  0  0  0  0  0  0  0  0  0  0
   10.3312    2.9050    0.0000 C   0  0  0  0  0  0  0  0  0  0  0  0
    3.4030   -2.0950    0.0000 C   0  0  0  0  0  0  0  0  0  0  0  0
    5.1350   -2.0950    0.0000 C   0  0  0  0  0  0  0  0  0  0  0  0
    3.4030   -3.0950    0.0000 C   0  0  0  0  0  0  0  0  0  0  0  0
    5.1350   -3.0950    0.0000 C   0  0  0  0  0  0  0  0  0  0  0  0
    8.5991    2.9050    0.0000 C   0  0  0  0  0  0  0  0  0  0  0  0
    6.8671    3.9050    0.0000 C   0  0  0  0  0  0  0  0  0  0  0  0
   11.1972    2.4050    0.0000 C   0  0  1  0  0  0  0  0  0  0  0  0
    3.4030   -5.0950    0.0000 C   0  0  3  0  0  0  0  0  0  0  0  0
    3.4030    0.9050    0.0000 C   0  0  0  0  0  0  0  0  0  0  0  0
   12.0632    2.9050    0.0000 C   0  0  0  0  0  0  0  0  0  0  0  0
    3.4030   -6.0950    0.0000 C   0  0  0  0  0  0  0  0  0  0  0  0
    6.0010    5.4050    0.0000 C   0  0  0  0  0  0  0  0  0  0  0  0
    5.1350    5.9050    0.0000 C   0  0  0  0  0  0  0  0  0  0  0  0
    5.3471   -0.6776    0.0000 H   0  0  0  0  0  0  0  0  0  0  0  0
    5.7456    0.0127    0.0000 H   0  0  0  0  0  0  0  0  0  0  0  0
    7.4040    3.2150    0.0000 H   0  0  0  0  0  0  0  0  0  0  0  0
    4.9230    1.4876    0.0000 H   0  0  0  0  0  0  0  0  0  0  0  0
    4.5244    0.7973    0.0000 H   0  0  0  0  0  0  0  0  0  0  0  0
    5.7890    2.9876    0.0000 H   0  0  0  0  0  0  0  0  0  0  0  0
    5.3905    2.2973    0.0000 H   0  0  0  0  0  0  0  0  0  0  0  0
    2.7924    0.0127    0.0000 H   0  0  0  0  0  0  0  0  0  0  0  0
    3.1909   -0.6776    0.0000 H   0  0  0  0  0  0  0  0  0  0  0  0
    9.0666    1.9300    0.0000 H   0  0  0  0  0  0  0  0  0  0  0  0
    9.8637    1.9300    0.0000 H   0  0  0  0  0  0  0  0  0  0  0  0
    4.4810   -5.1776    0.0000 H   0  0  0  0  0  0  0  0  0  0  0  0
    4.8796   -4.4873    0.0000 H   0  0  0  0  0  0  0  0  0  0  0  0
    7.7331    1.7850    0.0000 H   0  0  0  0  0  0  0  0  0  0  0  0
   10.7297    3.3800    0.0000 H   0  0  0  0  0  0  0  0  0  0  0  0
    9.9326    3.3800    0.0000 H   0  0  0  0  0  0  0  0  0  0  0  0
    2.8660   -1.7850    0.0000 H   0  0  0  0  0  0  0  0  0  0  0  0
    5.6720   -1.7850    0.0000 H   0  0  0  0  0  0  0  0  0  0  0  0
    2.8660   -3.4050    0.0000 H   0  0  0  0  0  0  0  0  0  0  0  0
    5.6720   -3.4050    0.0000 H   0  0  0  0  0  0  0  0  0  0  0  0
   10.6603    2.0950    0.0000 H   0  0  0  0  0  0  0  0  0  0  0  0
    3.4030   -4.2450    0.0000 H   0  0  0  0  0  0  0  0  0  0  0  0
    4.0135    0.7973    0.0000 H   0  0  0  0  0  0  0  0  0  0  0  0
    3.6150    1.4876    0.0000 H   0  0  0  0  0  0  0  0  0  0  0  0
    5.4641    4.0950    0.0000 H   0  0  0  0  0  0  0  0  0  0  0  0
   11.7341    1.0950    0.0000 H   0  0  0  0  0  0  0  0  0  0  0  0
   10.6603    1.0950    0.0000 H   0  0  0  0  0  0  0  0  0  0  0  0
    2.0000   -4.9050    0.0000 H   0  0  0  0  0  0  0  0  0  0  0  0
    2.5369   -3.9750    0.0000 H   0  0  0  0  0  0  0  0  0  0  0  0
    6.6116    5.2973    0.0000 H   0  0  0  0  0  0  0  0  0  0  0  0
    6.2131    5.9876    0.0000 H   0  0  0  0  0  0  0  0  0  0  0  0
   13.4662    2.7150    0.0000 H   0  0  0  0  0  0  0  0  0  0  0  0
    2.5369   -7.2150    0.0000 H   0  0  0  0  0  0  0  0  0  0  0  0
    4.5981    7.2150    0.0000 H   0  0  0  0  0  0  0  0  0  0  0  0
  1 34  1  0  0  0  0
  2 19  1  0  0  0  0
  2 20  1  0  0  0  0
  3 30  2  0  0  0  0
  4 31  2  0  0  0  0
  5 35  1  0  0  0  0
  5 70  1  0  0  0  0
  6 36  1  0  0  0  0
  6 71  1  0  0  0  0
  7 35  2  0  0  0  0
  8 36  2  0  0  0  0
  9 38  1  0  0  0  0
  9 72  1  0  0  0  0
 10 38  2  0  0  0  0
 11 16  1  0  0  0  0
 11 18  1  0  0  0  0
 11 21  1  0  0  0  0
 17 12  1  1  0  0  0
 12 30  1  0  0  0  0
 12 52  1  0  0  0  0
 13 31  1  0  0  0  0
 13 37  1  0  0  0  0
 13 63  1  0  0  0  0
 32 14  1  1  0  0  0
 14 64  1  0  0  0  0
 14 65  1  0  0  0  0
 15 33  1  0  0  0  0
 15 66  1  0  0  0  0
 15 67  1  0  0  0  0
 16 19  1  0  0  0  0
 16 39  1  0  0  0  0
 16 40  1  0  0  0  0
 17 20  1  0  0  0  0
 17 31  1  0  0  0  0
 17 41  1  0  0  0  0
 18 26  2  0  0  0  0
 18 27  1  0  0  0  0
 19 42  1  0  0  0  0
 19 43  1  0  0  0  0
 20 44  1  0  0  0  0
 20 45  1  0  0  0  0
 21 34  1  0  0  0  0
 21 46  1  0  0  0  0
 21 47  1  0  0  0  0
 22 23  1  0  0  0  0
 22 28  2  0  0  0  0
 22 29  1  0  0  0  0
 23 33  1  0  0  0  0
 23 50  1  0  0  0  0
 23 51  1  0  0  0  0
 24 25  1  0  0  0  0
 24 30  1  0  0  0  0
 24 48  1  0  0  0  0
 24 49  1  0  0  0  0
 25 32  1  0  0  0  0
 25 53  1  0  0  0  0
 25 54  1  0  0  0  0
 26 28  1  0  0  0  0
 26 55  1  0  0  0  0
 27 29  2  0  0  0  0
 27 56  1  0  0  0  0
 28 57  1  0  0  0  0
 29 58  1  0  0  0  0
 32 35  1  0  0  0  0
 32 59  1  0  0  0  0
 33 36  1  0  0  0  0
 33 60  1  0  0  0  0
 34 61  1  0  0  0  0
 34 62  1  0  0  0  0
 37 38  1  0  0  0  0
 37 68  1  0  0  0  0
 37 69  1  0  0  0  0
M  END
> <PUBCHEM_COMPOUND_CID>
443302

> <PUBCHEM_COMPOUND_CANONICALIZED>
1

> <PUBCHEM_CACTVS_COMPLEXITY>
800

> <PUBCHEM_CACTVS_HBOND_ACCEPTOR>
12

> <PUBCHEM_CACTVS_HBOND_DONOR>
7

> <PUBCHEM_CACTVS_ROTATABLE_BOND>
19

> <PUBCHEM_CACTVS_SUBSKEYS>
AAADcfB7vABEAAAAAAAAAAAAAAAAAAAAAAAwAAAAAAAAAAABAAAAHgYQCAAADCvF2ESwyIPAAgiIAiXSWACCAAAhAhAIiIGIZIgKYDLgkbHUYAhklgD4yAec36KOCAAAAAAAAAAQAAAAAAAAAAAAAAAAAA==

> <PUBCHEM_IUPAC_OPENEYE_NAME>
(2S)-2-amino-5-[[(1R)-1-[2-[4-(2-amino-2-carboxy-ethyl)-N-(2-chloroethyl)anilino]ethylsulfanylmethyl]-2-(carboxymethylamino)-2-oxo-ethyl]amino]-5-oxo-pentanoic acid

> <PUBCHEM_IUPAC_CAS_NAME>
(2S)-2-amino-5-[[(2R)-3-[2-[4-(2-amino-2-carboxyethyl)-N-(2-chloroethyl)anilino]ethylthio]-1-(carboxymethylamino)-1-oxopropan-2-yl]amino]-5-oxopentanoic acid

> <PUBCHEM_IUPAC_NAME>
(2S)-2-amino-5-[[(2R)-3-[2-[4-(2-amino-2-carboxyethyl)-N-(2-chloroethyl)anilino]ethylsulfanyl]-1-(carboxymethylamino)-1-oxopropan-2-yl]amino]-5-oxopentanoic acid

> <PUBCHEM_IUPAC_SYSTEMATIC_NAME>
(2S)-2-azanyl-5-[[(2R)-3-[2-[[4-(2-azanyl-3-oxidanyl-3-oxidanylidene-propyl)phenyl]-(2-chloroethyl)amino]ethylsulfanyl]-1-(2-hydroxy-2-oxoethylamino)-1-oxidanylidene-propan-2-yl]amino]-5-oxidanylidene-pentanoic acid

> <PUBCHEM_IUPAC_TRADITIONAL_NAME>
(2S)-2-amino-5-[[(1R)-1-[[2-[4-(2-amino-2-carboxy-ethyl)-N-(2-chloroethyl)anilino]ethylthio]methyl]-2-(carboxymethylamino)-2-keto-ethyl]amino]-5-keto-valeric acid

> <PUBCHEM_IUPAC_INCHI>
InChI=1S/C23H34ClN5O8S/c24-7-8-29(15-3-1-14(2-4-15)11-17(26)23(36)37)9-10-38-13-18(21(33)27-12-20(31)32)28-19(30)6-5-16(25)22(34)35/h1-4,16-18H,5-13,25-26H2,(H,27,33)(H,28,30)(H,31,32)(H,34,35)(H,36,37)/t16-,17?,18-/m0/s1

> <PUBCHEM_IUPAC_INCHIKEY>
FVSFUWLXGAPZDK-RGBJRUIASA-N

> <PUBCHEM_XLOGP3_AA>
-5.1

> <PUBCHEM_EXACT_MASS>
575.181662

> <PUBCHEM_MOLECULAR_FORMULA>
C23H34ClN5O8S

> <PUBCHEM_MOLECULAR_WEIGHT>
576.06276

> <PUBCHEM_OPENEYE_CAN_SMILES>
C1=CC(=CC=C1CC(C(=O)O)N)N(CCSCC(C(=O)NCC(=O)O)NC(=O)CCC(C(=O)O)N)CCCl

> <PUBCHEM_OPENEYE_ISO_SMILES>
C1=CC(=CC=C1CC(C(=O)O)N)N(CCSC[C@@H](C(=O)NCC(=O)O)NC(=O)CC[C@@H](C(=O)O)N)CCCl

> <PUBCHEM_CACTVS_TPSA>
251

> <PUBCHEM_MONOISOTOPIC_WEIGHT>
575.181662

> <PUBCHEM_TOTAL_CHARGE>
0

> <PUBCHEM_HEAVY_ATOM_COUNT>
38

> <PUBCHEM_ATOM_DEF_STEREO_COUNT>
2

> <PUBCHEM_ATOM_UDEF_STEREO_COUNT>
1

> <PUBCHEM_BOND_DEF_STEREO_COUNT>
0

> <PUBCHEM_BOND_UDEF_STEREO_COUNT>
0

> <PUBCHEM_ISOTOPIC_ATOM_COUNT>
0

> <PUBCHEM_COMPONENT_COUNT>
1

> <PUBCHEM_CACTVS_TAUTO_COUNT>
4

> <PUBCHEM_COORDINATE_TYPE>
1
5
255

> <PUBCHEM_BONDANNOTATIONS>
17  12  5
32  14  5
18  26  8
18  27  8
22  28  8
22  29  8
26  28  8
27  29  8
33  60  3

$$$$

