   Color/Form
        Crytals from isopropanol and absolute ethanol
   from [1]HSDB

   Taste
        Bitter, anesthetizing taste
   from [2]HSDB

   Melting Point
        233-234 deg C
   from [3]HSDB

   Solubilities

     * Solubility (mg/ml): alcohol 193; 0.1 N HCl 333.
     * Solubility (mg/ml): water 312

   from [4]HSDB

   Other Chemical/Physical Properties
        MW: 239.75. Pale yellow oil, bp 52 deg C @ 0.005 mm Hg. Sol in
   methanol, ethanol, acetone, ether, benzene. Very hygroscopic and
   susceptible to decompn. /Buprion/
   from [5]HSDB

   Computed Properties
   Molecular Weight                  239.74112 [g/mol]
   Molecular Formula                 C[13]H[18]ClNO
   XLogP3-AA                         3.2
   H-Bond Donor                      1
   H-Bond Acceptor                   2
   Rotatable Bond Count              4
   Tautomer Count                    2
   Exact Mass                        239.107692
   MonoIsotopic Mass                 239.107692
   Topological Polar Surface Area    29.1
   Heavy Atom Count                  16
   Formal Charge                     0
   Complexity                        247
   Isotope Atom Count                0
   Defined Atom Stereocenter Count   0
   Undefined Atom Stereocenter Count 1
   Defined Bond Stereocenter Count   0
   Undefined Bond Stereocenter Count 0
   Covalently-Bonded Unit Count      1
   Feature 3D Acceptor Count         1
   Feature 3D Donor Count            1
   Feature 3D Cation Count           1
   Feature 3D Hydrophobe Count       1
   Feature 3D Ring Count             1
   Effective Rotor Count             4
   Conformer Sampling RMSD           0.6
   CID Conformer Count               [6]31

References

   1. http://toxnet.nlm.nih.gov/cgi-bin/sis/search/r?dbs+hsdb:@term+@rn+@rel+31677-93-7
   2. http://toxnet.nlm.nih.gov/cgi-bin/sis/search/r?dbs+hsdb:@term+@rn+@rel+31677-93-7
   3. http://toxnet.nlm.nih.gov/cgi-bin/sis/search/r?dbs+hsdb:@term+@rn+@rel+31677-93-7
   4. http://toxnet.nlm.nih.gov/cgi-bin/sis/search/r?dbs+hsdb:@term+@rn+@rel+31677-93-7
   5. http://toxnet.nlm.nih.gov/cgi-bin/sis/search/r?dbs+hsdb:@term+@rn+@rel+31677-93-7
   6. http://pubchem.ncbi.nlm.nih.gov/vw3d/vw3d.cgi?cid=444
