440993
  -OEChem-07051212512D

 93 96  0     1  0  0  0  0  0999 V2000
    9.4651    1.9050    0.0000 O   0  0  0  0  0  0  0  0  0  0  0  0
    8.5991    0.4050    0.0000 O   0  0  0  0  0  0  0  0  0  0  0  0
    6.0010    1.9050    0.0000 O   0  0  0  0  0  0  0  0  0  0  0  0
   12.0632    0.4050    0.0000 O   0  0  0  0  0  0  0  0  0  0  0  0
   11.1972   -1.0950    0.0000 O   0  0  0  0  0  0  0  0  0  0  0  0
    5.1350    0.4050    0.0000 O   0  0  0  0  0  0  0  0  0  0  0  0
    6.0010   -0.0950    0.0000 O   0  0  0  0  0  0  0  0  0  0  0  0
    9.4651   -0.0950    0.0000 O   0  0  0  0  0  0  0  0  0  0  0  0
   11.1972    2.9050    0.0000 O   0  0  0  0  0  0  0  0  0  0  0  0
   13.7953   -1.5950    0.0000 O   0  0  0  0  0  0  0  0  0  0  0  0
    4.2690    2.9050    0.0000 O   0  0  0  0  0  0  0  0  0  0  0  0
   11.1972   -3.0950    0.0000 O   0  0  0  0  0  0  0  0  0  0  0  0
    2.5369    1.9050    0.0000 O   0  0  0  0  0  0  0  0  0  0  0  0
    8.5991   -1.5950    0.0000 O   0  0  0  0  0  0  0  0  0  0  0  0
    2.5369   -0.0950    0.0000 O   0  0  0  0  0  0  0  0  0  0  0  0
   12.9292   -4.0950    0.0000 O   0  0  0  0  0  0  0  0  0  0  0  0
   13.7953    1.4050    0.0000 O   0  0  0  0  0  0  0  0  0  0  0  0
   14.6613   -3.0950    0.0000 O   0  0  0  0  0  0  0  0  0  0  0  0
   13.7953    0.4050    0.0000 O   0  0  0  0  0  0  0  0  0  0  0  0
    5.1350   -1.5950    0.0000 O   0  0  0  0  0  0  0  0  0  0  0  0
    9.4651    2.9050    0.0000 O   0  0  0  0  0  0  0  0  0  0  0  0
    7.7331    2.9050    0.0000 N   0  0  0  0  0  0  0  0  0  0  0  0
    6.8671    1.4050    0.0000 C   0  0  2  0  0  0  0  0  0  0  0  0
    7.7331    1.9050    0.0000 C   0  0  2  0  0  0  0  0  0  0  0  0
   10.3312    1.4050    0.0000 C   0  0  2  0  0  0  0  0  0  0  0  0
    8.5991    1.4050    0.0000 C   0  0  2  0  0  0  0  0  0  0  0  0
    6.8671    0.4050    0.0000 C   0  0  1  0  0  0  0  0  0  0  0  0
   10.3312    0.4050    0.0000 C   0  0  2  0  0  0  0  0  0  0  0  0
   11.1972    1.9050    0.0000 C   0  0  2  0  0  0  0  0  0  0  0  0
    7.7331   -0.0950    0.0000 C   0  0  1  0  0  0  0  0  0  0  0  0
   11.1972   -0.0950    0.0000 C   0  0  1  0  0  0  0  0  0  0  0  0
   12.0632    1.4050    0.0000 C   0  0  1  0  0  0  0  0  0  0  0  0
    5.1350    1.4050    0.0000 C   0  0  2  0  0  0  0  0  0  0  0  0
   12.0632   -1.5950    0.0000 C   0  0  1  0  0  0  0  0  0  0  0  0
    4.2690    1.9050    0.0000 C   0  0  1  0  0  0  0  0  0  0  0  0
   12.0632   -2.5950    0.0000 C   0  0  1  0  0  0  0  0  0  0  0  0
    3.4030    1.4050    0.0000 C   0  0  2  0  0  0  0  0  0  0  0  0
   12.9292   -1.0950    0.0000 C   0  0  1  0  0  0  0  0  0  0  0  0
    7.7331   -1.0950    0.0000 C   0  0  0  0  0  0  0  0  0  0  0  0
    3.4030    0.4050    0.0000 C   0  0  2  0  0  0  0  0  0  0  0  0
    4.2690   -0.0950    0.0000 C   0  0  1  0  0  0  0  0  0  0  0  0
   12.9292   -3.0950    0.0000 C   0  0  2  0  0  0  0  0  0  0  0  0
   12.9292    1.9050    0.0000 C   0  0  0  0  0  0  0  0  0  0  0  0
   13.7953   -2.5950    0.0000 C   0  0  3  0  0  0  0  0  0  0  0  0
   12.9292   -0.0950    0.0000 C   0  0  0  0  0  0  0  0  0  0  0  0
    8.5991    3.4050    0.0000 C   0  0  0  0  0  0  0  0  0  0  0  0
    4.2690   -1.0950    0.0000 C   0  0  0  0  0  0  0  0  0  0  0  0
    8.5991    4.4050    0.0000 C   0  0  0  0  0  0  0  0  0  0  0  0
    6.3301    1.0950    0.0000 H   0  0  0  0  0  0  0  0  0  0  0  0
    8.2700    2.2150    0.0000 H   0  0  0  0  0  0  0  0  0  0  0  0
    9.7942    1.0950    0.0000 H   0  0  0  0  0  0  0  0  0  0  0  0
    8.5991    2.0250    0.0000 H   0  0  0  0  0  0  0  0  0  0  0  0
    6.3301    0.7150    0.0000 H   0  0  0  0  0  0  0  0  0  0  0  0
    9.7942    0.7150    0.0000 H   0  0  0  0  0  0  0  0  0  0  0  0
   10.6603    2.2150    0.0000 H   0  0  0  0  0  0  0  0  0  0  0  0
    8.2700   -0.4050    0.0000 H   0  0  0  0  0  0  0  0  0  0  0  0
   10.6603   -0.4050    0.0000 H   0  0  0  0  0  0  0  0  0  0  0  0
   12.6002    1.0950    0.0000 H   0  0  0  0  0  0  0  0  0  0  0  0
    5.1350    2.0250    0.0000 H   0  0  0  0  0  0  0  0  0  0  0  0
   12.0632   -0.9750    0.0000 H   0  0  0  0  0  0  0  0  0  0  0  0
    4.8059    2.2150    0.0000 H   0  0  0  0  0  0  0  0  0  0  0  0
    7.1962    3.2150    0.0000 H   0  0  0  0  0  0  0  0  0  0  0  0
   12.0632   -3.2150    0.0000 H   0  0  0  0  0  0  0  0  0  0  0  0
    3.4030    2.0250    0.0000 H   0  0  0  0  0  0  0  0  0  0  0  0
   13.4662   -0.7850    0.0000 H   0  0  0  0  0  0  0  0  0  0  0  0
    7.1225   -0.9873    0.0000 H   0  0  0  0  0  0  0  0  0  0  0  0
    7.5210   -1.6776    0.0000 H   0  0  0  0  0  0  0  0  0  0  0  0
    3.4030   -0.2150    0.0000 H   0  0  0  0  0  0  0  0  0  0  0  0
    4.8059   -0.4050    0.0000 H   0  0  0  0  0  0  0  0  0  0  0  0
   12.3923   -3.4050    0.0000 H   0  0  0  0  0  0  0  0  0  0  0  0
   13.3278    2.3800    0.0000 H   0  0  0  0  0  0  0  0  0  0  0  0
   12.5307    2.3800    0.0000 H   0  0  0  0  0  0  0  0  0  0  0  0
   13.7953   -3.4450    0.0000 H   0  0  0  0  0  0  0  0  0  0  0  0
    6.0010   -0.7150    0.0000 H   0  0  0  0  0  0  0  0  0  0  0  0
    9.4651   -0.7150    0.0000 H   0  0  0  0  0  0  0  0  0  0  0  0
   11.7341    3.2150    0.0000 H   0  0  0  0  0  0  0  0  0  0  0  0
   12.7172    0.4876    0.0000 H   0  0  0  0  0  0  0  0  0  0  0  0
   12.3187   -0.2027    0.0000 H   0  0  0  0  0  0  0  0  0  0  0  0
    3.6584   -0.9873    0.0000 H   0  0  0  0  0  0  0  0  0  0  0  0
    4.0569   -1.6776    0.0000 H   0  0  0  0  0  0  0  0  0  0  0  0
    3.7320    3.2150    0.0000 H   0  0  0  0  0  0  0  0  0  0  0  0
   11.1972   -3.7150    0.0000 H   0  0  0  0  0  0  0  0  0  0  0  0
    2.0000    1.5950    0.0000 H   0  0  0  0  0  0  0  0  0  0  0  0
    8.5991   -2.2150    0.0000 H   0  0  0  0  0  0  0  0  0  0  0  0
    2.5369   -0.7150    0.0000 H   0  0  0  0  0  0  0  0  0  0  0  0
   13.4662   -4.4050    0.0000 H   0  0  0  0  0  0  0  0  0  0  0  0
   14.3322    1.7150    0.0000 H   0  0  0  0  0  0  0  0  0  0  0  0
    9.2191    4.4050    0.0000 H   0  0  0  0  0  0  0  0  0  0  0  0
    8.5991    5.0250    0.0000 H   0  0  0  0  0  0  0  0  0  0  0  0
    7.9791    4.4050    0.0000 H   0  0  0  0  0  0  0  0  0  0  0  0
   15.1982   -2.7850    0.0000 H   0  0  0  0  0  0  0  0  0  0  0  0
   14.3322    0.0950    0.0000 H   0  0  0  0  0  0  0  0  0  0  0  0
    5.1350   -2.2150    0.0000 H   0  0  0  0  0  0  0  0  0  0  0  0
 25  1  1  1  0  0  0
 26  1  1  6  0  0  0
  2 26  1  0  0  0  0
  2 30  1  0  0  0  0
 23  3  1  6  0  0  0
 33  3  1  6  0  0  0
  4 31  1  0  0  0  0
  4 32  1  0  0  0  0
 31  5  1  1  0  0  0
 34  5  1  6  0  0  0
  6 33  1  0  0  0  0
  6 41  1  0  0  0  0
 27  7  1  1  0  0  0
  7 74  1  0  0  0  0
 28  8  1  6  0  0  0
  8 75  1  0  0  0  0
 29  9  1  1  0  0  0
  9 76  1  0  0  0  0
 10 38  1  0  0  0  0
 10 44  1  0  0  0  0
 35 11  1  1  0  0  0
 11 81  1  0  0  0  0
 36 12  1  1  0  0  0
 12 82  1  0  0  0  0
 37 13  1  6  0  0  0
 13 83  1  0  0  0  0
 14 39  1  0  0  0  0
 14 84  1  0  0  0  0
 40 15  1  6  0  0  0
 15 85  1  0  0  0  0
 42 16  1  6  0  0  0
 16 86  1  0  0  0  0
 17 43  1  0  0  0  0
 17 87  1  0  0  0  0
 18 44  1  0  0  0  0
 18 91  1  0  0  0  0
 19 45  1  0  0  0  0
 19 92  1  0  0  0  0
 20 47  1  0  0  0  0
 20 93  1  0  0  0  0
 21 46  2  0  0  0  0
 24 22  1  1  0  0  0
 22 46  1  0  0  0  0
 22 62  1  0  0  0  0
 23 24  1  0  0  0  0
 23 27  1  0  0  0  0
 23 49  1  0  0  0  0
 24 26  1  0  0  0  0
 24 50  1  0  0  0  0
 25 28  1  0  0  0  0
 25 29  1  0  0  0  0
 25 51  1  0  0  0  0
 26 52  1  0  0  0  0
 27 30  1  0  0  0  0
 27 53  1  0  0  0  0
 28 31  1  0  0  0  0
 28 54  1  0  0  0  0
 29 32  1  0  0  0  0
 29 55  1  0  0  0  0
 30 39  1  6  0  0  0
 30 56  1  0  0  0  0
 31 57  1  0  0  0  0
 32 43  1  1  0  0  0
 32 58  1  0  0  0  0
 33 35  1  0  0  0  0
 33 59  1  0  0  0  0
 34 36  1  0  0  0  0
 34 38  1  0  0  0  0
 34 60  1  0  0  0  0
 35 37  1  0  0  0  0
 35 61  1  0  0  0  0
 36 42  1  0  0  0  0
 36 63  1  0  0  0  0
 37 40  1  0  0  0  0
 37 64  1  0  0  0  0
 38 45  1  1  0  0  0
 38 65  1  0  0  0  0
 39 66  1  0  0  0  0
 39 67  1  0  0  0  0
 40 41  1  0  0  0  0
 40 68  1  0  0  0  0
 41 47  1  6  0  0  0
 41 69  1  0  0  0  0
 42 44  1  0  0  0  0
 42 70  1  0  0  0  0
 43 71  1  0  0  0  0
 43 72  1  0  0  0  0
 44 73  1  0  0  0  0
 45 77  1  0  0  0  0
 45 78  1  0  0  0  0
 46 48  1  0  0  0  0
 47 79  1  0  0  0  0
 47 80  1  0  0  0  0
 48 88  1  0  0  0  0
 48 89  1  0  0  0  0
 48 90  1  0  0  0  0
M  END
> <PUBCHEM_COMPOUND_CID>
440993

> <PUBCHEM_COMPOUND_CANONICALIZED>
1

> <PUBCHEM_CACTVS_COMPLEXITY>
1030

> <PUBCHEM_CACTVS_HBOND_ACCEPTOR>
21

> <PUBCHEM_CACTVS_HBOND_DONOR>
14

> <PUBCHEM_CACTVS_ROTATABLE_BOND>
11

> <PUBCHEM_CACTVS_SUBSKEYS>
AAADcfB6PgAAAAAAAAAAAAAAAAAAAAAAAAAkSJEgAAAAAAAAAAAAHgAQCAAACDzxgAcCCALABgAIAAEQEAAAAAAAAAAAAIAIAAATEAIAgAAnQAAHFgCXAAHwcA8AAAAAAAAAAAAAAAAAAAAAAAAAAAAAAA==

> <PUBCHEM_IUPAC_OPENEYE_NAME>
N-[(2S,3R,4R,5S,6R)-2-[(2R,3S,4S,5R,6S)-3,5-dihydroxy-2-(hydroxymethyl)-6-[(2R,3S,4R,5R)-4,5,6-trihydroxy-2-(hydroxymethyl)tetrahydropyran-3-yl]oxy-tetrahydropyran-4-yl]oxy-5-hydroxy-6-(hydroxymethyl)-4-[(2R,3R,4S,5R,6R)-3,4,5-trihydroxy-6-(hydroxymethyl)tetrahydropyran-2-yl]oxy-tetrahydropyran-3-yl]acetamide

> <PUBCHEM_IUPAC_CAS_NAME>
N-[(2S,3R,4R,5S,6R)-2-[[(2R,3S,4S,5R,6S)-3,5-dihydroxy-2-(hydroxymethyl)-6-[[(2R,3S,4R,5R)-4,5,6-trihydroxy-2-(hydroxymethyl)-3-oxanyl]oxy]-4-oxanyl]oxy]-5-hydroxy-6-(hydroxymethyl)-4-[[(2R,3R,4S,5R,6R)-3,4,5-trihydroxy-6-(hydroxymethyl)-2-oxanyl]oxy]-3-oxanyl]acetamide

> <PUBCHEM_IUPAC_NAME>
N-[(2S,3R,4R,5S,6R)-2-[(2R,3S,4S,5R,6S)-3,5-dihydroxy-2-(hydroxymethyl)-6-[(2R,3S,4R,5R)-4,5,6-trihydroxy-2-(hydroxymethyl)oxan-3-yl]oxyoxan-4-yl]oxy-5-hydroxy-6-(hydroxymethyl)-4-[(2R,3R,4S,5R,6R)-3,4,5-trihydroxy-6-(hydroxymethyl)oxan-2-yl]oxyoxan-3-yl]acetamide

> <PUBCHEM_IUPAC_SYSTEMATIC_NAME>
N-[(2S,3R,4R,5S,6R)-6-(hydroxymethyl)-2-[(2R,3S,4S,5R,6S)-2-(hydroxymethyl)-6-[(2R,3S,4R,5R)-2-(hydroxymethyl)-4,5,6-tris(oxidanyl)oxan-3-yl]oxy-3,5-bis(oxidanyl)oxan-4-yl]oxy-4-[(2R,3R,4S,5R,6R)-6-(hydroxymethyl)-3,4,5-tris(oxidanyl)oxan-2-yl]oxy-5-oxidanyl-oxan-3-yl]ethanamide

> <PUBCHEM_IUPAC_TRADITIONAL_NAME>
N-[(2S,3R,4R,5S,6R)-2-[(2R,3S,4S,5R,6S)-3,5-dihydroxy-2-methylol-6-[(2R,3S,4R,5R)-4,5,6-trihydroxy-2-methylol-tetrahydropyran-3-yl]oxy-tetrahydropyran-4-yl]oxy-5-hydroxy-6-methylol-4-[(2R,3R,4S,5R,6R)-3,4,5-trihydroxy-6-methylol-tetrahydropyran-2-yl]oxy-tetrahydropyran-3-yl]acetamide

> <PUBCHEM_IUPAC_INCHI>
InChI=1S/C26H45NO21/c1-6(32)27-11-21(47-25-18(39)15(36)12(33)7(2-28)44-25)13(34)8(3-29)43-24(11)48-22-14(35)9(4-30)45-26(19(22)40)46-20-10(5-31)42-23(41)17(38)16(20)37/h7-26,28-31,33-41H,2-5H2,1H3,(H,27,32)/t7-,8-,9-,10-,11-,12+,13-,14+,15+,16-,17-,18-,19-,20-,21-,22+,23?,24+,25+,26+/m1/s1

> <PUBCHEM_IUPAC_INCHIKEY>
AXQLFFDZXPOFPO-FSGZUBPKSA-N

> <PUBCHEM_XLOGP3_AA>
-7.9

> <PUBCHEM_EXACT_MASS>
707.248407

> <PUBCHEM_MOLECULAR_FORMULA>
C26H45NO21

> <PUBCHEM_MOLECULAR_WEIGHT>
707.6296

> <PUBCHEM_OPENEYE_CAN_SMILES>
CC(=O)NC1C(C(C(OC1OC2C(C(OC(C2O)OC3C(OC(C(C3O)O)O)CO)CO)O)CO)O)OC4C(C(C(C(O4)CO)O)O)O

> <PUBCHEM_OPENEYE_ISO_SMILES>
CC(=O)N[C@@H]1[C@H]([C@@H]([C@H](O[C@H]1O[C@H]2[C@H]([C@H](O[C@H]([C@@H]2O)O[C@@H]3[C@H](OC([C@@H]([C@H]3O)O)O)CO)CO)O)CO)O)O[C@H]4[C@@H]([C@H]([C@H]([C@H](O4)CO)O)O)O

> <PUBCHEM_CACTVS_TPSA>
357

> <PUBCHEM_MONOISOTOPIC_WEIGHT>
707.248407

> <PUBCHEM_TOTAL_CHARGE>
0

> <PUBCHEM_HEAVY_ATOM_COUNT>
48

> <PUBCHEM_ATOM_DEF_STEREO_COUNT>
19

> <PUBCHEM_ATOM_UDEF_STEREO_COUNT>
1

> <PUBCHEM_BOND_DEF_STEREO_COUNT>
0

> <PUBCHEM_BOND_UDEF_STEREO_COUNT>
0

> <PUBCHEM_ISOTOPIC_ATOM_COUNT>
0

> <PUBCHEM_COMPONENT_COUNT>
1

> <PUBCHEM_CACTVS_TAUTO_COUNT>
2

> <PUBCHEM_COORDINATE_TYPE>
1
5
255

> <PUBCHEM_BONDANNOTATIONS>
25  1  5
26  1  6
35  11  5
36  12  5
37  13  6
40  15  6
42  16  6
24  22  5
23  3  6
33  3  6
30  39  6
32  43  5
38  45  5
41  47  6
44  73  3
31  5  5
34  5  6
27  7  5
28  8  6
29  9  5

$$$$

