583020
  -OEChem-06241222442D

 32 33  0     1  0  0  0  0  0999 V2000
    5.5491    1.2670    0.0000 F   0  0  0  0  0  0  0  0  0  0  0  0
    5.4949    3.3361    0.0000 F   0  0  0  0  0  0  0  0  0  0  0  0
    5.8582    2.2181    0.0000 F   0  0  0  0  0  0  0  0  0  0  0  0
    3.5103    3.9239    0.0000 F   0  0  0  0  0  0  0  0  0  0  0  0
    4.6859    3.9239    0.0000 F   0  0  0  0  0  0  0  0  0  0  0  0
    2.3380    2.2181    0.0000 F   0  0  0  0  0  0  0  0  0  0  0  0
    2.7013    3.3361    0.0000 F   0  0  0  0  0  0  0  0  0  0  0  0
    5.5981    0.5761    0.0000 F   0  0  0  0  0  0  0  0  0  0  0  0
    3.5981    0.5761    0.0000 F   0  0  0  0  0  0  0  0  0  0  0  0
    3.5981    1.5761    0.0000 O   0  0  0  0  0  0  0  0  0  0  0  0
    5.4641   -0.9239    0.0000 O   0  0  0  0  0  0  0  0  0  0  0  0
    3.7320   -0.9239    0.0000 N   0  0  0  0  0  0  0  0  0  0  0  0
    4.5981   -2.4239    0.0000 N   0  0  0  0  0  0  0  0  0  0  0  0
    4.5981    1.5761    0.0000 C   0  0  3  0  0  0  0  0  0  0  0  0
    4.9071    2.5271    0.0000 C   0  0  0  0  0  0  0  0  0  0  0  0
    4.0981    3.1149    0.0000 C   0  0  0  0  0  0  0  0  0  0  0  0
    3.2891    2.5271    0.0000 C   0  0  0  0  0  0  0  0  0  0  0  0
    4.5981    0.5761    0.0000 C   0  0  0  0  0  0  0  0  0  0  0  0
    4.5981   -0.4239    0.0000 C   0  0  0  0  0  0  0  0  0  0  0  0
    3.7320   -1.9239    0.0000 C   0  0  0  0  0  0  0  0  0  0  0  0
    2.8660   -2.4239    0.0000 C   0  0  0  0  0  0  0  0  0  0  0  0
    2.8660   -3.4239    0.0000 C   0  0  0  0  0  0  0  0  0  0  0  0
    2.0000   -1.9239    0.0000 C   0  0  0  0  0  0  0  0  0  0  0  0
    3.7320   -3.9239    0.0000 C   0  0  0  0  0  0  0  0  0  0  0  0
    4.5981   -3.4239    0.0000 C   0  0  0  0  0  0  0  0  0  0  0  0
    3.1951   -0.6139    0.0000 H   0  0  0  0  0  0  0  0  0  0  0  0
    2.3291   -3.7339    0.0000 H   0  0  0  0  0  0  0  0  0  0  0  0
    2.3100   -1.3870    0.0000 H   0  0  0  0  0  0  0  0  0  0  0  0
    1.4631   -1.6139    0.0000 H   0  0  0  0  0  0  0  0  0  0  0  0
    1.6900   -2.4609    0.0000 H   0  0  0  0  0  0  0  0  0  0  0  0
    3.7320   -4.5439    0.0000 H   0  0  0  0  0  0  0  0  0  0  0  0
    5.1350   -3.7339    0.0000 H   0  0  0  0  0  0  0  0  0  0  0  0
  1 14  1  0  0  0  0
  2 15  1  0  0  0  0
  3 15  1  0  0  0  0
  4 16  1  0  0  0  0
  5 16  1  0  0  0  0
  6 17  1  0  0  0  0
  7 17  1  0  0  0  0
  8 18  1  0  0  0  0
  9 18  1  0  0  0  0
 10 14  1  0  0  0  0
 10 17  1  0  0  0  0
 11 19  2  0  0  0  0
 12 19  1  0  0  0  0
 12 20  1  0  0  0  0
 12 26  1  0  0  0  0
 13 20  1  0  0  0  0
 13 25  2  0  0  0  0
 14 15  1  0  0  0  0
 14 18  1  0  0  0  0
 15 16  1  0  0  0  0
 16 17  1  0  0  0  0
 18 19  1  0  0  0  0
 20 21  2  0  0  0  0
 21 22  1  0  0  0  0
 21 23  1  0  0  0  0
 22 24  2  0  0  0  0
 22 27  1  0  0  0  0
 23 28  1  0  0  0  0
 23 29  1  0  0  0  0
 23 30  1  0  0  0  0
 24 25  1  0  0  0  0
 24 31  1  0  0  0  0
 25 32  1  0  0  0  0
M  END
> <PUBCHEM_COMPOUND_CID>
583020

> <PUBCHEM_COMPOUND_CANONICALIZED>
1

> <PUBCHEM_CACTVS_COMPLEXITY>
557

> <PUBCHEM_CACTVS_HBOND_ACCEPTOR>
12

> <PUBCHEM_CACTVS_HBOND_DONOR>
1

> <PUBCHEM_CACTVS_ROTATABLE_BOND>
3

> <PUBCHEM_CACTVS_SUBSKEYS>
AAADcYBzMcAAAAAAAAAAAAAAAAAAASAAAAAsAAAAAAAAAAABgAAAHwAQAAAADATBmhQ/sJLIFACoAjN3dACCgCkxAiAJ2CE4ZJiIIPbAmZGGIAhupQLIyCeYSAAMAAAAAAAAAAAAAAAAAAAAAAAAAAAAAA==

> <PUBCHEM_IUPAC_OPENEYE_NAME>
2,2-difluoro-2-(2,3,3,4,4,5,5-heptafluorotetrahydrofuran-2-yl)-N-(3-methyl-2-pyridyl)acetamide

> <PUBCHEM_IUPAC_CAS_NAME>
2,2-difluoro-2-(2,3,3,4,4,5,5-heptafluoro-2-oxolanyl)-N-(3-methyl-2-pyridinyl)acetamide

> <PUBCHEM_IUPAC_NAME>
2,2-difluoro-2-(2,3,3,4,4,5,5-heptafluorooxolan-2-yl)-N-(3-methylpyridin-2-yl)acetamide

> <PUBCHEM_IUPAC_SYSTEMATIC_NAME>
2,2-bis(fluoranyl)-2-[2,3,3,4,4,5,5-heptakis(fluoranyl)oxolan-2-yl]-N-(3-methylpyridin-2-yl)ethanamide

> <PUBCHEM_IUPAC_TRADITIONAL_NAME>
2,2-difluoro-2-(2,3,3,4,4,5,5-heptafluorotetrahydrofuran-2-yl)-N-(3-methyl-2-pyridyl)acetamide

> <PUBCHEM_IUPAC_INCHI>
InChI=1S/C12H7F9N2O2/c1-5-3-2-4-22-6(5)23-7(24)8(13,14)11(19)9(15,16)10(17,18)12(20,21)25-11/h2-4H,1H3,(H,22,23,24)

> <PUBCHEM_IUPAC_INCHIKEY>
CFCBMZCOXAHEJA-UHFFFAOYSA-N

> <PUBCHEM_XLOGP3_AA>
3.5

> <PUBCHEM_EXACT_MASS>
382.036381

> <PUBCHEM_MOLECULAR_FORMULA>
C12H7F9N2O2

> <PUBCHEM_MOLECULAR_WEIGHT>
382.181809

> <PUBCHEM_OPENEYE_CAN_SMILES>
CC1=C(N=CC=C1)NC(=O)C(C2(C(C(C(O2)(F)F)(F)F)(F)F)F)(F)F

> <PUBCHEM_OPENEYE_ISO_SMILES>
CC1=C(N=CC=C1)NC(=O)C(C2(C(C(C(O2)(F)F)(F)F)(F)F)F)(F)F

> <PUBCHEM_CACTVS_TPSA>
51.2

> <PUBCHEM_MONOISOTOPIC_WEIGHT>
382.036381

> <PUBCHEM_TOTAL_CHARGE>
0

> <PUBCHEM_HEAVY_ATOM_COUNT>
25

> <PUBCHEM_ATOM_DEF_STEREO_COUNT>
0

> <PUBCHEM_ATOM_UDEF_STEREO_COUNT>
1

> <PUBCHEM_BOND_DEF_STEREO_COUNT>
0

> <PUBCHEM_BOND_UDEF_STEREO_COUNT>
0

> <PUBCHEM_ISOTOPIC_ATOM_COUNT>
0

> <PUBCHEM_COMPONENT_COUNT>
1

> <PUBCHEM_CACTVS_TAUTO_COUNT>
3

> <PUBCHEM_COORDINATE_TYPE>
1
5
255

> <PUBCHEM_BONDANNOTATIONS>
14  1  3
13  20  8
13  25  8
20  21  8
21  22  8
22  24  8
24  25  8

$$$$

