181994
  -OEChem-07051212592D

 33 35  0     1  0  0  0  0  0999 V2000
    6.3301    1.7379    0.0000 O   0  0  0  0  0  0  0  0  0  0  0  0
    6.3301   -1.2621    0.0000 O   0  0  0  0  0  0  0  0  0  0  0  0
    3.7320    1.2379    0.0000 O   0  0  0  0  0  0  0  0  0  0  0  0
    8.0785   -1.2967    0.0000 O   0  0  0  0  0  0  0  0  0  0  0  0
    9.8602    1.7621    0.0000 O   0  0  0  0  0  0  0  0  0  0  0  0
    2.0000   -1.7621    0.0000 O   0  0  0  0  0  0  0  0  0  0  0  0
    5.4641    0.2379    0.0000 C   0  0  3  0  0  0  0  0  0  0  0  0
    5.4641    1.2379    0.0000 C   0  0  0  0  0  0  0  0  0  0  0  0
    6.3301   -0.2621    0.0000 C   0  0  0  0  0  0  0  0  0  0  0  0
    4.5981   -0.2621    0.0000 C   0  0  0  0  0  0  0  0  0  0  0  0
    7.1962    0.2379    0.0000 C   0  0  0  0  0  0  0  0  0  0  0  0
    7.1962    1.2379    0.0000 C   0  0  0  0  0  0  0  0  0  0  0  0
    3.7320    0.2379    0.0000 C   0  0  0  0  0  0  0  0  0  0  0  0
    8.0901   -0.2967    0.0000 C   0  0  0  0  0  0  0  0  0  0  0  0
    4.5981   -1.2621    0.0000 C   0  0  0  0  0  0  0  0  0  0  0  0
    8.0901    1.7726    0.0000 C   0  0  0  0  0  0  0  0  0  0  0  0
    8.9962    0.2171    0.0000 C   0  0  0  0  0  0  0  0  0  0  0  0
    8.9962    1.2587    0.0000 C   0  0  0  0  0  0  0  0  0  0  0  0
    2.8660   -0.2621    0.0000 C   0  0  0  0  0  0  0  0  0  0  0  0
    3.7320   -1.7621    0.0000 C   0  0  0  0  0  0  0  0  0  0  0  0
    2.8660   -1.2621    0.0000 C   0  0  0  0  0  0  0  0  0  0  0  0
    5.4641   -0.3821    0.0000 H   0  0  0  0  0  0  0  0  0  0  0  0
    5.2520    1.8205    0.0000 H   0  0  0  0  0  0  0  0  0  0  0  0
    4.8535    1.1303    0.0000 H   0  0  0  0  0  0  0  0  0  0  0  0
    5.1350   -1.5721    0.0000 H   0  0  0  0  0  0  0  0  0  0  0  0
    8.0829    2.3926    0.0000 H   0  0  0  0  0  0  0  0  0  0  0  0
    9.5319   -0.0950    0.0000 H   0  0  0  0  0  0  0  0  0  0  0  0
    2.3291    0.0479    0.0000 H   0  0  0  0  0  0  0  0  0  0  0  0
    3.7320   -2.3821    0.0000 H   0  0  0  0  0  0  0  0  0  0  0  0
    3.1951    1.5479    0.0000 H   0  0  0  0  0  0  0  0  0  0  0  0
    8.6118   -1.6129    0.0000 H   0  0  0  0  0  0  0  0  0  0  0  0
    9.8579    2.3821    0.0000 H   0  0  0  0  0  0  0  0  0  0  0  0
    2.0000   -2.3821    0.0000 H   0  0  0  0  0  0  0  0  0  0  0  0
  1  8  1  0  0  0  0
  1 12  1  0  0  0  0
  2  9  2  0  0  0  0
  3 13  1  0  0  0  0
  3 30  1  0  0  0  0
  4 14  1  0  0  0  0
  4 31  1  0  0  0  0
  5 18  1  0  0  0  0
  5 32  1  0  0  0  0
  6 21  1  0  0  0  0
  6 33  1  0  0  0  0
  7  8  1  0  0  0  0
  7  9  1  0  0  0  0
  7 10  1  0  0  0  0
  7 22  1  0  0  0  0
  8 23  1  0  0  0  0
  8 24  1  0  0  0  0
  9 11  1  0  0  0  0
 10 13  2  0  0  0  0
 10 15  1  0  0  0  0
 11 12  1  0  0  0  0
 11 14  2  0  0  0  0
 12 16  2  0  0  0  0
 13 19  1  0  0  0  0
 14 17  1  0  0  0  0
 15 20  2  0  0  0  0
 15 25  1  0  0  0  0
 16 18  1  0  0  0  0
 16 26  1  0  0  0  0
 17 18  2  0  0  0  0
 17 27  1  0  0  0  0
 19 21  2  0  0  0  0
 19 28  1  0  0  0  0
 20 21  1  0  0  0  0
 20 29  1  0  0  0  0
M  END
> <PUBCHEM_COMPOUND_CID>
181994

> <PUBCHEM_COMPOUND_CANONICALIZED>
1

> <PUBCHEM_CACTVS_COMPLEXITY>
400

> <PUBCHEM_CACTVS_HBOND_ACCEPTOR>
6

> <PUBCHEM_CACTVS_HBOND_DONOR>
4

> <PUBCHEM_CACTVS_ROTATABLE_BOND>
1

> <PUBCHEM_CACTVS_SUBSKEYS>
AAADccBwOAAAAAAAAAAAAAAAAAAAAAAAAAA0YIAAAAAAAACRQAAAGgAACAAADQSgmAIwBoAABgCIAqBSAAACCAAkIAAIiAEGCMgMJzaGNRqCeWCl4BUIuQfK7PzOoAAACAAIAABAAAAQABAAAAAAAAAAAA==

> <PUBCHEM_IUPAC_OPENEYE_NAME>
3-(2,4-dihydroxyphenyl)-5,7-dihydroxy-chroman-4-one

> <PUBCHEM_IUPAC_CAS_NAME>
3-(2,4-dihydroxyphenyl)-5,7-dihydroxy-3,4-dihydro-2H-1-benzopyran-4-one

> <PUBCHEM_IUPAC_NAME>
3-(2,4-dihydroxyphenyl)-5,7-dihydroxy-2,3-dihydrochromen-4-one

> <PUBCHEM_IUPAC_SYSTEMATIC_NAME>
3-[2,4-bis(oxidanyl)phenyl]-5,7-bis(oxidanyl)-2,3-dihydrochromen-4-one

> <PUBCHEM_IUPAC_TRADITIONAL_NAME>
3-(2,4-dihydroxyphenyl)-5,7-dihydroxy-chroman-4-one

> <PUBCHEM_IUPAC_INCHI>
InChI=1S/C15H12O6/c16-7-1-2-9(11(18)3-7)10-6-21-13-5-8(17)4-12(19)14(13)15(10)20/h1-5,10,16-19H,6H2

> <PUBCHEM_IUPAC_INCHIKEY>
WNHXBLZBOWXNQO-UHFFFAOYSA-N

> <PUBCHEM_XLOGP3_AA>
2.2

> <PUBCHEM_EXACT_MASS>
288.063388

> <PUBCHEM_MOLECULAR_FORMULA>
C15H12O6

> <PUBCHEM_MOLECULAR_WEIGHT>
288.25218

> <PUBCHEM_OPENEYE_CAN_SMILES>
C1C(C(=O)C2=C(C=C(C=C2O1)O)O)C3=C(C=C(C=C3)O)O

> <PUBCHEM_OPENEYE_ISO_SMILES>
C1C(C(=O)C2=C(C=C(C=C2O1)O)O)C3=C(C=C(C=C3)O)O

> <PUBCHEM_CACTVS_TPSA>
107

> <PUBCHEM_MONOISOTOPIC_WEIGHT>
288.063388

> <PUBCHEM_TOTAL_CHARGE>
0

> <PUBCHEM_HEAVY_ATOM_COUNT>
21

> <PUBCHEM_ATOM_DEF_STEREO_COUNT>
0

> <PUBCHEM_ATOM_UDEF_STEREO_COUNT>
1

> <PUBCHEM_BOND_DEF_STEREO_COUNT>
0

> <PUBCHEM_BOND_UDEF_STEREO_COUNT>
0

> <PUBCHEM_ISOTOPIC_ATOM_COUNT>
0

> <PUBCHEM_COMPONENT_COUNT>
1

> <PUBCHEM_CACTVS_TAUTO_COUNT>
249

> <PUBCHEM_COORDINATE_TYPE>
1
5
255

> <PUBCHEM_BONDANNOTATIONS>
10  13  8
10  15  8
11  12  8
11  14  8
12  16  8
13  19  8
14  17  8
15  20  8
16  18  8
17  18  8
19  21  8
20  21  8
7  10  3

$$$$

