   Color/Form
        Crystals from acetone
   from [1]HSDB

   Boiling Point
        227 deg C @ 0.01 mm Hg
   from [2]HSDB

   Melting Point
        62-64 deg C
   from [3]HSDB

   Octanol/Water Partition Coefficient
        5.41 @ 25 deg C
   from [4]HSDB

   Other Chemical/Physical Properties

     * Crystals from methanol; decomp @ 188-190 deg C /Dimaleate/
     * Crystals from ethanol; MP: 214-216 deg C /Dihydrochloride/
     * WHITE TO FAINTLY YELLOW CRYSTALLINE POWDER; SLIGHT ODOR; FREELY SOL
       IN WATER; SOL IN METHANOL; PH (FRESHLY PREPARED 1 IN 100 SOLN)
       BETWEEN 2.8-3.8 /MALATE/
     * FAINTLY YELLOWISH, FINE, CRYSTALLINE, VOLUMINOUS POWDER; ODORLESS
       OR HAS VERY SLIGHT ODOR; BITTER TASTE; MELTS @ 183 DEG C WITH
       DECOMP; POORLY SOL IN WATER, METHANOL, ABSOLUTE ETHANOL; VERY
       POORLY SOL IN BENZENE, ETHER, CHLOROFORM /MALEATE/
     * MAX ABSORPTION (ACID): 262 NM, 310 NM; MAX ABSORPTION (BASE): 264
       NM, 315 NM; MAX ABSORPTION (ETHANOL): 264 NM, 316 NM /MALEATE/
     * Crystals from ethanol; MP: 139 deg C /Dimalate/

   from [5]HSDB

   Computed Properties
   Molecular Weight                  399.61576 [g/mol]
   Molecular Formula                 C[22]H[29]N[3]S[2]
   XLogP3                            5.4
   H-Bond Donor                      0
   H-Bond Acceptor                   5
   Rotatable Bond Count              6
   Exact Mass                        399.18029
   MonoIsotopic Mass                 399.18029
   Topological Polar Surface Area    60.3
   Heavy Atom Count                  27
   Formal Charge                     0
   Complexity                        455
   Isotope Atom Count                0
   Defined Atom Stereocenter Count   0
   Undefined Atom Stereocenter Count 0
   Defined Bond Stereocenter Count   0
   Undefined Bond Stereocenter Count 0
   Covalently-Bonded Unit Count      1
   Feature 3D Cation Count           3
   Feature 3D Hydrophobe Count       1
   Feature 3D Ring Count             4
   Effective Rotor Count             7.6
   Conformer Sampling RMSD           0.8
   CID Conformer Count               [6]149

References

   1. http://toxnet.nlm.nih.gov/cgi-bin/sis/search/r?dbs+hsdb:@term+@rn+@rel+1420-55-9
   2. http://toxnet.nlm.nih.gov/cgi-bin/sis/search/r?dbs+hsdb:@term+@rn+@rel+1420-55-9
   3. http://toxnet.nlm.nih.gov/cgi-bin/sis/search/r?dbs+hsdb:@term+@rn+@rel+1420-55-9
   4. http://toxnet.nlm.nih.gov/cgi-bin/sis/search/r?dbs+hsdb:@term+@rn+@rel+1420-55-9
   5. http://toxnet.nlm.nih.gov/cgi-bin/sis/search/r?dbs+hsdb:@term+@rn+@rel+1420-55-9
   6. http://pubchem.ncbi.nlm.nih.gov/vw3d/vw3d.cgi?cid=5440
