9144
  -OEChem-07051213132D

 28 32  0     0  0  0  0  0  0999 V2000
    4.3894   -0.3530    0.0000 C   0  0  0  0  0  0  0  0  0  0  0  0
    5.1984    0.2348    0.0000 C   0  0  0  0  0  0  0  0  0  0  0  0
    3.5804    0.2348    0.0000 C   0  0  0  0  0  0  0  0  0  0  0  0
    3.8894    1.1858    0.0000 C   0  0  0  0  0  0  0  0  0  0  0  0
    4.8894    1.1858    0.0000 C   0  0  0  0  0  0  0  0  0  0  0  0
    4.4823   -1.3905    0.0000 C   0  0  0  0  0  0  0  0  0  0  0  0
    2.7241   -0.2962    0.0000 C   0  0  0  0  0  0  0  0  0  0  0  0
    6.1564   -0.1742    0.0000 C   0  0  0  0  0  0  0  0  0  0  0  0
    3.0699    1.7320    0.0000 C   0  0  0  0  0  0  0  0  0  0  0  0
    5.6590    1.8361    0.0000 C   0  0  0  0  0  0  0  0  0  0  0  0
    3.5787   -1.8361    0.0000 C   0  0  0  0  0  0  0  0  0  0  0  0
    5.4306   -1.8215    0.0000 C   0  0  0  0  0  0  0  0  0  0  0  0
    2.7233   -1.3038    0.0000 C   0  0  0  0  0  0  0  0  0  0  0  0
    6.2733   -1.2092    0.0000 C   0  0  0  0  0  0  0  0  0  0  0  0
    2.0000    0.3713    0.0000 C   0  0  0  0  0  0  0  0  0  0  0  0
    6.8595    0.5475    0.0000 C   0  0  0  0  0  0  0  0  0  0  0  0
    6.6175    1.5256    0.0000 C   0  0  0  0  0  0  0  0  0  0  0  0
    2.1655    1.3422    0.0000 C   0  0  0  0  0  0  0  0  0  0  0  0
    3.1259    2.3495    0.0000 H   0  0  0  0  0  0  0  0  0  0  0  0
    5.5394    2.4445    0.0000 H   0  0  0  0  0  0  0  0  0  0  0  0
    3.5481   -2.4554    0.0000 H   0  0  0  0  0  0  0  0  0  0  0  0
    5.4930   -2.4383    0.0000 H   0  0  0  0  0  0  0  0  0  0  0  0
    2.1812   -1.6046    0.0000 H   0  0  0  0  0  0  0  0  0  0  0  0
    6.8407   -1.4592    0.0000 H   0  0  0  0  0  0  0  0  0  0  0  0
    1.4132    0.1713    0.0000 H   0  0  0  0  0  0  0  0  0  0  0  0
    7.4579    0.3852    0.0000 H   0  0  0  0  0  0  0  0  0  0  0  0
    1.6781    1.7254    0.0000 H   0  0  0  0  0  0  0  0  0  0  0  0
    7.0712    1.9482    0.0000 H   0  0  0  0  0  0  0  0  0  0  0  0
  1  2  1  0  0  0  0
  1  3  1  0  0  0  0
  1  6  2  0  0  0  0
  2  5  1  0  0  0  0
  2  8  2  0  0  0  0
  3  4  1  0  0  0  0
  3  7  2  0  0  0  0
  4  5  1  0  0  0  0
  4  9  2  0  0  0  0
  5 10  2  0  0  0  0
  6 11  1  0  0  0  0
  6 12  1  0  0  0  0
  7 13  1  0  0  0  0
  7 15  1  0  0  0  0
  8 14  1  0  0  0  0
  8 16  1  0  0  0  0
  9 18  1  0  0  0  0
  9 19  1  0  0  0  0
 10 17  1  0  0  0  0
 10 20  1  0  0  0  0
 11 13  2  0  0  0  0
 11 21  1  0  0  0  0
 12 14  2  0  0  0  0
 12 22  1  0  0  0  0
 13 23  1  0  0  0  0
 14 24  1  0  0  0  0
 15 18  2  0  0  0  0
 15 25  1  0  0  0  0
 16 17  2  0  0  0  0
 16 26  1  0  0  0  0
 17 28  1  0  0  0  0
 18 27  1  0  0  0  0
M  END
> <PUBCHEM_COMPOUND_CID>
9144

> <PUBCHEM_COMPOUND_CANONICALIZED>
1

> <PUBCHEM_CACTVS_COMPLEXITY>
314

> <PUBCHEM_CACTVS_HBOND_ACCEPTOR>
0

> <PUBCHEM_CACTVS_HBOND_DONOR>
0

> <PUBCHEM_CACTVS_ROTATABLE_BOND>
0

> <PUBCHEM_CACTVS_SUBSKEYS>
AAADccB4AAAAAAAAAAAAAAAAAAAAAYAAAAAwYMGAAAAAAGDBVAAAGAAAAAAADACAGAAwAMAAAACAAiBCAAACAAAgAAAIiAAAAIgIICKAERCAIAAggAAIiAcAgMAOwAACAAAQAACAAAQAACAAAQAACAAAAA==

> <PUBCHEM_IUPAC_INCHI>
InChI=1S/C18H10/c1-3-11-7-9-13-10-8-12-4-2-6-15-14(5-1)16(11)18(13)17(12)15/h1-10H

> <PUBCHEM_IUPAC_INCHIKEY>
YEIHPPOCKIHUQJ-UHFFFAOYSA-N

> <PUBCHEM_XLOGP3_AA>
5.4

> <PUBCHEM_EXACT_MASS>
226.07825

> <PUBCHEM_MOLECULAR_FORMULA>
C18H10

> <PUBCHEM_MOLECULAR_WEIGHT>
226.272

> <PUBCHEM_OPENEYE_CAN_SMILES>
C1=CC2=C3C(=C1)C4=CC=CC5=C4C3=C(C=C2)C=C5

> <PUBCHEM_OPENEYE_ISO_SMILES>
C1=CC2=C3C(=C1)C4=CC=CC5=C4C3=C(C=C2)C=C5

> <PUBCHEM_CACTVS_TPSA>
0

> <PUBCHEM_MONOISOTOPIC_WEIGHT>
226.07825

> <PUBCHEM_TOTAL_CHARGE>
0

> <PUBCHEM_HEAVY_ATOM_COUNT>
18

> <PUBCHEM_ATOM_DEF_STEREO_COUNT>
0

> <PUBCHEM_ATOM_UDEF_STEREO_COUNT>
0

> <PUBCHEM_BOND_DEF_STEREO_COUNT>
0

> <PUBCHEM_BOND_UDEF_STEREO_COUNT>
0

> <PUBCHEM_ISOTOPIC_ATOM_COUNT>
0

> <PUBCHEM_COMPONENT_COUNT>
1

> <PUBCHEM_CACTVS_TAUTO_COUNT>
1

> <PUBCHEM_COORDINATE_TYPE>
1
5
255

> <PUBCHEM_BONDANNOTATIONS>
1  2  8
1  3  8
1  6  8
10  17  8
11  13  8
12  14  8
15  18  8
16  17  8
2  5  8
2  8  8
3  4  8
3  7  8
4  9  8
5  10  8
6  11  8
6  12  8
7  13  8
7  15  8
8  14  8
8  16  8
9  18  8

$$$$

