   Color/Form
        GLOSSY FLAKES FROM ETHER
   from [1]HSDB

   Melting Point
        142.5 DEG C
   from [2]HSDB

   Solubilities
        SOL IN METHANE, ETHANOL, ACETONE, ACETIC ACID, CHLOROFORM, ETHER,
   BENZENE
   from [3]HSDB

   Spectral Properties
        SPECIFIC OPTICAL ROTATION: -110.5 DEG @ 23 DEG C/D (ALC); -101 DEG
   C @ 23 DEG C/D (0.1 N HCL)
   from [4]HSDB

   Other Chemical/Physical Properties
        MP: 220 DEG C; MINUTE CRYSTALS FROM ALC + METHYL ETHYL KETONE +
   ETHER (1:1:4) /HYDROCHLORIDE HYDRATE/
   from [5]HSDB

   Computed Properties
   Molecular Weight                  405.57076 [g/mol]
   Molecular Formula                 C[24]H[39]NO[4]
   XLogP3-AA                         3.1
   H-Bond Donor                      1
   H-Bond Acceptor                   5
   Rotatable Bond Count              5
   Tautomer Count                    3
   Exact Mass                        405.287909
   MonoIsotopic Mass                 405.287909
   Topological Polar Surface Area    66.8
   Heavy Atom Count                  29
   Formal Charge                     0
   Complexity                        682
   Isotope Atom Count                0
   Defined Atom Stereocenter Count   6
   Undefined Atom Stereocenter Count 0
   Defined Bond Stereocenter Count   1
   Undefined Bond Stereocenter Count 0
   Covalently-Bonded Unit Count      1
   Feature 3D Acceptor Count         3
   Feature 3D Donor Count            1
   Feature 3D Cation Count           1
   Feature 3D Hydrophobe Count       1
   Feature 3D Ring Count             3
   Effective Rotor Count             6.6
   Conformer Sampling RMSD           0.8
   CID Conformer Count               [6]32

References

   1. http://toxnet.nlm.nih.gov/cgi-bin/sis/search/r?dbs+hsdb:@term+@rn+@rel+468-76-8
   2. http://toxnet.nlm.nih.gov/cgi-bin/sis/search/r?dbs+hsdb:@term+@rn+@rel+468-76-8
   3. http://toxnet.nlm.nih.gov/cgi-bin/sis/search/r?dbs+hsdb:@term+@rn+@rel+468-76-8
   4. http://toxnet.nlm.nih.gov/cgi-bin/sis/search/r?dbs+hsdb:@term+@rn+@rel+468-76-8
   5. http://toxnet.nlm.nih.gov/cgi-bin/sis/search/r?dbs+hsdb:@term+@rn+@rel+468-76-8
   6. http://pubchem.ncbi.nlm.nih.gov/vw3d/vw3d.cgi?cid=5281267
