2703
  -OEChem-07051213032D

 44 48  0     0  0  0  0  0  0999 V2000
    2.6079    0.6952    0.0000 O   0  0  0  0  0  0  0  0  0  0  0  0
    2.6079    2.3716    0.0000 O   0  0  0  0  0  0  0  0  0  0  0  0
    8.9752   -2.0647    0.0000 O   0  0  0  0  0  0  0  0  0  0  0  0
   10.7866   -1.0189    0.0000 O   0  0  0  0  0  0  0  0  0  0  0  0
    6.2435   -0.5081    0.0000 N   0  3  0  0  0  0  0  0  0  0  0  0
    6.2596    0.5334    0.0000 C   0  0  0  0  0  0  0  0  0  0  0  0
    7.1256    1.0334    0.0000 C   0  0  0  0  0  0  0  0  0  0  0  0
    5.3935    1.0334    0.0000 C   0  0  0  0  0  0  0  0  0  0  0  0
    8.0356    0.5266    0.0000 C   0  0  0  0  0  0  0  0  0  0  0  0
    8.0436   -0.5150    0.0000 C   0  0  0  0  0  0  0  0  0  0  0  0
    5.3935    2.0334    0.0000 C   0  0  0  0  0  0  0  0  0  0  0  0
    7.1415   -1.0358    0.0000 C   0  0  0  0  0  0  0  0  0  0  0  0
    7.1256    2.0334    0.0000 C   0  0  0  0  0  0  0  0  0  0  0  0
    4.4996    0.4988    0.0000 C   0  0  0  0  0  0  0  0  0  0  0  0
    6.2596    2.5334    0.0000 C   0  0  0  0  0  0  0  0  0  0  0  0
    4.4996    2.5681    0.0000 C   0  0  0  0  0  0  0  0  0  0  0  0
    3.5935    1.0126    0.0000 C   0  0  0  0  0  0  0  0  0  0  0  0
    8.9790   -1.0648    0.0000 C   0  0  0  0  0  0  0  0  0  0  0  0
    8.9624    1.0906    0.0000 C   0  0  0  0  0  0  0  0  0  0  0  0
    3.5935    2.0542    0.0000 C   0  0  0  0  0  0  0  0  0  0  0  0
    5.3717   -0.9980    0.0000 C   0  0  0  0  0  0  0  0  0  0  0  0
    9.9187   -0.5223    0.0000 C   0  0  0  0  0  0  0  0  0  0  0  0
    9.9103    0.5627    0.0000 C   0  0  0  0  0  0  0  0  0  0  0  0
    2.0000    1.5334    0.0000 C   0  0  0  0  0  0  0  0  0  0  0  0
    9.8393   -2.5681    0.0000 C   0  0  0  0  0  0  0  0  0  0  0  0
   11.6507   -0.5156    0.0000 C   0  0  0  0  0  0  0  0  0  0  0  0
    7.1391   -1.6558    0.0000 H   0  0  0  0  0  0  0  0  0  0  0  0
    7.6625    2.3434    0.0000 H   0  0  0  0  0  0  0  0  0  0  0  0
    4.5068   -0.1212    0.0000 H   0  0  0  0  0  0  0  0  0  0  0  0
    6.2596    3.1534    0.0000 H   0  0  0  0  0  0  0  0  0  0  0  0
    4.5068    3.1880    0.0000 H   0  0  0  0  0  0  0  0  0  0  0  0
    8.9505    1.7105    0.0000 H   0  0  0  0  0  0  0  0  0  0  0  0
    5.0680   -0.4576    0.0000 H   0  0  0  0  0  0  0  0  0  0  0  0
    4.8313   -1.3018    0.0000 H   0  0  0  0  0  0  0  0  0  0  0  0
    5.6755   -1.5385    0.0000 H   0  0  0  0  0  0  0  0  0  0  0  0
   10.4436    0.8789    0.0000 H   0  0  0  0  0  0  0  0  0  0  0  0
    1.5391    1.9482    0.0000 H   0  0  0  0  0  0  0  0  0  0  0  0
    1.5391    1.1187    0.0000 H   0  0  0  0  0  0  0  0  0  0  0  0
    9.5272   -3.1038    0.0000 H   0  0  0  0  0  0  0  0  0  0  0  0
   10.3750   -2.8802    0.0000 H   0  0  0  0  0  0  0  0  0  0  0  0
   10.1513   -2.0323    0.0000 H   0  0  0  0  0  0  0  0  0  0  0  0
   11.9628   -1.0513    0.0000 H   0  0  0  0  0  0  0  0  0  0  0  0
   12.1864   -0.2035    0.0000 H   0  0  0  0  0  0  0  0  0  0  0  0
   11.3386    0.0202    0.0000 H   0  0  0  0  0  0  0  0  0  0  0  0
  1 17  1  0  0  0  0
  1 24  1  0  0  0  0
  2 20  1  0  0  0  0
  2 24  1  0  0  0  0
  3 18  1  0  0  0  0
  3 25  1  0  0  0  0
  4 22  1  0  0  0  0
  4 26  1  0  0  0  0
  5  6  2  0  0  0  0
  5 12  1  0  0  0  0
  5 21  1  0  0  0  0
  6  7  1  0  0  0  0
  6  8  1  0  0  0  0
  7  9  2  0  0  0  0
  7 13  1  0  0  0  0
  8 11  1  0  0  0  0
  8 14  2  0  0  0  0
  9 10  1  0  0  0  0
  9 19  1  0  0  0  0
 10 12  2  0  0  0  0
 10 18  1  0  0  0  0
 11 15  1  0  0  0  0
 11 16  2  0  0  0  0
 12 27  1  0  0  0  0
 13 15  2  0  0  0  0
 13 28  1  0  0  0  0
 14 17  1  0  0  0  0
 14 29  1  0  0  0  0
 15 30  1  0  0  0  0
 16 20  1  0  0  0  0
 16 31  1  0  0  0  0
 17 20  2  0  0  0  0
 18 22  2  0  0  0  0
 19 23  2  0  0  0  0
 19 32  1  0  0  0  0
 21 33  1  0  0  0  0
 21 34  1  0  0  0  0
 21 35  1  0  0  0  0
 22 23  1  0  0  0  0
 23 36  1  0  0  0  0
 24 37  1  0  0  0  0
 24 38  1  0  0  0  0
 25 39  1  0  0  0  0
 25 40  1  0  0  0  0
 25 41  1  0  0  0  0
 26 42  1  0  0  0  0
 26 43  1  0  0  0  0
 26 44  1  0  0  0  0
M  CHG  1   5   1
M  END
> <PUBCHEM_COMPOUND_CID>
2703

> <PUBCHEM_COMPOUND_CANONICALIZED>
1

> <PUBCHEM_CACTVS_COMPLEXITY>
516

> <PUBCHEM_CACTVS_HBOND_ACCEPTOR>
4

> <PUBCHEM_CACTVS_HBOND_DONOR>
0

> <PUBCHEM_CACTVS_ROTATABLE_BOND>
2

> <PUBCHEM_CACTVS_SUBSKEYS>
AAADceB6OAAAAAAAAAAAAAAAAAAAASAAAAA8YMEAAAAAAEjx/AAAHgAAAAAADAzBngc+zvMMFACgAzRnRACCiCAxICAI2CAuzJgdJuLEsZukMCpmwBnO6Aew0PMO4AADQAAaQADAAAaAADSAAAAAAAAAAA==

> <PUBCHEM_IUPAC_OPENEYE_NAME>
1,2-dimethoxy-12-methyl-[1,3]benzodioxolo[5,6-c]phenanthridin-12-ium

> <PUBCHEM_IUPAC_CAS_NAME>
1,2-dimethoxy-12-methyl-[1,3]benzodioxolo[5,6-c]phenanthridin-12-ium

> <PUBCHEM_IUPAC_NAME>
1,2-dimethoxy-12-methyl-[1,3]benzodioxolo[5,6-c]phenanthridin-12-ium

> <PUBCHEM_IUPAC_SYSTEMATIC_NAME>
1,2-dimethoxy-12-methyl-[1,3]benzodioxolo[5,6-c]phenanthridin-12-ium

> <PUBCHEM_IUPAC_TRADITIONAL_NAME>
1,2-dimethoxy-12-methyl-[1,3]benzodioxolo[5,6-c]phenanthridin-12-ium

> <PUBCHEM_IUPAC_INCHI>
InChI=1S/C21H18NO4/c1-22-10-16-13(6-7-17(23-2)21(16)24-3)14-5-4-12-8-18-19(26-11-25-18)9-15(12)20(14)22/h4-10H,11H2,1-3H3/q+1

> <PUBCHEM_IUPAC_INCHIKEY>
LLEJIEBFSOEYIV-UHFFFAOYSA-N

> <PUBCHEM_XLOGP3_AA>
4.6

> <PUBCHEM_EXACT_MASS>
348.123583

> <PUBCHEM_MOLECULAR_FORMULA>
C21H18NO4+

> <PUBCHEM_MOLECULAR_WEIGHT>
348.37192

> <PUBCHEM_OPENEYE_CAN_SMILES>
C[N+]1=C2C(=C3C=CC(=C(C3=C1)OC)OC)C=CC4=CC5=C(C=C42)OCO5

> <PUBCHEM_OPENEYE_ISO_SMILES>
C[N+]1=C2C(=C3C=CC(=C(C3=C1)OC)OC)C=CC4=CC5=C(C=C42)OCO5

> <PUBCHEM_CACTVS_TPSA>
40.8

> <PUBCHEM_MONOISOTOPIC_WEIGHT>
348.123583

> <PUBCHEM_TOTAL_CHARGE>
1

> <PUBCHEM_HEAVY_ATOM_COUNT>
26

> <PUBCHEM_ATOM_DEF_STEREO_COUNT>
0

> <PUBCHEM_ATOM_UDEF_STEREO_COUNT>
0

> <PUBCHEM_BOND_DEF_STEREO_COUNT>
0

> <PUBCHEM_BOND_UDEF_STEREO_COUNT>
0

> <PUBCHEM_ISOTOPIC_ATOM_COUNT>
0

> <PUBCHEM_COMPONENT_COUNT>
1

> <PUBCHEM_CACTVS_TAUTO_COUNT>
1

> <PUBCHEM_COORDINATE_TYPE>
1
5
255

> <PUBCHEM_BONDANNOTATIONS>
10  12  8
10  18  8
11  15  8
11  16  8
13  15  8
14  17  8
16  20  8
17  20  8
18  22  8
19  23  8
22  23  8
5  12  8
5  6  8
6  7  8
6  8  8
7  13  8
7  9  8
8  11  8
8  14  8
9  10  8
9  19  8

$$$$

