5438
  -OEChem-06261200412D

 20 21  0     0  0  0  0  0  0999 V2000
    4.6783    0.8047    0.0000 S   0  0  0  0  0  0  0  0  0  0  0  0
    2.8660    1.0000    0.0000 N   0  0  0  0  0  0  0  0  0  0  0  0
    6.7619    0.8660    0.0000 N   0  3  0  0  0  0  0  0  0  0  0  0
    6.7619   -0.8660    0.0000 N   0  0  0  0  0  0  0  0  0  0  0  0
    3.7320   -0.5000    0.0000 C   0  0  0  0  0  0  0  0  0  0  0  0
    5.2619    0.0000    0.0000 C   0  0  0  0  0  0  0  0  0  0  0  0
    3.7320    0.5000    0.0000 C   0  0  0  0  0  0  0  0  0  0  0  0
    4.6783   -0.8047    0.0000 C   0  0  0  0  0  0  0  0  0  0  0  0
    2.8660   -1.0000    0.0000 C   0  0  0  0  0  0  0  0  0  0  0  0
    6.2619    0.0000    0.0000 C   0  0  0  0  0  0  0  0  0  0  0  0
    2.0000   -0.5000    0.0000 C   0  0  0  0  0  0  0  0  0  0  0  0
    2.0000    0.5000    0.0000 C   0  0  0  0  0  0  0  0  0  0  0  0
    4.8709   -1.3940    0.0000 H   0  0  0  0  0  0  0  0  0  0  0  0
    2.8660   -1.6200    0.0000 H   0  0  0  0  0  0  0  0  0  0  0  0
    1.4631   -0.8100    0.0000 H   0  0  0  0  0  0  0  0  0  0  0  0
    1.4631    0.8100    0.0000 H   0  0  0  0  0  0  0  0  0  0  0  0
    7.3819    0.8660    0.0000 H   0  0  0  0  0  0  0  0  0  0  0  0
    6.4519    1.4030    0.0000 H   0  0  0  0  0  0  0  0  0  0  0  0
    7.3819   -0.8660    0.0000 H   0  0  0  0  0  0  0  0  0  0  0  0
    6.4519   -1.4030    0.0000 H   0  0  0  0  0  0  0  0  0  0  0  0
  1  6  1  0  0  0  0
  1  7  1  0  0  0  0
  2  7  1  0  0  0  0
  2 12  2  0  0  0  0
  3 10  2  0  0  0  0
  3 17  1  0  0  0  0
  3 18  1  0  0  0  0
  4 10  1  0  0  0  0
  4 19  1  0  0  0  0
  4 20  1  0  0  0  0
  5  7  2  0  0  0  0
  5  8  1  0  0  0  0
  5  9  1  0  0  0  0
  6  8  2  0  0  0  0
  6 10  1  0  0  0  0
  8 13  1  0  0  0  0
  9 11  2  0  0  0  0
  9 14  1  0  0  0  0
 11 12  1  0  0  0  0
 11 15  1  0  0  0  0
 12 16  1  0  0  0  0
M  CHG  1   3   1
M  END
> <PUBCHEM_COMPOUND_CID>
5438

> <PUBCHEM_COMPOUND_CANONICALIZED>
1

> <PUBCHEM_CACTVS_COMPLEXITY>
189

> <PUBCHEM_CACTVS_HBOND_ACCEPTOR>
2

> <PUBCHEM_CACTVS_HBOND_DONOR>
2

> <PUBCHEM_CACTVS_ROTATABLE_BOND>
1

> <PUBCHEM_CACTVS_SUBSKEYS>
AAADccBzAABAAAAAAAAAAAAAAAAAASAAAAAsAAAAAAAAAFgB+AAAHAQQAAAADADBWgQ9gdJIEAikAjJnZACD0KDxCjhI2Dg4ZJgIIOLgkZGEIAhggADoyAcQgAAOAAAAAAAAAAAAAAAAAAAAAAAAAAAAAA==

> <PUBCHEM_IUPAC_OPENEYE_NAME>
[amino(thieno[2,3-b]pyridin-2-yl)methylene]ammonium

> <PUBCHEM_IUPAC_CAS_NAME>
[amino(2-thieno[2,3-b]pyridinyl)methylidene]ammonium

> <PUBCHEM_IUPAC_NAME>
[amino(thieno[2,3-b]pyridin-2-yl)methylidene]azanium

> <PUBCHEM_IUPAC_SYSTEMATIC_NAME>
[azanyl(thieno[2,3-b]pyridin-2-yl)methylidene]azanium

> <PUBCHEM_IUPAC_TRADITIONAL_NAME>
[amino(thieno[2,3-b]pyridin-2-yl)methylene]ammonium

> <PUBCHEM_IUPAC_INCHI>
InChI=1S/C8H7N3S/c9-7(10)6-4-5-2-1-3-11-8(5)12-6/h1-4H,(H3,9,10)/p+1

> <PUBCHEM_IUPAC_INCHIKEY>
GZEJMYFXZMUAEC-UHFFFAOYSA-O

> <PUBCHEM_XLOGP3_AA>
1.5

> <PUBCHEM_EXACT_MASS>
178.043893

> <PUBCHEM_MOLECULAR_FORMULA>
C8H8N3S+

> <PUBCHEM_MOLECULAR_WEIGHT>
178.23422

> <PUBCHEM_OPENEYE_CAN_SMILES>
C1=CC2=C(N=C1)SC(=C2)C(=[NH2+])N

> <PUBCHEM_OPENEYE_ISO_SMILES>
C1=CC2=C(N=C1)SC(=C2)C(=[NH2+])N

> <PUBCHEM_CACTVS_TPSA>
92.7

> <PUBCHEM_MONOISOTOPIC_WEIGHT>
178.043893

> <PUBCHEM_TOTAL_CHARGE>
1

> <PUBCHEM_HEAVY_ATOM_COUNT>
12

> <PUBCHEM_ATOM_DEF_STEREO_COUNT>
0

> <PUBCHEM_ATOM_UDEF_STEREO_COUNT>
0

> <PUBCHEM_BOND_DEF_STEREO_COUNT>
0

> <PUBCHEM_BOND_UDEF_STEREO_COUNT>
0

> <PUBCHEM_ISOTOPIC_ATOM_COUNT>
0

> <PUBCHEM_COMPONENT_COUNT>
1

> <PUBCHEM_CACTVS_TAUTO_COUNT>
2

> <PUBCHEM_COORDINATE_TYPE>
1
5
255

> <PUBCHEM_BONDANNOTATIONS>
1  6  8
1  7  8
11  12  8
2  12  8
2  7  8
5  7  8
5  8  8
5  9  8
6  8  8
9  11  8

$$$$

