   Color/Form
        Off-white solid
   from [1]HSDB

   Melting Point
        139-140 deg C, decomposes
   from [2]HSDB

   Dissociation Constants
        pKa1 = 3.92, pKa2 = 8.19
   from [3]HSDB

   Octanol/Water Partition Coefficient
        log Kow = 2.2 /Estimated/
   from [4]HSDB

   Solubilities
        In water, 48 mg/L at 25 deg C /Estimated/
   from [5]HSDB

   Vapor Pressure
        1.25X10-12 mm Hg at 25 deg C /Estimated/
   from [6]HSDB

   Other Chemical/Physical Properties

     * Mol wt: 405.36. White to off-white solid; mp: >130 deg C (dec); UV
       max (methanol): 289 (E=1.64X10+4) /Sodium salt/
     * Freely soluble in water, very slightly soluble in phosphate buffer
       at pH 7.4, and practically insoluble in hexane. /Sodium/
     * White to off-white crystalline powder and is racemic /Sodium
       sesquihydrate/
     * Henry's Law constant = 5.84X10-20 atm-cu m/mol at 25 deg C
       /Estimated/
     * Hydroxyl radical reaction rate constant = 1.0X10-14 cu cm/molc-sec
       at 25 deg C /Estimated/

   from [7]HSDB

   Computed Properties
   Molecular Weight                  383.369806 [g/mol]
   Molecular Formula                 C[16]H[15]F[2]N[3]O[4]S
   XLogP3-AA                         2.4
   H-Bond Donor                      1
   H-Bond Acceptor                   9
   Rotatable Bond Count              7
   Tautomer Count                    2
   Exact Mass                        383.075133
   MonoIsotopic Mass                 383.075133
   Topological Polar Surface Area    106
   Heavy Atom Count                  26
   Formal Charge                     0
   Complexity                        490
   Isotope Atom Count                0
   Defined Atom Stereocenter Count   0
   Undefined Atom Stereocenter Count 1
   Defined Bond Stereocenter Count   0
   Undefined Bond Stereocenter Count 0
   Covalently-Bonded Unit Count      1
   Feature 3D Acceptor Count         5
   Feature 3D Donor Count            1
   Feature 3D Cation Count           1
   Feature 3D Ring Count             3
   Effective Rotor Count             7
   Conformer Sampling RMSD           0.8
   CID Conformer Count               [8]176

References

   1. http://toxnet.nlm.nih.gov/cgi-bin/sis/search/r?dbs+hsdb:@term+@rn+@rel+102625-70-7
   2. http://toxnet.nlm.nih.gov/cgi-bin/sis/search/r?dbs+hsdb:@term+@rn+@rel+102625-70-7
   3. http://toxnet.nlm.nih.gov/cgi-bin/sis/search/r?dbs+hsdb:@term+@rn+@rel+102625-70-7
   4. http://toxnet.nlm.nih.gov/cgi-bin/sis/search/r?dbs+hsdb:@term+@rn+@rel+102625-70-7
   5. http://toxnet.nlm.nih.gov/cgi-bin/sis/search/r?dbs+hsdb:@term+@rn+@rel+102625-70-7
   6. http://toxnet.nlm.nih.gov/cgi-bin/sis/search/r?dbs+hsdb:@term+@rn+@rel+102625-70-7
   7. http://toxnet.nlm.nih.gov/cgi-bin/sis/search/r?dbs+hsdb:@term+@rn+@rel+102625-70-7
   8. http://pubchem.ncbi.nlm.nih.gov/vw3d/vw3d.cgi?cid=4679
