444485
  -OEChem-07051212452D

 79 81  0     1  0  0  0  0  0999 V2000
    8.2591   10.2327    0.0000 S   0  0  0  0  0  0  0  0  0  0  0  0
    5.0474   -2.3643    0.0000 P   0  0  3  0  0  0  0  0  0  0  0  0
    5.4104   -0.6707    0.0000 P   0  0  3  0  0  0  0  0  0  0  0  0
    4.4026   -5.8175    0.0000 O   0  0  0  0  0  0  0  0  0  0  0  0
    6.7485   -6.9093    0.0000 O   0  0  0  0  0  0  0  0  0  0  0  0
    6.7523   -4.7337    0.0000 O   0  0  0  0  0  0  0  0  0  0  0  0
    5.3548   -3.3159    0.0000 O   0  0  0  0  0  0  0  0  0  0  0  0
    6.0809    0.0713    0.0000 O   0  0  0  0  0  0  0  0  0  0  0  0
    4.7400   -1.4127    0.0000 O   0  0  0  0  0  0  0  0  0  0  0  0
    8.0921    2.2972    0.0000 O   0  0  0  0  0  0  0  0  0  0  0  0
    5.9990   -2.0569    0.0000 O   0  0  0  0  0  0  0  0  0  0  0  0
    4.0958   -2.6717    0.0000 O   0  0  0  0  0  0  0  0  0  0  0  0
    5.8292    3.6680    0.0000 O   0  0  0  0  0  0  0  0  0  0  0  0
    4.6685   -0.0003    0.0000 O   0  0  0  0  0  0  0  0  0  0  0  0
    6.1524   -1.3411    0.0000 O   0  0  0  0  0  0  0  0  0  0  0  0
    6.5553    7.0552    0.0000 O   0  0  0  0  0  0  0  0  0  0  0  0
    4.6783   -7.5780    0.0000 N   0  0  0  0  0  0  0  0  0  0  0  0
    4.6783   -9.1875    0.0000 N   0  0  0  0  0  0  0  0  0  0  0  0
    2.8660   -7.3828    0.0000 N   0  0  0  0  0  0  0  0  0  0  0  0
    7.4774    4.2004    0.0000 N   0  0  0  0  0  0  0  0  0  0  0  0
    2.0000   -8.8828    0.0000 N   0  0  0  0  0  0  0  0  0  0  0  0
    2.8660  -10.3827    0.0000 N   0  0  0  0  0  0  0  0  0  0  0  0
    8.2035    7.5876    0.0000 N   0  0  0  0  0  0  0  0  0  0  0  0
    5.9405   -6.3201    0.0000 C   0  0  2  0  0  0  0  0  0  0  0  0
    5.9422   -5.3201    0.0000 C   0  0  1  0  0  0  0  0  0  0  0  0
    4.9889   -6.6275    0.0000 C   0  0  1  0  0  0  0  0  0  0  0  0
    4.9917   -5.0095    0.0000 C   0  0  1  0  0  0  0  0  0  0  0  0
    4.6844   -4.0579    0.0000 C   0  0  0  0  0  0  0  0  0  0  0  0
    3.7320   -7.8828    0.0000 C   0  0  0  0  0  0  0  0  0  0  0  0
    6.4439    1.7648    0.0000 C   0  0  0  0  0  0  0  0  0  0  0  0
    5.2619   -8.3828    0.0000 C   0  0  0  0  0  0  0  0  0  0  0  0
    3.7320   -8.8828    0.0000 C   0  0  0  0  0  0  0  0  0  0  0  0
    7.1143    2.5068    0.0000 C   0  0  2  0  0  0  0  0  0  0  0  0
    5.7735    1.0228    0.0000 C   0  0  0  0  0  0  0  0  0  0  0  0
    5.7019    2.4352    0.0000 C   0  0  0  0  0  0  0  0  0  0  0  0
    7.1859    1.0944    0.0000 C   0  0  0  0  0  0  0  0  0  0  0  0
    2.8660   -9.3828    0.0000 C   0  0  0  0  0  0  0  0  0  0  0  0
    6.8070    3.4584    0.0000 C   0  0  0  0  0  0  0  0  0  0  0  0
    2.0000   -7.8828    0.0000 C   0  0  0  0  0  0  0  0  0  0  0  0
    7.1700    5.1520    0.0000 C   0  0  0  0  0  0  0  0  0  0  0  0
    7.8404    5.8940    0.0000 C   0  0  0  0  0  0  0  0  0  0  0  0
    7.5330    6.8456    0.0000 C   0  0  0  0  0  0  0  0  0  0  0  0
    7.8961    8.5391    0.0000 C   0  0  0  0  0  0  0  0  0  0  0  0
    8.5665    9.2811    0.0000 C   0  0  0  0  0  0  0  0  0  0  0  0
    5.8425   -6.9323    0.0000 H   0  0  0  0  0  0  0  0  0  0  0  0
    5.8463   -4.7076    0.0000 H   0  0  0  0  0  0  0  0  0  0  0  0
    5.4266   -7.0667    0.0000 H   0  0  0  0  0  0  0  0  0  0  0  0
    4.3795   -4.9114    0.0000 H   0  0  0  0  0  0  0  0  0  0  0  0
    4.3035   -3.5686    0.0000 H   0  0  0  0  0  0  0  0  0  0  0  0
    4.1364   -4.3480    0.0000 H   0  0  0  0  0  0  0  0  0  0  0  0
    7.3154   -6.6581    0.0000 H   0  0  0  0  0  0  0  0  0  0  0  0
    7.3182   -4.9869    0.0000 H   0  0  0  0  0  0  0  0  0  0  0  0
    5.8819   -8.3828    0.0000 H   0  0  0  0  0  0  0  0  0  0  0  0
    7.3049    1.9168    0.0000 H   0  0  0  0  0  0  0  0  0  0  0  0
    5.3926    1.5121    0.0000 H   0  0  0  0  0  0  0  0  0  0  0  0
    5.2256    0.7327    0.0000 H   0  0  0  0  0  0  0  0  0  0  0  0
    6.7702    0.6344    0.0000 H   0  0  0  0  0  0  0  0  0  0  0  0
    6.1176    2.8953    0.0000 H   0  0  0  0  0  0  0  0  0  0  0  0
    5.2419    2.8509    0.0000 H   0  0  0  0  0  0  0  0  0  0  0  0
    5.2863    1.9752    0.0000 H   0  0  0  0  0  0  0  0  0  0  0  0
    7.6459    0.6788    0.0000 H   0  0  0  0  0  0  0  0  0  0  0  0
    7.6016    1.5545    0.0000 H   0  0  0  0  0  0  0  0  0  0  0  0
    8.5078    2.7572    0.0000 H   0  0  0  0  0  0  0  0  0  0  0  0
    1.4631   -7.5728    0.0000 H   0  0  0  0  0  0  0  0  0  0  0  0
    8.0836    4.0704    0.0000 H   0  0  0  0  0  0  0  0  0  0  0  0
    6.7891    5.6412    0.0000 H   0  0  0  0  0  0  0  0  0  0  0  0
    6.6221    4.8619    0.0000 H   0  0  0  0  0  0  0  0  0  0  0  0
    6.4590   -2.4726    0.0000 H   0  0  0  0  0  0  0  0  0  0  0  0
    2.3291  -10.6927    0.0000 H   0  0  0  0  0  0  0  0  0  0  0  0
    3.4030  -10.6927    0.0000 H   0  0  0  0  0  0  0  0  0  0  0  0
    8.2213    5.4048    0.0000 H   0  0  0  0  0  0  0  0  0  0  0  0
    8.3884    6.1841    0.0000 H   0  0  0  0  0  0  0  0  0  0  0  0
    4.0785   -0.1909    0.0000 H   0  0  0  0  0  0  0  0  0  0  0  0
    8.8097    7.4576    0.0000 H   0  0  0  0  0  0  0  0  0  0  0  0
    7.5152    9.0284    0.0000 H   0  0  0  0  0  0  0  0  0  0  0  0
    7.3482    8.2490    0.0000 H   0  0  0  0  0  0  0  0  0  0  0  0
    8.9474    8.7919    0.0000 H   0  0  0  0  0  0  0  0  0  0  0  0
    9.1144    9.5712    0.0000 H   0  0  0  0  0  0  0  0  0  0  0  0
    8.6748   10.6927    0.0000 H   0  0  0  0  0  0  0  0  0  0  0  0
  1 44  1  0  0  0  0
  1 79  1  0  0  0  0
  2  7  1  0  0  0  0
  2  9  1  0  0  0  0
  2 11  1  0  0  0  0
  2 12  2  0  0  0  0
  3  8  1  0  0  0  0
  3  9  1  0  0  0  0
  3 14  1  0  0  0  0
  3 15  2  0  0  0  0
  4 26  1  0  0  0  0
  4 27  1  0  0  0  0
 24  5  1  1  0  0  0
  5 51  1  0  0  0  0
 25  6  1  1  0  0  0
  6 52  1  0  0  0  0
  7 28  1  0  0  0  0
  8 34  1  0  0  0  0
 33 10  1  6  0  0  0
 10 63  1  0  0  0  0
 11 68  1  0  0  0  0
 13 38  2  0  0  0  0
 14 73  1  0  0  0  0
 16 42  2  0  0  0  0
 26 17  1  6  0  0  0
 17 29  1  0  0  0  0
 17 31  1  0  0  0  0
 18 31  2  0  0  0  0
 18 32  1  0  0  0  0
 19 29  2  0  0  0  0
 19 39  1  0  0  0  0
 20 38  1  0  0  0  0
 20 40  1  0  0  0  0
 20 65  1  0  0  0  0
 21 37  1  0  0  0  0
 21 39  2  0  0  0  0
 22 37  1  0  0  0  0
 22 69  1  0  0  0  0
 22 70  1  0  0  0  0
 23 42  1  0  0  0  0
 23 43  1  0  0  0  0
 23 74  1  0  0  0  0
 24 25  1  0  0  0  0
 24 26  1  0  0  0  0
 24 45  1  0  0  0  0
 25 27  1  0  0  0  0
 25 46  1  0  0  0  0
 26 47  1  0  0  0  0
 27 28  1  6  0  0  0
 27 48  1  0  0  0  0
 28 49  1  0  0  0  0
 28 50  1  0  0  0  0
 29 32  1  0  0  0  0
 30 33  1  0  0  0  0
 30 34  1  0  0  0  0
 30 35  1  0  0  0  0
 30 36  1  0  0  0  0
 31 53  1  0  0  0  0
 32 37  2  0  0  0  0
 33 38  1  0  0  0  0
 33 54  1  0  0  0  0
 34 55  1  0  0  0  0
 34 56  1  0  0  0  0
 35 58  1  0  0  0  0
 35 59  1  0  0  0  0
 35 60  1  0  0  0  0
 36 57  1  0  0  0  0
 36 61  1  0  0  0  0
 36 62  1  0  0  0  0
 39 64  1  0  0  0  0
 40 41  1  0  0  0  0
 40 66  1  0  0  0  0
 40 67  1  0  0  0  0
 41 42  1  0  0  0  0
 41 71  1  0  0  0  0
 41 72  1  0  0  0  0
 43 44  1  0  0  0  0
 43 75  1  0  0  0  0
 43 76  1  0  0  0  0
 44 77  1  0  0  0  0
 44 78  1  0  0  0  0
M  END
> <PUBCHEM_COMPOUND_CID>
444485

> <PUBCHEM_COMPOUND_CANONICALIZED>
1

> <PUBCHEM_CACTVS_COMPLEXITY>
1100

> <PUBCHEM_CACTVS_HBOND_ACCEPTOR>
18

> <PUBCHEM_CACTVS_HBOND_DONOR>
9

> <PUBCHEM_CACTVS_ROTATABLE_BOND>
16

> <PUBCHEM_CACTVS_SUBSKEYS>
AAADcfB7vANAAAAAAAAAAAAAAAAAAWJAAAAsAAAAAAAAAFgB+AAAHgQQCCAADhzl1waH8L/MFxSoQQdxdIKAgC0REKABUKFoVBCDWBpAyEAeRAgPFgLTACDyMAIJAAAAAAAAAAAAAAAAAAAAAAAAAAAAAA==

> <PUBCHEM_IUPAC_OPENEYE_NAME>
[[(2R,3S,4R,5R)-5-(6-aminopurin-9-yl)-3,4-dihydroxy-tetrahydrofuran-2-yl]methoxy-hydroxy-phosphoryl] [(3R)-3-hydroxy-2,2-dimethyl-4-oxo-4-[[3-oxo-3-(2-sulfanylethylamino)propyl]amino]butyl] hydrogen phosphate

> <PUBCHEM_IUPAC_CAS_NAME>
[[(2R,3S,4R,5R)-5-(6-aminopurin-9-yl)-3,4-dihydroxy-2-oxolanyl]methoxy-hydroxyphosphoryl] [(3R)-3-hydroxy-4-[[3-(2-mercaptoethylamino)-3-oxopropyl]amino]-2,2-dimethyl-4-oxobutyl] hydrogen phosphate

> <PUBCHEM_IUPAC_NAME>
[[(2R,3S,4R,5R)-5-(6-aminopurin-9-yl)-3,4-dihydroxyoxolan-2-yl]methoxy-hydroxyphosphoryl] [(3R)-3-hydroxy-2,2-dimethyl-4-oxo-4-[[3-oxo-3-(2-sulfanylethylamino)propyl]amino]butyl] hydrogen phosphate

> <PUBCHEM_IUPAC_SYSTEMATIC_NAME>
[[(2R,3S,4R,5R)-5-(6-aminopurin-9-yl)-3,4-bis(oxidanyl)oxolan-2-yl]methoxy-oxidanyl-phosphoryl] [(3R)-2,2-dimethyl-3-oxidanyl-4-oxidanylidene-4-[[3-oxidanylidene-3-(2-sulfanylethylamino)propyl]amino]butyl] hydrogen phosphate

> <PUBCHEM_IUPAC_TRADITIONAL_NAME>
[[(2R,3S,4R,5R)-5-adenin-9-yl-3,4-dihydroxy-tetrahydrofuran-2-yl]methoxy-hydroxy-phosphoryl] [(3R)-3-hydroxy-4-keto-4-[[3-keto-3-(2-mercaptoethylamino)propyl]amino]-2,2-dimethyl-butyl] hydrogen phosphate

> <PUBCHEM_IUPAC_INCHI>
InChI=1S/C21H35N7O13P2S/c1-21(2,16(32)19(33)24-4-3-12(29)23-5-6-44)8-39-43(36,37)41-42(34,35)38-7-11-14(30)15(31)20(40-11)28-10-27-13-17(22)25-9-26-18(13)28/h9-11,14-16,20,30-32,44H,3-8H2,1-2H3,(H,23,29)(H,24,33)(H,34,35)(H,36,37)(H2,22,25,26)/t11-,14-,15-,16+,20-/m1/s1

> <PUBCHEM_IUPAC_INCHIKEY>
KDTSHFARGAKYJN-IBOSZNHHSA-N

> <PUBCHEM_XLOGP3>
-4.7

> <PUBCHEM_EXACT_MASS>
687.148878

> <PUBCHEM_MOLECULAR_FORMULA>
C21H35N7O13P2S

> <PUBCHEM_MOLECULAR_WEIGHT>
687.554224

> <PUBCHEM_OPENEYE_CAN_SMILES>
CC(C)(COP(=O)(O)OP(=O)(O)OCC1C(C(C(O1)N2C=NC3=C2N=CN=C3N)O)O)C(C(=O)NCCC(=O)NCCS)O

> <PUBCHEM_OPENEYE_ISO_SMILES>
CC(C)(COP(=O)(O)OP(=O)(O)OC[C@@H]1[C@H]([C@H]([C@@H](O1)N2C=NC3=C2N=CN=C3N)O)O)[C@H](C(=O)NCCC(=O)NCCS)O

> <PUBCHEM_CACTVS_TPSA>
301

> <PUBCHEM_MONOISOTOPIC_WEIGHT>
687.148878

> <PUBCHEM_TOTAL_CHARGE>
0

> <PUBCHEM_HEAVY_ATOM_COUNT>
44

> <PUBCHEM_ATOM_DEF_STEREO_COUNT>
5

> <PUBCHEM_ATOM_UDEF_STEREO_COUNT>
0

> <PUBCHEM_BOND_DEF_STEREO_COUNT>
0

> <PUBCHEM_BOND_UDEF_STEREO_COUNT>
0

> <PUBCHEM_ISOTOPIC_ATOM_COUNT>
0

> <PUBCHEM_COMPONENT_COUNT>
1

> <PUBCHEM_CACTVS_TAUTO_COUNT>
12

> <PUBCHEM_COORDINATE_TYPE>
1
5
255

> <PUBCHEM_BONDANNOTATIONS>
33  10  6
26  17  6
17  29  8
17  31  8
18  31  8
18  32  8
19  29  8
19  39  8
21  37  8
21  39  8
27  28  6
29  32  8
32  37  8
24  5  5
25  6  5

$$$$

