11367848
  -OEChem-07051213092D

 35 36  0     0  0  0  0  0  0999 V2000
    2.0000   -2.9400    0.0000 O   0  0  0  0  0  0  0  0  0  0  0  0
    3.7320   -2.9400    0.0000 O   0  0  0  0  0  0  0  0  0  0  0  0
    2.8660    1.5600    0.0000 N   0  0  0  0  0  0  0  0  0  0  0  0
    2.8660   -1.4400    0.0000 N   0  0  0  0  0  0  0  0  0  0  0  0
    2.8660    0.5600    0.0000 C   0  0  0  0  0  0  0  0  0  0  0  0
    2.0000    0.0600    0.0000 C   0  0  0  0  0  0  0  0  0  0  0  0
    3.7320    0.0600    0.0000 C   0  0  0  0  0  0  0  0  0  0  0  0
    3.7320    2.0600    0.0000 C   0  0  0  0  0  0  0  0  0  0  0  0
    2.0000    2.0600    0.0000 C   0  0  0  0  0  0  0  0  0  0  0  0
    2.0000   -0.9400    0.0000 C   0  0  0  0  0  0  0  0  0  0  0  0
    3.7320   -0.9400    0.0000 C   0  0  0  0  0  0  0  0  0  0  0  0
    2.0000    3.0600    0.0000 C   0  0  0  0  0  0  0  0  0  0  0  0
    3.7320    3.0600    0.0000 C   0  0  0  0  0  0  0  0  0  0  0  0
    2.8660    3.5600    0.0000 C   0  0  0  0  0  0  0  0  0  0  0  0
    2.8660   -2.4400    0.0000 C   0  0  0  0  0  0  0  0  0  0  0  0
    3.4030    0.8700    0.0000 H   0  0  0  0  0  0  0  0  0  0  0  0
    1.7880    0.6426    0.0000 H   0  0  0  0  0  0  0  0  0  0  0  0
    1.3894   -0.0477    0.0000 H   0  0  0  0  0  0  0  0  0  0  0  0
    4.3426   -0.0477    0.0000 H   0  0  0  0  0  0  0  0  0  0  0  0
    3.9441    0.6426    0.0000 H   0  0  0  0  0  0  0  0  0  0  0  0
    3.9441    1.4774    0.0000 H   0  0  0  0  0  0  0  0  0  0  0  0
    4.3426    2.1677    0.0000 H   0  0  0  0  0  0  0  0  0  0  0  0
    1.3894    2.1677    0.0000 H   0  0  0  0  0  0  0  0  0  0  0  0
    1.7880    1.4774    0.0000 H   0  0  0  0  0  0  0  0  0  0  0  0
    1.3894   -0.8323    0.0000 H   0  0  0  0  0  0  0  0  0  0  0  0
    1.7880   -1.5226    0.0000 H   0  0  0  0  0  0  0  0  0  0  0  0
    3.9441   -1.5226    0.0000 H   0  0  0  0  0  0  0  0  0  0  0  0
    4.3426   -0.8323    0.0000 H   0  0  0  0  0  0  0  0  0  0  0  0
    1.7880    3.6426    0.0000 H   0  0  0  0  0  0  0  0  0  0  0  0
    1.3894    2.9523    0.0000 H   0  0  0  0  0  0  0  0  0  0  0  0
    4.3426    2.9523    0.0000 H   0  0  0  0  0  0  0  0  0  0  0  0
    3.9441    3.6426    0.0000 H   0  0  0  0  0  0  0  0  0  0  0  0
    3.2646    4.0350    0.0000 H   0  0  0  0  0  0  0  0  0  0  0  0
    2.4675    4.0350    0.0000 H   0  0  0  0  0  0  0  0  0  0  0  0
    2.0000   -3.5600    0.0000 H   0  0  0  0  0  0  0  0  0  0  0  0
  1 15  1  0  0  0  0
  1 35  1  0  0  0  0
  2 15  2  0  0  0  0
  3  5  1  0  0  0  0
  3  8  1  0  0  0  0
  3  9  1  0  0  0  0
  4 10  1  0  0  0  0
  4 11  1  0  0  0  0
  4 15  1  0  0  0  0
  5  6  1  0  0  0  0
  5  7  1  0  0  0  0
  5 16  1  0  0  0  0
  6 10  1  0  0  0  0
  6 17  1  0  0  0  0
  6 18  1  0  0  0  0
  7 11  1  0  0  0  0
  7 19  1  0  0  0  0
  7 20  1  0  0  0  0
  8 13  1  0  0  0  0
  8 21  1  0  0  0  0
  8 22  1  0  0  0  0
  9 12  1  0  0  0  0
  9 23  1  0  0  0  0
  9 24  1  0  0  0  0
 10 25  1  0  0  0  0
 10 26  1  0  0  0  0
 11 27  1  0  0  0  0
 11 28  1  0  0  0  0
 12 14  1  0  0  0  0
 12 29  1  0  0  0  0
 12 30  1  0  0  0  0
 13 14  1  0  0  0  0
 13 31  1  0  0  0  0
 13 32  1  0  0  0  0
 14 33  1  0  0  0  0
 14 34  1  0  0  0  0
M  END
> <PUBCHEM_COMPOUND_CID>
11367848

> <PUBCHEM_COMPOUND_CANONICALIZED>
1

> <PUBCHEM_CACTVS_COMPLEXITY>
219

> <PUBCHEM_CACTVS_HBOND_ACCEPTOR>
3

> <PUBCHEM_CACTVS_HBOND_DONOR>
1

> <PUBCHEM_CACTVS_ROTATABLE_BOND>
1

> <PUBCHEM_CACTVS_SUBSKEYS>
AAADceBzMAAAAAAAAAAAAAAAAAAAAAAAAAAsWAAAAAAAAAAAAAAAHgAACAAACCjBAAQACAMAAgAIAAAAGAAAAAAAAAAAAAAIAAAAAAIAwAAEAAAABgCAAAAQAAAAAAAAAAAAAAAAAAAAAAAAAAAAAAAAAA==

> <PUBCHEM_IUPAC_OPENEYE_NAME>
4-(1-piperidyl)piperidine-1-carboxylic acid

> <PUBCHEM_IUPAC_CAS_NAME>
4-(1-piperidinyl)-1-piperidinecarboxylic acid

> <PUBCHEM_IUPAC_NAME>
4-piperidin-1-ylpiperidine-1-carboxylic acid

> <PUBCHEM_IUPAC_SYSTEMATIC_NAME>
4-piperidin-1-ylpiperidine-1-carboxylic acid

> <PUBCHEM_IUPAC_TRADITIONAL_NAME>
4-piperidinopiperidine-1-carboxylic acid

> <PUBCHEM_IUPAC_INCHI>
InChI=1S/C11H20N2O2/c14-11(15)13-8-4-10(5-9-13)12-6-2-1-3-7-12/h10H,1-9H2,(H,14,15)

> <PUBCHEM_IUPAC_INCHIKEY>
FJWVEDMJFKIJFB-UHFFFAOYSA-N

> <PUBCHEM_XLOGP3_AA>
-1

> <PUBCHEM_EXACT_MASS>
212.152478

> <PUBCHEM_MOLECULAR_FORMULA>
C11H20N2O2

> <PUBCHEM_MOLECULAR_WEIGHT>
212.2887

> <PUBCHEM_OPENEYE_CAN_SMILES>
C1CCN(CC1)C2CCN(CC2)C(=O)O

> <PUBCHEM_OPENEYE_ISO_SMILES>
C1CCN(CC1)C2CCN(CC2)C(=O)O

> <PUBCHEM_CACTVS_TPSA>
43.8

> <PUBCHEM_MONOISOTOPIC_WEIGHT>
212.152478

> <PUBCHEM_TOTAL_CHARGE>
0

> <PUBCHEM_HEAVY_ATOM_COUNT>
15

> <PUBCHEM_ATOM_DEF_STEREO_COUNT>
0

> <PUBCHEM_ATOM_UDEF_STEREO_COUNT>
0

> <PUBCHEM_BOND_DEF_STEREO_COUNT>
0

> <PUBCHEM_BOND_UDEF_STEREO_COUNT>
0

> <PUBCHEM_ISOTOPIC_ATOM_COUNT>
0

> <PUBCHEM_COMPONENT_COUNT>
1

> <PUBCHEM_CACTVS_TAUTO_COUNT>
1

> <PUBCHEM_COORDINATE_TYPE>
1
5
255

$$$$

