17396363
  -OEChem-06241222562D

 36 38  0     0  0  0  0  0  0999 V2000
   13.1750   -0.5415    0.0000 Cl  0  0  0  0  0  0  0  0  0  0  0  0
    9.6448    1.4827    0.0000 O   0  0  0  0  0  0  0  0  0  0  0  0
    2.6691   -0.4241    0.0000 O   0  0  0  0  0  0  0  0  0  0  0  0
    6.1808   -1.5173    0.0000 O   0  0  0  0  0  0  0  0  0  0  0  0
    5.3147   -0.0173    0.0000 N   0  0  0  0  0  0  0  0  0  0  0  0
    8.7788   -0.0173    0.0000 C   0  0  0  0  0  0  0  0  0  0  0  0
   10.5109   -0.0173    0.0000 C   0  0  0  0  0  0  0  0  0  0  0  0
    8.7788    0.9827    0.0000 C   0  0  0  0  0  0  0  0  0  0  0  0
   10.5109    0.9827    0.0000 C   0  0  0  0  0  0  0  0  0  0  0  0
    9.6448   -0.5173    0.0000 C   0  0  0  0  0  0  0  0  0  0  0  0
   11.4048   -0.5520    0.0000 C   0  0  0  0  0  0  0  0  0  0  0  0
    7.9128   -0.5173    0.0000 C   0  0  0  0  0  0  0  0  0  0  0  0
   11.4048    1.5173    0.0000 C   0  0  0  0  0  0  0  0  0  0  0  0
    4.4487   -0.5173    0.0000 C   0  0  0  0  0  0  0  0  0  0  0  0
   12.3109   -0.0381    0.0000 C   0  0  0  0  0  0  0  0  0  0  0  0
   12.3109    1.0035    0.0000 C   0  0  0  0  0  0  0  0  0  0  0  0
    7.0468   -0.0173    0.0000 C   0  0  0  0  0  0  0  0  0  0  0  0
    3.5827   -0.0173    0.0000 C   0  0  0  0  0  0  0  0  0  0  0  0
    6.1808   -0.5173    0.0000 C   0  0  0  0  0  0  0  0  0  0  0  0
    3.4782    0.9772    0.0000 C   0  0  0  0  0  0  0  0  0  0  0  0
    2.5000    1.1851    0.0000 C   0  0  0  0  0  0  0  0  0  0  0  0
    2.0000    0.3191    0.0000 C   0  0  0  0  0  0  0  0  0  0  0  0
    8.5668    1.5653    0.0000 H   0  0  0  0  0  0  0  0  0  0  0  0
    8.1682    0.8750    0.0000 H   0  0  0  0  0  0  0  0  0  0  0  0
    9.6448   -1.1373    0.0000 H   0  0  0  0  0  0  0  0  0  0  0  0
   11.3977   -1.1720    0.0000 H   0  0  0  0  0  0  0  0  0  0  0  0
    7.9128   -1.1373    0.0000 H   0  0  0  0  0  0  0  0  0  0  0  0
   11.3977    2.1373    0.0000 H   0  0  0  0  0  0  0  0  0  0  0  0
    4.0502   -0.9923    0.0000 H   0  0  0  0  0  0  0  0  0  0  0  0
    4.8472   -0.9923    0.0000 H   0  0  0  0  0  0  0  0  0  0  0  0
   12.8466    1.3156    0.0000 H   0  0  0  0  0  0  0  0  0  0  0  0
    7.0468    0.6027    0.0000 H   0  0  0  0  0  0  0  0  0  0  0  0
    5.3147    0.6027    0.0000 H   0  0  0  0  0  0  0  0  0  0  0  0
    3.9389    1.3920    0.0000 H   0  0  0  0  0  0  0  0  0  0  0  0
    2.2478    1.7515    0.0000 H   0  0  0  0  0  0  0  0  0  0  0  0
    1.3834    0.2543    0.0000 H   0  0  0  0  0  0  0  0  0  0  0  0
  1 15  1  0  0  0  0
  2  8  1  0  0  0  0
  2  9  1  0  0  0  0
  3 18  1  0  0  0  0
  3 22  1  0  0  0  0
  4 19  2  0  0  0  0
  5 14  1  0  0  0  0
  5 19  1  0  0  0  0
  5 33  1  0  0  0  0
  6  8  1  0  0  0  0
  6 10  2  0  0  0  0
  6 12  1  0  0  0  0
  7  9  2  0  0  0  0
  7 10  1  0  0  0  0
  7 11  1  0  0  0  0
  8 23  1  0  0  0  0
  8 24  1  0  0  0  0
  9 13  1  0  0  0  0
 10 25  1  0  0  0  0
 11 15  2  0  0  0  0
 11 26  1  0  0  0  0
 12 17  2  0  0  0  0
 12 27  1  0  0  0  0
 13 16  2  0  0  0  0
 13 28  1  0  0  0  0
 14 18  1  0  0  0  0
 14 29  1  0  0  0  0
 14 30  1  0  0  0  0
 15 16  1  0  0  0  0
 16 31  1  0  0  0  0
 17 19  1  0  0  0  0
 17 32  1  0  0  0  0
 18 20  2  0  0  0  0
 20 21  1  0  0  0  0
 20 34  1  0  0  0  0
 21 22  2  0  0  0  0
 21 35  1  0  0  0  0
 22 36  1  0  0  0  0
M  END
> <PUBCHEM_COMPOUND_CID>
17396363

> <PUBCHEM_COMPOUND_CANONICALIZED>
1

> <PUBCHEM_CACTVS_COMPLEXITY>
463

> <PUBCHEM_CACTVS_HBOND_ACCEPTOR>
3

> <PUBCHEM_CACTVS_HBOND_DONOR>
1

> <PUBCHEM_CACTVS_ROTATABLE_BOND>
4

> <PUBCHEM_CACTVS_SUBSKEYS>
AAADccB6MAAEAAAAAAAAAAAAAAAAASAAAAAwQAAAAAAAAACBwAAAHgIQAAAADAbhmCYwBoLABECIAqlSkACCCAAkJQAIiIGODsgOJjKFtzuHOSjk1hGYqYeY0SIOACAAIAAIAAAAQABAABAAAAAAAAAAAA==

> <PUBCHEM_IUPAC_OPENEYE_NAME>
(E)-3-(6-chloro-2H-chromen-3-yl)-N-(2-furylmethyl)prop-2-enamide

> <PUBCHEM_IUPAC_CAS_NAME>
(E)-3-(6-chloro-2H-1-benzopyran-3-yl)-N-(2-furanylmethyl)-2-propenamide

> <PUBCHEM_IUPAC_NAME>
(E)-3-(6-chloro-2H-chromen-3-yl)-N-(furan-2-ylmethyl)prop-2-enamide

> <PUBCHEM_IUPAC_SYSTEMATIC_NAME>
(E)-3-(6-chloranyl-2H-chromen-3-yl)-N-(furan-2-ylmethyl)prop-2-enamide

> <PUBCHEM_IUPAC_TRADITIONAL_NAME>
(E)-3-(6-chloro-2H-chromen-3-yl)-N-(2-furfuryl)acrylamide

> <PUBCHEM_IUPAC_INCHI>
InChI=1S/C17H14ClNO3/c18-14-4-5-16-13(9-14)8-12(11-22-16)3-6-17(20)19-10-15-2-1-7-21-15/h1-9H,10-11H2,(H,19,20)/b6-3+

> <PUBCHEM_IUPAC_INCHIKEY>
HYWYLCRUCWVXHU-ZZXKWVIFSA-N

> <PUBCHEM_XLOGP3_AA>
2.7

> <PUBCHEM_EXACT_MASS>
315.066221

> <PUBCHEM_MOLECULAR_FORMULA>
C17H14ClNO3

> <PUBCHEM_MOLECULAR_WEIGHT>
315.75096

> <PUBCHEM_OPENEYE_CAN_SMILES>
C1C(=CC2=C(O1)C=CC(=C2)Cl)C=CC(=O)NCC3=CC=CO3

> <PUBCHEM_OPENEYE_ISO_SMILES>
C1C(=CC2=C(O1)C=CC(=C2)Cl)/C=C/C(=O)NCC3=CC=CO3

> <PUBCHEM_CACTVS_TPSA>
51.5

> <PUBCHEM_MONOISOTOPIC_WEIGHT>
315.066221

> <PUBCHEM_TOTAL_CHARGE>
0

> <PUBCHEM_HEAVY_ATOM_COUNT>
22

> <PUBCHEM_ATOM_DEF_STEREO_COUNT>
0

> <PUBCHEM_ATOM_UDEF_STEREO_COUNT>
0

> <PUBCHEM_BOND_DEF_STEREO_COUNT>
1

> <PUBCHEM_BOND_UDEF_STEREO_COUNT>
0

> <PUBCHEM_ISOTOPIC_ATOM_COUNT>
0

> <PUBCHEM_COMPONENT_COUNT>
1

> <PUBCHEM_CACTVS_TAUTO_COUNT>
2

> <PUBCHEM_COORDINATE_TYPE>
1
5
255

> <PUBCHEM_BONDANNOTATIONS>
11  15  8
13  16  8
15  16  8
18  20  8
20  21  8
21  22  8
3  18  8
3  22  8
7  11  8
7  9  8
9  13  8

$$$$

