46174063
  -OEChem-07051213112D

 47 51  0     1  0  0  0  0  0999 V2000
    5.4820    4.0405    0.0000 O   0  0  0  0  0  0  0  0  0  0  0  0
    3.3254    3.8157    0.0000 O   0  0  0  0  0  0  0  0  0  0  0  0
    3.5568    0.6655    0.0000 O   0  0  0  0  0  0  0  0  0  0  0  0
    2.0000   -0.9488    0.0000 O   0  0  0  0  0  0  0  0  0  0  0  0
    3.8372   -4.0971    0.0000 O   0  0  0  0  0  0  0  0  0  0  0  0
    4.6501    1.5996    0.0000 C   0  0  3  0  0  0  0  0  0  0  0  0
    3.7841    2.0996    0.0000 C   0  0  1  0  0  0  0  0  0  0  0  0
    4.6501    0.5996    0.0000 C   0  0  0  0  0  0  0  0  0  0  0  0
    4.9820    3.1745    0.0000 C   0  0  3  0  0  0  0  0  0  0  0  0
    3.9933    3.0714    0.0000 C   0  0  2  0  0  0  0  0  0  0  0  0
    5.3871    2.2667    0.0000 C   0  0  0  0  0  0  0  0  0  0  0  0
    2.9180    1.5996    0.0000 C   0  0  2  0  0  0  0  0  0  0  0  0
    3.7841    0.0996    0.0000 C   0  0  1  0  0  0  0  0  0  0  0  0
    2.9180    0.5996    0.0000 C   0  0  0  0  0  0  0  0  0  0  0  0
    4.7199    2.2054    0.0000 C   0  0  0  0  0  0  0  0  0  0  0  0
    3.9219    1.5965    0.0000 C   0  0  0  0  0  0  0  0  0  0  0  0
    5.6501    0.5996    0.0000 C   0  0  0  0  0  0  0  0  0  0  0  0
    5.1501   -0.2664    0.0000 C   0  0  0  0  0  0  0  0  0  0  0  0
    3.8001   -0.9419    0.0000 C   0  0  0  0  0  0  0  0  0  0  0  0
    2.0080    0.0928    0.0000 C   0  0  0  0  0  0  0  0  0  0  0  0
    2.9021   -1.4697    0.0000 C   0  0  0  0  0  0  0  0  0  0  0  0
    4.7520   -1.4625    0.0000 C   0  0  0  0  0  0  0  0  0  0  0  0
    2.8937   -2.5546    0.0000 C   0  0  0  0  0  0  0  0  0  0  0  0
    4.7688   -2.5474    0.0000 C   0  0  0  0  0  0  0  0  0  0  0  0
    3.8334   -3.0971    0.0000 C   0  0  0  0  0  0  0  0  0  0  0  0
    5.4270    1.2549    0.0000 H   0  0  0  0  0  0  0  0  0  0  0  0
    3.0479    2.5246    0.0000 H   0  0  0  0  0  0  0  0  0  0  0  0
    4.2162    3.6500    0.0000 H   0  0  0  0  0  0  0  0  0  0  0  0
    5.7525    1.7658    0.0000 H   0  0  0  0  0  0  0  0  0  0  0  0
    5.9236    2.5775    0.0000 H   0  0  0  0  0  0  0  0  0  0  0  0
    2.1819    2.0246    0.0000 H   0  0  0  0  0  0  0  0  0  0  0  0
    4.5202   -0.3254    0.0000 H   0  0  0  0  0  0  0  0  0  0  0  0
    4.9305    1.6223    0.0000 H   0  0  0  0  0  0  0  0  0  0  0  0
    5.3394    2.2310    0.0000 H   0  0  0  0  0  0  0  0  0  0  0  0
    5.6501   -0.0204    0.0000 H   0  0  0  0  0  0  0  0  0  0  0  0
    6.2701    0.5996    0.0000 H   0  0  0  0  0  0  0  0  0  0  0  0
    5.6501    1.2196    0.0000 H   0  0  0  0  0  0  0  0  0  0  0  0
    4.6132   -0.5764    0.0000 H   0  0  0  0  0  0  0  0  0  0  0  0
    5.4601   -0.8034    0.0000 H   0  0  0  0  0  0  0  0  0  0  0  0
    5.6870    0.0436    0.0000 H   0  0  0  0  0  0  0  0  0  0  0  0
    6.1020    4.0405    0.0000 H   0  0  0  0  0  0  0  0  0  0  0  0
    3.5180    4.4050    0.0000 H   0  0  0  0  0  0  0  0  0  0  0  0
    1.4747    0.4089    0.0000 H   0  0  0  0  0  0  0  0  0  0  0  0
    5.2829   -1.1422    0.0000 H   0  0  0  0  0  0  0  0  0  0  0  0
    2.3556   -2.8626    0.0000 H   0  0  0  0  0  0  0  0  0  0  0  0
    5.3093   -2.8512    0.0000 H   0  0  0  0  0  0  0  0  0  0  0  0
    4.3753   -4.4050    0.0000 H   0  0  0  0  0  0  0  0  0  0  0  0
  1  9  1  0  0  0  0
  1 41  1  0  0  0  0
 10  2  1  1  0  0  0
  2 42  1  0  0  0  0
  3 16  2  0  0  0  0
  4 20  1  0  0  0  0
  4 21  1  0  0  0  0
  5 25  1  0  0  0  0
  5 47  1  0  0  0  0
  6  7  1  0  0  0  0
  6  8  1  0  0  0  0
  6 11  1  0  0  0  0
  6 26  1  0  0  0  0
  7 10  1  0  0  0  0
  7 12  1  0  0  0  0
  7 27  1  1  0  0  0
  8 13  1  0  0  0  0
  8 17  1  0  0  0  0
  8 18  1  0  0  0  0
  9 10  1  0  0  0  0
  9 11  1  0  0  0  0
  9 15  1  0  0  0  0
 10 28  1  0  0  0  0
 11 29  1  0  0  0  0
 11 30  1  0  0  0  0
 12 14  1  0  0  0  0
 12 16  1  0  0  0  0
 12 31  1  6  0  0  0
 13 14  1  0  0  0  0
 13 19  1  0  0  0  0
 13 32  1  1  0  0  0
 14 20  2  0  0  0  0
 15 16  1  0  0  0  0
 15 33  1  0  0  0  0
 15 34  1  0  0  0  0
 17 35  1  0  0  0  0
 17 36  1  0  0  0  0
 17 37  1  0  0  0  0
 18 38  1  0  0  0  0
 18 39  1  0  0  0  0
 18 40  1  0  0  0  0
 19 21  2  0  0  0  0
 19 22  1  0  0  0  0
 20 43  1  0  0  0  0
 21 23  1  0  0  0  0
 22 24  2  0  0  0  0
 22 44  1  0  0  0  0
 23 25  2  0  0  0  0
 23 45  1  0  0  0  0
 24 25  1  0  0  0  0
 24 46  1  0  0  0  0
M  END
> <PUBCHEM_COMPOUND_CID>
46174063

> <PUBCHEM_COMPOUND_CANONICALIZED>
1

> <PUBCHEM_CACTVS_COMPLEXITY>
655

> <PUBCHEM_CACTVS_HBOND_ACCEPTOR>
5

> <PUBCHEM_CACTVS_HBOND_DONOR>
3

> <PUBCHEM_CACTVS_ROTATABLE_BOND>
0

> <PUBCHEM_CACTVS_SUBSKEYS>
AAADceB4OAAAAAAAAAAAAAAAAAAAAYAAAAAwYMEAAAAAAGCBAAAAGgAACAAAD1SgmAIyBoAABgCIAqBSAAACCAAgIAAIiAEGCIgNNzaGMRqAcCAl4BUJuAeK7PzPoAAACAAIAADAAAYQADCAAYAADCAAAA==

> <PUBCHEM_IUPAC_INCHI>
InChI=1S/C20H22O5/c1-19(2)12-6-20(24)7-13(22)15(16(12)18(20)23)11-8-25-14-5-9(21)3-4-10(14)17(11)19/h3-5,8,12,15-18,21,23-24H,6-7H2,1-2H3/t12?,15-,16-,17-,18-,20?/m1/s1

> <PUBCHEM_IUPAC_INCHIKEY>
AZKZPXFWTQSDET-XNZFTHMMSA-N

> <PUBCHEM_XLOGP3_AA>
1

> <PUBCHEM_EXACT_MASS>
342.146724

> <PUBCHEM_MOLECULAR_FORMULA>
C20H22O5

> <PUBCHEM_MOLECULAR_WEIGHT>
342.38568

> <PUBCHEM_OPENEYE_CAN_SMILES>
CC1(C2CC3(CC(=O)C(C2C3O)C4=COC5=C(C41)C=CC(=C5)O)O)C

> <PUBCHEM_OPENEYE_ISO_SMILES>
CC1([C@@H]2C3=C(C=C(C=C3)O)OC=C2[C@H]4[C@H]5C1CC([C@@H]5O)(CC4=O)O)C

> <PUBCHEM_CACTVS_TPSA>
87

> <PUBCHEM_MONOISOTOPIC_WEIGHT>
342.146724

> <PUBCHEM_TOTAL_CHARGE>
0

> <PUBCHEM_HEAVY_ATOM_COUNT>
25

> <PUBCHEM_ATOM_DEF_STEREO_COUNT>
4

> <PUBCHEM_ATOM_UDEF_STEREO_COUNT>
2

> <PUBCHEM_BOND_DEF_STEREO_COUNT>
0

> <PUBCHEM_BOND_UDEF_STEREO_COUNT>
0

> <PUBCHEM_ISOTOPIC_ATOM_COUNT>
0

> <PUBCHEM_COMPONENT_COUNT>
1

> <PUBCHEM_CACTVS_TAUTO_COUNT>
6

> <PUBCHEM_COORDINATE_TYPE>
1
5
255

> <PUBCHEM_BONDANNOTATIONS>
9  1  3
12  31  6
13  32  5
19  21  8
19  22  8
10  2  5
21  23  8
22  24  8
23  25  8
24  25  8
6  26  3
7  27  5

$$$$

