47205592
  -OEChem-06241222592D

 32 34  0     0  0  0  0  0  0999 V2000
    8.9356   -0.1964    0.0000 S   0  0  0  0  0  0  0  0  0  0  0  0
    2.8090    0.2266    0.0000 O   0  0  0  0  0  0  0  0  0  0  0  0
    7.3479    0.7266    0.0000 O   0  0  0  0  0  0  0  0  0  0  0  0
    5.3479   -1.0054    0.0000 O   0  0  0  0  0  0  0  0  0  0  0  0
    8.9356   -1.8144    0.0000 N   0  0  0  0  0  0  0  0  0  0  0  0
    7.3479   -1.0054    0.0000 N   0  0  0  0  0  0  0  0  0  0  0  0
    5.3479    0.7266    0.0000 N   0  0  0  0  0  0  0  0  0  0  0  0
    3.7601   -0.0824    0.0000 N   0  0  0  0  0  0  0  0  0  0  0  0
   11.4165   -1.0054    0.0000 C   0  0  0  0  0  0  0  0  0  0  0  0
   10.8329   -0.2007    0.0000 C   0  0  0  0  0  0  0  0  0  0  0  0
   10.8329   -1.8101    0.0000 C   0  0  0  0  0  0  0  0  0  0  0  0
    9.8867   -0.5054    0.0000 C   0  0  0  0  0  0  0  0  0  0  0  0
    9.8867   -1.5054    0.0000 C   0  0  0  0  0  0  0  0  0  0  0  0
    8.3479   -1.0054    0.0000 C   0  0  0  0  0  0  0  0  0  0  0  0
    6.8479   -0.1394    0.0000 C   0  0  0  0  0  0  0  0  0  0  0  0
    5.8479   -0.1394    0.0000 C   0  0  0  0  0  0  0  0  0  0  0  0
    4.3479    0.7266    0.0000 C   0  0  0  0  0  0  0  0  0  0  0  0
    3.7601    1.5357    0.0000 C   0  0  0  0  0  0  0  0  0  0  0  0
    2.8090    1.2266    0.0000 C   0  0  0  0  0  0  0  0  0  0  0  0
    2.0000    1.8144    0.0000 C   0  0  0  0  0  0  0  0  0  0  0  0
   11.8774   -1.4201    0.0000 H   0  0  0  0  0  0  0  0  0  0  0  0
   11.8774   -0.5907    0.0000 H   0  0  0  0  0  0  0  0  0  0  0  0
   11.3703    0.1085    0.0000 H   0  0  0  0  0  0  0  0  0  0  0  0
   10.5819    0.3662    0.0000 H   0  0  0  0  0  0  0  0  0  0  0  0
   10.5819   -2.3770    0.0000 H   0  0  0  0  0  0  0  0  0  0  0  0
   11.3703   -2.1194    0.0000 H   0  0  0  0  0  0  0  0  0  0  0  0
    7.0379   -1.5424    0.0000 H   0  0  0  0  0  0  0  0  0  0  0  0
    5.6579    1.2636    0.0000 H   0  0  0  0  0  0  0  0  0  0  0  0
    3.9517    2.1253    0.0000 H   0  0  0  0  0  0  0  0  0  0  0  0
    2.3644    2.3160    0.0000 H   0  0  0  0  0  0  0  0  0  0  0  0
    1.4984    2.1788    0.0000 H   0  0  0  0  0  0  0  0  0  0  0  0
    1.6356    1.3128    0.0000 H   0  0  0  0  0  0  0  0  0  0  0  0
  1 12  1  0  0  0  0
  1 14  1  0  0  0  0
  2  8  1  0  0  0  0
  2 19  1  0  0  0  0
  3 15  2  0  0  0  0
  4 16  2  0  0  0  0
  5 13  1  0  0  0  0
  5 14  2  0  0  0  0
  6 14  1  0  0  0  0
  6 15  1  0  0  0  0
  6 27  1  0  0  0  0
  7 16  1  0  0  0  0
  7 17  1  0  0  0  0
  7 28  1  0  0  0  0
  8 17  2  0  0  0  0
  9 10  1  0  0  0  0
  9 11  1  0  0  0  0
  9 21  1  0  0  0  0
  9 22  1  0  0  0  0
 10 12  1  0  0  0  0
 10 23  1  0  0  0  0
 10 24  1  0  0  0  0
 11 13  1  0  0  0  0
 11 25  1  0  0  0  0
 11 26  1  0  0  0  0
 12 13  2  0  0  0  0
 15 16  1  0  0  0  0
 17 18  1  0  0  0  0
 18 19  2  0  0  0  0
 18 29  1  0  0  0  0
 19 20  1  0  0  0  0
 20 30  1  0  0  0  0
 20 31  1  0  0  0  0
 20 32  1  0  0  0  0
M  END
> <PUBCHEM_COMPOUND_CID>
47205592

> <PUBCHEM_COMPOUND_CANONICALIZED>
1

> <PUBCHEM_CACTVS_COMPLEXITY>
408

> <PUBCHEM_CACTVS_HBOND_ACCEPTOR>
6

> <PUBCHEM_CACTVS_HBOND_DONOR>
2

> <PUBCHEM_CACTVS_ROTATABLE_BOND>
2

> <PUBCHEM_CACTVS_SUBSKEYS>
AAADccBzsABAAAAAAAAAAAAAAAAAAeLEAAAAAAAAAAAWAAAB4AAAHgQUAAAACAyB1gAztZLYEAitAadydgCA8KllKjkhGDW2bFqAZApgmaCUAIhqlQrISGIQAAAAAAAAAAAAAAAAAAAAAAAAAAAAAACAAA==

> <PUBCHEM_IUPAC_OPENEYE_NAME>
N'-(5,6-dihydro-4H-cyclopenta[d]thiazol-2-yl)-N-(5-methylisoxazol-3-yl)oxamide

> <PUBCHEM_IUPAC_CAS_NAME>
N'-(5,6-dihydro-4H-cyclopenta[d]thiazol-2-yl)-N-(5-methyl-3-isoxazolyl)oxamide

> <PUBCHEM_IUPAC_NAME>
N'-(5,6-dihydro-4H-cyclopenta[d][1,3]thiazol-2-yl)-N-(5-methyl-1,2-oxazol-3-yl)oxamide

> <PUBCHEM_IUPAC_SYSTEMATIC_NAME>
N'-(5,6-dihydro-4H-cyclopenta[d][1,3]thiazol-2-yl)-N-(5-methyl-1,2-oxazol-3-yl)ethanediamide

> <PUBCHEM_IUPAC_TRADITIONAL_NAME>
N'-(5,6-dihydro-4H-cyclopenta[d]thiazol-2-yl)-N-(5-methylisoxazol-3-yl)oxamide

> <PUBCHEM_IUPAC_INCHI>
InChI=1S/C12H12N4O3S/c1-6-5-9(16-19-6)14-10(17)11(18)15-12-13-7-3-2-4-8(7)20-12/h5H,2-4H2,1H3,(H,13,15,18)(H,14,16,17)

> <PUBCHEM_IUPAC_INCHIKEY>
ILWDQTKVGPPGMZ-UHFFFAOYSA-N

> <PUBCHEM_XLOGP3_AA>
1.6

> <PUBCHEM_EXACT_MASS>
292.063011

> <PUBCHEM_MOLECULAR_FORMULA>
C12H12N4O3S

> <PUBCHEM_MOLECULAR_WEIGHT>
292.31368

> <PUBCHEM_OPENEYE_CAN_SMILES>
CC1=CC(=NO1)NC(=O)C(=O)NC2=NC3=C(S2)CCC3

> <PUBCHEM_OPENEYE_ISO_SMILES>
CC1=CC(=NO1)NC(=O)C(=O)NC2=NC3=C(S2)CCC3

> <PUBCHEM_CACTVS_TPSA>
125

> <PUBCHEM_MONOISOTOPIC_WEIGHT>
292.063011

> <PUBCHEM_TOTAL_CHARGE>
0

> <PUBCHEM_HEAVY_ATOM_COUNT>
20

> <PUBCHEM_ATOM_DEF_STEREO_COUNT>
0

> <PUBCHEM_ATOM_UDEF_STEREO_COUNT>
0

> <PUBCHEM_BOND_DEF_STEREO_COUNT>
0

> <PUBCHEM_BOND_UDEF_STEREO_COUNT>
0

> <PUBCHEM_ISOTOPIC_ATOM_COUNT>
0

> <PUBCHEM_COMPONENT_COUNT>
1

> <PUBCHEM_CACTVS_TAUTO_COUNT>
24

> <PUBCHEM_COORDINATE_TYPE>
1
5
255

> <PUBCHEM_BONDANNOTATIONS>
1  12  8
1  14  8
12  13  8
17  18  8
18  19  8
2  19  8
2  8  8
5  13  8
5  14  8
8  17  8

$$$$

