   Color/Form

     * Greenish-yellow crystals or yellow, oily liquid
     * Colorless to yellow, oily liquid (Note: A solid below 42 degrees
       F).
     * Bright-yellow crystals or pale-yellow to colorless, oily liquid

   from [1]HSDB

   Odor

     * Odor of volatile oil almond
     * Pungent odor like paste shoe polish

   from [2]HSDB

   Taste
        Aqueous solutions are sweet tasting
   from [3]HSDB

   Boiling Point
        210.8 deg C
   from [4]HSDB

   Melting Point
        5.7 deg C
   from [5]HSDB

   Critical Temperature and Pressure
        CRITICAL TEMP: 836 DEG F= 447 DEG C= 720 DEG K; CRITICAL PRESSURE:
   700 PSIA= 47.62 ATM= 4.824 MN/M SQ
   from [6]HSDB

   Density/Specific Gravity
        1.2037 g/cu cm at 20 deg C
   from [7]HSDB

   Dissociation Constants
        pKa = 3.98 at 0 deg C
   from [8]HSDB

   Heat of Combustion
        -10,420 BTU/LB= -5,791 CAL/G= -242.5X10+5 J/KG
   from [9]HSDB

   Heat of Vaporization
        55.01 kJ/mol at 25 deg C
   from [10]HSDB

   Octanol/Water Partition Coefficient
        log Kow = 1.85
   from [11]HSDB

   Solubilities

     * Slightly soluble in carbon tetrachloride; very soluble in ethanol,
       diethyl ether, acetone, benzene
     * Soluble in ~500 parts water; freely soluble in alcohol, benzene,
       ether, oils
     * Readily soluble in most organic solvents and is completely miscible
       with diethyl ether, benzene, and alcohol.
     * Slightly soluble in water with a solublity of 0.19% at 20 deg C and
       0.8% at 80 deg C
     * In water, 2.09X10+3 mg/L at 25 deg C

   from [12]HSDB

   Spectral Properties

     * Index of refraction: 1.5562 at 20 deg C
     * MAX ABSORPTION (ALCOHOL): 260 NM (LOG E= 3.91); SADTLER REFERENCE
       NUMBER: 12 (IR, PRISM); 10 (IR, GRATING)
     * IR: 6179 (Coblentz Society Spectral Collection)
     * UV: 8 (Sadtler Research Laboratories Spectral Collection)
     * 1H NMR: 4 (Sadtler Research Laboratories Spectral Collection)
     * MASS: 49303 (NIST/EPA/MSDC Mass Spectral Database 1990 version)

   from [13]HSDB

   Surface Tension
        46.34 mN/m at 20 deg C
   from [14]HSDB

   Vapor Density
        4.25 (Air = 1)
   from [15]HSDB

   Vapor Pressure
        0.245 mm Hg at 25 deg C (est)
   from [16]HSDB

   Viscosity
        1.863 mPa-s at 25 deg C
   from [17]HSDB

   Other Chemical/Physical Properties

     * Surface tension: 40.56 mN/m at 50 deg C
     * Heat of formation: 12.5 kJ/mol; molar heat capacity: 185.8 J/mol-K
       at constant pressure at 298.15 K /Liquid/
     * Heat of formation: 68.5 kJ/mol; standard molar entropy: 348.8
       J/mol-K at 298.15 K; molar heat capacity: 120.4 J/mol-K at constant
       pressure at 298.15 K /Gas/
     * Heat of fusion: 12.12 kJ/mol
     * Thermal conductivity: 0.149 W/m-K at 25 deg C
     * Ionization potential: 9.86 eV /Gas/
     * Vapor phase irradiation products of nitrobenzene are nitrosobenzene
       and 4-nitrophenol.
     * Density: 1.199 g/cu cm at 25 deg C/4 deg C; Specific heat: 1.509
       J/g at 30 deg C
     * Vapor pressure: 1 mm Hg at 44.4 deg C
     * Oxidant. Incompatible with potassium hydroxide. When heated to
       decomposition it emits toxic fumes of nitrogen oxides.
     * Henry's Law constant = 2.40X10-5 atm-cu m/mol at 25 deg C
     * Hydroxyl radical reaction rate constant = 1.40X10-13 cu
       cm/molec-sec at 25 deg C

   from [18]HSDB

   Computed Properties
   Molecular Weight                  123.1094 [g/mol]
   Molecular Formula                 C[6]H[5]NO[2]
   XLogP3                            1.9
   H-Bond Donor                      0
   H-Bond Acceptor                   2
   Rotatable Bond Count              0
   Exact Mass                        123.032028
   MonoIsotopic Mass                 123.032028
   Topological Polar Surface Area    45.8
   Heavy Atom Count                  9
   Formal Charge                     0
   Complexity                        102
   Isotope Atom Count                0
   Defined Atom Stereocenter Count   0
   Undefined Atom Stereocenter Count 0
   Defined Bond Stereocenter Count   0
   Undefined Bond Stereocenter Count 0
   Covalently-Bonded Unit Count      1
   Feature 3D Acceptor Count         2
   Feature 3D Anion Count            1
   Feature 3D Ring Count             1
   Effective Rotor Count             1
   Conformer Sampling RMSD           0.4
   CID Conformer Count               [19]1

References

   1. http://toxnet.nlm.nih.gov/cgi-bin/sis/search/r?dbs+hsdb:@term+@rn+@rel+98-95-3
   2. http://toxnet.nlm.nih.gov/cgi-bin/sis/search/r?dbs+hsdb:@term+@rn+@rel+98-95-3
   3. http://toxnet.nlm.nih.gov/cgi-bin/sis/search/r?dbs+hsdb:@term+@rn+@rel+98-95-3
   4. http://toxnet.nlm.nih.gov/cgi-bin/sis/search/r?dbs+hsdb:@term+@rn+@rel+98-95-3
   5. http://toxnet.nlm.nih.gov/cgi-bin/sis/search/r?dbs+hsdb:@term+@rn+@rel+98-95-3
   6. http://toxnet.nlm.nih.gov/cgi-bin/sis/search/r?dbs+hsdb:@term+@rn+@rel+98-95-3
   7. http://toxnet.nlm.nih.gov/cgi-bin/sis/search/r?dbs+hsdb:@term+@rn+@rel+98-95-3
   8. http://toxnet.nlm.nih.gov/cgi-bin/sis/search/r?dbs+hsdb:@term+@rn+@rel+98-95-3
   9. http://toxnet.nlm.nih.gov/cgi-bin/sis/search/r?dbs+hsdb:@term+@rn+@rel+98-95-3
  10. http://toxnet.nlm.nih.gov/cgi-bin/sis/search/r?dbs+hsdb:@term+@rn+@rel+98-95-3
  11. http://toxnet.nlm.nih.gov/cgi-bin/sis/search/r?dbs+hsdb:@term+@rn+@rel+98-95-3
  12. http://toxnet.nlm.nih.gov/cgi-bin/sis/search/r?dbs+hsdb:@term+@rn+@rel+98-95-3
  13. http://toxnet.nlm.nih.gov/cgi-bin/sis/search/r?dbs+hsdb:@term+@rn+@rel+98-95-3
  14. http://toxnet.nlm.nih.gov/cgi-bin/sis/search/r?dbs+hsdb:@term+@rn+@rel+98-95-3
  15. http://toxnet.nlm.nih.gov/cgi-bin/sis/search/r?dbs+hsdb:@term+@rn+@rel+98-95-3
  16. http://toxnet.nlm.nih.gov/cgi-bin/sis/search/r?dbs+hsdb:@term+@rn+@rel+98-95-3
  17. http://toxnet.nlm.nih.gov/cgi-bin/sis/search/r?dbs+hsdb:@term+@rn+@rel+98-95-3
  18. http://toxnet.nlm.nih.gov/cgi-bin/sis/search/r?dbs+hsdb:@term+@rn+@rel+98-95-3
  19. http://pubchem.ncbi.nlm.nih.gov/vw3d/vw3d.cgi?cid=7416
