4349
  -OEChem-06261200032D

 67 69  0     1  0  0  0  0  0999 V2000
   11.6108    0.3569    0.0000 O   0  0  0  0  0  0  0  0  0  0  0  0
    8.7768    1.1575    0.0000 O   0  0  0  0  0  0  0  0  0  0  0  0
   11.6108   -0.6431    0.0000 O   0  0  0  0  0  0  0  0  0  0  0  0
    5.5963    2.8559    0.0000 O   0  0  0  0  0  0  0  0  0  0  0  0
    6.7553    4.1431    0.0000 O   0  0  0  0  0  0  0  0  0  0  0  0
    9.9358    2.4447    0.0000 N   0  0  0  0  0  0  0  0  0  0  0  0
    9.8788    0.3569    0.0000 N   0  0  0  0  0  0  0  0  0  0  0  0
    7.2905    2.4958    0.0000 N   0  0  0  0  0  0  0  0  0  0  0  0
   10.7448    1.8569    0.0000 C   0  0  3  0  0  0  0  0  0  0  0  0
   11.5538    2.4447    0.0000 C   0  0  0  0  0  0  0  0  0  0  0  0
   11.2448    3.3958    0.0000 C   0  0  0  0  0  0  0  0  0  0  0  0
   10.2448    3.3958    0.0000 C   0  0  0  0  0  0  0  0  0  0  0  0
   10.7448    0.8569    0.0000 C   0  0  0  0  0  0  0  0  0  0  0  0
    8.9847    2.1357    0.0000 C   0  0  0  0  0  0  0  0  0  0  0  0
    9.8788   -0.6431    0.0000 C   0  0  3  0  0  0  0  0  0  0  0  0
    8.2416    2.8048    0.0000 C   0  0  3  0  0  0  0  0  0  0  0  0
   10.7448   -1.1431    0.0000 C   0  0  3  0  0  0  0  0  0  0  0  0
    9.0127   -1.1431    0.0000 C   0  0  0  0  0  0  0  0  0  0  0  0
    8.4495    3.7830    0.0000 C   0  0  0  0  0  0  0  0  0  0  0  0
    9.0127   -2.1431    0.0000 C   0  0  0  0  0  0  0  0  0  0  0  0
   10.7448   -2.1431    0.0000 C   0  0  0  0  0  0  0  0  0  0  0  0
    8.1467   -2.6431    0.0000 C   0  0  0  0  0  0  0  0  0  0  0  0
    9.8788   -2.6431    0.0000 C   0  0  0  0  0  0  0  0  0  0  0  0
    6.5474    3.1649    0.0000 C   0  0  0  0  0  0  0  0  0  0  0  0
    8.1467   -3.6431    0.0000 C   0  0  0  0  0  0  0  0  0  0  0  0
    9.8788   -3.6431    0.0000 C   0  0  0  0  0  0  0  0  0  0  0  0
    9.0127   -4.1431    0.0000 C   0  0  0  0  0  0  0  0  0  0  0  0
    4.8532    3.5250    0.0000 C   0  0  0  0  0  0  0  0  0  0  0  0
    3.9021    3.2160    0.0000 C   0  0  0  0  0  0  0  0  0  0  0  0
    3.6942    2.2379    0.0000 C   0  0  0  0  0  0  0  0  0  0  0  0
    3.1590    3.8852    0.0000 C   0  0  0  0  0  0  0  0  0  0  0  0
    2.7431    1.9289    0.0000 C   0  0  0  0  0  0  0  0  0  0  0  0
    2.2079    3.5761    0.0000 C   0  0  0  0  0  0  0  0  0  0  0  0
    2.0000    2.5980    0.0000 C   0  0  0  0  0  0  0  0  0  0  0  0
   10.1924    1.5754    0.0000 H   0  0  0  0  0  0  0  0  0  0  0  0
   11.8638    1.9078    0.0000 H   0  0  0  0  0  0  0  0  0  0  0  0
   12.1202    2.6969    0.0000 H   0  0  0  0  0  0  0  0  0  0  0  0
   11.8512    3.5247    0.0000 H   0  0  0  0  0  0  0  0  0  0  0  0
   11.1800    4.0124    0.0000 H   0  0  0  0  0  0  0  0  0  0  0  0
   10.3096    4.0124    0.0000 H   0  0  0  0  0  0  0  0  0  0  0  0
    9.6383    3.5247    0.0000 H   0  0  0  0  0  0  0  0  0  0  0  0
    9.3418   -0.3331    0.0000 H   0  0  0  0  0  0  0  0  0  0  0  0
    9.3418    0.6669    0.0000 H   0  0  0  0  0  0  0  0  0  0  0  0
    8.1127    2.1984    0.0000 H   0  0  0  0  0  0  0  0  0  0  0  0
   11.2817   -1.4531    0.0000 H   0  0  0  0  0  0  0  0  0  0  0  0
    8.8007   -0.5605    0.0000 H   0  0  0  0  0  0  0  0  0  0  0  0
    8.4022   -1.2507    0.0000 H   0  0  0  0  0  0  0  0  0  0  0  0
    9.0559    3.6541    0.0000 H   0  0  0  0  0  0  0  0  0  0  0  0
    8.5784    4.3894    0.0000 H   0  0  0  0  0  0  0  0  0  0  0  0
    7.8430    3.9119    0.0000 H   0  0  0  0  0  0  0  0  0  0  0  0
   10.1248   -2.1431    0.0000 H   0  0  0  0  0  0  0  0  0  0  0  0
   10.7448   -2.7631    0.0000 H   0  0  0  0  0  0  0  0  0  0  0  0
   11.3648   -2.1431    0.0000 H   0  0  0  0  0  0  0  0  0  0  0  0
    7.1616    1.8894    0.0000 H   0  0  0  0  0  0  0  0  0  0  0  0
   12.1478   -0.9531    0.0000 H   0  0  0  0  0  0  0  0  0  0  0  0
    7.6098   -2.3331    0.0000 H   0  0  0  0  0  0  0  0  0  0  0  0
   10.4157   -2.3331    0.0000 H   0  0  0  0  0  0  0  0  0  0  0  0
    7.6098   -3.9531    0.0000 H   0  0  0  0  0  0  0  0  0  0  0  0
   10.4157   -3.9531    0.0000 H   0  0  0  0  0  0  0  0  0  0  0  0
    9.0127   -4.7631    0.0000 H   0  0  0  0  0  0  0  0  0  0  0  0
    5.3417    3.9068    0.0000 H   0  0  0  0  0  0  0  0  0  0  0  0
    4.5621    4.0725    0.0000 H   0  0  0  0  0  0  0  0  0  0  0  0
    4.1550    1.8230    0.0000 H   0  0  0  0  0  0  0  0  0  0  0  0
    3.2879    4.4916    0.0000 H   0  0  0  0  0  0  0  0  0  0  0  0
    2.6142    1.3224    0.0000 H   0  0  0  0  0  0  0  0  0  0  0  0
    1.7472    3.9910    0.0000 H   0  0  0  0  0  0  0  0  0  0  0  0
    1.4103    2.4064    0.0000 H   0  0  0  0  0  0  0  0  0  0  0  0
  1 13  2  0  0  0  0
  2 14  2  0  0  0  0
  3 17  1  0  0  0  0
  3 55  1  0  0  0  0
  4 24  1  0  0  0  0
  4 28  1  0  0  0  0
  5 24  2  0  0  0  0
  6  9  1  0  0  0  0
  6 12  1  0  0  0  0
  6 14  1  0  0  0  0
  7 13  1  0  0  0  0
  7 15  1  0  0  0  0
  7 43  1  0  0  0  0
  8 16  1  0  0  0  0
  8 24  1  0  0  0  0
  8 54  1  0  0  0  0
  9 10  1  0  0  0  0
  9 13  1  0  0  0  0
  9 35  1  0  0  0  0
 10 11  1  0  0  0  0
 10 36  1  0  0  0  0
 10 37  1  0  0  0  0
 11 12  1  0  0  0  0
 11 38  1  0  0  0  0
 11 39  1  0  0  0  0
 12 40  1  0  0  0  0
 12 41  1  0  0  0  0
 14 16  1  0  0  0  0
 15 17  1  0  0  0  0
 15 18  1  0  0  0  0
 15 42  1  0  0  0  0
 16 19  1  0  0  0  0
 16 44  1  0  0  0  0
 17 21  1  0  0  0  0
 17 45  1  0  0  0  0
 18 20  1  0  0  0  0
 18 46  1  0  0  0  0
 18 47  1  0  0  0  0
 19 48  1  0  0  0  0
 19 49  1  0  0  0  0
 19 50  1  0  0  0  0
 20 22  2  0  0  0  0
 20 23  1  0  0  0  0
 21 51  1  0  0  0  0
 21 52  1  0  0  0  0
 21 53  1  0  0  0  0
 22 25  1  0  0  0  0
 22 56  1  0  0  0  0
 23 26  2  0  0  0  0
 23 57  1  0  0  0  0
 25 27  2  0  0  0  0
 25 58  1  0  0  0  0
 26 27  1  0  0  0  0
 26 59  1  0  0  0  0
 27 60  1  0  0  0  0
 28 29  1  0  0  0  0
 28 61  1  0  0  0  0
 28 62  1  0  0  0  0
 29 30  2  0  0  0  0
 29 31  1  0  0  0  0
 30 32  1  0  0  0  0
 30 63  1  0  0  0  0
 31 33  2  0  0  0  0
 31 64  1  0  0  0  0
 32 34  2  0  0  0  0
 32 65  1  0  0  0  0
 33 34  1  0  0  0  0
 33 66  1  0  0  0  0
 34 67  1  0  0  0  0
M  END
> <PUBCHEM_COMPOUND_CID>
4349

> <PUBCHEM_COMPOUND_CANONICALIZED>
1

> <PUBCHEM_CACTVS_COMPLEXITY>
675

> <PUBCHEM_CACTVS_HBOND_ACCEPTOR>
5

> <PUBCHEM_CACTVS_HBOND_DONOR>
3

> <PUBCHEM_CACTVS_ROTATABLE_BOND>
10

> <PUBCHEM_CACTVS_SUBSKEYS>
AAADcfB7OAAAAAAAAAAAAAAAAAAAAWAAAAAwYAAAAAAAAAABQAAAHgAQCAAADDzhmAYyCIPABgCIAiFSGAACAAAgAAAIiIGICIkKdjKAsTmccAAk1gGYqAeYwaAOAAAAAAAAAAAAAAAAAAAAAAAAAAAAAA==

> <PUBCHEM_IUPAC_OPENEYE_NAME>
benzyl N-[2-[2-[(1-benzyl-2-hydroxy-propyl)carbamoyl]pyrrolidin-1-yl]-1-methyl-2-oxo-ethyl]carbamate

> <PUBCHEM_IUPAC_CAS_NAME>
N-[1-[2-[[(3-hydroxy-1-phenylbutan-2-yl)amino]-oxomethyl]-1-pyrrolidinyl]-1-oxopropan-2-yl]carbamic acid (phenylmethyl) ester

> <PUBCHEM_IUPAC_NAME>
benzyl N-[1-[2-[(3-hydroxy-1-phenylbutan-2-yl)carbamoyl]pyrrolidin-1-yl]-1-oxopropan-2-yl]carbamate

> <PUBCHEM_IUPAC_SYSTEMATIC_NAME>
(phenylmethyl) N-[1-oxidanylidene-1-[2-[(3-oxidanyl-1-phenyl-butan-2-yl)carbamoyl]pyrrolidin-1-yl]propan-2-yl]carbamate

> <PUBCHEM_IUPAC_TRADITIONAL_NAME>
N-[2-[2-[(1-benzyl-2-hydroxy-propyl)carbamoyl]pyrrolidino]-2-keto-1-methyl-ethyl]carbamic acid benzyl ester

> <PUBCHEM_IUPAC_INCHI>
InChI=1S/C26H33N3O5/c1-18(27-26(33)34-17-21-12-7-4-8-13-21)25(32)29-15-9-14-23(29)24(31)28-22(19(2)30)16-20-10-5-3-6-11-20/h3-8,10-13,18-19,22-23,30H,9,14-17H2,1-2H3,(H,27,33)(H,28,31)

> <PUBCHEM_IUPAC_INCHIKEY>
MACLRJNEKXUAJK-UHFFFAOYSA-N

> <PUBCHEM_XLOGP3_AA>
3

> <PUBCHEM_EXACT_MASS>
467.242021

> <PUBCHEM_MOLECULAR_FORMULA>
C26H33N3O5

> <PUBCHEM_MOLECULAR_WEIGHT>
467.55732

> <PUBCHEM_OPENEYE_CAN_SMILES>
CC(C(CC1=CC=CC=C1)NC(=O)C2CCCN2C(=O)C(C)NC(=O)OCC3=CC=CC=C3)O

> <PUBCHEM_OPENEYE_ISO_SMILES>
CC(C(CC1=CC=CC=C1)NC(=O)C2CCCN2C(=O)C(C)NC(=O)OCC3=CC=CC=C3)O

> <PUBCHEM_CACTVS_TPSA>
108

> <PUBCHEM_MONOISOTOPIC_WEIGHT>
467.242021

> <PUBCHEM_TOTAL_CHARGE>
0

> <PUBCHEM_HEAVY_ATOM_COUNT>
34

> <PUBCHEM_ATOM_DEF_STEREO_COUNT>
0

> <PUBCHEM_ATOM_UDEF_STEREO_COUNT>
4

> <PUBCHEM_BOND_DEF_STEREO_COUNT>
0

> <PUBCHEM_BOND_UDEF_STEREO_COUNT>
0

> <PUBCHEM_ISOTOPIC_ATOM_COUNT>
0

> <PUBCHEM_COMPONENT_COUNT>
1

> <PUBCHEM_CACTVS_TAUTO_COUNT>
4

> <PUBCHEM_COORDINATE_TYPE>
1
5
255

> <PUBCHEM_BONDANNOTATIONS>
15  18  3
16  19  3
20  22  8
20  23  8
22  25  8
23  26  8
25  27  8
26  27  8
29  30  8
29  31  8
17  3  3
30  32  8
31  33  8
32  34  8
33  34  8
9  13  3

$$$$

