227847
  -OEChem-07051213072D

 53 56  0     1  0  0  0  0  0999 V2000
    3.9271    1.3575    0.0000 O   0  0  0  0  0  0  0  0  0  0  0  0
    7.7820    2.1128    0.0000 O   0  0  0  0  0  0  0  0  0  0  0  0
    4.7931   -0.1425    0.0000 C   0  0  1  0  0  0  0  0  0  0  0  0
    5.6591   -0.6425    0.0000 C   0  0  2  0  0  0  0  0  0  0  0  0
    6.5251   -0.1425    0.0000 C   0  0  1  0  0  0  0  0  0  0  0  0
    3.8831   -0.6493    0.0000 C   0  0  2  0  0  0  0  0  0  0  0  0
    6.5251    0.8575    0.0000 C   0  0  2  0  0  0  0  0  0  0  0  0
    3.8751   -1.6909    0.0000 C   0  0  1  0  0  0  0  0  0  0  0  0
    4.7931    0.8575    0.0000 C   0  0  2  0  0  0  0  0  0  0  0  0
    5.6591    1.3575    0.0000 C   0  0  0  0  0  0  0  0  0  0  0  0
    5.6752   -1.6840    0.0000 C   0  0  0  0  0  0  0  0  0  0  0  0
    7.4714   -0.4472    0.0000 C   0  0  0  0  0  0  0  0  0  0  0  0
    7.4714    1.1623    0.0000 C   0  0  2  0  0  0  0  0  0  0  0  0
    4.7771   -2.2117    0.0000 C   0  0  0  0  0  0  0  0  0  0  0  0
    2.9562   -0.0852    0.0000 C   0  0  0  0  0  0  0  0  0  0  0  0
    8.0550    0.3575    0.0000 C   0  0  0  0  0  0  0  0  0  0  0  0
    2.9396   -2.2406    0.0000 C   0  0  0  0  0  0  0  0  0  0  0  0
    3.8908    0.3507    0.0000 C   0  0  0  0  0  0  0  0  0  0  0  0
    6.5251    1.8575    0.0000 C   0  0  0  0  0  0  0  0  0  0  0  0
    2.0084   -0.6132    0.0000 C   0  0  0  0  0  0  0  0  0  0  0  0
    2.0000   -1.6981    0.0000 C   0  0  0  0  0  0  0  0  0  0  0  0
    5.5292    0.2825    0.0000 H   0  0  0  0  0  0  0  0  0  0  0  0
    6.3985   -1.0618    0.0000 H   0  0  0  0  0  0  0  0  0  0  0  0
    6.6151   -0.9877    0.0000 H   0  0  0  0  0  0  0  0  0  0  0  0
    3.8783   -2.5409    0.0000 H   0  0  0  0  0  0  0  0  0  0  0  0
    4.2562    0.5475    0.0000 H   0  0  0  0  0  0  0  0  0  0  0  0
    6.0576    1.8325    0.0000 H   0  0  0  0  0  0  0  0  0  0  0  0
    5.2606    1.8325    0.0000 H   0  0  0  0  0  0  0  0  0  0  0  0
    5.8932   -2.2644    0.0000 H   0  0  0  0  0  0  0  0  0  0  0  0
    6.2843   -1.5685    0.0000 H   0  0  0  0  0  0  0  0  0  0  0  0
    7.2203   -1.0141    0.0000 H   0  0  0  0  0  0  0  0  0  0  0  0
    8.0087   -0.7564    0.0000 H   0  0  0  0  0  0  0  0  0  0  0  0
    8.0838    1.2585    0.0000 H   0  0  0  0  0  0  0  0  0  0  0  0
    4.3798   -2.6877    0.0000 H   0  0  0  0  0  0  0  0  0  0  0  0
    5.1781   -2.6846    0.0000 H   0  0  0  0  0  0  0  0  0  0  0  0
    3.3645    0.3814    0.0000 H   0  0  0  0  0  0  0  0  0  0  0  0
    2.5663    0.3968    0.0000 H   0  0  0  0  0  0  0  0  0  0  0  0
    8.5158   -0.0572    0.0000 H   0  0  0  0  0  0  0  0  0  0  0  0
    8.5158    0.7723    0.0000 H   0  0  0  0  0  0  0  0  0  0  0  0
    2.5423   -2.7166    0.0000 H   0  0  0  0  0  0  0  0  0  0  0  0
    3.3406   -2.7135    0.0000 H   0  0  0  0  0  0  0  0  0  0  0  0
    4.5108    0.3459    0.0000 H   0  0  0  0  0  0  0  0  0  0  0  0
    3.8956    0.9706    0.0000 H   0  0  0  0  0  0  0  0  0  0  0  0
    3.2708    0.3554    0.0000 H   0  0  0  0  0  0  0  0  0  0  0  0
    7.1451    1.8575    0.0000 H   0  0  0  0  0  0  0  0  0  0  0  0
    6.5251    2.4775    0.0000 H   0  0  0  0  0  0  0  0  0  0  0  0
    5.9051    1.8575    0.0000 H   0  0  0  0  0  0  0  0  0  0  0  0
    1.8038   -0.0279    0.0000 H   0  0  0  0  0  0  0  0  0  0  0  0
    1.3967   -0.7146    0.0000 H   0  0  0  0  0  0  0  0  0  0  0  0
    1.3900   -1.5873    0.0000 H   0  0  0  0  0  0  0  0  0  0  0  0
    1.7864   -2.2802    0.0000 H   0  0  0  0  0  0  0  0  0  0  0  0
    3.9271    1.9775    0.0000 H   0  0  0  0  0  0  0  0  0  0  0  0
    8.3887    2.2406    0.0000 H   0  0  0  0  0  0  0  0  0  0  0  0
  9  1  1  1  0  0  0
  1 52  1  0  0  0  0
 13  2  1  1  0  0  0
  2 53  1  0  0  0  0
  3  4  1  0  0  0  0
  3  6  1  0  0  0  0
  3  9  1  0  0  0  0
  3 22  1  6  0  0  0
  4  5  1  0  0  0  0
  4 11  1  0  0  0  0
  4 23  1  1  0  0  0
  5  7  1  0  0  0  0
  5 12  1  0  0  0  0
  5 24  1  6  0  0  0
  6  8  1  0  0  0  0
  6 15  1  0  0  0  0
  6 18  1  1  0  0  0
  7 10  1  0  0  0  0
  7 13  1  0  0  0  0
  7 19  1  1  0  0  0
  8 14  1  0  0  0  0
  8 17  1  0  0  0  0
  8 25  1  6  0  0  0
  9 10  1  0  0  0  0
  9 26  1  0  0  0  0
 10 27  1  0  0  0  0
 10 28  1  0  0  0  0
 11 14  1  0  0  0  0
 11 29  1  0  0  0  0
 11 30  1  0  0  0  0
 12 16  1  0  0  0  0
 12 31  1  0  0  0  0
 12 32  1  0  0  0  0
 13 16  1  0  0  0  0
 13 33  1  0  0  0  0
 14 34  1  0  0  0  0
 14 35  1  0  0  0  0
 15 20  1  0  0  0  0
 15 36  1  0  0  0  0
 15 37  1  0  0  0  0
 16 38  1  0  0  0  0
 16 39  1  0  0  0  0
 17 21  1  0  0  0  0
 17 40  1  0  0  0  0
 17 41  1  0  0  0  0
 18 42  1  0  0  0  0
 18 43  1  0  0  0  0
 18 44  1  0  0  0  0
 19 45  1  0  0  0  0
 19 46  1  0  0  0  0
 19 47  1  0  0  0  0
 20 21  1  0  0  0  0
 20 48  1  0  0  0  0
 20 49  1  0  0  0  0
 21 50  1  0  0  0  0
 21 51  1  0  0  0  0
M  END
> <PUBCHEM_COMPOUND_CID>
227847

> <PUBCHEM_COMPOUND_CANONICALIZED>
1

> <PUBCHEM_CACTVS_COMPLEXITY>
422

> <PUBCHEM_CACTVS_HBOND_ACCEPTOR>
2

> <PUBCHEM_CACTVS_HBOND_DONOR>
2

> <PUBCHEM_CACTVS_ROTATABLE_BOND>
0

> <PUBCHEM_CACTVS_SUBSKEYS>
AAADcfB4MAAAAAAAAAAAAAAAAAAAAYAAAAAwYMAAAAAAAGDAAAAAGgAACAAADxSggAICAAAAAgAAAAAAAAAAAAAAAAAAAAAAAAAAEAIAAAAAQAAEAAAAAAHAwPAPgAAAAAAAAADAAAYAADAAAIAADAAAAA==

> <PUBCHEM_IUPAC_OPENEYE_NAME>
(5R,8S,9S,10S,11S,13S,14S,17S)-10,13-dimethyl-2,3,4,5,6,7,8,9,11,12,14,15,16,17-tetradecahydro-1H-cyclopenta[a]phenanthrene-11,17-diol

> <PUBCHEM_IUPAC_CAS_NAME>
(5R,8S,9S,10S,11S,13S,14S,17S)-10,13-dimethyl-2,3,4,5,6,7,8,9,11,12,14,15,16,17-tetradecahydro-1H-cyclopenta[a]phenanthrene-11,17-diol

> <PUBCHEM_IUPAC_NAME>
(5R,8S,9S,10S,11S,13S,14S,17S)-10,13-dimethyl-2,3,4,5,6,7,8,9,11,12,14,15,16,17-tetradecahydro-1H-cyclopenta[a]phenanthrene-11,17-diol

> <PUBCHEM_IUPAC_SYSTEMATIC_NAME>
(5R,8S,9S,10S,11S,13S,14S,17S)-10,13-dimethyl-2,3,4,5,6,7,8,9,11,12,14,15,16,17-tetradecahydro-1H-cyclopenta[a]phenanthrene-11,17-diol

> <PUBCHEM_IUPAC_TRADITIONAL_NAME>
(5R,8S,9S,10S,11S,13S,14S,17S)-10,13-dimethyl-2,3,4,5,6,7,8,9,11,12,14,15,16,17-tetradecahydro-1H-cyclopenta[a]phenanthrene-11,17-diol

> <PUBCHEM_IUPAC_INCHI>
InChI=1S/C19H32O2/c1-18-10-4-3-5-12(18)6-7-13-14-8-9-16(21)19(14,2)11-15(20)17(13)18/h12-17,20-21H,3-11H2,1-2H3/t12-,13+,14+,15+,16+,17-,18+,19+/m1/s1

> <PUBCHEM_IUPAC_INCHIKEY>
MGZZPWXYQSLHGQ-YISWTCPOSA-N

> <PUBCHEM_XLOGP3_AA>
4.7

> <PUBCHEM_EXACT_MASS>
292.24023

> <PUBCHEM_MOLECULAR_FORMULA>
C19H32O2

> <PUBCHEM_MOLECULAR_WEIGHT>
292.45618

> <PUBCHEM_OPENEYE_CAN_SMILES>
CC12CCCCC1CCC3C2C(CC4(C3CCC4O)C)O

> <PUBCHEM_OPENEYE_ISO_SMILES>
C[C@]12CCCC[C@@H]1CC[C@@H]3[C@@H]2[C@H](C[C@]4([C@H]3CC[C@@H]4O)C)O

> <PUBCHEM_CACTVS_TPSA>
40.5

> <PUBCHEM_MONOISOTOPIC_WEIGHT>
292.24023

> <PUBCHEM_TOTAL_CHARGE>
0

> <PUBCHEM_HEAVY_ATOM_COUNT>
21

> <PUBCHEM_ATOM_DEF_STEREO_COUNT>
8

> <PUBCHEM_ATOM_UDEF_STEREO_COUNT>
0

> <PUBCHEM_BOND_DEF_STEREO_COUNT>
0

> <PUBCHEM_BOND_UDEF_STEREO_COUNT>
0

> <PUBCHEM_ISOTOPIC_ATOM_COUNT>
0

> <PUBCHEM_COMPONENT_COUNT>
1

> <PUBCHEM_CACTVS_TAUTO_COUNT>
1

> <PUBCHEM_COORDINATE_TYPE>
1
5
255

> <PUBCHEM_BONDANNOTATIONS>
9  1  5
13  2  5
3  22  6
4  23  5
5  24  6
6  18  5
7  19  5
8  25  6

$$$$

