47205509
  -OEChem-06241222592D

 37 39  0     1  0  0  0  0  0999 V2000
    9.7619   -0.0670    0.0000 O   0  0  0  0  0  0  0  0  0  0  0  0
    6.2619   -0.9330    0.0000 O   0  0  0  0  0  0  0  0  0  0  0  0
    7.7619   -0.0670    0.0000 N   0  0  0  0  0  0  0  0  0  0  0  0
    3.7320    1.2990    0.0000 N   0  0  0  0  0  0  0  0  0  0  0  0
    4.6783    1.6038    0.0000 N   0  0  0  0  0  0  0  0  0  0  0  0
    4.6783   -0.0057    0.0000 N   0  0  0  0  0  0  0  0  0  0  0  0
    2.8660   -0.2010    0.0000 N   0  0  0  0  0  0  0  0  0  0  0  0
    9.2619   -0.9330    0.0000 C   0  0  3  0  0  0  0  0  0  0  0  0
    8.2619   -0.9330    0.0000 C   0  0  0  0  0  0  0  0  0  0  0  0
    8.2619    0.7990    0.0000 C   0  0  0  0  0  0  0  0  0  0  0  0
    9.2619    0.7990    0.0000 C   0  0  0  0  0  0  0  0  0  0  0  0
    9.7619   -1.7990    0.0000 C   0  0  0  0  0  0  0  0  0  0  0  0
    6.7619   -0.0670    0.0000 C   0  0  0  0  0  0  0  0  0  0  0  0
   10.7619   -1.7990    0.0000 C   0  0  0  0  0  0  0  0  0  0  0  0
    6.2619    0.7990    0.0000 C   0  0  0  0  0  0  0  0  0  0  0  0
    5.2619    0.7990    0.0000 C   0  0  0  0  0  0  0  0  0  0  0  0
    3.7320    0.2990    0.0000 C   0  0  0  0  0  0  0  0  0  0  0  0
    2.8660    1.7990    0.0000 C   0  0  0  0  0  0  0  0  0  0  0  0
    2.0000    1.2990    0.0000 C   0  0  0  0  0  0  0  0  0  0  0  0
    2.0000    0.2990    0.0000 C   0  0  0  0  0  0  0  0  0  0  0  0
    9.8819   -0.9330    0.0000 H   0  0  0  0  0  0  0  0  0  0  0  0
    7.6793   -1.1451    0.0000 H   0  0  0  0  0  0  0  0  0  0  0  0
    8.3695   -1.5436    0.0000 H   0  0  0  0  0  0  0  0  0  0  0  0
    8.3695    1.4096    0.0000 H   0  0  0  0  0  0  0  0  0  0  0  0
    7.6793    1.0111    0.0000 H   0  0  0  0  0  0  0  0  0  0  0  0
    9.8445    1.0111    0.0000 H   0  0  0  0  0  0  0  0  0  0  0  0
    9.1542    1.4096    0.0000 H   0  0  0  0  0  0  0  0  0  0  0  0
    9.1793   -2.0111    0.0000 H   0  0  0  0  0  0  0  0  0  0  0  0
    9.8695   -2.4096    0.0000 H   0  0  0  0  0  0  0  0  0  0  0  0
   10.7619   -2.4190    0.0000 H   0  0  0  0  0  0  0  0  0  0  0  0
   11.3819   -1.7990    0.0000 H   0  0  0  0  0  0  0  0  0  0  0  0
   10.7619   -1.1790    0.0000 H   0  0  0  0  0  0  0  0  0  0  0  0
    6.8445    1.0111    0.0000 H   0  0  0  0  0  0  0  0  0  0  0  0
    6.1542    1.4096    0.0000 H   0  0  0  0  0  0  0  0  0  0  0  0
    2.8660    2.4190    0.0000 H   0  0  0  0  0  0  0  0  0  0  0  0
    1.4631    1.6090    0.0000 H   0  0  0  0  0  0  0  0  0  0  0  0
    1.4631   -0.0110    0.0000 H   0  0  0  0  0  0  0  0  0  0  0  0
  1  8  1  0  0  0  0
  1 11  1  0  0  0  0
  2 13  2  0  0  0  0
  3  9  1  0  0  0  0
  3 10  1  0  0  0  0
  3 13  1  0  0  0  0
  4  5  1  0  0  0  0
  4 17  1  0  0  0  0
  4 18  1  0  0  0  0
  5 16  2  0  0  0  0
  6 16  1  0  0  0  0
  6 17  2  0  0  0  0
  7 17  1  0  0  0  0
  7 20  2  0  0  0  0
  8  9  1  0  0  0  0
  8 12  1  0  0  0  0
  8 21  1  0  0  0  0
  9 22  1  0  0  0  0
  9 23  1  0  0  0  0
 10 11  1  0  0  0  0
 10 24  1  0  0  0  0
 10 25  1  0  0  0  0
 11 26  1  0  0  0  0
 11 27  1  0  0  0  0
 12 14  1  0  0  0  0
 12 28  1  0  0  0  0
 12 29  1  0  0  0  0
 13 15  1  0  0  0  0
 14 30  1  0  0  0  0
 14 31  1  0  0  0  0
 14 32  1  0  0  0  0
 15 16  1  0  0  0  0
 15 33  1  0  0  0  0
 15 34  1  0  0  0  0
 18 19  2  0  0  0  0
 18 35  1  0  0  0  0
 19 20  1  0  0  0  0
 19 36  1  0  0  0  0
 20 37  1  0  0  0  0
M  END
> <PUBCHEM_COMPOUND_CID>
47205509

> <PUBCHEM_COMPOUND_CANONICALIZED>
1

> <PUBCHEM_CACTVS_COMPLEXITY>
354

> <PUBCHEM_CACTVS_HBOND_ACCEPTOR>
5

> <PUBCHEM_CACTVS_HBOND_DONOR>
0

> <PUBCHEM_CACTVS_ROTATABLE_BOND>
3

> <PUBCHEM_CACTVS_SUBSKEYS>
AAADceBzsAAAAAAAAAAAAAAAAAAAAWAAAAAsWAAAAAAAAFgB4AAAHgAIAAAACBThkwY/kJcIFACqADN3dACQhCsRgqAdUCE4ZBCCCIhAyUAHhAgIDgLQACAAAAAAAAAAAAAAAAAAAAAAAAAAAAAAAAAAAA==

> <PUBCHEM_IUPAC_OPENEYE_NAME>
1-(2-ethylmorpholin-4-yl)-2-([1,2,4]triazolo[1,5-a]pyrimidin-2-yl)ethanone

> <PUBCHEM_IUPAC_CAS_NAME>
1-(2-ethyl-4-morpholinyl)-2-([1,2,4]triazolo[1,5-a]pyrimidin-2-yl)ethanone

> <PUBCHEM_IUPAC_NAME>
1-(2-ethylmorpholin-4-yl)-2-([1,2,4]triazolo[1,5-a]pyrimidin-2-yl)ethanone

> <PUBCHEM_IUPAC_SYSTEMATIC_NAME>
1-(2-ethylmorpholin-4-yl)-2-([1,2,4]triazolo[1,5-a]pyrimidin-2-yl)ethanone

> <PUBCHEM_IUPAC_TRADITIONAL_NAME>
1-(2-ethylmorpholino)-2-([1,2,4]triazolo[1,5-a]pyrimidin-2-yl)ethanone

> <PUBCHEM_IUPAC_INCHI>
InChI=1S/C13H17N5O2/c1-2-10-9-17(6-7-20-10)12(19)8-11-15-13-14-4-3-5-18(13)16-11/h3-5,10H,2,6-9H2,1H3

> <PUBCHEM_IUPAC_INCHIKEY>
AGIOIWCYUXTVDF-UHFFFAOYSA-N

> <PUBCHEM_XLOGP3_AA>
0.1

> <PUBCHEM_EXACT_MASS>
275.138225

> <PUBCHEM_MOLECULAR_FORMULA>
C13H17N5O2

> <PUBCHEM_MOLECULAR_WEIGHT>
275.30638

> <PUBCHEM_OPENEYE_CAN_SMILES>
CCC1CN(CCO1)C(=O)CC2=NN3C=CC=NC3=N2

> <PUBCHEM_OPENEYE_ISO_SMILES>
CCC1CN(CCO1)C(=O)CC2=NN3C=CC=NC3=N2

> <PUBCHEM_CACTVS_TPSA>
72.6

> <PUBCHEM_MONOISOTOPIC_WEIGHT>
275.138225

> <PUBCHEM_TOTAL_CHARGE>
0

> <PUBCHEM_HEAVY_ATOM_COUNT>
20

> <PUBCHEM_ATOM_DEF_STEREO_COUNT>
0

> <PUBCHEM_ATOM_UDEF_STEREO_COUNT>
1

> <PUBCHEM_BOND_DEF_STEREO_COUNT>
0

> <PUBCHEM_BOND_UDEF_STEREO_COUNT>
0

> <PUBCHEM_ISOTOPIC_ATOM_COUNT>
0

> <PUBCHEM_COMPONENT_COUNT>
1

> <PUBCHEM_CACTVS_TAUTO_COUNT>
1

> <PUBCHEM_COORDINATE_TYPE>
1
5
255

> <PUBCHEM_BONDANNOTATIONS>
18  19  8
19  20  8
4  17  8
4  18  8
4  5  8
5  16  8
6  16  8
6  17  8
7  17  8
7  20  8
8  12  3

$$$$

