72495
  -OEChem-07051213092D

108111  0     1  0  0  0  0  0999 V2000
   20.5372    3.2344    0.0000 S   0  0  0  0  0  0  0  0  0  0  0  0
   15.7452   -3.5720    0.0000 O   0  0  0  0  0  0  0  0  0  0  0  0
   19.5587    3.0282    0.0000 O   0  0  0  0  0  0  0  0  0  0  0  0
   21.5157    3.4406    0.0000 O   0  0  0  0  0  0  0  0  0  0  0  0
   20.3310    4.2129    0.0000 O   0  0  0  0  0  0  0  0  0  0  0  0
   20.7434    2.2559    0.0000 O   0  0  0  0  0  0  0  0  0  0  0  0
   10.3304   -3.5929    0.0000 N   0  0  0  0  0  0  0  0  0  0  0  0
    6.8663   -3.5795    0.0000 N   0  0  0  0  0  0  0  0  0  0  0  0
    2.5381   -3.0629    0.0000 N   0  0  0  0  0  0  0  0  0  0  0  0
   15.7235   -1.5406    0.0000 C   0  0  2  0  0  0  0  0  0  0  0  0
   15.7235   -0.5406    0.0000 C   0  0  1  0  0  0  0  0  0  0  0  0
   14.8574   -2.0406    0.0000 C   0  0  1  0  0  0  0  0  0  0  0  0
   13.9914   -1.5406    0.0000 C   0  0  1  0  0  0  0  0  0  0  0  0
   13.0814   -2.0474    0.0000 C   0  0  2  0  0  0  0  0  0  0  0  0
   16.6697   -0.2358    0.0000 C   0  0  2  0  0  0  0  0  0  0  0  0
   13.0734   -3.0890    0.0000 C   0  0  1  0  0  0  0  0  0  0  0  0
   14.8574   -0.0406    0.0000 C   0  0  0  0  0  0  0  0  0  0  0  0
   13.9914   -0.5406    0.0000 C   0  0  0  0  0  0  0  0  0  0  0  0
   14.8735   -3.0821    0.0000 C   0  0  1  0  0  0  0  0  0  0  0  0
   16.6697   -1.8453    0.0000 C   0  0  0  0  0  0  0  0  0  0  0  0
   17.2533   -1.0406    0.0000 C   0  0  0  0  0  0  0  0  0  0  0  0
   13.9755   -3.6098    0.0000 C   0  0  0  0  0  0  0  0  0  0  0  0
   12.1546   -1.4833    0.0000 C   0  0  0  0  0  0  0  0  0  0  0  0
   15.7235    0.4594    0.0000 C   0  0  0  0  0  0  0  0  0  0  0  0
   12.1379   -3.6387    0.0000 C   0  0  0  0  0  0  0  0  0  0  0  0
   16.9803    0.7147    0.0000 C   0  0  1  0  0  0  0  0  0  0  0  0
   13.0891   -1.0474    0.0000 C   0  0  0  0  0  0  0  0  0  0  0  0
   11.2067   -2.0113    0.0000 C   0  0  0  0  0  0  0  0  0  0  0  0
   11.1983   -3.0962    0.0000 C   0  0  2  0  0  0  0  0  0  0  0  0
   17.9588    0.9209    0.0000 C   0  0  0  0  0  0  0  0  0  0  0  0
   16.3125    1.4590    0.0000 C   0  0  0  0  0  0  0  0  0  0  0  0
   18.2695    1.8714    0.0000 C   0  0  0  0  0  0  0  0  0  0  0  0
    9.4663   -3.0896    0.0000 C   0  0  0  0  0  0  0  0  0  0  0  0
   19.2480    2.0777    0.0000 C   0  0  2  0  0  0  0  0  0  0  0  0
    8.5983   -3.5862    0.0000 C   0  0  0  0  0  0  0  0  0  0  0  0
   19.9159    1.3333    0.0000 C   0  0  0  0  0  0  0  0  0  0  0  0
    7.7342   -3.0829    0.0000 C   0  0  0  0  0  0  0  0  0  0  0  0
   20.8944    1.5396    0.0000 C   0  0  0  0  0  0  0  0  0  0  0  0
   19.6052    0.3828    0.0000 C   0  0  0  0  0  0  0  0  0  0  0  0
    6.0022   -3.0762    0.0000 C   0  0  0  0  0  0  0  0  0  0  0  0
    5.1343   -3.5729    0.0000 C   0  0  0  0  0  0  0  0  0  0  0  0
    4.2702   -3.0695    0.0000 C   0  0  0  0  0  0  0  0  0  0  0  0
    3.4022   -3.5662    0.0000 C   0  0  0  0  0  0  0  0  0  0  0  0
   15.8134   -2.3858    0.0000 H   0  0  0  0  0  0  0  0  0  0  0  0
   15.5968   -2.4599    0.0000 H   0  0  0  0  0  0  0  0  0  0  0  0
   14.7275   -1.1156    0.0000 H   0  0  0  0  0  0  0  0  0  0  0  0
   17.5094   -0.1040    0.0000 H   0  0  0  0  0  0  0  0  0  0  0  0
   13.0766   -3.9390    0.0000 H   0  0  0  0  0  0  0  0  0  0  0  0
   15.2560    0.4344    0.0000 H   0  0  0  0  0  0  0  0  0  0  0  0
   14.4589    0.4344    0.0000 H   0  0  0  0  0  0  0  0  0  0  0  0
   13.7794    0.0420    0.0000 H   0  0  0  0  0  0  0  0  0  0  0  0
   13.3808   -0.6482    0.0000 H   0  0  0  0  0  0  0  0  0  0  0  0
   15.4062   -2.7649    0.0000 H   0  0  0  0  0  0  0  0  0  0  0  0
   16.4186   -2.4122    0.0000 H   0  0  0  0  0  0  0  0  0  0  0  0
   17.2071   -2.1545    0.0000 H   0  0  0  0  0  0  0  0  0  0  0  0
   17.7142   -1.4553    0.0000 H   0  0  0  0  0  0  0  0  0  0  0  0
   17.7142   -0.6258    0.0000 H   0  0  0  0  0  0  0  0  0  0  0  0
   13.5781   -4.0858    0.0000 H   0  0  0  0  0  0  0  0  0  0  0  0
   14.3764   -4.0827    0.0000 H   0  0  0  0  0  0  0  0  0  0  0  0
   12.5628   -1.0167    0.0000 H   0  0  0  0  0  0  0  0  0  0  0  0
   11.7646   -1.0013    0.0000 H   0  0  0  0  0  0  0  0  0  0  0  0
   16.3435    0.4594    0.0000 H   0  0  0  0  0  0  0  0  0  0  0  0
   15.7235    1.0794    0.0000 H   0  0  0  0  0  0  0  0  0  0  0  0
   15.1035    0.4594    0.0000 H   0  0  0  0  0  0  0  0  0  0  0  0
   11.7406   -4.1147    0.0000 H   0  0  0  0  0  0  0  0  0  0  0  0
   12.5389   -4.1116    0.0000 H   0  0  0  0  0  0  0  0  0  0  0  0
   17.1729    1.3040    0.0000 H   0  0  0  0  0  0  0  0  0  0  0  0
   13.7091   -1.0522    0.0000 H   0  0  0  0  0  0  0  0  0  0  0  0
   13.0939   -0.4275    0.0000 H   0  0  0  0  0  0  0  0  0  0  0  0
   12.4691   -1.0427    0.0000 H   0  0  0  0  0  0  0  0  0  0  0  0
   11.0021   -1.4260    0.0000 H   0  0  0  0  0  0  0  0  0  0  0  0
   10.5950   -2.1127    0.0000 H   0  0  0  0  0  0  0  0  0  0  0  0
   11.1971   -3.7162    0.0000 H   0  0  0  0  0  0  0  0  0  0  0  0
   17.9794    0.3012    0.0000 H   0  0  0  0  0  0  0  0  0  0  0  0
   18.5727    0.8336    0.0000 H   0  0  0  0  0  0  0  0  0  0  0  0
   15.7524   -4.1920    0.0000 H   0  0  0  0  0  0  0  0  0  0  0  0
   16.7740    1.8730    0.0000 H   0  0  0  0  0  0  0  0  0  0  0  0
   15.8984    1.9205    0.0000 H   0  0  0  0  0  0  0  0  0  0  0  0
   15.8510    1.0449    0.0000 H   0  0  0  0  0  0  0  0  0  0  0  0
   10.3280   -4.2129    0.0000 H   0  0  0  0  0  0  0  0  0  0  0  0
   18.2489    2.4911    0.0000 H   0  0  0  0  0  0  0  0  0  0  0  0
   17.6557    1.9588    0.0000 H   0  0  0  0  0  0  0  0  0  0  0  0
    9.8666   -2.6162    0.0000 H   0  0  0  0  0  0  0  0  0  0  0  0
    9.0696   -2.6131    0.0000 H   0  0  0  0  0  0  0  0  0  0  0  0
   18.8339    2.5391    0.0000 H   0  0  0  0  0  0  0  0  0  0  0  0
    8.1980   -4.0596    0.0000 H   0  0  0  0  0  0  0  0  0  0  0  0
    8.9950   -4.0627    0.0000 H   0  0  0  0  0  0  0  0  0  0  0  0
   19.3092    1.2055    0.0000 H   0  0  0  0  0  0  0  0  0  0  0  0
    8.1346   -2.6095    0.0000 H   0  0  0  0  0  0  0  0  0  0  0  0
    7.3376   -2.6064    0.0000 H   0  0  0  0  0  0  0  0  0  0  0  0
   19.0159    0.5754    0.0000 H   0  0  0  0  0  0  0  0  0  0  0  0
   19.4126   -0.2065    0.0000 H   0  0  0  0  0  0  0  0  0  0  0  0
   21.0222    0.9329    0.0000 H   0  0  0  0  0  0  0  0  0  0  0  0
   21.5010    1.6674    0.0000 H   0  0  0  0  0  0  0  0  0  0  0  0
   20.7665    2.1462    0.0000 H   0  0  0  0  0  0  0  0  0  0  0  0
   20.1945    0.1902    0.0000 H   0  0  0  0  0  0  0  0  0  0  0  0
    6.8639   -4.1995    0.0000 H   0  0  0  0  0  0  0  0  0  0  0  0
    6.4026   -2.6028    0.0000 H   0  0  0  0  0  0  0  0  0  0  0  0
    5.6055   -2.5997    0.0000 H   0  0  0  0  0  0  0  0  0  0  0  0
   21.7083    4.0299    0.0000 H   0  0  0  0  0  0  0  0  0  0  0  0
    4.7339   -4.0463    0.0000 H   0  0  0  0  0  0  0  0  0  0  0  0
    5.5310   -4.0493    0.0000 H   0  0  0  0  0  0  0  0  0  0  0  0
    4.6705   -2.5961    0.0000 H   0  0  0  0  0  0  0  0  0  0  0  0
    3.8735   -2.5930    0.0000 H   0  0  0  0  0  0  0  0  0  0  0  0
    3.0019   -4.0396    0.0000 H   0  0  0  0  0  0  0  0  0  0  0  0
    3.7989   -4.0427    0.0000 H   0  0  0  0  0  0  0  0  0  0  0  0
    2.0000   -3.3708    0.0000 H   0  0  0  0  0  0  0  0  0  0  0  0
    2.5405   -2.4429    0.0000 H   0  0  0  0  0  0  0  0  0  0  0  0
  1  3  1  0  0  0  0
  1  4  1  0  0  0  0
  1  5  2  0  0  0  0
  1  6  2  0  0  0  0
 19  2  1  6  0  0  0
  2 76  1  0  0  0  0
 34  3  1  1  0  0  0
  4100  1  0  0  0  0
 29  7  1  1  0  0  0
  7 33  1  0  0  0  0
  7 80  1  0  0  0  0
  8 37  1  0  0  0  0
  8 40  1  0  0  0  0
  8 97  1  0  0  0  0
  9 43  1  0  0  0  0
  9107  1  0  0  0  0
  9108  1  0  0  0  0
 10 11  1  0  0  0  0
 10 12  1  0  0  0  0
 10 20  1  0  0  0  0
 10 44  1  6  0  0  0
 11 15  1  0  0  0  0
 11 17  1  0  0  0  0
 11 24  1  1  0  0  0
 12 13  1  0  0  0  0
 12 19  1  0  0  0  0
 12 45  1  1  0  0  0
 13 14  1  0  0  0  0
 13 18  1  0  0  0  0
 13 46  1  6  0  0  0
 14 16  1  0  0  0  0
 14 23  1  0  0  0  0
 14 27  1  1  0  0  0
 15 21  1  0  0  0  0
 15 26  1  0  0  0  0
 15 47  1  6  0  0  0
 16 22  1  0  0  0  0
 16 25  1  0  0  0  0
 16 48  1  6  0  0  0
 17 18  1  0  0  0  0
 17 49  1  0  0  0  0
 17 50  1  0  0  0  0
 18 51  1  0  0  0  0
 18 52  1  0  0  0  0
 19 22  1  0  0  0  0
 19 53  1  0  0  0  0
 20 21  1  0  0  0  0
 20 54  1  0  0  0  0
 20 55  1  0  0  0  0
 21 56  1  0  0  0  0
 21 57  1  0  0  0  0
 22 58  1  0  0  0  0
 22 59  1  0  0  0  0
 23 28  1  0  0  0  0
 23 60  1  0  0  0  0
 23 61  1  0  0  0  0
 24 62  1  0  0  0  0
 24 63  1  0  0  0  0
 24 64  1  0  0  0  0
 25 29  1  0  0  0  0
 25 65  1  0  0  0  0
 25 66  1  0  0  0  0
 26 30  1  0  0  0  0
 26 31  1  6  0  0  0
 26 67  1  0  0  0  0
 27 68  1  0  0  0  0
 27 69  1  0  0  0  0
 27 70  1  0  0  0  0
 28 29  1  0  0  0  0
 28 71  1  0  0  0  0
 28 72  1  0  0  0  0
 29 73  1  0  0  0  0
 30 32  1  0  0  0  0
 30 74  1  0  0  0  0
 30 75  1  0  0  0  0
 31 77  1  0  0  0  0
 31 78  1  0  0  0  0
 31 79  1  0  0  0  0
 32 34  1  0  0  0  0
 32 81  1  0  0  0  0
 32 82  1  0  0  0  0
 33 35  1  0  0  0  0
 33 83  1  0  0  0  0
 33 84  1  0  0  0  0
 34 36  1  0  0  0  0
 34 85  1  0  0  0  0
 35 37  1  0  0  0  0
 35 86  1  0  0  0  0
 35 87  1  0  0  0  0
 36 38  1  0  0  0  0
 36 39  1  0  0  0  0
 36 88  1  0  0  0  0
 37 89  1  0  0  0  0
 37 90  1  0  0  0  0
 38 93  1  0  0  0  0
 38 94  1  0  0  0  0
 38 95  1  0  0  0  0
 39 91  1  0  0  0  0
 39 92  1  0  0  0  0
 39 96  1  0  0  0  0
 40 41  1  0  0  0  0
 40 98  1  0  0  0  0
 40 99  1  0  0  0  0
 41 42  1  0  0  0  0
 41101  1  0  0  0  0
 41102  1  0  0  0  0
 42 43  1  0  0  0  0
 42103  1  0  0  0  0
 42104  1  0  0  0  0
 43105  1  0  0  0  0
 43106  1  0  0  0  0
M  END
> <PUBCHEM_COMPOUND_CID>
72495

> <PUBCHEM_COMPOUND_CANONICALIZED>
1

> <PUBCHEM_CACTVS_COMPLEXITY>
976

> <PUBCHEM_CACTVS_HBOND_ACCEPTOR>
8

> <PUBCHEM_CACTVS_HBOND_DONOR>
5

> <PUBCHEM_CACTVS_ROTATABLE_BOND>
16

> <PUBCHEM_CACTVS_SUBSKEYS>
AAADcfB/OABAAAAAAAAAAAAAAAAAAYAAAAAwYMAAAAAAAGDAAAAAHgAQCAAADzzhgAYCAALAAoAAAAAAADAAAAAAAAAAAIAIAAAAEAIAwAAEQAAEEACAAAGQ0PMPgAAAAAAAAADQAAaAADAAAQAACAAAAA==

> <PUBCHEM_IUPAC_OPENEYE_NAME>
[(1R,4R)-4-[(3S,5R,7R,8R,9S,10S,13R,14S,17R)-3-[3-(4-aminobutylamino)propylamino]-7-hydroxy-10,13-dimethyl-2,3,4,5,6,7,8,9,11,12,14,15,16,17-tetradecahydro-1H-cyclopenta[a]phenanthren-17-yl]-1-isopropyl-pentyl] hydrogen sulfate

> <PUBCHEM_IUPAC_CAS_NAME>
sulfuric acid [(3R,6R)-6-[(3S,5R,7R,8R,9S,10S,13R,14S,17R)-3-[3-(4-aminobutylamino)propylamino]-7-hydroxy-10,13-dimethyl-2,3,4,5,6,7,8,9,11,12,14,15,16,17-tetradecahydro-1H-cyclopenta[a]phenanthren-17-yl]-2-methylheptan-3-yl] ester

> <PUBCHEM_IUPAC_NAME>
[(3R,6R)-6-[(3S,5R,7R,8R,9S,10S,13R,14S,17R)-3-[3-(4-aminobutylamino)propylamino]-7-hydroxy-10,13-dimethyl-2,3,4,5,6,7,8,9,11,12,14,15,16,17-tetradecahydro-1H-cyclopenta[a]phenanthren-17-yl]-2-methylheptan-3-yl] hydrogen sulfate

> <PUBCHEM_IUPAC_SYSTEMATIC_NAME>
[(3R,6R)-6-[(3S,5R,7R,8R,9S,10S,13R,14S,17R)-3-[3-(4-azanylbutylamino)propylamino]-10,13-dimethyl-7-oxidanyl-2,3,4,5,6,7,8,9,11,12,14,15,16,17-tetradecahydro-1H-cyclopenta[a]phenanthren-17-yl]-2-methyl-heptan-3-yl] hydrogen sulfate

> <PUBCHEM_IUPAC_TRADITIONAL_NAME>
sulfuric acid [(1R,4R)-4-[(3S,5R,7R,8R,9S,10S,13R,14S,17R)-3-[3-(4-aminobutylamino)propylamino]-7-hydroxy-10,13-dimethyl-2,3,4,5,6,7,8,9,11,12,14,15,16,17-tetradecahydro-1H-cyclopenta[a]phenanthren-17-yl]-1-isopropyl-pentyl] ester

> <PUBCHEM_IUPAC_INCHI>
InChI=1S/C34H65N3O5S/c1-23(2)31(42-43(39,40)41)12-9-24(3)27-10-11-28-32-29(14-16-34(27,28)5)33(4)15-13-26(21-25(33)22-30(32)38)37-20-8-19-36-18-7-6-17-35/h23-32,36-38H,6-22,35H2,1-5H3,(H,39,40,41)/t24-,25-,26+,27-,28+,29+,30-,31-,32+,33+,34-/m1/s1

> <PUBCHEM_IUPAC_INCHIKEY>
UIRKNQLZZXALBI-MSVGPLKSSA-N

> <PUBCHEM_XLOGP3_AA>
4.3

> <PUBCHEM_EXACT_MASS>
627.464493

> <PUBCHEM_MOLECULAR_FORMULA>
C34H65N3O5S

> <PUBCHEM_MOLECULAR_WEIGHT>
627.962

> <PUBCHEM_OPENEYE_CAN_SMILES>
CC(C)C(CCC(C)C1CCC2C1(CCC3C2C(CC4C3(CCC(C4)NCCCNCCCCN)C)O)C)OS(=O)(=O)O

> <PUBCHEM_OPENEYE_ISO_SMILES>
C[C@H](CC[C@H](C(C)C)OS(=O)(=O)O)[C@H]1CC[C@@H]2[C@@]1(CC[C@H]3[C@H]2[C@@H](C[C@@H]4[C@@]3(CC[C@@H](C4)NCCCNCCCCN)C)O)C

> <PUBCHEM_CACTVS_TPSA>
142

> <PUBCHEM_MONOISOTOPIC_WEIGHT>
627.464493

> <PUBCHEM_TOTAL_CHARGE>
0

> <PUBCHEM_HEAVY_ATOM_COUNT>
43

> <PUBCHEM_ATOM_DEF_STEREO_COUNT>
11

> <PUBCHEM_ATOM_UDEF_STEREO_COUNT>
0

> <PUBCHEM_BOND_DEF_STEREO_COUNT>
0

> <PUBCHEM_BOND_UDEF_STEREO_COUNT>
0

> <PUBCHEM_ISOTOPIC_ATOM_COUNT>
0

> <PUBCHEM_COMPONENT_COUNT>
1

> <PUBCHEM_CACTVS_TAUTO_COUNT>
1

> <PUBCHEM_COORDINATE_TYPE>
1
5
255

> <PUBCHEM_BONDANNOTATIONS>
10  44  6
11  24  5
12  45  5
13  46  6
14  27  5
15  47  6
16  48  6
19  2  6
26  31  6
34  3  5
29  7  5

$$$$

