441290
  -OEChem-07051212532D

 91 96  0     1  0  0  0  0  0999 V2000
   10.3658    1.6164    0.0000 O   0  0  0  0  0  0  0  0  0  0  0  0
    3.7158   -2.6912    0.0000 O   0  0  0  0  0  0  0  0  0  0  0  0
    2.0116    0.4204    0.0000 O   0  0  0  0  0  0  0  0  0  0  0  0
    8.7194    2.1545    0.0000 O   0  0  0  0  0  0  0  0  0  0  0  0
   11.6387   -0.1389    0.0000 N   0  3  0  0  0  0  0  0  0  0  0  0
    3.7319   -0.5996    0.0000 N   0  0  0  0  0  0  0  0  0  0  0  0
    9.1089   -0.6389    0.0000 C   0  0  2  0  0  0  0  0  0  0  0  0
    9.1089    0.3611    0.0000 C   0  0  1  0  0  0  0  0  0  0  0  0
    8.2429   -1.1389    0.0000 C   0  0  1  0  0  0  0  0  0  0  0  0
    7.3768   -0.6389    0.0000 C   0  0  1  0  0  0  0  0  0  0  0  0
    6.4668   -1.1457    0.0000 C   0  0  2  0  0  0  0  0  0  0  0  0
   10.6387   -0.1389    0.0000 C   0  0  2  0  0  0  0  0  0  0  0  0
   10.0551    0.6659    0.0000 C   0  0  2  0  0  0  0  0  0  0  0  0
   10.0551   -0.9436    0.0000 C   0  0  0  0  0  0  0  0  0  0  0  0
    8.2429    0.8611    0.0000 C   0  0  0  0  0  0  0  0  0  0  0  0
    6.4588   -2.1873    0.0000 C   0  0  1  0  0  0  0  0  0  0  0  0
    7.3768    0.3611    0.0000 C   0  0  0  0  0  0  0  0  0  0  0  0
    8.2589   -2.1804    0.0000 C   0  0  0  0  0  0  0  0  0  0  0  0
    7.3609   -2.7081    0.0000 C   0  0  0  0  0  0  0  0  0  0  0  0
    5.5400   -0.5816    0.0000 C   0  0  0  0  0  0  0  0  0  0  0  0
    9.1089    1.3611    0.0000 C   0  0  0  0  0  0  0  0  0  0  0  0
    5.5234   -2.7370    0.0000 C   0  0  0  0  0  0  0  0  0  0  0  0
    4.5921   -1.1096    0.0000 C   0  0  1  0  0  0  0  0  0  0  0  0
    6.4746   -0.1457    0.0000 C   0  0  0  0  0  0  0  0  0  0  0  0
   12.5898   -0.4479    0.0000 C   0  0  0  0  0  0  0  0  0  0  0  0
   11.6387    0.8611    0.0000 C   0  0  0  0  0  0  0  0  0  0  0  0
    4.5838   -2.1946    0.0000 C   0  0  1  0  0  0  0  0  0  0  0  0
   11.3297   -1.0899    0.0000 C   0  0  0  0  0  0  0  0  0  0  0  0
   12.5898    1.1701    0.0000 C   0  0  0  0  0  0  0  0  0  0  0  0
   13.1776    0.3611    0.0000 C   0  0  0  0  0  0  0  0  0  0  0  0
   11.9988   -1.8331    0.0000 C   0  0  0  0  0  0  0  0  0  0  0  0
    9.6979    2.3607    0.0000 C   0  0  0  0  0  0  0  0  0  0  0  0
    2.8602   -1.0896    0.0000 C   0  0  0  0  0  0  0  0  0  0  0  0
    3.7435    0.4003    0.0000 C   0  0  0  0  0  0  0  0  0  0  0  0
    2.0000   -0.5796    0.0000 C   0  0  0  0  0  0  0  0  0  0  0  0
    2.8833    0.9103    0.0000 C   0  0  0  0  0  0  0  0  0  0  0  0
   10.0086    3.3112    0.0000 C   0  0  0  0  0  0  0  0  0  0  0  0
   11.6898   -2.7841    0.0000 C   0  0  0  0  0  0  0  0  0  0  0  0
    9.1988   -1.4841    0.0000 H   0  0  0  0  0  0  0  0  0  0  0  0
    8.9822   -1.5582    0.0000 H   0  0  0  0  0  0  0  0  0  0  0  0
    8.1130   -0.2139    0.0000 H   0  0  0  0  0  0  0  0  0  0  0  0
   11.0249   -0.8961    0.0000 H   0  0  0  0  0  0  0  0  0  0  0  0
   10.6676    0.7621    0.0000 H   0  0  0  0  0  0  0  0  0  0  0  0
    9.8041   -1.5105    0.0000 H   0  0  0  0  0  0  0  0  0  0  0  0
   10.5925   -1.2528    0.0000 H   0  0  0  0  0  0  0  0  0  0  0  0
    8.6414    1.3361    0.0000 H   0  0  0  0  0  0  0  0  0  0  0  0
    7.8443    1.3361    0.0000 H   0  0  0  0  0  0  0  0  0  0  0  0
    6.4621   -3.0373    0.0000 H   0  0  0  0  0  0  0  0  0  0  0  0
    7.1648    0.9437    0.0000 H   0  0  0  0  0  0  0  0  0  0  0  0
    6.7663    0.2535    0.0000 H   0  0  0  0  0  0  0  0  0  0  0  0
    8.4770   -2.7608    0.0000 H   0  0  0  0  0  0  0  0  0  0  0  0
    8.8681   -2.0649    0.0000 H   0  0  0  0  0  0  0  0  0  0  0  0
    6.9636   -3.1841    0.0000 H   0  0  0  0  0  0  0  0  0  0  0  0
    7.7619   -3.1810    0.0000 H   0  0  0  0  0  0  0  0  0  0  0  0
    5.9482   -0.1150    0.0000 H   0  0  0  0  0  0  0  0  0  0  0  0
    5.1501   -0.0996    0.0000 H   0  0  0  0  0  0  0  0  0  0  0  0
    9.7289    1.3611    0.0000 H   0  0  0  0  0  0  0  0  0  0  0  0
    9.1089    1.9811    0.0000 H   0  0  0  0  0  0  0  0  0  0  0  0
    8.4889    1.3611    0.0000 H   0  0  0  0  0  0  0  0  0  0  0  0
    5.1261   -3.2130    0.0000 H   0  0  0  0  0  0  0  0  0  0  0  0
    5.9243   -3.2099    0.0000 H   0  0  0  0  0  0  0  0  0  0  0  0
    4.0522   -1.4144    0.0000 H   0  0  0  0  0  0  0  0  0  0  0  0
    7.0945   -0.1505    0.0000 H   0  0  0  0  0  0  0  0  0  0  0  0
    6.4793    0.4742    0.0000 H   0  0  0  0  0  0  0  0  0  0  0  0
    5.8546   -0.1410    0.0000 H   0  0  0  0  0  0  0  0  0  0  0  0
   11.5098    1.4676    0.0000 H   0  0  0  0  0  0  0  0  0  0  0  0
   11.0221    0.7963    0.0000 H   0  0  0  0  0  0  0  0  0  0  0  0
   12.3376   -1.0143    0.0000 H   0  0  0  0  0  0  0  0  0  0  0  0
   13.1267   -0.7579    0.0000 H   0  0  0  0  0  0  0  0  0  0  0  0
    4.5826   -2.8146    0.0000 H   0  0  0  0  0  0  0  0  0  0  0  0
   10.7823   -0.7989    0.0000 H   0  0  0  0  0  0  0  0  0  0  0  0
   10.9480   -1.5785    0.0000 H   0  0  0  0  0  0  0  0  0  0  0  0
   13.6383   -0.0537    0.0000 H   0  0  0  0  0  0  0  0  0  0  0  0
   13.1267    1.4801    0.0000 H   0  0  0  0  0  0  0  0  0  0  0  0
   12.3376    1.7365    0.0000 H   0  0  0  0  0  0  0  0  0  0  0  0
   13.6383    0.7760    0.0000 H   0  0  0  0  0  0  0  0  0  0  0  0
   12.6053   -1.7042    0.0000 H   0  0  0  0  0  0  0  0  0  0  0  0
    3.7134   -3.3112    0.0000 H   0  0  0  0  0  0  0  0  0  0  0  0
    2.4562   -1.5599    0.0000 H   0  0  0  0  0  0  0  0  0  0  0  0
    4.3528    0.2856    0.0000 H   0  0  0  0  0  0  0  0  0  0  0  0
    3.9623    0.9804    0.0000 H   0  0  0  0  0  0  0  0  0  0  0  0
    3.2532   -1.5691    0.0000 H   0  0  0  0  0  0  0  0  0  0  0  0
    1.3907   -0.4649    0.0000 H   0  0  0  0  0  0  0  0  0  0  0  0
    1.7812   -1.1597    0.0000 H   0  0  0  0  0  0  0  0  0  0  0  0
    3.2873    1.3806    0.0000 H   0  0  0  0  0  0  0  0  0  0  0  0
    2.4903    1.3898    0.0000 H   0  0  0  0  0  0  0  0  0  0  0  0
   10.5979    3.1186    0.0000 H   0  0  0  0  0  0  0  0  0  0  0  0
   10.2012    3.9005    0.0000 H   0  0  0  0  0  0  0  0  0  0  0  0
    9.4193    3.5038    0.0000 H   0  0  0  0  0  0  0  0  0  0  0  0
   11.0834   -2.9130    0.0000 H   0  0  0  0  0  0  0  0  0  0  0  0
   12.1047   -3.2449    0.0000 H   0  0  0  0  0  0  0  0  0  0  0  0
 13  1  1  1  0  0  0
  1 32  1  0  0  0  0
 27  2  1  6  0  0  0
  2 78  1  0  0  0  0
  3 35  1  0  0  0  0
  3 36  1  0  0  0  0
  4 32  2  0  0  0  0
  5 12  1  0  0  0  0
  5 25  1  0  0  0  0
  5 26  1  0  0  0  0
  5 28  1  0  0  0  0
 23  6  1  1  0  0  0
  6 33  1  0  0  0  0
  6 34  1  0  0  0  0
  7  8  1  0  0  0  0
  7  9  1  0  0  0  0
  7 14  1  0  0  0  0
  7 39  1  6  0  0  0
  8 13  1  0  0  0  0
  8 15  1  0  0  0  0
  8 21  1  1  0  0  0
  9 10  1  0  0  0  0
  9 18  1  0  0  0  0
  9 40  1  1  0  0  0
 10 11  1  0  0  0  0
 10 17  1  0  0  0  0
 10 41  1  6  0  0  0
 11 16  1  0  0  0  0
 11 20  1  0  0  0  0
 11 24  1  1  0  0  0
 12 13  1  0  0  0  0
 12 14  1  0  0  0  0
 12 42  1  6  0  0  0
 13 43  1  0  0  0  0
 14 44  1  0  0  0  0
 14 45  1  0  0  0  0
 15 17  1  0  0  0  0
 15 46  1  0  0  0  0
 15 47  1  0  0  0  0
 16 19  1  0  0  0  0
 16 22  1  0  0  0  0
 16 48  1  6  0  0  0
 17 49  1  0  0  0  0
 17 50  1  0  0  0  0
 18 19  1  0  0  0  0
 18 51  1  0  0  0  0
 18 52  1  0  0  0  0
 19 53  1  0  0  0  0
 19 54  1  0  0  0  0
 20 23  1  0  0  0  0
 20 55  1  0  0  0  0
 20 56  1  0  0  0  0
 21 57  1  0  0  0  0
 21 58  1  0  0  0  0
 21 59  1  0  0  0  0
 22 27  1  0  0  0  0
 22 60  1  0  0  0  0
 22 61  1  0  0  0  0
 23 27  1  0  0  0  0
 23 62  1  0  0  0  0
 24 63  1  0  0  0  0
 24 64  1  0  0  0  0
 24 65  1  0  0  0  0
 25 30  1  0  0  0  0
 25 68  1  0  0  0  0
 25 69  1  0  0  0  0
 26 29  1  0  0  0  0
 26 66  1  0  0  0  0
 26 67  1  0  0  0  0
 27 70  1  0  0  0  0
 28 31  1  0  0  0  0
 28 71  1  0  0  0  0
 28 72  1  0  0  0  0
 29 30  1  0  0  0  0
 29 74  1  0  0  0  0
 29 75  1  0  0  0  0
 30 73  1  0  0  0  0
 30 76  1  0  0  0  0
 31 38  2  0  0  0  0
 31 77  1  0  0  0  0
 32 37  1  0  0  0  0
 33 35  1  0  0  0  0
 33 79  1  0  0  0  0
 33 82  1  0  0  0  0
 34 36  1  0  0  0  0
 34 80  1  0  0  0  0
 34 81  1  0  0  0  0
 35 83  1  0  0  0  0
 35 84  1  0  0  0  0
 36 85  1  0  0  0  0
 36 86  1  0  0  0  0
 37 87  1  0  0  0  0
 37 88  1  0  0  0  0
 37 89  1  0  0  0  0
 38 90  1  0  0  0  0
 38 91  1  0  0  0  0
M  CHG  1   5   1
M  END
> <PUBCHEM_COMPOUND_CID>
441290

> <PUBCHEM_COMPOUND_CANONICALIZED>
1

> <PUBCHEM_CACTVS_COMPLEXITY>
898

> <PUBCHEM_CACTVS_HBOND_ACCEPTOR>
5

> <PUBCHEM_CACTVS_HBOND_DONOR>
1

> <PUBCHEM_CACTVS_ROTATABLE_BOND>
6

> <PUBCHEM_CACTVS_SUBSKEYS>
AAADcfB/OAAAAAAAAAAAAAAAAAAAAeIAAAA8YMEAAAAAAGDAAAAAHgAACAAADzzhgAYCCAMABgCIACDSCACAAAAAAAAIAAAIAAACEAIAgQAHQAAEAACQAAGQ0PIPgAAAAAAAAADQAAaAACAgAKAADAgAAA==

> <PUBCHEM_IUPAC_OPENEYE_NAME>
[(2S,3S,5S,8R,9S,10S,13S,14S,16S,17R)-16-(1-allylpyrrolidin-1-ium-1-yl)-3-hydroxy-10,13-dimethyl-2-morpholino-2,3,4,5,6,7,8,9,11,12,14,15,16,17-tetradecahydro-1H-cyclopenta[a]phenanthren-17-yl] acetate

> <PUBCHEM_IUPAC_CAS_NAME>
acetic acid [(2S,3S,5S,8R,9S,10S,13S,14S,16S,17R)-3-hydroxy-10,13-dimethyl-2-(4-morpholinyl)-16-(1-prop-2-enyl-1-pyrrolidin-1-iumyl)-2,3,4,5,6,7,8,9,11,12,14,15,16,17-tetradecahydro-1H-cyclopenta[a]phenanthren-17-yl] ester

> <PUBCHEM_IUPAC_NAME>
[(2S,3S,5S,8R,9S,10S,13S,14S,16S,17R)-3-hydroxy-10,13-dimethyl-2-morpholin-4-yl-16-(1-prop-2-enylpyrrolidin-1-ium-1-yl)-2,3,4,5,6,7,8,9,11,12,14,15,16,17-tetradecahydro-1H-cyclopenta[a]phenanthren-17-yl] acetate

> <PUBCHEM_IUPAC_SYSTEMATIC_NAME>
[(2S,3S,5S,8R,9S,10S,13S,14S,16S,17R)-10,13-dimethyl-2-morpholin-4-yl-3-oxidanyl-16-(1-prop-2-enylpyrrolidin-1-ium-1-yl)-2,3,4,5,6,7,8,9,11,12,14,15,16,17-tetradecahydro-1H-cyclopenta[a]phenanthren-17-yl] ethanoate

> <PUBCHEM_IUPAC_TRADITIONAL_NAME>
acetic acid [(2S,3S,5S,8R,9S,10S,13S,14S,16S,17R)-16-(1-allylpyrrolidin-1-ium-1-yl)-3-hydroxy-10,13-dimethyl-2-morpholino-2,3,4,5,6,7,8,9,11,12,14,15,16,17-tetradecahydro-1H-cyclopenta[a]phenanthren-17-yl] ester

> <PUBCHEM_IUPAC_INCHI>
InChI=1S/C32H53N2O4/c1-5-14-34(15-6-7-16-34)28-20-26-24-9-8-23-19-29(36)27(33-12-17-37-18-13-33)21-32(23,4)25(24)10-11-31(26,3)30(28)38-22(2)35/h5,23-30,36H,1,6-21H2,2-4H3/q+1/t23-,24+,25-,26-,27-,28-,29-,30-,31-,32-/m0/s1

> <PUBCHEM_IUPAC_INCHIKEY>
YXRDKMPIGHSVRX-OOJCLDBCSA-N

> <PUBCHEM_XLOGP3_AA>
5

> <PUBCHEM_EXACT_MASS>
529.400533

> <PUBCHEM_MOLECULAR_FORMULA>
C32H53N2O4+

> <PUBCHEM_MOLECULAR_WEIGHT>
529.77422

> <PUBCHEM_OPENEYE_CAN_SMILES>
CC(=O)OC1C(CC2C1(CCC3C2CCC4C3(CC(C(C4)O)N5CCOCC5)C)C)[N+]6(CCCC6)CC=C

> <PUBCHEM_OPENEYE_ISO_SMILES>
CC(=O)O[C@H]1[C@H](C[C@@H]2[C@@]1(CC[C@H]3[C@H]2CC[C@@H]4[C@@]3(C[C@@H]([C@H](C4)O)N5CCOCC5)C)C)[N+]6(CCCC6)CC=C

> <PUBCHEM_CACTVS_TPSA>
59

> <PUBCHEM_MONOISOTOPIC_WEIGHT>
529.400533

> <PUBCHEM_TOTAL_CHARGE>
1

> <PUBCHEM_HEAVY_ATOM_COUNT>
38

> <PUBCHEM_ATOM_DEF_STEREO_COUNT>
10

> <PUBCHEM_ATOM_UDEF_STEREO_COUNT>
0

> <PUBCHEM_BOND_DEF_STEREO_COUNT>
0

> <PUBCHEM_BOND_UDEF_STEREO_COUNT>
0

> <PUBCHEM_ISOTOPIC_ATOM_COUNT>
0

> <PUBCHEM_COMPONENT_COUNT>
1

> <PUBCHEM_CACTVS_TAUTO_COUNT>
1

> <PUBCHEM_COORDINATE_TYPE>
1
5
255

> <PUBCHEM_BONDANNOTATIONS>
13  1  5
10  41  6
11  24  5
12  42  6
16  48  6
27  2  6
23  6  5
7  39  6
8  21  5
9  40  5

$$$$

