168809
  -OEChem-07051212482D

 55 57  0     1  0  0  0  0  0999 V2000
   15.5875    0.2944    0.0000 O   0  0  0  0  0  0  0  0  0  0  0  0
   12.1196    1.2810    0.0000 O   0  0  0  0  0  0  0  0  0  0  0  0
   14.7273   -1.2089    0.0000 O   0  0  0  0  0  0  0  0  0  0  0  0
    4.2690   -0.2598    0.0000 O   0  0  0  0  0  0  0  0  0  0  0  0
   15.5759    3.2944    0.0000 O   0  0  0  0  0  0  0  0  0  0  0  0
    9.5389   -3.2289    0.0000 O   0  0  0  0  0  0  0  0  0  0  0  0
   13.8439    3.2877    0.0000 O   0  0  0  0  0  0  0  0  0  0  0  0
    8.6671   -1.7323    0.0000 N   0  0  0  0  0  0  0  0  0  0  0  0
    6.0290   -3.2944    0.0000 N   0  0  0  0  0  0  0  0  0  0  0  0
   12.9914   -0.2156    0.0000 N   0  0  0  0  0  0  0  0  0  0  0  0
    6.0290   -1.2251    0.0000 N   0  0  0  0  0  0  0  0  0  0  0  0
    4.2690   -3.2598    0.0000 N   0  0  0  0  0  0  0  0  0  0  0  0
    3.4030   -1.7598    0.0000 N   0  0  0  0  0  0  0  0  0  0  0  0
    2.5369   -3.2598    0.0000 N   0  0  0  0  0  0  0  0  0  0  0  0
    6.9350   -1.7390    0.0000 C   0  0  0  0  0  0  0  0  0  0  0  0
    7.7991   -1.2356    0.0000 C   0  0  0  0  0  0  0  0  0  0  0  0
   13.8555    0.2877    0.0000 C   0  0  1  0  0  0  0  0  0  0  0  0
    6.9350   -2.7806    0.0000 C   0  0  0  0  0  0  0  0  0  0  0  0
   13.8516    1.2877    0.0000 C   0  0  0  0  0  0  0  0  0  0  0  0
    5.1350   -2.7598    0.0000 C   0  0  0  0  0  0  0  0  0  0  0  0
    9.5312   -1.2289    0.0000 C   0  0  0  0  0  0  0  0  0  0  0  0
    5.1350   -1.7598    0.0000 C   0  0  0  0  0  0  0  0  0  0  0  0
   14.7157    1.7911    0.0000 C   0  0  0  0  0  0  0  0  0  0  0  0
   11.2593   -0.2223    0.0000 C   0  0  0  0  0  0  0  0  0  0  0  0
   12.1234    0.2811    0.0000 C   0  0  0  0  0  0  0  0  0  0  0  0
   10.3991   -1.7256    0.0000 C   0  0  0  0  0  0  0  0  0  0  0  0
    9.5273   -0.2289    0.0000 C   0  0  0  0  0  0  0  0  0  0  0  0
   11.2632   -1.2223    0.0000 C   0  0  0  0  0  0  0  0  0  0  0  0
   10.3914    0.2744    0.0000 C   0  0  0  0  0  0  0  0  0  0  0  0
   14.7234   -0.2089    0.0000 C   0  0  0  0  0  0  0  0  0  0  0  0
    4.2690   -1.2598    0.0000 C   0  0  0  0  0  0  0  0  0  0  0  0
    8.6709   -2.7323    0.0000 C   0  0  0  0  0  0  0  0  0  0  0  0
    3.4030   -2.7598    0.0000 C   0  0  0  0  0  0  0  0  0  0  0  0
   14.7118    2.7911    0.0000 C   0  0  0  0  0  0  0  0  0  0  0  0
    8.1958   -0.7591    0.0000 H   0  0  0  0  0  0  0  0  0  0  0  0
    7.3988   -0.7622    0.0000 H   0  0  0  0  0  0  0  0  0  0  0  0
   13.8579   -0.3323    0.0000 H   0  0  0  0  0  0  0  0  0  0  0  0
    7.1441   -3.3643    0.0000 H   0  0  0  0  0  0  0  0  0  0  0  0
    7.5459   -2.6745    0.0000 H   0  0  0  0  0  0  0  0  0  0  0  0
   13.6373    1.8695    0.0000 H   0  0  0  0  0  0  0  0  0  0  0  0
   13.2414    1.1777    0.0000 H   0  0  0  0  0  0  0  0  0  0  0  0
    6.0218   -3.9144    0.0000 H   0  0  0  0  0  0  0  0  0  0  0  0
   12.9938   -0.8356    0.0000 H   0  0  0  0  0  0  0  0  0  0  0  0
   14.9300    1.2093    0.0000 H   0  0  0  0  0  0  0  0  0  0  0  0
   15.3259    1.9011    0.0000 H   0  0  0  0  0  0  0  0  0  0  0  0
   10.4015   -2.3456    0.0000 H   0  0  0  0  0  0  0  0  0  0  0  0
    8.9892    0.0790    0.0000 H   0  0  0  0  0  0  0  0  0  0  0  0
   11.8013   -1.5302    0.0000 H   0  0  0  0  0  0  0  0  0  0  0  0
   10.3890    0.8944    0.0000 H   0  0  0  0  0  0  0  0  0  0  0  0
    4.2690   -3.8798    0.0000 H   0  0  0  0  0  0  0  0  0  0  0  0
    8.1352   -3.0443    0.0000 H   0  0  0  0  0  0  0  0  0  0  0  0
   16.1256   -0.0135    0.0000 H   0  0  0  0  0  0  0  0  0  0  0  0
    2.0000   -2.9498    0.0000 H   0  0  0  0  0  0  0  0  0  0  0  0
    2.5369   -3.8798    0.0000 H   0  0  0  0  0  0  0  0  0  0  0  0
   15.5735    3.9144    0.0000 H   0  0  0  0  0  0  0  0  0  0  0  0
  1 30  1  0  0  0  0
  1 52  1  0  0  0  0
  2 25  2  0  0  0  0
  3 30  2  0  0  0  0
  4 31  2  0  0  0  0
  5 34  1  0  0  0  0
  5 55  1  0  0  0  0
  6 32  2  0  0  0  0
  7 34  2  0  0  0  0
  8 16  1  0  0  0  0
  8 21  1  0  0  0  0
  8 32  1  0  0  0  0
  9 18  1  0  0  0  0
  9 20  1  0  0  0  0
  9 42  1  0  0  0  0
 17 10  1  1  0  0  0
 10 25  1  0  0  0  0
 10 43  1  0  0  0  0
 11 15  2  0  0  0  0
 11 22  1  0  0  0  0
 12 20  1  0  0  0  0
 12 33  1  0  0  0  0
 12 50  1  0  0  0  0
 13 31  1  0  0  0  0
 13 33  2  0  0  0  0
 14 33  1  0  0  0  0
 14 53  1  0  0  0  0
 14 54  1  0  0  0  0
 15 16  1  0  0  0  0
 15 18  1  0  0  0  0
 16 35  1  0  0  0  0
 16 36  1  0  0  0  0
 17 19  1  0  0  0  0
 17 30  1  0  0  0  0
 17 37  1  0  0  0  0
 18 38  1  0  0  0  0
 18 39  1  0  0  0  0
 19 23  1  0  0  0  0
 19 40  1  0  0  0  0
 19 41  1  0  0  0  0
 20 22  2  0  0  0  0
 21 26  2  0  0  0  0
 21 27  1  0  0  0  0
 22 31  1  0  0  0  0
 23 34  1  0  0  0  0
 23 44  1  0  0  0  0
 23 45  1  0  0  0  0
 24 25  1  0  0  0  0
 24 28  2  0  0  0  0
 24 29  1  0  0  0  0
 26 28  1  0  0  0  0
 26 46  1  0  0  0  0
 27 29  2  0  0  0  0
 27 47  1  0  0  0  0
 28 48  1  0  0  0  0
 29 49  1  0  0  0  0
 32 51  1  0  0  0  0
M  END
> <PUBCHEM_COMPOUND_CID>
168809

> <PUBCHEM_COMPOUND_CANONICALIZED>
1

> <PUBCHEM_CACTVS_COMPLEXITY>
966

> <PUBCHEM_CACTVS_HBOND_ACCEPTOR>
9

> <PUBCHEM_CACTVS_HBOND_DONOR>
6

> <PUBCHEM_CACTVS_ROTATABLE_BOND>
9

> <PUBCHEM_CACTVS_SUBSKEYS>
AAADceB7uAAAAAAAAAAAAAAAAAAAAAAAAAAwQIAAAAAAAACBAAAAHgAQCAAADCjBmAYxyIPAAgCoAyXy/ACCAAElAgAJiIGYZMiKYDLA1bGEYQhslgLYyce8rwCeCAAAAAAAAAAQAAAAAAAAAAAAAAAAAA==

> <PUBCHEM_IUPAC_OPENEYE_NAME>
(2S)-2-[[4-[(2-amino-4-oxo-7,8-dihydro-1H-pteridin-6-yl)methyl-formyl-amino]benzoyl]amino]pentanedioic acid

> <PUBCHEM_IUPAC_CAS_NAME>
(2S)-2-[[[4-[(2-amino-4-oxo-7,8-dihydro-1H-pteridin-6-yl)methyl-formylamino]phenyl]-oxomethyl]amino]pentanedioic acid

> <PUBCHEM_IUPAC_NAME>
(2S)-2-[[4-[(2-amino-4-oxo-7,8-dihydro-1H-pteridin-6-yl)methyl-formylamino]benzoyl]amino]pentanedioic acid

> <PUBCHEM_IUPAC_SYSTEMATIC_NAME>
(2S)-2-[[4-[(2-azanyl-4-oxidanylidene-7,8-dihydro-1H-pteridin-6-yl)methyl-methanoyl-amino]phenyl]carbonylamino]pentanedioic acid

> <PUBCHEM_IUPAC_TRADITIONAL_NAME>
(2S)-2-[[4-[(2-amino-4-keto-7,8-dihydro-1H-pteridin-6-yl)methyl-formyl-amino]benzoyl]amino]glutaric acid

> <PUBCHEM_IUPAC_INCHI>
InChI=1S/C20H21N7O7/c21-20-25-16-15(18(32)26-20)23-11(7-22-16)8-27(9-28)12-3-1-10(2-4-12)17(31)24-13(19(33)34)5-6-14(29)30/h1-4,9,13H,5-8H2,(H,24,31)(H,29,30)(H,33,34)(H4,21,22,25,26,32)/t13-/m0/s1

> <PUBCHEM_IUPAC_INCHIKEY>
UXFQDXABPXWSTK-ZDUSSCGKSA-N

> <PUBCHEM_XLOGP3_AA>
-1.5

> <PUBCHEM_EXACT_MASS>
471.150246

> <PUBCHEM_MOLECULAR_FORMULA>
C20H21N7O7

> <PUBCHEM_MOLECULAR_WEIGHT>
471.42344

> <PUBCHEM_OPENEYE_CAN_SMILES>
C1C(=NC2=C(N1)NC(=NC2=O)N)CN(C=O)C3=CC=C(C=C3)C(=O)NC(CCC(=O)O)C(=O)O

> <PUBCHEM_OPENEYE_ISO_SMILES>
C1C(=NC2=C(N1)NC(=NC2=O)N)CN(C=O)C3=CC=C(C=C3)C(=O)N[C@@H](CCC(=O)O)C(=O)O

> <PUBCHEM_CACTVS_TPSA>
216

> <PUBCHEM_MONOISOTOPIC_WEIGHT>
471.150246

> <PUBCHEM_TOTAL_CHARGE>
0

> <PUBCHEM_HEAVY_ATOM_COUNT>
34

> <PUBCHEM_ATOM_DEF_STEREO_COUNT>
1

> <PUBCHEM_ATOM_UDEF_STEREO_COUNT>
0

> <PUBCHEM_BOND_DEF_STEREO_COUNT>
0

> <PUBCHEM_BOND_UDEF_STEREO_COUNT>
0

> <PUBCHEM_ISOTOPIC_ATOM_COUNT>
0

> <PUBCHEM_COMPONENT_COUNT>
1

> <PUBCHEM_CACTVS_TAUTO_COUNT>
120

> <PUBCHEM_COORDINATE_TYPE>
1
5
255

> <PUBCHEM_BONDANNOTATIONS>
17  10  5
12  20  8
12  33  8
13  31  8
13  33  8
20  22  8
21  26  8
21  27  8
22  31  8
24  28  8
24  29  8
26  28  8
27  29  8

$$$$

