443015
  -OEChem-07051213002D

 75 79  0     1  0  0  0  0  0999 V2000
    7.2905   -0.3867    0.0000 O   0  0  0  0  0  0  0  0  0  0  0  0
    6.5862   -3.6432    0.0000 O   0  0  0  0  0  0  0  0  0  0  0  0
    6.1316    0.9004    0.0000 O   0  0  0  0  0  0  0  0  0  0  0  0
    8.7768    0.9515    0.0000 O   0  0  0  0  0  0  0  0  0  0  0  0
    8.3610    2.9078    0.0000 O   0  0  0  0  0  0  0  0  0  0  0  0
    6.4589    3.5259    0.0000 O   0  0  0  0  0  0  0  0  0  0  0  0
    5.0916   -2.6726    0.0000 O   0  0  0  0  0  0  0  0  0  0  0  0
    4.7647    3.1658    0.0000 O   0  0  0  0  0  0  0  0  0  0  0  0
   12.0791   -2.1360    0.0000 O   0  0  0  0  0  0  0  0  0  0  0  0
    3.1590   -1.7761    0.0000 O   0  0  0  0  0  0  0  0  0  0  0  0
    4.2294    1.5185    0.0000 O   0  0  0  0  0  0  0  0  0  0  0  0
   12.0791   -3.7455    0.0000 O   0  0  0  0  0  0  0  0  0  0  0  0
    2.7431    0.1802    0.0000 O   0  0  0  0  0  0  0  0  0  0  0  0
    6.7553   -2.0340    0.0000 C   0  0  1  0  0  0  0  0  0  0  0  0
    7.6688   -2.4407    0.0000 C   0  0  2  0  0  0  0  0  0  0  0  0
    6.5474   -1.0558    0.0000 C   0  0  1  0  0  0  0  0  0  0  0  0
    7.5643   -3.4353    0.0000 C   0  0  0  0  0  0  0  0  0  0  0  0
    7.0826    0.5914    0.0000 C   0  0  2  0  0  0  0  0  0  0  0  0
    8.5348   -1.9407    0.0000 C   0  0  0  0  0  0  0  0  0  0  0  0
    7.8258    1.2606    0.0000 C   0  0  1  0  0  0  0  0  0  0  0  0
    7.6178    2.2387    0.0000 C   0  0  2  0  0  0  0  0  0  0  0  0
    6.6668    2.5477    0.0000 C   0  0  1  0  0  0  0  0  0  0  0  0
    6.0862   -2.7771    0.0000 C   0  0  0  0  0  0  0  0  0  0  0  0
    5.9236    1.8786    0.0000 C   0  0  1  0  0  0  0  0  0  0  0  0
    5.5963   -0.7468    0.0000 C   0  0  0  0  0  0  0  0  0  0  0  0
    9.4009   -2.4407    0.0000 C   0  0  0  0  0  0  0  0  0  0  0  0
    4.9726    2.1876    0.0000 C   0  0  0  0  0  0  0  0  0  0  0  0
    5.3884    0.2313    0.0000 C   0  0  0  0  0  0  0  0  0  0  0  0
    4.8532   -1.4160    0.0000 C   0  0  0  0  0  0  0  0  0  0  0  0
   10.2669   -1.9407    0.0000 C   0  0  0  0  0  0  0  0  0  0  0  0
    9.4009   -3.4407    0.0000 C   0  0  0  0  0  0  0  0  0  0  0  0
    3.9021   -1.1070    0.0000 C   0  0  0  0  0  0  0  0  0  0  0  0
    4.4374    0.5403    0.0000 C   0  0  0  0  0  0  0  0  0  0  0  0
    3.6942   -0.1288    0.0000 C   0  0  0  0  0  0  0  0  0  0  0  0
   11.1329   -2.4407    0.0000 C   0  0  0  0  0  0  0  0  0  0  0  0
   10.2669   -3.9407    0.0000 C   0  0  0  0  0  0  0  0  0  0  0  0
   11.1329   -3.4407    0.0000 C   0  0  0  0  0  0  0  0  0  0  0  0
   12.6628   -2.9407    0.0000 C   0  0  0  0  0  0  0  0  0  0  0  0
    3.3669   -2.7542    0.0000 C   0  0  0  0  0  0  0  0  0  0  0  0
    3.2784    1.8275    0.0000 C   0  0  0  0  0  0  0  0  0  0  0  0
    2.0000   -0.4889    0.0000 C   0  0  0  0  0  0  0  0  0  0  0  0
    5.9342   -1.8140    0.0000 H   0  0  0  0  0  0  0  0  0  0  0  0
    8.1888   -2.7784    0.0000 H   0  0  0  0  0  0  0  0  0  0  0  0
    6.4185   -0.4494    0.0000 H   0  0  0  0  0  0  0  0  0  0  0  0
    7.6291   -4.0519    0.0000 H   0  0  0  0  0  0  0  0  0  0  0  0
    8.1843   -3.4353    0.0000 H   0  0  0  0  0  0  0  0  0  0  0  0
    6.6218    0.1766    0.0000 H   0  0  0  0  0  0  0  0  0  0  0  0
    8.9334   -1.4658    0.0000 H   0  0  0  0  0  0  0  0  0  0  0  0
    8.1363   -1.4658    0.0000 H   0  0  0  0  0  0  0  0  0  0  0  0
    8.2865    1.6754    0.0000 H   0  0  0  0  0  0  0  0  0  0  0  0
    7.4889    2.8452    0.0000 H   0  0  0  0  0  0  0  0  0  0  0  0
    6.0771    2.7393    0.0000 H   0  0  0  0  0  0  0  0  0  0  0  0
    5.4629    1.4637    0.0000 H   0  0  0  0  0  0  0  0  0  0  0  0
    4.3530    2.1660    0.0000 H   0  0  0  0  0  0  0  0  0  0  0  0
    4.8863    1.5736    0.0000 H   0  0  0  0  0  0  0  0  0  0  0  0
    5.8492    0.6462    0.0000 H   0  0  0  0  0  0  0  0  0  0  0  0
    4.9821   -2.0224    0.0000 H   0  0  0  0  0  0  0  0  0  0  0  0
    9.2376    1.3664    0.0000 H   0  0  0  0  0  0  0  0  0  0  0  0
    8.2321    3.5143    0.0000 H   0  0  0  0  0  0  0  0  0  0  0  0
    6.9196    3.9407    0.0000 H   0  0  0  0  0  0  0  0  0  0  0  0
   10.2669   -1.3207    0.0000 H   0  0  0  0  0  0  0  0  0  0  0  0
    8.8639   -3.7507    0.0000 H   0  0  0  0  0  0  0  0  0  0  0  0
   10.2669   -4.5607    0.0000 H   0  0  0  0  0  0  0  0  0  0  0  0
    4.1750    3.3574    0.0000 H   0  0  0  0  0  0  0  0  0  0  0  0
   13.1236   -3.3555    0.0000 H   0  0  0  0  0  0  0  0  0  0  0  0
   13.1236   -2.5260    0.0000 H   0  0  0  0  0  0  0  0  0  0  0  0
    2.7604   -2.8831    0.0000 H   0  0  0  0  0  0  0  0  0  0  0  0
    3.4958   -3.3607    0.0000 H   0  0  0  0  0  0  0  0  0  0  0  0
    3.9733   -2.6253    0.0000 H   0  0  0  0  0  0  0  0  0  0  0  0
    3.4700    2.4172    0.0000 H   0  0  0  0  0  0  0  0  0  0  0  0
    2.6887    2.0191    0.0000 H   0  0  0  0  0  0  0  0  0  0  0  0
    3.0868    1.2378    0.0000 H   0  0  0  0  0  0  0  0  0  0  0  0
    1.5851   -0.0282    0.0000 H   0  0  0  0  0  0  0  0  0  0  0  0
    1.5392   -0.9038    0.0000 H   0  0  0  0  0  0  0  0  0  0  0  0
    2.4149   -0.9497    0.0000 H   0  0  0  0  0  0  0  0  0  0  0  0
 16  1  1  1  0  0  0
 18  1  1  6  0  0  0
  2 17  1  0  0  0  0
  2 23  1  0  0  0  0
  3 18  1  0  0  0  0
  3 24  1  0  0  0  0
 20  4  1  1  0  0  0
  4 58  1  0  0  0  0
 21  5  1  6  0  0  0
  5 59  1  0  0  0  0
 22  6  1  1  0  0  0
  6 60  1  0  0  0  0
  7 23  2  0  0  0  0
  8 27  1  0  0  0  0
  8 64  1  0  0  0  0
  9 35  1  0  0  0  0
  9 38  1  0  0  0  0
 10 32  1  0  0  0  0
 10 39  1  0  0  0  0
 11 33  1  0  0  0  0
 11 40  1  0  0  0  0
 12 37  1  0  0  0  0
 12 38  1  0  0  0  0
 13 34  1  0  0  0  0
 13 41  1  0  0  0  0
 14 15  1  0  0  0  0
 14 16  1  0  0  0  0
 14 23  1  0  0  0  0
 14 42  1  1  0  0  0
 15 17  1  0  0  0  0
 15 19  1  1  0  0  0
 15 43  1  0  0  0  0
 16 25  1  0  0  0  0
 16 44  1  0  0  0  0
 17 45  1  0  0  0  0
 17 46  1  0  0  0  0
 18 20  1  0  0  0  0
 18 47  1  0  0  0  0
 19 26  1  0  0  0  0
 19 48  1  0  0  0  0
 19 49  1  0  0  0  0
 20 21  1  0  0  0  0
 20 50  1  0  0  0  0
 21 22  1  0  0  0  0
 21 51  1  0  0  0  0
 22 24  1  0  0  0  0
 22 52  1  0  0  0  0
 24 27  1  6  0  0  0
 24 53  1  0  0  0  0
 25 28  2  0  0  0  0
 25 29  1  0  0  0  0
 26 30  2  0  0  0  0
 26 31  1  0  0  0  0
 27 54  1  0  0  0  0
 27 55  1  0  0  0  0
 28 33  1  0  0  0  0
 28 56  1  0  0  0  0
 29 32  2  0  0  0  0
 29 57  1  0  0  0  0
 30 35  1  0  0  0  0
 30 61  1  0  0  0  0
 31 36  2  0  0  0  0
 31 62  1  0  0  0  0
 32 34  1  0  0  0  0
 33 34  2  0  0  0  0
 35 37  2  0  0  0  0
 36 37  1  0  0  0  0
 36 63  1  0  0  0  0
 38 65  1  0  0  0  0
 38 66  1  0  0  0  0
 39 67  1  0  0  0  0
 39 68  1  0  0  0  0
 39 69  1  0  0  0  0
 40 70  1  0  0  0  0
 40 71  1  0  0  0  0
 40 72  1  0  0  0  0
 41 73  1  0  0  0  0
 41 74  1  0  0  0  0
 41 75  1  0  0  0  0
M  END
> <PUBCHEM_COMPOUND_CID>
443015

> <PUBCHEM_COMPOUND_CANONICALIZED>
1

> <PUBCHEM_CACTVS_COMPLEXITY>
847

> <PUBCHEM_CACTVS_HBOND_ACCEPTOR>
13

> <PUBCHEM_CACTVS_HBOND_DONOR>
4

> <PUBCHEM_CACTVS_ROTATABLE_BOND>
10

> <PUBCHEM_CACTVS_SUBSKEYS>
AAADcfB4PAAAAAAAAAAAAAAAAAAAASJAAAA0YIAAAAAAAEgBQAAAGgAACAAADRSwmAMyDoAABgCIAiDSCAACCAAgIAAIiAEGiIgdNzaEMRqicCIl4BUPqAfK6PyOoAABCAAAQABAAAIQAACAAAAAAAAAAA==

> <PUBCHEM_IUPAC_OPENEYE_NAME>
(3S,4R)-4-(1,3-benzodioxol-5-ylmethyl)-3-[(S)-[(2R,3R,4S,5S,6R)-3,4,5-trihydroxy-6-(hydroxymethyl)tetrahydropyran-2-yl]oxy-(3,4,5-trimethoxyphenyl)methyl]tetrahydrofuran-2-one

> <PUBCHEM_IUPAC_CAS_NAME>
(3S,4R)-4-(1,3-benzodioxol-5-ylmethyl)-3-[(S)-[(2R,3R,4S,5S,6R)-3,4,5-trihydroxy-6-(hydroxymethyl)-2-oxanyl]oxy-(3,4,5-trimethoxyphenyl)methyl]-2-oxolanone

> <PUBCHEM_IUPAC_NAME>
(3S,4R)-4-(1,3-benzodioxol-5-ylmethyl)-3-[(S)-[(2R,3R,4S,5S,6R)-3,4,5-trihydroxy-6-(hydroxymethyl)oxan-2-yl]oxy-(3,4,5-trimethoxyphenyl)methyl]oxolan-2-one

> <PUBCHEM_IUPAC_SYSTEMATIC_NAME>
(3S,4R)-4-(1,3-benzodioxol-5-ylmethyl)-3-[(S)-[(2R,3R,4S,5S,6R)-6-(hydroxymethyl)-3,4,5-tris(oxidanyl)oxan-2-yl]oxy-(3,4,5-trimethoxyphenyl)methyl]oxolan-2-one

> <PUBCHEM_IUPAC_TRADITIONAL_NAME>
(3S,4R)-4-piperonyl-3-[(S)-[(2R,3R,4S,5S,6R)-3,4,5-trihydroxy-6-methylol-tetrahydropyran-2-yl]oxy-(3,4,5-trimethoxyphenyl)methyl]tetrahydrofuran-2-one

> <PUBCHEM_IUPAC_INCHI>
InChI=1S/C28H34O13/c1-34-18-8-14(9-19(35-2)26(18)36-3)25(41-28-24(32)23(31)22(30)20(10-29)40-28)21-15(11-37-27(21)33)6-13-4-5-16-17(7-13)39-12-38-16/h4-5,7-9,15,20-25,28-32H,6,10-12H2,1-3H3/t15-,20+,21-,22+,23-,24+,25+,28-/m0/s1

> <PUBCHEM_IUPAC_INCHIKEY>
IETDTZKBVWFSKR-XYEVPOBGSA-N

> <PUBCHEM_XLOGP3_AA>
1

> <PUBCHEM_EXACT_MASS>
578.199941

> <PUBCHEM_MOLECULAR_FORMULA>
C28H34O13

> <PUBCHEM_MOLECULAR_WEIGHT>
578.56176

> <PUBCHEM_OPENEYE_CAN_SMILES>
COC1=CC(=CC(=C1OC)OC)C(C2C(COC2=O)CC3=CC4=C(C=C3)OCO4)OC5C(C(C(C(O5)CO)O)O)O

> <PUBCHEM_OPENEYE_ISO_SMILES>
COC1=CC(=CC(=C1OC)OC)[C@H]([C@@H]2[C@H](COC2=O)CC3=CC4=C(C=C3)OCO4)O[C@H]5[C@@H]([C@H]([C@@H]([C@H](O5)CO)O)O)O

> <PUBCHEM_CACTVS_TPSA>
172

> <PUBCHEM_MONOISOTOPIC_WEIGHT>
578.199941

> <PUBCHEM_TOTAL_CHARGE>
0

> <PUBCHEM_HEAVY_ATOM_COUNT>
41

> <PUBCHEM_ATOM_DEF_STEREO_COUNT>
8

> <PUBCHEM_ATOM_UDEF_STEREO_COUNT>
0

> <PUBCHEM_BOND_DEF_STEREO_COUNT>
0

> <PUBCHEM_BOND_UDEF_STEREO_COUNT>
0

> <PUBCHEM_ISOTOPIC_ATOM_COUNT>
0

> <PUBCHEM_COMPONENT_COUNT>
1

> <PUBCHEM_CACTVS_TAUTO_COUNT>
2

> <PUBCHEM_COORDINATE_TYPE>
1
5
255

> <PUBCHEM_BONDANNOTATIONS>
16  1  5
18  1  6
14  42  5
15  19  5
24  27  6
25  28  8
25  29  8
26  30  8
26  31  8
28  33  8
29  32  8
30  35  8
31  36  8
32  34  8
33  34  8
35  37  8
36  37  8
20  4  5
21  5  6
22  6  5

$$$$

