3741
  -OEChem-06251223382D

 57 57  0     1  0  0  0  0  0999 V2000
    4.2690    1.3450    0.0000 I   0  0  0  0  0  0  0  0  0  0  0  0
    7.7331    1.3450    0.0000 I   0  0  0  0  0  0  0  0  0  0  0  0
    6.0010   -1.6550    0.0000 I   0  0  0  0  0  0  0  0  0  0  0  0
    7.7331   -3.6550    0.0000 O   0  0  0  0  0  0  0  0  0  0  0  0
    4.2690   -3.6550    0.0000 O   0  0  0  0  0  0  0  0  0  0  0  0
    4.2690    4.3450    0.0000 O   0  0  0  0  0  0  0  0  0  0  0  0
    8.5991   -0.1550    0.0000 O   0  0  0  0  0  0  0  0  0  0  0  0
    3.4030   -0.1550    0.0000 O   0  0  0  0  0  0  0  0  0  0  0  0
    7.7331    2.3450    0.0000 O   0  0  0  0  0  0  0  0  0  0  0  0
    9.4651   -4.6550    0.0000 O   0  0  0  0  0  0  0  0  0  0  0  0
    2.5369   -4.6550    0.0000 O   0  0  0  0  0  0  0  0  0  0  0  0
    7.7331    4.3450    0.0000 O   0  0  0  0  0  0  0  0  0  0  0  0
    6.0010    2.3450    0.0000 N   0  0  0  0  0  0  0  0  0  0  0  0
    7.7331   -1.6550    0.0000 N   0  0  0  0  0  0  0  0  0  0  0  0
    4.2690   -1.6550    0.0000 N   0  0  0  0  0  0  0  0  0  0  0  0
    6.0010    1.3450    0.0000 C   0  0  0  0  0  0  0  0  0  0  0  0
    6.8671   -0.1550    0.0000 C   0  0  0  0  0  0  0  0  0  0  0  0
    5.1350   -0.1550    0.0000 C   0  0  0  0  0  0  0  0  0  0  0  0
    5.1350    0.8450    0.0000 C   0  0  0  0  0  0  0  0  0  0  0  0
    6.8671    0.8450    0.0000 C   0  0  0  0  0  0  0  0  0  0  0  0
    5.1350    2.8450    0.0000 C   0  0  0  0  0  0  0  0  0  0  0  0
    6.0010   -0.6550    0.0000 C   0  0  0  0  0  0  0  0  0  0  0  0
    8.5991   -2.1550    0.0000 C   0  0  0  0  0  0  0  0  0  0  0  0
    3.4030   -2.1550    0.0000 C   0  0  0  0  0  0  0  0  0  0  0  0
    7.7331   -0.6550    0.0000 C   0  0  0  0  0  0  0  0  0  0  0  0
    4.2690   -0.6550    0.0000 C   0  0  0  0  0  0  0  0  0  0  0  0
    8.5991   -3.1550    0.0000 C   0  0  3  0  0  0  0  0  0  0  0  0
    3.4030   -3.1550    0.0000 C   0  0  3  0  0  0  0  0  0  0  0  0
    6.8671    2.8450    0.0000 C   0  0  0  0  0  0  0  0  0  0  0  0
    5.1350    3.8450    0.0000 C   0  0  0  0  0  0  0  0  0  0  0  0
    9.4651   -3.6550    0.0000 C   0  0  0  0  0  0  0  0  0  0  0  0
    2.5369   -3.6550    0.0000 C   0  0  0  0  0  0  0  0  0  0  0  0
    6.8671    3.8450    0.0000 C   0  0  0  0  0  0  0  0  0  0  0  0
    4.5244    2.9527    0.0000 H   0  0  0  0  0  0  0  0  0  0  0  0
    4.9230    2.2624    0.0000 H   0  0  0  0  0  0  0  0  0  0  0  0
    9.2097   -2.2627    0.0000 H   0  0  0  0  0  0  0  0  0  0  0  0
    8.8112   -1.5724    0.0000 H   0  0  0  0  0  0  0  0  0  0  0  0
    3.1909   -1.5724    0.0000 H   0  0  0  0  0  0  0  0  0  0  0  0
    2.7924   -2.2627    0.0000 H   0  0  0  0  0  0  0  0  0  0  0  0
    8.5991   -3.7750    0.0000 H   0  0  0  0  0  0  0  0  0  0  0  0
    3.4030   -3.7750    0.0000 H   0  0  0  0  0  0  0  0  0  0  0  0
    7.1962   -1.9650    0.0000 H   0  0  0  0  0  0  0  0  0  0  0  0
    4.8059   -1.9650    0.0000 H   0  0  0  0  0  0  0  0  0  0  0  0
    5.7456    3.7373    0.0000 H   0  0  0  0  0  0  0  0  0  0  0  0
    5.3471    4.4276    0.0000 H   0  0  0  0  0  0  0  0  0  0  0  0
   10.0757   -3.7627    0.0000 H   0  0  0  0  0  0  0  0  0  0  0  0
    9.6772   -3.0724    0.0000 H   0  0  0  0  0  0  0  0  0  0  0  0
    2.3249   -3.0724    0.0000 H   0  0  0  0  0  0  0  0  0  0  0  0
    1.9264   -3.7627    0.0000 H   0  0  0  0  0  0  0  0  0  0  0  0
    6.6550    4.4276    0.0000 H   0  0  0  0  0  0  0  0  0  0  0  0
    6.2565    3.7373    0.0000 H   0  0  0  0  0  0  0  0  0  0  0  0
    7.7331   -4.2750    0.0000 H   0  0  0  0  0  0  0  0  0  0  0  0
    4.2690   -4.2750    0.0000 H   0  0  0  0  0  0  0  0  0  0  0  0
    4.2690    4.9650    0.0000 H   0  0  0  0  0  0  0  0  0  0  0  0
   10.0021   -4.9650    0.0000 H   0  0  0  0  0  0  0  0  0  0  0  0
    2.0000   -4.9650    0.0000 H   0  0  0  0  0  0  0  0  0  0  0  0
    7.7331    4.9650    0.0000 H   0  0  0  0  0  0  0  0  0  0  0  0
  1 19  1  0  0  0  0
  2 20  1  0  0  0  0
  3 22  1  0  0  0  0
  4 27  1  0  0  0  0
  4 52  1  0  0  0  0
  5 28  1  0  0  0  0
  5 53  1  0  0  0  0
  6 30  1  0  0  0  0
  6 54  1  0  0  0  0
  7 25  2  0  0  0  0
  8 26  2  0  0  0  0
  9 29  2  0  0  0  0
 10 31  1  0  0  0  0
 10 55  1  0  0  0  0
 11 32  1  0  0  0  0
 11 56  1  0  0  0  0
 12 33  1  0  0  0  0
 12 57  1  0  0  0  0
 13 16  1  0  0  0  0
 13 21  1  0  0  0  0
 13 29  1  0  0  0  0
 14 23  1  0  0  0  0
 14 25  1  0  0  0  0
 14 42  1  0  0  0  0
 15 24  1  0  0  0  0
 15 26  1  0  0  0  0
 15 43  1  0  0  0  0
 16 19  2  0  0  0  0
 16 20  1  0  0  0  0
 17 20  2  0  0  0  0
 17 22  1  0  0  0  0
 17 25  1  0  0  0  0
 18 19  1  0  0  0  0
 18 22  2  0  0  0  0
 18 26  1  0  0  0  0
 21 30  1  0  0  0  0
 21 34  1  0  0  0  0
 21 35  1  0  0  0  0
 23 27  1  0  0  0  0
 23 36  1  0  0  0  0
 23 37  1  0  0  0  0
 24 28  1  0  0  0  0
 24 38  1  0  0  0  0
 24 39  1  0  0  0  0
 27 31  1  0  0  0  0
 27 40  1  0  0  0  0
 28 32  1  0  0  0  0
 28 41  1  0  0  0  0
 29 33  1  0  0  0  0
 30 44  1  0  0  0  0
 30 45  1  0  0  0  0
 31 46  1  0  0  0  0
 31 47  1  0  0  0  0
 32 48  1  0  0  0  0
 32 49  1  0  0  0  0
 33 50  1  0  0  0  0
 33 51  1  0  0  0  0
M  END
> <PUBCHEM_COMPOUND_CID>
3741

> <PUBCHEM_COMPOUND_CANONICALIZED>
1

> <PUBCHEM_CACTVS_COMPLEXITY>
623

> <PUBCHEM_CACTVS_HBOND_ACCEPTOR>
9

> <PUBCHEM_CACTVS_HBOND_DONOR>
8

> <PUBCHEM_CACTVS_ROTATABLE_BOND>
12

> <PUBCHEM_CACTVS_SUBSKEYS>
AAADceB7PAAAAwAAAAAAAAAAAAAAAAAAAAAwAAAAAAAAAAABAAAAHgAwCAAADBzjmAYAwIPAAgCIAgVQUAKCAAAlAAAAiIFIRMgLMDLAlJGEYQhilgDZyQcci0COAAACQAAAAAAAAASAAAAAAAAAAAAAAA==

> <PUBCHEM_IUPAC_OPENEYE_NAME>
N1,N3-bis(2,3-dihydroxypropyl)-5-[(2-hydroxyacetyl)-(2-hydroxyethyl)amino]-2,4,6-triiodo-benzene-1,3-dicarboxamide

> <PUBCHEM_IUPAC_CAS_NAME>
N1,N3-bis(2,3-dihydroxypropyl)-5-[2-hydroxyethyl-(2-hydroxy-1-oxoethyl)amino]-2,4,6-triiodobenzene-1,3-dicarboxamide

> <PUBCHEM_IUPAC_NAME>
1-N,3-N-bis(2,3-dihydroxypropyl)-5-[(2-hydroxyacetyl)-(2-hydroxyethyl)amino]-2,4,6-triiodobenzene-1,3-dicarboxamide

> <PUBCHEM_IUPAC_SYSTEMATIC_NAME>
N1,N3-bis[2,3-bis(oxidanyl)propyl]-5-[2-hydroxyethyl(2-oxidanylethanoyl)amino]-2,4,6-tris(iodanyl)benzene-1,3-dicarboxamide

> <PUBCHEM_IUPAC_TRADITIONAL_NAME>
N,N'-diglyceryl-5-[glycoloyl(2-hydroxyethyl)amino]-2,4,6-triiodo-isophthalamide

> <PUBCHEM_IUPAC_INCHI>
InChI=1S/C18H24I3N3O9/c19-13-11(17(32)22-3-8(29)5-26)14(20)16(24(1-2-25)10(31)7-28)15(21)12(13)18(33)23-4-9(30)6-27/h8-9,25-30H,1-7H2,(H,22,32)(H,23,33)

> <PUBCHEM_IUPAC_INCHIKEY>
AMDBBAQNWSUWGN-UHFFFAOYSA-N

> <PUBCHEM_XLOGP3>
-3

> <PUBCHEM_EXACT_MASS>
806.864673

> <PUBCHEM_MOLECULAR_FORMULA>
C18H24I3N3O9

> <PUBCHEM_MOLECULAR_WEIGHT>
807.11127

> <PUBCHEM_OPENEYE_CAN_SMILES>
C(CO)N(C1=C(C(=C(C(=C1I)C(=O)NCC(CO)O)I)C(=O)NCC(CO)O)I)C(=O)CO

> <PUBCHEM_OPENEYE_ISO_SMILES>
C(CO)N(C1=C(C(=C(C(=C1I)C(=O)NCC(CO)O)I)C(=O)NCC(CO)O)I)C(=O)CO

> <PUBCHEM_CACTVS_TPSA>
200

> <PUBCHEM_MONOISOTOPIC_WEIGHT>
806.864673

> <PUBCHEM_TOTAL_CHARGE>
0

> <PUBCHEM_HEAVY_ATOM_COUNT>
33

> <PUBCHEM_ATOM_DEF_STEREO_COUNT>
0

> <PUBCHEM_ATOM_UDEF_STEREO_COUNT>
2

> <PUBCHEM_BOND_DEF_STEREO_COUNT>
0

> <PUBCHEM_BOND_UDEF_STEREO_COUNT>
0

> <PUBCHEM_ISOTOPIC_ATOM_COUNT>
0

> <PUBCHEM_COMPONENT_COUNT>
1

> <PUBCHEM_CACTVS_TAUTO_COUNT>
3

> <PUBCHEM_COORDINATE_TYPE>
1
5
255

> <PUBCHEM_BONDANNOTATIONS>
16  19  8
16  20  8
17  20  8
17  22  8
18  19  8
18  22  8
27  4  3
28  5  3

$$$$

