   Color/Form
        Crystalline solid
   from [1]HSDB

   Melting Point
        202 deg C
   from [2]HSDB

   Octanol/Water Partition Coefficient
        log Kow = 2.60
   from [3]HSDB

   Solubilities
        Soluble in methanol and dimethyl sulfoxide
   from [4]HSDB

   Other Chemical/Physical Properties
        Stable under moderately acidic and alkaline conditions and in cold
   dilute aqueous solutions protected from light; Rapidly degrades in
   dilute hypochlorite; deactivated by weakly acidic nitrite solution with
   replacement of the 2-amino group by hydroxyl
   from [5]HSDB

   Computed Properties
   Molecular Weight                  183.20926 [g/mol]
   Molecular Formula                 C[11]H[9]N[3]
   XLogP3                            2.6
   H-Bond Donor                      2
   H-Bond Acceptor                   2
   Rotatable Bond Count              0
   Tautomer Count                    6
   Exact Mass                        183.079647
   MonoIsotopic Mass                 183.079647
   Topological Polar Surface Area    54.7
   Heavy Atom Count                  14
   Formal Charge                     0
   Complexity                        219
   Isotope Atom Count                0
   Defined Atom Stereocenter Count   0
   Undefined Atom Stereocenter Count 0
   Defined Bond Stereocenter Count   0
   Undefined Bond Stereocenter Count 0
   Covalently-Bonded Unit Count      1
   Feature 3D Donor Count            2
   Feature 3D Cation Count           2
   Feature 3D Ring Count             3
   Effective Rotor Count             0
   Conformer Sampling RMSD           0.4
   CID Conformer Count               [6]1

References

   1. http://toxnet.nlm.nih.gov/cgi-bin/sis/search/r?dbs+hsdb:@term+@rn+@rel+26148-68-5
   2. http://toxnet.nlm.nih.gov/cgi-bin/sis/search/r?dbs+hsdb:@term+@rn+@rel+26148-68-5
   3. http://toxnet.nlm.nih.gov/cgi-bin/sis/search/r?dbs+hsdb:@term+@rn+@rel+26148-68-5
   4. http://toxnet.nlm.nih.gov/cgi-bin/sis/search/r?dbs+hsdb:@term+@rn+@rel+26148-68-5
   5. http://toxnet.nlm.nih.gov/cgi-bin/sis/search/r?dbs+hsdb:@term+@rn+@rel+26148-68-5
   6. http://pubchem.ncbi.nlm.nih.gov/vw3d/vw3d.cgi?cid=62805
