   Color/Form
        Crystals
   from [1]HSDB

   Melting Point
        101 deg C
   from [2]HSDB

   Dissociation Constants
        pKa = 9.74 (amine) (est)
   from [3]HSDB

   Octanol/Water Partition Coefficient
        log Kow = 4.25
   from [4]HSDB

   Solubilities

     * Slightly soluble in ethanol; readily soluble in methanol
     * In water, 25.1 mg/L at 25 deg C (est)

   from [5]HSDB

   Vapor Pressure
        5.42 mm Hg at 25 deg C (est)
   from [6]HSDB

   Other Chemical/Physical Properties

     * Fluffy white powder, mp 238 deg C. Solubility in water (mg/100 mL)
       at 30 deg C: 220 (ph 3.8), 280 (pH 5.5), 290 (pH 6.7), 264 (pH
       7.9), 244 (pH 9.2-10.1) /Hydrochloride/
     * Henry's Law constant = 2.44X10-10 atm-cu m/mol at 25 deg C (est)
     * Hydroxyl radical reaction rate constant = 1.79X10-10 cu
       cm/molec-sec at 25 deg C (est)

   from [7]HSDB

   Computed Properties
   Molecular Weight                  311.46106 [g/mol]
   Molecular Formula                 C[21]H[29]NO
   XLogP3                            4.3
   H-Bond Donor                      1
   H-Bond Acceptor                   2
   Rotatable Bond Count              5
   Exact Mass                        311.224915
   MonoIsotopic Mass                 311.224915
   Topological Polar Surface Area    23.5
   Heavy Atom Count                  23
   Formal Charge                     0
   Complexity                        422
   Isotope Atom Count                0
   Defined Atom Stereocenter Count   0
   Undefined Atom Stereocenter Count 4
   Defined Bond Stereocenter Count   0
   Undefined Bond Stereocenter Count 0
   Covalently-Bonded Unit Count      1
   Feature 3D Acceptor Count         1
   Feature 3D Donor Count            1
   Feature 3D Cation Count           1
   Feature 3D Ring Count             3
   Effective Rotor Count             6.8
   Conformer Sampling RMSD           0.8
   CID Conformer Count               [8]88

References

   1. http://toxnet.nlm.nih.gov/cgi-bin/sis/search/r?dbs+hsdb:@term+@rn+@rel+514-65-8
   2. http://toxnet.nlm.nih.gov/cgi-bin/sis/search/r?dbs+hsdb:@term+@rn+@rel+514-65-8
   3. http://toxnet.nlm.nih.gov/cgi-bin/sis/search/r?dbs+hsdb:@term+@rn+@rel+514-65-8
   4. http://toxnet.nlm.nih.gov/cgi-bin/sis/search/r?dbs+hsdb:@term+@rn+@rel+514-65-8
   5. http://toxnet.nlm.nih.gov/cgi-bin/sis/search/r?dbs+hsdb:@term+@rn+@rel+514-65-8
   6. http://toxnet.nlm.nih.gov/cgi-bin/sis/search/r?dbs+hsdb:@term+@rn+@rel+514-65-8
   7. http://toxnet.nlm.nih.gov/cgi-bin/sis/search/r?dbs+hsdb:@term+@rn+@rel+514-65-8
   8. http://pubchem.ncbi.nlm.nih.gov/vw3d/vw3d.cgi?cid=2381
