   Color/Form
        PALE YELLOW NEEDLES IN XYLENE; YELLOW-RED IN CONCN SULFURIC ACID
   SOLN
   from [1]HSDB

   Melting Point
        233.5 DEG C
   from [2]HSDB

   Solubilities
        SLIGHTLY SOL IN ALCOHOL, ACETONE, BENZENE, ACETIC ACID; SOL IN
   CONCN SULFURIC ACID & HOT TOLUENE
   from [3]HSDB

   Spectral Properties

     * MAX ABSORPTION: 294.5 NM (LOG E= 4.72), 306.5 NM (LOG E= 4.83), 343
       NM (LOG E= 4.06), 360 NM (LOG E= 4.24); MAX ABSORPTION: 378 NM (LOG
       E= 4.30), 396 NM (LOG E= 3.24), 416 NM (LOG E= 2.84)
     * IR: 3546 (Coblentz Society Spectral Collection)
     * UV: 7-1045 (Organic Electronic Spectral Data, Phillips et al, John
       Wiley & Sons, New York)
     * MASS: 2020 (National Bureau of Standards EPA-NIH Mass Spectra Data
       Base, NSRDS-NBS-63)

   from [4]HSDB

   Other Chemical/Physical Properties
        ...OXIDIZED BY NA2CR2O7 IN GLACIAL ACETIC ACID FIRST TO
   DIBENZO(A,E)PYRENE-8,14-QUINONE & THEN TO 9,14-DIOXO-9,14-
   DIHYDRO-DIBENZ(A,C)ANTHRACENE CARBOXYLIC ACID. DB(A,E)P REACTS WITH BR2
   OR ACETYLCHLORIDE TO GIVE MONO SUBSTITUTION PRODUCTS
   1-BROMODIBENZO(A,E)PYRENE OR 1-ACETODIBENZO(A,E)PYRENE.
   from [5]HSDB

   Computed Properties
   Molecular Weight                  302.36796 [g/mol]
   Molecular Formula                 C[24]H[14]
   XLogP3-AA                         7.3
   H-Bond Donor                      0
   H-Bond Acceptor                   0
   Rotatable Bond Count              0
   Exact Mass                        302.10955
   MonoIsotopic Mass                 302.10955
   Topological Polar Surface Area    0
   Heavy Atom Count                  24
   Formal Charge                     0
   Complexity                        480
   Isotope Atom Count                0
   Defined Atom Stereocenter Count   0
   Undefined Atom Stereocenter Count 0
   Defined Bond Stereocenter Count   0
   Undefined Bond Stereocenter Count 0
   Covalently-Bonded Unit Count      1
   Feature 3D Ring Count             6
   Effective Rotor Count             0
   Conformer Sampling RMSD           0.6
   CID Conformer Count               [6]1

References

   1. http://toxnet.nlm.nih.gov/cgi-bin/sis/search/r?dbs+hsdb:@term+@rn+@rel+192-65-4
   2. http://toxnet.nlm.nih.gov/cgi-bin/sis/search/r?dbs+hsdb:@term+@rn+@rel+192-65-4
   3. http://toxnet.nlm.nih.gov/cgi-bin/sis/search/r?dbs+hsdb:@term+@rn+@rel+192-65-4
   4. http://toxnet.nlm.nih.gov/cgi-bin/sis/search/r?dbs+hsdb:@term+@rn+@rel+192-65-4
   5. http://toxnet.nlm.nih.gov/cgi-bin/sis/search/r?dbs+hsdb:@term+@rn+@rel+192-65-4
   6. http://pubchem.ncbi.nlm.nih.gov/vw3d/vw3d.cgi?cid=9126
