   Melting Point
        58 deg C
   from [1]HSDB

   Dissociation Constants
        pKa= 9.01 +/- 0.05
   from [2]HSDB

   Octanol/Water Partition Coefficient
        log Kow = -0.56 @ 25 deg C /Estimated/
   from [3]HSDB

   Solubilities
        In water, 1X10+6 mg/L @ 25 deg C /Estimated/
   from [4]HSDB

   Spectral Properties
        SPECIFIC OPTICAL ROTATION: 124 DEG (ETHANOL, 1%)
   from [5]HSDB

   Vapor Pressure
        1.5X10-5 mm Hg @ 25 deg C /Estimated/
   from [6]HSDB

   Other Chemical/Physical Properties

     * Henry's Law constant = 4.1X10-11 atm-cu m/mol @ 25 deg C
       /Estimated/
     * Hydroxyl radical reaction rate constant = 1.2X10-10 cu cm/molec-sec
       @ 25 deg C /Estimated/

   from [7]HSDB

   Computed Properties
   Molecular Weight                  155.19432 [g/mol]
   Molecular Formula                 C[8]H[13]NO[2]
   XLogP3-AA                         -1.3
   H-Bond Donor                      2
   H-Bond Acceptor                   3
   Rotatable Bond Count              1
   Exact Mass                        155.094629
   MonoIsotopic Mass                 155.094629
   Topological Polar Surface Area    43.7
   Heavy Atom Count                  11
   Formal Charge                     0
   Complexity                        191
   Isotope Atom Count                0
   Defined Atom Stereocenter Count   2
   Undefined Atom Stereocenter Count 0
   Defined Bond Stereocenter Count   0
   Undefined Bond Stereocenter Count 0
   Covalently-Bonded Unit Count      1
   Feature 3D Acceptor Count         2
   Feature 3D Donor Count            2
   Feature 3D Cation Count           1
   Feature 3D Ring Count             2
   Effective Rotor Count             1.8
   Conformer Sampling RMSD           0.4
   CID Conformer Count               [8]6

References

   1. http://toxnet.nlm.nih.gov/cgi-bin/sis/search/r?dbs+hsdb:@term+@rn+@rel+520-63-8
   2. http://toxnet.nlm.nih.gov/cgi-bin/sis/search/r?dbs+hsdb:@term+@rn+@rel+520-63-8
   3. http://toxnet.nlm.nih.gov/cgi-bin/sis/search/r?dbs+hsdb:@term+@rn+@rel+520-63-8
   4. http://toxnet.nlm.nih.gov/cgi-bin/sis/search/r?dbs+hsdb:@term+@rn+@rel+520-63-8
   5. http://toxnet.nlm.nih.gov/cgi-bin/sis/search/r?dbs+hsdb:@term+@rn+@rel+520-63-8
   6. http://toxnet.nlm.nih.gov/cgi-bin/sis/search/r?dbs+hsdb:@term+@rn+@rel+520-63-8
   7. http://toxnet.nlm.nih.gov/cgi-bin/sis/search/r?dbs+hsdb:@term+@rn+@rel+520-63-8
   8. http://pubchem.ncbi.nlm.nih.gov/vw3d/vw3d.cgi?cid=442736
