46173837
  -OEChem-07051213092D

 68 70  0     1  0  0  0  0  0999 V2000
   11.5238    0.6588    0.0000 O   0  0  0  0  0  0  0  0  0  0  0  0
    8.2536   -0.4966    0.0000 C   0  0  1  0  0  0  0  0  0  0  0  0
    7.3297   -0.1139    0.0000 C   0  0  2  0  0  0  0  0  0  0  0  0
    6.6861   -0.8715    0.0000 C   0  0  2  0  0  0  0  0  0  0  0  0
    9.5602    0.8100    0.0000 C   0  0  1  0  0  0  0  0  0  0  0  0
    9.1775   -0.1139    0.0000 C   0  0  0  0  0  0  0  0  0  0  0  0
    8.1730   -1.4874    0.0000 C   0  0  0  0  0  0  0  0  0  0  0  0
    7.2062   -1.7186    0.0000 C   0  0  0  0  0  0  0  0  0  0  0  0
    9.1775    1.7339    0.0000 C   0  0  2  0  0  0  0  0  0  0  0  0
   10.5510    0.8906    0.0000 C   0  0  1  0  0  0  0  0  0  0  0  0
    6.9470    0.8100    0.0000 C   0  0  0  0  0  0  0  0  0  0  0  0
    5.6890   -0.7947    0.0000 C   0  0  2  0  0  0  0  0  0  0  0  0
    9.9351    2.3775    0.0000 C   0  0  0  0  0  0  0  0  0  0  0  0
    9.1775   -0.8792    0.0000 C   0  0  0  0  0  0  0  0  0  0  0  0
   10.7822    1.8574    0.0000 C   0  0  0  0  0  0  0  0  0  0  0  0
    8.2536    2.1166    0.0000 C   0  0  0  0  0  0  0  0  0  0  0  0
    7.3297    1.7339    0.0000 C   0  0  0  0  0  0  0  0  0  0  0  0
   10.6312   -0.1062    0.0000 C   0  0  0  0  0  0  0  0  0  0  0  0
    5.1241   -1.6198    0.0000 C   0  0  0  0  0  0  0  0  0  0  0  0
    5.2570    0.1071    0.0000 C   0  0  0  0  0  0  0  0  0  0  0  0
    8.2536    3.1166    0.0000 C   0  0  0  0  0  0  0  0  0  0  0  0
    4.1270   -1.5431    0.0000 C   0  0  0  0  0  0  0  0  0  0  0  0
    3.5620   -2.3682    0.0000 C   0  0  0  0  0  0  0  0  0  0  0  0
    2.5650   -2.2915    0.0000 C   0  0  0  0  0  0  0  0  0  0  0  0
    2.0000   -3.1166    0.0000 C   0  0  0  0  0  0  0  0  0  0  0  0
    2.1329   -1.3896    0.0000 C   0  0  0  0  0  0  0  0  0  0  0  0
    6.4900    0.0180    0.0000 H   0  0  0  0  0  0  0  0  0  0  0  0
    6.2429   -1.5968    0.0000 H   0  0  0  0  0  0  0  0  0  0  0  0
   10.0607    0.1230    0.0000 H   0  0  0  0  0  0  0  0  0  0  0  0
    9.2584   -0.7286    0.0000 H   0  0  0  0  0  0  0  0  0  0  0  0
    9.7922   -0.1948    0.0000 H   0  0  0  0  0  0  0  0  0  0  0  0
    8.2531   -2.1022    0.0000 H   0  0  0  0  0  0  0  0  0  0  0  0
    8.7929   -1.4724    0.0000 H   0  0  0  0  0  0  0  0  0  0  0  0
    6.6467   -1.9857    0.0000 H   0  0  0  0  0  0  0  0  0  0  0  0
    7.4130   -2.3031    0.0000 H   0  0  0  0  0  0  0  0  0  0  0  0
    9.0456    2.5736    0.0000 H   0  0  0  0  0  0  0  0  0  0  0  0
    6.4552    1.1874    0.0000 H   0  0  0  0  0  0  0  0  0  0  0  0
    6.4552    0.4326    0.0000 H   0  0  0  0  0  0  0  0  0  0  0  0
    6.0393   -0.2832    0.0000 H   0  0  0  0  0  0  0  0  0  0  0  0
   10.3132    2.8689    0.0000 H   0  0  0  0  0  0  0  0  0  0  0  0
    9.4862    2.8052    0.0000 H   0  0  0  0  0  0  0  0  0  0  0  0
    8.9402   -1.4520    0.0000 H   0  0  0  0  0  0  0  0  0  0  0  0
    9.7503   -1.1165    0.0000 H   0  0  0  0  0  0  0  0  0  0  0  0
    9.4148   -0.3064    0.0000 H   0  0  0  0  0  0  0  0  0  0  0  0
   11.3667    1.6506    0.0000 H   0  0  0  0  0  0  0  0  0  0  0  0
   11.0493    2.4169    0.0000 H   0  0  0  0  0  0  0  0  0  0  0  0
    6.8913    2.1723    0.0000 H   0  0  0  0  0  0  0  0  0  0  0  0
   10.0132   -0.1559    0.0000 H   0  0  0  0  0  0  0  0  0  0  0  0
   10.6809   -0.7242    0.0000 H   0  0  0  0  0  0  0  0  0  0  0  0
   11.2492   -0.0565    0.0000 H   0  0  0  0  0  0  0  0  0  0  0  0
    4.9699   -2.2203    0.0000 H   0  0  0  0  0  0  0  0  0  0  0  0
    5.6887   -1.8760    0.0000 H   0  0  0  0  0  0  0  0  0  0  0  0
    5.8161    0.3750    0.0000 H   0  0  0  0  0  0  0  0  0  0  0  0
    4.9891    0.6663    0.0000 H   0  0  0  0  0  0  0  0  0  0  0  0
    4.6978   -0.1608    0.0000 H   0  0  0  0  0  0  0  0  0  0  0  0
   11.9498    1.1093    0.0000 H   0  0  0  0  0  0  0  0  0  0  0  0
    8.8736    3.1166    0.0000 H   0  0  0  0  0  0  0  0  0  0  0  0
    8.2536    3.7366    0.0000 H   0  0  0  0  0  0  0  0  0  0  0  0
    7.6336    3.1166    0.0000 H   0  0  0  0  0  0  0  0  0  0  0  0
    4.2812   -0.9426    0.0000 H   0  0  0  0  0  0  0  0  0  0  0  0
    3.5624   -1.2870    0.0000 H   0  0  0  0  0  0  0  0  0  0  0  0
    3.8299   -2.9273    0.0000 H   0  0  0  0  0  0  0  0  0  0  0  0
    1.4884   -2.7663    0.0000 H   0  0  0  0  0  0  0  0  0  0  0  0
    1.6497   -3.6281    0.0000 H   0  0  0  0  0  0  0  0  0  0  0  0
    2.5116   -3.4668    0.0000 H   0  0  0  0  0  0  0  0  0  0  0  0
    2.6920   -1.1217    0.0000 H   0  0  0  0  0  0  0  0  0  0  0  0
    1.8650   -0.8305    0.0000 H   0  0  0  0  0  0  0  0  0  0  0  0
    1.5738   -1.6575    0.0000 H   0  0  0  0  0  0  0  0  0  0  0  0
 10  1  1  1  0  0  0
  1 56  1  0  0  0  0
  2  3  1  0  0  0  0
  2  6  1  0  0  0  0
  2  7  1  0  0  0  0
  2 14  1  6  0  0  0
  3  4  1  0  0  0  0
  3 11  1  0  0  0  0
  3 27  1  1  0  0  0
  4  8  1  0  0  0  0
  4 12  1  0  0  0  0
  4 28  1  1  0  0  0
  5  6  1  0  0  0  0
  5  9  1  0  0  0  0
  5 10  1  0  0  0  0
  5 29  1  6  0  0  0
  6 30  1  0  0  0  0
  6 31  1  0  0  0  0
  7  8  1  0  0  0  0
  7 32  1  0  0  0  0
  7 33  1  0  0  0  0
  8 34  1  0  0  0  0
  8 35  1  0  0  0  0
  9 13  1  0  0  0  0
  9 16  1  0  0  0  0
  9 36  1  6  0  0  0
 10 15  1  0  0  0  0
 10 18  1  0  0  0  0
 11 17  1  0  0  0  0
 11 37  1  0  0  0  0
 11 38  1  0  0  0  0
 12 19  1  0  0  0  0
 12 20  1  6  0  0  0
 12 39  1  0  0  0  0
 13 15  1  0  0  0  0
 13 40  1  0  0  0  0
 13 41  1  0  0  0  0
 14 42  1  0  0  0  0
 14 43  1  0  0  0  0
 14 44  1  0  0  0  0
 15 45  1  0  0  0  0
 15 46  1  0  0  0  0
 16 17  2  0  0  0  0
 16 21  1  0  0  0  0
 17 47  1  0  0  0  0
 18 48  1  0  0  0  0
 18 49  1  0  0  0  0
 18 50  1  0  0  0  0
 19 22  1  0  0  0  0
 19 51  1  0  0  0  0
 19 52  1  0  0  0  0
 20 53  1  0  0  0  0
 20 54  1  0  0  0  0
 20 55  1  0  0  0  0
 21 57  1  0  0  0  0
 21 58  1  0  0  0  0
 21 59  1  0  0  0  0
 22 23  1  0  0  0  0
 22 60  1  0  0  0  0
 22 61  1  0  0  0  0
 23 24  2  0  0  0  0
 23 62  1  0  0  0  0
 24 25  1  0  0  0  0
 24 26  1  0  0  0  0
 25 63  1  0  0  0  0
 25 64  1  0  0  0  0
 25 65  1  0  0  0  0
 26 66  1  0  0  0  0
 26 67  1  0  0  0  0
 26 68  1  0  0  0  0
M  END
> <PUBCHEM_COMPOUND_CID>
46173837

> <PUBCHEM_COMPOUND_CANONICALIZED>
1

> <PUBCHEM_CACTVS_COMPLEXITY>
569

> <PUBCHEM_CACTVS_HBOND_ACCEPTOR>
1

> <PUBCHEM_CACTVS_HBOND_DONOR>
1

> <PUBCHEM_CACTVS_ROTATABLE_BOND>
4

> <PUBCHEM_CACTVS_SUBSKEYS>
AAADcfB4IAAAAAAAAAAAAAAAAAAAAYMAAAAAAAAAAAAQAAAAAAAAGgAACAAAD0SAgAACAAAAAgCAAiBCAAAAAAAgAAAACAAAAAgAAAIAAQAAQAAEgAAIAAOAwPAPgAAAAAAAAAAAAAAAAAAAAYAADAAAAA==

> <PUBCHEM_IUPAC_INCHI>
InChI=1S/C25H42O/c1-17(2)8-7-9-18(3)20-12-14-24(5)16-23-21(13-15-25(23,6)26)19(4)10-11-22(20)24/h8,10,18,20-23,26H,7,9,11-16H2,1-6H3/b19-10-/t18-,20+,21+,22-,23-,24+,25+/m0/s1

> <PUBCHEM_IUPAC_INCHIKEY>
JNYWQVTXIGGOTC-AIKDQUDGSA-N

> <PUBCHEM_XLOGP3_AA>
7.1

> <PUBCHEM_EXACT_MASS>
358.323566

> <PUBCHEM_MOLECULAR_FORMULA>
C25H42O

> <PUBCHEM_MOLECULAR_WEIGHT>
358.60038

> <PUBCHEM_OPENEYE_CAN_SMILES>
CC1=CCC2C(CCC2(CC3C1CCC3(C)O)C)C(C)CCC=C(C)C

> <PUBCHEM_OPENEYE_ISO_SMILES>
C/C/1=C/C[C@H]2[C@H](CC[C@@]2(C[C@H]3[C@@H]1CC[C@@]3(C)O)C)[C@@H](C)CCC=C(C)C

> <PUBCHEM_CACTVS_TPSA>
20.2

> <PUBCHEM_MONOISOTOPIC_WEIGHT>
358.323566

> <PUBCHEM_TOTAL_CHARGE>
0

> <PUBCHEM_HEAVY_ATOM_COUNT>
26

> <PUBCHEM_ATOM_DEF_STEREO_COUNT>
7

> <PUBCHEM_ATOM_UDEF_STEREO_COUNT>
0

> <PUBCHEM_BOND_DEF_STEREO_COUNT>
1

> <PUBCHEM_BOND_UDEF_STEREO_COUNT>
0

> <PUBCHEM_ISOTOPIC_ATOM_COUNT>
0

> <PUBCHEM_COMPONENT_COUNT>
1

> <PUBCHEM_CACTVS_TAUTO_COUNT>
1

> <PUBCHEM_COORDINATE_TYPE>
1
5
255

> <PUBCHEM_BONDANNOTATIONS>
10  1  5
12  20  6
2  14  6
3  27  5
4  28  5
5  29  6
9  36  6

$$$$

