   Color/Form

     * Colorless oily liquid
     * WHITE CRYSTALS
     * Colorless fuming, oily liquid ... (Note: A solid below 36 degrees
       F).
     * Anhydrous hydrazine is a waxy solid.

   from [1]HSDB

   Odor

     * Penetrating odor resembling ammonia.
     * ... Ammonia-like odor ...

   from [2]HSDB

   Boiling Point
        113.5 deg C at 760 mm Hg
   from [3]HSDB

   Melting Point
        2.0 deg C
   from [4]HSDB

   Critical Temperature and Pressure
        Critical temperature: 380 deg C; critical pressure: 14 atm
   from [5]HSDB

   Density/Specific Gravity
        1.011 at 15 deg C/4 deg C; 1.0036 at 25 deg C/4 deg C; 0.9955 at
   35 deg C/4 deg C; 1.0253 at 0 deg C/4 deg C; 1.024 at 2 deg C/4 deg C;
   1.146 at -5 deg C/4 deg C
   from [6]HSDB

   Dissociation Constants
        pKa= 7.96
   from [7]HSDB

   Heat of Combustion
        -8345 BTU/LB = -4636 CAL/G = -194.1X10+5 J/KG
   from [8]HSDB

   Heat of Vaporization
        45.27 kJ/mol
   from [9]HSDB

   Octanol/Water Partition Coefficient
        log Kow= -2.07
   from [10]HSDB

   pH
        Aqueous solutions of hydrazine are highly alkaline. pH of a 64 wt%
   aqueous solution of hydrazine is 12.75.
   from [11]HSDB

   Solubilities

     * Miscible with methyl, ethyl, propyl, and isobutyl alcohols
     * SLIGHTLY MISCIBLE WITH HYDROCARBONS, HALOGENATED HYDROCARBONS
     * Insoluble in chloroform and ether
     * Miscible [Amoore JE, Hautala E; J Appl Toxicol 3:272-290 (1983)]
       [12]PubMed Abstract

   from [13]HSDB

   Spectral Properties
        Index of refraction: 1.46979 @ 22.3 deg C/D; 1.46444 @ 35 deg C/D
   from [14]HSDB

   Surface Tension
        66.7 mN/m at 25 deg C
   from [15]HSDB

   Vapor Pressure
        14.4 mm Hg at 25 deg C
   from [16]HSDB

   Viscosity
        0.974 uPa-sec at 20 deg C
   from [17]HSDB

   Other Chemical/Physical Properties

     * Forms salts with inorganic acids. Highly polar solvent. Powerful
       reducing agent.
     * Contracts on freezing. ...One gallon of commercial product weighs
       8.38 lbs. ...Dissolves many inorganic substances. ...Forms an
       azeotropic mixture with water, boiling point (at 760 mm Hg) 120.3
       deg C, which contains 55 mole-% (68.5 weight-%) N2H4.
     * Heat capacity: 3.0778 J/gram deg K at 1 atm, 25 deg C
     * Dipole moment 1.83-1.90 debyes. Dielectric constant (25 deg C):
       51.7. Latent heat of fusion (mp): 3.025 kcal/mole.
     * Ionization potential: 8.36 eV
     * Fuming refractive liquid, faint characteristic odor. ...Density
       1.03 at 21 deg C; MP: -51.7 deg C or below -65 deg C (two
       eutectics); BP: 118-19 deg C at 740 mm Hg; Index of refraction:
       1.42842 at 20 deg C/d. /Hydrazine hydrate/
     * Strong base, very corrosive, attacks glass, rubber, cork... Very
       powerful reducing agent. Miscible with water and alcohol; insol in
       chloroform and ether. /Hydrazine hydrate/
     * Surface tension 74.3 mN/m at 25 deg C, viscosity: 1.5 mPa.s at 25
       deg C, index of refraction: 1.4644 at 25 deg C/d, heat of formation
       -242.71 kJ/mol /Hydrazine hydrate/
     * Solubility: 282.0 g/100 g water at 25 deg C; Melting point= 86.5
       deg C /Hydrazine monohydrobromide/
     * MP: 127 deg C; sol in water at 25 deg C /Hydrazine monohydroiodide/
     * MP: 70.71 deg C, alpha, 62.09, beta; solubility: 327.5 g/100 g
       water at 25 deg C /Hydrazine nitrate/
     * Diacidic base
     * Boiling point= 56 deg C at 71 mm Hg; 170 deg at 5 atm; 200 deg C at
       10 atm; 236 deg C at 20 atm
     * Heat of formation= 50.63 kJ/mol; Anhydrous hydrazine is
       self-explosive.
     * Hydroxyl radical reaction rate constant = 6.50X10-11 cu-cm/molc sec
       at 25 deg C
     * Henry's Law constant = 6.1X10-7 atm-cu m/mol at 25 deg C
       /Estimated/

   from [18]HSDB

   Computed Properties
   Molecular Weight                  32.04516 [g/mol]
   Molecular Formula                 H[4]N[2]
   XLogP3-AA                         -1.5
   H-Bond Donor                      2
   H-Bond Acceptor                   2
   Rotatable Bond Count              0
   Exact Mass                        32.037448
   MonoIsotopic Mass                 32.037448
   Topological Polar Surface Area    52
   Heavy Atom Count                  2
   Formal Charge                     0
   Complexity                        0
   Isotope Atom Count                0
   Defined Atom Stereocenter Count   0
   Undefined Atom Stereocenter Count 0
   Defined Bond Stereocenter Count   0
   Undefined Bond Stereocenter Count 0
   Covalently-Bonded Unit Count      1
   Effective Rotor Count             0
   Conformer Sampling RMSD           0.4
   CID Conformer Count               [19]1

References

   1. http://toxnet.nlm.nih.gov/cgi-bin/sis/search/r?dbs+hsdb:@term+@rn+@rel+302-01-2
   2. http://toxnet.nlm.nih.gov/cgi-bin/sis/search/r?dbs+hsdb:@term+@rn+@rel+302-01-2
   3. http://toxnet.nlm.nih.gov/cgi-bin/sis/search/r?dbs+hsdb:@term+@rn+@rel+302-01-2
   4. http://toxnet.nlm.nih.gov/cgi-bin/sis/search/r?dbs+hsdb:@term+@rn+@rel+302-01-2
   5. http://toxnet.nlm.nih.gov/cgi-bin/sis/search/r?dbs+hsdb:@term+@rn+@rel+302-01-2
   6. http://toxnet.nlm.nih.gov/cgi-bin/sis/search/r?dbs+hsdb:@term+@rn+@rel+302-01-2
   7. http://toxnet.nlm.nih.gov/cgi-bin/sis/search/r?dbs+hsdb:@term+@rn+@rel+302-01-2
   8. http://toxnet.nlm.nih.gov/cgi-bin/sis/search/r?dbs+hsdb:@term+@rn+@rel+302-01-2
   9. http://toxnet.nlm.nih.gov/cgi-bin/sis/search/r?dbs+hsdb:@term+@rn+@rel+302-01-2
  10. http://toxnet.nlm.nih.gov/cgi-bin/sis/search/r?dbs+hsdb:@term+@rn+@rel+302-01-2
  11. http://toxnet.nlm.nih.gov/cgi-bin/sis/search/r?dbs+hsdb:@term+@rn+@rel+302-01-2
  12. http://www.ncbi.nlm.nih.gov/entrez/query.fcgi?cmd=Retrieve&db=pubmed&dopt=Abstract&list_uids=6376602
  13. http://toxnet.nlm.nih.gov/cgi-bin/sis/search/r?dbs+hsdb:@term+@rn+@rel+302-01-2
  14. http://toxnet.nlm.nih.gov/cgi-bin/sis/search/r?dbs+hsdb:@term+@rn+@rel+302-01-2
  15. http://toxnet.nlm.nih.gov/cgi-bin/sis/search/r?dbs+hsdb:@term+@rn+@rel+302-01-2
  16. http://toxnet.nlm.nih.gov/cgi-bin/sis/search/r?dbs+hsdb:@term+@rn+@rel+302-01-2
  17. http://toxnet.nlm.nih.gov/cgi-bin/sis/search/r?dbs+hsdb:@term+@rn+@rel+302-01-2
  18. http://toxnet.nlm.nih.gov/cgi-bin/sis/search/r?dbs+hsdb:@term+@rn+@rel+302-01-2
  19. http://pubchem.ncbi.nlm.nih.gov/vw3d/vw3d.cgi?cid=9321
