   Color/Form

     * Microcrystalline powder
     * Yellow green powder

   from [1]HSDB

   Odor
        Strong garlic/sulfur odor
   from [2]HSDB

   Melting Point
        154-158 deg C
   from [3]HSDB

   Octanol/Water Partition Coefficient
        log Kow = 1.09
   from [4]HSDB

   Solubilities

     * Readily soluble in ethanol, diethyl ether, acetone, and chloroform.
       Insoluble in hexane.
     * In water, 0.26 g/L at 25 deg C

   from [5]HSDB

   Spectral Properties

     * UV max = 217
     * Specific optical rotation = -53 degrees (C=0.5 in chloroform)

   from [6]HSDB

   Vapor Pressure
        2.7X10-11 mm Hg at 25 deg C
   from [7]HSDB

   Other Chemical/Physical Properties

     * Henry's Law constant = 2.8X10-25 atm-cu m/mole at 25 deg C (est)
     * Hydroxyl radical reaction rate constant = 2.3X10-10 cu cm/molec-sec
       at 25 deg C (est)

   from [8]HSDB

   Computed Properties
   Molecular Weight                  720.71426 [g/mol]
   Molecular Formula                 C[35]H[44]O[16]
   XLogP3-AA                         -0.6
   H-Bond Donor                      3
   H-Bond Acceptor                   16
   Rotatable Bond Count              10
   Exact Mass                        720.262935
   MonoIsotopic Mass                 720.262935
   Topological Polar Surface Area    215
   Heavy Atom Count                  51
   Formal Charge                     0
   Complexity                        1660
   Isotope Atom Count                0
   Defined Atom Stereocenter Count   16
   Undefined Atom Stereocenter Count 0
   Defined Bond Stereocenter Count   1
   Undefined Bond Stereocenter Count 0
   Covalently-Bonded Unit Count      1

References

   1. http://toxnet.nlm.nih.gov/cgi-bin/sis/search/r?dbs+hsdb:@term+@rn+@rel+11141-17-6
   2. http://toxnet.nlm.nih.gov/cgi-bin/sis/search/r?dbs+hsdb:@term+@rn+@rel+11141-17-6
   3. http://toxnet.nlm.nih.gov/cgi-bin/sis/search/r?dbs+hsdb:@term+@rn+@rel+11141-17-6
   4. http://toxnet.nlm.nih.gov/cgi-bin/sis/search/r?dbs+hsdb:@term+@rn+@rel+11141-17-6
   5. http://toxnet.nlm.nih.gov/cgi-bin/sis/search/r?dbs+hsdb:@term+@rn+@rel+11141-17-6
   6. http://toxnet.nlm.nih.gov/cgi-bin/sis/search/r?dbs+hsdb:@term+@rn+@rel+11141-17-6
   7. http://toxnet.nlm.nih.gov/cgi-bin/sis/search/r?dbs+hsdb:@term+@rn+@rel+11141-17-6
   8. http://toxnet.nlm.nih.gov/cgi-bin/sis/search/r?dbs+hsdb:@term+@rn+@rel+11141-17-6
