441321
  -OEChem-07051212542D

 25 27  0     0  0  0  0  0  0999 V2000
    6.6498    1.3934    0.0000 O   0  0  0  0  0  0  0  0  0  0  0  0
    8.0321   -0.1182    0.0000 O   0  0  0  0  0  0  0  0  0  0  0  0
    4.5274    0.7943    0.0000 C   0  0  0  0  0  0  0  0  0  0  0  0
    5.3364    0.2065    0.0000 C   0  0  0  0  0  0  0  0  0  0  0  0
    5.0274   -0.7445    0.0000 C   0  0  0  0  0  0  0  0  0  0  0  0
    3.7183    0.2065    0.0000 C   0  0  0  0  0  0  0  0  0  0  0  0
    4.0274   -0.7445    0.0000 C   0  0  0  0  0  0  0  0  0  0  0  0
    6.3518    0.4388    0.0000 C   0  0  0  0  0  0  0  0  0  0  0  0
    5.7123   -1.5293    0.0000 C   0  0  0  0  0  0  0  0  0  0  0  0
    2.7029    0.4388    0.0000 C   0  0  0  0  0  0  0  0  0  0  0  0
    3.3424   -1.5293    0.0000 C   0  0  0  0  0  0  0  0  0  0  0  0
    7.0547   -0.3299    0.0000 C   0  0  0  0  0  0  0  0  0  0  0  0
    6.7328   -1.3205    0.0000 C   0  0  0  0  0  0  0  0  0  0  0  0
    2.0000   -0.3299    0.0000 C   0  0  0  0  0  0  0  0  0  0  0  0
    2.3219   -1.3205    0.0000 C   0  0  0  0  0  0  0  0  0  0  0  0
    4.9422    1.2551    0.0000 H   0  0  0  0  0  0  0  0  0  0  0  0
    4.1125    1.2551    0.0000 H   0  0  0  0  0  0  0  0  0  0  0  0
    5.5139   -2.1167    0.0000 H   0  0  0  0  0  0  0  0  0  0  0  0
    2.5182    1.0306    0.0000 H   0  0  0  0  0  0  0  0  0  0  0  0
    3.5408   -2.1167    0.0000 H   0  0  0  0  0  0  0  0  0  0  0  0
    7.1459   -1.7829    0.0000 H   0  0  0  0  0  0  0  0  0  0  0  0
    1.3940   -0.1987    0.0000 H   0  0  0  0  0  0  0  0  0  0  0  0
    1.9088   -1.7829    0.0000 H   0  0  0  0  0  0  0  0  0  0  0  0
    7.2547    1.5293    0.0000 H   0  0  0  0  0  0  0  0  0  0  0  0
    8.4487   -0.5774    0.0000 H   0  0  0  0  0  0  0  0  0  0  0  0
  1  8  1  0  0  0  0
  1 24  1  0  0  0  0
  2 12  1  0  0  0  0
  2 25  1  0  0  0  0
  3  4  1  0  0  0  0
  3  6  1  0  0  0  0
  3 16  1  0  0  0  0
  3 17  1  0  0  0  0
  4  5  2  0  0  0  0
  4  8  1  0  0  0  0
  5  7  1  0  0  0  0
  5  9  1  0  0  0  0
  6  7  1  0  0  0  0
  6 10  2  0  0  0  0
  7 11  2  0  0  0  0
  8 12  2  0  0  0  0
  9 13  2  0  0  0  0
  9 18  1  0  0  0  0
 10 14  1  0  0  0  0
 10 19  1  0  0  0  0
 11 15  1  0  0  0  0
 11 20  1  0  0  0  0
 12 13  1  0  0  0  0
 13 21  1  0  0  0  0
 14 15  2  0  0  0  0
 14 22  1  0  0  0  0
 15 23  1  0  0  0  0
M  END
> <PUBCHEM_COMPOUND_CID>
441321

> <PUBCHEM_COMPOUND_CANONICALIZED>
1

> <PUBCHEM_CACTVS_COMPLEXITY>
241

> <PUBCHEM_CACTVS_HBOND_ACCEPTOR>
2

> <PUBCHEM_CACTVS_HBOND_DONOR>
2

> <PUBCHEM_CACTVS_ROTATABLE_BOND>
0

> <PUBCHEM_CACTVS_SUBSKEYS>
AAADccBwMAAAAAAAAAAAAAAAAAAAAYAAAAAwYAAAAAAAAGABQAAAGgAACAAADASAmAAwBoAAAgCAAiBCAAACAAAgIAAIiAAGiIgJJiKCERKAcAEkwBEJmAeAwPAOoAABAAAYQABAAAIAADCAAQAACAAAAA==

> <PUBCHEM_IUPAC_OPENEYE_NAME>
9H-fluorene-1,2-diol

> <PUBCHEM_IUPAC_CAS_NAME>
9H-fluorene-1,2-diol

> <PUBCHEM_IUPAC_NAME>
9H-fluorene-1,2-diol

> <PUBCHEM_IUPAC_SYSTEMATIC_NAME>
9H-fluorene-1,2-diol

> <PUBCHEM_IUPAC_TRADITIONAL_NAME>
9H-fluorene-1,2-diol

> <PUBCHEM_IUPAC_INCHI>
InChI=1S/C13H10O2/c14-12-6-5-10-9-4-2-1-3-8(9)7-11(10)13(12)15/h1-6,14-15H,7H2

> <PUBCHEM_IUPAC_INCHIKEY>
ZQLOWXRDVDYRGA-UHFFFAOYSA-N

> <PUBCHEM_XLOGP3_AA>
2.8

> <PUBCHEM_EXACT_MASS>
198.06808

> <PUBCHEM_MOLECULAR_FORMULA>
C13H10O2

> <PUBCHEM_MOLECULAR_WEIGHT>
198.2173

> <PUBCHEM_OPENEYE_CAN_SMILES>
C1C2=CC=CC=C2C3=C1C(=C(C=C3)O)O

> <PUBCHEM_OPENEYE_ISO_SMILES>
C1C2=CC=CC=C2C3=C1C(=C(C=C3)O)O

> <PUBCHEM_CACTVS_TPSA>
40.5

> <PUBCHEM_MONOISOTOPIC_WEIGHT>
198.06808

> <PUBCHEM_TOTAL_CHARGE>
0

> <PUBCHEM_HEAVY_ATOM_COUNT>
15

> <PUBCHEM_ATOM_DEF_STEREO_COUNT>
0

> <PUBCHEM_ATOM_UDEF_STEREO_COUNT>
0

> <PUBCHEM_BOND_DEF_STEREO_COUNT>
0

> <PUBCHEM_BOND_UDEF_STEREO_COUNT>
0

> <PUBCHEM_ISOTOPIC_ATOM_COUNT>
0

> <PUBCHEM_COMPONENT_COUNT>
1

> <PUBCHEM_CACTVS_TAUTO_COUNT>
19

> <PUBCHEM_COORDINATE_TYPE>
1
5
255

> <PUBCHEM_BONDANNOTATIONS>
10  14  8
11  15  8
12  13  8
14  15  8
4  5  8
4  8  8
5  9  8
6  10  8
6  7  8
7  11  8
8  12  8
9  13  8

$$$$

