23663939
  -OEChem-07051213032D

 80 82  0     1  0  0  0  0  0999 V2000
   10.6603   -1.6284    0.0000 Na  0  3  0  0  0  0  0  0  0  0  0  0
   15.0564    1.9025    0.0000 O   0  0  0  0  0  0  0  0  0  0  0  0
   16.7961   -0.0908    0.0000 O   0  0  0  0  0  0  0  0  0  0  0  0
   15.0680   -1.0975    0.0000 O   0  0  0  0  0  0  0  0  0  0  0  0
   13.3244    1.8958    0.0000 O   0  0  0  0  0  0  0  0  0  0  0  0
   13.3321   -0.1042    0.0000 O   0  0  0  0  0  0  0  0  0  0  0  0
   16.8000   -1.0908    0.0000 O   0  0  0  0  0  0  0  0  0  0  0  0
    9.7942    1.8716    0.0000 O   0  0  0  0  0  0  0  0  0  0  0  0
    9.7942   -1.1284    0.0000 O   0  5  0  0  0  0  0  0  0  0  0  0
    8.0622    1.8716    0.0000 O   0  0  0  0  0  0  0  0  0  0  0  0
    7.1962    1.3716    0.0000 O   0  0  0  0  0  0  0  0  0  0  0  0
    3.7320   -1.6284    0.0000 O   0  0  0  0  0  0  0  0  0  0  0  0
   15.9398   -2.5942    0.0000 N   0  0  0  0  0  0  0  0  0  0  0  0
    8.0622   -0.1284    0.0000 N   0  0  0  0  0  0  0  0  0  0  0  0
   15.9243    1.4058    0.0000 C   0  0  0  0  0  0  0  0  0  0  0  0
   15.9282    0.4058    0.0000 C   0  0  1  0  0  0  0  0  0  0  0  0
   15.0641   -0.0975    0.0000 C   0  0  2  0  0  0  0  0  0  0  0  0
   14.1962    0.3991    0.0000 C   0  0  2  0  0  0  0  0  0  0  0  0
   14.1923    1.3991    0.0000 C   0  0  1  0  0  0  0  0  0  0  0  0
   16.9243    1.4097    0.0000 C   0  0  0  0  0  0  0  0  0  0  0  0
   16.4210    2.2738    0.0000 C   0  0  0  0  0  0  0  0  0  0  0  0
   17.6602    0.4125    0.0000 C   0  0  0  0  0  0  0  0  0  0  0  0
   12.4603    1.3924    0.0000 C   0  0  0  0  0  0  0  0  0  0  0  0
   15.9359   -1.5942    0.0000 C   0  0  0  0  0  0  0  0  0  0  0  0
   11.5542    1.9063    0.0000 C   0  0  0  0  0  0  0  0  0  0  0  0
   12.4603    0.3508    0.0000 C   0  0  0  0  0  0  0  0  0  0  0  0
   10.6603    1.3716    0.0000 C   0  0  0  0  0  0  0  0  0  0  0  0
   10.6603    0.3716    0.0000 C   0  0  0  0  0  0  0  0  0  0  0  0
   11.5542   -0.1630    0.0000 C   0  0  0  0  0  0  0  0  0  0  0  0
   11.5426    2.9062    0.0000 C   0  0  0  0  0  0  0  0  0  0  0  0
    9.7942   -0.1284    0.0000 C   0  0  0  0  0  0  0  0  0  0  0  0
    8.9282    0.3716    0.0000 C   0  0  0  0  0  0  0  0  0  0  0  0
    8.9282    1.3716    0.0000 C   0  0  0  0  0  0  0  0  0  0  0  0
    7.1962    0.3716    0.0000 C   0  0  0  0  0  0  0  0  0  0  0  0
    6.3301   -0.1284    0.0000 C   0  0  0  0  0  0  0  0  0  0  0  0
    4.5981   -0.1284    0.0000 C   0  0  0  0  0  0  0  0  0  0  0  0
    5.4641    0.3716    0.0000 C   0  0  0  0  0  0  0  0  0  0  0  0
    6.3301   -1.1284    0.0000 C   0  0  0  0  0  0  0  0  0  0  0  0
    3.7320    0.3716    0.0000 C   0  0  0  0  0  0  0  0  0  0  0  0
    4.5981   -1.1284    0.0000 C   0  0  0  0  0  0  0  0  0  0  0  0
    5.4641   -1.6284    0.0000 C   0  0  0  0  0  0  0  0  0  0  0  0
    3.7320    1.3716    0.0000 C   0  0  0  0  0  0  0  0  0  0  0  0
    2.8660    1.8716    0.0000 C   0  0  0  0  0  0  0  0  0  0  0  0
    2.8660    2.8716    0.0000 C   0  0  0  0  0  0  0  0  0  0  0  0
    2.0000    1.3716    0.0000 C   0  0  0  0  0  0  0  0  0  0  0  0
   16.4639    0.7179    0.0000 H   0  0  0  0  0  0  0  0  0  0  0  0
   14.5284   -0.4096    0.0000 H   0  0  0  0  0  0  0  0  0  0  0  0
   14.1985   -0.2209    0.0000 H   0  0  0  0  0  0  0  0  0  0  0  0
   14.1899    2.0191    0.0000 H   0  0  0  0  0  0  0  0  0  0  0  0
   16.9267    0.7897    0.0000 H   0  0  0  0  0  0  0  0  0  0  0  0
   17.5443    1.4120    0.0000 H   0  0  0  0  0  0  0  0  0  0  0  0
   16.9219    2.0297    0.0000 H   0  0  0  0  0  0  0  0  0  0  0  0
   16.9591    1.9658    0.0000 H   0  0  0  0  0  0  0  0  0  0  0  0
   16.7289    2.8119    0.0000 H   0  0  0  0  0  0  0  0  0  0  0  0
   15.8829    2.5817    0.0000 H   0  0  0  0  0  0  0  0  0  0  0  0
   13.3345   -0.7242    0.0000 H   0  0  0  0  0  0  0  0  0  0  0  0
   17.9723   -0.1232    0.0000 H   0  0  0  0  0  0  0  0  0  0  0  0
   18.1960    0.7246    0.0000 H   0  0  0  0  0  0  0  0  0  0  0  0
   17.3482    0.9482    0.0000 H   0  0  0  0  0  0  0  0  0  0  0  0
   12.9960    0.0388    0.0000 H   0  0  0  0  0  0  0  0  0  0  0  0
   11.5470   -0.7830    0.0000 H   0  0  0  0  0  0  0  0  0  0  0  0
   16.4779   -2.9021    0.0000 H   0  0  0  0  0  0  0  0  0  0  0  0
   15.4040   -2.9062    0.0000 H   0  0  0  0  0  0  0  0  0  0  0  0
   12.1626    2.9134    0.0000 H   0  0  0  0  0  0  0  0  0  0  0  0
   11.5355    3.5262    0.0000 H   0  0  0  0  0  0  0  0  0  0  0  0
   10.9227    2.8991    0.0000 H   0  0  0  0  0  0  0  0  0  0  0  0
    8.0622   -0.7484    0.0000 H   0  0  0  0  0  0  0  0  0  0  0  0
    5.4641    0.9916    0.0000 H   0  0  0  0  0  0  0  0  0  0  0  0
    6.8671   -1.4384    0.0000 H   0  0  0  0  0  0  0  0  0  0  0  0
    3.1215    0.4793    0.0000 H   0  0  0  0  0  0  0  0  0  0  0  0
    3.5200   -0.2110    0.0000 H   0  0  0  0  0  0  0  0  0  0  0  0
    5.4641   -2.2484    0.0000 H   0  0  0  0  0  0  0  0  0  0  0  0
    4.2690    1.6816    0.0000 H   0  0  0  0  0  0  0  0  0  0  0  0
    3.7320   -2.2484    0.0000 H   0  0  0  0  0  0  0  0  0  0  0  0
    3.4860    2.8716    0.0000 H   0  0  0  0  0  0  0  0  0  0  0  0
    2.8660    3.4916    0.0000 H   0  0  0  0  0  0  0  0  0  0  0  0
    2.2460    2.8716    0.0000 H   0  0  0  0  0  0  0  0  0  0  0  0
    1.6900    1.9086    0.0000 H   0  0  0  0  0  0  0  0  0  0  0  0
    1.4631    1.0616    0.0000 H   0  0  0  0  0  0  0  0  0  0  0  0
    2.3100    0.8347    0.0000 H   0  0  0  0  0  0  0  0  0  0  0  0
  2 15  1  0  0  0  0
  2 19  1  0  0  0  0
 16  3  1  6  0  0  0
  3 22  1  0  0  0  0
 17  4  1  1  0  0  0
  4 24  1  0  0  0  0
 19  5  1  6  0  0  0
  5 23  1  0  0  0  0
 18  6  1  1  0  0  0
  6 56  1  0  0  0  0
  7 24  2  0  0  0  0
  8 27  1  0  0  0  0
  8 33  1  0  0  0  0
  9 31  1  0  0  0  0
 10 33  2  0  0  0  0
 11 34  2  0  0  0  0
 12 40  1  0  0  0  0
 12 74  1  0  0  0  0
 13 24  1  0  0  0  0
 13 62  1  0  0  0  0
 13 63  1  0  0  0  0
 14 32  1  0  0  0  0
 14 34  1  0  0  0  0
 14 67  1  0  0  0  0
 15 16  1  0  0  0  0
 15 20  1  0  0  0  0
 15 21  1  0  0  0  0
 16 17  1  0  0  0  0
 16 46  1  0  0  0  0
 17 18  1  0  0  0  0
 17 47  1  0  0  0  0
 18 19  1  0  0  0  0
 18 48  1  0  0  0  0
 19 49  1  0  0  0  0
 20 50  1  0  0  0  0
 20 51  1  0  0  0  0
 20 52  1  0  0  0  0
 21 53  1  0  0  0  0
 21 54  1  0  0  0  0
 21 55  1  0  0  0  0
 22 57  1  0  0  0  0
 22 58  1  0  0  0  0
 22 59  1  0  0  0  0
 23 25  2  0  0  0  0
 23 26  1  0  0  0  0
 25 27  1  0  0  0  0
 25 30  1  0  0  0  0
 26 29  2  0  0  0  0
 26 60  1  0  0  0  0
 27 28  2  0  0  0  0
 28 29  1  0  0  0  0
 28 31  1  0  0  0  0
 29 61  1  0  0  0  0
 30 64  1  0  0  0  0
 30 65  1  0  0  0  0
 30 66  1  0  0  0  0
 31 32  2  0  0  0  0
 32 33  1  0  0  0  0
 34 35  1  0  0  0  0
 35 37  2  0  0  0  0
 35 38  1  0  0  0  0
 36 37  1  0  0  0  0
 36 39  1  0  0  0  0
 36 40  2  0  0  0  0
 37 68  1  0  0  0  0
 38 41  2  0  0  0  0
 38 69  1  0  0  0  0
 39 42  1  0  0  0  0
 39 70  1  0  0  0  0
 39 71  1  0  0  0  0
 40 41  1  0  0  0  0
 41 72  1  0  0  0  0
 42 43  2  0  0  0  0
 42 73  1  0  0  0  0
 43 44  1  0  0  0  0
 43 45  1  0  0  0  0
 44 75  1  0  0  0  0
 44 76  1  0  0  0  0
 44 77  1  0  0  0  0
 45 78  1  0  0  0  0
 45 79  1  0  0  0  0
 45 80  1  0  0  0  0
M  CHG  2   1   1   9  -1
M  END
> <PUBCHEM_COMPOUND_CID>
23663939

> <PUBCHEM_COMPOUND_CANONICALIZED>
1

> <PUBCHEM_CACTVS_COMPLEXITY>
1160

> <PUBCHEM_CACTVS_HBOND_ACCEPTOR>
11

> <PUBCHEM_CACTVS_HBOND_DONOR>
4

> <PUBCHEM_CACTVS_ROTATABLE_BOND>
9

> <PUBCHEM_CACTVS_SUBSKEYS>
AAADcfB7PCAAAAAAAAAAAAAAAAAAAAAAAAA0YIEAAAAAAACBQAAAHgAQCAAADFyxmAMyDoLABgCIAiXSWACCCAAkIAAIiAGGDMkfNzKGtTuveyjlxBWfuYfY/P7OIAACCAAIAABAAAQQABAAAAAAAAAAAA==

> <PUBCHEM_IUPAC_OPENEYE_NAME>
sodium 7-[(2R,3R,4S,5R)-4-carbamoyloxy-3-hydroxy-5-methoxy-6,6-dimethyl-tetrahydropyran-2-yl]oxy-3-[[4-hydroxy-3-(3-methylbut-2-enyl)benzoyl]amino]-8-methyl-2-oxo-chromen-4-olate

> <PUBCHEM_IUPAC_CAS_NAME>
sodium 7-[[(2R,3R,4S,5R)-4-carbamoyloxy-3-hydroxy-5-methoxy-6,6-dimethyl-2-oxanyl]oxy]-3-[[[4-hydroxy-3-(3-methylbut-2-enyl)phenyl]-oxomethyl]amino]-8-methyl-2-oxo-1-benzopyran-4-olate

> <PUBCHEM_IUPAC_NAME>
sodium 7-[(2R,3R,4S,5R)-4-carbamoyloxy-3-hydroxy-5-methoxy-6,6-dimethyloxan-2-yl]oxy-3-[[4-hydroxy-3-(3-methylbut-2-enyl)benzoyl]amino]-8-methyl-2-oxochromen-4-olate

> <PUBCHEM_IUPAC_SYSTEMATIC_NAME>
sodium 7-[(2R,3R,4S,5R)-4-aminocarbonyloxy-5-methoxy-6,6-dimethyl-3-oxidanyl-oxan-2-yl]oxy-8-methyl-3-[[3-(3-methylbut-2-enyl)-4-oxidanyl-phenyl]carbonylamino]-2-oxidanylidene-chromen-4-olate

> <PUBCHEM_IUPAC_TRADITIONAL_NAME>
sodium 7-[(2R,3R,4S,5R)-4-carbamoyloxy-3-hydroxy-5-methoxy-6,6-dimethyl-tetrahydropyran-2-yl]oxy-3-[[4-hydroxy-3-(3-methylbut-2-enyl)benzoyl]amino]-2-keto-8-methyl-chromen-4-olate

> <PUBCHEM_IUPAC_INCHI>
InChI=1S/C31H36N2O11.Na/c1-14(2)7-8-16-13-17(9-11-19(16)34)27(37)33-21-22(35)18-10-12-20(15(3)24(18)42-28(21)38)41-29-23(36)25(43-30(32)39)26(40-6)31(4,5)44-29;/h7,9-13,23,25-26,29,34-36H,8H2,1-6H3,(H2,32,39)(H,33,37);/q;+1/p-1/t23-,25+,26-,29-;/m1./s1

> <PUBCHEM_IUPAC_INCHIKEY>
WWPRGAYLRGSOSU-RNROJPEYSA-M

> <PUBCHEM_EXACT_MASS>
634.213854

> <PUBCHEM_MOLECULAR_FORMULA>
C31H35N2NaO11

> <PUBCHEM_MOLECULAR_WEIGHT>
634.606169

> <PUBCHEM_OPENEYE_CAN_SMILES>
CC1=C(C=CC2=C1OC(=O)C(=C2[O-])NC(=O)C3=CC(=C(C=C3)O)CC=C(C)C)OC4C(C(C(C(O4)(C)C)OC)OC(=O)N)O.[Na+]

> <PUBCHEM_OPENEYE_ISO_SMILES>
CC1=C(C=CC2=C1OC(=O)C(=C2[O-])NC(=O)C3=CC(=C(C=C3)O)CC=C(C)C)O[C@H]4[C@@H]([C@@H]([C@H](C(O4)(C)C)OC)OC(=O)N)O.[Na+]

> <PUBCHEM_CACTVS_TPSA>
199

> <PUBCHEM_MONOISOTOPIC_WEIGHT>
634.213854

> <PUBCHEM_TOTAL_CHARGE>
0

> <PUBCHEM_HEAVY_ATOM_COUNT>
45

> <PUBCHEM_ATOM_DEF_STEREO_COUNT>
4

> <PUBCHEM_ATOM_UDEF_STEREO_COUNT>
0

> <PUBCHEM_BOND_DEF_STEREO_COUNT>
0

> <PUBCHEM_BOND_UDEF_STEREO_COUNT>
0

> <PUBCHEM_ISOTOPIC_ATOM_COUNT>
0

> <PUBCHEM_COMPONENT_COUNT>
2

> <PUBCHEM_CACTVS_TAUTO_COUNT>
18

> <PUBCHEM_NONSTANDARDBOND>
1  9  7

> <PUBCHEM_COORDINATE_TYPE>
1
5
255

> <PUBCHEM_BONDANNOTATIONS>
23  25  8
23  26  8
25  27  8
26  29  8
27  28  8
28  29  8
28  31  8
16  3  6
31  32  8
32  33  8
35  37  8
35  38  8
36  37  8
36  40  8
38  41  8
17  4  5
40  41  8
19  5  6
18  6  5
8  27  8
8  33  8

$$$$

