   Color/Form
        Pale yellow oil
   from [1]HSDB

   Odor
        Mercaptan-like odor
   from [2]HSDB

   Density/Specific Gravity
        1.3 g/cu cm at 25 deg C
   from [3]HSDB

   Octanol/Water Partition Coefficient
        log Kow = 0.68 /Estimated/
   from [4]HSDB

   Solubilities

     * In water, 5.00X10+4 mg/L at 25 deg C
     * Sol in acetone, chloroform, methanol, toluene

   from [5]HSDB

   Spectral Properties
        Index of refraction: 1.5348 at 25 deg C/D
   from [6]HSDB

   Vapor Pressure
        6.45X10-6 mm Hg at 25 deg C
   from [7]HSDB

   Other Chemical/Physical Properties

     * Henry's Law constant = 4.11X10-11 atm-cu m/mol at 25 deg C
       /Estimated/
     * Hydroxyl radical reaction rate constant = 5.79X10-11 cu
       cm/molecule-sec at 25 deg C /Estimated/

   from [8]HSDB

   Computed Properties
   Molecular Weight                  241.268142 [g/mol]
   Molecular Formula                 C[6]H[12]NO[3]PS[2]
   XLogP3                            0.7
   H-Bond Donor                      0
   H-Bond Acceptor                   6
   Rotatable Bond Count              5
   Exact Mass                        240.999622
   MonoIsotopic Mass                 240.999622
   Topological Polar Surface Area    98.5
   Heavy Atom Count                  13
   Formal Charge                     0
   Complexity                        230
   Isotope Atom Count                0
   Defined Atom Stereocenter Count   0
   Undefined Atom Stereocenter Count 0
   Defined Bond Stereocenter Count   0
   Undefined Bond Stereocenter Count 0
   Covalently-Bonded Unit Count      1
   Feature 3D Acceptor Count         2
   Feature 3D Ring Count             1
   Effective Rotor Count             5.6
   Conformer Sampling RMSD           0.6
   CID Conformer Count               [9]117

References

   1. http://toxnet.nlm.nih.gov/cgi-bin/sis/search/r?dbs+hsdb:@term+@rn+@rel+21548-32-3
   2. http://toxnet.nlm.nih.gov/cgi-bin/sis/search/r?dbs+hsdb:@term+@rn+@rel+21548-32-3
   3. http://toxnet.nlm.nih.gov/cgi-bin/sis/search/r?dbs+hsdb:@term+@rn+@rel+21548-32-3
   4. http://toxnet.nlm.nih.gov/cgi-bin/sis/search/r?dbs+hsdb:@term+@rn+@rel+21548-32-3
   5. http://toxnet.nlm.nih.gov/cgi-bin/sis/search/r?dbs+hsdb:@term+@rn+@rel+21548-32-3
   6. http://toxnet.nlm.nih.gov/cgi-bin/sis/search/r?dbs+hsdb:@term+@rn+@rel+21548-32-3
   7. http://toxnet.nlm.nih.gov/cgi-bin/sis/search/r?dbs+hsdb:@term+@rn+@rel+21548-32-3
   8. http://toxnet.nlm.nih.gov/cgi-bin/sis/search/r?dbs+hsdb:@term+@rn+@rel+21548-32-3
   9. http://pubchem.ncbi.nlm.nih.gov/vw3d/vw3d.cgi?cid=30684
