15571694
  -OEChem-07051212572D

 52 55  0     1  0  0  0  0  0999 V2000
    1.7707   -0.7987    0.0000 O   0  0  0  0  0  0  0  0  0  0  0  0
    6.6539    0.3077    0.0000 O   0  0  0  0  0  0  0  0  0  0  0  0
    6.2535    2.2230    0.0000 O   0  0  0  0  0  0  0  0  0  0  0  0
    4.1627    3.4301    0.0000 O   0  0  0  0  0  0  0  0  0  0  0  0
    4.8268   -2.4948    0.0000 O   0  0  0  0  0  0  0  0  0  0  0  0
    5.8052    3.8960    0.0000 O   0  0  0  0  0  0  0  0  0  0  0  0
    3.1043   -2.3137    0.0000 O   0  0  0  0  0  0  0  0  0  0  0  0
    4.3098    0.1496    0.0000 C   0  0  1  0  0  0  0  0  0  0  0  0
    2.4778   -0.0916    0.0000 C   0  0  2  0  0  0  0  0  0  0  0  0
    5.8449   -1.0935    0.0000 C   0  0  2  0  0  0  0  0  0  0  0  0
    4.0509    1.1156    0.0000 C   0  0  1  0  0  0  0  0  0  0  0  0
    5.2875    1.9642    0.0000 C   0  0  1  0  0  0  0  0  0  0  0  0
    1.5119    0.1673    0.0000 C   0  0  0  0  0  0  0  0  0  0  0  0
    4.4215    2.4642    0.0000 C   0  0  1  0  0  0  0  0  0  0  0  0
    6.7584   -0.6868    0.0000 C   0  0  1  0  0  0  0  0  0  0  0  0
    4.5686   -0.8163    0.0000 C   0  0  0  0  0  0  0  0  0  0  0  0
    5.7201   -2.1276    0.0000 C   0  0  0  0  0  0  0  0  0  0  0  0
    4.9314   -1.5003    0.0000 C   0  0  0  0  0  0  0  0  0  0  0  0
    7.6105   -1.2860    0.0000 C   0  0  0  0  0  0  0  0  0  0  0  0
    6.5580   -2.7464    0.0000 C   0  0  0  0  0  0  0  0  0  0  0  0
    7.5096   -2.3227    0.0000 C   0  0  0  0  0  0  0  0  0  0  0  0
    6.5123    3.1889    0.0000 C   0  0  0  0  0  0  0  0  0  0  0  0
    8.3209   -2.9074    0.0000 C   0  0  0  0  0  0  0  0  0  0  0  0
    3.9133   -2.9015    0.0000 C   0  0  0  0  0  0  0  0  0  0  0  0
    7.4782    3.4478    0.0000 C   0  0  0  0  0  0  0  0  0  0  0  0
    3.8088   -3.8960    0.0000 C   0  0  0  0  0  0  0  0  0  0  0  0
    3.8309    1.9366    0.0000 H   0  0  0  0  0  0  0  0  0  0  0  0
    5.3685    2.5789    0.0000 H   0  0  0  0  0  0  0  0  0  0  0  0
    0.8942    0.1132    0.0000 H   0  0  0  0  0  0  0  0  0  0  0  0
    1.5659    0.7849    0.0000 H   0  0  0  0  0  0  0  0  0  0  0  0
    3.8015    2.4662    0.0000 H   0  0  0  0  0  0  0  0  0  0  0  0
    7.5350   -0.3411    0.0000 H   0  0  0  0  0  0  0  0  0  0  0  0
    5.1674   -0.6558    0.0000 H   0  0  0  0  0  0  0  0  0  0  0  0
    4.7290   -1.4152    0.0000 H   0  0  0  0  0  0  0  0  0  0  0  0
    3.9697   -0.9768    0.0000 H   0  0  0  0  0  0  0  0  0  0  0  0
    5.4426   -2.6821    0.0000 H   0  0  0  0  0  0  0  0  0  0  0  0
    5.1263   -1.9491    0.0000 H   0  0  0  0  0  0  0  0  0  0  0  0
    4.3129   -1.5435    0.0000 H   0  0  0  0  0  0  0  0  0  0  0  0
    4.7814   -0.8987    0.0000 H   0  0  0  0  0  0  0  0  0  0  0  0
    8.1739   -1.0273    0.0000 H   0  0  0  0  0  0  0  0  0  0  0  0
    6.9034   -3.2613    0.0000 H   0  0  0  0  0  0  0  0  0  0  0  0
    6.1098   -3.1748    0.0000 H   0  0  0  0  0  0  0  0  0  0  0  0
    3.5638    3.5906    0.0000 H   0  0  0  0  0  0  0  0  0  0  0  0
    8.6834   -2.4044    0.0000 H   0  0  0  0  0  0  0  0  0  0  0  0
    8.8239   -3.2699    0.0000 H   0  0  0  0  0  0  0  0  0  0  0  0
    7.9584   -3.4104    0.0000 H   0  0  0  0  0  0  0  0  0  0  0  0
    7.3178    4.0466    0.0000 H   0  0  0  0  0  0  0  0  0  0  0  0
    8.0771    3.6082    0.0000 H   0  0  0  0  0  0  0  0  0  0  0  0
    7.6387    2.8489    0.0000 H   0  0  0  0  0  0  0  0  0  0  0  0
    4.4254   -3.9608    0.0000 H   0  0  0  0  0  0  0  0  0  0  0  0
    3.7440   -4.5126    0.0000 H   0  0  0  0  0  0  0  0  0  0  0  0
    3.1922   -3.8312    0.0000 H   0  0  0  0  0  0  0  0  0  0  0  0
  9  1  1  1  0  0  0
  1 13  1  0  0  0  0
  2 11  1  0  0  0  0
  2 15  1  0  0  0  0
 12  3  1  1  0  0  0
  3 22  1  0  0  0  0
 14  4  1  6  0  0  0
  4 43  1  0  0  0  0
  5 18  1  0  0  0  0
  5 24  1  0  0  0  0
  6 22  2  0  0  0  0
  7 24  2  0  0  0  0
  8  9  1  0  0  0  0
  8 10  1  0  0  0  0
  8 12  1  0  0  0  0
  8 16  1  1  0  0  0
  9 11  1  0  0  0  0
  9 13  1  0  0  0  0
 10 15  1  0  0  0  0
 10 17  1  0  0  0  0
 10 18  1  1  0  0  0
 11 14  1  0  0  0  0
 11 27  1  6  0  0  0
 12 14  1  0  0  0  0
 12 28  1  0  0  0  0
 13 29  1  0  0  0  0
 13 30  1  0  0  0  0
 14 31  1  0  0  0  0
 15 19  1  0  0  0  0
 15 32  1  1  0  0  0
 16 33  1  0  0  0  0
 16 34  1  0  0  0  0
 16 35  1  0  0  0  0
 17 20  1  0  0  0  0
 17 36  1  0  0  0  0
 17 37  1  0  0  0  0
 18 38  1  0  0  0  0
 18 39  1  0  0  0  0
 19 21  2  0  0  0  0
 19 40  1  0  0  0  0
 20 21  1  0  0  0  0
 20 41  1  0  0  0  0
 20 42  1  0  0  0  0
 21 23  1  0  0  0  0
 22 25  1  0  0  0  0
 23 44  1  0  0  0  0
 23 45  1  0  0  0  0
 23 46  1  0  0  0  0
 24 26  1  0  0  0  0
 25 47  1  0  0  0  0
 25 48  1  0  0  0  0
 25 49  1  0  0  0  0
 26 50  1  0  0  0  0
 26 51  1  0  0  0  0
 26 52  1  0  0  0  0
M  END
> <PUBCHEM_COMPOUND_CID>
15571694

> <PUBCHEM_COMPOUND_CANONICALIZED>
1

> <PUBCHEM_CACTVS_COMPLEXITY>
687

> <PUBCHEM_CACTVS_HBOND_ACCEPTOR>
7

> <PUBCHEM_CACTVS_HBOND_DONOR>
1

> <PUBCHEM_CACTVS_ROTATABLE_BOND>
5

> <PUBCHEM_CACTVS_SUBSKEYS>
AAADceB4OAAAAAAAAAAAAAAAEgAAAYAAAAAkQAAABIAAAACAAAAAGgAACAAADlSggAICCAAABgCIAiDSCAAAAAAgAAAACAAAAAgBFAIAIQACUAAFgAALIAPA4PwPgAAAAAAAAAAAAAAAAAAAAIQADCAAAA==

> <PUBCHEM_IUPAC_INCHI>
InChI=1S/C19H26O7/c1-10-5-6-18(8-23-11(2)20)13(7-10)26-16-14(22)15(25-12(3)21)17(18,4)19(16)9-24-19/h7,13-16,22H,5-6,8-9H2,1-4H3/t13-,14-,15-,16-,17-,18-,19+/m1/s1

> <PUBCHEM_IUPAC_INCHIKEY>
AUGQEEXBDZWUJY-NMAPUUFXSA-N

> <PUBCHEM_XLOGP3_AA>
0.2

> <PUBCHEM_EXACT_MASS>
366.167853

> <PUBCHEM_MOLECULAR_FORMULA>
C19H26O7

> <PUBCHEM_MOLECULAR_WEIGHT>
366.40554

> <PUBCHEM_OPENEYE_CAN_SMILES>
CC1=CC2C(CC1)(C3(C(C(C(C34CO4)O2)O)OC(=O)C)C)COC(=O)C

> <PUBCHEM_OPENEYE_ISO_SMILES>
CC1=C[C@@H]2[C@](CC1)([C@]3([C@@H]([C@H]([C@H]([C@@]34CO4)O2)O)OC(=O)C)C)COC(=O)C

> <PUBCHEM_CACTVS_TPSA>
94.6

> <PUBCHEM_MONOISOTOPIC_WEIGHT>
366.167853

> <PUBCHEM_TOTAL_CHARGE>
0

> <PUBCHEM_HEAVY_ATOM_COUNT>
26

> <PUBCHEM_ATOM_DEF_STEREO_COUNT>
7

> <PUBCHEM_ATOM_UDEF_STEREO_COUNT>
0

> <PUBCHEM_BOND_DEF_STEREO_COUNT>
0

> <PUBCHEM_BOND_UDEF_STEREO_COUNT>
0

> <PUBCHEM_ISOTOPIC_ATOM_COUNT>
0

> <PUBCHEM_COMPONENT_COUNT>
1

> <PUBCHEM_CACTVS_TAUTO_COUNT>
1

> <PUBCHEM_COORDINATE_TYPE>
1
5
255

> <PUBCHEM_BONDANNOTATIONS>
9  1  5
10  18  5
11  27  6
15  32  5
12  3  5
14  4  6
8  16  5

$$$$

