47205008
  -OEChem-06241222572D

 36 37  0     0  0  0  0  0  0999 V2000
    2.0000   -3.4547    0.0000 O   0  0  0  0  0  0  0  0  0  0  0  0
    3.7320    1.5453    0.0000 O   0  0  0  0  0  0  0  0  0  0  0  0
    5.4641    1.5453    0.0000 N   0  0  0  0  0  0  0  0  0  0  0  0
    6.4347    4.0398    0.0000 N   0  0  0  0  0  0  0  0  0  0  0  0
    7.4128    4.2477    0.0000 N   0  0  0  0  0  0  0  0  0  0  0  0
    3.7320   -0.4547    0.0000 C   0  0  0  0  0  0  0  0  0  0  0  0
    4.5981    0.0453    0.0000 C   0  0  0  0  0  0  0  0  0  0  0  0
    3.7320   -1.4547    0.0000 C   0  0  0  0  0  0  0  0  0  0  0  0
    4.5981    1.0453    0.0000 C   0  0  0  0  0  0  0  0  0  0  0  0
    5.4641    2.5453    0.0000 C   0  0  0  0  0  0  0  0  0  0  0  0
    2.8660   -1.9547    0.0000 C   0  0  0  0  0  0  0  0  0  0  0  0
    4.5981   -1.9547    0.0000 C   0  0  0  0  0  0  0  0  0  0  0  0
    6.3301    3.0453    0.0000 C   0  0  0  0  0  0  0  0  0  0  0  0
    2.8660   -2.9547    0.0000 C   0  0  0  0  0  0  0  0  0  0  0  0
    4.5981   -2.9547    0.0000 C   0  0  0  0  0  0  0  0  0  0  0  0
    3.7320   -3.4547    0.0000 C   0  0  0  0  0  0  0  0  0  0  0  0
    7.2437    2.6386    0.0000 C   0  0  0  0  0  0  0  0  0  0  0  0
    7.9128    3.3817    0.0000 C   0  0  0  0  0  0  0  0  0  0  0  0
    2.0000   -4.4547    0.0000 C   0  0  0  0  0  0  0  0  0  0  0  0
    3.5200    0.1279    0.0000 H   0  0  0  0  0  0  0  0  0  0  0  0
    3.1215   -0.5624    0.0000 H   0  0  0  0  0  0  0  0  0  0  0  0
    4.8101   -0.5373    0.0000 H   0  0  0  0  0  0  0  0  0  0  0  0
    5.2087    0.1530    0.0000 H   0  0  0  0  0  0  0  0  0  0  0  0
    5.2520    3.1279    0.0000 H   0  0  0  0  0  0  0  0  0  0  0  0
    4.8535    2.4376    0.0000 H   0  0  0  0  0  0  0  0  0  0  0  0
    6.0010    1.2353    0.0000 H   0  0  0  0  0  0  0  0  0  0  0  0
    2.3291   -1.6447    0.0000 H   0  0  0  0  0  0  0  0  0  0  0  0
    5.1350   -1.6447    0.0000 H   0  0  0  0  0  0  0  0  0  0  0  0
    5.1350   -3.2647    0.0000 H   0  0  0  0  0  0  0  0  0  0  0  0
    3.7320   -4.0747    0.0000 H   0  0  0  0  0  0  0  0  0  0  0  0
    7.3726    2.0321    0.0000 H   0  0  0  0  0  0  0  0  0  0  0  0
    5.9739    4.4547    0.0000 H   0  0  0  0  0  0  0  0  0  0  0  0
    8.5294    3.3169    0.0000 H   0  0  0  0  0  0  0  0  0  0  0  0
    1.3800   -4.4547    0.0000 H   0  0  0  0  0  0  0  0  0  0  0  0
    2.0000   -5.0747    0.0000 H   0  0  0  0  0  0  0  0  0  0  0  0
    2.6200   -4.4547    0.0000 H   0  0  0  0  0  0  0  0  0  0  0  0
  1 14  1  0  0  0  0
  1 19  1  0  0  0  0
  2  9  2  0  0  0  0
  3  9  1  0  0  0  0
  3 10  1  0  0  0  0
  3 26  1  0  0  0  0
  4  5  1  0  0  0  0
  4 13  1  0  0  0  0
  4 32  1  0  0  0  0
  5 18  2  0  0  0  0
  6  7  1  0  0  0  0
  6  8  1  0  0  0  0
  6 20  1  0  0  0  0
  6 21  1  0  0  0  0
  7  9  1  0  0  0  0
  7 22  1  0  0  0  0
  7 23  1  0  0  0  0
  8 11  2  0  0  0  0
  8 12  1  0  0  0  0
 10 13  1  0  0  0  0
 10 24  1  0  0  0  0
 10 25  1  0  0  0  0
 11 14  1  0  0  0  0
 11 27  1  0  0  0  0
 12 15  2  0  0  0  0
 12 28  1  0  0  0  0
 13 17  2  0  0  0  0
 14 16  2  0  0  0  0
 15 16  1  0  0  0  0
 15 29  1  0  0  0  0
 16 30  1  0  0  0  0
 17 18  1  0  0  0  0
 17 31  1  0  0  0  0
 18 33  1  0  0  0  0
 19 34  1  0  0  0  0
 19 35  1  0  0  0  0
 19 36  1  0  0  0  0
M  END
> <PUBCHEM_COMPOUND_CID>
47205008

> <PUBCHEM_COMPOUND_CANONICALIZED>
1

> <PUBCHEM_CACTVS_COMPLEXITY>
286

> <PUBCHEM_CACTVS_HBOND_ACCEPTOR>
3

> <PUBCHEM_CACTVS_HBOND_DONOR>
2

> <PUBCHEM_CACTVS_ROTATABLE_BOND>
6

> <PUBCHEM_CACTVS_SUBSKEYS>
AAADceBzMAAAAAAAAAAAAAAAAAAAAWAAAAAwAAAAAAAAAAABwAAAHgAYAAAADAzBngY+hpLjBACqAzV3UACSDAAgogAYuaE+bJgMZrKE8duUtChk3hGI6AeYyLCOAAABAAAAAAAAAAIAAAAAAAAAAAAAAA==

> <PUBCHEM_IUPAC_OPENEYE_NAME>
3-(3-methoxyphenyl)-N-(1H-pyrazol-5-ylmethyl)propanamide

> <PUBCHEM_IUPAC_CAS_NAME>
3-(3-methoxyphenyl)-N-(1H-pyrazol-5-ylmethyl)propanamide

> <PUBCHEM_IUPAC_NAME>
3-(3-methoxyphenyl)-N-(1H-pyrazol-5-ylmethyl)propanamide

> <PUBCHEM_IUPAC_SYSTEMATIC_NAME>
3-(3-methoxyphenyl)-N-(1H-pyrazol-5-ylmethyl)propanamide

> <PUBCHEM_IUPAC_TRADITIONAL_NAME>
3-(3-methoxyphenyl)-N-(1H-pyrazol-5-ylmethyl)propionamide

> <PUBCHEM_IUPAC_INCHI>
InChI=1S/C14H17N3O2/c1-19-13-4-2-3-11(9-13)5-6-14(18)15-10-12-7-8-16-17-12/h2-4,7-9H,5-6,10H2,1H3,(H,15,18)(H,16,17)

> <PUBCHEM_IUPAC_INCHIKEY>
ZNEQBWXWORPVNL-UHFFFAOYSA-N

> <PUBCHEM_XLOGP3_AA>
1.2

> <PUBCHEM_EXACT_MASS>
259.132077

> <PUBCHEM_MOLECULAR_FORMULA>
C14H17N3O2

> <PUBCHEM_MOLECULAR_WEIGHT>
259.30368

> <PUBCHEM_OPENEYE_CAN_SMILES>
COC1=CC=CC(=C1)CCC(=O)NCC2=CC=NN2

> <PUBCHEM_OPENEYE_ISO_SMILES>
COC1=CC=CC(=C1)CCC(=O)NCC2=CC=NN2

> <PUBCHEM_CACTVS_TPSA>
67

> <PUBCHEM_MONOISOTOPIC_WEIGHT>
259.132077

> <PUBCHEM_TOTAL_CHARGE>
0

> <PUBCHEM_HEAVY_ATOM_COUNT>
19

> <PUBCHEM_ATOM_DEF_STEREO_COUNT>
0

> <PUBCHEM_ATOM_UDEF_STEREO_COUNT>
0

> <PUBCHEM_BOND_DEF_STEREO_COUNT>
0

> <PUBCHEM_BOND_UDEF_STEREO_COUNT>
0

> <PUBCHEM_ISOTOPIC_ATOM_COUNT>
0

> <PUBCHEM_COMPONENT_COUNT>
1

> <PUBCHEM_CACTVS_TAUTO_COUNT>
4

> <PUBCHEM_COORDINATE_TYPE>
1
5
255

> <PUBCHEM_BONDANNOTATIONS>
11  14  8
12  15  8
13  17  8
14  16  8
15  16  8
17  18  8
4  13  8
4  5  8
5  18  8
8  11  8
8  12  8

$$$$

