68577
  -OEChem-07051213052D

 62 66  0     1  0  0  0  0  0999 V2000
    9.1857    0.0695    0.0000 O   0  0  0  0  0  0  0  0  0  0  0  0
   10.8321   -0.4686    0.0000 O   0  0  0  0  0  0  0  0  0  0  0  0
    2.5357   -4.2381    0.0000 O   0  0  0  0  0  0  0  0  0  0  0  0
    7.9288   -1.1858    0.0000 C   0  0  1  0  0  0  0  0  0  0  0  0
    7.9288   -2.1858    0.0000 C   0  0  2  0  0  0  0  0  0  0  0  0
    7.0628   -2.6858    0.0000 C   0  0  1  0  0  0  0  0  0  0  0  0
    6.1968   -2.1858    0.0000 C   0  0  2  0  0  0  0  0  0  0  0  0
    8.8750   -0.8811    0.0000 C   0  0  2  0  0  0  0  0  0  0  0  0
    7.0628   -0.6858    0.0000 C   0  0  0  0  0  0  0  0  0  0  0  0
    8.8750   -2.4905    0.0000 C   0  0  0  0  0  0  0  0  0  0  0  0
    6.1968   -1.1858    0.0000 C   0  0  0  0  0  0  0  0  0  0  0  0
    9.4586   -1.6858    0.0000 C   0  0  0  0  0  0  0  0  0  0  0  0
    7.0789   -3.7273    0.0000 C   0  0  0  0  0  0  0  0  0  0  0  0
    7.9288   -0.1858    0.0000 C   0  0  0  0  0  0  0  0  0  0  0  0
    5.2868   -2.6926    0.0000 C   0  0  0  0  0  0  0  0  0  0  0  0
    6.1808   -4.2551    0.0000 C   0  0  0  0  0  0  0  0  0  0  0  0
    5.2787   -3.7342    0.0000 C   0  0  0  0  0  0  0  0  0  0  0  0
    4.3599   -2.1286    0.0000 C   0  0  0  0  0  0  0  0  0  0  0  0
    4.3433   -4.2840    0.0000 C   0  0  0  0  0  0  0  0  0  0  0  0
   10.1642    0.2757    0.0000 C   0  0  0  0  0  0  0  0  0  0  0  0
    3.4120   -2.6565    0.0000 C   0  0  0  0  0  0  0  0  0  0  0  0
    3.4037   -3.7415    0.0000 C   0  0  0  0  0  0  0  0  0  0  0  0
   10.4749    1.2262    0.0000 C   0  0  0  0  0  0  0  0  0  0  0  0
   11.4534    1.4324    0.0000 C   0  0  0  0  0  0  0  0  0  0  0  0
   11.7640    2.3829    0.0000 C   0  0  0  0  0  0  0  0  0  0  0  0
   11.0962    3.1272    0.0000 C   0  0  0  0  0  0  0  0  0  0  0  0
   12.7425    2.5892    0.0000 C   0  0  0  0  0  0  0  0  0  0  0  0
   11.4069    4.0778    0.0000 C   0  0  0  0  0  0  0  0  0  0  0  0
   13.0532    3.5397    0.0000 C   0  0  0  0  0  0  0  0  0  0  0  0
   12.3854    4.2840    0.0000 C   0  0  0  0  0  0  0  0  0  0  0  0
    8.0188   -3.0310    0.0000 H   0  0  0  0  0  0  0  0  0  0  0  0
    7.8022   -3.1051    0.0000 H   0  0  0  0  0  0  0  0  0  0  0  0
    6.9329   -1.7608    0.0000 H   0  0  0  0  0  0  0  0  0  0  0  0
    9.4875   -0.7849    0.0000 H   0  0  0  0  0  0  0  0  0  0  0  0
    7.4613   -0.2109    0.0000 H   0  0  0  0  0  0  0  0  0  0  0  0
    6.6643   -0.2109    0.0000 H   0  0  0  0  0  0  0  0  0  0  0  0
    8.6240   -3.0574    0.0000 H   0  0  0  0  0  0  0  0  0  0  0  0
    9.4124   -2.7998    0.0000 H   0  0  0  0  0  0  0  0  0  0  0  0
    5.9847   -0.6032    0.0000 H   0  0  0  0  0  0  0  0  0  0  0  0
    5.5862   -1.2935    0.0000 H   0  0  0  0  0  0  0  0  0  0  0  0
    9.9195   -2.1005    0.0000 H   0  0  0  0  0  0  0  0  0  0  0  0
    9.9195   -1.2711    0.0000 H   0  0  0  0  0  0  0  0  0  0  0  0
    7.2969   -4.3077    0.0000 H   0  0  0  0  0  0  0  0  0  0  0  0
    7.6880   -3.6118    0.0000 H   0  0  0  0  0  0  0  0  0  0  0  0
    8.5488   -0.1858    0.0000 H   0  0  0  0  0  0  0  0  0  0  0  0
    7.9288    0.4342    0.0000 H   0  0  0  0  0  0  0  0  0  0  0  0
    7.3088   -0.1858    0.0000 H   0  0  0  0  0  0  0  0  0  0  0  0
    5.7835   -4.7310    0.0000 H   0  0  0  0  0  0  0  0  0  0  0  0
    6.5818   -4.7280    0.0000 H   0  0  0  0  0  0  0  0  0  0  0  0
    4.3719   -1.5087    0.0000 H   0  0  0  0  0  0  0  0  0  0  0  0
    4.3457   -4.9040    0.0000 H   0  0  0  0  0  0  0  0  0  0  0  0
    2.8787   -2.3403    0.0000 H   0  0  0  0  0  0  0  0  0  0  0  0
   10.4543    1.8458    0.0000 H   0  0  0  0  0  0  0  0  0  0  0  0
    9.8611    1.3135    0.0000 H   0  0  0  0  0  0  0  0  0  0  0  0
   11.4739    0.8128    0.0000 H   0  0  0  0  0  0  0  0  0  0  0  0
   12.0672    1.3451    0.0000 H   0  0  0  0  0  0  0  0  0  0  0  0
    2.0000   -3.9261    0.0000 H   0  0  0  0  0  0  0  0  0  0  0  0
   10.4895    2.9994    0.0000 H   0  0  0  0  0  0  0  0  0  0  0  0
   13.1566    2.1277    0.0000 H   0  0  0  0  0  0  0  0  0  0  0  0
   10.9928    4.5392    0.0000 H   0  0  0  0  0  0  0  0  0  0  0  0
   13.6599    3.6675    0.0000 H   0  0  0  0  0  0  0  0  0  0  0  0
   12.5780    4.8733    0.0000 H   0  0  0  0  0  0  0  0  0  0  0  0
  8  1  1  1  0  0  0
  1 20  1  0  0  0  0
  2 20  2  0  0  0  0
  3 22  1  0  0  0  0
  3 57  1  0  0  0  0
  4  5  1  0  0  0  0
  4  8  1  0  0  0  0
  4  9  1  0  0  0  0
  4 14  1  1  0  0  0
  5  6  1  0  0  0  0
  5 10  1  0  0  0  0
  5 31  1  6  0  0  0
  6  7  1  0  0  0  0
  6 13  1  0  0  0  0
  6 32  1  1  0  0  0
  7 11  1  0  0  0  0
  7 15  1  0  0  0  0
  7 33  1  6  0  0  0
  8 12  1  0  0  0  0
  8 34  1  0  0  0  0
  9 11  1  0  0  0  0
  9 35  1  0  0  0  0
  9 36  1  0  0  0  0
 10 12  1  0  0  0  0
 10 37  1  0  0  0  0
 10 38  1  0  0  0  0
 11 39  1  0  0  0  0
 11 40  1  0  0  0  0
 12 41  1  0  0  0  0
 12 42  1  0  0  0  0
 13 16  1  0  0  0  0
 13 43  1  0  0  0  0
 13 44  1  0  0  0  0
 14 45  1  0  0  0  0
 14 46  1  0  0  0  0
 14 47  1  0  0  0  0
 15 17  2  0  0  0  0
 15 18  1  0  0  0  0
 16 17  1  0  0  0  0
 16 48  1  0  0  0  0
 16 49  1  0  0  0  0
 17 19  1  0  0  0  0
 18 21  2  0  0  0  0
 18 50  1  0  0  0  0
 19 22  2  0  0  0  0
 19 51  1  0  0  0  0
 20 23  1  0  0  0  0
 21 22  1  0  0  0  0
 21 52  1  0  0  0  0
 23 24  1  0  0  0  0
 23 53  1  0  0  0  0
 23 54  1  0  0  0  0
 24 25  1  0  0  0  0
 24 55  1  0  0  0  0
 24 56  1  0  0  0  0
 25 26  2  0  0  0  0
 25 27  1  0  0  0  0
 26 28  1  0  0  0  0
 26 58  1  0  0  0  0
 27 29  2  0  0  0  0
 27 59  1  0  0  0  0
 28 30  2  0  0  0  0
 28 60  1  0  0  0  0
 29 30  1  0  0  0  0
 29 61  1  0  0  0  0
 30 62  1  0  0  0  0
M  END
> <PUBCHEM_COMPOUND_CID>
68577

> <PUBCHEM_COMPOUND_CANONICALIZED>
1

> <PUBCHEM_CACTVS_COMPLEXITY>
611

> <PUBCHEM_CACTVS_HBOND_ACCEPTOR>
3

> <PUBCHEM_CACTVS_HBOND_DONOR>
1

> <PUBCHEM_CACTVS_ROTATABLE_BOND>
5

> <PUBCHEM_CACTVS_SUBSKEYS>
AAADcfB4MAAAAAAAAAAAAAAAAAAAAYAAAAAwYMGAAAAAAGDBQAAAGgAACAAADxSgmAIyDoAABgCIAiDSCAACAAAgIAAIiAEGCIgIJjKCERKCcAAkwBEImAeIyPCPoAABAAAQAADAAAYAACAAAIAADAAAAA==

> <PUBCHEM_IUPAC_OPENEYE_NAME>
[(8R,9S,13S,14S,17S)-3-hydroxy-13-methyl-6,7,8,9,11,12,14,15,16,17-decahydrocyclopenta[a]phenanthren-17-yl] 3-phenylpropanoate

> <PUBCHEM_IUPAC_CAS_NAME>
3-phenylpropanoic acid [(8R,9S,13S,14S,17S)-3-hydroxy-13-methyl-6,7,8,9,11,12,14,15,16,17-decahydrocyclopenta[a]phenanthren-17-yl] ester

> <PUBCHEM_IUPAC_NAME>
[(8R,9S,13S,14S,17S)-3-hydroxy-13-methyl-6,7,8,9,11,12,14,15,16,17-decahydrocyclopenta[a]phenanthren-17-yl] 3-phenylpropanoate

> <PUBCHEM_IUPAC_SYSTEMATIC_NAME>
[(8R,9S,13S,14S,17S)-13-methyl-3-oxidanyl-6,7,8,9,11,12,14,15,16,17-decahydrocyclopenta[a]phenanthren-17-yl] 3-phenylpropanoate

> <PUBCHEM_IUPAC_TRADITIONAL_NAME>
3-phenylpropionic acid [(8R,9S,13S,14S,17S)-3-hydroxy-13-methyl-6,7,8,9,11,12,14,15,16,17-decahydrocyclopenta[a]phenanthren-17-yl] ester

> <PUBCHEM_IUPAC_INCHI>
InChI=1S/C27H32O3/c1-27-16-15-22-21-11-9-20(28)17-19(21)8-10-23(22)24(27)12-13-25(27)30-26(29)14-7-18-5-3-2-4-6-18/h2-6,9,11,17,22-25,28H,7-8,10,12-16H2,1H3/t22-,23-,24+,25+,27+/m1/s1

> <PUBCHEM_IUPAC_INCHIKEY>
LQWSQQKTZLDGME-RYIFMDQWSA-N

> <PUBCHEM_XLOGP3>
6.5

> <PUBCHEM_EXACT_MASS>
404.235145

> <PUBCHEM_MOLECULAR_FORMULA>
C27H32O3

> <PUBCHEM_MOLECULAR_WEIGHT>
404.54118

> <PUBCHEM_OPENEYE_CAN_SMILES>
CC12CCC3C(C1CCC2OC(=O)CCC4=CC=CC=C4)CCC5=C3C=CC(=C5)O

> <PUBCHEM_OPENEYE_ISO_SMILES>
C[C@]12CC[C@H]3[C@H]([C@@H]1CC[C@@H]2OC(=O)CCC4=CC=CC=C4)CCC5=C3C=CC(=C5)O

> <PUBCHEM_CACTVS_TPSA>
46.5

> <PUBCHEM_MONOISOTOPIC_WEIGHT>
404.235145

> <PUBCHEM_TOTAL_CHARGE>
0

> <PUBCHEM_HEAVY_ATOM_COUNT>
30

> <PUBCHEM_ATOM_DEF_STEREO_COUNT>
5

> <PUBCHEM_ATOM_UDEF_STEREO_COUNT>
0

> <PUBCHEM_BOND_DEF_STEREO_COUNT>
0

> <PUBCHEM_BOND_UDEF_STEREO_COUNT>
0

> <PUBCHEM_ISOTOPIC_ATOM_COUNT>
0

> <PUBCHEM_COMPONENT_COUNT>
1

> <PUBCHEM_CACTVS_TAUTO_COUNT>
9

> <PUBCHEM_COORDINATE_TYPE>
1
5
255

> <PUBCHEM_BONDANNOTATIONS>
8  1  5
15  17  8
15  18  8
17  19  8
18  21  8
19  22  8
21  22  8
25  26  8
25  27  8
26  28  8
27  29  8
28  30  8
29  30  8
4  14  5
5  31  6
6  32  5
7  33  6

$$$$

