227110
  -OEChem-07051213062D

 58 61  0     1  0  0  0  0  0999 V2000
    8.0319    1.8625    0.0000 O   0  0  0  0  0  0  0  0  0  0  0  0
    9.0465    2.4920    0.0000 O   0  0  0  0  0  0  0  0  0  0  0  0
   10.8722    1.6754    0.0000 O   0  0  0  0  0  0  0  0  0  0  0  0
    2.0000   -2.4462    0.0000 O   0  0  0  0  0  0  0  0  0  0  0  0
   11.8879    0.2723    0.0000 O   0  0  0  0  0  0  0  0  0  0  0  0
    7.3931    0.6062    0.0000 C   0  0  1  0  0  0  0  0  0  0  0  0
    7.3931   -0.3938    0.0000 C   0  0  2  0  0  0  0  0  0  0  0  0
    6.5271   -0.8938    0.0000 C   0  0  1  0  0  0  0  0  0  0  0  0
    5.6610   -0.3938    0.0000 C   0  0  2  0  0  0  0  0  0  0  0  0
    8.3393    0.9109    0.0000 C   0  0  1  0  0  0  0  0  0  0  0  0
    6.5271    1.1062    0.0000 C   0  0  0  0  0  0  0  0  0  0  0  0
    8.3393   -0.6986    0.0000 C   0  0  0  0  0  0  0  0  0  0  0  0
    5.6610    0.6062    0.0000 C   0  0  0  0  0  0  0  0  0  0  0  0
    4.7510   -0.9007    0.0000 C   0  0  1  0  0  0  0  0  0  0  0  0
    8.9229    0.1062    0.0000 C   0  0  0  0  0  0  0  0  0  0  0  0
    6.5431   -1.9353    0.0000 C   0  0  0  0  0  0  0  0  0  0  0  0
    7.3931    1.6062    0.0000 C   0  0  0  0  0  0  0  0  0  0  0  0
    5.6451   -2.4631    0.0000 C   0  0  0  0  0  0  0  0  0  0  0  0
    4.7430   -1.9423    0.0000 C   0  0  0  0  0  0  0  0  0  0  0  0
    9.1493    1.4973    0.0000 C   0  0  0  0  0  0  0  0  0  0  0  0
    4.7587    0.0993    0.0000 C   0  0  0  0  0  0  0  0  0  0  0  0
    3.8242   -0.3366    0.0000 C   0  0  0  0  0  0  0  0  0  0  0  0
    3.8076   -2.4920    0.0000 C   0  0  0  0  0  0  0  0  0  0  0  0
   10.0622    1.0890    0.0000 C   0  0  0  0  0  0  0  0  0  0  0  0
    2.8763   -0.8645    0.0000 C   0  0  0  0  0  0  0  0  0  0  0  0
    2.8680   -1.9495    0.0000 C   0  0  0  0  0  0  0  0  0  0  0  0
   11.7851    1.2670    0.0000 C   0  0  0  0  0  0  0  0  0  0  0  0
   12.5951    1.8534    0.0000 C   0  0  0  0  0  0  0  0  0  0  0  0
    7.4830   -1.2390    0.0000 H   0  0  0  0  0  0  0  0  0  0  0  0
    7.2664   -1.3131    0.0000 H   0  0  0  0  0  0  0  0  0  0  0  0
    6.3972    0.0312    0.0000 H   0  0  0  0  0  0  0  0  0  0  0  0
    6.9256    1.5811    0.0000 H   0  0  0  0  0  0  0  0  0  0  0  0
    6.1285    1.5811    0.0000 H   0  0  0  0  0  0  0  0  0  0  0  0
    8.0883   -1.2655    0.0000 H   0  0  0  0  0  0  0  0  0  0  0  0
    8.8767   -1.0078    0.0000 H   0  0  0  0  0  0  0  0  0  0  0  0
    5.4490    1.1888    0.0000 H   0  0  0  0  0  0  0  0  0  0  0  0
    5.0504    0.4985    0.0000 H   0  0  0  0  0  0  0  0  0  0  0  0
    9.3838   -0.3086    0.0000 H   0  0  0  0  0  0  0  0  0  0  0  0
    9.3838    0.5209    0.0000 H   0  0  0  0  0  0  0  0  0  0  0  0
    6.7612   -2.5157    0.0000 H   0  0  0  0  0  0  0  0  0  0  0  0
    7.1523   -1.8198    0.0000 H   0  0  0  0  0  0  0  0  0  0  0  0
    8.0131    1.6062    0.0000 H   0  0  0  0  0  0  0  0  0  0  0  0
    7.3931    2.2262    0.0000 H   0  0  0  0  0  0  0  0  0  0  0  0
    6.7731    1.6062    0.0000 H   0  0  0  0  0  0  0  0  0  0  0  0
    5.2478   -2.9390    0.0000 H   0  0  0  0  0  0  0  0  0  0  0  0
    6.0460   -2.9360    0.0000 H   0  0  0  0  0  0  0  0  0  0  0  0
    5.3787    0.0945    0.0000 H   0  0  0  0  0  0  0  0  0  0  0  0
    4.7635    0.7193    0.0000 H   0  0  0  0  0  0  0  0  0  0  0  0
    4.1388    0.1041    0.0000 H   0  0  0  0  0  0  0  0  0  0  0  0
    3.8361    0.2833    0.0000 H   0  0  0  0  0  0  0  0  0  0  0  0
    8.4476    2.3225    0.0000 H   0  0  0  0  0  0  0  0  0  0  0  0
    3.8100   -3.1120    0.0000 H   0  0  0  0  0  0  0  0  0  0  0  0
    9.7146    0.5756    0.0000 H   0  0  0  0  0  0  0  0  0  0  0  0
   10.5074    0.6575    0.0000 H   0  0  0  0  0  0  0  0  0  0  0  0
    2.3430   -0.5483    0.0000 H   0  0  0  0  0  0  0  0  0  0  0  0
   12.9586    1.3512    0.0000 H   0  0  0  0  0  0  0  0  0  0  0  0
   13.0973    2.2170    0.0000 H   0  0  0  0  0  0  0  0  0  0  0  0
   12.2315    2.3556    0.0000 H   0  0  0  0  0  0  0  0  0  0  0  0
 10  1  1  6  0  0  0
  1 51  1  0  0  0  0
  2 20  2  0  0  0  0
  3 24  1  0  0  0  0
  3 27  1  0  0  0  0
  4 26  2  0  0  0  0
  5 27  2  0  0  0  0
  6  7  1  0  0  0  0
  6 10  1  0  0  0  0
  6 11  1  0  0  0  0
  6 17  1  1  0  0  0
  7  8  1  0  0  0  0
  7 12  1  0  0  0  0
  7 29  1  6  0  0  0
  8  9  1  0  0  0  0
  8 16  1  0  0  0  0
  8 30  1  1  0  0  0
  9 13  1  0  0  0  0
  9 14  1  0  0  0  0
  9 31  1  6  0  0  0
 10 15  1  0  0  0  0
 10 20  1  0  0  0  0
 11 13  1  0  0  0  0
 11 32  1  0  0  0  0
 11 33  1  0  0  0  0
 12 15  1  0  0  0  0
 12 34  1  0  0  0  0
 12 35  1  0  0  0  0
 13 36  1  0  0  0  0
 13 37  1  0  0  0  0
 14 19  1  0  0  0  0
 14 21  1  1  0  0  0
 14 22  1  0  0  0  0
 15 38  1  0  0  0  0
 15 39  1  0  0  0  0
 16 18  1  0  0  0  0
 16 40  1  0  0  0  0
 16 41  1  0  0  0  0
 17 42  1  0  0  0  0
 17 43  1  0  0  0  0
 17 44  1  0  0  0  0
 18 19  1  0  0  0  0
 18 45  1  0  0  0  0
 18 46  1  0  0  0  0
 19 23  2  0  0  0  0
 20 24  1  0  0  0  0
 21 47  1  0  0  0  0
 21 48  1  0  0  0  0
 21 49  1  0  0  0  0
 22 25  2  0  0  0  0
 22 50  1  0  0  0  0
 23 26  1  0  0  0  0
 23 52  1  0  0  0  0
 24 53  1  0  0  0  0
 24 54  1  0  0  0  0
 25 26  1  0  0  0  0
 25 55  1  0  0  0  0
 27 28  1  0  0  0  0
 28 56  1  0  0  0  0
 28 57  1  0  0  0  0
 28 58  1  0  0  0  0
M  END
> <PUBCHEM_COMPOUND_CID>
227110

> <PUBCHEM_COMPOUND_CANONICALIZED>
1

> <PUBCHEM_CACTVS_COMPLEXITY>
795

> <PUBCHEM_CACTVS_HBOND_ACCEPTOR>
5

> <PUBCHEM_CACTVS_HBOND_DONOR>
1

> <PUBCHEM_CACTVS_ROTATABLE_BOND>
4

> <PUBCHEM_CACTVS_SUBSKEYS>
AAADceB4OAAAAAAAAAAAAAAAAAAAAYAAAAAwYIAAAAAAAGDAAAAAGgAACAAAD0SggAICCAAABgCIAqDSCAIAAAAgAAAICAFAAEgAABIAAQQCQAAFgAAIAYOIyPCPgAAAAAAAAACAAAQAACAAAYAADAAAAA==

> <PUBCHEM_IUPAC_OPENEYE_NAME>
[2-[(8R,9S,10R,13S,14S,17R)-17-hydroxy-10,13-dimethyl-3-oxo-7,8,9,11,12,14,15,16-octahydro-6H-cyclopenta[a]phenanthren-17-yl]-2-oxo-ethyl] acetate

> <PUBCHEM_IUPAC_CAS_NAME>
acetic acid [2-[(8R,9S,10R,13S,14S,17R)-17-hydroxy-10,13-dimethyl-3-oxo-7,8,9,11,12,14,15,16-octahydro-6H-cyclopenta[a]phenanthren-17-yl]-2-oxoethyl] ester

> <PUBCHEM_IUPAC_NAME>
[2-[(8R,9S,10R,13S,14S,17R)-17-hydroxy-10,13-dimethyl-3-oxo-7,8,9,11,12,14,15,16-octahydro-6H-cyclopenta[a]phenanthren-17-yl]-2-oxoethyl] acetate

> <PUBCHEM_IUPAC_SYSTEMATIC_NAME>
[2-[(8R,9S,10R,13S,14S,17R)-10,13-dimethyl-17-oxidanyl-3-oxidanylidene-7,8,9,11,12,14,15,16-octahydro-6H-cyclopenta[a]phenanthren-17-yl]-2-oxidanylidene-ethyl] ethanoate

> <PUBCHEM_IUPAC_TRADITIONAL_NAME>
acetic acid [2-[(8R,9S,10R,13S,14S,17R)-17-hydroxy-3-keto-10,13-dimethyl-7,8,9,11,12,14,15,16-octahydro-6H-cyclopenta[a]phenanthren-17-yl]-2-keto-ethyl] ester

> <PUBCHEM_IUPAC_INCHI>
InChI=1S/C23H30O5/c1-14(24)28-13-20(26)23(27)11-8-19-17-5-4-15-12-16(25)6-9-21(15,2)18(17)7-10-22(19,23)3/h6,9,12,17-19,27H,4-5,7-8,10-11,13H2,1-3H3/t17-,18+,19+,21+,22+,23+/m1/s1

> <PUBCHEM_IUPAC_INCHIKEY>
WVRZJAMAOJQSRN-JZTHCNPZSA-N

> <PUBCHEM_XLOGP3>
3.6

> <PUBCHEM_EXACT_MASS>
386.209324

> <PUBCHEM_MOLECULAR_FORMULA>
C23H30O5

> <PUBCHEM_MOLECULAR_WEIGHT>
386.4813

> <PUBCHEM_OPENEYE_CAN_SMILES>
CC(=O)OCC(=O)C1(CCC2C1(CCC3C2CCC4=CC(=O)C=CC34C)C)O

> <PUBCHEM_OPENEYE_ISO_SMILES>
CC(=O)OCC(=O)[C@]1(CC[C@@H]2[C@@]1(CC[C@H]3[C@H]2CCC4=CC(=O)C=C[C@]34C)C)O

> <PUBCHEM_CACTVS_TPSA>
80.7

> <PUBCHEM_MONOISOTOPIC_WEIGHT>
386.209324

> <PUBCHEM_TOTAL_CHARGE>
0

> <PUBCHEM_HEAVY_ATOM_COUNT>
28

> <PUBCHEM_ATOM_DEF_STEREO_COUNT>
6

> <PUBCHEM_ATOM_UDEF_STEREO_COUNT>
0

> <PUBCHEM_BOND_DEF_STEREO_COUNT>
0

> <PUBCHEM_BOND_UDEF_STEREO_COUNT>
0

> <PUBCHEM_ISOTOPIC_ATOM_COUNT>
0

> <PUBCHEM_COMPONENT_COUNT>
1

> <PUBCHEM_CACTVS_TAUTO_COUNT>
6

> <PUBCHEM_COORDINATE_TYPE>
1
5
255

> <PUBCHEM_BONDANNOTATIONS>
10  1  6
14  21  5
6  17  5
7  29  6
8  30  5
9  31  6

$$$$

