   Color/Form
        Viscous liquid
   from [1]HSDB

   Boiling Point
        146-150 deg C @ 0.0005 mm Hg
   from [2]HSDB

   Density/Specific Gravity
        1.5192 g/cu cm @ 18 deg C
   from [3]HSDB

   Octanol/Water Partition Coefficient
        log Kow = 5.9
   from [4]HSDB

   Solubilities

     * Sol in alcohol, petr ether, kerosene, carbon tetrachloride,
       ethylene dichloride, nitromethane.
     * Sol in diethyl ether
     * In water, 0.2 mg/l (temperature not specified).

   from [5]HSDB

   Spectral Properties

     * Index of refraction: 1.5242 at 20 deg C/D
     * MASS: 238 (Aldermaston, Eight Peak Index of Mass Spectra, UK)
     * Index of refraction 1.5192 at 18 deg C/D
     * Specific optical rotation: -14 deg at 20 deg C/D (isooctane)
     * Max absorption (95% ethanol): 225 nm (molar extinction coefficient
       = 36,400 g-moles/l)
     * Specific optical rotation: -32.3 deg at 25 deg C/D (diethyl ether
       percentage concentration = 5.66)

   from [6]HSDB

   Vapor Pressure
        2.03X10-5 mm Hg (temperature not specified)
   from [7]HSDB

   Other Chemical/Physical Properties

     * Hydrolyzes in water, and the process is speeded by acid or alkali.
     * BP: 170 deg C at 0.1 mm Hg ... Heat >200 deg C leads to formation
       of less-active iso-pyrethrins.
     * Refined extract is a pale yellow mobile oil with a faint flowery
       order; unrefined extract is a dark greenish brown viscous liquid.
       Powder (ground flowers) is tan color. /Pyrethrins/
     * Incompatible with alkalies
     * Oxidizes readily in air and becomes inactive in air.

   from [8]HSDB

   Computed Properties
   Molecular Weight                  328.44522 [g/mol]
   Molecular Formula                 C[21]H[28]O[3]
   XLogP3                            5.4
   H-Bond Donor                      0
   H-Bond Acceptor                   3
   Rotatable Bond Count              7
   Tautomer Count                    5
   Exact Mass                        328.203845
   MonoIsotopic Mass                 328.203845
   Topological Polar Surface Area    43.4
   Heavy Atom Count                  24
   Formal Charge                     0
   Complexity                        642
   Isotope Atom Count                0
   Defined Atom Stereocenter Count   3
   Undefined Atom Stereocenter Count 0
   Defined Bond Stereocenter Count   1
   Undefined Bond Stereocenter Count 0
   Covalently-Bonded Unit Count      1
   Feature 3D Acceptor Count         2
   Feature 3D Hydrophobe Count       3
   Feature 3D Ring Count             1
   Effective Rotor Count             8
   Conformer Sampling RMSD           0.8
   CID Conformer Count               [9]490

References

   1. http://toxnet.nlm.nih.gov/cgi-bin/sis/search/r?dbs+hsdb:@term+@rn+@rel+121-21-1
   2. http://toxnet.nlm.nih.gov/cgi-bin/sis/search/r?dbs+hsdb:@term+@rn+@rel+121-21-1
   3. http://toxnet.nlm.nih.gov/cgi-bin/sis/search/r?dbs+hsdb:@term+@rn+@rel+121-21-1
   4. http://toxnet.nlm.nih.gov/cgi-bin/sis/search/r?dbs+hsdb:@term+@rn+@rel+121-21-1
   5. http://toxnet.nlm.nih.gov/cgi-bin/sis/search/r?dbs+hsdb:@term+@rn+@rel+121-21-1
   6. http://toxnet.nlm.nih.gov/cgi-bin/sis/search/r?dbs+hsdb:@term+@rn+@rel+121-21-1
   7. http://toxnet.nlm.nih.gov/cgi-bin/sis/search/r?dbs+hsdb:@term+@rn+@rel+121-21-1
   8. http://toxnet.nlm.nih.gov/cgi-bin/sis/search/r?dbs+hsdb:@term+@rn+@rel+121-21-1
   9. http://pubchem.ncbi.nlm.nih.gov/vw3d/vw3d.cgi?cid=5281045
