242346
  -OEChem-07051213072D

 71 74  0     1  0  0  0  0  0999 V2000
    2.6169   -4.2239    0.0000 O   0  0  0  0  0  0  0  0  0  0  0  0
    6.8904   -0.0891    0.0000 C   0  0  1  0  0  0  0  0  0  0  0  0
    6.8904   -1.0891    0.0000 C   0  0  2  0  0  0  0  0  0  0  0  0
    6.0244   -1.5891    0.0000 C   0  0  1  0  0  0  0  0  0  0  0  0
    5.1584   -1.0891    0.0000 C   0  0  1  0  0  0  0  0  0  0  0  0
    7.8366    0.2156    0.0000 C   0  0  2  0  0  0  0  0  0  0  0  0
    4.4213   -1.7562    0.0000 C   0  0  2  0  0  0  0  0  0  0  0  0
    6.0244    0.4109    0.0000 C   0  0  0  0  0  0  0  0  0  0  0  0
    7.8366   -1.3939    0.0000 C   0  0  0  0  0  0  0  0  0  0  0  0
    5.1584   -0.0891    0.0000 C   0  0  0  0  0  0  0  0  0  0  0  0
    8.4202   -0.5891    0.0000 C   0  0  0  0  0  0  0  0  0  0  0  0
    4.8264   -2.6640    0.0000 C   0  0  0  0  0  0  0  0  0  0  0  0
    5.8152   -2.5610    0.0000 C   0  0  0  0  0  0  0  0  0  0  0  0
    8.1473    1.1661    0.0000 C   0  0  1  0  0  0  0  0  0  0  0  0
    6.8904    0.9109    0.0000 C   0  0  0  0  0  0  0  0  0  0  0  0
    3.3932   -1.6330    0.0000 C   0  0  0  0  0  0  0  0  0  0  0  0
    4.0138   -0.8430    0.0000 C   0  0  0  0  0  0  0  0  0  0  0  0
    4.2315   -3.5115    0.0000 C   0  0  0  0  0  0  0  0  0  0  0  0
    2.7789   -2.4665    0.0000 C   0  0  0  0  0  0  0  0  0  0  0  0
    3.2009   -3.4121    0.0000 C   0  0  2  0  0  0  0  0  0  0  0  0
    9.1258    1.3723    0.0000 C   0  0  0  0  0  0  0  0  0  0  0  0
    7.4794    1.9104    0.0000 C   0  0  0  0  0  0  0  0  0  0  0  0
    9.4365    2.3228    0.0000 C   0  0  0  0  0  0  0  0  0  0  0  0
   10.4150    2.5291    0.0000 C   0  0  0  0  0  0  0  0  0  0  0  0
   10.7256    3.4796    0.0000 C   0  0  0  0  0  0  0  0  0  0  0  0
   11.7041    3.6858    0.0000 C   0  0  0  0  0  0  0  0  0  0  0  0
   10.0578    4.2239    0.0000 C   0  0  0  0  0  0  0  0  0  0  0  0
    6.9804   -1.9344    0.0000 H   0  0  0  0  0  0  0  0  0  0  0  0
    6.7114   -2.0896    0.0000 H   0  0  0  0  0  0  0  0  0  0  0  0
    4.3814   -0.7444    0.0000 H   0  0  0  0  0  0  0  0  0  0  0  0
    8.6763    0.3475    0.0000 H   0  0  0  0  0  0  0  0  0  0  0  0
    6.4229    0.8858    0.0000 H   0  0  0  0  0  0  0  0  0  0  0  0
    5.6258    0.8858    0.0000 H   0  0  0  0  0  0  0  0  0  0  0  0
    7.5856   -1.9608    0.0000 H   0  0  0  0  0  0  0  0  0  0  0  0
    8.3740   -1.7031    0.0000 H   0  0  0  0  0  0  0  0  0  0  0  0
    4.9463    0.4935    0.0000 H   0  0  0  0  0  0  0  0  0  0  0  0
    4.5478   -0.1968    0.0000 H   0  0  0  0  0  0  0  0  0  0  0  0
    8.8811   -1.0039    0.0000 H   0  0  0  0  0  0  0  0  0  0  0  0
    8.8811   -0.1744    0.0000 H   0  0  0  0  0  0  0  0  0  0  0  0
    6.2292   -3.0224    0.0000 H   0  0  0  0  0  0  0  0  0  0  0  0
    7.5406    1.0383    0.0000 H   0  0  0  0  0  0  0  0  0  0  0  0
    7.5104    0.9109    0.0000 H   0  0  0  0  0  0  0  0  0  0  0  0
    6.8904    1.5309    0.0000 H   0  0  0  0  0  0  0  0  0  0  0  0
    6.2704    0.9109    0.0000 H   0  0  0  0  0  0  0  0  0  0  0  0
    3.5713   -1.0391    0.0000 H   0  0  0  0  0  0  0  0  0  0  0  0
    2.8386   -1.3560    0.0000 H   0  0  0  0  0  0  0  0  0  0  0  0
    4.5800   -0.5904    0.0000 H   0  0  0  0  0  0  0  0  0  0  0  0
    3.7612   -0.2768    0.0000 H   0  0  0  0  0  0  0  0  0  0  0  0
    3.4476   -1.0957    0.0000 H   0  0  0  0  0  0  0  0  0  0  0  0
    4.0673   -4.1094    0.0000 H   0  0  0  0  0  0  0  0  0  0  0  0
    4.7925   -3.7756    0.0000 H   0  0  0  0  0  0  0  0  0  0  0  0
    2.3501   -2.0187    0.0000 H   0  0  0  0  0  0  0  0  0  0  0  0
    2.2643   -2.8124    0.0000 H   0  0  0  0  0  0  0  0  0  0  0  0
    2.5841   -3.3490    0.0000 H   0  0  0  0  0  0  0  0  0  0  0  0
    9.1464    0.7527    0.0000 H   0  0  0  0  0  0  0  0  0  0  0  0
    9.7396    1.2850    0.0000 H   0  0  0  0  0  0  0  0  0  0  0  0
    7.9409    2.3245    0.0000 H   0  0  0  0  0  0  0  0  0  0  0  0
    7.0654    2.3719    0.0000 H   0  0  0  0  0  0  0  0  0  0  0  0
    7.0180    1.4964    0.0000 H   0  0  0  0  0  0  0  0  0  0  0  0
    9.4159    2.9425    0.0000 H   0  0  0  0  0  0  0  0  0  0  0  0
    8.8226    2.4102    0.0000 H   0  0  0  0  0  0  0  0  0  0  0  0
    2.0000   -4.1620    0.0000 H   0  0  0  0  0  0  0  0  0  0  0  0
   10.4355    1.9094    0.0000 H   0  0  0  0  0  0  0  0  0  0  0  0
   11.0288    2.4417    0.0000 H   0  0  0  0  0  0  0  0  0  0  0  0
   10.9182    4.0689    0.0000 H   0  0  0  0  0  0  0  0  0  0  0  0
   11.8320    3.0791    0.0000 H   0  0  0  0  0  0  0  0  0  0  0  0
   10.5192    4.6380    0.0000 H   0  0  0  0  0  0  0  0  0  0  0  0
    9.6437    4.6854    0.0000 H   0  0  0  0  0  0  0  0  0  0  0  0
    9.5963    3.8098    0.0000 H   0  0  0  0  0  0  0  0  0  0  0  0
   12.3108    3.8137    0.0000 H   0  0  0  0  0  0  0  0  0  0  0  0
   11.5763    4.2925    0.0000 H   0  0  0  0  0  0  0  0  0  0  0  0
 20  1  1  1  0  0  0
  1 62  1  0  0  0  0
  2  3  1  0  0  0  0
  2  6  1  0  0  0  0
  2  8  1  0  0  0  0
  2 15  1  1  0  0  0
  3  4  1  0  0  0  0
  3  9  1  0  0  0  0
  3 28  1  6  0  0  0
  4  5  1  0  0  0  0
  4 13  1  0  0  0  0
  4 29  1  1  0  0  0
  5  7  1  0  0  0  0
  5 10  1  0  0  0  0
  5 30  1  6  0  0  0
  6 11  1  0  0  0  0
  6 14  1  0  0  0  0
  6 31  1  6  0  0  0
  7 12  1  0  0  0  0
  7 16  1  0  0  0  0
  7 17  1  1  0  0  0
  8 10  1  0  0  0  0
  8 32  1  0  0  0  0
  8 33  1  0  0  0  0
  9 11  1  0  0  0  0
  9 34  1  0  0  0  0
  9 35  1  0  0  0  0
 10 36  1  0  0  0  0
 10 37  1  0  0  0  0
 11 38  1  0  0  0  0
 11 39  1  0  0  0  0
 12 13  2  0  0  0  0
 12 18  1  0  0  0  0
 13 40  1  0  0  0  0
 14 21  1  0  0  0  0
 14 22  1  6  0  0  0
 14 41  1  0  0  0  0
 15 42  1  0  0  0  0
 15 43  1  0  0  0  0
 15 44  1  0  0  0  0
 16 19  1  0  0  0  0
 16 45  1  0  0  0  0
 16 46  1  0  0  0  0
 17 47  1  0  0  0  0
 17 48  1  0  0  0  0
 17 49  1  0  0  0  0
 18 20  1  0  0  0  0
 18 50  1  0  0  0  0
 18 51  1  0  0  0  0
 19 20  1  0  0  0  0
 19 52  1  0  0  0  0
 19 53  1  0  0  0  0
 20 54  1  0  0  0  0
 21 23  1  0  0  0  0
 21 55  1  0  0  0  0
 21 56  1  0  0  0  0
 22 57  1  0  0  0  0
 22 58  1  0  0  0  0
 22 59  1  0  0  0  0
 23 24  1  0  0  0  0
 23 60  1  0  0  0  0
 23 61  1  0  0  0  0
 24 25  1  0  0  0  0
 24 63  1  0  0  0  0
 24 64  1  0  0  0  0
 25 26  1  0  0  0  0
 25 27  1  0  0  0  0
 25 65  1  0  0  0  0
 26 66  1  0  0  0  0
 26 70  1  0  0  0  0
 26 71  1  0  0  0  0
 27 67  1  0  0  0  0
 27 68  1  0  0  0  0
 27 69  1  0  0  0  0
M  END
> <PUBCHEM_COMPOUND_CID>
242346

> <PUBCHEM_COMPOUND_CANONICALIZED>
1

> <PUBCHEM_CACTVS_COMPLEXITY>
577

> <PUBCHEM_CACTVS_HBOND_ACCEPTOR>
1

> <PUBCHEM_CACTVS_HBOND_DONOR>
1

> <PUBCHEM_CACTVS_ROTATABLE_BOND>
5

> <PUBCHEM_CACTVS_SUBSKEYS>
AAADcfB4IAAAAAAAAAAAAAAAAAAAAYIAAAAwYAAAAAAAAGAAAAAAGgAACAAADxSggAICAAAAAgCAAiBCAAAAAAAgAAAACAAAAAgAEAIAAQAAQAAEwAAIAAOAwPAPgAAAAAAAAADAAAQAACAAAQAACAAAAA==

> <PUBCHEM_IUPAC_OPENEYE_NAME>
(3R,3aR,5aS,5bR,8S,10aS,10bS)-3-[(1R)-1,5-dimethylhexyl]-3a,5b-dimethyl-1,2,3,4,5,5a,6,7,8,9,10a,10b-dodecahydrocyclopenta[a]fluoren-8-ol

> <PUBCHEM_IUPAC_CAS_NAME>
(3R,3aR,5aS,5bR,8S,10aS,10bS)-3a,5b-dimethyl-3-[(2R)-6-methylheptan-2-yl]-1,2,3,4,5,5a,6,7,8,9,10a,10b-dodecahydrocyclopenta[a]fluoren-8-ol

> <PUBCHEM_IUPAC_NAME>
(3R,3aR,5aS,5bR,8S,10aS,10bS)-3a,5b-dimethyl-3-[(2R)-6-methylheptan-2-yl]-1,2,3,4,5,5a,6,7,8,9,10a,10b-dodecahydrocyclopenta[a]fluoren-8-ol

> <PUBCHEM_IUPAC_SYSTEMATIC_NAME>
(3R,3aR,5aS,5bR,8S,10aS,10bS)-3a,5b-dimethyl-3-[(2R)-6-methylheptan-2-yl]-1,2,3,4,5,5a,6,7,8,9,10a,10b-dodecahydrocyclopenta[a]fluoren-8-ol

> <PUBCHEM_IUPAC_TRADITIONAL_NAME>
(3R,3aR,5aS,5bR,8S,10aS,10bS)-3-[(1R)-1,5-dimethylhexyl]-3a,5b-dimethyl-1,2,3,4,5,5a,6,7,8,9,10a,10b-dodecahydrocyclopenta[a]fluoren-8-ol

> <PUBCHEM_IUPAC_INCHI>
InChI=1S/C26H44O/c1-17(2)7-6-8-18(3)22-9-10-23-21-16-19-15-20(27)11-13-25(19,4)24(21)12-14-26(22,23)5/h16-18,20-24,27H,6-15H2,1-5H3/t18-,20+,21+,22-,23+,24+,25+,26-/m1/s1

> <PUBCHEM_IUPAC_INCHIKEY>
WEZNLBQEKWESKA-XSLNCIIRSA-N

> <PUBCHEM_XLOGP3_AA>
8.1

> <PUBCHEM_EXACT_MASS>
372.339216

> <PUBCHEM_MOLECULAR_FORMULA>
C26H44O

> <PUBCHEM_MOLECULAR_WEIGHT>
372.62696

> <PUBCHEM_OPENEYE_CAN_SMILES>
CC(C)CCCC(C)C1CCC2C1(CCC3C2C=C4C3(CCC(C4)O)C)C

> <PUBCHEM_OPENEYE_ISO_SMILES>
C[C@H](CCCC(C)C)[C@H]1CC[C@@H]2[C@@]1(CC[C@H]3[C@H]2C=C4[C@@]3(CC[C@@H](C4)O)C)C

> <PUBCHEM_CACTVS_TPSA>
20.2

> <PUBCHEM_MONOISOTOPIC_WEIGHT>
372.339216

> <PUBCHEM_TOTAL_CHARGE>
0

> <PUBCHEM_HEAVY_ATOM_COUNT>
27

> <PUBCHEM_ATOM_DEF_STEREO_COUNT>
8

> <PUBCHEM_ATOM_UDEF_STEREO_COUNT>
0

> <PUBCHEM_BOND_DEF_STEREO_COUNT>
0

> <PUBCHEM_BOND_UDEF_STEREO_COUNT>
0

> <PUBCHEM_ISOTOPIC_ATOM_COUNT>
0

> <PUBCHEM_COMPONENT_COUNT>
1

> <PUBCHEM_CACTVS_TAUTO_COUNT>
1

> <PUBCHEM_COORDINATE_TYPE>
1
5
255

> <PUBCHEM_BONDANNOTATIONS>
20  1  5
14  22  6
2  15  5
3  28  6
4  29  5
5  30  6
6  31  6
7  17  5

$$$$

