91453
  -OEChem-07051212562D

 73 78  0     1  0  0  0  0  0999 V2000
    5.5954   -2.5456    0.0000 O   0  0  0  0  0  0  0  0  0  0  0  0
    3.9300   -1.4644    0.0000 O   0  0  0  0  0  0  0  0  0  0  0  0
    5.7968    1.1892    0.0000 O   0  0  0  0  0  0  0  0  0  0  0  0
   12.0027    2.8336    0.0000 O   0  0  0  0  0  0  0  0  0  0  0  0
    7.5288   -0.8108    0.0000 C   0  0  2  0  0  0  0  0  0  0  0  0
    6.6628   -0.3108    0.0000 C   0  0  1  0  0  0  0  0  0  0  0  0
    8.3948   -0.3108    0.0000 C   0  0  1  0  0  0  0  0  0  0  0  0
    5.9258   -0.9778    0.0000 C   0  0  2  0  0  0  0  0  0  0  0  0
    8.3948    0.6892    0.0000 C   0  0  1  0  0  0  0  0  0  0  0  0
    9.2888    1.2239    0.0000 C   0  0  2  0  0  0  0  0  0  0  0  0
    6.3309   -1.8856    0.0000 C   0  0  2  0  0  0  0  0  0  0  0  0
    7.3196   -1.7826    0.0000 C   0  0  0  0  0  0  0  0  0  0  0  0
    4.9434   -1.0845    0.0000 C   0  0  1  0  0  0  0  0  0  0  0  0
   10.1949    0.7101    0.0000 C   0  0  1  0  0  0  0  0  0  0  0  0
    7.5288    1.1892    0.0000 C   0  0  0  0  0  0  0  0  0  0  0  0
    9.2888   -0.8454    0.0000 C   0  0  0  0  0  0  0  0  0  0  0  0
    6.6628    0.6892    0.0000 C   0  0  0  0  0  0  0  0  0  0  0  0
    4.7396   -2.0515    0.0000 C   0  0  1  0  0  0  0  0  0  0  0  0
   10.1949   -0.3316    0.0000 C   0  0  0  0  0  0  0  0  0  0  0  0
    5.7968    0.1892    0.0000 C   0  0  0  0  0  0  0  0  0  0  0  0
    9.2637    2.3086    0.0000 C   0  0  0  0  0  0  0  0  0  0  0  0
   11.1386    1.2453    0.0000 C   0  0  0  0  0  0  0  0  0  0  0  0
    8.4189    1.7172    0.0000 C   0  0  0  0  0  0  0  0  0  0  0  0
   10.1949    2.8655    0.0000 C   0  0  0  0  0  0  0  0  0  0  0  0
    4.2723   -0.3431    0.0000 C   0  0  0  0  0  0  0  0  0  0  0  0
    4.6359   -3.0461    0.0000 C   0  0  0  0  0  0  0  0  0  0  0  0
   11.1386    2.3303    0.0000 C   0  0  2  0  0  0  0  0  0  0  0  0
    3.7227   -3.4536    0.0000 C   0  0  0  0  0  0  0  0  0  0  0  0
    2.9132   -2.8665    0.0000 C   0  0  2  0  0  0  0  0  0  0  0  0
    3.0169   -1.8719    0.0000 C   0  0  0  0  0  0  0  0  0  0  0  0
    2.0000   -3.2741    0.0000 C   0  0  0  0  0  0  0  0  0  0  0  0
    8.2158   -1.3113    0.0000 H   0  0  0  0  0  0  0  0  0  0  0  0
    8.3883   -1.1607    0.0000 H   0  0  0  0  0  0  0  0  0  0  0  0
    5.5777   -0.2024    0.0000 H   0  0  0  0  0  0  0  0  0  0  0  0
    8.3883    1.5392    0.0000 H   0  0  0  0  0  0  0  0  0  0  0  0
    6.6756   -2.6626    0.0000 H   0  0  0  0  0  0  0  0  0  0  0  0
    7.3187   -2.4026    0.0000 H   0  0  0  0  0  0  0  0  0  0  0  0
    7.9361   -1.8486    0.0000 H   0  0  0  0  0  0  0  0  0  0  0  0
    4.3448   -1.2463    0.0000 H   0  0  0  0  0  0  0  0  0  0  0  0
   10.9293    0.2822    0.0000 H   0  0  0  0  0  0  0  0  0  0  0  0
    7.9274    1.6642    0.0000 H   0  0  0  0  0  0  0  0  0  0  0  0
    7.1303    1.6642    0.0000 H   0  0  0  0  0  0  0  0  0  0  0  0
    8.8842   -1.3152    0.0000 H   0  0  0  0  0  0  0  0  0  0  0  0
    9.6824   -1.3244    0.0000 H   0  0  0  0  0  0  0  0  0  0  0  0
   10.4039   -0.9153    0.0000 H   0  0  0  0  0  0  0  0  0  0  0  0
   10.8057   -0.2255    0.0000 H   0  0  0  0  0  0  0  0  0  0  0  0
    6.1068    0.7262    0.0000 H   0  0  0  0  0  0  0  0  0  0  0  0
    5.2598    0.4992    0.0000 H   0  0  0  0  0  0  0  0  0  0  0  0
    5.4868   -0.3477    0.0000 H   0  0  0  0  0  0  0  0  0  0  0  0
    9.0412    2.8873    0.0000 H   0  0  0  0  0  0  0  0  0  0  0  0
    8.6555    2.1884    0.0000 H   0  0  0  0  0  0  0  0  0  0  0  0
   11.3477    0.6616    0.0000 H   0  0  0  0  0  0  0  0  0  0  0  0
   11.7495    1.3514    0.0000 H   0  0  0  0  0  0  0  0  0  0  0  0
    8.7248    2.2565    0.0000 H   0  0  0  0  0  0  0  0  0  0  0  0
    7.8796    2.0231    0.0000 H   0  0  0  0  0  0  0  0  0  0  0  0
    8.1131    1.1779    0.0000 H   0  0  0  0  0  0  0  0  0  0  0  0
   10.5885    3.3446    0.0000 H   0  0  0  0  0  0  0  0  0  0  0  0
    9.7903    3.3353    0.0000 H   0  0  0  0  0  0  0  0  0  0  0  0
    4.7320    0.0729    0.0000 H   0  0  0  0  0  0  0  0  0  0  0  0
    3.8562    0.1165    0.0000 H   0  0  0  0  0  0  0  0  0  0  0  0
    3.8126   -0.7592    0.0000 H   0  0  0  0  0  0  0  0  0  0  0  0
    4.7864   -3.6476    0.0000 H   0  0  0  0  0  0  0  0  0  0  0  0
    5.2544   -3.0023    0.0000 H   0  0  0  0  0  0  0  0  0  0  0  0
   11.1351    2.9503    0.0000 H   0  0  0  0  0  0  0  0  0  0  0  0
    3.2771   -3.8847    0.0000 H   0  0  0  0  0  0  0  0  0  0  0  0
    4.0699   -3.9673    0.0000 H   0  0  0  0  0  0  0  0  0  0  0  0
    2.4113   -2.5026    0.0000 H   0  0  0  0  0  0  0  0  0  0  0  0
    2.8664   -1.2705    0.0000 H   0  0  0  0  0  0  0  0  0  0  0  0
    2.3984   -1.9157    0.0000 H   0  0  0  0  0  0  0  0  0  0  0  0
   12.0003    3.4536    0.0000 H   0  0  0  0  0  0  0  0  0  0  0  0
    1.7473   -2.7079    0.0000 H   0  0  0  0  0  0  0  0  0  0  0  0
    1.4338   -3.5267    0.0000 H   0  0  0  0  0  0  0  0  0  0  0  0
    2.2527   -3.8402    0.0000 H   0  0  0  0  0  0  0  0  0  0  0  0
  1 11  1  0  0  0  0
 18  1  1  1  0  0  0
  2 18  1  0  0  0  0
  2 30  1  0  0  0  0
  3 17  2  0  0  0  0
 27  4  1  6  0  0  0
  4 70  1  0  0  0  0
  5  6  1  0  0  0  0
  5  7  1  0  0  0  0
  5 12  1  0  0  0  0
  5 32  1  1  0  0  0
  6  8  1  0  0  0  0
  6 17  1  0  0  0  0
  6 20  1  6  0  0  0
  7  9  1  0  0  0  0
  7 16  1  0  0  0  0
  7 33  1  6  0  0  0
  8 11  1  0  0  0  0
  8 13  1  0  0  0  0
  8 34  1  1  0  0  0
  9 10  1  0  0  0  0
  9 15  1  0  0  0  0
  9 35  1  1  0  0  0
 10 14  1  0  0  0  0
 10 21  1  0  0  0  0
 10 23  1  6  0  0  0
 11 12  1  0  0  0  0
 11 36  1  1  0  0  0
 12 37  1  0  0  0  0
 12 38  1  0  0  0  0
 13 18  1  0  0  0  0
 13 25  1  1  0  0  0
 13 39  1  0  0  0  0
 14 19  1  0  0  0  0
 14 22  1  0  0  0  0
 14 40  1  1  0  0  0
 15 17  1  0  0  0  0
 15 41  1  0  0  0  0
 15 42  1  0  0  0  0
 16 19  1  0  0  0  0
 16 43  1  0  0  0  0
 16 44  1  0  0  0  0
 18 26  1  0  0  0  0
 19 45  1  0  0  0  0
 19 46  1  0  0  0  0
 20 47  1  0  0  0  0
 20 48  1  0  0  0  0
 20 49  1  0  0  0  0
 21 24  1  0  0  0  0
 21 50  1  0  0  0  0
 21 51  1  0  0  0  0
 22 27  1  0  0  0  0
 22 52  1  0  0  0  0
 22 53  1  0  0  0  0
 23 54  1  0  0  0  0
 23 55  1  0  0  0  0
 23 56  1  0  0  0  0
 24 27  1  0  0  0  0
 24 57  1  0  0  0  0
 24 58  1  0  0  0  0
 25 59  1  0  0  0  0
 25 60  1  0  0  0  0
 25 61  1  0  0  0  0
 26 28  1  0  0  0  0
 26 62  1  0  0  0  0
 26 63  1  0  0  0  0
 27 64  1  0  0  0  0
 28 29  1  0  0  0  0
 28 65  1  0  0  0  0
 28 66  1  0  0  0  0
 29 30  1  0  0  0  0
 29 31  1  1  0  0  0
 29 67  1  0  0  0  0
 30 68  1  0  0  0  0
 30 69  1  0  0  0  0
 31 71  1  0  0  0  0
 31 72  1  0  0  0  0
 31 73  1  0  0  0  0
M  END
> <PUBCHEM_COMPOUND_CID>
91453

> <PUBCHEM_COMPOUND_CANONICALIZED>
1

> <PUBCHEM_CACTVS_COMPLEXITY>
766

> <PUBCHEM_CACTVS_HBOND_ACCEPTOR>
4

> <PUBCHEM_CACTVS_HBOND_DONOR>
1

> <PUBCHEM_CACTVS_ROTATABLE_BOND>
0

> <PUBCHEM_CACTVS_SUBSKEYS>
AAADcfB4OAAAAAAAAAAAAAAAAAAAAaIAAAA0YMEAAAASAGDAAAAAGgAACAAADxSggAICCAAABgAIAIAQAAAAAAAAAAAAAAEAAAAQEBIAAAAiQAAEAAAEAAHK7PzPgAAAAAAAAADAAAYAACAAAYAADAAAAA==

> <PUBCHEM_IUPAC_INCHI>
InChI=1S/C27H42O4/c1-15-7-10-27(30-14-15)16(2)24-22(31-27)12-21-19-6-5-17-11-18(28)8-9-25(17,3)20(19)13-23(29)26(21,24)4/h15-22,24,28H,5-14H2,1-4H3/t15-,16+,17+,18+,19-,20+,21+,22+,24+,25+,26-,27-/m1/s1

> <PUBCHEM_IUPAC_INCHIKEY>
QOLRLLFJMZLYQJ-LOBDNJQFSA-N

> <PUBCHEM_XLOGP3_AA>
4.8

> <PUBCHEM_EXACT_MASS>
430.30831

> <PUBCHEM_MOLECULAR_FORMULA>
C27H42O4

> <PUBCHEM_MOLECULAR_WEIGHT>
430.61998

> <PUBCHEM_OPENEYE_CAN_SMILES>
CC1CCC2(C(C3C(O2)CC4C3(C(=O)CC5C4CCC6C5(CCC(C6)O)C)C)C)OC1

> <PUBCHEM_OPENEYE_ISO_SMILES>
C[C@@H]1CC[C@@]2([C@H]([C@H]3[C@@H](O2)C[C@@H]4[C@@]3(C(=O)C[C@H]5[C@H]4CC[C@@H]6[C@@]5(CC[C@@H](C6)O)C)C)C)OC1

> <PUBCHEM_CACTVS_TPSA>
55.8

> <PUBCHEM_MONOISOTOPIC_WEIGHT>
430.30831

> <PUBCHEM_TOTAL_CHARGE>
0

> <PUBCHEM_HEAVY_ATOM_COUNT>
31

> <PUBCHEM_ATOM_DEF_STEREO_COUNT>
12

> <PUBCHEM_ATOM_UDEF_STEREO_COUNT>
0

> <PUBCHEM_BOND_DEF_STEREO_COUNT>
0

> <PUBCHEM_BOND_UDEF_STEREO_COUNT>
0

> <PUBCHEM_ISOTOPIC_ATOM_COUNT>
0

> <PUBCHEM_COMPONENT_COUNT>
1

> <PUBCHEM_CACTVS_TAUTO_COUNT>
2

> <PUBCHEM_COORDINATE_TYPE>
1
5
255

> <PUBCHEM_BONDANNOTATIONS>
18  1  5
10  23  6
11  36  5
13  25  5
14  40  5
29  31  5
27  4  6
5  32  5
6  20  6
7  33  6
8  34  5
9  35  5

$$$$

