   Color/Form

     * CRYSTALS FROM CYCLOHEXANE
     * WHITE CRYSTALS

   from [1]HSDB

   Melting Point
        95-96 DEG C
   from [2]HSDB

   Corrosivity
        Non-corrosive to metal
   from [3]HSDB

   Solubilities

     * IN WATER: 320 PPM AT 20 DEG C; SOL IN METHANOL, ETHANOL, ACETONE,
       CHLOROFORM
     * At 20 deg C, in water 0.88 mg/100 g; in acetone more than 100 g/100
       g; in ethanol 18.2 g/100 g; in chloroform 62.5 g/100 g

   from [4]HSDB

   Spectral Properties
        Intense mass spectral peaks: 61 m/z (100%), 46 m/z (22%), 258 m/z
   (14%), 91 m/z (14%)
   from [5]HSDB

   Vapor Pressure
        3X10-6 MM HG @ 20 DEG C
   from [6]HSDB

   Computed Properties
   Molecular Weight                  259.09984 [g/mol]
   Molecular Formula                 C[9]H[11]BrN[2]O[2]
   XLogP3                            2.4
   H-Bond Donor                      1
   H-Bond Acceptor                   2
   Rotatable Bond Count              2
   Tautomer Count                    2
   Exact Mass                        258.00039
   MonoIsotopic Mass                 258.00039
   Topological Polar Surface Area    41.6
   Heavy Atom Count                  14
   Formal Charge                     0
   Complexity                        193
   Isotope Atom Count                0
   Defined Atom Stereocenter Count   0
   Undefined Atom Stereocenter Count 0
   Defined Bond Stereocenter Count   0
   Undefined Bond Stereocenter Count 0
   Covalently-Bonded Unit Count      1
   Feature 3D Acceptor Count         1
   Feature 3D Donor Count            1
   Feature 3D Hydrophobe Count       1
   Feature 3D Ring Count             1
   Effective Rotor Count             4
   Conformer Sampling RMSD           0.6
   CID Conformer Count               [7]22

References

   1. http://toxnet.nlm.nih.gov/cgi-bin/sis/search/r?dbs+hsdb:@term+@rn+@rel+3060-89-7
   2. http://toxnet.nlm.nih.gov/cgi-bin/sis/search/r?dbs+hsdb:@term+@rn+@rel+3060-89-7
   3. http://toxnet.nlm.nih.gov/cgi-bin/sis/search/r?dbs+hsdb:@term+@rn+@rel+3060-89-7
   4. http://toxnet.nlm.nih.gov/cgi-bin/sis/search/r?dbs+hsdb:@term+@rn+@rel+3060-89-7
   5. http://toxnet.nlm.nih.gov/cgi-bin/sis/search/r?dbs+hsdb:@term+@rn+@rel+3060-89-7
   6. http://toxnet.nlm.nih.gov/cgi-bin/sis/search/r?dbs+hsdb:@term+@rn+@rel+3060-89-7
   7. http://pubchem.ncbi.nlm.nih.gov/vw3d/vw3d.cgi?cid=18290
