   Color/Form

     * PRISMS
     * USUALLY OFFERED AS A VISCOUS LIQUID
     * CRYSTALLINE SOLID
     * Colorless crystals or a syrupy, white liquid (above 82 degrees F).

   from [1]HSDB

   Odor

     * MILD AMMONIACAL
     * Mild, ammonia-like odor.

   from [2]HSDB

   Boiling Point
        268.8 DEG C @ 760 MM HG
   from [3]HSDB

   Melting Point
        28 DEG C
   from [4]HSDB

   Density/Specific Gravity
        1.0966 @ 20 DEG C/4 DEG C
   from [5]HSDB

   Dissociation Constants
        pKa= 8.88
   from [6]HSDB

   Octanol/Water Partition Coefficient
        log Kow= - 1.43 (est)
   from [7]HSDB

   pH
        PH OF 0.1 N AQUEOUS SOLN: 11.0
   from [8]HSDB

   Solubilities

     * VERY SOL IN ALC
     * MISCIBLE WITH WATER, METHANOL WATER; SOL IN BENZENE: 4.2% @ 25 DEG
       C; IN ETHER: 0.8% @ 25 DEG C; IN N-HEPTANE: LESS THAN 0.1% @ 25 DEG
       C; IN CARBON TETRACHLORIDE: LESS THAN 0.1% @ 25 DEG C

   from [9]HSDB

   Spectral Properties

     * INDEX OF REFRACTION: 1.4753 @ 30 DEG C/D
     * SADTLER REFERENCE NUMBER: 5830 (IR, PRISM)
     * IR: 5638 (Coblentz Society Spectral Collection)
     * NMR: 6575 (Sadtler Research Laboratories Spectral Collection)
     * MASS: 313 (Atlas of Mass Spectral Data, John Wiley & Sons, New
       York)

   from [10]HSDB

   Vapor Density
        3.65 (AIR= 1)
   from [11]HSDB

   Vapor Pressure
        1.4X10-4 mm Hg at 25 deg C
   from [12]HSDB

   Viscosity
        351.9 CENTIPOISES @ 30 DEG C; 53.85 CENTIPOISES @ 60 DEG C; DIPOLE
   MOMENT: 2.81
   from [13]HSDB

   Other Chemical/Physical Properties

     * DELIQUESCENT PRISMS; ONE USA GAL WEIGHS 9.09 LB @ 30 DEG C
     * VAPOR PRESSURE: LESS THAN 0.01 MM HG @ 20 DEG
     * Henry's Law constant= 3.9X10-11 atm-cu m/mol at 25 deg C (est)

   from [14]HSDB

   Computed Properties
   Molecular Weight                  105.13564 [g/mol]
   Molecular Formula                 C[4]H[11]NO[2]
   XLogP3                            -1.4
   H-Bond Donor                      3
   H-Bond Acceptor                   3
   Rotatable Bond Count              4
   Exact Mass                        105.078979
   MonoIsotopic Mass                 105.078979
   Topological Polar Surface Area    52.5
   Heavy Atom Count                  7
   Formal Charge                     0
   Complexity                        28.9
   Isotope Atom Count                0
   Defined Atom Stereocenter Count   0
   Undefined Atom Stereocenter Count 0
   Defined Bond Stereocenter Count   0
   Undefined Bond Stereocenter Count 0
   Covalently-Bonded Unit Count      1
   Feature 3D Acceptor Count         2
   Feature 3D Donor Count            3
   Feature 3D Cation Count           1
   Effective Rotor Count             4
   Conformer Sampling RMSD           0.6
   CID Conformer Count               [15]19

References

   1. http://toxnet.nlm.nih.gov/cgi-bin/sis/search/r?dbs+hsdb:@term+@rn+@rel+111-42-2
   2. http://toxnet.nlm.nih.gov/cgi-bin/sis/search/r?dbs+hsdb:@term+@rn+@rel+111-42-2
   3. http://toxnet.nlm.nih.gov/cgi-bin/sis/search/r?dbs+hsdb:@term+@rn+@rel+111-42-2
   4. http://toxnet.nlm.nih.gov/cgi-bin/sis/search/r?dbs+hsdb:@term+@rn+@rel+111-42-2
   5. http://toxnet.nlm.nih.gov/cgi-bin/sis/search/r?dbs+hsdb:@term+@rn+@rel+111-42-2
   6. http://toxnet.nlm.nih.gov/cgi-bin/sis/search/r?dbs+hsdb:@term+@rn+@rel+111-42-2
   7. http://toxnet.nlm.nih.gov/cgi-bin/sis/search/r?dbs+hsdb:@term+@rn+@rel+111-42-2
   8. http://toxnet.nlm.nih.gov/cgi-bin/sis/search/r?dbs+hsdb:@term+@rn+@rel+111-42-2
   9. http://toxnet.nlm.nih.gov/cgi-bin/sis/search/r?dbs+hsdb:@term+@rn+@rel+111-42-2
  10. http://toxnet.nlm.nih.gov/cgi-bin/sis/search/r?dbs+hsdb:@term+@rn+@rel+111-42-2
  11. http://toxnet.nlm.nih.gov/cgi-bin/sis/search/r?dbs+hsdb:@term+@rn+@rel+111-42-2
  12. http://toxnet.nlm.nih.gov/cgi-bin/sis/search/r?dbs+hsdb:@term+@rn+@rel+111-42-2
  13. http://toxnet.nlm.nih.gov/cgi-bin/sis/search/r?dbs+hsdb:@term+@rn+@rel+111-42-2
  14. http://toxnet.nlm.nih.gov/cgi-bin/sis/search/r?dbs+hsdb:@term+@rn+@rel+111-42-2
  15. http://pubchem.ncbi.nlm.nih.gov/vw3d/vw3d.cgi?cid=8113
