10443
  -OEChem-06261204332D

  6  5  0     0  0  0  0  0  0999 V2000
    3.7320   -0.1900    0.0000 N   0  0  0  0  0  0  0  0  0  0  0  0
    5.4641    0.8100    0.0000 N   0  0  0  0  0  0  0  0  0  0  0  0
    2.0000    0.8100    0.0000 N   0  0  0  0  0  0  0  0  0  0  0  0
    4.5981    0.3100    0.0000 C   0  0  0  0  0  0  0  0  0  0  0  0
    2.8660    0.3100    0.0000 C   0  0  0  0  0  0  0  0  0  0  0  0
    3.7320   -0.8100    0.0000 H   0  0  0  0  0  0  0  0  0  0  0  0
  1  4  1  0  0  0  0
  1  5  1  0  0  0  0
  1  6  1  0  0  0  0
  2  4  3  0  0  0  0
  3  5  3  0  0  0  0
M  END
> <PUBCHEM_COMPOUND_CID>
10443

> <PUBCHEM_COMPOUND_CANONICALIZED>
1

> <PUBCHEM_CACTVS_COMPLEXITY>
82.6

> <PUBCHEM_CACTVS_HBOND_ACCEPTOR>
3

> <PUBCHEM_CACTVS_HBOND_DONOR>
1

> <PUBCHEM_CACTVS_ROTATABLE_BOND>
0

> <PUBCHEM_CACTVS_SUBSKEYS>
AAADcQBDAAAAAAAAAAAAAAAAAAAAAAAAAAAAAAAAAAAAAAAAAAAABAAQAAAAAAAAAAABAALAAAAQAAAAAAAAAAAAAAAAAAAAAAAAAAAAAAAAAAAAAAAAAAAAAAAAAAAAAAAAAAAAAAAAAAAAAAAAAAAAAA==

> <PUBCHEM_IUPAC_OPENEYE_NAME>
cyanocyanamide

> <PUBCHEM_IUPAC_CAS_NAME>
cyanocyanamide

> <PUBCHEM_IUPAC_NAME>
cyanocyanamide

> <PUBCHEM_IUPAC_SYSTEMATIC_NAME>
cyanocyanamide

> <PUBCHEM_IUPAC_TRADITIONAL_NAME>
cyanocyanamide

> <PUBCHEM_IUPAC_INCHI>
InChI=1S/C2HN3/c3-1-5-2-4/h5H

> <PUBCHEM_IUPAC_INCHIKEY>
QWJNFFYFEKXZBF-UHFFFAOYSA-N

> <PUBCHEM_XLOGP3_AA>
0.4

> <PUBCHEM_EXACT_MASS>
67.017047

> <PUBCHEM_MOLECULAR_FORMULA>
C2HN3

> <PUBCHEM_MOLECULAR_WEIGHT>
67.04944

> <PUBCHEM_OPENEYE_CAN_SMILES>
C(#N)NC#N

> <PUBCHEM_OPENEYE_ISO_SMILES>
C(#N)NC#N

> <PUBCHEM_CACTVS_TPSA>
59.6

> <PUBCHEM_MONOISOTOPIC_WEIGHT>
67.017047

> <PUBCHEM_TOTAL_CHARGE>
0

> <PUBCHEM_HEAVY_ATOM_COUNT>
5

> <PUBCHEM_ATOM_DEF_STEREO_COUNT>
0

> <PUBCHEM_ATOM_UDEF_STEREO_COUNT>
0

> <PUBCHEM_BOND_DEF_STEREO_COUNT>
0

> <PUBCHEM_BOND_UDEF_STEREO_COUNT>
0

> <PUBCHEM_ISOTOPIC_ATOM_COUNT>
0

> <PUBCHEM_COMPONENT_COUNT>
1

> <PUBCHEM_CACTVS_TAUTO_COUNT>
1

> <PUBCHEM_COORDINATE_TYPE>
1
5
255

$$$$

