6450029
  -OEChem-07051213082D

 52 51  0     1  0  0  0  0  0999 V2000
    6.8671    0.4400    0.0000 O   0  0  0  0  0  0  0  0  0  0  0  0
    7.7331   -0.0600    0.0000 O   0  0  0  0  0  0  0  0  0  0  0  0
   14.6613    1.9400    0.0000 O   0  0  0  0  0  0  0  0  0  0  0  0
   13.7953    0.4400    0.0000 O   0  0  0  0  0  0  0  0  0  0  0  0
    9.4651    1.9400    0.0000 C   0  0  0  0  0  0  0  0  0  0  0  0
   10.3312    1.4400    0.0000 C   0  0  0  0  0  0  0  0  0  0  0  0
    8.5991    1.4400    0.0000 C   0  0  0  0  0  0  0  0  0  0  0  0
   11.1972    1.9400    0.0000 C   0  0  0  0  0  0  0  0  0  0  0  0
    7.7331    1.9400    0.0000 C   0  0  0  0  0  0  0  0  0  0  0  0
   12.0632    1.4400    0.0000 C   0  0  0  0  0  0  0  0  0  0  0  0
    6.8671    1.4400    0.0000 C   0  0  1  0  0  0  0  0  0  0  0  0
   12.9292    1.9400    0.0000 C   0  0  0  0  0  0  0  0  0  0  0  0
    6.0010    1.9400    0.0000 C   0  0  0  0  0  0  0  0  0  0  0  0
   13.7953    1.4400    0.0000 C   0  0  0  0  0  0  0  0  0  0  0  0
    5.1350    1.4400    0.0000 C   0  0  0  0  0  0  0  0  0  0  0  0
    4.2690    1.9400    0.0000 C   0  0  0  0  0  0  0  0  0  0  0  0
    3.4030    1.4400    0.0000 C   0  0  0  0  0  0  0  0  0  0  0  0
    3.4030    0.4400    0.0000 C   0  0  0  0  0  0  0  0  0  0  0  0
    2.5369   -0.0600    0.0000 C   0  0  0  0  0  0  0  0  0  0  0  0
    2.5369   -1.0600    0.0000 C   0  0  0  0  0  0  0  0  0  0  0  0
    3.4030   -1.5600    0.0000 C   0  0  0  0  0  0  0  0  0  0  0  0
    3.4030   -2.5600    0.0000 C   0  0  0  0  0  0  0  0  0  0  0  0
    9.8637    2.4150    0.0000 H   0  0  0  0  0  0  0  0  0  0  0  0
    9.0666    2.4150    0.0000 H   0  0  0  0  0  0  0  0  0  0  0  0
    9.9326    0.9651    0.0000 H   0  0  0  0  0  0  0  0  0  0  0  0
   10.7297    0.9651    0.0000 H   0  0  0  0  0  0  0  0  0  0  0  0
    8.2006    0.9651    0.0000 H   0  0  0  0  0  0  0  0  0  0  0  0
    8.9976    0.9651    0.0000 H   0  0  0  0  0  0  0  0  0  0  0  0
   11.5957    2.4150    0.0000 H   0  0  0  0  0  0  0  0  0  0  0  0
   10.7987    2.4150    0.0000 H   0  0  0  0  0  0  0  0  0  0  0  0
    8.1316    2.4150    0.0000 H   0  0  0  0  0  0  0  0  0  0  0  0
    7.3346    2.4150    0.0000 H   0  0  0  0  0  0  0  0  0  0  0  0
   11.6647    0.9651    0.0000 H   0  0  0  0  0  0  0  0  0  0  0  0
   12.4617    0.9651    0.0000 H   0  0  0  0  0  0  0  0  0  0  0  0
    6.3301    1.1300    0.0000 H   0  0  0  0  0  0  0  0  0  0  0  0
   13.3278    2.4150    0.0000 H   0  0  0  0  0  0  0  0  0  0  0  0
   12.5307    2.4150    0.0000 H   0  0  0  0  0  0  0  0  0  0  0  0
    6.0010    2.5600    0.0000 H   0  0  0  0  0  0  0  0  0  0  0  0
    5.1350    0.8200    0.0000 H   0  0  0  0  0  0  0  0  0  0  0  0
    4.2690    2.5600    0.0000 H   0  0  0  0  0  0  0  0  0  0  0  0
    7.7331   -0.6800    0.0000 H   0  0  0  0  0  0  0  0  0  0  0  0
    2.8660    1.7500    0.0000 H   0  0  0  0  0  0  0  0  0  0  0  0
   15.1982    1.6300    0.0000 H   0  0  0  0  0  0  0  0  0  0  0  0
    3.6150   -0.1426    0.0000 H   0  0  0  0  0  0  0  0  0  0  0  0
    4.0135    0.5477    0.0000 H   0  0  0  0  0  0  0  0  0  0  0  0
    2.0000    0.2500    0.0000 H   0  0  0  0  0  0  0  0  0  0  0  0
    2.0000   -1.3700    0.0000 H   0  0  0  0  0  0  0  0  0  0  0  0
    4.0135   -1.6677    0.0000 H   0  0  0  0  0  0  0  0  0  0  0  0
    3.6150   -0.9774    0.0000 H   0  0  0  0  0  0  0  0  0  0  0  0
    2.7830   -2.5600    0.0000 H   0  0  0  0  0  0  0  0  0  0  0  0
    3.4030   -3.1800    0.0000 H   0  0  0  0  0  0  0  0  0  0  0  0
    4.0230   -2.5600    0.0000 H   0  0  0  0  0  0  0  0  0  0  0  0
  1  2  1  0  0  0  0
 11  1  1  6  0  0  0
  2 41  1  0  0  0  0
  3 14  1  0  0  0  0
  3 43  1  0  0  0  0
  4 14  2  0  0  0  0
  5  6  1  0  0  0  0
  5  7  1  0  0  0  0
  5 23  1  0  0  0  0
  5 24  1  0  0  0  0
  6  8  1  0  0  0  0
  6 25  1  0  0  0  0
  6 26  1  0  0  0  0
  7  9  1  0  0  0  0
  7 27  1  0  0  0  0
  7 28  1  0  0  0  0
  8 10  1  0  0  0  0
  8 29  1  0  0  0  0
  8 30  1  0  0  0  0
  9 11  1  0  0  0  0
  9 31  1  0  0  0  0
  9 32  1  0  0  0  0
 10 12  1  0  0  0  0
 10 33  1  0  0  0  0
 10 34  1  0  0  0  0
 11 13  1  0  0  0  0
 11 35  1  0  0  0  0
 12 14  1  0  0  0  0
 12 36  1  0  0  0  0
 12 37  1  0  0  0  0
 13 15  2  0  0  0  0
 13 38  1  0  0  0  0
 15 16  1  0  0  0  0
 15 39  1  0  0  0  0
 16 17  2  0  0  0  0
 16 40  1  0  0  0  0
 17 18  1  0  0  0  0
 17 42  1  0  0  0  0
 18 19  1  0  0  0  0
 18 44  1  0  0  0  0
 18 45  1  0  0  0  0
 19 20  2  0  0  0  0
 19 46  1  0  0  0  0
 20 21  1  0  0  0  0
 20 47  1  0  0  0  0
 21 22  1  0  0  0  0
 21 48  1  0  0  0  0
 21 49  1  0  0  0  0
 22 50  1  0  0  0  0
 22 51  1  0  0  0  0
 22 52  1  0  0  0  0
M  END
> <PUBCHEM_COMPOUND_CID>
6450029

> <PUBCHEM_COMPOUND_CANONICALIZED>
1

> <PUBCHEM_CACTVS_COMPLEXITY>
345

> <PUBCHEM_CACTVS_HBOND_ACCEPTOR>
4

> <PUBCHEM_CACTVS_HBOND_DONOR>
2

> <PUBCHEM_CACTVS_ROTATABLE_BOND>
14

> <PUBCHEM_CACTVS_SUBSKEYS>
AAADceB4OAAAAAAAAAAAAAAAAAAAAAAAAAAAAAAAAAAAAAAAAAAAGgAADAAACBSggAICCAAAAgCIACDSCAAAAAAgAAAICAEAAAgIBBIAAQAAUAAEgAAIgAOIyKCAAAAAAAAAAAAAAAAAAAAAAAAAAAAAAA==

> <PUBCHEM_IUPAC_OPENEYE_NAME>
(9S,10E,12Z,15Z)-9-hydroperoxyoctadeca-10,12,15-trienoic acid

> <PUBCHEM_IUPAC_CAS_NAME>
(9S,10E,12Z,15Z)-9-hydroperoxyoctadeca-10,12,15-trienoic acid

> <PUBCHEM_IUPAC_NAME>
(9S,10E,12Z,15Z)-9-hydroperoxyoctadeca-10,12,15-trienoic acid

> <PUBCHEM_IUPAC_SYSTEMATIC_NAME>
(9S,10E,12Z,15Z)-9-(dioxidanyl)octadeca-10,12,15-trienoic acid

> <PUBCHEM_IUPAC_TRADITIONAL_NAME>
(9S,10E,12Z,15Z)-9-hydroperoxyoctadeca-10,12,15-trienoic acid

> <PUBCHEM_IUPAC_INCHI>
InChI=1S/C18H30O4/c1-2-3-4-5-6-8-11-14-17(22-21)15-12-9-7-10-13-16-18(19)20/h3-4,6,8,11,14,17,21H,2,5,7,9-10,12-13,15-16H2,1H3,(H,19,20)/b4-3-,8-6-,14-11+/t17-/m1/s1

> <PUBCHEM_IUPAC_INCHIKEY>
RWKJTIHNYSIIHW-MEBVTJQTSA-N

> <PUBCHEM_XLOGP3_AA>
4.7

> <PUBCHEM_EXACT_MASS>
310.214409

> <PUBCHEM_MOLECULAR_FORMULA>
C18H30O4

> <PUBCHEM_MOLECULAR_WEIGHT>
310.4284

> <PUBCHEM_OPENEYE_CAN_SMILES>
CCC=CCC=CC=CC(CCCCCCCC(=O)O)OO

> <PUBCHEM_OPENEYE_ISO_SMILES>
CC/C=C\C/C=C\C=C\[C@H](CCCCCCCC(=O)O)OO

> <PUBCHEM_CACTVS_TPSA>
66.8

> <PUBCHEM_MONOISOTOPIC_WEIGHT>
310.214409

> <PUBCHEM_TOTAL_CHARGE>
0

> <PUBCHEM_HEAVY_ATOM_COUNT>
22

> <PUBCHEM_ATOM_DEF_STEREO_COUNT>
1

> <PUBCHEM_ATOM_UDEF_STEREO_COUNT>
0

> <PUBCHEM_BOND_DEF_STEREO_COUNT>
3

> <PUBCHEM_BOND_UDEF_STEREO_COUNT>
0

> <PUBCHEM_ISOTOPIC_ATOM_COUNT>
0

> <PUBCHEM_COMPONENT_COUNT>
1

> <PUBCHEM_CACTVS_TAUTO_COUNT>
1

> <PUBCHEM_COORDINATE_TYPE>
1
5
255

> <PUBCHEM_BONDANNOTATIONS>
11  1  6

$$$$

