   Color/Form
        Off-white powder
   from [1]HSDB

   Odor
        Odorless
   from [2]HSDB

   Melting Point
        120 to 133 deg C
   from [3]HSDB

   Octanol/Water Partition Coefficient
        log Kow = 2.1 /Estimated/
   from [4]HSDB

   Solubilities
        In water, 5.4 mg/mL
   from [5]HSDB

   Other Chemical/Physical Properties

     * Odorless off-white powder; molecular weight: 374.84; melting point:
       120-138 deg C /Hydrochloride hemihydrate/
     * Crystals; melting point: 129-131 deg C; solubility in water: 5.4
       mg/ml /Hydrochloride hemihydrate/
     * Crystals from ethanol-ether; melting point: 136-138 deg C; Specific
       optical rotation for the D (sodium) line: -87 deg (c= 5 in ethanol)
       /Maleate/

   from [6]HSDB

   Computed Properties
   Molecular Weight                  329.365403 [g/mol]
   Molecular Formula                 C[19]H[20]FNO[3]
   XLogP3-AA                         3.5
   H-Bond Donor                      1
   H-Bond Acceptor                   5
   Rotatable Bond Count              4
   Exact Mass                        329.142722
   MonoIsotopic Mass                 329.142722
   Topological Polar Surface Area    39.7
   Heavy Atom Count                  24
   Formal Charge                     0
   Complexity                        402
   Isotope Atom Count                0
   Defined Atom Stereocenter Count   2
   Undefined Atom Stereocenter Count 0
   Defined Bond Stereocenter Count   0
   Undefined Bond Stereocenter Count 0
   Covalently-Bonded Unit Count      1
   Feature 3D Acceptor Count         3
   Feature 3D Donor Count            1
   Feature 3D Cation Count           1
   Feature 3D Ring Count             4
   Effective Rotor Count             5.8
   Conformer Sampling RMSD           0.8
   CID Conformer Count               [7]81

References

   1. http://toxnet.nlm.nih.gov/cgi-bin/sis/search/r?dbs+hsdb:@term+@rn+@rel+78246-49-8
   2. http://toxnet.nlm.nih.gov/cgi-bin/sis/search/r?dbs+hsdb:@term+@rn+@rel+78246-49-8
   3. http://toxnet.nlm.nih.gov/cgi-bin/sis/search/r?dbs+hsdb:@term+@rn+@rel+78246-49-8
   4. http://toxnet.nlm.nih.gov/cgi-bin/sis/search/r?dbs+hsdb:@term+@rn+@rel+78246-49-8
   5. http://toxnet.nlm.nih.gov/cgi-bin/sis/search/r?dbs+hsdb:@term+@rn+@rel+78246-49-8
   6. http://toxnet.nlm.nih.gov/cgi-bin/sis/search/r?dbs+hsdb:@term+@rn+@rel+78246-49-8
   7. http://pubchem.ncbi.nlm.nih.gov/vw3d/vw3d.cgi?cid=43815
