   Color/Form
        Colorless crystals
   from [1]HSDB

   Boiling Point
        196 deg C
   from [2]HSDB

   Melting Point
        96 deg C
   from [3]HSDB

   Dissociation Constants
        pKa= 9.50
   from [4]HSDB

   Octanol/Water Partition Coefficient
        log Kow greater than 6.80
   from [5]HSDB

   pH
        Very weak acid
   from [6]HSDB

   Solubilities

     * Solubility in dichloromethane 18.6, hexane 1.4, methanol 833 (all
       in g/l)
     * Insoluble in water @ 25 deg C

   from [7]HSDB

   Vapor Pressure
        4.28X10-7 mm Hg @ 25 deg C
   from [8]HSDB

   Other Chemical/Physical Properties
        MP: 87-93 deg C /Technical/
   from [9]HSDB

   Computed Properties
   Molecular Weight                  527.197994 [g/mol]
   Molecular Formula                 C[10]H[6]F[17]NO[2]S
   XLogP3-AA                         5.6
   H-Bond Donor                      1
   H-Bond Acceptor                   20
   Rotatable Bond Count              9
   Exact Mass                        526.984779
   MonoIsotopic Mass                 526.984779
   Topological Polar Surface Area    54.6
   Heavy Atom Count                  31
   Formal Charge                     0
   Complexity                        763
   Isotope Atom Count                0
   Defined Atom Stereocenter Count   0
   Undefined Atom Stereocenter Count 0
   Defined Bond Stereocenter Count   0
   Undefined Bond Stereocenter Count 0
   Covalently-Bonded Unit Count      1

References

   1. http://toxnet.nlm.nih.gov/cgi-bin/sis/search/r?dbs+hsdb:@term+@rn+@rel+4151-50-2
   2. http://toxnet.nlm.nih.gov/cgi-bin/sis/search/r?dbs+hsdb:@term+@rn+@rel+4151-50-2
   3. http://toxnet.nlm.nih.gov/cgi-bin/sis/search/r?dbs+hsdb:@term+@rn+@rel+4151-50-2
   4. http://toxnet.nlm.nih.gov/cgi-bin/sis/search/r?dbs+hsdb:@term+@rn+@rel+4151-50-2
   5. http://toxnet.nlm.nih.gov/cgi-bin/sis/search/r?dbs+hsdb:@term+@rn+@rel+4151-50-2
   6. http://toxnet.nlm.nih.gov/cgi-bin/sis/search/r?dbs+hsdb:@term+@rn+@rel+4151-50-2
   7. http://toxnet.nlm.nih.gov/cgi-bin/sis/search/r?dbs+hsdb:@term+@rn+@rel+4151-50-2
   8. http://toxnet.nlm.nih.gov/cgi-bin/sis/search/r?dbs+hsdb:@term+@rn+@rel+4151-50-2
   9. http://toxnet.nlm.nih.gov/cgi-bin/sis/search/r?dbs+hsdb:@term+@rn+@rel+4151-50-2
