11954165
  -OEChem-07051213072D

 50 54  0     1  0  0  0  0  0999 V2000
    7.6365    1.2355    0.0000 S   0  0  0  0  0  0  0  0  0  0  0  0
    7.2365    1.9284    0.0000 S   0  0  0  0  0  0  0  0  0  0  0  0
    2.8767   -0.9737    0.0000 O   0  0  0  0  0  0  0  0  0  0  0  0
    9.2552    2.6319    0.0000 O   0  0  0  0  0  0  0  0  0  0  0  0
    2.0000   -2.6004    0.0000 O   0  0  0  0  0  0  0  0  0  0  0  0
    6.6571    1.1319    0.0000 C   0  0  2  0  0  0  0  0  0  0  0  0
    5.7471    0.6251    0.0000 C   0  0  2  0  0  0  0  0  0  0  0  0
    5.7391   -0.4165    0.0000 C   0  0  2  0  0  0  0  0  0  0  0  0
    7.5231    0.6319    0.0000 C   0  0  2  0  0  0  0  0  0  0  0  0
    4.8036   -0.9662    0.0000 C   0  0  1  0  0  0  0  0  0  0  0  0
    6.6571    2.1319    0.0000 C   0  0  2  0  0  0  0  0  0  0  0  0
    6.6411   -0.9373    0.0000 C   0  0  0  0  0  0  0  0  0  0  0  0
    7.5392   -0.4096    0.0000 C   0  0  0  0  0  0  0  0  0  0  0  0
    4.8202    1.1892    0.0000 C   0  0  0  0  0  0  0  0  0  0  0  0
    3.8640   -0.4237    0.0000 C   0  0  2  0  0  0  0  0  0  0  0  0
    3.8724    0.6612    0.0000 C   0  0  0  0  0  0  0  0  0  0  0  0
    8.3891    1.1319    0.0000 C   0  0  0  0  0  0  0  0  0  0  0  0
    5.7911    1.6319    0.0000 C   0  0  0  0  0  0  0  0  0  0  0  0
    7.5231    2.6319    0.0000 C   0  0  0  0  0  0  0  0  0  0  0  0
    4.8211   -2.0963    0.0000 C   0  0  0  0  0  0  0  0  0  0  0  0
    8.3891    2.1319    0.0000 C   0  0  0  0  0  0  0  0  0  0  0  0
    2.9980    0.0763    0.0000 C   0  0  0  0  0  0  0  0  0  0  0  0
    3.8467   -2.6689    0.0000 C   0  0  0  0  0  0  0  0  0  0  0  0
    2.8680   -2.1038    0.0000 C   0  0  0  0  0  0  0  0  0  0  0  0
    5.7635    1.4749    0.0000 H   0  0  0  0  0  0  0  0  0  0  0  0
    5.7423   -1.2665    0.0000 H   0  0  0  0  0  0  0  0  0  0  0  0
    5.5446   -1.3827    0.0000 H   0  0  0  0  0  0  0  0  0  0  0  0
    6.2321    2.8681    0.0000 H   0  0  0  0  0  0  0  0  0  0  0  0
    6.2438   -1.4133    0.0000 H   0  0  0  0  0  0  0  0  0  0  0  0
    7.0421   -1.4102    0.0000 H   0  0  0  0  0  0  0  0  0  0  0  0
    7.7572   -0.9900    0.0000 H   0  0  0  0  0  0  0  0  0  0  0  0
    8.1483   -0.2941    0.0000 H   0  0  0  0  0  0  0  0  0  0  0  0
    5.2285    1.6558    0.0000 H   0  0  0  0  0  0  0  0  0  0  0  0
    4.4303    1.6712    0.0000 H   0  0  0  0  0  0  0  0  0  0  0  0
    3.6678    1.2465    0.0000 H   0  0  0  0  0  0  0  0  0  0  0  0
    3.2607    0.5598    0.0000 H   0  0  0  0  0  0  0  0  0  0  0  0
    8.6012    0.5493    0.0000 H   0  0  0  0  0  0  0  0  0  0  0  0
    8.9997    1.2396    0.0000 H   0  0  0  0  0  0  0  0  0  0  0  0
    6.1011    2.1689    0.0000 H   0  0  0  0  0  0  0  0  0  0  0  0
    5.2541    1.9419    0.0000 H   0  0  0  0  0  0  0  0  0  0  0  0
    5.4811    1.0950    0.0000 H   0  0  0  0  0  0  0  0  0  0  0  0
    7.9216    3.1069    0.0000 H   0  0  0  0  0  0  0  0  0  0  0  0
    7.1246    3.1069    0.0000 H   0  0  0  0  0  0  0  0  0  0  0  0
    5.0391   -2.6767    0.0000 H   0  0  0  0  0  0  0  0  0  0  0  0
    5.4302   -1.9808    0.0000 H   0  0  0  0  0  0  0  0  0  0  0  0
    3.3080    0.6132    0.0000 H   0  0  0  0  0  0  0  0  0  0  0  0
    2.4610    0.3863    0.0000 H   0  0  0  0  0  0  0  0  0  0  0  0
    2.6880   -0.4607    0.0000 H   0  0  0  0  0  0  0  0  0  0  0  0
    3.4494   -3.1448    0.0000 H   0  0  0  0  0  0  0  0  0  0  0  0
    4.2477   -3.1418    0.0000 H   0  0  0  0  0  0  0  0  0  0  0  0
  1  2  1  0  0  0  0
  1  9  1  0  0  0  0
  2 11  1  0  0  0  0
  3 15  1  0  0  0  0
  3 24  1  0  0  0  0
  4 21  2  0  0  0  0
  5 24  2  0  0  0  0
  6  7  1  0  0  0  0
  6  9  1  0  0  0  0
  6 11  1  0  0  0  0
  6 18  1  6  0  0  0
  7  8  1  0  0  0  0
  7 14  1  0  0  0  0
  7 25  1  1  0  0  0
  8 10  1  0  0  0  0
  8 12  1  0  0  0  0
  8 26  1  6  0  0  0
  9 13  1  1  0  0  0
  9 17  1  0  0  0  0
 10 15  1  0  0  0  0
 10 20  1  0  0  0  0
 10 27  1  1  0  0  0
 11 19  1  0  0  0  0
 11 28  1  1  0  0  0
 12 13  1  0  0  0  0
 12 29  1  0  0  0  0
 12 30  1  0  0  0  0
 13 31  1  0  0  0  0
 13 32  1  0  0  0  0
 14 16  1  0  0  0  0
 14 33  1  0  0  0  0
 14 34  1  0  0  0  0
 15 16  1  0  0  0  0
 15 22  1  6  0  0  0
 16 35  1  0  0  0  0
 16 36  1  0  0  0  0
 17 21  1  0  0  0  0
 17 37  1  0  0  0  0
 17 38  1  0  0  0  0
 18 39  1  0  0  0  0
 18 40  1  0  0  0  0
 18 41  1  0  0  0  0
 19 21  1  0  0  0  0
 19 42  1  0  0  0  0
 19 43  1  0  0  0  0
 20 23  1  0  0  0  0
 20 44  1  0  0  0  0
 20 45  1  0  0  0  0
 22 46  1  0  0  0  0
 22 47  1  0  0  0  0
 22 48  1  0  0  0  0
 23 24  1  0  0  0  0
 23 49  1  0  0  0  0
 23 50  1  0  0  0  0
M  END
> <PUBCHEM_COMPOUND_CID>
11954165

> <PUBCHEM_COMPOUND_CANONICALIZED>
1

> <PUBCHEM_CACTVS_COMPLEXITY>
622

> <PUBCHEM_CACTVS_HBOND_ACCEPTOR>
5

> <PUBCHEM_CACTVS_HBOND_DONOR>
0

> <PUBCHEM_CACTVS_ROTATABLE_BOND>
0

> <PUBCHEM_CACTVS_SUBSKEYS>
AAADceB4MABgAAAAAAAAAAAAAAAAASAAAAA0YMEABIAAAEjQAAAAGgQAAAAAD0SEwACCCAAABAAIAICQCAAAAAAAAAAAAAEAAAAAABIAAAACAAAEAAAAAAGIzPDPgAAAAAAAAADgAAcAgDgAAAAAAAAAAA==

> <PUBCHEM_IUPAC_INCHI>
InChI=1S/C19H26O3S2/c1-17-7-6-14-12(13(17)3-4-16(21)22-17)5-8-19-10-11(20)9-15(23-24-19)18(14,19)2/h12-15H,3-10H2,1-2H3/t12-,13-,14-,15-,17-,18-,19+/m0/s1

> <PUBCHEM_IUPAC_INCHIKEY>
ROCVZARQFKQHCD-FQRJZAEESA-N

> <PUBCHEM_XLOGP3_AA>
2.7

> <PUBCHEM_EXACT_MASS>
366.132337

> <PUBCHEM_MOLECULAR_FORMULA>
C19H26O3S2

> <PUBCHEM_MOLECULAR_WEIGHT>
366.53794

> <PUBCHEM_OPENEYE_CAN_SMILES>
CC12CCC3C(C1CCC(=O)O2)CCC45C3(C(CC(=O)C4)SS5)C

> <PUBCHEM_OPENEYE_ISO_SMILES>
C[C@]12CC[C@H]3[C@H]([C@@H]1CCC(=O)O2)CC[C@]45[C@@]3([C@H](CC(=O)C4)SS5)C

> <PUBCHEM_CACTVS_TPSA>
94

> <PUBCHEM_MONOISOTOPIC_WEIGHT>
366.132337

> <PUBCHEM_TOTAL_CHARGE>
0

> <PUBCHEM_HEAVY_ATOM_COUNT>
24

> <PUBCHEM_ATOM_DEF_STEREO_COUNT>
7

> <PUBCHEM_ATOM_UDEF_STEREO_COUNT>
0

> <PUBCHEM_BOND_DEF_STEREO_COUNT>
0

> <PUBCHEM_BOND_UDEF_STEREO_COUNT>
0

> <PUBCHEM_ISOTOPIC_ATOM_COUNT>
0

> <PUBCHEM_COMPONENT_COUNT>
1

> <PUBCHEM_CACTVS_TAUTO_COUNT>
6

> <PUBCHEM_COORDINATE_TYPE>
1
5
255

> <PUBCHEM_BONDANNOTATIONS>
10  27  5
11  28  5
15  22  6
6  18  6
7  25  5
8  26  6
9  13  5

$$$$

