5168
  -OEChem-06261200332D

 37 39  0     1  0  0  0  0  0999 V2000
    2.8641   -0.5441    0.0000 O   0  0  0  0  0  0  0  0  0  0  0  0
    5.5301   -2.0649    0.0000 O   0  0  0  0  0  0  0  0  0  0  0  0
    3.7817    0.9697    0.0000 O   0  0  0  0  0  0  0  0  0  0  0  0
    5.5301    0.9351    0.0000 O   0  0  0  0  0  0  0  0  0  0  0  0
    9.0603   -0.0408    0.0000 O   0  0  0  0  0  0  0  0  0  0  0  0
    9.0603   -2.0891    0.0000 O   0  0  0  0  0  0  0  0  0  0  0  0
    8.1387    1.4796    0.0000 O   0  0  0  0  0  0  0  0  0  0  0  0
    6.4068    1.4596    0.0000 O   0  0  0  0  0  0  0  0  0  0  0  0
    2.8641   -1.5858    0.0000 C   0  0  3  0  0  0  0  0  0  0  0  0
    3.7702   -2.0996    0.0000 C   0  0  0  0  0  0  0  0  0  0  0  0
    4.6641   -0.5649    0.0000 C   0  0  0  0  0  0  0  0  0  0  0  0
    4.6641   -1.5649    0.0000 C   0  0  0  0  0  0  0  0  0  0  0  0
    3.7702   -0.0303    0.0000 C   0  0  3  0  0  0  0  0  0  0  0  0
    5.5301   -0.0649    0.0000 C   0  0  0  0  0  0  0  0  0  0  0  0
    6.3962   -0.5649    0.0000 C   0  0  0  0  0  0  0  0  0  0  0  0
    6.3962   -1.5649    0.0000 C   0  0  0  0  0  0  0  0  0  0  0  0
    2.0000   -2.0891    0.0000 C   0  0  0  0  0  0  0  0  0  0  0  0
    7.2901   -0.0303    0.0000 C   0  0  0  0  0  0  0  0  0  0  0  0
    7.2901   -2.0996    0.0000 C   0  0  0  0  0  0  0  0  0  0  0  0
    8.1962   -0.5441    0.0000 C   0  0  0  0  0  0  0  0  0  0  0  0
    8.1962   -1.5858    0.0000 C   0  0  0  0  0  0  0  0  0  0  0  0
    2.9215    1.4796    0.0000 C   0  0  0  0  0  0  0  0  0  0  0  0
    7.2785    0.9697    0.0000 C   0  0  0  0  0  0  0  0  0  0  0  0
    2.3266   -1.2768    0.0000 H   0  0  0  0  0  0  0  0  0  0  0  0
    3.3765   -2.5786    0.0000 H   0  0  0  0  0  0  0  0  0  0  0  0
    4.1748   -2.5694    0.0000 H   0  0  0  0  0  0  0  0  0  0  0  0
    4.3112    0.2725    0.0000 H   0  0  0  0  0  0  0  0  0  0  0  0
    1.6879   -1.5533    0.0000 H   0  0  0  0  0  0  0  0  0  0  0  0
    1.4643   -2.4012    0.0000 H   0  0  0  0  0  0  0  0  0  0  0  0
    2.3121   -2.6248    0.0000 H   0  0  0  0  0  0  0  0  0  0  0  0
    7.2829   -2.7196    0.0000 H   0  0  0  0  0  0  0  0  0  0  0  0
    4.9932    1.2451    0.0000 H   0  0  0  0  0  0  0  0  0  0  0  0
    3.2377    2.0130    0.0000 H   0  0  0  0  0  0  0  0  0  0  0  0
    2.3882    1.7958    0.0000 H   0  0  0  0  0  0  0  0  0  0  0  0
    2.6053    0.9463    0.0000 H   0  0  0  0  0  0  0  0  0  0  0  0
    9.5984   -0.3487    0.0000 H   0  0  0  0  0  0  0  0  0  0  0  0
    8.1315    2.0996    0.0000 H   0  0  0  0  0  0  0  0  0  0  0  0
  1  9  1  0  0  0  0
  1 13  1  0  0  0  0
  2 12  1  0  0  0  0
  2 16  1  0  0  0  0
  3 13  1  0  0  0  0
  3 22  1  0  0  0  0
  4 14  1  0  0  0  0
  4 32  1  0  0  0  0
  5 20  1  0  0  0  0
  5 36  1  0  0  0  0
  6 21  2  0  0  0  0
  7 23  1  0  0  0  0
  7 37  1  0  0  0  0
  8 23  2  0  0  0  0
  9 10  1  0  0  0  0
  9 17  1  0  0  0  0
  9 24  1  0  0  0  0
 10 12  1  0  0  0  0
 10 25  1  0  0  0  0
 10 26  1  0  0  0  0
 11 12  2  0  0  0  0
 11 13  1  0  0  0  0
 11 14  1  0  0  0  0
 13 27  1  0  0  0  0
 14 15  2  0  0  0  0
 15 16  1  0  0  0  0
 15 18  1  0  0  0  0
 16 19  2  0  0  0  0
 17 28  1  0  0  0  0
 17 29  1  0  0  0  0
 17 30  1  0  0  0  0
 18 20  2  0  0  0  0
 18 23  1  0  0  0  0
 19 21  1  0  0  0  0
 19 31  1  0  0  0  0
 20 21  1  0  0  0  0
 22 33  1  0  0  0  0
 22 34  1  0  0  0  0
 22 35  1  0  0  0  0
M  END
> <PUBCHEM_COMPOUND_CID>
5168

> <PUBCHEM_COMPOUND_CANONICALIZED>
1

> <PUBCHEM_CACTVS_COMPLEXITY>
737

> <PUBCHEM_CACTVS_HBOND_ACCEPTOR>
8

> <PUBCHEM_CACTVS_HBOND_DONOR>
3

> <PUBCHEM_CACTVS_ROTATABLE_BOND>
2

> <PUBCHEM_CACTVS_SUBSKEYS>
AAADccBwPAAAAAAAAAAAAAAAAAAAAAAAAAAgQIAAAAAAAACAAAAAGgAACAAADBSwgAMCCAAABgCIAqDSCAIACAAgIAAACAFAAEgYBBAAIAAiUAAFwAAMsQJCAAAAAAAAAAAAAAAAAAAAAAAAAAAAAAAAAA==

> <PUBCHEM_IUPAC_OPENEYE_NAME>
8,10-dihydroxy-1-methoxy-3-methyl-7-oxo-3,4-dihydro-1H-pyrano[4,3-b]chromene-9-carboxylic acid

> <PUBCHEM_IUPAC_CAS_NAME>
8,10-dihydroxy-1-methoxy-3-methyl-7-oxo-3,4-dihydro-1H-pyrano[4,3-b][1]benzopyran-9-carboxylic acid

> <PUBCHEM_IUPAC_NAME>
8,10-dihydroxy-1-methoxy-3-methyl-7-oxo-3,4-dihydro-1H-pyrano[4,3-b]chromene-9-carboxylic acid

> <PUBCHEM_IUPAC_SYSTEMATIC_NAME>
1-methoxy-3-methyl-8,10-bis(oxidanyl)-7-oxidanylidene-3,4-dihydro-1H-pyrano[4,3-b]chromene-9-carboxylic acid

> <PUBCHEM_IUPAC_TRADITIONAL_NAME>
8,10-dihydroxy-7-keto-1-methoxy-3-methyl-3,4-dihydro-1H-pyrano[4,3-b]chromene-9-carboxylic acid

> <PUBCHEM_IUPAC_INCHI>
InChI=1S/C15H14O8/c1-5-3-7-10(15(21-2)22-5)13(18)9-8(23-7)4-6(16)12(17)11(9)14(19)20/h4-5,15,17-18H,3H2,1-2H3,(H,19,20)

> <PUBCHEM_IUPAC_INCHIKEY>
HGASCLGIALPFJS-UHFFFAOYSA-N

> <PUBCHEM_XLOGP3_AA>
-0.4

> <PUBCHEM_EXACT_MASS>
322.068867

> <PUBCHEM_MOLECULAR_FORMULA>
C15H14O8

> <PUBCHEM_MOLECULAR_WEIGHT>
322.26686

> <PUBCHEM_OPENEYE_CAN_SMILES>
CC1CC2=C(C(O1)OC)C(=C3C(=CC(=O)C(=C3C(=O)O)O)O2)O

> <PUBCHEM_OPENEYE_ISO_SMILES>
CC1CC2=C(C(O1)OC)C(=C3C(=CC(=O)C(=C3C(=O)O)O)O2)O

> <PUBCHEM_CACTVS_TPSA>
123

> <PUBCHEM_MONOISOTOPIC_WEIGHT>
322.068867

> <PUBCHEM_TOTAL_CHARGE>
0

> <PUBCHEM_HEAVY_ATOM_COUNT>
23

> <PUBCHEM_ATOM_DEF_STEREO_COUNT>
0

> <PUBCHEM_ATOM_UDEF_STEREO_COUNT>
2

> <PUBCHEM_BOND_DEF_STEREO_COUNT>
0

> <PUBCHEM_BOND_UDEF_STEREO_COUNT>
0

> <PUBCHEM_ISOTOPIC_ATOM_COUNT>
0

> <PUBCHEM_COMPONENT_COUNT>
1

> <PUBCHEM_CACTVS_TAUTO_COUNT>
33

> <PUBCHEM_COORDINATE_TYPE>
1
5
255

> <PUBCHEM_BONDANNOTATIONS>
11  12  8
11  14  8
14  15  8
15  18  8
16  19  8
18  20  8
19  21  8
2  12  8
2  16  8
20  21  8
13  3  3
9  17  3

$$$$

