17395610
  -OEChem-06241222512D

 50 53  0     0  0  0  0  0  0999 V2000
    6.4617   -0.3293    0.0000 S   0  0  0  0  0  0  0  0  0  0  0  0
   13.5746   -1.5190    0.0000 O   0  0  0  0  0  0  0  0  0  0  0  0
   13.5746   -3.1285    0.0000 O   0  0  0  0  0  0  0  0  0  0  0  0
    8.2983   -0.3238    0.0000 O   0  0  0  0  0  0  0  0  0  0  0  0
    5.6646    1.6012    0.0000 O   0  0  0  0  0  0  0  0  0  0  0  0
    4.0823    0.8967    0.0000 O   0  0  0  0  0  0  0  0  0  0  0  0
    7.4323   -1.8238    0.0000 N   0  0  0  0  0  0  0  0  0  0  0  0
    5.6527   -1.7305    0.0000 N   0  0  0  0  0  0  0  0  0  0  0  0
   10.0303   -1.3238    0.0000 C   0  0  0  0  0  0  0  0  0  0  0  0
   10.8964   -1.8238    0.0000 C   0  0  0  0  0  0  0  0  0  0  0  0
    9.1643   -1.8238    0.0000 C   0  0  0  0  0  0  0  0  0  0  0  0
   11.7624   -1.3238    0.0000 C   0  0  0  0  0  0  0  0  0  0  0  0
   12.6284   -1.8238    0.0000 C   0  0  0  0  0  0  0  0  0  0  0  0
   12.6284   -2.8238    0.0000 C   0  0  0  0  0  0  0  0  0  0  0  0
   10.8964   -2.8238    0.0000 C   0  0  0  0  0  0  0  0  0  0  0  0
   11.7624   -3.3238    0.0000 C   0  0  0  0  0  0  0  0  0  0  0  0
    8.2983   -1.3238    0.0000 C   0  0  0  0  0  0  0  0  0  0  0  0
   14.1582   -2.3238    0.0000 C   0  0  0  0  0  0  0  0  0  0  0  0
    4.9836   -0.9874    0.0000 C   0  0  0  0  0  0  0  0  0  0  0  0
    6.5662   -1.3238    0.0000 C   0  0  0  0  0  0  0  0  0  0  0  0
    5.4836   -0.1213    0.0000 C   0  0  0  0  0  0  0  0  0  0  0  0
    3.9890   -1.0919    0.0000 C   0  0  0  0  0  0  0  0  0  0  0  0
    3.4013   -0.2829    0.0000 C   0  0  0  0  0  0  0  0  0  0  0  0
    3.5823   -2.0054    0.0000 C   0  0  0  0  0  0  0  0  0  0  0  0
    5.0768    0.7922    0.0000 C   0  0  0  0  0  0  0  0  0  0  0  0
    2.4067   -0.3874    0.0000 C   0  0  0  0  0  0  0  0  0  0  0  0
    2.5878   -2.1100    0.0000 C   0  0  0  0  0  0  0  0  0  0  0  0
    2.0000   -1.3010    0.0000 C   0  0  0  0  0  0  0  0  0  0  0  0
    5.2579    2.5148    0.0000 C   0  0  0  0  0  0  0  0  0  0  0  0
    5.8457    3.3238    0.0000 C   0  0  0  0  0  0  0  0  0  0  0  0
   10.4289   -0.8488    0.0000 H   0  0  0  0  0  0  0  0  0  0  0  0
    9.6318   -0.8488    0.0000 H   0  0  0  0  0  0  0  0  0  0  0  0
    8.7658   -2.2987    0.0000 H   0  0  0  0  0  0  0  0  0  0  0  0
    9.5628   -2.2987    0.0000 H   0  0  0  0  0  0  0  0  0  0  0  0
   11.7624   -0.7038    0.0000 H   0  0  0  0  0  0  0  0  0  0  0  0
   10.3594   -3.1338    0.0000 H   0  0  0  0  0  0  0  0  0  0  0  0
   11.7624   -3.9438    0.0000 H   0  0  0  0  0  0  0  0  0  0  0  0
   14.6191   -2.7385    0.0000 H   0  0  0  0  0  0  0  0  0  0  0  0
   14.6191   -1.9090    0.0000 H   0  0  0  0  0  0  0  0  0  0  0  0
    7.4323   -2.4438    0.0000 H   0  0  0  0  0  0  0  0  0  0  0  0
    3.6534    0.2835    0.0000 H   0  0  0  0  0  0  0  0  0  0  0  0
    3.9467   -2.5070    0.0000 H   0  0  0  0  0  0  0  0  0  0  0  0
    2.0423    0.1142    0.0000 H   0  0  0  0  0  0  0  0  0  0  0  0
    2.3356   -2.6764    0.0000 H   0  0  0  0  0  0  0  0  0  0  0  0
    1.3834   -1.3658    0.0000 H   0  0  0  0  0  0  0  0  0  0  0  0
    4.8272    2.9608    0.0000 H   0  0  0  0  0  0  0  0  0  0  0  0
    4.7439    2.1681    0.0000 H   0  0  0  0  0  0  0  0  0  0  0  0
    6.3472    2.9594    0.0000 H   0  0  0  0  0  0  0  0  0  0  0  0
    6.2101    3.8254    0.0000 H   0  0  0  0  0  0  0  0  0  0  0  0
    5.3441    3.6882    0.0000 H   0  0  0  0  0  0  0  0  0  0  0  0
  1 20  1  0  0  0  0
  1 21  1  0  0  0  0
  2 13  1  0  0  0  0
  2 18  1  0  0  0  0
  3 14  1  0  0  0  0
  3 18  1  0  0  0  0
  4 17  2  0  0  0  0
  5 25  1  0  0  0  0
  5 29  1  0  0  0  0
  6 25  2  0  0  0  0
  7 17  1  0  0  0  0
  7 20  1  0  0  0  0
  7 40  1  0  0  0  0
  8 19  1  0  0  0  0
  8 20  2  0  0  0  0
  9 10  1  0  0  0  0
  9 11  1  0  0  0  0
  9 31  1  0  0  0  0
  9 32  1  0  0  0  0
 10 12  2  0  0  0  0
 10 15  1  0  0  0  0
 11 17  1  0  0  0  0
 11 33  1  0  0  0  0
 11 34  1  0  0  0  0
 12 13  1  0  0  0  0
 12 35  1  0  0  0  0
 13 14  2  0  0  0  0
 14 16  1  0  0  0  0
 15 16  2  0  0  0  0
 15 36  1  0  0  0  0
 16 37  1  0  0  0  0
 18 38  1  0  0  0  0
 18 39  1  0  0  0  0
 19 21  2  0  0  0  0
 19 22  1  0  0  0  0
 21 25  1  0  0  0  0
 22 23  2  0  0  0  0
 22 24  1  0  0  0  0
 23 26  1  0  0  0  0
 23 41  1  0  0  0  0
 24 27  2  0  0  0  0
 24 42  1  0  0  0  0
 26 28  2  0  0  0  0
 26 43  1  0  0  0  0
 27 28  1  0  0  0  0
 27 44  1  0  0  0  0
 28 45  1  0  0  0  0
 29 30  1  0  0  0  0
 29 46  1  0  0  0  0
 29 47  1  0  0  0  0
 30 48  1  0  0  0  0
 30 49  1  0  0  0  0
 30 50  1  0  0  0  0
M  END
> <PUBCHEM_COMPOUND_CID>
17395610

> <PUBCHEM_COMPOUND_CANONICALIZED>
1

> <PUBCHEM_CACTVS_COMPLEXITY>
600

> <PUBCHEM_CACTVS_HBOND_ACCEPTOR>
7

> <PUBCHEM_CACTVS_HBOND_DONOR>
1

> <PUBCHEM_CACTVS_ROTATABLE_BOND>
8

> <PUBCHEM_CACTVS_SUBSKEYS>
AAADceB7OABAAAAAAAAAAAAAAAAAAWJAAAAwYAAAAAAAAEgB0AAAHgQQAAAADAyh3gMzn5LIFAisAyXyfACC+KllKDkJmDUmzNidJrrkuRumMapu0RNOqWeYyLCOIAABAAAAQABAAAIAAACAAAAAAAAAAA==

> <PUBCHEM_IUPAC_OPENEYE_NAME>
ethyl 2-[3-(1,3-benzodioxol-5-yl)propanoylamino]-4-phenyl-thiazole-5-carboxylate

> <PUBCHEM_IUPAC_CAS_NAME>
2-[[3-(1,3-benzodioxol-5-yl)-1-oxopropyl]amino]-4-phenyl-5-thiazolecarboxylic acid ethyl ester

> <PUBCHEM_IUPAC_NAME>
ethyl 2-[3-(1,3-benzodioxol-5-yl)propanoylamino]-4-phenyl-1,3-thiazole-5-carboxylate

> <PUBCHEM_IUPAC_SYSTEMATIC_NAME>
ethyl 2-[3-(1,3-benzodioxol-5-yl)propanoylamino]-4-phenyl-1,3-thiazole-5-carboxylate

> <PUBCHEM_IUPAC_TRADITIONAL_NAME>
2-[3-(1,3-benzodioxol-5-yl)propanoylamino]-4-phenyl-thiazole-5-carboxylic acid ethyl ester

> <PUBCHEM_IUPAC_INCHI>
InChI=1S/C22H20N2O5S/c1-2-27-21(26)20-19(15-6-4-3-5-7-15)24-22(30-20)23-18(25)11-9-14-8-10-16-17(12-14)29-13-28-16/h3-8,10,12H,2,9,11,13H2,1H3,(H,23,24,25)

> <PUBCHEM_IUPAC_INCHIKEY>
MLBNGRIOKSBEMU-UHFFFAOYSA-N

> <PUBCHEM_XLOGP3_AA>
4.4

> <PUBCHEM_EXACT_MASS>
424.109293

> <PUBCHEM_MOLECULAR_FORMULA>
C22H20N2O5S

> <PUBCHEM_MOLECULAR_WEIGHT>
424.4696

> <PUBCHEM_OPENEYE_CAN_SMILES>
CCOC(=O)C1=C(N=C(S1)NC(=O)CCC2=CC3=C(C=C2)OCO3)C4=CC=CC=C4

> <PUBCHEM_OPENEYE_ISO_SMILES>
CCOC(=O)C1=C(N=C(S1)NC(=O)CCC2=CC3=C(C=C2)OCO3)C4=CC=CC=C4

> <PUBCHEM_CACTVS_TPSA>
115

> <PUBCHEM_MONOISOTOPIC_WEIGHT>
424.109293

> <PUBCHEM_TOTAL_CHARGE>
0

> <PUBCHEM_HEAVY_ATOM_COUNT>
30

> <PUBCHEM_ATOM_DEF_STEREO_COUNT>
0

> <PUBCHEM_ATOM_UDEF_STEREO_COUNT>
0

> <PUBCHEM_BOND_DEF_STEREO_COUNT>
0

> <PUBCHEM_BOND_UDEF_STEREO_COUNT>
0

> <PUBCHEM_ISOTOPIC_ATOM_COUNT>
0

> <PUBCHEM_COMPONENT_COUNT>
1

> <PUBCHEM_CACTVS_TAUTO_COUNT>
9

> <PUBCHEM_COORDINATE_TYPE>
1
5
255

> <PUBCHEM_BONDANNOTATIONS>
1  20  8
1  21  8
10  12  8
10  15  8
12  13  8
13  14  8
14  16  8
15  16  8
19  21  8
22  23  8
22  24  8
23  26  8
24  27  8
26  28  8
27  28  8
8  19  8
8  20  8

$$$$

