656756
  -OEChem-07051213042D

 54 56  0     1  0  0  0  0  0999 V2000
    5.0474    1.1481    0.0000 P   0  0  3  0  0  0  0  0  0  0  0  0
    4.4026   -2.3051    0.0000 O   0  0  0  0  0  0  0  0  0  0  0  0
    6.7485   -3.3969    0.0000 O   0  0  0  0  0  0  0  0  0  0  0  0
    6.7523   -1.2214    0.0000 O   0  0  0  0  0  0  0  0  0  0  0  0
    5.3548    0.1965    0.0000 O   0  0  0  0  0  0  0  0  0  0  0  0
    4.7400    2.0997    0.0000 O   0  0  0  0  0  0  0  0  0  0  0  0
    5.9990    1.4554    0.0000 O   0  0  0  0  0  0  0  0  0  0  0  0
    4.0958    0.8407    0.0000 O   0  0  0  0  0  0  0  0  0  0  0  0
    6.3882    2.6320    0.0000 O   0  0  0  0  0  0  0  0  0  0  0  0
    4.6783   -4.0656    0.0000 N   0  0  0  0  0  0  0  0  0  0  0  0
    4.6783   -5.6751    0.0000 N   0  0  0  0  0  0  0  0  0  0  0  0
    2.8660   -3.8704    0.0000 N   0  0  0  0  0  0  0  0  0  0  0  0
    2.0000   -5.3704    0.0000 N   0  0  0  0  0  0  0  0  0  0  0  0
    2.8660   -6.8704    0.0000 N   0  0  0  0  0  0  0  0  0  0  0  0
    5.9405   -2.8078    0.0000 C   0  0  2  0  0  0  0  0  0  0  0  0
    5.9422   -1.8078    0.0000 C   0  0  1  0  0  0  0  0  0  0  0  0
    4.9889   -3.1151    0.0000 C   0  0  1  0  0  0  0  0  0  0  0  0
    4.9917   -1.4971    0.0000 C   0  0  1  0  0  0  0  0  0  0  0  0
    4.6844   -0.5455    0.0000 C   0  0  0  0  0  0  0  0  0  0  0  0
    3.7320   -4.3704    0.0000 C   0  0  0  0  0  0  0  0  0  0  0  0
    5.2619   -4.8704    0.0000 C   0  0  0  0  0  0  0  0  0  0  0  0
    3.7320   -5.3704    0.0000 C   0  0  0  0  0  0  0  0  0  0  0  0
    2.8660   -5.8704    0.0000 C   0  0  0  0  0  0  0  0  0  0  0  0
    2.0000   -4.3704    0.0000 C   0  0  0  0  0  0  0  0  0  0  0  0
    5.7735    4.5352    0.0000 C   0  0  0  0  0  0  0  0  0  0  0  0
    5.1031    3.7932    0.0000 C   0  0  0  0  0  0  0  0  0  0  0  0
    5.4661    5.4868    0.0000 C   0  0  0  0  0  0  0  0  0  0  0  0
    5.4104    2.8416    0.0000 C   0  0  0  0  0  0  0  0  0  0  0  0
    6.1365    6.2288    0.0000 C   0  0  0  0  0  0  0  0  0  0  0  0
    5.8292    7.1804    0.0000 C   0  0  0  0  0  0  0  0  0  0  0  0
    6.4934   -2.5272    0.0000 H   0  0  0  0  0  0  0  0  0  0  0  0
    6.4942   -2.0902    0.0000 H   0  0  0  0  0  0  0  0  0  0  0  0
    5.4266   -3.5543    0.0000 H   0  0  0  0  0  0  0  0  0  0  0  0
    4.3795   -1.3990    0.0000 H   0  0  0  0  0  0  0  0  0  0  0  0
    4.3035   -0.0563    0.0000 H   0  0  0  0  0  0  0  0  0  0  0  0
    4.1364   -0.8356    0.0000 H   0  0  0  0  0  0  0  0  0  0  0  0
    7.3154   -3.1458    0.0000 H   0  0  0  0  0  0  0  0  0  0  0  0
    7.3182   -1.4745    0.0000 H   0  0  0  0  0  0  0  0  0  0  0  0
    5.8819   -4.8704    0.0000 H   0  0  0  0  0  0  0  0  0  0  0  0
    1.4631   -4.0604    0.0000 H   0  0  0  0  0  0  0  0  0  0  0  0
    6.1544    4.0460    0.0000 H   0  0  0  0  0  0  0  0  0  0  0  0
    6.3214    4.8253    0.0000 H   0  0  0  0  0  0  0  0  0  0  0  0
    4.7222    4.2825    0.0000 H   0  0  0  0  0  0  0  0  0  0  0  0
    4.5552    3.5031    0.0000 H   0  0  0  0  0  0  0  0  0  0  0  0
    5.0853    5.9760    0.0000 H   0  0  0  0  0  0  0  0  0  0  0  0
    4.9182    5.1967    0.0000 H   0  0  0  0  0  0  0  0  0  0  0  0
    6.5174    5.7396    0.0000 H   0  0  0  0  0  0  0  0  0  0  0  0
    6.6845    6.5189    0.0000 H   0  0  0  0  0  0  0  0  0  0  0  0
    2.3291   -7.1804    0.0000 H   0  0  0  0  0  0  0  0  0  0  0  0
    3.4030   -7.1804    0.0000 H   0  0  0  0  0  0  0  0  0  0  0  0
    6.4590    1.0398    0.0000 H   0  0  0  0  0  0  0  0  0  0  0  0
    6.4192    7.3710    0.0000 H   0  0  0  0  0  0  0  0  0  0  0  0
    5.6386    7.7704    0.0000 H   0  0  0  0  0  0  0  0  0  0  0  0
    5.2392    6.9898    0.0000 H   0  0  0  0  0  0  0  0  0  0  0  0
  1  5  1  0  0  0  0
  1  6  1  0  0  0  0
  1  7  1  0  0  0  0
  1  8  2  0  0  0  0
  2 17  1  0  0  0  0
  2 18  1  0  0  0  0
 15  3  1  1  0  0  0
  3 37  1  0  0  0  0
 16  4  1  1  0  0  0
  4 38  1  0  0  0  0
  5 19  1  0  0  0  0
  6 28  1  0  0  0  0
  7 51  1  0  0  0  0
  9 28  2  0  0  0  0
 17 10  1  6  0  0  0
 10 20  1  0  0  0  0
 10 21  1  0  0  0  0
 11 21  2  0  0  0  0
 11 22  1  0  0  0  0
 12 20  2  0  0  0  0
 12 24  1  0  0  0  0
 13 23  1  0  0  0  0
 13 24  2  0  0  0  0
 14 23  1  0  0  0  0
 14 49  1  0  0  0  0
 14 50  1  0  0  0  0
 15 16  1  0  0  0  0
 15 17  1  0  0  0  0
 15 31  1  0  0  0  0
 16 18  1  0  0  0  0
 16 32  1  0  0  0  0
 17 33  1  0  0  0  0
 18 19  1  6  0  0  0
 18 34  1  0  0  0  0
 19 35  1  0  0  0  0
 19 36  1  0  0  0  0
 20 22  1  0  0  0  0
 21 39  1  0  0  0  0
 22 23  2  0  0  0  0
 24 40  1  0  0  0  0
 25 26  1  0  0  0  0
 25 27  1  0  0  0  0
 25 41  1  0  0  0  0
 25 42  1  0  0  0  0
 26 28  1  0  0  0  0
 26 43  1  0  0  0  0
 26 44  1  0  0  0  0
 27 29  1  0  0  0  0
 27 45  1  0  0  0  0
 27 46  1  0  0  0  0
 29 30  1  0  0  0  0
 29 47  1  0  0  0  0
 29 48  1  0  0  0  0
 30 52  1  0  0  0  0
 30 53  1  0  0  0  0
 30 54  1  0  0  0  0
M  END
> <PUBCHEM_COMPOUND_CID>
656756

> <PUBCHEM_COMPOUND_CANONICALIZED>
1

> <PUBCHEM_CACTVS_COMPLEXITY>
645

> <PUBCHEM_CACTVS_HBOND_ACCEPTOR>
12

> <PUBCHEM_CACTVS_HBOND_DONOR>
4

> <PUBCHEM_CACTVS_ROTATABLE_BOND>
10

> <PUBCHEM_CACTVS_SUBSKEYS>
AAADceB7vAIAAAAAAAAAAAAAAAAAAWJAAAAsAAAAAAAAAFgB+AAAHgAQCCAACBzhlwYH+L9MFxCoQQbxbICAgC0REKABUCEoVBCDWBJAyEAeRAgPAALTACH4eAIAAAAAAAAAAAAAAAAAAAAAAAAAAAAAAA==

> <PUBCHEM_IUPAC_OPENEYE_NAME>
[[(2R,3S,4R,5R)-5-(6-aminopurin-9-yl)-3,4-dihydroxy-tetrahydrofuran-2-yl]methoxy-hydroxy-phosphoryl] hexanoate

> <PUBCHEM_IUPAC_CAS_NAME>
hexanoic acid [[(2R,3S,4R,5R)-5-(6-aminopurin-9-yl)-3,4-dihydroxy-2-oxolanyl]methoxy-hydroxyphosphoryl] ester

> <PUBCHEM_IUPAC_NAME>
[[(2R,3S,4R,5R)-5-(6-aminopurin-9-yl)-3,4-dihydroxyoxolan-2-yl]methoxy-hydroxyphosphoryl] hexanoate

> <PUBCHEM_IUPAC_SYSTEMATIC_NAME>
[[(2R,3S,4R,5R)-5-(6-aminopurin-9-yl)-3,4-bis(oxidanyl)oxolan-2-yl]methoxy-oxidanyl-phosphoryl] hexanoate

> <PUBCHEM_IUPAC_TRADITIONAL_NAME>
hexanoic acid [[(2R,3S,4R,5R)-5-adenin-9-yl-3,4-dihydroxy-tetrahydrofuran-2-yl]methoxy-hydroxy-phosphoryl] ester

> <PUBCHEM_IUPAC_INCHI>
InChI=1S/C16H24N5O8P/c1-2-3-4-5-10(22)29-30(25,26)27-6-9-12(23)13(24)16(28-9)21-8-20-11-14(17)18-7-19-15(11)21/h7-9,12-13,16,23-24H,2-6H2,1H3,(H,25,26)(H2,17,18,19)/t9-,12-,13-,16-/m1/s1

> <PUBCHEM_IUPAC_INCHIKEY>
CTEJAJOBMJUFFB-RVXWVPLUSA-N

> <PUBCHEM_XLOGP3>
-1

> <PUBCHEM_EXACT_MASS>
445.136249

> <PUBCHEM_MOLECULAR_FORMULA>
C16H24N5O8P

> <PUBCHEM_MOLECULAR_WEIGHT>
445.364222

> <PUBCHEM_OPENEYE_CAN_SMILES>
CCCCCC(=O)OP(=O)(O)OCC1C(C(C(O1)N2C=NC3=C2N=CN=C3N)O)O

> <PUBCHEM_OPENEYE_ISO_SMILES>
CCCCCC(=O)OP(=O)(O)OC[C@@H]1[C@H]([C@H]([C@@H](O1)N2C=NC3=C2N=CN=C3N)O)O

> <PUBCHEM_CACTVS_TPSA>
192

> <PUBCHEM_MONOISOTOPIC_WEIGHT>
445.136249

> <PUBCHEM_TOTAL_CHARGE>
0

> <PUBCHEM_HEAVY_ATOM_COUNT>
30

> <PUBCHEM_ATOM_DEF_STEREO_COUNT>
4

> <PUBCHEM_ATOM_UDEF_STEREO_COUNT>
0

> <PUBCHEM_BOND_DEF_STEREO_COUNT>
0

> <PUBCHEM_BOND_UDEF_STEREO_COUNT>
0

> <PUBCHEM_ISOTOPIC_ATOM_COUNT>
0

> <PUBCHEM_COMPONENT_COUNT>
1

> <PUBCHEM_CACTVS_TAUTO_COUNT>
3

> <PUBCHEM_COORDINATE_TYPE>
1
5
255

> <PUBCHEM_BONDANNOTATIONS>
17  10  6
10  20  8
10  21  8
11  21  8
11  22  8
12  20  8
12  24  8
13  23  8
13  24  8
18  19  6
20  22  8
22  23  8
15  3  5
16  4  5

$$$$

