   Chemical and Physical Properties References

   [1]USDA ARS - USDA chemical properties
   from [2]ChemIDplus

   Color/Form

     * Colorless powder
     * Colorless or white, crystalline powder.

   from [3]HSDB

   Odor
        Odorless
   from [4]HSDB

   Melting Point
        175-177 deg C
   from [5]HSDB

   Corrosivity
        Atrazine technical and formulated products are noncorrosive to
   equipment and metal surfaces.
   from [6]HSDB

   Density/Specific Gravity
        1.23 g/cu cm @ 22 deg C
   from [7]HSDB

   Dissociation Constants
        pKa = 1.70, very weak base
   from [8]HSDB

   Heat of Combustion
        -9,500BTU/LB= -5,300CAL/G= -220X10+5 J/KG
   from [9]HSDB

   Octanol/Water Partition Coefficient
        log Kow= 2.61
   from [10]HSDB

   Solubilities

     * 183 g/kg DMSO; 52 g/kg chloroform; 28 g/kg ethyl acetate; 18 g/kg
       methanol; 12 g/kg diethyl ether; 0.36 g/kg pentane
     * In water, 34.7 mg/liter @ 26 deg C

   from [11]HSDB

   Spectral Properties

     * Intense mass spectral peaks: 200 m/z (100%), 58 m/z (78%), 43 m/z
       (61%), 215 m/z (57%)
     * Intense mass spectral peaks: 173 m/z

   from [12]HSDB

   Vapor Pressure
        2.89X10-7 mm Hg @ 25 deg C
   from [13]HSDB

   Other Chemical/Physical Properties

     * CONVERSION FACTORS: 1 MG/L= 113.2 PPM; 1 PPM= 8.83 MG/CU M
     * Rapidly hydrolyzed to the hydroxy derivative in strong acids and
       alkalis, and at 70 deg C in neutral media; relatively stable in
       neutral, weakly acidic and weakly alkaline media
     * Hydrolyzed to inactive hydroxy derivatives by alkali or mineral
       acids
     * Henry's Law constant = 2.96X10-9 atm-cu m/mol @ 25 deg C
     * Hydroxyl radical reaction rate constant = 2.7X10-11 cu cm/molec-sec
       @ 25 deg C /Estimated/

   from [14]HSDB

   Computed Properties
   Molecular Weight                  215.68326 [g/mol]
   Molecular Formula                 C[8]H[14]ClN[5]
   XLogP3                            2.6
   H-Bond Donor                      2
   H-Bond Acceptor                   5
   Rotatable Bond Count              4
   Tautomer Count                    9
   Exact Mass                        215.093773
   MonoIsotopic Mass                 215.093773
   Topological Polar Surface Area    62.7
   Heavy Atom Count                  14
   Formal Charge                     0
   Complexity                        166
   Isotope Atom Count                0
   Defined Atom Stereocenter Count   0
   Undefined Atom Stereocenter Count 0
   Defined Bond Stereocenter Count   0
   Undefined Bond Stereocenter Count 0
   Covalently-Bonded Unit Count      1
   Feature 3D Donor Count            2
   Feature 3D Cation Count           2
   Feature 3D Hydrophobe Count       1
   Feature 3D Ring Count             1
   Effective Rotor Count             4
   Conformer Sampling RMSD           0.6
   CID Conformer Count               [15]47

References

   1. http://www.ars.usda.gov/SP2UserFiles/ad_hoc/12755100DatabaseFiles/PesticidePropertiesDatabase/IndividualPesticideFiles/ATRAZINE.TXT
   2. http://chem.sis.nlm.nih.gov/chemidplus/
   3. http://toxnet.nlm.nih.gov/cgi-bin/sis/search/r?dbs+hsdb:@term+@rn+@rel+1912-24-9
   4. http://toxnet.nlm.nih.gov/cgi-bin/sis/search/r?dbs+hsdb:@term+@rn+@rel+1912-24-9
   5. http://toxnet.nlm.nih.gov/cgi-bin/sis/search/r?dbs+hsdb:@term+@rn+@rel+1912-24-9
   6. http://toxnet.nlm.nih.gov/cgi-bin/sis/search/r?dbs+hsdb:@term+@rn+@rel+1912-24-9
   7. http://toxnet.nlm.nih.gov/cgi-bin/sis/search/r?dbs+hsdb:@term+@rn+@rel+1912-24-9
   8. http://toxnet.nlm.nih.gov/cgi-bin/sis/search/r?dbs+hsdb:@term+@rn+@rel+1912-24-9
   9. http://toxnet.nlm.nih.gov/cgi-bin/sis/search/r?dbs+hsdb:@term+@rn+@rel+1912-24-9
  10. http://toxnet.nlm.nih.gov/cgi-bin/sis/search/r?dbs+hsdb:@term+@rn+@rel+1912-24-9
  11. http://toxnet.nlm.nih.gov/cgi-bin/sis/search/r?dbs+hsdb:@term+@rn+@rel+1912-24-9
  12. http://toxnet.nlm.nih.gov/cgi-bin/sis/search/r?dbs+hsdb:@term+@rn+@rel+1912-24-9
  13. http://toxnet.nlm.nih.gov/cgi-bin/sis/search/r?dbs+hsdb:@term+@rn+@rel+1912-24-9
  14. http://toxnet.nlm.nih.gov/cgi-bin/sis/search/r?dbs+hsdb:@term+@rn+@rel+1912-24-9
  15. http://pubchem.ncbi.nlm.nih.gov/vw3d/vw3d.cgi?cid=2256
