   Color/Form

     * OILY, CLEAR LIQ
     * Colorless liquid.

   from [1]HSDB

   Odor

     * CHARACTERISTIC, DISAGREEABLE ODOR
     * Disagreeable odor.

   from [2]HSDB

   Taste
        PUNGENT, REPULSIVE TASTE
   from [3]HSDB

   Boiling Point
        132.5 DEG C
   from [4]HSDB

   Melting Point
        -117.2 DEG C
   from [5]HSDB

   Critical Temperature and Pressure
        Critical temperature = 307 deg K
   from [6]HSDB

   Density/Specific Gravity
        0.813 @ 15 DEG C/4 DEG C
   from [7]HSDB

   Heat of Combustion
        -794.98 kcal/ mole @ constant pressure
   from [8]HSDB

   Heat of Vaporization
        13.3 kcal/mole @ constant pressure
   from [9]HSDB

   Octanol/Water Partition Coefficient
        log Kow= 1.16
   from [10]HSDB

   Solubilities

     * MISCIBLE WITH ALC, ETHER, BENZENE, CHLOROFORM, PETROLEUM ETHER,
       GLACIAL ACETIC ACID, OILS
     * VERY SOL IN ACETONE
     * Water solubility = 2.67X10+4 mg/l @ 25 DEG C

   from [11]HSDB

   Spectral Properties

     * INDEX OF REFRACTION: 1.4075 @ 20 DEG C/D
     * SADTLER REFERENCE NUMBER: 806 (IR, PRISM)
     * IR: 15289 (Sadtler Research Laboratories IR Grating Collection)
     * NMR: 7201 (Sadtler Research Laboratories Spectral Collection)
     * MASS: 3996 (National Bureau of Standards EPA-NIH Mass Spectra Data
       Base, NSRDS-NBS-63)
     * IR: 3:68F (Aldrich Library of Infrared Spectra, Aldrich Chemical
       Co, Milwaukee, WI)
     * NMR: 1:84A (Aldrich Library of Mass Spectra, Aldrich Chemical Co,
       Milwaukee, WI)
     * MASS: 50 (National Bureau of Standards EPA-NIH Mass Spectra Data
       Base, NSRDS-NBS-63)

   from [12]HSDB

   Surface Tension
        24.77 dynes/cm @ 15 deg C
   from [13]HSDB

   Vapor Density
        3.04 (AIR=1)
   from [14]HSDB

   Vapor Pressure
        2.37 mm Hg @ 25 deg C
   from [15]HSDB

   Viscosity
        3.738 cP @ 25 deg C
   from [16]HSDB

   Other Chemical/Physical Properties

     * Standard heat of formation = -85.18 kcal/mol @ 25 deg C
     * Heat Capacity = 50.5 cal/deg K-mol @ 25 deg C
     * Henry's Law constant = 1.41X10-5 atm-cu m/mol
     * Henry's Law constant = 1.41X10-5 atm-cu m/mol.

   from [17]HSDB

   Computed Properties
   Molecular Weight                  88.14818 [g/mol]
   Molecular Formula                 C[5]H[12]O
   XLogP3                            1.2
   H-Bond Donor                      1
   H-Bond Acceptor                   1
   Rotatable Bond Count              2
   Exact Mass                        88.088815
   MonoIsotopic Mass                 88.088815
   Topological Polar Surface Area    20.2
   Heavy Atom Count                  6
   Formal Charge                     0
   Complexity                        25.1
   Isotope Atom Count                0
   Defined Atom Stereocenter Count   0
   Undefined Atom Stereocenter Count 0
   Defined Bond Stereocenter Count   0
   Undefined Bond Stereocenter Count 0
   Covalently-Bonded Unit Count      1
   Feature 3D Acceptor Count         1
   Feature 3D Donor Count            1
   Feature 3D Hydrophobe Count       1
   Effective Rotor Count             2
   Conformer Sampling RMSD           0.4
   CID Conformer Count               [18]3

References

   1. http://toxnet.nlm.nih.gov/cgi-bin/sis/search/r?dbs+hsdb:@term+@rn+@rel+123-51-3
   2. http://toxnet.nlm.nih.gov/cgi-bin/sis/search/r?dbs+hsdb:@term+@rn+@rel+123-51-3
   3. http://toxnet.nlm.nih.gov/cgi-bin/sis/search/r?dbs+hsdb:@term+@rn+@rel+123-51-3
   4. http://toxnet.nlm.nih.gov/cgi-bin/sis/search/r?dbs+hsdb:@term+@rn+@rel+123-51-3
   5. http://toxnet.nlm.nih.gov/cgi-bin/sis/search/r?dbs+hsdb:@term+@rn+@rel+123-51-3
   6. http://toxnet.nlm.nih.gov/cgi-bin/sis/search/r?dbs+hsdb:@term+@rn+@rel+123-51-3
   7. http://toxnet.nlm.nih.gov/cgi-bin/sis/search/r?dbs+hsdb:@term+@rn+@rel+123-51-3
   8. http://toxnet.nlm.nih.gov/cgi-bin/sis/search/r?dbs+hsdb:@term+@rn+@rel+123-51-3
   9. http://toxnet.nlm.nih.gov/cgi-bin/sis/search/r?dbs+hsdb:@term+@rn+@rel+123-51-3
  10. http://toxnet.nlm.nih.gov/cgi-bin/sis/search/r?dbs+hsdb:@term+@rn+@rel+123-51-3
  11. http://toxnet.nlm.nih.gov/cgi-bin/sis/search/r?dbs+hsdb:@term+@rn+@rel+123-51-3
  12. http://toxnet.nlm.nih.gov/cgi-bin/sis/search/r?dbs+hsdb:@term+@rn+@rel+123-51-3
  13. http://toxnet.nlm.nih.gov/cgi-bin/sis/search/r?dbs+hsdb:@term+@rn+@rel+123-51-3
  14. http://toxnet.nlm.nih.gov/cgi-bin/sis/search/r?dbs+hsdb:@term+@rn+@rel+123-51-3
  15. http://toxnet.nlm.nih.gov/cgi-bin/sis/search/r?dbs+hsdb:@term+@rn+@rel+123-51-3
  16. http://toxnet.nlm.nih.gov/cgi-bin/sis/search/r?dbs+hsdb:@term+@rn+@rel+123-51-3
  17. http://toxnet.nlm.nih.gov/cgi-bin/sis/search/r?dbs+hsdb:@term+@rn+@rel+123-51-3
  18. http://pubchem.ncbi.nlm.nih.gov/vw3d/vw3d.cgi?cid=31260
