17396227
  -OEChem-06241222552D

 65 70  0     0  0  0  0  0  0999 V2000
    3.6730   -0.3545    0.0000 O   0  0  0  0  0  0  0  0  0  0  0  0
    6.2710    4.1455    0.0000 O   0  0  0  0  0  0  0  0  0  0  0  0
    4.5390   -1.8545    0.0000 N   0  0  0  0  0  0  0  0  0  0  0  0
    5.4050   -0.3545    0.0000 N   0  0  0  0  0  0  0  0  0  0  0  0
    7.1371    0.6455    0.0000 N   0  0  0  0  0  0  0  0  0  0  0  0
    8.8691    2.6455    0.0000 N   0  0  0  0  0  0  0  0  0  0  0  0
    7.1371    2.6455    0.0000 N   0  0  0  0  0  0  0  0  0  0  0  0
    3.6730   -3.3545    0.0000 C   0  0  0  0  0  0  0  0  0  0  0  0
    4.5092   -4.8028    0.0000 C   0  0  0  0  0  0  0  0  0  0  0  0
    2.8368   -4.8028    0.0000 C   0  0  0  0  0  0  0  0  0  0  0  0
    2.9819   -5.2380    0.0000 C   0  0  0  0  0  0  0  0  0  0  0  0
    4.5092   -3.8373    0.0000 C   0  0  0  0  0  0  0  0  0  0  0  0
    2.8368   -3.8373    0.0000 C   0  0  0  0  0  0  0  0  0  0  0  0
    2.9819   -4.1927    0.0000 C   0  0  0  0  0  0  0  0  0  0  0  0
    3.6730   -5.1056    0.0000 C   0  0  0  0  0  0  0  0  0  0  0  0
    3.8876   -5.7148    0.0000 C   0  0  0  0  0  0  0  0  0  0  0  0
    2.0000   -5.2856    0.0000 C   0  0  0  0  0  0  0  0  0  0  0  0
    3.6730   -2.3545    0.0000 C   0  0  0  0  0  0  0  0  0  0  0  0
    4.5390   -0.8545    0.0000 C   0  0  0  0  0  0  0  0  0  0  0  0
    6.2711   -0.8545    0.0000 C   0  0  0  0  0  0  0  0  0  0  0  0
    5.4050    0.6455    0.0000 C   0  0  0  0  0  0  0  0  0  0  0  0
    7.1371   -0.3545    0.0000 C   0  0  0  0  0  0  0  0  0  0  0  0
    6.2711    1.1455    0.0000 C   0  0  0  0  0  0  0  0  0  0  0  0
    8.0031    1.1455    0.0000 C   0  0  0  0  0  0  0  0  0  0  0  0
    8.0031    2.1455    0.0000 C   0  0  0  0  0  0  0  0  0  0  0  0
    8.8691    3.6455    0.0000 C   0  0  0  0  0  0  0  0  0  0  0  0
    8.0031    4.1455    0.0000 C   0  0  0  0  0  0  0  0  0  0  0  0
    7.1371    3.6455    0.0000 C   0  0  0  0  0  0  0  0  0  0  0  0
    9.7791    4.1523    0.0000 C   0  0  0  0  0  0  0  0  0  0  0  0
    7.9870    5.1870    0.0000 C   0  0  0  0  0  0  0  0  0  0  0  0
    9.7872    5.1939    0.0000 C   0  0  0  0  0  0  0  0  0  0  0  0
    8.8851    5.7148    0.0000 C   0  0  0  0  0  0  0  0  0  0  0  0
    5.1016   -4.9856    0.0000 H   0  0  0  0  0  0  0  0  0  0  0  0
    2.8912   -5.4204    0.0000 H   0  0  0  0  0  0  0  0  0  0  0  0
    2.8478   -5.8433    0.0000 H   0  0  0  0  0  0  0  0  0  0  0  0
    5.1198   -3.9450    0.0000 H   0  0  0  0  0  0  0  0  0  0  0  0
    4.7212   -3.2547    0.0000 H   0  0  0  0  0  0  0  0  0  0  0  0
    2.6247   -3.2547    0.0000 H   0  0  0  0  0  0  0  0  0  0  0  0
    2.2262   -3.9450    0.0000 H   0  0  0  0  0  0  0  0  0  0  0  0
    2.6383   -3.6766    0.0000 H   0  0  0  0  0  0  0  0  0  0  0  0
    2.3885   -4.3722    0.0000 H   0  0  0  0  0  0  0  0  0  0  0  0
    3.3030   -5.6031    0.0000 H   0  0  0  0  0  0  0  0  0  0  0  0
    4.0430   -5.6031    0.0000 H   0  0  0  0  0  0  0  0  0  0  0  0
    3.5782   -6.2520    0.0000 H   0  0  0  0  0  0  0  0  0  0  0  0
    4.4127   -6.0443    0.0000 H   0  0  0  0  0  0  0  0  0  0  0  0
    1.5188   -4.8947    0.0000 H   0  0  0  0  0  0  0  0  0  0  0  0
    1.8068   -5.8748    0.0000 H   0  0  0  0  0  0  0  0  0  0  0  0
    3.4609   -1.7719    0.0000 H   0  0  0  0  0  0  0  0  0  0  0  0
    3.0624   -2.4622    0.0000 H   0  0  0  0  0  0  0  0  0  0  0  0
    5.0760   -2.1645    0.0000 H   0  0  0  0  0  0  0  0  0  0  0  0
    5.1930    1.2281    0.0000 H   0  0  0  0  0  0  0  0  0  0  0  0
    5.8725   -1.3295    0.0000 H   0  0  0  0  0  0  0  0  0  0  0  0
    6.6696   -1.3295    0.0000 H   0  0  0  0  0  0  0  0  0  0  0  0
    4.7945    0.5378    0.0000 H   0  0  0  0  0  0  0  0  0  0  0  0
    6.6696    1.6204    0.0000 H   0  0  0  0  0  0  0  0  0  0  0  0
    5.8725    1.6204    0.0000 H   0  0  0  0  0  0  0  0  0  0  0  0
    7.3492   -0.9371    0.0000 H   0  0  0  0  0  0  0  0  0  0  0  0
    7.7477   -0.2469    0.0000 H   0  0  0  0  0  0  0  0  0  0  0  0
    8.2152    0.5629    0.0000 H   0  0  0  0  0  0  0  0  0  0  0  0
    8.6137    1.2532    0.0000 H   0  0  0  0  0  0  0  0  0  0  0  0
    9.4061    2.3355    0.0000 H   0  0  0  0  0  0  0  0  0  0  0  0
   10.3124    3.8362    0.0000 H   0  0  0  0  0  0  0  0  0  0  0  0
    7.4466    5.4908    0.0000 H   0  0  0  0  0  0  0  0  0  0  0  0
   10.3253    5.5019    0.0000 H   0  0  0  0  0  0  0  0  0  0  0  0
    8.8827    6.3348    0.0000 H   0  0  0  0  0  0  0  0  0  0  0  0
  1 19  2  0  0  0  0
  2 28  2  0  0  0  0
  3 18  1  0  0  0  0
  3 19  1  0  0  0  0
  3 50  1  0  0  0  0
  4 19  1  0  0  0  0
  4 20  1  0  0  0  0
  4 21  1  0  0  0  0
  5 22  1  0  0  0  0
  5 23  1  0  0  0  0
  5 24  1  0  0  0  0
  6 25  1  0  0  0  0
  6 26  1  0  0  0  0
  6 61  1  0  0  0  0
  7 25  2  0  0  0  0
  7 28  1  0  0  0  0
  8 12  1  0  0  0  0
  8 13  1  0  0  0  0
  8 14  1  0  0  0  0
  8 18  1  0  0  0  0
  9 12  1  0  0  0  0
  9 15  1  0  0  0  0
  9 16  1  0  0  0  0
  9 33  1  0  0  0  0
 10 13  1  0  0  0  0
 10 15  1  0  0  0  0
 10 17  1  0  0  0  0
 10 34  1  0  0  0  0
 11 14  1  0  0  0  0
 11 16  1  0  0  0  0
 11 17  1  0  0  0  0
 11 35  1  0  0  0  0
 12 36  1  0  0  0  0
 12 37  1  0  0  0  0
 13 38  1  0  0  0  0
 13 39  1  0  0  0  0
 14 40  1  0  0  0  0
 14 41  1  0  0  0  0
 15 42  1  0  0  0  0
 15 43  1  0  0  0  0
 16 44  1  0  0  0  0
 16 45  1  0  0  0  0
 17 46  1  0  0  0  0
 17 47  1  0  0  0  0
 18 48  1  0  0  0  0
 18 49  1  0  0  0  0
 20 22  1  0  0  0  0
 20 52  1  0  0  0  0
 20 53  1  0  0  0  0
 21 23  1  0  0  0  0
 21 51  1  0  0  0  0
 21 54  1  0  0  0  0
 22 57  1  0  0  0  0
 22 58  1  0  0  0  0
 23 55  1  0  0  0  0
 23 56  1  0  0  0  0
 24 25  1  0  0  0  0
 24 59  1  0  0  0  0
 24 60  1  0  0  0  0
 26 27  1  0  0  0  0
 26 29  2  0  0  0  0
 27 28  1  0  0  0  0
 27 30  2  0  0  0  0
 29 31  1  0  0  0  0
 29 62  1  0  0  0  0
 30 32  1  0  0  0  0
 30 63  1  0  0  0  0
 31 32  2  0  0  0  0
 31 64  1  0  0  0  0
 32 65  1  0  0  0  0
M  END
> <PUBCHEM_COMPOUND_CID>
17396227

> <PUBCHEM_COMPOUND_CANONICALIZED>
1

> <PUBCHEM_CACTVS_COMPLEXITY>
746

> <PUBCHEM_CACTVS_HBOND_ACCEPTOR>
3

> <PUBCHEM_CACTVS_HBOND_DONOR>
2

> <PUBCHEM_CACTVS_ROTATABLE_BOND>
4

> <PUBCHEM_CACTVS_SUBSKEYS>
AAADcfB7sAAAAAAAAAAAAAAAAAAAAAAAAAA8YMGDAAAAAACBAAAAHgAQAAAADwjBmAQxwIPAAACoAidydACCAAElAgAJiIEYZMiIYDrA3ZGUIYholgLIyccYiMCPAAAAAAACAAAAAAQAAAQAAAAAAAAAAA==

> <PUBCHEM_IUPAC_OPENEYE_NAME>
N-(1-adamantylmethyl)-4-[(4-oxo-1H-quinazolin-2-yl)methyl]piperazine-1-carboxamide

> <PUBCHEM_IUPAC_CAS_NAME>
N-(1-adamantylmethyl)-4-[(4-oxo-1H-quinazolin-2-yl)methyl]-1-piperazinecarboxamide

> <PUBCHEM_IUPAC_NAME>
N-(1-adamantylmethyl)-4-[(4-oxo-1H-quinazolin-2-yl)methyl]piperazine-1-carboxamide

> <PUBCHEM_IUPAC_SYSTEMATIC_NAME>
N-(1-adamantylmethyl)-4-[(4-oxidanylidene-1H-quinazolin-2-yl)methyl]piperazine-1-carboxamide

> <PUBCHEM_IUPAC_TRADITIONAL_NAME>
N-(1-adamantylmethyl)-4-[(4-keto-1H-quinazolin-2-yl)methyl]piperazine-1-carboxamide

> <PUBCHEM_IUPAC_INCHI>
InChI=1S/C25H33N5O2/c31-23-20-3-1-2-4-21(20)27-22(28-23)15-29-5-7-30(8-6-29)24(32)26-16-25-12-17-9-18(13-25)11-19(10-17)14-25/h1-4,17-19H,5-16H2,(H,26,32)(H,27,28,31)

> <PUBCHEM_IUPAC_INCHIKEY>
QRHJNEVCWKBKJV-UHFFFAOYSA-N

> <PUBCHEM_XLOGP3_AA>
2.8

> <PUBCHEM_EXACT_MASS>
435.263425

> <PUBCHEM_MOLECULAR_FORMULA>
C25H33N5O2

> <PUBCHEM_MOLECULAR_WEIGHT>
435.56182

> <PUBCHEM_OPENEYE_CAN_SMILES>
C1CN(CCN1CC2=NC(=O)C3=CC=CC=C3N2)C(=O)NCC45CC6CC(C4)CC(C6)C5

> <PUBCHEM_OPENEYE_ISO_SMILES>
C1CN(CCN1CC2=NC(=O)C3=CC=CC=C3N2)C(=O)NCC45CC6CC(C4)CC(C6)C5

> <PUBCHEM_CACTVS_TPSA>
77

> <PUBCHEM_MONOISOTOPIC_WEIGHT>
435.263425

> <PUBCHEM_TOTAL_CHARGE>
0

> <PUBCHEM_HEAVY_ATOM_COUNT>
32

> <PUBCHEM_ATOM_DEF_STEREO_COUNT>
0

> <PUBCHEM_ATOM_UDEF_STEREO_COUNT>
0

> <PUBCHEM_BOND_DEF_STEREO_COUNT>
0

> <PUBCHEM_BOND_UDEF_STEREO_COUNT>
0

> <PUBCHEM_ISOTOPIC_ATOM_COUNT>
0

> <PUBCHEM_COMPONENT_COUNT>
1

> <PUBCHEM_CACTVS_TAUTO_COUNT>
20

> <PUBCHEM_COORDINATE_TYPE>
1
5
255

> <PUBCHEM_BONDANNOTATIONS>
26  27  8
26  29  8
27  28  8
27  30  8
29  31  8
30  32  8
31  32  8
6  25  8
6  26  8
7  25  8
7  28  8

$$$$

