443226
  -OEChem-07051213012D

 41 42  0     0  0  0  0  0  0999 V2000
    3.4030    2.0600    0.0000 O   0  0  0  0  0  0  0  0  0  0  0  0
    2.5369   -2.4400    0.0000 O   0  0  0  0  0  0  0  0  0  0  0  0
    5.1350    2.0600    0.0000 N   0  0  0  0  0  0  0  0  0  0  0  0
    4.2690   -2.4400    0.0000 N   0  0  0  0  0  0  0  0  0  0  0  0
    2.5369   -4.4400    0.0000 N   0  0  0  0  0  0  0  0  0  0  0  0
    5.1350    3.0600    0.0000 C   0  0  0  0  0  0  0  0  0  0  0  0
    6.0010    3.5600    0.0000 C   0  0  0  0  0  0  0  0  0  0  0  0
    4.2690    3.5600    0.0000 C   0  0  0  0  0  0  0  0  0  0  0  0
    4.2690    0.5600    0.0000 C   0  0  0  0  0  0  0  0  0  0  0  0
    6.0010    4.5600    0.0000 C   0  0  0  0  0  0  0  0  0  0  0  0
    4.2690    4.5600    0.0000 C   0  0  0  0  0  0  0  0  0  0  0  0
    4.2690    1.5600    0.0000 C   0  0  0  0  0  0  0  0  0  0  0  0
    5.1350    5.0600    0.0000 C   0  0  0  0  0  0  0  0  0  0  0  0
    6.8671    3.0600    0.0000 C   0  0  0  0  0  0  0  0  0  0  0  0
    3.4030    3.0600    0.0000 C   0  0  0  0  0  0  0  0  0  0  0  0
    4.2690   -1.4400    0.0000 C   0  0  0  0  0  0  0  0  0  0  0  0
    3.4030    0.0600    0.0000 C   0  0  0  0  0  0  0  0  0  0  0  0
    5.1350    0.0600    0.0000 C   0  0  0  0  0  0  0  0  0  0  0  0
    3.4030   -0.9400    0.0000 C   0  0  0  0  0  0  0  0  0  0  0  0
    5.1350   -0.9400    0.0000 C   0  0  0  0  0  0  0  0  0  0  0  0
    3.4030   -2.9400    0.0000 C   0  0  0  0  0  0  0  0  0  0  0  0
    3.4030   -3.9400    0.0000 C   0  0  0  0  0  0  0  0  0  0  0  0
    5.6720    1.7500    0.0000 H   0  0  0  0  0  0  0  0  0  0  0  0
    6.5380    4.8700    0.0000 H   0  0  0  0  0  0  0  0  0  0  0  0
    3.7320    4.8700    0.0000 H   0  0  0  0  0  0  0  0  0  0  0  0
    5.1350    5.6800    0.0000 H   0  0  0  0  0  0  0  0  0  0  0  0
    6.5571    2.5231    0.0000 H   0  0  0  0  0  0  0  0  0  0  0  0
    7.4040    2.7500    0.0000 H   0  0  0  0  0  0  0  0  0  0  0  0
    7.1771    3.5969    0.0000 H   0  0  0  0  0  0  0  0  0  0  0  0
    3.0930    3.5969    0.0000 H   0  0  0  0  0  0  0  0  0  0  0  0
    2.8660    2.7500    0.0000 H   0  0  0  0  0  0  0  0  0  0  0  0
    3.7130    2.5231    0.0000 H   0  0  0  0  0  0  0  0  0  0  0  0
    2.8660    0.3700    0.0000 H   0  0  0  0  0  0  0  0  0  0  0  0
    5.6720    0.3700    0.0000 H   0  0  0  0  0  0  0  0  0  0  0  0
    2.8660   -1.2500    0.0000 H   0  0  0  0  0  0  0  0  0  0  0  0
    5.6720   -1.2500    0.0000 H   0  0  0  0  0  0  0  0  0  0  0  0
    4.8059   -2.7500    0.0000 H   0  0  0  0  0  0  0  0  0  0  0  0
    3.6150   -4.5226    0.0000 H   0  0  0  0  0  0  0  0  0  0  0  0
    4.0135   -3.8323    0.0000 H   0  0  0  0  0  0  0  0  0  0  0  0
    2.5369   -5.0600    0.0000 H   0  0  0  0  0  0  0  0  0  0  0  0
    2.0000   -4.1300    0.0000 H   0  0  0  0  0  0  0  0  0  0  0  0
  1 12  2  0  0  0  0
  2 21  2  0  0  0  0
  3  6  1  0  0  0  0
  3 12  1  0  0  0  0
  3 23  1  0  0  0  0
  4 16  1  0  0  0  0
  4 21  1  0  0  0  0
  4 37  1  0  0  0  0
  5 22  1  0  0  0  0
  5 40  1  0  0  0  0
  5 41  1  0  0  0  0
  6  7  2  0  0  0  0
  6  8  1  0  0  0  0
  7 10  1  0  0  0  0
  7 14  1  0  0  0  0
  8 11  2  0  0  0  0
  8 15  1  0  0  0  0
  9 12  1  0  0  0  0
  9 17  2  0  0  0  0
  9 18  1  0  0  0  0
 10 13  2  0  0  0  0
 10 24  1  0  0  0  0
 11 13  1  0  0  0  0
 11 25  1  0  0  0  0
 13 26  1  0  0  0  0
 14 27  1  0  0  0  0
 14 28  1  0  0  0  0
 14 29  1  0  0  0  0
 15 30  1  0  0  0  0
 15 31  1  0  0  0  0
 15 32  1  0  0  0  0
 16 19  2  0  0  0  0
 16 20  1  0  0  0  0
 17 19  1  0  0  0  0
 17 33  1  0  0  0  0
 18 20  2  0  0  0  0
 18 34  1  0  0  0  0
 19 35  1  0  0  0  0
 20 36  1  0  0  0  0
 21 22  1  0  0  0  0
 22 38  1  0  0  0  0
 22 39  1  0  0  0  0
M  END
> <PUBCHEM_COMPOUND_CID>
443226

> <PUBCHEM_COMPOUND_CANONICALIZED>
1

> <PUBCHEM_CACTVS_COMPLEXITY>
381

> <PUBCHEM_CACTVS_HBOND_ACCEPTOR>
3

> <PUBCHEM_CACTVS_HBOND_DONOR>
3

> <PUBCHEM_CACTVS_ROTATABLE_BOND>
4

> <PUBCHEM_CACTVS_SUBSKEYS>
AAADceB7MAAAAAAAAAAAAAAAAAAAAAAAAAAwYAAAAAAAAAABQAAAHgAQAAAADAjBmAQywILAAACIAiVSUACCAAAlAgAIiIGAZMgIYDLAlZGUIQhglADIyYcYiUCeCAACAAACAAAQAAQAAAQAAAAAAAAAAA==

> <PUBCHEM_IUPAC_OPENEYE_NAME>
4-[(2-aminoacetyl)amino]-N-(2,6-dimethylphenyl)benzamide

> <PUBCHEM_IUPAC_CAS_NAME>
4-[(2-amino-1-oxoethyl)amino]-N-(2,6-dimethylphenyl)benzamide

> <PUBCHEM_IUPAC_NAME>
4-[(2-aminoacetyl)amino]-N-(2,6-dimethylphenyl)benzamide

> <PUBCHEM_IUPAC_SYSTEMATIC_NAME>
4-(2-azanylethanoylamino)-N-(2,6-dimethylphenyl)benzamide

> <PUBCHEM_IUPAC_TRADITIONAL_NAME>
N-(2,6-dimethylphenyl)-4-(glycylamino)benzamide

> <PUBCHEM_IUPAC_INCHI>
InChI=1S/C17H19N3O2/c1-11-4-3-5-12(2)16(11)20-17(22)13-6-8-14(9-7-13)19-15(21)10-18/h3-9H,10,18H2,1-2H3,(H,19,21)(H,20,22)

> <PUBCHEM_IUPAC_INCHIKEY>
NVVRHNPFZRQLSF-UHFFFAOYSA-N

> <PUBCHEM_XLOGP3>
1.2

> <PUBCHEM_EXACT_MASS>
297.147727

> <PUBCHEM_MOLECULAR_FORMULA>
C17H19N3O2

> <PUBCHEM_MOLECULAR_WEIGHT>
297.35166

> <PUBCHEM_OPENEYE_CAN_SMILES>
CC1=C(C(=CC=C1)C)NC(=O)C2=CC=C(C=C2)NC(=O)CN

> <PUBCHEM_OPENEYE_ISO_SMILES>
CC1=C(C(=CC=C1)C)NC(=O)C2=CC=C(C=C2)NC(=O)CN

> <PUBCHEM_CACTVS_TPSA>
84.2

> <PUBCHEM_MONOISOTOPIC_WEIGHT>
297.147727

> <PUBCHEM_TOTAL_CHARGE>
0

> <PUBCHEM_HEAVY_ATOM_COUNT>
22

> <PUBCHEM_ATOM_DEF_STEREO_COUNT>
0

> <PUBCHEM_ATOM_UDEF_STEREO_COUNT>
0

> <PUBCHEM_BOND_DEF_STEREO_COUNT>
0

> <PUBCHEM_BOND_UDEF_STEREO_COUNT>
0

> <PUBCHEM_ISOTOPIC_ATOM_COUNT>
0

> <PUBCHEM_COMPONENT_COUNT>
1

> <PUBCHEM_CACTVS_TAUTO_COUNT>
30

> <PUBCHEM_COORDINATE_TYPE>
1
5
255

> <PUBCHEM_BONDANNOTATIONS>
10  13  8
11  13  8
16  19  8
16  20  8
17  19  8
18  20  8
6  7  8
6  8  8
7  10  8
8  11  8
9  17  8
9  18  8

$$$$

