3549
  -OEChem-06251223302D

 42 43  0     1  0  0  0  0  0999 V2000
    9.8602    0.6659    0.0000 Br  0  0  0  0  0  0  0  0  0  0  0  0
    6.3301    2.6900    0.0000 O   0  0  0  0  0  0  0  0  0  0  0  0
    7.1962   -1.8100    0.0000 O   0  0  0  0  0  0  0  0  0  0  0  0
    3.7320    1.1900    0.0000 O   0  0  0  0  0  0  0  0  0  0  0  0
    8.0622   -0.3100    0.0000 O   0  0  0  0  0  0  0  0  0  0  0  0
    4.5981   -0.3100    0.0000 O   0  0  0  0  0  0  0  0  0  0  0  0
    4.5981    2.6900    0.0000 N   0  0  0  0  0  0  0  0  0  0  0  0
    4.5981   -1.3100    0.0000 N   0  0  0  0  0  0  0  0  0  0  0  0
    6.3301    0.6900    0.0000 C   0  0  3  0  0  0  0  0  0  0  0  0
    7.1962    1.1900    0.0000 C   0  0  0  0  0  0  0  0  0  0  0  0
    6.3301   -0.3100    0.0000 C   0  0  3  0  0  0  0  0  0  0  0  0
    5.4641    1.1900    0.0000 C   0  0  0  0  0  0  0  0  0  0  0  0
    7.1962    2.1900    0.0000 C   0  0  0  0  0  0  0  0  0  0  0  0
    5.4641    2.1900    0.0000 C   0  0  0  0  0  0  0  0  0  0  0  0
    8.0901    0.6553    0.0000 C   0  0  0  0  0  0  0  0  0  0  0  0
    7.1962   -0.8100    0.0000 C   0  0  0  0  0  0  0  0  0  0  0  0
    4.5981    0.6900    0.0000 C   0  0  0  0  0  0  0  0  0  0  0  0
    8.0901    2.7247    0.0000 C   0  0  0  0  0  0  0  0  0  0  0  0
    8.9962    1.1692    0.0000 C   0  0  0  0  0  0  0  0  0  0  0  0
    5.4641   -0.8100    0.0000 C   0  0  0  0  0  0  0  0  0  0  0  0
    8.9962    2.2108    0.0000 C   0  0  0  0  0  0  0  0  0  0  0  0
    8.0622   -2.3100    0.0000 C   0  0  0  0  0  0  0  0  0  0  0  0
    2.8660    0.6900    0.0000 C   0  0  0  0  0  0  0  0  0  0  0  0
    8.0622   -3.3100    0.0000 C   0  0  0  0  0  0  0  0  0  0  0  0
    2.0000    1.1900    0.0000 C   0  0  0  0  0  0  0  0  0  0  0  0
    5.7932    0.3800    0.0000 H   0  0  0  0  0  0  0  0  0  0  0  0
    5.7932    0.0000    0.0000 H   0  0  0  0  0  0  0  0  0  0  0  0
    8.0829    0.0354    0.0000 H   0  0  0  0  0  0  0  0  0  0  0  0
    8.0829    3.3446    0.0000 H   0  0  0  0  0  0  0  0  0  0  0  0
    9.5319    2.5229    0.0000 H   0  0  0  0  0  0  0  0  0  0  0  0
    4.5981    3.3100    0.0000 H   0  0  0  0  0  0  0  0  0  0  0  0
    4.0611    2.3800    0.0000 H   0  0  0  0  0  0  0  0  0  0  0  0
    8.6728   -2.4177    0.0000 H   0  0  0  0  0  0  0  0  0  0  0  0
    8.2742   -1.7274    0.0000 H   0  0  0  0  0  0  0  0  0  0  0  0
    2.4675    0.2151    0.0000 H   0  0  0  0  0  0  0  0  0  0  0  0
    3.2646    0.2151    0.0000 H   0  0  0  0  0  0  0  0  0  0  0  0
    7.4422   -3.3100    0.0000 H   0  0  0  0  0  0  0  0  0  0  0  0
    8.0622   -3.9300    0.0000 H   0  0  0  0  0  0  0  0  0  0  0  0
    8.6822   -3.3100    0.0000 H   0  0  0  0  0  0  0  0  0  0  0  0
    2.3100    1.7269    0.0000 H   0  0  0  0  0  0  0  0  0  0  0  0
    1.4631    1.5000    0.0000 H   0  0  0  0  0  0  0  0  0  0  0  0
    1.6900    0.6531    0.0000 H   0  0  0  0  0  0  0  0  0  0  0  0
  1 19  1  0  0  0  0
  2 13  1  0  0  0  0
  2 14  1  0  0  0  0
  3 16  1  0  0  0  0
  3 22  1  0  0  0  0
  4 17  1  0  0  0  0
  4 23  1  0  0  0  0
  5 16  2  0  0  0  0
  6 17  2  0  0  0  0
  7 14  1  0  0  0  0
  7 31  1  0  0  0  0
  7 32  1  0  0  0  0
  8 20  3  0  0  0  0
  9 10  1  0  0  0  0
  9 11  1  0  0  0  0
  9 12  1  0  0  0  0
  9 26  1  0  0  0  0
 10 13  2  0  0  0  0
 10 15  1  0  0  0  0
 11 16  1  0  0  0  0
 11 20  1  0  0  0  0
 11 27  1  0  0  0  0
 12 14  2  0  0  0  0
 12 17  1  0  0  0  0
 13 18  1  0  0  0  0
 15 19  2  0  0  0  0
 15 28  1  0  0  0  0
 18 21  2  0  0  0  0
 18 29  1  0  0  0  0
 19 21  1  0  0  0  0
 21 30  1  0  0  0  0
 22 24  1  0  0  0  0
 22 33  1  0  0  0  0
 22 34  1  0  0  0  0
 23 25  1  0  0  0  0
 23 35  1  0  0  0  0
 23 36  1  0  0  0  0
 24 37  1  0  0  0  0
 24 38  1  0  0  0  0
 24 39  1  0  0  0  0
 25 40  1  0  0  0  0
 25 41  1  0  0  0  0
 25 42  1  0  0  0  0
M  END
> <PUBCHEM_COMPOUND_CID>
3549

> <PUBCHEM_COMPOUND_CANONICALIZED>
1

> <PUBCHEM_CACTVS_COMPLEXITY>
611

> <PUBCHEM_CACTVS_HBOND_ACCEPTOR>
7

> <PUBCHEM_CACTVS_HBOND_DONOR>
1

> <PUBCHEM_CACTVS_ROTATABLE_BOND>
7

> <PUBCHEM_CACTVS_SUBSKEYS>
AAADceB7OAAAEAAAAAAAAAAAAAAAAAAAAAAwQAAAAAAAAACBAAAAHgBQAAABrQShmAIyDoBABACYBiDSSAACCAAgIAQIiAEGCOkMpjKEMRqKMCAkwBEIql+I7uzOgBAAEAAIAAAAIAAgABAAAAAAAAAAAA==

> <PUBCHEM_IUPAC_OPENEYE_NAME>
ethyl 2-amino-6-bromo-4-(1-cyano-2-ethoxy-2-oxo-ethyl)-4H-chromene-3-carboxylate

> <PUBCHEM_IUPAC_CAS_NAME>
2-amino-6-bromo-4-(1-cyano-2-ethoxy-2-oxoethyl)-4H-1-benzopyran-3-carboxylic acid ethyl ester

> <PUBCHEM_IUPAC_NAME>
ethyl 2-amino-6-bromo-4-(1-cyano-2-ethoxy-2-oxoethyl)-4H-chromene-3-carboxylate

> <PUBCHEM_IUPAC_SYSTEMATIC_NAME>
ethyl 2-azanyl-6-bromanyl-4-(1-cyano-2-ethoxy-2-oxidanylidene-ethyl)-4H-chromene-3-carboxylate

> <PUBCHEM_IUPAC_TRADITIONAL_NAME>
2-amino-6-bromo-4-(1-cyano-2-ethoxy-2-keto-ethyl)-4H-chromene-3-carboxylic acid ethyl ester

> <PUBCHEM_IUPAC_INCHI>
InChI=1S/C17H17BrN2O5/c1-3-23-16(21)11(8-19)13-10-7-9(18)5-6-12(10)25-15(20)14(13)17(22)24-4-2/h5-7,11,13H,3-4,20H2,1-2H3

> <PUBCHEM_IUPAC_INCHIKEY>
SXJDCULZDFWMJC-UHFFFAOYSA-N

> <PUBCHEM_XLOGP3_AA>
3

> <PUBCHEM_EXACT_MASS>
408.032084

> <PUBCHEM_MOLECULAR_FORMULA>
C17H17BrN2O5

> <PUBCHEM_MOLECULAR_WEIGHT>
409.23128

> <PUBCHEM_OPENEYE_CAN_SMILES>
CCOC(=O)C1=C(OC2=C(C1C(C#N)C(=O)OCC)C=C(C=C2)Br)N

> <PUBCHEM_OPENEYE_ISO_SMILES>
CCOC(=O)C1=C(OC2=C(C1C(C#N)C(=O)OCC)C=C(C=C2)Br)N

> <PUBCHEM_CACTVS_TPSA>
112

> <PUBCHEM_MONOISOTOPIC_WEIGHT>
408.032084

> <PUBCHEM_TOTAL_CHARGE>
0

> <PUBCHEM_HEAVY_ATOM_COUNT>
25

> <PUBCHEM_ATOM_DEF_STEREO_COUNT>
0

> <PUBCHEM_ATOM_UDEF_STEREO_COUNT>
2

> <PUBCHEM_BOND_DEF_STEREO_COUNT>
0

> <PUBCHEM_BOND_UDEF_STEREO_COUNT>
0

> <PUBCHEM_ISOTOPIC_ATOM_COUNT>
0

> <PUBCHEM_COMPONENT_COUNT>
1

> <PUBCHEM_CACTVS_TAUTO_COUNT>
3

> <PUBCHEM_COORDINATE_TYPE>
1
5
255

> <PUBCHEM_BONDANNOTATIONS>
10  13  8
10  15  8
11  20  3
13  18  8
15  19  8
18  21  8
19  21  8
9  12  3

$$$$

