5281705
  -OEChem-07051212592D

 32 34  0     0  0  0  0  0  0999 V2000
    7.1962    2.2327    0.0000 O   0  0  0  0  0  0  0  0  0  0  0  0
    7.1962   -0.7673    0.0000 O   0  0  0  0  0  0  0  0  0  0  0  0
    2.8660   -1.2673    0.0000 O   0  0  0  0  0  0  0  0  0  0  0  0
   10.7263    2.2568    0.0000 O   0  0  0  0  0  0  0  0  0  0  0  0
    4.5981    1.7327    0.0000 O   0  0  0  0  0  0  0  0  0  0  0  0
    4.5981   -2.2673    0.0000 O   0  0  0  0  0  0  0  0  0  0  0  0
    6.3301    0.7327    0.0000 C   0  0  0  0  0  0  0  0  0  0  0  0
    8.0622    0.7327    0.0000 C   0  0  0  0  0  0  0  0  0  0  0  0
    5.4641    0.2327    0.0000 C   0  0  0  0  0  0  0  0  0  0  0  0
    7.1962    0.2327    0.0000 C   0  0  0  0  0  0  0  0  0  0  0  0
    8.0622    1.7327    0.0000 C   0  0  0  0  0  0  0  0  0  0  0  0
    6.3301    1.7327    0.0000 C   0  0  0  0  0  0  0  0  0  0  0  0
    8.9561    0.1980    0.0000 C   0  0  0  0  0  0  0  0  0  0  0  0
    4.5981    0.7327    0.0000 C   0  0  0  0  0  0  0  0  0  0  0  0
    5.4641   -0.7673    0.0000 C   0  0  0  0  0  0  0  0  0  0  0  0
    8.9561    2.2673    0.0000 C   0  0  0  0  0  0  0  0  0  0  0  0
    9.8622    1.7535    0.0000 C   0  0  0  0  0  0  0  0  0  0  0  0
    9.8622    0.7119    0.0000 C   0  0  0  0  0  0  0  0  0  0  0  0
    4.5981   -1.2673    0.0000 C   0  0  0  0  0  0  0  0  0  0  0  0
    3.7320    0.2327    0.0000 C   0  0  0  0  0  0  0  0  0  0  0  0
    3.7320   -0.7673    0.0000 C   0  0  0  0  0  0  0  0  0  0  0  0
    2.0000   -0.7673    0.0000 C   0  0  0  0  0  0  0  0  0  0  0  0
    5.7932    2.0427    0.0000 H   0  0  0  0  0  0  0  0  0  0  0  0
    8.9490   -0.4220    0.0000 H   0  0  0  0  0  0  0  0  0  0  0  0
    6.0010   -1.0773    0.0000 H   0  0  0  0  0  0  0  0  0  0  0  0
    8.9490    2.8873    0.0000 H   0  0  0  0  0  0  0  0  0  0  0  0
   10.3979    0.3998    0.0000 H   0  0  0  0  0  0  0  0  0  0  0  0
    3.1951    0.5427    0.0000 H   0  0  0  0  0  0  0  0  0  0  0  0
   11.2644    1.9489    0.0000 H   0  0  0  0  0  0  0  0  0  0  0  0
    2.3100   -0.2304    0.0000 H   0  0  0  0  0  0  0  0  0  0  0  0
    1.4631   -0.4573    0.0000 H   0  0  0  0  0  0  0  0  0  0  0  0
    1.6900   -1.3043    0.0000 H   0  0  0  0  0  0  0  0  0  0  0  0
  1 11  1  0  0  0  0
  1 12  1  0  0  0  0
  2 10  2  0  0  0  0
  3 21  1  0  0  0  0
  3 22  1  0  0  0  0
  4 17  1  0  0  0  0
  4 29  1  0  0  0  0
  5 14  2  0  0  0  0
  6 19  2  0  0  0  0
  7  9  1  0  0  0  0
  7 10  1  0  0  0  0
  7 12  2  0  0  0  0
  8 10  1  0  0  0  0
  8 11  2  0  0  0  0
  8 13  1  0  0  0  0
  9 14  1  0  0  0  0
  9 15  2  0  0  0  0
 11 16  1  0  0  0  0
 12 23  1  0  0  0  0
 13 18  2  0  0  0  0
 13 24  1  0  0  0  0
 14 20  1  0  0  0  0
 15 19  1  0  0  0  0
 15 25  1  0  0  0  0
 16 17  2  0  0  0  0
 16 26  1  0  0  0  0
 17 18  1  0  0  0  0
 18 27  1  0  0  0  0
 19 21  1  0  0  0  0
 20 21  2  0  0  0  0
 20 28  1  0  0  0  0
 22 30  1  0  0  0  0
 22 31  1  0  0  0  0
 22 32  1  0  0  0  0
M  END
> <PUBCHEM_COMPOUND_CID>
5281705

> <PUBCHEM_COMPOUND_CANONICALIZED>
1

> <PUBCHEM_CACTVS_COMPLEXITY>
639

> <PUBCHEM_CACTVS_HBOND_ACCEPTOR>
6

> <PUBCHEM_CACTVS_HBOND_DONOR>
1

> <PUBCHEM_CACTVS_ROTATABLE_BOND>
2

> <PUBCHEM_CACTVS_SUBSKEYS>
AAADccB4OAAAAAAAAAAAAAAAAAAAAAAAAAAwQIAAAAAAAACBAAAAGgAACAAADASgmAIyBoAABgCIAqBSAAICCAAkIAAIiAFGCMgMJzaGNR6AcWAl4BUIuYeJ7OzOIAAACAAIAABAAAAQABAAAAAAAAAAAA==

> <PUBCHEM_IUPAC_OPENEYE_NAME>
2-(7-hydroxy-4-oxo-chromen-3-yl)-5-methoxy-1,4-benzoquinone

> <PUBCHEM_IUPAC_CAS_NAME>
2-(7-hydroxy-4-oxo-1-benzopyran-3-yl)-5-methoxycyclohexa-2,5-diene-1,4-dione

> <PUBCHEM_IUPAC_NAME>
2-(7-hydroxy-4-oxochromen-3-yl)-5-methoxycyclohexa-2,5-diene-1,4-dione

> <PUBCHEM_IUPAC_SYSTEMATIC_NAME>
2-methoxy-5-(7-oxidanyl-4-oxidanylidene-chromen-3-yl)cyclohexa-2,5-diene-1,4-dione

> <PUBCHEM_IUPAC_TRADITIONAL_NAME>
2-(7-hydroxy-4-keto-chromen-3-yl)-5-methoxy-p-benzoquinone

> <PUBCHEM_IUPAC_INCHI>
InChI=1S/C16H10O6/c1-21-15-6-12(18)10(5-13(15)19)11-7-22-14-4-8(17)2-3-9(14)16(11)20/h2-7,17H,1H3

> <PUBCHEM_IUPAC_INCHIKEY>
GCAIEHBYLQNGAF-UHFFFAOYSA-N

> <PUBCHEM_XLOGP3_AA>
1.1

> <PUBCHEM_EXACT_MASS>
298.047738

> <PUBCHEM_MOLECULAR_FORMULA>
C16H10O6

> <PUBCHEM_MOLECULAR_WEIGHT>
298.247

> <PUBCHEM_OPENEYE_CAN_SMILES>
COC1=CC(=O)C(=CC1=O)C2=COC3=C(C2=O)C=CC(=C3)O

> <PUBCHEM_OPENEYE_ISO_SMILES>
COC1=CC(=O)C(=CC1=O)C2=COC3=C(C2=O)C=CC(=C3)O

> <PUBCHEM_CACTVS_TPSA>
89.9

> <PUBCHEM_MONOISOTOPIC_WEIGHT>
298.047738

> <PUBCHEM_TOTAL_CHARGE>
0

> <PUBCHEM_HEAVY_ATOM_COUNT>
22

> <PUBCHEM_ATOM_DEF_STEREO_COUNT>
0

> <PUBCHEM_ATOM_UDEF_STEREO_COUNT>
0

> <PUBCHEM_BOND_DEF_STEREO_COUNT>
0

> <PUBCHEM_BOND_UDEF_STEREO_COUNT>
0

> <PUBCHEM_ISOTOPIC_ATOM_COUNT>
0

> <PUBCHEM_COMPONENT_COUNT>
1

> <PUBCHEM_CACTVS_TAUTO_COUNT>
5

> <PUBCHEM_COORDINATE_TYPE>
1
5
255

> <PUBCHEM_BONDANNOTATIONS>
1  11  8
1  12  8
11  16  8
13  18  8
16  17  8
17  18  8
7  10  8
7  12  8
8  10  8
8  11  8
8  13  8

$$$$

