   Color/Form
        NEEDLES FROM DIL ALCOHOL
   from [1]HSDB

   Boiling Point
        363 DEG C
   from [2]HSDB

   Melting Point
        45 DEG C
   from [3]HSDB

   Solubilities

     * VERY SLIGHTLY SOL IN ALCOHOL OR ETHER
     * INSOL IN WATER

   from [4]HSDB

   Spectral Properties

     * MAX ABSORPTION (ALCOHOL): 235 NM (LOG E= 4.2); 300 NM (LOG E= 3.9)
     * UV: 2-307 (Organic Electronic Spectral Data, Phillips et al, John
       Wiley & Sons, New York)

   from [5]HSDB

   Computed Properties
   Molecular Weight                  184.23708 [g/mol]
   Molecular Formula                 C[12]H[12]N[2]
   XLogP3                            2.2
   H-Bond Donor                      2
   H-Bond Acceptor                   2
   Rotatable Bond Count              1
   Exact Mass                        184.100048
   MonoIsotopic Mass                 184.100048
   Topological Polar Surface Area    52
   Heavy Atom Count                  14
   Formal Charge                     0
   Complexity                        173
   Isotope Atom Count                0
   Defined Atom Stereocenter Count   0
   Undefined Atom Stereocenter Count 0
   Defined Bond Stereocenter Count   0
   Undefined Bond Stereocenter Count 0
   Covalently-Bonded Unit Count      1
   Feature 3D Donor Count            2
   Feature 3D Cation Count           2
   Feature 3D Ring Count             2
   Effective Rotor Count             1
   Conformer Sampling RMSD           0.4
   CID Conformer Count               [6]2

References

   1. http://toxnet.nlm.nih.gov/cgi-bin/sis/search/r?dbs+hsdb:@term+@rn+@rel+492-17-1
   2. http://toxnet.nlm.nih.gov/cgi-bin/sis/search/r?dbs+hsdb:@term+@rn+@rel+492-17-1
   3. http://toxnet.nlm.nih.gov/cgi-bin/sis/search/r?dbs+hsdb:@term+@rn+@rel+492-17-1
   4. http://toxnet.nlm.nih.gov/cgi-bin/sis/search/r?dbs+hsdb:@term+@rn+@rel+492-17-1
   5. http://toxnet.nlm.nih.gov/cgi-bin/sis/search/r?dbs+hsdb:@term+@rn+@rel+492-17-1
   6. http://pubchem.ncbi.nlm.nih.gov/vw3d/vw3d.cgi?cid=10292
