4893
  -OEChem-06261200242D

 49 52  0     0  0  0  0  0  0999 V2000
    4.4487    2.9050    0.0000 O   0  0  0  0  0  0  0  0  0  0  0  0
    3.4782    0.4105    0.0000 O   0  0  0  0  0  0  0  0  0  0  0  0
   12.3090    0.4292    0.0000 O   0  0  0  0  0  0  0  0  0  0  0  0
   12.3090   -1.6192    0.0000 O   0  0  0  0  0  0  0  0  0  0  0  0
    7.0468    0.4050    0.0000 N   0  0  0  0  0  0  0  0  0  0  0  0
    5.3147    1.4050    0.0000 N   0  0  0  0  0  0  0  0  0  0  0  0
    8.7788    0.4050    0.0000 N   0  0  0  0  0  0  0  0  0  0  0  0
    7.9128   -1.0950    0.0000 N   0  0  0  0  0  0  0  0  0  0  0  0
    8.7788   -2.5950    0.0000 N   0  0  0  0  0  0  0  0  0  0  0  0
    7.0468    1.4050    0.0000 C   0  0  0  0  0  0  0  0  0  0  0  0
    6.1808   -0.0950    0.0000 C   0  0  0  0  0  0  0  0  0  0  0  0
    5.3147    0.4050    0.0000 C   0  0  0  0  0  0  0  0  0  0  0  0
    6.1808    1.9050    0.0000 C   0  0  0  0  0  0  0  0  0  0  0  0
    7.9128   -0.0950    0.0000 C   0  0  0  0  0  0  0  0  0  0  0  0
    4.4487    1.9050    0.0000 C   0  0  0  0  0  0  0  0  0  0  0  0
    9.6448   -0.0950    0.0000 C   0  0  0  0  0  0  0  0  0  0  0  0
    3.5827    1.4050    0.0000 C   0  0  0  0  0  0  0  0  0  0  0  0
    9.6448   -1.0950    0.0000 C   0  0  0  0  0  0  0  0  0  0  0  0
    8.7788   -1.5950    0.0000 C   0  0  0  0  0  0  0  0  0  0  0  0
   10.5388    0.4397    0.0000 C   0  0  0  0  0  0  0  0  0  0  0  0
   10.5388   -1.6297    0.0000 C   0  0  0  0  0  0  0  0  0  0  0  0
    2.6691    1.8117    0.0000 C   0  0  0  0  0  0  0  0  0  0  0  0
   11.4449   -0.0742    0.0000 C   0  0  0  0  0  0  0  0  0  0  0  0
   11.4449   -1.1158    0.0000 C   0  0  0  0  0  0  0  0  0  0  0  0
    2.0000    1.0686    0.0000 C   0  0  0  0  0  0  0  0  0  0  0  0
    2.5000    0.2026    0.0000 C   0  0  0  0  0  0  0  0  0  0  0  0
   12.3051    1.4291    0.0000 C   0  0  0  0  0  0  0  0  0  0  0  0
   13.1769   -1.1225    0.0000 C   0  0  0  0  0  0  0  0  0  0  0  0
    7.6574    1.2973    0.0000 H   0  0  0  0  0  0  0  0  0  0  0  0
    7.2588    1.9876    0.0000 H   0  0  0  0  0  0  0  0  0  0  0  0
    5.7822   -0.5699    0.0000 H   0  0  0  0  0  0  0  0  0  0  0  0
    6.5793   -0.5699    0.0000 H   0  0  0  0  0  0  0  0  0  0  0  0
    6.5793    2.3800    0.0000 H   0  0  0  0  0  0  0  0  0  0  0  0
    5.7822    2.3800    0.0000 H   0  0  0  0  0  0  0  0  0  0  0  0
    4.7042    0.5127    0.0000 H   0  0  0  0  0  0  0  0  0  0  0  0
    5.1027   -0.1776    0.0000 H   0  0  0  0  0  0  0  0  0  0  0  0
   10.5316    1.0596    0.0000 H   0  0  0  0  0  0  0  0  0  0  0  0
   10.5316   -2.2496    0.0000 H   0  0  0  0  0  0  0  0  0  0  0  0
    2.5402    2.4182    0.0000 H   0  0  0  0  0  0  0  0  0  0  0  0
    8.2419   -2.9050    0.0000 H   0  0  0  0  0  0  0  0  0  0  0  0
    9.3158   -2.9050    0.0000 H   0  0  0  0  0  0  0  0  0  0  0  0
    1.3834    1.1334    0.0000 H   0  0  0  0  0  0  0  0  0  0  0  0
    2.2478   -0.3638    0.0000 H   0  0  0  0  0  0  0  0  0  0  0  0
   12.9251    1.4315    0.0000 H   0  0  0  0  0  0  0  0  0  0  0  0
   12.3027    2.0491    0.0000 H   0  0  0  0  0  0  0  0  0  0  0  0
   11.6851    1.4268    0.0000 H   0  0  0  0  0  0  0  0  0  0  0  0
   13.4848   -1.6606    0.0000 H   0  0  0  0  0  0  0  0  0  0  0  0
   13.7150   -0.8146    0.0000 H   0  0  0  0  0  0  0  0  0  0  0  0
   12.8690   -0.5844    0.0000 H   0  0  0  0  0  0  0  0  0  0  0  0
  1 15  2  0  0  0  0
  2 17  1  0  0  0  0
  2 26  1  0  0  0  0
  3 23  1  0  0  0  0
  3 27  1  0  0  0  0
  4 24  1  0  0  0  0
  4 28  1  0  0  0  0
  5 10  1  0  0  0  0
  5 11  1  0  0  0  0
  5 14  1  0  0  0  0
  6 12  1  0  0  0  0
  6 13  1  0  0  0  0
  6 15  1  0  0  0  0
  7 14  2  0  0  0  0
  7 16  1  0  0  0  0
  8 14  1  0  0  0  0
  8 19  2  0  0  0  0
  9 19  1  0  0  0  0
  9 40  1  0  0  0  0
  9 41  1  0  0  0  0
 10 13  1  0  0  0  0
 10 29  1  0  0  0  0
 10 30  1  0  0  0  0
 11 12  1  0  0  0  0
 11 31  1  0  0  0  0
 11 32  1  0  0  0  0
 12 35  1  0  0  0  0
 12 36  1  0  0  0  0
 13 33  1  0  0  0  0
 13 34  1  0  0  0  0
 15 17  1  0  0  0  0
 16 18  1  0  0  0  0
 16 20  2  0  0  0  0
 17 22  2  0  0  0  0
 18 19  1  0  0  0  0
 18 21  2  0  0  0  0
 20 23  1  0  0  0  0
 20 37  1  0  0  0  0
 21 24  1  0  0  0  0
 21 38  1  0  0  0  0
 22 25  1  0  0  0  0
 22 39  1  0  0  0  0
 23 24  2  0  0  0  0
 25 26  2  0  0  0  0
 25 42  1  0  0  0  0
 26 43  1  0  0  0  0
 27 44  1  0  0  0  0
 27 45  1  0  0  0  0
 27 46  1  0  0  0  0
 28 47  1  0  0  0  0
 28 48  1  0  0  0  0
 28 49  1  0  0  0  0
M  END
> <PUBCHEM_COMPOUND_CID>
4893

> <PUBCHEM_COMPOUND_CANONICALIZED>
1

> <PUBCHEM_CACTVS_COMPLEXITY>
544

> <PUBCHEM_CACTVS_HBOND_ACCEPTOR>
8

> <PUBCHEM_CACTVS_HBOND_DONOR>
1

> <PUBCHEM_CACTVS_ROTATABLE_BOND>
4

> <PUBCHEM_CACTVS_SUBSKEYS>
AAADceB7uAAAAAAAAAAAAAAAAAAAASAAAAA8WIAAAAAAAACx/AAAHgAQAAAADAzhngYz9vdIFECoA69y9AKCiCklIqAJmCH+7NiPbrLE/f+XPSruxhva6ae41xMOIEABAgACQABAgAIEAASAAAAAAAAAAA==

> <PUBCHEM_IUPAC_OPENEYE_NAME>
[4-(4-amino-6,7-dimethoxy-quinazolin-2-yl)piperazin-1-yl]-(2-furyl)methanone

> <PUBCHEM_IUPAC_CAS_NAME>
[4-(4-amino-6,7-dimethoxy-2-quinazolinyl)-1-piperazinyl]-(2-furanyl)methanone

> <PUBCHEM_IUPAC_NAME>
[4-(4-amino-6,7-dimethoxyquinazolin-2-yl)piperazin-1-yl]-(furan-2-yl)methanone

> <PUBCHEM_IUPAC_SYSTEMATIC_NAME>
[4-(4-azanyl-6,7-dimethoxy-quinazolin-2-yl)piperazin-1-yl]-(furan-2-yl)methanone

> <PUBCHEM_IUPAC_TRADITIONAL_NAME>
[4-(4-amino-6,7-dimethoxy-quinazolin-2-yl)piperazino]-(2-furyl)methanone

> <PUBCHEM_IUPAC_INCHI>
InChI=1S/C19H21N5O4/c1-26-15-10-12-13(11-16(15)27-2)21-19(22-17(12)20)24-7-5-23(6-8-24)18(25)14-4-3-9-28-14/h3-4,9-11H,5-8H2,1-2H3,(H2,20,21,22)

> <PUBCHEM_IUPAC_INCHIKEY>
IENZQIKPVFGBNW-UHFFFAOYSA-N

> <PUBCHEM_XLOGP3>
2

> <PUBCHEM_EXACT_MASS>
383.159354

> <PUBCHEM_MOLECULAR_FORMULA>
C19H21N5O4

> <PUBCHEM_MOLECULAR_WEIGHT>
383.40114

> <PUBCHEM_OPENEYE_CAN_SMILES>
COC1=C(C=C2C(=C1)C(=NC(=N2)N3CCN(CC3)C(=O)C4=CC=CO4)N)OC

> <PUBCHEM_OPENEYE_ISO_SMILES>
COC1=C(C=C2C(=C1)C(=NC(=N2)N3CCN(CC3)C(=O)C4=CC=CO4)N)OC

> <PUBCHEM_CACTVS_TPSA>
107

> <PUBCHEM_MONOISOTOPIC_WEIGHT>
383.159354

> <PUBCHEM_TOTAL_CHARGE>
0

> <PUBCHEM_HEAVY_ATOM_COUNT>
28

> <PUBCHEM_ATOM_DEF_STEREO_COUNT>
0

> <PUBCHEM_ATOM_UDEF_STEREO_COUNT>
0

> <PUBCHEM_BOND_DEF_STEREO_COUNT>
0

> <PUBCHEM_BOND_UDEF_STEREO_COUNT>
0

> <PUBCHEM_ISOTOPIC_ATOM_COUNT>
0

> <PUBCHEM_COMPONENT_COUNT>
1

> <PUBCHEM_CACTVS_TAUTO_COUNT>
3

> <PUBCHEM_COORDINATE_TYPE>
1
5
255

> <PUBCHEM_BONDANNOTATIONS>
16  18  8
16  20  8
17  22  8
18  19  8
18  21  8
2  17  8
2  26  8
20  23  8
21  24  8
22  25  8
23  24  8
25  26  8
7  14  8
7  16  8
8  14  8
8  19  8

$$$$

