   Color/Form
        Crystals from petroleum ether
   from [1]HSDB

   Melting Point
        96.6 deg C
   from [2]HSDB

   Octanol/Water Partition Coefficient
        log Kow= 3.45
   from [3]HSDB

   Solubilities

     * Water solubility= 76 mg/l at 25 deg C [Roy SD, Flynn GL;
       Pharmaceutical Research 5: 580-6 (1988)] [4]PubMed Abstract
     * Water solubility= 3,930 mg/L at pH 5.31 and 3.3 mg/L at pH 7.98 @
       35 deg C.

   from [5]HSDB

   Vapor Pressure
        6.14X10-13 mm Hg @ 25 deg C
   from [6]HSDB

   Other Chemical/Physical Properties

     * pKa= 8.01 /Sufentanil citrate/
     * White, crystalline powder /Sufentanil citrate/
     * Water Solubility= 46 mg/ml /Sufentanil citrate/
     * Solubility in alcohol= 21 mg/ml /Sufentanil citrate/
     * Henry's Law constant: 4.11X10-15 atm-cu m/mol at 25 deg C (est)

   from [7]HSDB

   Computed Properties
   Molecular Weight                  386.5508 [g/mol]
   Molecular Formula                 C[22]H[30]N[2]O[2]S
   XLogP3                            4
   H-Bond Donor                      0
   H-Bond Acceptor                   4
   Rotatable Bond Count              8
   Exact Mass                        386.202799
   MonoIsotopic Mass                 386.202799
   Topological Polar Surface Area    61
   Heavy Atom Count                  27
   Formal Charge                     0
   Complexity                        459
   Isotope Atom Count                0
   Defined Atom Stereocenter Count   0
   Undefined Atom Stereocenter Count 0
   Defined Bond Stereocenter Count   0
   Undefined Bond Stereocenter Count 0
   Covalently-Bonded Unit Count      1
   Feature 3D Acceptor Count         2
   Feature 3D Cation Count           1
   Feature 3D Hydrophobe Count       1
   Feature 3D Ring Count             3
   Effective Rotor Count             10.2
   Conformer Sampling RMSD           1
   CID Conformer Count               [8]36

References

   1. http://toxnet.nlm.nih.gov/cgi-bin/sis/search/r?dbs+hsdb:@term+@rn+@rel+56030-54-7
   2. http://toxnet.nlm.nih.gov/cgi-bin/sis/search/r?dbs+hsdb:@term+@rn+@rel+56030-54-7
   3. http://toxnet.nlm.nih.gov/cgi-bin/sis/search/r?dbs+hsdb:@term+@rn+@rel+56030-54-7
   4. http://www.ncbi.nlm.nih.gov/entrez/query.fcgi?cmd=Retrieve&db=pubmed&dopt=Abstract&list_uids=2907788
   5. http://toxnet.nlm.nih.gov/cgi-bin/sis/search/r?dbs+hsdb:@term+@rn+@rel+56030-54-7
   6. http://toxnet.nlm.nih.gov/cgi-bin/sis/search/r?dbs+hsdb:@term+@rn+@rel+56030-54-7
   7. http://toxnet.nlm.nih.gov/cgi-bin/sis/search/r?dbs+hsdb:@term+@rn+@rel+56030-54-7
   8. http://pubchem.ncbi.nlm.nih.gov/vw3d/vw3d.cgi?cid=41693
