   Color/Form

     * WHITE SOLID
     * Colorless crystals; (tech., beige to brown flakes)

   from [1]HSDB

   Boiling Point
        >280 deg C
   from [2]HSDB

   Melting Point
        100 deg C; (technical 95-100 deg C)
   from [3]HSDB

   Corrosivity
        Noncorrosive
   from [4]HSDB

   Dissociation Constants
        pKa = 4.84
   from [5]HSDB

   Octanol/Water Partition Coefficient
        log Kow = 2.79 (unstated pH)
   from [6]HSDB

   pH
        Acid
   from [7]HSDB

   Solubilities

     * SLIGHTLY SOL IN CARBON TETRACHLORIDE OR BENZENE; SOL IN ... ETHER
     * SLIGHTLY SOL IN PETROLEUM OILS
     * In water, 48 mg/L at 25 deg C
     * In acetone 313, dichloromethane 169, ethanol 150, hexane 0.26,
       toluene 8 (all in g/L, room temperature)

   from [8]HSDB

   Spectral Properties
        Intense mass spectral peaks: 107 m/z, 142 m/z, 169 m/z, 228 m/z
   from [9]HSDB

   Vapor Pressure
        4.3X10-7 mm Hg at 20 deg C
   from [10]HSDB

   Other Chemical/Physical Properties

     * Form water-sol alkali metal and amine salts, though precipitation
       occurs with hard water
     * MP: 99-100 deg C /Technical, about 90% pure/
     * VP: Less than 1X10-7 mbar at 20 deg C. /MCPB salts/
     * Non-corrosive to metals /MCPB salts/
     * Henry's Law constant = 2.74X10-9 atm-cu m/mole at 25 deg C (est)
     * Hydroxyl radical reaction rate constant = 2.02X10-11 cu
       cm/molec-sec at 25 deg C (est)

   from [11]HSDB

   Computed Properties
   Molecular Weight                  228.67212 [g/mol]
   Molecular Formula                 C[11]H[13]ClO[3]
   XLogP3                            3.6
   H-Bond Donor                      1
   H-Bond Acceptor                   3
   Rotatable Bond Count              5
   Exact Mass                        228.055322
   MonoIsotopic Mass                 228.055322
   Topological Polar Surface Area    46.5
   Heavy Atom Count                  15
   Formal Charge                     0
   Complexity                        208
   Isotope Atom Count                0
   Defined Atom Stereocenter Count   0
   Undefined Atom Stereocenter Count 0
   Defined Bond Stereocenter Count   0
   Undefined Bond Stereocenter Count 0
   Covalently-Bonded Unit Count      1
   Feature 3D Acceptor Count         3
   Feature 3D Anion Count            1
   Feature 3D Ring Count             1
   Effective Rotor Count             5
   Conformer Sampling RMSD           0.6
   CID Conformer Count               [12]142

References

   1. http://toxnet.nlm.nih.gov/cgi-bin/sis/search/r?dbs+hsdb:@term+@rn+@rel+94-81-5
   2. http://toxnet.nlm.nih.gov/cgi-bin/sis/search/r?dbs+hsdb:@term+@rn+@rel+94-81-5
   3. http://toxnet.nlm.nih.gov/cgi-bin/sis/search/r?dbs+hsdb:@term+@rn+@rel+94-81-5
   4. http://toxnet.nlm.nih.gov/cgi-bin/sis/search/r?dbs+hsdb:@term+@rn+@rel+94-81-5
   5. http://toxnet.nlm.nih.gov/cgi-bin/sis/search/r?dbs+hsdb:@term+@rn+@rel+94-81-5
   6. http://toxnet.nlm.nih.gov/cgi-bin/sis/search/r?dbs+hsdb:@term+@rn+@rel+94-81-5
   7. http://toxnet.nlm.nih.gov/cgi-bin/sis/search/r?dbs+hsdb:@term+@rn+@rel+94-81-5
   8. http://toxnet.nlm.nih.gov/cgi-bin/sis/search/r?dbs+hsdb:@term+@rn+@rel+94-81-5
   9. http://toxnet.nlm.nih.gov/cgi-bin/sis/search/r?dbs+hsdb:@term+@rn+@rel+94-81-5
  10. http://toxnet.nlm.nih.gov/cgi-bin/sis/search/r?dbs+hsdb:@term+@rn+@rel+94-81-5
  11. http://toxnet.nlm.nih.gov/cgi-bin/sis/search/r?dbs+hsdb:@term+@rn+@rel+94-81-5
  12. http://pubchem.ncbi.nlm.nih.gov/vw3d/vw3d.cgi?cid=7207
