5281401
  -OEChem-07051212572D

 95104  0     1  0  0  0  0  0999 V2000
    6.6352    0.6425    0.0000 O   0  0  0  0  0  0  0  0  0  0  0  0
    4.0114    3.1725    0.0000 O   0  0  0  0  0  0  0  0  0  0  0  0
    3.9060    1.8912    0.0000 O   0  0  0  0  0  0  0  0  0  0  0  0
    3.3369   -2.2293    0.0000 N   0  0  3  0  0  0  0  0  0  0  0  0
    4.9022    0.4819    0.0000 N   0  0  3  0  0  0  0  0  0  0  0  0
    8.1495    3.8050    0.0000 N   0  0  3  0  0  0  0  0  0  0  0  0
    9.4392    1.4379    0.0000 N   0  0  0  0  0  0  0  0  0  0  0  0
    4.2620   -0.9560    0.0000 C   0  0  2  0  0  0  0  0  0  0  0  0
    5.1045   -0.4696    0.0000 C   0  0  2  0  0  0  0  0  0  0  0  0
    4.2620   -1.9287    0.0000 C   0  0  2  0  0  0  0  0  0  0  0  0
    5.9469   -0.9560    0.0000 C   0  0  2  0  0  0  0  0  0  0  0  0
    5.9469   -1.9287    0.0000 C   0  0  1  0  0  0  0  0  0  0  0  0
    5.1045   -2.4151    0.0000 C   0  0  0  0  0  0  0  0  0  0  0  0
    3.3369   -0.6554    0.0000 C   0  0  0  0  0  0  0  0  0  0  0  0
    5.3422   -2.9771    0.0000 C   0  0  1  0  0  0  0  0  0  0  0  0
    3.5392   -0.3051    0.0000 C   0  0  0  0  0  0  0  0  0  0  0  0
    2.7652   -1.4423    0.0000 C   0  0  0  0  0  0  0  0  0  0  0  0
    4.1101   -2.9771    0.0000 C   0  0  0  0  0  0  0  0  0  0  0  0
    6.7459   -0.3526    0.0000 C   0  0  0  0  0  0  0  0  0  0  0  0
    3.9348    0.5836    0.0000 C   0  0  0  0  0  0  0  0  0  0  0  0
    5.7230    1.0554    0.0000 C   0  0  2  0  0  0  0  0  0  0  0  0
    5.8422   -3.8431    0.0000 C   0  0  0  0  0  0  0  0  0  0  0  0
    5.6307    2.0511    0.0000 C   0  0  1  0  0  0  0  0  0  0  0  0
    2.5718   -0.4068    0.0000 C   0  0  0  0  0  0  0  0  0  0  0  0
    3.3630    1.3705    0.0000 C   0  0  0  0  0  0  0  0  0  0  0  0
    6.4468    2.6289    0.0000 C   0  0  1  0  0  0  0  0  0  0  0  0
    5.3422   -4.7092    0.0000 C   0  0  0  0  0  0  0  0  0  0  0  0
    2.0000    0.3802    0.0000 C   0  0  0  0  0  0  0  0  0  0  0  0
    2.3956    1.2688    0.0000 C   0  0  0  0  0  0  0  0  0  0  0  0
    4.7222    2.4690    0.0000 C   0  0  0  0  0  0  0  0  0  0  0  0
    7.3948    2.1972    0.0000 C   0  0  0  0  0  0  0  0  0  0  0  0
    6.3547    3.6664    0.0000 C   0  0  0  0  0  0  0  0  0  0  0  0
    8.2380    2.8089    0.0000 C   0  0  1  0  0  0  0  0  0  0  0  0
    7.2118    4.2584    0.0000 C   0  0  0  0  0  0  0  0  0  0  0  0
    9.1448    2.3874    0.0000 C   0  0  0  0  0  0  0  0  0  0  0  0
    5.4495    4.0914    0.0000 C   0  0  0  0  0  0  0  0  0  0  0  0
    8.9679    4.3796    0.0000 C   0  0  0  0  0  0  0  0  0  0  0  0
    9.9632    2.9621    0.0000 C   0  0  0  0  0  0  0  0  0  0  0  0
    9.8748    3.9582    0.0000 C   0  0  0  0  0  0  0  0  0  0  0  0
    3.0469    2.9087    0.0000 C   0  0  0  0  0  0  0  0  0  0  0  0
    4.4535    4.1811    0.0000 C   0  0  0  0  0  0  0  0  0  0  0  0
   10.7564    2.3628    0.0000 C   0  0  0  0  0  0  0  0  0  0  0  0
   10.4331    1.4228    0.0000 C   0  0  0  0  0  0  0  0  0  0  0  0
   11.7695    2.5765    0.0000 C   0  0  0  0  0  0  0  0  0  0  0  0
   11.1007    0.6312    0.0000 C   0  0  0  0  0  0  0  0  0  0  0  0
   12.4552    1.8006    0.0000 C   0  0  0  0  0  0  0  0  0  0  0  0
   12.1185    0.8214    0.0000 C   0  0  0  0  0  0  0  0  0  0  0  0
    5.7921    0.0300    0.0000 H   0  0  0  0  0  0  0  0  0  0  0  0
    3.7928   -2.6374    0.0000 H   0  0  0  0  0  0  0  0  0  0  0  0
    6.7078   -1.3349    0.0000 H   0  0  0  0  0  0  0  0  0  0  0  0
    6.7680   -2.1485    0.0000 H   0  0  0  0  0  0  0  0  0  0  0  0
    4.7059   -2.8900    0.0000 H   0  0  0  0  0  0  0  0  0  0  0  0
    5.5030   -2.8900    0.0000 H   0  0  0  0  0  0  0  0  0  0  0  0
    3.5891   -0.0890    0.0000 H   0  0  0  0  0  0  0  0  0  0  0  0
    2.8000   -0.3454    0.0000 H   0  0  0  0  0  0  0  0  0  0  0  0
    5.9622   -2.9770    0.0000 H   0  0  0  0  0  0  0  0  0  0  0  0
    2.3044   -1.0275    0.0000 H   0  0  0  0  0  0  0  0  0  0  0  0
    2.3044   -1.8572    0.0000 H   0  0  0  0  0  0  0  0  0  0  0  0
    3.5767   -3.2930    0.0000 H   0  0  0  0  0  0  0  0  0  0  0  0
    4.2739   -3.5751    0.0000 H   0  0  0  0  0  0  0  0  0  0  0  0
    7.0257   -0.9059    0.0000 H   0  0  0  0  0  0  0  0  0  0  0  0
    7.3401   -0.1756    0.0000 H   0  0  0  0  0  0  0  0  0  0  0  0
    6.4152    1.5486    0.0000 H   0  0  0  0  0  0  0  0  0  0  0  0
    6.3172   -4.2416    0.0000 H   0  0  0  0  0  0  0  0  0  0  0  0
    6.3172   -3.4446    0.0000 H   0  0  0  0  0  0  0  0  0  0  0  0
    5.1246    1.6929    0.0000 H   0  0  0  0  0  0  0  0  0  0  0  0
    2.3196   -0.9732    0.0000 H   0  0  0  0  0  0  0  0  0  0  0  0
    3.6152    1.9369    0.0000 H   0  0  0  0  0  0  0  0  0  0  0  0
    6.5269    1.7827    0.0000 H   0  0  0  0  0  0  0  0  0  0  0  0
    4.8053   -4.3992    0.0000 H   0  0  0  0  0  0  0  0  0  0  0  0
    5.0322   -5.2461    0.0000 H   0  0  0  0  0  0  0  0  0  0  0  0
    5.8792   -5.0192    0.0000 H   0  0  0  0  0  0  0  0  0  0  0  0
    1.3834    0.3154    0.0000 H   0  0  0  0  0  0  0  0  0  0  0  0
    2.0312    1.7704    0.0000 H   0  0  0  0  0  0  0  0  0  0  0  0
    7.0451    1.6853    0.0000 H   0  0  0  0  0  0  0  0  0  0  0  0
    7.8394    1.7651    0.0000 H   0  0  0  0  0  0  0  0  0  0  0  0
    8.3197    1.9628    0.0000 H   0  0  0  0  0  0  0  0  0  0  0  0
    7.5732    4.7622    0.0000 H   0  0  0  0  0  0  0  0  0  0  0  0
    6.7773    4.7008    0.0000 H   0  0  0  0  0  0  0  0  0  0  0  0
    5.3970    4.7092    0.0000 H   0  0  0  0  0  0  0  0  0  0  0  0
    9.3228    4.8879    0.0000 H   0  0  0  0  0  0  0  0  0  0  0  0
    8.5289    4.8174    0.0000 H   0  0  0  0  0  0  0  0  0  0  0  0
   10.4925    3.9049    0.0000 H   0  0  0  0  0  0  0  0  0  0  0  0
   10.0344    4.5572    0.0000 H   0  0  0  0  0  0  0  0  0  0  0  0
    9.0676    0.9417    0.0000 H   0  0  0  0  0  0  0  0  0  0  0  0
    2.8833    3.5067    0.0000 H   0  0  0  0  0  0  0  0  0  0  0  0
    2.4488    2.7451    0.0000 H   0  0  0  0  0  0  0  0  0  0  0  0
    3.2104    2.3106    0.0000 H   0  0  0  0  0  0  0  0  0  0  0  0
    4.5091    4.7986    0.0000 H   0  0  0  0  0  0  0  0  0  0  0  0
    3.8360    4.2367    0.0000 H   0  0  0  0  0  0  0  0  0  0  0  0
    4.3979    3.5636    0.0000 H   0  0  0  0  0  0  0  0  0  0  0  0
   11.9643    3.1651    0.0000 H   0  0  0  0  0  0  0  0  0  0  0  0
   10.8923    0.0473    0.0000 H   0  0  0  0  0  0  0  0  0  0  0  0
   13.0633    1.9215    0.0000 H   0  0  0  0  0  0  0  0  0  0  0  0
   12.5237    0.3521    0.0000 H   0  0  0  0  0  0  0  0  0  0  0  0
  1 19  1  0  0  0  0
  1 21  1  0  0  0  0
  2 30  1  0  0  0  0
  2 40  1  0  0  0  0
  3 30  2  0  0  0  0
  4 10  1  0  0  0  0
  4 17  1  0  0  0  0
  4 18  1  0  0  0  0
  5  9  1  0  0  0  0
  5 20  1  0  0  0  0
  5 21  1  0  0  0  0
  6 33  1  0  0  0  0
  6 34  1  0  0  0  0
  6 37  1  0  0  0  0
  7 35  1  0  0  0  0
  7 43  1  0  0  0  0
  7 85  1  0  0  0  0
  8  9  1  0  0  0  0
  8 10  1  0  0  0  0
  8 14  1  6  0  0  0
  8 16  1  0  0  0  0
  9 11  1  0  0  0  0
  9 48  1  6  0  0  0
 10 13  1  0  0  0  0
 10 49  1  1  0  0  0
 11 12  1  0  0  0  0
 11 19  1  0  0  0  0
 11 50  1  6  0  0  0
 12 13  1  0  0  0  0
 12 15  1  0  0  0  0
 12 51  1  1  0  0  0
 13 52  1  0  0  0  0
 13 53  1  0  0  0  0
 14 17  1  0  0  0  0
 14 54  1  0  0  0  0
 14 55  1  0  0  0  0
 15 18  1  0  0  0  0
 15 22  1  6  0  0  0
 15 56  1  0  0  0  0
 16 20  1  0  0  0  0
 16 24  2  0  0  0  0
 17 57  1  0  0  0  0
 17 58  1  0  0  0  0
 18 59  1  0  0  0  0
 18 60  1  0  0  0  0
 19 61  1  0  0  0  0
 19 62  1  0  0  0  0
 20 25  2  0  0  0  0
 21 23  1  0  0  0  0
 21 63  1  1  0  0  0
 22 27  1  0  0  0  0
 22 64  1  0  0  0  0
 22 65  1  0  0  0  0
 23 26  1  0  0  0  0
 23 30  1  6  0  0  0
 23 66  1  0  0  0  0
 24 28  1  0  0  0  0
 24 67  1  0  0  0  0
 25 29  1  0  0  0  0
 25 68  1  0  0  0  0
 26 31  1  0  0  0  0
 26 32  1  0  0  0  0
 26 69  1  1  0  0  0
 27 70  1  0  0  0  0
 27 71  1  0  0  0  0
 27 72  1  0  0  0  0
 28 29  2  0  0  0  0
 28 73  1  0  0  0  0
 29 74  1  0  0  0  0
 31 33  1  0  0  0  0
 31 75  1  0  0  0  0
 31 76  1  0  0  0  0
 32 34  1  0  0  0  0
 32 36  2  0  0  0  0
 33 35  1  0  0  0  0
 33 77  1  1  0  0  0
 34 78  1  0  0  0  0
 34 79  1  0  0  0  0
 35 38  2  0  0  0  0
 36 41  1  0  0  0  0
 36 80  1  0  0  0  0
 37 39  1  0  0  0  0
 37 81  1  0  0  0  0
 37 82  1  0  0  0  0
 38 39  1  0  0  0  0
 38 42  1  0  0  0  0
 39 83  1  0  0  0  0
 39 84  1  0  0  0  0
 40 86  1  0  0  0  0
 40 87  1  0  0  0  0
 40 88  1  0  0  0  0
 41 89  1  0  0  0  0
 41 90  1  0  0  0  0
 41 91  1  0  0  0  0
 42 43  1  0  0  0  0
 42 44  2  0  0  0  0
 43 45  2  0  0  0  0
 44 46  1  0  0  0  0
 44 92  1  0  0  0  0
 45 47  1  0  0  0  0
 45 93  1  0  0  0  0
 46 47  2  0  0  0  0
 46 94  1  0  0  0  0
 47 95  1  0  0  0  0
M  END
> <PUBCHEM_COMPOUND_CID>
5281401

> <PUBCHEM_COMPOUND_CANONICALIZED>
1

> <PUBCHEM_CACTVS_COMPLEXITY>
1270

> <PUBCHEM_CACTVS_HBOND_ACCEPTOR>
6

> <PUBCHEM_CACTVS_HBOND_DONOR>
1

> <PUBCHEM_CACTVS_ROTATABLE_BOND>
5

> <PUBCHEM_CACTVS_SUBSKEYS>
AAADcfB/sAAAAAAAAAAAAAAAAAAAAWLFgAA8ePFiAAAWAFix9AAAHgAQAAAADyjhngYyyPPJlACoAyTyTACCgCAhAiAImSE4ZJgIYP7A0ZGeIAhnsADIyAeY2fOfgAAAAAACAACQAASACCQAAAAAAAAAAA==

> <PUBCHEM_IUPAC_INCHI>
InChI=1S/C40H48N4O3/c1-4-23-21-43-17-15-40-30-11-7-9-13-32(30)44-37(40)29(27(23)19-34(40)43)22-47-38(44)35(39(45)46-3)28-18-33-36-26(14-16-42(33)20-24(28)5-2)25-10-6-8-12-31(25)41-36/h5-13,23,27-29,33-35,37-38,41H,4,14-22H2,1-3H3/b24-5-/t23-,27+,28+,29+,33+,34+,35-,37+,38+,40-/m1/s1

> <PUBCHEM_IUPAC_INCHIKEY>
ISDWYSGTYITCHG-OCNKQYNFSA-N

> <PUBCHEM_XLOGP3_AA>
5.8

> <PUBCHEM_EXACT_MASS>
632.372641

> <PUBCHEM_MOLECULAR_FORMULA>
C40H48N4O3

> <PUBCHEM_MOLECULAR_WEIGHT>
632.83412

> <PUBCHEM_OPENEYE_CAN_SMILES>
CCC1CN2CCC34C2CC1C5C3N(C(OC5)C(C6CC7C8=C(CCN7CC6=CC)C9=CC=CC=C9N8)C(=O)OC)C1=CC=CC=C41

> <PUBCHEM_OPENEYE_ISO_SMILES>
CC[C@@H]1CN2CC[C@@]34[C@@H]2C[C@@H]1[C@H]5[C@@H]3N([C@@H](OC5)[C@@H]([C@H]\6C[C@H]7C8=C(CCN7C/C6=C/C)C9=CC=CC=C9N8)C(=O)OC)C1=CC=CC=C41

> <PUBCHEM_CACTVS_TPSA>
61

> <PUBCHEM_MONOISOTOPIC_WEIGHT>
632.372641

> <PUBCHEM_TOTAL_CHARGE>
0

> <PUBCHEM_HEAVY_ATOM_COUNT>
47

> <PUBCHEM_ATOM_DEF_STEREO_COUNT>
10

> <PUBCHEM_ATOM_UDEF_STEREO_COUNT>
0

> <PUBCHEM_BOND_DEF_STEREO_COUNT>
1

> <PUBCHEM_BOND_UDEF_STEREO_COUNT>
0

> <PUBCHEM_ISOTOPIC_ATOM_COUNT>
0

> <PUBCHEM_COMPONENT_COUNT>
1

> <PUBCHEM_CACTVS_TAUTO_COUNT>
1

> <PUBCHEM_COORDINATE_TYPE>
1
5
255

> <PUBCHEM_BONDANNOTATIONS>
10  49  5
11  50  6
12  51  5
15  22  6
16  20  8
16  24  8
20  25  8
21  63  5
23  30  6
24  28  8
25  29  8
26  69  5
28  29  8
33  77  5
35  38  8
38  42  8
42  43  8
42  44  8
43  45  8
44  46  8
45  47  8
46  47  8
7  35  8
7  43  8
8  14  6
9  48  6

$$$$

