47205082
  -OEChem-06241222582D

 33 34  0     0  0  0  0  0  0999 V2000
    3.7320   -0.9547    0.0000 O   0  0  0  0  0  0  0  0  0  0  0  0
    3.7320    1.0453    0.0000 O   0  0  0  0  0  0  0  0  0  0  0  0
    5.4641    1.0453    0.0000 N   0  0  0  0  0  0  0  0  0  0  0  0
    6.4347    3.5398    0.0000 N   0  0  0  0  0  0  0  0  0  0  0  0
    7.4128    3.7477    0.0000 N   0  0  0  0  0  0  0  0  0  0  0  0
    5.4641    2.0453    0.0000 C   0  0  0  0  0  0  0  0  0  0  0  0
    6.3301    2.5453    0.0000 C   0  0  0  0  0  0  0  0  0  0  0  0
    4.5981   -0.4547    0.0000 C   0  0  0  0  0  0  0  0  0  0  0  0
    3.7320   -1.9547    0.0000 C   0  0  0  0  0  0  0  0  0  0  0  0
    4.5981    0.5453    0.0000 C   0  0  0  0  0  0  0  0  0  0  0  0
    2.8660   -3.4547    0.0000 C   0  0  0  0  0  0  0  0  0  0  0  0
    2.8660   -2.4547    0.0000 C   0  0  0  0  0  0  0  0  0  0  0  0
    7.2437    2.1386    0.0000 C   0  0  0  0  0  0  0  0  0  0  0  0
    4.5981   -2.4547    0.0000 C   0  0  0  0  0  0  0  0  0  0  0  0
    3.7320   -3.9547    0.0000 C   0  0  0  0  0  0  0  0  0  0  0  0
    4.5981   -3.4547    0.0000 C   0  0  0  0  0  0  0  0  0  0  0  0
    2.0000   -3.9547    0.0000 C   0  0  0  0  0  0  0  0  0  0  0  0
    7.9128    2.8817    0.0000 C   0  0  0  0  0  0  0  0  0  0  0  0
    5.2520    2.6279    0.0000 H   0  0  0  0  0  0  0  0  0  0  0  0
    4.8535    1.9376    0.0000 H   0  0  0  0  0  0  0  0  0  0  0  0
    6.0010    0.7353    0.0000 H   0  0  0  0  0  0  0  0  0  0  0  0
    4.8101   -1.0373    0.0000 H   0  0  0  0  0  0  0  0  0  0  0  0
    5.2087   -0.3470    0.0000 H   0  0  0  0  0  0  0  0  0  0  0  0
    2.3291   -2.1447    0.0000 H   0  0  0  0  0  0  0  0  0  0  0  0
    7.3726    1.5321    0.0000 H   0  0  0  0  0  0  0  0  0  0  0  0
    5.9739    3.9547    0.0000 H   0  0  0  0  0  0  0  0  0  0  0  0
    5.1350   -2.1447    0.0000 H   0  0  0  0  0  0  0  0  0  0  0  0
    3.7320   -4.5747    0.0000 H   0  0  0  0  0  0  0  0  0  0  0  0
    5.1350   -3.7647    0.0000 H   0  0  0  0  0  0  0  0  0  0  0  0
    1.6900   -3.4178    0.0000 H   0  0  0  0  0  0  0  0  0  0  0  0
    1.4631   -4.2647    0.0000 H   0  0  0  0  0  0  0  0  0  0  0  0
    2.3100   -4.4916    0.0000 H   0  0  0  0  0  0  0  0  0  0  0  0
    8.5294    2.8169    0.0000 H   0  0  0  0  0  0  0  0  0  0  0  0
  1  8  1  0  0  0  0
  1  9  1  0  0  0  0
  2 10  2  0  0  0  0
  3  6  1  0  0  0  0
  3 10  1  0  0  0  0
  3 21  1  0  0  0  0
  4  5  1  0  0  0  0
  4  7  1  0  0  0  0
  4 26  1  0  0  0  0
  5 18  2  0  0  0  0
  6  7  1  0  0  0  0
  6 19  1  0  0  0  0
  6 20  1  0  0  0  0
  7 13  2  0  0  0  0
  8 10  1  0  0  0  0
  8 22  1  0  0  0  0
  8 23  1  0  0  0  0
  9 12  1  0  0  0  0
  9 14  2  0  0  0  0
 11 12  2  0  0  0  0
 11 15  1  0  0  0  0
 11 17  1  0  0  0  0
 12 24  1  0  0  0  0
 13 18  1  0  0  0  0
 13 25  1  0  0  0  0
 14 16  1  0  0  0  0
 14 27  1  0  0  0  0
 15 16  2  0  0  0  0
 15 28  1  0  0  0  0
 16 29  1  0  0  0  0
 17 30  1  0  0  0  0
 17 31  1  0  0  0  0
 17 32  1  0  0  0  0
 18 33  1  0  0  0  0
M  END
> <PUBCHEM_COMPOUND_CID>
47205082

> <PUBCHEM_COMPOUND_CANONICALIZED>
1

> <PUBCHEM_CACTVS_COMPLEXITY>
273

> <PUBCHEM_CACTVS_HBOND_ACCEPTOR>
3

> <PUBCHEM_CACTVS_HBOND_DONOR>
2

> <PUBCHEM_CACTVS_ROTATABLE_BOND>
5

> <PUBCHEM_CACTVS_SUBSKEYS>
AAADccBzMAAAAAAAAAAAAAAAAAAAAWAAAAAwAAAAAAAAAAABwAAAHgAYAAAADAzhngY+hpLjBACqAzV3UAKSDAAgogAYuaB+bJgOZqKE8d+XvCjk3hGY6AeAwBAOAAABAAAAAAAAAAIAAAAAAAAAAAAAAA==

> <PUBCHEM_IUPAC_OPENEYE_NAME>
2-(3-methylphenoxy)-N-(1H-pyrazol-5-ylmethyl)acetamide

> <PUBCHEM_IUPAC_CAS_NAME>
2-(3-methylphenoxy)-N-(1H-pyrazol-5-ylmethyl)acetamide

> <PUBCHEM_IUPAC_NAME>
2-(3-methylphenoxy)-N-(1H-pyrazol-5-ylmethyl)acetamide

> <PUBCHEM_IUPAC_SYSTEMATIC_NAME>
2-(3-methylphenoxy)-N-(1H-pyrazol-5-ylmethyl)ethanamide

> <PUBCHEM_IUPAC_TRADITIONAL_NAME>
2-(3-methylphenoxy)-N-(1H-pyrazol-5-ylmethyl)acetamide

> <PUBCHEM_IUPAC_INCHI>
InChI=1S/C13H15N3O2/c1-10-3-2-4-12(7-10)18-9-13(17)14-8-11-5-6-15-16-11/h2-7H,8-9H2,1H3,(H,14,17)(H,15,16)

> <PUBCHEM_IUPAC_INCHIKEY>
VHOJJCQUQQWMCJ-UHFFFAOYSA-N

> <PUBCHEM_XLOGP3_AA>
1.4

> <PUBCHEM_EXACT_MASS>
245.116427

> <PUBCHEM_MOLECULAR_FORMULA>
C13H15N3O2

> <PUBCHEM_MOLECULAR_WEIGHT>
245.2771

> <PUBCHEM_OPENEYE_CAN_SMILES>
CC1=CC(=CC=C1)OCC(=O)NCC2=CC=NN2

> <PUBCHEM_OPENEYE_ISO_SMILES>
CC1=CC(=CC=C1)OCC(=O)NCC2=CC=NN2

> <PUBCHEM_CACTVS_TPSA>
67

> <PUBCHEM_MONOISOTOPIC_WEIGHT>
245.116427

> <PUBCHEM_TOTAL_CHARGE>
0

> <PUBCHEM_HEAVY_ATOM_COUNT>
18

> <PUBCHEM_ATOM_DEF_STEREO_COUNT>
0

> <PUBCHEM_ATOM_UDEF_STEREO_COUNT>
0

> <PUBCHEM_BOND_DEF_STEREO_COUNT>
0

> <PUBCHEM_BOND_UDEF_STEREO_COUNT>
0

> <PUBCHEM_ISOTOPIC_ATOM_COUNT>
0

> <PUBCHEM_COMPONENT_COUNT>
1

> <PUBCHEM_CACTVS_TAUTO_COUNT>
4

> <PUBCHEM_COORDINATE_TYPE>
1
5
255

> <PUBCHEM_BONDANNOTATIONS>
11  12  8
11  15  8
13  18  8
14  16  8
15  16  8
4  5  8
4  7  8
5  18  8
7  13  8
9  12  8
9  14  8

$$$$

