   Color/Form

     * WHITE TO SLIGHTLY YELLOW, CRYSTALLINE POWDER
     * Colorless crystals

   from [1]HSDB

   Odor
        ODORLESS
   from [2]HSDB

   Taste
        Bitter taste
   from [3]HSDB

   Melting Point
        87 deg C
   from [4]HSDB

   Dissociation Constants
        pKa = 10.1
   from [5]HSDB

   Octanol/Water Partition Coefficient
        log Kow = 4.63
   from [6]HSDB

   Solubilities

     * VERY SLIGHTLY SOL IN WATER; SOL IN DIL ACIDS, CHLOROFORM, ETHER
     * Insoluble in alcohol, benzene, chloroform, ether.
     * In water, 0.14 mg/L at 25 deg C (est)

   from [7]HSDB

   Spectral Properties
        Intense mass spectral peaks: 58 m/z, 86 m/z, 245 m/z, 290 m/z, 319
   m/z
   from [8]HSDB

   Vapor Pressure
        5.0X10-9 mm Hg at 25 deg C (est)
   from [9]HSDB

   Other Chemical/Physical Properties

     * Bitter colorless crystals, dimorphic. Freely soluble in water, less
       sol in neutral or alkaline pH. Stable to heat in soln pH4 to 6.5.
       Practically in soluble in alcohol, benzene and chloroform
       /Diphosphate/
     * WHITE CRYSTALLINE POWDER; ODORLESS; BITTER TASTE; FREELY SOL IN
       WATER;PRACTICALLY INSOL IN ALCOHOL, CHLOROFORM, ETHER; AQ SOLN HAS
       PH OF ABOUT 4.5; PKA1= 7; PKA2= 9.2 /PHOSPHATE/
     * USUALLY IS IN A PARTLY HYDRATED FORM
     * COLORLESS LIQUID; PH BETWEEN 5.5 & 6.5 /CHLOROQUINE HYDROCHLORIDE
       INJECTION/
     * WHITE POWDER /CHLOROQUINE DIPHOSPHATE/
     * Upon decomosition emits NOx
     * Henry's Law constant = 1.1X10-12 atm cu-m/mole at 25 deg C (est)
     * Hydroxyl radical reaction rate constant = 1.5X10-10 cu cm/molec-sec
       at 25 deg C (est)

   from [10]HSDB

   Computed Properties
   Molecular Weight                  319.87214 [g/mol]
   Molecular Formula                 C[18]H[26]ClN[3]
   XLogP3                            4.6
   H-Bond Donor                      1
   H-Bond Acceptor                   3
   Rotatable Bond Count              8
   Tautomer Count                    3
   Exact Mass                        319.181526
   MonoIsotopic Mass                 319.181526
   Topological Polar Surface Area    28.2
   Heavy Atom Count                  22
   Formal Charge                     0
   Complexity                        309
   Isotope Atom Count                0
   Defined Atom Stereocenter Count   0
   Undefined Atom Stereocenter Count 1
   Defined Bond Stereocenter Count   0
   Undefined Bond Stereocenter Count 0
   Covalently-Bonded Unit Count      1
   Feature 3D Acceptor Count         1
   Feature 3D Donor Count            1
   Feature 3D Cation Count           2
   Feature 3D Ring Count             2
   Effective Rotor Count             8
   Conformer Sampling RMSD           0.8
   CID Conformer Count               [11]324

References

   1. http://toxnet.nlm.nih.gov/cgi-bin/sis/search/r?dbs+hsdb:@term+@rn+@rel+54-05-7
   2. http://toxnet.nlm.nih.gov/cgi-bin/sis/search/r?dbs+hsdb:@term+@rn+@rel+54-05-7
   3. http://toxnet.nlm.nih.gov/cgi-bin/sis/search/r?dbs+hsdb:@term+@rn+@rel+54-05-7
   4. http://toxnet.nlm.nih.gov/cgi-bin/sis/search/r?dbs+hsdb:@term+@rn+@rel+54-05-7
   5. http://toxnet.nlm.nih.gov/cgi-bin/sis/search/r?dbs+hsdb:@term+@rn+@rel+54-05-7
   6. http://toxnet.nlm.nih.gov/cgi-bin/sis/search/r?dbs+hsdb:@term+@rn+@rel+54-05-7
   7. http://toxnet.nlm.nih.gov/cgi-bin/sis/search/r?dbs+hsdb:@term+@rn+@rel+54-05-7
   8. http://toxnet.nlm.nih.gov/cgi-bin/sis/search/r?dbs+hsdb:@term+@rn+@rel+54-05-7
   9. http://toxnet.nlm.nih.gov/cgi-bin/sis/search/r?dbs+hsdb:@term+@rn+@rel+54-05-7
  10. http://toxnet.nlm.nih.gov/cgi-bin/sis/search/r?dbs+hsdb:@term+@rn+@rel+54-05-7
  11. http://pubchem.ncbi.nlm.nih.gov/vw3d/vw3d.cgi?cid=2719
