23724547
  -OEChem-07051213072D

114119  0     1  0  0  0  0  0999 V2000
   10.9223    3.6606    0.0000 O   0  0  0  0  0  0  0  0  0  0  0  0
   11.9283    5.0705    0.0000 O   0  0  0  0  0  0  0  0  0  0  0  0
    7.7588   -2.2502    0.0000 O   0  0  0  0  0  0  0  0  0  0  0  0
    8.0000   -3.8824    0.0000 O   0  0  0  0  0  0  0  0  0  0  0  0
    5.0000   -2.1503    0.0000 O   0  0  0  0  0  0  0  0  0  0  0  0
   12.5503    2.4989    0.0000 O   0  0  0  0  0  0  0  0  0  0  0  0
    9.5074   -4.1496    0.0000 O   0  0  0  0  0  0  0  0  0  0  0  0
   14.3704    3.3280    0.0000 O   0  0  0  0  0  0  0  0  0  0  0  0
   14.5624    5.3188    0.0000 O   0  0  0  0  0  0  0  0  0  0  0  0
    3.5000   -1.2843    0.0000 O   0  0  0  0  0  0  0  0  0  0  0  0
    3.0000    1.3138    0.0000 N   0  0  0  0  0  0  0  0  0  0  0  0
   10.1589    1.1381    0.0000 C   0  0  1  0  0  0  0  0  0  0  0  0
    9.5640    0.2906    0.0000 C   0  0  1  0  0  0  0  0  0  0  0  0
   11.1895    1.0387    0.0000 C   0  0  1  0  0  0  0  0  0  0  0  0
    9.9691   -0.6172    0.0000 C   0  0  2  0  0  0  0  0  0  0  0  0
    9.9388    2.1436    0.0000 C   0  0  0  0  0  0  0  0  0  0  0  0
   11.5977    1.9837    0.0000 C   0  0  0  0  0  0  0  0  0  0  0  0
   10.8263    2.6652    0.0000 C   0  0  1  0  0  0  0  0  0  0  0  0
    9.2320   -1.2843    0.0000 C   0  0  1  0  0  0  0  0  0  0  0  0
    8.5752    0.1875    0.0000 C   0  0  0  0  0  0  0  0  0  0  0  0
   11.6115    0.0931    0.0000 C   0  0  0  0  0  0  0  0  0  0  0  0
   10.9972   -0.7404    0.0000 C   0  0  0  0  0  0  0  0  0  0  0  0
    8.3660   -0.7843    0.0000 C   0  0  0  0  0  0  0  0  0  0  0  0
    9.2320   -2.2843    0.0000 C   0  0  0  0  0  0  0  0  0  0  0  0
    7.5000   -1.2843    0.0000 C   0  0  0  0  0  0  0  0  0  0  0  0
   11.8323    4.0751    0.0000 C   0  0  2  0  0  0  0  0  0  0  0  0
    6.5000   -1.2843    0.0000 C   0  0  1  0  0  0  0  0  0  0  0  0
    8.8660   -3.3824    0.0000 C   0  0  0  0  0  0  0  0  0  0  0  0
   12.6463    3.4943    0.0000 C   0  0  1  0  0  0  0  0  0  0  0  0
    6.0000   -2.1503    0.0000 C   0  0  2  0  0  0  0  0  0  0  0  0
   13.5563    3.9088    0.0000 C   0  0  1  0  0  0  0  0  0  0  0  0
   12.8383    5.4850    0.0000 C   0  0  2  0  0  0  0  0  0  0  0  0
    6.0000   -0.4182    0.0000 C   0  0  0  0  0  0  0  0  0  0  0  0
   13.6523    4.9042    0.0000 C   0  0  2  0  0  0  0  0  0  0  0  0
    6.5000   -3.0163    0.0000 C   0  0  0  0  0  0  0  0  0  0  0  0
    7.5000   -4.7484    0.0000 C   0  0  2  0  0  0  0  0  0  0  0  0
    6.0000   -3.8824    0.0000 C   0  0  0  0  0  0  0  0  0  0  0  0
    6.5000   -4.7484    0.0000 C   0  0  0  0  0  0  0  0  0  0  0  0
   12.9343    6.4804    0.0000 C   0  0  0  0  0  0  0  0  0  0  0  0
    4.5000   -1.2843    0.0000 C   0  0  2  0  0  0  0  0  0  0  0  0
    8.0000   -5.6144    0.0000 C   0  0  0  0  0  0  0  0  0  0  0  0
    5.0000   -0.4182    0.0000 C   0  0  0  0  0  0  0  0  0  0  0  0
   13.3643    1.9181    0.0000 C   0  0  0  0  0  0  0  0  0  0  0  0
    4.5000    0.4478    0.0000 C   0  0  0  0  0  0  0  0  0  0  0  0
    3.5000    0.4478    0.0000 C   0  0  1  0  0  0  0  0  0  0  0  0
    3.0000   -0.4182    0.0000 C   0  0  1  0  0  0  0  0  0  0  0  0
    7.5000   -6.4804    0.0000 C   0  0  0  0  0  0  0  0  0  0  0  0
   14.6584    6.3142    0.0000 C   0  0  0  0  0  0  0  0  0  0  0  0
    2.0000   -0.4182    0.0000 C   0  0  0  0  0  0  0  0  0  0  0  0
    3.5000    2.1798    0.0000 C   0  0  0  0  0  0  0  0  0  0  0  0
    2.0000    1.3138    0.0000 C   0  0  0  0  0  0  0  0  0  0  0  0
    9.3255    1.3056    0.0000 H   0  0  0  0  0  0  0  0  0  0  0  0
    9.1333    1.0234    0.0000 H   0  0  0  0  0  0  0  0  0  0  0  0
   12.0395    1.0438    0.0000 H   0  0  0  0  0  0  0  0  0  0  0  0
   10.2269   -1.4271    0.0000 H   0  0  0  0  0  0  0  0  0  0  0  0
    9.6826    2.7082    0.0000 H   0  0  0  0  0  0  0  0  0  0  0  0
    9.3504    1.9482    0.0000 H   0  0  0  0  0  0  0  0  0  0  0  0
   12.1379    1.6794    0.0000 H   0  0  0  0  0  0  0  0  0  0  0  0
   11.9571    2.4889    0.0000 H   0  0  0  0  0  0  0  0  0  0  0  0
   11.4031    2.8926    0.0000 H   0  0  0  0  0  0  0  0  0  0  0  0
   10.0090   -1.6290    0.0000 H   0  0  0  0  0  0  0  0  0  0  0  0
    8.1612    0.6490    0.0000 H   0  0  0  0  0  0  0  0  0  0  0  0
   12.2279    0.0265    0.0000 H   0  0  0  0  0  0  0  0  0  0  0  0
   11.2433   -1.3095    0.0000 H   0  0  0  0  0  0  0  0  0  0  0  0
    9.6907   -2.7015    0.0000 H   0  0  0  0  0  0  0  0  0  0  0  0
    8.6201   -2.1850    0.0000 H   0  0  0  0  0  0  0  0  0  0  0  0
   11.7728    3.4580    0.0000 H   0  0  0  0  0  0  0  0  0  0  0  0
    6.8100   -0.7473    0.0000 H   0  0  0  0  0  0  0  0  0  0  0  0
   12.0821    3.2373    0.0000 H   0  0  0  0  0  0  0  0  0  0  0  0
    5.6900   -1.6134    0.0000 H   0  0  0  0  0  0  0  0  0  0  0  0
   13.4968    3.2917    0.0000 H   0  0  0  0  0  0  0  0  0  0  0  0
   12.3336    5.8452    0.0000 H   0  0  0  0  0  0  0  0  0  0  0  0
    6.5369   -0.1082    0.0000 H   0  0  0  0  0  0  0  0  0  0  0  0
    5.6900    0.1187    0.0000 H   0  0  0  0  0  0  0  0  0  0  0  0
    5.4631   -0.7282    0.0000 H   0  0  0  0  0  0  0  0  0  0  0  0
   14.1570    4.5441    0.0000 H   0  0  0  0  0  0  0  0  0  0  0  0
    6.9750   -3.4148    0.0000 H   0  0  0  0  0  0  0  0  0  0  0  0
    6.9750   -2.6178    0.0000 H   0  0  0  0  0  0  0  0  0  0  0  0
    8.1200   -4.7484    0.0000 H   0  0  0  0  0  0  0  0  0  0  0  0
    5.5250   -3.4838    0.0000 H   0  0  0  0  0  0  0  0  0  0  0  0
    5.5250   -4.2809    0.0000 H   0  0  0  0  0  0  0  0  0  0  0  0
    5.9174   -4.9604    0.0000 H   0  0  0  0  0  0  0  0  0  0  0  0
    6.6077   -5.3590    0.0000 H   0  0  0  0  0  0  0  0  0  0  0  0
   13.5514    6.4209    0.0000 H   0  0  0  0  0  0  0  0  0  0  0  0
   12.9938    7.0976    0.0000 H   0  0  0  0  0  0  0  0  0  0  0  0
   12.3172    6.5399    0.0000 H   0  0  0  0  0  0  0  0  0  0  0  0
    4.1900   -1.8212    0.0000 H   0  0  0  0  0  0  0  0  0  0  0  0
   14.9346    3.5850    0.0000 H   0  0  0  0  0  0  0  0  0  0  0  0
    8.4750   -6.0129    0.0000 H   0  0  0  0  0  0  0  0  0  0  0  0
    8.4750   -5.2159    0.0000 H   0  0  0  0  0  0  0  0  0  0  0  0
    5.4750   -0.8168    0.0000 H   0  0  0  0  0  0  0  0  0  0  0  0
    5.4750   -0.0197    0.0000 H   0  0  0  0  0  0  0  0  0  0  0  0
   13.0042    1.4134    0.0000 H   0  0  0  0  0  0  0  0  0  0  0  0
   13.8690    1.5580    0.0000 H   0  0  0  0  0  0  0  0  0  0  0  0
   13.7245    2.4228    0.0000 H   0  0  0  0  0  0  0  0  0  0  0  0
    2.8800    0.4478    0.0000 H   0  0  0  0  0  0  0  0  0  0  0  0
    5.0826    0.6598    0.0000 H   0  0  0  0  0  0  0  0  0  0  0  0
    4.3923    1.0584    0.0000 H   0  0  0  0  0  0  0  0  0  0  0  0
    2.6900   -0.9552    0.0000 H   0  0  0  0  0  0  0  0  0  0  0  0
    6.9631   -6.1704    0.0000 H   0  0  0  0  0  0  0  0  0  0  0  0
    7.1900   -7.0174    0.0000 H   0  0  0  0  0  0  0  0  0  0  0  0
    8.0369   -6.7904    0.0000 H   0  0  0  0  0  0  0  0  0  0  0  0
   15.2755    6.2546    0.0000 H   0  0  0  0  0  0  0  0  0  0  0  0
   14.7179    6.9313    0.0000 H   0  0  0  0  0  0  0  0  0  0  0  0
   14.0412    6.3737    0.0000 H   0  0  0  0  0  0  0  0  0  0  0  0
    2.0000    0.2018    0.0000 H   0  0  0  0  0  0  0  0  0  0  0  0
    1.3800   -0.4182    0.0000 H   0  0  0  0  0  0  0  0  0  0  0  0
    2.0000   -1.0382    0.0000 H   0  0  0  0  0  0  0  0  0  0  0  0
    4.0369    1.8698    0.0000 H   0  0  0  0  0  0  0  0  0  0  0  0
    3.8100    2.7168    0.0000 H   0  0  0  0  0  0  0  0  0  0  0  0
    2.0000    1.9338    0.0000 H   0  0  0  0  0  0  0  0  0  0  0  0
    2.9631    2.4898    0.0000 H   0  0  0  0  0  0  0  0  0  0  0  0
    1.3800    1.3138    0.0000 H   0  0  0  0  0  0  0  0  0  0  0  0
    2.0000    0.6938    0.0000 H   0  0  0  0  0  0  0  0  0  0  0  0
 18  1  1  6  0  0  0
 26  1  1  6  0  0  0
  2 26  1  0  0  0  0
  2 32  1  0  0  0  0
  3 25  2  0  0  0  0
  4 28  1  0  0  0  0
  4 36  1  0  0  0  0
 30  5  1  6  0  0  0
 40  5  1  6  0  0  0
 29  6  1  1  0  0  0
  6 43  1  0  0  0  0
  7 28  2  0  0  0  0
 31  8  1  1  0  0  0
  8 88  1  0  0  0  0
 34  9  1  6  0  0  0
  9 48  1  0  0  0  0
 10 40  1  0  0  0  0
 10 46  1  0  0  0  0
 45 11  1  1  0  0  0
 11 50  1  0  0  0  0
 11 51  1  0  0  0  0
 12 13  1  0  0  0  0
 12 14  1  0  0  0  0
 12 16  1  0  0  0  0
 12 52  1  1  0  0  0
 13 15  1  0  0  0  0
 13 20  1  0  0  0  0
 13 53  1  6  0  0  0
 14 17  1  0  0  0  0
 14 21  1  0  0  0  0
 14 54  1  6  0  0  0
 15 19  1  0  0  0  0
 15 22  1  0  0  0  0
 15 55  1  6  0  0  0
 16 18  1  0  0  0  0
 16 56  1  0  0  0  0
 16 57  1  0  0  0  0
 17 18  1  0  0  0  0
 17 58  1  0  0  0  0
 17 59  1  0  0  0  0
 18 60  1  0  0  0  0
 19 23  1  0  0  0  0
 19 24  1  0  0  0  0
 19 61  1  1  0  0  0
 20 23  2  0  0  0  0
 20 62  1  0  0  0  0
 21 22  2  0  0  0  0
 21 63  1  0  0  0  0
 22 64  1  0  0  0  0
 23 25  1  0  0  0  0
 24 28  1  0  0  0  0
 24 65  1  0  0  0  0
 24 66  1  0  0  0  0
 25 27  1  0  0  0  0
 26 29  1  0  0  0  0
 26 67  1  0  0  0  0
 27 30  1  0  0  0  0
 27 33  1  1  0  0  0
 27 68  1  0  0  0  0
 29 31  1  0  0  0  0
 29 69  1  0  0  0  0
 30 35  1  0  0  0  0
 30 70  1  0  0  0  0
 31 34  1  0  0  0  0
 31 71  1  0  0  0  0
 32 34  1  0  0  0  0
 32 39  1  1  0  0  0
 32 72  1  0  0  0  0
 33 73  1  0  0  0  0
 33 74  1  0  0  0  0
 33 75  1  0  0  0  0
 34 76  1  0  0  0  0
 35 37  1  0  0  0  0
 35 77  1  0  0  0  0
 35 78  1  0  0  0  0
 36 38  1  0  0  0  0
 36 41  1  1  0  0  0
 36 79  1  0  0  0  0
 37 38  1  0  0  0  0
 37 80  1  0  0  0  0
 37 81  1  0  0  0  0
 38 82  1  0  0  0  0
 38 83  1  0  0  0  0
 39 84  1  0  0  0  0
 39 85  1  0  0  0  0
 39 86  1  0  0  0  0
 40 42  1  0  0  0  0
 40 87  1  0  0  0  0
 41 47  1  0  0  0  0
 41 89  1  0  0  0  0
 41 90  1  0  0  0  0
 42 44  1  0  0  0  0
 42 91  1  0  0  0  0
 42 92  1  0  0  0  0
 43 93  1  0  0  0  0
 43 94  1  0  0  0  0
 43 95  1  0  0  0  0
 44 45  1  0  0  0  0
 44 97  1  0  0  0  0
 44 98  1  0  0  0  0
 45 46  1  0  0  0  0
 45 96  1  0  0  0  0
 46 49  1  6  0  0  0
 46 99  1  0  0  0  0
 47100  1  0  0  0  0
 47101  1  0  0  0  0
 47102  1  0  0  0  0
 48103  1  0  0  0  0
 48104  1  0  0  0  0
 48105  1  0  0  0  0
 49106  1  0  0  0  0
 49107  1  0  0  0  0
 49108  1  0  0  0  0
 50109  1  0  0  0  0
 50110  1  0  0  0  0
 50112  1  0  0  0  0
 51111  1  0  0  0  0
 51113  1  0  0  0  0
 51114  1  0  0  0  0
M  END
> <PUBCHEM_COMPOUND_CID>
23724547

> <PUBCHEM_COMPOUND_CANONICALIZED>
1

> <PUBCHEM_CACTVS_COMPLEXITY>
1270

> <PUBCHEM_CACTVS_HBOND_ACCEPTOR>
11

> <PUBCHEM_CACTVS_HBOND_DONOR>
1

> <PUBCHEM_CACTVS_ROTATABLE_BOND>
8

> <PUBCHEM_CACTVS_SUBSKEYS>
AAADcfB+PAAAAAAAAAAAAAAAAAAAAYIAAAAkSIAAAAAAAEAAAAAAHgAACAAADTzxgAcCCAMABgCIAqDSCAAAAAAgAAAICAEIAEgTEBYAgQAnQAAFoAAfAYPo7vyugAAAAAAAAAAAAAAAAAAAAIAACAAAAA==

> <PUBCHEM_IUPAC_INCHI>
InChI=1S/C40H63NO10/c1-9-25-11-10-12-33(51-35-16-15-32(41(5)6)22(3)47-35)21(2)36(43)31-19-29-27(30(31)20-34(42)49-25)14-13-24-17-26(18-28(24)29)50-40-39(46-8)37(44)38(45-7)23(4)48-40/h13-14,19,21-30,32-33,35,37-40,44H,9-12,15-18,20H2,1-8H3/t21-,22-,23+,24-,25+,26-,27-,28-,29-,30+,32+,33+,35+,37-,38+,39-,40+/m1/s1

> <PUBCHEM_IUPAC_INCHIKEY>
IHGXGNJRCONUAC-WNTSOVQUSA-N

> <PUBCHEM_XLOGP3_AA>
4.4

> <PUBCHEM_EXACT_MASS>
717.445197

> <PUBCHEM_MOLECULAR_FORMULA>
C40H63NO10

> <PUBCHEM_MOLECULAR_WEIGHT>
717.92892

> <PUBCHEM_OPENEYE_CAN_SMILES>
CCC1CCCC(C(C(=O)C2=CC3C4CC(CC4C=CC3C2CC(=O)O1)OC5C(C(C(C(O5)C)OC)O)OC)C)OC6CCC(C(O6)C)N(C)C

> <PUBCHEM_OPENEYE_ISO_SMILES>
CC[C@H]1CCC[C@@H]([C@H](C(=O)C2=C[C@H]3[C@@H]4C[C@@H](C[C@H]4C=C[C@H]3[C@@H]2CC(=O)O1)O[C@H]5[C@@H]([C@@H]([C@H]([C@@H](O5)C)OC)O)OC)C)O[C@H]6CC[C@@H]([C@H](O6)C)N(C)C

> <PUBCHEM_CACTVS_TPSA>
122

> <PUBCHEM_MONOISOTOPIC_WEIGHT>
717.445197

> <PUBCHEM_TOTAL_CHARGE>
0

> <PUBCHEM_HEAVY_ATOM_COUNT>
51

> <PUBCHEM_ATOM_DEF_STEREO_COUNT>
17

> <PUBCHEM_ATOM_UDEF_STEREO_COUNT>
0

> <PUBCHEM_BOND_DEF_STEREO_COUNT>
0

> <PUBCHEM_BOND_UDEF_STEREO_COUNT>
0

> <PUBCHEM_ISOTOPIC_ATOM_COUNT>
0

> <PUBCHEM_COMPONENT_COUNT>
1

> <PUBCHEM_CACTVS_TAUTO_COUNT>
10

> <PUBCHEM_COORDINATE_TYPE>
1
5
255

> <PUBCHEM_BONDANNOTATIONS>
18  1  6
26  1  6
45  11  5
12  52  5
13  53  6
14  54  6
15  55  6
19  61  5
27  33  5
32  39  5
36  41  5
46  49  6
30  5  6
40  5  6
29  6  5
31  8  5
34  9  6

$$$$

