   Color/Form
        Colorless to yellow liquid.
   from [1]HSDB

   Odor

     * Sharp, nauseating
     * Burnt, sickening
     * Nauseating fish-like odor.

   from [2]HSDB

   Taste
        AMINE TASTE
   from [3]HSDB

   Boiling Point
        115.2-115.3 deg C
   from [4]HSDB

   Melting Point
        -41.6 deg C
   from [5]HSDB

   Corrosivity
        Liquid pyridine will attack some forms of plastics, rubber and
   coatings.
   from [6]HSDB

   Critical Temperature and Pressure
        CRITICAL TEMP: 656.2 DEG F= 346.8 DEG C= 620 DEG K; CRITICAL
   PRESSURE: 817.3 PSIA= 55.6 ATM= 5.63 MN/SQ M (OR MEGA PASCAL)
   from [7]HSDB

   Density/Specific Gravity
        0.98272 @ 20 deg C/4 deg C
   from [8]HSDB

   Dissociation Constants
        pKa = 5.23
   from [9]HSDB

   Heat of Combustion
        -14.390 BTU/LB= -7992 CAL/G= -334.6X10+5 J/KG
   from [10]HSDB

   Octanol/Water Partition Coefficient
        log Kow = 0.65
   from [11]HSDB

   pH
        8.5 (0.2 molar soln in water)
   from [12]HSDB

   Solubilities

     * Miscible with water @ 20 deg C
     * Miscible with ... alcohol, ether, and petroleum ether, oils and
       many organic liquids.

   from [13]HSDB

   Spectral Properties

     * Index of refraction: 1.50920 @ 20 deg C/D
     * MAX ABSORPTION (CYCLOHEXANE): 251 NM (LOG E= 3.1); 256 NM (LOG E=
       3.1); 279 NM (LOG E= 2.0) SHOULDER; 284 NM (LOG E= 1.8) SHOULDER;
       288 NM (LOG E= 1.4) SHOULDER
     * IR: 4840 (Coblentz Society Spectral Collection)
     * UV: 9 (Sadtler Research Laboratories Spectral Collection)
     * NMR: 96 (Varian Associates NMR Spectra Catalogue)
     * MASS: 62073 (NIST/EPA/MSDC Mass Spectral Database, 1990 version)
     * Intense mass spectral peaks: 52 m/z, 79 m/z

   from [14]HSDB

   Vapor Density
        0.982 (AIR= 1)
   from [15]HSDB

   Vapor Pressure
        20.8 mm Hg @ 25 deg C
   from [16]HSDB

   Other Chemical/Physical Properties

     * Forms azeotropic mixture with 3 mols water, boiling @ 92-93 deg C
     * Henry's Law constant = 1.1X10-5 atm-cu m/mol @ 25 deg C
     * Hydroxyl radical reaction rate constant = 3.7X10-13 cu
       cm/molecule-sec @ 25 deg C

   from [17]HSDB

   Computed Properties
   Molecular Weight                  79.0999 [g/mol]
   Molecular Formula                 C[5]H[5]N
   XLogP3                            0.7
   H-Bond Donor                      0
   H-Bond Acceptor                   1
   Rotatable Bond Count              0
   Exact Mass                        79.042199
   MonoIsotopic Mass                 79.042199
   Topological Polar Surface Area    12.9
   Heavy Atom Count                  6
   Formal Charge                     0
   Complexity                        30.9
   Isotope Atom Count                0
   Defined Atom Stereocenter Count   0
   Undefined Atom Stereocenter Count 0
   Defined Bond Stereocenter Count   0
   Undefined Bond Stereocenter Count 0
   Covalently-Bonded Unit Count      1
   Feature 3D Acceptor Count         1
   Feature 3D Ring Count             1
   Effective Rotor Count             0
   Conformer Sampling RMSD           0.4
   CID Conformer Count               [18]1

References

   1. http://toxnet.nlm.nih.gov/cgi-bin/sis/search/r?dbs+hsdb:@term+@rn+@rel+110-86-1
   2. http://toxnet.nlm.nih.gov/cgi-bin/sis/search/r?dbs+hsdb:@term+@rn+@rel+110-86-1
   3. http://toxnet.nlm.nih.gov/cgi-bin/sis/search/r?dbs+hsdb:@term+@rn+@rel+110-86-1
   4. http://toxnet.nlm.nih.gov/cgi-bin/sis/search/r?dbs+hsdb:@term+@rn+@rel+110-86-1
   5. http://toxnet.nlm.nih.gov/cgi-bin/sis/search/r?dbs+hsdb:@term+@rn+@rel+110-86-1
   6. http://toxnet.nlm.nih.gov/cgi-bin/sis/search/r?dbs+hsdb:@term+@rn+@rel+110-86-1
   7. http://toxnet.nlm.nih.gov/cgi-bin/sis/search/r?dbs+hsdb:@term+@rn+@rel+110-86-1
   8. http://toxnet.nlm.nih.gov/cgi-bin/sis/search/r?dbs+hsdb:@term+@rn+@rel+110-86-1
   9. http://toxnet.nlm.nih.gov/cgi-bin/sis/search/r?dbs+hsdb:@term+@rn+@rel+110-86-1
  10. http://toxnet.nlm.nih.gov/cgi-bin/sis/search/r?dbs+hsdb:@term+@rn+@rel+110-86-1
  11. http://toxnet.nlm.nih.gov/cgi-bin/sis/search/r?dbs+hsdb:@term+@rn+@rel+110-86-1
  12. http://toxnet.nlm.nih.gov/cgi-bin/sis/search/r?dbs+hsdb:@term+@rn+@rel+110-86-1
  13. http://toxnet.nlm.nih.gov/cgi-bin/sis/search/r?dbs+hsdb:@term+@rn+@rel+110-86-1
  14. http://toxnet.nlm.nih.gov/cgi-bin/sis/search/r?dbs+hsdb:@term+@rn+@rel+110-86-1
  15. http://toxnet.nlm.nih.gov/cgi-bin/sis/search/r?dbs+hsdb:@term+@rn+@rel+110-86-1
  16. http://toxnet.nlm.nih.gov/cgi-bin/sis/search/r?dbs+hsdb:@term+@rn+@rel+110-86-1
  17. http://toxnet.nlm.nih.gov/cgi-bin/sis/search/r?dbs+hsdb:@term+@rn+@rel+110-86-1
  18. http://pubchem.ncbi.nlm.nih.gov/vw3d/vw3d.cgi?cid=1049
