13850222
  -OEChem-07051213112D

 37 38  0     1  0  0  0  0  0999 V2000
    2.9230   -0.8087    0.0000 O   0  0  0  0  0  0  0  0  0  0  0  0
    2.0000   -2.3965    0.0000 O   0  0  0  0  0  0  0  0  0  0  0  0
    5.4641   -4.3965    0.0000 O   0  0  0  0  0  0  0  0  0  0  0  0
    3.7320   -1.3965    0.0000 C   0  0  3  0  0  0  0  0  0  0  0  0
    4.2320    0.1424    0.0000 C   0  0  0  0  0  0  0  0  0  0  0  0
    4.8198    0.9514    0.0000 C   0  0  0  0  0  0  0  0  0  0  0  0
    3.2320    0.1424    0.0000 C   0  0  0  0  0  0  0  0  0  0  0  0
    4.5411   -0.8087    0.0000 C   0  0  0  0  0  0  0  0  0  0  0  0
    3.7320   -2.3965    0.0000 C   0  0  0  0  0  0  0  0  0  0  0  0
    4.4131    1.8649    0.0000 C   0  0  0  0  0  0  0  0  0  0  0  0
    5.0009    2.6739    0.0000 C   0  0  0  0  0  0  0  0  0  0  0  0
    2.8660   -2.8965    0.0000 C   0  0  0  0  0  0  0  0  0  0  0  0
    4.5981   -2.8965    0.0000 C   0  0  0  0  0  0  0  0  0  0  0  0
    4.5942    3.5875    0.0000 C   0  0  0  0  0  0  0  0  0  0  0  0
    4.5981   -3.8965    0.0000 C   0  0  0  0  0  0  0  0  0  0  0  0
    2.8660   -3.8965    0.0000 C   0  0  0  0  0  0  0  0  0  0  0  0
    3.7320   -4.3965    0.0000 C   0  0  0  0  0  0  0  0  0  0  0  0
    5.1819    4.3965    0.0000 C   0  0  0  0  0  0  0  0  0  0  0  0
    3.5996    3.6920    0.0000 C   0  0  0  0  0  0  0  0  0  0  0  0
    4.2845   -1.6780    0.0000 H   0  0  0  0  0  0  0  0  0  0  0  0
    5.2505    0.5054    0.0000 H   0  0  0  0  0  0  0  0  0  0  0  0
    5.3338    1.2981    0.0000 H   0  0  0  0  0  0  0  0  0  0  0  0
    3.2969    0.7590    0.0000 H   0  0  0  0  0  0  0  0  0  0  0  0
    2.6256    0.2713    0.0000 H   0  0  0  0  0  0  0  0  0  0  0  0
    5.1307   -1.0003    0.0000 H   0  0  0  0  0  0  0  0  0  0  0  0
    3.9824    2.3109    0.0000 H   0  0  0  0  0  0  0  0  0  0  0  0
    3.8991    1.5182    0.0000 H   0  0  0  0  0  0  0  0  0  0  0  0
    5.6175    2.6091    0.0000 H   0  0  0  0  0  0  0  0  0  0  0  0
    5.1350   -2.5865    0.0000 H   0  0  0  0  0  0  0  0  0  0  0  0
    2.3291   -4.2065    0.0000 H   0  0  0  0  0  0  0  0  0  0  0  0
    3.7320   -5.0165    0.0000 H   0  0  0  0  0  0  0  0  0  0  0  0
    5.6835    4.0321    0.0000 H   0  0  0  0  0  0  0  0  0  0  0  0
    5.5464    4.8981    0.0000 H   0  0  0  0  0  0  0  0  0  0  0  0
    4.6803    4.7609    0.0000 H   0  0  0  0  0  0  0  0  0  0  0  0
    3.6644    4.3086    0.0000 H   0  0  0  0  0  0  0  0  0  0  0  0
    2.9830    3.7568    0.0000 H   0  0  0  0  0  0  0  0  0  0  0  0
    3.5348    3.0754    0.0000 H   0  0  0  0  0  0  0  0  0  0  0  0
  1  4  1  0  0  0  0
  1  7  1  0  0  0  0
  2 12  2  0  0  0  0
  3 15  2  0  0  0  0
  4  8  1  0  0  0  0
  4  9  1  0  0  0  0
  4 20  1  0  0  0  0
  5  6  1  0  0  0  0
  5  7  1  0  0  0  0
  5  8  2  0  0  0  0
  6 10  1  0  0  0  0
  6 21  1  0  0  0  0
  6 22  1  0  0  0  0
  7 23  1  0  0  0  0
  7 24  1  0  0  0  0
  8 25  1  0  0  0  0
  9 12  1  0  0  0  0
  9 13  2  0  0  0  0
 10 11  1  0  0  0  0
 10 26  1  0  0  0  0
 10 27  1  0  0  0  0
 11 14  2  0  0  0  0
 11 28  1  0  0  0  0
 12 16  1  0  0  0  0
 13 15  1  0  0  0  0
 13 29  1  0  0  0  0
 14 18  1  0  0  0  0
 14 19  1  0  0  0  0
 15 17  1  0  0  0  0
 16 17  2  0  0  0  0
 16 30  1  0  0  0  0
 17 31  1  0  0  0  0
 18 32  1  0  0  0  0
 18 33  1  0  0  0  0
 18 34  1  0  0  0  0
 19 35  1  0  0  0  0
 19 36  1  0  0  0  0
 19 37  1  0  0  0  0
M  END
> <PUBCHEM_COMPOUND_CID>
13850222

> <PUBCHEM_COMPOUND_CANONICALIZED>
1

> <PUBCHEM_CACTVS_COMPLEXITY>
514

> <PUBCHEM_CACTVS_HBOND_ACCEPTOR>
3

> <PUBCHEM_CACTVS_HBOND_DONOR>
0

> <PUBCHEM_CACTVS_ROTATABLE_BOND>
4

> <PUBCHEM_CACTVS_SUBSKEYS>
AAADceB4MAAAAAAAAAAAAAAAAAAAAQAAAAAgAAAAAAAAAAAAAAAAGgAAAAAADBSggAICAAAABACIAqBSAAAAAAAgAAAICAEAAEgABBYAIQACEAAEoAAIIYKAAAAAAAAAAAAAAAAAAAAAAAAAAAAAAAAAAA==

> <PUBCHEM_IUPAC_OPENEYE_NAME>
2-[4-(4-methylpent-3-enyl)-2,5-dihydrofuran-2-yl]-1,4-benzoquinone

> <PUBCHEM_IUPAC_CAS_NAME>
2-[4-(4-methylpent-3-enyl)-2,5-dihydrofuran-2-yl]cyclohexa-2,5-diene-1,4-dione

> <PUBCHEM_IUPAC_NAME>
2-[4-(4-methylpent-3-enyl)-2,5-dihydrofuran-2-yl]cyclohexa-2,5-diene-1,4-dione

> <PUBCHEM_IUPAC_SYSTEMATIC_NAME>
2-[4-(4-methylpent-3-enyl)-2,5-dihydrofuran-2-yl]cyclohexa-2,5-diene-1,4-dione

> <PUBCHEM_IUPAC_TRADITIONAL_NAME>
2-[4-(4-methylpent-3-enyl)-2,5-dihydrofuran-2-yl]-p-benzoquinone

> <PUBCHEM_IUPAC_INCHI>
InChI=1S/C16H18O3/c1-11(2)4-3-5-12-8-16(19-10-12)14-9-13(17)6-7-15(14)18/h4,6-9,16H,3,5,10H2,1-2H3

> <PUBCHEM_IUPAC_INCHIKEY>
MQVIMAJNAQWVSP-UHFFFAOYSA-N

> <PUBCHEM_XLOGP3_AA>
1.9

> <PUBCHEM_EXACT_MASS>
258.125594

> <PUBCHEM_MOLECULAR_FORMULA>
C16H18O3

> <PUBCHEM_MOLECULAR_WEIGHT>
258.31232

> <PUBCHEM_OPENEYE_CAN_SMILES>
CC(=CCCC1=CC(OC1)C2=CC(=O)C=CC2=O)C

> <PUBCHEM_OPENEYE_ISO_SMILES>
CC(=CCCC1=CC(OC1)C2=CC(=O)C=CC2=O)C

> <PUBCHEM_CACTVS_TPSA>
43.4

> <PUBCHEM_MONOISOTOPIC_WEIGHT>
258.125594

> <PUBCHEM_TOTAL_CHARGE>
0

> <PUBCHEM_HEAVY_ATOM_COUNT>
19

> <PUBCHEM_ATOM_DEF_STEREO_COUNT>
0

> <PUBCHEM_ATOM_UDEF_STEREO_COUNT>
1

> <PUBCHEM_BOND_DEF_STEREO_COUNT>
0

> <PUBCHEM_BOND_UDEF_STEREO_COUNT>
0

> <PUBCHEM_ISOTOPIC_ATOM_COUNT>
0

> <PUBCHEM_COMPONENT_COUNT>
1

> <PUBCHEM_CACTVS_TAUTO_COUNT>
1

> <PUBCHEM_COORDINATE_TYPE>
1
5
255

> <PUBCHEM_BONDANNOTATIONS>
4  9  3

$$$$

