6703
  -OEChem-06261201272D

 30 32  0     0  0  0  0  0  0999 V2000
    4.6660    1.5931    0.0000 O   0  0  0  0  0  0  0  0  0  0  0  0
    4.6660   -2.4069    0.0000 O   0  0  0  0  0  0  0  0  0  0  0  0
    7.2746    2.1377    0.0000 O   0  0  0  0  0  0  0  0  0  0  0  0
    5.5427    2.1177    0.0000 O   0  0  0  0  0  0  0  0  0  0  0  0
    6.4144    1.6277    0.0000 N   0  0  0  0  0  0  0  0  0  0  0  0
    2.9176    1.6277    0.0000 N   0  0  0  0  0  0  0  0  0  0  0  0
    2.9176   -2.4415    0.0000 N   0  0  0  0  0  0  0  0  0  0  0  0
    5.5321    0.0931    0.0000 C   0  0  0  0  0  0  0  0  0  0  0  0
    5.5321   -0.9069    0.0000 C   0  0  0  0  0  0  0  0  0  0  0  0
    3.8000    0.0931    0.0000 C   0  0  0  0  0  0  0  0  0  0  0  0
    3.8000   -0.9069    0.0000 C   0  0  0  0  0  0  0  0  0  0  0  0
    4.6660    0.5931    0.0000 C   0  0  0  0  0  0  0  0  0  0  0  0
    4.6660   -1.4069    0.0000 C   0  0  0  0  0  0  0  0  0  0  0  0
    6.4260    0.6278    0.0000 C   0  0  0  0  0  0  0  0  0  0  0  0
    2.9061    0.6278    0.0000 C   0  0  0  0  0  0  0  0  0  0  0  0
    6.4260   -1.4415    0.0000 C   0  0  0  0  0  0  0  0  0  0  0  0
    2.9061   -1.4415    0.0000 C   0  0  0  0  0  0  0  0  0  0  0  0
    7.3321    0.1139    0.0000 C   0  0  0  0  0  0  0  0  0  0  0  0
    7.3321   -0.9277    0.0000 C   0  0  0  0  0  0  0  0  0  0  0  0
    2.0000    0.1139    0.0000 C   0  0  0  0  0  0  0  0  0  0  0  0
    2.0000   -0.9277    0.0000 C   0  0  0  0  0  0  0  0  0  0  0  0
    6.4188   -2.0615    0.0000 H   0  0  0  0  0  0  0  0  0  0  0  0
    7.8678    0.4260    0.0000 H   0  0  0  0  0  0  0  0  0  0  0  0
    7.8678   -1.2398    0.0000 H   0  0  0  0  0  0  0  0  0  0  0  0
    1.4643    0.4260    0.0000 H   0  0  0  0  0  0  0  0  0  0  0  0
    1.4643   -1.2398    0.0000 H   0  0  0  0  0  0  0  0  0  0  0  0
    2.3843    1.9439    0.0000 H   0  0  0  0  0  0  0  0  0  0  0  0
    2.3843   -2.7577    0.0000 H   0  0  0  0  0  0  0  0  0  0  0  0
    7.2675    2.7577    0.0000 H   0  0  0  0  0  0  0  0  0  0  0  0
    5.5355    2.7376    0.0000 H   0  0  0  0  0  0  0  0  0  0  0  0
  1 12  2  0  0  0  0
  2 13  2  0  0  0  0
  3  5  1  0  0  0  0
  3 29  1  0  0  0  0
  4  5  1  0  0  0  0
  4 30  1  0  0  0  0
  5 14  1  0  0  0  0
  6 15  2  0  0  0  0
  6 27  1  0  0  0  0
  7 17  2  0  0  0  0
  7 28  1  0  0  0  0
  8  9  2  0  0  0  0
  8 12  1  0  0  0  0
  8 14  1  0  0  0  0
  9 13  1  0  0  0  0
  9 16  1  0  0  0  0
 10 11  2  0  0  0  0
 10 12  1  0  0  0  0
 10 15  1  0  0  0  0
 11 13  1  0  0  0  0
 11 17  1  0  0  0  0
 14 18  2  0  0  0  0
 15 20  1  0  0  0  0
 16 19  2  0  0  0  0
 16 22  1  0  0  0  0
 17 21  1  0  0  0  0
 18 19  1  0  0  0  0
 18 23  1  0  0  0  0
 19 24  1  0  0  0  0
 20 21  2  0  0  0  0
 20 25  1  0  0  0  0
 21 26  1  0  0  0  0
M  END
> <PUBCHEM_COMPOUND_CID>
6703

> <PUBCHEM_COMPOUND_CANONICALIZED>
1

> <PUBCHEM_CACTVS_COMPLEXITY>
632

> <PUBCHEM_CACTVS_HBOND_ACCEPTOR>
7

> <PUBCHEM_CACTVS_HBOND_DONOR>
4

> <PUBCHEM_CACTVS_ROTATABLE_BOND>
1

> <PUBCHEM_CACTVS_SUBSKEYS>
AAADccBzOAAAAAAAAAAAAAAAAAAAAAAAAAAwQIAAAAAAAACBAAAAHgAUCAAADAyBmAAwwIBQQACoA6RyQACCAAAkAgAoiAEwZNgIIDqAlZGAIYBggAAIyccdiMCOgAAAQAASAAAAAACAACQAAAAAAAAAAA==

> <PUBCHEM_IUPAC_OPENEYE_NAME>
5-(dihydroxyamino)-1,4-diimino-anthracene-9,10-dione

> <PUBCHEM_IUPAC_CAS_NAME>
5-(dihydroxyamino)-1,4-diiminoanthracene-9,10-dione

> <PUBCHEM_IUPAC_NAME>
5-(dihydroxyamino)-1,4-diiminoanthracene-9,10-dione

> <PUBCHEM_IUPAC_SYSTEMATIC_NAME>
1,4-bis(azanylidene)-5-[bis(oxidanyl)amino]anthracene-9,10-dione

> <PUBCHEM_IUPAC_TRADITIONAL_NAME>
5-(dihydroxyamino)-1,4-diimino-9,10-anthraquinone

> <PUBCHEM_IUPAC_INCHI>
InChI=1S/C14H9N3O4/c15-7-4-5-8(16)12-11(7)13(18)6-2-1-3-9(17(20)21)10(6)14(12)19/h1-5,15-16,20-21H

> <PUBCHEM_IUPAC_INCHIKEY>
JJKZPNKDDIUPQK-UHFFFAOYSA-N

> <PUBCHEM_XLOGP3_AA>
0.7

> <PUBCHEM_EXACT_MASS>
283.059306

> <PUBCHEM_MOLECULAR_FORMULA>
C14H9N3O4

> <PUBCHEM_MOLECULAR_WEIGHT>
283.23896

> <PUBCHEM_OPENEYE_CAN_SMILES>
C1=CC2=C(C(=C1)N(O)O)C(=O)C3=C(C2=O)C(=N)C=CC3=N

> <PUBCHEM_OPENEYE_ISO_SMILES>
C1=CC2=C(C(=C1)N(O)O)C(=O)C3=C(C2=O)C(=N)C=CC3=N

> <PUBCHEM_CACTVS_TPSA>
126

> <PUBCHEM_MONOISOTOPIC_WEIGHT>
283.059306

> <PUBCHEM_TOTAL_CHARGE>
0

> <PUBCHEM_HEAVY_ATOM_COUNT>
21

> <PUBCHEM_ATOM_DEF_STEREO_COUNT>
0

> <PUBCHEM_ATOM_UDEF_STEREO_COUNT>
0

> <PUBCHEM_BOND_DEF_STEREO_COUNT>
0

> <PUBCHEM_BOND_UDEF_STEREO_COUNT>
0

> <PUBCHEM_ISOTOPIC_ATOM_COUNT>
0

> <PUBCHEM_COMPONENT_COUNT>
1

> <PUBCHEM_CACTVS_TAUTO_COUNT>
1

> <PUBCHEM_COORDINATE_TYPE>
1
5
255

> <PUBCHEM_BONDANNOTATIONS>
10  12  8
10  15  8
11  13  8
11  17  8
14  18  8
15  20  8
16  19  8
17  21  8
18  19  8
20  21  8
8  12  8
8  14  8
8  9  8
9  13  8
9  16  8

$$$$

