107848
  -OEChem-07051212582D

 51 53  0     1  0  0  0  0  0999 V2000
    6.8671    1.0950    0.0000 O   0  0  0  0  0  0  0  0  0  0  0  0
    6.0010   -0.4050    0.0000 O   0  0  0  0  0  0  0  0  0  0  0  0
    5.1350    1.0950    0.0000 O   0  0  0  0  0  0  0  0  0  0  0  0
    6.8671    3.0950    0.0000 O   0  0  0  0  0  0  0  0  0  0  0  0
    5.1350    4.0950    0.0000 O   0  0  0  0  0  0  0  0  0  0  0  0
    3.4030    3.0950    0.0000 O   0  0  0  0  0  0  0  0  0  0  0  0
    9.9685    1.0565    0.0000 O   0  0  0  0  0  0  0  0  0  0  0  0
    2.5369    1.5950    0.0000 O   0  0  0  0  0  0  0  0  0  0  0  0
    6.0010   -3.4050    0.0000 O   0  0  0  0  0  0  0  0  0  0  0  0
    7.7331   -3.4050    0.0000 O   0  0  0  0  0  0  0  0  0  0  0  0
    7.7331   -0.4050    0.0000 C   0  0  2  0  0  0  0  0  0  0  0  0
    7.7331   -1.4050    0.0000 C   0  0  2  0  0  0  0  0  0  0  0  0
    6.8671    0.0950    0.0000 C   0  0  2  0  0  0  0  0  0  0  0  0
    8.6793   -1.7097    0.0000 C   0  0  0  0  0  0  0  0  0  0  0  0
    8.6793   -0.1003    0.0000 C   0  0  0  0  0  0  0  0  0  0  0  0
    6.0010    1.5950    0.0000 C   0  0  2  0  0  0  0  0  0  0  0  0
    6.0010    2.5950    0.0000 C   0  0  1  0  0  0  0  0  0  0  0  0
    9.2629   -0.9050    0.0000 C   0  0  0  0  0  0  0  0  0  0  0  0
    6.8671   -1.9050    0.0000 C   0  0  0  0  0  0  0  0  0  0  0  0
    5.1350    3.0950    0.0000 C   0  0  2  0  0  0  0  0  0  0  0  0
    4.2690    2.5950    0.0000 C   0  0  1  0  0  0  0  0  0  0  0  0
    4.2690    1.5950    0.0000 C   0  0  1  0  0  0  0  0  0  0  0  0
    8.9900    0.8503    0.0000 C   0  0  0  0  0  0  0  0  0  0  0  0
    6.0010   -1.4050    0.0000 C   0  0  0  0  0  0  0  0  0  0  0  0
    3.4030    1.0950    0.0000 C   0  0  0  0  0  0  0  0  0  0  0  0
    6.8671   -2.9050    0.0000 C   0  0  0  0  0  0  0  0  0  0  0  0
    6.0010   -4.4050    0.0000 C   0  0  0  0  0  0  0  0  0  0  0  0
    7.8230    0.4402    0.0000 H   0  0  0  0  0  0  0  0  0  0  0  0
    7.8230   -2.2502    0.0000 H   0  0  0  0  0  0  0  0  0  0  0  0
    6.3301    0.4050    0.0000 H   0  0  0  0  0  0  0  0  0  0  0  0
    8.4283   -2.2766    0.0000 H   0  0  0  0  0  0  0  0  0  0  0  0
    9.2167   -2.0190    0.0000 H   0  0  0  0  0  0  0  0  0  0  0  0
    6.5380    1.9050    0.0000 H   0  0  0  0  0  0  0  0  0  0  0  0
    6.5380    2.2850    0.0000 H   0  0  0  0  0  0  0  0  0  0  0  0
    9.8829   -0.9050    0.0000 H   0  0  0  0  0  0  0  0  0  0  0  0
    5.6720    3.4050    0.0000 H   0  0  0  0  0  0  0  0  0  0  0  0
    4.2690    3.2150    0.0000 H   0  0  0  0  0  0  0  0  0  0  0  0
    4.2690    0.9750    0.0000 H   0  0  0  0  0  0  0  0  0  0  0  0
    8.9694    1.4699    0.0000 H   0  0  0  0  0  0  0  0  0  0  0  0
    8.3762    0.9376    0.0000 H   0  0  0  0  0  0  0  0  0  0  0  0
    5.4641   -1.7150    0.0000 H   0  0  0  0  0  0  0  0  0  0  0  0
    3.0044    0.6201    0.0000 H   0  0  0  0  0  0  0  0  0  0  0  0
    3.8015    0.6201    0.0000 H   0  0  0  0  0  0  0  0  0  0  0  0
    6.8671    3.7150    0.0000 H   0  0  0  0  0  0  0  0  0  0  0  0
    4.5981    4.4050    0.0000 H   0  0  0  0  0  0  0  0  0  0  0  0
    3.4030    3.7150    0.0000 H   0  0  0  0  0  0  0  0  0  0  0  0
   10.1611    1.6458    0.0000 H   0  0  0  0  0  0  0  0  0  0  0  0
    2.0000    1.2850    0.0000 H   0  0  0  0  0  0  0  0  0  0  0  0
    5.3810   -4.4050    0.0000 H   0  0  0  0  0  0  0  0  0  0  0  0
    6.0010   -5.0250    0.0000 H   0  0  0  0  0  0  0  0  0  0  0  0
    6.6210   -4.4050    0.0000 H   0  0  0  0  0  0  0  0  0  0  0  0
 13  1  1  1  0  0  0
 16  1  1  6  0  0  0
  2 13  1  0  0  0  0
  2 24  1  0  0  0  0
  3 16  1  0  0  0  0
  3 22  1  0  0  0  0
 17  4  1  1  0  0  0
  4 44  1  0  0  0  0
 20  5  1  6  0  0  0
  5 45  1  0  0  0  0
 21  6  1  1  0  0  0
  6 46  1  0  0  0  0
  7 23  1  0  0  0  0
  7 47  1  0  0  0  0
  8 25  1  0  0  0  0
  8 48  1  0  0  0  0
  9 26  1  0  0  0  0
  9 27  1  0  0  0  0
 10 26  2  0  0  0  0
 11 12  1  0  0  0  0
 11 13  1  0  0  0  0
 11 15  1  0  0  0  0
 11 28  1  1  0  0  0
 12 14  1  0  0  0  0
 12 19  1  0  0  0  0
 12 29  1  1  0  0  0
 13 30  1  0  0  0  0
 14 18  1  0  0  0  0
 14 31  1  0  0  0  0
 14 32  1  0  0  0  0
 15 18  2  0  0  0  0
 15 23  1  0  0  0  0
 16 17  1  0  0  0  0
 16 33  1  0  0  0  0
 17 20  1  0  0  0  0
 17 34  1  0  0  0  0
 18 35  1  0  0  0  0
 19 24  2  0  0  0  0
 19 26  1  0  0  0  0
 20 21  1  0  0  0  0
 20 36  1  0  0  0  0
 21 22  1  0  0  0  0
 21 37  1  0  0  0  0
 22 25  1  6  0  0  0
 22 38  1  0  0  0  0
 23 39  1  0  0  0  0
 23 40  1  0  0  0  0
 24 41  1  0  0  0  0
 25 42  1  0  0  0  0
 25 43  1  0  0  0  0
 27 49  1  0  0  0  0
 27 50  1  0  0  0  0
 27 51  1  0  0  0  0
M  END
> <PUBCHEM_COMPOUND_CID>
107848

> <PUBCHEM_COMPOUND_CANONICALIZED>
1

> <PUBCHEM_CACTVS_COMPLEXITY>
617

> <PUBCHEM_CACTVS_HBOND_ACCEPTOR>
10

> <PUBCHEM_CACTVS_HBOND_DONOR>
5

> <PUBCHEM_CACTVS_ROTATABLE_BOND>
6

> <PUBCHEM_CACTVS_SUBSKEYS>
AAADceB4PAAAAAAAAAAAAAAAAAAAAQAAAAAkQAAAAAAAAEAAAAAAGgAACAAADRSwgAMCCAAABgCIAiDSCAAACAAgIAAACAEAAEgRFBIAIQAiUAAFwAAPMIPIbAwOgAAAAAAAAAAAAAAAAAAAAAAAAAAAAA==

> <PUBCHEM_IUPAC_OPENEYE_NAME>
methyl (1S,4aS,7aS)-7-(hydroxymethyl)-1-[(2S,3R,4S,5S,6R)-3,4,5-trihydroxy-6-(hydroxymethyl)tetrahydropyran-2-yl]oxy-1,4a,5,7a-tetrahydrocyclopenta[c]pyran-4-carboxylate

> <PUBCHEM_IUPAC_CAS_NAME>
(1S,4aS,7aS)-7-(hydroxymethyl)-1-[[(2S,3R,4S,5S,6R)-3,4,5-trihydroxy-6-(hydroxymethyl)-2-oxanyl]oxy]-1,4a,5,7a-tetrahydrocyclopenta[c]pyran-4-carboxylic acid methyl ester

> <PUBCHEM_IUPAC_NAME>
methyl (1S,4aS,7aS)-7-(hydroxymethyl)-1-[(2S,3R,4S,5S,6R)-3,4,5-trihydroxy-6-(hydroxymethyl)oxan-2-yl]oxy-1,4a,5,7a-tetrahydrocyclopenta[c]pyran-4-carboxylate

> <PUBCHEM_IUPAC_SYSTEMATIC_NAME>
methyl (1S,4aS,7aS)-7-(hydroxymethyl)-1-[(2S,3R,4S,5S,6R)-6-(hydroxymethyl)-3,4,5-tris(oxidanyl)oxan-2-yl]oxy-1,4a,5,7a-tetrahydrocyclopenta[c]pyran-4-carboxylate

> <PUBCHEM_IUPAC_TRADITIONAL_NAME>
(1S,4aS,7aS)-7-methylol-1-[(2S,3R,4S,5S,6R)-3,4,5-trihydroxy-6-methylol-tetrahydropyran-2-yl]oxy-1,4a,5,7a-tetrahydrocyclopenta[c]pyran-4-carboxylic acid methyl ester

> <PUBCHEM_IUPAC_INCHI>
InChI=1S/C17H24O10/c1-24-15(23)9-6-25-16(11-7(4-18)2-3-8(9)11)27-17-14(22)13(21)12(20)10(5-19)26-17/h2,6,8,10-14,16-22H,3-5H2,1H3/t8-,10-,11-,12-,13+,14-,16+,17+/m1/s1

> <PUBCHEM_IUPAC_INCHIKEY>
IBFYXTRXDNAPMM-BVTMAQQCSA-N

> <PUBCHEM_XLOGP3_AA>
-2.3

> <PUBCHEM_EXACT_MASS>
388.136947

> <PUBCHEM_MOLECULAR_FORMULA>
C17H24O10

> <PUBCHEM_MOLECULAR_WEIGHT>
388.36646

> <PUBCHEM_OPENEYE_CAN_SMILES>
COC(=O)C1=COC(C2C1CC=C2CO)OC3C(C(C(C(O3)CO)O)O)O

> <PUBCHEM_OPENEYE_ISO_SMILES>
COC(=O)C1=CO[C@H]([C@H]2[C@@H]1CC=C2CO)O[C@H]3[C@@H]([C@H]([C@@H]([C@H](O3)CO)O)O)O

> <PUBCHEM_CACTVS_TPSA>
155

> <PUBCHEM_MONOISOTOPIC_WEIGHT>
388.136947

> <PUBCHEM_TOTAL_CHARGE>
0

> <PUBCHEM_HEAVY_ATOM_COUNT>
27

> <PUBCHEM_ATOM_DEF_STEREO_COUNT>
8

> <PUBCHEM_ATOM_UDEF_STEREO_COUNT>
0

> <PUBCHEM_BOND_DEF_STEREO_COUNT>
0

> <PUBCHEM_BOND_UDEF_STEREO_COUNT>
0

> <PUBCHEM_ISOTOPIC_ATOM_COUNT>
0

> <PUBCHEM_COMPONENT_COUNT>
1

> <PUBCHEM_CACTVS_TAUTO_COUNT>
1

> <PUBCHEM_COORDINATE_TYPE>
1
5
255

> <PUBCHEM_BONDANNOTATIONS>
13  1  5
16  1  6
11  28  5
12  29  5
22  25  6
17  4  5
20  5  6
21  6  5

$$$$

