   Color/Form
        BROWNISH POWDER
   from [1]HSDB

   Odor
        BALSAMIC, FRUITY ODOR SOMEWHAT REMINISCENT OF GRAPE
   from [2]HSDB

   Boiling Point
        332 DEG C
   from [3]HSDB

   Melting Point
        GREATER THAN 60 DEG C
   from [4]HSDB

   Density/Specific Gravity
        1.180 @ 15.5 DEG C
   from [5]HSDB

   Solubilities
        INSOL IN WATER; SOL IN ETHANOL (50 G/L IN 95% ETHANOL), IN DIETHYL
   ETHER & CHLOROFORM
   from [6]HSDB

   Computed Properties
   Molecular Weight                  253.2958 [g/mol]
   Molecular Formula                 C[16]H[15]NO[2]
   XLogP3                            4
   H-Bond Donor                      1
   H-Bond Acceptor                   3
   Rotatable Bond Count              5
   Tautomer Count                    4
   Exact Mass                        253.110279
   MonoIsotopic Mass                 253.110279
   Topological Polar Surface Area    52.3
   Heavy Atom Count                  19
   Formal Charge                     0
   Complexity                        308
   Isotope Atom Count                0
   Defined Atom Stereocenter Count   0
   Undefined Atom Stereocenter Count 0
   Defined Bond Stereocenter Count   1
   Undefined Bond Stereocenter Count 0
   Covalently-Bonded Unit Count      1
   Feature 3D Acceptor Count         1
   Feature 3D Donor Count            1
   Feature 3D Cation Count           1
   Feature 3D Ring Count             2
   Effective Rotor Count             5
   Conformer Sampling RMSD           0.8
   CID Conformer Count               [7]78

References

   1. http://toxnet.nlm.nih.gov/cgi-bin/sis/search/r?dbs+hsdb:@term+@rn+@rel+87-29-6
   2. http://toxnet.nlm.nih.gov/cgi-bin/sis/search/r?dbs+hsdb:@term+@rn+@rel+87-29-6
   3. http://toxnet.nlm.nih.gov/cgi-bin/sis/search/r?dbs+hsdb:@term+@rn+@rel+87-29-6
   4. http://toxnet.nlm.nih.gov/cgi-bin/sis/search/r?dbs+hsdb:@term+@rn+@rel+87-29-6
   5. http://toxnet.nlm.nih.gov/cgi-bin/sis/search/r?dbs+hsdb:@term+@rn+@rel+87-29-6
   6. http://toxnet.nlm.nih.gov/cgi-bin/sis/search/r?dbs+hsdb:@term+@rn+@rel+87-29-6
   7. http://pubchem.ncbi.nlm.nih.gov/vw3d/vw3d.cgi?cid=5284369
