439236
  -OEChem-07051212442D

 25 25  0     1  0  0  0  0  0999 V2000
    3.1697    1.2220    0.0000 P   0  0  0  0  0  0  0  0  0  0  0  0
    5.1377    0.5226    0.0000 O   0  0  0  0  0  0  0  0  0  0  0  0
    3.3776    0.2438    0.0000 O   0  0  0  0  0  0  0  0  0  0  0  0
    6.2255   -1.8253    0.0000 O   0  0  0  0  0  0  0  0  0  0  0  0
    4.0499   -1.8253    0.0000 O   0  0  0  0  0  0  0  0  0  0  0  0
    7.1057    1.2220    0.0000 O   0  0  0  0  0  0  0  0  0  0  0  0
    2.9618    2.2001    0.0000 O   0  0  0  0  0  0  0  0  0  0  0  0
    2.1916    1.0140    0.0000 O   0  0  0  0  0  0  0  0  0  0  0  0
    4.1479    1.4299    0.0000 O   0  0  0  0  0  0  0  0  0  0  0  0
    5.6377   -1.0163    0.0000 C   0  0  1  0  0  0  0  0  0  0  0  0
    4.6377   -1.0163    0.0000 C   0  0  2  0  0  0  0  0  0  0  0  0
    5.9467   -0.0652    0.0000 C   0  0  1  0  0  0  0  0  0  0  0  0
    4.3287   -0.0652    0.0000 C   0  0  2  0  0  0  0  0  0  0  0  0
    6.8978    0.2438    0.0000 C   0  0  0  0  0  0  0  0  0  0  0  0
    6.2501   -0.9193    0.0000 H   0  0  0  0  0  0  0  0  0  0  0  0
    4.9192   -1.5687    0.0000 H   0  0  0  0  0  0  0  0  0  0  0  0
    6.0437    0.5472    0.0000 H   0  0  0  0  0  0  0  0  0  0  0  0
    3.8903   -0.5036    0.0000 H   0  0  0  0  0  0  0  0  0  0  0  0
    6.9841   -0.3702    0.0000 H   0  0  0  0  0  0  0  0  0  0  0  0
    7.5174    0.2222    0.0000 H   0  0  0  0  0  0  0  0  0  0  0  0
    6.8421   -1.7605    0.0000 H   0  0  0  0  0  0  0  0  0  0  0  0
    4.3021   -2.3917    0.0000 H   0  0  0  0  0  0  0  0  0  0  0  0
    7.6954    1.4135    0.0000 H   0  0  0  0  0  0  0  0  0  0  0  0
    2.3722    2.3917    0.0000 H   0  0  0  0  0  0  0  0  0  0  0  0
    2.0000    0.4244    0.0000 H   0  0  0  0  0  0  0  0  0  0  0  0
  1  3  1  0  0  0  0
  1  7  1  0  0  0  0
  1  8  1  0  0  0  0
  1  9  2  0  0  0  0
  2 12  1  0  0  0  0
  2 13  1  0  0  0  0
 13  3  1  1  0  0  0
 10  4  1  1  0  0  0
  4 21  1  0  0  0  0
 11  5  1  1  0  0  0
  5 22  1  0  0  0  0
  6 14  1  0  0  0  0
  6 23  1  0  0  0  0
  7 24  1  0  0  0  0
  8 25  1  0  0  0  0
 10 11  1  0  0  0  0
 10 12  1  0  0  0  0
 10 15  1  0  0  0  0
 11 13  1  0  0  0  0
 11 16  1  0  0  0  0
 12 14  1  6  0  0  0
 12 17  1  0  0  0  0
 13 18  1  0  0  0  0
 14 19  1  0  0  0  0
 14 20  1  0  0  0  0
M  END
> <PUBCHEM_COMPOUND_CID>
439236

> <PUBCHEM_COMPOUND_CANONICALIZED>
1

> <PUBCHEM_CACTVS_COMPLEXITY>
238

> <PUBCHEM_CACTVS_HBOND_ACCEPTOR>
8

> <PUBCHEM_CACTVS_HBOND_DONOR>
5

> <PUBCHEM_CACTVS_ROTATABLE_BOND>
3

> <PUBCHEM_CACTVS_SUBSKEYS>
AAADccBgPAIAAAAAAAAAAAAAAAAAASAAAAAAAAAAAAAAAAAAAAAAGgAACCAACBSwgAMACAAABxAAQAAAAIAAAAAAAAAAAAAAAAAREAIAAAACQAAFAAAHAADAIAAAAAAAAAAAAAAAAAAAAAAAAAAAAAAAAA==

> <PUBCHEM_IUPAC_OPENEYE_NAME>
[(2R,3R,4S,5R)-3,4-dihydroxy-5-(hydroxymethyl)tetrahydrofuran-2-yl] dihydrogen phosphate

> <PUBCHEM_IUPAC_CAS_NAME>
[(2R,3R,4S,5R)-3,4-dihydroxy-5-(hydroxymethyl)-2-oxolanyl] dihydrogen phosphate

> <PUBCHEM_IUPAC_NAME>
[(2R,3R,4S,5R)-3,4-dihydroxy-5-(hydroxymethyl)oxolan-2-yl] dihydrogen phosphate

> <PUBCHEM_IUPAC_SYSTEMATIC_NAME>
[(2R,3R,4S,5R)-5-(hydroxymethyl)-3,4-bis(oxidanyl)oxolan-2-yl] dihydrogen phosphate

> <PUBCHEM_IUPAC_TRADITIONAL_NAME>
[(2R,3R,4S,5R)-3,4-dihydroxy-5-methylol-tetrahydrofuran-2-yl] dihydrogen phosphate

> <PUBCHEM_IUPAC_INCHI>
InChI=1S/C5H11O8P/c6-1-2-3(7)4(8)5(12-2)13-14(9,10)11/h2-8H,1H2,(H2,9,10,11)/t2-,3-,4-,5-/m1/s1

> <PUBCHEM_IUPAC_INCHIKEY>
YXJDFQJKERBOBM-TXICZTDVSA-N

> <PUBCHEM_XLOGP3_AA>
-3.1

> <PUBCHEM_EXACT_MASS>
230.019154

> <PUBCHEM_MOLECULAR_FORMULA>
C5H11O8P

> <PUBCHEM_MOLECULAR_WEIGHT>
230.109802

> <PUBCHEM_OPENEYE_CAN_SMILES>
C(C1C(C(C(O1)OP(=O)(O)O)O)O)O

> <PUBCHEM_OPENEYE_ISO_SMILES>
C([C@@H]1[C@H]([C@H]([C@H](O1)OP(=O)(O)O)O)O)O

> <PUBCHEM_CACTVS_TPSA>
137

> <PUBCHEM_MONOISOTOPIC_WEIGHT>
230.019154

> <PUBCHEM_TOTAL_CHARGE>
0

> <PUBCHEM_HEAVY_ATOM_COUNT>
14

> <PUBCHEM_ATOM_DEF_STEREO_COUNT>
4

> <PUBCHEM_ATOM_UDEF_STEREO_COUNT>
0

> <PUBCHEM_BOND_DEF_STEREO_COUNT>
0

> <PUBCHEM_BOND_UDEF_STEREO_COUNT>
0

> <PUBCHEM_ISOTOPIC_ATOM_COUNT>
0

> <PUBCHEM_COMPONENT_COUNT>
1

> <PUBCHEM_CACTVS_TAUTO_COUNT>
1

> <PUBCHEM_COORDINATE_TYPE>
1
5
255

> <PUBCHEM_BONDANNOTATIONS>
12  14  6
13  3  5
10  4  5
11  5  5

$$$$

