3081545
  -OEChem-07051212462D

 78 81  0     1  0  0  0  0  0999 V2000
    7.7610   -1.0216    0.0000 O   0  0  0  0  0  0  0  0  0  0  0  0
    6.0010    1.0131    0.0000 O   0  0  0  0  0  0  0  0  0  0  0  0
    9.5312   -1.0111    0.0000 O   0  0  0  0  0  0  0  0  0  0  0  0
    4.2690    1.0131    0.0000 O   0  0  0  0  0  0  0  0  0  0  0  0
    6.0010   -1.9869    0.0000 O   0  0  0  0  0  0  0  0  0  0  0  0
    5.1350    2.5131    0.0000 O   0  0  0  0  0  0  0  0  0  0  0  0
    7.7953   -2.0044    0.0000 O   0  0  0  0  0  0  0  0  0  0  0  0
    7.7876   -4.0044    0.0000 O   0  0  0  0  0  0  0  0  0  0  0  0
    2.5369    2.0131    0.0000 O   0  0  0  0  0  0  0  0  0  0  0  0
    2.5369    4.0131    0.0000 O   0  0  0  0  0  0  0  0  0  0  0  0
    6.8671    3.5131    0.0000 O   0  0  0  0  0  0  0  0  0  0  0  0
    4.2690   -0.9869    0.0000 N   0  0  0  0  0  0  0  0  0  0  0  0
    9.5312    1.0372    0.0000 N   0  0  0  0  0  0  0  0  0  0  0  0
   11.2593   -2.0177    0.0000 N   0  0  0  0  0  0  0  0  0  0  0  0
    9.5158   -5.0110    0.0000 N   0  0  0  0  0  0  0  0  0  0  0  0
    4.2690    5.0131    0.0000 N   0  0  0  0  0  0  0  0  0  0  0  0
    6.8671   -0.4869    0.0000 C   0  0  1  0  0  0  0  0  0  0  0  0
    6.8671    0.5131    0.0000 C   0  0  2  0  0  0  0  0  0  0  0  0
    6.0010   -0.9869    0.0000 C   0  0  1  0  0  0  0  0  0  0  0  0
    7.7610    1.0478    0.0000 C   0  0  0  0  0  0  0  0  0  0  0  0
    5.1350   -0.4869    0.0000 C   0  0  1  0  0  0  0  0  0  0  0  0
    8.6671    0.5339    0.0000 C   0  0  2  0  0  0  0  0  0  0  0  0
    8.6671   -0.5077    0.0000 C   0  0  2  0  0  0  0  0  0  0  0  0
    5.1350    0.5131    0.0000 C   0  0  2  0  0  0  0  0  0  0  0  0
    9.5273   -2.0110    0.0000 C   0  0  2  0  0  0  0  0  0  0  0  0
   10.3914   -2.5144    0.0000 C   0  0  2  0  0  0  0  0  0  0  0  0
    8.6594   -2.5077    0.0000 C   0  0  1  0  0  0  0  0  0  0  0  0
    8.6555   -3.5077    0.0000 C   0  0  2  0  0  0  0  0  0  0  0  0
   10.3875   -3.5144    0.0000 C   0  0  0  0  0  0  0  0  0  0  0  0
    9.5196   -4.0110    0.0000 C   0  0  1  0  0  0  0  0  0  0  0  0
    4.2690    2.0131    0.0000 C   0  0  1  0  0  0  0  0  0  0  0  0
    3.4030    2.5131    0.0000 C   0  0  1  0  0  0  0  0  0  0  0  0
    3.4030    3.5131    0.0000 C   0  0  2  0  0  0  0  0  0  0  0  0
    4.2690    4.0131    0.0000 C   0  0  1  0  0  0  0  0  0  0  0  0
    5.1350    3.5131    0.0000 C   0  0  1  0  0  0  0  0  0  0  0  0
    4.2690   -1.9869    0.0000 C   0  0  0  0  0  0  0  0  0  0  0  0
    6.0010    4.0131    0.0000 C   0  0  0  0  0  0  0  0  0  0  0  0
    6.8605   -1.3369    0.0000 H   0  0  0  0  0  0  0  0  0  0  0  0
    6.8605    1.3631    0.0000 H   0  0  0  0  0  0  0  0  0  0  0  0
    6.5380   -1.2969    0.0000 H   0  0  0  0  0  0  0  0  0  0  0  0
    8.1546    1.5268    0.0000 H   0  0  0  0  0  0  0  0  0  0  0  0
    7.3564    1.5175    0.0000 H   0  0  0  0  0  0  0  0  0  0  0  0
    5.1350   -1.1069    0.0000 H   0  0  0  0  0  0  0  0  0  0  0  0
    8.6635    1.1539    0.0000 H   0  0  0  0  0  0  0  0  0  0  0  0
    8.6635   -1.1277    0.0000 H   0  0  0  0  0  0  0  0  0  0  0  0
    5.1350    1.1331    0.0000 H   0  0  0  0  0  0  0  0  0  0  0  0
    8.9916   -1.6990    0.0000 H   0  0  0  0  0  0  0  0  0  0  0  0
   10.3938   -1.8944    0.0000 H   0  0  0  0  0  0  0  0  0  0  0  0
    8.1212   -2.8156    0.0000 H   0  0  0  0  0  0  0  0  0  0  0  0
    8.1198   -3.1956    0.0000 H   0  0  0  0  0  0  0  0  0  0  0  0
   10.5974   -4.0978    0.0000 H   0  0  0  0  0  0  0  0  0  0  0  0
   10.9985   -3.4091    0.0000 H   0  0  0  0  0  0  0  0  0  0  0  0
   10.0553   -4.3231    0.0000 H   0  0  0  0  0  0  0  0  0  0  0  0
    3.7320   -0.6769    0.0000 H   0  0  0  0  0  0  0  0  0  0  0  0
    3.7320    1.7031    0.0000 H   0  0  0  0  0  0  0  0  0  0  0  0
    9.5288    1.6572    0.0000 H   0  0  0  0  0  0  0  0  0  0  0  0
   10.0693    0.7293    0.0000 H   0  0  0  0  0  0  0  0  0  0  0  0
    3.4030    1.8931    0.0000 H   0  0  0  0  0  0  0  0  0  0  0  0
    5.4641   -2.2969    0.0000 H   0  0  0  0  0  0  0  0  0  0  0  0
    3.4030    4.1331    0.0000 H   0  0  0  0  0  0  0  0  0  0  0  0
    4.8059    4.3231    0.0000 H   0  0  0  0  0  0  0  0  0  0  0  0
    5.6720    3.2031    0.0000 H   0  0  0  0  0  0  0  0  0  0  0  0
   11.7951   -2.3298    0.0000 H   0  0  0  0  0  0  0  0  0  0  0  0
   11.2617   -1.3977    0.0000 H   0  0  0  0  0  0  0  0  0  0  0  0
   10.0515   -5.3231    0.0000 H   0  0  0  0  0  0  0  0  0  0  0  0
    8.9776   -5.3190    0.0000 H   0  0  0  0  0  0  0  0  0  0  0  0
    7.2571   -2.3123    0.0000 H   0  0  0  0  0  0  0  0  0  0  0  0
    3.6490   -1.9869    0.0000 H   0  0  0  0  0  0  0  0  0  0  0  0
    4.2690   -2.6069    0.0000 H   0  0  0  0  0  0  0  0  0  0  0  0
    4.8890   -1.9869    0.0000 H   0  0  0  0  0  0  0  0  0  0  0  0
    7.7852   -4.6244    0.0000 H   0  0  0  0  0  0  0  0  0  0  0  0
    6.3996    4.4880    0.0000 H   0  0  0  0  0  0  0  0  0  0  0  0
    5.6025    4.4880    0.0000 H   0  0  0  0  0  0  0  0  0  0  0  0
    3.7320    5.3231    0.0000 H   0  0  0  0  0  0  0  0  0  0  0  0
    4.8059    5.3231    0.0000 H   0  0  0  0  0  0  0  0  0  0  0  0
    2.0000    2.3231    0.0000 H   0  0  0  0  0  0  0  0  0  0  0  0
    2.0000    3.7031    0.0000 H   0  0  0  0  0  0  0  0  0  0  0  0
    7.4040    3.8231    0.0000 H   0  0  0  0  0  0  0  0  0  0  0  0
  1 17  1  0  0  0  0
  1 23  1  0  0  0  0
  2 18  1  0  0  0  0
  2 24  1  0  0  0  0
 23  3  1  1  0  0  0
 25  3  1  6  0  0  0
 24  4  1  1  0  0  0
 31  4  1  6  0  0  0
 19  5  1  6  0  0  0
  5 59  1  0  0  0  0
  6 31  1  0  0  0  0
  6 35  1  0  0  0  0
 27  7  1  1  0  0  0
  7 67  1  0  0  0  0
 28  8  1  6  0  0  0
  8 71  1  0  0  0  0
 32  9  1  6  0  0  0
  9 76  1  0  0  0  0
 33 10  1  1  0  0  0
 10 77  1  0  0  0  0
 11 37  1  0  0  0  0
 11 78  1  0  0  0  0
 21 12  1  6  0  0  0
 12 36  1  0  0  0  0
 12 54  1  0  0  0  0
 22 13  1  1  0  0  0
 13 56  1  0  0  0  0
 13 57  1  0  0  0  0
 26 14  1  1  0  0  0
 14 63  1  0  0  0  0
 14 64  1  0  0  0  0
 30 15  1  1  0  0  0
 15 65  1  0  0  0  0
 15 66  1  0  0  0  0
 34 16  1  6  0  0  0
 16 74  1  0  0  0  0
 16 75  1  0  0  0  0
 17 18  1  0  0  0  0
 17 19  1  0  0  0  0
 17 38  1  1  0  0  0
 18 20  1  0  0  0  0
 18 39  1  6  0  0  0
 19 21  1  0  0  0  0
 19 40  1  0  0  0  0
 20 22  1  0  0  0  0
 20 41  1  0  0  0  0
 20 42  1  0  0  0  0
 21 24  1  0  0  0  0
 21 43  1  0  0  0  0
 22 23  1  0  0  0  0
 22 44  1  0  0  0  0
 23 45  1  0  0  0  0
 24 46  1  0  0  0  0
 25 26  1  0  0  0  0
 25 27  1  0  0  0  0
 25 47  1  0  0  0  0
 26 29  1  0  0  0  0
 26 48  1  0  0  0  0
 27 28  1  0  0  0  0
 27 49  1  0  0  0  0
 28 30  1  0  0  0  0
 28 50  1  0  0  0  0
 29 30  1  0  0  0  0
 29 51  1  0  0  0  0
 29 52  1  0  0  0  0
 30 53  1  0  0  0  0
 31 32  1  0  0  0  0
 31 55  1  0  0  0  0
 32 33  1  0  0  0  0
 32 58  1  0  0  0  0
 33 34  1  0  0  0  0
 33 60  1  0  0  0  0
 34 35  1  0  0  0  0
 34 61  1  0  0  0  0
 35 37  1  1  0  0  0
 35 62  1  0  0  0  0
 36 68  1  0  0  0  0
 36 69  1  0  0  0  0
 36 70  1  0  0  0  0
 37 72  1  0  0  0  0
 37 73  1  0  0  0  0
M  END
> <PUBCHEM_COMPOUND_CID>
3081545

> <PUBCHEM_COMPOUND_CANONICALIZED>
1

> <PUBCHEM_CACTVS_COMPLEXITY>
760

> <PUBCHEM_CACTVS_HBOND_ACCEPTOR>
16

> <PUBCHEM_CACTVS_HBOND_DONOR>
11

> <PUBCHEM_CACTVS_ROTATABLE_BOND>
6

> <PUBCHEM_CACTVS_SUBSKEYS>
AAADcfB7vAAAAAAAAAAAAAAAAAAAAAAAAAA0SJEAAAAAAACQAAAAHgAQCAAACDzxgAcCCALABgAAAAAAAAAAAAAAAAAAAIAIAAATEAIAwAAnQAAHEAAXAAHw8K0AAAAAAAAAAAAAgAAUCACgAAAAAAAAAA==

> <PUBCHEM_IUPAC_OPENEYE_NAME>
(2R,3R,4S,5S,6S)-2-[[(2R,3S,4R,4aR,6S,7R,8aS)-7-amino-6-[(1R,2R,3S,4R,6S)-4,6-diamino-2,3-dihydroxy-cyclohexoxy]-4-hydroxy-3-(methylamino)-2,3,4,4a,6,7,8,8a-octahydropyrano[3,2-b]pyran-2-yl]oxy]-5-amino-6-(hydroxymethyl)tetrahydropyran-3,4-diol

> <PUBCHEM_IUPAC_CAS_NAME>
(2R,3R,4S,5S,6S)-2-[[(2R,3S,4R,4aR,6S,7R,8aS)-7-amino-6-[(1R,2R,3S,4R,6S)-4,6-diamino-2,3-dihydroxycyclohexyl]oxy-4-hydroxy-3-(methylamino)-2,3,4,4a,6,7,8,8a-octahydropyrano[3,2-b]pyran-2-yl]oxy]-5-amino-6-(hydroxymethyl)oxane-3,4-diol

> <PUBCHEM_IUPAC_NAME>
(2R,3R,4S,5S,6S)-2-[[(2R,3S,4R,4aR,6S,7R,8aS)-7-amino-6-[(1R,2R,3S,4R,6S)-4,6-diamino-2,3-dihydroxycyclohexyl]oxy-4-hydroxy-3-(methylamino)-2,3,4,4a,6,7,8,8a-octahydropyrano[3,2-b]pyran-2-yl]oxy]-5-amino-6-(hydroxymethyl)oxane-3,4-diol

> <PUBCHEM_IUPAC_SYSTEMATIC_NAME>
(2R,3R,4S,5S,6S)-2-[[(2R,3S,4R,4aR,6S,7R,8aS)-7-azanyl-6-[(1R,2R,3S,4R,6S)-4,6-bis(azanyl)-2,3-bis(oxidanyl)cyclohexyl]oxy-3-(methylamino)-4-oxidanyl-2,3,4,4a,6,7,8,8a-octahydropyrano[3,2-b]pyran-2-yl]oxy]-5-azanyl-6-(hydroxymethyl)oxane-3,4-diol

> <PUBCHEM_IUPAC_TRADITIONAL_NAME>
(2R,3R,4S,5S,6S)-2-[[(2R,3S,4R,4aR,6S,7R,8aS)-7-amino-6-[(1R,2R,3S,4R,6S)-4,6-diamino-2,3-dihydroxy-cyclohexoxy]-4-hydroxy-3-(methylamino)-2,3,4,4a,6,7,8,8a-octahydropyrano[3,2-b]pyran-2-yl]oxy]-5-amino-6-methylol-tetrahydropyran-3,4-diol

> <PUBCHEM_IUPAC_INCHI>
InChI=1S/C21H41N5O11/c1-26-11-14(30)18-8(33-20(11)37-21-16(32)13(29)10(25)9(4-27)34-21)3-7(24)19(36-18)35-17-6(23)2-5(22)12(28)15(17)31/h5-21,26-32H,2-4,22-25H2,1H3/t5-,6+,7-,8+,9-,10-,11+,12+,13+,14-,15-,16-,17-,18+,19+,20-,21-/m1/s1

> <PUBCHEM_IUPAC_INCHIKEY>
XZNUGFQTQHRASN-XQENGBIVSA-N

> <PUBCHEM_XLOGP3_AA>
-7

> <PUBCHEM_EXACT_MASS>
539.280257

> <PUBCHEM_MOLECULAR_FORMULA>
C21H41N5O11

> <PUBCHEM_MOLECULAR_WEIGHT>
539.57714

> <PUBCHEM_OPENEYE_CAN_SMILES>
CNC1C(C2C(CC(C(O2)OC3C(CC(C(C3O)O)N)N)N)OC1OC4C(C(C(C(O4)CO)N)O)O)O

> <PUBCHEM_OPENEYE_ISO_SMILES>
CN[C@H]1[C@H]([C@@H]2[C@H](C[C@H]([C@H](O2)O[C@@H]3[C@H](C[C@H]([C@@H]([C@H]3O)O)N)N)N)O[C@@H]1O[C@@H]4[C@@H]([C@H]([C@@H]([C@H](O4)CO)N)O)O)O

> <PUBCHEM_CACTVS_TPSA>
284

> <PUBCHEM_MONOISOTOPIC_WEIGHT>
539.280257

> <PUBCHEM_TOTAL_CHARGE>
0

> <PUBCHEM_HEAVY_ATOM_COUNT>
37

> <PUBCHEM_ATOM_DEF_STEREO_COUNT>
17

> <PUBCHEM_ATOM_UDEF_STEREO_COUNT>
0

> <PUBCHEM_BOND_DEF_STEREO_COUNT>
0

> <PUBCHEM_BOND_UDEF_STEREO_COUNT>
0

> <PUBCHEM_ISOTOPIC_ATOM_COUNT>
0

> <PUBCHEM_COMPONENT_COUNT>
1

> <PUBCHEM_CACTVS_TAUTO_COUNT>
1

> <PUBCHEM_COORDINATE_TYPE>
1
5
255

> <PUBCHEM_BONDANNOTATIONS>
33  10  5
21  12  6
22  13  5
26  14  5
30  15  5
34  16  6
17  38  5
18  39  6
23  3  5
25  3  6
35  37  5
24  4  5
31  4  6
19  5  6
27  7  5
28  8  6
32  9  6

$$$$

