4306
  -OEChem-06261200022D

 43 44  0     0  0  0  0  0  0999 V2000
   12.9456   -2.0773    0.0000 Cl  0  0  0  0  0  0  0  0  0  0  0  0
    9.4651    0.9573    0.0000 S   0  0  0  0  0  0  0  0  0  0  0  0
    8.9651    0.0913    0.0000 O   0  0  0  0  0  0  0  0  0  0  0  0
    9.9651    1.8233    0.0000 O   0  0  0  0  0  0  0  0  0  0  0  0
    8.5991    1.4573    0.0000 N   0  0  0  0  0  0  0  0  0  0  0  0
    2.5369    0.9573    0.0000 N   0  0  0  0  0  0  0  0  0  0  0  0
    6.0010    0.9573    0.0000 C   0  0  0  0  0  0  0  0  0  0  0  0
    6.8671    1.4573    0.0000 C   0  0  0  0  0  0  0  0  0  0  0  0
    5.1350    1.4573    0.0000 C   0  0  0  0  0  0  0  0  0  0  0  0
    7.7331    0.9573    0.0000 C   0  0  0  0  0  0  0  0  0  0  0  0
    4.2690    0.9573    0.0000 C   0  0  0  0  0  0  0  0  0  0  0  0
   10.3312    0.4573    0.0000 C   0  0  0  0  0  0  0  0  0  0  0  0
    3.4030    1.4573    0.0000 C   0  0  0  0  0  0  0  0  0  0  0  0
   11.1972    0.9573    0.0000 C   0  0  0  0  0  0  0  0  0  0  0  0
   12.0632    0.4573    0.0000 C   0  0  0  0  0  0  0  0  0  0  0  0
   12.0632   -0.5427    0.0000 C   0  0  0  0  0  0  0  0  0  0  0  0
   10.3312   -0.5427    0.0000 C   0  0  0  0  0  0  0  0  0  0  0  0
   11.1972   -1.0427    0.0000 C   0  0  0  0  0  0  0  0  0  0  0  0
   12.9572    0.9920    0.0000 C   0  0  0  0  0  0  0  0  0  0  0  0
   12.9572   -1.0774    0.0000 C   0  0  0  0  0  0  0  0  0  0  0  0
   13.8632    0.4781    0.0000 C   0  0  0  0  0  0  0  0  0  0  0  0
   13.8632   -0.5635    0.0000 C   0  0  0  0  0  0  0  0  0  0  0  0
    5.6025    0.4824    0.0000 H   0  0  0  0  0  0  0  0  0  0  0  0
    6.3996    0.4824    0.0000 H   0  0  0  0  0  0  0  0  0  0  0  0
    7.2656    1.9322    0.0000 H   0  0  0  0  0  0  0  0  0  0  0  0
    6.4685    1.9322    0.0000 H   0  0  0  0  0  0  0  0  0  0  0  0
    5.5335    1.9322    0.0000 H   0  0  0  0  0  0  0  0  0  0  0  0
    4.7365    1.9322    0.0000 H   0  0  0  0  0  0  0  0  0  0  0  0
    7.3346    0.4824    0.0000 H   0  0  0  0  0  0  0  0  0  0  0  0
    8.1316    0.4824    0.0000 H   0  0  0  0  0  0  0  0  0  0  0  0
    3.8705    0.4824    0.0000 H   0  0  0  0  0  0  0  0  0  0  0  0
    4.6675    0.4824    0.0000 H   0  0  0  0  0  0  0  0  0  0  0  0
    8.5991    2.0773    0.0000 H   0  0  0  0  0  0  0  0  0  0  0  0
    3.8015    1.9322    0.0000 H   0  0  0  0  0  0  0  0  0  0  0  0
    3.0044    1.9322    0.0000 H   0  0  0  0  0  0  0  0  0  0  0  0
   11.1972    1.5773    0.0000 H   0  0  0  0  0  0  0  0  0  0  0  0
    9.7942   -0.8527    0.0000 H   0  0  0  0  0  0  0  0  0  0  0  0
   11.1972   -1.6627    0.0000 H   0  0  0  0  0  0  0  0  0  0  0  0
   12.9500    1.6119    0.0000 H   0  0  0  0  0  0  0  0  0  0  0  0
    2.0000    1.2673    0.0000 H   0  0  0  0  0  0  0  0  0  0  0  0
    2.5369    0.3373    0.0000 H   0  0  0  0  0  0  0  0  0  0  0  0
   14.3990    0.7902    0.0000 H   0  0  0  0  0  0  0  0  0  0  0  0
   14.3990   -0.8756    0.0000 H   0  0  0  0  0  0  0  0  0  0  0  0
  1 20  1  0  0  0  0
  2  3  2  0  0  0  0
  2  4  2  0  0  0  0
  2  5  1  0  0  0  0
  2 12  1  0  0  0  0
  5 10  1  0  0  0  0
  5 33  1  0  0  0  0
  6 13  1  0  0  0  0
  6 40  1  0  0  0  0
  6 41  1  0  0  0  0
  7  8  1  0  0  0  0
  7  9  1  0  0  0  0
  7 23  1  0  0  0  0
  7 24  1  0  0  0  0
  8 10  1  0  0  0  0
  8 25  1  0  0  0  0
  8 26  1  0  0  0  0
  9 11  1  0  0  0  0
  9 27  1  0  0  0  0
  9 28  1  0  0  0  0
 10 29  1  0  0  0  0
 10 30  1  0  0  0  0
 11 13  1  0  0  0  0
 11 31  1  0  0  0  0
 11 32  1  0  0  0  0
 12 14  2  0  0  0  0
 12 17  1  0  0  0  0
 13 34  1  0  0  0  0
 13 35  1  0  0  0  0
 14 15  1  0  0  0  0
 14 36  1  0  0  0  0
 15 16  2  0  0  0  0
 15 19  1  0  0  0  0
 16 18  1  0  0  0  0
 16 20  1  0  0  0  0
 17 18  2  0  0  0  0
 17 37  1  0  0  0  0
 18 38  1  0  0  0  0
 19 21  2  0  0  0  0
 19 39  1  0  0  0  0
 20 22  2  0  0  0  0
 21 22  1  0  0  0  0
 21 42  1  0  0  0  0
 22 43  1  0  0  0  0
M  END
> <PUBCHEM_COMPOUND_CID>
4306

> <PUBCHEM_COMPOUND_CANONICALIZED>
1

> <PUBCHEM_CACTVS_COMPLEXITY>
424

> <PUBCHEM_CACTVS_HBOND_ACCEPTOR>
4

> <PUBCHEM_CACTVS_HBOND_DONOR>
2

> <PUBCHEM_CACTVS_ROTATABLE_BOND>
8

> <PUBCHEM_CACTVS_SUBSKEYS>
AAADceB7MABEAAAAAAAAAAAAAAAAAAAAAAAwYAAAAAAAAADBUAAAHAYQQAAADALBWCQwAcBAAAKAAiBCAHBCABAgBQAIiJgAAogIICKBkxCAIAAgkAAIiAcQgIAOkAAAoAARAAAgAAFAACIAAAAAAAAAAA==

> <PUBCHEM_IUPAC_OPENEYE_NAME>
N-(6-aminohexyl)-5-chloro-naphthalene-2-sulfonamide

> <PUBCHEM_IUPAC_CAS_NAME>
N-(6-aminohexyl)-5-chloro-2-naphthalenesulfonamide

> <PUBCHEM_IUPAC_NAME>
N-(6-aminohexyl)-5-chloronaphthalene-2-sulfonamide

> <PUBCHEM_IUPAC_SYSTEMATIC_NAME>
N-(6-azanylhexyl)-5-chloranyl-naphthalene-2-sulfonamide

> <PUBCHEM_IUPAC_TRADITIONAL_NAME>
N-(6-aminohexyl)-5-chloro-naphthalene-2-sulfonamide

> <PUBCHEM_IUPAC_INCHI>
InChI=1S/C16H21ClN2O2S/c17-16-7-5-6-13-12-14(8-9-15(13)16)22(20,21)19-11-4-2-1-3-10-18/h5-9,12,19H,1-4,10-11,18H2

> <PUBCHEM_IUPAC_INCHIKEY>
WAEIMOCPASQBSR-UHFFFAOYSA-N

> <PUBCHEM_XLOGP3_AA>
3.3

> <PUBCHEM_EXACT_MASS>
340.101227

> <PUBCHEM_MOLECULAR_FORMULA>
C16H21ClN2O2S

> <PUBCHEM_MOLECULAR_WEIGHT>
340.86814

> <PUBCHEM_OPENEYE_CAN_SMILES>
C1=CC2=C(C=CC(=C2)S(=O)(=O)NCCCCCCN)C(=C1)Cl

> <PUBCHEM_OPENEYE_ISO_SMILES>
C1=CC2=C(C=CC(=C2)S(=O)(=O)NCCCCCCN)C(=C1)Cl

> <PUBCHEM_CACTVS_TPSA>
80.6

> <PUBCHEM_MONOISOTOPIC_WEIGHT>
340.101227

> <PUBCHEM_TOTAL_CHARGE>
0

> <PUBCHEM_HEAVY_ATOM_COUNT>
22

> <PUBCHEM_ATOM_DEF_STEREO_COUNT>
0

> <PUBCHEM_ATOM_UDEF_STEREO_COUNT>
0

> <PUBCHEM_BOND_DEF_STEREO_COUNT>
0

> <PUBCHEM_BOND_UDEF_STEREO_COUNT>
0

> <PUBCHEM_ISOTOPIC_ATOM_COUNT>
0

> <PUBCHEM_COMPONENT_COUNT>
1

> <PUBCHEM_CACTVS_TAUTO_COUNT>
1

> <PUBCHEM_COORDINATE_TYPE>
1
5
255

> <PUBCHEM_BONDANNOTATIONS>
12  14  8
12  17  8
14  15  8
15  16  8
15  19  8
16  18  8
16  20  8
17  18  8
19  21  8
20  22  8
21  22  8

$$$$

