46173764
  -OEChem-07051212522D

 38 40  0     1  0  0  0  0  0999 V2000
    3.3992    3.3573    0.0000 P   0  0  0  0  0  0  0  0  0  0  0  0
    4.4026    0.4365    0.0000 O   0  0  0  0  0  0  0  0  0  0  0  0
    6.7485   -0.6554    0.0000 O   0  0  0  0  0  0  0  0  0  0  0  0
    3.7066    2.4057    0.0000 O   0  0  0  0  0  0  0  0  0  0  0  0
    3.0918    4.3088    0.0000 O   0  0  0  0  0  0  0  0  0  0  0  0
    2.4476    3.0499    0.0000 O   0  0  0  0  0  0  0  0  0  0  0  0
    4.3508    3.6646    0.0000 O   0  0  0  0  0  0  0  0  0  0  0  0
    4.6783   -1.3241    0.0000 N   0  0  0  0  0  0  0  0  0  0  0  0
    6.7523    1.5202    0.0000 N   0  0  0  0  0  0  0  0  0  0  0  0
    4.6783   -2.9335    0.0000 N   0  0  0  0  0  0  0  0  0  0  0  0
    2.8660   -1.1288    0.0000 N   0  0  0  0  0  0  0  0  0  0  0  0
    2.0000   -2.6288    0.0000 N   0  0  0  0  0  0  0  0  0  0  0  0
    2.8660   -4.1288    0.0000 N   0  0  0  0  0  0  0  0  0  0  0  0
    5.9422    0.9338    0.0000 C   0  0  1  0  0  0  0  0  0  0  0  0
    5.9405   -0.0662    0.0000 C   0  0  2  0  0  0  0  0  0  0  0  0
    4.9917    1.2445    0.0000 C   0  0  1  0  0  0  0  0  0  0  0  0
    4.9889   -0.3736    0.0000 C   0  0  1  0  0  0  0  0  0  0  0  0
    4.6844    2.1961    0.0000 C   0  0  0  0  0  0  0  0  0  0  0  0
    3.7320   -1.6288    0.0000 C   0  0  0  0  0  0  0  0  0  0  0  0
    5.2619   -2.1288    0.0000 C   0  0  0  0  0  0  0  0  0  0  0  0
    3.7320   -2.6288    0.0000 C   0  0  0  0  0  0  0  0  0  0  0  0
    2.8660   -3.1288    0.0000 C   0  0  0  0  0  0  0  0  0  0  0  0
    2.0000   -1.6288    0.0000 C   0  0  0  0  0  0  0  0  0  0  0  0
    6.4942    0.6514    0.0000 H   0  0  0  0  0  0  0  0  0  0  0  0
    6.4934    0.2143    0.0000 H   0  0  0  0  0  0  0  0  0  0  0  0
    4.3795    1.3425    0.0000 H   0  0  0  0  0  0  0  0  0  0  0  0
    5.4266   -0.8127    0.0000 H   0  0  0  0  0  0  0  0  0  0  0  0
    5.2985    2.2813    0.0000 H   0  0  0  0  0  0  0  0  0  0  0  0
    4.7071    2.8157    0.0000 H   0  0  0  0  0  0  0  0  0  0  0  0
    6.6886    2.1369    0.0000 H   0  0  0  0  0  0  0  0  0  0  0  0
    7.3182    1.2670    0.0000 H   0  0  0  0  0  0  0  0  0  0  0  0
    7.3154   -0.4042    0.0000 H   0  0  0  0  0  0  0  0  0  0  0  0
    5.8819   -2.1288    0.0000 H   0  0  0  0  0  0  0  0  0  0  0  0
    1.4631   -1.3188    0.0000 H   0  0  0  0  0  0  0  0  0  0  0  0
    2.3291   -4.4388    0.0000 H   0  0  0  0  0  0  0  0  0  0  0  0
    3.4030   -4.4388    0.0000 H   0  0  0  0  0  0  0  0  0  0  0  0
    2.4856    4.4388    0.0000 H   0  0  0  0  0  0  0  0  0  0  0  0
    2.3177    2.4437    0.0000 H   0  0  0  0  0  0  0  0  0  0  0  0
  1  4  1  0  0  0  0
  1  5  1  0  0  0  0
  1  6  1  0  0  0  0
  1  7  2  0  0  0  0
  2 16  1  0  0  0  0
  2 17  1  0  0  0  0
 15  3  1  1  0  0  0
  3 32  1  0  0  0  0
  4 18  1  0  0  0  0
  5 37  1  0  0  0  0
  6 38  1  0  0  0  0
 17  8  1  6  0  0  0
  8 19  1  0  0  0  0
  8 20  1  0  0  0  0
 14  9  1  1  0  0  0
  9 30  1  0  0  0  0
  9 31  1  0  0  0  0
 10 20  2  0  0  0  0
 10 21  1  0  0  0  0
 11 19  1  0  0  0  0
 11 23  2  0  0  0  0
 12 22  2  0  0  0  0
 12 23  1  0  0  0  0
 13 22  1  0  0  0  0
 13 35  1  0  0  0  0
 13 36  1  0  0  0  0
 14 15  1  0  0  0  0
 14 16  1  0  0  0  0
 14 24  1  0  0  0  0
 15 17  1  0  0  0  0
 15 25  1  0  0  0  0
 16 18  1  6  0  0  0
 16 26  1  0  0  0  0
 17 27  1  0  0  0  0
 18 28  1  0  0  0  0
 18 29  1  0  0  0  0
 19 21  2  0  0  0  0
 20 33  1  0  0  0  0
 21 22  1  0  0  0  0
 23 34  1  0  0  0  0
M  END
> <PUBCHEM_COMPOUND_CID>
46173764

> <PUBCHEM_COMPOUND_CANONICALIZED>
1

> <PUBCHEM_CACTVS_COMPLEXITY>
481

> <PUBCHEM_CACTVS_HBOND_ACCEPTOR>
11

> <PUBCHEM_CACTVS_HBOND_DONOR>
5

> <PUBCHEM_CACTVS_ROTATABLE_BOND>
4

> <PUBCHEM_CACTVS_SUBSKEYS>
AAADccBzuAIAAAAAAAAAAAAAAAAAAWJAAAAsAAAAAAAAAFgB+AAAHgAQCCAACDzhlwYF8L9MFxCgQQZhZICAgC0REKABUKAoVBCDWAJAyEAfRAgPEALTACDwMAIAAAAAAAAAAAAAAAAAAAAAAAAAAAAAAA==

> <PUBCHEM_IUPAC_OPENEYE_NAME>
[(2S,3S,4R,5R)-3-amino-5-(6-aminopurin-9-yl)-4-hydroxy-tetrahydrofuran-2-yl]methyl dihydrogen phosphate

> <PUBCHEM_IUPAC_CAS_NAME>
[(2S,3S,4R,5R)-3-amino-5-(6-aminopurin-9-yl)-4-hydroxy-2-oxolanyl]methyl dihydrogen phosphate

> <PUBCHEM_IUPAC_NAME>
[(2S,3S,4R,5R)-3-amino-5-(6-aminopurin-9-yl)-4-hydroxyoxolan-2-yl]methyl dihydrogen phosphate

> <PUBCHEM_IUPAC_SYSTEMATIC_NAME>
[(2S,3S,4R,5R)-5-(6-aminopurin-9-yl)-3-azanyl-4-oxidanyl-oxolan-2-yl]methyl dihydrogen phosphate

> <PUBCHEM_IUPAC_TRADITIONAL_NAME>
[(2S,3S,4R,5R)-5-adenin-9-yl-3-amino-4-hydroxy-tetrahydrofuran-2-yl]methyl dihydrogen phosphate

> <PUBCHEM_IUPAC_INCHI>
InChI=1S/C10H15N6O6P/c11-5-4(1-21-23(18,19)20)22-10(7(5)17)16-3-15-6-8(12)13-2-14-9(6)16/h2-5,7,10,17H,1,11H2,(H2,12,13,14)(H2,18,19,20)/t4-,5-,7-,10-/m1/s1

> <PUBCHEM_IUPAC_INCHIKEY>
WIVGZDLLXCRANL-QYYRPYCUSA-N

> <PUBCHEM_XLOGP3>
-6.1

> <PUBCHEM_EXACT_MASS>
346.079069

> <PUBCHEM_MOLECULAR_FORMULA>
C10H15N6O6P

> <PUBCHEM_MOLECULAR_WEIGHT>
346.236462

> <PUBCHEM_OPENEYE_CAN_SMILES>
C1=NC2=C(C(=N1)N)N=CN2C3C(C(C(O3)COP(=O)(O)O)N)O

> <PUBCHEM_OPENEYE_ISO_SMILES>
C1=NC2=C(C(=N1)N)N=CN2[C@H]3[C@@H]([C@@H]([C@H](O3)COP(=O)(O)O)N)O

> <PUBCHEM_CACTVS_TPSA>
192

> <PUBCHEM_MONOISOTOPIC_WEIGHT>
346.079069

> <PUBCHEM_TOTAL_CHARGE>
0

> <PUBCHEM_HEAVY_ATOM_COUNT>
23

> <PUBCHEM_ATOM_DEF_STEREO_COUNT>
4

> <PUBCHEM_ATOM_UDEF_STEREO_COUNT>
0

> <PUBCHEM_BOND_DEF_STEREO_COUNT>
0

> <PUBCHEM_BOND_UDEF_STEREO_COUNT>
0

> <PUBCHEM_ISOTOPIC_ATOM_COUNT>
0

> <PUBCHEM_COMPONENT_COUNT>
1

> <PUBCHEM_CACTVS_TAUTO_COUNT>
3

> <PUBCHEM_COORDINATE_TYPE>
1
5
255

> <PUBCHEM_BONDANNOTATIONS>
10  20  8
10  21  8
11  19  8
11  23  8
12  22  8
12  23  8
16  18  6
19  21  8
21  22  8
15  3  5
17  8  6
8  19  8
8  20  8
14  9  5

$$$$

