14325
  -OEChem-06241222432D

 32 31  0     0  0  0  0  0  0999 V2000
    5.7690    2.5785    0.0000 Cl  0  5  0  0  0  0  0  0  0  0  0  0
    0.0000    0.6200    0.0000 O   0  0  0  0  0  0  0  0  0  0  0  0
    1.7320    3.6200    0.0000 N   0  3  0  0  0  0  0  0  0  0  0  0
    1.7320    4.6200    0.0000 C   0  0  0  0  0  0  0  0  0  0  0  0
    2.7320    3.6200    0.0000 C   0  0  0  0  0  0  0  0  0  0  0  0
    1.7320    2.6200    0.0000 C   0  0  0  0  0  0  0  0  0  0  0  0
    0.7321    3.6200    0.0000 C   0  0  0  0  0  0  0  0  0  0  0  0
    2.5981    5.1200    0.0000 C   0  0  0  0  0  0  0  0  0  0  0  0
    3.2320    4.4860    0.0000 C   0  0  0  0  0  0  0  0  0  0  0  0
    0.8660    2.1200    0.0000 C   0  0  0  0  0  0  0  0  0  0  0  0
    2.5981    2.1200    0.0000 C   0  0  0  0  0  0  0  0  0  0  0  0
    0.8660    1.1200    0.0000 C   0  0  0  0  0  0  0  0  0  0  0  0
    2.5981    1.1200    0.0000 C   0  0  0  0  0  0  0  0  0  0  0  0
    1.7320    0.6200    0.0000 C   0  0  0  0  0  0  0  0  0  0  0  0
    1.5200    5.2026    0.0000 H   0  0  0  0  0  0  0  0  0  0  0  0
    1.1215    4.5123    0.0000 H   0  0  0  0  0  0  0  0  0  0  0  0
    2.6244    3.0094    0.0000 H   0  0  0  0  0  0  0  0  0  0  0  0
    3.3147    3.4080    0.0000 H   0  0  0  0  0  0  0  0  0  0  0  0
    0.7321    4.2400    0.0000 H   0  0  0  0  0  0  0  0  0  0  0  0
    0.1121    3.6200    0.0000 H   0  0  0  0  0  0  0  0  0  0  0  0
    0.7321    3.0000    0.0000 H   0  0  0  0  0  0  0  0  0  0  0  0
    2.9081    4.5831    0.0000 H   0  0  0  0  0  0  0  0  0  0  0  0
    3.1350    5.4300    0.0000 H   0  0  0  0  0  0  0  0  0  0  0  0
    2.2881    5.6569    0.0000 H   0  0  0  0  0  0  0  0  0  0  0  0
    3.7690    4.1760    0.0000 H   0  0  0  0  0  0  0  0  0  0  0  0
    3.5420    5.0230    0.0000 H   0  0  0  0  0  0  0  0  0  0  0  0
    2.6951    4.7960    0.0000 H   0  0  0  0  0  0  0  0  0  0  0  0
    0.3291    2.4300    0.0000 H   0  0  0  0  0  0  0  0  0  0  0  0
    3.1350    2.4300    0.0000 H   0  0  0  0  0  0  0  0  0  0  0  0
    3.1350    0.8100    0.0000 H   0  0  0  0  0  0  0  0  0  0  0  0
    1.7320    0.0000    0.0000 H   0  0  0  0  0  0  0  0  0  0  0  0
    0.0000    0.0000    0.0000 H   0  0  0  0  0  0  0  0  0  0  0  0
  2 12  1  0  0  0  0
  2 32  1  0  0  0  0
  3  4  1  0  0  0  0
  3  5  1  0  0  0  0
  3  6  1  0  0  0  0
  3  7  1  0  0  0  0
  4  8  1  0  0  0  0
  4 15  1  0  0  0  0
  4 16  1  0  0  0  0
  5  9  1  0  0  0  0
  5 17  1  0  0  0  0
  5 18  1  0  0  0  0
  6 10  2  0  0  0  0
  6 11  1  0  0  0  0
  7 19  1  0  0  0  0
  7 20  1  0  0  0  0
  7 21  1  0  0  0  0
  8 22  1  0  0  0  0
  8 23  1  0  0  0  0
  8 24  1  0  0  0  0
  9 25  1  0  0  0  0
  9 26  1  0  0  0  0
  9 27  1  0  0  0  0
 10 12  1  0  0  0  0
 10 28  1  0  0  0  0
 11 13  2  0  0  0  0
 11 29  1  0  0  0  0
 12 14  2  0  0  0  0
 13 14  1  0  0  0  0
 13 30  1  0  0  0  0
 14 31  1  0  0  0  0
M  CHG  2   1  -1   3   1
M  END
> <PUBCHEM_COMPOUND_CID>
14325

> <PUBCHEM_COMPOUND_CANONICALIZED>
1

> <PUBCHEM_CACTVS_COMPLEXITY>
154

> <PUBCHEM_CACTVS_HBOND_ACCEPTOR>
2

> <PUBCHEM_CACTVS_HBOND_DONOR>
1

> <PUBCHEM_CACTVS_ROTATABLE_BOND>
3

> <PUBCHEM_CACTVS_SUBSKEYS>
AAADceByIAAEAAAAAAAAAAAAAAAAAAAAAAAwAAAAAAAAAAABAAAAHgAACAAACAzBkAQyxoMAAgCAACRCQACCAAAhIgAIiAAObIgIJiLCkZOEcAhmwBnI2AeQUAMAAAAAAgAAAAAAAAAEAAAAAAAAAAAAAA==

> <PUBCHEM_IUPAC_OPENEYE_NAME>
diethyl-(3-hydroxyphenyl)-methyl-ammonium chloride

> <PUBCHEM_IUPAC_CAS_NAME>
diethyl-(3-hydroxyphenyl)-methylammonium chloride

> <PUBCHEM_IUPAC_NAME>
diethyl-(3-hydroxyphenyl)-methylazanium chloride

> <PUBCHEM_IUPAC_SYSTEMATIC_NAME>
diethyl-(3-hydroxyphenyl)-methyl-azanium chloride

> <PUBCHEM_IUPAC_TRADITIONAL_NAME>
diethyl-(3-hydroxyphenyl)-methyl-ammonium chloride

> <PUBCHEM_IUPAC_INCHI>
InChI=1S/C11H17NO.ClH/c1-4-12(3,5-2)10-7-6-8-11(13)9-10;/h6-9H,4-5H2,1-3H3;1H

> <PUBCHEM_IUPAC_INCHIKEY>
OPXOFISZWUAAQK-UHFFFAOYSA-N

> <PUBCHEM_EXACT_MASS>
215.107692

> <PUBCHEM_MOLECULAR_FORMULA>
C11H18ClNO

> <PUBCHEM_MOLECULAR_WEIGHT>
215.71972

> <PUBCHEM_OPENEYE_CAN_SMILES>
CC[N+](C)(CC)C1=CC(=CC=C1)O.[Cl-]

> <PUBCHEM_OPENEYE_ISO_SMILES>
CC[N+](C)(CC)C1=CC(=CC=C1)O.[Cl-]

> <PUBCHEM_CACTVS_TPSA>
20.2

> <PUBCHEM_MONOISOTOPIC_WEIGHT>
215.107692

> <PUBCHEM_TOTAL_CHARGE>
0

> <PUBCHEM_HEAVY_ATOM_COUNT>
14

> <PUBCHEM_ATOM_DEF_STEREO_COUNT>
0

> <PUBCHEM_ATOM_UDEF_STEREO_COUNT>
0

> <PUBCHEM_BOND_DEF_STEREO_COUNT>
0

> <PUBCHEM_BOND_UDEF_STEREO_COUNT>
0

> <PUBCHEM_ISOTOPIC_ATOM_COUNT>
0

> <PUBCHEM_COMPONENT_COUNT>
2

> <PUBCHEM_CACTVS_TAUTO_COUNT>
3

> <PUBCHEM_COORDINATE_TYPE>
1
5
255

> <PUBCHEM_BONDANNOTATIONS>
10  12  8
11  13  8
12  14  8
13  14  8
6  10  8
6  11  8

$$$$

