   Color/Form

     * RED MONOCLINIC PRISMS FROM AQ METHANOL
     * DARK, PURPLISH-BROWN MASS OR BRIGHT-RED POWDER
     * DEEP RED COLOR IN WATER; YELLOW TO VIOLET IN ACID SOLN

   from [1]HSDB

   Melting Point
        136 deg C dec
   from [2]HSDB

   pH
        4.8 YELLOW; 6.2 VIOLET
   from [3]HSDB

   Solubilities
        SOL IN WATER, ALCOHOL, CONCENTRATED SULFURIC ACID; SLIGHTLY SOL IN
   ETHER; PRACTICALLY INSOL IN PETROLEUM ETHER, BENZENE, CHLOROFORM
   from [4]HSDB

   Spectral Properties

     * SPECIFIC OPTICAL ROTATION (WATER): +51.6 DEG AT 15 DEG C/654
       ANGSTROMS; MAX ABSORPTION (WATER): 500 NM (E= 6800); (0.02 N
       HYDROGEN CHLORIDE): 490-500 NM (E= 5800); (0.0001 N SODIUM
       HYDROXIDE): 540 NM (E= 3450)
     * IR: 23370 (Sadtler Research Laboratories Prism Collection)
     * UV: 22011 (Sadtler Research Laboratories Spectral Collection)

   from [5]HSDB

   Other Chemical/Physical Properties

     * NO DISTINCT MELTING PT; DARKENS AT 120 DEG C
     * GIVES DEEP RED SOLN IN ALKALI HYDROXIDES OR THEIR CARBONATES /AL
       SALT/
     * BRIGHT-RED, LIGHT PIECES, EASILY REDUCED TO POWDER; PRACTICALLY
       INSOL IN COLD WATER OR DIL ACID; PARTLY SOL IN HOT WATER; SOL IN
       BORAX, SOLN OF ALKALI HYDROXIDES & ALKALI CARBONATES /CARMINE DYES/

   from [6]HSDB

   Computed Properties
   Molecular Weight                  492.3864 [g/mol]
   Molecular Formula                 C[22]H[20]O[13]
   XLogP3-AA                         0.5
   H-Bond Donor                      9
   H-Bond Acceptor                   13
   Rotatable Bond Count              3
   Tautomer Count                    600
   Exact Mass                        492.090391
   MonoIsotopic Mass                 492.090391
   Topological Polar Surface Area    243
   Heavy Atom Count                  35
   Formal Charge                     0
   Complexity                        864
   Isotope Atom Count                0
   Defined Atom Stereocenter Count   5
   Undefined Atom Stereocenter Count 0
   Defined Bond Stereocenter Count   0
   Undefined Bond Stereocenter Count 0
   Covalently-Bonded Unit Count      1
   Feature 3D Acceptor Count         9
   Feature 3D Donor Count            8
   Feature 3D Anion Count            1
   Feature 3D Ring Count             4
   Effective Rotor Count             4.2
   Conformer Sampling RMSD           0.8
   CID Conformer Count               [7]10

References

   1. http://toxnet.nlm.nih.gov/cgi-bin/sis/search/r?dbs+hsdb:@term+@rn+@rel+1260-17-9
   2. http://toxnet.nlm.nih.gov/cgi-bin/sis/search/r?dbs+hsdb:@term+@rn+@rel+1260-17-9
   3. http://toxnet.nlm.nih.gov/cgi-bin/sis/search/r?dbs+hsdb:@term+@rn+@rel+1260-17-9
   4. http://toxnet.nlm.nih.gov/cgi-bin/sis/search/r?dbs+hsdb:@term+@rn+@rel+1260-17-9
   5. http://toxnet.nlm.nih.gov/cgi-bin/sis/search/r?dbs+hsdb:@term+@rn+@rel+1260-17-9
   6. http://toxnet.nlm.nih.gov/cgi-bin/sis/search/r?dbs+hsdb:@term+@rn+@rel+1260-17-9
   7. http://pubchem.ncbi.nlm.nih.gov/vw3d/vw3d.cgi?cid=14749
