   Color/Form
        Colorless liquid
   from [1]HSDB

   Odor
        Intense, pungent, suffocating odor
   from [2]HSDB

   Taste

     * Acrid taste
     * Threshold value (unspecified-detection or recognition) of an
       unspecified purity in water is 3.40x10+1 ppm.
     * Threshold value (unspecified-detection or recognition) of an
       unspecified purity in coffee brew is 1.04x10+2 ppm.

   from [3]HSDB

   Corrosivity
        Dissolves copper, zinc
   from [4]HSDB

   Density/Specific Gravity
        About 0.90 @ 25 deg C/25 deg C
   from [5]HSDB

   Dissociation Constants
        pKb= 4.767, Kb= 1.710X10-5 at 20 deg C; pKb= 4.751, Kb= 1.774X10-5
   at 25 deg C; pKb= 4.740, Kb= 1.820X10-5 at 30 deg C
   from [6]HSDB

   pH
        pH= 11.6 (1.0 N solution); 11.1 (0.1 N solution); 10.6 (0.01 N
   solution)
   from [7]HSDB

   Solubilities
        Exists only in solution
   from [8]HSDB

   Vapor Pressure
        2160 mm Hg @ 25 deg C
   from [9]HSDB

   Other Chemical/Physical Properties

     * Reaction with sulfuric acid or other strong mineral acids is
       exothermic; mixture becomes boiling hot
     * Fumes are formed when ammonia water is brought near volatile acids
     * Specific gravity: 0.957 25 deg C/25 deg C /Ammonia water - 10%/
     * Specific gravity (20 deg C/4 deg C) (Solution concn): 0.9939 (1%);
       0.9811 (4%); 0.9651 (8%); 0.9362 (16%); 0.9229 (20%); 0.9101 (24%);
       0.8980 (28%)
     * Freezing point (solution concn): -2.9 deg C (4%); -8.1 deg C (8%);
       - 23.1 deg C (16%); - 34.9 deg C (20%); -44.5 deg C (24%); -69.2
       deg C (28%)
     * Produces low temperatures by its own evaporation.

   from [10]HSDB

   Computed Properties
   Molecular Weight                  35.0458 [g/mol]
   Molecular Formula                 H[5]NO
   H-Bond Donor                      2
   H-Bond Acceptor                   1
   Rotatable Bond Count              0
   Exact Mass                        35.037114
   MonoIsotopic Mass                 35.037114
   Topological Polar Surface Area    2
   Heavy Atom Count                  2
   Formal Charge                     0
   Complexity                        0
   Isotope Atom Count                0
   Defined Atom Stereocenter Count   0
   Undefined Atom Stereocenter Count 0
   Defined Bond Stereocenter Count   0
   Undefined Bond Stereocenter Count 0
   Covalently-Bonded Unit Count      2

References

   1. http://toxnet.nlm.nih.gov/cgi-bin/sis/search/r?dbs+hsdb:@term+@rn+@rel+1336-21-6
   2. http://toxnet.nlm.nih.gov/cgi-bin/sis/search/r?dbs+hsdb:@term+@rn+@rel+1336-21-6
   3. http://toxnet.nlm.nih.gov/cgi-bin/sis/search/r?dbs+hsdb:@term+@rn+@rel+1336-21-6
   4. http://toxnet.nlm.nih.gov/cgi-bin/sis/search/r?dbs+hsdb:@term+@rn+@rel+1336-21-6
   5. http://toxnet.nlm.nih.gov/cgi-bin/sis/search/r?dbs+hsdb:@term+@rn+@rel+1336-21-6
   6. http://toxnet.nlm.nih.gov/cgi-bin/sis/search/r?dbs+hsdb:@term+@rn+@rel+1336-21-6
   7. http://toxnet.nlm.nih.gov/cgi-bin/sis/search/r?dbs+hsdb:@term+@rn+@rel+1336-21-6
   8. http://toxnet.nlm.nih.gov/cgi-bin/sis/search/r?dbs+hsdb:@term+@rn+@rel+1336-21-6
   9. http://toxnet.nlm.nih.gov/cgi-bin/sis/search/r?dbs+hsdb:@term+@rn+@rel+1336-21-6
  10. http://toxnet.nlm.nih.gov/cgi-bin/sis/search/r?dbs+hsdb:@term+@rn+@rel+1336-21-6
