   Color/Form

     * Compact prisms or thick plates from ether or chloroform
     * White...crystalline solid
     * CRYSTALS FROM BENZENE
     * Colorless crystals, prisms, or plates from Et2O or trichloromethane

   from [1]HSDB

   Odor
        Odorless
   from [2]HSDB

   Melting Point
        111.0 deg C
   from [3]HSDB

   Octanol/Water Partition Coefficient
        log Kow = -2.40 (est)
   from [4]HSDB

   Solubilities

     * Soluble in ethanol, diethyl ether, acetone, benzene, and ethyl or
       amyl acetate
     * Soluble in common organic solvents; insoluble in petroleum ether
     * Soluble in water

   from [5]HSDB

   Spectral Properties

     * UV max (lambda) = 276.5 nm
     * MAX ABSORPTION (ALCOHOL): 277 NM (LOG E= 4.3)
     * MASS: 53239 (NIST/EPA/MSDC Mass Spectral Database 1990 version)
     * UV: 6-108 (Organic Electronic Spectral Data, Phillips et al, John
       Wiley & Sons, New York)

   from [6]HSDB

   Vapor Pressure
        6.8X10-6 mm Hg at 25 deg C (est)
   from [7]HSDB

   Other Chemical/Physical Properties

     * Unstable in alkali with loss of biological activity
     * Racemizes rapidly in aqueous solution precluding isolation of the
       (+) and (-) optical isomers [Wallen LL et al; J Antibiot 33: 767-9
       (1980)] [8]PubMed Abstract
     * Henry's Law constant = 1.07X10-10 atm-cu m/mole at 25 deg C (est)
     * Hydroxyl radical reaction rate constant = 1.38X10-10 cu
       cm/molecule-sec at 25 deg C (est)

   from [9]HSDB

   Computed Properties
   Molecular Weight                  154.12014 [g/mol]
   Molecular Formula                 C[7]H[6]O[4]
   XLogP3-AA                         -1
   H-Bond Donor                      1
   H-Bond Acceptor                   4
   Rotatable Bond Count              0
   Exact Mass                        154.026609
   MonoIsotopic Mass                 154.026609
   Topological Polar Surface Area    55.8
   Heavy Atom Count                  11
   Formal Charge                     0
   Complexity                        264
   Isotope Atom Count                0
   Defined Atom Stereocenter Count   0
   Undefined Atom Stereocenter Count 1
   Defined Bond Stereocenter Count   0
   Undefined Bond Stereocenter Count 0
   Covalently-Bonded Unit Count      1
   Feature 3D Acceptor Count         3
   Feature 3D Donor Count            1
   Feature 3D Ring Count             2
   Effective Rotor Count             0.8
   Conformer Sampling RMSD           0.4
   CID Conformer Count               [10]2

References

   1. http://toxnet.nlm.nih.gov/cgi-bin/sis/search/r?dbs+hsdb:@term+@rn+@rel+149-29-1
   2. http://toxnet.nlm.nih.gov/cgi-bin/sis/search/r?dbs+hsdb:@term+@rn+@rel+149-29-1
   3. http://toxnet.nlm.nih.gov/cgi-bin/sis/search/r?dbs+hsdb:@term+@rn+@rel+149-29-1
   4. http://toxnet.nlm.nih.gov/cgi-bin/sis/search/r?dbs+hsdb:@term+@rn+@rel+149-29-1
   5. http://toxnet.nlm.nih.gov/cgi-bin/sis/search/r?dbs+hsdb:@term+@rn+@rel+149-29-1
   6. http://toxnet.nlm.nih.gov/cgi-bin/sis/search/r?dbs+hsdb:@term+@rn+@rel+149-29-1
   7. http://toxnet.nlm.nih.gov/cgi-bin/sis/search/r?dbs+hsdb:@term+@rn+@rel+149-29-1
   8. http://www.ncbi.nlm.nih.gov/entrez/query.fcgi?cmd=Retrieve&db=pubmed&dopt=Abstract&list_uids=7410220
   9. http://toxnet.nlm.nih.gov/cgi-bin/sis/search/r?dbs+hsdb:@term+@rn+@rel+149-29-1
  10. http://pubchem.ncbi.nlm.nih.gov/vw3d/vw3d.cgi?cid=4696
