13796
  -OEChem-06241222402D

 60 61  0     0  0  0  0  0  0999 V2000
    5.0430    0.0000    0.0000 Cl  0  5  0  0  0  0  0  0  0  0  0  0
    1.4030    8.6811    0.0000 O   0  0  0  0  0  0  0  0  0  0  0  0
    1.4030   10.6811    0.0000 O   0  0  0  0  0  0  0  0  0  0  0  0
    6.5807    4.6266    0.0000 O   0  0  0  0  0  0  0  0  0  0  0  0
    8.3242    5.6065    0.0000 O   0  0  0  0  0  0  0  0  0  0  0  0
    5.8010    9.1602    0.0000 N   0  3  0  0  0  0  0  0  0  0  0  0
    4.8950    8.6464    0.0000 C   0  0  0  0  0  0  0  0  0  0  0  0
    4.0010    9.1811    0.0000 C   0  0  0  0  0  0  0  0  0  0  0  0
    4.8834    7.6465    0.0000 C   0  0  0  0  0  0  0  0  0  0  0  0
    4.0010   10.1811    0.0000 C   0  0  0  0  0  0  0  0  0  0  0  0
    5.7436    7.1365    0.0000 C   0  0  0  0  0  0  0  0  0  0  0  0
    3.1350    8.6811    0.0000 C   0  0  0  0  0  0  0  0  0  0  0  0
    3.1350   10.6811    0.0000 C   0  0  0  0  0  0  0  0  0  0  0  0
    4.8950   10.7157    0.0000 C   0  0  0  0  0  0  0  0  0  0  0  0
    2.2690    9.1811    0.0000 C   0  0  0  0  0  0  0  0  0  0  0  0
    2.2690   10.1811    0.0000 C   0  0  0  0  0  0  0  0  0  0  0  0
    5.8010   10.2019    0.0000 C   0  0  0  0  0  0  0  0  0  0  0  0
    5.7320    6.1365    0.0000 C   0  0  0  0  0  0  0  0  0  0  0  0
    6.6154    7.6264    0.0000 C   0  0  0  0  0  0  0  0  0  0  0  0
    6.5922    5.6266    0.0000 C   0  0  0  0  0  0  0  0  0  0  0  0
    7.4640    6.1165    0.0000 C   0  0  0  0  0  0  0  0  0  0  0  0
    7.4755    7.1164    0.0000 C   0  0  0  0  0  0  0  0  0  0  0  0
    1.4030    7.6810    0.0000 C   0  0  0  0  0  0  0  0  0  0  0  0
    1.4030   11.6811    0.0000 C   0  0  0  0  0  0  0  0  0  0  0  0
    5.7089    4.1367    0.0000 C   0  0  0  0  0  0  0  0  0  0  0  0
    9.1959    6.0965    0.0000 C   0  0  0  0  0  0  0  0  0  0  0  0
    0.5369    7.1810    0.0000 C   0  0  0  0  0  0  0  0  0  0  0  0
    0.5369   12.1811    0.0000 C   0  0  0  0  0  0  0  0  0  0  0  0
    5.6974    3.1367    0.0000 C   0  0  0  0  0  0  0  0  0  0  0  0
   10.0561    5.5865    0.0000 C   0  0  0  0  0  0  0  0  0  0  0  0
    4.2741    7.7612    0.0000 H   0  0  0  0  0  0  0  0  0  0  0  0
    4.6646    7.0663    0.0000 H   0  0  0  0  0  0  0  0  0  0  0  0
    3.1350    8.0610    0.0000 H   0  0  0  0  0  0  0  0  0  0  0  0
    6.3368    8.8482    0.0000 H   0  0  0  0  0  0  0  0  0  0  0  0
    3.1350   11.3011    0.0000 H   0  0  0  0  0  0  0  0  0  0  0  0
    4.8878   11.3357    0.0000 H   0  0  0  0  0  0  0  0  0  0  0  0
    6.3368   10.5139    0.0000 H   0  0  0  0  0  0  0  0  0  0  0  0
    5.1916    5.8328    0.0000 H   0  0  0  0  0  0  0  0  0  0  0  0
    6.6225    8.2464    0.0000 H   0  0  0  0  0  0  0  0  0  0  0  0
    8.0160    7.4202    0.0000 H   0  0  0  0  0  0  0  0  0  0  0  0
    1.6150    7.0984    0.0000 H   0  0  0  0  0  0  0  0  0  0  0  0
    2.0135    7.7887    0.0000 H   0  0  0  0  0  0  0  0  0  0  0  0
    2.0135   11.5734    0.0000 H   0  0  0  0  0  0  0  0  0  0  0  0
    1.6150   12.2637    0.0000 H   0  0  0  0  0  0  0  0  0  0  0  0
    5.5036    4.7217    0.0000 H   0  0  0  0  0  0  0  0  0  0  0  0
    5.0971    4.0361    0.0000 H   0  0  0  0  0  0  0  0  0  0  0  0
    9.5999    6.5668    0.0000 H   0  0  0  0  0  0  0  0  0  0  0  0
    8.8029    6.5760    0.0000 H   0  0  0  0  0  0  0  0  0  0  0  0
    0.2269    7.7180    0.0000 H   0  0  0  0  0  0  0  0  0  0  0  0
    0.0000    6.8710    0.0000 H   0  0  0  0  0  0  0  0  0  0  0  0
    0.8469    6.6441    0.0000 H   0  0  0  0  0  0  0  0  0  0  0  0
    0.8469   12.7180    0.0000 H   0  0  0  0  0  0  0  0  0  0  0  0
    0.0000   12.4911    0.0000 H   0  0  0  0  0  0  0  0  0  0  0  0
    0.2269   11.6441    0.0000 H   0  0  0  0  0  0  0  0  0  0  0  0
    5.0774    3.1439    0.0000 H   0  0  0  0  0  0  0  0  0  0  0  0
    5.6902    2.5168    0.0000 H   0  0  0  0  0  0  0  0  0  0  0  0
    6.3173    3.1296    0.0000 H   0  0  0  0  0  0  0  0  0  0  0  0
    9.7399    5.0532    0.0000 H   0  0  0  0  0  0  0  0  0  0  0  0
   10.5894    5.2703    0.0000 H   0  0  0  0  0  0  0  0  0  0  0  0
   10.3723    6.1198    0.0000 H   0  0  0  0  0  0  0  0  0  0  0  0
  2 15  1  0  0  0  0
  2 23  1  0  0  0  0
  3 16  1  0  0  0  0
  3 24  1  0  0  0  0
  4 20  1  0  0  0  0
  4 25  1  0  0  0  0
  5 21  1  0  0  0  0
  5 26  1  0  0  0  0
  6  7  2  0  0  0  0
  6 17  1  0  0  0  0
  6 34  1  0  0  0  0
  7  8  1  0  0  0  0
  7  9  1  0  0  0  0
  8 10  1  0  0  0  0
  8 12  2  0  0  0  0
  9 11  1  0  0  0  0
  9 31  1  0  0  0  0
  9 32  1  0  0  0  0
 10 13  2  0  0  0  0
 10 14  1  0  0  0  0
 11 18  2  0  0  0  0
 11 19  1  0  0  0  0
 12 15  1  0  0  0  0
 12 33  1  0  0  0  0
 13 16  1  0  0  0  0
 13 35  1  0  0  0  0
 14 17  2  0  0  0  0
 14 36  1  0  0  0  0
 15 16  2  0  0  0  0
 17 37  1  0  0  0  0
 18 20  1  0  0  0  0
 18 38  1  0  0  0  0
 19 22  2  0  0  0  0
 19 39  1  0  0  0  0
 20 21  2  0  0  0  0
 21 22  1  0  0  0  0
 22 40  1  0  0  0  0
 23 27  1  0  0  0  0
 23 41  1  0  0  0  0
 23 42  1  0  0  0  0
 24 28  1  0  0  0  0
 24 43  1  0  0  0  0
 24 44  1  0  0  0  0
 25 29  1  0  0  0  0
 25 45  1  0  0  0  0
 25 46  1  0  0  0  0
 26 30  1  0  0  0  0
 26 47  1  0  0  0  0
 26 48  1  0  0  0  0
 27 49  1  0  0  0  0
 27 50  1  0  0  0  0
 27 51  1  0  0  0  0
 28 52  1  0  0  0  0
 28 53  1  0  0  0  0
 28 54  1  0  0  0  0
 29 55  1  0  0  0  0
 29 56  1  0  0  0  0
 29 57  1  0  0  0  0
 30 58  1  0  0  0  0
 30 59  1  0  0  0  0
 30 60  1  0  0  0  0
M  CHG  2   1  -1   6   1
M  END
> <PUBCHEM_COMPOUND_CID>
13796

> <PUBCHEM_COMPOUND_CANONICALIZED>
1

> <PUBCHEM_CACTVS_COMPLEXITY>
462

> <PUBCHEM_CACTVS_HBOND_ACCEPTOR>
5

> <PUBCHEM_CACTVS_HBOND_DONOR>
1

> <PUBCHEM_CACTVS_ROTATABLE_BOND>
10

> <PUBCHEM_CACTVS_SUBSKEYS>
AAADceB6OAAEAAAAAAAAAAAAAAAAAAAAAAA8YIAAAAAAAACx9AAAHgAQAAAADAzhngY+htLJlACgAzRnRACCiCAxIiAI2aA+7JgNJuLEsZuGOCrk0BHK6Aew0PMOoAABAAAQQABAAAIAACCAAAAAAAAAAA==

> <PUBCHEM_IUPAC_OPENEYE_NAME>
1-[(3,4-diethoxyphenyl)methyl]-6,7-diethoxy-isoquinolin-2-ium chloride

> <PUBCHEM_IUPAC_CAS_NAME>
1-[(3,4-diethoxyphenyl)methyl]-6,7-diethoxyisoquinolin-2-ium chloride

> <PUBCHEM_IUPAC_NAME>
1-[(3,4-diethoxyphenyl)methyl]-6,7-diethoxyisoquinolin-2-ium chloride

> <PUBCHEM_IUPAC_SYSTEMATIC_NAME>
1-[(3,4-diethoxyphenyl)methyl]-6,7-diethoxy-isoquinolin-2-ium chloride

> <PUBCHEM_IUPAC_TRADITIONAL_NAME>
1-(3,4-diethoxybenzyl)-6,7-diethoxy-isoquinolin-2-ium chloride

> <PUBCHEM_IUPAC_INCHI>
InChI=1S/C24H29NO4.ClH/c1-5-26-21-10-9-17(14-22(21)27-6-2)13-20-19-16-24(29-8-4)23(28-7-3)15-18(19)11-12-25-20;/h9-12,14-16H,5-8,13H2,1-4H3;1H

> <PUBCHEM_IUPAC_INCHIKEY>
UPUDVKWQBVIKBG-UHFFFAOYSA-N

> <PUBCHEM_EXACT_MASS>
431.186336

> <PUBCHEM_MOLECULAR_FORMULA>
C24H30ClNO4

> <PUBCHEM_MOLECULAR_WEIGHT>
431.9523

> <PUBCHEM_OPENEYE_CAN_SMILES>
CCOC1=C(C=C(C=C1)CC2=[NH+]C=CC3=CC(=C(C=C32)OCC)OCC)OCC.[Cl-]

> <PUBCHEM_OPENEYE_ISO_SMILES>
CCOC1=C(C=C(C=C1)CC2=[NH+]C=CC3=CC(=C(C=C32)OCC)OCC)OCC.[Cl-]

> <PUBCHEM_CACTVS_TPSA>
51.1

> <PUBCHEM_MONOISOTOPIC_WEIGHT>
431.186336

> <PUBCHEM_TOTAL_CHARGE>
0

> <PUBCHEM_HEAVY_ATOM_COUNT>
30

> <PUBCHEM_ATOM_DEF_STEREO_COUNT>
0

> <PUBCHEM_ATOM_UDEF_STEREO_COUNT>
0

> <PUBCHEM_BOND_DEF_STEREO_COUNT>
0

> <PUBCHEM_BOND_UDEF_STEREO_COUNT>
0

> <PUBCHEM_ISOTOPIC_ATOM_COUNT>
0

> <PUBCHEM_COMPONENT_COUNT>
2

> <PUBCHEM_CACTVS_TAUTO_COUNT>
1

> <PUBCHEM_COORDINATE_TYPE>
1
5
255

> <PUBCHEM_BONDANNOTATIONS>
10  13  8
10  14  8
11  18  8
11  19  8
12  15  8
13  16  8
14  17  8
15  16  8
18  20  8
19  22  8
20  21  8
21  22  8
6  17  8
6  7  8
7  8  8
8  10  8
8  12  8

$$$$

