   Color/Form

     * Light yellow crystals
     * Yellow crystals
     * White crystalline solid
     * Liquid
     * Light yellow oil
     * Yellow solid [Note: A brown liquid above 97 degrees F].

   from [1]HSDB

   Odor
        Aromatic odor
   from [2]HSDB

   Boiling Point
        215 deg C @ 5 mm Hg
   from [3]HSDB

   Melting Point
        36 deg C
   from [4]HSDB

   Corrosivity
        Non-corrosive
   from [5]HSDB

   Density/Specific Gravity
        Specific gravity: 1.270 @ 25 deg C
   from [6]HSDB

   Octanol/Water Partition Coefficient
        log Kow= 4.78
   from [7]HSDB

   Solubilities

     * Miscible with isopropanol, benzene, toluene, xylene, acetone,
       methanol
     * Very sol in ether, ethanol
     * In water, 3.11 mg/l @ 20-25 deg C

   from [8]HSDB

   Spectral Properties

     * Index of refraction: 1.6021 @ 25 deg C/D
     * Intense mass spectral peaks: 323 m/z (100%), 185 m/z (98%), 157 m/z
       (76%), 77 m/z (67%)
     * MASS: 53811 (NIST/EPA/MSDC Mass Spectral Database, 1990 Version)

   from [9]HSDB

   Vapor Pressure
        9.50X10-7 mm Hg @ 25 deg C
   from [10]HSDB

   Other Chemical/Physical Properties

     * Dark amber-colored liquid. /Technical EPN/
     * On heating in a sealed tube, it is converted to S-ethyl isomer.
     * Specific gravity: 1.27 at 25 deg C/4 deg C; index of refraction:
       1.5978 at 30 deg C/D /Technical EPN/

   from [11]HSDB

   Computed Properties
   Molecular Weight                  323.304022 [g/mol]
   Molecular Formula                 C[14]H[14]NO[4]PS
   XLogP3                            4.4
   H-Bond Donor                      0
   H-Bond Acceptor                   5
   Rotatable Bond Count              5
   Exact Mass                        323.038116
   MonoIsotopic Mass                 323.038116
   Topological Polar Surface Area    96.4
   Heavy Atom Count                  21
   Formal Charge                     0
   Complexity                        387
   Isotope Atom Count                0
   Defined Atom Stereocenter Count   0
   Undefined Atom Stereocenter Count 1
   Defined Bond Stereocenter Count   0
   Undefined Bond Stereocenter Count 0
   Covalently-Bonded Unit Count      1
   Feature 3D Acceptor Count         2
   Feature 3D Anion Count            1
   Feature 3D Ring Count             2
   Effective Rotor Count             6
   Conformer Sampling RMSD           0.8
   CID Conformer Count               [12]20

References

   1. http://toxnet.nlm.nih.gov/cgi-bin/sis/search/r?dbs+hsdb:@term+@rn+@rel+2104-64-5
   2. http://toxnet.nlm.nih.gov/cgi-bin/sis/search/r?dbs+hsdb:@term+@rn+@rel+2104-64-5
   3. http://toxnet.nlm.nih.gov/cgi-bin/sis/search/r?dbs+hsdb:@term+@rn+@rel+2104-64-5
   4. http://toxnet.nlm.nih.gov/cgi-bin/sis/search/r?dbs+hsdb:@term+@rn+@rel+2104-64-5
   5. http://toxnet.nlm.nih.gov/cgi-bin/sis/search/r?dbs+hsdb:@term+@rn+@rel+2104-64-5
   6. http://toxnet.nlm.nih.gov/cgi-bin/sis/search/r?dbs+hsdb:@term+@rn+@rel+2104-64-5
   7. http://toxnet.nlm.nih.gov/cgi-bin/sis/search/r?dbs+hsdb:@term+@rn+@rel+2104-64-5
   8. http://toxnet.nlm.nih.gov/cgi-bin/sis/search/r?dbs+hsdb:@term+@rn+@rel+2104-64-5
   9. http://toxnet.nlm.nih.gov/cgi-bin/sis/search/r?dbs+hsdb:@term+@rn+@rel+2104-64-5
  10. http://toxnet.nlm.nih.gov/cgi-bin/sis/search/r?dbs+hsdb:@term+@rn+@rel+2104-64-5
  11. http://toxnet.nlm.nih.gov/cgi-bin/sis/search/r?dbs+hsdb:@term+@rn+@rel+2104-64-5
  12. http://pubchem.ncbi.nlm.nih.gov/vw3d/vw3d.cgi?cid=16421
