9114
  -OEChem-06261203252D

 42 49  0     0  0  0  0  0  0999 V2000
    4.7403   -0.1672    0.0000 C   0  0  0  0  0  0  0  0  0  0  0  0
    3.8743    0.3328    0.0000 C   0  0  0  0  0  0  0  0  0  0  0  0
    5.6063    0.3328    0.0000 C   0  0  0  0  0  0  0  0  0  0  0  0
    3.8743    1.3328    0.0000 C   0  0  0  0  0  0  0  0  0  0  0  0
    5.6063    1.3328    0.0000 C   0  0  0  0  0  0  0  0  0  0  0  0
    4.7403    1.8328    0.0000 C   0  0  0  0  0  0  0  0  0  0  0  0
    4.7564   -1.2088    0.0000 C   0  0  0  0  0  0  0  0  0  0  0  0
    2.9643   -0.1741    0.0000 C   0  0  0  0  0  0  0  0  0  0  0  0
    3.0161    1.8297    0.0000 C   0  0  0  0  0  0  0  0  0  0  0  0
    6.4658   -0.1620    0.0000 C   0  0  0  0  0  0  0  0  0  0  0  0
    4.7502    2.8440    0.0000 C   0  0  0  0  0  0  0  0  0  0  0  0
    6.4771    1.8469    0.0000 C   0  0  0  0  0  0  0  0  0  0  0  0
    2.9562   -1.2157    0.0000 C   0  0  0  0  0  0  0  0  0  0  0  0
    3.8583   -1.7365    0.0000 C   0  0  0  0  0  0  0  0  0  0  0  0
    2.1250    0.3541    0.0000 C   0  0  0  0  0  0  0  0  0  0  0  0
    5.6335   -1.6715    0.0000 C   0  0  0  0  0  0  0  0  0  0  0  0
    2.1506    1.3455    0.0000 C   0  0  0  0  0  0  0  0  0  0  0  0
    6.4792   -1.1536    0.0000 C   0  0  0  0  0  0  0  0  0  0  0  0
    3.0026    2.8408    0.0000 C   0  0  0  0  0  0  0  0  0  0  0  0
    7.3482    0.3319    0.0000 C   0  0  0  0  0  0  0  0  0  0  0  0
    7.3539    1.3431    0.0000 C   0  0  0  0  0  0  0  0  0  0  0  0
    3.8755    3.3514    0.0000 C   0  0  0  0  0  0  0  0  0  0  0  0
    6.4806    2.8656    0.0000 C   0  0  0  0  0  0  0  0  0  0  0  0
    5.5962    3.3711    0.0000 C   0  0  0  0  0  0  0  0  0  0  0  0
    3.8751   -2.8214    0.0000 C   0  0  0  0  0  0  0  0  0  0  0  0
    2.0084   -1.7436    0.0000 C   0  0  0  0  0  0  0  0  0  0  0  0
    2.9396   -3.3711    0.0000 C   0  0  0  0  0  0  0  0  0  0  0  0
    2.0000   -2.8286    0.0000 C   0  0  0  0  0  0  0  0  0  0  0  0
    1.5784    0.0615    0.0000 H   0  0  0  0  0  0  0  0  0  0  0  0
    5.6533   -2.2912    0.0000 H   0  0  0  0  0  0  0  0  0  0  0  0
    1.6199    1.6660    0.0000 H   0  0  0  0  0  0  0  0  0  0  0  0
    7.0222   -1.4530    0.0000 H   0  0  0  0  0  0  0  0  0  0  0  0
    2.4627    3.1457    0.0000 H   0  0  0  0  0  0  0  0  0  0  0  0
    7.8822    0.0168    0.0000 H   0  0  0  0  0  0  0  0  0  0  0  0
    3.8744    3.9714    0.0000 H   0  0  0  0  0  0  0  0  0  0  0  0
    7.8914    1.6522    0.0000 H   0  0  0  0  0  0  0  0  0  0  0  0
    5.5845    3.9910    0.0000 H   0  0  0  0  0  0  0  0  0  0  0  0
    7.0174    3.1758    0.0000 H   0  0  0  0  0  0  0  0  0  0  0  0
    1.4750   -1.4275    0.0000 H   0  0  0  0  0  0  0  0  0  0  0  0
    4.4155   -3.1251    0.0000 H   0  0  0  0  0  0  0  0  0  0  0  0
    1.4619   -3.1365    0.0000 H   0  0  0  0  0  0  0  0  0  0  0  0
    2.9420   -3.9911    0.0000 H   0  0  0  0  0  0  0  0  0  0  0  0
  1  2  1  0  0  0  0
  1  3  1  0  0  0  0
  1  7  2  0  0  0  0
  2  4  1  0  0  0  0
  2  8  2  0  0  0  0
  3  5  1  0  0  0  0
  3 10  2  0  0  0  0
  4  6  1  0  0  0  0
  4  9  2  0  0  0  0
  5  6  1  0  0  0  0
  5 12  2  0  0  0  0
  6 11  2  0  0  0  0
  7 14  1  0  0  0  0
  7 16  1  0  0  0  0
  8 13  1  0  0  0  0
  8 15  1  0  0  0  0
  9 17  1  0  0  0  0
  9 19  1  0  0  0  0
 10 18  1  0  0  0  0
 10 20  1  0  0  0  0
 11 22  1  0  0  0  0
 11 24  1  0  0  0  0
 12 21  1  0  0  0  0
 12 23  1  0  0  0  0
 13 14  1  0  0  0  0
 13 26  2  0  0  0  0
 14 25  2  0  0  0  0
 15 17  2  0  0  0  0
 15 29  1  0  0  0  0
 16 18  2  0  0  0  0
 16 30  1  0  0  0  0
 17 31  1  0  0  0  0
 18 32  1  0  0  0  0
 19 22  2  0  0  0  0
 19 33  1  0  0  0  0
 20 21  2  0  0  0  0
 20 34  1  0  0  0  0
 21 36  1  0  0  0  0
 22 35  1  0  0  0  0
 23 24  2  0  0  0  0
 23 38  1  0  0  0  0
 24 37  1  0  0  0  0
 25 27  1  0  0  0  0
 25 40  1  0  0  0  0
 26 28  1  0  0  0  0
 26 39  1  0  0  0  0
 27 28  2  0  0  0  0
 27 42  1  0  0  0  0
 28 41  1  0  0  0  0
M  END
> <PUBCHEM_COMPOUND_CID>
9114

> <PUBCHEM_COMPOUND_CANONICALIZED>
1

> <PUBCHEM_CACTVS_COMPLEXITY>
594

> <PUBCHEM_CACTVS_HBOND_ACCEPTOR>
0

> <PUBCHEM_CACTVS_HBOND_DONOR>
0

> <PUBCHEM_CACTVS_ROTATABLE_BOND>
0

> <PUBCHEM_CACTVS_SUBSKEYS>
AAADccB4AAAAAAAAAAAAAAAAAAAAAAAAAAAwYMGDAAAAAADBVAAAGAAAAAAADACAGAAwAMAAAACAAiBCAAACAAAgAAAIiAAAAIgIICKAERCAIAAggAAIiAcAgMAOwAACAAAQAACAAAQAACAAAAAAAAAAAA==

> <PUBCHEM_IUPAC_INCHI>
InChI=1S/C28H14/c1-2-4-20-19(3-1)21-13-11-17-9-7-15-5-6-16-8-10-18-12-14-22(20)28-26(18)24(16)23(15)25(17)27(21)28/h1-14H

> <PUBCHEM_IUPAC_INCHIKEY>
NQSLOOOUQZYGEB-UHFFFAOYSA-N

> <PUBCHEM_XLOGP3_AA>
8

> <PUBCHEM_EXACT_MASS>
350.10955

> <PUBCHEM_MOLECULAR_FORMULA>
C28H14

> <PUBCHEM_MOLECULAR_WEIGHT>
350.41076

> <PUBCHEM_OPENEYE_CAN_SMILES>
C1=CC=C2C3=C4C5=C(C=CC6=C5C7=C(C=C6)C=CC8=C7C4=C(C2=C1)C=C8)C=C3

> <PUBCHEM_OPENEYE_ISO_SMILES>
C1=CC=C2C3=C4C5=C(C=CC6=C5C7=C(C=C6)C=CC8=C7C4=C(C2=C1)C=C8)C=C3

> <PUBCHEM_CACTVS_TPSA>
0

> <PUBCHEM_MONOISOTOPIC_WEIGHT>
350.10955

> <PUBCHEM_TOTAL_CHARGE>
0

> <PUBCHEM_HEAVY_ATOM_COUNT>
28

> <PUBCHEM_ATOM_DEF_STEREO_COUNT>
0

> <PUBCHEM_ATOM_UDEF_STEREO_COUNT>
0

> <PUBCHEM_BOND_DEF_STEREO_COUNT>
0

> <PUBCHEM_BOND_UDEF_STEREO_COUNT>
0

> <PUBCHEM_ISOTOPIC_ATOM_COUNT>
0

> <PUBCHEM_COMPONENT_COUNT>
1

> <PUBCHEM_CACTVS_TAUTO_COUNT>
1

> <PUBCHEM_COORDINATE_TYPE>
1
5
255

> <PUBCHEM_BONDANNOTATIONS>
1  2  8
1  3  8
1  7  8
10  18  8
10  20  8
11  22  8
11  24  8
12  21  8
12  23  8
13  14  8
13  26  8
14  25  8
15  17  8
16  18  8
19  22  8
2  4  8
2  8  8
20  21  8
23  24  8
25  27  8
26  28  8
27  28  8
3  10  8
3  5  8
4  6  8
4  9  8
5  12  8
5  6  8
6  11  8
7  14  8
7  16  8
8  13  8
8  15  8
9  17  8
9  19  8

$$$$

