46174021
  -OEChem-07051213112D

 66 67  0     1  0  0  0  0  0999 V2000
    5.1350   -2.9050    0.0000 O   0  0  0  0  0  0  0  0  0  0  0  0
    8.5991   -0.9050    0.0000 O   0  0  0  0  0  0  0  0  0  0  0  0
    5.1350   -0.9050    0.0000 O   0  0  0  0  0  0  0  0  0  0  0  0
    4.2690   -1.4050    0.0000 O   0  0  0  0  0  0  0  0  0  0  0  0
    8.5991   -2.9050    0.0000 O   0  0  0  0  0  0  0  0  0  0  0  0
    8.5991    0.0950    0.0000 O   0  0  0  0  0  0  0  0  0  0  0  0
    6.8671    0.0950    0.0000 N   0  0  0  0  0  0  0  0  0  0  0  0
    6.8671   -3.9050    0.0000 N   0  0  0  0  0  0  0  0  0  0  0  0
    3.4030   -3.9050    0.0000 N   0  0  0  0  0  0  0  0  0  0  0  0
    2.5369    0.5950    0.0000 N   0  0  0  0  0  0  0  0  0  0  0  0
    8.5991    2.0950    0.0000 N   0  0  0  0  0  0  0  0  0  0  0  0
    9.4651    3.5950    0.0000 N   0  0  0  0  0  0  0  0  0  0  0  0
    6.0010   -2.4050    0.0000 C   0  0  1  0  0  0  0  0  0  0  0  0
    6.8671   -0.9050    0.0000 C   0  0  1  0  0  0  0  0  0  0  0  0
    6.0010   -1.4050    0.0000 C   0  0  1  0  0  0  0  0  0  0  0  0
    6.8671   -2.9050    0.0000 C   0  0  2  0  0  0  0  0  0  0  0  0
    7.7331   -1.4050    0.0000 C   0  0  2  0  0  0  0  0  0  0  0  0
    7.7331   -2.4050    0.0000 C   0  0  1  0  0  0  0  0  0  0  0  0
    4.2690   -2.4050    0.0000 C   0  0  1  0  0  0  0  0  0  0  0  0
    3.4030   -2.9050    0.0000 C   0  0  1  0  0  0  0  0  0  0  0  0
    3.4030   -0.9050    0.0000 C   0  0  1  0  0  0  0  0  0  0  0  0
    2.5369   -2.4050    0.0000 C   0  0  0  0  0  0  0  0  0  0  0  0
    2.5369   -1.4050    0.0000 C   0  0  0  0  0  0  0  0  0  0  0  0
    3.4030    0.0950    0.0000 C   0  0  2  0  0  0  0  0  0  0  0  0
    6.0010    0.5950    0.0000 C   0  0  0  0  0  0  0  0  0  0  0  0
    7.7331    0.5950    0.0000 C   0  0  0  0  0  0  0  0  0  0  0  0
    9.4651   -1.4050    0.0000 C   0  0  0  0  0  0  0  0  0  0  0  0
    4.2690    0.5950    0.0000 C   0  0  0  0  0  0  0  0  0  0  0  0
    7.7331    1.5950    0.0000 C   0  0  0  0  0  0  0  0  0  0  0  0
    8.5991    3.0950    0.0000 C   0  0  0  0  0  0  0  0  0  0  0  0
    5.4641   -2.0950    0.0000 H   0  0  0  0  0  0  0  0  0  0  0  0
    6.3301   -0.5950    0.0000 H   0  0  0  0  0  0  0  0  0  0  0  0
    5.4641   -1.7150    0.0000 H   0  0  0  0  0  0  0  0  0  0  0  0
    6.3301   -3.2150    0.0000 H   0  0  0  0  0  0  0  0  0  0  0  0
    7.7331   -0.7850    0.0000 H   0  0  0  0  0  0  0  0  0  0  0  0
    7.7331   -3.0250    0.0000 H   0  0  0  0  0  0  0  0  0  0  0  0
    4.2690   -3.0250    0.0000 H   0  0  0  0  0  0  0  0  0  0  0  0
    3.9399   -3.2150    0.0000 H   0  0  0  0  0  0  0  0  0  0  0  0
    4.1391   -0.4800    0.0000 H   0  0  0  0  0  0  0  0  0  0  0  0
    1.9264   -2.2973    0.0000 H   0  0  0  0  0  0  0  0  0  0  0  0
    2.3249   -2.9876    0.0000 H   0  0  0  0  0  0  0  0  0  0  0  0
    7.4040   -4.2150    0.0000 H   0  0  0  0  0  0  0  0  0  0  0  0
    6.3301   -4.2150    0.0000 H   0  0  0  0  0  0  0  0  0  0  0  0
    2.3249   -0.8224    0.0000 H   0  0  0  0  0  0  0  0  0  0  0  0
    1.9264   -1.5127    0.0000 H   0  0  0  0  0  0  0  0  0  0  0  0
    5.1350   -0.2850    0.0000 H   0  0  0  0  0  0  0  0  0  0  0  0
    8.5991   -3.5250    0.0000 H   0  0  0  0  0  0  0  0  0  0  0  0
    3.4030    0.7150    0.0000 H   0  0  0  0  0  0  0  0  0  0  0  0
    6.3110    1.1319    0.0000 H   0  0  0  0  0  0  0  0  0  0  0  0
    5.4641    0.9050    0.0000 H   0  0  0  0  0  0  0  0  0  0  0  0
    5.6910    0.0581    0.0000 H   0  0  0  0  0  0  0  0  0  0  0  0
    2.8660   -4.2150    0.0000 H   0  0  0  0  0  0  0  0  0  0  0  0
    3.9399   -4.2150    0.0000 H   0  0  0  0  0  0  0  0  0  0  0  0
    9.1551   -1.9419    0.0000 H   0  0  0  0  0  0  0  0  0  0  0  0
   10.0021   -1.7150    0.0000 H   0  0  0  0  0  0  0  0  0  0  0  0
    9.7751   -0.8681    0.0000 H   0  0  0  0  0  0  0  0  0  0  0  0
    4.5790    0.0581    0.0000 H   0  0  0  0  0  0  0  0  0  0  0  0
    4.8059    0.9050    0.0000 H   0  0  0  0  0  0  0  0  0  0  0  0
    3.9590    1.1319    0.0000 H   0  0  0  0  0  0  0  0  0  0  0  0
    7.5210    2.1776    0.0000 H   0  0  0  0  0  0  0  0  0  0  0  0
    7.1225    1.4873    0.0000 H   0  0  0  0  0  0  0  0  0  0  0  0
    2.5369    1.2150    0.0000 H   0  0  0  0  0  0  0  0  0  0  0  0
    2.0000    0.2850    0.0000 H   0  0  0  0  0  0  0  0  0  0  0  0
    8.0622    3.4050    0.0000 H   0  0  0  0  0  0  0  0  0  0  0  0
    9.4651    4.2150    0.0000 H   0  0  0  0  0  0  0  0  0  0  0  0
   10.0021    3.2850    0.0000 H   0  0  0  0  0  0  0  0  0  0  0  0
 13  1  1  1  0  0  0
 19  1  1  6  0  0  0
 17  2  1  1  0  0  0
  2 27  1  0  0  0  0
 15  3  1  6  0  0  0
  3 46  1  0  0  0  0
  4 19  1  0  0  0  0
  4 21  1  0  0  0  0
 18  5  1  1  0  0  0
  5 47  1  0  0  0  0
  6 26  2  0  0  0  0
 14  7  1  6  0  0  0
  7 25  1  0  0  0  0
  7 26  1  0  0  0  0
 16  8  1  6  0  0  0
  8 42  1  0  0  0  0
  8 43  1  0  0  0  0
 20  9  1  6  0  0  0
  9 52  1  0  0  0  0
  9 53  1  0  0  0  0
 24 10  1  1  0  0  0
 10 62  1  0  0  0  0
 10 63  1  0  0  0  0
 11 29  1  0  0  0  0
 11 30  2  0  0  0  0
 12 30  1  0  0  0  0
 12 65  1  0  0  0  0
 12 66  1  0  0  0  0
 13 15  1  0  0  0  0
 13 16  1  0  0  0  0
 13 31  1  0  0  0  0
 14 15  1  0  0  0  0
 14 17  1  0  0  0  0
 14 32  1  0  0  0  0
 15 33  1  0  0  0  0
 16 18  1  0  0  0  0
 16 34  1  0  0  0  0
 17 18  1  0  0  0  0
 17 35  1  0  0  0  0
 18 36  1  0  0  0  0
 19 20  1  0  0  0  0
 19 37  1  0  0  0  0
 20 22  1  0  0  0  0
 20 38  1  0  0  0  0
 21 23  1  0  0  0  0
 21 24  1  0  0  0  0
 21 39  1  6  0  0  0
 22 23  1  0  0  0  0
 22 40  1  0  0  0  0
 22 41  1  0  0  0  0
 23 44  1  0  0  0  0
 23 45  1  0  0  0  0
 24 28  1  0  0  0  0
 24 48  1  0  0  0  0
 25 49  1  0  0  0  0
 25 50  1  0  0  0  0
 25 51  1  0  0  0  0
 26 29  1  0  0  0  0
 27 54  1  0  0  0  0
 27 55  1  0  0  0  0
 27 56  1  0  0  0  0
 28 57  1  0  0  0  0
 28 58  1  0  0  0  0
 28 59  1  0  0  0  0
 29 60  1  0  0  0  0
 29 61  1  0  0  0  0
 30 64  1  0  0  0  0
M  END
> <PUBCHEM_COMPOUND_CID>
46174021

> <PUBCHEM_COMPOUND_CANONICALIZED>
1

> <PUBCHEM_CACTVS_COMPLEXITY>
598

> <PUBCHEM_CACTVS_HBOND_ACCEPTOR>
10

> <PUBCHEM_CACTVS_HBOND_DONOR>
6

> <PUBCHEM_CACTVS_ROTATABLE_BOND>
7

> <PUBCHEM_CACTVS_SUBSKEYS>
AAADcfB7uAAAAAAAAAAAAAAAAAAAAAAAAAA0QAAAAAAAAAAAAAAAHgAQCAAACDzxgAcDCANABgAoAAERNAAAAAEAAAAAAICIAAATUAIAgAA3QAAHFgCXAAHw8C8AAAAAAAAAAAACAQAUAACgAAAAAAAAAA==

> <PUBCHEM_IUPAC_OPENEYE_NAME>
N-[(1S,2R,3R,4S,5S,6R)-4-amino-3-[(2R,3R,6S)-3-amino-6-[(1S)-1-aminoethyl]tetrahydropyran-2-yl]oxy-2,5-dihydroxy-6-methoxy-cyclohexyl]-2-(aminomethyleneamino)-N-methyl-acetamide

> <PUBCHEM_IUPAC_CAS_NAME>
N-[(1S,2R,3R,4S,5S,6R)-4-amino-3-[[(2R,3R,6S)-3-amino-6-[(1S)-1-aminoethyl]-2-oxanyl]oxy]-2,5-dihydroxy-6-methoxycyclohexyl]-2-(aminomethylideneamino)-N-methylacetamide

> <PUBCHEM_IUPAC_NAME>
N-[(1S,2R,3R,4S,5S,6R)-4-amino-3-[(2R,3R,6S)-3-amino-6-[(1S)-1-aminoethyl]oxan-2-yl]oxy-2,5-dihydroxy-6-methoxycyclohexyl]-2-(aminomethylideneamino)-N-methylacetamide

> <PUBCHEM_IUPAC_SYSTEMATIC_NAME>
N-[(1S,2R,3S,4S,5R,6R)-4-azanyl-5-[(2R,3R,6S)-3-azanyl-6-[(1S)-1-azanylethyl]oxan-2-yl]oxy-2-methoxy-3,6-bis(oxidanyl)cyclohexyl]-2-(azanylmethylideneamino)-N-methyl-ethanamide

> <PUBCHEM_IUPAC_TRADITIONAL_NAME>
N-[(1S,2R,3R,4S,5S,6R)-4-amino-3-[(2R,3R,6S)-3-amino-6-[(1S)-1-aminoethyl]tetrahydropyran-2-yl]oxy-2,5-dihydroxy-6-methoxy-cyclohexyl]-2-(aminomethyleneamino)-N-methyl-acetamide

> <PUBCHEM_IUPAC_INCHI>
InChI=1S/C18H36N6O6/c1-8(20)10-5-4-9(21)18(29-10)30-16-12(22)14(26)17(28-3)13(15(16)27)24(2)11(25)6-23-7-19/h7-10,12-18,26-27H,4-6,20-22H2,1-3H3,(H2,19,23)/t8-,9+,10-,12-,13-,14-,15+,16+,17+,18+/m0/s1

> <PUBCHEM_IUPAC_INCHIKEY>
VFBPKQSATYZKRX-WKEGKRRDSA-N

> <PUBCHEM_XLOGP3_AA>
-4.3

> <PUBCHEM_EXACT_MASS>
432.269633

> <PUBCHEM_MOLECULAR_FORMULA>
C18H36N6O6

> <PUBCHEM_MOLECULAR_WEIGHT>
432.51504

> <PUBCHEM_OPENEYE_CAN_SMILES>
CC(C1CCC(C(O1)OC2C(C(C(C(C2O)N(C)C(=O)CN=CN)OC)O)N)N)N

> <PUBCHEM_OPENEYE_ISO_SMILES>
C[C@@H]([C@@H]1CC[C@H]([C@H](O1)O[C@@H]2[C@H]([C@@H]([C@@H]([C@H]([C@H]2O)N(C)C(=O)CN=CN)OC)O)N)N)N

> <PUBCHEM_CACTVS_TPSA>
205

> <PUBCHEM_MONOISOTOPIC_WEIGHT>
432.269633

> <PUBCHEM_TOTAL_CHARGE>
0

> <PUBCHEM_HEAVY_ATOM_COUNT>
30

> <PUBCHEM_ATOM_DEF_STEREO_COUNT>
10

> <PUBCHEM_ATOM_UDEF_STEREO_COUNT>
0

> <PUBCHEM_BOND_DEF_STEREO_COUNT>
0

> <PUBCHEM_BOND_UDEF_STEREO_COUNT>
0

> <PUBCHEM_ISOTOPIC_ATOM_COUNT>
0

> <PUBCHEM_COMPONENT_COUNT>
1

> <PUBCHEM_CACTVS_TAUTO_COUNT>
2

> <PUBCHEM_COORDINATE_TYPE>
1
5
255

> <PUBCHEM_BONDANNOTATIONS>
13  1  5
19  1  6
24  10  5
17  2  5
21  39  6
15  3  6
18  5  5
14  7  6
16  8  6
20  9  6

$$$$

