   Color/Form
        YELLOW OR COLORLESS PLATES FROM ALCOHOL
   from [1]HSDB

   Melting Point
        136 DEG C
   from [2]HSDB

   pH
        IS WEAK BASE THAT FORMS SALTS WITH HYDROCHLORIC ACID, SULFURIC
   ACID.
   from [3]HSDB

   Solubilities

     * SOL IN ETHYL ETHER, VERY SOL IN ETHANOL.
     * Sol in alcohol

   from [4]HSDB

   Spectral Properties
        MAX ABSORPTION (ACETIC ACID): 270 NM (LOG E= 3.48); 372 NM (LOG E=
   3.54); 440 NM (LOG E= 3.74)
   from [5]HSDB

   Other Chemical/Physical Properties
        CATIONIC
   from [6]HSDB

   Computed Properties
   Molecular Weight                  267.36874 [g/mol]
   Molecular Formula                 C[17]H[21]N[3]
   XLogP3                            4
   H-Bond Donor                      1
   H-Bond Acceptor                   3
   Rotatable Bond Count              4
   Exact Mass                        267.173548
   MonoIsotopic Mass                 267.173548
   Topological Polar Surface Area    30.3
   Heavy Atom Count                  20
   Formal Charge                     0
   Complexity                        278
   Isotope Atom Count                0
   Defined Atom Stereocenter Count   0
   Undefined Atom Stereocenter Count 0
   Defined Bond Stereocenter Count   0
   Undefined Bond Stereocenter Count 0
   Covalently-Bonded Unit Count      1
   Feature 3D Acceptor Count         1
   Feature 3D Donor Count            1
   Feature 3D Cation Count           2
   Feature 3D Ring Count             2
   Effective Rotor Count             4
   Conformer Sampling RMSD           0.6
   CID Conformer Count               [7]6

References

   1. http://toxnet.nlm.nih.gov/cgi-bin/sis/search/r?dbs+hsdb:@term+@rn+@rel+492-80-8
   2. http://toxnet.nlm.nih.gov/cgi-bin/sis/search/r?dbs+hsdb:@term+@rn+@rel+492-80-8
   3. http://toxnet.nlm.nih.gov/cgi-bin/sis/search/r?dbs+hsdb:@term+@rn+@rel+492-80-8
   4. http://toxnet.nlm.nih.gov/cgi-bin/sis/search/r?dbs+hsdb:@term+@rn+@rel+492-80-8
   5. http://toxnet.nlm.nih.gov/cgi-bin/sis/search/r?dbs+hsdb:@term+@rn+@rel+492-80-8
   6. http://toxnet.nlm.nih.gov/cgi-bin/sis/search/r?dbs+hsdb:@term+@rn+@rel+492-80-8
   7. http://pubchem.ncbi.nlm.nih.gov/vw3d/vw3d.cgi?cid=10298
