46173907
  -OEChem-07051213102D

 86 90  0     1  0  0  0  0  0999 V2000
    3.8700   -1.2752    0.0000 O   0  0  0  0  0  0  0  0  0  0  0  0
    4.2839    1.6708    0.0000 O   0  0  0  0  0  0  0  0  0  0  0  0
    6.9893    1.2468    0.0000 O   0  0  0  0  0  0  0  0  0  0  0  0
    5.6488    2.4029    0.0000 O   0  0  0  0  0  0  0  0  0  0  0  0
    2.5896    0.3107    0.0000 O   0  0  0  0  0  0  0  0  0  0  0  0
    7.8820   -1.6863    0.0000 O   0  0  0  0  0  0  0  0  0  0  0  0
    9.1556   -2.8601    0.0000 O   0  0  0  0  0  0  0  0  0  0  0  0
    7.2898    2.9572    0.0000 O   0  0  0  0  0  0  0  0  0  0  0  0
    6.5266   -3.1570    0.0000 O   0  0  0  0  0  0  0  0  0  0  0  0
    7.1226   -5.0661    0.0000 O   0  0  0  0  0  0  0  0  0  0  0  0
    9.0740   -5.5046    0.0000 O   0  0  0  0  0  0  0  0  0  0  0  0
   11.1070   -3.2985    0.0000 O   0  0  0  0  0  0  0  0  0  0  0  0
   12.7603   -2.7823    0.0000 O   0  0  0  0  0  0  0  0  0  0  0  0
   11.7030   -5.2076    0.0000 O   0  0  0  0  0  0  0  0  0  0  0  0
   13.6543   -5.6460    0.0000 O   0  0  0  0  0  0  0  0  0  0  0  0
   15.0097   -4.1753    0.0000 O   0  0  0  0  0  0  0  0  0  0  0  0
   14.1157   -1.3116    0.0000 O   0  0  0  0  0  0  0  0  0  0  0  0
    3.9748   -0.2803    0.0000 C   0  0  1  0  0  0  0  0  0  0  0  0
    4.7839   -0.8681    0.0000 C   0  0  2  0  0  0  0  0  0  0  0  0
    4.2839    0.6708    0.0000 C   0  0  1  0  0  0  0  0  0  0  0  0
    5.5929   -0.2803    0.0000 C   0  0  1  0  0  0  0  0  0  0  0  0
    5.2839    0.6708    0.0000 C   0  0  2  0  0  0  0  0  0  0  0  0
    5.9688    1.4555    0.0000 C   0  0  1  0  0  0  0  0  0  0  0  0
    6.6083   -0.5125    0.0000 C   0  0  0  0  0  0  0  0  0  0  0  0
    3.3328    0.9798    0.0000 C   0  0  0  0  0  0  0  0  0  0  0  0
    7.3112    0.2562    0.0000 C   0  0  0  0  0  0  0  0  0  0  0  0
    6.9063   -1.4671    0.0000 C   0  0  0  0  0  0  0  0  0  0  0  0
    6.3093    3.1538    0.0000 C   0  0  0  0  0  0  0  0  0  0  0  0
    8.1800   -2.6409    0.0000 C   0  0  2  0  0  0  0  0  0  0  0  0
    5.9893    4.1012    0.0000 C   0  0  0  0  0  0  0  0  0  0  0  0
    7.5023   -3.3762    0.0000 C   0  0  1  0  0  0  0  0  0  0  0  0
    7.8003   -4.3308    0.0000 C   0  0  2  0  0  0  0  0  0  0  0  0
    9.4536   -3.8146    0.0000 C   0  0  1  0  0  0  0  0  0  0  0  0
    8.7760   -4.5500    0.0000 C   0  0  1  0  0  0  0  0  0  0  0  0
    6.6498    4.8520    0.0000 C   0  0  0  0  0  0  0  0  0  0  0  0
   10.4293   -4.0338    0.0000 C   0  0  0  0  0  0  0  0  0  0  0  0
    6.3298    5.7994    0.0000 C   0  0  0  0  0  0  0  0  0  0  0  0
    7.6303    4.6554    0.0000 C   0  0  0  0  0  0  0  0  0  0  0  0
   12.0827   -3.5177    0.0000 C   0  0  2  0  0  0  0  0  0  0  0  0
   12.3807   -4.4723    0.0000 C   0  0  1  0  0  0  0  0  0  0  0  0
   13.3563   -4.6915    0.0000 C   0  0  2  0  0  0  0  0  0  0  0  0
   14.0340   -3.9561    0.0000 C   0  0  1  0  0  0  0  0  0  0  0  0
   13.7360   -3.0015    0.0000 C   0  0  1  0  0  0  0  0  0  0  0  0
   14.4137   -2.2662    0.0000 C   0  0  0  0  0  0  0  0  0  0  0  0
    3.3684   -0.1513    0.0000 H   0  0  0  0  0  0  0  0  0  0  0  0
    5.0939   -1.4050    0.0000 H   0  0  0  0  0  0  0  0  0  0  0  0
    5.7632   -1.1130    0.0000 H   0  0  0  0  0  0  0  0  0  0  0  0
    4.9322    1.4446    0.0000 H   0  0  0  0  0  0  0  0  0  0  0  0
    5.3607    1.5762    0.0000 H   0  0  0  0  0  0  0  0  0  0  0  0
    3.6239    1.5272    0.0000 H   0  0  0  0  0  0  0  0  0  0  0  0
    2.8442    1.3615    0.0000 H   0  0  0  0  0  0  0  0  0  0  0  0
    3.7469    1.9808    0.0000 H   0  0  0  0  0  0  0  0  0  0  0  0
    7.9172    0.1249    0.0000 H   0  0  0  0  0  0  0  0  0  0  0  0
    6.2914   -1.5463    0.0000 H   0  0  0  0  0  0  0  0  0  0  0  0
    6.8775   -2.0864    0.0000 H   0  0  0  0  0  0  0  0  0  0  0  0
    2.0000    0.5023    0.0000 H   0  0  0  0  0  0  0  0  0  0  0  0
    7.5750   -2.5050    0.0000 H   0  0  0  0  0  0  0  0  0  0  0  0
    5.6020    4.5853    0.0000 H   0  0  0  0  0  0  0  0  0  0  0  0
    5.4453    3.8038    0.0000 H   0  0  0  0  0  0  0  0  0  0  0  0
    7.3175   -2.7844    0.0000 H   0  0  0  0  0  0  0  0  0  0  0  0
    7.9850   -4.9226    0.0000 H   0  0  0  0  0  0  0  0  0  0  0  0
    9.8738   -3.3587    0.0000 H   0  0  0  0  0  0  0  0  0  0  0  0
    8.3558   -5.0059    0.0000 H   0  0  0  0  0  0  0  0  0  0  0  0
    6.0419    4.9739    0.0000 H   0  0  0  0  0  0  0  0  0  0  0  0
   10.1904   -4.6060    0.0000 H   0  0  0  0  0  0  0  0  0  0  0  0
   10.9513   -4.3684    0.0000 H   0  0  0  0  0  0  0  0  0  0  0  0
    6.1064   -3.6129    0.0000 H   0  0  0  0  0  0  0  0  0  0  0  0
    6.9172    5.9978    0.0000 H   0  0  0  0  0  0  0  0  0  0  0  0
    7.5084    4.0475    0.0000 H   0  0  0  0  0  0  0  0  0  0  0  0
    8.2382    4.5336    0.0000 H   0  0  0  0  0  0  0  0  0  0  0  0
    7.7522    5.2633    0.0000 H   0  0  0  0  0  0  0  0  0  0  0  0
    6.1314    6.3868    0.0000 H   0  0  0  0  0  0  0  0  0  0  0  0
    5.7424    5.6010    0.0000 H   0  0  0  0  0  0  0  0  0  0  0  0
    7.3074   -5.6580    0.0000 H   0  0  0  0  0  0  0  0  0  0  0  0
   11.6625   -3.9736    0.0000 H   0  0  0  0  0  0  0  0  0  0  0  0
    9.6789   -5.6405    0.0000 H   0  0  0  0  0  0  0  0  0  0  0  0
   12.5654   -5.0641    0.0000 H   0  0  0  0  0  0  0  0  0  0  0  0
   12.9362   -5.1474    0.0000 H   0  0  0  0  0  0  0  0  0  0  0  0
   14.2188   -4.5479    0.0000 H   0  0  0  0  0  0  0  0  0  0  0  0
   13.5513   -2.4097    0.0000 H   0  0  0  0  0  0  0  0  0  0  0  0
   14.7897   -2.7591    0.0000 H   0  0  0  0  0  0  0  0  0  0  0  0
   14.9645   -1.9815    0.0000 H   0  0  0  0  0  0  0  0  0  0  0  0
   11.8877   -5.7994    0.0000 H   0  0  0  0  0  0  0  0  0  0  0  0
   14.2593   -5.7819    0.0000 H   0  0  0  0  0  0  0  0  0  0  0  0
   15.4299   -3.7194    0.0000 H   0  0  0  0  0  0  0  0  0  0  0  0
   14.5359   -0.8557    0.0000 H   0  0  0  0  0  0  0  0  0  0  0  0
 18  1  1  6  0  0  0
 19  1  1  6  0  0  0
 20  2  1  6  0  0  0
  2 52  1  0  0  0  0
  3 23  1  0  0  0  0
  3 26  1  0  0  0  0
 23  4  1  6  0  0  0
  4 28  1  0  0  0  0
  5 25  1  0  0  0  0
  5 56  1  0  0  0  0
  6 27  1  0  0  0  0
 29  6  1  6  0  0  0
  7 29  1  0  0  0  0
  7 33  1  0  0  0  0
  8 28  2  0  0  0  0
 31  9  1  1  0  0  0
  9 67  1  0  0  0  0
 32 10  1  6  0  0  0
 10 74  1  0  0  0  0
 34 11  1  1  0  0  0
 11 76  1  0  0  0  0
 12 36  1  0  0  0  0
 39 12  1  6  0  0  0
 13 39  1  0  0  0  0
 13 43  1  0  0  0  0
 40 14  1  1  0  0  0
 14 83  1  0  0  0  0
 41 15  1  6  0  0  0
 15 84  1  0  0  0  0
 42 16  1  1  0  0  0
 16 85  1  0  0  0  0
 17 44  1  0  0  0  0
 17 86  1  0  0  0  0
 18 19  1  0  0  0  0
 18 20  1  0  0  0  0
 18 45  1  0  0  0  0
 19 21  1  0  0  0  0
 19 46  1  0  0  0  0
 20 22  1  0  0  0  0
 20 25  1  0  0  0  0
 21 22  1  0  0  0  0
 21 24  1  0  0  0  0
 21 47  1  6  0  0  0
 22 23  1  0  0  0  0
 22 48  1  6  0  0  0
 23 49  1  0  0  0  0
 24 26  2  0  0  0  0
 24 27  1  0  0  0  0
 25 50  1  0  0  0  0
 25 51  1  0  0  0  0
 26 53  1  0  0  0  0
 27 54  1  0  0  0  0
 27 55  1  0  0  0  0
 28 30  1  0  0  0  0
 29 31  1  0  0  0  0
 29 57  1  0  0  0  0
 30 35  1  0  0  0  0
 30 58  1  0  0  0  0
 30 59  1  0  0  0  0
 31 32  1  0  0  0  0
 31 60  1  0  0  0  0
 32 34  1  0  0  0  0
 32 61  1  0  0  0  0
 33 34  1  0  0  0  0
 33 36  1  6  0  0  0
 33 62  1  0  0  0  0
 34 63  1  0  0  0  0
 35 37  1  0  0  0  0
 35 38  1  0  0  0  0
 35 64  1  0  0  0  0
 36 65  1  0  0  0  0
 36 66  1  0  0  0  0
 37 68  1  0  0  0  0
 37 72  1  0  0  0  0
 37 73  1  0  0  0  0
 38 69  1  0  0  0  0
 38 70  1  0  0  0  0
 38 71  1  0  0  0  0
 39 40  1  0  0  0  0
 39 75  1  0  0  0  0
 40 41  1  0  0  0  0
 40 77  1  0  0  0  0
 41 42  1  0  0  0  0
 41 78  1  0  0  0  0
 42 43  1  0  0  0  0
 42 79  1  0  0  0  0
 43 44  1  6  0  0  0
 43 80  1  0  0  0  0
 44 81  1  0  0  0  0
 44 82  1  0  0  0  0
M  END
> <PUBCHEM_COMPOUND_CID>
46173907

> <PUBCHEM_COMPOUND_CANONICALIZED>
1

> <PUBCHEM_CACTVS_COMPLEXITY>
1040

> <PUBCHEM_CACTVS_HBOND_ACCEPTOR>
17

> <PUBCHEM_CACTVS_HBOND_DONOR>
9

> <PUBCHEM_CACTVS_ROTATABLE_BOND>
12

> <PUBCHEM_CACTVS_SUBSKEYS>
AAADcfB4PgAAAAAAAAAAAAAAEgAAAYAAAAAkSJEAAAAAAEAAAAAAGgAACAAADVSwgAMCCAAABgCIAgDSCAAACAAgIAAAAAEAAAgRFBIAIQAiQAAFwAAHIAHA4PwOgAAAAAAAAAAAAAAAAAAAAYQADCAAAA==

> <PUBCHEM_IUPAC_OPENEYE_NAME>
[(1aS,1bS,5S,5aS,6S,6aS)-6-hydroxy-6-(hydroxymethyl)-2-[[(2R,3R,4S,5S,6R)-3,4,5-trihydroxy-6-[[(2R,3R,4S,5S,6R)-3,4,5-trihydroxy-6-(hydroxymethyl)tetrahydropyran-2-yl]oxymethyl]tetrahydropyran-2-yl]oxymethyl]-1b,5,5a,6a-tetrahydro-1aH-oxireno[3,4]cyclopenta[1,3-d]pyran-5-yl] 3-methylbutanoate

> <PUBCHEM_IUPAC_CAS_NAME>
3-methylbutanoic acid [(1aS,1bS,5S,5aS,6S,6aS)-6-hydroxy-6-(hydroxymethyl)-2-[[(2R,3R,4S,5S,6R)-3,4,5-trihydroxy-6-[[(2R,3R,4S,5S,6R)-3,4,5-trihydroxy-6-(hydroxymethyl)-2-oxanyl]oxymethyl]-2-oxanyl]oxymethyl]-1b,5,5a,6a-tetrahydro-1aH-oxireno[3,4]cyclopenta[1,3-d]pyran-5-yl] ester

> <PUBCHEM_IUPAC_NAME>
[(1aS,1bS,5S,5aS,6S,6aS)-6-hydroxy-6-(hydroxymethyl)-2-[[(2R,3R,4S,5S,6R)-3,4,5-trihydroxy-6-[[(2R,3R,4S,5S,6R)-3,4,5-trihydroxy-6-(hydroxymethyl)oxan-2-yl]oxymethyl]oxan-2-yl]oxymethyl]-1b,5,5a,6a-tetrahydro-1aH-oxireno[3,4]cyclopenta[1,3-d]pyran-5-yl] 3-methylbutanoate

> <PUBCHEM_IUPAC_SYSTEMATIC_NAME>
[(1aS,1bS,5S,5aS,6S,6aS)-6-(hydroxymethyl)-2-[[(2R,3R,4S,5S,6R)-6-[[(2R,3R,4S,5S,6R)-6-(hydroxymethyl)-3,4,5-tris(oxidanyl)oxan-2-yl]oxymethyl]-3,4,5-tris(oxidanyl)oxan-2-yl]oxymethyl]-6-oxidanyl-1b,5,5a,6a-tetrahydro-1aH-oxireno[3,4]cyclopenta[1,3-d]pyran-5-yl] 3-methylbutanoate

> <PUBCHEM_IUPAC_TRADITIONAL_NAME>
3-methylbutyric acid [(1aS,1bS,5S,5aS,6S,6aS)-6-hydroxy-6-methylol-2-[[(2R,3R,4S,5S,6R)-3,4,5-trihydroxy-6-[[(2R,3R,4S,5S,6R)-3,4,5-trihydroxy-6-methylol-tetrahydropyran-2-yl]oxymethyl]tetrahydropyran-2-yl]oxymethyl]-1b,5,5a,6a-tetrahydro-1aH-oxireno[3,4]cyclopenta[1,3-d]pyran-5-yl] ester

> <PUBCHEM_IUPAC_INCHI>
InChI=1S/C27H42O17/c1-9(2)3-13(30)43-24-15-14(22-23(44-22)27(15,37)8-29)10(5-38-24)6-39-25-21(36)19(34)17(32)12(42-25)7-40-26-20(35)18(33)16(31)11(4-28)41-26/h5,9,11-12,14-26,28-29,31-37H,3-4,6-8H2,1-2H3/t11-,12-,14-,15-,16-,17-,18+,19+,20-,21-,22+,23+,24+,25-,26-,27-/m1/s1

> <PUBCHEM_IUPAC_INCHIKEY>
ZTHFWSGQXKJHJD-WWSDMLAVSA-N

> <PUBCHEM_XLOGP3_AA>
-4.9

> <PUBCHEM_EXACT_MASS>
638.2422

> <PUBCHEM_MOLECULAR_FORMULA>
C27H42O17

> <PUBCHEM_MOLECULAR_WEIGHT>
638.61218

> <PUBCHEM_OPENEYE_CAN_SMILES>
CC(C)CC(=O)OC1C2C(C3C(C2(CO)O)O3)C(=CO1)COC4C(C(C(C(O4)COC5C(C(C(C(O5)CO)O)O)O)O)O)O

> <PUBCHEM_OPENEYE_ISO_SMILES>
CC(C)CC(=O)O[C@H]1[C@H]2[C@H]([C@H]3[C@@H]([C@]2(CO)O)O3)C(=CO1)CO[C@H]4[C@@H]([C@H]([C@@H]([C@H](O4)CO[C@H]5[C@@H]([C@H]([C@@H]([C@H](O5)CO)O)O)O)O)O)O

> <PUBCHEM_CACTVS_TPSA>
267

> <PUBCHEM_MONOISOTOPIC_WEIGHT>
638.2422

> <PUBCHEM_TOTAL_CHARGE>
0

> <PUBCHEM_HEAVY_ATOM_COUNT>
44

> <PUBCHEM_ATOM_DEF_STEREO_COUNT>
16

> <PUBCHEM_ATOM_UDEF_STEREO_COUNT>
0

> <PUBCHEM_BOND_DEF_STEREO_COUNT>
0

> <PUBCHEM_BOND_UDEF_STEREO_COUNT>
0

> <PUBCHEM_ISOTOPIC_ATOM_COUNT>
0

> <PUBCHEM_COMPONENT_COUNT>
1

> <PUBCHEM_CACTVS_TAUTO_COUNT>
1

> <PUBCHEM_COORDINATE_TYPE>
1
5
255

> <PUBCHEM_BONDANNOTATIONS>
18  1  6
19  1  6
32  10  6
34  11  5
39  12  6
40  14  5
41  15  6
42  16  5
20  2  6
21  47  6
22  48  6
33  36  6
23  4  6
43  44  6
29  6  6
31  9  5

$$$$

