11954072
  -OEChem-07051213062D

 77 76  0     1  0  0  0  0  0999 V2000
    7.7331    0.6550    0.0000 S   0  0  0  0  0  0  0  0  0  0  0  0
    8.5991    3.1550    0.0000 S   0  0  0  0  0  0  0  0  0  0  0  0
    6.8671   -2.8450    0.0000 O   0  0  0  0  0  0  0  0  0  0  0  0
    7.7331    3.6550    0.0000 O   0  0  0  0  0  0  0  0  0  0  0  0
    6.0010   -2.3450    0.0000 O   0  0  0  0  0  0  0  0  0  0  0  0
   10.3312    6.1550    0.0000 O   0  0  0  0  0  0  0  0  0  0  0  0
   10.3312   -5.8450    0.0000 O   0  0  0  0  0  0  0  0  0  0  0  0
    3.4030    5.1550    0.0000 O   0  0  0  0  0  0  0  0  0  0  0  0
    8.5991   -5.8450    0.0000 O   0  0  0  0  0  0  0  0  0  0  0  0
    4.2690    3.6550    0.0000 O   0  0  0  0  0  0  0  0  0  0  0  0
    9.4651    1.6550    0.0000 O   0  0  0  0  0  0  0  0  0  0  0  0
    2.5369   -1.3450    0.0000 O   0  0  0  0  0  0  0  0  0  0  0  0
   13.7953    5.1550    0.0000 O   0  0  0  0  0  0  0  0  0  0  0  0
    3.4030    0.1550    0.0000 O   0  0  0  0  0  0  0  0  0  0  0  0
   12.9292    3.6550    0.0000 O   0  0  0  0  0  0  0  0  0  0  0  0
    7.7331   -1.3450    0.0000 N   0  0  0  0  0  0  0  0  0  0  0  0
    8.5991    5.1550    0.0000 N   0  0  0  0  0  0  0  0  0  0  0  0
    5.1350   -0.8450    0.0000 N   0  0  0  0  0  0  0  0  0  0  0  0
   10.3312   -3.8450    0.0000 N   0  0  0  0  0  0  0  0  0  0  0  0
    5.1350    6.1550    0.0000 N   0  0  0  0  0  0  0  0  0  0  0  0
   11.1972    4.6550    0.0000 N   0  0  0  0  0  0  0  0  0  0  0  0
    6.8671   -0.8450    0.0000 C   0  0  1  0  0  0  0  0  0  0  0  0
    9.4651    4.6550    0.0000 C   0  0  1  0  0  0  0  0  0  0  0  0
    8.5991   -3.8450    0.0000 C   0  0  0  0  0  0  0  0  0  0  0  0
    8.5991   -2.8450    0.0000 C   0  0  0  0  0  0  0  0  0  0  0  0
    6.0010    4.6550    0.0000 C   0  0  0  0  0  0  0  0  0  0  0  0
    6.8671    5.1550    0.0000 C   0  0  0  0  0  0  0  0  0  0  0  0
    6.8671    0.1550    0.0000 C   0  0  0  0  0  0  0  0  0  0  0  0
    9.4651   -4.3450    0.0000 C   0  0  1  0  0  0  0  0  0  0  0  0
    5.1350    5.1550    0.0000 C   0  0  1  0  0  0  0  0  0  0  0  0
    9.4651    3.6550    0.0000 C   0  0  0  0  0  0  0  0  0  0  0  0
    7.7331   -2.3450    0.0000 C   0  0  0  0  0  0  0  0  0  0  0  0
    7.7331    4.6550    0.0000 C   0  0  0  0  0  0  0  0  0  0  0  0
    6.0010   -1.3450    0.0000 C   0  0  0  0  0  0  0  0  0  0  0  0
   10.3312    5.1550    0.0000 C   0  0  0  0  0  0  0  0  0  0  0  0
    7.7331    1.6550    0.0000 C   0  0  0  0  0  0  0  0  0  0  0  0
    9.4651   -5.3450    0.0000 C   0  0  0  0  0  0  0  0  0  0  0  0
    4.2690    4.6550    0.0000 C   0  0  0  0  0  0  0  0  0  0  0  0
    8.5991    2.1550    0.0000 C   0  0  0  0  0  0  0  0  0  0  0  0
    4.2690   -1.3450    0.0000 C   0  0  0  0  0  0  0  0  0  0  0  0
   12.0632    5.1550    0.0000 C   0  0  0  0  0  0  0  0  0  0  0  0
    3.4030   -0.8450    0.0000 C   0  0  0  0  0  0  0  0  0  0  0  0
   12.9292    4.6550    0.0000 C   0  0  0  0  0  0  0  0  0  0  0  0
    7.4040   -0.5350    0.0000 H   0  0  0  0  0  0  0  0  0  0  0  0
    9.4651    5.2750    0.0000 H   0  0  0  0  0  0  0  0  0  0  0  0
    7.9885   -3.7373    0.0000 H   0  0  0  0  0  0  0  0  0  0  0  0
    8.3871   -4.4276    0.0000 H   0  0  0  0  0  0  0  0  0  0  0  0
    9.2097   -2.9527    0.0000 H   0  0  0  0  0  0  0  0  0  0  0  0
    8.8112   -2.2624    0.0000 H   0  0  0  0  0  0  0  0  0  0  0  0
    5.6025    4.1800    0.0000 H   0  0  0  0  0  0  0  0  0  0  0  0
    6.3996    4.1800    0.0000 H   0  0  0  0  0  0  0  0  0  0  0  0
    7.2656    5.6300    0.0000 H   0  0  0  0  0  0  0  0  0  0  0  0
    6.4685    5.6300    0.0000 H   0  0  0  0  0  0  0  0  0  0  0  0
    6.6550    0.7376    0.0000 H   0  0  0  0  0  0  0  0  0  0  0  0
    6.2565    0.0473    0.0000 H   0  0  0  0  0  0  0  0  0  0  0  0
    9.4651   -3.7250    0.0000 H   0  0  0  0  0  0  0  0  0  0  0  0
    8.2700   -1.0350    0.0000 H   0  0  0  0  0  0  0  0  0  0  0  0
    5.6720    5.4650    0.0000 H   0  0  0  0  0  0  0  0  0  0  0  0
    9.6772    3.0724    0.0000 H   0  0  0  0  0  0  0  0  0  0  0  0
   10.0757    3.7627    0.0000 H   0  0  0  0  0  0  0  0  0  0  0  0
    8.5991    5.7750    0.0000 H   0  0  0  0  0  0  0  0  0  0  0  0
    7.5210    2.2376    0.0000 H   0  0  0  0  0  0  0  0  0  0  0  0
    7.1225    1.5473    0.0000 H   0  0  0  0  0  0  0  0  0  0  0  0
    5.1350   -0.2250    0.0000 H   0  0  0  0  0  0  0  0  0  0  0  0
   10.8681   -4.1550    0.0000 H   0  0  0  0  0  0  0  0  0  0  0  0
   10.3312   -3.2250    0.0000 H   0  0  0  0  0  0  0  0  0  0  0  0
    4.5981    6.4650    0.0000 H   0  0  0  0  0  0  0  0  0  0  0  0
    5.6720    6.4650    0.0000 H   0  0  0  0  0  0  0  0  0  0  0  0
   11.1972    4.0350    0.0000 H   0  0  0  0  0  0  0  0  0  0  0  0
    3.8705   -1.8200    0.0000 H   0  0  0  0  0  0  0  0  0  0  0  0
    4.6675   -1.8200    0.0000 H   0  0  0  0  0  0  0  0  0  0  0  0
   12.4617    5.6300    0.0000 H   0  0  0  0  0  0  0  0  0  0  0  0
   11.6647    5.6300    0.0000 H   0  0  0  0  0  0  0  0  0  0  0  0
   10.3312   -6.4650    0.0000 H   0  0  0  0  0  0  0  0  0  0  0  0
    2.8660    4.8450    0.0000 H   0  0  0  0  0  0  0  0  0  0  0  0
    2.0000   -1.0350    0.0000 H   0  0  0  0  0  0  0  0  0  0  0  0
   14.3322    4.8450    0.0000 H   0  0  0  0  0  0  0  0  0  0  0  0
  1 28  1  0  0  0  0
  1 36  1  0  0  0  0
  2 31  1  0  0  0  0
  2 39  1  0  0  0  0
  3 32  2  0  0  0  0
  4 33  2  0  0  0  0
  5 34  2  0  0  0  0
  6 35  2  0  0  0  0
  7 37  1  0  0  0  0
  7 74  1  0  0  0  0
  8 38  1  0  0  0  0
  8 75  1  0  0  0  0
  9 37  2  0  0  0  0
 10 38  2  0  0  0  0
 11 39  2  0  0  0  0
 12 42  1  0  0  0  0
 12 76  1  0  0  0  0
 13 43  1  0  0  0  0
 13 77  1  0  0  0  0
 14 42  2  0  0  0  0
 15 43  2  0  0  0  0
 22 16  1  6  0  0  0
 16 32  1  0  0  0  0
 16 57  1  0  0  0  0
 23 17  1  6  0  0  0
 17 33  1  0  0  0  0
 17 61  1  0  0  0  0
 18 34  1  0  0  0  0
 18 40  1  0  0  0  0
 18 64  1  0  0  0  0
 29 19  1  6  0  0  0
 19 65  1  0  0  0  0
 19 66  1  0  0  0  0
 30 20  1  1  0  0  0
 20 67  1  0  0  0  0
 20 68  1  0  0  0  0
 21 35  1  0  0  0  0
 21 41  1  0  0  0  0
 21 69  1  0  0  0  0
 22 28  1  0  0  0  0
 22 34  1  0  0  0  0
 22 44  1  0  0  0  0
 23 31  1  0  0  0  0
 23 35  1  0  0  0  0
 23 45  1  0  0  0  0
 24 25  1  0  0  0  0
 24 29  1  0  0  0  0
 24 46  1  0  0  0  0
 24 47  1  0  0  0  0
 25 32  1  0  0  0  0
 25 48  1  0  0  0  0
 25 49  1  0  0  0  0
 26 27  1  0  0  0  0
 26 30  1  0  0  0  0
 26 50  1  0  0  0  0
 26 51  1  0  0  0  0
 27 33  1  0  0  0  0
 27 52  1  0  0  0  0
 27 53  1  0  0  0  0
 28 54  1  0  0  0  0
 28 55  1  0  0  0  0
 29 37  1  0  0  0  0
 29 56  1  0  0  0  0
 30 38  1  0  0  0  0
 30 58  1  0  0  0  0
 31 59  1  0  0  0  0
 31 60  1  0  0  0  0
 36 39  1  0  0  0  0
 36 62  1  0  0  0  0
 36 63  1  0  0  0  0
 40 42  1  0  0  0  0
 40 70  1  0  0  0  0
 40 71  1  0  0  0  0
 41 43  1  0  0  0  0
 41 72  1  0  0  0  0
 41 73  1  0  0  0  0
M  END
> <PUBCHEM_COMPOUND_CID>
11954072

> <PUBCHEM_COMPOUND_CANONICALIZED>
1

> <PUBCHEM_CACTVS_COMPLEXITY>
1060

> <PUBCHEM_CACTVS_HBOND_ACCEPTOR>
17

> <PUBCHEM_CACTVS_HBOND_DONOR>
10

> <PUBCHEM_CACTVS_ROTATABLE_BOND>
23

> <PUBCHEM_CACTVS_SUBSKEYS>
AAADcfB7vABgAAAAAAAAAAAAAAAAAAAAAAAAAAAAAAAAAAAAAAAAHgQQCAAACCjFwASACALAAggIAAGQGAAAAAAAABAAAIGIAAACQBIggCAUQAAEFgCwAACcFwIAAAAAAAAAAAAAAAAAAAAAAAAAAAAAAA==

> <PUBCHEM_IUPAC_OPENEYE_NAME>
(2S)-2-amino-5-[[(1R)-1-[[2-[(2R)-2-[[(4S)-4-amino-4-carboxy-butanoyl]amino]-3-(carboxymethylamino)-3-oxo-propyl]sulfanyl-2-oxo-ethyl]sulfanylmethyl]-2-(carboxymethylamino)-2-oxo-ethyl]amino]-5-oxo-pentanoic acid

> <PUBCHEM_IUPAC_CAS_NAME>
(2S)-2-amino-5-[[(2R)-3-[[2-[[(2R)-2-[[(4S)-4-amino-4-carboxy-1-oxobutyl]amino]-3-(carboxymethylamino)-3-oxopropyl]thio]-2-oxoethyl]thio]-1-(carboxymethylamino)-1-oxopropan-2-yl]amino]-5-oxopentanoic acid

> <PUBCHEM_IUPAC_NAME>
(2S)-2-amino-5-[[(2R)-3-[2-[(2R)-2-[[(4S)-4-amino-4-carboxybutanoyl]amino]-3-(carboxymethylamino)-3-oxopropyl]sulfanyl-2-oxoethyl]sulfanyl-1-(carboxymethylamino)-1-oxopropan-2-yl]amino]-5-oxopentanoic acid

> <PUBCHEM_IUPAC_SYSTEMATIC_NAME>
(2S)-2-azanyl-5-[[(2R)-3-[2-[(2R)-2-[[(4S)-4-azanyl-5-oxidanyl-5-oxidanylidene-pentanoyl]amino]-3-(2-hydroxy-2-oxoethylamino)-3-oxidanylidene-propyl]sulfanyl-2-oxidanylidene-ethyl]sulfanyl-1-(2-hydroxy-2-oxoethylamino)-1-oxidanylidene-propan-2-yl]amino]-5-oxidanylidene-pentanoic acid

> <PUBCHEM_IUPAC_TRADITIONAL_NAME>
(2S)-2-amino-5-[[(1R)-1-[[[2-[[(2R)-2-[[(4S)-4-amino-4-carboxy-butanoyl]amino]-3-(carboxymethylamino)-3-keto-propyl]thio]-2-keto-ethyl]thio]methyl]-2-(carboxymethylamino)-2-keto-ethyl]amino]-5-keto-valeric acid

> <PUBCHEM_IUPAC_INCHI>
InChI=1S/C22H34N6O13S2/c23-10(21(38)39)1-3-14(29)27-12(19(36)25-5-16(31)32)7-42-9-18(35)43-8-13(20(37)26-6-17(33)34)28-15(30)4-2-11(24)22(40)41/h10-13H,1-9,23-24H2,(H,25,36)(H,26,37)(H,27,29)(H,28,30)(H,31,32)(H,33,34)(H,38,39)(H,40,41)/t10-,11-,12-,13-/m0/s1

> <PUBCHEM_IUPAC_INCHIKEY>
QEJUVDVAWJBQIG-CYDGBPFRSA-N

> <PUBCHEM_XLOGP3_AA>
-8.7

> <PUBCHEM_EXACT_MASS>
654.162527

> <PUBCHEM_MOLECULAR_FORMULA>
C22H34N6O13S2

> <PUBCHEM_MOLECULAR_WEIGHT>
654.66776

> <PUBCHEM_OPENEYE_CAN_SMILES>
C(CC(=O)NC(CSCC(=O)SCC(C(=O)NCC(=O)O)NC(=O)CCC(C(=O)O)N)C(=O)NCC(=O)O)C(C(=O)O)N

> <PUBCHEM_OPENEYE_ISO_SMILES>
C(CC(=O)N[C@@H](CSCC(=O)SC[C@@H](C(=O)NCC(=O)O)NC(=O)CC[C@@H](C(=O)O)N)C(=O)NCC(=O)O)[C@@H](C(=O)O)N

> <PUBCHEM_CACTVS_TPSA>
385

> <PUBCHEM_MONOISOTOPIC_WEIGHT>
654.162527

> <PUBCHEM_TOTAL_CHARGE>
0

> <PUBCHEM_HEAVY_ATOM_COUNT>
43

> <PUBCHEM_ATOM_DEF_STEREO_COUNT>
4

> <PUBCHEM_ATOM_UDEF_STEREO_COUNT>
0

> <PUBCHEM_BOND_DEF_STEREO_COUNT>
0

> <PUBCHEM_BOND_UDEF_STEREO_COUNT>
0

> <PUBCHEM_ISOTOPIC_ATOM_COUNT>
0

> <PUBCHEM_COMPONENT_COUNT>
1

> <PUBCHEM_CACTVS_TAUTO_COUNT>
16

> <PUBCHEM_COORDINATE_TYPE>
1
5
255

> <PUBCHEM_BONDANNOTATIONS>
22  16  6
23  17  6
29  19  6
30  20  5

$$$$

