   Chemical and Physical Properties References

   [1]USDA ARS - USDA chemical properties
   from [2]ChemIDplus

   Color/Form
        Colorless to amber liquid
   from [3]HSDB

   Odor

     * Aromatic odor
     * Mild, chemical odor

   from [4]HSDB

   Boiling Point
        140 deg C at 20 mm Hg
   from [5]HSDB

   Melting Point
        Less than -60 deg C
   from [6]HSDB

   Corrosivity
        CORROSIVE TO IRON & MILD STEEL
   from [7]HSDB

   Density/Specific Gravity
        1.415 at 25 deg C/4 deg C
   from [8]HSDB

   Octanol/Water Partition Coefficient
        log Kow = 1.43
   from [9]HSDB

   Solubilities

     * In water, 8.00X10+3 mg/L at 20 deg C
     * Slightly soluble in glycerin; miscible with aromatic and
       chlorinated hydrocarbon solvents and alcohols.
     * Miscible in dichloromethane, 2-propanol, toluene. Barely soluble in
       kerosene.
     * Miscible with alcohol and most non-polar solvents. Solubility in
       glycerol: about 0.5 g/100 ml.
     * Completely miscible with aromatic hydrocarbons, chlorinated
       hydrocarbons and alcohols; moderately soluble in diesel oil,
       kerosene, isoparaffinic hydrocarbons, and mineral oils.

   from [10]HSDB

   Spectral Properties

     * Index of refraction = 1.451 at 25 deg C/D
     * Intense mass spectral peaks: 109 m/z (100%), 185 m/z (31%), 79 m/z
       (21%), 202 m/z (12%)
     * Intense mass spectral peaks: 145 m/z, 220 m/z

   from [11]HSDB

   Vapor Pressure
        1.58X10-2 mm Hg at 25 deg C
   from [12]HSDB

   Other Chemical/Physical Properties

     * The air water partition coefficient is 5.0X10-3 for dichlorvos.
     * An endothermic reaction occurs between 185 and 280 deg C; the
       product decomposed violently at around 315 deg C.
     * Slowly hydrolyzed in water and in acid media; rapidly hydrolyzed by
       alkalis to dimethyl hydrogen phosphate and dichloroacetaldehyde.
     * Henry's Law constant = 5.7X10-7 atm-cu m/mol at 25 deg C (est)
     * Hydroxyl radical reaction rate constant = 2.6X10-11 cu m/molec-sec
       at 25 deg C [Feigenbrugel V et al; Environ Sci Technol 40: 850-7
       (2006)] [13]PubMed Abstract

   from [14]HSDB

   Computed Properties
   Molecular Weight                  220.975742 [g/mol]
   Molecular Formula                 C[4]H[7]Cl[2]O[4]P
   XLogP3                            1.4
   H-Bond Donor                      0
   H-Bond Acceptor                   4
   Rotatable Bond Count              4
   Exact Mass                        219.945901
   MonoIsotopic Mass                 219.945901
   Topological Polar Surface Area    44.8
   Heavy Atom Count                  11
   Formal Charge                     0
   Complexity                        181
   Isotope Atom Count                0
   Defined Atom Stereocenter Count   0
   Undefined Atom Stereocenter Count 0
   Defined Bond Stereocenter Count   0
   Undefined Bond Stereocenter Count 0
   Covalently-Bonded Unit Count      1
   Feature 3D Acceptor Count         1
   Effective Rotor Count             4
   Conformer Sampling RMSD           0.6
   CID Conformer Count               [15]29

References

   1. http://www.ars.usda.gov/SP2UserFiles/ad_hoc/12755100DatabaseFiles/PesticidePropertiesDatabase/IndividualPesticideFiles/DICHLORVOS(DDVP).TXT
   2. http://chem.sis.nlm.nih.gov/chemidplus/
   3. http://toxnet.nlm.nih.gov/cgi-bin/sis/search/r?dbs+hsdb:@term+@rn+@rel+62-73-7
   4. http://toxnet.nlm.nih.gov/cgi-bin/sis/search/r?dbs+hsdb:@term+@rn+@rel+62-73-7
   5. http://toxnet.nlm.nih.gov/cgi-bin/sis/search/r?dbs+hsdb:@term+@rn+@rel+62-73-7
   6. http://toxnet.nlm.nih.gov/cgi-bin/sis/search/r?dbs+hsdb:@term+@rn+@rel+62-73-7
   7. http://toxnet.nlm.nih.gov/cgi-bin/sis/search/r?dbs+hsdb:@term+@rn+@rel+62-73-7
   8. http://toxnet.nlm.nih.gov/cgi-bin/sis/search/r?dbs+hsdb:@term+@rn+@rel+62-73-7
   9. http://toxnet.nlm.nih.gov/cgi-bin/sis/search/r?dbs+hsdb:@term+@rn+@rel+62-73-7
  10. http://toxnet.nlm.nih.gov/cgi-bin/sis/search/r?dbs+hsdb:@term+@rn+@rel+62-73-7
  11. http://toxnet.nlm.nih.gov/cgi-bin/sis/search/r?dbs+hsdb:@term+@rn+@rel+62-73-7
  12. http://toxnet.nlm.nih.gov/cgi-bin/sis/search/r?dbs+hsdb:@term+@rn+@rel+62-73-7
  13. http://www.ncbi.nlm.nih.gov/entrez/query.fcgi?cmd=Retrieve&db=pubmed&dopt=Abstract&list_uids=16509328
  14. http://toxnet.nlm.nih.gov/cgi-bin/sis/search/r?dbs+hsdb:@term+@rn+@rel+62-73-7
  15. http://pubchem.ncbi.nlm.nih.gov/vw3d/vw3d.cgi?cid=3039
