   Color/Form
        COLORLESS, YELLOWISH OR REDDISH, OILY LIQ
   from [1]HSDB

   Odor
        LIQUID HAVING THE CHARACTERISTIC ODOR OF WINTERGREEN
   from [2]HSDB

   Taste
        LIQUID HAVING THE CHARACTERISTIC TASTE OF WINTERGREEN
   from [3]HSDB

   Boiling Point
        220-224 DEG C
   from [4]HSDB

   Melting Point
        -8.6 DEG C
   from [5]HSDB

   Density/Specific Gravity
        1.184 @ 25 DEG C/25 DEG C
   from [6]HSDB

   Dissociation Constants
        pKa = 9.8
   from [7]HSDB

   Heat of Combustion
        -902.2 kcal/mole @ 25 deg C
   from [8]HSDB

   Heat of Vaporization
        11.155 kcal/mol @ the boiling point
   from [9]HSDB

   Octanol/Water Partition Coefficient
        Log Kow = 2.55
   from [10]HSDB

   Solubilities

     * SOL IN CHLOROFORM, ETHER; MISCIBLE WITH ALC, GLACIAL ACETIC ACID
     * SOL IN DIETHYL ETHER
     * SOLUBLE IN MOST COMMON ORGANIC SOLVENTS
     * Sol in water: 0.74%w @ 30 deg C

   from [11]HSDB

   Spectral Properties

     * INDEX OF REFRACTION: 1.5369 AT 20 DEG C/D; MAX ABSORPTION: 306 NM
       (LOG E= 3.64); SADTLER REFERENCE NUMBER: 2238 (IR, PRISM); MAX
       ABSORPTION (ALC): 238 NM (LOG E= 3.97)
     * Intense mass spectral peaks: 65 m/z, 92 m/z, 120 m/z, 152 m/z

   from [12]HSDB

   Surface Tension
        44.2 dynes/cm @ -19.8 deg C; 19.8 dynes/cm @ 212.2 deg C
   from [13]HSDB

   Vapor Density
        5.2
   from [14]HSDB

   Vapor Pressure
        Vapor pressure = 0.0343 mm Hg @ 25 deg C
   from [15]HSDB

   Other Chemical/Physical Properties

     * DENSITY OF NATURAL ESTER IS ABOUT 1.180
     * WINTERGREEN ESSENTIAL OIL: ESTER VALUE: 354-356; OPTICAL ROTATION:
       -0 DEG 25' TO -1 DEG 30'
     * 1 MM HG @ 54.0 DEG C
     * Heat capacity = 59.46 cal/deg K-mol @ 15-30 deg C

   from [16]HSDB

   Computed Properties
   Molecular Weight                  152.14732 [g/mol]
   Molecular Formula                 C[8]H[8]O[3]
   XLogP3                            2.3
   H-Bond Donor                      1
   H-Bond Acceptor                   3
   Rotatable Bond Count              2
   Tautomer Count                    4
   Exact Mass                        152.047344
   MonoIsotopic Mass                 152.047344
   Topological Polar Surface Area    46.5
   Heavy Atom Count                  11
   Formal Charge                     0
   Complexity                        144
   Isotope Atom Count                0
   Defined Atom Stereocenter Count   0
   Undefined Atom Stereocenter Count 0
   Defined Bond Stereocenter Count   0
   Undefined Bond Stereocenter Count 0
   Covalently-Bonded Unit Count      1
   Feature 3D Acceptor Count         1
   Feature 3D Donor Count            1
   Feature 3D Ring Count             1
   Effective Rotor Count             2
   Conformer Sampling RMSD           0.4
   CID Conformer Count               [17]6

References

   1. http://toxnet.nlm.nih.gov/cgi-bin/sis/search/r?dbs+hsdb:@term+@rn+@rel+119-36-8
   2. http://toxnet.nlm.nih.gov/cgi-bin/sis/search/r?dbs+hsdb:@term+@rn+@rel+119-36-8
   3. http://toxnet.nlm.nih.gov/cgi-bin/sis/search/r?dbs+hsdb:@term+@rn+@rel+119-36-8
   4. http://toxnet.nlm.nih.gov/cgi-bin/sis/search/r?dbs+hsdb:@term+@rn+@rel+119-36-8
   5. http://toxnet.nlm.nih.gov/cgi-bin/sis/search/r?dbs+hsdb:@term+@rn+@rel+119-36-8
   6. http://toxnet.nlm.nih.gov/cgi-bin/sis/search/r?dbs+hsdb:@term+@rn+@rel+119-36-8
   7. http://toxnet.nlm.nih.gov/cgi-bin/sis/search/r?dbs+hsdb:@term+@rn+@rel+119-36-8
   8. http://toxnet.nlm.nih.gov/cgi-bin/sis/search/r?dbs+hsdb:@term+@rn+@rel+119-36-8
   9. http://toxnet.nlm.nih.gov/cgi-bin/sis/search/r?dbs+hsdb:@term+@rn+@rel+119-36-8
  10. http://toxnet.nlm.nih.gov/cgi-bin/sis/search/r?dbs+hsdb:@term+@rn+@rel+119-36-8
  11. http://toxnet.nlm.nih.gov/cgi-bin/sis/search/r?dbs+hsdb:@term+@rn+@rel+119-36-8
  12. http://toxnet.nlm.nih.gov/cgi-bin/sis/search/r?dbs+hsdb:@term+@rn+@rel+119-36-8
  13. http://toxnet.nlm.nih.gov/cgi-bin/sis/search/r?dbs+hsdb:@term+@rn+@rel+119-36-8
  14. http://toxnet.nlm.nih.gov/cgi-bin/sis/search/r?dbs+hsdb:@term+@rn+@rel+119-36-8
  15. http://toxnet.nlm.nih.gov/cgi-bin/sis/search/r?dbs+hsdb:@term+@rn+@rel+119-36-8
  16. http://toxnet.nlm.nih.gov/cgi-bin/sis/search/r?dbs+hsdb:@term+@rn+@rel+119-36-8
  17. http://pubchem.ncbi.nlm.nih.gov/vw3d/vw3d.cgi?cid=4133
