   Color/Form

     * Crystallizes as prisms from dil acetic acid and as needles from
       water
     * White flakes
     * Crystals or flakes
     * white to cream

   from [1]HSDB

   Odor
        Mild phenolic odor
   from [2]HSDB

   Boiling Point
        220 deg C at 4 mm Hg
   from [3]HSDB

   Melting Point
        150-155 deg C (solidification range)
   from [4]HSDB

   Density/Specific Gravity
        1.195 at 25 deg C/25 deg C
   from [5]HSDB

   Octanol/Water Partition Coefficient
        log Kow = 3.32
   from [6]HSDB

   Solubilities

     * Soluble in acetic acid
     * Sol in aq alkaline soln, alc, acetone; slightly sol in carbon
       tetrachloride.
     * In water solubility, 120 mg/L at 25 deg C

   from [7]HSDB

   Spectral Properties

     * MAX ABSORPTION (ALC): 227 NM (LOG E= 4.4); 275 NM (LOG E= 3.8);
       SADTLER REF NUMBER: 1070 (IR, PRISM); 216 (IR, GRATING); 325 (UV)
     * Intense mass spectral peaks: 213 m/z (100%), 228 m/z (26%), 119 m/z
       (25%), 214 m/z (14%)
     * IR: 2233 (Coblentz Society Spectral Collection)
     * UV: 325 (Sadtler Research Laboratories Spectral Collection)
     * 1H NMR: 18699 (Sadtler Research Laboratories Spectral Collection)
     * MASS: 22777 (NIST/EPA/MSDC Mass SPectral database, 1990 version);
       5205 (National Bureau of Standards)

   from [8]HSDB

   Vapor Pressure
        3.91X10-7 mm Hg at 25 deg C (est)
   from [9]HSDB

   Other Chemical/Physical Properties

     * Decomposes above 8 mm pressure when heated above 220 deg C
     * IR: 2:599G (Aldrich Library of Infrared Spectra, Aldrich Chemical
       Co, Milwaukee, WI) /Bisphenol B/
     * Henry's Law constant = 1.0X10-11 atm-cu m/mol at 25 deg C (est)
     * Hydroxyl radical reaction rate constant = 8.06X10-11 cu
       cm/molec-sec at 25 deg C (est)

   from [10]HSDB

   Computed Properties
   Molecular Weight                  228.28634 [g/mol]
   Molecular Formula                 C[15]H[16]O[2]
   XLogP3                            3.3
   H-Bond Donor                      2
   H-Bond Acceptor                   2
   Rotatable Bond Count              2
   Tautomer Count                    3
   Exact Mass                        228.11503
   MonoIsotopic Mass                 228.11503
   Topological Polar Surface Area    40.5
   Heavy Atom Count                  17
   Formal Charge                     0
   Complexity                        209
   Isotope Atom Count                0
   Defined Atom Stereocenter Count   0
   Undefined Atom Stereocenter Count 0
   Defined Bond Stereocenter Count   0
   Undefined Bond Stereocenter Count 0
   Covalently-Bonded Unit Count      1
   Feature 3D Donor Count            2
   Feature 3D Hydrophobe Count       1
   Feature 3D Ring Count             2
   Effective Rotor Count             2
   Conformer Sampling RMSD           0.6
   CID Conformer Count               [11]3

References

   1. http://toxnet.nlm.nih.gov/cgi-bin/sis/search/r?dbs+hsdb:@term+@rn+@rel+80-05-7
   2. http://toxnet.nlm.nih.gov/cgi-bin/sis/search/r?dbs+hsdb:@term+@rn+@rel+80-05-7
   3. http://toxnet.nlm.nih.gov/cgi-bin/sis/search/r?dbs+hsdb:@term+@rn+@rel+80-05-7
   4. http://toxnet.nlm.nih.gov/cgi-bin/sis/search/r?dbs+hsdb:@term+@rn+@rel+80-05-7
   5. http://toxnet.nlm.nih.gov/cgi-bin/sis/search/r?dbs+hsdb:@term+@rn+@rel+80-05-7
   6. http://toxnet.nlm.nih.gov/cgi-bin/sis/search/r?dbs+hsdb:@term+@rn+@rel+80-05-7
   7. http://toxnet.nlm.nih.gov/cgi-bin/sis/search/r?dbs+hsdb:@term+@rn+@rel+80-05-7
   8. http://toxnet.nlm.nih.gov/cgi-bin/sis/search/r?dbs+hsdb:@term+@rn+@rel+80-05-7
   9. http://toxnet.nlm.nih.gov/cgi-bin/sis/search/r?dbs+hsdb:@term+@rn+@rel+80-05-7
  10. http://toxnet.nlm.nih.gov/cgi-bin/sis/search/r?dbs+hsdb:@term+@rn+@rel+80-05-7
  11. http://pubchem.ncbi.nlm.nih.gov/vw3d/vw3d.cgi?cid=6623
