   Color/Form
        Colorless crystals
   from [1]HSDB

   Boiling Point
        140-147 deg C at 4 mm Hg
   from [2]HSDB

   Melting Point
        87 deg C
   from [3]HSDB

   Corrosivity
        Corrosive to metals
   from [4]HSDB

   Octanol/Water Partition Coefficient
        log Kow = 1.31 (est)
   from [5]HSDB

   Solubilities

     * Very soluble in ethanol
     * In water, 9.4 g/L at 20 deg C
     * Readily soluble in dichloromethane, 2-propanol, toluene
     * Soluble in most common organic solvents, eg acetone, benzene,
       chloroform, diethyl ether, ethanol. Soluble in dilute acids.

   from [6]HSDB

   Spectral Properties

     * Intense mass spectral peaks: 44 m/z (100%), 171 m/z (88%), 142 m/z
       (79%), 156 m/z (59%)
     * Intense mass spectral peaks: 93 m/z, 142 m/z, 156 m/z, 171 m/z

   from [7]HSDB

   Vapor Pressure
        0.023 mm Hg at 25 deg C (est)
   from [8]HSDB

   Other Chemical/Physical Properties

     * Brown waxy solid; mp: 87 deg C /commercial crimidine/
     * MP: 218 deg C /Crimidine hydrochloride/
     * MP: 146 deg C /Crimidine picrate/
     * Henry's Law constant = 3.8X10-8 atm-cu m/mol at 25 deg C (est)
     * Hydroxyl radical reaction rate constant = 8.3X10-11 cu cm/molec-sec
       at 25 deg C (est)

   from [9]HSDB

   Computed Properties
   Molecular Weight                  171.6274 [g/mol]
   Molecular Formula                 C[7]H[10]ClN[3]
   XLogP3-AA                         2
   H-Bond Donor                      0
   H-Bond Acceptor                   3
   Rotatable Bond Count              1
   Exact Mass                        171.056325
   MonoIsotopic Mass                 171.056325
   Topological Polar Surface Area    29
   Heavy Atom Count                  11
   Formal Charge                     0
   Complexity                        129
   Isotope Atom Count                0
   Defined Atom Stereocenter Count   0
   Undefined Atom Stereocenter Count 0
   Defined Bond Stereocenter Count   0
   Undefined Bond Stereocenter Count 0
   Covalently-Bonded Unit Count      1
   Feature 3D Cation Count           2
   Feature 3D Ring Count             1
   Effective Rotor Count             1
   Conformer Sampling RMSD           0.4
   CID Conformer Count               [10]3

References

   1. http://toxnet.nlm.nih.gov/cgi-bin/sis/search/r?dbs+hsdb:@term+@rn+@rel+535-89-7
   2. http://toxnet.nlm.nih.gov/cgi-bin/sis/search/r?dbs+hsdb:@term+@rn+@rel+535-89-7
   3. http://toxnet.nlm.nih.gov/cgi-bin/sis/search/r?dbs+hsdb:@term+@rn+@rel+535-89-7
   4. http://toxnet.nlm.nih.gov/cgi-bin/sis/search/r?dbs+hsdb:@term+@rn+@rel+535-89-7
   5. http://toxnet.nlm.nih.gov/cgi-bin/sis/search/r?dbs+hsdb:@term+@rn+@rel+535-89-7
   6. http://toxnet.nlm.nih.gov/cgi-bin/sis/search/r?dbs+hsdb:@term+@rn+@rel+535-89-7
   7. http://toxnet.nlm.nih.gov/cgi-bin/sis/search/r?dbs+hsdb:@term+@rn+@rel+535-89-7
   8. http://toxnet.nlm.nih.gov/cgi-bin/sis/search/r?dbs+hsdb:@term+@rn+@rel+535-89-7
   9. http://toxnet.nlm.nih.gov/cgi-bin/sis/search/r?dbs+hsdb:@term+@rn+@rel+535-89-7
  10. http://pubchem.ncbi.nlm.nih.gov/vw3d/vw3d.cgi?cid=10813
