443336
  -OEChem-07051213022D

 71 74  0     1  0  0  0  0  0999 V2000
    8.3941   -3.6935    0.0000 O   0  0  0  0  0  0  0  0  0  0  0  0
    5.4641   -0.6186    0.0000 O   0  0  0  0  0  0  0  0  0  0  0  0
    7.1962   -0.6186    0.0000 O   0  0  0  0  0  0  0  0  0  0  0  0
    6.3301    0.8814    0.0000 O   0  0  0  0  0  0  0  0  0  0  0  0
    3.7320    0.3814    0.0000 O   0  0  0  0  0  0  0  0  0  0  0  0
    3.7320    2.3814    0.0000 O   0  0  0  0  0  0  0  0  0  0  0  0
    4.3742   -3.9364    0.0000 O   0  0  0  0  0  0  0  0  0  0  0  0
    5.4641    3.3814    0.0000 O   0  0  0  0  0  0  0  0  0  0  0  0
    9.7777   -2.5794    0.0000 O   0  0  0  0  0  0  0  0  0  0  0  0
    8.0622    1.8814    0.0000 O   0  0  0  0  0  0  0  0  0  0  0  0
    2.8660    1.8814    0.0000 O   0  0  0  0  0  0  0  0  0  0  0  0
    4.5981    3.8814    0.0000 O   0  0  0  0  0  0  0  0  0  0  0  0
    7.1962    3.3814    0.0000 O   0  0  0  0  0  0  0  0  0  0  0  0
    2.8300   -3.1518    0.0000 O   0  0  0  0  0  0  0  0  0  0  0  0
    8.9282    3.3814    0.0000 O   0  0  0  0  0  0  0  0  0  0  0  0
    7.1962   -2.6186    0.0000 C   0  0  2  0  0  0  0  0  0  0  0  0
    6.3301   -2.1186    0.0000 C   0  0  2  0  0  0  0  0  0  0  0  0
    7.4054   -3.5904    0.0000 C   0  0  2  0  0  0  0  0  0  0  0  0
    6.3301   -1.1186    0.0000 C   0  0  2  0  0  0  0  0  0  0  0  0
    5.8257   -2.9915    0.0000 C   0  0  0  0  0  0  0  0  0  0  0  0
    8.0622   -2.1186    0.0000 C   0  0  0  0  0  0  0  0  0  0  0  0
    6.4204   -3.8055    0.0000 C   0  0  0  0  0  0  0  0  0  0  0  0
    5.4641    0.3814    0.0000 C   0  0  2  0  0  0  0  0  0  0  0  0
    4.5981    0.8814    0.0000 C   0  0  1  0  0  0  0  0  0  0  0  0
    8.7992   -2.7857    0.0000 C   0  0  0  0  0  0  0  0  0  0  0  0
    8.0622   -1.1186    0.0000 C   0  0  0  0  0  0  0  0  0  0  0  0
    4.5981    1.8814    0.0000 C   0  0  2  0  0  0  0  0  0  0  0  0
    4.8272   -3.0449    0.0000 C   0  0  0  0  0  0  0  0  0  0  0  0
    5.4641    2.3814    0.0000 C   0  0  1  0  0  0  0  0  0  0  0  0
    6.3301    1.8814    0.0000 C   0  0  1  0  0  0  0  0  0  0  0  0
    7.1962    2.3814    0.0000 C   0  0  0  0  0  0  0  0  0  0  0  0
    2.8660    0.8814    0.0000 C   0  0  0  0  0  0  0  0  0  0  0  0
    3.7320    3.3814    0.0000 C   0  0  0  0  0  0  0  0  0  0  0  0
    6.3301    3.8814    0.0000 C   0  0  0  0  0  0  0  0  0  0  0  0
    3.3756   -3.9899    0.0000 C   0  0  0  0  0  0  0  0  0  0  0  0
    2.0000    0.3814    0.0000 C   0  0  0  0  0  0  0  0  0  0  0  0
    2.8660    3.8814    0.0000 C   0  0  0  0  0  0  0  0  0  0  0  0
    8.9282    2.3814    0.0000 C   0  0  0  0  0  0  0  0  0  0  0  0
    6.3301    4.8814    0.0000 C   0  0  0  0  0  0  0  0  0  0  0  0
    2.9226   -4.8814    0.0000 C   0  0  0  0  0  0  0  0  0  0  0  0
    9.7942    1.8814    0.0000 C   0  0  0  0  0  0  0  0  0  0  0  0
    7.9323   -3.0436    0.0000 H   0  0  0  0  0  0  0  0  0  0  0  0
    5.5091   -1.8984    0.0000 H   0  0  0  0  0  0  0  0  0  0  0  0
    7.4526   -4.4391    0.0000 H   0  0  0  0  0  0  0  0  0  0  0  0
    5.7932   -1.4286    0.0000 H   0  0  0  0  0  0  0  0  0  0  0  0
    6.2006   -4.3853    0.0000 H   0  0  0  0  0  0  0  0  0  0  0  0
    4.9272    0.0714    0.0000 H   0  0  0  0  0  0  0  0  0  0  0  0
    4.5981    0.2614    0.0000 H   0  0  0  0  0  0  0  0  0  0  0  0
    8.5991   -0.8086    0.0000 H   0  0  0  0  0  0  0  0  0  0  0  0
    4.0611    1.5714    0.0000 H   0  0  0  0  0  0  0  0  0  0  0  0
    4.9020   -2.4295    0.0000 H   0  0  0  0  0  0  0  0  0  0  0  0
    4.2340   -2.8643    0.0000 H   0  0  0  0  0  0  0  0  0  0  0  0
    4.9272    2.6914    0.0000 H   0  0  0  0  0  0  0  0  0  0  0  0
    6.8671    1.5714    0.0000 H   0  0  0  0  0  0  0  0  0  0  0  0
    7.5947    2.8564    0.0000 H   0  0  0  0  0  0  0  0  0  0  0  0
    6.7976    2.8564    0.0000 H   0  0  0  0  0  0  0  0  0  0  0  0
    1.6900    0.9184    0.0000 H   0  0  0  0  0  0  0  0  0  0  0  0
    1.4631    0.0714    0.0000 H   0  0  0  0  0  0  0  0  0  0  0  0
    2.3100   -0.1555    0.0000 H   0  0  0  0  0  0  0  0  0  0  0  0
    3.1760    4.4184    0.0000 H   0  0  0  0  0  0  0  0  0  0  0  0
    2.3291    4.1914    0.0000 H   0  0  0  0  0  0  0  0  0  0  0  0
    2.5560    3.3445    0.0000 H   0  0  0  0  0  0  0  0  0  0  0  0
    6.9501    4.8814    0.0000 H   0  0  0  0  0  0  0  0  0  0  0  0
    6.3301    5.5014    0.0000 H   0  0  0  0  0  0  0  0  0  0  0  0
    5.7101    4.8814    0.0000 H   0  0  0  0  0  0  0  0  0  0  0  0
    2.3699   -4.6006    0.0000 H   0  0  0  0  0  0  0  0  0  0  0  0
    2.6418   -5.4342    0.0000 H   0  0  0  0  0  0  0  0  0  0  0  0
    3.4753   -5.1623    0.0000 H   0  0  0  0  0  0  0  0  0  0  0  0
    9.4842    1.3445    0.0000 H   0  0  0  0  0  0  0  0  0  0  0  0
   10.3312    1.5714    0.0000 H   0  0  0  0  0  0  0  0  0  0  0  0
   10.1042    2.4184    0.0000 H   0  0  0  0  0  0  0  0  0  0  0  0
  1 18  1  0  0  0  0
  1 25  1  0  0  0  0
 19  2  1  6  0  0  0
 23  2  1  1  0  0  0
  3 19  1  0  0  0  0
  3 26  1  0  0  0  0
  4 23  1  0  0  0  0
  4 30  1  0  0  0  0
 24  5  1  6  0  0  0
  5 32  1  0  0  0  0
 27  6  1  1  0  0  0
  6 33  1  0  0  0  0
  7 28  1  0  0  0  0
  7 35  1  0  0  0  0
 29  8  1  6  0  0  0
  8 34  1  0  0  0  0
  9 25  2  0  0  0  0
 10 31  1  0  0  0  0
 10 38  1  0  0  0  0
 11 32  2  0  0  0  0
 12 33  2  0  0  0  0
 13 34  2  0  0  0  0
 14 35  2  0  0  0  0
 15 38  2  0  0  0  0
 16 17  1  0  0  0  0
 16 18  1  0  0  0  0
 16 21  1  0  0  0  0
 16 42  1  6  0  0  0
 17 19  1  0  0  0  0
 17 20  1  0  0  0  0
 17 43  1  6  0  0  0
 18 22  1  0  0  0  0
 18 44  1  6  0  0  0
 19 45  1  0  0  0  0
 20 22  2  0  0  0  0
 20 28  1  0  0  0  0
 21 25  1  0  0  0  0
 21 26  2  0  0  0  0
 22 46  1  0  0  0  0
 23 24  1  0  0  0  0
 23 47  1  0  0  0  0
 24 27  1  0  0  0  0
 24 48  1  0  0  0  0
 26 49  1  0  0  0  0
 27 29  1  0  0  0  0
 27 50  1  0  0  0  0
 28 51  1  0  0  0  0
 28 52  1  0  0  0  0
 29 30  1  0  0  0  0
 29 53  1  0  0  0  0
 30 31  1  1  0  0  0
 30 54  1  0  0  0  0
 31 55  1  0  0  0  0
 31 56  1  0  0  0  0
 32 36  1  0  0  0  0
 33 37  1  0  0  0  0
 34 39  1  0  0  0  0
 35 40  1  0  0  0  0
 36 57  1  0  0  0  0
 36 58  1  0  0  0  0
 36 59  1  0  0  0  0
 37 60  1  0  0  0  0
 37 61  1  0  0  0  0
 37 62  1  0  0  0  0
 38 41  1  0  0  0  0
 39 63  1  0  0  0  0
 39 64  1  0  0  0  0
 39 65  1  0  0  0  0
 40 66  1  0  0  0  0
 40 67  1  0  0  0  0
 40 68  1  0  0  0  0
 41 69  1  0  0  0  0
 41 70  1  0  0  0  0
 41 71  1  0  0  0  0
M  END
> <PUBCHEM_COMPOUND_CID>
443336

> <PUBCHEM_COMPOUND_CANONICALIZED>
1

> <PUBCHEM_CACTVS_COMPLEXITY>
1170

> <PUBCHEM_CACTVS_HBOND_ACCEPTOR>
15

> <PUBCHEM_CACTVS_HBOND_DONOR>
0

> <PUBCHEM_CACTVS_ROTATABLE_BOND>
14

> <PUBCHEM_CACTVS_SUBSKEYS>
AAADceB4PAAAAAAAAAAAAAAAAAAAASIAAAAkQAAAAAAQAEAAAAAAGgAAAAAADRSwgAMCCAAABACIAiDSCAAACAAgIAAACAEAAEgRBBIAIQAiEAAFwAAOIIPKbAwOgAAAAAAAAAAAAAAAAAAAAAAAAAAAAA==

> <PUBCHEM_IUPAC_INCHI>
InChI=1S/C26H30O15/c1-10(27)33-7-15-6-17-20-16(24(32)39-17)8-35-25(19(15)20)41-26-23(38-14(5)31)22(37-13(4)30)21(36-12(3)29)18(40-26)9-34-11(2)28/h6,8,17-23,25-26H,7,9H2,1-5H3/t17-,18+,19+,20-,21+,22-,23+,25-,26-/m0/s1

> <PUBCHEM_IUPAC_INCHIKEY>
PNJMLKLECQXAHQ-GGHIHTNXSA-N

> <PUBCHEM_XLOGP3_AA>
-0.7

> <PUBCHEM_EXACT_MASS>
582.15847

> <PUBCHEM_MOLECULAR_FORMULA>
C26H30O15

> <PUBCHEM_MOLECULAR_WEIGHT>
582.5074

> <PUBCHEM_OPENEYE_CAN_SMILES>
CC(=O)OCC1C(C(C(C(O1)OC2C3C4C(C=C3COC(=O)C)OC(=O)C4=CO2)OC(=O)C)OC(=O)C)OC(=O)C

> <PUBCHEM_OPENEYE_ISO_SMILES>
CC(=O)OC[C@@H]1[C@H]([C@@H]([C@H]([C@@H](O1)O[C@H]2[C@H]3[C@@H]4[C@H](C=C3COC(=O)C)OC(=O)C4=CO2)OC(=O)C)OC(=O)C)OC(=O)C

> <PUBCHEM_CACTVS_TPSA>
186

> <PUBCHEM_MONOISOTOPIC_WEIGHT>
582.15847

> <PUBCHEM_TOTAL_CHARGE>
0

> <PUBCHEM_HEAVY_ATOM_COUNT>
41

> <PUBCHEM_ATOM_DEF_STEREO_COUNT>
9

> <PUBCHEM_ATOM_UDEF_STEREO_COUNT>
0

> <PUBCHEM_BOND_DEF_STEREO_COUNT>
0

> <PUBCHEM_BOND_UDEF_STEREO_COUNT>
0

> <PUBCHEM_ISOTOPIC_ATOM_COUNT>
0

> <PUBCHEM_COMPONENT_COUNT>
1

> <PUBCHEM_CACTVS_TAUTO_COUNT>
1

> <PUBCHEM_COORDINATE_TYPE>
1
5
255

> <PUBCHEM_BONDANNOTATIONS>
16  42  6
17  43  6
18  44  6
19  2  6
23  2  5
30  31  5
24  5  6
27  6  5
29  8  6

$$$$

