11742
  -OEChem-06261206032D

 32 33  0     0  0  0  0  0  0999 V2000
    3.0000   -3.3450    0.0000 O   0  0  0  0  0  0  0  0  0  0  0  0
    3.0000    0.6550    0.0000 C   0  0  0  0  0  0  0  0  0  0  0  0
    3.0000   -0.3450    0.0000 C   0  0  0  0  0  0  0  0  0  0  0  0
    3.0000    1.6550    0.0000 C   0  0  0  0  0  0  0  0  0  0  0  0
    4.0000    0.6550    0.0000 C   0  0  0  0  0  0  0  0  0  0  0  0
    2.0000    0.6550    0.0000 C   0  0  0  0  0  0  0  0  0  0  0  0
    2.1340   -0.8450    0.0000 C   0  0  0  0  0  0  0  0  0  0  0  0
    3.8660   -0.8450    0.0000 C   0  0  0  0  0  0  0  0  0  0  0  0
    3.8660    2.1550    0.0000 C   0  0  0  0  0  0  0  0  0  0  0  0
    2.1340    2.1550    0.0000 C   0  0  0  0  0  0  0  0  0  0  0  0
    2.1340   -1.8450    0.0000 C   0  0  0  0  0  0  0  0  0  0  0  0
    3.8660   -1.8450    0.0000 C   0  0  0  0  0  0  0  0  0  0  0  0
    3.8660    3.1550    0.0000 C   0  0  0  0  0  0  0  0  0  0  0  0
    2.1340    3.1550    0.0000 C   0  0  0  0  0  0  0  0  0  0  0  0
    3.0000   -2.3450    0.0000 C   0  0  0  0  0  0  0  0  0  0  0  0
    3.0000    3.6550    0.0000 C   0  0  0  0  0  0  0  0  0  0  0  0
    4.0000    0.0350    0.0000 H   0  0  0  0  0  0  0  0  0  0  0  0
    4.6200    0.6550    0.0000 H   0  0  0  0  0  0  0  0  0  0  0  0
    4.0000    1.2750    0.0000 H   0  0  0  0  0  0  0  0  0  0  0  0
    2.0000    1.2750    0.0000 H   0  0  0  0  0  0  0  0  0  0  0  0
    1.3800    0.6550    0.0000 H   0  0  0  0  0  0  0  0  0  0  0  0
    2.0000    0.0350    0.0000 H   0  0  0  0  0  0  0  0  0  0  0  0
    1.5970   -0.5350    0.0000 H   0  0  0  0  0  0  0  0  0  0  0  0
    4.4030   -0.5350    0.0000 H   0  0  0  0  0  0  0  0  0  0  0  0
    4.4030    1.8450    0.0000 H   0  0  0  0  0  0  0  0  0  0  0  0
    1.5970    1.8450    0.0000 H   0  0  0  0  0  0  0  0  0  0  0  0
    1.5970   -2.1550    0.0000 H   0  0  0  0  0  0  0  0  0  0  0  0
    4.4030   -2.1550    0.0000 H   0  0  0  0  0  0  0  0  0  0  0  0
    4.4030    3.4650    0.0000 H   0  0  0  0  0  0  0  0  0  0  0  0
    1.5970    3.4650    0.0000 H   0  0  0  0  0  0  0  0  0  0  0  0
    3.0000    4.2750    0.0000 H   0  0  0  0  0  0  0  0  0  0  0  0
    2.4631   -3.6550    0.0000 H   0  0  0  0  0  0  0  0  0  0  0  0
  1 15  1  0  0  0  0
  1 32  1  0  0  0  0
  2  3  1  0  0  0  0
  2  4  1  0  0  0  0
  2  5  1  0  0  0  0
  2  6  1  0  0  0  0
  3  7  2  0  0  0  0
  3  8  1  0  0  0  0
  4  9  2  0  0  0  0
  4 10  1  0  0  0  0
  5 17  1  0  0  0  0
  5 18  1  0  0  0  0
  5 19  1  0  0  0  0
  6 20  1  0  0  0  0
  6 21  1  0  0  0  0
  6 22  1  0  0  0  0
  7 11  1  0  0  0  0
  7 23  1  0  0  0  0
  8 12  2  0  0  0  0
  8 24  1  0  0  0  0
  9 13  1  0  0  0  0
  9 25  1  0  0  0  0
 10 14  2  0  0  0  0
 10 26  1  0  0  0  0
 11 15  2  0  0  0  0
 11 27  1  0  0  0  0
 12 15  1  0  0  0  0
 12 28  1  0  0  0  0
 13 16  2  0  0  0  0
 13 29  1  0  0  0  0
 14 16  1  0  0  0  0
 14 30  1  0  0  0  0
 16 31  1  0  0  0  0
M  END
> <PUBCHEM_COMPOUND_CID>
11742

> <PUBCHEM_COMPOUND_CANONICALIZED>
1

> <PUBCHEM_CACTVS_COMPLEXITY>
208

> <PUBCHEM_CACTVS_HBOND_ACCEPTOR>
1

> <PUBCHEM_CACTVS_HBOND_DONOR>
1

> <PUBCHEM_CACTVS_ROTATABLE_BOND>
2

> <PUBCHEM_CACTVS_SUBSKEYS>
AAADceBwIAAAAAAAAAAAAAAAAAAAAAAAAAAwYAAAAAAAAAABQAAAGgAACAAADgSAmAAyBoAAAgCAAiBCAAACAAAgIAAIiAAGCIgIJiKCERKAcAAkwBEImAeAwPAPoAAAAAAAAABAAAAAAAAAAAAAAAAAAA==

> <PUBCHEM_IUPAC_OPENEYE_NAME>
4-(1-methyl-1-phenyl-ethyl)phenol

> <PUBCHEM_IUPAC_CAS_NAME>
4-(2-phenylpropan-2-yl)phenol

> <PUBCHEM_IUPAC_NAME>
4-(2-phenylpropan-2-yl)phenol

> <PUBCHEM_IUPAC_SYSTEMATIC_NAME>
4-(2-phenylpropan-2-yl)phenol

> <PUBCHEM_IUPAC_TRADITIONAL_NAME>
4-cumylphenol

> <PUBCHEM_IUPAC_INCHI>
InChI=1S/C15H16O/c1-15(2,12-6-4-3-5-7-12)13-8-10-14(16)11-9-13/h3-11,16H,1-2H3

> <PUBCHEM_IUPAC_INCHIKEY>
QBDSZLJBMIMQRS-UHFFFAOYSA-N

> <PUBCHEM_XLOGP3>
3.7

> <PUBCHEM_EXACT_MASS>
212.120115

> <PUBCHEM_MOLECULAR_FORMULA>
C15H16O

> <PUBCHEM_MOLECULAR_WEIGHT>
212.28694

> <PUBCHEM_OPENEYE_CAN_SMILES>
CC(C)(C1=CC=CC=C1)C2=CC=C(C=C2)O

> <PUBCHEM_OPENEYE_ISO_SMILES>
CC(C)(C1=CC=CC=C1)C2=CC=C(C=C2)O

> <PUBCHEM_CACTVS_TPSA>
20.2

> <PUBCHEM_MONOISOTOPIC_WEIGHT>
212.120115

> <PUBCHEM_TOTAL_CHARGE>
0

> <PUBCHEM_HEAVY_ATOM_COUNT>
16

> <PUBCHEM_ATOM_DEF_STEREO_COUNT>
0

> <PUBCHEM_ATOM_UDEF_STEREO_COUNT>
0

> <PUBCHEM_BOND_DEF_STEREO_COUNT>
0

> <PUBCHEM_BOND_UDEF_STEREO_COUNT>
0

> <PUBCHEM_ISOTOPIC_ATOM_COUNT>
0

> <PUBCHEM_COMPONENT_COUNT>
1

> <PUBCHEM_CACTVS_TAUTO_COUNT>
2

> <PUBCHEM_COORDINATE_TYPE>
1
5
255

> <PUBCHEM_BONDANNOTATIONS>
10  14  8
11  15  8
12  15  8
13  16  8
14  16  8
3  7  8
3  8  8
4  10  8
4  9  8
7  11  8
8  12  8
9  13  8

$$$$

