441939
  -OEChem-07051212562D

103108  0     1  0  0  0  0  0999 V2000
    5.9998   -2.3338    0.0000 O   0  0  0  0  0  0  0  0  0  0  0  0
    6.0159   -0.2422    0.0000 O   0  0  0  0  0  0  0  0  0  0  0  0
    7.8141   -4.1117    0.0000 O   0  0  0  0  0  0  0  0  0  0  0  0
   14.9249    0.7527    0.0000 O   0  0  0  0  0  0  0  0  0  0  0  0
   14.0705   -0.7540    0.0000 O   0  0  0  0  0  0  0  0  0  0  0  0
    5.1396   -0.8305    0.0000 O   0  0  0  0  0  0  0  0  0  0  0  0
   14.6828    3.7781    0.0000 O   0  0  0  0  0  0  0  0  0  0  0  0
   13.1729    4.6267    0.0000 O   0  0  0  0  0  0  0  0  0  0  0  0
    4.2639   -3.3272    0.0000 O   0  0  0  0  0  0  0  0  0  0  0  0
    2.5357   -2.3205    0.0000 O   0  0  0  0  0  0  0  0  0  0  0  0
    2.5434   -0.3205    0.0000 O   0  0  0  0  0  0  0  0  0  0  0  0
   10.5269   -0.7815    0.0000 C   0  0  2  0  0  0  0  0  0  0  0  0
    8.7508   -0.7884    0.0000 C   0  0  2  0  0  0  0  0  0  0  0  0
    9.6608   -0.2815    0.0000 C   0  0  1  0  0  0  0  0  0  0  0  0
   11.3929   -0.2815    0.0000 C   0  0  1  0  0  0  0  0  0  0  0  0
    8.7428   -1.8300    0.0000 C   0  0  2  0  0  0  0  0  0  0  0  0
   10.5429   -1.8230    0.0000 C   0  0  0  0  0  0  0  0  0  0  0  0
    7.8074   -2.3797    0.0000 C   0  0  1  0  0  0  0  0  0  0  0  0
    9.6449   -2.3508    0.0000 C   0  0  0  0  0  0  0  0  0  0  0  0
   11.3929    0.7185    0.0000 C   0  0  0  0  0  0  0  0  0  0  0  0
    7.8240   -0.2243    0.0000 C   0  0  0  0  0  0  0  0  0  0  0  0
    9.6608    0.7185    0.0000 C   0  0  0  0  0  0  0  0  0  0  0  0
   12.2868    1.2532    0.0000 C   0  0  1  0  0  0  0  0  0  0  0  0
   12.2868   -0.8162    0.0000 C   0  0  0  0  0  0  0  0  0  0  0  0
   13.1929    0.7393    0.0000 C   0  0  1  0  0  0  0  0  0  0  0  0
    6.8678   -1.8372    0.0000 C   0  0  2  0  0  0  0  0  0  0  0  0
   11.1697   -1.5476    0.0000 C   0  0  0  0  0  0  0  0  0  0  0  0
    6.8761   -0.7522    0.0000 C   0  0  1  0  0  0  0  0  0  0  0  0
   13.1929   -0.3023    0.0000 C   0  0  0  0  0  0  0  0  0  0  0  0
    8.7586    0.2116    0.0000 C   0  0  0  0  0  0  0  0  0  0  0  0
   10.5269    1.2185    0.0000 C   0  0  0  0  0  0  0  0  0  0  0  0
   11.7350   -1.2212    0.0000 C   0  0  0  0  0  0  0  0  0  0  0  0
   12.2617    2.3379    0.0000 C   0  0  0  0  0  0  0  0  0  0  0  0
   14.1367    1.2746    0.0000 C   0  0  0  0  0  0  0  0  0  0  0  0
    7.3107   -3.2476    0.0000 C   0  0  0  0  0  0  0  0  0  0  0  0
    8.3107   -3.2438    0.0000 C   0  0  0  0  0  0  0  0  0  0  0  0
   13.1929    2.8948    0.0000 C   0  0  1  0  0  0  0  0  0  0  0  0
   14.1367    2.3595    0.0000 C   0  0  0  0  0  0  0  0  0  0  0  0
   14.0628    0.2460    0.0000 C   0  0  0  0  0  0  0  0  0  0  0  0
   12.6829    3.7550    0.0000 C   0  0  0  0  0  0  0  0  0  0  0  0
   13.6829    3.7665    0.0000 C   0  0  0  0  0  0  0  0  0  0  0  0
    5.1357   -1.8305    0.0000 C   0  0  2  0  0  0  0  0  0  0  0  0
    4.2678   -2.3272    0.0000 C   0  0  1  0  0  0  0  0  0  0  0  0
    3.4037   -1.8238    0.0000 C   0  0  2  0  0  0  0  0  0  0  0  0
    4.2755   -0.3272    0.0000 C   0  0  0  0  0  0  0  0  0  0  0  0
    3.4075   -0.8238    0.0000 C   0  0  1  0  0  0  0  0  0  0  0  0
   15.1727    4.6498    0.0000 C   0  0  0  0  0  0  0  0  0  0  0  0
   10.3970    0.1435    0.0000 H   0  0  0  0  0  0  0  0  0  0  0  0
    8.7461   -2.6800    0.0000 H   0  0  0  0  0  0  0  0  0  0  0  0
   10.7610   -2.4034    0.0000 H   0  0  0  0  0  0  0  0  0  0  0  0
   11.1521   -1.7075    0.0000 H   0  0  0  0  0  0  0  0  0  0  0  0
    9.2476   -2.8267    0.0000 H   0  0  0  0  0  0  0  0  0  0  0  0
   10.0459   -2.8237    0.0000 H   0  0  0  0  0  0  0  0  0  0  0  0
    8.2322    0.2424    0.0000 H   0  0  0  0  0  0  0  0  0  0  0  0
    7.4341    0.2578    0.0000 H   0  0  0  0  0  0  0  0  0  0  0  0
    9.4488    1.3011    0.0000 H   0  0  0  0  0  0  0  0  0  0  0  0
    9.0503    0.6108    0.0000 H   0  0  0  0  0  0  0  0  0  0  0  0
   13.0163    1.6894    0.0000 H   0  0  0  0  0  0  0  0  0  0  0  0
   11.8822   -1.2860    0.0000 H   0  0  0  0  0  0  0  0  0  0  0  0
   12.6805   -1.2952    0.0000 H   0  0  0  0  0  0  0  0  0  0  0  0
    6.8666   -2.4572    0.0000 H   0  0  0  0  0  0  0  0  0  0  0  0
   10.6947   -1.9461    0.0000 H   0  0  0  0  0  0  0  0  0  0  0  0
   11.5682   -2.0225    0.0000 H   0  0  0  0  0  0  0  0  0  0  0  0
   11.6446   -1.1490    0.0000 H   0  0  0  0  0  0  0  0  0  0  0  0
    6.3362   -1.0570    0.0000 H   0  0  0  0  0  0  0  0  0  0  0  0
   13.4020   -0.8860    0.0000 H   0  0  0  0  0  0  0  0  0  0  0  0
   13.8038   -0.1962    0.0000 H   0  0  0  0  0  0  0  0  0  0  0  0
    9.3785    0.2068    0.0000 H   0  0  0  0  0  0  0  0  0  0  0  0
    8.7633    0.8316    0.0000 H   0  0  0  0  0  0  0  0  0  0  0  0
    8.1386    0.2164    0.0000 H   0  0  0  0  0  0  0  0  0  0  0  0
   10.5269    1.8385    0.0000 H   0  0  0  0  0  0  0  0  0  0  0  0
   11.1524   -1.4333    0.0000 H   0  0  0  0  0  0  0  0  0  0  0  0
   11.9471   -1.8038    0.0000 H   0  0  0  0  0  0  0  0  0  0  0  0
   12.3176   -1.0090    0.0000 H   0  0  0  0  0  0  0  0  0  0  0  0
   12.0393    2.9166    0.0000 H   0  0  0  0  0  0  0  0  0  0  0  0
   11.6535    2.2177    0.0000 H   0  0  0  0  0  0  0  0  0  0  0  0
   14.3457    0.6909    0.0000 H   0  0  0  0  0  0  0  0  0  0  0  0
   14.7475    1.3806    0.0000 H   0  0  0  0  0  0  0  0  0  0  0  0
    6.8342   -2.8509    0.0000 H   0  0  0  0  0  0  0  0  0  0  0  0
    6.8373   -3.6480    0.0000 H   0  0  0  0  0  0  0  0  0  0  0  0
    7.7750   -3.5558    0.0000 H   0  0  0  0  0  0  0  0  0  0  0  0
    8.6228   -3.7795    0.0000 H   0  0  0  0  0  0  0  0  0  0  0  0
    8.8465   -2.9317    0.0000 H   0  0  0  0  0  0  0  0  0  0  0  0
   14.7475    2.2534    0.0000 H   0  0  0  0  0  0  0  0  0  0  0  0
   14.3457    2.9432    0.0000 H   0  0  0  0  0  0  0  0  0  0  0  0
    6.0231    0.3777    0.0000 H   0  0  0  0  0  0  0  0  0  0  0  0
   13.2162    4.0712    0.0000 H   0  0  0  0  0  0  0  0  0  0  0  0
   12.3667    4.2883    0.0000 H   0  0  0  0  0  0  0  0  0  0  0  0
   12.1496    3.4388    0.0000 H   0  0  0  0  0  0  0  0  0  0  0  0
    5.1333   -2.4505    0.0000 H   0  0  0  0  0  0  0  0  0  0  0  0
    7.5061   -4.6498    0.0000 H   0  0  0  0  0  0  0  0  0  0  0  0
   15.4642    0.4468    0.0000 H   0  0  0  0  0  0  0  0  0  0  0  0
    3.7296   -2.6351    0.0000 H   0  0  0  0  0  0  0  0  0  0  0  0
    3.4013   -2.4438    0.0000 H   0  0  0  0  0  0  0  0  0  0  0  0
    4.6758    0.1462    0.0000 H   0  0  0  0  0  0  0  0  0  0  0  0
    3.8788    0.1493    0.0000 H   0  0  0  0  0  0  0  0  0  0  0  0
    2.8694   -1.1318    0.0000 H   0  0  0  0  0  0  0  0  0  0  0  0
    3.7258   -3.6351    0.0000 H   0  0  0  0  0  0  0  0  0  0  0  0
   15.7132    4.3461    0.0000 H   0  0  0  0  0  0  0  0  0  0  0  0
   15.4765    5.1903    0.0000 H   0  0  0  0  0  0  0  0  0  0  0  0
   14.6323    4.9536    0.0000 H   0  0  0  0  0  0  0  0  0  0  0  0
    2.0000   -2.0084    0.0000 H   0  0  0  0  0  0  0  0  0  0  0  0
    2.5458    0.2995    0.0000 H   0  0  0  0  0  0  0  0  0  0  0  0
 26  1  1  1  0  0  0
 42  1  1  1  0  0  0
 28  2  1  1  0  0  0
  2 86  1  0  0  0  0
  3 35  1  0  0  0  0
  3 91  1  0  0  0  0
  4 39  1  0  0  0  0
  4 92  1  0  0  0  0
  5 39  2  0  0  0  0
  6 42  1  0  0  0  0
  6 45  1  0  0  0  0
  7 41  1  0  0  0  0
  7 47  1  0  0  0  0
  8 41  2  0  0  0  0
 43  9  1  6  0  0  0
  9 98  1  0  0  0  0
 44 10  1  1  0  0  0
 10102  1  0  0  0  0
 46 11  1  6  0  0  0
 11103  1  0  0  0  0
 12 14  1  0  0  0  0
 12 15  1  0  0  0  0
 12 17  1  0  0  0  0
 12 27  1  1  0  0  0
 13 14  1  0  0  0  0
 13 16  1  0  0  0  0
 13 21  1  0  0  0  0
 13 30  1  1  0  0  0
 14 22  1  0  0  0  0
 14 48  1  6  0  0  0
 15 20  1  0  0  0  0
 15 24  1  0  0  0  0
 15 32  1  6  0  0  0
 16 18  1  0  0  0  0
 16 19  1  0  0  0  0
 16 49  1  6  0  0  0
 17 19  1  0  0  0  0
 17 50  1  0  0  0  0
 17 51  1  0  0  0  0
 18 26  1  0  0  0  0
 18 35  1  0  0  0  0
 18 36  1  1  0  0  0
 19 52  1  0  0  0  0
 19 53  1  0  0  0  0
 20 23  1  0  0  0  0
 20 31  2  0  0  0  0
 21 28  1  0  0  0  0
 21 54  1  0  0  0  0
 21 55  1  0  0  0  0
 22 31  1  0  0  0  0
 22 56  1  0  0  0  0
 22 57  1  0  0  0  0
 23 25  1  0  0  0  0
 23 33  1  0  0  0  0
 23 58  1  1  0  0  0
 24 29  1  0  0  0  0
 24 59  1  0  0  0  0
 24 60  1  0  0  0  0
 25 29  1  0  0  0  0
 25 34  1  0  0  0  0
 25 39  1  1  0  0  0
 26 28  1  0  0  0  0
 26 61  1  0  0  0  0
 27 62  1  0  0  0  0
 27 63  1  0  0  0  0
 27 64  1  0  0  0  0
 28 65  1  0  0  0  0
 29 66  1  0  0  0  0
 29 67  1  0  0  0  0
 30 68  1  0  0  0  0
 30 69  1  0  0  0  0
 30 70  1  0  0  0  0
 31 71  1  0  0  0  0
 32 72  1  0  0  0  0
 32 73  1  0  0  0  0
 32 74  1  0  0  0  0
 33 37  1  0  0  0  0
 33 75  1  0  0  0  0
 33 76  1  0  0  0  0
 34 38  1  0  0  0  0
 34 77  1  0  0  0  0
 34 78  1  0  0  0  0
 35 79  1  0  0  0  0
 35 80  1  0  0  0  0
 36 81  1  0  0  0  0
 36 82  1  0  0  0  0
 36 83  1  0  0  0  0
 37 38  1  0  0  0  0
 37 40  1  6  0  0  0
 37 41  1  0  0  0  0
 38 84  1  0  0  0  0
 38 85  1  0  0  0  0
 40 87  1  0  0  0  0
 40 88  1  0  0  0  0
 40 89  1  0  0  0  0
 42 43  1  0  0  0  0
 42 90  1  0  0  0  0
 43 44  1  0  0  0  0
 43 93  1  0  0  0  0
 44 46  1  0  0  0  0
 44 94  1  0  0  0  0
 45 46  1  0  0  0  0
 45 95  1  0  0  0  0
 45 96  1  0  0  0  0
 46 97  1  0  0  0  0
 47 99  1  0  0  0  0
 47100  1  0  0  0  0
 47101  1  0  0  0  0
M  END
> <PUBCHEM_COMPOUND_CID>
441939

> <PUBCHEM_COMPOUND_CANONICALIZED>
1

> <PUBCHEM_CACTVS_COMPLEXITY>
1300

> <PUBCHEM_CACTVS_HBOND_ACCEPTOR>
11

> <PUBCHEM_CACTVS_HBOND_DONOR>
6

> <PUBCHEM_CACTVS_ROTATABLE_BOND>
6

> <PUBCHEM_CACTVS_SUBSKEYS>
AAADcfB8PAAAAAAAAAAAAAAAAAAAAAAAAAA0YMGCAAAAAADAAAAAGgAACAAADxSwgAMCCAAABgCIAiDSCAAAAAAgAAAACAEAAAgREBIAAQAiQAAFgAAPAAPI6PiPgAAAAAAAAADAAAYAADCAAAAAAAAAAA==

> <PUBCHEM_IUPAC_OPENEYE_NAME>
(2S,4aR,6aR,6aS,6bR,8aR,9R,10R,11S,12aR,14bS)-11-hydroxy-9-(hydroxymethyl)-2-methoxycarbonyl-2,6a,6b,9,12a-pentamethyl-10-[(2S,3R,4S,5R)-3,4,5-trihydroxytetrahydropyran-2-yl]oxy-1,3,4,5,6,6a,7,8,8a,10,11,12,13,14b-tetradecahydropicene-4a-carboxylic acid

> <PUBCHEM_IUPAC_CAS_NAME>
(2S,4aR,6aR,6aS,6bR,8aR,9R,10R,11S,12aR,14bS)-11-hydroxy-9-(hydroxymethyl)-2-methoxycarbonyl-2,6a,6b,9,12a-pentamethyl-10-[[(2S,3R,4S,5R)-3,4,5-trihydroxy-2-oxanyl]oxy]-1,3,4,5,6,6a,7,8,8a,10,11,12,13,14b-tetradecahydropicene-4a-carboxylic acid

> <PUBCHEM_IUPAC_NAME>
(2S,4aR,6aR,6aS,6bR,8aR,9R,10R,11S,12aR,14bS)-11-hydroxy-9-(hydroxymethyl)-2-methoxycarbonyl-2,6a,6b,9,12a-pentamethyl-10-[(2S,3R,4S,5R)-3,4,5-trihydroxyoxan-2-yl]oxy-1,3,4,5,6,6a,7,8,8a,10,11,12,13,14b-tetradecahydropicene-4a-carboxylic acid

> <PUBCHEM_IUPAC_SYSTEMATIC_NAME>
(2S,4aR,6aR,6aS,6bR,8aR,9R,10R,11S,12aR,14bS)-9-(hydroxymethyl)-2-methoxycarbonyl-2,6a,6b,9,12a-pentamethyl-11-oxidanyl-10-[(2S,3R,4S,5R)-3,4,5-tris(oxidanyl)oxan-2-yl]oxy-1,3,4,5,6,6a,7,8,8a,10,11,12,13,14b-tetradecahydropicene-4a-carboxylic acid

> <PUBCHEM_IUPAC_TRADITIONAL_NAME>
(2S,4aR,6aR,6aS,6bR,8aR,9R,10R,11S,12aR,14bS)-2-carbomethoxy-11-hydroxy-2,6a,6b,9,12a-pentamethyl-9-methylol-10-[(2S,3R,4S,5R)-3,4,5-trihydroxytetrahydropyran-2-yl]oxy-1,3,4,5,6,6a,7,8,8a,10,11,12,13,14b-tetradecahydropicene-4a-carboxylic acid

> <PUBCHEM_IUPAC_INCHI>
InChI=1S/C36H56O11/c1-31(30(44)45-6)11-13-36(29(42)43)14-12-34(4)19(20(36)15-31)7-8-24-32(2)16-21(38)27(47-28-26(41)25(40)22(39)17-46-28)33(3,18-37)23(32)9-10-35(24,34)5/h7,20-28,37-41H,8-18H2,1-6H3,(H,42,43)/t20-,21-,22+,23+,24+,25-,26+,27-,28-,31-,32-,33-,34+,35+,36-/m0/s1

> <PUBCHEM_IUPAC_INCHIKEY>
SFZVDNKTWPZIJG-ACNZYQHGSA-N

> <PUBCHEM_XLOGP3_AA>
2.4

> <PUBCHEM_EXACT_MASS>
664.382263

> <PUBCHEM_MOLECULAR_FORMULA>
C36H56O11

> <PUBCHEM_MOLECULAR_WEIGHT>
664.82324

> <PUBCHEM_OPENEYE_CAN_SMILES>
CC1(CCC2(CCC3(C(=CCC4C3(CCC5C4(CC(C(C5(C)CO)OC6C(C(C(CO6)O)O)O)O)C)C)C2C1)C)C(=O)O)C(=O)OC

> <PUBCHEM_OPENEYE_ISO_SMILES>
C[C@@]1(CC[C@@]2(CC[C@@]3(C(=CC[C@H]4[C@]3(CC[C@@H]5[C@@]4(C[C@@H]([C@@H]([C@@]5(C)CO)O[C@H]6[C@@H]([C@H]([C@@H](CO6)O)O)O)O)C)C)[C@@H]2C1)C)C(=O)O)C(=O)OC

> <PUBCHEM_CACTVS_TPSA>
183

> <PUBCHEM_MONOISOTOPIC_WEIGHT>
664.382263

> <PUBCHEM_TOTAL_CHARGE>
0

> <PUBCHEM_HEAVY_ATOM_COUNT>
47

> <PUBCHEM_ATOM_DEF_STEREO_COUNT>
15

> <PUBCHEM_ATOM_UDEF_STEREO_COUNT>
0

> <PUBCHEM_BOND_DEF_STEREO_COUNT>
0

> <PUBCHEM_BOND_UDEF_STEREO_COUNT>
0

> <PUBCHEM_ISOTOPIC_ATOM_COUNT>
0

> <PUBCHEM_COMPONENT_COUNT>
1

> <PUBCHEM_CACTVS_TAUTO_COUNT>
1

> <PUBCHEM_COORDINATE_TYPE>
1
5
255

> <PUBCHEM_BONDANNOTATIONS>
26  1  5
42  1  5
44  10  5
46  11  6
12  27  5
13  30  5
14  48  6
15  32  6
16  49  6
18  36  5
28  2  5
23  58  5
25  39  5
37  40  6
43  9  6

$$$$

