11395
  -OEChem-06261205372D

 36 39  0     0  0  0  0  0  0999 V2000
    7.2641   -0.2500    0.0000 N   0  0  0  0  0  0  0  0  0  0  0  0
    6.3981    0.2500    0.0000 N   0  0  0  0  0  0  0  0  0  0  0  0
    3.8000   -0.2500    0.0000 C   0  0  0  0  0  0  0  0  0  0  0  0
    9.8622    0.2500    0.0000 C   0  0  0  0  0  0  0  0  0  0  0  0
    3.8000   -1.2500    0.0000 C   0  0  0  0  0  0  0  0  0  0  0  0
    9.8622    1.2500    0.0000 C   0  0  0  0  0  0  0  0  0  0  0  0
    4.6660    0.2500    0.0000 C   0  0  0  0  0  0  0  0  0  0  0  0
    8.9962   -0.2500    0.0000 C   0  0  0  0  0  0  0  0  0  0  0  0
    8.1301    0.2500    0.0000 C   0  0  0  0  0  0  0  0  0  0  0  0
    5.5321   -0.2500    0.0000 C   0  0  0  0  0  0  0  0  0  0  0  0
    4.6660   -1.7500    0.0000 C   0  0  0  0  0  0  0  0  0  0  0  0
    8.9962    1.7500    0.0000 C   0  0  0  0  0  0  0  0  0  0  0  0
    2.9061    0.2847    0.0000 C   0  0  0  0  0  0  0  0  0  0  0  0
   10.7561   -0.2847    0.0000 C   0  0  0  0  0  0  0  0  0  0  0  0
    2.9061   -1.7847    0.0000 C   0  0  0  0  0  0  0  0  0  0  0  0
   10.7561    1.7847    0.0000 C   0  0  0  0  0  0  0  0  0  0  0  0
    5.5321   -1.2500    0.0000 C   0  0  0  0  0  0  0  0  0  0  0  0
    8.1301    1.2500    0.0000 C   0  0  0  0  0  0  0  0  0  0  0  0
   11.6622    0.2292    0.0000 C   0  0  0  0  0  0  0  0  0  0  0  0
    2.0000   -0.2292    0.0000 C   0  0  0  0  0  0  0  0  0  0  0  0
   11.6622    1.2708    0.0000 C   0  0  0  0  0  0  0  0  0  0  0  0
    2.0000   -1.2708    0.0000 C   0  0  0  0  0  0  0  0  0  0  0  0
    4.6660    0.8700    0.0000 H   0  0  0  0  0  0  0  0  0  0  0  0
    8.9962   -0.8700    0.0000 H   0  0  0  0  0  0  0  0  0  0  0  0
    4.6660   -2.3700    0.0000 H   0  0  0  0  0  0  0  0  0  0  0  0
    8.9962    2.3700    0.0000 H   0  0  0  0  0  0  0  0  0  0  0  0
    2.9132    0.9046    0.0000 H   0  0  0  0  0  0  0  0  0  0  0  0
   10.7490   -0.9046    0.0000 H   0  0  0  0  0  0  0  0  0  0  0  0
    2.9132   -2.4046    0.0000 H   0  0  0  0  0  0  0  0  0  0  0  0
   10.7490    2.4046    0.0000 H   0  0  0  0  0  0  0  0  0  0  0  0
    6.0690   -1.5600    0.0000 H   0  0  0  0  0  0  0  0  0  0  0  0
    7.5932    1.5600    0.0000 H   0  0  0  0  0  0  0  0  0  0  0  0
    1.4643    0.0829    0.0000 H   0  0  0  0  0  0  0  0  0  0  0  0
   12.1979   -0.0829    0.0000 H   0  0  0  0  0  0  0  0  0  0  0  0
    1.4643   -1.5829    0.0000 H   0  0  0  0  0  0  0  0  0  0  0  0
   12.1979    1.5829    0.0000 H   0  0  0  0  0  0  0  0  0  0  0  0
  1  2  2  0  0  0  0
  1  9  1  0  0  0  0
  2 10  1  0  0  0  0
  3  5  1  0  0  0  0
  3  7  1  0  0  0  0
  3 13  2  0  0  0  0
  4  6  1  0  0  0  0
  4  8  1  0  0  0  0
  4 14  2  0  0  0  0
  5 11  1  0  0  0  0
  5 15  2  0  0  0  0
  6 12  1  0  0  0  0
  6 16  2  0  0  0  0
  7 10  2  0  0  0  0
  7 23  1  0  0  0  0
  8  9  2  0  0  0  0
  8 24  1  0  0  0  0
  9 18  1  0  0  0  0
 10 17  1  0  0  0  0
 11 17  2  0  0  0  0
 11 25  1  0  0  0  0
 12 18  2  0  0  0  0
 12 26  1  0  0  0  0
 13 20  1  0  0  0  0
 13 27  1  0  0  0  0
 14 19  1  0  0  0  0
 14 28  1  0  0  0  0
 15 22  1  0  0  0  0
 15 29  1  0  0  0  0
 16 21  1  0  0  0  0
 16 30  1  0  0  0  0
 17 31  1  0  0  0  0
 18 32  1  0  0  0  0
 19 21  2  0  0  0  0
 19 34  1  0  0  0  0
 20 22  2  0  0  0  0
 20 33  1  0  0  0  0
 21 36  1  0  0  0  0
 22 35  1  0  0  0  0
M  END
> <PUBCHEM_COMPOUND_CID>
11395

> <PUBCHEM_COMPOUND_CANONICALIZED>
1

> <PUBCHEM_CACTVS_COMPLEXITY>
355

> <PUBCHEM_CACTVS_HBOND_ACCEPTOR>
2

> <PUBCHEM_CACTVS_HBOND_DONOR>
0

> <PUBCHEM_CACTVS_ROTATABLE_BOND>
2

> <PUBCHEM_CACTVS_SUBSKEYS>
AAADccB7AAAAAAAAAAAAAAAAAAAAAAAAAAAwYMGAAAAAAADBVAAAHAAIAAAADAiBGAAwwMAAAACCAiRCQACCAAAgAgAIiAAAZIgIICKAkZGAIABggAAIyAcQgIAOiAAAQAAQAAAQAACAACAAAAAAAAAAAA==

> <PUBCHEM_IUPAC_OPENEYE_NAME>
bis(2-naphthyl)diazene

> <PUBCHEM_IUPAC_CAS_NAME>
bis(2-naphthalenyl)diazene

> <PUBCHEM_IUPAC_NAME>
dinaphthalen-2-yldiazene

> <PUBCHEM_IUPAC_SYSTEMATIC_NAME>
dinaphthalen-2-yldiazene

> <PUBCHEM_IUPAC_TRADITIONAL_NAME>
bis(2-naphthyl)diazene

> <PUBCHEM_IUPAC_INCHI>
InChI=1S/C20H14N2/c1-3-7-17-13-19(11-9-15(17)5-1)21-22-20-12-10-16-6-2-4-8-18(16)14-20/h1-14H

> <PUBCHEM_IUPAC_INCHIKEY>
GSCOATNEHHMXKY-UHFFFAOYSA-N

> <PUBCHEM_XLOGP3_AA>
6.2

> <PUBCHEM_EXACT_MASS>
282.115698

> <PUBCHEM_MOLECULAR_FORMULA>
C20H14N2

> <PUBCHEM_MOLECULAR_WEIGHT>
282.33856

> <PUBCHEM_OPENEYE_CAN_SMILES>
C1=CC=C2C=C(C=CC2=C1)N=NC3=CC4=CC=CC=C4C=C3

> <PUBCHEM_OPENEYE_ISO_SMILES>
C1=CC=C2C=C(C=CC2=C1)N=NC3=CC4=CC=CC=C4C=C3

> <PUBCHEM_CACTVS_TPSA>
24.7

> <PUBCHEM_MONOISOTOPIC_WEIGHT>
282.115698

> <PUBCHEM_TOTAL_CHARGE>
0

> <PUBCHEM_HEAVY_ATOM_COUNT>
22

> <PUBCHEM_ATOM_DEF_STEREO_COUNT>
0

> <PUBCHEM_ATOM_UDEF_STEREO_COUNT>
0

> <PUBCHEM_BOND_DEF_STEREO_COUNT>
0

> <PUBCHEM_BOND_UDEF_STEREO_COUNT>
0

> <PUBCHEM_ISOTOPIC_ATOM_COUNT>
0

> <PUBCHEM_COMPONENT_COUNT>
1

> <PUBCHEM_CACTVS_TAUTO_COUNT>
1

> <PUBCHEM_COORDINATE_TYPE>
1
5
255

> <PUBCHEM_BONDANNOTATIONS>
10  17  8
11  17  8
12  18  8
13  20  8
14  19  8
15  22  8
16  21  8
19  21  8
20  22  8
3  13  8
3  5  8
3  7  8
4  14  8
4  6  8
4  8  8
5  11  8
5  15  8
6  12  8
6  16  8
7  10  8
8  9  8
9  18  8

$$$$

