439784
  -OEChem-07051212472D

 35 37  0     1  0  0  0  0  0999 V2000
    7.1962    1.4279    0.0000 O   0  0  0  0  0  0  0  0  0  0  0  0
    7.1962   -1.5721    0.0000 O   0  0  0  0  0  0  0  0  0  0  0  0
    8.9446   -1.6067    0.0000 O   0  0  0  0  0  0  0  0  0  0  0  0
    2.8660   -2.0721    0.0000 O   0  0  0  0  0  0  0  0  0  0  0  0
   10.7263    1.4521    0.0000 O   0  0  0  0  0  0  0  0  0  0  0  0
    6.3301   -0.0721    0.0000 C   0  0  3  0  0  0  0  0  0  0  0  0
    6.3301    0.9279    0.0000 C   0  0  0  0  0  0  0  0  0  0  0  0
    7.1962   -0.5721    0.0000 C   0  0  0  0  0  0  0  0  0  0  0  0
    5.4641   -0.5721    0.0000 C   0  0  0  0  0  0  0  0  0  0  0  0
    8.0622   -0.0721    0.0000 C   0  0  0  0  0  0  0  0  0  0  0  0
    8.0622    0.9279    0.0000 C   0  0  0  0  0  0  0  0  0  0  0  0
    8.9561   -0.6067    0.0000 C   0  0  0  0  0  0  0  0  0  0  0  0
    4.5981   -0.0721    0.0000 C   0  0  0  0  0  0  0  0  0  0  0  0
    5.4641   -1.5721    0.0000 C   0  0  0  0  0  0  0  0  0  0  0  0
    8.9561    1.4626    0.0000 C   0  0  0  0  0  0  0  0  0  0  0  0
    9.8622   -0.0929    0.0000 C   0  0  0  0  0  0  0  0  0  0  0  0
    9.8622    0.9487    0.0000 C   0  0  0  0  0  0  0  0  0  0  0  0
    3.7320   -0.5721    0.0000 C   0  0  0  0  0  0  0  0  0  0  0  0
    4.5981   -2.0721    0.0000 C   0  0  0  0  0  0  0  0  0  0  0  0
    3.7320   -1.5721    0.0000 C   0  0  0  0  0  0  0  0  0  0  0  0
    2.0000   -1.5721    0.0000 C   0  0  0  0  0  0  0  0  0  0  0  0
    5.7932    0.2379    0.0000 H   0  0  0  0  0  0  0  0  0  0  0  0
    6.1181    1.5105    0.0000 H   0  0  0  0  0  0  0  0  0  0  0  0
    5.7196    0.8203    0.0000 H   0  0  0  0  0  0  0  0  0  0  0  0
    4.5981    0.5479    0.0000 H   0  0  0  0  0  0  0  0  0  0  0  0
    6.0010   -1.8821    0.0000 H   0  0  0  0  0  0  0  0  0  0  0  0
    8.9490    2.0826    0.0000 H   0  0  0  0  0  0  0  0  0  0  0  0
   10.3979   -0.4050    0.0000 H   0  0  0  0  0  0  0  0  0  0  0  0
    3.1951   -0.2621    0.0000 H   0  0  0  0  0  0  0  0  0  0  0  0
    4.5981   -2.6921    0.0000 H   0  0  0  0  0  0  0  0  0  0  0  0
    9.4779   -1.9229    0.0000 H   0  0  0  0  0  0  0  0  0  0  0  0
   10.7239    2.0721    0.0000 H   0  0  0  0  0  0  0  0  0  0  0  0
    2.3100   -1.0351    0.0000 H   0  0  0  0  0  0  0  0  0  0  0  0
    1.4631   -1.2621    0.0000 H   0  0  0  0  0  0  0  0  0  0  0  0
    1.6900   -2.1090    0.0000 H   0  0  0  0  0  0  0  0  0  0  0  0
  1  7  1  0  0  0  0
  1 11  1  0  0  0  0
  2  8  2  0  0  0  0
  3 12  1  0  0  0  0
  3 31  1  0  0  0  0
  4 20  1  0  0  0  0
  4 21  1  0  0  0  0
  5 17  1  0  0  0  0
  5 32  1  0  0  0  0
  6  7  1  0  0  0  0
  6  8  1  0  0  0  0
  6  9  1  0  0  0  0
  6 22  1  0  0  0  0
  7 23  1  0  0  0  0
  7 24  1  0  0  0  0
  8 10  1  0  0  0  0
  9 13  2  0  0  0  0
  9 14  1  0  0  0  0
 10 11  1  0  0  0  0
 10 12  2  0  0  0  0
 11 15  2  0  0  0  0
 12 16  1  0  0  0  0
 13 18  1  0  0  0  0
 13 25  1  0  0  0  0
 14 19  2  0  0  0  0
 14 26  1  0  0  0  0
 15 17  1  0  0  0  0
 15 27  1  0  0  0  0
 16 17  2  0  0  0  0
 16 28  1  0  0  0  0
 18 20  2  0  0  0  0
 18 29  1  0  0  0  0
 19 20  1  0  0  0  0
 19 30  1  0  0  0  0
 21 33  1  0  0  0  0
 21 34  1  0  0  0  0
 21 35  1  0  0  0  0
M  END
> <PUBCHEM_COMPOUND_CID>
439784

> <PUBCHEM_COMPOUND_CANONICALIZED>
1

> <PUBCHEM_CACTVS_COMPLEXITY>
377

> <PUBCHEM_CACTVS_HBOND_ACCEPTOR>
5

> <PUBCHEM_CACTVS_HBOND_DONOR>
2

> <PUBCHEM_CACTVS_ROTATABLE_BOND>
2

> <PUBCHEM_CACTVS_SUBSKEYS>
AAADccB4OAAAAAAAAAAAAAAAAAAAAAAAAAA0YIAAAAAAAACRQAAAGgAACAAADQSgmAIyBoAABgCIAqBSAAACCAAkIAAIiAEGCMgMJzaGNRqCeWCl4BUIuQeI7PzOoAAACAAIAABAAAAQABAAAAAAAAAAAA==

> <PUBCHEM_IUPAC_OPENEYE_NAME>
5,7-dihydroxy-3-(4-methoxyphenyl)chroman-4-one

> <PUBCHEM_IUPAC_CAS_NAME>
5,7-dihydroxy-3-(4-methoxyphenyl)-3,4-dihydro-2H-1-benzopyran-4-one

> <PUBCHEM_IUPAC_NAME>
5,7-dihydroxy-3-(4-methoxyphenyl)-2,3-dihydrochromen-4-one

> <PUBCHEM_IUPAC_SYSTEMATIC_NAME>
3-(4-methoxyphenyl)-5,7-bis(oxidanyl)-2,3-dihydrochromen-4-one

> <PUBCHEM_IUPAC_TRADITIONAL_NAME>
5,7-dihydroxy-3-(4-methoxyphenyl)chroman-4-one

> <PUBCHEM_IUPAC_INCHI>
InChI=1S/C16H14O5/c1-20-11-4-2-9(3-5-11)12-8-21-14-7-10(17)6-13(18)15(14)16(12)19/h2-7,12,17-18H,8H2,1H3

> <PUBCHEM_IUPAC_INCHIKEY>
XPZQBSCTDLGDBP-UHFFFAOYSA-N

> <PUBCHEM_XLOGP3_AA>
2.9

> <PUBCHEM_EXACT_MASS>
286.084124

> <PUBCHEM_MOLECULAR_FORMULA>
C16H14O5

> <PUBCHEM_MOLECULAR_WEIGHT>
286.27936

> <PUBCHEM_OPENEYE_CAN_SMILES>
COC1=CC=C(C=C1)C2COC3=CC(=CC(=C3C2=O)O)O

> <PUBCHEM_OPENEYE_ISO_SMILES>
COC1=CC=C(C=C1)C2COC3=CC(=CC(=C3C2=O)O)O

> <PUBCHEM_CACTVS_TPSA>
76

> <PUBCHEM_MONOISOTOPIC_WEIGHT>
286.084124

> <PUBCHEM_TOTAL_CHARGE>
0

> <PUBCHEM_HEAVY_ATOM_COUNT>
21

> <PUBCHEM_ATOM_DEF_STEREO_COUNT>
0

> <PUBCHEM_ATOM_UDEF_STEREO_COUNT>
1

> <PUBCHEM_BOND_DEF_STEREO_COUNT>
0

> <PUBCHEM_BOND_UDEF_STEREO_COUNT>
0

> <PUBCHEM_ISOTOPIC_ATOM_COUNT>
0

> <PUBCHEM_COMPONENT_COUNT>
1

> <PUBCHEM_CACTVS_TAUTO_COUNT>
21

> <PUBCHEM_COORDINATE_TYPE>
1
5
255

> <PUBCHEM_BONDANNOTATIONS>
10  11  8
10  12  8
11  15  8
12  16  8
13  18  8
14  19  8
15  17  8
16  17  8
18  20  8
19  20  8
6  9  3
9  13  8
9  14  8

$$$$

