17395281
  -OEChem-06241222492D

 49 51  0     1  0  0  0  0  0999 V2000
    4.5981   -0.2696    0.0000 O   0  0  0  0  0  0  0  0  0  0  0  0
    2.0570    4.3181    0.0000 O   0  0  0  0  0  0  0  0  0  0  0  0
    6.3301   -0.2696    0.0000 O   0  0  0  0  0  0  0  0  0  0  0  0
    2.8660    0.7304    0.0000 O   0  0  0  0  0  0  0  0  0  0  0  0
    7.2764   -3.5744    0.0000 N   0  0  0  0  0  0  0  0  0  0  0  0
    7.8600   -2.7696    0.0000 N   0  0  0  0  0  0  0  0  0  0  0  0
    5.4641   -3.7696    0.0000 N   0  0  0  0  0  0  0  0  0  0  0  0
    3.7320    2.2304    0.0000 N   0  0  0  0  0  0  0  0  0  0  0  0
    7.5870   -4.5249    0.0000 C   0  0  0  0  0  0  0  0  0  0  0  0
    6.3301   -3.2696    0.0000 C   0  0  0  0  0  0  0  0  0  0  0  0
    6.3301   -2.2696    0.0000 C   0  0  0  0  0  0  0  0  0  0  0  0
    5.4641   -1.7696    0.0000 C   0  0  0  0  0  0  0  0  0  0  0  0
    8.5655   -4.7311    0.0000 C   0  0  0  0  0  0  0  0  0  0  0  0
    6.9192   -5.2692    0.0000 C   0  0  0  0  0  0  0  0  0  0  0  0
    7.2764   -1.9649    0.0000 C   0  0  0  0  0  0  0  0  0  0  0  0
    4.5981   -3.2696    0.0000 C   0  0  0  0  0  0  0  0  0  0  0  0
    4.5981   -2.2696    0.0000 C   0  0  0  0  0  0  0  0  0  0  0  0
    2.8660    2.7304    0.0000 C   0  0  3  0  0  0  0  0  0  0  0  0
    5.4641   -0.7696    0.0000 C   0  0  0  0  0  0  0  0  0  0  0  0
    2.8660    3.7304    0.0000 C   0  0  0  0  0  0  0  0  0  0  0  0
    2.0000    2.2304    0.0000 C   0  0  0  0  0  0  0  0  0  0  0  0
    3.7320   -3.7696    0.0000 C   0  0  0  0  0  0  0  0  0  0  0  0
    4.5981    0.7304    0.0000 C   0  0  0  0  0  0  0  0  0  0  0  0
    3.7320    1.2304    0.0000 C   0  0  0  0  0  0  0  0  0  0  0  0
    3.6750    4.3181    0.0000 C   0  0  0  0  0  0  0  0  0  0  0  0
    3.3660    5.2692    0.0000 C   0  0  0  0  0  0  0  0  0  0  0  0
    2.3660    5.2692    0.0000 C   0  0  0  0  0  0  0  0  0  0  0  0
    6.9803   -4.3970    0.0000 H   0  0  0  0  0  0  0  0  0  0  0  0
    8.4377   -5.3378    0.0000 H   0  0  0  0  0  0  0  0  0  0  0  0
    9.1722   -4.8590    0.0000 H   0  0  0  0  0  0  0  0  0  0  0  0
    8.6934   -4.1244    0.0000 H   0  0  0  0  0  0  0  0  0  0  0  0
    6.4577   -4.8551    0.0000 H   0  0  0  0  0  0  0  0  0  0  0  0
    6.5051   -5.7307    0.0000 H   0  0  0  0  0  0  0  0  0  0  0  0
    7.3806   -5.6833    0.0000 H   0  0  0  0  0  0  0  0  0  0  0  0
    7.4690   -1.3756    0.0000 H   0  0  0  0  0  0  0  0  0  0  0  0
    4.0611   -1.9596    0.0000 H   0  0  0  0  0  0  0  0  0  0  0  0
    2.8660    2.1104    0.0000 H   0  0  0  0  0  0  0  0  0  0  0  0
    4.2690    2.5404    0.0000 H   0  0  0  0  0  0  0  0  0  0  0  0
    1.6900    2.7673    0.0000 H   0  0  0  0  0  0  0  0  0  0  0  0
    1.4631    1.9204    0.0000 H   0  0  0  0  0  0  0  0  0  0  0  0
    2.3100    1.6934    0.0000 H   0  0  0  0  0  0  0  0  0  0  0  0
    3.4220   -3.2327    0.0000 H   0  0  0  0  0  0  0  0  0  0  0  0
    3.1951   -4.0796    0.0000 H   0  0  0  0  0  0  0  0  0  0  0  0
    4.0420   -4.3066    0.0000 H   0  0  0  0  0  0  0  0  0  0  0  0
    5.2087    0.6227    0.0000 H   0  0  0  0  0  0  0  0  0  0  0  0
    4.8101    1.3130    0.0000 H   0  0  0  0  0  0  0  0  0  0  0  0
    4.2647    4.1266    0.0000 H   0  0  0  0  0  0  0  0  0  0  0  0
    3.7304    5.7708    0.0000 H   0  0  0  0  0  0  0  0  0  0  0  0
    2.0016    5.7708    0.0000 H   0  0  0  0  0  0  0  0  0  0  0  0
  1 19  1  0  0  0  0
  1 23  1  0  0  0  0
  2 20  1  0  0  0  0
  2 27  1  0  0  0  0
  3 19  2  0  0  0  0
  4 24  2  0  0  0  0
  5  6  1  0  0  0  0
  5  9  1  0  0  0  0
  5 10  1  0  0  0  0
  6 15  2  0  0  0  0
  7 10  2  0  0  0  0
  7 16  1  0  0  0  0
  8 18  1  0  0  0  0
  8 24  1  0  0  0  0
  8 38  1  0  0  0  0
  9 13  1  0  0  0  0
  9 14  1  0  0  0  0
  9 28  1  0  0  0  0
 10 11  1  0  0  0  0
 11 12  2  0  0  0  0
 11 15  1  0  0  0  0
 12 17  1  0  0  0  0
 12 19  1  0  0  0  0
 13 29  1  0  0  0  0
 13 30  1  0  0  0  0
 13 31  1  0  0  0  0
 14 32  1  0  0  0  0
 14 33  1  0  0  0  0
 14 34  1  0  0  0  0
 15 35  1  0  0  0  0
 16 17  2  0  0  0  0
 16 22  1  0  0  0  0
 17 36  1  0  0  0  0
 18 20  1  0  0  0  0
 18 21  1  0  0  0  0
 18 37  1  0  0  0  0
 20 25  2  0  0  0  0
 21 39  1  0  0  0  0
 21 40  1  0  0  0  0
 21 41  1  0  0  0  0
 22 42  1  0  0  0  0
 22 43  1  0  0  0  0
 22 44  1  0  0  0  0
 23 24  1  0  0  0  0
 23 45  1  0  0  0  0
 23 46  1  0  0  0  0
 25 26  1  0  0  0  0
 25 47  1  0  0  0  0
 26 27  2  0  0  0  0
 26 48  1  0  0  0  0
 27 49  1  0  0  0  0
M  END
> <PUBCHEM_COMPOUND_CID>
17395281

> <PUBCHEM_COMPOUND_CANONICALIZED>
1

> <PUBCHEM_CACTVS_COMPLEXITY>
544

> <PUBCHEM_CACTVS_HBOND_ACCEPTOR>
6

> <PUBCHEM_CACTVS_HBOND_DONOR>
1

> <PUBCHEM_CACTVS_ROTATABLE_BOND>
7

> <PUBCHEM_CACTVS_SUBSKEYS>
AAADceB7uAAAAAAAAAAAAAAAAAAAAWJAAAAsAAAAAAAAAFgB/gAAHgAYAAAADCzhnwY/vN7IFECqA7/3/AKSjCsloqAd2KH+bNiOLvLE/f+HvSjs3hPY6ae8WQMegAAAAAAAAAAAAAAAAAAAAAAAAAAAAA==

> <PUBCHEM_IUPAC_OPENEYE_NAME>
[2-[1-(2-furyl)ethylamino]-2-oxo-ethyl] 1-isopropyl-6-methyl-pyrazolo[3,4-b]pyridine-4-carboxylate

> <PUBCHEM_IUPAC_CAS_NAME>
6-methyl-1-propan-2-yl-4-pyrazolo[3,4-b]pyridinecarboxylic acid [2-[1-(2-furanyl)ethylamino]-2-oxoethyl] ester

> <PUBCHEM_IUPAC_NAME>
[2-[1-(furan-2-yl)ethylamino]-2-oxoethyl] 6-methyl-1-propan-2-ylpyrazolo[3,4-b]pyridine-4-carboxylate

> <PUBCHEM_IUPAC_SYSTEMATIC_NAME>
[2-[1-(furan-2-yl)ethylamino]-2-oxidanylidene-ethyl] 6-methyl-1-propan-2-yl-pyrazolo[3,4-b]pyridine-4-carboxylate

> <PUBCHEM_IUPAC_TRADITIONAL_NAME>
1-isopropyl-6-methyl-pyrazolo[3,4-b]pyridine-4-carboxylic acid [2-[1-(2-furyl)ethylamino]-2-keto-ethyl] ester

> <PUBCHEM_IUPAC_INCHI>
InChI=1S/C19H22N4O4/c1-11(2)23-18-15(9-20-23)14(8-12(3)21-18)19(25)27-10-17(24)22-13(4)16-6-5-7-26-16/h5-9,11,13H,10H2,1-4H3,(H,22,24)

> <PUBCHEM_IUPAC_INCHIKEY>
AZRRRVFMZHTMQF-UHFFFAOYSA-N

> <PUBCHEM_XLOGP3_AA>
2.1

> <PUBCHEM_EXACT_MASS>
370.164105

> <PUBCHEM_MOLECULAR_FORMULA>
C19H22N4O4

> <PUBCHEM_MOLECULAR_WEIGHT>
370.40238

> <PUBCHEM_OPENEYE_CAN_SMILES>
CC1=NC2=C(C=NN2C(C)C)C(=C1)C(=O)OCC(=O)NC(C)C3=CC=CO3

> <PUBCHEM_OPENEYE_ISO_SMILES>
CC1=NC2=C(C=NN2C(C)C)C(=C1)C(=O)OCC(=O)NC(C)C3=CC=CO3

> <PUBCHEM_CACTVS_TPSA>
99.2

> <PUBCHEM_MONOISOTOPIC_WEIGHT>
370.164105

> <PUBCHEM_TOTAL_CHARGE>
0

> <PUBCHEM_HEAVY_ATOM_COUNT>
27

> <PUBCHEM_ATOM_DEF_STEREO_COUNT>
0

> <PUBCHEM_ATOM_UDEF_STEREO_COUNT>
1

> <PUBCHEM_BOND_DEF_STEREO_COUNT>
0

> <PUBCHEM_BOND_UDEF_STEREO_COUNT>
0

> <PUBCHEM_ISOTOPIC_ATOM_COUNT>
0

> <PUBCHEM_COMPONENT_COUNT>
1

> <PUBCHEM_CACTVS_TAUTO_COUNT>
2

> <PUBCHEM_COORDINATE_TYPE>
1
5
255

> <PUBCHEM_BONDANNOTATIONS>
10  11  8
11  12  8
11  15  8
12  17  8
16  17  8
18  21  3
2  20  8
2  27  8
20  25  8
25  26  8
26  27  8
5  10  8
5  6  8
6  15  8
7  10  8
7  16  8

$$$$

