107921
  -OEChem-07051213152D

 30 31  0     1  0  0  0  0  0999 V2000
    2.4341    1.4906    0.0000 O   0  0  0  0  0  0  0  0  0  0  0  0
    5.9543    1.4906    0.0000 O   0  0  0  0  0  0  0  0  0  0  0  0
    4.6942    0.2306    0.0000 N   0  0  0  0  0  0  0  0  0  0  0  0
    4.1942    1.7694    0.0000 N   0  0  0  0  0  0  0  0  0  0  0  0
    3.6942    0.2306    0.0000 C   0  0  2  0  0  0  0  0  0  0  0  0
    2.7431   -0.0784    0.0000 C   0  0  0  0  0  0  0  0  0  0  0  0
    3.3852    1.1816    0.0000 C   0  0  0  0  0  0  0  0  0  0  0  0
    3.6942   -0.7694    0.0000 C   0  0  0  0  0  0  0  0  0  0  0  0
    5.0032    1.1816    0.0000 C   0  0  0  0  0  0  0  0  0  0  0  0
    2.0000    0.5907    0.0000 C   0  0  0  0  0  0  0  0  0  0  0  0
    2.8282   -1.2694    0.0000 C   0  0  0  0  0  0  0  0  0  0  0  0
    4.5602   -1.2694    0.0000 C   0  0  0  0  0  0  0  0  0  0  0  0
    4.1942    2.7694    0.0000 C   0  0  0  0  0  0  0  0  0  0  0  0
    2.8282   -2.2694    0.0000 C   0  0  0  0  0  0  0  0  0  0  0  0
    4.5602   -2.2694    0.0000 C   0  0  0  0  0  0  0  0  0  0  0  0
    3.6942   -2.7694    0.0000 C   0  0  0  0  0  0  0  0  0  0  0  0
    2.2546   -0.4601    0.0000 H   0  0  0  0  0  0  0  0  0  0  0  0
    3.0342   -0.6259    0.0000 H   0  0  0  0  0  0  0  0  0  0  0  0
    5.0586   -0.2710    0.0000 H   0  0  0  0  0  0  0  0  0  0  0  0
    2.4149    1.0514    0.0000 H   0  0  0  0  0  0  0  0  0  0  0  0
    1.5392    1.0056    0.0000 H   0  0  0  0  0  0  0  0  0  0  0  0
    1.5851    0.1299    0.0000 H   0  0  0  0  0  0  0  0  0  0  0  0
    2.2912   -0.9594    0.0000 H   0  0  0  0  0  0  0  0  0  0  0  0
    5.0972   -0.9594    0.0000 H   0  0  0  0  0  0  0  0  0  0  0  0
    4.8142    2.7694    0.0000 H   0  0  0  0  0  0  0  0  0  0  0  0
    4.1942    3.3894    0.0000 H   0  0  0  0  0  0  0  0  0  0  0  0
    3.5742    2.7694    0.0000 H   0  0  0  0  0  0  0  0  0  0  0  0
    2.2912   -2.5794    0.0000 H   0  0  0  0  0  0  0  0  0  0  0  0
    5.0972   -2.5794    0.0000 H   0  0  0  0  0  0  0  0  0  0  0  0
    3.6942   -3.3894    0.0000 H   0  0  0  0  0  0  0  0  0  0  0  0
  1  7  2  0  0  0  0
  2  9  2  0  0  0  0
  3  5  1  0  0  0  0
  3  9  1  0  0  0  0
  3 19  1  0  0  0  0
  4  7  1  0  0  0  0
  4  9  1  0  0  0  0
  4 13  1  0  0  0  0
  5  6  1  6  0  0  0
  5  7  1  0  0  0  0
  5  8  1  0  0  0  0
  6 10  1  0  0  0  0
  6 17  1  0  0  0  0
  6 18  1  0  0  0  0
  8 11  2  0  0  0  0
  8 12  1  0  0  0  0
 10 20  1  0  0  0  0
 10 21  1  0  0  0  0
 10 22  1  0  0  0  0
 11 14  1  0  0  0  0
 11 23  1  0  0  0  0
 12 15  2  0  0  0  0
 12 24  1  0  0  0  0
 13 25  1  0  0  0  0
 13 26  1  0  0  0  0
 13 27  1  0  0  0  0
 14 16  2  0  0  0  0
 14 28  1  0  0  0  0
 15 16  1  0  0  0  0
 15 29  1  0  0  0  0
 16 30  1  0  0  0  0
M  END
> <PUBCHEM_COMPOUND_CID>
107921

> <PUBCHEM_COMPOUND_CANONICALIZED>
1

> <PUBCHEM_CACTVS_COMPLEXITY>
310

> <PUBCHEM_CACTVS_HBOND_ACCEPTOR>
2

> <PUBCHEM_CACTVS_HBOND_DONOR>
1

> <PUBCHEM_CACTVS_ROTATABLE_BOND>
2

> <PUBCHEM_CACTVS_SUBSKEYS>
AAADccBzMAAAAAAAAAAAAAAAAAAAAWAAAAAwAAAAAAAAAAABAAAAHgAQAAAADIiBmAQzAIPAAACIAiFSEACCAAAgAAAIiAGIBIiIYDKAlTGUIAholyIIiAcYiMCOgAAAAAAAAAAAAAAAAAAAAAAAAAAAAA==

> <PUBCHEM_IUPAC_OPENEYE_NAME>
(5S)-5-ethyl-3-methyl-5-phenyl-imidazolidine-2,4-dione

> <PUBCHEM_IUPAC_CAS_NAME>
(5S)-5-ethyl-3-methyl-5-phenylimidazolidine-2,4-dione

> <PUBCHEM_IUPAC_NAME>
(5S)-5-ethyl-3-methyl-5-phenylimidazolidine-2,4-dione

> <PUBCHEM_IUPAC_SYSTEMATIC_NAME>
(5S)-5-ethyl-3-methyl-5-phenyl-imidazolidine-2,4-dione

> <PUBCHEM_IUPAC_TRADITIONAL_NAME>
(5S)-5-ethyl-3-methyl-5-phenyl-hydantoin

> <PUBCHEM_IUPAC_INCHI>
InChI=1S/C12H14N2O2/c1-3-12(9-7-5-4-6-8-9)10(15)14(2)11(16)13-12/h4-8H,3H2,1-2H3,(H,13,16)/t12-/m0/s1

> <PUBCHEM_IUPAC_INCHIKEY>
GMHKMTDVRCWUDX-LBPRGKRZSA-N

> <PUBCHEM_XLOGP3_AA>
1.5

> <PUBCHEM_EXACT_MASS>
218.105528

> <PUBCHEM_MOLECULAR_FORMULA>
C12H14N2O2

> <PUBCHEM_MOLECULAR_WEIGHT>
218.25176

> <PUBCHEM_OPENEYE_CAN_SMILES>
CCC1(C(=O)N(C(=O)N1)C)C2=CC=CC=C2

> <PUBCHEM_OPENEYE_ISO_SMILES>
CC[C@@]1(C(=O)N(C(=O)N1)C)C2=CC=CC=C2

> <PUBCHEM_CACTVS_TPSA>
49.4

> <PUBCHEM_MONOISOTOPIC_WEIGHT>
218.105528

> <PUBCHEM_TOTAL_CHARGE>
0

> <PUBCHEM_HEAVY_ATOM_COUNT>
16

> <PUBCHEM_ATOM_DEF_STEREO_COUNT>
1

> <PUBCHEM_ATOM_UDEF_STEREO_COUNT>
0

> <PUBCHEM_BOND_DEF_STEREO_COUNT>
0

> <PUBCHEM_BOND_UDEF_STEREO_COUNT>
0

> <PUBCHEM_ISOTOPIC_ATOM_COUNT>
0

> <PUBCHEM_COMPONENT_COUNT>
1

> <PUBCHEM_CACTVS_TAUTO_COUNT>
2

> <PUBCHEM_COORDINATE_TYPE>
1
5
255

> <PUBCHEM_BONDANNOTATIONS>
11  14  8
12  15  8
14  16  8
15  16  8
5  6  6
8  11  8
8  12  8

$$$$

