   Color/Form

     * Liquid
     * Clear, colorless liquid

   from [1]HSDB

   Odor
        Fruity
   from [2]HSDB

   Boiling Point
        105 deg C
   from [3]HSDB

   Melting Point
        -35 deg C
   from [4]HSDB

   Density/Specific Gravity
        1.4262 at 20 deg C/4 deg C; 1.4226 at 20 deg C/4 deg C
   from [5]HSDB

   Octanol/Water Partition Coefficient
        log Kow = 2.21
   from [6]HSDB

   Solubilities
        In water, 28,300 mg/L at 37 deg C
   from [7]HSDB

   Vapor Pressure
        49 mm Hg at 25 deg C /Estimated/
   from [8]HSDB

   Other Chemical/Physical Properties

     * BP: 51 deg C at 100 mm Hg
     * Conversion factor: 1 ppm = 6.75 mg/cu m
     * Completely stable in the presence of alkali air, light, or
       moisture... Combustible
     * Henry's Law constant = 3.7X10-3 atm-cu m/mole at 25 deg C
     * Hydroxyl radical reaction rate constant = 3.2X10-14 cu
       cm/molecule-sec at 25 deg C /Estimated/

   from [9]HSDB

   Computed Properties
   Molecular Weight                  164.966066 [g/mol]
   Molecular Formula                 C[3]H[4]Cl[2]F[2]O
   XLogP3                            2.2
   H-Bond Donor                      0
   H-Bond Acceptor                   3
   Rotatable Bond Count              2
   Exact Mass                        163.960727
   MonoIsotopic Mass                 163.960727
   Topological Polar Surface Area    9.2
   Heavy Atom Count                  8
   Formal Charge                     0
   Complexity                        75.7
   Isotope Atom Count                0
   Defined Atom Stereocenter Count   0
   Undefined Atom Stereocenter Count 0
   Defined Bond Stereocenter Count   0
   Undefined Bond Stereocenter Count 0
   Covalently-Bonded Unit Count      1
   Feature 3D Acceptor Count         1
   Effective Rotor Count             2
   Conformer Sampling RMSD           0.4
   CID Conformer Count               [10]5

References

   1. http://toxnet.nlm.nih.gov/cgi-bin/sis/search/r?dbs+hsdb:@term+@rn+@rel+76-38-0
   2. http://toxnet.nlm.nih.gov/cgi-bin/sis/search/r?dbs+hsdb:@term+@rn+@rel+76-38-0
   3. http://toxnet.nlm.nih.gov/cgi-bin/sis/search/r?dbs+hsdb:@term+@rn+@rel+76-38-0
   4. http://toxnet.nlm.nih.gov/cgi-bin/sis/search/r?dbs+hsdb:@term+@rn+@rel+76-38-0
   5. http://toxnet.nlm.nih.gov/cgi-bin/sis/search/r?dbs+hsdb:@term+@rn+@rel+76-38-0
   6. http://toxnet.nlm.nih.gov/cgi-bin/sis/search/r?dbs+hsdb:@term+@rn+@rel+76-38-0
   7. http://toxnet.nlm.nih.gov/cgi-bin/sis/search/r?dbs+hsdb:@term+@rn+@rel+76-38-0
   8. http://toxnet.nlm.nih.gov/cgi-bin/sis/search/r?dbs+hsdb:@term+@rn+@rel+76-38-0
   9. http://toxnet.nlm.nih.gov/cgi-bin/sis/search/r?dbs+hsdb:@term+@rn+@rel+76-38-0
  10. http://pubchem.ncbi.nlm.nih.gov/vw3d/vw3d.cgi?cid=4116
