   Color/Form

     * Crystals from methanol
     * Yellow, crystalline solid

   from [1]HSDB

   Odor
        Odorless
   from [2]HSDB

   Taste
        Tasteless
   from [3]HSDB

   Melting Point
        178-179 deg C
   from [4]HSDB

   Solubilities
        Insoluble in water, slightly soluble in dimethylformamide, and
   soluble in dimethyl sulfoxide.
   from [5]HSDB

   Other Chemical/Physical Properties

     * TASTELESS; PRACTICALLY INSOL IN ALCOHOL OR WATER /PAMOATE/
     * White crystals from hot methanol; max absorption (water): 312 nm
       (log e= 4.27); MP: 148-150 deg C /Tartrate/
     * TAN POWDER; FREE OF CHARACTERISTIC ODOR; NONHYGROSCOPIC IN AIR
       UNDER ORDINARY CONDITIONS; MELTS WITH DECOMP BETWEEN 247-261 DEG C
       /PAMOATE/
     * Tastelss, yellow crystalline powder. Insol in water. /Pamoate/

   from [6]HSDB

   Computed Properties
   Molecular Weight                  206.30726 [g/mol]
   Molecular Formula                 C[11]H[14]N[2]S
   XLogP3-AA                         1.6
   H-Bond Donor                      0
   H-Bond Acceptor                   2
   Rotatable Bond Count              2
   Exact Mass                        206.087769
   MonoIsotopic Mass                 206.087769
   Topological Polar Surface Area    43.8
   Heavy Atom Count                  14
   Formal Charge                     0
   Complexity                        248
   Isotope Atom Count                0
   Defined Atom Stereocenter Count   0
   Undefined Atom Stereocenter Count 0
   Defined Bond Stereocenter Count   1
   Undefined Bond Stereocenter Count 0
   Covalently-Bonded Unit Count      1
   Feature 3D Cation Count           1
   Feature 3D Ring Count             2
   Effective Rotor Count             2.8
   Conformer Sampling RMSD           0.6
   CID Conformer Count               [7]9

References

   1. http://toxnet.nlm.nih.gov/cgi-bin/sis/search/r?dbs+hsdb:@term+@rn+@rel+15686-83-6
   2. http://toxnet.nlm.nih.gov/cgi-bin/sis/search/r?dbs+hsdb:@term+@rn+@rel+15686-83-6
   3. http://toxnet.nlm.nih.gov/cgi-bin/sis/search/r?dbs+hsdb:@term+@rn+@rel+15686-83-6
   4. http://toxnet.nlm.nih.gov/cgi-bin/sis/search/r?dbs+hsdb:@term+@rn+@rel+15686-83-6
   5. http://toxnet.nlm.nih.gov/cgi-bin/sis/search/r?dbs+hsdb:@term+@rn+@rel+15686-83-6
   6. http://toxnet.nlm.nih.gov/cgi-bin/sis/search/r?dbs+hsdb:@term+@rn+@rel+15686-83-6
   7. http://pubchem.ncbi.nlm.nih.gov/vw3d/vw3d.cgi?cid=708857
