17396224
  -OEChem-06241222552D

 50 52  0     0  0  0  0  0  0999 V2000
    6.3301    1.2500    0.0000 Cl  0  0  0  0  0  0  0  0  0  0  0  0
    5.4641   -3.2500    0.0000 O   0  0  0  0  0  0  0  0  0  0  0  0
    6.3301    3.2500    0.0000 O   0  0  0  0  0  0  0  0  0  0  0  0
    3.7320   -6.2500    0.0000 O   0  0  0  0  0  0  0  0  0  0  0  0
    4.5981    0.2500    0.0000 N   0  0  0  0  0  0  0  0  0  0  0  0
    4.5981   -1.7500    0.0000 N   0  0  0  0  0  0  0  0  0  0  0  0
    4.5981    3.2500    0.0000 N   0  0  0  0  0  0  0  0  0  0  0  0
    3.7320    2.7500    0.0000 N   0  0  0  0  0  0  0  0  0  0  0  0
    2.8660   -4.7500    0.0000 N   0  0  0  0  0  0  0  0  0  0  0  0
    3.7320   -0.2500    0.0000 C   0  0  0  0  0  0  0  0  0  0  0  0
    5.4641   -0.2500    0.0000 C   0  0  0  0  0  0  0  0  0  0  0  0
    5.4641   -1.2500    0.0000 C   0  0  0  0  0  0  0  0  0  0  0  0
    3.7320   -1.2500    0.0000 C   0  0  0  0  0  0  0  0  0  0  0  0
    4.5981    1.2500    0.0000 C   0  0  0  0  0  0  0  0  0  0  0  0
    4.5981   -2.7500    0.0000 C   0  0  0  0  0  0  0  0  0  0  0  0
    3.7320   -3.2500    0.0000 C   0  0  0  0  0  0  0  0  0  0  0  0
    5.4641    1.7500    0.0000 C   0  0  0  0  0  0  0  0  0  0  0  0
    3.7320    1.7500    0.0000 C   0  0  0  0  0  0  0  0  0  0  0  0
    3.7320   -4.2500    0.0000 C   0  0  0  0  0  0  0  0  0  0  0  0
    5.4641    2.7500    0.0000 C   0  0  0  0  0  0  0  0  0  0  0  0
    4.5981    4.2500    0.0000 C   0  0  0  0  0  0  0  0  0  0  0  0
    2.8660   -5.7500    0.0000 C   0  0  0  0  0  0  0  0  0  0  0  0
    5.4641    4.7500    0.0000 C   0  0  0  0  0  0  0  0  0  0  0  0
    3.7320    4.7500    0.0000 C   0  0  0  0  0  0  0  0  0  0  0  0
    5.4641    5.7500    0.0000 C   0  0  0  0  0  0  0  0  0  0  0  0
    3.7320    5.7500    0.0000 C   0  0  0  0  0  0  0  0  0  0  0  0
    2.0000   -6.2500    0.0000 C   0  0  0  0  0  0  0  0  0  0  0  0
    4.5981    6.2500    0.0000 C   0  0  0  0  0  0  0  0  0  0  0  0
    3.5200    0.3326    0.0000 H   0  0  0  0  0  0  0  0  0  0  0  0
    3.1215   -0.3577    0.0000 H   0  0  0  0  0  0  0  0  0  0  0  0
    6.0747   -0.3577    0.0000 H   0  0  0  0  0  0  0  0  0  0  0  0
    5.6762    0.3326    0.0000 H   0  0  0  0  0  0  0  0  0  0  0  0
    3.1215   -1.1423    0.0000 H   0  0  0  0  0  0  0  0  0  0  0  0
    3.5200   -1.8326    0.0000 H   0  0  0  0  0  0  0  0  0  0  0  0
    5.6762   -1.8326    0.0000 H   0  0  0  0  0  0  0  0  0  0  0  0
    6.0747   -1.1423    0.0000 H   0  0  0  0  0  0  0  0  0  0  0  0
    3.5200   -2.6674    0.0000 H   0  0  0  0  0  0  0  0  0  0  0  0
    3.1215   -3.3577    0.0000 H   0  0  0  0  0  0  0  0  0  0  0  0
    3.1951    1.4400    0.0000 H   0  0  0  0  0  0  0  0  0  0  0  0
    3.9441   -4.8326    0.0000 H   0  0  0  0  0  0  0  0  0  0  0  0
    4.3426   -4.1423    0.0000 H   0  0  0  0  0  0  0  0  0  0  0  0
    2.3291   -4.4400    0.0000 H   0  0  0  0  0  0  0  0  0  0  0  0
    6.0010    4.4400    0.0000 H   0  0  0  0  0  0  0  0  0  0  0  0
    3.1951    4.4400    0.0000 H   0  0  0  0  0  0  0  0  0  0  0  0
    6.0010    6.0600    0.0000 H   0  0  0  0  0  0  0  0  0  0  0  0
    3.1951    6.0600    0.0000 H   0  0  0  0  0  0  0  0  0  0  0  0
    1.6900   -5.7131    0.0000 H   0  0  0  0  0  0  0  0  0  0  0  0
    1.4631   -6.5600    0.0000 H   0  0  0  0  0  0  0  0  0  0  0  0
    2.3100   -6.7869    0.0000 H   0  0  0  0  0  0  0  0  0  0  0  0
    4.5981    6.8700    0.0000 H   0  0  0  0  0  0  0  0  0  0  0  0
  1 17  1  0  0  0  0
  2 15  2  0  0  0  0
  3 20  2  0  0  0  0
  4 22  2  0  0  0  0
  5 10  1  0  0  0  0
  5 11  1  0  0  0  0
  5 14  1  0  0  0  0
  6 12  1  0  0  0  0
  6 13  1  0  0  0  0
  6 15  1  0  0  0  0
  7  8  1  0  0  0  0
  7 20  1  0  0  0  0
  7 21  1  0  0  0  0
  8 18  2  0  0  0  0
  9 19  1  0  0  0  0
  9 22  1  0  0  0  0
  9 42  1  0  0  0  0
 10 13  1  0  0  0  0
 10 29  1  0  0  0  0
 10 30  1  0  0  0  0
 11 12  1  0  0  0  0
 11 31  1  0  0  0  0
 11 32  1  0  0  0  0
 12 35  1  0  0  0  0
 12 36  1  0  0  0  0
 13 33  1  0  0  0  0
 13 34  1  0  0  0  0
 14 17  2  0  0  0  0
 14 18  1  0  0  0  0
 15 16  1  0  0  0  0
 16 19  1  0  0  0  0
 16 37  1  0  0  0  0
 16 38  1  0  0  0  0
 17 20  1  0  0  0  0
 18 39  1  0  0  0  0
 19 40  1  0  0  0  0
 19 41  1  0  0  0  0
 21 23  2  0  0  0  0
 21 24  1  0  0  0  0
 22 27  1  0  0  0  0
 23 25  1  0  0  0  0
 23 43  1  0  0  0  0
 24 26  2  0  0  0  0
 24 44  1  0  0  0  0
 25 28  2  0  0  0  0
 25 45  1  0  0  0  0
 26 28  1  0  0  0  0
 26 46  1  0  0  0  0
 27 47  1  0  0  0  0
 27 48  1  0  0  0  0
 27 49  1  0  0  0  0
 28 50  1  0  0  0  0
M  END
> <PUBCHEM_COMPOUND_CID>
17396224

> <PUBCHEM_COMPOUND_CANONICALIZED>
1

> <PUBCHEM_CACTVS_COMPLEXITY>
679

> <PUBCHEM_CACTVS_HBOND_ACCEPTOR>
5

> <PUBCHEM_CACTVS_HBOND_DONOR>
1

> <PUBCHEM_CACTVS_ROTATABLE_BOND>
5

> <PUBCHEM_CACTVS_SUBSKEYS>
AAADceB7sAAEAAAAAAAAAAAAAAAAAAAAAAA8QIAAAAAAAAABAAAAHgIYAAAACArBkAQywIPAAACoADVzUACSBAAhAgAaiIEIZNhIYCrA0ZHUIAhgngDIyUcQAAAAAAAAAAAAAAAAAAAAAAAAAAAAAAAAAA==

> <PUBCHEM_IUPAC_OPENEYE_NAME>
N-[3-[4-(5-chloro-6-oxo-1-phenyl-pyridazin-4-yl)piperazin-1-yl]-3-oxo-propyl]acetamide

> <PUBCHEM_IUPAC_CAS_NAME>
N-[3-[4-(5-chloro-6-oxo-1-phenyl-4-pyridazinyl)-1-piperazinyl]-3-oxopropyl]acetamide

> <PUBCHEM_IUPAC_NAME>
N-[3-[4-(5-chloro-6-oxo-1-phenylpyridazin-4-yl)piperazin-1-yl]-3-oxopropyl]acetamide

> <PUBCHEM_IUPAC_SYSTEMATIC_NAME>
N-[3-[4-(5-chloranyl-6-oxidanylidene-1-phenyl-pyridazin-4-yl)piperazin-1-yl]-3-oxidanylidene-propyl]ethanamide

> <PUBCHEM_IUPAC_TRADITIONAL_NAME>
N-[3-[4-(5-chloro-6-keto-1-phenyl-pyridazin-4-yl)piperazino]-3-keto-propyl]acetamide

> <PUBCHEM_IUPAC_INCHI>
InChI=1S/C19H22ClN5O3/c1-14(26)21-8-7-17(27)24-11-9-23(10-12-24)16-13-22-25(19(28)18(16)20)15-5-3-2-4-6-15/h2-6,13H,7-12H2,1H3,(H,21,26)

> <PUBCHEM_IUPAC_INCHIKEY>
LKSRZTJLJNDGIO-UHFFFAOYSA-N

> <PUBCHEM_XLOGP3_AA>
0.7

> <PUBCHEM_EXACT_MASS>
403.141117

> <PUBCHEM_MOLECULAR_FORMULA>
C19H22ClN5O3

> <PUBCHEM_MOLECULAR_WEIGHT>
403.86268

> <PUBCHEM_OPENEYE_CAN_SMILES>
CC(=O)NCCC(=O)N1CCN(CC1)C2=C(C(=O)N(N=C2)C3=CC=CC=C3)Cl

> <PUBCHEM_OPENEYE_ISO_SMILES>
CC(=O)NCCC(=O)N1CCN(CC1)C2=C(C(=O)N(N=C2)C3=CC=CC=C3)Cl

> <PUBCHEM_CACTVS_TPSA>
85.3

> <PUBCHEM_MONOISOTOPIC_WEIGHT>
403.141117

> <PUBCHEM_TOTAL_CHARGE>
0

> <PUBCHEM_HEAVY_ATOM_COUNT>
28

> <PUBCHEM_ATOM_DEF_STEREO_COUNT>
0

> <PUBCHEM_ATOM_UDEF_STEREO_COUNT>
0

> <PUBCHEM_BOND_DEF_STEREO_COUNT>
0

> <PUBCHEM_BOND_UDEF_STEREO_COUNT>
0

> <PUBCHEM_ISOTOPIC_ATOM_COUNT>
0

> <PUBCHEM_COMPONENT_COUNT>
1

> <PUBCHEM_CACTVS_TAUTO_COUNT>
2

> <PUBCHEM_COORDINATE_TYPE>
1
5
255

> <PUBCHEM_BONDANNOTATIONS>
14  17  8
14  18  8
17  20  8
21  23  8
21  24  8
23  25  8
24  26  8
25  28  8
26  28  8
7  20  8
7  8  8
8  18  8

$$$$

