3878
  -OEChem-06251223442D

 23 24  0     0  0  0  0  0  0999 V2000
    6.0010    1.1550    0.0000 Cl  0  0  0  0  0  0  0  0  0  0  0  0
    6.0010    3.1550    0.0000 Cl  0  0  0  0  0  0  0  0  0  0  0  0
    5.1350   -0.3450    0.0000 N   0  0  0  0  0  0  0  0  0  0  0  0
    3.4030   -1.3450    0.0000 N   0  0  0  0  0  0  0  0  0  0  0  0
    2.5369    0.1550    0.0000 N   0  0  0  0  0  0  0  0  0  0  0  0
    5.1350   -1.3450    0.0000 N   0  0  0  0  0  0  0  0  0  0  0  0
    4.2690   -2.8450    0.0000 N   0  0  0  0  0  0  0  0  0  0  0  0
    4.2690    1.1550    0.0000 C   0  0  0  0  0  0  0  0  0  0  0  0
    4.2690    0.1550    0.0000 C   0  0  0  0  0  0  0  0  0  0  0  0
    5.1350    1.6550    0.0000 C   0  0  0  0  0  0  0  0  0  0  0  0
    3.4030    1.6550    0.0000 C   0  0  0  0  0  0  0  0  0  0  0  0
    3.4030   -0.3450    0.0000 C   0  0  0  0  0  0  0  0  0  0  0  0
    5.1350    2.6550    0.0000 C   0  0  0  0  0  0  0  0  0  0  0  0
    3.4030    2.6550    0.0000 C   0  0  0  0  0  0  0  0  0  0  0  0
    4.2690    3.1550    0.0000 C   0  0  0  0  0  0  0  0  0  0  0  0
    4.2690   -1.8450    0.0000 C   0  0  0  0  0  0  0  0  0  0  0  0
    2.8660    1.3450    0.0000 H   0  0  0  0  0  0  0  0  0  0  0  0
    2.8660    2.9650    0.0000 H   0  0  0  0  0  0  0  0  0  0  0  0
    4.2690    3.7750    0.0000 H   0  0  0  0  0  0  0  0  0  0  0  0
    2.0000   -0.1550    0.0000 H   0  0  0  0  0  0  0  0  0  0  0  0
    2.5369    0.7750    0.0000 H   0  0  0  0  0  0  0  0  0  0  0  0
    4.8059   -3.1550    0.0000 H   0  0  0  0  0  0  0  0  0  0  0  0
    3.7320   -3.1550    0.0000 H   0  0  0  0  0  0  0  0  0  0  0  0
  1 10  1  0  0  0  0
  2 13  1  0  0  0  0
  3  6  2  0  0  0  0
  3  9  1  0  0  0  0
  4 12  1  0  0  0  0
  4 16  2  0  0  0  0
  5 12  1  0  0  0  0
  5 20  1  0  0  0  0
  5 21  1  0  0  0  0
  6 16  1  0  0  0  0
  7 16  1  0  0  0  0
  7 22  1  0  0  0  0
  7 23  1  0  0  0  0
  8  9  1  0  0  0  0
  8 10  2  0  0  0  0
  8 11  1  0  0  0  0
  9 12  2  0  0  0  0
 10 13  1  0  0  0  0
 11 14  2  0  0  0  0
 11 17  1  0  0  0  0
 13 15  2  0  0  0  0
 14 15  1  0  0  0  0
 14 18  1  0  0  0  0
 15 19  1  0  0  0  0
M  END
> <PUBCHEM_COMPOUND_CID>
3878

> <PUBCHEM_COMPOUND_CANONICALIZED>
1

> <PUBCHEM_CACTVS_COMPLEXITY>
242

> <PUBCHEM_CACTVS_HBOND_ACCEPTOR>
5

> <PUBCHEM_CACTVS_HBOND_DONOR>
2

> <PUBCHEM_CACTVS_ROTATABLE_BOND>
1

> <PUBCHEM_CACTVS_SUBSKEYS>
AAADcYBzgAAGAAAAAAAAAAAAAAAAAAAAAAA8QAAAAAAAAAABwAAAHAIYAAAADAqBHiAxsJZIEACiAyZiZACShC8hFaAdmmAgVpiIaKLBmxGUoABwiAJIyCcQgIAOAAAAIAABAAQAAABAAAIACAAAAAAAAA==

> <PUBCHEM_IUPAC_OPENEYE_NAME>
6-(2,3-dichlorophenyl)-1,2,4-triazine-3,5-diamine

> <PUBCHEM_IUPAC_CAS_NAME>
6-(2,3-dichlorophenyl)-1,2,4-triazine-3,5-diamine

> <PUBCHEM_IUPAC_NAME>
6-(2,3-dichlorophenyl)-1,2,4-triazine-3,5-diamine

> <PUBCHEM_IUPAC_SYSTEMATIC_NAME>
6-[2,3-bis(chloranyl)phenyl]-1,2,4-triazine-3,5-diamine

> <PUBCHEM_IUPAC_TRADITIONAL_NAME>
[3-amino-6-(2,3-dichlorophenyl)-1,2,4-triazin-5-yl]amine

> <PUBCHEM_IUPAC_INCHI>
InChI=1S/C9H7Cl2N5/c10-5-3-1-2-4(6(5)11)7-8(12)14-9(13)16-15-7/h1-3H,(H4,12,13,14,16)

> <PUBCHEM_IUPAC_INCHIKEY>
PYZRQGJRPPTADH-UHFFFAOYSA-N

> <PUBCHEM_XLOGP3_AA>
1.4

> <PUBCHEM_EXACT_MASS>
255.007851

> <PUBCHEM_MOLECULAR_FORMULA>
C9H7Cl2N5

> <PUBCHEM_MOLECULAR_WEIGHT>
256.09138

> <PUBCHEM_OPENEYE_CAN_SMILES>
C1=CC(=C(C(=C1)Cl)Cl)C2=C(N=C(N=N2)N)N

> <PUBCHEM_OPENEYE_ISO_SMILES>
C1=CC(=C(C(=C1)Cl)Cl)C2=C(N=C(N=N2)N)N

> <PUBCHEM_CACTVS_TPSA>
90.7

> <PUBCHEM_MONOISOTOPIC_WEIGHT>
255.007851

> <PUBCHEM_TOTAL_CHARGE>
0

> <PUBCHEM_HEAVY_ATOM_COUNT>
16

> <PUBCHEM_ATOM_DEF_STEREO_COUNT>
0

> <PUBCHEM_ATOM_UDEF_STEREO_COUNT>
0

> <PUBCHEM_BOND_DEF_STEREO_COUNT>
0

> <PUBCHEM_BOND_UDEF_STEREO_COUNT>
0

> <PUBCHEM_ISOTOPIC_ATOM_COUNT>
0

> <PUBCHEM_COMPONENT_COUNT>
1

> <PUBCHEM_CACTVS_TAUTO_COUNT>
9

> <PUBCHEM_COORDINATE_TYPE>
1
5
255

> <PUBCHEM_BONDANNOTATIONS>
10  13  8
11  14  8
13  15  8
14  15  8
3  6  8
3  9  8
4  12  8
4  16  8
6  16  8
8  10  8
8  11  8
9  12  8

$$$$

