   Color/Form

     * Fibrous crystals from 50% acetone
     * WHITE TO YELLOWISH WHITE, CRYSTALLINE POWDER

   from [1]HSDB

   Odor
        ODORLESS
   from [2]HSDB

   Taste
        BITTER TASTE
   from [3]HSDB

   Melting Point
        250-252 deg C
   from [4]HSDB

   Solubilities

     * Sol in acetone, alcohol.
     * 1 G SOL IN 20 ML POLYETHYLENE GLYCOL 300
     * 1 G SOL IN 125 ML PROPYLENE GLYCOL
     * 1 G SOL IN 500 ML ALCOHOL
     * FREELY SOL IN SOLN OF ALKALI HYDROXIDES & CARBONATES
     * SPARINGLY SOL IN PYRIDINE
     * VERY SLIGHTLY SOL IN WATER
     * In water, 150 mg/l @ 25 deg C.

   from [5]HSDB

   Spectral Properties
        MAX ABSORPTION (BASE): 235 NM (A= 1060, 1%, 1 CM); MAX ABSORPTION
   (BASE): 281 NM (A= 300, 1%, 1 CM)
   from [6]HSDB

   Other Chemical/Physical Properties
        IT DIFFERS CHEMICALLY FROM THE BENZOTHIAZIDE TYPE ONLY IN
   REPLACEMENT OF SULFUR ATOM BY CARBON
   from [7]HSDB

   Computed Properties
   Molecular Weight                  289.73858 [g/mol]
   Molecular Formula                 C[10]H[12]ClN[3]O[3]S
   XLogP3-AA                         1.2
   H-Bond Donor                      3
   H-Bond Acceptor                   5
   Rotatable Bond Count              2
   Tautomer Count                    7
   Exact Mass                        289.02879
   MonoIsotopic Mass                 289.02879
   Topological Polar Surface Area    110
   Heavy Atom Count                  18
   Formal Charge                     0
   Complexity                        436
   Isotope Atom Count                0
   Defined Atom Stereocenter Count   0
   Undefined Atom Stereocenter Count 1
   Defined Bond Stereocenter Count   0
   Undefined Bond Stereocenter Count 0
   Covalently-Bonded Unit Count      1
   Feature 3D Acceptor Count         3
   Feature 3D Donor Count            3
   Feature 3D Cation Count           1
   Feature 3D Hydrophobe Count       1
   Feature 3D Ring Count             2
   Effective Rotor Count             2.6
   Conformer Sampling RMSD           0.6
   CID Conformer Count               [8]6

References

   1. http://toxnet.nlm.nih.gov/cgi-bin/sis/search/r?dbs+hsdb:@term+@rn+@rel+73-49-4
   2. http://toxnet.nlm.nih.gov/cgi-bin/sis/search/r?dbs+hsdb:@term+@rn+@rel+73-49-4
   3. http://toxnet.nlm.nih.gov/cgi-bin/sis/search/r?dbs+hsdb:@term+@rn+@rel+73-49-4
   4. http://toxnet.nlm.nih.gov/cgi-bin/sis/search/r?dbs+hsdb:@term+@rn+@rel+73-49-4
   5. http://toxnet.nlm.nih.gov/cgi-bin/sis/search/r?dbs+hsdb:@term+@rn+@rel+73-49-4
   6. http://toxnet.nlm.nih.gov/cgi-bin/sis/search/r?dbs+hsdb:@term+@rn+@rel+73-49-4
   7. http://toxnet.nlm.nih.gov/cgi-bin/sis/search/r?dbs+hsdb:@term+@rn+@rel+73-49-4
   8. http://pubchem.ncbi.nlm.nih.gov/vw3d/vw3d.cgi?cid=6307
