17395836
  -OEChem-06241222522D

 46 49  0     1  0  0  0  0  0999 V2000
    9.8444    1.3502    0.0000 S   0  0  0  0  0  0  0  0  0  0  0  0
    4.2788    1.7504    0.0000 O   0  0  0  0  0  0  0  0  0  0  0  0
    6.3479   -1.0975    0.0000 O   0  0  0  0  0  0  0  0  0  0  0  0
    7.3659   -0.3232    0.0000 O   0  0  0  0  0  0  0  0  0  0  0  0
    4.5878   -0.8187    0.0000 N   0  0  0  0  0  0  0  0  0  0  0  0
    5.5388    0.4903    0.0000 N   0  0  0  0  0  0  0  0  0  0  0  0
    8.0704    1.2591    0.0000 N   0  0  0  0  0  0  0  0  0  0  0  0
    9.1898   -0.1201    0.0000 N   0  0  0  0  0  0  0  0  0  0  0  0
    4.0000   -0.0097    0.0000 C   0  0  3  0  0  0  0  0  0  0  0  0
    3.5000   -0.8757    0.0000 C   0  0  3  0  0  0  0  0  0  0  0  0
    3.5000    0.8563    0.0000 C   0  0  0  0  0  0  0  0  0  0  0  0
    2.5000   -0.8757    0.0000 C   0  0  0  0  0  0  0  0  0  0  0  0
    2.5000    0.8563    0.0000 C   0  0  0  0  0  0  0  0  0  0  0  0
    2.0000   -0.0097    0.0000 C   0  0  0  0  0  0  0  0  0  0  0  0
    4.5878    0.7993    0.0000 C   0  0  0  0  0  0  0  0  0  0  0  0
    3.5000   -1.8757    0.0000 C   0  0  0  0  0  0  0  0  0  0  0  0
    5.5388   -0.5097    0.0000 C   0  0  0  0  0  0  0  0  0  0  0  0
    6.3479    1.0781    0.0000 C   0  0  0  0  0  0  0  0  0  0  0  0
    7.2614    0.6713    0.0000 C   0  0  0  0  0  0  0  0  0  0  0  0
    8.9840    0.8524    0.0000 C   0  0  0  0  0  0  0  0  0  0  0  0
   10.5849    0.6869    0.0000 C   0  0  0  0  0  0  0  0  0  0  0  0
   10.1782   -0.2266    0.0000 C   0  0  0  0  0  0  0  0  0  0  0  0
   11.5794    0.7915    0.0000 C   0  0  0  0  0  0  0  0  0  0  0  0
   10.7660   -1.0356    0.0000 C   0  0  0  0  0  0  0  0  0  0  0  0
   12.1672   -0.0176    0.0000 C   0  0  0  0  0  0  0  0  0  0  0  0
   11.7605   -0.9311    0.0000 C   0  0  0  0  0  0  0  0  0  0  0  0
    4.0989   -1.0362    0.0000 H   0  0  0  0  0  0  0  0  0  0  0  0
    4.0826    1.0684    0.0000 H   0  0  0  0  0  0  0  0  0  0  0  0
    3.3923    1.4669    0.0000 H   0  0  0  0  0  0  0  0  0  0  0  0
    1.9174   -1.0878    0.0000 H   0  0  0  0  0  0  0  0  0  0  0  0
    2.6077   -1.4863    0.0000 H   0  0  0  0  0  0  0  0  0  0  0  0
    2.6077    1.4669    0.0000 H   0  0  0  0  0  0  0  0  0  0  0  0
    1.9174    1.0684    0.0000 H   0  0  0  0  0  0  0  0  0  0  0  0
    1.5250    0.3888    0.0000 H   0  0  0  0  0  0  0  0  0  0  0  0
    1.5250   -0.4082    0.0000 H   0  0  0  0  0  0  0  0  0  0  0  0
    4.7168   -1.4252    0.0000 H   0  0  0  0  0  0  0  0  0  0  0  0
    2.8800   -1.8757    0.0000 H   0  0  0  0  0  0  0  0  0  0  0  0
    3.5000   -2.4957    0.0000 H   0  0  0  0  0  0  0  0  0  0  0  0
    4.1200   -1.8757    0.0000 H   0  0  0  0  0  0  0  0  0  0  0  0
    6.6946    1.5921    0.0000 H   0  0  0  0  0  0  0  0  0  0  0  0
    5.9019    1.5088    0.0000 H   0  0  0  0  0  0  0  0  0  0  0  0
    8.0056    1.8757    0.0000 H   0  0  0  0  0  0  0  0  0  0  0  0
   11.8316    1.3578    0.0000 H   0  0  0  0  0  0  0  0  0  0  0  0
   10.5138   -1.6020    0.0000 H   0  0  0  0  0  0  0  0  0  0  0  0
   12.7838    0.0472    0.0000 H   0  0  0  0  0  0  0  0  0  0  0  0
   12.1249   -1.4327    0.0000 H   0  0  0  0  0  0  0  0  0  0  0  0
  1 20  1  0  0  0  0
  1 21  1  0  0  0  0
  2 15  2  0  0  0  0
  3 17  2  0  0  0  0
  4 19  2  0  0  0  0
  5  9  1  0  0  0  0
  5 17  1  0  0  0  0
  5 36  1  0  0  0  0
  6 15  1  0  0  0  0
  6 17  1  0  0  0  0
  6 18  1  0  0  0  0
  7 19  1  0  0  0  0
  7 20  1  0  0  0  0
  7 42  1  0  0  0  0
  8 20  2  0  0  0  0
  8 22  1  0  0  0  0
  9 10  1  0  0  0  0
  9 11  1  0  0  0  0
  9 15  1  0  0  0  0
 10 12  1  0  0  0  0
 10 16  1  0  0  0  0
 10 27  1  0  0  0  0
 11 13  1  0  0  0  0
 11 28  1  0  0  0  0
 11 29  1  0  0  0  0
 12 14  1  0  0  0  0
 12 30  1  0  0  0  0
 12 31  1  0  0  0  0
 13 14  1  0  0  0  0
 13 32  1  0  0  0  0
 13 33  1  0  0  0  0
 14 34  1  0  0  0  0
 14 35  1  0  0  0  0
 16 37  1  0  0  0  0
 16 38  1  0  0  0  0
 16 39  1  0  0  0  0
 18 19  1  0  0  0  0
 18 40  1  0  0  0  0
 18 41  1  0  0  0  0
 21 22  1  0  0  0  0
 21 23  2  0  0  0  0
 22 24  2  0  0  0  0
 23 25  1  0  0  0  0
 23 43  1  0  0  0  0
 24 26  1  0  0  0  0
 24 44  1  0  0  0  0
 25 26  2  0  0  0  0
 25 45  1  0  0  0  0
 26 46  1  0  0  0  0
M  END
> <PUBCHEM_COMPOUND_CID>
17395836

> <PUBCHEM_COMPOUND_CANONICALIZED>
1

> <PUBCHEM_CACTVS_COMPLEXITY>
615

> <PUBCHEM_CACTVS_HBOND_ACCEPTOR>
5

> <PUBCHEM_CACTVS_HBOND_DONOR>
2

> <PUBCHEM_CACTVS_ROTATABLE_BOND>
3

> <PUBCHEM_CACTVS_SUBSKEYS>
AAADceB7sABAAAAAAAAAAAAAAAAAAWLAAAAwYAAAAAAAAFgB8AAAHgQQAAAADYjB1gQz0bPIEAisASVydACD8KlhCjlJmD24ZJiIYLLgmbGUIAholyLIyCcYiICOgAAAAAAAAQAAAAAAACQCAAAAAAAAAA==

> <PUBCHEM_IUPAC_OPENEYE_NAME>
N-(1,3-benzothiazol-2-yl)-2-(10-methyl-2,4-dioxo-1,3-diazaspiro[4.5]decan-3-yl)acetamide

> <PUBCHEM_IUPAC_CAS_NAME>
N-(1,3-benzothiazol-2-yl)-2-(10-methyl-2,4-dioxo-1,3-diazaspiro[4.5]decan-3-yl)acetamide

> <PUBCHEM_IUPAC_NAME>
N-(1,3-benzothiazol-2-yl)-2-(10-methyl-2,4-dioxo-1,3-diazaspiro[4.5]decan-3-yl)acetamide

> <PUBCHEM_IUPAC_SYSTEMATIC_NAME>
N-(1,3-benzothiazol-2-yl)-2-[10-methyl-2,4-bis(oxidanylidene)-1,3-diazaspiro[4.5]decan-3-yl]ethanamide

> <PUBCHEM_IUPAC_TRADITIONAL_NAME>
N-(1,3-benzothiazol-2-yl)-2-(2,4-diketo-10-methyl-1,3-diazaspiro[4.5]decan-3-yl)acetamide

> <PUBCHEM_IUPAC_INCHI>
InChI=1S/C18H20N4O3S/c1-11-6-4-5-9-18(11)15(24)22(17(25)21-18)10-14(23)20-16-19-12-7-2-3-8-13(12)26-16/h2-3,7-8,11H,4-6,9-10H2,1H3,(H,21,25)(H,19,20,23)

> <PUBCHEM_IUPAC_INCHIKEY>
WRTUUGHVPSVVKV-UHFFFAOYSA-N

> <PUBCHEM_XLOGP3_AA>
2.9

> <PUBCHEM_EXACT_MASS>
372.125612

> <PUBCHEM_MOLECULAR_FORMULA>
C18H20N4O3S

> <PUBCHEM_MOLECULAR_WEIGHT>
372.4414

> <PUBCHEM_OPENEYE_CAN_SMILES>
CC1CCCCC12C(=O)N(C(=O)N2)CC(=O)NC3=NC4=CC=CC=C4S3

> <PUBCHEM_OPENEYE_ISO_SMILES>
CC1CCCCC12C(=O)N(C(=O)N2)CC(=O)NC3=NC4=CC=CC=C4S3

> <PUBCHEM_CACTVS_TPSA>
120

> <PUBCHEM_MONOISOTOPIC_WEIGHT>
372.125612

> <PUBCHEM_TOTAL_CHARGE>
0

> <PUBCHEM_HEAVY_ATOM_COUNT>
26

> <PUBCHEM_ATOM_DEF_STEREO_COUNT>
0

> <PUBCHEM_ATOM_UDEF_STEREO_COUNT>
2

> <PUBCHEM_BOND_DEF_STEREO_COUNT>
0

> <PUBCHEM_BOND_UDEF_STEREO_COUNT>
0

> <PUBCHEM_ISOTOPIC_ATOM_COUNT>
0

> <PUBCHEM_COMPONENT_COUNT>
1

> <PUBCHEM_CACTVS_TAUTO_COUNT>
10

> <PUBCHEM_COORDINATE_TYPE>
1
5
255

> <PUBCHEM_BONDANNOTATIONS>
1  20  8
1  21  8
10  16  3
21  22  8
21  23  8
22  24  8
23  25  8
24  26  8
25  26  8
8  20  8
8  22  8
9  11  3

$$$$

