443293
  -OEChem-07051213012D

 42 44  0     0  0  0  0  0  0999 V2000
    6.5443   -1.1497    0.0000 S   0  0  0  0  0  0  0  0  0  0  0  0
    3.0000   -2.3450    0.0000 S   0  0  0  0  0  0  0  0  0  0  0  0
    3.0000   -1.3450    0.0000 O   0  0  0  0  0  0  0  0  0  0  0  0
    3.0000   -3.3450    0.0000 O   0  0  0  0  0  0  0  0  0  0  0  0
    2.0000   -2.3450    0.0000 O   0  0  0  0  0  0  0  0  0  0  0  0
    4.0000   -2.3450    0.0000 O   0  0  0  0  0  0  0  0  0  0  0  0
    6.5443    0.4597    0.0000 N   0  0  0  0  0  0  0  0  0  0  0  0
    8.1279   -0.3450    0.0000 N   0  0  0  0  0  0  0  0  0  0  0  0
    2.1340    2.1550    0.0000 N   0  0  0  0  0  0  0  0  0  0  0  0
    4.7320    0.6550    0.0000 C   0  0  0  0  0  0  0  0  0  0  0  0
    3.8660    0.1550    0.0000 C   0  0  0  0  0  0  0  0  0  0  0  0
    5.5981    0.1550    0.0000 C   0  0  0  0  0  0  0  0  0  0  0  0
    5.5981   -0.8450    0.0000 C   0  0  0  0  0  0  0  0  0  0  0  0
    4.7320   -1.3450    0.0000 C   0  0  0  0  0  0  0  0  0  0  0  0
    4.7320    1.6550    0.0000 C   0  0  0  0  0  0  0  0  0  0  0  0
    3.8660   -0.8450    0.0000 C   0  0  0  0  0  0  0  0  0  0  0  0
    3.0000    0.6550    0.0000 C   0  0  0  0  0  0  0  0  0  0  0  0
    3.8660    2.1550    0.0000 C   0  0  0  0  0  0  0  0  0  0  0  0
    4.7320   -2.3450    0.0000 C   0  0  0  0  0  0  0  0  0  0  0  0
    7.1279   -0.3450    0.0000 C   0  0  0  0  0  0  0  0  0  0  0  0
    3.8660    3.1550    0.0000 C   0  0  0  0  0  0  0  0  0  0  0  0
    3.0000    1.6550    0.0000 C   0  0  0  0  0  0  0  0  0  0  0  0
    3.0000    3.6550    0.0000 C   0  0  0  0  0  0  0  0  0  0  0  0
    8.6279   -1.2110    0.0000 C   0  0  0  0  0  0  0  0  0  0  0  0
    2.1340    3.1550    0.0000 C   0  0  0  0  0  0  0  0  0  0  0  0
    5.3426    1.5473    0.0000 H   0  0  0  0  0  0  0  0  0  0  0  0
    4.9441    2.2376    0.0000 H   0  0  0  0  0  0  0  0  0  0  0  0
    3.3100    1.1919    0.0000 H   0  0  0  0  0  0  0  0  0  0  0  0
    2.4631    0.9650    0.0000 H   0  0  0  0  0  0  0  0  0  0  0  0
    2.6900    0.1181    0.0000 H   0  0  0  0  0  0  0  0  0  0  0  0
    4.1120   -2.3450    0.0000 H   0  0  0  0  0  0  0  0  0  0  0  0
    4.7320   -2.9650    0.0000 H   0  0  0  0  0  0  0  0  0  0  0  0
    5.3520   -2.3450    0.0000 H   0  0  0  0  0  0  0  0  0  0  0  0
    4.4030    3.4650    0.0000 H   0  0  0  0  0  0  0  0  0  0  0  0
    3.0000    1.0350    0.0000 H   0  0  0  0  0  0  0  0  0  0  0  0
    8.4379    0.1919    0.0000 H   0  0  0  0  0  0  0  0  0  0  0  0
    3.0000    4.2750    0.0000 H   0  0  0  0  0  0  0  0  0  0  0  0
    8.0910   -1.5210    0.0000 H   0  0  0  0  0  0  0  0  0  0  0  0
    8.9379   -1.7480    0.0000 H   0  0  0  0  0  0  0  0  0  0  0  0
    9.1648   -0.9010    0.0000 H   0  0  0  0  0  0  0  0  0  0  0  0
    1.5970    3.4650    0.0000 H   0  0  0  0  0  0  0  0  0  0  0  0
    2.4631   -3.6550    0.0000 H   0  0  0  0  0  0  0  0  0  0  0  0
  1 13  1  0  0  0  0
  1 20  1  0  0  0  0
  2  3  1  0  0  0  0
  2  4  1  0  0  0  0
  2  5  2  0  0  0  0
  2  6  2  0  0  0  0
  3 16  1  0  0  0  0
  4 42  1  0  0  0  0
  7 12  1  0  0  0  0
  7 20  2  0  0  0  0
  8 20  1  0  0  0  0
  8 24  1  0  0  0  0
  8 36  1  0  0  0  0
  9 22  1  0  0  0  0
  9 25  2  0  0  0  0
 10 11  2  0  0  0  0
 10 12  1  0  0  0  0
 10 15  1  0  0  0  0
 11 16  1  0  0  0  0
 11 17  1  0  0  0  0
 12 13  2  0  0  0  0
 13 14  1  0  0  0  0
 14 16  2  0  0  0  0
 14 19  1  0  0  0  0
 15 18  1  0  0  0  0
 15 26  1  0  0  0  0
 15 27  1  0  0  0  0
 17 28  1  0  0  0  0
 17 29  1  0  0  0  0
 17 30  1  0  0  0  0
 18 21  1  0  0  0  0
 18 22  2  0  0  0  0
 19 31  1  0  0  0  0
 19 32  1  0  0  0  0
 19 33  1  0  0  0  0
 21 23  2  0  0  0  0
 21 34  1  0  0  0  0
 22 35  1  0  0  0  0
 23 25  1  0  0  0  0
 23 37  1  0  0  0  0
 24 38  1  0  0  0  0
 24 39  1  0  0  0  0
 24 40  1  0  0  0  0
 25 41  1  0  0  0  0
M  END
> <PUBCHEM_COMPOUND_CID>
443293

> <PUBCHEM_COMPOUND_CANONICALIZED>
1

> <PUBCHEM_CACTVS_COMPLEXITY>
556

> <PUBCHEM_CACTVS_HBOND_ACCEPTOR>
8

> <PUBCHEM_CACTVS_HBOND_DONOR>
2

> <PUBCHEM_CACTVS_ROTATABLE_BOND>
5

> <PUBCHEM_CACTVS_SUBSKEYS>
AAADceB7OABgAAAAAAAAAAAAAAAAAWAAAAA8QAAAAAAAAFgB/AAAHgQQCAAADAzB3gQ/17LIEIikAzRnZDCD8KlxKjkJ2LQ8bJiIJuLgkZOEMAhswBPIyCewwPAO0EADxAAeAQCggAeIADwCAAAAAAAAAA==

> <PUBCHEM_IUPAC_OPENEYE_NAME>
[5,7-dimethyl-2-(methylamino)-4-(3-pyridylmethyl)-1,3-benzothiazol-6-yl] hydrogen sulfate

> <PUBCHEM_IUPAC_CAS_NAME>
sulfuric acid [5,7-dimethyl-2-(methylamino)-4-(3-pyridinylmethyl)-1,3-benzothiazol-6-yl] ester

> <PUBCHEM_IUPAC_NAME>
[5,7-dimethyl-2-(methylamino)-4-(pyridin-3-ylmethyl)-1,3-benzothiazol-6-yl] hydrogen sulfate

> <PUBCHEM_IUPAC_SYSTEMATIC_NAME>
[5,7-dimethyl-2-(methylamino)-4-(pyridin-3-ylmethyl)-1,3-benzothiazol-6-yl] hydrogen sulfate

> <PUBCHEM_IUPAC_TRADITIONAL_NAME>
sulfuric acid [5,7-dimethyl-2-(methylamino)-4-(3-pyridylmethyl)-1,3-benzothiazol-6-yl] ester

> <PUBCHEM_IUPAC_INCHI>
InChI=1S/C16H17N3O4S2/c1-9-12(7-11-5-4-6-18-8-11)13-15(24-16(17-3)19-13)10(2)14(9)23-25(20,21)22/h4-6,8H,7H2,1-3H3,(H,17,19)(H,20,21,22)

> <PUBCHEM_IUPAC_INCHIKEY>
LPZDTQCWCMPFND-UHFFFAOYSA-N

> <PUBCHEM_XLOGP3_AA>
3.3

> <PUBCHEM_EXACT_MASS>
379.066048

> <PUBCHEM_MOLECULAR_FORMULA>
C16H17N3O4S2

> <PUBCHEM_MOLECULAR_WEIGHT>
379.45388

> <PUBCHEM_OPENEYE_CAN_SMILES>
CC1=C(C2=C(C(=C1OS(=O)(=O)O)C)SC(=N2)NC)CC3=CN=CC=C3

> <PUBCHEM_OPENEYE_ISO_SMILES>
CC1=C(C2=C(C(=C1OS(=O)(=O)O)C)SC(=N2)NC)CC3=CN=CC=C3

> <PUBCHEM_CACTVS_TPSA>
138

> <PUBCHEM_MONOISOTOPIC_WEIGHT>
379.066048

> <PUBCHEM_TOTAL_CHARGE>
0

> <PUBCHEM_HEAVY_ATOM_COUNT>
25

> <PUBCHEM_ATOM_DEF_STEREO_COUNT>
0

> <PUBCHEM_ATOM_UDEF_STEREO_COUNT>
0

> <PUBCHEM_BOND_DEF_STEREO_COUNT>
0

> <PUBCHEM_BOND_UDEF_STEREO_COUNT>
0

> <PUBCHEM_ISOTOPIC_ATOM_COUNT>
0

> <PUBCHEM_COMPONENT_COUNT>
1

> <PUBCHEM_CACTVS_TAUTO_COUNT>
2

> <PUBCHEM_COORDINATE_TYPE>
1
5
255

> <PUBCHEM_BONDANNOTATIONS>
1  13  8
1  20  8
10  11  8
10  12  8
11  16  8
12  13  8
13  14  8
14  16  8
18  21  8
18  22  8
21  23  8
23  25  8
7  12  8
7  20  8
9  22  8
9  25  8

$$$$

