7586
  -OEChem-06261202112D

 30 32  0     1  0  0  0  0  0999 V2000
    6.9641    3.8660    0.0000 O   0  0  0  0  0  0  0  0  0  0  0  0
    2.5000   -3.8660    0.0000 O   0  0  0  0  0  0  0  0  0  0  0  0
    5.5981    1.5000    0.0000 O   0  0  0  0  0  0  0  0  0  0  0  0
    3.8660   -1.5000    0.0000 O   0  0  0  0  0  0  0  0  0  0  0  0
    6.4641    3.0000    0.0000 C   0  0  3  0  0  0  0  0  0  0  0  0
    3.0000   -3.0000    0.0000 C   0  0  3  0  0  0  0  0  0  0  0  0
    5.9641    3.8660    0.0000 C   0  0  0  0  0  0  0  0  0  0  0  0
    2.0000   -3.0000    0.0000 C   0  0  0  0  0  0  0  0  0  0  0  0
    6.4641    2.0000    0.0000 C   0  0  0  0  0  0  0  0  0  0  0  0
    3.8660   -2.5000    0.0000 C   0  0  0  0  0  0  0  0  0  0  0  0
    5.5981    0.5000    0.0000 C   0  0  0  0  0  0  0  0  0  0  0  0
    4.7320   -1.0000    0.0000 C   0  0  0  0  0  0  0  0  0  0  0  0
    4.7320    0.0000    0.0000 C   0  0  0  0  0  0  0  0  0  0  0  0
    6.4641    0.0000    0.0000 C   0  0  0  0  0  0  0  0  0  0  0  0
    5.5981   -1.5000    0.0000 C   0  0  0  0  0  0  0  0  0  0  0  0
    6.4641   -1.0000    0.0000 C   0  0  0  0  0  0  0  0  0  0  0  0
    7.0630    2.8395    0.0000 H   0  0  0  0  0  0  0  0  0  0  0  0
    3.4384   -3.4384    0.0000 H   0  0  0  0  0  0  0  0  0  0  0  0
    5.8564    4.4766    0.0000 H   0  0  0  0  0  0  0  0  0  0  0  0
    5.3815    3.6540    0.0000 H   0  0  0  0  0  0  0  0  0  0  0  0
    1.8923   -2.3894    0.0000 H   0  0  0  0  0  0  0  0  0  0  0  0
    1.4174   -3.2120    0.0000 H   0  0  0  0  0  0  0  0  0  0  0  0
    6.6762    1.4174    0.0000 H   0  0  0  0  0  0  0  0  0  0  0  0
    7.0747    2.1077    0.0000 H   0  0  0  0  0  0  0  0  0  0  0  0
    4.0781   -3.0826    0.0000 H   0  0  0  0  0  0  0  0  0  0  0  0
    4.4766   -2.3923    0.0000 H   0  0  0  0  0  0  0  0  0  0  0  0
    4.1951    0.3100    0.0000 H   0  0  0  0  0  0  0  0  0  0  0  0
    7.0010    0.3100    0.0000 H   0  0  0  0  0  0  0  0  0  0  0  0
    5.5981   -2.1200    0.0000 H   0  0  0  0  0  0  0  0  0  0  0  0
    7.0010   -1.3100    0.0000 H   0  0  0  0  0  0  0  0  0  0  0  0
  1  5  1  0  0  0  0
  1  7  1  0  0  0  0
  2  6  1  0  0  0  0
  2  8  1  0  0  0  0
  3  9  1  0  0  0  0
  3 11  1  0  0  0  0
  4 10  1  0  0  0  0
  4 12  1  0  0  0  0
  5  7  1  0  0  0  0
  5  9  1  0  0  0  0
  5 17  1  0  0  0  0
  6  8  1  0  0  0  0
  6 10  1  0  0  0  0
  6 18  1  0  0  0  0
  7 19  1  0  0  0  0
  7 20  1  0  0  0  0
  8 21  1  0  0  0  0
  8 22  1  0  0  0  0
  9 23  1  0  0  0  0
  9 24  1  0  0  0  0
 10 25  1  0  0  0  0
 10 26  1  0  0  0  0
 11 13  2  0  0  0  0
 11 14  1  0  0  0  0
 12 13  1  0  0  0  0
 12 15  2  0  0  0  0
 13 27  1  0  0  0  0
 14 16  2  0  0  0  0
 14 28  1  0  0  0  0
 15 16  1  0  0  0  0
 15 29  1  0  0  0  0
 16 30  1  0  0  0  0
M  END
> <PUBCHEM_COMPOUND_CID>
7586

> <PUBCHEM_COMPOUND_CANONICALIZED>
1

> <PUBCHEM_CACTVS_COMPLEXITY>
211

> <PUBCHEM_CACTVS_HBOND_ACCEPTOR>
4

> <PUBCHEM_CACTVS_HBOND_DONOR>
0

> <PUBCHEM_CACTVS_ROTATABLE_BOND>
6

> <PUBCHEM_CACTVS_SUBSKEYS>
AAADccBwOAAAAAAAAAAAAAAAEiQAAAAAAAAwAAAAAAAAAAABAAAAGgAAAAAACBSgkAIwBoAABACAACBCAAACCAAgIAAIiAAGCIgNJyKEMRqCOCClwBUKqAeAYAwAAAAACAAAAAAAAAAQAAAAAAAAAAAAAA==

> <PUBCHEM_IUPAC_OPENEYE_NAME>
2-[[3-(oxiran-2-ylmethoxy)phenoxy]methyl]oxirane

> <PUBCHEM_IUPAC_CAS_NAME>
2-[[3-(2-oxiranylmethoxy)phenoxy]methyl]oxirane

> <PUBCHEM_IUPAC_NAME>
2-[[3-(oxiran-2-ylmethoxy)phenoxy]methyl]oxirane

> <PUBCHEM_IUPAC_SYSTEMATIC_NAME>
2-[[3-(oxiran-2-ylmethoxy)phenoxy]methyl]oxirane

> <PUBCHEM_IUPAC_TRADITIONAL_NAME>
2-[(3-glycidoxyphenoxy)methyl]oxirane

> <PUBCHEM_IUPAC_INCHI>
InChI=1S/C12H14O4/c1-2-9(13-5-11-7-15-11)4-10(3-1)14-6-12-8-16-12/h1-4,11-12H,5-8H2

> <PUBCHEM_IUPAC_INCHIKEY>
WPYCRFCQABTEKC-UHFFFAOYSA-N

> <PUBCHEM_XLOGP3_AA>
1.2

> <PUBCHEM_EXACT_MASS>
222.089209

> <PUBCHEM_MOLECULAR_FORMULA>
C12H14O4

> <PUBCHEM_MOLECULAR_WEIGHT>
222.23716

> <PUBCHEM_OPENEYE_CAN_SMILES>
C1C(O1)COC2=CC(=CC=C2)OCC3CO3

> <PUBCHEM_OPENEYE_ISO_SMILES>
C1C(O1)COC2=CC(=CC=C2)OCC3CO3

> <PUBCHEM_CACTVS_TPSA>
43.5

> <PUBCHEM_MONOISOTOPIC_WEIGHT>
222.089209

> <PUBCHEM_TOTAL_CHARGE>
0

> <PUBCHEM_HEAVY_ATOM_COUNT>
16

> <PUBCHEM_ATOM_DEF_STEREO_COUNT>
0

> <PUBCHEM_ATOM_UDEF_STEREO_COUNT>
2

> <PUBCHEM_BOND_DEF_STEREO_COUNT>
0

> <PUBCHEM_BOND_UDEF_STEREO_COUNT>
0

> <PUBCHEM_ISOTOPIC_ATOM_COUNT>
0

> <PUBCHEM_COMPONENT_COUNT>
1

> <PUBCHEM_CACTVS_TAUTO_COUNT>
1

> <PUBCHEM_COORDINATE_TYPE>
1
5
255

> <PUBCHEM_BONDANNOTATIONS>
11  13  8
11  14  8
12  13  8
12  15  8
14  16  8
15  16  8
5  9  3
6  10  3

$$$$

