   Color/Form

     * RED BLUE FLUORESCENT RHOMBIC PLATES FROM BENZENE, ACETIC ACID
     * ORTHORHOMBIC BIPYRAMIDAL PLATES FROM BENZENE
     * COLORLESS PLATELETS WITH BLUE FLUORESCENCE

   from [1]HSDB

   Boiling Point
        448 DEG C
   from [2]HSDB

   Melting Point
        258.2 DEG C
   from [3]HSDB

   Density/Specific Gravity
        1.274 @ 20 DEG C/4 DEG C
   from [4]HSDB

   Octanol/Water Partition Coefficient
        log Kow = 5.73
   from [5]HSDB

   Solubilities

     * Slightly soluble in ethanol, ethyl ether, and acetone.
     * Slightly soluble in alcohol, ether, carbon bisulfide, and glacial
       acetic acid. At 25 deg C, 1 g/1300 ml abs alcohol, 480 ml toluene;
       About 5% is soluble in toluene at 100 deg C. Moderately soluble in
       boiling benzene. Generally only slightly soluble in cold organic
       solvents, but fairly soluble in these solvents when hot, including
       glacial acetic acid.
     * SOLUBILITY IN WATER AT 25 DEG C: 0.0020 + OR - 0.0002 MG/L
     * In water, 1.89X10-3 mg/l at 25 deg C.

   from [6]HSDB

   Spectral Properties

     * MAX ABSORPTION (ALCOHOL): 222 NM (LOG E= 4.55); 258 NM (LOG E=
       4.96); 268 NM (LOG E= 5.20); 295 NM (LOG E= 4.08); 353 NM (LOG E=
       2.57); 361 NM (LOG E= 2.80); 344 NM (LOG E= 2.81); 320 NM (LOG E=
       4.12)
     * SADTLER REFERENCE NUMBER: 1188 (IR, PRISM); 221 (IR, GRATING)
     * Intense mass spectral peaks: 228 m/z (100%), 226 m/z (21%), 229 m/z
       (20%), 114 m/z (15%)
     * IR: 2610 (Coblentz Society Spectral Collection)
     * UV: 351 (Sadtler Research Laboratories Spectral Collection)
     * MASS: 1622 (Atlas of Mass Spectral Data, John Wiley & Sons, New
       York)

   from [7]HSDB

   Vapor Pressure
        6.23X10-9 mm Hg at 25 deg C
   from [8]HSDB

   Other Chemical/Physical Properties

     * STRONG FLUORESCENCE UNDER ULTRAVIOLET LIGHT
     * SUBLIMES EASILY UNDER A VACUUM
     * CHRYSENE FORMS CRYSTALLINE COMPLEXES WITH PICRIC ACID (ORANGE-RED
       NEEDLES FROM BENZENE, MELTING-POINT 174-175 DEG C CORRECTED),
       S-TRINITROBENZENE (188.5-189.5 DEG C CORRECTED) &
       2,4,7-TRINITROFLUORENONE (YELLOW NEEDLES FROM ALCOHOL, MELTING
       POINT 247.8-249 DEG C)
     * Vapor pressure: 6.3X10-7 mm Hg

   from [9]HSDB

   Computed Properties
   Molecular Weight                  228.28788 [g/mol]
   Molecular Formula                 C[18]H[12]
   XLogP3                            5.7
   H-Bond Donor                      0
   H-Bond Acceptor                   0
   Rotatable Bond Count              0
   Exact Mass                        228.0939
   MonoIsotopic Mass                 228.0939
   Topological Polar Surface Area    0
   Heavy Atom Count                  18
   Formal Charge                     0
   Complexity                        264
   Isotope Atom Count                0
   Defined Atom Stereocenter Count   0
   Undefined Atom Stereocenter Count 0
   Defined Bond Stereocenter Count   0
   Undefined Bond Stereocenter Count 0
   Covalently-Bonded Unit Count      1
   Feature 3D Ring Count             4
   Effective Rotor Count             0
   Conformer Sampling RMSD           0.4
   CID Conformer Count               [10]1

References

   1. http://toxnet.nlm.nih.gov/cgi-bin/sis/search/r?dbs+hsdb:@term+@rn+@rel+218-01-9
   2. http://toxnet.nlm.nih.gov/cgi-bin/sis/search/r?dbs+hsdb:@term+@rn+@rel+218-01-9
   3. http://toxnet.nlm.nih.gov/cgi-bin/sis/search/r?dbs+hsdb:@term+@rn+@rel+218-01-9
   4. http://toxnet.nlm.nih.gov/cgi-bin/sis/search/r?dbs+hsdb:@term+@rn+@rel+218-01-9
   5. http://toxnet.nlm.nih.gov/cgi-bin/sis/search/r?dbs+hsdb:@term+@rn+@rel+218-01-9
   6. http://toxnet.nlm.nih.gov/cgi-bin/sis/search/r?dbs+hsdb:@term+@rn+@rel+218-01-9
   7. http://toxnet.nlm.nih.gov/cgi-bin/sis/search/r?dbs+hsdb:@term+@rn+@rel+218-01-9
   8. http://toxnet.nlm.nih.gov/cgi-bin/sis/search/r?dbs+hsdb:@term+@rn+@rel+218-01-9
   9. http://toxnet.nlm.nih.gov/cgi-bin/sis/search/r?dbs+hsdb:@term+@rn+@rel+218-01-9
  10. http://pubchem.ncbi.nlm.nih.gov/vw3d/vw3d.cgi?cid=9171
