5315669
  -OEChem-07051213112D

 27 27  0     1  0  0  0  0  0999 V2000
    6.3301    2.6900    0.0000 O   0  0  0  0  0  0  0  0  0  0  0  0
    5.4641    2.1900    0.0000 C   0  0  3  0  0  0  0  0  0  0  0  0
    5.4641    1.1900    0.0000 C   0  0  0  0  0  0  0  0  0  0  0  0
    2.8660   -1.3100    0.0000 C   0  0  0  0  0  0  0  0  0  0  0  0
    2.8660   -0.3100    0.0000 C   0  0  0  0  0  0  0  0  0  0  0  0
    4.5981    2.6900    0.0000 C   0  0  0  0  0  0  0  0  0  0  0  0
    2.0000   -1.8100    0.0000 C   0  0  0  0  0  0  0  0  0  0  0  0
    3.7320   -1.8100    0.0000 C   0  0  0  0  0  0  0  0  0  0  0  0
    4.5981    0.6900    0.0000 C   0  0  0  0  0  0  0  0  0  0  0  0
    2.0000   -2.8100    0.0000 C   0  0  0  0  0  0  0  0  0  0  0  0
    3.7320   -2.8100    0.0000 C   0  0  0  0  0  0  0  0  0  0  0  0
    3.7320    0.1900    0.0000 C   0  0  0  0  0  0  0  0  0  0  0  0
    2.8660   -3.3100    0.0000 C   0  0  0  0  0  0  0  0  0  0  0  0
    5.4641    3.0400    0.0000 H   0  0  0  0  0  0  0  0  0  0  0  0
    5.6762    0.6074    0.0000 H   0  0  0  0  0  0  0  0  0  0  0  0
    6.0747    1.2977    0.0000 H   0  0  0  0  0  0  0  0  0  0  0  0
    2.6540    0.2726    0.0000 H   0  0  0  0  0  0  0  0  0  0  0  0
    2.2554   -0.4177    0.0000 H   0  0  0  0  0  0  0  0  0  0  0  0
    4.9081    3.2269    0.0000 H   0  0  0  0  0  0  0  0  0  0  0  0
    4.0611    3.0000    0.0000 H   0  0  0  0  0  0  0  0  0  0  0  0
    4.2881    2.1531    0.0000 H   0  0  0  0  0  0  0  0  0  0  0  0
    1.4631   -1.5000    0.0000 H   0  0  0  0  0  0  0  0  0  0  0  0
    4.2690   -1.5000    0.0000 H   0  0  0  0  0  0  0  0  0  0  0  0
    1.4631   -3.1200    0.0000 H   0  0  0  0  0  0  0  0  0  0  0  0
    4.2690   -3.1200    0.0000 H   0  0  0  0  0  0  0  0  0  0  0  0
    2.8660   -3.9300    0.0000 H   0  0  0  0  0  0  0  0  0  0  0  0
    6.3301    3.3100    0.0000 H   0  0  0  0  0  0  0  0  0  0  0  0
  1  2  1  0  0  0  0
  1 27  1  0  0  0  0
  2  3  1  0  0  0  0
  2  6  1  0  0  0  0
  2 14  1  0  0  0  0
  3  9  1  0  0  0  0
  3 15  1  0  0  0  0
  3 16  1  0  0  0  0
  4  5  1  0  0  0  0
  4  7  2  0  0  0  0
  4  8  1  0  0  0  0
  5 12  1  0  0  0  0
  5 17  1  0  0  0  0
  5 18  1  0  0  0  0
  6 19  1  0  0  0  0
  6 20  1  0  0  0  0
  6 21  1  0  0  0  0
  7 10  1  0  0  0  0
  7 22  1  0  0  0  0
  8 11  2  0  0  0  0
  8 23  1  0  0  0  0
  9 12  3  0  0  0  0
 10 13  2  0  0  0  0
 10 24  1  0  0  0  0
 11 13  1  0  0  0  0
 11 25  1  0  0  0  0
 13 26  1  0  0  0  0
M  END
> <PUBCHEM_COMPOUND_CID>
5315669

> <PUBCHEM_COMPOUND_CANONICALIZED>
1

> <PUBCHEM_CACTVS_COMPLEXITY>
190

> <PUBCHEM_CACTVS_HBOND_ACCEPTOR>
1

> <PUBCHEM_CACTVS_HBOND_DONOR>
1

> <PUBCHEM_CACTVS_ROTATABLE_BOND>
2

> <PUBCHEM_CACTVS_SUBSKEYS>
AAADccBwIAAAAAAAAAAAAAAAAAAAAAAAAAAwAAAAAAAAAAABAAAAGgAACAAADBSgmAIyAIAAAgDAEiBCAAgCAAAgAAAIiAAAAIgIMCKAERCAYAAggAAIiAcAgIAOAAAAAAAAAAAAAAAAAAAAAAAAAAAAAA==

> <PUBCHEM_IUPAC_OPENEYE_NAME>
6-phenylhex-4-yn-2-ol

> <PUBCHEM_IUPAC_CAS_NAME>
6-phenyl-4-hexyn-2-ol

> <PUBCHEM_IUPAC_NAME>
6-phenylhex-4-yn-2-ol

> <PUBCHEM_IUPAC_SYSTEMATIC_NAME>
6-phenylhex-4-yn-2-ol

> <PUBCHEM_IUPAC_TRADITIONAL_NAME>
6-phenylhex-4-yn-2-ol

> <PUBCHEM_IUPAC_INCHI>
InChI=1S/C12H14O/c1-11(13)7-5-6-10-12-8-3-2-4-9-12/h2-4,8-9,11,13H,7,10H2,1H3

> <PUBCHEM_IUPAC_INCHIKEY>
WWNYBNQWIHBNIE-UHFFFAOYSA-N

> <PUBCHEM_XLOGP3_AA>
2.6

> <PUBCHEM_EXACT_MASS>
174.104465

> <PUBCHEM_MOLECULAR_FORMULA>
C12H14O

> <PUBCHEM_MOLECULAR_WEIGHT>
174.23896

> <PUBCHEM_OPENEYE_CAN_SMILES>
CC(CC#CCC1=CC=CC=C1)O

> <PUBCHEM_OPENEYE_ISO_SMILES>
CC(CC#CCC1=CC=CC=C1)O

> <PUBCHEM_CACTVS_TPSA>
20.2

> <PUBCHEM_MONOISOTOPIC_WEIGHT>
174.104465

> <PUBCHEM_TOTAL_CHARGE>
0

> <PUBCHEM_HEAVY_ATOM_COUNT>
13

> <PUBCHEM_ATOM_DEF_STEREO_COUNT>
0

> <PUBCHEM_ATOM_UDEF_STEREO_COUNT>
1

> <PUBCHEM_BOND_DEF_STEREO_COUNT>
0

> <PUBCHEM_BOND_UDEF_STEREO_COUNT>
0

> <PUBCHEM_ISOTOPIC_ATOM_COUNT>
0

> <PUBCHEM_COMPONENT_COUNT>
1

> <PUBCHEM_CACTVS_TAUTO_COUNT>
1

> <PUBCHEM_COORDINATE_TYPE>
1
5
255

> <PUBCHEM_BONDANNOTATIONS>
10  13  8
11  13  8
2  14  3
4  7  8
4  8  8
7  10  8
8  11  8

$$$$

