92823
  -OEChem-07051212512D

 35 38  0     1  0  0  0  0  0999 V2000
    8.8742    0.7316    0.0000 P   0  0  3  0  0  0  0  0  0  0  0  0
    5.8055    0.7369    0.0000 O   0  0  0  0  0  0  0  0  0  0  0  0
    8.2892   -0.0722    0.0000 O   0  0  0  0  0  0  0  0  0  0  0  0
    8.2920    1.5373    0.0000 O   0  0  0  0  0  0  0  0  0  0  0  0
    9.6842    1.3179    0.0000 O   0  0  0  0  0  0  0  0  0  0  0  0
    6.7577    3.2384    0.0000 O   0  0  0  0  0  0  0  0  0  0  0  0
    9.6822    0.1424    0.0000 O   0  0  0  0  0  0  0  0  0  0  0  0
    4.2690   -3.8284    0.0000 O   0  0  0  0  0  0  0  0  0  0  0  0
    6.0812   -1.0237    0.0000 N   0  0  0  0  0  0  0  0  0  0  0  0
    4.2690   -0.8284    0.0000 N   0  0  0  0  0  0  0  0  0  0  0  0
    6.0812   -2.6332    0.0000 N   0  0  0  0  0  0  0  0  0  0  0  0
    3.4030   -2.3284    0.0000 N   0  0  0  0  0  0  0  0  0  0  0  0
    2.5369   -0.8284    0.0000 N   0  0  0  0  0  0  0  0  0  0  0  0
    7.3435    0.2342    0.0000 C   0  0  2  0  0  0  0  0  0  0  0  0
    7.3452    1.2342    0.0000 C   0  0  1  0  0  0  0  0  0  0  0  0
    6.3919   -0.0732    0.0000 C   0  0  1  0  0  0  0  0  0  0  0  0
    6.3947    1.5449    0.0000 C   0  0  1  0  0  0  0  0  0  0  0  0
    6.0873    2.4964    0.0000 C   0  0  0  0  0  0  0  0  0  0  0  0
    5.1350   -1.3284    0.0000 C   0  0  0  0  0  0  0  0  0  0  0  0
    6.6648   -1.8284    0.0000 C   0  0  0  0  0  0  0  0  0  0  0  0
    5.1350   -2.3284    0.0000 C   0  0  0  0  0  0  0  0  0  0  0  0
    4.2690   -2.8284    0.0000 C   0  0  0  0  0  0  0  0  0  0  0  0
    3.4030   -1.3284    0.0000 C   0  0  0  0  0  0  0  0  0  0  0  0
    7.3431   -0.6158    0.0000 H   0  0  0  0  0  0  0  0  0  0  0  0
    7.3478    2.0842    0.0000 H   0  0  0  0  0  0  0  0  0  0  0  0
    5.7794   -0.1691    0.0000 H   0  0  0  0  0  0  0  0  0  0  0  0
    5.7825    1.6429    0.0000 H   0  0  0  0  0  0  0  0  0  0  0  0
    5.7065    2.9857    0.0000 H   0  0  0  0  0  0  0  0  0  0  0  0
    5.5394    2.2063    0.0000 H   0  0  0  0  0  0  0  0  0  0  0  0
    7.2848   -1.8284    0.0000 H   0  0  0  0  0  0  0  0  0  0  0  0
    4.2690   -0.2084    0.0000 H   0  0  0  0  0  0  0  0  0  0  0  0
   10.2502    1.0648    0.0000 H   0  0  0  0  0  0  0  0  0  0  0  0
    6.5672    3.8284    0.0000 H   0  0  0  0  0  0  0  0  0  0  0  0
    2.0000   -1.1384    0.0000 H   0  0  0  0  0  0  0  0  0  0  0  0
    2.5369   -0.2084    0.0000 H   0  0  0  0  0  0  0  0  0  0  0  0
  1  3  1  0  0  0  0
  1  4  1  0  0  0  0
  1  5  1  0  0  0  0
  1  7  2  0  0  0  0
  2 16  1  0  0  0  0
  2 17  1  0  0  0  0
  3 14  1  0  0  0  0
  4 15  1  0  0  0  0
  5 32  1  0  0  0  0
  6 18  1  0  0  0  0
  6 33  1  0  0  0  0
  8 22  2  0  0  0  0
 16  9  1  6  0  0  0
  9 19  1  0  0  0  0
  9 20  1  0  0  0  0
 10 19  1  0  0  0  0
 10 23  1  0  0  0  0
 10 31  1  0  0  0  0
 11 20  2  0  0  0  0
 11 21  1  0  0  0  0
 12 22  1  0  0  0  0
 12 23  2  0  0  0  0
 13 23  1  0  0  0  0
 13 34  1  0  0  0  0
 13 35  1  0  0  0  0
 14 15  1  0  0  0  0
 14 16  1  0  0  0  0
 14 24  1  6  0  0  0
 15 17  1  0  0  0  0
 15 25  1  6  0  0  0
 16 26  1  0  0  0  0
 17 18  1  6  0  0  0
 17 27  1  0  0  0  0
 18 28  1  0  0  0  0
 18 29  1  0  0  0  0
 19 21  2  0  0  0  0
 20 30  1  0  0  0  0
 21 22  1  0  0  0  0
M  END
> <PUBCHEM_COMPOUND_CID>
92823

> <PUBCHEM_COMPOUND_CANONICALIZED>
1

> <PUBCHEM_CACTVS_COMPLEXITY>
616

> <PUBCHEM_CACTVS_HBOND_ACCEPTOR>
8

> <PUBCHEM_CACTVS_HBOND_DONOR>
4

> <PUBCHEM_CACTVS_ROTATABLE_BOND>
2

> <PUBCHEM_CACTVS_SUBSKEYS>
AAADccBzuAIAAAAAAAAAAAAAAAAAAWJEgAAgAAAAAAASAEABgAAAHgAQCCAACBzhlgYFsBfMFxCoQQdxdICAgC0XEKABUAGoVECDWApAyCAeQIAPAALTAGDwMAIAAAAAAAAAAAAAAAAAAAAAAAAAAAAAAA==

> <PUBCHEM_IUPAC_OPENEYE_NAME>
9-[(3aR,4R,6R,6aR)-2-hydroxy-6-(hydroxymethyl)-2-oxo-3a,4,6,6a-tetrahydrofuro[3,4-d][1,3,2]dioxaphosphol-4-yl]-2-amino-3H-purin-6-one

> <PUBCHEM_IUPAC_CAS_NAME>
9-[(3aR,4R,6R,6aR)-2-hydroxy-6-(hydroxymethyl)-2-oxo-3a,4,6,6a-tetrahydrofuro[3,4-d][1,3,2]dioxaphosphol-4-yl]-2-amino-3H-purin-6-one

> <PUBCHEM_IUPAC_NAME>
9-[(3aR,4R,6R,6aR)-2-hydroxy-6-(hydroxymethyl)-2-oxo-3a,4,6,6a-tetrahydrofuro[3,4-d][1,3,2]dioxaphosphol-4-yl]-2-amino-3H-purin-6-one

> <PUBCHEM_IUPAC_SYSTEMATIC_NAME>
9-[(3aR,4R,6R,6aR)-6-(hydroxymethyl)-2-oxidanyl-2-oxidanylidene-3a,4,6,6a-tetrahydrofuro[3,4-d][1,3,2]dioxaphosphol-4-yl]-2-azanyl-3H-purin-6-one

> <PUBCHEM_IUPAC_TRADITIONAL_NAME>
9-[(3aR,4R,6R,6aR)-2-hydroxy-2-keto-6-methylol-3a,4,6,6a-tetrahydrofuro[3,4-d][1,3,2]dioxaphosphol-4-yl]-2-amino-3H-purin-6-one

> <PUBCHEM_IUPAC_INCHI>
InChI=1S/C10H12N5O7P/c11-10-13-7-4(8(17)14-10)12-2-15(7)9-6-5(3(1-16)20-9)21-23(18,19)22-6/h2-3,5-6,9,16H,1H2,(H,18,19)(H3,11,13,14,17)/t3-,5-,6-,9-/m1/s1

> <PUBCHEM_IUPAC_INCHIKEY>
UASRYODFRYWBRC-UUOKFMHZSA-N

> <PUBCHEM_XLOGP3_AA>
-3.4

> <PUBCHEM_EXACT_MASS>
345.047434

> <PUBCHEM_MOLECULAR_FORMULA>
C10H12N5O7P

> <PUBCHEM_MOLECULAR_WEIGHT>
345.205342

> <PUBCHEM_OPENEYE_CAN_SMILES>
C1=NC2=C(N1C3C4C(C(O3)CO)OP(=O)(O4)O)NC(=NC2=O)N

> <PUBCHEM_OPENEYE_ISO_SMILES>
C1=NC2=C(N1[C@H]3[C@H]4[C@@H]([C@H](O3)CO)OP(=O)(O4)O)NC(=NC2=O)N

> <PUBCHEM_CACTVS_TPSA>
171

> <PUBCHEM_MONOISOTOPIC_WEIGHT>
345.047434

> <PUBCHEM_TOTAL_CHARGE>
0

> <PUBCHEM_HEAVY_ATOM_COUNT>
23

> <PUBCHEM_ATOM_DEF_STEREO_COUNT>
4

> <PUBCHEM_ATOM_UDEF_STEREO_COUNT>
0

> <PUBCHEM_BOND_DEF_STEREO_COUNT>
0

> <PUBCHEM_BOND_UDEF_STEREO_COUNT>
0

> <PUBCHEM_ISOTOPIC_ATOM_COUNT>
0

> <PUBCHEM_COMPONENT_COUNT>
1

> <PUBCHEM_CACTVS_TAUTO_COUNT>
9

> <PUBCHEM_COORDINATE_TYPE>
1
5
255

> <PUBCHEM_BONDANNOTATIONS>
10  19  8
10  23  8
11  20  8
11  21  8
12  22  8
12  23  8
14  24  6
15  25  6
17  18  6
19  21  8
21  22  8
16  9  6
9  19  8
9  20  8

$$$$

