3247059
  -OEChem-07051213072D

 73 77  0     1  0  0  0  0  0999 V2000
   12.4039    1.8415    0.0000 O   0  0  0  0  0  0  0  0  0  0  0  0
    2.5357   -3.5184    0.0000 O   0  0  0  0  0  0  0  0  0  0  0  0
    7.9288   -0.4661    0.0000 C   0  0  1  0  0  0  0  0  0  0  0  0
    7.9288   -1.4661    0.0000 C   0  0  2  0  0  0  0  0  0  0  0  0
    7.0628   -1.9661    0.0000 C   0  0  1  0  0  0  0  0  0  0  0  0
    6.1968   -1.4661    0.0000 C   0  0  1  0  0  0  0  0  0  0  0  0
    8.8750   -0.1614    0.0000 C   0  0  2  0  0  0  0  0  0  0  0  0
    7.0628    0.0339    0.0000 C   0  0  0  0  0  0  0  0  0  0  0  0
    8.8750   -1.7708    0.0000 C   0  0  0  0  0  0  0  0  0  0  0  0
    5.2868   -1.9729    0.0000 C   0  0  2  0  0  0  0  0  0  0  0  0
    6.1968   -0.4661    0.0000 C   0  0  0  0  0  0  0  0  0  0  0  0
    9.4586   -0.9661    0.0000 C   0  0  0  0  0  0  0  0  0  0  0  0
    7.0789   -3.0076    0.0000 C   0  0  0  0  0  0  0  0  0  0  0  0
    9.1857    0.7892    0.0000 C   0  0  1  0  0  0  0  0  0  0  0  0
    7.9288    0.5339    0.0000 C   0  0  0  0  0  0  0  0  0  0  0  0
    5.2787   -3.0145    0.0000 C   0  0  0  0  0  0  0  0  0  0  0  0
    4.3599   -1.4089    0.0000 C   0  0  0  0  0  0  0  0  0  0  0  0
    6.1808   -3.5354    0.0000 C   0  0  0  0  0  0  0  0  0  0  0  0
    5.2945   -0.9730    0.0000 C   0  0  0  0  0  0  0  0  0  0  0  0
   10.1642    0.9954    0.0000 C   0  0  0  0  0  0  0  0  0  0  0  0
    4.3433   -3.5643    0.0000 C   0  0  0  0  0  0  0  0  0  0  0  0
    3.4120   -1.9368    0.0000 C   0  0  0  0  0  0  0  0  0  0  0  0
    3.4037   -3.0218    0.0000 C   0  0  2  0  0  0  0  0  0  0  0  0
    8.5179    1.5335    0.0000 C   0  0  0  0  0  0  0  0  0  0  0  0
   10.4749    1.9459    0.0000 C   0  0  0  0  0  0  0  0  0  0  0  0
   11.4534    2.1521    0.0000 C   0  0  1  0  0  0  0  0  0  0  0  0
   12.1977    2.8200    0.0000 C   0  0  0  0  0  0  0  0  0  0  0  0
   13.1762    3.0262    0.0000 C   0  0  0  0  0  0  0  0  0  0  0  0
   11.5298    3.5643    0.0000 C   0  0  0  0  0  0  0  0  0  0  0  0
    8.0188   -2.3113    0.0000 H   0  0  0  0  0  0  0  0  0  0  0  0
    7.8022   -2.3854    0.0000 H   0  0  0  0  0  0  0  0  0  0  0  0
    6.9329   -1.0411    0.0000 H   0  0  0  0  0  0  0  0  0  0  0  0
    9.7148   -0.0295    0.0000 H   0  0  0  0  0  0  0  0  0  0  0  0
    7.4613    0.5089    0.0000 H   0  0  0  0  0  0  0  0  0  0  0  0
    6.6643    0.5089    0.0000 H   0  0  0  0  0  0  0  0  0  0  0  0
    8.6240   -2.3377    0.0000 H   0  0  0  0  0  0  0  0  0  0  0  0
    9.4124   -2.0800    0.0000 H   0  0  0  0  0  0  0  0  0  0  0  0
    5.9847    0.1165    0.0000 H   0  0  0  0  0  0  0  0  0  0  0  0
    5.5862   -0.5738    0.0000 H   0  0  0  0  0  0  0  0  0  0  0  0
    9.9195   -1.3808    0.0000 H   0  0  0  0  0  0  0  0  0  0  0  0
    9.9195   -0.5514    0.0000 H   0  0  0  0  0  0  0  0  0  0  0  0
    7.2969   -3.5880    0.0000 H   0  0  0  0  0  0  0  0  0  0  0  0
    7.6880   -2.8921    0.0000 H   0  0  0  0  0  0  0  0  0  0  0  0
    9.3783    1.3785    0.0000 H   0  0  0  0  0  0  0  0  0  0  0  0
    8.5488    0.5339    0.0000 H   0  0  0  0  0  0  0  0  0  0  0  0
    7.9288    1.1539    0.0000 H   0  0  0  0  0  0  0  0  0  0  0  0
    7.3088    0.5339    0.0000 H   0  0  0  0  0  0  0  0  0  0  0  0
    4.7681   -0.9422    0.0000 H   0  0  0  0  0  0  0  0  0  0  0  0
    3.9700   -0.9268    0.0000 H   0  0  0  0  0  0  0  0  0  0  0  0
    6.1832   -4.1554    0.0000 H   0  0  0  0  0  0  0  0  0  0  0  0
    5.9145   -0.9777    0.0000 H   0  0  0  0  0  0  0  0  0  0  0  0
    5.2993   -0.3530    0.0000 H   0  0  0  0  0  0  0  0  0  0  0  0
    4.6745   -0.9682    0.0000 H   0  0  0  0  0  0  0  0  0  0  0  0
   10.1848    0.3757    0.0000 H   0  0  0  0  0  0  0  0  0  0  0  0
   10.7780    0.9080    0.0000 H   0  0  0  0  0  0  0  0  0  0  0  0
    3.9460   -4.0402    0.0000 H   0  0  0  0  0  0  0  0  0  0  0  0
    4.7443   -4.0372    0.0000 H   0  0  0  0  0  0  0  0  0  0  0  0
    3.2075   -1.3515    0.0000 H   0  0  0  0  0  0  0  0  0  0  0  0
    2.8004   -2.0382    0.0000 H   0  0  0  0  0  0  0  0  0  0  0  0
    3.4025   -3.6418    0.0000 H   0  0  0  0  0  0  0  0  0  0  0  0
    8.9793    1.9475    0.0000 H   0  0  0  0  0  0  0  0  0  0  0  0
    8.1038    1.9949    0.0000 H   0  0  0  0  0  0  0  0  0  0  0  0
    8.0564    1.1194    0.0000 H   0  0  0  0  0  0  0  0  0  0  0  0
   10.4543    2.5656    0.0000 H   0  0  0  0  0  0  0  0  0  0  0  0
    9.8611    2.0332    0.0000 H   0  0  0  0  0  0  0  0  0  0  0  0
   11.4199    1.5330    0.0000 H   0  0  0  0  0  0  0  0  0  0  0  0
    2.0000   -3.2064    0.0000 H   0  0  0  0  0  0  0  0  0  0  0  0
   13.3040    2.4195    0.0000 H   0  0  0  0  0  0  0  0  0  0  0  0
   11.9913    3.9783    0.0000 H   0  0  0  0  0  0  0  0  0  0  0  0
   11.1158    4.0257    0.0000 H   0  0  0  0  0  0  0  0  0  0  0  0
   13.7829    3.1540    0.0000 H   0  0  0  0  0  0  0  0  0  0  0  0
   11.0684    3.1502    0.0000 H   0  0  0  0  0  0  0  0  0  0  0  0
   13.0483    3.6328    0.0000 H   0  0  0  0  0  0  0  0  0  0  0  0
  1 26  1  0  0  0  0
  1 27  1  0  0  0  0
 23  2  1  1  0  0  0
  2 67  1  0  0  0  0
  3  4  1  0  0  0  0
  3  7  1  0  0  0  0
  3  8  1  0  0  0  0
  3 15  1  1  0  0  0
  4  5  1  0  0  0  0
  4  9  1  0  0  0  0
  4 30  1  6  0  0  0
  5  6  1  0  0  0  0
  5 13  1  0  0  0  0
  5 31  1  1  0  0  0
  6 10  1  0  0  0  0
  6 11  1  0  0  0  0
  6 32  1  6  0  0  0
  7 12  1  0  0  0  0
  7 14  1  0  0  0  0
  7 33  1  6  0  0  0
  8 11  1  0  0  0  0
  8 34  1  0  0  0  0
  8 35  1  0  0  0  0
  9 12  1  0  0  0  0
  9 36  1  0  0  0  0
  9 37  1  0  0  0  0
 10 16  1  0  0  0  0
 10 17  1  0  0  0  0
 10 19  1  1  0  0  0
 11 38  1  0  0  0  0
 11 39  1  0  0  0  0
 12 40  1  0  0  0  0
 12 41  1  0  0  0  0
 13 18  1  0  0  0  0
 13 42  1  0  0  0  0
 13 43  1  0  0  0  0
 14 20  1  0  0  0  0
 14 24  1  6  0  0  0
 14 44  1  0  0  0  0
 15 45  1  0  0  0  0
 15 46  1  0  0  0  0
 15 47  1  0  0  0  0
 16 18  2  0  0  0  0
 16 21  1  0  0  0  0
 17 22  1  0  0  0  0
 17 48  1  0  0  0  0
 17 49  1  0  0  0  0
 18 50  1  0  0  0  0
 19 51  1  0  0  0  0
 19 52  1  0  0  0  0
 19 53  1  0  0  0  0
 20 25  1  0  0  0  0
 20 54  1  0  0  0  0
 20 55  1  0  0  0  0
 21 23  1  0  0  0  0
 21 56  1  0  0  0  0
 21 57  1  0  0  0  0
 22 23  1  0  0  0  0
 22 58  1  0  0  0  0
 22 59  1  0  0  0  0
 23 60  1  0  0  0  0
 24 61  1  0  0  0  0
 24 62  1  0  0  0  0
 24 63  1  0  0  0  0
 26 25  1  1  0  0  0
 25 64  1  0  0  0  0
 25 65  1  0  0  0  0
 26 27  1  0  0  0  0
 26 66  1  0  0  0  0
 27 28  1  0  0  0  0
 27 29  1  0  0  0  0
 28 68  1  0  0  0  0
 28 71  1  0  0  0  0
 28 73  1  0  0  0  0
 29 69  1  0  0  0  0
 29 70  1  0  0  0  0
 29 72  1  0  0  0  0
M  END
> <PUBCHEM_COMPOUND_CID>
3247059

> <PUBCHEM_COMPOUND_CANONICALIZED>
1

> <PUBCHEM_CACTVS_COMPLEXITY>
680

> <PUBCHEM_CACTVS_HBOND_ACCEPTOR>
2

> <PUBCHEM_CACTVS_HBOND_DONOR>
1

> <PUBCHEM_CACTVS_ROTATABLE_BOND>
4

> <PUBCHEM_CACTVS_SUBSKEYS>
AAADcfB4MAAAAAAAAAAAAAAAEgAAAYAAAAAwYIAAAAAAAGCAAAAAGgAACAAAD1SggAICAAAABgCAAiBCAAAAAAAgAAAACAAAAAgAEAIAAQACQAAEwAAIAAOAwPAPgAAAAAAAAADAAAQAACAAAQAACAAAAA==

> <PUBCHEM_IUPAC_OPENEYE_NAME>
(3S,8S,9S,10R,13R,14S,17R)-17-[(1R)-3-[(2S)-3,3-dimethyloxiran-2-yl]-1-methyl-propyl]-10,13-dimethyl-2,3,4,7,8,9,11,12,14,15,16,17-dodecahydro-1H-cyclopenta[a]phenanthren-3-ol

> <PUBCHEM_IUPAC_CAS_NAME>
(3S,8S,9S,10R,13R,14S,17R)-17-[(2R)-4-[(2S)-3,3-dimethyl-2-oxiranyl]butan-2-yl]-10,13-dimethyl-2,3,4,7,8,9,11,12,14,15,16,17-dodecahydro-1H-cyclopenta[a]phenanthren-3-ol

> <PUBCHEM_IUPAC_NAME>
(3S,8S,9S,10R,13R,14S,17R)-17-[(2R)-4-[(2S)-3,3-dimethyloxiran-2-yl]butan-2-yl]-10,13-dimethyl-2,3,4,7,8,9,11,12,14,15,16,17-dodecahydro-1H-cyclopenta[a]phenanthren-3-ol

> <PUBCHEM_IUPAC_SYSTEMATIC_NAME>
(3S,8S,9S,10R,13R,14S,17R)-17-[(2R)-4-[(2S)-3,3-dimethyloxiran-2-yl]butan-2-yl]-10,13-dimethyl-2,3,4,7,8,9,11,12,14,15,16,17-dodecahydro-1H-cyclopenta[a]phenanthren-3-ol

> <PUBCHEM_IUPAC_TRADITIONAL_NAME>
(3S,8S,9S,10R,13R,14S,17R)-17-[(1R)-3-[(2S)-3,3-dimethyloxiran-2-yl]-1-methyl-propyl]-10,13-dimethyl-2,3,4,7,8,9,11,12,14,15,16,17-dodecahydro-1H-cyclopenta[a]phenanthren-3-ol

> <PUBCHEM_IUPAC_INCHI>
InChI=1S/C27H44O2/c1-17(6-11-24-25(2,3)29-24)21-9-10-22-20-8-7-18-16-19(28)12-14-26(18,4)23(20)13-15-27(21,22)5/h7,17,19-24,28H,6,8-16H2,1-5H3/t17-,19+,20+,21-,22+,23+,24+,26+,27-/m1/s1

> <PUBCHEM_IUPAC_INCHIKEY>
OSENKJZWYQXHBN-XVYZBDJZSA-N

> <PUBCHEM_XLOGP3_AA>
6.6

> <PUBCHEM_EXACT_MASS>
400.334131

> <PUBCHEM_MOLECULAR_FORMULA>
C27H44O2

> <PUBCHEM_MOLECULAR_WEIGHT>
400.63706

> <PUBCHEM_OPENEYE_CAN_SMILES>
CC(CCC1C(O1)(C)C)C2CCC3C2(CCC4C3CC=C5C4(CCC(C5)O)C)C

> <PUBCHEM_OPENEYE_ISO_SMILES>
C[C@H](CC[C@H]1C(O1)(C)C)[C@H]2CC[C@@H]3[C@@]2(CC[C@H]4[C@H]3CC=C5[C@@]4(CC[C@@H](C5)O)C)C

> <PUBCHEM_CACTVS_TPSA>
32.8

> <PUBCHEM_MONOISOTOPIC_WEIGHT>
400.334131

> <PUBCHEM_TOTAL_CHARGE>
0

> <PUBCHEM_HEAVY_ATOM_COUNT>
29

> <PUBCHEM_ATOM_DEF_STEREO_COUNT>
9

> <PUBCHEM_ATOM_UDEF_STEREO_COUNT>
0

> <PUBCHEM_BOND_DEF_STEREO_COUNT>
0

> <PUBCHEM_BOND_UDEF_STEREO_COUNT>
0

> <PUBCHEM_ISOTOPIC_ATOM_COUNT>
0

> <PUBCHEM_COMPONENT_COUNT>
1

> <PUBCHEM_CACTVS_TAUTO_COUNT>
1

> <PUBCHEM_COORDINATE_TYPE>
1
5
255

> <PUBCHEM_BONDANNOTATIONS>
10  19  5
14  24  6
23  2  5
26  25  5
3  15  5
4  30  6
5  31  5
6  32  6
7  33  6

$$$$

