11748655
  -OEChem-07051213152D

 44 44  0     0  0  0  0  0  0999 V2000
   12.3923   -1.4400    0.0000 O   0  0  0  0  0  0  0  0  0  0  0  0
   12.3923    1.5600    0.0000 O   0  0  0  0  0  0  0  0  0  0  0  0
   14.1244   -1.4400    0.0000 O   0  0  0  0  0  0  0  0  0  0  0  0
   14.9904    0.0600    0.0000 O   0  0  0  0  0  0  0  0  0  0  0  0
    8.0622   -0.9400    0.0000 C   0  0  0  0  0  0  0  0  0  0  0  0
    7.1962   -1.4400    0.0000 C   0  0  0  0  0  0  0  0  0  0  0  0
    8.9282   -1.4400    0.0000 C   0  0  0  0  0  0  0  0  0  0  0  0
    6.3301   -0.9400    0.0000 C   0  0  0  0  0  0  0  0  0  0  0  0
    9.7942   -0.9400    0.0000 C   0  0  0  0  0  0  0  0  0  0  0  0
    5.4641   -1.4400    0.0000 C   0  0  0  0  0  0  0  0  0  0  0  0
   10.6603   -1.4400    0.0000 C   0  0  0  0  0  0  0  0  0  0  0  0
   11.5263   -0.9400    0.0000 C   0  0  0  0  0  0  0  0  0  0  0  0
    4.5981   -0.9400    0.0000 C   0  0  0  0  0  0  0  0  0  0  0  0
   11.5263    0.0600    0.0000 C   0  0  0  0  0  0  0  0  0  0  0  0
   12.3923    0.5600    0.0000 C   0  0  0  0  0  0  0  0  0  0  0  0
   13.2583    0.0600    0.0000 C   0  0  0  0  0  0  0  0  0  0  0  0
   13.2583   -0.9400    0.0000 C   0  0  0  0  0  0  0  0  0  0  0  0
    3.7320   -1.4400    0.0000 C   0  0  0  0  0  0  0  0  0  0  0  0
   14.1244    0.5600    0.0000 C   0  0  0  0  0  0  0  0  0  0  0  0
    2.8660   -0.9400    0.0000 C   0  0  0  0  0  0  0  0  0  0  0  0
   11.5263    2.0600    0.0000 C   0  0  0  0  0  0  0  0  0  0  0  0
    2.0000   -1.4400    0.0000 C   0  0  0  0  0  0  0  0  0  0  0  0
    8.4607   -0.4651    0.0000 H   0  0  0  0  0  0  0  0  0  0  0  0
    7.6636   -0.4651    0.0000 H   0  0  0  0  0  0  0  0  0  0  0  0
    6.7976   -1.9150    0.0000 H   0  0  0  0  0  0  0  0  0  0  0  0
    7.5947   -1.9150    0.0000 H   0  0  0  0  0  0  0  0  0  0  0  0
    8.5297   -1.9150    0.0000 H   0  0  0  0  0  0  0  0  0  0  0  0
    9.3267   -1.9150    0.0000 H   0  0  0  0  0  0  0  0  0  0  0  0
    6.7287   -0.4651    0.0000 H   0  0  0  0  0  0  0  0  0  0  0  0
    5.9316   -0.4651    0.0000 H   0  0  0  0  0  0  0  0  0  0  0  0
    9.7942   -0.3200    0.0000 H   0  0  0  0  0  0  0  0  0  0  0  0
    5.4641   -2.0600    0.0000 H   0  0  0  0  0  0  0  0  0  0  0  0
   10.6603   -2.0600    0.0000 H   0  0  0  0  0  0  0  0  0  0  0  0
    4.5981   -0.3200    0.0000 H   0  0  0  0  0  0  0  0  0  0  0  0
   10.9893    0.3700    0.0000 H   0  0  0  0  0  0  0  0  0  0  0  0
    3.7320   -2.0600    0.0000 H   0  0  0  0  0  0  0  0  0  0  0  0
   14.1244    1.1800    0.0000 H   0  0  0  0  0  0  0  0  0  0  0  0
    2.8660   -0.3200    0.0000 H   0  0  0  0  0  0  0  0  0  0  0  0
   11.8363    2.5969    0.0000 H   0  0  0  0  0  0  0  0  0  0  0  0
   10.9893    2.3700    0.0000 H   0  0  0  0  0  0  0  0  0  0  0  0
   11.2163    1.5231    0.0000 H   0  0  0  0  0  0  0  0  0  0  0  0
    1.6900   -0.9031    0.0000 H   0  0  0  0  0  0  0  0  0  0  0  0
    1.4631   -1.7500    0.0000 H   0  0  0  0  0  0  0  0  0  0  0  0
    2.3100   -1.9769    0.0000 H   0  0  0  0  0  0  0  0  0  0  0  0
  1 12  1  0  0  0  0
  1 17  1  0  0  0  0
  2 15  1  0  0  0  0
  2 21  1  0  0  0  0
  3 17  2  0  0  0  0
  4 19  2  0  0  0  0
  5  6  1  0  0  0  0
  5  7  1  0  0  0  0
  5 23  1  0  0  0  0
  5 24  1  0  0  0  0
  6  8  1  0  0  0  0
  6 25  1  0  0  0  0
  6 26  1  0  0  0  0
  7  9  1  0  0  0  0
  7 27  1  0  0  0  0
  7 28  1  0  0  0  0
  8 10  1  0  0  0  0
  8 29  1  0  0  0  0
  8 30  1  0  0  0  0
  9 11  2  0  0  0  0
  9 31  1  0  0  0  0
 10 13  2  0  0  0  0
 10 32  1  0  0  0  0
 11 12  1  0  0  0  0
 11 33  1  0  0  0  0
 12 14  2  0  0  0  0
 13 18  1  0  0  0  0
 13 34  1  0  0  0  0
 14 15  1  0  0  0  0
 14 35  1  0  0  0  0
 15 16  2  0  0  0  0
 16 17  1  0  0  0  0
 16 19  1  0  0  0  0
 18 20  2  0  0  0  0
 18 36  1  0  0  0  0
 19 37  1  0  0  0  0
 20 22  1  0  0  0  0
 20 38  1  0  0  0  0
 21 39  1  0  0  0  0
 21 40  1  0  0  0  0
 21 41  1  0  0  0  0
 22 42  1  0  0  0  0
 22 43  1  0  0  0  0
 22 44  1  0  0  0  0
M  END
> <PUBCHEM_COMPOUND_CID>
11748655

> <PUBCHEM_COMPOUND_CANONICALIZED>
1

> <PUBCHEM_CACTVS_COMPLEXITY>
533

> <PUBCHEM_CACTVS_HBOND_ACCEPTOR>
4

> <PUBCHEM_CACTVS_HBOND_DONOR>
0

> <PUBCHEM_CACTVS_ROTATABLE_BOND>
9

> <PUBCHEM_CACTVS_SUBSKEYS>
AAADceB4OAAAAAAAAAAAAAAAAAAAAAAAAAAgAAAAAAAAAAAAAAAAGgAAAAAADASggAICCAAABACIAijSiAAACAAgIAAICAEAAEgIBAYIIQACEAAAoAAIoQMAAAAAAAAAAAAAAAAAAAAAAAAAAAAAAAAAAA==

> <PUBCHEM_IUPAC_OPENEYE_NAME>
4-methoxy-2-oxo-6-[(1E,7E,9E)-undeca-1,7,9-trienyl]pyran-3-carbaldehyde

> <PUBCHEM_IUPAC_CAS_NAME>
4-methoxy-2-oxo-6-[(1E,7E,9E)-undeca-1,7,9-trienyl]-3-pyrancarboxaldehyde

> <PUBCHEM_IUPAC_NAME>
4-methoxy-2-oxo-6-[(1E,7E,9E)-undeca-1,7,9-trienyl]pyran-3-carbaldehyde

> <PUBCHEM_IUPAC_SYSTEMATIC_NAME>
4-methoxy-2-oxidanylidene-6-[(1E,7E,9E)-undeca-1,7,9-trienyl]pyran-3-carbaldehyde

> <PUBCHEM_IUPAC_TRADITIONAL_NAME>
2-keto-4-methoxy-6-[(1E,7E,9E)-undeca-1,7,9-trienyl]pyran-3-carbaldehyde

> <PUBCHEM_IUPAC_INCHI>
InChI=1S/C18H22O4/c1-3-4-5-6-7-8-9-10-11-12-15-13-17(21-2)16(14-19)18(20)22-15/h3-6,11-14H,7-10H2,1-2H3/b4-3+,6-5+,12-11+

> <PUBCHEM_IUPAC_INCHIKEY>
KINNIEOBQSTCFI-JHHIBIJLSA-N

> <PUBCHEM_XLOGP3_AA>
4.1

> <PUBCHEM_EXACT_MASS>
302.151809

> <PUBCHEM_MOLECULAR_FORMULA>
C18H22O4

> <PUBCHEM_MOLECULAR_WEIGHT>
302.36488

> <PUBCHEM_OPENEYE_CAN_SMILES>
CC=CC=CCCCCC=CC1=CC(=C(C(=O)O1)C=O)OC

> <PUBCHEM_OPENEYE_ISO_SMILES>
C/C=C/C=C/CCCC/C=C/C1=CC(=C(C(=O)O1)C=O)OC

> <PUBCHEM_CACTVS_TPSA>
52.6

> <PUBCHEM_MONOISOTOPIC_WEIGHT>
302.151809

> <PUBCHEM_TOTAL_CHARGE>
0

> <PUBCHEM_HEAVY_ATOM_COUNT>
22

> <PUBCHEM_ATOM_DEF_STEREO_COUNT>
0

> <PUBCHEM_ATOM_UDEF_STEREO_COUNT>
0

> <PUBCHEM_BOND_DEF_STEREO_COUNT>
3

> <PUBCHEM_BOND_UDEF_STEREO_COUNT>
0

> <PUBCHEM_ISOTOPIC_ATOM_COUNT>
0

> <PUBCHEM_COMPONENT_COUNT>
1

> <PUBCHEM_CACTVS_TAUTO_COUNT>
1

> <PUBCHEM_COORDINATE_TYPE>
1
5
255

> <PUBCHEM_BONDANNOTATIONS>
1  12  8
1  17  8
12  14  8
14  15  8
15  16  8
16  17  8

$$$$

