   Color/Form

     * Needles from benzene or alc
     * WHITE OR SLIGHTLY YELLOW, CRYSTALLINE POWDER
     * White or slightly yellow, crystalline powder

   from [1]HSDB

   Odor
        Characteristic odor
   from [2]HSDB

   Boiling Point
        180-182 deg C @ 4 mm Hg; 159-160 deg C @ 2 mm Hg
   from [3]HSDB

   Melting Point
        68.5 deg C
   from [4]HSDB

   Dissociation Constants
        pKa= 7.86
   from [5]HSDB

   Octanol/Water Partition Coefficient
        log Kow= 2.26 @ pH 7.4
   from [6]HSDB

   Solubilities

     * Insol in water; sol in alc, ether, benzene, chloroform, oils
     * Soluble in alcohol, ether, or chloroform; insoluble in water.
     * Very soluble in benzene, ethyl ether, ethanol, and chloroform.
     * In water, 410 mg/l @ 30 deg C

   from [7]HSDB

   Spectral Properties

     * MASS: 1594 (National Bureau of Standards EPA-NIH Mass Spectra Data
       Base, NSRDS-NBS-63)
     * Intense mass spectral peaks: 58 m/z, 72 m/z, 86 m/z, 234 m/z

   from [8]HSDB

   Other Chemical/Physical Properties

     * ODORLESS; SLIGHTLY BITTER TASTE /LIDOCAINE HYDROCHLORIDE/
     * VERY SOL IN ALC; SOL IN CHLOROFORM; INSOL IN ETHER; WHITE
       CRYSTALLINE POWDER /LIDOCAINE HYDROCHLORIDE/
     * Crystals, mp 77-78 deg C; anhydrous, mp 127-129 deg C. Very soluble
       in water, alcohol; soluble in chlorform. Insoluble in ether.
       /Hydrochloride monohydrate/

   from [9]HSDB

   Computed Properties
   Molecular Weight                  234.33728 [g/mol]
   Molecular Formula                 C[14]H[22]N[2]O
   XLogP3                            2.3
   H-Bond Donor                      1
   H-Bond Acceptor                   2
   Rotatable Bond Count              5
   Tautomer Count                    3
   Exact Mass                        234.173213
   MonoIsotopic Mass                 234.173213
   Topological Polar Surface Area    32.3
   Heavy Atom Count                  17
   Formal Charge                     0
   Complexity                        228
   Isotope Atom Count                0
   Defined Atom Stereocenter Count   0
   Undefined Atom Stereocenter Count 0
   Defined Bond Stereocenter Count   0
   Undefined Bond Stereocenter Count 0
   Covalently-Bonded Unit Count      1
   Feature 3D Acceptor Count         1
   Feature 3D Donor Count            1
   Feature 3D Cation Count           1
   Feature 3D Ring Count             1
   Effective Rotor Count             6
   Conformer Sampling RMSD           0.8
   CID Conformer Count               [10]7

References

   1. http://toxnet.nlm.nih.gov/cgi-bin/sis/search/r?dbs+hsdb:@term+@rn+@rel+137-58-6
   2. http://toxnet.nlm.nih.gov/cgi-bin/sis/search/r?dbs+hsdb:@term+@rn+@rel+137-58-6
   3. http://toxnet.nlm.nih.gov/cgi-bin/sis/search/r?dbs+hsdb:@term+@rn+@rel+137-58-6
   4. http://toxnet.nlm.nih.gov/cgi-bin/sis/search/r?dbs+hsdb:@term+@rn+@rel+137-58-6
   5. http://toxnet.nlm.nih.gov/cgi-bin/sis/search/r?dbs+hsdb:@term+@rn+@rel+137-58-6
   6. http://toxnet.nlm.nih.gov/cgi-bin/sis/search/r?dbs+hsdb:@term+@rn+@rel+137-58-6
   7. http://toxnet.nlm.nih.gov/cgi-bin/sis/search/r?dbs+hsdb:@term+@rn+@rel+137-58-6
   8. http://toxnet.nlm.nih.gov/cgi-bin/sis/search/r?dbs+hsdb:@term+@rn+@rel+137-58-6
   9. http://toxnet.nlm.nih.gov/cgi-bin/sis/search/r?dbs+hsdb:@term+@rn+@rel+137-58-6
  10. http://pubchem.ncbi.nlm.nih.gov/vw3d/vw3d.cgi?cid=3676
