   Color/Form

     * WHITE CRYSTALS OR YELLOW AMORPHOUS GRANULES
     * WHITE POWDER

   from [1]HSDB

   Odor
        SLIGHT TALLOW-LIKE ODOR
   from [2]HSDB

   Melting Point
        232-235 DEG C
   from [3]HSDB

   pH
        IN AQ SOLN IT IS ALKALINE... BUT NOT IN ALCOHOL SOLN
   from [4]HSDB

   Solubilities

     * IN WATER: 10 G/100 CC @ 12 DEG C; SLIGHTLY SOL IN ETHER
     * SOL IN ABOUT 20 PARTS ALCOHOL
     * 5 percent in distilled water; 7.6 percent in 5 percent bile salts;
       11.6 percent in 5 percent bile salts plus 1 percent lecithin

   from [5]HSDB

   Computed Properties
   Molecular Weight                  304.443189 [g/mol]
   Molecular Formula                 C[18]H[33]NaO[2]
   H-Bond Donor                      0
   H-Bond Acceptor                   2
   Rotatable Bond Count              15
   Exact Mass                        304.237825
   MonoIsotopic Mass                 304.237825
   Topological Polar Surface Area    40.1
   Heavy Atom Count                  21
   Formal Charge                     0
   Complexity                        239
   Isotope Atom Count                0
   Defined Atom Stereocenter Count   0
   Undefined Atom Stereocenter Count 0
   Defined Bond Stereocenter Count   1
   Undefined Bond Stereocenter Count 0
   Covalently-Bonded Unit Count      2

References

   1. http://toxnet.nlm.nih.gov/cgi-bin/sis/search/r?dbs+hsdb:@term+@rn+@rel+143-19-1
   2. http://toxnet.nlm.nih.gov/cgi-bin/sis/search/r?dbs+hsdb:@term+@rn+@rel+143-19-1
   3. http://toxnet.nlm.nih.gov/cgi-bin/sis/search/r?dbs+hsdb:@term+@rn+@rel+143-19-1
   4. http://toxnet.nlm.nih.gov/cgi-bin/sis/search/r?dbs+hsdb:@term+@rn+@rel+143-19-1
   5. http://toxnet.nlm.nih.gov/cgi-bin/sis/search/r?dbs+hsdb:@term+@rn+@rel+143-19-1
