35
  -OEChem-07051212492D

 16 16  0     1  0  0  0  0  0999 V2000
    2.5000    1.2262    0.0000 Cl  0  0  0  0  0  0  0  0  0  0  0  0
    2.2788   -0.1706    0.0000 O   0  0  0  0  0  0  0  0  0  0  0  0
    5.2579    1.9307    0.0000 O   0  0  0  0  0  0  0  0  0  0  0  0
    2.0000   -1.9307    0.0000 O   0  0  0  0  0  0  0  0  0  0  0  0
    5.0768    0.2081    0.0000 O   0  0  0  0  0  0  0  0  0  0  0  0
    3.0878    0.4172    0.0000 C   0  0  3  0  0  0  0  0  0  0  0  0
    3.6756    1.2262    0.0000 C   0  0  0  0  0  0  0  0  0  0  0  0
    3.8968   -0.1706    0.0000 C   0  0  0  0  0  0  0  0  0  0  0  0
    3.5878   -1.1217    0.0000 C   0  0  0  0  0  0  0  0  0  0  0  0
    2.5878   -1.1217    0.0000 C   0  0  0  0  0  0  0  0  0  0  0  0
    4.6701    1.1217    0.0000 C   0  0  0  0  0  0  0  0  0  0  0  0
    3.8465    1.8222    0.0000 H   0  0  0  0  0  0  0  0  0  0  0  0
    3.1183    1.4980    0.0000 H   0  0  0  0  0  0  0  0  0  0  0  0
    4.4865    0.0210    0.0000 H   0  0  0  0  0  0  0  0  0  0  0  0
    3.9522   -1.6233    0.0000 H   0  0  0  0  0  0  0  0  0  0  0  0
    5.8745    1.8659    0.0000 H   0  0  0  0  0  0  0  0  0  0  0  0
  1  6  1  0  0  0  0
  2  6  1  0  0  0  0
  2 10  1  0  0  0  0
  3 11  1  0  0  0  0
  3 16  1  0  0  0  0
  4 10  2  0  0  0  0
  5 11  2  0  0  0  0
  6  7  1  0  0  0  0
  6  8  1  0  0  0  0
  7 11  1  0  0  0  0
  7 12  1  0  0  0  0
  7 13  1  0  0  0  0
  8  9  2  0  0  0  0
  8 14  1  0  0  0  0
  9 10  1  0  0  0  0
  9 15  1  0  0  0  0
M  END
> <PUBCHEM_COMPOUND_CID>
35

> <PUBCHEM_COMPOUND_CANONICALIZED>
1

> <PUBCHEM_CACTVS_COMPLEXITY>
235

> <PUBCHEM_CACTVS_HBOND_ACCEPTOR>
4

> <PUBCHEM_CACTVS_HBOND_DONOR>
1

> <PUBCHEM_CACTVS_ROTATABLE_BOND>
2

> <PUBCHEM_CACTVS_SUBSKEYS>
AAADcYBgOAAEAAAAAAAAAAAAAAAAAQAAAAAAAAAAAAAAAAAAAAAAGgIACAAACAaAgAAACAAABgCIACDSCAAAAAAgAAAICAEAAkgABBQAIAACUAAFoAAIIYIAAAAAAAAAAAAAAAAAAAAAAAAAAAAAAAAAAA==

> <PUBCHEM_IUPAC_OPENEYE_NAME>
2-(2-chloro-5-oxo-2-furyl)acetic acid

> <PUBCHEM_IUPAC_CAS_NAME>
2-(2-chloro-5-oxo-2-furanyl)acetic acid

> <PUBCHEM_IUPAC_NAME>
2-(2-chloro-5-oxofuran-2-yl)acetic acid

> <PUBCHEM_IUPAC_SYSTEMATIC_NAME>
2-(2-chloranyl-5-oxidanylidene-furan-2-yl)ethanoic acid

> <PUBCHEM_IUPAC_TRADITIONAL_NAME>
2-(2-chloro-5-keto-2-furyl)acetic acid

> <PUBCHEM_IUPAC_INCHI>
InChI=1S/C6H5ClO4/c7-6(3-4(8)9)2-1-5(10)11-6/h1-2H,3H2,(H,8,9)

> <PUBCHEM_IUPAC_INCHIKEY>
WGZZDRVKIXVYEI-UHFFFAOYSA-N

> <PUBCHEM_XLOGP3_AA>
0.3

> <PUBCHEM_EXACT_MASS>
175.987636

> <PUBCHEM_MOLECULAR_FORMULA>
C6H5ClO4

> <PUBCHEM_MOLECULAR_WEIGHT>
176.5545

> <PUBCHEM_OPENEYE_CAN_SMILES>
C1=CC(OC1=O)(CC(=O)O)Cl

> <PUBCHEM_OPENEYE_ISO_SMILES>
C1=CC(OC1=O)(CC(=O)O)Cl

> <PUBCHEM_CACTVS_TPSA>
63.6

> <PUBCHEM_MONOISOTOPIC_WEIGHT>
175.987636

> <PUBCHEM_TOTAL_CHARGE>
0

> <PUBCHEM_HEAVY_ATOM_COUNT>
11

> <PUBCHEM_ATOM_DEF_STEREO_COUNT>
0

> <PUBCHEM_ATOM_UDEF_STEREO_COUNT>
1

> <PUBCHEM_BOND_DEF_STEREO_COUNT>
0

> <PUBCHEM_BOND_UDEF_STEREO_COUNT>
0

> <PUBCHEM_ISOTOPIC_ATOM_COUNT>
0

> <PUBCHEM_COMPONENT_COUNT>
1

> <PUBCHEM_CACTVS_TAUTO_COUNT>
1

> <PUBCHEM_COORDINATE_TYPE>
1
5
255

> <PUBCHEM_BONDANNOTATIONS>
6  1  3

$$$$

