250364
  -OEChem-07051213062D

 52 55  0     1  0  0  0  0  0999 V2000
   10.4926    2.5384    0.0000 O   0  0  0  0  0  0  0  0  0  0  0  0
    8.8462    3.0765    0.0000 O   0  0  0  0  0  0  0  0  0  0  0  0
    6.5130   -2.9923    0.0000 O   0  0  0  0  0  0  0  0  0  0  0  0
    2.8641   -1.9754    0.0000 O   0  0  0  0  0  0  0  0  0  0  0  0
    8.2572    1.0770    0.0000 C   0  0  1  0  0  0  0  0  0  0  0  0
    8.2572    0.0770    0.0000 C   0  0  1  0  0  0  0  0  0  0  0  0
    9.2034    1.3817    0.0000 C   0  0  2  0  0  0  0  0  0  0  0  0
    9.2034   -0.2278    0.0000 C   0  0  0  0  0  0  0  0  0  0  0  0
    7.3912    1.5770    0.0000 C   0  0  0  0  0  0  0  0  0  0  0  0
    9.7870    0.5770    0.0000 C   0  0  0  0  0  0  0  0  0  0  0  0
    7.3912   -0.4230    0.0000 C   0  0  0  0  0  0  0  0  0  0  0  0
    8.2572    2.0770    0.0000 C   0  0  0  0  0  0  0  0  0  0  0  0
    6.5251    1.0770    0.0000 C   0  0  0  0  0  0  0  0  0  0  0  0
    6.5251    0.0770    0.0000 C   0  0  0  0  0  0  0  0  0  0  0  0
    9.5141    2.3322    0.0000 C   0  0  0  0  0  0  0  0  0  0  0  0
    7.4072   -1.4646    0.0000 C   0  0  0  0  0  0  0  0  0  0  0  0
    5.6151   -0.4299    0.0000 C   0  0  0  0  0  0  0  0  0  0  0  0
    5.6071   -1.4715    0.0000 C   0  0  0  0  0  0  0  0  0  0  0  0
    6.5092   -1.9923    0.0000 C   0  0  0  0  0  0  0  0  0  0  0  0
    4.6883    0.1342    0.0000 C   0  0  0  0  0  0  0  0  0  0  0  0
    4.6717   -2.0212    0.0000 C   0  0  0  0  0  0  0  0  0  0  0  0
    3.7404   -0.3938    0.0000 C   0  0  0  0  0  0  0  0  0  0  0  0
   10.8032    3.4890    0.0000 C   0  0  0  0  0  0  0  0  0  0  0  0
    3.7320   -1.4787    0.0000 C   0  0  0  0  0  0  0  0  0  0  0  0
    7.3810   -3.4890    0.0000 C   0  0  0  0  0  0  0  0  0  0  0  0
    2.0000   -1.4720    0.0000 C   0  0  0  0  0  0  0  0  0  0  0  0
    8.3471   -0.7683    0.0000 H   0  0  0  0  0  0  0  0  0  0  0  0
    9.8159    1.4779    0.0000 H   0  0  0  0  0  0  0  0  0  0  0  0
    8.9524   -0.7947    0.0000 H   0  0  0  0  0  0  0  0  0  0  0  0
    9.7408   -0.5370    0.0000 H   0  0  0  0  0  0  0  0  0  0  0  0
    7.7897    2.0519    0.0000 H   0  0  0  0  0  0  0  0  0  0  0  0
    6.9926    2.0519    0.0000 H   0  0  0  0  0  0  0  0  0  0  0  0
   10.2479    0.1622    0.0000 H   0  0  0  0  0  0  0  0  0  0  0  0
   10.2479    0.9917    0.0000 H   0  0  0  0  0  0  0  0  0  0  0  0
    8.8772    2.0770    0.0000 H   0  0  0  0  0  0  0  0  0  0  0  0
    8.2572    2.6970    0.0000 H   0  0  0  0  0  0  0  0  0  0  0  0
    7.6372    2.0770    0.0000 H   0  0  0  0  0  0  0  0  0  0  0  0
    6.3131    1.6596    0.0000 H   0  0  0  0  0  0  0  0  0  0  0  0
    5.9145    0.9693    0.0000 H   0  0  0  0  0  0  0  0  0  0  0  0
    7.9477   -1.7683    0.0000 H   0  0  0  0  0  0  0  0  0  0  0  0
    4.7002    0.7541    0.0000 H   0  0  0  0  0  0  0  0  0  0  0  0
    4.6741   -2.6412    0.0000 H   0  0  0  0  0  0  0  0  0  0  0  0
    3.2071   -0.0776    0.0000 H   0  0  0  0  0  0  0  0  0  0  0  0
   11.3925    3.2963    0.0000 H   0  0  0  0  0  0  0  0  0  0  0  0
   10.9958    4.0783    0.0000 H   0  0  0  0  0  0  0  0  0  0  0  0
   10.2139    3.6816    0.0000 H   0  0  0  0  0  0  0  0  0  0  0  0
    7.0730   -4.0271    0.0000 H   0  0  0  0  0  0  0  0  0  0  0  0
    7.9191   -3.7969    0.0000 H   0  0  0  0  0  0  0  0  0  0  0  0
    7.6889   -2.9508    0.0000 H   0  0  0  0  0  0  0  0  0  0  0  0
    2.3121   -0.9363    0.0000 H   0  0  0  0  0  0  0  0  0  0  0  0
    1.4643   -1.1600    0.0000 H   0  0  0  0  0  0  0  0  0  0  0  0
    1.6879   -2.0078    0.0000 H   0  0  0  0  0  0  0  0  0  0  0  0
  1 15  1  0  0  0  0
  1 23  1  0  0  0  0
  2 15  2  0  0  0  0
  3 19  1  0  0  0  0
  3 25  1  0  0  0  0
  4 24  1  0  0  0  0
  4 26  1  0  0  0  0
  5  6  1  0  0  0  0
  5  7  1  0  0  0  0
  5  9  1  0  0  0  0
  5 12  1  1  0  0  0
  6  8  1  0  0  0  0
  6 11  1  0  0  0  0
  6 27  1  6  0  0  0
  7 10  1  0  0  0  0
  7 15  1  1  0  0  0
  7 28  1  0  0  0  0
  8 10  1  0  0  0  0
  8 29  1  0  0  0  0
  8 30  1  0  0  0  0
  9 13  1  0  0  0  0
  9 31  1  0  0  0  0
  9 32  1  0  0  0  0
 10 33  1  0  0  0  0
 10 34  1  0  0  0  0
 11 14  1  0  0  0  0
 11 16  2  0  0  0  0
 12 35  1  0  0  0  0
 12 36  1  0  0  0  0
 12 37  1  0  0  0  0
 13 14  1  0  0  0  0
 13 38  1  0  0  0  0
 13 39  1  0  0  0  0
 14 17  2  0  0  0  0
 16 19  1  0  0  0  0
 16 40  1  0  0  0  0
 17 18  1  0  0  0  0
 17 20  1  0  0  0  0
 18 19  2  0  0  0  0
 18 21  1  0  0  0  0
 20 22  2  0  0  0  0
 20 41  1  0  0  0  0
 21 24  2  0  0  0  0
 21 42  1  0  0  0  0
 22 24  1  0  0  0  0
 22 43  1  0  0  0  0
 23 44  1  0  0  0  0
 23 45  1  0  0  0  0
 23 46  1  0  0  0  0
 25 47  1  0  0  0  0
 25 48  1  0  0  0  0
 25 49  1  0  0  0  0
 26 50  1  0  0  0  0
 26 51  1  0  0  0  0
 26 52  1  0  0  0  0
M  END
> <PUBCHEM_COMPOUND_CID>
250364

> <PUBCHEM_COMPOUND_CANONICALIZED>
1

> <PUBCHEM_CACTVS_COMPLEXITY>
534

> <PUBCHEM_CACTVS_HBOND_ACCEPTOR>
4

> <PUBCHEM_CACTVS_HBOND_DONOR>
0

> <PUBCHEM_CACTVS_ROTATABLE_BOND>
4

> <PUBCHEM_CACTVS_SUBSKEYS>
AAADceB4OAAAAAAAAAAAAAAAAAAAAYAAAAAwYMAAAAAAAGDBUAAAGgAAAAAADwSAmAIyDsAABACIAiDSCAACCAAgIAAIiAEGCIgMJjKEMRqAMCAkwBEIqAfIyPCP4AADAAAYAADAAAYAADAAAQAACAAAAA==

> <PUBCHEM_IUPAC_OPENEYE_NAME>
methyl (13S,14R,17S)-3,6-dimethoxy-13-methyl-11,12,14,15,16,17-hexahydrocyclopenta[a]phenanthrene-17-carboxylate

> <PUBCHEM_IUPAC_CAS_NAME>
(13S,14R,17S)-3,6-dimethoxy-13-methyl-11,12,14,15,16,17-hexahydrocyclopenta[a]phenanthrene-17-carboxylic acid methyl ester

> <PUBCHEM_IUPAC_NAME>
methyl (13S,14R,17S)-3,6-dimethoxy-13-methyl-11,12,14,15,16,17-hexahydrocyclopenta[a]phenanthrene-17-carboxylate

> <PUBCHEM_IUPAC_SYSTEMATIC_NAME>
methyl (13S,14R,17S)-3,6-dimethoxy-13-methyl-11,12,14,15,16,17-hexahydrocyclopenta[a]phenanthrene-17-carboxylate

> <PUBCHEM_IUPAC_TRADITIONAL_NAME>
(13S,14R,17S)-3,6-dimethoxy-13-methyl-11,12,14,15,16,17-hexahydrocyclopenta[a]phenanthrene-17-carboxylic acid methyl ester

> <PUBCHEM_IUPAC_INCHI>
InChI=1S/C22H26O4/c1-22-10-9-15-14-6-5-13(24-2)11-17(14)20(25-3)12-16(15)18(22)7-8-19(22)21(23)26-4/h5-6,11-12,18-19H,7-10H2,1-4H3/t18-,19+,22-/m0/s1

> <PUBCHEM_IUPAC_INCHIKEY>
RJVUHVSRJUDNRA-JQVVWYNYSA-N

> <PUBCHEM_XLOGP3_AA>
4.9

> <PUBCHEM_EXACT_MASS>
354.183109

> <PUBCHEM_MOLECULAR_FORMULA>
C22H26O4

> <PUBCHEM_MOLECULAR_WEIGHT>
354.43944

> <PUBCHEM_OPENEYE_CAN_SMILES>
CC12CCC3=C4C=CC(=CC4=C(C=C3C1CCC2C(=O)OC)OC)OC

> <PUBCHEM_OPENEYE_ISO_SMILES>
C[C@]12CCC3=C4C=CC(=CC4=C(C=C3[C@@H]1CC[C@@H]2C(=O)OC)OC)OC

> <PUBCHEM_CACTVS_TPSA>
44.8

> <PUBCHEM_MONOISOTOPIC_WEIGHT>
354.183109

> <PUBCHEM_TOTAL_CHARGE>
0

> <PUBCHEM_HEAVY_ATOM_COUNT>
26

> <PUBCHEM_ATOM_DEF_STEREO_COUNT>
3

> <PUBCHEM_ATOM_UDEF_STEREO_COUNT>
0

> <PUBCHEM_BOND_DEF_STEREO_COUNT>
0

> <PUBCHEM_BOND_UDEF_STEREO_COUNT>
0

> <PUBCHEM_ISOTOPIC_ATOM_COUNT>
0

> <PUBCHEM_COMPONENT_COUNT>
1

> <PUBCHEM_CACTVS_TAUTO_COUNT>
1

> <PUBCHEM_COORDINATE_TYPE>
1
5
255

> <PUBCHEM_BONDANNOTATIONS>
11  14  8
11  16  8
14  17  8
16  19  8
17  18  8
17  20  8
18  19  8
18  21  8
20  22  8
21  24  8
22  24  8
5  12  5
6  27  6
7  15  5

$$$$

