9818
  -OEChem-06261204052D

 18 18  0     0  0  0  0  0  0999 V2000
    2.0000   -0.0924    0.0000 F   0  0  0  0  0  0  0  0  0  0  0  0
    2.8111   -1.2508    0.0000 F   0  0  0  0  0  0  0  0  0  0  0  0
    5.5197    1.9397    0.0000 F   0  0  0  0  0  0  0  0  0  0  0  0
    6.1174    0.6580    0.0000 F   0  0  0  0  0  0  0  0  0  0  0  0
    4.2380    1.3420    0.0000 F   0  0  0  0  0  0  0  0  0  0  0  0
    3.1585    0.7188    0.0000 F   0  0  0  0  0  0  0  0  0  0  0  0
    4.8356    0.0603    0.0000 C   0  0  0  0  0  0  0  0  0  0  0  0
    3.9696   -0.4397    0.0000 C   0  0  0  0  0  0  0  0  0  0  0  0
    5.7017   -0.4397    0.0000 C   0  0  0  0  0  0  0  0  0  0  0  0
    3.9696   -1.4397    0.0000 C   0  0  0  0  0  0  0  0  0  0  0  0
    5.1777    1.0000    0.0000 C   0  0  0  0  0  0  0  0  0  0  0  0
    2.9848   -0.2660    0.0000 C   0  0  0  0  0  0  0  0  0  0  0  0
    5.7017   -1.4397    0.0000 C   0  0  0  0  0  0  0  0  0  0  0  0
    4.8356   -1.9397    0.0000 C   0  0  0  0  0  0  0  0  0  0  0  0
    6.2386   -0.1297    0.0000 H   0  0  0  0  0  0  0  0  0  0  0  0
    3.4327   -1.7497    0.0000 H   0  0  0  0  0  0  0  0  0  0  0  0
    4.8356   -2.5597    0.0000 H   0  0  0  0  0  0  0  0  0  0  0  0
    6.2386   -1.7497    0.0000 H   0  0  0  0  0  0  0  0  0  0  0  0
  1 12  1  0  0  0  0
  2 12  1  0  0  0  0
  3 11  1  0  0  0  0
  4 11  1  0  0  0  0
  5 11  1  0  0  0  0
  6 12  1  0  0  0  0
  7  8  2  0  0  0  0
  7  9  1  0  0  0  0
  7 11  1  0  0  0  0
  8 10  1  0  0  0  0
  8 12  1  0  0  0  0
  9 13  2  0  0  0  0
  9 15  1  0  0  0  0
 10 14  2  0  0  0  0
 10 16  1  0  0  0  0
 13 14  1  0  0  0  0
 13 18  1  0  0  0  0
 14 17  1  0  0  0  0
M  END
> <PUBCHEM_COMPOUND_CID>
9818

> <PUBCHEM_COMPOUND_CANONICALIZED>
1

> <PUBCHEM_CACTVS_COMPLEXITY>
169

> <PUBCHEM_CACTVS_HBOND_ACCEPTOR>
6

> <PUBCHEM_CACTVS_HBOND_DONOR>
0

> <PUBCHEM_CACTVS_ROTATABLE_BOND>
0

> <PUBCHEM_CACTVS_SUBSKEYS>
AAADcYBwAcAAAAAAAAAAAAAAAAAAAAAAAAAwAAAAAAAAAAABAAAAGQAAAAAADACAGBAwAIAAAACAAiBCAAACAAAgAAAIiAAAAIgIICKAERCAIAAggAAIiAcAgIAOgAAAAAAQAAAAAAAAACAAAAAAAAAAAA==

> <PUBCHEM_IUPAC_OPENEYE_NAME>
1,2-bis(trifluoromethyl)benzene

> <PUBCHEM_IUPAC_CAS_NAME>
1,2-bis(trifluoromethyl)benzene

> <PUBCHEM_IUPAC_NAME>
1,2-bis(trifluoromethyl)benzene

> <PUBCHEM_IUPAC_SYSTEMATIC_NAME>
1,2-bis(trifluoromethyl)benzene

> <PUBCHEM_IUPAC_TRADITIONAL_NAME>
1,2-bis(trifluoromethyl)benzene

> <PUBCHEM_IUPAC_INCHI>
InChI=1S/C8H4F6/c9-7(10,11)5-3-1-2-4-6(5)8(12,13)14/h1-4H

> <PUBCHEM_IUPAC_INCHIKEY>
XXZOEDQFGXTEAD-UHFFFAOYSA-N

> <PUBCHEM_XLOGP3_AA>
3.7

> <PUBCHEM_EXACT_MASS>
214.021719

> <PUBCHEM_MOLECULAR_FORMULA>
C8H4F6

> <PUBCHEM_MOLECULAR_WEIGHT>
214.107779

> <PUBCHEM_OPENEYE_CAN_SMILES>
C1=CC=C(C(=C1)C(F)(F)F)C(F)(F)F

> <PUBCHEM_OPENEYE_ISO_SMILES>
C1=CC=C(C(=C1)C(F)(F)F)C(F)(F)F

> <PUBCHEM_CACTVS_TPSA>
0

> <PUBCHEM_MONOISOTOPIC_WEIGHT>
214.021719

> <PUBCHEM_TOTAL_CHARGE>
0

> <PUBCHEM_HEAVY_ATOM_COUNT>
14

> <PUBCHEM_ATOM_DEF_STEREO_COUNT>
0

> <PUBCHEM_ATOM_UDEF_STEREO_COUNT>
0

> <PUBCHEM_BOND_DEF_STEREO_COUNT>
0

> <PUBCHEM_BOND_UDEF_STEREO_COUNT>
0

> <PUBCHEM_ISOTOPIC_ATOM_COUNT>
0

> <PUBCHEM_COMPONENT_COUNT>
1

> <PUBCHEM_CACTVS_TAUTO_COUNT>
1

> <PUBCHEM_COORDINATE_TYPE>
1
5
255

> <PUBCHEM_BONDANNOTATIONS>
10  14  8
13  14  8
7  8  8
7  9  8
8  10  8
9  13  8

$$$$

