   Color/Form

     * WHITE
     * CRYSTALS FROM ETHYL ACETATE
     * WHITE PRISMS
     * Colorless

   from [1]HSDB

   Odor
        NO APPRECIABLE ODOR
   from [2]HSDB

   Melting Point
        134.5 TO 135.5 DEG C
   from [3]HSDB

   Corrosivity
        Non-corrosive
   from [4]HSDB

   Density/Specific Gravity
        1.17 @ 23.3 DEG C
   from [5]HSDB

   Octanol/Water Partition Coefficient
        Log P: 2.17
   from [6]HSDB

   Solubilities

     * SOLUBILITY (G/100 ML SOLVENT @ 27 DEG C): 18.9 IN ACETONE, 16.5 IN
       N,N-DIMETHYLFORMAMIDE, 32.0 IN PHENYL CELLOSOLVE, 0.026 IN WATER,
       5.01 IN XYLENE
     * water solubility = 260 mg/l @ 27 deg C

   from [7]HSDB

   Spectral Properties
        Intense mass spectral peaks: 167 m/z (100%), 72 m/z (95%), 165 m/z
   (44%), 239 m/z (28%)
   from [8]HSDB

   Vapor Pressure
        3.00X10-8 mm Hg @ 25 deg C
   from [9]HSDB

   Other Chemical/Physical Properties

     * SOME DECOMP INDICATED AT 210 DEG C
     * MP: 128-135 DEG C (TECHNICAL PRODUCT 95% PURE)
     * COMPATIBLE WITH MOST OTHER WETTABLE POWDER HERBICIDAL FORMULATIONS
       & FERTILIZERS, IF NOT HIGHLY ALKALINE.
     * Off-white solid /Technical diphenamid/

   from [10]HSDB

   Computed Properties
   Molecular Weight                  239.31228 [g/mol]
   Molecular Formula                 C[16]H[17]NO
   XLogP3                            3
   H-Bond Donor                      0
   H-Bond Acceptor                   1
   Rotatable Bond Count              3
   Exact Mass                        239.131014
   MonoIsotopic Mass                 239.131014
   Topological Polar Surface Area    20.3
   Heavy Atom Count                  18
   Formal Charge                     0
   Complexity                        244
   Isotope Atom Count                0
   Defined Atom Stereocenter Count   0
   Undefined Atom Stereocenter Count 0
   Defined Bond Stereocenter Count   0
   Undefined Bond Stereocenter Count 0
   Covalently-Bonded Unit Count      1
   Feature 3D Acceptor Count         1
   Feature 3D Ring Count             2
   Effective Rotor Count             4
   Conformer Sampling RMSD           0.6
   CID Conformer Count               [11]10

References

   1. http://toxnet.nlm.nih.gov/cgi-bin/sis/search/r?dbs+hsdb:@term+@rn+@rel+957-51-7
   2. http://toxnet.nlm.nih.gov/cgi-bin/sis/search/r?dbs+hsdb:@term+@rn+@rel+957-51-7
   3. http://toxnet.nlm.nih.gov/cgi-bin/sis/search/r?dbs+hsdb:@term+@rn+@rel+957-51-7
   4. http://toxnet.nlm.nih.gov/cgi-bin/sis/search/r?dbs+hsdb:@term+@rn+@rel+957-51-7
   5. http://toxnet.nlm.nih.gov/cgi-bin/sis/search/r?dbs+hsdb:@term+@rn+@rel+957-51-7
   6. http://toxnet.nlm.nih.gov/cgi-bin/sis/search/r?dbs+hsdb:@term+@rn+@rel+957-51-7
   7. http://toxnet.nlm.nih.gov/cgi-bin/sis/search/r?dbs+hsdb:@term+@rn+@rel+957-51-7
   8. http://toxnet.nlm.nih.gov/cgi-bin/sis/search/r?dbs+hsdb:@term+@rn+@rel+957-51-7
   9. http://toxnet.nlm.nih.gov/cgi-bin/sis/search/r?dbs+hsdb:@term+@rn+@rel+957-51-7
  10. http://toxnet.nlm.nih.gov/cgi-bin/sis/search/r?dbs+hsdb:@term+@rn+@rel+957-51-7
  11. http://pubchem.ncbi.nlm.nih.gov/vw3d/vw3d.cgi?cid=13728
