114899
  -OEChem-07051213072D

 64 68  0     1  0  0  0  0  0999 V2000
    3.7320   -0.5344    0.0000 O   0  0  0  0  0  0  0  0  0  0  0  0
    4.5981    1.9656    0.0000 O   0  0  0  0  0  0  0  0  0  0  0  0
    3.7320    0.4656    0.0000 O   0  0  0  0  0  0  0  0  0  0  0  0
    5.4641   -0.5344    0.0000 N   0  0  0  0  0  0  0  0  0  0  0  0
    8.1424    0.7704    0.0000 N   0  0  0  0  0  0  0  0  0  0  0  0
    8.1424   -0.8391    0.0000 N   0  0  0  0  0  0  0  0  0  0  0  0
   12.3671    2.5458    0.0000 N   0  0  0  0  0  0  0  0  0  0  0  0
    5.4641    0.4656    0.0000 C   0  0  3  0  0  0  0  0  0  0  0  0
    6.3301    0.9656    0.0000 C   0  0  0  0  0  0  0  0  0  0  0  0
    7.1962    0.4656    0.0000 C   0  0  0  0  0  0  0  0  0  0  0  0
    6.3301   -1.0344    0.0000 C   0  0  0  0  0  0  0  0  0  0  0  0
    7.1962   -0.5344    0.0000 C   0  0  0  0  0  0  0  0  0  0  0  0
    4.5981   -1.0344    0.0000 C   0  0  0  0  0  0  0  0  0  0  0  0
    4.5981   -2.0344    0.0000 C   0  0  0  0  0  0  0  0  0  0  0  0
    8.4530    1.7209    0.0000 C   0  0  0  0  0  0  0  0  0  0  0  0
    4.5981    0.9656    0.0000 C   0  0  0  0  0  0  0  0  0  0  0  0
    8.7260   -0.0344    0.0000 C   0  0  0  0  0  0  0  0  0  0  0  0
    3.7320   -2.5344    0.0000 C   0  0  0  0  0  0  0  0  0  0  0  0
    5.4641   -2.5344    0.0000 C   0  0  0  0  0  0  0  0  0  0  0  0
    9.4315    1.9271    0.0000 C   0  0  0  0  0  0  0  0  0  0  0  0
    9.7422    2.8776    0.0000 C   0  0  0  0  0  0  0  0  0  0  0  0
    2.8660   -2.0344    0.0000 C   0  0  0  0  0  0  0  0  0  0  0  0
    5.4641   -3.5344    0.0000 C   0  0  0  0  0  0  0  0  0  0  0  0
    3.7320   -3.5344    0.0000 C   0  0  0  0  0  0  0  0  0  0  0  0
    6.3301   -2.0344    0.0000 C   0  0  0  0  0  0  0  0  0  0  0  0
   10.0994    1.1828    0.0000 C   0  0  0  0  0  0  0  0  0  0  0  0
   10.7207    3.0838    0.0000 C   0  0  0  0  0  0  0  0  0  0  0  0
   11.0779    1.3890    0.0000 C   0  0  0  0  0  0  0  0  0  0  0  0
   11.3886    2.3395    0.0000 C   0  0  0  0  0  0  0  0  0  0  0  0
    2.0000   -2.5344    0.0000 C   0  0  0  0  0  0  0  0  0  0  0  0
    6.3301   -4.0344    0.0000 C   0  0  0  0  0  0  0  0  0  0  0  0
    2.8660   -4.0344    0.0000 C   0  0  0  0  0  0  0  0  0  0  0  0
    7.1962   -2.5344    0.0000 C   0  0  0  0  0  0  0  0  0  0  0  0
    2.0000   -3.5344    0.0000 C   0  0  0  0  0  0  0  0  0  0  0  0
    7.1962   -3.5344    0.0000 C   0  0  0  0  0  0  0  0  0  0  0  0
   11.0314    4.0344    0.0000 C   0  0  0  0  0  0  0  0  0  0  0  0
    4.7280    0.0406    0.0000 H   0  0  0  0  0  0  0  0  0  0  0  0
    6.7287    1.4406    0.0000 H   0  0  0  0  0  0  0  0  0  0  0  0
    5.9316    1.4406    0.0000 H   0  0  0  0  0  0  0  0  0  0  0  0
    5.9316   -1.5093    0.0000 H   0  0  0  0  0  0  0  0  0  0  0  0
    6.7287   -1.5093    0.0000 H   0  0  0  0  0  0  0  0  0  0  0  0
    5.1350   -1.7244    0.0000 H   0  0  0  0  0  0  0  0  0  0  0  0
    8.4325    2.3406    0.0000 H   0  0  0  0  0  0  0  0  0  0  0  0
    7.8392    1.8082    0.0000 H   0  0  0  0  0  0  0  0  0  0  0  0
    9.3460   -0.0344    0.0000 H   0  0  0  0  0  0  0  0  0  0  0  0
    9.3281    3.3391    0.0000 H   0  0  0  0  0  0  0  0  0  0  0  0
    2.8660   -1.4144    0.0000 H   0  0  0  0  0  0  0  0  0  0  0  0
    4.9272   -3.8444    0.0000 H   0  0  0  0  0  0  0  0  0  0  0  0
    4.2690   -3.8444    0.0000 H   0  0  0  0  0  0  0  0  0  0  0  0
    6.3301   -1.4144    0.0000 H   0  0  0  0  0  0  0  0  0  0  0  0
    9.9068    0.5935    0.0000 H   0  0  0  0  0  0  0  0  0  0  0  0
    4.0611    2.2756    0.0000 H   0  0  0  0  0  0  0  0  0  0  0  0
   11.4920    0.9276    0.0000 H   0  0  0  0  0  0  0  0  0  0  0  0
    1.4631   -2.2244    0.0000 H   0  0  0  0  0  0  0  0  0  0  0  0
    6.3301   -4.6544    0.0000 H   0  0  0  0  0  0  0  0  0  0  0  0
    2.8660   -4.6544    0.0000 H   0  0  0  0  0  0  0  0  0  0  0  0
    7.7331   -2.2244    0.0000 H   0  0  0  0  0  0  0  0  0  0  0  0
    1.4631   -3.8444    0.0000 H   0  0  0  0  0  0  0  0  0  0  0  0
    7.7331   -3.8444    0.0000 H   0  0  0  0  0  0  0  0  0  0  0  0
   11.6207    3.8418    0.0000 H   0  0  0  0  0  0  0  0  0  0  0  0
   11.2240    4.6237    0.0000 H   0  0  0  0  0  0  0  0  0  0  0  0
   10.4420    4.2270    0.0000 H   0  0  0  0  0  0  0  0  0  0  0  0
   12.7811    2.0843    0.0000 H   0  0  0  0  0  0  0  0  0  0  0  0
   12.5597    3.1351    0.0000 H   0  0  0  0  0  0  0  0  0  0  0  0
  1 13  2  0  0  0  0
  2 16  1  0  0  0  0
  2 52  1  0  0  0  0
  3 16  2  0  0  0  0
  4  8  1  0  0  0  0
  4 11  1  0  0  0  0
  4 13  1  0  0  0  0
  5 10  1  0  0  0  0
  5 15  1  0  0  0  0
  5 17  1  0  0  0  0
  6 12  1  0  0  0  0
  6 17  2  0  0  0  0
  7 29  1  0  0  0  0
  7 63  1  0  0  0  0
  7 64  1  0  0  0  0
  8  9  1  0  0  0  0
  8 16  1  0  0  0  0
  8 37  1  0  0  0  0
  9 10  1  0  0  0  0
  9 38  1  0  0  0  0
  9 39  1  0  0  0  0
 10 12  2  0  0  0  0
 11 12  1  0  0  0  0
 11 40  1  0  0  0  0
 11 41  1  0  0  0  0
 13 14  1  0  0  0  0
 14 18  1  0  0  0  0
 14 19  1  0  0  0  0
 14 42  1  0  0  0  0
 15 20  1  0  0  0  0
 15 43  1  0  0  0  0
 15 44  1  0  0  0  0
 17 45  1  0  0  0  0
 18 22  2  0  0  0  0
 18 24  1  0  0  0  0
 19 23  2  0  0  0  0
 19 25  1  0  0  0  0
 20 21  2  0  0  0  0
 20 26  1  0  0  0  0
 21 27  1  0  0  0  0
 21 46  1  0  0  0  0
 22 30  1  0  0  0  0
 22 47  1  0  0  0  0
 23 31  1  0  0  0  0
 23 48  1  0  0  0  0
 24 32  2  0  0  0  0
 24 49  1  0  0  0  0
 25 33  2  0  0  0  0
 25 50  1  0  0  0  0
 26 28  2  0  0  0  0
 26 51  1  0  0  0  0
 27 29  2  0  0  0  0
 27 36  1  0  0  0  0
 28 29  1  0  0  0  0
 28 53  1  0  0  0  0
 30 34  2  0  0  0  0
 30 54  1  0  0  0  0
 31 35  2  0  0  0  0
 31 55  1  0  0  0  0
 32 34  1  0  0  0  0
 32 56  1  0  0  0  0
 33 35  1  0  0  0  0
 33 57  1  0  0  0  0
 34 58  1  0  0  0  0
 35 59  1  0  0  0  0
 36 60  1  0  0  0  0
 36 61  1  0  0  0  0
 36 62  1  0  0  0  0
M  END
> <PUBCHEM_COMPOUND_CID>
114899

> <PUBCHEM_COMPOUND_CANONICALIZED>
1

> <PUBCHEM_CACTVS_COMPLEXITY>
748

> <PUBCHEM_CACTVS_HBOND_ACCEPTOR>
5

> <PUBCHEM_CACTVS_HBOND_DONOR>
2

> <PUBCHEM_CACTVS_ROTATABLE_BOND>
6

> <PUBCHEM_CACTVS_SUBSKEYS>
AAADceB7sAAAAAAAAAAAAAAAAAAAAWAAAAA8YMEAAAAAAFgB1AAAHgAQCAAADSjBngQ32JdMEgCoAyXzfACCgC0xEqAJ2AG4dIiKaDLA3bGUYAhslgLYyCe82cOeiAACAAACAAAQAAQAAAQAAAAAAAAAAA==

> <PUBCHEM_IUPAC_OPENEYE_NAME>
1-[(4-amino-3-methyl-phenyl)methyl]-5-(2,2-diphenylacetyl)-6,7-dihydro-4H-imidazo[4,5-c]pyridine-6-carboxylic acid

> <PUBCHEM_IUPAC_CAS_NAME>
1-[(4-amino-3-methylphenyl)methyl]-5-(1-oxo-2,2-diphenylethyl)-6,7-dihydro-4H-imidazo[4,5-c]pyridine-6-carboxylic acid

> <PUBCHEM_IUPAC_NAME>
1-[(4-amino-3-methylphenyl)methyl]-5-(2,2-diphenylacetyl)-6,7-dihydro-4H-imidazo[4,5-c]pyridine-6-carboxylic acid

> <PUBCHEM_IUPAC_SYSTEMATIC_NAME>
1-[(4-azanyl-3-methyl-phenyl)methyl]-5-(2,2-diphenylethanoyl)-6,7-dihydro-4H-imidazo[4,5-c]pyridine-6-carboxylic acid

> <PUBCHEM_IUPAC_TRADITIONAL_NAME>
1-(4-amino-3-methyl-benzyl)-5-(2,2-diphenylacetyl)-6,7-dihydro-4H-imidazo[4,5-c]pyridine-6-carboxylic acid

> <PUBCHEM_IUPAC_INCHI>
InChI=1S/C29H28N4O3/c1-19-14-20(12-13-23(19)30)16-32-18-31-24-17-33(26(29(35)36)15-25(24)32)28(34)27(21-8-4-2-5-9-21)22-10-6-3-7-11-22/h2-14,18,26-27H,15-17,30H2,1H3,(H,35,36)

> <PUBCHEM_IUPAC_INCHIKEY>
KLVDUSUYBDMJKR-UHFFFAOYSA-N

> <PUBCHEM_XLOGP3_AA>
3.6

> <PUBCHEM_EXACT_MASS>
480.216141

> <PUBCHEM_MOLECULAR_FORMULA>
C29H28N4O3

> <PUBCHEM_MOLECULAR_WEIGHT>
480.55762

> <PUBCHEM_OPENEYE_CAN_SMILES>
CC1=C(C=CC(=C1)CN2C=NC3=C2CC(N(C3)C(=O)C(C4=CC=CC=C4)C5=CC=CC=C5)C(=O)O)N

> <PUBCHEM_OPENEYE_ISO_SMILES>
CC1=C(C=CC(=C1)CN2C=NC3=C2CC(N(C3)C(=O)C(C4=CC=CC=C4)C5=CC=CC=C5)C(=O)O)N

> <PUBCHEM_CACTVS_TPSA>
101

> <PUBCHEM_MONOISOTOPIC_WEIGHT>
480.216141

> <PUBCHEM_TOTAL_CHARGE>
0

> <PUBCHEM_HEAVY_ATOM_COUNT>
36

> <PUBCHEM_ATOM_DEF_STEREO_COUNT>
0

> <PUBCHEM_ATOM_UDEF_STEREO_COUNT>
1

> <PUBCHEM_BOND_DEF_STEREO_COUNT>
0

> <PUBCHEM_BOND_UDEF_STEREO_COUNT>
0

> <PUBCHEM_ISOTOPIC_ATOM_COUNT>
0

> <PUBCHEM_COMPONENT_COUNT>
1

> <PUBCHEM_CACTVS_TAUTO_COUNT>
1

> <PUBCHEM_COORDINATE_TYPE>
1
5
255

> <PUBCHEM_BONDANNOTATIONS>
10  12  8
18  22  8
18  24  8
19  23  8
19  25  8
20  21  8
20  26  8
21  27  8
22  30  8
23  31  8
24  32  8
25  33  8
26  28  8
27  29  8
28  29  8
30  34  8
31  35  8
32  34  8
33  35  8
5  10  8
5  17  8
6  12  8
6  17  8
8  37  3

$$$$

