   Color/Form

     * Solid
     * Yellow tan crystals

   from [1]HSDB

   Odor
        Slightly aromatic odor
   from [2]HSDB

   Melting Point
        85 deg C
   from [3]HSDB

   Corrosivity
        ...Virtually noncorrosive to most spray equipment materials, but
   is mildly corrosive to aluminum.
   from [4]HSDB

   Density/Specific Gravity
        1.155 g/ml
   from [5]HSDB

   Octanol/Water Partition Coefficient
        log Kow = 4.48
   from [6]HSDB

   Solubilities

     * Solubility in xylene at 25 deg C: 30%
     * Solublity in organic solvents g/ml @ 25 deg C: acetone, 40;
       chlorobenzene, 35-40; ethanol, <5; kerosene, <1; xylene, 30.
     * In water, 0.398 mg/l @ 25 deg C

   from [7]HSDB

   Vapor Pressure
        2.4X10-6 mm Hg @ 25 deg C
   from [8]HSDB

   Other Chemical/Physical Properties

     * Relatively stable to light
     * Thermally stable up to 175 deg C; total decomposition occurs above
       290 deg C.

   from [9]HSDB

   Computed Properties
   Molecular Weight                  342.13096 [g/mol]
   Molecular Formula                 C[14]H[9]Cl[2]NO[5]
   XLogP3                            4.5
   H-Bond Donor                      0
   H-Bond Acceptor                   5
   Rotatable Bond Count              4
   Exact Mass                        340.985778
   MonoIsotopic Mass                 340.985778
   Topological Polar Surface Area    81.4
   Heavy Atom Count                  22
   Formal Charge                     0
   Complexity                        417
   Isotope Atom Count                0
   Defined Atom Stereocenter Count   0
   Undefined Atom Stereocenter Count 0
   Defined Bond Stereocenter Count   0
   Undefined Bond Stereocenter Count 0
   Covalently-Bonded Unit Count      1
   Feature 3D Acceptor Count         4
   Feature 3D Anion Count            1
   Feature 3D Ring Count             2
   Effective Rotor Count             5
   Conformer Sampling RMSD           0.8
   CID Conformer Count               [10]24

References

   1. http://toxnet.nlm.nih.gov/cgi-bin/sis/search/r?dbs+hsdb:@term+@rn+@rel+42576-02-3
   2. http://toxnet.nlm.nih.gov/cgi-bin/sis/search/r?dbs+hsdb:@term+@rn+@rel+42576-02-3
   3. http://toxnet.nlm.nih.gov/cgi-bin/sis/search/r?dbs+hsdb:@term+@rn+@rel+42576-02-3
   4. http://toxnet.nlm.nih.gov/cgi-bin/sis/search/r?dbs+hsdb:@term+@rn+@rel+42576-02-3
   5. http://toxnet.nlm.nih.gov/cgi-bin/sis/search/r?dbs+hsdb:@term+@rn+@rel+42576-02-3
   6. http://toxnet.nlm.nih.gov/cgi-bin/sis/search/r?dbs+hsdb:@term+@rn+@rel+42576-02-3
   7. http://toxnet.nlm.nih.gov/cgi-bin/sis/search/r?dbs+hsdb:@term+@rn+@rel+42576-02-3
   8. http://toxnet.nlm.nih.gov/cgi-bin/sis/search/r?dbs+hsdb:@term+@rn+@rel+42576-02-3
   9. http://toxnet.nlm.nih.gov/cgi-bin/sis/search/r?dbs+hsdb:@term+@rn+@rel+42576-02-3
  10. http://pubchem.ncbi.nlm.nih.gov/vw3d/vw3d.cgi?cid=39230
