9548786
  -OEChem-07051213102D

 41 43  0     1  0  0  0  0  0999 V2000
    3.7320   -0.7306    0.0000 O   0  5  0  0  0  0  0  0  0  0  0  0
    3.3660   -2.7694    0.0000 O   0  0  0  0  0  0  0  0  0  0  0  0
    3.7320    0.2694    0.0000 N   0  3  2  0  0  0  0  0  0  0  0  0
    3.7320    1.2694    0.0000 C   0  0  2  0  0  0  0  0  0  0  0  0
    2.8660   -0.2306    0.0000 C   0  0  1  0  0  0  0  0  0  0  0  0
    2.8660    1.7694    0.0000 C   0  0  1  0  0  0  0  0  0  0  0  0
    4.6260   -0.2652    0.0000 C   0  0  0  0  0  0  0  0  0  0  0  0
    4.6260    1.8041    0.0000 C   0  0  0  0  0  0  0  0  0  0  0  0
    5.5321    0.2486    0.0000 C   0  0  2  0  0  0  0  0  0  0  0  0
    2.0000    0.2694    0.0000 C   0  0  0  0  0  0  0  0  0  0  0  0
    2.0000    1.2694    0.0000 C   0  0  0  0  0  0  0  0  0  0  0  0
    5.5321    1.2902    0.0000 C   0  0  0  0  0  0  0  0  0  0  0  0
    2.8660    2.7694    0.0000 C   0  0  0  0  0  0  0  0  0  0  0  0
    2.8660   -1.2306    0.0000 C   0  0  0  0  0  0  0  0  0  0  0  0
    6.3961   -0.2547    0.0000 C   0  0  0  0  0  0  0  0  0  0  0  0
    2.0570   -1.8184    0.0000 C   0  0  0  0  0  0  0  0  0  0  0  0
    3.6750   -1.8184    0.0000 C   0  0  0  0  0  0  0  0  0  0  0  0
    2.3660   -2.7694    0.0000 C   0  0  0  0  0  0  0  0  0  0  0  0
    3.7255    2.1194    0.0000 H   0  0  0  0  0  0  0  0  0  0  0  0
    2.3291   -0.5406    0.0000 H   0  0  0  0  0  0  0  0  0  0  0  0
    3.4030    2.0794    0.0000 H   0  0  0  0  0  0  0  0  0  0  0  0
    4.2214   -0.7350    0.0000 H   0  0  0  0  0  0  0  0  0  0  0  0
    5.0196   -0.7443    0.0000 H   0  0  0  0  0  0  0  0  0  0  0  0
    5.0196    2.2831    0.0000 H   0  0  0  0  0  0  0  0  0  0  0  0
    4.2214    2.2739    0.0000 H   0  0  0  0  0  0  0  0  0  0  0  0
    5.5285   -0.3714    0.0000 H   0  0  0  0  0  0  0  0  0  0  0  0
    1.3894    0.3771    0.0000 H   0  0  0  0  0  0  0  0  0  0  0  0
    1.7880   -0.3132    0.0000 H   0  0  0  0  0  0  0  0  0  0  0  0
    1.7880    1.8520    0.0000 H   0  0  0  0  0  0  0  0  0  0  0  0
    1.3894    1.1618    0.0000 H   0  0  0  0  0  0  0  0  0  0  0  0
    6.1429    1.1841    0.0000 H   0  0  0  0  0  0  0  0  0  0  0  0
    5.7411    1.8739    0.0000 H   0  0  0  0  0  0  0  0  0  0  0  0
    3.4860    2.7694    0.0000 H   0  0  0  0  0  0  0  0  0  0  0  0
    2.8660    3.3894    0.0000 H   0  0  0  0  0  0  0  0  0  0  0  0
    2.2460    2.7694    0.0000 H   0  0  0  0  0  0  0  0  0  0  0  0
    6.0841   -0.7905    0.0000 H   0  0  0  0  0  0  0  0  0  0  0  0
    6.9319   -0.5668    0.0000 H   0  0  0  0  0  0  0  0  0  0  0  0
    6.7082    0.2810    0.0000 H   0  0  0  0  0  0  0  0  0  0  0  0
    1.4674   -1.6268    0.0000 H   0  0  0  0  0  0  0  0  0  0  0  0
    4.2647   -1.6268    0.0000 H   0  0  0  0  0  0  0  0  0  0  0  0
    2.0016   -3.2710    0.0000 H   0  0  0  0  0  0  0  0  0  0  0  0
  3  1  1  1  0  0  0
  2 17  1  0  0  0  0
  2 18  1  0  0  0  0
  3  4  1  0  0  0  0
  3  5  1  0  0  0  0
  3  7  1  0  0  0  0
  4  6  1  0  0  0  0
  4  8  1  0  0  0  0
  4 19  1  1  0  0  0
  5 10  1  0  0  0  0
  5 14  1  6  0  0  0
  5 20  1  0  0  0  0
  6 11  1  0  0  0  0
  6 13  1  1  0  0  0
  6 21  1  0  0  0  0
  7  9  1  0  0  0  0
  7 22  1  0  0  0  0
  7 23  1  0  0  0  0
  8 12  1  0  0  0  0
  8 24  1  0  0  0  0
  8 25  1  0  0  0  0
  9 12  1  0  0  0  0
  9 15  1  6  0  0  0
  9 26  1  0  0  0  0
 10 11  1  0  0  0  0
 10 27  1  0  0  0  0
 10 28  1  0  0  0  0
 11 29  1  0  0  0  0
 11 30  1  0  0  0  0
 12 31  1  0  0  0  0
 12 32  1  0  0  0  0
 13 33  1  0  0  0  0
 13 34  1  0  0  0  0
 13 35  1  0  0  0  0
 14 16  1  0  0  0  0
 14 17  2  0  0  0  0
 15 36  1  0  0  0  0
 15 37  1  0  0  0  0
 15 38  1  0  0  0  0
 16 18  2  0  0  0  0
 16 39  1  0  0  0  0
 17 40  1  0  0  0  0
 18 41  1  0  0  0  0
M  CHG  2   1  -1   3   1
M  END
> <PUBCHEM_COMPOUND_CID>
9548786

> <PUBCHEM_COMPOUND_CANONICALIZED>
1

> <PUBCHEM_CACTVS_COMPLEXITY>
309

> <PUBCHEM_CACTVS_HBOND_ACCEPTOR>
2

> <PUBCHEM_CACTVS_HBOND_DONOR>
0

> <PUBCHEM_CACTVS_ROTATABLE_BOND>
1

> <PUBCHEM_CACTVS_SUBSKEYS>
AAADceByMAAAAAAAAAAAAAAAAAAAASAAAAAsWAAAAAAAAACxgAAAHgAEAAAADSjhmAYyBIMQBECIAihSgACCCAAkIAAoiAEODMgMJhoEtQuGGSjmwBGIKYO8yOCOAAAAAAAAAAAAAAAAAAAAAAAAAAAAAA==

> <PUBCHEM_IUPAC_OPENEYE_NAME>
(1R,4S,5R,7S,9aS)-4-(3-furyl)-1,7-dimethyl-5-oxido-2,3,4,6,7,8,9,9a-octahydro-1H-quinolizin-5-ium

> <PUBCHEM_IUPAC_CAS_NAME>
(1R,4S,5R,7S,9aS)-4-(3-furanyl)-1,7-dimethyl-5-oxido-2,3,4,6,7,8,9,9a-octahydro-1H-quinolizin-5-ium

> <PUBCHEM_IUPAC_NAME>
(1R,4S,5R,7S,9aS)-4-(furan-3-yl)-1,7-dimethyl-5-oxido-2,3,4,6,7,8,9,9a-octahydro-1H-quinolizin-5-ium

> <PUBCHEM_IUPAC_SYSTEMATIC_NAME>
(1R,4S,5R,7S,9aS)-4-(furan-3-yl)-1,7-dimethyl-5-oxidanidyl-2,3,4,6,7,8,9,9a-octahydro-1H-quinolizin-5-ium

> <PUBCHEM_IUPAC_TRADITIONAL_NAME>
(1R,4S,5R,7S,9aS)-4-(3-furyl)-1,7-dimethyl-5-oxido-quinolizidin-5-ium

> <PUBCHEM_IUPAC_INCHI>
InChI=1S/C15H23NO2/c1-11-3-5-14-12(2)4-6-15(16(14,17)9-11)13-7-8-18-10-13/h7-8,10-12,14-15H,3-6,9H2,1-2H3/t11-,12+,14-,15-,16+/m0/s1

> <PUBCHEM_IUPAC_INCHIKEY>
HISDAJRMKAJROU-PTNZTPPNSA-N

> <PUBCHEM_XLOGP3_AA>
2.9

> <PUBCHEM_EXACT_MASS>
249.172879

> <PUBCHEM_MOLECULAR_FORMULA>
C15H23NO2

> <PUBCHEM_MOLECULAR_WEIGHT>
249.34862

> <PUBCHEM_OPENEYE_CAN_SMILES>
CC1CCC2C(CCC([N+]2(C1)[O-])C3=COC=C3)C

> <PUBCHEM_OPENEYE_ISO_SMILES>
C[C@H]1CC[C@H]2[C@@H](CC[C@H]([N@+]2(C1)[O-])C3=COC=C3)C

> <PUBCHEM_CACTVS_TPSA>
31.2

> <PUBCHEM_MONOISOTOPIC_WEIGHT>
249.172879

> <PUBCHEM_TOTAL_CHARGE>
0

> <PUBCHEM_HEAVY_ATOM_COUNT>
18

> <PUBCHEM_ATOM_DEF_STEREO_COUNT>
5

> <PUBCHEM_ATOM_UDEF_STEREO_COUNT>
0

> <PUBCHEM_BOND_DEF_STEREO_COUNT>
0

> <PUBCHEM_BOND_UDEF_STEREO_COUNT>
0

> <PUBCHEM_ISOTOPIC_ATOM_COUNT>
0

> <PUBCHEM_COMPONENT_COUNT>
1

> <PUBCHEM_CACTVS_TAUTO_COUNT>
1

> <PUBCHEM_COORDINATE_TYPE>
1
5
255

> <PUBCHEM_BONDANNOTATIONS>
3  1  5
14  16  8
14  17  8
16  18  8
2  17  8
2  18  8
4  19  5
5  14  6
6  13  5
9  15  6

$$$$

