5280
  -OEChem-06261200372D

 30 31  0     1  0  0  0  0  0999 V2000
    4.5411   -0.7063    0.0000 O   0  0  0  0  0  0  0  0  0  0  0  0
    4.4131   -3.3799    0.0000 O   0  0  0  0  0  0  0  0  0  0  0  0
    2.0000    0.8815    0.0000 O   0  0  0  0  0  0  0  0  0  0  0  0
    3.7320    3.8815    0.0000 O   0  0  0  0  0  0  0  0  0  0  0  0
    3.7320    0.8815    0.0000 N   0  0  0  0  0  0  0  0  0  0  0  0
    2.8660    2.3815    0.0000 N   0  0  0  0  0  0  0  0  0  0  0  0
    3.7320   -0.1185    0.0000 C   0  0  3  0  0  0  0  0  0  0  0  0
    2.9230   -0.7063    0.0000 C   0  0  0  0  0  0  0  0  0  0  0  0
    3.2320   -1.6573    0.0000 C   0  0  0  0  0  0  0  0  0  0  0  0
    4.2320   -1.6573    0.0000 C   0  0  3  0  0  0  0  0  0  0  0  0
    4.8198   -2.4664    0.0000 C   0  0  0  0  0  0  0  0  0  0  0  0
    4.5981    1.3815    0.0000 C   0  0  0  0  0  0  0  0  0  0  0  0
    2.8660    1.3815    0.0000 C   0  0  0  0  0  0  0  0  0  0  0  0
    4.5981    2.3815    0.0000 C   0  0  0  0  0  0  0  0  0  0  0  0
    3.7320    2.8815    0.0000 C   0  0  0  0  0  0  0  0  0  0  0  0
    5.4641    2.8815    0.0000 C   0  0  0  0  0  0  0  0  0  0  0  0
    4.2845    0.1630    0.0000 H   0  0  0  0  0  0  0  0  0  0  0  0
    2.6130   -0.1694    0.0000 H   0  0  0  0  0  0  0  0  0  0  0  0
    2.3566   -0.9585    0.0000 H   0  0  0  0  0  0  0  0  0  0  0  0
    2.6256   -1.7862    0.0000 H   0  0  0  0  0  0  0  0  0  0  0  0
    3.2969   -2.2740    0.0000 H   0  0  0  0  0  0  0  0  0  0  0  0
    4.8444   -1.5603    0.0000 H   0  0  0  0  0  0  0  0  0  0  0  0
    5.3338   -2.8131    0.0000 H   0  0  0  0  0  0  0  0  0  0  0  0
    5.2505   -2.0204    0.0000 H   0  0  0  0  0  0  0  0  0  0  0  0
    5.1350    1.0715    0.0000 H   0  0  0  0  0  0  0  0  0  0  0  0
    2.3291    2.6915    0.0000 H   0  0  0  0  0  0  0  0  0  0  0  0
    4.7775   -3.8815    0.0000 H   0  0  0  0  0  0  0  0  0  0  0  0
    5.7741    2.3446    0.0000 H   0  0  0  0  0  0  0  0  0  0  0  0
    6.0010    3.1915    0.0000 H   0  0  0  0  0  0  0  0  0  0  0  0
    5.1541    3.4184    0.0000 H   0  0  0  0  0  0  0  0  0  0  0  0
  1  7  1  0  0  0  0
  1 10  1  0  0  0  0
  2 11  1  0  0  0  0
  2 27  1  0  0  0  0
  3 13  2  0  0  0  0
  4 15  2  0  0  0  0
  5  7  1  0  0  0  0
  5 12  1  0  0  0  0
  5 13  1  0  0  0  0
  6 13  1  0  0  0  0
  6 15  1  0  0  0  0
  6 26  1  0  0  0  0
  7  8  1  0  0  0  0
  7 17  1  0  0  0  0
  8  9  1  0  0  0  0
  8 18  1  0  0  0  0
  8 19  1  0  0  0  0
  9 10  1  0  0  0  0
  9 20  1  0  0  0  0
  9 21  1  0  0  0  0
 10 11  1  0  0  0  0
 10 22  1  0  0  0  0
 11 23  1  0  0  0  0
 11 24  1  0  0  0  0
 12 14  2  0  0  0  0
 12 25  1  0  0  0  0
 14 15  1  0  0  0  0
 14 16  1  0  0  0  0
 16 28  1  0  0  0  0
 16 29  1  0  0  0  0
 16 30  1  0  0  0  0
M  END
> <PUBCHEM_COMPOUND_CID>
5280

> <PUBCHEM_COMPOUND_CANONICALIZED>
1

> <PUBCHEM_CACTVS_COMPLEXITY>
353

> <PUBCHEM_CACTVS_HBOND_ACCEPTOR>
4

> <PUBCHEM_CACTVS_HBOND_DONOR>
2

> <PUBCHEM_CACTVS_ROTATABLE_BOND>
2

> <PUBCHEM_CACTVS_SUBSKEYS>
AAADccBzOAAAAAAAAAAAAAAAAAAAASAAAAAgAAAAAAAAAAAAAAAAHgAQCAAADBThgAYDAAPABgCIAgFWUACAAAAAAAAAAAEIAECBEAIAgQAOQAAMByIDAMCwMAIAAAAAAAAAAAAAAAAAAAAAAAAAAAAAAA==

> <PUBCHEM_IUPAC_OPENEYE_NAME>
1-[5-(hydroxymethyl)tetrahydrofuran-2-yl]-5-methyl-pyrimidine-2,4-dione

> <PUBCHEM_IUPAC_CAS_NAME>
1-[5-(hydroxymethyl)-2-oxolanyl]-5-methylpyrimidine-2,4-dione

> <PUBCHEM_IUPAC_NAME>
1-[5-(hydroxymethyl)oxolan-2-yl]-5-methylpyrimidine-2,4-dione

> <PUBCHEM_IUPAC_SYSTEMATIC_NAME>
1-[5-(hydroxymethyl)oxolan-2-yl]-5-methyl-pyrimidine-2,4-dione

> <PUBCHEM_IUPAC_TRADITIONAL_NAME>
5-methyl-1-(5-methyloltetrahydrofuran-2-yl)pyrimidine-2,4-quinone

> <PUBCHEM_IUPAC_INCHI>
InChI=1S/C10H14N2O4/c1-6-4-12(10(15)11-9(6)14)8-3-2-7(5-13)16-8/h4,7-8,13H,2-3,5H2,1H3,(H,11,14,15)

> <PUBCHEM_IUPAC_INCHIKEY>
XKKCQTLDIPIRQD-UHFFFAOYSA-N

> <PUBCHEM_XLOGP3>
-1.7

> <PUBCHEM_EXACT_MASS>
226.095357

> <PUBCHEM_MOLECULAR_FORMULA>
C10H14N2O4

> <PUBCHEM_MOLECULAR_WEIGHT>
226.22916

> <PUBCHEM_OPENEYE_CAN_SMILES>
CC1=CN(C(=O)NC1=O)C2CCC(O2)CO

> <PUBCHEM_OPENEYE_ISO_SMILES>
CC1=CN(C(=O)NC1=O)C2CCC(O2)CO

> <PUBCHEM_CACTVS_TPSA>
78.9

> <PUBCHEM_MONOISOTOPIC_WEIGHT>
226.095357

> <PUBCHEM_TOTAL_CHARGE>
0

> <PUBCHEM_HEAVY_ATOM_COUNT>
16

> <PUBCHEM_ATOM_DEF_STEREO_COUNT>
0

> <PUBCHEM_ATOM_UDEF_STEREO_COUNT>
2

> <PUBCHEM_BOND_DEF_STEREO_COUNT>
0

> <PUBCHEM_BOND_UDEF_STEREO_COUNT>
0

> <PUBCHEM_ISOTOPIC_ATOM_COUNT>
0

> <PUBCHEM_COMPONENT_COUNT>
1

> <PUBCHEM_CACTVS_TAUTO_COUNT>
3

> <PUBCHEM_COORDINATE_TYPE>
1
5
255

> <PUBCHEM_BONDANNOTATIONS>
10  11  3
12  14  8
14  15  8
5  12  8
5  13  8
7  5  3
6  13  8
6  15  8

$$$$

