37995
  -OEChem-07051213132D

 35 35  0     0  0  0  0  0  0999 V2000
    4.2320   -0.2679    0.0000 S   0  0  0  0  0  0  0  0  0  0  0  0
    3.7320   -1.1340    0.0000 P   0  0  0  0  0  0  0  0  0  0  0  0
    4.5981   -1.6340    0.0000 O   0  0  0  0  0  0  0  0  0  0  0  0
    6.3301    1.3660    0.0000 O   0  0  0  0  0  0  0  0  0  0  0  0
    2.8660   -0.6340    0.0000 O   0  0  0  0  0  0  0  0  0  0  0  0
    3.2320   -2.0000    0.0000 O   0  0  0  0  0  0  0  0  0  0  0  0
    6.3301   -1.6340    0.0000 N   0  0  0  0  0  0  0  0  0  0  0  0
    7.1962   -0.1340    0.0000 N   0  0  0  0  0  0  0  0  0  0  0  0
    8.0622   -1.6340    0.0000 C   0  0  0  0  0  0  0  0  0  0  0  0
    7.1962   -1.1340    0.0000 C   0  0  0  0  0  0  0  0  0  0  0  0
    5.4641   -1.1340    0.0000 C   0  0  0  0  0  0  0  0  0  0  0  0
    6.3301    0.3660    0.0000 C   0  0  0  0  0  0  0  0  0  0  0  0
    5.4641   -0.1340    0.0000 C   0  0  0  0  0  0  0  0  0  0  0  0
    8.0622   -2.6340    0.0000 C   0  0  0  0  0  0  0  0  0  0  0  0
    7.1962    1.8660    0.0000 C   0  0  0  0  0  0  0  0  0  0  0  0
    7.1962    2.8660    0.0000 C   0  0  0  0  0  0  0  0  0  0  0  0
    3.7320   -2.8660    0.0000 C   0  0  0  0  0  0  0  0  0  0  0  0
    2.0000   -1.1340    0.0000 C   0  0  0  0  0  0  0  0  0  0  0  0
    8.6728   -1.7416    0.0000 H   0  0  0  0  0  0  0  0  0  0  0  0
    8.2742   -1.0514    0.0000 H   0  0  0  0  0  0  0  0  0  0  0  0
    4.9272    0.1760    0.0000 H   0  0  0  0  0  0  0  0  0  0  0  0
    7.4422   -2.6340    0.0000 H   0  0  0  0  0  0  0  0  0  0  0  0
    8.0622   -3.2540    0.0000 H   0  0  0  0  0  0  0  0  0  0  0  0
    8.6822   -2.6340    0.0000 H   0  0  0  0  0  0  0  0  0  0  0  0
    7.4082    1.2834    0.0000 H   0  0  0  0  0  0  0  0  0  0  0  0
    7.8067    1.9737    0.0000 H   0  0  0  0  0  0  0  0  0  0  0  0
    7.8162    2.8660    0.0000 H   0  0  0  0  0  0  0  0  0  0  0  0
    7.1962    3.4860    0.0000 H   0  0  0  0  0  0  0  0  0  0  0  0
    6.5762    2.8660    0.0000 H   0  0  0  0  0  0  0  0  0  0  0  0
    3.1951   -3.1760    0.0000 H   0  0  0  0  0  0  0  0  0  0  0  0
    4.0420   -3.4030    0.0000 H   0  0  0  0  0  0  0  0  0  0  0  0
    4.2690   -2.5560    0.0000 H   0  0  0  0  0  0  0  0  0  0  0  0
    1.6900   -0.5970    0.0000 H   0  0  0  0  0  0  0  0  0  0  0  0
    1.4631   -1.4440    0.0000 H   0  0  0  0  0  0  0  0  0  0  0  0
    2.3100   -1.6709    0.0000 H   0  0  0  0  0  0  0  0  0  0  0  0
  1  2  2  0  0  0  0
  2  3  1  0  0  0  0
  2  5  1  0  0  0  0
  2  6  1  0  0  0  0
  3 11  1  0  0  0  0
  4 12  1  0  0  0  0
  4 15  1  0  0  0  0
  5 18  1  0  0  0  0
  6 17  1  0  0  0  0
  7 10  1  0  0  0  0
  7 11  2  0  0  0  0
  8 10  2  0  0  0  0
  8 12  1  0  0  0  0
  9 10  1  0  0  0  0
  9 14  1  0  0  0  0
  9 19  1  0  0  0  0
  9 20  1  0  0  0  0
 11 13  1  0  0  0  0
 12 13  2  0  0  0  0
 13 21  1  0  0  0  0
 14 22  1  0  0  0  0
 14 23  1  0  0  0  0
 14 24  1  0  0  0  0
 15 16  1  0  0  0  0
 15 25  1  0  0  0  0
 15 26  1  0  0  0  0
 16 27  1  0  0  0  0
 16 28  1  0  0  0  0
 16 29  1  0  0  0  0
 17 30  1  0  0  0  0
 17 31  1  0  0  0  0
 17 32  1  0  0  0  0
 18 33  1  0  0  0  0
 18 34  1  0  0  0  0
 18 35  1  0  0  0  0
M  END
> <PUBCHEM_COMPOUND_CID>
37995

> <PUBCHEM_COMPOUND_CANONICALIZED>
1

> <PUBCHEM_CACTVS_COMPLEXITY>
287

> <PUBCHEM_CACTVS_HBOND_ACCEPTOR>
7

> <PUBCHEM_CACTVS_HBOND_DONOR>
0

> <PUBCHEM_CACTVS_ROTATABLE_BOND>
7

> <PUBCHEM_CACTVS_SUBSKEYS>
AAADceBzOAJAAAAAAAAAAAAAAAAAAAAAAAAsAAAAAAAAAAABgAAAHgAAACAACAChkwIzlJYIFRCgACJiZACAiCkBIqABECA2bBCEDQBEaEgODCiLAA7AICAAAAAAAAAAAAAAAAAAAAAAAAAAAAAAAAAAAA==

> <PUBCHEM_IUPAC_OPENEYE_NAME>
(6-ethoxy-2-ethyl-pyrimidin-4-yl)oxy-dimethoxy-thioxo-$l^{5}-phosphane

> <PUBCHEM_IUPAC_CAS_NAME>
(6-ethoxy-2-ethyl-4-pyrimidinyl)oxy-dimethoxy-sulfanylidenephosphorane

> <PUBCHEM_IUPAC_NAME>
(6-ethoxy-2-ethylpyrimidin-4-yl)oxy-dimethoxy-sulfanylidene-$l^{5}-phosphane

> <PUBCHEM_IUPAC_SYSTEMATIC_NAME>
(6-ethoxy-2-ethyl-pyrimidin-4-yl)oxy-dimethoxy-sulfanylidene-$l^{5}-phosphane

> <PUBCHEM_IUPAC_TRADITIONAL_NAME>
(6-ethoxy-2-ethyl-pyrimidin-4-yl)oxy-dimethoxy-thioxo-phosphorane

> <PUBCHEM_IUPAC_INCHI>
InChI=1S/C10H17N2O4PS/c1-5-8-11-9(15-6-2)7-10(12-8)16-17(18,13-3)14-4/h7H,5-6H2,1-4H3

> <PUBCHEM_IUPAC_INCHIKEY>
FGIWFCGDPUIBEZ-UHFFFAOYSA-N

> <PUBCHEM_XLOGP3_AA>
3.2

> <PUBCHEM_EXACT_MASS>
292.064665

> <PUBCHEM_MOLECULAR_FORMULA>
C10H17N2O4PS

> <PUBCHEM_MOLECULAR_WEIGHT>
292.291742

> <PUBCHEM_OPENEYE_CAN_SMILES>
CCC1=NC(=CC(=N1)OP(=S)(OC)OC)OCC

> <PUBCHEM_OPENEYE_ISO_SMILES>
CCC1=NC(=CC(=N1)OP(=S)(OC)OC)OCC

> <PUBCHEM_CACTVS_TPSA>
94.8

> <PUBCHEM_MONOISOTOPIC_WEIGHT>
292.064665

> <PUBCHEM_TOTAL_CHARGE>
0

> <PUBCHEM_HEAVY_ATOM_COUNT>
18

> <PUBCHEM_ATOM_DEF_STEREO_COUNT>
0

> <PUBCHEM_ATOM_UDEF_STEREO_COUNT>
0

> <PUBCHEM_BOND_DEF_STEREO_COUNT>
0

> <PUBCHEM_BOND_UDEF_STEREO_COUNT>
0

> <PUBCHEM_ISOTOPIC_ATOM_COUNT>
0

> <PUBCHEM_COMPONENT_COUNT>
1

> <PUBCHEM_CACTVS_TAUTO_COUNT>
3

> <PUBCHEM_COORDINATE_TYPE>
1
5
255

> <PUBCHEM_BONDANNOTATIONS>
11  13  8
12  13  8
7  10  8
7  11  8
8  10  8
8  12  8

$$$$

