586266
  -OEChem-06241222462D

 26 22  0     0  0  0  0  0  0999 V2000
    3.3444    0.1158    0.0000 Ge  0  0  0  0  0  0  0  0  0  0  0  0
    4.3332    0.2649    0.0000 O   0  0  0  0  0  0  0  0  0  0  0  0
    3.6392    1.0714    0.0000 O   0  0  0  0  0  0  0  0  0  0  0  0
    2.4328   -0.2953    0.0000 O   0  0  0  0  0  0  0  0  0  0  0  0
    2.4783    0.6158    0.0000 C   0  0  0  0  0  0  0  0  0  0  0  0
    4.3581    1.2646    0.0000 C   0  0  0  0  0  0  0  0  0  0  0  0
    4.7380    0.7324    0.0000 C   0  0  0  0  0  0  0  0  0  0  0  0
    2.6796   -1.2646    0.0000 C   0  0  0  0  0  0  0  0  0  0  0  0
    2.9226   -0.3386    0.0000 H   0  0  0  0  0  0  0  0  0  0  0  0
    3.2980    0.7341    0.0000 H   0  0  0  0  0  0  0  0  0  0  0  0
    3.6807   -0.4050    0.0000 H   0  0  0  0  0  0  0  0  0  0  0  0
    2.7883    1.1527    0.0000 H   0  0  0  0  0  0  0  0  0  0  0  0
    1.9414    0.9258    0.0000 H   0  0  0  0  0  0  0  0  0  0  0  0
    2.1683    0.0789    0.0000 H   0  0  0  0  0  0  0  0  0  0  0  0
    4.3177   -0.3549    0.0000 H   0  0  0  0  0  0  0  0  0  0  0  0
    3.0468    1.2542    0.0000 H   0  0  0  0  0  0  0  0  0  0  0  0
    2.0000    0.1483    0.0000 H   0  0  0  0  0  0  0  0  0  0  0  0
    3.7383    1.2800    0.0000 H   0  0  0  0  0  0  0  0  0  0  0  0
    4.3736    1.8844    0.0000 H   0  0  0  0  0  0  0  0  0  0  0  0
    4.9779    1.2491    0.0000 H   0  0  0  0  0  0  0  0  0  0  0  0
    4.9208    1.3249    0.0000 H   0  0  0  0  0  0  0  0  0  0  0  0
    5.3305    0.5497    0.0000 H   0  0  0  0  0  0  0  0  0  0  0  0
    4.5553    0.1400    0.0000 H   0  0  0  0  0  0  0  0  0  0  0  0
    2.8327   -1.8654    0.0000 H   0  0  0  0  0  0  0  0  0  0  0  0
    3.2805   -1.1115    0.0000 H   0  0  0  0  0  0  0  0  0  0  0  0
    2.0788   -1.4176    0.0000 H   0  0  0  0  0  0  0  0  0  0  0  0
  1  5  1  0  0  0  0
  1  9  1  0  0  0  0
  1 10  1  0  0  0  0
  1 11  1  0  0  0  0
  2  6  1  0  0  0  0
  2 15  1  0  0  0  0
  3  7  1  0  0  0  0
  3 16  1  0  0  0  0
  4  8  1  0  0  0  0
  4 17  1  0  0  0  0
  5 12  1  0  0  0  0
  5 13  1  0  0  0  0
  5 14  1  0  0  0  0
  6 18  1  0  0  0  0
  6 19  1  0  0  0  0
  6 20  1  0  0  0  0
  7 21  1  0  0  0  0
  7 22  1  0  0  0  0
  7 23  1  0  0  0  0
  8 24  1  0  0  0  0
  8 25  1  0  0  0  0
  8 26  1  0  0  0  0
M  END
> <PUBCHEM_COMPOUND_CID>
586266

> <PUBCHEM_COMPOUND_CANONICALIZED>
1

> <PUBCHEM_CACTVS_COMPLEXITY>
11.2

> <PUBCHEM_CACTVS_HBOND_ACCEPTOR>
3

> <PUBCHEM_CACTVS_HBOND_DONOR>
3

> <PUBCHEM_CACTVS_ROTATABLE_BOND>
0

> <PUBCHEM_CACTVS_SUBSKEYS>
AAADceBgMAAAAAAAgAAAAAAAAAAAAAAAAAAAAAAAAAAAAAAAAAAAEgAACAAAAAAAAAICAAAAAgAAAAAAAAAAAAAAAAAAAAAAAAAAEAAAAAAAAAAAAAAAAAAAAAAAAAAAAAAAAAAAAAAAAAAAAAAAAAAAAA==

> <PUBCHEM_IUPAC_OPENEYE_NAME>
methanol; methylgermane

> <PUBCHEM_IUPAC_CAS_NAME>
methanol; methylgermane

> <PUBCHEM_IUPAC_NAME>
methanol; methylgermane

> <PUBCHEM_IUPAC_SYSTEMATIC_NAME>
methanol; methylgermane

> <PUBCHEM_IUPAC_TRADITIONAL_NAME>
methanol; methylgermane

> <PUBCHEM_IUPAC_INCHI>
InChI=1S/CH6Ge.3CH4O/c4*1-2/h1-2H3;3*2H,1H3

> <PUBCHEM_IUPAC_INCHIKEY>
VRCJQNDQFWDHSI-UHFFFAOYSA-N

> <PUBCHEM_EXACT_MASS>
188.046772

> <PUBCHEM_MOLECULAR_FORMULA>
C4H18GeO3

> <PUBCHEM_MOLECULAR_WEIGHT>
186.82392

> <PUBCHEM_OPENEYE_CAN_SMILES>
CO.CO.CO.C[GeH3]

> <PUBCHEM_OPENEYE_ISO_SMILES>
CO.CO.CO.C[GeH3]

> <PUBCHEM_CACTVS_TPSA>
60.7

> <PUBCHEM_MONOISOTOPIC_WEIGHT>
188.046772

> <PUBCHEM_TOTAL_CHARGE>
0

> <PUBCHEM_HEAVY_ATOM_COUNT>
8

> <PUBCHEM_ATOM_DEF_STEREO_COUNT>
0

> <PUBCHEM_ATOM_UDEF_STEREO_COUNT>
0

> <PUBCHEM_BOND_DEF_STEREO_COUNT>
0

> <PUBCHEM_BOND_UDEF_STEREO_COUNT>
0

> <PUBCHEM_ISOTOPIC_ATOM_COUNT>
0

> <PUBCHEM_COMPONENT_COUNT>
4

> <PUBCHEM_CACTVS_TAUTO_COUNT>
1

> <PUBCHEM_NONSTANDARDBOND>
1  2  6
1  3  6
1  4  6

> <PUBCHEM_COORDINATE_TYPE>
1
5
255

> <PUBCHEM_BONDANNOTATIONS>
1  2  4
1  3  4
1  4  4

$$$$

