17395568
  -OEChem-06241222512D

 65 68  0     1  0  0  0  0  0999 V2000
    6.5876   -2.6983    0.0000 S   0  0  0  0  0  0  0  0  0  0  0  0
    2.2575   -3.1983    0.0000 O   0  0  0  0  0  0  0  0  0  0  0  0
    7.0876   -3.5643    0.0000 O   0  0  0  0  0  0  0  0  0  0  0  0
    6.0876   -1.8323    0.0000 O   0  0  0  0  0  0  0  0  0  0  0  0
    2.6235    0.4924    0.0000 N   0  0  3  0  0  0  0  0  0  0  0  0
    3.1235   -1.6983    0.0000 N   0  0  0  0  0  0  0  0  0  0  0  0
    7.4536   -2.1983    0.0000 N   0  0  0  0  0  0  0  0  0  0  0  0
    3.6235    0.4924    0.0000 C   0  0  0  0  0  0  0  0  0  0  0  0
    2.0000   -0.2895    0.0000 C   0  0  0  0  0  0  0  0  0  0  0  0
    4.2470   -0.2895    0.0000 C   0  0  0  0  0  0  0  0  0  0  0  0
    2.2225   -1.2644    0.0000 C   0  0  0  0  0  0  0  0  0  0  0  0
    4.0245   -1.2644    0.0000 C   0  0  0  0  0  0  0  0  0  0  0  0
    2.1896    1.3933    0.0000 C   0  0  0  0  0  0  0  0  0  0  0  0
    3.1235   -2.6983    0.0000 C   0  0  0  0  0  0  0  0  0  0  0  0
    2.7529    2.2196    0.0000 C   0  0  0  0  0  0  0  0  0  0  0  0
    3.9895   -3.1983    0.0000 C   0  0  0  0  0  0  0  0  0  0  0  0
    3.7501    2.1448    0.0000 C   0  0  0  0  0  0  0  0  0  0  0  0
    2.3190    3.1205    0.0000 C   0  0  0  0  0  0  0  0  0  0  0  0
    4.8555   -2.6983    0.0000 C   0  0  0  0  0  0  0  0  0  0  0  0
    3.9895   -4.1983    0.0000 C   0  0  0  0  0  0  0  0  0  0  0  0
    5.7216   -3.1983    0.0000 C   0  0  0  0  0  0  0  0  0  0  0  0
    4.3134    2.9711    0.0000 C   0  0  0  0  0  0  0  0  0  0  0  0
    2.8824    3.9468    0.0000 C   0  0  0  0  0  0  0  0  0  0  0  0
    3.8796    3.8720    0.0000 C   0  0  0  0  0  0  0  0  0  0  0  0
    4.8555   -4.6983    0.0000 C   0  0  0  0  0  0  0  0  0  0  0  0
    5.7216   -4.1983    0.0000 C   0  0  0  0  0  0  0  0  0  0  0  0
    4.4429    4.6983    0.0000 C   0  0  0  0  0  0  0  0  0  0  0  0
    8.3196   -2.6983    0.0000 C   0  0  0  0  0  0  0  0  0  0  0  0
    8.3196   -3.6983    0.0000 C   0  0  0  0  0  0  0  0  0  0  0  0
    9.1857   -2.1983    0.0000 C   0  0  0  0  0  0  0  0  0  0  0  0
   10.0517   -3.6983    0.0000 C   0  0  0  0  0  0  0  0  0  0  0  0
    9.1857   -4.1983    0.0000 C   0  0  0  0  0  0  0  0  0  0  0  0
   10.0517   -2.6983    0.0000 C   0  0  0  0  0  0  0  0  0  0  0  0
   10.9177   -4.1983    0.0000 C   0  0  0  0  0  0  0  0  0  0  0  0
    4.1821    0.7614    0.0000 H   0  0  0  0  0  0  0  0  0  0  0  0
    3.4855    1.0968    0.0000 H   0  0  0  0  0  0  0  0  0  0  0  0
    1.6134    0.1953    0.0000 H   0  0  0  0  0  0  0  0  0  0  0  0
    1.4414   -0.5585    0.0000 H   0  0  0  0  0  0  0  0  0  0  0  0
    4.8056   -0.5585    0.0000 H   0  0  0  0  0  0  0  0  0  0  0  0
    4.6335    0.1953    0.0000 H   0  0  0  0  0  0  0  0  0  0  0  0
    1.6025   -1.2644    0.0000 H   0  0  0  0  0  0  0  0  0  0  0  0
    2.0846   -1.8689    0.0000 H   0  0  0  0  0  0  0  0  0  0  0  0
    4.1624   -1.8689    0.0000 H   0  0  0  0  0  0  0  0  0  0  0  0
    4.6445   -1.2644    0.0000 H   0  0  0  0  0  0  0  0  0  0  0  0
    1.7458    1.8262    0.0000 H   0  0  0  0  0  0  0  0  0  0  0  0
    1.6862    1.0314    0.0000 H   0  0  0  0  0  0  0  0  0  0  0  0
    4.0191    1.5862    0.0000 H   0  0  0  0  0  0  0  0  0  0  0  0
    1.7008    3.1669    0.0000 H   0  0  0  0  0  0  0  0  0  0  0  0
    4.8555   -2.0783    0.0000 H   0  0  0  0  0  0  0  0  0  0  0  0
    3.4526   -4.5083    0.0000 H   0  0  0  0  0  0  0  0  0  0  0  0
    4.9317    2.9247    0.0000 H   0  0  0  0  0  0  0  0  0  0  0  0
    2.6134    4.5054    0.0000 H   0  0  0  0  0  0  0  0  0  0  0  0
    4.8555   -5.3183    0.0000 H   0  0  0  0  0  0  0  0  0  0  0  0
    6.2585   -4.5083    0.0000 H   0  0  0  0  0  0  0  0  0  0  0  0
    4.9552    4.3490    0.0000 H   0  0  0  0  0  0  0  0  0  0  0  0
    4.7921    5.2105    0.0000 H   0  0  0  0  0  0  0  0  0  0  0  0
    3.9306    5.0475    0.0000 H   0  0  0  0  0  0  0  0  0  0  0  0
    7.4536   -1.5783    0.0000 H   0  0  0  0  0  0  0  0  0  0  0  0
    7.7827   -4.0083    0.0000 H   0  0  0  0  0  0  0  0  0  0  0  0
    9.1857   -1.5783    0.0000 H   0  0  0  0  0  0  0  0  0  0  0  0
    9.1857   -4.8183    0.0000 H   0  0  0  0  0  0  0  0  0  0  0  0
   10.5886   -2.3883    0.0000 H   0  0  0  0  0  0  0  0  0  0  0  0
   10.6077   -4.7352    0.0000 H   0  0  0  0  0  0  0  0  0  0  0  0
   11.4547   -4.5083    0.0000 H   0  0  0  0  0  0  0  0  0  0  0  0
   11.2277   -3.6614    0.0000 H   0  0  0  0  0  0  0  0  0  0  0  0
  1  3  2  0  0  0  0
  1  4  2  0  0  0  0
  1  7  1  0  0  0  0
  1 21  1  0  0  0  0
  2 14  2  0  0  0  0
  5  8  1  0  0  0  0
  5  9  1  0  0  0  0
  5 13  1  0  0  0  0
  6 11  1  0  0  0  0
  6 12  1  0  0  0  0
  6 14  1  0  0  0  0
  7 28  1  0  0  0  0
  7 58  1  0  0  0  0
  8 10  1  0  0  0  0
  8 35  1  0  0  0  0
  8 36  1  0  0  0  0
  9 11  1  0  0  0  0
  9 37  1  0  0  0  0
  9 38  1  0  0  0  0
 10 12  1  0  0  0  0
 10 39  1  0  0  0  0
 10 40  1  0  0  0  0
 11 41  1  0  0  0  0
 11 42  1  0  0  0  0
 12 43  1  0  0  0  0
 12 44  1  0  0  0  0
 13 15  1  0  0  0  0
 13 45  1  0  0  0  0
 13 46  1  0  0  0  0
 14 16  1  0  0  0  0
 15 17  2  0  0  0  0
 15 18  1  0  0  0  0
 16 19  2  0  0  0  0
 16 20  1  0  0  0  0
 17 22  1  0  0  0  0
 17 47  1  0  0  0  0
 18 23  2  0  0  0  0
 18 48  1  0  0  0  0
 19 21  1  0  0  0  0
 19 49  1  0  0  0  0
 20 25  2  0  0  0  0
 20 50  1  0  0  0  0
 21 26  2  0  0  0  0
 22 24  2  0  0  0  0
 22 51  1  0  0  0  0
 23 24  1  0  0  0  0
 23 52  1  0  0  0  0
 24 27  1  0  0  0  0
 25 26  1  0  0  0  0
 25 53  1  0  0  0  0
 26 54  1  0  0  0  0
 27 55  1  0  0  0  0
 27 56  1  0  0  0  0
 27 57  1  0  0  0  0
 28 29  2  0  0  0  0
 28 30  1  0  0  0  0
 29 32  1  0  0  0  0
 29 59  1  0  0  0  0
 30 33  2  0  0  0  0
 30 60  1  0  0  0  0
 31 32  2  0  0  0  0
 31 33  1  0  0  0  0
 31 34  1  0  0  0  0
 32 61  1  0  0  0  0
 33 62  1  0  0  0  0
 34 63  1  0  0  0  0
 34 64  1  0  0  0  0
 34 65  1  0  0  0  0
M  END
> <PUBCHEM_COMPOUND_CID>
17395568

> <PUBCHEM_COMPOUND_CANONICALIZED>
1

> <PUBCHEM_CACTVS_COMPLEXITY>
752

> <PUBCHEM_CACTVS_HBOND_ACCEPTOR>
5

> <PUBCHEM_CACTVS_HBOND_DONOR>
1

> <PUBCHEM_CACTVS_ROTATABLE_BOND>
6

> <PUBCHEM_CACTVS_SUBSKEYS>
AAADceB7MABAAAAAAAAAAAAAAAAAAAAAAAAwYMAABYAAAAABUAAAHgQQQAAADAjB2AQywYNAAAKIAiVSUHDCABAkAgAIiBkIZMgIYDKA1ZGUIQhglgCIyYcYiACOSAAAgAAAAACQAAEAAAAAAAAAAAAAAA==

> <PUBCHEM_IUPAC_OPENEYE_NAME>
N-(p-tolyl)-3-[4-(p-tolylmethyl)-1,4-diazepane-1-carbonyl]benzenesulfonamide

> <PUBCHEM_IUPAC_CAS_NAME>
N-(4-methylphenyl)-3-[[4-[(4-methylphenyl)methyl]-1,4-diazepan-1-yl]-oxomethyl]benzenesulfonamide

> <PUBCHEM_IUPAC_NAME>
N-(4-methylphenyl)-3-[4-[(4-methylphenyl)methyl]-1,4-diazepane-1-carbonyl]benzenesulfonamide

> <PUBCHEM_IUPAC_SYSTEMATIC_NAME>
N-(4-methylphenyl)-3-[[4-[(4-methylphenyl)methyl]-1,4-diazepan-1-yl]carbonyl]benzenesulfonamide

> <PUBCHEM_IUPAC_TRADITIONAL_NAME>
3-[4-(4-methylbenzyl)-1,4-diazepane-1-carbonyl]-N-(p-tolyl)benzenesulfonamide

> <PUBCHEM_IUPAC_INCHI>
InChI=1S/C27H31N3O3S/c1-21-7-11-23(12-8-21)20-29-15-4-16-30(18-17-29)27(31)24-5-3-6-26(19-24)34(32,33)28-25-13-9-22(2)10-14-25/h3,5-14,19,28H,4,15-18,20H2,1-2H3

> <PUBCHEM_IUPAC_INCHIKEY>
KCZHHLPTJRCECG-UHFFFAOYSA-N

> <PUBCHEM_XLOGP3_AA>
4.3

> <PUBCHEM_EXACT_MASS>
477.208613

> <PUBCHEM_MOLECULAR_FORMULA>
C27H31N3O3S

> <PUBCHEM_MOLECULAR_WEIGHT>
477.61834

> <PUBCHEM_OPENEYE_CAN_SMILES>
CC1=CC=C(C=C1)CN2CCCN(CC2)C(=O)C3=CC(=CC=C3)S(=O)(=O)NC4=CC=C(C=C4)C

> <PUBCHEM_OPENEYE_ISO_SMILES>
CC1=CC=C(C=C1)CN2CCCN(CC2)C(=O)C3=CC(=CC=C3)S(=O)(=O)NC4=CC=C(C=C4)C

> <PUBCHEM_CACTVS_TPSA>
78.1

> <PUBCHEM_MONOISOTOPIC_WEIGHT>
477.208613

> <PUBCHEM_TOTAL_CHARGE>
0

> <PUBCHEM_HEAVY_ATOM_COUNT>
34

> <PUBCHEM_ATOM_DEF_STEREO_COUNT>
0

> <PUBCHEM_ATOM_UDEF_STEREO_COUNT>
0

> <PUBCHEM_BOND_DEF_STEREO_COUNT>
0

> <PUBCHEM_BOND_UDEF_STEREO_COUNT>
0

> <PUBCHEM_ISOTOPIC_ATOM_COUNT>
0

> <PUBCHEM_COMPONENT_COUNT>
1

> <PUBCHEM_CACTVS_TAUTO_COUNT>
1

> <PUBCHEM_COORDINATE_TYPE>
1
5
255

> <PUBCHEM_BONDANNOTATIONS>
15  17  8
15  18  8
16  19  8
16  20  8
17  22  8
18  23  8
19  21  8
20  25  8
21  26  8
22  24  8
23  24  8
25  26  8
28  29  8
28  30  8
29  32  8
30  33  8
31  32  8
31  33  8

$$$$

