   Color/Form

     * Crystals from alcohol
     * CREAMY WHITE TO PALE-YELLOW POWDER

   from [1]HSDB

   Odor
        PRACTICALLY ODORLESS
   from [2]HSDB

   Taste
        BITTER
   from [3]HSDB

   Melting Point
        205-206 deg C
   from [4]HSDB

   Dissociation Constants
        pKa1: 1.55 (-C=N-); pKa2: 10.9 (-OH) /Estimated/
   from [5]HSDB

   Octanol/Water Partition Coefficient
        log Kow = 2.24 at pH 7.4
   from [6]HSDB

   pH
        BETWEEN 4.8 AND 7.0 (1 IN 50 SUSPENSION)
   from [7]HSDB

   Solubilities

     * Soluble in alcohol, chloroform, dioxane
     * 1 G SOL IN MORE THAN 10,000 ML WATER, 220 ML ALCOHOL, 270 ML
       CHLOROFORM, 2200 ML ETHER
     * In water, 0.02 g/L at 22 deg C

   from [8]HSDB

   Spectral Properties
        Intense mass spectral peaks: 77 m/z, 205 m/z, 233 m/z, 239 m/z,
   268 m/z
   from [9]HSDB

   Vapor Pressure
        4.2X10-12 mm Hg at 25 deg C /Estimated/
   from [10]HSDB

   Other Chemical/Physical Properties

     * Henry's Law constant = 5.5X10-10 atm-cu m/mole at 25 deg C
       /Estimated/
     * NONHYGROSCOPIC

   from [11]HSDB

   Computed Properties
   Molecular Weight                  286.71304 [g/mol]
   Molecular Formula                 C[15]H[11]ClN[2]O[2]
   XLogP3                            2.2
   H-Bond Donor                      2
   H-Bond Acceptor                   3
   Rotatable Bond Count              1
   Tautomer Count                    27
   Exact Mass                        286.050905
   MonoIsotopic Mass                 286.050905
   Topological Polar Surface Area    61.7
   Heavy Atom Count                  20
   Formal Charge                     0
   Complexity                        407
   Isotope Atom Count                0
   Defined Atom Stereocenter Count   0
   Undefined Atom Stereocenter Count 1
   Defined Bond Stereocenter Count   0
   Undefined Bond Stereocenter Count 0
   Covalently-Bonded Unit Count      1
   Feature 3D Acceptor Count         3
   Feature 3D Donor Count            2
   Feature 3D Ring Count             3
   Effective Rotor Count             1.4
   Conformer Sampling RMSD           0.6
   CID Conformer Count               [12]2

References

   1. http://toxnet.nlm.nih.gov/cgi-bin/sis/search/r?dbs+hsdb:@term+@rn+@rel+604-75-1
   2. http://toxnet.nlm.nih.gov/cgi-bin/sis/search/r?dbs+hsdb:@term+@rn+@rel+604-75-1
   3. http://toxnet.nlm.nih.gov/cgi-bin/sis/search/r?dbs+hsdb:@term+@rn+@rel+604-75-1
   4. http://toxnet.nlm.nih.gov/cgi-bin/sis/search/r?dbs+hsdb:@term+@rn+@rel+604-75-1
   5. http://toxnet.nlm.nih.gov/cgi-bin/sis/search/r?dbs+hsdb:@term+@rn+@rel+604-75-1
   6. http://toxnet.nlm.nih.gov/cgi-bin/sis/search/r?dbs+hsdb:@term+@rn+@rel+604-75-1
   7. http://toxnet.nlm.nih.gov/cgi-bin/sis/search/r?dbs+hsdb:@term+@rn+@rel+604-75-1
   8. http://toxnet.nlm.nih.gov/cgi-bin/sis/search/r?dbs+hsdb:@term+@rn+@rel+604-75-1
   9. http://toxnet.nlm.nih.gov/cgi-bin/sis/search/r?dbs+hsdb:@term+@rn+@rel+604-75-1
  10. http://toxnet.nlm.nih.gov/cgi-bin/sis/search/r?dbs+hsdb:@term+@rn+@rel+604-75-1
  11. http://toxnet.nlm.nih.gov/cgi-bin/sis/search/r?dbs+hsdb:@term+@rn+@rel+604-75-1
  12. http://pubchem.ncbi.nlm.nih.gov/vw3d/vw3d.cgi?cid=4616
