23724536
  -OEChem-07051213072D

107109  0     1  0  0  0  0  0999 V2000
    4.5981    1.9050    0.0000 O   0  0  0  0  0  0  0  0  0  0  0  0
    5.4641    3.4050    0.0000 O   0  0  0  0  0  0  0  0  0  0  0  0
    2.8660    2.9050    0.0000 O   0  0  0  0  0  0  0  0  0  0  0  0
   12.3923   -2.5950    0.0000 O   0  0  0  0  0  0  0  0  0  0  0  0
   10.6603   -2.5950    0.0000 O   0  0  0  0  0  0  0  0  0  0  0  0
   10.6603   -4.5950    0.0000 O   0  0  0  0  0  0  0  0  0  0  0  0
   12.3923   -5.5950    0.0000 O   0  0  0  0  0  0  0  0  0  0  0  0
   14.1244   -4.5950    0.0000 O   0  0  0  0  0  0  0  0  0  0  0  0
    8.9282    0.4050    0.0000 O   0  0  0  0  0  0  0  0  0  0  0  0
    5.4641   -2.5950    0.0000 O   0  0  0  0  0  0  0  0  0  0  0  0
    9.7942    1.9050    0.0000 O   0  0  0  0  0  0  0  0  0  0  0  0
    2.8660    4.9050    0.0000 N   0  0  0  0  0  0  0  0  0  0  0  0
    3.7320    4.4050    0.0000 C   0  0  2  0  0  0  0  0  0  0  0  0
    3.7320    3.4050    0.0000 C   0  0  2  0  0  0  0  0  0  0  0  0
    4.5981    2.9050    0.0000 C   0  0  2  0  0  0  0  0  0  0  0  0
    5.4641    1.4050    0.0000 C   0  0  1  0  0  0  0  0  0  0  0  0
    4.5981    4.9050    0.0000 C   0  0  0  0  0  0  0  0  0  0  0  0
    5.4641    0.4050    0.0000 C   0  0  2  0  0  0  0  0  0  0  0  0
    5.4641    4.4050    0.0000 C   0  0  1  0  0  0  0  0  0  0  0  0
    6.3301    1.9050    0.0000 C   0  0  1  0  0  0  0  0  0  0  0  0
    4.5981   -0.0950    0.0000 C   0  0  0  0  0  0  0  0  0  0  0  0
    4.5981   -1.0950    0.0000 C   0  0  1  0  0  0  0  0  0  0  0  0
    6.4641    0.4050    0.0000 C   0  0  0  0  0  0  0  0  0  0  0  0
    6.3301    4.9050    0.0000 C   0  0  0  0  0  0  0  0  0  0  0  0
    6.3301    2.9050    0.0000 C   0  0  0  0  0  0  0  0  0  0  0  0
   11.5263   -4.0950    0.0000 C   0  0  2  0  0  0  0  0  0  0  0  0
   12.3923   -4.5950    0.0000 C   0  0  1  0  0  0  0  0  0  0  0  0
    7.1962    1.4050    0.0000 C   0  0  0  0  0  0  0  0  0  0  0  0
   13.2583   -4.0950    0.0000 C   0  0  1  0  0  0  0  0  0  0  0  0
    2.8660    5.9050    0.0000 C   0  0  0  0  0  0  0  0  0  0  0  0
    2.0000    4.4050    0.0000 C   0  0  0  0  0  0  0  0  0  0  0  0
   11.5263   -3.0950    0.0000 C   0  0  1  0  0  0  0  0  0  0  0  0
   13.2583   -3.0950    0.0000 C   0  0  1  0  0  0  0  0  0  0  0  0
    3.7320   -1.5950    0.0000 C   0  0  0  0  0  0  0  0  0  0  0  0
    5.4641   -1.5950    0.0000 C   0  0  0  0  0  0  0  0  0  0  0  0
    9.7942   -1.0950    0.0000 C   0  0  2  0  0  0  0  0  0  0  0  0
   10.6603   -1.5950    0.0000 C   0  0  0  0  0  0  0  0  0  0  0  0
    9.7942   -0.0950    0.0000 C   0  0  1  0  0  0  0  0  0  0  0  0
    8.0622    1.9050    0.0000 C   0  0  0  0  0  0  0  0  0  0  0  0
   14.1244   -2.5950    0.0000 C   0  0  0  0  0  0  0  0  0  0  0  0
   10.6603    0.4050    0.0000 C   0  0  0  0  0  0  0  0  0  0  0  0
    6.3301   -1.0950    0.0000 C   0  0  0  0  0  0  0  0  0  0  0  0
    8.9282   -1.5950    0.0000 C   0  0  0  0  0  0  0  0  0  0  0  0
    8.9282    1.4050    0.0000 C   0  0  0  0  0  0  0  0  0  0  0  0
    7.1962   -1.5950    0.0000 C   0  0  0  0  0  0  0  0  0  0  0  0
    8.0622   -1.0950    0.0000 C   0  0  0  0  0  0  0  0  0  0  0  0
   10.6603   -5.5950    0.0000 C   0  0  0  0  0  0  0  0  0  0  0  0
   11.5263   -0.0950    0.0000 C   0  0  0  0  0  0  0  0  0  0  0  0
    3.7320    5.0250    0.0000 H   0  0  0  0  0  0  0  0  0  0  0  0
    3.7320    2.7850    0.0000 H   0  0  0  0  0  0  0  0  0  0  0  0
    4.0611    2.5950    0.0000 H   0  0  0  0  0  0  0  0  0  0  0  0
    5.4641    2.0250    0.0000 H   0  0  0  0  0  0  0  0  0  0  0  0
    4.9966    5.3800    0.0000 H   0  0  0  0  0  0  0  0  0  0  0  0
    4.1996    5.3800    0.0000 H   0  0  0  0  0  0  0  0  0  0  0  0
    5.6246   -0.1939    0.0000 H   0  0  0  0  0  0  0  0  0  0  0  0
    6.0010    4.0950    0.0000 H   0  0  0  0  0  0  0  0  0  0  0  0
    6.8671    2.2150    0.0000 H   0  0  0  0  0  0  0  0  0  0  0  0
    4.3860    0.4876    0.0000 H   0  0  0  0  0  0  0  0  0  0  0  0
    3.9875   -0.2027    0.0000 H   0  0  0  0  0  0  0  0  0  0  0  0
    4.5981   -1.7150    0.0000 H   0  0  0  0  0  0  0  0  0  0  0  0
    6.4641   -0.2150    0.0000 H   0  0  0  0  0  0  0  0  0  0  0  0
    7.0841    0.4050    0.0000 H   0  0  0  0  0  0  0  0  0  0  0  0
    6.4641    1.0250    0.0000 H   0  0  0  0  0  0  0  0  0  0  0  0
    6.6401    4.3681    0.0000 H   0  0  0  0  0  0  0  0  0  0  0  0
    6.8671    5.2150    0.0000 H   0  0  0  0  0  0  0  0  0  0  0  0
    6.0201    5.4419    0.0000 H   0  0  0  0  0  0  0  0  0  0  0  0
    6.9501    2.9050    0.0000 H   0  0  0  0  0  0  0  0  0  0  0  0
    6.3301    3.5250    0.0000 H   0  0  0  0  0  0  0  0  0  0  0  0
    5.7101    2.9050    0.0000 H   0  0  0  0  0  0  0  0  0  0  0  0
    2.3291    3.2150    0.0000 H   0  0  0  0  0  0  0  0  0  0  0  0
   10.9893   -3.7850    0.0000 H   0  0  0  0  0  0  0  0  0  0  0  0
   11.8554   -4.9050    0.0000 H   0  0  0  0  0  0  0  0  0  0  0  0
   13.7953   -3.7850    0.0000 H   0  0  0  0  0  0  0  0  0  0  0  0
    7.1962    0.7850    0.0000 H   0  0  0  0  0  0  0  0  0  0  0  0
    3.4860    5.9050    0.0000 H   0  0  0  0  0  0  0  0  0  0  0  0
    2.8660    6.5250    0.0000 H   0  0  0  0  0  0  0  0  0  0  0  0
    2.2460    5.9050    0.0000 H   0  0  0  0  0  0  0  0  0  0  0  0
    1.6900    4.9419    0.0000 H   0  0  0  0  0  0  0  0  0  0  0  0
    1.4631    4.0950    0.0000 H   0  0  0  0  0  0  0  0  0  0  0  0
    2.3100    3.8681    0.0000 H   0  0  0  0  0  0  0  0  0  0  0  0
   10.9893   -3.4050    0.0000 H   0  0  0  0  0  0  0  0  0  0  0  0
   13.2583   -2.4750    0.0000 H   0  0  0  0  0  0  0  0  0  0  0  0
    3.4220   -1.0581    0.0000 H   0  0  0  0  0  0  0  0  0  0  0  0
    3.1951   -1.9050    0.0000 H   0  0  0  0  0  0  0  0  0  0  0  0
    4.0420   -2.1319    0.0000 H   0  0  0  0  0  0  0  0  0  0  0  0
    9.7942   -1.7150    0.0000 H   0  0  0  0  0  0  0  0  0  0  0  0
   11.2708   -1.7027    0.0000 H   0  0  0  0  0  0  0  0  0  0  0  0
   10.8723   -1.0124    0.0000 H   0  0  0  0  0  0  0  0  0  0  0  0
    9.7942    0.5250    0.0000 H   0  0  0  0  0  0  0  0  0  0  0  0
    8.0622    2.5250    0.0000 H   0  0  0  0  0  0  0  0  0  0  0  0
   14.4344   -3.1319    0.0000 H   0  0  0  0  0  0  0  0  0  0  0  0
   14.6613   -2.2850    0.0000 H   0  0  0  0  0  0  0  0  0  0  0  0
   13.8144   -2.0581    0.0000 H   0  0  0  0  0  0  0  0  0  0  0  0
   12.9292   -5.9050    0.0000 H   0  0  0  0  0  0  0  0  0  0  0  0
   11.0588    0.8799    0.0000 H   0  0  0  0  0  0  0  0  0  0  0  0
   10.2617    0.8799    0.0000 H   0  0  0  0  0  0  0  0  0  0  0  0
    6.6401   -0.5581    0.0000 H   0  0  0  0  0  0  0  0  0  0  0  0
   14.6613   -4.2850    0.0000 H   0  0  0  0  0  0  0  0  0  0  0  0
    8.9282   -2.2150    0.0000 H   0  0  0  0  0  0  0  0  0  0  0  0
    7.1962   -2.2150    0.0000 H   0  0  0  0  0  0  0  0  0  0  0  0
    8.0622   -0.4750    0.0000 H   0  0  0  0  0  0  0  0  0  0  0  0
   10.0403   -5.5950    0.0000 H   0  0  0  0  0  0  0  0  0  0  0  0
   10.6603   -6.2150    0.0000 H   0  0  0  0  0  0  0  0  0  0  0  0
   11.2803   -5.5950    0.0000 H   0  0  0  0  0  0  0  0  0  0  0  0
   11.2163   -0.6319    0.0000 H   0  0  0  0  0  0  0  0  0  0  0  0
   12.0632   -0.4050    0.0000 H   0  0  0  0  0  0  0  0  0  0  0  0
   11.8363    0.4419    0.0000 H   0  0  0  0  0  0  0  0  0  0  0  0
 15  1  1  1  0  0  0
 16  1  1  6  0  0  0
  2 15  1  0  0  0  0
  2 19  1  0  0  0  0
 14  3  1  6  0  0  0
  3 70  1  0  0  0  0
  4 32  1  0  0  0  0
  4 33  1  0  0  0  0
 32  5  1  6  0  0  0
  5 37  1  0  0  0  0
 26  6  1  1  0  0  0
  6 47  1  0  0  0  0
 27  7  1  1  0  0  0
  7 94  1  0  0  0  0
 29  8  1  1  0  0  0
  8 98  1  0  0  0  0
  9 38  1  0  0  0  0
  9 44  1  0  0  0  0
 10 35  2  0  0  0  0
 11 44  2  0  0  0  0
 13 12  1  1  0  0  0
 12 30  1  0  0  0  0
 12 31  1  0  0  0  0
 13 14  1  0  0  0  0
 13 17  1  0  0  0  0
 13 49  1  0  0  0  0
 14 15  1  0  0  0  0
 14 50  1  0  0  0  0
 15 51  1  0  0  0  0
 16 18  1  0  0  0  0
 16 20  1  0  0  0  0
 16 52  1  0  0  0  0
 17 19  1  0  0  0  0
 17 53  1  0  0  0  0
 17 54  1  0  0  0  0
 18 21  1  0  0  0  0
 18 23  1  1  0  0  0
 18 55  1  0  0  0  0
 19 24  1  1  0  0  0
 19 56  1  0  0  0  0
 20 25  1  1  0  0  0
 20 28  1  0  0  0  0
 20 57  1  0  0  0  0
 21 22  1  0  0  0  0
 21 58  1  0  0  0  0
 21 59  1  0  0  0  0
 22 34  1  6  0  0  0
 22 35  1  0  0  0  0
 22 60  1  0  0  0  0
 23 61  1  0  0  0  0
 23 62  1  0  0  0  0
 23 63  1  0  0  0  0
 24 64  1  0  0  0  0
 24 65  1  0  0  0  0
 24 66  1  0  0  0  0
 25 67  1  0  0  0  0
 25 68  1  0  0  0  0
 25 69  1  0  0  0  0
 26 27  1  0  0  0  0
 26 32  1  0  0  0  0
 26 71  1  0  0  0  0
 27 29  1  0  0  0  0
 27 72  1  0  0  0  0
 28 39  2  0  0  0  0
 28 74  1  0  0  0  0
 29 33  1  0  0  0  0
 29 73  1  0  0  0  0
 30 75  1  0  0  0  0
 30 76  1  0  0  0  0
 30 77  1  0  0  0  0
 31 78  1  0  0  0  0
 31 79  1  0  0  0  0
 31 80  1  0  0  0  0
 32 81  1  0  0  0  0
 33 40  1  6  0  0  0
 33 82  1  0  0  0  0
 34 83  1  0  0  0  0
 34 84  1  0  0  0  0
 34 85  1  0  0  0  0
 35 42  1  0  0  0  0
 36 37  1  1  0  0  0
 36 38  1  0  0  0  0
 36 43  1  0  0  0  0
 36 86  1  0  0  0  0
 37 87  1  0  0  0  0
 37 88  1  0  0  0  0
 38 41  1  6  0  0  0
 38 89  1  0  0  0  0
 39 44  1  0  0  0  0
 39 90  1  0  0  0  0
 40 91  1  0  0  0  0
 40 92  1  0  0  0  0
 40 93  1  0  0  0  0
 41 48  1  0  0  0  0
 41 95  1  0  0  0  0
 41 96  1  0  0  0  0
 42 45  2  0  0  0  0
 42 97  1  0  0  0  0
 43 46  2  0  0  0  0
 43 99  1  0  0  0  0
 45 46  1  0  0  0  0
 45100  1  0  0  0  0
 46101  1  0  0  0  0
 47102  1  0  0  0  0
 47103  1  0  0  0  0
 47104  1  0  0  0  0
 48105  1  0  0  0  0
 48106  1  0  0  0  0
 48107  1  0  0  0  0
M  END
> <PUBCHEM_COMPOUND_CID>
23724536

> <PUBCHEM_COMPOUND_CANONICALIZED>
1

> <PUBCHEM_CACTVS_COMPLEXITY>
1110

> <PUBCHEM_CACTVS_HBOND_ACCEPTOR>
12

> <PUBCHEM_CACTVS_HBOND_DONOR>
3

> <PUBCHEM_CACTVS_ROTATABLE_BOND>
8

> <PUBCHEM_CACTVS_SUBSKEYS>
AAADcfB+PAAAAAAAAAAAAAAAAAAAAAAAAAAkSAAAAAAAAAAAAAAAHgAACAAADTzxgAcCCAMABgCIAKDSCAAAAAAgAAAICAEIAEgbFBIAoQAmUAAHwAAfoYPI7MzOAAAAAAAAAAAAAAAAAAAAAAAAAAAAAA==

> <PUBCHEM_IUPAC_OPENEYE_NAME>
(3E,5S,6S,7S,9R,11E,13E,15R,16R)-15-[[(2R,3R,4R,5S,6R)-4,5-dihydroxy-3-methoxy-6-methyl-tetrahydropyran-2-yl]oxymethyl]-6-[(2S,3R,4S,6R)-4-(dimethylamino)-3-hydroxy-6-methyl-tetrahydropyran-2-yl]oxy-16-ethyl-5,7,9-trimethyl-1-oxacyclohexadeca-3,11,13-triene-2,10-dione

> <PUBCHEM_IUPAC_CAS_NAME>
(3E,5S,6S,7S,9R,11E,13E,15R,16R)-15-[[(2R,3R,4R,5S,6R)-4,5-dihydroxy-3-methoxy-6-methyl-2-oxanyl]oxymethyl]-6-[[(2S,3R,4S,6R)-4-(dimethylamino)-3-hydroxy-6-methyl-2-oxanyl]oxy]-16-ethyl-5,7,9-trimethyl-1-oxacyclohexadeca-3,11,13-triene-2,10-dione

> <PUBCHEM_IUPAC_NAME>
(3E,5S,6S,7S,9R,11E,13E,15R,16R)-15-[[(2R,3R,4R,5S,6R)-4,5-dihydroxy-3-methoxy-6-methyloxan-2-yl]oxymethyl]-6-[(2S,3R,4S,6R)-4-(dimethylamino)-3-hydroxy-6-methyloxan-2-yl]oxy-16-ethyl-5,7,9-trimethyl-1-oxacyclohexadeca-3,11,13-triene-2,10-dione

> <PUBCHEM_IUPAC_SYSTEMATIC_NAME>
(3E,5S,6S,7S,9R,11E,13E,15R,16R)-6-[(2S,3R,4S,6R)-4-(dimethylamino)-6-methyl-3-oxidanyl-oxan-2-yl]oxy-16-ethyl-15-[[(2R,3R,4R,5S,6R)-3-methoxy-6-methyl-4,5-bis(oxidanyl)oxan-2-yl]oxymethyl]-5,7,9-trimethyl-1-oxacyclohexadeca-3,11,13-triene-2,10-dione

> <PUBCHEM_IUPAC_TRADITIONAL_NAME>
(3E,5S,6S,7S,9R,11E,13E,15R,16R)-15-[[(2R,3R,4R,5S,6R)-4,5-dihydroxy-3-methoxy-6-methyl-tetrahydropyran-2-yl]oxymethyl]-6-[(2S,3R,4S,6R)-4-(dimethylamino)-3-hydroxy-6-methyl-tetrahydropyran-2-yl]oxy-16-ethyl-5,7,9-trimethyl-1-oxacyclohexadeca-3,11,13-triene-2,10-quinone

> <PUBCHEM_IUPAC_INCHI>
InChI=1S/C36H59NO11/c1-10-28-25(19-44-36-34(43-9)32(42)30(40)24(6)46-36)13-11-12-14-27(38)21(3)17-22(4)33(20(2)15-16-29(39)47-28)48-35-31(41)26(37(7)8)18-23(5)45-35/h11-16,20-26,28,30-36,40-42H,10,17-19H2,1-9H3/b13-11+,14-12+,16-15+/t20-,21+,22-,23+,24+,25+,26-,28+,30+,31+,32+,33+,34+,35-,36+/m0/s1

> <PUBCHEM_IUPAC_INCHIKEY>
FPIDCOOKEJFXFI-WKUFBULYSA-N

> <PUBCHEM_XLOGP3_AA>
3.6

> <PUBCHEM_EXACT_MASS>
681.408812

> <PUBCHEM_MOLECULAR_FORMULA>
C36H59NO11

> <PUBCHEM_MOLECULAR_WEIGHT>
681.85376

> <PUBCHEM_OPENEYE_CAN_SMILES>
CCC1C(C=CC=CC(=O)C(CC(C(C(C=CC(=O)O1)C)OC2C(C(CC(O2)C)N(C)C)O)C)C)COC3C(C(C(C(O3)C)O)O)OC

> <PUBCHEM_OPENEYE_ISO_SMILES>
CC[C@@H]1[C@H](/C=C/C=C/C(=O)[C@@H](C[C@@H]([C@@H]([C@H](/C=C/C(=O)O1)C)O[C@H]2[C@@H]([C@H](C[C@H](O2)C)N(C)C)O)C)C)CO[C@H]3[C@@H]([C@@H]([C@@H]([C@H](O3)C)O)O)OC

> <PUBCHEM_CACTVS_TPSA>
153

> <PUBCHEM_MONOISOTOPIC_WEIGHT>
681.408812

> <PUBCHEM_TOTAL_CHARGE>
0

> <PUBCHEM_HEAVY_ATOM_COUNT>
48

> <PUBCHEM_ATOM_DEF_STEREO_COUNT>
15

> <PUBCHEM_ATOM_UDEF_STEREO_COUNT>
0

> <PUBCHEM_BOND_DEF_STEREO_COUNT>
3

> <PUBCHEM_BOND_UDEF_STEREO_COUNT>
0

> <PUBCHEM_ISOTOPIC_ATOM_COUNT>
0

> <PUBCHEM_COMPONENT_COUNT>
1

> <PUBCHEM_CACTVS_TAUTO_COUNT>
7

> <PUBCHEM_COORDINATE_TYPE>
1
5
255

> <PUBCHEM_BONDANNOTATIONS>
15  1  5
16  1  6
13  12  5
18  23  5
19  24  5
20  25  5
22  34  6
14  3  6
33  40  6
36  37  5
38  41  6
32  5  6
26  6  5
27  7  5
29  8  5

$$$$

