441298
  -OEChem-07051212532D

 91 92  0     1  0  0  0  0  0999 V2000
    9.5827    3.5540    0.0000 O   0  0  0  0  0  0  0  0  0  0  0  0
   11.6922    1.5667    0.0000 O   0  0  0  0  0  0  0  0  0  0  0  0
    9.9322   -1.4818    0.0000 O   0  0  0  0  0  0  0  0  0  0  0  0
    9.6010    0.8267    0.0000 O   0  0  0  0  0  0  0  0  0  0  0  0
    6.9002   -0.3052    0.0000 C   0  0  1  0  0  0  0  0  0  0  0  0
    8.6049    0.7395    0.0000 C   0  0  2  0  0  0  0  0  0  0  0  0
    6.1231    0.3242    0.0000 C   0  0  2  0  0  0  0  0  0  0  0  0
    8.3461    1.7054    0.0000 C   0  0  1  0  0  0  0  0  0  0  0  0
    6.4814    1.2577    0.0000 C   0  0  0  0  0  0  0  0  0  0  0  0
    9.0827    2.6880    0.0000 C   0  0  0  0  0  0  0  0  0  0  0  0
    6.3556   -1.1438    0.0000 C   0  0  0  0  0  0  0  0  0  0  0  0
    7.3542   -1.1962    0.0000 C   0  0  0  0  0  0  0  0  0  0  0  0
   10.1401   -0.5037    0.0000 C   0  0  0  0  0  0  0  0  0  0  0  0
    5.1572    0.0653    0.0000 C   0  0  0  0  0  0  0  0  0  0  0  0
   10.9491    0.8976    0.0000 C   0  0  0  0  0  0  0  0  0  0  0  0
    9.1784   -0.0797    0.0000 C   0  0  0  0  0  0  0  0  0  0  0  0
    8.0873    2.6713    0.0000 C   0  0  0  0  0  0  0  0  0  0  0  0
   11.0536   -0.0969    0.0000 C   0  0  0  0  0  0  0  0  0  0  0  0
    6.8096   -2.0348    0.0000 C   0  0  0  0  0  0  0  0  0  0  0  0
    8.7559   -0.9860    0.0000 C   0  0  0  0  0  0  0  0  0  0  0  0
   11.9196   -0.5969    0.0000 C   0  0  0  0  0  0  0  0  0  0  0  0
    4.4500    0.7724    0.0000 C   0  0  0  0  0  0  0  0  0  0  0  0
    7.1214    2.9301    0.0000 C   0  0  0  0  0  0  0  0  0  0  0  0
    6.2649   -2.8735    0.0000 C   0  0  0  0  0  0  0  0  0  0  0  0
    9.3294   -1.8051    0.0000 C   0  0  0  0  0  0  0  0  0  0  0  0
    7.7900   -0.7272    0.0000 C   0  0  0  0  0  0  0  0  0  0  0  0
    3.4841    0.5136    0.0000 C   0  0  0  0  0  0  0  0  0  0  0  0
    6.8625    3.8961    0.0000 C   0  0  0  0  0  0  0  0  0  0  0  0
   12.7857   -0.0969    0.0000 C   0  0  0  0  0  0  0  0  0  0  0  0
    6.7189   -3.7645    0.0000 C   0  0  0  0  0  0  0  0  0  0  0  0
    2.7770    1.2207    0.0000 C   0  0  0  0  0  0  0  0  0  0  0  0
    3.2253   -0.4523    0.0000 C   0  0  0  0  0  0  0  0  0  0  0  0
   13.6517   -0.5969    0.0000 C   0  0  0  0  0  0  0  0  0  0  0  0
    5.8966    4.1549    0.0000 C   0  0  0  0  0  0  0  0  0  0  0  0
    7.5696    4.6032    0.0000 C   0  0  0  0  0  0  0  0  0  0  0  0
    6.1743   -4.6032    0.0000 C   0  0  0  0  0  0  0  0  0  0  0  0
    7.7176   -3.8168    0.0000 C   0  0  0  0  0  0  0  0  0  0  0  0
   14.5177   -0.0969    0.0000 C   0  0  0  0  0  0  0  0  0  0  0  0
   13.6517   -1.5969    0.0000 C   0  0  0  0  0  0  0  0  0  0  0  0
    5.7082    0.7849    0.0000 H   0  0  0  0  0  0  0  0  0  0  0  0
    5.8699    1.3601    0.0000 H   0  0  0  0  0  0  0  0  0  0  0  0
    6.4598    1.8774    0.0000 H   0  0  0  0  0  0  0  0  0  0  0  0
    5.8604   -1.5170    0.0000 H   0  0  0  0  0  0  0  0  0  0  0  0
    5.9021   -0.7210    0.0000 H   0  0  0  0  0  0  0  0  0  0  0  0
    7.9066   -0.9147    0.0000 H   0  0  0  0  0  0  0  0  0  0  0  0
    7.6357   -1.7486    0.0000 H   0  0  0  0  0  0  0  0  0  0  0  0
    6.8018   -1.4776    0.0000 H   0  0  0  0  0  0  0  0  0  0  0  0
    5.4192   -0.4966    0.0000 H   0  0  0  0  0  0  0  0  0  0  0  0
    4.6493   -0.2903    0.0000 H   0  0  0  0  0  0  0  0  0  0  0  0
    8.1413    3.2890    0.0000 H   0  0  0  0  0  0  0  0  0  0  0  0
    8.7049    2.7254    0.0000 H   0  0  0  0  0  0  0  0  0  0  0  0
    7.3047   -1.6617    0.0000 H   0  0  0  0  0  0  0  0  0  0  0  0
    7.2630   -2.4577    0.0000 H   0  0  0  0  0  0  0  0  0  0  0  0
    8.4002   -1.4938    0.0000 H   0  0  0  0  0  0  0  0  0  0  0  0
   12.3182   -1.0719    0.0000 H   0  0  0  0  0  0  0  0  0  0  0  0
   11.5211   -1.0719    0.0000 H   0  0  0  0  0  0  0  0  0  0  0  0
    4.6105    1.3713    0.0000 H   0  0  0  0  0  0  0  0  0  0  0  0
    6.6829    2.4917    0.0000 H   0  0  0  0  0  0  0  0  0  0  0  0
   11.5633    2.1732    0.0000 H   0  0  0  0  0  0  0  0  0  0  0  0
    5.6458   -2.8411    0.0000 H   0  0  0  0  0  0  0  0  0  0  0  0
    7.6295   -1.3260    0.0000 H   0  0  0  0  0  0  0  0  0  0  0  0
    7.1911   -0.5667    0.0000 H   0  0  0  0  0  0  0  0  0  0  0  0
    7.9504   -0.1283    0.0000 H   0  0  0  0  0  0  0  0  0  0  0  0
    9.8373   -1.4495    0.0000 H   0  0  0  0  0  0  0  0  0  0  0  0
    9.6851   -2.3130    0.0000 H   0  0  0  0  0  0  0  0  0  0  0  0
    8.8216   -2.1608    0.0000 H   0  0  0  0  0  0  0  0  0  0  0  0
   12.7857    0.5231    0.0000 H   0  0  0  0  0  0  0  0  0  0  0  0
    2.3386    0.7823    0.0000 H   0  0  0  0  0  0  0  0  0  0  0  0
    2.3386    1.6591    0.0000 H   0  0  0  0  0  0  0  0  0  0  0  0
    3.2154    1.6591    0.0000 H   0  0  0  0  0  0  0  0  0  0  0  0
    3.8242   -0.6128    0.0000 H   0  0  0  0  0  0  0  0  0  0  0  0
    3.0648   -1.0512    0.0000 H   0  0  0  0  0  0  0  0  0  0  0  0
    2.6264   -0.2918    0.0000 H   0  0  0  0  0  0  0  0  0  0  0  0
    7.1312    5.0416    0.0000 H   0  0  0  0  0  0  0  0  0  0  0  0
    8.0080    5.0416    0.0000 H   0  0  0  0  0  0  0  0  0  0  0  0
    8.0080    4.1648    0.0000 H   0  0  0  0  0  0  0  0  0  0  0  0
    5.7361    3.5560    0.0000 H   0  0  0  0  0  0  0  0  0  0  0  0
    5.2977    4.3154    0.0000 H   0  0  0  0  0  0  0  0  0  0  0  0
    6.0571    4.7538    0.0000 H   0  0  0  0  0  0  0  0  0  0  0  0
    6.6943   -4.9409    0.0000 H   0  0  0  0  0  0  0  0  0  0  0  0
    5.8366   -5.1232    0.0000 H   0  0  0  0  0  0  0  0  0  0  0  0
    5.6543   -4.2655    0.0000 H   0  0  0  0  0  0  0  0  0  0  0  0
    7.7500   -3.1977    0.0000 H   0  0  0  0  0  0  0  0  0  0  0  0
    8.3367   -3.8493    0.0000 H   0  0  0  0  0  0  0  0  0  0  0  0
    7.6851   -4.4360    0.0000 H   0  0  0  0  0  0  0  0  0  0  0  0
   14.2717   -1.5969    0.0000 H   0  0  0  0  0  0  0  0  0  0  0  0
   13.6517   -2.2169    0.0000 H   0  0  0  0  0  0  0  0  0  0  0  0
   13.0317   -1.5969    0.0000 H   0  0  0  0  0  0  0  0  0  0  0  0
   14.2077    0.4400    0.0000 H   0  0  0  0  0  0  0  0  0  0  0  0
   15.0547    0.2131    0.0000 H   0  0  0  0  0  0  0  0  0  0  0  0
   14.8277   -0.6339    0.0000 H   0  0  0  0  0  0  0  0  0  0  0  0
  1 10  2  0  0  0  0
  2 15  1  0  0  0  0
  2 59  1  0  0  0  0
  3 13  2  0  0  0  0
  4 16  2  0  0  0  0
  5  6  1  0  0  0  0
  5  7  1  0  0  0  0
  5 11  1  0  0  0  0
  5 12  1  1  0  0  0
  6 10  1  0  0  0  0
  6 13  1  0  0  0  0
  6 16  1  1  0  0  0
  7  9  1  0  0  0  0
  7 14  1  1  0  0  0
  7 40  1  0  0  0  0
  8  9  1  0  0  0  0
  8 10  1  0  0  0  0
  8 15  1  0  0  0  0
  8 17  1  6  0  0  0
  9 41  1  0  0  0  0
  9 42  1  0  0  0  0
 11 19  1  0  0  0  0
 11 43  1  0  0  0  0
 11 44  1  0  0  0  0
 12 45  1  0  0  0  0
 12 46  1  0  0  0  0
 12 47  1  0  0  0  0
 13 18  1  0  0  0  0
 14 22  1  0  0  0  0
 14 48  1  0  0  0  0
 14 49  1  0  0  0  0
 15 18  2  0  0  0  0
 16 20  1  0  0  0  0
 17 23  1  0  0  0  0
 17 50  1  0  0  0  0
 17 51  1  0  0  0  0
 18 21  1  0  0  0  0
 19 24  1  0  0  0  0
 19 52  1  0  0  0  0
 19 53  1  0  0  0  0
 20 25  1  0  0  0  0
 20 26  1  0  0  0  0
 20 54  1  0  0  0  0
 21 29  1  0  0  0  0
 21 55  1  0  0  0  0
 21 56  1  0  0  0  0
 22 27  2  0  0  0  0
 22 57  1  0  0  0  0
 23 28  2  0  0  0  0
 23 58  1  0  0  0  0
 24 30  2  0  0  0  0
 24 60  1  0  0  0  0
 25 64  1  0  0  0  0
 25 65  1  0  0  0  0
 25 66  1  0  0  0  0
 26 61  1  0  0  0  0
 26 62  1  0  0  0  0
 26 63  1  0  0  0  0
 27 31  1  0  0  0  0
 27 32  1  0  0  0  0
 28 34  1  0  0  0  0
 28 35  1  0  0  0  0
 29 33  2  0  0  0  0
 29 67  1  0  0  0  0
 30 36  1  0  0  0  0
 30 37  1  0  0  0  0
 31 68  1  0  0  0  0
 31 69  1  0  0  0  0
 31 70  1  0  0  0  0
 32 71  1  0  0  0  0
 32 72  1  0  0  0  0
 32 73  1  0  0  0  0
 33 38  1  0  0  0  0
 33 39  1  0  0  0  0
 34 77  1  0  0  0  0
 34 78  1  0  0  0  0
 34 79  1  0  0  0  0
 35 74  1  0  0  0  0
 35 75  1  0  0  0  0
 35 76  1  0  0  0  0
 36 80  1  0  0  0  0
 36 81  1  0  0  0  0
 36 82  1  0  0  0  0
 37 83  1  0  0  0  0
 37 84  1  0  0  0  0
 37 85  1  0  0  0  0
 38 89  1  0  0  0  0
 38 90  1  0  0  0  0
 38 91  1  0  0  0  0
 39 86  1  0  0  0  0
 39 87  1  0  0  0  0
 39 88  1  0  0  0  0
M  END
> <PUBCHEM_COMPOUND_CID>
441298

> <PUBCHEM_COMPOUND_CANONICALIZED>
1

> <PUBCHEM_CACTVS_COMPLEXITY>
1140

> <PUBCHEM_CACTVS_HBOND_ACCEPTOR>
4

> <PUBCHEM_CACTVS_HBOND_DONOR>
1

> <PUBCHEM_CACTVS_ROTATABLE_BOND>
11

> <PUBCHEM_CACTVS_SUBSKEYS>
AAADcfB8OAAAAAAAAAAAAAAAAAAAAAAAAAAwQAAAAAAQAAAAAAAAGgAACAAADwSAgAACAAAAAgCIAqBSAAAAAAAgIAAACAEAAEgAABYIAQAAQAAEoAAIAQOIzPCPgAAAAAAAAACAAAQAACAAAAAAAAAAAA==

> <PUBCHEM_IUPAC_OPENEYE_NAME>
(1R,5R,6R,7S)-2-hydroxy-6-methyl-1,3,7-tris(3-methylbut-2-enyl)-6-(4-methylpent-3-enyl)-5-(2-methylpropanoyl)bicyclo[3.3.1]non-2-ene-4,9-dione

> <PUBCHEM_IUPAC_CAS_NAME>
(1R,5R,6R,7S)-2-hydroxy-6-methyl-1,3,7-tris(3-methylbut-2-enyl)-5-(2-methyl-1-oxopropyl)-6-(4-methylpent-3-enyl)bicyclo[3.3.1]non-2-ene-4,9-dione

> <PUBCHEM_IUPAC_NAME>
(1R,5R,6R,7S)-2-hydroxy-6-methyl-1,3,7-tris(3-methylbut-2-enyl)-6-(4-methylpent-3-enyl)-5-(2-methylpropanoyl)bicyclo[3.3.1]non-2-ene-4,9-dione

> <PUBCHEM_IUPAC_SYSTEMATIC_NAME>
(1R,5R,6R,7S)-6-methyl-1,3,7-tris(3-methylbut-2-enyl)-6-(4-methylpent-3-enyl)-5-(2-methylpropanoyl)-2-oxidanyl-bicyclo[3.3.1]non-2-ene-4,9-dione

> <PUBCHEM_IUPAC_TRADITIONAL_NAME>
(1R,5R,6R,7S)-2-hydroxy-5-isobutyryl-6-methyl-1,3,7-tris(3-methylbut-2-enyl)-6-(4-methylpent-3-enyl)bicyclo[3.3.1]non-2-ene-4,9-quinone

> <PUBCHEM_IUPAC_INCHI>
InChI=1S/C35H52O4/c1-22(2)13-12-19-33(11)27(16-14-23(3)4)21-34(20-18-25(7)8)30(37)28(17-15-24(5)6)31(38)35(33,32(34)39)29(36)26(9)10/h13-15,18,26-27,37H,12,16-17,19-21H2,1-11H3/t27-,33+,34+,35-/m0/s1

> <PUBCHEM_IUPAC_INCHIKEY>
KGSZHKRKHXOAMG-HQKKAZOISA-N

> <PUBCHEM_XLOGP3_AA>
9.6

> <PUBCHEM_EXACT_MASS>
536.38656

> <PUBCHEM_MOLECULAR_FORMULA>
C35H52O4

> <PUBCHEM_MOLECULAR_WEIGHT>
536.78498

> <PUBCHEM_OPENEYE_CAN_SMILES>
CC(C)C(=O)C12C(=O)C(=C(C(C1=O)(CC(C2(C)CCC=C(C)C)CC=C(C)C)CC=C(C)C)O)CC=C(C)C

> <PUBCHEM_OPENEYE_ISO_SMILES>
CC(C)C(=O)[C@]12C(=O)C(=C([C@](C1=O)(C[C@@H]([C@@]2(C)CCC=C(C)C)CC=C(C)C)CC=C(C)C)O)CC=C(C)C

> <PUBCHEM_CACTVS_TPSA>
71.4

> <PUBCHEM_MONOISOTOPIC_WEIGHT>
536.38656

> <PUBCHEM_TOTAL_CHARGE>
0

> <PUBCHEM_HEAVY_ATOM_COUNT>
39

> <PUBCHEM_ATOM_DEF_STEREO_COUNT>
4

> <PUBCHEM_ATOM_UDEF_STEREO_COUNT>
0

> <PUBCHEM_BOND_DEF_STEREO_COUNT>
0

> <PUBCHEM_BOND_UDEF_STEREO_COUNT>
0

> <PUBCHEM_ISOTOPIC_ATOM_COUNT>
0

> <PUBCHEM_COMPONENT_COUNT>
1

> <PUBCHEM_CACTVS_TAUTO_COUNT>
6

> <PUBCHEM_COORDINATE_TYPE>
1
5
255

> <PUBCHEM_BONDANNOTATIONS>
5  12  5
6  16  5
7  14  5
8  17  6

$$$$

