   Color/Form

     * SLIGHTLY OILY LIQ
     * COLORLESS LIQUID

   from [1]HSDB

   Odor
        ODORLESS
   from [2]HSDB

   Boiling Point
        244.2 DEG C @ 760 MM HG
   from [3]HSDB

   Melting Point
        -40 DEG C
   from [4]HSDB

   Density/Specific Gravity
        0.9325 @ 22 DEG C/4 DEG C
   from [5]HSDB

   Solubilities

     * SOL IN WATER 0.6% WT/WT; SOLUBILITY OF WATER IN ETHOHEXADIOL 10.8%
       WT/WT; SOL IN ETHANOL, ISOPROPANOL, PROPYLENE GLYCOL, CASTOR OIL
     * MISCIBLE WITH CHLOROFORM, DIETHYL ETHER

   from [6]HSDB

   Spectral Properties

     * INDEX OF REFRACTION: 1.4530 @ 22 DEG C/D
     * IR: 4226 (Sadtler Research Laboratories Prism Collection)
     * NMR: 17304 (Sadtler Research Laboratories Spectral Collection)
     * MASS: 841 (Atlas of Mass Spectral Data, John Wiley & Sons, New
       York)

   from [7]HSDB

   Vapor Density
        5.03
   from [8]HSDB

   Vapor Pressure
        LESS THAN 0.01 MM HG @ 20 DEG C
   from [9]HSDB

   Viscosity
        323 CENTIPOISES @ 20 DEG C
   from [10]HSDB

   Other Chemical/Physical Properties

     * FAINT ODOR OF WITCH HAZEL; DISTILLATION RANGE 241-249 DEG C;
       DENSITY: 0.939-0.943 @ 20 DEG C/20 DEG C /CRUDE/
     * BOTH HYDROXY GROUPS CAN BE ESTERIFIED, THE SECONDARY GROUP WITH
       DIFFICULTY
     * HYGROSCOPIC; 7.8 LB/GAL @ 20 DEG C
     * ABSOLUTE VISCOSITY: 271 CENTIPOISES

   from [11]HSDB

   Computed Properties
   Molecular Weight                  146.22732 [g/mol]
   Molecular Formula                 C[8]H[18]O[2]
   XLogP3-AA                         1.3
   H-Bond Donor                      2
   H-Bond Acceptor                   2
   Rotatable Bond Count              5
   Exact Mass                        146.13068
   MonoIsotopic Mass                 146.13068
   Topological Polar Surface Area    40.5
   Heavy Atom Count                  10
   Formal Charge                     0
   Complexity                        73.7
   Isotope Atom Count                0
   Defined Atom Stereocenter Count   0
   Undefined Atom Stereocenter Count 2
   Defined Bond Stereocenter Count   0
   Undefined Bond Stereocenter Count 0
   Covalently-Bonded Unit Count      1
   Feature 3D Acceptor Count         2
   Feature 3D Donor Count            2
   Feature 3D Hydrophobe Count       2
   Effective Rotor Count             5
   Conformer Sampling RMSD           0.6
   CID Conformer Count               [12]128

References

   1. http://toxnet.nlm.nih.gov/cgi-bin/sis/search/r?dbs+hsdb:@term+@rn+@rel+94-96-2
   2. http://toxnet.nlm.nih.gov/cgi-bin/sis/search/r?dbs+hsdb:@term+@rn+@rel+94-96-2
   3. http://toxnet.nlm.nih.gov/cgi-bin/sis/search/r?dbs+hsdb:@term+@rn+@rel+94-96-2
   4. http://toxnet.nlm.nih.gov/cgi-bin/sis/search/r?dbs+hsdb:@term+@rn+@rel+94-96-2
   5. http://toxnet.nlm.nih.gov/cgi-bin/sis/search/r?dbs+hsdb:@term+@rn+@rel+94-96-2
   6. http://toxnet.nlm.nih.gov/cgi-bin/sis/search/r?dbs+hsdb:@term+@rn+@rel+94-96-2
   7. http://toxnet.nlm.nih.gov/cgi-bin/sis/search/r?dbs+hsdb:@term+@rn+@rel+94-96-2
   8. http://toxnet.nlm.nih.gov/cgi-bin/sis/search/r?dbs+hsdb:@term+@rn+@rel+94-96-2
   9. http://toxnet.nlm.nih.gov/cgi-bin/sis/search/r?dbs+hsdb:@term+@rn+@rel+94-96-2
  10. http://toxnet.nlm.nih.gov/cgi-bin/sis/search/r?dbs+hsdb:@term+@rn+@rel+94-96-2
  11. http://toxnet.nlm.nih.gov/cgi-bin/sis/search/r?dbs+hsdb:@term+@rn+@rel+94-96-2
  12. http://pubchem.ncbi.nlm.nih.gov/vw3d/vw3d.cgi?cid=7211
