   Octanol/Water Partition Coefficient
        log Kow = 2.22 at pH 5.0
   from [1]HSDB

   Solubilities
        In water, 66.8 mg/L at 25 deg C (est)
   from [2]HSDB

   Vapor Pressure
        3.74X10-10 mm Hg at 25 deg C (est)
   from [3]HSDB

   Other Chemical/Physical Properties

     * Bitter crystals, decomposes at approximately 245 deg C. Specific
       optical rotation = +22 deg at 20 deg C/D (c = 4 in water). One gram
       dissolves in less than 5 mL water and in less than 2 mL alcohol.
       Slightly soluble in acetone, ether; pH of a 1% aqueous solution is
       5.0-6.0. /Trimethaphan Camsylate/
     * White crystals or a white, crystalline powder /Trimethaphan
       camsulate/
     * Henry's Law constant = 2.28X10-13 atm-cu m/mole at 25 deg C (est)
     * Hydroxyl radical reaction rate constant = 4.76X10-11 cu
       cm/molec-sec at 25 deg C (est)

   from [4]HSDB

   Computed Properties
   Molecular Weight                  365.5117 [g/mol]
   Molecular Formula                 C[22]H[25]N[2]OS^+
   XLogP3-AA                         3.6
   H-Bond Donor                      0
   H-Bond Acceptor                   1
   Rotatable Bond Count              4
   Exact Mass                        365.168759
   MonoIsotopic Mass                 365.168759
   Topological Polar Surface Area    24.6
   Heavy Atom Count                  26
   Formal Charge                     1
   Complexity                        514
   Isotope Atom Count                0
   Defined Atom Stereocenter Count   0
   Undefined Atom Stereocenter Count 3
   Defined Bond Stereocenter Count   0
   Undefined Bond Stereocenter Count 0
   Covalently-Bonded Unit Count      1
   Feature 3D Acceptor Count         1
   Feature 3D Ring Count             5
   Effective Rotor Count             5.2
   Conformer Sampling RMSD           0.8
   CID Conformer Count               [5]137

References

   1. http://toxnet.nlm.nih.gov/cgi-bin/sis/search/r?dbs+hsdb:@term+@rn+@rel+7187-66-8
   2. http://toxnet.nlm.nih.gov/cgi-bin/sis/search/r?dbs+hsdb:@term+@rn+@rel+7187-66-8
   3. http://toxnet.nlm.nih.gov/cgi-bin/sis/search/r?dbs+hsdb:@term+@rn+@rel+7187-66-8
   4. http://toxnet.nlm.nih.gov/cgi-bin/sis/search/r?dbs+hsdb:@term+@rn+@rel+7187-66-8
   5. http://pubchem.ncbi.nlm.nih.gov/vw3d/vw3d.cgi?cid=23576
