17396411
  -OEChem-06241222562D

 53 56  0     0  0  0  0  0  0999 V2000
    7.1962   -0.7500    0.0000 S   0  0  0  0  0  0  0  0  0  0  0  0
    2.0000    5.2500    0.0000 F   0  0  0  0  0  0  0  0  0  0  0  0
    8.9282   -3.7500    0.0000 O   0  0  0  0  0  0  0  0  0  0  0  0
    5.4641    0.2500    0.0000 O   0  0  0  0  0  0  0  0  0  0  0  0
    4.5981   -5.2500    0.0000 O   0  5  0  0  0  0  0  0  0  0  0  0
    3.7320   -3.7500    0.0000 O   0  0  0  0  0  0  0  0  0  0  0  0
    8.0622   -2.2500    0.0000 N   0  0  0  0  0  0  0  0  0  0  0  0
    8.9282   -0.7500    0.0000 N   0  0  0  0  0  0  0  0  0  0  0  0
    6.3301    1.7500    0.0000 N   0  0  0  0  0  0  0  0  0  0  0  0
    4.5981   -4.2500    0.0000 N   0  3  0  0  0  0  0  0  0  0  0  0
    9.7942   -2.2500    0.0000 C   0  0  0  0  0  0  0  0  0  0  0  0
    5.4641    3.2500    0.0000 C   0  0  0  0  0  0  0  0  0  0  0  0
    7.1962   -2.7500    0.0000 C   0  0  0  0  0  0  0  0  0  0  0  0
    8.9282   -2.7500    0.0000 C   0  0  0  0  0  0  0  0  0  0  0  0
    8.0622   -1.2500    0.0000 C   0  0  0  0  0  0  0  0  0  0  0  0
    5.4641    2.2500    0.0000 C   0  0  0  0  0  0  0  0  0  0  0  0
    9.7942   -1.2500    0.0000 C   0  0  0  0  0  0  0  0  0  0  0  0
    4.5981    3.7500    0.0000 C   0  0  0  0  0  0  0  0  0  0  0  0
   10.6882   -2.7847    0.0000 C   0  0  0  0  0  0  0  0  0  0  0  0
    7.1962    0.2500    0.0000 C   0  0  0  0  0  0  0  0  0  0  0  0
    6.3301   -2.2500    0.0000 C   0  0  0  0  0  0  0  0  0  0  0  0
    7.1962   -3.7500    0.0000 C   0  0  0  0  0  0  0  0  0  0  0  0
   10.6882   -0.7153    0.0000 C   0  0  0  0  0  0  0  0  0  0  0  0
    6.3301    0.7500    0.0000 C   0  0  0  0  0  0  0  0  0  0  0  0
   11.5942   -2.2708    0.0000 C   0  0  0  0  0  0  0  0  0  0  0  0
    4.5981    4.7500    0.0000 C   0  0  0  0  0  0  0  0  0  0  0  0
    3.7320    3.2500    0.0000 C   0  0  0  0  0  0  0  0  0  0  0  0
   11.5942   -1.2292    0.0000 C   0  0  0  0  0  0  0  0  0  0  0  0
    5.4641   -2.7500    0.0000 C   0  0  0  0  0  0  0  0  0  0  0  0
    6.3301   -4.2500    0.0000 C   0  0  0  0  0  0  0  0  0  0  0  0
    5.4641   -3.7500    0.0000 C   0  0  0  0  0  0  0  0  0  0  0  0
    3.7320    5.2500    0.0000 C   0  0  0  0  0  0  0  0  0  0  0  0
    2.8660    3.7500    0.0000 C   0  0  0  0  0  0  0  0  0  0  0  0
    2.8660    4.7500    0.0000 C   0  0  0  0  0  0  0  0  0  0  0  0
    6.0747    3.1423    0.0000 H   0  0  0  0  0  0  0  0  0  0  0  0
    5.6762    3.8326    0.0000 H   0  0  0  0  0  0  0  0  0  0  0  0
    4.8535    2.3577    0.0000 H   0  0  0  0  0  0  0  0  0  0  0  0
    5.2520    1.6674    0.0000 H   0  0  0  0  0  0  0  0  0  0  0  0
    6.8671    2.0600    0.0000 H   0  0  0  0  0  0  0  0  0  0  0  0
   10.6810   -3.4046    0.0000 H   0  0  0  0  0  0  0  0  0  0  0  0
    7.8067    0.1423    0.0000 H   0  0  0  0  0  0  0  0  0  0  0  0
    7.4082    0.8326    0.0000 H   0  0  0  0  0  0  0  0  0  0  0  0
    6.3301   -1.6300    0.0000 H   0  0  0  0  0  0  0  0  0  0  0  0
    7.7331   -4.0600    0.0000 H   0  0  0  0  0  0  0  0  0  0  0  0
   10.6810   -0.0954    0.0000 H   0  0  0  0  0  0  0  0  0  0  0  0
   12.1300   -2.5829    0.0000 H   0  0  0  0  0  0  0  0  0  0  0  0
    5.1350    5.0600    0.0000 H   0  0  0  0  0  0  0  0  0  0  0  0
    3.7320    2.6300    0.0000 H   0  0  0  0  0  0  0  0  0  0  0  0
   12.1300   -0.9171    0.0000 H   0  0  0  0  0  0  0  0  0  0  0  0
    4.9272   -2.4400    0.0000 H   0  0  0  0  0  0  0  0  0  0  0  0
    6.3301   -4.8700    0.0000 H   0  0  0  0  0  0  0  0  0  0  0  0
    3.7320    5.8700    0.0000 H   0  0  0  0  0  0  0  0  0  0  0  0
    2.3291    3.4400    0.0000 H   0  0  0  0  0  0  0  0  0  0  0  0
  1 15  1  0  0  0  0
  1 20  1  0  0  0  0
  2 34  1  0  0  0  0
  3 14  2  0  0  0  0
  4 24  2  0  0  0  0
  5 10  1  0  0  0  0
  6 10  2  0  0  0  0
  7 13  1  0  0  0  0
  7 14  1  0  0  0  0
  7 15  1  0  0  0  0
  8 15  2  0  0  0  0
  8 17  1  0  0  0  0
  9 16  1  0  0  0  0
  9 24  1  0  0  0  0
  9 39  1  0  0  0  0
 10 31  1  0  0  0  0
 11 14  1  0  0  0  0
 11 17  1  0  0  0  0
 11 19  2  0  0  0  0
 12 16  1  0  0  0  0
 12 18  1  0  0  0  0
 12 35  1  0  0  0  0
 12 36  1  0  0  0  0
 13 21  2  0  0  0  0
 13 22  1  0  0  0  0
 16 37  1  0  0  0  0
 16 38  1  0  0  0  0
 17 23  2  0  0  0  0
 18 26  2  0  0  0  0
 18 27  1  0  0  0  0
 19 25  1  0  0  0  0
 19 40  1  0  0  0  0
 20 24  1  0  0  0  0
 20 41  1  0  0  0  0
 20 42  1  0  0  0  0
 21 29  1  0  0  0  0
 21 43  1  0  0  0  0
 22 30  2  0  0  0  0
 22 44  1  0  0  0  0
 23 28  1  0  0  0  0
 23 45  1  0  0  0  0
 25 28  2  0  0  0  0
 25 46  1  0  0  0  0
 26 32  1  0  0  0  0
 26 47  1  0  0  0  0
 27 33  2  0  0  0  0
 27 48  1  0  0  0  0
 28 49  1  0  0  0  0
 29 31  2  0  0  0  0
 29 50  1  0  0  0  0
 30 31  1  0  0  0  0
 30 51  1  0  0  0  0
 32 34  2  0  0  0  0
 32 52  1  0  0  0  0
 33 34  1  0  0  0  0
 33 53  1  0  0  0  0
M  CHG  2   5  -1  10   1
M  END
> <PUBCHEM_COMPOUND_CID>
17396411

> <PUBCHEM_COMPOUND_CANONICALIZED>
1

> <PUBCHEM_CACTVS_COMPLEXITY>
775

> <PUBCHEM_CACTVS_HBOND_ACCEPTOR>
7

> <PUBCHEM_CACTVS_HBOND_DONOR>
1

> <PUBCHEM_CACTVS_ROTATABLE_BOND>
7

> <PUBCHEM_CACTVS_SUBSKEYS>
AAADceB7uQBAAAAAAAAAAAAAAAAAAAAAAAAwYMEAAAAAAACBUAAAHwQUAAAADAjF2AyxwIPQQAipAiVSdwCCEAFlAhApiIEIZMoIIDrA3ZGEIYhglgDIyccYiICOAACAAAACAAAAAQAAAAQAAAAAAAAAAA==

> <PUBCHEM_IUPAC_OPENEYE_NAME>
N-[2-(4-fluorophenyl)ethyl]-2-[3-(4-nitrophenyl)-4-oxo-quinazolin-2-yl]sulfanyl-acetamide

> <PUBCHEM_IUPAC_CAS_NAME>
N-[2-(4-fluorophenyl)ethyl]-2-[[3-(4-nitrophenyl)-4-oxo-2-quinazolinyl]thio]acetamide

> <PUBCHEM_IUPAC_NAME>
N-[2-(4-fluorophenyl)ethyl]-2-[3-(4-nitrophenyl)-4-oxoquinazolin-2-yl]sulfanylacetamide

> <PUBCHEM_IUPAC_SYSTEMATIC_NAME>
N-[2-(4-fluorophenyl)ethyl]-2-[3-(4-nitrophenyl)-4-oxidanylidene-quinazolin-2-yl]sulfanyl-ethanamide

> <PUBCHEM_IUPAC_TRADITIONAL_NAME>
N-[2-(4-fluorophenyl)ethyl]-2-[[4-keto-3-(4-nitrophenyl)quinazolin-2-yl]thio]acetamide

> <PUBCHEM_IUPAC_INCHI>
InChI=1S/C24H19FN4O4S/c25-17-7-5-16(6-8-17)13-14-26-22(30)15-34-24-27-21-4-2-1-3-20(21)23(31)28(24)18-9-11-19(12-10-18)29(32)33/h1-12H,13-15H2,(H,26,30)

> <PUBCHEM_IUPAC_INCHIKEY>
NWERQNWDUPSROT-UHFFFAOYSA-N

> <PUBCHEM_XLOGP3_AA>
4.6

> <PUBCHEM_EXACT_MASS>
478.111104

> <PUBCHEM_MOLECULAR_FORMULA>
C24H19FN4O4S

> <PUBCHEM_MOLECULAR_WEIGHT>
478.495463

> <PUBCHEM_OPENEYE_CAN_SMILES>
C1=CC=C2C(=C1)C(=O)N(C(=N2)SCC(=O)NCCC3=CC=C(C=C3)F)C4=CC=C(C=C4)[N+](=O)[O-]

> <PUBCHEM_OPENEYE_ISO_SMILES>
C1=CC=C2C(=C1)C(=O)N(C(=N2)SCC(=O)NCCC3=CC=C(C=C3)F)C4=CC=C(C=C4)[N+](=O)[O-]

> <PUBCHEM_CACTVS_TPSA>
133

> <PUBCHEM_MONOISOTOPIC_WEIGHT>
478.111104

> <PUBCHEM_TOTAL_CHARGE>
0

> <PUBCHEM_HEAVY_ATOM_COUNT>
34

> <PUBCHEM_ATOM_DEF_STEREO_COUNT>
0

> <PUBCHEM_ATOM_UDEF_STEREO_COUNT>
0

> <PUBCHEM_BOND_DEF_STEREO_COUNT>
0

> <PUBCHEM_BOND_UDEF_STEREO_COUNT>
0

> <PUBCHEM_ISOTOPIC_ATOM_COUNT>
0

> <PUBCHEM_COMPONENT_COUNT>
1

> <PUBCHEM_CACTVS_TAUTO_COUNT>
2

> <PUBCHEM_COORDINATE_TYPE>
1
5
255

> <PUBCHEM_BONDANNOTATIONS>
11  14  8
11  17  8
11  19  8
13  21  8
13  22  8
17  23  8
18  26  8
18  27  8
19  25  8
21  29  8
22  30  8
23  28  8
25  28  8
26  32  8
27  33  8
29  31  8
30  31  8
32  34  8
33  34  8
7  14  8
7  15  8
8  15  8
8  17  8

$$$$

