5282106
  -OEChem-07051213032D

 73 73  0     0  0  0  0  0  0999 V2000
    6.0010    0.1550    0.0000 O   0  0  0  0  0  0  0  0  0  0  0  0
    4.2690    6.1550    0.0000 O   0  0  0  0  0  0  0  0  0  0  0  0
    2.5369    5.1550    0.0000 O   0  0  0  0  0  0  0  0  0  0  0  0
    6.8671    1.6550    0.0000 N   0  0  0  0  0  0  0  0  0  0  0  0
    8.5991   -2.3450    0.0000 C   0  0  0  0  0  0  0  0  0  0  0  0
    9.4651   -2.8450    0.0000 C   0  0  0  0  0  0  0  0  0  0  0  0
   14.6613   -5.8450    0.0000 C   0  0  0  0  0  0  0  0  0  0  0  0
    8.5991   -1.3450    0.0000 C   0  0  0  0  0  0  0  0  0  0  0  0
   13.7953   -5.3450    0.0000 C   0  0  0  0  0  0  0  0  0  0  0  0
    9.4651   -3.8450    0.0000 C   0  0  0  0  0  0  0  0  0  0  0  0
   15.5273   -5.3450    0.0000 C   0  0  0  0  0  0  0  0  0  0  0  0
   12.9292   -5.8450    0.0000 C   0  0  0  0  0  0  0  0  0  0  0  0
    7.7331   -0.8450    0.0000 C   0  0  0  0  0  0  0  0  0  0  0  0
   10.3312   -4.3450    0.0000 C   0  0  0  0  0  0  0  0  0  0  0  0
   16.3933   -5.8450    0.0000 C   0  0  0  0  0  0  0  0  0  0  0  0
   12.0632   -5.3450    0.0000 C   0  0  0  0  0  0  0  0  0  0  0  0
    7.7331    0.1550    0.0000 C   0  0  0  0  0  0  0  0  0  0  0  0
   17.2594   -5.3450    0.0000 C   0  0  0  0  0  0  0  0  0  0  0  0
   10.3312   -5.3450    0.0000 C   0  0  0  0  0  0  0  0  0  0  0  0
   11.1972   -5.8450    0.0000 C   0  0  0  0  0  0  0  0  0  0  0  0
    6.8671    0.6550    0.0000 C   0  0  0  0  0  0  0  0  0  0  0  0
   18.1254   -5.8450    0.0000 C   0  0  0  0  0  0  0  0  0  0  0  0
    6.0010    2.1550    0.0000 C   0  0  0  0  0  0  0  0  0  0  0  0
    6.0010    3.1550    0.0000 C   0  0  0  0  0  0  0  0  0  0  0  0
    5.1350    3.6550    0.0000 C   0  0  0  0  0  0  0  0  0  0  0  0
    5.1350    4.6550    0.0000 C   0  0  0  0  0  0  0  0  0  0  0  0
    4.2690    3.1550    0.0000 C   0  0  0  0  0  0  0  0  0  0  0  0
    4.2690    5.1550    0.0000 C   0  0  0  0  0  0  0  0  0  0  0  0
    3.4030    3.6550    0.0000 C   0  0  0  0  0  0  0  0  0  0  0  0
    3.4030    4.6550    0.0000 C   0  0  0  0  0  0  0  0  0  0  0  0
    7.9885   -2.2373    0.0000 H   0  0  0  0  0  0  0  0  0  0  0  0
    8.3871   -2.9276    0.0000 H   0  0  0  0  0  0  0  0  0  0  0  0
   10.0757   -2.9527    0.0000 H   0  0  0  0  0  0  0  0  0  0  0  0
    9.6772   -2.2624    0.0000 H   0  0  0  0  0  0  0  0  0  0  0  0
   14.2628   -6.3200    0.0000 H   0  0  0  0  0  0  0  0  0  0  0  0
   15.0598   -6.3200    0.0000 H   0  0  0  0  0  0  0  0  0  0  0  0
    9.2097   -1.4527    0.0000 H   0  0  0  0  0  0  0  0  0  0  0  0
    8.8112   -0.7624    0.0000 H   0  0  0  0  0  0  0  0  0  0  0  0
   14.1938   -4.8700    0.0000 H   0  0  0  0  0  0  0  0  0  0  0  0
   13.3967   -4.8700    0.0000 H   0  0  0  0  0  0  0  0  0  0  0  0
    8.8546   -3.7373    0.0000 H   0  0  0  0  0  0  0  0  0  0  0  0
    9.2531   -4.4276    0.0000 H   0  0  0  0  0  0  0  0  0  0  0  0
   15.9258   -4.8700    0.0000 H   0  0  0  0  0  0  0  0  0  0  0  0
   15.1288   -4.8700    0.0000 H   0  0  0  0  0  0  0  0  0  0  0  0
   12.5307   -6.3200    0.0000 H   0  0  0  0  0  0  0  0  0  0  0  0
   13.3278   -6.3200    0.0000 H   0  0  0  0  0  0  0  0  0  0  0  0
    7.1225   -0.7373    0.0000 H   0  0  0  0  0  0  0  0  0  0  0  0
    7.5210   -1.4276    0.0000 H   0  0  0  0  0  0  0  0  0  0  0  0
   10.9417   -4.4527    0.0000 H   0  0  0  0  0  0  0  0  0  0  0  0
   10.5432   -3.7624    0.0000 H   0  0  0  0  0  0  0  0  0  0  0  0
   15.9948   -6.3200    0.0000 H   0  0  0  0  0  0  0  0  0  0  0  0
   16.7919   -6.3200    0.0000 H   0  0  0  0  0  0  0  0  0  0  0  0
   12.4617   -4.8700    0.0000 H   0  0  0  0  0  0  0  0  0  0  0  0
   11.6647   -4.8700    0.0000 H   0  0  0  0  0  0  0  0  0  0  0  0
    8.3437    0.0473    0.0000 H   0  0  0  0  0  0  0  0  0  0  0  0
    7.9451    0.7376    0.0000 H   0  0  0  0  0  0  0  0  0  0  0  0
   17.6579   -4.8700    0.0000 H   0  0  0  0  0  0  0  0  0  0  0  0
   16.8608   -4.8700    0.0000 H   0  0  0  0  0  0  0  0  0  0  0  0
    9.7942   -5.6550    0.0000 H   0  0  0  0  0  0  0  0  0  0  0  0
   11.1972   -6.4650    0.0000 H   0  0  0  0  0  0  0  0  0  0  0  0
   17.8154   -6.3819    0.0000 H   0  0  0  0  0  0  0  0  0  0  0  0
   18.6623   -6.1550    0.0000 H   0  0  0  0  0  0  0  0  0  0  0  0
   18.4354   -5.3081    0.0000 H   0  0  0  0  0  0  0  0  0  0  0  0
    7.4040    1.9650    0.0000 H   0  0  0  0  0  0  0  0  0  0  0  0
    5.3905    2.2627    0.0000 H   0  0  0  0  0  0  0  0  0  0  0  0
    5.7890    1.5724    0.0000 H   0  0  0  0  0  0  0  0  0  0  0  0
    6.6116    3.0473    0.0000 H   0  0  0  0  0  0  0  0  0  0  0  0
    6.2131    3.7376    0.0000 H   0  0  0  0  0  0  0  0  0  0  0  0
    5.6720    4.9650    0.0000 H   0  0  0  0  0  0  0  0  0  0  0  0
    4.2690    2.5350    0.0000 H   0  0  0  0  0  0  0  0  0  0  0  0
    2.8660    3.3450    0.0000 H   0  0  0  0  0  0  0  0  0  0  0  0
    4.8059    6.4650    0.0000 H   0  0  0  0  0  0  0  0  0  0  0  0
    2.0000    4.8450    0.0000 H   0  0  0  0  0  0  0  0  0  0  0  0
  1 21  2  0  0  0  0
  2 28  1  0  0  0  0
  2 72  1  0  0  0  0
  3 30  1  0  0  0  0
  3 73  1  0  0  0  0
  4 21  1  0  0  0  0
  4 23  1  0  0  0  0
  4 64  1  0  0  0  0
  5  6  1  0  0  0  0
  5  8  1  0  0  0  0
  5 31  1  0  0  0  0
  5 32  1  0  0  0  0
  6 10  1  0  0  0  0
  6 33  1  0  0  0  0
  6 34  1  0  0  0  0
  7  9  1  0  0  0  0
  7 11  1  0  0  0  0
  7 35  1  0  0  0  0
  7 36  1  0  0  0  0
  8 13  1  0  0  0  0
  8 37  1  0  0  0  0
  8 38  1  0  0  0  0
  9 12  1  0  0  0  0
  9 39  1  0  0  0  0
  9 40  1  0  0  0  0
 10 14  1  0  0  0  0
 10 41  1  0  0  0  0
 10 42  1  0  0  0  0
 11 15  1  0  0  0  0
 11 43  1  0  0  0  0
 11 44  1  0  0  0  0
 12 16  1  0  0  0  0
 12 45  1  0  0  0  0
 12 46  1  0  0  0  0
 13 17  1  0  0  0  0
 13 47  1  0  0  0  0
 13 48  1  0  0  0  0
 14 19  1  0  0  0  0
 14 49  1  0  0  0  0
 14 50  1  0  0  0  0
 15 18  1  0  0  0  0
 15 51  1  0  0  0  0
 15 52  1  0  0  0  0
 16 20  1  0  0  0  0
 16 53  1  0  0  0  0
 16 54  1  0  0  0  0
 17 21  1  0  0  0  0
 17 55  1  0  0  0  0
 17 56  1  0  0  0  0
 18 22  1  0  0  0  0
 18 57  1  0  0  0  0
 18 58  1  0  0  0  0
 19 20  2  0  0  0  0
 19 59  1  0  0  0  0
 20 60  1  0  0  0  0
 22 61  1  0  0  0  0
 22 62  1  0  0  0  0
 22 63  1  0  0  0  0
 23 24  1  0  0  0  0
 23 65  1  0  0  0  0
 23 66  1  0  0  0  0
 24 25  1  0  0  0  0
 24 67  1  0  0  0  0
 24 68  1  0  0  0  0
 25 26  2  0  0  0  0
 25 27  1  0  0  0  0
 26 28  1  0  0  0  0
 26 69  1  0  0  0  0
 27 29  2  0  0  0  0
 27 70  1  0  0  0  0
 28 30  2  0  0  0  0
 29 30  1  0  0  0  0
 29 71  1  0  0  0  0
M  END
> <PUBCHEM_COMPOUND_CID>
5282106

> <PUBCHEM_COMPOUND_CANONICALIZED>
1

> <PUBCHEM_CACTVS_COMPLEXITY>
438

> <PUBCHEM_CACTVS_HBOND_ACCEPTOR>
3

> <PUBCHEM_CACTVS_HBOND_DONOR>
3

> <PUBCHEM_CACTVS_ROTATABLE_BOND>
18

> <PUBCHEM_CACTVS_SUBSKEYS>
AAADcfB6MAAAAAAAAAAAAAAAAAAAAAAAAAAwAAAAAAAAAAABAAAAHgAQCAAADATBmAQyBoLAAgCIAiFSEAACAAAgIAAIiIEOiIgJJjKCkROEcAEk1hGJmAeY2LKOIAABAAAAQABAAAIAAACAAAAAAAAAAA==

> <PUBCHEM_IUPAC_OPENEYE_NAME>
(Z)-N-[2-(3,4-dihydroxyphenyl)ethyl]octadec-9-enamide

> <PUBCHEM_IUPAC_CAS_NAME>
(Z)-N-[2-(3,4-dihydroxyphenyl)ethyl]-9-octadecenamide

> <PUBCHEM_IUPAC_NAME>
(Z)-N-[2-(3,4-dihydroxyphenyl)ethyl]octadec-9-enamide

> <PUBCHEM_IUPAC_SYSTEMATIC_NAME>
(Z)-N-[2-[3,4-bis(oxidanyl)phenyl]ethyl]octadec-9-enamide

> <PUBCHEM_IUPAC_TRADITIONAL_NAME>
(Z)-N-[2-(3,4-dihydroxyphenyl)ethyl]octadec-9-enamide

> <PUBCHEM_IUPAC_INCHI>
InChI=1S/C26H43NO3/c1-2-3-4-5-6-7-8-9-10-11-12-13-14-15-16-17-26(30)27-21-20-23-18-19-24(28)25(29)22-23/h9-10,18-19,22,28-29H,2-8,11-17,20-21H2,1H3,(H,27,30)/b10-9-

> <PUBCHEM_IUPAC_INCHIKEY>
QQBPLXNESPTPNU-KTKRTIGZSA-N

> <PUBCHEM_XLOGP3_AA>
8.3

> <PUBCHEM_EXACT_MASS>
417.324294

> <PUBCHEM_MOLECULAR_FORMULA>
C26H43NO3

> <PUBCHEM_MOLECULAR_WEIGHT>
417.62452

> <PUBCHEM_OPENEYE_CAN_SMILES>
CCCCCCCCC=CCCCCCCCC(=O)NCCC1=CC(=C(C=C1)O)O

> <PUBCHEM_OPENEYE_ISO_SMILES>
CCCCCCCC/C=C\CCCCCCCC(=O)NCCC1=CC(=C(C=C1)O)O

> <PUBCHEM_CACTVS_TPSA>
69.6

> <PUBCHEM_MONOISOTOPIC_WEIGHT>
417.324294

> <PUBCHEM_TOTAL_CHARGE>
0

> <PUBCHEM_HEAVY_ATOM_COUNT>
30

> <PUBCHEM_ATOM_DEF_STEREO_COUNT>
0

> <PUBCHEM_ATOM_UDEF_STEREO_COUNT>
0

> <PUBCHEM_BOND_DEF_STEREO_COUNT>
1

> <PUBCHEM_BOND_UDEF_STEREO_COUNT>
0

> <PUBCHEM_ISOTOPIC_ATOM_COUNT>
0

> <PUBCHEM_COMPONENT_COUNT>
1

> <PUBCHEM_CACTVS_TAUTO_COUNT>
36

> <PUBCHEM_COORDINATE_TYPE>
1
5
255

> <PUBCHEM_BONDANNOTATIONS>
25  26  8
25  27  8
26  28  8
27  29  8
28  30  8
29  30  8

$$$$

