5281713
  -OEChem-07051212592D

 56 57  0     0  0  0  0  0  0999 V2000
    3.4030    0.9050    0.0000 O   0  0  0  0  0  0  0  0  0  0  0  0
    6.8671    0.9050    0.0000 O   0  0  0  0  0  0  0  0  0  0  0  0
    2.5369   -3.5950    0.0000 O   0  0  0  0  0  0  0  0  0  0  0  0
    4.2690   -6.5950    0.0000 O   0  0  0  0  0  0  0  0  0  0  0  0
    6.8671    3.9050    0.0000 C   0  0  0  0  0  0  0  0  0  0  0  0
    6.0010    3.4050    0.0000 C   0  0  0  0  0  0  0  0  0  0  0  0
    5.1350    1.9050    0.0000 C   0  0  0  0  0  0  0  0  0  0  0  0
    6.8671    4.9050    0.0000 C   0  0  0  0  0  0  0  0  0  0  0  0
    5.1350    0.9050    0.0000 C   0  0  0  0  0  0  0  0  0  0  0  0
    6.0010    2.4050    0.0000 C   0  0  0  0  0  0  0  0  0  0  0  0
    4.2690    0.4050    0.0000 C   0  0  0  0  0  0  0  0  0  0  0  0
    6.0010    0.4050    0.0000 C   0  0  0  0  0  0  0  0  0  0  0  0
    5.1350    3.9050    0.0000 C   0  0  0  0  0  0  0  0  0  0  0  0
    7.7331    5.4050    0.0000 C   0  0  0  0  0  0  0  0  0  0  0  0
    5.1350   -1.0950    0.0000 C   0  0  0  0  0  0  0  0  0  0  0  0
    4.2690   -0.5950    0.0000 C   0  0  0  0  0  0  0  0  0  0  0  0
    6.0010   -0.5950    0.0000 C   0  0  0  0  0  0  0  0  0  0  0  0
    7.7331    6.4050    0.0000 C   0  0  0  0  0  0  0  0  0  0  0  0
    5.1350   -2.0950    0.0000 C   0  0  0  0  0  0  0  0  0  0  0  0
    8.5991    6.9050    0.0000 C   0  0  0  0  0  0  0  0  0  0  0  0
    6.8671    6.9050    0.0000 C   0  0  0  0  0  0  0  0  0  0  0  0
    4.2690   -2.5950    0.0000 C   0  0  0  0  0  0  0  0  0  0  0  0
    4.2690   -3.5950    0.0000 C   0  0  0  0  0  0  0  0  0  0  0  0
    3.4030   -4.0950    0.0000 C   0  0  0  0  0  0  0  0  0  0  0  0
    5.1350   -4.0950    0.0000 C   0  0  0  0  0  0  0  0  0  0  0  0
    3.4030   -5.0950    0.0000 C   0  0  0  0  0  0  0  0  0  0  0  0
    5.1350   -5.0950    0.0000 C   0  0  0  0  0  0  0  0  0  0  0  0
    4.2690   -5.5950    0.0000 C   0  0  0  0  0  0  0  0  0  0  0  0
    7.0791    3.3224    0.0000 H   0  0  0  0  0  0  0  0  0  0  0  0
    7.4776    4.0127    0.0000 H   0  0  0  0  0  0  0  0  0  0  0  0
    4.9230    2.4876    0.0000 H   0  0  0  0  0  0  0  0  0  0  0  0
    4.5244    1.7973    0.0000 H   0  0  0  0  0  0  0  0  0  0  0  0
    6.6550    5.4876    0.0000 H   0  0  0  0  0  0  0  0  0  0  0  0
    6.2565    4.7973    0.0000 H   0  0  0  0  0  0  0  0  0  0  0  0
    6.5380    2.0950    0.0000 H   0  0  0  0  0  0  0  0  0  0  0  0
    5.4450    4.4419    0.0000 H   0  0  0  0  0  0  0  0  0  0  0  0
    4.5981    4.2150    0.0000 H   0  0  0  0  0  0  0  0  0  0  0  0
    4.8250    3.3681    0.0000 H   0  0  0  0  0  0  0  0  0  0  0  0
    8.2700    5.0950    0.0000 H   0  0  0  0  0  0  0  0  0  0  0  0
    3.7320   -0.9050    0.0000 H   0  0  0  0  0  0  0  0  0  0  0  0
    6.5380   -0.9050    0.0000 H   0  0  0  0  0  0  0  0  0  0  0  0
    5.6720   -2.4050    0.0000 H   0  0  0  0  0  0  0  0  0  0  0  0
    7.1771    7.4419    0.0000 H   0  0  0  0  0  0  0  0  0  0  0  0
    6.3301    7.2150    0.0000 H   0  0  0  0  0  0  0  0  0  0  0  0
    6.5571    6.3681    0.0000 H   0  0  0  0  0  0  0  0  0  0  0  0
    8.9091    6.3681    0.0000 H   0  0  0  0  0  0  0  0  0  0  0  0
    9.1360    7.2150    0.0000 H   0  0  0  0  0  0  0  0  0  0  0  0
    8.2891    7.4419    0.0000 H   0  0  0  0  0  0  0  0  0  0  0  0
    3.7320   -2.2850    0.0000 H   0  0  0  0  0  0  0  0  0  0  0  0
    2.8660    0.5950    0.0000 H   0  0  0  0  0  0  0  0  0  0  0  0
    7.4040    0.5950    0.0000 H   0  0  0  0  0  0  0  0  0  0  0  0
    5.6720   -3.7850    0.0000 H   0  0  0  0  0  0  0  0  0  0  0  0
    2.8660   -5.4050    0.0000 H   0  0  0  0  0  0  0  0  0  0  0  0
    5.6720   -5.4050    0.0000 H   0  0  0  0  0  0  0  0  0  0  0  0
    2.0000   -3.9050    0.0000 H   0  0  0  0  0  0  0  0  0  0  0  0
    4.8059   -6.9050    0.0000 H   0  0  0  0  0  0  0  0  0  0  0  0
  1 11  1  0  0  0  0
  1 50  1  0  0  0  0
  2 12  1  0  0  0  0
  2 51  1  0  0  0  0
  3 24  1  0  0  0  0
  3 55  1  0  0  0  0
  4 28  1  0  0  0  0
  4 56  1  0  0  0  0
  5  6  1  0  0  0  0
  5  8  1  0  0  0  0
  5 29  1  0  0  0  0
  5 30  1  0  0  0  0
  6 10  2  0  0  0  0
  6 13  1  0  0  0  0
  7  9  1  0  0  0  0
  7 10  1  0  0  0  0
  7 31  1  0  0  0  0
  7 32  1  0  0  0  0
  8 14  1  0  0  0  0
  8 33  1  0  0  0  0
  8 34  1  0  0  0  0
  9 11  2  0  0  0  0
  9 12  1  0  0  0  0
 10 35  1  0  0  0  0
 11 16  1  0  0  0  0
 12 17  2  0  0  0  0
 13 36  1  0  0  0  0
 13 37  1  0  0  0  0
 13 38  1  0  0  0  0
 14 18  2  0  0  0  0
 14 39  1  0  0  0  0
 15 16  2  0  0  0  0
 15 17  1  0  0  0  0
 15 19  1  0  0  0  0
 16 40  1  0  0  0  0
 17 41  1  0  0  0  0
 18 20  1  0  0  0  0
 18 21  1  0  0  0  0
 19 22  2  0  0  0  0
 19 42  1  0  0  0  0
 20 46  1  0  0  0  0
 20 47  1  0  0  0  0
 20 48  1  0  0  0  0
 21 43  1  0  0  0  0
 21 44  1  0  0  0  0
 21 45  1  0  0  0  0
 22 23  1  0  0  0  0
 22 49  1  0  0  0  0
 23 24  2  0  0  0  0
 23 25  1  0  0  0  0
 24 26  1  0  0  0  0
 25 27  2  0  0  0  0
 25 52  1  0  0  0  0
 26 28  2  0  0  0  0
 26 53  1  0  0  0  0
 27 28  1  0  0  0  0
 27 54  1  0  0  0  0
M  END
> <PUBCHEM_COMPOUND_CID>
5281713

> <PUBCHEM_COMPOUND_CANONICALIZED>
1

> <PUBCHEM_CACTVS_COMPLEXITY>
549

> <PUBCHEM_CACTVS_HBOND_ACCEPTOR>
4

> <PUBCHEM_CACTVS_HBOND_DONOR>
4

> <PUBCHEM_CACTVS_ROTATABLE_BOND>
7

> <PUBCHEM_CACTVS_SUBSKEYS>
AAADceB4OAAAAAAAAAAAAAAAAAAAAAAAAAAwYAAAAAAAAAABQAAAGgAACAAADASAmAAyBoAAAgCAAiBCAAACAAAgIAAIiAAGCIgIJyKCERKAcAAlwBUImAeA4PQOYAABCAAIAADAAAIQABAAAAAAAAAAAA==

> <PUBCHEM_IUPAC_OPENEYE_NAME>
5-[(E)-2-(2,4-dihydroxyphenyl)vinyl]-2-[(2E)-3,7-dimethylocta-2,6-dienyl]benzene-1,3-diol

> <PUBCHEM_IUPAC_CAS_NAME>
5-[(E)-2-(2,4-dihydroxyphenyl)ethenyl]-2-[(2E)-3,7-dimethylocta-2,6-dienyl]benzene-1,3-diol

> <PUBCHEM_IUPAC_NAME>
5-[(E)-2-(2,4-dihydroxyphenyl)ethenyl]-2-[(2E)-3,7-dimethylocta-2,6-dienyl]benzene-1,3-diol

> <PUBCHEM_IUPAC_SYSTEMATIC_NAME>
5-[(E)-2-[2,4-bis(oxidanyl)phenyl]ethenyl]-2-[(2E)-3,7-dimethylocta-2,6-dienyl]benzene-1,3-diol

> <PUBCHEM_IUPAC_TRADITIONAL_NAME>
5-[(E)-2-(2,4-dihydroxyphenyl)vinyl]-2-[(2E)-3,7-dimethylocta-2,6-dienyl]resorcinol

> <PUBCHEM_IUPAC_INCHI>
InChI=1S/C24H28O4/c1-16(2)5-4-6-17(3)7-12-21-23(27)13-18(14-24(21)28)8-9-19-10-11-20(25)15-22(19)26/h5,7-11,13-15,25-28H,4,6,12H2,1-3H3/b9-8+,17-7+

> <PUBCHEM_IUPAC_INCHIKEY>
OEILZVSHVTYHKL-MZYNZGBKSA-N

> <PUBCHEM_XLOGP3_AA>
6.6

> <PUBCHEM_EXACT_MASS>
380.198759

> <PUBCHEM_MOLECULAR_FORMULA>
C24H28O4

> <PUBCHEM_MOLECULAR_WEIGHT>
380.47672

> <PUBCHEM_OPENEYE_CAN_SMILES>
CC(=CCCC(=CCC1=C(C=C(C=C1O)C=CC2=C(C=C(C=C2)O)O)O)C)C

> <PUBCHEM_OPENEYE_ISO_SMILES>
CC(=CCC/C(=C/CC1=C(C=C(C=C1O)/C=C/C2=C(C=C(C=C2)O)O)O)/C)C

> <PUBCHEM_CACTVS_TPSA>
80.9

> <PUBCHEM_MONOISOTOPIC_WEIGHT>
380.198759

> <PUBCHEM_TOTAL_CHARGE>
0

> <PUBCHEM_HEAVY_ATOM_COUNT>
28

> <PUBCHEM_ATOM_DEF_STEREO_COUNT>
0

> <PUBCHEM_ATOM_UDEF_STEREO_COUNT>
0

> <PUBCHEM_BOND_DEF_STEREO_COUNT>
2

> <PUBCHEM_BOND_UDEF_STEREO_COUNT>
0

> <PUBCHEM_ISOTOPIC_ATOM_COUNT>
0

> <PUBCHEM_COMPONENT_COUNT>
1

> <PUBCHEM_CACTVS_TAUTO_COUNT>
75

> <PUBCHEM_COORDINATE_TYPE>
1
5
255

> <PUBCHEM_BONDANNOTATIONS>
11  16  8
12  17  8
15  16  8
15  17  8
23  24  8
23  25  8
24  26  8
25  27  8
26  28  8
27  28  8
9  11  8
9  12  8

$$$$

