533
  -OEChem-07051212462D

  3  2  0     0  0  0  0  0  0999 V2000
    2.5369   -0.1550    0.0000 Se  0  0  0  0  0  0  0  0  0  0  0  0
    3.0739    0.1550    0.0000 H   0  0  0  0  0  0  0  0  0  0  0  0
    2.0000    0.1550    0.0000 H   0  0  0  0  0  0  0  0  0  0  0  0
  1  2  1  0  0  0  0
  1  3  1  0  0  0  0
M  END
> <PUBCHEM_COMPOUND_CID>
533

> <PUBCHEM_COMPOUND_CANONICALIZED>
1

> <PUBCHEM_CACTVS_COMPLEXITY>
0

> <PUBCHEM_CACTVS_HBOND_ACCEPTOR>
0

> <PUBCHEM_CACTVS_HBOND_DONOR>
0

> <PUBCHEM_CACTVS_ROTATABLE_BOND>
0

> <PUBCHEM_CACTVS_SUBSKEYS>
AAADcQAAAAAAAAAAIAAAAAAAAAAAAAAAAAAAAAAAAAAAAAAAAAAAAAAAAAAAAAAAAAAAAAAAAAAAAAAAAAAAAAAAAAAAAAAAAAAAAAAAAAAAAAAAAAAAAAAAAAAAAAAAAAAAAAAAAAAAAAAAAAAAAAAAAA==

> <PUBCHEM_IUPAC_OPENEYE_NAME>
hydrogen selenide

> <PUBCHEM_IUPAC_CAS_NAME>
selane

> <PUBCHEM_IUPAC_NAME>
selane

> <PUBCHEM_IUPAC_SYSTEMATIC_NAME>
selane

> <PUBCHEM_IUPAC_TRADITIONAL_NAME>
hydrogen selenide

> <PUBCHEM_IUPAC_INCHI>
InChI=1S/H2Se/h1H2

> <PUBCHEM_IUPAC_INCHIKEY>
SPVXKVOXSXTJOY-UHFFFAOYSA-N

> <PUBCHEM_EXACT_MASS>
81.932171

> <PUBCHEM_MOLECULAR_FORMULA>
H2Se

> <PUBCHEM_MOLECULAR_WEIGHT>
80.97588

> <PUBCHEM_OPENEYE_CAN_SMILES>
[SeH2]

> <PUBCHEM_OPENEYE_ISO_SMILES>
[SeH2]

> <PUBCHEM_CACTVS_TPSA>
0

> <PUBCHEM_MONOISOTOPIC_WEIGHT>
81.932171

> <PUBCHEM_TOTAL_CHARGE>
0

> <PUBCHEM_HEAVY_ATOM_COUNT>
1

> <PUBCHEM_ATOM_DEF_STEREO_COUNT>
0

> <PUBCHEM_ATOM_UDEF_STEREO_COUNT>
0

> <PUBCHEM_BOND_DEF_STEREO_COUNT>
0

> <PUBCHEM_BOND_UDEF_STEREO_COUNT>
0

> <PUBCHEM_ISOTOPIC_ATOM_COUNT>
0

> <PUBCHEM_COMPONENT_COUNT>
1

> <PUBCHEM_CACTVS_TAUTO_COUNT>
1

> <PUBCHEM_COORDINATE_TYPE>
1
5
255

$$$$

