   Color/Form

     * Creamy-white powder or crystals from dioxan
     * WHITE OR YELLOWISH WHITE POWDER

   from [1]HSDB

   Odor
        Odorless
   from [2]HSDB

   Taste
        SLIGHTLY BITTER TASTE
   from [3]HSDB

   Melting Point
        176 deg C (also reported as mp 178-179 deg C; mp 198-199 deg C; mp
   205-207 deg C)
   from [4]HSDB

   Dissociation Constants
        pKa1 = 2.65 (aromatic amine); pKa2 = 7.65 (sulfonamide nitrogen)
   [Tolls J; Environ Sci Technol 35: 3397-406 (2001)] [5]PubMed Abstract
   from [6]HSDB

   Octanol/Water Partition Coefficient
        log Kow = 0.14
   from [7]HSDB

   Solubilities

     * In water, 1.50X10+3 mg/L at 29 deg C and 1.92X10+3 mg/L at 37 deg
       C; solubility increases with increasing pH
     * Soluble in acid, alkali; slightly soluble in dimethylsulfoxide
     * Soluble in acetone, ether; slightly soluble in alcohol

   from [8]HSDB

   Spectral Properties

     * UV max = 241 nm in water, pH 6.6 (E = 670 at 1% and 1 cm); UV max =
       243, 257 nm in 0.01 N NaOH (E = 765, 776 at 1% and 1 cm); UV max =
       241, 297 nm in 0.01 N HCL (E = 561, 266 at 1% and 1 cm)
     * IR: 15044 (Sadtler Research Laboratories IR Grating Collection)
     * UV: 3-342 (Organic Electronic Spectral Data, Phillips et al, John
       Wiley & Sons, New York)
     * H-1 NMR: 6671 (Sadtler Research Laboratories Spectral Collection)
     * Raman: 541 (Sadtler Research Laboratories spectral collection)
     * MASS: 74709 (NIST/EPA/MSDC Mass Spectral Database, 1990 Version)

   from [9]HSDB

   Vapor Pressure
        8.62X10-9 mm Hg at 25 deg C (est)
   from [10]HSDB

   Other Chemical/Physical Properties

     * Henry's Law constant = 3.1X10-13 atm-cu m/mol at 25 deg C (est)
     * Hydroxyl radical reaction rate constant = 5.8X10-11 cu
       cm/molecule-sec at 25 deg C (est)
     * White or creamy white, odorless or almost odorless, hygroscopic
       crystals or powder with a bitter alkaline taste. /Sulphadimidine
       sodium/

   from [11]HSDB

   Computed Properties
   Molecular Weight                  278.33016 [g/mol]
   Molecular Formula                 C[12]H[14]N[4]O[2]S
   XLogP3                            0.3
   H-Bond Donor                      2
   H-Bond Acceptor                   6
   Rotatable Bond Count              3
   Tautomer Count                    5
   Exact Mass                        278.083747
   MonoIsotopic Mass                 278.083747
   Topological Polar Surface Area    106
   Heavy Atom Count                  19
   Formal Charge                     0
   Complexity                        377
   Isotope Atom Count                0
   Defined Atom Stereocenter Count   0
   Undefined Atom Stereocenter Count 0
   Defined Bond Stereocenter Count   0
   Undefined Bond Stereocenter Count 0
   Covalently-Bonded Unit Count      1
   Feature 3D Acceptor Count         3
   Feature 3D Donor Count            2
   Feature 3D Cation Count           1
   Feature 3D Ring Count             2
   Effective Rotor Count             3
   Conformer Sampling RMSD           0.6
   CID Conformer Count               [12]17

References

   1. http://toxnet.nlm.nih.gov/cgi-bin/sis/search/r?dbs+hsdb:@term+@rn+@rel+57-68-1
   2. http://toxnet.nlm.nih.gov/cgi-bin/sis/search/r?dbs+hsdb:@term+@rn+@rel+57-68-1
   3. http://toxnet.nlm.nih.gov/cgi-bin/sis/search/r?dbs+hsdb:@term+@rn+@rel+57-68-1
   4. http://toxnet.nlm.nih.gov/cgi-bin/sis/search/r?dbs+hsdb:@term+@rn+@rel+57-68-1
   5. http://www.ncbi.nlm.nih.gov/entrez/query.fcgi?cmd=Retrieve&db=pubmed&dopt=Abstract&list_uids=11563639
   6. http://toxnet.nlm.nih.gov/cgi-bin/sis/search/r?dbs+hsdb:@term+@rn+@rel+57-68-1
   7. http://toxnet.nlm.nih.gov/cgi-bin/sis/search/r?dbs+hsdb:@term+@rn+@rel+57-68-1
   8. http://toxnet.nlm.nih.gov/cgi-bin/sis/search/r?dbs+hsdb:@term+@rn+@rel+57-68-1
   9. http://toxnet.nlm.nih.gov/cgi-bin/sis/search/r?dbs+hsdb:@term+@rn+@rel+57-68-1
  10. http://toxnet.nlm.nih.gov/cgi-bin/sis/search/r?dbs+hsdb:@term+@rn+@rel+57-68-1
  11. http://toxnet.nlm.nih.gov/cgi-bin/sis/search/r?dbs+hsdb:@term+@rn+@rel+57-68-1
  12. http://pubchem.ncbi.nlm.nih.gov/vw3d/vw3d.cgi?cid=5327
