   Color/Form
        White, slightly yellowish powder
   from [1]HSDB

   Melting Point
        233-236 deg C
   from [2]HSDB

   Density/Specific Gravity
        1.3614 g/cu cm @ 25 deg C
   from [3]HSDB

   Octanol/Water Partition Coefficient
        log Kow = 5.17
   from [4]HSDB

   Solubilities

     * Solubility in ethanol 0.7, methanol 0.47, hexane 0.2, chloroform
       40.8, dimethylformamide 332.7, acetone 4.3 (g/l at 25 deg C)
     * In water, 0.39 g/l @ 25 deg C

   from [5]HSDB

   Vapor Pressure
        0.074 mPa at 25 deg C= 5.55X10-7 mm Hg @ 25 deg C
   from [6]HSDB

   Other Chemical/Physical Properties
        Ratios of the racemates (1RS,3RS) to (1RS,3SR) lie in the range
   0-15 to 85-100.
   from [7]HSDB

   Computed Properties
   Molecular Weight                  539.48212 [g/mol]
   Molecular Formula                 C[31]H[23]BrO[2]S
   XLogP3-AA                         8.3
   H-Bond Donor                      1
   H-Bond Acceptor                   3
   Rotatable Bond Count              3
   Tautomer Count                    3
   Exact Mass                        538.060213
   MonoIsotopic Mass                 538.060213
   Topological Polar Surface Area    62.6
   Heavy Atom Count                  35
   Formal Charge                     0
   Complexity                        794
   Isotope Atom Count                0
   Defined Atom Stereocenter Count   0
   Undefined Atom Stereocenter Count 2
   Defined Bond Stereocenter Count   0
   Undefined Bond Stereocenter Count 0
   Covalently-Bonded Unit Count      1
   Feature 3D Acceptor Count         1
   Feature 3D Donor Count            1
   Feature 3D Hydrophobe Count       1
   Feature 3D Ring Count             6
   Effective Rotor Count             3.8
   Conformer Sampling RMSD           0.8
   CID Conformer Count               [8]44

References

   1. http://toxnet.nlm.nih.gov/cgi-bin/sis/search/r?dbs+hsdb:@term+@rn+@rel+104653-34-1
   2. http://toxnet.nlm.nih.gov/cgi-bin/sis/search/r?dbs+hsdb:@term+@rn+@rel+104653-34-1
   3. http://toxnet.nlm.nih.gov/cgi-bin/sis/search/r?dbs+hsdb:@term+@rn+@rel+104653-34-1
   4. http://toxnet.nlm.nih.gov/cgi-bin/sis/search/r?dbs+hsdb:@term+@rn+@rel+104653-34-1
   5. http://toxnet.nlm.nih.gov/cgi-bin/sis/search/r?dbs+hsdb:@term+@rn+@rel+104653-34-1
   6. http://toxnet.nlm.nih.gov/cgi-bin/sis/search/r?dbs+hsdb:@term+@rn+@rel+104653-34-1
   7. http://toxnet.nlm.nih.gov/cgi-bin/sis/search/r?dbs+hsdb:@term+@rn+@rel+104653-34-1
   8. http://pubchem.ncbi.nlm.nih.gov/vw3d/vw3d.cgi?cid=91771
