   Color/Form

     * Colorless gas [Note: A liquid below 21 degrees F. Shipped as a
       liquefied compressed gas].
     * Flammable gas at ordinary temp and pressure. Fuming liquid when
       cooled in ice and salt mixture.

   from [1]HSDB

   Odor
        Fish or ammonia-like odor
   from [2]HSDB

   Boiling Point
        -6.3 deg C at 760 mm Hg; -19.7 deg C at 400 mm Hg; -32.4 deg C at
   200 mm Hg; -43.7 deg C at 100 mm Hg; -73.8 deg C at 10 mm Hg
   from [3]HSDB

   Melting Point
        -93.5 deg C
   from [4]HSDB

   Corrosivity
        Corrosive to copper, copper alloys, zinc alloys, aluminum, and
   galvanized surfaces
   from [5]HSDB

   Critical Temperature and Pressure
        Critical temperature: 430.7 K; critical pressure: 7.614 MPa
   from [6]HSDB

   Density/Specific Gravity
        0.6624 g/cu cm at 25 deg C; 0.0014 g/cu cm at 101.33 kPa
   from [7]HSDB

   Dissociation Constants

     * pKa= 10.657; Ka= 2.70X10-11 at 25 deg C
     * pKb= 3.35
     * pKb= 3.32; pKa= 10.68
     * pKa = 10.62 at 25 deg C

   from [8]HSDB

   Heat of Combustion
        1085.6 kJ/mole at 25 deg C (gas)
   from [9]HSDB

   Heat of Vaporization
        Molar enthalpy of vaporization at 25 deg C: 23.37 kJ/mol
   from [10]HSDB

   Octanol/Water Partition Coefficient
        log Kow = -0.57
   from [11]HSDB

   pH
        Stronger base than ammonia
   from [12]HSDB

   Solubilities

     * 1 vol of water at 12.5 deg C dissolves 1154 vol of gas, at 25 deg C
       dissolves 959 vol of gas; 10.5 g is contained in 100 ml saturated
       benzene soln
     * Soluble in ethanol, benzene, and acetone, miscible in ether.
     * Solubilities in various solvents at 1 atm and 20 deg C.

                                    255Q

       Solvent

   cc/cc

   Solvent cc/cc
   Anline 271 Dimethylformamide 132
   Anisole 89 Ethanol 440
   Benzyl alcohol 314 Ethylene glycol 630
   Isobutanol 298 Furfuryl alcohol 413
   n-Butanol 303 Methanol 654
   Cedrene 34 Methylcyclohexanol 219
   alpha-Chloronaphthalene 52 Monoethanolamine 216
   Cymene 48 Monoethylaniline 113
   Decahydronaphthalene 24 Monomethylaniline 197
   Diacetone 420 Morpholine 255
   Dibenzylether 115 Nitrobenzene 88
   o-Dichlorobenzene 64 o-Nirotoluene 86
   Diethanolamine 313 Pinene 34
   Diethylaniline 60 n-Propanol 339
   Diethylene glycol mono-ethyl ether 336 Quinoline 92
   Dimethylaniline 64 Tetrahydronaphthalene 40
   Dimethylcyclohexylamine 67 o-Toluidine 88
   Triethylene glycol 316 Trimethylene glycol 480

     In water, 1.25X10+6 mg/L at 25 deg C

   from [13]HSDB

   Spectral Properties

     * MAX ABSORPTION (GAS): 190.5 NM (LOG E= 3.51); 215 NM (LOG E= 2.77)
     * IR: 1651 (Documentation of Molecular Spectroscopy Collection)
     * 13C NMR: 152 (Stothers, Carbon-13 NMR Spectrospcopy, Academic
       Press, New York)
     * MASS: 18831 (NIST/EPA/MSDC Mass Spetral database, 1990 version)

   from [14]HSDB

   Surface Tension
        19.15 mN/m at 25 deg C
   from [15]HSDB

   Vapor Density
        Saturated vapor density: 0.21270 lb/cu ft (60 deg F)
   from [16]HSDB

   Vapor Pressure
        2.65X10+3 mm Hg at 25 deg C
   from [17]HSDB

   Other Chemical/Physical Properties

     * CONVERSION UNITS: 783 PPM= 1 MG/L; 1.27 MG/CU M= 1 PPM
     * Heat of fusion: 6.13 kJ/mol
     * Ratio of specific heats of vapor (gas): 1.1946
     * Saturated liquid density: 43.260 lb/cu ft; liquid heat capacity:
       0.803 Btu/lb-F; liquid thermal conductivity: 1.516 Btu-inch/hr-sq
       ft-F; liquid viscosity: 0.250 Centipoise (all at 20 deg F)
     * Saturated vapor pressure: 38.150 lb/sq in
     * Ideal gas heat capacity: 0.395 Btu/lb-F at 75 deg F
     * Amines tends to be fat soluble /Amines/
     * Henry's Law constant = 1.11X10-5 atm cu-m/mol at 25 deg C
     * Hydroxyl radical reaction rate constant = 2.20X10-11 cu-cm/molc sec
       at 25 deg C

   from [18]HSDB

   Computed Properties
   Molecular Weight                  31.0571 [g/mol]
   Molecular Formula                 CH[5]N
   XLogP3-AA                         -0.7
   H-Bond Donor                      1
   H-Bond Acceptor                   1
   Rotatable Bond Count              0
   Exact Mass                        31.042199
   MonoIsotopic Mass                 31.042199
   Topological Polar Surface Area    26
   Heavy Atom Count                  2
   Formal Charge                     0
   Complexity                        2
   Isotope Atom Count                0
   Defined Atom Stereocenter Count   0
   Undefined Atom Stereocenter Count 0
   Defined Bond Stereocenter Count   0
   Undefined Bond Stereocenter Count 0
   Covalently-Bonded Unit Count      1
   Feature 3D Donor Count            1
   Feature 3D Cation Count           1
   Effective Rotor Count             0
   Conformer Sampling RMSD           0.4
   CID Conformer Count               [19]1

References

   1. http://toxnet.nlm.nih.gov/cgi-bin/sis/search/r?dbs+hsdb:@term+@rn+@rel+74-89-5
   2. http://toxnet.nlm.nih.gov/cgi-bin/sis/search/r?dbs+hsdb:@term+@rn+@rel+74-89-5
   3. http://toxnet.nlm.nih.gov/cgi-bin/sis/search/r?dbs+hsdb:@term+@rn+@rel+74-89-5
   4. http://toxnet.nlm.nih.gov/cgi-bin/sis/search/r?dbs+hsdb:@term+@rn+@rel+74-89-5
   5. http://toxnet.nlm.nih.gov/cgi-bin/sis/search/r?dbs+hsdb:@term+@rn+@rel+74-89-5
   6. http://toxnet.nlm.nih.gov/cgi-bin/sis/search/r?dbs+hsdb:@term+@rn+@rel+74-89-5
   7. http://toxnet.nlm.nih.gov/cgi-bin/sis/search/r?dbs+hsdb:@term+@rn+@rel+74-89-5
   8. http://toxnet.nlm.nih.gov/cgi-bin/sis/search/r?dbs+hsdb:@term+@rn+@rel+74-89-5
   9. http://toxnet.nlm.nih.gov/cgi-bin/sis/search/r?dbs+hsdb:@term+@rn+@rel+74-89-5
  10. http://toxnet.nlm.nih.gov/cgi-bin/sis/search/r?dbs+hsdb:@term+@rn+@rel+74-89-5
  11. http://toxnet.nlm.nih.gov/cgi-bin/sis/search/r?dbs+hsdb:@term+@rn+@rel+74-89-5
  12. http://toxnet.nlm.nih.gov/cgi-bin/sis/search/r?dbs+hsdb:@term+@rn+@rel+74-89-5
  13. http://toxnet.nlm.nih.gov/cgi-bin/sis/search/r?dbs+hsdb:@term+@rn+@rel+74-89-5
  14. http://toxnet.nlm.nih.gov/cgi-bin/sis/search/r?dbs+hsdb:@term+@rn+@rel+74-89-5
  15. http://toxnet.nlm.nih.gov/cgi-bin/sis/search/r?dbs+hsdb:@term+@rn+@rel+74-89-5
  16. http://toxnet.nlm.nih.gov/cgi-bin/sis/search/r?dbs+hsdb:@term+@rn+@rel+74-89-5
  17. http://toxnet.nlm.nih.gov/cgi-bin/sis/search/r?dbs+hsdb:@term+@rn+@rel+74-89-5
  18. http://toxnet.nlm.nih.gov/cgi-bin/sis/search/r?dbs+hsdb:@term+@rn+@rel+74-89-5
  19. http://pubchem.ncbi.nlm.nih.gov/vw3d/vw3d.cgi?cid=6329
