441992
  -OEChem-07051212562D

 54 58  0     1  0  0  0  0  0999 V2000
   11.0065   -1.0546    0.0000 O   0  0  0  0  0  0  0  0  0  0  0  0
    8.8413   -3.3171    0.0000 O   0  0  0  0  0  0  0  0  0  0  0  0
    7.5676   -2.1433    0.0000 O   0  0  0  0  0  0  0  0  0  0  0  0
    2.9339    3.1023    0.0000 O   0  0  0  0  0  0  0  0  0  0  0  0
    2.3045    1.1596    0.0000 O   0  0  0  0  0  0  0  0  0  0  0  0
    8.2470    1.3728    0.0000 N   0  0  0  0  0  0  0  0  0  0  0  0
    5.7940    0.2554    0.0000 N   0  0  0  0  0  0  0  0  0  0  0  0
    9.5986    0.1838    0.0000 C   0  0  1  0  0  0  0  0  0  0  0  0
    8.9017   -0.5903    0.0000 C   0  0  2  0  0  0  0  0  0  0  0  0
    9.2691    1.1720    0.0000 C   0  0  0  0  0  0  0  0  0  0  0  0
    7.8845   -0.3658    0.0000 C   0  0  0  0  0  0  0  0  0  0  0  0
   10.6633   -0.0254    0.0000 C   0  0  2  0  0  0  0  0  0  0  0  0
    7.5779    0.6297    0.0000 C   0  0  0  0  0  0  0  0  0  0  0  0
    9.2210   -1.6272    0.0000 C   0  0  0  0  0  0  0  0  0  0  0  0
    6.5998    0.8376    0.0000 C   0  0  0  0  0  0  0  0  0  0  0  0
   11.3238    0.7255    0.0000 C   0  0  0  0  0  0  0  0  0  0  0  0
   10.2805   -1.8610    0.0000 C   0  0  0  0  0  0  0  0  0  0  0  0
    7.9380    2.3239    0.0000 C   0  0  0  0  0  0  0  0  0  0  0  0
    6.2908    1.7886    0.0000 C   0  0  0  0  0  0  0  0  0  0  0  0
    6.9599    2.5318    0.0000 C   0  0  0  0  0  0  0  0  0  0  0  0
    8.5433   -2.3626    0.0000 C   0  0  0  0  0  0  0  0  0  0  0  0
    5.2967    1.7860    0.0000 C   0  0  0  0  0  0  0  0  0  0  0  0
    4.9903    0.8404    0.0000 C   0  0  0  0  0  0  0  0  0  0  0  0
    4.6151    2.5656    0.0000 C   0  0  0  0  0  0  0  0  0  0  0  0
    3.9811    0.6086    0.0000 C   0  0  0  0  0  0  0  0  0  0  0  0
    3.6008    2.3572    0.0000 C   0  0  0  0  0  0  0  0  0  0  0  0
    3.2817    1.3721    0.0000 C   0  0  0  0  0  0  0  0  0  0  0  0
    8.1636   -4.0525    0.0000 C   0  0  0  0  0  0  0  0  0  0  0  0
    3.2458    4.0525    0.0000 C   0  0  0  0  0  0  0  0  0  0  0  0
    2.0000    0.2071    0.0000 C   0  0  0  0  0  0  0  0  0  0  0  0
   10.1601    0.8220    0.0000 H   0  0  0  0  0  0  0  0  0  0  0  0
    8.3256   -1.2153    0.0000 H   0  0  0  0  0  0  0  0  0  0  0  0
    9.8822    1.2646    0.0000 H   0  0  0  0  0  0  0  0  0  0  0  0
    9.2828    1.7918    0.0000 H   0  0  0  0  0  0  0  0  0  0  0  0
    7.2695   -0.4442    0.0000 H   0  0  0  0  0  0  0  0  0  0  0  0
    7.8565   -0.9852    0.0000 H   0  0  0  0  0  0  0  0  0  0  0  0
   11.2709   -0.1484    0.0000 H   0  0  0  0  0  0  0  0  0  0  0  0
   11.7893    0.3160    0.0000 H   0  0  0  0  0  0  0  0  0  0  0  0
   11.7333    1.1910    0.0000 H   0  0  0  0  0  0  0  0  0  0  0  0
   10.8583    1.1350    0.0000 H   0  0  0  0  0  0  0  0  0  0  0  0
   10.4698   -2.4513    0.0000 H   0  0  0  0  0  0  0  0  0  0  0  0
    8.3529    2.7846    0.0000 H   0  0  0  0  0  0  0  0  0  0  0  0
    6.7683    3.1214    0.0000 H   0  0  0  0  0  0  0  0  0  0  0  0
    4.8130    3.1531    0.0000 H   0  0  0  0  0  0  0  0  0  0  0  0
    3.7969    0.0166    0.0000 H   0  0  0  0  0  0  0  0  0  0  0  0
    7.7077   -3.6323    0.0000 H   0  0  0  0  0  0  0  0  0  0  0  0
    7.7435   -4.5084    0.0000 H   0  0  0  0  0  0  0  0  0  0  0  0
    8.6196   -4.4726    0.0000 H   0  0  0  0  0  0  0  0  0  0  0  0
    3.8348    3.8591    0.0000 H   0  0  0  0  0  0  0  0  0  0  0  0
    3.4391    4.6415    0.0000 H   0  0  0  0  0  0  0  0  0  0  0  0
    2.6567    4.2458    0.0000 H   0  0  0  0  0  0  0  0  0  0  0  0
    1.4095    0.3959    0.0000 H   0  0  0  0  0  0  0  0  0  0  0  0
    1.8112   -0.3834    0.0000 H   0  0  0  0  0  0  0  0  0  0  0  0
    2.5906    0.0183    0.0000 H   0  0  0  0  0  0  0  0  0  0  0  0
  1 12  1  0  0  0  0
  1 17  1  0  0  0  0
  2 21  1  0  0  0  0
  2 28  1  0  0  0  0
  3 21  2  0  0  0  0
  4 26  1  0  0  0  0
  4 29  1  0  0  0  0
  5 27  1  0  0  0  0
  5 30  1  0  0  0  0
  6 10  1  0  0  0  0
  6 13  1  0  0  0  0
  6 18  1  0  0  0  0
  7 15  1  0  0  0  0
  7 23  2  0  0  0  0
  8  9  1  0  0  0  0
  8 10  1  0  0  0  0
  8 12  1  0  0  0  0
  8 31  1  6  0  0  0
  9 11  1  0  0  0  0
  9 14  1  0  0  0  0
  9 32  1  6  0  0  0
 10 33  1  0  0  0  0
 10 34  1  0  0  0  0
 11 13  1  0  0  0  0
 11 35  1  0  0  0  0
 11 36  1  0  0  0  0
 12 16  1  6  0  0  0
 12 37  1  0  0  0  0
 13 15  2  0  0  0  0
 14 17  2  0  0  0  0
 14 21  1  0  0  0  0
 15 19  1  0  0  0  0
 16 38  1  0  0  0  0
 16 39  1  0  0  0  0
 16 40  1  0  0  0  0
 17 41  1  0  0  0  0
 18 20  2  0  0  0  0
 18 42  1  0  0  0  0
 19 20  1  0  0  0  0
 19 22  2  0  0  0  0
 20 43  1  0  0  0  0
 22 23  1  0  0  0  0
 22 24  1  0  0  0  0
 23 25  1  0  0  0  0
 24 26  2  0  0  0  0
 24 44  1  0  0  0  0
 25 27  2  0  0  0  0
 25 45  1  0  0  0  0
 26 27  1  0  0  0  0
 28 46  1  0  0  0  0
 28 47  1  0  0  0  0
 28 48  1  0  0  0  0
 29 49  1  0  0  0  0
 29 50  1  0  0  0  0
 29 51  1  0  0  0  0
 30 52  1  0  0  0  0
 30 53  1  0  0  0  0
 30 54  1  0  0  0  0
M  END
> <PUBCHEM_COMPOUND_CID>
441992

> <PUBCHEM_COMPOUND_CANONICALIZED>
1

> <PUBCHEM_CACTVS_COMPLEXITY>
699

> <PUBCHEM_CACTVS_HBOND_ACCEPTOR>
6

> <PUBCHEM_CACTVS_HBOND_DONOR>
0

> <PUBCHEM_CACTVS_ROTATABLE_BOND>
4

> <PUBCHEM_CACTVS_SUBSKEYS>
AAADceB7OAAAAAAAAAAAAAAAAAAAAWAAAAA8WIEAAAAAAFixwAAAHgAAAAAADRzhngY+zvMMFACoAzT3TACCiCQxMiAI2CE+/NgNZvLEsZuUMCpmwBnK6Ie4/f/eoEABAgACQABAgAIEAASAAAAAAAAAAA==

> <PUBCHEM_IUPAC_INCHI>
InChI=1S/C23H24N2O5/c1-12-16-10-25-6-5-13-15-8-20(27-2)21(28-3)9-18(15)24-22(13)19(25)7-14(16)17(11-30-12)23(26)29-4/h5-6,8-9,11-12,14,16H,7,10H2,1-4H3/t12-,14-,16-/m0/s1

> <PUBCHEM_IUPAC_INCHIKEY>
TWZUULCDVYYPNU-NOLJZWGESA-N

> <PUBCHEM_XLOGP3_AA>
2.5

> <PUBCHEM_EXACT_MASS>
408.168522

> <PUBCHEM_MOLECULAR_FORMULA>
C23H24N2O5

> <PUBCHEM_MOLECULAR_WEIGHT>
408.44706

> <PUBCHEM_OPENEYE_CAN_SMILES>
CC1C2CN3C=CC4=C5C=C(C(=CC5=NC4=C3CC2C(=CO1)C(=O)OC)OC)OC

> <PUBCHEM_OPENEYE_ISO_SMILES>
C[C@H]1[C@@H]2CN3C=CC4=C5C=C(C(=CC5=NC4=C3C[C@@H]2C(=CO1)C(=O)OC)OC)OC

> <PUBCHEM_CACTVS_TPSA>
71.8

> <PUBCHEM_MONOISOTOPIC_WEIGHT>
408.168522

> <PUBCHEM_TOTAL_CHARGE>
0

> <PUBCHEM_HEAVY_ATOM_COUNT>
30

> <PUBCHEM_ATOM_DEF_STEREO_COUNT>
3

> <PUBCHEM_ATOM_UDEF_STEREO_COUNT>
0

> <PUBCHEM_BOND_DEF_STEREO_COUNT>
0

> <PUBCHEM_BOND_UDEF_STEREO_COUNT>
0

> <PUBCHEM_ISOTOPIC_ATOM_COUNT>
0

> <PUBCHEM_COMPONENT_COUNT>
1

> <PUBCHEM_CACTVS_TAUTO_COUNT>
1

> <PUBCHEM_COORDINATE_TYPE>
1
5
255

> <PUBCHEM_BONDANNOTATIONS>
12  16  6
13  15  8
18  20  8
19  20  8
19  22  8
22  23  8
22  24  8
23  25  8
24  26  8
25  27  8
26  27  8
6  13  8
6  18  8
7  15  8
7  23  8
8  31  6
9  32  6

$$$$

