6604100
  -OEChem-07051212542D

 33 34  0     0  0  0  0  0  0999 V2000
    5.7281    5.4043    0.0000 Na  0  3  0  0  0  0  0  0  0  0  0  0
    4.7199   -0.3165    0.0000 O   0  0  0  0  0  0  0  0  0  0  0  0
    2.0000    4.4262    0.0000 O   0  0  0  0  0  0  0  0  0  0  0  0
    5.5202    4.4262    0.0000 O   0  5  0  0  0  0  0  0  0  0  0  0
    6.3949   -5.4043    0.0000 O   0  5  0  0  0  0  0  0  0  0  0  0
    4.6629   -5.4043    0.0000 O   0  0  0  0  0  0  0  0  0  0  0  0
    4.2601    3.1661    0.0000 N   0  0  0  0  0  0  0  0  0  0  0  0
    4.8479    2.3571    0.0000 N   0  0  0  0  0  0  0  0  0  0  0  0
    3.7601    4.7049    0.0000 N   0  0  0  0  0  0  0  0  0  0  0  0
    5.5289   -4.9043    0.0000 N   0  3  0  0  0  0  0  0  0  0  0  0
    5.5289   -1.9043    0.0000 C   0  0  0  0  0  0  0  0  0  0  0  0
    5.5289   -0.9043    0.0000 C   0  0  0  0  0  0  0  0  0  0  0  0
    5.0289    0.6345    0.0000 C   0  0  0  0  0  0  0  0  0  0  0  0
    3.2601    3.1661    0.0000 C   0  0  0  0  0  0  0  0  0  0  0  0
    6.3379   -0.3165    0.0000 C   0  0  0  0  0  0  0  0  0  0  0  0
    4.6629   -2.4043    0.0000 C   0  0  0  0  0  0  0  0  0  0  0  0
    6.3949   -2.4043    0.0000 C   0  0  0  0  0  0  0  0  0  0  0  0
    6.0289    0.6345    0.0000 C   0  0  0  0  0  0  0  0  0  0  0  0
    5.5289   -3.9043    0.0000 C   0  0  0  0  0  0  0  0  0  0  0  0
    4.6629   -3.4043    0.0000 C   0  0  0  0  0  0  0  0  0  0  0  0
    6.3949   -3.4043    0.0000 C   0  0  0  0  0  0  0  0  0  0  0  0
    4.4411    1.4435    0.0000 C   0  0  0  0  0  0  0  0  0  0  0  0
    2.9511    4.1172    0.0000 C   0  0  0  0  0  0  0  0  0  0  0  0
    4.5691    4.1172    0.0000 C   0  0  0  0  0  0  0  0  0  0  0  0
    2.6536    3.0372    0.0000 H   0  0  0  0  0  0  0  0  0  0  0  0
    3.3249    2.5495    0.0000 H   0  0  0  0  0  0  0  0  0  0  0  0
    6.9276   -0.5081    0.0000 H   0  0  0  0  0  0  0  0  0  0  0  0
    4.1259   -2.0943    0.0000 H   0  0  0  0  0  0  0  0  0  0  0  0
    6.9319   -2.0943    0.0000 H   0  0  0  0  0  0  0  0  0  0  0  0
    6.3933    1.1361    0.0000 H   0  0  0  0  0  0  0  0  0  0  0  0
    4.1259   -3.7143    0.0000 H   0  0  0  0  0  0  0  0  0  0  0  0
    6.9319   -3.7143    0.0000 H   0  0  0  0  0  0  0  0  0  0  0  0
    3.8245    1.3787    0.0000 H   0  0  0  0  0  0  0  0  0  0  0  0
  2 12  1  0  0  0  0
  2 13  1  0  0  0  0
  3 23  2  0  0  0  0
  4 24  1  0  0  0  0
  5 10  1  0  0  0  0
  6 10  2  0  0  0  0
  7  8  1  0  0  0  0
  7 14  1  0  0  0  0
  7 24  1  0  0  0  0
  8 22  2  0  0  0  0
  9 23  1  0  0  0  0
  9 24  2  0  0  0  0
 10 19  1  0  0  0  0
 11 12  1  0  0  0  0
 11 16  2  0  0  0  0
 11 17  1  0  0  0  0
 12 15  2  0  0  0  0
 13 18  2  0  0  0  0
 13 22  1  0  0  0  0
 14 23  1  0  0  0  0
 14 25  1  0  0  0  0
 14 26  1  0  0  0  0
 15 18  1  0  0  0  0
 15 27  1  0  0  0  0
 16 20  1  0  0  0  0
 16 28  1  0  0  0  0
 17 21  2  0  0  0  0
 17 29  1  0  0  0  0
 18 30  1  0  0  0  0
 19 20  2  0  0  0  0
 19 21  1  0  0  0  0
 20 31  1  0  0  0  0
 21 32  1  0  0  0  0
 22 33  1  0  0  0  0
M  CHG  4   1   1   4  -1   5  -1  10   1
M  END
> <PUBCHEM_COMPOUND_CID>
6604100

> <PUBCHEM_COMPOUND_CANONICALIZED>
1

> <PUBCHEM_CACTVS_COMPLEXITY>
536

> <PUBCHEM_CACTVS_HBOND_ACCEPTOR>
6

> <PUBCHEM_CACTVS_HBOND_DONOR>
0

> <PUBCHEM_CACTVS_ROTATABLE_BOND>
3

> <PUBCHEM_CACTVS_SUBSKEYS>
AAADccBzuCAAAAAAAAAAAAAAAAAAASIAAAAwAAAAAAAAAAABwAAAHgAMAAAADAzBmAQxxIIQRECpArVzdwSSCAEkIgA5iAGubNoMZrKEvbuSOSDkyBEI6YeY2fGeCAAAAAAAAAAQAAAAAAAAAAAAAAAAAA==

> <PUBCHEM_IUPAC_OPENEYE_NAME>
sodium 3-[(E)-[5-(4-nitrophenyl)-2-furyl]methyleneamino]-5-oxo-4H-imidazol-2-olate

> <PUBCHEM_IUPAC_CAS_NAME>
sodium 3-[(E)-[5-(4-nitrophenyl)-2-furanyl]methylideneamino]-5-oxo-4H-imidazol-2-olate

> <PUBCHEM_IUPAC_NAME>
sodium 3-[(E)-[5-(4-nitrophenyl)furan-2-yl]methylideneamino]-5-oxo-4H-imidazol-2-olate

> <PUBCHEM_IUPAC_SYSTEMATIC_NAME>
sodium 3-[(E)-[5-(4-nitrophenyl)furan-2-yl]methylideneamino]-5-oxidanylidene-4H-imidazol-2-olate

> <PUBCHEM_IUPAC_TRADITIONAL_NAME>
sodium 4-keto-1-[(E)-[5-(4-nitrophenyl)-2-furyl]methyleneamino]-2-imidazolin-2-olate

> <PUBCHEM_IUPAC_INCHI>
InChI=1S/C14H10N4O5.Na/c19-13-8-17(14(20)16-13)15-7-11-5-6-12(23-11)9-1-3-10(4-2-9)18(21)22;/h1-7H,8H2,(H,16,19,20);/q;+1/p-1/b15-7+;

> <PUBCHEM_IUPAC_INCHIKEY>
KSRLIXGNPXAZHD-HAZZGOGXSA-M

> <PUBCHEM_EXACT_MASS>
336.047064

> <PUBCHEM_MOLECULAR_FORMULA>
C14H9N4NaO5

> <PUBCHEM_MOLECULAR_WEIGHT>
336.234829

> <PUBCHEM_OPENEYE_CAN_SMILES>
C1C(=O)N=C(N1N=CC2=CC=C(O2)C3=CC=C(C=C3)[N+](=O)[O-])[O-].[Na+]

> <PUBCHEM_OPENEYE_ISO_SMILES>
C1C(=O)N=C(N1/N=C/C2=CC=C(O2)C3=CC=C(C=C3)[N+](=O)[O-])[O-].[Na+]

> <PUBCHEM_CACTVS_TPSA>
127

> <PUBCHEM_MONOISOTOPIC_WEIGHT>
336.047064

> <PUBCHEM_TOTAL_CHARGE>
0

> <PUBCHEM_HEAVY_ATOM_COUNT>
24

> <PUBCHEM_ATOM_DEF_STEREO_COUNT>
0

> <PUBCHEM_ATOM_UDEF_STEREO_COUNT>
0

> <PUBCHEM_BOND_DEF_STEREO_COUNT>
1

> <PUBCHEM_BOND_UDEF_STEREO_COUNT>
0

> <PUBCHEM_ISOTOPIC_ATOM_COUNT>
0

> <PUBCHEM_COMPONENT_COUNT>
2

> <PUBCHEM_CACTVS_TAUTO_COUNT>
2

> <PUBCHEM_COORDINATE_TYPE>
1
5
255

> <PUBCHEM_BONDANNOTATIONS>
11  16  8
11  17  8
12  15  8
13  18  8
15  18  8
16  20  8
17  21  8
19  20  8
19  21  8
2  12  8
2  13  8

$$$$

