   Color/Form

     * COLORLESS LIQUID OR GAS, DEPENDING ON THE AMBIENT TEMP
     * Colorless gas or water-white liquid (below 62 degrees F) [Shipped
       as a liquefied compressed gas].

   from [1]HSDB

   Odor
        Ammonia odor
   from [2]HSDB

   Boiling Point
        16.6 deg C
   from [3]HSDB

   Melting Point
        -81.2 deg C (freezing point)
   from [4]HSDB

   Critical Temperature and Pressure
        Critical temperature: 456 K; critical pressure: 5.62 MPa
   from [5]HSDB

   Density/Specific Gravity
        0.689 at 15 deg C/15 deg C
   from [6]HSDB

   Dissociation Constants

     * pKa = 10.87
     * 5.6X10-4 at 25 deg C

   from [7]HSDB

   Heat of Combustion
        -1713.3 kJ/mole @ 25 deg C (liquid)
   from [8]HSDB

   Heat of Vaporization
        6,845.1 g cal/g mole
   from [9]HSDB

   Octanol/Water Partition Coefficient
        log Kow = -0.13
   from [10]HSDB

   Solubilities

     * Miscible in alcohol, ether
     * In water, 1X10+6 mg/L (miscible) at 25 deg C

   from [11]HSDB

   Spectral Properties

     * MAX ABSORPTION: 177 NM (LOG E= 3.20); 213 NM (LOG E= 2.90) (GAS)
     * Index of refraction: 1.3663 @ 20 deg C/D
     * IR: 1650 (Documentation of Molecular Spectroscopy Collection)
     * 1H NMR: 9700 (Sadtler Research Laboratories Spectral Collection)
     * 13C NMR: 152 (Stothers, Carbon-13 NMR Spectroscopy, Academic Press,
       New York)
     * MASS: 71 (NIST/EPA/MSDC Mass Spectral database, 1990 version)

   from [12]HSDB

   Surface Tension
        19.20 mN/m at 25 deg C
   from [13]HSDB

   Vapor Density
        1.55 (AIR= 1)
   from [14]HSDB

   Vapor Pressure
        1,048 mm Hg at 25 deg C
   from [15]HSDB

   Other Chemical/Physical Properties

     * Strong alkaline reaction
     * Solidifies at -80 deg C
     * MP: 110 deg C; Crystals from ethanol and water. Density: 1.22.
       Soluble in 0.4 part water; freely soluble in alcohol; slightly
       soluble in chloroform or acetone. Practically insoluble in ether.
       /Hydrochloride/
     * Hygroscopic crystals; MP: 188 deg C; Density: 2.10. Freely soluble
       in water or alcohol. Practically insoluble in chloroform, ether.
       /Hydroiodide/
     * Wt/gal= 5.7 lb /70% soln/
     * Specific gravity: 0.79-0.80 at 20 deg C/20 deg C
     * Amines tend to be fat soluble /Amines/
     * Henry's Law constant = 1.23X10-5 atm cu-m/mole at 25 deg C
     * Hydroxyl radical reaction rate constant = 2.77X10-11 cu
       cm/molec-sec at 25 deg C

   from [16]HSDB

   Computed Properties
   Molecular Weight                  45.08368 [g/mol]
   Molecular Formula                 C[2]H[7]N
   XLogP3-AA                         -0.3
   H-Bond Donor                      1
   H-Bond Acceptor                   1
   Rotatable Bond Count              0
   Exact Mass                        45.057849
   MonoIsotopic Mass                 45.057849
   Topological Polar Surface Area    26
   Heavy Atom Count                  3
   Formal Charge                     0
   Complexity                        2.8
   Isotope Atom Count                0
   Defined Atom Stereocenter Count   0
   Undefined Atom Stereocenter Count 0
   Defined Bond Stereocenter Count   0
   Undefined Bond Stereocenter Count 0
   Covalently-Bonded Unit Count      1
   Feature 3D Donor Count            1
   Feature 3D Cation Count           1
   Effective Rotor Count             0
   Conformer Sampling RMSD           0.4
   CID Conformer Count               [17]1

References

   1. http://toxnet.nlm.nih.gov/cgi-bin/sis/search/r?dbs+hsdb:@term+@rn+@rel+75-04-7
   2. http://toxnet.nlm.nih.gov/cgi-bin/sis/search/r?dbs+hsdb:@term+@rn+@rel+75-04-7
   3. http://toxnet.nlm.nih.gov/cgi-bin/sis/search/r?dbs+hsdb:@term+@rn+@rel+75-04-7
   4. http://toxnet.nlm.nih.gov/cgi-bin/sis/search/r?dbs+hsdb:@term+@rn+@rel+75-04-7
   5. http://toxnet.nlm.nih.gov/cgi-bin/sis/search/r?dbs+hsdb:@term+@rn+@rel+75-04-7
   6. http://toxnet.nlm.nih.gov/cgi-bin/sis/search/r?dbs+hsdb:@term+@rn+@rel+75-04-7
   7. http://toxnet.nlm.nih.gov/cgi-bin/sis/search/r?dbs+hsdb:@term+@rn+@rel+75-04-7
   8. http://toxnet.nlm.nih.gov/cgi-bin/sis/search/r?dbs+hsdb:@term+@rn+@rel+75-04-7
   9. http://toxnet.nlm.nih.gov/cgi-bin/sis/search/r?dbs+hsdb:@term+@rn+@rel+75-04-7
  10. http://toxnet.nlm.nih.gov/cgi-bin/sis/search/r?dbs+hsdb:@term+@rn+@rel+75-04-7
  11. http://toxnet.nlm.nih.gov/cgi-bin/sis/search/r?dbs+hsdb:@term+@rn+@rel+75-04-7
  12. http://toxnet.nlm.nih.gov/cgi-bin/sis/search/r?dbs+hsdb:@term+@rn+@rel+75-04-7
  13. http://toxnet.nlm.nih.gov/cgi-bin/sis/search/r?dbs+hsdb:@term+@rn+@rel+75-04-7
  14. http://toxnet.nlm.nih.gov/cgi-bin/sis/search/r?dbs+hsdb:@term+@rn+@rel+75-04-7
  15. http://toxnet.nlm.nih.gov/cgi-bin/sis/search/r?dbs+hsdb:@term+@rn+@rel+75-04-7
  16. http://toxnet.nlm.nih.gov/cgi-bin/sis/search/r?dbs+hsdb:@term+@rn+@rel+75-04-7
  17. http://pubchem.ncbi.nlm.nih.gov/vw3d/vw3d.cgi?cid=6341
