91590
  -OEChem-07051213002D

 36 37  0     0  0  0  0  0  0999 V2000
    5.4641    1.5600    0.0000 S   0  0  0  0  0  0  0  0  0  0  0  0
    7.1962   -1.4400    0.0000 N   0  0  0  0  0  0  0  0  0  0  0  0
    3.7320   -1.4400    0.0000 N   0  0  0  0  0  0  0  0  0  0  0  0
    5.4641   -1.4400    0.0000 N   0  0  0  0  0  0  0  0  0  0  0  0
    6.3301    0.0600    0.0000 N   0  0  0  0  0  0  0  0  0  0  0  0
    4.5981    0.0600    0.0000 N   0  0  0  0  0  0  0  0  0  0  0  0
    8.0622   -0.9400    0.0000 C   0  0  0  0  0  0  0  0  0  0  0  0
    9.0622   -0.9400    0.0000 C   0  0  0  0  0  0  0  0  0  0  0  0
    8.5622   -0.0740    0.0000 C   0  0  0  0  0  0  0  0  0  0  0  0
    6.3301   -0.9400    0.0000 C   0  0  0  0  0  0  0  0  0  0  0  0
    2.8660   -0.9400    0.0000 C   0  0  0  0  0  0  0  0  0  0  0  0
    2.0000   -0.4400    0.0000 C   0  0  0  0  0  0  0  0  0  0  0  0
    2.3660   -1.8060    0.0000 C   0  0  0  0  0  0  0  0  0  0  0  0
    3.3660   -0.0740    0.0000 C   0  0  0  0  0  0  0  0  0  0  0  0
    4.5981   -0.9400    0.0000 C   0  0  0  0  0  0  0  0  0  0  0  0
    5.4641    0.5600    0.0000 C   0  0  0  0  0  0  0  0  0  0  0  0
    4.5981    2.0600    0.0000 C   0  0  0  0  0  0  0  0  0  0  0  0
    7.6238   -0.5016    0.0000 H   0  0  0  0  0  0  0  0  0  0  0  0
    9.0371    0.3246    0.0000 H   0  0  0  0  0  0  0  0  0  0  0  0
    8.0872    0.3246    0.0000 H   0  0  0  0  0  0  0  0  0  0  0  0
    9.1698   -1.5506    0.0000 H   0  0  0  0  0  0  0  0  0  0  0  0
    9.6448   -0.7279    0.0000 H   0  0  0  0  0  0  0  0  0  0  0  0
    7.1962   -2.0600    0.0000 H   0  0  0  0  0  0  0  0  0  0  0  0
    3.7320   -2.0600    0.0000 H   0  0  0  0  0  0  0  0  0  0  0  0
    2.3100    0.0969    0.0000 H   0  0  0  0  0  0  0  0  0  0  0  0
    3.9030   -0.3840    0.0000 H   0  0  0  0  0  0  0  0  0  0  0  0
    3.6760    0.4630    0.0000 H   0  0  0  0  0  0  0  0  0  0  0  0
    2.8291    0.2360    0.0000 H   0  0  0  0  0  0  0  0  0  0  0  0
    1.8291   -1.4960    0.0000 H   0  0  0  0  0  0  0  0  0  0  0  0
    2.0560   -2.3430    0.0000 H   0  0  0  0  0  0  0  0  0  0  0  0
    2.9030   -2.1160    0.0000 H   0  0  0  0  0  0  0  0  0  0  0  0
    1.4631   -0.1300    0.0000 H   0  0  0  0  0  0  0  0  0  0  0  0
    1.6900   -0.9769    0.0000 H   0  0  0  0  0  0  0  0  0  0  0  0
    4.9081    2.5969    0.0000 H   0  0  0  0  0  0  0  0  0  0  0  0
    4.0611    2.3700    0.0000 H   0  0  0  0  0  0  0  0  0  0  0  0
    4.2881    1.5231    0.0000 H   0  0  0  0  0  0  0  0  0  0  0  0
  1 16  1  0  0  0  0
  1 17  1  0  0  0  0
  2  7  1  0  0  0  0
  2 10  1  0  0  0  0
  2 23  1  0  0  0  0
  3 11  1  0  0  0  0
  3 15  1  0  0  0  0
  3 24  1  0  0  0  0
  4 10  2  0  0  0  0
  4 15  1  0  0  0  0
  5 10  1  0  0  0  0
  5 16  2  0  0  0  0
  6 15  2  0  0  0  0
  6 16  1  0  0  0  0
  7  8  1  0  0  0  0
  7  9  1  0  0  0  0
  7 18  1  0  0  0  0
  8  9  1  0  0  0  0
  8 21  1  0  0  0  0
  8 22  1  0  0  0  0
  9 19  1  0  0  0  0
  9 20  1  0  0  0  0
 11 12  1  0  0  0  0
 11 13  1  0  0  0  0
 11 14  1  0  0  0  0
 12 25  1  0  0  0  0
 12 32  1  0  0  0  0
 12 33  1  0  0  0  0
 13 29  1  0  0  0  0
 13 30  1  0  0  0  0
 13 31  1  0  0  0  0
 14 26  1  0  0  0  0
 14 27  1  0  0  0  0
 14 28  1  0  0  0  0
 17 34  1  0  0  0  0
 17 35  1  0  0  0  0
 17 36  1  0  0  0  0
M  END
> <PUBCHEM_COMPOUND_CID>
91590

> <PUBCHEM_COMPOUND_CANONICALIZED>
1

> <PUBCHEM_CACTVS_COMPLEXITY>
251

> <PUBCHEM_CACTVS_HBOND_ACCEPTOR>
6

> <PUBCHEM_CACTVS_HBOND_DONOR>
2

> <PUBCHEM_CACTVS_ROTATABLE_BOND>
5

> <PUBCHEM_CACTVS_SUBSKEYS>
AAADceBzgABAAAAAAAAAAAAAGAAAAAAAAAAsAAAAAAAAAAABgAAAHAQQAAAADKjBAASDEAbIEAggAAAAJAAAUAlAAIABAIAIAACACAAACAAEAAAIEAIAAAAAAAAAAAAAAAAAAAAAAAAAAAAAAAAAAAAAAA==

> <PUBCHEM_IUPAC_OPENEYE_NAME>
N2-tert-butyl-N4-cyclopropyl-6-methylsulfanyl-1,3,5-triazine-2,4-diamine

> <PUBCHEM_IUPAC_CAS_NAME>
N2-tert-butyl-N4-cyclopropyl-6-(methylthio)-1,3,5-triazine-2,4-diamine

> <PUBCHEM_IUPAC_NAME>
2-N-tert-butyl-4-N-cyclopropyl-6-methylsulfanyl-1,3,5-triazine-2,4-diamine

> <PUBCHEM_IUPAC_SYSTEMATIC_NAME>
N2-tert-butyl-N4-cyclopropyl-6-methylsulfanyl-1,3,5-triazine-2,4-diamine

> <PUBCHEM_IUPAC_TRADITIONAL_NAME>
tert-butyl-[4-(cyclopropylamino)-6-(methylthio)-s-triazin-2-yl]amine

> <PUBCHEM_IUPAC_INCHI>
InChI=1S/C11H19N5S/c1-11(2,3)16-9-13-8(12-7-5-6-7)14-10(15-9)17-4/h7H,5-6H2,1-4H3,(H2,12,13,14,15,16)

> <PUBCHEM_IUPAC_INCHIKEY>
HDHLIWCXDDZUFH-UHFFFAOYSA-N

> <PUBCHEM_XLOGP3>
3.9

> <PUBCHEM_EXACT_MASS>
253.136117

> <PUBCHEM_MOLECULAR_FORMULA>
C11H19N5S

> <PUBCHEM_MOLECULAR_WEIGHT>
253.36706

> <PUBCHEM_OPENEYE_CAN_SMILES>
CC(C)(C)NC1=NC(=NC(=N1)NC2CC2)SC

> <PUBCHEM_OPENEYE_ISO_SMILES>
CC(C)(C)NC1=NC(=NC(=N1)NC2CC2)SC

> <PUBCHEM_CACTVS_TPSA>
88

> <PUBCHEM_MONOISOTOPIC_WEIGHT>
253.136117

> <PUBCHEM_TOTAL_CHARGE>
0

> <PUBCHEM_HEAVY_ATOM_COUNT>
17

> <PUBCHEM_ATOM_DEF_STEREO_COUNT>
0

> <PUBCHEM_ATOM_UDEF_STEREO_COUNT>
0

> <PUBCHEM_BOND_DEF_STEREO_COUNT>
0

> <PUBCHEM_BOND_UDEF_STEREO_COUNT>
0

> <PUBCHEM_ISOTOPIC_ATOM_COUNT>
0

> <PUBCHEM_COMPONENT_COUNT>
1

> <PUBCHEM_CACTVS_TAUTO_COUNT>
9

> <PUBCHEM_COORDINATE_TYPE>
1
5
255

> <PUBCHEM_BONDANNOTATIONS>
4  10  8
4  15  8
5  10  8
5  16  8
6  15  8
6  16  8

$$$$

