   Color/Form

     * Colorless leaflets from alcohol; commercial grades are
       greenish-brown
     * Gray powder
     * White solid

   from [1]HSDB

   Boiling Point
        220-225 deg C @ 0.5 mm Hg
   from [2]HSDB

   Melting Point
        150-151 deg C
   from [3]HSDB

   Critical Temperature and Pressure
        Critical temperature: 906 K; critical pressure: 2.31X10+6 Pa
   from [4]HSDB

   Density/Specific Gravity
        1.20
   from [5]HSDB

   Heat of Combustion
        -9.34X10+9 J/kmol
   from [6]HSDB

   Heat of Vaporization
        1.10X10+8 J/kmol
   from [7]HSDB

   Solubilities
        Sol in monochlorobenzene, benzene, DMF, ether, chloroform,
   acetone, ethyl acetate, isopropyl acetate, glacial acetic acid.
   Slightly sol in alcohol. Almost insol in petr ether, water.
   from [8]HSDB

   Spectral Properties
        UV Adsorption maximum at 315 nm
   from [9]HSDB

   Surface Tension
        4.15X10-2 N/m
   from [10]HSDB

   Vapor Density
        9.0 (Air= 1)
   from [11]HSDB

   Vapor Pressure
        6.35X10-9 mm Hg @ 25 deg C
   from [12]HSDB

   Viscosity
        5.48X10-1 Pa.s (liquid)
   from [13]HSDB

   Other Chemical/Physical Properties

     * Specific gravity: 1.28; melting point: 145-152 deg C
     * CAN REACT WITH OXIDIZING MATERIALS

   from [14]HSDB

   Computed Properties
   Molecular Weight                  260.33304 [g/mol]
   Molecular Formula                 C[18]H[16]N[2]
   XLogP3                            5
   H-Bond Donor                      2
   H-Bond Acceptor                   2
   Rotatable Bond Count              4
   Exact Mass                        260.131349
   MonoIsotopic Mass                 260.131349
   Topological Polar Surface Area    24.1
   Heavy Atom Count                  20
   Formal Charge                     0
   Complexity                        231
   Isotope Atom Count                0
   Defined Atom Stereocenter Count   0
   Undefined Atom Stereocenter Count 0
   Defined Bond Stereocenter Count   0
   Undefined Bond Stereocenter Count 0
   Covalently-Bonded Unit Count      1
   Feature 3D Donor Count            2
   Feature 3D Cation Count           2
   Feature 3D Ring Count             3
   Effective Rotor Count             4
   Conformer Sampling RMSD           0.6
   CID Conformer Count               [15]19

References

   1. http://toxnet.nlm.nih.gov/cgi-bin/sis/search/r?dbs+hsdb:@term+@rn+@rel+74-31-7
   2. http://toxnet.nlm.nih.gov/cgi-bin/sis/search/r?dbs+hsdb:@term+@rn+@rel+74-31-7
   3. http://toxnet.nlm.nih.gov/cgi-bin/sis/search/r?dbs+hsdb:@term+@rn+@rel+74-31-7
   4. http://toxnet.nlm.nih.gov/cgi-bin/sis/search/r?dbs+hsdb:@term+@rn+@rel+74-31-7
   5. http://toxnet.nlm.nih.gov/cgi-bin/sis/search/r?dbs+hsdb:@term+@rn+@rel+74-31-7
   6. http://toxnet.nlm.nih.gov/cgi-bin/sis/search/r?dbs+hsdb:@term+@rn+@rel+74-31-7
   7. http://toxnet.nlm.nih.gov/cgi-bin/sis/search/r?dbs+hsdb:@term+@rn+@rel+74-31-7
   8. http://toxnet.nlm.nih.gov/cgi-bin/sis/search/r?dbs+hsdb:@term+@rn+@rel+74-31-7
   9. http://toxnet.nlm.nih.gov/cgi-bin/sis/search/r?dbs+hsdb:@term+@rn+@rel+74-31-7
  10. http://toxnet.nlm.nih.gov/cgi-bin/sis/search/r?dbs+hsdb:@term+@rn+@rel+74-31-7
  11. http://toxnet.nlm.nih.gov/cgi-bin/sis/search/r?dbs+hsdb:@term+@rn+@rel+74-31-7
  12. http://toxnet.nlm.nih.gov/cgi-bin/sis/search/r?dbs+hsdb:@term+@rn+@rel+74-31-7
  13. http://toxnet.nlm.nih.gov/cgi-bin/sis/search/r?dbs+hsdb:@term+@rn+@rel+74-31-7
  14. http://toxnet.nlm.nih.gov/cgi-bin/sis/search/r?dbs+hsdb:@term+@rn+@rel+74-31-7
  15. http://pubchem.ncbi.nlm.nih.gov/vw3d/vw3d.cgi?cid=6319
