6708482
  -OEChem-07051212522D

 85 87  0     1  0  0  0  0  0999 V2000
    7.1168    1.9172    0.0000 P   0  0  3  0  0  0  0  0  0  0  0  0
    2.3644    1.1082    0.0000 O   0  0  0  0  0  0  0  0  0  0  0  0
    5.1278    2.1262    0.0000 O   0  0  0  0  0  0  0  0  0  0  0  0
    3.7657    2.1262    0.0000 O   0  0  0  0  0  0  0  0  0  0  0  0
    7.7046    2.7262    0.0000 O   0  0  0  0  0  0  0  0  0  0  0  0
    6.3078    2.5050    0.0000 O   0  0  0  0  0  0  0  0  0  0  0  0
    9.2869    3.4307    0.0000 O   0  0  0  0  0  0  0  0  0  0  0  0
   10.6882    2.4126    0.0000 O   0  0  0  0  0  0  0  0  0  0  0  0
    4.9467    0.4037    0.0000 N   0  0  0  0  0  0  0  0  0  0  0  0
    4.4467   -1.1352    0.0000 C   0  0  2  0  0  0  0  0  0  0  0  0
    4.4467   -2.1352    0.0000 C   0  0  0  0  0  0  0  0  0  0  0  0
    3.6377   -0.5474    0.0000 C   0  0  0  0  0  0  0  0  0  0  0  0
    5.2558   -0.5474    0.0000 C   0  0  0  0  0  0  0  0  0  0  0  0
    3.5807   -2.6352    0.0000 C   0  0  0  0  0  0  0  0  0  0  0  0
    5.3128   -2.6352    0.0000 C   0  0  0  0  0  0  0  0  0  0  0  0
    3.9467    0.4037    0.0000 C   0  0  1  0  0  0  0  0  0  0  0  0
    3.5807   -3.6352    0.0000 C   0  0  0  0  0  0  0  0  0  0  0  0
    5.3128   -3.6352    0.0000 C   0  0  0  0  0  0  0  0  0  0  0  0
    4.4467   -4.1352    0.0000 C   0  0  0  0  0  0  0  0  0  0  0  0
    5.5345    1.2127    0.0000 C   0  0  0  0  0  0  0  0  0  0  0  0
    3.3590    1.2127    0.0000 C   0  0  0  0  0  0  0  0  0  0  0  0
    6.5290    1.1082    0.0000 C   0  0  0  0  0  0  0  0  0  0  0  0
    7.9258    1.3294    0.0000 C   0  0  0  0  0  0  0  0  0  0  0  0
    7.8213    0.3349    0.0000 C   0  0  0  0  0  0  0  0  0  0  0  0
    8.6991    2.6217    0.0000 C   0  0  2  0  0  0  0  0  0  0  0  0
    8.6303   -0.2529    0.0000 C   0  0  0  0  0  0  0  0  0  0  0  0
    9.1059    1.7081    0.0000 C   0  0  0  0  0  0  0  0  0  0  0  0
    8.5258   -1.2474    0.0000 C   0  0  0  0  0  0  0  0  0  0  0  0
   10.1004    1.6036    0.0000 C   0  0  0  0  0  0  0  0  0  0  0  0
    8.5181    0.8991    0.0000 C   0  0  0  0  0  0  0  0  0  0  0  0
    9.3348   -1.8352    0.0000 C   0  0  0  0  0  0  0  0  0  0  0  0
   10.2814    3.3262    0.0000 C   0  0  0  0  0  0  0  0  0  0  0  0
    9.2303   -2.8297    0.0000 C   0  0  0  0  0  0  0  0  0  0  0  0
   10.2484   -1.4285    0.0000 C   0  0  0  0  0  0  0  0  0  0  0  0
   10.8692    4.1352    0.0000 C   0  0  0  0  0  0  0  0  0  0  0  0
   10.0393   -3.4175    0.0000 C   0  0  0  0  0  0  0  0  0  0  0  0
   11.0574   -2.0163    0.0000 C   0  0  0  0  0  0  0  0  0  0  0  0
   10.9529   -3.0108    0.0000 C   0  0  0  0  0  0  0  0  0  0  0  0
   11.8637    4.0306    0.0000 C   0  0  0  0  0  0  0  0  0  0  0  0
    3.6894   -1.5211    0.0000 H   0  0  0  0  0  0  0  0  0  0  0  0
    4.9837   -1.8252    0.0000 H   0  0  0  0  0  0  0  0  0  0  0  0
    3.0713   -0.2952    0.0000 H   0  0  0  0  0  0  0  0  0  0  0  0
    3.3277   -1.0843    0.0000 H   0  0  0  0  0  0  0  0  0  0  0  0
    5.5658   -1.0843    0.0000 H   0  0  0  0  0  0  0  0  0  0  0  0
    5.8222   -0.2952    0.0000 H   0  0  0  0  0  0  0  0  0  0  0  0
    3.3687   -2.0526    0.0000 H   0  0  0  0  0  0  0  0  0  0  0  0
    2.9701   -2.7428    0.0000 H   0  0  0  0  0  0  0  0  0  0  0  0
    5.9233   -2.7428    0.0000 H   0  0  0  0  0  0  0  0  0  0  0  0
    5.5248   -2.0526    0.0000 H   0  0  0  0  0  0  0  0  0  0  0  0
    4.2282    0.9561    0.0000 H   0  0  0  0  0  0  0  0  0  0  0  0
    5.5248   -4.2178    0.0000 H   0  0  0  0  0  0  0  0  0  0  0  0
    5.9233   -3.5275    0.0000 H   0  0  0  0  0  0  0  0  0  0  0  0
    2.9701   -3.5275    0.0000 H   0  0  0  0  0  0  0  0  0  0  0  0
    3.3687   -4.2178    0.0000 H   0  0  0  0  0  0  0  0  0  0  0  0
    4.0482   -4.6101    0.0000 H   0  0  0  0  0  0  0  0  0  0  0  0
    4.8453   -4.6101    0.0000 H   0  0  0  0  0  0  0  0  0  0  0  0
    6.3582    0.5122    0.0000 H   0  0  0  0  0  0  0  0  0  0  0  0
    7.0863    0.8364    0.0000 H   0  0  0  0  0  0  0  0  0  0  0  0
    8.5218    1.1585    0.0000 H   0  0  0  0  0  0  0  0  0  0  0  0
    8.1976    1.8866    0.0000 H   0  0  0  0  0  0  0  0  0  0  0  0
    2.0000    1.6098    0.0000 H   0  0  0  0  0  0  0  0  0  0  0  0
    7.2253    0.5058    0.0000 H   0  0  0  0  0  0  0  0  0  0  0  0
    7.5495   -0.2224    0.0000 H   0  0  0  0  0  0  0  0  0  0  0  0
    9.3157    2.5569    0.0000 H   0  0  0  0  0  0  0  0  0  0  0  0
    9.2263   -0.4238    0.0000 H   0  0  0  0  0  0  0  0  0  0  0  0
    8.9021    0.3043    0.0000 H   0  0  0  0  0  0  0  0  0  0  0  0
    9.3580    1.1417    0.0000 H   0  0  0  0  0  0  0  0  0  0  0  0
    7.9298   -1.0765    0.0000 H   0  0  0  0  0  0  0  0  0  0  0  0
    8.2540   -1.8047    0.0000 H   0  0  0  0  0  0  0  0  0  0  0  0
   10.0356    0.9870    0.0000 H   0  0  0  0  0  0  0  0  0  0  0  0
   10.7170    1.5388    0.0000 H   0  0  0  0  0  0  0  0  0  0  0  0
   10.1652    2.2202    0.0000 H   0  0  0  0  0  0  0  0  0  0  0  0
    8.0165    1.2635    0.0000 H   0  0  0  0  0  0  0  0  0  0  0  0
    8.1537    0.3975    0.0000 H   0  0  0  0  0  0  0  0  0  0  0  0
    9.0197    0.5347    0.0000 H   0  0  0  0  0  0  0  0  0  0  0  0
    8.6639   -3.0819    0.0000 H   0  0  0  0  0  0  0  0  0  0  0  0
   10.3132   -0.8119    0.0000 H   0  0  0  0  0  0  0  0  0  0  0  0
   11.0401    4.7312    0.0000 H   0  0  0  0  0  0  0  0  0  0  0  0
   10.3120    4.4070    0.0000 H   0  0  0  0  0  0  0  0  0  0  0  0
    9.9745   -4.0341    0.0000 H   0  0  0  0  0  0  0  0  0  0  0  0
   11.6238   -1.7641    0.0000 H   0  0  0  0  0  0  0  0  0  0  0  0
   11.4544   -3.3752    0.0000 H   0  0  0  0  0  0  0  0  0  0  0  0
   11.7989    3.4140    0.0000 H   0  0  0  0  0  0  0  0  0  0  0  0
   12.4804    3.9658    0.0000 H   0  0  0  0  0  0  0  0  0  0  0  0
   11.9286    4.6472    0.0000 H   0  0  0  0  0  0  0  0  0  0  0  0
  1  5  1  0  0  0  0
  1  6  2  0  0  0  0
  1 22  1  0  0  0  0
  1 23  1  0  0  0  0
  2 21  1  0  0  0  0
  2 61  1  0  0  0  0
  3 20  2  0  0  0  0
  4 21  2  0  0  0  0
 25  5  1  1  0  0  0
  7 25  1  0  0  0  0
  7 32  1  0  0  0  0
  8 32  2  0  0  0  0
  9 13  1  0  0  0  0
  9 16  1  0  0  0  0
  9 20  1  0  0  0  0
 10 11  1  0  0  0  0
 10 12  1  0  0  0  0
 10 13  1  0  0  0  0
 10 40  1  1  0  0  0
 11 14  1  0  0  0  0
 11 15  1  0  0  0  0
 11 41  1  0  0  0  0
 12 16  1  0  0  0  0
 12 42  1  0  0  0  0
 12 43  1  0  0  0  0
 13 44  1  0  0  0  0
 13 45  1  0  0  0  0
 14 17  1  0  0  0  0
 14 46  1  0  0  0  0
 14 47  1  0  0  0  0
 15 18  1  0  0  0  0
 15 48  1  0  0  0  0
 15 49  1  0  0  0  0
 16 21  1  1  0  0  0
 16 50  1  0  0  0  0
 17 19  1  0  0  0  0
 17 53  1  0  0  0  0
 17 54  1  0  0  0  0
 18 19  1  0  0  0  0
 18 51  1  0  0  0  0
 18 52  1  0  0  0  0
 19 55  1  0  0  0  0
 19 56  1  0  0  0  0
 20 22  1  0  0  0  0
 22 57  1  0  0  0  0
 22 58  1  0  0  0  0
 23 24  1  0  0  0  0
 23 59  1  0  0  0  0
 23 60  1  0  0  0  0
 24 26  1  0  0  0  0
 24 62  1  0  0  0  0
 24 63  1  0  0  0  0
 25 27  1  0  0  0  0
 25 64  1  0  0  0  0
 26 28  1  0  0  0  0
 26 65  1  0  0  0  0
 26 66  1  0  0  0  0
 27 29  1  0  0  0  0
 27 30  1  0  0  0  0
 27 67  1  0  0  0  0
 28 31  1  0  0  0  0
 28 68  1  0  0  0  0
 28 69  1  0  0  0  0
 29 70  1  0  0  0  0
 29 71  1  0  0  0  0
 29 72  1  0  0  0  0
 30 73  1  0  0  0  0
 30 74  1  0  0  0  0
 30 75  1  0  0  0  0
 31 33  2  0  0  0  0
 31 34  1  0  0  0  0
 32 35  1  0  0  0  0
 33 36  1  0  0  0  0
 33 76  1  0  0  0  0
 34 37  2  0  0  0  0
 34 77  1  0  0  0  0
 35 39  1  0  0  0  0
 35 78  1  0  0  0  0
 35 79  1  0  0  0  0
 36 38  2  0  0  0  0
 36 80  1  0  0  0  0
 37 38  1  0  0  0  0
 37 81  1  0  0  0  0
 38 82  1  0  0  0  0
 39 83  1  0  0  0  0
 39 84  1  0  0  0  0
 39 85  1  0  0  0  0
M  END
> <PUBCHEM_COMPOUND_CID>
6708482

> <PUBCHEM_COMPOUND_CANONICALIZED>
1

> <PUBCHEM_CACTVS_COMPLEXITY>
850

> <PUBCHEM_CACTVS_HBOND_ACCEPTOR>
7

> <PUBCHEM_CACTVS_HBOND_DONOR>
1

> <PUBCHEM_CACTVS_ROTATABLE_BOND>
15

> <PUBCHEM_CACTVS_SUBSKEYS>
AAADcfB6OAIAAAAAAAAAAAAAAAAAAWAAAAAwYAAAAAAAAAABAAAAHggACCAADSj5mAcyCIMABzCIQiHSGIACAAAgAAAIiAGIAIgaIDKAkTCGYAAkhgCciAeY2fKOgAAAAAAAAAAAAAAAAAAAAAAAAAAAAA==

> <PUBCHEM_IUPAC_OPENEYE_NAME>
(2S,4S)-4-cyclohexyl-1-[2-[[(1S)-2-methyl-1-propanoyloxy-propoxy]-(4-phenylbutyl)phosphoryl]acetyl]pyrrolidine-2-carboxylic acid

> <PUBCHEM_IUPAC_CAS_NAME>
(2S,4S)-4-cyclohexyl-1-[2-[[(1S)-2-methyl-1-(1-oxopropoxy)propoxy]-(4-phenylbutyl)phosphoryl]-1-oxoethyl]-2-pyrrolidinecarboxylic acid

> <PUBCHEM_IUPAC_NAME>
(2S,4S)-4-cyclohexyl-1-[2-[[(1S)-2-methyl-1-propanoyloxypropoxy]-(4-phenylbutyl)phosphoryl]acetyl]pyrrolidine-2-carboxylic acid

> <PUBCHEM_IUPAC_SYSTEMATIC_NAME>
(2S,4S)-4-cyclohexyl-1-[2-[[(1S)-2-methyl-1-propanoyloxy-propoxy]-(4-phenylbutyl)phosphoryl]ethanoyl]pyrrolidine-2-carboxylic acid

> <PUBCHEM_IUPAC_TRADITIONAL_NAME>
(2S,4S)-4-cyclohexyl-1-[2-[[(1S)-2-methyl-1-propionyloxy-propoxy]-(4-phenylbutyl)phosphoryl]acetyl]proline

> <PUBCHEM_IUPAC_INCHI>
InChI=1S/C30H46NO7P/c1-4-28(33)37-30(22(2)3)38-39(36,18-12-11-15-23-13-7-5-8-14-23)21-27(32)31-20-25(19-26(31)29(34)35)24-16-9-6-10-17-24/h5,7-8,13-14,22,24-26,30H,4,6,9-12,15-21H2,1-3H3,(H,34,35)/t25-,26+,30+,39?/m1/s1

> <PUBCHEM_IUPAC_INCHIKEY>
BIDNLKIUORFRQP-AJTMIRJTSA-N

> <PUBCHEM_XLOGP3_AA>
6.2

> <PUBCHEM_EXACT_MASS>
563.301189

> <PUBCHEM_MOLECULAR_FORMULA>
C30H46NO7P

> <PUBCHEM_MOLECULAR_WEIGHT>
563.662502

> <PUBCHEM_OPENEYE_CAN_SMILES>
CCC(=O)OC(C(C)C)OP(=O)(CCCCC1=CC=CC=C1)CC(=O)N2CC(CC2C(=O)O)C3CCCCC3

> <PUBCHEM_OPENEYE_ISO_SMILES>
CCC(=O)O[C@H](C(C)C)OP(=O)(CCCCC1=CC=CC=C1)CC(=O)N2C[C@@H](C[C@H]2C(=O)O)C3CCCCC3

> <PUBCHEM_CACTVS_TPSA>
110

> <PUBCHEM_MONOISOTOPIC_WEIGHT>
563.301189

> <PUBCHEM_TOTAL_CHARGE>
0

> <PUBCHEM_HEAVY_ATOM_COUNT>
39

> <PUBCHEM_ATOM_DEF_STEREO_COUNT>
3

> <PUBCHEM_ATOM_UDEF_STEREO_COUNT>
1

> <PUBCHEM_BOND_DEF_STEREO_COUNT>
0

> <PUBCHEM_BOND_UDEF_STEREO_COUNT>
0

> <PUBCHEM_ISOTOPIC_ATOM_COUNT>
0

> <PUBCHEM_COMPONENT_COUNT>
1

> <PUBCHEM_CACTVS_TAUTO_COUNT>
1

> <PUBCHEM_COORDINATE_TYPE>
1
5
255

> <PUBCHEM_BONDANNOTATIONS>
1  22  3
10  40  5
16  21  5
31  33  8
31  34  8
33  36  8
34  37  8
36  38  8
37  38  8
25  5  5

$$$$

