854063
  -OEChem-06241222472D

 30 31  0     1  0  0  0  0  0999 V2000
    2.0000    0.1481    0.0000 S   0  0  0  0  0  0  0  0  0  0  0  0
    5.5202    0.1481    0.0000 O   0  0  0  0  0  0  0  0  0  0  0  0
    3.2601    1.4081    0.0000 N   0  0  0  0  0  0  0  0  0  0  0  0
    3.7601   -0.1307    0.0000 N   0  0  0  0  0  0  0  0  0  0  0  0
    4.2601    1.4081    0.0000 C   0  0  2  0  0  0  0  0  0  0  0  0
    4.8479    2.2172    0.0000 C   0  0  0  0  0  0  0  0  0  0  0  0
    4.5691    0.4571    0.0000 C   0  0  0  0  0  0  0  0  0  0  0  0
    4.4411    3.1307    0.0000 C   0  0  0  0  0  0  0  0  0  0  0  0
    5.8424    2.1126    0.0000 C   0  0  0  0  0  0  0  0  0  0  0  0
    2.9511    0.4571    0.0000 C   0  0  0  0  0  0  0  0  0  0  0  0
    3.7601   -1.1307    0.0000 C   0  0  0  0  0  0  0  0  0  0  0  0
    2.8940   -1.6307    0.0000 C   0  0  0  0  0  0  0  0  0  0  0  0
    4.6261   -1.6307    0.0000 C   0  0  0  0  0  0  0  0  0  0  0  0
    2.8940   -2.6307    0.0000 C   0  0  0  0  0  0  0  0  0  0  0  0
    4.6261   -2.6307    0.0000 C   0  0  0  0  0  0  0  0  0  0  0  0
    3.7601   -3.1307    0.0000 C   0  0  0  0  0  0  0  0  0  0  0  0
    3.9786    1.9606    0.0000 H   0  0  0  0  0  0  0  0  0  0  0  0
    5.2123    2.7188    0.0000 H   0  0  0  0  0  0  0  0  0  0  0  0
    2.8956    1.9097    0.0000 H   0  0  0  0  0  0  0  0  0  0  0  0
    5.0075    3.3829    0.0000 H   0  0  0  0  0  0  0  0  0  0  0  0
    4.1890    3.6971    0.0000 H   0  0  0  0  0  0  0  0  0  0  0  0
    3.8747    2.8785    0.0000 H   0  0  0  0  0  0  0  0  0  0  0  0
    5.7776    1.4960    0.0000 H   0  0  0  0  0  0  0  0  0  0  0  0
    6.4590    2.0478    0.0000 H   0  0  0  0  0  0  0  0  0  0  0  0
    5.9072    2.7292    0.0000 H   0  0  0  0  0  0  0  0  0  0  0  0
    2.3571   -1.3207    0.0000 H   0  0  0  0  0  0  0  0  0  0  0  0
    5.1630   -1.3207    0.0000 H   0  0  0  0  0  0  0  0  0  0  0  0
    2.3571   -2.9407    0.0000 H   0  0  0  0  0  0  0  0  0  0  0  0
    5.1630   -2.9407    0.0000 H   0  0  0  0  0  0  0  0  0  0  0  0
    3.7601   -3.7507    0.0000 H   0  0  0  0  0  0  0  0  0  0  0  0
  1 10  2  0  0  0  0
  2  7  2  0  0  0  0
  3  5  1  0  0  0  0
  3 10  1  0  0  0  0
  3 19  1  0  0  0  0
  4  7  1  0  0  0  0
  4 10  1  0  0  0  0
  4 11  1  0  0  0  0
  5  6  1  6  0  0  0
  5  7  1  0  0  0  0
  5 17  1  0  0  0  0
  6  8  1  0  0  0  0
  6  9  1  0  0  0  0
  6 18  1  0  0  0  0
  8 20  1  0  0  0  0
  8 21  1  0  0  0  0
  8 22  1  0  0  0  0
  9 23  1  0  0  0  0
  9 24  1  0  0  0  0
  9 25  1  0  0  0  0
 11 12  2  0  0  0  0
 11 13  1  0  0  0  0
 12 14  1  0  0  0  0
 12 26  1  0  0  0  0
 13 15  2  0  0  0  0
 13 27  1  0  0  0  0
 14 16  2  0  0  0  0
 14 28  1  0  0  0  0
 15 16  1  0  0  0  0
 15 29  1  0  0  0  0
 16 30  1  0  0  0  0
M  END
> <PUBCHEM_COMPOUND_CID>
854063

> <PUBCHEM_COMPOUND_CANONICALIZED>
1

> <PUBCHEM_CACTVS_COMPLEXITY>
297

> <PUBCHEM_CACTVS_HBOND_ACCEPTOR>
2

> <PUBCHEM_CACTVS_HBOND_DONOR>
1

> <PUBCHEM_CACTVS_ROTATABLE_BOND>
2

> <PUBCHEM_CACTVS_SUBSKEYS>
AAADccBzIABAAAAAAAAAAAAAAAAAAWAAAAAwAAAAAAAAAAABAAAAHgQQAAAADSjBkAQzwIPAAACMACVSUACCAAAhAgkIiIGIZIiIYDLAkbGUIAholQLIyCcQAAAIAAAAAAAAAAAAAAAAAAAAAAAAAAAAAA==

> <PUBCHEM_IUPAC_OPENEYE_NAME>
(5R)-5-isopropyl-3-phenyl-2-thioxo-imidazolidin-4-one

> <PUBCHEM_IUPAC_CAS_NAME>
(5R)-3-phenyl-5-propan-2-yl-2-sulfanylidene-4-imidazolidinone

> <PUBCHEM_IUPAC_NAME>
(5R)-3-phenyl-5-propan-2-yl-2-sulfanylideneimidazolidin-4-one

> <PUBCHEM_IUPAC_SYSTEMATIC_NAME>
(5R)-3-phenyl-5-propan-2-yl-2-sulfanylidene-imidazolidin-4-one

> <PUBCHEM_IUPAC_TRADITIONAL_NAME>
(5R)-5-isopropyl-3-phenyl-2-thioxo-4-imidazolidinone

> <PUBCHEM_IUPAC_INCHI>
InChI=1S/C12H14N2OS/c1-8(2)10-11(15)14(12(16)13-10)9-6-4-3-5-7-9/h3-8,10H,1-2H3,(H,13,16)/t10-/m1/s1

> <PUBCHEM_IUPAC_INCHIKEY>
HEIKHJHSVLQGGN-SNVBAGLBSA-N

> <PUBCHEM_XLOGP3_AA>
2.7

> <PUBCHEM_EXACT_MASS>
234.082684

> <PUBCHEM_MOLECULAR_FORMULA>
C12H14N2OS

> <PUBCHEM_MOLECULAR_WEIGHT>
234.31736

> <PUBCHEM_OPENEYE_CAN_SMILES>
CC(C)C1C(=O)N(C(=S)N1)C2=CC=CC=C2

> <PUBCHEM_OPENEYE_ISO_SMILES>
CC(C)[C@@H]1C(=O)N(C(=S)N1)C2=CC=CC=C2

> <PUBCHEM_CACTVS_TPSA>
64.4

> <PUBCHEM_MONOISOTOPIC_WEIGHT>
234.082684

> <PUBCHEM_TOTAL_CHARGE>
0

> <PUBCHEM_HEAVY_ATOM_COUNT>
16

> <PUBCHEM_ATOM_DEF_STEREO_COUNT>
1

> <PUBCHEM_ATOM_UDEF_STEREO_COUNT>
0

> <PUBCHEM_BOND_DEF_STEREO_COUNT>
0

> <PUBCHEM_BOND_UDEF_STEREO_COUNT>
0

> <PUBCHEM_ISOTOPIC_ATOM_COUNT>
0

> <PUBCHEM_COMPONENT_COUNT>
1

> <PUBCHEM_CACTVS_TAUTO_COUNT>
4

> <PUBCHEM_COORDINATE_TYPE>
1
5
255

> <PUBCHEM_BONDANNOTATIONS>
11  12  8
11  13  8
12  14  8
13  15  8
14  16  8
15  16  8
5  6  6

$$$$

