   Color/Form

     * Pale yellow
     * Colorless, oily liquid [Note: A solid below 42 degrees F]

   from [1]HSDB

   Odor
        Slight aromatic odor
   from [2]HSDB

   Boiling Point
        283.7 deg C at 760 mm Hg
   from [3]HSDB

   Melting Point
        5.5 deg C
   from [4]HSDB

   Density/Specific Gravity
        1.196 at 15.6 deg C/15.6 deg C; 1.1940 at 20 deg C/20 deg C; 1.189
   at 25 deg C/25 deg C
   from [5]HSDB

   Heat of Combustion
        -119.7 kg-cal/mole
   from [6]HSDB

   Heat of Vaporization
        93.1 g-cal/g
   from [7]HSDB

   Octanol/Water Partition Coefficient
        log Kow = 1.60
   from [8]HSDB

   Solubilities

     * Miscible with alcohol, ether, chloroform. Practically insoluble in
       petroleum ether, and other paraffin hydrocarbons.
     * Solubility in mineral oil at 20 deg C: 0.34 g/100 g
     * SOL IN PETROLEUM OILS, DIETHYL ETHER & MOST ORG SOLVENTS
     * Slightly soluble in carbon tatrachloride; soluble in benzene;
       miscible in ethanol, ethyl ether
     * Readily soluble in organic solvents, alcohols, esters, ketones,
       chlorinated hydrocarbons. Slightly soluble in some types of mineral
       oil.
     * In water, 4,000 mg/L at 25 deg C

   from [9]HSDB

   Spectral Properties

     * Index of refraction: 1.5168 at 20 deg C/D
     * Max absorption (ethanol): 277 nm (E = 57.7 at 1%, 1 nm)
     * IR: 4805 (Coblentz Society Spectral Collection)
     * UV: 378 (Sadtler Research Laboratories Spectral Collection)
     * 1H NMR: 89 (Sadtler Research Laboratories Spectral Collection)
     * Raman: 71 (Sadtler Research Laboratories Spectral Collection)
     * MASS: 27901 (NIST/EPA/MSDC Mass Spectral database, 1990 version);
       2187 (Atlas of Mass Spectral Data, John Wiley & Sons, New York)
     * Intense mass spectral peaks: 163 m/z (100%), 77 m/z (31%), 76 m/z
       (17%), 50 m/z (15%)

   from [10]HSDB

   Vapor Density
        6.69 (Air = 1)
   from [11]HSDB

   Vapor Pressure
        3.08X10-3 mm Hg at 25 deg C /from experimentally-derived
   coefficients/
   from [12]HSDB

   Relative Evaporation Rate
        Almost zero (methyl acetate= 1)
   from [13]HSDB

   Viscosity
        17.2 cP at 25 deg C
   from [14]HSDB

   Other Chemical/Physical Properties

     * VOLATILITY: 4.0 MG/SQ CM/HR AT 100 DEG C
     * WEIGHT/VOLUME CONVERSION: 7.93 MG/CU M= APPROX 1 PPM
     * The release time of the repellent chemical ... dimethyl phthalate
       ... from porous propylene slabs was much higher (approx 7 times
       more) than from porous propylene powders. The release time was a
       function of the initial concn and was inversely proportional to
       vapor pressure in case of porous powder. /Former US/
     * BP: 232.7 deg C at 200 mm Hg; 210.0 deg C at 100 mm Hg; 194.0 deg C
       at 60 mm Hg; 182.8 deg C at 40 mm Hg; 164.0 deg C at 20 mm Hg;
       147.6 deg C at 10 mm Hg
     * The commercial product freezes at approximately 0 deg C.
     * VP: <0.01 mm Hg at 20 deg C
     * Bulk density 9.93 lb/gal at 68 deg F.
     * Readily hydrolyzed by alkalis, with cleavage of both ester groups.
     * Phthalate esters would be expected to have UV maxima in the 230 nm
       and 270 nm regions. /Phthalate esters/
     * ... Resistance to migration from polymers, low temperature
       flexibility ... compatibility with polar polymers and additives
       over a wide range of compositions. /Phthalate esters/
     * Henry's Law constant = 1.97X10-7 cu cm/molec-sec at 25 deg C (est)
     * Hydroxyl radical reaction rate constant = 5.74X10-13 cu
       cm/molec-sec at 25 deg C (est)

   from [15]HSDB

   Computed Properties
   Molecular Weight                  194.184 [g/mol]
   Molecular Formula                 C[10]H[10]O[4]
   XLogP3                            1.6
   H-Bond Donor                      0
   H-Bond Acceptor                   4
   Rotatable Bond Count              4
   Exact Mass                        194.057909
   MonoIsotopic Mass                 194.057909
   Topological Polar Surface Area    52.6
   Heavy Atom Count                  14
   Formal Charge                     0
   Complexity                        200
   Isotope Atom Count                0
   Defined Atom Stereocenter Count   0
   Undefined Atom Stereocenter Count 0
   Defined Bond Stereocenter Count   0
   Undefined Bond Stereocenter Count 0
   Covalently-Bonded Unit Count      1
   Feature 3D Acceptor Count         2
   Feature 3D Ring Count             1
   Effective Rotor Count             4
   Conformer Sampling RMSD           0.6
   CID Conformer Count               [16]9

References

   1. http://toxnet.nlm.nih.gov/cgi-bin/sis/search/r?dbs+hsdb:@term+@rn+@rel+131-11-3
   2. http://toxnet.nlm.nih.gov/cgi-bin/sis/search/r?dbs+hsdb:@term+@rn+@rel+131-11-3
   3. http://toxnet.nlm.nih.gov/cgi-bin/sis/search/r?dbs+hsdb:@term+@rn+@rel+131-11-3
   4. http://toxnet.nlm.nih.gov/cgi-bin/sis/search/r?dbs+hsdb:@term+@rn+@rel+131-11-3
   5. http://toxnet.nlm.nih.gov/cgi-bin/sis/search/r?dbs+hsdb:@term+@rn+@rel+131-11-3
   6. http://toxnet.nlm.nih.gov/cgi-bin/sis/search/r?dbs+hsdb:@term+@rn+@rel+131-11-3
   7. http://toxnet.nlm.nih.gov/cgi-bin/sis/search/r?dbs+hsdb:@term+@rn+@rel+131-11-3
   8. http://toxnet.nlm.nih.gov/cgi-bin/sis/search/r?dbs+hsdb:@term+@rn+@rel+131-11-3
   9. http://toxnet.nlm.nih.gov/cgi-bin/sis/search/r?dbs+hsdb:@term+@rn+@rel+131-11-3
  10. http://toxnet.nlm.nih.gov/cgi-bin/sis/search/r?dbs+hsdb:@term+@rn+@rel+131-11-3
  11. http://toxnet.nlm.nih.gov/cgi-bin/sis/search/r?dbs+hsdb:@term+@rn+@rel+131-11-3
  12. http://toxnet.nlm.nih.gov/cgi-bin/sis/search/r?dbs+hsdb:@term+@rn+@rel+131-11-3
  13. http://toxnet.nlm.nih.gov/cgi-bin/sis/search/r?dbs+hsdb:@term+@rn+@rel+131-11-3
  14. http://toxnet.nlm.nih.gov/cgi-bin/sis/search/r?dbs+hsdb:@term+@rn+@rel+131-11-3
  15. http://toxnet.nlm.nih.gov/cgi-bin/sis/search/r?dbs+hsdb:@term+@rn+@rel+131-11-3
  16. http://pubchem.ncbi.nlm.nih.gov/vw3d/vw3d.cgi?cid=8554
