47205491
  -OEChem-06241222582D

 31 33  0     1  0  0  0  0  0999 V2000
    4.6783    1.9621    0.0000 S   0  0  0  0  0  0  0  0  0  0  0  0
    6.2619   -0.5747    0.0000 O   0  0  0  0  0  0  0  0  0  0  0  0
    8.2619   -0.5747    0.0000 N   0  0  0  0  0  0  0  0  0  0  0  0
    6.2619    1.1574    0.0000 N   0  0  0  0  0  0  0  0  0  0  0  0
    4.6783    0.3526    0.0000 N   0  0  0  0  0  0  0  0  0  0  0  0
    8.5983   -2.1574    0.0000 N   0  0  0  0  0  0  0  0  0  0  0  0
    7.7619    0.2913    0.0000 C   0  0  3  0  0  0  0  0  0  0  0  0
    6.7619    0.2913    0.0000 C   0  0  0  0  0  0  0  0  0  0  0  0
    8.2619    1.1574    0.0000 C   0  0  0  0  0  0  0  0  0  0  0  0
    9.2564   -0.6792    0.0000 C   0  0  0  0  0  0  0  0  0  0  0  0
    7.8551   -1.4882    0.0000 C   0  0  0  0  0  0  0  0  0  0  0  0
    5.2619    1.1574    0.0000 C   0  0  0  0  0  0  0  0  0  0  0  0
    3.7320    1.6574    0.0000 C   0  0  0  0  0  0  0  0  0  0  0  0
    3.7320    0.6574    0.0000 C   0  0  0  0  0  0  0  0  0  0  0  0
    9.4643   -1.6574    0.0000 C   0  0  0  0  0  0  0  0  0  0  0  0
    2.8660    2.1574    0.0000 C   0  0  0  0  0  0  0  0  0  0  0  0
    2.8660    0.1574    0.0000 C   0  0  0  0  0  0  0  0  0  0  0  0
    2.0000    1.6574    0.0000 C   0  0  0  0  0  0  0  0  0  0  0  0
    2.0000    0.6574    0.0000 C   0  0  0  0  0  0  0  0  0  0  0  0
    8.3819    0.2913    0.0000 H   0  0  0  0  0  0  0  0  0  0  0  0
    8.7988    0.8474    0.0000 H   0  0  0  0  0  0  0  0  0  0  0  0
    8.5719    1.6943    0.0000 H   0  0  0  0  0  0  0  0  0  0  0  0
    7.7249    1.4674    0.0000 H   0  0  0  0  0  0  0  0  0  0  0  0
    6.5719    1.6943    0.0000 H   0  0  0  0  0  0  0  0  0  0  0  0
    9.6713   -0.2185    0.0000 H   0  0  0  0  0  0  0  0  0  0  0  0
    7.2487   -1.6171    0.0000 H   0  0  0  0  0  0  0  0  0  0  0  0
   10.0307   -1.9095    0.0000 H   0  0  0  0  0  0  0  0  0  0  0  0
    2.8660    2.7774    0.0000 H   0  0  0  0  0  0  0  0  0  0  0  0
    2.8660   -0.4626    0.0000 H   0  0  0  0  0  0  0  0  0  0  0  0
    1.4631    1.9674    0.0000 H   0  0  0  0  0  0  0  0  0  0  0  0
    1.4631    0.3474    0.0000 H   0  0  0  0  0  0  0  0  0  0  0  0
  1 12  1  0  0  0  0
  1 13  1  0  0  0  0
  2  8  2  0  0  0  0
  3  7  1  0  0  0  0
  3 10  1  0  0  0  0
  3 11  1  0  0  0  0
  4  8  1  0  0  0  0
  4 12  1  0  0  0  0
  4 24  1  0  0  0  0
  5 12  2  0  0  0  0
  5 14  1  0  0  0  0
  6 11  2  0  0  0  0
  6 15  1  0  0  0  0
  7  8  1  0  0  0  0
  7  9  1  0  0  0  0
  7 20  1  0  0  0  0
  9 21  1  0  0  0  0
  9 22  1  0  0  0  0
  9 23  1  0  0  0  0
 10 15  2  0  0  0  0
 10 25  1  0  0  0  0
 11 26  1  0  0  0  0
 13 14  1  0  0  0  0
 13 16  2  0  0  0  0
 14 17  2  0  0  0  0
 15 27  1  0  0  0  0
 16 18  1  0  0  0  0
 16 28  1  0  0  0  0
 17 19  1  0  0  0  0
 17 29  1  0  0  0  0
 18 19  2  0  0  0  0
 18 30  1  0  0  0  0
 19 31  1  0  0  0  0
M  END
> <PUBCHEM_COMPOUND_CID>
47205491

> <PUBCHEM_COMPOUND_CANONICALIZED>
1

> <PUBCHEM_CACTVS_COMPLEXITY>
341

> <PUBCHEM_CACTVS_HBOND_ACCEPTOR>
4

> <PUBCHEM_CACTVS_HBOND_DONOR>
1

> <PUBCHEM_CACTVS_ROTATABLE_BOND>
3

> <PUBCHEM_CACTVS_SUBSKEYS>
AAADccBzoABAAAAAAAAAAAAAAAAAAWLAAAAwAAAAAAAAAFgB/AAAHgQQAAAACCjB1gQ/0bfMEAisATV3dACD8K1xGrlJ2D24dJiIaKLgmbGUIAhokQLIyCcQAAAAAAAAAAAAAQAAAAAAAAACAAAAAAAAAA==

> <PUBCHEM_IUPAC_OPENEYE_NAME>
N-(1,3-benzothiazol-2-yl)-2-imidazol-1-yl-propanamide

> <PUBCHEM_IUPAC_CAS_NAME>
N-(1,3-benzothiazol-2-yl)-2-(1-imidazolyl)propanamide

> <PUBCHEM_IUPAC_NAME>
N-(1,3-benzothiazol-2-yl)-2-imidazol-1-ylpropanamide

> <PUBCHEM_IUPAC_SYSTEMATIC_NAME>
N-(1,3-benzothiazol-2-yl)-2-imidazol-1-yl-propanamide

> <PUBCHEM_IUPAC_TRADITIONAL_NAME>
N-(1,3-benzothiazol-2-yl)-2-imidazol-1-yl-propionamide

> <PUBCHEM_IUPAC_INCHI>
InChI=1S/C13H12N4OS/c1-9(17-7-6-14-8-17)12(18)16-13-15-10-4-2-3-5-11(10)19-13/h2-9H,1H3,(H,15,16,18)

> <PUBCHEM_IUPAC_INCHIKEY>
DINROBACCLRKBS-UHFFFAOYSA-N

> <PUBCHEM_XLOGP3_AA>
2.2

> <PUBCHEM_EXACT_MASS>
272.073182

> <PUBCHEM_MOLECULAR_FORMULA>
C13H12N4OS

> <PUBCHEM_MOLECULAR_WEIGHT>
272.32558

> <PUBCHEM_OPENEYE_CAN_SMILES>
CC(C(=O)NC1=NC2=CC=CC=C2S1)N3C=CN=C3

> <PUBCHEM_OPENEYE_ISO_SMILES>
CC(C(=O)NC1=NC2=CC=CC=C2S1)N3C=CN=C3

> <PUBCHEM_CACTVS_TPSA>
88

> <PUBCHEM_MONOISOTOPIC_WEIGHT>
272.073182

> <PUBCHEM_TOTAL_CHARGE>
0

> <PUBCHEM_HEAVY_ATOM_COUNT>
19

> <PUBCHEM_ATOM_DEF_STEREO_COUNT>
0

> <PUBCHEM_ATOM_UDEF_STEREO_COUNT>
1

> <PUBCHEM_BOND_DEF_STEREO_COUNT>
0

> <PUBCHEM_BOND_UDEF_STEREO_COUNT>
0

> <PUBCHEM_ISOTOPIC_ATOM_COUNT>
0

> <PUBCHEM_COMPONENT_COUNT>
1

> <PUBCHEM_CACTVS_TAUTO_COUNT>
5

> <PUBCHEM_COORDINATE_TYPE>
1
5
255

> <PUBCHEM_BONDANNOTATIONS>
1  12  8
1  13  8
10  15  8
13  14  8
13  16  8
14  17  8
16  18  8
17  19  8
18  19  8
3  10  8
3  11  8
5  12  8
5  14  8
6  11  8
6  15  8
7  9  3

$$$$

