   Chemical and Physical Properties References

   [1]USDA ARS - USDA chemical properties
   from [2]ChemIDplus

   Color/Form

     * Light yellow liquid
     * Clear colorless liquid

   from [3]HSDB

   Odor

     * Aromatic
     * Pungent mercaptan

   from [4]HSDB

   Boiling Point
        130 deg C @ 0.1 mm Hg
   from [5]HSDB

   Corrosivity
        Corrosive to steel
   from [6]HSDB

   Density/Specific Gravity
        1.16 @ 25 deg C/25 deg C
   from [7]HSDB

   Octanol/Water Partition Coefficient
        log Kow= 3.94
   from [8]HSDB

   Solubilities

     * Miscible with ... acetone, ethanol, kerosene, methyl isobutyl
       ketone, xylene.
     * Miscible with organic solvents.
     * In water, 15.7 mg/l @ 20 deg C

   from [9]HSDB

   Spectral Properties

     * Index of refraction: 1.5883 @ 30 deg C/D
     * Intense mass spectral peaks: 109 m/z (100%), 137 m/z (60%), 246 m/z
       (46%), 110 m/z (23%)

   from [10]HSDB

   Vapor Pressure
        45 mPa (3.38X10-4 mm Hg) @ 25 deg C
   from [11]HSDB

   Computed Properties
   Molecular Weight                  246.329262 [g/mol]
   Molecular Formula                 C[10]H[15]OPS[2]
   XLogP3                            3.9
   H-Bond Donor                      0
   H-Bond Acceptor                   3
   Rotatable Bond Count              5
   Exact Mass                        246.030194
   MonoIsotopic Mass                 246.030194
   Topological Polar Surface Area    66.6
   Heavy Atom Count                  14
   Formal Charge                     0
   Complexity                        202
   Isotope Atom Count                0
   Defined Atom Stereocenter Count   0
   Undefined Atom Stereocenter Count 1
   Defined Bond Stereocenter Count   0
   Undefined Bond Stereocenter Count 0
   Covalently-Bonded Unit Count      1
   Feature 3D Ring Count             1
   Effective Rotor Count             5
   Conformer Sampling RMSD           0.6
   CID Conformer Count               [12]26

References

   1. http://www.ars.usda.gov/SP2UserFiles/ad_hoc/12755100DatabaseFiles/PesticidePropertiesDatabase/IndividualPesticideFiles/FONOFOS.TXT
   2. http://chem.sis.nlm.nih.gov/chemidplus/
   3. http://toxnet.nlm.nih.gov/cgi-bin/sis/search/r?dbs+hsdb:@term+@rn+@rel+944-22-9
   4. http://toxnet.nlm.nih.gov/cgi-bin/sis/search/r?dbs+hsdb:@term+@rn+@rel+944-22-9
   5. http://toxnet.nlm.nih.gov/cgi-bin/sis/search/r?dbs+hsdb:@term+@rn+@rel+944-22-9
   6. http://toxnet.nlm.nih.gov/cgi-bin/sis/search/r?dbs+hsdb:@term+@rn+@rel+944-22-9
   7. http://toxnet.nlm.nih.gov/cgi-bin/sis/search/r?dbs+hsdb:@term+@rn+@rel+944-22-9
   8. http://toxnet.nlm.nih.gov/cgi-bin/sis/search/r?dbs+hsdb:@term+@rn+@rel+944-22-9
   9. http://toxnet.nlm.nih.gov/cgi-bin/sis/search/r?dbs+hsdb:@term+@rn+@rel+944-22-9
  10. http://toxnet.nlm.nih.gov/cgi-bin/sis/search/r?dbs+hsdb:@term+@rn+@rel+944-22-9
  11. http://toxnet.nlm.nih.gov/cgi-bin/sis/search/r?dbs+hsdb:@term+@rn+@rel+944-22-9
  12. http://pubchem.ncbi.nlm.nih.gov/vw3d/vw3d.cgi?cid=13676
