   Color/Form

     * Crystals
     * NEEDLES FROM WATER
     * Colorless needles

   from [1]HSDB

   Taste
        0.5 mg/l (taste threshold concn)
   from [2]HSDB

   Boiling Point
        211.5 deg C @ 766 mm Hg; 210.8 @ 760 mm Hg
   from [3]HSDB

   Melting Point
        25.4-26 deg C; 24.54 deg C
   from [4]HSDB

   Density/Specific Gravity
        0.9650 @ 20 deg C/4 deg C
   from [5]HSDB

   Dissociation Constants
        pKa= 10.60 at 25 deg C
   from [6]HSDB

   Heat of Vaporization
        64.96 kJ/mole @ 210.98 deg C
   from [7]HSDB

   Octanol/Water Partition Coefficient
        log Kow= 2.30
   from [8]HSDB

   Solubilities

     * Miscible in ethyl alcohol, ethyl ether; soluble in carbon
       tetrachloride
     * Very sol in benzene, chloroform
     * In water, 7.87X10+3 mg/l @ 25 deg C.
     * Soluble in oxygenated and aromatic solvents
     * 7.2 x 10 (-2) mol/l, at pH 5.1 and 25 deg C.

   from [9]HSDB

   Spectral Properties

     * MAX ABSORPTION (CYCLOHEXANE): 280 NM (LOG E= 3.31)
     * Index of refraction: 1.5420 @ 14 deg C/D
     * MASS: 201 (National Bureau of Standards EPA-NIH Mass Spectra Data
       Base, NSRDS-NBS-63)
     * IR: 15054 (Sadtler Research Laboratories IR Grating Collection)
     * UV: 178 (Sadtler Research Laboratories Spectral Collection)
     * NMR: 6016 (Sadtler Research Laboratories Spectral Collection)
     * MASS: 507 (Atlas of Mass Spectral Data, John Wiley & Sons, New
       York)

   from [10]HSDB

   Vapor Pressure
        0.102 mm Hg @ 25 deg C
   from [11]HSDB

   Other Chemical/Physical Properties

     * Dipole moment: 1.48 debyes (benzene, 20 deg C); 1.98 debyes
       (benzene, 60 deg C)
     * Hydroxyl radical rate constant = 7.20X10-11 cu-cm/molc sec @ 25 deg
       C
     * Henry's Law constant = 1.7X10-5 atm-cu m/mol @ 25 deg C

   from [12]HSDB

   Computed Properties
   Molecular Weight                  122.1644 [g/mol]
   Molecular Formula                 C[8]H[10]O
   XLogP3                            2.3
   H-Bond Donor                      1
   H-Bond Acceptor                   1
   Rotatable Bond Count              0
   Tautomer Count                    3
   Exact Mass                        122.073165
   MonoIsotopic Mass                 122.073165
   Topological Polar Surface Area    20.2
   Heavy Atom Count                  9
   Formal Charge                     0
   Complexity                        90.6
   Isotope Atom Count                0
   Defined Atom Stereocenter Count   0
   Undefined Atom Stereocenter Count 0
   Defined Bond Stereocenter Count   0
   Undefined Bond Stereocenter Count 0
   Covalently-Bonded Unit Count      1
   Feature 3D Donor Count            1
   Feature 3D Ring Count             1
   Effective Rotor Count             0
   Conformer Sampling RMSD           0.4
   CID Conformer Count               [13]1

References

   1. http://toxnet.nlm.nih.gov/cgi-bin/sis/search/r?dbs+hsdb:@term+@rn+@rel+105-67-9
   2. http://toxnet.nlm.nih.gov/cgi-bin/sis/search/r?dbs+hsdb:@term+@rn+@rel+105-67-9
   3. http://toxnet.nlm.nih.gov/cgi-bin/sis/search/r?dbs+hsdb:@term+@rn+@rel+105-67-9
   4. http://toxnet.nlm.nih.gov/cgi-bin/sis/search/r?dbs+hsdb:@term+@rn+@rel+105-67-9
   5. http://toxnet.nlm.nih.gov/cgi-bin/sis/search/r?dbs+hsdb:@term+@rn+@rel+105-67-9
   6. http://toxnet.nlm.nih.gov/cgi-bin/sis/search/r?dbs+hsdb:@term+@rn+@rel+105-67-9
   7. http://toxnet.nlm.nih.gov/cgi-bin/sis/search/r?dbs+hsdb:@term+@rn+@rel+105-67-9
   8. http://toxnet.nlm.nih.gov/cgi-bin/sis/search/r?dbs+hsdb:@term+@rn+@rel+105-67-9
   9. http://toxnet.nlm.nih.gov/cgi-bin/sis/search/r?dbs+hsdb:@term+@rn+@rel+105-67-9
  10. http://toxnet.nlm.nih.gov/cgi-bin/sis/search/r?dbs+hsdb:@term+@rn+@rel+105-67-9
  11. http://toxnet.nlm.nih.gov/cgi-bin/sis/search/r?dbs+hsdb:@term+@rn+@rel+105-67-9
  12. http://toxnet.nlm.nih.gov/cgi-bin/sis/search/r?dbs+hsdb:@term+@rn+@rel+105-67-9
  13. http://pubchem.ncbi.nlm.nih.gov/vw3d/vw3d.cgi?cid=7771
