   Color/Form
        YELLOW POWDER OR CRYSTALS
   from [1]HSDB

   Melting Point
        140-172 DEG C
   from [2]HSDB

   Density/Specific Gravity
        1.58
   from [3]HSDB

   Solubilities
        SLIGHTLY SOL IN CARBON DISULFIDE, BENZENE, CHLOROFORM; INSOL IN
   WATER, DILUTE CAUSTIC, GASOLINE
   from [4]HSDB

   Computed Properties
   Molecular Weight                  559.82576 [g/mol]
   Molecular Formula                 C[12]H[24]N[4]S[8]Se
   H-Bond Donor                      0
   H-Bond Acceptor                   8
   Rotatable Bond Count              8
   Exact Mass                        559.893186
   MonoIsotopic Mass                 559.893186
   Topological Polar Surface Area    243
   Heavy Atom Count                  25
   Formal Charge                     0
   Complexity                        430
   Isotope Atom Count                0
   Defined Atom Stereocenter Count   0
   Undefined Atom Stereocenter Count 0
   Defined Bond Stereocenter Count   0
   Undefined Bond Stereocenter Count 0
   Covalently-Bonded Unit Count      1

References

   1. http://toxnet.nlm.nih.gov/cgi-bin/sis/search/r?dbs+hsdb:@term+@rn+@rel+144-34-3
   2. http://toxnet.nlm.nih.gov/cgi-bin/sis/search/r?dbs+hsdb:@term+@rn+@rel+144-34-3
   3. http://toxnet.nlm.nih.gov/cgi-bin/sis/search/r?dbs+hsdb:@term+@rn+@rel+144-34-3
   4. http://toxnet.nlm.nih.gov/cgi-bin/sis/search/r?dbs+hsdb:@term+@rn+@rel+144-34-3
