   Color/Form

     * ORANGE-YELLOW NEEDLES FROM DIL ACETIC ACID
     * LEMON-YELLOW CRYSTALS OR FINE POWDER
     * Yellow powder

   from [1]HSDB

   Odor

     * ODORLESS
     * Slight

   from [2]HSDB

   Taste

     * HAS BITTER AFTERTASTE
     * Bitter

   from [3]HSDB

   Melting Point
        263 deg C
   from [4]HSDB

   Dissociation Constants
        pKa= 7.2
   from [5]HSDB

   Octanol/Water Partition Coefficient
        log Kow= -0.47
   from [6]HSDB

   Solubilities

     * Soly (mg/100 ml): water (pH 7) 19.0; 95% ethanol 51.0; acetone 510;
       DMF 8000; peanut oil 2.1; glycerol 60; polyethylene glycol 1500.
     * Very slightly soluble in alcohol and practically insoluble in ether
       and water.
     * In water, 79 mg/l at 24 deg C.

   from [7]HSDB

   Spectral Properties

     * MAX ABSORPTION: 370 NM (E= 776, 1%, 1 CM)
     * MAX ABSORPTION (H2O): 266 & 368 NM (A= 753, 1%, 1 CM)

   from [8]HSDB

   Other Chemical/Physical Properties
        dec 270-272 deg C
   from [9]HSDB

   Computed Properties
   Molecular Weight                  238.15704 [g/mol]
   Molecular Formula                 C[8]H[6]N[4]O[5]
   XLogP3                            -0.5
   H-Bond Donor                      1
   H-Bond Acceptor                   6
   Rotatable Bond Count              2
   Tautomer Count                    5
   Exact Mass                        238.033819
   MonoIsotopic Mass                 238.033819
   Topological Polar Surface Area    121
   Heavy Atom Count                  17
   Formal Charge                     0
   Complexity                        390
   Isotope Atom Count                0
   Defined Atom Stereocenter Count   0
   Undefined Atom Stereocenter Count 0
   Defined Bond Stereocenter Count   1
   Undefined Bond Stereocenter Count 0
   Covalently-Bonded Unit Count      1
   Feature 3D Acceptor Count         6
   Feature 3D Donor Count            1
   Feature 3D Anion Count            1
   Feature 3D Ring Count             2
   Effective Rotor Count             3.6
   Conformer Sampling RMSD           0.6
   CID Conformer Count               [10]10

References

   1. http://toxnet.nlm.nih.gov/cgi-bin/sis/search/r?dbs+hsdb:@term+@rn+@rel+67-20-9
   2. http://toxnet.nlm.nih.gov/cgi-bin/sis/search/r?dbs+hsdb:@term+@rn+@rel+67-20-9
   3. http://toxnet.nlm.nih.gov/cgi-bin/sis/search/r?dbs+hsdb:@term+@rn+@rel+67-20-9
   4. http://toxnet.nlm.nih.gov/cgi-bin/sis/search/r?dbs+hsdb:@term+@rn+@rel+67-20-9
   5. http://toxnet.nlm.nih.gov/cgi-bin/sis/search/r?dbs+hsdb:@term+@rn+@rel+67-20-9
   6. http://toxnet.nlm.nih.gov/cgi-bin/sis/search/r?dbs+hsdb:@term+@rn+@rel+67-20-9
   7. http://toxnet.nlm.nih.gov/cgi-bin/sis/search/r?dbs+hsdb:@term+@rn+@rel+67-20-9
   8. http://toxnet.nlm.nih.gov/cgi-bin/sis/search/r?dbs+hsdb:@term+@rn+@rel+67-20-9
   9. http://toxnet.nlm.nih.gov/cgi-bin/sis/search/r?dbs+hsdb:@term+@rn+@rel+67-20-9
  10. http://pubchem.ncbi.nlm.nih.gov/vw3d/vw3d.cgi?cid=6604200
