442037
  -OEChem-07051212562D

 59 63  0     1  0  0  0  0  0999 V2000
    4.4850    3.2396    0.0000 O   0  0  0  0  0  0  0  0  0  0  0  0
    2.2700   -2.6845    0.0000 O   0  0  0  0  0  0  0  0  0  0  0  0
    6.8890    2.5258    0.0000 O   0  0  0  0  0  0  0  0  0  0  0  0
    6.9384   -0.0417    0.0000 O   0  0  0  0  0  0  0  0  0  0  0  0
    6.8690    0.7938    0.0000 O   0  0  0  0  0  0  0  0  0  0  0  0
    7.4417   -1.5128    0.0000 O   0  0  0  0  0  0  0  0  0  0  0  0
    2.7370    0.1703    0.0000 N   0  0  3  0  0  0  0  0  0  0  0  0
    4.0494   -2.7808    0.0000 N   0  0  0  0  0  0  0  0  0  0  0  0
    3.6030   -0.3297    0.0000 C   0  0  2  0  0  0  0  0  0  0  0  0
    3.3938   -1.3015    0.0000 C   0  0  1  0  0  0  0  0  0  0  0  0
    4.4691    0.1703    0.0000 C   0  0  0  0  0  0  0  0  0  0  0  0
    3.6030    1.6703    0.0000 C   0  0  1  0  0  0  0  0  0  0  0  0
    4.4691    1.1703    0.0000 C   0  0  1  0  0  0  0  0  0  0  0  0
    2.4051   -1.4046    0.0000 C   0  0  0  0  0  0  0  0  0  0  0  0
    2.7370    1.1703    0.0000 C   0  0  0  0  0  0  0  0  0  0  0  0
    2.0000   -0.4968    0.0000 C   0  0  0  0  0  0  0  0  0  0  0  0
    4.3885   -1.1987    0.0000 C   0  0  0  0  0  0  0  0  0  0  0  0
    3.5870    2.7118    0.0000 C   0  0  2  0  0  0  0  0  0  0  0  0
    3.1842   -2.2793    0.0000 C   0  0  0  0  0  0  0  0  0  0  0  0
    5.3791    1.6771    0.0000 C   0  0  0  0  0  0  0  0  0  0  0  0
    4.7937   -2.1130    0.0000 C   0  0  0  0  0  0  0  0  0  0  0  0
    4.9892   -0.3477    0.0000 C   0  0  0  0  0  0  0  0  0  0  0  0
    2.7152    3.2018    0.0000 C   0  0  0  0  0  0  0  0  0  0  0  0
    5.3871    2.7187    0.0000 C   0  0  0  0  0  0  0  0  0  0  0  0
    5.8276   -2.2396    0.0000 C   0  0  0  0  0  0  0  0  0  0  0  0
    6.3790    1.6656    0.0000 C   0  0  0  0  0  0  0  0  0  0  0  0
    6.0258   -0.4504    0.0000 C   0  0  0  0  0  0  0  0  0  0  0  0
    6.4478   -1.4027    0.0000 C   0  0  0  0  0  0  0  0  0  0  0  0
    6.3990    3.3975    0.0000 C   0  0  0  0  0  0  0  0  0  0  0  0
    7.7487   -0.6278    0.0000 C   0  0  0  0  0  0  0  0  0  0  0  0
    7.8433   -2.4286    0.0000 C   0  0  0  0  0  0  0  0  0  0  0  0
    4.2901   -0.8302    0.0000 H   0  0  0  0  0  0  0  0  0  0  0  0
    4.6811   -0.4123    0.0000 H   0  0  0  0  0  0  0  0  0  0  0  0
    5.0796    0.2780    0.0000 H   0  0  0  0  0  0  0  0  0  0  0  0
    2.8637    2.0896    0.0000 H   0  0  0  0  0  0  0  0  0  0  0  0
    5.2019    0.7396    0.0000 H   0  0  0  0  0  0  0  0  0  0  0  0
    1.8155   -1.5963    0.0000 H   0  0  0  0  0  0  0  0  0  0  0  0
    2.5338   -2.0111    0.0000 H   0  0  0  0  0  0  0  0  0  0  0  0
    2.5250    1.7529    0.0000 H   0  0  0  0  0  0  0  0  0  0  0  0
    2.1264    1.0626    0.0000 H   0  0  0  0  0  0  0  0  0  0  0  0
    1.6346    0.0041    0.0000 H   0  0  0  0  0  0  0  0  0  0  0  0
    1.4635   -0.8076    0.0000 H   0  0  0  0  0  0  0  0  0  0  0  0
    3.5810    3.3318    0.0000 H   0  0  0  0  0  0  0  0  0  0  0  0
    4.1131   -3.3975    0.0000 H   0  0  0  0  0  0  0  0  0  0  0  0
    4.7315    0.2162    0.0000 H   0  0  0  0  0  0  0  0  0  0  0  0
    3.0190    3.7422    0.0000 H   0  0  0  0  0  0  0  0  0  0  0  0
    2.1748    3.5055    0.0000 H   0  0  0  0  0  0  0  0  0  0  0  0
    2.4115    2.6613    0.0000 H   0  0  0  0  0  0  0  0  0  0  0  0
    5.9252    3.0267    0.0000 H   0  0  0  0  0  0  0  0  0  0  0  0
    6.0722   -2.8093    0.0000 H   0  0  0  0  0  0  0  0  0  0  0  0
    6.9395    3.7013    0.0000 H   0  0  0  0  0  0  0  0  0  0  0  0
    6.0953    3.9380    0.0000 H   0  0  0  0  0  0  0  0  0  0  0  0
    5.8585    3.0938    0.0000 H   0  0  0  0  0  0  0  0  0  0  0  0
    7.3853   -1.1302    0.0000 H   0  0  0  0  0  0  0  0  0  0  0  0
    8.2511   -0.9911    0.0000 H   0  0  0  0  0  0  0  0  0  0  0  0
    8.1121   -0.1254    0.0000 H   0  0  0  0  0  0  0  0  0  0  0  0
    7.2755   -2.6776    0.0000 H   0  0  0  0  0  0  0  0  0  0  0  0
    8.0923   -2.9964    0.0000 H   0  0  0  0  0  0  0  0  0  0  0  0
    8.4111   -2.1796    0.0000 H   0  0  0  0  0  0  0  0  0  0  0  0
  1 18  1  0  0  0  0
  1 24  1  0  0  0  0
  2 19  2  0  0  0  0
  3 26  1  0  0  0  0
  3 29  1  0  0  0  0
  4 27  1  0  0  0  0
  4 30  1  0  0  0  0
  5 26  2  0  0  0  0
  6 28  1  0  0  0  0
  6 31  1  0  0  0  0
  7  9  1  0  0  0  0
  7 15  1  0  0  0  0
  7 16  1  0  0  0  0
  8 19  1  0  0  0  0
  8 21  1  0  0  0  0
  8 44  1  0  0  0  0
  9 10  1  0  0  0  0
  9 11  1  0  0  0  0
  9 32  1  6  0  0  0
 10 14  1  6  0  0  0
 10 17  1  0  0  0  0
 10 19  1  0  0  0  0
 11 13  1  0  0  0  0
 11 33  1  0  0  0  0
 11 34  1  0  0  0  0
 12 13  1  0  0  0  0
 12 15  1  0  0  0  0
 12 18  1  0  0  0  0
 12 35  1  6  0  0  0
 13 20  1  0  0  0  0
 13 36  1  6  0  0  0
 14 16  1  0  0  0  0
 14 37  1  0  0  0  0
 14 38  1  0  0  0  0
 15 39  1  0  0  0  0
 15 40  1  0  0  0  0
 16 41  1  0  0  0  0
 16 42  1  0  0  0  0
 17 21  1  0  0  0  0
 17 22  2  0  0  0  0
 18 23  1  6  0  0  0
 18 43  1  0  0  0  0
 20 24  2  0  0  0  0
 20 26  1  0  0  0  0
 21 25  2  0  0  0  0
 22 27  1  0  0  0  0
 22 45  1  0  0  0  0
 23 46  1  0  0  0  0
 23 47  1  0  0  0  0
 23 48  1  0  0  0  0
 24 49  1  0  0  0  0
 25 28  1  0  0  0  0
 25 50  1  0  0  0  0
 27 28  2  0  0  0  0
 29 51  1  0  0  0  0
 29 52  1  0  0  0  0
 29 53  1  0  0  0  0
 30 54  1  0  0  0  0
 30 55  1  0  0  0  0
 30 56  1  0  0  0  0
 31 57  1  0  0  0  0
 31 58  1  0  0  0  0
 31 59  1  0  0  0  0
M  END
> <PUBCHEM_COMPOUND_CID>
442037

> <PUBCHEM_COMPOUND_CANONICALIZED>
1

> <PUBCHEM_CACTVS_COMPLEXITY>
786

> <PUBCHEM_CACTVS_HBOND_ACCEPTOR>
7

> <PUBCHEM_CACTVS_HBOND_DONOR>
1

> <PUBCHEM_CACTVS_ROTATABLE_BOND>
4

> <PUBCHEM_CACTVS_SUBSKEYS>
AAADceB7OAAAAAAAAAAAAAAAAAAAAWLAAAA8QIAAAAAAAFiBAAAAHgAQAAAADzzhmAYyzoPABACIAiXSWACCCAAhIgAAiAEO7MgNJjrE9ZuEMCpm1BnK6Ie8/f/foEABAgACQABAgAIEAASAAAAAAAAAAA==

> <PUBCHEM_IUPAC_OPENEYE_NAME>
methyl (1S,4aS,5aS,6R,10aS)-5',6'-dimethoxy-1-methyl-2'-oxo-spiro[1,4a,5,5a,7,8,10,10a-octahydropyrano[3,4-f]indolizine-6,3'-indoline]-4-carboxylate

> <PUBCHEM_IUPAC_CAS_NAME>
(1S,4aS,5aS,6R,10aS)-5',6'-dimethoxy-1-methyl-2'-oxo-4-spiro[1,4a,5,5a,7,8,10,10a-octahydropyrano[3,4-f]indolizine-6,3'-1H-indole]carboxylic acid methyl ester

> <PUBCHEM_IUPAC_NAME>
methyl (1S,4aS,5aS,6R,10aS)-5',6'-dimethoxy-1-methyl-2'-oxospiro[1,4a,5,5a,7,8,10,10a-octahydropyrano[3,4-f]indolizine-6,3'-1H-indole]-4-carboxylate

> <PUBCHEM_IUPAC_SYSTEMATIC_NAME>
methyl (1S,4aS,5aS,6R,10aS)-5',6'-dimethoxy-1-methyl-2'-oxidanylidene-spiro[1,4a,5,5a,7,8,10,10a-octahydropyrano[3,4-f]indolizine-6,3'-1H-indole]-4-carboxylate

> <PUBCHEM_IUPAC_TRADITIONAL_NAME>
(1S,4aS,5aS,6R,10aS)-2'-keto-5',6'-dimethoxy-1-methyl-spiro[1,4a,5,5a,7,8,10,10a-octahydropyran[3,4-f]indolizine-6,3'-indoline]-4-carboxylic acid methyl ester

> <PUBCHEM_IUPAC_INCHI>
InChI=1S/C23H28N2O6/c1-12-14-10-25-6-5-23(20(25)7-13(14)15(11-31-12)21(26)30-4)16-8-18(28-2)19(29-3)9-17(16)24-22(23)27/h8-9,11-14,20H,5-7,10H2,1-4H3,(H,24,27)/t12-,13-,14-,20-,23+/m0/s1

> <PUBCHEM_IUPAC_INCHIKEY>
QIZNWMMOECVGAP-GHTUMPRVSA-N

> <PUBCHEM_XLOGP3_AA>
1.6

> <PUBCHEM_EXACT_MASS>
428.194737

> <PUBCHEM_MOLECULAR_FORMULA>
C23H28N2O6

> <PUBCHEM_MOLECULAR_WEIGHT>
428.47822

> <PUBCHEM_OPENEYE_CAN_SMILES>
CC1C2CN3CCC4(C3CC2C(=CO1)C(=O)OC)C5=CC(=C(C=C5NC4=O)OC)OC

> <PUBCHEM_OPENEYE_ISO_SMILES>
C[C@H]1[C@@H]2CN3CC[C@]4([C@@H]3C[C@@H]2C(=CO1)C(=O)OC)C5=CC(=C(C=C5NC4=O)OC)OC

> <PUBCHEM_CACTVS_TPSA>
86.3

> <PUBCHEM_MONOISOTOPIC_WEIGHT>
428.194737

> <PUBCHEM_TOTAL_CHARGE>
0

> <PUBCHEM_HEAVY_ATOM_COUNT>
31

> <PUBCHEM_ATOM_DEF_STEREO_COUNT>
5

> <PUBCHEM_ATOM_UDEF_STEREO_COUNT>
0

> <PUBCHEM_BOND_DEF_STEREO_COUNT>
0

> <PUBCHEM_BOND_UDEF_STEREO_COUNT>
0

> <PUBCHEM_ISOTOPIC_ATOM_COUNT>
0

> <PUBCHEM_COMPONENT_COUNT>
1

> <PUBCHEM_CACTVS_TAUTO_COUNT>
2

> <PUBCHEM_COORDINATE_TYPE>
1
5
255

> <PUBCHEM_BONDANNOTATIONS>
10  14  6
12  35  6
13  36  6
17  21  8
17  22  8
18  23  6
21  25  8
22  27  8
25  28  8
27  28  8
9  32  6

$$$$

