442540
  -OEChem-07051212582D

 39 41  0     1  0  0  0  0  0999 V2000
    6.8671    0.3450    0.0000 O   0  0  0  0  0  0  0  0  0  0  0  0
    5.1350   -1.6550    0.0000 O   0  0  0  0  0  0  0  0  0  0  0  0
    6.8671   -2.6550    0.0000 O   0  0  0  0  0  0  0  0  0  0  0  0
    8.6155   -2.6896    0.0000 O   0  0  0  0  0  0  0  0  0  0  0  0
   10.3972    0.3692    0.0000 O   0  0  0  0  0  0  0  0  0  0  0  0
    4.2690    2.8450    0.0000 O   0  0  0  0  0  0  0  0  0  0  0  0
    2.5369    1.8450    0.0000 O   0  0  0  0  0  0  0  0  0  0  0  0
    6.0010   -3.1550    0.0000 O   0  0  0  0  0  0  0  0  0  0  0  0
    6.0010   -0.1550    0.0000 C   0  0  1  0  0  0  0  0  0  0  0  0
    6.0010   -1.1550    0.0000 C   0  0  2  0  0  0  0  0  0  0  0  0
    5.1350    0.3450    0.0000 C   0  0  0  0  0  0  0  0  0  0  0  0
    6.8671   -1.6550    0.0000 C   0  0  0  0  0  0  0  0  0  0  0  0
    7.7331   -1.1550    0.0000 C   0  0  0  0  0  0  0  0  0  0  0  0
    7.7331   -0.1550    0.0000 C   0  0  0  0  0  0  0  0  0  0  0  0
    8.6270   -1.6897    0.0000 C   0  0  0  0  0  0  0  0  0  0  0  0
    5.1350    1.3450    0.0000 C   0  0  0  0  0  0  0  0  0  0  0  0
    4.2690   -0.1550    0.0000 C   0  0  0  0  0  0  0  0  0  0  0  0
    8.6270    0.3797    0.0000 C   0  0  0  0  0  0  0  0  0  0  0  0
    9.5331   -1.1758    0.0000 C   0  0  0  0  0  0  0  0  0  0  0  0
    9.5331   -0.1342    0.0000 C   0  0  0  0  0  0  0  0  0  0  0  0
    4.2690    1.8450    0.0000 C   0  0  0  0  0  0  0  0  0  0  0  0
    3.4030    0.3450    0.0000 C   0  0  0  0  0  0  0  0  0  0  0  0
    3.4030    1.3450    0.0000 C   0  0  0  0  0  0  0  0  0  0  0  0
    5.1350   -2.6550    0.0000 C   0  0  0  0  0  0  0  0  0  0  0  0
    4.2690   -3.1550    0.0000 C   0  0  0  0  0  0  0  0  0  0  0  0
    5.4641   -0.4650    0.0000 H   0  0  0  0  0  0  0  0  0  0  0  0
    5.4641   -0.8450    0.0000 H   0  0  0  0  0  0  0  0  0  0  0  0
    5.6720    1.6550    0.0000 H   0  0  0  0  0  0  0  0  0  0  0  0
    4.2690   -0.7750    0.0000 H   0  0  0  0  0  0  0  0  0  0  0  0
    8.6199    0.9996    0.0000 H   0  0  0  0  0  0  0  0  0  0  0  0
   10.0688   -1.4879    0.0000 H   0  0  0  0  0  0  0  0  0  0  0  0
    2.8660    0.0350    0.0000 H   0  0  0  0  0  0  0  0  0  0  0  0
    9.1488   -3.0058    0.0000 H   0  0  0  0  0  0  0  0  0  0  0  0
    3.9590   -2.6181    0.0000 H   0  0  0  0  0  0  0  0  0  0  0  0
    3.7320   -3.4650    0.0000 H   0  0  0  0  0  0  0  0  0  0  0  0
    4.5790   -3.6919    0.0000 H   0  0  0  0  0  0  0  0  0  0  0  0
   10.9353    0.0612    0.0000 H   0  0  0  0  0  0  0  0  0  0  0  0
    4.8059    3.1550    0.0000 H   0  0  0  0  0  0  0  0  0  0  0  0
    2.0000    1.5350    0.0000 H   0  0  0  0  0  0  0  0  0  0  0  0
  1  9  1  0  0  0  0
  1 14  1  0  0  0  0
 10  2  1  6  0  0  0
  2 24  1  0  0  0  0
  3 12  2  0  0  0  0
  4 15  1  0  0  0  0
  4 33  1  0  0  0  0
  5 20  1  0  0  0  0
  5 37  1  0  0  0  0
  6 21  1  0  0  0  0
  6 38  1  0  0  0  0
  7 23  1  0  0  0  0
  7 39  1  0  0  0  0
  8 24  2  0  0  0  0
  9 10  1  0  0  0  0
  9 11  1  1  0  0  0
  9 26  1  0  0  0  0
 10 12  1  0  0  0  0
 10 27  1  0  0  0  0
 11 16  2  0  0  0  0
 11 17  1  0  0  0  0
 12 13  1  0  0  0  0
 13 14  1  0  0  0  0
 13 15  2  0  0  0  0
 14 18  2  0  0  0  0
 15 19  1  0  0  0  0
 16 21  1  0  0  0  0
 16 28  1  0  0  0  0
 17 22  2  0  0  0  0
 17 29  1  0  0  0  0
 18 20  1  0  0  0  0
 18 30  1  0  0  0  0
 19 20  2  0  0  0  0
 19 31  1  0  0  0  0
 21 23  2  0  0  0  0
 22 23  1  0  0  0  0
 22 32  1  0  0  0  0
 24 25  1  0  0  0  0
 25 34  1  0  0  0  0
 25 35  1  0  0  0  0
 25 36  1  0  0  0  0
M  END
> <PUBCHEM_COMPOUND_CID>
442540

> <PUBCHEM_COMPOUND_CANONICALIZED>
1

> <PUBCHEM_CACTVS_COMPLEXITY>
523

> <PUBCHEM_CACTVS_HBOND_ACCEPTOR>
8

> <PUBCHEM_CACTVS_HBOND_DONOR>
4

> <PUBCHEM_CACTVS_ROTATABLE_BOND>
3

> <PUBCHEM_CACTVS_SUBSKEYS>
AAADccB4PAAAAAAAAAAAAAAAAAAAAAAAAAA0YIAAAAAAAACRQAAAGgAACAAADBSgmAIyDoAABgCIAqDSCAICCAAkIAAIiAFGiMgNJzaGNR6CeWGl4BULuQfI7PzOIAABCAAIQABAAAIQABCAAAAAAAAAAA==

> <PUBCHEM_IUPAC_OPENEYE_NAME>
[(2R,3R)-2-(3,4-dihydroxyphenyl)-5,7-dihydroxy-4-oxo-chroman-3-yl] acetate

> <PUBCHEM_IUPAC_CAS_NAME>
acetic acid [(2R,3R)-2-(3,4-dihydroxyphenyl)-5,7-dihydroxy-4-oxo-3,4-dihydro-2H-1-benzopyran-3-yl] ester

> <PUBCHEM_IUPAC_NAME>
[(2R,3R)-2-(3,4-dihydroxyphenyl)-5,7-dihydroxy-4-oxo-2,3-dihydrochromen-3-yl] acetate

> <PUBCHEM_IUPAC_SYSTEMATIC_NAME>
[(2R,3R)-2-[3,4-bis(oxidanyl)phenyl]-5,7-bis(oxidanyl)-4-oxidanylidene-2,3-dihydrochromen-3-yl] ethanoate

> <PUBCHEM_IUPAC_TRADITIONAL_NAME>
acetic acid [(2R,3R)-2-(3,4-dihydroxyphenyl)-5,7-dihydroxy-4-keto-chroman-3-yl] ester

> <PUBCHEM_IUPAC_INCHI>
InChI=1S/C17H14O8/c1-7(18)24-17-15(23)14-12(22)5-9(19)6-13(14)25-16(17)8-2-3-10(20)11(21)4-8/h2-6,16-17,19-22H,1H3/t16-,17+/m1/s1

> <PUBCHEM_IUPAC_INCHIKEY>
NPWRSXJQDKRXOR-SJORKVTESA-N

> <PUBCHEM_XLOGP3_AA>
2.1

> <PUBCHEM_EXACT_MASS>
346.068867

> <PUBCHEM_MOLECULAR_FORMULA>
C17H14O8

> <PUBCHEM_MOLECULAR_WEIGHT>
346.28826

> <PUBCHEM_OPENEYE_CAN_SMILES>
CC(=O)OC1C(OC2=CC(=CC(=C2C1=O)O)O)C3=CC(=C(C=C3)O)O

> <PUBCHEM_OPENEYE_ISO_SMILES>
CC(=O)O[C@@H]1[C@H](OC2=CC(=CC(=C2C1=O)O)O)C3=CC(=C(C=C3)O)O

> <PUBCHEM_CACTVS_TPSA>
134

> <PUBCHEM_MONOISOTOPIC_WEIGHT>
346.068867

> <PUBCHEM_TOTAL_CHARGE>
0

> <PUBCHEM_HEAVY_ATOM_COUNT>
25

> <PUBCHEM_ATOM_DEF_STEREO_COUNT>
2

> <PUBCHEM_ATOM_UDEF_STEREO_COUNT>
0

> <PUBCHEM_BOND_DEF_STEREO_COUNT>
0

> <PUBCHEM_BOND_UDEF_STEREO_COUNT>
0

> <PUBCHEM_ISOTOPIC_ATOM_COUNT>
0

> <PUBCHEM_COMPONENT_COUNT>
1

> <PUBCHEM_CACTVS_TAUTO_COUNT>
210

> <PUBCHEM_COORDINATE_TYPE>
1
5
255

> <PUBCHEM_BONDANNOTATIONS>
11  16  8
11  17  8
13  14  8
13  15  8
14  18  8
15  19  8
16  21  8
17  22  8
18  20  8
19  20  8
10  2  6
21  23  8
22  23  8
9  11  5

$$$$

