656719
  -OEChem-07051213042D

 59 60  0     1  0  0  0  0  0999 V2000
    5.0000   -1.5688    0.0000 F   0  0  0  0  0  0  0  0  0  0  0  0
    4.6581   -3.5086    0.0000 F   0  0  0  0  0  0  0  0  0  0  0  0
    6.8660   -3.0688    0.0000 O   0  0  0  0  0  0  0  0  0  0  0  0
    5.8264   -3.5537    0.0000 O   0  0  0  0  0  0  0  0  0  0  0  0
   10.2619   -2.0688    0.0000 O   0  0  0  0  0  0  0  0  0  0  0  0
   13.8349    3.3628    0.0000 O   0  0  0  0  0  0  0  0  0  0  0  0
   12.1886    3.9009    0.0000 O   0  0  0  0  0  0  0  0  0  0  0  0
    7.7320   -1.5688    0.0000 C   0  0  1  0  0  0  0  0  0  0  0  0
    7.7320   -2.5688    0.0000 C   0  0  1  0  0  0  0  0  0  0  0  0
    8.6783   -1.2641    0.0000 C   0  0  1  0  0  0  0  0  0  0  0  0
    6.8660   -1.0688    0.0000 C   0  0  0  0  0  0  0  0  0  0  0  0
    8.6783   -2.8736    0.0000 C   0  0  0  0  0  0  0  0  0  0  0  0
    6.0000   -2.5688    0.0000 C   0  0  2  0  0  0  0  0  0  0  0  0
    6.0000   -1.5688    0.0000 C   0  0  0  0  0  0  0  0  0  0  0  0
    9.2619   -2.0688    0.0000 C   0  0  0  0  0  0  0  0  0  0  0  0
    8.9889   -0.3136    0.0000 C   0  0  0  0  0  0  0  0  0  0  0  0
    5.0000   -2.5688    0.0000 C   0  0  0  0  0  0  0  0  0  0  0  0
    9.9674   -0.1074    0.0000 C   0  0  0  0  0  0  0  0  0  0  0  0
    4.0000   -2.5688    0.0000 C   0  0  0  0  0  0  0  0  0  0  0  0
   10.2781    0.8431    0.0000 C   0  0  0  0  0  0  0  0  0  0  0  0
    3.5000   -1.7028    0.0000 C   0  0  0  0  0  0  0  0  0  0  0  0
   11.2566    1.0494    0.0000 C   0  0  0  0  0  0  0  0  0  0  0  0
    2.5000   -1.7028    0.0000 C   0  0  0  0  0  0  0  0  0  0  0  0
   11.5673    1.9999    0.0000 C   0  0  0  0  0  0  0  0  0  0  0  0
   12.5458    2.2061    0.0000 C   0  0  0  0  0  0  0  0  0  0  0  0
    2.0000   -0.8368    0.0000 C   0  0  0  0  0  0  0  0  0  0  0  0
   12.8564    3.1566    0.0000 C   0  0  0  0  0  0  0  0  0  0  0  0
    7.8220   -0.7236    0.0000 H   0  0  0  0  0  0  0  0  0  0  0  0
    7.8220   -3.4141    0.0000 H   0  0  0  0  0  0  0  0  0  0  0  0
    8.2408   -0.8248    0.0000 H   0  0  0  0  0  0  0  0  0  0  0  0
    7.2646   -0.5939    0.0000 H   0  0  0  0  0  0  0  0  0  0  0  0
    6.4675   -0.5939    0.0000 H   0  0  0  0  0  0  0  0  0  0  0  0
    8.4272   -3.4405    0.0000 H   0  0  0  0  0  0  0  0  0  0  0  0
    9.2156   -3.1828    0.0000 H   0  0  0  0  0  0  0  0  0  0  0  0
    5.7880   -0.9862    0.0000 H   0  0  0  0  0  0  0  0  0  0  0  0
    5.3894   -1.6765    0.0000 H   0  0  0  0  0  0  0  0  0  0  0  0
    8.9684    0.3061    0.0000 H   0  0  0  0  0  0  0  0  0  0  0  0
    8.3751   -0.2262    0.0000 H   0  0  0  0  0  0  0  0  0  0  0  0
    9.9880   -0.7270    0.0000 H   0  0  0  0  0  0  0  0  0  0  0  0
   10.5813   -0.1947    0.0000 H   0  0  0  0  0  0  0  0  0  0  0  0
    3.4174   -2.7809    0.0000 H   0  0  0  0  0  0  0  0  0  0  0  0
    4.1077   -3.1794    0.0000 H   0  0  0  0  0  0  0  0  0  0  0  0
    6.3014   -3.9522    0.0000 H   0  0  0  0  0  0  0  0  0  0  0  0
   10.2575    1.4628    0.0000 H   0  0  0  0  0  0  0  0  0  0  0  0
    9.6643    0.9305    0.0000 H   0  0  0  0  0  0  0  0  0  0  0  0
    4.0826   -1.4908    0.0000 H   0  0  0  0  0  0  0  0  0  0  0  0
    3.3923   -1.0922    0.0000 H   0  0  0  0  0  0  0  0  0  0  0  0
   11.2772    0.4297    0.0000 H   0  0  0  0  0  0  0  0  0  0  0  0
   11.8704    0.9620    0.0000 H   0  0  0  0  0  0  0  0  0  0  0  0
    1.9174   -1.9149    0.0000 H   0  0  0  0  0  0  0  0  0  0  0  0
    2.6077   -2.3134    0.0000 H   0  0  0  0  0  0  0  0  0  0  0  0
   11.5467    2.6195    0.0000 H   0  0  0  0  0  0  0  0  0  0  0  0
   10.9535    2.0872    0.0000 H   0  0  0  0  0  0  0  0  0  0  0  0
   12.5663    1.5864    0.0000 H   0  0  0  0  0  0  0  0  0  0  0  0
   13.1596    2.1188    0.0000 H   0  0  0  0  0  0  0  0  0  0  0  0
    2.5369   -0.5268    0.0000 H   0  0  0  0  0  0  0  0  0  0  0  0
    1.6900   -0.2999    0.0000 H   0  0  0  0  0  0  0  0  0  0  0  0
    1.4631   -1.1468    0.0000 H   0  0  0  0  0  0  0  0  0  0  0  0
   14.0276    3.9522    0.0000 H   0  0  0  0  0  0  0  0  0  0  0  0
  1 17  1  0  0  0  0
  2 17  1  0  0  0  0
  3  9  1  0  0  0  0
  3 13  1  0  0  0  0
 13  4  1  6  0  0  0
  4 43  1  0  0  0  0
  5 15  2  0  0  0  0
  6 27  1  0  0  0  0
  6 59  1  0  0  0  0
  7 27  2  0  0  0  0
  8  9  1  0  0  0  0
  8 10  1  0  0  0  0
  8 11  1  0  0  0  0
  8 28  1  1  0  0  0
  9 12  1  0  0  0  0
  9 29  1  6  0  0  0
 10 15  1  0  0  0  0
 10 16  1  6  0  0  0
 10 30  1  0  0  0  0
 11 14  1  0  0  0  0
 11 31  1  0  0  0  0
 11 32  1  0  0  0  0
 12 15  1  0  0  0  0
 12 33  1  0  0  0  0
 12 34  1  0  0  0  0
 13 14  1  0  0  0  0
 13 17  1  0  0  0  0
 14 35  1  0  0  0  0
 14 36  1  0  0  0  0
 16 18  1  0  0  0  0
 16 37  1  0  0  0  0
 16 38  1  0  0  0  0
 17 19  1  0  0  0  0
 18 20  1  0  0  0  0
 18 39  1  0  0  0  0
 18 40  1  0  0  0  0
 19 21  1  0  0  0  0
 19 41  1  0  0  0  0
 19 42  1  0  0  0  0
 20 22  1  0  0  0  0
 20 44  1  0  0  0  0
 20 45  1  0  0  0  0
 21 23  1  0  0  0  0
 21 46  1  0  0  0  0
 21 47  1  0  0  0  0
 22 24  1  0  0  0  0
 22 48  1  0  0  0  0
 22 49  1  0  0  0  0
 23 26  1  0  0  0  0
 23 50  1  0  0  0  0
 23 51  1  0  0  0  0
 24 25  1  0  0  0  0
 24 52  1  0  0  0  0
 24 53  1  0  0  0  0
 25 27  1  0  0  0  0
 25 54  1  0  0  0  0
 25 55  1  0  0  0  0
 26 56  1  0  0  0  0
 26 57  1  0  0  0  0
 26 58  1  0  0  0  0
M  END
> <PUBCHEM_COMPOUND_CID>
656719

> <PUBCHEM_COMPOUND_CANONICALIZED>
1

> <PUBCHEM_CACTVS_COMPLEXITY>
525

> <PUBCHEM_CACTVS_HBOND_ACCEPTOR>
7

> <PUBCHEM_CACTVS_HBOND_DONOR>
2

> <PUBCHEM_CACTVS_ROTATABLE_BOND>
11

> <PUBCHEM_CACTVS_SUBSKEYS>
AAADcfB4OYAAAAAAAAAAAAAAAAAAAYAAAAAkAAAAAAAAAEgAAAAAGwAACAAADRSggBICCAAABgAIAICQCAAAAAAAAAAAAAEAAAAQABYAAAACQAAEIAAEAAGK6PSOgAAAAAAAAAAAAAAAAAAAAIAADAAAAA==

> <PUBCHEM_IUPAC_OPENEYE_NAME>
7-[(2R,4aR,5S,7aR)-2-(1,1-difluoropentyl)-2-hydroxy-6-oxo-3,4,4a,5,7,7a-hexahydrocyclopenta[b]pyran-5-yl]heptanoic acid

> <PUBCHEM_IUPAC_CAS_NAME>
7-[(2R,4aR,5S,7aR)-2-(1,1-difluoropentyl)-2-hydroxy-6-oxo-3,4,4a,5,7,7a-hexahydrocyclopenta[b]pyran-5-yl]heptanoic acid

> <PUBCHEM_IUPAC_NAME>
7-[(2R,4aR,5S,7aR)-2-(1,1-difluoropentyl)-2-hydroxy-6-oxo-3,4,4a,5,7,7a-hexahydrocyclopenta[b]pyran-5-yl]heptanoic acid

> <PUBCHEM_IUPAC_SYSTEMATIC_NAME>
7-[(2R,4aR,5S,7aR)-2-[1,1-bis(fluoranyl)pentyl]-2-oxidanyl-6-oxidanylidene-3,4,4a,5,7,7a-hexahydrocyclopenta[b]pyran-5-yl]heptanoic acid

> <PUBCHEM_IUPAC_TRADITIONAL_NAME>
7-[(2R,4aR,5S,7aR)-2-(1,1-difluoropentyl)-2-hydroxy-6-keto-3,4,4a,5,7,7a-hexahydrocyclopenta[b]pyran-5-yl]enanthic acid

> <PUBCHEM_IUPAC_INCHI>
InChI=1S/C20H32F2O5/c1-2-3-11-19(21,22)20(26)12-10-15-14(16(23)13-17(15)27-20)8-6-4-5-7-9-18(24)25/h14-15,17,26H,2-13H2,1H3,(H,24,25)/t14-,15+,17+,20+/m0/s1

> <PUBCHEM_IUPAC_INCHIKEY>
WGFOBBZOWHGYQH-DKYLXPRQSA-N

> <PUBCHEM_XLOGP3_AA>
4

> <PUBCHEM_EXACT_MASS>
390.221781

> <PUBCHEM_MOLECULAR_FORMULA>
C20H32F2O5

> <PUBCHEM_MOLECULAR_WEIGHT>
390.461886

> <PUBCHEM_OPENEYE_CAN_SMILES>
CCCCC(C1(CCC2C(O1)CC(=O)C2CCCCCCC(=O)O)O)(F)F

> <PUBCHEM_OPENEYE_ISO_SMILES>
CCCCC([C@]1(CC[C@H]2[C@H](O1)CC(=O)[C@H]2CCCCCCC(=O)O)O)(F)F

> <PUBCHEM_CACTVS_TPSA>
83.8

> <PUBCHEM_MONOISOTOPIC_WEIGHT>
390.221781

> <PUBCHEM_TOTAL_CHARGE>
0

> <PUBCHEM_HEAVY_ATOM_COUNT>
27

> <PUBCHEM_ATOM_DEF_STEREO_COUNT>
4

> <PUBCHEM_ATOM_UDEF_STEREO_COUNT>
0

> <PUBCHEM_BOND_DEF_STEREO_COUNT>
0

> <PUBCHEM_BOND_UDEF_STEREO_COUNT>
0

> <PUBCHEM_ISOTOPIC_ATOM_COUNT>
0

> <PUBCHEM_COMPONENT_COUNT>
1

> <PUBCHEM_CACTVS_TAUTO_COUNT>
3

> <PUBCHEM_COORDINATE_TYPE>
1
5
255

> <PUBCHEM_BONDANNOTATIONS>
10  16  6
13  4  6
8  28  5
9  29  6

$$$$

