11066347
  -OEChem-07051213102D

 36 38  0     1  0  0  0  0  0999 V2000
    2.0000   -0.0454    0.0000 Br  0  0  0  0  0  0  0  0  0  0  0  0
    6.0047    0.5809    0.0000 O   0  0  0  0  0  0  0  0  0  0  0  0
    5.5047   -0.9580    0.0000 C   0  0  1  0  0  0  0  0  0  0  0  0
    6.3137   -0.3702    0.0000 C   0  0  2  0  0  0  0  0  0  0  0  0
    7.1164   -0.9566    0.0000 C   0  0  2  0  0  0  0  0  0  0  0  0
    5.8143   -1.9026    0.0000 C   0  0  0  0  0  0  0  0  0  0  0  0
    6.8084   -1.9018    0.0000 C   0  0  0  0  0  0  0  0  0  0  0  0
    4.6957   -0.3702    0.0000 C   0  0  0  0  0  0  0  0  0  0  0  0
    4.6957   -1.5458    0.0000 C   0  0  0  0  0  0  0  0  0  0  0  0
    7.1227    0.2176    0.0000 C   0  0  0  0  0  0  0  0  0  0  0  0
    5.0047    0.5809    0.0000 C   0  0  0  0  0  0  0  0  0  0  0  0
    8.0680   -0.6492    0.0000 C   0  0  0  0  0  0  0  0  0  0  0  0
    3.6803   -0.6024    0.0000 C   0  0  0  0  0  0  0  0  0  0  0  0
    4.3197    1.3656    0.0000 C   0  0  0  0  0  0  0  0  0  0  0  0
    2.9773    0.1662    0.0000 C   0  0  0  0  0  0  0  0  0  0  0  0
    3.2992    1.1569    0.0000 C   0  0  0  0  0  0  0  0  0  0  0  0
    2.6330    1.9026    0.0000 C   0  0  0  0  0  0  0  0  0  0  0  0
    7.2147   -0.3444    0.0000 H   0  0  0  0  0  0  0  0  0  0  0  0
    5.2082   -2.0327    0.0000 H   0  0  0  0  0  0  0  0  0  0  0  0
    5.8800   -2.5191    0.0000 H   0  0  0  0  0  0  0  0  0  0  0  0
    6.7438   -2.5184    0.0000 H   0  0  0  0  0  0  0  0  0  0  0  0
    7.4148   -2.0308    0.0000 H   0  0  0  0  0  0  0  0  0  0  0  0
    4.3312   -1.0442    0.0000 H   0  0  0  0  0  0  0  0  0  0  0  0
    4.1941   -1.9102    0.0000 H   0  0  0  0  0  0  0  0  0  0  0  0
    5.0601   -2.0474    0.0000 H   0  0  0  0  0  0  0  0  0  0  0  0
    7.4872   -0.2840    0.0000 H   0  0  0  0  0  0  0  0  0  0  0  0
    7.6243    0.5820    0.0000 H   0  0  0  0  0  0  0  0  0  0  0  0
    6.7583    0.7192    0.0000 H   0  0  0  0  0  0  0  0  0  0  0  0
    8.2586   -1.2392    0.0000 H   0  0  0  0  0  0  0  0  0  0  0  0
    8.6580   -0.4586    0.0000 H   0  0  0  0  0  0  0  0  0  0  0  0
    7.8774   -0.0592    0.0000 H   0  0  0  0  0  0  0  0  0  0  0  0
    3.4955   -1.1943    0.0000 H   0  0  0  0  0  0  0  0  0  0  0  0
    4.5181    1.9530    0.0000 H   0  0  0  0  0  0  0  0  0  0  0  0
    3.0953    2.3157    0.0000 H   0  0  0  0  0  0  0  0  0  0  0  0
    2.2199    2.3650    0.0000 H   0  0  0  0  0  0  0  0  0  0  0  0
    2.1706    1.4895    0.0000 H   0  0  0  0  0  0  0  0  0  0  0  0
  1 15  1  0  0  0  0
  2  4  1  0  0  0  0
  2 11  1  0  0  0  0
  3  4  1  0  0  0  0
  3  6  1  0  0  0  0
  3  8  1  0  0  0  0
  3  9  1  6  0  0  0
  4  5  1  0  0  0  0
  4 10  1  6  0  0  0
  5  7  1  0  0  0  0
  5 12  1  1  0  0  0
  5 18  1  0  0  0  0
  6  7  1  0  0  0  0
  6 19  1  0  0  0  0
  6 20  1  0  0  0  0
  7 21  1  0  0  0  0
  7 22  1  0  0  0  0
  8 11  2  0  0  0  0
  8 13  1  0  0  0  0
  9 23  1  0  0  0  0
  9 24  1  0  0  0  0
  9 25  1  0  0  0  0
 10 26  1  0  0  0  0
 10 27  1  0  0  0  0
 10 28  1  0  0  0  0
 11 14  1  0  0  0  0
 12 29  1  0  0  0  0
 12 30  1  0  0  0  0
 12 31  1  0  0  0  0
 13 15  2  0  0  0  0
 13 32  1  0  0  0  0
 14 16  2  0  0  0  0
 14 33  1  0  0  0  0
 15 16  1  0  0  0  0
 16 17  1  0  0  0  0
 17 34  1  0  0  0  0
 17 35  1  0  0  0  0
 17 36  1  0  0  0  0
M  END
> <PUBCHEM_COMPOUND_CID>
11066347

> <PUBCHEM_COMPOUND_CANONICALIZED>
1

> <PUBCHEM_CACTVS_COMPLEXITY>
331

> <PUBCHEM_CACTVS_HBOND_ACCEPTOR>
1

> <PUBCHEM_CACTVS_HBOND_DONOR>
0

> <PUBCHEM_CACTVS_ROTATABLE_BOND>
0

> <PUBCHEM_CACTVS_SUBSKEYS>
AAADceBwIAAAEAAAAAAAAAAAAAAAAaIAAAAwAAAAAAASAEgBAAAAGgBAAAABr0SAmAAyBoAABACAAiBCAAACCAAgIAQAiAAGCKgMJiKEMRqCOCCkwBEIqheAwPAPwBABEAAIgACAIAIgABEAAQAADAAAAA==

> <PUBCHEM_IUPAC_OPENEYE_NAME>
(3S,3aS,8bS)-7-bromo-3,3a,6,8b-tetramethyl-2,3-dihydro-1H-cyclopenta[b]benzofuran

> <PUBCHEM_IUPAC_CAS_NAME>
(3S,3aS,8bS)-7-bromo-3,3a,6,8b-tetramethyl-2,3-dihydro-1H-cyclopenta[b]benzofuran

> <PUBCHEM_IUPAC_NAME>
(3S,3aS,8bS)-7-bromo-3,3a,6,8b-tetramethyl-2,3-dihydro-1H-cyclopenta[b][1]benzofuran

> <PUBCHEM_IUPAC_SYSTEMATIC_NAME>
(3S,3aS,8bS)-7-bromanyl-3,3a,6,8b-tetramethyl-2,3-dihydro-1H-cyclopenta[b][1]benzofuran

> <PUBCHEM_IUPAC_TRADITIONAL_NAME>
(3S,3aS,8bS)-7-bromo-3,3a,6,8b-tetramethyl-2,3-dihydro-1H-cyclopenta[b]benzofuran

> <PUBCHEM_IUPAC_INCHI>
InChI=1S/C15H19BrO/c1-9-7-13-11(8-12(9)16)14(3)6-5-10(2)15(14,4)17-13/h7-8,10H,5-6H2,1-4H3/t10-,14-,15-/m0/s1

> <PUBCHEM_IUPAC_INCHIKEY>
AZMIIVUEOLBHBL-LKTVYLICSA-N

> <PUBCHEM_XLOGP3_AA>
4.9

> <PUBCHEM_EXACT_MASS>
294.061927

> <PUBCHEM_MOLECULAR_FORMULA>
C15H19BrO

> <PUBCHEM_MOLECULAR_WEIGHT>
295.21476

> <PUBCHEM_OPENEYE_CAN_SMILES>
CC1CCC2(C1(OC3=CC(=C(C=C32)Br)C)C)C

> <PUBCHEM_OPENEYE_ISO_SMILES>
C[C@H]1CC[C@@]2([C@]1(OC3=CC(=C(C=C32)Br)C)C)C

> <PUBCHEM_CACTVS_TPSA>
9.2

> <PUBCHEM_MONOISOTOPIC_WEIGHT>
294.061927

> <PUBCHEM_TOTAL_CHARGE>
0

> <PUBCHEM_HEAVY_ATOM_COUNT>
17

> <PUBCHEM_ATOM_DEF_STEREO_COUNT>
3

> <PUBCHEM_ATOM_UDEF_STEREO_COUNT>
0

> <PUBCHEM_BOND_DEF_STEREO_COUNT>
0

> <PUBCHEM_BOND_UDEF_STEREO_COUNT>
0

> <PUBCHEM_ISOTOPIC_ATOM_COUNT>
0

> <PUBCHEM_COMPONENT_COUNT>
1

> <PUBCHEM_CACTVS_TAUTO_COUNT>
1

> <PUBCHEM_COORDINATE_TYPE>
1
5
255

> <PUBCHEM_BONDANNOTATIONS>
11  14  8
13  15  8
14  16  8
15  16  8
3  9  6
4  10  6
5  12  5
8  11  8
8  13  8

$$$$

