11217
  -OEChem-06261205242D

113119  0     1  0  0  0  0  0999 V2000
    3.9785    0.1223    0.0000 O   0  0  0  0  0  0  0  0  0  0  0  0
    5.0437    2.3513    0.0000 O   0  0  0  0  0  0  0  0  0  0  0  0
    2.3123   -1.3360    0.0000 O   0  0  0  0  0  0  0  0  0  0  0  0
    3.7477    2.2253    0.0000 O   0  0  0  0  0  0  0  0  0  0  0  0
    5.0437    3.3513    0.0000 O   0  0  0  0  0  0  0  0  0  0  0  0
    3.1679   -3.1366    0.0000 O   0  0  0  0  0  0  0  0  0  0  0  0
    6.7758    4.3513    0.0000 O   0  0  0  0  0  0  0  0  0  0  0  0
    9.0257    4.2577    0.0000 O   0  0  0  0  0  0  0  0  0  0  0  0
    2.1579    1.5378    0.0000 O   0  0  0  0  0  0  0  0  0  0  0  0
    5.9098    4.8513    0.0000 O   0  0  0  0  0  0  0  0  0  0  0  0
    4.5740   -4.1480    0.0000 O   0  0  0  0  0  0  0  0  0  0  0  0
    3.3117    5.3513    0.0000 O   0  0  0  0  0  0  0  0  0  0  0  0
    9.4418    1.8305    0.0000 N   0  0  3  0  0  0  0  0  0  0  0  0
    5.5778    0.2765    0.0000 C   0  0  1  0  0  0  0  0  0  0  0  0
    4.9829   -0.5710    0.0000 C   0  0  2  0  0  0  0  0  0  0  0  0
    5.1727    1.1842    0.0000 C   0  0  3  0  0  0  0  0  0  0  0  0
    5.9098    1.8513    0.0000 C   0  0  2  0  0  0  0  0  0  0  0  0
    6.7758    1.3513    0.0000 C   0  0  3  0  0  0  0  0  0  0  0  0
    3.9523   -0.4716    0.0000 C   0  0  3  0  0  0  0  0  0  0  0  0
    6.5666    0.3795    0.0000 C   0  0  0  0  0  0  0  0  0  0  0  0
    3.3123   -1.3399    0.0000 C   0  0  1  0  0  0  0  0  0  0  0  0
    4.1446    1.3075    0.0000 C   0  0  1  0  0  0  0  0  0  0  0  0
    7.6418    1.8513    0.0000 C   0  0  3  0  0  0  0  0  0  0  0  0
    3.5303    0.4739    0.0000 C   0  0  0  0  0  0  0  0  0  0  0  0
    5.4452   -1.5456    0.0000 C   0  0  0  0  0  0  0  0  0  0  0  0
    5.9098    2.8513    0.0000 C   0  0  2  0  0  0  0  0  0  0  0  0
    7.6418    2.8513    0.0000 C   0  0  3  0  0  0  0  0  0  0  0  0
    3.7519   -2.3248    0.0000 C   0  0  2  0  0  0  0  0  0  0  0  0
    6.7758    3.3513    0.0000 C   0  0  1  0  0  0  0  0  0  0  0  0
    5.9783   -0.6670    0.0000 C   0  0  0  0  0  0  0  0  0  0  0  0
    4.8255   -2.4284    0.0000 C   0  0  0  0  0  0  0  0  0  0  0  0
    8.5357    3.3860    0.0000 C   0  0  1  0  0  0  0  0  0  0  0  0
    8.5357    1.3167    0.0000 C   0  0  0  0  0  0  0  0  0  0  0  0
    9.4418    2.8722    0.0000 C   0  0  2  0  0  0  0  0  0  0  0  0
    8.0258    4.2462    0.0000 C   0  0  0  0  0  0  0  0  0  0  0  0
   10.3730    3.4291    0.0000 C   0  0  0  0  0  0  0  0  0  0  0  0
   10.3730    1.2736    0.0000 C   0  0  0  0  0  0  0  0  0  0  0  0
   11.3168    1.8088    0.0000 C   0  0  2  0  0  0  0  0  0  0  0  0
   11.3168    2.8938    0.0000 C   0  0  0  0  0  0  0  0  0  0  0  0
    2.7543    2.3405    0.0000 C   0  0  0  0  0  0  0  0  0  0  0  0
    5.0437    4.3513    0.0000 C   0  0  0  0  0  0  0  0  0  0  0  0
    3.5790   -4.0482    0.0000 C   0  0  0  0  0  0  0  0  0  0  0  0
   12.1808    1.3055    0.0000 C   0  0  0  0  0  0  0  0  0  0  0  0
    4.1777    4.8513    0.0000 C   0  0  3  0  0  0  0  0  0  0  0  0
    2.3574    3.2583    0.0000 C   0  0  0  0  0  0  0  0  0  0  0  0
    2.9950   -4.8600    0.0000 C   0  0  3  0  0  0  0  0  0  0  0  0
    4.6777    5.7174    0.0000 C   0  0  0  0  0  0  0  0  0  0  0  0
    3.6777    3.9853    0.0000 C   0  0  0  0  0  0  0  0  0  0  0  0
    3.4060   -5.7716    0.0000 C   0  0  0  0  0  0  0  0  0  0  0  0
    2.0000   -4.7602    0.0000 C   0  0  0  0  0  0  0  0  0  0  0  0
    4.1777    6.5834    0.0000 C   0  0  0  0  0  0  0  0  0  0  0  0
    2.8221   -6.5834    0.0000 C   0  0  0  0  0  0  0  0  0  0  0  0
    4.9149    1.9942    0.0000 H   0  0  0  0  0  0  0  0  0  0  0  0
    7.4628    0.8508    0.0000 H   0  0  0  0  0  0  0  0  0  0  0  0
    3.1072   -0.3803    0.0000 H   0  0  0  0  0  0  0  0  0  0  0  0
    6.5657   -0.2405    0.0000 H   0  0  0  0  0  0  0  0  0  0  0  0
    7.1830    0.3135    0.0000 H   0  0  0  0  0  0  0  0  0  0  0  0
    3.5286    1.3777    0.0000 H   0  0  0  0  0  0  0  0  0  0  0  0
    7.6352    1.0014    0.0000 H   0  0  0  0  0  0  0  0  0  0  0  0
    3.1015    0.9218    0.0000 H   0  0  0  0  0  0  0  0  0  0  0  0
    3.0157    0.1281    0.0000 H   0  0  0  0  0  0  0  0  0  0  0  0
    5.8842   -1.9834    0.0000 H   0  0  0  0  0  0  0  0  0  0  0  0
    5.9516   -1.1879    0.0000 H   0  0  0  0  0  0  0  0  0  0  0  0
    5.9098    3.4713    0.0000 H   0  0  0  0  0  0  0  0  0  0  0  0
    7.6352    3.7013    0.0000 H   0  0  0  0  0  0  0  0  0  0  0  0
    4.0078   -2.8895    0.0000 H   0  0  0  0  0  0  0  0  0  0  0  0
    7.3127    3.6613    0.0000 H   0  0  0  0  0  0  0  0  0  0  0  0
    5.9188   -1.2842    0.0000 H   0  0  0  0  0  0  0  0  0  0  0  0
    6.5955   -0.7266    0.0000 H   0  0  0  0  0  0  0  0  0  0  0  0
    6.0378   -0.0499    0.0000 H   0  0  0  0  0  0  0  0  0  0  0  0
    4.6612   -3.0262    0.0000 H   0  0  0  0  0  0  0  0  0  0  0  0
    5.3864   -2.6925    0.0000 H   0  0  0  0  0  0  0  0  0  0  0  0
    8.1312    0.8469    0.0000 H   0  0  0  0  0  0  0  0  0  0  0  0
    8.9294    0.8377    0.0000 H   0  0  0  0  0  0  0  0  0  0  0  0
    4.5068    2.0413    0.0000 H   0  0  0  0  0  0  0  0  0  0  0  0
    9.4320    3.7221    0.0000 H   0  0  0  0  0  0  0  0  0  0  0  0
    2.0003   -1.8717    0.0000 H   0  0  0  0  0  0  0  0  0  0  0  0
    8.5591    4.5624    0.0000 H   0  0  0  0  0  0  0  0  0  0  0  0
    7.7096    4.7795    0.0000 H   0  0  0  0  0  0  0  0  0  0  0  0
    7.4924    3.9300    0.0000 H   0  0  0  0  0  0  0  0  0  0  0  0
   10.7666    3.9081    0.0000 H   0  0  0  0  0  0  0  0  0  0  0  0
    9.9684    3.8989    0.0000 H   0  0  0  0  0  0  0  0  0  0  0  0
    9.9684    0.8038    0.0000 H   0  0  0  0  0  0  0  0  0  0  0  0
   10.7666    0.7946    0.0000 H   0  0  0  0  0  0  0  0  0  0  0  0
    7.3127    4.6613    0.0000 H   0  0  0  0  0  0  0  0  0  0  0  0
    8.7095    4.7911    0.0000 H   0  0  0  0  0  0  0  0  0  0  0  0
   11.3132    1.1888    0.0000 H   0  0  0  0  0  0  0  0  0  0  0  0
   11.9276    2.7877    0.0000 H   0  0  0  0  0  0  0  0  0  0  0  0
   11.5258    3.4775    0.0000 H   0  0  0  0  0  0  0  0  0  0  0  0
   11.8688    0.7698    0.0000 H   0  0  0  0  0  0  0  0  0  0  0  0
   12.7166    0.9934    0.0000 H   0  0  0  0  0  0  0  0  0  0  0  0
   12.4929    1.8412    0.0000 H   0  0  0  0  0  0  0  0  0  0  0  0
    2.9265    3.5044    0.0000 H   0  0  0  0  0  0  0  0  0  0  0  0
    2.1113    3.8274    0.0000 H   0  0  0  0  0  0  0  0  0  0  0  0
    1.7883    3.0122    0.0000 H   0  0  0  0  0  0  0  0  0  0  0  0
    2.4986   -5.5500    0.0000 H   0  0  0  0  0  0  0  0  0  0  0  0
    5.1527    5.3188    0.0000 H   0  0  0  0  0  0  0  0  0  0  0  0
    5.1527    6.1159    0.0000 H   0  0  0  0  0  0  0  0  0  0  0  0
    3.1408    4.2953    0.0000 H   0  0  0  0  0  0  0  0  0  0  0  0
    3.3677    3.4484    0.0000 H   0  0  0  0  0  0  0  0  0  0  0  0
    4.2146    3.6753    0.0000 H   0  0  0  0  0  0  0  0  0  0  0  0
    3.8388   -6.2156    0.0000 H   0  0  0  0  0  0  0  0  0  0  0  0
    3.9184   -5.4225    0.0000 H   0  0  0  0  0  0  0  0  0  0  0  0
    2.0619   -4.1432    0.0000 H   0  0  0  0  0  0  0  0  0  0  0  0
    1.3831   -4.6983    0.0000 H   0  0  0  0  0  0  0  0  0  0  0  0
    1.9381   -5.3771    0.0000 H   0  0  0  0  0  0  0  0  0  0  0  0
    3.3117    5.9713    0.0000 H   0  0  0  0  0  0  0  0  0  0  0  0
    4.7146    6.8934    0.0000 H   0  0  0  0  0  0  0  0  0  0  0  0
    3.8677    7.1203    0.0000 H   0  0  0  0  0  0  0  0  0  0  0  0
    3.6408    6.2734    0.0000 H   0  0  0  0  0  0  0  0  0  0  0  0
    2.3188   -6.2213    0.0000 H   0  0  0  0  0  0  0  0  0  0  0  0
    2.4600   -7.0867    0.0000 H   0  0  0  0  0  0  0  0  0  0  0  0
    3.3254   -6.9454    0.0000 H   0  0  0  0  0  0  0  0  0  0  0  0
  1 14  1  0  0  0  0
  1 21  1  0  0  0  0
 17  2  1  1  0  0  0
  2 75  1  0  0  0  0
 21  3  1  6  0  0  0
  3 77  1  0  0  0  0
 22  4  1  1  0  0  0
  4 40  1  0  0  0  0
 26  5  1  1  0  0  0
  5 41  1  0  0  0  0
 28  6  1  6  0  0  0
  6 42  1  0  0  0  0
 29  7  1  6  0  0  0
  7 85  1  0  0  0  0
 32  8  1  6  0  0  0
  8 86  1  0  0  0  0
  9 40  2  0  0  0  0
 10 41  2  0  0  0  0
 11 42  2  0  0  0  0
 12 44  1  0  0  0  0
 12107  1  0  0  0  0
 13 33  1  0  0  0  0
 13 34  1  0  0  0  0
 13 37  1  0  0  0  0
 14 15  1  0  0  0  0
 14 16  1  0  0  0  0
 14 20  1  1  0  0  0
 15 19  1  0  0  0  0
 15 25  1  0  0  0  0
 15 30  1  6  0  0  0
 16 17  1  0  0  0  0
 16 22  1  0  0  0  0
 16 53  1  0  0  0  0
 17 18  1  0  0  0  0
 17 26  1  0  0  0  0
 18 20  1  0  0  0  0
 18 23  1  0  0  0  0
 18 54  1  0  0  0  0
 19 21  1  0  0  0  0
 19 24  1  0  0  0  0
 19 55  1  0  0  0  0
 20 56  1  0  0  0  0
 20 57  1  0  0  0  0
 21 28  1  0  0  0  0
 22 24  1  0  0  0  0
 22 58  1  0  0  0  0
 23 27  1  0  0  0  0
 23 33  1  0  0  0  0
 23 59  1  0  0  0  0
 24 60  1  0  0  0  0
 24 61  1  0  0  0  0
 25 31  1  0  0  0  0
 25 62  1  0  0  0  0
 25 63  1  0  0  0  0
 26 29  1  0  0  0  0
 26 64  1  0  0  0  0
 27 29  1  0  0  0  0
 27 32  1  0  0  0  0
 27 65  1  0  0  0  0
 28 31  1  0  0  0  0
 28 66  1  0  0  0  0
 29 67  1  0  0  0  0
 30 68  1  0  0  0  0
 30 69  1  0  0  0  0
 30 70  1  0  0  0  0
 31 71  1  0  0  0  0
 31 72  1  0  0  0  0
 32 34  1  0  0  0  0
 32 35  1  0  0  0  0
 33 73  1  0  0  0  0
 33 74  1  0  0  0  0
 34 36  1  0  0  0  0
 34 76  1  1  0  0  0
 35 78  1  0  0  0  0
 35 79  1  0  0  0  0
 35 80  1  0  0  0  0
 36 39  1  0  0  0  0
 36 81  1  0  0  0  0
 36 82  1  0  0  0  0
 37 38  1  0  0  0  0
 37 83  1  0  0  0  0
 37 84  1  0  0  0  0
 38 39  1  0  0  0  0
 38 43  1  6  0  0  0
 38 87  1  0  0  0  0
 39 88  1  0  0  0  0
 39 89  1  0  0  0  0
 40 45  1  0  0  0  0
 41 44  1  0  0  0  0
 42 46  1  0  0  0  0
 43 90  1  0  0  0  0
 43 91  1  0  0  0  0
 43 92  1  0  0  0  0
 44 47  1  0  0  0  0
 44 48  1  0  0  0  0
 45 93  1  0  0  0  0
 45 94  1  0  0  0  0
 45 95  1  0  0  0  0
 46 49  1  0  0  0  0
 46 50  1  0  0  0  0
 46 96  1  0  0  0  0
 47 51  1  0  0  0  0
 47 97  1  0  0  0  0
 47 98  1  0  0  0  0
 48 99  1  0  0  0  0
 48100  1  0  0  0  0
 48101  1  0  0  0  0
 49 52  1  0  0  0  0
 49102  1  0  0  0  0
 49103  1  0  0  0  0
 50104  1  0  0  0  0
 50105  1  0  0  0  0
 50106  1  0  0  0  0
 51108  1  0  0  0  0
 51109  1  0  0  0  0
 51110  1  0  0  0  0
 52111  1  0  0  0  0
 52112  1  0  0  0  0
 52113  1  0  0  0  0
M  END
> <PUBCHEM_COMPOUND_CID>
11217

> <PUBCHEM_COMPOUND_CANONICALIZED>
1

> <PUBCHEM_CACTVS_COMPLEXITY>
1480

> <PUBCHEM_CACTVS_HBOND_ACCEPTOR>
13

> <PUBCHEM_CACTVS_HBOND_DONOR>
5

> <PUBCHEM_CACTVS_ROTATABLE_BOND>
10

> <PUBCHEM_CACTVS_SUBSKEYS>
AAADcfB+PAAAAAAAAAAAAAAAAAAAAaIAAAA8eMECBIkAAGCwAAAAHgAACAAAD3zhgAYCCAMABgAIAACQCAIAAAAAAAAAAAFIAAATEBIAgAAGQAAFAACXAAHw8P8PgAAAAAAAAADAAAYQADCAAYQADAAAAA==

> <PUBCHEM_IUPAC_INCHI>
InChI=1S/C39H61NO12/c1-9-20(4)32(43)50-27-13-14-34(6)25-15-24(49-21(5)41)30-37(34,52-39(25,27)48)16-23-22-18-40-17-19(3)11-12-26(40)36(8,46)28(22)29(42)31(38(23,30)47)51-33(44)35(7,45)10-2/h19-20,22-31,42,45-48H,9-18H2,1-8H3/t19-,20?,22?,23?,24+,25?,26-,27-,28?,29+,30?,31-,34-,35?,36+,37+,38-,39-/m0/s1

> <PUBCHEM_IUPAC_INCHIKEY>
LJPLLMYELFESAN-FLUUMLQVSA-N

> <PUBCHEM_XLOGP3_AA>
2.5

> <PUBCHEM_EXACT_MASS>
735.419376

> <PUBCHEM_MOLECULAR_FORMULA>
C39H61NO12

> <PUBCHEM_MOLECULAR_WEIGHT>
735.90114

> <PUBCHEM_OPENEYE_CAN_SMILES>
CCC(C)C(=O)OC1CCC2(C3C1(OC24CC5C6CN7CC(CCC7C(C6C(C(C5(C4C(C3)OC(=O)C)O)OC(=O)C(C)(CC)O)O)(C)O)C)O)C

> <PUBCHEM_OPENEYE_ISO_SMILES>
CCC(C)C(=O)O[C@H]1CC[C@]2(C3[C@@]1(O[C@@]24CC5C6CN7C[C@H](CC[C@H]7[C@@](C6[C@H]([C@@H]([C@]5(C4[C@@H](C3)OC(=O)C)O)OC(=O)C(C)(CC)O)O)(C)O)C)O)C

> <PUBCHEM_CACTVS_TPSA>
193

> <PUBCHEM_MONOISOTOPIC_WEIGHT>
735.419376

> <PUBCHEM_TOTAL_CHARGE>
0

> <PUBCHEM_HEAVY_ATOM_COUNT>
52

> <PUBCHEM_ATOM_DEF_STEREO_COUNT>
11

> <PUBCHEM_ATOM_UDEF_STEREO_COUNT>
7

> <PUBCHEM_BOND_DEF_STEREO_COUNT>
0

> <PUBCHEM_BOND_UDEF_STEREO_COUNT>
0

> <PUBCHEM_ISOTOPIC_ATOM_COUNT>
0

> <PUBCHEM_COMPONENT_COUNT>
1

> <PUBCHEM_CACTVS_TAUTO_COUNT>
1

> <PUBCHEM_COORDINATE_TYPE>
1
5
255

> <PUBCHEM_BONDANNOTATIONS>
44  12  3
14  20  5
15  30  6
16  53  3
18  54  3
19  55  3
17  2  5
23  59  3
27  65  3
21  3  6
34  76  5
38  43  6
22  4  5
46  96  3
26  5  5
28  6  6
29  7  6
32  8  6

$$$$

