   Color/Form

     * Light tan or light yellow powdered solid
     * White solid

   from [1]HSDB

   Odor
        Characteristic of halides and ketones
   from [2]HSDB

   Melting Point
        100-101 deg C
   from [3]HSDB

   Density/Specific Gravity
        0.543 g/ml tapped bulk density
   from [4]HSDB

   Octanol/Water Partition Coefficient
        log Kow = 4.83
   from [5]HSDB

   pH
        pH = 7.16; 1% aqueous slurry at 24 deg C
   from [6]HSDB

   Solubilities

     * Soluble in acetone, diethyl ether, DMSO, THF, acetonitrile,
       alcohols. Insoluble in water
     * Solubities at 25 deg C.

       Solvent

   Solubility

   Hexane 0.89 g/100 ml
   Methanol 7.09 g/100 ml
   Acetonitrile 68.4 g/100 ml
   Toluene 75.4 g/100 ml
   Dichloromethane 141 g/100 ml

     Solubities in water at 25 deg C.

   Solvent Solubility
   Deionized water 0.12 mg/ml
   Water, pH 4 0.13 mg/L
   Water, pH 7 0.14 mg/L
   Water, pH 10 0.12 mg/L

   from [7]HSDB

   Vapor Pressure
        7.36X10-8 mm Hg at 25 deg C (est)
   from [8]HSDB

   Other Chemical/Physical Properties

     * MP: 91-92 deg C
     * Henry's Law constant = 5.73X10-9 atm-cu m/mol at 25 deg C (est)
     * Hydroxyl radical reaction rate constant = 1.35X10-11 cu
       cm/molec-sec at 25 deg C (est)

   from [9]HSDB

   Computed Properties
   Molecular Weight                  407.61285 [g/mol]
   Molecular Formula                 C[15]H[11]BrClF[3]N[2]O
   XLogP3-AA                         4.5
   H-Bond Donor                      0
   H-Bond Acceptor                   5
   Rotatable Bond Count              4
   Exact Mass                        405.969537
   MonoIsotopic Mass                 405.969537
   Topological Polar Surface Area    38
   Heavy Atom Count                  23
   Formal Charge                     0
   Complexity                        448
   Isotope Atom Count                0
   Defined Atom Stereocenter Count   0
   Undefined Atom Stereocenter Count 0
   Defined Bond Stereocenter Count   0
   Undefined Bond Stereocenter Count 0
   Covalently-Bonded Unit Count      1
   Feature 3D Acceptor Count         2
   Feature 3D Cation Count           1
   Feature 3D Hydrophobe Count       1
   Feature 3D Ring Count             2
   Effective Rotor Count             5
   Conformer Sampling RMSD           0.8
   CID Conformer Count               [10]4

References

   1. http://toxnet.nlm.nih.gov/cgi-bin/sis/search/r?dbs+hsdb:@term+@rn+@rel+122453-73-0
   2. http://toxnet.nlm.nih.gov/cgi-bin/sis/search/r?dbs+hsdb:@term+@rn+@rel+122453-73-0
   3. http://toxnet.nlm.nih.gov/cgi-bin/sis/search/r?dbs+hsdb:@term+@rn+@rel+122453-73-0
   4. http://toxnet.nlm.nih.gov/cgi-bin/sis/search/r?dbs+hsdb:@term+@rn+@rel+122453-73-0
   5. http://toxnet.nlm.nih.gov/cgi-bin/sis/search/r?dbs+hsdb:@term+@rn+@rel+122453-73-0
   6. http://toxnet.nlm.nih.gov/cgi-bin/sis/search/r?dbs+hsdb:@term+@rn+@rel+122453-73-0
   7. http://toxnet.nlm.nih.gov/cgi-bin/sis/search/r?dbs+hsdb:@term+@rn+@rel+122453-73-0
   8. http://toxnet.nlm.nih.gov/cgi-bin/sis/search/r?dbs+hsdb:@term+@rn+@rel+122453-73-0
   9. http://toxnet.nlm.nih.gov/cgi-bin/sis/search/r?dbs+hsdb:@term+@rn+@rel+122453-73-0
  10. http://pubchem.ncbi.nlm.nih.gov/vw3d/vw3d.cgi?cid=91778
