9148
  -OEChem-06261203272D

 24 27  0     0  0  0  0  0  0999 V2000
    3.3784   -1.2690    0.0000 N   0  0  0  0  0  0  0  0  0  0  0  0
    4.5763   -0.1941    0.0000 C   0  0  0  0  0  0  0  0  0  0  0  0
    3.7102    0.3059    0.0000 C   0  0  0  0  0  0  0  0  0  0  0  0
    2.9732   -0.3612    0.0000 C   0  0  0  0  0  0  0  0  0  0  0  0
    4.3671   -1.1659    0.0000 C   0  0  0  0  0  0  0  0  0  0  0  0
    3.7102    1.3059    0.0000 C   0  0  0  0  0  0  0  0  0  0  0  0
    5.4423    0.3059    0.0000 C   0  0  0  0  0  0  0  0  0  0  0  0
    4.5763    1.8059    0.0000 C   0  0  0  0  0  0  0  0  0  0  0  0
    5.4423    1.3059    0.0000 C   0  0  0  0  0  0  0  0  0  0  0  0
    2.0900    0.0816    0.0000 C   0  0  0  0  0  0  0  0  0  0  0  0
    5.1922   -1.7094    0.0000 C   0  0  0  0  0  0  0  0  0  0  0  0
    2.7883    1.6612    0.0000 C   0  0  0  0  0  0  0  0  0  0  0  0
    6.2110   -0.3149    0.0000 C   0  0  0  0  0  0  0  0  0  0  0  0
    6.0893   -1.2954    0.0000 C   0  0  0  0  0  0  0  0  0  0  0  0
    2.0000    1.0655    0.0000 C   0  0  0  0  0  0  0  0  0  0  0  0
    3.0684   -1.8059    0.0000 H   0  0  0  0  0  0  0  0  0  0  0  0
    4.5763    2.4259    0.0000 H   0  0  0  0  0  0  0  0  0  0  0  0
    5.9792    1.6159    0.0000 H   0  0  0  0  0  0  0  0  0  0  0  0
    1.5778   -0.2678    0.0000 H   0  0  0  0  0  0  0  0  0  0  0  0
    5.1457   -2.3277    0.0000 H   0  0  0  0  0  0  0  0  0  0  0  0
    2.7020    2.2752    0.0000 H   0  0  0  0  0  0  0  0  0  0  0  0
    6.7858   -0.0826    0.0000 H   0  0  0  0  0  0  0  0  0  0  0  0
    1.4329    1.3162    0.0000 H   0  0  0  0  0  0  0  0  0  0  0  0
    6.5899   -1.6611    0.0000 H   0  0  0  0  0  0  0  0  0  0  0  0
  1  4  1  0  0  0  0
  1  5  1  0  0  0  0
  1 16  1  0  0  0  0
  2  3  1  0  0  0  0
  2  5  1  0  0  0  0
  2  7  2  0  0  0  0
  3  4  1  0  0  0  0
  3  6  2  0  0  0  0
  4 10  2  0  0  0  0
  5 11  2  0  0  0  0
  6  8  1  0  0  0  0
  6 12  1  0  0  0  0
  7  9  1  0  0  0  0
  7 13  1  0  0  0  0
  8  9  2  0  0  0  0
  8 17  1  0  0  0  0
  9 18  1  0  0  0  0
 10 15  1  0  0  0  0
 10 19  1  0  0  0  0
 11 14  1  0  0  0  0
 11 20  1  0  0  0  0
 12 15  2  0  0  0  0
 12 21  1  0  0  0  0
 13 14  2  0  0  0  0
 13 22  1  0  0  0  0
 14 24  1  0  0  0  0
 15 23  1  0  0  0  0
M  END
> <PUBCHEM_COMPOUND_CID>
9148

> <PUBCHEM_COMPOUND_CANONICALIZED>
1

> <PUBCHEM_CACTVS_COMPLEXITY>
236

> <PUBCHEM_CACTVS_HBOND_ACCEPTOR>
0

> <PUBCHEM_CACTVS_HBOND_DONOR>
1

> <PUBCHEM_CACTVS_ROTATABLE_BOND>
0

> <PUBCHEM_CACTVS_SUBSKEYS>
AAADccByAAAAAAAAAAAAAAAAAAAAAWAAAAAwYMAAAAAAAFjB/AAAHAAQAAAADAiBHgAwwPLJkACgAyRiRACCgCAhAiAImSAwZJgIIOLAkZGEIAhgkADIyAcQgMAOwAACQAASAACAAASAACQAAAAAAAAAAA==

> <PUBCHEM_IUPAC_INCHI>
InChI=1S/C14H9N/c1-3-9-7-8-10-4-2-6-12-14(10)13(9)11(5-1)15-12/h1-8,15H

> <PUBCHEM_IUPAC_INCHIKEY>
VQOUCGZKKPJLGH-UHFFFAOYSA-N

> <PUBCHEM_XLOGP3_AA>
4

> <PUBCHEM_EXACT_MASS>
191.073499

> <PUBCHEM_MOLECULAR_FORMULA>
C14H9N

> <PUBCHEM_MOLECULAR_WEIGHT>
191.22796

> <PUBCHEM_OPENEYE_CAN_SMILES>
C1=CC2=C3C(=C1)NC4=CC=CC(=C43)C=C2

> <PUBCHEM_OPENEYE_ISO_SMILES>
C1=CC2=C3C(=C1)NC4=CC=CC(=C43)C=C2

> <PUBCHEM_CACTVS_TPSA>
15.8

> <PUBCHEM_MONOISOTOPIC_WEIGHT>
191.073499

> <PUBCHEM_TOTAL_CHARGE>
0

> <PUBCHEM_HEAVY_ATOM_COUNT>
15

> <PUBCHEM_ATOM_DEF_STEREO_COUNT>
0

> <PUBCHEM_ATOM_UDEF_STEREO_COUNT>
0

> <PUBCHEM_BOND_DEF_STEREO_COUNT>
0

> <PUBCHEM_BOND_UDEF_STEREO_COUNT>
0

> <PUBCHEM_ISOTOPIC_ATOM_COUNT>
0

> <PUBCHEM_COMPONENT_COUNT>
1

> <PUBCHEM_CACTVS_TAUTO_COUNT>
1

> <PUBCHEM_COORDINATE_TYPE>
1
5
255

> <PUBCHEM_BONDANNOTATIONS>
1  4  8
1  5  8
10  15  8
11  14  8
12  15  8
13  14  8
2  3  8
2  5  8
2  7  8
3  4  8
3  6  8
4  10  8
5  11  8
6  12  8
6  8  8
7  13  8
7  9  8
8  9  8

$$$$

