   Color/Form

     * Slightly waxy solid
     * Colorless crystals

   from [1]HSDB

   Melting Point
        136 deg C
   from [2]HSDB

   Corrosivity
        Noncorrosive
   from [3]HSDB

   Dissociation Constants
        pKa = 9
   from [4]HSDB

   Solubilities

     * Sol in alcohol, hot water; slightly sol in other solvents.
     * Insol in most org solvents. Readily sol in mineral acids.
     * IN LOW MOL WT ALCOHOLS RANGES FROM ABOUT 7% TO 23% @ ROOM TEMP; SOL
       IN ACIDS; 0.063% BY WT IN WATER @ 25 DEG C.
     * In distilled water 0.07%. Soluble in methanol, ethanol. Practically
       insoluble in most organic solvents.
     * In water, 630 mg/l @ 25 deg C

   from [5]HSDB

   Vapor Pressure
        1.5X10-7 mm Hg @ 25 deg C
   from [6]HSDB

   Other Chemical/Physical Properties

     * FREE BASE, REG NUMBER (112-25-2), IS LIBERATED BY CONCENTRATED
       ALKALI.
     * CMPD IS SURFACE-ACTIVE; SALT OF STRONG BASE & WEAK ACID.

   from [7]HSDB

   Computed Properties
   Molecular Weight                  287.44142 [g/mol]
   Molecular Formula                 C[15]H[33]N[3]O[2]
   H-Bond Donor                      3
   H-Bond Acceptor                   3
   Rotatable Bond Count              11
   Tautomer Count                    2
   Exact Mass                        287.257277
   MonoIsotopic Mass                 287.257277
   Topological Polar Surface Area    102
   Heavy Atom Count                  20
   Formal Charge                     0
   Complexity                        194
   Isotope Atom Count                0
   Defined Atom Stereocenter Count   0
   Undefined Atom Stereocenter Count 0
   Defined Bond Stereocenter Count   0
   Undefined Bond Stereocenter Count 0
   Covalently-Bonded Unit Count      2

References

   1. http://toxnet.nlm.nih.gov/cgi-bin/sis/search/r?dbs+hsdb:@term+@rn+@rel+2439-10-3
   2. http://toxnet.nlm.nih.gov/cgi-bin/sis/search/r?dbs+hsdb:@term+@rn+@rel+2439-10-3
   3. http://toxnet.nlm.nih.gov/cgi-bin/sis/search/r?dbs+hsdb:@term+@rn+@rel+2439-10-3
   4. http://toxnet.nlm.nih.gov/cgi-bin/sis/search/r?dbs+hsdb:@term+@rn+@rel+2439-10-3
   5. http://toxnet.nlm.nih.gov/cgi-bin/sis/search/r?dbs+hsdb:@term+@rn+@rel+2439-10-3
   6. http://toxnet.nlm.nih.gov/cgi-bin/sis/search/r?dbs+hsdb:@term+@rn+@rel+2439-10-3
   7. http://toxnet.nlm.nih.gov/cgi-bin/sis/search/r?dbs+hsdb:@term+@rn+@rel+2439-10-3
