   Color/Form

     * Deliquescent hexagonal crystals
     * TRIGONAL MONOCLINIC CRYSTALS

   from [1]HSDB

   Odor
        Odorless when pure, but frequently has a mousy odor
   from [2]HSDB

   Taste
        Bitter
   from [3]HSDB

   Boiling Point
        222 deg C @ 760 mm Hg
   from [4]HSDB

   Melting Point
        81 deg C
   from [5]HSDB

   Density/Specific Gravity
        1.159 @ 20 deg C/4 deg C
   from [6]HSDB

   Dissociation Constants
        Kb @ 25 deg C: 3.1X10-15
   from [7]HSDB

   Heat of Combustion
        Liquid: -1198.7 kJ/mole; Solid: -1184.6 kJ/mole
   from [8]HSDB

   Heat of Vaporization
        56.1 kJ/mole
   from [9]HSDB

   Octanol/Water Partition Coefficient
        log Kow = -1.26
   from [10]HSDB

   Solubilities

     * 1 g dissolves in 0.5 ml water, 2 ml alcohol, 6 ml pyridine; sol in
       chloroform, glycerol, hot benzene.
     * Slightly soluble in ether
     * In water, 2.25X10+6 mg/l @ 25 deg C.

   from [11]HSDB

   Spectral Properties

     * Index of refraction: 1.4274 @ 78 deg C/D
     * MAX ABSORPTION: 205 NM (LOG E= 2.21); SADTLER REF NUMBER: 69,
       13207, 2217 (IR, PRISM)
     * IR: 2552 (Coblentz Society Spectral Collection)
     * UV: 6-4 (Organic Electronic Spectral Data, Phillips et al, John
       Wiley & Sons, New York)
     * NMR: 4280 (Sadtler Research Laboratories Spectral Collection)
     * MS: NIST (NIST/EPA/MCDC Mass Spectral Database 1990 version) 61820;
       ALDN (Aldermaston Eight Peak Index of Mass Spectra, UK) 36

   from [12]HSDB

   Surface Tension
        38.96 dyne/cm (85 deg C); 37.95 dyne/cm (95 deg C); 36.96 dyne/cm
   (105 deg C)
   from [13]HSDB

   Vapor Pressure
        4.00X10-2 mm Hg @ 25 deg C
   from [14]HSDB

   Viscosity
        2.182 centipose (91.1 deg C); 1.461 centipose (111.8 deg C); 1.056
   centipose (131.7 deg C)
   from [15]HSDB

   Computed Properties
   Molecular Weight                  59.0672 [g/mol]
   Molecular Formula                 C[2]H[5]NO
   XLogP3-AA                         -0.9
   H-Bond Donor                      1
   H-Bond Acceptor                   1
   Rotatable Bond Count              0
   Tautomer Count                    3
   Exact Mass                        59.037114
   MonoIsotopic Mass                 59.037114
   Topological Polar Surface Area    43.1
   Heavy Atom Count                  4
   Formal Charge                     0
   Complexity                        33
   Isotope Atom Count                0
   Defined Atom Stereocenter Count   0
   Undefined Atom Stereocenter Count 0
   Defined Bond Stereocenter Count   0
   Undefined Bond Stereocenter Count 0
   Covalently-Bonded Unit Count      1
   Feature 3D Acceptor Count         1
   Feature 3D Donor Count            1
   Effective Rotor Count             0
   Conformer Sampling RMSD           0.4
   CID Conformer Count               [16]1

References

   1. http://toxnet.nlm.nih.gov/cgi-bin/sis/search/r?dbs+hsdb:@term+@rn+@rel+60-35-5
   2. http://toxnet.nlm.nih.gov/cgi-bin/sis/search/r?dbs+hsdb:@term+@rn+@rel+60-35-5
   3. http://toxnet.nlm.nih.gov/cgi-bin/sis/search/r?dbs+hsdb:@term+@rn+@rel+60-35-5
   4. http://toxnet.nlm.nih.gov/cgi-bin/sis/search/r?dbs+hsdb:@term+@rn+@rel+60-35-5
   5. http://toxnet.nlm.nih.gov/cgi-bin/sis/search/r?dbs+hsdb:@term+@rn+@rel+60-35-5
   6. http://toxnet.nlm.nih.gov/cgi-bin/sis/search/r?dbs+hsdb:@term+@rn+@rel+60-35-5
   7. http://toxnet.nlm.nih.gov/cgi-bin/sis/search/r?dbs+hsdb:@term+@rn+@rel+60-35-5
   8. http://toxnet.nlm.nih.gov/cgi-bin/sis/search/r?dbs+hsdb:@term+@rn+@rel+60-35-5
   9. http://toxnet.nlm.nih.gov/cgi-bin/sis/search/r?dbs+hsdb:@term+@rn+@rel+60-35-5
  10. http://toxnet.nlm.nih.gov/cgi-bin/sis/search/r?dbs+hsdb:@term+@rn+@rel+60-35-5
  11. http://toxnet.nlm.nih.gov/cgi-bin/sis/search/r?dbs+hsdb:@term+@rn+@rel+60-35-5
  12. http://toxnet.nlm.nih.gov/cgi-bin/sis/search/r?dbs+hsdb:@term+@rn+@rel+60-35-5
  13. http://toxnet.nlm.nih.gov/cgi-bin/sis/search/r?dbs+hsdb:@term+@rn+@rel+60-35-5
  14. http://toxnet.nlm.nih.gov/cgi-bin/sis/search/r?dbs+hsdb:@term+@rn+@rel+60-35-5
  15. http://toxnet.nlm.nih.gov/cgi-bin/sis/search/r?dbs+hsdb:@term+@rn+@rel+60-35-5
  16. http://pubchem.ncbi.nlm.nih.gov/vw3d/vw3d.cgi?cid=178
