5324346
  -OEChem-07051212532D

 43 43  0     0  0  0  0  0  0999 V2000
    5.1350    4.7500    0.0000 F   0  0  0  0  0  0  0  0  0  0  0  0
    6.1350    3.7500    0.0000 F   0  0  0  0  0  0  0  0  0  0  0  0
    4.1350    3.7500    0.0000 F   0  0  0  0  0  0  0  0  0  0  0  0
    7.7331   -3.7500    0.0000 O   0  0  0  0  0  0  0  0  0  0  0  0
    4.2690   -1.7500    0.0000 O   0  0  0  0  0  0  0  0  0  0  0  0
    4.2690   -0.7500    0.0000 N   0  0  0  0  0  0  0  0  0  0  0  0
    2.5369   -3.7500    0.0000 N   0  0  0  0  0  0  0  0  0  0  0  0
    6.0010   -1.7500    0.0000 C   0  0  0  0  0  0  0  0  0  0  0  0
    6.0010   -0.7500    0.0000 C   0  0  0  0  0  0  0  0  0  0  0  0
    6.8671   -2.2500    0.0000 C   0  0  0  0  0  0  0  0  0  0  0  0
    5.1350   -0.2500    0.0000 C   0  0  0  0  0  0  0  0  0  0  0  0
    5.1350    0.7500    0.0000 C   0  0  0  0  0  0  0  0  0  0  0  0
    6.8671   -3.2500    0.0000 C   0  0  0  0  0  0  0  0  0  0  0  0
    6.0010    1.2500    0.0000 C   0  0  0  0  0  0  0  0  0  0  0  0
    4.2690    1.2500    0.0000 C   0  0  0  0  0  0  0  0  0  0  0  0
    5.1350    2.7500    0.0000 C   0  0  0  0  0  0  0  0  0  0  0  0
    6.0010    2.2500    0.0000 C   0  0  0  0  0  0  0  0  0  0  0  0
    4.2690    2.2500    0.0000 C   0  0  0  0  0  0  0  0  0  0  0  0
    5.1350    3.7500    0.0000 C   0  0  0  0  0  0  0  0  0  0  0  0
    3.4030   -2.2500    0.0000 C   0  0  0  0  0  0  0  0  0  0  0  0
    7.7331   -4.7500    0.0000 C   0  0  0  0  0  0  0  0  0  0  0  0
    3.4030   -3.2500    0.0000 C   0  0  0  0  0  0  0  0  0  0  0  0
    5.3905   -1.6423    0.0000 H   0  0  0  0  0  0  0  0  0  0  0  0
    5.7890   -2.3326    0.0000 H   0  0  0  0  0  0  0  0  0  0  0  0
    6.6116   -0.8577    0.0000 H   0  0  0  0  0  0  0  0  0  0  0  0
    6.2131   -0.1674    0.0000 H   0  0  0  0  0  0  0  0  0  0  0  0
    7.4776   -2.3577    0.0000 H   0  0  0  0  0  0  0  0  0  0  0  0
    7.0791   -1.6674    0.0000 H   0  0  0  0  0  0  0  0  0  0  0  0
    6.2565   -3.1423    0.0000 H   0  0  0  0  0  0  0  0  0  0  0  0
    6.6550   -3.8326    0.0000 H   0  0  0  0  0  0  0  0  0  0  0  0
    6.5380    0.9400    0.0000 H   0  0  0  0  0  0  0  0  0  0  0  0
    3.7320    0.9400    0.0000 H   0  0  0  0  0  0  0  0  0  0  0  0
    6.5380    2.5600    0.0000 H   0  0  0  0  0  0  0  0  0  0  0  0
    3.7320    2.5600    0.0000 H   0  0  0  0  0  0  0  0  0  0  0  0
    3.1909   -1.6674    0.0000 H   0  0  0  0  0  0  0  0  0  0  0  0
    2.7924   -2.3577    0.0000 H   0  0  0  0  0  0  0  0  0  0  0  0
    7.1131   -4.7500    0.0000 H   0  0  0  0  0  0  0  0  0  0  0  0
    7.7331   -5.3700    0.0000 H   0  0  0  0  0  0  0  0  0  0  0  0
    8.3531   -4.7500    0.0000 H   0  0  0  0  0  0  0  0  0  0  0  0
    3.6150   -3.8326    0.0000 H   0  0  0  0  0  0  0  0  0  0  0  0
    4.0135   -3.1423    0.0000 H   0  0  0  0  0  0  0  0  0  0  0  0
    2.5369   -4.3700    0.0000 H   0  0  0  0  0  0  0  0  0  0  0  0
    2.0000   -3.4400    0.0000 H   0  0  0  0  0  0  0  0  0  0  0  0
  1 19  1  0  0  0  0
  2 19  1  0  0  0  0
  3 19  1  0  0  0  0
  4 13  1  0  0  0  0
  4 21  1  0  0  0  0
  5  6  1  0  0  0  0
  5 20  1  0  0  0  0
  6 11  2  0  0  0  0
  7 22  1  0  0  0  0
  7 42  1  0  0  0  0
  7 43  1  0  0  0  0
  8  9  1  0  0  0  0
  8 10  1  0  0  0  0
  8 23  1  0  0  0  0
  8 24  1  0  0  0  0
  9 11  1  0  0  0  0
  9 25  1  0  0  0  0
  9 26  1  0  0  0  0
 10 13  1  0  0  0  0
 10 27  1  0  0  0  0
 10 28  1  0  0  0  0
 11 12  1  0  0  0  0
 12 14  2  0  0  0  0
 12 15  1  0  0  0  0
 13 29  1  0  0  0  0
 13 30  1  0  0  0  0
 14 17  1  0  0  0  0
 14 31  1  0  0  0  0
 15 18  2  0  0  0  0
 15 32  1  0  0  0  0
 16 17  2  0  0  0  0
 16 18  1  0  0  0  0
 16 19  1  0  0  0  0
 17 33  1  0  0  0  0
 18 34  1  0  0  0  0
 20 22  1  0  0  0  0
 20 35  1  0  0  0  0
 20 36  1  0  0  0  0
 21 37  1  0  0  0  0
 21 38  1  0  0  0  0
 21 39  1  0  0  0  0
 22 40  1  0  0  0  0
 22 41  1  0  0  0  0
M  END
> <PUBCHEM_COMPOUND_CID>
5324346

> <PUBCHEM_COMPOUND_CANONICALIZED>
1

> <PUBCHEM_CACTVS_COMPLEXITY>
327

> <PUBCHEM_CACTVS_HBOND_ACCEPTOR>
7

> <PUBCHEM_CACTVS_HBOND_DONOR>
1

> <PUBCHEM_CACTVS_ROTATABLE_BOND>
9

> <PUBCHEM_CACTVS_SUBSKEYS>
AAADceBzMYAAAAAAAAAAAAAAAAAAAAAAAAAwAAAAAAAAAAABAAAAHwAUAAAADAjhmBYyAIBQBACgAyBiAAACAAAgAAAIiIAwAJgKIKKAERCAIAAkkAAIiAeAwOAOQAAAAAAAAACAAAAAAAAAAAAAAAAAAA==

> <PUBCHEM_IUPAC_OPENEYE_NAME>
2-[(E)-[5-methoxy-1-[4-(trifluoromethyl)phenyl]pentylidene]amino]oxyethanamine

> <PUBCHEM_IUPAC_CAS_NAME>
2-[(E)-[5-methoxy-1-[4-(trifluoromethyl)phenyl]pentylidene]amino]oxyethanamine

> <PUBCHEM_IUPAC_NAME>
2-[(E)-[5-methoxy-1-[4-(trifluoromethyl)phenyl]pentylidene]amino]oxyethanamine

> <PUBCHEM_IUPAC_SYSTEMATIC_NAME>
2-[(E)-[5-methoxy-1-[4-(trifluoromethyl)phenyl]pentylidene]amino]oxyethanamine

> <PUBCHEM_IUPAC_TRADITIONAL_NAME>
2-[(E)-[5-methoxy-1-[4-(trifluoromethyl)phenyl]pentylidene]amino]oxyethylamine

> <PUBCHEM_IUPAC_INCHI>
InChI=1S/C15H21F3N2O2/c1-21-10-3-2-4-14(20-22-11-9-19)12-5-7-13(8-6-12)15(16,17)18/h5-8H,2-4,9-11,19H2,1H3/b20-14+

> <PUBCHEM_IUPAC_INCHIKEY>
CJOFXWAVKWHTFT-XSFVSMFZSA-N

> <PUBCHEM_XLOGP3_AA>
2.6

> <PUBCHEM_EXACT_MASS>
318.155513

> <PUBCHEM_MOLECULAR_FORMULA>
C15H21F3N2O2

> <PUBCHEM_MOLECULAR_WEIGHT>
318.33465

> <PUBCHEM_OPENEYE_CAN_SMILES>
COCCCCC(=NOCCN)C1=CC=C(C=C1)C(F)(F)F

> <PUBCHEM_OPENEYE_ISO_SMILES>
COCCCC/C(=N\OCCN)/C1=CC=C(C=C1)C(F)(F)F

> <PUBCHEM_CACTVS_TPSA>
56.8

> <PUBCHEM_MONOISOTOPIC_WEIGHT>
318.155513

> <PUBCHEM_TOTAL_CHARGE>
0

> <PUBCHEM_HEAVY_ATOM_COUNT>
22

> <PUBCHEM_ATOM_DEF_STEREO_COUNT>
0

> <PUBCHEM_ATOM_UDEF_STEREO_COUNT>
0

> <PUBCHEM_BOND_DEF_STEREO_COUNT>
1

> <PUBCHEM_BOND_UDEF_STEREO_COUNT>
0

> <PUBCHEM_ISOTOPIC_ATOM_COUNT>
0

> <PUBCHEM_COMPONENT_COUNT>
1

> <PUBCHEM_CACTVS_TAUTO_COUNT>
2

> <PUBCHEM_COORDINATE_TYPE>
1
5
255

> <PUBCHEM_BONDANNOTATIONS>
12  14  8
12  15  8
14  17  8
15  18  8
16  17  8
16  18  8

$$$$

