   Color/Form

     * CRYSTALS FROM ETHER & PENTANE
     * WHITE TO LIGHT AMBER, FINE CRYSTALLINE POWDER

   from [1]HSDB

   Odor
        CHARACTERISTIC ODOR
   from [2]HSDB

   Melting Point
        50-51 DEG C
   from [3]HSDB

   Solubilities
        SOL IN METHANOL & CHLOROFORM
   from [4]HSDB

   Other Chemical/Physical Properties
        FORMS WATER-SOLUBLE SALTS WITH ACIDS
   from [5]HSDB

   Computed Properties
   Molecular Weight                  226.27376 [g/mol]
   Molecular Formula                 C[14]H[14]N[2]O
   XLogP3-AA                         2
   H-Bond Donor                      0
   H-Bond Acceptor                   3
   Rotatable Bond Count              3
   Exact Mass                        226.110613
   MonoIsotopic Mass                 226.110613
   Topological Polar Surface Area    42.8
   Heavy Atom Count                  17
   Formal Charge                     0
   Complexity                        275
   Isotope Atom Count                0
   Defined Atom Stereocenter Count   0
   Undefined Atom Stereocenter Count 0
   Defined Bond Stereocenter Count   0
   Undefined Bond Stereocenter Count 0
   Covalently-Bonded Unit Count      1
   Feature 3D Acceptor Count         3
   Feature 3D Hydrophobe Count       1
   Feature 3D Ring Count             2
   Effective Rotor Count             3
   Conformer Sampling RMSD           0.6
   CID Conformer Count               [6]60

References

   1. http://toxnet.nlm.nih.gov/cgi-bin/sis/search/r?dbs+hsdb:@term+@rn+@rel+54-36-4
   2. http://toxnet.nlm.nih.gov/cgi-bin/sis/search/r?dbs+hsdb:@term+@rn+@rel+54-36-4
   3. http://toxnet.nlm.nih.gov/cgi-bin/sis/search/r?dbs+hsdb:@term+@rn+@rel+54-36-4
   4. http://toxnet.nlm.nih.gov/cgi-bin/sis/search/r?dbs+hsdb:@term+@rn+@rel+54-36-4
   5. http://toxnet.nlm.nih.gov/cgi-bin/sis/search/r?dbs+hsdb:@term+@rn+@rel+54-36-4
   6. http://pubchem.ncbi.nlm.nih.gov/vw3d/vw3d.cgi?cid=4174
