12804
  -OEChem-06261207232D

 18 19  0     0  0  0  0  0  0999 V2000
    2.8954    0.6307    0.0000 O   0  0  0  0  0  0  0  0  0  0  0  0
    4.5134    0.6307    0.0000 N   0  0  0  0  0  0  0  0  0  0  0  0
    4.2044    1.5817    0.0000 N   0  0  0  0  0  0  0  0  0  0  0  0
    3.7044   -2.9571    0.0000 N   0  0  0  0  0  0  0  0  0  0  0  0
    2.6166    2.3907    0.0000 N   0  0  0  0  0  0  0  0  0  0  0  0
    3.7044   -0.9571    0.0000 C   0  0  0  0  0  0  0  0  0  0  0  0
    3.7044    0.0429    0.0000 C   0  0  0  0  0  0  0  0  0  0  0  0
    4.5704   -1.4571    0.0000 C   0  0  0  0  0  0  0  0  0  0  0  0
    2.8384   -1.4571    0.0000 C   0  0  0  0  0  0  0  0  0  0  0  0
    3.2044    1.5817    0.0000 C   0  0  0  0  0  0  0  0  0  0  0  0
    4.5704   -2.4571    0.0000 C   0  0  0  0  0  0  0  0  0  0  0  0
    2.8384   -2.4571    0.0000 C   0  0  0  0  0  0  0  0  0  0  0  0
    5.1074   -1.1471    0.0000 H   0  0  0  0  0  0  0  0  0  0  0  0
    2.3014   -1.1471    0.0000 H   0  0  0  0  0  0  0  0  0  0  0  0
    5.1074   -2.7671    0.0000 H   0  0  0  0  0  0  0  0  0  0  0  0
    2.3014   -2.7671    0.0000 H   0  0  0  0  0  0  0  0  0  0  0  0
    2.8688    2.9571    0.0000 H   0  0  0  0  0  0  0  0  0  0  0  0
    2.0000    2.3259    0.0000 H   0  0  0  0  0  0  0  0  0  0  0  0
  1  7  1  0  0  0  0
  1 10  1  0  0  0  0
  2  3  1  0  0  0  0
  2  7  2  0  0  0  0
  3 10  2  0  0  0  0
  4 11  2  0  0  0  0
  4 12  1  0  0  0  0
  5 10  1  0  0  0  0
  5 17  1  0  0  0  0
  5 18  1  0  0  0  0
  6  7  1  0  0  0  0
  6  8  2  0  0  0  0
  6  9  1  0  0  0  0
  8 11  1  0  0  0  0
  8 13  1  0  0  0  0
  9 12  2  0  0  0  0
  9 14  1  0  0  0  0
 11 15  1  0  0  0  0
 12 16  1  0  0  0  0
M  END
> <PUBCHEM_COMPOUND_CID>
12804

> <PUBCHEM_COMPOUND_CANONICALIZED>
1

> <PUBCHEM_CACTVS_COMPLEXITY>
148

> <PUBCHEM_CACTVS_HBOND_ACCEPTOR>
5

> <PUBCHEM_CACTVS_HBOND_DONOR>
1

> <PUBCHEM_CACTVS_ROTATABLE_BOND>
1

> <PUBCHEM_CACTVS_SUBSKEYS>
AAADcYBjoAAAAAAAAAAAAAAAAAAAAWAAAAAsAAAAAAAAAAAB4AAAHgAYAAAADADBmgQ9kJJIFECqAjF3dACSgCI9AiAe2CE4bNkIJvLAtZmMMQh0yAHI6YY0AAAKAAAAAAAAAAAAAAAAAAAAAAAAAAAAAA==

> <PUBCHEM_IUPAC_OPENEYE_NAME>
5-(4-pyridyl)-1,3,4-oxadiazol-2-amine

> <PUBCHEM_IUPAC_CAS_NAME>
5-pyridin-4-yl-1,3,4-oxadiazol-2-amine

> <PUBCHEM_IUPAC_NAME>
5-pyridin-4-yl-1,3,4-oxadiazol-2-amine

> <PUBCHEM_IUPAC_SYSTEMATIC_NAME>
5-pyridin-4-yl-1,3,4-oxadiazol-2-amine

> <PUBCHEM_IUPAC_TRADITIONAL_NAME>
[5-(4-pyridyl)-1,3,4-oxadiazol-2-yl]amine

> <PUBCHEM_IUPAC_INCHI>
InChI=1S/C7H6N4O/c8-7-11-10-6(12-7)5-1-3-9-4-2-5/h1-4H,(H2,8,11)

> <PUBCHEM_IUPAC_INCHIKEY>
JQGJTYPZTLAQIC-UHFFFAOYSA-N

> <PUBCHEM_XLOGP3_AA>
0

> <PUBCHEM_EXACT_MASS>
162.054161

> <PUBCHEM_MOLECULAR_FORMULA>
C7H6N4O

> <PUBCHEM_MOLECULAR_WEIGHT>
162.14874

> <PUBCHEM_OPENEYE_CAN_SMILES>
C1=CN=CC=C1C2=NN=C(O2)N

> <PUBCHEM_OPENEYE_ISO_SMILES>
C1=CN=CC=C1C2=NN=C(O2)N

> <PUBCHEM_CACTVS_TPSA>
77.8

> <PUBCHEM_MONOISOTOPIC_WEIGHT>
162.054161

> <PUBCHEM_TOTAL_CHARGE>
0

> <PUBCHEM_HEAVY_ATOM_COUNT>
12

> <PUBCHEM_ATOM_DEF_STEREO_COUNT>
0

> <PUBCHEM_ATOM_UDEF_STEREO_COUNT>
0

> <PUBCHEM_BOND_DEF_STEREO_COUNT>
0

> <PUBCHEM_BOND_UDEF_STEREO_COUNT>
0

> <PUBCHEM_ISOTOPIC_ATOM_COUNT>
0

> <PUBCHEM_COMPONENT_COUNT>
1

> <PUBCHEM_CACTVS_TAUTO_COUNT>
3

> <PUBCHEM_COORDINATE_TYPE>
1
5
255

> <PUBCHEM_BONDANNOTATIONS>
1  10  8
1  7  8
2  3  8
2  7  8
3  10  8
4  11  8
4  12  8
6  8  8
6  9  8
8  11  8
9  12  8

$$$$

