17395279
  -OEChem-06241222492D

 34 37  0     0  0  0  0  0  0999 V2000
    7.0468   -3.1012    0.0000 Br  0  0  0  0  0  0  0  0  0  0  0  0
   10.5911   -1.2965    0.0000 O   0  0  0  0  0  0  0  0  0  0  0  0
   10.5911   -2.9059    0.0000 O   0  0  0  0  0  0  0  0  0  0  0  0
    7.0468   -0.1012    0.0000 O   0  0  0  0  0  0  0  0  0  0  0  0
    3.5827    1.8988    0.0000 N   0  0  0  0  0  0  0  0  0  0  0  0
    3.4782    2.8933    0.0000 N   0  0  0  0  0  0  0  0  0  0  0  0
    2.0000    2.2352    0.0000 N   0  0  0  0  0  0  0  0  0  0  0  0
    2.5000    3.1012    0.0000 N   0  0  0  0  0  0  0  0  0  0  0  0
    7.9128   -1.6012    0.0000 C   0  0  0  0  0  0  0  0  0  0  0  0
    9.6448   -1.6012    0.0000 C   0  0  0  0  0  0  0  0  0  0  0  0
    9.6448   -2.6012    0.0000 C   0  0  0  0  0  0  0  0  0  0  0  0
    7.0468   -1.1012    0.0000 C   0  0  0  0  0  0  0  0  0  0  0  0
    8.7788   -1.1012    0.0000 C   0  0  0  0  0  0  0  0  0  0  0  0
    7.9128   -2.6012    0.0000 C   0  0  0  0  0  0  0  0  0  0  0  0
    8.7788   -3.1012    0.0000 C   0  0  0  0  0  0  0  0  0  0  0  0
   11.1747   -2.1012    0.0000 C   0  0  0  0  0  0  0  0  0  0  0  0
    6.1808    0.3988    0.0000 C   0  0  0  0  0  0  0  0  0  0  0  0
    4.4487    1.3988    0.0000 C   0  0  0  0  0  0  0  0  0  0  0  0
    6.1808    1.3988    0.0000 C   0  0  0  0  0  0  0  0  0  0  0  0
    5.3147   -0.1012    0.0000 C   0  0  0  0  0  0  0  0  0  0  0  0
    5.3147    1.8988    0.0000 C   0  0  0  0  0  0  0  0  0  0  0  0
    4.4487    0.3988    0.0000 C   0  0  0  0  0  0  0  0  0  0  0  0
    2.6691    1.4921    0.0000 C   0  0  0  0  0  0  0  0  0  0  0  0
    6.4362   -0.9936    0.0000 H   0  0  0  0  0  0  0  0  0  0  0  0
    6.8347   -1.6838    0.0000 H   0  0  0  0  0  0  0  0  0  0  0  0
    8.7788   -0.4812    0.0000 H   0  0  0  0  0  0  0  0  0  0  0  0
    8.7788   -3.7212    0.0000 H   0  0  0  0  0  0  0  0  0  0  0  0
   11.6356   -2.5159    0.0000 H   0  0  0  0  0  0  0  0  0  0  0  0
   11.6356   -1.6865    0.0000 H   0  0  0  0  0  0  0  0  0  0  0  0
    6.7177    1.7088    0.0000 H   0  0  0  0  0  0  0  0  0  0  0  0
    5.3147   -0.7212    0.0000 H   0  0  0  0  0  0  0  0  0  0  0  0
    5.3147    2.5188    0.0000 H   0  0  0  0  0  0  0  0  0  0  0  0
    3.9118    0.0888    0.0000 H   0  0  0  0  0  0  0  0  0  0  0  0
    2.5402    0.8856    0.0000 H   0  0  0  0  0  0  0  0  0  0  0  0
  1 14  1  0  0  0  0
  2 10  1  0  0  0  0
  2 16  1  0  0  0  0
  3 11  1  0  0  0  0
  3 16  1  0  0  0  0
  4 12  1  0  0  0  0
  4 17  1  0  0  0  0
  5  6  1  0  0  0  0
  5 18  1  0  0  0  0
  5 23  1  0  0  0  0
  6  8  2  0  0  0  0
  7  8  1  0  0  0  0
  7 23  2  0  0  0  0
  9 12  1  0  0  0  0
  9 13  2  0  0  0  0
  9 14  1  0  0  0  0
 10 11  2  0  0  0  0
 10 13  1  0  0  0  0
 11 15  1  0  0  0  0
 12 24  1  0  0  0  0
 12 25  1  0  0  0  0
 13 26  1  0  0  0  0
 14 15  2  0  0  0  0
 15 27  1  0  0  0  0
 16 28  1  0  0  0  0
 16 29  1  0  0  0  0
 17 19  2  0  0  0  0
 17 20  1  0  0  0  0
 18 21  2  0  0  0  0
 18 22  1  0  0  0  0
 19 21  1  0  0  0  0
 19 30  1  0  0  0  0
 20 22  2  0  0  0  0
 20 31  1  0  0  0  0
 21 32  1  0  0  0  0
 22 33  1  0  0  0  0
 23 34  1  0  0  0  0
M  END
> <PUBCHEM_COMPOUND_CID>
17395279

> <PUBCHEM_COMPOUND_CANONICALIZED>
1

> <PUBCHEM_CACTVS_COMPLEXITY>
397

> <PUBCHEM_CACTVS_HBOND_ACCEPTOR>
6

> <PUBCHEM_CACTVS_HBOND_DONOR>
0

> <PUBCHEM_CACTVS_ROTATABLE_BOND>
4

> <PUBCHEM_CACTVS_SUBSKEYS>
AAADccBzsAAAEAAAAAAAAAAAAAAAAWJAAAAwYAAAAAAAAEgB0AAAHgBIAAABrAyhmAc13oYIBACiAiRDZACCDCMxooQdiAAO7KidJiLEuZumOCrkwBNO6jfw4DwOIFABAIAAwABAoAIBAAGAAAAAAAAAAA==

> <PUBCHEM_IUPAC_OPENEYE_NAME>
1-[4-[(6-bromo-1,3-benzodioxol-5-yl)methoxy]phenyl]tetrazole

> <PUBCHEM_IUPAC_CAS_NAME>
1-[4-[(6-bromo-1,3-benzodioxol-5-yl)methoxy]phenyl]tetrazole

> <PUBCHEM_IUPAC_NAME>
1-[4-[(6-bromo-1,3-benzodioxol-5-yl)methoxy]phenyl]tetrazole

> <PUBCHEM_IUPAC_SYSTEMATIC_NAME>
1-[4-[(6-bromanyl-1,3-benzodioxol-5-yl)methoxy]phenyl]-1,2,3,4-tetrazole

> <PUBCHEM_IUPAC_TRADITIONAL_NAME>
1-[4-[(6-bromo-1,3-benzodioxol-5-yl)methoxy]phenyl]tetrazole

> <PUBCHEM_IUPAC_INCHI>
InChI=1S/C15H11BrN4O3/c16-13-6-15-14(22-9-23-15)5-10(13)7-21-12-3-1-11(2-4-12)20-8-17-18-19-20/h1-6,8H,7,9H2

> <PUBCHEM_IUPAC_INCHIKEY>
VNQHRZFGNGYGGB-UHFFFAOYSA-N

> <PUBCHEM_XLOGP3_AA>
3.2

> <PUBCHEM_EXACT_MASS>
374.001452

> <PUBCHEM_MOLECULAR_FORMULA>
C15H11BrN4O3

> <PUBCHEM_MOLECULAR_WEIGHT>
375.17684

> <PUBCHEM_OPENEYE_CAN_SMILES>
C1OC2=C(O1)C=C(C(=C2)COC3=CC=C(C=C3)N4C=NN=N4)Br

> <PUBCHEM_OPENEYE_ISO_SMILES>
C1OC2=C(O1)C=C(C(=C2)COC3=CC=C(C=C3)N4C=NN=N4)Br

> <PUBCHEM_CACTVS_TPSA>
71.3

> <PUBCHEM_MONOISOTOPIC_WEIGHT>
374.001452

> <PUBCHEM_TOTAL_CHARGE>
0

> <PUBCHEM_HEAVY_ATOM_COUNT>
23

> <PUBCHEM_ATOM_DEF_STEREO_COUNT>
0

> <PUBCHEM_ATOM_UDEF_STEREO_COUNT>
0

> <PUBCHEM_BOND_DEF_STEREO_COUNT>
0

> <PUBCHEM_BOND_UDEF_STEREO_COUNT>
0

> <PUBCHEM_ISOTOPIC_ATOM_COUNT>
0

> <PUBCHEM_COMPONENT_COUNT>
1

> <PUBCHEM_CACTVS_TAUTO_COUNT>
1

> <PUBCHEM_COORDINATE_TYPE>
1
5
255

> <PUBCHEM_BONDANNOTATIONS>
10  11  8
10  13  8
11  15  8
14  15  8
17  19  8
17  20  8
18  21  8
18  22  8
19  21  8
20  22  8
5  23  8
5  6  8
6  8  8
7  23  8
7  8  8
9  13  8
9  14  8

$$$$

