   Color/Form

     * White, monoclinic prisms
     * White crystalline powder or granules

   from [1]HSDB

   Odor
        ODORLESS
   from [2]HSDB

   Taste
        SALINE & SLIGHTLY ALKALINE TASTE
   from [3]HSDB

   Melting Point
        50 deg C (decomposes)
   from [4]HSDB

   Density/Specific Gravity
        2.20
   from [5]HSDB

   pH
        Freshly prepared 0.1 molar solution at 25 deg c: 8.3
   from [6]HSDB

   Solubilities

     * Insoluble in ethanol
     * Solubility in water = 6.4, 7.6, 8.7, 10.0, 11.3, 12.7, 14.2, 16.5,
       and 19.1 g/100g solution at 0, 10, 20, 30, 40, 50, 60, 80, and 100
       deg C, respectively; Solubility in water = 6.9, 8.2, 9.6, 11.1,
       12.7, 14.5, 16.5, 19.7, and 23.6 g/100g H2O at 0, 10, 20, 30, 40,
       50, 60, 80, and 100 deg C, respectively; Solubility is lower in the
       presence of sodium carbonate

   from [7]HSDB

   Spectral Properties
        INDEX OF REFRACTION: 1.500
   from [8]HSDB

   Other Chemical/Physical Properties

     * Powder or granules lose carbon dioxide at 50 deg C and at 100 deg C
       it is converted to sodium carbonate
     * SOLN OF 1.3% IS APPROX ISOTONIC WITH BODY FLUIDS
     * Readily decomp by weak acids; in aq soln it begins to break up into
       carbon dioxide and sodium carbonate at about 20 deg C and
       completely on boiling
     * ALKALINITY INCR AS SOLN STAND, ARE AGITATED, OR HEATED; IN LIQ
       MIXTURES CONTAINING BISMUTH SUBNITRATE, SODIUM BICARBONATE REACTS
       WITH ACID FORMED BY HYDROLYSIS OF BISMUTH SALT
     * 1 G NEUTRALIZES APPROX 120 ML OF 0.1 N HYDROCHLORIC ACID
     * Specific heat capacity = 87.7 kJ/mol-K at 25 deg C
     * Enthalpy of solution = -18 kJ/mol
     * Dielectric constant = 4.39 debyes at 25 deg C

   from [9]HSDB

   Computed Properties
   Molecular Weight                  84.006609 [g/mol]
   Molecular Formula                 CHNaO[3]
   H-Bond Donor                      1
   H-Bond Acceptor                   3
   Rotatable Bond Count              0
   Exact Mass                        83.982338
   MonoIsotopic Mass                 83.982338
   Topological Polar Surface Area    60.4
   Heavy Atom Count                  5
   Formal Charge                     0
   Complexity                        33.9
   Isotope Atom Count                0
   Defined Atom Stereocenter Count   0
   Undefined Atom Stereocenter Count 0
   Defined Bond Stereocenter Count   0
   Undefined Bond Stereocenter Count 0
   Covalently-Bonded Unit Count      2

References

   1. http://toxnet.nlm.nih.gov/cgi-bin/sis/search/r?dbs+hsdb:@term+@rn+@rel+144-55-8
   2. http://toxnet.nlm.nih.gov/cgi-bin/sis/search/r?dbs+hsdb:@term+@rn+@rel+144-55-8
   3. http://toxnet.nlm.nih.gov/cgi-bin/sis/search/r?dbs+hsdb:@term+@rn+@rel+144-55-8
   4. http://toxnet.nlm.nih.gov/cgi-bin/sis/search/r?dbs+hsdb:@term+@rn+@rel+144-55-8
   5. http://toxnet.nlm.nih.gov/cgi-bin/sis/search/r?dbs+hsdb:@term+@rn+@rel+144-55-8
   6. http://toxnet.nlm.nih.gov/cgi-bin/sis/search/r?dbs+hsdb:@term+@rn+@rel+144-55-8
   7. http://toxnet.nlm.nih.gov/cgi-bin/sis/search/r?dbs+hsdb:@term+@rn+@rel+144-55-8
   8. http://toxnet.nlm.nih.gov/cgi-bin/sis/search/r?dbs+hsdb:@term+@rn+@rel+144-55-8
   9. http://toxnet.nlm.nih.gov/cgi-bin/sis/search/r?dbs+hsdb:@term+@rn+@rel+144-55-8
