5281652
  -OEChem-07051212582D

 26 28  0     0  0  0  0  0  0999 V2000
    6.0682   -1.0000    0.0000 O   0  0  0  0  0  0  0  0  0  0  0  0
    6.0682    2.0000    0.0000 O   0  0  0  0  0  0  0  0  0  0  0  0
    4.3198   -2.0346    0.0000 O   0  0  0  0  0  0  0  0  0  0  0  0
    7.8167    2.0346    0.0000 O   0  0  0  0  0  0  0  0  0  0  0  0
    2.5381   -1.0241    0.0000 O   0  0  0  0  0  0  0  0  0  0  0  0
    5.2022    0.5000    0.0000 C   0  0  0  0  0  0  0  0  0  0  0  0
    6.9343    0.5000    0.0000 C   0  0  0  0  0  0  0  0  0  0  0  0
    5.2022   -0.5000    0.0000 C   0  0  0  0  0  0  0  0  0  0  0  0
    6.9343   -0.5000    0.0000 C   0  0  0  0  0  0  0  0  0  0  0  0
    6.0682    1.0000    0.0000 C   0  0  0  0  0  0  0  0  0  0  0  0
    4.3083   -1.0347    0.0000 C   0  0  0  0  0  0  0  0  0  0  0  0
    4.3083    1.0347    0.0000 C   0  0  0  0  0  0  0  0  0  0  0  0
    7.8282    1.0347    0.0000 C   0  0  0  0  0  0  0  0  0  0  0  0
    7.8282   -1.0347    0.0000 C   0  0  0  0  0  0  0  0  0  0  0  0
    3.4022   -0.5208    0.0000 C   0  0  0  0  0  0  0  0  0  0  0  0
    3.4022    0.5208    0.0000 C   0  0  0  0  0  0  0  0  0  0  0  0
    8.7343    0.5208    0.0000 C   0  0  0  0  0  0  0  0  0  0  0  0
    8.7343   -0.5208    0.0000 C   0  0  0  0  0  0  0  0  0  0  0  0
    4.3154    1.6546    0.0000 H   0  0  0  0  0  0  0  0  0  0  0  0
    7.8210   -1.6546    0.0000 H   0  0  0  0  0  0  0  0  0  0  0  0
    2.8665    0.8329    0.0000 H   0  0  0  0  0  0  0  0  0  0  0  0
    9.2700    0.8329    0.0000 H   0  0  0  0  0  0  0  0  0  0  0  0
    9.2700   -0.8329    0.0000 H   0  0  0  0  0  0  0  0  0  0  0  0
    3.7865   -2.3508    0.0000 H   0  0  0  0  0  0  0  0  0  0  0  0
    8.3500    2.3508    0.0000 H   0  0  0  0  0  0  0  0  0  0  0  0
    2.0000   -0.7162    0.0000 H   0  0  0  0  0  0  0  0  0  0  0  0
  1  8  1  0  0  0  0
  1  9  1  0  0  0  0
  2 10  2  0  0  0  0
  3 11  1  0  0  0  0
  3 24  1  0  0  0  0
  4 13  1  0  0  0  0
  4 25  1  0  0  0  0
  5 15  1  0  0  0  0
  5 26  1  0  0  0  0
  6  8  2  0  0  0  0
  6 10  1  0  0  0  0
  6 12  1  0  0  0  0
  7  9  1  0  0  0  0
  7 10  1  0  0  0  0
  7 13  2  0  0  0  0
  8 11  1  0  0  0  0
  9 14  2  0  0  0  0
 11 15  2  0  0  0  0
 12 16  2  0  0  0  0
 12 19  1  0  0  0  0
 13 17  1  0  0  0  0
 14 18  1  0  0  0  0
 14 20  1  0  0  0  0
 15 16  1  0  0  0  0
 16 21  1  0  0  0  0
 17 18  2  0  0  0  0
 17 22  1  0  0  0  0
 18 23  1  0  0  0  0
M  END
> <PUBCHEM_COMPOUND_CID>
5281652

> <PUBCHEM_COMPOUND_CANONICALIZED>
1

> <PUBCHEM_CACTVS_COMPLEXITY>
344

> <PUBCHEM_CACTVS_HBOND_ACCEPTOR>
5

> <PUBCHEM_CACTVS_HBOND_DONOR>
3

> <PUBCHEM_CACTVS_ROTATABLE_BOND>
0

> <PUBCHEM_CACTVS_SUBSKEYS>
AAADccBwOAAAAAAAAAAAAAAAAAAAAAAAAAA0YIAAAAAAAACRQAAAGgAACAAADASAmAAwBoAABgCIAqBSAAACCAAkIAAIiAEGiMgNJzaGNRqCeWOl4BULuYeK7PzOIAABCAAIQABAAAIQABCAAAAAAAAAAA==

> <PUBCHEM_IUPAC_OPENEYE_NAME>
1,5,6-trihydroxyxanthen-9-one

> <PUBCHEM_IUPAC_CAS_NAME>
1,5,6-trihydroxy-9-xanthenone

> <PUBCHEM_IUPAC_NAME>
1,5,6-trihydroxyxanthen-9-one

> <PUBCHEM_IUPAC_SYSTEMATIC_NAME>
1,5,6-tris(oxidanyl)xanthen-9-one

> <PUBCHEM_IUPAC_TRADITIONAL_NAME>
1,5,6-trihydroxyxanthone

> <PUBCHEM_IUPAC_INCHI>
InChI=1S/C13H8O5/c14-7-2-1-3-9-10(7)11(16)6-4-5-8(15)12(17)13(6)18-9/h1-5,14-15,17H

> <PUBCHEM_IUPAC_INCHIKEY>
QVQLOWQNIFSVLU-UHFFFAOYSA-N

> <PUBCHEM_XLOGP3_AA>
2.4

> <PUBCHEM_EXACT_MASS>
244.037173

> <PUBCHEM_MOLECULAR_FORMULA>
C13H8O5

> <PUBCHEM_MOLECULAR_WEIGHT>
244.19962

> <PUBCHEM_OPENEYE_CAN_SMILES>
C1=CC2=C(C(=C1)O)C(=O)C3=C(O2)C(=C(C=C3)O)O

> <PUBCHEM_OPENEYE_ISO_SMILES>
C1=CC2=C(C(=C1)O)C(=O)C3=C(O2)C(=C(C=C3)O)O

> <PUBCHEM_CACTVS_TPSA>
87

> <PUBCHEM_MONOISOTOPIC_WEIGHT>
244.037173

> <PUBCHEM_TOTAL_CHARGE>
0

> <PUBCHEM_HEAVY_ATOM_COUNT>
18

> <PUBCHEM_ATOM_DEF_STEREO_COUNT>
0

> <PUBCHEM_ATOM_UDEF_STEREO_COUNT>
0

> <PUBCHEM_BOND_DEF_STEREO_COUNT>
0

> <PUBCHEM_BOND_UDEF_STEREO_COUNT>
0

> <PUBCHEM_ISOTOPIC_ATOM_COUNT>
0

> <PUBCHEM_COMPONENT_COUNT>
1

> <PUBCHEM_CACTVS_TAUTO_COUNT>
58

> <PUBCHEM_COORDINATE_TYPE>
1
5
255

> <PUBCHEM_BONDANNOTATIONS>
1  8  8
1  9  8
11  15  8
12  16  8
13  17  8
14  18  8
15  16  8
17  18  8
6  10  8
6  12  8
6  8  8
7  10  8
7  13  8
7  9  8
8  11  8
9  14  8

$$$$

