   Color/Form

     * WHITE NEEDLES
     * ORTHORHOMBIC BIPYRAMIDAL NEEDLES FROM ALCOHOL

   from [1]HSDB

   Boiling Point
        279 DEG C AT 760 MM HG
   from [2]HSDB

   Melting Point
        95 DEG C
   from [3]HSDB

   Density/Specific Gravity
        1.0242 at 90 deg C/4 deg C
   from [4]HSDB

   Heat of Vaporization
        13,078.5 gcal/gmol
   from [5]HSDB

   Octanol/Water Partition Coefficient
        log Kow= 3.92
   from [6]HSDB

   Solubilities

     * 1 G DISSOLVES IN 31 ML ALCOHOL, 56 ML METHANOL, 25 ML PROPANOL, 2.5
       ML CHLOROFORM, 5 ML BENZENE OR TOLUENE
     * 3.2 G/100 ML GLACIAL ACETIC ACID
     * INSOL IN WATER

   from [7]HSDB

   Spectral Properties

     * INDEX OF REFRACTION: 1.6048 AT 95 DEG C/D
     * SADTLER REFERENCE NUMBER: 875, 7458 (IR, PRISM); 548 (IR, GRATING)
     * IR 175 (Sadtler Research Laboratories IR Grating Collection)
     * NMR 65 (Sadtler Research Laboratories Spectral Collection)
     * UV: 272 (Sadtler Research Laboratories Spectral Collection)
     * MASS 928 (Atlas of Mass Spectral Data, John Wiley & Sons, New York)
     * MAX ABSORPTION (ALCOHOL): 227.5 NM (LOG E= 4.86); 289 NM (LOG E=
       3.80); 300 NM (LOG E= 3.60); 321 NM (LOG E= 3.19)
     * Intensity of mass spectral peaks: 154 m/z (100%), 153 m/z (86%),
       152 m/z (42%), 76 m/z (23%)
     * Fluorescence spectroscopy of acenaphthene dissolved in pentane: 291
       NM (excitation wavelength), 341 NM (emission wavelength)

   from [8]HSDB

   Vapor Density
        5.32 (AIR= 1)
   from [9]HSDB

   Vapor Pressure
        10 MM HG AT 131.2 DEG C
   from [10]HSDB

   Other Chemical/Physical Properties

     * Enthalpy of sublimation, 20.6 kcal/mol at 298 K
     * Wt/vol conversion factor: 6.31 mg/cu m is equivalent to 1 ppm
     * Forms water-soluble, crystalline complexes with desoxycholic acid,
       containing two molecules of the bile acid as a rule. The complexes
       crystallize when concentrated solutions of the proper amount of the
       components in alcohol or dioxane are allowed to cool slowly.
     * Acenapthene may be halogenated, sulfonated, and nitrated in a
       manner similar to napthalene. Oxidation first yields
       acenaphthenequinone and 1,8-naphthalene-dicarboxylic acid
       anhydride.
     * REACTS WITH MOLECULAR OXYGEN IN PRESENCE OF ALKALI-EARTH METAL
       BROMIDES TO FORM ACENAPHTHEQUINONE; IN THE PRESENCE OF ALKALI-EARTH
       METAL HYDROXIDES, ACENAPHTHENE REACTS WITH OZONE TO PRODUCE
       1,8-NAPHTHALDEHYDE CARBOXYLIC ACID; CAN BE OXIDIZED TO AROMATIC
       ALCOHOLS & KETONES USING TRANSITION METAL CMPD AS CATALYSTS
     * Acenaphthene can be oxidized to aromatic alcohols and ketones using
       transition metal compounds as catalysts.
     * Polycyclic aromatic hydrocarbons (PAHs) consists of 3 or more fused
       benzene rings in varying arrangements that contain only carbon &
       hydrogens. Hundreds of variations occur. /Polycyclic aromatic
       hydrocarbons/

   from [11]HSDB

   Computed Properties
   Molecular Weight                  154.2078 [g/mol]
   Molecular Formula                 C[12]H[10]
   XLogP3                            3.9
   H-Bond Donor                      0
   H-Bond Acceptor                   0
   Rotatable Bond Count              0
   Exact Mass                        154.07825
   MonoIsotopic Mass                 154.07825
   Topological Polar Surface Area    0
   Heavy Atom Count                  12
   Formal Charge                     0
   Complexity                        155
   Isotope Atom Count                0
   Defined Atom Stereocenter Count   0
   Undefined Atom Stereocenter Count 0
   Defined Bond Stereocenter Count   0
   Undefined Bond Stereocenter Count 0
   Covalently-Bonded Unit Count      1
   Feature 3D Ring Count             3
   Effective Rotor Count             0.4
   Conformer Sampling RMSD           0.4
   CID Conformer Count               [12]1

References

   1. http://toxnet.nlm.nih.gov/cgi-bin/sis/search/r?dbs+hsdb:@term+@rn+@rel+83-32-9
   2. http://toxnet.nlm.nih.gov/cgi-bin/sis/search/r?dbs+hsdb:@term+@rn+@rel+83-32-9
   3. http://toxnet.nlm.nih.gov/cgi-bin/sis/search/r?dbs+hsdb:@term+@rn+@rel+83-32-9
   4. http://toxnet.nlm.nih.gov/cgi-bin/sis/search/r?dbs+hsdb:@term+@rn+@rel+83-32-9
   5. http://toxnet.nlm.nih.gov/cgi-bin/sis/search/r?dbs+hsdb:@term+@rn+@rel+83-32-9
   6. http://toxnet.nlm.nih.gov/cgi-bin/sis/search/r?dbs+hsdb:@term+@rn+@rel+83-32-9
   7. http://toxnet.nlm.nih.gov/cgi-bin/sis/search/r?dbs+hsdb:@term+@rn+@rel+83-32-9
   8. http://toxnet.nlm.nih.gov/cgi-bin/sis/search/r?dbs+hsdb:@term+@rn+@rel+83-32-9
   9. http://toxnet.nlm.nih.gov/cgi-bin/sis/search/r?dbs+hsdb:@term+@rn+@rel+83-32-9
  10. http://toxnet.nlm.nih.gov/cgi-bin/sis/search/r?dbs+hsdb:@term+@rn+@rel+83-32-9
  11. http://toxnet.nlm.nih.gov/cgi-bin/sis/search/r?dbs+hsdb:@term+@rn+@rel+83-32-9
  12. http://pubchem.ncbi.nlm.nih.gov/vw3d/vw3d.cgi?cid=6734
