   Color/Form

     * LIGHT YELLOW LIQUID
     * Amber-colored liquid

   from [1]HSDB

   Boiling Point
        223 deg C @ 760 mm Hg
   from [2]HSDB

   Melting Point
        -6.8 deg C
   from [3]HSDB

   Density/Specific Gravity
        0.9783 @ 20 deg C/4 deg C
   from [4]HSDB

   Dissociation Constants
        pKa = 10.28
   from [5]HSDB

   Octanol/Water Partition Coefficient
        log Kow = 3.31
   from [6]HSDB

   Solubilities

     * SOL IN ALCOHOL; VERY SOL IN ETHER; SOL IN ALKALI, CARBON
       TETRACHLORIDE
     * SOL IN ISOPENTANE, TOLUENE & ETHYL ALCOHOL
     * INSOL IN WATER

   from [7]HSDB

   Spectral Properties

     * INDEX OF REFRACTION: 1.5160 @ 20 DEG C/D
     * MAX ABSORPTION (ALCOHOL): 216 NM (LOG E= 3.71), 271 NM (LOG E=
       3.36), 277 NM (LOG E= 3.31)
     * IR: 11626 (Sadtler Research Laboratories Prism Collection)
     * UV: 20892 (Sadtler Research Laboratories Spectral Collection)
     * NMR: 9797 (Sadtler Research Laboratories Spectral Collection)
     * MASS: 891 (Atlas of Mass Spectral Data, John Wiley & Sons, New
       York)

   from [8]HSDB

   Vapor Pressure
        1.5X10-4 mm Hg @ 25 deg C
   from [9]HSDB

   Computed Properties
   Molecular Weight                  150.21756 [g/mol]
   Molecular Formula                 C[10]H[14]O
   XLogP3                            3.3
   H-Bond Donor                      1
   H-Bond Acceptor                   1
   Rotatable Bond Count              1
   Tautomer Count                    3
   Exact Mass                        150.104465
   MonoIsotopic Mass                 150.104465
   Topological Polar Surface Area    20.2
   Heavy Atom Count                  11
   Formal Charge                     0
   Complexity                        123
   Isotope Atom Count                0
   Defined Atom Stereocenter Count   0
   Undefined Atom Stereocenter Count 0
   Defined Bond Stereocenter Count   0
   Undefined Bond Stereocenter Count 0
   Covalently-Bonded Unit Count      1
   Feature 3D Donor Count            1
   Feature 3D Hydrophobe Count       1
   Feature 3D Ring Count             1
   Effective Rotor Count             1
   Conformer Sampling RMSD           0.4
   CID Conformer Count               [10]2

References

   1. http://toxnet.nlm.nih.gov/cgi-bin/sis/search/r?dbs+hsdb:@term+@rn+@rel+88-18-6
   2. http://toxnet.nlm.nih.gov/cgi-bin/sis/search/r?dbs+hsdb:@term+@rn+@rel+88-18-6
   3. http://toxnet.nlm.nih.gov/cgi-bin/sis/search/r?dbs+hsdb:@term+@rn+@rel+88-18-6
   4. http://toxnet.nlm.nih.gov/cgi-bin/sis/search/r?dbs+hsdb:@term+@rn+@rel+88-18-6
   5. http://toxnet.nlm.nih.gov/cgi-bin/sis/search/r?dbs+hsdb:@term+@rn+@rel+88-18-6
   6. http://toxnet.nlm.nih.gov/cgi-bin/sis/search/r?dbs+hsdb:@term+@rn+@rel+88-18-6
   7. http://toxnet.nlm.nih.gov/cgi-bin/sis/search/r?dbs+hsdb:@term+@rn+@rel+88-18-6
   8. http://toxnet.nlm.nih.gov/cgi-bin/sis/search/r?dbs+hsdb:@term+@rn+@rel+88-18-6
   9. http://toxnet.nlm.nih.gov/cgi-bin/sis/search/r?dbs+hsdb:@term+@rn+@rel+88-18-6
  10. http://pubchem.ncbi.nlm.nih.gov/vw3d/vw3d.cgi?cid=6923
