56927714
  -OEChem-07051213152D

 50 55  0     1  0  0  0  0  0999 V2000
    3.8076    1.3773    0.0000 O   0  0  0  0  0  0  0  0  0  0  0  0
    8.5621   -2.9218    0.0000 O   0  0  0  0  0  0  0  0  0  0  0  0
    5.0332    2.6012    0.0000 O   0  0  0  0  0  0  0  0  0  0  0  0
    6.1798   -0.7767    0.0000 N   0  0  3  0  0  0  0  0  0  0  0  0
    4.0899   -1.7322    0.0000 N   0  0  0  0  0  0  0  0  0  0  0  0
    6.4862    0.6648    0.0000 C   0  0  3  0  0  0  0  0  0  0  0  0
    5.9169    0.0325    0.0000 C   0  0  2  0  0  0  0  0  0  0  0  0
    4.5153   -0.4229    0.0000 C   0  0  1  0  0  0  0  0  0  0  0  0
    6.7056   -2.3951    0.0000 C   0  0  1  0  0  0  0  0  0  0  0  0
    4.5142    0.6697    0.0000 C   0  0  2  0  0  0  0  0  0  0  0  0
    5.6105   -1.4090    0.0000 C   0  0  1  0  0  0  0  0  0  0  0  0
    5.0846    0.2094    0.0000 C   0  0  0  0  0  0  0  0  0  0  0  0
    5.8734   -2.2182    0.0000 C   0  0  0  0  0  0  0  0  0  0  0  0
    7.2750   -1.7628    0.0000 C   0  0  2  0  0  0  0  0  0  0  0  0
    7.0121   -0.9536    0.0000 C   0  0  2  0  0  0  0  0  0  0  0  0
    4.7782   -1.2321    0.0000 C   0  0  0  0  0  0  0  0  0  0  0  0
    3.6645   -0.4229    0.0000 C   0  0  0  0  0  0  0  0  0  0  0  0
    8.2531   -1.9707    0.0000 C   0  0  0  0  0  0  0  0  0  0  0  0
    7.6812   -0.2105    0.0000 C   0  0  0  0  0  0  0  0  0  0  0  0
    3.4016   -1.2321    0.0000 C   0  0  0  0  0  0  0  0  0  0  0  0
    3.0952    0.2094    0.0000 C   0  0  0  0  0  0  0  0  0  0  0  0
    2.5693   -1.4090    0.0000 C   0  0  0  0  0  0  0  0  0  0  0  0
    4.0671    2.3431    0.0000 C   0  0  0  0  0  0  0  0  0  0  0  0
    2.2629    0.0325    0.0000 C   0  0  0  0  0  0  0  0  0  0  0  0
    2.0000   -0.7767    0.0000 C   0  0  0  0  0  0  0  0  0  0  0  0
    3.3605    3.0507    0.0000 C   0  0  0  0  0  0  0  0  0  0  0  0
    6.9092    1.1181    0.0000 H   0  0  0  0  0  0  0  0  0  0  0  0
    5.7347    0.8627    0.0000 H   0  0  0  0  0  0  0  0  0  0  0  0
    6.9683   -3.2035    0.0000 H   0  0  0  0  0  0  0  0  0  0  0  0
    4.7523    1.2421    0.0000 H   0  0  0  0  0  0  0  0  0  0  0  0
    5.0417   -2.0407    0.0000 H   0  0  0  0  0  0  0  0  0  0  0  0
    5.3169    0.7842    0.0000 H   0  0  0  0  0  0  0  0  0  0  0  0
    4.5588    0.5379    0.0000 H   0  0  0  0  0  0  0  0  0  0  0  0
    5.2594   -2.3045    0.0000 H   0  0  0  0  0  0  0  0  0  0  0  0
    5.8518   -2.8378    0.0000 H   0  0  0  0  0  0  0  0  0  0  0  0
    7.4666   -2.3525    0.0000 H   0  0  0  0  0  0  0  0  0  0  0  0
    6.8205   -0.3639    0.0000 H   0  0  0  0  0  0  0  0  0  0  0  0
    8.8671   -1.8844    0.0000 H   0  0  0  0  0  0  0  0  0  0  0  0
    8.2748   -1.3511    0.0000 H   0  0  0  0  0  0  0  0  0  0  0  0
    8.1419   -0.6253    0.0000 H   0  0  0  0  0  0  0  0  0  0  0  0
    8.0960    0.2503    0.0000 H   0  0  0  0  0  0  0  0  0  0  0  0
    7.2204    0.2044    0.0000 H   0  0  0  0  0  0  0  0  0  0  0  0
    3.2868    0.7990    0.0000 H   0  0  0  0  0  0  0  0  0  0  0  0
    2.3777   -1.9986    0.0000 H   0  0  0  0  0  0  0  0  0  0  0  0
    9.1686   -3.0507    0.0000 H   0  0  0  0  0  0  0  0  0  0  0  0
    1.8481    0.4932    0.0000 H   0  0  0  0  0  0  0  0  0  0  0  0
    1.3936   -0.9056    0.0000 H   0  0  0  0  0  0  0  0  0  0  0  0
    3.7992    3.4888    0.0000 H   0  0  0  0  0  0  0  0  0  0  0  0
    2.9224    3.4894    0.0000 H   0  0  0  0  0  0  0  0  0  0  0  0
    2.9217    2.6126    0.0000 H   0  0  0  0  0  0  0  0  0  0  0  0
  1 10  1  0  0  0  0
  1 23  1  0  0  0  0
  2 18  1  0  0  0  0
  2 45  1  0  0  0  0
  3 23  2  0  0  0  0
  4  7  1  0  0  0  0
  4 11  1  0  0  0  0
  4 15  1  0  0  0  0
  5 16  2  0  0  0  0
  5 20  1  0  0  0  0
  6  7  1  0  0  0  0
  6  9  1  0  0  0  0
  6 10  1  0  0  0  0
  6 27  1  0  0  0  0
  7 12  1  0  0  0  0
  7 28  1  6  0  0  0
  8 10  1  0  0  0  0
  8 12  1  0  0  0  0
  8 16  1  0  0  0  0
  8 17  1  6  0  0  0
  9 13  1  0  0  0  0
  9 14  1  0  0  0  0
  9 29  1  1  0  0  0
 10 30  1  0  0  0  0
 11 13  1  0  0  0  0
 11 16  1  0  0  0  0
 11 31  1  6  0  0  0
 12 32  1  0  0  0  0
 12 33  1  0  0  0  0
 13 34  1  0  0  0  0
 13 35  1  0  0  0  0
 14 15  1  0  0  0  0
 14 18  1  6  0  0  0
 14 36  1  0  0  0  0
 15 19  1  1  0  0  0
 15 37  1  0  0  0  0
 17 20  1  0  0  0  0
 17 21  2  0  0  0  0
 18 38  1  0  0  0  0
 18 39  1  0  0  0  0
 19 40  1  0  0  0  0
 19 41  1  0  0  0  0
 19 42  1  0  0  0  0
 20 22  2  0  0  0  0
 21 24  1  0  0  0  0
 21 43  1  0  0  0  0
 22 25  1  0  0  0  0
 22 44  1  0  0  0  0
 23 26  1  0  0  0  0
 24 25  2  0  0  0  0
 24 46  1  0  0  0  0
 25 47  1  0  0  0  0
 26 48  1  0  0  0  0
 26 49  1  0  0  0  0
 26 50  1  0  0  0  0
M  END
> <PUBCHEM_COMPOUND_CID>
56927714

> <PUBCHEM_COMPOUND_CANONICALIZED>
1

> <PUBCHEM_CACTVS_COMPLEXITY>
693

> <PUBCHEM_CACTVS_HBOND_ACCEPTOR>
5

> <PUBCHEM_CACTVS_HBOND_DONOR>
1

> <PUBCHEM_CACTVS_ROTATABLE_BOND>
3

> <PUBCHEM_CACTVS_SUBSKEYS>
AAADceB7MAAAAAAAAAAAAAAAAAAAAYIAAAA8WLFiBgAAAECBAAAAHgAACAAADzzhmAYyyIMABgCoAyTyTACCAAAgAgAIiAA4ZIgIMCKAkZGGYABmwAGIyAew8P8PgAAAAAACAAAAAAAAAAQAASEABQAAAA==

> <PUBCHEM_IUPAC_INCHI>
InChI=1S/C21H24N2O3/c1-10-13(9-24)12-7-16-19-21(14-5-3-4-6-15(14)22-19)8-17(23(10)16)18(12)20(21)26-11(2)25/h3-6,10,12-13,16-18,20,24H,7-9H2,1-2H3/t10-,12-,13-,16-,17-,18?,20+,21+/m0/s1

> <PUBCHEM_IUPAC_INCHIKEY>
XIMPCXFLDSKALH-FXRWJBKJSA-N

> <PUBCHEM_XLOGP3_AA>
1.7

> <PUBCHEM_EXACT_MASS>
352.178693

> <PUBCHEM_MOLECULAR_FORMULA>
C21H24N2O3

> <PUBCHEM_MOLECULAR_WEIGHT>
352.42686

> <PUBCHEM_OPENEYE_CAN_SMILES>
CC1C(C2CC3N1C4C2C(C5(C4)C3=NC6=CC=CC=C56)OC(=O)C)CO

> <PUBCHEM_OPENEYE_ISO_SMILES>
C[C@H]1[C@@H]([C@@H]2C[C@@H]3N1[C@@H]4C2[C@H]([C@@]5(C4)C3=NC6=CC=CC=C56)OC(=O)C)CO

> <PUBCHEM_CACTVS_TPSA>
62.1

> <PUBCHEM_MONOISOTOPIC_WEIGHT>
352.178693

> <PUBCHEM_TOTAL_CHARGE>
0

> <PUBCHEM_HEAVY_ATOM_COUNT>
26

> <PUBCHEM_ATOM_DEF_STEREO_COUNT>
7

> <PUBCHEM_ATOM_UDEF_STEREO_COUNT>
1

> <PUBCHEM_BOND_DEF_STEREO_COUNT>
0

> <PUBCHEM_BOND_UDEF_STEREO_COUNT>
0

> <PUBCHEM_ISOTOPIC_ATOM_COUNT>
0

> <PUBCHEM_COMPONENT_COUNT>
1

> <PUBCHEM_CACTVS_TAUTO_COUNT>
1

> <PUBCHEM_COORDINATE_TYPE>
1
5
255

> <PUBCHEM_BONDANNOTATIONS>
11  31  6
14  18  6
15  19  5
17  20  8
17  21  8
20  22  8
21  24  8
22  25  8
24  25  8
6  10  3
7  28  6
8  17  6
9  29  5

$$$$

