   Color/Form

     * CRYSTALS FROM WATER + ACETONE
     * POWDER, NEEDLES FROM WATER & DIL ALC

   from [1]HSDB

   Melting Point
        196-200 DEG C
   from [2]HSDB

   Dissociation Constants
        PK1= 3.8; PK2= 6.2
   from [3]HSDB

   Solubilities

     * READILY SOL IN BOILING WATER
     * SOL IN 10% HCL
     * INSOL IN ALCOHOL

   from [4]HSDB

   Spectral Properties

     * SPECIFIC OPTICAL ROTATION: -26 DEG @ 20 DEG C/D (C= 2, 10% HCL); &
       -47.5 DEG @ 20 DEG C/D (C= 2, 2% NAOH)
     * MAX ABSORPTION (WATER, PH= 1.1): 255 NM (LOG E= 4.16); SPECIFIC
       OPTICAL ROTATION: -41.78 DEG @ 50 DEG C/D (WATER)
     * IR: 14657 (Sadtler Research Laboratories Prism Collection)
     * UV: 8-173 (Organic Electronic Spectral Data, Phillips et al, John
       Wiley & Sons, New York)

   from [5]HSDB

   Other Chemical/Physical Properties

     * MOLAR ABSORBANCY= 15400 @ 259 NM (PH 7.0); READILY DEAMINATED BY
       NITROUS ACID TO FORM INOSINIC ACID; LESS RAPIDLY HYDROLYZED THAN
       3'-ADENYLIC ACID BY SULFURIC ACID
     * LONG CRYSTALLINE RODS; DECOMP AT 195 DEG C /YEAST ADENYLIC
       MONOHYDRATE/
     * DECOMP AT 208 DEG C /YEAST ADENYLIC ANHYDRATE/
     * GIVES ONLY TRACES OF FURFURAL WHEN BOILED WITH 20% HYDROCHLORIC
       ACID
     * ALMOST INSOL IN COLD H2O /YEAST ADENYLIC ACID MONO-HCL/

   from [6]HSDB

   Computed Properties
   Molecular Weight                  347.221222 [g/mol]
   Molecular Formula                 C[10]H[14]N[5]O[7]P
   XLogP3                            -3.5
   H-Bond Donor                      5
   H-Bond Acceptor                   11
   Rotatable Bond Count              4
   Tautomer Count                    3
   Exact Mass                        347.063084
   MonoIsotopic Mass                 347.063084
   Topological Polar Surface Area    186
   Heavy Atom Count                  23
   Formal Charge                     0
   Complexity                        481
   Isotope Atom Count                0
   Defined Atom Stereocenter Count   4
   Undefined Atom Stereocenter Count 0
   Defined Bond Stereocenter Count   0
   Undefined Bond Stereocenter Count 0
   Covalently-Bonded Unit Count      1
   Feature 3D Acceptor Count         6
   Feature 3D Donor Count            3
   Feature 3D Anion Count            1
   Feature 3D Cation Count           4
   Feature 3D Ring Count             3
   Effective Rotor Count             5
   Conformer Sampling RMSD           0.8
   CID Conformer Count               [7]59

References

   1. http://toxnet.nlm.nih.gov/cgi-bin/sis/search/r?dbs+hsdb:@term+@rn+@rel+61-19-8
   2. http://toxnet.nlm.nih.gov/cgi-bin/sis/search/r?dbs+hsdb:@term+@rn+@rel+61-19-8
   3. http://toxnet.nlm.nih.gov/cgi-bin/sis/search/r?dbs+hsdb:@term+@rn+@rel+61-19-8
   4. http://toxnet.nlm.nih.gov/cgi-bin/sis/search/r?dbs+hsdb:@term+@rn+@rel+61-19-8
   5. http://toxnet.nlm.nih.gov/cgi-bin/sis/search/r?dbs+hsdb:@term+@rn+@rel+61-19-8
   6. http://toxnet.nlm.nih.gov/cgi-bin/sis/search/r?dbs+hsdb:@term+@rn+@rel+61-19-8
   7. http://pubchem.ncbi.nlm.nih.gov/vw3d/vw3d.cgi?cid=6083
