23724629
  -OEChem-07051213082D

 97 98  0     1  0  0  0  0  0999 V2000
    3.8660   -9.5950    0.0000 O   0  0  0  0  0  0  0  0  0  0  0  0
    3.0000   -7.0950    0.0000 C   0  0  0  0  0  0  0  0  0  0  0  0
    3.8660   -6.5950    0.0000 C   0  0  3  0  0  0  0  0  0  0  0  0
    3.0000   -8.0950    0.0000 C   0  0  0  0  0  0  0  0  0  0  0  0
    3.8660   -8.5950    0.0000 C   0  0  2  0  0  0  0  0  0  0  0  0
    4.7320   -7.0950    0.0000 C   0  0  0  0  0  0  0  0  0  0  0  0
    2.0000   -7.0950    0.0000 C   0  0  0  0  0  0  0  0  0  0  0  0
    2.5000   -6.2290    0.0000 C   0  0  0  0  0  0  0  0  0  0  0  0
   12.5263    8.4050    0.0000 C   0  0  0  0  0  0  0  0  0  0  0  0
    4.7320   -8.0950    0.0000 C   0  0  0  0  0  0  0  0  0  0  0  0
    3.8660   -5.5950    0.0000 C   0  0  0  0  0  0  0  0  0  0  0  0
   12.5263    9.4050    0.0000 C   0  0  0  0  0  0  0  0  0  0  0  0
   11.6603    9.9050    0.0000 C   0  0  0  0  0  0  0  0  0  0  0  0
   11.6603    7.9050    0.0000 C   0  0  0  0  0  0  0  0  0  0  0  0
    5.5981   -6.5950    0.0000 C   0  0  0  0  0  0  0  0  0  0  0  0
   10.7942    9.4050    0.0000 C   0  0  0  0  0  0  0  0  0  0  0  0
   10.7942    8.4050    0.0000 C   0  0  0  0  0  0  0  0  0  0  0  0
   13.5263    8.4050    0.0000 C   0  0  0  0  0  0  0  0  0  0  0  0
   13.0263    7.5390    0.0000 C   0  0  0  0  0  0  0  0  0  0  0  0
    4.7320   -5.0950    0.0000 C   0  0  0  0  0  0  0  0  0  0  0  0
   11.6603    6.9050    0.0000 C   0  0  0  0  0  0  0  0  0  0  0  0
    9.9282    7.9050    0.0000 C   0  0  0  0  0  0  0  0  0  0  0  0
    4.7320   -4.0950    0.0000 C   0  0  0  0  0  0  0  0  0  0  0  0
   10.7942    6.4050    0.0000 C   0  0  0  0  0  0  0  0  0  0  0  0
    3.8660   -3.5950    0.0000 C   0  0  0  0  0  0  0  0  0  0  0  0
    5.5981   -3.5950    0.0000 C   0  0  0  0  0  0  0  0  0  0  0  0
   10.7942    5.4050    0.0000 C   0  0  0  0  0  0  0  0  0  0  0  0
   11.6603    4.9050    0.0000 C   0  0  0  0  0  0  0  0  0  0  0  0
    5.5981   -2.5950    0.0000 C   0  0  0  0  0  0  0  0  0  0  0  0
    9.9282    4.9050    0.0000 C   0  0  0  0  0  0  0  0  0  0  0  0
    6.4641   -2.0950    0.0000 C   0  0  0  0  0  0  0  0  0  0  0  0
    9.9282    3.9050    0.0000 C   0  0  0  0  0  0  0  0  0  0  0  0
    6.4641   -1.0950    0.0000 C   0  0  0  0  0  0  0  0  0  0  0  0
    9.0622    3.4050    0.0000 C   0  0  0  0  0  0  0  0  0  0  0  0
    5.5981   -0.5950    0.0000 C   0  0  0  0  0  0  0  0  0  0  0  0
    9.0622    2.4050    0.0000 C   0  0  0  0  0  0  0  0  0  0  0  0
    7.3301   -0.5950    0.0000 C   0  0  0  0  0  0  0  0  0  0  0  0
    8.1962    1.9050    0.0000 C   0  0  0  0  0  0  0  0  0  0  0  0
    7.3301    0.4050    0.0000 C   0  0  0  0  0  0  0  0  0  0  0  0
    9.9282    1.9050    0.0000 C   0  0  0  0  0  0  0  0  0  0  0  0
    8.1962    0.9050    0.0000 C   0  0  0  0  0  0  0  0  0  0  0  0
    4.4030   -6.2850    0.0000 H   0  0  0  0  0  0  0  0  0  0  0  0
    2.3894   -7.9873    0.0000 H   0  0  0  0  0  0  0  0  0  0  0  0
    2.7880   -8.6776    0.0000 H   0  0  0  0  0  0  0  0  0  0  0  0
    4.4030   -8.9050    0.0000 H   0  0  0  0  0  0  0  0  0  0  0  0
    2.0000   -6.4750    0.0000 H   0  0  0  0  0  0  0  0  0  0  0  0
    1.3800   -7.0950    0.0000 H   0  0  0  0  0  0  0  0  0  0  0  0
    2.0000   -7.7150    0.0000 H   0  0  0  0  0  0  0  0  0  0  0  0
    3.0369   -5.9190    0.0000 H   0  0  0  0  0  0  0  0  0  0  0  0
    2.1900   -5.6920    0.0000 H   0  0  0  0  0  0  0  0  0  0  0  0
    1.9631   -6.5390    0.0000 H   0  0  0  0  0  0  0  0  0  0  0  0
    5.2690   -8.4050    0.0000 H   0  0  0  0  0  0  0  0  0  0  0  0
   13.1369    9.2973    0.0000 H   0  0  0  0  0  0  0  0  0  0  0  0
   12.7383    9.9876    0.0000 H   0  0  0  0  0  0  0  0  0  0  0  0
    3.3291   -5.2850    0.0000 H   0  0  0  0  0  0  0  0  0  0  0  0
   12.0588   10.3799    0.0000 H   0  0  0  0  0  0  0  0  0  0  0  0
   11.2617   10.3799    0.0000 H   0  0  0  0  0  0  0  0  0  0  0  0
   10.5822    9.9876    0.0000 H   0  0  0  0  0  0  0  0  0  0  0  0
   10.1836    9.2973    0.0000 H   0  0  0  0  0  0  0  0  0  0  0  0
    5.9081   -7.1319    0.0000 H   0  0  0  0  0  0  0  0  0  0  0  0
    6.1350   -6.2850    0.0000 H   0  0  0  0  0  0  0  0  0  0  0  0
    5.2881   -6.0581    0.0000 H   0  0  0  0  0  0  0  0  0  0  0  0
   13.5263    7.7850    0.0000 H   0  0  0  0  0  0  0  0  0  0  0  0
   12.4893    7.2290    0.0000 H   0  0  0  0  0  0  0  0  0  0  0  0
   13.3363    7.0020    0.0000 H   0  0  0  0  0  0  0  0  0  0  0  0
   13.5632    7.8490    0.0000 H   0  0  0  0  0  0  0  0  0  0  0  0
   14.1463    8.4050    0.0000 H   0  0  0  0  0  0  0  0  0  0  0  0
   13.5263    9.0250    0.0000 H   0  0  0  0  0  0  0  0  0  0  0  0
    4.4030   -9.9050    0.0000 H   0  0  0  0  0  0  0  0  0  0  0  0
    5.2690   -5.4050    0.0000 H   0  0  0  0  0  0  0  0  0  0  0  0
   12.1972    6.5950    0.0000 H   0  0  0  0  0  0  0  0  0  0  0  0
    9.6182    8.4419    0.0000 H   0  0  0  0  0  0  0  0  0  0  0  0
    9.3913    7.5950    0.0000 H   0  0  0  0  0  0  0  0  0  0  0  0
   10.2382    7.3681    0.0000 H   0  0  0  0  0  0  0  0  0  0  0  0
   10.2573    6.7150    0.0000 H   0  0  0  0  0  0  0  0  0  0  0  0
    4.1760   -3.0581    0.0000 H   0  0  0  0  0  0  0  0  0  0  0  0
    3.3291   -3.2850    0.0000 H   0  0  0  0  0  0  0  0  0  0  0  0
    3.5560   -4.1319    0.0000 H   0  0  0  0  0  0  0  0  0  0  0  0
    6.1350   -3.9050    0.0000 H   0  0  0  0  0  0  0  0  0  0  0  0
   11.3503    4.3681    0.0000 H   0  0  0  0  0  0  0  0  0  0  0  0
   12.1972    4.5950    0.0000 H   0  0  0  0  0  0  0  0  0  0  0  0
   11.9703    5.4419    0.0000 H   0  0  0  0  0  0  0  0  0  0  0  0
    5.0611   -2.2850    0.0000 H   0  0  0  0  0  0  0  0  0  0  0  0
    9.3913    5.2150    0.0000 H   0  0  0  0  0  0  0  0  0  0  0  0
    7.0010   -2.4050    0.0000 H   0  0  0  0  0  0  0  0  0  0  0  0
   10.4651    3.5950    0.0000 H   0  0  0  0  0  0  0  0  0  0  0  0
    8.5252    3.7150    0.0000 H   0  0  0  0  0  0  0  0  0  0  0  0
    5.9081   -0.0581    0.0000 H   0  0  0  0  0  0  0  0  0  0  0  0
    5.0611   -0.2850    0.0000 H   0  0  0  0  0  0  0  0  0  0  0  0
    5.2881   -1.1319    0.0000 H   0  0  0  0  0  0  0  0  0  0  0  0
    7.8671   -0.9050    0.0000 H   0  0  0  0  0  0  0  0  0  0  0  0
    7.6592    2.2150    0.0000 H   0  0  0  0  0  0  0  0  0  0  0  0
    6.7932    0.7150    0.0000 H   0  0  0  0  0  0  0  0  0  0  0  0
    9.6182    1.3681    0.0000 H   0  0  0  0  0  0  0  0  0  0  0  0
   10.4651    1.5950    0.0000 H   0  0  0  0  0  0  0  0  0  0  0  0
   10.2382    2.4419    0.0000 H   0  0  0  0  0  0  0  0  0  0  0  0
    8.7331    0.5950    0.0000 H   0  0  0  0  0  0  0  0  0  0  0  0
  5  1  1  6  0  0  0
  1 69  1  0  0  0  0
  2  3  1  0  0  0  0
  2  4  1  0  0  0  0
  2  7  1  0  0  0  0
  2  8  1  0  0  0  0
  3  6  1  0  0  0  0
  3 11  1  0  0  0  0
  3 42  1  0  0  0  0
  4  5  1  0  0  0  0
  4 43  1  0  0  0  0
  4 44  1  0  0  0  0
  5 10  1  0  0  0  0
  5 45  1  0  0  0  0
  6 10  2  0  0  0  0
  6 15  1  0  0  0  0
  7 46  1  0  0  0  0
  7 47  1  0  0  0  0
  7 48  1  0  0  0  0
  8 49  1  0  0  0  0
  8 50  1  0  0  0  0
  8 51  1  0  0  0  0
  9 12  1  0  0  0  0
  9 14  1  0  0  0  0
  9 18  1  0  0  0  0
  9 19  1  0  0  0  0
 10 52  1  0  0  0  0
 11 20  2  0  0  0  0
 11 55  1  0  0  0  0
 12 13  1  0  0  0  0
 12 53  1  0  0  0  0
 12 54  1  0  0  0  0
 13 16  1  0  0  0  0
 13 56  1  0  0  0  0
 13 57  1  0  0  0  0
 14 17  2  0  0  0  0
 14 21  1  0  0  0  0
 15 60  1  0  0  0  0
 15 61  1  0  0  0  0
 15 62  1  0  0  0  0
 16 17  1  0  0  0  0
 16 58  1  0  0  0  0
 16 59  1  0  0  0  0
 17 22  1  0  0  0  0
 18 63  1  0  0  0  0
 18 67  1  0  0  0  0
 18 68  1  0  0  0  0
 19 64  1  0  0  0  0
 19 65  1  0  0  0  0
 19 66  1  0  0  0  0
 20 23  1  0  0  0  0
 20 70  1  0  0  0  0
 21 24  2  0  0  0  0
 21 71  1  0  0  0  0
 22 72  1  0  0  0  0
 22 73  1  0  0  0  0
 22 74  1  0  0  0  0
 23 25  1  0  0  0  0
 23 26  2  0  0  0  0
 24 27  1  0  0  0  0
 24 75  1  0  0  0  0
 25 76  1  0  0  0  0
 25 77  1  0  0  0  0
 25 78  1  0  0  0  0
 26 29  1  0  0  0  0
 26 79  1  0  0  0  0
 27 28  1  0  0  0  0
 27 30  2  0  0  0  0
 28 80  1  0  0  0  0
 28 81  1  0  0  0  0
 28 82  1  0  0  0  0
 29 31  2  0  0  0  0
 29 83  1  0  0  0  0
 30 32  1  0  0  0  0
 30 84  1  0  0  0  0
 31 33  1  0  0  0  0
 31 85  1  0  0  0  0
 32 34  2  0  0  0  0
 32 86  1  0  0  0  0
 33 35  1  0  0  0  0
 33 37  2  0  0  0  0
 34 36  1  0  0  0  0
 34 87  1  0  0  0  0
 35 88  1  0  0  0  0
 35 89  1  0  0  0  0
 35 90  1  0  0  0  0
 36 38  2  0  0  0  0
 36 40  1  0  0  0  0
 37 39  1  0  0  0  0
 37 91  1  0  0  0  0
 38 41  1  0  0  0  0
 38 92  1  0  0  0  0
 39 41  2  0  0  0  0
 39 93  1  0  0  0  0
 40 94  1  0  0  0  0
 40 95  1  0  0  0  0
 40 96  1  0  0  0  0
 41 97  1  0  0  0  0
M  END
> <PUBCHEM_COMPOUND_CID>
23724629

> <PUBCHEM_COMPOUND_CANONICALIZED>
1

> <PUBCHEM_CACTVS_COMPLEXITY>
1240

> <PUBCHEM_CACTVS_HBOND_ACCEPTOR>
1

> <PUBCHEM_CACTVS_HBOND_DONOR>
1

> <PUBCHEM_CACTVS_ROTATABLE_BOND>
10

> <PUBCHEM_CACTVS_SUBSKEYS>
AAADcfB8IAAAAAAAAAAAAAAAAAAAAAAAAAAgQAAAAAAAAAAAAAAAGgAACAAADxSggAICAAAAAgCAAiBCAAAAAAAgAAAICAAAAAgIFAIAAQAAUAAEgAAIkAOAwMAPgAAAAAAAAAAAAAAAAAAAAAAAAAAAAA==

> <PUBCHEM_IUPAC_OPENEYE_NAME>
(1R)-3,5,5-trimethyl-4-[(1E,3E,5E,7E,9E,11E,13E,15E,17E)-3,7,12,16-tetramethyl-18-(2,6,6-trimethylcyclohexen-1-yl)octadeca-1,3,5,7,9,11,13,15,17-nonaenyl]cyclohex-2-en-1-ol

> <PUBCHEM_IUPAC_CAS_NAME>
(1R)-3,5,5-trimethyl-4-[(1E,3E,5E,7E,9E,11E,13E,15E,17E)-3,7,12,16-tetramethyl-18-(2,6,6-trimethyl-1-cyclohexenyl)octadeca-1,3,5,7,9,11,13,15,17-nonaenyl]-1-cyclohex-2-enol

> <PUBCHEM_IUPAC_NAME>
(1R)-3,5,5-trimethyl-4-[(1E,3E,5E,7E,9E,11E,13E,15E,17E)-3,7,12,16-tetramethyl-18-(2,6,6-trimethylcyclohexen-1-yl)octadeca-1,3,5,7,9,11,13,15,17-nonaenyl]cyclohex-2-en-1-ol

> <PUBCHEM_IUPAC_SYSTEMATIC_NAME>
(1R)-3,5,5-trimethyl-4-[(1E,3E,5E,7E,9E,11E,13E,15E,17E)-3,7,12,16-tetramethyl-18-(2,6,6-trimethylcyclohexen-1-yl)octadeca-1,3,5,7,9,11,13,15,17-nonaenyl]cyclohex-2-en-1-ol

> <PUBCHEM_IUPAC_TRADITIONAL_NAME>
(1R)-3,5,5-trimethyl-4-[(1E,3E,5E,7E,9E,11E,13E,15E,17E)-3,7,12,16-tetramethyl-18-(2,6,6-trimethylcyclohexen-1-yl)octadeca-1,3,5,7,9,11,13,15,17-nonaenyl]cyclohex-2-en-1-ol

> <PUBCHEM_IUPAC_INCHI>
InChI=1S/C40H56O/c1-30(18-13-20-32(3)23-25-37-34(5)22-15-27-39(37,7)8)16-11-12-17-31(2)19-14-21-33(4)24-26-38-35(6)28-36(41)29-40(38,9)10/h11-14,16-21,23-26,28,36,38,41H,15,22,27,29H2,1-10H3/b12-11+,18-13+,19-14+,25-23+,26-24+,30-16+,31-17+,32-20+,33-21+/t36-,38?/m0/s1

> <PUBCHEM_IUPAC_INCHIKEY>
ORAKUVXRZWMARG-DWADUKLPSA-N

> <PUBCHEM_XLOGP3_AA>
12.3

> <PUBCHEM_EXACT_MASS>
552.433116

> <PUBCHEM_MOLECULAR_FORMULA>
C40H56O

> <PUBCHEM_MOLECULAR_WEIGHT>
552.87204

> <PUBCHEM_OPENEYE_CAN_SMILES>
CC1=C(C(CCC1)(C)C)C=CC(=CC=CC(=CC=CC=C(C)C=CC=C(C)C=CC2C(=CC(CC2(C)C)O)C)C)C

> <PUBCHEM_OPENEYE_ISO_SMILES>
CC1=C(C(CCC1)(C)C)/C=C/C(=C/C=C/C(=C/C=C/C=C(\C)/C=C/C=C(\C)/C=C/C2C(=C[C@@H](CC2(C)C)O)C)/C)/C

> <PUBCHEM_CACTVS_TPSA>
20.2

> <PUBCHEM_MONOISOTOPIC_WEIGHT>
552.433116

> <PUBCHEM_TOTAL_CHARGE>
0

> <PUBCHEM_HEAVY_ATOM_COUNT>
41

> <PUBCHEM_ATOM_DEF_STEREO_COUNT>
1

> <PUBCHEM_ATOM_UDEF_STEREO_COUNT>
1

> <PUBCHEM_BOND_DEF_STEREO_COUNT>
9

> <PUBCHEM_BOND_UDEF_STEREO_COUNT>
0

> <PUBCHEM_ISOTOPIC_ATOM_COUNT>
0

> <PUBCHEM_COMPONENT_COUNT>
1

> <PUBCHEM_CACTVS_TAUTO_COUNT>
1

> <PUBCHEM_COORDINATE_TYPE>
1
5
255

> <PUBCHEM_BONDANNOTATIONS>
5  1  6
3  11  3

$$$$

