5281504
  -OEChem-07051212572D

 43 44  0     1  0  0  0  0  0999 V2000
    7.0671    0.9466    0.0000 O   0  0  0  0  0  0  0  0  0  0  0  0
    3.7320    0.7796    0.0000 O   0  0  0  0  0  0  0  0  0  0  0  0
    7.1620    2.7204    0.0000 O   0  0  0  0  0  0  0  0  0  0  0  0
    2.8660   -0.7204    0.0000 O   0  0  0  0  0  0  0  0  0  0  0  0
    5.4641    0.7796    0.0000 C   0  0  2  0  0  0  0  0  0  0  0  0
    4.5981    0.2796    0.0000 C   0  0  2  0  0  0  0  0  0  0  0  0
    6.3301    0.2796    0.0000 C   0  0  1  0  0  0  0  0  0  0  0  0
    4.5981   -0.7204    0.0000 C   0  0  0  0  0  0  0  0  0  0  0  0
    5.6733    1.7514    0.0000 C   0  0  0  0  0  0  0  0  0  0  0  0
    6.3301   -0.7204    0.0000 C   0  0  0  0  0  0  0  0  0  0  0  0
    5.4641   -1.2204    0.0000 C   0  0  0  0  0  0  0  0  0  0  0  0
    6.6620    1.8544    0.0000 C   0  0  0  0  0  0  0  0  0  0  0  0
    7.1962   -1.2204    0.0000 C   0  0  0  0  0  0  0  0  0  0  0  0
    7.1962   -2.2204    0.0000 C   0  0  0  0  0  0  0  0  0  0  0  0
    6.3301   -2.7204    0.0000 C   0  0  0  0  0  0  0  0  0  0  0  0
    5.4641   -2.2204    0.0000 C   0  0  0  0  0  0  0  0  0  0  0  0
    5.0055    2.4957    0.0000 C   0  0  0  0  0  0  0  0  0  0  0  0
    6.6515   -0.2241    0.0000 C   0  0  0  0  0  0  0  0  0  0  0  0
    8.0622   -0.7204    0.0000 C   0  0  0  0  0  0  0  0  0  0  0  0
    2.8660    0.2796    0.0000 C   0  0  0  0  0  0  0  0  0  0  0  0
    2.0000    0.7796    0.0000 C   0  0  0  0  0  0  0  0  0  0  0  0
    4.7771    1.2801    0.0000 H   0  0  0  0  0  0  0  0  0  0  0  0
    4.5981    0.8996    0.0000 H   0  0  0  0  0  0  0  0  0  0  0  0
    7.1071   -0.0652    0.0000 H   0  0  0  0  0  0  0  0  0  0  0  0
    3.9875   -0.6128    0.0000 H   0  0  0  0  0  0  0  0  0  0  0  0
    4.3860   -1.3031    0.0000 H   0  0  0  0  0  0  0  0  0  0  0  0
    6.1181   -1.3031    0.0000 H   0  0  0  0  0  0  0  0  0  0  0  0
    7.4082   -2.8031    0.0000 H   0  0  0  0  0  0  0  0  0  0  0  0
    7.8067   -2.1128    0.0000 H   0  0  0  0  0  0  0  0  0  0  0  0
    5.9316   -3.1954    0.0000 H   0  0  0  0  0  0  0  0  0  0  0  0
    6.7287   -3.1954    0.0000 H   0  0  0  0  0  0  0  0  0  0  0  0
    4.9272   -2.5304    0.0000 H   0  0  0  0  0  0  0  0  0  0  0  0
    5.1981    3.0850    0.0000 H   0  0  0  0  0  0  0  0  0  0  0  0
    4.3988    2.3678    0.0000 H   0  0  0  0  0  0  0  0  0  0  0  0
    7.0500   -0.6991    0.0000 H   0  0  0  0  0  0  0  0  0  0  0  0
    7.1264    0.1744    0.0000 H   0  0  0  0  0  0  0  0  0  0  0  0
    6.2529    0.2508    0.0000 H   0  0  0  0  0  0  0  0  0  0  0  0
    8.3722   -1.2574    0.0000 H   0  0  0  0  0  0  0  0  0  0  0  0
    8.5991   -0.4104    0.0000 H   0  0  0  0  0  0  0  0  0  0  0  0
    7.7522   -0.1835    0.0000 H   0  0  0  0  0  0  0  0  0  0  0  0
    2.3100    1.3165    0.0000 H   0  0  0  0  0  0  0  0  0  0  0  0
    1.4631    1.0896    0.0000 H   0  0  0  0  0  0  0  0  0  0  0  0
    1.6900    0.2426    0.0000 H   0  0  0  0  0  0  0  0  0  0  0  0
  1  7  1  0  0  0  0
  1 12  1  0  0  0  0
  6  2  1  6  0  0  0
  2 20  1  0  0  0  0
  3 12  2  0  0  0  0
  4 20  2  0  0  0  0
  5  6  1  0  0  0  0
  5  7  1  0  0  0  0
  5  9  1  0  0  0  0
  5 22  1  6  0  0  0
  6  8  1  0  0  0  0
  6 23  1  0  0  0  0
  7 10  1  0  0  0  0
  7 24  1  1  0  0  0
  8 11  1  0  0  0  0
  8 25  1  0  0  0  0
  8 26  1  0  0  0  0
  9 12  1  0  0  0  0
  9 17  2  0  0  0  0
 10 13  2  0  0  0  0
 10 27  1  0  0  0  0
 11 16  2  0  0  0  0
 11 18  1  0  0  0  0
 13 14  1  0  0  0  0
 13 19  1  0  0  0  0
 14 15  1  0  0  0  0
 14 28  1  0  0  0  0
 14 29  1  0  0  0  0
 15 16  1  0  0  0  0
 15 30  1  0  0  0  0
 15 31  1  0  0  0  0
 16 32  1  0  0  0  0
 17 33  1  0  0  0  0
 17 34  1  0  0  0  0
 18 35  1  0  0  0  0
 18 36  1  0  0  0  0
 18 37  1  0  0  0  0
 19 38  1  0  0  0  0
 19 39  1  0  0  0  0
 19 40  1  0  0  0  0
 20 21  1  0  0  0  0
 21 41  1  0  0  0  0
 21 42  1  0  0  0  0
 21 43  1  0  0  0  0
M  END
> <PUBCHEM_COMPOUND_CID>
5281504

> <PUBCHEM_COMPOUND_CANONICALIZED>
1

> <PUBCHEM_CACTVS_COMPLEXITY>
527

> <PUBCHEM_CACTVS_HBOND_ACCEPTOR>
4

> <PUBCHEM_CACTVS_HBOND_DONOR>
0

> <PUBCHEM_CACTVS_ROTATABLE_BOND>
2

> <PUBCHEM_CACTVS_SUBSKEYS>
AAADceB4OAAAAAAAAAAAAAAAAAAAASAAAAAAAAAAAAAAAACAAAAAGgAAAAAADRSggAICCAAABACIAiDSCAAAAAAgAAAACAEAAEgABBIAIQACEAAFwAAIIIPKyCCOAAAAAAAAAAAAAAAAAAAAAAAAAAAAAA==

> <PUBCHEM_IUPAC_OPENEYE_NAME>
[(3aR,4S,6E,10E,11aR)-6,10-dimethyl-3-methylene-2-oxo-3a,4,5,8,9,11a-hexahydrocyclodeca[b]furan-4-yl] acetate

> <PUBCHEM_IUPAC_CAS_NAME>
acetic acid [(3aR,4S,6E,10E,11aR)-6,10-dimethyl-3-methylene-2-oxo-3a,4,5,8,9,11a-hexahydrocyclodeca[b]furan-4-yl] ester

> <PUBCHEM_IUPAC_NAME>
[(3aR,4S,6E,10E,11aR)-6,10-dimethyl-3-methylidene-2-oxo-3a,4,5,8,9,11a-hexahydrocyclodeca[b]furan-4-yl] acetate

> <PUBCHEM_IUPAC_SYSTEMATIC_NAME>
[(3aR,4S,6E,10E,11aR)-6,10-dimethyl-3-methylidene-2-oxidanylidene-3a,4,5,8,9,11a-hexahydrocyclodeca[b]furan-4-yl] ethanoate

> <PUBCHEM_IUPAC_TRADITIONAL_NAME>
acetic acid [(3aR,4S,6E,10E,11aR)-2-keto-6,10-dimethyl-3-methylene-3a,4,5,8,9,11a-hexahydrocyclodeca[b]furan-4-yl] ester

> <PUBCHEM_IUPAC_INCHI>
InChI=1S/C17H22O4/c1-10-6-5-7-11(2)9-15-16(12(3)17(19)21-15)14(8-10)20-13(4)18/h6,9,14-16H,3,5,7-8H2,1-2,4H3/b10-6+,11-9+/t14-,15+,16+/m0/s1

> <PUBCHEM_IUPAC_INCHIKEY>
UPNVKIZABMRHNR-DUUXJKDPSA-N

> <PUBCHEM_XLOGP3_AA>
2.4

> <PUBCHEM_EXACT_MASS>
290.151809

> <PUBCHEM_MOLECULAR_FORMULA>
C17H22O4

> <PUBCHEM_MOLECULAR_WEIGHT>
290.35418

> <PUBCHEM_OPENEYE_CAN_SMILES>
CC1=CC2C(C(CC(=CCC1)C)OC(=O)C)C(=C)C(=O)O2

> <PUBCHEM_OPENEYE_ISO_SMILES>
C/C/1=C\[C@@H]2[C@@H]([C@H](C/C(=C/CC1)/C)OC(=O)C)C(=C)C(=O)O2

> <PUBCHEM_CACTVS_TPSA>
52.6

> <PUBCHEM_MONOISOTOPIC_WEIGHT>
290.151809

> <PUBCHEM_TOTAL_CHARGE>
0

> <PUBCHEM_HEAVY_ATOM_COUNT>
21

> <PUBCHEM_ATOM_DEF_STEREO_COUNT>
3

> <PUBCHEM_ATOM_UDEF_STEREO_COUNT>
0

> <PUBCHEM_BOND_DEF_STEREO_COUNT>
2

> <PUBCHEM_BOND_UDEF_STEREO_COUNT>
0

> <PUBCHEM_ISOTOPIC_ATOM_COUNT>
0

> <PUBCHEM_COMPONENT_COUNT>
1

> <PUBCHEM_CACTVS_TAUTO_COUNT>
1

> <PUBCHEM_COORDINATE_TYPE>
1
5
255

> <PUBCHEM_BONDANNOTATIONS>
6  2  6
5  22  6
7  24  5

$$$$

