11351
  -OEChem-06261205342D

 35 36  0     0  0  0  0  0  0999 V2000
    2.5369   -0.0670    0.0000 O   0  0  0  0  0  0  0  0  0  0  0  0
    6.0010   -2.0670    0.0000 C   0  0  0  0  0  0  0  0  0  0  0  0
    5.1350   -1.5670    0.0000 C   0  0  0  0  0  0  0  0  0  0  0  0
    6.8671   -2.5670    0.0000 C   0  0  0  0  0  0  0  0  0  0  0  0
    5.5010   -2.9330    0.0000 C   0  0  0  0  0  0  0  0  0  0  0  0
    6.5010   -1.2010    0.0000 C   0  0  0  0  0  0  0  0  0  0  0  0
    5.1350   -0.5670    0.0000 C   0  0  0  0  0  0  0  0  0  0  0  0
    4.2690   -2.0670    0.0000 C   0  0  0  0  0  0  0  0  0  0  0  0
    4.2690   -0.0670    0.0000 C   0  0  0  0  0  0  0  0  0  0  0  0
    3.4030   -0.5670    0.0000 C   0  0  0  0  0  0  0  0  0  0  0  0
    3.4030   -1.5670    0.0000 C   0  0  0  0  0  0  0  0  0  0  0  0
    4.2690    0.9330    0.0000 C   0  0  0  0  0  0  0  0  0  0  0  0
    5.1350    1.4330    0.0000 C   0  0  0  0  0  0  0  0  0  0  0  0
    3.4030    1.4330    0.0000 C   0  0  0  0  0  0  0  0  0  0  0  0
    5.1350    2.4330    0.0000 C   0  0  0  0  0  0  0  0  0  0  0  0
    3.4030    2.4330    0.0000 C   0  0  0  0  0  0  0  0  0  0  0  0
    4.2690    2.9330    0.0000 C   0  0  0  0  0  0  0  0  0  0  0  0
    7.0380   -1.5110    0.0000 H   0  0  0  0  0  0  0  0  0  0  0  0
    6.8110   -0.6640    0.0000 H   0  0  0  0  0  0  0  0  0  0  0  0
    5.9641   -0.8910    0.0000 H   0  0  0  0  0  0  0  0  0  0  0  0
    4.9641   -2.6230    0.0000 H   0  0  0  0  0  0  0  0  0  0  0  0
    5.1910   -3.4700    0.0000 H   0  0  0  0  0  0  0  0  0  0  0  0
    6.0380   -3.2430    0.0000 H   0  0  0  0  0  0  0  0  0  0  0  0
    6.5571   -3.1039    0.0000 H   0  0  0  0  0  0  0  0  0  0  0  0
    7.4040   -2.8770    0.0000 H   0  0  0  0  0  0  0  0  0  0  0  0
    7.1771   -2.0300    0.0000 H   0  0  0  0  0  0  0  0  0  0  0  0
    5.6720   -0.2570    0.0000 H   0  0  0  0  0  0  0  0  0  0  0  0
    4.2690   -2.6870    0.0000 H   0  0  0  0  0  0  0  0  0  0  0  0
    2.8660   -1.8770    0.0000 H   0  0  0  0  0  0  0  0  0  0  0  0
    5.6720    1.1230    0.0000 H   0  0  0  0  0  0  0  0  0  0  0  0
    2.8660    1.1230    0.0000 H   0  0  0  0  0  0  0  0  0  0  0  0
    5.6720    2.7430    0.0000 H   0  0  0  0  0  0  0  0  0  0  0  0
    2.8660    2.7430    0.0000 H   0  0  0  0  0  0  0  0  0  0  0  0
    2.0000   -0.3770    0.0000 H   0  0  0  0  0  0  0  0  0  0  0  0
    4.2690    3.5530    0.0000 H   0  0  0  0  0  0  0  0  0  0  0  0
  1 10  1  0  0  0  0
  1 34  1  0  0  0  0
  2  3  1  0  0  0  0
  2  4  1  0  0  0  0
  2  5  1  0  0  0  0
  2  6  1  0  0  0  0
  3  7  2  0  0  0  0
  3  8  1  0  0  0  0
  4 24  1  0  0  0  0
  4 25  1  0  0  0  0
  4 26  1  0  0  0  0
  5 21  1  0  0  0  0
  5 22  1  0  0  0  0
  5 23  1  0  0  0  0
  6 18  1  0  0  0  0
  6 19  1  0  0  0  0
  6 20  1  0  0  0  0
  7  9  1  0  0  0  0
  7 27  1  0  0  0  0
  8 11  2  0  0  0  0
  8 28  1  0  0  0  0
  9 10  2  0  0  0  0
  9 12  1  0  0  0  0
 10 11  1  0  0  0  0
 11 29  1  0  0  0  0
 12 13  2  0  0  0  0
 12 14  1  0  0  0  0
 13 15  1  0  0  0  0
 13 30  1  0  0  0  0
 14 16  2  0  0  0  0
 14 31  1  0  0  0  0
 15 17  2  0  0  0  0
 15 32  1  0  0  0  0
 16 17  1  0  0  0  0
 16 33  1  0  0  0  0
 17 35  1  0  0  0  0
M  END
> <PUBCHEM_COMPOUND_CID>
11351

> <PUBCHEM_COMPOUND_CANONICALIZED>
1

> <PUBCHEM_CACTVS_COMPLEXITY>
234

> <PUBCHEM_CACTVS_HBOND_ACCEPTOR>
1

> <PUBCHEM_CACTVS_HBOND_DONOR>
1

> <PUBCHEM_CACTVS_ROTATABLE_BOND>
2

> <PUBCHEM_CACTVS_SUBSKEYS>
AAADceB4IAAAAAAAAAAAAAAAAAAAAAAAAAAwYAAAAAAAAAABQAAAGgAACAAADgSAmAAyBoAAAgCAAiBCAAACAAAgIAAIiAAGCIgIJiKCERKAcAAkwBEImAeAwPAPoAACAAAIAABAAAQAABAAAAAAAAAAAA==

> <PUBCHEM_IUPAC_OPENEYE_NAME>
4-tert-butyl-2-phenyl-phenol

> <PUBCHEM_IUPAC_CAS_NAME>
4-tert-butyl-2-phenylphenol

> <PUBCHEM_IUPAC_NAME>
4-tert-butyl-2-phenylphenol

> <PUBCHEM_IUPAC_SYSTEMATIC_NAME>
4-tert-butyl-2-phenyl-phenol

> <PUBCHEM_IUPAC_TRADITIONAL_NAME>
4-tert-butyl-2-phenyl-phenol

> <PUBCHEM_IUPAC_INCHI>
InChI=1S/C16H18O/c1-16(2,3)13-9-10-15(17)14(11-13)12-7-5-4-6-8-12/h4-11,17H,1-3H3

> <PUBCHEM_IUPAC_INCHIKEY>
IYPYKRAEQZVXSC-UHFFFAOYSA-N

> <PUBCHEM_XLOGP3>
4.8

> <PUBCHEM_EXACT_MASS>
226.135765

> <PUBCHEM_MOLECULAR_FORMULA>
C16H18O

> <PUBCHEM_MOLECULAR_WEIGHT>
226.31352

> <PUBCHEM_OPENEYE_CAN_SMILES>
CC(C)(C)C1=CC(=C(C=C1)O)C2=CC=CC=C2

> <PUBCHEM_OPENEYE_ISO_SMILES>
CC(C)(C)C1=CC(=C(C=C1)O)C2=CC=CC=C2

> <PUBCHEM_CACTVS_TPSA>
20.2

> <PUBCHEM_MONOISOTOPIC_WEIGHT>
226.135765

> <PUBCHEM_TOTAL_CHARGE>
0

> <PUBCHEM_HEAVY_ATOM_COUNT>
17

> <PUBCHEM_ATOM_DEF_STEREO_COUNT>
0

> <PUBCHEM_ATOM_UDEF_STEREO_COUNT>
0

> <PUBCHEM_BOND_DEF_STEREO_COUNT>
0

> <PUBCHEM_BOND_UDEF_STEREO_COUNT>
0

> <PUBCHEM_ISOTOPIC_ATOM_COUNT>
0

> <PUBCHEM_COMPONENT_COUNT>
1

> <PUBCHEM_CACTVS_TAUTO_COUNT>
3

> <PUBCHEM_COORDINATE_TYPE>
1
5
255

> <PUBCHEM_BONDANNOTATIONS>
10  11  8
12  13  8
12  14  8
13  15  8
14  16  8
15  17  8
16  17  8
3  7  8
3  8  8
7  9  8
8  11  8
9  10  8

$$$$

