68271
  -OEChem-07051212502D

 86 90  0     0  0  0  0  0  0999 V2000
    8.1224    6.3978    0.0000 O   0  0  0  0  0  0  0  0  0  0  0  0
    2.5369   -0.5174    0.0000 O   0  0  0  0  0  0  0  0  0  0  0  0
    6.7274    5.3711    0.0000 O   0  0  0  0  0  0  0  0  0  0  0  0
    3.4030   -2.0174    0.0000 O   0  0  0  0  0  0  0  0  0  0  0  0
   15.5146    0.9561    0.0000 O   0  0  0  0  0  0  0  0  0  0  0  0
    9.9236   -6.3978    0.0000 O   0  0  0  0  0  0  0  0  0  0  0  0
   14.4655    2.3343    0.0000 O   0  0  0  0  0  0  0  0  0  0  0  0
   11.3185   -5.3711    0.0000 O   0  0  0  0  0  0  0  0  0  0  0  0
    7.5363   -0.0167    0.0000 N   0  0  0  0  0  0  0  0  0  0  0  0
    9.0062    1.3528    0.0000 N   0  0  0  0  0  0  0  0  0  0  0  0
    9.0397   -1.3862    0.0000 N   0  0  0  0  0  0  0  0  0  0  0  0
   10.5415   -0.0167    0.0000 N   0  0  0  0  0  0  0  0  0  0  0  0
    8.5056    2.9550    0.0000 C   0  0  0  0  0  0  0  0  0  0  0  0
    6.0010   -0.5173    0.0000 C   0  0  0  0  0  0  0  0  0  0  0  0
    8.2043    1.9873    0.0000 C   0  0  0  0  0  0  0  0  0  0  0  0
    6.9687    0.7517    0.0000 C   0  0  0  0  0  0  0  0  0  0  0  0
    6.0010    0.4838    0.0000 C   0  0  0  0  0  0  0  0  0  0  0  0
    6.9687   -0.7852    0.0000 C   0  0  0  0  0  0  0  0  0  0  0  0
    9.5068    2.9550    0.0000 C   0  0  0  0  0  0  0  0  0  0  0  0
    9.8416    2.0208    0.0000 C   0  0  0  0  0  0  0  0  0  0  0  0
    7.2366    1.7194    0.0000 C   0  0  0  0  0  0  0  0  0  0  0  0
    7.9129    3.7604    0.0000 C   0  0  0  0  0  0  0  0  0  0  0  0
    5.1350   -1.0173    0.0000 C   0  0  0  0  0  0  0  0  0  0  0  0
   12.0784    0.5173    0.0000 C   0  0  0  0  0  0  0  0  0  0  0  0
   11.1090    0.7852    0.0000 C   0  0  0  0  0  0  0  0  0  0  0  0
    9.5403   -2.9550    0.0000 C   0  0  0  0  0  0  0  0  0  0  0  0
    8.2378   -2.0208    0.0000 C   0  0  0  0  0  0  0  0  0  0  0  0
    7.2701   -1.7194    0.0000 C   0  0  0  0  0  0  0  0  0  0  0  0
   10.8093    1.7194    0.0000 C   0  0  0  0  0  0  0  0  0  0  0  0
    8.5391   -2.9550    0.0000 C   0  0  0  0  0  0  0  0  0  0  0  0
   12.0784   -0.4838    0.0000 C   0  0  0  0  0  0  0  0  0  0  0  0
    9.8416   -1.9873    0.0000 C   0  0  0  0  0  0  0  0  0  0  0  0
   11.1425   -0.7517    0.0000 C   0  0  0  0  0  0  0  0  0  0  0  0
   12.8741    1.1230    0.0000 C   0  0  0  0  0  0  0  0  0  0  0  0
    5.2052    1.0893    0.0000 C   0  0  0  0  0  0  0  0  0  0  0  0
   10.1330   -3.7604    0.0000 C   0  0  0  0  0  0  0  0  0  0  0  0
   10.0824    3.7727    0.0000 C   0  0  0  0  0  0  0  0  0  0  0  0
   10.8428   -1.7194    0.0000 C   0  0  0  0  0  0  0  0  0  0  0  0
    8.3140    4.6764    0.0000 C   0  0  0  0  0  0  0  0  0  0  0  0
    4.2690   -0.5174    0.0000 C   0  0  0  0  0  0  0  0  0  0  0  0
    7.8684   -3.6967    0.0000 C   0  0  0  0  0  0  0  0  0  0  0  0
   12.8769   -1.0858    0.0000 C   0  0  0  0  0  0  0  0  0  0  0  0
   13.7965    0.7367    0.0000 C   0  0  0  0  0  0  0  0  0  0  0  0
    9.7319   -4.6764    0.0000 C   0  0  0  0  0  0  0  0  0  0  0  0
    7.7212    5.4818    0.0000 C   0  0  0  0  0  0  0  0  0  0  0  0
    3.4030   -1.0174    0.0000 C   0  0  0  0  0  0  0  0  0  0  0  0
   14.5922    1.3424    0.0000 C   0  0  0  0  0  0  0  0  0  0  0  0
   10.3247   -5.4818    0.0000 C   0  0  0  0  0  0  0  0  0  0  0  0
    6.7982    2.1578    0.0000 H   0  0  0  0  0  0  0  0  0  0  0  0
    8.1563   -0.0167    0.0000 H   0  0  0  0  0  0  0  0  0  0  0  0
    9.0078    0.7328    0.0000 H   0  0  0  0  0  0  0  0  0  0  0  0
    7.3968    4.1039    0.0000 H   0  0  0  0  0  0  0  0  0  0  0  0
    7.4850    3.3117    0.0000 H   0  0  0  0  0  0  0  0  0  0  0  0
    4.7365   -1.4923    0.0000 H   0  0  0  0  0  0  0  0  0  0  0  0
    5.5336   -1.4923    0.0000 H   0  0  0  0  0  0  0  0  0  0  0  0
    6.8339   -2.1600    0.0000 H   0  0  0  0  0  0  0  0  0  0  0  0
   11.2459    2.1597    0.0000 H   0  0  0  0  0  0  0  0  0  0  0  0
   13.2093    1.6446    0.0000 H   0  0  0  0  0  0  0  0  0  0  0  0
   12.4186    1.5436    0.0000 H   0  0  0  0  0  0  0  0  0  0  0  0
    5.5806    1.5828    0.0000 H   0  0  0  0  0  0  0  0  0  0  0  0
    4.7117    1.4647    0.0000 H   0  0  0  0  0  0  0  0  0  0  0  0
    4.8298    0.5959    0.0000 H   0  0  0  0  0  0  0  0  0  0  0  0
   10.6492   -4.1039    0.0000 H   0  0  0  0  0  0  0  0  0  0  0  0
   10.5610   -3.3117    0.0000 H   0  0  0  0  0  0  0  0  0  0  0  0
   10.5894    3.4158    0.0000 H   0  0  0  0  0  0  0  0  0  0  0  0
   10.4393    4.2797    0.0000 H   0  0  0  0  0  0  0  0  0  0  0  0
    9.5754    4.1296    0.0000 H   0  0  0  0  0  0  0  0  0  0  0  0
   11.2726   -2.1662    0.0000 H   0  0  0  0  0  0  0  0  0  0  0  0
    8.8301    4.3328    0.0000 H   0  0  0  0  0  0  0  0  0  0  0  0
    8.7419    5.1250    0.0000 H   0  0  0  0  0  0  0  0  0  0  0  0
    4.6675   -0.0424    0.0000 H   0  0  0  0  0  0  0  0  0  0  0  0
    3.8704   -0.0424    0.0000 H   0  0  0  0  0  0  0  0  0  0  0  0
    7.4085   -3.2808    0.0000 H   0  0  0  0  0  0  0  0  0  0  0  0
    7.4526   -4.1565    0.0000 H   0  0  0  0  0  0  0  0  0  0  0  0
    8.3283   -4.1125    0.0000 H   0  0  0  0  0  0  0  0  0  0  0  0
   12.5036   -1.5809    0.0000 H   0  0  0  0  0  0  0  0  0  0  0  0
   13.3719   -1.4591    0.0000 H   0  0  0  0  0  0  0  0  0  0  0  0
   13.2501   -0.5908    0.0000 H   0  0  0  0  0  0  0  0  0  0  0  0
   13.4613    0.2151    0.0000 H   0  0  0  0  0  0  0  0  0  0  0  0
   14.2520    0.3161    0.0000 H   0  0  0  0  0  0  0  0  0  0  0  0
    9.2158   -4.3328    0.0000 H   0  0  0  0  0  0  0  0  0  0  0  0
    9.3040   -5.1250    0.0000 H   0  0  0  0  0  0  0  0  0  0  0  0
    7.7548    6.8971    0.0000 H   0  0  0  0  0  0  0  0  0  0  0  0
    2.0000   -0.8274    0.0000 H   0  0  0  0  0  0  0  0  0  0  0  0
   16.0079    1.3316    0.0000 H   0  0  0  0  0  0  0  0  0  0  0  0
   10.2911   -6.8971    0.0000 H   0  0  0  0  0  0  0  0  0  0  0  0
  1 45  1  0  0  0  0
  1 83  1  0  0  0  0
  2 46  1  0  0  0  0
  2 84  1  0  0  0  0
  3 45  2  0  0  0  0
  4 46  2  0  0  0  0
  5 47  1  0  0  0  0
  5 85  1  0  0  0  0
  6 48  1  0  0  0  0
  6 86  1  0  0  0  0
  7 47  2  0  0  0  0
  8 48  2  0  0  0  0
  9 16  1  0  0  0  0
  9 18  1  0  0  0  0
  9 50  1  0  0  0  0
 10 15  1  0  0  0  0
 10 20  1  0  0  0  0
 10 51  1  0  0  0  0
 11 27  2  0  0  0  0
 11 32  1  0  0  0  0
 12 25  1  0  0  0  0
 12 33  2  0  0  0  0
 13 15  2  0  0  0  0
 13 19  1  0  0  0  0
 13 22  1  0  0  0  0
 14 17  2  0  0  0  0
 14 18  1  0  0  0  0
 14 23  1  0  0  0  0
 15 21  1  0  0  0  0
 16 17  1  0  0  0  0
 16 21  2  0  0  0  0
 17 35  1  0  0  0  0
 18 28  2  0  0  0  0
 19 20  2  0  0  0  0
 19 37  1  0  0  0  0
 20 29  1  0  0  0  0
 21 49  1  0  0  0  0
 22 39  1  0  0  0  0
 22 52  1  0  0  0  0
 22 53  1  0  0  0  0
 23 40  1  0  0  0  0
 23 54  1  0  0  0  0
 23 55  1  0  0  0  0
 24 25  1  0  0  0  0
 24 31  2  0  0  0  0
 24 34  1  0  0  0  0
 25 29  2  0  0  0  0
 26 30  2  0  0  0  0
 26 32  1  0  0  0  0
 26 36  1  0  0  0  0
 27 28  1  0  0  0  0
 27 30  1  0  0  0  0
 28 56  1  0  0  0  0
 29 57  1  0  0  0  0
 30 41  1  0  0  0  0
 31 33  1  0  0  0  0
 31 42  1  0  0  0  0
 32 38  2  0  0  0  0
 33 38  1  0  0  0  0
 34 43  1  0  0  0  0
 34 58  1  0  0  0  0
 34 59  1  0  0  0  0
 35 60  1  0  0  0  0
 35 61  1  0  0  0  0
 35 62  1  0  0  0  0
 36 44  1  0  0  0  0
 36 63  1  0  0  0  0
 36 64  1  0  0  0  0
 37 65  1  0  0  0  0
 37 66  1  0  0  0  0
 37 67  1  0  0  0  0
 38 68  1  0  0  0  0
 39 45  1  0  0  0  0
 39 69  1  0  0  0  0
 39 70  1  0  0  0  0
 40 46  1  0  0  0  0
 40 71  1  0  0  0  0
 40 72  1  0  0  0  0
 41 73  1  0  0  0  0
 41 74  1  0  0  0  0
 41 75  1  0  0  0  0
 42 76  1  0  0  0  0
 42 77  1  0  0  0  0
 42 78  1  0  0  0  0
 43 47  1  0  0  0  0
 43 79  1  0  0  0  0
 43 80  1  0  0  0  0
 44 48  1  0  0  0  0
 44 81  1  0  0  0  0
 44 82  1  0  0  0  0
M  END
> <PUBCHEM_COMPOUND_CID>
68271

> <PUBCHEM_COMPOUND_CANONICALIZED>
1

> <PUBCHEM_CACTVS_COMPLEXITY>
1170

> <PUBCHEM_CACTVS_HBOND_ACCEPTOR>
10

> <PUBCHEM_CACTVS_HBOND_DONOR>
6

> <PUBCHEM_CACTVS_ROTATABLE_BOND>
12

> <PUBCHEM_CACTVS_SUBSKEYS>
AAADcfB/vAAAAAAAAAAAAAAAAAAAAWLFiwAAAAAAAAAAAAAB/gAAHgAQCAAADAiBngAyyLLJkgCoAyTyTACCgCAhAiAAmSEwZJgIIHLA0NGEZAhkkADIyAeY2fOegAAAAAAAAAAAAAAAAAAAAAAAAAAAAA==

> <PUBCHEM_IUPAC_OPENEYE_NAME>
3-[7,12,17-tris(2-carboxyethyl)-3,8,13,18-tetramethyl-21,22-dihydroporphyrin-2-yl]propanoic acid

> <PUBCHEM_IUPAC_CAS_NAME>
3-[7,12,17-tris(2-carboxyethyl)-3,8,13,18-tetramethyl-21,22-dihydroporphyrin-2-yl]propanoic acid

> <PUBCHEM_IUPAC_NAME>
3-[7,12,17-tris(2-carboxyethyl)-3,8,13,18-tetramethyl-21,22-dihydroporphyrin-2-yl]propanoic acid

> <PUBCHEM_IUPAC_SYSTEMATIC_NAME>
3-[7,12,17-tris(3-hydroxy-3-oxopropyl)-3,8,13,18-tetramethyl-21,22-dihydroporphyrin-2-yl]propanoic acid

> <PUBCHEM_IUPAC_TRADITIONAL_NAME>
3-[7,12,17-tris(2-carboxyethyl)-3,8,13,18-tetramethyl-21,22-dihydroporphin-2-yl]propionic acid

> <PUBCHEM_IUPAC_INCHI>
InChI=1S/C36H38N4O8/c1-17-21(5-9-33(41)42)29-14-26-19(3)23(7-11-35(45)46)31(39-26)16-28-20(4)24(8-12-36(47)48)32(40-28)15-27-18(2)22(6-10-34(43)44)30(38-27)13-25(17)37-29/h13-16,37-38H,5-12H2,1-4H3,(H,41,42)(H,43,44)(H,45,46)(H,47,48)

> <PUBCHEM_IUPAC_INCHIKEY>
VCCUOZSDXVZCSK-UHFFFAOYSA-N

> <PUBCHEM_XLOGP3_AA>
2.6

> <PUBCHEM_EXACT_MASS>
654.268964

> <PUBCHEM_MOLECULAR_FORMULA>
C36H38N4O8

> <PUBCHEM_MOLECULAR_WEIGHT>
654.70892

> <PUBCHEM_OPENEYE_CAN_SMILES>
CC1=C(C2=CC3=NC(=CC4=NC(=CC5=C(C(=C(N5)C=C1N2)CCC(=O)O)C)C(=C4C)CCC(=O)O)C(=C3C)CCC(=O)O)CCC(=O)O

> <PUBCHEM_OPENEYE_ISO_SMILES>
CC1=C(C2=CC3=NC(=CC4=NC(=CC5=C(C(=C(N5)C=C1N2)CCC(=O)O)C)C(=C4C)CCC(=O)O)C(=C3C)CCC(=O)O)CCC(=O)O

> <PUBCHEM_CACTVS_TPSA>
207

> <PUBCHEM_MONOISOTOPIC_WEIGHT>
654.268964

> <PUBCHEM_TOTAL_CHARGE>
0

> <PUBCHEM_HEAVY_ATOM_COUNT>
48

> <PUBCHEM_ATOM_DEF_STEREO_COUNT>
0

> <PUBCHEM_ATOM_UDEF_STEREO_COUNT>
0

> <PUBCHEM_BOND_DEF_STEREO_COUNT>
0

> <PUBCHEM_BOND_UDEF_STEREO_COUNT>
0

> <PUBCHEM_ISOTOPIC_ATOM_COUNT>
0

> <PUBCHEM_COMPONENT_COUNT>
1

> <PUBCHEM_CACTVS_TAUTO_COUNT>
2

> <PUBCHEM_COORDINATE_TYPE>
1
5
255

> <PUBCHEM_BONDANNOTATIONS>
10  15  8
10  20  8
11  27  8
11  32  8
12  25  8
12  33  8
13  15  8
13  19  8
14  17  8
14  18  8
15  21  8
16  17  8
16  21  8
18  28  8
19  20  8
20  29  8
25  29  8
27  28  8
32  38  8
33  38  8
9  16  8
9  18  8

$$$$

