47205716
  -OEChem-06241223002D

 33 33  0     0  0  0  0  0  0999 V2000
    8.6970   -0.5763    0.0000 Cl  0  0  0  0  0  0  0  0  0  0  0  0
    5.6412    2.4709    0.0000 O   0  0  0  0  0  0  0  0  0  0  0  0
    3.6197   -0.5146    0.0000 O   0  0  0  0  0  0  0  0  0  0  0  0
    5.1060    0.8236    0.0000 N   0  0  0  0  0  0  0  0  0  0  0  0
    7.6092    1.7715    0.0000 N   0  0  0  0  0  0  0  0  0  0  0  0
    2.4608    0.7725    0.0000 N   0  0  0  0  0  0  0  0  0  0  0  0
    5.3139   -0.1545    0.0000 C   0  0  0  0  0  0  0  0  0  0  0  0
    4.5708   -0.8236    0.0000 C   0  0  0  0  0  0  0  0  0  0  0  0
    4.7787   -1.8018    0.0000 C   0  0  0  0  0  0  0  0  0  0  0  0
    4.1550    1.1327    0.0000 C   0  0  0  0  0  0  0  0  0  0  0  0
    5.8492    1.4928    0.0000 C   0  0  0  0  0  0  0  0  0  0  0  0
    6.8002    1.1838    0.0000 C   0  0  0  0  0  0  0  0  0  0  0  0
    4.0355   -2.4709    0.0000 C   0  0  0  0  0  0  0  0  0  0  0  0
    3.4118    0.4635    0.0000 C   0  0  0  0  0  0  0  0  0  0  0  0
    7.1092    0.2327    0.0000 C   0  0  0  0  0  0  0  0  0  0  0  0
    8.4182    1.1838    0.0000 C   0  0  0  0  0  0  0  0  0  0  0  0
    8.1092    0.2327    0.0000 C   0  0  0  0  0  0  0  0  0  0  0  0
    5.6425   -0.6803    0.0000 H   0  0  0  0  0  0  0  0  0  0  0  0
    5.8888    0.0777    0.0000 H   0  0  0  0  0  0  0  0  0  0  0  0
    4.2422   -0.2978    0.0000 H   0  0  0  0  0  0  0  0  0  0  0  0
    3.9959   -1.0559    0.0000 H   0  0  0  0  0  0  0  0  0  0  0  0
    5.1072   -2.3276    0.0000 H   0  0  0  0  0  0  0  0  0  0  0  0
    5.3535   -1.5695    0.0000 H   0  0  0  0  0  0  0  0  0  0  0  0
    4.4460    1.6801    0.0000 H   0  0  0  0  0  0  0  0  0  0  0  0
    3.6664    1.5144    0.0000 H   0  0  0  0  0  0  0  0  0  0  0  0
    3.6207   -2.0102    0.0000 H   0  0  0  0  0  0  0  0  0  0  0  0
    3.5748   -2.8858    0.0000 H   0  0  0  0  0  0  0  0  0  0  0  0
    4.4504   -2.9317    0.0000 H   0  0  0  0  0  0  0  0  0  0  0  0
    7.6092    2.3915    0.0000 H   0  0  0  0  0  0  0  0  0  0  0  0
    6.7448   -0.2689    0.0000 H   0  0  0  0  0  0  0  0  0  0  0  0
    9.0079    1.3753    0.0000 H   0  0  0  0  0  0  0  0  0  0  0  0
    2.0000    0.3577    0.0000 H   0  0  0  0  0  0  0  0  0  0  0  0
    2.3318    1.3790    0.0000 H   0  0  0  0  0  0  0  0  0  0  0  0
  1 17  1  0  0  0  0
  2 11  2  0  0  0  0
  3 14  2  0  0  0  0
  4  7  1  0  0  0  0
  4 10  1  0  0  0  0
  4 11  1  0  0  0  0
  5 12  1  0  0  0  0
  5 16  1  0  0  0  0
  5 29  1  0  0  0  0
  6 14  1  0  0  0  0
  6 32  1  0  0  0  0
  6 33  1  0  0  0  0
  7  8  1  0  0  0  0
  7 18  1  0  0  0  0
  7 19  1  0  0  0  0
  8  9  1  0  0  0  0
  8 20  1  0  0  0  0
  8 21  1  0  0  0  0
  9 13  1  0  0  0  0
  9 22  1  0  0  0  0
  9 23  1  0  0  0  0
 10 14  1  0  0  0  0
 10 24  1  0  0  0  0
 10 25  1  0  0  0  0
 11 12  1  0  0  0  0
 12 15  2  0  0  0  0
 13 26  1  0  0  0  0
 13 27  1  0  0  0  0
 13 28  1  0  0  0  0
 15 17  1  0  0  0  0
 15 30  1  0  0  0  0
 16 17  2  0  0  0  0
 16 31  1  0  0  0  0
M  END
> <PUBCHEM_COMPOUND_CID>
47205716

> <PUBCHEM_COMPOUND_CANONICALIZED>
1

> <PUBCHEM_CACTVS_COMPLEXITY>
286

> <PUBCHEM_CACTVS_HBOND_ACCEPTOR>
2

> <PUBCHEM_CACTVS_HBOND_DONOR>
2

> <PUBCHEM_CACTVS_ROTATABLE_BOND>
6

> <PUBCHEM_CACTVS_SUBSKEYS>
AAADceBzMAAEAAAAAAAAAAAAAAAAAWAAAAAAAAAAAAAAAAABgAAAHgIQAAAACArBliQ+gJPJkACoATV3VACCgCA3ByAA2aG4ZtgIYPLBl7HUAQhglgDIyYYYAQAAAAAAAAAAAAAAAAAAAAAAAAAAAAAAAA==

> <PUBCHEM_IUPAC_OPENEYE_NAME>
N-(2-amino-2-oxo-ethyl)-N-butyl-4-chloro-1H-pyrrole-2-carboxamide

> <PUBCHEM_IUPAC_CAS_NAME>
N-(2-amino-2-oxoethyl)-N-butyl-4-chloro-1H-pyrrole-2-carboxamide

> <PUBCHEM_IUPAC_NAME>
N-(2-amino-2-oxoethyl)-N-butyl-4-chloro-1H-pyrrole-2-carboxamide

> <PUBCHEM_IUPAC_SYSTEMATIC_NAME>
N-(2-azanyl-2-oxidanylidene-ethyl)-N-butyl-4-chloranyl-1H-pyrrole-2-carboxamide

> <PUBCHEM_IUPAC_TRADITIONAL_NAME>
N-(2-amino-2-keto-ethyl)-N-butyl-4-chloro-1H-pyrrole-2-carboxamide

> <PUBCHEM_IUPAC_INCHI>
InChI=1S/C11H16ClN3O2/c1-2-3-4-15(7-10(13)16)11(17)9-5-8(12)6-14-9/h5-6,14H,2-4,7H2,1H3,(H2,13,16)

> <PUBCHEM_IUPAC_INCHIKEY>
RSLDZBUQSOEFAM-UHFFFAOYSA-N

> <PUBCHEM_XLOGP3_AA>
1.3

> <PUBCHEM_EXACT_MASS>
257.093104

> <PUBCHEM_MOLECULAR_FORMULA>
C11H16ClN3O2

> <PUBCHEM_MOLECULAR_WEIGHT>
257.71664

> <PUBCHEM_OPENEYE_CAN_SMILES>
CCCCN(CC(=O)N)C(=O)C1=CC(=CN1)Cl

> <PUBCHEM_OPENEYE_ISO_SMILES>
CCCCN(CC(=O)N)C(=O)C1=CC(=CN1)Cl

> <PUBCHEM_CACTVS_TPSA>
79.2

> <PUBCHEM_MONOISOTOPIC_WEIGHT>
257.093104

> <PUBCHEM_TOTAL_CHARGE>
0

> <PUBCHEM_HEAVY_ATOM_COUNT>
17

> <PUBCHEM_ATOM_DEF_STEREO_COUNT>
0

> <PUBCHEM_ATOM_UDEF_STEREO_COUNT>
0

> <PUBCHEM_BOND_DEF_STEREO_COUNT>
0

> <PUBCHEM_BOND_UDEF_STEREO_COUNT>
0

> <PUBCHEM_ISOTOPIC_ATOM_COUNT>
0

> <PUBCHEM_COMPONENT_COUNT>
1

> <PUBCHEM_CACTVS_TAUTO_COUNT>
12

> <PUBCHEM_COORDINATE_TYPE>
1
5
255

> <PUBCHEM_BONDANNOTATIONS>
12  15  8
15  17  8
16  17  8
5  12  8
5  16  8

$$$$

