   Color/Form
        Colorless, somewhat oily liquid
   from [1]HSDB

   Odor
        Slight ester odor
   from [2]HSDB

   Boiling Point
        129 deg C at 0.5 mm HG
   from [3]HSDB

   Density/Specific Gravity
        1.3742
   from [4]HSDB

   Octanol/Water Partition Coefficient
        log Kow = 1.71 (est)
   from [5]HSDB

   Solubilities

     * Miscible with most organic solvents
     * DEODORIZED KEROSENE DISSOLVES 2-3%
     * In water, 290 mg/L at 25 deg C (est)

   from [6]HSDB

   Spectral Properties
        Index of refraction = 1.4707
   from [7]HSDB

   Vapor Pressure
        1.1X10-4 mm Hg at 25 deg C (est)
   from [8]HSDB

   Other Chemical/Physical Properties

     * Low smell & staining properties /Technical/
     * Wt/gal 11.5 lb
     * Henry's Law constant = 3.0X10-10 atm-cu m/mol at 25 deg C (est)
     * Hydroxyl radical reaction rate constant = 7.5X10-12 cu cm/molec-sec
       at 25 deg C (est)

   from [9]HSDB

   Computed Properties
   Molecular Weight                  327.526522 [g/mol]
   Molecular Formula                 C[8]H[14]Cl[3]O[5]P
   XLogP3-AA                         2.2
   H-Bond Donor                      0
   H-Bond Acceptor                   5
   Rotatable Bond Count              7
   Exact Mass                        325.964443
   MonoIsotopic Mass                 325.964443
   Topological Polar Surface Area    61.8
   Heavy Atom Count                  17
   Formal Charge                     0
   Complexity                        296
   Isotope Atom Count                0
   Defined Atom Stereocenter Count   0
   Undefined Atom Stereocenter Count 1
   Defined Bond Stereocenter Count   0
   Undefined Bond Stereocenter Count 0
   Covalently-Bonded Unit Count      1
   Feature 3D Acceptor Count         2
   Feature 3D Hydrophobe Count       1
   Effective Rotor Count             8
   Conformer Sampling RMSD           0.8
   CID Conformer Count               [10]50

References

   1. http://toxnet.nlm.nih.gov/cgi-bin/sis/search/r?dbs+hsdb:@term+@rn+@rel+126-22-7
   2. http://toxnet.nlm.nih.gov/cgi-bin/sis/search/r?dbs+hsdb:@term+@rn+@rel+126-22-7
   3. http://toxnet.nlm.nih.gov/cgi-bin/sis/search/r?dbs+hsdb:@term+@rn+@rel+126-22-7
   4. http://toxnet.nlm.nih.gov/cgi-bin/sis/search/r?dbs+hsdb:@term+@rn+@rel+126-22-7
   5. http://toxnet.nlm.nih.gov/cgi-bin/sis/search/r?dbs+hsdb:@term+@rn+@rel+126-22-7
   6. http://toxnet.nlm.nih.gov/cgi-bin/sis/search/r?dbs+hsdb:@term+@rn+@rel+126-22-7
   7. http://toxnet.nlm.nih.gov/cgi-bin/sis/search/r?dbs+hsdb:@term+@rn+@rel+126-22-7
   8. http://toxnet.nlm.nih.gov/cgi-bin/sis/search/r?dbs+hsdb:@term+@rn+@rel+126-22-7
   9. http://toxnet.nlm.nih.gov/cgi-bin/sis/search/r?dbs+hsdb:@term+@rn+@rel+126-22-7
  10. http://pubchem.ncbi.nlm.nih.gov/vw3d/vw3d.cgi?cid=31343
