10644
  -OEChem-06261204472D

101103  0     0  0  0  0  0  0999 V2000
   20.2285    2.6788    0.0000 Cl  0  0  0  0  0  0  0  0  0  0  0  0
   16.6984    0.6546    0.0000 S   0  0  0  0  0  0  0  0  0  0  0  0
   11.5022    8.6546    0.0000 O   0  0  0  0  0  0  0  0  0  0  0  0
   12.3682   10.1546    0.0000 O   0  0  0  0  0  0  0  0  0  0  0  0
    9.7702   12.6546    0.0000 O   0  0  0  0  0  0  0  0  0  0  0  0
    8.0381    9.6546    0.0000 O   0  0  0  0  0  0  0  0  0  0  0  0
    8.0381   11.6546    0.0000 O   0  0  0  0  0  0  0  0  0  0  0  0
   11.6582   17.2057    0.0000 O   0  0  0  0  0  0  0  0  0  0  0  0
   15.9884   16.7057    0.0000 O   0  0  0  0  0  0  0  0  0  0  0  0
    0.5369    9.3528    0.0000 O   0  0  0  0  0  0  0  0  0  0  0  0
    4.8671    8.8528    0.0000 O   0  0  0  0  0  0  0  0  0  0  0  0
   12.5243   15.7057    0.0000 O   0  0  0  0  0  0  0  0  0  0  0  0
   15.1223   18.2057    0.0000 O   0  0  0  0  0  0  0  0  0  0  0  0
    1.4030    7.8528    0.0000 O   0  0  0  0  0  0  0  0  0  0  0  0
    4.0010   10.3528    0.0000 O   0  0  0  0  0  0  0  0  0  0  0  0
   14.9663    5.6546    0.0000 N   0  0  0  0  0  0  0  0  0  0  0  0
   13.2343    6.6546    0.0000 N   0  0  0  0  0  0  0  0  0  0  0  0
   16.6984    2.6546    0.0000 N   0  0  0  0  0  0  0  0  0  0  0  0
   14.9663    6.6546    0.0000 C   0  0  0  0  0  0  0  0  0  0  0  0
   14.1003    5.1546    0.0000 C   0  0  0  0  0  0  0  0  0  0  0  0
   14.1003    7.1546    0.0000 C   0  0  0  0  0  0  0  0  0  0  0  0
   13.2343    5.6546    0.0000 C   0  0  0  0  0  0  0  0  0  0  0  0
   15.8323    5.1546    0.0000 C   0  0  0  0  0  0  0  0  0  0  0  0
   15.8323    4.1546    0.0000 C   0  0  0  0  0  0  0  0  0  0  0  0
   12.3682    7.1546    0.0000 C   0  0  0  0  0  0  0  0  0  0  0  0
   16.6984    3.6546    0.0000 C   0  0  0  0  0  0  0  0  0  0  0  0
   12.3682    8.1546    0.0000 C   0  0  0  0  0  0  0  0  0  0  0  0
   17.5644    2.1546    0.0000 C   0  0  0  0  0  0  0  0  0  0  0  0
   15.8323    2.1546    0.0000 C   0  0  0  0  0  0  0  0  0  0  0  0
   17.5644    1.1546    0.0000 C   0  0  0  0  0  0  0  0  0  0  0  0
   15.8323    1.1546    0.0000 C   0  0  0  0  0  0  0  0  0  0  0  0
   18.4583    2.6893    0.0000 C   0  0  0  0  0  0  0  0  0  0  0  0
   14.9384    2.6893    0.0000 C   0  0  0  0  0  0  0  0  0  0  0  0
   18.4583    0.6200    0.0000 C   0  0  0  0  0  0  0  0  0  0  0  0
   14.9384    0.6200    0.0000 C   0  0  0  0  0  0  0  0  0  0  0  0
   19.3644    2.1754    0.0000 C   0  0  0  0  0  0  0  0  0  0  0  0
   14.0323    2.1754    0.0000 C   0  0  0  0  0  0  0  0  0  0  0  0
   11.5022    9.6546    0.0000 C   0  0  0  0  0  0  0  0  0  0  0  0
   19.3644    1.1338    0.0000 C   0  0  0  0  0  0  0  0  0  0  0  0
   14.0323    1.1338    0.0000 C   0  0  0  0  0  0  0  0  0  0  0  0
   10.6362   10.1546    0.0000 C   0  0  0  0  0  0  0  0  0  0  0  0
    9.7702    9.6546    0.0000 C   0  0  0  0  0  0  0  0  0  0  0  0
   10.6362   11.1546    0.0000 C   0  0  0  0  0  0  0  0  0  0  0  0
    9.7702   11.6546    0.0000 C   0  0  0  0  0  0  0  0  0  0  0  0
    8.9041   10.1546    0.0000 C   0  0  0  0  0  0  0  0  0  0  0  0
    8.9041   11.1546    0.0000 C   0  0  0  0  0  0  0  0  0  0  0  0
   10.6362   13.1546    0.0000 C   0  0  0  0  0  0  0  0  0  0  0  0
    8.0381    8.6546    0.0000 C   0  0  0  0  0  0  0  0  0  0  0  0
    8.0381   12.6546    0.0000 C   0  0  0  0  0  0  0  0  0  0  0  0
   13.3903   17.2057    0.0000 C   0  0  0  0  0  0  0  0  0  0  0  0
   14.2563   16.7057    0.0000 C   0  0  0  0  0  0  0  0  0  0  0  0
    2.2690    9.3528    0.0000 C   0  0  0  0  0  0  0  0  0  0  0  0
    3.1350    8.8528    0.0000 C   0  0  0  0  0  0  0  0  0  0  0  0
   12.5243   16.7057    0.0000 C   0  0  0  0  0  0  0  0  0  0  0  0
   15.1223   17.2057    0.0000 C   0  0  0  0  0  0  0  0  0  0  0  0
    1.4030    8.8528    0.0000 C   0  0  0  0  0  0  0  0  0  0  0  0
    4.0010    9.3528    0.0000 C   0  0  0  0  0  0  0  0  0  0  0  0
   15.5769    6.5470    0.0000 H   0  0  0  0  0  0  0  0  0  0  0  0
   15.1784    7.2372    0.0000 H   0  0  0  0  0  0  0  0  0  0  0  0
   13.7018    4.6797    0.0000 H   0  0  0  0  0  0  0  0  0  0  0  0
   14.4988    4.6797    0.0000 H   0  0  0  0  0  0  0  0  0  0  0  0
   14.4988    7.6296    0.0000 H   0  0  0  0  0  0  0  0  0  0  0  0
   13.7018    7.6296    0.0000 H   0  0  0  0  0  0  0  0  0  0  0  0
   12.6237    5.7623    0.0000 H   0  0  0  0  0  0  0  0  0  0  0  0
   13.0222    5.0720    0.0000 H   0  0  0  0  0  0  0  0  0  0  0  0
   16.4429    5.0470    0.0000 H   0  0  0  0  0  0  0  0  0  0  0  0
   16.0444    5.7372    0.0000 H   0  0  0  0  0  0  0  0  0  0  0  0
   15.2218    4.2623    0.0000 H   0  0  0  0  0  0  0  0  0  0  0  0
   15.6203    3.5720    0.0000 H   0  0  0  0  0  0  0  0  0  0  0  0
   11.7577    7.2623    0.0000 H   0  0  0  0  0  0  0  0  0  0  0  0
   12.1562    6.5720    0.0000 H   0  0  0  0  0  0  0  0  0  0  0  0
   17.3089    3.5470    0.0000 H   0  0  0  0  0  0  0  0  0  0  0  0
   16.9104    4.2372    0.0000 H   0  0  0  0  0  0  0  0  0  0  0  0
   12.5803    8.7372    0.0000 H   0  0  0  0  0  0  0  0  0  0  0  0
   12.9788    8.0470    0.0000 H   0  0  0  0  0  0  0  0  0  0  0  0
   18.4512    3.3092    0.0000 H   0  0  0  0  0  0  0  0  0  0  0  0
   14.9456    3.3092    0.0000 H   0  0  0  0  0  0  0  0  0  0  0  0
   18.4512    0.0000    0.0000 H   0  0  0  0  0  0  0  0  0  0  0  0
   14.9456    0.0000    0.0000 H   0  0  0  0  0  0  0  0  0  0  0  0
   13.4966    2.4875    0.0000 H   0  0  0  0  0  0  0  0  0  0  0  0
   19.9001    0.8217    0.0000 H   0  0  0  0  0  0  0  0  0  0  0  0
   13.4966    0.8217    0.0000 H   0  0  0  0  0  0  0  0  0  0  0  0
    9.7702    9.0346    0.0000 H   0  0  0  0  0  0  0  0  0  0  0  0
   11.1731   11.4646    0.0000 H   0  0  0  0  0  0  0  0  0  0  0  0
   10.9462   12.6177    0.0000 H   0  0  0  0  0  0  0  0  0  0  0  0
   11.1731   13.4646    0.0000 H   0  0  0  0  0  0  0  0  0  0  0  0
   10.3262   13.6916    0.0000 H   0  0  0  0  0  0  0  0  0  0  0  0
    8.6581    8.6546    0.0000 H   0  0  0  0  0  0  0  0  0  0  0  0
    8.0381    8.0346    0.0000 H   0  0  0  0  0  0  0  0  0  0  0  0
    7.4181    8.6546    0.0000 H   0  0  0  0  0  0  0  0  0  0  0  0
    7.4181   12.6546    0.0000 H   0  0  0  0  0  0  0  0  0  0  0  0
    8.0381   13.2746    0.0000 H   0  0  0  0  0  0  0  0  0  0  0  0
    8.6581   12.6546    0.0000 H   0  0  0  0  0  0  0  0  0  0  0  0
   13.3903   17.8257    0.0000 H   0  0  0  0  0  0  0  0  0  0  0  0
   14.2563   16.0857    0.0000 H   0  0  0  0  0  0  0  0  0  0  0  0
    2.2690    9.9728    0.0000 H   0  0  0  0  0  0  0  0  0  0  0  0
    3.1350    8.2328    0.0000 H   0  0  0  0  0  0  0  0  0  0  0  0
   11.1213   16.8957    0.0000 H   0  0  0  0  0  0  0  0  0  0  0  0
   16.5253   17.0157    0.0000 H   0  0  0  0  0  0  0  0  0  0  0  0
    0.0000    9.0428    0.0000 H   0  0  0  0  0  0  0  0  0  0  0  0
    5.4040    9.1628    0.0000 H   0  0  0  0  0  0  0  0  0  0  0  0
  1 36  1  0  0  0  0
  2 30  1  0  0  0  0
  2 31  1  0  0  0  0
  3 27  1  0  0  0  0
  3 38  1  0  0  0  0
  4 38  2  0  0  0  0
  5 44  1  0  0  0  0
  5 47  1  0  0  0  0
  6 45  1  0  0  0  0
  6 48  1  0  0  0  0
  7 46  1  0  0  0  0
  7 49  1  0  0  0  0
  8 54  1  0  0  0  0
  8 98  1  0  0  0  0
  9 55  1  0  0  0  0
  9 99  1  0  0  0  0
 10 56  1  0  0  0  0
 10100  1  0  0  0  0
 11 57  1  0  0  0  0
 11101  1  0  0  0  0
 12 54  2  0  0  0  0
 13 55  2  0  0  0  0
 14 56  2  0  0  0  0
 15 57  2  0  0  0  0
 16 19  1  0  0  0  0
 16 20  1  0  0  0  0
 16 23  1  0  0  0  0
 17 21  1  0  0  0  0
 17 22  1  0  0  0  0
 17 25  1  0  0  0  0
 18 26  1  0  0  0  0
 18 28  1  0  0  0  0
 18 29  1  0  0  0  0
 19 21  1  0  0  0  0
 19 58  1  0  0  0  0
 19 59  1  0  0  0  0
 20 22  1  0  0  0  0
 20 60  1  0  0  0  0
 20 61  1  0  0  0  0
 21 62  1  0  0  0  0
 21 63  1  0  0  0  0
 22 64  1  0  0  0  0
 22 65  1  0  0  0  0
 23 24  1  0  0  0  0
 23 66  1  0  0  0  0
 23 67  1  0  0  0  0
 24 26  1  0  0  0  0
 24 68  1  0  0  0  0
 24 69  1  0  0  0  0
 25 27  1  0  0  0  0
 25 70  1  0  0  0  0
 25 71  1  0  0  0  0
 26 72  1  0  0  0  0
 26 73  1  0  0  0  0
 27 74  1  0  0  0  0
 27 75  1  0  0  0  0
 28 30  2  0  0  0  0
 28 32  1  0  0  0  0
 29 31  1  0  0  0  0
 29 33  2  0  0  0  0
 30 34  1  0  0  0  0
 31 35  2  0  0  0  0
 32 36  2  0  0  0  0
 32 76  1  0  0  0  0
 33 37  1  0  0  0  0
 33 77  1  0  0  0  0
 34 39  2  0  0  0  0
 34 78  1  0  0  0  0
 35 40  1  0  0  0  0
 35 79  1  0  0  0  0
 36 39  1  0  0  0  0
 37 40  2  0  0  0  0
 37 80  1  0  0  0  0
 38 41  1  0  0  0  0
 39 81  1  0  0  0  0
 40 82  1  0  0  0  0
 41 42  2  0  0  0  0
 41 43  1  0  0  0  0
 42 45  1  0  0  0  0
 42 83  1  0  0  0  0
 43 44  2  0  0  0  0
 43 84  1  0  0  0  0
 44 46  1  0  0  0  0
 45 46  2  0  0  0  0
 47 85  1  0  0  0  0
 47 86  1  0  0  0  0
 47 87  1  0  0  0  0
 48 88  1  0  0  0  0
 48 89  1  0  0  0  0
 48 90  1  0  0  0  0
 49 91  1  0  0  0  0
 49 92  1  0  0  0  0
 49 93  1  0  0  0  0
 50 51  2  3  0  0  0
 50 54  1  0  0  0  0
 50 94  1  0  0  0  0
 51 55  1  0  0  0  0
 51 95  1  0  0  0  0
 52 53  2  3  0  0  0
 52 56  1  0  0  0  0
 52 96  1  0  0  0  0
 53 57  1  0  0  0  0
 53 97  1  0  0  0  0
M  END
> <PUBCHEM_COMPOUND_CID>
10644

> <PUBCHEM_COMPOUND_CANONICALIZED>
1

> <PUBCHEM_CACTVS_COMPLEXITY>
926

> <PUBCHEM_CACTVS_HBOND_ACCEPTOR>
17

> <PUBCHEM_CACTVS_HBOND_DONOR>
4

> <PUBCHEM_CACTVS_ROTATABLE_BOND>
16

> <PUBCHEM_CACTVS_SUBSKEYS>
AAADcfB/PABEAAAAAAAAAAAAAAAAAAAAAAA8eMECAAAAAACxUAAAHgYACAAADA7h2CYyz4MABgiIAiTSSACCCAAlLxAIiB0O7sgPZ3Ll95uXMSplwBX6+Yfa7DzOIAIBCAIAQQBABAIQBACCAAAAAAAAAA==

> <PUBCHEM_IUPAC_OPENEYE_NAME>
but-2-enedioic acid; 2-[4-[3-(2-chlorophenothiazin-10-yl)propyl]piperazin-1-yl]ethyl 3,4,5-trimethoxybenzoate

> <PUBCHEM_IUPAC_CAS_NAME>
but-2-enedioic acid; 3,4,5-trimethoxybenzoic acid 2-[4-[3-(2-chloro-10-phenothiazinyl)propyl]-1-piperazinyl]ethyl ester

> <PUBCHEM_IUPAC_NAME>
but-2-enedioic acid; 2-[4-[3-(2-chlorophenothiazin-10-yl)propyl]piperazin-1-yl]ethyl 3,4,5-trimethoxybenzoate

> <PUBCHEM_IUPAC_SYSTEMATIC_NAME>
but-2-enedioic acid; 2-[4-[3-(2-chloranylphenothiazin-10-yl)propyl]piperazin-1-yl]ethyl 3,4,5-trimethoxybenzoate

> <PUBCHEM_IUPAC_TRADITIONAL_NAME>
but-2-enedioic acid; 3,4,5-trimethoxybenzoic acid 2-[4-[3-(2-chlorophenothiazin-10-yl)propyl]piperazino]ethyl ester

> <PUBCHEM_IUPAC_INCHI>
InChI=1S/C31H36ClN3O5S.2C4H4O4/c1-37-26-19-22(20-27(38-2)30(26)39-3)31(36)40-18-17-34-15-13-33(14-16-34)11-6-12-35-24-7-4-5-8-28(24)41-29-10-9-23(32)21-25(29)35;2*5-3(6)1-2-4(7)8/h4-5,7-10,19-21H,6,11-18H2,1-3H3;2*1-2H,(H,5,6)(H,7,8)

> <PUBCHEM_IUPAC_INCHIKEY>
ZDTAJBBRWBBHSZ-UHFFFAOYSA-N

> <PUBCHEM_XLOGP3_AA>
5.848

> <PUBCHEM_EXACT_MASS>
829.228337

> <PUBCHEM_MOLECULAR_FORMULA>
C39H44ClN3O13S

> <PUBCHEM_MOLECULAR_WEIGHT>
830.29696

> <PUBCHEM_OPENEYE_CAN_SMILES>
COC1=CC(=CC(=C1OC)OC)C(=O)OCCN2CCN(CC2)CCCN3C4=CC=CC=C4SC5=C3C=C(C=C5)Cl.C(=CC(=O)O)C(=O)O.C(=CC(=O)O)C(=O)O

> <PUBCHEM_OPENEYE_ISO_SMILES>
COC1=CC(=CC(=C1OC)OC)C(=O)OCCN2CCN(CC2)CCCN3C4=CC=CC=C4SC5=C3C=C(C=C5)Cl.C(=CC(=O)O)C(=O)O.C(=CC(=O)O)C(=O)O

> <PUBCHEM_CACTVS_TPSA>
238

> <PUBCHEM_MONOISOTOPIC_WEIGHT>
829.228337

> <PUBCHEM_TOTAL_CHARGE>
0

> <PUBCHEM_HEAVY_ATOM_COUNT>
57

> <PUBCHEM_ATOM_DEF_STEREO_COUNT>
0

> <PUBCHEM_ATOM_UDEF_STEREO_COUNT>
0

> <PUBCHEM_BOND_DEF_STEREO_COUNT>
0

> <PUBCHEM_BOND_UDEF_STEREO_COUNT>
2

> <PUBCHEM_ISOTOPIC_ATOM_COUNT>
0

> <PUBCHEM_COMPONENT_COUNT>
3

> <PUBCHEM_CACTVS_TAUTO_COUNT>
1

> <PUBCHEM_COORDINATE_TYPE>
1
5
255

> <PUBCHEM_BONDANNOTATIONS>
28  30  8
28  32  8
29  31  8
29  33  8
30  34  8
31  35  8
32  36  8
33  37  8
34  39  8
35  40  8
36  39  8
37  40  8
41  42  8
41  43  8
42  45  8
43  44  8
44  46  8
45  46  8
50  51  1
52  53  1

$$$$

