   Color/Form

     * COLORLESS NEEDLES OR VISCOUS LIQ
     * HYGROSCOPIC CRYSTALS
     * Sticky solid or colorless to light-yellow liquid (above 77 degrees
       F).

   from [1]HSDB

   Odor

     * CAMPHOR-LIKE ODOR
     * Camphor-like odor.

   from [2]HSDB

   Boiling Point
        161.08 DEG C @ 760 MM HG
   from [3]HSDB

   Melting Point
        25.4 DEG C
   from [4]HSDB

   Critical Temperature and Pressure
        352 C and 3.7 MN/sq m.
   from [5]HSDB

   Density/Specific Gravity
        0.9624 @ 20 DEG C/4 DEG C
   from [6]HSDB

   Heat of Combustion
        -8910 cal/g = -373 x 10(5) J/kg.
   from [7]HSDB

   Heat of Vaporization
        14.82 kcal/mol @ 25 deg C
   from [8]HSDB

   Octanol/Water Partition Coefficient
        log Kow= 1.23 (experimental)
   from [9]HSDB

   Solubilities

     * 3.6% (WT/WT) IN WATER @ 20 DEG C; MISCIBLE WITH ETHYL ACETATE,
       LINSEED OIL, PETROLEUM SOLVENTS.
     * SOL IN WATER, ETHANOL, ETHYL ETHER, ACETONE
     * Water solubility of 4.2X10+4 mg/kg @ 10 deg C, 4.3X10+4 @ 30 deg C
       (experimental).

   from [10]HSDB

   Spectral Properties

     * INDEX OF REFRACTION: 1.4641 @ 20 DEG C/D; SADTLER REFERENCE NUMBER:
       41 (IR, PRISM); 10960 (IR, GRATING)
     * IR: 4266 (Coblentz Society Spectral Collection)
     * NMR: 7 (Sadtler Research Laboratories Spectral Collection)
     * MASS: 35 (Aldermaston, Eight Peak Index of Mass Spectra, UK)
     * Intense mass spectral peaks: 57 m/z, 82 m/z, 100 m/z
     * Index of Refraction: 1.4641 @ 20 deg C/D

   from [11]HSDB

   Surface Tension
        0.0342 N/m (16.2 C).
   from [12]HSDB

   Vapor Density
        3.5 (air = 1)
   from [13]HSDB

   Vapor Pressure
        0.8 mm Hg at 25 deg C (experimental)
   from [14]HSDB

   Viscosity
        4.6 mPa.s (=cP) @ 25 deg C
   from [15]HSDB

   Other Chemical/Physical Properties

     * PERCENT IN "SATURATED" AIR: 0.33 (30 DEG C); DENSITY OF "SATURATED"
       AIR: 1.01 (AIR= 1)
     * VAPOR PRESSURE OF 5 TORR @ 20.0 DEG C
     * VAPOR PRESSURE OF 0.937 AT 37.4 DEG C

   from [16]HSDB

   Computed Properties
   Molecular Weight                  100.15888 [g/mol]
   Molecular Formula                 C[6]H[12]O
   XLogP3                            1.2
   H-Bond Donor                      1
   H-Bond Acceptor                   1
   Rotatable Bond Count              0
   Exact Mass                        100.088815
   MonoIsotopic Mass                 100.088815
   Topological Polar Surface Area    20.2
   Heavy Atom Count                  7
   Formal Charge                     0
   Complexity                        46.1
   Isotope Atom Count                0
   Defined Atom Stereocenter Count   0
   Undefined Atom Stereocenter Count 1
   Defined Bond Stereocenter Count   0
   Undefined Bond Stereocenter Count 0
   Covalently-Bonded Unit Count      1
   Feature 3D Acceptor Count         1
   Feature 3D Donor Count            1
   Feature 3D Ring Count             1
   Effective Rotor Count             1.2
   Conformer Sampling RMSD           0.4
   CID Conformer Count               [17]4

References

   1. http://toxnet.nlm.nih.gov/cgi-bin/sis/search/r?dbs+hsdb:@term+@rn+@rel+108-93-0
   2. http://toxnet.nlm.nih.gov/cgi-bin/sis/search/r?dbs+hsdb:@term+@rn+@rel+108-93-0
   3. http://toxnet.nlm.nih.gov/cgi-bin/sis/search/r?dbs+hsdb:@term+@rn+@rel+108-93-0
   4. http://toxnet.nlm.nih.gov/cgi-bin/sis/search/r?dbs+hsdb:@term+@rn+@rel+108-93-0
   5. http://toxnet.nlm.nih.gov/cgi-bin/sis/search/r?dbs+hsdb:@term+@rn+@rel+108-93-0
   6. http://toxnet.nlm.nih.gov/cgi-bin/sis/search/r?dbs+hsdb:@term+@rn+@rel+108-93-0
   7. http://toxnet.nlm.nih.gov/cgi-bin/sis/search/r?dbs+hsdb:@term+@rn+@rel+108-93-0
   8. http://toxnet.nlm.nih.gov/cgi-bin/sis/search/r?dbs+hsdb:@term+@rn+@rel+108-93-0
   9. http://toxnet.nlm.nih.gov/cgi-bin/sis/search/r?dbs+hsdb:@term+@rn+@rel+108-93-0
  10. http://toxnet.nlm.nih.gov/cgi-bin/sis/search/r?dbs+hsdb:@term+@rn+@rel+108-93-0
  11. http://toxnet.nlm.nih.gov/cgi-bin/sis/search/r?dbs+hsdb:@term+@rn+@rel+108-93-0
  12. http://toxnet.nlm.nih.gov/cgi-bin/sis/search/r?dbs+hsdb:@term+@rn+@rel+108-93-0
  13. http://toxnet.nlm.nih.gov/cgi-bin/sis/search/r?dbs+hsdb:@term+@rn+@rel+108-93-0
  14. http://toxnet.nlm.nih.gov/cgi-bin/sis/search/r?dbs+hsdb:@term+@rn+@rel+108-93-0
  15. http://toxnet.nlm.nih.gov/cgi-bin/sis/search/r?dbs+hsdb:@term+@rn+@rel+108-93-0
  16. http://toxnet.nlm.nih.gov/cgi-bin/sis/search/r?dbs+hsdb:@term+@rn+@rel+108-93-0
  17. http://pubchem.ncbi.nlm.nih.gov/vw3d/vw3d.cgi?cid=7966
