443584
  -OEChem-07051213022D

 31 30  0     1  0  0  0  0  0999 V2000
    5.0000   -0.1625    0.0000 P   0  0  3  0  0  0  0  0  0  0  0  0
    4.1340   -1.6625    0.0000 P   0  0  0  0  0  0  0  0  0  0  0  0
    4.1340   -0.6625    0.0000 O   0  0  0  0  0  0  0  0  0  0  0  0
    5.5000   -1.0285    0.0000 O   0  0  0  0  0  0  0  0  0  0  0  0
    3.5000    2.4356    0.0000 O   0  0  0  0  0  0  0  0  0  0  0  0
    2.0000    1.5695    0.0000 O   0  0  0  0  0  0  0  0  0  0  0  0
    3.1340   -1.6625    0.0000 O   0  0  0  0  0  0  0  0  0  0  0  0
    4.1340   -2.6625    0.0000 O   0  0  0  0  0  0  0  0  0  0  0  0
    5.1340   -1.6625    0.0000 O   0  0  0  0  0  0  0  0  0  0  0  0
    6.7320   -0.1625    0.0000 N   0  0  0  0  0  0  0  0  0  0  0  0
    4.5000    0.7035    0.0000 C   0  0  0  0  0  0  0  0  0  0  0  0
    5.8660    0.3375    0.0000 C   0  0  2  0  0  0  0  0  0  0  0  0
    3.5000    0.7035    0.0000 C   0  0  2  0  0  0  0  0  0  0  0  0
    5.8660    1.3375    0.0000 C   0  0  0  0  0  0  0  0  0  0  0  0
    3.0000   -0.1625    0.0000 C   0  0  0  0  0  0  0  0  0  0  0  0
    3.0000    1.5695    0.0000 C   0  0  0  0  0  0  0  0  0  0  0  0
    5.0826    0.9156    0.0000 H   0  0  0  0  0  0  0  0  0  0  0  0
    4.3923    1.3141    0.0000 H   0  0  0  0  0  0  0  0  0  0  0  0
    5.8660   -0.2825    0.0000 H   0  0  0  0  0  0  0  0  0  0  0  0
    3.8100    0.1666    0.0000 H   0  0  0  0  0  0  0  0  0  0  0  0
    6.4860    1.3375    0.0000 H   0  0  0  0  0  0  0  0  0  0  0  0
    5.8660    1.9575    0.0000 H   0  0  0  0  0  0  0  0  0  0  0  0
    5.2460    1.3375    0.0000 H   0  0  0  0  0  0  0  0  0  0  0  0
    2.4631    0.1475    0.0000 H   0  0  0  0  0  0  0  0  0  0  0  0
    2.6900   -0.6994    0.0000 H   0  0  0  0  0  0  0  0  0  0  0  0
    3.5369   -0.4725    0.0000 H   0  0  0  0  0  0  0  0  0  0  0  0
    7.2690    0.1475    0.0000 H   0  0  0  0  0  0  0  0  0  0  0  0
    6.7320   -0.7825    0.0000 H   0  0  0  0  0  0  0  0  0  0  0  0
    3.1900    2.9725    0.0000 H   0  0  0  0  0  0  0  0  0  0  0  0
    2.8240   -2.1994    0.0000 H   0  0  0  0  0  0  0  0  0  0  0  0
    3.5970   -2.9725    0.0000 H   0  0  0  0  0  0  0  0  0  0  0  0
  1  3  1  0  0  0  0
  1  4  2  0  0  0  0
  1 11  1  0  0  0  0
  1 12  1  0  0  0  0
  2  3  1  0  0  0  0
  2  7  1  0  0  0  0
  2  8  1  0  0  0  0
  2  9  2  0  0  0  0
  5 16  1  0  0  0  0
  5 29  1  0  0  0  0
  6 16  2  0  0  0  0
  7 30  1  0  0  0  0
  8 31  1  0  0  0  0
 12 10  1  1  0  0  0
 10 27  1  0  0  0  0
 10 28  1  0  0  0  0
 11 13  1  0  0  0  0
 11 17  1  0  0  0  0
 11 18  1  0  0  0  0
 12 14  1  0  0  0  0
 12 19  1  0  0  0  0
 13 15  1  6  0  0  0
 13 16  1  0  0  0  0
 13 20  1  0  0  0  0
 14 21  1  0  0  0  0
 14 22  1  0  0  0  0
 14 23  1  0  0  0  0
 15 24  1  0  0  0  0
 15 25  1  0  0  0  0
 15 26  1  0  0  0  0
M  END
> <PUBCHEM_COMPOUND_CID>
443584

> <PUBCHEM_COMPOUND_CANONICALIZED>
1

> <PUBCHEM_CACTVS_COMPLEXITY>
351

> <PUBCHEM_CACTVS_HBOND_ACCEPTOR>
8

> <PUBCHEM_CACTVS_HBOND_DONOR>
4

> <PUBCHEM_CACTVS_ROTATABLE_BOND>
6

> <PUBCHEM_CACTVS_SUBSKEYS>
AAADccBiOAMAAAAAAAAAAAAAAAAAAAAAAAAAAAAAAAAAAAAAAAAAHggQCCAADQDJgAQCCABAAjAIQACQCIAAAAAAAAAAAIEAAAAAAAAAAAAAQAAAEAAAAAAAAAAAAAAAAAAAAAAAAAAAAAAAAAAAAAAAAA==

> <PUBCHEM_IUPAC_OPENEYE_NAME>
(2R)-3-[[(1S)-1-aminoethyl]-phosphonooxy-phosphoryl]-2-methyl-propanoic acid

> <PUBCHEM_IUPAC_CAS_NAME>
(2R)-3-[[(1S)-1-aminoethyl]-phosphonooxyphosphoryl]-2-methylpropanoic acid

> <PUBCHEM_IUPAC_NAME>
(2R)-3-[[(1S)-1-aminoethyl]-phosphonooxyphosphoryl]-2-methylpropanoic acid

> <PUBCHEM_IUPAC_SYSTEMATIC_NAME>
(2R)-3-[[(1S)-1-azanylethyl]-phosphonooxy-phosphoryl]-2-methyl-propanoic acid

> <PUBCHEM_IUPAC_TRADITIONAL_NAME>
(2R)-3-[[(1S)-1-aminoethyl]-phosphonooxy-phosphoryl]-2-methyl-propionic acid

> <PUBCHEM_IUPAC_INCHI>
InChI=1S/C6H15NO7P2/c1-4(6(8)9)3-15(10,5(2)7)14-16(11,12)13/h4-5H,3,7H2,1-2H3,(H,8,9)(H2,11,12,13)/t4-,5-,15?/m0/s1

> <PUBCHEM_IUPAC_INCHIKEY>
BAIYWTZQRMCJBV-FMMPLYQGSA-N

> <PUBCHEM_XLOGP3_AA>
-4.8

> <PUBCHEM_EXACT_MASS>
275.032375

> <PUBCHEM_MOLECULAR_FORMULA>
C6H15NO7P2

> <PUBCHEM_MOLECULAR_WEIGHT>
275.133324

> <PUBCHEM_OPENEYE_CAN_SMILES>
CC(CP(=O)(C(C)N)OP(=O)(O)O)C(=O)O

> <PUBCHEM_OPENEYE_ISO_SMILES>
C[C@@H](CP(=O)([C@@H](C)N)OP(=O)(O)O)C(=O)O

> <PUBCHEM_CACTVS_TPSA>
147

> <PUBCHEM_MONOISOTOPIC_WEIGHT>
275.032375

> <PUBCHEM_TOTAL_CHARGE>
0

> <PUBCHEM_HEAVY_ATOM_COUNT>
16

> <PUBCHEM_ATOM_DEF_STEREO_COUNT>
2

> <PUBCHEM_ATOM_UDEF_STEREO_COUNT>
1

> <PUBCHEM_BOND_DEF_STEREO_COUNT>
0

> <PUBCHEM_BOND_UDEF_STEREO_COUNT>
0

> <PUBCHEM_ISOTOPIC_ATOM_COUNT>
0

> <PUBCHEM_COMPONENT_COUNT>
1

> <PUBCHEM_CACTVS_TAUTO_COUNT>
1

> <PUBCHEM_COORDINATE_TYPE>
1
5
255

> <PUBCHEM_BONDANNOTATIONS>
1  11  3
12  10  5
13  15  6

$$$$

