   Color/Form

     * White scales
     * Colorless leaflets
     * Pure biphenyl is a white crystalline solid that separates from
       solvents as plates or monoclinic prismatic crystals. Commercial
       samples are often slightly yellow or tan in color.

   from [1]HSDB

   Odor

     * Pleasant, peculiar odor
     * ... Pleasant, characteristic odor.
     * Pleasant, butter-like

   from [2]HSDB

   Boiling Point
        256.1 deg C
   from [3]HSDB

   Melting Point
        69 deg C
   from [4]HSDB

   Critical Temperature and Pressure
        Critical temperature: 515.7 deg C; critical pressure: 4.05 MPa
   from [5]HSDB

   Density/Specific Gravity
        1.041 at 20 deg C/4 deg C
   from [6]HSDB

   Heat of Combustion
        624.3 kJ/mol
   from [7]HSDB

   Heat of Vaporization
        397.0 J/g at 100 deg C
   from [8]HSDB

   Octanol/Water Partition Coefficient
        log Kow = 4.01
   from [9]HSDB

   Solubilities

     * Soluble in ethanol, ethyl ether; very soluble in benzene, carbon
       tetrachloride, carbon disulfide, and methanol.
     * Soluble in alcohol, ether; very soluble in benzene
     * Soluble in oxygenated and chlorinated solvents.
     * In water, 7.48 mg/L at 25 deg C

   from [10]HSDB

   Spectral Properties

     * Index of refraction: 1.475 @ 20 deg C/D; 1.588 @ 75 deg C/D
     * MAX ABSORPTION (ALCOHOL): 247 NM (LOG E= 4.24); SADTLER REF NUMBER:
       783 (IR, PRISM); 163 (IR, GRATING)
     * Intense mass spectral peaks: 154 m/z (100%), 153 m/z (31%), 152 m/z
       (28%), 76 m/z (17%)
     * IR: 6024 (Coblentz Society Spectral Collection)
     * UV: 255 (Sadtler Research Laboratories Spectral Collection)
     * 13C NMR: 90 (Stothers, Carbon-13 NMR Spectroscopy, Academic Press,
       New York)
     * NMR: 289 (Varian Associates NMR Spectra Catalogue)
     * MASS: 60914 (NIST/EPA/MSDC Mass Spectral Data base, 1990 version)

   from [11]HSDB

   Vapor Density
        5.31 (Air= 1)
   from [12]HSDB

   Vapor Pressure
        8.93X10-3 mm Hg at 25 deg C
   from [13]HSDB

   Viscosity
        0.98 cSt at 100 deg C
   from [14]HSDB

   Other Chemical/Physical Properties

     * Sp gr: 1.04 (water= 1)
     * VAPOR PRESSURE = 1 MM HG @ 71 DEG C
     * Heat capacity = 1.786 J/g at 100 deg C; Heat of fusion = 18.60
       kJ/mol; freezing point commercial grades = 68.5-69.4 deg C; Thermal
       conductivity of the liquid = 13.39 W/cm-K at 100 deg C.
     * Conversion factor: 1 ppm = 6.31 mg/cu m
     * Very stable in acidic and alkaline media.
     * Henry's Law constant = 3.08X10-4 atm-cu m/mole at 25 deg C
     * Hydroxyl radical reaction rate constant = 7.20X10-12 cu cm/molc sec
       at 25 deg C

   from [15]HSDB

   Computed Properties
   Molecular Weight                  154.2078 [g/mol]
   Molecular Formula                 C[12]H[10]
   XLogP3                            4
   H-Bond Donor                      0
   H-Bond Acceptor                   0
   Rotatable Bond Count              1
   Exact Mass                        154.07825
   MonoIsotopic Mass                 154.07825
   Topological Polar Surface Area    0
   Heavy Atom Count                  12
   Formal Charge                     0
   Complexity                        100
   Isotope Atom Count                0
   Defined Atom Stereocenter Count   0
   Undefined Atom Stereocenter Count 0
   Defined Bond Stereocenter Count   0
   Undefined Bond Stereocenter Count 0
   Covalently-Bonded Unit Count      1
   Feature 3D Ring Count             2
   Effective Rotor Count             1
   Conformer Sampling RMSD           0.4
   CID Conformer Count               [16]2

References

   1. http://toxnet.nlm.nih.gov/cgi-bin/sis/search/r?dbs+hsdb:@term+@rn+@rel+92-52-4
   2. http://toxnet.nlm.nih.gov/cgi-bin/sis/search/r?dbs+hsdb:@term+@rn+@rel+92-52-4
   3. http://toxnet.nlm.nih.gov/cgi-bin/sis/search/r?dbs+hsdb:@term+@rn+@rel+92-52-4
   4. http://toxnet.nlm.nih.gov/cgi-bin/sis/search/r?dbs+hsdb:@term+@rn+@rel+92-52-4
   5. http://toxnet.nlm.nih.gov/cgi-bin/sis/search/r?dbs+hsdb:@term+@rn+@rel+92-52-4
   6. http://toxnet.nlm.nih.gov/cgi-bin/sis/search/r?dbs+hsdb:@term+@rn+@rel+92-52-4
   7. http://toxnet.nlm.nih.gov/cgi-bin/sis/search/r?dbs+hsdb:@term+@rn+@rel+92-52-4
   8. http://toxnet.nlm.nih.gov/cgi-bin/sis/search/r?dbs+hsdb:@term+@rn+@rel+92-52-4
   9. http://toxnet.nlm.nih.gov/cgi-bin/sis/search/r?dbs+hsdb:@term+@rn+@rel+92-52-4
  10. http://toxnet.nlm.nih.gov/cgi-bin/sis/search/r?dbs+hsdb:@term+@rn+@rel+92-52-4
  11. http://toxnet.nlm.nih.gov/cgi-bin/sis/search/r?dbs+hsdb:@term+@rn+@rel+92-52-4
  12. http://toxnet.nlm.nih.gov/cgi-bin/sis/search/r?dbs+hsdb:@term+@rn+@rel+92-52-4
  13. http://toxnet.nlm.nih.gov/cgi-bin/sis/search/r?dbs+hsdb:@term+@rn+@rel+92-52-4
  14. http://toxnet.nlm.nih.gov/cgi-bin/sis/search/r?dbs+hsdb:@term+@rn+@rel+92-52-4
  15. http://toxnet.nlm.nih.gov/cgi-bin/sis/search/r?dbs+hsdb:@term+@rn+@rel+92-52-4
  16. http://pubchem.ncbi.nlm.nih.gov/vw3d/vw3d.cgi?cid=7095
