   Color/Form

     * Colorless crystals
     * White, crystalline solid

   from [1]HSDB

   Odor
        ODORLESS
   from [2]HSDB

   Melting Point
        139.4-141 deg C
   from [3]HSDB

   Corrosivity
        Not corrosive
   from [4]HSDB

   Density/Specific Gravity
        1.41 @ 20 deg C
   from [5]HSDB

   Dissociation Constants
        pKa = 3.3 @ 24 deg C
   from [6]HSDB

   Octanol/Water Partition Coefficient
        log Kow = 2.80
   from [7]HSDB

   Solubilities

     * Solubility at 20 deg C in xylene <1 g/100g; cyclohexanone approx 18
       g/100g
     * In water 570 mg/l (pH 7, 20 deg C); In acetone 1507, ethanol 861,
       ethyl acetate 650, diethyl ether 616, chloroform 180, benzene 33,
       cyclohexane 0.2 (all in g/kg, 20 deg C).
     * In water, 500 mg/l @ 20 deg C

   from [8]HSDB

   Spectral Properties
        Intense mass spectral peaks: 198 m/z (100%), 119 m/z (96%), 161
   m/z (39%), 92 m/z (31%)
   from [9]HSDB

   Vapor Pressure
        3.45X10-6 mm Hg @ 20 deg C
   from [10]HSDB

   Other Chemical/Physical Properties

     * Slightly brown solid /Technical bentazon/
     * Decomposition temp: 200 deg C
     * Solubility: xylene < 1 g/100 g (at 20 deg C). /Technical bentazon/

   from [11]HSDB

   Computed Properties
   Molecular Weight                  240.27888 [g/mol]
   Molecular Formula                 C[10]H[12]N[2]O[3]S
   XLogP3                            2.8
   H-Bond Donor                      1
   H-Bond Acceptor                   4
   Rotatable Bond Count              1
   Tautomer Count                    4
   Exact Mass                        240.056863
   MonoIsotopic Mass                 240.056863
   Topological Polar Surface Area    74.9
   Heavy Atom Count                  16
   Formal Charge                     0
   Complexity                        385
   Isotope Atom Count                0
   Defined Atom Stereocenter Count   0
   Undefined Atom Stereocenter Count 0
   Defined Bond Stereocenter Count   0
   Undefined Bond Stereocenter Count 0
   Covalently-Bonded Unit Count      1
   Feature 3D Acceptor Count         1
   Feature 3D Donor Count            1
   Feature 3D Hydrophobe Count       1
   Feature 3D Ring Count             2
   Effective Rotor Count             1.4
   Conformer Sampling RMSD           0.6
   CID Conformer Count               [12]3

References

   1. http://toxnet.nlm.nih.gov/cgi-bin/sis/search/r?dbs+hsdb:@term+@rn+@rel+25057-89-0
   2. http://toxnet.nlm.nih.gov/cgi-bin/sis/search/r?dbs+hsdb:@term+@rn+@rel+25057-89-0
   3. http://toxnet.nlm.nih.gov/cgi-bin/sis/search/r?dbs+hsdb:@term+@rn+@rel+25057-89-0
   4. http://toxnet.nlm.nih.gov/cgi-bin/sis/search/r?dbs+hsdb:@term+@rn+@rel+25057-89-0
   5. http://toxnet.nlm.nih.gov/cgi-bin/sis/search/r?dbs+hsdb:@term+@rn+@rel+25057-89-0
   6. http://toxnet.nlm.nih.gov/cgi-bin/sis/search/r?dbs+hsdb:@term+@rn+@rel+25057-89-0
   7. http://toxnet.nlm.nih.gov/cgi-bin/sis/search/r?dbs+hsdb:@term+@rn+@rel+25057-89-0
   8. http://toxnet.nlm.nih.gov/cgi-bin/sis/search/r?dbs+hsdb:@term+@rn+@rel+25057-89-0
   9. http://toxnet.nlm.nih.gov/cgi-bin/sis/search/r?dbs+hsdb:@term+@rn+@rel+25057-89-0
  10. http://toxnet.nlm.nih.gov/cgi-bin/sis/search/r?dbs+hsdb:@term+@rn+@rel+25057-89-0
  11. http://toxnet.nlm.nih.gov/cgi-bin/sis/search/r?dbs+hsdb:@term+@rn+@rel+25057-89-0
  12. http://pubchem.ncbi.nlm.nih.gov/vw3d/vw3d.cgi?cid=2328
