47205567
  -OEChem-06241222592D

 36 37  0     0  0  0  0  0  0999 V2000
    2.8660   -3.7409    0.0000 S   0  0  0  0  0  0  0  0  0  0  0  0
    5.4071    2.8469    0.0000 S   0  0  0  0  0  0  0  0  0  0  0  0
    2.3660   -4.6069    0.0000 O   0  0  0  0  0  0  0  0  0  0  0  0
    3.3660   -4.6069    0.0000 O   0  0  0  0  0  0  0  0  0  0  0  0
    4.5981   -0.7409    0.0000 O   0  0  0  0  0  0  0  0  0  0  0  0
    2.8660   -1.7409    0.0000 N   0  0  0  0  0  0  0  0  0  0  0  0
    3.7320    0.7591    0.0000 N   0  0  0  0  0  0  0  0  0  0  0  0
    3.7891    2.8469    0.0000 N   0  0  0  0  0  0  0  0  0  0  0  0
    2.0000   -3.2409    0.0000 C   0  0  0  0  0  0  0  0  0  0  0  0
    3.7320   -3.2409    0.0000 C   0  0  0  0  0  0  0  0  0  0  0  0
    2.0000   -2.2409    0.0000 C   0  0  0  0  0  0  0  0  0  0  0  0
    3.7320   -2.2409    0.0000 C   0  0  0  0  0  0  0  0  0  0  0  0
    2.8660   -0.7409    0.0000 C   0  0  0  0  0  0  0  0  0  0  0  0
    3.7320   -0.2409    0.0000 C   0  0  0  0  0  0  0  0  0  0  0  0
    4.5981    1.2591    0.0000 C   0  0  0  0  0  0  0  0  0  0  0  0
    4.5981    2.2591    0.0000 C   0  0  0  0  0  0  0  0  0  0  0  0
    4.0981    3.7979    0.0000 C   0  0  0  0  0  0  0  0  0  0  0  0
    5.0981    3.7979    0.0000 C   0  0  0  0  0  0  0  0  0  0  0  0
    3.5103    4.6069    0.0000 C   0  0  0  0  0  0  0  0  0  0  0  0
    3.9441   -3.8235    0.0000 H   0  0  0  0  0  0  0  0  0  0  0  0
    4.3426   -3.1332    0.0000 H   0  0  0  0  0  0  0  0  0  0  0  0
    1.3894   -3.1332    0.0000 H   0  0  0  0  0  0  0  0  0  0  0  0
    1.7880   -3.8235    0.0000 H   0  0  0  0  0  0  0  0  0  0  0  0
    4.3426   -2.3486    0.0000 H   0  0  0  0  0  0  0  0  0  0  0  0
    3.9441   -1.6583    0.0000 H   0  0  0  0  0  0  0  0  0  0  0  0
    1.7880   -1.6583    0.0000 H   0  0  0  0  0  0  0  0  0  0  0  0
    1.3894   -2.3486    0.0000 H   0  0  0  0  0  0  0  0  0  0  0  0
    2.6540   -0.1583    0.0000 H   0  0  0  0  0  0  0  0  0  0  0  0
    2.2554   -0.8486    0.0000 H   0  0  0  0  0  0  0  0  0  0  0  0
    3.1951    1.0691    0.0000 H   0  0  0  0  0  0  0  0  0  0  0  0
    4.8101    0.6765    0.0000 H   0  0  0  0  0  0  0  0  0  0  0  0
    5.2087    1.3668    0.0000 H   0  0  0  0  0  0  0  0  0  0  0  0
    5.4625    4.2995    0.0000 H   0  0  0  0  0  0  0  0  0  0  0  0
    4.0119    4.9714    0.0000 H   0  0  0  0  0  0  0  0  0  0  0  0
    3.1459    5.1085    0.0000 H   0  0  0  0  0  0  0  0  0  0  0  0
    3.0087    4.2425    0.0000 H   0  0  0  0  0  0  0  0  0  0  0  0
  1  3  2  0  0  0  0
  1  4  2  0  0  0  0
  1  9  1  0  0  0  0
  1 10  1  0  0  0  0
  2 16  1  0  0  0  0
  2 18  1  0  0  0  0
  5 14  2  0  0  0  0
  6 11  1  0  0  0  0
  6 12  1  0  0  0  0
  6 13  1  0  0  0  0
  7 14  1  0  0  0  0
  7 15  1  0  0  0  0
  7 30  1  0  0  0  0
  8 16  2  0  0  0  0
  8 17  1  0  0  0  0
  9 11  1  0  0  0  0
  9 22  1  0  0  0  0
  9 23  1  0  0  0  0
 10 12  1  0  0  0  0
 10 20  1  0  0  0  0
 10 21  1  0  0  0  0
 11 26  1  0  0  0  0
 11 27  1  0  0  0  0
 12 24  1  0  0  0  0
 12 25  1  0  0  0  0
 13 14  1  0  0  0  0
 13 28  1  0  0  0  0
 13 29  1  0  0  0  0
 15 16  1  0  0  0  0
 15 31  1  0  0  0  0
 15 32  1  0  0  0  0
 17 18  2  0  0  0  0
 17 19  1  0  0  0  0
 18 33  1  0  0  0  0
 19 34  1  0  0  0  0
 19 35  1  0  0  0  0
 19 36  1  0  0  0  0
M  END
> <PUBCHEM_COMPOUND_CID>
47205567

> <PUBCHEM_COMPOUND_CANONICALIZED>
1

> <PUBCHEM_CACTVS_COMPLEXITY>
407

> <PUBCHEM_CACTVS_HBOND_ACCEPTOR>
6

> <PUBCHEM_CACTVS_HBOND_DONOR>
1

> <PUBCHEM_CACTVS_ROTATABLE_BOND>
4

> <PUBCHEM_CACTVS_SUBSKEYS>
AAADceBzMABgAAAAAAAAAAAAAAAAAWAAAAAsAAAAAAAAAAABgAAAHgQQAAAACAjF1gSigRPIEAqsAQVyVHBA8KBBCjgAAJSYIAAAQAAgASAQAAAAFgCgAAAAAAAAAAAAAAAAAAAAAAAAAAAAAAAAAAAAAA==

> <PUBCHEM_IUPAC_OPENEYE_NAME>
2-(1,1-dioxo-1,4-thiazinan-4-yl)-N-[(4-methylthiazol-2-yl)methyl]acetamide

> <PUBCHEM_IUPAC_CAS_NAME>
2-(1,1-dioxo-1,4-thiazinan-4-yl)-N-[(4-methyl-2-thiazolyl)methyl]acetamide

> <PUBCHEM_IUPAC_NAME>
2-(1,1-dioxo-1,4-thiazinan-4-yl)-N-[(4-methyl-1,3-thiazol-2-yl)methyl]acetamide

> <PUBCHEM_IUPAC_SYSTEMATIC_NAME>
2-[1,1-bis(oxidanylidene)-1,4-thiazinan-4-yl]-N-[(4-methyl-1,3-thiazol-2-yl)methyl]ethanamide

> <PUBCHEM_IUPAC_TRADITIONAL_NAME>
2-(1,1-diketo-1,4-thiazinan-4-yl)-N-[(4-methylthiazol-2-yl)methyl]acetamide

> <PUBCHEM_IUPAC_INCHI>
InChI=1S/C11H17N3O3S2/c1-9-8-18-11(13-9)6-12-10(15)7-14-2-4-19(16,17)5-3-14/h8H,2-7H2,1H3,(H,12,15)

> <PUBCHEM_IUPAC_INCHIKEY>
UCYWRUHVTQETCA-UHFFFAOYSA-N

> <PUBCHEM_XLOGP3_AA>
-0.3

> <PUBCHEM_EXACT_MASS>
303.071133

> <PUBCHEM_MOLECULAR_FORMULA>
C11H17N3O3S2

> <PUBCHEM_MOLECULAR_WEIGHT>
303.40098

> <PUBCHEM_OPENEYE_CAN_SMILES>
CC1=CSC(=N1)CNC(=O)CN2CCS(=O)(=O)CC2

> <PUBCHEM_OPENEYE_ISO_SMILES>
CC1=CSC(=N1)CNC(=O)CN2CCS(=O)(=O)CC2

> <PUBCHEM_CACTVS_TPSA>
116

> <PUBCHEM_MONOISOTOPIC_WEIGHT>
303.071133

> <PUBCHEM_TOTAL_CHARGE>
0

> <PUBCHEM_HEAVY_ATOM_COUNT>
19

> <PUBCHEM_ATOM_DEF_STEREO_COUNT>
0

> <PUBCHEM_ATOM_UDEF_STEREO_COUNT>
0

> <PUBCHEM_BOND_DEF_STEREO_COUNT>
0

> <PUBCHEM_BOND_UDEF_STEREO_COUNT>
0

> <PUBCHEM_ISOTOPIC_ATOM_COUNT>
0

> <PUBCHEM_COMPONENT_COUNT>
1

> <PUBCHEM_CACTVS_TAUTO_COUNT>
2

> <PUBCHEM_COORDINATE_TYPE>
1
5
255

> <PUBCHEM_BONDANNOTATIONS>
17  18  8
2  16  8
2  18  8
8  16  8
8  17  8

$$$$

